/*--------------------------------*- C++ -*----------------------------------*\
| =========                 |                                                 |
| \\      /  F ield         | OpenFOAM: The Open Source CFD Toolbox           |
|  \\    /   O peration     | Version:  4.1                                   |
|   \\  /    A nd           | Web:      www.OpenFOAM.org                      |
|    \\/     M anipulation  |                                                 |
\*---------------------------------------------------------------------------*/
FoamFile
{
    version     2.0;
    format      ascii;
    class       volScalarField;
    location    "2";
    object      epsilon;
}
// * * * * * * * * * * * * * * * * * * * * * * * * * * * * * * * * * * * * * //

dimensions      [0 2 -3 0 0 0 0];

internalField   nonuniform List<scalar> 
4432
(
0.000405179
0.000410896
0.00041814
0.000422294
0.000427593
0.000432875
0.000440579
0.000462035
0.000447361
0.000642946
0.000823501
0.0011086
0.000677839
0.000733586
0.00049486
0.00061475
0.000673385
0.0004491
0.000519061
0.000388943
0.000433201
0.000393714
0.000367263
0.000405737
0.000348728
0.000227787
0.000166532
0.000340701
0.000226694
0.000323807
0.000369291
0.000405848
0.000335966
0.000388783
0.000370002
0.000408308
0.00038455
0.000399818
0.000382374
0.00043403
0.000426698
0.000415313
0.000408378
0.000404531
0.000400785
0.000395817
0.000391061
0.00038602
0.000386787
0.000391006
0.00040718
0.000431739
0.000428792
0.00050529
0.00040665
0.000408805
0.000414051
0.000417102
0.000421141
0.000424972
0.000430932
0.000446491
0.000435334
0.000583576
0.000661913
0.000862323
0.000608265
0.000657249
0.000465854
0.000550359
0.000588455
0.000429073
0.000472247
0.000383596
0.000408021
0.000372732
0.00033278
0.000347563
0.000328431
0.00019928
0.00012095
0.000240461
0.000173058
0.000290592
0.000302383
0.000364615
0.000286209
0.000324954
0.000328095
0.000385486
0.000347788
0.000360022
0.000363382
0.000388796
0.00039604
0.000397728
0.00039704
0.000396348
0.000395094
0.000392504
0.000390334
0.000387867
0.000390498
0.000394869
0.000408386
0.00042522
0.000415374
0.000480133
0.166635
0.149914
0.149932
0.149763
0.149946
0.150299
0.150529
0.150777
0.151445
0.152479
0.154194
0.154297
0.153835
0.152625
0.152688
0.151732
0.151695
0.153713
0.157424
0.155152
0.153262
0.155922
0.164335
0.166128
0.161512
0.168279
0.168899
0.181179
0.175503
0.165493
0.177526
0.179597
0.180948
0.180168
0.181055
0.18036
0.180871
0.180315
0.172226
0.160202
0.175153
0.167692
0.140144
0.145201
0.150756
0.139318
0.138023
0.13698
0.152028
0.172307
0.164638
0.157806
0.163602
0.154852
0.166595
0.149511
0.1496
0.149576
0.149727
0.149887
0.150065
0.150221
0.150772
0.151596
0.152886
0.153001
0.152486
0.151714
0.151165
0.150878
0.151511
0.15123
0.151114
0.153746
0.160859
0.165603
0.167364
0.164183
0.164731
0.180915
0.176199
0.165108
0.173758
0.165562
0.177174
0.179089
0.180111
0.179334
0.180296
0.179662
0.180171
0.179672
0.177461
0.173699
0.177657
0.168065
0.139977
0.146492
0.153665
0.13977
0.138127
0.13755
0.151924
0.167274
0.151782
0.154598
0.170535
0.171423
0.166616
0.149829
0.149861
0.149692
0.149782
0.150334
0.150276
0.150421
0.151437
0.152356
0.1532
0.153183
0.15362
0.151813
0.153115
0.153004
0.152452
0.152399
0.154321
0.157116
0.156933
0.161492
0.161147
0.161118
0.170229
0.164685
0.164822
0.177229
0.176155
0.175704
0.175388
0.166233
0.14664
0.156073
0.175204
0.167719
0.156691
0.16439
0.15478
0.173669
0.166919
0.140863
0.146077
0.152382
0.139599
0.137267
0.136052
0.148903
0.171107
0.174238
0.163829
0.158036
0.162995
0.154728
0.166579
0.149458
0.1495
0.149466
0.149537
0.149897
0.149792
0.149856
0.150774
0.151521
0.152023
0.15177
0.152329
0.152053
0.152035
0.150612
0.152308
0.156082
0.157054
0.152071
0.159217
0.163051
0.14985
0.159372
0.167182
0.159351
0.160414
0.168362
0.174976
0.174618
0.173559
0.165847
0.145891
0.155415
0.174058
0.166313
0.156064
0.163892
0.154546
0.173343
0.166694
0.140648
0.14708
0.154707
0.14058
0.13875
0.13771
0.151022
0.172006
0.169009
0.151983
0.155115
0.170199
0.171013
0.166647
0.14966
0.149662
0.149632
0.150082
0.150615
0.15065
0.150458
0.151189
0.151793
0.152462
0.153226
0.153952
0.151351
0.154159
0.154831
0.151769
0.153584
0.155153
0.160536
0.160555
0.15816
0.155823
0.161577
0.171802
0.171723
0.175213
0.171784
0.171747
0.172845
0.164183
0.160453
0.172316
0.173177
0.174131
0.175847
0.167958
0.151798
0.15206
0.149278
0.151671
0.153334
0.171418
0.166115
0.145834
0.139143
0.137521
0.151695
0.1723
0.173124
0.162128
0.15797
0.162749
0.154915
0.166604
0.149481
0.149356
0.149318
0.149725
0.150228
0.150202
0.149934
0.150543
0.151023
0.151685
0.152127
0.151378
0.153168
0.153519
0.152945
0.151859
0.157084
0.158749
0.153397
0.15603
0.161481
0.156008
0.159988
0.170915
0.173538
0.173626
0.171259
0.169064
0.162848
0.157576
0.170943
0.172857
0.172776
0.173912
0.176527
0.167435
0.153128
0.155934
0.151057
0.155488
0.154395
0.171531
0.16659
0.147005
0.140542
0.13785
0.151279
0.17003
0.166308
0.149877
0.154813
0.169521
0.170137
0.166619
0.149657
0.149655
0.149628
0.150467
0.150615
0.151066
0.1505
0.15111
0.151698
0.151993
0.153803
0.154158
0.152615
0.152658
0.153088
0.154048
0.155494
0.158534
0.162264
0.15482
0.155599
0.161876
0.167969
0.166761
0.165822
0.171026
0.16997
0.17047
0.163998
0.169354
0.173326
0.172952
0.173172
0.174461
0.168422
0.155478
0.158022
0.159336
0.17293
0.164528
0.154503
0.170779
0.166032
0.146841
0.14077
0.139401
0.153539
0.171282
0.169926
0.158551
0.157599
0.162032
0.154751
0.166586
0.149509
0.14931
0.149263
0.150111
0.150222
0.15062
0.149987
0.15046
0.150952
0.152008
0.152982
0.150271
0.153461
0.152052
0.154899
0.153276
0.157316
0.155176
0.151871
0.154814
0.161812
0.159101
0.16482
0.160261
0.166969
0.161628
0.160843
0.164379
0.163785
0.16954
0.166135
0.159316
0.163833
0.158591
0.164629
0.148985
0.1482
0.158641
0.172487
0.164268
0.154376
0.170647
0.166479
0.147934
0.141342
0.139499
0.151619
0.1686
0.164125
0.148026
0.154766
0.168667
0.169244
0.166666
0.149659
0.149606
0.149633
0.15021
0.150816
0.150712
0.150945
0.15102
0.15215
0.151887
0.153537
0.154184
0.154139
0.152908
0.150698
0.15748
0.158722
0.159793
0.160997
0.154368
0.159446
0.161378
0.163775
0.163211
0.166544
0.164606
0.165297
0.167187
0.162644
0.166898
0.167885
0.16953
0.172387
0.175295
0.17506
0.176406
0.166182
0.156221
0.172316
0.165474
0.152099
0.163656
0.171256
0.164664
0.144483
0.138822
0.153406
0.170081
0.1677
0.156032
0.157689
0.161683
0.154918
0.166622
0.149434
0.149344
0.149381
0.149876
0.150435
0.150277
0.150452
0.150444
0.151485
0.151887
0.152648
0.150379
0.154018
0.152166
0.152704
0.156656
0.157971
0.155161
0.150577
0.152687
0.158424
0.159869
0.163337
0.162952
0.172417
0.166795
0.169175
0.168082
0.162292
0.158777
0.167122
0.169257
0.165417
0.151638
0.152146
0.149966
0.156196
0.169212
0.173641
0.165457
0.152916
0.165143
0.171446
0.164842
0.145901
0.13993
0.151291
0.167879
0.1622
0.146291
0.154717
0.167786
0.167998
0.166621
0.149695
0.149618
0.149658
0.150365
0.150882
0.150754
0.151334
0.151233
0.152078
0.152378
0.153215
0.153726
0.15235
0.155773
0.151468
0.158207
0.15583
0.155825
0.156328
0.152948
0.164346
0.160461
0.159377
0.161758
0.163272
0.161695
0.162678
0.155583
0.160058
0.168445
0.168255
0.166883
0.169267
0.168852
0.161402
0.172546
0.175654
0.173728
0.171814
0.17547
0.16479
0.154379
0.170226
0.16381
0.143687
0.138946
0.152803
0.167921
0.165163
0.152835
0.157364
0.160838
0.154692
0.16659
0.149479
0.149275
0.149302
0.150029
0.150501
0.150328
0.150861
0.150674
0.151438
0.151031
0.151422
0.151705
0.151869
0.155231
0.153638
0.157348
0.155868
0.15977
0.149785
0.155649
0.150306
0.159084
0.150621
0.166553
0.170853
0.157427
0.164874
0.165513
0.165644
0.168265
0.167475
0.16698
0.162645
0.163038
0.173981
0.172048
0.170606
0.172146
0.174214
0.175582
0.164968
0.154675
0.17021
0.164351
0.145072
0.139922
0.151755
0.167089
0.160875
0.145978
0.154804
0.166616
0.166756
0.166686
0.149736
0.149567
0.149514
0.15088
0.150296
0.151151
0.151436
0.151606
0.15137
0.151547
0.15201
0.153547
0.152141
0.155269
0.154391
0.159873
0.152174
0.157111
0.15798
0.14993
0.158733
0.149932
0.168428
0.161389
0.151687
0.167022
0.16706
0.157244
0.16371
0.169881
0.170605
0.172181
0.174376
0.17526
0.171146
0.174888
0.168517
0.159536
0.164353
0.157301
0.172143
0.165114
0.144121
0.147172
0.14925
0.139816
0.153117
0.168739
0.163108
0.150775
0.157347
0.160912
0.155147
0.166641
0.149297
0.149269
0.149309
0.150561
0.150214
0.150683
0.151001
0.151274
0.150787
0.150143
0.150247
0.151907
0.151756
0.153175
0.156881
0.158288
0.151347
0.158382
0.150159
0.16418
0.149745
0.149746
0.15306
0.167216
0.167119
0.161797
0.168492
0.157017
0.163196
0.166633
0.164801
0.170235
0.170608
0.173471
0.17145
0.171676
0.16824
0.160763
0.165366
0.157888
0.17152
0.164338
0.143999
0.148458
0.151517
0.140482
0.153064
0.168072
0.160181
0.146428
0.155911
0.167109
0.16581
0.166628
0.149768
0.149629
0.149683
0.150487
0.150014
0.150956
0.151496
0.151617
0.150868
0.150689
0.151504
0.153136
0.154256
0.155853
0.154799
0.158307
0.154939
0.163466
0.166373
0.158988
0.158634
0.160811
0.162083
0.160575
0.157964
0.168712
0.159301
0.162777
0.164341
0.158829
0.164001
0.168053
0.173454
0.174852
0.171801
0.178252
0.178878
0.171838
0.154332
0.157718
0.173032
0.17283
0.172177
0.168177
0.154641
0.141159
0.155314
0.168371
0.161129
0.149628
0.158435
0.161643
0.154871
0.1666
0.149455
0.149258
0.149299
0.150166
0.149936
0.150598
0.15106
0.151304
0.150431
0.150027
0.150834
0.149916
0.153968
0.153134
0.156353
0.157227
0.151565
0.160032
0.157519
0.165264
0.159353
0.155346
0.151822
0.171425
0.168989
0.158234
0.161489
0.158472
0.162661
0.159823
0.160959
0.168739
0.165244
0.173576
0.172907
0.174127
0.177308
0.172579
0.153284
0.155668
0.173076
0.173858
0.171833
0.170277
0.159388
0.143374
0.156158
0.169491
0.162051
0.148589
0.158031
0.166626
0.164303
0.166715
0.149858
0.149564
0.149603
0.149827
0.150748
0.151499
0.151849
0.151247
0.151488
0.151285
0.152264
0.152782
0.152732
0.152809
0.150376
0.157092
0.161786
0.160586
0.160306
0.168777
0.171515
0.173721
0.172299
0.154806
0.166614
0.164859
0.154166
0.159966
0.152855
0.15454
0.160407
0.153726
0.172343
0.171772
0.156412
0.16128
0.172794
0.166425
0.159544
0.163716
0.157584
0.17292
0.163275
0.155301
0.161055
0.143882
0.157336
0.170042
0.163703
0.152647
0.161319
0.161572
0.154975
0.166667
0.149276
0.149264
0.149408
0.149863
0.150406
0.151246
0.15144
0.150673
0.15036
0.15045
0.151737
0.1511
0.153626
0.153972
0.153091
0.154277
0.156521
0.165039
0.165859
0.166163
0.169607
0.15735
0.166422
0.179061
0.161773
0.155289
0.154777
0.155447
0.15604
0.164983
0.167842
0.155199
0.169034
0.178909
0.168018
0.159899
0.180218
0.17509
0.164335
0.168349
0.159338
0.173198
0.1638
0.154735
0.159018
0.143539
0.156896
0.169587
0.15918
0.1496
0.157519
0.163902
0.16136
0.166646
0.150264
0.149585
0.150474
0.150455
0.151079
0.151714
0.151764
0.151254
0.151241
0.151227
0.151896
0.151301
0.151007
0.151888
0.149573
0.155083
0.159207
0.158574
0.157674
0.162068
0.160416
0.185298
0.473378
0.238629
0.185623
0.155636
0.150611
0.152229
0.153419
0.152038
0.153225
0.163744
0.166304
0.15791
0.160318
0.173334
0.165559
0.150847
0.146958
0.149596
0.151589
0.156906
0.171956
0.165876
0.147318
0.144263
0.15846
0.166553
0.153478
0.15101
0.158792
0.157924
0.153833
0.166619
0.150289
0.149285
0.150063
0.150488
0.150775
0.151339
0.151349
0.150696
0.150782
0.150351
0.151316
0.150748
0.151582
0.151345
0.15209
0.154165
0.159153
0.163238
0.166214
0.157886
0.15975
0.169908
0.282712
0.219801
0.158215
0.154651
0.15183
0.151805
0.154338
0.156457
0.165078
0.160128
0.174273
0.170835
0.169682
0.17802
0.177037
0.16075
0.158563
0.152591
0.149668
0.155834
0.163815
0.15531
0.16164
0.142727
0.153532
0.159578
0.147911
0.147487
0.155353
0.159824
0.158561
0.166757
0.15052
0.150532
0.151357
0.151542
0.151282
0.151237
0.151936
0.151138
0.15081
0.151169
0.150991
0.149919
0.151091
0.153003
0.150157
0.157051
0.156635
0.162789
0.159952
0.163387
0.147769
0.23162
1.92775
0.620733
0.175257
0.154857
0.151439
0.151701
0.150934
0.151566
0.154025
0.162956
0.155064
0.161255
0.159803
0.165882
0.15435
0.151962
0.158938
0.16425
0.151004
0.159285
0.170512
0.168687
0.159133
0.143696
0.155551
0.158739
0.151173
0.150869
0.156532
0.155493
0.152846
0.166704
0.150924
0.150197
0.151114
0.151195
0.150969
0.150668
0.151541
0.15153
0.15153
0.150735
0.150576
0.149527
0.150824
0.149525
0.154654
0.156383
0.151569
0.162701
0.167879
0.150904
0.147894
0.224872
1.46113
0.755513
0.162158
0.155176
0.150843
0.160722
0.151353
0.156303
0.160174
0.152289
0.167392
0.158228
0.164223
0.178716
0.159697
0.154634
0.164589
0.169713
0.148472
0.158372
0.173417
0.172764
0.163758
0.14428
0.154597
0.159602
0.149669
0.150078
0.156382
0.159355
0.155914
0.166679
0.150525
0.151543
0.151713
0.151726
0.151815
0.151624
0.152258
0.151378
0.152107
0.15145
0.151404
0.150873
0.150426
0.149265
0.151323
0.153539
0.15603
0.16132
0.145832
0.162317
0.160634
0.293437
6.74536
3.17825
0.176609
0.167239
0.155278
0.160426
0.167315
0.152075
0.154013
0.16231
0.160467
0.162169
0.163499
0.163829
0.160268
0.159622
0.151437
0.159585
0.159508
0.160319
0.165591
0.161787
0.15518
0.157709
0.158172
0.159672
0.158856
0.158019
0.157931
0.156165
0.169977
0.16665
0.151227
0.150278
0.150383
0.150712
0.151424
0.151057
0.151751
0.150557
0.151916
0.15097
0.15093
0.150467
0.15132
0.149135
0.151652
0.153363
0.150364
0.160812
0.16499
0.160332
0.159572
0.307919
8.50109
2.9634
0.185672
0.16629
0.165152
0.176658
0.163773
0.160708
0.174388
0.156599
0.164066
0.173363
0.182839
0.179248
0.164293
0.171182
0.18281
0.178866
0.159557
0.161262
0.172364
0.167633
0.158455
0.166853
0.173146
0.162553
0.153972
0.150627
0.15651
0.157483
0.151747
0.166671
0.151961
0.150972
0.151883
0.151916
0.152009
0.15113
0.151022
0.152272
0.151156
0.15118
0.152199
0.150571
0.151332
0.150126
0.154193
0.151879
0.153028
0.156637
0.146909
0.145287
0.173662
0.458819
5.75808
8.38471
0.272781
0.188097
0.16553
0.163203
0.17937
0.167529
0.175194
0.183951
0.16623
0.175509
0.170919
0.161138
0.159103
0.167412
0.166155
0.166241
0.16439
0.158912
0.159879
0.155853
0.159911
0.163276
0.162003
0.169663
0.165675
0.167996
0.166166
0.165898
0.275843
0.166614
0.151366
0.150456
0.150484
0.149809
0.151576
0.15189
0.150723
0.149569
0.152012
0.150743
0.151608
0.150401
0.151559
0.150891
0.151389
0.151027
0.149688
0.155442
0.157744
0.168537
0.176434
0.520988
7.62533
8.95828
0.272135
0.184755
0.180934
0.177593
0.176023
0.163323
0.174949
0.164494
0.160504
0.172659
0.171408
0.172395
0.171494
0.173256
0.16941
0.175378
0.170353
0.159835
0.166966
0.160817
0.152976
0.157055
0.156931
0.159611
0.160007
0.157997
0.15913
0.160829
0.220774
0.166584
0.151933
0.150527
0.151911
0.15213
0.151034
0.14996
0.149874
0.151153
0.15137
0.151247
0.150956
0.150575
0.151541
0.152632
0.155397
0.154554
0.158044
0.154786
0.15146
0.160105
0.147879
0.332421
6.21364
27.5736
0.694799
0.189197
0.170167
0.172631
0.19773
0.185475
0.16817
0.189462
0.156825
0.151293
0.169304
0.175589
0.150528
0.157159
0.156366
0.168806
0.147372
0.143243
0.15789
0.165133
0.162127
0.177735
0.180923
0.175235
0.168963
0.179008
0.174298
0.180245
0.350925
0.166659
0.151752
0.150692
0.151716
0.15057
0.150656
0.151962
0.150781
0.149492
0.152144
0.152276
0.150626
0.150612
0.1528
0.153216
0.15221
0.154101
0.151238
0.153286
0.154054
0.1606
0.158684
0.349687
6.26141
29.7823
0.553726
0.180739
0.16821
0.156573
0.154716
0.177293
0.177092
0.17276
0.152775
0.168342
0.172038
0.180322
0.174775
0.168937
0.167258
0.171335
0.16469
0.159138
0.157999
0.158774
0.159239
0.15898
0.15956
0.168244
0.161716
0.161145
0.164173
0.168875
0.298515
0.167057
0.152433
0.151681
0.152025
0.151915
0.151352
0.151544
0.151413
0.151398
0.151437
0.151313
0.151158
0.150517
0.151583
0.15211
0.153276
0.154493
0.160285
0.161122
0.157098
0.167528
0.165416
0.262097
202.656
1.10928
0.182303
0.151686
0.160116
0.205179
0.150344
0.164281
0.195473
0.167806
0.154036
0.175721
0.162929
0.152884
0.174611
0.150661
0.177496
0.154064
0.161102
0.159631
0.176165
0.171036
0.211809
0.216666
0.195481
0.163656
0.190745
0.157487
0.18565
0.39493
0.166888
0.151868
0.15037
0.15193
0.151484
0.150899
0.152286
0.152281
0.15098
0.150858
0.150927
0.150792
0.151626
0.151743
0.154324
0.152589
0.155456
0.156062
0.160172
0.157893
0.167338
0.178893
0.22409
15.2437
0.75134
0.187224
0.197833
0.21481
0.16301
0.15743
0.165962
0.179733
0.174235
0.181651
0.175436
0.174354
0.175427
0.168978
0.16696
0.163909
0.176675
0.161776
0.150184
0.160889
0.174303
0.170618
0.168169
0.169529
0.151033
0.152419
0.160013
0.172674
0.339598
0.166789
0.152391
0.151304
0.15247
0.152236
0.152838
0.152897
0.153029
0.152864
0.151602
0.153305
0.151248
0.151529
0.153585
0.151791
0.151702
0.156664
0.159432
0.157535
0.162995
0.165581
0.170275
0.147756
0.137831
0.959732
0.190217
0.19119
0.177105
0.17566
0.18532
0.191689
0.198915
0.204518
0.194365
0.189434
0.197426
0.176088
0.154201
0.182841
0.154588
0.184968
0.150057
0.158648
0.201488
0.206345
0.214732
0.217198
0.200257
0.156406
0.16147
0.147192
0.150171
0.164292
0.366475
0.166759
0.152058
0.151518
0.152008
0.151812
0.152421
0.152293
0.152611
0.152703
0.151198
0.151226
0.150946
0.152143
0.15175
0.151637
0.153602
0.155426
0.159098
0.156874
0.155209
0.161243
0.171118
0.186215
0.163088
1.85928
0.168422
0.148323
0.163793
0.176978
0.178257
0.178022
0.172699
0.185902
0.183314
0.182815
0.184827
0.163708
0.162653
0.176386
0.159063
0.171937
0.161077
0.163514
0.174043
0.175083
0.178817
0.175089
0.176193
0.173259
0.164124
0.159643
0.156497
0.164128
0.361151
0.166976
0.151603
0.150396
0.15292
0.153197
0.153269
0.153606
0.153698
0.153666
0.153786
0.153274
0.149391
0.153509
0.153584
0.154214
0.155425
0.156212
0.153201
0.153184
0.156653
0.156664
0.171431
0.169074
0.164212
0.171169
0.173328
0.161016
0.165991
0.170565
0.160636
0.157518
0.189602
0.191917
0.180182
0.157384
0.192903
0.200979
0.198291
0.177742
0.150304
0.17789
0.149954
0.176603
0.115513
0.164114
0.205303
0.202928
0.180537
0.142863
0.150326
0.143057
0.150001
0.166117
0.411849
0.166899
0.150946
0.150858
0.152385
0.152677
0.15274
0.153076
0.153247
0.153211
0.153287
0.152798
0.149056
0.153186
0.153601
0.152023
0.154756
0.155723
0.155052
0.155235
0.163431
0.154712
0.15782
0.177856
0.168334
0.162426
0.173637
0.162092
0.167743
0.178005
0.171869
0.170195
0.153879
0.176966
0.172946
0.15091
0.179186
0.182595
0.177795
0.171486
0.162021
0.173565
0.163338
0.171598
0.150436
0.163341
0.172134
0.165734
0.163785
0.167421
0.159326
0.15761
0.154474
0.165766
0.410928
0.166864
0.151543
0.150858
0.151999
0.152891
0.153494
0.153676
0.153922
0.154642
0.154478
0.155004
0.152981
0.155022
0.153887
0.154168
0.152342
0.156288
0.153877
0.155267
0.14926
0.151657
0.167259
0.162806
0.16694
0.166639
0.154559
0.169083
0.161989
0.159493
0.167473
0.165827
0.180425
0.189512
0.20123
0.193974
0.203514
0.185508
0.168425
0.16971
0.121542
0.12275
0.163791
0.213298
0.209534
0.203884
0.178523
0.120729
0.13381
0.141741
0.140503
0.141621
0.153983
0.175424
0.463282
0.166826
0.151084
0.149944
0.151163
0.152415
0.153008
0.153205
0.153454
0.154178
0.153983
0.154643
0.152688
0.152425
0.154478
0.154288
0.152032
0.156253
0.153458
0.154655
0.160489
0.161973
0.15347
0.16333
0.167894
0.155562
0.149601
0.158083
0.165851
0.17246
0.175008
0.170462
0.163515
0.18077
0.179191
0.161706
0.164965
0.18375
0.173276
0.140762
0.148547
0.152983
0.168637
0.183219
0.170724
0.164921
0.168243
0.160128
0.163874
0.165219
0.157421
0.157491
0.162856
0.182477
0.464152
0.167053
0.151999
0.151188
0.151372
0.15394
0.153604
0.153975
0.154463
0.152952
0.154322
0.152799
0.154075
0.154125
0.155775
0.153614
0.153131
0.156632
0.158087
0.155126
0.154955
0.152296
0.158922
0.159594
0.166016
0.158149
0.159301
0.156662
0.158796
0.154053
0.159732
0.175884
0.18823
0.196324
0.195787
0.203475
0.203409
0.193874
0.175177
0.096841
0.17205
0.227791
0.224985
0.209132
0.18408
0.141185
0.179757
0.0939622
0.108561
0.127325
0.127999
0.140646
0.158904
0.187053
0.509063
0.166967
0.15126
0.150099
0.150368
0.153307
0.152969
0.153374
0.153842
0.152345
0.153661
0.15242
0.153763
0.152952
0.152296
0.155451
0.152773
0.156205
0.157654
0.150127
0.160421
0.158212
0.161792
0.159474
0.163785
0.169474
0.163201
0.165744
0.157797
0.153279
0.160464
0.169228
0.177796
0.18328
0.182379
0.1869
0.187184
0.181445
0.166221
0.137916
0.1742
0.199955
0.198788
0.189707
0.178204
0.168989
0.174573
0.159501
0.165884
0.168536
0.157446
0.159031
0.167334
0.196736
0.512165
0.166931
0.151686
0.151475
0.151794
0.153655
0.152542
0.152679
0.154162
0.153931
0.155227
0.15162
0.1529
0.150919
0.156605
0.152389
0.154637
0.15468
0.155427
0.159861
0.161163
0.152733
0.154701
0.161035
0.162195
0.154093
0.162542
0.165143
0.172092
0.178563
0.185571
0.183059
0.167998
0.15697
0.176172
0.157899
0.209614
0.201296
0.188544
0.135296
0.169118
0.23245
0.226038
0.197318
0.157295
0.24501
0.223996
0.179423
0.0604783
0.0914476
0.108363
0.141497
0.165081
0.201517
0.552108
0.166886
0.150225
0.150297
0.150622
0.153076
0.151973
0.152156
0.153658
0.153357
0.1547
0.151097
0.152576
0.155048
0.15393
0.155381
0.152148
0.15288
0.15456
0.153394
0.160617
0.15276
0.161082
0.160614
0.16196
0.145879
0.155208
0.164723
0.170613
0.175372
0.182891
0.177148
0.164847
0.160788
0.168118
0.139255
0.165773
0.175689
0.131918
0.138416
0.174518
0.204335
0.203271
0.186974
0.175206
0.203039
0.181944
0.153164
0.169482
0.170292
0.156964
0.162063
0.174245
0.212744
0.557662
0.167106
0.152161
0.15188
0.152276
0.153445
0.152296
0.153357
0.155583
0.154956
0.154072
0.154471
0.154133
0.156053
0.15983
0.156967
0.152898
0.153216
0.151931
0.159354
0.157746
0.156525
0.159524
0.15422
0.156654
0.164287
0.163334
0.16218
0.166043
0.181647
0.179306
0.17744
0.196642
0.202311
0.202791
0.187704
0.173978
0.204228
0.164157
0.0775466
0.121814
0.157092
0.139509
0.201777
0.162876
0.230331
0.16136
0.000220735
0.0321732
0.0169204
0.0805458
0.144139
0.185115
0.230216
0.594567
0.167013
0.15044
0.150484
0.150895
0.152712
0.151589
0.152957
0.154898
0.154178
0.153366
0.153783
0.153465
0.154248
0.159274
0.159939
0.153811
0.157288
0.15486
0.153745
0.15725
0.156414
0.159008
0.15596
0.15307
0.155512
0.166412
0.167157
0.165522
0.162217
0.183282
0.185841
0.184987
0.188163
0.189136
0.179021
0.174785
0.193836
0.171255
0.136526
0.159065
0.169978
0.171814
0.197441
0.165708
0.145335
0.131502
0.147057
0.166863
0.157028
0.15597
0.166569
0.182734
0.231089
0.602772
0.166975
0.152183
0.152303
0.15294
0.153387
0.152597
0.155036
0.15642
0.155191
0.154132
0.156531
0.153689
0.157225
0.161162
0.161757
0.155937
0.155811
0.16025
0.159138
0.153392
0.154934
0.160254
0.160935
0.15595
0.155029
0.158268
0.150513
0.160165
0.17053
0.176451
0.196146
0.185613
0.190145
0.179062
0.190334
0.175445
0.22629
0.216872
0.193963
0.180544
0.260786
0.264941
0.264039
0.245885
0.197274
0.112142
0.215679
0.206661
0.0408317
0.0562587
0.149388
0.197985
0.25386
0.637959
0.166922
0.150644
0.150678
0.15158
0.15273
0.151974
0.154773
0.155791
0.154583
0.153532
0.155934
0.153176
0.156686
0.160542
0.161056
0.154938
0.155349
0.159854
0.158572
0.15298
0.154549
0.160132
0.163451
0.165718
0.159042
0.155628
0.165223
0.159331
0.168576
0.174938
0.175236
0.180669
0.180809
0.181166
0.182535
0.175726
0.20429
0.197633
0.183113
0.186124
0.222699
0.227964
0.231289
0.22519
0.192678
0.11586
0.150966
0.165566
0.114676
0.157592
0.172349
0.194331
0.255282
0.648713
0.167114
0.153646
0.152725
0.154482
0.153876
0.151965
0.15457
0.154308
0.154658
0.151538
0.156675
0.158771
0.155857
0.158916
0.158728
0.164082
0.156291
0.157558
0.162277
0.160566
0.161281
0.149654
0.158472
0.166971
0.164909
0.159502
0.156281
0.163814
0.16772
0.20677
0.208963
0.208001
0.185812
0.159919
0.181702
0.206268
0.171774
0.211666
0.187591
0.219999
0.175907
0.239572
0.217412
0.325137
0.330739
0.481243
0.666008
0.634938
0.0954641
0.0049484
0.15884
0.215028
0.27969
0.683058
0.167017
0.150854
0.150848
0.151874
0.153068
0.151189
0.153787
0.153519
0.153858
0.15079
0.155904
0.158264
0.157141
0.157961
0.15671
0.163238
0.155596
0.153703
0.16207
0.159828
0.160837
0.149142
0.157499
0.159667
0.155886
0.166177
0.171197
0.17225
0.17893
0.178618
0.195559
0.197367
0.192613
0.196876
0.190057
0.156193
0.183434
0.197795
0.193208
0.210572
0.20064
0.22118
0.214448
0.245911
0.20519
0.133949
0.226251
0.21638
0.0536563
0.153252
0.177959
0.212407
0.282221
0.696427
0.166975
0.153426
0.152688
0.153605
0.153688
0.152938
0.151925
0.155251
0.156726
0.157482
0.158165
0.160722
0.161231
0.162719
0.159646
0.159058
0.163958
0.161429
0.150131
0.155478
0.162406
0.154466
0.158354
0.1543
0.164635
0.157457
0.153747
0.161677
0.165657
0.190593
0.185258
0.206067
0.213557
0.241968
0.253617
0.242711
0.245347
0.252311
0.242429
0.223949
0.326878
0.3454
0.381868
0.418118
0.47492
0.877766
1.34624
1.27459
0.283397
0.0497949
0.165507
0.241604
0.306553
0.73013
0.166916
0.151046
0.151116
0.151136
0.153013
0.152249
0.151253
0.154581
0.156042
0.156779
0.157443
0.160026
0.160448
0.157391
0.149252
0.159158
0.165107
0.156098
0.149753
0.154583
0.161879
0.15432
0.157246
0.147637
0.158104
0.162977
0.158521
0.164601
0.160725
0.173213
0.171532
0.192182
0.208002
0.202346
0.21404
0.21143
0.207823
0.218777
0.219286
0.209626
0.258208
0.266536
0.291319
0.287166
0.252956
0.291388
0.651084
0.599658
0.0295274
0.143686
0.185447
0.235022
0.314807
0.745462
0.167059
0.153466
0.153229
0.153841
0.155032
0.154172
0.153615
0.156392
0.154868
0.158098
0.159714
0.156356
0.157139
0.157139
0.155859
0.161514
0.163239
0.161532
0.153411
0.157129
0.158519
0.161327
0.147554
0.146681
0.154912
0.164781
0.158801
0.16303
0.185131
0.18947
0.200107
0.199514
0.200127
0.239553
0.248266
0.202183
0.192736
0.220487
0.195132
0.223297
0.13092
0.162292
0.298976
0.412791
0.900906
1.576
3.10783
2.76809
0.634692
0.078719
0.177362
0.274846
0.345034
0.777003
0.166965
0.150708
0.15066
0.151613
0.154176
0.153343
0.15281
0.155572
0.154055
0.157258
0.158866
0.155533
0.157065
0.157853
0.154517
0.159627
0.158147
0.160551
0.153449
0.154787
0.159116
0.160289
0.145667
0.145907
0.154083
0.162875
0.15828
0.162303
0.183605
0.196057
0.187617
0.194354
0.204787
0.207972
0.213706
0.20261
0.20417
0.202078
0.206879
0.215161
0.20211
0.202666
0.273857
0.22911
0.272165
0.695295
1.62075
1.12833
0.147423
0.132573
0.202755
0.257022
0.351005
0.795082
0.166922
0.153101
0.152917
0.153549
0.153546
0.153877
0.156383
0.154669
0.153923
0.157574
0.159201
0.158573
0.161179
0.161311
0.164143
0.163287
0.166835
0.160661
0.147429
0.156481
0.161349
0.157321
0.161889
0.144704
0.153969
0.160949
0.156892
0.176123
0.19481
0.212791
0.232227
0.23992
0.198191
0.236736
0.23953
0.212758
0.252714
0.241253
0.241868
0.286924
0.289873
0.247242
0.433003
0.749524
1.72377
3.78796
7.59237
6.59573
1.59339
0.162513
0.209649
0.314708
0.389702
0.822633
0.166863
0.151443
0.151288
0.151899
0.152799
0.153169
0.155664
0.153967
0.15325
0.156885
0.158951
0.154785
0.156595
0.162518
0.158626
0.15555
0.15878
0.156272
0.158797
0.154494
0.161761
0.155259
0.158887
0.144495
0.153887
0.160208
0.162101
0.179629
0.184169
0.177695
0.20874
0.227136
0.181019
0.212685
0.197579
0.204934
0.208034
0.204758
0.21362
0.234974
0.249554
0.232808
0.311404
0.36274
0.605475
1.66904
3.84202
2.34479
0.468898
0.140301
0.231513
0.279067
0.387837
0.841916
0.166962
0.152974
0.15276
0.152411
0.152288
0.154002
0.156223
0.154287
0.15544
0.158999
0.159494
0.157624
0.149896
0.157286
0.164305
0.162252
0.1589
0.156747
0.160869
0.159202
0.168007
0.169007
0.161027
0.142662
0.143031
0.155794
0.173118
0.172239
0.178806
0.203564
0.199262
0.251053
0.2284
0.242584
0.215259
0.243904
0.268372
0.245873
0.308149
0.296611
0.329909
0.375609
0.529143
0.86272
2.22085
8.2431
13.949
12.5455
4.11783
0.00682178
0.187423
0.337881
0.425932
0.855061
0.166877
0.152021
0.151864
0.151528
0.151451
0.153182
0.155398
0.153472
0.154622
0.158154
0.158631
0.156729
0.151084
0.156417
0.163359
0.161227
0.155448
0.152172
0.155208
0.145237
0.146071
0.153867
0.166013
0.151384
0.14276
0.155256
0.17
0.171491
0.169729
0.170107
0.181668
0.210691
0.20054
0.20121
0.179219
0.189744
0.227958
0.217528
0.25415
0.246193
0.259609
0.275378
0.326635
0.427544
0.978188
4.28546
8.07992
4.65842
1.06545
0.167666
0.226574
0.299988
0.420945
0.870687
0.166767
0.152112
0.15198
0.152654
0.154023
0.154771
0.15548
0.155213
0.15683
0.158176
0.157565
0.155498
0.153594
0.15921
0.161244
0.161321
0.155281
0.152091
0.154417
0.140642
0.15277
0.168223
0.172304
0.17377
0.173207
0.173172
0.165519
0.150356
0.164697
0.188408
0.220111
0.20464
0.252564
0.222415
0.238691
0.262395
0.295931
0.305769
0.339801
0.346085
0.37453
0.448253
0.455697
0.74617
0.0149086
4.89537
7.76613
15.9689
6.80924
0.604607
0.341425
0.417713
0.431607
0.868272
0.166723
0.151271
0.151152
0.151819
0.153215
0.15399
0.154716
0.154451
0.156041
0.157378
0.156791
0.154745
0.152956
0.158529
0.160508
0.161259
0.162479
0.161974
0.154745
0.141696
0.153107
0.166938
0.171112
0.172465
0.173976
0.173377
0.164194
0.15335
0.161132
0.163551
0.203725
0.185469
0.21716
0.18918
0.207028
0.256146
0.287803
0.299274
0.310543
0.327068
0.270393
0.332235
0.343512
0.366194
0.697682
7.01265
20.1369
8.53119
1.84072
0.0975014
0.265459
0.326023
0.421305
0.890999
0.000406762
0.000387791
0.000382607
0.000381215
0.000381091
0.000380942
0.000381546
0.00038013
0.000383414
0.000374503
0.000374614
0.000386727
0.000380396
0.000379197
0.000367042
0.000372665
0.000371468
0.000366001
0.000390952
0.000391359
0.000381909
0.00041065
0.00040528
0.000433208
0.000429463
0.000415417
0.000400862
0.000378142
0.000404268
0.000426875
0.000461809
0.000440236
0.000395123
0.00037851
0.000365722
0.00034674
0.000307011
0.000254861
0.00032835
0.000259675
0.000347715
0.000290407
0.000278875
0.000233451
0.000170972
7.67243e-05
4.38307e-05
0.000137294
0.000235114
0.000295281
0.000589862
0.00123161
0.000485706
0.000407971
0.000404862
0.000390857
0.000387502
0.000386715
0.000386642
0.000386654
0.000387015
0.000385863
0.00038897
0.000379352
0.000382644
0.000383774
0.000382528
0.000382048
0.000383554
0.000397432
0.000389979
0.000375091
0.000413767
0.000407517
0.000397594
0.000408635
0.000397855
0.000476035
0.000430886
0.000441021
0.000445518
0.000433031
0.000449709
0.000479004
0.000533423