/*--------------------------------*- C++ -*----------------------------------*\
| =========                 |                                                 |
| \\      /  F ield         | OpenFOAM: The Open Source CFD Toolbox           |
|  \\    /   O peration     | Version:  4.1                                   |
|   \\  /    A nd           | Web:      www.OpenFOAM.org                      |
|    \\/     M anipulation  |                                                 |
\*---------------------------------------------------------------------------*/
FoamFile
{
    version     2.0;
    format      ascii;
    class       volScalarField;
    location    "2";
    object      k;
}
// * * * * * * * * * * * * * * * * * * * * * * * * * * * * * * * * * * * * * //

dimensions      [0 2 -2 0 0 0 0];

internalField   nonuniform List<scalar> 
4432
(
0.450955
0.375512
0.365699
0.367876
0.374347
0.38355
0.391657
0.41579
0.452453
0.668188
0.69348
0.481713
0.31951
0.292238
0.224554
0.382577
0.279108
0.255583
0.258081
0.2535
0.258853
0.333235
0.298704
0.292866
0.325916
0.283489
0.246789
0.26466
0.284954
0.325702
0.354586
0.460705
0.501395
0.549101
0.594072
0.64245
0.685546
0.727691
0.764716
0.805141
0.658607
0.553009
0.504625
0.494125
0.469698
0.501798
0.419034
0.615079
0.611391
0.617292
0.493918
0.705166
0.763789
0.818608
0.460496
0.338581
0.326964
0.328771
0.33453
0.341747
0.345382
0.333558
0.351591
0.503332
0.497499
0.338426
0.234666
0.208369
0.173084
0.339346
0.247869
0.230609
0.235571
0.236091
0.245097
0.320334
0.288982
0.281527
0.290046
0.262119
0.228131
0.239992
0.255761
0.294203
0.340701
0.402526
0.442299
0.400055
0.482426
0.544167
0.592172
0.49706
0.546835
0.522168
0.430735
0.600051
0.536661
0.502364
0.474405
0.50352
0.419214
0.620012
0.539603
0.574371
0.471733
0.679872
0.738411
0.792762
0.0116292
0.00445376
0.00444874
0.00448005
0.00448695
0.00457649
0.00466919
0.00485357
0.00517835
0.00578296
0.0066539
0.00693342
0.00653193
0.00622708
0.0064174
0.00604626
0.00664797
0.00659225
0.00741503
0.00737801
0.0113652
0.00923583
0.0108394
0.0108225
0.0119339
0.0120915
0.0126493
0.0124833
0.0128419
0.0167218
0.0258353
0.0254919
0.0246165
0.0241254
0.0241517
0.0238653
0.0242609
0.0295889
0.0324571
0.0337656
0.0339113
0.0341136
0.0359272
0.0380391
0.0372797
0.0416151
0.0421251
0.0431019
0.0419792
0.0438946
0.0406445
0.0392526
0.0336045
0.0271009
0.0116113
0.00428596
0.00427306
0.00429643
0.00429143
0.00436398
0.00443547
0.00457708
0.00484136
0.00533619
0.00581418
0.00619085
0.00580272
0.00569347
0.00578587
0.00614637
0.00630614
0.00610434
0.00697458
0.00668078
0.00969163
0.00847336
0.0106318
0.0108004
0.0128825
0.0120904
0.0220081
0.0158659
0.0165802
0.0197446
0.027878
0.0250903
0.0243192
0.0232163
0.0230097
0.022584
0.0227925
0.0276962
0.0309777
0.0290957
0.0287653
0.0328869
0.036277
0.0383331
0.0372231
0.0417777
0.0399017
0.0420674
0.0436804
0.0425431
0.0398896
0.0381337
0.0320118
0.0253666
0.0116124
0.00439967
0.00440094
0.00443197
0.0044395
0.00464055
0.00461449
0.00476605
0.00517218
0.00561136
0.00603308
0.00658192
0.00587126
0.00608421
0.00580753
0.00594592
0.00583525
0.00669899
0.00728942
0.00852437
0.0103566
0.00942506
0.0135907
0.0107911
0.0168113
0.013139
0.0126661
0.0135666
0.0128589
0.0216619
0.0163366
0.0150645
0.0149619
0.0147696
0.025041
0.0184542
0.0167648
0.0268243
0.019678
0.017857
0.0228995
0.0310862
0.0237519
0.0266972
0.0293904
0.0283343
0.0317615
0.023315
0.0207361
0.018581
0.0259533
0.0199328
0.0264026
0.0184505
0.0115958
0.00425056
0.00422207
0.00424086
0.00423551
0.00442619
0.00437432
0.00448727
0.00484272
0.00520062
0.00541904
0.00594553
0.00534477
0.00555462
0.00523362
0.00608274
0.00545128
0.00689418
0.00664938
0.00743091
0.0072383
0.00882745
0.0145104
0.0109997
0.0110095
0.0113618
0.0222145
0.0145111
0.0132803
0.022808
0.0160444
0.0147174
0.0145026
0.0143155
0.0244444
0.0180169
0.0162228
0.0259142
0.019124
0.0173654
0.0221847
0.0311663
0.0220531
0.0256637
0.0288788
0.0281644
0.0315763
0.0232739
0.0206686
0.0207804
0.0282237
0.0208081
0.0180849
0.0159943
0.0116331
0.00433601
0.00431795
0.00434024
0.00451208
0.00470207
0.00474285
0.00471449
0.00506799
0.00535013
0.00574612
0.00594185
0.00525818
0.0057559
0.00603676
0.00626552
0.00664931
0.00700682
0.0107922
0.00964834
0.00926527
0.00931417
0.0106449
0.013029
0.0229403
0.0150583
0.0134117
0.0179754
0.0134033
0.0129061
0.0221577
0.0154605
0.0145035
0.0155627
0.0258523
0.0189833
0.0269428
0.0204166
0.0284085
0.0221793
0.0281144
0.0203009
0.0179648
0.0205245
0.0258439
0.026751
0.0313856
0.0216133
0.0188082
0.0163228
0.0247943
0.0184097
0.0257266
0.0178317
0.0116131
0.00424406
0.00414468
0.00416266
0.00433239
0.00456569
0.00458119
0.00444552
0.00474638
0.00496609
0.00530712
0.00541121
0.00491305
0.0052879
0.00574382
0.00634955
0.0064494
0.00719804
0.00775325
0.00772275
0.00920225
0.00989933
0.011822
0.0130485
0.0124181
0.0124086
0.012532
0.0121887
0.0121656
0.0215052
0.0153534
0.0140918
0.0134353
0.015374
0.0255364
0.0186845
0.0271168
0.0178807
0.0275542
0.0181384
0.024792
0.0185266
0.0167068
0.0190324
0.0251952
0.0258006
0.0310834
0.0214957
0.0187075
0.0195613
0.0277431
0.0195634
0.0170693
0.0151893
0.0116199
0.00433825
0.00431053
0.00433728
0.00450637
0.00470647
0.0048964
0.00495585
0.00516942
0.00507065
0.00547483
0.0053219
0.00604426
0.0058088
0.0064596
0.00551569
0.00701436
0.00702998
0.00895323
0.0102188
0.00963506
0.0135458
0.0161753
0.0183829
0.0181158
0.0172855
0.0168064
0.0132774
0.0199427
0.0146321
0.0229356
0.0145342
0.0196031
0.0156821
0.0204538
0.0280167
0.0187486
0.0241941
0.030772
0.021472
0.0283686
0.0195089
0.0172095
0.0195769
0.0247043
0.0258315
0.0305383
0.0207489
0.0180966
0.01535
0.0246012
0.0180265
0.025362
0.0173298
0.0116045
0.00425637
0.0041438
0.00416016
0.00432629
0.00456869
0.00473277
0.00447407
0.00484724
0.00469296
0.00506751
0.0048737
0.00577249
0.00554992
0.00619315
0.00636059
0.00704661
0.0066189
0.00797587
0.00875294
0.00994424
0.0109504
0.0203528
0.0192474
0.0172278
0.0172125
0.0190811
0.0130215
0.0174943
0.0140384
0.0225449
0.0144422
0.0195935
0.0157884
0.0210118
0.0279632
0.0188568
0.0243621
0.0309912
0.0200436
0.0273469
0.0188749
0.0167391
0.0184419
0.0241242
0.0250894
0.0304257
0.0201152
0.0175492
0.0196297
0.0279631
0.0193567
0.016746
0.0148535
0.0116397
0.00433985
0.00429409
0.00434773
0.00462171
0.00485842
0.00481415
0.00509679
0.00531096
0.00529266
0.00512802
0.00579513
0.00634651
0.00574977
0.00576933
0.0050536
0.00711816
0.00741338
0.00932687
0.016562
0.0123989
0.0183543
0.0165703
0.0289955
0.0329285
0.0153888
0.0166814
0.0147058
0.0126648
0.0174187
0.0120536
0.0116904
0.0119865
0.0197264
0.0203401
0.0155263
0.0157157
0.0228401
0.0214562
0.0241437
0.029373
0.0202275
0.0166046
0.0152335
0.0191427
0.0234675
0.0299611
0.0202988
0.0177131
0.0162591
0.0252853
0.018176
0.0252088
0.016975
0.0116196
0.00422128
0.00412888
0.00418739
0.00445509
0.00466847
0.00459977
0.00443796
0.00502006
0.00496376
0.00472649
0.00531563
0.00614678
0.00557728
0.00560669
0.00582703
0.0074755
0.00734635
0.00812223
0.00980776
0.0118072
0.0187908
0.0143823
0.0237999
0.0197131
0.0160951
0.0185263
0.0137692
0.0115659
0.0173634
0.0121637
0.0115893
0.0119915
0.0194482
0.0208999
0.0162351
0.0159636
0.0238182
0.0190853
0.0224761
0.028605
0.019577
0.0163705
0.0150475
0.018533
0.0239666
0.0253225
0.0298678
0.0194222
0.0216862
0.0290397
0.0196005
0.0167416
0.0146802
0.0116189
0.00435854
0.00428328
0.00435363
0.00475884
0.00482706
0.00476885
0.00484723
0.00501287
0.0053861
0.00538125
0.0059251
0.00605675
0.00567042
0.00491201
0.00562055
0.00746936
0.0117513
0.0142107
0.0163988
0.0191138
0.0231779
0.0272059
0.0401955
0.0368208
0.0142498
0.0177817
0.0198812
0.0154868
0.013696
0.0126539
0.0127484
0.013051
0.0208196
0.014178
0.0144974
0.0233944
0.0158866
0.0147259
0.0244256
0.0156311
0.0250277
0.0172224
0.015457
0.0195566
0.0232402
0.0297298
0.0199477
0.0172523
0.0179165
0.0264457
0.0184306
0.0250449
0.0164776
0.0116052
0.00424306
0.00413016
0.00419277
0.00459241
0.00464808
0.00457682
0.00438897
0.00473265
0.00507792
0.0050258
0.00520961
0.00608291
0.00569709
0.00449222
0.00515134
0.00787016
0.0123474
0.0111928
0.0108051
0.0139341
0.0237168
0.0269025
0.034165
0.0219273
0.0167068
0.0289417
0.016086
0.0147875
0.0159686
0.0118852
0.0124178
0.012319
0.0226947
0.0144421
0.013947
0.0240094
0.016147
0.0147452
0.0198783
0.0157565
0.0246749
0.0170428
0.0153292
0.0184654
0.0239943
0.0253645
0.0300251
0.0194263
0.0223855
0.0293859
0.0194259
0.0164137
0.014297
0.0116465
0.00437808
0.00427945
0.00433707
0.00451584
0.00454716
0.00474228
0.00464149
0.00500076
0.00510301
0.00548206
0.00543878
0.00604843
0.00577571
0.00594366
0.00652323
0.00974416
0.0143834
0.0116723
0.0210272
0.0164243
0.0284771
0.031494
0.0637951
0.0429861
0.0149681
0.025688
0.0172926
0.016291
0.014421
0.0136942
0.0148772
0.0211993
0.0206617
0.0150481
0.022605
0.0241347
0.0161063
0.0238631
0.0257243
0.0329187
0.0202095
0.0230045
0.0290081
0.0219866
0.0239867
0.0299295
0.0197377
0.0170677
0.0194001
0.0273651
0.0185861
0.0246891
0.0158748
0.0116264
0.00420019
0.00411893
0.00418296
0.00435582
0.00449258
0.0045475
0.00443345
0.00477806
0.00480782
0.00517261
0.00486845
0.00585839
0.00636507
0.00545656
0.00650468
0.00766129
0.0141405
0.012448
0.0147264
0.024656
0.0218434
0.0237416
0.0708543
0.0287657
0.0211623
0.0246469
0.0208185
0.0239832
0.0151892
0.013417
0.0149783
0.0127346
0.0128843
0.0142315
0.0179
0.0151583
0.0160466
0.0208389
0.0252903
0.0312066
0.0197446
0.0224681
0.0296112
0.0198787
0.0238182
0.0264476
0.0292358
0.0188674
0.0222573
0.0291765
0.0189993
0.0159863
0.0137736
0.0116201
0.00440094
0.00427329
0.00434405
0.00439372
0.00447248
0.00444367
0.00496806
0.00509001
0.00504162
0.00513467
0.00491931
0.00605565
0.00577366
0.00664894
0.00754039
0.0091498
0.0103055
0.0126004
0.0252432
0.0198852
0.0331021
0.0386469
0.137247
0.0606617
0.0222793
0.0281734
0.0237612
0.0248646
0.0161571
0.0148763
0.0155629
0.0236901
0.0164703
0.018814
0.0140105
0.0151723
0.0140909
0.0146185
0.021142
0.029419
0.0190492
0.0223014
0.0284045
0.0179944
0.0207088
0.0287789
0.0192447
0.016819
0.020326
0.0279909
0.0185338
0.0228702
0.0144646
0.0116079
0.00423905
0.00412787
0.00419105
0.00424492
0.00441278
0.00424737
0.00472918
0.00481836
0.00470893
0.0048252
0.0045654
0.0051665
0.00606992
0.00592391
0.00679814
0.00777109
0.01049
0.0134473
0.0235128
0.0247318
0.0186386
0.0204028
0.106582
0.05102
0.0272922
0.0326303
0.021972
0.0170277
0.0167093
0.0184432
0.0208347
0.0160328
0.0164466
0.0198485
0.0156062
0.018851
0.0244951
0.0156745
0.0235703
0.029879
0.0203934
0.0224306
0.0286143
0.0178193
0.023984
0.0175481
0.0170381
0.0153231
0.0197042
0.0266291
0.017614
0.0149251
0.012845
0.0116564
0.00446055
0.0042906
0.00438497
0.00443694
0.00448862
0.00448075
0.00520212
0.00473724
0.00493827
0.00471645
0.00522755
0.00575215
0.00588891
0.0067576
0.00774886
0.00924613
0.00964042
0.0125919
0.0264975
0.0316765
0.03855
0.0569089
0.311328
0.0953782
0.0308245
0.0334243
0.0299216
0.0212124
0.026844
0.0177571
0.0287449
0.0174115
0.0183686
0.0193766
0.0214795
0.0202409
0.0183998
0.0179369
0.0268366
0.024694
0.0317479
0.0201206
0.0174574
0.0203695
0.0220282
0.0278065
0.0186977
0.0163902
0.0188181
0.0244826
0.0168394
0.0204375
0.0127534
0.0116355
0.00424284
0.00412806
0.00422944
0.00444725
0.00430843
0.00428959
0.00500512
0.00468439
0.00464699
0.00460911
0.00485054
0.00517072
0.00543487
0.00611873
0.00705238
0.00830282
0.0101501
0.0133937
0.0248073
0.0242056
0.0217444
0.0264148
0.217562
0.0800204
0.046914
0.041255
0.0350644
0.0190093
0.0305174
0.0264516
0.0313998
0.0185567
0.0207543
0.0199281
0.0279098
0.020138
0.0170911
0.016353
0.0258709
0.0244158
0.0304969
0.0199201
0.0174742
0.0214141
0.0232277
0.0274246
0.018245
0.0154359
0.0199038
0.0262054
0.0167712
0.0139904
0.0118404
0.0116238
0.00469615
0.00434393
0.00479251
0.00479167
0.00483475
0.00492209
0.00533008
0.00508006
0.00482467
0.00479593
0.00501924
0.00513616
0.00493067
0.00590197
0.00846072
0.0129182
0.00935769
0.0131738
0.0241254
0.0255073
0.0477329
0.0922373
0.704268
0.0993594
0.0508841
0.0524116
0.0397516
0.0376946
0.0376422
0.0290715
0.0241162
0.0228758
0.0254667
0.0321152
0.034631
0.0337184
0.0212795
0.0302239
0.0214839
0.0225562
0.0286731
0.0199921
0.0260198
0.0180825
0.0223751
0.0279092
0.0185294
0.0192417
0.0231543
0.0273856
0.0167743
0.0207542
0.0117575
0.0116103
0.00471036
0.00420097
0.0046408
0.00474326
0.00465031
0.00473821
0.00512005
0.00498679
0.0044173
0.00450658
0.00492405
0.00482696
0.00512422
0.00582457
0.00662108
0.006807
0.0104431
0.0147184
0.0210938
0.019203
0.0383498
0.0512191
0.482878
0.13349
0.0816595
0.051552
0.0353379
0.0297408
0.0349191
0.0324292
0.0300349
0.0249987
0.0267345
0.0258091
0.0197375
0.0221346
0.0164312
0.0288519
0.0206219
0.0201486
0.0281934
0.0200939
0.0267833
0.0192107
0.0225097
0.0296742
0.0192984
0.0224518
0.0249796
0.0289358
0.0171179
0.0134665
0.0109853
0.0116702
0.00474608
0.00485549
0.00513721
0.00513969
0.00518772
0.00518709
0.00535711
0.00500432
0.00517567
0.00511554
0.00458183
0.00483194
0.00452596
0.00520324
0.00568765
0.00752078
0.00864099
0.0115374
0.0156677
0.0378347
0.0542192
0.166073
1.77464
0.109777
0.107466
0.0632753
0.0552679
0.0404009
0.0443556
0.0304336
0.0232547
0.021443
0.0255448
0.0323432
0.0330038
0.0268046
0.0271619
0.0209745
0.0276575
0.0296911
0.0314835
0.0281045
0.0266417
0.025965
0.0222488
0.0305968
0.01951
0.0217095
0.0260423
0.0298749
0.0164841
0.0167291
0.00840521
0.0116438
0.00495592
0.0046903
0.00498041
0.00498795
0.0049339
0.00497891
0.00508759
0.00478995
0.00487112
0.00436451
0.00469001
0.00485437
0.00505328
0.00575082
0.0045204
0.00548195
0.00927846
0.0199786
0.0229456
0.0205008
0.0296389
0.10654
1.07917
0.226799
0.13064
0.0649856
0.0458124
0.0346281
0.039554
0.0382225
0.0280675
0.025014
0.0336131
0.0231278
0.0194701
0.0161899
0.0205181
0.0197047
0.0280433
0.02941
0.03123
0.0303097
0.0286935
0.0276696
0.0245068
0.0298526
0.0194046
0.0214883
0.0243254
0.0257225
0.0146055
0.0117584
0.0090131
0.0116324
0.00490981
0.00519334
0.00525882
0.00527566
0.00533233
0.00531797
0.00532191
0.00507553
0.00534923
0.00535402
0.00503714
0.00510493
0.00497716
0.00510522
0.00437652
0.00635068
0.00760308
0.0110766
0.0145849
0.0290795
0.0523235
0.172907
6.9716
0.0734392
0.188183
0.0737511
0.0608992
0.0417471
0.0497933
0.0437263
0.0267948
0.0333608
0.0308915
0.0306883
0.0283568
0.0286422
0.0343961
0.0257345
0.0221968
0.0162841
0.0241025
0.0123197
0.0109215
0.0112222
0.0126322
0.0150894
0.0193762
0.0157804
0.0165168
0.0168091
0.0109215
0.00896142
0.0112432
0.0116191
0.00508281
0.00503729
0.00506476
0.00511586
0.00472251
0.00515066
0.00470464
0.00486328
0.00512881
0.00498312
0.00472163
0.00434263
0.00405059
0.00491312
0.00432243
0.00681355
0.00755076
0.00965408
0.0168246
0.0302087
0.0588644
0.32562
3.65614
0.425857
0.186787
0.0633325
0.0610537
0.0361676
0.0457902
0.0380094
0.0363733
0.0365508
0.0337055
0.0266358
0.0199796
0.0165901
0.0184423
0.0218396
0.0177726
0.0157356
0.0243478
0.015309
0.0138618
0.0161964
0.0153291
0.0174661
0.0163639
0.0194655
0.02476
0.0283569
0.0147602
0.0098544
0.00602236
0.0116351
0.00537773
0.00533494
0.00532655
0.00534759
0.00540531
0.00496863
0.00492481
0.00549524
0.0050032
0.00496116
0.00536335
0.00497138
0.00534089
0.00484015
0.00558714
0.0050741
0.00675576
0.0113967
0.0146383
0.0215599
0.0521841
0.120197
3.41374
5.88012
0.235598
0.0597042
0.0638618
0.0318447
0.0453732
0.0460566
0.032057
0.0259493
0.0234822
0.0262206
0.0240704
0.0307261
0.0334425
0.021915
0.0214682
0.0148047
0.0142184
0.0124779
0.0106197
0.00833066
0.0106072
0.0118849
0.0134216
0.0142902
0.0150438
0.0144811
0.0122023
0.0143507
0.0240358
0.0116697
0.00514872
0.00508792
0.00494297
0.00516061
0.00488466
0.00504451
0.00434274
0.00530126
0.0048032
0.00530604
0.0047958
0.00425761
0.00396407
0.00449491
0.00555116
0.00640551
0.00630466
0.00943504
0.0128096
0.0141561
0.0513619
0.834917
4.14934
2.76398
0.191344
0.057114
0.068098
0.0564564
0.0497431
0.04339
0.0417219
0.0321311
0.0265479
0.016705
0.0275763
0.0173659
0.0269342
0.0186238
0.0166162
0.0161281
0.0145863
0.0181832
0.0130288
0.0162192
0.0198593
0.0141277
0.0142027
0.0142269
0.0224538
0.0167631
0.010209
0.0096893
0.0197965
0.0116
0.00532844
0.0053037
0.00544265
0.00540785
0.00553673
0.00458619
0.00443456
0.00531201
0.00451221
0.00534233
0.00560332
0.00495773
0.00515955
0.00544933
0.00566283
0.00723377
0.00741696
0.0173405
0.0190178
0.0249069
0.05909
0.347398
7.88977
24.0634
0.281575
0.074953
0.0740863
0.0311968
0.0384035
0.0396351
0.0348527
0.0295019
0.0235866
0.0258782
0.0267378
0.0308913
0.0313578
0.0335547
0.035485
0.0252397
0.0247023
0.0237561
0.0291245
0.0196617
0.0262079
0.0165454
0.0245026
0.0207705
0.0189094
0.0160733
0.0228979
0.0177243
0.027548
0.0117041
0.00531286
0.00512387
0.00505669
0.00513681
0.00534418
0.00464152
0.00494047
0.00536649
0.00507671
0.00551111
0.00500779
0.00499085
0.00483755
0.00551141
0.00572321
0.00617995
0.00690123
0.0131567
0.0174705
0.0111288
0.0316773
1.24582
35.9257
8.45215
0.171632
0.0633713
0.0703172
0.0558504
0.0441339
0.0474524
0.043841
0.0303568
0.0406907
0.0174389
0.0203204
0.0261702
0.0230026
0.0194136
0.0224805
0.0236008
0.0215786
0.0196329
0.00956376
0.00964497
0.0127966
0.0143354
0.0127736
0.0143787
0.0146203
0.0135323
0.011362
0.0149391
0.0239326
0.0117811
0.00514193
0.00504189
0.00552048
0.00529874
0.0056903
0.00544825
0.00475254
0.00493076
0.00471178
0.00580493
0.00576216
0.00563748
0.00505052
0.00544993
0.00547649
0.0054078
0.00802803
0.00873194
0.00938209
0.0140224
0.0293024
1.05689
178.284
0.173874
0.0733086
0.0399326
0.0273011
0.0418556
0.0495213
0.0452243
0.0268
0.024122
0.0263671
0.0288374
0.0345852
0.0356643
0.0213076
0.0233635
0.0226708
0.0231721
0.0234955
0.0249152
0.0312434
0.0237666
0.02909
0.0238122
0.0274391
0.0168825
0.0169024
0.0180558
0.0201052
0.0295134
0.0116195
0.00533086
0.00488431
0.00521119
0.00523856
0.00549656
0.00514392
0.00498588
0.00558313
0.00555942
0.00562984
0.00553766
0.00538129
0.0056976
0.00590046
0.00603981
0.00561954
0.00687199
0.00801363
0.010087
0.0106899
0.0368352
0.77473
629.555
0.16964
0.0791489
0.0499339
0.0399082
0.0267562
0.0298644
0.0320935
0.0356722
0.0264466
0.0200412
0.020202
0.0199624
0.0298734
0.0221232
0.0177581
0.0283561
0.0176399
0.0183406
0.0223223
0.012689
0.0153272
0.0161157
0.0203223
0.0144172
0.0136592
0.012561
0.011407
0.0177163
0.026334
0.0116074
0.00505056
0.00526486
0.00564121
0.00530941
0.00575785
0.00588042
0.00568478
0.00471957
0.00562408
0.00616347
0.00603291
0.00588723
0.00554685
0.00589675
0.00573187
0.00557181
0.0129693
0.00896666
0.00976806
0.0242653
0.0168379
0.0773267
0.304454
0.754906
0.0529805
0.0424779
0.0222764
0.0185035
0.0270388
0.0213509
0.0202578
0.0223739
0.0227591
0.0238893
0.0252059
0.0273087
0.0306149
0.0235261
0.0234349
0.0241693
0.0260577
0.02943
0.0207225
0.0195984
0.0206001
0.0224215
0.0234848
0.0299547
0.0227853
0.0225469
0.0205815
0.0302654
0.0609722
0.0115954
0.00527666
0.0050299
0.004923
0.00547512
0.00553365
0.00567947
0.00547578
0.00569146
0.00573993
0.00594364
0.00584608
0.00499046
0.00594774
0.00522424
0.00618258
0.00560204
0.0071945
0.00838914
0.0150251
0.0118061
0.00946011
0.0590076
0.972226
0.148661
0.0346299
0.038069
0.035476
0.0240517
0.0191332
0.0205561
0.0267951
0.0201289
0.0200383
0.0219757
0.0207171
0.0204526
0.0186967
0.0168773
0.0170875
0.0169079
0.018522
0.021322
0.0112244
0.0175087
0.0124011
0.0191027
0.0168036
0.0111599
0.0106293
0.00977132
0.017022
0.0297834
0.0599591
0.0116873
0.00557159
0.00566879
0.00570056
0.00564281
0.00589674
0.006123
0.00624083
0.0054746
0.00591257
0.00646194
0.0063502
0.0061499
0.00621342
0.00653858
0.00469142
0.00653876
0.0101736
0.0112849
0.00983057
0.0175257
0.0142863
0.0125111
0.0204109
0.0153489
0.024678
0.0160674
0.0184718
0.021546
0.0245036
0.0306426
0.0227869
0.0258917
0.0316709
0.0238893
0.0253955
0.0313446
0.0240959
0.0304517
0.0254662
0.0249063
0.0297031
0.0239443
0.026196
0.0296912
0.0243997
0.0322141
0.0299044
0.029416
0.0252723
0.0228268
0.0215296
0.0306504
0.0509792
0.0117156
0.00520728
0.00535417
0.00502696
0.00552291
0.00553984
0.00588387
0.00602158
0.00559479
0.00566045
0.00625195
0.00619726
0.00560515
0.00627967
0.00599832
0.00561931
0.00650962
0.00752451
0.00845555
0.00981385
0.0108481
0.0139561
0.00740258
0.0856083
0.0731975
0.0215924
0.0250628
0.0194087
0.0177609
0.0190586
0.0197121
0.0218698
0.0294209
0.0240276
0.030107
0.0255216
0.0328261
0.0244652
0.0206632
0.0200618
0.0184116
0.022847
0.0144449
0.0153769
0.0186064
0.0112503
0.0133299
0.0123677
0.00944103
0.00872134
0.0104028
0.0183258
0.0303533
0.0505469
0.0117017
0.00553143
0.00540774
0.00546299
0.00580546
0.00584373
0.00592547
0.00624573
0.00549047
0.00542843
0.00670304
0.00668109
0.00656214
0.00628836
0.00686915
0.00687992
0.00755674
0.00806372
0.00875672
0.00978309
0.0118876
0.019222
0.0124724
0.0179914
0.0187087
0.0150028
0.0166753
0.0178612
0.0206743
0.0230469
0.030498
0.0222316
0.0300243
0.0229712
0.0228431
0.0246816
0.0276762
0.0246667
0.0262194
0.0278687
0.0296892
0.0288703
0.0234089
0.0249077
0.0262098
0.028443
0.0353041
0.0314354
0.0305193
0.0279138
0.0248156
0.0227077
0.031785
0.0450916
0.0116852
0.00498828
0.0049908
0.00508694
0.0055391
0.00512741
0.00570409
0.00601078
0.00523113
0.00518733
0.00649843
0.00661455
0.00656782
0.00671911
0.00678035
0.00653454
0.00738064
0.00779366
0.00874687
0.0139331
0.0110993
0.0205875
0.0193104
0.0339749
0.0132281
0.0127169
0.0207036
0.0143158
0.0170166
0.0178802
0.0196328
0.0202328
0.0282626
0.0231924
0.0260194
0.0271707
0.0208762
0.0254807
0.0205719
0.0211519
0.0231868
0.0248079
0.0159803
0.0163029
0.0144271
0.0135246
0.0178383
0.00931031
0.0103611
0.0105842
0.0132661
0.0182969
0.0311616
0.0445887
0.0117813
0.00530093
0.00510248
0.00517291
0.00542086
0.00531186
0.005841
0.00671799
0.00597307
0.00564949
0.0067747
0.00679378
0.00690879
0.00721712
0.00791672
0.00782437
0.00805911
0.00857555
0.0100149
0.00977247
0.0107362
0.0104075
0.0127077
0.0132255
0.0150668
0.0157951
0.0243571
0.0175247
0.0217859
0.029446
0.0201634
0.0223838
0.0244807
0.0310944
0.0239261
0.02595
0.0312064
0.0254529
0.0270219
0.027067
0.0310543
0.0266157
0.0282458
0.0333108
0.0298137
0.0310056
0.0367309
0.0338152
0.0333152
0.030197
0.0255375
0.0202034
0.033528
0.041983
0.0117438
0.00460921
0.00455781
0.00469124
0.00509818
0.00441148
0.00559002
0.00643306
0.00564303
0.00536172
0.00650122
0.00674382
0.0071916
0.0075449
0.00764425
0.00765716
0.00772335
0.00806786
0.0100818
0.00941715
0.0106203
0.0104315
0.015021
0.0187325
0.0141641
0.01167
0.0131282
0.0146269
0.0174763
0.0191557
0.0236005
0.0186338
0.0206411
0.027892
0.0201657
0.0223537
0.0285959
0.0202048
0.0217017
0.022169
0.0281729
0.0206614
0.0214013
0.0270355
0.0198107
0.0201954
0.027098
0.020345
0.0193575
0.0171889
0.0178561
0.0180436
0.0322969
0.0414391
0.0117288
0.00541927
0.00532145
0.0053623
0.00496844
0.00485878
0.00591476
0.00680692
0.00693
0.00649208
0.00732844
0.00658646
0.00707146
0.00787877
0.00854498
0.00890492
0.0136601
0.00947459
0.0162971
0.0100472
0.0123782
0.0116634
0.0132082
0.0133411
0.0181664
0.0107066
0.0126751
0.014824
0.0164071
0.0173026
0.0188408
0.0208743
0.0225106
0.0237811
0.0246956
0.0258462
0.0309369
0.0266074
0.0283064
0.0293271
0.0334316
0.0311037
0.0293763
0.0333428
0.029597
0.0313605
0.0335461
0.0379319
0.0354434
0.0323449
0.0259625
0.0203891
0.0340297
0.0401898
0.0117083
0.00479881
0.00475302
0.00486007
0.0046918
0.00466162
0.00563498
0.00653871
0.00665243
0.00623704
0.00709888
0.00671392
0.00758634
0.0081395
0.00828627
0.00874047
0.0129649
0.00850888
0.0166282
0.00983249
0.0123193
0.0113509
0.0158292
0.0157653
0.0291615
0.0149979
0.0119331
0.0137644
0.0154258
0.0186308
0.02761
0.0211638
0.0187209
0.0205264
0.0217892
0.0231887
0.0293695
0.0224021
0.0235761
0.0249392
0.0310624
0.0269354
0.024277
0.029619
0.0246518
0.0266484
0.0343899
0.0319678
0.0321385
0.0244959
0.0188859
0.0211989
0.0274892
0.0396102
0.0118018
0.00557851
0.00548689
0.00558286
0.00535091
0.00531329
0.00640816
0.00675304
0.00698474
0.0073231
0.00758865
0.00770112
0.00809822
0.00848655
0.00909137
0.00917456
0.00977295
0.00974376
0.00971721
0.0102676
0.0131238
0.0125654
0.012579
0.016105
0.012104
0.0125331
0.0151114
0.0185681
0.0277064
0.0275798
0.0229912
0.0307832
0.0288627
0.0244317
0.0262945
0.0286127
0.0334604
0.0303039
0.0324269
0.0335335
0.0319259
0.035927
0.0336337
0.0332027
0.0363893
0.0373265
0.038855
0.0372146
0.0375932
0.0335825
0.0270214
0.0214097
0.0338195
0.0390794
0.0117598
0.00488411
0.00485631
0.00506839
0.00498466
0.0048505
0.00609844
0.00642985
0.00664462
0.00693904
0.00716972
0.00719133
0.00803305
0.0086164
0.00895361
0.00910515
0.00881027
0.00776321
0.00975208
0.0100535
0.0134833
0.0141092
0.020931
0.0133095
0.017823
0.0127015
0.0140488
0.0175891
0.0212152
0.0190334
0.0204065
0.0201277
0.026999
0.0193463
0.0216577
0.0238657
0.030304
0.0240205
0.0264209
0.0307926
0.0270828
0.0337961
0.0304192
0.0290766
0.0331183
0.0323292
0.0356399
0.0353793
0.0348781
0.0294011
0.0200732
0.0221858
0.0277764
0.0384996
0.0117461
0.0057288
0.00571029
0.00603335
0.00618765
0.00601486
0.0063789
0.00593678
0.00683752
0.00726007
0.0074359
0.00862121
0.00887739
0.00889464
0.00941494
0.00963077
0.0103249
0.0102933
0.0122335
0.0129321
0.023096
0.0138969
0.0135146
0.0200306
0.0147489
0.0209581
0.0167262
0.0208233
0.0253817
0.0261644
0.0225283
0.0236944
0.0243242
0.025329
0.0289568
0.0242071
0.025067
0.0264837
0.0316193
0.0268528
0.0277254
0.0294762
0.0345095
0.0324925
0.0341804
0.0360223
0.035972
0.0363894
0.0374531
0.0352516
0.0284532
0.0230218
0.0339994
0.0384074
0.0117212
0.00498083
0.00501499
0.00573738
0.00587031
0.00567761
0.00608619
0.00563238
0.00649369
0.00683577
0.00681876
0.00763839
0.00833442
0.00912662
0.00958485
0.0101491
0.0111727
0.0109788
0.0118413
0.0122556
0.0221269
0.0128714
0.0118164
0.0167346
0.0127511
0.0134288
0.0207165
0.0155761
0.0185194
0.0256711
0.0188938
0.0211208
0.0239973
0.0283649
0.0202361
0.0215911
0.0290642
0.0214643
0.0285263
0.0220317
0.0233357
0.0252821
0.0321297
0.0289799
0.0316379
0.0375952
0.0355268
0.0366934
0.0368435
0.0312902
0.0199346
0.0230521
0.0280136
0.0378158
0.0118052
0.00615906
0.00584841
0.00636912
0.00620091
0.00579613
0.00661772
0.0064252
0.00686341
0.00788422
0.00846646
0.00913571
0.00977499
0.010444
0.0110314
0.0107663
0.0132689
0.0129456
0.0155261
0.0125788
0.017493
0.0178579
0.0147782
0.022287
0.0148296
0.0179268
0.0294395
0.0276795
0.0244195
0.0230124
0.0276156
0.0293113
0.0243088
0.0261876
0.0276887
0.031876
0.0290015
0.0341139
0.0323875
0.0296181
0.0310701
0.0343335
0.0319012
0.0289869
0.0301628
0.0325364
0.0333606
0.0334499
0.0374604
0.0369098
0.02991
0.0242748
0.0342499
0.038018
0.0117608
0.0050663
0.00511605
0.00601055
0.00583427
0.00542529
0.00627258
0.00606051
0.00645489
0.00717304
0.00716666
0.00830567
0.00924675
0.00962753
0.0100411
0.0118934
0.0200145
0.0122632
0.0148597
0.0126074
0.0166534
0.0166635
0.0122765
0.012504
0.0127432
0.013657
0.0174685
0.0261092
0.0190475
0.0218566
0.025861
0.0256937
0.0200338
0.0217461
0.0235403
0.0316139
0.0246829
0.0313533
0.0293989
0.0248678
0.0268435
0.0331678
0.031298
0.0298774
0.0323977
0.0364096
0.0349313
0.0355275
0.0378393
0.0346525
0.0237245
0.0241037
0.0283395
0.0374392
0.0117469
0.0060952
0.00590476
0.00613535
0.00623177
0.00604825
0.00587287
0.00725119
0.007546
0.00813332
0.00878994
0.00924736
0.00978606
0.0115988
0.01935
0.0126665
0.0132865
0.0155261
0.0255067
0.0229012
0.0178386
0.0138735
0.0145709
0.0151364
0.0214384
0.0154761
0.0179854
0.019632
0.0224196
0.0229493
0.0250696
0.0297748
0.0239806
0.0261766
0.0329144
0.0280388
0.0307978
0.0268715
0.0281033
0.0322322
0.0262335
0.0272732
0.0282238
0.0321391
0.0277508
0.0319082
0.0305911
0.0303391
0.0361554
0.0376791
0.0311121
0.0257304
0.035209
0.0378558
0.0117183
0.00511954
0.00515089
0.00576268
0.00590078
0.00571729
0.00554598
0.00694081
0.00722413
0.00776624
0.00827241
0.00824484
0.00925595
0.0100035
0.00960407
0.0123687
0.0110506
0.0141475
0.0173765
0.0245225
0.0172305
0.0137879
0.0144491
0.0152073
0.0212244
0.0138951
0.016544
0.0249619
0.0221762
0.0217217
0.0225471
0.0288952
0.0196071
0.0218379
0.0286907
0.0215182
0.0224767
0.023792
0.0248769
0.031061
0.0243571
0.0262485
0.0276761
0.0333284
0.0306682
0.0340001
0.0308187
0.0328259
0.0379674
0.036289
0.0262834
0.0248652
0.0288859
0.0372696
0.0117845
0.00611843
0.00603241
0.00628227
0.00657806
0.00649696
0.00682409
0.00725134
0.00677109
0.00907759
0.0112527
0.00962445
0.0129687
0.0177073
0.0126328
0.0207065
0.0139315
0.0150174
0.0193875
0.0150114
0.0207786
0.0142721
0.0196795
0.0145456
0.0155047
0.0228479
0.0172657
0.0203667
0.0315757
0.0263244
0.0271627
0.0252846
0.0285978
0.0258605
0.0326686
0.0269207
0.0316992
0.0271635
0.0290955
0.0307048
0.0331993
0.0345688
0.0325218
0.0319455
0.0292793
0.028012
0.0335252
0.0269703
0.0346129
0.0404895
0.0304216
0.0270317
0.0302287
0.037794
0.0117393
0.00494978
0.00494261
0.00566963
0.00620345
0.00612061
0.00646215
0.00690587
0.00641195
0.00875824
0.0110814
0.00976542
0.0107475
0.0174305
0.0113785
0.0128882
0.0132731
0.0181101
0.0146009
0.0148639
0.0205384
0.0140267
0.0177237
0.0157043
0.022098
0.0146257
0.0172588
0.0264592
0.0241704
0.0275536
0.0233176
0.0277478
0.0221681
0.021894
0.0319004
0.024382
0.0249318
0.021983
0.0232065
0.024384
0.0257656
0.0299822
0.0310748
0.0336199
0.0323715
0.0272484
0.0275332
0.0316517
0.0377099
0.0387652
0.0269334
0.0256551
0.0292822
0.0372307
0.0116954
0.00603646
0.00591456
0.0061228
0.00617548
0.00681985
0.00762431
0.00768364
0.00799243
0.00934322
0.00954524
0.0109356
0.0121844
0.0133601
0.0149662
0.0156248
0.0166874
0.0225669
0.0180656
0.0190954
0.0237126
0.0137465
0.0146554
0.0159842
0.0221423
0.0147409
0.0160927
0.0181252
0.0206543
0.0259779
0.031132
0.0262951
0.0288692
0.0261877
0.0253151
0.0292602
0.0293171
0.0269663
0.0315192
0.0306697
0.0321373
0.0356203
0.033229
0.0317364
0.0290449
0.0332015
0.0673683
0.0402762
0.0330974
0.0529978
0.026085
0.0277532
0.0302315
0.0378005
0.0116649
0.00533752
0.00524369
0.0055073
0.00582595
0.00645563
0.00730705
0.00737541
0.00771666
0.00909744
0.00939388
0.0113022
0.0127566