/*--------------------------------*- C++ -*----------------------------------*\
| =========                 |                                                 |
| \\      /  F ield         | OpenFOAM: The Open Source CFD Toolbox           |
|  \\    /   O peration     | Version:  4.1                                   |
|   \\  /    A nd           | Web:      www.OpenFOAM.org                      |
|    \\/     M anipulation  |                                                 |
\*---------------------------------------------------------------------------*/
FoamFile
{
    version     2.0;
    format      ascii;
    class       volScalarField;
    location    "2";
    object      nut;
}
// * * * * * * * * * * * * * * * * * * * * * * * * * * * * * * * * * * * * * //

dimensions      [0 2 -1 0 0 0 0];

internalField   nonuniform List<scalar> 
4432
(
45.1713
30.8857
28.7851
28.8423
29.4959
30.5861
31.3351
33.6757
41.1843
62.4978
52.5589
18.8384
13.5546
10.4777
9.17067
21.428
10.4117
13.0907
11.5488
14.87
13.9206
25.3842
21.8649
19.0255
27.4137
31.753
32.9151
18.5032
32.2368
29.4848
30.6419
47.0679
67.3454
69.7976
85.8455
90.9774
109.992
119.199
137.643
134.421
91.4902
66.2723
56.1201
54.3204
49.5414
57.2541
40.4107
88.2051
86.9779
87.7082
53.922
103.658
122.445
119.359
46.9324
25.2378
23.2374
23.3232
23.9157
24.7339
24.9134
22.4271
25.5561
39.071
33.6532
11.9536
8.14801
5.94537
5.78769
18.8313
9.39667
11.1549
10.5759
13.0775
13.2506
24.7772
22.5853
20.5234
23.0533
31.0296
38.7262
21.5572
34.0188
26.8073
34.5486
39.9941
61.5163
44.3262
63.8418
69.135
90.7451
61.7635
74.0615
63.1162
42.1623
81.4765
65.2843
57.3063
51.2674
58.1341
40.5208
89.1989
67.1078
75.1926
49.0415
97.8325
118.141
117.806
7.30422e-05
1.19084e-05
1.18801e-05
1.20615e-05
1.2084e-05
1.25415e-05
1.30349e-05
1.40615e-05
1.59357e-05
1.97393e-05
2.58421e-05
2.80402e-05
2.49616e-05
2.28658e-05
2.42749e-05
2.1684e-05
2.6221e-05
2.54448e-05
3.14339e-05
3.15764e-05
7.58508e-05
4.92366e-05
6.43457e-05
6.34527e-05
7.93605e-05
7.81931e-05
8.526e-05
7.74089e-05
8.45695e-05
0.000152064
0.000338384
0.000325647
0.000301399
0.000290746
0.000289951
0.000284207
0.000292879
0.000436985
0.000550507
0.000640506
0.000590898
0.000624578
0.000828926
0.000896876
0.000829688
0.00111876
0.00115711
0.00122061
0.00104325
0.00100638
0.000903061
0.00087873
0.000621224
0.000426868
7.28355e-05
1.10578e-05
1.09847e-05
1.1107e-05
1.107e-05
1.14352e-05
1.17989e-05
1.25514e-05
1.39913e-05
1.69051e-05
1.99e-05
2.2545e-05
1.98736e-05
1.92296e-05
1.9931e-05
2.25349e-05
2.36225e-05
2.21758e-05
2.89717e-05
2.61272e-05
5.25521e-05
3.90198e-05
6.07853e-05
6.39435e-05
9.06712e-05
7.27195e-05
0.000247403
0.000137217
0.00014239
0.000211923
0.00039479
0.000316361
0.00029553
0.000270499
0.000264289
0.000255498
0.000259503
0.000384239
0.000486673
0.000438635
0.000419176
0.000579178
0.00084615
0.000902764
0.000811509
0.00112388
0.0010374
0.00115791
0.00113029
0.000973807
0.000943503
0.000846561
0.000540817
0.000337829
7.28394e-05
1.16275e-05
1.16317e-05
1.18096e-05
1.18427e-05
1.28921e-05
1.27526e-05
1.3591e-05
1.58986e-05
1.86003e-05
2.13826e-05
2.54529e-05
2.01956e-05
2.19454e-05
1.98247e-05
2.07959e-05
2.01015e-05
2.6502e-05
3.09887e-05
4.16243e-05
6.1513e-05
4.95062e-05
0.000103158
6.50471e-05
0.000149421
9.43445e-05
8.76019e-05
9.3465e-05
8.448e-05
0.000240356
0.000136951
0.000122867
0.000137393
0.000125792
0.000322107
0.000182748
0.000161434
0.000393934
0.000225159
0.000165249
0.00028274
0.000617419
0.000347582
0.000420958
0.000556893
0.000526382
0.000667327
0.000328556
0.000226168
0.000178336
0.00037003
0.000226267
0.000384913
0.000198011
7.26476e-05
1.08797e-05
1.07313e-05
1.08295e-05
1.0797e-05
1.17628e-05
1.14968e-05
1.2093e-05
1.39989e-05
1.60649e-05
1.73851e-05
2.09622e-05
1.68778e-05
1.82623e-05
1.62145e-05
2.21096e-05
1.75596e-05
2.74066e-05
2.53371e-05
3.26798e-05
2.9616e-05
4.30119e-05
0.000126458
6.83271e-05
6.52511e-05
7.291e-05
0.000276868
0.000112563
9.07146e-05
0.000268119
0.000133489
0.000117543
0.00012975
0.000118676
0.000308963
0.000175661
0.000151773
0.000368773
0.00021298
0.000156568
0.000265723
0.000621555
0.000297597
0.000383153
0.000533923
0.000514529
0.00065163
0.000322806
0.000223522
0.000229954
0.000471712
0.00025122
0.000172948
0.000134631
7.30861e-05
1.13062e-05
1.12121e-05
1.13304e-05
1.22086e-05
1.32115e-05
1.34385e-05
1.32952e-05
1.52896e-05
1.69715e-05
1.94908e-05
2.07374e-05
1.61633e-05
1.97007e-05
2.12755e-05
2.28191e-05
2.62188e-05
2.87699e-05
6.75621e-05
5.21886e-05
4.8121e-05
4.93669e-05
6.54477e-05
9.45547e-05
0.000275685
0.000118841
9.23944e-05
0.000169284
9.41408e-05
8.67313e-05
0.00026913
0.000134073
0.000109866
0.000125871
0.000345434
0.000184438
0.00038898
0.000247142
0.000477666
0.000296579
0.000469027
0.000241898
0.000169445
0.000228235
0.000412191
0.000462873
0.000644666
0.00027715
0.000184779
0.000138508
0.000341262
0.000193091
0.000366006
0.000184729
7.28536e-05
1.08448e-05
1.03515e-05
1.04441e-05
1.12825e-05
1.24884e-05
1.25754e-05
1.18629e-05
1.34682e-05
1.46971e-05
1.67116e-05
1.7323e-05
1.4351e-05
1.64301e-05
1.93411e-05
2.37243e-05
2.46513e-05
2.96851e-05
3.40799e-05
3.49922e-05
4.88454e-05
5.46174e-05
8.06272e-05
9.57799e-05
8.12027e-05
7.98541e-05
8.14077e-05
7.80736e-05
7.87881e-05
0.000255591
0.000134636
0.00010455
9.39834e-05
0.000123121
0.000337467
0.000177989
0.000395252
0.000187913
0.000438207
0.00019602
0.00035577
0.000200078
0.000146449
0.000195695
0.000388638
0.000426281
0.000630802
0.000274895
0.000185246
0.000207074
0.000462186
0.000222496
0.000154687
0.000122045
7.29332e-05
1.13182e-05
1.11741e-05
1.13153e-05
1.21466e-05
1.32362e-05
1.42834e-05
1.46873e-05
1.5916e-05
1.52542e-05
1.77484e-05
1.65734e-05
2.13286e-05
1.98984e-05
2.45999e-05
1.78855e-05
2.87451e-05
2.86046e-05
4.5507e-05
5.79187e-05
5.39665e-05
0.000106131
0.000145468
0.000181067
0.000177118
0.000162168
0.000148639
9.33456e-05
0.000209972
0.000117494
0.000279555
0.000109688
0.00019997
0.000127813
0.00021582
0.000419448
0.000203475
0.000333385
0.000534859
0.000239949
0.000440228
0.000221701
0.000156079
0.00020775
0.000374059
0.000426612
0.000602096
0.000252355
0.000172078
0.000124796
0.000343547
0.000185572
0.000357282
0.00017466
7.27536e-05
1.09057e-05
1.03503e-05
1.04354e-05
1.12218e-05
1.25052e-05
1.33841e-05
1.20114e-05
1.40543e-05
1.31309e-05
1.52043e-05
1.3974e-05
1.99569e-05
1.80641e-05
2.27024e-05
2.35065e-05
2.91561e-05
2.50635e-05
3.68955e-05
4.5402e-05
5.74877e-05
6.66942e-05
0.000234325
0.000202292
0.000166677
0.000159696
0.000202736
9.48778e-05
0.000167567
0.000108294
0.000269816
0.000112992
0.000216874
0.000136936
0.000250547
0.000427474
0.0002148
0.000360433
0.000544884
0.000209623
0.000409736
0.000207698
0.000147777
0.000183864
0.000354063
0.000400823
0.000597248
0.000240181
0.0001644
0.000211296
0.000475417
0.000217887
0.000149636
0.000117324
7.31608e-05
1.13263e-05
1.10927e-05
1.13694e-05
1.27982e-05
1.40859e-05
1.384e-05
1.54888e-05
1.68094e-05
1.65698e-05
1.55819e-05
1.96859e-05
2.35111e-05
1.93033e-05
1.95913e-05
1.52524e-05
2.89569e-05
3.11629e-05
4.89956e-05
0.000153339
8.96298e-05
0.000190152
0.000153129
0.000462016
0.00059791
0.000127974
0.000152147
0.000117749
8.63456e-05
0.000167895
7.83475e-05
7.32643e-05
7.62744e-05
0.000203158
0.000212411
0.000123934
0.000126008
0.000282523
0.000265221
0.000304455
0.000469256
0.000242104
0.000151625
0.000121954
0.000200285
0.000343052
0.000581968
0.000241736
0.000166026
0.000141875
0.000368779
0.000188554
0.000353739
0.000167402
7.29274e-05
1.0732e-05
1.02735e-05
1.05642e-05
1.19185e-05
1.30389e-05
1.26713e-05
1.17818e-05
1.5076e-05
1.46384e-05
1.32373e-05
1.66594e-05
2.26125e-05
1.81768e-05
1.85925e-05
2.00119e-05
3.21053e-05
3.07475e-05
3.82657e-05
5.74943e-05
8.21743e-05
0.000200592
0.000116449
0.00031211
0.000214632
0.000135224
0.000185198
0.000100862
7.16271e-05
0.000167192
8.38667e-05
7.23314e-05
7.64619e-05
0.000205788
0.000259253
0.000155916
0.000152936
0.00032688
0.000193735
0.000261839
0.000445081
0.000225571
0.000146051
0.000118862
0.000187528
0.000354321
0.000412424
0.000530683
0.00020223
0.000260951
0.00051881
0.000223481
0.000150343
0.000115452
7.29193e-05
1.14213e-05
1.1036e-05
1.13985e-05
1.3555e-05
1.38986e-05
1.35769e-05
1.39731e-05
1.49543e-05
1.71682e-05
1.71036e-05
2.06222e-05
2.14771e-05
1.89946e-05
1.39402e-05
1.87707e-05
3.17383e-05
7.97561e-05
0.000116638
0.000154822
0.000214977
0.000294193
0.000415146
0.00091237
0.000754333
0.00011193
0.000175992
0.000218675
0.000138741
0.000105477
8.55523e-05
8.69334e-05
9.18587e-05
0.000230471
0.000107144
0.000117196
0.000285472
0.000129314
0.000112341
0.000312518
0.00012532
0.000342101
0.000172919
0.000126319
0.00021013
0.000338301
0.000572507
0.000234368
0.000159526
0.000174919
0.00041184
0.000194274
0.000350989
0.000157965
7.27613e-05
1.08398e-05
1.02847e-05
1.05969e-05
1.26517e-05
1.29197e-05
1.2541e-05
1.14919e-05
1.33787e-05
1.53243e-05
1.50517e-05
1.61311e-05
2.19515e-05
1.92344e-05
1.17e-05
1.55447e-05
3.54281e-05
8.8031e-05
7.05713e-05
7.01504e-05
0.000112267
0.000336804
0.000409451
0.000697459
0.000259812
0.00014703
0.000478864
0.00014125
0.000118905
0.000138547
7.55553e-05
8.28666e-05
8.17951e-05
0.000285004
0.000115136
0.000100625
0.000301546
0.00013754
0.000113671
0.000204136
0.000127257
0.000332165
0.000169006
0.000124249
0.00018672
0.000357168
0.000413819
0.000534648
0.000203271
0.000280343
0.000532396
0.000219392
0.000145524
0.00011032
7.3238e-05
1.15208e-05
1.102e-05
1.13228e-05
1.21643e-05
1.23816e-05
1.33908e-05
1.28035e-05
1.48456e-05
1.5483e-05
1.78477e-05
1.75136e-05
2.1443e-05
1.97336e-05
2.0477e-05
2.48054e-05
5.3451e-05
0.000122356
7.80459e-05
0.000251885
0.00016193
0.000459797
0.000595397
0.00217472
0.00103044
0.000132932
0.000355574
0.000161097
0.000151902
0.000114329
9.93506e-05
0.00011676
0.000234909
0.000220338
0.000116284
0.000268711
0.000299755
0.000138545
0.000321245
0.000362369
0.000620006
0.000213533
0.00028846
0.000525476
0.000295619
0.000346952
0.000576613
0.000228987
0.000155374
0.00020767
0.000447001
0.000197589
0.000340931
0.00014619
7.30049e-05
1.06348e-05
1.02292e-05
1.05468e-05
1.13414e-05
1.20927e-05
1.23517e-05
1.17151e-05
1.35825e-05
1.37967e-05
1.60383e-05
1.41976e-05
2.0334e-05
2.40272e-05
1.74942e-05
2.42731e-05
3.33732e-05
0.000118905
8.8052e-05
0.000129983
0.000333248
0.00028677
0.000338771
0.00295198
0.000445363
0.00024118
0.000337905
0.000231507
0.000329692
0.000127233
9.72276e-05
0.00012252
8.57367e-05
8.75722e-05
0.000105079
0.000168195
0.000120457
0.000137746
0.000243112
0.000348101
0.000555119
0.000204561
0.000276463
0.000548017
0.00023956
0.000336975
0.000448121
0.000502574
0.000190622
0.00027834
0.000523219
0.000208373
0.000137639
0.000102973
7.29315e-05
1.1639e-05
1.09837e-05
1.13464e-05
1.15454e-05
1.20007e-05
1.17727e-05
1.46627e-05
1.53791e-05
1.5163e-05
1.57465e-05
1.43756e-05
2.1552e-05
1.94493e-05
2.55289e-05
3.30568e-05
4.75954e-05
6.16909e-05
8.74155e-05
0.000344706
0.00022384
0.000621669
0.000835905
0.0104594
0.0020625
0.000282805
0.000423424
0.000318977
0.000341831
0.000142964
0.000125401
0.000132916
0.00030056
0.000140754
0.000182194
0.000102831
0.000116227
9.98986e-05
0.000111925
0.000260664
0.000493875
0.000188743
0.000258993
0.000421737
0.000173281
0.00024959
0.000528061
0.000214613
0.000151209
0.000230766
0.000471265
0.000195127
0.000291222
0.000121586
7.27901e-05
1.0821e-05
1.02744e-05
1.05884e-05
1.07997e-05
1.16886e-05
1.07811e-05
1.33249e-05
1.38099e-05
1.32662e-05
1.3967e-05
1.24366e-05
1.60246e-05
2.15367e-05
2.06246e-05
2.66021e-05
3.45683e-05
6.53427e-05
0.000101697
0.000315876
0.000333099
0.000196204
0.00024117
0.00673404
0.00136663
0.000396698
0.000605597
0.000269053
0.000164666
0.000154482
0.000191547
0.000242717
0.000137102
0.000147324
0.000204272
0.000126773
0.000183673
0.00030456
0.000128128
0.000326196
0.000516149
0.000216265
0.000260453
0.000428847
0.000167829
0.000324811
0.0001933
0.00016731
0.000124679
0.000215629
0.000429507
0.000176692
0.00012032
9.03788e-05
7.33501e-05
1.19492e-05
1.10778e-05
1.15674e-05
1.18255e-05
1.20286e-05
1.19271e-05
1.60395e-05
1.33539e-05
1.44882e-05
1.32336e-05
1.61526e-05
1.94909e-05
2.04354e-05
2.68955e-05
3.59368e-05
4.89789e-05
5.17003e-05
8.88625e-05
0.000394188
0.000535063
0.000779812
0.00167784
0.0506285
0.00528876
0.000513241
0.000609893
0.000522663
0.000253159
0.000424285
0.00018363
0.000463598
0.000177487
0.000176198
0.000196718
0.000265474
0.000228622
0.000176337
0.000173987
0.000406272
0.000335224
0.000575651
0.000210706
0.00016799
0.000240453
0.00027116
0.000483649
0.000199982
0.000142185
0.000194689
0.000353402
0.000158202
0.000232666
9.44574e-05
7.31072e-05
1.08534e-05
1.0275e-05
1.07754e-05
1.18776e-05
1.11075e-05
1.09494e-05
1.48878e-05
1.31073e-05
1.29257e-05
1.27082e-05
1.39551e-05
1.5925e-05
1.73044e-05
2.18838e-05
2.92392e-05
4.02155e-05
5.92398e-05
9.78262e-05
0.000333935
0.000317351
0.000250895
0.000399088
0.0255975
0.00321843
0.00122445
0.000986406
0.000714939
0.000209213
0.000537157
0.000381688
0.000528683
0.000199689
0.000229343
0.000199777
0.000417254
0.000228261
0.000145876
0.00013746
0.000366554
0.000318695
0.000525332
0.000206198
0.000167773
0.000266719
0.000305357
0.000471575
0.00019095
0.000126448
0.000223988
0.000413135
0.000160709
0.000107478
7.81952e-05
7.29695e-05
1.3209e-05
1.13533e-05
1.37375e-05
1.37344e-05
1.39247e-05
1.4372e-05
1.68477e-05
1.53558e-05
1.38518e-05
1.36886e-05
1.4927e-05
1.5692e-05
1.44896e-05
2.06402e-05
4.30729e-05
9.68464e-05
4.95014e-05
9.85e-05
0.000332224
0.000361307
0.00127829
0.00413223
0.0942997
0.00372338
0.00125538
0.00158851
0.000944266
0.00084005
0.000831215
0.000500293
0.00034161
0.000287628
0.000350983
0.000587833
0.000673273
0.000590325
0.000246156
0.000545012
0.000282667
0.000306094
0.000488116
0.000229255
0.000354349
0.000177408
0.000305854
0.000485938
0.000195005
0.000200068
0.000314382
0.000446974
0.000159478
0.000245474
8.08772e-05
7.2812e-05
1.32869e-05
1.06396e-05
1.29167e-05
1.34553e-05
1.29085e-05
1.33511e-05
1.55888e-05
1.48519e-05
1.16468e-05
1.21571e-05
1.44212e-05
1.39104e-05
1.55901e-05
2.01744e-05
2.59419e-05
2.705e-05
6.16718e-05
0.000119438
0.000240927
0.000210202
0.000828566
0.00138961
0.0742288
0.00729645
0.00379321
0.00154661
0.000740231
0.000524398
0.000711044
0.000604949
0.000491819
0.000351246
0.000369109
0.000350921
0.000206629
0.000247695
0.000137251
0.000466057
0.000241378
0.000239443
0.000477978
0.000233189
0.00039411
0.000213861
0.00028212
0.000555257
0.000218317
0.000284296
0.000379676
0.000510931
0.000169756
0.000102119
6.84969e-05
7.35047e-05
1.34685e-05
1.40955e-05
1.56926e-05
1.56886e-05
1.60106e-05
1.60115e-05
1.69997e-05
1.49128e-05
1.59863e-05
1.55798e-05
1.25132e-05
1.40161e-05
1.22019e-05
1.59254e-05
1.93893e-05
3.24135e-05
4.29024e-05
7.35923e-05
0.000138123
0.000788509
0.00179046
0.0107167
0.147032
0.00174729
0.0059307
0.00232691
0.00181531
0.000968361
0.00117314
0.000549982
0.000315988
0.000253947
0.000378736
0.000583842
0.000613458
0.000389817
0.000430188
0.00026055
0.00043315
0.000483048
0.00059077
0.00044629
0.000374638
0.000359699
0.00027996
0.000586341
0.000220233
0.000267215
0.000403765
0.000532423
0.000156232
0.000161985
4.15993e-05
7.31952e-05
1.46464e-05
1.3182e-05
1.4773e-05
1.48098e-05
1.45123e-05
1.48078e-05
1.53723e-05
1.36271e-05
1.40929e-05
1.13736e-05
1.31472e-05
1.41836e-05
1.52377e-05
1.99063e-05
1.18915e-05
1.72951e-05
5.1119e-05
0.000220791
0.000282259
0.000250657
0.000534586
0.00454286
0.0717359
0.00612747
0.0094723
0.00244936
0.00125223
0.000671467
0.000930318
0.000841228
0.000442649
0.000369778
0.000607472
0.00030425
0.000207752
0.000131998
0.000237257
0.000225983
0.000430033
0.000458688
0.000591207
0.000522068
0.000427286
0.000398838
0.000330074
0.000555906
0.000219206
0.000260379
0.000355822
0.000396783
0.00012277
7.80854e-05
4.68929e-05
7.30634e-05
1.44133e-05
1.60177e-05
1.64057e-05
1.65096e-05
1.68563e-05
1.67867e-05
1.67417e-05
1.53159e-05
1.69307e-05
1.70347e-05
1.50826e-05
1.55457e-05
1.48212e-05
1.5715e-05
1.13919e-05
2.36409e-05
3.33438e-05
6.84492e-05
0.000131279
0.000468869
0.0015339
0.00916969
0.64849
0.000152725
0.0180464
0.00292712
0.00214959
0.000977734
0.00133367
0.00113154
0.000419551
0.000617119
0.000535225
0.000522661
0.000442629
0.000450676
0.000664376
0.000373406
0.000292813
0.000149547
0.000327782
8.52042e-05
6.48288e-05
7.00572e-05
9.25484e-05
0.000129936
0.000213624
0.000140362
0.000154557
0.000160925
6.79734e-05
4.62819e-05
6.69315e-05
7.29084e-05
1.53753e-05
1.51964e-05
1.53518e-05
1.56291e-05
1.32554e-05
1.58062e-05
1.31269e-05
1.41384e-05
1.55838e-05
1.48031e-05
1.32938e-05
1.12799e-05
9.75851e-06
1.45673e-05
1.10879e-05
2.72438e-05
3.41256e-05
5.2161e-05
0.00015441
0.000512256
0.0019543
0.0309905
0.141518
0.00550782
0.0169118
0.00217085
0.00203135
0.000666422
0.00115225
0.000809069
0.000682798
0.000767797
0.000623197
0.000368315
0.000196492
0.000138194
0.000186318
0.000250768
0.000155505
0.00012459
0.000334385
0.000130799
0.000100332
0.000140838
0.000133467
0.00016455
0.000139189
0.000209787
0.000358344
0.000480457
0.000125281
5.54971e-05
2.15108e-05
7.31012e-05
1.71281e-05
1.6967e-05
1.68122e-05
1.69416e-05
1.72987e-05
1.47016e-05
1.44538e-05
1.78482e-05
1.49043e-05
1.46526e-05
1.70099e-05
1.47725e-05
1.69643e-05
1.40445e-05
1.82204e-05
1.52567e-05
2.68422e-05
7.46291e-05
0.000131273
0.000287943
0.00141129
0.00283391
0.182148
0.371131
0.0183135
0.00170558
0.00221742
0.00055923
0.00103298
0.00113955
0.000527921
0.000329452
0.000298546
0.000352556
0.000305084
0.000527303
0.000632649
0.00025819
0.000249642
0.00011866
0.00011068
8.818e-05
6.34857e-05
4.00763e-05
6.33232e-05
7.786e-05
0.000100076
0.000108325
0.000122941
0.000112343
8.0646e-05
0.000111725
0.000188495
7.35613e-05
1.5762e-05
1.54851e-05
1.46126e-05
1.59995e-05
1.41671e-05
1.50782e-05
1.12613e-05
1.69106e-05
1.36592e-05
1.68092e-05
1.36534e-05
1.08474e-05
9.33132e-06
1.20509e-05
1.83196e-05
2.44509e-05
2.3899e-05
5.1542e-05
9.36186e-05
0.000107012
0.00134568
0.120421
0.203208
0.0767515
0.0121085
0.00158903
0.00230671
0.00161526
0.00126514
0.00103747
0.000895483
0.000564864
0.000395202
0.000145461
0.000399286
0.000157439
0.000380715
0.000180173
0.00014668
0.000133486
0.000112405
0.000186171
9.15005e-05
0.000147221
0.000232031
0.000114375
0.000115684
0.00011413
0.000283586
0.000160067
5.89461e-05
5.25366e-05
0.000159761
7.26978e-05
1.68187e-05
1.68185e-05
1.75498e-05
1.73012e-05
1.82672e-05
1.26233e-05
1.18091e-05
1.68013e-05
1.21055e-05
1.69831e-05
1.8719e-05
1.46911e-05
1.58101e-05
1.75098e-05
1.85724e-05
3.04714e-05
3.13268e-05
0.000174838
0.000214915
0.00034872
0.00212502
0.0326744
0.901623
1.89001
0.01027
0.00267244
0.00290298
0.000507392
0.000671292
0.000762284
0.000650078
0.000413448
0.000319269
0.000398376
0.000380039
0.000489121
0.000587919
0.000644779
0.000724756
0.000339644
0.000372649
0.000354583
0.000483508
0.000210692
0.000381285
0.00013862
0.000298658
0.000221572
0.00019046
0.00012989
0.000270734
0.000156862
0.000194629
7.39754e-05
1.67404e-05
1.56801e-05
1.51685e-05
1.57722e-05
1.70615e-05
1.27594e-05
1.45691e-05
1.73382e-05
1.52459e-05
1.79511e-05
1.49843e-05
1.48844e-05
1.37839e-05
1.78428e-05
1.93678e-05
2.23052e-05
2.83423e-05
0.000101632
0.000178312
6.9406e-05
0.000569125
0.399457
18.5516
0.215883
0.00478789
0.00199974
0.00264554
0.00179298
0.00113306
0.00114306
0.000976801
0.000480076
0.000975394
0.000162587
0.000216015
0.000341828
0.000272468
0.000200784
0.000271937
0.000292583
0.000254462
0.00021799
5.21008e-05
5.27308e-05
9.25512e-05
0.000116337
9.20327e-05
0.000110597
0.000118961
0.000102275
7.07696e-05
0.00011894
0.000172686
7.47742e-05
1.56104e-05
1.50833e-05
1.80418e-05
1.66337e-05
1.92542e-05
1.76287e-05
1.34255e-05
1.44527e-05
1.31941e-05
2.0043e-05
1.97689e-05
1.90033e-05
1.51448e-05
1.75738e-05
1.76106e-05
1.70363e-05
3.61882e-05
4.25902e-05
5.04281e-05
0.000105634
0.000467166
0.383568
14.1158
0.00245284
0.00265313
0.000946132
0.000418956
0.00076845
0.00146805
0.00112046
0.000330694
0.000312076
0.000406204
0.000425925
0.000660728
0.00074877
0.000234013
0.000326076
0.000260607
0.000313669
0.000308398
0.000349988
0.000498699
0.000297229
0.000359571
0.000235534
0.000346641
0.000156742
0.000134799
0.000186308
0.00019596
0.000198501
7.28096e-05
1.68411e-05
1.42786e-05
1.60869e-05
1.63042e-05
1.80193e-05
1.56376e-05
1.4692e-05
1.85814e-05
1.84389e-05
1.89003e-05
1.83028e-05
1.71887e-05
1.92539e-05
2.03039e-05
2.15162e-05
1.82825e-05
2.7234e-05
3.6084e-05
5.79963e-05
6.14606e-05
0.000682615
0.241057
2340.02
0.00344715
0.00301142
0.00113432
0.000667289
0.000395254
0.000509873
0.000558558
0.000637198
0.000361283
0.000199
0.000209369
0.0002057
0.000457843
0.000260681
0.00016999
0.000441503
0.000158512
0.000187135
0.000298605
9.00682e-05
0.000121301
0.000136999
0.000221025
0.000110346
0.000111179
9.31649e-05
7.3187e-05
0.000163592
0.000183785
7.27023e-05
1.50648e-05
1.64879e-05
1.87847e-05
1.66655e-05
1.95224e-05
2.03545e-05
1.90063e-05
1.31142e-05
1.87777e-05
2.23016e-05
2.16574e-05
2.05858e-05
1.80296e-05
2.06168e-05
1.94914e-05
1.78347e-05
9.49509e-05
4.59332e-05
5.26847e-05
0.00032004
0.000149854
0.00364213
0.0605253
0.0534414
0.00132809
0.000849386
0.000252173
0.000175419
0.000355055
0.000214032
0.000185678
0.00022029
0.000239847
0.000271139
0.000289629
0.000381168
0.00054704
0.000272439
0.000319737
0.000284233
0.000407249
0.000491348
0.000191812
0.000167529
0.000177862
0.000208313
0.000247873
0.000516319
0.000289376
0.000310837
0.000253869
0.000501786
0.000912982
7.25642e-05
1.64798e-05
1.50278e-05
1.43495e-05
1.77715e-05
1.80809e-05
1.90625e-05
1.76827e-05
1.90915e-05
1.96114e-05
2.10242e-05
2.03775e-05
1.47324e-05
2.09807e-05
1.61988e-05
2.23968e-05
1.81723e-05
2.92806e-05
4.03763e-05
0.000130906
7.77994e-05
4.70693e-05
0.00168284
0.521621
0.00106977
0.000640835
0.000879385
0.000691538
0.00029418
0.000184829
0.000213623
0.000374166
0.000196155
0.000197138
0.000237748
0.000208994
0.000229969
0.000193424
0.00014534
0.000165208
0.000149642
0.000191683
0.000250232
6.51497e-05
0.000157581
7.74025e-05
0.000187575
0.000144232
6.4694e-05
6.19554e-05
5.38268e-05
0.000166633
0.000486418
0.000895907
7.36237e-05
1.84286e-05
1.92303e-05
1.91255e-05
1.8706e-05
2.04179e-05
2.19666e-05
2.28064e-05
1.75538e-05
2.04587e-05
2.45189e-05
2.42936e-05
2.2174e-05
2.26235e-05
2.49509e-05
1.27448e-05
2.46332e-05
6.08041e-05
7.48217e-05
5.55215e-05
0.000176451
0.00010715
8.3321e-05
0.000228328
0.000123872
0.000316223
0.000144299
0.000185002
0.000244955
0.000336404
0.000536491
0.000246474
0.000314377
0.000501015
0.000326352
0.000300897
0.000439964
0.000263528
0.000469544
0.00038833
0.000313841
0.000529528
0.000292179
0.000534665
0.000483452
0.000260985
0.000460249
0.000445807
0.000545117
0.000382383
0.000327812
0.000278114
0.000508978
0.000567926
7.40145e-05
1.61674e-05
1.71024e-05
1.49249e-05
1.79806e-05
1.80836e-05
2.03546e-05
2.12947e-05
1.83874e-05
1.88121e-05
2.30227e-05
2.31895e-05
1.84585e-05
2.31059e-05
2.13007e-05
1.83637e-05
2.44907e-05
3.28641e-05
4.1451e-05
5.30379e-05
6.84575e-05
0.000111073
2.77294e-05
0.00391834
0.00296879
0.000241659
0.000348771
0.00020211
0.000159492
0.000190207
0.000205476
0.000279738
0.000440214
0.000300435
0.000540579
0.000327156
0.00053112
0.000302984
0.000224083
0.000223569
0.000175777
0.000287617
0.000109436
0.000141458
0.000190754
6.61766e-05
9.64911e-05
8.40516e-05
4.79151e-05
4.29657e-05
6.17955e-05
0.000195664
0.000500219
0.000559586
7.38541e-05
1.8171e-05
1.74464e-05
1.76711e-05
1.98396e-05
2.00231e-05
2.05628e-05
2.28091e-05
1.75443e-05
1.71682e-05
2.60881e-05
2.62603e-05
2.50001e-05
2.31268e-05
2.75458e-05
2.79634e-05
3.28842e-05
3.80312e-05
4.44472e-05
5.771e-05
8.3863e-05
0.000198815
8.5995e-05
0.000174506
0.00018904
0.000131066
0.000148011
0.000177246
0.000241191
0.000285445
0.000504815
0.000246539
0.000428105
0.000236004
0.000242107
0.000269397
0.000371615
0.00032513
0.000364571
0.000575107
0.000646278
0.000457989
0.000231217
0.000266475
0.000303239
0.000407847
0.000929144
0.000664646
0.000591422
0.000499112
0.000391349
0.000301381
0.00051832
0.000394993
7.36633e-05
1.48226e-05
1.49504e-05
1.54067e-05
1.81173e-05
1.54641e-05
1.91136e-05
2.11898e-05
1.59739e-05
1.57274e-05
2.4577e-05
2.57892e-05
2.54699e-05
2.63027e-05
2.68173e-05
2.52777e-05
3.13764e-05
3.56235e-05
4.45229e-05
0.000108865
6.84525e-05
0.000248557
0.000205475
0.000618763
0.000101236
9.72914e-05
0.000244033
0.000111214
0.000151113
0.00016441
0.000203507
0.000225318
0.000397684
0.000270156
0.000376799
0.000402765
0.00021346
0.000337231
0.000270586
0.000271068
0.000316287
0.000328451
0.000125441
0.000140113
0.000113586
9.78481e-05
0.000178848
4.76058e-05
5.84777e-05
6.4047e-05
0.000100571
0.000185009
0.000478931
0.000385507
7.47783e-05
1.66382e-05
1.54984e-05
1.59099e-05
1.71801e-05
1.65323e-05
1.99419e-05
2.62965e-05
2.09934e-05
1.86137e-05
2.70334e-05
2.69607e-05
2.78724e-05
3.00936e-05
3.67199e-05
3.59813e-05
3.73194e-05
4.18668e-05
5.819e-05
5.54685e-05
6.81163e-05
6.13403e-05
9.10673e-05
9.48238e-05
0.000129187
0.000140952
0.000340825
0.000174061
0.000277283
0.000488545
0.000208038
0.000239564
0.000274737
0.00044445
0.000253206
0.000297954
0.000452074
0.000332843
0.000678603
0.000383238
0.00038102
0.000283377
0.000343344
0.000542509
0.00056661
0.000481323
0.00129227
0.000947963
0.000784536
0.000641159
0.000417322
0.000231184
0.00054087
0.000311615
7.43412e-05
1.26407e-05
1.24559e-05
1.31723e-05
1.52585e-05
1.145e-05
1.83366e-05
2.42104e-05
1.88122e-05
1.68379e-05
2.49568e-05
2.66197e-05
3.04325e-05
3.36403e-05
3.38313e-05
3.45407e-05
3.43683e-05
3.71582e-05
6.09345e-05
4.97532e-05
6.41618e-05
6.05315e-05
0.000127336
0.000192824
0.000106542
7.51036e-05
9.35865e-05
0.000122025
0.000179333
0.000205806
0.000296219
0.000175761
0.000209214
0.000383909
0.00019582
0.000240254
0.000405606
0.000221038
0.000307337
0.000253914
0.000357251
0.000193274
0.000217289
0.000369142
0.000209018
0.000210267
0.000414336
0.000224572
0.0002001
0.000168892
0.000180441
0.000175108
0.000477178
0.000301754
7.4167e-05
1.74253e-05
1.68252e-05
1.70486e-05
1.4459e-05
1.39286e-05
2.06223e-05
2.70499e-05
2.80792e-05
2.44368e-05
3.18794e-05
2.55352e-05
2.98206e-05
3.56741e-05
4.31232e-05
4.61517e-05
0.000108571
5.198e-05
0.000149528
5.6373e-05
9.02861e-05
7.91412e-05
9.75009e-05
9.87619e-05
0.000192752
6.34718e-05
8.75552e-05
0.000114924
0.00013568
0.000145195
0.000174523
0.000233433
0.000290535
0.000288914
0.000347618
0.000286825
0.000427919
0.000337935
0.000533001
0.000457711
0.000432739
0.000385198
0.000393614
0.000636109
0.000321777
0.000395157
0.000564479
0.00214117
0.00123635
0.000868906
0.000428735
0.000226643
0.000517187
0.0002633
7.39282e-05
1.37964e-05
1.35279e-05
1.41136e-05
1.29424e-05
1.28691e-05
1.87819e-05
2.50422e-05
2.59717e-05
2.26313e-05
3.0017e-05
2.65893e-05
3.34073e-05
3.87361e-05
3.97706e-05
4.51904e-05
9.89532e-05
4.21589e-05
0.000162228
5.41725e-05
8.9414e-05
7.1988e-05
0.000140403
0.000138114
0.00052465
0.000130434
7.78029e-05
9.99414e-05
0.000122117
0.00017081
0.000387294
0.000244539
0.000196174
0.000225555
0.000306843
0.000291934
0.000441868
0.000342386
0.000361408
0.00032075
0.000424982
0.00032123
0.000283694
0.000450644
0.000269378
0.000351274
0.00069494
0.000542681
0.000545883
0.000344057
0.000198077
0.000232118
0.000319675
0.000253212
7.50147e-05
1.84067e-05
1.784e-05
1.84215e-05
1.67937e-05
1.66833e-05
2.40994e-05
2.63803e-05
2.83358e-05
3.13262e-05
3.35525e-05
3.46303e-05
3.78226e-05
4.05551e-05
4.73905e-05
4.95464e-05
5.61036e-05
5.62407e-05
5.33289e-05
6.01475e-05
9.90328e-05
8.90771e-05
9.23412e-05
0.000149012
8.02592e-05
8.65527e-05
0.000126722
0.000186878
0.000380344
0.000381793
0.000268111
0.000433703
0.000370592
0.000264912
0.000331513
0.000423513
0.000493387
0.000503478
0.00122037
0.000830815
0.000583948
0.000832691
0.000504568
0.000609162
0.000517415
0.000777108
0.615551
0.00387414
0.00751713
0.00126016
0.000455908
0.000222855
0.000447138
0.000231174
7.45233e-05
1.42708e-05
1.41047e-05
1.53217e-05
1.46433e-05
1.39684e-05
2.18832e-05
2.40213e-05
2.57727e-05
2.82561e-05
3.00842e-05
3.03285e-05
3.76517e-05
4.19517e-05
4.51111e-05
4.85099e-05
4.44146e-05
3.50257e-05
5.5672e-05
5.78481e-05
0.000104606
0.000112675
0.00025282
0.000104154
0.00018384
8.72509e-05
0.000106266
0.00016822
0.000249713
0.000177892
0.000201669
0.000197101
0.000348661
0.0001781
0.000235812
0.000293282
0.000426393
0.000303224
0.000460174
0.000536488
0.000388364
0.000598297
0.000421794
0.000459185
0.000679215
0.00071532
0.000777373
0.000675119
0.000697224
0.000498805
0.000217712
0.000242423
0.00030048
0.000221311
7.43668e-05
1.94089e-05
1.92686e-05
2.1421e-05
2.24649e-05
2.13377e-05
2.36212e-05
2.02793e-05
2.71128e-05
3.07773e-05
3.17914e-05
4.35246e-05
4.5112e-05
4.41811e-05
4.93189e-05
5.35323e-05
6.15762e-05
5.95047e-05
8.46393e-05
9.81252e-05
0.000309862
0.00010846
0.00010214
0.000231552
0.000126285
0.000249778
0.000167287
0.000243655
0.000340004
0.000349171
0.000232873
0.000272223
0.00028005
0.00032246
0.000396484
0.0003006
0.000249909
0.000291069
0.000463904
0.000359449
0.000265287
0.000295145
0.000405932
0.000386435
0.000533
0.0010414
0.000539963
0.000576677
0.00309186
0.00198797
0.000487741
0.00024093
0.000409818
0.000208104
7.40751e-05
1.48215e-05
1.50221e-05
1.95447e-05
2.03067e-05
1.90899e-05
2.15396e-05
1.83267e-05
2.45508e-05
2.73916e-05
2.68357e-05
3.42811e-05
3.9899e-05
4.66955e-05
5.13378e-05
5.98327e-05
7.23189e-05
6.78626e-05
7.95827e-05
8.83651e-05
0.000285113
9.31142e-05
7.68826e-05
0.000152092
9.20075e-05
0.000104286
0.000233779
0.000137044
0.000183104
0.000339037
0.00018334
0.000222219
0.000286648
0.000399695
0.000201906
0.000238758
0.000372144
0.000209805
0.000399957
0.000234713
0.000220072
0.00025235
0.000401698
0.00033565
0.000467549
0.00109793
0.000752448
0.000731892
0.00106535
0.000559144
0.000207515
0.000246105
0.000276668
0.000198398
7.50552e-05
2.22204e-05
2.01561e-05
2.36333e-05
2.24896e-05
1.98964e-05
2.54997e-05
2.40784e-05
2.74125e-05
3.69181e-05
4.11763e-05
4.73104e-05
5.51758e-05
6.1774e-05
6.90005e-05
6.35795e-05
0.000101386
9.57301e-05
0.000133694
8.86887e-05
0.00017076
0.000191786