/*--------------------------------*- C++ -*----------------------------------*\
| =========                 |                                                 |
| \\      /  F ield         | OpenFOAM: The Open Source CFD Toolbox           |
|  \\    /   O peration     | Version:  4.1                                   |
|   \\  /    A nd           | Web:      www.OpenFOAM.org                      |
|    \\/     M anipulation  |                                                 |
\*---------------------------------------------------------------------------*/
FoamFile
{
    version     2.0;
    format      ascii;
    class       volScalarField;
    location    "2";
    object      p;
}
// * * * * * * * * * * * * * * * * * * * * * * * * * * * * * * * * * * * * * //

dimensions      [0 2 -2 0 0 0 0];

internalField   nonuniform List<scalar> 
4432
(
3.4458e+06
3.44585e+06
3.44586e+06
3.44584e+06
3.44582e+06
3.44578e+06
3.44574e+06
3.44573e+06
3.44577e+06
3.44588e+06
3.44608e+06
3.44639e+06
3.44666e+06
3.44681e+06
3.44657e+06
3.44547e+06
3.44268e+06
3.43718e+06
3.42781e+06
3.41311e+06
3.39175e+06
3.36237e+06
3.32485e+06
3.28009e+06
3.23078e+06
3.18144e+06
3.13792e+06
3.0954e+06
3.04321e+06
2.97329e+06
2.88712e+06
2.78737e+06
2.6769e+06
2.55838e+06
2.43393e+06
2.30557e+06
2.17499e+06
2.04361e+06
1.91247e+06
1.78228e+06
1.65358e+06
1.52673e+06
1.40168e+06
1.27803e+06
1.15502e+06
1.03164e+06
906636
778881
648300
516738
388043
267389
159513
64407.7
3.44583e+06
3.44588e+06
3.44589e+06
3.44588e+06
3.44585e+06
3.44581e+06
3.44578e+06
3.44577e+06
3.44581e+06
3.44592e+06
3.44612e+06
3.44642e+06
3.44671e+06
3.44688e+06
3.44665e+06
3.44555e+06
3.44275e+06
3.43727e+06
3.4279e+06
3.41318e+06
3.3917e+06
3.36223e+06
3.3246e+06
3.27978e+06
3.23036e+06
3.1809e+06
3.13757e+06
3.09548e+06
3.04376e+06
2.97383e+06
2.88759e+06
2.78781e+06
2.67727e+06
2.55873e+06
2.43428e+06
2.30587e+06
2.17524e+06
2.04385e+06
1.91267e+06
1.78246e+06
1.65374e+06
1.52686e+06
1.40175e+06
1.27803e+06
1.15497e+06
1.03153e+06
906472
778674
648060
516525
387986
267703
160207
64782.4
3.44598e+06
3.44603e+06
3.44603e+06
3.44602e+06
3.44598e+06
3.44594e+06
3.4459e+06
3.44588e+06
3.4459e+06
3.44599e+06
3.44614e+06
3.44634e+06
3.44651e+06
3.44653e+06
3.44612e+06
3.44485e+06
3.44195e+06
3.43653e+06
3.42732e+06
3.41299e+06
3.39207e+06
3.36344e+06
3.32674e+06
3.28293e+06
3.23448e+06
3.18521e+06
3.13944e+06
3.09372e+06
3.03874e+06
2.96817e+06
2.88233e+06
2.78312e+06
2.67311e+06
2.55492e+06
2.4308e+06
2.30273e+06
2.17234e+06
2.04102e+06
1.90982e+06
1.77953e+06
1.65071e+06
1.52366e+06
1.39836e+06
1.27443e+06
1.15115e+06
1.02754e+06
902373
774580
644165
513023
384984
265281
158639
64166.9
3.44601e+06
3.44606e+06
3.44607e+06
3.44605e+06
3.44601e+06
3.44597e+06
3.44593e+06
3.44591e+06
3.44593e+06
3.44602e+06
3.44618e+06
3.44639e+06
3.44656e+06
3.44659e+06
3.4462e+06
3.44492e+06
3.44204e+06
3.43662e+06
3.42744e+06
3.41307e+06
3.39209e+06
3.36337e+06
3.3266e+06
3.28275e+06
3.23424e+06
3.18492e+06
3.13925e+06
3.09379e+06
3.03905e+06
2.96852e+06
2.88267e+06
2.78345e+06
2.67341e+06
2.55521e+06
2.43108e+06
2.30297e+06
2.17256e+06
2.04122e+06
1.91e+06
1.77969e+06
1.65085e+06
1.52376e+06
1.39841e+06
1.27443e+06
1.1511e+06
1.02744e+06
902229
774409
643980
512867
384994
265673
159374
64569.8
3.44635e+06
3.44639e+06
3.44639e+06
3.44637e+06
3.44632e+06
3.44626e+06
3.4462e+06
3.44616e+06
3.44617e+06
3.44623e+06
3.44636e+06
3.44653e+06
3.44669e+06
3.44672e+06
3.44637e+06
3.44525e+06
3.44272e+06
3.43796e+06
3.42973e+06
3.41662e+06
3.39716e+06
3.37019e+06
3.33508e+06
3.29257e+06
3.24468e+06
3.19466e+06
3.14591e+06
3.09595e+06
3.03759e+06
2.96585e+06
2.87987e+06
2.78083e+06
2.67103e+06
2.55301e+06
2.42901e+06
2.30096e+06
2.17048e+06
2.03889e+06
1.90729e+06
1.77648e+06
1.64706e+06
1.51935e+06
1.39334e+06
1.2687e+06
1.14477e+06
1.0206e+06
895050
767166
637044
506634
379702
261277
155863
63079.4
3.44638e+06
3.44642e+06
3.44643e+06
3.4464e+06
3.44635e+06
3.44629e+06
3.44623e+06
3.4462e+06
3.4462e+06
3.44627e+06
3.4464e+06
3.44657e+06
3.44675e+06
3.44678e+06
3.44645e+06
3.44533e+06
3.44281e+06
3.43807e+06
3.42987e+06
3.41673e+06
3.39724e+06
3.37018e+06
3.33503e+06
3.29246e+06
3.24455e+06
3.19449e+06
3.14577e+06
3.09595e+06
3.03773e+06
2.96603e+06
2.88008e+06
2.78105e+06
2.67126e+06
2.55323e+06
2.42923e+06
2.30116e+06
2.17066e+06
2.03906e+06
1.90743e+06
1.77661e+06
1.64717e+06
1.51942e+06
1.39336e+06
1.26867e+06
1.14469e+06
1.02048e+06
894902
767001
636874
506496
379727
261674
156596
63464.8
3.44691e+06
3.44695e+06
3.44695e+06
3.44691e+06
3.44685e+06
3.44677e+06
3.44669e+06
3.44663e+06
3.44661e+06
3.44666e+06
3.44679e+06
3.44697e+06
3.44721e+06
3.44737e+06
3.4473e+06
3.44663e+06
3.44488e+06
3.44133e+06
3.43485e+06
3.42386e+06
3.40691e+06
3.38256e+06
3.34988e+06
3.30907e+06
3.26168e+06
3.21052e+06
3.15877e+06
3.10464e+06
3.04291e+06
2.96966e+06
2.8831e+06
2.7838e+06
2.67379e+06
2.55552e+06
2.43119e+06
2.30266e+06
2.17152e+06
2.03909e+06
1.90647e+06
1.77451e+06
1.64383e+06
1.5148e+06
1.38747e+06
1.26156e+06
1.13646e+06
1.01133e+06
885120
757002
627214
497760
372322
255728
152264
61783.5
3.44694e+06
3.44699e+06
3.44698e+06
3.44694e+06
3.44688e+06
3.4468e+06
3.44672e+06
3.44666e+06
3.44665e+06
3.4467e+06
3.44683e+06
3.44702e+06
3.44726e+06
3.44744e+06
3.44737e+06
3.44672e+06
3.44497e+06
3.44146e+06
3.435e+06
3.42402e+06
3.40704e+06
3.38263e+06
3.34989e+06
3.30902e+06
3.26158e+06
3.21037e+06
3.15861e+06
3.10455e+06
3.04292e+06
2.96972e+06
2.88319e+06
2.78393e+06
2.67396e+06
2.5557e+06
2.43137e+06
2.30283e+06
2.17167e+06
2.03923e+06
1.90659e+06
1.77461e+06
1.64392e+06
1.51485e+06
1.38748e+06
1.26151e+06
1.13638e+06
1.01121e+06
884992
756880
627107
497699
372425
256191
153030
62185.9
3.44768e+06
3.44772e+06
3.4477e+06
3.44765e+06
3.44757e+06
3.44747e+06
3.44737e+06
3.44729e+06
3.44725e+06
3.4473e+06
3.44744e+06
3.44767e+06
3.44804e+06
3.44845e+06
3.44881e+06
3.44888e+06
3.44827e+06
3.44643e+06
3.44242e+06
3.43454e+06
3.42125e+06
3.40069e+06
3.37149e+06
3.333e+06
3.28629e+06
3.23388e+06
3.1794e+06
3.12154e+06
3.05673e+06
2.98199e+06
2.89473e+06
2.79491e+06
2.68433e+06
2.56531e+06
2.44001e+06
2.31029e+06
2.17771e+06
2.04361e+06
1.90911e+06
1.77512e+06
1.64231e+06
1.51112e+06
1.38167e+06
1.25376e+06
1.12689e+06
1.0003e+06
873078
744550
615098
486788
363200
248937
148060
60353.4
3.44771e+06
3.44775e+06
3.44774e+06
3.44768e+06
3.4476e+06
3.4475e+06
3.4474e+06
3.44732e+06
3.44729e+06
3.44734e+06
3.44748e+06
3.44771e+06
3.44809e+06
3.44851e+06
3.44888e+06
3.44897e+06
3.44837e+06
3.44658e+06
3.44258e+06
3.43475e+06
3.42143e+06
3.40086e+06
3.37156e+06
3.33301e+06
3.28621e+06
3.23374e+06
3.17919e+06
3.12139e+06
3.05666e+06
2.98197e+06
2.89475e+06
2.795e+06
2.68447e+06
2.56548e+06
2.44019e+06
2.31047e+06
2.17787e+06
2.04376e+06
1.90925e+06
1.77523e+06
1.6424e+06
1.51117e+06
1.38168e+06
1.25373e+06
1.12682e+06
1.00021e+06
872992
744481
615051
486788
363352
249419
148820
60732.8
3.44865e+06
3.44869e+06
3.44867e+06
3.44861e+06
3.44851e+06
3.44838e+06
3.44825e+06
3.44815e+06
3.4481e+06
3.44814e+06
3.4483e+06
3.44859e+06
3.44911e+06
3.44982e+06
3.45076e+06
3.45179e+06
3.45265e+06
3.45297e+06
3.45207e+06
3.44836e+06
3.44e+06
3.42476e+06
3.40038e+06
3.36525e+06
3.31961e+06
3.26598e+06
3.20912e+06
3.14821e+06
3.08089e+06
3.00511e+06
2.91743e+06
2.81714e+06
2.7057e+06
2.58539e+06
2.45837e+06
2.32653e+06
2.19149e+06
2.05462e+06
1.91711e+06
1.77994e+06
1.64387e+06
1.50943e+06
1.37684e+06
1.24602e+06
1.11658e+06
987896
859183
729938
600718
473660
352231
240785
143069
58670
3.44868e+06
3.44873e+06
3.4487e+06
3.44864e+06
3.44854e+06
3.44841e+06
3.44829e+06
3.44819e+06
3.44814e+06
3.44818e+06
3.44835e+06
3.44863e+06
3.44916e+06
3.44988e+06
3.45083e+06
3.45188e+06
3.45278e+06
3.45313e+06
3.45227e+06
3.4486e+06
3.44025e+06
3.42499e+06
3.40053e+06
3.36532e+06
3.31955e+06
3.26579e+06
3.20882e+06
3.14794e+06
3.08071e+06
3.00496e+06
2.91735e+06
2.81714e+06
2.70579e+06
2.58554e+06
2.45855e+06
2.32672e+06
2.19167e+06
2.05478e+06
1.91726e+06
1.78006e+06
1.64396e+06
1.50948e+06
1.37685e+06
1.24599e+06
1.11652e+06
987821
859122
729909
600732
473741
352470
241340
143859
59068.2
3.44986e+06
3.44989e+06
3.44986e+06
3.44978e+06
3.44966e+06
3.44951e+06
3.44936e+06
3.44923e+06
3.44916e+06
3.44919e+06
3.44936e+06
3.44969e+06
3.45033e+06
3.45136e+06
3.45292e+06
3.45505e+06
3.45766e+06
3.46054e+06
3.46329e+06
3.46467e+06
3.46262e+06
3.4545e+06
3.43677e+06
3.40649e+06
3.36249e+06
3.30753e+06
3.24865e+06
3.18568e+06
3.11699e+06
3.0412e+06
2.95398e+06
2.85361e+06
2.74121e+06
2.61903e+06
2.48938e+06
2.35428e+06
2.21546e+06
2.07442e+06
1.93245e+06
1.79063e+06
1.64986e+06
1.51078e+06
1.37375e+06
1.23885e+06
1.10582e+06
974207
843365
712996
583865
458185
339277
231185
137251
56734.5
3.44989e+06
3.44992e+06
3.44989e+06
3.44981e+06
3.44969e+06
3.44955e+06
3.4494e+06
3.44927e+06
3.4492e+06
3.44923e+06
3.44941e+06
3.44974e+06
3.45038e+06
3.45141e+06
3.453e+06
3.45515e+06
3.45779e+06
3.46069e+06
3.46351e+06
3.46492e+06
3.46294e+06
3.45479e+06
3.43706e+06
3.40664e+06
3.3625e+06
3.30731e+06
3.24825e+06
3.18529e+06
3.11669e+06
3.04092e+06
2.95376e+06
2.85352e+06
2.74125e+06
2.61918e+06
2.48959e+06
2.35452e+06
2.2157e+06
2.07465e+06
1.93265e+06
1.79082e+06
1.65001e+06
1.51089e+06
1.37383e+06
1.23888e+06
1.10583e+06
974204
843378
713044
583961
458349
339594
231781
138044
57108.2
3.45126e+06
3.4513e+06
3.45127e+06
3.45118e+06
3.45104e+06
3.45088e+06
3.45071e+06
3.45055e+06
3.45045e+06
3.45045e+06
3.4506e+06
3.45095e+06
3.45161e+06
3.4529e+06
3.455e+06
3.45818e+06
3.46262e+06
3.46831e+06
3.47505e+06
3.48219e+06
3.48781e+06
3.48873e+06
3.48015e+06
3.45677e+06
3.41532e+06
3.35845e+06
3.29787e+06
3.2345e+06
3.16667e+06
3.09292e+06
3.00773e+06
2.90809e+06
2.79472e+06
2.67004e+06
2.53665e+06
2.39686e+06
2.25264e+06
2.10569e+06
1.95745e+06
1.80917e+06
1.66191e+06
1.51647e+06
1.37338e+06
1.23289e+06
1.09494e+06
959239
825336
693199
563851
439592
323609
219558
130204
54378.8
3.45129e+06
3.45133e+06
3.4513e+06
3.45121e+06
3.45107e+06
3.45091e+06
3.45074e+06
3.45059e+06
3.45049e+06
3.45049e+06
3.45065e+06
3.45099e+06
3.45166e+06
3.45296e+06
3.45508e+06
3.4583e+06
3.46277e+06
3.4685e+06
3.4753e+06
3.4825e+06
3.48816e+06
3.48912e+06
3.48053e+06
3.45704e+06
3.41539e+06
3.3582e+06
3.29735e+06
3.23393e+06
3.16612e+06
3.09234e+06
3.0072e+06
2.90772e+06
2.79456e+06
2.67006e+06
2.53679e+06
2.39706e+06
2.25287e+06
2.10592e+06
1.95767e+06
1.80938e+06
1.66209e+06
1.51661e+06
1.37348e+06
1.23296e+06
1.09498e+06
959271
825384
693291
564010
439849
324032
220250
131033
54775.9
3.45292e+06
3.45295e+06
3.45291e+06
3.45281e+06
3.45267e+06
3.4525e+06
3.45231e+06
3.45212e+06
3.45198e+06
3.45194e+06
3.45204e+06
3.45234e+06
3.45293e+06
3.45429e+06
3.45666e+06
3.46061e+06
3.46661e+06
3.475e+06
3.48586e+06
3.49892e+06
3.51284e+06
3.52436e+06
3.52767e+06
3.51409e+06
3.47659e+06
3.41693e+06
3.3551e+06
3.294e+06
3.23118e+06
3.16307e+06
3.0823e+06
2.98447e+06
2.87012e+06
2.74214e+06
2.60366e+06
2.45748e+06
2.30593e+06
2.15099e+06
1.99434e+06
1.83745e+06
1.68154e+06
1.52762e+06
1.37645e+06
1.22848e+06
1.08387e+06
942497
804214
669387
539362
416598
304142
205119
121494
51482.3
3.45295e+06
3.45298e+06
3.45294e+06
3.45284e+06
3.4527e+06
3.45253e+06
3.45234e+06
3.45216e+06
3.45203e+06
3.45198e+06
3.45209e+06
3.45239e+06
3.45298e+06
3.45435e+06
3.45674e+06
3.46072e+06
3.46676e+06
3.4752e+06
3.4861e+06
3.49923e+06
3.51317e+06
3.5248e+06
3.52809e+06
3.51446e+06
3.47671e+06
3.41665e+06
3.35439e+06
3.29316e+06
3.23023e+06
3.16198e+06
3.08124e+06
2.98361e+06
2.86956e+06
2.74186e+06
2.6036e+06
2.45756e+06
2.3061e+06
2.15121e+06
1.99459e+06
1.8377e+06
1.68179e+06
1.52785e+06
1.37665e+06
1.22866e+06
1.08402e+06
942645
804377
669600
539658
417007
304719
205912
122364
51859.8
3.45479e+06
3.45483e+06
3.45479e+06
3.4547e+06
3.45456e+06
3.45438e+06
3.45418e+06
3.45398e+06
3.45381e+06
3.45369e+06
3.4537e+06
3.45386e+06
3.45423e+06
3.45532e+06
3.45753e+06
3.4616e+06
3.46835e+06
3.4786e+06
3.49295e+06
3.51142e+06
3.53292e+06
3.55478e+06
3.57136e+06
3.57128e+06
3.54064e+06
3.47755e+06
3.41693e+06
3.36346e+06
3.31288e+06
3.25599e+06
3.18259e+06
3.08746e+06
2.97175e+06
2.83928e+06
2.69407e+06
2.53952e+06
2.37845e+06
2.21319e+06
2.0457e+06
1.8777e+06
1.71064e+06
1.54577e+06
1.38407e+06
1.22626e+06
1.07268e+06
923499
778996
640053
508507
387171
279008
186420
110189
47690.9
3.45482e+06
3.45486e+06
3.45482e+06
3.45473e+06
3.45459e+06
3.45442e+06
3.45422e+06
3.45402e+06
3.45385e+06
3.45374e+06
3.45374e+06
3.45391e+06
3.45428e+06
3.45539e+06
3.45761e+06
3.46171e+06
3.4685e+06
3.47879e+06
3.49321e+06
3.51171e+06
3.53327e+06
3.55517e+06
3.57175e+06
3.57161e+06
3.54075e+06
3.47718e+06
3.41597e+06
3.36217e+06
3.31124e+06
3.25408e+06
3.18066e+06
3.08579e+06
2.97047e+06
2.83842e+06
2.69354e+06
2.53925e+06
2.37837e+06
2.21323e+06
2.04583e+06
1.87788e+06
1.71085e+06
1.54599e+06
1.38429e+06
1.22646e+06
1.07288e+06
923698
779229
640374
508972
387825
279866
187470
111182
48124.8
3.45692e+06
3.45695e+06
3.45692e+06
3.45684e+06
3.45671e+06
3.45655e+06
3.45637e+06
3.45616e+06
3.45595e+06
3.45577e+06
3.45563e+06
3.45557e+06
3.45559e+06
3.45601e+06
3.45748e+06
3.46062e+06
3.46657e+06
3.47666e+06
3.49216e+06
3.51373e+06
3.53996e+06
3.56728e+06
3.59199e+06
3.60718e+06
3.58924e+06
3.52523e+06
3.47453e+06
3.44291e+06
3.41835e+06
3.38075e+06
3.31741e+06
3.22472e+06
3.1061e+06
2.96709e+06
2.8128e+06
2.64735e+06
2.47407e+06
2.29566e+06
2.11441e+06
1.93231e+06
1.75107e+06
1.57218e+06
1.3969e+06
1.22617e+06
1.06065e+06
900837
747558
602390
467996
347898
245154
161174
95004.1
42718.6
3.45695e+06
3.45698e+06
3.45695e+06
3.45687e+06
3.45675e+06
3.45659e+06
3.4564e+06
3.4562e+06
3.456e+06
3.45582e+06
3.45568e+06
3.45562e+06
3.45563e+06
3.45607e+06
3.45756e+06
3.46072e+06
3.4667e+06
3.47682e+06
3.49237e+06
3.51398e+06
3.54018e+06
3.56741e+06
3.59217e+06
3.60702e+06
3.58869e+06
3.52459e+06
3.473e+06
3.44098e+06
3.41598e+06
3.37802e+06
3.31466e+06
3.22233e+06
3.10425e+06
2.96579e+06
2.81196e+06
2.64687e+06
2.47385e+06
2.29562e+06
2.11449e+06
1.93247e+06
1.75127e+06
1.5724e+06
1.39711e+06
1.22636e+06
1.06083e+06
901043
747853
602885
468817
349081
246603
162692
96332.4
43240.8
3.45926e+06
3.45931e+06
3.45929e+06
3.45924e+06
3.45915e+06
3.45903e+06
3.45888e+06
3.4587e+06
3.45849e+06
3.45826e+06
3.45798e+06
3.45764e+06
3.45716e+06
3.4566e+06
3.45659e+06
3.45755e+06
3.4605e+06
3.46693e+06
3.47864e+06
3.49666e+06
3.51879e+06
3.53686e+06
3.54491e+06
3.55774e+06
3.55734e+06
3.5174e+06
3.50576e+06
3.53457e+06
3.5627e+06
3.55568e+06
3.50394e+06
3.41148e+06
3.28664e+06
3.1375e+06
2.97042e+06
2.79028e+06
2.60088e+06
2.40534e+06
2.20626e+06
2.00594e+06
1.80637e+06
1.60932e+06
1.41627e+06
1.22846e+06
1.04687e+06
872461
706671
551964
412258
292574
196707
124714
72992.8
35505.8
3.4593e+06
3.45935e+06
3.45933e+06
3.45927e+06
3.45919e+06
3.45907e+06
3.45892e+06
3.45874e+06
3.45854e+06
3.4583e+06
3.45803e+06
3.45768e+06
3.45719e+06
3.45665e+06
3.45666e+06
3.45764e+06
3.46061e+06
3.46709e+06
3.47885e+06
3.49689e+06
3.51895e+06
3.53709e+06
3.54497e+06
3.55732e+06
3.55688e+06
3.51562e+06
3.50268e+06
3.53085e+06
3.55832e+06
3.55088e+06
3.49926e+06
3.40738e+06
3.28331e+06
3.13492e+06
2.96847e+06
2.78881e+06
2.59978e+06
2.40452e+06
2.20566e+06
2.0055e+06
1.80606e+06
1.60908e+06
1.41609e+06
1.22832e+06
1.04679e+06
872517
707008
552840
413988
295188
199747
127695
75333.6
36443.8
3.46187e+06
3.46192e+06
3.46192e+06
3.4619e+06
3.46187e+06
3.46183e+06
3.46175e+06
3.46165e+06
3.46149e+06
3.46125e+06
3.46088e+06
3.46027e+06
3.45925e+06
3.45761e+06
3.45556e+06
3.45332e+06
3.45111e+06
3.44971e+06
3.45032e+06
3.45255e+06
3.44997e+06
3.42016e+06
3.32617e+06
3.25831e+06
3.27288e+06
3.32176e+06
3.52071e+06
3.69372e+06
3.80244e+06
3.82922e+06
3.78217e+06
3.68124e+06
3.54183e+06
3.37482e+06
3.18776e+06
2.98614e+06
2.77416e+06
2.55524e+06
2.33227e+06
2.1078e+06
1.88407e+06
1.66311e+06
1.44666e+06
1.23622e+06
1.03309e+06
838686
655035
485642
336337
215360
128322
72704.1
40965.1
25050.1
3.46191e+06
3.46195e+06
3.46195e+06
3.46194e+06
3.46191e+06
3.46186e+06
3.4618e+06
3.46169e+06
3.46154e+06
3.4613e+06
3.46093e+06
3.46031e+06
3.45928e+06
3.45763e+06
3.45561e+06
3.4534e+06
3.45123e+06
3.4499e+06
3.45056e+06
3.45289e+06
3.45045e+06
3.42124e+06
3.32936e+06
3.26538e+06
3.27665e+06
3.31992e+06
3.51448e+06
3.68621e+06
3.79469e+06
3.82163e+06
3.77536e+06
3.67553e+06
3.53723e+06
3.37116e+06
3.18483e+06
2.98376e+06
2.77218e+06
2.55355e+06
2.3308e+06
2.10648e+06
1.88286e+06
1.66195e+06
1.44553e+06
1.23513e+06
1.0321e+06
837956
654933
486834
339749
221011
134790
78534.1
45440.9
26801.8
3.46467e+06
3.46474e+06
3.46478e+06
3.46483e+06
3.46489e+06
3.46495e+06
3.46501e+06
3.46505e+06
3.46503e+06
3.46489e+06
3.46453e+06
3.46379e+06
3.46236e+06
3.45977e+06
3.45567e+06
3.4499e+06
3.44171e+06
3.42994e+06
3.41315e+06
3.38443e+06
3.32163e+06
3.14705e+06
2.66543e+06
2.32741e+06
1.94324e+06
2.79748e+06
3.56996e+06
3.93439e+06
4.11585e+06
4.18482e+06
4.14156e+06
4.02828e+06
3.86893e+06
3.67825e+06
3.46537e+06
3.23644e+06
2.99602e+06
2.74778e+06
2.49488e+06
2.24009e+06
1.98591e+06
1.73464e+06
1.48831e+06
1.24874e+06
1.01761e+06
796729
588706
398116
233568
109762
35305.2
1338.84
-5923.68
8120.07
3.46471e+06
3.46478e+06
3.46482e+06
3.46487e+06
3.46493e+06
3.46499e+06
3.46506e+06
3.4651e+06
3.46508e+06
3.46494e+06
3.46458e+06
3.46382e+06
3.46237e+06
3.45976e+06
3.45565e+06
3.44991e+06
3.44176e+06
3.43006e+06
3.41332e+06
3.38462e+06
3.32203e+06
3.1496e+06
2.67927e+06
2.3418e+06
1.92734e+06
2.80059e+06
3.5577e+06
3.92067e+06
4.10198e+06
4.1723e+06
4.1315e+06
4.02048e+06
3.8629e+06
3.67348e+06
3.46144e+06
3.23306e+06
2.99297e+06
2.74492e+06
2.4921e+06
2.23731e+06
1.98309e+06
1.73175e+06
1.48534e+06
1.24574e+06
1.01472e+06
794298
587496
399660
240275
121377
47796.7
11897.9
2080.14
11820.5
3.46773e+06
3.46779e+06
3.46787e+06
3.468e+06
3.46819e+06
3.46841e+06
3.46867e+06
3.46893e+06
3.46915e+06
3.46925e+06
3.46909e+06
3.46845e+06
3.46694e+06
3.46388e+06
3.45843e+06
3.44962e+06
3.43595e+06
3.41504e+06
3.38129e+06
3.31963e+06
3.1932e+06
2.9055e+06
2.35504e+06
577064
-6.94263e+06
1.03588e+06
3.38227e+06
4.01032e+06
4.42738e+06
4.61386e+06
4.59193e+06
4.47457e+06
4.2975e+06
4.08215e+06
3.83972e+06
3.57728e+06
3.30006e+06
3.01233e+06
2.71787e+06
2.42009e+06
2.12216e+06
1.82706e+06
1.53761e+06
1.25656e+06
986806
731683
495560
284809
110817
-4801.96
-56727
-66214.7
-50933.4
-10851.7
3.46776e+06
3.46783e+06
3.46791e+06
3.46805e+06
3.46823e+06
3.46846e+06
3.46872e+06
3.46898e+06
3.4692e+06
3.4693e+06
3.46914e+06
3.46849e+06
3.46695e+06
3.46386e+06
3.45838e+06
3.44958e+06
3.43596e+06
3.4151e+06
3.38135e+06
3.31973e+06
3.19356e+06
2.90634e+06
2.35771e+06
513398
-7.39881e+06
982709
3.35988e+06
3.99006e+06
4.40346e+06
4.59011e+06
4.57225e+06
4.45916e+06
4.28535e+06
4.0722e+06
3.8312e+06
3.56968e+06
3.29303e+06
3.00567e+06
2.71141e+06
2.41375e+06
2.11587e+06
1.82082e+06
1.53147e+06
1.25066e+06
981462
727537
493898
288229
123696
14795.3
-38663.6
-52773.7
-41459.1
-6673.26
3.47092e+06
3.47103e+06
3.47117e+06
3.47141e+06
3.47175e+06
3.47219e+06
3.47272e+06
3.47331e+06
3.47391e+06
3.47443e+06
3.47472e+06
3.47453e+06
3.47342e+06
3.47066e+06
3.46515e+06
3.45543e+06
3.43933e+06
3.41329e+06
3.36969e+06
3.29345e+06
3.1511e+06
2.87026e+06
2.37322e+06
1.50301e+06
-2.28406e+06
3.70599e+06
4.56387e+06
5.07498e+06
5.29562e+06
5.28068e+06
5.14456e+06
4.93664e+06
4.68315e+06
4.39622e+06
4.08347e+06
3.75091e+06
3.40376e+06
3.04679e+06
2.68457e+06
2.32155e+06
1.96217e+06
1.61102e+06
1.27298e+06
953515
658697
394858
166998
-20937.4
-140336
-169441
-143859
-99543.5
-29179.2
3.47097e+06
3.47108e+06
3.47122e+06
3.47146e+06
3.4718e+06
3.47224e+06
3.47277e+06
3.47336e+06
3.47396e+06
3.47448e+06
3.47477e+06
3.47456e+06
3.47343e+06
3.47063e+06
3.46507e+06
3.45532e+06
3.43922e+06
3.4132e+06
3.36963e+06
3.29328e+06
3.15076e+06
2.86976e+06
2.36388e+06
1.48659e+06
-2.54742e+06
3.67992e+06
4.53505e+06
5.04161e+06
5.26229e+06
5.2528e+06
5.12293e+06
4.91987e+06
4.66965e+06
4.38491e+06
4.07368e+06
3.74223e+06
3.3959e+06
3.03956e+06
2.67784e+06
2.31522e+06
1.95619e+06
1.60537e+06
1.26768e+06
948626
654307
391187
165599
-8409.61
-109570
-137921
-122516
-86484.9
-23820
3.47434e+06
3.47445e+06
3.47465e+06
3.47503e+06
3.47557e+06
3.47628e+06
3.47716e+06
3.47817e+06
3.47929e+06
3.48043e+06
3.48145e+06
3.4821e+06
3.48198e+06
3.48039e+06
3.47623e+06
3.46797e+06
3.45332e+06
3.42857e+06
3.3869e+06
3.31768e+06
3.2016e+06
3.00997e+06
2.83848e+06
2.81686e+06
3.00242e+06
4.28522e+06
4.90164e+06
5.35145e+06
5.62793e+06
5.73812e+06
5.68475e+06
5.5197e+06
5.28565e+06
5.00499e+06
4.68857e+06
4.34412e+06
3.97803e+06
3.59603e+06
3.20344e+06
2.80548e+06
2.40725e+06
2.01393e+06
1.63096e+06
1.26444e+06
921550
610740
340682
117780
-58048.3
-161277
-179443
-155810
-123366
-67206
3.47438e+06
3.47449e+06
3.4747e+06
3.47508e+06
3.47562e+06
3.47633e+06
3.47721e+06
3.47823e+06
3.47935e+06
3.48049e+06
3.4815e+06
3.48215e+06
3.482e+06
3.48036e+06
3.47615e+06
3.46783e+06
3.45315e+06
3.42837e+06
3.38673e+06
3.31746e+06
3.20107e+06
3.00835e+06
2.83334e+06
2.79802e+06
2.98833e+06
4.25713e+06
4.87162e+06
5.32064e+06
5.59927e+06
5.71463e+06
5.66881e+06
5.51022e+06
5.28003e+06
5.00143e+06
4.68624e+06
4.34256e+06
3.97697e+06
3.59525e+06
3.20279e+06
2.80482e+06
2.40647e+06
2.01298e+06
1.62983e+06
1.26319e+06
920285
609475
339331
117165
-47237.3
-138617
-161128
-146306
-118450
-63652.2
3.47783e+06
3.47798e+06
3.47828e+06
3.47881e+06
3.47959e+06
3.48062e+06
3.48192e+06
3.48348e+06
3.48527e+06
3.48724e+06
3.48927e+06
3.49119e+06
3.49266e+06
3.49313e+06
3.49173e+06
3.48716e+06
3.47756e+06
3.46019e+06
3.43114e+06
3.38554e+06
3.31916e+06
3.23858e+06
3.21905e+06
3.41965e+06
3.91786e+06
4.55746e+06
5.17687e+06
5.58332e+06
5.84234e+06
5.94082e+06
5.88116e+06
5.70627e+06
5.46167e+06
5.17062e+06
4.84265e+06
4.48482e+06
4.10352e+06
3.70465e+06
3.29394e+06
2.87698e+06
2.45941e+06
2.04698e+06
1.64583e+06
1.26301e+06
906937
587517
314716
95253.4
-70342.1
-162132
-177877
-156455
-127900
-73198.4
3.47789e+06
3.47804e+06
3.47833e+06
3.47886e+06
3.47964e+06
3.48068e+06
3.48198e+06
3.48354e+06
3.48534e+06
3.4873e+06
3.48934e+06
3.49124e+06
3.49268e+06
3.49312e+06
3.49167e+06
3.48705e+06
3.47739e+06
3.45998e+06
3.43092e+06
3.38527e+06
3.31877e+06
3.23787e+06
3.21813e+06
3.41878e+06
3.91322e+06
4.54341e+06
5.15751e+06
5.55898e+06
5.81648e+06
5.91877e+06
5.86679e+06
5.69914e+06
5.45882e+06
5.16982e+06
4.84296e+06
4.48582e+06
4.10493e+06
3.70629e+06
3.29564e+06
2.87861e+06
2.46086e+06
2.04818e+06
1.6468e+06
1.26381e+06
907663
588117
314845
95169.8
-61326
-144333
-164103
-150297
-125464
-71811.8
3.48147e+06
3.48163e+06
3.48201e+06
3.48272e+06
3.48377e+06
3.48518e+06
3.48698e+06
3.48917e+06
3.49177e+06
3.49476e+06
3.49808e+06
3.50164e+06
3.50523e+06
3.50854e+06
3.51107e+06
3.51207e+06
3.51051e+06
3.50509e+06
3.49461e+06
3.47891e+06
3.46194e+06
3.45924e+06
3.53011e+06
3.77485e+06
4.21433e+06
4.7418e+06
5.19982e+06
5.58036e+06
5.86344e+06
5.99891e+06
5.96631e+06
5.80193e+06
5.56025e+06
5.27055e+06
4.94199e+06
4.58099e+06
4.19382e+06
3.78658e+06
3.36529e+06
2.93598e+06
2.50477e+06
2.07798e+06
1.6625e+06
1.26627e+06
898925
571790
296279
80102.1
-74852.5
-156904
-172219
-154254
-127262
-69895.5
3.48152e+06
3.48168e+06
3.48207e+06
3.48277e+06
3.48383e+06
3.48524e+06
3.48704e+06
3.48924e+06
3.49184e+06
3.49483e+06
3.49815e+06
3.50169e+06
3.50526e+06
3.50855e+06
3.51105e+06
3.51202e+06
3.51042e+06
3.50498e+06
3.49447e+06
3.4788e+06
3.46187e+06
3.45935e+06
3.53162e+06
3.77769e+06
4.21364e+06
4.73571e+06
5.18861e+06
5.56232e+06
5.8398e+06
5.97545e+06
5.94947e+06
5.7933e+06
5.5569e+06
5.26964e+06
4.94236e+06
4.58217e+06
4.19555e+06
3.78867e+06
3.36759e+06
2.93836e+06
2.50712e+06
2.08024e+06
1.66466e+06
1.26841e+06
901135
573943
297828
80839
-67104.6
-142583
-161265
-149315
-125439
-68969.6
3.48509e+06
3.48529e+06
3.48578e+06
3.48668e+06
3.48803e+06
3.48986e+06
3.49222e+06
3.49514e+06
3.49866e+06
3.50283e+06
3.50766e+06
3.51316e+06
3.5193e+06
3.52603e+06
3.53329e+06
3.541e+06
3.54905e+06
3.55756e+06
3.56724e+06
3.58051e+06
3.60328e+06
3.65379e+06
3.78148e+06
4.0388e+06
4.41338e+06
4.83104e+06
5.207e+06
5.535e+06
5.81339e+06
5.98447e+06
5.99066e+06
5.84641e+06
5.61305e+06
5.32959e+06
5.00569e+06
4.64691e+06
4.25927e+06
3.8489e+06
3.42208e+06
2.98517e+06
2.5447e+06
2.10753e+06
1.68116e+06
1.27432e+06
897655
563799
285814
73275.1
-71967.2
-147300
-164755
-151215
-125661
-67860.1
3.48515e+06
3.48536e+06
3.48585e+06
3.48675e+06
3.4881e+06
3.48994e+06
3.49229e+06
3.49521e+06
3.49874e+06
3.50291e+06
3.50774e+06
3.51323e+06
3.51935e+06
3.52607e+06
3.53332e+06
3.54101e+06
3.54906e+06
3.55756e+06
3.56725e+06
3.58056e+06
3.60343e+06
3.65455e+06
3.78371e+06
4.04098e+06
4.41393e+06
4.82879e+06
5.20098e+06
5.52301e+06
5.79349e+06
5.96047e+06
5.97071e+06
5.83516e+06
5.60828e+06
5.32775e+06
5.00529e+06
4.64745e+06
4.26049e+06
3.85064e+06
3.42419e+06
2.98755e+06
2.54726e+06
2.11023e+06
1.68402e+06
1.27744e+06
901107
567409
288810
74663.2
-65458.2
-135482
-155426
-146565
-123962
-67075.4
3.48875e+06
3.48896e+06
3.48955e+06
3.49066e+06
3.49233e+06
3.49461e+06
3.49757e+06
3.50127e+06
3.50581e+06
3.51128e+06
3.51777e+06
3.52542e+06
3.53437e+06
3.54484e+06
3.55719e+06
3.5719e+06
3.58966e+06
3.61147e+06
3.63894e+06
3.67476e+06
3.72596e+06
3.81381e+06
3.97053e+06
4.21317e+06
4.52738e+06
4.86656e+06
5.18143e+06
5.4627e+06
5.71727e+06
5.90727e+06
5.95376e+06
5.83671e+06
5.61649e+06
5.34377e+06
5.02936e+06
4.67772e+06
4.29443e+06
3.88565e+06
3.45788e+06
3.01785e+06
2.57259e+06
2.12944e+06
1.69648e+06
1.28303e+06
900412
562231
283294
76158.8
-60723.5
-134123
-157190
-149436
-125278
-67739.9
3.48881e+06
3.48902e+06
3.48962e+06
3.49073e+06
3.4924e+06
3.49469e+06
3.49765e+06
3.50135e+06
3.50589e+06
3.51136e+06
3.51785e+06
3.52549e+06
3.53442e+06
3.54489e+06
3.55724e+06
3.57197e+06
3.58975e+06
3.61158e+06
3.63907e+06
3.67495e+06
3.72641e+06
3.81485e+06
3.97214e+06
4.21517e+06
4.52795e+06
4.86527e+06
5.17838e+06
5.45543e+06
5.70215e+06
5.88459e+06
5.93147e+06
5.82278e+06
5.61022e+06
5.34096e+06
5.02813e+06
4.6775e+06
4.29498e+06
3.88682e+06
3.45955e+06
3.01995e+06
2.57505e+06
2.13226e+06
1.69972e+06
1.28684e+06
904912
567261
287859
78134.6
-55730.7
-124304
-148622
-144393
-123387
-66942.5
3.49228e+06
3.49253e+06
3.49324e+06
3.49457e+06
3.49657e+06
3.49932e+06
3.5029e+06
3.50742e+06
3.51302e+06
3.51985e+06
3.52809e+06
3.53798e+06
3.54984e+06
3.56413e+06
3.58154e+06
3.60295e+06
3.6295e+06
3.6625e+06
3.70348e+06
3.75495e+06
3.82675e+06
3.93691e+06
4.10073e+06
4.32227e+06
4.58814e+06
4.86999e+06
5.13833e+06
5.38052e+06
5.60273e+06
5.79091e+06
5.86936e+06
5.7814e+06
5.57647e+06
5.31682e+06
5.01485e+06
4.67357e+06
4.29792e+06
3.89399e+06
3.46854e+06
3.02882e+06
2.58246e+06
2.13748e+06
1.70257e+06
1.28755e+06
904030
565907
289238
90711.5
-39367.9
-116766
-150080
-149792
-126876
-69451
3.49235e+06
3.49261e+06
3.49332e+06
3.49465e+06
3.49665e+06
3.4994e+06
3.50299e+06
3.50752e+06
3.51312e+06
3.51995e+06
3.52818e+06
3.53807e+06
3.54992e+06
3.56422e+06
3.58163e+06
3.60307e+06
3.62965e+06
3.66267e+06
3.70368e+06
3.75522e+06
3.82725e+06
3.93793e+06
4.10218e+06
4.32346e+06
4.58886e+06
4.86969e+06
5.1367e+06
5.37631e+06
5.59221e+06
5.77128e+06
5.84627e+06
5.76537e+06
5.56908e+06
5.3134e+06
5.0131e+06
4.67285e+06
4.298e+06
3.89475e+06
3.46988e+06
3.03068e+06
2.5848e+06
2.14032e+06
1.70602e+06
1.2918e+06
909303
572117
295252
93138.2
-35995.8
-108845
-141860
-144038
-124685
-68607.1
3.49573e+06
3.49599e+06
3.4968e+06
3.49834e+06
3.50068e+06
3.5039e+06
3.50811e+06
3.51347e+06
3.52013e+06
3.52833e+06
3.53832e+06
3.55045e+06
3.56518e+06
3.58318e+06
3.60533e+06
3.63276e+06
3.66674e+06
3.70849e+06
3.75898e+06
3.82189e+06
3.90835e+06
4.02901e+06
4.18973e+06
4.38996e+06
4.61861e+06
4.85628e+06
5.08486e+06
5.29374e+06
5.48435e+06
5.6554e+06
5.75142e+06
5.69019e+06
5.50091e+06
5.25495e+06
4.96676e+06
4.63748e+06
4.27121e+06
3.87388e+06
3.45256e+06
3.01513e+06
2.57007e+06
2.12635e+06
1.69361e+06
1.28237e+06
904384
573104
304687
118070
-8150.3
-95162.2
-143473
-152417
-130999
-73163.6
3.49579e+06
3.49606e+06
3.49688e+06
3.49842e+06
3.50076e+06
3.50398e+06
3.5082e+06
3.51356e+06
3.52023e+06
3.52843e+06
3.53842e+06
3.55054e+06
3.56527e+06
3.58327e+06
3.60544e+06
3.6329e+06
3.66691e+06
3.70868e+06
3.75918e+06
3.82221e+06
3.90899e+06
4.02978e+06
4.19066e+06
4.39111e+06
4.61912e+06
4.85615e+06
5.08411e+06
5.29137e+06
5.47746e+06
5.63977e+06
5.72918e+06
5.67291e+06
5.4928e+06
5.25125e+06
4.96476e+06
4.63649e+06
4.27102e+06
3.87439e+06
3.4537e+06
3.01685e+06
2.57233e+06
2.12921e+06
1.69719e+06
1.28691e+06
910157
580110
311517
120591
-6164.3
-89013.8
-135407
-145852
-128323
-72149
3.49891e+06
3.49922e+06
3.50014e+06
3.50189e+06
3.50455e+06
3.50823e+06
3.51306e+06
3.51921e+06
3.52692e+06
3.53644e+06
3.54811e+06
3.56238e+06
3.57982e+06
3.60124e+06
3.62766e+06
3.6603e+06
3.70037e+06
3.74878e+06
3.80638e+06
3.87852e+06
3.97403e+06
4.0979e+06
4.25215e+06
4.43322e+06
4.63179e+06
4.83464e+06
5.02925e+06
5.20813e+06
5.36932e+06
5.51543e+06
5.61352e+06
5.57357e+06
5.39948e+06
5.16693e+06
4.89258e+06
4.57558e+06
4.21905e+06
3.82869e+06
3.41189e+06
2.97727e+06
2.53431e+06
2.09334e+06
1.66545e+06
1.26254e+06
896965
581626
331917
159459
32196.9
-70149.5
-136762
-157016
-138071
-79095.6
3.49899e+06
3.49931e+06
3.50023e+06
3.50198e+06
3.50464e+06
3.50832e+06
3.51315e+06
3.51932e+06
3.52703e+06
3.53655e+06
3.54823e+06
3.56249e+06
3.57993e+06
3.60135e+06
3.6278e+06
3.66046e+06
3.70055e+06
3.74897e+06
3.80659e+06
3.87887e+06
3.9745e+06
4.09863e+06
4.25297e+06
4.43382e+06
4.63231e+06
4.83476e+06
5.02883e+06
5.20677e+06
5.36501e+06
5.50388e+06
5.59353e+06
5.55608e+06
5.39115e+06
5.1633e+06
4.89063e+06
4.57458e+06
4.21882e+06
3.82916e+06
3.41302e+06
2.97903e+06
2.53669e+06
2.09639e+06
1.66932e+06
1.26744e+06
903181
589098
338755
161750
32844.6
-66011.2
-129093
-149761
-134644
-77829.8
3.50188e+06
3.5022e+06
3.50321e+06
3.50516e+06
3.50812e+06
3.51222e+06
3.51763e+06
3.52454e+06
3.53321e+06
3.54396e+06
3.55719e+06
3.57342e+06
3.59332e+06
3.61778e+06
3.64792e+06
3.68495e+06
3.72998e+06
3.7836e+06
3.84717e+06
3.9263e+06
4.02681e+06
4.15073e+06
4.29721e+06
4.46202e+06