/*--------------------------------*- C++ -*----------------------------------*\
| =========                 |                                                 |
| \\      /  F ield         | OpenFOAM: The Open Source CFD Toolbox           |
|  \\    /   O peration     | Version:  4.1                                   |
|   \\  /    A nd           | Web:      www.OpenFOAM.org                      |
|    \\/     M anipulation  |                                                 |
\*---------------------------------------------------------------------------*/
FoamFile
{
    version     2.0;
    format      ascii;
    class       surfaceScalarField;
    location    "2";
    object      phi;
}
// * * * * * * * * * * * * * * * * * * * * * * * * * * * * * * * * * * * * * //

dimensions      [0 3 -1 0 0 0 0];

internalField   nonuniform List<scalar> 
11516
(
8.72668e+06
-172853
-1.03521e+06
1.00261e+07
-1.70233e+06
-9.96319e+06
1.15416e+07
-1.78954e+06
-1.03623e+07
1.3013e+07
-1.88052e+06
-1.07546e+07
1.4147e+07
-2.01101e+06
-1.11495e+07
1.46007e+07
-2.20212e+06
-1.16248e+07
1.38055e+07
-2.50368e+06
-1.22619e+07
1.06494e+07
-3.01067e+06
-1.31214e+07
3.71844e+06
-3.89143e+06
-1.41583e+07
-8.70875e+06
-4.84882e+06
-1.45278e+07
-2.98633e+07
-6.64848e+06
-1.38442e+07
-2.54798e+07
-5.37174e+06
-4.07418e+07
-6.56835e+06
-5.46851e+06
-5.34816e+07
2.26584e+07
-5.27342e+06
-6.01241e+07
6.4779e+07
-4.67461e+06
-6.68141e+07
1.22995e+08
-3.54188e+06
-7.78441e+07
2.01202e+08
-2.40773e+06
-9.24977e+07
2.98678e+08
-2.89561e+06
-1.1409e+08
4.21659e+08
-2.47181e+06
-1.3677e+08
5.74629e+08
-1.93882e+06
-1.63508e+08
7.62798e+08
1.42128e+06
-1.90435e+08
9.85241e+08
3.5946e+06
-2.22989e+08
1.2387e+09
6.78821e+06
-2.56594e+08
1.52371e+09
9.03455e+06
-2.9465e+08
1.83801e+09
1.42176e+07
-3.35667e+08
2.16225e+09
2.33927e+07
-3.64048e+08
2.41786e+09
2.19361e+07
-3.07555e+08
2.51067e+09
-4.05876e+06
-1.2469e+08
2.50152e+09
-2.29168e+07
243600
2.46161e+09
-1.7255e+07
2.85697e+07
2.42061e+09
-1.25307e+07
2.72854e+07
2.38561e+09
-1.02951e+07
2.08721e+07
2.35364e+09
-7.99644e+06
1.72016e+07
2.32382e+09
-7.15879e+06
1.57579e+07
2.29663e+09
-6.68081e+06
1.42862e+07
2.2707e+09
-5.48863e+06
1.34974e+07
2.24547e+09
-4.56358e+06
1.38405e+07
2.22008e+09
-4.37625e+06
1.60027e+07
2.19301e+09
-3.68582e+06
1.98072e+07
2.16466e+09
-3.1986e+06
2.40361e+07
2.13654e+09
-3.09895e+06
2.82741e+07
2.10807e+09
-2.42976e+06
3.3677e+07
2.07987e+09
-1.46639e+06
3.96478e+07
2.05272e+09
-451266
4.54615e+07
2.02631e+09
563393
5.05662e+07
1.99748e+09
1.49708e+06
5.43021e+07
1.96033e+09
2.23911e+06
5.57764e+07
1.9084e+09
2.77873e+06
5.43551e+07
1.83928e+09
3.1499e+06
4.9854e+07
1.75778e+09
2.74288e+06
4.28148e+07
1.67546e+09
731621
3.43455e+07
1.60981e+09
-4.41334e+06
2.34839e+07
1.57983e+09
-1.08356e+07
8.13299e+06
-6.56237e+06
-589374
8.70409e+06
-1.04158e+06
1.00509e+07
-1.00546e+07
1.15905e+07
-1.04126e+07
1.30728e+07
-1.07999e+07
1.42204e+07
-1.12109e+07
1.46715e+07
-1.17162e+07
1.38288e+07
-1.23867e+07
1.0572e+07
-1.32954e+07
3.58069e+06
-1.43754e+07
-9.91174e+06
-1.51296e+07
-3.36666e+07
-1.53752e+07
-2.85186e+07
-4.43548e+07
-7.5917e+06
-5.61996e+07
2.41932e+07
-6.14044e+07
6.81229e+07
-6.90489e+07
1.29403e+08
-7.89317e+07
2.08517e+08
-9.45041e+07
3.08618e+08
-1.15361e+08
4.33853e+08
-1.39157e+08
5.91605e+08
-1.64973e+08
7.85793e+08
-1.93311e+08
1.01762e+09
-2.25829e+08
1.28688e+09
-2.61012e+08
1.59433e+09
-3.00193e+08
1.94632e+09
-3.44343e+08
2.33433e+09
-3.78819e+08
2.65208e+09
-3.19617e+08
2.73892e+09
-1.17021e+08
2.67707e+09
1.67931e+07
2.60119e+09
3.87972e+07
2.53687e+09
3.32078e+07
2.48451e+09
2.46275e+07
2.44078e+09
1.91539e+07
2.40078e+09
1.72946e+07
2.36392e+09
1.55993e+07
2.33089e+09
1.41496e+07
2.30016e+09
1.401e+07
2.2689e+09
1.63339e+07
2.23673e+09
1.98357e+07
2.20336e+09
2.40474e+07
2.16878e+09
2.85285e+07
2.13368e+09
3.38677e+07
2.0987e+09
3.96307e+07
2.06431e+09
4.52637e+07
2.02991e+09
5.01357e+07
1.99313e+09
5.35196e+07
1.94999e+09
5.46169e+07
1.89724e+09
5.29163e+07
1.83492e+09
4.83538e+07
1.76658e+09
4.17589e+07
1.69879e+09
3.36216e+07
1.63934e+09
2.2783e+07
1.60102e+09
7.50239e+06
-1.3343e+06
8.70868e+06
-180120
-2.17211e+06
1.04219e+07
-1.79064e+06
-2.03671e+07
1.23255e+07
-1.82787e+06
-2.10546e+07
1.41594e+07
-1.90167e+06
-2.18021e+07
1.56271e+07
-2.02945e+06
-2.25712e+07
1.63997e+07
-2.22124e+06
-2.3468e+07
1.59712e+07
-2.51154e+06
-2.46555e+07
1.34763e+07
-2.99933e+06
-2.63822e+07
7.74255e+06
-3.79273e+06
-2.90381e+07
-2.64434e+06
-5.138e+06
-3.34598e+07
-1.60728e+07
-8.13096e+06
-4.30236e+07
-1.10786e+07
-8.85006e+06
-9.0154e+07
6.97836e+06
-7.07157e+06
-1.0922e+08
3.54951e+07
-5.36759e+06
-1.16991e+08
7.41883e+07
-5.22252e+06
-1.32179e+08
1.31244e+08
-3.27607e+06
-1.51793e+08
2.01028e+08
-3.25445e+06
-1.79947e+08
2.85707e+08
-2.71056e+06
-2.13708e+08
3.8296e+08
-3.33413e+06
-2.51015e+08
4.98639e+08
-1.75523e+06
-2.88977e+08
6.32435e+08
-131523
-3.29632e+08
7.78431e+08
1.73396e+06
-3.71452e+08
9.29432e+08
3.06369e+06
-4.1186e+08
1.07448e+09
4.1488e+06
-4.48164e+08
1.19853e+09
5.78642e+06
-4.74279e+08
1.29276e+09
7.62987e+06
-4.79033e+08
1.39613e+09
5.93889e+06
-4.34215e+08
1.53256e+09
-2.25858e+06
-2.76969e+08
1.65798e+09
-8.20771e+06
-1.34003e+08
1.75068e+09
-7.86975e+06
-7.31019e+07
1.81611e+09
-6.78866e+06
-4.8764e+07
1.86361e+09
-5.98468e+06
-3.81367e+07
1.90002e+09
-5.3064e+06
-3.15806e+07
1.92956e+09
-4.84328e+06
-2.62403e+07
1.95285e+09
-4.497e+06
-2.14751e+07
1.9707e+09
-4.02398e+06
-1.63884e+07
1.98337e+09
-3.66535e+06
-1.0247e+07
1.99174e+09
-3.38817e+06
-2.35916e+06
1.99599e+09
-3.08495e+06
7.23778e+06
1.99614e+09
-2.74614e+06
1.82523e+07
1.99194e+09
-2.43696e+06
3.03693e+07
1.98491e+09
-1.88213e+06
4.34881e+07
1.97627e+09
-1.15474e+06
5.70529e+07
1.96704e+09
-299657
7.02351e+07
1.95672e+09
582830
8.1971e+07
1.94212e+09
1.33321e+06
9.09131e+07
1.91708e+09
1.88467e+06
9.52749e+07
1.87525e+09
2.21013e+06
9.37336e+07
1.81405e+09
2.35815e+06
8.63994e+07
1.73812e+09
1.98392e+06
7.46826e+07
1.6594e+09
-144015
6.06648e+07
1.59078e+09
-5.47832e+06
4.71707e+07
1.5404e+09
-1.14298e+07
3.51103e+07
-6.80641e+06
1.20728e+07
8.70769e+06
-2.16765e+06
1.05033e+07
-2.04726e+07
1.23957e+07
-2.12437e+07
1.4226e+07
-2.20484e+07
1.57048e+07
-2.28787e+07
1.64889e+07
-2.3856e+07
1.60276e+07
-2.51598e+07
1.34821e+07
-2.70479e+07
7.63017e+06
-2.99956e+07
-3.34372e+06
-3.50326e+07
-1.73247e+07
-4.6325e+07
-1.27332e+07
-9.70927e+07
7.56805e+06
-1.12805e+08
3.63831e+07
-1.20398e+08
7.82604e+07
-1.34771e+08
1.35981e+08
-1.54976e+08
2.08115e+08
-1.8291e+08
2.93477e+08
-2.17344e+08
3.93454e+08
-2.53898e+08
5.11623e+08
-2.9241e+08
6.4797e+08
-3.33018e+08
7.97577e+08
-3.74908e+08
9.53433e+08
-4.1559e+08
1.10537e+09
-4.52046e+08
1.23896e+09
-4.79446e+08
1.34264e+09
-4.85358e+08
1.45503e+09
-4.38897e+08
1.59753e+09
-2.74845e+08
1.72288e+09
-1.28814e+08
1.81122e+09
-6.92843e+07
1.87206e+09
-4.63893e+07
1.91531e+09
-3.67379e+07
1.94788e+09
-3.08036e+07
1.97409e+09
-2.57227e+07
1.99462e+09
-2.10307e+07
2.0097e+09
-1.60632e+07
2.01968e+09
-9.94204e+06
2.02536e+09
-1.98449e+06
2.02671e+09
7.66935e+06
2.02355e+09
1.87496e+07
2.01578e+09
3.09976e+07
2.00452e+09
4.41336e+07
1.99089e+09
5.76467e+07
1.97564e+09
7.06767e+07
1.95826e+09
8.2107e+07
1.93619e+09
9.05862e+07
1.90552e+09
9.44232e+07
1.86314e+09
9.25623e+07
1.80902e+09
8.53755e+07
1.74722e+09
7.42938e+07
1.68328e+09
6.11316e+07
1.61989e+09
4.81896e+07
1.56015e+09
3.58522e+07
1.21322e+07
8.83968e+06
-175445
-3.27924e+06
1.06234e+07
-1.71835e+06
-3.07719e+07
1.26097e+07
-1.80872e+06
-3.18944e+07
1.45271e+07
-1.89706e+06
-3.30288e+07
1.60625e+07
-2.02288e+06
-3.41662e+07
1.68918e+07
-2.20187e+06
-3.5464e+07
1.65658e+07
-2.46591e+06
-3.717e+07
1.43997e+07
-2.88129e+06
-3.97076e+07
9.59703e+06
-3.54212e+06
-4.38785e+07
1.31675e+06
-4.58251e+06
-5.1492e+07
-9.35796e+06
-6.57605e+06
-6.75441e+07
-1.17776e+07
-7.50944e+06
-1.25304e+08
3.37065e+06
-5.88253e+06
-1.54162e+08
2.64511e+07
-4.91987e+06
-1.65486e+08
5.92207e+07
-4.48613e+06
-1.87123e+08
1.06166e+08
-3.21855e+06
-2.1594e+08
1.63903e+08
-3.13174e+06
-2.54656e+08
2.33007e+08
-2.9427e+06
-2.9924e+08
3.08083e+08
-3.27211e+06
-3.43012e+08
3.94438e+08
-2.09867e+06
-3.87563e+08
4.90366e+08
-1.23429e+06
-4.34825e+08
5.92378e+08
489118
-4.7894e+08
6.94028e+08
1.15979e+06
-5.19864e+08
7.86572e+08
2.04904e+06
-5.49479e+08
8.64016e+08
2.5133e+06
-5.64146e+08
9.26747e+08
3.14432e+06
-5.56729e+08
1.00051e+09
2.71712e+06
-5.23089e+08
1.10732e+09
-192270
-3.94632e+08
1.22118e+09
-2.96269e+06
-2.54398e+08
1.32191e+09
-3.40481e+06
-1.79582e+08
1.40801e+09
-3.39085e+06
-1.41104e+08
1.48221e+09
-3.37826e+06
-1.19123e+08
1.54705e+09
-3.33283e+06
-1.03759e+08
1.60427e+09
-3.22275e+06
-9.11119e+07
1.65455e+09
-3.07763e+06
-7.96145e+07
1.69828e+09
-2.87116e+06
-6.78772e+07
1.73574e+09
-2.68512e+06
-5.50582e+07
1.76734e+09
-2.49111e+06
-4.04081e+07
1.79321e+09
-2.29756e+06
-2.37215e+07
1.81351e+09
-2.04515e+06
-4.95401e+06
1.82863e+09
-1.74402e+06
1.54609e+07
1.83954e+09
-1.26883e+06
3.72258e+07
1.84757e+09
-650212
5.93821e+07
1.85376e+09
112235
8.09546e+07
1.85759e+09
858894
1.00337e+08
1.85579e+09
1.47875e+06
1.1561e+08
1.84182e+09
1.86099e+06
1.24342e+08
1.80912e+09
2.0446e+06
1.24702e+08
1.75519e+09
2.1039e+06
1.16689e+08
1.68509e+09
1.71378e+06
1.02245e+08
1.61109e+09
-322601
8.41569e+07
1.54995e+09
-5.43549e+06
6.52253e+07
1.51782e+09
-1.12265e+07
4.53269e+07
-6.58832e+06
1.42678e+07
8.8388e+06
-3.28719e+06
1.06468e+07
-3.10359e+07
1.26602e+07
-3.21172e+07
1.45873e+07
-3.32739e+07
1.61366e+07
-3.44771e+07
1.69763e+07
-3.58792e+07
1.66352e+07
-3.77388e+07
1.44237e+07
-4.05088e+07
9.56549e+06
-4.50548e+07
1.01914e+06
-5.34521e+07
-1.01948e+07
-7.15584e+07
-1.2704e+07
-1.33147e+08
3.37826e+06
-1.59276e+08
2.72882e+07
-1.69726e+08
6.22696e+07
-1.90856e+08
1.09864e+08
-2.20485e+08
1.69391e+08
-2.59312e+08
2.38782e+08
-3.04383e+08
3.15932e+08
-3.46935e+08
4.03348e+08
-3.92098e+08
5.00968e+08
-4.37999e+08
6.04818e+08
-4.82687e+08
7.0864e+08
-5.22195e+08
8.0511e+08
-5.51912e+08
8.87283e+08
-5.66019e+08
9.55763e+08
-5.5863e+08
1.03579e+09
-5.24292e+08
1.14735e+09
-3.93703e+08
1.26263e+09
-2.53205e+08
1.363e+09
-1.79168e+08
1.44807e+09
-1.41314e+08
1.52076e+09
-1.1977e+08
1.58392e+09
-1.04617e+08
1.63941e+09
-9.20337e+07
1.6881e+09
-8.0437e+07
1.73023e+09
-6.859e+07
1.76608e+09
-5.55721e+07
1.79592e+09
-4.07361e+07
1.81984e+09
-2.38068e+07
1.83779e+09
-4.84576e+06
1.85015e+09
1.58062e+07
1.85767e+09
3.77021e+07
1.86154e+09
5.99399e+07
1.86242e+09
8.13956e+07
1.85974e+09
1.0045e+08
1.85078e+09
1.151e+08
1.83131e+09
1.23091e+08
1.79786e+09
1.22901e+08
1.75068e+09
1.1492e+08
1.69401e+09
1.0119e+08
1.63429e+09
8.41733e+07
1.57819e+09
6.59212e+07
1.53685e+09
4.57758e+07
1.3769e+07
8.8072e+06
-183309
-4.52472e+06
1.09315e+07
-1.743e+06
-4.12477e+07
1.31819e+07
-1.75097e+06
-4.25415e+07
1.52926e+07
-1.80729e+06
-4.39529e+07
1.69596e+07
-1.9194e+06
-4.5386e+07
1.78513e+07
-2.08692e+06
-4.70007e+07
1.74937e+07
-2.33209e+06
-4.90799e+07
1.51912e+07
-2.70602e+06
-5.21202e+07
1.01144e+07
-3.25861e+06
-5.70977e+07
1.39744e+06
-4.07406e+06
-6.60539e+07
-1.10682e+07
-5.34452e+06
-8.39353e+07
-2.21184e+07
-6.08553e+06
-1.43922e+08
-1.11617e+07
-4.58913e+06
-1.88162e+08
5.23947e+06
-4.2285e+06
-2.03636e+08
3.09519e+07
-3.48849e+06
-2.30981e+08
6.54646e+07
-3.33549e+06
-2.69086e+08
1.10574e+08
-2.7726e+06
-3.15882e+08
1.64731e+08
-3.34711e+06
-3.72383e+08
2.23908e+08
-2.95944e+06
-4.18391e+08
2.90299e+08
-2.65233e+06
-4.69442e+08
3.64162e+08
-1.60618e+06
-5.19087e+08
4.44398e+08
-566525
-5.67448e+08
5.2494e+08
275694
-6.07218e+08
6.01124e+08
1.04642e+06
-6.33527e+08
6.67899e+08
1.53703e+06
-6.40459e+08
7.25757e+08
2.11202e+06
-6.25501e+08
7.90968e+08
2.26042e+06
-5.98876e+08
8.758e+08
940702
-4.87112e+08
9.68306e+08
-773411
-3.51257e+08
1.05775e+09
-1.27368e+06
-2.72685e+08
1.14232e+09
-1.55097e+06
-2.29439e+08
1.2218e+09
-1.88829e+06
-2.02828e+08
1.2964e+09
-2.13644e+06
-1.82951e+08
1.36589e+09
-2.27977e+06
-1.6567e+08
1.43003e+09
-2.2722e+06
-1.49096e+08
1.48855e+09
-2.21212e+06
-1.31951e+08
1.54128e+09
-2.08981e+06
-1.13144e+08
1.58798e+09
-1.97729e+06
-9.20016e+07
1.62863e+09
-1.81205e+06
-6.81589e+07
1.6632e+09
-1.62948e+06
-4.16098e+07
1.69207e+09
-1.33301e+06
-1.26584e+07
1.71601e+09
-921033
1.80478e+07
1.73619e+09
-335736
4.94584e+07
1.75347e+09
330775
7.99816e+07
1.7672e+09
954473
1.07635e+08
1.77365e+09
1.37193e+06
1.29864e+08
1.76641e+09
1.50642e+06
1.43655e+08
1.73896e+09
1.41288e+06
1.4676e+08
1.6893e+09
1.23257e+06
1.39179e+08
1.62271e+09
707430
1.23135e+08
1.55179e+09
-1.28195e+06
1.01872e+08
1.49314e+09
-6.17756e+06
7.84725e+07
1.46227e+09
-1.1507e+07
5.1882e+07
-6.80043e+06
1.51461e+07
8.818e+06
-4.50916e+06
1.10316e+07
-4.13803e+07
1.32548e+07
-4.28071e+07
1.53521e+07
-4.4308e+07
1.70232e+07
-4.58339e+07
1.7919e+07
-4.75708e+07
1.75427e+07
-4.98233e+07
1.52097e+07
-5.31213e+07
1.00748e+07
-5.85376e+07
1.23339e+06
-6.82922e+07
-1.18515e+07
-8.81807e+07
-2.29435e+07
-1.52533e+08
-1.2021e+07
-1.94939e+08
5.99022e+06
-2.08639e+08
3.23582e+07
-2.36393e+08
6.85654e+07
-2.74158e+08
1.14034e+08
-3.22315e+08
1.69507e+08
-3.77935e+08
2.29694e+08
-4.23993e+08
2.97153e+08
-4.734e+08
3.72293e+08
-5.23292e+08
4.52937e+08
-5.70055e+08
5.34933e+08
-6.09048e+08
6.12992e+08
-6.34239e+08
6.82767e+08
-6.40199e+08
7.44944e+08
-6.24951e+08
8.15135e+08
-5.98046e+08
9.03663e+08
-4.86124e+08
9.97398e+08
-3.51742e+08
1.08726e+09
-2.74172e+08
1.17167e+09
-2.3146e+08
1.25057e+09
-2.05138e+08
1.32419e+09
-1.85383e+08
1.39261e+09
-1.68055e+08
1.45565e+09
-1.51301e+08
1.51319e+09
-1.33892e+08
1.56491e+09
-1.1477e+08
1.61057e+09
-9.32811e+07
1.64996e+09
-6.90847e+07
1.68301e+09
-4.21814e+07
1.70991e+09
-1.29104e+07
1.73135e+09
1.8056e+07
1.74815e+09
4.95994e+07
1.76088e+09
8.00632e+07
1.76863e+09
1.0739e+08
1.76841e+09
1.2901e+08
1.7559e+09
1.42085e+08
1.72781e+09
1.44759e+08
1.6846e+09
1.37422e+08
1.63098e+09
1.224e+08
1.57384e+09
1.02542e+08
1.5202e+09
8.01422e+07
1.48058e+09
5.31126e+07
1.53241e+07
9.07387e+06
-166950
-5.65781e+06
1.14031e+07
-1.58266e+06
-5.15684e+07
1.38547e+07
-1.67782e+06
-5.32602e+07
1.61517e+07
-1.76032e+06
-5.49753e+07
1.79472e+07
-1.87405e+06
-5.66503e+07
1.88699e+07
-2.03464e+06
-5.84715e+07
1.8384e+07
-2.26512e+06
-6.07131e+07
1.56877e+07
-2.60784e+06
-6.38557e+07
9.79268e+06
-3.10608e+06
-6.87744e+07
-351722
-3.74743e+06
-7.72417e+07
-1.57653e+07
-4.5769e+06
-9.34052e+07
-3.57725e+07
-5.03854e+06
-1.48968e+08
-3.19468e+07
-3.96425e+06
-2.12613e+08
-2.17068e+07
-3.32807e+06
-2.3133e+08
-4.70706e+06
-3.00152e+06
-2.65191e+08
1.86017e+07
-3.09004e+06
-3.09887e+08
5.06054e+07
-2.6786e+06
-3.65154e+08
9.08821e+07
-3.33074e+06
-4.31419e+08
1.3941e+08
-2.78953e+06
-4.83994e+08
1.92908e+08
-2.80626e+06
-5.39073e+08
2.55238e+08
-1.81082e+06
-5.93745e+08
3.24013e+08
-1.33001e+06
-6.46555e+08
3.97173e+08
-170847
-6.87909e+08
4.69734e+08
364657
-7.14004e+08
5.35381e+08
1.15897e+06
-7.14692e+08
5.91675e+08
1.70116e+06
-6.9154e+08
6.50527e+08
2.1292e+06
-6.6764e+08
7.19399e+08
1.29626e+06
-5.63935e+08
7.94243e+08
-47027.6
-4.31332e+08
8.71185e+08
-438592
-3.53892e+08
9.493e+08
-770797
-3.11444e+08
1.02782e+09
-1.22859e+06
-2.85067e+08
1.10556e+09
-1.65259e+06
-2.64316e+08
1.1812e+09
-1.93682e+06
-2.45029e+08
1.2536e+09
-2.03941e+06
-2.25322e+08
1.32177e+09
-2.03602e+06
-2.04074e+08
1.38503e+09
-1.95652e+06
-1.80287e+08
1.44274e+09
-1.85832e+06
-1.53277e+08
1.49444e+09
-1.71887e+06
-1.22631e+08
1.53981e+09
-1.55329e+06
-8.83657e+07
1.57899e+09
-1.2913e+06
-5.08155e+07
1.61255e+09
-925288
-1.08786e+07
1.64145e+09
-412207
3.01908e+07
1.66621e+09
137074
7.03413e+07
1.68587e+09
629525
1.07136e+08
1.69652e+09
883965
1.3735e+08
1.69188e+09
887350
1.57514e+08
1.66591e+09
684492
1.64911e+08
1.61742e+09
454818
1.59272e+08
1.55204e+09
-36919.9
1.42961e+08
1.4824e+09
-1.84045e+06
1.19477e+08
1.42435e+09
-6.27439e+06
9.23173e+07
1.39246e+09
-1.11494e+07
6.06454e+07
-6.29967e+06
1.79581e+07
9.07363e+06
-5.67197e+06
1.14062e+07
-5.19824e+07
1.38918e+07
-5.36138e+07
1.61965e+07
-5.53549e+07
1.79976e+07
-5.71107e+07
1.89191e+07
-5.90554e+07
1.84076e+07
-6.14717e+07
1.56598e+07
-6.48657e+07
9.73467e+06
-7.0171e+07
-501123
-7.93977e+07
-1.64908e+07
-9.73264e+07
-3.71558e+07
-1.58032e+08
-3.31079e+07
-2.20238e+08
-2.21015e+07
-2.37819e+08
-4.62796e+06
-2.71444e+08
2.01389e+07
-3.16267e+08
5.2115e+07
-3.72257e+08
9.4012e+07
-4.38871e+08
1.42555e+08
-4.90213e+08
1.97597e+08
-5.43748e+08
2.60273e+08
-5.98149e+08
3.30082e+08
-6.486e+08
4.04287e+08
-6.89448e+08
4.78336e+08
-7.13018e+08
5.46967e+08
-7.12851e+08
6.07196e+08
-6.88561e+08
6.71054e+08
-6.64622e+08
7.43704e+08
-5.61539e+08
8.2016e+08
-4.31599e+08
8.98137e+08
-3.55621e+08
9.76762e+08
-3.13933e+08
1.05512e+09
-2.87971e+08
1.13206e+09
-2.67471e+08
1.20657e+09
-2.4821e+08
1.27772e+09
-2.28378e+08
1.34471e+09
-2.06843e+08
1.40686e+09
-1.82706e+08
1.46348e+09
-1.55252e+08
1.51401e+09
-1.24155e+08
1.55805e+09
-8.93842e+07
1.59556e+09
-5.13715e+07
1.62699e+09
-1.09877e+07
1.65292e+09
3.03695e+07
1.67354e+09
7.06306e+07
1.68762e+09
1.07177e+08
1.69205e+09
1.36831e+08
1.68253e+09
1.56206e+08
1.65613e+09
1.63078e+08
1.61378e+09
1.57537e+08
1.56056e+09
1.42132e+08
1.50373e+09
1.19996e+08
1.45014e+09
9.36704e+07
1.41e+09
6.15497e+07
1.74598e+07
8.95777e+06
-180932
-7.01799e+06
1.17109e+07
-1.66556e+06
-6.22863e+07
1.44714e+07
-1.64806e+06
-6.39745e+07
1.69738e+07
-1.68996e+06
-6.58328e+07
1.88918e+07
-1.78934e+06
-6.76492e+07
1.98276e+07
-1.94067e+06
-6.95426e+07
1.91904e+07
-2.15725e+06
-7.17069e+07
1.61196e+07
-2.46805e+06
-7.44961e+07
9.51251e+06
-2.89348e+06
-7.85751e+07
-1.87208e+06
-3.42224e+06
-8.53056e+07
-1.98531e+07
-4.03335e+06
-9.77375e+07
-4.87931e+07
-4.5159e+06
-1.43127e+08
-5.44044e+07
-3.72006e+06
-2.25866e+08
-5.07618e+07
-2.79826e+06
-2.50479e+08
-4.27967e+07
-2.91391e+06
-2.90325e+08
-2.90903e+07
-2.73388e+06
-3.40568e+08
-1.05758e+07
-2.96735e+06
-4.03207e+08
1.58413e+07
-3.01451e+06
-4.76803e+08
5.5989e+07
-3.0179e+06
-5.4375e+08
1.0262e+08
-2.64768e+06
-6.01762e+08
1.58497e+08
-2.17057e+06
-6.6426e+08
2.23201e+08
-1.51603e+06
-7.21532e+08
2.96642e+08
-594305
-7.69835e+08
3.72118e+08
127520
-7.96241e+08
4.41909e+08
1.0892e+06
-7.91551e+08
4.96774e+08
1.848e+06
-7.54232e+08
5.49243e+08
2.46245e+06
-7.28628e+08
6.05463e+08
1.89057e+06
-6.27483e+08
6.66596e+08
713261
-4.97725e+08
7.33385e+08
419494
-4.2501e+08
8.05557e+08
66036.7
-3.8743e+08
8.82113e+08
-483691
-3.64863e+08
9.61182e+08
-1.09455e+06
-3.46215e+08
1.04075e+09
-1.53929e+06
-3.27125e+08
1.11894e+09
-1.79208e+06
-3.06012e+08
1.1943e+09
-1.85937e+06
-2.81901e+08
1.26558e+09
-1.84335e+06
-2.54011e+08
1.33182e+09
-1.74739e+06
-2.21661e+08
1.39209e+09
-1.63075e+06
-1.84456e+08
1.44589e+09
-1.44095e+06
-1.42409e+08
1.49294e+09
-1.18809e+06
-9.59302e+07
1.53355e+09
-800207
-4.60248e+07
1.56827e+09
-324194
5.63242e+06
1.59728e+09
189020
5.6649e+07
1.6191e+09
570409
1.03811e+08
1.62977e+09
720142
1.43317e+08
1.6232e+09
558095
1.70867e+08
1.59442e+09
186995
1.83268e+08
1.54304e+09
-266748
1.79819e+08
1.47536e+09
-958995
1.63147e+08
1.4039e+09
-2.79032e+06
1.37095e+08
1.34416e+09
-6.99205e+06
1.06005e+08
1.31009e+09
-1.12618e+07
6.91941e+07
-6.44981e+06
2.06195e+07
8.96924e+06
-6.99645e+06
1.18203e+07
-6.24397e+07
1.45379e+07
-6.4296e+07
1.70155e+07
-6.62588e+07
1.89252e+07
-6.81751e+07
1.98504e+07
-7.0194e+07
1.91838e+07
-7.25272e+07
1.6066e+07
-7.55564e+07
9.40652e+06
-8.00061e+07
-2.09383e+06
-8.73903e+07
-2.07135e+07
-1.0122e+08
-5.06601e+07
-1.5173e+08
-5.59908e+07
-2.34427e+08
-5.25032e+07
-2.57856e+08
-4.35298e+07
-2.96843e+08
-2.95017e+07
-3.47782e+08
-1.00792e+07
-4.10147e+08
1.68107e+07
-4.85258e+08
5.79821e+07
-5.49529e+08
1.05718e+08
-6.07577e+08
1.6232e+08
-6.67762e+08
2.28278e+08
-7.24624e+08
3.02163e+08
-7.70263e+08
3.7929e+08
-7.95091e+08
4.51283e+08
-7.88304e+08
5.09592e+08
-7.49476e+08
5.66825e+08
-7.23809e+08
6.2685e+08
-6.23777e+08
6.90162e+08
-4.9767e+08
7.58792e+08
-4.26924e+08
8.32374e+08
-3.90344e+08
9.09422e+08
-3.68383e+08
9.88071e+08
-3.50146e+08
1.06652e+09
-3.31254e+08
1.14333e+09
-3.10127e+08
1.21723e+09
-2.85824e+08
1.28715e+09
-2.57608e+08
1.35206e+09
-2.24834e+08
1.41106e+09
-1.87136e+08
1.46348e+09
-1.44559e+08
1.50898e+09
-9.75433e+07
1.54758e+09
-4.71553e+07
1.57953e+09
4.86315e+06
1.6045e+09
5.60267e+07
1.62095e+09
1.0303e+08
1.6256e+09
1.4204e+08
1.61453e+09
1.68957e+08
1.58547e+09
1.81002e+08
1.54003e+09
1.77919e+08
1.48376e+09
1.6247e+08
1.42418e+09
1.38052e+08
1.36867e+09
1.08129e+08
1.32677e+09
7.06694e+07
2.08059e+07
9.27527e+06
-158177
-8.17513e+06
1.21482e+07
-1.45562e+06
-7.26565e+07
1.50377e+07
-1.55575e+06
-7.46715e+07
1.767e+07
-1.63347e+06
-7.67203e+07
1.96835e+07
-1.73712e+06
-7.86331e+07
2.06538e+07
-1.88293e+06
-8.05e+07
1.99737e+07
-2.08692e+06
-8.24224e+07
1.67535e+07
-2.37294e+06
-8.4586e+07
9.84448e+06
-2.75711e+06
-8.73478e+07
-2.04895e+06
-3.19487e+06
-9.15168e+07
-2.10634e+07
-3.65466e+06
-9.9027e+07
-5.6243e+07
-4.14778e+06
-1.29348e+08
-7.63925e+07
-3.75413e+06
-2.23173e+08
-7.92943e+07
-2.59275e+06
-2.62138e+08
-7.87351e+07
-2.45197e+06
-3.05868e+08
-7.43402e+07
-2.44283e+06
-3.61935e+08
-6.66507e+07
-2.80148e+06
-4.29609e+08
-5.29097e+07
-2.58858e+06
-5.09927e+08
-2.27744e+07
-3.00908e+06
-5.93639e+08
2.01988e+07
-2.35862e+06
-6.61741e+08
7.21299e+07
-2.35733e+06
-7.3173e+08
1.37522e+08
-1.48378e+06
-7.9892e+08
2.14224e+08
-1.08e+06
-8.56621e+08
2.97647e+08
-505.02
-8.8731e+08
3.73783e+08
768072
-8.754e+08
4.25094e+08
1.88378e+06
-8.1389e+08
4.68262e+08
2.58526e+06
-7.81398e+08
5.11765e+08
2.21365e+06
-6.80066e+08
5.61699e+08
1.21411e+06
-5.54875e+08
6.21024e+08
1.03387e+06
-4.90598e+08
6.89395e+08
738308
-4.6123e+08
7.65238e+08
97057.9
-4.45173e+08
8.46204e+08
-696023
-4.30744e+08
9.29763e+08
-1.373e+06
-4.1358e+08
1.0136e+09
-1.8178e+06
-3.92388e+08
1.09581e+09
-2.0461e+06
-3.66491e+08
1.17475e+09
-2.12815e+06
-3.35251e+08
1.24903e+09
-2.11241e+06
-2.98054e+08
1.31742e+09
-2.03633e+06
-2.54528e+08
1.37889e+09
-1.89214e+06
-2.04556e+08
1.43284e+09
-1.67035e+06
-1.48709e+08
1.47909e+09
-1.33869e+06
-8.80642e+07
1.51769e+09
-940352
-2.46047e+07
1.54824e+09
-521343
3.88503e+07
1.56875e+09
-231770
9.84339e+07
1.57508e+09
-124683
1.49593e+08
1.56184e+09
-299410
1.86874e+08
1.5254e+09
-662413
2.06211e+08
1.46665e+09
-1.13903e+06
2.06262e+08
1.39261e+09
-1.83132e+06
1.89881e+08
1.31604e+09
-3.54522e+06
1.61033e+08
1.25209e+09
-7.21827e+06
1.25039e+08
1.21467e+09
-1.09096e+07
8.20476e+07
-5.86802e+06
2.556e+07
9.27547e+06
-8.19808e+06
1.21283e+07
-7.31934e+07
1.50563e+07
-7.51161e+07
1.76919e+07
-7.71776e+07
1.97003e+07
-7.91609e+07
2.06567e+07
-8.11349e+07
1.99436e+07
-8.32036e+07
1.66692e+07
-8.5567e+07
9.72098e+06
-8.86274e+07
-2.2854e+06
-9.33137e+07
-2.18857e+07
-1.01947e+08
-5.8532e+07
-1.3697e+08
-7.84347e+07
-2.33539e+08
-8.16063e+07
-2.70005e+08
-8.07161e+07
-3.1338e+08
-7.61726e+07
-3.69358e+08
-6.74603e+07
-4.37186e+08
-5.39176e+07
-5.18018e+08
-2.21904e+07
-6.00372e+08
2.10452e+07
-6.67853e+08
7.46487e+07
-7.35865e+08
1.4056e+08
-8.0202e+08
2.18749e+08
-8.56842e+08
3.03605e+08
-8.85768e+08
3.81857e+08
-8.70459e+08
4.36909e+08
-8.07171e+08
4.85241e+08
-7.74252e+08
5.33339e+08
-6.74164e+08
5.86394e+08
-5.53396e+08
6.48789e+08
-4.91615e+08
7.19819e+08
-4.63546e+08
7.97174e+08
-4.48291e+08
8.78258e+08
-4.34439e+08
9.60796e+08
-4.17648e+08
1.04294e+09
-3.96586e+08
1.12317e+09
-3.70616e+08
1.20008e+09
-3.39116e+08
1.27237e+09
-3.01532e+08
1.33885e+09
-2.57497e+08
1.39841e+09
-2.06949e+08
1.45034e+09
-1.50469e+08
1.49424e+09
-8.92326e+07
1.52978e+09
-2.52519e+07
1.55612e+09
3.84807e+07
1.57127e+09
9.80457e+07
1.57191e+09
1.48748e+08
1.55472e+09
1.85417e+08
1.51837e+09
2.04337e+08
1.46539e+09
2.04684e+08
1.40179e+09
1.89383e+08
1.33584e+09
1.6208e+08
1.27516e+09
1.26939e+08
1.2306e+09
8.32928e+07
2.49637e+07
9.04246e+06
-180892
-9.64267e+06
1.22672e+07
-1.61979e+06
-8.36965e+07
1.53726e+07
-1.57602e+06
-8.55049e+07
1.8124e+07
-1.60219e+06
-8.7553e+07
2.02251e+07
-1.68669e+06
-8.9476e+07
2.12843e+07
-1.81834e+06
-9.12415e+07
2.07333e+07
-2.00198e+06
-9.28262e+07
1.77339e+07
-2.25249e+06
-9.42137e+07
1.12193e+07
-2.57404e+06
-9.54686e+07
-95684.4
-2.93359e+06
-9.69293e+07
-1.81501e+07
-3.31006e+06
-9.9649e+07
-5.28768e+07
-3.69695e+06
-1.14534e+08
-9.04545e+07
-3.73943e+06
-2.02792e+08
-1.01865e+08
-2.6189e+06
-2.65386e+08
-1.08662e+08
-2.3164e+06
-3.13824e+08
-1.12872e+08
-2.56734e+06
-3.75203e+08
-1.13255e+08
-2.5734e+06
-4.47665e+08
-1.1054e+08
-2.79295e+06
-5.33533e+08
-9.40468e+07
-2.85237e+06
-6.30026e+08
-5.67766e+07
-2.71677e+06
-7.18892e+08
-5.97862e+06
-2.16225e+06
-7.98404e+08
6.05734e+07
-1.65994e+06
-8.79694e+08
1.44067e+08
-1.06227e+06
-9.50505e+08
2.39227e+08
-228731
-9.91127e+08
3.25216e+08
752115
-9.68686e+08
3.71388e+08
2.04756e+06
-8.68348e+08
4.00763e+08
2.87582e+06
-8.20356e+08
4.29047e+08
2.77689e+06
-7.17738e+08
4.69673e+08
2.18344e+06
-6.03345e+08
5.24645e+08
2.28582e+06
-5.52638e+08
5.9203e+08
2.15217e+06
-5.34772e+08
6.6915e+08
1.47477e+06
-5.27235e+08
7.53251e+08
495113
-5.1845e+08
8.41553e+08
-456077
-5.04396e+08
9.31559e+08
-1.16507e+06
-4.84131e+08
1.02106e+09
-1.62907e+06
-4.57281e+08
1.10812e+09
-1.88471e+06
-4.23278e+08
1.19093e+09
-2.0101e+06
-3.81542e+08
1.26781e+09
-2.02281e+06
-3.31545e+08
1.33732e+09
-1.95375e+06
-2.73209e+08
1.39825e+09
-1.77203e+06
-2.0693e+08
1.44979e+09
-1.49981e+06
-1.33976e+08
1.49135e+09
-1.14175e+06
-5.65629e+07
1.52171e+09
-801304
2.19836e+07
1.53841e+09
-534175
9.70721e+07
1.53682e+09
-462752
1.63263e+08
1.51237e+09
-631039
2.13393e+08
1.46305e+09
-1.07687e+06
2.41444e+08
1.39133e+09
-1.72399e+06
2.45601e+08
1.30547e+09
-2.69816e+06
2.2847e+08
1.21893e+09
-4.53329e+06
1.94615e+08
1.14694e+09
-8.00982e+06
1.51008e+08
1.10328e+09
-1.09166e+07
9.88103e+07
-5.97557e+06
3.1719e+07
9.05327e+06
-9.61777e+06
1.23829e+07
-8.38365e+07
1.54282e+07
-8.58379e+07
1.81421e+07
-8.79918e+07
2.02225e+07
-9.0005e+07
2.12612e+07
-9.18777e+07
2.06773e+07
-9.36035e+07
1.76369e+07
-9.51815e+07
1.10888e+07
-9.67143e+07
-325935
-9.86191e+07
-1.89135e+07
-1.02165e+08
-5.55408e+07
-1.20411e+08
-9.3299e+07
-2.14263e+08
-1.04778e+08
-2.73788e+08
-1.11913e+08
-3.21473e+08
-1.15655e+08
-3.82144e+08
-1.16082e+08
-4.54856e+08
-1.12754e+08
-5.40314e+08
-9.57432e+07
-6.37034e+08
-5.70004e+07
-7.24318e+08
-5.0842e+06
-8.02925e+08
6.26924e+07
-8.81838e+08
1.47621e+08
-9.51109e+08
2.43952e+08
-9.88388e+08
3.32359e+08
-9.63001e+08
3.82053e+08
-8.59627e+08
4.16635e+08
-8.11092e+08
4.50229e+08
-7.09833e+08
4.95365e+08
-6.00383e+08
5.55427e+08
-5.52696e+08
6.27725e+08
-5.36436e+08
7.08426e+08
-5.29869e+08
7.94163e+08
-5.21825e+08
8.82327e+08
-5.08321e+08
9.70908e+08
-4.88389e+08
1.05825e+09
-4.61655e+08
1.14275e+09
-4.27578e+08
1.22288e+09
-3.85605e+08
1.29702e+09
-3.35241e+08
1.36379e+09
-2.7643e+08
1.42187e+09
-2.09617e+08
1.47027e+09
-1.36114e+08
1.50796e+09
-5.82175e+07
1.53343e+09
2.06333e+07
1.54422e+09
9.56926e+07
1.53676e+09
1.61473e+08
1.50831e+09
2.10998e+08
1.45896e+09
2.38758e+08
1.3923e+09
2.43383e+08
1.31559e+09
2.27699e+08
1.23805e+09
1.95743e+08
1.16887e+09
1.53458e+08
1.11849e+09
1.00282e+08
3.17175e+07
9.36715e+06
-154393
-1.08116e+07
1.24763e+07
-1.38449e+06
-9.41646e+07
1.55023e+07
-1.4891e+06
-9.62172e+07
1.82316e+07
-1.56082e+06
-9.83758e+07
2.03661e+07
-1.65232e+06
-1.00346e+08
2.15626e+07
-1.77971e+06
-1.02063e+08
2.13346e+07
-1.95283e+06
-1.03401e+08
1.89653e+07
-2.18305e+06
-1.04152e+08
1.35032e+07
-2.47039e+06
-1.04095e+08
3.76613e+06
-2.7881e+06
-1.03006e+08
-1.20555e+07
-3.06589e+06
-1.00897e+08
-4.16835e+07
-3.22616e+06
-1.0258e+08
-9.22768e+07
-3.36869e+06
-1.68561e+08
-1.14858e+08
-2.63408e+06
-2.56685e+08
-1.2996e+08
-2.22074e+06
-3.12246e+08
-1.41513e+08
-2.20849e+06
-3.78839e+08
-1.49708e+08
-2.22259e+06
-4.56737e+08
-1.54412e+08
-2.42928e+06
-5.47512e+08
-1.51246e+08
-2.38677e+06
-6.52515e+08
-1.25443e+08
-2.43126e+06
-7.64027e+08
-7.61589e+07
-1.68705e+06
-8.64796e+08
-9.53116e+06
-1.53049e+06
-9.61637e+08
8.11476e+07
-802028
-1.05315e+09
1.90697e+08
-199190
-1.11051e+09
2.9035e+08
885087
-1.07701e+09
3.25282e+08
2.22158e+06
-9.13142e+08
3.3303e+08
3.2924e+06
-8.39439e+08
3.41803e+08
3.54483e+06
-7.37571e+08
3.7643e+08
3.50875e+06
-6.47684e+08
4.31255e+08
4.10511e+06
-6.1667e+08
5.01418e+08
4.27372e+06
-6.13448e+08
5.8259e+08
3.64583e+06
-6.157e+08
6.71662e+08
2.46922e+06
-6.13333e+08
7.66106e+08
1.18557e+06
-6.03264e+08
8.63571e+08
81099
-5.84969e+08
9.61807e+08
-758033
-5.58156e+08
1.05861e+09
-1.36961e+06
-5.22223e+08
1.15175e+09
-1.79955e+06
-4.76386e+08
1.23907e+09
-2.09623e+06
-4.20005e+08
1.31844e+09
-2.2675e+06
-3.52748e+08
1.38798e+09
-2.31845e+06
-2.74943e+08
1.44603e+09
-2.25392e+06
-1.87803e+08
1.49089e+09
-2.09561e+06
-9.36587e+07
1.52037e+09
-1.91482e+06
3.64468e+06
1.53064e+09
-1.73784e+06
9.91598e+07
1.51728e+09
-1.68725e+06
1.85406e+08
1.47691e+09
-1.83287e+06
2.52873e+08
1.40872e+09
-2.30919e+06
2.93712e+08
1.3172e+09
-3.07464e+06
3.04564e+08
1.21274e+09
-4.17074e+06
2.8705e+08
1.11044e+09
-5.95474e+06
2.46046e+08
1.02592e+09
-8.77424e+06
1.90992e+08
9.73248e+08
-1.0898e+07
1.25422e+08
-5.40534e+06
4.2837e+07
9.36701e+06
-1.08452e+07
1.24311e+07
-9.47759e+07
1.54982e+07
-9.66953e+07
1.82252e+07
-9.88425e+07
2.0345e+07
-1.0086e+08
2.15209e+07
-1.02654e+08
2.12627e+07
-1.04096e+08
1.88593e+07
-1.0499e+08
1.33697e+07
-1.05129e+08
3.6094e+06
-1.0435e+08
-1.24837e+07
-1.02788e+08
-4.37299e+07
-1.06626e+08
-9.54474e+07
-1.79778e+08
-1.1805e+08
-2.66005e+08
-1.33519e+08
-3.20105e+08
-1.45098e+08
-3.85884e+08
-1.53215e+08
-4.63368e+08
-1.57452e+08
-5.53827e+08
-1.54229e+08
-6.58707e+08
-1.26911e+08
-7.69698e+08
-7.69732e+07
-8.68811e+08
-8.70349e+06
-9.63348e+08
8.30789e+07
-1.05285e+09
1.94619e+08
-1.10705e+09
2.96684e+08
-1.06997e+09
3.36133e+08
-9.02297e+08
3.50291e+08
-8.27462e+08
3.65636e+08
-7.26538e+08
4.06291e+08
-6.41341e+08
4.68699e+08
-6.13939e+08
5.46858e+08
-6.12575e+08
6.34653e+08
-6.1581e+08
7.27913e+08
-6.1414e+08
8.23981e+08
-6.0463e+08
9.20995e+08
-5.86744e+08
1.01729e+09
-5.60191e+08
1.1112e+09
-5.24366e+08
1.20083e+09
-4.78513e+08
1.28429e+09
-4.21998e+08
1.35956e+09
-3.54513e+08