/*--------------------------------*- C++ -*----------------------------------*\
| =========                 |                                                 |
| \\      /  F ield         | OpenFOAM: The Open Source CFD Toolbox           |
|  \\    /   O peration     | Version:  4.1                                   |
|   \\  /    A nd           | Web:      www.OpenFOAM.org                      |
|    \\/     M anipulation  |                                                 |
\*---------------------------------------------------------------------------*/
FoamFile
{
    version     2.0;
    format      ascii;
    class       surfaceScalarField;
    location    "44";
    object      phi;
}
// * * * * * * * * * * * * * * * * * * * * * * * * * * * * * * * * * * * * * //

dimensions      [0 3 -1 0 0 0 0];

internalField   nonuniform List<scalar> 
11516
(
-4.74917e+10
-1.79494e+08
-1.27698e+09
-4.65651e+10
-1.10127e+08
-8.72538e+08
-4.59715e+10
-9.62228e+07
-5.39356e+08
-4.50738e+10
-2.36804e+08
-6.88798e+08
-4.45744e+10
-5.82977e+07
-4.58747e+08
-4.41686e+10
-9.34353e+07
-3.20382e+08
-4.37362e+10
-1.31797e+08
-3.01776e+08
-4.33805e+10
-1.26028e+08
-2.25645e+08
-4.30516e+10
-1.30243e+08
-1.90472e+08
-4.27487e+10
-1.30864e+08
-1.60209e+08
-4.2465e+10
-1.31476e+08
-1.37695e+08
-4.21902e+10
-1.33403e+08
-1.24504e+08
-4.19137e+10
-1.37828e+08
-1.20708e+08
-4.16281e+10
-1.43109e+08
-1.22871e+08
-4.13244e+10
-1.47558e+08
-1.32302e+08
-4.0997e+10
-1.51977e+08
-1.46915e+08
-4.06418e+10
-1.5645e+08
-1.63529e+08
-4.02555e+10
-1.62158e+08
-1.85496e+08
-3.98323e+10
-1.68065e+08
-2.0999e+08
-3.93681e+10
-1.73964e+08
-2.3865e+08
-3.88591e+10
-1.79928e+08
-2.7011e+08
-3.83099e+10
-1.86637e+08
-2.99629e+08
-3.77208e+10
-1.93411e+08
-3.28981e+08
-3.71004e+10
-2.00084e+08
-3.5e+08
-3.6453e+10
-2.06147e+08
-3.66429e+08
-3.57895e+10
-2.11276e+08
-3.71841e+08
-3.51151e+10
-2.15193e+08
-3.72154e+08
-3.44404e+10
-2.17651e+08
-3.6265e+08
-3.37703e+10
-2.18393e+08
-3.4936e+08
-3.31111e+10
-2.17224e+08
-3.31187e+08
-3.24672e+10
-2.13959e+08
-3.09761e+08
-3.18398e+10
-2.08551e+08
-2.88248e+08
-3.12335e+10
-2.00794e+08
-2.63222e+08
-3.06487e+10
-1.90233e+08
-2.3926e+08
-3.00848e+10
-1.76604e+08
-2.17414e+08
-2.95429e+10
-1.59967e+08
-1.96294e+08
-2.90194e+10
-1.41576e+08
-1.7884e+08
-2.85117e+10
-1.21752e+08
-1.63306e+08
-2.80145e+10
-1.00293e+08
-1.5217e+08
-2.75224e+10
-7.73109e+07
-1.43736e+08
-2.70288e+10
-5.28518e+07
-1.3841e+08
-2.65242e+10
-2.64588e+07
-1.36577e+08
-2.59983e+10
4.35416e+06
-1.39584e+08
-2.54399e+10
4.43719e+07
-1.49994e+08
-2.4843e+10
9.82988e+07
-1.72007e+08
-2.42173e+10
1.70217e+08
-2.11674e+08
-2.35859e+10
2.62519e+08
-2.9474e+08
-2.29766e+10
3.7637e+08
-4.3344e+08
-2.25065e+10
5.0571e+08
-5.69664e+08
-2.24245e+10
6.63783e+08
-3.04328e+08
-2.36532e+10
1.17762e+09
4.57938e+08
-2.65464e+10
3.13296e+09
5.25431e+08
-2.32987e+10
8.32864e+09
-1.10635e+10
3.55251e+09
-1.75886e+10
-5.32381e+10
-1.06611e+09
-5.25512e+10
-8.26372e+08
-5.19997e+10
-6.70765e+08
-5.16918e+10
-5.61437e+08
-5.12104e+10
-5.49409e+08
-5.08828e+10
-4.25943e+08
-5.06128e+10
-4.0325e+08
-5.0387e+10
-3.50598e+08
-5.01821e+10
-3.31688e+08
-4.99973e+10
-3.10246e+08
-4.98249e+10
-2.96755e+08
-4.96597e+10
-2.90171e+08
-4.94934e+10
-2.94784e+08
-4.93208e+10
-3.04962e+08
-4.91336e+10
-3.218e+08
-4.89263e+10
-3.43024e+08
-4.8698e+10
-3.66421e+08
-4.8444e+10
-3.95007e+08
-4.81621e+10
-4.25742e+08
-4.78481e+10
-4.59657e+08
-4.75004e+10
-4.96411e+08
-4.71231e+10
-5.30106e+08
-4.67166e+10
-5.64112e+08
-4.6289e+10
-5.89464e+08
-4.58431e+10
-6.11184e+08
-4.53882e+10
-6.22067e+08
-4.49267e+10
-6.28897e+08
-4.44667e+10
-6.2592e+08
-4.40095e+10
-6.19693e+08
-4.35578e+10
-6.08383e+08
-4.31128e+10
-5.93515e+08
-4.26711e+10
-5.79347e+08
-4.22325e+10
-5.62424e+08
-4.17921e+10
-5.46784e+08
-4.13453e+10
-5.32149e+08
-4.08876e+10
-5.18376e+08
-4.04115e+10
-5.09358e+08
-3.99133e+10
-5.01635e+08
-3.93846e+10
-4.98964e+08
-3.88185e+10
-4.99667e+08
-3.8207e+10
-5.03645e+08
-3.75404e+10
-5.1139e+08
-3.68082e+10
-5.19015e+08
-3.59944e+10
-5.2745e+08
-3.50805e+10
-5.36962e+08
-3.40571e+10
-5.48318e+08
-3.29162e+10
-5.71891e+08
-3.16774e+10
-6.00187e+08
-3.04367e+10
-5.29977e+08
-2.9752e+10
1.72301e+08
-3.02309e+10
1.93749e+09
-2.91275e+10
2.32876e+09
-9.68024e+09
-1.08925e+10
-1.29582e+10
-5.9233e+10
1.46405e+08
-1.71372e+09
-5.91974e+10
8.60349e+07
-1.01475e+09
-5.91011e+10
6.72798e+07
-7.25707e+08
-5.91306e+10
1.14747e+08
-7.92618e+08
-5.89789e+10
8.15463e+07
-7.04952e+08
-5.89027e+10
9.65208e+07
-5.02303e+08
-5.88634e+10
9.78003e+07
-4.4608e+08
-5.88048e+10
1.02063e+08
-3.91341e+08
-5.87509e+10
9.87185e+07
-3.46058e+08
-5.87059e+10
1.01884e+08
-3.0769e+08
-5.86599e+10
1.01539e+08
-2.8328e+08
-5.86118e+10
1.0099e+08
-2.69472e+08
-5.85615e+10
9.90056e+07
-2.65332e+08
-5.85074e+10
9.73082e+07
-2.67947e+08
-5.84509e+10
9.55109e+07
-2.78361e+08
-5.83903e+10
9.40309e+07
-2.92109e+08
-5.83236e+10
9.20791e+07
-3.12148e+08
-5.82503e+10
8.99592e+07
-3.36071e+08
-5.81702e+10
8.67871e+07
-3.62316e+08
-5.80837e+10
8.41434e+07
-3.90106e+08
-5.79936e+10
8.09931e+07
-4.18228e+08
-5.79012e+10
7.74959e+07
-4.42764e+08
-5.78126e+10
7.35309e+07
-4.61129e+08
-5.7729e+10
6.91897e+07
-4.69962e+08
-5.76605e+10
6.4565e+07
-4.63676e+08
-5.76072e+10
5.96722e+07
-4.45999e+08
-5.75778e+10
5.4528e+07
-4.13875e+08
-5.75726e+10
4.91058e+07
-3.71258e+08
-5.75981e+10
4.34407e+07
-3.1774e+08
-5.76547e+10
3.75097e+07
-2.58474e+08
-5.77462e+10
3.12638e+07
-1.916e+08
-5.78754e+10
2.44364e+07
-1.20603e+08
-5.8043e+10
1.6952e+07
-4.4152e+07
-5.82538e+10
9.2901e+06
3.66107e+07
-5.85094e+10
1.57962e+06
1.17772e+08
-5.88155e+10
-7.02436e+06
2.04814e+08
-5.91794e+10
-1.63156e+07
2.97216e+08
-5.96095e+10
-2.61608e+07
3.97128e+08
-6.01162e+10
-3.68039e+07
5.05508e+08
-6.07109e+10
-4.82095e+07
6.24975e+08
-6.14033e+10
-5.98069e+07
7.55108e+08
-6.22068e+10
-7.06225e+07
8.98684e+08
-6.31358e+10
-7.80405e+07
1.05689e+09
-6.42218e+10
-7.94927e+07
1.24226e+09
-6.5498e+10
-7.08806e+07
1.44914e+09
-6.70091e+10
-4.80455e+07
1.66475e+09
-6.88434e+10
-388281
1.87187e+09
-7.10928e+10
7.81907e+07
2.02216e+09
-7.37205e+10
2.05785e+08
2.04791e+09
-7.62303e+10
5.58794e+08
1.72126e+09
-7.86264e+10
1.84679e+09
1.21252e+09
-8.29009e+10
4.90049e+09
1.81945e+08
-1.10665e+11
1.30069e+10
4.09038e+09
1.16978e+10
9.47009e+09
-6.5284e+10
-1.28145e+09
-6.521e+10
-8.2861e+08
-6.51495e+10
-6.76409e+08
-6.51002e+10
-5.0558e+08
-6.50416e+10
-5.33718e+08
-6.49764e+10
-4.00369e+08
-6.4944e+10
-3.42372e+08
-6.48854e+10
-3.10226e+08
-6.48351e+10
-2.84852e+08
-6.47844e+10
-2.59171e+08
-6.47299e+10
-2.48159e+08
-6.46674e+10
-2.49036e+08
-6.45997e+10
-2.60069e+08
-6.4526e+10
-2.77878e+08
-6.44443e+10
-3.03685e+08
-6.43546e+10
-3.3378e+08
-6.42526e+10
-3.70339e+08
-6.41395e+10
-4.11352e+08
-6.4015e+10
-4.54768e+08
-6.38792e+10
-5.00392e+08
-6.37345e+10
-5.46804e+08
-6.35815e+10
-5.89745e+08
-6.34267e+10
-6.27353e+08
-6.32705e+10
-6.56341e+08
-6.31243e+10
-6.70824e+08
-6.29879e+10
-6.74813e+08
-6.28718e+10
-6.6447e+08
-6.27772e+10
-6.43387e+08
-6.27128e+10
-6.10403e+08
-6.26805e+10
-5.70499e+08
-6.26864e+10
-5.21107e+08
-6.27367e+10
-4.6651e+08
-6.28347e+10
-4.05967e+08
-6.29889e+10
-3.38162e+08
-6.32056e+10
-2.64844e+08
-6.34942e+10
-1.83323e+08
-6.3867e+10
-9.4837e+07
-6.43349e+10
3.5177e+06
-6.49128e+10
1.1172e+08
-6.56156e+10
2.32107e+08
-6.64554e+10
3.6342e+08
-6.7446e+10
5.09177e+08
-6.85937e+10
6.69279e+08
-6.99036e+10
8.46417e+08
-7.1377e+10
1.03704e+09
-7.3009e+10
1.22984e+09
-7.47871e+10
1.39786e+09
-7.66509e+10
1.4989e+09
-7.83777e+10
1.49673e+09
-7.86859e+10
1.09335e+09
-7.46973e+10
-1.08629e+08
-6.47994e+10
-2.48892e+09
-6.50286e+10
2.37759e+09
8.04476e+09
-5.06371e+10
1.12672e+07
-2.73549e+09
-4.99644e+10
1.3084e+08
-1.82434e+09
-4.92803e+10
7.34759e+07
-1.49158e+09
-4.90908e+10
1.4275e+08
-1.13496e+09
-4.87544e+10
6.28324e+07
-1.11474e+09
-4.84621e+10
1.03713e+08
-9.09266e+08
-4.82925e+10
1.18469e+08
-7.43581e+08
-4.81541e+10
1.23442e+08
-6.60647e+08
-4.80152e+10
1.17696e+08
-6.07964e+08
-4.78768e+10
1.19912e+08
-5.69098e+08
-4.77346e+10
1.19237e+08
-5.45576e+08
-4.7592e+10
1.1952e+08
-5.30887e+08
-4.74455e+10
1.1819e+08
-5.29001e+08
-4.72912e+10
1.16763e+08
-5.38984e+08
-4.71301e+10
1.17196e+08
-5.5884e+08
-4.69552e+10
1.177e+08
-5.86337e+08
-4.67666e+10
1.18385e+08
-6.22968e+08
-4.65577e+10
1.18858e+08
-6.6565e+08
-4.63239e+10
1.18868e+08
-7.17375e+08
-4.60611e+10
1.20086e+08
-7.7133e+08
-4.57704e+10
1.21513e+08
-8.25844e+08
-4.54486e+10
1.23877e+08
-8.78508e+08
-4.51016e+10
1.26629e+08
-9.20741e+08
-4.47359e+10
1.29994e+08
-9.48372e+08
-4.43576e+10
1.33969e+08
-9.56775e+08
-4.39768e+10
1.38482e+08
-9.45103e+08
-4.35996e+10
1.43495e+08
-9.13703e+08
-4.32313e+10
1.48804e+08
-8.66825e+08
-4.28747e+10
1.54191e+08
-8.06166e+08
-4.25344e+10
1.59398e+08
-7.34866e+08
-4.22081e+10
1.64503e+08
-6.57723e+08
-4.1898e+10
1.69799e+08
-5.73995e+08
-4.16e+10
1.75127e+08
-4.88272e+08
-4.13119e+10
1.7974e+08
-3.99084e+08
-4.10363e+10
1.83402e+08
-3.05685e+08
-4.0768e+10
1.86608e+08
-2.10593e+08
-4.05058e+10
1.90174e+08
-1.11436e+08
-4.02482e+10
1.93851e+08
-5.95145e+06
-3.99936e+10
1.98276e+08
1.06626e+08
-3.97352e+10
2.03548e+08
2.23698e+08
-3.94684e+10
2.10395e+08
3.48191e+08
-3.91826e+10
2.21975e+08
4.74791e+08
-3.88676e+10
2.42066e+08
6.04372e+08
-3.84904e+10
2.69158e+08
7.29395e+08
-3.80178e+10
3.07267e+08
8.37002e+08
-3.74437e+10
3.63285e+08
9.19035e+08
-3.6789e+10
4.37562e+08
9.54456e+08
-3.61087e+10
5.28217e+08
9.0248e+08
-3.5523e+10
6.87533e+08
6.83309e+08
-3.52887e+10
9.70695e+08
2.68542e+08
-3.57832e+10
1.90605e+09
-7.16571e+08
-3.65055e+10
3.30706e+09
-2.95642e+09
-3.01113e+10
8.52626e+09
-1.12696e+10
4.14814e+09
-4.38243e+09
-5.50921e+10
-2.05906e+09
-5.45193e+10
-1.27273e+09
-5.41239e+10
-1.00367e+09
-5.38004e+10
-6.93718e+08
-5.36684e+10
-6.114e+08
-5.3517e+10
-4.56256e+08
-5.34315e+10
-3.16159e+08
-5.33633e+10
-2.60162e+08
-5.33162e+10
-2.1801e+08
-5.32677e+10
-1.90027e+08
-5.32232e+10
-1.74491e+08
-5.31812e+10
-1.71963e+08
-5.314e+10
-1.83714e+08
-5.30946e+10
-2.07982e+08
-5.3043e+10
-2.40426e+08
-5.29811e+10
-2.8149e+08
-5.29049e+10
-3.31857e+08
-5.28122e+10
-3.8959e+08
-5.26968e+10
-4.54886e+08
-5.25564e+10
-5.2335e+08
-5.23904e+10
-5.91599e+08
-5.21956e+10
-6.5876e+08
-5.19768e+10
-7.15316e+08
-5.17395e+10
-7.57931e+08
-5.14881e+10
-7.81992e+08
-5.12316e+10
-7.86564e+08
-5.09751e+10
-7.71593e+08
-5.07229e+10
-7.41229e+08
-5.04773e+10
-6.96708e+08
-5.02426e+10
-6.4097e+08
-5.00154e+10
-5.78976e+08
-4.97978e+10
-5.09109e+08
-4.95855e+10
-4.37377e+08
-4.93749e+10
-3.6238e+08
-4.91663e+10
-2.82103e+08
-4.89537e+10
-2.00014e+08
-4.87339e+10
-1.13706e+08
-4.85027e+10
-2.11141e+07
-4.82556e+10
7.77126e+07
-4.79837e+10
1.81449e+08
-4.76825e+10
2.94586e+08
-4.73352e+10
4.12707e+08
-4.69228e+10
5.38026e+08
-4.64151e+10
6.61139e+08
-4.57814e+10
7.78167e+08
-4.49977e+10
8.80159e+08
-4.4068e+10
9.53115e+08
-4.30371e+10
9.79116e+08
-4.18919e+10
9.1635e+08
-4.09231e+10
8.61195e+08
-3.98674e+10
4.18667e+08
-3.87274e+10
-7.26161e+08
-1.97238e+10
-8.45174e+09
-5.07368e+09
-5.43284e+10
-2.51185e+08
-2.91894e+09
-5.40742e+10
-1.57497e+08
-1.91491e+09
-5.37149e+10
-1.42875e+08
-1.71106e+09
-5.3452e+10
-1.59023e+08
-1.24854e+09
-5.33239e+10
-1.65312e+08
-1.09096e+09
-5.31737e+10
-1.39318e+08
-9.33274e+08
-5.3034e+10
-1.11769e+08
-7.82532e+08
-5.29268e+10
-1.09077e+08
-6.67303e+08
-5.28455e+10
-1.15502e+08
-5.80632e+08
-5.27796e+10
-1.19408e+08
-5.21221e+08
-5.27177e+10
-1.25712e+08
-4.8628e+08
-5.26574e+10
-1.30718e+08
-4.64566e+08
-5.25942e+10
-1.36009e+08
-4.60296e+08
-5.25279e+10
-1.4192e+08
-4.70877e+08
-5.24523e+10
-1.48207e+08
-4.95524e+08
-5.23698e+10
-1.55895e+08
-5.27781e+08
-5.2276e+10
-1.63562e+08
-5.69285e+08
-5.21672e+10
-1.72937e+08
-6.2158e+08
-5.2042e+10
-1.82494e+08
-6.80885e+08
-5.18962e+10
-1.92654e+08
-7.46221e+08
-5.17273e+10
-2.02601e+08
-8.1182e+08
-5.15362e+10
-2.12354e+08
-8.74106e+08
-5.1326e+10
-2.21515e+08
-9.23175e+08
-5.11053e+10
-2.29669e+08
-9.51963e+08
-5.08826e+10
-2.36457e+08
-9.56885e+08
-5.06687e+10
-2.41524e+08
-9.34798e+08
-5.04697e+10
-2.44632e+08
-8.89454e+08
-5.02905e+10
-2.45952e+08
-8.25984e+08
-5.01335e+10
-2.45886e+08
-7.47612e+08
-4.99967e+10
-2.4465e+08
-6.61577e+08
-4.98816e+10
-2.4188e+08
-5.69497e+08
-4.97854e+10
-2.36853e+08
-4.752e+08
-4.97081e+10
-2.30307e+08
-3.80038e+08
-4.96456e+10
-2.22494e+08
-2.86286e+08
-4.95942e+10
-2.12574e+08
-1.93754e+08
-4.95538e+10
-2.02378e+08
-9.96283e+07
-4.9523e+10
-1.9047e+08
-4.74074e+06
-4.95015e+10
-1.76393e+08
9.4173e+07
-4.9491e+10
-1.60648e+08
1.99396e+08
-4.94941e+10
-1.42315e+08
3.09829e+08
-4.95173e+10
-1.2076e+08
4.3081e+08
-4.95678e+10
-9.42997e+07
5.58807e+08
-4.96465e+10
-6.40515e+07
6.89469e+08
-4.97648e+10
-2.80783e+07
8.25319e+08
-4.99451e+10
1.64874e+07
9.54841e+08
-5.02259e+10
7.08478e+07
1.069e+09
-5.06848e+10
1.37046e+08
1.15264e+09
-5.14492e+10
2.20636e+08
1.16963e+09
-5.26473e+10
3.38022e+08
1.01818e+09
-5.44179e+10
7.30382e+08
3.94871e+08
-5.71183e+10
1.89333e+09
-1.16141e+09
-6.10136e+10
4.75444e+09
-5.19216e+09
-6.76744e+10
1.15368e+10
-1.73598e+10
4.93628e+09
2.17959e+09
-5.84514e+10
-2.49757e+09
-5.83637e+10
-1.51676e+09
-5.82769e+10
-1.23623e+09
-5.81714e+10
-9.64772e+08
-5.8151e+10
-8.05004e+08
-5.81056e+10
-6.48594e+08
-5.80274e+10
-5.12426e+08
-5.79773e+10
-4.24291e+08
-5.79554e+10
-3.59301e+08
-5.79443e+10
-3.23597e+08
-5.79419e+10
-3.04969e+08
-5.79445e+10
-3.02074e+08
-5.79504e+10
-3.16307e+08
-5.79585e+10
-3.45482e+08
-5.79649e+10
-3.88641e+08
-5.79736e+10
-4.3708e+08
-5.79846e+10
-4.95231e+08
-5.79952e+10
-5.64225e+08
-5.80066e+10
-6.39315e+08
-5.80153e+10
-7.20388e+08
-5.80205e+10
-8.00971e+08
-5.80231e+10
-8.78264e+08
-5.80252e+10
-9.42245e+08
-5.80332e+10
-9.86197e+08
-5.80521e+10
-1.00696e+09
-5.8089e+10
-1.0005e+09
-5.81466e+10
-9.70328e+08
-5.8227e+10
-9.21208e+08
-5.83308e+10
-8.55782e+08
-5.84548e+10
-7.80947e+08
-5.85994e+10
-6.97858e+08
-5.8758e+10
-6.10626e+08
-5.89304e+10
-5.20093e+08
-5.91134e+10
-4.27801e+08
-5.9301e+10
-3.33748e+08
-5.94955e+10
-2.35359e+08
-5.96922e+10
-1.35641e+08
-5.98875e+10
-3.1099e+07
-6.00807e+10
8.05037e+07
-6.02698e+10
1.97865e+08
-6.04501e+10
3.23749e+08
-6.06197e+10
4.58929e+08
-6.07749e+10
6.03617e+08
-6.09189e+10
7.56355e+08
-6.10475e+10
9.04575e+08
-6.1166e+10
1.03854e+09
-6.12934e+10
1.14271e+09
-6.14341e+10
1.17046e+09
-6.15309e+10
1.03675e+09
-6.09107e+10
4.70194e+08
-5.84184e+10
-8.96143e+08
-4.96424e+10
-5.60376e+09
-3.27146e+10
-1.43197e+10
-3.71145e+09
-5.36418e+10
-7.4807e+07
-2.80964e+09
-5.35516e+10
-1.01977e+08
-1.89524e+09
-5.35144e+10
-1.2715e+08
-1.61841e+09
-5.33485e+10
-1.1628e+08
-1.30162e+09
-5.32755e+10
-9.9109e+07
-1.07173e+09
-5.32258e+10
-7.62376e+07
-9.14268e+08
-5.31738e+10
-6.24032e+07
-7.78384e+08
-5.31209e+10
-5.84775e+07
-6.66363e+08
-5.307e+10
-5.62175e+07
-5.78232e+08
-5.30192e+10
-5.48989e+07
-5.18716e+08
-5.29708e+10
-5.64622e+07
-4.78416e+08
-5.29223e+10
-5.85567e+07
-4.53438e+08
-5.28738e+10
-5.99558e+07
-4.47806e+08
-5.28177e+10
-6.25759e+07
-4.65301e+08
-5.27537e+10
-6.61174e+07
-4.98174e+08
-5.26784e+10
-7.15642e+07
-5.42162e+08
-5.25849e+10
-7.77023e+07
-5.98215e+08
-5.2472e+10
-8.57023e+07
-6.67067e+08
-5.23333e+10
-9.40778e+07
-7.43374e+08
-5.21666e+10
-1.04188e+08
-8.28673e+08
-5.19649e+10
-1.14641e+08
-9.15399e+08
-5.17252e+10
-1.26209e+08
-9.99614e+08
-5.14495e+10
-1.38304e+08
-1.06725e+09
-5.11454e+10
-1.50913e+08
-1.10794e+09
-5.08277e+10
-1.64091e+08
-1.11431e+09
-5.05069e+10
-1.77154e+08
-1.08485e+09
-5.01938e+10
-1.89895e+08
-1.02343e+09
-4.98938e+10
-2.02201e+08
-9.38783e+08
-4.96092e+10
-2.14395e+08
-8.37175e+08
-4.9339e+10
-2.2679e+08
-7.28154e+08
-4.90805e+10
-2.39346e+08
-6.15271e+08
-4.88292e+10
-2.51594e+08
-5.04067e+08
-4.85788e+10
-2.63828e+08
-3.97807e+08
-4.83248e+10
-2.76875e+08
-2.9584e+08
-4.80618e+10
-2.91045e+08
-1.98676e+08
-4.77789e+10
-3.06044e+08
-1.09364e+08
-4.74689e+10
-3.21594e+08
-2.60863e+07
-4.71213e+10
-3.37189e+08
5.13623e+07
-4.67298e+10
-3.52807e+08
1.28603e+08
-4.62875e+10
-3.68225e+08
2.04659e+08
-4.5783e+10
-3.84185e+08
2.81123e+08
-4.52077e+10
-4.00484e+08
3.5859e+08
-4.45528e+10
-4.15871e+08
4.3209e+08
-4.3809e+10
-4.29344e+08
5.02069e+08
-4.29759e+10
-4.41322e+08
5.59888e+08
-4.20731e+10
-4.52171e+08
6.00846e+08
-4.1166e+10
-4.59451e+08
6.26301e+08
-4.03802e+10
-4.67074e+08
6.31998e+08
-4.00542e+10
-4.2154e+08
6.43947e+08
-4.09649e+10
-1.82486e+08
7.09683e+08
-4.5035e+10
8.42417e+08
1.05483e+09
-5.705e+10
3.49734e+09
1.98468e+09
-9.81745e+10
1.47781e+10
7.94317e+09
-1.8761e+09
-1.82498e+10
-5.31746e+10
-2.50158e+09
-5.31468e+10
-1.63972e+09
-5.31036e+10
-1.40439e+09
-5.30221e+10
-1.16419e+09
-5.29769e+10
-9.53008e+08
-5.29195e+10
-7.86536e+08
-5.28265e+10
-6.715e+08
-5.27288e+10
-5.82947e+08
-5.26348e+10
-5.10788e+08
-5.25461e+10
-4.67331e+08
-5.24624e+10
-4.44274e+08
-5.23807e+10
-4.40548e+08
-5.23008e+10
-4.54522e+08
-5.22192e+10
-4.89527e+08
-5.21378e+10
-5.39029e+08
-5.20542e+10
-5.98084e+08
-5.19654e+10
-6.70713e+08
-5.18711e+10
-7.54529e+08
-5.17697e+10
-8.46734e+08
-5.16593e+10
-9.46341e+08
-5.15372e+10
-1.04762e+09
-5.14023e+10
-1.14541e+09
-5.12585e+10
-1.22628e+09
-5.11152e+10
-1.28047e+09
-5.09855e+10
-1.30062e+09
-5.08791e+10
-1.28573e+09
-5.0804e+10
-1.23944e+09
-5.07641e+10
-1.17012e+09
-5.076e+10
-1.08363e+09
-5.07902e+10
-9.89304e+08
-5.08505e+10
-8.90584e+08
-5.09357e+10
-7.92235e+08
-5.10395e+10
-6.96174e+08
-5.11578e+10
-6.02775e+08
-5.12852e+10
-5.13628e+08
-5.14148e+10
-4.27571e+08
-5.15438e+10
-3.43012e+08
-5.16644e+10
-2.61381e+08
-5.17711e+10
-1.77718e+08
-5.18584e+10
-9.32303e+07
-5.19192e+10
-6.42229e+06
-5.19452e+10
8.26665e+07
-5.19204e+10
1.68673e+08
-5.18293e+10
2.4982e+08
-5.16607e+10
3.12098e+08
-5.14163e+10
3.46266e+08
-5.11168e+10
3.41481e+08
-5.08206e+10
2.7321e+08
-5.06078e+10
1.21302e+08
-5.06539e+10
-1.30018e+08
-5.1053e+10
-2.96953e+08
-5.38237e+10
7.85298e+07
-5.91543e+10
5.52528e+09
2.71069e+09
-5.28188e+10
9.92148e+07
-2.67848e+09
-5.28777e+10
9.59777e+07
-1.91793e+09
-5.29391e+10
7.46807e+07
-1.62338e+09
-5.29644e+10
8.31789e+07
-1.35649e+09
-5.29858e+10
8.10781e+07
-1.13213e+09
-5.30196e+10
8.52333e+07
-9.67915e+08
-5.30544e+10
8.84645e+07
-8.33881e+08
-5.30891e+10
9.13161e+07
-7.23059e+08
-5.31251e+10
9.48098e+07
-6.35139e+08
-5.31636e+10
9.64744e+07
-5.73001e+08
-5.32025e+10
9.93408e+07
-5.33222e+08
-5.32363e+10
1.02703e+08
-5.14713e+08
-5.32683e+10
1.08714e+08
-5.15791e+08
-5.32996e+10
1.14892e+08
-5.40583e+08
-5.33321e+10
1.2046e+08
-5.82937e+08
-5.33593e+10
1.26158e+08
-6.40913e+08
-5.33818e+10
1.31416e+08
-7.13581e+08
-5.33933e+10
1.37565e+08
-8.00585e+08
-5.33928e+10
1.43365e+08
-8.98083e+08
-5.33763e+10
1.49833e+08
-1.00538e+09
-5.33374e+10
1.56365e+08
-1.11799e+09
-5.3271e+10
1.63106e+08
-1.23e+09
-5.31768e+10
1.69593e+08
-1.32328e+09
-5.30652e+10
1.7454e+08
-1.38076e+09
-5.29513e+10
1.77581e+08
-1.39039e+09
-5.28479e+10
1.78738e+08
-1.35251e+09
-5.27655e+10
1.78567e+08
-1.2728e+09
-5.27102e+10
1.77572e+08
-1.16299e+09
-5.26826e+10
1.76147e+08
-1.03518e+09
-5.26843e+10
1.74774e+08
-8.97863e+08
-5.27115e+10
1.73934e+08
-7.6036e+08
-5.27596e+10
1.738e+08
-6.28812e+08
-5.28251e+10
1.74364e+08
-5.05438e+08
-5.29021e+10
1.75567e+08
-3.91834e+08
-5.29873e+10
1.77382e+08
-2.85686e+08
-5.30757e+10
1.80352e+08
-1.92856e+08
-5.31645e+10
1.85487e+08
-1.09929e+08
-5.32522e+10
1.93226e+08
-3.65525e+07
-5.33317e+10
2.03537e+08
2.84926e+07
-5.3399e+10
2.15818e+08
8.69499e+07
-5.34441e+10
2.30223e+08
1.36007e+08
-5.34589e+10
2.46816e+08
1.78125e+08
-5.34364e+10
2.66777e+08
2.09433e+08
-5.33666e+10
2.91023e+08
2.24049e+08
-5.32492e+10
3.19109e+08
2.17289e+08
-5.30865e+10
3.492e+08
1.75069e+08
-5.28882e+10
3.80107e+08
8.96156e+07
-5.26808e+10
4.09342e+08
-3.75471e+07
-5.25905e+10
4.68417e+08
-1.20278e+08
-5.28942e+10
5.88035e+08
6.59482e+07
-5.45597e+10
1.23274e+09
9.85485e+08
-5.86404e+10
2.80887e+09
2.91458e+09
-7.49071e+10
1.03153e+10
1.37194e+10
3.73283e+09
5.19272e+09
-5.10709e+10
-2.37674e+09
-5.09517e+10
-1.65557e+09
-5.087e+10
-1.40712e+09
-5.07809e+10
-1.16893e+09
-5.07196e+10
-9.33744e+08
-5.06667e+10
-7.55165e+08
-5.06235e+10
-6.2672e+08
-5.05881e+10
-5.26282e+08
-5.05528e+10
-4.4931e+08
-5.05241e+10
-3.96321e+08
-5.04985e+10
-3.66018e+08
-5.04733e+10
-3.57163e+08
-5.04432e+10
-3.69462e+08
-5.04072e+10
-4.05378e+08
-5.03641e+10
-4.58656e+08
-5.03083e+10
-5.28559e+08
-5.02367e+10
-6.14193e+08
-5.01442e+10
-7.1523e+08
-5.00265e+10
-8.27803e+08
-4.98793e+10
-9.50363e+08
-4.96951e+10
-1.07929e+09
-4.94684e+10
-1.20747e+09
-4.92015e+10
-1.31675e+09
-4.89068e+10
-1.38959e+09
-4.86043e+10
-1.41291e+09
-4.83115e+10
-1.38746e+09
-4.80427e+10
-1.31878e+09
-4.78072e+10
-1.21894e+09
-4.76069e+10
-1.10034e+09
-4.74434e+10
-9.71962e+08
-4.73122e+10
-8.42578e+08
-4.72083e+10
-7.17067e+08
-4.71271e+10
-5.97073e+08
-4.70616e+10
-4.85013e+08
-4.70086e+10
-3.79464e+08
-4.69609e+10
-2.81995e+08
-4.69109e+10
-1.90994e+08
-4.68521e+10
-1.06258e+08
-4.67759e+10
-2.47103e+07
-4.66777e+10
5.6242e+07
-4.65485e+10
1.33938e+08
-4.6378e+10
2.08339e+08
-4.61581e+10
2.7681e+08
-4.58786e+10
3.34609e+08
-4.55426e+10
3.74031e+08
-4.51617e+10
3.81783e+08
-4.47558e+10
3.43018e+08
-4.43622e+10
2.36887e+08
-4.40106e+10
7.85303e+07
-4.37358e+10
-7.84397e+07
-4.30221e+10
-4.74233e+07
-4.1158e+10
8.42336e+08
-3.57614e+10
1.04336e+10
6.01603e+09
-5.08585e+10
1.01911e+08
-2.56964e+09
-5.09148e+10
1.21614e+08
-1.97567e+09
-5.09355e+10
1.37874e+08
-1.73462e+09
-5.09618e+10
1.52718e+08
-1.47894e+09
-5.09688e+10
1.48052e+08
-1.27052e+09
-5.09745e+10
1.41117e+08
-1.10094e+09
-5.09757e+10
1.36901e+08
-9.66789e+08
-5.09751e+10
1.40761e+08
-8.604e+08
-5.09738e+10
1.4557e+08
-7.76532e+08
-5.0976e+10
1.48335e+08
-7.12017e+08
-5.09835e+10
1.47645e+08
-6.64052e+08
-5.09877e+10
1.47237e+08
-6.45712e+08
-5.09865e+10
1.4885e+08
-6.51529e+08
-5.0983e+10
1.50605e+08
-6.80441e+08
-5.09761e+10
1.51902e+08
-7.30119e+08
-5.09639e+10
1.5314e+08
-7.98902e+08
-5.09437e+10
1.54645e+08
-8.87009e+08
-5.09122e+10
1.57591e+08
-9.89113e+08
-5.08692e+10
1.61024e+08
-1.10645e+09
-5.08099e+10
1.66741e+08
-1.23308e+09
-5.07293e+10
1.73376e+08
-1.37169e+09
-5.06216e+10
1.82417e+08
-1.51117e+09
-5.04864e+10
1.93037e+08
-1.63014e+09
-5.03443e+10
2.03951e+08
-1.69687e+09
-5.02166e+10
2.14732e+08
-1.69502e+09
-5.01253e+10
2.23885e+08
-1.62791e+09
-5.00773e+10
2.31471e+08
-1.51182e+09
-5.00713e+10
2.37477e+08
-1.36643e+09
-5.01011e+10
2.42485e+08
-1.20796e+09
-5.01542e+10
2.46994e+08
-1.05139e+09
-5.02212e+10
2.51422e+08
-9.02874e+08
-5.02909e+10
2.55858e+08
-7.70552e+08
-5.03537e+10
2.60443e+08
-6.54695e+08
-5.04026e+10
2.65702e+08
-5.55347e+08
-5.04313e+10
2.72371e+08
-4.69898e+08
-5.04388e+10
2.79025e+08
-3.98043e+08
-5.04229e+10
2.86061e+08
-3.37534e+08
-5.03816e+10
2.93568e+08
-2.8846e+08
-5.03108e+10
3.01148e+08
-2.50269e+08
-5.01999e+10
3.08821e+08
-2.28264e+08
-5.00435e+10
3.17348e+08
-2.19184e+08
-4.9831e+10
3.26769e+08
-2.25554e+08
-4.9553e+10
3.36798e+08
-2.49291e+08
-4.92046e+10
3.4769e+08
-2.94968e+08
-4.87879e+10
3.58295e+08
-3.67748e+08
-4.83158e+10
3.65625e+08
-4.80368e+08
-4.78031e+10
3.62385e+08
-6.46428e+08
-4.72641e+10
3.43953e+08
-8.72603e+08
-4.65652e+10
2.85088e+08
-1.1602e+09
-4.53423e+10
1.51486e+08
-1.44051e+09
-4.25274e+10
-1.33052e+08
-1.72329e+09
-3.89221e+10
3.74141e+08
-8.8412e+08
-4.17963e+10
6.97898e+09
9.95493e+09
4.94102e+09
6.90896e+09
-5.18966e+10
-2.01345e+09
-5.19803e+10
-1.44472e+09
-5.20094e+10
-1.23611e+09
-5.20143e+10
-1.00841e+09
-5.20044e+10
-7.93226e+08
-5.19886e+10
-6.27463e+08
-5.19694e+10
-5.06109e+08
-5.19419e+10
-4.09367e+08
-5.19064e+10
-3.34676e+08
-5.18664e+10
-2.82128e+08
-5.1829e+10
-2.48279e+08
-5.17884e+10
-2.41177e+08
-5.174e+10
-2.58381e+08
-5.16855e+10
-2.98802e+08
-5.16235e+10
-3.60227e+08
-5.15518e+10
-4.41682e+08
-5.1466e+10
-5.42422e+08
-5.13642e+10
-6.58925e+08
-5.12417e+10
-7.89451e+08
-5.1095e+10
-9.30937e+08
-5.0915e+10
-1.08333e+09
-5.06952e+10
-1.23644e+09
-5.04346e+10
-1.36851e+09
-5.01509e+10
-1.44562e+09
-4.98682e+10
-1.45188e+09
-4.961e+10
-1.38946e+09
-4.93881e+10
-1.27523e+09
-4.92056e+10
-1.12899e+09
-4.90599e+10
-9.67824e+08
-4.89403e+10
-8.07586e+08
-4.88381e+10
-6.54644e+08
-4.87413e+10
-5.16751e+08
-4.86391e+10
-3.94238e+08
-4.85223e+10
-2.87291e+08
-4.83826e+10
-1.93114e+08
-4.82185e+10
-1.07842e+08
-4.80303e+10
-2.78167e+07
-4.78159e+10
4.51482e+07
-4.75705e+10
1.11278e+08
-4.7282e+10
1.66126e+08
-4.69442e+10
2.1464e+08
-4.65471e+10
2.5337e+08
-4.60796e+10
2.78361e+08
-4.5534e+10
2.85009e+08
-4.4911e+10
2.67157e+08
-4.42244e+10
2.10305e+08
-4.3501e+10
9.74181e+07
-4.27758e+10
-8.83224e+07
-4.20886e+10
-3.28773e+08
-4.15627e+10
-4.60382e+08
-4.11419e+10
-4.94191e+08
-3.76373e+10
-2.00516e+09
-2.05371e+10
6.02324e+08
4.56342e+09
-5.11094e+10
6.05015e+06
-2.37852e+09
-5.11365e+10
3.61456e+07
-1.97905e+09
-5.11419e+10
5.92694e+07
-1.78325e+09
-5.11328e+10
7.10966e+07
-1.55357e+09
-5.11013e+10
6.6301e+07
-1.36236e+09
-5.10624e+10
5.56253e+07
-1.1891e+09
-5.10279e+10
4.89682e+07
-1.04345e+09
-5.09981e+10
4.90558e+07
-9.3162e+08
-5.09714e+10
4.78135e+07
-8.42268e+08
-5.09467e+10
4.36348e+07
-7.69689e+08
-5.0913e+10
3.61142e+07
-7.20827e+08
-5.08717e+10
2.86371e+07
-6.99313e+08
-5.082e+10
2.15515e+07
-7.0521e+08
-5.07537e+10
1.37234e+07
-7.39609e+08
-5.06685e+10
5.27772e+06
-8.00769e+08
-5.05589e+10
-3.90601e+06
-8.90099e+08
-5.04166e+10
-1.23101e+07
-1.00439e+09
-5.02341e+10
-2.06521e+07
-1.14476e+09
-5.00004e+10
-2.70021e+07
-1.30767e+09
-4.97098e+10
-3.2452e+07
-1.48891e+09
-4.9348e+10
-3.5063e+07
-1.69337e+09
-4.88917e+10
-3.36383e+07
-1.91847e+09
-4.83337e+10
-2.72915e+07
-2.1329e+09
-4.76989e+10
-1.4117e+07
-2.27084e+09
-4.70482e+10
5.14761e+06
-2.28968e+09
-4.6435e+10
2.94315e+07
-2.19875e+09
-4.58953e+10
5.6725e+07
-2.03005e+09
-4.54458e+10
8.50786e+07
-1.8185e+09
-4.50856e+10
1.1299e+08
-1.59478e+09
-4.48039e+10
1.39422e+08
-1.38171e+09
-4.45842e+10
1.63925e+08
-1.19014e+09
-4.44124e+10
1.86318e+08
-1.02564e+09
-4.42751e+10
2.06539e+08
-8.87784e+08
-4.41606e+10
2.25281e+08
-7.75044e+08
-4.40582e+10
2.43575e+08
-6.85628e+08
-4.39598e+10
2.62342e+08
-6.17239e+08
-4.38551e+10
2.82583e+08
-5.71222e+08
-4.3738e+10
3.04659e+08
-5.42763e+08
-4.36025e+10
3.27235e+08
-5.30441e+08
-4.34459e+10
3.49728e+08
-5.34299e+08
-4.32594e+10
3.72905e+08
-5.5737e+08
-4.30366e+10
3.9826e+08
-5.99839e+08
-4.27732e+10
4.25421e+08
-6.61442e+08
-4.24686e+10
4.54284e+08
-7.48513e+08
-4.21352e+10
4.86406e+08
-8.63611e+08
-4.1801e+10
5.19458e+08
-1.01614e+09
-4.15032e+10
5.44858e+08
-1.21012e+09
-4.12729e+10
5.48613e+08
-1.42819e+09
-4.11342e+10
5.30129e+08
-1.64528e+09
-4.09251e+10
4.85666e+08
-1.87918e+09
-3.97978e+10
-3.8446e+07
-2.3259e+09
-3.47218e+10
-2.47496e+09
-2.74598e+09
-2.43685e+10
-7.89856e+08
1.09884e+09
3.07484e+09
2.13553e+09
-4.93867e+10
-1.66924e+09
-4.95285e+10
-1.26332e+09
-4.96103e+10
-1.09122e+09
-4.96567e+10
-8.86653e+08
-4.9661e+10
-7.17988e+08
-4.96526e+10
-5.75382e+08
-4.96516e+10
-4.52899e+08
-4.96472e+10
-3.58935e+08
-4.96398e+10
-2.87603e+08
-4.96305e+10
-2.39799e+08
-4.96162e+10
-2.16813e+08
-4.9597e+10
-2.19905e+08
-4.957e+10
-2.50164e+08
-4.9532e+10
-3.08964e+08
-4.94798e+10
-3.94667e+08
-4.94071e+10
-5.08398e+08
-4.93077e+10
-6.47801e+08
-4.91706e+10
-8.12568e+08
-4.89868e+10
-9.99233e+08
-4.87468e+10
-1.20345e+09
-4.84339e+10
-1.42851e+09
-4.80227e+10
-1.673e+09
-4.74976e+10
-1.90217e+09
-4.68773e+10
-2.04917e+09
-4.62108e+10
-2.07212e+09
-4.55417e+10
-1.98017e+09
-4.49002e+10
-1.80711e+09
-4.43007e+10
-1.58845e+09
-4.37428e+10
-1.35569e+09
-4.32194e+10
-1.13213e+09
-4.27189e+10
-9.28677e+08
-4.22312e+10
-7.51344e+08
-4.1747e+10
-6.00215e+08
-4.12576e+10
-4.73954e+08
-4.07523e+10
-3.70753e+08
-4.02172e+10
-2.89378e+08
-3.96329e+10
-2.30288e+08
-3.89856e+10
-1.89469e+08
-3.82617e+10
-1.67063e+08
-3.74534e+10
-1.61863e+08
-3.65445e+10
-1.75846e+08
-3.55174e+10
-2.11433e+08
-3.43564e+10
-2.7224e+08
-3.30472e+10
-3.65837e+08
-3.15826e+10
-4.98051e+08
-2.99684e+10
-6.82318e+08
-2.82291e+10
-9.29049e+08
-2.64054e+10
-1.23704e+09
-2.45145e+10
-1.57333e+09
-2.24987e+10
-1.77069e+09
-2.09976e+10
-1.60887e+09
-2.51868e+10
2.94198e+08
-2.14145e+10
-3.62211e+09
-3.5281e+09
-5.26523e+10
-4.22868e+07
-2.03593e+09
-5.28676e+10
-3.7305e+07
-1.72286e+09
-5.3043e+10
-4.50749e+07
-1.55748e+09
-5.31887e+10
-4.79837e+07
-1.35334e+09
-5.33144e+10
-5.42349e+07
-1.17531e+09
-5.34234e+10
-6.0832e+07
-1.01194e+09
-5.35264e+10
-6.56584e+07
-8.67494e+08
-5.3631e+10
-6.77297e+07
-7.51791e+08
-5.37364e+10
-7.08568e+07
-6.57848e+08
-5.38391e+10
-7.55328e+07
-5.8198e+08
-5.3937e+10
-7.93217e+07
-5.32421e+08
-5.40277e+10
-8.14137e+07
-5.13297e+08
-5.41101e+10
-8.27257e+07
-5.23401e+08
-5.41826e+10
-8.44912e+07
-5.6491e+08
-5.42391e+10
-8.71773e+07
-6.41055e+08
-5.42765e+10
-9.12914e+07
-7.49802e+08
-5.4286e+10
-9.70668e+07
-8.91532e+08
-5.42598e+10
-1.04809e+08
-1.06772e+09
-5.41854e+10
-1.14032e+08
-1.27316e+09
-5.40544e+10
-1.26897e+08
-1.50577e+09
-5.38489e+10
-1.41867e+08
-1.76891e+09
-5.35308e+10
-1.6062e+08
-2.08582e+09
-5.30498e+10
-1.81945e+08
-2.42842e+09
-5.24133e+10
-2.05615e+08
-2.67673e+09
-5.17012e+10
-2.31276e+08
-2.72891e+09
-5.09861e+10
-2.54052e+08
-2.60519e+09
-5.03133e+10
-2.71597e+08
-2.37228e+09
-4.97088e+10
-2.82473e+08
-2.08065e+09
-4.9178e+10
-2.8713e+08
-1.77846e+09
-4.87167e+10
-2.87228e+08
-1.49481e+09
-4.83142e+10
-2.84737e+08
-1.24484e+09
-4.79605e+10
-2.81599e+08
-1.03139e+09
-4.76438e+10
-2.79208e+08
-8.5481e+08
-4.73532e+10
-2.78488e+08
-7.11783e+08
-4.70817e+10
-2.7984e+08
-5.96439e+08
-4.68201e+10
-2.83506e+08
-5.08467e+08
-4.65648e+10
-2.90966e+08
-4.42613e+08
-4.63058e+10
-3.03785e+08
-3.98563e+08
-4.60351e+10
-3.23307e+08
-3.71848e+08
-4.57394e+10
-3.4953e+08
-3.6727e+08
-4.54101e+10
-3.81832e+08
-3.8309e+08
-4.50392e+10
-4.20303e+08
-4.18671e+08
-4.46182e+10
-4.65406e+08
-4.7529e+08
-4.41435e+10
-5.17238e+08
-5.61236e+08
-4.36199e+10
-5.75164e+08
-6.80311e+08
-4.30617e+10
-6.38473e+08
-8.4565e+08
-4.24732e+10
-7.1084e+08
-1.06635e+09
-4.18372e+10
-8.04993e+08
-1.32941e+09
-4.10578e+10
-9.43772e+08
-1.61829e+09
-4.01262e+10
-1.09171e+09
-1.83735e+09
-3.8528e+10