/*--------------------------------*- C++ -*----------------------------------*\
| =========                 |                                                 |
| \\      /  F ield         | OpenFOAM: The Open Source CFD Toolbox           |
|  \\    /   O peration     | Version:  4.1                                   |
|   \\  /    A nd           | Web:      www.OpenFOAM.org                      |
|    \\/     M anipulation  |                                                 |
\*---------------------------------------------------------------------------*/
FoamFile
{
    version     2.0;
    format      ascii;
    class       volVectorField;
    location    "75";
    object      U;
}
// * * * * * * * * * * * * * * * * * * * * * * * * * * * * * * * * * * * * * //

dimensions      [0 1 -1 0 0 0 0];

internalField   nonuniform List<vector> 
4432
(
(39.9817 1.85713e-05 0.050244)
(39.9173 1.1789e-05 0.0900524)
(39.8179 5.70389e-05 0.11842)
(39.6813 2.13478e-05 0.145831)
(39.5066 -7.05842e-05 0.174523)
(39.2951 -8.55942e-05 0.204754)
(39.0467 -2.02291e-05 0.236821)
(38.7598 5.68267e-05 0.270202)
(38.4322 0.000118172 0.304851)
(38.0629 0.000152883 0.340152)
(37.6525 0.000181548 0.374207)
(37.203 0.000283896 0.407493)
(36.7181 0.00018587 0.433604)
(36.2151 0.000231247 0.452508)
(35.699 -0.00247518 0.4443)
(35.2862 -0.0066315 0.388733)
(34.9434 -0.00513566 0.428137)
(34.8163 -0.00244795 0.334468)
(34.9073 -0.000907185 0.24489)
(34.878 0.00276459 0.388203)
(34.6356 -0.000680993 0.49585)
(34.265 -0.0107837 0.625878)
(33.7838 -0.0213969 0.705249)
(33.234 -0.0305152 0.698258)
(32.619 -0.0376069 0.683284)
(31.965 -0.0433002 0.56093)
(31.3591 -0.0397551 0.363569)
(30.8302 -0.0258484 0.154452)
(30.4159 -0.017129 0.0731232)
(30.0985 -0.0224429 0.0943015)
(29.8244 -0.0404601 0.233463)
(29.5036 -0.0619444 0.500459)
(29.053 -0.0693958 0.619613)
(28.5538 -0.0456875 0.267632)
(28.2298 -0.00608739 -0.488458)
(28.0706 0.0218522 -0.892873)
(27.9712 0.0300965 -0.829848)
(27.7914 0.0223835 -0.726532)
(27.5743 0.0196057 -0.613312)
(27.432 0.0216746 -0.488426)
(27.387 0.0161102 -0.450066)
(27.3647 0.0136072 -0.514626)
(27.3236 0.011793 -0.477059)
(27.2697 0.0192784 -0.426901)
(27.2717 0.0319606 -0.416601)
(27.3177 0.0382184 -0.419714)
(27.4155 0.0266221 -0.408718)
(27.5496 0.00681197 -0.409043)
(27.6528 0.0269697 -0.399772)
(27.7857 0.0555013 -0.419287)
(28.0972 0.0480697 -0.31392)
(28.5383 0.0225893 -0.295847)
(28.7898 0.00248647 -0.371739)
(29.1144 0.0595796 -0.0127959)
(39.9817 1.8569e-05 0.0502467)
(39.9173 1.1792e-05 0.0900745)
(39.8179 5.69798e-05 0.118527)
(39.6811 2.14966e-05 0.145904)
(39.5065 -7.04815e-05 0.174504)
(39.2951 -8.5692e-05 0.204754)
(39.0468 -2.06752e-05 0.236739)
(38.76 5.64263e-05 0.270063)
(38.4323 0.000117072 0.304715)
(38.0632 0.000150923 0.339871)
(37.6527 0.000179128 0.374141)
(37.2032 0.000280837 0.407243)
(36.7187 0.000182976 0.434539)
(36.2102 0.00022602 0.452773)
(35.6969 -0.00246195 0.451584)
(35.2342 -0.00669672 0.399175)
(34.8852 -0.00520967 0.377878)
(34.8004 -0.00246463 0.289833)
(34.8949 -0.000878932 0.236273)
(34.896 0.00266444 0.39983)
(34.6564 -0.000798731 0.483024)
(34.2837 -0.0108555 0.544179)
(33.8135 -0.0215051 0.588182)
(33.2612 -0.0308993 0.583002)
(32.6283 -0.0383884 0.57414)
(31.9403 -0.0450121 0.441514)
(31.2798 -0.0431623 0.257561)
(30.7107 -0.0300122 0.128666)
(30.2426 -0.0218147 0.0468596)
(29.8544 -0.0289787 -0.0580311)
(29.5863 -0.048398 -0.185059)
(29.3499 -0.0749206 -0.202488)
(29.0472 -0.0860737 -0.0178409)
(28.6051 -0.0642259 0.150711)
(28.2281 -0.0200714 -0.0931558)
(27.9329 0.0112249 -0.379652)
(27.7306 0.0225917 -0.344401)
(27.4871 0.0154939 -0.363505)
(27.2559 0.0134079 -0.338016)
(27.0731 0.0232518 -0.274426)
(26.9817 0.022646 -0.226002)
(26.9186 0.0212767 -0.233543)
(26.8518 0.0197578 -0.187943)
(26.7856 0.0274675 -0.174014)
(26.7719 0.0415231 -0.182563)
(26.7971 0.049435 -0.225139)
(26.87 0.0384815 -0.167058)
(27.0772 0.0170887 -0.106053)
(27.2487 0.0415901 -0.0819121)
(27.4075 0.0761094 -0.118344)
(27.7879 0.0433166 -0.205517)
(28.2287 0.0150354 -0.248178)
(28.5453 -0.0078835 -0.30107)
(28.981 0.0519613 0.100633)
(40.0074 1.85628e-05 0.0177627)
(40.0331 6.76299e-06 0.0556628)
(40.0594 5.00148e-05 0.0947197)
(40.0827 1.04674e-05 0.134057)
(40.1025 -8.18723e-05 0.173979)
(40.1205 -9.28668e-05 0.215068)
(40.1377 -1.47466e-05 0.257666)
(40.1526 8.42963e-05 0.301923)
(40.1632 0.000142413 0.347895)
(40.1677 0.000171181 0.395392)
(40.1647 0.000181596 0.443822)
(40.1508 0.000147343 0.491371)
(40.1224 0.00038756 0.535592)
(40.0614 0.000402263 0.566247)
(39.9702 0.00419121 0.588702)
(39.7015 0.00632815 0.562781)
(39.4029 0.00802093 0.438407)
(38.7043 0.00808494 0.358037)
(37.7326 -0.000387642 0.403841)
(36.916 -0.00268054 0.466244)
(36.2113 0.00023418 0.538011)
(35.5848 0.00373561 0.62656)
(35.0438 0.00699201 0.717515)
(34.5252 0.00989346 0.816357)
(34.0261 0.0114434 0.892116)
(33.5366 0.0129402 0.903068)
(33.0397 0.0147955 0.861103)
(32.5107 0.0215278 0.805603)
(31.8986 0.0353359 0.732978)
(31.2857 0.0420051 0.634477)
(30.7074 0.0439893 0.560367)
(30.1545 0.0432998 0.587677)
(29.7164 0.0387587 0.601825)
(29.4304 0.0273314 0.531208)
(29.2301 0.00609432 0.487714)
(29.0389 -0.0280423 0.609776)
(28.8686 -0.0711072 0.76034)
(28.6499 -0.103959 0.817292)
(28.398 -0.11118 0.748405)
(28.1472 -0.103246 0.545707)
(27.9534 -0.110231 0.381261)
(27.8783 -0.137478 0.376707)
(27.7949 -0.15554 0.39645)
(27.6945 -0.168184 0.356991)
(27.651 -0.178446 0.284179)
(27.6805 -0.182944 0.198445)
(27.7542 -0.189457 0.149176)
(27.8533 -0.194981 0.051624)
(27.98 -0.184732 -0.0127004)
(28.0316 -0.217013 0.0580851)
(28.2632 -0.187349 -0.197338)
(28.2798 -0.13866 -0.315348)
(28.8877 -0.0857367 -0.378243)
(29.5012 -0.00873908 -0.563843)
(40.0074 1.85628e-05 0.0177607)
(40.0331 6.76289e-06 0.0556609)
(40.0594 5.00153e-05 0.0947095)
(40.0826 1.04702e-05 0.134036)
(40.1024 -8.18702e-05 0.173961)
(40.1207 -9.28718e-05 0.215066)
(40.1379 -1.47379e-05 0.257687)
(40.1528 8.42052e-05 0.301948)
(40.1633 0.000142402 0.347924)
(40.1675 0.000169188 0.395363)
(40.1647 0.000179889 0.443721)
(40.1508 0.000150202 0.491433)
(40.1221 0.000360261 0.535271)
(40.0667 0.000504671 0.569177)
(39.9707 0.0037656 0.581241)
(39.7799 0.0061673 0.551052)
(39.4614 0.00866257 0.456861)
(38.7421 0.00836578 0.348109)
(37.7506 -0.00038543 0.386555)
(36.9092 -0.00249376 0.456134)
(36.224 0.000344811 0.5175)
(35.6033 0.00388317 0.595449)
(35.063 0.00727018 0.672107)
(34.5541 0.0105423 0.755335)
(34.0668 0.0124703 0.82377)
(33.6018 0.014963 0.832955)
(33.1231 0.0189182 0.823665)
(32.6018 0.0253693 0.808212)
(32.0598 0.036013 0.736797)
(31.5456 0.0480163 0.60421)
(30.9984 0.0601969 0.501415)
(30.3836 0.0717685 0.506155)
(29.8298 0.0630032 0.501625)
(29.5012 0.0435237 0.464094)
(29.3288 0.0122592 0.427522)
(29.236 -0.0280861 0.499768)
(29.173 -0.0737146 0.592786)
(29.0581 -0.107638 0.632536)
(28.8902 -0.119085 0.59663)
(28.7764 -0.118634 0.48639)
(28.7071 -0.121193 0.364584)
(28.7232 -0.138896 0.329503)
(28.7196 -0.157377 0.324683)
(28.6777 -0.16739 0.277605)
(28.654 -0.176009 0.19314)
(28.6776 -0.177735 0.0985397)
(28.7216 -0.181427 0.0573308)
(28.7771 -0.187188 -0.0197892)
(28.8169 -0.195291 -0.0722147)
(28.8257 -0.207235 -0.163476)
(28.8341 -0.135866 -0.44896)
(28.8655 -0.105665 -0.548722)
(29.4631 -0.0644201 -0.542619)
(29.9959 0.0101858 -0.73445)
(39.9993 1.80314e-05 0.024905)
(39.9887 7.16273e-06 0.0720605)
(39.9601 5.03968e-05 0.116218)
(39.9129 1.28552e-05 0.158624)
(39.8477 -7.5886e-05 0.200839)
(39.7667 -8.09866e-05 0.243858)
(39.671 -4.22345e-09 0.288239)
(39.56 9.03234e-05 0.334357)
(39.433 0.000137095 0.382517)
(39.2898 0.000142658 0.432849)
(39.131 0.000129981 0.4853)
(38.9566 0.00016273 0.539582)
(38.7648 0.000270462 0.595454)
(38.5549 0.000755306 0.652198)
(38.3108 0.0012031 0.712711)
(38.0737 0.00295598 0.786661)
(37.7295 0.00387123 0.82909)
(37.3511 0.00556192 0.950351)
(36.9773 0.00237911 1.12141)
(36.5587 0.00174508 1.2326)
(36.0863 0.00295502 1.2788)
(35.594 0.00504886 1.29479)
(35.1158 0.00783373 1.32087)
(34.6375 0.0120616 1.35992)
(34.156 0.0144396 1.39662)
(33.6642 0.0182018 1.38418)
(33.1243 0.0256248 1.32795)
(32.5071 0.0362641 1.28752)
(31.7914 0.0450213 1.19246)
(31.0312 0.0406839 1.09874)
(30.2044 0.0365802 1.12309)
(29.3639 0.0471213 1.18634)
(28.6645 0.0783503 1.13598)
(28.0269 0.128961 0.91665)
(27.5531 0.163984 0.426646)
(27.5294 0.0534688 0.382379)
(27.3322 -0.0704827 0.594045)
(27.0304 -0.121412 0.63971)
(26.6108 -0.121572 0.619703)
(26.3815 -0.0690583 0.338716)
(26.3218 -0.083625 0.26687)
(26.3031 -0.13996 0.414536)
(26.2355 -0.167677 0.391228)
(26.1168 -0.174197 0.250867)
(26.1029 -0.176992 0.0908746)
(26.1859 -0.169807 -0.0584819)
(26.322 -0.169443 -0.148712)
(26.5094 -0.161079 -0.259897)
(26.7488 -0.177552 -0.271653)
(27.19 -0.146466 -0.442438)
(27.5367 -0.0740566 -0.505948)
(27.6943 -0.046216 -0.479426)
(27.74 -0.0407276 -0.671859)
(27.9391 -0.0510462 -1.07265)
(39.9993 1.80314e-05 0.0249038)
(39.9888 7.16278e-06 0.0720612)
(39.9602 5.03974e-05 0.116216)
(39.9128 1.28565e-05 0.158621)
(39.8477 -7.58857e-05 0.200838)
(39.7668 -8.09872e-05 0.243858)
(39.6712 -7.97814e-09 0.288239)
(39.5602 9.03225e-05 0.334345)
(39.4331 0.000137099 0.382502)
(39.2899 0.000142472 0.432818)
(39.131 0.000129445 0.485271)
(38.9567 0.000162387 0.539609)
(38.7656 0.000268386 0.595378)
(38.555 0.00075699 0.652089)
(38.3177 0.0011961 0.710231)
(38.0526 0.00294037 0.77882)
(37.7404 0.00346868 0.849588)
(37.3625 0.00583247 0.954866)
(36.9773 0.00254161 1.11434)
(36.5657 0.00182774 1.21826)
(36.1005 0.00306793 1.25932)
(35.6154 0.00523991 1.26785)
(35.1456 0.0082324 1.28368)
(34.6693 0.0131338 1.33413)
(34.1817 0.0160664 1.37724)
(33.6895 0.0205058 1.37084)
(33.1504 0.0290618 1.34709)
(32.5534 0.0406897 1.33173)
(31.9063 0.0506634 1.26919)
(31.1934 0.052169 1.15898)
(30.3249 0.0468327 1.17461)
(29.4827 0.054294 1.23774)
(28.8044 0.0911359 1.14409)
(28.3411 0.132175 0.854286)
(28.0915 0.129276 0.529226)
(27.993 0.0620222 0.346802)
(27.8749 -0.0182302 0.274699)
(27.6365 -0.0724544 0.202343)
(27.3482 -0.0806713 0.0892213)
(27.1755 -0.039351 -0.137485)
(27.0063 -0.0491169 -0.147951)
(26.9412 -0.0857423 -0.122862)
(26.8691 -0.112818 -0.177098)
(26.7437 -0.127063 -0.297346)
(26.6818 -0.135397 -0.433491)
(26.724 -0.129982 -0.564916)
(26.8045 -0.126192 -0.665742)
(26.9326 -0.11957 -0.726365)
(27.0909 -0.128752 -0.77592)
(27.4707 -0.10258 -0.863339)
(27.7042 -0.0636777 -0.744053)
(27.8334 -0.0411144 -0.664304)
(28.0568 -0.0761608 -0.517512)
(28.0534 -0.0423343 -1.27505)
(39.999 1.7436e-05 0.031494)
(39.9874 7.48168e-06 0.0936805)
(39.9589 4.78756e-05 0.155846)
(39.9127 8.18016e-06 0.218955)
(39.8488 -8.30879e-05 0.283785)
(39.7679 -9.11317e-05 0.350706)
(39.6706 -1.22027e-05 0.419911)
(39.5554 7.93892e-05 0.491549)
(39.4206 0.000133769 0.565774)
(39.2651 0.000150696 0.642668)
(39.0884 0.00015753 0.722279)
(38.8894 0.000205478 0.80473)
(38.6662 0.000299174 0.890331)
(38.4169 0.000596812 0.980418)
(38.1358 0.000802994 1.07782)
(37.83 0.00216379 1.1861)
(37.4815 0.00264915 1.33343)
(37.0477 0.00261338 1.41149)
(36.6618 0.00215359 1.47389)
(36.3059 0.00293502 1.55808)
(35.9272 0.00405065 1.6441)
(35.5218 0.00439643 1.69952)
(35.0804 0.00437652 1.75315)
(34.5828 0.00534307 1.82056)
(34.0521 0.00427147 1.89964)
(33.483 0.00397378 1.93953)
(32.813 0.00891783 1.96798)
(32.0379 0.015306 2.04782)
(31.1448 0.0140469 2.11045)
(30.0568 0.0137537 2.12997)
(28.9133 0.0183047 2.18068)
(27.9433 0.0306101 2.11535)
(27.1172 0.0581877 1.85576)
(26.4438 0.100246 1.21972)
(26.3814 0.10046 0.336472)
(26.5721 -0.0395443 0.607219)
(26.4382 -0.17329 1.12505)
(25.9906 -0.262777 1.29877)
(25.4249 -0.222375 1.15565)
(25.2013 -0.0958456 0.549554)
(25.1048 -0.073506 0.418505)
(25.0985 -0.117074 0.674632)
(24.9841 -0.146609 0.739914)
(24.8466 -0.140447 0.577027)
(24.8326 -0.127243 0.391072)
(24.9686 -0.116371 0.243681)
(25.1209 -0.112715 0.0893479)
(25.3206 -0.0880453 -0.000990173)
(25.5747 -0.0828687 -0.165165)
(25.9734 -0.0941921 -0.422362)
(26.5295 -0.104439 -0.564502)
(26.7863 -0.100388 -0.537487)
(26.9806 -0.0930738 -0.577456)
(27.308 -0.00320195 -0.682439)
(39.999 1.7436e-05 0.0314936)
(39.9875 7.48175e-06 0.0936828)
(39.9589 4.78762e-05 0.155846)
(39.9126 8.18148e-06 0.218952)
(39.8487 -8.30868e-05 0.283778)
(39.768 -9.11315e-05 0.350695)
(39.6708 -1.22039e-05 0.419898)
(39.5556 7.93876e-05 0.491539)
(39.4207 0.000133761 0.565775)
(39.2652 0.000150714 0.642686)
(39.0885 0.000157479 0.722323)
(38.8896 0.000205601 0.80478)
(38.6667 0.00029865 0.890364)
(38.4172 0.000598964 0.980147)
(38.1384 0.000801672 1.07722)
(37.8286 0.00219825 1.18521)
(37.4966 0.00247532 1.32766)
(37.0622 0.00257157 1.44045)
(36.6686 0.00212374 1.47934)
(36.3159 0.00297324 1.54611)
(35.9392 0.00422587 1.62401)
(35.5342 0.00470772 1.67389)
(35.0781 0.00458371 1.72869)
(34.57 0.00513488 1.83081)
(34.0499 0.0041288 1.91147)
(33.4739 0.00384395 1.9658)
(32.7796 0.0100971 2.05782)
(31.9905 0.0175042 2.17995)
(31.1116 0.0161035 2.26023)
(30.0442 0.0156493 2.27358)
(28.9625 0.0188866 2.26143)
(28.0598 0.0295139 2.20352)
(27.2877 0.0553988 2.05365)
(26.6192 0.110676 1.61478)
(26.4832 0.124789 0.762811)
(26.6443 -0.0308284 0.508967)
(26.5889 -0.190757 0.572792)
(26.3173 -0.342895 0.597687)
(25.9326 -0.407401 0.608825)
(25.6721 -0.2842 0.204425)
(25.5683 -0.119405 0.0612925)
(25.4737 -0.115807 0.158209)
(25.3425 -0.118209 0.0766546)
(25.1899 -0.115926 -0.0755907)
(25.0892 -0.0997405 -0.236188)
(25.182 -0.0913421 -0.38079)
(25.3194 -0.0886586 -0.553491)
(25.5438 -0.0743233 -0.692683)
(25.8103 -0.0587712 -0.809919)
(26.1543 -0.0646209 -0.943101)
(26.6349 -0.0931578 -0.991037)
(26.8752 -0.103515 -0.948731)
(27.1307 -0.150285 -1.03921)
(27.7122 -0.0302993 -1.111)
(39.999 1.75708e-05 0.0389313)
(39.9877 9.54097e-06 0.116643)
(39.9597 5.01646e-05 0.194907)
(39.9146 8.88811e-06 0.27404)
(39.8522 -8.38789e-05 0.354541)
(39.7734 -9.30039e-05 0.436929)
(39.6788 -1.41839e-05 0.521695)
(39.5671 7.90356e-05 0.609311)
(39.4366 0.000137404 0.700235)
(39.2864 0.000158303 0.794909)
(39.1158 0.000171836 0.893772)
(38.9239 0.000210211 0.997362)
(38.7096 0.000315909 1.10648)
(38.4704 0.000467071 1.22272)
(38.2063 0.000841965 1.34855)
(37.9095 0.00107139 1.48853)
(37.6047 0.00277922 1.64575)
(37.2147 0.00519201 1.80352)
(36.75 0.00480038 1.88442)
(36.3203 0.00450765 1.94089)
(35.9085 0.00585248 2.01823)
(35.4813 0.00475444 2.10053)
(35.0071 0.00196298 2.24279)
(34.4472 -0.00112573 2.38321)
(33.8313 -0.00791903 2.51543)
(33.1304 -0.0119675 2.63527)
(32.2642 -0.00579384 2.76591)
(31.3064 0.00236561 2.98599)
(30.2535 0.00136637 3.20473)
(29.0951 0.001316 3.29437)
(28.0108 0.00897468 3.21851)
(27.0675 0.0276172 2.96372)
(26.2218 0.0602138 2.41277)
(25.6023 0.119092 1.27794)
(25.7359 0.173275 -0.0750794)
(25.5235 -0.067217 0.216905)
(25.4606 -0.438856 1.83918)
(24.8087 -0.677435 2.69023)
(24.2183 -0.705471 2.71654)
(23.9297 -0.309423 1.44231)
(23.7529 -0.149543 0.773816)
(23.8586 -0.20459 0.939441)
(23.7725 -0.247596 0.85503)
(23.7187 -0.24199 0.550655)
(23.7394 -0.223981 0.28713)
(23.8617 -0.213252 0.0592709)
(24.0587 -0.206539 -0.165432)
(24.3368 -0.223532 -0.414518)
(24.6796 -0.170981 -0.825526)
(24.7081 -0.172165 -0.827911)
(25.0319 -0.214537 -0.966937)
(25.295 -0.175181 -1.05898)
(25.679 -0.229177 -1.12762)
(25.8555 -0.149452 -1.09027)
(39.999 1.75707e-05 0.0389308)
(39.9877 9.54102e-06 0.116647)
(39.9597 5.01653e-05 0.194909)
(39.9145 8.88914e-06 0.274043)
(39.8521 -8.38779e-05 0.354546)
(39.7735 -9.29997e-05 0.436933)
(39.679 -1.41754e-05 0.521695)
(39.5673 7.90555e-05 0.609309)
(39.4367 0.000137415 0.700235)
(39.2864 0.000158399 0.794916)
(39.1158 0.000171624 0.893789)
(38.9241 0.000211299 0.997382)
(38.7099 0.000319292 1.10651)
(38.471 0.00047047 1.22265)
(38.2065 0.000858104 1.34844)
(37.913 0.00103993 1.48792)
(37.599 0.00295091 1.64612)
(37.2384 0.00474544 1.81939)
(36.7971 0.00438143 1.88958)
(36.3556 0.00454967 1.93557)
(35.9334 0.00652948 2.01078)
(35.4917 0.00624816 2.10259)
(34.9633 0.00204348 2.24085)
(34.3975 -0.00142252 2.37935)
(33.7977 -0.00815837 2.509)
(33.0493 -0.0125788 2.66001)
(32.1845 -0.00495926 2.85564)
(31.2783 0.00366332 3.09401)
(30.2763 0.00221075 3.27578)
(29.1756 0.00114478 3.3367)
(28.128 0.00771541 3.245)
(27.2141 0.0254997 3.03001)
(26.4606 0.0537634 2.61616)
(25.9676 0.116807 1.74344)
(26.1283 0.238797 0.461873)
(26.3174 -0.0258938 0.110614)
(26.3956 -0.487729 0.289832)
(26.0398 -0.742784 0.544422)
(25.4275 -0.89611 0.615613)
(24.9799 -0.753699 0.439316)
(24.7172 -0.271269 0.27851)
(24.7061 -0.189121 0.204355)
(24.6413 -0.186903 -0.0335408)
(24.5534 -0.172785 -0.305294)
(24.5703 -0.151673 -0.544973)
(24.696 -0.133593 -0.769142)
(24.8987 -0.115306 -0.98759)
(25.1422 -0.117489 -1.21469)
(25.3626 -0.138002 -1.36926)
(25.5314 -0.0659763 -1.66751)
(25.8806 0.0149087 -1.95157)
(25.8796 0.00202811 -1.74549)
(26.1295 -0.0388677 -1.70974)
(26.3335 0.0999317 -1.87366)
(39.999 1.69802e-05 0.0463385)
(39.988 1.15879e-05 0.138859)
(39.9608 5.01634e-05 0.232193)
(39.9172 1.0575e-05 0.326815)
(39.8569 -7.86462e-05 0.423428)
(39.7811 -8.74656e-05 0.522738)
(39.69 -1.21409e-05 0.625351)
(39.5824 7.71074e-05 0.731802)
(39.4567 0.000133386 0.842595)
(39.3117 0.000155572 0.958232)
(39.1471 0.00017233 1.07921)
(38.9623 0.000219843 1.20609)
(38.7564 0.00032709 1.3397)
(38.5283 0.000499816 1.48125)
(38.2777 0.000756319 1.63276)
(38.0044 0.00117577 1.79756)
(37.7139 0.00208373 1.97605)
(37.4123 0.00499657 2.18898)
(37.0446 0.00843578 2.33918)
(36.6144 0.00828064 2.42824)
(36.1369 0.00796244 2.49609)
(35.5836 0.00332834 2.59898)
(35.0171 -0.00287539 2.77302)
(34.4482 -0.00860488 2.99969)
(33.784 -0.0184394 3.25067)
(32.9724 -0.0210184 3.52297)
(31.9212 -0.00932485 3.76539)
(30.809 0.00680473 4.03806)
(29.7231 0.0106123 4.29294)
(28.6089 0.0105787 4.36711)
(27.5341 0.0194653 4.20592)
(26.5152 0.047737 3.83533)
(25.4195 0.108494 3.13909)
(24.4322 0.295147 1.76333)
(24.0655 0.619567 0.470027)
(16.7096 0.0373288 2.67008)
(17.8658 -0.556314 2.43649)
(18.3784 -1.07941 2.1189)
(18.4353 -1.67837 2.41092)
(19.7034 -0.936597 0.255406)
(20.7735 -0.291936 0.637153)
(20.9194 -0.669769 1.84693)
(21.0309 -0.580715 1.62511)
(21.2413 -0.476834 1.2179)
(21.4789 -0.41895 0.8545)
(21.6756 -0.395919 0.530015)
(21.9047 -0.362428 0.205974)
(22.0864 -0.364112 -0.118103)
(22.3158 -0.344339 -0.448254)
(22.3398 -0.281532 -0.653902)
(22.3303 -0.204162 -0.860001)
(22.3663 -0.163692 -1.01679)
(22.5423 -0.174091 -1.10068)
(22.2928 -0.27083 -1.28541)
(39.9991 1.69786e-05 0.046338)
(39.988 1.15957e-05 0.138864)
(39.9608 5.01319e-05 0.232197)
(39.917 1.07123e-05 0.326821)
(39.8568 -7.92262e-05 0.423438)
(39.7812 -8.92416e-05 0.522746)
(39.6902 -1.41812e-05 0.625352)
(39.5826 7.50351e-05 0.731796)
(39.4568 0.000131327 0.842588)
(39.3118 0.000153598 0.95823)
(39.1472 0.000170205 1.07922)
(38.9625 0.00021856 1.20612)
(38.7567 0.000330054 1.33974)
(38.5288 0.000503083 1.48127)
(38.2782 0.000772616 1.63284)
(38.0059 0.00113558 1.7971)
(37.7158 0.0022608 1.97726)
(37.4203 0.00451083 2.1765)
(37.097 0.00798361 2.34252)
(36.6894 0.00847422 2.45712)
(36.1946 0.00960704 2.55284)
(35.6471 0.00510899 2.68157)
(35.0357 -0.00308325 2.81491)
(34.4129 -0.00874645 3.00254)
(33.7135 -0.0191927 3.23498)
(32.8524 -0.0209551 3.5123)
(31.8578 -0.00867472 3.78084)
(30.8596 0.00601309 4.08097)
(29.8227 0.00901743 4.30566)
(28.7255 0.00895346 4.3672)
(27.6808 0.0178471 4.21564)
(26.7424 0.0443087 3.90448)
(25.8994 0.100212 3.35115)
(25.2593 0.359733 2.29567)
(25.5593 1.18146 0.818229)
(26.6895 2.10498 -0.785343)
(27.7564 2.14719 -0.999269)
(27.6304 1.89175 -0.744602)
(26.8311 1.62264 -0.551204)
(26.583 1.19894 -0.593412)
(24.4577 0.282962 0.0631072)
(24.2545 0.0489105 0.167261)
(24.1179 0.124224 -0.10892)
(23.9537 0.218735 -0.4293)
(23.8058 0.281418 -0.707794)
(23.6425 0.327523 -0.944332)
(23.4692 0.393176 -1.15509)
(23.2725 0.4372 -1.33262)
(23.0872 0.465376 -1.48133)
(22.8285 0.562011 -1.63045)
(22.8246 0.668946 -1.66948)
(22.6024 0.752399 -1.71566)
(22.6844 0.773866 -1.62853)
(22.0483 0.775574 -1.82743)
(39.999 1.70183e-05 0.0534856)
(39.9885 1.41631e-05 0.160274)
(39.9625 5.3868e-05 0.268183)
(39.9209 1.46455e-05 0.377843)
(39.8634 -7.45079e-05 0.490012)
(39.791 -8.52468e-05 0.60541)
(39.7039 -1.32468e-05 0.724687)
(39.601 7.36348e-05 0.848458)
(39.4804 0.00013019 0.977338)
(39.3412 0.000155581 1.11192)
(39.183 0.000176167 1.25278)
(39.0054 0.000229661 1.40047)
(38.8077 0.000341498 1.55563)
(38.5893 0.000526157 1.71909)
(38.3501 0.000748702 1.89192)
(38.0918 0.00114229 2.07579)
(37.8155 0.0015644 2.27061)
(37.5316 0.00307027 2.4814)
(37.2341 0.00449262 2.68124)
(36.9011 0.00318475 2.86921)
(36.5016 0.0014602 3.03976)
(36.0121 -0.000214509 3.25765)
(35.3591 -0.00454206 3.43249)
(34.6962 -0.0152326 3.66449)
(34.018 -0.0285755 4.05623)
(33.1898 -0.0342256 4.54528)
(32.0926 -0.00939686 4.95353)
(30.8475 0.0205295 5.18121)
(29.6488 0.0236647 5.36396)
(28.4525 0.0196301 5.43)
(27.3038 0.0318695 5.29602)
(26.1833 0.0646207 4.95579)
(24.7899 0.154405 4.47095)
(23.7528 0.481544 3.73048)
(13.8846 0.39531 -0.0591934)
(13.3995 0.0272949 2.70051)
(13.5465 -0.291518 5.58782)
(13.0878 -0.0368983 4.59427)
(13.2073 0.065874 3.38631)
(11.5854 0.0676418 2.19984)
(14.528 -0.157123 0.98324)
(15.0621 -0.262205 0.652769)
(14.975 -0.146273 0.548087)
(15.2274 -0.0469589 0.405812)
(15.4326 0.00407138 0.220061)
(15.4678 0.0493273 0.0276836)
(15.4492 0.114415 -0.190167)
(15.456 0.168228 -0.479603)
(15.4854 0.162892 -0.778585)
(15.5872 0.105782 -1.01989)
(15.8116 0.0222959 -1.27353)
(16.3562 -0.0811804 -1.61806)
(17.0498 -0.165404 -1.91163)
(18.3166 -0.598954 -2.72937)
(39.9991 1.70167e-05 0.0534845)
(39.9886 1.4171e-05 0.160277)
(39.9626 5.38358e-05 0.268184)
(39.9207 1.47843e-05 0.377846)
(39.8633 -7.50887e-05 0.490021)
(39.791 -8.70496e-05 0.605419)
(39.7041 -1.53533e-05 0.724693)
(39.6011 7.14301e-05 0.848463)
(39.4805 0.000128013 0.977344)
(39.3413 0.000153147 1.11193)
(39.1831 0.00017477 1.2528)
(39.0056 0.00023004 1.40049)
(38.808 0.000342498 1.55566)
(38.5897 0.000528347 1.71911)
(38.3507 0.000757279 1.89197)
(38.0925 0.0011475 2.07543)
(37.8177 0.00158892 2.27026)
(37.5333 0.00308503 2.47579)
(37.2385 0.00442281 2.68137)
(36.9164 0.00316778 2.88368)
(36.5199 0.00226282 3.08099)
(36.0812 -0.000173564 3.28446)
(35.4435 -0.00612561 3.50675)
(34.7093 -0.0147758 3.72216)
(33.9596 -0.0298046 4.02406)
(33.0549 -0.0348297 4.47532)
(31.9499 -0.00768424 4.82625)
(30.8794 0.0169777 5.16693)
(29.7802 0.0209431 5.4253)
(28.6169 0.0170805 5.47211)
(27.4949 0.0301132 5.27895)
(26.4814 0.0613703 4.95341)
(25.5062 0.167681 4.50189)
(24.561 0.759789 3.893)
(25.5422 2.22494 3.19461)
(14.0529 0.0373365 2.66124)
(14.6023 0.137878 1.42528)
(14.192 0.796395 0.617617)
(12.8635 1.20226 0.158035)
(12.436 1.35104 0.512469)
(13.4713 1.14378 1.00631)
(13.7154 0.909381 0.787349)
(13.6057 0.955701 0.378791)
(13.6121 1.0366 0.0596592)
(13.7364 1.09042 -0.180959)
(13.8847 1.15603 -0.383492)
(14.0761 1.26859 -0.552132)
(14.3019 1.38632 -0.667128)
(14.5036 1.47887 -0.738814)
(14.7291 1.53917 -0.816015)
(15.0064 1.58507 -0.906697)
(15.4101 1.62187 -0.961875)
(15.8812 1.64809 -0.959435)
(16.196 1.39086 -1.09189)
(39.9991 1.59141e-05 0.0602845)
(39.9892 1.49145e-05 0.18065)
(39.9647 5.07439e-05 0.302394)
(39.9254 1.34036e-05 0.426271)
(39.8712 -7.102e-05 0.553141)
(39.8028 -7.96492e-05 0.683818)
(39.7206 -7.70531e-06 0.819075)
(39.6231 7.9872e-05 0.959651)
(39.5088 0.000139069 1.10626)
(39.3765 0.000167145 1.25955)
(39.2257 0.000190091 1.42008)
(39.0561 0.000242626 1.58829)
(38.8669 0.000353574 1.76453)
(38.6577 0.000529672 1.94908)
(38.4283 0.000752345 2.14213)
(38.1798 0.00103454 2.34388)
(37.9137 0.0013197 2.55339)
(37.634 0.00182649 2.77058)
(37.3426 0.00163931 2.98949)
(37.034 0.000377018 3.21199)
(36.6926 -0.00160879 3.45037)
(36.3133 -0.00129991 3.74364)
(35.8805 0.00161424 4.06269)
(35.2308 -0.00945331 4.40943)
(34.4972 -0.0257262 4.89087)
(33.7788 -0.0371477 5.53478)
(32.8861 -0.0117531 6.08567)
(31.7042 0.03336 6.43783)
(30.2714 0.0525297 6.63098)
(28.7292 0.0365067 6.61)
(27.4514 0.0298772 6.30265)
(26.3818 0.0377729 5.93906)
(25.3003 0.0659138 5.82004)
(24.5533 0.303878 6.48739)
(23.3946 0.859135 8.31222)
(10.7796 0.0859665 2.75909)
(10.2527 0.125852 1.19601)
(8.86538 0.460368 0.668094)
(6.33204 1.00557 0.259694)
(1.62979 0.159139 -2.27221)
(0.184566 -1.30508 -3.08081)
(2.61304 -1.50918 -1.26555)
(2.91653 -1.36435 -0.596399)
(4.08684 -1.18331 -0.656221)
(5.84561 -1.1253 -1.04616)
(7.6847 -1.18766 -1.44021)
(9.54517 -1.21242 -1.76509)
(11.4825 -1.17906 -2.10716)
(13.3687 -1.1716 -2.48093)
(15.1548 -1.19369 -2.8619)
(16.8225 -1.22114 -3.2528)
(18.5337 -1.21785 -3.66574)
(20.0754 -1.21063 -4.02794)
(22.0034 -1.25482 -4.76286)
(39.9991 1.5914e-05 0.0602832)
(39.9892 1.49146e-05 0.180653)
(39.9647 5.07445e-05 0.302394)
(39.9253 1.34033e-05 0.426273)
(39.8711 -7.10093e-05 0.55315)
(39.8029 -7.97178e-05 0.683829)
(39.7208 -7.56722e-06 0.819084)
(39.6233 7.89215e-05 0.959659)
(39.5089 0.000136395 1.10627)
(39.3766 0.000163801 1.25957)
(39.2258 0.000187692 1.4201)
(39.0563 0.000241935 1.58831)
(38.8672 0.00035341 1.76454)
(38.6581 0.000530029 1.94908)
(38.4289 0.00075269 2.14212)
(38.1803 0.00103836 2.34369)
(37.9145 0.00132253 2.553)
(37.6344 0.00184157 2.76875)
(37.3408 0.00166736 2.98698)
(37.0304 0.00036368 3.21083)
(36.6912 -0.00151908 3.45615)
(36.3187 -0.00149933 3.74016)
(35.9033 0.00259254 4.12529)
(35.3186 -0.00736268 4.45704)
(34.5111 -0.0313389 4.88065)
(33.6935 -0.0404651 5.42689)
(32.6082 -0.0192958 5.92953)
(31.3886 0.0215096 6.32543)
(30.2704 0.042641 6.59229)
(29.0438 0.0268712 6.63013)
(27.7165 0.0253093 6.35868)
(26.5701 0.0373581 5.94282)
(25.6057 0.0687873 5.67688)
(24.5292 0.358367 5.8643)
(24.8361 1.48684 7.37265)
(23.0081 2.20683 7.86942)
(21.5415 1.97827 6.19268)
(19.1425 1.92615 4.0574)
(16.579 2.0047 2.55922)
(14.9516 1.92892 1.6895)
(13.8035 1.7615 1.15093)
(12.683 1.49285 0.682406)
(12.0199 1.41219 0.359779)
(11.7566 1.42736 0.175987)
(11.748 1.45347 0.0448801)
(11.8815 1.44851 -0.0869787)
(12.2258 1.47087 -0.202127)
(12.7661 1.54188 -0.317588)
(13.3881 1.59454 -0.422896)
(14.0856 1.60023 -0.539499)
(14.8593 1.56824 -0.697497)
(15.8081 1.53773 -0.906551)
(16.8022 1.52066 -1.06645)
(17.882 1.3498 -1.46923)
(39.9992 1.57347e-05 0.066652)
(39.99 1.66294e-05 0.199727)
(39.9673 5.32427e-05 0.334422)
(39.9309 1.63947e-05 0.471628)
(39.8805 -6.71667e-05 0.612346)
(39.8169 -7.63833e-05 0.757505)
(39.7402 -6.25296e-06 0.907995)
(39.6491 8.01484e-05 1.06466)
(39.5419 0.000139723 1.22829)
(39.4174 0.000169247 1.3996)
(39.275 0.000193268 1.57913)
(39.114 0.00024648 1.76721)
(38.9337 0.000354279 1.96396)
(38.7333 0.000523513 2.16919)
(38.5125 0.000739226 2.3824)
(38.2718 0.000975928 2.60274)
(38.0129 0.00119185 2.82883)
(37.7386 0.00140923 3.05951)
(37.4523 0.00143665 3.29295)
(37.1567 0.00130383 3.53378)
(36.8529 0.000771589 3.79519)
(36.5387 0.00186574 4.11272)
(36.2218 0.00235171 4.5076)
(35.851 0.021608 5.03789)
(35.1767 0.0187492 5.68285)
(34.5486 -0.00213581 6.33753)
(33.8709 -0.0125568 6.92569)
(33.0273 -0.00435033 7.61311)
(31.8728 0.0383544 8.15805)
(30.3887 0.0802025 8.28381)
(28.5615 0.079631 7.64546)
(26.6613 0.0545898 6.8875)
(25.2941 0.0386375 6.62398)
(23.924 0.0935417 6.84705)
(24.5154 0.518615 9.45905)
(21.9974 0.482642 9.88024)
(19.0581 0.127061 7.44446)
(15.9542 -0.0731897 4.8491)
(12.9504 -0.0739799 3.01052)
(11.1068 -0.509387 1.35448)
(10.2623 -1.07547 -0.0859267)
(10.2716 -1.4845 -1.16079)
(11.09 -1.61725 -1.85213)
(12.4955 -1.58733 -2.40051)
(14.2112 -1.52964 -2.90994)
(15.985 -1.51233 -3.3596)
(17.6822 -1.48821 -3.7122)
(19.2648 -1.43649 -3.99401)
(20.6957 -1.37737 -4.24327)
(21.9589 -1.32771 -4.46665)
(23.0721 -1.27614 -4.66958)
(24.1037 -1.2124 -4.83626)
(25.0394 -1.14124 -4.99633)
(25.7693 -1.09902 -5.19436)
(39.9992 1.57347e-05 0.0666504)
(39.9901 1.66293e-05 0.199728)
(39.9673 5.32439e-05 0.334419)
(39.9308 1.63926e-05 0.471627)
(39.8804 -6.71545e-05 0.612351)
(39.8169 -7.64258e-05 0.757512)
(39.7404 -6.03854e-06 0.907999)
(39.6493 7.9327e-05 1.06466)
(39.5421 0.000137138 1.2283)
(39.4175 0.000166075 1.39961)
(39.2751 0.000190453 1.57913)
(39.1142 0.000241499 1.76722)
(38.934 0.00034947 1.96395)
(38.7337 0.000521347 2.16918)
(38.513 0.000733723 2.38237)
(38.2723 0.000969015 2.60267)
(38.0133 0.00118916 2.82866)
(37.7389 0.00140936 3.05903)
(37.4523 0.00144975 3.2929)
(37.1559 0.00130033 3.5345)
(36.8523 0.000835282 3.79889)
(36.5408 0.0014973 4.10975)
(36.2274 0.00379366 4.52063)
(35.9077 0.0163551 5.00948)
(35.4172 0.0135862 5.64502)
(34.6805 -0.00480788 6.28449)
(33.8911 -0.019685 7.02404)
(32.6651 -0.00890094 7.58011)
(31.3725 0.0319004 7.89047)
(30.1235 0.0679227 8.00729)
(28.7361 0.0787308 7.80699)
(27.1542 0.0498681 7.16052)
(25.5873 0.0397611 6.63931)
(24.0671 0.0309039 6.86315)
(23.4389 0.422786 8.16301)
(24.0669 0.986503 9.09)
(24.322 1.23412 8.43718)
(23.5649 1.34222 7.0236)
(22.2538 1.3963 5.64975)
(21.0321 1.34179 4.29357)
(19.8064 1.1854 3.04231)
(18.693 1.03247 2.10698)
(17.9453 0.976541 1.42192)
(17.5904 0.993318 0.8834)
(17.5134 1.02343 0.424469)
(17.6923 1.00393 0.0224685)
(18.1169 0.959979 -0.323888)
(18.7266 0.915794 -0.630644)
(19.4182 0.859709 -0.918225)
(20.1513 0.772337 -1.20702)
(20.9178 0.667003 -1.486)
(21.767 0.560711 -1.77806)
(22.5753 0.495076 -2.01539)
(23.2864 0.28777 -2.5783)
(39.9992 1.42952e-05 0.0725086)
(39.991 1.5882e-05 0.21727)
(39.9703 4.74984e-05 0.363895)
(39.9372 1.17701e-05 0.513415)
(39.8912 -6.70417e-05 0.666979)
(39.833 -7.39854e-05 0.825646)
(39.7628 -4.3159e-06 0.990434)
(39.679 8.05688e-05 1.16232)
(39.58 0.000139083 1.34221)
(39.4643 0.000169366 1.53091)
(39.3312 0.000192859 1.72902)
(39.1798 0.000243806 1.93682)
(39.0089 0.000346527 2.15426)
(38.8174 0.000512455 2.38078)
(38.6045 0.000725159 2.61524)
(38.3702 0.000955548 2.85581)
(38.116 0.00116676 3.09996)
(37.8454 0.00135275 3.34492)
(37.5651 0.00154417 3.58872)
(37.2838 0.00161126 3.83366)
(37.0181 0.00176868 4.09272)
(36.7727 0.0013453 4.39386)
(36.5805 1.83567e-05 4.79385)