/*--------------------------------*- C++ -*----------------------------------*\
| =========                 |                                                 |
| \\      /  F ield         | OpenFOAM: The Open Source CFD Toolbox           |
|  \\    /   O peration     | Version:  4.1                                   |
|   \\  /    A nd           | Web:      www.OpenFOAM.org                      |
|    \\/     M anipulation  |                                                 |
\*---------------------------------------------------------------------------*/
FoamFile
{
    version     2.0;
    format      ascii;
    class       volVectorField;
    location    "98";
    object      U;
}
// * * * * * * * * * * * * * * * * * * * * * * * * * * * * * * * * * * * * * //

dimensions      [0 1 -1 0 0 0 0];

internalField   nonuniform List<vector> 
4432
(
(-151184 -3083.32 -1650.59)
(-152216 -3156.77 -1677.92)
(-152804 -3142.02 -1650.14)
(-153500 -3169.66 -1662.31)
(-154211 -3185.93 -1671.56)
(-154956 -3201.99 -1678.21)
(-155705 -3221.34 -1700.39)
(-156459 -3240.6 -1734.71)
(-157200 -3259.89 -1786.63)
(-157914 -3279.33 -1860)
(-158580 -3299.08 -1957.82)
(-159174 -3318.9 -2084.07)
(-159674 -3338.83 -2241.81)
(-160050 -3359.16 -2432.19)
(-160284 -3380.29 -2651.34)
(-160344 -3402.45 -2894.34)
(-160202 -3425.98 -3156.05)
(-159824 -3453.48 -3437.66)
(-159185 -3485.39 -3735.88)
(-158262 -3521.48 -4043.71)
(-157042 -3561.14 -4352.41)
(-155519 -3603.95 -4651.15)
(-153705 -3648.74 -4927.71)
(-151618 -3695.98 -5172.34)
(-149302 -3744.44 -5376.2)
(-146801 -3793.08 -5534.2)
(-144177 -3840.13 -5642.89)
(-141483 -3884.2 -5702.85)
(-138780 -3923.47 -5716.12)
(-136110 -3956.64 -5687.16)
(-133518 -3982.6 -5621.07)
(-131036 -4000.75 -5523.26)
(-128683 -4011.19 -5400.67)
(-126480 -4014.1 -5258.97)
(-124428 -4009.52 -5105.13)
(-122530 -3996.91 -4945.05)
(-120789 -3978.56 -4784.84)
(-119184 -3962.35 -4641.84)
(-117676 -3949.67 -4532.4)
(-116256 -3935.45 -4446.94)
(-114903 -3915.04 -4376.6)
(-113524 -3884.18 -4317.69)
(-111879 -3837.86 -4258.83)
(-109726 -3770.68 -4162.16)
(-107332 -3684.86 -3977.08)
(-105824 -3581.44 -3698.01)
(-105978 -3456.55 -3395.51)
(-105424 -3267 -2879.51)
(-99251.8 -2729.31 -1614.01)
(-89751.3 -1301.92 1980.57)
(-97539.9 2454.36 7793.57)
(-137216 9278.55 17524.8)
(-175826 26530.1 -372.237)
(-53018.5 12389.7 -6054.14)
(-185435 3353.52 -165.119)
(-186238 3328.28 -149.513)
(-186790 3357.73 -165.372)
(-187430 3355.43 -163.646)
(-188070 3361.54 -174.933)
(-188742 3367.79 -183.764)
(-189416 3370.97 -203.841)
(-190091 3373.68 -233.834)
(-190754 3375.6 -278.44)
(-191393 3376.34 -340.07)
(-191988 3375.43 -421.156)
(-192520 3372.77 -524.605)
(-192970 3367.96 -652.689)
(-193313 3360.48 -805.42)
(-193532 3349.65 -980.578)
(-193599 3335.06 -1173.86)
(-193490 3317.14 -1381.03)
(-193177 3295.05 -1599.21)
(-192655 3271.78 -1825.89)
(-191909 3247.07 -2053.7)
(-190931 3221.81 -2274.86)
(-189721 3196.19 -2480.2)
(-188294 3170.33 -2660.01)
(-186675 3144.85 -2806.1)
(-184905 3119.8 -2912.62)
(-183024 3095.24 -2977.19)
(-181084 3070.48 -2999.57)
(-179126 3045.61 -2982.9)
(-177196 3019.82 -2932.06)
(-175320 2992.85 -2853.44)
(-173525 2963.59 -2754.06)
(-171824 2930.8 -2640.95)
(-170219 2893.11 -2520.98)
(-168711 2849.47 -2400.53)
(-167286 2799.02 -2285.8)
(-165929 2739.96 -2181.2)
(-164624 2669.06 -2088.74)
(-163347 2587.46 -2019.72)
(-162080 2497.17 -1975.4)
(-160799 2402.02 -1953.91)
(-159472 2303.34 -1950.19)
(-158000 2202.76 -1957.4)
(-156169 2102.48 -1958.56)
(-153758 2003.43 -1916.42)
(-150921 1900.84 -1779.66)
(-148468 1789.03 -1543.38)
(-146897 1668.93 -1276.35)
(-144039 1565.74 -854.058)
(-135520 1659.85 222.975)
(-122689 2308.05 3122.37)
(-125509 4140.38 6987.97)
(-159993 6211.06 9699.05)
(-157286 14294.8 -7283.27)
(59456.7 8517.48 -17045.3)
(-266779 -1424.59 2980.32)
(-266850 -1432.85 3043.21)
(-266980 -1439.9 3116.99)
(-267118 -1436.44 3179.43)
(-267261 -1435.68 3238.5)
(-267426 -1433.28 3299.44)
(-267602 -1430.57 3350.4)
(-267784 -1426.76 3389.8)
(-267969 -1422.34 3412.98)
(-268153 -1417.08 3417.16)
(-268331 -1411.5 3399.51)
(-268495 -1405.65 3356.99)
(-268636 -1399.77 3286.98)
(-268746 -1394.06 3187.54)
(-268815 -1389.87 3059.34)
(-268835 -1387.88 2903.97)
(-268796 -1388.62 2727.83)
(-268703 -1391.04 2537.26)
(-268576 -1393.8 2337.83)
(-268407 -1396.26 2131.75)
(-268198 -1397.84 1931.55)
(-267954 -1398.47 1751.63)
(-267687 -1397.97 1608.45)
(-267409 -1396.48 1513.84)
(-267145 -1394.22 1478.6)
(-266907 -1392.11 1507.38)
(-266723 -1390.86 1602.19)
(-266604 -1391.66 1759.46)
(-266568 -1395.63 1973.81)
(-266619 -1404.12 2236.87)
(-266768 -1418.46 2540.79)
(-267016 -1440.39 2877.52)
(-267370 -1471.45 3239.88)
(-267836 -1513.18 3621.93)
(-268418 -1566.8 4017.76)
(-269131 -1633.47 4422.36)
(-269984 -1714.52 4833)
(-271005 -1809.23 5258.17)
(-272261 -1916.45 5711.59)
(-273813 -2039.54 6197.89)
(-275711 -2181.22 6718.58)
(-277970 -2341.11 7279.59)
(-280541 -2516.2 7896.65)
(-283379 -2704.26 8605.01)
(-286725 -2902.4 9446.01)
(-291389 -3120.12 10412.2)
(-298098 -3367.86 11414.3)
(-305736 -3607.14 12284.2)
(-310159 -3668.28 13104.1)
(-312741 -3213.75 14534.4)
(-326101 -1818.22 17718)
(-385103 1269.58 14016.7)
(-394564 14803.6 -11233.5)
(-453528 19873.1 -31139.2)
(-305374 1403.83 1536.68)
(-305371 1371.75 1606.33)
(-305442 1353.13 1636.69)
(-305498 1339.45 1691.98)
(-305568 1323.93 1734.77)
(-305650 1309.03 1779.34)
(-305739 1294 1816.17)
(-305828 1279.6 1843.18)
(-305914 1265.68 1855.52)
(-305995 1252.66 1850.93)
(-306065 1240.58 1826.63)
(-306119 1229.88 1779.62)
(-306148 1220.75 1707.08)
(-306145 1213.76 1607.34)
(-306104 1208.03 1480.96)
(-306017 1203.55 1330.02)
(-305871 1199.83 1160)
(-305667 1196.23 978.46)
(-305416 1190.44 788.528)
(-305110 1183.28 591.821)
(-304748 1175.16 398.728)
(-304333 1166.12 223.115)
(-303877 1156.35 79.3708)
(-303392 1145.98 -20.3133)
(-302900 1134.86 -66.6736)
(-302418 1122.74 -55.1073)
(-301973 1108.99 15.7717)
(-301582 1093.1 142.887)
(-301272 1074.38 321.435)
(-301058 1052.11 544.768)
(-300962 1025.18 806.666)
(-301001 992.376 1101.09)
(-301195 952.522 1423.2)
(-301568 904.399 1769)
(-302146 847.24 2134.39)
(-302960 779.994 2516)
(-304040 700.629 2913.93)
(-305427 607.035 3330.75)
(-307182 496.412 3771.55)
(-309381 364.348 4241.11)
(-312106 207.882 4742.37)
(-315417 25.6481 5276.95)
(-319292 -181.623 5854.19)
(-323696 -414.437 6501.47)
(-328844 -673.24 7251.22)
(-335436 -978.341 8105.8)
(-344147 -1357.01 8972.1)
(-353674 -1786.33 9713.51)
(-359343 -2112.61 10697.4)
(-360660 -2309.25 13293.9)
(-367681 -1463.8 17253.7)
(-392362 -345.014 9808.83)
(-345831 12351 -21867.9)
(-313844 -8253 -11394.3)
(-223277 -2351.94 -1636.76)
(-223015 -2333.43 -1559.12)
(-222923 -2353.04 -1547.8)
(-222797 -2347.68 -1510.46)
(-222678 -2350.66 -1492.14)
(-222560 -2354.16 -1483.52)
(-222447 -2359.97 -1485.18)
(-222337 -2366.77 -1502.15)
(-222229 -2375.87 -1538.2)
(-222127 -2387.27 -1595.88)
(-222033 -2401.8 -1679.59)
(-221949 -2420.03 -1792.83)
(-221877 -2442.9 -1940.11)
(-221818 -2471.01 -2125.14)
(-221776 -2504.69 -2351.46)
(-221754 -2542.98 -2617.78)
(-221736 -2584.22 -2922.79)
(-221668 -2623.67 -3264.28)
(-221494 -2661.48 -3641.6)
(-221202 -2696.99 -4045.07)
(-220779 -2729.84 -4457.68)
(-220226 -2757.57 -4855.05)
(-219556 -2780.4 -5212.26)
(-218796 -2795.97 -5507.62)
(-217985 -2804.56 -5724.88)
(-217164 -2806.62 -5856.79)
(-216377 -2803.78 -5902.19)
(-215662 -2798.05 -5868.55)
(-215046 -2791.44 -5766.17)
(-214547 -2785.54 -5608.76)
(-214173 -2781.35 -5408.81)
(-213919 -2780.35 -5178.71)
(-213776 -2783.19 -4927.73)
(-213727 -2790.11 -4664.02)
(-213749 -2801.18 -4394.21)
(-213819 -2817.18 -4123.82)
(-213905 -2839.14 -3857.47)
(-213970 -2869.82 -3597.72)
(-213922 -2904.77 -3355.39)
(-213714 -2938.78 -3134.59)
(-213293 -2967.45 -2943.55)
(-212554 -2989.63 -2789.06)
(-211261 -3004.21 -2670.75)
(-209164 -3008.02 -2569.53)
(-206363 -2999.95 -2464.47)
(-203606 -2977.15 -2387.96)
(-201239 -2924.09 -2537.78)
(-196766 -2715.94 -3199.56)
(-185792 -1851.11 -4044.41)
(-170497 221.638 -4309.36)
(-173214 4295.26 -6323.36)
(-198722 7641.79 -12831.3)
(-203597 26076.5 -18309)
(-95061.7 12475.8 -3738)
(-252454 2777.14 -111.593)
(-252036 2788.76 -64.274)
(-251897 2771.73 -48.3298)
(-251665 2776.62 -23.8666)
(-251481 2775.74 -10.5613)
(-251295 2775.25 -6.6655)
(-251117 2773.75 -10.29)
(-250944 2772.15 -27.0235)
(-250776 2769.15 -60.4022)
(-250615 2764.34 -113.316)
(-250461 2756.72 -189.843)
(-250316 2745.31 -293.722)
(-250182 2728.82 -429.428)
(-250060 2706.23 -601.748)
(-249951 2676.67 -813.337)
(-249858 2640.06 -1063.87)
(-249780 2597.26 -1348.88)
(-249702 2552.46 -1662.46)
(-249566 2509.2 -2004.1)
(-249365 2468.26 -2366.46)
(-249091 2429.47 -2733.34)
(-248742 2395.03 -3084.14)
(-248330 2366.09 -3396.64)
(-247870 2344.38 -3652.14)
(-247385 2329.05 -3836.57)
(-246896 2319.3 -3943.86)
(-246426 2313.34 -3974.05)
(-245993 2309.22 -3934.05)
(-245607 2305.32 -3832.97)
(-245271 2300.32 -3682.21)
(-244981 2292.62 -3491.77)
(-244726 2281.25 -3270.7)
(-244493 2265.59 -3025.62)
(-244264 2245.01 -2761.46)
(-244018 2218.96 -2482.69)
(-243731 2186.05 -2193.01)
(-243377 2144.1 -1895.19)
(-242934 2088.91 -1589.9)
(-242364 2021.33 -1278.98)
(-241630 1945.71 -964.837)
(-240683 1864.75 -652.826)
(-239417 1776.51 -352.473)
(-237629 1679.27 -73.1788)
(-235083 1572.15 190.014)
(-231851 1455.7 446.578)
(-228622 1323.93 665.171)
(-225608 1185.3 683.359)
(-220315 1132.04 289.363)
(-208430 1500.06 -342.443)
(-191740 2685.42 -1281.47)
(-191450 4794.52 -3145.24)
(-202917 4207.36 -8119.9)
(-204557 5655.05 -9993.99)
(16882.5 9469.33 -1880.76)
(-242809 -2915.21 1879.27)
(-242608 -2912.76 2060.21)
(-242563 -2904.37 2104.86)
(-242502 -2896.53 2184.12)
(-242487 -2888.81 2247.71)
(-242497 -2882.36 2302.67)
(-242533 -2876.03 2346.46)
(-242593 -2869.91 2377.23)
(-242671 -2864.42 2391.3)
(-242764 -2859.4 2384.04)
(-242865 -2855.11 2349.28)
(-242966 -2851.54 2281.43)
(-243056 -2848.85 2173.48)
(-243121 -2847.94 2018.08)
(-243143 -2849.1 1809.11)
(-243106 -2853.53 1544.69)
(-242991 -2860.15 1223.33)
(-242819 -2872.46 855.56)
(-242586 -2893.3 449.701)
(-242271 -2923.87 24.0581)
(-241861 -2963.8 -399.565)
(-241352 -3014.43 -784.39)
(-240754 -3075.22 -1096.08)
(-240091 -3144.7 -1300.05)
(-239393 -3220.51 -1378.71)
(-238696 -3300.32 -1325.06)
(-238035 -3382.38 -1146.14)
(-237441 -3464.98 -857.93)
(-236941 -3546.91 -480.606)
(-236552 -3626.92 -35.4158)
(-236289 -3704.31 458.807)
(-236159 -3778.48 985.796)
(-236173 -3849.17 1533.58)
(-236338 -3915.83 2092.64)
(-236666 -3978.15 2656)
(-237174 -4035.84 3217.45)
(-237882 -4088.4 3770.86)
(-238813 -4138.96 4311.28)
(-240061 -4192.56 4851.69)
(-241695 -4254.38 5397.14)
(-243788 -4327.75 5947.97)
(-246376 -4416.54 6501.75)
(-249388 -4527.94 7049.64)
(-252731 -4672.67 7586.73)
(-256680 -4864.46 8121.27)
(-262371 -5131.25 8668.62)
(-270969 -5501.76 9198.28)
(-281094 -5944.06 9568.23)
(-287451 -6266.2 9691.78)
(-291068 -6462.42 9701.44)
(-308539 -4960.5 9658.02)
(-404382 -4798.95 5486.76)
(-504175 5600.55 -378.986)
(-459466 14507.8 -22611.7)
(-234154 2544.28 912.872)
(-234164 2481.26 1062.92)
(-234263 2449.37 1116.85)
(-234342 2413.75 1174.17)
(-234473 2377.58 1223.11)
(-234622 2340.4 1259.41)
(-234796 2303.23 1283.97)
(-234992 2266.23 1292.85)
(-235208 2229.2 1283.94)
(-235441 2192.52 1252.55)
(-235687 2156.17 1193.21)
(-235941 2120.45 1100.75)
(-236195 2085.49 969.242)
(-236440 2050.65 792.211)
(-236661 2016.05 564.243)
(-236843 1980.9 282.691)
(-236970 1946.63 -54.4005)
(-237023 1910.27 -444.521)
(-236995 1867.82 -874.932)
(-236871 1817.56 -1327.3)
(-236636 1760.24 -1777.34)
(-236287 1694.66 -2191.78)
(-235837 1621.4 -2532.61)
(-235311 1541.93 -2767.63)
(-234746 1458.3 -2875.24)
(-234180 1372.34 -2848.61)
(-233651 1285.26 -2693.64)
(-233191 1198.15 -2425.44)
(-232822 1111.75 -2063.05)
(-232555 1027.08 -1626.8)
(-232394 944.737 -1134.87)
(-232339 865.469 -603.182)
(-232383 789.798 -44.584)
(-232522 718.673 530.603)
(-232749 653.031 1114.53)
(-233062 593.794 1701.04)
(-233463 542.531 2283.66)
(-233942 500.288 2856.81)
(-234511 462.489 3417.8)
(-235188 425.085 3963.68)
(-235985 385.917 4489.03)
(-236862 341.044 4985.5)
(-237661 279.233 5440.68)
(-238194 187.076 5867.77)
(-238633 47.4349 6286)
(-239857 -171.618 6707.9)
(-242632 -497.484 7070.86)
(-244987 -916.491 7212.47)
(-241796 -1274.61 6838.18)
(-233758 -1783.78 5367.85)
(-239458 -1212.51 764.657)
(-273763 -5313.6 -3828.83)
(-272702 8832.96 -6534.66)
(-218052 -2246.85 -883.2)
(-225351 -1097.3 -1103.94)
(-225027 -1088.09 -938.099)
(-224942 -1067.55 -854.036)
(-224801 -1052.05 -767.825)
(-224710 -1033.31 -684.801)
(-224639 -1014.6 -609.144)
(-224596 -994.609 -544.207)
(-224577 -974.056 -494.155)
(-224584 -952.875 -463.342)
(-224616 -931.057 -458.464)
(-224673 -909.085 -487.359)
(-224754 -887.283 -557.022)
(-224855 -865.875 -674.965)
(-224973 -845.328 -849.801)
(-225099 -825.829 -1087.69)
(-225224 -808.099 -1393.92)
(-225333 -793.055 -1766.61)
(-225402 -781.95 -2207.95)
(-225400 -771.558 -2712.95)
(-225303 -764.368 -3270.36)
(-225088 -760.512 -3849.07)
(-224751 -764.876 -4406)
(-224312 -776.87 -4884.56)
(-223815 -800.299 -5240.44)
(-223316 -833.813 -5449.18)
(-222867 -878.795 -5510.96)
(-222512 -934.594 -5444.85)
(-222277 -999.669 -5279.1)
(-222170 -1071.25 -5044.13)
(-222184 -1146.04 -4766.66)
(-222301 -1221.07 -4467.44)
(-222494 -1294.13 -4160.58)
(-222737 -1364.05 -3855.13)
(-223002 -1430.01 -3555.63)
(-223263 -1491.54 -3263.36)
(-223499 -1548.71 -2978.18)
(-223687 -1602.08 -2699.36)
(-223813 -1653.1 -2423.61)
(-223861 -1698.7 -2154.74)
(-223819 -1734.74 -1905.8)
(-223707 -1758.67 -1697.65)
(-223468 -1766.08 -1542.48)
(-222931 -1747.24 -1457.96)
(-221888 -1688.38 -1474.56)
(-220475 -1569.75 -1621.27)
(-219501 -1375.81 -1905.8)
(-219637 -1093.96 -2316.08)
(-218854 -674.887 -3017.94)
(-212426 53.2649 -4413.48)
(-199465 1250.08 -7082.44)
(-200951 2742.66 -7531.56)
(-232279 2248.39 -3750.25)
(-287948 21617.1 30860.3)
(-233439 20335.7 12081.5)
(-231180 5018.78 21.7635)
(-231218 5020.2 182.059)
(-231327 5025.77 238.063)
(-231445 5033.99 300.928)
(-231608 5043.85 357.39)
(-231803 5055.65 405.44)
(-232030 5069.76 441.288)
(-232288 5085.65 459.091)
(-232575 5103.41 454.63)
(-232889 5122.83 420.635)
(-233228 5143.19 349.424)
(-233585 5163.82 233.271)
(-233955 5183.83 64.0851)
(-234326 5202.19 -166.533)
(-234686 5217.62 -465.964)
(-235018 5228.22 -839.072)
(-235303 5231.82 -1288.64)
(-235522 5225.69 -1815.63)
(-235652 5211.36 -2415.17)
(-235663 5186.08 -3070.67)
(-235524 5149.63 -3751.33)
(-235223 5096.72 -4412.66)
(-234777 5026.99 -5008.88)
(-234229 4940.45 -5490.16)
(-233632 4842.63 -5824.79)
(-233042 4735.49 -6006.7)
(-232508 4622.1 -6049.52)
(-232062 4505.1 -5978.68)
(-231720 4386.95 -5823.41)
(-231481 4269.8 -5611.43)
(-231332 4154.41 -5367.14)
(-231252 4040.71 -5109.41)
(-231213 3927.7 -4851.83)
(-231189 3814.17 -4603.35)
(-231148 3698.41 -4369.48)
(-231058 3578.72 -4153.24)
(-230888 3452.49 -3957.09)
(-230614 3317 -3789.3)
(-230211 3172.09 -3653.28)
(-229655 3020.94 -3549.86)
(-228915 2865.73 -3479.13)
(-227907 2709.84 -3442.29)
(-226452 2554.77 -3448.71)
(-224322 2412.19 -3522.5)
(-221624 2296.5 -3677.96)
(-219080 2220.54 -3887.05)
(-217262 2190.69 -4110.52)
(-214274 2241.58 -4514.67)
(-205785 2452.39 -5631.97)
(-191633 2653.41 -7735.26)
(-190928 2330.16 -8172.72)
(-205678 -972.589 -6397.76)
(-196494 9501.23 24870.1)
(-42539.1 9400.16 20538.1)
(-227138 -3371.18 -3329.72)
(-226866 -3378.62 -3124.09)
(-226740 -3363.27 -2998.37)
(-226590 -3353.96 -2871.45)
(-226472 -3342.13 -2748.52)
(-226375 -3329.18 -2636.6)
(-226302 -3313.91 -2538.61)
(-226252 -3297.3 -2460.18)
(-226225 -3279.47 -2406.95)
(-226220 -3260.04 -2386.08)
(-226233 -3238.36 -2405.6)
(-226258 -3214.32 -2473.83)
(-226284 -3187.57 -2599.81)
(-226297 -3157.89 -2792.93)
(-226277 -3125.48 -3061.46)
(-226195 -3089.78 -3411.19)
(-226021 -3051.85 -3841.63)
(-225722 -3009.17 -4349.41)
(-225259 -2962 -4918.77)
(-224583 -2906.25 -5535.08)
(-223634 -2841.52 -6157.96)
(-222377 -2763.07 -6725.34)
(-220822 -2671.53 -7139.44)
(-219037 -2566.65 -7323.13)
(-217124 -2450.75 -7231.02)
(-215197 -2327.3 -6875.1)
(-213355 -2201.79 -6299.45)
(-211676 -2080.75 -5566.49)
(-210205 -1969.84 -4739.31)
(-208961 -1874.08 -3872.47)
(-207944 -1797.72 -3008.61)
(-207138 -1744.34 -2178.94)
(-206518 -1717.16 -1405.82)
(-206058 -1718.23 -704.493)
(-205727 -1747.61 -84.0999)
(-205497 -1804.14 449.793)
(-205341 -1883.49 893.595)
(-205232 -1980.2 1244.82)
(-205148 -2087.49 1502.43)
(-205072 -2201.59 1658.9)
(-204963 -2312.24 1725.81)
(-204734 -2405.8 1708.65)
(-204188 -2465.99 1617.42)
(-203089 -2470.87 1453.83)
(-201565 -2401.59 1220.66)
(-200504 -2238.89 943.195)
(-200800 -1945.28 688.823)
(-200758 -1430.93 456.058)
(-195349 -592.847 -8.61754)
(-183587 986.55 -475.41)
(-184813 4261.99 -301.092)
(-205308 6648.71 1206.37)
(-206487 18017.1 33593.6)
(-100074 12110.1 24545.6)
(-235332 7144.42 4190.63)
(-235159 7205.87 4549.22)
(-235092 7226.84 4715.2)
(-235015 7256.17 4917.65)
(-234962 7279.54 5105.41)
(-234931 7300.71 5285.35)
(-234922 7319.22 5451.58)
(-234934 7333.9 5598.42)
(-234967 7344.21 5719.6)
(-235019 7349.92 5807.48)
(-235087 7351.06 5853.67)
(-235167 7347.17 5848.86)
(-235251 7337.82 5782.41)
(-235329 7322.65 5643.17)
(-235382 7300.7 5419.96)
(-235391 7271.82 5103.63)
(-235330 7234.43 4689.84)
(-235173 7190.38 4179.75)
(-234888 7139.16 3578.33)
(-234435 7084.55 2896.66)
(-233768 7026.01 2161.8)
(-232860 6967.66 1435.25)
(-231722 6911.61 810.693)
(-230421 6867.49 370.846)
(-229037 6835.44 161.036)
(-227650 6811.27 181.799)
(-226322 6789.23 398.552)
(-225095 6764.05 761.362)
(-223985 6731.96 1220.79)
(-222988 6690.04 1734.02)
(-222083 6634.66 2264.61)
(-221247 6562.79 2787.81)
(-220453 6477.25 3289.3)
(-219671 6377.02 3758.38)
(-218867 6261.41 4191.68)
(-218013 6130.53 4590.36)
(-217076 5984.25 4953.05)
(-216010 5825.89 5286.97)
(-214781 5657.56 5593.9)
(-213360 5481.53 5873.54)
(-211712 5302.19 6122.46)
(-209742 5125.7 6332.35)
(-207236 4959.5 6482.08)
(-203931 4814.24 6530.55)
(-199884 4699.08 6423.38)
(-195855 4619.05 6112.21)
(-192593 4589.72 5508.85)
(-188409 4673.09 4327.81)
(-178114 4901.22 2025.66)
(-161892 5625.85 -299.048)
(-158964 7324.84 -1331.44)
(-177137 5620.95 -4083.38)
(-211093 6176.86 -11903.7)
(9245 9826.9 8509.02)
(-233764 -4315.41 -4547.16)
(-233888 -4334.49 -4394.23)
(-233978 -4342.07 -4309.76)
(-234106 -4343.79 -4218.86)
(-234252 -4344.7 -4140.08)
(-234429 -4340.04 -4072.3)
(-234634 -4332.15 -4018.1)
(-234867 -4321.17 -3979.58)
(-235131 -4306.75 -3960.49)
(-235426 -4288.3 -3965.91)
(-235751 -4265.42 -4002.4)
(-236104 -4237.81 -4080.12)
(-236481 -4205.28 -4212.93)
(-236874 -4167.81 -4418.16)
(-237268 -4125.29 -4716.62)
(-237640 -4077.75 -5127.42)
(-237965 -4025.66 -5668.06)
(-238210 -3968.31 -6339.74)
(-238341 -3908.51 -7142.06)
(-238301 -3845.23 -8059.64)
(-238008 -3783.75 -9068.07)
(-237386 -3724.3 -10081.3)
(-236417 -3673.25 -10962.3)
(-235163 -3627.46 -11558.9)
(-233733 -3587.38 -11794)
(-232239 -3545.61 -11676.2)
(-230764 -3496.35 -11272.5)
(-229356 -3434.12 -10667.6)
(-228035 -3355.5 -9939.39)
(-226802 -3258.97 -9148.59)
(-225647 -3145.79 -8337.14)
(-224553 -3017.82 -7531.42)
(-223503 -2877.16 -6747.14)
(-222481 -2726.12 -5992.9)
(-221470 -2564.84 -5272.76)
(-220458 -2393.46 -4589.16)
(-219433 -2212.87 -3944.25)
(-218385 -2023.92 -3342.78)
(-217308 -1826.25 -2791.83)
(-216205 -1619.28 -2305.36)
(-215070 -1403.68 -1898.79)
(-213839 -1186.13 -1587.63)
(-212344 -988.68 -1391.3)
(-210257 -831.518 -1386.79)
(-207647 -752.886 -1620.33)
(-205247 -805.205 -2115.72)
(-203715 -1102.52 -2941.73)
(-201125 -1817.24 -4320.24)
(-192194 -3014.6 -6298.01)
(-177480 -4106.47 -7304.29)
(-177142 -4966.02 -8219.32)
(-190832 -6230.61 -10149.2)
(-195452 -28018.2 -13028.7)
(22875.7 1606.21 -9300.09)
(-233324 4649.59 4574.22)
(-233000 4569.19 4807.58)
(-232881 4502.33 4935.65)
(-232736 4422.82 5056.51)
(-232629 4334 5166.42)
(-232551 4236.78 5260.59)
(-232505 4133.47 5338.98)
(-232493 4023.6 5399.07)
(-232515 3906.27 5436.2)
(-232572 3781.82 5444.69)
(-232663 3650.71 5416.81)
(-232787 3513.42 5341.67)
(-232937 3371.06 5204.93)
(-233105 3225.13 4988.77)
(-233276 3078.08 4672.91)
(-233426 2932.96 4237.09)
(-233525 2793.14 3666.39)
(-233543 2663.78 2955.29)
(-233442 2546.71 2108.33)
(-233168 2447.67 1136.14)
(-232644 2365.68 65.0969)
(-231779 2299.1 -1026.26)
(-230527 2230.03 -1994.3)
(-228953 2150.06 -2695.29)
(-227202 2053.94 -3054.53)
(-225421 1947.69 -3081.09)
(-223726 1835.92 -2841.99)
(-222179 1722.23 -2422.92)
(-220804 1608.75 -1901.8)
(-219596 1496.9 -1339.54)
(-218529 1387.74 -777.449)
(-217567 1280.16 -233.013)
(-216671 1169.8 279.974)
(-215804 1058 752.694)
(-214933 949.38 1189.24)
(-214013 846.474 1589.5)
(-213011 753.471 1953.53)
(-211905 675.783 2280.58)
(-210677 620.534 2567.64)
(-209324 595.403 2805.69)
(-207840 607.441 2979.71)
(-206174 658.831 3064.79)
(-204174 739.685 3014.98)
(-201653 836.615 2762.15)
(-198741 926.299 2225.37)
(-196298 954.809 1311.46)
(-195243 790.888 -177.39)
(-193980 241.97 -2601.68)
(-186720 -639.238 -6251.56)
(-170838 -1373.06 -10869.7)
(-161795 -2607.26 -18817.9)
(-179985 -3706.74 -22826.6)
(-194551 -7470.48 -47178.8)
(-40644.8 2165.03 -15044.3)
(-229524 -3072.11 -3728.69)
(-229489 -3096.95 -3439.89)
(-229558 -3095.07 -3291.69)
(-229635 -3105.6 -3092.57)
(-229751 -3108.15 -2900.32)
(-229900 -3106.26 -2700.25)
(-230085 -3098.51 -2498.3)
(-230307 -3085.79 -2298.67)
(-230569 -3068.02 -2110.49)
(-230875 -3045.03 -1945.23)
(-231227 -3017.03 -1818.11)
(-231630 -2984.11 -1748.69)
(-232085 -2946.19 -1760.17)
(-232591 -2903.06 -1879.07)
(-233138 -2854.15 -2133.21)
(-233707 -2799.51 -2548.43)
(-234265 -2736.99 -3142.03)
(-234782 -2667.89 -3912.79)
(-235230 -2587.54 -4851.22)
(-235563 -2497.14 -5940.32)
(-235694 -2395.25 -7161.45)
(-235518 -2285.12 -8412.31)
(-235032 -2162.07 -9480.39)
(-234396 -2031.73 -10104.5)
(-233870 -1901.01 -10162.7)
(-233663 -1780.3 -9706.78)
(-233873 -1676.78 -8886.79)
(-234492 -1593.35 -7852.73)
(-235460 -1529.91 -6723.86)
(-236691 -1484.18 -5580.36)
(-238104 -1452.83 -4467.91)
(-239626 -1434.7 -3408.65)
(-241201 -1431.24 -2410.8)
(-242782 -1443.84 -1475.99)
(-244336 -1472.2 -601.907)
(-245838 -1515.9 214.897)
(-247272 -1573.96 975.7)
(-248631 -1644.56 1679.76)
(-249917 -1725.31 2322.21)
(-251151 -1811.47 2890.84)
(-252364 -1896.75 3370.11)
(-253563 -1977.61 3736.27)
(-254588 -2053.26 3980.24)
(-255416 -2131.27 4076.66)
(-256223 -2232.41 3973.37)
(-257808 -2389.42 3562.77)
(-260929 -2638.78 2633.51)
(-264232 -3018.02 865.316)
(-262977 -3616.01 -2030.61)
(-255582 -5067.52 -6688.03)
(-246427 -8481.48 -17358.4)
(-263763 -15428.3 -31834)
(-219843 -13261.3 -64128.2)
(-113207 -8022.18 -26672.8)
(-244041 2329.77 3694.27)
(-244346 2350.23 3935.28)
(-244445 2383.24 4086.03)
(-244629 2401.75 4251.18)
(-244793 2431.26 4421.12)
(-244977 2464.42 4593.96)
(-245172 2503.96 4766.21)
(-245381 2548.46 4932.32)
(-245605 2597.65 5083.54)
(-245846 2651.29 5208.24)
(-246102 2708.65 5291.16)
(-246376 2768.9 5313.47)
(-246665 2831.16 5252.78)
(-246961 2894.35 5083.72)
(-247250 2957.3 4779.13)
(-247505 3017.83 4313.66)
(-247684 3075.3 3669.87)
(-247745 3125.54 2845.96)
(-247643 3169.89 1853.68)
(-247316 3204.48 706.423)
(-246657 3226.72 -579.248)
(-245588 3221.84 -1925.39)
(-244092 3201.06 -3131.78)
(-242279 3163.09 -3944.89)
(-240370 3109.13 -4226.42)
(-238573 3038.86 -4015.09)
(-237012 2954.5 -3445.83)
(-235734 2860.37 -2661.86)
(-234734 2760.94 -1780.21)
(-233986 2660.04 -884.32)
(-233454 2560.17 -29.4208)
(-233106 2463.37 759.214)
(-232907 2370.22 1471.15)
(-232827 2281.28 2097.7)
(-232831 2197.38 2650.2)
(-232912 2120.44 3154.83)
(-233065 2055.33 3620.67)
(-233281 2007.8 4050.89)
(-233563 1984.58 4445.51)
(-233931 1996.27 4800.87)
(-234409 2052.68 5108.56)
(-234991 2160.49 5352.02)
(-235585 2335.2 5501.94)
(-236075 2584.02 5519.22)
(-236675 2903.3 5364.64)
(-238345 3274.41 4998.17)
(-242165 3673.43 4336.61)
(-247016 4094.01 3178.69)
(-247815 4344.92 1013.21)
(-243540 3728.74 -3423.6)
(-246616 1718.81 -13318.3)
(-289820 -1533.65 -28817.1)
(-303018 -9701.07 -67151.6)
(-209754 -6072.12 -14130.5)
(-229195 -3777.99 -3883.88)
(-228906 -3800.21 -3590.58)
(-228831 -3786.39 -3420.99)
(-228734 -3794.38 -3213.87)
(-228690 -3792.37 -3016.93)
(-228683 -3789.62 -2824.71)
(-228721 -3784.82 -2647.64)
(-228809 -3779.81 -2494.89)
(-228953 -3774.96 -2377.17)
(-229158 -3770.97 -2305.13)
(-229425 -3768.42 -2291.12)
(-229757 -3767.66 -2348.73)
(-230147 -3768.74 -2494.31)
(-230582 -3771.36 -2749.17)
(-231038 -3775.07 -3141.17)
(-231465 -3779.15 -3705.62)
(-231794 -3782.23 -4475.2)
(-231947 -3782.05 -5477.39)
(-231853 -3772.2 -6719.78)
(-231429 -3747.66 -8227.54)
(-230493 -3699.06 -10014.7)
(-228759 -3627.89 -11997.9)
(-226048 -3529.86 -13827.8)
(-222551 -3400.16 -15007.4)
(-218802 -3233.43 -15247.5)
(-215334 -3035.25 -14673.7)
(-212442 -2816.52 -13611.4)
(-210204 -2588.4 -12340.2)
(-208585 -2362.45 -11053.1)
(-207492 -2145.7 -9859.23)
(-206822 -1939.52 -8809.06)
(-206479 -1745 -7917.12)
(-206385 -1562.82 -7179.79)
(-206473 -1396.87 -6585.76)
(-206689 -1245.41 -6125.02)
(-206989 -1102.75 -5788.98)
(-207337 -967.988 -5570.07)
(-207701 -840.673 -5458.84)
(-208057 -721.034 -5443.48)
(-208402 -614.276 -5518.82)
(-208723 -527.741 -5677.3)
(-208977 -463.975 -5895.35)
(-209073 -427.372 -6133.41)
(-208863 -424.591 -6356.94)
(-208563 -453.214 -6519.52)
(-209288 -481.123 -6566.27)
(-212452 -418.408 -6410.03)
(-217199 -188.655 -5834.52)
(-218643 211.742 -4898.92)
(-216725 690.682 -4986.74)
(-228146 1902.99 -9944.64)
(-278023 4894.25 -20610.3)
(-318350 -8086.52 -47422.7)
(-212507 15006 -5745.68)
(-243823 3401.36 4630.11)
(-243735 3542.64 4884.2)
(-243512 3616.94 5022.46)
(-243321 3690.38 5199.37)
(-243080 3764.85 5361.29)
(-242828 3836.01 5516.35)
(-242559 3904.05 5654.15)
(-242283 3966.54 5767.77)
(-242007 4022.35 5847.96)
(-241739 4070.08 5885.34)
(-241493 4108.31 5869.56)
(-241278 4135.9 5789.25)
(-241107 4152.12 5630.52)
(-240990 4156.54 5375.06)
(-240929 4148.93 4998.56)
(-240908 4129.81 4471.16)
(-240896 4100.55 3762.92)
(-240852 4063.76 2852.84)
(-240742 4026.2 1729.57)
(-240511 3994.28 366.133)
(-239969 3988.05 -1273.2)
(-238798 4016.27 -3115.71)
(-236855 4074.87 -4865.08)
(-234330 4159.05 -6066.77)
(-231703 4262.7 -6435.98)
(-229428 4370.2 -6069.93)
(-227716 4474.88 -5252.18)
(-226578 4570.13 -4226.37)
(-225929 4654.37 -3154.19)
(-225657 4729.24 -2124.25)
(-225657 4798.23 -1175.66)
(-225851 4865.87 -316.699)
(-226192 4934.52 451.221)
(-226648 5003.99 1126.17)
(-227276 5087.59 1748.81)
(-228075 5201.3 2324.07)
(-229059 5354.2 2858.23)
(-230248 5554.43 3359.59)
(-231679 5811.34 3837.75)
(-233406 6133.69 4305.24)
(-235501 6530.94 4774.4)
(-238006 7018.08 5257.2)
(-240878 7609.12 5765.98)
(-244061 8314.29 6311.65)
(-247879 9157.72 6910.29)
(-253505 10197.7 7600.65)
(-262416 11550.7 8467.97)
(-273746 13309.3 9591.9)
(-283323 15520.9 10933.5)
(-291117 18112.5 11682.3)
(-316457 21502.4 10199.8)
(-398550 25610.7 6217.11)
(-505017 10733.6 -23020.9)
(-451994 2847.91 -130979)
(-236016 -4005.9 -4049)
(-236407 -4010.2 -3826.92)
(-236690 -3994.78 -3671.69)
(-237038 -3994.61 -3484.97)
(-237414 -3987.84 -3290.92)
(-237826 -3982.46 -3085.14)
(-238281 -3976.52 -2871.29)
(-238780 -3970.97 -2650.92)
(-239329 -3966 -2427.22)
(-239928 -3962.01 -2204.69)
(-240582 -3959.05 -1992.89)
(-241294 -3957.37 -1808.18)
(-242068 -3957.23 -1680.04)
(-242907 -3958.91 -1656.48)
(-243806 -3962.67 -1806.51)
(-244735 -3968.33 -2216.06)
(-245641 -3976.06 -2978.96)
(-246446 -3980.49 -4171.56)
(-247087 -3978.08 -5831.97)
(-247486 -3960.86 -7978.4)
(-247396 -3928.82 -10627.8)
(-246291 -3886.91 -13707.3)
(-243652 -3850.18 -16750.9)
(-239541 -3822.97 -18875.4)
(-234711 -3802.04 -19398.8)
(-230023 -3794.38 -18508.8)
(-225885 -3801.73 -16940.8)
(-222342 -3819.03 -15191.3)
(-219313 -3839.68 -13519.5)
(-216684 -3856.2 -12048.1)
(-214352 -3862.22 -10812.9)
(-212236 -3852.29 -9805.68)
(-210285 -3819.26 -8999.06)
(-208470 -3753.88 -8364.98)
(-206786 -3656.18 -7878.83)
(-205236 -3527.39 -7524.22)
(-203836 -3370.23 -7287.75)
(-202611 -3187.81 -7160.67)
(-201596 -2984.68 -7141.99)
(-200848 -2768 -7239.45)
(-200437 -2551.25 -7464.78)
(-200403 -2362.96 -7833.9)
(-200647 -2238.01 -8345.59)
(-201015 -2220.26 -8998.55)
(-201764 -2378.23 -9792.56)
(-204086 -2758 -10722.8)
(-209691 -3389.72 -11702.2)
(-217769 -4358.68 -12504.1)
(-222815 -5895.89 -12677.6)
(-225139 -7833.3 -12370.8)
(-246584 -6915.06 -12385.5)
(-349336 -5850.06 -15835.3)
(-523976 -4990.78 -3456.22)
(-331523 7763.57 6007.68)
(-235911 1634.58 2807.49)
(-236345 1641.52 2948.08)
(-236523 1627.44 3039.29)
(-236804 1605.88 3173.46)
(-237072 1579.29 3298.26)
(-237371 1545.55 3431.97)
(-237696 1506 3568.54)
(-238058 1460.41 3709.22)
(-238463 1409.76 3853.19)
(-238917 1354.91 3998.81)
(-239430 1297.29 4141.13)
(-240009 1238.92 4268.65)
(-240665 1182.66 4357.74)
(-241402 1131.8 4366.94)
(-242218 1090.52 4235.32)
(-243083 1064.19 3885.63)
(-243939 1057.56 3236.54)
(-244707 1076.67 2221.59)
(-245323 1123.89 804.133)
(-245695 1205.33 -1056.9)
(-245519 1319.93 -3372.55)
(-244288 1458.64 -6055.91)
(-241453 1610.71 -8686.08)
(-237011 1771.15 -10408.7)
(-231706 1939.33 -10518.8)
(-226473 2101.68 -9198.3)
(-221843 2243.98 -7196.28)
(-217972 2361.22 -5025.53)
(-214848 2453.38 -2953.94)
(-212378 2522.84 -1105.89)
(-210450 2572.49 486.3)
(-208963 2604.58 1836.11)
(-207831 2622.33 2974.12)
(-207007 2637.52 3902.85)
(-206373 2651.51 4650.17)
(-205841 2675.41 5260.98)
(-205390 2710.47 5751.76)
(-205024 2756.18 6132.63)
(-204779 2811.82 6408.86)
(-204701 2874.95 6575.46)
(-204847 2935.34 6622.72)
(-205233 2974.62 6542.42)
(-205772 2960.31 6329.39)
(-206328 2846.7 5978.71)
(-207132 2575.98 5480.92)
(-209296 2104.02 4821.1)
(-214169 1395.08 4046.21)
(-220706 398.364 3341.86)
(-223806 -1077.49 2836.1)
(-223220 -2805.57 1420.19)
(-240716 -1623.39 271.467)
(-316263 -490.271 10014.1)
(-440410 -847.352 35640)
(-333414 6462.39 -21794.8)
(-232673 -3365.82 -194.355)
(-233371 -3396.44 243.471)
(-233811 -3409.95 454.216)
(-234346 -3434.58 747.362)
(-234887 -3459.87 1039.8)
(-235449 -3489.99 1348.68)