/*--------------------------------*- C++ -*----------------------------------*\
| =========                 |                                                 |
| \\      /  F ield         | OpenFOAM: The Open Source CFD Toolbox           |
|  \\    /   O peration     | Version:  4.1                                   |
|   \\  /    A nd           | Web:      www.OpenFOAM.org                      |
|    \\/     M anipulation  |                                                 |
\*---------------------------------------------------------------------------*/
FoamFile
{
    version     2.0;
    format      ascii;
    class       surfaceScalarField;
    location    "56";
    object      phi;
}
// * * * * * * * * * * * * * * * * * * * * * * * * * * * * * * * * * * * * * //

dimensions      [0 3 -1 0 0 0 0];

internalField   nonuniform List<scalar> 
11516
(
-4.18527e+10
-3.25059e+07
3.93672e+08
-4.20472e+10
-5.48996e+07
2.22996e+08
-4.22264e+10
-7.42908e+07
2.30886e+08
-4.22072e+10
-1.39976e+08
1.02327e+08
-4.22631e+10
-8.28774e+07
1.24007e+08
-4.2337e+10
-8.08534e+07
1.43702e+08
-4.23868e+10
-8.87251e+07
1.30329e+08
-4.24462e+10
-8.42935e+07
1.37909e+08
-4.25017e+10
-8.30976e+07
1.34896e+08
-4.25495e+10
-8.14389e+07
1.27294e+08
-4.25841e+10
-7.99311e+07
1.14041e+08
-4.25994e+10
-7.93382e+07
9.51055e+07
-4.25856e+10
-8.0351e+07
6.67076e+07
-4.25372e+10
-8.25276e+07
3.25983e+07
-4.2446e+10
-8.52411e+07
-9.97204e+06
-4.23064e+10
-8.83961e+07
-5.99053e+07
-4.21112e+10
-9.09981e+07
-1.14515e+08
-4.18514e+10
-9.36125e+07
-1.77376e+08
-4.152e+10
-9.58791e+07
-2.43544e+08
-4.11128e+10
-9.82005e+07
-3.14777e+08
-4.06268e+10
-1.008e+08
-3.88914e+08
-4.00651e+10
-1.03506e+08
-4.59434e+08
-3.94266e+10
-1.05638e+08
-5.27917e+08
-3.8722e+10
-1.0708e+08
-5.84732e+08
-3.79591e+10
-1.07728e+08
-6.33928e+08
-3.71548e+10
-1.0748e+08
-6.67802e+08
-3.63205e+10
-1.06214e+08
-6.92582e+08
-3.54729e+10
-1.03643e+08
-7.02629e+08
-3.46222e+10
-9.95379e+07
-7.0457e+08
-3.37797e+10
-9.36539e+07
-6.97073e+08
-3.29551e+10
-8.57758e+07
-6.81896e+08
-3.2154e+10
-7.58063e+07
-6.63185e+08
-3.13853e+10
-6.35332e+07
-6.37525e+08
-3.0654e+10
-4.87333e+07
-6.08923e+08
-2.99644e+10
-3.11647e+07
-5.77552e+08
-2.93211e+10
-1.06069e+07
-5.42752e+08
-2.87237e+10
1.28209e+07
-5.08554e+08
-2.8173e+10
3.88435e+07
-4.7264e+08
-2.76611e+10
6.53805e+07
-4.41204e+08
-2.71755e+10
9.07348e+07
-4.17108e+08
-2.67047e+10
1.1734e+08
-4.01894e+08
-2.6242e+10
1.48822e+08
-3.93807e+08
-2.57833e+10
1.87619e+08
-3.912e+08
-2.53226e+10
2.38062e+08
-3.95592e+08
-2.48545e+10
3.05297e+08
-4.08665e+08
-2.43795e+10
3.94575e+08
-4.3676e+08
-2.3891e+10
5.12353e+08
-5.10644e+08
-2.33819e+10
6.55239e+08
-6.51384e+08
-2.29446e+10
7.98019e+08
-7.81554e+08
-2.29123e+10
9.01959e+08
-4.1562e+08
-2.42404e+10
1.44863e+09
3.91236e+08
-2.84716e+10
4.2135e+09
8.20443e+08
-3.02283e+10
1.0717e+10
-8.51277e+09
4.56854e+09
-9.68185e+09
-5.65706e+10
5.0312e+07
-5.65394e+10
-9.99718e+07
-5.6506e+10
-1.20116e+08
-5.6517e+10
-1.39481e+08
-5.644e+10
-1.68235e+08
-5.63738e+10
-1.53359e+08
-5.6308e+10
-1.59354e+08
-5.62405e+10
-1.55385e+08
-5.61657e+10
-1.60478e+08
-5.60815e+10
-1.67332e+08
-5.59836e+10
-1.78792e+08
-5.58702e+10
-1.93549e+08
-5.57345e+10
-2.17151e+08
-5.55749e+10
-2.44523e+08
-5.53854e+10
-2.7907e+08
-5.51614e+10
-3.19016e+08
-5.48987e+10
-3.62157e+08
-5.45889e+10
-4.11873e+08
-5.42293e+10
-4.62858e+08
-5.38165e+10
-5.1757e+08
-5.33488e+10
-5.74304e+08
-5.28299e+10
-6.26101e+08
-5.22594e+10
-6.76502e+08
-5.16475e+10
-7.15101e+08
-5.09994e+10
-7.47716e+08
-5.03292e+10
-7.65708e+08
-4.96438e+10
-7.76722e+08
-4.89561e+10
-7.73788e+08
-4.82714e+10
-7.6439e+08
-4.7597e+10
-7.46176e+08
-4.69383e+10
-7.20653e+08
-4.62955e+10
-6.92807e+08
-4.56725e+10
-6.58702e+08
-4.50681e+10
-6.22952e+08
-4.4481e+10
-5.85192e+08
-4.39097e+10
-5.45016e+08
-4.3348e+10
-5.06956e+08
-4.27927e+10
-4.67834e+08
-4.2236e+10
-4.34238e+08
-4.16716e+10
-4.06216e+08
-4.10915e+10
-3.83397e+08
-4.04802e+10
-3.69476e+08
-3.9819e+10
-3.63544e+08
-3.90846e+10
-3.64378e+08
-3.8249e+10
-3.70129e+08
-3.72818e+10
-3.83571e+08
-3.61392e+10
-4.20152e+08
-3.48004e+10
-4.76191e+08
-3.34097e+10
-4.01575e+08
-3.28427e+10
5.25651e+08
-3.39848e+10
2.81604e+09
-3.29794e+10
3.46191e+09
-1.1658e+10
-1.03919e+10
-1.20372e+10
-6.79409e+10
-2.76989e+06
4.47841e+08
-6.8015e+10
-2.86684e+07
3.09237e+08
-6.80919e+10
-3.684e+07
3.28083e+08
-6.82103e+10
-2.7166e+07
2.3305e+08
-6.82612e+10
-3.59227e+07
1.98565e+08
-6.83213e+10
-2.96896e+07
2.2346e+08
-6.8393e+10
-2.70926e+07
2.20497e+08
-6.84572e+10
-2.37214e+07
2.18519e+08
-6.8517e+10
-2.25211e+07
2.10773e+08
-6.85747e+10
-1.9622e+07
1.98914e+08
-6.86256e+10
-1.77284e+07
1.77643e+08
-6.86664e+10
-1.63618e+07
1.47337e+08
-6.86963e+10
-1.60358e+07
1.06612e+08
-6.87125e+10
-1.64203e+07
5.72717e+07
-6.87154e+10
-1.77058e+07
-2.17222e+06
-6.87047e+10
-1.95453e+07
-6.82644e+07
-6.86778e+10
-2.18864e+07
-1.41756e+08
-6.86363e+10
-2.40937e+07
-2.19405e+08
-6.85784e+10
-2.65692e+07
-2.99542e+08
-6.85051e+10
-2.94948e+07
-3.82708e+08
-6.84188e+10
-3.32889e+07
-4.65333e+08
-6.832e+10
-3.7721e+07
-5.41809e+08
-6.82141e+10
-4.2692e+07
-6.08362e+08
-6.81014e+10
-4.82131e+07
-6.61467e+08
-6.79934e+10
-5.4337e+07
-6.94541e+08
-6.78909e+10
-6.1158e+07
-7.12067e+08
-6.78049e+10
-6.87239e+07
-7.09963e+08
-6.77361e+10
-7.70256e+07
-6.92702e+08
-6.76922e+10
-8.60392e+07
-6.59621e+08
-6.76731e+10
-9.57777e+07
-6.16883e+08
-6.76828e+10
-1.06301e+08
-5.62114e+08
-6.77243e+10
-1.17776e+08
-5.00096e+08
-6.77976e+10
-1.30297e+08
-4.30078e+08
-6.79072e+10
-1.43818e+08
-3.51652e+08
-6.80538e+10
-1.5845e+08
-2.68293e+08
-6.82405e+10
-1.74506e+08
-1.76689e+08
-6.84716e+10
-1.91831e+08
-7.89526e+07
-6.87506e+10
-2.10103e+08
2.59729e+07
-6.9087e+10
-2.28712e+08
1.37754e+08
-6.94972e+10
-2.46504e+08
2.59322e+08
-6.99971e+10
-2.6434e+08
3.88977e+08
-7.06035e+10
-2.83677e+08
5.31221e+08
-7.13322e+10
-3.04086e+08
6.87089e+08
-7.22133e+10
-3.21902e+08
8.67993e+08
-7.32817e+10
-3.32876e+08
1.07625e+09
-7.45785e+10
-3.35384e+08
1.30772e+09
-7.6191e+10
-3.21079e+08
1.55763e+09
-7.82197e+10
-2.86049e+08
1.79477e+09
-8.06867e+10
-1.95027e+08
1.98937e+09
-8.31344e+10
1.05143e+08
1.97197e+09
-8.65332e+10
1.67087e+09
2.32229e+09
-9.22393e+10
5.03236e+09
1.65681e+09
-1.14132e+11
1.14871e+10
2.29222e+09
4.6652e+09
-1.08836e+09
-7.53193e+10
1.21175e+08
-7.54403e+10
-1.87495e+07
-7.55728e+10
-3.45463e+07
-7.57071e+10
-4.09804e+07
-7.58346e+10
-8.40047e+07
-7.59511e+10
-7.28582e+07
-7.60722e+10
-7.09064e+07
-7.6182e+10
-7.40604e+07
-7.62863e+10
-8.30506e+07
-7.63843e+10
-9.27733e+07
-7.6474e+10
-1.10444e+08
-7.65519e+10
-1.35745e+08
-7.66194e+10
-1.70127e+08
-7.6675e+10
-2.11748e+08
-7.67179e+10
-2.63129e+08
-7.67486e+10
-3.20937e+08
-7.67622e+10
-3.86333e+08
-7.67586e+10
-4.56872e+08
-7.67346e+10
-5.3105e+08
-7.66908e+10
-6.08553e+08
-7.66287e+10
-6.86449e+08
-7.65484e+10
-7.59266e+08
-7.64553e+10
-8.24632e+08
-7.63483e+10
-8.79256e+08
-7.62396e+10
-9.16622e+08
-7.61281e+10
-9.41755e+08
-7.60252e+10
-9.49969e+08
-7.59313e+10
-9.45484e+08
-7.58552e+10
-9.26805e+08
-7.57975e+10
-8.99732e+08
-7.57638e+10
-8.60785e+08
-7.57599e+10
-8.14907e+08
-7.57884e+10
-7.61146e+08
-7.58582e+10
-6.979e+08
-7.59754e+10
-6.27606e+08
-7.61488e+10
-5.46994e+08
-7.63896e+10
-4.58171e+08
-7.67076e+10
-3.58509e+08
-7.71182e+10
-2.48591e+08
-7.76365e+10
-1.27518e+08
-7.82774e+10
4.11108e+06
-7.9068e+10
1.53182e+08
-8.00319e+10
3.18474e+08
-8.11903e+10
5.04335e+08
-8.25583e+10
7.11652e+08
-8.41526e+10
9.38807e+08
-8.59977e+10
1.1775e+09
-8.80804e+10
1.3914e+09
-9.01339e+10
1.50571e+09
-9.07289e+10
1.25252e+09
-8.63718e+10
1.98026e+08
-7.52032e+10
-2.47124e+09
-7.60346e+10
1.97142e+09
7.37273e+09
-5.51429e+10
1.22417e+08
3.58554e+07
-5.50367e+10
1.59418e+08
2.76374e+07
-5.49313e+10
1.51241e+08
5.59373e+07
-5.49838e+10
1.77493e+08
9.31224e+07
-5.49984e+10
1.55448e+08
4.36158e+07
-5.501e+10
1.66041e+08
5.52835e+07
-5.50473e+10
1.73493e+08
7.11619e+07
-5.50887e+10
1.79683e+08
6.76753e+07
-5.51296e+10
1.83019e+08
5.65981e+07
-5.51676e+10
1.89083e+08
3.6103e+07
-5.52037e+10
1.94976e+08
7.17091e+06
-5.52391e+10
2.01494e+08
-3.11946e+07
-5.52728e+10
2.07688e+08
-8.20372e+07
-5.53032e+10
2.13714e+08
-1.45288e+08
-5.53321e+10
2.19405e+08
-2.2e+08
-5.53513e+10
2.24306e+08
-3.08576e+08
-5.53577e+10
2.2879e+08
-4.09641e+08
-5.53415e+10
2.33533e+08
-5.18329e+08
-5.52939e+10
2.37826e+08
-6.38261e+08
-5.5211e+10
2.42839e+08
-7.60892e+08
-5.50948e+10
2.47854e+08
-8.81949e+08
-5.4942e+10
2.53546e+08
-9.9683e+08
-5.47597e+10
2.59459e+08
-1.09465e+09
-5.45544e+10
2.65771e+08
-1.17105e+09
-5.43326e+10
2.72138e+08
-1.22159e+09
-5.41065e+10
2.78352e+08
-1.24594e+09
-5.38834e+10
2.84275e+08
-1.24492e+09
-5.36695e+10
2.89836e+08
-1.22402e+09
-5.34672e+10
2.94984e+08
-1.18583e+09
-5.32801e+10
2.99634e+08
-1.13474e+09
-5.31033e+10
3.03833e+08
-1.07687e+09
-5.29372e+10
3.07721e+08
-1.01141e+09
-5.27749e+10
3.11342e+08
-9.45271e+08
-5.26095e+10
3.14539e+08
-8.77419e+08
-5.2439e+10
3.17485e+08
-8.06475e+08
-5.22537e+10
3.20561e+08
-7.37074e+08
-5.20466e+10
3.23972e+08
-6.68084e+08
-5.18103e+10
3.27829e+08
-5.99142e+08
-5.15372e+10
3.33991e+08
-5.32012e+08
-5.1215e+10
3.44225e+08
-4.70759e+08
-5.08367e+10
3.59353e+08
-4.1302e+08
-5.03861e+10
3.80683e+08
-3.65046e+08
-4.98477e+10
4.09025e+08
-3.24958e+08
-4.91851e+10
4.45583e+08
-3.01311e+08
-4.83589e+10
4.94561e+08
-2.96606e+08
-4.73372e+10
5.63644e+08
-3.16e+08
-4.61018e+10
6.63489e+08
-3.70519e+08
-4.4666e+10
7.93634e+08
-4.79315e+08
-4.30711e+10
9.51073e+08
-6.7587e+08
-4.17046e+10
1.22006e+09
-8.10863e+08
-4.10736e+10
2.18046e+09
-9.44833e+08
-4.13647e+10
4.18156e+09
-2.55456e+09
-3.78808e+10
1.02052e+10
-1.17735e+10
4.84221e+09
-1.39661e+10
-6.17154e+10
1.09025e+08
-6.16838e+10
9.96977e+07
-6.16878e+10
1.11061e+08
-6.17038e+10
1.42783e+08
-6.17694e+10
1.27258e+08
-6.18248e+10
1.38851e+08
-6.18911e+10
1.5942e+08
-6.19539e+10
1.59307e+08
-6.20191e+10
1.56346e+08
-6.20761e+10
1.44538e+08
-6.21273e+10
1.26727e+08
-6.21706e+10
9.93098e+07
-6.22041e+10
5.94325e+07
-6.22248e+10
7.41748e+06
-6.22349e+10
-5.38807e+07
-6.22301e+10
-1.27861e+08
-6.22062e+10
-2.12711e+08
-6.21597e+10
-3.05078e+08
-6.20831e+10
-4.06751e+08
-6.19758e+10
-5.10753e+08
-6.18393e+10
-6.12065e+08
-6.16721e+10
-7.08337e+08
-6.14813e+10
-7.88445e+08
-6.12747e+10
-8.49478e+08
-6.10587e+10
-8.87293e+08
-6.08454e+10
-9.01853e+08
-6.06419e+10
-8.93876e+08
-6.04542e+10
-8.68846e+08
-6.02842e+10
-8.28836e+08
-6.01358e+10
-7.77775e+08
-6.00031e+10
-7.21558e+08
-5.9887e+10
-6.5844e+08
-5.97799e+10
-5.95565e+08
-5.96744e+10
-5.31334e+08
-5.95673e+10
-4.63601e+08
-5.94469e+10
-3.97152e+08
-5.93051e+10
-3.29922e+08
-5.91319e+10
-2.60824e+08
-5.89146e+10
-1.91568e+08
-5.86351e+10
-1.24666e+08
-5.82818e+10
-5.42932e+07
-5.78294e+10
1.46625e+07
-5.72568e+10
8.60313e+07
-5.65305e+10
1.54905e+08
-5.56118e+10
2.22014e+08
-5.44556e+10
2.84999e+08
-5.30068e+10
3.29868e+08
-5.12401e+10
3.37421e+08
-4.92493e+10
3.29518e+08
-4.75394e+10
5.44915e+08
-4.60635e+10
6.2193e+08
-4.37326e+10
-1.0059e+09
-2.13192e+10
-1.05213e+10
-5.46029e+09
-5.91494e+10
-7.26258e+07
-1.49423e+07
-5.91523e+10
-5.63631e+07
7.47964e+07
-5.91087e+10
-4.89274e+07
4.70266e+07
-5.91e+10
-5.36893e+07
1.21959e+08
-5.91368e+10
-5.99967e+07
1.2258e+08
-5.9172e+10
-5.41155e+07
1.26076e+08
-5.92105e+10
-4.34791e+07
1.34303e+08
-5.92602e+10
-3.83508e+07
1.37136e+08
-5.93173e+10
-3.60336e+07
1.31001e+08
-5.93774e+10
-3.32727e+07
1.10394e+08
-5.94336e+10
-3.12905e+07
7.46545e+07
-5.94817e+10
-2.90258e+07
2.43279e+07
-5.95195e+10
-2.68224e+07
-4.20826e+07
-5.95485e+10
-2.46223e+07
-1.23273e+08
-5.95658e+10
-2.18719e+07
-2.20279e+08
-5.95795e+10
-1.93943e+07
-3.27993e+08
-5.95889e+10
-1.66771e+07
-4.4562e+08
-5.95912e+10
-1.48714e+07
-5.73018e+08
-5.95869e+10
-1.25785e+07
-7.06481e+08
-5.95741e+10
-1.00683e+07
-8.43041e+08
-5.9554e+10
-6.70992e+06
-9.74303e+08
-5.95319e+10
-2.66894e+06
-1.09356e+09
-5.95141e+10
2.31405e+06
-1.18898e+09
-5.95111e+10
8.25149e+06
-1.25294e+09
-5.95318e+10
1.49668e+07
-1.28355e+09
-5.95876e+10
2.22518e+07
-1.27889e+09
-5.9685e+10
2.98592e+07
-1.24488e+09
-5.98286e+10
3.74783e+07
-1.18847e+09
-6.00208e+10
4.47187e+07
-1.11398e+09
-6.02589e+10
5.12517e+07
-1.0299e+09
-6.05442e+10
5.70057e+07
-9.38238e+08
-6.08725e+10
6.22364e+07
-8.43476e+08
-6.12456e+10
6.68226e+07
-7.46855e+08
-6.16617e+10
7.073e+07
-6.50274e+08
-6.21183e+10
7.4195e+07
-5.53329e+08
-6.26196e+10
7.66513e+07
-4.53056e+08
-6.31656e+10
7.88734e+07
-3.53101e+08
-6.37583e+10
8.07484e+07
-2.506e+08
-6.44004e+10
8.16351e+07
-1.4623e+08
-6.50961e+10
8.28948e+07
-4.42389e+07
-6.58525e+10
8.62309e+07
5.80649e+07
-6.66834e+10
9.39064e+07
1.58517e+08
-6.76115e+10
1.09432e+08
2.64808e+08
-6.86741e+10
1.34943e+08
3.82523e+08
-6.98999e+10
1.7083e+08
5.02651e+08
-7.13343e+10
2.2071e+08
6.32035e+08
-7.30624e+10
2.87519e+08
7.82798e+08
-7.51968e+10
3.64315e+08
9.34615e+08
-7.78455e+10
4.55583e+08
1.00368e+09
-8.1117e+10
7.06337e+08
9.17622e+08
-8.54446e+10
1.85387e+09
4.80456e+08
-9.05093e+10
3.78337e+09
-2.47802e+09
-1.02936e+11
9.83437e+09
-1.03303e+10
1.0099e+10
-3.35863e+10
-6.6494e+10
-9.03641e+07
-6.64713e+10
1.24814e+07
-6.64524e+10
3.43644e+07
-6.64356e+10
6.22841e+07
-6.64528e+10
7.37033e+07
-6.6471e+10
9.17857e+07
-6.64776e+10
1.11295e+08
-6.64897e+10
1.21701e+08
-6.65052e+10
1.2447e+08
-6.65183e+10
1.12662e+08
-6.65244e+10
8.92594e+07
-6.65193e+10
5.15982e+07
-6.65014e+10
-1.18199e+06
-6.64703e+10
-6.82315e+07
-6.64208e+10
-1.51425e+08
-6.63567e+10
-2.44232e+08
-6.62795e+10
-3.46462e+08
-6.61866e+10
-4.5763e+08
-6.60801e+10
-5.7395e+08
-6.59565e+10
-6.93463e+08
-6.58166e+10
-8.0748e+08
-6.5664e+10
-9.10841e+08
-6.55034e+10
-9.91919e+08
-6.53432e+10
-1.04427e+09
-6.51904e+10
-1.06628e+09
-6.50547e+10
-1.05584e+09
-6.49409e+10
-1.01894e+09
-6.48531e+10
-9.62421e+08
-6.47932e+10
-8.90379e+08
-6.47588e+10
-8.11314e+08
-6.47515e+10
-7.27077e+08
-6.4766e+10
-6.42312e+08
-6.48034e+10
-5.58041e+08
-6.48611e+10
-4.76123e+08
-6.49339e+10
-3.96722e+08
-6.50242e+10
-3.17382e+08
-6.51273e+10
-2.42158e+08
-6.52426e+10
-1.65911e+08
-6.53756e+10
-8.48704e+07
-6.55297e+10
-2.59079e+06
-6.57028e+10
8.24444e+07
-6.58923e+10
1.66881e+08
-6.60874e+10
2.50608e+08
-6.62804e+10
3.35176e+08
-6.64526e+10
4.12223e+08
-6.65832e+10
4.78433e+08
-6.66575e+10
5.19425e+08
-6.66577e+10
4.81091e+08
-6.65063e+10
3.05547e+08
-6.56593e+10
-9.19986e+07
-6.24356e+10
-1.48015e+09
-5.50522e+10
-5.3456e+09
-4.62938e+10
-9.74496e+09
1.16606e+09
-5.4867e+10
4.42641e+07
-1.43502e+08
-5.48065e+10
2.68732e+07
-2.15037e+07
-5.47894e+10
1.93772e+07
506427
-5.47362e+10
1.91535e+07
3.77639e+07
-5.47185e+10
2.46661e+07
6.67768e+07
-5.47203e+10
3.60417e+07
7.74698e+07
-5.47293e+10
4.83981e+07
7.99589e+07
-5.47429e+10
5.91376e+07
7.6391e+07
-5.47586e+10
6.98357e+07
6.14823e+07
-5.4775e+10
8.02114e+07
3.09596e+07
-5.47913e+10
8.93387e+07
-1.44637e+07
-5.48053e+10
9.77613e+07
-7.65631e+07
-5.4817e+10
1.05774e+08
-1.56026e+08
-5.48188e+10
1.123e+08
-2.59206e+08
-5.48049e+10
1.17362e+08
-3.85903e+08
-5.47672e+10
1.20812e+08
-5.33286e+08
-5.46956e+10
1.23621e+08
-6.97457e+08
-5.45872e+10
1.2515e+08
-8.74971e+08
-5.44343e+10
1.26786e+08
-1.05809e+09
-5.42358e+10
1.27593e+08
-1.24456e+09
-5.39889e+10
1.28895e+08
-1.42223e+09
-5.37002e+10
1.29984e+08
-1.58208e+09
-5.33821e+10
1.31991e+08
-1.70362e+09
-5.30565e+10
1.34912e+08
-1.77372e+09
-5.27512e+10
1.39316e+08
-1.78426e+09
-5.24926e+10
1.45485e+08
-1.73649e+09
-5.23056e+10
1.53542e+08
-1.63848e+09
-5.22087e+10
1.63581e+08
-1.50372e+09
-5.22141e+10
1.7552e+08
-1.34257e+09
-5.23283e+10
1.89227e+08
-1.16835e+09
-5.25535e+10
2.04777e+08
-9.87232e+08
-5.28897e+10
2.22525e+08
-8.06281e+08
-5.33339e+10
2.42548e+08
-6.29111e+08
-5.38843e+10
2.64654e+08
-4.56528e+08
-5.45364e+10
2.88622e+08
-2.89996e+08
-5.52827e+10
3.1437e+08
-1.29099e+08
-5.6121e+10
3.42071e+08
2.80083e+07
-5.70441e+10
3.72815e+08
1.78513e+08
-5.80482e+10
4.08949e+08
3.22834e+08
-5.91379e+10
4.50871e+08
4.64211e+08
-6.03181e+10
4.98997e+08
6.04891e+08
-6.15925e+10
5.54627e+08
7.39353e+08
-6.296e+10
6.18992e+08
8.70479e+08
-6.44179e+10
6.92828e+08
1.00351e+09
-6.59668e+10
7.77434e+08
1.13415e+09
-6.76058e+10
8.71837e+08
1.2668e+09
-6.93485e+10
9.64024e+08
1.42529e+09
-7.12655e+10
1.04579e+09
1.62182e+09
-7.37592e+10
1.21148e+09
1.95194e+09
-7.76426e+10
1.53781e+09
2.75703e+09
-8.37182e+10
1.93162e+09
3.90382e+09
-9.52651e+10
2.89445e+09
5.46181e+09
-1.31683e+11
9.67346e+09
1.61049e+10
-1.12688e+10
4.59435e+09
-5.91906e+10
-1.87087e+08
-5.91037e+10
-5.20407e+07
-5.90495e+10
-6.06125e+06
-5.90038e+10
2.90099e+07
-5.89834e+10
7.0339e+07
-5.89698e+10
1.05921e+08
-5.89459e+10
1.27169e+08
-5.89161e+10
1.4222e+08
-5.88797e+10
1.48925e+08
-5.88373e+10
1.41522e+08
-5.87879e+10
1.20014e+08
-5.8729e+10
8.0517e+07
-5.866e+10
2.38861e+07
-5.85757e+10
-5.59362e+07
-5.84722e+10
-1.5927e+08
-5.83406e+10
-2.83654e+08
-5.81714e+10
-4.27883e+08
-5.79578e+10
-5.86978e+08
-5.76923e+10
-7.56908e+08
-5.73683e+10
-9.34292e+08
-5.6981e+10
-1.10922e+09
-5.65303e+10
-1.27192e+09
-5.60235e+10
-1.4036e+09
-5.54756e+10
-1.49095e+09
-5.49079e+10
-1.52543e+09
-5.434e+10
-1.50715e+09
-5.3791e+10
-1.44267e+09
-5.32748e+10
-1.34405e+09
-5.28003e+10
-1.22008e+09
-5.23724e+10
-1.08315e+09
-5.19925e+10
-9.38486e+08
-5.16595e+10
-7.92411e+08
-5.13709e+10
-6.47508e+08
-5.11254e+10
-5.04136e+08
-5.09202e+10
-3.64109e+08
-5.07512e+10
-2.26102e+08
-5.06186e+10
-8.93629e+07
-5.05131e+10
4.3031e+07
-5.04231e+10
1.7479e+08
-5.03343e+10
2.99916e+08
-5.02353e+10
4.22947e+08
-5.01194e+10
5.46351e+08
-4.99736e+10
6.65973e+08
-4.97813e+10
7.8212e+08
-4.95242e+10
8.8702e+08
-4.91872e+10
9.77129e+08
-4.87964e+10
1.05442e+09
-4.84473e+10
1.10426e+09
-4.82439e+10
1.1507e+09
-4.83779e+10
1.26048e+09
-5.03408e+10
2.04629e+09
-5.77901e+10
4.812e+09
-7.34944e+10
1.56638e+10
8.35503e+09
-6.02379e+10
3.94991e+08
-5.7262e+08
-6.02142e+10
3.99477e+08
-4.46433e+08
-6.02182e+10
4.04844e+08
-4.03561e+08
-6.0231e+10
4.15416e+08
-3.69432e+08
-6.0256e+10
4.24414e+08
-3.38542e+08
-6.02961e+10
4.34307e+08
-3.23651e+08
-6.03469e+10
4.43988e+08
-3.20668e+08
-6.04033e+10
4.5345e+08
-3.28095e+08
-6.04608e+10
4.62777e+08
-3.50918e+08
-6.05164e+10
4.71053e+08
-3.91275e+08
-6.05631e+10
4.78906e+08
-4.52697e+08
-6.05958e+10
4.86037e+08
-5.35582e+08
-6.06092e+10
4.92995e+08
-6.42431e+08
-6.05993e+10
4.99425e+08
-7.78389e+08
-6.05669e+10
5.04963e+08
-9.40924e+08
-6.05057e+10
5.10091e+08
-1.12913e+09
-6.04131e+10
5.1388e+08
-1.33999e+09
-6.02781e+10
5.17881e+08
-1.56969e+09
-6.00957e+10
5.21307e+08
-1.80985e+09
-5.98578e+10
5.2549e+08
-2.05527e+09
-5.95586e+10
5.29955e+08
-2.29623e+09
-5.91957e+10
5.35475e+08
-2.519e+09
-5.87773e+10
5.41881e+08
-2.69593e+09
-5.83222e+10
5.49229e+08
-2.80376e+09
-5.78561e+10
5.57294e+08
-2.82736e+09
-5.74019e+10
5.65366e+08
-2.77065e+09
-5.69788e+10
5.72633e+08
-2.64511e+09
-5.65997e+10
5.78347e+08
-2.4698e+09
-5.62687e+10
5.82135e+08
-2.26308e+09
-5.59897e+10
5.83981e+08
-2.03812e+09
-5.57601e+10
5.8435e+08
-1.80754e+09
-5.55772e+10
5.8361e+08
-1.57891e+09
-5.5438e+10
5.81887e+08
-1.35545e+09
-5.53374e+10
5.79463e+08
-1.14055e+09
-5.52728e+10
5.76839e+08
-9.32945e+08
-5.52394e+10
5.73484e+08
-7.33796e+08
-5.52318e+10
5.68908e+08
-5.40466e+08
-5.52482e+10
5.64376e+08
-3.53496e+08
-5.5283e+10
5.59179e+08
-1.74925e+08
-5.53292e+10
5.51337e+08
-1.50999e+06
-5.53755e+10
5.40413e+08
1.65062e+08
-5.54134e+10
5.28948e+08
3.19191e+08
-5.54333e+10
5.1768e+08
4.63168e+08
-5.54087e+10
5.03779e+08
5.89583e+08
-5.53088e+10
4.85331e+08
6.93404e+08
-5.50764e+10
4.60661e+08
7.52984e+08
-5.46345e+10
4.24157e+08
7.71026e+08
-5.39295e+10
3.8693e+08
7.57188e+08
-5.28282e+10
3.32505e+08
7.35788e+08
-5.09578e+10
1.38559e+08
9.02339e+08
-4.85593e+10
1.135e+08
1.62654e+09
-4.7783e+10
1.15534e+09
3.92558e+09
-5.41952e+10
7.7586e+09
1.50333e+10
4.73774e+09
7.8292e+09
-6.17973e+10
2.05739e+08
-6.18408e+10
3.88919e+08
-6.18925e+10
4.47897e+08
-6.19579e+10
5.06423e+08
-6.20399e+10
5.72598e+08
-6.21352e+10
6.30838e+08
-6.22441e+10
6.75127e+08
-6.23625e+10
7.09178e+08
-6.24842e+10
7.28725e+08
-6.26085e+10
7.32354e+08
-6.27287e+10
7.15062e+08
-6.28424e+10
6.76097e+08
-6.29428e+10
6.12114e+08
-6.30253e+10
5.17813e+08
-6.30877e+10
3.95451e+08
-6.31251e+10
2.44903e+08
-6.31332e+10
6.96118e+07
-6.31042e+10
-1.27693e+08
-6.30302e+10
-3.41561e+08
-6.29042e+10
-5.6713e+08
-6.27173e+10
-7.95824e+08
-6.24652e+10
-1.01423e+09
-6.21521e+10
-1.19612e+09
-6.17928e+10
-1.31797e+09
-6.14098e+10
-1.36401e+09
-6.10243e+10
-1.33709e+09
-6.06545e+10
-1.24733e+09
-6.03139e+10
-1.11276e+09
-6.00067e+10
-9.50938e+08
-5.97371e+10
-7.74386e+08
-5.95016e+10
-5.9505e+08
-5.92965e+10
-4.19121e+08
-5.91172e+10
-2.49575e+08
-5.89561e+10
-8.95164e+07
-5.88071e+10
6.1763e+07
-5.86622e+10
2.03195e+08
-5.85147e+10
3.36602e+08
-5.83581e+10
4.60878e+08
-5.81841e+10
5.76795e+08
-5.7993e+10
6.85293e+08
-5.77796e+10
7.84437e+08
-5.75348e+10
8.75704e+08
-5.72474e+10
9.54194e+08
-5.69003e+10
1.01253e+09
-5.64782e+10
1.04337e+09
-5.59566e+10
1.03065e+09
-5.53015e+10
9.55797e+08
-5.44683e+10
7.92795e+08
-5.34124e+10
5.41595e+08
-5.21558e+10
2.55392e+08
-5.00824e+10
2.25092e+08
-4.52252e+10
1.30986e+09
-2.8087e+10
6.47511e+09
8.73829e+09
-5.90285e+10
1.72409e+08
-7.27094e+08
-5.90716e+10
1.84691e+08
-5.90775e+08
-5.91228e+10
1.90796e+08
-5.46436e+08
-5.91974e+10
1.99021e+08
-4.97829e+08
-5.92828e+10
2.01082e+08
-4.58736e+08
-5.93805e+10
2.00123e+08
-4.30955e+08
-5.9489e+10
1.97612e+08
-4.14944e+08
-5.96056e+10
1.96206e+08
-4.12739e+08
-5.97285e+10
1.94565e+08
-4.2741e+08
-5.9853e+10
1.91515e+08
-4.62716e+08
-5.99788e+10
1.85966e+08
-5.16488e+08
-6.00959e+10
1.78709e+08
-6.00145e+08
-6.01974e+10
1.70318e+08
-7.14634e+08
-6.02798e+10
1.60328e+08
-8.62507e+08
-6.03364e+10
1.48587e+08
-1.0449e+09
-6.0359e+10
1.3535e+08
-1.26144e+09
-6.03376e+10
1.20938e+08
-1.51147e+09
-6.02629e+10
1.06934e+08
-1.78601e+09
-6.01271e+10
9.29047e+07
-2.08149e+09
-5.99178e+10
8.11249e+07
-2.38798e+09
-5.96229e+10
7.20467e+07
-2.7043e+09
-5.92334e+10
6.86096e+07
-3.01069e+09
-5.8753e+10
7.15918e+07
-3.27493e+09
-5.82088e+10
8.3355e+07
-3.45087e+09
-5.76371e+10
1.04672e+08
-3.51659e+09
-5.70755e+10
1.34837e+08
-3.47477e+09
-5.65472e+10
1.72025e+08
-3.34931e+09
-5.60637e+10
2.13586e+08
-3.16859e+09
-5.56278e+10
2.57094e+08
-2.95617e+09
-5.52323e+10
3.00509e+08
-2.733e+09
-5.4871e+10
3.42324e+08
-2.5085e+09
-5.45342e+10
3.81562e+08
-2.29279e+09
-5.42136e+10
4.17775e+08
-2.08702e+09
-5.39034e+10
4.52776e+08
-1.8933e+09
-5.35983e+10
4.87857e+08
-1.71112e+09
-5.32952e+10
5.23817e+08
-1.53956e+09
-5.29901e+10
5.61396e+08
-1.37745e+09
-5.26797e+10
6.00891e+08
-1.22426e+09
-5.23644e+10
6.42597e+08
-1.07856e+09
-5.20376e+10
6.87338e+08
-9.45268e+08
-5.16967e+10
7.3515e+08
-8.21874e+08
-5.13285e+10
7.82794e+08
-7.21488e+08
-5.0913e+10
8.31457e+08
-6.49166e+08
-5.04334e+10
8.82157e+08
-6.08238e+08
-4.98726e+10
9.35484e+08
-6.05591e+08
-4.92159e+10
9.92119e+08
-6.61658e+08
-4.84625e+10
1.05455e+09
-7.71335e+08
-4.76249e+10
1.12823e+09
-9.25614e+08
-4.66486e+10
1.22559e+09
-1.18152e+09
-4.50194e+10
1.24359e+09
-1.58132e+09
-4.21472e+10
1.26627e+09
-2.00486e+09
-3.82359e+10
2.88488e+09
-2.21995e+09
-3.33772e+10
1.01008e+10
6.19012e+08
5.46827e+09
6.4844e+09
-5.97905e+10
4.59909e+08
-5.98698e+10
6.51638e+08
-5.99464e+10
7.13321e+08
-6.00326e+10
7.89146e+08
-6.01264e+10
8.64658e+08
-6.0228e+10
9.29546e+08
-6.03392e+10
9.80824e+08
-6.04568e+10
1.01985e+09
-6.0579e+10
1.04259e+09
-6.07015e+10
1.04383e+09
-6.08277e+10
1.02509e+09
-6.09512e+10
9.76617e+08
-6.10675e+10
8.96461e+08
-6.11761e+10
7.81995e+08
-6.12733e+10
6.32099e+08
-6.13551e+10
4.4721e+08
-6.14149e+10
2.2959e+08
-6.14499e+10
-1.22307e+07
-6.1457e+10
-2.7134e+08
-6.1435e+10
-5.39351e+08
-6.13743e+10
-8.13497e+08
-6.12679e+10
-1.07704e+09
-6.11148e+10
-1.29724e+09
-6.09332e+10
-1.43014e+09
-6.0745e+10
-1.45646e+09
-6.0571e+10
-1.38144e+09
-6.04188e+10
-1.23056e+09
-6.02878e+10
-1.03208e+09
-6.0174e+10
-8.08917e+08
-6.00675e+10
-5.81103e+08
-5.9964e+10
-3.56129e+08
-5.98587e+10
-1.41525e+08
-5.97497e+10
6.21357e+07
-5.96337e+10
2.52577e+08
-5.9504e+10
4.28686e+08
-5.93543e+10
5.90762e+08
-5.91756e+10
7.38956e+08
-5.89611e+10
8.74725e+08
-5.87043e+10
9.99583e+08
-5.83904e+10
1.10684e+09
-5.80093e+10
1.19929e+09
-5.75455e+10
1.2698e+09
-5.69793e+10
1.31109e+09
-5.62876e+10
1.31382e+09
-5.54467e+10
1.27052e+09
-5.44372e+10
1.16779e+09
-5.32524e+10
9.98618e+08
-5.19099e+10
7.66288e+08
-5.04432e+10
5.1722e+08
-4.89912e+10
3.11872e+08
-4.69281e+10
-1.82578e+08
-4.13116e+10
-9.17311e+08
-2.02572e+10
-4.1446e+09
2.59278e+09
-6.06042e+10
-2.34614e+08
-4.26711e+08
-6.06729e+10
-2.3095e+08
-2.93198e+08
-6.07362e+10
-2.38246e+08
-2.47744e+08
-6.08145e+10
-2.42037e+08
-1.80637e+08
-6.08992e+10
-2.5285e+08
-1.24385e+08
-6.09935e+10
-2.67016e+08
-7.2831e+07
-6.11001e+10
-2.8232e+08
-2.91122e+07
-6.12162e+10
-2.96548e+08
-3.08263e+06
-6.13416e+10
-3.11515e+08
6.68009e+06
-6.14751e+10
-3.27785e+08
-3.65055e+06
-6.16078e+10
-3.45551e+08
-3.95258e+07
-6.17374e+10
-3.63659e+08
-1.07124e+08
-6.18593e+10
-3.81708e+08
-2.11158e+08
-6.19687e+10
-3.99569e+08
-3.56122e+08
-6.20609e+10
-4.16743e+08
-5.43273e+08
-6.21288e+10
-4.33109e+08
-7.76931e+08
-6.21612e+10
-4.47408e+08
-1.05409e+09
-6.21488e+10
-4.59648e+08
-1.37217e+09
-6.20806e+10
-4.67619e+08
-1.72092e+09
-6.19498e+10
-4.73533e+08
-2.09055e+09
-6.17394e+10
-4.77133e+08
-2.48132e+09
-6.14262e+10
-4.79817e+08
-2.88217e+09
-6.10031e+10
-4.82429e+08
-3.24458e+09
-6.04981e+10
-4.86456e+08
-3.48813e+09
-5.9969e+10
-4.92448e+08
-3.56361e+09
-5.94642e+10
-4.99542e+08
-3.48492e+09
-5.90123e+10
-5.06602e+08
-3.29742e+09
-5.86228e+10
-5.12686e+08
-3.04752e+09
-5.82904e+10
-5.17344e+08
-2.77316e+09
-5.80024e+10
-5.20618e+08
-2.50147e+09
-5.7743e+10
-5.22979e+08
-2.24484e+09
-5.7499e+10
-5.24808e+08
-2.00978e+09
-5.72577e+10
-5.26468e+08
-1.79682e+09
-5.70074e+10
-5.29027e+08
-1.60529e+09
-5.67373e+10
-5.32693e+08
-1.43348e+09
-5.64395e+10
-5.3838e+08
-1.27632e+09
-5.61037e+10
-5.46055e+08
-1.13468e+09
-5.57231e+10
-5.54997e+08
-1.00465e+09
-5.52878e+10
-5.64906e+08
-8.88648e+08
-5.47931e+10
-5.75444e+08
-7.8635e+08
-5.42275e+10
-5.86297e+08
-7.02717e+08
-5.35876e+10
-5.98325e+08
-6.41845e+08
-5.28702e+10
-6.11387e+08
-6.08105e+08
-5.20631e+10
-6.28507e+08
-6.12299e+08
-5.11434e+10
-6.52698e+08
-6.68761e+08
-5.00847e+10
-6.87294e+08
-8.01862e+08
-4.88372e+10
-7.37776e+08
-1.02183e+09
-4.72849e+10
-8.27797e+08
-1.35295e+09
-4.53986e+10
-9.14191e+08
-1.77025e+09
-4.34845e+10
-8.64515e+08
-2.11539e+09
-4.08076e+10
-7.96255e+08
-3.12404e+09
-3.59612e+10
-4.70562e+08
-5.76329e+09
-1.83896e+10
-2.98427e+09
-1.3298e+10
6.1504e+08
-3.6252e+09
-5.3779e+10
3.07192e+08
-5.38267e+10
4.66577e+08
-5.38832e+10
5.29355e+08
-5.39494e+10
6.11182e+08
-5.4022e+10
6.82249e+08
-5.41066e+10
7.45062e+08
-5.42113e+10
8.01091e+08
-5.43313e+10
8.41341e+08
-5.44674e+10
8.65401e+08
-5.46198e+10
8.66958e+08
-5.4783e+10
8.41981e+08
-5.49554e+10
7.85039e+08
-5.51327e+10
6.9145e+08
-5.53105e+10
5.57024e+08
-5.54842e+10
3.81238e+08
-5.56451e+10
1.6127e+08
-5.5782e+10
-1.01276e+08
-5.58749e+10
-4.04975e+08
-5.59055e+10
-7.39958e+08
-5.58585e+10
-1.09419e+09
-5.57162e+10
-1.4662e+09
-5.54573e+10
-1.84445e+09
-5.50811e+10
-2.17736e+09
-5.46304e+10
-2.38027e+09
-5.41829e+10
-2.40286e+09
-5.38042e+10
-2.26232e+09
-5.35332e+10
-2.0101e+09
-5.33831e+10
-1.69731e+09
-5.33462e+10
-1.3659e+09
-5.34052e+10
-1.04549e+09
-5.3537e+10
-7.49542e+08
-5.37186e+10
-4.85618e+08
-5.3925e+10
-2.5697e+08
-5.41343e+10
-6.33029e+07
-5.43308e+10
1.00312e+08
-5.45046e+10
2.39357e+08
-5.46471e+10
3.55655e+08
-5.47523e+10
4.53742e+08
-5.48089e+10
5.30651e+08
-5.48111e+10
5.84967e+08
-5.4744e+10
6.10827e+08
-5.45941e+10
6.01931e+08
-5.43463e+10
5.49134e+08
-5.39784e+10
4.32969e+08
-5.34637e+10
2.36941e+08
-5.27613e+10
-7.01369e+07
-5.18133e+10
-5.14765e+08
-5.05553e+10
-1.10995e+09
-4.88796e+10
-1.79342e+09
-4.63546e+10
-2.65133e+09
-4.24954e+10
-4.24818e+09
-3.73082e+10
-5.93999e+09
-2.41867e+10
-1.98454e+10
-8.72548e+09
-5.99733e+10
-3.32178e+08
-9.04867e+07
-5.99772e+10
-3.4637e+08
5.34095e+07
-5.99938e+10
-3.55612e+08
1.21049e+08
-6.00218e+10
-3.6394e+08
2.08164e+08
-6.00623e+10
-3.72986e+08
2.86545e+08
-6.01142e+10
-3.82636e+08
3.59399e+08
-6.01797e+10
-3.91889e+08
4.26128e+08
-6.0262e+10
-3.99677e+08
4.76656e+08
-6.03595e+10
-4.06554e+08
5.08575e+08
-6.04711e+10
-4.12558e+08
5.18548e+08
-6.05934e+10
-4.16664e+08
4.98151e+08
-6.07201e+10
-4.18134e+08
4.37576e+08
-6.08484e+10
-4.16839e+08
3.33965e+08
-6.09748e+10
-4.13415e+08
1.81229e+08
-6.10909e+10
-4.08412e+08
-2.71137e+07
-6.11905e+10
-4.02106e+08
-2.9159e+08
-6.12605e+10
-3.96254e+08
-6.12219e+08
-6.12918e+10
-3.93583e+08
-9.8173e+08
-6.12755e+10
-3.92552e+08
-1.38608e+09
-6.12069e+10
-3.92908e+08
-1.81725e+09
-6.10715e+10
-3.92802e+08
-2.27403e+09
-6.08365e+10
-3.93774e+08
-2.76855e+09
-6.04689e+10
-3.96368e+08
-3.24745e+09
-6.00059e+10
-4.03166e+08
-3.56401e+09
-5.95516e+10
-4.15813e+08
-3.60744e+09
-5.91852e+10
-4.32801e+08
-3.41945e+09
-5.8934e+10
-4.52219e+08
-3.09922e+09
-5.87988e+10
-4.72232e+08
-2.71702e+09
-5.8761e+10
-4.91898e+08
-2.32884e+09
-5.87998e+10
-5.1076e+08
-1.96433e+09
-5.88939e+10
-5.28829e+08
-1.63607e+09
-5.90289e+10
-5.46365e+08
-1.3439e+09
-5.91921e+10
-5.63913e+08
-1.08609e+09
-5.9374e+10
-5.82409e+08
-8.57639e+08
-5.95709e+10
-6.02432e+08
-6.50277e+08
-5.97751e+10
-6.2325e+08
-4.6333e+08
-5.99848e+10
-6.44144e+08
-2.92223e+08
-6.0192e+10
-6.65728e+08
-1.38467e+08
-6.0395e+10
-6.88149e+08
2.01517e+06
-6.05892e+10
-7.11374e+08
1.26297e+08
-6.07707e+10
-7.35556e+08
2.29998e+08
-6.09379e+10
-7.61526e+08
3.11698e+08
-6.10854e+10
-7.91351e+08
3.64507e+08
-6.12051e+10
-8.26068e+08
3.72736e+08
-6.12892e+10
-8.67596e+08
3.22316e+08
-6.13119e+10
-9.26434e+08
1.7696e+08
-6.11909e+10
-1.02678e+09
-9.7893e+07
-6.0789e+10
-1.18163e+09
-5.60794e+08
-5.98608e+10
-1.35402e+09
-1.30432e+09
-5.75916e+10
-1.66703e+09
-2.59323e+09
-5.25912e+10
-2.40896e+09
-5.53449e+09
-4.36023e+10
-3.31947e+09
-1.10775e+10
-2.80527e+10
-8.48143e+09
-2.02057e+10
-5.09588e+09
-6.26479e+09
-5.71532e+10
1.00203e+07