/*--------------------------------*- C++ -*----------------------------------*\
| =========                 |                                                 |
| \\      /  F ield         | OpenFOAM: The Open Source CFD Toolbox           |
|  \\    /   O peration     | Version:  4.1                                   |
|   \\  /    A nd           | Web:      www.OpenFOAM.org                      |
|    \\/     M anipulation  |                                                 |
\*---------------------------------------------------------------------------*/
FoamFile
{
    version     2.0;
    format      ascii;
    class       volVectorField;
    location    "7";
    object      U;
}
// * * * * * * * * * * * * * * * * * * * * * * * * * * * * * * * * * * * * * //

dimensions      [0 1 -1 0 0 0 0];

internalField   nonuniform List<vector> 
4432
(
(-74.6776 -14.2825 239.295)
(148.545 -40.8236 480.397)
(-120.151 -42.9967 777.896)
(-159.635 -6.09856 593.631)
(-10.3717 -46.9583 400.09)
(51.8948 -78.6446 356.678)
(292.604 -83.7949 314.804)
(494.714 -79.1027 200.032)
(700.027 -76.3118 169.496)
(879.461 -73.9437 148.708)
(1039.15 -68.9948 131.479)
(1154.33 -62.9397 134.216)
(1229.65 -59.1103 145.495)
(1284.71 -55.2632 148.645)
(1334.85 -48.9483 142.605)
(1386.09 -41.1512 138.725)
(1431.48 -35.3914 145.598)
(1477.17 -28.7242 154.389)
(1540.08 -21.5778 136.973)
(1607.19 -14.5108 113.077)
(1668.19 -11.9684 98.2011)
(1721.94 -11.7025 87.8387)
(1781.9 -13.3696 71.1966)
(1862.9 -13.1282 47.0827)
(1952.74 -10.9708 23.5222)
(2066.01 -7.75261 1.46743)
(2232.1 -8.04384 2.84054)
(2396.44 -3.06594 60.3866)
(2496.47 8.36203 117.216)
(2625.88 17.6303 143.705)
(2830.4 22.8123 141.325)
(3083.15 19.9585 135.728)
(3356.71 10.2235 137.65)
(3633.45 2.74046 138.661)
(3901.34 1.47064 135.954)
(4170.5 0.391574 131.258)
(4441.33 -2.1389 128.245)
(4738.46 -3.70644 134.803)
(5028.67 3.45124 153.405)
(5262.05 8.55398 192.717)
(5399.01 9.05536 254.794)
(5358.19 22.7396 351.014)
(5024.5 55.6022 508.938)
(4488.13 94.8467 751.471)
(2980.45 -124.313 721.97)
(2694.51 -234.646 127.2)
(3834.84 60.0614 -197.606)
(3612.68 161.558 -74.4591)
(3850.17 -42.0648 -76.2591)
(4357.05 -82.7303 -405.555)
(5628.6 227.459 -1215.43)
(9597.7 960.452 -2146.36)
(8649.78 751.45 -819.773)
(5979.63 -192.765 -2732.72)
(-100.835 -12.9981 260.713)
(43.9903 -26.0308 305.159)
(-133.291 -26.2285 467.512)
(-126.371 8.02977 332.884)
(-6.65008 -23.7975 106.427)
(119.631 -51.6872 23.0494)
(353.757 -63.1765 -30.202)
(563.495 -62.1127 -74.3149)
(767.911 -60.8564 -71.6736)
(939.447 -58.9046 -68.9324)
(1094.19 -54.0433 -70.9985)
(1234.77 -50.2753 -61.6556)
(1348.24 -47.7211 -38.9658)
(1432.42 -44.4919 -21.5383)
(1502.83 -38.8155 -14.0526)
(1569.11 -31.9849 -4.37992)
(1619.08 -27.4919 18.479)
(1663.49 -21.5838 35.5623)
(1725.69 -14.3781 26.1692)
(1793.42 -7.36679 14.3916)
(1849.58 -5.19232 15.5871)
(1896.14 -5.21961 16.5683)
(1939.22 -7.44389 9.13249)
(1997.86 -8.39347 -3.89952)
(2060.16 -7.43063 -16.7983)
(2144.13 -4.12627 -29.5152)
(2284.04 -2.4347 -25.223)
(2431.82 4.36701 18.8328)
(2525.47 19.2062 86.5479)
(2650.62 31.2029 133.237)
(2862.64 37.521 150.269)
(3124.34 34.6633 152.805)
(3396.81 24.6221 152.497)
(3657.46 16.565 150.22)
(3910.31 14.2047 143.96)
(4181.91 11.9682 134.307)
(4465.96 8.80668 125.924)
(4769.6 7.18791 131.078)
(5014.21 13.5917 152.126)
(5230.06 17.9543 188.738)
(5355.74 18.6476 237.097)
(5321.85 30.5566 300.395)
(5109.42 57.882 398.082)
(4804.05 93.2835 555.627)
(4409.76 -69.9829 717.864)
(2691.05 -286.573 474.486)
(2260.88 130.684 -84.5336)
(3379.61 423.614 -148.169)
(3503.91 236.597 26.5645)
(3249.01 89.0457 -96.2093)
(3591.41 209.012 -419.958)
(5527.19 692.157 -1099.28)
(12325.1 1650.02 -1711.93)
(15578.2 1194.99 -3953.76)
(-107.282 -2.44682 -56.465)
(-340.256 -4.10552 548.53)
(-267.606 4.70961 570.982)
(-6.68826 33.4487 -211.67)
(43.0968 -12.6272 415.594)
(180.203 -23.5259 185.496)
(365.992 -23.7124 10.8321)
(557.383 -23.7655 -22.9265)
(730.686 -22.9291 -7.2527)
(879.322 -21.5112 21.3427)
(1015.18 -21 45.1527)
(1182.76 -22.2531 82.4339)
(1350.27 -23.9633 128.449)
(1495.14 -23.8371 156.751)
(1641.15 -19.6433 169.185)
(1788.47 -15.3255 187.581)
(1930.44 -10.4517 200.184)
(2083.44 -5.38273 191.419)
(2238.74 1.6109 173.938)
(2374.15 5.32287 175.179)
(2489.26 4.80495 177.816)
(2591.58 -0.0694274 172.674)
(2696.26 -1.36422 143.232)
(2786.79 3.08002 89.4885)
(2844.27 10.1099 42.1148)
(2875.74 14.0951 -13.0685)
(2889.45 11.3585 -50.1141)
(2935.86 22.4081 -57.5049)
(3010.97 32.2626 -143.141)
(3138.01 36.2342 -275.748)
(3315.92 34.7841 -401.182)
(3532.5 26.0526 -473.088)
(3774.85 11.9055 -486.905)
(4011.82 0.149427 -463.593)
(4216.41 -6.01599 -431.997)
(4407.55 -6.54803 -412.508)
(4612.15 -4.47443 -402.129)
(4860.56 -1.62708 -358.684)
(5124.16 0.66525 -251.042)
(5336.01 0.124962 -75.5551)
(5506.07 -2.68541 89.8674)
(5632.97 -5.60769 274.682)
(5728.46 -8.89134 527.153)
(5947.97 -6.9921 875.824)
(6198.52 -4.00181 1054.32)
(6447.94 -50.7042 870.591)
(6090.9 55.1408 307.574)
(4570.73 182.462 24.2084)
(4924 139.396 -129.47)
(5160.15 27.8986 -710.401)
(5719.92 84.6485 -1502.19)
(4510.94 -305.927 -307.24)
(-4362.76 -230.018 935.5)
(-5895.37 -133.059 -73.4683)
(-174.76 5.36386 -87.9995)
(-389.144 12.6749 330.051)
(-255.961 20.659 186.109)
(93.3897 29.2815 22.7636)
(198.583 -1.99412 -0.786774)
(334.212 -12.6727 -251.811)
(496.091 -14.1519 -366.722)
(663.274 -15.1959 -365.08)
(822.069 -15.2361 -326.282)
(959.12 -14.7125 -282.903)
(1085.87 -15.0288 -250.647)
(1219.9 -17.0507 -214.139)
(1357.81 -18.8516 -157.53)
(1488.38 -17.8378 -105.534)
(1626.66 -13.0895 -64.3524)
(1775.11 -8.72322 -17.9453)
(1924.28 -3.53999 21.4817)
(2086.05 2.28572 32.5692)
(2253.15 9.86087 37.5385)
(2406.96 13.8794 56.3204)
(2543.78 13.9267 75.7632)
(2660.28 9.45235 78.9273)
(2762.4 6.74299 65.964)
(2845.82 8.24199 30.4612)
(2902.18 13.9321 2.48802)
(2932.96 21.9098 -29.1164)
(2950.33 26.3756 -82.8245)
(3002.51 43.8279 -74.8916)
(3089.62 56.9602 -110.049)
(3223.73 60.0392 -198.804)
(3405.78 55.4099 -301.461)
(3626.05 42.5025 -370.614)
(3861.54 24.0903 -404.897)
(4094.14 8.52886 -417.694)
(4297.92 -0.866741 -423.622)
(4491.19 -3.66216 -430.069)
(4702.26 -2.94249 -427.843)
(4928.35 -1.34631 -387.298)
(5186.53 -0.0033919 -295.931)
(5372.49 -0.548389 -128.447)
(5496.39 -2.497 36.9966)
(5544.69 -4.4968 199.09)
(5503.49 -5.09991 409.752)
(5441.08 1.70141 693.23)
(5450.12 5.75675 978.72)
(5638.52 -7.35833 929.651)
(5316.95 28.0198 500.881)
(4470.95 222.522 81.6033)
(5152.89 232.934 205.711)
(5951.41 166.019 123.932)
(6024.8 170.835 -202.868)
(7469.98 159.903 -118.31)
(-1133.44 -44.173 885.998)
(-5116.61 -94.5005 91.0076)
(-288.335 8.17613 145.656)
(-435.89 20.3943 620.806)
(-110.749 50.7288 -158.575)
(23.088 -9.34047 259.423)
(110.848 -16.542 153.059)
(292.281 -17.9689 -89.0687)
(464.561 -17.3099 -187.321)
(616.854 -15.2045 -199.616)
(753.374 -13.0039 -171.388)
(875.485 -10.1522 -143.03)
(992.897 -8.13395 -143.948)
(1114.8 -9.21813 -126.596)
(1248.74 -11.7473 -43.9625)
(1371.81 -11.9656 9.86558)
(1503.37 -9.72711 42.8837)
(1645.12 -7.56793 74.7853)
(1803.45 -3.49378 94.8882)
(1973.56 -0.0558062 98.6782)
(2133.77 4.69876 110.28)
(2279.79 6.5753 128.751)
(2417.62 5.78681 139.577)
(2559.65 0.794284 132.219)
(2706.05 4.00395 87.7586)
(2806.56 15.3089 48.185)
(2844.98 26.7564 17.8982)
(2839.97 20.6675 -89.9557)
(2884.39 23.7347 -77.3408)
(2966.08 39.0707 -177.806)
(3103.4 45.2872 -353.846)
(3286.05 42.6647 -522.903)
(3488.05 27.2878 -645.011)
(3721.84 0.0327641 -704.076)
(3990.53 -23.5654 -696.076)
(4236.57 -33.0097 -623.24)
(4440.3 -32.6276 -545.194)
(4634.55 -25.8726 -525.388)
(4841.17 -8.71802 -579.838)
(5028.07 6.13418 -585.472)
(5240.42 14.7234 -451.588)
(5255.66 9.8749 -15.1523)
(5207.59 0.928945 309.029)
(5186.02 -17.3405 594.662)
(5010.15 -29.8391 919.191)
(4707.85 -26.2254 1139.9)
(4832.27 30.9744 968.722)
(5712.56 40.3158 406.197)
(6904.02 108.703 62.5941)
(7718.68 373.386 249.262)
(4714.24 202.955 652.79)
(2502.93 -170.674 941.58)
(560.633 -377.625 1432.37)
(-2478.47 -577.5 2107.69)
(-2103.41 -516.682 2171.79)
(4383.37 13.2778 815.911)
(-362.948 19.416 110.702)
(-491.17 36.5916 488.142)
(-164.563 68.4704 -529.054)
(133.68 0.69071 34.2032)
(269.796 -6.10669 -270.189)
(425.499 -7.81101 -512.43)
(567.023 -7.49935 -582.971)
(697.332 -6.06757 -566.576)
(821.76 -4.61415 -516.276)
(933.435 -2.65039 -465.213)
(1046.19 -1.50918 -446.809)
(1161.24 -3.63786 -424.708)
(1273.31 -7.79412 -364.147)
(1386.58 -8.41701 -305.514)
(1505.51 -6.19657 -254.478)
(1636.37 -3.92135 -196.206)
(1787.66 0.726469 -148.732)
(1953 4.82191 -114.939)
(2111.64 10.0972 -77.1219)
(2264.98 12.6415 -35.6103)
(2417.68 13.3524 -6.88572)
(2564.29 8.84174 -0.878057)
(2709.03 8.96483 -10.3437)
(2810.48 15.983 -19.6609)
(2862.23 29.938 -9.21014)
(2889.84 37.1792 -46.0621)
(2906.98 51.706 -112.632)
(3009.51 74.8894 -121.024)
(3165.5 79.9194 -203.311)
(3372.02 70.9262 -314.111)
(3602.11 47.908 -418.259)
(3833 12.6753 -503.263)
(4071.04 -18.002 -559.026)
(4311.8 -33.079 -562.256)
(4520.78 -36.6643 -529.384)
(4696.07 -33.0433 -523.93)
(4877.12 -18.8991 -560.526)
(5052.28 -6.26639 -551.171)
(5319.47 1.46119 -434.24)
(5410.17 -2.75233 -22.1802)
(5299.7 -11.1232 303.192)
(5229.26 -28.4436 530.072)
(4950.47 -38.7207 817.845)
(4570.13 -30.1491 1096.81)
(4311.3 31.5551 1096.23)
(5068.09 52.2312 631.73)
(5940.81 97.1574 83.1585)
(7170.54 373.887 -29.3921)
(7999.21 487.477 299.975)
(5874.14 47.3379 876.299)
(3731.79 -141.152 1531.36)
(422.291 -309.158 2616.22)
(-962.453 -372.39 2866.23)
(5117.04 57.3341 579.271)
(-397.411 17.558 195.501)
(-413.091 26.0889 558.088)
(-126.767 71.3935 -590.37)
(47.1662 -9.58342 326.413)
(221.643 -21.6816 11.5307)
(408.062 -23.5095 -196.486)
(561.526 -21.5257 -263.727)
(685.215 -17.9671 -253)
(792.043 -14.4425 -211.897)
(886.212 -10.7037 -173.158)
(978.747 -7.14392 -169.836)
(1076.35 -7.30659 -162.352)
(1192.48 -11.1211 -74.3454)
(1298.25 -10.8682 -18.8637)
(1405.65 -8.95758 8.96543)
(1525.48 -5.46778 32.2075)
(1661.79 -3.03305 51.4162)
(1804.59 1.06089 62.6572)
(1943.74 3.53523 82.9217)
(2078.18 6.73061 101.864)
(2209.37 2.52174 108.447)
(2366.69 0.0123306 91.6492)
(2511.21 8.47918 60.3607)
(2590.57 30.4027 60.6368)
(2610.59 38.1511 8.18342)
(2644.98 27.7258 -62.9682)
(2823.11 43.0667 -140.271)
(3012.88 53.4441 -392.698)
(3224.92 50.0336 -640.64)
(3431.09 28.6933 -806.353)
(3639.81 -15.496 -898.782)
(3896.26 -62.4751 -926.991)
(4163.58 -87.523 -846.675)
(4386.21 -89.0337 -698.847)
(4571.64 -80.096 -569.825)
(4748.3 -77.3038 -507.085)
(5005.29 -49.9253 -544.408)
(4753.4 -16.6377 -264.161)
(4370.1 -6.68218 167.723)
(3586.84 -13.3176 376.601)
(4112.54 -10.2073 12.0309)
(5434.72 -33.7787 -214.254)
(6467.03 -49.5397 131.023)
(7441.51 26.8767 467.945)
(8417.52 250.599 520.841)
(5616.15 119.116 729.776)
(2612.32 -78.499 1311.2)
(682.741 -37.8683 1929.7)
(-1017.57 -60.6001 2347)
(-2147.09 -173.378 2346.79)
(-2830.47 -239.322 2039.15)
(-3582.09 -292.757 571.974)
(-1026.17 -176.292 -828.969)
(-2052.24 -33.1125 -1063.17)
(-479.831 29.6697 203.596)
(-443.736 39.2903 441.89)
(-41.8094 66.0945 -529.317)
(204.382 -1.15505 -45.3334)
(372.263 -9.8866 -458.801)
(515.128 -10.6247 -654.518)
(628.654 -8.46966 -691.231)
(727.882 -5.29623 -653.103)
(825.188 -2.4362 -589.551)
(914.715 0.196467 -525.324)
(1008.51 2.58906 -499.607)
(1107.11 1.02203 -478.733)
(1207.42 -5.06112 -415.715)
(1310.42 -6.05289 -356.374)
(1415.88 -4.7342 -304.793)
(1530.25 -1.47494 -253.933)
(1660.25 0.817114 -209.806)
(1796.5 4.83989 -168.27)
(1931.75 7.27458 -126.995)
(2069.38 11.0346 -85.5934)
(2208.13 8.75273 -66.3866)
(2353.92 5.6404 -61.2643)
(2492.17 7.76924 -53.6644)
(2582.63 25.4858 0.00915686)
(2634.37 45.3682 37.3554)
(2673.88 54.7685 -52.8846)
(2812.26 88.4598 -85.0559)
(3023.84 103.818 -176.733)
(3274.3 93.3412 -322.727)
(3537.04 62.2428 -458.496)
(3777.91 8.86689 -575.967)
(3989.62 -47.8611 -692.666)
(4228.31 -80.9229 -783.459)
(4506.43 -88.8229 -781.738)
(4700.71 -84.6955 -668.379)
(4849.35 -85.0637 -582.802)
(4905.14 -62.0599 -504)
(4651.53 -32.2892 -243.925)
(4305.38 -21.8103 81.4349)
(3667.5 -27.367 303.525)
(4013.75 -24.846 0.136642)
(5217.98 -44.9491 -195.136)
(6203.35 -53.9765 60.5237)
(6884.29 25.0321 361.446)
(8082.94 243.758 563.168)
(8412.17 217.25 472.477)
(4804.88 -24.641 985.839)
(2379.27 55.2991 1632.26)
(926.195 72.7784 2215.08)
(-451.267 -46.9329 2511.2)
(-1514.55 -126.126 2391.45)
(-2770.95 -216.565 1141.8)
(-1102.15 -182.502 -196.791)
(-2182.39 -31.9819 -853.977)
(-381.891 39.9175 111.696)
(-245.266 10.864 263.291)
(-12.1215 11.7058 -200.542)
(132.653 -20.7718 20.9849)
(337.123 -28.8638 -195.381)
(512.067 -30.985 -325.842)
(648.194 -28.9159 -346.182)
(747.313 -24.5081 -309.967)
(828.594 -19.6178 -259.731)
(899.575 -14.9418 -220.634)
(972.455 -9.09212 -224.154)
(1049.98 -9.5651 -233.573)
(1154.54 -16.1595 -124.505)
(1248.66 -17.2991 -50.6612)
(1340.81 -14.7057 -16.5033)
(1442.84 -10.5082 11.3685)
(1557.6 -7.01841 30.203)
(1682.49 -2.10378 50.449)
(1811.92 1.32571 70.2675)
(1939.59 4.65354 93.7151)
(2064.29 -1.85491 82.6752)
(2228.73 -2.08844 57.5881)
(2356.71 17.1894 65.2791)
(2396.48 50.1396 69.1243)
(2400.04 43.9558 -48.0883)
(2626.76 44.6992 -147.658)
(2906.18 58.1552 -442.762)
(3163.36 54.5362 -773.618)
(3370.73 31.0823 -987.634)
(3544.62 -28.7233 -1087.03)
(3753.81 -109.061 -1116.53)
(4001.85 -166.124 -1045.06)
(4227.66 -176.532 -871.508)
(4438.61 -151.767 -692.4)
(4637.07 -124.109 -550.402)
(4845.77 -122.547 -441.553)
(5471.3 -108.105 -345.627)
(5417.5 -52.6869 -59.9823)
(6382.05 -44.5764 -603.739)
(9010.68 107.309 -993.386)
(12314.7 271.909 -989.046)
(6548.36 159.001 335.148)
(4319.52 25.2213 1072.5)
(2022.38 26.5926 1673.2)
(-49.7059 21.8276 2311.67)
(-1928.11 -31.1388 2928.08)
(-3257.11 -64.4973 3256.29)
(-4130.23 -46.7347 3255.84)
(-4572.41 -70.0408 2991.79)
(-4359.84 -127.658 2393.93)
(-3431.79 -153.095 1567.32)
(-2367.5 -132.618 286.527)
(-2528.67 -103.101 462.283)
(-1323.91 -6.30918 549.137)
(-484.41 48.2598 194.643)
(-274.135 22.2699 98.5958)
(99.9007 14.6162 -230.619)
(281.441 -9.38708 -406.978)
(457.396 -13.8386 -688.628)
(576.07 -13.7152 -806.423)
(663.895 -10.6664 -802.972)
(738.409 -6.16176 -745.56)
(815.631 -1.77384 -673.939)
(891.898 1.5165 -605.822)
(969.736 5.41842 -579.1)
(1055.3 2.63521 -565.681)
(1146.46 -7.46601 -506.089)
(1238.64 -11.1022 -442.292)
(1337.83 -9.53748 -376.219)
(1440.93 -5.9369 -316.355)
(1556.06 -2.92182 -262.516)
(1679.92 1.52655 -211.545)
(1809.22 4.51786 -164.618)
(1943.05 8.43954 -121.408)
(2073.69 4.16927 -113.643)
(2218.89 1.45203 -109.198)
(2333.12 9.179 -66.9154)
(2405.99 41.4598 42.61)
(2462.67 61.064 55.1509)
(2555.38 93.7631 -78.1577)
(2853.89 131.073 -149.716)
(3154.72 125.945 -323.687)
(3455.69 90.4911 -485.655)
(3709.09 22.0459 -620.254)
(3878 -65.7813 -766.337)
(4025.81 -131.732 -945.3)
(4284.58 -155.232 -1109.58)
(4624.09 -140.864 -1091.34)
(4794.94 -120.724 -847.277)
(4993.63 -127.923 -658.308)
(5176.82 -117.078 -307.711)
(4871.6 -65.4787 46.482)
(5746.63 -51.8678 -507.351)
(7644.67 82.1378 -895.82)
(12222.6 275.286 -933.107)
(8597.67 191.295 -13.0683)
(6066.86 30.9885 780.248)
(3902.3 44.8466 1372.03)
(1825.67 53.5359 2004.12)
(3.88561 8.38164 2625.58)
(-1742.25 -24.0553 3141.85)
(-2792.9 9.0007 3221.59)
(-3354.75 -5.01509 3085.84)
(-3467.1 -70.2158 2695.56)
(-2972.48 -109.323 2033.09)
(-2328.8 -111.63 794.388)
(-2473.99 -109.275 755.307)
(-1432.67 -10.0761 554.344)
(-263.371 67.5293 -223.579)
(-99.3346 9.11131 -15.7152)
(100.767 -18.0057 -52.4622)
(255.747 -31.1755 -150.799)
(442.552 -37.6729 -327.403)
(604.192 -39.264 -404.017)
(727.046 -36.5323 -384.887)
(806.269 -30.7055 -324.728)
(863.731 -24.3033 -269.669)
(919.568 -18.5817 -232.116)
(978.614 -11.4613 -245.83)
(1033.72 -12.1562 -276.91)
(1124.47 -22.461 -151.998)
(1206.3 -25.2855 -67.4118)
(1286.29 -22.7517 -29.1509)
(1374.44 -19.2431 -0.399784)
(1473.7 -13.3941 18.4046)
(1585.15 -9.23193 40.1285)
(1705.43 -2.56496 56.8411)
(1825.92 -1.41613 77.7944)
(1950.57 -7.34858 48.6279)
(2113.79 -6.07308 19.9235)
(2232.07 34.1001 78.8688)
(2185.55 61.9668 3.44266)
(2351.42 54.8103 -139.374)
(2736.61 55.0824 -467.142)
(3083.36 46.1959 -887.216)
(3313.95 23.4962 -1167.47)
(3446.56 -37.7925 -1268.51)
(3583.8 -142.26 -1256.02)
(3791.78 -240.22 -1146.45)
(3995.49 -280.297 -925.094)
(4199.71 -277.931 -743.686)
(4438.04 -222.509 -613.688)
(4715.67 -163.491 -551.894)
(5205.6 -153.502 -723.027)
(7075.19 -129.28 -1622.44)
(10368.7 54.7999 -2647.41)
(7746.38 174.59 -1709.31)
(3096.64 61.7966 438.482)
(762.3 64.1189 1804.07)
(-1190.2 63.8895 2866.08)
(-2606.67 21.3675 3364.28)
(-3946.1 3.13775 3709.78)
(-5035.15 -5.31432 4003.1)
(-5846.81 -12.5869 4174.65)
(-6244.12 -18.9929 4030.57)
(-6264.11 -19.744 3548.14)
(-5937.04 -40.6524 2768.01)
(-5251.67 -76.577 1729.8)
(-4315.94 -99.5066 883.571)
(-2906.82 -72.4448 208.176)
(-4082.72 -89.8055 760.695)
(-1285.38 -22.7331 1285.36)
(-369.044 67.064 77.3155)
(-129.132 16.0716 -385.048)
(213.865 -8.68333 -275.672)
(390.621 -16.2297 -634.462)
(524.99 -17.4053 -859.03)
(610.324 -15.6749 -917.952)
(672.057 -11.1377 -884.104)
(727.863 -4.83796 -811.526)
(790.176 1.16648 -735.524)
(862.158 5.19886 -666.063)
(930.005 8.98673 -633.088)
(1003.32 4.15226 -631.234)
(1084.97 -10.9497 -587.839)
(1163.66 -17.6986 -526.933)
(1252.61 -16.72 -456.779)
(1349.51 -14.2103 -386.868)
(1456.01 -8.96358 -324.309)
(1573.13 -5.5711 -268.095)
(1700.07 0.497846 -217.56)
(1833.82 2.65003 -174.329)
(1961.06 -1.08012 -177.391)
(2107.33 -6.00491 -164.087)
(2214.36 17.2215 -56.984)
(2278.9 58.1014 83.1547)
(2329.35 89.8963 1.10055)
(2614.13 147.298 -134.17)
(3004.81 159.692 -314.121)
(3351.52 126.437 -506.456)
(3624.13 53.7828 -647.906)
(3764.92 -52.692 -780.03)
(3795.43 -154.67 -973.099)
(3872.94 -214.906 -1211.49)
(4232.27 -239.551 -1496.24)
(4634.58 -195.147 -1364.6)
(4865.68 -146.142 -995.714)
(5424.68 -153.711 -1008.09)
(7118.74 -132.216 -1632.91)
(9897.6 48.5938 -2235.72)
(8805.47 180.963 -1856.44)
(4508.68 64.2287 25.889)
(2038.94 69.399 1474.17)
(402.267 75.9815 2487.64)
(-1062.54 34.7983 3101.99)
(-2452.36 18.4003 3502.72)
(-3644.64 10.5975 3823.6)
(-4545.74 4.55522 4045.9)
(-5130.79 -0.175225 4018.17)
(-5268.17 2.60722 3607.87)
(-5060.41 -18.8267 2923.01)
(-4545.5 -61.9734 1991.1)
(-3790.72 -93.9692 1177.5)
(-2598.75 -74.3389 429.632)
(-3669.91 -101.525 811.733)
(-1211.06 -27.4837 1177.46)
(-178.088 87.3625 -517.411)
(-110.803 32.749 -223.568)
(176.987 -22.4164 -64.2923)
(370.464 -40.5802 -302.071)
(543.883 -46.5941 -446.146)
(688.776 -48.3284 -471.738)
(796.56 -44.6929 -412.911)
(855.315 -36.3404 -326.723)
(888.041 -27.1754 -270.136)
(937.766 -20.5923 -243.6)
(996.775 -15.2396 -260.302)
(1030.79 -17.3841 -304.587)
(1100.17 -29.2467 -165.019)
(1169.7 -33.5146 -70.0164)
(1234.37 -31.9904 -27.4681)
(1306.37 -27.599 -2.73993)
(1393.08 -21.5134 19.1488)
(1492.74 -16.0578 34.1117)
(1605.89 -7.70555 50.5238)
(1719.09 -6.78744 56.0843)
(1840.06 -13.9862 5.77118)
(1997.72 -1.34726 -17.0666)
(2076.12 62.1459 71.1901)
(2027.48 86.3439 -59.9016)
(2439.32 61.4827 -422.828)
(2899.22 31.5084 -967.005)
(3221.82 1.8456 -1336.97)
(3352.08 -48.4979 -1458.93)
(3414.53 -151.345 -1410.19)
(3554.29 -266.644 -1248.81)
(3739.17 -326.765 -965.203)
(3902.37 -333.503 -679.109)
(4079.13 -322.664 -557.881)
(4226.5 -249.985 -592.162)
(4402.57 -122.82 -901.625)
(5202.91 -38.5427 -1850.45)
(5489.15 45.9797 -2602.87)
(1915.26 133.954 -218.437)
(-688.192 135.823 1771.78)
(-2216.2 84.7136 2860.01)
(-3533.14 62.1971 3559.1)
(-4693.61 46.3243 4169.15)
(-5540.33 20.4638 4493.51)
(-6186.78 4.3849 4647.86)
(-6592.24 2.39369 4662.67)
(-6747.42 5.5 4501.09)
(-6611.3 1.45022 4070.52)
(-6220.34 -9.3254 3345.66)
(-5677.83 -34.8308 2347.5)
(-5050.88 -73.0784 1153.32)
(-4479.02 -108.684 297.013)
(-2800.48 -85.7992 -443.975)
(-4065.9 -170.03 291.645)
(386.738 -32.7746 -171.654)
(-273.611 70.2561 44.9124)
(-127.076 29.626 -698.723)
(297.749 -12.7973 -447.704)
(469.923 -19.9543 -864.069)
(563.799 -18.3981 -1005.6)
(610.6 -15.6084 -1009.04)
(646.848 -9.43496 -953.031)
(690.854 -0.810557 -869.004)
(745.494 7.4719 -792.663)
(822.068 11.8513 -725.638)
(892.509 12.6422 -682.359)
(955.253 4.82061 -694.547)
(1020.97 -13.3175 -677.311)
(1086.04 -23.6076 -612.551)
(1154.23 -25.1594 -549.315)
(1243.48 -22.0311 -471.121)
(1344.24 -16.9316 -399.622)
(1459.1 -12.449 -337.293)
(1587.12 -4.79555 -284.873)
(1726.03 -1.74624 -240.408)
(1843.58 -7.122 -260.196)
(1985.72 -8.86468 -232.346)
(2105.06 36.7967 -42.9959)
(2170.85 88.8812 101.159)
(2279.91 153.534 -76.4363)
(2770.86 197.202 -278.13)
(3201.42 170.664 -516.844)
(3521.14 101.986 -678.867)
(3657.79 -5.71845 -788.645)
(3621.98 -119.978 -963.625)
(3598.55 -204.979 -1254.98)
(3816.93 -251.467 -1707.04)
(4609.75 -289.688 -2433.09)
(5012.73 -224.499 -2182.42)
(5186.43 -95.4184 -1928.69)
(6215.39 -16.0429 -2701.08)
(5146.95 72.3897 -2443.67)
(1937.57 124.815 -37.9469)
(50.61 139.576 1552.22)
(-1243.9 93.0174 2613.49)
(-2441.11 71.4103 3328.9)
(-3519.42 56.0343 3949.07)
(-4425.67 29.6477 4338.72)
(-5150.29 11.8366 4533.84)
(-5671.61 8.16506 4580.21)
(-5909.33 11.3974 4455.57)
(-5858.92 8.23062 4089.12)
(-5536.11 -2.2219 3426.64)
(-5071.47 -29.9518 2499.71)
(-4525.64 -73.0983 1342.52)
(-4017.46 -112.802 435.269)
(-2637.59 -91.4273 -421.753)
(-3609.36 -184.029 35.5944)
(221.083 -43.2375 6.99163)
(-361.709 -11.8649 -1087.75)
(-228.38 34.2624 -357.259)
(249.81 -21.7726 -184.419)
(462.416 -41.7019 -449.179)
(621.508 -52.6651 -535.908)
(747.366 -58.3301 -518.056)
(842.547 -54.4665 -426.271)
(884.089 -41.8942 -313.383)
(896.097 -28.3115 -270.002)
(947.218 -23.1188 -275.664)
(1013.48 -26.2032 -281.393)
(1030.54 -29.3224 -311.641)
(1076.51 -38.1612 -167.986)
(1135.5 -44.5834 -60.5856)
(1185.04 -43.0585 -11.8483)
(1239.35 -37.7036 9.24667)
(1310.29 -31.985 24.9417)
(1397.64 -23.4612 33.8587)
(1506.4 -15.0216 46.2377)
(1617.2 -12.7893 38.9128)
(1728.79 -23.4504 -38.3432)
(1890.88 21.3836 -34.338)
(1814.16 91.1563 -20.3873)
(2030.53 91.0086 -262.988)
(2542.83 8.37423 -972.771)
(3039.52 -54.8676 -1509.11)
(3198.28 -95.3209 -1692.51)
(3226.55 -164.388 -1619.14)
(3295.91 -267.796 -1376.03)
(3416.83 -331.781 -1039.81)
(3587.57 -346.858 -693.217)
(3720.49 -316.91 -372.359)
(3752.51 -297.748 -145.89)
(3575.94 -244.477 -68.7834)
(3223.47 -19.7331 -506.382)
(1650.92 285.262 -879.765)
(-1159.37 303.196 289.251)
(-2873.46 206.901 1815.74)
(-3797.35 117.845 3049.22)
(-4680.72 56.988 3950.14)
(-5414.45 27.7029 4506.13)
(-5947.19 14.6286 4835)
(-6266.15 2.9273 4957.93)
(-6426.4 -6.1343 4914.72)
(-6432.35 -10.1416 4690.5)
(-6264.78 -15.3634 4251.59)
(-5908.86 -28.0295 3562.2)
(-5462.1 -37.1887 2684.25)
(-5110.76 -38.8248 1851.21)
(-4898.19 -63.2241 1220.09)
(-4853.1 -168.914 783.402)
(-3648.81 -244.518 473.935)
(-5302.78 -226.905 559.679)
(-2000.11 -65.4252 321.764)
(-340.365 19.1831 -134.474)
(-123.031 17.5076 -792.099)
(329.716 -5.95245 -817.631)
(486.795 -11.8897 -1078.32)
(546.329 -14.2314 -1113.53)
(564.919 -13.8311 -1077.7)
(585.341 -6.76993 -1014.92)
(627.435 4.72653 -923.71)
(686.511 15.8401 -849.926)
(772.153 19.0236 -794.877)
(858.369 12.2856 -739.482)
(913.643 3.50643 -749.458)
(958.334 -13.6476 -757.055)
(1008.32 -29.3768 -697.067)
(1050.06 -33.9752 -642.087)
(1121.1 -30.997 -566.736)
(1214.54 -26.9409 -491.833)
(1326.81 -19.6253 -425.159)
(1459.87 -12.0675 -369.387)
(1611.86 -5.88855 -320.217)
(1721.07 -16.3035 -347.03)
(1865.68 -1.00291 -296.748)
(2002.94 68.5957 -34.6415)
(2040.64 145.312 52.1555)
(2382.94 223.705 -197.624)
(2964.33 208.7 -518.568)
(3364 146.003 -731.053)
(3543.42 52.2327 -813.417)
(3471.32 -50.7589 -910.722)
(3342.18 -132.587 -1157.96)
(3474.79 -195.114 -1754.14)
(4180.41 -162.822 -2812.31)
(4562.73 -118.133 -3722.63)
(3023.37 -50.8103 -1989.54)
(2060.86 114.345 -861.991)
(970.063 232.869 -213.796)
(-678.942 238.838 714.006)
(-1958.7 171.024 1863.1)
(-2880.93 109.398 2946.55)
(-3784.47 57.3717 3878.1)
(-4581.92 29.3823 4462.75)
(-5183.85 18.754 4794.39)
(-5612.44 8.98173 4929.56)
(-5896.39 0.920686 4896.25)
(-6041.3 -2.30603 4688.4)
(-5991.69 -6.63675 4270.74)
(-5717.44 -19.2359 3613.71)
(-5293.83 -29.6391 2735.19)
(-4932.73 -33.6758 1781.13)
(-4599.54 -62.3028 1007.63)
(-4378.53 -177.864 606.002)
(-3167.49 -261.971 203.637)
(-5044.47 -231.964 138.186)
(-1230.38 -101.07 211.084)
(-121.428 -57.5934 179.993)
(-203.776 -43.5216 -713.684)
(289.403 -32.9833 -526.546)
(498.154 -43.3443 -622.148)
(636.615 -57.258 -617.183)
(755.763 -67.1745 -553.764)
(853.314 -63.2967 -430.11)
(891.734 -45.0749 -291.821)
(895.262 -25.0797 -279.224)
(948.075 -23.2494 -324.234)
(1021.47 -38.0462 -298.512)
(1030.61 -45.0604 -286.852)
(1049.9 -46.7085 -157.766)
(1099.59 -53.0257 -41.4242)
(1139 -52.3839 16.411)
(1171.96 -47.2574 36.2105)
(1218.73 -39.255 38.7279)
(1287.97 -29.076 40.1787)
(1384.21 -17.3518 34.6098)
(1488.51 -16.5787 10.5188)
(1596.03 -21.3439 -83.8535)
(1742.23 65.6675 -59.6685)
(1601.66 148.716 -127.897)
(2055.32 23.2996 -725.602)
(2651.92 -119.997 -1594.9)
(3007.76 -184.532 -1906.67)
(3074.69 -227.168 -1831.07)
(3083.61 -272.866 -1579.37)
(3198.1 -304.032 -1139.26)
(3214.59 -347.514 -772.154)
(3287.37 -385.562 -430.035)
(3380.5 -346.302 -80.5238)
(3362.97 -299.739 278.161)
(3250.91 -282.441 481.059)
(2872.22 -204.082 692.631)
(1645.94 -50.3872 915.459)
(26.4227 148.003 889.894)
(-1686.81 266.351 1973.32)
(-3205.36 217.147 3612.06)
(-4286.7 124.622 4587.2)
(-4931.34 77.5976 4987.31)
(-5295.02 51.8389 5111.39)
(-5441.61 30.3413 5086.52)
(-5422.71 14.5656 4956.84)
(-5302.82 7.50385 4702.62)
(-5121.7 -1.95624 4326.4)
(-4909.87 -24.8482 3955.97)
(-4761.6 -95.0336 3760.95)
(-4618.13 -264.42 3557.19)
(-3819.09 -435.448 2864.74)
(-2442.61 -531.206 2116.94)
(-2016.77 -559.727 2649.71)
(-7235.84 -551.16 2612.74)
(-4618.55 -836.562 1890.68)
(-163.917 -78.0383 -13.443)
(27.3621 0.976853 -843.031)
(326.517 5.51651 -1090.36)
(448.826 0.113295 -1207.44)
(477.899 -7.90855 -1183.81)
(483.519 -11.139 -1138.62)
(498.643 -3.81285 -1081.98)
(545.855 10.9056 -986.247)
(620.178 26.6788 -917.28)
(718.16 27.0633 -873.353)
(823.978 11.8229 -821.011)
(885.279 0.520025 -803.567)
(914.202 -10.4222 -827.098)
(943.376 -27.6045 -790.314)
(965.432 -36.3458 -726.015)
(990.866 -36.8919 -671.158)
(1068.84 -31.6682 -595.746)
(1171 -23.5531 -530.069)
(1303.84 -12.6744 -477.459)
(1464.83 -5.82815 -427.223)
(1573.12 -17.3563 -444.372)
(1751.03 24.1267 -349.82)
(1905.32 127.512 -20.6405)
(1903 236.208 -63.7222)
(2604.2 256.67 -444.124)
(3142.27 175.359 -816.816)
(3423.26 92.4463 -905.795)
(3359.43 23.1906 -879.396)
(3179.64 -33.3467 -930.242)
(2984.58 -113.362 -1202.32)
(3181.68 -246.2 -2161.74)
(3655.3 -187.064 -2283.85)
(2459.86 -63.9757 -1144.31)
(907.296 20.5012 -440.105)
(-483.752 19.097 466.003)
(-2210.67 77.1829 1392.17)
(-3466.01 193.752 2252.37)
(-4202.34 229.571 3192.36)
(-4720.34 204.024 4027.18)
(-5165.55 140.567 4662.65)
(-5478.31 95.2751 4986.48)
(-5662.1 63.4609 5106.71)
(-5741.07 31.6972 5111.2)
(-5714.55 4.5609 4984.25)
(-5565.13 -14.1333 4674.8)
(-5245.45 -35.3035 4157.73)
(-4763.28 -67.41 3571.07)
(-4265.2 -143.711 3292.3)
(-4113.39 -328.222 3212.29)
(-4045.59 -514.68 2403.85)
(-3425.07 -603.725 865.402)
(-3781.24 -691.373 369.647)
(-9797.73 -706.46 204.869)
(-4874.26 -1117.27 -570.844)
(-33.9848 -14.6484 -250.259)
(101.097 -56.3016 -868.212)
(306.608 -32.4769 -742.755)
(463.543 -38.9367 -735.561)
(583.555 -54.7872 -675.256)
(702.906 -68.2165 -581.867)
(813.787 -66.0842 -437.543)
(875.958 -44.2704 -282.67)
(890.609 -20.2233 -323.632)
(947.605 -18.4077 -397.302)
(1030.66 -38.8537 -309.907)
(1047.28 -52.9233 -239.927)
(1026.8 -52.038 -152.945)
(1059.31 -55.5683 -31.2177)
(1098.43 -58.8822 52.415)
(1113.12 -55.8653 77.1888)
(1125.97 -45.6484 69.5082)
(1160.42 -31.8798 54.7653)
(1230.5 -12.8514 27.0875)
(1309 -13.8021 -38.2002)
(1412.67 8.36509 -139.968)
(1472 135.672 -166.22)
(1460.59 132.072 -355.683)
(2017.89 -171.3 -1328)
(2607.47 -302.569 -2070.78)
(2715.24 -319.414 -2060.13)
(2851.03 -338.379 -1824.03)
(2736.35 -309.813 -1499.5)
(2449.67 -312.83 -935.693)
(2445.79 -375.488 -490.247)
(2266.89 -369.018 -21.6646)
(2498.49 -393.194 94.3288)
(3051.34 -458.836 149.032)
(3570.95 -491.623 396.937)
(3546.19 -425.416 1036.61)
(3140.81 -132.147 1630.28)
(1128.76 256.267 2207.83)
(-1519.71 343.429 3557.84)
(-2993.08 213.086 4729.22)
(-3713.66 114.268 5268.58)
(-4093.78 84.8708 5397.32)
(-4398.49 87.4846 5387.84)
(-4784.3 94.059 5337.83)
(-5315.08 64.4179 5269.14)
(-5946.61 -22.3338 5127.56)
(-6558.49 -175.175 4830.46)
(-6914.45 -346.005 4287.05)
(-6759.66 -350.063 3308.79)
(-6095.41 -225.22 1659.45)
(-5259.04 -235.144 -435.086)
(-5252.12 -352.064 -1544.9)
(-4638.27 -545.541 -391.88)
(-2761.36 -210.636 4597.22)
(-2108.97 -4870.7 7171.93)
(17.2457 -3.56024 -385.197)
(179.762 -9.67661 -1235.86)
(328.147 11.6916 -1299.16)
(380.849 7.78464 -1298.38)
(385.947 -2.60655 -1245.05)
(385.668 -7.64424 -1203.6)
(399.016 -0.436153 -1157.08)
(451.633 17.9577 -1063.8)
(545.358 39.3363 -996.626)
(659.542 39.4428 -965.987)
(783.577 19.1137 -924.734)
(870.995 1.61396 -882.551)
(899.925 -3.84453 -886.505)
(905.62 -16.0928 -862.81)
(911.467 -29.7927 -786.556)
(896.366 -35.5037 -741.811)
(920.843 -30.813 -691.37)
(1001.37 -20.8051 -629.181)
(1125.31 -2.11769 -583.884)
(1279.94 4.51769 -538.37)
(1391.29 -2.4029 -547.201)
(1630.19 77.9288 -401.169)
(1752.31 217.178 -24.6995)
(1985.82 305.531 -228.682)
(2818.89 219.017 -882.611)
(3252.07 117.237 -1117.05)
(3365.01 46.6321 -1024.43)
(3251.69 52.4491 -893.194)
(3208.55 26.3643 -921.385)
(2861.3 -41.9288 -1522.44)
(2178.8 118.489 -4373.84)
(3085.05 -240.542 -3254.62)
(1640.23 -391.499 -493.971)
(464.024 -366.508 644.979)
(-1069.45 -316.96 1595.71)
(-2435.76 20.3882 2256.49)
(-2692.55 383.769 2767.84)
(-2868.55 439.861 3628.36)
(-3272.49 283.077 4460.18)
(-3712.22 152.736 5041.89)
(-4067.3 96.8724 5285.92)
(-4357.14 81.5486 5297.18)
(-4532.82 77.2599 5180.83)
(-4624.56 41.1968 4983.22)
(-4823.78 -44.5852 4700.02)
(-5273.07 -183.042 4278.8)
(-6034.28 -326.044 3657.62)
(-6812.46 -278.698 2656.71)
(-6447.08 -67.6675 886.216)
(-5282.32 -31.8997 -1422.91)
(-5847.07 -278.268 -2460.44)