/*--------------------------------*- C++ -*----------------------------------*\
| =========                 |                                                 |
| \\      /  F ield         | OpenFOAM: The Open Source CFD Toolbox           |
|  \\    /   O peration     | Version:  4.1                                   |
|   \\  /    A nd           | Web:      www.OpenFOAM.org                      |
|    \\/     M anipulation  |                                                 |
\*---------------------------------------------------------------------------*/
FoamFile
{
    version     2.0;
    format      ascii;
    class       surfaceScalarField;
    location    "93";
    object      phi;
}
// * * * * * * * * * * * * * * * * * * * * * * * * * * * * * * * * * * * * * //

dimensions      [0 3 -1 0 0 0 0];

internalField   nonuniform List<scalar> 
11516
(
9.98782e+06
14.6992
9064.16
9.96839e+06
33.2569
19681.3
9.93993e+06
44.7195
28715.1
9.90288e+06
46.0354
37304.9
9.85716e+06
45.8129
45979.8
9.80253e+06
47.4272
54903.8
9.7387e+06
47.1144
64122.1
9.66543e+06
45.8925
73578.3
9.58258e+06
49.5483
83167.3
9.48994e+06
48.5818
92982.3
9.38763e+06
50.0527
102655
9.27657e+06
58.3172
111417
9.1586e+06
-38.1013
118443
9.03843e+06
-169.455
120830
8.92631e+06
-1529.66
114206
8.83703e+06
-2403.44
92287.3
8.78695e+06
-918.552
51668.1
8.78446e+06
-448.817
3477.33
8.78622e+06
55.9288
-1361.03
8.74852e+06
1185.94
36862
8.67879e+06
-1083.05
71126.4
8.5787e+06
-4769.13
105144
8.45461e+06
-7801.08
132144
8.31353e+06
-10357.3
151671
8.15664e+06
-12401.9
169507
8.00248e+06
-14073.6
168409
7.86268e+06
-12038.9
151986
7.7423e+06
-7271.24
127737
7.63851e+06
-7317.79
111120
7.54547e+06
-12663.8
105659
7.4437e+06
-21431.3
123194
7.29847e+06
-30331.4
175608
7.11127e+06
-30203.5
217518
6.92689e+06
-17040.7
201616
6.78936e+06
-1269.98
139052
6.6693e+06
4626.74
115695
6.54528e+06
4060.45
120104
6.4327e+06
1831.08
110711
6.34495e+06
258.734
87311.6
6.28857e+06
715.733
55515.1
6.25403e+06
2676.25
31686.3
6.23043e+06
4883.26
18685.3
6.21262e+06
5953.97
11872.4
6.20672e+06
7197.36
-1366.6
6.2149e+06
9007.42
-17309.1
6.23554e+06
10033.8
-30828.9
6.26571e+06
12199.1
-42526.1
6.3066e+06
13730.8
-54794
6.35615e+06
13905.1
-63852.6
6.41679e+06
19037.6
-80027.9
6.48999e+06
14852
-88449.2
6.55616e+06
6466.87
-73072.2
6.62257e+06
3278.24
-70004.8
3912.85
-70404.7
9.98784e+06
9064.38
9.96839e+06
19683.5
9.93992e+06
28726
9.90286e+06
37313.6
9.85715e+06
45980.3
9.80252e+06
54905.6
9.73869e+06
64112.9
9.66543e+06
73560
9.58259e+06
83147.7
9.48996e+06
92948.7
9.38765e+06
102643
9.27659e+06
111410
9.15823e+06
118638
9.0368e+06
121608
8.91954e+06
116137
8.82498e+06
92636.5
8.777e+06
47540.4
8.78077e+06
-3849.08
8.78759e+06
-6481.63
8.75212e+06
36891.3
8.68298e+06
68261.9
8.58464e+06
93762.5
8.46136e+06
115649
8.31746e+06
133696
8.15324e+06
151960
7.98919e+06
150095
7.83816e+06
139075
7.70251e+06
128432
7.58089e+06
114307
7.47623e+06
92002.6
7.37898e+06
75827.6
7.25647e+06
92255.8
7.09175e+06
134592
6.90331e+06
171512
6.73748e+06
164658
6.59031e+06
151895
6.44387e+06
150568
6.31448e+06
131233
6.20852e+06
106203
6.13118e+06
77900.1
6.07728e+06
56559
6.03701e+06
45128.2
6.00525e+06
37665.5
5.99128e+06
21090.3
5.99713e+06
3055.4
6.0223e+06
-15260
6.06009e+06
-25731.9
6.10885e+06
-35234.1
6.16953e+06
-47013.6
6.25976e+06
-71481.2
6.36835e+06
-93980.2
6.45602e+06
-81519.9
6.5341e+06
-75095
-78319.1
1.00059e+07
14.2877
5214.14
1.00117e+07
32.0565
14133
1.00177e+07
41.7561
23054.2
1.00233e+07
43.5121
31965.6
1.00285e+07
46.2132
41083
1.00331e+07
48.3374
50529.5
1.00372e+07
50.8166
60381.4
1.00405e+07
55.1127
70494.9
1.00425e+07
58.0608
81517.2
1.00431e+07
66.1475
92738.2
1.00416e+07
68.0988
104501
1.0037e+07
58.6207
116415
1.00272e+07
134.241
128508
1.00087e+07
249.722
139552
9.96866e+06
1685.17
153150
9.89625e+06
2000.73
163250
9.77253e+06
2209.66
173869
9.58253e+06
1263.56
192494
9.37287e+06
-987.472
209415
9.18988e+06
-1338.15
221294
9.03106e+06
224.859
229812
8.89462e+06
1890.31
239781
8.77013e+06
3223.95
253499
8.64822e+06
4345.74
269305
8.5303e+06
4962.31
282532
8.41076e+06
5656.99
282360
8.2858e+06
6215.89
270801
8.14363e+06
7680.68
262291
7.99126e+06
11405.8
252122
7.83874e+06
14360.6
243844
7.68539e+06
17634.5
258908
7.54466e+06
20758.8
295575
7.43174e+06
16979.1
313434
7.33939e+06
5507.63
288433
7.25702e+06
-8948.59
230311
7.17794e+06
-22420.3
217223
7.09814e+06
-30489.6
230441
7.01909e+06
-31071.5
220966
6.9321e+06
-26805.3
201206
6.85934e+06
-21438.3
149613
6.80167e+06
-22425.9
111758
6.75002e+06
-28925.8
99148.6
6.7129e+06
-32006.2
80845.5
6.69383e+06
-33430.1
50960.6
6.69082e+06
-35097.3
20588.1
6.70055e+06
-35702.3
-5098.2
6.71982e+06
-37868.4
-24209.2
6.74286e+06
-39841.8
-38319.5
6.76312e+06
-44098.6
-40400.9
6.79696e+06
-56310.9
-58081.5
6.838e+06
-37862.4
-91968.3
6.8896e+06
-21851.5
-103437
6.94701e+06
-14774.3
-113240
-11725.6
-119733
1.00059e+07
5214.66
1.00117e+07
14134.2
1.00177e+07
23054.5
1.00233e+07
31964.2
1.00284e+07
41079.6
1.00331e+07
50526.3
1.00371e+07
60378
1.00405e+07
70489
1.00425e+07
81514.7
1.0043e+07
92728.1
1.00415e+07
104491
1.00369e+07
116446
1.00275e+07
128429
1.001e+07
139693
9.97774e+06
150536
9.91192e+06
160949
9.78393e+06
178161
9.58923e+06
192279
9.374e+06
207844
9.19111e+06
218504
9.03495e+06
224707
8.89885e+06
231819
8.77564e+06
242134
8.65612e+06
257622
8.54249e+06
270599
8.42745e+06
270850
8.30528e+06
267528
8.17366e+06
267793
8.03963e+06
259792
7.90429e+06
241745
7.7503e+06
247491
7.58344e+06
279862
7.44148e+06
293513
7.34928e+06
269176
7.28413e+06
220815
7.22927e+06
184291
7.17788e+06
171532
7.12333e+06
154830
7.06988e+06
132871
7.03779e+06
88668.4
7.01086e+06
60996.8
6.98107e+06
45900.9
6.96061e+06
25968.6
6.95066e+06
-2556.72
6.95025e+06
-31797.1
6.95644e+06
-57318.5
6.96795e+06
-75302.1
6.97766e+06
-85032.7
6.98031e+06
-94112
6.95837e+06
-106098
6.95274e+06
-126386
6.98693e+06
-137993
7.03352e+06
-136817
-153884
9.99932e+06
14.4426
6556.3
9.99427e+06
33.238
19443.1
9.98523e+06
43.0935
32350.1
9.97223e+06
45.1546
45227.4
9.9553e+06
47.0009
58276.2
9.9345e+06
48.5501
71606.2
9.91006e+06
49.3304
85107.5
9.88142e+06
50.969
99438.7
9.84941e+06
54.5218
113848
9.81332e+06
59.9712
129154
9.7736e+06
63.6881
144559
9.72991e+06
77.2378
160450
9.68173e+06
105.15
177035
9.62726e+06
242.232
194294
9.56846e+06
306.582
212248
9.4973e+06
821.555
234279
9.41554e+06
652.015
255588
9.3316e+06
1132.95
275442
9.23834e+06
540.014
302209
9.13359e+06
549.052
325556
9.02039e+06
951.65
342141
8.90614e+06
1618.78
352493
8.79286e+06
2570.56
364288
8.67868e+06
4122.86
379435
8.56107e+06
4848.07
395366
8.43623e+06
6184.88
401116
8.29649e+06
8720.68
401934
8.1337e+06
11861.9
413327
7.95337e+06
14148.5
418422
7.7607e+06
13039
423567
7.55408e+06
11263.7
454327
7.35635e+06
13583.4
479738
7.17673e+06
21533.9
471486
7.01841e+06
29407
417224
6.91051e+06
22412.5
315670
6.81858e+06
-1021.15
310049
6.71881e+06
-16514.4
346800
6.61449e+06
-17396.3
342937
6.52104e+06
-10519.6
305324
6.47621e+06
-2633.01
197237
6.45133e+06
-10610.3
147226
6.42256e+06
-21858.6
149671
6.40269e+06
-26186.2
126664
6.40019e+06
-26555.1
79780.8
6.40994e+06
-26467.1
37099.2
6.42898e+06
-26098.2
1746.51
6.4601e+06
-26856.8
-28759.3
6.50382e+06
-27326.2
-55047.6
6.56815e+06
-29545.4
-75543.9
6.64668e+06
-25730.4
-111061
6.70234e+06
-13463.8
-134220
6.74727e+06
-8089.55
-140447
6.78874e+06
-8196.24
-146835
-9514.25
-165652
9.99934e+06
6555.95
9.99427e+06
19441.1
9.98523e+06
32348.6
9.97222e+06
45225.9
9.95529e+06
58274.2
9.93449e+06
71603.9
9.91005e+06
85104.9
9.8814e+06
99435.3
9.84938e+06
113844
9.81329e+06
129149
9.77357e+06
144553
9.72995e+06
160441
9.6818e+06
177007
9.62786e+06
194241
9.56691e+06
212220
9.49563e+06
233551
9.41766e+06
257165
9.33224e+06
278943
9.23893e+06
301749
9.13585e+06
322189
9.02438e+06
337186
8.91195e+06
345927
8.80024e+06
356483
8.68501e+06
377041
8.56651e+06
394014
8.44174e+06
401902
8.30461e+06
413484
8.15237e+06
432001
7.98446e+06
441970
7.79384e+06
445528
7.58378e+06
468866
7.38483e+06
492414
7.21553e+06
484301
7.08603e+06
427956
6.99823e+06
330804
6.90786e+06
273446
6.81868e+06
244219
6.73057e+06
225856
6.64829e+06
205211
6.60275e+06
131891
6.5702e+06
82971.7
6.53052e+06
63575.8
6.50641e+06
23642.6
6.49808e+06
-20959.1
6.50116e+06
-61455.8
6.51398e+06
-96364.8
6.53817e+06
-126510
6.57503e+06
-149434
6.62148e+06
-170288
6.68455e+06
-194963
6.73616e+06
-191526
6.77655e+06
-186684
6.81846e+06
-187182
-215409
9.99894e+06
13.9472
8358.22
9.99387e+06
31.3919
24762.2
9.98502e+06
41.9021
41451.1
9.97227e+06
43.9551
58230.9
9.95549e+06
45.417
75315.2
9.93474e+06
46.9398
92622.9
9.90928e+06
47.6872
110856
9.87952e+06
49.5522
129493
9.84505e+06
53.7455
148621
9.80584e+06
59.4595
168688
9.76136e+06
64.3596
189364
9.71104e+06
73.6038
211117
9.65456e+06
80.9581
233882
9.59158e+06
142.321
257637
9.52068e+06
169.266
283549
9.44274e+06
638.999
312253
9.3537e+06
334.123
344864
9.25865e+06
290.567
370466
9.1707e+06
453.753
389801
9.08477e+06
872.917
410699
8.99309e+06
1236.35
432686
8.89392e+06
1294.41
450492
8.78277e+06
1211.91
474352
8.66051e+06
1546.82
500268
8.52775e+06
1134.29
527104
8.38017e+06
1079.46
547748
8.21048e+06
2832.39
568947
8.01138e+06
4432.68
608150
7.77731e+06
3252.68
649401
7.51765e+06
2896.03
680467
7.2665e+06
3643.04
701903
7.04658e+06
5965.21
693719
6.86425e+06
11436.2
642360
6.75104e+06
19857.5
510517
6.72399e+06
18270.5
324365
6.6772e+06
-14644.5
371396
6.5741e+06
-34281.6
484205
6.44793e+06
-35688.3
505364
6.31808e+06
-30905.1
466623
6.25647e+06
-9096.13
268202
6.22526e+06
-8464.26
186925
6.19855e+06
-16796.3
193099
6.18057e+06
-17473.3
161848
6.18262e+06
-15438.2
92994.8
6.19798e+06
-13755.8
35410.1
6.22423e+06
-12262.3
-12335.9
6.25998e+06
-11666
-52998.9
6.30832e+06
-10371.1
-93259.3
6.37459e+06
-9447.03
-132603
6.45088e+06
-19312.2
-168247
6.5341e+06
-20780.1
-196884
6.61254e+06
-17875
-201317
6.68836e+06
-15937.3
-206974
-10923
-217595
9.99896e+06
8358.38
9.99387e+06
24762.6
9.98502e+06
41449.1
9.97226e+06
58228.2
9.95548e+06
75312.3
9.93473e+06
92619.5
9.90926e+06
110852
9.87949e+06
129489
9.84503e+06
148617
9.80582e+06
168684
9.76135e+06
189361
9.71105e+06
211109
9.65457e+06
233877
9.59173e+06
257585
9.52106e+06
283476
9.4438e+06
311916
9.3568e+06
344902
9.26065e+06
375589
9.17242e+06
390511
9.08696e+06
408596
8.99552e+06
429958
8.89465e+06
448193
8.78102e+06
471434
8.65841e+06
501281
8.52616e+06
527473
8.37569e+06
553558
8.20166e+06
590444
8.00185e+06
636349
7.77301e+06
674173
7.5224e+06
699120
7.28453e+06
710416
7.07742e+06
705506
6.89913e+06
673996
6.77149e+06
575381
6.72368e+06
396763
6.66186e+06
320473
6.58118e+06
290846
6.47965e+06
292378
6.38098e+06
273682
6.3231e+06
181124
6.27951e+06
118107
6.24028e+06
85902.1
6.21479e+06
31490
6.20992e+06
-31616.1
6.22052e+06
-85847.7
6.24497e+06
-133129
6.28134e+06
-174653
6.33457e+06
-213183
6.39646e+06
-241812
6.47375e+06
-291788
6.55198e+06
-290660
6.62523e+06
-278073
6.70373e+06
-281864
-300818
9.99895e+06
13.913
10142.5
9.99396e+06
31.9138
29996.2
9.9853e+06
41.2967
50354.8
9.97283e+06
42.8254
70942.3
9.95645e+06
44.0851
91945.1
9.93604e+06
45.5898
113291
9.91146e+06
46.3285
135696
9.88277e+06
47.9593
158473
9.84936e+06
51.7768
182326
9.81119e+06
56.6034
207161
9.768e+06
61.2501
232880
9.71945e+06
64.6865
260006
9.66554e+06
75.2457
288146
9.60539e+06
85.4832
318181
9.53886e+06
174.447
350465
9.46602e+06
204.674
385573
9.38506e+06
944.498
425647
9.28666e+06
1052.37
468439
9.1826e+06
920.364
493158
9.08221e+06
1204.03
510104
8.98417e+06
1994.97
528925
8.87903e+06
1629
554236
8.75816e+06
425.05
594973
8.61847e+06
-383.478
640484
8.46115e+06
-2731.73
687282
8.27672e+06
-3788.36
736114
8.0641e+06
-1550.5
783260
7.82729e+06
389.538
844686
7.57058e+06
-1095.17
907330
7.31163e+06
-1927.24
941450
7.07653e+06
-193.135
937276
6.8718e+06
3971.62
894545
6.7089e+06
9480.13
795827
6.61949e+06
20164.7
579779
6.64888e+06
43593.1
251398
6.55764e+06
-40540.5
503073
6.4349e+06
-122895
729699
6.28804e+06
-135921
788546
6.1362e+06
-133408
752226
6.0645e+06
-84114.9
424233
6.03315e+06
-38375
256671
6.00586e+06
-34465.5
254820
6.01117e+06
-26190.1
182665
6.02065e+06
-24891
108451
6.04138e+06
-25575
40351.5
6.07493e+06
-24848.6
-20973.9
6.12054e+06
-24587.2
-74084.9
6.17455e+06
-24841.9
-122652
6.22968e+06
-23378.3
-164648
6.29213e+06
-34112.8
-197243
6.35749e+06
-33634.6
-229237
6.43179e+06
-30953.5
-245212
6.50705e+06
-30175.7
-252471
-22051.3
-250340
9.99897e+06
10141.6
9.99396e+06
29992.9
9.98529e+06
50352.3
9.97282e+06
70939.8
9.95644e+06
91942.4
9.93602e+06
113288
9.91145e+06
135692
9.88275e+06
158469
9.84933e+06
182322
9.81117e+06
207158
9.76798e+06
232877
9.71944e+06
260002
9.66555e+06
288139
9.60541e+06
318159
9.53903e+06
350429
9.46611e+06
385520
9.387e+06
425465
9.29505e+06
469004
9.1916e+06
495177
9.08865e+06
513012
8.9869e+06
533918
8.87395e+06
562980
8.74698e+06
598976
8.60782e+06
640149
8.44772e+06
684937
8.25878e+06
738812
8.05196e+06
795797
7.82593e+06
862844
7.58127e+06
917826
7.33214e+06
946408
7.10275e+06
939683
6.90655e+06
905739
6.75935e+06
830725
6.68966e+06
665259
6.70054e+06
429509
6.66761e+06
312763
6.55705e+06
278410
6.41739e+06
296149
6.2798e+06
278066
6.20134e+06
175513
6.15398e+06
127080
6.11872e+06
86677.9
6.10997e+06
14076.5
6.12136e+06
-67800.7
6.14821e+06
-138146
6.18872e+06
-198410
6.23924e+06
-249806
6.29338e+06
-292368
6.3485e+06
-320693
6.38309e+06
-360897
6.42217e+06
-363666
6.48013e+06
-367367
6.5395e+06
-371594
-371649
9.99898e+06
13.05
11872.2
9.9941e+06
28.6594
35113.2
9.98567e+06
38.6029
59011.5
9.9736e+06
40.4924
83242.5
9.95789e+06
41.8763
107900
9.9381e+06
43.3791
133326
9.9144e+06
44.0604
159654
9.88651e+06
45.5777
186631
9.85424e+06
49.1782
214883
9.81755e+06
53.8747
244148
9.77583e+06
58.0898
274916
9.7292e+06
61.2705
306956
9.67729e+06
67.9713
340415
9.61994e+06
74.6461
375918
9.55743e+06
122.688
413409
9.48988e+06
190.534
453599
9.41942e+06
615.891
496354
9.34242e+06
1286.75
545089
9.24904e+06
1955.51
585319
9.13948e+06
1822.85
618552
9.01901e+06
2209.08
647791
8.88893e+06
496.234
684392
8.75769e+06
-1391.95
727836
8.61283e+06
-2724.96
788250
8.43727e+06
-5953.07
868975
8.21915e+06
-5962.91
960395
7.96707e+06
-2396.7
1.03793e+06
7.7097e+06
1793.64
1.10042e+06
7.45538e+06
1836.21
1.15997e+06
7.20816e+06
1007.49
1.18782e+06
6.97591e+06
2517.55
1.16718e+06
6.76051e+06
8341.36
1.10177e+06
6.55216e+06
19139.8
985158
6.3332e+06
70523.2
728284
5.97969e+06
301334
303666
5.56545e+06
191847
725162
5.32404e+06
33528.9
936705
5.3356e+06
-62172.6
838118
5.44493e+06
-150864
793310
5.53314e+06
-194783
530665
5.57645e+06
-115109
328475
5.63403e+06
-89309.8
286696
5.66928e+06
-55647.4
203322
5.71056e+06
-55851.7
123363
5.7591e+06
-57611
49788
5.81062e+06
-55959.9
-16286.8
5.86365e+06
-51616.9
-75539.4
5.92045e+06
-49003.1
-130856
5.97401e+06
-42767.4
-176202
6.01819e+06
-28538.8
-213919
6.05254e+06
-17815.8
-246684
6.08781e+06
-8488.02
-272779
6.11575e+06
1596.83
-282357
20580.6
-298286
9.999e+06
11872.5
9.99409e+06
35113.8
9.98566e+06
59008.9
9.97359e+06
83238.8
9.95788e+06
107896
9.93809e+06
133322
9.91438e+06
159650
9.88649e+06
186627
9.85422e+06
214879
9.81753e+06
244144
9.77581e+06
274913
9.72919e+06
306952
9.67729e+06
340409
9.61995e+06
375909
9.55749e+06
413400
9.4902e+06
453493
9.42054e+06
496345
9.34885e+06
542693
9.2613e+06
585416
9.15333e+06
623460
9.03072e+06
659258
8.89724e+06
697399
8.75529e+06
739852
8.5988e+06
794039
8.41524e+06
862675
8.19792e+06
950282
7.96595e+06
1.02548e+06
7.72572e+06
1.10496e+06
7.47777e+06
1.16773e+06
7.23364e+06
1.19167e+06
7.00997e+06
1.16599e+06
6.81615e+06
1.108e+06
6.65373e+06
1.01236e+06
6.54844e+06
841189
6.74378e+06
535684
6.86558e+06
382390
6.78898e+06
387771
6.66842e+06
353985
6.53274e+06
262505
6.3035e+06
209800
6.12859e+06
186872
6.06201e+06
64020.5
6.06407e+06
-43466.8
6.05884e+06
-118217
6.04399e+06
-180728
6.02603e+06
-236348
6.00795e+06
-283508
5.98786e+06
-321721
5.97297e+06
-349228
5.95961e+06
-376831
5.96209e+06
-384641
5.96629e+06
-380534
5.9638e+06
-367781
-352455
9.99902e+06
12.9724
13538.5
9.99433e+06
29.5924
40032
9.98626e+06
38.2012
67299.7
9.97472e+06
39.5637
94998.1
9.9597e+06
40.7155
123146
9.94077e+06
42.1278
152498
9.91805e+06
42.8436
182613
9.89128e+06
44.4082
213663
9.86044e+06
47.9978
245991
9.82474e+06
52.6018
280135
9.78473e+06
56.5371
315226
9.73984e+06
59.872
352169
9.68981e+06
63.7701
390782
9.63493e+06
73.9424
431179
9.5753e+06
94.7073
473470
9.51157e+06
170.412
517818
9.44433e+06
294.355
564122
9.37661e+06
763.408
613060
9.30171e+06
719.246
660685
9.21366e+06
-75.6006
707974
9.10621e+06
-83.8706
756685
8.97329e+06
-755.923
819240
8.82504e+06
-2010.78
878748
8.67015e+06
-5379.43
948774
8.48936e+06
-9480.1
1.05944e+06
8.26204e+06
-10183.7
1.19809e+06
7.99155e+06
-1560.1
1.31018e+06
7.70641e+06
6102.41
1.37966e+06
7.43011e+06
5313.83
1.43115e+06
7.16694e+06
3018.19
1.44815e+06
6.92485e+06
5914.99
1.40352e+06
6.69042e+06
12592.1
1.32374e+06
6.38137e+06
33218.5
1.26106e+06
5.59637e+06
193152
1.32016e+06
4.69852e+06
267384
934222
4.67809e+06
9537.99
736043
4.65811e+06
40626.2
915322
4.48571e+06
118984
890364
4.50811e+06
60995
708863
4.60102e+06
-43776.3
480782
4.75658e+06
-52562.2
225069
4.86999e+06
19774
153215
4.92601e+06
54151
92934.4
4.97575e+06
59371.7
14069.6
5.01903e+06
67276.5
-61025.1
5.04761e+06
81930.6
-127275
5.06103e+06
98785.9
-188562
5.06232e+06
114756
-248074
5.06166e+06
129225
-306348
5.06465e+06
142826
-361370
5.07738e+06
150085
-411102
5.11028e+06
152667
-459500
5.15768e+06
156466
-486982
146998
-547779
9.99904e+06
13537.3
9.99433e+06
40027.3
9.98625e+06
67295.9
9.97471e+06
94994.4
9.95969e+06
123142
9.94075e+06
152493
9.91804e+06
182608
9.89126e+06
213658
9.86042e+06
245985
9.82472e+06
280130
9.78472e+06
315221
9.73983e+06
352164
9.68981e+06
390776
9.63494e+06
431169
9.57535e+06
473462
9.51174e+06
517748
9.44492e+06
564060
9.377e+06
612105
9.30337e+06
660604
9.21786e+06
709809
9.1158e+06
762176
8.99081e+06
822556
8.83438e+06
894922
8.66342e+06
959831
8.46525e+06
1.05152e+06
8.23086e+06
1.17462e+06
7.97911e+06
1.2758e+06
7.72256e+06
1.36772e+06
7.46023e+06
1.4355e+06
7.20222e+06
1.45282e+06
6.96655e+06
1.40769e+06
6.76042e+06
1.32679e+06
6.56149e+06
1.24453e+06
6.38627e+06
1.20965e+06
5.80195e+06
1.38699e+06
4.98014e+06
1.21328e+06
4.56853e+06
839093
4.48773e+06
552799
4.4285e+06
381855
4.36296e+06
230830
4.35544e+06
141287
4.35839e+06
80415.8
4.37328e+06
-4578.18
4.39914e+06
-85069.8
4.43521e+06
-149978
4.48038e+06
-200228
4.53352e+06
-238748
4.59345e+06
-268050
4.66223e+06
-290083
4.73478e+06
-307896
4.8189e+06
-319871
4.91585e+06
-325772
5.02731e+06
-323341
-319839
9.99907e+06
11.7339
15106.4
9.99464e+06
25.078
44674
9.98701e+06
34.2782
75129.1
9.97611e+06
36.0316
106104
9.96181e+06
37.2984
137656
9.94398e+06
38.6886
170550
9.92264e+06
39.3616
204181
9.89711e+06
40.8131
239438
9.86746e+06
44.2436
275896
9.83377e+06
48.5134
314093
9.79531e+06
52.274
353972
9.75217e+06
55.0786
395605
9.70423e+06
58.7882
439045
9.65138e+06
67.4487
484393
9.59399e+06
82.3274
531302
9.53236e+06
125.919
579967
9.46729e+06
164.087
629810
9.40001e+06
265.454
681061
9.32876e+06
-20.5874
733091
9.25184e+06
-560.074
786728
9.16569e+06
-976.344
845122
9.06888e+06
-386.939
917786
8.94415e+06
409.79
1.00422e+06
8.78969e+06
-4026.31
1.10784e+06
8.61578e+06
-10664.3
1.24421e+06
8.41892e+06
-12781.1
1.40789e+06
8.18035e+06
-2469.33
1.55146e+06
7.87305e+06
10160.8
1.67721e+06
7.53036e+06
12960.2
1.76131e+06
7.20645e+06
4173.58
1.76827e+06
6.9442e+06
3959
1.66201e+06
6.72602e+06
7647.51
1.53432e+06
6.52396e+06
6517.62
1.45657e+06
6.3183e+06
60113.1
1.46532e+06
5.19654e+06
235035
1.81996e+06
4.13972e+06
291028
1.50124e+06
3.64039e+06
253697
1.15958e+06
3.49169e+06
213279
824031
3.40159e+06
196923
600079
3.31e+06
172771
397634
3.21488e+06
144801
173486
3.21495e+06
144959
6388.68
3.25433e+06
152976
-101089
3.31178e+06
156467
-201535
3.39694e+06
156618
-304593
3.51592e+06
153997
-402236
3.66955e+06
147853
-492254
3.85512e+06
138331
-574409
4.06806e+06
125908
-647715
4.30295e+06
112172
-710956
4.55609e+06
97407
-763879
4.82022e+06
82683.2
-808120
5.10445e+06
67191.1
-839498
47163.8
-872100
9.99909e+06
15106.8
9.99463e+06
44674.9
9.987e+06
75125.9
9.9761e+06
106100
9.9618e+06
137651
9.94397e+06
170546
9.92263e+06
204176
9.89709e+06
239433
9.86744e+06
275891
9.83375e+06
314088
9.79529e+06
353967
9.75216e+06
395600
9.70423e+06
439040
9.65139e+06
484385
9.59402e+06
531292
9.53242e+06
579933
9.46745e+06
629766
9.39962e+06
680887
9.32796e+06
733032
9.25111e+06
786964
9.16668e+06
846537
9.07293e+06
916825
8.95613e+06
1.01291e+06
8.79956e+06
1.11281e+06
8.60321e+06
1.23751e+06
8.37781e+06
1.38739e+06
8.11137e+06
1.54004e+06
7.83539e+06
1.65406e+06
7.55886e+06
1.72517e+06
7.26877e+06
1.74728e+06
6.98827e+06
1.69231e+06
6.75416e+06
1.56859e+06
6.53549e+06
1.46952e+06
6.31867e+06
1.48597e+06
6.28027e+06
1.65968e+06
6.04835e+06
1.73556e+06
5.61964e+06
1.52071e+06
5.20997e+06
1.17483e+06
4.90157e+06
886195
4.65601e+06
648201
4.4897e+06
451502
4.41779e+06
296418
4.40009e+06
165224
4.41624e+06
54321.2
4.4613e+06
-39429.5
4.53296e+06
-119050
4.62745e+06
-186694
4.74081e+06
-244506
4.86916e+06
-294039
5.00947e+06
-337519
5.15973e+06
-374073
5.32159e+06
-405979
5.48901e+06
-424137
-443247
9.99914e+06
11.6352
16571
9.99501e+06
26.3678
48999.8
9.98792e+06
34.0491
82414.3
9.97777e+06
35.2909
116443
9.96445e+06
36.3576
151176
9.9478e+06
37.6627
187407
9.92763e+06
38.3583
224561
9.90386e+06
39.8942
263447
9.87592e+06
43.364
304072
9.84386e+06
47.7095
346408
9.80753e+06
51.4561
390571
9.76629e+06
54.2251
437132
9.72015e+06
57.9147
485496
9.66934e+06
64.7673
535559
9.61365e+06
77.5367
587419
9.55371e+06
99.5345
640418
9.48984e+06
121.402
694301
9.42321e+06
146.115
748449
9.35457e+06
90.0483
802658
9.28414e+06
-9.81638
858309
9.21211e+06
-143.646
918475
9.13912e+06
257.752
991704
9.05647e+06
1111.02
1.08692e+06
8.9405e+06
6530.17
1.21812e+06
8.78865e+06
2867.95
1.39357e+06
8.62704e+06
-3919.45
1.57357e+06
8.44078e+06
-4783.52
1.743e+06
8.19472e+06
-125.229
1.92424e+06
7.88003e+06
12166.8
2.06477e+06
7.49547e+06
19428.3
2.13423e+06
7.07595e+06
15931.9
2.06606e+06
6.69664e+06
2713.02
1.91104e+06
6.39896e+06
-1896.89
1.75589e+06
6.184e+06
2327.36
1.67721e+06
6.07417e+06
86387.2
1.8427e+06
5.61846e+06
102968
1.85335e+06
5.05372e+06
75500
1.64823e+06
4.53487e+06
65881.6
1.27621e+06
4.15101e+06
68434.8
914461
3.90423e+06
63043.9
580150
3.76293e+06
44780
268656
3.73332e+06
29280.2
5327.46
3.81003e+06
21344.2
-200495
3.96441e+06
12813.7
-370048
4.17298e+06
1378.43
-515861
4.41768e+06
-10945.7
-637356
4.68094e+06
-22510.6
-734428
4.94945e+06
-33898.3
-810500
5.21414e+06
-45159
-868780
5.46917e+06
-55789.5
-911764
5.70991e+06
-65248
-940891
5.93616e+06
-75273
-960327
6.14873e+06
-84101.9
-968709
-99462.9
-965905
9.99916e+06
16569.5
9.99501e+06
48994
9.98791e+06
82409.4
9.97776e+06
116438
9.96444e+06
151171
9.94779e+06
187401
9.92762e+06
224555
9.90384e+06
263440
9.8759e+06
304065
9.84384e+06
346402
9.80752e+06
390564
9.76628e+06
437125
9.72014e+06
485488
9.66934e+06
535550
9.61366e+06
587408
9.55373e+06
640400
9.48987e+06
694280
9.42313e+06
748395
9.35435e+06
802617
9.28378e+06
858294
9.21218e+06
918794
9.13933e+06
990744
9.06651e+06
1.0876e+06
8.97258e+06
1.21392e+06
8.82795e+06
1.38545e+06
8.64013e+06
1.57162e+06
8.3928e+06
1.78305e+06
8.09703e+06
1.95005e+06
7.79236e+06
2.04234e+06
7.47933e+06
2.08011e+06
7.12932e+06
2.05853e+06
6.7498e+06
1.95076e+06
6.38221e+06
1.83489e+06
6.08635e+06
1.78376e+06
6.02226e+06
1.80978e+06
6.03167e+06
1.82878e+06
5.94038e+06
1.68716e+06
5.76096e+06
1.41967e+06
5.57842e+06
1.13658e+06
5.42382e+06
865143
5.31144e+06
607896
5.25485e+06
381489
5.24968e+06
190933
5.28569e+06
30318
5.35271e+06
-105875
5.44326e+06
-221355
5.55193e+06
-318704
5.67265e+06
-399982
5.79896e+06
-466423
5.92635e+06
-521640
6.04924e+06
-563108
6.17223e+06
-604999
6.27707e+06
-613491
-670294
9.99921e+06
10.1073
17898.5
9.99545e+06
20.7727
52935.7
9.98898e+06
29.0358
89060.3
9.9797e+06
30.6502
125889
9.96751e+06
31.7754
163554
9.95221e+06
33.0004
202885
9.93364e+06
33.5949
243330
9.91155e+06
35.0302
285744
9.88568e+06
38.2958
330173
9.85571e+06
42.506
376606
9.82134e+06
45.7974
425184
9.78236e+06
48.414
476380
9.73837e+06
51.2611
529763
9.6891e+06
57.5732
585161
9.63482e+06
68.8954
642101
9.57564e+06
85.214
700090
9.51246e+06
107.234
758080
9.44638e+06
123.702
815208
9.37961e+06
138.085
870211
9.31535e+06
78.035
923480
9.25801e+06
55.273
976815
9.21035e+06
-373.186
1.04078e+06
9.1708e+06
151.966
1.12712e+06
9.12126e+06
7520.71
1.26094e+06
9.02147e+06
15110.8
1.47874e+06
8.86326e+06
11300.4
1.72076e+06
8.64763e+06
718.768
1.95836e+06
8.40831e+06
-4065.03
2.16808e+06
8.14791e+06
1456.03
2.32421e+06
7.84625e+06
8628.79
2.42777e+06
7.45052e+06
6220.3
2.45603e+06
6.9601e+06
152.792
2.40157e+06
6.47161e+06
2036.54
2.24247e+06
6.05583e+06
-5878.76
2.09886e+06
5.87875e+06
7851
2.0118e+06
5.76073e+06
14440.2
1.95694e+06
5.59356e+06
23221.7
1.79213e+06
5.35673e+06
21688.5
1.49108e+06
5.1343e+06
8687.1
1.1276e+06
4.98059e+06
-15808.6
748730
4.91156e+06
-46521.8
383045
4.92631e+06
-73656.8
63010.6
5.01218e+06
-92484.9
-194961
5.14627e+06
-107394
-397647
5.30754e+06
-119139
-558748
5.48056e+06
-126862
-684147
5.65361e+06
-130902
-777161
5.81878e+06
-133249
-843017
5.97191e+06
-135454
-887176
6.1129e+06
-138962
-914664
6.23915e+06
-142205
-925921
6.36019e+06
-151518
-930792
6.45779e+06
-150538
-916410
-178630
-918160
9.99923e+06
17899
9.99545e+06
52936.9
9.98897e+06
89056.9
9.9797e+06
125884
9.9675e+06
163548
9.9522e+06
202879
9.93363e+06
243324
9.91154e+06
285738
9.88566e+06
330167
9.8557e+06
376601
9.82133e+06
425179
9.78235e+06
476374
9.73837e+06
529757
9.6891e+06
585153
9.63483e+06
642092
9.57565e+06
700079
9.51247e+06
758064
9.44638e+06
815178
9.37957e+06
870200
9.31522e+06
923409
9.25745e+06
977336
9.20891e+06
1.03961e+06
9.1715e+06
1.1258e+06
9.13652e+06
1.25692e+06
9.07029e+06
1.46716e+06
8.92384e+06
1.72966e+06
8.70916e+06
1.9987e+06
8.44268e+06
2.21275e+06
8.1372e+06
2.34959e+06
7.80239e+06
2.42389e+06
7.42297e+06
2.4444e+06
6.97501e+06
2.39902e+06
6.50182e+06
2.31017e+06
6.07047e+06
2.20918e+06
5.78177e+06
2.10626e+06
5.64883e+06
1.97611e+06
5.591e+06
1.76808e+06
5.54706e+06
1.485e+06
5.5204e+06
1.17144e+06
5.5162e+06
852889
5.53098e+06
545867
5.56654e+06
271552
5.62329e+06
41042.5
5.69537e+06
-149718
5.77801e+06
-308109
5.86576e+06
-436365
5.95244e+06
-536656
6.03227e+06
-613458
6.10204e+06
-672149
6.16291e+06
-722095
6.21931e+06
-762395
6.28964e+06
-827403
6.36e+06
-834706
-1.04187e+06
9.9993e+06
10.0236
19087.8
9.99596e+06
22.4267
56449
9.99019e+06
29.0376
94982.8
9.98192e+06
30.158
134322
9.971e+06
31.1381
174631
9.95728e+06
32.3345
216779
9.94033e+06
33.0203
260462
9.92029e+06
34.581
305984
9.89687e+06
37.9858
353803
9.8693e+06
42.2157
404393
9.8372e+06
45.5608
457514
9.80054e+06
47.9553
513285
9.7586e+06
50.4937
571972
9.71128e+06
56.4038
632787
9.65793e+06
66.8106
695833
9.59893e+06
82.3797
759565
9.53468e+06
100.725
822879
9.467e+06
113.75
883526
9.39902e+06
128.274
938882
9.33695e+06
97.3913
986345
9.28992e+06
92.3969
1.02472e+06
9.26942e+06
149.868
1.06191e+06
9.27786e+06
1011.64
1.11821e+06
9.31453e+06
2855.19
1.22203e+06
9.29342e+06
9356.18
1.49082e+06
9.1383e+06
9649.81
1.86646e+06
8.88554e+06
1688.64
2.2096e+06
8.59897e+06
-2813.21
2.45776e+06
8.30308e+06
-1957.4
2.62239e+06
7.99467e+06
355.261
2.73615e+06
7.64493e+06
-1224.89
2.8073e+06
7.22883e+06
-5415.81
2.82343e+06
6.73265e+06
-14645
2.75358e+06
6.22379e+06
-19351.5
2.62726e+06
5.80355e+06
-17103.7
2.44925e+06
5.53957e+06
-8242.12
2.22925e+06
5.3846e+06
1564.97
1.94557e+06
5.27859e+06
3537.55
1.59342e+06
5.21466e+06
-4353.36
1.19549e+06
5.20295e+06
-21660.7
781434
5.24069e+06
-43317.4
387803
5.31648e+06
-63371.4
49779.1
5.41716e+06
-78526.4
-217778
5.53223e+06
-89052.9
-424143
5.65253e+06
-95609.6
-583740
5.77032e+06
-100068
-702065
5.88046e+06
-104364
-783103
5.98144e+06
-110875
-833371
6.07466e+06
-120769
-860045
6.16593e+06
-135135
-871390
6.25787e+06
-148249
-870304
6.36957e+06
-169123
-873957
6.464e+06
-156273
-854882
-201040
-894781
9.99932e+06
19086.2
9.99595e+06
56442.3
9.99018e+06
94977.1
9.98191e+06
134317
9.971e+06
174625
9.95727e+06
216772
9.94032e+06
260455
9.92027e+06
305977
9.89685e+06
353796
9.86929e+06
404386
9.83719e+06
457507
9.80053e+06
513276
9.7586e+06
571963
9.71129e+06
632776
9.65794e+06
695821
9.59893e+06
759551
9.53469e+06
822864
9.46699e+06
883505
9.39901e+06
938881
9.33686e+06
986279
9.2896e+06
1.02538e+06
9.26914e+06
1.06087e+06
9.28324e+06
1.11318e+06
9.32226e+06
1.22113e+06
9.3083e+06
1.49064e+06
9.16564e+06
1.88204e+06
8.93356e+06
2.23259e+06
8.66118e+06
2.48249e+06
8.3616e+06
2.64744e+06
8.0283e+06
2.75778e+06
7.65153e+06
2.82019e+06
7.21756e+06
2.82781e+06
6.73492e+06
2.77836e+06
6.24766e+06
2.67722e+06
5.81492e+06
2.522e+06
5.48478e+06
2.29809e+06
5.26176e+06
1.99267e+06
5.13167e+06
1.61852e+06
5.08741e+06
1.21108e+06
5.11767e+06
800545
5.19446e+06
425248
5.29233e+06
109826
5.39673e+06
-142268
5.49952e+06
-341810
5.5936e+06
-497912
5.67317e+06
-616043
5.74022e+06
-708110
5.80684e+06
-791075
5.89445e+06
-880771
6.02784e+06
-990961
6.24009e+06
-1.12323e+06
6.54433e+06
-1.30103e+06
6.98343e+06
-1.43018e+06
-1.81677e+06
9.9994e+06
8.28382
20101.5
9.99652e+06
16.0074
59459.1
9.99156e+06
23.1859
100080
9.98442e+06
24.6512
141600
9.97477e+06
25.6454
184429
9.96301e+06
26.6988
228686
9.94834e+06
27.2267
275296
9.93066e+06
28.5724
323833
9.90943e+06
31.7517
375214
9.88466e+06
35.5671
429362
9.85564e+06
38.7036
486742
9.82162e+06
40.2702
547516
9.78227e+06
42.4884
611548
9.73655e+06
47.1074
678784
9.68418e+06
57.0872
748542
9.62452e+06
72.1518
819651
9.55746e+06
87.8057
890450
9.48421e+06
105.336
957359
9.40835e+06
103.854
1.01539e+06
9.33851e+06
161.955
1.05688e+06
9.29114e+06
193.215
1.07282e+06
9.28829e+06
1330.6
1.06441e+06
9.37151e+06
3165.75
1.03248e+06
9.56617e+06
4196.57
1.02357e+06
9.62443e+06
9875.3
1.42287e+06
9.4461e+06
8769.09
2.03594e+06
9.14086e+06
867.301
2.51407e+06
8.79337e+06
-2120.24
2.80759e+06
8.4459e+06
670.698
2.96955e+06
8.09257e+06
2756.61