/*--------------------------------*- C++ -*----------------------------------*\
| =========                 |                                                 |
| \\      /  F ield         | OpenFOAM: The Open Source CFD Toolbox           |
|  \\    /   O peration     | Version:  4.1                                   |
|   \\  /    A nd           | Web:      www.OpenFOAM.org                      |
|    \\/     M anipulation  |                                                 |
\*---------------------------------------------------------------------------*/
FoamFile
{
    version     2.0;
    format      ascii;
    class       volVectorField;
    location    "93";
    object      U;
}
// * * * * * * * * * * * * * * * * * * * * * * * * * * * * * * * * * * * * * //

dimensions      [0 1 -1 0 0 0 0];

internalField   nonuniform List<vector> 
4432
(
(39.9819 1.64548e-05 0.0497942)
(39.9198 7.66632e-05 0.0882901)
(39.8251 0.000150647 0.115412)
(39.6948 0.000178491 0.141483)
(39.5289 0.00018619 0.168803)
(39.3282 0.000209756 0.197609)
(39.0917 0.000236671 0.228148)
(38.818 0.000243485 0.25986)
(38.5057 0.000241365 0.292696)
(38.1543 0.000228432 0.326071)
(37.764 0.000216205 0.35815)
(37.3364 0.000257247 0.389473)
(36.8751 7.10058e-05 0.413815)
(36.3968 -1.4128e-05 0.431346)
(35.9057 -0.00279617 0.423212)
(35.5143 -0.00682354 0.369474)
(35.1867 -0.00585169 0.414909)
(35.0673 -0.00339384 0.334099)
(35.1502 -0.00163651 0.253312)
(35.1214 0.00205952 0.396041)
(34.8876 -0.00126186 0.497826)
(34.5324 -0.0112029 0.620662)
(34.0714 -0.0217068 0.695202)
(33.5427 -0.030739 0.684853)
(32.948 -0.0377873 0.668146)
(32.3105 -0.0435459 0.547789)
(31.7117 -0.0403289 0.35719)
(31.1748 -0.0272874 0.159896)
(30.7304 -0.0207748 0.0965947)
(30.3575 -0.0291886 0.144743)
(29.9847 -0.0521568 0.321016)
(29.518 -0.0786657 0.64291)
(28.8622 -0.0883731 0.828875)
(28.0806 -0.0639893 0.539004)
(27.4143 -0.0224382 -0.165598)
(26.8713 0.00647196 -0.548706)
(26.4139 0.0169398 -0.489621)
(25.9488 0.0148307 -0.407991)
(25.5289 0.00841408 -0.335109)
(25.2309 0.00388375 -0.263753)
(25.0727 0.00497125 -0.276778)
(24.9601 0.0119044 -0.388871)
(24.8781 0.0173896 -0.389722)
(24.832 0.0234321 -0.372327)
(24.8304 0.030283 -0.383165)
(24.8844 0.0323378 -0.392156)
(24.9926 0.0326737 -0.393788)
(25.1323 0.0368541 -0.386209)
(25.3202 0.0441918 -0.369709)
(25.5191 0.0618824 -0.398911)
(25.8102 0.0558865 -0.304649)
(26.1099 0.0340423 -0.188823)
(26.3216 0.0203955 -0.219696)
(26.7149 0.0247252 -0.185491)
(39.9819 1.64546e-05 0.0497987)
(39.9199 7.66657e-05 0.0883132)
(39.8251 0.000150641 0.115521)
(39.6947 0.000178478 0.141563)
(39.5289 0.000186164 0.168792)
(39.3282 0.000209696 0.197608)
(39.0916 0.000236624 0.228052)
(38.818 0.000243592 0.259692)
(38.5057 0.000241097 0.292529)
(38.1544 0.000227475 0.325771)
(37.7641 0.000215137 0.358095)
(37.3364 0.000256019 0.389279)
(36.8753 7.03422e-05 0.414822)
(36.3917 -1.7264e-05 0.43169)
(35.9033 -0.00278009 0.43022)
(35.464 -0.00688887 0.379668)
(35.1306 -0.00592984 0.365262)
(35.05 -0.00342348 0.289769)
(35.1378 -0.0016286 0.245412)
(35.1378 0.00196111 0.407383)
(34.9065 -0.00137308 0.484137)
(34.5495 -0.0112764 0.538459)
(34.0993 -0.0218252 0.577636)
(33.5678 -0.0311476 0.569367)
(32.9551 -0.0385991 0.55902)
(32.2831 -0.0452996 0.428852)
(31.6284 -0.0437837 0.252068)
(31.048 -0.0315209 0.134936)
(30.5458 -0.0255296 0.0706399)
(30.0871 -0.0359952 -0.00975857)
(29.7032 -0.0603407 -0.104722)
(29.2861 -0.0926671 -0.0856108)
(28.757 -0.106701 0.152701)
(28.0098 -0.085123 0.374418)
(27.2882 -0.0395313 0.18037)
(26.6083 -0.00761422 -0.0908606)
(26.0488 0.00598569 -0.0568037)
(25.5038 0.00628549 -0.0973378)
(25.0268 0.00241239 -0.0995354)
(24.6364 0.001344 -0.0691481)
(24.4021 0.00449708 -0.0665459)
(24.2182 0.0121867 -0.117867)
(24.0752 0.0194149 -0.111228)
(23.9779 0.0269143 -0.126029)
(23.9606 0.0347703 -0.149539)
(24.0175 0.0382448 -0.19616)
(24.1402 0.0385097 -0.165457)
(24.3331 0.0417709 -0.113627)
(24.5616 0.0515821 -0.0732262)
(24.7712 0.0702346 -0.122472)
(25.2934 0.047999 -0.210701)
(25.6755 0.0259655 -0.190636)
(25.939 0.0124127 -0.221169)
(26.4087 0.0186972 -0.13543)
(40.0073 1.6683e-05 0.0168334)
(40.0328 7.42398e-05 0.0522295)
(40.0596 0.000142681 0.0892836)
(40.0831 0.00016462 0.126543)
(40.104 0.00017456 0.164371)
(40.1234 0.000203867 0.203263)
(40.1412 0.000241435 0.243471)
(40.1561 0.000265748 0.285097)
(40.1669 0.000265285 0.328191)
(40.1723 0.000263447 0.372599)
(40.171 0.000268605 0.417794)
(40.1592 0.000228899 0.462041)
(40.1333 0.000409468 0.503001)
(40.0761 0.000322915 0.530909)
(39.9887 0.00376845 0.551307)
(39.7347 0.00575206 0.525194)
(39.4421 0.00750231 0.408137)
(38.7779 0.00739744 0.330976)
(37.8574 -0.000664299 0.371036)
(37.0816 -0.00274986 0.428246)
(36.4155 8.6074e-05 0.497811)
(35.8249 0.00358178 0.586255)
(35.3134 0.00683537 0.677816)
(34.8206 0.00964208 0.778064)
(34.3438 0.0111078 0.857817)
(33.8733 0.012515 0.878217)
(33.3921 0.0142294 0.851861)
(32.874 0.0204534 0.819071)
(32.2687 0.0333791 0.780337)
(31.6507 0.0399319 0.732124)
(31.0418 0.0417314 0.731543)
(30.434 0.039174 0.844571)
(29.9164 0.0315984 0.932843)
(29.5248 0.0155655 0.912368)
(29.1881 -0.0118305 0.880878)
(28.8597 -0.0501669 0.967766)
(28.5597 -0.0874523 1.03561)
(28.2548 -0.10933 1.01891)
(27.9204 -0.105115 0.901756)
(27.5725 -0.0822149 0.68152)
(27.2538 -0.0772672 0.484354)
(27.0868 -0.0959684 0.400972)
(26.9434 -0.11158 0.345917)
(26.8056 -0.12482 0.268553)
(26.746 -0.135195 0.180404)
(26.7646 -0.141396 0.0981944)
(26.8306 -0.148682 0.0310917)
(26.9315 -0.152136 -0.0312285)
(26.9988 -0.151219 -0.07492)
(27.1396 -0.198537 -0.0843444)
(27.236 -0.161694 -0.274042)
(27.4177 -0.123931 -0.372203)
(27.6606 -0.0909564 -0.405638)
(28.0002 -0.0547488 -0.403415)
(40.0073 1.6683e-05 0.0168348)
(40.0329 7.424e-05 0.0522304)
(40.0596 0.000142681 0.0892759)
(40.0831 0.000164621 0.126529)
(40.104 0.000174561 0.164358)
(40.1234 0.000203873 0.203253)
(40.1411 0.000241421 0.243468)
(40.156 0.000265835 0.285088)
(40.1667 0.000264964 0.328189)
(40.172 0.000262501 0.372568)
(40.1709 0.00026589 0.417729)
(40.1591 0.000232057 0.462179)
(40.1328 0.00038775 0.5028)
(40.0806 0.000409048 0.53386)
(39.9889 0.00338399 0.544282)
(39.8062 0.00555449 0.514701)
(39.4975 0.0080812 0.425968)
(38.8162 0.00760587 0.321122)
(37.8746 -0.000667917 0.354967)
(37.0757 -0.00257733 0.419103)
(36.4278 0.000187307 0.478339)
(35.8421 0.00372233 0.556061)
(35.3307 0.00711114 0.633462)
(34.8465 0.0102875 0.718239)
(34.3808 0.0121247 0.790583)
(33.9332 0.0144779 0.809167)
(33.4684 0.018154 0.815272)
(32.9578 0.0240575 0.821718)
(32.4211 0.0337356 0.78102)
(31.8956 0.0452294 0.695163)
(31.3198 0.0577051 0.657745)
(30.6481 0.0678823 0.746591)
(30.0057 0.0560298 0.815014)
(29.559 0.031203 0.827749)
(29.2373 -0.00690908 0.814883)
(29.0132 -0.0511356 0.861474)
(28.8184 -0.0910022 0.904265)
(28.6185 -0.113699 0.892533)
(28.3876 -0.11551 0.810132)
(28.2153 -0.1035 0.654781)
(28.0437 -0.0960684 0.474483)
(27.9731 -0.105909 0.372385)
(27.899 -0.118529 0.307795)
(27.8254 -0.127127 0.228563)
(27.7833 -0.134516 0.135452)
(27.7971 -0.138383 0.0495162)
(27.8492 -0.143358 -0.0193432)
(27.8917 -0.148722 -0.0936587)
(27.9214 -0.16286 -0.164212)
(27.9722 -0.189717 -0.20963)
(27.6877 -0.118504 -0.395303)
(27.8299 -0.0976275 -0.51287)
(28.0598 -0.0712379 -0.519119)
(28.3323 -0.0364396 -0.526071)
(39.9994 1.76625e-05 0.0237509)
(39.9899 7.6103e-05 0.0679445)
(39.9638 0.000143631 0.109976)
(39.9195 0.000166581 0.150163)
(39.8589 0.000175247 0.190099)
(39.7831 0.000202997 0.230692)
(39.6925 0.000236353 0.272468)
(39.5865 0.000250785 0.315792)
(39.465 0.000243637 0.360966)
(39.3283 0.000232618 0.408121)
(39.1766 0.000226527 0.457198)
(39.0096 0.000257321 0.507894)
(38.8251 0.000319181 0.559902)
(38.6227 0.000662245 0.61258)
(38.387 0.00090974 0.669042)
(38.159 0.00230795 0.738663)
(37.8268 0.00283451 0.781862)
(37.4863 0.00448759 0.894447)
(37.1414 0.00218311 1.05639)
(36.7482 0.0016929 1.16327)
(36.3036 0.00279694 1.20976)
(35.8386 0.00481656 1.22877)
(35.3848 0.00755892 1.25847)
(34.9289 0.0116757 1.30169)
(34.4684 0.0140107 1.34421)
(33.9956 0.0176511 1.34256)
(33.4736 0.0246245 1.30357)
(32.8759 0.0347296 1.28666)
(32.1814 0.0434816 1.23198)
(31.4395 0.0397637 1.19833)
(30.6236 0.0351633 1.30464)
(29.7856 0.0407025 1.46712)
(29.0648 0.0603629 1.52778)
(28.3795 0.0907366 1.44392)
(27.7535 0.106349 1.14381)
(27.4621 0.0257626 1.06387)
(27.0968 -0.0569198 1.10884)
(26.7023 -0.0853969 1.02037)
(26.2461 -0.0763439 0.920943)
(25.9495 -0.0367537 0.639283)
(25.798 -0.0492327 0.496039)
(25.742 -0.089414 0.495887)
(25.6772 -0.112259 0.38857)
(25.6021 -0.118603 0.220018)
(25.5946 -0.120769 0.0590228)
(25.6619 -0.119561 -0.0767818)
(25.767 -0.120928 -0.183626)
(25.9212 -0.119892 -0.276325)
(26.1003 -0.128629 -0.29426)
(26.4446 -0.106364 -0.478884)
(26.7192 -0.0530973 -0.532726)
(26.8994 -0.037779 -0.482721)
(27.0358 -0.0374681 -0.480172)
(27.3448 -0.0408705 -0.555092)
(39.9994 1.76625e-05 0.0237511)
(39.99 7.61032e-05 0.0679425)
(39.9638 0.000143632 0.109972)
(39.9195 0.000166582 0.150161)
(39.8588 0.000175249 0.190095)
(39.7831 0.000203001 0.230685)
(39.6924 0.00023636 0.272457)
(39.5864 0.000250787 0.315771)
(39.4649 0.000243669 0.360945)
(39.3282 0.000232505 0.408092)
(39.1765 0.000226038 0.45717)
(39.0095 0.000256998 0.507912)
(38.8256 0.00031799 0.559815)
(38.6224 0.000663212 0.612475)
(38.393 0.000908448 0.666641)
(38.1381 0.00227653 0.731254)
(37.8372 0.00251474 0.800332)
(37.4926 0.00474267 0.899448)
(37.1398 0.00230638 1.05017)
(36.7539 0.00176068 1.14998)
(36.3162 0.00290091 1.19133)
(35.8581 0.00499895 1.20278)
(35.412 0.00794453 1.22237)
(34.9578 0.0126997 1.27622)
(34.4912 0.0155621 1.32475)
(34.0172 0.0198232 1.32913)
(33.4957 0.0278232 1.32143)
(32.9174 0.0388003 1.32785)
(32.2894 0.048508 1.3004)
(31.591 0.0505869 1.2487)
(30.7388 0.0451483 1.34606)
(29.8948 0.0475802 1.50523)
(29.1697 0.071358 1.51553)
(28.5864 0.0966207 1.32779)
(28.1326 0.0881683 1.07247)
(27.7859 0.0346713 0.862836)
(27.4696 -0.0194995 0.715858)
(27.1161 -0.048757 0.587344)
(26.7515 -0.0462861 0.453598)
(26.4934 -0.0165511 0.224234)
(26.2702 -0.0266797 0.150498)
(26.185 -0.0577311 0.100476)
(26.1047 -0.0774888 -0.023305)
(26.0065 -0.0872142 -0.179537)
(25.9707 -0.0918478 -0.330942)
(26.0149 -0.0917663 -0.458969)
(26.0962 -0.0918166 -0.562924)
(26.2158 -0.0916016 -0.613679)
(26.3641 -0.0958487 -0.679732)
(26.6231 -0.0756236 -0.783226)
(26.8473 -0.0461452 -0.682718)
(27.0178 -0.0360316 -0.582901)
(27.1725 -0.0331796 -0.525975)
(27.4462 -0.0351987 -0.697643)
(39.9991 1.69496e-05 0.029937)
(39.9885 7.22402e-05 0.0879958)
(39.9623 0.000139273 0.147016)
(39.919 0.000161866 0.206807)
(39.8594 0.000169402 0.268234)
(39.784 0.000196073 0.331602)
(39.692 0.000228712 0.39709)
(39.5823 0.000243561 0.464839)
(39.4539 0.000238889 0.534976)
(39.3062 0.00023027 0.607544)
(39.1382 0.000229012 0.682537)
(38.9488 0.000257191 0.76002)
(38.7356 0.000287074 0.840213)
(38.4972 0.000462761 0.924347)
(38.2286 0.000489916 1.01505)
(37.9374 0.00162192 1.1163)
(37.6056 0.00180942 1.25293)
(37.203 0.00162187 1.32133)
(36.8433 0.00181448 1.38162)
(36.5074 0.00273506 1.46546)
(36.1506 0.00379863 1.55157)
(35.7675 0.00415642 1.60954)
(35.3485 0.00425316 1.66704)
(34.8749 0.00527227 1.73889)
(34.3698 0.00428617 1.82288)
(33.8275 0.00402444 1.87195)
(33.1905 0.00862344 1.91389)
(32.4586 0.0146074 2.00936)
(31.618 0.0133151 2.10292)
(30.5933 0.0117646 2.18573)
(29.5158 0.0137545 2.33009)
(28.5941 0.021829 2.38468)
(27.799 0.0399918 2.28888)
(27.1168 0.0666913 1.92287)
(26.8814 0.0680629 1.33147)
(26.8419 -0.0179725 1.43729)
(26.5738 -0.087301 1.6663)
(26.095 -0.108671 1.6386)
(25.4823 -0.0883455 1.37442)
(25.1008 -0.0295959 0.827778)
(24.8945 -0.0377022 0.630447)
(24.8664 -0.0664867 0.671552)
(24.778 -0.0832751 0.607119)
(24.7072 -0.079133 0.404748)
(24.7294 -0.0710782 0.215527)
(24.8292 -0.0647278 0.0587584)
(24.9626 -0.0616857 -0.0782356)
(25.1379 -0.0516237 -0.182034)
(25.3407 -0.0527582 -0.319563)
(25.5989 -0.0681137 -0.465473)
(26.006 -0.0660551 -0.568876)
(26.3171 -0.0604808 -0.616462)
(26.5447 -0.0556692 -0.676816)
(26.9855 -0.0383496 -0.757848)
(39.9991 1.69496e-05 0.0299362)
(39.9885 7.22404e-05 0.0879928)
(39.9623 0.000139273 0.147011)
(39.9189 0.000161867 0.2068)
(39.8594 0.000169404 0.268225)
(39.7839 0.000196076 0.331591)
(39.6919 0.000228717 0.397077)
(39.5822 0.000243567 0.464827)
(39.4538 0.000238896 0.534967)
(39.3061 0.000230285 0.607535)
(39.1381 0.000229009 0.682534)
(38.9487 0.000257279 0.759997)
(38.7358 0.000286652 0.840158)
(38.4971 0.000464771 0.924016)
(38.2305 0.000490316 1.01446)
(37.9356 0.001642 1.11545)
(37.619 0.00169357 1.24807)
(37.2137 0.00157748 1.34882)
(36.8483 0.00177349 1.38624)
(36.5154 0.0027728 1.45402)
(36.1603 0.00396225 1.53241)
(35.7778 0.00444507 1.58474)
(35.3448 0.00444288 1.64321)
(34.8622 0.00505892 1.74808)
(34.3674 0.00413316 1.83364)
(33.8186 0.00387232 1.8965)
(33.1603 0.00969582 1.99787)
(32.4166 0.016632 2.13243)
(31.5906 0.0151463 2.24058)
(30.5855 0.013308 2.31583)
(29.5601 0.0143059 2.39721)
(28.6936 0.0210247 2.44802)
(27.9439 0.0378049 2.42446)
(27.256 0.0743846 2.17671)
(26.9188 0.0868261 1.59745)
(26.7806 -0.00508193 1.3143)
(26.5289 -0.0882055 1.21743)
(26.159 -0.150616 1.1046)
(25.7319 -0.161126 0.992591)
(25.3507 -0.0845628 0.598992)
(25.1471 -0.0410994 0.385448)
(25.0467 -0.0566963 0.34162)
(24.9299 -0.0632017 0.185841)
(24.8294 -0.0600133 -0.0140894)
(24.828 -0.0529218 -0.194073)
(24.9102 -0.0478145 -0.352591)
(25.0453 -0.0444598 -0.488844)
(25.2271 -0.0396367 -0.604236)
(25.4345 -0.0304034 -0.700166)
(25.7253 -0.0419577 -0.811334)
(26.0705 -0.0590688 -0.855924)
(26.3649 -0.0673747 -0.868718)
(26.5874 -0.0752737 -0.928541)
(27.0887 -0.0586254 -1.00501)
(39.9991 1.679e-05 0.0369628)
(39.9886 7.32371e-05 0.109478)
(39.9629 0.000138597 0.183812)
(39.9205 0.000159498 0.258861)
(39.8623 0.000165744 0.335199)
(39.7887 0.00019157 0.413219)
(39.6992 0.000223802 0.493356)
(39.5926 0.000238416 0.576054)
(39.4681 0.000233747 0.661728)
(39.3249 0.000223513 0.750763)
(39.1625 0.000222778 0.843544)
(38.9794 0.000233869 0.940565)
(38.7744 0.00027573 1.04256)
(38.5452 0.000310919 1.15104)
(38.2926 0.000535868 1.26807)
(38.0092 0.000583264 1.39825)
(37.7195 0.00211631 1.54415)
(37.3465 0.00399673 1.68887)
(36.9192 0.00372175 1.76298)
(36.5121 0.00404525 1.8231)
(36.1228 0.00556976 1.90501)
(35.7192 0.00461532 1.99002)
(35.271 0.00205994 2.13104)
(34.7415 -0.000797362 2.27169)
(34.1598 -0.00722568 2.4053)
(33.4982 -0.0110998 2.52796)
(32.6846 -0.00557601 2.66188)
(31.7899 0.00160069 2.88469)
(30.8094 -0.000163626 3.12444)
(29.7333 -0.0017473 3.27623)
(28.7313 0.00328224 3.30132)
(27.8685 0.0164491 3.18529)
(27.1071 0.0379024 2.8569)
(26.5393 0.075527 2.11266)
(26.5266 0.111485 1.16214)
(26.3609 -0.0442144 1.29249)
(26.1631 -0.268065 2.1983)
(25.5081 -0.407317 2.72021)
(24.8164 -0.406474 2.68367)
(24.3263 -0.190071 1.60903)
(24.0647 -0.110853 0.943702)
(24.1179 -0.124953 0.826613)
(24.0566 -0.136263 0.626862)
(24.0339 -0.12722 0.320139)
(24.0954 -0.119611 0.0622496)
(24.2214 -0.115601 -0.15553)
(24.3788 -0.11667 -0.336171)
(24.6042 -0.112721 -0.536444)
(24.7845 -0.0892859 -0.70077)
(25.029 -0.118481 -0.791662)
(25.3023 -0.131455 -0.934747)
(25.5897 -0.143073 -0.9844)
(25.8343 -0.160508 -0.990116)
(26.2382 -0.133377 -0.996)
(39.9991 1.679e-05 0.0369614)
(39.9887 7.32372e-05 0.109472)
(39.9629 0.000138598 0.183803)
(39.9205 0.0001595 0.258849)
(39.8623 0.000165746 0.335187)
(39.7887 0.000191578 0.413206)
(39.6991 0.000223816 0.493341)
(39.5925 0.000238442 0.576039)
(39.468 0.000233764 0.661713)
(39.3248 0.000223613 0.750748)
(39.1624 0.000222579 0.843528)
(38.9794 0.000235014 0.940536)
(38.7743 0.000279113 1.04253)
(38.5455 0.000314497 1.15089)
(38.2923 0.000550749 1.26792)
(38.0122 0.000560748 1.39762)
(37.7135 0.0022585 1.54446)
(37.3715 0.00363455 1.70318)
(36.9603 0.00337726 1.76729)
(36.5419 0.00409096 1.81732)
(36.1422 0.00618989 1.89762)
(35.7248 0.00599856 1.99125)
(35.2264 0.00213137 2.12846)
(34.6935 -0.0011164 2.26757)
(34.1277 -0.0074613 2.39891)
(33.4226 -0.0116832 2.55107)
(32.6116 -0.00478449 2.74572)
(31.7643 0.00285563 2.98573)
(30.8287 0.000717562 3.18943)
(29.802 -0.00172593 3.31044)
(28.8265 0.0023375 3.31539)
(27.9788 0.0149289 3.22466)
(27.2786 0.0335406 2.98877)
(26.7882 0.0737766 2.42502)
(26.7533 0.151948 1.55093)
(26.727 -0.0118838 1.25219)
(26.5338 -0.337489 1.32824)
(26.0518 -0.540311 1.45921)
(25.4222 -0.644317 1.39154)
(24.8719 -0.546067 1.00312)
(24.5955 -0.206284 0.588149)
(24.5562 -0.127299 0.345902)
(24.4767 -0.108094 0.0625692)
(24.4396 -0.0955015 -0.235615)
(24.5056 -0.09063 -0.49121)
(24.6569 -0.0927665 -0.715019)
(24.8508 -0.0958638 -0.910958)
(25.0765 -0.104634 -1.09433)
(25.2649 -0.107145 -1.19144)
(25.5119 -0.115277 -1.43286)
(25.5757 -0.0826615 -1.41196)
(25.7899 -0.0886538 -1.36457)
(26.0071 -0.0991424 -1.36926)
(26.3454 -0.0495822 -1.42072)
(39.9991 1.5592e-05 0.0439799)
(39.9889 6.62991e-05 0.130293)
(39.9638 0.000129714 0.218933)
(39.9226 0.000150527 0.308669)
(39.8664 0.0001577 0.400278)
(39.7954 0.000183653 0.494312)
(39.709 0.000214915 0.591335)
(39.6062 0.000228827 0.691865)
(39.486 0.000224143 0.796372)
(39.3477 0.0002147 0.905301)
(39.1907 0.000214002 1.01909)
(39.014 0.000225638 1.13826)
(38.8166 0.000258001 1.26354)
(38.5975 0.000290844 1.39603)
(38.357 0.000414525 1.5375)
(38.0946 0.000543445 1.69072)
(37.8174 0.00133588 1.85668)
(37.5253 0.00355844 2.05378)
(37.1822 0.00619951 2.19196)
(36.7717 0.0067751 2.27854)
(36.3194 0.00727617 2.35008)
(35.7952 0.00336354 2.45589)
(35.2639 -0.00266499 2.62934)
(34.7314 -0.00800809 2.85074)
(34.1096 -0.0172229 3.09516)
(33.3484 -0.0198317 3.35926)
(32.3646 -0.00938743 3.59487)
(31.3282 0.00508149 3.86372)
(30.3212 0.00762565 4.13309)
(29.2994 0.00586527 4.26127)
(28.3345 0.0109215 4.19327)
(27.4549 0.0295556 3.95512)
(26.5759 0.0673204 3.48081)
(25.8195 0.184913 2.51816)
(25.5739 0.401791 1.51752)
(21.5433 0.0232985 2.89748)
(21.8321 -0.379451 2.75555)
(21.7921 -0.774981 2.50277)
(21.4188 -1.21672 2.60401)
(21.8074 -0.934537 1.21408)
(22.3889 -0.349039 0.984105)
(22.4495 -0.491498 1.34813)
(22.5278 -0.41195 0.990588)
(22.7276 -0.342267 0.587249)
(22.9477 -0.31935 0.255841)
(23.145 -0.320314 -0.0270001)
(23.3557 -0.319401 -0.279991)
(23.5507 -0.331498 -0.5001)
(23.8045 -0.311977 -0.675231)
(23.9888 -0.288259 -0.830274)
(24.1381 -0.259135 -0.952271)
(24.2906 -0.23713 -1.0185)
(24.4073 -0.227316 -1.03937)
(24.5453 -0.198703 -1.01176)
(39.9991 1.55905e-05 0.0439786)
(39.989 6.63064e-05 0.130287)
(39.9638 0.000129685 0.218923)
(39.9226 0.000150656 0.308658)
(39.8663 0.000157173 0.400266)
(39.7953 0.000182001 0.494299)
(39.709 0.000212989 0.591319)
(39.6061 0.000226869 0.691849)
(39.4859 0.000222193 0.796357)
(39.3476 0.000212839 0.905288)
(39.1906 0.000211973 1.01908)
(39.014 0.000224522 1.13824)
(38.8166 0.000261017 1.26352)
(38.5976 0.000294863 1.39597)
(38.357 0.000426407 1.53746)
(38.0958 0.000530887 1.69026)
(37.8179 0.0014362 1.85752)
(37.5335 0.00319491 2.04157)
(37.222 0.00578963 2.19702)
(36.8323 0.00703691 2.30746)
(36.3658 0.0085138 2.40284)
(35.8484 0.00479038 2.53229)
(35.2763 -0.00284526 2.66712)
(34.696 -0.00816607 2.85236)
(34.0423 -0.0179427 3.0799)
(33.2361 -0.0198111 3.34894)
(32.3056 -0.00873806 3.60934)
(31.3735 0.00447639 3.9042)
(30.408 0.00630817 4.14331)
(29.3949 0.00456319 4.2565)
(28.4452 0.00970607 4.19372)
(27.6127 0.027242 3.99816)
(26.894 0.0617427 3.61865)
(26.3522 0.224878 2.8868)
(26.3893 0.771891 1.86284)
(26.9821 1.28882 0.723087)
(27.5681 1.21881 0.53369)
(27.2226 0.884639 0.749608)
(26.3931 0.551405 0.845531)
(25.9096 0.0424895 0.627335)
(24.45 -0.276223 0.656854)
(24.3125 -0.327343 0.44349)
(24.3013 -0.236909 0.0758733)
(24.2535 -0.162003 -0.276043)
(24.2024 -0.126833 -0.5698)
(24.1432 -0.104095 -0.820101)
(24.0731 -0.0739953 -1.04129)
(23.988 -0.0422709 -1.229)
(23.9237 -0.0108932 -1.38607)
(23.8221 0.052521 -1.52327)
(23.8633 0.130007 -1.56461)
(23.8575 0.198821 -1.58548)
(23.8503 0.248083 -1.56995)
(23.8598 0.348431 -1.55799)
(39.9991 1.54977e-05 0.0507567)
(39.9894 6.79426e-05 0.150385)
(39.9652 0.000129202 0.252873)
(39.9259 0.000148443 0.356897)
(39.8721 0.000154299 0.463308)
(39.8042 0.000178822 0.572657)
(39.7215 0.00020895 0.68554)
(39.6229 0.00022267 0.802546)
(39.5074 0.000218706 0.924229)
(39.3744 0.000210584 1.05111)
(39.2232 0.000209405 1.18368)
(39.053 0.000221561 1.32243)
(38.8629 0.000247139 1.46795)
(38.6525 0.000290499 1.62094)
(38.422 0.000346436 1.78238)
(38.1733 0.000520628 1.95352)
(37.9077 0.000769687 2.13467)
(37.6342 0.00197825 2.33023)
(37.3467 0.00292663 2.51582)
(37.024 0.00148349 2.69478)
(36.6415 9.57966e-05 2.85874)
(36.1743 -0.00113875 3.06638)
(35.5629 -0.00520991 3.23999)
(34.9467 -0.0149751 3.46829)
(34.3176 -0.0272644 3.84614)
(33.5444 -0.0327208 4.31412)
(32.518 -0.010126 4.70332)
(31.3573 0.0175113 4.92592)
(30.2477 0.019502 5.11889)
(29.16 0.0134535 5.21977)
(28.1486 0.0203525 5.14066)
(27.2186 0.040669 4.86825)
(26.1667 0.0935239 4.47249)
(25.4117 0.30097 3.85389)
(18.9593 0.275783 0.398861)
(18.6365 0.020919 2.91993)
(18.7341 -0.20239 5.56172)
(18.3593 -0.0787555 5.18112)
(18.0853 -0.177365 4.26876)
(17.6264 -0.495959 3.2925)
(19.1397 -0.511001 1.76098)
(19.2924 -0.421166 1.08835)
(19.4659 -0.282802 0.754486)
(19.7804 -0.196615 0.481387)
(20.0327 -0.149236 0.225197)
(20.167 -0.103806 -0.00460931)
(20.2331 -0.0517873 -0.218602)
(20.2477 0.00085684 -0.424374)
(20.2446 0.0401069 -0.613038)
(20.24 0.0684448 -0.782444)
(20.2551 0.0829598 -0.930271)
(20.3771 0.0766006 -1.07876)
(20.4739 0.0657483 -1.15814)
(20.9266 -0.0333159 -1.32408)
(39.9992 1.54961e-05 0.050755)
(39.9894 6.79501e-05 0.150377)
(39.9652 0.000129173 0.252859)
(39.9258 0.000148574 0.356881)
(39.872 0.000153772 0.463292)
(39.8041 0.000177145 0.572639)
(39.7215 0.000206965 0.68552)
(39.6228 0.00022059 0.802525)
(39.5073 0.000216661 0.92421)
(39.3743 0.000208274 1.05109)
(39.2231 0.000208209 1.18366)
(39.0529 0.00022213 1.32241)
(38.8629 0.000248311 1.46792)
(38.6525 0.000293118 1.6209)
(38.4222 0.000354101 1.78234)
(38.1735 0.000529922 1.95318)
(37.9092 0.000785672 2.1343)
(37.6351 0.00198972 2.32512)
(37.3497 0.00290879 2.51692)
(37.0375 0.0015295 2.70842)
(36.6567 0.000782743 2.89724)
(36.2377 -0.00124914 3.09126)
(35.6349 -0.00595825 3.30413)
(34.9547 -0.0146179 3.52005)
(34.2594 -0.0284187 3.81453)
(33.4162 -0.0332985 4.24727)
(32.3839 -0.00840616 4.58424)
(31.3842 0.0144566 4.91364)
(30.3615 0.017228 5.17419)
(29.2948 0.0114468 5.25532)
(28.2911 0.0189496 5.12458)
(27.4172 0.0386235 4.86904)
(26.6274 0.101699 4.50409)
(25.8688 0.470843 4.00688)
(26.2865 1.35815 3.53486)
(19.0929 0.03055 2.8865)
(19.0544 0.138634 2.04451)
(18.8095 0.516819 1.36181)
(17.9215 0.670378 0.832795)
(17.3002 0.527357 0.499613)
(17.4308 0.278444 0.398574)
(17.4188 0.300703 0.0969707)
(17.4158 0.43872 -0.295463)
(17.5132 0.546193 -0.624522)
(17.6674 0.619909 -0.872334)
(17.8366 0.695178 -1.06122)
(18.0253 0.784732 -1.20123)
(18.2455 0.872034 -1.29807)
(18.4918 0.951741 -1.35782)
(18.7784 1.02673 -1.40808)
(19.089 1.09177 -1.42941)
(19.4919 1.14225 -1.40908)
(19.8002 1.17841 -1.3474)
(20.4996 1.17319 -1.22847)
(39.9992 1.38724e-05 0.0572088)
(39.9899 5.83057e-05 0.169532)
(39.9671 0.000116141 0.285179)
(39.9299 0.000134789 0.402727)
(39.8791 0.000140812 0.523135)
(39.8149 0.000164509 0.647022)
(39.7366 0.000193638 0.775092)
(39.643 0.000207413 0.908047)
(39.5332 0.000204421 1.04654)
(39.4063 0.000196318 1.19114)
(39.2619 0.000194571 1.34234)
(39.0989 0.000204428 1.50052)
(38.9165 0.000227325 1.66601)
(38.7144 0.000266392 1.83903)
(38.4927 0.000313262 2.0197)
(38.2527 0.000424951 2.20807)
(37.9962 0.000524802 2.40334)
(37.7268 0.000873174 2.60558)
(37.4457 0.000582202 2.80962)
(37.1472 -0.000773214 3.01808)
(36.8176 -0.00268263 3.24251)
(36.453 -0.00249905 3.51873)
(36.0381 0.000240446 3.82208)
(35.4282 -0.0105286 4.15573)
(34.75 -0.0259595 4.62081)
(34.0821 -0.0365938 5.2382)
(33.2438 -0.012902 5.76241)
(32.1318 0.0295133 6.09282)
(30.7969 0.0454659 6.27803)
(29.3832 0.0269339 6.27226)
(28.2393 0.0182843 6.00328)
(27.3147 0.0216804 5.65884)
(26.435 0.0309064 5.47521)
(25.8239 0.161007 5.76345)
(25.051 0.538095 6.83204)
(16.1871 0.0752851 2.9736)
(15.4201 0.095057 2.00705)
(14.7902 0.128657 1.68071)
(13.859 0.146665 1.4021)
(13.2864 0.0614797 0.884126)
(13.0019 -0.0592379 0.182131)
(12.8028 -0.106983 -0.144085)
(12.8572 -0.0933764 -0.277795)
(13.0757 -0.0620905 -0.48637)
(13.4046 -0.0534937 -0.768636)
(13.8178 -0.0804352 -1.05587)
(14.3369 -0.125463 -1.33461)
(15.0126 -0.179477 -1.62011)
(15.8077 -0.251895 -1.91128)
(16.7148 -0.334902 -2.18883)
(17.6787 -0.416272 -2.43797)
(18.7999 -0.487307 -2.66693)
(19.685 -0.553239 -2.817)
(21.3725 -0.656144 -3.07634)
(39.9992 1.38723e-05 0.057207)
(39.99 5.83059e-05 0.169525)
(39.9671 0.000116141 0.285166)
(39.9299 0.000134789 0.402711)
(39.879 0.000140823 0.523118)
(39.8148 0.00016445 0.647004)
(39.7365 0.000193775 0.775073)
(39.6429 0.000206553 0.908028)
(39.5331 0.00020195 1.04652)
(39.4062 0.00019317 1.19113)
(39.2618 0.000192429 1.34232)
(39.0988 0.000204119 1.5005)
(38.9165 0.000227672 1.66598)
(38.7144 0.00026739 1.83899)
(38.4927 0.0003144 2.01965)
(38.2528 0.000429036 2.2079)
(37.9966 0.000531636 2.40301)
(37.7268 0.000883781 2.60398)
(37.4436 0.000603662 2.80752)
(37.1438 -0.000770919 3.01728)
(36.8162 -0.00258816 3.24781)
(36.4578 -0.00267171 3.51525)
(36.0581 0.00105221 3.87774)
(35.5067 -0.00851272 4.19844)
(34.7547 -0.0310233 4.60693)
(33.9961 -0.0395174 5.13362)
(32.977 -0.0199412 5.61163)
(31.8382 0.0183595 5.9904)
(30.7911 0.0367919 6.24701)
(29.6533 0.019381 6.29368)
(28.448 0.0144025 6.05657)
(27.4323 0.022181 5.67855)
(26.6062 0.0315704 5.40364)
(25.7065 0.190291 5.44394)
(25.4384 0.778716 6.26402)
(24.3066 1.55192 6.56245)
(23.4105 1.63954 5.37852)
(21.9086 1.5722 3.78982)
(20.1984 1.49289 2.56193)
(18.9508 1.39417 1.66223)
(18.1834 1.27114 0.976553)
(17.7303 1.19788 0.468507)
(17.5648 1.1842 0.102059)
(17.5932 1.19776 -0.180613)
(17.7375 1.21275 -0.418801)
(17.9757 1.21894 -0.619245)
(18.3067 1.22464 -0.781266)
(18.7196 1.23005 -0.915137)
(19.1937 1.22336 -1.02762)
(19.7337 1.20279 -1.12895)
(20.3123 1.17365 -1.21191)
(20.9922 1.13956 -1.27968)
(21.537 1.10113 -1.3104)
(22.5267 1.00842 -1.35053)
(39.9992 1.37949e-05 0.0632587)
(39.9906 6.05532e-05 0.187493)
(39.9694 0.000115891 0.315471)
(39.9348 0.000132909 0.445709)
(39.8875 0.000137725 0.57931)
(39.8275 0.000160207 0.716993)
(39.7544 0.000188361 0.859569)
(39.6667 0.000201945 1.00785)
(39.5634 0.000199418 1.16257)
(39.4437 0.000191895 1.32435)
(39.3068 0.000190542 1.49368)
(39.1517 0.000201394 1.67084)
(38.9774 0.000223442 1.85591)
(38.7832 0.000256063 2.04868)
(38.5691 0.000302112 2.24858)
(38.3361 0.000366509 2.45471)
(38.0858 0.000425724 2.6656)
(37.8212 0.000516792 2.88026)
(37.5452 0.000437595 3.09714)
(37.26 0.000178654 3.32106)
(36.9668 -0.000464252 3.56478)
(36.6638 0.000233646 3.86196)
(36.3589 0.00060021 4.2335)
(36.0023 0.0183682 4.73652)
(35.3723 0.0145656 5.35611)
(34.7887 -0.00444731 5.99101)
(34.1439 -0.0123945 6.55568)
(33.3119 -0.00239906 7.19247)
(32.1974 0.0325358 7.69189)
(30.79 0.0626671 7.80245)
(29.1245 0.056361 7.21317)
(27.4225 0.0249518 6.48381)
(26.2062 0.0084257 6.15602)
(25.0229 0.0299248 6.1554)
(24.9059 0.298453 7.54862)
(23.2323 0.318399 8.07142)
(21.3791 0.128226 6.61017)
(19.2789 -0.0778274 4.6751)
(17.2872 -0.208264 3.07702)
(15.918 -0.30607 1.78907)
(15.1796 -0.432761 0.720848)
(14.8874 -0.563057 -0.0890544)
(14.9846 -0.65458 -0.735201)
(15.4586 -0.708871 -1.30843)
(16.2286 -0.763445 -1.83601)
(17.1723 -0.828566 -2.30324)
(18.1959 -0.880425 -2.6973)
(19.2565 -0.907752 -3.02556)
(20.3204 -0.91838 -3.29868)
(21.3669 -0.919878 -3.51998)
(22.3562 -0.911987 -3.68779)
(23.3448 -0.89812 -3.80394)
(24.1029 -0.887616 -3.87637)
(25.2511 -0.881121 -3.91967)
(39.9993 1.37949e-05 0.0632566)
(39.9907 6.05532e-05 0.187483)
(39.9694 0.000115892 0.315455)
(39.9348 0.000132907 0.445689)
(39.8874 0.000137738 0.57929)
(39.8275 0.000160172 0.71697)
(39.7543 0.000188565 0.859545)
(39.6666 0.000201203 1.00782)
(39.5633 0.00019702 1.16254)
(39.4436 0.000188924 1.32433)
(39.3067 0.000187898 1.49365)
(39.1517 0.000196853 1.67081)
(38.9774 0.000219358 1.85588)
(38.7832 0.000254656 2.04864)
(38.5691 0.000297808 2.24854)
(38.3361 0.000360792 2.45461)
(38.0859 0.000424903 2.66545)
(37.8211 0.000517776 2.87982)
(37.5447 0.000449074 3.09709)
(37.2588 0.000177291 3.32174)
(36.9658 -0.00040134 3.56807)
(36.6656 -3.18178e-05 3.85889)
(36.3628 0.00171205 4.24482)
(36.0542 0.0131237 4.70941)
(35.5837 0.0111582 5.3121)
(34.8969 -0.00666931 5.93291)
(34.1294 -0.0188023 6.63092)
(32.9674 -0.00896853 7.15986)
(31.7431 0.0259576 7.45071)
(30.5462 0.0536679 7.55049)
(29.2244 0.0558105 7.35725)
(27.7568 0.0247652 6.75622)
(26.3213 0.00502894 6.24173)
(24.859 -0.00731707 6.31427)
(23.968 0.194049 6.94188)
(24.0104 0.58334 7.36404)
(24.0544 0.797069 6.74704)
(23.5505 0.886377 5.56953)
(22.703 0.935141 4.41632)
(21.9311 0.948752 3.3734)
(21.3862 0.917639 2.44949)
(21.0659 0.874568 1.68892)
(20.9575 0.848176 1.05993)
(21.0326 0.83815 0.521893)
(21.2512 0.818964 0.0500324)
(21.5755 0.772458 -0.365027)
(21.9825 0.711989 -0.723681)
(22.4429 0.647963 -1.03468)
(22.9289 0.577629 -1.30787)
(23.437 0.497579 -1.55262)
(23.9397 0.414538 -1.75483)
(24.4772 0.325559 -1.93752)
(24.8745 0.251137 -2.03143)
(25.497 0.0972599 -2.20952)
(39.9993 1.17923e-05 0.0688286)
(39.9914 4.86381e-05 0.204039)
(39.9721 9.95023e-05 0.343392)
(39.9405 0.000115188 0.48537)
(39.8972 0.000120165 0.631233)
(39.8423 0.0001421 0.781815)
(39.775 0.000169359 0.938052)
(39.6941 0.000181897 1.10088)
(39.5983 0.000178344 1.27115)
(39.4868 0.000170785 1.44959)
(39.3585 0.000168156 1.6367)
(39.2121 0.000176736 1.83275)
(39.0463 0.0001954 2.03761)
(38.86 0.000224911 2.2507)
(38.6528 0.000266212 2.47082)
(38.425 0.000315822 2.69605)
(38.1785 0.000375039 2.92378)
(37.9165 0.000424651 3.15125)
(37.6455 0.000486964 3.37655)
(37.3737 0.000399888 3.60238)