/*--------------------------------*- C++ -*----------------------------------*\
| =========                 |                                                 |
| \\      /  F ield         | OpenFOAM: The Open Source CFD Toolbox           |
|  \\    /   O peration     | Version:  4.1                                   |
|   \\  /    A nd           | Web:      www.OpenFOAM.org                      |
|    \\/     M anipulation  |                                                 |
\*---------------------------------------------------------------------------*/
FoamFile
{
    version     2.0;
    format      ascii;
    class       volScalarField;
    location    "98";
    object      k;
}
// * * * * * * * * * * * * * * * * * * * * * * * * * * * * * * * * * * * * * //

dimensions      [0 2 -2 0 0 0 0];

internalField   nonuniform List<scalar> 
4432
(
0.387254
0.411781
0.435015
0.461846
0.487975
0.517669
0.541111
0.575154
0.592037
0.627111
0.628468
0.630289
0.640267
0.592121
0.707862
0.715493
2.57358
28.3448
43.5532
166.441
320.762
478.407
730.317
853.178
955.208
934.588
746.852
575.794
438.914
442.157
426.557
600.323
732.893
681.066
212.176
26.8956
21.9588
13.2848
14.9301
15.7499
22.4664
5.09262
1.76786
2.42377
1.23304
1.32177
1.05052
1.77519
2.65187
3.46377
5.74205
28.594
20.3251
13.6702
0.389636
0.409588
0.438523
0.461543
0.49007
0.515117
0.543429
0.569081
0.59294
0.620508
0.627015
0.630799
0.641097
0.610774
0.684392
0.736714
1.82123
18.631
45.9414
164.072
335.268
432.794
631.386
683.785
763.434
685.181
531.003
411.69
343.255
283.83
235.922
170.98
164.471
157.592
137.893
8.97624
16.8468
2.52072
2.73725
1.93352
8.28535
1.96514
2.19768
1.27778
1.20794
0.740009
0.569795
4.68888
6.80728
14.8351
12.44
27.1655
13.8319
12.4449
0.00123465
0.000159598
0.00216501
0.0097629
0.0200748
0.0312523
0.0448328
0.0591366
0.0733842
0.102023
0.152704
0.17635
0.227643
0.232883
0.367514
3.07724
2.44245
25.752
210.59
513.603
774.68
1054.97
1306.63
1462.69
1503.35
1345.56
1096.94
804.744
778.798
941.168
1137.25
1529.72
1387.22
785.873
544.312
76.0173
41.4475
14.5154
18.0698
30.1338
43.6183
27.3682
15.2043
14.5833
5.96848
1.41115
0.679912
3.15599
12.4308
27.5907
199.417
32.0804
14.7882
5.57117
0.00123477
0.000159467
0.0022902
0.00990165
0.0197285
0.0320803
0.0432902
0.0621424
0.0666497
0.116599
0.121402
0.203274
0.252621
0.282693
0.353745
0.336301
3.69193
35.743
225.572
520.985
746.366
955.923
1182.3
1261.3
1236.99
963.676
662.516
533.601
528.772
422.925
366.308
485.843
619.632
265.645
151.455
14.5484
8.60258
2.01882
2.12778
1.8521
10.3355
5.13053
2.95093
2.00429
1.73103
0.373723
2.9633
25.5551
16.4503
19.6816
332.011
35.5067
6.27533
8.12942
0.00122572
3.62607e-06
1.30845e-06
3.41532e-05
0.000201255
0.000595803
0.00108098
0.00227934
0.0041153
0.00682601
0.0116532
0.0184536
0.0218699
0.0324404
0.0384079
0.0661125
0.478985
159.926
530.744
721.25
864.942
995.718
1111.76
1173.44
1112.78
816.181
565.37
516.693
615.668
933.472
1040.81
1213.14
929.799
480.609
218.93
64.6589
31.0285
4.75668
20.6114
40.1791
88.4663
59.0724
25.4902
21.9877
13.5833
5.09033
4.75512
29.3616
104.227
326.423
2182.82
1272.72
279.838
0.726995
0.00122577
3.62599e-06
1.46698e-06
2.40074e-05
0.000287418
0.000685525
0.00163627
0.00192498
0.00609933
0.00777092
0.0115312
0.0211759
0.0332509
0.0404035
0.0775368
0.0867794
6.40177
180.844
522.997
683.788
792.257
870.902
935.158
856.794
781.191
454.956
308.436
330.763
351.436
294.658
432.124
649.039
486.587
189.986
73.5969
14.6835
7.39852
3.3599
1.19572
1.4289
20.9794
7.01693
2.22574
1.63232
1.88196
0.463402
8.38103
29.0422
42.6084
440.648
1302.55
570.489
7.99575
0.600748
0.00122568
3.62328e-06
3.48426e-08
7.94213e-08
1.87439e-05
1.98204e-05
4.07948e-05
7.16102e-05
0.00037118
0.000556724
0.000638019
0.00295112
0.00408645
0.0058394
0.00650631
0.0783087
7.51888
83.6402
456.037
593.092
625.483
648.761
734.288
833.844
770.001
473.85
396.593
530.937
647.035
798.401
983.995
1048.44
903.01
648.524
405.002
133.002
5.19794
5.03115
23.6089
49.5536
96.9844
71.8768
8.67896
17.5407
18.0878
0.279865
1.40481
9.03286
14.5318
75.8158
300.986
404.594
213.21
51.3685
0.00122573
3.62437e-06
3.4307e-08
4.89516e-08
3.75904e-06
1.55509e-05
5.93889e-05
0.000157766
0.000240874
0.000293099
0.00111568
0.00152277
0.00468104
0.00870966
0.0113156
0.0133622
6.02438
132.08
432.38
542.031
550.761
530.733
599.417
763.469
687.117
454.19
413.163
472.293
488.37
511.413
752.314
853.633
716.602
355.765
115.33
17.8354
4.13606
1.13955
0.181944
0.0941359
32.6257
9.23308
0.0430725
0.292784
1.87212
2.19063
29.714
35.9063
6.77229
82.7968
418.727
89.547
19.8441
8.07393
0.00122564
3.62337e-06
3.49856e-08
5.46194e-10
1.15106e-08
1.98763e-07
1.6506e-06
3.68985e-06
1.36128e-05
1.51223e-05
7.41402e-05
0.00027336
0.000389224
0.000264779
0.00109768
0.00195141
0.876926
10.5206
143.504
329.971
382.658
350.216
531.065
610.143
619.186
474.887
516.428
675.483
782.402
908.502
1047.28
1049.12
935.101
801.372
633.37
313.148
13.6368
1.56052
4.13614
26.0251
87.5819
60.7469
3.21457
0.602381
0.954354
0.0221609
0.0596569
1.47317
1.33376
1.60756e-06
0.023736
0.00218977
19.0166
0.050554
0.00122569
3.62461e-06
3.52492e-08
5.39549e-10
3.29186e-07
1.79083e-07
1.67109e-06
3.20241e-06
4.44063e-06
3.09857e-05
7.9472e-05
0.000206163
0.000337545
0.000950095
0.00113307
0.133788
2.18221
19.9482
117.69
234.229
258.068
228.063
424.441
666.074
582.17
481.636
591.088
691.432
740.154
812.311
912.979
923.928
839.904
676.792
362.184
9.04333
0.308123
0.0586023
0.0200454
4.17805
24.0171
3.50902
0.138352
0.273493
0.0122986
0.00140223
0.372853
0.0449191
0.000147893
0.00134106
34.8967
7.70774
2.94369
0.0110956
0.00122561
3.62342e-06
3.57247e-08
5.29684e-10
3.22396e-11
2.82607e-09
2.66901e-08
6.56165e-08
2.35478e-07
1.26683e-06
8.31889e-07
1.44615e-05
1.11299e-05
2.17554e-05
4.31814e-05
0.000143853
6.86478e-05
0.088543
7.45079
34.3684
66.9342
107.06
303.662
445.005
468.241
393.403
471.076
669.941
798.901
878.857
915.842
887.463
810.463
708.586
433.13
13.9956
0.000985359
4.68296e-08
5.78887e-05
1.48251
23.6504
2.57325
0.779796
0.293504
0.36006
0.000108663
5.93777e-05
0.0631779
0.00526483
3.96623e-08
0.000298124
0.000187111
0.00265347
9.05554e-07
0.00122564
3.6247e-06
3.57421e-08
5.28454e-10
1.64879e-11
1.23142e-09
2.2022e-08
3.72899e-08
1.85324e-07
1.33346e-06
3.20645e-06
4.87451e-06
3.31642e-06
3.68231e-05
3.55399e-05
0.0178102
0.0797644
0.519341
2.63929
11.8298
17.5158
24.0402
233.622
427.39
441.078
417.611
542.106
684.258
736.922
781.558
822.256
796.684
708.585
404.646
18.6263
0.736125
3.30255e-06
5.09184e-12
2.56787e-08
2.1059e-07
3.97231
0.506859
0.0765128
1.13735e-06
7.98625e-05
0.000335235
7.32712e-05
9.74353e-05
1.15586e-09
3.50586e-06
0.00870572
1.44709e-05
7.22209e-06
1.46193e-06
0.00122555
3.62378e-06
3.57787e-08
5.31487e-10
1.51024e-11
2.16296e-11
4.42148e-10
1.15465e-09
8.42739e-09
1.32421e-09
7.8909e-09
4.31073e-07
2.34381e-07
6.61018e-07
1.13866e-06
4.59523e-06
1.23366e-07
0.000237851
0.0407706
0.259982
0.152475
0.760267
42.6598
281.528
369.912
315.662
346.942
489.66
620.089
674.785
703.741
681.864
617.93
455.571
37.4642
4.28811
8.21139e-05
9.8762e-10
5.76744e-09
1.53247e-06
0.00206031
0.000885818
0.0312615
0.000739822
0.0549082
0.00458476
5.53899e-07
0.00526487
8.32076e-14
1.72115e-07
2.02569e-06
1.78612e-05
2.49637e-05
6.61309e-07
0.00122559
3.62493e-06
3.57873e-08
5.30177e-10
1.52901e-11
9.85593e-12
3.60196e-10
1.09911e-09
9.43415e-09
3.45681e-08
1.99675e-07
3.52016e-08
2.02281e-08
1.25792e-06
1.20344e-06
0.000102008
0.00121832
0.000632314
0.0116701
0.0777497
0.0190509
0.0250544
13.1988
224.668
310.909
320.424
408.867
544.337
566.096
615.257
622.608
611.342
494.275
100.463
0.198609
0.0778928
5.0223e-11
5.22065e-13
3.31159e-10
5.92e-10
0.00017172
2.98297e-07
6.65526e-07
9.46832e-08
5.62167e-09
2.48872e-07
1.76932e-07
8.13435e-06
9.87492e-13
2.24509e-11
7.69613e-09
8.19644e-08
3.03099e-07
1.55298e-07
0.0012255
3.62324e-06
3.51487e-08
5.27864e-10
1.55818e-11
4.53219e-12
4.74061e-11
1.03883e-10
2.58907e-10
3.68936e-10
6.57083e-11
9.24926e-09
4.78883e-09
3.42076e-08
3.0689e-08
6.49964e-08
6.29905e-12
5.02665e-07
5.11866e-06
6.65686e-05
8.62084e-06
0.00240551
0.322416
81.7479
258.41
255.296
216.828
155.255
143.556
207.979
500.04
528.779
436.356
164.767
0.126505
3.5954e-08
5.64985e-11
9.70559e-12
7.30168e-10
1.27767e-07
0.000176451
5.70747e-05
0.00295774
1.92037e-06
0.000188127
1.56779e-05
9.75163e-09
4.16942e-10
1.77825e-09
1.11533e-08
2.09613e-07
1.51608e-07
2.18981e-06
4.6123e-07
0.00122553
3.62451e-06
3.51545e-08
5.26826e-10
1.5638e-11
8.89541e-13
1.31865e-11
4.26067e-11
4.69704e-10
1.23168e-09
1.0233e-08
1.15354e-09
2.0921e-10
3.69197e-08
3.06809e-08
1.19704e-08
4.79669e-08
3.19766e-08
1.45393e-06
3.06699e-05
1.04708e-06
2.01327e-06
0.0208505
17.1648
144.752
228.659
127.651
334.228
281.043
327.667
239.145
373.965
200.784
0.637994
7.61876e-05
6.25431e-11
1.24275e-12
2.22345e-10
2.65675e-09
5.58851e-10
5.27362e-11
1.20445e-11
1.93693e-07
1.28212e-11
3.56168e-11
1.35953e-11
6.77338e-10
8.94768e-13
2.45253e-11
7.80143e-10
5.68733e-08
3.12115e-07
2.03854e-07
2.96809e-07
0.00122543
3.62383e-06
3.51966e-08
5.28922e-10
1.56925e-11
1.73261e-12
5.11522e-12
1.17591e-11
2.54168e-11
3.34818e-11
1.19525e-10
8.0969e-10
4.70021e-10
1.78029e-09
6.00433e-09
3.63665e-09
8.32559e-11
4.60658e-09
2.25531e-10
1.20169e-09
1.60579e-10
6.84958e-07
8.85646e-05
1.86658
100.244
184.752
106.209
3.86799
0.695627
0.406654
32.8545
69.1817
136.563
7.87843
0.00163477
1.05516e-06
2.94656e-09
3.59753e-11
3.27972e-10
1.66899e-10
2.675e-10
1.03629e-09
1.97122e-06
2.20344e-10
1.74041e-08
1.49974e-09
5.92293e-10
4.70932e-11
2.08975e-08
1.33059e-07
2.81178e-07
3.89871e-07
4.97347e-07
4.18976e-07
0.00122547
3.62499e-06
3.52022e-08
5.28206e-10
1.55287e-11
2.16372e-12
1.37093e-12
5.13182e-12
3.49367e-11
9.89318e-11
5.18965e-10
3.29218e-10
4.70563e-10
4.57502e-09
7.30167e-09
9.11467e-10
4.00464e-09
8.92565e-12
7.066e-11
1.62698e-09
5.06472e-11
3.0783e-09
1.61784e-05
0.245178
2.67372
78.1944
2.20818
27.8485
16.7732
20.9547
4.43232
14.4532
2.69162
0.000570764
2.21723e-09
2.60077e-11
1.87318e-12
7.78125e-10
9.30023e-09
5.67418e-09
6.19428e-11
2.13952e-10
1.45716e-09
3.02244e-11
3.25541e-12
6.27814e-13
2.25132e-12
1.98862e-10
9.8009e-09
9.12844e-08
1.63541e-07
2.52084e-07
3.77743e-07
4.39656e-07
0.00122537
3.62328e-06
3.52526e-08
5.30304e-10
1.56837e-11
2.04708e-12
2.28931e-12
1.55601e-12
2.7841e-12
5.3174e-12
6.49273e-12
1.03753e-10
1.30174e-10
3.01542e-10
9.35632e-10
9.47695e-10
4.30111e-10
4.94682e-10
3.77308e-12
2.05973e-12
6.00153e-13
1.12111e-10
1.19535e-09
0.141309
8.88762
67.9794
2.69801
0.00174645
0.000207871
2.51701e-05
0.156677
0.398533
2.63791
0.0360564
2.19409e-05
2.41052e-09
4.60863e-12
5.36404e-11
6.03138e-10
3.70554e-10
7.83676e-09
2.46638e-08
7.32057e-08
6.31304e-09
6.32993e-12
1.01492e-11
8.40225e-11
4.45924e-12
1.5153e-09
2.07411e-08
8.67419e-08
1.13357e-07
2.78363e-07
3.68844e-07
0.00122539
3.6247e-06
3.52674e-08
5.28223e-10
1.55711e-11
2.19298e-12
1.20767e-12
1.21646e-12
5.52337e-12
1.56465e-11
7.63792e-11
8.0514e-11
6.38989e-11
5.6788e-10
1.87425e-09
2.35139e-10
3.58494e-11
4.20313e-11
6.61299e-13
2.03512e-12
8.63516e-13
4.27092e-11
3.08294e-05
0.000353221
0.00292654
1.05299
0.0013982
0.0848282
0.100038
0.084167
0.0158527
0.0401968
0.00405705
1.15664e-07
2.38016e-11
1.52812e-12
9.82179e-11
2.1848e-09
2.61214e-08
1.16044e-08
2.71307e-11
2.94409e-09
1.06076e-08
2.32544e-09
1.49807e-10
3.09239e-11
1.54651e-11
7.37923e-12
2.95604e-10
9.51869e-09
5.23502e-08
2.15957e-07
4.50299e-07
5.81194e-07
0.00122528
3.62399e-06
3.5303e-08
5.30276e-10
1.56812e-11
2.22876e-12
1.15698e-12
1.10219e-12
1.1865e-12
1.3476e-12
1.09024e-12
1.63058e-11
2.30633e-11
1.08909e-10
1.8029e-10
3.42731e-10
2.43029e-10
1.56713e-10
1.97744e-11
1.08822e-12
6.77363e-13
2.3744e-10
0.00198332
0.0237452
1.2845
2.0577
0.08493
4.8863e-06
1.62009e-08
3.03398e-05
0.000280834
0.000402001
0.00517643
1.07769e-05
1.59023e-09
4.30667e-12
7.05566e-11
2.94281e-10
3.46112e-09
5.89619e-10
5.95727e-11
1.43949e-10
4.43164e-09
3.8601e-10
8.83701e-13
5.0649e-13
3.35302e-11
1.10066e-11
1.58388e-10
2.20936e-09
7.15471e-09
6.48822e-09
4.3837e-09
7.83531e-08
0.00122531
3.62537e-06
3.53138e-08
5.29303e-10
1.555e-11
2.16577e-12
1.16316e-12
1.36478e-12
1.14464e-12
1.60218e-12
6.2936e-12
1.82337e-11
1.71431e-11
5.50984e-11
5.22791e-10
7.34608e-11
2.02573e-11
1.3063e-11
1.73258e-12
3.42161e-13
1.00199e-12
3.2442e-11
3.02043e-07
3.6162e-06
0.000139915
0.000662327
1.1579e-06
5.36941e-05
8.03032e-05
5.81564e-05
2.59389e-06
5.16259e-06
8.67138e-08
2.25194e-11
1.10238e-12
1.1813e-10
1.41085e-09
5.81433e-09
6.45082e-08
2.94136e-08
1.54071e-10
3.05029e-11
1.0279e-09
1.99655e-10
5.31816e-11
3.26249e-11
1.82736e-11
1.18433e-11
1.94753e-11
1.84545e-10
3.03644e-10
3.77645e-09
4.73725e-09
1.57725e-07
0.00122521
3.62289e-06
3.52955e-08
5.30787e-10
1.55428e-11
2.17291e-12
1.15371e-12
1.00329e-12
1.72887e-12
2.58557e-12
1.16361e-12
1.77212e-12
4.23711e-12
2.09984e-11
5.15363e-11
7.90275e-11
6.3461e-11
5.98902e-11
3.05735e-11
8.91733e-12
4.42085e-13
4.4338e-13
1.82831e-13
0.00073405
0.0847958
0.0491374
0.00354487
2.51272e-06
4.68576e-09
8.18206e-12
3.36823e-08
6.02665e-08
5.87982e-07
1.05198e-09
8.70171e-12
3.38614e-10
4.05114e-09
1.51436e-09
1.02642e-08
2.36595e-09
2.3549e-10
8.17568e-12
3.41799e-11
2.89592e-12
3.06428e-13
1.07969e-12
1.11518e-11
2.18281e-13
4.12852e-11
2.68338e-10
6.64637e-10
4.23748e-10
1.65287e-10
5.85619e-09
0.00122523
3.62452e-06
3.53017e-08
5.31282e-10
1.57417e-11
2.20961e-12
1.16892e-12
1.20528e-12
8.42229e-13
1.03965e-12
1.986e-12
4.12413e-12
4.20104e-12
1.24681e-11
5.16216e-11
1.61019e-11
6.86929e-12
5.10594e-12
2.60398e-12
8.02035e-13
9.19694e-12
1.08247e-10
1.61351e-08
1.92876e-07
5.32657e-05
0.000516175
3.35094e-07
2.40871e-08
1.00911e-08
5.61889e-09
1.47266e-10
2.26878e-10
1.04219e-11
5.69177e-13
5.30002e-13
1.03794e-09
1.24572e-08
3.85855e-09
2.99822e-07
1.06982e-07
9.81517e-10
3.4284e-10
1.32691e-10
1.8678e-11
4.89128e-12
3.49945e-12
2.85694e-12
4.84887e-12
3.24257e-12
1.01203e-11
2.36241e-11
2.04914e-11
9.0834e-10
3.34897e-09
0.00122513
3.62611e-06
3.6348e-08
5.43156e-10
1.59967e-11
2.22806e-12
9.38273e-13
1.94472e-12
8.46677e-13
9.90172e-13
1.00892e-12
1.1514e-12
1.63958e-12
1.1053e-12
1.15385e-11
2.01554e-11
1.97459e-11
2.13127e-11
1.80449e-11
1.17829e-11
7.78215e-13
1.04026e-12
4.31766e-13
0.00230875
0.0112791
0.000526902
5.16921e-07
1.43746e-05
3.30597e-08
1.10172e-06
3.20743e-11
6.69403e-09
4.56306e-10
2.81022e-11
5.91912e-12
4.70057e-10
5.63606e-09
1.29692e-08
1.3127e-07
1.55061e-08
1.45814e-09
1.71318e-10
7.60563e-12
5.62168e-13
2.78339e-12
1.28904e-12
3.9147e-12
4.26488e-12
8.92541e-12
3.51863e-11
5.95211e-11
5.96558e-11
3.89572e-11
2.81258e-10
0.00122515
3.62796e-06
3.63829e-08
5.4223e-10
1.59832e-11
2.23618e-12
9.88242e-13
1.76971e-12
7.63961e-13
9.10651e-13
1.06712e-12
2.04471e-12
1.89057e-12
3.41461e-12
9.74033e-12
8.23266e-12
2.85242e-12
1.35681e-12
6.56771e-13
3.53943e-13
6.09924e-13
4.52306e-13
7.44839e-14
0.130199
0.017274
0.0875412
0.0307124
0.00889319
0.00256323
0.000790554
1.13966e-10
3.09097e-05
5.21101e-07
5.80089e-13
4.88377e-13
2.44665e-08
2.93665e-07
1.87404e-08
2.24435e-06
1.53396e-06
7.4954e-09
3.80238e-09
1.87375e-10
2.44691e-11
5.50303e-12
9.35858e-12
5.94517e-12
5.80597e-11
1.45613e-11
1.56632e-11
8.55562e-12
1.12304e-11
4.08935e-11
1.24564e-10
0.00122505
3.61843e-06
3.55916e-08
5.42691e-10
1.63963e-11
2.29231e-12
1.21151e-12
2.35662e-12
1.10789e-12
1.18759e-12
2.33013e-12
1.17187e-12
1.28835e-12
2.24228e-12
3.935e-12
5.75018e-12
7.07459e-12
8.06351e-12
8.7272e-12
7.93708e-12
4.88503e-13
1.06046e-05
0.00560528
4.32808e-06
0.00155432
0.00297291
0.000732015
0.00016914
5.13622e-05
1.31717e-05
2.27172e-06
1.95358e-08
6.02342e-07
6.47941e-09
7.99793e-10
2.50525e-09
2.92709e-08
1.97691e-07
2.24082e-06
1.83487e-07
1.24166e-08
1.8528e-09
4.11023e-11
1.23919e-11
7.26647e-12
2.08305e-12
5.86695e-11
1.03319e-11
1.18003e-11
1.19614e-11
8.63877e-12
9.47425e-12
9.93947e-12
2.55711e-11
0.00122507
3.62903e-06
3.62641e-08
5.40851e-10
1.58239e-11
2.0933e-12
1.59353e-12
2.37492e-12
1.10422e-12
1.0657e-12
1.09955e-12
1.0752e-12
2.39504e-12
1.36179e-12
2.72409e-12
2.62415e-12
3.24526e-12
2.31757e-12
1.34499e-12
2.1886e-12
4.27846e-13
8.83233e-07
3.47993
1.73974
0.157155
1.04922
0.367985
0.106534
0.0307123
0.00947518
0.00324449
0.000370653
6.2494e-06
2.94084e-08
1.37966e-09
4.49879e-07
5.39853e-06
1.02492e-07
0.000139011
0.000131822
4.06713e-07
6.37685e-08
1.59485e-09
5.78365e-10
6.99307e-11
1.53212e-11
8.18038e-11
9.07645e-10
2.87133e-10
1.17886e-10
5.08159e-11
5.16206e-12
7.68813e-12
1.20467e-11
0.00122498
3.62813e-06
3.64779e-08
5.45638e-10
1.60982e-11
2.22243e-12
1.13839e-12
2.30678e-12
1.09539e-12
1.18959e-12
1.24686e-12
1.28889e-12
1.31983e-12
1.35407e-12
1.42235e-12
2.59284e-12
3.01414e-12
3.62884e-12
3.73247e-12
4.50679e-13
4.63368e-13
4.10176e-08
1.4509e-08
0.00215315
0.00553191
0.00679124
0.00926005
0.00289386
0.00109228
0.000354265
0.000114756
3.44587e-05
9.56856e-07
4.74914e-08
1.45919e-08
1.6293e-08
1.80978e-07
1.62027e-06
1.46165e-05
3.10969e-06
1.86879e-07
4.04116e-08
3.02476e-10
1.65821e-10
1.81083e-10
8.23527e-10
9.77926e-10
4.0662e-10
2.66238e-10
1.73848e-10
4.54487e-11
7.71413e-12
1.14824e-11
5.60558e-12
0.00122565
3.60805e-06
3.52285e-08
5.49705e-10
1.6882e-11
2.32607e-12
1.22005e-12
1.2207e-12
1.17638e-12
1.17413e-12
1.02567e-12
2.10151e-12
1.08526e-12
1.23969e-12
2.27149e-12
1.57918e-12
1.59206e-12
2.46957e-12
1.39841e-12
1.44294e-12
3.95214e-12
0.00994866
0.00502924
31.8836
4.78163
0.494513
0.729482
0.10748
0.0389755
0.0142175
0.00633123
0.000568991
1.24475e-05
3.79425e-07
3.60764e-08
1.63574e-05
0.000196305
4.64757e-06
0.00847003
0.00756607
3.20709e-05
4.00025e-06
4.91973e-08
1.97124e-08
1.18364e-09
2.26025e-10
1.75835e-09
1.98963e-08
8.77924e-09
1.68833e-09
6.2538e-10
6.64301e-12
5.14787e-12
8.06412e-12
0.00122549
3.58853e-06
3.42572e-08
5.48083e-10
1.70315e-11
2.29234e-12
1.74474e-12
2.52836e-12
1.20005e-12
1.24257e-12
2.17624e-12
1.14454e-12
1.24619e-12
1.2641e-12
2.03798e-12
2.73997e-12
1.82247e-12
2.06536e-12
3.19682e-12
4.90459e-13
4.91054e-13
6.29694e-07
1.32943e-06
0.00118859
0.557967
0.0935811
0.0334636
0.0145807
0.00536025
0.000531181
8.7744e-06
2.56547e-07
9.93391e-09
9.14591e-08
4.45454e-08
4.43241e-07
0.000239683
0.000805668
0.000262749
1.66859e-05
1.56871e-06
4.47788e-09
1.31318e-09
2.81344e-09
9.98281e-09
1.04248e-08
8.94909e-09
7.23911e-09
2.66525e-09
6.78356e-10
4.07123e-11
4.90547e-11
1.02913e-11
0.00122483
3.60642e-06
3.60472e-08
5.48156e-10
1.64536e-11
2.18786e-12
2.29065e-12
8.92171e-13
2.08645e-12
7.49134e-13
1.8999e-12
9.72139e-13
2.02746e-12
1.11433e-12
1.2679e-12
1.37246e-12
1.34638e-12
1.28309e-12
1.05244e-12
1.10941e-12
5.94463e-13
0.0015121
0.445606
9.45327
0.940601
0.438183
0.118333
0.0451852
0.0216128
0.00977874
0.0017376
2.89656e-05
1.49898e-07
3.70847e-06
0.000934804
0.0112169
0.00207007
0.224227
0.347681
0.00510544
0.000486823
3.32956e-06
6.06666e-07
2.2465e-08
1.55795e-09
6.78001e-08
8.01618e-07
2.99778e-07
2.87657e-08
5.71929e-09
1.70688e-11
8.22703e-12
3.43904e-11
0.00122484
3.61277e-06
3.58267e-08
5.48816e-10
1.66056e-11
2.25331e-12
1.23728e-12
1.2455e-12
2.18828e-12
1.06992e-12
1.07379e-12
2.29568e-12
1.17216e-12
1.08154e-12
2.4842e-12
1.39636e-12
2.67565e-12
1.6375e-12
1.64098e-12
1.23167e-12
1.19708e-12
5.87793e-07
0.00251559
0.00119977
0.343684
0.175629
0.0746143
0.0423073
0.0184774
0.00350133
8.18016e-05
1.01904e-06
3.82803e-08
3.69811e-09
7.94111e-09
2.23097e-05
0.000267784
0.030842
0.103586
0.0245193
0.00172301
0.00015249
2.06321e-08
2.53844e-09
9.73317e-09
1.14252e-07
5.13904e-07
2.49659e-07
2.2562e-07
6.06468e-08
6.22957e-09
1.23313e-09
6.33974e-10
5.11523e-11
0.00122485
3.61466e-06
3.58546e-08
5.47787e-10
1.65211e-11
2.25131e-12
1.18073e-12
1.1507e-12
2.12704e-12
9.4932e-13
1.05209e-12
1.99166e-12
1.05445e-12
1.17388e-12
2.56802e-12
1.34341e-12
1.8318e-12
1.12269e-12
2.13174e-12
1.0454e-12
4.49899e-13
9.46279e-08
0.0991022
0.207305
0.108188
1.21057
0.369378
0.163408
0.0786768
0.0296762
0.00478699
6.9638e-05
1.30383e-06
5.06046e-08
1.08686e-10
0.0275114
0.33022
0.26625
4.87228
5.26181
0.223254
0.0135065
1.18031e-06
1.1833e-07
8.17789e-12
1.83508e-10
3.78599e-06
4.49178e-05
9.88152e-06
1.07825e-06
2.33297e-07
4.62227e-10
1.20239e-10
2.06618e-10
0.0012248
3.62642e-06
3.65496e-08
5.51445e-10
1.64235e-11
2.24425e-12
1.21483e-12
1.21307e-12
2.21555e-12
1.06833e-12
1.14505e-12
2.26977e-12
1.09864e-12
1.92869e-12
2.88751e-12
1.56436e-12
9.82924e-13
1.17868e-12
1.31859e-12
1.11371e-12
1.39011e-10
2.36907e-05
0.000283263
0.000353019
0.00048238
0.011393
0.0162246
0.0135289
0.00382803
0.000529208
1.48169e-05
4.02851e-07
9.49506e-09
2.81189e-07
6.29524e-08
0.00997724
0.0788968
0.964961
3.76855
0.266127
0.0998426
0.00739906
1.79922e-07
2.77963e-09
1.47028e-07
1.76001e-06
2.25004e-05
7.81344e-06
4.39148e-06
1.15256e-06
1.0909e-07
5.15427e-08
8.52111e-09
6.06512e-10
0.00122479
3.62838e-06
3.65635e-08
5.5042e-10
1.63621e-11
2.23612e-12
1.20363e-12
1.20138e-12
2.19386e-12
1.07627e-12
1.14477e-12
2.17824e-12
1.07993e-12
2.37455e-12
1.19042e-12
2.25921e-12
1.19667e-12
1.1492e-12
2.56668e-12
1.26272e-12
3.06137e-10
0.000844219
0.0101149
0.00691549
0.0260478
0.0767862
0.0924237
0.0649215
0.0296627
0.0049203
0.000136717
1.37011e-06
3.7387e-08
7.02785e-08
4.7431e-07
0.459474
5.51495
7.73217
49.1935
53.2518
14.0704
2.26045
0.00204811
1.94467e-05
1.56029e-09
1.35406e-07
0.000132879
0.00110871
0.000274579
2.7067e-05
1.01611e-05
3.90361e-08
3.79367e-09
2.8471e-09
0.00122474
3.62555e-06
3.63293e-08
5.49622e-10
1.63558e-11
2.08372e-12
2.46071e-12
9.09219e-13
1.64555e-12
2.73698e-12
1.16115e-12
1.10498e-12
2.17071e-12
1.13259e-12
2.31544e-12
1.11185e-12
1.07571e-12
2.57065e-12
1.28994e-12
2.29324e-12
4.60116e-13
2.03483e-06
2.43756e-05
4.46164e-05
0.000143276
0.00108624
0.00242107
0.00219315
0.000356077
1.3173e-05
2.76723e-08
4.72446e-10
1.28284e-10
2.87233e-07
0.00340263
0.0408419
3.04387
35.1175
97.821
18.8208
16.5055
1.00185
0.000343079
2.34955e-07
5.0017e-06
5.93548e-05
0.000303654
0.000106436
4.61149e-05
8.92856e-06
1.21881e-06
1.46927e-06
1.3854e-07
9.48681e-09
0.00122474
3.62728e-06
3.63431e-08
5.48786e-10
1.62985e-11
2.07639e-12
2.45161e-12
9.05864e-13
1.63002e-12
2.602e-12
1.0608e-12
9.04649e-13
2.00899e-12
1.04959e-12
2.36533e-12
1.27711e-12
1.09836e-12
2.1935e-12
1.26785e-12
1.22373e-12
5.32431e-13
7.29334e-05
0.000873683
0.000430952
0.000105636
0.0102205
0.0172894
0.0134789
0.00133227
2.86444e-05
6.17646e-07
2.11827e-08
3.90144e-09
2.42647e-08
4.12883e-05
4.52377
49.691
126.392
169.95
149.682
129.532
43.6228
0.368225
0.00210587
4.12042e-07
0.000433805
0.000463202
0.0270432
0.0070536
0.00102191
0.000272697
1.70631e-06
1.48185e-07
4.63584e-08
0.00122469
3.62495e-06
3.63309e-08
5.49204e-10
1.61901e-11
2.18586e-12
1.14866e-12
1.65506e-12
2.45289e-12
9.97851e-13
7.27804e-13
1.96371e-12
1.05787e-12
2.43e-12
1.2904e-12
9.22683e-13
2.41038e-12
1.23838e-12
2.18511e-12
1.2603e-12
1.39229e-12
1.03977e-07
1.24584e-06
4.36838e-06
2.37312e-05
8.29517e-05
0.000249675
0.000142152
4.7208e-06
1.79901e-07
3.07254e-09
1.96852e-10
1.71023e-06
2.05078e-05
0.744919
8.94039
90.9357
194.145
188.897
169.451
142.406
59.5236
0.199013
2.64694e-05
1.89848e-08
0.00397774
0.0024889
0.00147574
0.000233503
2.90279e-05
7.41916e-06
1.00712e-05
7.76394e-07
5.9776e-08
0.00122468
3.62687e-06
3.63477e-08
5.48443e-10
1.61382e-11
2.17912e-12
1.14444e-12
1.61896e-12
2.53718e-12
1.02824e-12
6.23214e-13
1.89605e-12
9.9498e-13
1.08903e-12
2.22774e-12
1.05143e-12
1.23679e-12
2.48723e-12
1.32418e-12
1.27071e-12
4.53894e-13
2.01819e-06
2.41817e-05
5.47221e-05
0.000197248
0.00028121
0.00286603
0.002336
0.000111434
2.89473e-06
2.13543e-07
4.22071e-08
2.14243e-08
4.29433e-05
0.000494915
4.56273
180.393
198.81
196.048
179.592
150.426
121.195
30.9252
0.24371
0.00235895
0.134988
0.131585
0.269134
0.0657866
0.0175388
0.0031224
5.54276e-05
3.75791e-06
5.01767e-07
0.00122464
3.62599e-06
3.63267e-08
5.50294e-10
1.62518e-11
2.19159e-12
1.1704e-12
1.74068e-12
2.61776e-12
9.75614e-13
7.50027e-13
1.98944e-12
9.96847e-13
1.14154e-12
2.19243e-12
1.12991e-12
1.18661e-12
1.15478e-12
2.14208e-12
2.435e-12
1.46254e-12
9.77355e-14
8.90721e-09
1.89992e-07
3.20608e-09
6.42378e-06
7.20451e-06
3.37865e-06
3.57693e-07
2.70565e-08
3.79505e-09
1.57305e-09
2.24821e-12
1.79177e-06
19.6079
129.217
230.38
237.767
243.9
224.872
180.56
135.427
5.64969
0.00268169
0.000103896
0.136926
0.0409835
0.0100526
0.000823196
4.0925e-05
9.86959e-06
1.79664e-05
1.45905e-06
9.79621e-08
0.00122463
3.62792e-06
3.63487e-08
5.49677e-10
1.62142e-11
2.20188e-12
1.1667e-12
1.65717e-12
2.53473e-12
8.82032e-13
6.803e-13
8.28825e-13
9.8573e-13
1.10211e-12
2.23828e-12
1.11399e-12
1.18189e-12
1.24655e-12
1.14346e-12
2.13797e-12
4.74922e-13
1.3888e-08
1.66454e-07
7.258e-07
1.07684e-05
6.5778e-05
0.000122879
2.94147e-05
2.29439e-06
1.11623e-07
1.35992e-08
8.85026e-09
3.82012e-07
0.136076
1.63323
204.573
224.33
246.755
247.488
236.383
193.124
154.407
99.4966
6.83252
3.71705
5.11286
2.79407
1.45148
0.377555
0.0945408
0.0173843
0.000510596
2.37482e-05
1.41369e-06
0.0012246
3.62548e-06
3.63444e-08
5.50916e-10
1.62603e-11
2.18916e-12
1.1705e-12
1.8004e-12
2.57535e-12
9.45958e-13
7.35582e-13
2.07103e-12
9.82825e-13
1.09599e-12
1.17477e-12
1.20134e-12
2.43883e-12
1.20233e-12
1.24916e-12
9.27579e-13
2.80635e-12
3.3866e-13
1.94153e-10
2.43426e-09
4.24553e-08
2.17228e-07
1.63688e-07
4.66531e-08
9.44475e-09
4.30597e-09
1.9674e-09
1.03724e-09
4.25132e-05
9.90333e-07
104.461
248.839
273.639
301.104
310.24
292.442
232.042
171.66
3.73633
0.0471078
0.00537896
0.827347
0.212911
0.0349845
0.00118842
5.19078e-05
1.69935e-05
3.29146e-05
9.19454e-06
1.80012e-08
0.00122459
3.62753e-06
3.63666e-08
5.50144e-10
1.62088e-11
2.19855e-12
1.16441e-12
1.68682e-12
2.60481e-12
9.39709e-13
6.56345e-13
2.01497e-12
9.52901e-13
2.07716e-12
1.09706e-12
1.14355e-12
2.44066e-12
1.22172e-12
1.27043e-12
1.28847e-12
1.24544e-12
3.01783e-11
3.60205e-10
6.74253e-08
2.86304e-07
2.58196e-06
4.4744e-06
3.24936e-07
4.75505e-08
9.6113e-09
4.98451e-09
0.00119358
0.159267
36.2113
217.367
243.933
283.532
306.41
311.236
287.631
224.832
182.279
206.499
98.9649
78.585
44.8055
16.9366
4.6527
1.01545
0.218301
0.0356298
0.00137904
6.37074e-05
1.57766e-09
0.00122455
3.62672e-06
3.63886e-08
5.51519e-10
1.63376e-11
2.07511e-12
2.2795e-12
8.13273e-13
9.39632e-13
6.70476e-13
2.0738e-12
9.76394e-13
2.38085e-12
1.15301e-12
1.1854e-12
1.16079e-12
1.14853e-12
2.39103e-12
1.1696e-12
1.21853e-12
2.73285e-12
1.39542e-12
1.4957e-11
9.40387e-11
1.20207e-09
4.66728e-09
2.78091e-09
1.57828e-09
8.47962e-10
1.48454e-09
7.99042e-10
4.2427e-05
0.000509175
8.0131
258.426
297.552
337.788
378.694
395.109
370.715
318.21
255.23
194.54
4.66722
4.21629
4.16058
0.675517
0.0701725
0.00279635
8.07639e-05
1.67957e-06
0.000324565
1.13273e-05
1.39944e-08
0.00122454
3.62865e-06
3.64088e-08
5.50767e-10
1.6283e-11
2.06003e-12
2.3228e-12
8.14749e-13
9.0474e-13
6.48854e-13
2.01521e-12
9.15888e-13
1.02483e-12
1.06196e-12
1.13309e-12
1.08844e-12
2.16579e-12
1.1309e-12
2.48461e-12
1.31205e-12
3.10471e-12
4.81733e-15
2.16793e-10
2.22229e-09
9.65092e-09
5.74181e-08
9.39274e-08
1.34031e-08
5.39923e-09
3.73541e-09
2.79985e-09
4.05729e-13
1.91005
217.202
258.768
304.425
353.146
387.103
403.471
370.823
305.759
296.051
352.072
316.222
194.311
85.3255
23.1774
6.05035
0.895452
0.177131
0.0197312
0.00384627
0.000187068
1.16017e-09
0.00122452
3.62649e-06
3.64108e-08
5.52577e-10
1.62937e-11
2.20254e-12
1.15752e-12
1.14932e-12
2.15625e-12
9.91964e-13
2.16263e-12
1.00537e-12
9.21173e-13
2.11217e-12
1.08226e-12
2.41451e-12
1.15758e-12
1.19358e-12
2.42719e-12
1.25901e-12
1.33166e-12
1.31716e-12
2.93322e-12
6.78976e-12
6.56141e-12
2.74473e-10
2.11143e-10
3.18138e-10
3.55382e-10
7.18874e-10
6.72007e-09
0.0359521
0.431446
194.91
315.109
373.815
437.68
486.481
515.913
505.066
470.959
427.64
410.929
233.107
35.166
16.9569
2.16264
0.0576825
0.0163647
0.000311809
1.19876e-05
2.58937e-06
8.74023e-08
1.87747e-07
0.0012245
3.62847e-06
3.64294e-08
5.52043e-10
1.62531e-11
2.20827e-12
1.15802e-12
1.65688e-12
2.54156e-12
9.17918e-13
9.61802e-13
1.02933e-12
1.11304e-12
2.22137e-12
1.10855e-12
2.47033e-12
1.19192e-12
9.27099e-13
2.2521e-12
1.19182e-12
1.32388e-12
2.00171e-12
2.60164e-12
2.0223e-10
6.93196e-10
1.2661e-09
3.59461e-09
2.89103e-09
2.51742e-09
6.97412e-07
8.36002e-06
1.01968e-09
0.000196862
275.321
312.634
373.497
446.98
499.851
530.434
515.189
463.477
464.829
531.756
521.851
321.686
128.381
22.7649
3.28589
0.942493
0.199997
0.0145133
0.00194347
5.77769e-05
3.07174e-06
0.00122447
3.62776e-06
3.64877e-08
5.52849e-10
1.6239e-11
2.18198e-12
1.2031e-12
2.18471e-12
8.60792e-13
1.85506e-12
9.59539e-13
2.16436e-12
1.04706e-12
1.16047e-12
2.32439e-12
1.14728e-12
2.24584e-12
1.14723e-12
2.35034e-12
1.22855e-12
1.21625e-12
2.50511e-12
1.56189e-12
2.05886e-12
4.12942e-12
2.39694e-11
4.49865e-11
3.11336e-11
3.95918e-11
6.66118e-11
5.65471e-10
4.23081
50.7053
320.665
371.492
454.565
532.887
598.266
639.24
636.093
604.708
570.212
551.407
371.959
50.7221
29.3068
0.882967
0.00581288
0.00938714
4.11756e-05
6.81983e-05
2.26537e-05
2.08634e-07
4.1738e-07
0.00122446
3.62961e-06
3.65051e-08
5.52086e-10
1.61906e-11
2.12636e-12
1.63886e-12
2.51041e-12
9.54042e-13
1.01452e-12
1.06685e-12
2.14169e-12
1.04735e-12
1.16064e-12
2.26928e-12
1.12088e-12
1.14888e-12
1.18424e-12
2.38926e-12
1.21639e-12
8.90941e-13
5.96787e-12
3.24993e-12
2.71091e-11
1.50628e-11
1.15977e-10
2.92499e-10
1.45367e-10
5.47958e-10
2.42455e-09
0.0054774
0.0657201
100.648
301.311
366.913
463.525
548.29
615.567
653.444
641.224
624.938
615.605
659.249
600.107
288.923
122.785
24.5322
1.61834
0.599699
0.00193327
7.65327e-05
0.000171019
1.14652e-06
2.11894e-07
0.00122444
3.6278e-06
3.65096e-08
5.53497e-10
1.62646e-11
2.13275e-12
1.64307e-12
2.43516e-12
8.92956e-13
2.16956e-12
9.66464e-13
1.55897e-12
8.51533e-13
2.09706e-12
1.03566e-12
1.79528e-12
2.59931e-12
1.04941e-12
1.13241e-12
8.93527e-13
2.30725e-12
1.2645e-12
2.36642e-12
1.27858e-12
1.8858e-12
4.34676e-12
3.04729e-08
5.02051e-11
1.33982e-07
1.14627e-06
0.000389945