/*--------------------------------*- C++ -*----------------------------------*\
| =========                 |                                                 |
| \\      /  F ield         | OpenFOAM: The Open Source CFD Toolbox           |
|  \\    /   O peration     | Version:  4.1                                   |
|   \\  /    A nd           | Web:      www.OpenFOAM.org                      |
|    \\/     M anipulation  |                                                 |
\*---------------------------------------------------------------------------*/
FoamFile
{
    version     2.0;
    format      ascii;
    class       surfaceScalarField;
    location    "98";
    object      phi;
}
// * * * * * * * * * * * * * * * * * * * * * * * * * * * * * * * * * * * * * //

dimensions      [0 3 -1 0 0 0 0];

internalField   nonuniform List<scalar> 
11516
(
9.98788e+06
10.4938
8995.21
9.96851e+06
26.744
19555.2
9.94021e+06
34.083
28482.4
9.90344e+06
34.4156
36961.4
9.85811e+06
33.5778
45522.7
9.80398e+06
34.7503
54328.8
9.74078e+06
34.5422
63421.6
9.66826e+06
33.5101
72745.6
9.5863e+06
36.9637
82198.1
9.49468e+06
35.7548
91873.5
9.39355e+06
37.0251
101404
9.28379e+06
45.4416
110028
9.16725e+06
-50.3764
116932
9.04857e+06
-178.754
119231
8.93791e+06
-1516.7
112589
8.84996e+06
-2389.6
90770.7
8.80092e+06
-963.721
50456
8.79908e+06
-510.946
2709.78
8.80113e+06
7.44937
-1747.6
8.76357e+06
1160.02
36677.1
8.69417e+06
-1058.09
70736.9
8.5947e+06
-4708.46
104466
8.47143e+06
-7732.9
131273
8.33126e+06
-10282
150703
8.17523e+06
-12320
168603
8.02171e+06
-13998.9
167762
7.88218e+06
-12023.6
151814
7.76151e+06
-7317.19
128249
7.65638e+06
-7431.74
112779
7.56033e+06
-12954.2
109175
7.45309e+06
-21975.2
129397
7.29919e+06
-31199.3
185282
7.09988e+06
-31374.2
230884
6.90048e+06
-18453.8
218100
6.74558e+06
-2444.25
157664
6.60853e+06
3815.71
133604
6.47086e+06
3554.76
134425
6.34848e+06
1515.33
121099
6.25424e+06
-247.565
94607.8
6.19297e+06
-82.0231
61490.1
6.15487e+06
1969.39
36214
6.12989e+06
4495.64
20673.5
6.11224e+06
5929.95
11867.8
6.10717e+06
7549.03
-2522.39
6.11671e+06
9560.37
-19288.1
6.13937e+06
10512.2
-33455.5
6.17239e+06
12629.5
-45974
6.21597e+06
14237
-58103
6.26956e+06
14907.2
-68699.5
6.33234e+06
20974.9
-83745.9
6.40989e+06
16119.1
-93665.5
6.48526e+06
6233.04
-81591
6.5592e+06
3027.63
-76926.9
3160.97
-76702.1
9.9879e+06
8995.27
9.96851e+06
19556.8
9.94021e+06
28492.4
9.90343e+06
36969.2
9.8581e+06
45522.2
9.80397e+06
54329.4
9.74077e+06
63411.4
9.66826e+06
72726.9
9.58631e+06
82178.9
9.49471e+06
91840.9
9.39357e+06
101395
9.28382e+06
110023
9.16688e+06
117127
9.04696e+06
120005
8.93123e+06
114513
8.83807e+06
91102.5
8.79111e+06
46306.6
8.79539e+06
-4557.17
8.80239e+06
-6790.15
8.76702e+06
36714.3
8.69826e+06
67889.5
8.60064e+06
93109.5
8.47827e+06
114815
8.33538e+06
132788
8.17209e+06
151148
8.00871e+06
149570
7.85791e+06
138977
7.7218e+06
128977
7.59859e+06
115938
7.49063e+06
95173.7
7.3876e+06
81211.8
7.25584e+06
100744
7.07772e+06
146907
6.87233e+06
187115
6.68788e+06
182180
6.52289e+06
169061
6.3618e+06
164866
6.22105e+06
142488
6.10614e+06
114868
6.02127e+06
84871.6
5.96214e+06
61261.4
5.91922e+06
47518.9
5.88698e+06
38188.9
5.87417e+06
20286.5
5.88215e+06
1419.93
5.90982e+06
-17376.6
5.95112e+06
-28869.4
6.00448e+06
-39271
6.07057e+06
-51205.5
6.16539e+06
-73864.3
6.28084e+06
-99308.4
6.37805e+06
-90966.7
6.46461e+06
-83557.4
-84634.9
1.00059e+07
9.95154
5169.45
1.00116e+07
25.0754
14053.3
1.00174e+07
30.0467
22872.6
1.00229e+07
30.6907
31676.1
1.00279e+07
32.9438
40675.2
1.00324e+07
34.7857
49997.8
1.00364e+07
37.4178
59718.9
1.00396e+07
41.7398
69691.1
1.00415e+07
44.1097
80560.4
1.0042e+07
51.4648
91616.2
1.00405e+07
52.3621
103202
1.00358e+07
42.9974
114930
1.00262e+07
114.957
126831
1.00079e+07
238.514
137703
9.96806e+06
1671.02
151098
9.89624e+06
1959.38
161002
9.77357e+06
2140.88
171411
9.58542e+06
1236.38
189781
9.37809e+06
-985.731
206654
9.19756e+06
-1339.08
218624
9.0409e+06
230.904
227256
8.90623e+06
1899.06
237325
8.78323e+06
3235.3
251132
8.66261e+06
4353.55
267059
8.54584e+06
4975.05
280483
8.42734e+06
5676.37
280690
8.30336e+06
6190.86
269737
8.162e+06
7622.14
262136
8.0099e+06
11351.9
253650
7.85682e+06
14266.5
248077
7.70186e+06
17481.5
266944
7.5585e+06
20477.6
308217
7.44204e+06
16499.3
330876
7.34474e+06
4694.81
310770
7.25531e+06
-10110.5
257289
7.17027e+06
-23311.5
242178
7.08619e+06
-30959.4
249759
7.00363e+06
-31085.4
235139
6.91406e+06
-26411.5
210885
6.83838e+06
-20809
158043
6.77795e+06
-21495.2
118212
6.72506e+06
-27575.3
101114
6.68737e+06
-30467.4
79920.8
6.66826e+06
-31854.9
48251.7
6.66583e+06
-33537.8
16394.2
6.67686e+06
-34203.2
-10627.7
6.69845e+06
-36606.7
-31293.5
6.7248e+06
-38889.4
-45683.4
6.74756e+06
-42064.1
-49461.4
6.78302e+06
-53546.9
-65709.8
6.82647e+06
-37332.3
-99831.1
6.88102e+06
-22776.2
-113421
6.93983e+06
-15145.7
-120674
-12211.1
-123878
1.00059e+07
5169.97
1.00116e+07
14054.3
1.00174e+07
22873
1.00229e+07
31675.1
1.00279e+07
40672.2
1.00324e+07
49995
1.00363e+07
59715.6
1.00396e+07
69685.2
1.00415e+07
80557.8
1.0042e+07
91606.1
1.00404e+07
103193
1.00358e+07
114961
1.00265e+07
126754
1.00092e+07
137834
9.97715e+06
148497
9.9118e+06
158730
9.78483e+06
175667
9.59201e+06
189601
9.3792e+06
205084
9.19875e+06
215874
9.04473e+06
222204
8.91038e+06
229417
8.78867e+06
239831
8.67046e+06
255418
8.55809e+06
268573
8.44428e+06
269154
8.3232e+06
266374
8.19244e+06
267490
8.05905e+06
260808
7.92349e+06
245132
7.76772e+06
254554
7.5974e+06
291593
7.45106e+06
309798
7.35322e+06
289689
7.28138e+06
244036
7.22031e+06
207024
7.16392e+06
190604
7.10556e+06
170126
7.04917e+06
145088
7.01307e+06
100443
6.9828e+06
70076.3
6.95152e+06
51204.4
6.9304e+06
28713.6
6.9202e+06
-1560.77
6.92027e+06
-32408.2
6.92789e+06
-59412.4
6.94132e+06
-79066.7
6.95297e+06
-89887.6
6.959e+06
-99359.8
6.94154e+06
-109955
6.93634e+06
-131467
6.96945e+06
-146918
7.01837e+06
-147674
-156029
9.99933e+06
10.0852
6486.37
9.99425e+06
26.0151
19319.2
9.98523e+06
31.5999
32078
9.97229e+06
32.507
44803.3
9.95547e+06
33.7796
57688.1
9.93482e+06
35.0523
70850
9.91056e+06
36.1392
84178.8
9.88214e+06
38.0064
98329.7
9.85038e+06
41.06
112550
9.81458e+06
45.587
127659
9.77518e+06
48.4694
142857
9.73184e+06
61.7971
158534
9.68404e+06
88.8003
174899
9.62996e+06
226.392
191946
9.57153e+06
285.988
209675
9.50075e+06
789.871
231472
9.41945e+06
614.645
252448
9.3365e+06
1102.81
271695
9.24466e+06
509.6
298032
9.14153e+06
536.024
321273
9.03002e+06
940.621
337893
8.91742e+06
1610.73
348402
8.8057e+06
2568.06
360375
8.69301e+06
4123.3
375727
8.57683e+06
4856.41
391910
8.45338e+06
6189.04
398086
8.31499e+06
8691.98
399606
8.15358e+06
11824.6
411903
7.97471e+06
14173.6
418521
7.78376e+06
13048.7
426120
7.57918e+06
11153.2
460473
7.38317e+06
13150.7
491127
7.20394e+06
20133.2
490017
7.04178e+06
26873.4
446076
6.92261e+06
20279
356267
6.82099e+06
-1403.9
345326
6.71785e+06
-15520.9
368781
6.61306e+06
-16322.9
356801
6.52193e+06
-9642.1
311969
6.47748e+06
-2415.26
205142
6.45173e+06
-9649.84
153620
6.42307e+06
-19654.2
149348
6.40317e+06
-23580.5
123137
6.40026e+06
-23994.1
74866.2
6.40977e+06
-24159.7
30716.3
6.42938e+06
-24044.4
-6558.29
6.46193e+06
-24957.4
-39152.9
6.50905e+06
-25468.4
-67599.5
6.5782e+06
-27221.1
-91502.6
6.66252e+06
-23758
-126294
6.72048e+06
-13172.3
-144637
6.76382e+06
-7973.38
-148830
6.8055e+06
-6759.71
-155675
-7763.35
-170829
9.99934e+06
6486.1
9.99425e+06
19318.1
9.98523e+06
32077
9.97229e+06
44802.1
9.95546e+06
57686.5
9.93481e+06
70847.9
9.91055e+06
84176.4
9.88213e+06
98326.4
9.85037e+06
112546
9.81456e+06
127654
9.77517e+06
142851
9.73189e+06
158526
9.68411e+06
174874
9.63056e+06
191891
9.57001e+06
209646
9.49909e+06
230755
9.42156e+06
254026
9.33715e+06
275175
9.24521e+06
297575
9.14372e+06
317935
9.03394e+06
332977
8.92317e+06
341868
8.81307e+06
352580
8.69942e+06
373275
8.58245e+06
390491
8.45916e+06
398755
8.32348e+06
410900
8.17281e+06
430154
8.00662e+06
441338
7.81774e+06
447226
7.60928e+06
474248
7.41124e+06
502836
7.24003e+06
501169
7.10412e+06
452512
7.00499e+06
363495
6.90522e+06
305614
6.81027e+06
270460
6.71945e+06
245228
6.63686e+06
218766
6.59036e+06
144926
6.55776e+06
93073.4
6.51989e+06
69274.9
6.49674e+06
27961.4
6.48927e+06
-18370.6
6.49364e+06
-61173.1
6.50821e+06
-98240.6
6.53496e+06
-130926
6.57585e+06
-156329
6.62938e+06
-180120
6.69921e+06
-203573
6.75173e+06
-197172
6.78907e+06
-192270
6.83144e+06
-196870
-219099
9.99895e+06
9.70514
8265.25
9.99385e+06
24.9399
24600.9
9.98501e+06
30.7074
41095.1
9.97232e+06
31.4196
57675.2
9.95565e+06
32.2555
74544.7
9.93506e+06
33.467
91631.8
9.9098e+06
34.4465
109639
9.8803e+06
36.4196
128041
9.84615e+06
39.9707
146922
9.80731e+06
44.5998
166732
9.76327e+06
48.8121
187139
9.71346e+06
58.0061
208611
9.65756e+06
66.3934
231087
9.59523e+06
125.564
254548
9.52501e+06
154.385
280179
9.44765e+06
612.638
308662
9.35911e+06
310.114
341000
9.26477e+06
258.894
365919
9.17794e+06
426.667
384495
9.09328e+06
848.587
405153
9.00301e+06
1210.66
427043
8.90538e+06
1272.48
444871
8.79594e+06
1197.39
468753
8.67547e+06
1553
494777
8.54453e+06
1168.82
521811
8.39891e+06
1118.93
542751
8.23144e+06
2837.16
564416
8.03531e+06
4411.98
603791
7.8054e+06
3285.64
645323
7.55086e+06
2847.1
677964
7.30485e+06
3408.59
703157
7.08892e+06
5531.1
701569
6.90766e+06
10514.1
660780
6.7894e+06
18039.9
546301
6.75085e+06
16871.1
377939
6.69584e+06
-11890.9
412309
6.59317e+06
-28076.3
499865
6.46932e+06
-27861
509357
6.3423e+06
-23010.2
462559
6.27927e+06
-4110.91
272541
6.24669e+06
-5930.97
192151
6.22021e+06
-13949
189657
6.20199e+06
-14488.8
155444
6.20334e+06
-12528.7
85661.8
6.21851e+06
-11015.5
26244
6.24587e+06
-10019.2
-24217.8
6.28388e+06
-9723.59
-67772.1
6.33571e+06
-9126.51
-110480
6.40481e+06
-8621.73
-152058
6.48564e+06
-16704.4
-190485
6.5709e+06
-19111.2
-210838
6.64923e+06
-17150.3
-210097
6.72344e+06
-14058.1
-215901
-11147.8
-229076
9.99896e+06
8265.34
9.99385e+06
24600.9
9.98501e+06
41093.6
9.97232e+06
57673.1
9.95564e+06
74542.5
9.93505e+06
91629.3
9.90979e+06
109636
9.88029e+06
128038
9.84614e+06
146919
9.8073e+06
166729
9.76327e+06
187136
9.71347e+06
208604
9.65758e+06
231082
9.59538e+06
254498
9.52538e+06
280103
9.44873e+06
308320
9.36225e+06
341040
9.26681e+06
370992
9.1796e+06
385268
9.09539e+06
403048
9.00537e+06
424294
8.90612e+06
442501
8.79425e+06
465749
8.67342e+06
495750
8.54304e+06
522130
8.39459e+06
548439
8.2229e+06
585543
8.02617e+06
631410
7.80146e+06
669455
7.55564e+06
695980
7.32236e+06
710994
7.11885e+06
711907
6.94183e+06
688714
6.809e+06
603395
6.74772e+06
441731
6.67615e+06
365585
6.59022e+06
328943
6.48788e+06
320563
6.39041e+06
293972
6.3334e+06
198226
6.29139e+06
129140
6.25359e+06
92963.8
6.22858e+06
38170.7
6.22492e+06
-27463.6
6.23701e+06
-84465.1
6.26319e+06
-134626
6.30187e+06
-179455
6.35728e+06
-220973
6.42237e+06
-253941
6.50342e+06
-301394
6.58444e+06
-297348
6.658e+06
-283066
6.73561e+06
-288605
-309848
9.99896e+06
9.66183
10027.7
9.99394e+06
25.0933
29798.1
9.98529e+06
30.3663
49919.6
9.97287e+06
30.762
70262.1
9.95659e+06
31.4094
91002.2
9.93633e+06
32.5232
112079
9.91195e+06
33.3759
134208
9.8835e+06
35.0226
156699
9.85038e+06
38.1966
180252
9.81256e+06
42.0404
204773
9.76978e+06
46.2263
230160
9.72172e+06
50.3214
256937
9.66838e+06
61.8858
284711
9.60888e+06
71.9359
314369
9.54306e+06
157.191
346280
9.47097e+06
172.657
381047
9.39073e+06
899.381
420837
9.29287e+06
1042.29
463127
9.18962e+06
964.989
486938
9.09049e+06
1161.3
503275
8.99394e+06
1943.46
521806
8.89058e+06
1601.75
546828
8.77174e+06
383.147
587386
8.63423e+06
-394.657
632819
8.47923e+06
-2671.3
679606
8.29751e+06
-3728.79
728350
8.08819e+06
-1531.62
775400
7.85566e+06
370.678
836064
7.60435e+06
-1118.05
897870
7.35154e+06
-2017.87
932889
7.12254e+06
-443.969
932677
6.92318e+06
3414.86
897584
6.76357e+06
8392.13
812063
6.67281e+06
17827.6
619271
6.69219e+06
38780.4
319830
6.60367e+06
-36348.8
537277
6.48323e+06
-108619
729244
6.34093e+06
-117624
769911
6.19259e+06
-112849
724170
6.11528e+06
-69128.2
419162
6.0806e+06
-32372.2
259214
6.05201e+06
-29805.1
247980
6.05414e+06
-22641.5
175757
6.06244e+06
-21247.7
98413.8
6.08371e+06
-21856.6
26598.3
6.1185e+06
-21392.5
-37952.6
6.16675e+06
-21933.9
-94440.5
6.22601e+06
-23424.4
-146749
6.28198e+06
-21147.6
-187148
6.33785e+06
-27626
-219022
6.40546e+06
-30785.9
-247939
6.48854e+06
-33072.1
-260264
6.57165e+06
-30623.8
-268510
-23678.3
-272680
9.99897e+06
10027
9.99394e+06
29796.1
9.98528e+06
49917.9
9.97287e+06
70260.4
9.95659e+06
91000.3
9.93632e+06
112077
9.91194e+06
134205
9.88348e+06
156696
9.85036e+06
180249
9.81255e+06
204770
9.76978e+06
230157
9.72172e+06
256933
9.6684e+06
284706
9.6089e+06
314351
9.54322e+06
346248
9.47104e+06
381006
9.39265e+06
420667
9.30129e+06
463681
9.19859e+06
489134
9.09688e+06
506115
8.99671e+06
526588
8.88564e+06
555338
8.76069e+06
591203
8.62366e+06
632470
8.46596e+06
677253
8.27973e+06
731024
8.07614e+06
787683
7.85423e+06
853768
7.6146e+06
908037
7.37112e+06
937522
7.14723e+06
934517
6.95538e+06
907232
6.80972e+06
842831
6.73528e+06
695706
6.73407e+06
481962
6.69302e+06
370640
6.58243e+06
331192
6.44648e+06
339129
6.31461e+06
313238
6.235e+06
208785
6.18684e+06
144911
6.15035e+06
99582.5
6.14002e+06
25783.8
6.15058e+06
-59370.1
6.17752e+06
-133408
6.21879e+06
-197508
6.27012e+06
-253000
6.32536e+06
-299974
6.38312e+06
-333144
6.42892e+06
-375079
6.47673e+06
-376054
6.53634e+06
-375839
6.60144e+06
-384354
-392475
9.99899e+06
8.98936
11738.3
9.99407e+06
23.2168
34883
9.98565e+06
28.4867
58502.3
9.97364e+06
29.0411
82445.9
9.95802e+06
29.7569
106796
9.93837e+06
30.8453
131906
9.91485e+06
31.6194
157912
9.88719e+06
33.129
184553
9.85519e+06
36.1056
212454
9.81883e+06
39.8408
241348
9.7775e+06
43.757
271726
9.73134e+06
47.9111
303353
9.67997e+06
56.2479
336377
9.62326e+06
64.7227
371426
9.56144e+06
107.339
408447
9.49469e+06
173.276
448169
9.42506e+06
603.421
490477
9.34868e+06
1395.4
538782
9.25581e+06
2081.37
578254
9.14725e+06
1723.71
610623
9.02828e+06
2063.48
639163
8.9001e+06
452.197
674968
8.77098e+06
-1415.03
718092
8.62862e+06
-2748.81
778074
8.45591e+06
-5898.6
858355
8.24122e+06
-5926.83
949149
7.9932e+06
-2415.66
1.026e+06
7.7405e+06
1707.42
1.08721e+06
7.49167e+06
1709.8
1.14513e+06
7.25099e+06
803.964
1.17292e+06
7.0264e+06
2091.12
1.15533e+06
6.82018e+06
7354.68
1.0966e+06
6.62368e+06
16852.1
991851
6.42172e+06
62057.5
759264
6.12439e+06
267360
349997
5.75944e+06
165835
736411
5.52924e+06
22097
937009
5.51548e+06
-64200.6
847304
5.58982e+06
-143411
793004
5.65e+06
-187598
546515
5.68009e+06
-110605
339758
5.72536e+06
-84860.3
287677
5.75479e+06
-54178
200584
5.79228e+06
-54585.5
115442
5.8386e+06
-56777.5
36801.2
5.88944e+06
-55559.4
-33728.7
5.94294e+06
-51950.1
-96729.6
5.9999e+06
-49880.9
-154653
6.0557e+06
-43428.4
-200267
6.10394e+06
-30356.4
-237559
6.14654e+06
-21630.1
-269240
6.19392e+06
-14274.9
-293581
6.2358e+06
-5074.91
-305339
12667.6
-324674
9.999e+06
11738.5
9.99407e+06
34883
9.98565e+06
58500.2
9.97363e+06
82443
9.95801e+06
106793
9.93836e+06
131903
9.91484e+06
157909
9.88717e+06
184550
9.85518e+06
212450
9.81882e+06
241345
9.77749e+06
271723
9.73134e+06
303350
9.67998e+06
336372
9.62326e+06
371419
9.5615e+06
408444
9.49499e+06
448067
9.42625e+06
490460
9.35555e+06
536284
9.26894e+06
578362
9.16164e+06
615624
9.04004e+06
650634
8.90822e+06
687923
8.76862e+06
729634
8.61475e+06
783684
8.43408e+06
852140
8.22008e+06
939198
7.99186e+06
1.01359e+06
7.75601e+06
1.09143e+06
7.51321e+06
1.15265e+06
7.27503e+06
1.17663e+06
7.05781e+06
1.15394e+06
6.87054e+06
1.10197e+06
6.71434e+06
1.01596e+06
6.61126e+06
861081
6.76933e+06
591853
6.868e+06
437787
6.78367e+06
437265
6.66268e+06
395630
6.53229e+06
300034
6.32004e+06
233354
6.16105e+06
193317
6.09978e+06
76035.9
6.10316e+06
-31767.2
6.10195e+06
-112852
6.09364e+06
-182132
6.08403e+06
-243889
6.07534e+06
-296823
6.06529e+06
-340429
6.06088e+06
-372762
6.05825e+06
-403219
6.07239e+06
-412090
6.09209e+06
-409958
6.1063e+06
-403708
-398766
9.99903e+06
8.89046
13385.2
9.9943e+06
23.5019
39769.5
9.98624e+06
28.2603
66722.1
9.97475e+06
28.5491
94093.8
9.95982e+06
29.0768
121892
9.94101e+06
30.0209
150885
9.91846e+06
30.7037
180633
9.8919e+06
32.1106
211301
9.86132e+06
34.9306
243228
9.82592e+06
38.4919
276950
9.78628e+06
42.1104
311594
9.74182e+06
46.5114
348063
9.69231e+06
52.8231
386172
9.63804e+06
64.6762
426037
9.5791e+06
84.5239
467766
9.51613e+06
157.853
511526
9.44977e+06
278.145
557207
9.38309e+06
766.284
605474
9.30927e+06
683.766
652277
9.22237e+06
-146.296
698660
9.11612e+06
-131.759
746565
8.9841e+06
-586.347
808459
8.83733e+06
-1881.92
867250
8.685e+06
-5472.54
936078
8.50728e+06
-9399.81
1.04564e+06
8.28361e+06
-10125.3
1.18313e+06
8.01739e+06
-1646.7
1.2941e+06
7.73694e+06
5845.26
1.36204e+06
7.46606e+06
5055.61
1.41116e+06
7.20975e+06
2741.78
1.42666e+06
6.97659e+06
5315.71
1.38333e+06
6.75506e+06
11216.5
1.30705e+06
6.4712e+06
28965.6
1.24683e+06
5.76895e+06
169428
1.29218e+06
4.97039e+06
231475
917477
4.95201e+06
8569.85
746217
4.92789e+06
37170.2
923595
4.76812e+06
105243
901177
4.77778e+06
55645.2
727107
4.84476e+06
-36820.5
515978
4.96555e+06
-48103.4
266894
5.05806e+06
13695.5
181285
5.10763e+06
44094
106572
5.15446e+06
49453
18540.6
5.19708e+06
57209.4
-63959.8
5.22811e+06
70837.8
-136846
5.24729e+06
86178.2
-203554
5.25651e+06
100782
-266141
5.26479e+06
114296
-324269
5.27756e+06
126735
-378150
5.29939e+06
133494
-425421
5.33867e+06
136426
-469796
5.38805e+06
140817
-495876
135123
-549861
9.99904e+06
13384.3
9.9943e+06
39766.7
9.98624e+06
66719.5
9.97475e+06
94091.2
9.95981e+06
121889
9.941e+06
150882
9.91845e+06
180630
9.89189e+06
211297
9.86131e+06
243224
9.82591e+06
276946
9.78627e+06
311590
9.74182e+06
348059
9.69232e+06
386168
9.63806e+06
426030
9.57915e+06
467764
9.51631e+06
511459
9.45037e+06
557148
9.38348e+06
604502
9.31097e+06
652201
9.22663e+06
700515
9.12585e+06
752006
9.00226e+06
811627
8.84736e+06
883159
8.67846e+06
947287
8.48349e+06
1.03785e+06
8.25267e+06
1.16003e+06
8.00468e+06
1.26009e+06
7.75237e+06
1.34971e+06
7.49501e+06
1.4152e+06
7.24308e+06
1.43143e+06
7.0148e+06
1.38766e+06
6.81745e+06
1.3106e+06
6.62947e+06
1.23296e+06
6.46427e+06
1.19612e+06
5.93994e+06
1.34777e+06
5.20283e+06
1.18331e+06
4.83319e+06
843621
4.7547e+06
578832
4.69758e+06
412319
4.63338e+06
260351
4.61786e+06
160412
4.61916e+06
88077
4.63494e+06
-3940.03
4.66218e+06
-91337.5
4.69993e+06
-163602
4.74733e+06
-221584
4.80318e+06
-267734
4.8663e+06
-303999
4.93868e+06
-331901
5.01527e+06
-353939
5.10451e+06
-368472
5.20693e+06
-376412
5.32134e+06
-377571
-377850
9.99908e+06
7.9204
14937.4
9.99461e+06
20.8481
44386.2
9.98699e+06
25.51
74490.3
9.97613e+06
25.944
105102
9.96191e+06
26.5271
136265
9.94419e+06
27.4363
168762
9.92301e+06
28.0557
201985
9.89766e+06
29.3326
236816
9.86825e+06
31.9767
272827
9.83483e+06
35.2744
310553
9.7967e+06
38.7766
349933
9.75397e+06
42.9759
391034
9.70652e+06
49.4993
433906
9.65425e+06
60.4574
478646
9.59751e+06
76.475
524906
9.5366e+06
113.321
572869
9.47237e+06
148.516
621957
9.406e+06
240.909
672375
9.33577e+06
-50.4817
723476
9.25992e+06
-593.2
776113
9.17499e+06
-979.463
833538
9.07955e+06
-321.591
905313
8.9562e+06
524.273
991028
8.80329e+06
-3856.82
1.09335e+06
8.6318e+06
-10392.4
1.22772e+06
8.43806e+06
-12669.1
1.38974e+06
8.20336e+06
-2717.94
1.53185e+06
7.90065e+06
9587.04
1.65576e+06
7.5629e+06
12539.3
1.73691e+06
7.24481e+06
3871.12
1.74131e+06
6.98943e+06
3512.04
1.63541e+06
6.77987e+06
6946.73
1.50975e+06
6.58909e+06
5044.46
1.43259e+06
6.4019e+06
49446.7
1.43e+06
5.38571e+06
199569
1.73398e+06
4.42237e+06
262745
1.44662e+06
3.97319e+06
231235
1.14094e+06
3.84401e+06
195150
834308
3.76556e+06
181999
622506
3.6914e+06
162452
426556
3.61345e+06
137244
206390
3.61844e+06
137183
37737.2
3.65664e+06
144537
-77829.7
3.70985e+06
148495
-185199
3.7853e+06
149824
-291634
3.88739e+06
148847
-390405
4.01676e+06
144379
-479977
4.17203e+06
136474
-560386
4.35124e+06
125781
-631411
4.55072e+06
113347
-692761
4.76817e+06
99571.4
-743789
4.99772e+06
85531.4
-785880
5.24526e+06
71153.9
-815134
51367.7
-843133
9.99909e+06
14937.6
9.99461e+06
44386.3
9.98699e+06
74487.6
9.97613e+06
105099
9.96191e+06
136261
9.94419e+06
168758
9.923e+06
201980
9.89765e+06
236812
9.86823e+06
272823
9.83482e+06
310550
9.7967e+06
349928
9.75397e+06
391029
9.70652e+06
433901
9.65426e+06
478640
9.59754e+06
524898
9.53667e+06
572839
9.47252e+06
621915
9.40561e+06
672202
9.33496e+06
723425
9.25921e+06
776368
9.17602e+06
834945
9.08371e+06
904366
8.96837e+06
999702
8.81363e+06
1.09858e+06
8.62003e+06
1.22138e+06
8.398e+06
1.3696e+06
8.13488e+06
1.52094e+06
7.86222e+06
1.63226e+06
7.5897e+06
1.70048e+06
7.3047e+06
1.72054e+06
7.03069e+06
1.6654e+06
6.80418e+06
1.54417e+06
6.59659e+06
1.44567e+06
6.3865e+06
1.45568e+06
6.33407e+06
1.59964e+06
6.12137e+06
1.65851e+06
5.73423e+06
1.46162e+06
5.36626e+06
1.14147e+06
5.09127e+06
868753
4.87503e+06
638451
4.73008e+06
441946
4.67158e+06
282979
4.66371e+06
147478
4.68788e+06
31764.1
4.73942e+06
-66728
4.81511e+06
-149966
4.91083e+06
-220615
5.02287e+06
-281011
5.14827e+06
-332762
5.28447e+06
-377817
5.42989e+06
-415130
5.58497e+06
-446548
5.74354e+06
-465291
-481564
9.99914e+06
7.78213
16385.6
9.99499e+06
21.2082
48685.2
9.9879e+06
25.3094
81719.8
9.97778e+06
25.515
115353
9.96453e+06
25.9369
149663
9.94798e+06
26.7038
185459
9.92795e+06
27.2267
222168
9.90433e+06
28.4328
260589
9.87661e+06
30.9737
300725
9.84479e+06
34.2007
342546
9.80876e+06
37.6062
386159
9.76788e+06
41.7363
432133
9.72219e+06
48.2251
479869
9.6719e+06
58.0737
529256
9.61681e+06
71.0315
580385
9.55755e+06
89.017
632588
9.49442e+06
104.684
685605
9.4286e+06
119.598
738793
9.36089e+06
61.395
791954
9.29152e+06
-38.6125
846456
9.22078e+06
-147.555
905423
9.14939e+06
314.793
977474
9.06847e+06
1318.54
1.07172e+06
8.95359e+06
7245.57
1.2019e+06
8.80255e+06
3746.65
1.37547e+06
8.64338e+06
-3928.3
1.55308e+06
8.46304e+06
-6253.15
1.71936e+06
8.22425e+06
-2030.26
1.89804e+06
7.91398e+06
11676.3
2.03691e+06
7.53185e+06
20049.5
2.10453e+06
7.11575e+06
16387.4
2.03582e+06
6.74237e+06
2547.12
1.88092e+06
6.45421e+06
-3618.73
1.72444e+06
6.23912e+06
-467.729
1.64553e+06
6.12391e+06
72851.5
1.77633e+06
5.71133e+06
86771.3
1.77236e+06
5.20355e+06
62486.7
1.58614e+06
4.73946e+06
55302.5
1.24282e+06
4.39697e+06
59875.2
904587
4.1764e+06
57426.6
588912
4.04721e+06
43080.3
291415
4.01609e+06
30861
36639.5
4.07707e+06
24962.4
-165385
4.20459e+06
18246.2
-332796
4.37951e+06
8218.75
-476775
4.58768e+06
-3489.29
-597180
4.81527e+06
-15311
-694289
5.05147e+06
-27055.7
-771384
5.28846e+06
-38378.9
-831639
5.52068e+06
-48823.7
-877535
5.74369e+06
-58066.1
-909875
5.95655e+06
-67578.7
-932025
6.15973e+06
-76342.6
-942479
-90341.6
-939917
9.99915e+06
16384.4
9.99499e+06
48681.7
9.98789e+06
81716.4
9.97778e+06
115350
9.96452e+06
149659
9.94797e+06
185455
9.92794e+06
222164
9.90432e+06
260584
9.87659e+06
300721
9.84478e+06
342541
9.80876e+06
386154
9.76789e+06
432128
9.72219e+06
479862
9.67191e+06
529249
9.61683e+06
580377
9.55756e+06
632575
9.49444e+06
685586
9.42852e+06
738747
9.36067e+06
791919
9.29118e+06
846460
9.22091e+06
905769
9.14979e+06
976556
9.07926e+06
1.0723e+06
8.98842e+06
1.1974e+06
8.84674e+06
1.36741e+06
8.66227e+06
1.55073e+06
8.41851e+06
1.75937e+06
8.12408e+06
1.92541e+06
7.82179e+06
2.01508e+06
7.51285e+06
2.05017e+06
7.16793e+06
2.02725e+06
6.79534e+06
1.9196e+06
6.43416e+06
1.80336e+06
6.13874e+06
1.75073e+06
6.0496e+06
1.76165e+06
6.0331e+06
1.76179e+06
5.93848e+06
1.61868e+06
5.77353e+06
1.36155e+06
5.61244e+06
1.08939e+06
5.48079e+06
827008
5.38903e+06
576089
5.3487e+06
353308
5.35518e+06
164931
5.39842e+06
5604.41
5.4687e+06
-130055
5.55939e+06
-245450
5.66506e+06
-342861
5.78036e+06
-424522
5.90002e+06
-491819
6.02047e+06
-547985
6.13675e+06
-590221
6.25341e+06
-631355
6.35244e+06
-640984
-690293
9.99922e+06
6.57822
17701.3
9.99543e+06
17.8625
52603.4
9.98895e+06
21.76
88319.5
9.97971e+06
22.0637
124724
9.96756e+06
22.481
161934
9.95236e+06
23.1546
200799
9.9339e+06
23.5603
240766
9.91195e+06
24.6243
282680
9.88625e+06
26.9328
326583
9.8565e+06
29.9447
372459
9.82239e+06
32.9302
420443
9.78372e+06
36.7967
471004
9.74013e+06
42.5785
523705
9.69132e+06
51.8678
578365
9.63757e+06
63.5694
634504
9.57898e+06
77.5943
691619
9.51643e+06
90.3454
748646
9.45107e+06
102.452
804716
9.38512e+06
111.053
858546
9.32184e+06
60.168
910510
9.26576e+06
70.1163
962413
9.21986e+06
-276.987
1.02468e+06
9.18227e+06
269.452
1.10996e+06
9.1349e+06
7881.14
1.24239e+06
9.03691e+06
15841.2
1.45847e+06
8.88216e+06
10821.2
1.6977e+06
8.67136e+06
-663.172
1.93221e+06
8.43399e+06
-4552.81
2.14146e+06
8.17447e+06
1687.4
2.29614e+06
7.87392e+06
9038.37
2.3973e+06
7.48103e+06
6322.5
2.42342e+06
6.99479e+06
-139.599
2.36804e+06
6.5112e+06
19.0938
2.20849e+06
6.09759e+06
-7305.56
2.06684e+06
5.8978e+06
4970.56
1.97146e+06
5.75949e+06
9948.64
1.90111e+06
5.59402e+06
18539.2
1.73338e+06
5.37568e+06
18614.4
1.4426e+06
5.17552e+06
8615.04
1.0958e+06
5.03919e+06
-11507.7
735983
4.97812e+06
-37310.9
388646
4.99124e+06
-60749.7
82869.8
5.06768e+06
-77577.7
-165730
5.18727e+06
-91126.7
-362783
5.33213e+06
-102125
-521078
5.48927e+06
-109828
-646075
5.64874e+06
-114372
-740925
5.80369e+06
-117271
-810487
5.95018e+06
-119781
-859666
6.08777e+06
-123366
-892938
6.21386e+06
-126760
-910245
6.33737e+06
-136096
-920275
6.44082e+06
-135874
-910572
-164133
-911536
9.99923e+06
17701.5
9.99543e+06
52603.5
9.98895e+06
88316.4
9.9797e+06
124719
9.96756e+06
161930
9.95235e+06
200795
9.93389e+06
240761
9.91194e+06
282675
9.88624e+06
326578
9.85649e+06
372454
9.82238e+06
420439
9.78372e+06
470999
9.74013e+06
523699
9.69133e+06
578358
9.63758e+06
634496
9.57899e+06
691609
9.51645e+06
748634
9.45107e+06
804689
9.38508e+06
858540
9.32174e+06
910457
9.26528e+06
962963
9.21858e+06
1.02369e+06
9.18352e+06
1.10839e+06
9.15167e+06
1.23782e+06
9.08977e+06
1.44587e+06
8.94631e+06
1.70583e+06
8.73314e+06
1.97286e+06
8.4689e+06
2.18607e+06
8.16514e+06
2.32143e+06
7.8313e+06
2.39382e+06
7.45296e+06
2.41254e+06
7.00686e+06
2.36601e+06
6.53428e+06
2.27628e+06
6.10302e+06
2.17492e+06
5.80171e+06
2.06814e+06
5.64245e+06
1.93121e+06
5.55922e+06
1.72058e+06
5.49905e+06
1.44026e+06
5.4647e+06
1.13204e+06
5.45944e+06
820196
5.47723e+06
520233
5.51695e+06
251965
5.57703e+06
26323.4
5.6513e+06
-160783
5.73477e+06
-316662
5.82208e+06
-443608
5.90756e+06
-543697
5.98622e+06
-621383
6.05576e+06
-681991
6.11818e+06
-734556
6.17834e+06
-777814
6.25457e+06
-844185
6.33244e+06
-854985
-1.04951e+06
9.99931e+06
6.42958
18877.9
9.99593e+06
18.3231
56096.4
9.99016e+06
21.627
94201.2
9.98191e+06
21.7401
133092
9.97104e+06
22.0422
172920
9.95738e+06
22.6145
214575
9.94053e+06
22.9721
257750
9.9206e+06
24
302741
9.89732e+06
26.2719
350002
9.86993e+06
29.1721
399999
9.83804e+06
32.0635
452488
9.80165e+06
35.643
507582
9.76004e+06
41.0819
565539
9.71312e+06
49.9367
625565
9.66022e+06
61.4238
687751
9.60171e+06
73.9002
750540
9.538e+06
85.4954
812817
9.47091e+06
92.8081
872319
9.4036e+06
101.771
926395
9.34234e+06
91.0757
972442
9.2962e+06
144.658
1.00928e+06
9.27645e+06
420.573
1.04482e+06
9.28665e+06
989.793
1.09942e+06
9.32737e+06
2583.48
1.2e+06
9.31023e+06
9284.91
1.46704e+06
9.15858e+06
9319.69
1.84118e+06
8.90704e+06
1178.24
2.18375e+06
8.62066e+06
-2925.68
2.43199e+06
8.32374e+06
-1756.69
2.5959e+06
8.0135e+06
656.893
2.70776e+06
7.66201e+06
-1011.76
2.77666e+06
7.24539e+06
-5485.22
2.79079e+06
6.74999e+06
-15353.7
2.71978e+06
6.24324e+06
-20205.9
2.59426e+06
5.81527e+06
-17983.2
2.41785e+06
5.52974e+06
-9493.56
2.19655e+06
5.35191e+06
47.6369
1.9115e+06
5.23061e+06
2456.59
1.56156e+06
5.15951e+06
-3728.51
1.17041e+06
5.14563e+06
-17836.8
767134
5.18273e+06
-35528.3
386242
5.25718e+06
-52015.9
59485.7
5.35561e+06
-64514.9
-200619
5.46805e+06
-73355.3
-402845
5.58619e+06
-79279.5
-560950
5.70291e+06
-83831.7
-680014
5.81337e+06
-88737.9
-763718
5.9162e+06
-96073.5
-818295
6.0129e+06
-106782
-850577
6.10927e+06
-121941
-868280
6.2079e+06
-136027
-873630
6.32756e+06
-158163
-882362
6.4323e+06
-147678
-867942
-195135
-904070
9.99931e+06
18876.6
9.99593e+06
56092.3
9.99016e+06
94197.2
9.98191e+06
133088
9.97103e+06
172916
9.95738e+06
214570
9.94052e+06
257745
9.92059e+06
302736
9.89731e+06
349996
9.86992e+06
399994
9.83804e+06
452482
9.80165e+06
507575
9.76004e+06
565531
9.71313e+06
625555
9.66023e+06
687740
9.60172e+06
750528
9.53801e+06
812805
9.4709e+06
872298
9.4036e+06
926399
9.34231e+06
972368
9.29619e+06
1.00986e+06
9.27747e+06
1.04354e+06
9.29377e+06
1.09365e+06
9.33568e+06
1.19904e+06
9.32532e+06
1.46611e+06
9.18546e+06
1.85568e+06
8.95427e+06
2.20602e+06
8.68199e+06
2.45619e+06
8.3818e+06
2.62053e+06
8.04747e+06
2.72935e+06
7.66927e+06
2.79018e+06
7.23388e+06
2.7963e+06
6.74955e+06
2.74558e+06
6.26056e+06
2.644e+06
5.82208e+06
2.48894e+06
5.47828e+06
2.26578e+06
5.23624e+06
1.96284e+06
5.08632e+06
1.59267e+06
5.02452e+06
1.18993e+06
5.04159e+06
784906
5.10999e+06
415789
5.20329e+06
106080
5.30622e+06
-141695
5.40966e+06
-338153
5.50566e+06
-492534
5.58838e+06
-610798
5.66002e+06
-704725
5.7328e+06
-790886
5.82813e+06
-884718
5.97041e+06
-999319
6.19104e+06
-1.13491e+06
6.50202e+06
-1.31361e+06
6.9412e+06
-1.44196e+06
-1.81447e+06
9.9994e+06
5.05337
19884.1
9.9965e+06
14.4392
59097
9.99153e+06
17.457
99268.2
9.9844e+06
17.6237
140320
9.97478e+06
17.8715
182647
9.96307e+06
18.292
226387
9.94846e+06
18.4796
272467
9.93087e+06
19.2818
320447
9.90975e+06
21.2885
371242
9.88511e+06
23.7759
424768
9.85625e+06
26.3133
481483
9.82245e+06
29.092
541545
9.78337e+06
33.9074
604808
9.73797e+06
41.4901
671211
9.68596e+06
52.3652
740060
9.6267e+06
64.3347
810172
9.56007e+06
74.3236
879873
9.48727e+06
82.4876
945563
9.41193e+06
77.7486
1.00223e+06
9.34273e+06
136.042
1.04218e+06
9.29627e+06
192.118
1.05636e+06
9.29485e+06
1371.87
1.04584e+06
9.3804e+06
3203.4
1.0114e+06
9.57769e+06
3926.7
999352
9.63981e+06
9488.27
1.39633e+06
9.46543e+06
8378.09
2.00773e+06
9.16135e+06
646.807
2.48818e+06
8.81274e+06
-2387.95
2.78386e+06
8.46302e+06
249.907
2.94613e+06
8.10678e+06
2403.18
3.06223e+06