/*--------------------------------*- C++ -*----------------------------------*\
| =========                 |                                                 |
| \\      /  F ield         | OpenFOAM: The Open Source CFD Toolbox           |
|  \\    /   O peration     | Version:  4.1                                   |
|   \\  /    A nd           | Web:      www.OpenFOAM.org                      |
|    \\/     M anipulation  |                                                 |
\*---------------------------------------------------------------------------*/
FoamFile
{
    version     2.0;
    format      ascii;
    class       volScalarField;
    location    "8";
    object      p;
}
// * * * * * * * * * * * * * * * * * * * * * * * * * * * * * * * * * * * * * //

dimensions      [0 2 -2 0 0 0 0];

internalField   nonuniform List<scalar> 
4432
(
-1.26141e+08
-1.27141e+08
-1.28189e+08
-1.18984e+08
-1.25025e+08
-1.26759e+08
-1.27791e+08
-1.27363e+08
-1.2541e+08
-1.22795e+08
-1.20121e+08
-1.17574e+08
-1.15177e+08
-1.12965e+08
-1.10965e+08
-1.09186e+08
-1.07603e+08
-1.06174e+08
-1.04875e+08
-1.0369e+08
-1.02596e+08
-1.01559e+08
-1.00563e+08
-9.95912e+07
-9.8621e+07
-9.76569e+07
-9.65924e+07
-9.51453e+07
-9.32831e+07
-9.12301e+07
-8.89979e+07
-8.65293e+07
-8.38696e+07
-8.10646e+07
-7.81583e+07
-7.51771e+07
-7.21253e+07
-6.89961e+07
-6.58248e+07
-6.26112e+07
-5.92586e+07
-5.56963e+07
-5.19118e+07
-4.80168e+07
-4.43374e+07
-4.09858e+07
-3.753e+07
-3.40935e+07
-3.12818e+07
-2.92032e+07
-2.772e+07
-2.66369e+07
-2.77039e+07
-2.73203e+07
-1.25692e+08
-1.26266e+08
-1.27092e+08
-1.26444e+08
-1.27718e+08
-1.28736e+08
-1.28482e+08
-1.26763e+08
-1.242e+08
-1.21394e+08
-1.18671e+08
-1.16133e+08
-1.13807e+08
-1.11701e+08
-1.09815e+08
-1.08149e+08
-1.06676e+08
-1.05356e+08
-1.04147e+08
-1.03037e+08
-1.02002e+08
-1.01018e+08
-1.00066e+08
-9.91316e+07
-9.81797e+07
-9.72281e+07
-9.61988e+07
-9.47843e+07
-9.29388e+07
-9.09253e+07
-8.87474e+07
-8.63365e+07
-8.37284e+07
-8.09452e+07
-7.80495e+07
-7.51156e+07
-7.21122e+07
-6.89926e+07
-6.57849e+07
-6.25847e+07
-5.92638e+07
-5.56763e+07
-5.19176e+07
-4.80925e+07
-4.42322e+07
-4.06477e+07
-3.75089e+07
-3.4281e+07
-3.11238e+07
-2.89808e+07
-2.76976e+07
-2.71134e+07
-2.75348e+07
-2.36616e+07
-1.21176e+08
-1.21935e+08
-1.19062e+08
-1.1904e+08
-1.19045e+08
-1.19658e+08
-1.19505e+08
-1.18586e+08
-1.17089e+08
-1.15363e+08
-1.13584e+08
-1.11814e+08
-1.10119e+08
-1.0856e+08
-1.07131e+08
-1.05842e+08
-1.04652e+08
-1.03551e+08
-1.02516e+08
-1.0155e+08
-1.00633e+08
-9.97562e+07
-9.88997e+07
-9.8064e+07
-9.72169e+07
-9.63088e+07
-9.52534e+07
-9.38609e+07
-9.20697e+07
-9.00147e+07
-8.77758e+07
-8.53704e+07
-8.2827e+07
-8.01734e+07
-7.74286e+07
-7.45949e+07
-7.16689e+07
-6.86726e+07
-6.56306e+07
-6.25884e+07
-5.94576e+07
-5.61046e+07
-5.25293e+07
-4.87617e+07
-4.4892e+07
-4.1109e+07
-3.74157e+07
-3.39811e+07
-3.10406e+07
-2.84855e+07
-2.6476e+07
-2.54334e+07
-2.64835e+07
-2.07162e+07
-1.22546e+08
-1.21226e+08
-1.17373e+08
-1.19038e+08
-1.19029e+08
-1.18693e+08
-1.18074e+08
-1.17149e+08
-1.15806e+08
-1.14227e+08
-1.12564e+08
-1.10894e+08
-1.09277e+08
-1.07755e+08
-1.0635e+08
-1.05067e+08
-1.03896e+08
-1.0281e+08
-1.018e+08
-1.00856e+08
-9.9973e+07
-9.91369e+07
-9.83313e+07
-9.75441e+07
-9.6743e+07
-9.58848e+07
-9.48886e+07
-9.35518e+07
-9.18165e+07
-8.98196e+07
-8.76345e+07
-8.52674e+07
-8.2751e+07
-8.01098e+07
-7.73746e+07
-7.45583e+07
-7.16526e+07
-6.86696e+07
-6.56285e+07
-6.25747e+07
-5.9433e+07
-5.60606e+07
-5.24737e+07
-4.87351e+07
-4.48609e+07
-4.09979e+07
-3.74483e+07
-3.42042e+07
-3.12381e+07
-2.86683e+07
-2.68695e+07
-2.54429e+07
-2.54361e+07
-1.8092e+07
-1.09495e+08
-1.05345e+08
-1.06443e+08
-1.19104e+08
-1.11049e+08
-1.10716e+08
-1.09973e+08
-1.09184e+08
-1.08612e+08
-1.07935e+08
-1.07075e+08
-1.06075e+08
-1.05032e+08
-1.03988e+08
-1.0298e+08
-1.02032e+08
-1.01138e+08
-1.00289e+08
-9.94812e+07
-9.87206e+07
-9.79993e+07
-9.73162e+07
-9.66524e+07
-9.60159e+07
-9.53529e+07
-9.45921e+07
-9.3621e+07
-9.22688e+07
-9.05109e+07
-8.85096e+07
-8.63907e+07
-8.41752e+07
-8.18439e+07
-7.93951e+07
-7.68402e+07
-7.41753e+07
-7.13867e+07
-6.8535e+07
-6.56654e+07
-6.28305e+07
-5.98395e+07
-5.65268e+07
-5.29731e+07
-4.92638e+07
-4.53888e+07
-4.14096e+07
-3.74981e+07
-3.36817e+07
-3.01526e+07
-2.7563e+07
-2.60787e+07
-2.61944e+07
-3.03896e+07
-3.06722e+07
-1.10672e+08
-1.07717e+08
-1.07454e+08
-1.08712e+08
-1.06883e+08
-1.07583e+08
-1.08516e+08
-1.08927e+08
-1.0883e+08
-1.08333e+08
-1.07562e+08
-1.06612e+08
-1.05575e+08
-1.04512e+08
-1.03467e+08
-1.02469e+08
-1.01523e+08
-1.00616e+08
-9.97547e+07
-9.89437e+07
-9.8182e+07
-9.7467e+07
-9.67824e+07
-9.61271e+07
-9.54568e+07
-9.46946e+07
-9.37309e+07
-9.23986e+07
-9.06678e+07
-8.86807e+07
-8.6554e+07
-8.43181e+07
-8.19699e+07
-7.95003e+07
-7.69265e+07
-7.42481e+07
-7.14637e+07
-6.86264e+07
-6.57562e+07
-6.28941e+07
-5.98799e+07
-5.65344e+07
-5.29558e+07
-4.92473e+07
-4.54148e+07
-4.14551e+07
-3.76325e+07
-3.40676e+07
-3.06469e+07
-2.77788e+07
-2.61105e+07
-2.59443e+07
-2.89203e+07
-2.71435e+07
-1.00344e+08
-9.74322e+07
-9.96924e+07
-1.03803e+08
-1.0281e+08
-1.02644e+08
-1.0246e+08
-1.02896e+08
-1.03342e+08
-1.03504e+08
-1.03342e+08
-1.02927e+08
-1.02341e+08
-1.01626e+08
-1.00843e+08
-1.00041e+08
-9.92584e+07
-9.84961e+07
-9.77695e+07
-9.70762e+07
-9.64257e+07
-9.58195e+07
-9.52605e+07
-9.47565e+07
-9.42385e+07
-9.36068e+07
-9.2661e+07
-9.12596e+07
-8.94896e+07
-8.75538e+07
-8.55646e+07
-8.35072e+07
-8.13446e+07
-7.90787e+07
-7.67127e+07
-7.42225e+07
-7.15444e+07
-6.8764e+07
-6.60063e+07
-6.35242e+07
-6.08417e+07
-5.7619e+07
-5.40492e+07
-5.03104e+07
-4.59967e+07
-4.12889e+07
-3.71836e+07
-3.3878e+07
-3.09512e+07
-2.85934e+07
-2.71153e+07
-2.77454e+07
-2.87165e+07
-1.77866e+07
-1.02054e+08
-1.00264e+08
-1.01666e+08
-1.03394e+08
-1.02926e+08
-1.03207e+08
-1.0376e+08
-1.04298e+08
-1.04606e+08
-1.0461e+08
-1.04327e+08
-1.03819e+08
-1.03154e+08
-1.02388e+08
-1.01572e+08
-1.0075e+08
-9.99409e+07
-9.91501e+07
-9.8388e+07
-9.76633e+07
-9.69783e+07
-9.63404e+07
-9.57385e+07
-9.51899e+07
-9.46308e+07
-9.39639e+07
-9.30115e+07
-9.16169e+07
-8.9835e+07
-8.78515e+07
-8.5796e+07
-8.36923e+07
-8.14992e+07
-7.91969e+07
-7.68e+07
-7.42779e+07
-7.15971e+07
-6.88507e+07
-6.61022e+07
-6.35843e+07
-6.09068e+07
-5.76561e+07
-5.40317e+07
-5.03317e+07
-4.62075e+07
-4.15698e+07
-3.71814e+07
-3.38792e+07
-3.10976e+07
-2.8792e+07
-2.73294e+07
-2.7553e+07
-2.79688e+07
-1.66646e+07
-9.66679e+07
-9.6089e+07
-9.6673e+07
-9.64864e+07
-9.73468e+07
-9.79199e+07
-9.89914e+07
-1.00151e+08
-1.01031e+08
-1.0153e+08
-1.01676e+08
-1.01539e+08
-1.01193e+08
-1.00684e+08
-1.00056e+08
-9.93662e+07
-9.86541e+07
-9.79402e+07
-9.7239e+07
-9.65579e+07
-9.59131e+07
-9.5328e+07
-9.48166e+07
-9.43948e+07
-9.39954e+07
-9.34395e+07
-9.24256e+07
-9.09051e+07
-8.90953e+07
-8.71996e+07
-8.52721e+07
-8.32872e+07
-8.1228e+07
-7.91216e+07
-7.69615e+07
-7.47045e+07
-7.22602e+07
-6.97094e+07
-6.72487e+07
-6.50356e+07
-6.22347e+07
-5.81211e+07
-5.43324e+07
-5.09037e+07
-4.71988e+07
-4.31485e+07
-3.90678e+07
-3.51982e+07
-3.17615e+07
-2.9421e+07
-2.86694e+07
-2.92374e+07
-2.81995e+07
-1.60484e+07
-9.79542e+07
-9.75788e+07
-9.82941e+07
-9.93502e+07
-9.94383e+07
-9.99625e+07
-1.00737e+08
-1.01509e+08
-1.02077e+08
-1.0236e+08
-1.02361e+08
-1.02121e+08
-1.01696e+08
-1.01135e+08
-1.00481e+08
-9.97818e+07
-9.9066e+07
-9.83514e+07
-9.76489e+07
-9.69703e+07
-9.6325e+07
-9.57313e+07
-9.51925e+07
-9.47352e+07
-9.42888e+07
-9.37171e+07
-9.27252e+07
-9.12101e+07
-8.93484e+07
-8.73611e+07
-8.53622e+07
-8.33582e+07
-8.12878e+07
-7.91621e+07
-7.69909e+07
-7.47077e+07
-7.22393e+07
-6.97441e+07
-6.72923e+07
-6.50389e+07
-6.23346e+07
-5.84099e+07
-5.44643e+07
-5.08654e+07
-4.71122e+07
-4.30617e+07
-3.90692e+07
-3.54064e+07
-3.212e+07
-2.96391e+07
-2.85606e+07
-2.88533e+07
-2.77093e+07
-1.54657e+07
-9.61032e+07
-9.60863e+07
-9.61425e+07
-9.50682e+07
-9.58613e+07
-9.71652e+07
-9.8501e+07
-9.96068e+07
-1.00387e+08
-1.00845e+08
-1.01013e+08
-1.00935e+08
-1.00665e+08
-1.0025e+08
-9.97179e+07
-9.91147e+07
-9.84676e+07
-9.78011e+07
-9.71246e+07
-9.64613e+07
-9.58233e+07
-9.52659e+07
-9.47997e+07
-9.44767e+07
-9.42016e+07
-9.36829e+07
-9.2547e+07
-9.09019e+07
-8.90719e+07
-8.71998e+07
-8.52898e+07
-8.33481e+07
-8.13904e+07
-7.94574e+07
-7.75355e+07
-7.55584e+07
-7.35354e+07
-7.13617e+07
-6.85904e+07
-6.58077e+07
-6.34869e+07
-6.04385e+07
-5.68564e+07
-5.3196e+07
-4.92562e+07
-4.49357e+07
-4.04521e+07
-3.61203e+07
-3.25394e+07
-3.05252e+07
-3.02078e+07
-3.05717e+07
-2.92168e+07
-1.69044e+07
-9.68525e+07
-9.67467e+07
-9.70441e+07
-9.71524e+07
-9.77169e+07
-9.85734e+07
-9.94899e+07
-1.00294e+08
-1.00881e+08
-1.01218e+08
-1.01308e+08
-1.01175e+08
-1.00866e+08
-1.00422e+08
-9.98741e+07
-9.9262e+07
-9.86158e+07
-9.79535e+07
-9.72894e+07
-9.66414e+07
-9.60227e+07
-9.54657e+07
-9.49866e+07
-9.46211e+07
-9.43089e+07
-9.38266e+07
-9.27448e+07
-9.10872e+07
-8.9155e+07
-8.71708e+07
-8.52179e+07
-8.32945e+07
-8.13386e+07
-7.94243e+07
-7.75559e+07
-7.56112e+07
-7.35577e+07
-7.14145e+07
-6.87942e+07
-6.58753e+07
-6.34408e+07
-6.0404e+07
-5.69404e+07
-5.33615e+07
-4.94472e+07
-4.51489e+07
-4.06372e+07
-3.63589e+07
-3.27207e+07
-3.04578e+07
-2.99016e+07
-3.0188e+07
-2.88021e+07
-1.64585e+07
-9.67395e+07
-9.66417e+07
-9.68071e+07
-9.67423e+07
-9.73507e+07
-9.82162e+07
-9.9067e+07
-9.97692e+07
-1.00269e+08
-1.00562e+08
-1.0065e+08
-1.00545e+08
-1.00287e+08
-9.99148e+07
-9.94402e+07
-9.88903e+07
-9.82908e+07
-9.7661e+07
-9.70155e+07
-9.63707e+07
-9.57455e+07
-9.52179e+07
-9.48193e+07
-9.46242e+07
-9.44748e+07
-9.3968e+07
-9.27043e+07
-9.10011e+07
-8.91954e+07
-8.73544e+07
-8.54698e+07
-8.36002e+07
-8.17715e+07
-7.99841e+07
-7.82028e+07
-7.63154e+07
-7.42476e+07
-7.22529e+07
-7.02968e+07
-6.81205e+07
-6.53918e+07
-6.22119e+07
-5.86338e+07
-5.49521e+07
-5.08856e+07
-4.64419e+07
-4.18665e+07
-3.7539e+07
-3.40622e+07
-3.20097e+07
-3.12587e+07
-3.1002e+07
-2.99916e+07
-1.96549e+07
-9.70738e+07
-9.69783e+07
-9.71351e+07
-9.73448e+07
-9.78952e+07
-9.86147e+07
-9.93368e+07
-9.99534e+07
-1.00403e+08
-1.00663e+08
-1.00729e+08
-1.00611e+08
-1.00342e+08
-9.99579e+07
-9.94739e+07
-9.89189e+07
-9.83199e+07
-9.76962e+07
-9.70643e+07
-9.64399e+07
-9.58411e+07
-9.53166e+07
-9.4896e+07
-9.4633e+07
-9.44794e+07
-9.40724e+07
-9.28734e+07
-9.1095e+07
-8.91377e+07
-8.71967e+07
-8.53107e+07
-8.34954e+07
-8.1704e+07
-7.99782e+07
-7.83704e+07
-7.66254e+07
-7.44499e+07
-7.23059e+07
-7.03722e+07
-6.82442e+07
-6.55737e+07
-6.24213e+07
-5.88283e+07
-5.5137e+07
-5.11179e+07
-4.66531e+07
-4.19961e+07
-3.76174e+07
-3.40661e+07
-3.19126e+07
-3.10881e+07
-3.07625e+07
-2.95946e+07
-1.82304e+07
-9.75365e+07
-9.7352e+07
-9.75303e+07
-9.77958e+07
-9.83032e+07
-9.88823e+07
-9.94243e+07
-9.98619e+07
-1.00166e+08
-1.0033e+08
-1.00342e+08
-1.00204e+08
-9.99445e+07
-9.95965e+07
-9.91608e+07
-9.86448e+07
-9.80714e+07
-9.74599e+07
-9.6833e+07
-9.6205e+07
-9.55942e+07
-9.50864e+07
-9.47775e+07
-9.46968e+07
-9.46627e+07
-9.41551e+07
-9.28051e+07
-9.11123e+07
-8.93667e+07
-8.75744e+07
-8.57389e+07
-8.3939e+07
-8.21786e+07
-8.03691e+07
-7.84541e+07
-7.65789e+07
-7.48801e+07
-7.33202e+07
-7.15473e+07
-6.93235e+07
-6.66541e+07
-6.35191e+07
-6.00894e+07
-5.653e+07
-5.26828e+07
-4.85371e+07
-4.42308e+07
-4.00216e+07
-3.62753e+07
-3.33586e+07
-3.16259e+07
-3.12885e+07
-3.19169e+07
-2.41637e+07
-9.75732e+07
-9.75492e+07
-9.76724e+07
-9.79752e+07
-9.84461e+07
-9.89746e+07
-9.94798e+07
-9.99e+07
-1.00196e+08
-1.00353e+08
-1.00361e+08
-1.00223e+08
-9.99594e+07
-9.96031e+07
-9.91592e+07
-9.86403e+07
-9.80695e+07
-9.74682e+07
-9.68557e+07
-9.62527e+07
-9.5675e+07
-9.51735e+07
-9.47975e+07
-9.46379e+07
-9.46663e+07
-9.43071e+07
-9.29792e+07
-9.11356e+07
-8.92207e+07
-8.73617e+07
-8.55303e+07
-8.37936e+07
-8.21151e+07
-8.04404e+07
-7.8784e+07
-7.71077e+07
-7.53892e+07
-7.36768e+07
-7.17655e+07
-6.9527e+07
-6.68543e+07
-6.37447e+07
-6.02536e+07
-5.66361e+07
-5.27575e+07
-4.85489e+07
-4.4153e+07
-3.98949e+07
-3.61982e+07
-3.33592e+07
-3.15486e+07
-3.101e+07
-3.10272e+07
-2.14783e+07
-9.8208e+07
-9.8126e+07
-9.82593e+07
-9.85829e+07
-9.8972e+07
-9.93558e+07
-9.96931e+07
-9.99495e+07
-1.00109e+08
-1.00167e+08
-1.00109e+08
-9.99311e+07
-9.96606e+07
-9.9325e+07
-9.8915e+07
-9.84167e+07
-9.78491e+07
-9.72422e+07
-9.66167e+07
-9.5992e+07
-9.53825e+07
-9.49086e+07
-9.46847e+07
-9.46627e+07
-9.47389e+07
-9.4238e+07
-9.28504e+07
-9.12073e+07
-8.9549e+07
-8.78484e+07
-8.61167e+07
-8.43691e+07
-8.26297e+07
-8.0873e+07
-7.90242e+07
-7.69813e+07
-7.50962e+07
-7.36682e+07
-7.2031e+07
-6.99312e+07
-6.75112e+07
-6.47241e+07
-6.16618e+07
-5.84005e+07
-5.48574e+07
-5.0927e+07
-4.65009e+07
-4.16237e+07
-3.67896e+07
-3.30781e+07
-3.1533e+07
-3.26357e+07
-3.85984e+07
-3.83661e+07
-9.81197e+07
-9.81628e+07
-9.83261e+07
-9.8635e+07
-9.89979e+07
-9.93613e+07
-9.96908e+07
-9.99496e+07
-1.00113e+08
-1.0017e+08
-1.00112e+08
-9.99389e+07
-9.96653e+07
-9.93196e+07
-9.89003e+07
-9.84022e+07
-9.7844e+07
-9.72506e+07
-9.66448e+07
-9.605e+07
-9.54869e+07
-9.50088e+07
-9.46569e+07
-9.45747e+07
-9.4792e+07
-9.44412e+07
-9.30095e+07
-9.11906e+07
-8.93724e+07
-8.76118e+07
-8.58483e+07
-8.40934e+07
-8.24322e+07
-8.09265e+07
-7.93288e+07
-7.75356e+07
-7.57454e+07
-7.42462e+07
-7.24508e+07
-7.0236e+07
-6.77282e+07
-6.48972e+07
-6.17643e+07
-5.84406e+07
-5.48539e+07
-5.0884e+07
-4.64132e+07
-4.14796e+07
-3.67094e+07
-3.31624e+07
-3.14011e+07
-3.2464e+07
-3.71788e+07
-3.17821e+07
-9.87123e+07
-9.8807e+07
-9.89817e+07
-9.92433e+07
-9.95081e+07
-9.97451e+07
-9.99346e+07
-1.00054e+08
-1.00099e+08
-1.00068e+08
-9.99461e+07
-9.97316e+07
-9.94428e+07
-9.91068e+07
-9.87106e+07
-9.82187e+07
-9.76451e+07
-9.70278e+07
-9.63902e+07
-9.57486e+07
-9.51198e+07
-9.46914e+07
-9.45273e+07
-9.44913e+07
-9.467e+07
-9.41641e+07
-9.28521e+07
-9.13822e+07
-8.99168e+07
-8.83447e+07
-8.67069e+07
-8.50177e+07
-8.32387e+07
-8.14935e+07
-8.00144e+07
-7.81576e+07
-7.60185e+07
-7.44722e+07
-7.31481e+07
-7.12756e+07
-6.90852e+07
-6.65889e+07
-6.3807e+07
-6.07779e+07
-5.75742e+07
-5.41073e+07
-5.023e+07
-4.63545e+07
-4.36839e+07
-4.15326e+07
-3.70683e+07
-3.35377e+07
-3.93534e+07
-4.05135e+07
-9.86428e+07
-9.87726e+07
-9.89886e+07
-9.92417e+07
-9.94922e+07
-9.97219e+07
-9.99144e+07
-1.00043e+08
-1.00095e+08
-1.00064e+08
-9.99439e+07
-9.97322e+07
-9.94414e+07
-9.90934e+07
-9.86864e+07
-9.81995e+07
-9.76433e+07
-9.70477e+07
-9.64375e+07
-9.58348e+07
-9.52681e+07
-9.48054e+07
-9.44622e+07
-9.43997e+07
-9.47785e+07
-9.44165e+07
-9.30028e+07
-9.13446e+07
-8.96787e+07
-8.8077e+07
-8.65664e+07
-8.48159e+07
-8.31127e+07
-8.15186e+07
-8.00431e+07
-7.84046e+07
-7.65271e+07
-7.48093e+07
-7.30382e+07
-7.0982e+07
-6.87219e+07
-6.62338e+07
-6.35024e+07
-6.05122e+07
-5.72167e+07
-5.35068e+07
-4.92219e+07
-4.43944e+07
-4.11219e+07
-4.09275e+07
-3.79578e+07
-3.47284e+07
-3.94495e+07
-3.53766e+07
-9.92218e+07
-9.94123e+07
-9.96022e+07
-9.97861e+07
-9.99465e+07
-1.00072e+08
-1.00151e+08
-1.00161e+08
-1.0011e+08
-1.00003e+08
-9.98325e+07
-9.95935e+07
-9.92882e+07
-9.89416e+07
-9.85486e+07
-9.80599e+07
-9.74733e+07
-9.68305e+07
-9.61705e+07
-9.54928e+07
-9.48241e+07
-9.44276e+07
-9.42676e+07
-9.41955e+07
-9.45185e+07
-9.40505e+07
-9.29535e+07
-9.17489e+07
-9.04624e+07
-8.89989e+07
-8.73767e+07
-8.57026e+07
-8.40189e+07
-8.25281e+07
-8.13546e+07
-7.97148e+07
-7.77753e+07
-7.64005e+07
-7.51096e+07
-7.33186e+07
-7.12617e+07
-6.90785e+07
-6.68852e+07
-6.4853e+07
-6.32864e+07
-6.22818e+07
-6.1851e+07
-6.16303e+07
-6.01522e+07
-5.56666e+07
-4.87324e+07
-4.25147e+07
-3.75192e+07
-1.7967e+07
-9.91954e+07
-9.93785e+07
-9.95866e+07
-9.97655e+07
-9.99184e+07
-1.00043e+08
-1.00128e+08
-1.00151e+08
-1.00109e+08
-1.00005e+08
-9.9834e+07
-9.95921e+07
-9.92837e+07
-9.89244e+07
-9.85177e+07
-9.80354e+07
-9.74766e+07
-9.68725e+07
-9.62473e+07
-9.56183e+07
-9.50148e+07
-9.45448e+07
-9.41691e+07
-9.40919e+07
-9.46315e+07
-9.43143e+07
-9.31133e+07
-9.1739e+07
-9.02639e+07
-8.87947e+07
-8.7361e+07
-8.56126e+07
-8.39734e+07
-8.24366e+07
-8.10199e+07
-7.93903e+07
-7.74843e+07
-7.60636e+07
-7.47452e+07
-7.30352e+07
-7.10911e+07
-6.89301e+07
-6.64705e+07
-6.38473e+07
-6.15484e+07
-5.99881e+07
-5.95299e+07
-5.99044e+07
-5.94605e+07
-5.57946e+07
-4.90485e+07
-4.28363e+07
-3.89548e+07
-2.29012e+07
-9.97991e+07
-9.99669e+07
-1.00114e+08
-1.00227e+08
-1.00305e+08
-1.00347e+08
-1.00341e+08
-1.00262e+08
-1.00128e+08
-9.99632e+07
-9.97552e+07
-9.95027e+07
-9.91994e+07
-9.88473e+07
-9.84467e+07
-9.79547e+07
-9.73486e+07
-9.66616e+07
-9.59671e+07
-9.52493e+07
-9.45348e+07
-9.41457e+07
-9.39188e+07
-9.40111e+07
-9.47024e+07
-9.43681e+07
-9.33126e+07
-9.21684e+07
-9.09526e+07
-8.95889e+07
-8.80283e+07
-8.64678e+07
-8.50667e+07
-8.39419e+07
-8.27165e+07
-8.09126e+07
-7.89967e+07
-7.75212e+07
-7.60849e+07
-7.44233e+07
-7.27504e+07
-7.12885e+07
-7.03266e+07
-7.01502e+07
-7.09115e+07
-7.24631e+07
-7.42303e+07
-7.48331e+07
-7.27473e+07
-6.76599e+07
-6.02659e+07
-5.27178e+07
-4.64851e+07
-2.62214e+07
-9.97665e+07
-9.99359e+07
-1.00092e+08
-1.00199e+08
-1.00272e+08
-1.00314e+08
-1.00315e+08
-1.00254e+08
-1.00138e+08
-9.99768e+07
-9.97664e+07
-9.95059e+07
-9.91954e+07
-9.88337e+07
-9.8417e+07
-9.79266e+07
-9.73582e+07
-9.67348e+07
-9.60861e+07
-9.54183e+07
-9.47493e+07
-9.42377e+07
-9.37017e+07
-9.3748e+07
-9.45532e+07
-9.44147e+07
-9.34852e+07
-9.2333e+07
-9.10413e+07
-8.96203e+07
-8.81101e+07
-8.64718e+07
-8.49609e+07
-8.35824e+07
-8.20176e+07
-8.07094e+07
-7.95879e+07
-7.86021e+07
-7.73653e+07
-7.56823e+07
-7.38168e+07
-7.19894e+07
-7.04626e+07
-6.96454e+07
-6.99888e+07
-7.15487e+07
-7.38783e+07
-7.51292e+07
-7.31734e+07
-6.77311e+07
-6.0041e+07
-5.23164e+07
-4.57748e+07
-2.65819e+07
-1.00314e+08
-1.00429e+08
-1.00514e+08
-1.00562e+08
-1.00574e+08
-1.00547e+08
-1.00472e+08
-1.00339e+08
-1.00172e+08
-9.99613e+07
-9.97208e+07
-9.94568e+07
-9.91611e+07
-9.88162e+07
-9.84157e+07
-9.79147e+07
-9.72872e+07
-9.65507e+07
-9.58342e+07
-9.51263e+07
-9.44808e+07
-9.40846e+07
-9.36708e+07
-9.41254e+07
-9.55751e+07
-9.50066e+07
-9.36679e+07
-9.25819e+07
-9.1575e+07
-9.04442e+07
-8.90071e+07
-8.75628e+07
-8.64543e+07
-8.54905e+07
-8.41323e+07
-8.21675e+07
-8.00652e+07
-7.8261e+07
-7.66444e+07
-7.51637e+07
-7.38949e+07
-7.2921e+07
-7.26047e+07
-7.35808e+07
-7.59744e+07
-7.91081e+07
-8.18993e+07
-8.31626e+07
-8.23013e+07
-7.89189e+07
-7.26776e+07
-6.43384e+07
-5.4608e+07
-3.14127e+07
-1.00284e+08
-1.00406e+08
-1.00493e+08
-1.00535e+08
-1.00545e+08
-1.00522e+08
-1.00458e+08
-1.0034e+08
-1.0018e+08
-9.99773e+07
-9.97339e+07
-9.94596e+07
-9.91582e+07
-9.88123e+07
-9.84001e+07
-9.78979e+07
-9.73113e+07
-9.66639e+07
-9.59928e+07
-9.52919e+07
-9.46142e+07
-9.40681e+07
-9.32727e+07
-9.37083e+07
-9.52269e+07
-9.4941e+07
-9.39317e+07
-9.28054e+07
-9.17267e+07
-9.05528e+07
-8.91098e+07
-8.76469e+07
-8.6291e+07
-8.51526e+07
-8.40097e+07
-8.29974e+07
-8.15591e+07
-7.98749e+07
-7.81825e+07
-7.65261e+07
-7.50689e+07
-7.40015e+07
-7.37067e+07
-7.45721e+07
-7.67428e+07
-7.9983e+07
-8.32521e+07
-8.48441e+07
-8.37773e+07
-8.01298e+07
-7.32632e+07
-6.41571e+07
-5.31933e+07
-2.90246e+07
-1.0075e+08
-1.00812e+08
-1.0084e+08
-1.00831e+08
-1.00785e+08
-1.007e+08
-1.00579e+08
-1.00448e+08
-1.0027e+08
-1.00003e+08
-9.97185e+07
-9.9424e+07
-9.91228e+07
-9.87798e+07
-9.83987e+07
-9.79249e+07
-9.73343e+07
-9.66188e+07
-9.58088e+07
-9.50721e+07
-9.45969e+07
-9.44087e+07
-9.38857e+07
-9.3408e+07
-9.6255e+07
-9.55414e+07
-9.39657e+07
-9.30301e+07
-9.22037e+07
-9.13088e+07
-9.01465e+07
-8.8949e+07
-8.80788e+07
-8.7119e+07
-8.55203e+07
-8.33599e+07
-8.11148e+07
-7.92475e+07
-7.78555e+07
-7.69393e+07
-7.63619e+07
-7.59578e+07
-7.62782e+07
-7.86414e+07
-8.24193e+07
-8.56932e+07
-8.82457e+07
-9.01574e+07
-9.1008e+07
-8.97969e+07
-8.55689e+07
-7.82509e+07
-6.49736e+07
-3.30816e+07
-1.00712e+08
-1.00786e+08
-1.00815e+08
-1.00805e+08
-1.00762e+08
-1.00684e+08
-1.00569e+08
-1.00419e+08
-1.00235e+08
-9.99988e+07
-9.97165e+07
-9.94246e+07
-9.91321e+07
-9.88009e+07
-9.8404e+07
-9.79271e+07
-9.73621e+07
-9.67101e+07
-9.6001e+07
-9.53012e+07
-9.4767e+07
-9.4355e+07
-9.36345e+07
-9.33126e+07
-9.64595e+07
-9.54679e+07
-9.38795e+07
-9.2996e+07
-9.23339e+07
-9.14994e+07
-9.0328e+07
-8.89684e+07
-8.80206e+07
-8.72172e+07
-8.60871e+07
-8.44437e+07
-8.2354e+07
-8.04139e+07
-7.8916e+07
-7.79057e+07
-7.72252e+07
-7.66598e+07
-7.65799e+07
-7.80175e+07
-8.07314e+07
-8.3813e+07
-8.75492e+07
-9.12288e+07
-9.28135e+07
-9.16995e+07
-8.71164e+07
-7.89722e+07
-6.39717e+07
-3.21364e+07
-1.01087e+08
-1.01117e+08
-1.01109e+08
-1.01057e+08
-1.00963e+08
-1.00833e+08
-1.00679e+08
-1.00518e+08
-1.00329e+08
-1.00078e+08
-9.97127e+07
-9.93852e+07
-9.90808e+07
-9.87516e+07
-9.83656e+07
-9.79122e+07
-9.73851e+07
-9.67483e+07
-9.60103e+07
-9.52087e+07
-9.47203e+07
-9.48885e+07
-9.50376e+07
-9.45076e+07
-9.45714e+07
-9.65809e+07
-9.41144e+07
-9.33777e+07
-9.26939e+07
-9.197e+07
-9.11281e+07
-9.03032e+07
-8.95434e+07
-8.84345e+07
-8.6699e+07
-8.45153e+07
-8.24264e+07
-8.09541e+07
-8.02272e+07
-8.01984e+07
-8.06218e+07
-8.12453e+07
-8.23045e+07
-8.44919e+07
-8.80051e+07
-9.2307e+07
-9.63183e+07
-9.93017e+07
-1.00291e+08
-9.92479e+07
-9.65145e+07
-9.13116e+07
-7.7945e+07
-4.35612e+07
-1.01053e+08
-1.01091e+08
-1.01082e+08
-1.01031e+08
-1.00945e+08
-1.00823e+08
-1.00669e+08
-1.00489e+08
-1.00275e+08
-1.00012e+08
-9.96896e+07
-9.93803e+07
-9.90863e+07
-9.87596e+07
-9.83638e+07
-9.79023e+07
-9.73797e+07
-9.67769e+07
-9.61141e+07
-9.54824e+07
-9.50373e+07
-9.50362e+07
-9.49577e+07
-9.31014e+07
-9.34809e+07
-9.69453e+07
-9.37023e+07
-9.31923e+07
-9.27315e+07
-9.21486e+07
-9.10772e+07
-8.99813e+07
-8.9171e+07
-8.81738e+07
-8.66575e+07
-8.47368e+07
-8.27843e+07
-8.14036e+07
-8.07806e+07
-8.0847e+07
-8.12558e+07
-8.16416e+07
-8.23116e+07
-8.44551e+07
-8.78039e+07
-9.04776e+07
-9.37735e+07
-9.84283e+07
-1.01322e+08
-1.01871e+08
-9.97941e+07
-9.28748e+07
-7.62048e+07
-3.87906e+07
-1.01344e+08
-1.01352e+08
-1.01322e+08
-1.01242e+08
-1.01116e+08
-1.00949e+08
-1.0076e+08
-1.00557e+08
-1.00335e+08
-1.00031e+08
-9.967e+07
-9.93366e+07
-9.90441e+07
-9.87838e+07
-9.84056e+07
-9.7963e+07
-9.74776e+07
-9.68602e+07
-9.61483e+07
-9.54429e+07
-9.4961e+07
-9.53831e+07
-9.69653e+07
-1.0289e+08
-9.641e+07
-9.38944e+07
-9.31484e+07
-9.25091e+07
-9.19604e+07
-9.13055e+07
-9.05882e+07
-8.97847e+07
-8.86648e+07
-8.70326e+07
-8.50966e+07
-8.34463e+07
-8.25422e+07
-8.24482e+07
-8.30088e+07
-8.38556e+07
-8.46252e+07
-8.53391e+07
-8.69324e+07
-9.1031e+07
-9.79973e+07
-1.04575e+08
-1.0855e+08
-1.097e+08
-1.09051e+08
-1.07226e+08
-1.03221e+08
-8.90006e+07
-4.83161e+07
-1.01311e+08
-1.01326e+08
-1.01294e+08
-1.01216e+08
-1.01098e+08
-1.0094e+08
-1.00751e+08
-1.00531e+08
-1.00275e+08
-9.99858e+07
-9.96759e+07
-9.93568e+07
-9.90252e+07
-9.8696e+07
-9.83142e+07
-9.78811e+07
-9.74228e+07
-9.68859e+07
-9.62774e+07
-9.5721e+07
-9.54415e+07
-9.57576e+07
-9.63896e+07
-1.0963e+08
-9.7176e+07
-9.30648e+07
-9.28213e+07
-9.23303e+07
-9.20287e+07
-9.09245e+07
-8.99741e+07
-8.89534e+07
-8.78474e+07
-8.63957e+07
-8.4713e+07
-8.32657e+07
-8.25698e+07
-8.27707e+07
-8.376e+07
-8.52363e+07
-8.68201e+07
-8.80515e+07
-8.94801e+07
-9.30395e+07
-9.83194e+07
-1.02897e+08
-1.07163e+08
-1.09242e+08
-1.10765e+08
-1.10768e+08
-1.04936e+08
-8.77041e+07
-4.65489e+07
-1.01525e+08
-1.01521e+08
-1.01477e+08
-1.01379e+08
-1.01234e+08
-1.01042e+08
-1.00812e+08
-1.00563e+08
-1.00315e+08
-1.0005e+08
-9.97517e+07
-9.93968e+07
-9.90745e+07
-9.87623e+07
-9.83793e+07
-9.80405e+07
-9.76317e+07
-9.70539e+07
-9.64197e+07
-9.58605e+07
-9.56273e+07
-9.62592e+07
-9.8116e+07
-9.98537e+07
-9.90225e+07
-9.40178e+07
-9.26722e+07
-9.21124e+07
-9.17604e+07
-9.155e+07
-9.09315e+07
-9.00975e+07
-8.92365e+07
-8.82423e+07
-8.68935e+07
-8.54016e+07
-8.43708e+07
-8.41715e+07
-8.4739e+07
-8.57263e+07
-8.68022e+07
-8.80524e+07
-8.97672e+07
-9.31149e+07
-1.00247e+08
-1.10742e+08
-1.19083e+08
-1.22361e+08
-1.22076e+08
-1.20883e+08
-1.19399e+08
-1.15306e+08
-9.8459e+07
-5.1723e+07
-1.01499e+08
-1.01497e+08
-1.0145e+08
-1.01353e+08
-1.01215e+08
-1.01034e+08
-1.00813e+08
-1.00559e+08
-1.00287e+08
-1.00012e+08
-9.97307e+07
-9.94015e+07
-9.9052e+07
-9.87115e+07
-9.8369e+07
-9.80008e+07
-9.75436e+07
-9.69939e+07
-9.64555e+07
-9.60482e+07
-9.60049e+07
-9.66332e+07
-9.8624e+07
-1.01393e+08
-9.84864e+07
-9.30146e+07
-9.17758e+07
-9.14643e+07
-9.13645e+07
-9.13944e+07
-9.03778e+07
-8.90353e+07
-8.78022e+07
-8.68611e+07
-8.58318e+07
-8.4683e+07
-8.39051e+07
-8.39509e+07
-8.48852e+07
-8.64536e+07
-8.83205e+07
-9.02221e+07
-9.1847e+07
-9.42295e+07
-1.00405e+08
-1.10151e+08
-1.17253e+08
-1.20608e+08
-1.20533e+08
-1.21425e+08
-1.22305e+08
-1.16892e+08
-9.75492e+07
-5.07266e+07
-1.01654e+08
-1.01639e+08
-1.01587e+08
-1.01476e+08
-1.01321e+08
-1.01118e+08
-1.00872e+08
-1.00601e+08
-1.00341e+08
-1.00083e+08
-9.97765e+07
-9.94232e+07
-9.91321e+07
-9.88438e+07
-9.85017e+07
-9.8216e+07
-9.78442e+07
-9.7273e+07
-9.66395e+07
-9.61413e+07
-9.59438e+07
-9.62768e+07
-9.69721e+07
-9.6845e+07
-9.55712e+07
-9.3811e+07
-9.2207e+07
-9.11272e+07
-9.04536e+07
-8.99332e+07
-8.91623e+07
-8.83024e+07
-8.7535e+07
-8.6732e+07
-8.57231e+07
-8.47981e+07
-8.45705e+07
-8.5335e+07
-8.68838e+07
-8.87989e+07
-9.11438e+07
-9.44996e+07
-9.89353e+07
-1.05418e+08
-1.15837e+08
-1.30327e+08
-1.41078e+08
-1.43273e+08
-1.40134e+08
-1.36564e+08
-1.33606e+08
-1.28065e+08
-1.07548e+08
-5.49705e+07
-1.01626e+08
-1.01612e+08
-1.01558e+08
-1.0145e+08
-1.01302e+08
-1.01109e+08
-1.00875e+08
-1.00604e+08
-1.00318e+08
-1.00037e+08
-9.9747e+07
-9.94225e+07
-9.9101e+07
-9.87933e+07
-9.84817e+07
-9.81694e+07
-9.77165e+07
-9.71037e+07
-9.65419e+07
-9.61773e+07
-9.61092e+07
-9.64416e+07
-9.69073e+07
-9.64946e+07
-9.48249e+07
-9.27499e+07
-9.123e+07
-9.02653e+07
-8.96089e+07
-8.8868e+07
-8.80166e+07
-8.6771e+07
-8.57242e+07
-8.50486e+07
-8.44191e+07
-8.38394e+07
-8.38387e+07
-8.48411e+07
-8.67787e+07
-8.92557e+07
-9.20997e+07
-9.57714e+07
-1.0067e+08
-1.07613e+08
-1.18108e+08
-1.32177e+08
-1.42038e+08
-1.44464e+08
-1.40316e+08
-1.36667e+08
-1.36268e+08
-1.30156e+08
-1.07617e+08
-5.57347e+07
-1.01732e+08
-1.0171e+08
-1.01657e+08
-1.01543e+08
-1.01382e+08
-1.01173e+08
-1.00921e+08
-1.00642e+08
-1.00376e+08
-1.00118e+08
-9.98249e+07
-9.94922e+07
-9.92039e+07
-9.89282e+07
-9.86897e+07
-9.8419e+07
-9.79683e+07
-9.73672e+07
-9.67611e+07
-9.61821e+07
-9.58069e+07
-9.58395e+07
-9.61002e+07
-9.58342e+07
-9.48536e+07
-9.34451e+07
-9.20362e+07
-9.06145e+07
-8.89304e+07
-8.71552e+07
-8.57462e+07
-8.46281e+07
-8.37516e+07
-8.29896e+07
-8.22557e+07
-8.19368e+07
-8.26988e+07
-8.48776e+07
-8.81708e+07
-9.18329e+07
-9.62483e+07
-1.02366e+08
-1.09922e+08
-1.19068e+08
-1.3143e+08
-1.48605e+08
-1.63621e+08
-1.68234e+08
-1.62059e+08
-1.55096e+08
-1.49398e+08
-1.40664e+08
-1.149e+08
-5.73487e+07
-1.01704e+08
-1.01681e+08
-1.01626e+08
-1.01513e+08
-1.01359e+08
-1.0116e+08
-1.00922e+08
-1.00648e+08
-1.00359e+08
-1.00075e+08
-9.97858e+07
-9.94682e+07
-9.91502e+07
-9.88336e+07
-9.85519e+07
-9.83331e+07
-9.78636e+07
-9.72419e+07
-9.65979e+07
-9.60819e+07
-9.58159e+07
-9.5859e+07
-9.58522e+07
-9.52994e+07
-9.4102e+07
-9.25925e+07
-9.1302e+07
-9.00843e+07
-8.78939e+07
-8.53957e+07
-8.37831e+07
-8.24028e+07
-8.14614e+07
-8.10334e+07
-8.0794e+07
-8.08418e+07
-8.17817e+07
-8.40993e+07
-8.76956e+07
-9.20608e+07
-9.71323e+07
-1.03675e+08
-1.12518e+08
-1.23824e+08
-1.37981e+08
-1.55946e+08
-1.71371e+08
-1.763e+08
-1.65051e+08
-1.54716e+08
-1.51744e+08
-1.43213e+08
-1.15946e+08
-6.02632e+07
-1.01772e+08
-1.01746e+08
-1.01697e+08
-1.01585e+08
-1.01428e+08
-1.01222e+08
-1.00973e+08
-1.00692e+08
-1.00418e+08
-1.0016e+08
-9.98796e+07
-9.95801e+07
-9.9317e+07
-9.90557e+07
-9.88686e+07
-9.86044e+07
-9.80933e+07
-9.74164e+07
-9.67018e+07
-9.5985e+07
-9.54498e+07
-9.53684e+07
-9.55149e+07
-9.52156e+07
-9.43516e+07
-9.3089e+07
-9.16439e+07
-8.99444e+07
-8.75008e+07
-8.4597e+07
-8.22471e+07
-8.05539e+07
-7.92248e+07
-7.81987e+07
-7.75208e+07
-7.76992e+07
-7.94658e+07
-8.31673e+07
-8.84815e+07
-9.40853e+07
-9.98713e+07
-1.0715e+08
-1.16204e+08
-1.26854e+08
-1.40897e+08
-1.61584e+08
-1.83742e+08
-1.92198e+08
-1.82065e+08
-1.72216e+08
-1.63518e+08
-1.49349e+08
-1.17455e+08
-5.63108e+07
-1.01739e+08
-1.01711e+08
-1.0166e+08
-1.01549e+08
-1.01395e+08
-1.01195e+08
-1.00956e+08
-1.00688e+08
-1.0041e+08
-1.00142e+08
-9.98681e+07
-9.95639e+07
-9.92661e+07
-9.89873e+07
-9.88199e+07
-9.84901e+07
-9.79447e+07
-9.72812e+07
-9.65765e+07
-9.59278e+07
-9.54734e+07
-9.53326e+07
-9.51793e+07
-9.46595e+07
-9.36986e+07
-9.23502e+07
-9.1007e+07
-8.95385e+07
-8.6625e+07
-8.3053e+07
-8.01412e+07
-7.81228e+07
-7.66432e+07
-7.59696e+07
-7.58094e+07
-7.62212e+07
-7.79963e+07
-8.17223e+07
-8.7218e+07
-9.37244e+07
-1.00814e+08
-1.09048e+08
-1.1944e+08
-1.32492e+08
-1.488e+08
-1.70899e+08
-1.95547e+08
-2.06814e+08
-1.88019e+08
-1.71326e+08
-1.66405e+08
-1.53079e+08
-1.19202e+08
-6.07696e+07
-1.01771e+08
-1.01746e+08
-1.01706e+08
-1.01604e+08
-1.01456e+08
-1.01261e+08
-1.01028e+08
-1.0077e+08
-1.00506e+08
-1.00244e+08
-9.99639e+07
-9.96739e+07
-9.94438e+07
-9.92627e+07
-9.90352e+07
-9.86798e+07
-9.81578e+07
-9.73992e+07
-9.66154e+07
-9.58832e+07
-9.53016e+07
-9.50082e+07
-9.48713e+07
-9.44758e+07
-9.36545e+07
-9.23778e+07
-9.08333e+07
-8.89636e+07
-8.61922e+07
-8.26683e+07
-7.94887e+07
-7.70273e+07
-7.49037e+07
-7.32462e+07
-7.23159e+07
-7.26635e+07
-7.49112e+07
-7.94264e+07
-8.61867e+07
-9.39715e+07
-1.01627e+08
-1.09217e+08
-1.17635e+08
-1.27433e+08
-1.41148e+08
-1.64451e+08
-1.95416e+08
-2.10272e+08
-1.96815e+08
-1.84943e+08
-1.73161e+08
-1.52513e+08
-1.11372e+08
-4.65602e+07
-1.01737e+08
-1.01707e+08
-1.01663e+08
-1.01559e+08
-1.01411e+08
-1.01215e+08
-1.00981e+08
-1.00723e+08
-1.00462e+08
-1.00214e+08
-9.99439e+07
-9.96528e+07
-9.93902e+07
-9.92141e+07
-9.90547e+07
-9.85316e+07
-9.79441e+07
-9.72474e+07
-9.65091e+07
-9.58065e+07
-9.52505e+07
-9.48989e+07
-9.45733e+07
-9.39801e+07
-9.30189e+07
-9.17207e+07
-9.02754e+07
-8.87506e+07
-8.56717e+07
-8.17002e+07
-7.79278e+07
-7.49816e+07
-7.23926e+07
-7.08033e+07
-7.02028e+07
-7.0785e+07
-7.31457e+07
-7.76076e+07
-8.4197e+07
-9.2309e+07
-1.00766e+08
-1.09186e+08
-1.18109e+08
-1.28876e+08
-1.43583e+08
-1.70336e+08
-2.03067e+08
-2.22443e+08
-2.04771e+08