/*--------------------------------*- C++ -*----------------------------------*\
| =========                 |                                                 |
| \\      /  F ield         | OpenFOAM: The Open Source CFD Toolbox           |
|  \\    /   O peration     | Version:  4.1                                   |
|   \\  /    A nd           | Web:      www.OpenFOAM.org                      |
|    \\/     M anipulation  |                                                 |
\*---------------------------------------------------------------------------*/
FoamFile
{
    version     2.0;
    format      ascii;
    class       volScalarField;
    location    "90";
    object      p;
}
// * * * * * * * * * * * * * * * * * * * * * * * * * * * * * * * * * * * * * //

dimensions      [0 2 -2 0 0 0 0];

internalField   nonuniform List<scalar> 
4432
(
100966
100967
100968
100970
100972
100975
100979
100984
100989
100995
101002
101009
101017
101025
101033
101041
101047
101051
101055
101064
101080
101097
101115
101135
101158
101182
101204
101222
101236
101248
101258
101268
101283
101302
101320
101330
101336
101342
101349
101355
101359
101362
101364
101366
101366
101365
101363
101360
101357
101351
101344
101337
101332
101327
100966
100967
100968
100970
100972
100975
100979
100984
100989
100995
101002
101009
101017
101025
101033
101041
101047
101051
101055
101064
101080
101098
101116
101137
101159
101183
101205
101222
101237
101250
101261
101272
101285
101301
101318
101328
101335
101342
101350
101355
101359
101361
101364
101365
101366
101366
101362
101359
101356
101351
101344
101338
101331
101327
100965
100965
100966
100968
100970
100973
100977
100981
100987
100993
100999
101007
101015
101024
101035
101047
101063
101081
101094
101103
101114
101129
101145
101159
101174
101189
101204
101220
101237
101252
101265
101277
101286
101295
101304
101312
101323
101335
101348
101357
101360
101359
101361
101365
101366
101365
101363
101361
101358
101355
101349
101339
101324
101327
100965
100965
100966
100968
100970
100973
100977
100981
100987
100993
100999
101007
101015
101024
101035
101047
101063
101081
101095
101104
101114
101128
101143
101157
101171
101186
101202
101219
101235
101250
101261
101270
101280
101295
101306
101316
101325
101337
101348
101357
101360
101360
101362
101366
101367
101366
101364
101362
101360
101357
101350
101337
101321
101328
100964
100964
100965
100967
100969
100972
100976
100981
100986
100992
100998
101006
101014
101023
101034
101046
101058
101071
101082
101095
101110
101126
101141
101155
101170
101187
101205
101223
101241
101257
101270
101280
101293
101307
101313
101317
101327
101342
101357
101367
101367
101363
101366
101370
101371
101369
101366
101362
101357
101353
101348
101340
101332
101328
100964
100964
100965
100967
100969
100972
100976
100981
100986
100992
100998
101006
101014
101023
101034
101046
101058
101071
101082
101094
101109
101125
101140
101154
101168
101185
101203
101221
101239
101256
101269
101277
101288
101303
101314
101321
101330
101343
101355
101365
101367
101364
101367
101371
101371
101369
101366
101363
101358
101354
101349
101339
101332
101331
100961
100962
100963
100965
100967
100970
100974
100978
100983
100989
100995
101003
101011
101020
101030
101041
101053
101064
101075
101089
101106
101121
101136
101150
101167
101187
101208
101227
101247
101266
101280
101294
101315
101326
101325
101317
101325
101342
101357
101370
101369
101366
101371
101375
101375
101372
101368
101364
101359
101352
101348
101344
101336
101327
100961
100962
100963
100965
100967
100970
100974
100978
100983
100989
100995
101003
101011
101020
101030
101041
101053
101064
101075
101089
101105
101121
101136
101150
101167
101187
101207
101227
101248
101267
101280
101293
101311
101323
101327
101325
101332
101345
101358
101367
101367
101367
101371
101375
101375
101371
101367
101363
101358
101354
101351
101345
101335
101326
100959
100959
100960
100962
100964
100967
100971
100975
100980
100986
100992
100999
101007
101016
101026
101036
101048
101059
101069
101081
101096
101111
101127
101143
101163
101187
101211
101235
101259
101279
101296
101315
101336
101349
101373
101300
101312
101340
101365
101385
101382
101373
101379
101382
101380
101376
101371
101367
101363
101357
101351
101345
101338
101332
100959
100959
100960
100962
100964
100967
100971
100975
100980
100986
100992
100999
101007
101016
101026
101036
101047
101059
101069
101081
101095
101111
101127
101143
101164
101188
101212
101235
101261
101283
101298
101314
101334
101343
101346
101331
101331
101347
101368
101382
101381
101375
101378
101381
101380
101376
101371
101367
101362
101357
101354
101347
101336
101330
100955
100956
100957
100958
100961
100964
100967
100971
100976
100981
100988
100994
101002
101011
101020
101030
101040
101051
101061
101073
101087
101102
101117
101133
101153
101178
101206
101233
101260
101284
101302
101321
101346
101430
101580
101364
101296
101316
101348
101360
101370
101394
101396
101391
101386
101381
101376
101371
101366
101360
101353
101344
101338
101334
100955
100956
100957
100958
100961
100964
100967
100971
100976
100981
100988
100994
101002
101011
101020
101030
101040
101051
101061
101073
101086
101102
101117
101134
101154
101180
101206
101232
101260
101285
101302
101316
101333
101365
101393
101342
101314
101336
101368
101392
101401
101390
101389
101389
101386
101381
101377
101371
101366
101359
101352
101345
101339
101333
100952
100952
100953
100954
100957
100959
100963
100967
100971
100976
100982
100989
100996
101005
101013
101023
101033
101043
101053
101064
101077
101092
101107
101121
101137
101161
101191
101216
101240
101264
101288
101316
101366
101566
101508
101470
101332
101341
101366
101376
101387
101405
101406
101399
101392
101388
101383
101377
101371
101364
101356
101346
101336
101333
100952
100952
100953
100954
100957
100959
100963
100967
100971
100976
100982
100989
100996
101005
101013
101023
101033
101043
101053
101065
101077
101092
101108
101123
101139
101164
101190
101213
101239
101264
101284
101306
101334
101388
101450
101395
101311
101327
101365
101384
101394
101400
101400
101396
101390
101385
101380
101375
101370
101362
101354
101345
101338
101331
100947
100948
100948
100950
100952
100955
100958
100961
100966
100971
100976
100983
100990
100998
101006
101015
101025
101035
101045
101056
101068
101081
101094
101107
101118
101136
101163
101185
101204
101221
101242
101274
101305
101369
101419
101417
101349
101355
101378
101392
101400
101406
101406
101400
101394
101388
101383
101378
101372
101364
101355
101344
101333
101330
100947
100948
100948
100950
100952
100955
100958
100961
100966
100971
100976
100983
100990
100998
101006
101015
101025
101035
101045
101056
101068
101081
101094
101108
101121
101139
101161
101181
101201
101223
101242
101268
101308
101350
101391
101370
101339
101353
101379
101395
101402
101405
101404
101398
101393
101387
101381
101376
101370
101363
101353
101343
101333
101330
100942
100943
100943
100945
100947
100949
100952
100956
100960
100964
100970
100976
100983
100990
100998
101007
101016
101026
101036
101047
101057
101068
101078
101089
101096
101105
101123
101144
101166
101189
101212
101240
101280
101323
101363
101358
101352
101367
101387
101399
101405
101407
101407
101403
101396
101390
101385
101380
101374
101366
101356
101343
101332
101329
100942
100943
100943
100945
100947
100949
100952
100956
100960
100964
100970
100976
100983
100990
100998
101007
101016
101026
101036
101047
101057
101068
101078
101088
101096
101107
101123
101143
101164
101186
101211
101241
101282
101323
101355
101363
101364
101377
101394
101406
101411
101411
101408
101403
101398
101391
101385
101380
101374
101367
101356
101344
101334
101331
100937
100937
100938
100939
100941
100943
100946
100949
100953
100957
100962
100968
100974
100982
100989
100998
101007
101017
101027
101037
101046
101054
101061
101066
101069
101071
101083
101107
101136
101164
101192
101227
101270
101312
101351
101371
101384
101398
101412
101421
101425
101425
101422
101416
101408
101400
101393
101386
101380
101371
101359
101345
101334
101329
100937
100937
100938
100939
100941
100943
100946
100949
100953
100957
100962
100968
100974
100982
100989
100998
101007
101017
101027
101037
101046
101054
101060
101064
101067
101070
101084
101108
101135
101163
101193
101228
101270
101313
101350
101374
101389
101404
101419
101429
101431
101429
101425
101419
101412
101403
101395
101388
101381
101372
101359
101347
101335
101332
100931
100931
100932
100933
100935
100937
100939
100942
100946
100950
100954
100959
100965
100972
100980
100988
100997
101007
101017
101028
101036
101043
101045
101040
101032
101027
101042
101074
101111
101146
101181
101221
101264
101310
101352
101385
101410
101431
101448
101456
101457
101451
101442
101432
101422
101412
101402
101392
101383
101374
101362
101347
101332
101325
100931
100931
100932
100933
100935
100937
100939
100942
100946
100950
100954
100959
100965
100972
100980
100988
100997
101007
101017
101028
101036
101043
101044
101040
101030
101027
101044
101076
101111
101146
101182
101222
101266
101312
101352
101384
101410
101432
101450
101459
101460
101454
101445
101435
101425
101414
101403
101393
101385
101375
101362
101348
101329
101329
100925
100925
100926
100927
100928
100930
100932
100934
100938
100941
100945
100950
100955
100962
100969
100977
100987
100997
101008
101019
101030
101036
101034
101017
100983
100964
100986
101033
101080
101121
101161
101206
101255
101305
101353
101395
101430
101460
101481
101489
101486
101475
101461
101447
101434
101421
101409
101397
101385
101375
101363
101349
101331
101327
100925
100925
100926
100927
100928
100930
100932
100934
100938
100941
100945
100950
100955
100962
100969
100977
100987
100997
101008
101019
101030
101036
101033
101017
100982
100964
100988
101034
101080
101120
101162
101207
101256
101305
101353
101394
101430
101460
101481
101491
101488
101477
101462
101448
101436
101423
101410
101398
101387
101376
101363
101348
101327
101333
100919
100919
100919
100920
100921
100923
100924
100926
100929
100932
100936
100940
100945
100950
100957
100965
100975
100986
100999
101013
101028
101038
101034
101001
100919
100881
100917
100983
101042
101088
101132
101181
101236
101294
101351
101405
101453
101491
101517
101526
101517
101499
101480
101462
101445
101428
101412
101398
101385
101374
101362
101349
101331
101329
100919
100919
100919
100920
100921
100923
100924
100926
100929
100932
100936
100940
100945
100950
100957
100965
100975
100986
100999
101013
101028
101038
101033
100997
100912
100879
100922
100988
101043
101087
101131
101182
101237
101294
101351
101405
101454
101493
101520
101526
101517
101500
101482
101464
101447
101429
101412
101398
101386
101375
101362
101348
101328
101329
100912
100912
100912
100913
100914
100915
100916
100918
100920
100922
100925
100929
100933
100938
100944
100952
100961
100973
100988
101007
101032
101060
101074
101015
100831
100733
100821
100933
101003
101045
101092
101148
101209
101275
101344
101413
101477
101527
101565
101572
101553
101524
101497
101474
101453
101431
101412
101397
101384
101372
101360
101348
101329
101331
100912
100912
100912
100913
100914
100915
100916
100918
100920
100922
100925
100929
100933
100938
100944
100952
100961
100973
100987
101007
101032
101060
101075
101011
100811
100738
100831
100933
101001
101046
101092
101147
101209
101275
101344
101410
101477
101527
101581
101584
101557
101522
101493
101470
101449
101429
101411
101396
101383
101372
101360
101347
101331
101328
100905
100905
100905
100906
100906
100907
100908
100909
100910
100912
100914
100917
100920
100924
100929
100936
100944
100955
100971
100994
101031
101096
101162
101155
100595
100488
100656
100884
100973
100998
101039
101101
101171
101245
101326
101411
101495
101554
101623
101633
101591
101537
101500
101476
101452
101428
101408
101392
101379
101368
101357
101347
101333
101330
100905
100905
100905
100906
100906
100907
100908
100909
100910
100912
100914
100917
100920
100924
100929
100936
100944
100955
100971
100994
101030
101095
101159
101142
100519
100559
100711
100891
100969
101000
101043
101103
101171
101245
101329
101416
101507
101538
101619
101634
101586
101530
101497
101475
101451
101428
101408
101392
101379
101367
101357
101347
101335
101328
100898
100898
100898
100898
100898
100899
100899
100900
100900
100901
100903
100904
100906
100909
100913
100918
100924
100933
100946
100965
100995
101043
101160
101445
100439
100633
100857
100938
100942
100971
101031
101105
101188
101287
101394
101509
101553
101632
101688
101632
101550
101502
101474
101447
101421
101400
101384
101370
101359
101350
101341
101333
101325
100898
100898
100898
100898
100898
100899
100899
100900
100900
100901
100903
100904
100906
100909
100913
100918
100924
100933
100946
100965
100995
101042
101158
101432
100405
100650
100864
100940
100947
100978
101036
101107
101191
101278
101403
101520
101518
101514
101660
101619
101548
101504
101473
101444
101419
101398
101383
101370
101359
101350
101342
101334
101325
100891
100891
100891
100891
100890
100890
100890
100890
100890
100890
100891
100891
100892
100893
100895
100897
100901
100906
100913
100922
100930
100928
100890
100817
100528
100535
100811
100958
100956
100921
100922
100957
101012
101090
101193
101303
101432
101473
101544
101730
101672
101581
101514
101465
101428
101400
101380
101365
101353
101344
101337
101332
101329
101322
100891
100891
100891
100891
100890
100890
100890
100890
100890
100890
100891
100891
100892
100893
100895
100897
100901
100906
100913
100921
100929
100927
100887
100806
100523
100588
100842
100958
100947
100918
100926
100962
101013
101081
101136
101298
101317
101561
101501
101540
101573
101551
101509
101464
101426
101399
101380
101365
101354
101345
101338
101333
101329
101322
100884
100884
100883
100883
100883
100882
100881
100881
100880
100879
100878
100877
100877
100876
100876
100876
100876
100876
100876
100874
100868
100850
100817
100751
100681
100690
100832
100908
100910
100898
100893
100895
100912
100965
101121
101283
101268
101490
101784
101615
101579
101549
101489
101432
101391
101367
101352
101342
101334
101329
101326
101324
101324
101319
100884
100884
100883
100883
100883
100882
100881
100881
100880
100879
100878
100877
100877
100876
100876
100876
100876
100876
100876
100874
100868
100850
100816
100751
100677
100698
100832
100900
100903
100893
100890
100896
100909
100940
100983
101198
101023
101451
101907
100984
101391
101524
101492
101438
101394
101368
101352
101342
101334
101329
101326
101324
101324
101319
100877
100877
100876
100876
100875
100874
100872
100871
100870
100868
100866
100864
100861
100859
100856
100853
100850
100845
100840
100832
100820
100801
100775
100736
100689
100682
100726
100775
100806
100823
100828
100821
100805
100795
100890
101151
102179
101475
100663
100947
101411
101511
101455
101391
101350
101331
101322
101315
101312
101312
101314
101316
101321
101319
100877
100877
100876
100876
100875
100874
100872
100871
100870
100868
100866
100864
100861
100859
100856
100853
100850
100845
100840
100832
100820
100801
100774
100736
100689
100683
100727
100773
100802
100818
100825
100820
100808
100728
100859
101165
101696
99852
100315
99766.6
100462
101346
101450
101400
101355
101332
101322
101315
101312
101312
101314
101317
101321
101319
100870
100870
100869
100868
100867
100866
100864
100862
100859
100857
100853
100850
100846
100841
100836
100831
100824
100816
100806
100793
100777
100755
100728
100694
100658
100640
100650
100676
100699
100715
100721
100717
100620
100659
100725
99850.4
99414
99157.7
99174.8
99652.9
100490
101265
101376
101312
101287
101282
101282
101283
101287
101293
101300
101307
101315
101317
100870
100870
100869
100868
100867
100866
100864
100862
100859
100857
100853
100850
100846
100841
100836
100831
100824
100816
100806
100793
100777
100755
100728
100694
100659
100642
100652
100677
100698
100712
100722
100724
100727
100735
100669
100312
102490
99788.6
99351.9
99314.4
99896.4
100782
101296
101317
101283
101278
101280
101283
101287
101293
101300
101307
101316
101318
100863
100863
100862
100861
100860
100858
100855
100853
100849
100846
100841
100836
100831
100824
100817
100809
100799
100787
100773
100756
100736
100711
100681
100648
100616
100593
100585
100586
100588
100594
100599
100628
100393
100600
101074
100735
99185.3
99047.9
99358.7
99666
100117
100751
101130
101180
101208
101224
101236
101248
101261
101273
101285
101297
101309
101316
100863
100863
100862
100861
100860
100858
100855
100853
100849
100846
100841
100836
100831
100824
100817
100809
100799
100787
100773
100756
100736
100711
100681
100648
100616
100593
100585
100586
100586
100588
100589
100633
100589
100648
100972
100367
100626
99466.8
99552.7
99777
100269
100741
100990
101117
101195
101223
101237
101249
101262
101274
101285
101297
101309
101315
100857
100857
100856
100855
100853
100850
100848
100844
100840
100835
100830
100824
100816
100808
100799
100788
100775
100760
100742
100721
100697
100668
100636
100600
100564
100531
100503
100481
100461
100459
100481
100725
100525
99708
99987.2
100235
99363.4
99262.4
99531.8
99831.7
100091
100363
100908
101065
101143
101173
101194
101216
101237
101255
101272
101287
101305
101315
100857
100857
100856
100855
100853
100850
100847
100844
100840
100835
100830
100824
100816
100808
100799
100788
100775
100760
100742
100721
100697
100668
100636
100600
100564
100531
100503
100480
100456
100435
100404
100453
100688
99977.3
96984.9
97857.7
99029.1
99253.4
99600.1
99934.8
100287
100500
100782
101015
101134
101174
101196
101218
101238
101256
101272
101287
101303
101314
100851
100851
100850
100849
100846
100844
100840
100836
100831
100826
100819
100811
100803
100793
100781
100768
100752
100734
100713
100689
100660
100627
100590
100549
100504
100457
100408
100359
100309
100282
100353
100554
100842
99919
99019.1
99039.4
99150.1
99329.3
99452.9
99566.4
99839.2
100134
100611
100970
101091
101130
101157
101187
101215
101238
101258
101276
101298
101309
100851
100851
100850
100849
100846
100844
100840
100836
100831
100826
100819
100811
100803
100793
100781
100768
100752
100734
100713
100689
100660
100627
100590
100549
100504
100457
100408
100358
100300
100252
100173
100413
100607
99969
98055.3
98584
99099.3
99357.7
99472.6
99583.1
99924.5
100241
100582
100935
101081
101127
101158
101188
101215
101238
101258
101276
101298
101311
100846
100846
100845
100843
100840
100837
100833
100829
100823
100817
100809
100800
100790
100779
100765
100750
100732
100711
100687
100658
100626
100588
100545
100496
100440
100378
100306
100217
100122
99916.1
100136
100109
100571
93974
95819.5
98211.7
99128.5
99479.1
99387.2
99274.6
99556.6
100029
100524
100863
101007
101073
101118
101159
101195
101224
101247
101266
101290
101305
100846
100846
100845
100843
100840
100837
100833
100829
100823
100817
100809
100800
100790
100779
100765
100750
100732
100711
100687
100658
100626
100588
100545
100496
100440
100378
100306
100221
100117
99978.5
99876.3
99975.1
98518
98326.7
98355.5
98780.5
99328.6
99571.3
99395.9
99231.8
99568
100100
100551
100856
101000
101069
101118
101160
101196
101224
101248
101267
101288
101302
100842
100841
100840
100838
100835
100832
100827
100822
100816
100809
100800
100790
100779
100766
100751
100733
100713
100690
100663
100631
100594
100552
100502
100445
100378
100299
100205
100082
99926.1
99627.6
99195.4
100406
96651.7
94577.3
96644.9
98693.4
99797.7
100046
99628
99274.7
99506.2
99985.3
100435
100746
100911
101016
101083
101137
101181
101215
101243
101264
101287
101300
100842
100841
100840
100838
100835
100832
100827
100822
100816
100809
100800
100790
100779
100766
100751
100733
100713
100690
100663
100631
100594
100552
100502
100445
100378
100299
100204
100093
99935.4
99706.2
99420.8
99111.7
97396
96066
97776.7
99125.2
100004
100145
99634.2
99229
99497.9
100056
100497
100748
100905
101010
101081
101137
101181
101214
101243
101266
101289
101301
100838
100838
100836
100834
100831
100827
100822
100816
100810
100802
100793
100782
100769
100755
100739
100719
100697
100672
100642
100607
100567
100519
100464
100399
100321
100228
100114
99969.4
99774.8
99506
99015.9
98791.1
100268
100197
99831.9
100368
100975
100826
100010
99326.1
99430.3
99887.2
100320
100645
100845
100974
101058
101125
101174
101210
101239
101266
101295
101302
100838
100838
100836
100834
100831
100827
100822
100816
100810
100802
100793
100782
100769
100755
100739
100719
100697
100672
100642
100607
100567
100519
100464
100399
100321
100227
100107
99972.4
99801.2
99580.4
99299.6
98666.7
97849.1
98493.4
99519.1
100503
101153
100913
100013
99285.7
99412.4
99935.7
100367
100645
100836
100966
101053
101124
101173
101208
101238
101264
101298
101308
100835
100834
100833
100830
100827
100823
100818
100812
100805
100796
100786
100775
100762
100746
100729
100708
100684
100657
100624
100587
100543
100492
100432
100360
100274
100169
100042
99884.6
99672.9
99403.9
98985.6
98496.7
98851.1
99808
99757.3
100275
101025
100988
100198
99323.5
99333.6
99809.6
100297
100622
100812
100943
101045
101122
101172
101206
101233
101260
101293
101304
100835
100834
100833
100830
100827
100823
100818
100812
100805
100796
100786
100775
100762
100746
100729
100708
100684
100657
100624
100587
100543
100492
100432
100360
100273
100164
100039
99885.2
99677.7
99416.6
99188
98318.8
98171.4
99036.6
99726.8
100600
101172
100990
100212
99351.2
99309.1
99816.6
100319
100634
100813
100938
101038
101119
101172
101204
101230
101253
101288
101314
100833
100832
100830
100828
100824
100820
100815
100808
100801
100792
100782
100769
100755
100739
100721
100699
100674
100645
100611
100571
100525
100471
100406
100330
100239
100128
99994.2
99825.8
99607.9
99333.4
99004.5
98520.2
98291.9
98599.1
98178.7
99006.4
99969.1
100410
100241
99693.9
99586.1
99972
100405
100709
100845
100956
101059
101131
101177
101207
101229
101244
101265
101301
100833
100832
100830
100828
100824
100820
100815
100808
100801
100792
100782
100769
100756
100739
100721
100699
100674
100645
100611
100571
100525
100471
100406
100330
100239
100128
100000
99830.9
99601.3
99322.9
98976.3
98482.1
98343
98560.8
98946.3
99512.4
99651
99998.3
100067
99764.6
99628.1
99948.2
100398
100724
100869
100957
101051
101131
101178
101205
101227
101240
101254
101300
100831
100831
100829
100826
100823
100818
100813
100806
100798
100789
100778
100766
100752
100735
100715
100693
100667
100637
100602
100561
100513
100456
100389
100310
100215
100100
99960.4
99787.7
99571.9
99305.3
98999.9
98617.8
98291.2
97861.1
97158.4
97125
96581.3
96660.1
97131.5
98340.2
99258.2
100071
100523
100811
100970
101075
101148
101190
101217
101233
101244
101244
101240
101284
100831
100831
100829
100826
100823
100818
100813
100806
100798
100789
100778
100766
100752
100735
100715
100693
100667
100637
100602
100561
100513
100456
100389
100310
100215
100101
99962.4
99793.8
99572.7
99291.7
99007.6
98639.1
98286.3
98065.9
97649.4
96938
96089.6
96237.6
96861.9
98180.7
99327.2
100078
100520
100807
100968
101076
101147
101191
101214
101230
101247
101248
101237
101282
100830
100829
100828
100825
100821
100817
100811
100805
100797
100787
100777
100764
100749
100732
100713
100690
100663
100633
100597
100555
100506
100449
100380
100299
100202
100085
99943.1
99769.3
99556.4
99298.6
98997.3
98636.1
98205
97767.8
97273.1
96236.8
94407.3
93730.5
94325.2
96147.7
98129.8
99465.2
100193
100589
100880
101080
101171
101207
101228
101241
101244
101243
101235
101277
100830
100829
100828
100825
100821
100817
100811
100805
100797
100787
100777
100764
100749
100732
100713
100690
100663
100633
100597
100555
100506
100449
100380
100299
100202
100086
99943.7
99771.4
99557.9
99299.5
99008.4
98685.7
98344.2
97840.6
96851
95508.2
94414.5
93898.4
94406.9
96052.5
98050.7
99464.5
100200
100581
100852
101066
101176
101206
101224
101240
101245
101243
101239
101274
100684
101147
100632
101558
101565
100600
100536
100577
100473
100435
100616
101140
100572
101562
101525
100568
100448
100554
100422
100397
101448
100880
100568
100869
100500
100525
100446
100546
100393
100471
100384
101416
100865
100481
100864
100472
100422
100405
100445
100395
100436
100418
100934
101012
100928
101056
100930
101052
100921
100770
100821
100762
100731
100658
100710
100637
100920
101010
100916
101048
100893
101047
100876
100759
100807
100756
100671
100618
100651
100613
101225
101161
101224
101211
101358
101210
101360
100540
100672
100587
100681
100559
100572
100528
100609
100419
100435
100398
100438
101219
101157
101218
101209
101349
101206
101355
100439
100608
100486
100577
100448
100632
100565
100643
100392
100458
100413
100509
101251
101160
101253
101030
101016
101030
101012
100675
101457
101149
101147
100722
100450
100486
100463
100409
100464
100427
100488
100421
100497
101244
101156
101250
101027
101007
101026
101008
100655
101430
101136
100661
101135
100404
100404
100478
100420
100510
100444
100522
100473
100544
100677
100812
100669
100780
100685
100780
100686
100379
100525
100418
100593
100569
100596
100583
100660
100805
100658
100779
100686
100780
100687
100457
100523
100466
100600
100595
100602
100598
101007
100910
100672
100904
101044
101006
100659
100885
100898
100991
101383
101473
101571
101480
101397
101172
101211
101384
101482
101568
101479
101390
101173
101171
100513
100563
100625
100651
100455
100542
100557
100538
100473
100464
100468
100550
100519
100467
100522
100446
100441
100452
100471
100983
100863
100595
100850
100992
100982
100573
100842
100832
100977
101400
101482
101554
101399
101487
101212
101210
101399
101474
101541
101475
101371
101236
101164
100400
100464
100523
100555
100318
100450
100463
100451
100442
100403
100464
100429
100425
100369
100452
100430
100394
100420
100451
100344
100399
100670
101453
101144
101143
100665
100338
100324
100379
100660
100551
100656
100431
100373
100526
100629
100355
100643
100464
100505
100484
100456
100498
100428
100408
100440
100467
100403
100418
100412
100444
100521
100535
100519
100462
100433
100506
100471
100423
100501
100315
100323
100648
101428
101135
101139
100675
100307
100348
100341
100619
100465
100353
100610
100329
100464
100601
100606
100371
100406
100404
100387
100407
100387
100410
100406
100408
100399
100398
100389
100402
100405
100445
100424
100417
100429
100398
100422
100434
100426
100393
101218
101075
101153
101296
101071
101298
101225
101188
101045
101140
101283
101038
101182
101290
101215
101150
101061
101293
101067
101296
101211
100585
100636
100597
100485
100632
100488
100588
100557
100588
100587
100486
100610
100489
100515
101202
101148
101053
101310
101050
101302
101207
100512
100576
100557
100482
100563
100506
100471
100514
100552
100548
100468
100554
100471
100494
100786
100958
100795
100877
100953
100793
100793
100778
100946
100873
100780
100947
100775
100786
100405
100409
100433
100382
100389
100425
100420
100385
100374
100375
100420
100375
100382
100421
100761
100942
100774
100862
100768
100938
100769
100754
100946
100864
100761
100944
100765
100757
100382
100374
100415
100405
100381
100378
100408
100377
100391
100415
100393
100384
100393
100378
100525
100624
100413
100555
100638
100490
100454
100272
100159
100126
100286
100274
100096
100113
100240
100511
100555
100627
100457
100633
100463
100503
100328
100540
100447
100146
100548
100304
100182
100039
99945.9
100081
99917.2
100344
100447
100547
100231
100372
100543
100208
100002
99853.8
99886.7
99967.5
101123
100894
100922
100679
100893
101119
100927
101356
101593
101606
101365
101348
101589
101593
101343
101135
100678
100939
100933
100908
100932
101132
100461
100479
101120
100888
100652
100912
100884
101116
100906
101356
101599
101594
101341
101350
101593
101592
101329
101123
100655
100895
100914
101117
100890
100908
100402
100402
100539
100944
100571
101010
100950
100531
100577
100340
100199
100171
100363
100327
100139
100147
100321
100532
101011
100950
100617
100951
100574
100597
100516
100940
100565
101003
100526
100935
100554
100278
100032
100066
100254
100296
100118
100312
100092
100505
100997
100918
100519
100930
100538
100486
101612
101440
101591
101381
101440
101589
101610
101678
101668
101683
101665
101668
101665
101671
101663
101622
101392
101439
101600
101444
101604
101601
101170
101178
101614
101439
101389
101593
101442
101610
101597
101673
101679
101686
101668
101618
101392
101445
101620
101445
101599
101631
101668
101666
101665
101667
101173
101168
100421
100602
100360
100492
100456
100584
100317
100134
99971.5
100108
100004
100153
100060
100194
100027
100400
100465
100548
100265
100387
100557
100289
100549
100551
100496
100524
100507
100544
100529
100508
100494
100507
100538
100547
100507
100496
100516
100489
100534
100504
100545
100535
100520
100532
100513
100506
100497
100476
100479
100513
100504
100497
100502
100484
100488
100465
100463
100460
100471
100471
100485
100480
100469
100489
100479
100463
100470
100493
100476
100479
100446
100879
100992
100507
100896
100423
100512
100218
100011
99996.5
100228
100444
100989
100902
100534
100894
100456
100514
100213
99945.1
99974.4
100192
100377
100859
100509
100979
100385
100856
100509
100162
99981.9
99918.6
100221
100158
99932.4
100172
99910.7
100373
100940
100858
100514
100848
100479
100456
101678
101413
101439
101739
101443
101681
101682
101741
101695
101690
101711
101674
101414
101438
101693
101434
101666
101690
101734
101706
101692
101741
101207
101220
101635
101423
101709
101384
101418
101644
101698
101735
101633
101702
101646
101717
101686
101714
101698
101641
101372
101419
101675
101422
101758
101609
101225
101175
100267
100521
100083
100359
100276
100513
100044
99881
99888.5
99806
99951.2
99915.9
99837.3
99938.8
99806.8
100207
100318
100447
100010
100475
100007
100218
100457
100461
100429
100453
100449
100441
100456
100445
100425
100445
100457
100456
100446
100443
100456
100473
100460
100453
100465
100451
100431
100423
100424
100432
100391
100364
100427
100449
100436
100453
100461
100422
100437
100427
100412
100413
100432
100424
100416
100419
100416
100431
100443
100458
100444
100461
100437
100432
100349
100345
101120
100894
100918
100669
101116
100893
100920
101342
101589
101337
101586
101345
101589
101342
101590
101122
100668
100890
100920
101119
100887
100923