/*--------------------------------*- C++ -*----------------------------------*\
| =========                 |                                                 |
| \\      /  F ield         | OpenFOAM: The Open Source CFD Toolbox           |
|  \\    /   O peration     | Version:  4.1                                   |
|   \\  /    A nd           | Web:      www.OpenFOAM.org                      |
|    \\/     M anipulation  |                                                 |
\*---------------------------------------------------------------------------*/
FoamFile
{
    version     2.0;
    format      ascii;
    class       surfaceScalarField;
    location    "90";
    object      phi;
}
// * * * * * * * * * * * * * * * * * * * * * * * * * * * * * * * * * * * * * //

dimensions      [0 3 -1 0 0 0 0];

internalField   nonuniform List<scalar> 
11516
(
9.98777e+06
15.5572
9104.22
9.96824e+06
33.8411
19794
9.93961e+06
45.7609
28884.2
9.90234e+06
47.4467
37531.9
9.85634e+06
47.6922
46273.6
9.80135e+06
49.7523
55270.2
9.73709e+06
49.6118
64565.5
9.66331e+06
48.6528
74102.8
9.57988e+06
53.215
83775.4
9.48657e+06
54.0306
93674.9
9.38354e+06
58.0605
103430
9.27169e+06
69.0251
112272
9.15287e+06
-25.2202
119363
9.03179e+06
-157.507
121788
8.91879e+06
-1532.19
115147
8.82866e+06
-2413.22
93154.7
8.77789e+06
-916.686
52361.5
8.77509e+06
-447.568
3773.03
8.77677e+06
64.4483
-1308.75
8.73915e+06
1195.95
36775.2
8.6694e+06
-1095.03
71167.4
8.56912e+06
-4792.67
105373
8.44472e+06
-7818.68
132514
8.30322e+06
-10366.8
152153
8.14586e+06
-12401.4
170038
7.99135e+06
-14060
168851
7.8515e+06
-12000.8
152142
7.73157e+06
-7170.29
127359
7.62901e+06
-7079.89
109859
7.53831e+06
-12268.9
103094
7.44044e+06
-20809.5
118779
7.30109e+06
-29528.1
168922
7.12201e+06
-29448.9
208558
6.94788e+06
-16410.9
190573
6.82217e+06
-718.41
126451
6.71354e+06
5071.58
103529
6.59886e+06
4394.7
110226
6.49323e+06
2072.23
103336
6.41034e+06
661.941
81867.8
6.3576e+06
1228.38
51145.4
6.3256e+06
2966.8
28544.4
6.30321e+06
4895.95
16968.7
6.28589e+06
5858.01
11025.5
6.28026e+06
6997.46
-1779.47
6.2887e+06
8663.93
-17439.8
6.30952e+06
9732.83
-30732.7
6.33954e+06
11953.6
-41940.1
6.38093e+06
13492.5
-54664.4
6.43005e+06
13325.6
-62547.7
6.49221e+06
17720.2
-79879
6.56417e+06
14129.1
-86203.8
6.62414e+06
7038.66
-67172.1
6.68519e+06
3858.85
-64980.2
4710.4
-66300.4
9.9878e+06
9104.45
9.96824e+06
19795.9
9.93961e+06
28894.6
9.90233e+06
37539.9
9.85633e+06
46273.8
9.80134e+06
55271.8
9.73708e+06
64556.1
9.66331e+06
74084
9.57989e+06
83754.8
9.4866e+06
93639.4
9.38356e+06
103417
9.27171e+06
112262
9.1525e+06
119557
9.03017e+06
122571
8.91198e+06
117096
8.81652e+06
93525.8
8.76785e+06
48232.8
8.77132e+06
-3566.78
8.77813e+06
-6475.21
8.74277e+06
36778.6
8.67361e+06
68275.8
8.57505e+06
93963.9
8.45145e+06
115981
8.30716e+06
134125
8.14251e+06
152435
7.97818e+06
150481
7.82721e+06
139183
7.6922e+06
128032
7.57215e+06
113117
7.47044e+06
89567
7.37801e+06
71697.2
7.26236e+06
86175.6
7.10642e+06
126489
6.92844e+06
161558
6.7745e+06
153158
6.63892e+06
140564
6.50246e+06
140749
6.38115e+06
123254
6.28186e+06
99803.9
6.21021e+06
72536.1
6.15986e+06
53012.8
6.12133e+06
43083.3
6.09055e+06
36320.2
6.07713e+06
20141.1
6.08303e+06
2571.52
6.10813e+06
-15441.8
6.14538e+06
-25269.8
6.19311e+06
-34275.4
6.25237e+06
-45955.5
6.342e+06
-72039
6.4474e+06
-91359.1
6.52886e+06
-74511.9
6.60102e+06
-68436.6
-73794.7
1.0006e+07
15.1439
5238.91
1.00118e+07
32.2357
14256.7
1.00177e+07
42.3855
23247.3
1.00233e+07
44.6355
32214.3
1.00284e+07
47.7628
41392
1.00331e+07
50.112
50906.2
1.00371e+07
52.5576
60832
1.00405e+07
56.9845
71025.7
1.00425e+07
60.9031
82134.9
1.00431e+07
70.7985
93449.5
1.00416e+07
75.695
105311
1.0037e+07
68.5599
117327
1.00272e+07
149.032
129528
1.00086e+07
269.56
140681
9.96825e+06
1709.68
154395
9.89537e+06
2011.04
164597
9.77084e+06
2213.32
175342
9.57975e+06
1276.65
193842
9.36886e+06
-1003.87
210701
9.18454e+06
-1351.37
222542
9.02454e+06
213.862
231045
8.88709e+06
1883.5
241030
8.76169e+06
3221.52
254783
8.63895e+06
4352.97
270629
8.52024e+06
4980.89
283861
8.39998e+06
5692.4
283536
8.27439e+06
6277
271601
8.13165e+06
7792.82
262476
7.9789e+06
11588.4
251142
7.82656e+06
14542
240982
7.67423e+06
17759.4
253399
7.53537e+06
20911.6
286872
7.42523e+06
17226.2
301439
7.33667e+06
5964.01
273097
7.25948e+06
-8171.32
211632
7.18473e+06
-21858.5
199956
7.10796e+06
-30295.4
217080
7.03147e+06
-31149.6
210860
6.94653e+06
-27060.8
193841
6.8758e+06
-22024.9
143661
6.81994e+06
-23257.7
107454
6.76896e+06
-29923.6
97562.9
6.73256e+06
-33146.7
80199
6.71449e+06
-34712.4
50657.8
6.7123e+06
-36292.7
20748.7
6.72248e+06
-36691.2
-4418.57
6.74178e+06
-38595.8
-22770.1
6.76401e+06
-40116.8
-36991
6.78459e+06
-45048.6
-38304.6
6.82038e+06
-57842.6
-58147.3
6.86092e+06
-37918.3
-89011.6
6.91204e+06
-20634.2
-97890.6
6.97028e+06
-14098.8
-109418
-11206.1
-118883
1.0006e+07
5239.52
1.00118e+07
14257.8
1.00177e+07
23247.3
1.00233e+07
32212.6
1.00284e+07
41388.1
1.00331e+07
50902.5
1.00371e+07
60828.2
1.00405e+07
71019.6
1.00425e+07
82132.2
1.0043e+07
93439
1.00415e+07
105301
1.00369e+07
117357
1.00275e+07
129447
1.00099e+07
140817
9.97743e+06
151758
9.91115e+06
162307
9.78232e+06
179684
9.58656e+06
193619
9.37003e+06
209118
9.1858e+06
219719
9.02846e+06
225897
8.89135e+06
233019
8.76726e+06
243354
8.64693e+06
258882
8.53256e+06
271864
8.41687e+06
271978
8.29413e+06
268339
8.16206e+06
268042
8.02787e+06
259034
7.89289e+06
239209
7.73994e+06
242484
7.57509e+06
271936
7.43618e+06
282599
7.3482e+06
255403
7.288e+06
205018
7.23739e+06
169070
7.18912e+06
158589
7.13709e+06
144074
7.08604e+06
123620
7.05732e+06
79086.3
7.03256e+06
54274.5
7.00343e+06
41971.3
6.98335e+06
22943.6
6.9737e+06
-5190.36
6.97348e+06
-33687.5
6.97973e+06
-58496.9
6.99126e+06
-75499.5
7.0013e+06
-84573.1
7.00464e+06
-94574.6
6.98186e+06
-107258
6.97666e+06
-124140
7.01398e+06
-132677
7.06112e+06
-129821
-154676
9.99932e+06
15.3118
6593.16
9.99421e+06
33.3745
19629.5
9.98508e+06
43.6948
32637.2
9.97196e+06
46.2529
45593.4
9.9549e+06
48.6016
58725.5
9.93394e+06
50.3982
72146.9
9.90932e+06
51.0247
85745.5
9.88048e+06
52.6609
100179
9.84826e+06
57.081
114695
9.81195e+06
64.5733
130112
9.77202e+06
71.5975
145630
9.72812e+06
88.6825
161636
9.67974e+06
120.044
178341
9.62503e+06
260.628
195724
9.56597e+06
323.186
213813
9.49445e+06
823.652
236031
9.41217e+06
662.281
257548
9.32756e+06
1158.72
277420
9.23349e+06
544.669
304298
9.12783e+06
548.639
327713
9.01369e+06
955.112
344314
8.89852e+06
1626.29
354654
8.78436e+06
2582.74
366450
8.66934e+06
4143.3
381605
8.55091e+06
4876.3
397528
8.42525e+06
6229.93
403116
8.28468e+06
8807.75
403574
8.12089e+06
12003.8
414486
7.93936e+06
14296.6
418574
7.74553e+06
13108.8
421863
7.53789e+06
11290.3
449854
7.33949e+06
13859.2
471434
7.16034e+06
22420.6
458140
7.00533e+06
31027.7
396898
6.90491e+06
24018.5
287782
6.81962e+06
-739.368
285696
6.72255e+06
-17400.3
331407
6.61905e+06
-18303.5
332641
6.52435e+06
-11202.9
299688
6.4791e+06
-2880.21
191787
6.45491e+06
-11188.4
142737
6.42635e+06
-23260.2
149169
6.40745e+06
-27951
126746
6.40641e+06
-28396.7
79808.2
6.41769e+06
-28104.6
37361.9
6.4379e+06
-27424.8
2636.3
6.46979e+06
-27953.7
-26917.2
6.5128e+06
-28278.9
-51899.2
6.57478e+06
-30657.9
-69801.2
6.64839e+06
-26934
-104937
6.70176e+06
-13544.7
-128830
6.74868e+06
-7953.39
-136916
6.79258e+06
-9575.74
-143857
-11239.9
-165080
9.99934e+06
6592.82
9.99421e+06
19627.7
9.98507e+06
32635.5
9.97195e+06
45591.5
9.95489e+06
58723.1
9.93393e+06
72144.2
9.90931e+06
85742.5
9.88046e+06
100175
9.84823e+06
114690
9.81193e+06
130106
9.772e+06
145623
9.72817e+06
161627
9.67981e+06
178312
9.62564e+06
195670
9.56441e+06
213792
9.49274e+06
235311
9.41432e+06
259141
9.32825e+06
280959
9.23413e+06
303831
9.13012e+06
324322
9.01771e+06
339323
8.90438e+06
348047
8.79179e+06
358600
8.67573e+06
379177
8.55643e+06
396142
8.43088e+06
403899
8.29298e+06
415231
8.13985e+06
433369
7.97088e+06
442511
7.77905e+06
444332
7.56796e+06
464942
7.36896e+06
484821
7.20169e+06
472234
7.07722e+06
410713
6.99752e+06
308400
6.91348e+06
251976
6.82796e+06
226464
6.74181e+06
211950
6.66036e+06
194101
6.61575e+06
120805
6.58297e+06
75783.8
6.54211e+06
59355.9
6.51817e+06
18680.5
6.51026e+06
-25842.8
6.51328e+06
-64890.9
6.52607e+06
-98760.4
6.54985e+06
-127311
6.5855e+06
-148635
6.62812e+06
-167973
6.686e+06
-192063
6.73713e+06
-188835
6.78189e+06
-185447
6.82674e+06
-184291
-216259
9.99894e+06
14.7776
8407.44
9.99381e+06
31.6923
25008.6
9.98488e+06
42.3976
41827
9.97202e+06
44.8438
58708.8
9.9551e+06
46.7577
75902.6
9.93419e+06
48.4941
93330.6
9.90853e+06
49.078
111691
9.87855e+06
50.9494
130462
9.84384e+06
56.0011
149728
9.80436e+06
63.7826
169941
9.7596e+06
71.9533
190766
9.70897e+06
85.1398
212673
9.65216e+06
96.4144
235599
9.58881e+06
160.275
259523
9.51748e+06
187.624
285635
9.43904e+06
649.961
314549
9.34948e+06
338.355
347348
9.25381e+06
295.738
373056
9.16515e+06
460.339
392586
9.07848e+06
884.355
413593
8.98601e+06
1253.81
435626
8.88599e+06
1314.66
453486
8.77395e+06
1232.45
477407
8.65074e+06
1552.62
503398
8.51696e+06
1132.14
530328
8.36818e+06
1080.33
551008
8.19696e+06
2862.42
572163
7.99573e+06
4485.04
611444
7.75882e+06
3284.21
652434
7.49584e+06
2966.26
682054
7.24156e+06
3805.27
700421
7.01935e+06
6280.38
687408
6.83655e+06
12115
628800
6.72683e+06
21128.2
485428
6.70761e+06
19262
287632
6.66671e+06
-16574.4
343023
6.56402e+06
-38896.4
472774
6.43705e+06
-41594.4
501393
6.30644e+06
-36746.5
467387
6.24661e+06
-12821.7
264538
6.217e+06
-10161.7
182524
6.19059e+06
-18534.8
194050
6.17431e+06
-19513.5
162369
6.17861e+06
-17587.5
93008.6
6.19578e+06
-15873.4
36052.1
6.22287e+06
-14012.4
-10456.5
6.25853e+06
-13150.5
-49392.6
6.306e+06
-11334.3
-88058.4
6.37032e+06
-10067.8
-124139
6.44303e+06
-20954.3
-156551
6.52501e+06
-21664.4
-189106
6.60467e+06
-17445.2
-199147
6.68417e+06
-16914
-206407
-10540.9
-212415
9.99896e+06
8407.59
9.99381e+06
25008.6
9.98487e+06
41824.8
9.97201e+06
58705.8
9.95509e+06
75899.4
9.93418e+06
93326.8
9.90852e+06
111687
9.87853e+06
130457
9.84382e+06
149724
9.80434e+06
169936
9.75959e+06
190762
9.70898e+06
212666
9.65217e+06
235594
9.58896e+06
259472
9.51786e+06
285559
9.44011e+06
314214
9.35261e+06
347381
9.25584e+06
378223
9.16693e+06
393288
9.08072e+06
411496
8.98848e+06
432910
8.88673e+06
451225
8.77218e+06
474502
8.64866e+06
504354
8.51539e+06
530655
8.36367e+06
556849
8.188e+06
593904
7.98598e+06
640022
7.7543e+06
677617
7.50056e+06
701141
7.25996e+06
709413
7.05092e+06
700159
6.87239e+06
662854
6.74871e+06
555433
6.7106e+06
365624
6.65585e+06
289864
6.57881e+06
264554
6.4781e+06
271380
6.3791e+06
256600
6.32091e+06
166418
6.27663e+06
109884
6.23727e+06
80119.4
6.21347e+06
22901.5
6.20915e+06
-39152.9
6.21981e+06
-91418.9
6.24436e+06
-137308
6.28051e+06
-176625
6.33364e+06
-213122
6.39396e+06
-238294
6.46951e+06
-288548
6.54628e+06
-287268
6.62203e+06
-278652
6.70423e+06
-283452
-297467
9.99895e+06
14.7286
10202.6
9.99391e+06
31.869
30299.9
9.98516e+06
41.686
50816.8
9.97258e+06
43.6733
71528.6
9.95607e+06
45.3647
92665.1
9.9355e+06
47.0672
114158
9.91075e+06
47.6325
136718
9.88184e+06
49.2163
159657
9.8482e+06
53.7532
183680
9.80978e+06
60.4087
208693
9.76631e+06
68.0955
234598
9.71746e+06
75.5393
261919
9.66324e+06
89.8823
290263
9.60274e+06
102.734
320512
9.53582e+06
190.194
353035
9.46251e+06
213.583
388398
9.38102e+06
946.804
428700
9.28198e+06
1063.07
471660
9.1772e+06
914.353
496684
9.07597e+06
1216.1
513826
8.97703e+06
2014.52
532757
8.87086e+06
1635.91
558272
8.74897e+06
466.337
599041
8.60815e+06
-375.097
644771
8.4495e+06
-2772.58
691922
8.26332e+06
-3839.4
741217
8.04838e+06
-1564.07
788845
7.80858e+06
416.816
850975
7.54825e+06
-1058.51
913964
7.2854e+06
-1844.52
946870
7.04655e+06
-8.7023
939369
6.83854e+06
4357.14
891143
6.67362e+06
10227.3
783554
6.58514e+06
21731.3
552215
6.62097e+06
46776.4
205047
6.52794e+06
-43698.2
479581
6.4048e+06
-132983
728433
6.25628e+06
-148534
798305
6.1033e+06
-147542
767751
6.0373e+06
-94348.2
424941
6.00924e+06
-42367.7
252960
5.98367e+06
-37584
257171
5.99261e+06
-28833.7
182190
6.00462e+06
-27841.5
108810
6.02628e+06
-28707.1
43197.2
6.06006e+06
-27841.1
-16170.6
6.10514e+06
-27041.7
-67206.7
6.15644e+06
-26123.1
-113042
6.21183e+06
-24807.5
-154562
6.28236e+06
-39138.1
-187905
6.35155e+06
-36671.2
-221730
6.42196e+06
-27983.7
-241594
6.49204e+06
-28004
-248630
-19921.9
-238701
9.99897e+06
10201.7
9.9939e+06
30296.9
9.98515e+06
50814.2
9.97257e+06
71526
9.95606e+06
92662.2
9.93549e+06
114154
9.91073e+06
136714
9.88182e+06
159653
9.84818e+06
183675
9.80976e+06
208689
9.7663e+06
234594
9.71746e+06
261914
9.66326e+06
290256
9.60276e+06
320490
9.53598e+06
353000
9.46258e+06
388356
9.38292e+06
428525
9.29037e+06
472259
9.18627e+06
498611
9.08249e+06
516760
8.97977e+06
537876
8.86572e+06
567136
8.73771e+06
603148
8.59746e+06
644356
8.43596e+06
689507
8.24518e+06
743917
8.03606e+06
801557
7.80719e+06
869404
7.55918e+06
924661
7.30651e+06
952064
7.07381e+06
942188
6.87502e+06
903381
6.72698e+06
821184
6.66059e+06
643598
6.6801e+06
392992
6.65372e+06
272430
6.54406e+06
240874
6.40254e+06
264019
6.2612e+06
250217
6.184e+06
149054
6.13833e+06
113156
6.10581e+06
75000.8
6.09989e+06
-98.7784
6.11323e+06
-80322.6
6.14115e+06
-147913
6.18185e+06
-205642
6.23272e+06
-254301
6.28739e+06
-293696
6.34265e+06
-318285
6.37071e+06
-355796
6.4048e+06
-358094
6.46576e+06
-367770
6.52391e+06
-369710
-360071
9.99898e+06
13.8246
11943
9.99404e+06
29.0205
35472.6
9.98553e+06
38.9946
59555.2
9.97337e+06
41.1721
83931.3
9.95752e+06
42.9284
108745
9.93759e+06
44.5894
134343
9.91371e+06
45.0409
160854
9.88563e+06
46.3898
188021
9.85313e+06
50.5161
216472
9.8162e+06
56.7627
245947
9.7742e+06
63.8165
276937
9.7273e+06
71.0271
309210
9.67508e+06
81.9073
342915
9.61741e+06
92.775
378678
9.55453e+06
138.064
416442
9.48656e+06
210.757
456938
9.41557e+06
635.549
499989
9.33798e+06
1277.88
548963
9.24405e+06
1902.76
589476
9.13377e+06
1829.95
623014
9.0123e+06
2274.7
652616
8.88103e+06
513.067
689676
8.74861e+06
-1372.42
733104
8.60243e+06
-2721.37
793905
8.42523e+06
-6012
875345
8.20498e+06
-6030.45
967741
7.95015e+06
-2407.74
1.0463e+06
7.68956e+06
1853.43
1.10988e+06
7.43158e+06
1937.76
1.17017e+06
7.18014e+06
1166.38
1.19732e+06
6.94298e+06
2824.09
1.17389e+06
6.72163e+06
9020.41
1.10366e+06
6.50547e+06
20707.8
979172
6.27502e+06
76211
706552
5.88134e+06
323630
275293
5.4338e+06
208953
717808
5.18697e+06
41230.5
932729
5.21817e+06
-60035.6
825387
5.35296e+06
-154243
785975
5.46256e+06
-197152
511833
5.51557e+06
-116381
316157
5.58273e+06
-91200
280973
5.62257e+06
-56213.2
198348
5.66679e+06
-56356.8
120974
5.71739e+06
-57647.4
50580.5
5.77009e+06
-55513.3
-12805.4
5.82378e+06
-50455.7
-69853.2
5.88171e+06
-47150.4
-123405
5.93628e+06
-40494.3
-168574
5.98077e+06
-25428.8
-207252
6.0134e+06
-13355.7
-241365
6.04287e+06
-1784.74
-269821
6.06211e+06
9469.61
-277607
28556
-292344
9.999e+06
11943.2
9.99404e+06
35472.7
9.98553e+06
59552.3
9.97335e+06
83927.4
9.95751e+06
108741
9.93758e+06
134338
9.9137e+06
160849
9.88561e+06
188015
9.85311e+06
216467
9.81618e+06
245942
9.77419e+06
276932
9.72729e+06
309205
9.67509e+06
342908
9.61741e+06
378667
9.55459e+06
416435
9.48688e+06
456830
9.41672e+06
499975
9.34442e+06
546587
9.25614e+06
589562
9.14749e+06
627926
9.02413e+06
664086
8.88956e+06
702714
8.74619e+06
745522
8.58828e+06
799708
8.40301e+06
868924
8.18355e+06
957491
7.94905e+06
1.03378e+06
7.7059e+06
1.11452e+06
7.45456e+06
1.17806e+06
7.20661e+06
1.20132e+06
6.97885e+06
1.17291e+06
6.78088e+06
1.1105e+06
6.61446e+06
1.00841e+06
6.50814e+06
826374
6.73004e+06
495184
6.86664e+06
344346
6.79526e+06
352427
6.67534e+06
322831
6.53657e+06
233722
6.29709e+06
190730
6.11302e+06
180528
6.04432e+06
52167
6.04479e+06
-56978.4
6.03631e+06
-128201
6.01731e+06
-186362
5.99456e+06
-238112
5.97167e+06
-281584
5.94711e+06
-316153
5.9285e+06
-340255
5.91251e+06
-365498
5.91266e+06
-371986
5.91059e+06
-367814
5.90029e+06
-350167
-325027
9.99902e+06
13.7228
13619
9.99428e+06
29.404
40443
9.98613e+06
38.4066
67919.9
9.9745e+06
40.1612
95782.8
9.95936e+06
41.6468
124108
9.94028e+06
43.1475
153656
9.91741e+06
43.5565
183978
9.89044e+06
44.8504
215245
9.85939e+06
48.8079
247801
9.82346e+06
54.7794
282186
9.78319e+06
61.372
317532
9.73802e+06
68.6701
354745
9.68771e+06
77.1611
393643
9.63252e+06
91.0284
434342
9.57255e+06
112.281
476951
9.50841e+06
188.341
521646
9.44069e+06
311.269
568310
9.37236e+06
770.851
617600
9.29678e+06
721.59
665579
9.20794e+06
-56.3902
713285
9.09957e+06
-28.7994
762505
8.96587e+06
-828.77
825523
8.81663e+06
-2103.09
885229
8.66034e+06
-5354.8
955869
8.47784e+06
-9544.51
1.06764e+06
8.24836e+06
-10290.2
1.20777e+06
7.97516e+06
-1543.19
1.32132e+06
7.68681e+06
6216.87
1.39227e+06
7.40681e+06
5467.47
1.44494e+06
7.13903e+06
3226.43
1.46208e+06
6.89103e+06
6357.74
1.41572e+06
6.64809e+06
13554.2
1.33323e+06
6.32225e+06
36132.3
1.26898e+06
5.48235e+06
208972
1.33757e+06
4.51877e+06
291777
947409
4.49697e+06
10150.2
729433
4.4809e+06
42857.7
904736
4.30115e+06
128252
874395
4.33205e+06
64610.3
687890
4.44234e+06
-47652.1
447042
4.62335e+06
-53730.4
187380
4.75172e+06
26193.6
124904
4.81157e+06
63334.2
73955.9
4.86238e+06
68508.9
801.181
4.90579e+06
76472.2
-69756.3
4.93363e+06
91674.1
-132509
4.94501e+06
109586
-190941
4.94357e+06
126672
-248868
4.94056e+06
142108
-308221
4.94139e+06
156405
-365262
4.9535e+06
163588
-418166
4.98826e+06
165578
-471051
5.04273e+06
168269
-501033
153826
-571775
9.99904e+06
13617.8
9.99427e+06
40438.8
9.98612e+06
67916.2
9.97449e+06
95779.1
9.95935e+06
124104
9.94027e+06
153651
9.91739e+06
183973
9.89043e+06
215239
9.85937e+06
247794
9.82344e+06
282180
9.78317e+06
317526
9.73801e+06
354738
9.68771e+06
393635
9.63253e+06
434330
9.5726e+06
476943
9.50858e+06
521571
9.44128e+06
568240
9.37277e+06
616641
9.29842e+06
665515
9.21212e+06
715138
9.10924e+06
767971
8.98327e+06
828908
8.82573e+06
901723
8.65349e+06
966871
8.45351e+06
1.05958e+06
8.21691e+06
1.18399e+06
7.96267e+06
1.28666e+06
7.70338e+06
1.38016e+06
7.43776e+06
1.4493e+06
7.17569e+06
1.46677e+06
6.93514e+06
1.41995e+06
6.72329e+06
1.33599e+06
6.51723e+06
1.25068e+06
6.33651e+06
1.21644e+06
5.71292e+06
1.41032e+06
4.83512e+06
1.23172e+06
4.39464e+06
834167
4.31086e+06
532938
4.24839e+06
358905
4.18127e+06
208491
4.18037e+06
126272
4.18504e+06
72429.3
4.19939e+06
-9012.99
4.22458e+06
-85637.7
4.26045e+06
-146271
4.30574e+06
-192082
4.35957e+06
-226163
4.42097e+06
-251324
4.49209e+06
-269889
4.56757e+06
-285397
4.65459e+06
-296314
4.75365e+06
-302144
4.86876e+06
-297571
-293359
9.99907e+06
12.4302
15196.2
9.99459e+06
25.5084
45134.7
9.98689e+06
34.5737
75820.7
9.9759e+06
36.5057
106978
9.96149e+06
38.0384
138726
9.94353e+06
39.4712
171838
9.92204e+06
39.7634
205700
9.89633e+06
40.8074
241198
9.86648e+06
44.3674
277910
9.83256e+06
49.7297
316377
9.79386e+06
55.805
356543
9.75046e+06
62.4251
398481
9.70225e+06
70.7013
442244
9.64912e+06
83.2829
487936
9.59139e+06
99.8632
535210
9.52937e+06
141.327
584265
9.46383e+06
179.751
634527
9.39598e+06
277.338
686211
9.32406e+06
-16.7322
738691
9.24642e+06
-558.61
792816
9.15952e+06
-960.662
851758
9.06191e+06
-403.868
925053
8.93623e+06
374.534
1.01187e+06
8.78083e+06
-4041.36
1.11606e+06
8.60564e+06
-10792.7
1.25391e+06
8.40718e+06
-12920.3
1.41939e+06
8.16667e+06
-2462.99
1.56466e+06
7.85656e+06
10285.8
1.69269e+06
7.5102e+06
13203.3
1.77864e+06
7.1818e+06
4439.5
1.78648e+06
6.91464e+06
4336.38
1.67877e+06
6.6907e+06
8180.27
1.54907e+06
6.48096e+06
7675.63
1.47104e+06
6.26386e+06
67367.2
1.48713e+06
5.07595e+06
259196
1.87532e+06
3.96161e+06
308004
1.53481e+06
3.42991e+06
266984
1.16669e+06
3.26538e+06
224715
810631
3.1642e+06
206506
578598
3.0557e+06
179548
371961
2.9441e+06
150047
144946
2.93813e+06
150059
-22934.7
2.97766e+06
158193
-126997
3.04012e+06
160857
-225191
3.13688e+06
159473
-328102
3.27466e+06
155091
-427033
3.45396e+06
147377
-518992
3.67064e+06
136654
-603522
3.91724e+06
123106
-679326
4.18633e+06
108596
-744569
4.47277e+06
93226.5
-799473
4.7684e+06
77945.8
-846208
5.08479e+06
61738.3
-880196
41263
-920075
9.99909e+06
15196.5
9.99458e+06
45134.8
9.98688e+06
75817
9.97589e+06
106973
9.96148e+06
138721
9.94352e+06
171833
9.92203e+06
205694
9.89631e+06
241192
9.86646e+06
277904
9.83255e+06
316371
9.79384e+06
356537
9.75045e+06
398475
9.70225e+06
442237
9.64913e+06
487925
9.59142e+06
535198
9.52942e+06
584229
9.46398e+06
634476
9.39559e+06
686031
9.32327e+06
738636
9.24569e+06
793054
9.16051e+06
853156
9.06594e+06
924092
8.94827e+06
1.02072e+06
8.79061e+06
1.12106e+06
8.59283e+06
1.24701e+06
8.36564e+06
1.39851e+06
8.097e+06
1.5533e+06
7.81865e+06
1.66909e+06
7.53957e+06
1.7418e+06
7.24597e+06
1.76506e+06
6.96087e+06
1.70959e+06
6.72171e+06
1.58343e+06
6.49748e+06
1.48255e+06
6.27894e+06
1.50196e+06
6.25082e+06
1.69683e+06
6.00456e+06
1.78488e+06
5.54633e+06
1.5579e+06
5.10709e+06
1.19509e+06
4.77472e+06
895853
4.50829e+06
652576
4.32715e+06
455646
4.24552e+06
302426
4.22022e+06
172957
4.23024e+06
63911.8
4.27097e+06
-28594.5
4.34092e+06
-107806
4.43682e+06
-175452
4.55474e+06
-233322
4.68997e+06
-282839
4.83865e+06
-326414
4.9981e+06
-363536
5.17037e+06
-397305
5.34985e+06
-415801
-441913
9.99914e+06
12.2853
16668.7
9.99497e+06
25.977
49504
9.98781e+06
34.0167
83169.9
9.97758e+06
35.5975
117397
9.96416e+06
36.9009
152345
9.94738e+06
38.1541
188812
9.92708e+06
38.3447
226218
9.90314e+06
39.3102
265367
9.87502e+06
42.7122
306271
9.84275e+06
47.9177
348905
9.80619e+06
53.7991
393385
9.76471e+06
60.2415
440283
9.71832e+06
68.5026
489006
9.66724e+06
79.477
539453
9.61123e+06
93.669
591721
9.55092e+06
114.171
645156
9.48661e+06
133.222
699508
9.41944e+06
154.156
754150
9.35019e+06
94.9245
808885
9.27907e+06
-5.19241
865084
9.20635e+06
-133.813
925824
9.13264e+06
267.383
999776
9.04901e+06
1144.32
1.09572e+06
8.93245e+06
6477.26
1.2273e+06
8.78008e+06
2779.03
1.40412e+06
8.61778e+06
-4036.28
1.58601e+06
8.43109e+06
-5028.97
1.75729e+06
8.18414e+06
-242.058
1.94121e+06
7.86706e+06
12564.7
2.08441e+06
7.4786e+06
20118.7
2.15584e+06
7.05371e+06
16711
2.08756e+06
6.66846e+06
3513.2
1.93104e+06
6.36545e+06
-798.076
1.77471e+06
6.15335e+06
3681.61
1.69494e+06
6.0478e+06
95159.6
1.88473e+06
5.5626e+06
113389
1.90529e+06
4.95862e+06
83341.6
1.68564e+06
4.40143e+06
72086.8
1.29354e+06
3.98888e+06
73281
915314
3.72527e+06
65478.1
567362
3.57879e+06
43800
244788
3.55356e+06
25643.6
-26048.8
3.64498e+06
16237
-236989
3.82189e+06
6132.42
-410087
4.05765e+06
-6562.57
-558660
4.33097e+06
-19118.9
-682139
4.62167e+06
-29965.2
-780259
4.9149e+06
-40482
-856570
5.20082e+06
-51205.6
-914298
5.47338e+06
-61694.9
-955839
5.72771e+06
-71266.2
-983137
5.96406e+06
-81842.6
-1.00132e+06
6.1821e+06
-90564.3
-1.00806e+06
-107280
-1.00769e+06
9.99915e+06
16667.3
9.99496e+06
49498.9
9.9878e+06
83165.1
9.97757e+06
117392
9.96415e+06
152339
9.94737e+06
188806
9.92707e+06
226211
9.90312e+06
265360
9.875e+06
306264
9.84273e+06
348898
9.80617e+06
393377
9.7647e+06
440275
9.71831e+06
488996
9.66724e+06
539441
9.61124e+06
591708
9.55093e+06
645136
9.48662e+06
699482
9.41935e+06
754091
9.34996e+06
808837
9.27872e+06
865064
9.20642e+06
926144
9.13288e+06
998769
9.05935e+06
1.09628e+06
8.96455e+06
1.22329e+06
8.81924e+06
1.39584e+06
8.63068e+06
1.5837e+06
8.38218e+06
1.79765e+06
8.08461e+06
1.96704e+06
7.77856e+06
2.06092e+06
7.46396e+06
2.10029e+06
7.11092e+06
2.07975e+06
6.72699e+06
1.97096e+06
6.3556e+06
1.85295e+06
6.05906e+06
1.80171e+06
6.01091e+06
1.83945e+06
6.03601e+06
1.87231e+06
5.94427e+06
1.73192e+06
5.7527e+06
1.45751e+06
5.55376e+06
1.16672e+06
5.38218e+06
888229
5.25471e+06
625511
5.18628e+06
395160
5.17294e+06
201322
5.20405e+06
37943.7
5.26893e+06
-100744
5.36013e+06
-218526
5.47265e+06
-318086
5.60006e+06
-401201
5.73488e+06
-468817
5.87136e+06
-524650
6.00306e+06
-566689
6.13394e+06
-610279
6.24537e+06
-617912
-686961
9.99921e+06
10.6995
18003.9
9.99541e+06
21.1835
53481.4
9.98888e+06
29.1605
89873.6
9.97953e+06
30.8537
126914
9.96724e+06
32.1322
164809
9.95184e+06
33.2482
204394
9.93314e+06
33.2621
245109
9.91091e+06
33.993
287808
9.88486e+06
37.0033
332538
9.8547e+06
41.7966
379294
9.82012e+06
47.0061
428215
9.78092e+06
52.9738
479778
9.7367e+06
60.3385
533554
9.68719e+06
70.5071
589371
9.63262e+06
83.3272
646758
9.5731e+06
97.8861
705227
9.50949e+06
115.247
763729
9.44291e+06
128.034
821399
9.37558e+06
138.934
876973
9.31069e+06
76.017
930829
9.25268e+06
50.1136
984785
9.20434e+06
-393.893
1.04952e+06
9.16409e+06
161.735
1.13673e+06
9.1141e+06
7639.73
1.27083e+06
9.01439e+06
15195.2
1.48957e+06
8.85663e+06
11294.4
1.73327e+06
8.64128e+06
727.509
1.97307e+06
8.40167e+06
-3933.92
2.18579e+06
8.14081e+06
1701.3
2.34445e+06
7.83835e+06
8976.07
2.45012e+06
7.44029e+06
6663.18
2.47962e+06
6.9456e+06
931.237
2.42518e+06
6.45274e+06
3245.05
2.26439e+06
6.03497e+06
-5607.76
2.11799e+06
5.87255e+06
9446.68
2.03707e+06
5.76642e+06
17481.5
1.99317e+06
5.59507e+06
26166.7
1.82979e+06
5.34345e+06
23190.7
1.52063e+06
5.10508e+06
7789.4
1.14426e+06
4.94018e+06
-20115.5
750536
4.86692e+06
-54381.2
370471
4.88413e+06
-83934.6
38800
4.97774e+06
-104222
-227892
5.12296e+06
-120187
-436157
5.29668e+06
-132286
-600568
5.48187e+06
-139635
-727582
5.66576e+06
-142821
-820694
5.83978e+06
-144285
-885341
5.99965e+06
-145911
-927245
6.14537e+06
-149180
-951566
6.27416e+06
-152343
-959109
6.39538e+06
-161797
-960638
6.48911e+06
-160000
-941824
-188207
-945301
9.99923e+06
18004.3
9.9954e+06
53481.5
9.98887e+06
89869.5
9.97952e+06
126909
9.96723e+06
164804
9.95183e+06
204388
9.93313e+06
245103
9.91089e+06
287801
9.88484e+06
332531
9.85468e+06
379287
9.82011e+06
428208
9.78091e+06
479771
9.7367e+06
533545
9.68719e+06
589360
9.63263e+06
646747
9.5731e+06
705213
9.50949e+06
763709
9.44291e+06
821365
9.37553e+06
876959
9.31056e+06
930762
9.25212e+06
985299
9.20293e+06
1.04826e+06
9.165e+06
1.13513e+06
9.12975e+06
1.26695e+06
9.06346e+06
1.47817e+06
8.91694e+06
1.74234e+06
8.70219e+06
2.01387e+06
8.43553e+06
2.23039e+06
8.12956e+06
2.36914e+06
7.79425e+06
2.44507e+06
7.41412e+06
2.46691e+06
6.96453e+06
2.42168e+06
6.48876e+06
2.33193e+06
6.05444e+06
2.23013e+06
5.77282e+06
2.13005e+06
5.65686e+06
2.00514e+06
5.615e+06
1.79917e+06
5.58058e+06
1.51418e+06
5.55758e+06
1.19644e+06
5.55247e+06
872111
5.56377e+06
558699
5.59551e+06
278444
5.64921e+06
42539
5.71935e+06
-152945
5.80144e+06
-315317
5.89022e+06
-446748
5.9793e+06
-549464
6.06234e+06
-627815
6.13541e+06
-687099
6.19894e+06
-736827
6.25703e+06
-776853
6.32744e+06
-842354
6.3986e+06
-849033
-1.0716e+06
9.9993e+06
10.5495
19199.1
9.99592e+06
21.7304
57027.9
9.9901e+06
28.665
95844.4
9.98176e+06
30.0694
135408
9.97077e+06
31.1851
175961
9.95695e+06
32.1826
218377
9.93989e+06
32.1729
262346
9.91972e+06
32.8947
308170
9.89614e+06
35.8691
356311
9.86841e+06
40.5037
407244
9.83612e+06
45.5595
460734
9.79926e+06
51.157
516899
9.75712e+06
58.0344
576008
9.70959e+06
67.6392
637275
9.65598e+06
79.4054
700805
9.59666e+06
92.5912
765055
9.53202e+06
106.033
828924
9.46386e+06
114.591
890159
9.39535e+06
123.331
946123
9.33267e+06
96.5919
994211
9.2849e+06
125.944
1.03328e+06
9.26425e+06
0.0757328
1.07084e+06
9.27274e+06
945.194
1.12788e+06
9.30907e+06
3160.9
1.23216e+06
9.28823e+06
9814.6
1.50157e+06
9.13394e+06
10064.8
1.87847e+06
8.8815e+06
1973.07
2.22435e+06
8.59524e+06
-2617.04
2.47534e+06
8.29969e+06
-1826.52
2.64243e+06
7.99184e+06
447.649
2.75805e+06
7.64239e+06
-1146.25
2.83068e+06
7.22569e+06
-5272.27
2.84756e+06
6.72734e+06
-14380.2
2.77729e+06
6.21522e+06
-19250
2.64923e+06
5.79931e+06
-16949.1
2.46959e+06
5.54909e+06
-7668.29
2.25056e+06
5.40806e+06
2373.6
1.96783e+06
5.31048e+06
3920.91
1.6135e+06
5.24965e+06
-5350.39
1.20948e+06
5.23814e+06
-25060.2
785980
5.27564e+06
-49555.6
381296
5.35212e+06
-72055.1
33185.1
5.45413e+06
-89000.7
-241831
5.57106e+06
-100597
-452993
5.69336e+06
-107383
-615427
5.81306e+06
-111526
-735131
5.92489e+06
-115131
-816301
6.02726e+06
-120828
-865532
6.1214e+06
-129967
-890065
6.21295e+06
-143618
-898335
6.30449e+06
-155985
-893833
6.41455e+06
-175709
-894421
6.50532e+06
-160903
-871321
-203830
-914253
9.99931e+06
19197.4
9.99591e+06
57022.1
9.99009e+06
95838.9
9.98176e+06
135402
9.97076e+06
175954
9.95695e+06
218370
9.93988e+06
262339
9.9197e+06
308162
9.89613e+06
356303
9.86839e+06
407236
9.83611e+06
460725
9.79926e+06
516889
9.75712e+06
575997
9.70959e+06
637262
9.65598e+06
700791
9.59666e+06
765039
9.53202e+06
828906
9.46386e+06
890133
9.39533e+06
946123
9.33259e+06
994148
9.28472e+06
1.03387e+06
9.26362e+06
1.06993e+06
9.27731e+06
1.12287e+06
9.3165e+06
1.23148e+06
9.30317e+06
1.50197e+06
9.16109e+06
1.89501e+06
8.92953e+06
2.24789e+06
8.6578e+06
2.4999e+06
8.35857e+06
2.66689e+06
8.02557e+06
2.77884e+06
7.64913e+06
2.84249e+06
7.21509e+06
2.85066e+06
6.73154e+06
2.80115e+06
6.24293e+06
2.69937e+06
5.81228e+06
2.54353e+06
5.49044e+06
2.319e+06
5.27968e+06
2.01189e+06
5.16244e+06
1.63487e+06
5.12932e+06
1.22365e+06
5.16748e+06
808206
5.24887e+06
427002
5.34894e+06
105592
5.45366e+06
-151736
5.55559e+06
-355701
5.64844e+06
-515385
5.72681e+06
-636068
5.79287e+06
-729773
5.85892e+06
-813691
5.94666e+06
-903851
6.08138e+06
-1.01438e+06
6.297e+06
-1.14785e+06
6.60692e+06
-1.32757e+06
7.05802e+06
-1.46077e+06
-1.85749e+06
9.9994e+06
8.75499
20218.4
9.99649e+06
16.2831
60069
9.99149e+06
23.0462
100982
9.98429e+06
24.4984
142736
9.97457e+06
25.5372
185820
9.96273e+06
26.3458
230357
9.94796e+06
26.1214
277268
9.93017e+06
26.5344
326122
9.90881e+06
29.1107
377841
9.88389e+06
33.1328
432352
9.8547e+06
37.6446
490121
9.82052e+06
42.2144
551313
9.781e+06
48.3232
615793
9.73508e+06
56.5257
683511
9.68249e+06
67.403
753785
9.62255e+06
80.0224
825449
9.55513e+06
90.1449
896841
9.48144e+06
102.785
964381
9.40506e+06
96.8499
1.02307e+06
9.33459e+06
155.889
1.06522e+06
9.28651e+06
215.707
1.08182e+06
9.28293e+06
1344.22
1.07383e+06
9.36578e+06
3296.67
1.0422e+06
9.5607e+06
4656.82
1.03325e+06
9.62045e+06
10705.8
1.43181e+06
9.44406e+06
9567.93
2.04575e+06
9.13903e+06
1185.36
2.52865e+06
8.79206e+06
-1963.56
2.82467e+06
8.44498e+06