/*--------------------------------*- C++ -*----------------------------------*\
| =========                 |                                                 |
| \\      /  F ield         | OpenFOAM: The Open Source CFD Toolbox           |
|  \\    /   O peration     | Version:  4.1                                   |
|   \\  /    A nd           | Web:      www.OpenFOAM.org                      |
|    \\/     M anipulation  |                                                 |
\*---------------------------------------------------------------------------*/
FoamFile
{
    version     2.0;
    format      ascii;
    class       volVectorField;
    location    "97";
    object      U;
}
// * * * * * * * * * * * * * * * * * * * * * * * * * * * * * * * * * * * * * //

dimensions      [0 1 -1 0 0 0 0];

internalField   nonuniform List<vector> 
4432
(
(39.982 2.04476e-05 0.0497339)
(39.92 6.23791e-05 0.088148)
(39.8254 0.000108193 0.114979)
(39.6957 0.000126483 0.140763)
(39.5308 0.000127194 0.167791)
(39.3314 0.000139978 0.196296)
(39.0965 0.000153958 0.226512)
(38.8248 0.000149816 0.257876)
(38.5151 0.000140492 0.290342)
(38.1666 0.000124649 0.323335)
(37.7798 0.000112819 0.35503)
(37.3561 0.000154446 0.385977)
(36.8991 -3.33881e-05 0.409993)
(36.4253 -0.000135398 0.427216)
(35.9387 -0.00292891 0.41907)
(35.5508 -0.00694972 0.365535)
(35.2264 -0.00607133 0.411837)
(35.1084 -0.00366946 0.33316)
(35.1904 -0.00188962 0.254691)
(35.1607 0.00187478 0.398462)
(34.9274 -0.00136745 0.499712)
(34.5737 -0.01124 0.621226)
(34.1149 -0.021702 0.694595)
(33.5889 -0.030712 0.683346)
(32.9973 -0.0377514 0.666154)
(32.3627 -0.0435281 0.545911)
(31.7664 -0.0403879 0.356103)
(31.2307 -0.0274317 0.160233)
(30.7854 -0.0211322 0.0992856)
(30.4073 -0.0300335 0.15166)
(30.0232 -0.0537112 0.333965)
(29.5337 -0.081225 0.665551)
(28.8446 -0.0918253 0.86364)
(28.0152 -0.0679105 0.583789)
(27.2949 -0.0257843 -0.113283)
(26.6952 0.00401424 -0.494295)
(26.1854 0.0155961 -0.437786)
(25.6872 0.0144397 -0.362865)
(25.2474 0.00760157 -0.298999)
(24.9376 0.00204479 -0.235463)
(24.77 0.0029593 -0.25485)
(24.6503 0.0103289 -0.372935)
(24.565 0.0165387 -0.378715)
(24.5189 0.0227612 -0.365648)
(24.522 0.0294481 -0.379746)
(24.5845 0.0323326 -0.390358)
(24.7054 0.0349459 -0.39345)
(24.8617 0.0411005 -0.387411)
(25.0744 0.0471363 -0.374574)
(25.2921 0.0635405 -0.406982)
(25.6064 0.0600442 -0.316731)
(25.9277 0.0382066 -0.196554)
(26.1589 0.0254359 -0.222448)
(26.5825 0.0232688 -0.215308)
(39.982 2.04487e-05 0.0497364)
(39.92 6.23788e-05 0.0881609)
(39.8254 0.000108185 0.115077)
(39.6956 0.00012654 0.140834)
(39.5307 0.000127291 0.167771)
(39.3313 0.000140093 0.196286)
(39.0964 0.000154088 0.226406)
(38.8247 0.000150099 0.257698)
(38.515 0.000140339 0.290167)
(38.1667 0.000123793 0.323031)
(37.7798 0.000111794 0.354977)
(37.356 0.000153199 0.385792)
(36.8992 -3.41603e-05 0.410998)
(36.4201 -0.000138518 0.427587)
(35.9362 -0.00291344 0.426036)
(35.501 -0.00701273 0.375709)
(35.171 -0.00614806 0.362296)
(35.0913 -0.00370457 0.288898)
(35.1781 -0.00188099 0.247003)
(35.1768 0.00177862 0.409764)
(34.946 -0.00147553 0.4859)
(34.5906 -0.0113118 0.538971)
(34.1426 -0.0218185 0.577)
(33.614 -0.0311181 0.567887)
(33.0043 -0.0385593 0.557136)
(32.3354 -0.0452741 0.427173)
(31.6832 -0.0438389 0.251166)
(31.1037 -0.0316607 0.135407)
(30.6001 -0.0258508 0.073505)
(30.1359 -0.0367553 -0.00356043)
(29.7399 -0.0617048 -0.093883)
(29.3007 -0.0950866 -0.0682923)
(28.7346 -0.110611 0.181726)
(27.9335 -0.0901885 0.413603)
(27.1465 -0.0436597 0.226411)
(26.4114 -0.0108296 -0.0438974)
(25.7944 0.00409042 -0.0129826)
(25.2157 0.00567212 -0.059684)
(24.7128 0.00146197 -0.068687)
(24.3038 -0.00100683 -0.0438302)
(24.0523 0.00172692 -0.04694)
(23.8566 0.00976878 -0.103508)
(23.7042 0.0175639 -0.102385)
(23.6073 0.0254017 -0.122058)
(23.5979 0.0330272 -0.148622)
(23.6665 0.0372936 -0.197519)
(23.8055 0.0398748 -0.170708)
(24.0149 0.0450753 -0.121968)
(24.2668 0.0532087 -0.0810184)
(24.4995 0.0708565 -0.134628)
(25.0631 0.0520066 -0.231216)
(25.4678 0.0297531 -0.209029)
(25.7508 0.0172837 -0.235681)
(26.2515 0.0168424 -0.175653)
(40.0073 1.93139e-05 0.0167693)
(40.0321 5.0085e-05 0.0522286)
(40.0579 8.84349e-05 0.0887653)
(40.0806 0.000100421 0.125605)
(40.1007 0.000104014 0.163005)
(40.1193 0.000122093 0.201464)
(40.1363 0.000145053 0.241217)
(40.1505 0.000156413 0.282354)
(40.1606 0.000148273 0.324922)
(40.1656 0.000144839 0.368773)
(40.1639 0.000152466 0.413385)
(40.1519 0.000118185 0.457034)
(40.126 0.00028494 0.49739)
(40.0692 0.000207561 0.524776)
(39.9821 0.00356961 0.544589)
(39.731 0.00550991 0.518238)
(39.4395 0.00729043 0.401991)
(38.7808 0.00721911 0.324816)
(37.8685 -0.000723592 0.365057)
(37.1009 -0.00277312 0.422662)
(36.4421 6.09746e-05 0.492452)
(35.8578 0.0035617 0.580943)
(35.3511 0.00681791 0.672526)
(34.8624 0.00960505 0.772935)
(34.3893 0.0110589 0.85313)
(33.9221 0.0124556 0.874658)
(33.4437 0.0141206 0.85029)
(32.9287 0.0202648 0.820413)
(32.3252 0.0330222 0.786969)
(31.707 0.0393892 0.74718)
(31.0947 0.0410786 0.759019)
(30.4793 0.0382182 0.886357)
(29.9509 0.0301799 0.986479)
(29.546 0.013426 0.973589)
(29.1888 -0.0147536 0.942594)
(28.8416 -0.0535027 1.02308)
(28.5209 -0.0898889 1.07582)
(28.2072 -0.110017 1.04391)
(27.8647 -0.103966 0.915336)
(27.5107 -0.0801644 0.693758)
(27.186 -0.0749111 0.495584)
(27.014 -0.0927633 0.405327)
(26.8647 -0.108076 0.342046)
(26.7287 -0.121163 0.25728)
(26.6744 -0.131158 0.163255)
(26.7012 -0.13693 0.0772327)
(26.778 -0.144159 0.00562689)
(26.8959 -0.146817 -0.0572371)
(26.9743 -0.144368 -0.110977)
(27.1278 -0.191858 -0.126422)
(27.25 -0.158796 -0.312932)
(27.4391 -0.121875 -0.408364)
(27.6878 -0.0887349 -0.424755)
(28.0314 -0.0584326 -0.414249)
(40.0073 1.93139e-05 0.016767)
(40.0322 5.00849e-05 0.0522119)
(40.058 8.8435e-05 0.0887414)
(40.0806 0.000100422 0.125575)
(40.1007 0.000104015 0.162975)
(40.1194 0.000122101 0.201437)
(40.1364 0.000145037 0.241195)
(40.1505 0.000156498 0.282326)
(40.1606 0.00014795 0.324905)
(40.1654 0.000143863 0.368732)
(40.1639 0.000149888 0.413321)
(40.1519 0.00012114 0.457171)
(40.1256 0.000263189 0.497203)
(40.0737 0.00029091 0.527711)
(39.9825 0.00320051 0.537729)
(39.801 0.00533902 0.508109)
(39.494 0.00784097 0.419654)
(38.8188 0.00741906 0.315178)
(37.8855 -0.000728887 0.349133)
(37.095 -0.00260238 0.413655)
(36.4543 0.000161662 0.473189)
(35.8747 0.00370177 0.550952)
(35.3681 0.00709346 0.62841)
(34.888 0.0102522 0.713369)
(34.4258 0.0120826 0.78612)
(33.9815 0.0144409 0.805705)
(33.5201 0.0180677 0.813508)
(33.0127 0.0238908 0.822712)
(32.4785 0.033526 0.786213)
(31.9561 0.0448996 0.706497)
(31.3772 0.0571697 0.680204)
(30.6973 0.0668751 0.784887)
(30.0377 0.0544041 0.866713)
(29.5772 0.0286614 0.887817)
(29.2316 -0.0102322 0.878026)
(28.9928 -0.0546246 0.921046)
(28.7728 -0.0936336 0.951976)
(28.5627 -0.114567 0.927051)
(28.3259 -0.114635 0.833305)
(28.1514 -0.10199 0.671931)
(27.9681 -0.0942041 0.487552)
(27.8897 -0.10314 0.38057)
(27.8072 -0.115574 0.308097)
(27.7317 -0.124307 0.221252)
(27.6922 -0.131439 0.123399)
(27.7139 -0.134977 0.0341469)
(27.7785 -0.139933 -0.0404168)
(27.8338 -0.144597 -0.117786)
(27.8739 -0.156491 -0.193238)
(27.9538 -0.184859 -0.235177)
(27.6796 -0.116966 -0.419339)
(27.8162 -0.0956145 -0.540655)
(28.0512 -0.0684171 -0.537979)
(28.3307 -0.039607 -0.531618)
(39.9994 1.87278e-05 0.023726)
(39.9896 4.53275e-05 0.0681993)
(39.9632 8.45688e-05 0.109627)
(39.9187 9.70422e-05 0.149383)
(39.8581 9.87275e-05 0.188861)
(39.7825 0.000114587 0.228998)
(39.6921 0.000132989 0.270309)
(39.5864 0.000135117 0.313146)
(39.4654 0.000121788 0.357807)
(39.3294 0.000111313 0.404415)
(39.1785 0.00011048 0.452902)
(39.0123 0.00014718 0.502964)
(38.8287 0.00020505 0.55428)
(38.6274 0.000540789 0.606289)
(38.3928 0.000752657 0.66201)
(38.1659 0.00213166 0.731033)
(37.8351 0.00262469 0.773513)
(37.4993 0.00429604 0.883935)
(37.1586 0.00211069 1.04504)
(36.7704 0.00165808 1.15181)
(36.3311 0.00275844 1.19879)
(35.8713 0.00477733 1.21859)
(35.4222 0.00752134 1.24901)
(34.9707 0.0116266 1.29289)
(34.5144 0.0139661 1.33615)
(34.0455 0.0176061 1.33586)
(33.5274 0.0245223 1.29906)
(32.9339 0.0345415 1.28523)
(32.2442 0.0432871 1.23651)
(31.5071 0.0395839 1.212)
(30.6989 0.0348668 1.32978)
(29.8676 0.0396453 1.50751)
(29.1499 0.0571658 1.58588)
(28.4653 0.0839062 1.52381)
(27.8199 0.0967473 1.25697)
(27.4758 0.0210865 1.16886)
(27.0915 -0.0556766 1.18523)
(26.6908 -0.0812193 1.06861)
(26.2446 -0.0711104 0.947189)
(25.9551 -0.0343379 0.664149)
(25.8039 -0.0459354 0.517628)
(25.7454 -0.0833762 0.502632)
(25.6802 -0.104645 0.38479)
(25.6069 -0.110179 0.207784)
(25.6044 -0.112203 0.0408655)
(25.6773 -0.111107 -0.100336)
(25.7928 -0.112743 -0.213229)
(25.96 -0.111785 -0.309214)
(26.1514 -0.11869 -0.337102)
(26.5134 -0.0988344 -0.510631)
(26.7877 -0.0508949 -0.551759)
(26.9627 -0.0359836 -0.502096)
(27.1039 -0.0351826 -0.49348)
(27.4317 -0.0380535 -0.55097)
(39.9994 1.87277e-05 0.0237252)
(39.9897 4.53275e-05 0.0681931)
(39.9632 8.45689e-05 0.109619)
(39.9187 9.70422e-05 0.149375)
(39.858 9.87277e-05 0.18885)
(39.7825 0.000114588 0.228983)
(39.692 0.000132991 0.27029)
(39.5863 0.000135113 0.313117)
(39.4653 0.00012181 0.357777)
(39.3293 0.000111182 0.404377)
(39.1784 0.000109985 0.452867)
(39.0123 0.000146837 0.502972)
(38.8293 0.000203936 0.554198)
(38.627 0.000541289 0.606169)
(38.3988 0.00075204 0.659659)
(38.1452 0.0020968 0.723697)
(37.8456 0.00230807 0.791712)
(37.5051 0.00455101 0.888908)
(37.1568 0.0022254 1.03882)
(36.7758 0.00172376 1.13866)
(36.3434 0.00286175 1.18052)
(35.8905 0.00495964 1.19278)
(35.4491 0.00790854 1.21313)
(34.9992 0.0126548 1.26745)
(34.5369 0.0155254 1.31665)
(34.067 0.0197988 1.32225)
(33.5497 0.0277429 1.31644)
(32.976 0.0386612 1.32539)
(32.3534 0.0484963 1.30204)
(31.6616 0.050648 1.25816)
(30.8161 0.0448388 1.36821)
(29.9769 0.0465372 1.5429)
(29.2537 0.0678382 1.57077)
(28.6575 0.0900449 1.40014)
(28.1758 0.0814651 1.15761)
(27.7917 0.0303337 0.944389)
(27.4426 -0.0197467 0.782265)
(27.079 -0.0459244 0.638271)
(26.7182 -0.041742 0.49356)
(26.4657 -0.0156096 0.259558)
(26.2412 -0.0256155 0.17857)
(26.1613 -0.0546511 0.124951)
(26.0772 -0.0732973 -0.0096524)
(25.9839 -0.0820174 -0.17628)
(25.9569 -0.0861272 -0.334985)
(26.0096 -0.0859213 -0.468338)
(26.1033 -0.086133 -0.577923)
(26.2365 -0.0857577 -0.635664)
(26.402 -0.0888664 -0.70951)
(26.684 -0.0706626 -0.802871)
(26.9073 -0.0445403 -0.694774)
(27.0771 -0.0343422 -0.596727)
(27.2353 -0.0303303 -0.559668)
(27.5416 -0.0319863 -0.687873)
(39.9991 1.85109e-05 0.0298864)
(39.9882 4.39788e-05 0.0882471)
(39.9617 8.09573e-05 0.146396)
(39.9182 9.24063e-05 0.205509)
(39.8587 9.27102e-05 0.266223)
(39.7834 0.000107525 0.328884)
(39.6917 0.000125155 0.39366)
(39.5824 0.000127249 0.460682)
(39.4547 0.000115362 0.53007)
(39.3079 0.000105698 0.60186)
(39.141 0.000108228 0.676038)
(38.9529 0.000140588 0.75267)
(38.7414 0.000172349 0.831981)
(38.5048 0.000336232 0.915237)
(38.2383 0.000356416 1.00508)
(37.9492 0.001451 1.10551)
(37.6199 0.00159749 1.23969)
(37.22 0.00143394 1.30551)
(36.8636 0.00173653 1.36572)
(36.5319 0.00267132 1.44977)
(36.1795 0.00373436 1.53605)
(35.8009 0.00410779 1.59465)
(35.3864 0.00424125 1.6529)
(34.918 0.00527239 1.72552)
(34.4181 0.00431546 1.81025)
(33.8813 0.0040773 1.86072)
(33.2506 0.00860675 1.9047)
(32.5267 0.014502 2.00184)
(31.6975 0.0133251 2.09789)
(30.6889 0.0116416 2.18709)
(29.6302 0.0131251 2.34318)
(28.7236 0.0205582 2.41668)
(27.938 0.0372637 2.34904)
(27.2549 0.0610539 2.03062)
(26.9877 0.0624517 1.48934)
(26.9095 -0.0148063 1.56234)
(26.6238 -0.0743817 1.73394)
(26.1591 -0.088658 1.67599)
(25.5549 -0.0689568 1.38179)
(25.1758 -0.0192823 0.849185)
(24.9667 -0.0318008 0.649842)
(24.933 -0.059033 0.666375)
(24.8469 -0.0741814 0.585033)
(24.782 -0.0691613 0.37168)
(24.8105 -0.0612122 0.174656)
(24.9187 -0.0551971 0.00867285)
(25.0638 -0.0524966 -0.135801)
(25.2526 -0.0443595 -0.250014)
(25.4684 -0.046156 -0.394266)
(25.7459 -0.0608043 -0.530137)
(26.1564 -0.0608344 -0.609968)
(26.4648 -0.0554941 -0.651795)
(26.6939 -0.050222 -0.712407)
(27.1513 -0.0398113 -0.786158)
(39.9991 1.85109e-05 0.029886)
(39.9883 4.39788e-05 0.088247)
(39.9617 8.09573e-05 0.146394)
(39.9182 9.24064e-05 0.205504)
(39.8586 9.27105e-05 0.266216)
(39.7834 0.000107525 0.328874)
(39.6916 0.000125156 0.393649)
(39.5824 0.00012725 0.460672)
(39.4546 0.000115364 0.53006)
(39.3078 0.000105706 0.601848)
(39.141 0.000108214 0.676031)
(38.9529 0.000140661 0.752642)
(38.7416 0.000171959 0.831927)
(38.5047 0.000338112 0.914912)
(38.2402 0.000356879 1.00452)
(37.9475 0.00147313 1.10472)
(37.6331 0.00149033 1.23516)
(37.2306 0.00137823 1.33283)
(36.8684 0.0016924 1.3702)
(36.5395 0.00270897 1.43837)
(36.1888 0.0038975 1.51701)
(35.8108 0.00439588 1.57001)
(35.3826 0.00443238 1.62927)
(34.9053 0.00505932 1.73454)
(34.4157 0.00416648 1.82085)
(33.8725 0.0039375 1.88493)
(33.221 0.00966053 1.98749)
(32.4858 0.0164898 2.1229)
(31.6713 0.015113 2.2328)
(30.6823 0.0131634 2.31413)
(29.6734 0.0136725 2.40775)
(28.8203 0.0198356 2.47535)
(28.0795 0.0353279 2.47311)
(27.3947 0.0686619 2.25682)
(27.0224 0.080351 1.72284)
(26.8444 -0.00422773 1.43162)
(26.5656 -0.0764364 1.31076)
(26.1862 -0.12418 1.17522)
(25.7664 -0.127384 1.03937)
(25.3953 -0.0573076 0.644471)
(25.1882 -0.0306321 0.418214)
(25.0912 -0.0487067 0.36025)
(24.9768 -0.0557072 0.193344)
(24.8864 -0.0511968 -0.0212789)
(24.8958 -0.0437269 -0.210308)
(24.9884 -0.0388477 -0.377142)
(25.1334 -0.0356125 -0.52039)
(25.3245 -0.0320755 -0.642478)
(25.5429 -0.0241292 -0.745478)
(25.8512 -0.0351804 -0.849644)
(26.2138 -0.0542764 -0.878765)
(26.5071 -0.0619085 -0.892652)
(26.745 -0.0658421 -0.959061)
(27.2536 -0.0585103 -1.03324)
(39.9991 1.83815e-05 0.0368873)
(39.9884 4.53352e-05 0.109749)
(39.9623 8.24324e-05 0.182992)
(39.9198 9.26145e-05 0.257194)
(39.8616 9.16129e-05 0.332652)
(39.7881 0.000105455 0.409799)
(39.6988 0.000122528 0.489061)
(39.5926 0.000124115 0.570862)
(39.4687 0.000111751 0.655608)
(39.3264 9.9828e-05 0.743676)
(39.1649 0.000102323 0.83544)
(38.9831 0.000118736 0.931392)
(38.7796 0.00016334 1.03227)
(38.5523 0.000194102 1.13961)
(38.3017 0.000408433 1.25551)
(38.0208 0.000417479 1.38459)
(37.7333 0.00191355 1.52901)
(37.3623 0.00380059 1.67065)
(36.9376 0.00362296 1.74242)
(36.535 0.00392704 1.80314)
(36.1505 0.00545007 1.88526)
(35.7518 0.00453799 1.97064)
(35.309 0.00208931 2.11149)
(34.7858 -0.000725129 2.25231)
(34.2111 -0.00707624 2.38633)
(33.5572 -0.0109108 2.50973)
(32.7535 -0.00552442 2.6441)
(31.871 0.0014784 2.86502)
(30.9064 -0.000345634 3.1029)
(29.8504 -0.00213315 3.25838)
(28.8691 0.00244933 3.29672)
(28.0248 0.0147683 3.205)
(27.2798 0.0345178 2.91813)
(26.7194 0.0685017 2.24414)
(26.6785 0.101473 1.36285)
(26.5151 -0.0394015 1.45986)
(26.3108 -0.238968 2.24278)
(25.679 -0.359393 2.69625)
(24.9991 -0.348308 2.62083)
(24.4979 -0.156297 1.58133)
(24.2264 -0.0969766 0.947595)
(24.2665 -0.112013 0.810004)
(24.2004 -0.122368 0.599197)
(24.1825 -0.112834 0.287407)
(24.2521 -0.105601 0.0221712)
(24.3881 -0.10208 -0.204065)
(24.5523 -0.104394 -0.393581)
(24.7965 -0.098485 -0.599006)
(24.9934 -0.0762266 -0.753337)
(25.2237 -0.104248 -0.849748)
(25.5238 -0.125532 -0.97333)
(25.8428 -0.141097 -1.02001)
(26.1111 -0.150876 -1.04096)
(26.5613 -0.132217 -1.05914)
(39.9991 1.83815e-05 0.0368866)
(39.9884 4.53352e-05 0.109747)
(39.9623 8.24325e-05 0.182987)
(39.9197 9.26144e-05 0.257188)
(39.8615 9.16132e-05 0.332644)
(39.7881 0.000105459 0.409791)
(39.6988 0.000122537 0.489051)
(39.5925 0.000124135 0.570852)
(39.4686 0.000111763 0.655597)
(39.3263 9.9922e-05 0.743664)
(39.1649 0.000102116 0.835427)
(38.9831 0.000119875 0.931367)
(38.7796 0.000166688 1.03225)
(38.5525 0.000197723 1.13947)
(38.3014 0.000422754 1.25536)
(38.0238 0.000393805 1.38391)
(37.7274 0.00204909 1.52908)
(37.3874 0.00343812 1.68438)
(36.9783 0.00332969 1.74679)
(36.5639 0.00397154 1.79729)
(36.169 0.00605474 1.87784)
(35.7567 0.00589802 1.97182)
(35.2643 0.00216496 2.10894)
(34.7382 -0.00105273 2.24815)
(34.1792 -0.00730816 2.38004)
(33.4825 -0.0114887 2.5326)
(32.6815 -0.00475783 2.72652)
(31.846 0.00270416 2.96403)
(30.9254 0.00051808 3.16629)
(29.917 -0.00209323 3.2911)
(28.9604 0.00156558 3.30867)
(28.1291 0.0133704 3.23953)
(27.4404 0.0305529 3.03719)
(26.9499 0.0670408 2.52913)
(26.8812 0.138288 1.72174)
(26.8505 -0.0175194 1.42135)
(26.6275 -0.311595 1.46961)
(26.136 -0.489167 1.56037)
(25.5277 -0.575978 1.45631)
(24.991 -0.47888 1.03554)
(24.7094 -0.180989 0.612261)
(24.6609 -0.113721 0.365832)
(24.5802 -0.0968607 0.0786837)
(24.5488 -0.0836291 -0.228509)
(24.6217 -0.079252 -0.492801)
(24.7798 -0.0816032 -0.726021)
(24.9797 -0.0860901 -0.93005)
(25.2129 -0.0941542 -1.11861)
(25.4146 -0.0937847 -1.22473)
(25.6842 -0.10547 -1.44651)
(25.8052 -0.0836751 -1.42693)
(26.022 -0.0910709 -1.38902)
(26.2646 -0.0973106 -1.41163)
(26.6482 -0.0597247 -1.46766)
(39.9991 1.774e-05 0.043886)
(39.9887 4.23402e-05 0.130605)
(39.9632 7.61168e-05 0.217944)
(39.9219 8.59223e-05 0.306664)
(39.8656 8.57096e-05 0.397212)
(39.7947 9.99288e-05 0.490198)
(39.7086 0.000116551 0.586167)
(39.6061 0.000117825 0.685622)
(39.4864 0.000105497 0.789023)
(39.3489 9.3929e-05 0.8968)
(39.1928 9.61039e-05 1.00938)
(39.0173 0.000113046 1.12728)
(38.8213 0.00014864 1.25122)
(38.604 0.000180995 1.38231)
(38.3655 0.000287093 1.52232)
(38.1053 0.000397686 1.67399)
(37.8304 0.00118826 1.83828)
(37.54 0.00343746 2.03296)
(37.1977 0.00596421 2.16726)
(36.7902 0.00647309 2.25325)
(36.3421 0.0070343 2.32486)
(35.8238 0.00326982 2.43076)
(35.2998 -0.0025988 2.603)
(34.7747 -0.00786988 2.82386)
(34.1612 -0.0169461 3.06753)
(33.4098 -0.0195606 3.33065)
(32.4389 -0.00937155 3.56462)
(31.4172 0.00476833 3.82899)
(30.4267 0.00715903 4.09368)
(29.4248 0.00517744 4.22347)
(28.4829 0.00964746 4.16826)
(27.6301 0.0268007 3.95581)
(26.7883 0.0608804 3.52636)
(26.068 0.167239 2.64199)
(25.8357 0.365683 1.70087)
(22.2883 0.0223056 2.93303)
(22.5179 -0.35166 2.78709)
(22.3814 -0.711272 2.51964)
(21.9613 -1.11463 2.55726)
(22.2251 -0.872562 1.25243)
(22.7221 -0.327356 1.00334)
(22.7649 -0.449929 1.2909)
(22.8283 -0.376415 0.926655)
(23.0162 -0.313176 0.517871)
(23.2282 -0.29441 0.179567)
(23.4272 -0.296657 -0.109177)
(23.6426 -0.297388 -0.367055)
(23.8491 -0.308916 -0.588008)
(24.1156 -0.289184 -0.754992)
(24.3241 -0.26931 -0.901779)
(24.5112 -0.247828 -1.01828)
(24.7094 -0.232096 -1.08325)
(24.8659 -0.224792 -1.11428)
(25.078 -0.198641 -1.11107)
(39.9992 1.77386e-05 0.043885)
(39.9887 4.2347e-05 0.130602)
(39.9632 7.60875e-05 0.217938)
(39.9219 8.60467e-05 0.306657)
(39.8656 8.51657e-05 0.397205)
(39.7947 9.82764e-05 0.490189)
(39.7086 0.000114647 0.586156)
(39.6061 0.000115887 0.685611)
(39.4864 0.000103564 0.789012)
(39.3488 9.20844e-05 0.89679)
(39.1928 9.40877e-05 1.00937)
(39.0173 0.000111953 1.12726)
(38.8213 0.000151548 1.25121)
(38.6041 0.000185195 1.38227)
(38.3654 0.000299072 1.52228)
(38.1065 0.000382574 1.6735)
(37.8309 0.00128222 1.83906)
(37.5483 0.00307935 2.02091)
(37.2382 0.00565897 2.17396)
(36.8506 0.00664106 2.2823)
(36.3876 0.00816981 2.37688)
(35.8758 0.0046468 2.50594)
(35.3113 -0.00274471 2.64031)
(34.7392 -0.00803478 2.82534)
(34.0944 -0.0176589 3.05253)
(33.2987 -0.0195466 3.32033)
(32.3805 -0.00872669 3.57818)
(31.4615 0.00419175 3.86808)
(30.5114 0.00589001 4.10328)
(29.5168 0.00393989 4.21824)
(28.5876 0.00852004 4.16729)
(27.7766 0.0247168 3.99401)
(27.0804 0.055881 3.65068)
(26.5553 0.204262 2.9795)
(26.5858 0.707584 2.02863)
(27.1013 1.14287 0.976107)
(27.5549 1.07274 0.787688)
(27.1767 0.751817 0.96959)
(26.3728 0.43732 1.02533)
(25.8952 -0.0405371 0.776155)
(24.5675 -0.293137 0.716192)
(24.4317 -0.328432 0.480586)
(24.4255 -0.241206 0.100708)
(24.3924 -0.171316 -0.261174)
(24.3608 -0.139923 -0.565479)
(24.3288 -0.120137 -0.829316)
(24.2939 -0.0939182 -1.06507)
(24.2523 -0.064637 -1.26624)
(24.2335 -0.0336251 -1.43432)
(24.1895 0.0228145 -1.57731)
(24.2781 0.0915692 -1.61375)
(24.3308 0.153507 -1.64028)
(24.3754 0.199179 -1.65221)
(24.4707 0.297253 -1.66556)
(39.9992 1.73221e-05 0.0506463)
(39.9891 4.26704e-05 0.150742)
(39.9647 7.69075e-05 0.25173)
(39.9251 8.57686e-05 0.35458)
(39.8713 8.4402e-05 0.459768)
(39.8035 9.72806e-05 0.567909)
(39.721 0.000112795 0.679581)
(39.6227 0.000113661 0.79535)
(39.5077 0.000101416 0.915758)
(39.3753 9.03091e-05 1.0413)
(39.225 9.11586e-05 1.17247)
(39.0558 0.000108189 1.30974)
(38.8671 0.00013864 1.45369)
(38.6583 0.000181299 1.60503)
(38.4297 0.000226959 1.7647)
(38.183 0.000382004 1.93393)
(37.9194 0.000603122 2.11302)
(37.6477 0.00176992 2.30625)
(37.3616 0.00257576 2.48946)
(37.0405 0.00114461 2.66603)
(36.6605 -0.000150113 2.82853)
(36.1977 -0.00127978 3.03456)
(35.5927 -0.00537637 3.20495)
(34.9853 -0.0148504 3.43248)
(34.3655 -0.0268737 3.8082)
(33.6031 -0.0322622 4.27286)
(32.5905 -0.0100353 4.65825)
(31.4452 0.0168048 4.87543)
(30.3518 0.0186292 5.06215)
(29.284 0.0124809 5.16123)
(28.2978 0.0186444 5.08908)
(27.4021 0.0369704 4.83333)
(26.4089 0.0840696 4.46283)
(25.7001 0.271074 3.879)
(19.8277 0.251073 0.556026)
(19.5304 0.0195322 2.95413)
(19.6207 -0.183499 5.47005)
(19.2815 -0.079578 5.13786)
(18.971 -0.156914 4.2632)
(18.5337 -0.445058 3.3327)
(19.8256 -0.473523 1.80962)
(19.9386 -0.395988 1.13849)
(20.0913 -0.266216 0.775077)
(20.3828 -0.183494 0.474133)
(20.6194 -0.137628 0.192387)
(20.7551 -0.0964526 -0.064181)
(20.842 -0.051522 -0.304545)
(20.8926 -0.00655599 -0.529972)
(20.9354 0.0276749 -0.726011)
(20.9855 0.0531538 -0.898937)
(21.0542 0.0666719 -1.04327)
(21.2086 0.0619999 -1.18111)
(21.3313 0.055896 -1.25912)
(21.7538 -0.0169976 -1.41022)
(39.9992 1.73207e-05 0.0506448)
(39.9892 4.26775e-05 0.150737)
(39.9647 7.68778e-05 0.25172)
(39.9251 8.58944e-05 0.354569)
(39.8713 8.38573e-05 0.459756)
(39.8035 9.56046e-05 0.567895)
(39.721 0.000110835 0.679566)
(39.6227 0.000111603 0.795334)
(39.5076 9.93935e-05 0.915742)
(39.3753 8.80176e-05 1.04129)
(39.2249 8.99778e-05 1.17246)
(39.0558 0.000108769 1.30972)
(38.8671 0.000139752 1.45367)
(38.6583 0.000183917 1.60499)
(38.4298 0.000234737 1.76467)
(38.1832 0.000390822 1.9336)
(37.9208 0.000618134 2.11264)
(37.6486 0.00178315 2.3011)
(37.3646 0.00255347 2.4905)
(37.0539 0.00116307 2.67969)
(36.6756 0.000487045 2.8666)
(36.2601 -0.00139947 3.05918)
(35.6635 -0.00606433 3.27012)
(34.9928 -0.0145322 3.48301)
(34.3078 -0.0279997 3.77721)
(33.4763 -0.0328411 4.20683)
(32.4574 -0.00836078 4.53978)
(31.4706 0.0138599 4.86239)
(30.4625 0.0164346 5.11661)
(29.4139 0.0105888 5.19631)
(28.4324 0.0173602 5.07342)
(27.5847 0.0351936 4.83411)
(26.8278 0.0916855 4.49332)
(26.109 0.424894 4.0249)
(26.4865 1.2187 3.60787)
(19.9477 0.0287395 2.92579)
(19.8991 0.122789 2.14072)
(19.6141 0.468495 1.48141)
(18.7823 0.60765 0.956146)
(18.2041 0.473539 0.587665)
(18.2923 0.244276 0.42684)
(18.2743 0.261712 0.110878)
(18.2816 0.390507 -0.292055)
(18.3846 0.494483 -0.638573)
(18.542 0.567338 -0.908524)
(18.7204 0.639853 -1.12346)
(18.9255 0.723167 -1.29179)
(19.1683 0.803801 -1.41679)
(19.4435 0.877914 -1.50146)
(19.7588 0.94742 -1.56627)
(20.0979 1.00677 -1.59473)
(20.5222 1.05177 -1.58353)
(20.8527 1.08631 -1.53922)
(21.5573 1.09242 -1.45055)
(39.9992 1.6312e-05 0.0570843)
(39.9897 3.75126e-05 0.169938)
(39.9666 6.66285e-05 0.283902)
(39.9292 7.46186e-05 0.40013)
(39.8783 7.33321e-05 0.519163)
(39.8142 8.55872e-05 0.641692)
(39.736 0.00010033 0.7684)
(39.6427 0.000101221 0.899961)
(39.5333 8.95247e-05 1.03702)
(39.407 7.80405e-05 1.18012)
(39.2633 7.79556e-05 1.32973)
(39.1013 9.33591e-05 1.48625)
(38.9201 0.000121974 1.64997)
(38.7194 0.000161245 1.82111)
(38.4994 0.000202584 1.99978)
(38.2613 0.000288743 2.186)
(38.0066 0.000367338 2.37892)
(37.7389 0.000672033 2.57861)
(37.4592 0.000335534 2.77984)
(37.1621 -0.0010355 2.98559)
(36.8345 -0.00289698 3.20747)
(36.4732 -0.00271475 3.481)
(36.0625 -1.62109e-05 3.7813)
(35.4596 -0.0104773 4.11023)
(34.7912 -0.0256081 4.57147)
(34.1329 -0.0360489 5.18442)
(33.3056 -0.0126673 5.70407)
(32.2081 0.0286144 6.02931)
(30.8884 0.0440926 6.20507)
(29.494 0.025392 6.19187)
(28.3708 0.0165533 5.92571)
(27.4709 0.019436 5.59051)
(26.626 0.0262994 5.40802)
(26.0423 0.139311 5.64708)
(25.3607 0.478045 6.6068)
(17.1925 0.0691008 3.00575)
(16.4672 0.0820681 2.09462)
(15.8811 0.111911 1.79064)
(15.0299 0.124749 1.5108)
(14.512 0.0546424 1.01675)
(14.2872 -0.0486493 0.345523)
(14.1419 -0.0865514 -0.0141361)
(14.2078 -0.0695374 -0.210756)
(14.4133 -0.0391708 -0.466764)
(14.7135 -0.0279595 -0.779342)
(15.0824 -0.0440747 -1.08996)
(15.5438 -0.0768475 -1.38362)
(16.14 -0.120707 -1.66976)
(16.8417 -0.182001 -1.94849)
(17.6452 -0.25427 -2.20564)
(18.5003 -0.32733 -2.42946)
(19.496 -0.393332 -2.63222)
(20.2778 -0.454589 -2.7633)
(21.7899 -0.55039 -2.9802)
(39.9992 1.6312e-05 0.0570827)
(39.9898 3.75126e-05 0.169932)
(39.9666 6.66286e-05 0.283892)
(39.9292 7.46174e-05 0.400118)
(39.8783 7.33412e-05 0.519151)
(39.8142 8.55259e-05 0.641679)
(39.736 0.00010046 0.768385)
(39.6426 0.000100337 0.899945)
(39.5332 8.70565e-05 1.037)
(39.407 7.4929e-05 1.1801)
(39.2633 7.58304e-05 1.32971)
(39.1013 9.30265e-05 1.48623)
(38.9201 0.000122285 1.64994)
(38.7195 0.000162203 1.82108)
(38.4995 0.000203773 1.99975)
(38.2614 0.00029295 2.18583)
(38.0069 0.000373663 2.3786)
(37.7387 0.00068192 2.57702)
(37.457 0.000357729 2.77788)
(37.1587 -0.00103401 2.98493)
(36.8333 -0.00281086 3.2127)
(36.478 -0.00288212 3.47753)
(36.0829 0.000760742 3.83645)
(35.5375 -0.00845922 4.15217)
(34.7961 -0.0303715 4.55831)
(34.0478 -0.0388976 5.08113)
(33.0428 -0.0195439 5.55552)
(31.915 0.017708 5.92454)
(30.8797 0.0356832 6.17288)
(29.7567 0.01824 6.21439)
(28.5714 0.0129864 5.97967)
(27.5785 0.02026 5.61238)
(26.7777 0.0271441 5.34646)
(25.9507 0.162663 5.37602)
(25.6256 0.669487 6.08615)
(24.5787 1.40343 6.32445)
(23.7312 1.5301 5.22617)
(22.3332 1.47812 3.7396)
(20.7569 1.40353 2.56829)
(19.6177 1.31451 1.69234)
(18.9377 1.20496 1.00932)
(18.5539 1.14406 0.490434)
(18.4338 1.13735 0.0989167)
(18.4911 1.15346 -0.217567)
(18.6618 1.169 -0.487232)
(18.9212 1.17673 -0.716168)
(19.2675 1.18136 -0.904185)
(19.6912 1.18185 -1.05994)
(20.1745 1.16996 -1.18907)
(20.7172 1.14482 -1.29935)
(21.292 1.11124 -1.38389)
(21.9497 1.07279 -1.44873)
(22.4714 1.03158 -1.48189)
(23.4064 0.941636 -1.51376)
(39.9993 1.57376e-05 0.0631211)
(39.9905 3.74335e-05 0.187944)
(39.9689 6.71154e-05 0.314074)
(39.9341 7.4166e-05 0.44286)
(39.8867 7.18281e-05 0.574949)
(39.8268 8.28301e-05 0.711135)
(39.7537 9.64262e-05 0.852209)
(39.6662 9.67317e-05 0.998952)
(39.5633 8.49267e-05 1.15208)
(39.4441 7.32882e-05 1.31221)
(39.3078 7.31123e-05 1.4798)
(39.1535 8.94179e-05 1.65512)
(38.9803 0.000117229 1.83824)
(38.7874 0.000152034 2.02894)
(38.5749 0.000190784 2.22662)
(38.3434 0.000236164 2.43034)
(38.0947 0.000272212 2.63863)
(37.8315 0.000329384 2.85045)
(37.5569 0.000225594 3.06433)
(37.2732 -6.3703e-05 3.28516)
(36.9818 -0.000704223 3.52566)
(36.6818 3.09407e-05 3.81928)
(36.3811 0.000543341 4.1869)
(36.0298 0.0182633 4.6851)
(35.4059 0.0142099 5.29633)
(34.8289 -0.00446803 5.92702)
(34.1925 -0.0125773 6.48851)
(33.3784 -0.00331337 7.12392)
(32.2779 0.0324994 7.61317)
(30.8873 0.0632234 7.7153)
(29.2355 0.055303 7.12351)
(27.5573 0.0217992 6.39614)
(26.3554 0.00385498 6.06501)
(25.2487 0.0207816 6.03181)
(25.0422 0.259847 7.23911)
(23.4964 0.28287 7.71412)
(21.7888 0.112864 6.39713)
(19.8511 -0.075844 4.60152)
(18.02 -0.194318 3.09003)
(16.7665 -0.276802 1.85957)
(16.0949 -0.379837 0.820801)
(15.8251 -0.484383 0.0135494)
(15.9015 -0.557402 -0.638725)
(16.306 -0.603024 -1.22032)
(16.9688 -0.65142 -1.75092)
(17.7892 -0.710953 -2.2159)
(18.6965 -0.760771 -2.60638)
(19.6561 -0.790877 -2.93115)
(20.6372 -0.806784 -3.20034)
(21.618 -0.814085 -3.41846)
(22.5541 -0.812692 -3.58369)
(23.4973 -0.805621 -3.69822)
(24.2145 -0.801064 -3.76744)
(25.3478 -0.799448 -3.79621)
(39.9993 1.57376e-05 0.0631192)
(39.9905 3.74333e-05 0.187937)
(39.969 6.71161e-05 0.314061)
(39.9341 7.41633e-05 0.442845)
(39.8867 7.18387e-05 0.574932)
(39.8268 8.27919e-05 0.711117)
(39.7537 9.6622e-05 0.85219)
(39.6662 9.59638e-05 0.998932)
(39.5632 8.25277e-05 1.15206)
(39.444 7.03557e-05 1.31219)
(39.3078 7.04857e-05 1.47977)
(39.1535 8.48267e-05 1.6551)
(38.9803 0.000113132 1.83822)
(38.7874 0.000150664 2.0289)
(38.5749 0.000186492 2.22658)
(38.3434 0.000230593 2.43024)
(38.0948 0.000271423 2.63848)
(37.8314 0.000330379 2.85004)
(37.5564 0.000237197 3.06433)
(37.272 -6.53236e-05 3.28588)
(36.981 -0.000640954 3.52895)
(36.6837 -0.000237008 3.81639)
(36.3855 0.00162481 4.19846)
(36.083 0.013315 4.65914)
(35.6222 0.0119437 5.25765)
(34.9375 -0.00656342 5.87016)
(34.1901 -0.0202256 6.56991)
(33.0345 -0.00964734 7.0874)
(31.8175 0.0255105 7.36736)
(30.6346 0.0533657 7.46081)
(29.334 0.0560057 7.26612)
(27.8893 0.0249832 6.66912)
(26.4854 -0.000596088 6.14835)
(25.0633 -0.0161386 6.19705)
(24.1322 0.159984 6.73132)
(24.0719 0.512665 7.07022)
(24.0508 0.709399 6.46859)
(23.5558 0.794426 5.35174)
(22.7687 0.844729 4.25204)
(22.0738 0.865514 3.25035)
(21.6066 0.845497 2.34848)
(21.3532 0.812075 1.59127)
(21.2936 0.789884 0.955943)
(21.4031 0.777451 0.406946)
(21.6399 0.753169 -0.0777828)
(21.9739 0.70633 -0.501255)
(22.3819 0.647226 -0.864598)
(22.8391 0.584446 -1.17728)
(23.3226 0.516221 -1.44891)
(23.8268 0.440576 -1.68818)
(24.3219 0.363238 -1.88283)
(24.8405 0.281608 -2.05383)
(25.2202 0.212796 -2.14011)
(25.822 0.0767569 -2.27705)
(39.9994 1.44843e-05 0.0686801)
(39.9913 3.08937e-05 0.204535)
(39.9717 5.40375e-05 0.341892)
(39.9398 5.93826e-05 0.482301)
(39.8964 5.70804e-05 0.626527)
(39.8415 6.77357e-05 0.77549)
(39.7743 8.07785e-05 0.930101)
(39.6935 8.02123e-05 1.09126)
(39.598 6.7399e-05 1.25982)
(39.4868 5.54403e-05 1.43645)
(39.359 5.39985e-05 1.62168)
(39.2133 6.77038e-05 1.81572)
(39.0484 9.27425e-05 2.01846)
(38.8633 0.000124184 2.22928)
(38.6574 0.000157851 2.44696)
(38.431 0.000193061 2.66957)
(38.1858 0.000223191 2.89445)
(37.925 0.000252085 3.11883)
(37.6552 0.000286631 3.34085)
(37.3847 0.000172941 3.56317)