/*--------------------------------*- C++ -*----------------------------------*\
| =========                 |                                                 |
| \\      /  F ield         | OpenFOAM: The Open Source CFD Toolbox           |
|  \\    /   O peration     | Version:  4.1                                   |
|   \\  /    A nd           | Web:      www.OpenFOAM.org                      |
|    \\/     M anipulation  |                                                 |
\*---------------------------------------------------------------------------*/
FoamFile
{
    version     2.0;
    format      ascii;
    class       volVectorField;
    location    "13";
    object      U;
}
// * * * * * * * * * * * * * * * * * * * * * * * * * * * * * * * * * * * * * //

dimensions      [0 1 -1 0 0 0 0];

internalField   nonuniform List<vector> 
4432
(
(-156864 5424.53 5313.25)
(-39219 6837.09 13310.1)
(9747.22 24479.6 100533)
(-6112.68 -10120.6 118876)
(-167168 38507.2 28422.4)
(-165114 37918.6 -67086.7)
(-225742 8769.83 28691.8)
(-264575 2694.56 69566.9)
(-245969 7355.92 75249.9)
(-207178 4559.31 50650.9)
(-217197 -1498.88 23208.6)
(-204213 -6908.16 6531.81)
(-154822 -8575.74 169.965)
(-126298 -5288.5 1077.82)
(-123518 356.669 4618.38)
(-131420 3229.15 -2577.33)
(-128120 1299.44 -18960.2)
(-107175 -118.14 -9657.5)
(-117487 -56.702 3028.21)
(-112023 -1277.9 -1142.8)
(-111552 -1088.74 -1454.39)
(-109988 -503.867 -1325.38)
(-108938 -623.266 -1563.68)
(-108220 -726.904 -1760.42)
(-107326 -782.726 -1921.59)
(-106482 -836.332 -2070.85)
(-105660 -883.514 -2217.86)
(-104825 -927.895 -2368.8)
(-103950 -969.011 -2518.04)
(-102992 -996.341 -2683.8)
(-101963 -1020.35 -2866.29)
(-100836 -1031.5 -3025.7)
(-99573.3 -1006.48 -3313.13)
(-98063.4 -1076.36 -3824.17)
(-96010.3 -1265.76 -4126.56)
(-93927.9 -1286.64 -4080.85)
(-92158.9 -1131.52 -4047.56)
(-90394.5 -1077.74 -4099.02)
(-88668.9 -1111.34 -4100.67)
(-87271.2 -1117.28 -3965.87)
(-86396.8 -1119.93 -3682.12)
(-86040 -1155.64 -3310.97)
(-86012.2 -1260.05 -2719.72)
(-86779.8 -1573.57 -1464.55)
(-88350.3 -1913.92 -955.128)
(-90745.8 -2575.38 -2012.96)
(-92734.6 -4027 -1222.89)
(-96396.5 -4669.91 2897.48)
(-108333 -5635.04 9541.75)
(-129534 -8677.98 16531.2)
(-153972 -6937.03 21416)
(-199854 436.541 23470.6)
(-241786 440.023 37683.4)
(-281855 -10535.5 54699.3)
(-148492 55936.8 167984)
(-20925 59912.9 113773)
(-34022 73123 154030)
(-14899.8 83825.2 201410)
(-18863.2 135405 248675)
(-67124.1 92396.1 152009)
(-157068 25872 52128.9)
(-239539 -3223.66 -50029.2)
(-200417 19062.9 -63122.9)
(-166585 21762.3 -28315.8)
(-174640 10466.7 -9667.85)
(-174093 -165.405 -1688.71)
(-164245 -5971.1 -522.132)
(-147303 -4560.91 4228.93)
(-148612 259.255 8360.78)
(-149033 1746.58 -21934.1)
(-118217 712.576 -29385.6)
(-114163 1965.9 1827.87)
(-117115 1639.02 2157)
(-115032 385.895 -1470.06)
(-117007 804.689 -2069.11)
(-114804 1431.77 -1530.49)
(-113867 1428.5 -1932.99)
(-113261 1476.64 -2110.05)
(-112491 1575.52 -2289.26)
(-111827 1684.9 -2462.94)
(-111215 1810.27 -2636.62)
(-110631 1949.11 -2819.73)
(-110059 2102.31 -3013.82)
(-109447 2280.83 -3219.43)
(-108770 2476.32 -3437.72)
(-108023 2697.21 -3660.9)
(-107159 2970.64 -3944.11)
(-106168 3163.55 -4327.75)
(-105162 3249.62 -4667.91)
(-104152 3527.46 -4788.49)
(-102936 4028.8 -4749.82)
(-101523 4467.58 -4828.23)
(-100198 4845.71 -5050.18)
(-99100.9 5296.75 -5151.16)
(-98437.1 5811.81 -5086.98)
(-98311.6 6353.31 -5042.22)
(-98558.9 6911.06 -5017.2)
(-99471.1 7437.28 -4695.01)
(-101760 8222.01 -4901.77)
(-104916 9139.67 -6378.94)
(-108003 9485.97 -7053.57)
(-114377 11531.3 -7620.5)
(-118707 16067 -10517.9)
(-119950 19667 -12427)
(-125875 20345.9 -11959.8)
(-135813 16289.3 -10838)
(-146403 8229.43 7510)
(-164112 2505.92 -3144.06)
(-133820 -36048 -173634)
(-89203.6 -22127.6 -155435)
(-69894.3 -8193.73 -143587)
(-78927.1 -30908.4 -166639)
(-190077 -1210.4 -101792)
(-265778 -7180.31 -82911.5)
(-317425 -16491.1 -30171.5)
(-272933 -12793.9 -65560.1)
(-269768 -22348.7 -181792)
(-199776 -21029.7 -86080.4)
(-203447 -4994.93 -11627.2)
(-197032 -3988.8 -35736.8)
(-179268 -3144.06 -29999.1)
(-174875 -1072.68 1804.44)
(-163378 -1730.33 14769.8)
(-149260 -701.617 3844.52)
(-150855 936.433 -5131.47)
(-154927 1420.15 1382.91)
(-152025 870.548 1507.29)
(-151020 -741.856 909.504)
(-148236 -898.093 870.829)
(-146973 -594.779 1064.72)
(-146064 -590.952 886.27)
(-145533 -644.758 748.129)
(-144989 -694.089 615.41)
(-144472 -745.774 493.776)
(-143938 -795.43 370.349)
(-143350 -848.033 214.909)
(-142707 -905.238 28.2722)
(-141996 -943.68 -204.081)
(-141195 -972.258 -457.588)
(-140412 -1011.12 -748.511)
(-139670 -972.816 -1264.76)
(-138623 -917.359 -1531.6)
(-137125 -1073.38 -1172.82)
(-135500 -1221.14 -1253.72)
(-134193 -1086.98 -2004.58)
(-132929 -976.037 -2306.18)
(-131578 -1029.27 -2117.12)
(-130146 -1053.66 -1696.48)
(-128583 -1018.17 -1323.26)
(-126668 -971.693 -1187.98)
(-124618 -935.487 -946.683)
(-122462 -896.089 -486.818)
(-119087 -593.837 -11.7383)
(-117124 28.6684 923.949)
(-118304 455.043 1907.09)
(-117705 1164.6 2107.48)
(-115486 3714.39 2414.98)
(-113136 6914.18 2498.87)
(-109704 9121.71 3495.06)
(-118149 9297.39 4573.16)
(-130085 3273.7 16878.7)
(-21701.7 -1894.93 6366.32)
(-76152.6 13964.3 66188)
(-14111.6 19142.3 140420)
(-65441.8 105066 -86202.5)
(-21445.8 158121 365479)
(64234.2 133026 307671)
(127647 125748 331851)
(56122.3 110978 298964)
(-95742.5 85747.4 186047)
(-170438 76498.8 80722.9)
(-181070 68203.8 89398.3)
(-201584 39815.2 62018.4)
(-201712 11640 5005.67)
(-191199 2260.56 -29161.3)
(-181910 1438.81 -4970.59)
(-168232 -1103.82 8146.38)
(-160691 736.903 -5941.54)
(-163598 2020.52 -3492.5)
(-163143 1567.89 1507.5)
(-154885 2035.64 2557.91)
(-154605 858.723 1202.01)
(-154504 780.145 903.864)
(-154000 1107.53 1253.14)
(-153937 1183.93 1097.27)
(-154297 1221.52 1079.31)
(-154708 1268.28 1052.17)
(-155267 1318.63 1036.07)
(-155920 1377.35 1025.56)
(-156631 1438.28 999.951)
(-157387 1498.93 950.037)
(-158157 1582.59 854.728)
(-158910 1679.15 707.743)
(-159711 1769.91 590.19)
(-160519 1951.92 511.401)
(-161168 2162.09 405.98)
(-161743 2164.78 241.613)
(-162290 2192.55 -113.21)
(-162456 2505 -621.7)
(-162574 2811.61 -929.822)
(-163035 2974.12 -842.943)
(-163463 3195.27 -503.222)
(-163640 3511.33 -314.253)
(-163442 3872.63 -466.287)
(-162898 4276.23 -645.321)
(-162263 4768.18 -571.146)
(-160864 5651.6 -557.719)
(-159387 6960 -1021.14)
(-158286 8376.13 -1927.58)
(-155346 10642.8 -3800.57)
(-150252 14514.7 -6923.21)
(-140266 17811 -10752.8)
(-127637 17522.2 -14385.7)
(-123224 14185.3 -19887.3)
(-130429 6155.14 2242.6)
(-59745.1 -582.645 1807.97)
(-141480 -43284.4 -127472)
(-129429 -25403.9 -111182)
(-117469 -5958.27 -69006)
(-176670 1157.57 28113.3)
(-190699 -3492.97 -7355.55)
(-221510 -23929.6 5016.87)
(-209144 -38541 7811.88)
(-204803 -29964.7 -40160.9)
(-207050 -27427.1 -50493.1)
(-211764 -11721.4 10209.9)
(-206607 -8276.2 -24337.2)
(-174766 -6701.35 -40175.9)
(-173014 -1922.5 -25571.9)
(-169077 -4400.38 -9835.97)
(-142104 -6807.13 -3352.33)
(-138962 -1444.87 -5212.98)
(-153534 1467.27 -1490.23)
(-152766 563.928 3341.58)
(-150838 278.289 675.152)
(-150897 -331.018 -287.645)
(-148916 -379.096 -294.016)
(-147578 -307.284 160.369)
(-146536 -351.362 -20.038)
(-145749 -421.942 -273.643)
(-144989 -498.852 -582.306)
(-144264 -587.677 -930.405)
(-143582 -677.421 -1296.99)
(-142942 -757.351 -1630.06)
(-142319 -835.438 -1851.88)
(-141622 -913.817 -2112.12)
(-140879 -1030.21 -2408)
(-140074 -1068.2 -2293.52)
(-139197 -842.509 -2616.08)
(-138105 -949.941 -4347.88)
(-135969 -1599 -5324.42)
(-134157 -1806.26 -4216.39)
(-133739 -1490.91 -3651.72)
(-133208 -1395.76 -3912.69)
(-132416 -1367.92 -3868.36)
(-131322 -1242.52 -3774.7)
(-129563 -1138.88 -3856.67)
(-127354 -1096.25 -3897.18)
(-124520 -1035.45 -3583.01)
(-121053 -745.173 -3387.41)
(-117469 -189.095 -3179.43)
(-114171 231.88 -1677.02)
(-110203 611.433 -324.242)
(-106106 1675.92 -661.411)
(-103242 2842.59 -255.495)
(-99779.7 2833.06 2187.08)
(-93602.6 2484.42 7671.18)
(-99116.4 2156.97 16132.4)
(-116310 -2913.2 33490.3)
(-40147.7 -3370.66 17227.1)
(-77511.7 -13068.9 -80605)
(-17258.6 -2572.98 12455.8)
(21341 13930.5 103825)
(-36416.9 28864.1 159785)
(84325.8 10544.8 3178.81)
(87664.9 51118 234074)
(61554.8 73957.5 315346)
(-58910.8 57602.7 199596)
(-115716 61257.6 76486)
(-128830 44312.5 75336.9)
(-144100 13918 21544.6)
(-151395 -727.762 -29058.7)
(-159451 1644.86 -35205.3)
(-157676 -1425.96 -21527.5)
(-153676 -3263.89 -14916.8)
(-154972 1084.48 -9412.98)
(-160831 1555.28 -544.72)
(-162469 498.021 1543.04)
(-159102 1137.09 2027.73)
(-159631 851.997 1247.1)
(-159399 765.433 1436.67)
(-159176 836.817 2065.11)
(-159335 861.263 2055.2)
(-159740 879.028 2058.22)
(-160182 901.72 2014.43)
(-160692 923.396 1949.03)
(-161227 955.476 1873.48)
(-161749 1006.54 1776.9)
(-162271 1065.8 1669.21)
(-162797 1131.03 1587.58)
(-163242 1169.54 1578.2)
(-163541 1257.88 1642.08)
(-163545 1610.01 1574.46)
(-163190 1733.9 1229.55)
(-162931 1203.48 656.639)
(-163245 913.999 227.279)
(-164479 1214.98 764.134)
(-166167 1477.02 1726.53)
(-167183 1658.86 1844.09)
(-167076 1874.28 1587.44)
(-165985 2053.61 1517.49)
(-164322 2181.46 1304.9)
(-161917 2327.15 1191.02)
(-158373 2730.52 1257.03)
(-153079 3445.4 1089.2)
(-145861 4039.37 892.91)
(-137484 4624.39 463.296)
(-127460 6103.61 -599.091)
(-114516 7611.21 -1623.74)
(-101878 6819.38 -589.731)
(-93590.1 4616.56 6102.55)
(-103832 2250.75 14653.6)
(-146602 -3451.25 32633.7)
(-87674.7 -3925.88 14613.2)
(-154701 -22706.8 -136937)
(-156855 -10547 -127184)
(-164213 1861.89 -103280)
(-188717 4364.4 -12603)
(-179944 -6091.95 32328.6)
(-172306 -28802.9 32724)
(-160993 -35462.2 49378)
(-170868 -30059 -20410.5)
(-195246 -22635.7 -66219.9)
(-188656 -10751.6 -51602.1)
(-144403 -10356.1 -57397.1)
(-136981 -5095.5 -40614.6)
(-144866 -1316.27 -27124.9)
(-146842 -1533.97 -20297.8)
(-145592 -1918.1 -9169.18)
(-144556 -692.547 2389.47)
(-146134 99.5257 5359.78)
(-144561 219.282 2523.29)
(-142280 -173.634 -454.714)
(-141080 -514.209 -854.528)
(-139128 -607.748 -595.461)
(-137611 -685.792 -151.151)
(-136268 -830.785 -202.957)
(-135068 -980.555 -403.559)
(-133866 -1120.56 -699.633)
(-132678 -1243.55 -954.819)
(-131473 -1344.66 -1100.14)
(-130161 -1466.48 -1326.17)
(-128595 -1660.06 -1708.26)
(-126587 -1781.29 -2079.65)
(-124482 -1914.74 -2296.08)
(-121936 -2323.59 -2673.68)
(-117171 -1843.56 -4134.81)
(-114588 60.1046 -5380.93)
(-118655 -244.228 -4008.77)
(-119935 -2747.04 -2619.4)
(-115898 -2614.02 -3177.62)
(-114286 -1168.97 -3682.9)
(-113838 -1241.66 -3850.47)
(-112325 -1499.77 -4295.31)
(-110774 -1308.99 -4826.94)
(-109424 -1148.79 -5368.43)
(-108482 -1147.25 -5846.21)
(-106918 -931.929 -5985.96)
(-105310 -429.263 -5508.1)
(-104450 -275.937 -4657.3)
(-103007 -226.064 -3987.86)
(-100837 324.546 -3593.45)
(-99209.3 776.001 -3575.81)
(-96939.5 479.311 -2670.57)
(-92817.5 42.7415 1259.11)
(-96873.2 -190.179 8630.89)
(-106492 -3365.09 26244.5)
(-27160.8 -2237.87 14432.5)
(-102952 1345.62 -120967)
(-78635.5 12250 -28311.2)
(-20682.2 40098.2 67970.9)
(42186.5 43873.7 106906)
(34900.6 47887 212662)
(4046.38 55967.1 303612)
(7533.13 48072.9 326449)
(-45005.6 39259.4 249060)
(-92415 47722 148809)
(-107944 20825.7 85037.1)
(-125989 925.53 20475.6)
(-136230 -570.469 -20132.7)
(-145657 3627.2 -25978.7)
(-145820 636.336 -22124)
(-147848 -1646.86 -13957.7)
(-150834 -607.359 -2601.42)
(-152557 79.0457 4064.03)
(-152218 667.754 3053.44)
(-150265 741.645 1863.41)
(-149730 591.694 1713.87)
(-148777 538.811 2307.75)
(-147917 540.011 2906.46)
(-147229 511.654 2981.01)
(-146625 482.467 2959.62)
(-145969 460.796 2842.66)
(-145261 456.096 2679.11)
(-144491 477.533 2502.51)
(-143659 469.591 2339.39)
(-142768 356.001 2237.01)
(-141603 289.302 2086.49)
(-139689 302.634 1603.89)
(-137571 -86.191 1068.08)
(-136644 -90.8635 1048.75)
(-135444 1276.3 824.031)
(-132714 1385.89 268.604)
(-133532 -783.043 1162.15)
(-137068 -982.999 2532.76)
(-136815 474.971 2496.38)
(-134727 653.749 1752.77)
(-133748 357.798 1208.7)
(-132155 500.67 683.009)
(-130139 628.989 48.3209)
(-128387 588.968 -927.929)
(-126191 731.837 -2071.09)
(-122390 1139.45 -2962.32)
(-118363 1191.24 -3375.18)
(-115470 1088.85 -4301.14)
(-111629 1367.37 -6190.21)
(-106382 1529.5 -6628.08)
(-100833 827.189 -5430.37)
(-95711.8 55.9138 -12.3091)
(-101101 -233.181 9037.19)
(-125227 -3707.14 29277.6)
(-54277.8 -2646.1 15409.4)
(-167330 -17345.9 -141489)
(-169881 -14286.7 -133624)
(-183898 -10384.6 -86799.8)
(-206521 -6702.66 -30614.3)
(-207370 -21060.9 -6222.88)
(-187704 -45716.8 9889.04)
(-156384 -43157.6 42692.1)
(-143031 -37426.5 13297.4)
(-144617 -33212.2 -31193.4)
(-117436 -30267.9 -75169.7)
(-109292 -18970.5 -56900.4)
(-128388 -2389.64 -28146.3)
(-125218 -2983 -22553.2)
(-134311 -1554.54 -13383.1)
(-137533 -1036.98 -4827.16)
(-137746 -408.72 719.128)
(-136881 -127.261 3955.8)
(-135288 -207.933 1489.73)
(-134211 -713.133 -1595.94)
(-134360 -1063.12 -1489.36)
(-133925 -1276.56 -685.594)
(-133363 -1448.9 -195.901)
(-132687 -1611.63 -224.416)
(-131896 -1732.36 -442.903)
(-130902 -1820.54 -796.115)
(-129608 -1918.57 -1313.31)
(-127792 -1998.68 -2013.89)
(-125668 -1926.82 -2806.43)
(-123731 -1835.49 -3572.1)
(-121482 -2027.4 -4307.1)
(-118213 -2238.01 -5409.95)
(-114282 -1833.39 -7430.35)
(-111262 -755.017 -8509.11)
(-112106 131.754 -5236.03)
(-115044 -329.329 -1284.51)
(-114613 -1542.04 -2657.74)
(-112262 -1685.16 -4614.55)
(-111436 -1121.1 -4345.44)
(-110898 -1020.34 -4425.76)
(-109913 -1097.99 -4908.85)
(-109004 -1095.2 -4991.09)
(-108342 -994.271 -4716.95)
(-108012 -983.637 -4630.18)
(-107631 -1131.28 -4962.84)
(-106679 -1010.7 -4761.75)
(-105370 -699.297 -4059.78)
(-103944 -511.358 -4298.63)
(-102190 -280.8 -4966.17)
(-99841.8 -140.378 -5299.89)
(-95951.2 -168.557 -4759)
(-90187.5 -264.415 -2465.38)
(-91317.5 -477.773 1835.56)
(-97830.2 -2833.49 19082.3)
(-16645.6 -1664.76 13605.8)
(-116555 7758.08 -120954)
(-125211 4881.96 -50562)
(-99408.9 22788.7 26120.6)
(-59552.4 42882.8 103029)
(-46044.3 46060.9 194697)
(-47847.3 40800.5 261208)
(-73657.7 25014.8 251950)
(-87384.4 24960.5 227123)
(-99392.1 26143.5 161445)
(-103619 8782.83 82631.8)
(-117459 4340.06 23694.3)
(-113166 2267.4 -16028.1)
(-119315 1939.28 -19442.4)
(-129441 -482.21 -16360.1)
(-138089 -1192.07 -9224.2)
(-141695 -35.2107 -947.892)
(-141705 500.457 3895.99)
(-139916 815.949 2654.07)
(-138327 713.335 738.211)
(-137925 563.117 900.868)
(-137054 480.728 1682.99)
(-135967 428.148 2058.14)
(-134794 361.948 1933.62)
(-133489 307.235 1634.78)
(-132027 266.659 1203.1)
(-130444 192.34 705.812)
(-128780 65.6651 273.414)
(-126879 20.8403 -166.91)
(-124352 -20.6061 -1008.81)
(-121208 -375.058 -2332.66)
(-118446 -872.184 -3408.66)
(-117437 -944.649 -3165.14)
(-117658 -392.273 -1829.63)
(-117122 350.961 -761.52)
(-116247 196.433 -63.0066)
(-116581 -753.613 656.034)
(-116753 -901.803 317.465)
(-115703 -388.602 -719.299)
(-114557 -253.205 -1187.57)
(-113301 -331.829 -1669.49)
(-111988 -344.093 -2122.27)
(-110901 -259.025 -2119.88)
(-109649 -226.772 -2459.92)
(-108908 -367.114 -3623.19)
(-108494 -344.991 -4612.7)
(-107247 -158.199 -4620.02)
(-105558 -77.6782 -5064.86)
(-104064 -47.633 -6736.29)
(-101635 -85.6581 -7686.02)
(-97532 -315.853 -7945.43)
(-92154.4 -334.015 -4947.6)
(-93406.1 -394.735 1672.42)
(-110903 -3131.3 23756.8)
(-37794.7 -2085.79 15620.7)
(-171835 -17037.1 -132365)
(-177131 -18461.3 -120089)
(-185556 -16306.9 -73359)
(-197126 -12716 -37598)
(-199459 -21922 -14423)
(-181804 -44702.5 14187.7)
(-153328 -42096.4 41361.4)
(-130779 -33143.6 27172.6)
(-121012 -26141.2 -6763.53)
(-108589 -21803.5 -38085.2)
(-120423 -11140.7 -20821.9)
(-108906 -8259.8 -23048.6)
(-114673 -5100.69 -14994.2)
(-124902 -2125.23 -5626.17)
(-129067 -907.1 -1646)
(-130576 -397.505 745.422)
(-131090 -264.109 2943.45)
(-131015 -551.69 1362.59)
(-132218 -1100.12 -150.68)
(-133995 -1456.68 620.386)
(-134734 -1662.62 1407.82)
(-134770 -1807.13 1616.76)
(-134173 -1936.29 1364.64)
(-132805 -2051.34 815.823)
(-130607 -2063.57 -138.069)
(-127948 -1901 -1333.62)
(-125422 -1761.86 -2295.71)
(-122831 -1841.06 -2920.96)
(-119899 -1937.59 -3675.51)
(-116970 -1809.63 -4795.01)
(-114487 -1311.73 -5956.76)
(-113377 -290.558 -6498.02)
(-115071 647.926 -4887.29)
(-118234 401.126 -1256.28)
(-118112 -568.861 250.608)
(-115889 -943.601 -1349.17)
(-115232 -695.505 -2185.11)
(-115170 -496.218 -1728.19)
(-114876 -456.471 -1935.23)
(-114870 -572.73 -2462.51)
(-114601 -650.47 -2502.46)
(-114072 -570.701 -2202.79)
(-113507 -603.232 -2046)
(-112774 -716.814 -2317.68)
(-111845 -627.412 -2565.41)
(-110619 -477.464 -2326.08)
(-109010 -466.909 -2211.99)
(-107134 -393.109 -2696.88)
(-104614 -282.091 -3706.79)
(-100534 -287.333 -4549.18)
(-94985.9 -495.71 -4856.59)
(-93352.9 -645.92 -8012.66)
(-98815.3 -1011.25 11288.1)
(-20155.5 -438.302 15056.5)
(-121867 4223.97 -130696)
(-131790 -3107.56 -62140.3)
(-142244 4714.76 15087.4)
(-124225 19863.4 98761.3)
(-92688 25124.4 200699)
(-91171.8 19023.3 240984)
(-115132 14576.9 225393)
(-106734 13387.1 187648)
(-98818.6 8763.92 119401)
(-82613.7 -3228.58 41807.8)
(-80695.1 -5392.46 -8268.19)
(-88619 -2723.3 -20286.3)
(-108067 -1187.9 -12151.9)
(-122150 -862.422 -6455.28)
(-130084 -250.132 -3029.09)
(-133043 628.017 1075.54)
(-132973 1071.04 3319.92)
(-131365 1115.27 1777.23)
(-130942 874.886 184.231)
(-131410 685.495 484.848)
(-131163 592.336 895.194)
(-130428 521.055 778.688)
(-129357 427.75 267.675)
(-127991 314.015 -395.029)
(-126402 235.477 -1103.2)
(-124536 228.353 -1825.37)
(-122217 158.591 -2674.99)
(-119477 -125.513 -3823.36)
(-116639 -520.195 -5214.98)
(-114283 -788.67 -6077.64)
(-113673 -656.182 -5037.49)
(-114842 -100.13 -2268.19)
(-115195 403.723 -221.178)
(-114009 286.245 188.743)
(-113275 -324.316 196.981)
(-112959 -665.339 115.674)
(-112309 -492.602 -138.363)
(-111938 -268.054 -272.513)
(-111706 -222.232 -641.276)
(-111521 -327.294 -1269.95)
(-111707 -409.609 -1521.37)
(-111536 -334.595 -1463.44)
(-110955 -364.353 -1424.42)
(-110832 -502.267 -1578.16)
(-111118 -468.745 -2062.5)
(-110943 -368.909 -2484.84)
(-110105 -403.728 -2826.39)
(-109183 -388.12 -3660.63)
(-107350 -263.118 -4866.93)
(-103795 -276.922 -6480.74)
(-99423.6 -401.656 -7067.67)
(-99197.1 -475.707 -9488.25)
(-108109 -925.292 14655.3)
(-29315.4 -572.051 18795.1)
(-174307 -10111.8 -126577)
(-181716 -14829.4 -110356)
(-182427 -16811.7 -61066.9)
(-185487 -18746.8 -28535.2)
(-178961 -21014.4 -7940.95)
(-157870 -30457.4 22177.2)
(-134364 -29785.6 37923.2)
(-112050 -24519.1 25295.2)
(-99212.2 -20893.5 1819.47)
(-88794.7 -17951.4 -25232.3)
(-92864.1 -11007.8 -21518.3)
(-101843 -7232.85 -9403.29)
(-114023 -4195.65 -2116.9)
(-122058 -1725.37 822.135)
(-125382 -656.453 816.46)
(-128440 -296.436 2427.86)
(-130756 -224.773 3964.91)
(-132333 -513.574 3326.74)
(-134459 -902.458 2901.57)
(-135967 -1141.2 3375.31)
(-136026 -1269.66 3381.13)
(-134971 -1363.38 2689.25)
(-132842 -1447.55 1402.91)
(-129716 -1392.03 -307.237)
(-126322 -1109.72 -1997.88)
(-123465 -915.823 -3161.75)
(-121052 -1036.39 -3906.01)
(-118609 -1195.54 -4718.84)
(-116255 -1076.59 -5373.6)
(-114484 -615.877 -5470.07)
(-113657 17.3416 -5431.13)
(-114392 434.177 -4874.48)
(-116502 345.801 -2712.98)
(-117294 -98.1227 -605.015)
(-115675 -474.926 -504.2)
(-114108 -580.021 -1466.02)
(-113478 -531.446 -1833.46)
(-112516 -432.717 -1745.22)
(-111406 -379.833 -1686.35)
(-110620 -456.674 -1787.21)
(-109769 -560.092 -2039.14)
(-108457 -574.22 -2290.1)
(-106600 -533.005 -2553.56)
(-104497 -520.177 -3001.34)
(-102365 -521.381 -3488.32)
(-99900.8 -480.929 -3940.6)
(-96925.5 -439.05 -4754.01)
(-93699.9 -391.255 -6155.81)
(-90046.7 -388.933 -7867.06)
(-85545.3 -483.48 -9770.44)
(-81127.9 -707.611 -11841.7)
(-65849.7 -756.272 -13210.2)
(-100951 964.578 -12383)
(34541.3 652.991 -1425.8)
(-138211 3362.84 -136213)
(-146457 -4087.74 -76527)
(-160316 -10000.4 -12925.6)
(-159264 -5120.8 41761.5)
(-121618 -1811.74 159939)
(-94491.4 402.916 207208)
(-79297.2 1308.85 178920)
(-24242.7 554.657 147918)
(-13150 -4696.39 92425.6)
(-17523.6 -14305.5 12879.3)
(-54326.8 -8957.3 -11062.3)
(-85959.6 -4578.82 -8217.64)
(-109426 -2191.04 -1627.34)
(-119783 -527.573 -62.2908)
(-124909 516.258 465.204)
(-127401 1080.99 2330.94)
(-127974 1370.5 3182.59)
(-127714 1329.4 1864.57)
(-128517 1114.52 851.389)
(-129439 968.812 912.26)
(-129485 902.244 728.916)
(-128883 839.266 61.3113)
(-127779 734.901 -896.815)
(-126295 669.474 -1901.98)
(-124370 733.763 -2886.92)
(-121863 731.065 -4005.44)
(-119164 461.252 -5283.15)
(-116965 29.8773 -6541.69)
(-115430 -288.696 -7327.13)
(-114884 -205.033 -6429.07)
(-115695 265.604 -3187.4)
(-116040 527.312 -218.13)
(-114774 220.331 431.097)
(-113639 -204.385 178.447)
(-113254 -368.499 109)
(-112755 -384.983 11.8019)
(-112278 -358.855 -45.952)
(-111579 -287.978 -5.53769)
(-110602 -242.307 42.9366)
(-109912 -306.746 10.4935)
(-109497 -409.885 -162.286)
(-108839 -437.029 -510.74)
(-107541 -409.251 -854.106)
(-105666 -410.257 -1222)
(-103659 -419.732 -1803.1)
(-101437 -385.753 -2539.09)
(-98642.7 -348.755 -3531.53)
(-95531.3 -298.071 -5132.94)
(-91738.6 -262.669 -7283.02)
(-87815.1 -354.639 -9695.78)
(-85373.9 -609.461 -11765.2)
(-71610.6 -699.211 -12524.8)
(-105060 1171.71 -11303.9)
(42179.9 542.021 -1563.9)
(-170067 -4460.08 -121969)
(-182138 -8590.86 -106706)
(-178777 -10790.1 -54066.6)
(-180820 -14824 -23391.3)
(-176968 -18180.2 -15270.1)
(-152657 -22412.8 11876.3)
(-124875 -23942.7 32563.5)
(-106055 -19243.1 24395.1)
(-93381 -15130.2 10567.6)
(-92491.1 -9640.64 -1616.15)
(-99432.7 -5418.2 121.635)
(-111159 -3370.69 4992.96)
(-118343 -2016.35 6356.93)
(-122902 -866.311 4861.91)
(-126343 -338.897 3840.82)
(-129842 -148.435 5130.65)
(-132185 -191.113 5808.53)
(-133462 -461.748 5160.06)
(-134241 -746.879 4482.72)
(-133864 -939.163 3894.68)
(-132167 -1073.55 2733.57)
(-129479 -1130.66 950.731)
(-126283 -1026.86 -1142.44)
(-123450 -752.606 -2947.83)
(-121520 -542.662 -3992.96)
(-120132 -620.597 -4473.88)
(-118655 -755.344 -4739.9)
(-117119 -602.534 -4893.59)
(-115686 -429.394 -5075.22)
(-113970 -370.121 -5430)
(-113214 73.1198 -5168.29)
(-115051 561.708 -3253.37)
(-117011 245.488 -1023.2)
(-116400 -384.735 -356.616)
(-114548 -551.873 -840.7)
(-113187 -525.845 -1278.28)
(-112620 -528.782 -1312.54)
(-112461 -457.045 -1299.7)
(-112202 -411.633 -1387.2)
(-111711 -417.903 -1489.53)
(-111139 -419.173 -1696.38)
(-110657 -422.777 -2037.97)
(-110272 -422.714 -2391.93)
(-109940 -422.565 -2676.57)
(-109616 -426.115 -3003.13)
(-109305 -417.357 -3521.28)
(-109037 -412.072 -4356.38)
(-108947 -409.185 -5640.02)
(-108673 -394.532 -7254.44)
(-107559 -425.775 -9583.7)
(-106574 -536.442 -14151.9)
(-109467 -742.722 -18475.7)
(-117488 -1709.4 -47549.9)
(-37497.6 -836.787 -22505.3)
(-143028 4217.12 -127531)
(-159034 -510.475 -83154)
(-162400 -9035.19 -25167.6)
(-169124 -9791.83 -7934.67)
(-145819 -12138.6 57084.2)
(-97060.7 -12413 119091)
(-84384 -13111.4 90833)
(-62481 -12777 69705.6)
(-59553.9 -10882.2 55222.3)
(-73187.3 -9555.53 18228.6)
(-89812.1 -4650.41 6789.84)
(-104227 -2232.11 6083.97)
(-114549 -883.204 5449.1)
(-119024 256.216 3511.46)
(-122425 869.322 3303.34)
(-124754 1194.28 4088.87)
(-125865 1334.87 4130.22)
(-126548 1258.89 3013.65)
(-127648 1106.49 2141.64)
(-128329 995.287 1639.24)
(-128181 903.655 782.144)
(-127375 822.833 -460.109)
(-125999 792.718 -1841.21)
(-124190 852.188 -3154.41)
(-121934 894.347 -4460.2)
(-119493 712.296 -5757.63)
(-117768 307.562 -6677.78)
(-116925 -62.926 -7173.91)
(-116386 -286.096 -7097.32)
(-116796 -110.304 -5039.3)
(-117596 453.247 -1860.67)
(-116715 600.492 -514.407)
(-114960 54.3667 -557.996)
(-114266 -364.101 -363.187)
(-113790 -406.761 -232.175)
(-113111 -418.188 -348.924)
(-113023 -406.081 -344.809)
(-113202 -336.045 -417.8)
(-113062 -314.888 -516.301)
(-112764 -329.38 -556.495)
(-112330 -323.853 -710.728)
(-111948 -319.764 -1092.54)
(-111818 -312.693 -1577.38)
(-111728 -302.245 -1945.83)
(-111683 -289.351 -2298.71)
(-111821 -260.065 -2849)
(-112145 -227.583 -3664.19)
(-112749 -190.616 -4873.71)
(-113297 -139.319 -6435.94)
(-112981 -137.55 -8862.16)
(-112814 -234.043 -13360.2)
(-116397 -390.268 -17908.7)
(-128062 -1615.24 -51396.4)
(-45090.4 -967.944 -26826.8)
(-150453 -2414.78 -112642)
(-174577 -3850.67 -104248)
(-172524 -5333.98 -52467.4)
(-168700 -7713.34 -10884.3)
(-171863 -10460.5 -9901.03)
(-157632 -13482.5 1521.87)
(-130127 -14378.2 23149.3)
(-114612 -8867.26 21877.1)
(-106141 -5106.59 16958.7)
(-107611 -3364.12 12098.8)
(-113802 -2145.09 10643.2)
(-119015 -1330.59 10876.4)
(-121696 -923.335 9390.94)
(-124146 -525.644 7153.21)
(-126937 -432.21 6459)
(-129089 -442.31 6736.66)
(-129904 -622.514 6247.94)
(-129780 -890.543 4965.89)
(-129039 -1116.9 3589.55)
(-127564 -1257.35 2170.89)
(-125538 -1284.61 422.106)
(-123445 -1130.37 -1454.77)
(-122012 -813.132 -2838.48)
(-121528 -553.873 -3449.11)
(-121099 -520.892 -3769.74)
(-120030 -532.638 -4108.25)
(-118511 -376.156 -4405.98)
(-116613 -212.145 -4986.82)
(-114765 -251.133 -5696.6)
(-114191 -226.218 -5204.77)
(-115426 73.0551 -2723.16)
(-117001 245.011 -60.2684)
(-117160 67.231 670.189)
(-116303 -188.602 206.346)
(-115653 -360.157 -68.1017)
(-115461 -388.573 336.15)
(-115417 -318.753 973.967)
(-115298 -262.764 1246.44)
(-115248 -210.505 1194.19)
(-115288 -189.172 1089.01)
(-115261 -215.987 1080.47)
(-115144 -219.064 1181.43)
(-115015 -173.74 1266.5)
(-114842 -128.381 1232.31)
(-114544 -100.824 1108.94)
(-114230 -69.1722 914.838)
(-114161 -35.8391 531.94)
(-114705 -14.3649 -221.006)
(-116169 -8.13152 -1465.68)
(-117296 -60.0863 -3794.85)
(-120654 -83.6291 -8747.77)
(-128528 -303.155 -18126.9)
(-163420 -3809.43 -44524.7)
(-71920.3 -2538.91 -17793.9)
(-130827 3177.32 -110288)
(-159546 2624.17 -80682.5)
(-158502 -3404.47 -25880.3)
(-164495 -6785.42 -11070.8)
(-167494 -9444.08 11466.1)
(-141526 -13202.7 38136.1)
(-122374 -11506.9 37877)
(-111901 -7064.35 36342.6)
(-101239 -4822.59 38206.8)
(-103049 -3316.59 20806.1)
(-108797 -1571.32 10833)
(-112864 -585.222 8932.53)
(-116536 60.6578 7430.11)
(-118883 595.479 5844.27)
(-121571 786.545 5783.72)
(-123416 926.024 5851.31)
(-124438 937.373 5238.33)
(-125216 849.374 4023.04)
(-125985 743.788 2873.7)
(-126275 661.78 1752.9)
(-125970 623.374 312.263)
(-125149 663.458 -1375.55)
(-123899 768.813 -2972.38)
(-122371 821.515 -4339.29)
(-120680 683.346 -5560.99)
(-119270 401.635 -6356.51)
(-118532 135.437 -6506.25)
(-117774 -94.6664 -6616.19)
(-117429 -215.232 -6149.63)
(-118579 -23.5676 -3424.78)
(-119517 271.033 -445.281)
(-118714 275.868 273.964)
(-117844 143.071 373.226)
(-117474 6.04018 743.114)
(-117438 -185.089 757.093)
(-118021 -238.815 1062.04)
(-118414 -162.058 1752.19)
(-118667 -101.665 2054.88)
(-119025 -41.6834 2026.98)
(-119358 -8.02634 2001.11)
(-119731 -19.7008 2037.45)
(-120174 -6.25607 2166.18)
(-120634 58.7927 2301.08)
(-120993 129.88 2364.32)
(-121226 189.687 2378.16)
(-121436 259.709 2316.74)
(-121806 337.179 2084.57)
(-122641 407.978 1509.77)
(-124383 465.139 410.264)
(-125745 453.051 -1967.35)
(-130940 430.001 -7445.55)
(-140123 72.3379 -17930.5)
(-195996 -4025.77 -51420)
(-114501 -4235.68 -24966.6)
(-120141 -2863.73 -93472)
(-154085 -3150.77 -93286.2)
(-164220 -5396.94 -55302.3)
(-155534 -6267.06 -4734.86)
(-152339 -5822.78 1989.54)
(-149450 -7591.13 -341.902)
(-132512 -6225.84 15373)
(-122530 -1709.42 20558.9)
(-118988 -1026.69 20134.8)
(-118228 -1682.73 16715.9)
(-118738 -1211.4 13394.3)
(-119967 -761.78 11242.4)
(-120735 -824.435 9736.08)
(-122069 -835.814 8176.71)
(-123419 -917.331 7332.69)
(-123912 -1038.67 6595.58)
(-123563 -1229.11 5336.76)
(-122877 -1371.88 3728.83)
(-122143 -1406.87 2154.94)
(-121455 -1326.35 702.507)
(-120984 -1098.34 -725.721)
(-121066 -735.006 -1843.06)
(-121654 -428.39 -2452.43)
(-121715 -328.368 -3167.16)
(-120486 -327.845 -4380.71)
(-118311 -247.099 -5594.43)
(-115862 -95.9397 -6644.82)
(-113688 -164.441 -7110.99)
(-112777 -339.588 -5957.63)
(-113670 -103.858 -3480.77)
(-114873 307.553 -1546.96)
(-114770 264.301 -848.261)
(-113975 114.224 -644.328)
(-113817 197.507 -358.654)
(-114255 130.473 9.1443)
(-114445 -60.3337 336.326)
(-114339 -80.7395 612.201)
(-114373 4.23611 799.187)
(-114672 86.3321 901.879)
(-115263 143.158 957.296)
(-116053 165.179 966.275)
(-116950 180.923 966.179)
(-117996 221.562 916.422)
(-119309 291.869 709.553)
(-120987 370.568 340.237)
(-123122 440.682 -121.332)
(-125940 506.797 -705.787)
(-129810 564.776 -1516.86)
(-135204 597.629 -2715.13)
(-141528 538.865 -4525.17)
(-154884 311.626 -7308.46)
(-183121 -212.022 -11076.8)
(-281395 -6731.64 -16028.6)
(-183535 -868.247 -2487.09)
(-114757 113.129 -89907.8)
(-150369 1424.04 -68370)
(-156259 -2885.72 -28691.3)
(-153182 -5631.4 -1015.97)
(-154830 -5267.59 14836.9)
(-144676 -6504.23 20079.6)
(-132657 -3660.4 22425)
(-125838 -606.214 28631.9)
(-116610 -1030.38 29469.6)
(-112912 -1119.09 18145.3)
(-113467 -351.939 10477.5)
(-114622 126.517 8675.38)
(-116120 278.2 8059.16)
(-117835 393.347 7356.98)
(-119663 423.795 7037.85)
(-120698 448.294 6392.34)
(-121315 411.543 5255.73)
(-121854 388.93 3815.49)
(-122333 416.043 2354.16)
(-122578 494.599 858.976)
(-122550 637.596 -803.784)
(-122252 811.671 -2487.76)
(-121725 879.775 -3957.6)
(-120907 772.598 -5330.06)
(-119758 569.209 -6575.34)
(-118523 389.151 -7203.85)
(-117193 273.79 -7500.12)
(-115752 13.8658 -7757.04)
(-115831 -272.046 -6267.61)
(-117406 -61.6071 -2842.03)
(-117334 405.515 -1061.11)
(-115932 466.621 -1258.15)
(-115433 368.339 -1017.77)
(-115159 364.543 -373.425)
(-115065 205.5 87.7631)
(-115597 40.3987 435.855)
(-116068 59.9833 682.361)
(-116466 140.129 839.15)
(-117073 211.047 917.468)
(-117871 263.973 985.317)
(-118883 281.628 1044.03)
(-120145 292.389 1049.12)
(-121688 329.049 927.645)
(-123522 394.787 649.536)
(-125681 467.752 256.614)
(-128326 533.656 -253.741)
(-131688 600.402 -943.756)
(-136076 667.111 -1876.85)
(-142078 716.391 -3216.61)
(-149072 671.491 -5021.8)
(-164251 485.832 -7663.78)
(-196641 -92.6467 -10674.8)
(-292427 -6206.22 -7345.31)
(-301043 -4345.42 17873.5)
(-101097 -2692.59 -72288.2)
(-128853 -4845.69 -68902.3)
(-150193 -8358.76 -45535.5)