/*--------------------------------*- C++ -*----------------------------------*\
| =========                 |                                                 |
| \\      /  F ield         | OpenFOAM: The Open Source CFD Toolbox           |
|  \\    /   O peration     | Version:  4.1                                   |
|   \\  /    A nd           | Web:      www.OpenFOAM.org                      |
|    \\/     M anipulation  |                                                 |
\*---------------------------------------------------------------------------*/
FoamFile
{
    version     2.0;
    format      ascii;
    class       volScalarField;
    location    "20";
    object      p;
}
// * * * * * * * * * * * * * * * * * * * * * * * * * * * * * * * * * * * * * //

dimensions      [0 2 -2 0 0 0 0];

internalField   nonuniform List<scalar> 
4432
(
105500
105499
105494
105487
105477
105467
105457
105450
105446
105443
105441
105439
105434
105426
105410
105388
105353
105296
105242
105201
105319
105381
105125
104982
105033
105029
104789
104408
104022
103696
103466
103284
103500
103951
104485
104467
103909
103884
103874
103883
104001
103963
104023
104125
104188
104371
103891
103176
103330
104784
106630
101278
80492.7
70228.4
105499
105498
105493
105486
105476
105466
105456
105449
105445
105442
105441
105438
105433
105425
105410
105388
105351
105294
105229
105170
105202
105394
105375
105164
104963
104956
104808
104315
103858
103599
103506
103406
103669
103806
103884
103961
104026
103958
103811
103773
103868
104052
104251
104354
104224
104058
103822
103109
103335
104537
107317
102742
80680.4
69281.1
105496
105493
105487
105478
105467
105455
105445
105437
105431
105429
105428
105429
105429
105428
105427
105420
105407
105358
105284
105272
105304
105331
105245
105131
104949
104672
104298
103945
103656
103496
103505
103489
103450
103554
103619
103649
103727
103664
103527
103528
103634
103718
103762
103838
103894
103889
103624
102825
102640
103374
105381
100490
77588.5
87388.7
105495
105491
105486
105477
105466
105455
105444
105436
105431
105429
105428
105429
105429
105428
105425
105421
105408
105354
105282
105268
105309
105335
105248
105099
104895
104616
104293
103939
103638
103533
103516
103491
103493
103620
103776
103747
103711
103596
103502
103487
103629
103775
103859
103985
104079
104077
103879
103248
103454
104313
106306
102078
78210.7
87479.6
105491
105488
105483
105474
105463
105451
105439
105430
105423
105418
105416
105417
105420
105425
105434
105441
105449
105383
105294
105293
105331
105294
105173
105018
104832
104592
104268
103931
103674
103541
103431
103264
103223
103465
103547
103562
103614
103629
103601
103612
103625
103767
103816
103767
103582
103141
102714
101956
101722
100965
98307.8
95557.8
86838
95776.5
105490
105487
105482
105473
105462
105450
105438
105429
105422
105418
105416
105417
105420
105425
105434
105444
105454
105380
105276
105297
105327
105289
105188
105046
104848
104580
104238
103890
103642
103531
103402
103200
103126
103334
103562
103617
103633
103627
103614
103584
103664
103698
103661
103652
103584
103381
102813
102186
102006
101681
99565.5
98214
86870.7
94359.5
105484
105482
105477
105468
105456
105443
105430
105420
105412
105407
105405
105406
105409
105416
105425
105430
105429
105353
105242
105245
105285
105269
105206
105093
104949
104724
104387
103979
103657
103469
103310
103150
103123
103248
103304
103421
103402
103414
103405
103361
103239
103285
103261
103230
103041
102676
102525
101898
101831
102404
102082
98335
89728.3
89917.9
105484
105481
105476
105467
105455
105442
105430
105420
105412
105407
105405
105406
105409
105416
105425
105433
105427
105347
105232
105251
105281
105268
105214
105118
104964
104727
104371
103967
103656
103446
103257
103088
103010
103173
103322
103449
103484
103518
103557
103478
103336
103297
103287
103167
102963
102614
102081
101568
101255
102267
102679
99481.9
89057
88871.1
105477
105474
105469
105459
105447
105433
105420
105409
105401
105395
105393
105392
105394
105397
105400
105396
105378
105324
105202
105196
105244
105292
105270
105202
105106
104920
104656
104276
103916
103654
103487
103409
103369
103434
103626
103529
103280
103249
103165
102967
102886
102608
102547
102523
102599
102764
102556
101960
101688
102265
103217
100204
92499.4
97617.6
105476
105473
105467
105458
105446
105433
105420
105409
105401
105395
105393
105392
105394
105398
105400
105397
105377
105310
105212
105200
105256
105303
105282
105213
105118
104939
104647
104248
103905
103634
103459
103382
103352
103330
103407
103358
103320
103354
103328
103162
102792
102607
102687
102610
102448
102242
101912
101573
101488
102367
103674
101246
92201.7
96474.9
105467
105465
105459
105449
105437
105423
105409
105398
105389
105382
105378
105375
105374
105373
105369
105357
105332
105291
105225
105206
105246
105322
105343
105277
105233
105129
104959
104704
104369
104089
103858
103736
103748
103993
104088
103285
103138
103081
102998
102708
102274
102001
102178
102132
102111
102506
102407
102073
101778
102001
102403
99356.6
92854.3
96426.5
105467
105464
105458
105448
105436
105422
105409
105397
105388
105382
105378
105375
105374
105373
105369
105358
105334
105290
105229
105207
105254
105322
105339
105315
105244
105137
104960
104674
104370
104093
103859
103720
103714
103659
103496
103291
103153
103150
103113
102906
102425
102224
102234
102282
102289
102256
102074
101883
101845
102286
102794
99649.4
92906
97451.4
105457
105455
105449
105439
105426
105412
105398
105385
105375
105368
105362
105357
105353
105348
105340
105325
105302
105273
105243
105229
105263
105331
105356
105326
105260
105232
105178
105043
104753
104421
104120
103921
103894
104017
103466
103744
102922
102913
102966
102850
102514
102349
102347
102208
102018
102100
102106
102087
101930
101912
101824
99411.4
94452.6
94773.1
105456
105454
105448
105438
105425
105411
105397
105385
105375
105368
105362
105357
105353
105348
105340
105326
105304
105274
105238
105227
105267
105340
105348
105318
105287
105252
105174
104980
104727
104451
104148
103911
103787
103652
103381
103118
102905
102985
103052
102933
102635
102469
102413
102347
102309
102387
102289
102199
102211
102243
102048
99267.5
94277.9
95248.4
105446
105443
105437
105427
105414
105400
105385
105373
105362
105353
105345
105339
105332
105325
105315
105302
105283
105261
105240
105227
105248
105317
105373
105338
105181
105214
105216
105081
104840
104535
104243
103945
103697
103512
103196
102876
102845
103022
103178
103210
103003
102812
102716
102466
102107
101965
102012
102178
102163
102101
102035
100183
95521.2
97983.2
105445
105442
105436
105426
105413
105399
105385
105372
105362
105353
105346
105339
105333
105325
105316
105303
105284
105262
105238
105225
105247
105312
105352
105323
105254
105240
105179
105046
104829
104558
104259
103959
103685
103458
103173
102943
102892
103032
103207
103217
103027
102824
102624
102394
102302
102396
102421
102428
102381
102350
102235
100080
95231.4
98054.5
105434
105432
105426
105415
105402
105388
105373
105360
105349
105339
105330
105322
105314
105305
105296
105285
105271
105255
105240
105231
105239
105276
105326
105304
105170
105133
105088
104955
104761
104504
104230
103953
103685
103428
103154
103005
103026
103221
103469
103607
103586
103398
103168
102856
102403
102040
101977
102121
102203
102196
101789
99792.6
95463.9
97813.6
105433
105431
105425
105415
105401
105387
105373
105360
105349
105339
105330
105322
105314
105306
105297
105286
105273
105257
105241
105230
105237
105267
105312
105313
105217
105149
105071
104924
104737
104502
104237
103959
103686
103439
103177
103013
103059
103216
103426
103559
103541
103351
102997
102593
102330
102226
102270
102322
102399
102436
102143
100048
95165.7
97606.5
105422
105420
105413
105403
105390
105375
105361
105348
105336
105326
105316
105307
105298
105290
105282
105274
105265
105256
105246
105239
105239
105245
105258
105243
105125
105003
104910
104815
104684
104482
104236
103982
103735
103501
103291
103189
103251
103429
103657
103889
104064
104028
103758
103361
102843
102244
101809
101701
101734
101642
101067
99561.3
96971.6
98570.9
105421
105419
105413
105402
105389
105375
105361
105348
105336
105326
105316
105307
105299
105291
105283
105275
105267
105257
105247
105239
105237
105243
105251
105236
105149
105029
104940
104830
104672
104466
104231
103981
103735
103519
103323
103205
103266
103432
103651
103841
103946
103875
103523
103000
102552
102191
101941
102017
102275
102298
101864
100183
96176.2
97111.8
105410
105407
105401
105391
105378
105364
105349
105336
105324
105314
105304
105294
105286
105278
105272
105267
105263
105259
105255
105250
105245
105233
105221
105184
105058
104896
104785
104714
104618
104459
104251
104027
103806
103610
103454
103373
103426
103590
103795
104009
104206
104351
104263
103921
103259
102515
101864
101438
101144
100822
100274
99154.3
97189.6
93547.3
105409
105406
105400
105390
105377
105363
105349
105336
105324
105314
105304
105295
105286
105279
105273
105269
105265
105260
105256
105250
105245
105237
105220
105171
105062
104919
104819
104745
104630
104457
104247
104025
103810
103628
103485
103404
103461
103621
103814
103996
104126
104164
103982
103456
102813
102236
101781
101601
101662
101658
101301
100326
97195.4
92994.3
105397
105395
105389
105379
105366
105352
105338
105325
105313
105303
105293
105283
105275
105269
105264
105262
105262
105264
105265
105265
105263
105253
105224
105142
104970
104782
104689
104648
104582
104460
104292
104105
103919
103757
103635
103570
103597
103709
103861
104019
104174
104299
104387
104290
103716
102927
102194
101614
101081
100524
99824.9
99047.1
97716.7
94319.9
105397
105394
105388
105378
105366
105352
105338
105325
105313
105303
105293
105284
105276
105270
105266
105264
105264
105265
105265
105265
105263
105255
105224
105137
104967
104789
104703
104663
104591
104463
104291
104103
103921
103767
103655
103595
103625
103741
103888
104025
104131
104173
104111
103793
103190
102501
101894
101447
101179
100946
100637
100448
98471.1
97284.3
105385
105383
105377
105368
105355
105341
105328
105315
105304
105293
105283
105274
105267
105261
105258
105258
105262
105267
105274
105282
105291
105294
105264
105133
104833
104592
104583
104614
104596
104518
104394
104250
104105
103977
103881
103827
103826
103871
103941
104012
104074
104125
104132
104065
103713
103092
102435
101887
101387
100820
100050
98869.2
97515.3
93493.4
105385
105382
105377
105367
105354
105341
105327
105315
105304
105293
105284
105275
105267
105262
105259
105260
105263
105268
105275
105283
105293
105295
105267
105121
104817
104583
104580
104615
104596
104515
104389
104242
104097
103973
103882
103830
103831
103880
103950
104010
104048
104050
103975
103760
103333
102752
102162
101656
101232
100784
100161
99168.3
97816.9
93477.4
105374
105371
105366
105356
105344
105331
105318
105306
105295
105284
105275
105266
105259
105254
105251
105253
105258
105266
105278
105296
105326
105365
105394
105227
104672
104255
104461
104598
104639
104609
104536
104440
104340
104250
104184
104140
104116
104101
104077
104031
103977
103917
103830
103678
103394
102954
102444
101950
101470
100890
100066
98667.9
96872.5
92841.3
105373
105371
105365
105356
105344
105331
105318
105306
105295
105285
105275
105267
105260
105255
105253
105254
105259
105267
105279
105296
105326
105369
105405
105219
104635
104238
104455
104596
104641
104609
104534
104436
104334
104246
104182
104146
104126
104110
104088
104031
103960
103878
103756
103549
103215
102767
102275
101796
101323
100750
99928.2
98517.6
96672.3
92628.1
105362
105360
105355
105346
105334
105321
105309
105297
105287
105277
105267
105259
105252
105246
105244
105245
105250
105258
105271
105292
105335
105430
105568
105642
103752
104013
104497
104706
104772
104761
104716
104656
104592
104537
104499
104481
104451
104386
104267
104088
103909
103749
103589
103395
103133
102789
102384
101941
101445
100810
99903.8
98470.8
96441.9
92822.8
105362
105360
105354
105345
105334
105321
105309
105297
105287
105277
105268
105259
105252
105247
105245
105247
105251
105259
105271
105291
105331
105422
105557
105501
103520
103910
104517
104729
104794
104776
104726
104662
104596
104542
104518
104530
104495
104420
104299
104086
103887
103717
103547
103338
103059
102706
102299
101855
101353
100704
99777.5
98325.4
96259.2
92676.3
105352
105350
105344
105336
105325
105312
105301
105290
105279
105270
105261
105252
105244
105239
105235
105235
105237
105241
105246
105255
105272
105309
105493
105863
103937
104548
104798
104892
104900
104880
104852
104820
104795
104784
104790
104769
104675
104451
104134
103848
103618
103420
103220
102986
102703
102368
101972
101479
100806
99854.1
98415
96399.7
92898.6
105351
105349
105344
105335
105324
105312
105300
105289
105279
105270
105261
105252
105245
105239
105236
105236
105238
105241
105246
105254
105266
105294
105461
104963
103868
104580
104846
104940
104937
104907
104870
104832
104805
104802
104887
104860
104710
104489
104098
103808
103577
103381
103182
102947
102663
102325
101924
101420
100736
99769.1
98323.8
96227.4
92820.3
105342
105340
105334
105326
105316
105304
105293
105282
105273
105263
105254
105245
105237
105230
105225
105222
105219
105215
105208
105193
105159
105077
104863
104481
103893
104330
104804
104976
104986
104961
104940
104926
104916
104908
104897
104892
104856
104720
104425
104073
103752
103489
103282
103096
102897
102661
102380
102027
101537
100821
99807.4
98313.2
96518.3
92895.7
105341
105339
105334
105326
105315
105304
105293
105282
105273
105263
105254
105246
105238
105231
105226
105222
105220
105216
105208
105191
105154
105066
104835
104381
103638
104410
104868
105037
105042
105007
104975
104951
104932
104913
104891
104923
104909
104708
104373
103990
103695
103445
103239
103055
102859
102629
102349
101991
101498
100790
99798.2
98358.7
96394.4
92919.5
105332
105330
105325
105317
105307
105297
105286
105276
105266
105257
105248
105239
105230
105221
105214
105207
105199
105187
105167
105133
105074
104976
104837
104659
104516
104579
104830
104949
104963
104947
104931
104921
104915
104905
104882
104805
104659
104514
104195
103926
103652
103405
103200
103026
102849
102651
102422
102117
101638
100875
99766.5
98187.5
96634.1
92900.8
105332
105330
105325
105317
105307
105296
105286
105276
105267
105257
105248
105239
105230
105222
105215
105207
105199
105187
105167
105132
105071
104971
104828
104644
104497
104585
104839
104965
104986
104974
104955
104940
104926
104898
104851
104747
104523
104170
102950
103162
103449
103346
103166
102980
102802
102613
102389
102080
101607
100889
99868
98394.3
96643.6
92903.6
105323
105321
105317
105309
105300
105290
105280
105270
105261
105252
105242
105233
105223
105212
105202
105192
105178
105160
105133
105092
105033
104955
104868
104771
104682
104683
104782
104863
104890
104889
104887
104894
104910
104934
104922
104761
104348
103083
102485
103057
103451
103431
103258
103074
102879
102697
102531
102311
101873
101083
99877.9
98245.5
96727.8
92715.2
105323
105321
105316
105309
105300
105290
105280
105270
105261
105252
105242
105233
105223
105213
105203
105192
105179
105160
105132
105090
105031
104954
104866
104767
104673
104677
104776
104859
104890
104893
104893
104901
104917
104908
104894
104775
103641
100402
98743.9
100250
101534
103161
103254
103054
102844
102660
102488
102247
101821
101113
100030
98501.1
96960.7
92902.7
105315
105313
105309
105302
105293
105283
105274
105265
105256
105247
105237
105226
105215
105204
105191
105177
105160
105137
105106
105063
105008
104943
104873
104801
104738
104718
104745
104780
104796
104802
104817
104857
104904
105061
105104
104054
100262
95350.2
96589.7
99794.1
101142
103149
103474
103285
103022
102825
102723
102597
102206
101433
100214
98692.5
97104.7
92814.7
105315
105313
105309
105302
105293
105283
105274
105265
105256
105247
105237
105227
105216
105204
105191
105177
105160
105136
105105
105062
105007
104942
104872
104799
104735
104712
104738
104774
104792
104801
104821
104870
104944
105056
104971
104338
96695.8
92543.1
94294.1
97451
99032.5
101738
103433
103305
103048
102811
102664
102485
102117
101454
100326
98914.7
97426
93074.6
105308
105306
105302
105295
105287
105278
105269
105260
105251
105242
105232
105221
105209
105195
105181
105164
105143
105117
105083
105040
104988
104927
104863
104800
104745
104707
104692
104688
104683
104683
104702
104762
104806
105020
104495
97625.5
90930.3
90535.6
94269.5
98213.2
100191
103122
103899
103624
103258
103026
102951
102848
102454
101713
100614
99345.9
97804.5
97695.4
105308
105306
105302
105295
105287
105278
105269
105260
105251
105242
105232
105221
105209
105195
105181
105164
105143
105116
105082
105039
104986
104926
104862
104799
104741
104703
104688
104684
104680
104682
104709
104809
104950
105060
104500
95767
87580.5
88722.4
93482.9
96720.8
99934.6
102719
103929
103659
103313
103056
102894
102726
102394
101779
100697
99777
98271
94281
105301
105300
105296
105289
105281
105273
105264
105255
105247
105237
105227
105215
105202
105187
105171
105151
105128
105099
105063
105019
104967
104908
104846
104783
104723
104670
104627
104591
104560
104538
104528
104553
104579
104216
101862
86249.4
85427.3
89255.6
94473.3
98304.4
101982
104463
104467
103955
103504
103267
103187
103045
102612
101741
100473
98902.7
97650.3
99588.7
105301
105299
105295
105289
105281
105273
105264
105255
105247
105237
105227
105215
105202
105187
105171
105151
105128
105098
105062
105018
104965
104907
104845
104781
104721
104667
104623
104587
104556
104532
104513
104547
104809
104257
93816.6
82261.7
84106.6
88624.9
93669.7
98527.6
102384
104239
104346
103928
103542
103321
103174
103021
102691
101948
100690
99833.6
98656.7
99605.8
105295
105294
105290
105284
105276
105268
105260
105251
105243
105233
105223
105210
105196
105180
105162
105140
105114
105083
105045
104999
104946
104887
104822
104755
104687
104618
104552
104490
104430
104367
104293
104233
104139
102906
89240.9
80370.8
85731.5
91441.7
96672.7
100856
103285
104578
104778
104197
103795
103606
103515
103382
102993
101908
100457
98174.6
95355.7
95150.7
105295
105294
105290
105284
105276
105268
105260
105251
105243
105233
105222
105210
105196
105180
105162
105140
105114
105082
105044
104998
104945
104885
104821
104754
104684
104616
104550
104488
104427
104359
104273
104109
103917
98653.8
82432.2
80743
86366.1
91381.1
96768.6
100940
103235
104718
104509
104082
103782
103632
103567
103490
103188
102023
100233
98764.5
97595.7
99580.7
105290
105289
105285
105279
105272
105264
105256
105248
105239
105230
105219
105206
105191
105173
105153
105130
105102
105068
105028
104981
104925
104863
104795
104722
104643
104561
104476
104389
104296
104201
104035
104297
103544
80721.6
72216.4
81191.8
89856
95571.3
100560
103486
104849
104788
104525
104323
104087
103990
103898
103744
103458
102668
102041
100030
94860.1
96926.3
105290
105289
105285
105279
105272
105264
105256
105248
105239
105229
105218
105206
105191
105173
105153
105130
105101
105068
105027
104979
104924
104862
104793
104719
104641
104558
104473
104387
104297
104191
104068
103716
99449.1
89158.5
78010.9
84521.3
91322.8
96155.5
100692
101625
104795
104973
104496
104162
104005
103992
103982
103934
103740
102521
100936
99306.4
95857.4
94219.7
105286
105285
105281
105275
105268
105261
105253
105245
105236
105226
105215
105201
105186
105167
105146
105121
105091
105055
105013
104963
104905
104839
104766
104686
104597
104501
104398
104291
104167
104035
103813
103311
103787
83008.9
83790.3
91869.6
98572.9
102648
105347
105524
105693
104893
104400
104360
104285
104266
104099
103751
103474
103181
103258
101191
94065.7
95969.3
105286
105284
105281
105275
105268
105261
105253
105245
105236
105226
105215
105201
105186
105167
105146
105120
105090
105054
105012
104961
104904
104837
104764
104684
104595
104499
104397
104290
104169
104039
103893
103493
98773.3
83186.8
86040.8
93610.9
99278.6
103073
105975
106283
105421
105029
104452
104255
104187
104256
104199
103993
103741
102930
102194
100613
94687.4
97339
105282
105281
105277
105272
105265
105258
105250
105242
105233
105223
105212
105198
105181
105162
105140
105113
105081
105044
104999
104947
104886
104816
104739
104651
104553
104445
104327
104198
104057
103897
103770
103857
108391
112706
104888
106159
108826
108934
107519
106542
105400
104617
104288
104399
104430
104513
104108
103424
103062
102270
100562
96802.1
90858.2
95647.6
105282
105281
105277
105272
105265
105258
105250
105242
105233
105223
105212
105198
105181
105162
105139
105112
105081
105043
104998
104945
104884
104815
104737
104649
104551
104443
104325
104198
104055
103897
103719
103591
105657
101621
102018
106067
108924
109215
108568
106232
105212
104680
104363
104356
104357
104534
104180
103574
103076
101544
99470
96232.4
90920.8
95094.3
105279
105278
105275
105269
105263
105255
105248
105240
105231
105221
105209
105195
105178
105158
105134
105106
105073
105034
104987
104932
104869
104796
104714
104620
104514
104395
104264
104117
103959
103777
103612
103384
103798
106792
107084
109036
110883
110444
108187
105971
104682
104292
104369
104544
104646
104845
104501
103958
103525
101556
98154.7
94274.3
88669.6
97559.4
105279
105278
105274
105269
105263
105255
105248
105240
105231
105221
105209
105194
105177
105157
105134
105106
105072
105033
104986
104931
104867
104794
104712
104618
104512
104392
104263
104112
103944
103755
103556
103145
103550
104207
106282
109383
111274
110203
107942
105676
104568
104295
104418
104526
104571
104844
104539
103907
103277
100798
97798.7
93811.7
88278.4
96968.6
105277
105276
105272
105267
105261
105254
105246
105238
105230
105219
105207
105192
105175
105154
105129
105101
105066
105025
104977
104920
104854
104779
104693
104595
104483
104357
104217
104060
103890
103696
103486
103262
102877
103301
104590
106950
108625
108856
107097
105107
104171
104165
104541
104826
104900
104997
104454
104116
103880
102267
100610
95682.7
83766.4
93259.8
105277
105275
105272
105267
105261
105254
105246
105238
105229
105219
105207
105192
105174
105154
105129
105100
105065
105024
104976
104919
104853
104777
104691
104592
104481
104355
104216
104056
103882
103684
103473
103139
102857
103061
104872
107151
108241
107945
106604
104971
104065
104163
104555
104821
104853
104990
104693
104187
103569
101742
100908
96263.6
84192.1
92923.5
105276
105274
105271
105266
105260
105253
105245
105237
105228
105218
105205
105191
105173
105152
105126
105097
105061
105019
104970
104912
104844
104767
104678
104577
104461
104331
104186
104027
103850
103655
103438
103211
102904
102594
102265
102482
101821
101505
101085
101958
103072
103838
104377
105051
105342
105316
104860
104667
105357
106882
110147
105612
80234.9
86374.5
105275
105274
105271
105266
105260
105253
105245
105237
105228
105218
105205
105190
105172
105151
105126
105096
105060
105018
104968
104910
104842
104765
104676
104575
104459
104329
104185
104026
103849
103641
103431
103233
102887
102698
102776
102855
102944
102081
101449
102164
103185
103915
104482
105080
105313
105342
104987
104758
104987
106301
110314
105838
80109.1
85963.9
105274
105273
105270
105265
105258
105251
105244
105236
105227
105217
105204
105189
105171
105149
105124
105093
105057
105015
104964
104905
104836
104758
104668
104565
104447
104316
104170
104010
103834
103643
103434
103206
102898
102438
101857
100999
99781.6
98656.6
98552.5
99708
101305
103076
104361
104934
105304
105243
105432
105842
106349
109950
114386
108121
83835.1
69474.9
105274
105273
105269
105264
105258
105251
105244
105236
105227
105217
105204
105189
105171
105149
105123
105093
105056
105013
104963
104903
104835
104756
104666
104563
104446
104314
104169
104009
103834
103641
103439
103231
102950
102529
101932
100922
99744.3
98666.9
98422
99481.5
101158
103500
104390
104929
105291
105305
105219
105532
106773
109931
114490
108552
84183.1
69179.7
104348
105575
104175
106249
105713
103756
103444
103649
103714
103500
104236
105305
104200
105494
105434
103602
103734
103711
103472
103574
105450
104553
103816
104511
103541
103813
103613
103825
103848
103532
103627
105417
104449
103352
104503
103014
103570
103624
103359
103618
102925
103896
105010
105224
105003
105343
104972
105330
104950
104394
104649
104369
104281
103962
104261
103947
104994
105176
104929
105316
104990
105240
104865
104351
104584
104327
104288
103925
104160
103880
105724
105571
105721
105633
105915
105648
105927
102894
103516
103723
103547
102727
104226
103965
104221
103846
104112
103768
104099
105689
105484
105594
105602
105820
105524
105702
102458
103266
103540
103379
102515
104197
103944
104198
103746
104097
103798
104119
105614
105505
105674
105194
105049
105193
105060
103398
105817
105175
105115
103678
103734
103930
104229
103864
104205
104033
104290
103959
104269
105551
105401
105465
105159
104979
105137
104978
102615
105122
104817
103033
104790
102960
103493
104213
103909
104230
104008
104320
104078
104346
104161
104466
104079
104558
104334
104551
104312
103828
103751
103731
104170
104199
104134
104184
103939
104377
103928
104512
104260
104508
104260
103772
103651
103883
104099
104196
104102
104212
105605
105049
104295
105001
105676
105649
104265
105076
105004
105199
106212
106225
106217
106204
106309
105944
106068
106143
105780
106049
106084
105494
105886
104577
102992
103634
103268
103492
102709
102776
102657
103117
103698
103669
103662
103096
102872
102726
103091
103481
103548
103532
103064
106063
105104
104053
104795
104880
105167
104034
104600
104618
102785
106254
105506
105783
105104
106153
111435
102973
105908
107202
105603
105540
111607
106003
103279
102437
103496
103392
103325
102490
102517
102510
102820
103457
103480
102959
103454
102386
102641
102919
103523
103562
103523
102988
102567
102784
103162
105699
105002
105098
103078
102368
102383
102772
103910
103812
103900
102962
102677
103693
103719
102688
103829
103731
103767
103836
103745
103931
103644
103455
103631
103657
103595
103641
103483
103605
103856
103802
103780
103803
103506
103698
103566
103438
103650
101555
102306
102923
105420
105151
105010
103296
101959
101583
102395
103616
103092
102725
103453
102430
103022
103502
103446
102703
103087
103535
103541
103380
103522
101230
124494
102834
103612
103480
103582
102330
103269
103416
103045
103359
103329
102585
103049
103205
103269
100924
105873
105512
105632
105943
105479
105928
105905
106005
105445
105348
105539
105211
105616
105377
105873
105609
105429
105764
105463
105890
105771
103512
103589
103740
103688
103588
103699
103464
103455
103716
103458
103530
103584
103592
103332
105458
105346
104860
106209
105046
105651
105552
103034
103358
103598
103429
103380
103094
103382
103238
103593
103505
103530
103399
103512
103222
103921
104686
104188
104535
104647
104156
103993
103852
104626
104556
104096
104676
103842
104150
103682
103834
103817
103750
103717
103698
103815
103523
103559
103661
103522
103600
103441
103577
103929
104572
104111
104414
103979
104520
104044
104021
104707
104434
104174
104584
104058
104231
103389
103527
103446
103740
103390
103535
103535
103142
103581
103851
103709
103600
103571
102840
102715
103340
102047
102806
103318
102636
102000
102082
102439
102249
102177
102088
102271
102182
102059
102657
102749
103136
101931
103276
101968
102592
102622
102896
102446
102137
102850
102596
102101
102226
102757
102151
102331
102444
102529
102754
101794
102276
102775
101971
102331
101751
102133
102082
104671
103831
104177
103497
103953
104520
104246
105331
106038
106022
105410
105278
105826
105947
105112
104720
103527
104108
104356
103972
104305
104776
103835
103920
103150
101532
102696
104056
101866
103191
103773
102089
103276
102077
103184
102856
106937
103973
103146
103059
102751
102636
103939
103589
101710
103842
102481
103052
104410
105295
104782
105593
105297
104406
104719
103623
102965
102793
103723
103485
102807
102664
103558
104430
105610
105345
104863
105319
104719
104572
104599
105346
104856
105663
104474
105369
104988
104397
104691
103555
105478
103767
102900
103631
102969
104941
105584
105426
91209
105453
104922
105403
106483
106220
106423
106264
106263
106500
106398
106556
106417
106425
106528
106487
106244
106345
106389
106516
106300
106281
106553
106289
106551
106488
105964
105986
105947
106157
106058
106116
106067
106207
105505
105267
104453
104703
104910
105707
105942
105849
106165
105905
105235
105419
105734
105927
106110
105514
105888
105736
102554
103363
102198
103039
102689
103263
102107
102027
103301
102276
102581
102056
102288
102086
102322
102336
102960
102841
101864
102313
103016
101883
102737
102674
103480
103444
103292
103125
103487
103295
103449
103696
103850
103866
103713
103675
103794
103652
103811
103480
103087
103433
103282
103463
103299
103487
102959
102926
103316
103360
103064
103229
103315
103354
103192
103452
103578
103444
103585
103268
103065
103310
103170
103250
103160
103295
103517
103702
103563
103641
103053
104085
104887
103461
104501
102712
101608
102994
103518
102574
104104
103693
104820
105301
103559
104920
104567
102679
102110
101507
101915
101716
103362
104186
104132
104807
103068
104384
103719
101511
101696
101368
101690
102676
101774
102297
102040
102663
103461
103299
102452
103776
102547
102681
108861
106682
106690
106812
106609
104368
106680
123713
103795
106707
103559
106581
105665
105767
115311
106069
104994
105338
109336
111376
106494
109180
109287
104996
111224
105944
108933
106673
108134
106085
104605
105931
101076
103668
110273
106031
108087
107341
105946
112949
107310
106255
106040
106494
103136
113684
106682
106696
102221
102941
101693
102535
102391
103012
101444
101547
101178
101783
102198
101465
101546
101665
101618
102382
102626
103057
101753
103080
101731
102925
102541
102522
103278
102800
103167
103078
103157
103066
103290
103419
103538
103423
103523
103254
102835
103249
103157
103283
103160
103097
103455
103576
103483
103542
102456
102564
103393
103259
103132
102966
103311
103362
103178
103533
103589
103571
103540
103551
103612
103533
103587
103356
102919
103232
103238
103248
103192
103348
102664
102630
104083
103422
104017
103045
104232
103103
103944
104112
104272
103952
104602
104516
105469
104772
105111
103842
103001
103042
103920
103857