/*--------------------------------*- C++ -*----------------------------------*\
| =========                 |                                                 |
| \\      /  F ield         | OpenFOAM: The Open Source CFD Toolbox           |
|  \\    /   O peration     | Version:  4.1                                   |
|   \\  /    A nd           | Web:      www.OpenFOAM.org                      |
|    \\/     M anipulation  |                                                 |
\*---------------------------------------------------------------------------*/
FoamFile
{
    version     2.0;
    format      ascii;
    class       surfaceScalarField;
    location    "20";
    object      phi;
}
// * * * * * * * * * * * * * * * * * * * * * * * * * * * * * * * * * * * * * //

dimensions      [0 3 -1 0 0 0 0];

internalField   nonuniform List<scalar> 
11516
(
9.98467e+06
3225.28
21898.1
1.00337e+07
13301.4
39108.5
1.00617e+07
15865.5
62604.6
1.00679e+07
16913.1
89368.7
1.00478e+07
18042.5
121389
9.9977e+06
19166.3
157294
9.91387e+06
20271.3
197103
9.79311e+06
21427.5
240460
9.63408e+06
22747
286406
9.43796e+06
24356.5
333453
9.21051e+06
26571
378393
8.96184e+06
29731.9
416649
8.70891e+06
31881.7
441549
8.47701e+06
33655.2
444720
8.29663e+06
30754.7
420931
8.19555e+06
30372
381694
8.1841e+06
41572.8
332149
8.22953e+06
42746.5
226253
8.24359e+06
6767.67
184542
8.34464e+06
27496.9
73954.9
8.40642e+06
-9432.48
119684
8.25088e+06
-18113.9
258908
8.28272e+06
24397
-39304.5
8.92598e+06
128303
-699784
1.02052e+07
164230
-1.32804e+06
1.1899e+07
157850
-1.67878e+06
1.38419e+07
156648
-1.83515e+06
1.57517e+07
128376
-1.79839e+06
1.71642e+07
119320
-1.32363e+06
1.75334e+07
56297.6
-344903
1.68375e+07
34476
724767
1.52199e+07
92804.3
1.56185e+06
1.2754e+07
150382
2.38735e+06
9.45714e+06
240730
3.28951e+06
5.76005e+06
304473
4.24145e+06
3.52714e+06
-1.08649e+06
4.48411e+06
2.1995e+06
-759931
3.61967e+06
2.95313e+06
-2.23081e+06
3.70209e+06
-2.21501e+06
-1.99506e+06
9.46491e+06
-6.27059e+06
-477799
5.62732e+06
-8.13671e+06
386759
2.23279e+06
-8.23043e+06
709603
1.48218e+06
-5.97584e+06
218935
2.02739e+06
1.30562e+07
-4.72811e+06
-1.19195e+06
1.09462e+07
2.35432e+07
6.15574e+06
-1.18395e+06
2.33824e+07
5.66129e+06
-7.61214e+06
8.94659e+06
1.03527e+07
-6.13829e+06
1.32097e+06
8.70478e+06
-1.01259e+06
-1.72112e+06
6.96082e+06
1.89198e+06
-905044
8.78168e+06
1.33586e+07
-6.67452e+06
1.80624e+06
3.20474e+07
-3.73338e+06
-1.6901e+07
3.95372e+07
-98059.1
-8.54765e+06
593525
-2.00742e+07
9.9886e+06
21999.9
1.00336e+07
38881.9
1.0061e+07
62362
1.00669e+07
88941.2
1.00466e+07
120607
9.99657e+06
155998
9.91306e+06
195091
9.79318e+06
237558
9.63579e+06
282362
9.44211e+06
328250
9.21829e+06
371780
8.9741e+06
408847
8.72309e+06
433209
8.48762e+06
437956
8.29495e+06
420468
8.19185e+06
381615
8.18022e+06
322957
8.23947e+06
186887
8.30044e+06
131160
8.43877e+06
4032.5
8.52393e+06
-21521.9
8.38198e+06
164347
8.30505e+06
139339
8.84416e+06
-375228
1.01413e+07
-1.07182e+06
1.19053e+07
-1.51221e+06
1.38903e+07
-1.767e+06
1.58568e+07
-1.80081e+06
1.73275e+07
-1.37176e+06
1.78566e+07
-476636
1.72862e+07
604716
1.5876e+07
1.60083e+06
1.37242e+07
2.50898e+06
1.09561e+07
3.28773e+06
8.27735e+06
3.35014e+06
5.36422e+06
2.3963e+06
3.8182e+06
1.65671e+06
2.63001e+06
363828
-2.20188e+06
3.47348e+06
-7.36118e+06
4.53846e+06
-1.27729e+07
5.72972e+06
-1.87297e+07
7.4505e+06
-3.02811e+07
1.26668e+07
-5.27645e+07
2.16655e+07
-4.97349e+07
2.62852e+07
-2.92558e+07
7.55713e+06
-1.60655e+07
30420.7
-7.11954e+06
-3.00753e+06
2.4819e+06
-5.21465e+06
1.01008e+07
-2.94024e+06
1.0765e+07
-7.91307e+06
3.31536e+07
-2.73622e+07
3.33128e+07
-497552
-2.33696e+07
1.00315e+07
3297.93
15446.1
1.01236e+07
13375.8
35525.6
1.02198e+07
15916.5
56323
1.03233e+07
16758.2
78938.9
1.0435e+07
17614.5
106223
1.05552e+07
18407.8
136654
1.06831e+07
19116.5
171235
1.08171e+07
19825
210648
1.09538e+07
20644.4
256333
1.10905e+07
21729.4
307663
1.12228e+07
23349.9
364176
1.1346e+07
25639.3
422686
1.1453e+07
28954.1
480637
1.15463e+07
31037
524508
1.15849e+07
42617.8
575975
1.16012e+07
39970.1
596559
1.1626e+07
43672.5
616075
1.1309e+07
28343.6
667505
1.07105e+07
23239.8
820992
9.96393e+06
22422.1
829354
9.3343e+06
30402.1
743164
9.12323e+06
23006.8
474488
9.36988e+06
-9279.32
-258952
1.00269e+07
-16524.6
-1.34198e+06
1.09685e+07
2192.56
-2.30626e+06
1.21179e+07
6620.86
-2.92623e+06
1.33341e+07
25084.8
-3.24939e+06
1.44117e+07
53490.2
-3.12721e+06
1.51793e+07
106544
-2.33746e+06
1.56217e+07
86685
-913804
1.56336e+07
8579.88
759854
1.5057e+07
34443.3
2.20399e+06
1.40185e+07
41284.8
3.47782e+06
1.249e+07
110569
4.78139e+06
1.02548e+07
273012
6.19535e+06
6.87053e+06
169162
7.62756e+06
3.64708e+06
-578860
7.15064e+06
693541
-1.30187e+06
7.17063e+06
-1.42545e+06
742634
9.70439e+06
-2.19095e+06
1.08697e+06
4.43118e+06
-1.50032e+06
-343200
1.40898e+06
-662895
-1.23018e+06
1.2973e+06
-982873
-2.14789e+06
3.3445e+06
-1.13075e+07
3.16301e+06
4.67789e+06
-1.75805e+07
3.32106e+06
7.76268e+06
-1.8946e+07
-461149
7.31401e+06
-1.16954e+07
-3.36811e+06
7.70248e+06
-6.37852e+06
-4.36388e+06
1.03791e+07
-3.65532e+06
-4.55147e+06
1.1808e+07
2.34117e+06
-6.73524e+06
1.30887e+07
-4.08828e+06
-5.20382e+06
1.61652e+07
-2.26815e+07
-1.97965e+06
5.40214e+06
-2.03125e+07
-2.30899e+06
-6.32916e+06
46046.6
-6.65487e+06
1.00354e+07
15491.7
1.01232e+07
35325.2
1.02186e+07
55875.6
1.03216e+07
78398.1
1.04328e+07
105616
1.05523e+07
135967
1.06793e+07
170429
1.08123e+07
209662
1.09481e+07
254995
1.10839e+07
305998
1.12161e+07
361550
1.13385e+07
420068
1.14471e+07
475883
1.15405e+07
521566
1.16249e+07
563483
1.16886e+07
593232
1.16508e+07
627380
1.1335e+07
621364
1.07403e+07
785611
1.0008e+07
781714
9.3696e+06
662933
9.13202e+06
433531
9.40756e+06
-142674
1.00879e+07
-1.08099e+06
1.102e+07
-2.04386e+06
1.21691e+07
-2.7694e+06
1.35059e+07
-3.2563e+06
1.47282e+07
-3.15389e+06
1.57444e+07
-2.41129e+06
1.65883e+07
-1.25698e+06
1.69553e+07
334210
1.66366e+07
2.05599e+06
1.57669e+07
3.52864e+06
1.44524e+07
4.81921e+06
1.26021e+07
5.55521e+06
9.8019e+06
5.39116e+06
5.99664e+06
4.70806e+06
-328330
4.74226e+06
-3.85521e+06
6.64401e+06
-6.73778e+06
7.48353e+06
-9.3702e+06
7.38126e+06
-1.41533e+07
1.0078e+07
-2.16925e+07
1.68796e+07
-1.86977e+07
2.03528e+07
-2.26317e+06
1.22463e+07
5.32606e+06
-647027
1.08725e+07
-8.18743e+06
1.52265e+07
-1.02791e+07
1.87914e+07
-1.14411e+07
1.17113e+07
-893306
-9.40316e+06
8.25499e+06
-3.21475e+07
-5.38972e+06
-2.05696e+07
-1.15019e+07
-3.82902e+06
1.00119e+07
3304.38
19844
1.00838e+07
13164.8
49819.4
1.01494e+07
15544.8
77824.1
1.0211e+07
16260.9
107652
1.02681e+07
16972.7
142875
1.03215e+07
17579.7
180079
1.03723e+07
18055.5
219586
1.04218e+07
18459.6
262287
1.04736e+07
18940.5
307756
1.05313e+07
19591.3
356884
1.06004e+07
20830.1
408420
1.06858e+07
22766.8
461471
1.07911e+07
25767.8
517587
1.0921e+07
28829.2
567825
1.10974e+07
40275.7
632746
1.13135e+07
48348.4
680558
1.15152e+07
53666.2
697427
1.12791e+07
17937.7
962103
1.07271e+07
23427.2
1.37263e+06
1.00351e+07
16197.8
1.51152e+06
9.43199e+06
18806.4
1.33812e+06
9.15374e+06
12712.4
756306
9.22302e+06
-21724.1
-279409
9.50245e+06
-55768.9
-1.56054e+06
9.90915e+06
-58692.4
-2.70676e+06
1.05126e+07
-42565.3
-3.6551e+06
1.12722e+07
25723.9
-4.31101e+06
1.17726e+07
105684
-4.01711e+06
1.17971e+07
196504
-2.75044e+06
1.15895e+07
139114
-878744
1.12067e+07
71521.3
1.15499e+06
1.05918e+07
159304
2.76905e+06
9.97433e+06
240072
3.9879e+06
9.44051e+06
218175
5.2576e+06
9.04051e+06
-6813.17
6.67993e+06
7.75347e+06
210610
8.71429e+06
4.65808e+06
314374
9.63132e+06
1.77086e+06
-594387
9.78811e+06
867404
-412321
1.0047e+07
107904
-955773
5.42343e+06
452153
-489324
1.24143e+06
1.37287e+06
-1.41929e+06
1.25167e+06
2.38261e+06
-1.20701e+06
2.07319e+06
3.02097e+06
1.29326e+06
324291
3.36941e+06
4.31329e+06
117346
1.10069e+06
3.90368e+06
3.55995e+06
2.12019e+06
1.69662e+06
4.27491e+06
2.79948e+06
-66050.1
9.6911e+06
2.20387e+06
-1.67444e+06
1.48349e+07
7.35857e+06
-4.66324e+06
1.34113e+07
1.73114e+07
-4.5566e+06
1.10687e+07
2.31204e+07
-7.66333e+06
8.68254e+06
2.17317e+07
-7.9933e+06
6.56247e+06
-4.25777e+06
-3.1385e+06
1.0016e+07
19794.4
1.00834e+07
49420.2
1.01483e+07
77379
1.02093e+07
107144
1.02659e+07
142251
1.03188e+07
179309
1.03691e+07
218636
1.04181e+07
261103
1.04696e+07
306265
1.05272e+07
355022
1.05964e+07
405920
1.06818e+07
459308
1.07877e+07
513715
1.09216e+07
564339
1.10946e+07
625432
1.13043e+07
685803
1.14972e+07
700474
1.12796e+07
919801
1.07679e+07
1.33552e+06
1.0102e+07
1.46797e+06
9.4951e+06
1.29398e+06
9.19335e+06
761620
9.2355e+06
-190988
9.50426e+06
-1.40878e+06
9.91398e+06
-2.57434e+06
1.05542e+07
-3.59854e+06
1.13864e+07
-4.2711e+06
1.2086e+07
-3.94459e+06
1.24829e+07
-2.71948e+06
1.24892e+07
-1.10504e+06
1.21671e+07
810474
1.19178e+07
2.57334e+06
1.18434e+07
3.99402e+06
1.17336e+07
5.34177e+06
1.1038e+07
6.42118e+06
9.69085e+06
7.03208e+06
7.0561e+06
7.45276e+06
2.31678e+06
8.2793e+06
-1.15725e+06
8.61731e+06
-4.46398e+06
8.9342e+06
-5.00411e+06
7.03692e+06
-6.38726e+06
9.09039e+06
-6.66939e+06
1.3865e+07
-127469
1.30105e+07
8.85626e+06
6.11534e+06
1.40416e+07
-2.89092e+06
1.69952e+07
-9.91227e+06
1.95531e+07
-1.29403e+07
2.02415e+07
-1.35652e+07
1.77104e+07
-3.01826e+06
1.58737e+07
6.1201e+06
4.01997e+06
442430
-4.85267e+06
-5.81656e+06
-1.44983e+07
1.00106e+07
3228.02
24598.5
1.00824e+07
12751.8
61948.8
1.01483e+07
15118
96858.5
1.02103e+07
15818.5
133655
1.02669e+07
16476.7
177119
1.03179e+07
16994.2
222438
1.03615e+07
17337.4
270685
1.03977e+07
17547.6
321450
1.04262e+07
17744.6
375325
1.0448e+07
18054.5
433005
1.0465e+07
18775.8
494177
1.04799e+07
20525.3
559027
1.05001e+07
22462.9
627787
1.0541e+07
27823.6
696322
1.06284e+07
36078.6
767082
1.0769e+07
53396.5
837220
1.09391e+07
41410
777267
1.1022e+07
33017.7
957354
1.07055e+07
20977.2
1.68147e+06
1.01732e+07
14590.5
2.02665e+06
9.63192e+06
14342.8
1.87145e+06
9.26123e+06
2495.75
1.1619e+06
9.01015e+06
-45361.1
63643.7
8.77801e+06
-67012.7
-1.22698e+06
8.58738e+06
-71436.6
-2.46427e+06
8.52886e+06
-60023.9
-3.63915e+06
8.45579e+06
22310.3
-4.4204e+06
7.94846e+06
90304.1
-3.74331e+06
6.92137e+06
116435
-1.92235e+06
5.57917e+06
163916
295527
4.39516e+06
183356
2.1991e+06
3.68065e+06
197695
3.34831e+06
3.48544e+06
255614
4.01889e+06
3.98242e+06
251167
4.61587e+06
5.17882e+06
62423.4
5.53228e+06
6.2684e+06
179258
7.5591e+06
4.85075e+06
719003
1.03263e+07
2.8834e+06
113906
1.14679e+07
2.15885e+06
-304970
1.08746e+07
2.36243e+06
-1.12212e+06
6.17145e+06
2.62575e+06
-110274
1.03476e+06
3.23882e+06
-478012
860650
4.34288e+06
156832
-525758
5.81297e+06
842645
-3.98982e+06
7.69158e+06
1.58766e+06
-5.78731e+06
1.12951e+07
2.66294e+06
-5.39335e+06
1.34854e+07
3.58422e+06
-3.89435e+06
9.33559e+06
3.12196e+06
9.81193e+06
3.89853e+06
442751
1.94836e+07
6.53987e+06
-3.63315e+06
1.46259e+07
1.52643e+07
-4.24587e+06
7.44065e+06
2.75374e+07
-6.8242e+06
3.5382e+06
3.56735e+07
-5.93802e+06
6.08553e+06
-3.24853e+06
-925958
1.00145e+07
24624.3
1.00821e+07
61787.3
1.01473e+07
96359.6
1.02087e+07
132991
1.02649e+07
176314
1.03152e+07
221472
1.03582e+07
269539
1.03939e+07
320110
1.04221e+07
373767
1.04438e+07
431185
1.04609e+07
492023
1.04771e+07
556767
1.04989e+07
625129
1.05392e+07
692251
1.0634e+07
762757
1.07791e+07
832932
1.09317e+07
775960
1.09758e+07
972800
1.07472e+07
1.5932e+06
1.0263e+07
1.96622e+06
9.74006e+06
1.84099e+06
9.33877e+06
1.19472e+06
9.00931e+06
129785
8.7137e+06
-1.17423e+06
8.47586e+06
-2.43935e+06
8.37185e+06
-3.63669e+06
8.24373e+06
-4.21573e+06
7.76527e+06
-3.44664e+06
6.89877e+06
-1.76731e+06
5.7542e+06
218840
4.75874e+06
2.02389e+06
4.32942e+06
3.25298e+06
4.57546e+06
4.10235e+06
5.44683e+06
4.84937e+06
6.51404e+06
5.54969e+06
7.70135e+06
6.25188e+06
7.36483e+06
8.5618e+06
5.43351e+06
1.01307e+07
2.74519e+06
1.07168e+07
30760
1.03447e+07
214571
6.66205e+06
-175071
8.41544e+06
-66003.4
1.22019e+07
4.45385e+06
7.8411e+06
9.26331e+06
1.51018e+06
1.27027e+07
-4.84401e+06
1.57973e+07
-1.02188e+07
1.86598e+07
-1.32753e+07
1.76829e+07
-1.23981e+07
1.74531e+07
-5.93215e+06
1.77752e+07
1.49246e+06
2.70351e+07
-1.3903e+07
2.87187e+07
-1.28772e+07
-2.102e+07
1.00106e+07
3183.61
29101.7
1.00813e+07
12594.2
72867.1
1.01473e+07
14813.6
113184
1.021e+07
15438.5
155641
1.02684e+07
16021.7
205806
1.0322e+07
16451.1
257729
1.03697e+07
16687.7
312525
1.04109e+07
16776
369721
1.04446e+07
16823.4
430910
1.04709e+07
16957.5
496780
1.04904e+07
17432.2
568147
1.05038e+07
18790.5
646349
1.05162e+07
20805.9
731253
1.05341e+07
24905.9
823265
1.05759e+07
33875.3
909224
1.06342e+07
44865
1.00271e+06
1.05902e+07
50157.5
1.03536e+06
1.06678e+07
34832.5
982435
1.08125e+07
2762.32
1.54555e+06
1.06086e+07
34060
2.18835e+06
1.01819e+07
24211.7
2.28175e+06
9.73712e+06
-11727.3
1.65255e+06
9.16986e+06
-63464.7
741990
8.39353e+06
-74244.7
-348093
7.49577e+06
-90311.1
-1.48078e+06
6.51815e+06
-82495.3
-2.62055e+06
5.39022e+06
367.674
-3.33954e+06
3.98991e+06
61263.4
-2.44727e+06
2.44348e+06
50119.6
-457209
1.05564e+06
61777.5
1.61091e+06
150057
70716.9
3.03884e+06
-247295
76014.7
3.69133e+06
-212898
114810
3.89966e+06
230524
214490
3.98466e+06
1.4686e+06
230458
4.07296e+06
4.13652e+06
986288
4.0296e+06
4.64531e+06
835363
9.20817e+06
4.54721e+06
146693
1.1535e+07
5.16648e+06
-1.14047e+06
1.15259e+07
5.04823e+06
-1.04223e+06
7.37512e+06
4.65276e+06
-245179
1.68258e+06
4.97923e+06
-707034
997565
6.58757e+06
-134714
-2.94535e+06
8.36685e+06
-74179.8
-6.86918e+06
9.97416e+06
309625
-9.24017e+06
1.14805e+07
434611
-9.12995e+06
1.02395e+07
2.13523e+06
-6.34817e+06
2.72051e+06
2.9735e+06
1.35282e+07
-1.66203e+06
2.19044e+06
2.15667e+07
3.33601e+06
-2.71639e+06
1.29655e+07
8.48304e+06
-4.46999e+06
6.98637e+06
1.79573e+07
-8.33632e+06
3.31178e+06
2.88867e+07
-8.05824e+06
2.99861e+06
-1.34182e+06
-2.8203e+06
1.00145e+07
28970.8
1.00809e+07
72204
1.01461e+07
112414
1.02083e+07
154724
1.02662e+07
204667
1.03192e+07
256351
1.03663e+07
310898
1.04069e+07
367847
1.04402e+07
428784
1.04664e+07
494385
1.0486e+07
565412
1.05009e+07
642966
1.05146e+07
727423
1.05334e+07
816554
1.05813e+07
897528
1.06364e+07
988071
1.05948e+07
1.00689e+06
1.06465e+07
1.01353e+06
1.08169e+07
1.43024e+06
1.07157e+07
2.10003e+06
1.03845e+07
2.2134e+06
9.88946e+06
1.7079e+06
9.16812e+06
802341
8.26062e+06
-332884
7.23609e+06
-1.51448e+06
6.13756e+06
-2.63947e+06
4.98277e+06
-3.08179e+06
3.70865e+06
-2.13151e+06
2.368e+06
-393917
1.14018e+06
1.49865e+06
337157
2.89907e+06
40891.1
3.63795e+06
251503
4.02056e+06
906604
4.41008e+06
2.80708e+06
3.95972e+06
5.83899e+06
4.36444e+06
7.26178e+06
8.03355e+06
7.30399e+06
1.03099e+07
5.83281e+06
1.11322e+07
4.44089e+06
1.08261e+07
3.76135e+06
7.04959e+06
2.85426e+06
8.22264e+06
3.88359e+06
9.95228e+06
7.02685e+06
3.65037e+06
1.01525e+07
-2.21764e+06
1.20673e+07
-7.08113e+06
1.38794e+07
-1.05512e+07
1.4639e+07
-1.15689e+07
1.28612e+07
-8.61052e+06
8.21845e+06
-4.21871e+06
5.04792e+06
781797
-9.76617e+06
-7.8152e+06
-1.92085e+07
-1.20682e+07
-7.48351e+06
1.00105e+07
3030.9
31979.5
1.00796e+07
11941.4
81488.9
1.01448e+07
14082
126323
1.02076e+07
14624.6
173059
1.02672e+07
15082.3
228153
1.03225e+07
15365.5
285202
1.0373e+07
15445.8
344669
1.04178e+07
15374.5
406570
1.04567e+07
15245.3
472591
1.04902e+07
15183.6
543427
1.05191e+07
15352.3
620683
1.0545e+07
16062
704757
1.05714e+07
17468.1
795997
1.05975e+07
18209.3
894537
1.06245e+07
24077.7
993569
1.06516e+07
24923.8
1.09113e+06
1.05734e+07
27958.6
1.2223e+06
1.04363e+07
-17702.1
1.21275e+06
1.06196e+07
-31488.9
1.40441e+06
1.08524e+07
44132.7
1.89922e+06
1.08077e+07
41195.7
2.28002e+06
1.03731e+07
8052.65
2.07968e+06
9.61684e+06
-53804.6
1.56169e+06
8.5576e+06
-83841.8
808536
7.17737e+06
-119326
33673.4
5.48565e+06
-91433.1
-819328
3.69449e+06
-13642
-1.55004e+06
2.10214e+06
50446.7
-931066
763792
16645.2
826574
-246672
-1424.54
2.58731e+06
-887172
10468.3
3.64642e+06
-1.24396e+06
29785
4.00712e+06
-1.46486e+06
79858.5
4.03052e+06
-1.71609e+06
340735
3.87484e+06
-2.58312e+06
2.02356e+06
2.89188e+06
891573
598103
33935.5
6.16917e+06
766826
3.20289e+06
6.57301e+06
320565
1.11368e+07
7.5618e+06
-709868
1.16128e+07
7.58892e+06
-531867
8.15776e+06
6.92503e+06
-675103
2.97888e+06
7.12003e+06
-718147
1.1564e+06
8.52478e+06
-818178
-4.14321e+06
9.68314e+06
-409920
-8.31464e+06
1.05961e+07
81544.8
-1.10315e+07
9.77149e+06
-549810
-8.725e+06
5.46733e+06
691533
-3.5458e+06
525517
1.93855e+06
1.60596e+07
-396674
1.78514e+06
2.03771e+07
2.7813e+06
-963201
1.03457e+07
9.73698e+06
-4.21321e+06
4.01428e+06
1.8185e+07
-6.77818e+06
771226
2.75563e+07
-5.0975e+06
-2.437e+06
-8.59062e+06
-4.76108e+06
1.00141e+07
32012.4
1.00793e+07
81221.9
1.01437e+07
125602
1.0206e+07
172097
1.02651e+07
226987
1.03198e+07
283824
1.03696e+07
343081
1.04138e+07
404788
1.04522e+07
470630
1.04855e+07
541291
1.05143e+07
618321
1.05409e+07
701919
1.05676e+07
792680
1.05942e+07
890584
1.06225e+07
982570
1.06435e+07
1.08363e+06
1.05522e+07
1.19552e+06
1.03167e+07
1.26059e+06
1.03328e+07
1.38218e+06
1.07049e+07
1.76691e+06
1.08055e+07
2.14232e+06
1.04568e+07
2.05173e+06
9.67401e+06
1.53511e+06
8.38793e+06
876553
6.80094e+06
-38718.2
5.02147e+06
-952327
3.38314e+06
-1.46558e+06
1.96804e+06
-686073
763184
799619
-174986
2.41175e+06
-773418
3.49441e+06
-1.06819e+06
3.95566e+06
-1.10207e+06
4.12465e+06
-626856
4.25104e+06
3.32901e+06
1.94815e+06
6.21379e+06
2.07087e+06
7.71383e+06
7.4711e+06
8.21161e+06
1.03279e+07
7.96796e+06
1.08902e+07
7.38018e+06
1.09671e+07
5.77359e+06
7.92371e+06
5.0376e+06
7.81472e+06
6.70038e+06
6.80868e+06
9.24272e+06
183433
1.15471e+07
-4.8623e+06
1.1955e+07
-8.40411e+06
1.1661e+07
-9.98603e+06
1.03392e+07
-8.75863e+06
9.07494e+06
-5.88243e+06
8.67918e+06
-4.85574e+06
8.64565e+06
-4.13214e+06
-3.05277e+06
-3.9903e+06
-1.82424e+07
-2.97914e+06
6.88744e+06
1.00102e+07
2964.85
34983.9
1.00776e+07
11694.2
88931
1.01419e+07
13665
136740
1.02047e+07
14121.6
186506
1.02651e+07
14499.7
245260
1.03219e+07
14702.9
306082
1.03748e+07
14704.1
368823
1.0423e+07
14560.5
433921
1.04667e+07
14355.1
502810
1.05056e+07
14199.1
577048
1.05418e+07
14173.6
656633
1.0576e+07
14505
742909
1.06089e+07
15131.2
835167
1.06426e+07
15124.4
933326
1.06676e+07
16816.4
1.03371e+06
1.0677e+07
15031.3
1.12887e+06
1.06561e+07
13080.9
1.26857e+06
1.04792e+07
-956.477
1.40015e+06
1.03598e+07
6773.97
1.49414e+06
1.05426e+07
11271
1.64988e+06
1.08166e+07
30228
1.90351e+06
1.06837e+07
24136.2
2.13133e+06
1.01185e+07
-55688.6
2.15961e+06
9.09485e+06
-62221
1.89688e+06
7.57492e+06
-94734.6
1.66478e+06
5.67213e+06
-114544
1.20332e+06
3.6598e+06
-17386.5
479979
2.09903e+06
96480.9
502078
1.00144e+06
62494.7
1.8189e+06
246784
-10447.9
3.3169e+06
-236508
-12857.7
4.12186e+06
-575631
19730.9
4.31458e+06
-984306
108954
4.3238e+06
-2.11543e+06
541561
4.44696e+06
-3.84219e+06
1.44827e+06
3.00982e+06
-3.77036e+06
-19124.3
-24161.8
1.59032e+06
913120
-2.91957e+06
6.82188e+06
444941
5.76711e+06
8.9366e+06
-148382
9.96969e+06
1.00081e+07
-49695.5
7.30034e+06
9.42736e+06
-157035
3.6462e+06
9.57474e+06
-286322
1.02996e+06
9.9221e+06
-817128
-4.04506e+06
9.73748e+06
-75425
-8.42507e+06
9.35653e+06
740776
-1.17726e+07
8.29674e+06
-32990.1
-7.72936e+06
3.71124e+06
591063
377227
801502
1.70537e+06
1.72169e+07
973031
1.79785e+06
1.83808e+07
3.09451e+06
-492123
8.49148e+06
7.46863e+06
-2.18539e+06
848893
1.1653e+07
-156615
-4.66208e+06
1.35036e+07
962601
-6.3419e+06
-1.24145e+06
-1.60369e+07
1.00137e+07
34813.2
1.00771e+07
88075
1.01408e+07
135735
1.0203e+07
185331
1.02628e+07
243838
1.0319e+07
304410
1.03713e+07
366901
1.04189e+07
431749
1.04621e+07
500368
1.05008e+07
574275
1.05368e+07
653375
1.05709e+07
738810
1.06046e+07
829930
1.06367e+07
927049
1.06589e+07
1.02265e+06
1.06686e+07
1.11996e+06
1.06383e+07
1.25165e+06
1.0499e+07
1.39151e+06
1.03656e+07
1.49123e+06
1.04723e+07
1.61809e+06
1.07377e+07
1.84927e+06
1.07245e+07
2.04805e+06
1.00099e+07
2.17619e+06
8.85834e+06
1.96601e+06
7.20332e+06
1.52398e+06
5.19377e+06
946570
3.38984e+06
314628
2.04119e+06
739710
1.04079e+06
1.83472e+06
330788
3.08575e+06
-136658
3.93164e+06
-400740
4.23075e+06
-482124
4.30241e+06
-324452
4.50352e+06
-1.21648e+06
4.10532e+06
1.32242e+06
-512692
6.36813e+06
3.42435e+06
8.251e+06
9.00964e+06
8.69151e+06
1.04341e+07
9.17092e+06
1.05308e+07
8.53292e+06
8.3418e+06
8.66385e+06
7.13917e+06
9.49482e+06
4.88176e+06
1.09137e+07
-1.51509e+06
1.2909e+07
-6.26368e+06
1.29222e+07
-8.53422e+06
1.20924e+07
-8.61724e+06
1.16808e+07
-6.61246e+06
1.29431e+07
-5.36362e+06
1.46649e+07
-7.37145e+06
1.72081e+07
-9.43423e+06
2.05709e+07
-8.43588e+06
2.35574e+07
-5.72709e+06
-7.39409e+06
1.00099e+07
2762.94
36136.8
1.00751e+07
10867.7
93615.4
1.01381e+07
12729.7
143755
1.02003e+07
13097.6
195379
1.02608e+07
13351.8
256349
1.0319e+07
13416.9
319173
1.03742e+07
13277.1
383386
1.04255e+07
12978
450037
1.04731e+07
12578.4
519648
1.05178e+07
12137
593557
1.05597e+07
11646.7
672306
1.05991e+07
11167.3
756134
1.06352e+07
10593.8
844211
1.06682e+07
9333.37
936520
1.06906e+07
7686.98
1.03165e+06
1.06976e+07
6691.45
1.12489e+06
1.07036e+07
3713.57
1.23732e+06
1.06708e+07
-1385.26
1.38717e+06
1.05687e+07
433.712
1.51863e+06
1.05163e+07
-1379.58
1.60608e+06
1.06008e+07
7490.72
1.70612e+06
1.06728e+07
5935.3
1.96631e+06
1.04508e+07
-27249.7
2.35764e+06
9.7169e+06
-24968.7
2.63913e+06
8.5305e+06
-64161.2
2.91187e+06
7.05867e+06
-127613
2.80741e+06
5.35365e+06
-62275.4
2.23656e+06
3.71196e+06
99650.6
1.98155e+06
2.43406e+06
86085.4
2.90063e+06
1.58219e+06
-3900.53
4.05649e+06
1.19164e+06
-11095
4.46087e+06
1.03091e+06
-9538.46
4.45639e+06
1.03139e+06
34282.9
4.27669e+06
684428
428322
4.21964e+06
-1.2976e+06
1.2652e+06
3.49888e+06
-767989
-113798
-574545
1.46851e+06
-1.45882e+06
-3.76776e+06
4.98037e+06
138056
2.16185e+06
7.53447e+06
264451
7.25766e+06
9.68037e+06
386538
4.90817e+06
1.00025e+07
884998
2.56249e+06
1.05936e+07
232460
198782
1.08597e+07
-901661
-3.41815e+06
9.68037e+06
99022.4
-7.33773e+06
7.20781e+06
1.59102e+06
-1.06562e+07
6.4221e+06
543260
-7.37088e+06
2.88664e+06
1.00044e+06
3.14542e+06
1.11372e+06
1.56998e+06
1.7808e+07
1.52558e+06
1.38936e+06
1.68105e+07
3.02458e+06
-584162
7.07627e+06
2.37292e+06
-1.90211e+06
2.19078e+06
-5.62348e+06
1.45131e+06
379636
-1.67854e+07
477108
2.71997e+06
-9804.97
2.037e+06
1.00131e+07
36180.5
1.00748e+07
93299.8
1.01371e+07
142920
1.01987e+07
194270
1.02586e+07
255019
1.03161e+07
317630
1.03707e+07
381642
1.04213e+07
448113
1.04685e+07
517555
1.05127e+07
591277
1.05541e+07
669770
1.05928e+07
753100
1.06288e+07
840410
1.066e+07
932174
1.06798e+07
1.02539e+06
1.06876e+07
1.11621e+06
1.06936e+07
1.22793e+06
1.06688e+07
1.37512e+06
1.05865e+07
1.51587e+06
1.05317e+07
1.5988e+06
1.0625e+07
1.69119e+06
1.07039e+07
1.9188e+06
1.04172e+07
2.39449e+06
9.69383e+06
2.64488e+06
8.39555e+06
2.74594e+06
6.703e+06
2.51006e+06
4.86812e+06
2.06328e+06
3.43027e+06
2.23769e+06
2.45801e+06
2.84617e+06
1.77581e+06
3.69972e+06
1.3426e+06
4.28748e+06
1.16501e+06
4.35251e+06
1.27202e+06
4.15557e+06
1.97566e+06
4.03722e+06
3.30357e+06
3.76514e+06
4.55166e+06
-2.18718e+06
5.72816e+06
650479
7.43269e+06
7.43666e+06
8.44814e+06
9.72955e+06
9.76815e+06
9.6078e+06
1.0911e+07
8.04633e+06
1.1775e+07
6.48308e+06
1.17582e+07
4.00196e+06
1.19684e+07
-1.60204e+06
1.37317e+07
-6.35604e+06
1.43242e+07
-8.45051e+06
1.43802e+07
-7.45258e+06
1.50805e+07
-5.53458e+06
1.68141e+07
-5.62627e+06
1.62764e+07
-7.63277e+06
1.32045e+07
-8.98075e+06
9.13291e+06
-3.97018e+06
1.12061e+06
2.28819e+06
4.6976e+06
1.00093e+07
2689.02
37725.8
1.00724e+07
10585.3
97429.8
1.0134e+07
12281.9
148478
1.01954e+07
12581.7
200910
1.02558e+07
12778.5
263039
1.03145e+07
12791.5
326729
1.0371e+07
12602.2
391445
1.04248e+07
12256.8
457983
1.04756e+07
11795.8
527199
1.05238e+07
11243.7
599634
1.05696e+07
10554.6
675704
1.06118e+07
9661.34
756016
1.06485e+07
8503.93
839028
1.06789e+07
6643.68
924136
1.07008e+07
4201.57
1.01171e+06
1.07085e+07
2192.02
1.09746e+06
1.07168e+07
-181.717
1.18691e+06
1.07394e+07
-5011.76
1.30569e+06
1.07345e+07
-8090.48
1.44914e+06
1.06708e+07
-6986.72
1.56843e+06
1.06267e+07
-6408.54
1.63745e+06
1.06982e+07
-5590.68
1.79323e+06
1.07385e+07
18729.4
2.20489e+06
1.04929e+07
5131.65
2.79202e+06
9.91553e+06
-58670.6
3.49898e+06
9.09606e+06
-156322
3.76725e+06
7.86115e+06
-197124
3.5991e+06
5.92671e+06
67196.4
3.64967e+06
4.34773e+06
223036
3.96707e+06
3.53947e+06
86844.4
4.47132e+06
3.12838e+06
-6095.5
4.66854e+06
2.99022e+06
-51953.7
4.51229e+06
3.16043e+06
-28189
4.0135e+06
3.61217e+06
131245
3.38666e+06
3.97039e+06
21923.9
2.6083e+06
2.65329e+06
664831
-697239
909236
-813306
-1.64321e+06
3.1302e+06
-392283
-171483
6.17473e+06
294557
3.49494e+06
8.66702e+06
775172
1.44816e+06
9.45706e+06
1.10826e+06
823846
1.01502e+07
186110
-239710
1.10638e+07
-1.37924e+06
-2.33346e+06
9.89991e+06
-131048
-5.44124e+06
6.43324e+06
2.15189e+06
-9.00399e+06
5.19577e+06
1.67351e+06
-6.86613e+06
2.53829e+06
1.68186e+06
4.58187e+06
2.07655e+06
1.66227e+06
1.70978e+07
4.33102e+06
91371
1.49382e+07
7.05123e+06
-3.33931e+06
7.76928e+06
6.23485e+06
-4.66958e+06
6.86356e+06
-369621
-120277
5.90037e+06
2.15428e+06
340616
-621247
660412
-1.93504e+06
1.00125e+07
37527.1
1.0072e+07
96477.8
1.01329e+07
147358
1.01937e+07
199614
1.02535e+07
261497
1.03116e+07
324951
1.03674e+07
389444
1.04206e+07
455765
1.04709e+07
524753
1.05186e+07
596908
1.05637e+07
672614
1.06049e+07
752357
1.06408e+07
834612
1.06703e+07
919175
1.06893e+07
1.0061e+06
1.06964e+07
1.09031e+06
1.07088e+07
1.17998e+06
1.07309e+07
1.29936e+06
1.07279e+07
1.44736e+06
1.06782e+07
1.56536e+06
1.0659e+07
1.62083e+06
1.07316e+07
1.75342e+06
1.08489e+07
2.22014e+06
1.06144e+07
2.80196e+06
9.92646e+06
3.31168e+06
8.69152e+06
3.53703e+06
6.85761e+06
3.59722e+06
5.458e+06
3.60511e+06
4.61589e+06
3.79892e+06
4.04689e+06
4.2007e+06
3.65691e+06
4.49854e+06
3.45031e+06
4.34987e+06
3.60146e+06
3.76284e+06
4.16062e+06
3.26306e+06
4.3557e+06
3.10464e+06
4.27565e+06
-2.28289e+06
5.18439e+06
-1.77221e+06
6.30348e+06
5.57144e+06
7.78892e+06
8.31917e+06
9.66706e+06
8.41056e+06
1.17431e+07
7.17878e+06
1.31298e+07
5.67249e+06
1.29496e+07
3.34325e+06
1.25635e+07
-896911
1.39878e+07
-5.30565e+06
1.52581e+07
-7.78653e+06
1.64403e+07
-6.71831e+06
1.79526e+07
-5.10223e+06
1.70411e+07
-4.42263e+06
8.1608e+06
-2.20187e+06
-5.54991e+06
-576729
-1.17758e+07
1.5714e+06
-1.37419e+07
3.63216e+06
2.61428e+07
1.0009e+07
2456.33
37380.3
1.00693e+07
9679.05
98516.5
1.01289e+07
11246.8
150081
1.01889e+07
11460
202426
1.02487e+07
11543.6
264428
1.03075e+07
11437.6
327745
1.03647e+07
11130
391646
1.042e+07
10652.7
456782
1.0473e+07
10025.8
523880
1.05236e+07
9230.28
593274
1.0571e+07
8191.25
665241
1.06141e+07
6772.42
740185
1.06501e+07
4976.67
817164
1.06773e+07
2649.78
895506
1.06963e+07
-113.635
975355
1.07052e+07
-2533.83
1.0554e+06
1.07117e+07
-3789.57
1.13319e+06
1.07388e+07
-6230.03
1.22047e+06
1.07852e+07
-10592.6
1.33115e+06
1.08007e+07
-10539
1.45832e+06
1.07749e+07
-13322.1
1.5462e+06
1.08042e+07
-19259.7
1.6333e+06
1.09975e+07
6281.93
1.86887e+06
1.11477e+07
36347.2
2.45763e+06
1.12151e+07
-12896.7
3.33341e+06
1.09771e+07
-121022
4.03624e+06
1.02327e+07
-237618
4.45784e+06
9.16575e+06
-169171
4.76004e+06
7.91902e+06
181157
4.88016e+06
6.88187e+06
377758
4.91966e+06
6.20349e+06
235083
4.83243e+06
5.83178e+06
30289.4
4.52314e+06
5.68734e+06
-78269.5
3.85875e+06
5.64787e+06
-168550
2.98992e+06
5.44887e+06
-357697
2.26354e+06
2.66332e+06
27795.9
546021
324412
645640
-1.43063e+06
735332
-230140
-1.78165e+06
4.12667e+06
-328936
-723044
5.36369e+06
128998
-155239
5.76079e+06
481157
610139
7.97364e+06
-520863
-830700
1.07302e+07
-1.61243e+06
-2.18211e+06
1.04938e+07
-396581
-3.72394e+06
6.66461e+06
2.49142e+06
-6.52853e+06
4.30476e+06
3.07543e+06
-6.51597e+06
3.07923e+06
2.50447e+06
3.70914e+06
4.66051e+06
1.9735e+06
1.40619e+07
7.94104e+06
-642198
1.29484e+07
1.12634e+07
-4.44498e+06
9.31118e+06
1.50835e+07
-4.77584e+06
7.61004e+06
1.78667e+07
-2.89845e+06
5.83658e+06
9.06709e+06
3.06294e+06
3.80037e+06
1.18608e+07
1.26801e+07
1.00117e+07
37430.2
1.0069e+07
98187.9
1.0128e+07
149212
1.01874e+07
201266
1.02465e+07
263043
1.03047e+07
326153
1.03613e+07
389872
1.04159e+07
454857
1.04683e+07
521828
1.05181e+07
591099
1.05647e+07
662919
1.06066e+07
737649
1.06415e+07
814250
1.0668e+07
892281
1.06854e+07
972147
1.06931e+07
1.05168e+06
1.0702e+07
1.12841e+06
1.07315e+07
1.21559e+06
1.07782e+07
1.33203e+06
1.0794e+07
1.46362e+06
1.07592e+07
1.54682e+06
1.07913e+07
1.60529e+06
1.10702e+07
1.83352e+06
1.13806e+07
2.43738e+06
1.1322e+07
3.27545e+06
1.0651e+07
4.00968e+06
9.33602e+06
4.6044e+06
7.88288e+06
4.80836e+06
7.01818e+06
4.73313e+06
6.77983e+06
4.66339e+06
6.7354e+06
4.58668e+06
6.57336e+06
4.29654e+06
6.32208e+06
3.60941e+06
6.09528e+06
2.86071e+06
5.43497e+06
2.59312e+06
2.17809e+06
-414375
2.06108e+06
-2.30153e+06
4.01366e+06
2.68393e+06
5.88941e+06
5.72263e+06
7.89961e+06
6.46064e+06
1.00604e+07
5.87834e+06
1.15956e+07
4.42934e+06
1.22169e+07
2.0006e+06
1.25937e+07
-994686
1.42147e+07
-4.00074e+06
1.629e+07
-6.48887e+06
1.83699e+07
-6.00142e+06
2.04845e+07
-4.89945e+06
1.90669e+07
-3.2988e+06
1.24746e+07
-60734.2
5.60058e+06
1.45292e+06
5.46389e+06
-1.8339e+06
1.14708e+07
575419
3.20151e+06
1.00082e+07
2381.31
37766.9
1.00661e+07
9394.16
99173.6
1.01238e+07
10813.6
150048
1.01822e+07
10979.3
201522
1.02409e+07
11027.5
262657
1.02992e+07
10894.5
324808
1.03562e+07
10564.9
387394
1.04118e+07
10069.8
450325
1.04658e+07
9418.78
514610
1.05172e+07
8574.04
580972
1.05647e+07
7441.03
649179
1.06068e+07
5876.5
719179
1.06407e+07
3851.32
791027
1.06649e+07
1409.87
863556
1.06798e+07
-1258.68
937602
1.06882e+07
-3646.87
1.01208e+06
1.06932e+07
-4825.17
1.08416e+06
1.0711e+07
-5660.58
1.15409e+06
1.07587e+07
-7878.28
1.22812e+06
1.08404e+07
-11994
1.31697e+06
1.08832e+07
-6300.91
1.41987e+06
1.09641e+07
-17890.9
1.47769e+06
1.12728e+07
-23403.1
1.51393e+06
1.17076e+07
15104.8
1.94813e+06
1.21093e+07
52700.8
2.82545e+06
1.22165e+07
-15548.9
3.89673e+06
1.2012e+07
-154364
4.77092e+06
1.16281e+07
-245569
5.33585e+06
1.10424e+07
-131159
5.5198e+06
1.03082e+07
128454
5.41331e+06
9.57298e+06
277517
5.12896e+06
8.95164e+06
232627