/*--------------------------------*- C++ -*----------------------------------*\
| =========                 |                                                 |
| \\      /  F ield         | OpenFOAM: The Open Source CFD Toolbox           |
|  \\    /   O peration     | Version:  4.1                                   |
|   \\  /    A nd           | Web:      www.OpenFOAM.org                      |
|    \\/     M anipulation  |                                                 |
\*---------------------------------------------------------------------------*/
FoamFile
{
    version     2.0;
    format      ascii;
    class       volVectorField;
    location    "20";
    object      U;
}
// * * * * * * * * * * * * * * * * * * * * * * * * * * * * * * * * * * * * * //

dimensions      [0 1 -1 0 0 0 0];

internalField   nonuniform List<vector> 
4432
(
(39.956 0.00309032 0.0725308)
(40.0349 0.0285002 0.13249)
(40.1755 0.0426022 0.203937)
(40.2625 0.0519114 0.29164)
(40.2447 0.0605535 0.397436)
(40.1168 0.06847 0.518012)
(39.8615 0.0754456 0.652718)
(39.4612 0.0815966 0.799274)
(38.9057 0.0872364 0.953775)
(38.1936 0.0926966 1.10912)
(37.3388 0.099183 1.25142)
(36.3743 0.10797 1.36852)
(35.3369 0.11407 1.42772)
(34.361 0.121745 1.42668)
(33.416 0.122763 1.29025)
(32.9343 0.118193 1.09483)
(32.4478 0.131986 0.950125)
(32.6389 0.153823 0.454418)
(32.8515 0.0694201 -0.00450459)
(33.814 0.19605 -0.104508)
(33.8742 0.197418 -0.0314204)
(32.4331 0.476224 1.01466)
(32.5867 0.338982 1.1973)
(34.5131 -0.155673 -0.868906)
(38.0837 -0.297669 -3.73065)
(43.6971 0.0891906 -5.53378)
(51.0549 0.374624 -6.11245)
(59.0658 0.319799 -5.37613)
(66.4045 0.518788 -3.71967)
(70.462 0.763644 -0.746109)
(69.5391 0.862732 2.81242)
(65.2814 0.730122 5.39585)
(57.4661 0.249932 6.76296)
(45.4505 0.274226 8.20696)
(29.4219 1.22132 9.83352)
(12.3615 2.14889 10.1346)
(12.8322 1.88445 10.1829)
(17.7291 -3.79937 14.7054)
(-3.84521 2.38368 36.4325)
(-19.5467 5.318 18.3081)
(-23.4513 6.78179 8.26652)
(-32.7028 9.37946 3.03649)
(1.90801 9.73211 3.45216)
(-0.568274 -16.5819 41.9685)
(56.1079 80.5278 78.9267)
(0.15943 60.1318 92.3703)
(-33.3509 21.9137 76.0781)
(-23.4003 -0.284049 50.8719)
(-0.029566 -7.35688 38.2463)
(-61.9924 -2.06111 43.1513)
(51.6328 -24.1708 14.7231)
(119.135 -25.2433 -61.163)
(144.202 -26.349 -64.8057)
(199.805 -12.3684 -73.9507)
(39.9567 0.00309062 0.0727455)
(40.047 0.0285053 0.132142)
(40.1766 0.0426583 0.203637)
(40.2589 0.0520491 0.29113)
(40.2404 0.0607881 0.396354)
(40.1122 0.0688178 0.516028)
(39.8572 0.0759201 0.649229)
(39.4592 0.0822132 0.793585)
(38.9084 0.0880074 0.945196)
(38.2046 0.0936407 1.09659)
(37.3609 0.100329 1.23568)
(36.4115 0.109394 1.34652)
(35.3965 0.115765 1.40485)
(34.4055 0.123049 1.39495)
(33.4841 0.124688 1.29411)
(32.8681 0.122173 1.09802)
(32.399 0.136107 0.849036)
(32.5995 0.153267 0.34501)
(32.9775 0.0776773 -0.0948297)
(33.9815 0.196485 -0.282916)
(34.5449 0.184911 -0.351905)
(33.5919 0.421657 0.0608398)
(32.4506 0.37724 0.79394)
(33.7392 -0.128779 0.211022)
(37.9774 -0.40276 -1.80445)
(44.0285 -0.0453407 -3.76839)
(50.9919 0.303724 -4.22609)
(59.1064 0.218121 -3.35893)
(67.0249 0.393018 -1.81903)
(71.6495 0.625991 0.812003)
(71.1195 0.812681 3.15336)
(67.3435 0.792611 5.14935)
(60.3366 0.722063 6.57554)
(49.3123 0.247682 8.16467)
(37.0983 0.716522 8.35619)
(27.7652 -0.281438 5.15746)
(18.9392 7.03729 4.84456)
(12.9484 2.18269 2.04654)
(2.72794 -4.39565 20.8018)
(-22.2216 -3.86011 23.4034)
(-37.7451 -8.65435 25.1969)
(-55.7798 -16.0523 34.0653)
(-82.4756 -27.7453 57.4801)
(-112.543 -40.4249 113.091)
(-321.815 -10.0353 273.153)
(-146.471 -1.0919 136.504)
(-79.7814 -2.69986 72.9082)
(-40.1138 -7.43945 49.3677)
(5.26642 -9.74877 35.5045)
(-47.8052 -6.08881 25.5445)
(133.778 -16.8419 -45.7162)
(25.305 -2.26005 -115.523)
(151.387 8.30254 -23.7847)
(202.809 6.44224 -77.9365)
(40.0497 0.00320734 0.061184)
(40.2883 0.0286797 0.138434)
(40.6478 0.0429724 0.234831)
(41.056 0.0523197 0.345782)
(41.493 0.0609503 0.479149)
(41.9662 0.0687999 0.629498)
(42.4722 0.075571 0.799675)
(43.0033 0.0813272 0.991779)
(43.5506 0.0863787 1.20651)
(44.1019 0.0910293 1.44118)
(44.6444 0.0963734 1.68793)
(45.1581 0.102484 1.92948)
(45.6302 0.111556 2.1443)
(46.0022 0.115628 2.26567)
(46.4412 0.145268 2.36689)
(46.1411 0.142567 2.25624)
(46.5874 0.153507 2.0528)
(45.9961 0.104608 1.88725)
(44.4875 0.105038 2.14488)
(41.5765 0.10524 1.93249)
(38.325 0.156165 1.88526)
(36.2606 0.113564 1.51538)
(36.4915 -0.0576775 -1.03595)
(38.5387 -0.132569 -5.0548)
(41.7949 -0.0280713 -8.22475)
(46.0351 0.0810958 -9.40309)
(50.8818 0.194193 -9.11457)
(55.6627 0.28463 -8.15968)
(59.3646 0.490267 -5.21902)
(61.7917 0.508782 -0.729361)
(63.2219 0.363714 3.41198)
(61.8612 0.303348 6.69754)
(58.4169 0.00961812 10.6527)
(54.2014 -0.148173 15.2655)
(45.8671 0.898282 20.861)
(33.5385 5.87864 25.3434)
(23.2835 1.77419 21.9127)
(9.03283 -1.09922 21.3531)
(-5.49739 8.2108 40.2988)
(-9.54114 6.71209 24.3711)
(-6.21642 4.04908 8.63935)
(-4.24244 2.62772 7.10869)
(-1.02255 0.540306 11.9871)
(14.8801 11.5507 3.79544)
(-82.5035 0.221169 49.2067)
(-99.6919 -12.6659 70.4574)
(-60.5339 -22.4016 56.9031)
(-31.3009 -23.816 49.8553)
(-6.28827 -20.4371 47.2582)
(-46.4634 -19.1855 37.5635)
(64.6315 -23.6735 13.8419)
(-70.0919 -12.0126 -59.1293)
(-131.92 -10.1083 -50.2972)
(-76.872 0.404636 -73.5465)
(40.0499 0.00320729 0.06149)
(40.3 0.0286783 0.137643)
(40.6471 0.0430241 0.233576)
(41.05 0.0524543 0.344096)
(41.4854 0.0611842 0.476743)
(41.9564 0.0691463 0.626022)
(42.4591 0.0760387 0.794583)
(42.9862 0.0819306 0.98463)
(43.5295 0.0871138 1.19597)
(44.0769 0.091917 1.42795)
(44.6175 0.0973899 1.66821)
(45.1312 0.103927 1.90728)
(45.5952 0.112586 2.11298)
(46.0034 0.117029 2.24844)
(46.352 0.144663 2.29965)
(46.6074 0.157199 2.21887)
(46.7516 0.160831 2.12377)
(46.1092 0.11743 1.64205)
(44.5458 0.111449 1.9309)
(41.7329 0.113261 1.66516)
(38.5663 0.157476 1.18769)
(36.3125 0.108673 1.21442)
(36.4874 -0.0655099 -0.0680783)
(38.7584 -0.147187 -3.37961)
(42.1366 -0.0507833 -6.91062)
(46.2188 0.0144282 -8.63651)
(51.2333 0.152961 -9.32229)
(56.5904 0.280523 -8.77443)
(60.8274 0.439582 -6.25353)
(64.9351 0.50085 -2.36118)
(67.6324 0.162723 2.24591)
(67.9238 0.172699 6.53892)
(65.0226 0.242724 10.6657)
(61.0547 0.470097 15.0792)
(54.957 1.29945 17.1342)
(45.1504 -0.904258 15.2739)
(34.8415 0.0243965 11.9014)
(14.7969 -2.004 12.0695)
(-15.6207 1.71381 24.3932)
(-22.3245 0.755883 27.9179)
(-30.6732 -6.81186 30.075)
(-41.7498 -13.7503 36.4678)
(-63.1494 -22.4827 59.4513)
(-96.5838 -18.8517 89.3758)
(-51.7394 -12.4874 59.2811)
(7.02474 -9.29256 13.4099)
(36.5856 -4.73432 -18.9709)
(51.0722 -3.57949 -31.1256)
(83.6455 -5.09527 -34.5026)
(52.5616 -14.9422 -15.0284)
(44.2501 -11.0523 -9.71478)
(-114.069 -1.85745 -107.137)
(-147.701 -0.32 -83.81)
(-85.6006 0.552143 -85.0289)
(40.0082 0.00328013 0.0714722)
(40.1798 0.0282574 0.171446)
(40.4381 0.0421081 0.261189)
(40.7033 0.0510638 0.3512)
(40.9467 0.059226 0.457468)
(41.1759 0.0665026 0.571388)
(41.3911 0.0725616 0.697352)
(41.5951 0.0773807 0.839196)
(41.7973 0.0813048 1.00147)
(42.0121 0.0845022 1.18694)
(42.2617 0.0881369 1.396)
(42.5651 0.0927185 1.62174)
(42.9525 0.0990457 1.86347)
(43.4146 0.102976 2.07487)
(44.0587 0.127552 2.30943)
(44.7344 0.146401 2.44217)
(45.8575 0.156432 2.53897)
(45.6723 0.0703388 3.10611)
(44.4818 0.0817743 4.33004)
(41.7047 0.0711171 4.68901)
(38.6585 0.0664905 4.1237)
(36.6543 0.0440674 2.23454)
(36.4188 -0.0615736 -1.44219)
(37.3515 -0.17188 -6.10422)
(38.7582 -0.176232 -10.2333)
(40.7611 -0.100775 -13.4595)
(43.5698 0.123462 -15.9886)
(46.3192 0.398037 -16.1814)
(47.554 0.698194 -13.0681)
(46.7015 0.561766 -6.49881)
(45.8589 0.369632 1.87106)
(43.5201 0.529336 9.33897)
(40.7289 0.607194 15.4504)
(39.3303 0.360132 21.7269)
(36.6429 -0.0664063 28.0102)
(35.6306 3.84851 34.9298)
(26.6184 3.8911 34.4847)
(12.4574 1.33537 34.5185)
(3.86881 3.86652 39.9595)
(-1.43435 2.91928 20.3486)
(1.35181 2.22243 4.57556)
(4.42359 1.20689 4.74259)
(6.22164 -0.251494 13.2644)
(12.1697 3.06676 11.1943)
(25.4766 11.1931 0.0803125)
(2.04973 3.71702 23.9354)
(-0.476558 -9.18655 43.5372)
(10.0654 -15.6149 52.4231)
(24.668 -21.4368 54.0968)
(-9.88218 -22.8459 65.0451)
(55.0488 -18.9168 75.0475)
(93.0256 -23.337 60.1444)
(83.4638 -29.7683 22.3837)
(98.0398 -16.6619 -16.8502)
(40.0086 0.00328009 0.0715128)
(40.1919 0.0282566 0.170212)
(40.4376 0.0421608 0.25921)
(40.6972 0.0511978 0.348776)
(40.9392 0.0594565 0.454579)
(41.1666 0.0668414 0.567975)
(41.3794 0.0730181 0.693366)
(41.5813 0.0779629 0.834472)
(41.7816 0.0820205 0.995845)
(41.996 0.0853458 1.18013)
(42.2447 0.0891039 1.38686)
(42.5505 0.0941072 1.6145)
(42.9349 0.100358 1.84911)
(43.4155 0.103896 2.06067)
(44.0395 0.128595 2.28767)
(44.7591 0.151424 2.45779)
(45.6466 0.153169 2.51871)
(45.6414 0.0691228 2.95634)
(44.6701 0.084824 4.19205)
(41.922 0.075216 4.51113)
(38.9278 0.0695122 3.92724)
(36.871 0.0464009 2.24722)
(36.5418 -0.0611827 -0.992832)
(37.338 -0.177546 -5.28188)
(38.8149 -0.197197 -9.50532)
(40.8613 -0.154313 -13.1572)
(43.8341 0.0795093 -16.2341)
(46.9844 0.363158 -16.4717)
(49.2452 0.691234 -13.4779)
(50.5186 0.616146 -8.55917)
(49.2733 0.352336 -0.659507)
(47.5623 0.533624 7.9738)
(47.0431 0.784244 15.101)
(47.6816 0.698694 21.1511)
(46.8943 -0.096624 25.2361)
(41.5928 -1.20728 25.2401)
(36.2024 1.42463 24.1242)
(24.1202 -0.0439922 26.5069)
(-2.47236 -0.933756 29.5477)
(-17.3995 -4.41528 32.6552)
(-15.2694 -2.92388 29.6121)
(-21.5348 -9.95697 41.0123)
(-33.1067 -14.93 62.1585)
(-16.6702 -4.64838 60.528)
(20.6063 3.66825 29.0236)
(47.572 8.81906 -10.7301)
(62.9321 12.1647 -39.6222)
(68.8161 12.5364 -48.5072)
(94.7599 12.7762 -54.7818)
(68.9383 -1.16497 5.92692)
(59.0094 -9.72744 48.5279)
(89.6044 -18.2259 39.0328)
(-48.3309 -15.6163 -10.2747)
(-2.0228 -6.58155 -27.5988)
(40.007 0.00324033 0.0887062)
(40.1729 0.0274219 0.22242)
(40.4322 0.0409529 0.349364)
(40.6994 0.0497403 0.485778)
(40.9441 0.0577017 0.647768)
(41.1687 0.0646929 0.818416)
(41.3668 0.070374 0.998648)
(41.5328 0.0746794 1.18814)
(41.6651 0.0778659 1.38732)
(41.7651 0.080163 1.59527)
(41.8411 0.0823655 1.80973)
(41.9043 0.0864504 2.02688)
(41.9721 0.0882123 2.25188)
(42.0964 0.0979964 2.45871)
(42.3041 0.114036 2.72111)
(42.8173 0.148499 2.95011)
(43.1123 0.102559 2.90065)
(43.9556 0.109973 4.42599)
(44.1207 0.0881726 6.52831)
(42.0329 0.0670935 7.30887)
(39.4048 0.0503148 6.4637)
(37.4579 0.0098152 3.67802)
(36.4563 -0.129803 -0.87826)
(35.62 -0.212923 -6.29743)
(34.73 -0.223931 -11.2328)
(34.3555 -0.161892 -15.7118)
(34.1155 0.094273 -18.9188)
(32.915 0.321558 -17.0678)
(30.2625 0.400065 -10.565)
(25.1803 0.505765 -1.89417)
(19.3639 0.557044 6.80177)
(15.7519 0.616682 12.8689)
(13.7123 0.796521 16.8779)
(14.1491 0.942588 20.3448)
(17.6252 0.70259 24.5872)
(24.5613 1.62384 33.1968)
(25.1902 3.38545 41.2108)
(15.2356 2.38764 42.4602)
(7.73156 1.56649 37.1735)
(8.22311 -0.175459 19.6206)
(9.58662 0.634699 3.33656)
(12.6995 -1.15432 3.02134)
(13.3336 -2.71219 2.81083)
(21.1336 0.418817 -8.19504)
(27.8432 3.38304 -13.2649)
(37.4809 5.21763 -15.0256)
(54.9883 5.82832 -15.6663)
(47.7703 -3.29984 26.6537)
(27.3658 -19.5498 66.8151)
(5.18257 -21.1774 61.7522)
(36.2282 -17.2648 44.989)
(89.6109 -21.9051 37.3428)
(133.624 -23.9891 33.522)
(149.532 -15.6982 0.888515)
(40.0075 0.00324057 0.0886059)
(40.1843 0.0274216 0.221287)
(40.4319 0.0410019 0.347592)
(40.6938 0.0498655 0.483608)
(40.9369 0.0579181 0.645117)
(41.1595 0.0650118 0.815194)
(41.3551 0.0708035 0.994742)
(41.5188 0.0752258 1.18342)
(41.649 0.0785316 1.38159)
(41.7484 0.0809692 1.58828)
(41.8246 0.0832321 1.80092)
(41.8886 0.0875797 2.01882)
(41.9693 0.0899953 2.23871)
(42.0871 0.0983498 2.44411)
(42.31 0.113999 2.69682)
(42.8196 0.153302 2.96195)
(43.1244 0.110731 2.88171)
(43.7174 0.112804 4.22556)
(44.2341 0.092444 6.37476)
(42.3015 0.0703 7.1609)
(39.8119 0.0514371 6.33321)
(37.8859 0.0126685 3.71072)
(36.6855 -0.137157 -0.658517)
(35.3928 -0.207481 -6.0018)
(34.4518 -0.220797 -10.9949)
(33.828 -0.173867 -15.5982)
(33.2774 0.110912 -18.3704)
(32.079 0.344706 -16.1929)
(29.6916 0.398111 -9.95852)
(25.5205 0.492868 -2.0738)
(20.353 0.544206 6.16219)
(17.7117 0.606448 12.6209)
(16.698 0.758053 17.5046)
(19.5033 0.855407 21.2156)
(24.2007 0.0862234 23.6484)
(29.0826 -0.101431 27.7953)
(31.6424 2.98044 33.3724)
(30.1842 2.5995 37.0884)
(16.6775 0.589569 37.1029)
(-1.92942 -3.08466 36.7405)
(2.37911 0.12918 23.8241)
(1.53454 -1.36367 32.0745)
(-7.27547 -1.71332 52.2269)
(8.94554 -1.1716 40.7749)
(30.03 2.37748 13.509)
(46.3913 8.23118 -18.1273)
(55.1191 13.5289 -42.3303)
(66.3706 19.5823 -56.252)
(80.9772 19.8316 -55.5982)
(72.1625 4.82398 -17.3204)
(55.2366 -5.0911 23.0301)
(93.0783 -14.6741 -7.79618)
(120.556 -13.7903 -19.4298)
(118.321 -2.44265 -49.2437)
(40.0073 0.0031876 0.106747)
(40.1693 0.0270895 0.270918)
(40.4276 0.0402719 0.423179)
(40.6959 0.0487638 0.583734)
(40.9456 0.0563833 0.773147)
(41.1795 0.0630025 0.970665)
(41.391 0.0682647 1.17822)
(41.5745 0.0721164 1.39703)
(41.7271 0.0747911 1.63009)
(41.848 0.076524 1.87955)
(41.9406 0.0780757 2.14721)
(42.008 0.0809834 2.43457)
(42.0566 0.0829149 2.74206)
(42.1149 0.0894295 3.06728)
(42.1765 0.107325 3.3845)
(42.3389 0.125184 3.78756)
(42.3825 0.136106 3.67098)
(41.7079 0.111639 3.63107)
(43.8584 0.0843754 6.86957)
(43.407 0.106932 8.92865)
(41.5402 0.064077 8.63726)
(39.7684 -0.0504965 5.78437)
(37.9156 -0.18598 1.4815)
(35.3076 -0.24994 -3.54727)
(31.9303 -0.27283 -8.56189)
(28.4376 -0.223112 -13.4128)
(23.8972 0.0104631 -16.252)
(18.7019 0.201942 -12.5051)
(12.938 0.17615 -4.21525)
(6.57045 0.20369 4.75962)
(1.82921 0.238647 11.2161)
(-0.557382 0.274529 14.4359)
(-1.37331 0.433397 15.8965)
(-0.481498 0.711953 17.3572)
(2.77479 0.61632 20.903)
(9.4918 0.585472 29.8657)
(20.0355 2.04241 40.7976)
(20.9793 0.808288 45.0078)
(17.1918 -3.03699 45.0148)
(21.5779 -3.11885 27.0525)
(18.1618 -1.09527 4.80086)
(19.606 -4.36907 2.63635)
(21.3896 -3.94122 -8.29254)
(30.61 -0.372762 -24.2377)
(38.1593 -0.191006 -34.0132)
(40.1854 0.389459 -38.4427)
(53.4362 6.57748 -31.4432)
(29.7567 -2.3422 44.8541)
(-10.9912 -12.046 87.4311)
(-6.0586 -11.2811 56.1184)
(29.8923 -18.4683 20.62)
(37.3395 -27.6876 -6.52994)
(112.512 -28.3744 11.635)
(123.025 -14.0323 -10.7716)
(40.0077 0.00318774 0.106552)
(40.1807 0.0270889 0.269274)
(40.427 0.0403204 0.420564)
(40.6899 0.048886 0.580442)
(40.9379 0.056592 0.76909)
(41.1697 0.0633075 0.965762)
(41.3787 0.0686728 1.17241)
(41.5597 0.0726325 1.39027)
(41.7102 0.0754141 1.62233)
(41.8303 0.077299 1.87068)
(41.9228 0.0788411 2.13708)
(41.9915 0.0819894 2.42245)
(42.0511 0.0848029 2.72961)
(42.1095 0.0896593 3.04615)
(42.1748 0.107216 3.35717)
(42.372 0.13061 3.74657)
(42.3079 0.132591 3.68429)
(41.8962 0.132052 3.91641)
(43.5582 0.0851514 6.43238)
(43.6782 0.118359 8.56501)
(42.1929 0.0900184 8.55615)
(40.6422 -0.0242117 6.05889)
(38.2901 -0.203059 1.76972)
(34.9027 -0.24429 -3.45204)
(31.3039 -0.276128 -8.58955)
(27.0148 -0.226583 -13.4374)
(22.0632 0.038628 -15.1242)
(17.3353 0.21434 -10.9976)
(12.2096 0.178409 -3.53717)
(6.63778 0.199655 4.62911)
(2.4187 0.23835 10.7452)
(0.381115 0.266806 14.2227)
(0.0704506 0.399033 16.4545)
(1.59983 0.704079 19.3354)
(6.35752 0.556787 24.2896)
(15.9269 3.2286 25.2047)
(28.226 3.48057 33.6737)
(33.2398 2.89522 40.7522)
(28.3535 0.08873 43.5677)
(15.6078 -0.527019 40.927)
(16.3525 -0.392703 26.2405)
(15.0599 -1.37347 29.4386)
(9.03295 -1.55628 44.0757)
(21.8068 -3.02875 22.5195)
(35.8181 1.20341 -2.85832)
(46.5028 3.6764 -25.5293)
(50.3887 7.73315 -44.3614)
(57.7106 17.6314 -51.8146)
(58.2437 22.7019 -40.0836)
(43.9856 3.98751 -23.9592)
(37.2518 -0.0211153 0.935899)
(-8.00501 -9.15957 -84.7257)
(-81.3964 -11.4586 -78.4713)
(-100.321 2.4406 -68.2236)
(40.0062 0.00306208 0.121609)
(40.1654 0.0257438 0.310186)
(40.419 0.038268 0.481585)
(40.6852 0.0463044 0.66117)
(40.9377 0.0534366 0.873303)
(41.1774 0.0594922 1.09306)
(41.398 0.0641556 1.32238)
(41.5943 0.0673997 1.56286)
(41.7642 0.0694424 1.81887)
(41.9088 0.0705545 2.09455)
(42.0324 0.0713126 2.39514)
(42.1408 0.0725889 2.72486)
(42.2396 0.0740942 3.08728)
(42.3351 0.0724507 3.48752)
(42.422 0.0853407 3.88192)
(42.4181 0.0826496 4.29233)
(42.5695 0.105576 4.73949)
(41.446 -0.00138921 4.30475)
(42.3375 -0.0359687 5.77658)
(43.2914 0.0798621 8.33666)
(43.6641 0.0940119 9.5332)
(42.7982 0.0150725 7.88963)
(39.948 -0.156564 4.88551)
(36.6121 -0.243423 1.07854)
(31.8758 -0.362411 -2.99016)
(25.8196 -0.280724 -7.27042)
(18.2247 -0.0291754 -10.0871)
(11.0974 0.163651 -6.44317)
(5.48315 0.082345 1.36435)
(0.588225 0.0279926 8.94294)
(-2.67477 0.0633223 13.6474)
(-4.47841 0.127156 15.4463)
(-5.54958 0.286634 15.7524)
(-5.81354 0.716946 15.6795)
(-5.72015 1.02235 14.8605)
(-17.8533 0.221086 0.842284)
(24.0042 1.83318 32.1572)
(27.1062 -0.398175 48.7339)
(26.7886 -5.12086 47.8236)
(31.6926 -4.65161 30.7534)
(28.9318 -4.3432 6.83816)
(27.5637 -7.61591 2.69706)
(30.6573 -4.09593 -16.1998)
(35.6564 0.479017 -32.0178)
(43.1659 -0.597853 -41.4926)
(39.2955 -3.79588 -36.5965)
(38.6585 4.07028 -21.1237)
(12.8098 -3.72847 61.5391)
(-8.60701 -8.46153 84.6147)
(-3.82642 -5.52533 42.6968)
(24.1636 -14.293 21.4982)
(48.9992 -23.7568 23.1591)
(108.085 -15.6642 15.887)
(130.447 -18.6009 -1.86479)
(40.0066 0.0030626 0.121408)
(40.1757 0.0257441 0.308318)
(40.4186 0.0383112 0.478656)
(40.6797 0.0464121 0.657501)
(40.9302 0.0536202 0.868791)
(41.1677 0.0597601 1.08765)
(41.3857 0.0645123 1.31605)
(41.5794 0.0678497 1.55564)
(41.7472 0.0699832 1.81078)
(41.8905 0.071232 2.08559)
(42.0136 0.0719784 2.3851)
(42.1223 0.0734252 2.71251)
(42.2242 0.075669 3.07395)
(42.3247 0.0729595 3.46735)
(42.3918 0.0846826 3.83485)
(42.4366 0.0886225 4.25908)
(42.4025 0.0971883 4.58875)
(41.6077 0.0275228 4.49614)
(41.141 -0.0505286 5.27203)
(42.3462 0.104612 7.83852)
(43.4044 0.126697 9.06484)
(42.8424 0.0346102 8.02635)
(40.6647 -0.175151 5.24484)
(36.3574 -0.245166 1.22869)
(30.7902 -0.371372 -3.20673)
(23.8479 -0.271127 -7.5009)
(16.4036 -0.00748318 -9.22083)
(10.3776 0.173008 -5.44988)
(5.29483 0.0875311 1.2456)
(0.775379 0.0276813 8.27521)
(-2.31494 0.0612 13.0866)
(-3.9203 0.11682 15.2687)
(-4.46238 0.271746 16.2073)
(-4.13223 1.04287 17.2362)
(1.28254 6.63543 12.5339)
(20.4999 3.35158 13.458)
(29.4202 2.00696 33.306)
(34.4024 3.15637 41.8055)
(34.1108 2.54643 44.2926)
(27.2666 2.76096 44.2337)
(28.2589 -0.447809 28.8307)
(20.1621 -1.27272 32.8953)
(21.672 -5.47597 32.668)
(32.097 -2.41092 5.84607)
(42.3766 3.92981 -15.7783)
(49.6222 3.70735 -32.7941)
(46.3458 2.87853 -41.9696)
(48.5674 12.5451 -39.7982)
(36.7947 19.7144 -27.1065)
(28.2356 8.8501 -18.2608)
(40.3136 -1.88134 -10.8536)
(11.1776 -11.5252 -9.12993)
(-39.4498 -11.8227 -15.016)
(-123.77 -19.444 12.8201)
(40.0061 0.00299326 0.13332)
(40.1589 0.0251998 0.342373)
(40.4092 0.0372903 0.528894)
(40.6736 0.0449566 0.723246)
(40.9272 0.0516638 0.953145)
(41.1714 0.0572919 1.19012)
(41.3997 0.0615231 1.43607)
(41.6072 0.0643579 1.69275)
(41.7925 0.0659977 1.9651)
(41.9572 0.0667493 2.25772)
(42.1052 0.0669186 2.57576)
(42.2428 0.0673483 2.92226)
(42.37 0.0674218 3.29901)
(42.49 0.0642591 3.70612)
(42.6039 0.0683978 4.12345)
(42.6044 0.062096 4.51844)
(42.66 0.0582969 5.09751)
(42.3618 0.0178211 5.43874)
(41.6433 0.0186725 5.64683)
(41.7042 0.0428872 6.91944)
(42.9113 0.139971 8.49147)
(43.397 0.0768557 8.64401)
(41.8648 -0.186393 7.69845)
(38.7896 -0.21784 5.5739)
(33.8038 -0.281166 3.5555)
(26.9198 -0.34914 0.959274)
(18.5615 -0.0457641 -1.98224)
(10.8494 0.272756 -0.425747)
(5.75578 0.198179 5.77022)
(2.0664 0.0163678 12.0138)
(-0.247531 -0.000852613 15.6028)
(-1.73573 0.0851167 16.6763)
(-2.92928 0.283725 16.6242)
(-3.50444 0.702894 15.6468)
(-14.7955 -0.0645095 5.32793)
(-15.7195 -0.22367 -0.111624)
(-14.7297 -0.128522 -4.50256)
(25.8903 -0.455279 39.7072)
(31.7685 -4.60655 45.7214)
(37.6524 -3.98395 34.4125)
(40.5608 -7.16601 16.6379)
(39.3136 -6.55847 7.32218)
(36.9176 -3.12382 -16.7892)
(38.6415 2.51217 -34.8048)
(40.9364 2.61612 -46.6142)
(34.5453 -2.54078 -31.059)
(29.8441 3.1671 -5.43415)
(9.18123 -4.40559 66.9445)
(-4.3008 -7.35383 77.2384)
(-0.0418339 -5.53254 35.5409)
(18.2714 -13.3858 9.45068)
(48.6913 -5.86548 -9.77407)
(58.6813 -0.348663 -27.649)
(71.5391 -5.01171 -48.1824)
(40.0065 0.00299355 0.133058)
(40.1693 0.0251992 0.340133)
(40.4085 0.0373322 0.525373)
(40.6675 0.0450601 0.718852)
(40.9193 0.051838 0.94782)
(41.1612 0.0575435 1.18384)
(41.3868 0.0618554 1.42885)
(41.5918 0.0647743 1.68461)
(41.775 0.066496 1.95603)
(41.9384 0.0673616 2.24765)
(42.0858 0.0675663 2.56424)
(42.2223 0.0680315 2.9082)
(42.3501 0.0687268 3.28142)
(42.4742 0.0652377 3.68581)
(42.5653 0.0675726 4.07875)
(42.5811 0.0656789 4.48303)
(42.6002 0.0585421 5.00473)
(42.3421 0.020856 5.45559)
(41.736 0.0222829 5.76788)
(41.6996 0.034596 6.63793)
(42.3656 0.106665 8.00266)
(43.2794 0.144536 8.30427)
(41.9966 -0.225644 7.33645)
(38.0832 -0.23932 5.82762)
(32.7214 -0.283482 3.14028)
(25.0371 -0.351488 0.17224)
(16.6142 -0.0240436 -2.1871)
(10.3477 0.28691 0.251823)
(5.94787 0.206623 5.4833)
(2.3581 0.00889286 11.2922)
(0.0719897 -0.00488945 14.9971)
(-1.24013 0.0841966 16.4114)
(-1.88693 0.348448 16.7345)
(-1.37762 1.62508 16.8863)
(1.99826 7.03624 5.14758)
(-15.5105 -0.311904 0.30844)
(22.0566 3.87744 23.3688)
(33.0198 3.30509 40.7027)
(34.7484 4.31449 43.5615)
(33.4003 3.79528 44.5402)
(36.2924 2.47876 34.8159)
(34.4355 -0.832406 31.9529)
(35.6675 -4.21563 22.5172)
(39.9886 1.24389 -4.53355)
(48.0471 8.48818 -22.9204)
(54.5575 8.72793 -33.9232)
(50.5175 4.44744 -37.0563)
(50.6081 11.7315 -30.7601)
(43.042 17.8924 -24.419)
(53.0565 7.06417 -26.5535)
(60.7922 0.962988 -28.7488)
(74.8492 2.39981 -19.7892)
(98.7661 4.51624 -16.6836)
(116.7 -0.283249 -23.6119)
(40.0044 0.00281924 0.141685)
(40.1535 0.0234864 0.366574)
(40.397 0.0346914 0.56352)
(40.6564 0.0417686 0.767486)
(40.9097 0.0479023 1.00921)
(41.1568 0.0529064 1.25721)
(41.3912 0.0565091 1.51315)
(41.6088 0.0587071 1.77859)
(41.8084 0.0596653 2.05845)
(41.9919 0.0596214 2.35708)
(42.1618 0.0586414 2.67831)
(42.3216 0.0571827 3.02416)
(42.4672 0.0545653 3.39201)
(42.595 0.0488204 3.78135)
(42.705 0.0429989 4.1833)
(42.7395 0.0381253 4.56172)
(42.7456 0.0258297 5.0592)
(42.8231 0.00636611 5.68404)
(42.5845 0.0103532 6.17197)
(42.1589 0.0169955 6.54676)
(42.237 0.0692089 7.11486)
(42.5603 0.0673238 8.32146)
(42.5307 -0.0404404 9.4637)
(40.4481 -0.0703095 9.52048)
(37.1815 -0.27037 9.35618)
(31.3585 -0.435341 8.44058)
(25.2383 -0.125053 5.69086)
(17.9155 0.352058 4.45232)
(11.652 0.338469 8.80554)
(7.39959 0.0783284 14.5486)
(5.167 0.00974397 17.3904)
(4.23426 0.0036336 17.6516)
(3.9034 0.0932746 17.2821)
(5.00489 0.367559 17.4768)
(0.522446 1.65827 13.4563)
(-11.4823 -0.741433 -0.607736)
(2.02576 -5.2253 -24.3509)
(15.1321 -1.70959 8.95887)
(23.9729 -3.18533 36.611)
(35.7175 -3.28849 27.5756)
(41.2703 -1.3691 15.968)
(41.9859 -2.34264 3.85421)
(39.91 -2.31614 -14.8355)
(40.8846 3.31341 -32.5602)
(39.6869 6.72207 -46.561)
(23.3483 -1.26122 -30.4026)
(23.7569 0.686765 8.44889)
(7.76474 -5.02118 70.6466)
(-2.11894 -7.43735 71.1596)
(3.73626 -8.93943 34.291)
(16.5543 -14.306 5.2302)
(18.6001 0.617669 -16.4228)
(-80.6251 1.32944 -12.8102)
(-91.0197 -0.447683 -31.6765)
(40.0049 0.0028199 0.141432)
(40.1626 0.023487 0.364223)
(40.3965 0.0347263 0.559879)
(40.6509 0.041855 0.76299)
(40.9022 0.0480487 1.0038)
(41.1469 0.0531189 1.25088)
(41.3786 0.0567894 1.50593)
(41.5934 0.0590569 1.77052)
(41.7908 0.0600828 2.04952)
(41.9723 0.0601223 2.34712)
(42.1405 0.0592043 2.66689)
(42.2977 0.0576889 3.01001)
(42.4409 0.0555148 3.37384)
(42.5687 0.0499825 3.76015)
(42.6654 0.0422363 4.14757)
(42.6918 0.039 4.52174)
(42.7173 0.0299917 5.01321)
(42.7692 0.00470812 5.63603)
(42.6019 0.00950499 6.17044)
(42.3096 0.0217583 6.49324)
(42.1979 0.0593698 7.04024)
(42.7933 0.0771304 8.02834)
(42.455 -0.0433693 9.60605)
(40.582 -0.0571914 9.71604)
(36.82 -0.0674147 8.76312)
(30.5052 -0.40691 7.2016)
(23.1438 -0.284715 4.64187)
(15.8761 0.34157 5.76285)
(11.4965 0.334082 9.21964)
(8.10237 0.0591494 13.4139)
(5.91008 -0.0110308 16.5042)
(4.73688 0.00620848 17.3278)
(4.43144 0.176414 17.1557)
(6.35646 1.8234 16.8042)
(7.21696 4.78435 15.8938)
(19.2568 0.629393 -7.76119)
(18.4628 -2.66861 7.09021)
(28.0344 2.44939 33.1294)
(32.326 4.7174 41.3717)
(34.8061 4.57268 41.2564)
(41.7626 3.5334 34.2181)
(46.7716 0.287513 27.9979)
(47.0127 -2.8005 17.7835)
(45.2442 4.0956 -7.47875)
(51.7111 11.7649 -26.7297)
(58.1275 13.3378 -33.8734)
(59.5038 9.89256 -31.2571)
(57.1353 12.5327 -24.1589)
(60.0462 13.809 -23.0463)
(72.2294 6.50511 -33.3489)
(57.2825 2.88025 -42.2328)
(52.01 9.45318 -36.7768)
(16.3069 2.07986 -18.3191)
(-24.0897 1.5129 -5.3828)
(40.0043 0.00274454 0.147173)
(40.1449 0.0228442 0.383594)
(40.3836 0.0336179 0.587054)
(40.6385 0.0403378 0.796333)
(40.8896 0.0460609 1.04474)
(41.1374 0.0506776 1.29839)
(41.3756 0.0539075 1.55857)
(41.6001 0.055764 1.82634)
(41.8102 0.0563863 2.10618)
(42.0071 0.0559499 2.40159)
(42.192 0.0544486 2.71498)
(42.365 0.051889 3.04718)
(42.5209 0.047935 3.39417)
(42.6495 0.0406678 3.75389)
(42.7519 0.0312191 4.12311)
(42.8082 0.0235107 4.48136)
(42.8105 0.0116248 4.87185)
(42.902 -0.00856056 5.4216)
(43.0306 -0.0188287 6.05248)
(42.9255 -0.0117326 6.47208)
(42.6115 -0.000850484 6.70212)
(42.486 0.0256292 7.53561)
(42.8874 0.184272 9.45542)
(42.3749 0.106475 11.5515)
(41.4489 -0.410791 13.7796)
(37.9324 -0.513827 13.8298)
(34.9956 -0.225442 12.0053)
(28.111 0.436846 10.8761)
(20.1678 0.906062 13.4611)
(14.674 0.401969 17.2146)
(12.6509 0.0636163 18.1382)
(11.8292 -0.104782 18.0331)
(11.9044 -0.0327664 17.0004)
(13.6127 0.0616351 16.0784)
(10.8749 -0.36597 15.9673)
(26.1389 1.53911 -2.61555)
(-5.28863 -4.73486 0.332437)
(10.9862 -2.31181 6.26152)
(18.7004 -2.68715 23.226)
(30.9242 -1.6894 14.3386)
(39.5524 0.83973 5.92835)
(36.0403 -0.668975 -1.42749)
(39.9658 -2.79215 -12.7284)
(41.6049 2.51538 -27.0724)
(40.2042 8.82787 -40.0766)
(20.0301 -1.27862 -28.3121)
(18.5514 -1.43939 16.4861)
(7.08024 -6.04905 70.4986)
(3.43482 -9.41862 62.5095)
(26.0014 -14.4732 25.9509)
(35.9342 -18.9322 14.5577)
(24.8958 -1.15836 7.57941)
(-42.5611 2.26581 2.93952)
(41.9949 -2.96525 1.80191)
(40.0046 0.00274487 0.146867)
(40.1543 0.0228437 0.381064)
(40.3828 0.0336514 0.583098)
(40.6326 0.0404203 0.791432)
(40.8817 0.0461991 1.03887)
(41.1272 0.0508762 1.29161)
(41.3627 0.0541673 1.55092)
(41.5846 0.0560858 1.81788)
(41.7924 0.0567685 2.09692)
(41.9871 0.0564005 2.39137)
(42.1699 0.054971 2.70354)
(42.3398 0.0523557 3.03355)
(42.4914 0.0486064 3.37744)
(42.6179 0.0418346 3.73472)
(42.7139 0.0310835 4.09979)
(42.7552 0.0228756 4.44819)
(42.7682 0.0154997 4.8404)
(42.876 -0.00764572 5.39057)
(42.9831 -0.0225846 6.03055)
(42.9275 -0.0068445 6.43499)
(42.6552 -0.000582362 6.61426)
(42.678 0.0149522 7.40382)
(42.9832 0.147912 9.66093)
(43.4018 0.222229 11.5679)
(41.1886 0.0487824 12.887)
(38.1622 -0.535197 12.6413)
(31.3394 -0.894258 11.4669)
(23.8661 0.22999 11.235)
(20.0842 0.814312 12.6187)
(17.0361 0.381493 15.4032)
(15.1045 -0.0129881 17.4684)
(13.6955 -0.14133 17.3941)
(12.9002 -0.0870186 16.0864)
(15.9636 0.82546 15.5145)
(15.1136 1.33763 16.677)
(20.5842 2.30962 -7.32497)
(17.5056 -0.812014 -0.700747)
(22.6265 0.927881 26.8907)
(28.3518 4.39411 37.2022)
(34.1008 5.63003 36.5623)
(42.9602 4.70252 31.2078)
(51.7449 1.61878 24.9675)
(52.0678 -2.114 14.8993)
(47.7552 4.36221 -5.68268)
(53.6181 13.0815 -24.9068)
(60.3468 15.4198 -33.9874)
(64.2682 14.4504 -29.0162)
(66.6296 15.188 -20.6458)
(74.1239 10.9368 -19.4539)
(62.9629 -0.632246 -19.6738)
(9.21932 -0.95509 -17.1224)
(-50.6793 7.90029 2.73438)
(-68.3416 5.40546 17.3486)
(-83.1084 5.35717 25.8995)
(40.0023 0.00253261 0.149718)
(40.1386 0.0209564 0.393284)
(40.3683 0.0306976 0.599363)
(40.6151 0.0367448 0.809854)
(40.8625 0.0418559 1.06011)
(41.1089 0.0458443 1.3145)
(41.3484 0.0484692 1.57378)
(41.5771 0.0497294 1.8384)
(41.7941 0.0497346 2.11232)
(41.9996 0.0485666 2.39817)
(42.1934 0.0461577 2.69739)
(42.3727 0.0422057 3.00988)
(42.5307 0.0365505 3.33256)
(42.6562 0.027902 3.66184)
(42.7474 0.0165734 3.99808)
(42.8065 0.00580935 4.33121)
(42.822 -0.00384481 4.6572)
(42.8694 -0.0181041 5.05834)
(43.0585 -0.0356647 5.59143)
(43.2649 -0.0345542 6.14166)
(43.2169 -0.0361769 6.42849)
(43.0336 -0.0298634 6.81668)
(43.2905 0.100094 8.24044)
(44.2697 0.226711 10.9514)
(44.5705 -0.0953346 14.4482)
(44.9299 -0.450254 16.2461)
(42.6727 -0.664498 16.4794)
(39.3668 -0.390992 17.4121)
(34.5343 0.734736 17.8716)
(29.213 1.28242 18.4834)
(25.3907 0.823358 18.9382)
(23.665 0.108834 18.0434)
(22.2505 -0.188156 15.4919)
(22.3591 -0.50426 12.6681)
(21.5586 -1.42121 10.1223)
(22.6076 -0.8773 -0.304181)
(4.74006 -0.345818 -8.91397)
(-4.65615 -2.03442 -1.88385)
(11.6529 -3.37949 4.38573)
(26.5161 -2.40886 -0.886561)
(17.9288 -0.0293973 2.55217)
(22.8221 -0.889828 -2.00581)
(35.7399 -3.32945 -8.18138)
(43.6898 0.793006 -18.1846)
(42.1156 9.88466 -32.3332)
(19.4189 4.15757 -25.7596)
(16.7892 -2.08466 19.9086)
(10.0208 -7.09521 63.3285)
(19.8427 -10.8287 51.8459)
(42.7437 -17.7239 29.629)
(49.3931 -21.2152 27.3571)
(70.5011 -19.7359 30.3604)
(78.2902 0.0450939 9.71976)
(-41.0482 11.8087 32.0902)
(40.0027 0.00253328 0.149427)
(40.1463 0.0209569 0.390718)
(40.3677 0.0307245 0.5954)
(40.6099 0.0368103 0.804984)
(40.8552 0.0419658 1.05431)
(41.0992 0.046002 1.30782)
(41.336 0.0486757 1.5663)
(41.562 0.0499845 1.83019)
(41.7763 0.0500375 2.10339)
(41.9793 0.0489189 2.38842)
(42.1702 0.0465721 2.68659)
(42.3457 0.042599 2.99748)
(42.4986 0.0369615 3.31771)
(42.6201 0.0287776 3.64505)
(42.7088 0.0170307 3.98052)
(42.7584 0.00477478 4.30874)
(42.772 -0.00229373 4.63127)
(42.8391 -0.015288 5.03586)
(43.0279 -0.0368404 5.59246)
(43.236 -0.033747 6.14753)
(43.1826 -0.0364065 6.39052)
(42.9531 -0.0408579 6.66277)
(43.266 0.0848846 8.15958)
(44.9485 0.270051 11.0207)
(45.6424 0.138207 14.0696)
(44.5013 -0.383403 15.7906)
(40.8433 -0.877242 17.1155)
(34.2209 -0.54283 17.4121)
(29.128 0.620348 17.3283)