/*--------------------------------*- C++ -*----------------------------------*\
| =========                 |                                                 |
| \\      /  F ield         | OpenFOAM: The Open Source CFD Toolbox           |
|  \\    /   O peration     | Version:  4.1                                   |
|   \\  /    A nd           | Web:      www.OpenFOAM.org                      |
|    \\/     M anipulation  |                                                 |
\*---------------------------------------------------------------------------*/
FoamFile
{
    version     2.0;
    format      ascii;
    class       volVectorField;
    location    "36";
    object      U;
}
// * * * * * * * * * * * * * * * * * * * * * * * * * * * * * * * * * * * * * //

dimensions      [0 1 -1 0 0 0 0];

internalField   nonuniform List<vector> 
4432
(
(-187542 -6062.67 -18259.7)
(-180240 -598.798 -3384.17)
(-164518 2112.8 1901.1)
(-153702 -2643 -4291.25)
(-156715 -1214.36 -2862.73)
(-153405 -837.12 -934.23)
(-148677 -1153.1 -2023.42)
(-146562 -1103.46 -2087.16)
(-144736 -1201.91 -2287.54)
(-143201 -1337.88 -2444.65)
(-141722 -1453.89 -2531.92)
(-140415 -1500.53 -2612.44)
(-139191 -1515.17 -2662.53)
(-138077 -1543.73 -2664.6)
(-137036 -1581.09 -2633.58)
(-135876 -1610.1 -2656.71)
(-134586 -1625.92 -2751.38)
(-133256 -1639.6 -2842.98)
(-131864 -1664.29 -2947.17)
(-130355 -1688.54 -3041.94)
(-128716 -1717.98 -3145.4)
(-126956 -1750.74 -3243.58)
(-125072 -1786.81 -3334.46)
(-123068 -1825.05 -3410.93)
(-120957 -1865.57 -3468.95)
(-118759 -1908.07 -3506.07)
(-116499 -1952.13 -3520.93)
(-114200 -1997.08 -3514.57)
(-111884 -2041.82 -3488.9)
(-109562 -2085.27 -3447.8)
(-107248 -2126.15 -3396.06)
(-104956 -2162.89 -3338.44)
(-102699 -2193.26 -3283.43)
(-100493 -2215.34 -3233.92)
(-98340.7 -2228.75 -3179.97)
(-96247.3 -2231.08 -3113.23)
(-94224.4 -2219.81 -3038.24)
(-92281.8 -2197.59 -2959.01)
(-90395.1 -2167.51 -2899.57)
(-88545.4 -2127.25 -2861.17)
(-86722.6 -2074.96 -2834.9)
(-84910.1 -2007.23 -2802.98)
(-83088 -1915.45 -2744.4)
(-81261.4 -1790.24 -2625.18)
(-79499.1 -1614.22 -2400.63)
(-77935.4 -1360.83 -2043.41)
(-76621.2 -1009.58 -1513.83)
(-74982.1 -520.593 -598.297)
(-71959.3 178.337 694.483)
(-68443.4 1200.02 3214.76)
(-73724 2695.54 6233.94)
(-94643.1 3926.03 8103.23)
(-107690 12193.6 -5036.41)
(-1118.09 5009.62 -12135)
(-195401 -3489.44 -12144)
(-185954 1699.78 -6004.55)
(-179690 4241.85 -3685.36)
(-171396 -168.524 -3206.3)
(-169866 1149.82 -3383.11)
(-168508 1495.8 -2012.79)
(-164598 1211 -2709.64)
(-162609 1262.48 -2704.33)
(-161231 1176.28 -2857.4)
(-159972 1057.61 -2868.95)
(-158688 956.57 -2887.61)
(-157560 918.3 -2933.32)
(-156597 909.461 -2965.15)
(-155781 888.806 -2942.85)
(-155024 860.781 -2908.9)
(-154162 840.619 -2954)
(-153206 832.479 -3051.87)
(-152257 826.39 -3132.11)
(-151277 810.586 -3226.18)
(-150212 795.145 -3311.66)
(-149066 774.978 -3402.08)
(-147844 751.801 -3485.41)
(-146546 725.468 -3558.6)
(-145182 697.081 -3615.69)
(-143763 666.422 -3652.66)
(-142309 633.832 -3667.65)
(-140841 599.535 -3659.86)
(-139377 564.154 -3630.9)
(-137934 528.447 -3583.24)
(-136518 493.314 -3521.31)
(-135133 459.666 -3450.05)
(-133780 428.62 -3373.78)
(-132457 401.768 -3296.46)
(-131160 380.178 -3220.29)
(-129875 363.672 -3144.27)
(-128586 353.5 -3067.63)
(-127271 350.731 -2991.68)
(-125907 353.412 -2923.67)
(-124468 360.933 -2869.5)
(-122929 375 -2828.83)
(-121262 395.728 -2793)
(-119438 423.968 -2747.05)
(-117421 462.292 -2668.69)
(-115176 518.135 -2542.14)
(-112708 604.318 -2336.18)
(-110070 739.584 -2019.54)
(-107225 940.484 -1569.24)
(-103705 1238.96 -883.916)
(-98810.1 1683.81 167.978)
(-92922.5 2297.6 1915.68)
(-94384.4 3142.73 3088.48)
(-105156 3226.4 4951.91)
(-128879 4263.66 1111.53)
(38982.9 4951.67 -13995.2)
(-198523 -1414.4 -23295.1)
(-195156 -2269.95 -11149.5)
(-195692 -2418.83 -3318.61)
(-192947 -740.401 -6827.22)
(-190676 -999.087 -4406.6)
(-191930 -948.606 -1266.84)
(-191025 -916.427 -454.379)
(-189993 -789.683 220.22)
(-189746 -810.9 442.387)
(-189465 -774.25 583.679)
(-189142 -784.731 667.484)
(-188906 -771.572 696.245)
(-188656 -746.809 744.1)
(-188459 -722.869 830.84)
(-188386 -719.525 926.124)
(-188315 -734.539 993.288)
(-188125 -730.658 1012.29)
(-187897 -712.939 1018.01)
(-187656 -704.443 1000.47)
(-187385 -695.142 985.646)
(-187091 -687.33 966.049)
(-186780 -680.307 958.354)
(-186459 -673.603 968.944)
(-186133 -667.189 1008.44)
(-185812 -661.429 1081.86)
(-185502 -656.901 1192.23)
(-185222 -654.281 1339.61)
(-184977 -654.195 1521.14)
(-184782 -657.089 1732.83)
(-184641 -663.605 1968.28)
(-184566 -673.989 2221.49)
(-184566 -687.942 2490.65)
(-184655 -702.316 2775.96)
(-184835 -715.579 3071.15)
(-185115 -732.488 3370.71)
(-185523 -756.478 3671.97)
(-186082 -784.702 3965.63)
(-186807 -817.526 4255.36)
(-187743 -854.775 4546.3)
(-188928 -897.358 4843.86)
(-190412 -945.915 5156.22)
(-192244 -1001.49 5488.81)
(-194450 -1063.55 5842.4)
(-197080 -1129.35 6225.07)
(-200213 -1188.76 6650.37)
(-204053 -1213.13 7118.07)
(-208708 -1173.42 7582.77)
(-213951 -1062.12 7951.5)
(-218218 -709.114 8152.37)
(-223208 -63.0236 8398.89)
(-230185 927.042 7472.4)
(-261839 3757.62 1087.38)
(-305584 9416.07 -18833.6)
(-292365 9517.09 -16639.2)
(-217110 1603.7 -15946.1)
(-214065 670.733 -9384.11)
(-212483 490.923 -6066.49)
(-210073 2005.28 -3651.34)
(-209300 1683.68 -3410.47)
(-210157 1712.12 -1152.93)
(-209317 1718.41 -399.025)
(-208415 1812.65 145.658)
(-208310 1774.93 310.767)
(-208096 1794.91 522.757)
(-207890 1775.04 657.805)
(-207719 1779.42 718.059)
(-207569 1796.29 755.12)
(-207506 1813.18 819.947)
(-207579 1811.15 892.428)
(-207622 1791.65 908.33)
(-207533 1788.57 882.288)
(-207438 1796.47 841.457)
(-207346 1793.65 780.348)
(-207219 1788.9 714.572)
(-207071 1779.68 640.663)
(-206902 1766.08 571.665)
(-206719 1748.08 515.118)
(-206526 1725.23 479.181)
(-206332 1696.82 469.815)
(-206145 1661.98 489.236)
(-205978 1619.77 537.785)
(-205839 1569.34 612.731)
(-205740 1510 710.203)
(-205687 1441.03 824.266)
(-205690 1361.95 950.075)
(-205758 1272.86 1086.13)
(-205908 1176.26 1232.98)
(-206153 1073.17 1389.72)
(-206505 959.2 1554.27)
(-206984 831.289 1722.33)
(-207613 692.017 1891.05)
(-208423 542.143 2057.9)
(-209446 379.957 2221.5)
(-210714 204.154 2384.09)
(-212268 14.9715 2550.53)
(-214153 -187.446 2724.91)
(-216385 -404.043 2923.06)
(-219012 -634.795 3166.88)
(-222104 -871 3475.8)
(-225744 -1090.58 3854.44)
(-229866 -1279.67 4278.66)
(-234010 -1444.14 4707.29)
(-236427 -1468.77 5037.98)
(-236809 -1514.16 5558.34)
(-236235 -1140.08 5988.52)
(-255941 -149.723 3688.86)
(-228065 8040.81 -10293.1)
(-226154 18034.5 1239.86)
(-181825 -1882.98 -19237.9)
(-169844 -1977.34 -15203.4)
(-168152 -3583.41 -13771.2)
(-165197 -923.884 -9362.81)
(-160523 -1715.37 -9408.98)
(-159176 -2125.89 -7856.04)
(-157842 -2270.28 -6073.65)
(-156784 -2165.7 -5142.98)
(-155788 -2187.73 -4526.88)
(-154618 -2103.17 -3989.89)
(-153439 -2042.14 -3659.79)
(-152317 -1959.34 -3480.11)
(-151170 -1906.23 -3396.3)
(-150155 -1877.79 -3395.63)
(-149321 -1854.83 -3461.78)
(-148486 -1861.37 -3528.2)
(-147542 -1846.63 -3600.27)
(-146564 -1826.74 -3719.57)
(-145540 -1808.42 -3876.24)
(-144432 -1791.16 -4067.54)
(-143247 -1774.38 -4279.54)
(-141982 -1758.4 -4499.89)
(-140643 -1740.71 -4708.98)
(-139241 -1722.47 -4892.1)
(-137794 -1702.68 -5037.77)
(-136326 -1682.82 -5142.04)
(-134865 -1663.24 -5205.5)
(-133432 -1644.97 -5233.98)
(-132042 -1629.08 -5234.24)
(-130703 -1616.59 -5214.13)
(-129409 -1607.88 -5176.53)
(-128150 -1604.71 -5108.62)
(-126930 -1609.41 -4988.16)
(-125748 -1618.67 -4853.5)
(-124593 -1631.7 -4744.27)
(-123464 -1655.58 -4593.35)
(-122357 -1687.81 -4408.31)
(-121258 -1731.62 -4198.93)
(-120149 -1784.81 -3961.82)
(-119006 -1847.03 -3709.61)
(-117791 -1911.01 -3455.62)
(-116483 -1962.89 -3225.68)
(-115067 -1983.9 -3054.29)
(-113526 -1945.34 -2984.24)
(-111947 -1808.45 -3048.65)
(-110454 -1535.32 -3284.29)
(-109007 -1093.04 -3799.59)
(-106926 -426.481 -4934.78)
(-102804 541.998 -6788.92)
(-97947 1860.53 -9556.13)
(-102115 4460.88 -12027.9)
(-126056 4749.81 -13151.6)
(-132620 17432.5 -19304.7)
(-31411.9 8339.6 -11067.1)
(-192166 2304.3 -17611.3)
(-186732 2127.94 -11094.2)
(-182382 611.037 -8943.25)
(-179668 3083.13 -6370.13)
(-178577 2308.03 -6633.83)
(-177191 1932.7 -5624.53)
(-175848 1773.69 -3943.13)
(-175019 1841.71 -3142.09)
(-174345 1796.49 -2534.91)
(-173414 1851.77 -2013.2)
(-172551 1887.52 -1660.9)
(-171749 1945.66 -1456.19)
(-170966 1979.06 -1370.16)
(-170280 1992.5 -1383.48)
(-169759 2002.63 -1450.5)
(-169218 1988.83 -1499.84)
(-168559 1995.77 -1566.15)
(-167899 2008.8 -1695.37)
(-167216 2021.74 -1850.1)
(-166468 2034.92 -2038.89)
(-165663 2048.86 -2247.12)
(-164796 2063.46 -2462.9)
(-163873 2080.77 -2669.47)
(-162903 2099.9 -2852.27)
(-161901 2121.81 -3000.31)
(-160889 2145.19 -3109.29)
(-159889 2169.47 -3179.1)
(-158921 2193.59 -3214.76)
(-157999 2216.34 -3222.71)
(-157129 2236.52 -3210.54)
(-156310 2253.48 -3183.83)
(-155532 2265.34 -3143.26)
(-154794 2269.7 -3086.67)
(-154085 2268.81 -3016.38)
(-153395 2262.32 -2931.01)
(-152723 2243.77 -2828.26)
(-152066 2215.33 -2700.67)
(-151409 2173.16 -2537.06)
(-150730 2117.46 -2335.52)
(-150001 2046.28 -2088.9)
(-149195 1962.74 -1792.45)
(-148278 1874.55 -1449.77)
(-147194 1791.53 -1069.3)
(-145884 1728.51 -659.458)
(-144291 1710.75 -246.89)
(-142423 1760.93 143.483)
(-140216 1904.88 454.594)
(-137135 2178.24 575.193)
(-132128 2622.65 447.144)
(-126361 3182.83 274.028)
(-129006 4072.95 643.533)
(-131870 1604.75 1073.81)
(-164647 -260.099 -231.346)
(25622 7633.07 -6433.99)
(-183084 -3710.28 -20534.9)
(-182050 -2245.58 -11046.5)
(-179090 -1749.65 -10564.9)
(-177607 -1638.06 -6249.83)
(-176663 -2228.25 -5920.12)
(-175451 -2742.9 -5064.49)
(-174536 -2695.49 -4345.14)
(-173804 -2610.61 -3646.29)
(-173269 -2584.17 -3044.39)
(-172660 -2507.04 -2526.47)
(-172129 -2463.32 -2118.28)
(-171636 -2407.97 -1743.92)
(-171107 -2372.39 -1527.71)
(-170642 -2362.58 -1459.54)
(-170261 -2368.42 -1491.42)
(-169841 -2373.83 -1545.13)
(-169339 -2365.96 -1632.32)
(-168815 -2360.07 -1764.03)
(-168259 -2354.6 -1912.15)
(-167639 -2348.97 -2078.51)
(-166952 -2343.39 -2245.83)
(-166196 -2335.58 -2397.44)
(-165377 -2325.47 -2505.48)
(-164514 -2311.09 -2551.8)
(-163633 -2292.47 -2521.04)
(-162767 -2270.05 -2414.83)
(-161948 -2244.96 -2240.63)
(-161200 -2219.08 -2013.7)
(-160541 -2194.73 -1749.41)
(-159977 -2174.58 -1458.6)
(-159495 -2162.9 -1147.16)
(-159082 -2171.11 -815.645)
(-158784 -2211.53 -461.314)
(-158638 -2252.07 -92.4015)
(-158550 -2263.95 287.142)
(-158501 -2307.26 697.644)
(-158560 -2369.18 1154.13)
(-158714 -2433.37 1660.94)
(-158950 -2508.93 2227.4)
(-159267 -2591.51 2850.47)
(-159666 -2678.52 3528.38)
(-160157 -2762.78 4262.22)
(-160734 -2837.04 5047.94)
(-161408 -2892.09 5874.49)
(-162249 -2905.85 6719.86)
(-163408 -2847.27 7530.34)
(-165005 -2684.07 8254.84)
(-167007 -2397.87 8807.91)
(-168672 -1887.19 8869.56)
(-170784 -898.916 8136.26)
(-180558 557.663 5409.81)
(-212872 4896.77 -2577.03)
(-251192 15458.1 -31166.1)
(-214474 18543.1 -7638.05)
(-186146 335.325 -19781.2)
(-186207 1914.97 -10120.2)
(-184817 2421.9 -7661.98)
(-185188 2563.57 -5828.69)
(-185432 2007.68 -5105.67)
(-184204 1527.14 -4126.8)
(-183221 1572.18 -3303.83)
(-182917 1646.09 -2654.81)
(-182739 1664.26 -1902.04)
(-182434 1733.09 -1301.64)
(-182226 1772 -847.434)
(-182031 1824.17 -490.052)
(-181831 1858.7 -256.607)
(-181689 1869.29 -153.435)
(-181611 1865.27 -139.608)
(-181484 1861.69 -123.198)
(-181303 1870.62 -153.078)
(-181147 1876.9 -232.757)
(-180999 1881.65 -329.554)
(-180838 1885.06 -447.079)
(-180666 1886.49 -570.536)
(-180483 1887.93 -683.827)
(-180297 1889.4 -764.988)
(-180122 1893.16 -793.698)
(-179979 1899.98 -758.968)
(-179890 1910.47 -659.357)
(-179878 1924.79 -502.404)
(-179960 1942.31 -300.655)
(-180149 1961.75 -67.4601)
(-180451 1981.21 184.676)
(-180863 1996.98 443.619)
(-181384 1998.31 702.075)
(-182019 1973.29 962.048)
(-182774 1950.72 1224.02)
(-183651 1954.76 1493.22)
(-184646 1928.05 1788.91)
(-185761 1881.12 2120.62)
(-187004 1827.25 2502.59)
(-188372 1757.14 2947.41)
(-189853 1672.59 3462.14)
(-191444 1573.43 4050.25)
(-193146 1462.49 4716.57)
(-194949 1341.17 5461.34)
(-196842 1209.3 6283.78)
(-198889 1075.92 7168.12)
(-201190 951.446 8088.54)
(-203785 857.482 8996.31)
(-206278 787.103 9760.84)
(-207413 746.389 10153.6)
(-207251 761.373 10003)
(-206336 -63.2506 8731.42)
(-220499 -3014.45 4359.02)
(-159734 9981.43 -24488.7)
(-59039.7 6389.1 -18321.7)
(-171053 -2398.16 -23886.6)
(-173098 -2306.55 -15261.7)
(-172261 -1896.71 -12378.3)
(-172235 -1991.4 -10104.1)
(-172087 -2452.4 -8376.41)
(-171525 -2781.61 -7074.93)
(-171325 -2891.76 -5995.28)
(-171229 -2913.71 -5221.89)
(-171191 -2838.45 -4575.85)
(-170968 -2735.22 -4170.05)
(-170653 -2697.49 -3948.06)
(-170417 -2708.04 -3702.14)
(-170250 -2717.77 -3551.82)
(-170132 -2739.58 -3528.2)
(-170045 -2762.28 -3589.36)
(-169892 -2786.86 -3686.83)
(-169674 -2807.01 -3851.06)
(-169421 -2829.96 -4075.9)
(-169120 -2854.97 -4332.98)
(-168749 -2882.98 -4614.6)
(-168298 -2914.02 -4906.9)
(-167753 -2946.96 -5183.52)
(-167116 -2982.49 -5413.18)
(-166405 -3016.8 -5558.35)
(-165653 -3050.94 -5598.77)
(-164899 -3081.93 -5529.68)
(-164179 -3110.16 -5359.54)
(-163520 -3134.95 -5102.02)
(-162935 -3157.21 -4774.74)
(-162425 -3182.09 -4394.37)
(-161981 -3219.01 -3975.14)
(-161596 -3278.6 -3536.75)
(-161287 -3365 -3096.93)
(-161072 -3468.34 -2621.35)
(-160921 -3582.6 -2071.4)
(-160818 -3721.18 -1494.24)
(-160779 -3887.33 -874.688)
(-160809 -4078.03 -194.283)
(-160910 -4295.06 550.949)
(-161086 -4536.81 1364.02)
(-161343 -4803.87 2240.07)
(-161683 -5095.77 3180.07)
(-162106 -5414 4182.8)
(-162629 -5763.31 5236.48)
(-163326 -6147.15 6323.07)
(-164377 -6565.15 7407.26)
(-165977 -7013.16 8469.69)
(-168133 -7543.71 9541.92)
(-170284 -8177.73 10381.1)
(-173689 -8779.81 10739)
(-188809 -8935.18 10887.8)
(-238041 -9169.89 9281.86)
(-291632 6400.29 -8481.98)
(-376789 36140.1 -2632.56)
(-169537 920.318 -22082.4)
(-170113 1309.3 -14824.2)
(-169355 1880.77 -12296)
(-169859 1972.22 -9892.28)
(-169746 1661.92 -7565.17)
(-168615 1459.77 -5625.7)
(-167915 1461.65 -4489.16)
(-167453 1539.49 -3764.96)
(-167117 1707.16 -3067.01)
(-166762 1895.35 -2608.01)
(-166398 2010.36 -2266.44)
(-166057 2070.7 -1970.9)
(-165763 2128.15 -1763.58)
(-165534 2170.88 -1666.09)
(-165342 2211.97 -1635.74)
(-165097 2251.3 -1638.96)
(-164810 2296.4 -1719.25)
(-164524 2341.21 -1857.76)
(-164230 2387.39 -2025.48)
(-163916 2434.51 -2215.95)
(-163577 2482.75 -2413.04)
(-163212 2533.14 -2594.79)
(-162831 2584.09 -2728.2)
(-162457 2638.4 -2782.39)
(-162127 2693.2 -2738.13)
(-161875 2749.95 -2592.35)
(-161727 2806.8 -2354.95)
(-161695 2863.72 -2043.06)
(-161779 2919.71 -1675.8)
(-161972 2969.92 -1269.34)
(-162258 3005.62 -838.893)
(-162607 3016.91 -397.503)
(-163009 3001.19 50.7569)
(-163458 2970.8 511.769)
(-163961 2936.01 994.674)
(-164525 2885.4 1519.22)
(-165122 2818.6 2086.92)
(-165736 2739.25 2703.95)
(-166346 2645.94 3388.41)
(-166927 2541.08 4147.03)
(-167453 2424.85 4978.72)
(-167894 2297.58 5885.08)
(-168216 2155.62 6868.13)
(-168390 1990.78 7918.11)
(-168425 1795.92 9012.59)
(-168381 1560.18 10132.4)
(-168259 1276.83 11253.2)
(-167596 911.204 12297.9)
(-165429 453.063 13157.7)
(-161966 -147.963 13603.2)
(-166080 -1949.23 13965.8)
(-184000 -6924.74 3956.77)
(-196809 5457.67 -18637.5)
(-79911 -2439.43 -7705.35)
(-165820 -1169.77 -18801)
(-167366 -1424.35 -13338.7)
(-167065 -1401 -10883)
(-167444 -1363.8 -8982.55)
(-167378 -1541.4 -7169.29)
(-166956 -1585.45 -6001.68)
(-166715 -1628.83 -5012.88)
(-166623 -1733.31 -4188.08)
(-166697 -1786.8 -3438.55)
(-166773 -1773.35 -2882.54)
(-166680 -1719.82 -2497.15)
(-166558 -1723.54 -2253.9)
(-166570 -1739.01 -2128.6)
(-166652 -1763.55 -2133.32)
(-166747 -1789.3 -2203.67)
(-166803 -1816.95 -2341.02)
(-166819 -1845.67 -2558.79)
(-166801 -1880 -2845.08)
(-166736 -1920.19 -3178.8)
(-166606 -1968.1 -3553.24)
(-166388 -2023.43 -3952.54)
(-166056 -2089.85 -4347.85)
(-165598 -2167.5 -4694.11)
(-165030 -2261.98 -4935.17)
(-164396 -2373.55 -5044.96)
(-163742 -2501.69 -5015.52)
(-163104 -2644.67 -4867.31)
(-162509 -2802.86 -4629)
(-161974 -2975.07 -4334.67)
(-161504 -3158.92 -4014.89)
(-161096 -3355.37 -3695.88)
(-160744 -3565.36 -3406.01)
(-160446 -3784.87 -3170.01)
(-160188 -4011.41 -2980.48)
(-159965 -4249.05 -2819.42)
(-159789 -4498.02 -2691.96)
(-159669 -4754.92 -2596.41)
(-159601 -5018.75 -2530.34)
(-159580 -5290.09 -2483.79)
(-159619 -5565.55 -2449.03)
(-159734 -5842.11 -2421.36)
(-159940 -6117.87 -2396.02)
(-160255 -6394.44 -2370.02)
(-160715 -6674.82 -2350.72)
(-161399 -6958.64 -2354.1)
(-162475 -7247.3 -2388.42)
(-164171 -7572.13 -2434.14)
(-166338 -7952.5 -2539.04)
(-168121 -8297.55 -2443.12)
(-171328 -8887.73 -1754.36)
(-182934 -8749.7 1347.14)
(-231436 -7741.39 10235.2)
(-273283 4395.09 25438.6)
(-312094 -11576.9 31694.8)
(-164814 942.042 -19626.9)
(-166226 673.633 -14399.4)
(-165738 687.533 -12574.9)
(-166068 738.932 -10498)
(-165828 580.997 -8075.46)
(-164922 555.184 -6354.14)
(-164353 530.115 -5173.63)
(-163846 443.75 -4329.04)
(-163356 410.196 -3652.82)
(-162861 448.022 -3115.49)
(-162305 531.709 -2677.53)
(-161759 561.656 -2364.39)
(-161292 583.323 -2176.76)
(-160878 600.489 -2111.36)
(-160454 622.19 -2113.37)
(-159973 648.577 -2179.45)
(-159433 681.509 -2331.8)
(-158834 717.569 -2551.61)
(-158153 757.839 -2817.56)
(-157365 801.675 -3119.38)
(-156442 850.824 -3439.18)
(-155351 902.681 -3746.37)
(-154084 957.999 -3990.11)
(-152668 1010.9 -4117.75)
(-151166 1059.97 -4092.77)
(-149656 1103.74 -3910.8)
(-148213 1141.66 -3590.9)
(-146897 1170.85 -3167.65)
(-145747 1190.72 -2679.61)
(-144780 1202.84 -2159.06)
(-143999 1205.51 -1627.31)
(-143390 1197.58 -1103.78)
(-142937 1184.39 -610.761)
(-142638 1168.3 -147.315)
(-142460 1142.24 291.809)
(-142377 1104.58 703.618)
(-142359 1056.88 1090.47)
(-142359 999.706 1465.75)
(-142352 934.95 1832.72)
(-142317 866.388 2194.74)
(-142228 796.962 2556.12)
(-142055 725.724 2906.44)
(-141777 647.135 3227.07)
(-141392 552.523 3495.38)
(-140941 432.37 3669.39)
(-140515 274.026 3692.37)
(-140157 52.0693 3488.49)
(-139429 -263.234 2961.72)
(-137302 -589.5 2167.81)
(-133649 -1139.14 1490.44)
(-137562 -1465.82 1862.93)
(-160553 -2339.92 1695.42)
(-203806 7894.58 18081.4)
(-148444 -12343 22113.1)
(-162618 -745.248 -16959.6)
(-164757 -1001.98 -12471.8)
(-164982 -1245.4 -10699.6)
(-165638 -1190.34 -9017.94)
(-165773 -1089.21 -7404.88)
(-165760 -931.349 -6098.11)
(-165657 -912.558 -5011.45)
(-165626 -971.688 -4130.42)
(-165723 -1018.85 -3466.74)
(-165754 -980.065 -2966.78)
(-165662 -937.532 -2508.57)
(-165627 -926.706 -2242.91)
(-165681 -920.507 -2124.41)
(-165760 -917.592 -2122.05)
(-165836 -917.267 -2206.93)
(-165893 -916.384 -2382.31)
(-165925 -915.823 -2647.3)
(-165934 -916.333 -2984.98)
(-165922 -917.642 -3376.58)
(-165884 -917.892 -3812.68)
(-165800 -916.17 -4278.49)
(-165640 -912.001 -4747.59)
(-165398 -904.788 -5152.47)
(-165117 -899.916 -5423.76)
(-164873 -894.796 -5507.02)
(-164732 -894.564 -5404.59)
(-164734 -900.948 -5148.77)
(-164882 -918.353 -4791.42)
(-165152 -948.875 -4382.83)
(-165506 -994.784 -3959.56)
(-165911 -1055.59 -3550.02)
(-166338 -1127.51 -3176.55)
(-166757 -1206.46 -2842.28)
(-167132 -1289.25 -2545.46)
(-167447 -1376.48 -2291.2)
(-167712 -1469.72 -2078.31)
(-167913 -1568.42 -1898.45)
(-168031 -1674.22 -1756.87)
(-168057 -1779.95 -1649.4)
(-167958 -1884.12 -1571.27)
(-167707 -1985.09 -1518.47)
(-167270 -2080.47 -1489.91)
(-166618 -2165.15 -1485.61)
(-165733 -2233.88 -1508.88)
(-164640 -2284.52 -1584.04)
(-163393 -2316.98 -1754.2)
(-161978 -2336.7 -2074.16)
(-159831 -2341.46 -2647.51)
(-155977 -2429.09 -3454.08)
(-148318 -2540.69 -3998.86)
(-145356 -2975.22 -1790.69)
(-142266 -735.361 -634.075)
(-164286 16359.9 32220.4)
(-111853 12833.7 6735.41)
(-159787 1665.56 -18276.5)
(-162760 1344.64 -13652.4)
(-163370 1036.22 -12134.4)
(-164166 1038.69 -10633.3)
(-164689 1098.42 -8770.07)
(-165166 1221.78 -7303.53)
(-165654 1210.37 -6199.39)
(-166026 1123.36 -5261.41)
(-166326 1051.72 -4534.22)
(-166529 1070.16 -3970.42)
(-166695 1097.21 -3519.01)
(-166898 1096.72 -3224.59)
(-167138 1094.89 -3068.64)
(-167381 1092.72 -3024.24)
(-167601 1090.6 -3069.11)
(-167784 1091.38 -3208.19)
(-167928 1093.89 -3444.36)
(-168034 1097.11 -3760.51)
(-168096 1101.27 -4140.54)
(-168102 1108.33 -4575.88)
(-168022 1119.64 -5055.45)
(-167813 1136.35 -5550.05)
(-167448 1160.1 -5999.68)
(-166944 1186.97 -6326)
(-166348 1220.79 -6474.06)
(-165719 1256.97 -6437.72)
(-165101 1294.13 -6244.06)
(-164521 1327.1 -5938.33)
(-163992 1352.69 -5570.84)
(-163514 1367.8 -5183.54)
(-163083 1371.93 -4801.2)
(-162696 1368.02 -4440.84)
(-162343 1359.81 -4113.65)
(-162007 1350.25 -3815.69)
(-161675 1338.36 -3540.97)
(-161337 1320.44 -3296.79)
(-160991 1294.25 -3089.33)
(-160640 1262.38 -2912.14)
(-160266 1226.8 -2758.68)
(-159849 1187.3 -2624.72)
(-159373 1143.76 -2498.48)
(-158832 1096.62 -2373.88)
(-158227 1047.99 -2254.85)
(-157566 1000 -2146.19)
(-156902 951.88 -2061.88)
(-156334 899.036 -2027.74)
(-155926 828.577 -2088.21)
(-155278 738.31 -2300.56)
(-153341 528.168 -2711.6)
(-149180 221.156 -3099.65)
(-148471 -947.949 -3324.23)
(-152444 -542.86 -3749.37)
(-137169 9093.51 23874.4)
(-22109.2 7415.58 20171.5)
(-160311 -809.644 -15476.1)
(-162077 -875.274 -12010.2)
(-162443 -1128.97 -10557.6)
(-162865 -1247.29 -8935.2)
(-162594 -1169.27 -7609.3)
(-162231 -1061.4 -6278.43)
(-161931 -1103.39 -5120.98)
(-161791 -1169.38 -4227.11)
(-161786 -1178.28 -3561.25)
(-161612 -1120.23 -2992.97)
(-161297 -1093.3 -2566.21)
(-161059 -1089.32 -2316.7)
(-160879 -1086.77 -2195.56)
(-160703 -1085.52 -2190.35)
(-160501 -1082.2 -2299.78)
(-160245 -1077.67 -2520.27)
(-159906 -1072.44 -2843.96)
(-159467 -1068 -3251.07)
(-158917 -1064.22 -3721.95)
(-158237 -1061.24 -4243.65)
(-157383 -1059.52 -4814.59)
(-156275 -1057.51 -5413.74)
(-154859 -1059.69 -5961.27)
(-153182 -1061.45 -6326.8)
(-151394 -1062.93 -6405.71)
(-149675 -1057.33 -6213.78)
(-148155 -1041.35 -5815.76)
(-146911 -1013.29 -5296.55)
(-145958 -976.981 -4733.51)
(-145276 -940.13 -4180.28)
(-144831 -903.166 -3663.8)
(-144573 -863.789 -3197.28)
(-144449 -827.79 -2770.25)
(-144425 -794.16 -2369.99)
(-144473 -761.341 -2002.51)
(-144542 -727.703 -1660.51)
(-144603 -689.403 -1341.1)
(-144626 -644.819 -1042.22)
(-144591 -594.545 -761.174)
(-144468 -538.188 -493.996)
(-144224 -474.749 -238.417)
(-143823 -400.744 8.0961)
(-143237 -308.78 247.983)
(-142455 -188.679 477.357)
(-141520 -26.4392 674.922)
(-140552 194.269 799.621)
(-139678 482.874 822.409)
(-138555 862.591 757.689)
(-135975 1380.75 673.952)
(-132102 2018.08 1182.56)
(-131581 2641.9 1053.53)
(-139092 1388.34 2650.57)
(-135228 13720.5 28610.4)
(-53814.1 13020.8 22477.9)
(-155320 2144.51 -16042.9)
(-157204 2132.84 -12167.2)
(-157644 1871.66 -10440.8)
(-157735 1755.92 -8898.9)
(-157273 1842.77 -7503.99)
(-157099 1962.41 -6213.1)
(-157080 1927.47 -5093.9)
(-157043 1868.26 -4113.89)
(-157074 1871.01 -3267.69)
(-157037 1945.92 -2582.82)
(-156955 1990.92 -2066.92)
(-156931 2012.92 -1709.55)
(-156959 2033.8 -1475.84)
(-157008 2053.15 -1353.94)
(-157054 2073.4 -1339.98)
(-157080 2092.64 -1435)
(-157069 2109.2 -1630.91)
(-157020 2120.41 -1908.59)
(-156935 2125.53 -2248.93)
(-156821 2123.72 -2641.89)
(-156655 2114.4 -3084.3)
(-156391 2099.73 -3557.15)
(-156010 2077.03 -3983.4)
(-155582 2055.28 -4232.23)
(-155249 2040.63 -4216.6)
(-155134 2045.61 -3948.14)
(-155276 2076.24 -3491.48)
(-155654 2133.67 -2919.39)
(-156195 2211.74 -2301.9)
(-156806 2300.28 -1686.69)
(-157408 2396.45 -1092.38)
(-157941 2500.07 -529.132)
(-158355 2603.65 16.2806)
(-158693 2705.49 552.212)
(-158954 2805.89 1074.31)
(-159140 2905.12 1578.16)
(-159234 3006.76 2073.55)
(-159195 3112.59 2563.8)
(-158988 3222.13 3054.21)
(-158573 3333.58 3553.25)
(-157905 3445.21 4067.6)
(-156934 3556.09 4596.6)
(-155611 3666.49 5137.39)
(-153899 3777.45 5688.4)
(-151793 3891.69 6242.69)
(-149321 4010.92 6779.71)
(-146451 4127.85 7260.46)
(-142787 4246.28 7669.6)
(-137282 4374.68 8087.15)
(-130095 4388.17 9094.33)
(-126582 4159.66 9708.32)
(-124722 1637.25 3501.46)
(-135952 5937.66 2277.36)
(22588.1 6098.77 11487.3)
(-162374 -1342.55 -14462)
(-164299 -1302.99 -11955.7)
(-165109 -1393.82 -10518.1)
(-166005 -1508.03 -8759.36)
(-166234 -1437.3 -7425.29)
(-166268 -1420.35 -6289.61)
(-166449 -1544.68 -5364.95)
(-166746 -1629.93 -4701.15)
(-166996 -1616.09 -4106.78)
(-167091 -1581.8 -3511.37)
(-167136 -1570.14 -3109.88)
(-167211 -1569.32 -2877.2)
(-167299 -1566.13 -2776.87)
(-167380 -1559.44 -2804.85)
(-167429 -1544.89 -2959.43)
(-167419 -1522.1 -3239.57)
(-167320 -1489.95 -3636.87)
(-167115 -1448.06 -4136.53)
(-166797 -1394.87 -4717.53)
(-166365 -1328.84 -5371.08)
(-165770 -1245.06 -6105.72)
(-164885 -1142.16 -6921.66)
(-163571 -1021.55 -7725.52)
(-161819 -889.693 -8264.9)
(-159821 -764.364 -8334.91)
(-157798 -650.948 -7962.3)
(-155875 -553.146 -7300.6)
(-154108 -464.699 -6497.49)
(-152496 -382.618 -5677.24)
(-151001 -307.14 -4919.49)
(-149590 -233.902 -4260.47)
(-148227 -159.853 -3705.02)
(-146867 -78.7473 -3248.3)
(-145486 17.3573 -2877.61)
(-144072 125.4 -2580.25)
(-142613 238.936 -2340.19)
(-141098 355.406 -2149.09)
(-139513 473.729 -2001.41)
(-137836 594.417 -1892.74)
(-136048 717.559 -1830.16)
(-134130 843.041 -1822.57)
(-132071 969.865 -1879.45)
(-129866 1098.82 -2013.57)
(-127543 1233.67 -2242.34)
(-125199 1381.37 -2589.48)
(-123026 1549.92 -3085.08)
(-121232 1734.94 -3744.95)
(-119345 1950.42 -4540.74)
(-116028 2283.32 -5171.2)
(-110676 3066.62 -5140.48)
(-112365 3257.79 -5701.16)
(-116758 -978.012 -6848.2)
(-141149 -10508.3 -15341.2)
(20475.1 1944.63 -1039.89)
(-159024 1773.53 -14786.4)
(-160882 2019.6 -11921)
(-161459 2014.62 -10129.7)
(-161817 1993.38 -8234.31)
(-161488 2148.29 -6877.25)
(-161280 2242.79 -5867.98)
(-161126 2186.02 -4879.07)
(-160862 2163.41 -4051.83)
(-160586 2239.42 -3310.85)
(-160295 2333.61 -2660.65)
(-160004 2401.04 -2175.02)
(-159738 2453.51 -1839.6)
(-159484 2504.62 -1633.14)
(-159223 2554.95 -1551.77)
(-158923 2608.11 -1594.65)
(-158546 2663.53 -1760.19)
(-158049 2721.19 -2039.78)
(-157393 2780.14 -2417.95)
(-156555 2840.38 -2876.1)
(-155507 2901.36 -3404.77)
(-154178 2965.75 -4015.04)
(-152411 3031.69 -4714.12)
(-150026 3093.59 -5402.98)
(-147003 3141.09 -5824.97)
(-143580 3155.54 -5749.3)
(-140100 3137.82 -5199.94)
(-136831 3093.97 -4329.88)
(-133949 3039.02 -3297.06)
(-131540 2981.49 -2238.5)
(-129601 2923.08 -1241.76)
(-128096 2868.46 -349.641)
(-126972 2819.36 424.192)
(-126185 2784.98 1090.86)
(-125598 2777.02 1678)
(-125006 2793.8 2209.25)
(-124341 2826.45 2710.56)
(-123566 2868.05 3181.51)
(-122653 2915.4 3631.16)
(-121577 2967.29 4064.19)
(-120313 3023.49 4472.58)
(-118827 3084.15 4843.45)
(-117087 3148.3 5159.29)
(-115070 3214.69 5390.27)
(-112774 3283.24 5487.28)
(-110232 3356.01 5376.36)
(-107533 3434.27 4948.13)
(-104651 3497.21 4055.88)
(-100891 3535.22 2616.21)
(-93967.5 3685.21 969.034)
(-82319.4 4302.12 -166.842)
(-73637.8 3941.5 -2939)
(-78981 -1180.4 -5375.86)
(-172011 -7225.48 -12901.6)
(-27100.6 1482.99 -13287.5)
(-159631 -1195.13 -13257.1)
(-161097 -1162.27 -11379.7)
(-161758 -1236.74 -10112.4)
(-162798 -1398.51 -8618.44)
(-163380 -1466.25 -7363.24)
(-163684 -1643.28 -6402.77)
(-164064 -1774.37 -5626.94)
(-164431 -1825.27 -4938.75)
(-164635 -1836.41 -4271.57)
(-164774 -1875.91 -3701.4)
(-164923 -1913.8 -3286.89)
(-165071 -1951.49 -3009.94)
(-165228 -1985.17 -2870.46)
(-165387 -2016.1 -2878.74)
(-165532 -2042.92 -3044.8)
(-165641 -2066.82 -3376.2)
(-165687 -2089.3 -3873.8)
(-165658 -2112.32 -4526.68)
(-165566 -2139.09 -5314.96)
(-165443 -2168.37 -6223.88)
(-165273 -2199.52 -7265.13)
(-164896 -2231.28 -8479.56)
(-164028 -2259.49 -9803.58)
(-162621 -2284.1 -10816.7)
(-161080 -2293.66 -11039.4)
(-159868 -2284.25 -10507.7)
(-159156 -2258.98 -9594.08)
(-158935 -2230.95 -8538.09)
(-159095 -2207.33 -7508.02)
(-159501 -2189.06 -6586.35)
(-160043 -2171.2 -5802.95)
(-160646 -2152.77 -5150.45)
(-161260 -2133.57 -4612.67)
(-161863 -2115.51 -4173.82)
(-162447 -2094.94 -3813.36)
(-163016 -2062.84 -3510.9)
(-163580 -2016.52 -3253.04)
(-164155 -1955.94 -3034.4)
(-164753 -1880.01 -2855.5)
(-165384 -1790.04 -2722.01)
(-166066 -1685.99 -2646.93)
(-166821 -1566.05 -2653.59)
(-167686 -1429.44 -2778.52)
(-168730 -1275.01 -3075.88)
(-170079 -1100.73 -3626.41)
(-171947 -904.633 -4536.31)
(-174458 -687.954 -5896.48)
(-177451 -482.827 -7787.85)
(-179394 -220.02 -10256.1)
(-179963 -180.239 -13060)
(-178967 -2366.62 -17229.4)
(-192558 -7636.46 -20298.3)
(-160261 -9758.06 -43033.3)
(-73249 -2140.04 -24479.4)
(-158689 1168.6 -12978.7)
(-161218 1466.57 -10868.3)
(-162460 1538.18 -9515.63)
(-163987 1535.33 -7911.17)
(-165009 1613.64 -6759.23)
(-165784 1569.95 -5802.21)
(-166412 1561.2 -4800.46)
(-167007 1619.42 -3958.48)
(-167520 1704.97 -3236.13)
(-167985 1750.38 -2624.29)
(-168412 1786.06 -2141.23)
(-168821 1811.34 -1780.83)
(-169222 1831.7 -1550.89)
(-169615 1847.61 -1459.72)
(-169987 1862.57 -1518.8)
(-170320 1877.75 -1734.83)
(-170593 1894.36 -2109.8)
(-170792 1913.33 -2636.04)
(-170930 1934.46 -3296.75)
(-171030 1961.58 -4075.96)
(-171074 1997.46 -4984.64)
(-170892 2045.15 -6065.91)
(-170201 2110.06 -7256.96)
(-168910 2187.11 -8141.8)
(-167342 2267.34 -8251.83)
(-165875 2326.6 -7621.96)
(-164670 2351.01 -6603.18)
(-163773 2334.09 -5422.58)
(-163146 2275.92 -4249.72)
(-162713 2180.54 -3169.04)
(-162411 2057.3 -2218.63)
(-162192 1911.51 -1398.47)
(-162019 1749.82 -696.86)
(-161889 1580.74 -97.7579)
(-161886 1404.48 403.354)
(-161969 1229.18 844.482)
(-162084 1060.31 1256.63)
(-162201 900.072 1656.01)
(-162275 752.019 2051.64)
(-162278 619.381 2449.36)
(-162190 506.802 2852.43)
(-161997 418.887 3258.11)
(-161694 360.282 3655.16)
(-161299 336.44 4018.69)
(-160865 354.746 4301.87)
(-160479 424.148 4435.04)
(-160148 551.511 4342.94)
(-159485 750.077 3996.63)
(-157504 1059.06 3354.68)
(-153888 1269.66 1652.17)
(-149667 -68.7859 -2822.56)
(-173538 -3765.24 -4037.47)
(-155870 -7887.43 -36632.4)
(-94672.5 -1188.41 -22036.2)
(-155299 -3.03943 -11362)