/*--------------------------------*- C++ -*----------------------------------*\
| =========                 |                                                 |
| \\      /  F ield         | OpenFOAM: The Open Source CFD Toolbox           |
|  \\    /   O peration     | Version:  4.1                                   |
|   \\  /    A nd           | Web:      www.OpenFOAM.org                      |
|    \\/     M anipulation  |                                                 |
\*---------------------------------------------------------------------------*/
FoamFile
{
    version     2.0;
    format      ascii;
    class       volVectorField;
    location    "78";
    object      U;
}
// * * * * * * * * * * * * * * * * * * * * * * * * * * * * * * * * * * * * * //

dimensions      [0 1 -1 0 0 0 0];

internalField   nonuniform List<vector> 
4432
(
(-134870 -3782.14 -352.4)
(-140130 -3933.11 -849.374)
(-141882 -3793.67 -853.204)
(-144146 -3900.21 -1174.12)
(-146211 -3898.65 -1365.68)
(-148191 -3890.11 -1488.17)
(-149968 -3890.94 -1646.46)
(-151644 -3880.37 -1793.84)
(-153199 -3866.35 -1952.31)
(-154629 -3851.73 -2128.23)
(-155915 -3838.4 -2325.56)
(-157032 -3825.87 -2550.79)
(-157951 -3814.1 -2806.25)
(-158644 -3803.79 -3089.84)
(-159090 -3796.39 -3394.53)
(-159256 -3793.09 -3718.29)
(-159110 -3790.76 -4055.81)
(-158618 -3788.21 -4404.03)
(-157770 -3790.15 -4762.6)
(-156552 -3799.09 -5129.63)
(-154959 -3813.33 -5496.59)
(-152987 -3834.33 -5857.96)
(-150646 -3859.24 -6201.83)
(-147950 -3889.13 -6521.75)
(-144948 -3923.36 -6810.74)
(-141687 -3961.89 -7066.11)
(-138234 -4003.5 -7285.52)
(-134642 -4046.88 -7469.77)
(-130976 -4090.01 -7618.9)
(-127282 -4130.99 -7734.01)
(-123614 -4167.59 -7815)
(-120019 -4197.45 -7860.91)
(-116538 -4218.38 -7871.7)
(-113222 -4228.61 -7845.27)
(-110107 -4227.03 -7780.8)
(-107227 -4212.07 -7677.42)
(-104614 -4183.42 -7538.87)
(-102280 -4145.15 -7379.2)
(-100223 -4109.12 -7216.65)
(-98314.5 -4074.61 -7080.2)
(-96537.2 -4024.77 -6960.04)
(-94840.1 -3950.98 -6868.24)
(-93132.3 -3850.89 -6801.49)
(-91390.3 -3719.21 -6733.79)
(-89977.1 -3545.68 -6616.14)
(-89799.2 -3319 -6368.42)
(-91285.2 -3016.37 -5967.24)
(-91941.9 -2577.99 -5255.54)
(-86960.9 -1823.18 -3625.44)
(-79156.8 270.496 1055.27)
(-90487.6 6127.32 8258.83)
(-136385 11213.5 18384.5)
(-172201 25134.1 1564.68)
(-47027.9 12584.8 -8675.47)
(-189428 4167.89 474.407)
(-192339 4100.37 124.773)
(-193580 4195.37 -61.0374)
(-195061 4116.67 -224.852)
(-196290 4106.07 -390.605)
(-197498 4099.97 -502.191)
(-198549 4083.24 -632.86)
(-199504 4072.37 -758.968)
(-200365 4061.95 -896.863)
(-201125 4049.76 -1047.55)
(-201765 4034.47 -1215.54)
(-202264 4016.55 -1405.39)
(-202603 3995.91 -1618.47)
(-202759 3971.8 -1851.35)
(-202719 3942.95 -2098.69)
(-202460 3908.81 -2356.74)
(-201984 3874.61 -2627.26)
(-201271 3842.8 -2907.7)
(-200306 3814.77 -3192.32)
(-199085 3788.81 -3475.52)
(-197606 3766.72 -3752.11)
(-195873 3747.78 -4013.6)
(-193900 3733.83 -4251.77)
(-191707 3724.27 -4460.12)
(-189338 3718.38 -4633.59)
(-186834 3715.73 -4770.29)
(-184247 3715.43 -4869.45)
(-181618 3717.58 -4932.64)
(-178991 3721.52 -4961.58)
(-176391 3727.33 -4958.7)
(-173846 3734.57 -4925.9)
(-171373 3742.94 -4864.37)
(-168981 3752.36 -4774.6)
(-166682 3762.29 -4656.53)
(-164475 3772.9 -4510.01)
(-162357 3783.47 -4336.45)
(-160313 3791.18 -4139.82)
(-158318 3791.14 -3925.33)
(-156354 3774.81 -3697.12)
(-154396 3743.02 -3454.81)
(-152420 3701.02 -3189.34)
(-150346 3654.42 -2905.43)
(-148049 3604.29 -2599.22)
(-145446 3549.02 -2245.58)
(-142701 3490.76 -1801.73)
(-140351 3438.6 -1215.37)
(-138592 3409.22 -489.523)
(-135482 3435.33 393.638)
(-127174 3625.69 1925.21)
(-115751 4672.5 5423.74)
(-121375 7891.66 9004.87)
(-145372 7409.25 14757.7)
(-185852 6156.41 11921.5)
(34937.5 11382.1 -24796.1)
(-262583 -1631.8 6070.7)
(-263949 -1589.41 5489.93)
(-264700 -1598.65 5398.78)
(-265555 -1545.82 5172.96)
(-266240 -1516.88 5019.46)
(-266967 -1483.42 4942.55)
(-267642 -1453.01 4869.79)
(-268269 -1422.36 4806.52)
(-268864 -1395.62 4736.47)
(-269422 -1371.96 4654.31)
(-269936 -1354.05 4553.95)
(-270398 -1341.72 4428.46)
(-270793 -1335.08 4274.14)
(-271109 -1333.98 4090.54)
(-271341 -1339.85 3881.74)
(-271486 -1352.09 3653.1)
(-271543 -1370.73 3416.23)
(-271552 -1392.71 3178.66)
(-271515 -1417.77 2946.55)
(-271431 -1445.41 2720.82)
(-271307 -1476.62 2515.88)
(-271150 -1510.3 2341.99)
(-270970 -1546.68 2215.31)
(-270781 -1586.56 2143.99)
(-270605 -1630.81 2135.7)
(-270456 -1680.63 2191.32)
(-270356 -1736.68 2310.23)
(-270312 -1799.44 2487.39)
(-270333 -1868.94 2717.78)
(-270415 -1945.17 2994.52)
(-270560 -2027.75 3312.65)
(-270765 -2116.02 3668.19)
(-271029 -2208.56 4059.61)
(-271358 -2303.85 4487.23)
(-271754 -2400.05 4951.41)
(-272231 -2496.44 5454.47)
(-272806 -2592.66 6000.51)
(-273513 -2685.51 6590.73)
(-274394 -2773.83 7224.9)
(-275530 -2859.25 7907.86)
(-276946 -2939.89 8643.33)
(-278721 -3008.34 9447.06)
(-280935 -3058.11 10335.4)
(-283670 -3082.96 11331.4)
(-287224 -3073.1 12472.6)
(-292223 -3015.76 13757.6)
(-299008 -2886.85 15066.2)
(-306587 -2674.78 16207)
(-311770 -2215.27 17498.3)
(-316368 -1039.11 19703.2)
(-330270 826.584 22998.2)
(-386817 2948.08 20187)
(-392388 7400.72 -4080.31)
(-423155 23381.9 -48603.4)
(-309663 2562.65 4051.14)
(-310104 2478.21 3589.1)
(-310326 2408.04 3361.62)
(-310591 2385.16 3207.54)
(-310815 2349.17 3050.02)
(-311071 2318.84 2951.79)
(-311307 2288.38 2862.83)
(-311522 2260.73 2779.77)
(-311732 2232.23 2688.03)
(-311933 2204.09 2586.12)
(-312123 2174.6 2468.71)
(-312297 2144.59 2330.15)
(-312447 2114.51 2167)
(-312567 2085.48 1979.49)
(-312659 2056.81 1771.22)
(-312715 2029.43 1547.59)
(-312720 2001.03 1318.11)
(-312699 1971.41 1088.11)
(-312669 1938.38 856.895)
(-312629 1903.44 629.463)
(-312591 1865.82 416.685)
(-312563 1826.92 232.335)
(-312559 1786.99 89.6107)
(-312595 1745.97 -0.67937)
(-312696 1703.52 -30.8693)
(-312877 1659.27 2.07038)
(-313165 1612.74 98.4809)
(-313567 1563.81 255)
(-314097 1512.09 467.695)
(-314753 1457.26 731.147)
(-315539 1398.8 1041.07)
(-316447 1336.26 1393.81)
(-317476 1269.53 1787.48)
(-318620 1198.14 2222.27)
(-319874 1121.72 2700.24)
(-321240 1038.34 3223.58)
(-322718 945.463 3792.97)
(-324323 841.964 4407.23)
(-326061 725.161 5063.21)
(-327973 587.887 5761.68)
(-330091 427.725 6506.1)
(-332428 241.43 7303.18)
(-334988 22.6972 8165.36)
(-337785 -235.249 9114.91)
(-340987 -540.709 10188.5)
(-345009 -908.806 11398.7)
(-350017 -1354.58 12689.7)
(-354808 -1940.54 14034.5)
(-356508 -2512.07 15801.5)
(-355113 -2750.8 18101.7)
(-355120 -3457.56 19716.6)
(-380883 -9734.67 21303.2)
(-327434 703.524 -7256.29)
(-322804 -9171.87 -3777.24)
(-230300 -2452.39 1090.29)
(-228973 -2441.95 402.049)
(-228672 -2530.48 98.9821)
(-228287 -2516.52 -124.692)
(-227992 -2529.53 -358.258)
(-227771 -2546.39 -556.289)
(-227609 -2564.06 -723.79)
(-227487 -2579.6 -889.826)
(-227398 -2598.71 -1065.55)
(-227338 -2619.08 -1257.82)
(-227305 -2642.29 -1477.12)
(-227295 -2667.43 -1730.4)
(-227297 -2694.71 -2023.59)
(-227308 -2724.09 -2359.82)
(-227327 -2756.39 -2740.97)
(-227345 -2791.86 -3157.22)
(-227334 -2831.01 -3600.49)
(-227181 -2868.55 -4071.62)
(-226846 -2903.6 -4573.11)
(-226320 -2933.44 -5086.79)
(-225599 -2958.29 -5598.03)
(-224692 -2972.52 -6081.81)
(-223617 -2976.65 -6517.64)
(-222412 -2968.17 -6888.33)
(-221122 -2949.15 -7183.8)
(-219802 -2920.52 -7402.37)
(-218508 -2884.4 -7546.96)
(-217284 -2843.29 -7627.05)
(-216164 -2799.93 -7653.27)
(-215170 -2757.09 -7638.74)
(-214315 -2717.57 -7594.4)
(-213595 -2684.64 -7529.11)
(-213004 -2661.75 -7446.12)
(-212523 -2652.23 -7348.59)
(-212128 -2655.88 -7239.06)
(-211788 -2674.47 -7117.15)
(-211463 -2716.16 -6984.02)
(-211013 -2781.13 -6871.28)
(-210351 -2862.1 -6788.01)
(-209416 -2950.24 -6749.02)
(-208166 -3048.31 -6753.98)
(-206490 -3164.22 -6798.5)
(-204219 -3294.74 -6878.08)
(-201255 -3432.35 -6961.73)
(-197739 -3560.47 -7021.95)
(-194141 -3636.49 -7113.01)
(-190619 -3579.52 -7375.07)
(-185169 -3268.17 -7930.86)
(-174322 -2353.56 -8745.93)
(-159704 -480.487 -9672.12)
(-161750 2474.48 -9272.33)
(-193338 5715.8 -13615.1)
(-211599 22918 -21417.8)
(-90362.2 11625.7 -6890.94)
(-262865 3177.75 2106.73)
(-261738 3229.99 1614.09)
(-261258 3164.54 1412.85)
(-260695 3195.19 1252.7)
(-260273 3197.98 1091.93)
(-259891 3195.63 949.924)
(-259550 3190.89 836.315)
(-259240 3186.29 719.074)
(-258960 3176.7 590.396)
(-258704 3163.7 443.823)
(-258472 3145.59 271.133)
(-258262 3122.55 65.6738)
(-258068 3093.79 -178.909)
(-257889 3058.5 -468.166)
(-257725 3015.27 -802.685)
(-257577 2963.09 -1176.73)
(-257429 2901.31 -1579.14)
(-257235 2836.27 -2002.87)
(-256948 2769.9 -2443.78)
(-256569 2703.97 -2888.83)
(-256096 2638.25 -3320.82)
(-255535 2577.9 -3720.07)
(-254898 2522.86 -4067.26)
(-254206 2475.92 -4348.15)
(-253485 2437.35 -4555.07)
(-252764 2407.37 -4688.31)
(-252065 2384.97 -4753.13)
(-251403 2368.76 -4760.45)
(-250783 2356.98 -4721.93)
(-250201 2347.7 -4650.6)
(-249647 2338.76 -4557.38)
(-249102 2327.7 -4451.57)
(-248546 2311.67 -4338.73)
(-247953 2289.1 -4221.51)
(-247293 2259.75 -4100.51)
(-246492 2224.17 -3985.56)
(-245493 2178.44 -3883.42)
(-244220 2120.36 -3799.59)
(-242617 2052.49 -3732.19)
(-240602 1979.06 -3687.41)
(-238079 1898.88 -3669.12)
(-234960 1806.58 -3674.74)
(-231118 1701.56 -3698.08)
(-226449 1586.81 -3725.29)
(-221036 1471.61 -3745.01)
(-215227 1383.71 -3800.95)
(-209020 1379.42 -4020.57)
(-200402 1561.81 -4506.22)
(-186030 2133.63 -5192.37)
(-167659 3411.06 -6056.77)
(-165158 4911.09 -6516.08)
(-195436 3722.95 -6854.08)
(-194301 9091.78 -3369.78)
(34496.9 9691.24 -4617.9)
(-257068 -3200.13 4109.96)
(-257805 -3244.83 4020.36)
(-258223 -3277.43 3931.71)
(-258773 -3292.53 3921.32)
(-259332 -3310.15 3906.57)
(-259897 -3332.72 3891.78)
(-260464 -3352.26 3877.89)
(-261032 -3372.1 3856.65)
(-261591 -3394.53 3817.79)
(-262129 -3418.23 3750.25)
(-262631 -3444.17 3643.08)
(-263078 -3471.5 3490.07)
(-263445 -3500.3 3282.56)
(-263708 -3531.47 3012.61)
(-263842 -3564.06 2675.23)
(-263831 -3599.25 2273.11)
(-263661 -3634.97 1811.31)
(-263358 -3672.6 1314.08)
(-262939 -3707.63 806.596)
(-262405 -3741.95 314.593)
(-261749 -3772.84 -140.784)
(-260975 -3800.74 -521.654)
(-260097 -3823.8 -801.088)
(-259142 -3841.86 -952.155)
(-258144 -3855.26 -966.751)
(-257143 -3864.61 -846.528)
(-256174 -3871.24 -605.141)
(-255265 -3876.47 -263.026)
(-254442 -3881.87 156.723)
(-253723 -3888.7 630.469)
(-253122 -3898.45 1137.86)
(-252652 -3913.31 1661.1)
(-252329 -3936.13 2186.9)
(-252174 -3968 2703.84)
(-252212 -4010.73 3202.76)
(-252474 -4066.35 3675.93)
(-252979 -4138.36 4113.9)
(-253844 -4228.7 4528.18)
(-255151 -4336.43 4947.15)
(-256995 -4460 5389.89)
(-259459 -4605.65 5872.71)
(-262596 -4780.17 6417.98)
(-266434 -4992.36 7060.14)
(-271034 -5259.23 7850.81)
(-276693 -5600.37 8845.19)
(-284214 -6025.48 10116.7)
(-294249 -6525.69 11732.4)
(-305373 -7072.42 13714.2)
(-313109 -7497.44 15859.7)
(-318767 -7468.73 18361.4)
(-344144 -7455.94 22611.6)
(-422142 -9431.66 29772.1)
(-465694 7855.53 8523.55)
(-551487 27122.9 -15781.9)
(-253342 3114.03 3238.49)
(-253217 3077.75 3011.56)
(-253133 3047.25 2952.12)
(-253074 3035.58 2873.74)
(-253080 3020.2 2815.98)
(-253076 2999.49 2758.73)
(-253068 2981.14 2702.68)
(-253064 2961.79 2635.89)
(-253054 2939.11 2555.43)
(-253030 2914.43 2449.68)
(-252984 2886.79 2309.49)
(-252906 2857.14 2129.16)
(-252779 2825.55 1902.78)
(-252589 2791.21 1624.52)
(-252324 2755.22 1292.83)
(-251971 2716.42 912.785)
(-251530 2676.17 494.134)
(-251021 2630.76 52.5899)
(-250455 2583.95 -394.15)
(-249827 2533.68 -825.143)
(-249139 2482.1 -1213.76)
(-248400 2428.31 -1529.82)
(-247634 2373.97 -1741.35)
(-246874 2319.56 -1825.27)
(-246160 2265.52 -1770.52)
(-245530 2212.6 -1580.28)
(-245016 2161.55 -1268.7)
(-244636 2113.46 -857.842)
(-244396 2069.55 -372.675)
(-244292 2031.68 160.881)
(-244311 2001.47 719.688)
(-244434 1979.88 1282.85)
(-244636 1966.96 1833.55)
(-244897 1964.56 2357.38)
(-245180 1970.56 2840.31)
(-245499 1982.62 3281.85)
(-245843 2001.73 3680.72)
(-246263 2028.19 4069.24)
(-246761 2064.75 4458.85)
(-247337 2112.32 4864.5)
(-247999 2163.43 5293.69)
(-248734 2213 5760.36)
(-249476 2256.03 6293.91)
(-250192 2275.61 6927.83)
(-251092 2252.07 7685.04)
(-252785 2177.97 8576.81)
(-255566 2065.31 9591.73)
(-257636 1936.53 10642.4)
(-254682 2025.21 11217.5)
(-248160 2181.06 11048)
(-254806 1176.75 11009.3)
(-284866 -4081.1 9777.41)
(-262098 11850.8 -18759.2)
(-163534 -2729.84 -13492.6)
(-242781 -3073.46 1650.24)
(-242568 -3123.51 1368.39)
(-242499 -3127.11 1206.71)
(-242430 -3129.73 1042.24)
(-242426 -3133.32 908.26)
(-242444 -3139.92 779.155)
(-242485 -3147.3 646.249)
(-242545 -3156.64 498.492)
(-242623 -3166.12 327.953)
(-242716 -3174.71 119.629)
(-242817 -3182.89 -139.814)
(-242922 -3190.29 -456.428)
(-243024 -3195.53 -838.514)
(-243114 -3197.89 -1294.26)
(-243186 -3196.17 -1824.07)
(-243229 -3189.55 -2425.99)
(-243231 -3176.54 -3085.81)
(-243175 -3165.51 -3801.82)
(-242996 -3159.96 -4562.25)
(-242668 -3160.65 -5349.83)
(-242176 -3164.81 -6125.55)
(-241514 -3177.97 -6848.48)
(-240701 -3197.57 -7463.36)
(-239774 -3227.16 -7928.39)
(-238791 -3265.48 -8221.02)
(-237806 -3314.35 -8341.98)
(-236869 -3374.48 -8310.16)
(-236017 -3446.74 -8154.61)
(-235270 -3531.7 -7907.9)
(-234638 -3629.57 -7600.25)
(-234118 -3740.48 -7256.45)
(-233705 -3864.91 -6896.56)
(-233390 -4003.28 -6536.57)
(-233168 -4154.73 -6186.87)
(-233033 -4316.86 -5852.65)
(-232981 -4485.5 -5535.95)
(-233013 -4651.77 -5231.94)
(-233129 -4814.49 -4950.55)
(-233298 -4978.39 -4687.51)
(-233525 -5139.48 -4445.11)
(-233826 -5297.29 -4228.11)
(-234203 -5453.05 -4025.41)
(-234625 -5607.81 -3821.95)
(-235080 -5765.29 -3611.96)
(-235787 -5933.28 -3390.38)
(-237384 -6114.36 -3122.74)
(-240285 -6288.66 -2744.81)
(-243061 -6499.36 -2346.37)
(-241625 -6603.59 -1710.39)
(-237104 -7018.86 -472.863)
(-250079 -8315.93 2936.18)
(-311440 -12203.4 8401.66)
(-360859 -1774.94 41029.4)
(-339090 7104.02 100570)
(-228403 3546.23 1182.01)
(-228026 3516.81 889.284)
(-227892 3525.54 716.722)
(-227770 3538.65 534.575)
(-227747 3549.98 386.143)
(-227752 3558.62 255.128)
(-227795 3566.86 123.094)
(-227869 3573.59 -21.4225)
(-227975 3580.85 -182.709)
(-228110 3589.96 -375.595)
(-228268 3600.58 -611.176)
(-228441 3613.32 -898.24)
(-228618 3629.92 -1245.98)
(-228786 3651.36 -1663.01)
(-228929 3679.29 -2153.17)
(-229022 3715.1 -2713.97)
(-229024 3761.69 -3348.43)
(-228846 3816.29 -4057.32)
(-228452 3877.91 -4819.41)
(-227822 3945.5 -5607.17)
(-226927 4022.83 -6389.79)
(-225759 4103.89 -7121.51)
(-224334 4190.61 -7749.53)
(-222699 4277.3 -8229.13)
(-220924 4362.93 -8537.34)
(-219088 4442.84 -8675.05)
(-217265 4513.78 -8660.97)
(-215517 4572.62 -8524.04)
(-213888 4617.25 -8295.78)
(-212410 4646.61 -8005.05)
(-211100 4660.19 -7674.93)
(-209966 4657.69 -7323.02)
(-209011 4638.99 -6961.96)
(-208233 4605.51 -6601.27)
(-207628 4560.91 -6244.35)
(-207182 4510.86 -5891.17)
(-206890 4458.34 -5559.59)
(-206629 4411.68 -5290.34)
(-206356 4375.3 -5095.75)
(-206034 4364.8 -4973.27)
(-205604 4387.33 -4937.56)
(-204998 4440.97 -5006.32)
(-204129 4525.56 -5175.68)
(-202922 4636.53 -5448.82)
(-201570 4763.57 -5829.96)
(-200679 4899.51 -6311.88)
(-200499 5061.33 -6851.5)
(-198736 5233.24 -7523.92)
(-191268 5496.83 -8448.79)
(-178868 5434.53 -9788.89)
(-182582 3276.49 -8423.38)
(-212083 -6502.93 -303.279)
(-249726 1152.24 38991.7)
(-172556 -15003.9 27829.7)
(-236213 -2280.92 2844.71)
(-236487 -2288.62 2826.88)
(-236780 -2305.86 2826.14)
(-237148 -2310.07 2816.25)
(-237592 -2317.82 2820.92)
(-238094 -2321.27 2817.48)
(-238652 -2321.58 2803.27)
(-239263 -2322.47 2767.71)
(-239929 -2323.15 2701.92)
(-240646 -2321.71 2590.78)
(-241402 -2316.81 2419.37)
(-242176 -2310.31 2173.9)
(-242952 -2303.42 1840.88)
(-243704 -2297.14 1408.55)
(-244403 -2293.93 871.23)
(-245013 -2294.52 229.253)
(-245501 -2303.8 -504.416)
(-245845 -2318.41 -1324.1)
(-246051 -2337.55 -2196.72)
(-246101 -2359.38 -3102.52)
(-245972 -2388.39 -4004.05)
(-245652 -2421.85 -4856.2)
(-245163 -2462.13 -5580.22)
(-244570 -2506.87 -6116.12)
(-243955 -2555.7 -6428.73)
(-243399 -2607.55 -6529.43)
(-242963 -2660.61 -6454.58)
(-242686 -2712.53 -6254.73)
(-242585 -2760.41 -5980.59)
(-242655 -2801.13 -5674.54)
(-242884 -2831.53 -5367.71)
(-243252 -2849.33 -5081.11)
(-243736 -2852.12 -4827.98)
(-244313 -2837.91 -4613.31)
(-244959 -2805.17 -4438.13)
(-245647 -2755.09 -4304.62)
(-246352 -2691.14 -4210.55)
(-247055 -2619.38 -4161.5)
(-247753 -2536.96 -4133.59)
(-248425 -2444.72 -4113.1)
(-249036 -2342.17 -4093.29)
(-249523 -2231.09 -4064.89)
(-249779 -2113.79 -4019.45)
(-249717 -1990.97 -3961.74)
(-249461 -1861.26 -3905.66)
(-249437 -1719.97 -3860.62)
(-249795 -1556.55 -3845.51)
(-248704 -1296.17 -4014.44)
(-242789 -859.62 -4433.14)
(-230231 -266.784 -5231.05)
(-223250 609.319 -4302.07)
(-221419 2670.69 -695.343)
(-243491 20947.4 52967.4)
(-164097 18882.7 24090.3)
(-239704 2572.75 2607.42)
(-239826 2511.72 2662.37)
(-240046 2464.93 2641.39)
(-240329 2426.94 2636.82)
(-240690 2385.64 2642.11)
(-241109 2348.93 2651.85)
(-241589 2315.9 2655.83)
(-242123 2283.46 2641.98)
(-242706 2252.9 2598.39)
(-243331 2226.9 2510.71)
(-243983 2207.66 2364.63)
(-244641 2194.42 2145.1)
(-245282 2188.01 1837.45)
(-245875 2188.59 1429.52)
(-246385 2195.16 915.182)
(-246775 2208.4 296.46)
(-247010 2224.67 -419.125)
(-247130 2243.82 -1203.2)
(-247147 2266.1 -2024.97)
(-247021 2297.52 -2856.65)
(-246729 2334.7 -3662.04)
(-246250 2382.25 -4383.01)
(-245593 2439.38 -4944.8)
(-244806 2508.75 -5279.6)
(-243951 2590.64 -5358.86)
(-243091 2684.69 -5196.38)
(-242271 2789.86 -4836.2)
(-241512 2905 -4336.26)
(-240819 3029.65 -3754.58)
(-240181 3163.63 -3140.57)
(-239577 3306.91 -2531.29)
(-238985 3459.39 -1952.13)
(-238378 3621.48 -1418.89)
(-237732 3793.6 -939.417)
(-237023 3976.44 -514.003)
(-236226 4171.67 -135.609)
(-235324 4378.76 187.419)
(-234341 4597.49 472.247)
(-233321 4823.39 739.422)
(-232256 5057.79 995.064)
(-231119 5301.48 1238.04)
(-229859 5552.49 1474.09)
(-228376 5809.34 1710.63)
(-226588 6072.29 1948.94)
(-224619 6343.31 2188.02)
(-222935 6626.74 2428.86)
(-221777 6942.23 2679.35)
(-219405 7348.53 2835.73)
(-212170 7871.01 2668.25)
(-199823 8373.91 2154.44)
(-197381 8356 2323.81)
(-207654 7447.8 3227.03)
(-196418 16967 29966.8)
(-6858.92 8136.15 19234.9)
(-233348 -1781.57 2274.85)
(-233884 -1731.83 2419.98)
(-234276 -1753.79 2492.05)
(-234803 -1749.76 2577.03)
(-235387 -1754.18 2668.95)
(-236040 -1754.16 2756.08)
(-236749 -1754.83 2834.82)
(-237512 -1759.81 2893.76)
(-238332 -1770.86 2917.54)
(-239206 -1786.69 2891.19)
(-240119 -1807.5 2801.08)
(-241055 -1834.38 2627.41)
(-241992 -1867.16 2351.31)
(-242902 -1905.13 1957.6)
(-243749 -1946.81 1435.74)
(-244490 -1989.56 786.654)
(-245084 -2029.94 17.8608)
(-245502 -2062.47 -846.588)
(-245721 -2081.9 -1787.18)
(-245718 -2079.39 -2766.48)
(-245462 -2054.94 -3758.4)
(-244923 -2002.55 -4691.05)
(-244127 -1925.78 -5454.3)
(-243179 -1823.45 -5924.19)
(-242225 -1705.33 -6048.49)
(-241401 -1579.63 -5853.88)
(-240801 -1457.63 -5413.74)
(-240467 -1348.2 -4814.93)
(-240401 -1257.96 -4135.7)
(-240576 -1191.54 -3435.88)
(-240952 -1151.48 -2756.07)
(-241486 -1139.2 -2121.87)
(-242138 -1154.58 -1548.12)
(-242866 -1197.3 -1042.44)
(-243636 -1266.25 -612.33)
(-244429 -1353.46 -259.818)
(-245246 -1450.17 29.4384)
(-246069 -1559.19 259.76)
(-246867 -1688.51 426.048)
(-247599 -1849.21 506.319)
(-248213 -2050.42 482.942)
(-248631 -2302 338.971)
(-248732 -2615.21 56.5765)
(-248416 -2999.27 -386.296)
(-247791 -3462.73 -1011.86)
(-247303 -4010.8 -1833.99)
(-247169 -4640.61 -2875.67)
(-245794 -5269.24 -4178.4)
(-239706 -5724.85 -5934.94)
(-228595 -5921.1 -8165.08)
(-227134 -6253.17 -11773.5)
(-229454 -7554.01 -19641.6)
(-225582 -7344.57 -8694.68)
(-2891.17 -11384.4 11362.9)
(-227383 3172.41 2336.29)
(-226873 3205.99 2367.95)
(-226749 3186.54 2360.75)
(-226612 3196.49 2357.7)
(-226584 3201.51 2362.71)
(-226628 3217.33 2366.42)
(-226752 3238.46 2360.26)
(-226956 3261.95 2336.18)
(-227242 3286.35 2279.59)
(-227610 3313.34 2176.21)
(-228054 3342.64 2011.35)
(-228565 3372.83 1767.81)
(-229129 3403.19 1428.49)
(-229725 3433 979.957)
(-230325 3461.66 414.918)
(-230892 3489.19 -264.987)
(-231393 3517.27 -1048.18)
(-231770 3550.11 -1924.26)
(-231963 3582.75 -2881.81)
(-231946 3618.43 -3893.78)
(-231668 3656.94 -4928.16)
(-231082 3704.76 -5921.8)
(-230192 3761.33 -6757.44)
(-229082 3835.13 -7307.53)
(-227882 3927.07 -7507.11)
(-226708 4040.71 -7372.05)
(-225636 4175.45 -6966.52)
(-224698 4330.59 -6369.02)
(-223888 4505.42 -5651.48)
(-223182 4699.5 -4869.13)
(-222544 4912.72 -4059.77)
(-221940 5145.14 -3246.51)
(-221338 5397.17 -2442.58)
(-220712 5669.33 -1654.77)
(-220033 5960.79 -885.554)
(-219278 6273.87 -131.791)
(-218402 6611.67 611.652)
(-217344 6976.24 1347.73)
(-216023 7368.43 2083.17)
(-214391 7780.26 2799.77)
(-212401 8209.2 3498.37)
(-209976 8651.95 4172.94)
(-206995 9104.13 4814.97)
(-203346 9562.68 5404.41)
(-199113 10024.7 5917.31)
(-194746 10494.3 6322.53)
(-190453 10985.9 6495.33)
(-184462 11575.1 6205.93)
(-172326 12426.5 5371.39)
(-152678 13823.6 5091.18)
(-141735 17432.1 5209.91)
(-165239 17837.9 2530.72)
(-181743 40665.4 3914.53)
(22530.9 -6544.55 3771.34)
(-244164 -4573.06 2048.09)
(-244454 -4638.23 2360.35)
(-244603 -4709.21 2519.73)
(-244872 -4778.71 2720.6)
(-245173 -4854.22 2910.23)
(-245528 -4929.57 3098.13)
(-245926 -5009.44 3271.47)
(-246372 -5094.91 3412.92)
(-246870 -5183.73 3500.86)
(-247412 -5272.3 3515.71)
(-247986 -5358.68 3434.44)
(-248578 -5440.33 3230.93)
(-249163 -5513.63 2879.9)
(-249712 -5575.1 2359.94)
(-250180 -5621.03 1657.58)
(-250522 -5650.03 771.157)
(-250684 -5659.88 -287.502)
(-250632 -5655.38 -1487.72)
(-250359 -5645.22 -2787.99)
(-249844 -5644.25 -4147.53)
(-249024 -5649.62 -5549.26)
(-247798 -5667.66 -6920.29)
(-246120 -5696.5 -8091.52)
(-244089 -5733.97 -8834.11)
(-241915 -5769.84 -9050.17)
(-239795 -5796.18 -8799.22)
(-237860 -5809.21 -8218.44)
(-236177 -5808 -7447.98)
(-234760 -5794.69 -6605.54)
(-233591 -5773.23 -5772.27)
(-232635 -5747.28 -4996.21)
(-231857 -5719.43 -4300.89)
(-231219 -5691.13 -3695.14)
(-230682 -5663.56 -3179.79)
(-230209 -5639.88 -2745.64)
(-229758 -5625.34 -2385.91)
(-229262 -5629.01 -2106.79)
(-228682 -5645.7 -1914.92)
(-227982 -5670.08 -1810.54)
(-227122 -5701.52 -1805.77)
(-226051 -5740.08 -1924.54)
(-224687 -5786.83 -2202.66)
(-222903 -5843.9 -2676.2)
(-220579 -5924.66 -3393.73)
(-217798 -6039.61 -4418.82)
(-215004 -6207.39 -5835.82)
(-212410 -6480.83 -7804.89)
(-208274 -6949 -10508.6)
(-197970 -7632.64 -13868)
(-181273 -8000.37 -17354.5)
(-173202 -8261.64 -25026.2)
(-185969 -7777.42 -29504.8)
(-196423 -15623.7 -40201.5)
(23996.4 -8090.43 -15827.8)
(-225736 4585.76 2922.21)
(-225738 4633.84 3067.91)
(-225955 4630.82 3195.09)
(-226237 4646.52 3328.27)
(-226628 4657.9 3472.77)
(-227127 4677.39 3622.59)
(-227737 4699.19 3766.37)
(-228461 4723.06 3891.31)
(-229302 4750.95 3980.77)
(-230255 4786.06 4014.63)
(-231308 4828.98 3969.41)
(-232442 4880.86 3818.77)
(-233627 4942.77 3535.24)
(-234819 5014.9 3093.38)
(-235960 5096.62 2472.82)
(-236982 5184.41 1662.3)
(-237813 5275.93 664.527)
(-238404 5366.5 -495.581)
(-238739 5456.34 -1754.7)
(-238805 5538.55 -3065.25)
(-238547 5614.73 -4401.21)
(-237881 5678.55 -5691.29)
(-236786 5732.51 -6746.56)
(-235408 5779.74 -7334.47)
(-234010 5832.8 -7351.38)
(-232827 5902.88 -6875.78)
(-231999 5996.21 -6063.16)
(-231570 6114.17 -5069.21)
(-231514 6254.84 -4020.62)
(-231767 6414.23 -3002.14)
(-232252 6587.41 -2062.58)
(-232894 6770.38 -1224.56)
(-233627 6960.32 -494.829)
(-234395 7154.93 127.349)
(-235152 7349.83 648.534)
(-235855 7550.17 1089.17)
(-236486 7765.96 1463.42)
(-237037 7999.34 1768.71)
(-237479 8251.41 2005.24)
(-237795 8520.73 2171.19)
(-237963 8805.39 2255.4)
(-237960 9103.99 2239.17)
(-237734 9414.82 2104.28)
(-237283 9740.31 1822.95)
(-236836 10081.5 1337.54)
(-236959 10420.3 532.008)
(-238022 10688.1 -780.611)
(-238640 10808.7 -2941.49)
(-234295 10893.7 -6503.22)
(-222618 11496.3 -11948.7)
(-212264 8845.99 -22439.2)
(-233306 6711.17 -36917.8)
(-225310 -30414.4 -78440.3)
(-123709 -12064.1 -29916.5)
(-238132 -4531.12 3350.62)
(-238286 -4563.99 3627.86)
(-238360 -4592.27 3744.06)
(-238516 -4618.1 3917.43)
(-238708 -4635.09 4066.02)
(-238941 -4642.4 4210.36)
(-239222 -4642.95 4334.2)
(-239562 -4634.37 4423.88)
(-239968 -4611.86 4466.44)
(-240444 -4573 4448.67)
(-240990 -4516.89 4348.58)
(-241603 -4443.48 4141.64)
(-242272 -4354.41 3800.89)
(-242972 -4253.71 3298.82)
(-243669 -4148.12 2611.51)
(-244311 -4047.84 1720.92)
(-244830 -3965.15 625.997)
(-245168 -3911.62 -654.642)
(-245322 -3895.75 -2062.13)
(-245311 -3921.17 -3558.44)
(-245081 -3987.37 -5144.73)
(-244468 -4103.75 -6798.57)
(-243363 -4271.46 -8272.57)
(-241956 -4490.42 -9174.84)
(-240637 -4737 -9295.07)
(-239665 -4987.53 -8749.49)
(-239088 -5220.1 -7766.09)
(-238849 -5418.39 -6552.7)
(-238863 -5573.07 -5274.33)
(-239051 -5687.22 -4029.8)
(-239355 -5764.82 -2869.84)
(-239739 -5811.25 -1811.99)
(-240181 -5828.32 -860.019)
(-240680 -5821.1 -18.5559)
(-241252 -5793.39 729.125)
(-241896 -5747.92 1416.81)
(-242623 -5689.02 2067.87)
(-243433 -5615.75 2697.55)
(-244337 -5525.76 3311.63)
(-245344 -5415.88 3913.74)
(-246466 -5280.47 4504.04)
(-247701 -5111.5 5076.23)
(-249030 -4898.14 5620.63)
(-250480 -4627.7 6119.14)
(-252306 -4279.3 6545.02)
(-255196 -3854.93 6810.7)
(-259674 -3376.14 6729.16)
(-264372 -2870.26 6020.81)
(-265160 -2162.86 4204.97)
(-260974 -1086.9 -19.8774)
(-258997 -225.247 -9286.76)
(-288689 -2784.36 -24804.5)
(-225036 -14752 -73391.5)
(-114161 -6495.4 -30481.2)
(-236750 5176.39 2883.4)
(-236890 5168.58 3044.98)
(-237076 5130.89 3140.95)
(-237331 5103.01 3269.14)
(-237657 5074.49 3390.93)
(-238060 5051.5 3506.13)
(-238543 5028.83 3605.38)
(-239107 5008.76 3675.65)
(-239752 4995.66 3701.95)
(-240476 4991.79 3665.81)
(-241267 4998.24 3542.96)
(-242107 5015.84 3305.34)
(-242966 5044.66 2922.41)
(-243800 5083.32 2364.42)
(-244555 5128.91 1606.03)
(-245162 5176.39 631.205)
(-245547 5219.47 -559.019)
(-245661 5254.68 -1933.54)
(-245502 5281.35 -3442.46)
(-245115 5297.91 -5051.57)
(-244432 5309.01 -6763.29)
(-243269 5307.54 -8535.47)
(-241491 5291.9 -10112.7)
(-239259 5253.24 -11075.4)
(-236979 5194.6 -11186.8)
(-234995 5116.59 -10561.2)
(-233457 5026.33 -9450.09)
(-232382 4933.28 -8088)
(-231722 4849.03 -6659.83)
(-231394 4787.11 -5276.27)
(-231320 4752.74 -3992.85)
(-231434 4745.95 -2826.24)
(-231685 4762.03 -1774.29)
(-232037 4795.28 -828.105)
(-232475 4842.97 17.7232)
(-232971 4893.51 768.591)
(-233500 4931.77 1444.37)
(-234050 4954.18 2073.44)
(-234600 4958.35 2665.64)
(-235140 4941.65 3229.27)
(-235664 4903.73 3772.95)
(-236164 4846.86 4306.25)
(-236630 4775.62 4841.17)
(-237123 4699.77 5397.77)
(-237981 4640.98 5987.66)
(-240004 4606.71 6540.89)
(-243982 4591.84 6964.62)
(-248790 4624.88 7079.74)
(-250239 4731.52 6519.32)
(-248032 4900.76 3522.24)
(-257005 4364.56 -5946.94)
(-302844 -984.93 -21586.3)
(-359000 -19952.7 -80145.4)
(-271346 -14109.9 -20794.5)
(-222388 -2475.6 633.66)
(-222544 -2311.5 936.424)
(-222793 -2234.4 1063.93)
(-223086 -2133.13 1292.3)
(-223477 -2026.02 1530.51)
(-223934 -1914.51 1803.24)
(-224479 -1799.25 2098.8)
(-225116 -1680.15 2410.47)
(-225854 -1558.1 2726.7)
(-226698 -1436.38 3026.34)
(-227652 -1318.07 3276.04)
(-228711 -1207.54 3429.73)
(-229858 -1109.78 3428.25)
(-231056 -1029.7 3204.31)
(-232250 -971.824 2692.98)
(-233355 -937.331 1841.2)
(-234257 -926.72 616.011)
(-234827 -935.026 -967.83)
(-234934 -954.859 -2796.78)
(-234577 -985.158 -4752.74)
(-233680 -1038.88 -6846.08)
(-231870 -1114.72 -9137.25)
(-228733 -1222.77 -11319.3)
(-224523 -1358.96 -12608.4)
(-220284 -1504.06 -12490.7)
(-217021 -1650.12 -11278.4)
(-215060 -1808.86 -9622.83)
(-214265 -1991.42 -7927.57)
(-214318 -2196.28 -6398.89)
(-214885 -2417.71 -5098.39)
(-215701 -2648.66 -4028.03)
(-216576 -2882.39 -3162.3)
(-217388 -3114.74 -2473.14)
(-218066 -3337.24 -1925.71)
(-218557 -3531.66 -1496.06)
(-218986 -3706.87 -1176.55)
(-219368 -3871.43 -977.754)
(-219693 -4025.7 -900.359)
(-219972 -4165.23 -949.97)
(-220212 -4283.47 -1137.17)
(-220426 -4373.7 -1470.01)
(-220620 -4428.94 -1949.62)
(-220798 -4440.64 -2558.47)
(-221035 -4398.55 -3264.75)
(-221712 -4287.44 -4026.22)
(-223748 -4080.01 -4786.6)
(-228120 -3745.88 -5412.69)
(-233830 -3198.49 -5654.66)
(-237162 -2259.95 -5539.6)
(-239989 -758.523 -6767.22)
(-257658 993.582 -12216.7)
(-322934 2501.1 -17958.9)
(-431069 -9848.64 -28879.2)
(-317944 6255.67 -4499.3)
(-235171 5004.76 3040.47)
(-234762 5003.7 3324.71)
(-234613 4966.16 3457.32)
(-234440 4936.9 3677.08)
(-234350 4905.15 3908.58)
(-234307 4868.82 4167.48)
(-234324 4826.43 4449.75)
(-234405 4777.78 4745.42)
(-234555 4722.16 5039.21)
(-234782 4657.05 5308.64)
(-235089 4580.67 5520.48)
(-235475 4491.08 5629.45)
(-235932 4387.03 5578.58)
(-236438 4268.36 5304.51)
(-236959 4136.5 4746.2)
(-237440 3996.65 3853.94)
(-237800 3854.94 2601.62)
(-237944 3719.37 1008.43)
(-237827 3600.58 -836.747)
(-237444 3511.69 -2835.62)
(-236734 3453.91 -5015.28)
(-235344 3436.93 -7447.79)
(-232864 3467.35 -9870.66)
(-229462 3557.82 -11540.9)
(-225968 3708.74 -11877.8)
(-223134 3887.22 -11082.4)
(-221189 4048.41 -9753.98)
(-220058 4163.29 -8292.87)
(-219553 4218.04 -6937.03)
(-219476 4211.65 -5779.49)
(-219679 4149.72 -4843.43)
(-220064 4039.77 -4115.88)
(-220577 3889.19 -3567.43)
(-221195 3705.01 -3162.91)
(-221924 3504.82 -2871.37)
(-222773 3297.99 -2686.64)
(-223790 3084.54 -2589.86)
(-225007 2861.28 -2577.04)
(-226480 2630.81 -2649.78)
(-228263 2398.12 -2806.79)
(-230425 2169.59 -3048.39)
(-233032 1953.42 -3372.7)
(-236142 1761.79 -3771.88)
(-239872 1612.37 -4227.96)
(-244627 1531.18 -4743.01)
(-251363 1558.6 -5358.56)
(-261050 1755.55 -6062.72)
(-272727 2241.44 -6763.82)
(-282308 3203.42 -7492.26)
(-290930 4807.59 -9265.82)
(-319992 6336.08 -15421.7)
(-421701 9364.3 -27564.2)
(-619131 -5552.78 -22120.8)
(-533197 -410.555 4742.26)
(-231556 -2272 1336.75)
(-231647 -2126.12 1957.61)
(-231971 -2064.87 2290.22)
(-232340 -1990.78 2727.39)
(-232857 -1921.75 3172.54)
(-233490 -1857.54 3639.23)