/*--------------------------------*- C++ -*----------------------------------*\
| =========                 |                                                 |
| \\      /  F ield         | OpenFOAM: The Open Source CFD Toolbox           |
|  \\    /   O peration     | Version:  4.1                                   |
|   \\  /    A nd           | Web:      www.OpenFOAM.org                      |
|    \\/     M anipulation  |                                                 |
\*---------------------------------------------------------------------------*/
FoamFile
{
    version     2.0;
    format      ascii;
    class       volScalarField;
    location    "81";
    object      p;
}
// * * * * * * * * * * * * * * * * * * * * * * * * * * * * * * * * * * * * * //

dimensions      [0 2 -2 0 0 0 0];

internalField   nonuniform List<scalar> 
4432
(
-3.88721e+10
-3.89222e+10
-3.91606e+10
-3.91669e+10
-3.92097e+10
-3.93003e+10
-3.93721e+10
-3.94371e+10
-3.94952e+10
-3.95487e+10
-3.9599e+10
-3.96445e+10
-3.96811e+10
-3.97047e+10
-3.97127e+10
-3.97027e+10
-3.967e+10
-3.96115e+10
-3.9527e+10
-3.94174e+10
-3.92848e+10
-3.91331e+10
-3.89674e+10
-3.87943e+10
-3.86197e+10
-3.8449e+10
-3.82855e+10
-3.81313e+10
-3.79868e+10
-3.78528e+10
-3.77302e+10
-3.76222e+10
-3.75331e+10
-3.74678e+10
-3.74294e+10
-3.74168e+10
-3.74231e+10
-3.7436e+10
-3.74391e+10
-3.74169e+10
-3.73575e+10
-3.72557e+10
-3.71173e+10
-3.69828e+10
-3.6971e+10
-3.7264e+10
-3.78583e+10
-3.80996e+10
-3.68008e+10
-3.43276e+10
-3.55853e+10
-4.6421e+10
-5.7058e+10
-2.85462e+10
-3.89957e+10
-3.89644e+10
-3.90966e+10
-3.91916e+10
-3.92289e+10
-3.93051e+10
-3.93804e+10
-3.94432e+10
-3.94984e+10
-3.95513e+10
-3.9602e+10
-3.96479e+10
-3.96843e+10
-3.97078e+10
-3.97158e+10
-3.97047e+10
-3.96699e+10
-3.96089e+10
-3.95221e+10
-3.941e+10
-3.92749e+10
-3.91205e+10
-3.89522e+10
-3.87764e+10
-3.85992e+10
-3.8426e+10
-3.82599e+10
-3.81033e+10
-3.79564e+10
-3.782e+10
-3.76952e+10
-3.75846e+10
-3.74928e+10
-3.74243e+10
-3.73825e+10
-3.73665e+10
-3.73696e+10
-3.73793e+10
-3.73791e+10
-3.7353e+10
-3.72895e+10
-3.71838e+10
-3.70427e+10
-3.69077e+10
-3.68997e+10
-3.72053e+10
-3.78182e+10
-3.80294e+10
-3.64554e+10
-3.31123e+10
-3.29842e+10
-4.42051e+10
-5.8836e+10
-3.40218e+10
-3.90893e+10
-3.90553e+10
-3.91269e+10
-3.92423e+10
-3.9287e+10
-3.9344e+10
-3.94242e+10
-3.9493e+10
-3.95555e+10
-3.96166e+10
-3.96749e+10
-3.97307e+10
-3.97786e+10
-3.98114e+10
-3.98248e+10
-3.98171e+10
-3.97852e+10
-3.97257e+10
-3.96383e+10
-3.95232e+10
-3.93821e+10
-3.9219e+10
-3.90394e+10
-3.88512e+10
-3.86614e+10
-3.84772e+10
-3.83023e+10
-3.81398e+10
-3.79901e+10
-3.78538e+10
-3.77315e+10
-3.76253e+10
-3.75394e+10
-3.74778e+10
-3.74431e+10
-3.74343e+10
-3.74446e+10
-3.74615e+10
-3.74679e+10
-3.74474e+10
-3.73874e+10
-3.72815e+10
-3.7134e+10
-3.69854e+10
-3.6964e+10
-3.72671e+10
-3.78607e+10
-3.79132e+10
-3.59639e+10
-3.24667e+10
-3.33483e+10
-4.6172e+10
-6.09307e+10
-3.7149e+10
-3.90819e+10
-3.90834e+10
-3.91639e+10
-3.92417e+10
-3.92903e+10
-3.93501e+10
-3.94302e+10
-3.94969e+10
-3.95592e+10
-3.96199e+10
-3.96792e+10
-3.97357e+10
-3.97834e+10
-3.98152e+10
-3.98277e+10
-3.98199e+10
-3.97876e+10
-3.97268e+10
-3.96381e+10
-3.95213e+10
-3.93782e+10
-3.92126e+10
-3.90304e+10
-3.88393e+10
-3.86466e+10
-3.84595e+10
-3.82817e+10
-3.81164e+10
-3.79639e+10
-3.7825e+10
-3.77002e+10
-3.75916e+10
-3.7503e+10
-3.74383e+10
-3.74005e+10
-3.73883e+10
-3.73949e+10
-3.74079e+10
-3.74102e+10
-3.73857e+10
-3.73223e+10
-3.72134e+10
-3.70631e+10
-3.69122e+10
-3.68915e+10
-3.72023e+10
-3.78031e+10
-3.77995e+10
-3.55933e+10
-3.17773e+10
-3.35111e+10
-4.9006e+10
-6.17093e+10
-3.0002e+10
-3.92168e+10
-3.92321e+10
-3.91911e+10
-3.9277e+10
-3.93302e+10
-3.93789e+10
-3.94421e+10
-3.95076e+10
-3.95721e+10
-3.96349e+10
-3.96956e+10
-3.97547e+10
-3.98059e+10
-3.98407e+10
-3.98552e+10
-3.98486e+10
-3.98202e+10
-3.97669e+10
-3.96861e+10
-3.95763e+10
-3.94376e+10
-3.92728e+10
-3.90877e+10
-3.88904e+10
-3.86895e+10
-3.8493e+10
-3.83063e+10
-3.81326e+10
-3.79731e+10
-3.78285e+10
-3.76997e+10
-3.7588e+10
-3.74958e+10
-3.74264e+10
-3.73818e+10
-3.73605e+10
-3.73564e+10
-3.7358e+10
-3.73507e+10
-3.73203e+10
-3.72549e+10
-3.71456e+10
-3.6993e+10
-3.68402e+10
-3.68372e+10
-3.72263e+10
-3.79911e+10
-3.81967e+10
-3.61808e+10
-3.24629e+10
-3.35402e+10
-4.67674e+10
-5.95805e+10
-3.04061e+10
-3.91681e+10
-3.92243e+10
-3.92484e+10
-3.92727e+10
-3.93232e+10
-3.93831e+10
-3.9449e+10
-3.95134e+10
-3.95799e+10
-3.96448e+10
-3.97082e+10
-3.97697e+10
-3.98233e+10
-3.98607e+10
-3.98778e+10
-3.98741e+10
-3.98471e+10
-3.97939e+10
-3.97121e+10
-3.95999e+10
-3.94574e+10
-3.92875e+10
-3.90963e+10
-3.88922e+10
-3.86842e+10
-3.84808e+10
-3.82878e+10
-3.81087e+10
-3.79447e+10
-3.77966e+10
-3.76651e+10
-3.7552e+10
-3.74599e+10
-3.7392e+10
-3.73504e+10
-3.73335e+10
-3.73348e+10
-3.73425e+10
-3.73416e+10
-3.7317e+10
-3.72562e+10
-3.71505e+10
-3.70012e+10
-3.68514e+10
-3.68497e+10
-3.7232e+10
-3.7957e+10
-3.7998e+10
-3.55086e+10
-3.09607e+10
-3.14877e+10
-4.5651e+10
-6.09843e+10
-3.3064e+10
-3.91947e+10
-3.92383e+10
-3.92599e+10
-3.9284e+10
-3.93415e+10
-3.94046e+10
-3.94698e+10
-3.95369e+10
-3.96075e+10
-3.96801e+10
-3.97539e+10
-3.98285e+10
-3.98976e+10
-3.99533e+10
-3.99899e+10
-4.0003e+10
-3.99876e+10
-3.99412e+10
-3.98619e+10
-3.97482e+10
-3.95993e+10
-3.94174e+10
-3.92091e+10
-3.89848e+10
-3.87564e+10
-3.85343e+10
-3.83262e+10
-3.81359e+10
-3.79655e+10
-3.78158e+10
-3.76876e+10
-3.75815e+10
-3.74983e+10
-3.74409e+10
-3.74113e+10
-3.74065e+10
-3.74192e+10
-3.74371e+10
-3.74444e+10
-3.74254e+10
-3.73659e+10
-3.72523e+10
-3.70782e+10
-3.68778e+10
-3.67999e+10
-3.70994e+10
-3.77896e+10
-3.79605e+10
-3.58863e+10
-3.18097e+10
-3.20937e+10
-4.54957e+10
-6.32027e+10
-4.09496e+10
-3.92104e+10
-3.92615e+10
-3.928e+10
-3.92882e+10
-3.9342e+10
-3.94133e+10
-3.94801e+10
-3.95481e+10
-3.96216e+10
-3.96966e+10
-3.97731e+10
-3.98496e+10
-3.99202e+10
-3.99773e+10
-4.00153e+10
-4.00295e+10
-4.0015e+10
-3.99686e+10
-3.98883e+10
-3.9772e+10
-3.96192e+10
-3.94321e+10
-3.92176e+10
-3.89863e+10
-3.87504e+10
-3.85211e+10
-3.83064e+10
-3.81108e+10
-3.79363e+10
-3.77836e+10
-3.76536e+10
-3.75475e+10
-3.7467e+10
-3.74143e+10
-3.739e+10
-3.73914e+10
-3.74107e+10
-3.74342e+10
-3.74457e+10
-3.7429e+10
-3.73693e+10
-3.7254e+10
-3.70789e+10
-3.68837e+10
-3.68233e+10
-3.71567e+10
-3.78789e+10
-3.80011e+10
-3.57202e+10
-3.16713e+10
-3.34758e+10
-4.94564e+10
-6.29467e+10
-3.13881e+10
-3.92087e+10
-3.92361e+10
-3.92669e+10
-3.92823e+10
-3.93246e+10
-3.93828e+10
-3.94476e+10
-3.95152e+10
-3.95878e+10
-3.96663e+10
-3.97493e+10
-3.98332e+10
-3.9913e+10
-3.99818e+10
-4.00345e+10
-4.00649e+10
-4.00675e+10
-4.00379e+10
-3.99721e+10
-3.98659e+10
-3.97151e+10
-3.95201e+10
-3.92874e+10
-3.90302e+10
-3.87644e+10
-3.85045e+10
-3.82606e+10
-3.80388e+10
-3.78414e+10
-3.76694e+10
-3.75233e+10
-3.74036e+10
-3.73116e+10
-3.72499e+10
-3.72205e+10
-3.72214e+10
-3.72458e+10
-3.72816e+10
-3.73125e+10
-3.73214e+10
-3.72915e+10
-3.72064e+10
-3.70561e+10
-3.68736e+10
-3.68056e+10
-3.7108e+10
-3.78191e+10
-3.80971e+10
-3.62474e+10
-3.22703e+10
-3.18983e+10
-4.41303e+10
-6.22039e+10
-3.84048e+10
-3.92293e+10
-3.92663e+10
-3.9275e+10
-3.92843e+10
-3.93274e+10
-3.93891e+10
-3.94557e+10
-3.95257e+10
-3.95996e+10
-3.96782e+10
-3.97613e+10
-3.9845e+10
-3.99235e+10
-3.99905e+10
-4.00407e+10
-4.00687e+10
-4.00692e+10
-4.00382e+10
-3.99714e+10
-3.98643e+10
-3.97134e+10
-3.95188e+10
-3.92869e+10
-3.90307e+10
-3.87659e+10
-3.85068e+10
-3.82641e+10
-3.80436e+10
-3.78479e+10
-3.76778e+10
-3.75338e+10
-3.74168e+10
-3.73287e+10
-3.72715e+10
-3.72461e+10
-3.72502e+10
-3.72766e+10
-3.73125e+10
-3.73408e+10
-3.73438e+10
-3.73053e+10
-3.72095e+10
-3.7048e+10
-3.6857e+10
-3.67888e+10
-3.71053e+10
-3.78354e+10
-3.80869e+10
-3.61514e+10
-3.24334e+10
-3.36451e+10
-4.77972e+10
-6.19759e+10
-3.18978e+10
-3.92553e+10
-3.92714e+10
-3.92952e+10
-3.93209e+10
-3.93622e+10
-3.94196e+10
-3.94874e+10
-3.95605e+10
-3.96398e+10
-3.973e+10
-3.98308e+10
-3.99356e+10
-4.00391e+10
-4.01353e+10
-4.02171e+10
-4.02755e+10
-4.03019e+10
-4.02896e+10
-4.02338e+10
-4.01288e+10
-3.99676e+10
-3.97468e+10
-3.94739e+10
-3.91677e+10
-3.8852e+10
-3.85478e+10
-3.82696e+10
-3.80245e+10
-3.78144e+10
-3.76382e+10
-3.74939e+10
-3.73803e+10
-3.72978e+10
-3.72476e+10
-3.72299e+10
-3.72422e+10
-3.72774e+10
-3.73224e+10
-3.73602e+10
-3.73724e+10
-3.73409e+10
-3.72479e+10
-3.70836e+10
-3.68823e+10
-3.6792e+10
-3.70746e+10
-3.77961e+10
-3.81717e+10
-3.65573e+10
-3.30198e+10
-3.35268e+10
-4.604e+10
-5.94874e+10
-3.11805e+10
-3.92668e+10
-3.92881e+10
-3.93089e+10
-3.93323e+10
-3.93759e+10
-3.94316e+10
-3.94971e+10
-3.9571e+10
-3.96514e+10
-3.97411e+10
-3.98398e+10
-3.99431e+10
-4.00455e+10
-4.01412e+10
-4.02234e+10
-4.02829e+10
-4.03105e+10
-4.02989e+10
-4.02429e+10
-4.01373e+10
-3.99752e+10
-3.97533e+10
-3.9479e+10
-3.91714e+10
-3.88542e+10
-3.85487e+10
-3.82691e+10
-3.80228e+10
-3.78115e+10
-3.76338e+10
-3.7488e+10
-3.73727e+10
-3.72881e+10
-3.72352e+10
-3.72141e+10
-3.72223e+10
-3.72525e+10
-3.72924e+10
-3.73258e+10
-3.73352e+10
-3.73039e+10
-3.72164e+10
-3.70644e+10
-3.68835e+10
-3.68216e+10
-3.71375e+10
-3.78823e+10
-3.82296e+10
-3.64544e+10
-3.24908e+10
-3.22435e+10
-4.45401e+10
-5.98451e+10
-3.27055e+10
-3.923e+10
-3.92404e+10
-3.92568e+10
-3.9286e+10
-3.93298e+10
-3.93903e+10
-3.94623e+10
-3.95415e+10
-3.96301e+10
-3.97332e+10
-3.98496e+10
-3.99742e+10
-4.01015e+10
-4.02251e+10
-4.03356e+10
-4.04218e+10
-4.04721e+10
-4.04772e+10
-4.04318e+10
-4.03286e+10
-4.01561e+10
-3.9903e+10
-3.95748e+10
-3.91984e+10
-3.8811e+10
-3.84442e+10
-3.81177e+10
-3.78399e+10
-3.76107e+10
-3.74253e+10
-3.7278e+10
-3.71645e+10
-3.7083e+10
-3.70327e+10
-3.70126e+10
-3.70195e+10
-3.7046e+10
-3.70793e+10
-3.71019e+10
-3.70942e+10
-3.70366e+10
-3.69107e+10
-3.6706e+10
-3.64561e+10
-3.63068e+10
-3.65201e+10
-3.71702e+10
-3.74652e+10
-3.56393e+10
-3.1437e+10
-3.07822e+10
-4.34348e+10
-6.09086e+10
-3.47145e+10
-3.9227e+10
-3.92374e+10
-3.92575e+10
-3.92905e+10
-3.93357e+10
-3.93928e+10
-3.94621e+10
-3.95422e+10
-3.96336e+10
-3.97384e+10
-3.98559e+10
-3.99823e+10
-4.01121e+10
-4.02383e+10
-4.03514e+10
-4.04396e+10
-4.04911e+10
-4.04973e+10
-4.04534e+10
-4.03523e+10
-4.01814e+10
-3.99295e+10
-3.96018e+10
-3.92254e+10
-3.88377e+10
-3.84705e+10
-3.8144e+10
-3.78665e+10
-3.76379e+10
-3.74537e+10
-3.73083e+10
-3.71973e+10
-3.71186e+10
-3.70713e+10
-3.70547e+10
-3.70661e+10
-3.7099e+10
-3.71415e+10
-3.71771e+10
-3.71873e+10
-3.71546e+10
-3.70624e+10
-3.6903e+10
-3.67122e+10
-3.66371e+10
-3.69394e+10
-3.769e+10
-3.80863e+10
-3.62886e+10
-3.17251e+10
-2.97122e+10
-4.07265e+10
-5.98844e+10
-3.89516e+10
-3.92501e+10
-3.92535e+10
-3.92637e+10
-3.92914e+10
-3.93369e+10
-3.93974e+10
-3.94693e+10
-3.95523e+10
-3.96521e+10
-3.97728e+10
-3.99118e+10
-4.00659e+10
-4.02302e+10
-4.03964e+10
-4.05531e+10
-4.06855e+10
-4.07773e+10
-4.08166e+10
-4.07974e+10
-4.07142e+10
-4.05477e+10
-4.027e+10
-3.9876e+10
-3.94068e+10
-3.89277e+10
-3.84899e+10
-3.81193e+10
-3.78224e+10
-3.75932e+10
-3.74208e+10
-3.72938e+10
-3.72039e+10
-3.7146e+10
-3.71176e+10
-3.71172e+10
-3.71415e+10
-3.71838e+10
-3.72326e+10
-3.72728e+10
-3.72876e+10
-3.72599e+10
-3.71736e+10
-3.70215e+10
-3.68396e+10
-3.67754e+10
-3.70955e+10
-3.78864e+10
-3.83578e+10
-3.66657e+10
-3.23252e+10
-3.08981e+10
-4.21519e+10
-5.90386e+10
-3.31246e+10
-3.92546e+10
-3.92523e+10
-3.92692e+10
-3.93059e+10
-3.93538e+10
-3.94119e+10
-3.9484e+10
-3.95693e+10
-3.96703e+10
-3.97895e+10
-3.99258e+10
-4.00763e+10
-4.02359e+10
-4.03967e+10
-4.05476e+10
-4.06743e+10
-4.07611e+10
-4.07966e+10
-4.07761e+10
-4.06942e+10
-4.0532e+10
-4.02614e+10
-3.9876e+10
-3.94147e+10
-3.89408e+10
-3.85052e+10
-3.81348e+10
-3.78367e+10
-3.76057e+10
-3.74314e+10
-3.73028e+10
-3.72116e+10
-3.71529e+10
-3.71244e+10
-3.71249e+10
-3.71513e+10
-3.71971e+10
-3.72512e+10
-3.72989e+10
-3.73236e+10
-3.73082e+10
-3.72363e+10
-3.71004e+10
-3.69372e+10
-3.68977e+10
-3.72576e+10
-3.81251e+10
-3.87445e+10
-3.72891e+10
-3.32354e+10
-3.21794e+10
-4.36213e+10
-5.87144e+10
-3.01824e+10
-3.91528e+10
-3.91581e+10
-3.91705e+10
-3.92019e+10
-3.92553e+10
-3.93238e+10
-3.94051e+10
-3.95034e+10
-3.96242e+10
-3.97699e+10
-3.99397e+10
-4.01314e+10
-4.03395e+10
-4.05548e+10
-4.0764e+10
-4.09491e+10
-4.10885e+10
-4.11647e+10
-4.11723e+10
-4.11116e+10
-4.09564e+10
-4.06445e+10
-4.01379e+10
-3.94989e+10
-3.8853e+10
-3.82899e+10
-3.78414e+10
-3.75084e+10
-3.72733e+10
-3.71133e+10
-3.70077e+10
-3.69414e+10
-3.69054e+10
-3.68948e+10
-3.69071e+10
-3.69391e+10
-3.69852e+10
-3.70363e+10
-3.70798e+10
-3.71018e+10
-3.70889e+10
-3.70288e+10
-3.69184e+10
-3.67992e+10
-3.68285e+10
-3.72933e+10
-3.83131e+10
-3.91325e+10
-3.79494e+10
-3.44371e+10
-3.44464e+10
-4.65844e+10
-6.02069e+10
-3.07597e+10
-3.91692e+10
-3.91709e+10
-3.91882e+10
-3.9225e+10
-3.92763e+10
-3.93405e+10
-3.94209e+10
-3.95176e+10
-3.96334e+10
-3.97714e+10
-3.99323e+10
-4.01141e+10
-4.0312e+10
-4.05176e+10
-4.07189e+10
-4.08989e+10
-4.10365e+10
-4.11143e+10
-4.11263e+10
-4.10726e+10
-4.09284e+10
-4.06311e+10
-4.01411e+10
-3.95163e+10
-3.88795e+10
-3.83202e+10
-3.78717e+10
-3.75358e+10
-3.72961e+10
-3.71307e+10
-3.70196e+10
-3.69486e+10
-3.69091e+10
-3.68971e+10
-3.69103e+10
-3.69463e+10
-3.69999e+10
-3.70622e+10
-3.71203e+10
-3.71593e+10
-3.71635e+10
-3.71173e+10
-3.70123e+10
-3.68836e+10
-3.68817e+10
-3.72885e+10
-3.82242e+10
-3.89413e+10
-3.76256e+10
-3.38559e+10
-3.33812e+10
-4.55189e+10
-6.10389e+10
-3.49738e+10
-3.91678e+10
-3.91922e+10
-3.92171e+10
-3.92567e+10
-3.93148e+10
-3.93858e+10
-3.94682e+10
-3.95667e+10
-3.96848e+10
-3.98254e+10
-3.99923e+10
-4.01871e+10
-4.04078e+10
-4.06481e+10
-4.08966e+10
-4.11344e+10
-4.13349e+10
-4.14717e+10
-4.15377e+10
-4.15431e+10
-4.14666e+10
-4.11965e+10
-4.06125e+10
-3.97768e+10
-3.89189e+10
-3.82045e+10
-3.76724e+10
-3.73118e+10
-3.7083e+10
-3.6945e+10
-3.68651e+10
-3.68217e+10
-3.68026e+10
-3.68025e+10
-3.68187e+10
-3.68493e+10
-3.68904e+10
-3.69344e+10
-3.69704e+10
-3.69859e+10
-3.6967e+10
-3.68999e+10
-3.67778e+10
-3.66383e+10
-3.66366e+10
-3.70605e+10
-3.80295e+10
-3.87704e+10
-3.74056e+10
-3.34392e+10
-3.27124e+10
-4.52778e+10
-6.37949e+10
-4.1274e+10
-3.91671e+10
-3.91907e+10
-3.92137e+10
-3.92518e+10
-3.93056e+10
-3.93746e+10
-3.94562e+10
-3.9553e+10
-3.96688e+10
-3.98077e+10
-3.99735e+10
-4.01679e+10
-4.03889e+10
-4.06303e+10
-4.088e+10
-4.11186e+10
-4.13181e+10
-4.14525e+10
-4.15156e+10
-4.15199e+10
-4.14442e+10
-4.11765e+10
-4.05944e+10
-3.97559e+10
-3.88931e+10
-3.81757e+10
-3.76442e+10
-3.72874e+10
-3.70646e+10
-3.69337e+10
-3.6862e+10
-3.68273e+10
-3.68172e+10
-3.6826e+10
-3.68511e+10
-3.68905e+10
-3.69399e+10
-3.69909e+10
-3.70315e+10
-3.70481e+10
-3.70263e+10
-3.69506e+10
-3.68121e+10
-3.66452e+10
-3.66005e+10
-3.696e+10
-3.78383e+10
-3.84592e+10
-3.68954e+10
-3.23908e+10
-3.03251e+10
-4.17378e+10
-6.25624e+10
-4.18311e+10
-3.90803e+10
-3.91001e+10
-3.912e+10
-3.91493e+10
-3.91894e+10
-3.92395e+10
-3.93001e+10
-3.93758e+10
-3.94735e+10
-3.96027e+10
-3.97744e+10
-3.99983e+10
-4.02788e+10
-4.06126e+10
-4.09857e+10
-4.13701e+10
-4.17207e+10
-4.19868e+10
-4.21466e+10
-4.22314e+10
-4.22637e+10
-4.20938e+10
-4.14213e+10
-4.02244e+10
-3.8944e+10
-3.79907e+10
-3.73816e+10
-3.70322e+10
-3.68494e+10
-3.67661e+10
-3.67385e+10
-3.67403e+10
-3.67586e+10
-3.67891e+10
-3.68319e+10
-3.68874e+10
-3.69533e+10
-3.70235e+10
-3.70894e+10
-3.714e+10
-3.71626e+10
-3.7143e+10
-3.70725e+10
-3.69851e+10
-3.70318e+10
-3.74913e+10
-3.84619e+10
-3.91295e+10
-3.75314e+10
-3.29836e+10
-3.11094e+10
-4.2818e+10
-6.23546e+10
-3.80082e+10
-3.90822e+10
-3.90991e+10
-3.91164e+10
-3.91436e+10
-3.91836e+10
-3.92345e+10
-3.92948e+10
-3.93705e+10
-3.94681e+10
-3.95966e+10
-3.97665e+10
-3.99868e+10
-4.02615e+10
-4.05871e+10
-4.09494e+10
-4.13209e+10
-4.16573e+10
-4.1909e+10
-4.20562e+10
-4.21331e+10
-4.21628e+10
-4.20014e+10
-4.13528e+10
-4.01767e+10
-3.88988e+10
-3.79338e+10
-3.73075e+10
-3.69456e+10
-3.67572e+10
-3.66749e+10
-3.66532e+10
-3.66645e+10
-3.66945e+10
-3.67375e+10
-3.67922e+10
-3.68573e+10
-3.69285e+10
-3.69974e+10
-3.70532e+10
-3.70837e+10
-3.70763e+10
-3.70176e+10
-3.69021e+10
-3.67695e+10
-3.67798e+10
-3.7226e+10
-3.82265e+10
-3.89894e+10
-3.75527e+10
-3.31753e+10
-3.14406e+10
-4.30717e+10
-6.09855e+10
-3.45201e+10
-3.90318e+10
-3.90481e+10
-3.90725e+10
-3.91085e+10
-3.91555e+10
-3.92149e+10
-3.92891e+10
-3.93837e+10
-3.95087e+10
-3.9678e+10
-3.99076e+10
-4.02112e+10
-4.05942e+10
-4.10487e+10
-4.15506e+10
-4.20581e+10
-4.25069e+10
-4.28259e+10
-4.2984e+10
-4.30551e+10
-4.31801e+10
-4.32382e+10
-4.2544e+10
-4.06118e+10
-3.8365e+10
-3.7083e+10
-3.65036e+10
-3.62781e+10
-3.62454e+10
-3.63018e+10
-3.63901e+10
-3.64813e+10
-3.65655e+10
-3.66425e+10
-3.67165e+10
-3.67907e+10
-3.68649e+10
-3.69342e+10
-3.69905e+10
-3.70247e+10
-3.70267e+10
-3.69849e+10
-3.68955e+10
-3.6802e+10
-3.68682e+10
-3.73773e+10
-3.8408e+10
-3.91275e+10
-3.76812e+10
-3.37282e+10
-3.30493e+10
-4.48011e+10
-5.96293e+10
-3.14748e+10
-3.90328e+10
-3.90385e+10
-3.90602e+10
-3.90921e+10
-3.91364e+10
-3.91921e+10
-3.92622e+10
-3.93525e+10
-3.94725e+10
-3.96361e+10
-3.98588e+10
-4.01547e+10
-4.05303e+10
-4.09794e+10
-4.14803e+10
-4.19927e+10
-4.24531e+10
-4.27847e+10
-4.29518e+10
-4.30292e+10
-4.31533e+10
-4.32049e+10
-4.25448e+10
-4.06885e+10
-3.8492e+10
-3.7207e+10
-3.65809e+10
-3.63122e+10
-3.62455e+10
-3.62785e+10
-3.63533e+10
-3.64402e+10
-3.6528e+10
-3.66153e+10
-3.67042e+10
-3.67957e+10
-3.68871e+10
-3.69705e+10
-3.70343e+10
-3.70645e+10
-3.7046e+10
-3.6963e+10
-3.68088e+10
-3.66266e+10
-3.65854e+10
-3.69833e+10
-3.79245e+10
-3.8609e+10
-3.72055e+10
-3.34067e+10
-3.3155e+10
-4.53648e+10
-5.89056e+10
-3.00955e+10
-3.89719e+10
-3.89817e+10
-3.90029e+10
-3.9036e+10
-3.90785e+10
-3.91285e+10
-3.91858e+10
-3.92536e+10
-3.93412e+10
-3.94651e+10
-3.96486e+10
-3.99174e+10
-4.02913e+10
-4.07738e+10
-4.13472e+10
-4.19711e+10
-4.25718e+10
-4.30483e+10
-4.33461e+10
-4.35847e+10
-4.40881e+10
-4.48627e+10
-4.46141e+10
-4.15381e+10
-3.75886e+10
-3.59016e+10
-3.53338e+10
-3.52485e+10
-3.54123e+10
-3.56425e+10
-3.58627e+10
-3.60491e+10
-3.62021e+10
-3.63309e+10
-3.64445e+10
-3.65481e+10
-3.66413e+10
-3.67175e+10
-3.67652e+10
-3.67706e+10
-3.67188e+10
-3.65944e+10
-3.63932e+10
-3.61649e+10
-3.60843e+10
-3.64381e+10
-3.72811e+10
-3.7771e+10
-3.6227e+10
-3.27804e+10
-3.34605e+10
-4.61413e+10
-5.94316e+10
-2.97133e+10
-3.89625e+10
-3.8963e+10
-3.89822e+10
-3.90129e+10
-3.90539e+10
-3.91031e+10
-3.91607e+10
-3.92298e+10
-3.93198e+10
-3.94476e+10
-3.96362e+10
-3.99108e+10
-4.02908e+10
-4.07807e+10
-4.13643e+10
-4.20007e+10
-4.26151e+10
-4.31001e+10
-4.33835e+10
-4.35813e+10
-4.40057e+10
-4.4674e+10
-4.44594e+10
-4.16738e+10
-3.77585e+10
-3.60724e+10
-3.54697e+10
-3.5361e+10
-3.54997e+10
-3.5707e+10
-3.59095e+10
-3.60841e+10
-3.62306e+10
-3.63567e+10
-3.64709e+10
-3.65778e+10
-3.66761e+10
-3.67576e+10
-3.68093e+10
-3.6814e+10
-3.67533e+10
-3.66075e+10
-3.63677e+10
-3.60785e+10
-3.59111e+10
-3.61505e+10
-3.68504e+10
-3.71538e+10
-3.52933e+10
-3.10865e+10
-3.00996e+10
-4.15443e+10
-5.9085e+10
-3.54084e+10
-3.88301e+10
-3.88406e+10
-3.88555e+10
-3.88795e+10
-3.89094e+10
-3.89391e+10
-3.89647e+10
-3.89884e+10
-3.90247e+10
-3.91042e+10
-3.92746e+10
-3.95949e+10
-4.01184e+10
-4.08613e+10
-4.17918e+10
-4.28465e+10
-4.39068e+10
-4.4815e+10
-4.5499e+10
-4.61511e+10
-4.72181e+10
-4.87144e+10
-4.90893e+10
-4.48877e+10
-3.88078e+10
-3.46131e+10
-3.41745e+10
-3.45257e+10
-3.49886e+10
-3.53851e+10
-3.56986e+10
-3.5944e+10
-3.61418e+10
-3.63093e+10
-3.64602e+10
-3.66023e+10
-3.67363e+10
-3.68555e+10
-3.69472e+10
-3.69954e+10
-3.69823e+10
-3.68907e+10
-3.67143e+10
-3.65015e+10
-3.6424e+10
-3.67544e+10
-3.75155e+10
-3.7835e+10
-3.60749e+10
-3.24808e+10
-3.29452e+10
-4.50365e+10
-5.86005e+10
-2.99711e+10
-3.88226e+10
-3.88347e+10
-3.88497e+10
-3.88751e+10
-3.89075e+10
-3.89415e+10
-3.8973e+10
-3.90044e+10
-3.90503e+10
-3.91411e+10
-3.93229e+10
-3.96517e+10
-4.0176e+10
-4.09136e+10
-4.184e+10
-4.28834e+10
-4.39155e+10
-4.47577e+10
-4.52708e+10
-4.56535e+10
-4.64437e+10
-4.77869e+10
-4.83491e+10
-4.5314e+10
-3.94187e+10
-3.44465e+10
-3.40847e+10
-3.44985e+10
-3.49987e+10
-3.54133e+10
-3.57336e+10
-3.59799e+10
-3.6175e+10
-3.63372e+10
-3.64801e+10
-3.66115e+10
-3.67322e+10
-3.6836e+10
-3.69112e+10
-3.69428e+10
-3.69145e+10
-3.68101e+10
-3.66246e+10
-3.64066e+10
-3.6327e+10
-3.66544e+10
-3.73913e+10
-3.75938e+10
-3.54467e+10
-3.09046e+10
-2.97955e+10
-4.13708e+10
-5.88089e+10
-3.54237e+10
-3.87968e+10
-3.88236e+10
-3.88378e+10
-3.88605e+10
-3.88838e+10
-3.89003e+10
-3.89045e+10
-3.8901e+10
-3.89119e+10
-3.89802e+10
-3.91703e+10
-3.95593e+10
-4.02058e+10
-4.1092e+10
-4.21426e+10
-4.3262e+10
-4.43185e+10
-4.52008e+10
-4.591e+10
-4.66747e+10
-4.77916e+10
-4.92335e+10
-5.01783e+10
-4.84874e+10
-4.30069e+10
-2.86495e+10
-3.11038e+10
-3.31926e+10
-3.4364e+10
-3.5068e+10
-3.55241e+10
-3.58389e+10
-3.60713e+10
-3.62559e+10
-3.64142e+10
-3.65578e+10
-3.66896e+10
-3.68046e+10
-3.6892e+10
-3.69387e+10
-3.69306e+10
-3.68543e+10
-3.67078e+10
-3.65397e+10
-3.6516e+10
-3.68958e+10
-3.76809e+10
-3.79662e+10
-3.60582e+10
-3.21442e+10
-3.22756e+10
-4.50489e+10
-6.17998e+10
-3.8023e+10
-3.87735e+10
-3.88095e+10
-3.88193e+10
-3.8843e+10
-3.88695e+10
-3.88925e+10
-3.89059e+10
-3.89137e+10
-3.89369e+10
-3.90179e+10
-3.92195e+10
-3.96127e+10
-4.0247e+10
-4.11187e+10
-4.21726e+10
-4.33054e+10
-4.43725e+10
-4.52192e+10
-4.57394e+10
-4.61683e+10
-4.71949e+10
-4.90498e+10
-5.01084e+10
-4.87967e+10
-4.58618e+10
-2.85577e+10
-3.09402e+10
-3.30879e+10
-3.43155e+10
-3.50553e+10
-3.5533e+10
-3.58589e+10
-3.60946e+10
-3.62766e+10
-3.64268e+10
-3.65567e+10
-3.66687e+10
-3.67578e+10
-3.68139e+10
-3.68247e+10
-3.67782e+10
-3.66638e+10
-3.64827e+10
-3.62876e+10
-3.62484e+10
-3.66253e+10
-3.74017e+10
-3.75887e+10
-3.53843e+10
-3.13469e+10
-3.29951e+10
-4.86611e+10
-6.17959e+10
-3.02022e+10
-3.87564e+10
-3.87732e+10
-3.87846e+10
-3.8802e+10
-3.88202e+10
-3.88318e+10
-3.88318e+10
-3.88256e+10
-3.8837e+10
-3.89102e+10
-3.91098e+10
-3.95167e+10
-4.01814e+10
-4.10711e+10
-4.21248e+10
-4.32479e+10
-4.43127e+10
-4.52081e+10
-4.59202e+10
-4.67375e+10
-4.80548e+10
-4.94753e+10
-4.90933e+10
-4.39598e+10
-2.19959e+10
-3.06219e+10
-3.28725e+10
-3.41808e+10
-3.49776e+10
-3.54909e+10
-3.58394e+10
-3.60892e+10
-3.62794e+10
-3.64332e+10
-3.65626e+10
-3.66705e+10
-3.67524e+10
-3.67983e+10
-3.67971e+10
-3.67378e+10
-3.66113e+10
-3.64197e+10
-3.62129e+10
-3.61515e+10
-3.64888e+10
-3.72439e+10
-3.75612e+10
-3.57729e+10
-3.19574e+10
-3.18857e+10
-4.42722e+10
-6.246e+10
-4.19525e+10
-3.87423e+10
-3.87639e+10
-3.87724e+10
-3.87912e+10
-3.8813e+10
-3.88307e+10
-3.88389e+10
-3.88418e+10
-3.88616e+10
-3.89422e+10
-3.91487e+10
-3.95547e+10
-4.02082e+10
-4.10958e+10
-4.21574e+10
-4.32906e+10
-4.43453e+10
-4.51644e+10
-4.56884e+10
-4.62043e+10
-4.7242e+10
-4.90341e+10
-5.05581e+10
-4.96141e+10
-2.27955e+10
-3.05661e+10
-3.27902e+10
-3.41117e+10
-3.49225e+10
-3.54449e+10
-3.57981e+10
-3.60492e+10
-3.62389e+10
-3.63911e+10
-3.65187e+10
-3.66249e+10
-3.6705e+10
-3.67487e+10
-3.67444e+10
-3.66814e+10
-3.65505e+10
-3.63535e+10
-3.61405e+10
-3.60726e+10
-3.6405e+10
-3.71467e+10
-3.73972e+10
-3.547e+10
-3.18527e+10
-3.3418e+10
-4.79842e+10
-6.17619e+10
-3.13303e+10
-3.87857e+10
-3.87887e+10
-3.88053e+10
-3.88268e+10
-3.8853e+10
-3.88752e+10
-3.88884e+10
-3.88966e+10
-3.89205e+10
-3.89984e+10
-3.91862e+10
-3.95569e+10
-4.01665e+10
-4.10005e+10
-4.20052e+10
-4.30828e+10
-4.41052e+10
-4.49697e+10
-4.56236e+10
-4.62182e+10
-4.70635e+10
-4.82451e+10
-4.91516e+10
-4.75147e+10
-3.70509e+10
-3.31552e+10
-3.31902e+10
-3.39436e+10
-3.46782e+10
-3.52348e+10
-3.56369e+10
-3.59296e+10
-3.61506e+10
-3.63264e+10
-3.64748e+10
-3.66051e+10
-3.67189e+10
-3.68114e+10
-3.68732e+10
-3.68935e+10
-3.68623e+10
-3.67704e+10
-3.66185e+10
-3.64494e+10
-3.64093e+10
-3.67388e+10
-3.74737e+10
-3.78366e+10
-3.62735e+10
-3.29813e+10
-3.38507e+10
-4.64321e+10
-5.91258e+10
-3.08351e+10
-3.88015e+10
-3.88111e+10
-3.88232e+10
-3.88448e+10
-3.88728e+10
-3.89006e+10
-3.8923e+10
-3.89427e+10
-3.89772e+10
-3.90625e+10
-3.92525e+10
-3.96102e+10
-4.01805e+10
-4.096e+10
-4.19039e+10
-4.29231e+10
-4.38777e+10
-4.461e+10
-4.51544e+10
-4.57975e+10
-4.67695e+10
-4.8088e+10
-4.84785e+10
-4.69636e+10
-3.81002e+10
-3.29369e+10
-3.29607e+10
-3.37753e+10
-3.45633e+10
-3.51517e+10
-3.55684e+10
-3.58663e+10
-3.60881e+10
-3.62633e+10
-3.64111e+10
-3.65422e+10
-3.66588e+10
-3.67562e+10
-3.68249e+10
-3.68534e+10
-3.68304e+10
-3.67465e+10
-3.6601e+10
-3.64363e+10
-3.63965e+10
-3.67187e+10
-3.74319e+10
-3.77418e+10
-3.60224e+10
-3.22178e+10
-3.19653e+10
-4.38665e+10
-5.8723e+10
-3.14188e+10
-3.89445e+10
-3.89505e+10
-3.89709e+10
-3.90018e+10
-3.90432e+10
-3.90912e+10
-3.91428e+10
-3.91999e+10
-3.92738e+10
-3.93868e+10
-3.95711e+10
-3.98648e+10
-4.02956e+10
-4.08622e+10
-4.15349e+10
-4.22499e+10
-4.29115e+10
-4.34157e+10
-4.36953e+10
-4.38238e+10
-4.40595e+10
-4.45504e+10
-4.43946e+10
-4.1368e+10
-3.78279e+10
-3.6048e+10
-3.53748e+10
-3.525e+10
-3.54007e+10
-3.56188e+10
-3.58292e+10
-3.60079e+10
-3.61565e+10
-3.62822e+10
-3.63927e+10
-3.64932e+10
-3.6584e+10
-3.66598e+10
-3.67118e+10
-3.67296e+10
-3.67033e+10
-3.66231e+10
-3.64861e+10
-3.6327e+10
-3.62775e+10
-3.6562e+10
-3.7221e+10
-3.75236e+10
-3.59534e+10
-3.25401e+10
-3.28116e+10
-4.4792e+10
-5.91205e+10
-2.99724e+10
-3.89358e+10
-3.89419e+10
-3.89594e+10
-3.89878e+10
-3.90271e+10
-3.90741e+10
-3.91263e+10
-3.91863e+10
-3.92651e+10
-3.93847e+10
-3.95765e+10
-3.9875e+10
-4.03026e+10
-4.0856e+10
-4.15027e+10
-4.21782e+10
-4.27853e+10
-4.32198e+10
-4.34633e+10
-4.36637e+10
-4.40698e+10
-4.46805e+10
-4.43894e+10
-4.1466e+10
-3.77689e+10
-3.5869e+10
-3.51882e+10
-3.50997e+10
-3.52922e+10
-3.55413e+10
-3.57718e+10
-3.59631e+10
-3.61202e+10
-3.62528e+10
-3.637e+10
-3.64777e+10
-3.65762e+10
-3.66606e+10
-3.67218e+10
-3.67488e+10
-3.6731e+10
-3.66588e+10
-3.65303e+10
-3.63818e+10
-3.63445e+10
-3.66408e+10
-3.73107e+10
-3.7619e+10
-3.59314e+10
-3.17481e+10
-2.9782e+10
-3.96261e+10
-5.76265e+10
-3.35205e+10
-3.90455e+10
-3.90513e+10
-3.90708e+10
-3.91027e+10
-3.91476e+10
-3.92054e+10
-3.9277e+10
-3.93667e+10
-3.94829e+10
-3.964e+10
-3.9856e+10
-4.01485e+10
-4.05257e+10
-4.0979e+10
-4.14803e+10
-4.19817e+10
-4.24184e+10
-4.27238e+10
-4.28609e+10
-4.28666e+10
-4.28512e+10
-4.27464e+10
-4.19684e+10
-4.00809e+10
-3.8024e+10
-3.68062e+10
-3.62111e+10
-3.59748e+10
-3.59598e+10
-3.60472e+10
-3.61701e+10
-3.6294e+10
-3.64075e+10
-3.65105e+10
-3.66057e+10
-3.66947e+10
-3.67754e+10
-3.68411e+10
-3.68817e+10
-3.6886e+10
-3.68429e+10
-3.67429e+10
-3.65837e+10
-3.64018e+10
-3.63306e+10
-3.65993e+10
-3.72607e+10
-3.76069e+10
-3.61464e+10
-3.29336e+10
-3.34925e+10
-4.56571e+10
-5.97867e+10
-3.28139e+10
-3.90421e+10
-3.90463e+10
-3.90658e+10
-3.90954e+10
-3.91376e+10
-3.91921e+10
-3.92604e+10
-3.93472e+10
-3.94622e+10
-3.96206e+10
-3.98413e+10
-4.01423e+10
-4.05319e+10
-4.10013e+10
-4.15217e+10
-4.20424e+10
-4.24934e+10
-4.2805e+10
-4.29516e+10
-4.29929e+10
-4.30343e+10
-4.29533e+10
-4.21215e+10
-4.01201e+10
-3.7936e+10
-3.66687e+10
-3.60797e+10
-3.58626e+10
-3.58649e+10
-3.59634e+10
-3.60923e+10
-3.62198e+10
-3.63364e+10
-3.64431e+10
-3.65433e+10
-3.66389e+10
-3.67278e+10
-3.6803e+10
-3.68543e+10
-3.68701e+10
-3.68394e+10
-3.67524e+10
-3.66074e+10
-3.64404e+10
-3.6383e+10
-3.66602e+10
-3.73194e+10
-3.76309e+10
-3.59896e+10
-3.21778e+10
-3.17398e+10
-4.39194e+10
-5.96254e+10
-3.09601e+10
-3.91551e+10
-3.91609e+10
-3.91804e+10
-3.92092e+10
-3.92489e+10
-3.93e+10
-3.93651e+10
-3.94486e+10
-3.95581e+10
-3.97036e+10
-3.98965e+10
-4.01462e+10
-4.04552e+10
-4.0815e+10
-4.12038e+10
-4.15865e+10
-4.19169e+10
-4.21497e+10
-4.22635e+10
-4.228e+10
-4.22136e+10
-4.19189e+10
-4.10984e+10
-3.97644e+10
-3.84093e+10
-3.74383e+10
-3.68534e+10
-3.65459e+10
-3.64161e+10
-3.63878e+10
-3.64119e+10
-3.64596e+10
-3.65167e+10
-3.65785e+10
-3.66436e+10
-3.67093e+10
-3.67697e+10
-3.68149e+10
-3.68315e+10
-3.68053e+10
-3.67234e+10
-3.6575e+10
-3.63597e+10
-3.61203e+10
-3.60028e+10
-3.6252e+10
-3.69209e+10
-3.72564e+10
-3.56763e+10
-3.21475e+10
-3.22581e+10
-4.50116e+10
-6.35326e+10
-4.26059e+10
-3.91613e+10
-3.91687e+10
-3.9189e+10
-3.92176e+10
-3.92565e+10
-3.9306e+10
-3.93684e+10
-3.9448e+10
-3.95522e+10
-3.96911e+10
-3.98763e+10
-4.01176e+10
-4.04185e+10
-4.07722e+10
-4.11595e+10
-4.15471e+10
-4.18883e+10
-4.21348e+10
-4.22667e+10
-4.23101e+10
-4.22744e+10
-4.1999e+10
-4.1178e+10
-3.98198e+10
-3.84325e+10
-3.7448e+10
-3.68618e+10
-3.65532e+10
-3.64192e+10
-3.63841e+10
-3.64002e+10
-3.64403e+10
-3.64915e+10
-3.65492e+10
-3.66121e+10
-3.66778e+10
-3.67409e+10
-3.67919e+10
-3.68184e+10
-3.68075e+10
-3.6747e+10
-3.66266e+10
-3.64447e+10
-3.62395e+10
-3.61489e+10
-3.64062e+10
-3.70417e+10
-3.72421e+10
-3.53583e+10
-3.16733e+10
-3.30564e+10
-4.83951e+10
-6.34377e+10
-3.23285e+10
-3.92457e+10
-3.92551e+10
-3.9276e+10
-3.93075e+10
-3.93499e+10
-3.94037e+10
-3.9471e+10
-3.9555e+10
-3.96606e+10
-3.97936e+10
-3.99594e+10
-4.01609e+10
-4.03959e+10
-4.06558e+10
-4.09244e+10
-4.11773e+10
-4.13831e+10
-4.15134e+10
-4.15592e+10
-4.15325e+10
-4.1416e+10
-4.11003e+10
-4.04603e+10
-3.95639e+10
-3.86539e+10
-3.79092e+10
-3.73727e+10
-3.70223e+10
-3.68099e+10
-3.66897e+10
-3.66277e+10
-3.66018e+10
-3.65998e+10
-3.66157e+10
-3.66462e+10
-3.6687e+10
-3.67303e+10
-3.67642e+10
-3.67738e+10
-3.67433e+10
-3.66578e+10
-3.65048e+10
-3.6283e+10
-3.60382e+10
-3.59249e+10
-3.61966e+10
-3.68927e+10
-3.7189e+10
-3.53538e+10
-3.11436e+10
-3.01441e+10
-4.22562e+10
-6.32341e+10
-4.57013e+10
-3.92537e+10
-3.92681e+10
-3.92913e+10
-3.93259e+10
-3.93715e+10
-3.94287e+10
-3.94991e+10
-3.95854e+10
-3.96921e+10
-3.98243e+10
-3.99867e+10
-4.01817e+10
-4.04072e+10
-4.06553e+10
-4.09106e+10
-4.11503e+10
-4.13447e+10
-4.14669e+10
-4.15093e+10
-4.14842e+10
-4.13746e+10
-4.1074e+10
-4.04619e+10
-3.95984e+10
-3.87155e+10
-3.79893e+10
-3.74626e+10
-3.71148e+10
-3.69003e+10
-3.67758e+10
-3.67086e+10
-3.66775e+10
-3.66707e+10
-3.66824e+10
-3.67095e+10
-3.6748e+10
-3.67903e+10
-3.68254e+10
-3.684e+10
-3.682e+10
-3.67526e+10
-3.66265e+10
-3.644e+10
-3.62347e+10
-3.61566e+10
-3.6447e+10
-3.71127e+10
-3.72442e+10
-3.50777e+10