/*--------------------------------*- C++ -*----------------------------------*\
| =========                 |                                                 |
| \\      /  F ield         | OpenFOAM: The Open Source CFD Toolbox           |
|  \\    /   O peration     | Version:  4.1                                   |
|   \\  /    A nd           | Web:      www.OpenFOAM.org                      |
|    \\/     M anipulation  |                                                 |
\*---------------------------------------------------------------------------*/
FoamFile
{
    version     2.0;
    format      ascii;
    class       volVectorField;
    location    "81";
    object      U;
}
// * * * * * * * * * * * * * * * * * * * * * * * * * * * * * * * * * * * * * //

dimensions      [0 1 -1 0 0 0 0];

internalField   nonuniform List<vector> 
4432
(
(39.9817 2.25934e-05 0.0501021)
(39.9187 0.000120993 0.0894363)
(39.822 0.000217993 0.11728)
(39.6888 0.000241543 0.144182)
(39.5187 0.00023465 0.172416)
(39.3128 0.000281556 0.202202)
(39.0702 0.000368106 0.233802)
(38.7895 0.00043987 0.266671)
(38.4686 0.00048663 0.300753)
(38.1069 0.000503301 0.335438)
(37.7047 0.000510972 0.368846)
(37.2637 0.000573392 0.40146)
(36.7877 0.000403892 0.426953)
(36.2936 0.000333486 0.445307)
(35.7854 -0.00252818 0.437166)
(35.3787 -0.00672782 0.382376)
(35.0374 -0.00557876 0.424441)
(34.9109 -0.00296878 0.335844)
(34.9953 -0.00131873 0.247742)
(34.969 0.0022913 0.38759)
(34.7327 -0.00121703 0.491084)
(34.3704 -0.0113413 0.618759)
(33.898 -0.0219394 0.698058)
(33.356 -0.0309759 0.692041)
(32.7467 -0.037944 0.678261)
(32.0958 -0.0435561 0.557551)
(31.4895 -0.0400553 0.36285)
(30.9552 -0.0263975 0.157719)
(30.5283 -0.018375 0.0825984)
(30.1898 -0.0246653 0.11348)
(29.8798 -0.0442875 0.266349)
(29.5046 -0.0676593 0.55436)
(28.9771 -0.0763381 0.699249)
(28.3717 -0.0526435 0.370437)
(27.9192 -0.0122176 -0.365881)
(27.6105 0.0162933 -0.760437)
(27.3665 0.0253722 -0.698234)
(27.0639 0.0203244 -0.600777)
(26.754 0.0153765 -0.50205)
(26.5358 0.013926 -0.401592)
(26.4442 0.0131228 -0.391558)
(26.3992 0.0169762 -0.482527)
(26.3647 0.0200757 -0.462397)
(26.3306 0.0276644 -0.424025)
(26.3306 0.0362989 -0.42021)
(26.3719 0.0380306 -0.423159)
(26.4586 0.0304386 -0.415672)
(26.5781 0.0234605 -0.407412)
(26.6989 0.0371706 -0.386918)
(26.8495 0.0588616 -0.403728)
(27.1177 0.0528317 -0.284751)
(27.3937 0.0249264 -0.197303)
(27.5596 0.00811948 -0.244623)
(27.8259 0.0373195 -0.0470507)
(39.9817 2.25912e-05 0.0501069)
(39.9187 0.000121001 0.0894512)
(39.822 0.000217976 0.117377)
(39.6887 0.000241555 0.144247)
(39.5187 0.000234537 0.172388)
(39.3128 0.000281243 0.202187)
(39.0702 0.000367611 0.233697)
(38.7895 0.000439453 0.266497)
(38.4686 0.000485802 0.300578)
(38.107 0.000501814 0.33512)
(37.7047 0.000509446 0.368758)
(37.2637 0.000571889 0.401217)
(36.7879 0.000403005 0.427898)
(36.2883 0.000330878 0.445601)
(35.7829 -0.00251179 0.444309)
(35.327 -0.006796 0.392833)
(34.9794 -0.00565627 0.374723)
(34.8937 -0.00299965 0.291673)
(34.9831 -0.00130391 0.239657)
(34.9868 0.0021931 0.399218)
(34.7534 -0.0013305 0.477813)
(34.3891 -0.0114131 0.536653)
(33.9277 -0.0220582 0.580524)
(33.383 -0.0313861 0.576376)
(32.7556 -0.0387587 0.568782)
(32.0706 -0.0453109 0.437917)
(31.4094 -0.0435152 0.256644)
(30.8337 -0.0306132 0.13179)
(30.3518 -0.0231047 0.056189)
(29.9376 -0.031348 -0.040185)
(29.6281 -0.0523717 -0.155744)
(29.3267 -0.0810268 -0.159071)
(28.9399 -0.0937489 0.0472406)
(28.3819 -0.0723714 0.236538)
(27.8742 -0.0273264 0.0109938)
(27.429 0.00439813 -0.26747)
(27.0837 0.0165858 -0.232546)
(26.7077 0.0130625 -0.257048)
(26.3639 0.00995782 -0.24192)
(26.0842 0.014355 -0.193747)
(25.9396 0.0167302 -0.170254)
(25.842 0.0212665 -0.20239)
(25.7667 0.0256139 -0.175595)
(25.704 0.0339357 -0.172587)
(25.6921 0.0439482 -0.183746)
(25.7239 0.0472268 -0.222306)
(25.807 0.0397934 -0.173272)
(25.9877 0.0320608 -0.113213)
(26.1584 0.0497073 -0.0772792)
(26.3187 0.0740286 -0.10867)
(26.7083 0.0462185 -0.165942)
(27.0359 0.0183539 -0.150239)
(27.2637 0.000487778 -0.18777)
(27.6109 0.0316705 0.0590154)
(40.0074 2.33023e-05 0.0174397)
(40.0335 0.000111076 0.0545703)
(40.0607 0.000202777 0.0927968)
(40.0847 0.000220089 0.13125)
(40.1057 0.000212687 0.170349)
(40.1254 0.000263397 0.210592)
(40.144 0.000361309 0.252267)
(40.1601 0.000451985 0.2955)
(40.1718 0.000499634 0.340337)
(40.1778 0.000520155 0.386602)
(40.1766 0.000533872 0.43373)
(40.1647 0.000504073 0.479927)
(40.1384 0.000686135 0.522745)
(40.0801 0.000653049 0.552151)
(39.9902 0.00411875 0.573726)
(39.7309 0.00629146 0.547324)
(39.4309 0.0080258 0.427627)
(38.749 0.00788299 0.348394)
(37.8031 -0.000583604 0.388464)
(37.0011 -0.00282363 0.446568)
(36.3079 3.4485e-05 0.517737)
(35.6922 0.00353789 0.60871)
(35.1593 0.00683779 0.702919)
(34.6469 0.00977837 0.804701)
(34.1522 0.0113467 0.883336)
(33.666 0.0128407 0.898155)
(33.1714 0.0146739 0.86179)
(32.6435 0.0213284 0.814361)
(32.0306 0.0349669 0.753681)
(31.4127 0.0415808 0.673141)
(30.8205 0.0433995 0.625556)
(30.2442 0.041935 0.684495)
(29.7748 0.0361705 0.726369)
(29.4496 0.0229825 0.674843)
(29.1993 -0.000446912 0.637019)
(28.9572 -0.0361184 0.751788)
(28.7375 -0.0766894 0.875128)
(28.4754 -0.105079 0.911969)
(28.1778 -0.109295 0.82236)
(27.8719 -0.0945378 0.607102)
(27.6084 -0.0914445 0.412602)
(27.481 -0.111501 0.360472)
(27.36 -0.12836 0.3424)
(27.2349 -0.142537 0.289545)
(27.1749 -0.153576 0.217122)
(27.184 -0.159451 0.144069)
(27.2371 -0.166524 0.0970516)
(27.3219 -0.171648 0.0248852)
(27.4038 -0.169773 0.00902837)
(27.5155 -0.209579 0.0103821)
(27.6041 -0.17431 -0.159802)
(27.7388 -0.130769 -0.235883)
(28.0978 -0.0936485 -0.288424)
(28.5031 -0.0362838 -0.36988)
(40.0074 2.33021e-05 0.0174412)
(40.0336 0.000111076 0.0545568)
(40.0606 0.000202777 0.0927707)
(40.0846 0.000220089 0.131213)
(40.1057 0.000212688 0.170311)
(40.1255 0.0002634 0.21056)
(40.1441 0.000361287 0.252247)
(40.16 0.000452072 0.295473)
(40.1717 0.000499259 0.34031)
(40.1775 0.000519173 0.38653)
(40.1764 0.000531 0.433607)
(40.1646 0.000507353 0.479991)
(40.1379 0.000665069 0.522466)
(40.0847 0.000730508 0.555105)
(39.9906 0.00376034 0.566458)
(39.8032 0.00603861 0.536583)
(39.4875 0.00859625 0.446126)
(38.7872 0.00811519 0.338122)
(37.8201 -0.000568201 0.371847)
(36.9949 -0.00264065 0.436753)
(36.3208 0.000143119 0.497276)
(35.7105 0.00368264 0.577481)
(35.1782 0.00711329 0.657401)
(34.6752 0.0104215 0.743631)
(34.1923 0.0123652 0.814986)
(33.7302 0.0148419 0.828157)
(33.2535 0.0187316 0.824558)
(32.7332 0.0251026 0.816866)
(32.1908 0.0355794 0.756283)
(31.6715 0.0474341 0.640094)
(31.1117 0.0595971 0.561131)
(30.4726 0.0705221 0.597334)
(29.8827 0.06046 0.619841)
(29.5105 0.038902 0.601568)
(29.2829 0.00527802 0.574866)
(29.1405 -0.0368605 0.645104)
(29.0234 -0.07976 0.72396)
(28.8637 -0.108762 0.751374)
(28.6585 -0.117515 0.697912)
(28.5005 -0.11013 0.562934)
(28.3822 -0.105562 0.402514)
(28.3527 -0.118376 0.328048)
(28.3103 -0.135475 0.293565)
(28.242 -0.146296 0.235973)
(28.1935 -0.154502 0.155521)
(28.1964 -0.157268 0.076714)
(28.2271 -0.161667 0.0325377)
(28.2643 -0.16743 -0.0331594)
(28.2854 -0.1821 -0.0876602)
(28.3148 -0.201437 -0.174104)
(28.0977 -0.128039 -0.335965)
(28.2455 -0.101265 -0.412284)
(28.6001 -0.0721826 -0.434274)
(28.9329 -0.0162338 -0.535673)
(39.9993 2.41043e-05 0.0244597)
(39.9897 0.000107511 0.0708448)
(39.9628 0.000197271 0.114152)
(39.9175 0.000214602 0.155523)
(39.855 0.000206538 0.196717)
(39.7771 0.000257133 0.238644)
(39.6844 0.000351024 0.281841)
(39.5764 0.000429177 0.326681)
(39.4523 0.000463494 0.373473)
(39.3124 0.000467519 0.422351)
(39.1569 0.000462523 0.473266)
(38.986 0.000500264 0.525918)
(38.7974 0.000579595 0.579957)
(38.5907 0.000984154 0.634779)
(38.3499 0.00129816 0.693182)
(38.1166 0.00286447 0.765377)
(37.7769 0.00347669 0.808669)
(37.4229 0.00504316 0.922084)
(37.0658 0.00234183 1.0904)
(36.6566 0.00172459 1.20308)
(36.1918 0.00285073 1.25271)
(35.7054 0.00490705 1.27278)
(35.2314 0.00771547 1.30274)
(34.7561 0.0119637 1.3453)
(34.2773 0.0143323 1.38529)
(33.7881 0.0180524 1.37697)
(33.2509 0.0253726 1.32664)
(32.6374 0.0359648 1.29443)
(31.926 0.0448 1.21345)
(31.1685 0.0405173 1.14151)
(30.3408 0.0360432 1.19669)
(29.4955 0.0447471 1.29706)
(28.7854 0.0716965 1.28746)
(28.1307 0.114906 1.1187)
(27.601 0.142924 0.703791)
(27.4747 0.0438755 0.652198)
(27.2105 -0.0628205 0.811415)
(26.8591 -0.104293 0.815738)
(26.3979 -0.102708 0.776142)
(26.1216 -0.0558275 0.480277)
(26.0251 -0.064576 0.33177)
(26.0018 -0.110799 0.389589)
(25.9479 -0.137374 0.328443)
(25.8566 -0.145194 0.182285)
(25.8442 -0.149856 0.0371467)
(25.9139 -0.147799 -0.0842679)
(26.0123 -0.149152 -0.163027)
(26.1572 -0.148166 -0.243009)
(26.3457 -0.161506 -0.239417)
(26.676 -0.137015 -0.401093)
(26.9439 -0.0683788 -0.418308)
(27.1145 -0.0472213 -0.373608)
(27.229 -0.0493945 -0.46645)
(27.5169 -0.0594898 -0.689681)
(39.9993 2.41042e-05 0.0244597)
(39.9897 0.000107511 0.0708374)
(39.9628 0.000197272 0.114139)
(39.9174 0.000214604 0.155509)
(39.8549 0.000206542 0.1967)
(39.7771 0.00025714 0.238625)
(39.6845 0.000351038 0.281817)
(39.5764 0.000429189 0.326646)
(39.4522 0.000463536 0.373433)
(39.3123 0.000467413 0.422302)
(39.1568 0.000462021 0.47322)
(38.9859 0.000499916 0.525918)
(38.798 0.000578642 0.579878)
(38.5904 0.000984309 0.634669)
(38.3562 0.0013001 0.690858)
(38.0954 0.00282593 0.757769)
(37.7878 0.00316266 0.828155)
(37.4298 0.00533271 0.927213)
(37.0644 0.00248129 1.08345)
(36.6629 0.00180184 1.1887)
(36.2054 0.00296047 1.23306)
(35.7264 0.0050929 1.24551)
(35.2607 0.00810671 1.26526)
(34.7876 0.013026 1.3192)
(34.3026 0.0159473 1.36567)
(33.8127 0.0203288 1.36352)
(33.2762 0.0287477 1.34547)
(32.6828 0.0403106 1.33775)
(32.0401 0.0503545 1.28747)
(31.3298 0.0519731 1.19826)
(30.4613 0.04625 1.24513)
(29.6122 0.0518312 1.34463)
(28.9147 0.0837965 1.28925)
(28.4069 0.119104 1.03777)
(28.0818 0.114477 0.743195)
(27.8862 0.0511687 0.559345)
(27.6838 -0.0183206 0.469296)
(27.3791 -0.0617681 0.389577)
(27.0335 -0.0648575 0.278328)
(26.7732 -0.0218558 0.0549592)
(26.5916 -0.0334708 -0.0163365)
(26.5234 -0.0688873 -0.0467919)
(26.4562 -0.0956114 -0.134543)
(26.3438 -0.109393 -0.263659)
(26.2878 -0.116317 -0.395566)
(26.3215 -0.114747 -0.50883)
(26.3841 -0.113183 -0.59394)
(26.4928 -0.113214 -0.626193)
(26.6158 -0.120845 -0.680624)
(26.8833 -0.0989202 -0.737001)
(27.087 -0.0595954 -0.617263)
(27.2381 -0.0434132 -0.52797)
(27.4691 -0.0616982 -0.439234)
(27.6014 -0.0543167 -0.89042)
(39.999 2.33198e-05 0.0308826)
(39.9883 0.000103849 0.0919467)
(39.9614 0.000190241 0.152839)
(39.9171 0.000205436 0.214441)
(39.8558 0.000195251 0.277812)
(39.7781 0.000243911 0.343223)
(39.6839 0.000336881 0.410842)
(39.5719 0.000416902 0.480821)
(39.4404 0.000457204 0.553301)
(39.2887 0.000469382 0.62835)
(39.116 0.000475823 0.705982)
(38.9213 0.000515833 0.786269)
(38.7023 0.000570152 0.869432)
(38.4572 0.000795685 0.956711)
(38.1808 0.000887702 1.05081)
(37.881 0.00212554 1.15586)
(37.5399 0.00233319 1.29651)
(37.1225 0.00211346 1.36665)
(36.7522 0.0020203 1.43081)
(36.4046 0.00283025 1.52076)
(36.0327 0.00390401 1.61231)
(35.6329 0.00424134 1.67294)
(35.1955 0.0043058 1.73117)
(34.7014 0.00535861 1.8025)
(34.1745 0.00430123 1.88451)
(33.6101 0.00400277 1.9275)
(32.9474 0.00886162 1.96013)
(32.184 0.0151572 2.04509)
(31.3059 0.0138494 2.11933)
(30.2343 0.0129903 2.16393)
(29.1067 0.0165324 2.25055)
(28.1493 0.0272553 2.22714)
(27.334 0.0513515 2.02375)
(26.6608 0.0877576 1.48607)
(26.5374 0.0882342 0.716056)
(26.6443 -0.0313797 0.934745)
(26.4602 -0.139655 1.3548)
(25.9828 -0.20246 1.48389)
(25.3908 -0.179768 1.26797)
(25.0889 -0.0789576 0.652798)
(24.9594 -0.0591734 0.439837)
(24.9566 -0.0913727 0.581645)
(24.8747 -0.116822 0.598852)
(24.7763 -0.11556 0.438752)
(24.7824 -0.107723 0.276388)
(24.8834 -0.102438 0.153754)
(25.0053 -0.100403 0.0354508)
(25.1537 -0.0864457 -0.0318199)
(25.3408 -0.0855703 -0.15427)
(25.6073 -0.0988236 -0.323503)
(26.0131 -0.0929923 -0.431635)
(26.2974 -0.0858883 -0.45307)
(26.5274 -0.0832011 -0.522452)
(26.9292 -0.0338154 -0.591615)
(39.999 2.33197e-05 0.0308816)
(39.9884 0.000103849 0.0919421)
(39.9613 0.000190241 0.152831)
(39.917 0.000205438 0.21443)
(39.8557 0.000195254 0.277797)
(39.7781 0.000243918 0.343204)
(39.684 0.000336891 0.410821)
(39.5719 0.000416916 0.480802)
(39.4404 0.000457221 0.553291)
(39.2886 0.000469411 0.628348)
(39.116 0.000475829 0.705993)
(38.9213 0.000515974 0.786265)
(38.7025 0.000569648 0.869398)
(38.4571 0.00079824 0.956384)
(38.1829 0.000886539 1.05019)
(37.8792 0.00215237 1.15493)
(37.5539 0.00220245 1.29158)
(37.1335 0.00207023 1.39487)
(36.7574 0.0019917 1.4351)
(36.4132 0.00287608 1.5083)
(36.0435 0.00407433 1.59183)
(35.6444 0.0045375 1.64664)
(35.1928 0.00450273 1.70606)
(34.6888 0.00514691 1.81232)
(34.1725 0.00415652 1.89605)
(33.6014 0.00387186 1.95344)
(32.9154 0.0100159 2.04854)
(32.1387 0.0173148 2.17474)
(31.2749 0.0158467 2.26556)
(30.2236 0.014788 2.30355)
(29.1541 0.0171103 2.32705)
(28.2596 0.0262851 2.30689)
(27.4949 0.0488845 2.19935)
(26.8236 0.0974114 1.82891)
(26.6173 0.110742 1.08512)
(26.6697 -0.0229334 0.834359)
(26.5395 -0.152719 0.859866)
(26.2108 -0.266621 0.8511)
(25.7774 -0.313425 0.822264)
(25.3944 -0.199736 0.421514)
(25.2958 -0.0864121 0.160554)
(25.2079 -0.0886285 0.165278)
(25.1103 -0.0990253 0.0551261)
(24.9834 -0.100495 -0.102179)
(24.9361 -0.0898714 -0.256084)
(25.0074 -0.0863372 -0.385197)
(25.1386 -0.0847122 -0.515435)
(25.3176 -0.0785397 -0.617917)
(25.508 -0.0663581 -0.701403)
(25.7854 -0.075397 -0.811334)
(26.0821 -0.0883707 -0.816543)
(26.382 -0.0896138 -0.815755)
(26.6412 -0.120985 -0.904949)
(27.1409 -0.0613218 -0.918894)
(39.999 2.30952e-05 0.0381516)
(39.9885 0.000103104 0.114435)
(39.9621 0.000189197 0.191101)
(39.9188 0.000202779 0.268367)
(39.8589 0.000190692 0.347071)
(39.7832 0.00023782 0.427587)
(39.6916 0.000330126 0.510356)
(39.5829 0.000410655 0.595842)
(39.4555 0.000452714 0.684482)
(39.3088 0.000465222 0.776695)
(39.1419 0.000473565 0.872885)
(38.954 0.000495584 0.973556)
(38.7434 0.000559768 1.07944)
(38.5079 0.000639742 1.19208)
(38.2478 0.00092041 1.31358)
(37.9557 0.00104745 1.44872)
(37.657 0.00260834 1.60001)
(37.2707 0.00459739 1.74728)
(36.8271 0.00404113 1.82567)
(36.4083 0.00429449 1.89124)
(36.0061 0.0058462 1.97954)
(35.5869 0.00478881 2.06984)
(35.1203 0.00199937 2.21627)
(34.5679 -0.00103003 2.35982)
(33.9598 -0.0077195 2.49375)
(33.2685 -0.0117333 2.61399)
(32.4162 -0.00575352 2.74459)
(31.4762 0.00206943 2.96544)
(30.4437 0.00072518 3.1944)
(29.3075 6.57158e-05 3.31036)
(28.2466 0.00673773 3.27058)
(27.3302 0.0232838 3.06013)
(26.518 0.0516341 2.58345)
(25.9237 0.102302 1.59098)
(26.006 0.148275 0.392797)
(25.8208 -0.0621306 0.632289)
(25.7089 -0.384374 2.00198)
(25.0343 -0.592024 2.7913)
(24.3609 -0.630988 2.81427)
(23.9853 -0.311985 1.53406)
(23.8203 -0.150424 0.764969)
(23.9094 -0.16802 0.776243)
(23.863 -0.193215 0.65139)
(23.8321 -0.192535 0.373452)
(23.8721 -0.185444 0.142728)
(23.9775 -0.184699 -0.0490962)
(24.1435 -0.183923 -0.225504)
(24.323 -0.200375 -0.41692)
(24.6338 -0.160075 -0.691876)
(24.7621 -0.173629 -0.704678)
(25.0272 -0.197067 -0.828934)
(25.2957 -0.156069 -0.928563)
(25.5419 -0.196436 -0.931139)
(25.7774 -0.145612 -0.811835)
(39.999 2.30951e-05 0.0381499)
(39.9885 0.000103104 0.114429)
(39.962 0.000189198 0.19109)
(39.9186 0.00020278 0.268354)
(39.8588 0.000190696 0.347057)
(39.7832 0.00023783 0.427569)
(39.6917 0.000330145 0.510334)
(39.5829 0.000410689 0.595817)
(39.4555 0.000452743 0.684457)
(39.3087 0.000465343 0.776671)
(39.1419 0.000473373 0.872862)
(38.9539 0.000496846 0.973519)
(38.7434 0.000563281 1.0794)
(38.5082 0.000643646 1.19191)
(38.2476 0.000935364 1.31341)
(37.9588 0.00102443 1.44804)
(37.6509 0.00275195 1.60015)
(37.2956 0.00424173 1.76282)
(36.869 0.00369065 1.82953)
(36.439 0.00435322 1.88399)
(36.0265 0.00649657 1.97057)
(35.5936 0.00623087 2.06999)
(35.075 0.00206747 2.21314)
(34.5182 -0.00135319 2.35579)
(33.9268 -0.00795716 2.48717)
(33.1891 -0.0123366 2.63851)
(32.3385 -0.00493622 2.83293)
(31.4488 0.00335626 3.0717)
(30.465 0.00159082 3.26359)
(29.3837 -2.65255e-05 3.34978)
(28.3558 0.00559936 3.29273)
(27.4632 0.0214022 3.11699)
(26.7307 0.0460302 2.76089)
(26.2431 0.100367 2.00053)
(26.3327 0.20434 0.877034)
(26.4556 -0.0232055 0.562449)
(26.4062 -0.459202 0.764712)
(25.9498 -0.71487 1.02249)
(25.2619 -0.87481 1.06486)
(24.6939 -0.770683 0.746103)
(24.5099 -0.278071 0.343147)
(24.5132 -0.168959 0.152805)
(24.4812 -0.157414 -0.108678)
(24.4556 -0.151217 -0.379921)
(24.5091 -0.143622 -0.602355)
(24.6417 -0.141028 -0.799542)
(24.8219 -0.135652 -0.98416)
(25.019 -0.14577 -1.16688)
(25.1815 -0.149808 -1.2625)
(25.3482 -0.128722 -1.51493)
(25.3729 -0.0561085 -1.55382)
(25.5682 -0.0387379 -1.44889)
(25.779 -0.0581224 -1.42461)
(25.9964 0.0341715 -1.40979)
(39.9991 2.16483e-05 0.0453954)
(39.9888 9.78151e-05 0.136195)
(39.963 0.000179492 0.227607)
(39.921 0.000192249 0.319981)
(39.8632 0.000181083 0.414421)
(39.7903 0.000226948 0.511455)
(39.7021 0.000315682 0.611642)
(39.5973 0.000392796 0.71551)
(39.4745 0.000432876 0.823551)
(39.3328 0.000445091 0.936241)
(39.1717 0.000453512 1.05405)
(38.9904 0.000476329 1.17751)
(38.7879 0.000533885 1.30739)
(38.5629 0.000607033 1.44481)
(38.3154 0.000784045 1.59164)
(38.045 0.000954859 1.7507)
(37.7589 0.00184404 1.9232)
(37.4571 0.00414831 2.12674)
(37.0994 0.00684294 2.26977)
(36.6751 0.00729283 2.36175)
(36.2104 0.00785588 2.4386)
(35.6683 0.00376821 2.55223)
(35.1179 -0.00266037 2.73555)
(34.5636 -0.00839823 2.9659)
(33.9145 -0.0181243 3.21685)
(33.119 -0.0207094 3.48647)
(32.0877 -0.00935202 3.7258)
(30.9974 0.00623733 3.99751)
(29.9343 0.00952093 4.26097)
(28.8473 0.00876925 4.35772)
(27.808 0.0161815 4.22667)
(26.8398 0.0407289 3.89368)
(25.8295 0.0925345 3.26694)
(24.9375 0.252547 2.03662)
(24.6315 0.534539 0.846359)
(18.6352 0.0279583 2.76497)
(19.4481 -0.507084 2.65977)
(19.7447 -0.999993 2.40068)
(19.6204 -1.56825 2.69053)
(20.5121 -1.0738 0.79904)
(21.4498 -0.355607 0.701108)
(21.5038 -0.602281 1.47581)
(21.6505 -0.525761 1.19086)
(21.8987 -0.442596 0.816985)
(22.1363 -0.400984 0.508391)
(22.3206 -0.387089 0.236395)
(22.517 -0.369126 -0.0304631)
(22.6759 -0.37364 -0.292718)
(22.8975 -0.350257 -0.518528)
(22.9728 -0.300555 -0.685432)
(23.0178 -0.233732 -0.824583)
(23.0774 -0.183128 -0.922257)
(23.1383 -0.167317 -0.931586)
(23.0482 -0.188294 -0.845796)
(39.9991 2.16468e-05 0.0453937)
(39.9888 9.78222e-05 0.136188)
(39.963 0.000179464 0.227596)
(39.9209 0.000192384 0.319969)
(39.8631 0.000180518 0.414408)
(39.7903 0.000225223 0.511437)
(39.7022 0.000313702 0.611616)
(39.5973 0.000390787 0.715479)
(39.4744 0.000430877 0.823518)
(39.3327 0.000443188 0.936209)
(39.1716 0.00045145 1.05402)
(38.9904 0.000475232 1.17748)
(38.7879 0.000537047 1.30735)
(38.5631 0.000611601 1.44474)
(38.3155 0.000795705 1.59156)
(38.0463 0.000944533 1.75016)
(37.7595 0.00192589 1.92384)
(37.4652 0.00382386 2.11446)
(37.1412 0.00632274 2.27413)
(36.7366 0.00757118 2.3909)
(36.2568 0.00921395 2.4924)
(35.7238 0.0052451 2.62937)
(35.1315 -0.00285503 2.7734)
(34.5268 -0.00857033 2.96722)
(33.8443 -0.018876 3.20101)
(33.001 -0.0206803 3.47617)
(32.0254 -0.00872782 3.74131)
(31.0461 0.00550683 4.04003)
(30.0293 0.00802816 4.27266)
(28.9563 0.0072673 4.35575)
(27.9414 0.0147214 4.23329)
(27.0405 0.0377497 3.95405)
(26.2468 0.0853577 3.45272)
(25.6486 0.30772 2.51064)
(25.8741 1.03598 1.20217)
(26.8711 1.76651 -0.221076)
(27.7568 1.7616 -0.398502)
(27.4894 1.44592 -0.128895)
(26.6114 1.10381 0.0501225)
(26.139 0.558286 -0.127276)
(24.288 -0.0512306 0.203775)
(24.116 -0.188755 0.159823)
(24.0518 -0.0951037 -0.154344)
(23.9068 0.00243871 -0.474504)
(23.7455 0.0656425 -0.736863)
(23.5667 0.114513 -0.953531)
(23.374 0.174471 -1.14301)
(23.1607 0.2246 -1.30174)
(22.9749 0.264843 -1.42715)
(22.7432 0.362366 -1.53658)
(22.7632 0.467216 -1.53253)
(22.6669 0.562492 -1.56969)
(22.6571 0.613067 -1.46166)
(22.4009 0.671708 -1.37156)
(39.9991 2.14287e-05 0.0523824)
(39.9892 9.62978e-05 0.157173)
(39.9646 0.000177844 0.262846)
(39.9245 0.000189923 0.369896)
(39.8692 0.000177217 0.47955)
(39.7996 0.000220202 0.592324)
(39.7153 0.000305501 0.708814)
(39.6149 0.000380297 0.829625)
(39.497 0.00041983 0.955346)
(39.3609 0.000433087 1.08654)
(39.2059 0.000441092 1.22374)
(39.0314 0.000464702 1.36748)
(38.8366 0.000515509 1.51836)
(38.6208 0.00059738 1.67714)
(38.3839 0.000704189 1.84483)
(38.1277 0.000917269 2.02273)
(37.8537 0.00121792 2.21119)
(37.571 0.00244903 2.41477)
(37.273 0.00347861 2.6078)
(36.9382 0.0020274 2.79475)
(36.5425 0.000795013 2.9675)
(36.058 -0.000943995 3.18648)
(35.4301 -0.00525907 3.36658)
(34.7913 -0.0153359 3.60785)
(34.1367 -0.0283122 4.00185)
(33.3314 -0.0339711 4.48703)
(32.2595 -0.00976616 4.89003)
(31.0418 0.0196477 5.11725)
(29.8715 0.0223656 5.30704)
(28.7105 0.0173522 5.3875)
(27.6088 0.0274907 5.26701)
(26.5579 0.0554348 4.93628)
(25.2952 0.13097 4.4657)
(24.3699 0.413059 3.7526)
(15.8093 0.354782 0.0339901)
(15.382 0.0251929 2.79367)
(15.5128 -0.26184 5.68065)
(15.1956 -0.0915153 5.05511)
(15.0887 -0.222805 3.98349)
(14.38 -0.584561 2.78507)
(16.7587 -0.48969 1.32697)
(16.9826 -0.331395 0.749762)
(17.1967 -0.161235 0.558269)
(17.5177 -0.068413 0.411487)
(17.7098 -0.0205362 0.255012)
(17.7378 0.0306605 0.10736)
(17.6679 0.098881 -0.0555074)
(17.5746 0.159509 -0.271308)
(17.4314 0.180898 -0.508997)
(17.3371 0.161493 -0.732868)
(17.3339 0.11262 -0.960165)
(17.6077 0.0347524 -1.24974)
(17.915 -0.0413029 -1.44027)
(18.9838 -0.363488 -1.94305)
(39.9991 2.14271e-05 0.0523801)
(39.9893 9.6305e-05 0.157163)
(39.9646 0.000177815 0.26283)
(39.9244 0.000190059 0.369877)
(39.8692 0.000176651 0.479531)
(39.7996 0.000218451 0.592302)
(39.7153 0.000303458 0.708786)
(39.6149 0.000378159 0.829592)
(39.497 0.00041773 0.955312)
(39.3608 0.00043071 1.08651)
(39.2058 0.000439912 1.22371)
(39.0314 0.000465309 1.36744)
(38.8366 0.000516673 1.51831)
(38.6209 0.000600201 1.67706)
(38.3842 0.000712107 1.84474)
(38.1281 0.000927104 2.02232)
(37.8552 0.00123114 2.21071)
(37.572 0.00247107 2.40929)
(37.2766 0.00345435 2.60904)
(36.9528 0.00205044 2.80901)
(36.5582 0.0014124 3.00712)
(36.125 -0.000936715 3.21112)
(35.5016 -0.00597446 3.4345)
(34.7986 -0.0150322 3.66116)
(34.0759 -0.0294989 3.96863)
(33.1972 -0.0345554 4.41766)
(32.1188 -0.00804209 4.7655)
(31.072 0.0162768 5.10372)
(29.9969 0.0198172 5.36597)
(28.8644 0.0150098 5.42708)
(27.782 0.0258809 5.25093)
(26.8183 0.0526753 4.93668)
(25.9141 0.142392 4.49971)
(25.039 0.650591 3.91657)
(25.8767 1.90551 3.28768)
(15.9708 0.0357279 2.74912)
(16.3473 0.124666 1.70029)
(16.014 0.655906 0.939476)
(14.7651 0.89069 0.39907)
(13.8044 0.744821 0.209188)
(14.1106 0.510884 0.336388)
(14.1338 0.614372 0.110748)
(14.1576 0.797672 -0.225847)
(14.2687 0.908683 -0.474695)
(14.4329 0.971174 -0.640036)
(14.6044 1.04382 -0.756951)
(14.8017 1.15192 -0.837948)
(15.0347 1.26444 -0.881335)
(15.2792 1.36083 -0.895119)
(15.5733 1.43776 -0.921961)
(15.9111 1.49874 -0.946318)
(16.3763 1.5436 -0.940895)
(16.7725 1.5699 -0.857693)
(17.4451 1.42465 -0.720191)
(39.9991 1.93982e-05 0.0590259)
(39.9898 8.81984e-05 0.177135)
(39.9666 0.000162791 0.296343)
(39.9287 0.000173399 0.417266)
(39.8766 0.000161572 0.541293)
(39.8108 0.000203386 0.669007)
(39.7311 0.000286204 0.801112)
(39.636 0.000359347 0.938332)
(39.5241 0.000398373 1.08136)
(39.3945 0.000410422 1.2308)
(39.2466 0.000415927 1.3872)
(39.0798 0.000434577 1.55097)
(38.8931 0.000476993 1.72245)
(38.686 0.000548725 1.90191)
(38.4584 0.000632199 2.0895)
(38.2115 0.000775218 2.28532)
(37.9469 0.000889794 2.48863)
(37.6688 0.00125867 2.69952)
(37.3784 0.000943089 2.9128)
(37.0702 -0.000461646 3.13127)
(36.7299 -0.00242408 3.3669)
(36.3538 -0.00217177 3.65643)
(35.9239 0.000648358 3.9726)
(35.2941 -0.010643 4.31985)
(34.5903 -0.0267964 4.80662)
(33.8989 -0.0379413 5.44948)
(33.0312 -0.013074 5.99615)
(31.877 0.031827 6.34292)
(30.4805 0.0503478 6.53709)
(28.9841 0.0331237 6.52418)
(27.7531 0.0253946 6.22256)
(26.7351 0.0313666 5.84747)
(25.7296 0.0517482 5.68157)
(25.0288 0.245989 6.18196)
(24.116 0.751489 7.72734)
(12.7405 0.0878505 2.85087)
(12.2779 0.102588 1.4923)
(11.2552 0.224363 1.07491)
(9.85848 0.301371 0.813471)
(8.87534 0.188845 0.106664)
(7.90342 0.00908684 -0.802928)
(7.12334 -0.142152 -0.864968)
(6.92557 -0.220007 -0.662643)
(7.23673 -0.273527 -0.703922)
(8.03736 -0.384219 -0.96264)
(9.13378 -0.550223 -1.27268)
(10.4331 -0.683398 -1.59404)
(11.9353 -0.761251 -1.95767)
(13.5112 -0.834654 -2.35792)
(15.1076 -0.909297 -2.75943)
(16.6658 -0.972079 -3.14459)
(18.3223 -1.00644 -3.51658)
(19.7087 -1.04147 -3.7997)
(21.8364 -1.10465 -4.34824)
(39.9992 1.93981e-05 0.0590236)
(39.9899 8.81984e-05 0.177124)
(39.9666 0.000162792 0.296326)
(39.9286 0.000173399 0.417247)
(39.8765 0.000161583 0.541274)
(39.8108 0.000203328 0.668985)
(39.7311 0.000286349 0.801085)
(39.636 0.000358431 0.938301)
(39.524 0.000395797 1.08133)
(39.3944 0.000407186 1.23077)
(39.2465 0.000413761 1.38716)
(39.0797 0.000434292 1.55092)
(38.8931 0.000477312 1.72238)
(38.686 0.000549662 1.90182)
(38.4585 0.000633297 2.08939)
(38.2116 0.000779424 2.28506)
(37.9474 0.000896477 2.48818)
(37.6688 0.00126761 2.69773)
(37.3762 0.00096814 2.91049)
(37.0668 -0.000453962 3.13036)
(36.7286 -0.00233689 3.37247)
(36.3596 -0.00235976 3.65303)
(35.9457 0.00152266 4.03173)
(35.3765 -0.00845865 4.36393)
(34.5959 -0.031902 4.79129)
(33.8078 -0.0409733 5.34144)
(32.7539 -0.0204525 5.8408)
(31.5677 0.0202158 6.23514)
(30.4774 0.0407681 6.5022)
(29.283 0.0242004 6.54449)
(27.9985 0.0211327 6.2789)
(26.8971 0.0314263 5.85983)
(25.9823 0.0537308 5.56898)
(24.9854 0.289376 5.68691)
(25.0822 1.21118 6.91328)
(23.5804 1.98407 7.32804)
(22.3917 1.89388 5.83079)
(20.3955 1.80183 3.92636)
(18.1374 1.73721 2.5374)
(16.45 1.63635 1.58239)
(15.2943 1.48347 0.906604)
(14.5176 1.35759 0.443594)
(14.1159 1.29617 0.151291)
(13.978 1.28545 -0.037637)
(13.999 1.28733 -0.191978)
(14.1488 1.28041 -0.33512)
(14.4641 1.29587 -0.455341)
(14.9249 1.34057 -0.564283)
(15.4783 1.37401 -0.663792)
(16.13 1.37876 -0.772182)
(16.8508 1.36247 -0.892113)
(17.7408 1.33976 -1.03134)
(18.5294 1.3177 -1.10806)
(19.7835 1.17679 -1.33021)
(39.9992 1.91485e-05 0.0652469)
(39.9906 8.59942e-05 0.195827)
(39.969 0.000160316 0.327705)
(39.9338 0.000170432 0.461634)
(39.8854 0.000157532 0.599198)
(39.8241 0.00019716 0.741069)
(39.7497 0.000277115 0.888061)
(39.6608 0.000348052 1.04101)
(39.5557 0.000385943 1.20067)
(39.4336 0.000397182 1.36774)
(39.2937 0.000401581 1.54272)
(39.1352 0.000418837 1.72596)
(38.957 0.000456877 1.91756)
(38.7583 0.000517578 2.11736)
(38.5389 0.000595645 2.32483)
(38.2995 0.000686733 2.53914)
(38.0419 0.000754842 2.75888)
(37.7692 0.000850323 2.98318)
(37.4848 0.000754765 3.21047)
(37.191 0.000485795 3.44584)
(36.8891 -0.000140037 3.70212)
(36.5771 0.000621643 4.01401)
(36.2637 0.00151889 4.40211)
(35.8944 0.0197514 4.92467)
(35.2414 0.0151152 5.56572)
(34.6387 -0.00440827 6.22606)
(33.9823 -0.0129752 6.81577)
(33.1547 -0.004402 7.48823)
(32.0191 0.0369252 8.02085)
(30.5671 0.0755365 8.14635)
(28.8015 0.0719119 7.52087)
(26.9735 0.042998 6.75511)
(25.6538 0.0257266 6.44187)
(24.3596 0.0644742 6.5534)
(24.6956 0.434988 8.66836)
(22.5338 0.425903 9.1676)
(20.103 0.146748 7.11406)
(17.3685 -0.103492 4.7105)
(14.762 -0.259971 2.84523)
(12.9657 -0.41797 1.38837)
(12.0213 -0.673807 0.262151)
(11.7778 -0.967345 -0.52959)
(12.1694 -1.17176 -1.20529)
(13.1317 -1.25489 -1.83653)
(14.5025 -1.29094 -2.43716)
(16.037 -1.32951 -2.97603)
(17.5625 -1.34038 -3.41957)
(19.0177 -1.3136 -3.77924)
(20.3692 -1.2702 -4.08028)
(21.6055 -1.22696 -4.33036)
(22.724 -1.18028 -4.53201)
(23.7819 -1.13054 -4.68209)
(24.6642 -1.08249 -4.79715)
(25.6069 -1.05117 -4.95898)
(39.9992 1.91485e-05 0.065244)
(39.9906 8.5994e-05 0.195814)
(39.969 0.000160317 0.327684)
(39.9338 0.00017043 0.46161)
(39.8853 0.000157545 0.599173)
(39.8241 0.000197127 0.74104)
(39.7498 0.000277331 0.888027)
(39.6608 0.000347261 1.04097)
(39.5557 0.000383441 1.20063)
(39.4335 0.000394134 1.36769)
(39.2936 0.000398874 1.54268)
(39.1351 0.000414108 1.72591)
(38.957 0.000452726 1.9175)
(38.7583 0.000516138 2.11728)
(38.5389 0.00059098 2.32474)
(38.2995 0.000680636 2.53898)
(38.042 0.000753836 2.75867)
(37.7691 0.000850687 2.98265)
(37.4843 0.000767216 3.21037)
(37.1898 0.000488577 3.44647)
(36.8882 -8.21995e-05 3.70553)
(36.5794 0.000352937 4.01085)
(36.2682 0.00257411 4.41448)
(35.9528 0.0147415 4.89789)
(35.4713 0.0133228 5.52417)
(34.7513 -0.00681547 6.16588)
(33.987 -0.0221468 6.89697)
(32.7845 -0.0108267 7.45129)
(31.5231 0.0294774 7.76173)
(30.3041 0.0634516 7.87648)
(28.9518 0.0712449 7.67732)
(27.4162 0.0413409 7.03329)
(25.8971 0.0255528 6.48892)
(24.4082 0.0112157 6.63612)
(23.6591 0.325443 7.65123)
(24.0632 0.829183 8.35706)
(24.2612 1.07333 7.67928)
(23.6312 1.17087 6.31526)
(22.4932 1.21555 4.99623)
(21.3809 1.20577 3.81229)
(20.4831 1.12986 2.81095)
(19.8443 1.03596 2.02762)
(19.4834 0.972207 1.38169)
(19.3641 0.949473 0.825699)
(19.4342 0.932278 0.332267)
(19.6764 0.88059 -0.110975)
(20.0799 0.81385 -0.501267)
(20.6019 0.748604 -0.846636)
(21.1844 0.675612 -1.16186)
(21.8094 0.582648 -1.46198)
(22.4533 0.479892 -1.73176)
(23.1664 0.369793 -2.00133)
(23.762 0.289517 -2.17322)
(24.5059 0.086737 -2.6365)
(39.9993 1.66372e-05 0.0709659)
(39.9914 7.59876e-05 0.213017)
(39.9718 0.000141525 0.356564)
(39.9398 0.000148864 0.502508)
(39.8955 0.000136464 0.65263)
(39.8395 0.000174783 0.807713)
(39.7712 0.000251855 0.968693)
(39.6893 0.000319436 1.13653)
(39.5921 0.000354502 1.31211)
(39.4785 0.000364397 1.49622)
(39.3476 0.000366761 1.68942)
(39.1983 0.000380147 1.892)
(39.0291 0.000413561 2.10391)
(38.839 0.000467876 2.32461)
(38.627 0.000539893 2.55295)
(38.3936 0.000612018 2.78711)
(38.1405 0.000686296 3.02452)
(37.8714 0.000731956 3.26252)
(37.5929 0.00079967 3.4992)
(37.3136 0.000711888 3.73736)
(37.05 0.000713825 3.9894)
(36.8064 1.36213e-05 4.28372)