/*--------------------------------*- C++ -*----------------------------------*\
| =========                 |                                                 |
| \\      /  F ield         | OpenFOAM: The Open Source CFD Toolbox           |
|  \\    /   O peration     | Version:  4.1                                   |
|   \\  /    A nd           | Web:      www.OpenFOAM.org                      |
|    \\/     M anipulation  |                                                 |
\*---------------------------------------------------------------------------*/
FoamFile
{
    version     2.0;
    format      ascii;
    class       surfaceScalarField;
    location    "47";
    object      phi;
}
// * * * * * * * * * * * * * * * * * * * * * * * * * * * * * * * * * * * * * //

dimensions      [0 3 -1 0 0 0 0];

internalField   nonuniform List<scalar> 
11516
(
-4.65595e+10
-2.25992e+08
-6.13107e+08
-4.59429e+10
-2.02278e+08
-4.67262e+08
-4.55392e+10
-1.94099e+08
-2.51854e+08
-4.48729e+10
-3.03421e+08
-3.94574e+08
-4.44889e+10
-1.6829e+08
-2.39987e+08
-4.41785e+10
-1.86398e+08
-1.41579e+08
-4.38478e+10
-2.12733e+08
-1.31654e+08
-4.3573e+10
-2.07485e+08
-7.85238e+07
-4.33191e+10
-2.09361e+08
-5.40455e+07
-4.30852e+10
-2.08707e+08
-3.36832e+07
-4.2866e+10
-2.07705e+08
-1.93223e+07
-4.26535e+10
-2.07642e+08
-1.22453e+07
-4.24368e+10
-2.09507e+08
-1.43698e+07
-4.22092e+10
-2.12399e+08
-2.22631e+07
-4.1962e+10
-2.15106e+08
-3.87663e+07
-4.16883e+10
-2.17824e+08
-6.0834e+07
-4.13842e+10
-2.21028e+08
-8.67366e+07
-4.1044e+10
-2.24735e+08
-1.17837e+08
-4.0665e+10
-2.29201e+08
-1.52e+08
-4.02417e+10
-2.33498e+08
-1.8954e+08
-3.97709e+10
-2.38109e+08
-2.29949e+08
-3.9257e+10
-2.42658e+08
-2.66614e+08
-3.8705e+10
-2.47745e+08
-3.02814e+08
-3.81262e+10
-2.52793e+08
-3.29684e+08
-3.75274e+10
-2.57407e+08
-3.51317e+08
-3.69219e+10
-2.61145e+08
-3.60248e+08
-3.63175e+10
-2.63769e+08
-3.61928e+08
-3.57282e+10
-2.65198e+08
-3.50448e+08
-3.51625e+10
-2.65425e+08
-3.31602e+08
-3.46303e+10
-2.64626e+08
-3.037e+08
-3.41403e+10
-2.63012e+08
-2.67947e+08
-3.36967e+10
-2.61064e+08
-2.27705e+08
-3.3307e+10
-2.59221e+08
-1.79068e+08
-3.29738e+10
-2.57975e+08
-1.26283e+08
-3.26984e+10
-2.57842e+08
-6.95948e+07
-3.24819e+10
-2.59451e+08
-8.65088e+06
-3.2322e+10
-2.63411e+08
5.41784e+07
-3.22218e+10
-2.70066e+08
1.24847e+08
-3.21829e+10
-2.79778e+08
2.02869e+08
-3.221e+10
-2.93496e+08
2.93101e+08
-3.23095e+10
-3.12673e+08
3.99793e+08
-3.24874e+10
-3.40416e+08
5.26488e+08
-3.27486e+10
-3.8094e+08
6.77688e+08
-3.31058e+10
-4.37474e+08
8.61637e+08
-3.35918e+10
-5.11145e+08
1.09094e+09
-3.42766e+10
-6.05265e+08
1.38182e+09
-3.5275e+10
-7.2462e+08
1.75039e+09
-3.67262e+10
-8.98662e+08
2.19934e+09
-3.87796e+10
-1.19303e+09
2.79303e+09
-4.15087e+10
-1.69982e+09
3.54249e+09
-4.57695e+10
-2.57081e+09
5.4316e+09
-5.20399e+10
-3.07633e+09
7.94992e+09
-6.2338e+10
-5.8955e+09
1.52833e+10
-2.24813e+09
9.18993e+09
-5.49423e+10
-6.79524e+08
-5.4553e+10
-6.18553e+08
-5.42331e+10
-5.36061e+08
-5.40786e+10
-4.75225e+08
-5.378e+10
-4.79112e+08
-5.35776e+10
-3.97648e+08
-5.34119e+10
-3.8531e+08
-5.32742e+10
-3.507e+08
-5.31483e+10
-3.39933e+08
-5.30337e+10
-3.27334e+08
-5.29248e+10
-3.20153e+08
-5.28179e+10
-3.17588e+08
-5.27055e+10
-3.24706e+08
-5.25837e+10
-3.36492e+08
-5.24454e+10
-3.55033e+08
-5.22854e+10
-3.78379e+08
-5.21019e+10
-4.03945e+08
-5.18905e+10
-4.34957e+08
-5.16503e+10
-4.67434e+08
-5.13773e+10
-5.03026e+08
-5.1069e+10
-5.40735e+08
-5.07311e+10
-5.74804e+08
-5.03651e+10
-6.09268e+08
-4.99814e+10
-6.34938e+08
-4.95828e+10
-6.5739e+08
-4.91797e+10
-6.68422e+08
-4.87751e+10
-6.74842e+08
-4.83793e+10
-6.69662e+08
-4.7996e+10
-6.59501e+08
-4.76314e+10
-6.41756e+08
-4.72912e+10
-6.1754e+08
-4.69769e+10
-5.91081e+08
-4.66944e+10
-5.58221e+08
-4.64464e+10
-5.22824e+08
-4.62366e+10
-4.84015e+08
-4.60705e+10
-4.40762e+08
-4.59508e+10
-3.96348e+08
-4.58858e+10
-3.45173e+08
-4.58816e+10
-2.89679e+08
-4.59494e+10
-2.25042e+08
-4.6105e+10
-1.4793e+08
-4.63702e+10
-5.44839e+07
-4.67769e+10
6.10768e+07
-4.73698e+10
2.06826e+08
-4.82123e+10
3.94227e+08
-4.94021e+10
6.41418e+08
-5.10893e+10
9.72437e+08
-5.34913e+10
1.414e+09
-5.69947e+10
2.02722e+09
-6.22221e+10
2.97878e+09
-7.09309e+10
5.44046e+09
-8.35683e+10
8.79306e+09
-1.05253e+11
1.52652e+10
1.2203e+10
-6.19159e+10
9.40762e+07
-8.38092e+08
-6.19636e+10
4.45704e+07
-4.82499e+08
-6.19794e+10
2.26355e+07
-2.77497e+08
-6.20967e+10
5.29547e+07
-3.44842e+08
-6.20805e+10
2.66797e+07
-2.9246e+08
-6.2119e+10
3.41472e+07
-1.43634e+08
-6.21893e+10
3.08688e+07
-9.69009e+07
-6.2251e+10
3.03562e+07
-5.06192e+07
-6.23197e+10
2.4226e+07
-1.19991e+07
-6.23988e+10
2.29288e+07
2.13026e+07
-6.24806e+10
1.93898e+07
4.31473e+07
-6.25625e+10
1.57253e+07
5.54369e+07
-6.2643e+10
1.11569e+07
5.79158e+07
-6.27196e+10
6.49099e+06
5.19412e+07
-6.27902e+10
2.07089e+06
3.59807e+07
-6.28539e+10
-2.563e+06
1.36689e+07
-6.29056e+10
-6.94359e+06
-1.71618e+07
-6.29455e+10
-1.16226e+07
-5.40365e+07
-6.29702e+10
-1.67359e+07
-9.58692e+07
-6.29791e+10
-2.164e+07
-1.41743e+08
-6.2971e+10
-2.62532e+07
-1.90292e+08
-6.29461e+10
-3.10318e+07
-2.37214e+08
-6.29092e+10
-3.59325e+07
-2.81481e+08
-6.28587e+10
-4.07299e+07
-3.20025e+08
-6.28012e+10
-4.50165e+07
-3.47492e+08
-6.27318e+10
-4.83756e+07
-3.67507e+08
-6.2655e+10
-5.05267e+07
-3.75997e+08
-6.25666e+10
-5.12053e+07
-3.76581e+08
-6.24692e+10
-5.02009e+07
-3.68397e+08
-6.23585e+10
-4.7369e+07
-3.56938e+08
-6.22335e+10
-4.27567e+07
-3.40115e+08
-6.20918e+10
-3.64534e+07
-3.22117e+08
-6.1928e+10
-2.86361e+07
-3.021e+08
-6.17397e+10
-1.92779e+07
-2.8091e+08
-6.1521e+10
-8.71565e+06
-2.62301e+08
-6.12697e+10
3.01569e+06
-2.41401e+08
-6.09832e+10
1.54534e+07
-2.21111e+08
-6.06522e+10
2.78385e+07
-2.00772e+08
-6.02678e+10
4.01337e+07
-1.80628e+08
-5.98177e+10
5.23185e+07
-1.58261e+08
-5.92857e+10
6.36898e+07
-1.32619e+08
-5.86576e+10
7.37085e+07
-9.67015e+07
-5.79136e+10
8.17921e+07
-5.10895e+07
-5.70329e+10
8.78377e+07
1.12599e+07
-5.59949e+10
9.1446e+07
9.98916e+07
-5.47808e+10
9.12417e+07
2.25329e+08
-5.3369e+10
8.22871e+07
3.92104e+08
-5.17665e+10
5.9965e+07
6.20086e+08
-4.99552e+10
1.01781e+07
9.49374e+08
-4.83155e+10
1.96234e+07
1.72028e+09
-4.58332e+10
-1.12738e+08
2.78858e+09
-4.20682e+10
-1.38207e+08
3.94027e+09
-2.17955e+10
-3.61026e+09
-1.61084e+09
-3.16498e+09
-4.59278e+09
-6.72385e+10
-8.17387e+08
-6.71969e+10
-6.27552e+08
-6.7196e+10
-5.244e+08
-6.72127e+10
-4.12726e+08
-6.7232e+10
-4.38137e+08
-6.72568e+10
-3.42335e+08
-6.73178e+10
-2.96117e+08
-6.73728e+10
-2.67255e+08
-6.74457e+10
-2.43875e+08
-6.75309e+10
-2.19357e+08
-6.76254e+10
-2.05469e+08
-6.77248e+10
-2.00752e+08
-6.78307e+10
-2.05057e+08
-6.79411e+10
-2.15992e+08
-6.80534e+10
-2.35794e+08
-6.81668e+10
-2.60947e+08
-6.82763e+10
-2.93305e+08
-6.83826e+10
-3.30926e+08
-6.8484e+10
-3.72035e+08
-6.85788e+10
-4.16486e+08
-6.86675e+10
-4.62767e+08
-6.87494e+10
-5.07302e+08
-6.88296e+10
-5.49151e+08
-6.89049e+10
-5.86218e+08
-6.89819e+10
-6.12975e+08
-6.90536e+10
-6.33918e+08
-6.91238e+10
-6.44802e+08
-6.91853e+10
-6.4947e+08
-6.92384e+10
-6.46755e+08
-6.92754e+10
-6.423e+08
-6.92919e+10
-6.33568e+08
-6.92828e+10
-6.25725e+08
-6.92389e+10
-6.18565e+08
-6.91555e+10
-6.11462e+08
-6.90245e+10
-6.07367e+08
-6.88388e+10
-6.03952e+08
-6.85926e+10
-6.03807e+08
-6.82765e+10
-6.05359e+08
-6.78819e+10
-6.10353e+08
-6.73965e+10
-6.1723e+08
-6.68049e+10
-6.26112e+08
-6.60951e+10
-6.29998e+08
-6.52489e+10
-6.29904e+08
-6.42476e+10
-6.18612e+08
-6.30739e+10
-5.86921e+08
-6.17107e+10
-5.23881e+08
-6.01396e+10
-4.21422e+08
-5.83502e+10
-2.63995e+08
-5.63332e+10
-1.39572e+06
-5.40228e+10
5.75281e+08
-5.01684e+10
1.2548e+09
-4.27699e+10
1.09203e+09
-2.68913e+10
-4.13179e+09
-8.3199e+09
-5.20692e+10
1.89545e+07
-1.61574e+09
-5.16113e+10
1.09834e+08
-1.05396e+09
-5.11437e+10
7.62328e+07
-8.25428e+08
-5.10472e+10
1.30471e+08
-5.75658e+08
-5.08454e+10
7.35662e+07
-5.71213e+08
-5.06715e+10
1.04949e+08
-4.25295e+08
-5.05896e+10
1.1925e+08
-2.99326e+08
-5.05351e+10
1.26825e+08
-2.31495e+08
-5.04856e+10
1.26606e+08
-1.85622e+08
-5.044e+10
1.3212e+08
-1.52005e+08
-5.03952e+10
1.35804e+08
-1.31044e+08
-5.03524e+10
1.40451e+08
-1.19219e+08
-5.03076e+10
1.44379e+08
-1.20454e+08
-5.02561e+10
1.48628e+08
-1.3502e+08
-5.01975e+10
1.54524e+08
-1.60541e+08
-5.01261e+10
1.60334e+08
-1.97866e+08
-5.00407e+10
1.67166e+08
-2.44866e+08
-4.99401e+10
1.73531e+08
-3.00567e+08
-4.9818e+10
1.80211e+08
-3.65977e+08
-4.96737e+10
1.87368e+08
-4.36765e+08
-4.95068e+10
1.95328e+08
-5.08478e+08
-4.93191e+10
2.02886e+08
-5.81372e+08
-4.91178e+10
2.10353e+08
-6.45519e+08
-4.89111e+10
2.17108e+08
-6.98529e+08
-4.87027e+10
2.23483e+08
-7.35606e+08
-4.85008e+10
2.29369e+08
-7.55599e+08
-4.83093e+10
2.34707e+08
-7.58484e+08
-4.81313e+10
2.39338e+08
-7.48724e+08
-4.79671e+10
2.4315e+08
-7.28471e+08
-4.78185e+10
2.46088e+08
-7.01584e+08
-4.76797e+10
2.48345e+08
-6.73594e+08
-4.75498e+10
2.50263e+08
-6.4407e+08
-4.74205e+10
2.5162e+08
-6.1897e+08
-4.72847e+10
2.5187e+08
-5.97158e+08
-4.71394e+10
2.50472e+08
-5.77843e+08
-4.69723e+10
2.47537e+08
-5.64899e+08
-4.67776e+10
2.44063e+08
-5.56003e+08
-4.65526e+10
2.3974e+08
-5.46562e+08
-4.62953e+10
2.32634e+08
-5.33935e+08
-4.60002e+10
2.21381e+08
-5.17077e+08
-4.56665e+10
2.05171e+08
-4.89051e+08
-4.52833e+10
1.82366e+08
-4.49901e+08
-4.48453e+10
1.51275e+08
-3.92163e+08
-4.4341e+10
1.11096e+08
-3.13708e+08
-4.37576e+10
5.99757e+07
-2.08523e+08
-4.30903e+10
-5.3887e+06
-6.60515e+07
-4.23672e+10
-9.33221e+07
1.39359e+08
-4.164e+10
-2.15804e+08
4.41423e+08
-4.09244e+10
-3.87497e+08
8.59693e+08
-3.99035e+10
-5.44843e+08
1.38452e+09
-3.92386e+10
-7.13232e+08
2.89679e+09
-4.16234e+10
-9.2657e+08
7.58943e+09
-5.37865e+10
-7.68608e+09
1.88317e+10
-5.86852e+09
7.84184e+09
-5.76596e+10
-1.35049e+09
-5.72908e+10
-8.86642e+08
-5.70343e+10
-7.06323e+08
-5.6827e+10
-4.91962e+08
-5.67577e+10
-4.36608e+08
-5.66718e+10
-3.2522e+08
-5.66315e+10
-2.17791e+08
-5.66022e+10
-1.68893e+08
-5.65876e+10
-1.29346e+08
-5.65698e+10
-1.0105e+08
-5.65526e+10
-8.14846e+07
-5.65334e+10
-7.26691e+07
-5.65088e+10
-7.70607e+07
-5.64725e+10
-9.36428e+07
-5.6423e+10
-1.18456e+08
-5.63556e+10
-1.52885e+08
-5.62678e+10
-1.96469e+08
-5.61588e+10
-2.46669e+08
-5.6023e+10
-3.04937e+08
-5.58594e+10
-3.66137e+08
-5.56699e+10
-4.27085e+08
-5.54547e+10
-4.87199e+08
-5.52232e+10
-5.37482e+08
-5.4984e+10
-5.75665e+08
-5.47434e+10
-5.97429e+08
-5.45128e+10
-6.01884e+08
-5.42992e+10
-5.89023e+08
-5.41094e+10
-5.63564e+08
-5.39472e+10
-5.27294e+08
-5.38183e+10
-4.83975e+08
-5.37199e+10
-4.39267e+08
-5.36551e+10
-3.91952e+08
-5.36204e+10
-3.48579e+08
-5.3613e+10
-3.08125e+08
-5.36352e+10
-2.68792e+08
-5.36827e+10
-2.34648e+08
-5.3755e+10
-2.03356e+08
-5.3853e+10
-1.71967e+08
-5.39838e+10
-1.37814e+08
-5.41547e+10
-1.00049e+08
-5.438e+10
-5.19182e+07
-5.46674e+10
5.62571e+06
-5.50352e+10
8.18229e+07
-5.54979e+10
1.78558e+08
-5.6071e+10
3.01322e+08
-5.67811e+10
4.60731e+08
-5.76961e+10
6.82601e+08
-5.89229e+10
1.00396e+09
-6.06192e+10
1.51624e+09
-6.28729e+10
2.44975e+09
-6.70582e+10
5.0319e+09
-7.58278e+10
9.51087e+09
-1.04818e+11
1.78677e+10
7.28949e+09
-5.60864e+10
-2.56815e+08
-1.71043e+09
-5.58983e+10
-2.04874e+08
-1.02761e+09
-5.56249e+10
-1.89708e+08
-9.05369e+08
-5.54208e+10
-2.02105e+08
-5.77894e+08
-5.5315e+10
-2.09202e+08
-4.69945e+08
-5.51913e+10
-1.89868e+08
-3.6034e+08
-5.50702e+10
-1.66875e+08
-2.52111e+08
-5.49689e+10
-1.61562e+08
-1.66584e+08
-5.48824e+10
-1.63392e+08
-1.01108e+08
-5.48034e+10
-1.63711e+08
-5.70918e+07
-5.4723e+10
-1.65758e+08
-3.29805e+07
-5.46385e+10
-1.66879e+08
-2.16974e+07
-5.45463e+10
-1.68239e+08
-2.68708e+07
-5.44441e+10
-1.69461e+08
-4.69708e+07
-5.43262e+10
-1.70665e+08
-8.3786e+07
-5.4192e+10
-1.71612e+08
-1.31024e+08
-5.40414e+10
-1.7262e+08
-1.89753e+08
-5.38697e+10
-1.73841e+08
-2.60381e+08
-5.36797e+10
-1.75055e+08
-3.39615e+08
-5.34656e+10
-1.7521e+08
-4.26161e+08
-5.32294e+10
-1.74825e+08
-5.14284e+08
-5.29742e+10
-1.73265e+08
-6.00688e+08
-5.27074e+10
-1.70872e+08
-6.75343e+08
-5.24385e+10
-1.67267e+08
-7.31757e+08
-5.21752e+10
-1.62193e+08
-7.65262e+08
-5.19278e+10
-1.55797e+08
-7.71879e+08
-5.17029e+10
-1.48454e+08
-7.5481e+08
-5.15058e+10
-1.40906e+08
-7.19446e+08
-5.13389e+10
-1.33914e+08
-6.69601e+08
-5.12002e+10
-1.28111e+08
-6.13324e+08
-5.10902e+10
-1.23463e+08
-5.52939e+08
-5.10049e+10
-1.19534e+08
-4.93e+08
-5.09433e+10
-1.1674e+08
-4.35348e+08
-5.09013e+10
-1.1526e+08
-3.8212e+08
-5.08742e+10
-1.14479e+08
-3.32709e+08
-5.08615e+10
-1.16576e+08
-2.85088e+08
-5.08573e+10
-1.21046e+08
-2.42125e+08
-5.08533e+10
-1.27985e+08
-2.01986e+08
-5.084e+10
-1.37629e+08
-1.6232e+08
-5.08079e+10
-1.49926e+08
-1.22281e+08
-5.07439e+10
-1.65474e+08
-7.70469e+07
-5.06344e+10
-1.84825e+08
-2.64147e+07
-5.04581e+10
-2.08418e+08
3.12657e+07
-5.01947e+10
-2.37227e+08
9.97467e+07
-4.98183e+10
-2.71924e+08
1.77035e+08
-4.93057e+10
-3.16702e+08
2.71636e+08
-4.86239e+10
-3.81274e+08
3.97438e+08
-4.77102e+10
-4.72787e+08
5.5677e+08
-4.64509e+10
-5.39422e+08
6.9474e+08
-4.48082e+10
-3.82975e+08
6.87326e+08
-4.2215e+10
-1.63853e+07
1.0586e+09
-3.73134e+10
-1.09287e+09
4.64524e+09
-2.06689e+10
-1.05551e+10
1.35602e+10
-5.46996e+09
4.65554e+09
-6.14714e+10
-1.71713e+09
-6.14999e+10
-1.05885e+09
-6.15202e+10
-8.73904e+08
-6.15268e+10
-6.87776e+08
-6.15961e+10
-5.7755e+08
-6.16458e+10
-4.65693e+08
-6.16642e+10
-3.64931e+08
-6.1696e+10
-2.9558e+08
-6.1742e+10
-2.41843e+08
-6.17901e+10
-2.10205e+08
-6.18375e+10
-1.91937e+08
-6.18803e+10
-1.87384e+08
-6.19166e+10
-1.98107e+08
-6.1944e+10
-2.23086e+08
-6.19545e+10
-2.63532e+08
-6.19494e+10
-3.12149e+08
-6.19272e+10
-3.71484e+08
-6.18837e+10
-4.4197e+08
-6.18193e+10
-5.19574e+08
-6.17283e+10
-6.03811e+08
-6.1609e+10
-6.88336e+08
-6.14629e+10
-7.70381e+08
-6.12925e+10
-8.40546e+08
-6.11032e+10
-8.92208e+08
-6.08989e+10
-9.21908e+08
-6.0687e+10
-9.25039e+08
-6.04718e+10
-9.05291e+08
-6.02577e+10
-8.68059e+08
-6.00482e+10
-8.16782e+08
-5.98428e+10
-7.59444e+08
-5.96449e+10
-6.9792e+08
-5.94511e+10
-6.36954e+08
-5.92636e+10
-5.77833e+08
-5.90815e+10
-5.22403e+08
-5.89018e+10
-4.70597e+08
-5.87301e+10
-4.19465e+08
-5.85664e+10
-3.71905e+08
-5.84108e+10
-3.24728e+08
-5.82636e+10
-2.75086e+08
-5.81239e+10
-2.23045e+08
-5.79886e+10
-1.6408e+08
-5.78561e+10
-9.75762e+07
-5.77179e+10
-2.07489e+07
-5.75701e+10
7.17645e+07
-5.74044e+10
1.78045e+08
-5.72186e+10
3.04036e+08
-5.70101e+10
4.57291e+08
-5.67553e+10
6.47182e+08
-5.62604e+10
8.58009e+08
-5.50161e+10
1.28599e+09
-5.21059e+10
2.70839e+09
-4.88587e+10
5.98632e+09
-5.46006e+10
1.36154e+10
4.69836e+09
-5.52626e+10
-5.48552e+07
-1.73753e+09
-5.50798e+10
-9.99401e+07
-1.10038e+09
-5.49531e+10
-1.2679e+08
-8.98872e+08
-5.47364e+10
-1.26442e+08
-6.6604e+08
-5.45934e+10
-1.20828e+08
-4.9249e+08
-5.44739e+10
-1.08487e+08
-3.71928e+08
-5.43563e+10
-1.00634e+08
-2.68357e+08
-5.42395e+10
-9.95473e+07
-1.81039e+08
-5.41239e+10
-9.9627e+07
-1.12124e+08
-5.4007e+10
-1.00506e+08
-6.62669e+07
-5.38898e+10
-1.03715e+08
-3.74431e+07
-5.37693e+10
-1.07572e+08
-2.39257e+07
-5.36444e+10
-1.11052e+08
-2.8757e+07
-5.35054e+10
-1.15432e+08
-5.71019e+07
-5.33491e+10
-1.20439e+08
-1.04315e+08
-5.31698e+10
-1.26534e+08
-1.65883e+08
-5.29622e+10
-1.33751e+08
-2.43988e+08
-5.27233e+10
-1.41957e+08
-3.36073e+08
-5.24494e+10
-1.50874e+08
-4.39167e+08
-5.21358e+10
-1.59952e+08
-5.51545e+08
-5.17798e+10
-1.69081e+08
-6.68008e+08
-5.13807e+10
-1.77271e+08
-7.82124e+08
-5.09469e+10
-1.84638e+08
-8.81077e+08
-5.04887e+10
-1.89326e+08
-9.52154e+08
-5.00247e+10
-1.90806e+08
-9.86229e+08
-4.95712e+10
-1.88015e+08
-9.80095e+08
-4.91458e+10
-1.81087e+08
-9.37266e+08
-4.87612e+10
-1.70376e+08
-8.67149e+08
-4.84252e+10
-1.56707e+08
-7.77162e+08
-4.81419e+10
-1.40978e+08
-6.78187e+08
-4.79118e+10
-1.23717e+08
-5.74822e+08
-4.77336e+10
-1.05136e+08
-4.73356e+08
-4.7603e+10
-8.59592e+07
-3.77374e+08
-4.75165e+10
-6.73729e+07
-2.8676e+08
-4.74688e+10
-4.99999e+07
-2.01732e+08
-4.74511e+10
-3.44656e+07
-1.23293e+08
-4.74591e+10
-2.06879e+07
-4.93707e+07
-4.7486e+10
-8.52421e+06
1.9052e+07
-4.75263e+10
1.33168e+06
8.68549e+07
-4.75722e+10
7.06463e+06
1.5365e+08
-4.76095e+10
6.86024e+06
2.20847e+08
-4.7622e+10
-1.53325e+06
2.88948e+08
-4.75856e+10
-1.96779e+07
3.54231e+08
-4.74729e+10
-4.89704e+07
4.17838e+08
-4.72545e+10
-9.09925e+07
4.73513e+08
-4.69009e+10
-1.52951e+08
5.26219e+08
-4.63547e+10
-2.53936e+08
5.66378e+08
-4.5551e+10
-3.98515e+08
5.97247e+08
-4.45739e+10
-4.92353e+08
6.27115e+08
-4.4344e+10
-5.14203e+06
9.14834e+08
-4.48422e+10
7.10432e+08
1.28888e+09
-3.58292e+10
-2.9133e+09
-8.14838e+08
-3.20082e+08
-1.39831e+10
-7.48406e+09
-4.87422e+09
-4.70859e+09
-5.49976e+10
-1.77348e+09
-5.49794e+10
-1.16965e+09
-5.49826e+10
-9.93687e+08
-5.49733e+10
-8.22471e+08
-5.5006e+10
-6.66399e+08
-5.50423e+10
-5.39144e+08
-5.50593e+10
-4.49147e+08
-5.5077e+10
-3.77015e+08
-5.50994e+10
-3.17284e+08
-5.51272e+10
-2.79949e+08
-5.51588e+10
-2.59974e+08
-5.51907e+10
-2.58186e+08
-5.52208e+10
-2.73586e+08
-5.52422e+10
-3.11029e+08
-5.52529e+10
-3.66188e+08
-5.52484e+10
-4.35206e+08
-5.52241e+10
-5.20745e+08
-5.51787e+10
-6.20149e+08
-5.51087e+10
-7.30229e+08
-5.50103e+10
-8.49695e+08
-5.48796e+10
-9.72299e+08
-5.47159e+10
-1.09299e+09
-5.45221e+10
-1.19768e+09
-5.43047e+10
-1.27519e+09
-5.40739e+10
-1.31623e+09
-5.38383e+10
-1.31848e+09
-5.36063e+10
-1.28547e+09
-5.33828e+10
-1.22641e+09
-5.31698e+10
-1.14829e+09
-5.29672e+10
-1.06176e+09
-5.27728e+10
-9.71136e+08
-5.25837e+10
-8.81831e+08
-5.23966e+10
-7.96152e+08
-5.22106e+10
-7.1444e+08
-5.20239e+10
-6.38108e+08
-5.18341e+10
-5.64996e+08
-5.16439e+10
-4.92984e+08
-5.14508e+10
-4.23794e+08
-5.1255e+10
-3.52242e+08
-5.10581e+10
-2.7851e+08
-5.0861e+10
-2.00298e+08
-5.06664e+10
-1.16499e+08
-5.04711e+10
-3.11563e+07
-5.02679e+10
5.56041e+07
-5.00447e+10
1.31812e+08
-4.9787e+10
1.86158e+08
-4.94819e+10
2.00524e+08
-4.90791e+10
1.40828e+08
-4.83258e+10
-8.28534e+07
-4.61707e+10
-5.52618e+08
-4.09767e+10
-1.32037e+09
-3.43863e+10
-2.9117e+09
-2.52235e+10
-9.20121e+09
-4.89631e+09
-5.59908e+10
1.60413e+08
-1.72763e+09
-5.6069e+10
1.59828e+08
-1.17109e+09
-5.61387e+10
1.41606e+08
-9.64829e+08
-5.61811e+10
1.47431e+08
-7.69883e+08
-5.62168e+10
1.45498e+08
-6.04752e+08
-5.626e+10
1.48226e+08
-4.81538e+08
-5.63024e+10
1.50031e+08
-3.81152e+08
-5.63414e+10
1.51352e+08
-2.97882e+08
-5.63766e+10
1.52919e+08
-2.33184e+08
-5.64087e+10
1.5288e+08
-1.89512e+08
-5.64349e+10
1.53251e+08
-1.66208e+08
-5.6451e+10
1.53485e+08
-1.62938e+08
-5.64573e+10
1.55253e+08
-1.7987e+08
-5.64524e+10
1.56833e+08
-2.22182e+08
-5.64333e+10
1.58231e+08
-2.85381e+08
-5.6394e+10
1.58959e+08
-3.69536e+08
-5.63319e+10
1.59377e+08
-4.72343e+08
-5.62432e+10
1.59109e+08
-5.93624e+08
-5.61237e+10
1.58484e+08
-7.27952e+08
-5.5971e+10
1.57341e+08
-8.74037e+08
-5.57773e+10
1.56381e+08
-1.02677e+09
-5.55412e+10
1.54796e+08
-1.17961e+09
-5.52639e+10
1.53297e+08
-1.31315e+09
-5.49564e+10
1.51869e+08
-1.40728e+09
-5.46367e+10
1.51221e+08
-1.44724e+09
-5.43227e+10
1.51682e+08
-1.43099e+09
-5.40314e+10
1.5347e+08
-1.36449e+09
-5.37751e+10
1.56707e+08
-1.26081e+09
-5.35589e+10
1.61264e+08
-1.1339e+09
-5.3388e+10
1.67137e+08
-9.93667e+08
-5.3262e+10
1.7426e+08
-8.50242e+08
-5.31801e+10
1.82503e+08
-7.09676e+08
-5.31427e+10
1.9148e+08
-5.74001e+08
-5.31478e+10
2.01001e+08
-4.44601e+08
-5.31964e+10
2.1059e+08
-3.18547e+08
-5.32892e+10
2.19853e+08
-1.96281e+08
-5.34285e+10
2.28774e+08
-7.41986e+07
-5.36178e+10
2.37448e+08
4.82774e+07
-5.38582e+10
2.4552e+08
1.73581e+08
-5.41559e+10
2.5327e+08
3.07048e+08
-5.45153e+10
2.60251e+08
4.48566e+08
-5.494e+10
2.65328e+08
6.00271e+08
-5.54315e+10
2.66931e+08
7.58271e+08
-5.59823e+10
2.63305e+08
9.16494e+08
-5.65816e+10
2.51864e+08
1.06348e+09
-5.72191e+10
2.2683e+08
1.19922e+09
-5.78533e+10
1.70151e+08
1.28613e+09
-5.83386e+10
5.74806e+07
1.24409e+09
-5.83458e+10
-1.10087e+08
9.2817e+08
-5.7171e+10
-2.87908e+08
1.37891e+08
-5.32602e+10
-8.89373e+08
-1.53377e+09
-4.40139e+10
-3.78462e+09
-5.94139e+09
-2.01583e+10
-1.35741e+10
-1.74955e+10
-6.84665e+09
-8.34118e+09
-5.3639e+10
-1.57678e+09
-5.36114e+10
-1.03189e+09
-5.36019e+10
-8.58722e+08
-5.35903e+10
-6.86593e+08
-5.35994e+10
-5.1398e+08
-5.36158e+10
-3.77826e+08
-5.3641e+10
-2.77386e+08
-5.36728e+10
-1.96996e+08
-5.37046e+10
-1.3515e+08
-5.37412e+10
-9.26055e+07
-5.37794e+10
-7.02564e+07
-5.38183e+10
-6.77707e+07
-5.38527e+10
-8.64351e+07
-5.38801e+10
-1.30043e+08
-5.38976e+10
-1.94499e+08
-5.3899e+10
-2.79972e+08
-5.38819e+10
-3.85052e+08
-5.38425e+10
-5.09095e+08
-5.37771e+10
-6.47206e+08
-5.36819e+10
-7.97368e+08
-5.35512e+10
-9.55535e+08
-5.33815e+10
-1.11447e+09
-5.31746e+10
-1.25436e+09
-5.29405e+10
-1.35555e+09
-5.26969e+10
-1.40209e+09
-5.2461e+10
-1.39294e+09
-5.22479e+10
-1.33343e+09
-5.20681e+10
-1.23701e+09
-5.19243e+10
-1.11782e+09
-5.18189e+10
-9.86219e+08
-5.17487e+10
-8.52164e+08
-5.17102e+10
-7.20984e+08
-5.17011e+10
-5.94268e+08
-5.1717e+10
-4.74444e+08
-5.17571e+10
-3.59709e+08
-5.18194e+10
-2.49444e+08
-5.19041e+10
-1.39305e+08
-5.20135e+10
-2.87634e+07
-5.21477e+10
8.49272e+07
-5.23116e+10
2.06827e+08
-5.25081e+10
3.37389e+08
-5.27433e+10
4.80008e+08
-5.30253e+10
6.32166e+08
-5.33615e+10
7.90029e+08
-5.37699e+10
9.46513e+08
-5.42721e+10
1.07927e+09
-5.48974e+10
1.15079e+09
-5.56374e+10
1.06684e+09
-5.63534e+10
6.13064e+08
-5.63954e+10
-7.08661e+08
-5.47728e+10
-3.63591e+09
-5.20051e+10
-9.25026e+09
-5.34798e+10
-2.12119e+10
-7.30362e+09
-5.31216e+10
5.50054e+07
-1.64774e+09
-5.31777e+10
8.149e+07
-1.19128e+09
-5.32126e+10
9.39642e+07
-1.02125e+09
-5.32573e+10
1.09406e+08
-8.34935e+08
-5.32924e+10
1.09177e+08
-6.81747e+08
-5.33291e+10
1.05739e+08
-5.55394e+08
-5.33649e+10
1.02877e+08
-4.54311e+08
-5.34004e+10
1.05535e+08
-3.74543e+08
-5.34355e+10
1.08914e+08
-3.13782e+08
-5.34715e+10
1.10625e+08
-2.71081e+08
-5.35104e+10
1.09362e+08
-2.43917e+08
-5.35444e+10
1.07776e+08
-2.44851e+08
-5.35703e+10
1.07374e+08
-2.71259e+08
-5.3588e+10
1.07083e+08
-3.23909e+08
-5.35928e+10
1.0661e+08
-4.02266e+08
-5.35804e+10
1.06064e+08
-5.06372e+08
-5.35455e+10
1.05675e+08
-6.35594e+08
-5.34863e+10
1.05491e+08
-7.85292e+08
-5.3399e+10
1.05601e+08
-9.53302e+08
-5.32793e+10
1.06531e+08
-1.13529e+09
-5.31185e+10
1.08051e+08
-1.33162e+09
-5.29107e+10
1.1007e+08
-1.53245e+09
-5.26503e+10
1.13191e+08
-1.71283e+09
-5.23542e+10
1.16326e+08
-1.83874e+09
-5.20422e+10
1.20539e+08
-1.88831e+09
-5.17419e+10
1.24619e+08
-1.86098e+09
-5.14682e+10
1.29285e+08
-1.77154e+09
-5.12291e+10
1.34502e+08
-1.6407e+09
-5.10265e+10
1.40515e+08
-1.48616e+09
-5.0855e+10
1.47289e+08
-1.32424e+09
-5.07119e+10
1.54505e+08
-1.16172e+09
-5.05915e+10
1.61634e+08
-1.00645e+09
-5.04904e+10
1.68088e+08
-8.58215e+08
-5.04064e+10
1.73774e+08
-7.16427e+08
-5.03371e+10
1.78675e+08
-5.78719e+08
-5.02832e+10
1.82512e+08
-4.42123e+08
-5.02448e+10
1.84888e+08
-3.03453e+08
-5.02249e+10
1.85909e+08
-1.59166e+08
-5.02289e+10
1.85744e+08
-4.68726e+06
-5.02564e+10
1.84417e+08
1.59719e+08
-5.03144e+10
1.81937e+08
3.41613e+08
-5.04063e+10
1.78524e+08
5.40322e+08
-5.05377e+10
1.74095e+08
7.54693e+08
-5.0718e+10
1.6863e+08
9.82475e+08
-5.09735e+10
1.63818e+08
1.22305e+09
-5.13483e+10
1.64157e+08
1.47661e+09
-5.19142e+10
1.67517e+08
1.71973e+09
-5.27536e+10
1.65459e+08
1.88085e+09
-5.3989e+10
1.45595e+08
1.8278e+09
-5.52091e+10
-8.13474e+07
1.11743e+09
-5.47335e+10
-1.12892e+09
-1.40492e+09
-4.98183e+10
-3.94728e+09
-7.54672e+09
-3.84182e+10
-1.11236e+10
-1.81382e+10
-4.73051e+09
-3.49659e+09
-5.30412e+10
-1.36333e+09
-5.30795e+10
-9.08739e+08
-5.30916e+10
-7.51628e+08
-5.30903e+10
-5.79481e+08
-5.30849e+10
-4.13097e+08
-5.30798e+10
-2.81487e+08
-5.30778e+10
-1.81792e+08
-5.30744e+10
-1.0102e+08
-5.30686e+10
-3.86238e+07
-5.30617e+10
3.95882e+06
-5.306e+10
2.96468e+07
-5.30587e+10
2.98452e+07
-5.30533e+10
5.16614e+06
-5.30437e+10
-4.49284e+07
-5.30263e+10
-1.1992e+08
-5.29977e+10
-2.19639e+08
-5.29542e+10
-3.4341e+08
-5.28953e+10
-4.86466e+08
-5.28182e+10
-6.45806e+08
-5.27214e+10
-8.1743e+08
-5.25987e+10
-1.00146e+09
-5.24461e+10
-1.18669e+09
-5.2263e+10
-1.34967e+09
-5.20657e+10
-1.4545e+09
-5.18776e+10
-1.48233e+09
-5.17235e+10
-1.43214e+09
-5.16168e+10
-1.32095e+09
-5.15615e+10
-1.17028e+09
-5.15556e+10
-9.98823e+08
-5.15893e+10
-8.23676e+08
-5.16564e+10
-6.51656e+08
-5.17484e+10
-4.90289e+08
-5.18594e+10
-3.3931e+08
-5.19861e+10
-1.98638e+08
-5.21256e+10
-6.63024e+07
-5.22772e+10
6.02922e+07
-5.24397e+10
1.84544e+08
-5.26152e+10
3.09929e+08
-5.2806e+10
4.40145e+08
-5.30082e+10
5.73649e+08
-5.32244e+10
7.18221e+08
-5.34534e+10
8.73908e+08
-5.36958e+10
1.04034e+09
-5.39584e+10
1.21905e+09
-5.42597e+10
1.41214e+09
-5.46344e+10
1.60852e+09
-5.51493e+10
1.78778e+09
-5.59207e+10
1.88411e+09
-5.71156e+10
1.72026e+09
-5.92758e+10
9.91304e+08
-6.3997e+10
-5.71429e+08
-7.30017e+10
-4.77379e+09
-8.93251e+10
-1.65883e+10
1.51827e+10
-5.32186e+10
-1.2474e+08
-1.46485e+09
-5.31446e+10
-1.0613e+08
-1.15706e+09
-5.30731e+10
-9.23121e+07
-1.00081e+09
-5.30032e+10
-8.49734e+07
-8.22379e+08
-5.29309e+10
-8.97193e+07
-6.69195e+08
-5.28658e+10
-9.92561e+07
-5.28493e+08
-5.28168e+10
-1.06158e+08
-4.06783e+08
-5.27832e+10
-1.07725e+08
-3.12199e+08
-5.27638e+10
-1.09659e+08
-2.37196e+08
-5.27574e+10
-1.13403e+08
-1.79316e+08
-5.27539e+10
-1.19506e+08
-1.44801e+08
-5.27537e+10
-1.25525e+08
-1.38609e+08
-5.27528e+10
-1.31129e+08
-1.6309e+08
-5.27445e+10
-1.3688e+08
-2.21047e+08
-5.27217e+10
-1.42615e+08
-3.12289e+08
-5.26754e+10
-1.48054e+08
-4.39164e+08
-5.2598e+10
-1.52886e+08
-5.9928e+08
-5.24813e+10
-1.57037e+08
-7.90947e+08
-5.23188e+10
-1.59765e+08
-1.00883e+09
-5.21048e+10
-1.60917e+08
-1.24787e+09
-5.18299e+10
-1.60031e+08
-1.51306e+09
-5.14712e+10
-1.55575e+08
-1.7998e+09
-5.1022e+10
-1.48289e+08
-2.07284e+09
-5.05036e+10
-1.37834e+08
-2.26419e+09
-4.99733e+10
-1.27204e+08
-2.32731e+09
-4.9482e+10
-1.17367e+08
-2.26637e+09
-4.9064e+10
-1.09424e+08
-2.11496e+09
-4.87323e+10
-1.03266e+08
-1.9121e+09
-4.84819e+10
-9.78418e+07
-1.69093e+09
-4.82996e+10
-9.19529e+07
-1.47589e+09
-4.8168e+10
-8.43998e+07
-1.27818e+09
-4.80735e+10
-7.43339e+07
-1.10305e+09
-4.80035e+10
-6.11758e+07
-9.49484e+08
-4.79488e+10
-4.41715e+07
-8.15235e+08
-4.79011e+10
-2.25387e+07
-6.97304e+08
-4.78565e+10
4.19466e+06
-5.89933e+08
-4.78098e+10
3.64884e+07
-4.91396e+08
-4.77602e+10
7.46797e+07
-3.94799e+08
-4.7704e+10
1.19159e+08
-2.98441e+08
-4.76432e+10
1.70215e+08
-1.97764e+08
-4.75743e+10
2.29346e+08
-9.11409e+07
-4.74986e+10
2.98453e+08
2.3688e+07
-4.7421e+10
3.78908e+08
1.48686e+08
-4.73473e+10
4.71734e+08
2.80985e+08
-4.72972e+10
5.78191e+08
4.25436e+08
-4.73128e+10
7.02771e+08
5.83031e+08
-4.75024e+10
8.50946e+08
7.59672e+08
-4.8083e+10
1.01865e+09
9.47469e+08
-4.93903e+10
1.14748e+09
1.19422e+09
-5.23039e+10
1.16609e+09
1.55864e+09
-5.83974e+10
9.58232e+08
1.92642e+09
-6.79946e+10
-1.02574e+09
1.38693e+09
-7.5405e+10
-1.04753e+10
-1.54701e+09
8.79808e+09
1.70304e+10
-5.10428e+10
-1.33912e+09
-5.10158e+10
-1.04101e+09
-5.09735e+10
-8.86486e+08
-5.09173e+10
-7.22443e+08
-5.0845e+10
-5.78363e+08
-5.07765e+10
-4.54074e+08
-5.07266e+10
-3.44314e+08
-5.06858e+10
-2.57492e+08
-5.06533e+10
-1.90068e+08
-5.06283e+10
-1.4473e+08
-5.06058e+10
-1.23832e+08
-5.05839e+10
-1.3057e+08
-5.05571e+10
-1.67785e+08
-5.05183e+10
-2.38212e+08
-5.04597e+10
-3.41463e+08
-5.0371e+10
-4.79824e+08
-5.02435e+10
-6.5061e+08
-5.00663e+10
-8.51333e+08
-4.98312e+10
-1.07614e+09
-4.95302e+10
-1.31986e+09
-4.91488e+10
-1.58593e+09
-4.86628e+10
-1.87086e+09
-4.80592e+10
-2.1376e+09
-4.73609e+10
-2.31802e+09
-4.66256e+10
-2.36513e+09
-4.59104e+10
-2.28209e+09
-4.52569e+10
-2.10427e+09
-4.46855e+10
-1.8715e+09
-4.41974e+10
-1.61809e+09
-4.37833e+10
-1.36956e+09
-4.34271e+10
-1.13765e+09
-4.31136e+10
-9.28051e+08
-4.28279e+10
-7.40127e+08
-4.25565e+10
-5.71534e+08
-4.22874e+10
-4.1856e+08
-4.20117e+10
-2.74874e+08
-4.17192e+10
-1.38582e+08
-4.14028e+10
-2.54041e+06
-4.10533e+10
1.34975e+08
-4.06637e+10
2.75288e+08
-4.02213e+10
4.22284e+08
-3.97148e+10
5.7961e+08
-3.9131e+10
7.47289e+08
-3.84554e+10
9.24811e+08
-3.76828e+10
1.11958e+09
-3.68325e+10
1.3354e+09
-3.59846e+10
1.59689e+09
-3.5329e+10
1.92101e+09
-3.53656e+10
2.36724e+09
-3.69194e+10
2.92864e+09
-4.11196e+10
3.60199e+09
-5.33261e+10
5.41968e+09
-9.73708e+10
1.6322e+10
8.64288e+09
-5.61062e+10
-9.96699e+07
-1.19823e+09
-5.61918e+10
-1.09882e+08
-9.5915e+08
-5.62539e+10
-1.16142e+08
-8.20167e+08
-5.62983e+10
-1.24079e+08
-6.5223e+08
-5.63343e+10
-1.31998e+08
-5.00586e+08
-5.63651e+10
-1.40341e+08
-3.58281e+08
-5.63992e+10
-1.47091e+08
-2.2844e+08
-5.64427e+10
-1.51606e+08
-1.21389e+08
-5.64951e+10
-1.56556e+08
-3.3928e+07
-5.65537e+10
-1.62386e+08
3.51674e+07
-5.66158e+10
-1.67576e+08
7.75544e+07
-5.66778e+10
-1.71668e+08
8.65463e+07
-5.67372e+10
-1.75198e+08
6.10961e+07
-5.67895e+10
-1.78759e+08
-2.9868e+06
-5.68249e+10
-1.82453e+08
-1.10224e+08
-5.68355e+10
-1.86516e+08
-2.60352e+08
-5.68103e+10
-1.9112e+08
-4.54169e+08
-5.67416e+10
-1.96582e+08
-6.88014e+08
-5.66218e+10
-2.0289e+08
-9.54856e+08
-5.64438e+10
-2.10666e+08
-1.25227e+09
-5.61943e+10
-2.19156e+08
-1.5849e+09
-5.58375e+10
-2.28477e+08
-1.96993e+09
-5.53306e+10
-2.38261e+08
-2.3743e+09
-5.46867e+10
-2.48537e+08
-2.67436e+09
-5.39942e+10
-2.60588e+08
-2.76033e+09
-5.334e+10
-2.71624e+08
-2.6423e+09
-5.2778e+10
-2.81027e+08
-2.39249e+09
-5.23336e+10
-2.87925e+08
-2.0735e+09
-5.20063e+10
-2.92223e+08
-1.74005e+09
-5.17849e+10
-2.94437e+08
-1.4247e+09
-5.16522e+10
-2.95137e+08
-1.14336e+09
-5.15939e+10
-2.94872e+08
-8.9797e+08
-5.15959e+10
-2.93862e+08
-6.8754e+08
-5.16474e+10
-2.92142e+08
-5.06962e+08
-5.17434e+10
-2.89318e+08
-3.48023e+08
-5.18759e+10
-2.84533e+08
-2.09356e+08
-5.20442e+10
-2.77266e+08
-8.26595e+07
-5.22449e+10
-2.67124e+08
3.58417e+07
-5.24827e+10
-2.53791e+08
1.55132e+08
-5.27574e+10
-2.38913e+08
2.77316e+08
-5.30718e+10
-2.2085e+08
4.05351e+08
-5.34332e+10
-1.9683e+08
5.44297e+08
-5.3852e+10
-1.65642e+08
6.99164e+08
-5.4342e+10
-1.26724e+08
8.70845e+08
-5.49286e+10
-7.87937e+07
1.06923e+09
-5.56628e+10
-1.75749e+07
1.30214e+09
-5.66635e+10
7.26178e+07
1.59719e+09
-5.81508e+10
2.08799e+08
2.00205e+09
-6.05627e+10
4.33967e+08
2.68982e+09
-6.44861e+10