/*--------------------------------*- C++ -*----------------------------------*\
| =========                 |                                                 |
| \\      /  F ield         | OpenFOAM: The Open Source CFD Toolbox           |
|  \\    /   O peration     | Version:  4.1                                   |
|   \\  /    A nd           | Web:      www.OpenFOAM.org                      |
|    \\/     M anipulation  |                                                 |
\*---------------------------------------------------------------------------*/
FoamFile
{
    version     2.0;
    format      ascii;
    class       volVectorField;
    location    "96";
    object      U;
}
// * * * * * * * * * * * * * * * * * * * * * * * * * * * * * * * * * * * * * //

dimensions      [0 1 -1 0 0 0 0];

internalField   nonuniform List<vector> 
4432
(
(-151726 -3024.81 -1384.57)
(-153016 -3099.95 -1429.67)
(-153631 -3085.36 -1404.47)
(-154410 -3116.24 -1429.28)
(-155189 -3133.32 -1446.85)
(-156002 -3150.51 -1461.31)
(-156814 -3171.11 -1493.31)
(-157629 -3191.6 -1538.77)
(-158429 -3212.06 -1603.95)
(-159198 -3232.67 -1693.15)
(-159913 -3253.55 -1809.49)
(-160547 -3274.32 -1956.67)
(-161071 -3294.47 -2137.32)
(-161442 -3313.52 -2351.2)
(-161618 -3331.1 -2595.52)
(-161551 -3347.46 -2863.6)
(-161211 -3365.65 -3150.65)
(-160592 -3390.93 -3458.24)
(-159678 -3423.48 -3781.77)
(-158456 -3460.16 -4114)
(-156910 -3500.63 -4448.22)
(-155050 -3544.43 -4772.75)
(-152911 -3592.4 -5074.98)
(-150534 -3642.85 -5343)
(-147972 -3693.08 -5567.41)
(-145264 -3740.69 -5744.84)
(-142458 -3783.72 -5873.28)
(-139592 -3821.2 -5954.31)
(-136718 -3851.97 -5989.74)
(-133872 -3875.38 -5983.03)
(-131098 -3890.74 -5937.82)
(-128429 -3897.53 -5857.83)
(-125887 -3895.64 -5748.07)
(-123500 -3885.13 -5612.18)
(-121277 -3866.84 -5454.95)
(-119232 -3841.29 -5280.1)
(-117378 -3808.2 -5092.05)
(-115720 -3763.94 -4889.99)
(-114284 -3702.33 -4666.98)
(-113082 -3622.97 -4423.17)
(-112088 -3525.41 -4161.05)
(-111243 -3401.52 -3863.06)
(-110349 -3245.73 -3509.37)
(-109222 -3054.06 -3051.35)
(-108252 -2822.79 -2414.27)
(-108806 -2553.91 -1543.57)
(-111940 -2277.52 -537.767)
(-115065 -2020.68 612.792)
(-112351 -1489.53 2678.32)
(-107016 406.064 8231.43)
(-121227 6458.61 14234)
(-163965 12855.3 17106.6)
(-182999 20663.4 -4259.34)
(-56698 8817.51 -7868.8)
(-187415 3286.4 -46.476)
(-188380 3251.52 -9.81168)
(-188951 3282.56 -19.8631)
(-189654 3277.99 -8.75766)
(-190339 3284.83 -9.21037)
(-191062 3292.69 -7.00154)
(-191786 3298.42 -17.7719)
(-192511 3304.87 -40.2155)
(-193224 3311.85 -80.0509)
(-193912 3318.95 -140.175)
(-194555 3325.8 -223.48)
(-195128 3332.44 -332.898)
(-195607 3338.97 -470.457)
(-195954 3345.47 -635.487)
(-196135 3352 -826.217)
(-196112 3358.3 -1040.12)
(-195860 3362.87 -1271.86)
(-195367 3365.27 -1513.94)
(-194639 3367.45 -1764.52)
(-193666 3371.62 -2019.89)
(-192442 3378.33 -2272.17)
(-190978 3387.61 -2511.23)
(-189305 3398.53 -2726.04)
(-187460 3413 -2907.48)
(-185489 3431.96 -3048.99)
(-183425 3456.77 -3148.37)
(-181308 3487.09 -3205.57)
(-179165 3522.83 -3222.89)
(-177032 3562.74 -3203.39)
(-174931 3606.16 -3150.78)
(-172888 3651.77 -3068.97)
(-170916 3698.29 -2961.5)
(-169019 3744.53 -2831.56)
(-167206 3788.55 -2681.98)
(-165472 3829.29 -2514.96)
(-163814 3865.75 -2332.42)
(-162224 3896.59 -2137.54)
(-160688 3922.35 -1930.01)
(-159191 3942.55 -1701.21)
(-157726 3955.23 -1443.57)
(-156276 3964.66 -1153.3)
(-154769 3974.45 -819.675)
(-153028 3984.83 -424.653)
(-150878 3994.21 67.584)
(-148553 3999.44 716.719)
(-146993 3991.57 1564.36)
(-146929 3944.15 2547.25)
(-146339 3836.77 3646.67)
(-140521 3852.77 5377.47)
(-130733 4672.57 8849.62)
(-136463 7873.35 10768)
(-162718 9600.15 10361)
(-183932 7165.52 4249.93)
(11776.8 7189.11 -20674)
(-268354 -1352.69 3149.38)
(-268439 -1356.84 3176.22)
(-268509 -1375.89 3242.35)
(-268612 -1376.98 3296.59)
(-268707 -1382.33 3349.6)
(-268829 -1386.42 3408.04)
(-268961 -1390.57 3457.37)
(-269100 -1394.13 3495.95)
(-269244 -1397.61 3518.39)
(-269389 -1400.79 3521.52)
(-269530 -1404.23 3502.38)
(-269660 -1407.9 3458.17)
(-269767 -1411.62 3387.47)
(-269837 -1415.23 3289.91)
(-269852 -1419.16 3166.05)
(-269799 -1426.19 3016.21)
(-269669 -1437.09 2843.26)
(-269482 -1448.14 2658.11)
(-269241 -1460.1 2460.18)
(-268949 -1473.17 2258.53)
(-268601 -1485.95 2060.68)
(-268205 -1498.33 1881.73)
(-267781 -1510.52 1737.3)
(-267352 -1522.15 1643.65)
(-266945 -1532.37 1610.53)
(-266567 -1540.36 1640.41)
(-266233 -1545.93 1732.01)
(-265942 -1549.35 1879.6)
(-265707 -1550.8 2077.22)
(-265530 -1550.56 2316.79)
(-265423 -1548.69 2590.85)
(-265393 -1545.32 2891.42)
(-265448 -1540.13 3211.75)
(-265604 -1532.93 3546.37)
(-265874 -1522.99 3890.23)
(-266282 -1509.96 4240.94)
(-266855 -1493.93 4598.16)
(-267633 -1473.85 4963.24)
(-268659 -1444.54 5338.15)
(-269999 -1402.42 5729.96)
(-271747 -1345.48 6147.03)
(-273935 -1270.93 6597.22)
(-276548 -1172.59 7100.6)
(-279586 -1045.65 7698.46)
(-283339 -879.644 8450.61)
(-288684 -663.644 9355.45)
(-296416 -390.024 10260.6)
(-305778 -60.0233 11026.1)
(-313141 488.136 12276.7)
(-320718 1600.7 14651.6)
(-337817 3318.28 16825.5)
(-409585 4213.57 12300)
(-475887 7861.24 -3735.67)
(-472469 16345.8 -22345)
(-307144 1495.61 1788.15)
(-307067 1455.46 1823.2)
(-307044 1423.69 1824.58)
(-307032 1401.98 1863.4)
(-307032 1378.32 1888.73)
(-307057 1355.49 1919.06)
(-307097 1332.81 1942.46)
(-307151 1310.93 1956.67)
(-307219 1289.63 1956.1)
(-307299 1269.34 1938.3)
(-307390 1250.03 1900.46)
(-307487 1232.19 1839.99)
(-307583 1216.38 1755.11)
(-307666 1203.51 1645.46)
(-307726 1193.53 1511.94)
(-307749 1184.47 1356.31)
(-307734 1175.16 1181.1)
(-307685 1165.22 989.813)
(-307599 1152.9 786.393)
(-307478 1138.08 576.509)
(-307324 1122.02 368.179)
(-307143 1105.14 173.555)
(-306949 1087.46 8.27102)
(-306759 1069.67 -114.362)
(-306593 1052.77 -185.561)
(-306453 1038.15 -203.08)
(-306350 1026.21 -168.647)
(-306278 1017.46 -87.8512)
(-306240 1011.96 32.8747)
(-306230 1009.87 185.77)
(-306248 1011.19 364.145)
(-306286 1016.03 561.68)
(-306337 1024.71 773.243)
(-306398 1037.32 994.959)
(-306460 1054.49 1223.8)
(-306523 1076.23 1458.83)
(-306589 1101.96 1700.78)
(-306673 1131.71 1950.49)
(-306790 1170.42 2207.5)
(-306936 1220.63 2473.69)
(-307130 1278.56 2756.74)
(-307366 1343.59 3064.94)
(-307575 1417.66 3414.61)
(-307707 1499.17 3841.75)
(-307945 1587.28 4401.95)
(-308912 1675.99 5111.54)
(-311102 1748.91 5900.41)
(-313424 1752.39 6786.84)
(-312693 1811.07 8316.63)
(-310003 2140.5 10713.3)
(-312131 2537.07 12665.1)
(-344246 -2370.3 14691.2)
(-337037 5431.08 3145.4)
(-311943 1669.08 3840.49)
(-224060 -2579.81 -1617.14)
(-223698 -2546.36 -1562.94)
(-223548 -2574.48 -1541.27)
(-223381 -2563.56 -1494.43)
(-223237 -2561.59 -1464.97)
(-223107 -2559.52 -1443.61)
(-222993 -2559.14 -1431.58)
(-222892 -2559.25 -1434.97)
(-222802 -2561.35 -1458.53)
(-222724 -2565.35 -1505.54)
(-222656 -2572.14 -1580.86)
(-222598 -2582.1 -1687.65)
(-222544 -2595.9 -1828.41)
(-222487 -2613.71 -2006.25)
(-222412 -2635.16 -2224.88)
(-222295 -2658.18 -2490.92)
(-222114 -2682.07 -2803.24)
(-221794 -2708.43 -3166.78)
(-221328 -2734.06 -3571.21)
(-220699 -2758.92 -4007.36)
(-219896 -2780.98 -4460.12)
(-218917 -2801.04 -4910.13)
(-217784 -2816.83 -5330.5)
(-216534 -2828.48 -5696.49)
(-215211 -2834.44 -5991.18)
(-213846 -2834.23 -6208.23)
(-212466 -2828.53 -6349.18)
(-211088 -2819.2 -6422.18)
(-209724 -2808.6 -6436.6)
(-208381 -2799.42 -6403.76)
(-207057 -2793.52 -6333.32)
(-205745 -2791.1 -6234.45)
(-204435 -2791.86 -6112.98)
(-203113 -2795.26 -5973.6)
(-201761 -2800.32 -5818.61)
(-200363 -2805.9 -5647.58)
(-198899 -2809.6 -5457.3)
(-197349 -2812.44 -5245.52)
(-195697 -2816.16 -5009.58)
(-193917 -2815.68 -4746.41)
(-191993 -2801.96 -4450.6)
(-189880 -2771.84 -4117.63)
(-187406 -2723.37 -3733.12)
(-184393 -2652.44 -3262.2)
(-181049 -2546.8 -2638.12)
(-178316 -2377.96 -1817.95)
(-177078 -2105.07 -843.108)
(-175059 -1648.18 136.741)
(-167394 -691.252 1140.05)
(-155406 1414.33 2750.44)
(-160989 6540.72 8693.15)
(-204225 12119.9 16818.8)
(-229293 25402.1 5758.17)
(-83362.1 10466.9 -831.453)
(-254674 2876.7 131.259)
(-253829 2900.99 146.595)
(-253463 2873.3 163.263)
(-252997 2879.96 192.612)
(-252616 2879.38 210.816)
(-252260 2879.35 222.745)
(-251940 2878.33 229.372)
(-251653 2877.25 224.121)
(-251400 2874.61 202.721)
(-251183 2870.08 161.565)
(-251001 2862.6 96.2184)
(-250854 2851.38 3.06861)
(-250738 2835.2 -121.306)
(-250647 2813.1 -281.304)
(-250569 2785.18 -480.817)
(-250493 2753.25 -722.153)
(-250396 2717.93 -1005.48)
(-250263 2677.08 -1328.15)
(-250072 2635.87 -1686.23)
(-249815 2594.59 -2068.98)
(-249480 2556.21 -2465.18)
(-249067 2519.96 -2856.85)
(-248588 2487.73 -3221.65)
(-248069 2459.09 -3539.23)
(-247532 2434.93 -3795.56)
(-246988 2415.14 -3985.83)
(-246446 2398.55 -4111.66)
(-245901 2383.08 -4180.69)
(-245350 2366.35 -4201.68)
(-244784 2346.63 -4184.2)
(-244195 2323.76 -4135.7)
(-243564 2297.73 -4063.12)
(-242875 2268.64 -3971.76)
(-242103 2236.64 -3865.32)
(-241224 2202.11 -3745.87)
(-240209 2165.44 -3613.45)
(-239020 2130.49 -3470.16)
(-237610 2098.23 -3318.91)
(-235946 2065.55 -3159.59)
(-234019 2033.57 -2987.48)
(-231800 2009.96 -2799.92)
(-229212 1995.12 -2595.47)
(-226090 1986.61 -2366.94)
(-222259 1983.31 -2088.75)
(-217866 1988.19 -1723.48)
(-213583 2019.48 -1252.12)
(-209842 2099.19 -715.809)
(-204507 2277.79 -166.655)
(-193400 2759.26 607.588)
(-178169 3955.05 2030.38)
(-179609 6261.22 5288.82)
(-202570 6276.58 7818.18)
(-202801 8417.22 9442.69)
(22996.7 8312.52 -2038.46)
(-247936 -3337.85 2187.93)
(-247742 -3335.31 2390.42)
(-247606 -3332.17 2470.97)
(-247491 -3320.05 2580.84)
(-247409 -3308.06 2675.99)
(-247352 -3295.18 2761.12)
(-247319 -3280.46 2834.06)
(-247310 -3264.31 2892.29)
(-247318 -3247.21 2931.28)
(-247340 -3229.1 2945.53)
(-247368 -3210.34 2928.36)
(-247391 -3190.95 2874.69)
(-247393 -3171.32 2778.62)
(-247357 -3152.06 2633.77)
(-247259 -3134.16 2433.72)
(-247078 -3117.4 2173.96)
(-246796 -3104.52 1854.79)
(-246438 -3099.68 1482.45)
(-246002 -3106.86 1071.82)
(-245485 -3125.75 636.132)
(-244881 -3158.35 198.65)
(-244188 -3204.29 -216.699)
(-243424 -3265.21 -574.078)
(-242624 -3340.44 -846.058)
(-241830 -3427.28 -1013.25)
(-241073 -3521.94 -1072.83)
(-240372 -3620.5 -1033.89)
(-239741 -3719.96 -913.612)
(-239188 -3818.16 -731.767)
(-238718 -3912.93 -507.532)
(-238335 -4002.5 -256.367)
(-238039 -4085.15 9.42049)
(-237831 -4160.42 281.889)
(-237708 -4227.68 555.605)
(-237673 -4286.06 828.528)
(-237730 -4335.54 1100.41)
(-237884 -4378 1370.97)
(-238144 -4413.82 1640.62)
(-238528 -4444.75 1913.79)
(-239068 -4473.36 2202.68)
(-239797 -4501.52 2521.48)
(-240697 -4529.59 2875.11)
(-241671 -4560.78 3274.1)
(-242606 -4599.06 3738.67)
(-243743 -4655.93 4319.82)
(-246051 -4746.63 5122.81)
(-250434 -4875.04 6300.41)
(-255516 -5020.77 7984.38)
(-256653 -4947.9 10193)
(-255746 -4783.18 13050.5)
(-271580 -5023.63 18894.1)
(-339657 -6416.86 29536.2)
(-371787 14154.9 30524.7)
(-490475 25606.1 -61499)
(-236251 2874.13 908.617)
(-235964 2851.04 1070.32)
(-235876 2822.48 1204.12)
(-235762 2804.69 1318.2)
(-235715 2782.9 1432.3)
(-235696 2759.72 1536.17)
(-235713 2735.85 1631.23)
(-235763 2710.87 1712.72)
(-235844 2684.37 1777.75)
(-235952 2656.47 1820.58)
(-236081 2626.94 1835.09)
(-236222 2595.79 1816.2)
(-236361 2562.7 1758.8)
(-236483 2527.42 1656.28)
(-236567 2489.05 1501.76)
(-236588 2447.92 1288.26)
(-236526 2402.9 1011.59)
(-236366 2351.41 676.859)
(-236109 2287.08 298.092)
(-235748 2211.11 -109.669)
(-235272 2122.52 -525.707)
(-234681 2022.77 -921.423)
(-233997 1911.42 -1263.69)
(-233258 1790.41 -1522.82)
(-232510 1663.54 -1681.11)
(-231787 1535.22 -1735.7)
(-231116 1409.42 -1696.4)
(-230511 1288.65 -1581.65)
(-229980 1174.17 -1412.91)
(-229524 1067.09 -1210.84)
(-229143 968.103 -992.965)
(-228831 877.924 -774.22)
(-228583 796.159 -565.067)
(-228391 722.684 -373.584)
(-228248 657.701 -205.367)
(-228144 599.932 -64.3439)
(-228078 546.51 47.5877)
(-228058 494.914 137.733)
(-228092 441.375 216.889)
(-228199 383.938 294.745)
(-228393 318.394 385.563)
(-228641 242.342 506.562)
(-228807 151.154 677.879)
(-228741 38.3111 937.261)
(-228616 -116.009 1339.14)
(-229360 -339.918 1994.91)
(-231678 -651.441 3054.99)
(-233546 -1039.19 4566.17)
(-230175 -1236.71 6136.28)
(-222875 -1549.1 7789.84)
(-230070 -2586.37 11630.7)
(-265767 -7933.92 22192.6)
(-278048 10144 28831.7)
(-221263 -9665.56 1473.14)
(-230666 -1389.48 -982.116)
(-230178 -1395.4 -871.357)
(-229910 -1376.3 -776.047)
(-229607 -1361.4 -687.009)
(-229341 -1340.97 -601.323)
(-229093 -1318.24 -521.459)
(-228867 -1291.81 -452.588)
(-228663 -1262.39 -399.144)
(-228481 -1229.73 -366.32)
(-228320 -1193.57 -361.684)
(-228177 -1154.15 -393.322)
(-228048 -1111.67 -467.438)
(-227925 -1066.16 -589.666)
(-227800 -1018.03 -765.064)
(-227658 -967.318 -1000.09)
(-227479 -914.024 -1298.77)
(-227238 -858.835 -1667.85)
(-226899 -798.704 -2105.44)
(-226452 -736.294 -2604.42)
(-225882 -670.767 -3142.83)
(-225175 -604.594 -3696.84)
(-224327 -537.5 -4224.17)
(-223363 -475.213 -4679)
(-222341 -420.717 -5017.65)
(-221330 -378.961 -5217.02)
(-220389 -352.334 -5278.02)
(-219554 -342.813 -5220.36)
(-218840 -351.948 -5074.86)
(-218248 -380.749 -4874.98)
(-217768 -428.763 -4650.03)
(-217383 -494.828 -4422.36)
(-217070 -577.823 -4207.69)
(-216808 -676.687 -4016.51)
(-216574 -791.323 -3854.39)
(-216345 -922.171 -3722.96)
(-216102 -1068.11 -3621.6)
(-215824 -1227.67 -3550.94)
(-215503 -1400.01 -3509.6)
(-215138 -1584.71 -3498.32)
(-214736 -1777.61 -3517.37)
(-214304 -1971.38 -3565.21)
(-213801 -2157.04 -3640.23)
(-213072 -2319.41 -3747.05)
(-211933 -2438.94 -3893.84)
(-210544 -2495.96 -4084.54)
(-209742 -2464.08 -4277.89)
(-210292 -2292.11 -4347.4)
(-210259 -1889 -4248.12)
(-204769 -1241.22 -4027.23)
(-193114 -697.963 -3830.91)
(-196338 253.005 -995.376)
(-235270 2885.49 8931.32)
(-298214 26082.2 59400.8)
(-257254 19180.3 11236)
(-233339 5461.2 -151.627)
(-233274 5513.91 9.91799)
(-233240 5545.57 143.208)
(-233236 5585.34 256.291)
(-233267 5625.81 371.706)
(-233328 5668.14 480.112)
(-233418 5712.62 577.574)
(-233535 5758.53 657.474)
(-233676 5806.04 714.595)
(-233840 5855.01 740.504)
(-234018 5904.79 726.783)
(-234201 5954.7 665.504)
(-234376 6003.92 549.082)
(-234528 6051.01 370.583)
(-234638 6094.7 121.656)
(-234682 6133.28 -206.739)
(-234637 6163.07 -620.342)
(-234481 6183.68 -1120.38)
(-234197 6191.45 -1700.52)
(-233767 6185.67 -2344.06)
(-233173 6163.02 -3023.86)
(-232406 6124.33 -3696.73)
(-231482 6064.94 -4316.3)
(-230451 5985.5 -4840.46)
(-229381 5888.11 -5239.33)
(-228333 5778.23 -5505.25)
(-227356 5661.41 -5649.76)
(-226481 5542.51 -5698.13)
(-225726 5425.1 -5681.17)
(-225094 5312.64 -5626.39)
(-224584 5207.36 -5555.02)
(-224188 5110.55 -5483.05)
(-223886 5020.01 -5430.52)
(-223659 4933.19 -5410.33)
(-223496 4848 -5426.98)
(-223382 4762.61 -5480.04)
(-223306 4675.6 -5566.91)
(-223255 4586.46 -5683.34)
(-223218 4494.44 -5820.9)
(-223192 4402.54 -5967.48)
(-223163 4314.33 -6111.25)
(-223061 4234.13 -6238.17)
(-222696 4169.21 -6333.76)
(-221846 4129.26 -6387.95)
(-220625 4122.71 -6369.64)
(-219803 4159.38 -6193.15)
(-219946 4259.23 -5726.5)
(-218866 4442.57 -4992.68)
(-211990 4673.91 -4369.31)
(-200052 4607.55 -4176.31)
(-200147 3737.28 -1571.76)
(-211065 -37.6588 7802.13)
(-201199 13627.9 55570.7)
(-46562.1 10771 30054)
(-230415 -3377.29 -3314.6)
(-230266 -3442.37 -3139.95)
(-230184 -3473.27 -2997.68)
(-230107 -3514.7 -2869.61)
(-230058 -3553.24 -2749.14)
(-230029 -3592.33 -2643.44)
(-230024 -3629.61 -2557.01)
(-230038 -3666.29 -2495.95)
(-230072 -3701.99 -2467.17)
(-230123 -3735.82 -2479.16)
(-230181 -3766.58 -2540.95)
(-230233 -3793.63 -2661.46)
(-230261 -3816.38 -2848.98)
(-230246 -3834.78 -3111.29)
(-230161 -3848.14 -3455.49)
(-229974 -3856.88 -3887.87)
(-229645 -3858.94 -4412.41)
(-229137 -3855.29 -5020.85)
(-228417 -3842.94 -5701.74)
(-227452 -3821.07 -6429.52)
(-226198 -3784.14 -7172.39)
(-224624 -3729.7 -7869.26)
(-222746 -3654.53 -8445.74)
(-220636 -3559.35 -8823.75)
(-218404 -3446.26 -8964.52)
(-216158 -3318.63 -8869.52)
(-213984 -3181.96 -8573.47)
(-211942 -3044.39 -8128.63)
(-210065 -2915.18 -7590.97)
(-208366 -2801.77 -7010.31)
(-206845 -2708.66 -6424.92)
(-205496 -2640.04 -5861.75)
(-204305 -2599.44 -5338.32)
(-203260 -2590.54 -4864.03)
(-202345 -2615.23 -4442.74)
(-201551 -2674.28 -4073.46)
(-200868 -2766.16 -3751.36)
(-200289 -2887.6 -3467.88)
(-199814 -3032.53 -3212.96)
(-199453 -3193.15 -2973.68)
(-199214 -3357.5 -2733.43)
(-199047 -3512.71 -2473.36)
(-198780 -3643.8 -2176.4)
(-198196 -3732.86 -1828.4)
(-197420 -3753.78 -1409.18)
(-197320 -3666.13 -853.425)
(-198706 -3412.34 -53.6418)
(-199562 -2909.09 1043.22)
(-194551 -2012.83 2520.47)
(-182466 -655.221 4690.95)
(-179617 1982.19 8883.69)
(-192369 7656.22 16934.2)
(-210216 34797.5 61989.8)
(-106219 20427.8 28004.8)
(-240543 7247.3 4312.57)
(-240524 7347.15 4716.23)
(-240460 7397.74 4958.33)
(-240449 7456.37 5222.39)
(-240442 7512.06 5475.11)
(-240460 7566.38 5719.3)
(-240499 7619.96 5948.9)
(-240560 7671.33 6157.4)
(-240641 7720.33 6337.06)
(-240741 7767.07 6478.74)
(-240853 7811.95 6572.74)
(-240970 7854.84 6608.82)
(-241077 7895.38 6576.46)
(-241163 7932.84 6465.16)
(-241207 7966.92 6263.95)
(-241186 7996.26 5962.86)
(-241070 8021.91 5555.3)
(-240834 8041.72 5041.73)
(-240453 8057.34 4430.73)
(-239903 8068.16 3738.21)
(-239151 8078.8 2990.82)
(-238177 8089.54 2239.98)
(-237003 8102.11 1560.63)
(-235698 8114.31 1026.24)
(-234350 8122.96 674.243)
(-233040 8124.78 507.82)
(-231818 8114.88 505.153)
(-230716 8088.77 631.611)
(-229759 8044.74 842.488)
(-228952 7982.31 1101.76)
(-228288 7902.19 1380.78)
(-227748 7802.54 1653.7)
(-227314 7683.03 1908.37)
(-226966 7542.29 2142.16)
(-226679 7379.85 2356.34)
(-226427 7195.09 2553.88)
(-226184 6988.82 2741.74)
(-225922 6763.11 2931.03)
(-225614 6521.96 3133.48)
(-225235 6270.87 3362.04)
(-224743 6018.34 3628.69)
(-224037 5772.79 3939.87)
(-222904 5543.22 4291.53)
(-221095 5338.19 4664.04)
(-218661 5169.69 5033.52)
(-216236 5052.37 5387.11)
(-214267 4990.58 5684.02)
(-210845 4993.54 5798.19)
(-201537 5096.22 5505.19)
(-185955 5189.25 5036.05)
(-177841 5174.17 4710.32)
(-196022 5843.75 10074.9)
(-177128 15384.4 21485.6)
(83294 9551.28 7117.26)
(-235162 -4174.61 -4193.92)
(-235386 -4197.83 -4016.02)
(-235492 -4236.96 -3904.08)
(-235661 -4266.98 -3790.71)
(-235844 -4300.08 -3690.18)
(-236053 -4332.17 -3601.69)
(-236286 -4362.02 -3527.06)
(-236541 -4390.33 -3468.97)
(-236820 -4419.08 -3434.28)
(-237120 -4447.92 -3430.13)
(-237436 -4477.12 -3465.57)
(-237757 -4506.99 -3552.94)
(-238070 -4537.44 -3707.2)
(-238361 -4568.86 -3945.47)
(-238610 -4601.36 -4285.09)
(-238792 -4634.67 -4745.54)
(-238871 -4667.93 -5338.84)
(-238810 -4701.97 -6072.11)
(-238577 -4736.38 -6934.19)
(-238131 -4773.28 -7911.56)
(-237416 -4813.02 -8969.98)
(-236371 -4857.23 -10042.2)
(-234986 -4908.01 -11001.9)
(-233332 -4968.95 -11717.9)
(-231533 -5035.74 -12117)
(-229705 -5102.44 -12203)
(-227930 -5161.34 -12029.1)
(-226252 -5204.72 -11669.7)
(-224682 -5226.75 -11197.9)
(-223214 -5224.95 -10672.8)
(-221829 -5197.1 -10137.2)
(-220504 -5144.05 -9617.15)
(-219218 -5068.77 -9126.17)
(-217946 -4972.31 -8669.64)
(-216665 -4854.6 -8248.89)
(-215355 -4715.56 -7863.3)
(-213991 -4553.8 -7510.93)
(-212550 -4367.4 -7191.35)
(-211008 -4153.79 -6904.17)
(-209348 -3910.78 -6650.58)
(-207538 -3637.33 -6434.14)
(-205496 -3336.29 -6262.52)
(-203023 -3016.62 -6153.58)
(-199875 -2694.3 -6137.54)
(-196128 -2395.55 -6254.56)
(-192567 -2157.36 -6543.69)
(-189978 -2041.1 -7078.69)
(-186526 -2111.67 -7827.98)
(-177338 -2517.76 -8637.48)
(-160907 -3124.46 -9319.97)
(-153210 -3684.19 -8676.84)
(-178054 -457.223 -1076.84)
(-174695 -2140.39 -7549.91)
(58718.5 -1787.37 -12628.7)
(-237381 4684.76 4665.56)
(-237105 4592.59 4881.9)
(-236914 4533.34 5055.55)
(-236747 4463.73 5221.69)
(-236595 4390.51 5378.68)
(-236472 4312.8 5528.76)
(-236376 4232.23 5668.17)
(-236313 4148.24 5795.43)
(-236283 4063 5905.59)
(-236288 3977.82 5991.86)
(-236323 3894.77 6045.6)
(-236384 3815.63 6055.04)
(-236458 3741.83 6005.51)
(-236535 3675.23 5880.11)
(-236595 3617.94 5660.62)
(-236613 3572.98 5328.2)
(-236554 3544.7 4868.38)
(-236381 3535.48 4276.02)
(-236061 3548.54 3556.72)
(-235552 3583.45 2721.24)
(-234784 3640 1795.43)
(-233698 3715.31 857.397)
(-232256 3802.23 30.7004)
(-230555 3890.92 -549.833)
(-228751 3976.61 -814.348)
(-227007 4055.3 -773.69)
(-225453 4126.64 -486.567)
(-224163 4189.93 -27.5438)
(-223151 4240.91 522.469)
(-222399 4273.91 1100.42)
(-221886 4287.34 1671.5)
(-221548 4280.92 2204.76)
(-221353 4252.94 2694.42)
(-221290 4202.19 3135.1)
(-221342 4129.04 3525.23)
(-221501 4034.09 3868.85)
(-221761 3919.67 4171.47)
(-222122 3789.71 4437.31)
(-222588 3649.67 4669.84)
(-223172 3505.36 4870.72)
(-223882 3362.85 5038.22)
(-224674 3225.04 5164.07)
(-225395 3089.73 5228.63)
(-225850 2948.22 5193.49)
(-226142 2780.04 4991.46)
(-227029 2546.41 4521.82)
(-229200 2181.49 3603.31)
(-230510 1571.2 1944.57)
(-224944 452 -995.767)
(-209406 -1113.97 -4484.01)
(-199839 -1607.73 -7556.6)
(-220678 61.3726 -10433)
(-199478 -4590.42 -44881.1)
(-13212.5 -1995.06 -28497.1)
(-232264 -2629.68 -3721.62)
(-232142 -2644.61 -3367.64)
(-232105 -2650.12 -3179.16)
(-232089 -2667.02 -2935.71)
(-232110 -2684.85 -2699.35)
(-232163 -2704.52 -2454.51)
(-232253 -2725.48 -2208.26)
(-232381 -2749.18 -1967.27)
(-232550 -2775.95 -1744.03)
(-232763 -2805.92 -1553.97)
(-233018 -2839.47 -1416.71)
(-233311 -2876.86 -1355.97)
(-233634 -2918.08 -1398.32)
(-233974 -2963.29 -1570.69)
(-234316 -3012.61 -1898)
(-234632 -3065.05 -2400.06)
(-234881 -3120.06 -3086.11)
(-235017 -3174.81 -3950.66)
(-235002 -3229.5 -4971.31)
(-234796 -3282.14 -6128.25)
(-234323 -3330.49 -7393.42)
(-233480 -3368.03 -8682.85)
(-232235 -3392.88 -9796.09)
(-230729 -3404.43 -10495.2)
(-229204 -3406.82 -10659)
(-227874 -3404.69 -10330.9)
(-226861 -3402.11 -9630.03)
(-226202 -3400.63 -8690.67)
(-225879 -3399.16 -7629.01)
(-225849 -3395.98 -6525.2)
(-226064 -3390.37 -5427.53)
(-226487 -3379.2 -4357.95)
(-227093 -3357.13 -3321.87)
(-227873 -3319.9 -2315.53)
(-228830 -3264.91 -1331.41)
(-229982 -3188.73 -360.324)
(-231353 -3088.49 607.01)
(-232982 -2960.81 1577.81)
(-234917 -2801.83 2557.83)
(-237228 -2606.5 3549.9)
(-239991 -2370.36 4551.09)
(-243252 -2089.08 5549.86)
(-246965 -1760.38 6515.52)
(-251055 -1386.21 7385.89)
(-255751 -977.143 8046.09)
(-262007 -560.488 8310.42)
(-270821 -189.731 7840.1)
(-280671 -8.72295 6008.73)
(-284252 -157.106 1877.44)
(-278005 -791.403 -5162.37)
(-274166 -1256.4 -15084.6)
(-291983 -2377.52 -28032.4)
(-236885 -9566.97 -68377.5)
(-112767 -6370.68 -36529.3)
(-244727 1839.97 3791.58)
(-245492 1800.47 4032.28)
(-245933 1827.12 4209.93)
(-246511 1830.89 4406.83)
(-247096 1847.58 4607.08)
(-247723 1869.94 4817.49)
(-248390 1900.56 5030.69)
(-249096 1938.27 5240.65)
(-249841 1983.03 5435.87)
(-250622 2034.94 5601.36)
(-251431 2093.73 5718.15)
(-252256 2158.67 5763.19)
(-253080 2228.97 5710.54)
(-253879 2303.07 5532.98)
(-254624 2378.75 5204.1)
(-255271 2454.15 4701.15)
(-255765 2526.29 4010.63)
(-256045 2593.8 3135.38)
(-256062 2652 2092.11)
(-255768 2698.49 897.823)
(-255083 2732.02 -423.681)
(-253906 2755.86 -1764.17)
(-252247 2766.43 -2952.3)
(-250203 2767.25 -3768.12)
(-247986 2757.92 -4095.56)
(-245793 2739.4 -3970.89)
(-243748 2712.64 -3506.13)
(-241908 2679.96 -2830.15)
(-240283 2644.74 -2056.16)
(-238857 2609.12 -1265.05)
(-237605 2573.36 -491.653)
(-236528 2536.37 235.51)
(-235610 2497.89 926.874)
(-234837 2455.9 1587.08)
(-234206 2409.15 2218.36)
(-233717 2359.37 2832.3)
(-233375 2308.03 3439.97)
(-233196 2258.67 4051.5)
(-233209 2215.5 4677.04)
(-233460 2184 5323.56)
(-234000 2170.42 5996.01)
(-234849 2181.71 6695.48)
(-235941 2223.98 7416.63)
(-237197 2300.03 8142.63)
(-238861 2406.29 8840.74)
(-241969 2530.85 9462.5)
(-247724 2643.56 9924.36)
(-255062 2631.76 9856.65)
(-258503 2323.85 8268.92)
(-256518 1759.71 3488.54)
(-259123 10.642 -7807.57)
(-292576 -4066.37 -32356.5)
(-294269 -13765.7 -93761.1)
(-211146 -7560.86 -41226.6)
(-231765 -3156.91 -3732.3)
(-231355 -3230.76 -3343.92)
(-231184 -3249.04 -3125.55)
(-230991 -3294.49 -2858.98)
(-230859 -3338.02 -2606.47)
(-230773 -3386.27 -2357.15)
(-230746 -3438.92 -2124.5)
(-230788 -3497.54 -1920.47)
(-230910 -3562.06 -1759.61)
(-231118 -3632.56 -1657.19)
(-231415 -3708.99 -1631.13)
(-231797 -3791.05 -1700.93)
(-232253 -3878.31 -1887.58)
(-232761 -3970.86 -2213.72)
(-233290 -4069.2 -2702.84)
(-233789 -4173.54 -3376.77)
(-234184 -4283.02 -4255.31)
(-234393 -4395.73 -5344.81)
(-234350 -4509.76 -6641.28)
(-233991 -4621.55 -8147.43)
(-233173 -4725.07 -9888.95)
(-231634 -4815.14 -11811.4)
(-229189 -4889.81 -13617.4)
(-225995 -4943.91 -14830.1)
(-222520 -4971 -15183.9)
(-219213 -4969.87 -14774.8)
(-216327 -4943.81 -13845.7)
(-213954 -4896.7 -12637.9)
(-212076 -4831.65 -11338.2)
(-210621 -4750.22 -10053.7)
(-209505 -4654.64 -8838.08)
(-208651 -4541.37 -7708.15)
(-208001 -4405.61 -6660.1)
(-207510 -4244.94 -5679.11)
(-207151 -4056.91 -4743.97)
(-206903 -3836.7 -3831.21)
(-206755 -3581.58 -2915.6)
(-206703 -3290.52 -1970.02)
(-206750 -2962.98 -962.445)
(-206916 -2600.43 144.574)
(-207221 -2206.84 1395.15)
(-207649 -1788.4 2840.17)
(-208081 -1351.75 4532.69)
(-208382 -900.501 6521.83)
(-208783 -434.007 8851.29)
(-210364 44.3346 11542.1)
(-214339 541.125 14504.5)
(-219604 1129.19 17261.8)
(-221363 2000.28 18620.1)
(-220446 3262.4 18092.8)
(-235965 4646.03 14104.5)
(-298906 4400.82 2077.87)
(-331905 -4255.35 -42376.8)
(-193844 1015.2 235.24)
(-243621 2662.53 5275.95)
(-244159 2813.38 5662.26)
(-244403 2935.37 5841.55)
(-244727 3046.5 6082.28)
(-245026 3162.56 6303.85)
(-245326 3276.78 6520.42)
(-245627 3389.26 6719.65)
(-245931 3497.58 6892.43)
(-246239 3600.55 7026.26)
(-246553 3696.78 7107.32)
(-246870 3784.55 7119.78)
(-247187 3862.1 7046.11)
(-247496 3927.48 6866.8)
(-247787 3978.43 6560.74)
(-248049 4012.48 6105.59)
(-248256 4027.19 5479.21)
(-248373 4021.26 4663.85)
(-248361 3995.84 3654.34)
(-248205 3953.73 2455.18)
(-247894 3901.49 1056.6)
(-247336 3853.28 -571.794)
(-246283 3832.88 -2369.69)
(-244486 3857.9 -4081.99)
(-242075 3923.51 -5273.5)
(-239442 4023.81 -5685.22)
(-236954 4142.56 -5401.36)
(-234796 4261.95 -4653.6)
(-233007 4368.84 -3670.95)
(-231537 4456.41 -2626.92)
(-230298 4521.52 -1619.41)
(-229210 4566.43 -692.039)
(-228210 4597.35 142.504)
(-227246 4621.18 903.232)
(-226273 4647.69 1614.02)
(-225285 4683.11 2290.17)
(-224286 4729.47 2951.31)
(-223291 4789.07 3612.81)
(-222325 4861.55 4289.07)
(-221422 4946.42 4998.49)
(-220634 5041.36 5759.03)
(-220020 5141.07 6589.27)
(-219606 5237.2 7508.21)
(-219331 5319.91 8534.89)
(-219113 5379.91 9687.18)
(-219218 5409.06 10992.8)
(-220764 5394.56 12478.3)
(-225197 5331.1 14144.1)
(-231795 5294.22 15789.7)
(-236162 5525.03 16827.3)
(-237291 6127.08 16108.9)
(-260781 6976.57 14122.5)
(-346695 5432.45 4255.86)
(-483170 -7627.18 -42974.8)
(-468615 -1346.04 10468.1)
(-233370 -3850.82 -4036.71)
(-233502 -3916.47 -3707.49)
(-233681 -3921.74 -3505.31)
(-233887 -3948.82 -3257.28)
(-234154 -3968.84 -3001.2)
(-234475 -3989.41 -2725.04)
(-234865 -4008.02 -2433.6)
(-235330 -4024.79 -2129.68)
(-235880 -4039.42 -1820.04)
(-236520 -4052.39 -1516.1)
(-237255 -4063.41 -1233.55)
(-238083 -4071.99 -996.386)
(-239000 -4078.03 -842.061)
(-239996 -4081.74 -822.755)
(-241053 -4083.75 -1002.89)
(-242137 -4084.59 -1452.14)
(-243185 -4083.14 -2237.52)
(-244122 -4076.2 -3405.12)
(-244896 -4061.63 -4964.9)
(-245476 -4041.02 -6909.86)
(-245698 -4022 -9273.54)
(-245099 -4020.5 -12043.5)
(-243173 -4056.07 -14834.8)
(-240012 -4131.05 -16802.8)
(-236360 -4219.28 -17344)
(-232943 -4303.91 -16641.1)
(-230081 -4387 -15269.3)
(-227841 -4467.28 -13655.3)
(-226136 -4537.01 -12060.2)
(-224824 -4589.66 -10599)
(-223782 -4619.81 -9307.8)
(-222912 -4622.55 -8182.16)
(-222144 -4593.64 -7196.75)
(-221425 -4530.33 -6318.93)
(-220719 -4430.42 -5514.81)
(-219998 -4291.42 -4755.16)
(-219237 -4115.2 -4013.2)
(-218414 -3907.12 -3263.76)
(-217506 -3672.35 -2482.69)
(-216503 -3418.85 -1648.39)
(-215388 -3159.49 -740.905)
(-214102 -2913.58 258.746)
(-212497 -2708.09 1365.71)
(-210406 -2577.43 2585.45)
(-208003 -2569.84 3921.9)
(-206270 -2758.06 5368.84)
(-206446 -3219.88 6909.25)
(-207943 -3973.61 8498.56)
(-206818 -4996.98 10021.3)
(-202597 -6264.37 11356.2)
(-218838 -8222.27 14580.3)
(-287019 -7639.87 16257.4)
(-314701 4782.86 -10014.2)
(-380671 -22833.7 -88816.4)
(-229060 1516.49 3688.99)
(-229629 1569.01 4066.66)
(-229983 1597.42 4188.21)
(-230426 1611.52 4393.36)
(-230892 1618.83 4579.12)
(-231404 1613.79 4770.18)
(-231971 1597.33 4961.41)
(-232603 1567.94 5150.72)
(-233310 1525.13 5333.52)
(-234102 1468.24 5502.27)
(-234987 1397.15 5644.32)
(-235970 1312.35 5738.77)
(-237055 1215.09 5753)
(-238238 1107.36 5640.25)
(-239510 992.254 5341.97)
(-240837 875.031 4793.32)
(-242157 764.806 3933.98)
(-243391 674.291 2725.9)
(-244489 614.657 1168.76)
(-245431 593.409 -725.656)
(-246059 611.768 -2999.68)
(-245853 653.821 -5656.05)
(-244283 690.673 -8360.65)
(-241356 719.826 -10300.2)
(-237731 755.876 -10825.3)
(-234148 803.626 -10080.1)
(-231010 854.382 -8645.44)
(-228439 904.014 -6972.4)
(-226395 954.619 -5326.36)
(-224769 1010.74 -3825.4)
(-223449 1078.68 -2502.97)
(-222334 1165.21 -1354.58)
(-221336 1273.14 -350.831)
(-220383 1401.45 546.284)
(-219420 1553.53 1362.79)
(-218409 1732.2 2124.8)
(-217282 1936.97 2864.29)
(-216038 2161.92 3604.83)
(-214688 2400.36 4368.41)
(-213263 2640.52 5168.15)
(-211797 2864.03 6013.64)
(-210296 3043.7 6911.01)
(-208686 3142.06 7859.31)
(-206880 3111.83 8842.76)
(-205124 2886.75 9833.16)
(-204474 2373.91 10788.4)
(-206346 1473.6 11630.9)
(-210299 110.427 12112.9)
(-211736 -1775.45 12224.4)
(-210415 -4042.88 12377)
(-226629 -8157.35 13865.5)
(-312799 -11769.3 11003.9)
(-406716 -700.831 21876.2)
(-334760 -12289.1 168998)
(-226726 -3330.23 -472.861)
(-226962 -3359.33 82.2856)
(-227228 -3360.52 378.168)
(-227520 -3373.41 757.184)
(-227877 -3383.46 1148.03)
(-228288 -3397.21 1571.28)
(-228770 -3412.35 2018.48)
(-229332 -3429.95 2481.99)