/*--------------------------------*- C++ -*----------------------------------*\
| =========                 |                                                 |
| \\      /  F ield         | OpenFOAM: The Open Source CFD Toolbox           |
|  \\    /   O peration     | Version:  4.1                                   |
|   \\  /    A nd           | Web:      www.OpenFOAM.org                      |
|    \\/     M anipulation  |                                                 |
\*---------------------------------------------------------------------------*/
FoamFile
{
    version     2.0;
    format      ascii;
    class       volScalarField;
    location    "16";
    object      omega;
}
// * * * * * * * * * * * * * * * * * * * * * * * * * * * * * * * * * * * * * //

dimensions      [0 0 -1 0 0 0 0];

internalField   nonuniform List<scalar> 
4432
(
0.0111283
0.0113806
0.0116911
0.0119787
0.0123231
0.0126022
0.0129257
0.0132052
0.0134573
0.0137513
0.0138168
0.0141397
0.0142724
0.0140335
0.0139293
0.0134514
0.0128705
0.0128625
0.0148805
0.0198359
0.0232307
0.0299863
0.0365258
0.0397908
0.0422543
0.0440744
0.045005
0.0456171
0.0465084
0.0465529
0.0470973
0.0470486
0.0471585
0.046195
0.0459138
0.0463905
0.0475269
0.0451609
0.0396462
0.0357211
0.0312311
0.0280801
0.0259837
0.013088
0.0134185
0.0124311
0.0127215
0.0137531
0.0131314
0.0123802
0.0102301
0.00865597
0.00938918
0.0110892
0.011133
0.0113774
0.011736
0.0120204
0.0123903
0.0126629
0.0129899
0.0132623
0.0135123
0.0137889
0.0138938
0.0142589
0.0142323
0.0142596
0.0140229
0.0136345
0.0135577
0.0135557
0.0178955
0.02429
0.0259665
0.0330049
0.0375178
0.0381957
0.0399223
0.0419015
0.0435613
0.0442013
0.043332
0.0414381
0.038848
0.036228
0.0343469
0.0334235
0.0324037
0.0310715
0.0327621
0.0342806
0.0324496
0.0306247
0.0273416
0.0241465
0.0212063
0.0168076
0.0133225
0.0115198
0.0119331
0.0120696
0.0126836
0.0129238
0.00751053
0.00735391
0.00772378
0.0110389
21.5733
3.14967
0.975989
0.507307
0.375775
0.303914
0.25227
0.217792
0.190674
0.169615
0.148881
0.131468
0.114432
0.101383
0.0883405
0.0785269
0.068772
0.0639995
0.0617648
0.0597734
0.0585642
0.0619619
0.0692256
0.0804369
0.0972534
0.0822513
0.0860195
0.0898171
0.0917488
0.0946981
0.128772
0.114002
0.117649
0.128807
0.165731
0.223166
0.301933
0.372454
0.358423
0.419357
0.428992
0.362139
0.356976
0.508581
0.467403
0.388985
0.341507
0.255827
0.439401
0.403493
0.472371
0.708511
0.622375
1.39226
21.5735
3.14726
0.973782
0.50706
0.376074
0.304532
0.254602
0.217165
0.188928
0.163654
0.143675
0.124977
0.110336
0.0972972
0.086823
0.0774086
0.0716993
0.0680877
0.0664526
0.0627511
0.0640782
0.0738445
0.0802968
0.0701702
0.0726741
0.093367
0.0855448
0.101264
0.0921868
0.0919106
0.0928429
0.0917749
0.0907323
0.088172
0.0972657
0.138927
0.146723
0.21925
0.215676
0.244668
0.259104
0.213369
0.224249
0.3079
0.333998
0.413225
0.397418
0.304125
0.3226
0.268586
0.425791
0.934216
1.17818
1.55739
21.5648
3.13909
0.971008
0.510088
0.37667
0.304921
0.251568
0.211133
0.182515
0.16066
0.145587
0.131526
0.120893
0.109288
0.0993913
0.0894805
0.0807166
0.0751902
0.0706755
0.0679579
0.0666747
0.0651616
0.0642005
0.0756729
0.0643011
0.0722869
0.0857975
0.127058
0.108817
0.118631
0.146449
0.205974
0.228809
0.271834
0.327016
0.407912
0.438159
0.504814
0.502295
0.534155
0.546611
0.544068
0.523379
0.558098
0.534671
0.500134
0.340947
0.30354
0.326111
0.438812
0.538429
0.688226
0.953105
1.10685
21.5646
3.13965
0.968724
0.512147
0.377661
0.306189
0.253335
0.213566
0.184655
0.16175
0.144585
0.129933
0.117278
0.106365
0.0969037
0.0859301
0.0798241
0.0727144
0.0689807
0.0677467
0.0635288
0.06562
0.0838584
0.073612
0.0755677
0.0863601
0.0804532
0.0949408
0.10526
0.0948208
0.09695
0.0972278
0.0985307
0.130297
0.179477
0.242977
0.311362
0.357476
0.400069
0.389233
0.404279
0.428675
0.510265
0.449226
0.456491
0.502435
0.54183
0.359276
0.340838
0.361724
0.460268
0.583588
1.10831
1.33044
21.5664
3.14015
0.967515
0.517204
0.377056
0.305869
0.252084
0.210758
0.181087
0.159026
0.143048
0.129437
0.119187
0.107862
0.0995059
0.0895745
0.0819244
0.0758018
0.070515
0.0718038
0.0693058
0.0698541
0.0737572
0.0848134
0.0891474
0.103358
0.11866
0.1571
0.184786
0.225341
0.258326
0.304421
0.314104
0.370115
0.522497
0.575457
0.515007
0.516925
0.530152
0.543586
0.544135
0.551203
0.568595
0.558575
0.524263
0.433316
0.215822
0.296355
0.460971
0.48015
0.533724
0.782586
0.939993
0.951283
21.5677
3.14246
0.939913
0.529423
0.363688
0.309957
0.284314
0.257596
0.22086
0.188685
0.163506
0.144444
0.127312
0.115055
0.101533
0.0914099
0.0822395
0.074443
0.0713165
0.0670247
0.0681479
0.0674191
0.071857
0.0817373
0.0886318
0.083577
0.0854253
0.0906207
0.0902339
0.0933729
0.100508
0.110105
0.142443
0.210772
0.296445
0.356891
0.39933
0.42036
0.448329
0.462847
0.47598
0.509346
0.552386
0.541478
0.546625
0.569846
0.300488
0.196147
0.327831
0.446336
0.485866
0.47147
0.536425
0.897423
21.5678
3.14678
0.925796
0.57317
0.2668
0.268402
0.251396
0.227938
0.200736
0.176326
0.157041
0.13988
0.125907
0.112316
0.102377
0.0899932
0.0820995
0.0759711
0.0748181
0.0699867
0.0716636
0.0805802
0.102695
0.109372
0.120712
0.14934
0.162436
0.206287
0.215369
0.270369
0.313398
0.315049
0.462002
0.567222
0.53625
0.529109
0.513139
0.509323
0.529533
0.538608
0.530511
0.515439
0.481731
0.406201
0.361352
0.537864
0.168813
0.139239
0.370797
0.564315
0.569674
0.587805
0.662223
0.971251
21.5673
3.13608
0.974527
0.50329
0.369602
0.303131
0.258754
0.225296
0.192292
0.166456
0.148148
0.133447
0.12132
0.1096
0.0995025
0.0899727
0.0843359
0.077211
0.0716429
0.0737689
0.0782806
0.0838659
0.0888134
0.0991406
0.0956107
0.095048
0.10021
0.105921
0.118407
0.130126
0.161827
0.216539
0.284426
0.343545
0.387061
0.419025
0.442273
0.459641
0.477042
0.485077
0.493608
0.482763
0.458328
0.431891
0.529621
0.57287
0.622146
0.168369
0.248922
0.303029
0.345823
0.549038
0.77464
0.945521
21.5679
3.14499
0.957873
0.529788
0.385808
0.323207
0.278512
0.237982
0.204224
0.17738
0.155775
0.138872
0.123546
0.111346
0.100097
0.0894954
0.0809341
0.0735918
0.0722804
0.0716007
0.0804855
0.109215
0.103584
0.11284
0.136412
0.160083
0.226348
0.234645
0.322344
0.324436
0.46834
0.51111
0.489661
0.503406
0.496109
0.488829
0.472118
0.4987
0.496665
0.494458
0.487571
0.449374
0.370816
0.127429
0.346144
0.446367
0.226965
0.128988
0.134742
0.209811
0.40589
0.562256
0.555183
0.582283
21.5682
3.14001
0.96885
0.516089
0.378311
0.306212
0.251555
0.21016
0.180443
0.157614
0.14138
0.128252
0.117178
0.107118
0.0976209
0.0880119
0.0823436
0.0765837
0.0751506
0.077056
0.0829922
0.0909211
0.0973208
0.102786
0.108874
0.111489
0.121087
0.131089
0.149982
0.199141
0.264641
0.32415
0.371813
0.409427
0.43597
0.443227
0.444675
0.475192
0.479043
0.468849
0.483218
0.439126
0.437023
0.371593
0.441397
0.530559
0.433527
0.259281
0.185682
0.201582
0.338851
0.370586
0.405404
0.544019
21.5686
3.14315
0.971485
0.518157
0.379785
0.305012
0.253556
0.216843
0.18956
0.168273
0.150677
0.136128
0.122129
0.11056
0.0992864
0.089892
0.0810649
0.0758433
0.0724522
0.0861575
0.108132
0.113953
0.12326
0.136897
0.18735
0.203435
0.305584
0.334176
0.448273
0.452743
0.438227
0.434813
0.445873
0.428168
0.426226
0.424923
0.434469
0.431776
0.437287
0.446671
0.439673
0.361875
0.246876
0.221825
0.272421
0.45796
0.225617
0.114986
0.12226
0.149715
0.216182
0.405664
0.59229
0.483676
21.5688
3.14046
0.967344
0.529454
0.383467
0.307735
0.252313
0.212387
0.183335
0.16069
0.143333
0.129046
0.117108
0.106946
0.0974546
0.0881507
0.0813116
0.0758466
0.0689552
0.075187
0.0920462
0.104233
0.111499
0.124183
0.132679
0.139053
0.171098
0.197874
0.244446
0.29987
0.349229
0.374302
0.39055
0.418009
0.41614
0.440441
0.432166
0.420095
0.438783
0.430833
0.419359
0.400225
0.397555
0.356031
0.363411
0.469024
0.407782
0.243895
0.194294
0.230078
0.286452
0.640059
0.631924
0.834844
21.5715
3.14551
0.940954
0.527565
0.360364
0.305506
0.279587
0.251053
0.213437
0.181592
0.156994
0.138331
0.123897
0.110252
0.100316
0.0897602
0.0811266
0.0722389
0.0731399
0.0965332
0.126519
0.147757
0.174414
0.195033
0.240331
0.269963
0.398554
0.385664
0.39225
0.369778
0.363587
0.399421
0.402624
0.387275
0.368306
0.383432
0.402122
0.412624
0.414543
0.411452
0.366157
0.23381
0.247407
0.210555
0.252684
0.273592
0.157096
0.0970199
0.120259
0.155499
0.228402
0.234353
0.312068
0.802132
21.5721
3.14435
0.934405
0.540882
0.32709
0.296475
0.258363
0.227268
0.196599
0.171742
0.151561
0.135274
0.12148
0.109692
0.0993003
0.0896474
0.0797397
0.0743334
0.0703958
0.0785004
0.0991968
0.11471
0.12522
0.13758
0.151426
0.187797
0.235617
0.280321
0.299403
0.327523
0.346021
0.358181
0.374108
0.359057
0.387716
0.372805
0.380854
0.382277
0.396533
0.384577
0.377233
0.364038
0.346786
0.336696
0.32379
0.403214
0.474163
0.28681
0.214917
0.269239
0.316039
0.332033
0.450716
0.564724
21.5712
3.14809
0.959997
0.528942
0.386542
0.321012
0.279274
0.233679
0.196646
0.169196
0.148862
0.133337
0.120407
0.108629
0.0988809
0.0889873
0.0807522
0.0735875
0.0854581
0.125437
0.155079
0.179984
0.204282
0.231819
0.316643
0.362957
0.356902
0.348233
0.346625
0.340593
0.333352
0.348486
0.345605
0.345542
0.353508
0.36691
0.388044
0.40122
0.390206
0.363624
0.308887
0.250889
0.259397
0.250194
0.273072
0.181102
0.14937
0.101701
0.108946
0.140281
0.277397
0.482051
0.501121
0.753499
21.573
3.13396
0.966566
0.501591
0.375279
0.302271
0.247665
0.207198
0.177075
0.155624
0.139036
0.126322
0.115139
0.105439
0.0962427
0.088268
0.0796146
0.0747288
0.0750924
0.0900801
0.113109
0.124419
0.139188
0.160937
0.192637
0.240563
0.281759
0.311415
0.325029
0.33467
0.347752
0.334863
0.338891
0.334781
0.346801
0.34649
0.357478
0.370908
0.376632
0.369634
0.350048
0.314161
0.313424
0.305122
0.318285
0.251799
0.339482
0.260991
0.208272
0.279738
0.33707
0.380423
0.435111
0.619163
21.5746
3.13736
0.967861
0.521134
0.374895
0.30273
0.248068
0.206761
0.177625
0.156818
0.140746
0.128175
0.116955
0.107115
0.097662
0.0896803
0.0806056
0.0766812
0.0959087
0.143463
0.150722
0.185266
0.185612
0.325387
0.306823
0.315375
0.290892
0.286975
0.297678
0.300146
0.309577
0.319187
0.332577
0.341899
0.351331
0.366043
0.372394
0.376435
0.364675
0.337191
0.253645
0.254789
0.219037
0.2012
0.217303
0.118286
0.118412
0.0900923
0.108398
0.145273
0.238621
0.336608
0.630412
0.838235
21.5744
3.13819
0.972854
0.516486
0.380432
0.302774
0.246891
0.207128
0.177816
0.156266
0.139037
0.125637
0.114009
0.104378
0.0955579
0.0880654
0.0804849
0.0728252
0.0748405
0.0969993
0.12395
0.126234
0.143539
0.185443
0.228429
0.262306
0.291616
0.301357
0.324514
0.296011
0.296303
0.308099
0.316633
0.323716
0.334733
0.340485
0.351671
0.361731
0.353567
0.344586
0.316061
0.306098
0.295184
0.268898
0.276769
0.184521
0.228555
0.185445
0.203634
0.252995
0.424795
0.435623
0.570586
0.761647
21.5752
3.15313
0.935963
0.558082
0.326501
0.295135
0.255953
0.224654
0.194743
0.169906
0.149291
0.133768
0.119552
0.109033
0.0985235
0.0883436
0.0827598
0.0783907
0.0988246
0.128568
0.146083
0.203462
0.308201
0.290126
0.270163
0.29066
0.283427
0.269501
0.268986
0.277503
0.296134
0.314447
0.31844
0.326997
0.34519
0.351864
0.358812
0.361041
0.355989
0.286825
0.223641
0.229136
0.211248
0.222648
0.159613
0.11292
0.103853
0.0886472
0.105981
0.149792
0.253896
0.410103
0.524769
0.618702
21.5757
3.14353
0.966447
0.499105
0.37232
0.298527
0.24579
0.208953
0.182004
0.161322
0.143697
0.129034
0.116261
0.105566
0.0961479
0.0885025
0.0819048
0.0746778
0.0755966
0.100314
0.12256
0.145653
0.171239
0.211811
0.239363
0.273907
0.283093
0.295705
0.272191
0.274095
0.27637
0.282792
0.295014
0.310802
0.318835
0.327793
0.3445
0.330011
0.317378
0.283839
0.27961
0.266208
0.264698
0.240568
0.200996
0.147284
0.15099
0.10989
0.162481
0.221975
0.508695
0.754478
0.861728
0.928608
21.5779
3.15264
0.943182
0.558406
0.317617
0.296753
0.261592
0.2313
0.199109
0.172529
0.151268
0.134867
0.120809
0.10958
0.0989132
0.0914162
0.0830304
0.0794274
0.0973634
0.19223
0.203306
0.220927
0.238833
0.244915
0.252753
0.264703
0.262843
0.265285
0.267049
0.273699
0.275919
0.274097
0.297626
0.317714
0.322055
0.315615
0.325156
0.311763
0.290015
0.209582
0.197198
0.201626
0.217889
0.185451
0.122958
0.102394
0.0989468
0.0896565
0.0891216
0.104487
0.11839
0.248914
0.478606
0.60851
21.5785
3.14174
0.968735
0.510465
0.37697
0.299005
0.245173
0.205693
0.177406
0.156828
0.140394
0.126908
0.115349
0.104823
0.0965215
0.0876967
0.0830793
0.0754424
0.0775799
0.104107
0.132922
0.157317
0.182935
0.227091
0.238923
0.26626
0.272426
0.269521
0.268124
0.277548
0.268712
0.273178
0.280179
0.289108
0.296893
0.310943
0.302196
0.299069
0.267513
0.237292
0.230793
0.217364
0.207089
0.179066
0.152476
0.119952
0.121851
0.102166
0.0934265
0.134349
0.120513
0.713211
0.94061
0.878541
21.5802
3.15016
0.940301
0.526144
0.376264
0.310744
0.275477
0.244883
0.208842
0.17832
0.154538
0.136189
0.121961
0.109657
0.100093
0.0909834
0.0828411
0.0793136
0.0956533
0.213422
0.209718
0.216981
0.228231
0.238361
0.234096
0.23949
0.2418
0.246936
0.252303
0.252978
0.253381
0.264118
0.283258
0.287252
0.281405
0.296614
0.302261
0.280113
0.226291
0.212176
0.229598
0.238439
0.209936
0.133957
0.103412
0.0879121
0.0905893
0.0850791
0.0871554
0.100094
0.115681
0.142214
0.194128
0.254665
21.5799
3.14137
0.966772
0.499767
0.372077
0.300652
0.244898
0.204473
0.17484
0.153577
0.13776
0.12576
0.115372
0.105495
0.0971905
0.0883692
0.0839398
0.07459
0.0780479
0.100519
0.137141
0.162316
0.180482
0.252222
0.242635
0.23747
0.238537
0.238259
0.239878
0.244376
0.248762
0.254051
0.261357
0.269416
0.276904
0.270526
0.28403
0.270808
0.268221
0.246777
0.235686
0.217525
0.186795
0.153734
0.131438
0.114425
0.097735
0.0942016
0.0892275
0.095341
0.112454
0.185669
0.376195
0.54259
21.5825
3.14074
0.967927
0.497123
0.370642
0.297946
0.24439
0.204975
0.176181
0.154875
0.138939
0.126366
0.116239
0.106436
0.0990835
0.0899326
0.0849639
0.0777426
0.0724065
0.19054
0.240488
0.202887
0.215378
0.213574
0.212603
0.231674
0.233672
0.230082
0.232197
0.235351
0.241689
0.252708
0.267415
0.269896
0.266014
0.278492
0.284177
0.247349
0.232152
0.239418
0.247355
0.228383
0.139358
0.105975
0.097147
0.0878203
0.0899143
0.0863868
0.0935776
0.10104
0.114534
0.134802
0.165873
0.207815
21.5828
3.14485
0.964037
0.51339
0.375198
0.299372
0.245157
0.207657
0.179172
0.157943
0.141002
0.127614
0.116895
0.107395
0.0987946
0.090502
0.0838042
0.0781088
0.0726705
0.0962047
0.13132
0.145066
0.187414
0.419286
0.368354
0.282497
0.228071
0.211
0.206537
0.208325
0.215535
0.232209
0.24622
0.257469
0.268064
0.272164
0.279871
0.251101
0.256286
0.254626
0.249556
0.226659
0.186405
0.153233
0.127846
0.103897
0.103635
0.0924369
0.0903118
0.0999823
0.113017
0.144813
0.165199
0.243749
21.5842
3.1392
0.973516
0.506884
0.371123
0.295103
0.240678
0.20184
0.173695
0.152733
0.13708
0.124289
0.114637
0.105261
0.0981179
0.0905373
0.0847222
0.0783273
0.0759124
0.10073
0.200147
0.197675
0.197413
0.16062
0.386279
0.222003
0.218969
0.212566
0.207729
0.210039
0.221833
0.239512
0.248106
0.253204
0.253607
0.266019
0.25606
0.238112
0.235041
0.238929
0.209443
0.133338
0.108369
0.0967208
0.087214
0.0878694
0.086411
0.0971161
0.108633
0.124256
0.14153
0.177806
0.183908
0.235611
21.5837
3.14794
0.964618
0.505346
0.369112
0.295817
0.241528
0.204006
0.177064
0.157105
0.141003
0.127538
0.116772
0.107745
0.0991766
0.0915585
0.0840691
0.0799224
0.0699578
0.08052
0.0998798
0.121669
0.214103
0.440664
0.609855
0.376925
0.272729
0.22213
0.209111
0.205473
0.195263
0.201678
0.211601
0.221272
0.239462
0.242564
0.242017
0.239422
0.237282
0.231557
0.223261
0.212458
0.171122
0.149379
0.124103
0.113448
0.102259
0.0976962
0.103671
0.122816
0.145922
0.175694
0.165994
0.254114
21.5871
3.13696
0.970738
0.511453
0.374703
0.296934
0.242172
0.201897
0.17258
0.150871
0.134729
0.12204
0.112226
0.10395
0.0968349
0.0906303
0.0846868
0.0797521
0.0747754
0.0731392
0.129617
0.173685
0.166265
0.233454
0.299988
0.183435
0.216541
0.20835
0.208315
0.215318
0.230612
0.236398
0.240095
0.227762
0.237253
0.23409
0.190995
0.193437
0.175422
0.121879
0.107078
0.0942964
0.08579
0.0797508
0.0810819
0.0863377
0.106507
0.118928
0.145209
0.178849
0.214152
0.217661
0.31297
21.5871
3.14095
0.970653
0.511117
0.371157
0.296124
0.242796
0.204993
0.178342
0.15875
0.143253
0.130092
0.119017
0.109263
0.100488
0.0925806
0.085282
0.0798873
0.0733077
0.0736989
0.0806399
0.0996441
0.116999
0.397733
0.397357
0.261797
0.215094
0.190472
0.195135
0.18998
0.194675
0.202265
0.206268
0.190499
0.208265
0.20444
0.199186
0.193656
0.189953
0.16171
0.166793
0.151831
0.120087
0.103461
0.0953989
0.0918348
0.0996045
0.118499
0.155654
0.185227
0.223901
0.240162
0.354689
21.5883
3.14199
0.964159
0.496508
0.372047
0.295884
0.240559
0.200361
0.171127
0.149506
0.133874
0.122111
0.112785
0.104666
0.0975005
0.0909921
0.0850395
0.0805973
0.0744151
0.0763268
0.0902056
0.104525
0.131135
0.137285
0.49137
0.249462
0.142791
0.15904
0.180327
0.195295
0.20533
0.221944
0.224517
0.213394
0.218121
0.244364
0.230264
0.193106
0.158166
0.120514
0.101498
0.0861051
0.0795244
0.0715333
0.0688579
0.0774381
0.0886165
0.118832
0.140575
0.190068
0.23733
0.257916
0.324809
0.461384
21.588
3.14662
0.962253
0.524498
0.370508
0.297732
0.244271
0.205469
0.178057
0.157835
0.142922
0.130508
0.119894
0.110773
0.101814
0.0939738
0.0864757
0.0805942
0.0749563
0.0715525
0.0739411
0.0822159
0.0821017
0.117178
0.417595
0.331315
0.274048
0.216762
0.187813
0.176648
0.167716
0.173076
0.160133
0.184736
0.167352
0.149879
0.146264
0.133019
0.126708
0.118079
0.107394
0.0971791
0.0861142
0.0812375
0.0725009
0.078569
0.087763
0.111665
0.147105
0.20489
0.257574
0.343278
0.431411
0.511056
21.5906
3.14152
0.969948
0.506733
0.370652
0.295901
0.24106
0.201101
0.171506
0.149681
0.133307
0.121669
0.112836
0.105442
0.0986614
0.0920685
0.0860477
0.0809246
0.0765775
0.0715837
0.0780694
0.0812778
0.0882474
0.104147
0.126825
0.187216
0.178613
0.150502
0.150519
0.162301
0.175063
0.187633
0.200834
0.196995
0.186413
0.187166
0.166276
0.135124
0.111529
0.0938981
0.0830161
0.0715442
0.0647957
0.061876
0.0629147
0.0764731
0.0962403
0.136262
0.168176
0.241315
0.292972
0.329828
0.583909
0.658088
21.5898
3.16329
0.922471
0.579574
0.228053
0.246021
0.240566
0.220752
0.193327
0.168715
0.149373
0.133939
0.121776
0.112024
0.103175
0.0953865
0.0876882
0.0817097
0.075791
0.0719064
0.0700661
0.072908
0.0735854
0.0788445
0.0924992
0.128357
0.180842
0.191415
0.181703
0.166196
0.155411
0.151603
0.145182
0.144661
0.137781
0.129806
0.120959
0.112578
0.104673
0.0979828
0.0908061
0.0801832
0.0721231
0.0647539
0.0672419
0.0735652
0.0919314
0.127646
0.186582
0.290411
0.428991
0.631219
0.692332
0.617481
21.5908
3.14971
0.968047
0.490914
0.365652
0.294383
0.240392
0.201449
0.174228
0.153012
0.137259
0.124403
0.114889
0.106962
0.100353
0.094019
0.0872601
0.0823944
0.0764851
0.0739901
0.0705201
0.0741498
0.0772805
0.0783151
0.0767132
0.0950069
0.106887
0.12174
0.133079
0.145267
0.154069
0.150198
0.160707
0.153327
0.142218
0.12925
0.11311
0.0979165
0.0855509
0.0730967
0.063957
0.0572174
0.0564296
0.0575698
0.0626866
0.0820586
0.111731
0.14799
0.197934
0.296363
0.360197
0.584754
0.623387
0.567449
21.5908
3.15671
0.953966
0.523019
0.37128
0.305254
0.268237
0.235416
0.201278
0.172766
0.151295
0.134747
0.12227
0.112138
0.103467
0.0965187
0.0889367
0.083117
0.0767044
0.0729459
0.0694261
0.0688563
0.0670268
0.0695444
0.0711355
0.0807391
0.0932298
0.106138
0.130211
0.136055
0.139089
0.136652
0.130998
0.122468
0.114807
0.105776
0.097939
0.0898175
0.0834271
0.0750203
0.0679622
0.0593381
0.0581038
0.0583302
0.0637853
0.0761592
0.107705
0.14161
0.255907
0.459523
0.58158
0.55491
0.540464
0.602836
21.5931
3.14445
0.966189
0.492668
0.360923
0.290924
0.238682
0.199291
0.171035
0.149766
0.134601
0.122915
0.113542
0.106323
0.0999753
0.0944995
0.0889903
0.0846179
0.0789196
0.0751132
0.0715586
0.069756
0.0694241
0.0674186
0.0696325
0.0715377
0.0731588
0.0809436
0.0910803
0.0986242
0.0972891
0.115392
0.109602
0.101467
0.0944372
0.0856318
0.0770736
0.0685361
0.0623586
0.0559693
0.051867
0.0512309
0.0539115
0.0537153
0.0610013
0.0779325
0.115419
0.145715
0.203969
0.316382
0.387391
0.566418
0.372366
0.503721
21.5938
3.14456
0.965523
0.492428
0.361579
0.291603
0.238829
0.199322
0.170531
0.149262
0.134141
0.123178
0.114896
0.107951
0.10155
0.0954897
0.0896548
0.0851897
0.0797582
0.0751859
0.0715949
0.0687179
0.066618
0.0659235
0.0656662
0.0675496
0.0702341
0.0738103
0.0809809
0.0917837
0.0959569
0.0972551
0.101051
0.0978148
0.0904208
0.0834188
0.0761919
0.0696893
0.0628656
0.0574421
0.0537672
0.0499195
0.0515404
0.0590057
0.0614437
0.0721213
0.118523
0.116054
0.336396
0.45532
0.409865
0.442135
0.446772
0.550411
21.5938
3.1486
0.964556
0.496795
0.365138
0.291931
0.239597
0.20179
0.174637
0.153524
0.137665
0.124855
0.114869
0.106876
0.100203
0.0946625
0.0892166
0.0846577
0.0803545
0.0766171
0.0733822
0.0707916
0.0689973
0.0668325
0.0645089
0.0646974
0.0646215
0.0657723
0.0670142
0.0717522
0.0703657
0.0692079
0.0673724
0.0647078
0.0619642
0.0591288
0.0558089
0.0533103
0.0507839
0.0487001
0.0479722
0.0489652
0.0539594
0.0524853
0.0608404
0.0838955
0.111912
0.158302
0.210305
0.361757
0.383338
0.750586
0.639994
0.765234
21.5948
3.14797
0.961234
0.499103
0.366609
0.291019
0.239081
0.201795
0.17463
0.153853
0.137799
0.124709
0.114803
0.106481
0.0999056
0.0946334
0.0894804
0.0848084
0.080656
0.0769384
0.0734127
0.0708298
0.0683518
0.0659511
0.0642765
0.0640554
0.0648348
0.0652075
0.0680752
0.0692728
0.0697722
0.0698794
0.0710156
0.0695586
0.0654065
0.0614675
0.0569796
0.0538755
0.0505247
0.0491169
0.0464378
0.0482257
0.0511387
0.0591732
0.0624905
0.0662538
0.128158
0.121904
0.35661
0.688658
0.665728
0.630874
0.621912
0.709009
21.5955
3.14457
0.968239
0.488442
0.360138
0.290291
0.237797
0.19864
0.170328
0.14993
0.134718
0.12292
0.113652
0.106103
0.0997651
0.0941944
0.0889856
0.0844928
0.0800172
0.0761866
0.0729596
0.0705158
0.0683157
0.0663318
0.0641361
0.0625002
0.0611977
0.0601544
0.059634
0.0592385
0.0584646
0.0571796
0.0557037
0.0538634
0.0523562
0.0507006
0.0497698
0.0476549
0.0466723
0.0465771
0.0466841
0.0488325
0.0508353
0.0512478
0.0658735
0.069404
0.11383
0.141535
0.151787
0.305565
0.354428
0.513418
0.448811
0.423184
21.5963
3.1433
0.972572
0.493216
0.366423
0.292701
0.239575
0.202056
0.175099
0.154826
0.138944
0.126007
0.115749
0.107024
0.100456
0.0942396
0.0892845
0.0842872
0.0802299
0.076376
0.0729863
0.0702407
0.0680116
0.0658445
0.0635599
0.0620109
0.0611098
0.060548
0.0602335
0.0594408
0.0584904
0.0570871
0.0558331
0.054049
0.0524481
0.0505054
0.0487843
0.0474314
0.0468003
0.0465001
0.0460666
0.0482917
0.0510135
0.0566691
0.057467
0.0764687
0.105981
0.11038
0.180956
0.660108
0.597618
0.418721
0.40306
0.459548
21.5963
3.14225
0.972516
0.495753
0.362963
0.29113
0.238072
0.19836
0.168975
0.147561
0.131729
0.120002
0.111061
0.103891
0.0979695
0.0927571
0.0879664
0.0834693
0.0792908
0.0752956
0.0719113
0.0688685
0.0664325
0.0644353
0.0620283
0.0600592
0.0584085
0.0568329
0.0556265
0.0545556
0.0535972
0.0525873
0.0516484
0.0506324
0.0498268
0.0487669
0.0483569
0.0471991
0.0472289
0.0457931
0.0464075
0.0470563
0.0456823
0.0469851
0.0682366
0.0640691
0.0725978
0.0921178
0.124987
0.258828
0.313794
0.361474
0.404542
0.46608
21.5965
3.14688
0.969218
0.488482
0.359156
0.290502
0.237479
0.198044
0.169936
0.149444
0.134376
0.122542
0.113397
0.105649
0.0994356
0.0936358
0.0885897
0.0837821
0.0793222
0.0756817
0.0718833
0.0687152
0.0661483
0.0636984
0.0612932
0.0591761
0.0573465
0.0561468
0.0552199
0.0545073
0.0536019
0.0526785
0.0515934
0.0505956
0.0493849
0.048363
0.0473827
0.0467001
0.0462809
0.0461661
0.0460765
0.0478375
0.0484321
0.0543584
0.0591111
0.0744762
0.0838139
0.0949692
0.207982
0.388661
0.465219
0.425971
0.426725
0.435362
21.5974
3.14535
0.963452
0.489288
0.35962
0.289472
0.237418
0.198318
0.16959
0.148524
0.133088
0.121233
0.112118
0.104575
0.0988211
0.0931575
0.0888026
0.083968
0.0799004
0.0755067
0.0717748
0.0685634
0.065681
0.0629624
0.060912
0.0586461
0.056625
0.05486
0.0533842
0.0519908
0.0509026
0.049766
0.0487442
0.0477717
0.0469468
0.0460536
0.0455918
0.0447061
0.0444609
0.0434428
0.044022
0.0434291
0.0435666
0.0498816
0.0579389
0.064739
0.0696449
0.08612
0.143788
0.294147
0.328481
0.416616
0.809082
1.01182
21.598
3.14352
0.968065
0.496557
0.363274
0.290219
0.23715
0.197112
0.168452
0.147768
0.132796
0.121493
0.112587
0.105295
0.099317
0.0937576
0.0889296
0.0841848
0.0796779
0.0753361
0.0718166
0.0682043
0.0651053
0.0625942
0.0601271
0.0579673
0.0560242
0.054166
0.0527665
0.0514776
0.0504312
0.0494375
0.0483606
0.0476299
0.0465907
0.0459476
0.0449567
0.0443474
0.0440777
0.0437677
0.0435346
0.0464173
0.0459512
0.0489435
0.0515413
0.0604037
0.0718485
0.0785532
0.29015
0.429019
0.46264
0.643146
0.69081
0.713142
21.5975
3.1442
0.971769
0.491999
0.359318
0.288488
0.23637
0.197368
0.168615
0.147813
0.132543
0.12109
0.11242
0.105138
0.0992416
0.093781
0.0889397
0.0841416
0.0799082
0.0756902
0.0719795
0.0682122
0.0654293
0.0625715
0.0602932
0.0582841
0.0559787
0.054267
0.0525859
0.0512928
0.0499492
0.0490309
0.0478046
0.0469435
0.0458989
0.0451669
0.0443472
0.0437994
0.0427982
0.0426358
0.0422605
0.0421453
0.0435058
0.044125
0.0426805
0.0532316
0.0553864
0.0858934
0.0885652
0.198499
0.214549
0.348033
0.649443
0.634484
21.5983
3.14591
0.966947
0.486035
0.357273
0.288967
0.236982
0.19692
0.167764
0.146854
0.131892
0.120749
0.112058
0.104963
0.099021
0.0936427
0.088776
0.0842127
0.0796247
0.0754606
0.0715075
0.0680448
0.0649032
0.0619864
0.0597372
0.057454
0.0556182
0.0537848
0.0522169
0.0508394
0.0495544
0.0485054
0.047385
0.0464931
0.0454738
0.044668
0.0438863
0.0431089
0.042932
0.0420822
0.0425118
0.0412744
0.041004
0.0477116
0.0501419
0.0488704
0.0586793
0.0890645
0.117794
0.359819
0.277611
0.499922
0.733779
0.592751
21.5976
3.14643
0.966684
0.490922
0.361495
0.291045
0.238025
0.197879
0.168586
0.147519
0.132221
0.120767
0.112126
0.104897
0.0989714
0.0936164
0.0886709
0.084068
0.0796696
0.0755241
0.0717924
0.068189
0.0651061
0.0621442
0.0597548
0.0574282
0.0553675
0.0535338
0.0519545
0.050525
0.0492247
0.0479577
0.0469547
0.0458758
0.0450266
0.0442612
0.0434325
0.0427822
0.0421459
0.0419716
0.0406973
0.0403011
0.0408545
0.0407702
0.0409679
0.0480952
0.0475016
0.0614264
0.0742103
0.112429
0.218372
0.285821
0.390808
0.44395
21.5984
3.14619
0.969286
0.488718
0.357895
0.288899
0.236447
0.196583
0.167387
0.146568
0.131336
0.12008
0.11122
0.104168
0.0980137
0.0928373
0.0879221
0.0836139
0.079302
0.0751932
0.0715047
0.0678964
0.0645874
0.0618727
0.0595478
0.0573673
0.0555829
0.0538719
0.0522867
0.0509374
0.0495054
0.0484169
0.0471818
0.0462464
0.0451445
0.0442334
0.0433901
0.0426127
0.0417238
0.041301
0.0403741
0.0402251
0.0397817
0.041447
0.0463185
0.0435949
0.0701744
0.0666444
0.0926748
0.173706
0.280671
0.454617
0.519189
0.468642
21.5979
3.14555
0.966317
0.48503
0.354975
0.287359
0.236509
0.19755
0.16823
0.146374
0.130481
0.118424
0.109813
0.103037
0.0975491
0.0926515
0.0880985
0.0836467
0.0795938
0.0756232
0.0720454
0.0684613
0.0654026
0.0622393
0.0595967
0.0570865
0.0550673
0.0531263
0.051573
0.0500974
0.048801
0.047494
0.0463876
0.0451894
0.0442256
0.0431084
0.0424318
0.0415018
0.0412267
0.0398414
0.040145
0.0386663
0.0378844
0.0397401
0.0436316
0.0436523
0.0468108
0.0654067
0.0830743
0.133073
0.154877
0.312705
0.602029
0.723984
21.5983
3.1465
0.967607
0.4857
0.356407
0.287367
0.235954
0.197142
0.168346
0.147543
0.132075
0.120643
0.111698
0.104583
0.0985466
0.0931998
0.0884109
0.083877
0.0796779
0.0757896
0.0719576
0.0683169
0.065017
0.0618877
0.0594172
0.0570103
0.0550545
0.0532712
0.051664
0.0502827
0.0488023
0.047621
0.0462605
0.0452222
0.0439424
0.0430541
0.0421021
0.0413216
0.0406638
0.039995
0.039747
0.0380712
0.0384613
0.0381454
0.0422505
0.0445801
0.0610351
0.0808262
0.130577
0.189045
0.256151
0.573121
0.992718
1.0485
21.598
3.14739
0.96561
0.48912
0.35697
0.288095
0.23697
0.198087
0.169218
0.148037
0.132405
0.120486
0.111213
0.103839
0.0976209
0.0922942
0.0874697
0.0829419
0.0787622
0.0747641
0.071091
0.0676768
0.0645465
0.0615988
0.0590272
0.0566548
0.0545608
0.0527755
0.0510929
0.0496987
0.0482667
0.0470983
0.04583
0.0447938
0.0437385
0.0427984
0.0418933
0.041055
0.0404574
0.0393238
0.0382449
0.0378459
0.0357248
0.0393596
0.0373613
0.0375733
0.0403149
0.0416362
0.0828436
0.127681
0.337581
0.445617
0.969063
1.01894
21.5986
3.14762
0.968475
0.484577
0.356276
0.287717
0.23613
0.197481
0.16889
0.147983
0.132402
0.120709
0.111504
0.104233
0.0980669
0.0927178
0.0879247
0.0834213
0.0792503
0.0753386
0.0716993
0.0681648
0.0648986
0.0619314
0.0592735
0.0568578
0.0547613
0.0529372
0.0512622
0.0498453
0.0484022
0.0471612
0.0459511
0.044862
0.0439356
0.0430707
0.0422016
0.0415923
0.0405508
0.0402232
0.038035
0.037256
0.0362451
0.0362044
0.0364944
0.0399783
0.049707
0.0528382
0.169541
0.183013
0.365886
0.362262
0.83573
1.01497
21.5981
3.1409
0.947801
0.507459
0.355821
0.295151
0.260379
0.222629
0.188715
0.162282
0.142705
0.128327
0.117195
0.108348
0.100899
0.0945516
0.0889511
0.0840017
0.079553
0.0755916
0.0719653
0.0686289
0.0654575
0.0627124
0.0599989
0.0578608
0.0557938
0.0540897
0.0524591
0.0509844
0.0496966
0.0483703
0.0472545
0.046003
0.0449341
0.0436779
0.0428827
0.0415525
0.0407572
0.0390934
0.0386252
0.0367444
0.0374398
0.0376844
0.03907
0.0411219
0.0508429
0.0486404
0.130485
0.214928
0.55796
0.917427
1.20564
1.44998
21.5966
3.1496
0.97086
0.49368
0.360688
0.289039
0.236428
0.197638
0.170043
0.150269
0.135434
0.123901
0.114349
0.106447
0.099603
0.0938169
0.088651
0.0841141
0.0799104
0.0761853
0.0725493
0.0692505
0.0660744
0.0631521
0.0605465
0.0581269
0.0561037
0.0539906
0.0523943
0.0505878
0.0491729
0.0477171
0.0462924
0.0452011
0.0437136
0.0426744
0.0413821
0.0400477
0.0387205
0.0372667
0.0360101
0.0355848
0.0344275
0.0348029
0.0402009
0.0534975
0.0580501
0.0981228
0.168104
0.157014
0.325342
0.500707
0.829849
1.03736
0.0110712
0.0114783
0.0118276
0.0121903
0.012436
0.0127274
0.0129555
0.0132365
0.0134988
0.0137649
0.0140352
0.0142754
0.0145277
0.0147369
0.0149601
0.0151256
0.0153144
0.0154449
0.0156502
0.0157544
0.0159715
0.0161024
0.0164069
0.0166172
0.0171206
0.017524