/*--------------------------------*- C++ -*----------------------------------*\
| =========                 |                                                 |
| \\      /  F ield         | OpenFOAM: The Open Source CFD Toolbox           |
|  \\    /   O peration     | Version:  4.1                                   |
|   \\  /    A nd           | Web:      www.OpenFOAM.org                      |
|    \\/     M anipulation  |                                                 |
\*---------------------------------------------------------------------------*/
FoamFile
{
    version     2.0;
    format      ascii;
    class       volScalarField;
    location    "16";
    object      p;
}
// * * * * * * * * * * * * * * * * * * * * * * * * * * * * * * * * * * * * * //

dimensions      [0 2 -2 0 0 0 0];

internalField   nonuniform List<scalar> 
4432
(
107113
107112
107114
107116
107116
107114
107112
107112
107113
107115
107119
107123
107126
107125
107119
107105
107073
107000
106880
106664
106718
106760
106001
105329
105187
105359
105450
105416
105294
105089
104792
104284
104353
104973
106223
106200
104940
104693
104542
104333
104194
103772
103637
103777
104251
105316
105587
105583
106921
110373
112909
101898
67413.6
49841.4
107112
107112
107114
107115
107115
107113
107111
107111
107112
107115
107119
107123
107125
107124
107118
107104
107071
106998
106850
106572
106365
106643
106557
105964
105355
105447
105646
105349
105031
104836
104739
104438
104720
104801
104882
104978
104955
104706
104359
104159
104102
104106
104204
104370
104699
105297
105859
105735
107021
109944
113464
103178
67927.6
49722.4
107105
107104
107105
107105
107103
107100
107096
107094
107094
107096
107100
107107
107114
107122
107133
107146
107155
107120
106959
106702
106525
106543
106299
105949
105481
105036
104616
104432
104370
104478
104806
104866
104561
104446
104629
104683
104554
104312
104011
103856
103756
103591
103439
103392
103587
104186
104618
104316
104988
107976
111695
101825
66820.5
79614.8
107105
107103
107104
107104
107102
107099
107095
107093
107093
107095
107100
107106
107113
107121
107132
107147
107159
107112
106939
106657
106482
106510
106342
105931
105362
104859
104585
104396
104295
104470
104675
104743
104705
104744
104786
104578
104328
104030
103816
103739
103772
103741
103654
103753
104046
104583
105009
104960
106230
109263
113413
103836
67244
79786.4
107098
107097
107098
107097
107095
107090
107084
107079
107076
107075
107076
107081
107090
107106
107132
107167
107220
107189
106951
106539
106445
106418
106224
105856
105372
104883
104469
104277
104303
104564
104780
104699
104680
104924
104750
104506
104363
104313
104260
104303
104175
103996
103839
103600
103197
102657
102388
101843
102315
103294
102319
97026.9
79592.7
92386.4
107097
107096
107097
107097
107094
107089
107083
107078
107075
107074
107076
107081
107090
107106
107134
107174
107233
107181
106874
106534
106435
106405
106256
105922
105408
104852
104423
104211
104256
104493
104586
104490
104497
104686
104675
104429
104205
104042
103997
104015
104068
103840
103592
103391
103198
103051
102674
102492
103004
104134
104157
98898.5
78566.8
89818
107088
107087
107087
107086
107082
107076
107069
107063
107057
107054
107053
107056
107064
107079
107104
107135
107176
107109
106850
106438
106365
106434
106415
106102
105680
105141
104699
104407
104358
104491
104510
104262
104340
104717
104393
104164
104043
104021
104039
104065
103781
103356
103208
103077
102736
102167
101860
101050
101635
103721
104509
97887.1
82745.8
81772.5
107087
107086
107087
107085
107081
107075
107068
107062
107057
107053
107053
107056
107064
107079
107106
107144
107178
107103
106793
106456
106380
106440
106388
106158
105698
105147
104699
104460
104460
104538
104504
104269
104231
104587
104438
104223
104056
103966
103992
104036
103931
103484
103293
102974
102557
102038
101375
101007
101128
103305
105202
98449.3
81380.6
79790.7
107075
107074
107074
107072
107067
107060
107051
107043
107036
107030
107027
107027
107031
107039
107051
107059
107052
106977
106720
106409
106309
106404
106369
106217
105980
105442
105124
104889
104716
104712
104738
104514
104074
104101
104049
103888
103842
103826
103763
103583
103672
102721
102590
102509
102561
102736
102073
101018
101068
102660
104335
99521.4
87000.9
94391.2
107075
107074
107073
107071
107066
107059
107050
107042
107035
107030
107027
107027
107031
107039
107052
107063
107055
106955
106706
106434
106376
106443
106382
106229
105949
105469
105131
104891
104792
104766
104752
104512
104285
104386
104100
103959
103888
103845
103830
103805
103551
102895
102811
102589
102236
101846
101201
100690
100906
102561
104385
99843.7
86368
92688.7
107060
107059
107058
107056
107050
107041
107031
107020
107011
107003
106997
106992
106990
106988
106984
106968
106929
106845
106665
106468
106373
106395
106347
106094
106000
105718
105455
105265
104906
104807
104752
104523
104030
103829
103719
103515
103486
103520
103498
103249
102749
102330
102580
102504
102361
102748
102104
101242
101083
101797
102464
97878.7
87629.3
92764.3
107059
107058
107058
107055
107049
107040
107030
107020
107010
107002
106996
106992
106990
106988
106984
106970
106932
106838
106658
106477
106403
106394
106326
106211
105963
105684
105449
105189
104905
104765
104691
104434
104164
103823
103614
103543
103533
103552
103560
103479
103011
102684
102603
102572
102414
102161
101535
100949
101062
102025
102591
97662.5
87453
93411.2
107043
107042
107041
107037
107030
107020
107008
106996
106984
106973
106963
106954
106944
106932
106915
106884
106830
106746
106620
106480
106405
106407
106370
106194
105852
105764
105711
105513
105009
104647
104452
104223
104015
103745
103185
103493
103026
103174
103339
103383
103169
103118
103210
103000
102584
102408
101833
101300
101148
101454
101303
97378.6
89772.5
90406.7
107042
107041
107040
107036
107029
107019
107007
106995
106983
106973
106963
106953
106944
106932
106915
106885
106832
106745
106611
106477
106408
106411
106349
106218
105963
105800
105672
105376
104982
104692
104432
104121
103829
103530
103259
103113
103100
103217
103373
103421
103282
103218
103207
103053
102781
102550
101899
101350
101346
101672
101465
97119.3
89234.3
90423.3
107024
107023
107021
107017
107009
106997
106984
106970
106956
106942
106928
106914
106898
106878
106851
106812
106754
106674
106570
106454
106377
106382
106397
106290
105797
105753
105757
105420
105004
104593
104287
103977
103677
103360
103020
102746
102822
103058
103408
103699
103779
103869
103975
103608
102938
102415
101899
101575
101525
101622
101232
98017.5
91638.7
95419.4
107024
107022
107021
107016
107008
106996
106983
106969
106955
106942
106928
106914
106897
106878
106851
106813
106755
106675
106566
106448
106370
106366
106359
106258
106020
105855
105640
105349
104975
104612
104285
103935
103596
103331
103052
102858
102829
103036
103388
103643
103726
103787
103739
103411
103070
102836
102322
101910
101722
101687
101340
97808.3
90615.8
93553.3
107004
107003
107001
106995
106986
106974
106959
106943
106927
106911
106894
106875
106854
106828
106796
106754
106697
106624
106535
106438
106356
106321
106327
106245
105965
105785
105560
105269
104938
104582
104255
103938
103620
103303
102985
102792
102847
103143
103594
104071
104495
104699
104732
104326
103494
102663
102130
101828
101740
101691
100872
97822.2
92374.5
96949.5
107004
107002
107000
106995
106985
106973
106958
106943
106927
106910
106893
106875
106854
106828
106796
106755
106698
106625
106535
106434
106349
106302
106292
106231
106019
105789
105534
105231
104906
104571
104250
103925
103605
103309
103018
102845
102867
103086
103490
103939
104335
104525
104384
103920
103383
102892
102470
102098
101872
101648
100875
97700.2
91750.7
95910.6
106984
106982
106979
106973
106963
106950
106934
106917
106899
106880
106861
106839
106814
106785
106751
106709
106657
106593
106518
106436
106355
106286
106237
106159
105928
105638
105377
105145
104889
104587
104276
103973
103678
103384
103099
102933
102971
103246
103708
104333
105041
105510
105564
105109
104170
102983
102020
101540
101297
100933
99998.8
97756.5
94077.9
96496.4
106983
106981
106979
106973
106962
106949
106933
106916
106898
106880
106860
106839
106814
106785
106751
106710
106658
106594
106519
106434
106350
106275
106212
106129
105938
105663
105412
105158
104876
104572
104268
103965
103664
103383
103125
102974
102996
103224
103649
104192
104773
105179
105125
104624
103901
103070
102288
101924
101710
101291
100340
98020.3
93283.1
95262.7
106962
106961
106958
106951
106940
106926
106909
106891
106872
106851
106830
106806
106779
106749
106715
106675
106630
106576
106515
106447
106373
106292
106207
106090
105861
105552
105279
105065
104852
104598
104321
104044
103772
103516
103288
103148
103179
103419
103850
104437
105129
105810
106113
105827
104764
103349
102030
101171
100623
99936.8
98758.7
96911.6
94088.2
88585.3
106962
106960
106957
106950
106939
106925
106908
106890
106871
106851
106830
106806
106780
106750
106716
106676
106631
106578
106516
106446
106371
106289
106195
106065
105852
105570
105314
105097
104866
104600
104321
104041
103768
103516
103301
103175
103203
103421
103819
104347
104935
105464
105657
105207
104308
103229
102200
101542
101179
100635
99491.1
97978.4
94287.1
88376.2
106941
106939
106936
106929
106917
106902
106885
106866
106846
106825
106802
106778
106750
106720
106687
106652
106613
106570
106523
106471
106414
106347
106254
106096
105827
105502
105242
105049
104866
104656
104421
104181
103948
103736
103562
103461
103490
103680
104021
104483
105025
105568
106020
106089
105267
103913
102457
101258
100327
99365.7
98092.1
96794.4
94639.5
89382.1
106940
106939
106935
106928
106916
106901
106884
106865
106846
106825
106802
106777
106750
106721
106688
106653
106614
106571
106524
106472
106414
106346
106252
106087
105821
105508
105259
105071
104882
104666
104426
104184
103950
103740
103570
103474
103500
103680
104006
104438
104921
105361
105629
105430
104646
103518
102334
101333
100610
99913.6
99050.6
98694.7
95753
93673.4
106920
106918
106914
106906
106895
106879
106862
106842
106822
106801
106778
106753
106726
106697
106666
106635
106603
106570
106537
106505
106474
106439
106374
106183
105796
105411
105228
105105
104968
104803
104616
104424
104239
104076
103947
103875
103890
104012
104235
104533
104873
105205
105444
105495
105012
104018
102798
101623
100590
99548.8
98265.2
96514.8
94524.3
88608.4
106919
106917
106913
106906
106894
106879
106861
106842
106822
106801
106778
106753
106726
106697
106667
106636
106604
106571
106538
106506
106477
106444
106385
106179
105786
105411
105232
105112
104976
104809
104620
104425
104239
104074
103947
103875
103890
104011
104229
104516
104830
105106
105244
105108
104548
103628
102549
101502
100585
99685.2
98590.4
97164.7
95106.4
88803.6
106898
106897
106893
106885
106873
106857
106840
106821
106801
106779
106756
106732
106706
106678
106650
106622
106596
106571
106551
106538
106543
106569
106615
106419
105816
105143
105181
105189
105126
105017
104887
104748
104614
104496
104403
104345
104337
104387
104483
104607
104740
104848
104874
104745
104339
103622
102698
101704
100712
99627.5
98282.6
96212.2
93683.4
87762.7
106898
106896
106892
106884
106872
106857
106839
106820
106800
106779
106756
106732
106706
106679
106651
106624
106597
106573
106552
106540
106547
106585
106649
106424
105793
105126
105166
105182
105127
105021
104890
104751
104615
104497
104405
104352
104346
104396
104492
104607
104725
104809
104793
104593
104127
103398
102504
101549
100590
99534.1
98218
96159.6
93607.5
87677.7
106878
106876
106872
106864
106852
106837
106820
106801
106781
106760
106738
106714
106689
106663
106637
106613
106590
106571
106557
106555
106582
106671
106832
107020
105104
104893
105260
105373
105368
105300
105215
105124
105035
104956
104893
104849
104820
104798
104767
104714
104652
104571
104433
104186
103771
103169
102415
101554
100604
99478
98010.1
95818.1
92852.9
87492
106878
106876
106872
106864
106852
106837
106819
106800
106781
106760
106738
106715
106690
106664
106638
106614
106591
106572
106559
106558
106584
106679
106842
106841
104986
104784
105220
105359
105368
105304
105221
105131
105042
104964
104909
104877
104846
104822
104792
104723
104646
104552
104399
104131
103695
103080
102322
101461
100504
99359.9
97872.1
95667
92709.7
87380.6
106859
106857
106853
106845
106833
106818
106801
106783
106763
106743
106722
106700
106676
106651
106627
106604
106583
106564
106550
106542
106547
106577
106783
107321
104845
105344
105549
105609
105592
105555
105511
105466
105423
105387
105354
105294
105191
105021
104799
104576
104355
104112
103806
103392
102852
102191
101416
100495
99320.9
97710.9
95390.4
92205.7
87252.9
106858
106857
106852
106844
106832
106817
106800
106782
106763
106743
106722
106700
106676
106652
106628
106605
106584
106566
106551
106543
106544
106577
106754
106508
104677
105309
105551
105625
105609
105571
105527
105481
105440
105411
105416
105339
105210
105055
104801
104565
104333
104085
103773
103355
102812
102147
101361
100418
99213.6
97587.4
95280.8
92099.9
87207.5
106840
106838
106834
106827
106815
106800
106784
106766
106748
106729
106709
106687
106665
106642
106618
106596
106574
106553
106530
106503
106458
106360
106109
105621
104788
105225
105627
105773
105787
105775
105766
105759
105751
105737
105710
105661
105551
105358
105070
104768
104462
104165
103874
103553
103158
102667
102076
101368
100465
99207.7
97392.5
94854.3
91660
86880.8
106840
106838
106834
106826
106814
106800
106783
106766
106748
106729
106709
106687
106665
106642
106619
106597
106575
106554
106531
106503
106456
106358
106100
105559
104554
105214
105626
105782
105800
105791
105783
105776
105766
105750
105719
105683
105568
105304
104982
104727
104437
104138
103842
103517
103121
102630
102036
101312
100381
99107.2
97327.7
94891.7
91670.3
86962.1
106823
106821
106817
106809
106798
106784
106768
106752
106734
106716
106697
106677
106656
106633
106611
106588
106565
106540
106509
106465
106394
106271
106080
105809
105549
105525
105724
105832
105866
105876
105881
105888
105894
105892
105870
105791
105590
105253
104883
104693
104411
104086
103778
103459
103077
102615
102080
101440
100556
99196.8
97151.1
94392.3
91323
86573.6
106823
106821
106817
106809
106798
106784
106768
106751
106734
106716
106697
106677
106656
106634
106612
106589
106566
106541
106510
106465
106393
106269
106077
105804
105540
105523
105723
105833
105872
105885
105891
105897
105900
105890
105851
105732
105390
104919
103319
103923
104248
104042
103744
103411
103025
102568
102030
101363
100446
99095
97154.7
94572.2
91441
86667.4
106807
106805
106801
106794
106783
106769
106754
106739
106722
106706
106688
106669
106649
106627
106605
106582
106558
106531
106495
106446
106375
106274
106147
105990
105831
105777
105840
105910
105948
105966
105981
106004
106037
106081
106109
106040
105414
104262
104073
104109
104422
104187
103881
103540
103126
102663
102189
101648
100802
99353.5
97142.9
94249.9
91099.6
86292.4
106807
106805
106801
106793
106782
106769
106754
106739
106722
106706
106688
106669
106649
106628
106606
106583
106559
106531
106496
106446
106375
106274
106147
105991
105832
105775
105837
105908
105948
105967
105984
106007
106036
106063
106072
106043
104402
101583
97644.2
100850
102570
104139
103882
103514
103089
102626
102130
101524
100626
99203.1
97128.2
94455.9
91482.2
86525.4
106792
106791
106787
106779
106769
106756
106742
106727
106712
106696
106680
106662
106643
106622
106601
106578
106554
106525
106489
106442
106379
106298
106203
106099
106000
105950
105961
105995
106024
106047
106080
106135
106214
106345
106443
106131
103033
95330.3
95962.7
100355
102316
104176
104174
103796
103289
102786
102364
101920
101106
99651.6
97424.8
94448.8
91065.1
86298.7
106792
106790
106786
106779
106769
106756
106742
106727
106712
106697
106680
106662
106643
106623
106602
106579
106554
106526
106490
106442
106379
106298
106204
106101
106002
105949
105958
105993
106021
106047
106082
106142
106222
106327
106341
106109
99323
87960.5
86518.9
94121.2
98618.4
103606
104239
103819
103309
102773
102282
101716
100829
99378
97284.3
94736.8
91665.7
86521.1
106779
106777
106773
106766
106756
106744
106731
106717
106703
106689
106673
106657
106639
106619
106598
106576
106552
106523
106489
106445
106390
106323
106247
106169
106099
106052
106035
106039
106050
106071
106115
106195
106310
106490
106384
99786.8
90945.9
86949.7
89959.9
95085.4
95840.2
103788
104660
104185
103530
102950
102533
102115
101298
99962.2
97977.3
95007.5
91112.9
89054.5
106779
106777
106773
106766
106756
106744
106731
106717
106703
106689
106673
106657
106639
106620
106599
106577
106552
106524
106489
106445
106390
106323
106247
106170
106100
106052
106034
106036
106048
106071
106122
106224
106370
106493
106141
100269
85099.7
76210.7
82443.7
85324.2
96379
104061
104904
104260
103588
102965
102430
101855
100954
99556.7
97685.2
95585.4
92077.4
86979.2
106767
106765
106762
106755
106745
106734
106722
106709
106696
106682
106668
106653
106636
106617
106597
106576
106552
106524
106491
106451
106402
106344
106280
106215
106155
106105
106069
106047
106036
106040
106067
106126
106234
106259
105284
91497
83323.8
82906.7
92197.4
92206.3
100498
105660
105319
104575
103782
103151
102714
102252
101403
100102
98261.1
95272.9
91553.2
92941.4
106767
106765
106761
106755
106745
106734
106722
106709
106696
106683
106668
106653
106636
106617
106598
106576
106552
106525
106492
106451
106402
106344
106281
106215
106155
106103
106067
106044
106033
106038
106067
106149
106358
106240
99421.6
84147.5
74508.1
77952.8
88132.7
95781.3
105039
106409
105589
104642
103827
103161
102622
102054
101116
99742.8
98082.5
96200.2
92773
92626.2
106756
106755
106751
106745
106736
106725
106714
106702
106690
106677
106664
106649
106633
106616
106597
106576
106553
106526
106495
106458
106413
106361
106303
106243
106183
106126
106074
106030
105994
105969
105951
105943
105933
105521
96029.4
83419.4
83500.2
90884.9
98109.2
98543.9
102541
106158
105805
104869
104073
103487
103040
102571
101799
100470
98674.2
95243.9
90019.2
89078.4
106756
106755
106751
106745
106736
106725
106714
106702
106690
106677
106664
106650
106634
106616
106597
106576
106553
106527
106495
106458
106413
106360
106303
106243
106182
106125
106073
106028
105992
105966
105946
105896
105888
103338
84242.5
72016.2
79304.2
87662.5
97877.7
99906.2
103424
107604
105995
104854
104035
103424
102983
102462
101543
100038
98281.6
96089.8
92683.5
95449.3
106747
106746
106742
106736
106727
106717
106707
106696
106685
106673
106661
106647
106632
106615
106597
106577
106555
106529
106499
106463
106421
106372
106317
106257
106194
106128
106062
105997
105935
105883
105791
105748
105408
92728
77477.2
75811.2
88331.1
94279.3
99144.9
99145.5
106217
106402
105533
104963
104346
103903
103416
102878
102303
101463
100527
97812
90291
91955.9
106747
106746
106742
106736
106727
106717
106707
106696
106685
106673
106661
106647
106632
106616
106597
106577
106555
106529
106499
106463
106421
106371
106316
106256
106192
106126
106059
105994
105934
105877
105809
105594
103272
97131.7
74143.9
76916.1
89675.2
94271.4
98449.8
84551.2
105472
107566
105635
104638
104105
103771
103365
102784
102073
100907
99602.4
97087.8
90999.4
87993.9
106739
106738
106735
106729
106721
106711
106701
106691
106680
106670
106658
106645
106631
106615
106598
106578
106556
106531
106502
106467
106426
106378
106323
106261
106192
106116
106035
105950
105861
105771
105608
104839
104428
89102.4
80970.4
83819.6
95776.4
102063
108231
102900
107536
105633
104670
104738
104505
104207
103568
102769
102268
102098
102207
99226.6
89213
93035.5
106739
106738
106735
106729
106720
106711
106701
106691
106680
106670
106658
106646
106631
106616
106598
106579
106557
106531
106502
106467
106426
106377
106322
106260
106190
106114
106033
105948
105860
105776
105668
105292
102775
86995.8
80067.7
86272.7
96864.9
105172
114291
107896
105507
106285
104594
104356
104240
104076
103515
102687
102020
101681
101503
98379.3
89070.3
91837.4
106733
106731
106728
106723
106715
106706
106696
106687
106677
106667
106656
106644
106631
106616
106599
106579
106558
106533
106504
106470
106429
106381
106324
106259
106183
106098
106002
105895
105780
105658
105558
105592
109324
113097
102335
104071
111612
110143
105004
105741
105758
104461
104045
104523
104637
104516
103464
102284
101712
101015
99757
94125.6
84545.5
91542.3
106733
106731
106728
106723
106715
106706
106696
106687
106677
106667
106656
106644
106631
106616
106599
106580
106558
106533
106504
106470
106428
106380
106323
106257
106182
106095
105999
105893
105775
105654
105524
105441
107065
101254
97850.6
104619
111467
113756
116167
105359
104667
104473
103924
104304
104420
104435
103403
102118
101272
100403
99183.9
93696.8
84463.3
90130.6
106728
106726
106723
106718
106710
106702
106693
106684
106675
106665
106655
106643
106630
106616
106599
106581
106559
106534
106505
106471
106430
106380
106322
106253
106171
106075
105966
105838
105698
105541
105386
105216
105436
107897
107630
108573
111752
111709
107571
106214
105136
104083
103944
104446
104767
104787
103846
102973
102390
100997
98993.2
92705.9
81887.4
92788.5
106728
106726
106723
106718
106710
106702
106693
106684
106675
106665
106655
106643
106631
106616
106599
106581
106559
106535
106505
106471
106429
106379
106321
106251
106169
106073
105964
105831
105682
105523
105339
105015
105102
105897
108063
111439
115322
113804
109843
105722
104696
103835
103775
104203
104611
104944
103892
102677
102008
100887
99030
92286.1
81449.8
92480.9
106724
106722
106720
106714
106707
106699
106690
106682
106673
106664
106654
106643
106630
106616
106600
106581
106560
106535
106506
106471
106429
106378
106318
106246
106158
106055
105934
105794
105635
105450
105236
104999
104613
104758
104983
105987
107835
109225
106113
104448
103824
103027
103330
104121
104512
104256
103217
102784
102916
103138
102480
94433.5
75909.4
85126.8
106724
106722
106719
106714
106707
106699
106690
106682
106673
106664
106654
106643
106630
106616
106600
106581
106560
106535
106506
106470
106428
106377
106317
106244
106156
106052
105931
105789
105628
105439
105206
104818
104406
104395
105785
107944
110544
110681
108034
105157
103591
102951
103227
103937
104547
104687
103743
102931
102864
103274
102864
94819.5
75995
84206.8
106721
106720
106717
106712
106705
106697
106689
106680
106672
106663
106653
106643
106630
106616
106600
106582
106561
106536
106506
106470
106427
106376
106313
106238
106147
106038
105910
105762
105591
105392
105160
104893
104555
104182
103888
103755
102420
101461
100130
100172
101179
101628
102152
103515
104129
103633
102982
103443
105900
110347
114530
105217
68635.9
72365.8
106721
106720
106717
106712
106705
106697
106689
106680
106672
106663
106653
106643
106630
106617
106600
106582
106561
106535
106505
106470
106426
106374
106312
106236
106144
106035
105907
105759
105587
105382
105147
104879
104559
104527
104402
104624
105552
103716
101572
101033
101393
101827
102420
103666
104422
104126
103546
103644
105941
110421
114814
105047
67586.8
72584.4
106720
106719
106716
106710
106703
106695
106687
106679
106671
106662
106653
106642
106630
106616
106600
106582
106560
106535
106505
106469
106425
106372
106308
106231
106137
106026
105894
105743
105568
105365
105131
104862
104524
104062
103450
102574
101301
99633.4
98613.2
98628.3
99387
101099
102679
103482
103940
103247
104096
106274
109295
116320
121189
109657
72901.4
50334.3
106720
106719
106716
106710
106703
106695
106687
106679
106671
106662
106653
106642
106630
106616
106600
106582
106560
106535
106504
106468
106424
106371
106307
106229
106135
106022
105891
105739
105564
105360
105129
104867
104551
104144
103605
102664
101383
99752.9
98498.3
98434.1
99219.3
101858
102798
103567
104075
103688
103767
105664
110370
116952
121726
109326
72161
49831.6
105925
106982
105813
107712
107435
104659
105018
104638
104555
104320
105744
106614
105545
107105
106707
104605
104935
104613
104259
104387
107119
105795
104582
105720
104441
104658
104417
104489
104747
104374
104633
106634
105727
104319
105826
104178
104326
104395
104231
104531
103946
104487
106204
106426
106208
106631
106301
106636
106311
105450
105808
105439
105551
105067
105547
105065
106200
106376
106134
106614
106293
106535
106171
105434
105754
105415
105556
105053
105446
105023
107034
106847
107063
106915
107258
106927
107285
103059
104579
105074
104575
102916
105061
104852
105041
104730
104980
104632
104923
107054
106753
106936
106877
107170
106804
107070
102872
104569
104805
104489
103079
104990
104794
104984
104557
104861
104595
104863
106969
106789
106981
106483
106375
106479
106357
104889
107329
106638
106603
105131
104513
104688
105116
104741
105050
104985
105189
104902
105134
106922
106701
106827
106461
106333
106444
106322
103725
106444
106180
103990
106139
103622
103964
104984
104665
104960
104842
105083
104810
105052
105154
105587
105090
105706
105409
105690
105378
104761
104686
104691
105149
105133
105108
105104
105001
105583
105005
105672
105343
105680
105346
104624
104539
104636
105060
105081
105056
105076
107401
106607
105875
106582
107477
107312
105876
106589
106585
106912
107862
107683
107732
107696
107954
107733
107924
107729
107416
107640
107638
107049
107478
105570
103230
105071
104592
104618
103286
102914
102679
103728
104554
104504
104517
103637
103072
103090
103721
104351
104383
104408
103586
109397
106495
105485
106229
106766
107252
105379
106013
106021
104846
108289
107148
107262
107245
107756
117033
105084
107902
109621
106822
106869
126087
107689
106456
102763
104663
104347
104315
102758
102729
102897
103400
104301
104248
103454
104295
102559
102405
103425
104404
104348
104383
103355
103868
104110
104736
107296
106473
106588
104278
103672
103335
103910
104849
104599
104843
104116
103828
104547
104702
103640
104785
104540
104604
104709
104639
104708
104406
104010
104448
104480
104477
104539
104241
104437
104552
104520
104553
104617
104347
104497
104432
104224
104495
102460
103049
104032
106662
106482
106363
104277
102782
101790
103307
104636
104141
103469
104553
103414
104093
104663
104594
103861
103610
104258
104372
104057
104282
101881
163348
103246
104355
104271
104326
102741
103795
104230
103986
104084
104066
103042
103937
103797
103936
102439
107475
106989
107032
107376
106984
107394
107487
107859
106783
106662
106925
106607
107032
106686
107470
107032
106910
107270
106979
107395
107372
104165
104508
104652
104529
104504
104546
104096
104202
104663
104525
104446
104549
104499
104145
107311
106723
106324
108214
106512
107237
108164
103888
104461
104613
104364
104440
103967
104308
103900
104578
104402
104362
104373
104356
103806
105202
106024
105339
105779
105996
105308
105263
105136
105910
105762
105220
105978
105049
105274
104584
104723
104613
104713
104686
104602
104633
104498
104564
104667
104509
104616
104413
104555
105074
105892
105258
105728
105035
105884
105265
105258
106076
105759
105430
105967
105326
105441
104152
104456
104326
104547
104271
104357
104321
103771
104288
104543
104117
104323
104205
103472
103115
103740
102094
102950
103684
103145
101941
103041
103964
103764
103286
103108
103798
103699
103156
102969
102843
103598
101991
103597
101794
103144
103033
103499
102859
101985
103555
102859
102082
102989
103540
103112
103256
103115
102963
103694
102308
103175
103630
102186
102749
102658
102834
102538
106218
105432
105691
104909
105463
106163
105704
106943
107602
107616
107009
106891
107475
107540
106826
106280
104963
105684
105816
105534
105759
106333
104619
104652
104462
102976
103742
105129
103244
104577
104876
103849
104557
104282
104435
104753
110077
106689
105116
104338
103739
103681
104996
104700
102934
104919
102573
103301
106361
107043
106792
107437
107062
106337
106812
105638
104872
104725
105710
105465
104662
104572
105500
106437
107494
107083
106954
107097
106888
106528
106381
107036
106638
107242
106310
107038
106630
105676
104739
104810
105545
105584
104677
105484
104749
106433
107119
107037
84978.1
107063
106256
106175
108046
107807
108027
107940
107850
108126
107973
108130
107998
108032
108099
108056
107876
107950
107980
108089
107996
107840
108213
107873
108220
108048
107827
107912
107459
107745
107563
107631
107663
107766
106691
106726
105401
105964
106349
107149
107370
107506
107561
107497
106129
106890
107242
107551
107685
107072
107275
106892
103378
103840
102307
103285
103273
103865
102419
103403
103898
103349
103952
103374
103818
103232
103919
103366
103287
103828
102507
103322
103861
102427
102836
102704
104248
104209
103916
103690
104241
103910
104210
104418
104593
104576
104478
104442
104545
104411
104557
104197
103607
104151
103826
104184
103843
104219
103153
103114
104091
104140
103687
103844
104103
104120
103800
104213
104306
104167
104305
104019
103669
104002
103723
104053
103759
103954
104281
104439
104327
104360
105323
106011
107938
107541
106485
105107
104832
104474
104161
103747
104849
105548
107063
106760
104276
106552
105745
104860
103779
102930
103065
103624
105047
105859
106558
106381
105072
105990
105252
102489
102198
102513
102028
104388
103429
104134
103745
103973
104999
105247
104351
105437
104063
104041
112032
108798
108860
108781
108693
105511
108792
135539
105606
111842
105332
109066
107526
107489
122269
108072
106682
107564
113145
116398
110458
112863
114377
107962
116055
108033
111186
109045
111600
108277
104207
108581
101772
104691
118725
107915
110886
109791
107579
120513
111394
111177
115068
110513
103454
128717
107804
108575
102866
103444
101864
102799
102816
103499
101888
102599
100891
103206
102573
102607
102857
102566
103104
103073
102749
103512
102108
103487
101987
103732
102767
102787
103995
103359
103917
103643
103899
103622
104007
104166
104260
104145
104240
103976
103403
103934
103682
103958
103914
103658
104183
104275
104212
104231
102628
102542
104167
103988
103693
103464
104046
104117
103745
104294
104350
104263
104397
104302
104334
104285
104283
104135
103398
103983
103768
103990
103770
104192
103886
103905
105832
105118
105631
104562
106019
104735
105523
105852
105433
105357
106200
106315
107188
106607