/*--------------------------------*- C++ -*----------------------------------*\
| =========                 |                                                 |
| \\      /  F ield         | OpenFOAM: The Open Source CFD Toolbox           |
|  \\    /   O peration     | Version:  4.1                                   |
|   \\  /    A nd           | Web:      www.OpenFOAM.org                      |
|    \\/     M anipulation  |                                                 |
\*---------------------------------------------------------------------------*/
FoamFile
{
    version     2.0;
    format      ascii;
    class       volScalarField;
    location    "79";
    object      p;
}
// * * * * * * * * * * * * * * * * * * * * * * * * * * * * * * * * * * * * * //

dimensions      [0 2 -2 0 0 0 0];

internalField   nonuniform List<scalar> 
4432
(
-3.65205e+10
-3.66034e+10
-3.68811e+10
-3.68826e+10
-3.69314e+10
-3.70383e+10
-3.71209e+10
-3.71954e+10
-3.72625e+10
-3.73256e+10
-3.73859e+10
-3.74414e+10
-3.74875e+10
-3.75193e+10
-3.75347e+10
-3.75312e+10
-3.75046e+10
-3.74523e+10
-3.73742e+10
-3.72718e+10
-3.71474e+10
-3.70054e+10
-3.68515e+10
-3.66921e+10
-3.6533e+10
-3.63791e+10
-3.62337e+10
-3.6099e+10
-3.59764e+10
-3.58677e+10
-3.57752e+10
-3.57029e+10
-3.56555e+10
-3.56367e+10
-3.56474e+10
-3.56831e+10
-3.57335e+10
-3.57839e+10
-3.58178e+10
-3.58222e+10
-3.57899e+10
-3.57226e+10
-3.56331e+10
-3.55633e+10
-3.56201e+10
-3.59571e+10
-3.65413e+10
-3.67286e+10
-3.54084e+10
-3.30268e+10
-3.44552e+10
-4.53996e+10
-5.60988e+10
-2.75685e+10
-3.6659e+10
-3.66399e+10
-3.67965e+10
-3.69059e+10
-3.69463e+10
-3.70352e+10
-3.71217e+10
-3.71934e+10
-3.72573e+10
-3.73199e+10
-3.7381e+10
-3.74372e+10
-3.74833e+10
-3.75154e+10
-3.7531e+10
-3.7527e+10
-3.74989e+10
-3.74449e+10
-3.73655e+10
-3.72619e+10
-3.71364e+10
-3.69937e+10
-3.68392e+10
-3.66795e+10
-3.65201e+10
-3.63664e+10
-3.62214e+10
-3.60874e+10
-3.59657e+10
-3.5858e+10
-3.57666e+10
-3.56953e+10
-3.56486e+10
-3.56302e+10
-3.56411e+10
-3.5677e+10
-3.57277e+10
-3.57783e+10
-3.5812e+10
-3.58155e+10
-3.57825e+10
-3.57154e+10
-3.56275e+10
-3.55615e+10
-3.56261e+10
-3.59778e+10
-3.65779e+10
-3.67251e+10
-3.51164e+10
-3.18671e+10
-3.19383e+10
-4.32664e+10
-5.80682e+10
-3.34212e+10
-3.67755e+10
-3.67457e+10
-3.68309e+10
-3.69659e+10
-3.70144e+10
-3.70794e+10
-3.71712e+10
-3.72486e+10
-3.7319e+10
-3.73886e+10
-3.7456e+10
-3.7521e+10
-3.75776e+10
-3.7618e+10
-3.76381e+10
-3.76368e+10
-3.76114e+10
-3.75586e+10
-3.74785e+10
-3.73713e+10
-3.72395e+10
-3.70871e+10
-3.69201e+10
-3.67461e+10
-3.65719e+10
-3.64042e+10
-3.62465e+10
-3.61021e+10
-3.59719e+10
-3.58576e+10
-3.5761e+10
-3.56853e+10
-3.56348e+10
-3.56127e+10
-3.56196e+10
-3.56513e+10
-3.5698e+10
-3.57449e+10
-3.57751e+10
-3.57749e+10
-3.57375e+10
-3.56635e+10
-3.55641e+10
-3.54805e+10
-3.55273e+10
-3.58695e+10
-3.64394e+10
-3.64176e+10
-3.44313e+10
-3.1029e+10
-3.21238e+10
-4.50123e+10
-5.96207e+10
-3.61891e+10
-3.67667e+10
-3.67767e+10
-3.68722e+10
-3.69623e+10
-3.70164e+10
-3.70848e+10
-3.71765e+10
-3.72514e+10
-3.73217e+10
-3.73911e+10
-3.74597e+10
-3.75257e+10
-3.75823e+10
-3.76217e+10
-3.76411e+10
-3.764e+10
-3.76145e+10
-3.75611e+10
-3.74805e+10
-3.73729e+10
-3.72404e+10
-3.70874e+10
-3.69197e+10
-3.67451e+10
-3.65705e+10
-3.64026e+10
-3.62451e+10
-3.61011e+10
-3.59716e+10
-3.58586e+10
-3.57636e+10
-3.56897e+10
-3.5641e+10
-3.56205e+10
-3.5629e+10
-3.56623e+10
-3.57104e+10
-3.57587e+10
-3.57902e+10
-3.57915e+10
-3.57559e+10
-3.56841e+10
-3.5587e+10
-3.55059e+10
-3.55573e+10
-3.59086e+10
-3.64835e+10
-3.64016e+10
-3.41601e+10
-3.04398e+10
-3.23536e+10
-4.79949e+10
-6.0805e+10
-2.97381e+10
-3.69317e+10
-3.69455e+10
-3.68997e+10
-3.70021e+10
-3.70623e+10
-3.71169e+10
-3.71882e+10
-3.72617e+10
-3.73342e+10
-3.74053e+10
-3.74747e+10
-3.7543e+10
-3.76032e+10
-3.76463e+10
-3.76686e+10
-3.767e+10
-3.76498e+10
-3.76051e+10
-3.75339e+10
-3.74347e+10
-3.73079e+10
-3.71562e+10
-3.69859e+10
-3.68044e+10
-3.66204e+10
-3.64412e+10
-3.6272e+10
-3.61161e+10
-3.59753e+10
-3.58514e+10
-3.57462e+10
-3.56622e+10
-3.56017e+10
-3.55674e+10
-3.55596e+10
-3.55741e+10
-3.56021e+10
-3.56305e+10
-3.56451e+10
-3.5634e+10
-3.55916e+10
-3.55173e+10
-3.54191e+10
-3.53412e+10
-3.54193e+10
-3.58601e+10
-3.661e+10
-3.67486e+10
-3.47111e+10
-3.11189e+10
-3.24153e+10
-4.57541e+10
-5.87171e+10
-2.97562e+10
-3.68744e+10
-3.69361e+10
-3.69647e+10
-3.69921e+10
-3.70506e+10
-3.71187e+10
-3.71927e+10
-3.72643e+10
-3.73385e+10
-3.74112e+10
-3.74828e+10
-3.75528e+10
-3.76146e+10
-3.76593e+10
-3.76835e+10
-3.76873e+10
-3.76681e+10
-3.7623e+10
-3.75503e+10
-3.74485e+10
-3.73179e+10
-3.71616e+10
-3.69858e+10
-3.67985e+10
-3.66087e+10
-3.64243e+10
-3.62508e+10
-3.60918e+10
-3.59491e+10
-3.58244e+10
-3.57196e+10
-3.5637e+10
-3.55795e+10
-3.55494e+10
-3.55469e+10
-3.55674e+10
-3.56016e+10
-3.56359e+10
-3.56554e+10
-3.56481e+10
-3.56075e+10
-3.5533e+10
-3.54333e+10
-3.5353e+10
-3.54259e+10
-3.58512e+10
-3.65479e+10
-3.65058e+10
-3.39896e+10
-2.9573e+10
-3.03107e+10
-4.46008e+10
-6.00696e+10
-3.27858e+10
-3.69143e+10
-3.69633e+10
-3.69857e+10
-3.70133e+10
-3.70796e+10
-3.71511e+10
-3.72242e+10
-3.72991e+10
-3.73781e+10
-3.74596e+10
-3.75429e+10
-3.76273e+10
-3.7706e+10
-3.77704e+10
-3.78153e+10
-3.78368e+10
-3.783e+10
-3.77927e+10
-3.77232e+10
-3.76202e+10
-3.74828e+10
-3.73134e+10
-3.71187e+10
-3.69087e+10
-3.66952e+10
-3.64883e+10
-3.62954e+10
-3.61209e+10
-3.5967e+10
-3.58361e+10
-3.57297e+10
-3.56492e+10
-3.55952e+10
-3.55699e+10
-3.55734e+10
-3.55997e+10
-3.56387e+10
-3.56761e+10
-3.56966e+10
-3.56873e+10
-3.56399e+10
-3.55491e+10
-3.54167e+10
-3.52809e+10
-3.52777e+10
-3.56269e+10
-3.63045e+10
-3.64151e+10
-3.43281e+10
-3.03878e+10
-3.09452e+10
-4.46376e+10
-6.2647e+10
-4.08655e+10
-3.69352e+10
-3.69892e+10
-3.70073e+10
-3.70155e+10
-3.7078e+10
-3.71592e+10
-3.72331e+10
-3.73078e+10
-3.73888e+10
-3.74715e+10
-3.75561e+10
-3.76408e+10
-3.77192e+10
-3.77832e+10
-3.78278e+10
-3.78489e+10
-3.78414e+10
-3.78025e+10
-3.77302e+10
-3.7623e+10
-3.74803e+10
-3.73045e+10
-3.71026e+10
-3.6885e+10
-3.66637e+10
-3.64496e+10
-3.62505e+10
-3.60712e+10
-3.5914e+10
-3.57809e+10
-3.56734e+10
-3.55933e+10
-3.55424e+10
-3.55215e+10
-3.55289e+10
-3.55589e+10
-3.56006e+10
-3.56384e+10
-3.56562e+10
-3.56412e+10
-3.55848e+10
-3.54828e+10
-3.53402e+10
-3.52002e+10
-3.52048e+10
-3.55769e+10
-3.62735e+10
-3.63218e+10
-3.40205e+10
-3.01042e+10
-3.21597e+10
-4.8372e+10
-6.19404e+10
-3.04297e+10
-3.69605e+10
-3.69911e+10
-3.70245e+10
-3.70403e+10
-3.70887e+10
-3.71544e+10
-3.72267e+10
-3.73018e+10
-3.73826e+10
-3.74703e+10
-3.75629e+10
-3.76563e+10
-3.77449e+10
-3.78219e+10
-3.7882e+10
-3.79196e+10
-3.79292e+10
-3.79067e+10
-3.78479e+10
-3.7749e+10
-3.76058e+10
-3.74188e+10
-3.71944e+10
-3.69455e+10
-3.66881e+10
-3.64363e+10
-3.62006e+10
-3.59872e+10
-3.57992e+10
-3.56388e+10
-3.55074e+10
-3.54062e+10
-3.53361e+10
-3.52987e+10
-3.52934e+10
-3.53151e+10
-3.53535e+10
-3.5394e+10
-3.54202e+10
-3.54174e+10
-3.53748e+10
-3.52844e+10
-3.51457e+10
-3.49965e+10
-3.49729e+10
-3.52987e+10
-3.59747e+10
-3.61664e+10
-3.42629e+10
-3.03575e+10
-3.01683e+10
-4.25423e+10
-6.08721e+10
-3.88803e+10
-3.69868e+10
-3.70253e+10
-3.70316e+10
-3.70401e+10
-3.70894e+10
-3.7159e+10
-3.72327e+10
-3.73096e+10
-3.73908e+10
-3.74774e+10
-3.75689e+10
-3.7661e+10
-3.77472e+10
-3.78211e+10
-3.78779e+10
-3.79121e+10
-3.79189e+10
-3.78945e+10
-3.78347e+10
-3.77351e+10
-3.75922e+10
-3.74063e+10
-3.71837e+10
-3.69371e+10
-3.66822e+10
-3.64331e+10
-3.62003e+10
-3.59902e+10
-3.58059e+10
-3.56491e+10
-3.55215e+10
-3.54245e+10
-3.53596e+10
-3.53274e+10
-3.53263e+10
-3.53509e+10
-3.53905e+10
-3.54301e+10
-3.54524e+10
-3.54426e+10
-3.53906e+10
-3.52894e+10
-3.514e+10
-3.49835e+10
-3.49618e+10
-3.5304e+10
-3.60022e+10
-3.6173e+10
-3.41954e+10
-3.0573e+10
-3.19992e+10
-4.63603e+10
-6.06591e+10
-3.09549e+10
-3.70322e+10
-3.70507e+10
-3.70741e+10
-3.71004e+10
-3.71454e+10
-3.72084e+10
-3.72823e+10
-3.73617e+10
-3.74481e+10
-3.75467e+10
-3.76569e+10
-3.77707e+10
-3.78822e+10
-3.79856e+10
-3.80738e+10
-3.8138e+10
-3.81698e+10
-3.81627e+10
-3.81122e+10
-3.80127e+10
-3.78577e+10
-3.76435e+10
-3.73775e+10
-3.70781e+10
-3.67689e+10
-3.64709e+10
-3.61984e+10
-3.59593e+10
-3.57561e+10
-3.55888e+10
-3.54565e+10
-3.53585e+10
-3.52949e+10
-3.52655e+10
-3.52679e+10
-3.5296e+10
-3.53391e+10
-3.53815e+10
-3.54055e+10
-3.53954e+10
-3.53392e+10
-3.52285e+10
-3.50641e+10
-3.48866e+10
-3.48359e+10
-3.51442e+10
-3.58417e+10
-3.61488e+10
-3.45013e+10
-3.10686e+10
-3.179e+10
-4.44837e+10
-5.79739e+10
-2.97334e+10
-3.7041e+10
-3.70629e+10
-3.70821e+10
-3.71049e+10
-3.71516e+10
-3.72118e+10
-3.72824e+10
-3.73621e+10
-3.74491e+10
-3.75463e+10
-3.76532e+10
-3.77645e+10
-3.78743e+10
-3.79766e+10
-3.80646e+10
-3.81294e+10
-3.81616e+10
-3.81543e+10
-3.81026e+10
-3.80018e+10
-3.78453e+10
-3.76298e+10
-3.73625e+10
-3.70621e+10
-3.67523e+10
-3.64538e+10
-3.61811e+10
-3.59417e+10
-3.57381e+10
-3.55701e+10
-3.54366e+10
-3.53372e+10
-3.52716e+10
-3.52396e+10
-3.52386e+10
-3.52629e+10
-3.53016e+10
-3.534e+10
-3.53613e+10
-3.53505e+10
-3.52972e+10
-3.51947e+10
-3.50448e+10
-3.48882e+10
-3.48635e+10
-3.51976e+10
-3.5903e+10
-3.61563e+10
-3.4317e+10
-3.04346e+10
-3.04074e+10
-4.2806e+10
-5.78134e+10
-3.07643e+10
-3.70153e+10
-3.70269e+10
-3.70417e+10
-3.70718e+10
-3.71185e+10
-3.71836e+10
-3.7261e+10
-3.73457e+10
-3.74408e+10
-3.75516e+10
-3.76763e+10
-3.78085e+10
-3.79424e+10
-3.80714e+10
-3.81862e+10
-3.82761e+10
-3.83298e+10
-3.83386e+10
-3.82977e+10
-3.82003e+10
-3.80354e+10
-3.77915e+10
-3.74737e+10
-3.71076e+10
-3.67294e+10
-3.63701e+10
-3.60493e+10
-3.57759e+10
-3.55507e+10
-3.53702e+10
-3.52299e+10
-3.51264e+10
-3.50577e+10
-3.5022e+10
-3.50158e+10
-3.50326e+10
-3.50615e+10
-3.50872e+10
-3.5092e+10
-3.50587e+10
-3.49743e+10
-3.48301e+10
-3.46268e+10
-3.4405e+10
-3.43034e+10
-3.45545e+10
-3.51952e+10
-3.54356e+10
-3.35908e+10
-2.95261e+10
-2.91447e+10
-4.19063e+10
-5.93095e+10
-3.36568e+10
-3.70031e+10
-3.7014e+10
-3.70343e+10
-3.70684e+10
-3.7116e+10
-3.71766e+10
-3.72505e+10
-3.73362e+10
-3.74342e+10
-3.75463e+10
-3.76715e+10
-3.78051e+10
-3.7941e+10
-3.80719e+10
-3.81885e+10
-3.8279e+10
-3.83321e+10
-3.83399e+10
-3.82979e+10
-3.81994e+10
-3.80323e+10
-3.77856e+10
-3.74639e+10
-3.70937e+10
-3.67119e+10
-3.63499e+10
-3.60276e+10
-3.57539e+10
-3.55294e+10
-3.53507e+10
-3.52131e+10
-3.5113e+10
-3.50479e+10
-3.50159e+10
-3.50138e+10
-3.50355e+10
-3.5071e+10
-3.51056e+10
-3.51224e+10
-3.51056e+10
-3.50433e+10
-3.49282e+10
-3.47627e+10
-3.45885e+10
-3.45436e+10
-3.48574e+10
-3.55583e+10
-3.58411e+10
-3.39505e+10
-2.94336e+10
-2.75799e+10
-3.8515e+10
-5.70304e+10
-3.30534e+10
-3.70379e+10
-3.70403e+10
-3.70502e+10
-3.70804e+10
-3.71304e+10
-3.71963e+10
-3.7274e+10
-3.73633e+10
-3.74706e+10
-3.75998e+10
-3.77472e+10
-3.79085e+10
-3.80785e+10
-3.82488e+10
-3.8408e+10
-3.8542e+10
-3.8635e+10
-3.86758e+10
-3.8659e+10
-3.85803e+10
-3.84208e+10
-3.81526e+10
-3.77699e+10
-3.73126e+10
-3.68442e+10
-3.64146e+10
-3.60495e+10
-3.57556e+10
-3.55282e+10
-3.53573e+10
-3.52334e+10
-3.51488e+10
-3.5099e+10
-3.50806e+10
-3.50901e+10
-3.51215e+10
-3.51651e+10
-3.52072e+10
-3.52323e+10
-3.5226e+10
-3.51772e+10
-3.5079e+10
-3.49344e+10
-3.47859e+10
-3.47727e+10
-3.51305e+10
-3.59046e+10
-3.63033e+10
-3.45609e+10
-3.02988e+10
-2.90558e+10
-4.04647e+10
-5.74879e+10
-3.26062e+10
-3.70394e+10
-3.70368e+10
-3.70539e+10
-3.70934e+10
-3.71441e+10
-3.72055e+10
-3.72817e+10
-3.73718e+10
-3.74786e+10
-3.76042e+10
-3.77468e+10
-3.79028e+10
-3.80666e+10
-3.82302e+10
-3.83827e+10
-3.85103e+10
-3.8598e+10
-3.86352e+10
-3.86179e+10
-3.85413e+10
-3.83869e+10
-3.8126e+10
-3.77516e+10
-3.73008e+10
-3.68354e+10
-3.64054e+10
-3.60374e+10
-3.57393e+10
-3.55073e+10
-3.53322e+10
-3.52048e+10
-3.51177e+10
-3.50663e+10
-3.50474e+10
-3.50577e+10
-3.50914e+10
-3.51386e+10
-3.5186e+10
-3.52179e+10
-3.52197e+10
-3.51797e+10
-3.50903e+10
-3.49541e+10
-3.48145e+10
-3.48144e+10
-3.51981e+10
-3.60306e+10
-3.65496e+10
-3.50069e+10
-3.09719e+10
-2.99372e+10
-4.12905e+10
-5.66032e+10
-2.92748e+10
-3.69559e+10
-3.69611e+10
-3.69744e+10
-3.70092e+10
-3.70676e+10
-3.7141e+10
-3.72271e+10
-3.73307e+10
-3.74582e+10
-3.76113e+10
-3.77886e+10
-3.7987e+10
-3.8201e+10
-3.84211e+10
-3.86344e+10
-3.88232e+10
-3.89666e+10
-3.90479e+10
-3.90621e+10
-3.901e+10
-3.88657e+10
-3.85673e+10
-3.80764e+10
-3.74532e+10
-3.68212e+10
-3.62687e+10
-3.58279e+10
-3.55001e+10
-3.52689e+10
-3.5113e+10
-3.50132e+10
-3.49557e+10
-3.49319e+10
-3.49365e+10
-3.49653e+10
-3.50128e+10
-3.5071e+10
-3.51286e+10
-3.51726e+10
-3.51913e+10
-3.51766e+10
-3.51241e+10
-3.50399e+10
-3.49706e+10
-3.50647e+10
-3.55764e+10
-3.65827e+10
-3.73264e+10
-3.60913e+10
-3.26601e+10
-3.28554e+10
-4.51427e+10
-5.885e+10
-2.93617e+10
-3.69767e+10
-3.6977e+10
-3.69949e+10
-3.70339e+10
-3.70877e+10
-3.71545e+10
-3.72379e+10
-3.73385e+10
-3.7459e+10
-3.76028e+10
-3.777e+10
-3.79584e+10
-3.81627e+10
-3.83747e+10
-3.85824e+10
-3.87693e+10
-3.89149e+10
-3.90017e+10
-3.9024e+10
-3.89818e+10
-3.88502e+10
-3.85669e+10
-3.80915e+10
-3.74807e+10
-3.68557e+10
-3.63048e+10
-3.58613e+10
-3.55275e+10
-3.52884e+10
-3.51237e+10
-3.50153e+10
-3.49504e+10
-3.49212e+10
-3.49229e+10
-3.49518e+10
-3.50028e+10
-3.5068e+10
-3.51358e+10
-3.51927e+10
-3.52252e+10
-3.52221e+10
-3.51755e+10
-3.5086e+10
-3.49948e+10
-3.5045e+10
-3.54891e+10
-3.64098e+10
-3.70631e+10
-3.57272e+10
-3.21121e+10
-3.20043e+10
-4.45648e+10
-6.01578e+10
-3.42696e+10
-3.69887e+10
-3.7012e+10
-3.70349e+10
-3.70734e+10
-3.71314e+10
-3.7202e+10
-3.72844e+10
-3.73845e+10
-3.75065e+10
-3.76535e+10
-3.78295e+10
-3.80355e+10
-3.82691e+10
-3.85235e+10
-3.87865e+10
-3.90385e+10
-3.92527e+10
-3.94021e+10
-3.94791e+10
-3.94941e+10
-3.94271e+10
-3.91676e+10
-3.85951e+10
-3.77701e+10
-3.69203e+10
-3.62096e+10
-3.56777e+10
-3.53149e+10
-3.5083e+10
-3.49432e+10
-3.48647e+10
-3.48276e+10
-3.48205e+10
-3.4838e+10
-3.48762e+10
-3.49306e+10
-3.49948e+10
-3.50596e+10
-3.51135e+10
-3.51453e+10
-3.51457e+10
-3.51073e+10
-3.50315e+10
-3.49603e+10
-3.50393e+10
-3.55238e+10
-3.64897e+10
-3.71618e+10
-3.57606e+10
-3.19442e+10
-3.15522e+10
-4.4362e+10
-6.21317e+10
-3.71039e+10
-3.69888e+10
-3.70112e+10
-3.70328e+10
-3.70699e+10
-3.71234e+10
-3.71927e+10
-3.72751e+10
-3.73745e+10
-3.74952e+10
-3.7642e+10
-3.78187e+10
-3.80266e+10
-3.8263e+10
-3.85209e+10
-3.87876e+10
-3.90427e+10
-3.9258e+10
-3.9407e+10
-3.94831e+10
-3.94992e+10
-3.9434e+10
-3.91761e+10
-3.86033e+10
-3.7774e+10
-3.69202e+10
-3.62112e+10
-3.56867e+10
-3.53355e+10
-3.51172e+10
-3.49913e+10
-3.49265e+10
-3.49023e+10
-3.49072e+10
-3.49353e+10
-3.49829e+10
-3.50457e+10
-3.51167e+10
-3.51857e+10
-3.52406e+10
-3.52692e+10
-3.52615e+10
-3.52091e+10
-3.51114e+10
-3.5008e+10
-3.50409e+10
-3.54615e+10
-3.63446e+10
-3.69139e+10
-3.53341e+10
-3.10017e+10
-2.94197e+10
-4.19262e+10
-6.44969e+10
-4.52223e+10
-3.69104e+10
-3.69282e+10
-3.69447e+10
-3.69706e+10
-3.70079e+10
-3.70559e+10
-3.7116e+10
-3.71944e+10
-3.72994e+10
-3.74413e+10
-3.76308e+10
-3.78765e+10
-3.81811e+10
-3.85388e+10
-3.89332e+10
-3.93339e+10
-3.96944e+10
-3.99641e+10
-4.0123e+10
-4.02053e+10
-4.02347e+10
-4.00622e+10
-3.93866e+10
-3.8187e+10
-3.69072e+10
-3.59547e+10
-3.5344e+10
-3.49897e+10
-3.47989e+10
-3.47067e+10
-3.46712e+10
-3.46686e+10
-3.46873e+10
-3.47232e+10
-3.47759e+10
-3.48441e+10
-3.4923e+10
-3.50048e+10
-3.508e+10
-3.51388e+10
-3.51722e+10
-3.5172e+10
-3.51367e+10
-3.51036e+10
-3.52132e+10
-3.57098e+10
-3.66465e+10
-3.72089e+10
-3.55318e+10
-3.10644e+10
-2.94322e+10
-4.13798e+10
-6.11569e+10
-3.61162e+10
-3.68992e+10
-3.69149e+10
-3.69302e+10
-3.69549e+10
-3.69935e+10
-3.70436e+10
-3.71048e+10
-3.71848e+10
-3.72913e+10
-3.74341e+10
-3.76235e+10
-3.78674e+10
-3.81678e+10
-3.85188e+10
-3.89038e+10
-3.92928e+10
-3.96404e+10
-3.98975e+10
-4.00461e+10
-4.01229e+10
-4.01515e+10
-3.99884e+10
-3.93389e+10
-3.81656e+10
-3.68963e+10
-3.5943e+10
-3.53272e+10
-3.49726e+10
-3.47887e+10
-3.47094e+10
-3.46911e+10
-3.4708e+10
-3.47468e+10
-3.48022e+10
-3.48718e+10
-3.49526e+10
-3.5038e+10
-3.51184e+10
-3.5183e+10
-3.52219e+10
-3.52274e+10
-3.51937e+10
-3.51239e+10
-3.5063e+10
-3.51619e+10
-3.56804e+10
-3.66918e+10
-3.74006e+10
-3.59373e+10
-3.16963e+10
-3.02966e+10
-4.25314e+10
-6.15786e+10
-3.53875e+10
-3.68519e+10
-3.68657e+10
-3.68864e+10
-3.6919e+10
-3.69621e+10
-3.7018e+10
-3.70903e+10
-3.71865e+10
-3.73183e+10
-3.75006e+10
-3.77488e+10
-3.80744e+10
-3.84801e+10
-3.89547e+10
-3.94712e+10
-3.99857e+10
-4.04338e+10
-4.07466e+10
-4.08968e+10
-4.09622e+10
-4.10824e+10
-4.11346e+10
-4.04344e+10
-3.84999e+10
-3.62674e+10
-3.49991e+10
-3.44268e+10
-3.42028e+10
-3.41662e+10
-3.42156e+10
-3.42958e+10
-3.43801e+10
-3.44601e+10
-3.4536e+10
-3.46117e+10
-3.46891e+10
-3.47662e+10
-3.48371e+10
-3.48941e+10
-3.49302e+10
-3.494e+10
-3.49196e+10
-3.48737e+10
-3.48502e+10
-3.50028e+10
-3.55809e+10
-3.6618e+10
-3.72779e+10
-3.5792e+10
-3.19378e+10
-3.15277e+10
-4.36856e+10
-5.91267e+10
-3.14624e+10
-3.68366e+10
-3.68418e+10
-3.68627e+10
-3.68937e+10
-3.69373e+10
-3.69929e+10
-3.70649e+10
-3.7161e+10
-3.72926e+10
-3.74743e+10
-3.77212e+10
-3.80448e+10
-3.84487e+10
-3.8923e+10
-3.94424e+10
-3.99639e+10
-4.04234e+10
-4.07462e+10
-4.09012e+10
-4.09675e+10
-4.10777e+10
-4.11102e+10
-4.04321e+10
-3.85672e+10
-3.63839e+10
-3.51182e+10
-3.45079e+10
-3.42496e+10
-3.41893e+10
-3.42265e+10
-3.43045e+10
-3.43952e+10
-3.44883e+10
-3.45826e+10
-3.4679e+10
-3.47768e+10
-3.48714e+10
-3.49539e+10
-3.50129e+10
-3.50376e+10
-3.5019e+10
-3.49504e+10
-3.48358e+10
-3.47258e+10
-3.47827e+10
-3.52737e+10
-3.62617e+10
-3.69449e+10
-3.55771e+10
-3.1974e+10
-3.21387e+10
-4.49543e+10
-5.89844e+10
-2.98255e+10
-3.67641e+10
-3.67694e+10
-3.67868e+10
-3.68155e+10
-3.6852e+10
-3.6895e+10
-3.69459e+10
-3.70111e+10
-3.7103e+10
-3.72409e+10
-3.74479e+10
-3.77467e+10
-3.8153e+10
-3.86668e+10
-3.9266e+10
-3.99055e+10
-4.05096e+10
-4.09773e+10
-4.1259e+10
-4.14804e+10
-4.19549e+10
-4.2689e+10
-4.2413e+10
-3.93268e+10
-3.54084e+10
-3.37408e+10
-3.31807e+10
-3.31064e+10
-3.32803e+10
-3.35196e+10
-3.3748e+10
-3.39427e+10
-3.41051e+10
-3.42441e+10
-3.43678e+10
-3.44796e+10
-3.45772e+10
-3.46533e+10
-3.46975e+10
-3.46995e+10
-3.46512e+10
-3.45471e+10
-3.43945e+10
-3.42502e+10
-3.42815e+10
-3.47432e+10
-3.56496e+10
-3.61598e+10
-3.46793e+10
-3.14589e+10
-3.25537e+10
-4.57111e+10
-5.92582e+10
-2.97743e+10
-3.675e+10
-3.67497e+10
-3.67681e+10
-3.67977e+10
-3.68366e+10
-3.68829e+10
-3.69385e+10
-3.70095e+10
-3.71084e+10
-3.72542e+10
-3.74698e+10
-3.77769e+10
-3.81904e+10
-3.87101e+10
-3.9315e+10
-3.99601e+10
-4.05698e+10
-4.10388e+10
-4.13009e+10
-4.14801e+10
-4.18734e+10
-4.24957e+10
-4.2249e+10
-3.94507e+10
-3.55813e+10
-3.39188e+10
-3.33177e+10
-3.32088e+10
-3.33495e+10
-3.35606e+10
-3.3768e+10
-3.39487e+10
-3.41026e+10
-3.42369e+10
-3.43589e+10
-3.44709e+10
-3.45697e+10
-3.46461e+10
-3.46875e+10
-3.46807e+10
-3.46142e+10
-3.44788e+10
-3.42782e+10
-3.40655e+10
-3.40064e+10
-3.43568e+10
-3.51321e+10
-3.54783e+10
-3.37205e+10
-2.98139e+10
-2.93711e+10
-4.14561e+10
-5.95309e+10
-3.82815e+10
-3.66106e+10
-3.66172e+10
-3.66285e+10
-3.66483e+10
-3.66715e+10
-3.66923e+10
-3.67093e+10
-3.67299e+10
-3.67751e+10
-3.68804e+10
-3.70933e+10
-3.74661e+10
-3.80419e+10
-3.88313e+10
-3.97958e+10
-4.08651e+10
-4.19185e+10
-4.27962e+10
-4.34295e+10
-4.40261e+10
-4.50277e+10
-4.64673e+10
-4.68613e+10
-4.27293e+10
-3.67588e+10
-3.25153e+10
-3.20248e+10
-3.23449e+10
-3.27931e+10
-3.3185e+10
-3.35011e+10
-3.37546e+10
-3.39641e+10
-3.41452e+10
-3.43094e+10
-3.44618e+10
-3.46009e+10
-3.47187e+10
-3.48035e+10
-3.48432e+10
-3.48275e+10
-3.47496e+10
-3.46156e+10
-3.44814e+10
-3.45108e+10
-3.49453e+10
-3.57688e+10
-3.61132e+10
-3.44251e+10
-3.10581e+10
-3.1885e+10
-4.43e+10
-5.80914e+10
-2.96558e+10
-3.66192e+10
-3.66294e+10
-3.66431e+10
-3.66661e+10
-3.66935e+10
-3.672e+10
-3.67438e+10
-3.67723e+10
-3.6826e+10
-3.69396e+10
-3.71585e+10
-3.75316e+10
-3.80979e+10
-3.88682e+10
-3.98134e+10
-4.08587e+10
-4.18817e+10
-4.27048e+10
-4.31903e+10
-4.35666e+10
-4.43218e+10
-4.55788e+10
-4.61269e+10
-4.30826e+10
-3.73135e+10
-3.23852e+10
-3.19753e+10
-3.2349e+10
-3.28221e+10
-3.32211e+10
-3.35343e+10
-3.37795e+10
-3.39779e+10
-3.4146e+10
-3.4295e+10
-3.44303e+10
-3.45509e+10
-3.46494e+10
-3.47154e+10
-3.47382e+10
-3.47088e+10
-3.46217e+10
-3.44842e+10
-3.43523e+10
-3.43881e+10
-3.48274e+10
-3.56325e+10
-3.58642e+10
-3.37985e+10
-2.95018e+10
-2.87709e+10
-4.07221e+10
-5.85205e+10
-3.57255e+10
-3.65784e+10
-3.66013e+10
-3.66144e+10
-3.66341e+10
-3.66508e+10
-3.66582e+10
-3.66537e+10
-3.6649e+10
-3.66747e+10
-3.678e+10
-3.70275e+10
-3.74801e+10
-3.81776e+10
-3.90999e+10
-4.01701e+10
-4.129e+10
-4.23324e+10
-4.31691e+10
-4.37967e+10
-4.44929e+10
-4.55589e+10
-4.69679e+10
-4.79644e+10
-4.64901e+10
-4.12278e+10
-2.64954e+10
-2.89198e+10
-3.09885e+10
-3.21411e+10
-3.28318e+10
-3.32797e+10
-3.35912e+10
-3.38247e+10
-3.40135e+10
-3.41767e+10
-3.43234e+10
-3.44542e+10
-3.45632e+10
-3.46407e+10
-3.46777e+10
-3.46676e+10
-3.46071e+10
-3.45055e+10
-3.4418e+10
-3.45008e+10
-3.49798e+10
-3.58177e+10
-3.61154e+10
-3.42673e+10
-3.05746e+10
-3.10793e+10
-4.40033e+10
-6.04179e+10
-3.71536e+10
-3.6564e+10
-3.65944e+10
-3.66044e+10
-3.66256e+10
-3.66462e+10
-3.66603e+10
-3.66649e+10
-3.66708e+10
-3.67068e+10
-3.6821e+10
-3.7075e+10
-3.75285e+10
-3.82164e+10
-3.91265e+10
-4.01979e+10
-4.13231e+10
-4.23636e+10
-4.31525e+10
-4.36015e+10
-4.40109e+10
-4.50093e+10
-4.67998e+10
-4.78663e+10
-4.67661e+10
-4.36397e+10
-2.63752e+10
-2.87691e+10
-3.09002e+10
-3.21107e+10
-3.28344e+10
-3.32997e+10
-3.36172e+10
-3.38485e+10
-3.40288e+10
-3.41785e+10
-3.43067e+10
-3.44142e+10
-3.44956e+10
-3.45425e+10
-3.45475e+10
-3.45065e+10
-3.44192e+10
-3.42981e+10
-3.42017e+10
-3.42886e+10
-3.47832e+10
-3.56271e+10
-3.5837e+10
-3.36993e+10
-2.98677e+10
-3.17916e+10
-4.75843e+10
-6.07329e+10
-2.97723e+10
-3.65439e+10
-3.65622e+10
-3.65755e+10
-3.65921e+10
-3.66063e+10
-3.66103e+10
-3.66023e+10
-3.65947e+10
-3.66206e+10
-3.67302e+10
-3.69857e+10
-3.74504e+10
-3.81586e+10
-3.90821e+10
-4.0155e+10
-4.12785e+10
-4.23283e+10
-4.31886e+10
-4.3849e+10
-4.46018e+10
-4.57666e+10
-4.7097e+10
-4.68441e+10
-4.19403e+10
-1.96862e+10
-2.83697e+10
-3.06215e+10
-3.19246e+10
-3.27102e+10
-3.3212e+10
-3.35502e+10
-3.37921e+10
-3.39762e+10
-3.41247e+10
-3.42479e+10
-3.43472e+10
-3.44178e+10
-3.44518e+10
-3.44426e+10
-3.43868e+10
-3.42854e+10
-3.4151e+10
-3.40388e+10
-3.40991e+10
-3.45514e+10
-3.53745e+10
-3.57169e+10
-3.39929e+10
-3.03747e+10
-3.05771e+10
-4.28652e+10
-6.03112e+10
-3.94919e+10
-3.6528e+10
-3.65532e+10
-3.65626e+10
-3.65803e+10
-3.65976e+10
-3.66075e+10
-3.66075e+10
-3.66087e+10
-3.66415e+10
-3.67557e+10
-3.70147e+10
-3.74785e+10
-3.81792e+10
-3.90998e+10
-4.01761e+10
-4.13044e+10
-4.23499e+10
-4.31456e+10
-4.36401e+10
-4.40818e+10
-4.50186e+10
-4.66823e+10
-4.82539e+10
-4.73955e+10
-2.05581e+10
-2.83115e+10
-3.05392e+10
-3.18593e+10
-3.26612e+10
-3.31731e+10
-3.35165e+10
-3.37605e+10
-3.39453e+10
-3.40938e+10
-3.4217e+10
-3.43169e+10
-3.43885e+10
-3.44236e+10
-3.44151e+10
-3.43598e+10
-3.42587e+10
-3.41245e+10
-3.40127e+10
-3.40737e+10
-3.45286e+10
-3.53462e+10
-3.56299e+10
-3.37737e+10
-3.03392e+10
-3.21092e+10
-4.66921e+10
-6.05043e+10
-3.07102e+10
-3.6576e+10
-3.65839e+10
-3.66031e+10
-3.66251e+10
-3.66484e+10
-3.66647e+10
-3.6672e+10
-3.66803e+10
-3.67181e+10
-3.6829e+10
-3.7067e+10
-3.74923e+10
-3.81458e+10
-3.90159e+10
-4.00448e+10
-4.11254e+10
-4.21326e+10
-4.29757e+10
-4.35974e+10
-4.41328e+10
-4.48742e+10
-4.5926e+10
-4.6741e+10
-4.51365e+10
-3.47527e+10
-3.0871e+10
-3.09286e+10
-3.16935e+10
-3.24277e+10
-3.29758e+10
-3.33662e+10
-3.36472e+10
-3.38583e+10
-3.40263e+10
-3.41679e+10
-3.42911e+10
-3.43962e+10
-3.4478e+10
-3.45289e+10
-3.45426e+10
-3.45156e+10
-3.44483e+10
-3.43505e+10
-3.427e+10
-3.43434e+10
-3.47799e+10
-3.55778e+10
-3.59612e+10
-3.44489e+10
-3.1303e+10
-3.23447e+10
-4.50225e+10
-5.78745e+10
-3.02625e+10
-3.65801e+10
-3.65926e+10
-3.66087e+10
-3.66317e+10
-3.66584e+10
-3.66822e+10
-3.67008e+10
-3.67225e+10
-3.6772e+10
-3.68908e+10
-3.7132e+10
-3.75493e+10
-3.81753e+10
-3.90008e+10
-3.99738e+10
-4.09951e+10
-4.19318e+10
-4.26419e+10
-4.31325e+10
-4.3653e+10
-4.45582e+10
-4.5794e+10
-4.6168e+10
-4.47047e+10
-3.58699e+10
-3.06652e+10
-3.07057e+10
-3.15349e+10
-3.23262e+10
-3.29095e+10
-3.33184e+10
-3.36091e+10
-3.38255e+10
-3.39973e+10
-3.41429e+10
-3.42711e+10
-3.43827e+10
-3.44727e+10
-3.4533e+10
-3.45564e+10
-3.45385e+10
-3.44787e+10
-3.43861e+10
-3.43077e+10
-3.43785e+10
-3.48042e+10
-3.55761e+10
-3.59005e+10
-3.42253e+10
-3.05734e+10
-3.05459e+10
-4.2689e+10
-5.79334e+10
-3.1393e+10
-3.67274e+10
-3.6736e+10
-3.67588e+10
-3.67918e+10
-3.68333e+10
-3.68794e+10
-3.69288e+10
-3.69874e+10
-3.7071e+10
-3.72052e+10
-3.74218e+10
-3.77527e+10
-3.82183e+10
-3.88141e+10
-3.95069e+10
-4.02289e+10
-4.08852e+10
-4.13755e+10
-4.16336e+10
-4.17326e+10
-4.19305e+10
-4.23714e+10
-4.21769e+10
-3.91763e+10
-3.56234e+10
-3.38324e+10
-3.31571e+10
-3.30196e+10
-3.31539e+10
-3.33524e+10
-3.35432e+10
-3.37043e+10
-3.38381e+10
-3.39524e+10
-3.40545e+10
-3.4148e+10
-3.42317e+10
-3.42997e+10
-3.43444e+10
-3.4359e+10
-3.43397e+10
-3.42851e+10
-3.42008e+10
-3.41261e+10
-3.41841e+10
-3.45713e+10
-3.52934e+10
-3.5622e+10
-3.41088e+10
-3.08485e+10
-3.13393e+10
-4.35946e+10
-5.83635e+10
-2.9894e+10
-3.67231e+10
-3.67305e+10
-3.67527e+10
-3.67841e+10
-3.6825e+10
-3.68719e+10
-3.69244e+10
-3.69885e+10
-3.70798e+10
-3.72234e+10
-3.745e+10
-3.77889e+10
-3.82555e+10
-3.88411e+10
-3.95088e+10
-4.01906e+10
-4.07925e+10
-4.12158e+10
-4.14362e+10
-4.15935e+10
-4.1956e+10
-4.25148e+10
-4.21922e+10
-3.92812e+10
-3.55738e+10
-3.36581e+10
-3.29794e+10
-3.28877e+10
-3.30723e+10
-3.33093e+10
-3.35266e+10
-3.37061e+10
-3.38536e+10
-3.39795e+10
-3.40924e+10
-3.41965e+10
-3.42902e+10
-3.43679e+10
-3.44216e+10
-3.44438e+10
-3.44301e+10
-3.43794e+10
-3.42988e+10
-3.4229e+10
-3.42927e+10
-3.46841e+10
-3.54075e+10
-3.57274e+10
-3.40776e+10
-3.00243e+10
-2.82706e+10
-3.85254e+10
-5.74077e+10
-3.70248e+10
-3.68223e+10
-3.68303e+10
-3.68521e+10
-3.68859e+10
-3.69318e+10
-3.699e+10
-3.70625e+10
-3.71555e+10
-3.72798e+10
-3.74509e+10
-3.76862e+10
-3.80004e+10
-3.8398e+10
-3.88674e+10
-3.93778e+10
-3.98795e+10
-4.03086e+10
-4.06011e+10
-4.07215e+10
-4.07095e+10
-4.06786e+10
-4.05633e+10
-3.97895e+10
-3.79221e+10
-3.5873e+10
-3.46451e+10
-3.4024e+10
-3.37525e+10
-3.37007e+10
-3.37533e+10
-3.38459e+10
-3.39455e+10
-3.40411e+10
-3.41314e+10
-3.42181e+10
-3.43006e+10
-3.43756e+10
-3.4436e+10
-3.44733e+10
-3.44805e+10
-3.4453e+10
-3.439e+10
-3.42985e+10
-3.422e+10
-3.42801e+10
-3.46813e+10
-3.5444e+10
-3.58657e+10
-3.45287e+10
-3.15574e+10
-3.24106e+10
-4.47553e+10
-5.88775e+10
-3.13357e+10
-3.68158e+10
-3.68198e+10
-3.6842e+10
-3.68736e+10
-3.69174e+10
-3.69732e+10
-3.70438e+10
-3.71359e+10
-3.72615e+10
-3.7437e+10
-3.76809e+10
-3.80079e+10
-3.84226e+10
-3.89126e+10
-3.94456e+10
-3.9969e+10
-4.04136e+10
-4.07127e+10
-4.08419e+10
-4.08626e+10
-4.08852e+10
-4.07881e+10
-3.99546e+10
-3.79666e+10
-3.57854e+10
-3.45079e+10
-3.39028e+10
-3.36635e+10
-3.36425e+10
-3.37188e+10
-3.38287e+10
-3.39421e+10
-3.405e+10
-3.41525e+10
-3.42517e+10
-3.43474e+10
-3.4436e+10
-3.451e+10
-3.45604e+10
-3.45797e+10
-3.45635e+10
-3.45107e+10
-3.44289e+10
-3.43594e+10
-3.44258e+10
-3.48256e+10
-3.55729e+10
-3.59433e+10
-3.44033e+10
-3.07914e+10
-3.05401e+10
-4.27468e+10
-5.89831e+10
-3.10813e+10
-3.69202e+10
-3.69282e+10
-3.69499e+10
-3.69806e+10
-3.70221e+10
-3.70753e+10
-3.71436e+10
-3.72327e+10
-3.73512e+10
-3.75095e+10
-3.77182e+10
-3.79848e+10
-3.83095e+10
-3.86816e+10
-3.90775e+10
-3.94612e+10
-3.97871e+10
-4.00112e+10
-4.01136e+10
-4.01177e+10
-4.00401e+10
-3.97403e+10
-3.89251e+10
-3.76008e+10
-3.62488e+10
-3.52718e+10
-3.46722e+10
-3.43451e+10
-3.41945e+10
-3.41466e+10
-3.41545e+10
-3.41905e+10
-3.42409e+10
-3.43003e+10
-3.43659e+10
-3.44338e+10
-3.44969e+10
-3.45455e+10
-3.45688e+10
-3.45579e+10
-3.45077e+10
-3.44183e+10
-3.43002e+10
-3.42022e+10
-3.42629e+10
-3.46997e+10
-3.55329e+10
-3.6019e+10
-3.46632e+10
-3.15379e+10
-3.22014e+10
-4.53279e+10
-6.34691e+10
-4.12353e+10
-3.69196e+10
-3.69258e+10
-3.69478e+10
-3.69778e+10
-3.70181e+10
-3.70694e+10
-3.71347e+10
-3.72199e+10
-3.73335e+10
-3.74862e+10
-3.76889e+10
-3.79497e+10
-3.82698e+10
-3.86403e+10
-3.90398e+10
-3.94333e+10
-3.9774e+10
-4.00146e+10
-4.01368e+10
-4.01683e+10
-4.01209e+10
-3.98371e+10
-3.90138e+10
-3.76555e+10
-3.62645e+10
-3.52729e+10
-3.46761e+10
-3.43533e+10
-3.42043e+10
-3.41554e+10
-3.4161e+10
-3.4195e+10
-3.4245e+10
-3.43059e+10
-3.43753e+10
-3.4449e+10
-3.45205e+10
-3.458e+10
-3.46176e+10
-3.46246e+10
-3.45968e+10
-3.45335e+10
-3.44436e+10
-3.43712e+10
-3.44465e+10
-3.48745e+10
-3.56532e+10
-3.59834e+10
-3.43055e+10
-3.09776e+10
-3.27084e+10
-4.79955e+10
-6.31861e+10
-3.25279e+10
-3.70022e+10
-3.70139e+10
-3.70376e+10
-3.70714e+10
-3.71163e+10
-3.71734e+10
-3.72452e+10
-3.7336e+10
-3.74509e+10
-3.75959e+10
-3.77756e+10
-3.79917e+10
-3.82405e+10
-3.85122e+10
-3.87896e+10
-3.90478e+10
-3.92559e+10
-3.93864e+10
-3.94311e+10
-3.94024e+10
-3.92838e+10
-3.89679e+10
-3.83317e+10
-3.74404e+10
-3.65333e+10
-3.57885e+10
-3.52483e+10
-3.48913e+10
-3.46713e+10
-3.45446e+10
-3.44792e+10
-3.44546e+10
-3.44589e+10
-3.4486e+10
-3.45311e+10
-3.45883e+10
-3.46483e+10
-3.46992e+10
-3.47286e+10
-3.4726e+10
-3.46852e+10
-3.46051e+10
-3.44963e+10
-3.44115e+10
-3.4497e+10
-3.49766e+10
-3.58553e+10
-3.6318e+10
-3.47169e+10
-3.09124e+10
-3.04868e+10
-4.33453e+10
-6.60554e+10
-5.2662e+10
-3.70113e+10
-3.70252e+10
-3.70498e+10
-3.70856e+10
-3.71324e+10
-3.71911e+10
-3.72639e+10
-3.73544e+10
-3.74674e+10
-3.76084e+10
-3.77815e+10
-3.79882e+10
-3.82254e+10
-3.84839e+10
-3.8748e+10
-3.8994e+10
-3.91923e+10
-3.93161e+10
-3.93579e+10
-3.93309e+10
-3.92192e+10
-3.89173e+10
-3.83056e+10
-3.74417e+10
-3.6556e+10
-3.58248e+10
-3.52899e+10
-3.49309e+10
-3.47038e+10
-3.45673e+10
-3.44907e+10
-3.44544e+10
-3.4447e+10
-3.44625e+10
-3.44964e+10
-3.45427e+10
-3.45928e+10
-3.46354e+10
-3.46597e+10
-3.46563e+10
-3.46203e+10
-3.45507e+10
-3.44565e+10
-3.43849e+10
-3.44729e+10
-3.49305e+10
-3.57305e+10
-3.598e+10
-3.40181e+10