/*--------------------------------*- C++ -*----------------------------------*\
| =========                 |                                                 |
| \\      /  F ield         | OpenFOAM: The Open Source CFD Toolbox           |
|  \\    /   O peration     | Version:  4.1                                   |
|   \\  /    A nd           | Web:      www.OpenFOAM.org                      |
|    \\/     M anipulation  |                                                 |
\*---------------------------------------------------------------------------*/
FoamFile
{
    version     2.0;
    format      ascii;
    class       surfaceScalarField;
    location    "79";
    object      phi;
}
// * * * * * * * * * * * * * * * * * * * * * * * * * * * * * * * * * * * * * //

dimensions      [0 3 -1 0 0 0 0];

internalField   nonuniform List<scalar> 
11516
(
-3.45688e+10
8.61409e+07
7.38462e+08
-3.52393e+10
5.89984e+07
6.09412e+08
-3.58528e+10
4.99838e+07
5.60162e+08
-3.63903e+10
3.28452e+07
4.99567e+08
-3.68954e+10
3.58588e+07
4.62632e+08
-3.73729e+10
3.50342e+07
4.34306e+08
-3.78202e+10
3.25983e+07
4.05063e+08
-3.82419e+10
3.1691e+07
3.79354e+08
-3.86361e+10
3.05334e+07
3.51994e+08
-3.89988e+10
2.95209e+07
3.20614e+08
-3.93248e+10
2.87011e+07
2.83601e+08
-3.96095e+10
2.79607e+07
2.41475e+08
-3.98442e+10
2.70744e+07
1.89267e+08
-4.00248e+10
2.5741e+07
1.30696e+08
-4.01438e+10
2.2917e+07
6.33605e+07
-4.01938e+10
1.83373e+07
-1.10998e+07
-4.01674e+10
1.40329e+07
-9.05057e+07
-4.00571e+10
1.07055e+07
-1.76016e+08
-3.98617e+10
8.04925e+06
-2.61633e+08
-3.95808e+10
5.79498e+06
-3.49697e+08
-3.92136e+10
4.39653e+06
-4.37177e+08
-3.8765e+10
4.04598e+06
-5.18391e+08
-3.8236e+10
5.29656e+06
-5.9572e+08
-3.76392e+10
7.89741e+06
-6.60645e+08
-3.69855e+10
1.1589e+07
-7.17248e+08
-3.62949e+10
1.61703e+07
-7.57562e+08
-3.55817e+10
2.15429e+07
-7.87036e+08
-3.48656e+10
2.79408e+07
-7.99353e+08
-3.41598e+10
3.53562e+07
-8.0019e+08
-3.34793e+10
4.38324e+07
-7.87281e+08
-3.28376e+10
5.31726e+07
-7.61422e+08
-3.22437e+10
6.29969e+07
-7.26452e+08
-3.17097e+10
7.27491e+07
-6.786e+08
-3.12432e+10
8.12061e+07
-6.21125e+08
-3.08506e+10
8.70294e+07
-5.53518e+08
-3.05388e+10
8.89621e+07
-4.74417e+08
-3.03108e+10
8.61562e+07
-3.86748e+08
-3.01697e+10
7.63767e+07
-2.87783e+08
-3.01136e+10
5.81334e+07
-1.80675e+08
-3.01449e+10
3.27926e+07
-6.17528e+07
-3.02656e+10
-293639
7.03014e+07
-3.04765e+10
-4.58932e+07
2.19421e+08
-3.07809e+10
-1.10448e+08
3.94597e+08
-3.11906e+10
-2.00836e+08
6.08803e+08
-3.17511e+10
-3.18158e+08
8.90495e+08
-3.25721e+10
-4.49934e+08
1.27781e+09
-3.38083e+10
-5.75581e+08
1.77295e+09
-3.54875e+10
-7.45925e+08
2.27492e+09
-3.73919e+10
-1.16005e+09
2.71441e+09
-3.92633e+10
-2.03568e+09
3.29107e+09
-4.25292e+10
-3.19498e+09
5.50218e+09
-4.97382e+10
-2.49004e+09
8.84328e+09
-6.25432e+10
-2.84714e+09
1.51735e+10
4.45516e+08
1.00367e+10
-4.74529e+10
5.56629e+08
-4.78676e+10
4.71922e+08
-4.82365e+10
4.16121e+08
-4.8583e+10
3.75804e+08
-4.88898e+10
3.38259e+08
-4.91723e+10
3.12237e+08
-4.94325e+10
2.86787e+08
-4.96712e+10
2.63709e+08
-4.98872e+10
2.39379e+08
-5.00771e+10
2.11711e+08
-5.02362e+10
1.79269e+08
-5.03611e+10
1.43379e+08
-5.0444e+10
9.84129e+07
-5.04825e+10
4.91654e+07
-5.04726e+10
-6.61313e+06
-5.04127e+10
-6.61449e+07
-5.02981e+10
-1.28609e+08
-5.01205e+10
-1.97413e+08
-4.98797e+10
-2.6536e+08
-4.95739e+10
-3.34655e+08
-4.92027e+10
-4.0285e+08
-4.87706e+10
-4.63198e+08
-4.82787e+10
-5.19579e+08
-4.77391e+10
-5.61921e+08
-4.71597e+10
-5.95871e+08
-4.65584e+10
-6.1255e+08
-4.59455e+10
-6.19157e+08
-4.5338e+10
-6.08246e+08
-4.47456e+10
-5.86947e+08
-4.418e+10
-5.52559e+08
-4.36521e+10
-5.06312e+08
-4.31679e+10
-4.53039e+08
-4.27381e+10
-3.88591e+08
-4.23707e+10
-3.17001e+08
-4.20757e+10
-2.37577e+08
-4.18653e+10
-1.49367e+08
-4.17484e+10
-5.65174e+07
-4.17398e+10
4.47837e+07
-4.1851e+10
1.49805e+08
-4.20967e+10
2.63957e+08
-4.24953e+10
3.90055e+08
-4.30709e+10
5.29964e+08
-4.3861e+10
6.899e+08
-4.49213e+10
8.80423e+08
-4.63353e+10
1.12408e+09
-4.82068e+10
1.44793e+09
-5.06378e+10
1.8547e+09
-5.3719e+10
2.28174e+09
-5.77369e+10
2.68972e+09
-6.33802e+10
3.28292e+09
-7.30178e+10
6.08035e+09
-8.56969e+10
9.8247e+09
-1.04428e+11
1.56321e+10
1.27893e+10
-6.60362e+10
1.01191e+08
8.63881e+08
-6.62679e+10
1.02046e+08
7.37148e+08
-6.64718e+10
8.9838e+07
6.7148e+08
-6.66696e+10
8.7304e+07
6.06685e+08
-6.68473e+10
8.18813e+07
5.54097e+08
-6.70146e+10
7.902e+07
5.17547e+08
-6.71741e+10
7.56694e+07
4.83035e+08
-6.73249e+10
7.22392e+07
4.51425e+08
-6.74638e+10
6.81128e+07
4.15838e+08
-6.75924e+10
6.3627e+07
3.78068e+08
-6.77085e+10
5.85143e+07
3.33118e+08
-6.78088e+10
5.2747e+07
2.79907e+08
-6.7892e+10
4.62445e+07
2.15567e+08
-6.79546e+10
3.89958e+07
1.40937e+08
-6.79953e+10
3.12353e+07
5.49098e+07
-6.80185e+10
2.33934e+07
-3.43588e+07
-6.80268e+10
1.5138e+07
-1.24838e+08
-6.80221e+10
6.28033e+06
-2.17038e+08
-6.80006e+10
-3.083e+06
-3.12171e+08
-6.7963e+10
-1.26836e+07
-4.08607e+08
-6.79112e+10
-2.26347e+07
-5.0235e+08
-6.78447e+10
-3.24169e+07
-5.88813e+08
-6.77665e+10
-4.18922e+07
-6.65884e+08
-6.76746e+10
-5.09546e+07
-7.31468e+08
-6.75782e+10
-5.96974e+07
-7.79661e+08
-6.74749e+10
-6.82607e+07
-8.15264e+08
-6.73722e+10
-7.66645e+07
-8.34061e+08
-6.72667e+10
-8.45522e+07
-8.40315e+08
-6.7161e+10
-9.1751e+07
-8.33176e+08
-6.70496e+10
-9.79925e+07
-8.18614e+08
-6.693e+10
-1.03169e+08
-7.94095e+08
-6.67984e+10
-1.07074e+08
-7.64835e+08
-6.66474e+10
-1.09558e+08
-7.30829e+08
-6.64733e+10
-1.10492e+08
-6.91731e+08
-6.62684e+10
-1.09861e+08
-6.51044e+08
-6.6026e+10
-1.07704e+08
-6.06199e+08
-6.57396e+10
-1.03832e+08
-5.60566e+08
-6.53995e+10
-9.85682e+07
-5.13685e+08
-6.49975e+10
-9.3595e+07
-4.65882e+08
-6.4525e+10
-8.82828e+07
-4.13457e+08
-6.3977e+10
-7.99135e+07
-3.54332e+08
-6.33484e+10
-6.86201e+07
-2.83463e+08
-6.26195e+10
-5.61829e+07
-2.04909e+08
-6.177e+10
-4.22916e+07
-1.06569e+08
-6.07741e+10
-2.57897e+07
3.10223e+07
-5.95895e+10
-2.76046e+06
2.21779e+08
-5.8141e+10
2.1468e+07
4.3304e+08
-5.63605e+10
1.69864e+07
5.93018e+08
-5.42636e+10
-5.66716e+07
7.4786e+08
-5.22971e+10
-2.02589e+08
1.5456e+09
-4.9373e+10
-3.16619e+08
2.88277e+09
-4.41389e+10
1.5176e+08
3.45796e+09
-2.35459e+10
-3.08187e+09
-2.35524e+09
-3.62111e+09
-4.68236e+09
-7.74104e+10
7.47627e+08
-7.74874e+10
6.49022e+08
-7.75737e+10
5.90124e+08
-7.76597e+10
5.46432e+08
-7.7747e+10
5.04293e+08
-7.78335e+10
4.74129e+08
-7.79225e+10
4.47372e+08
-7.80135e+10
4.22437e+08
-7.81035e+10
3.92696e+08
-7.81947e+10
3.61407e+08
-7.8286e+10
3.23411e+08
-7.83744e+10
2.78122e+08
-7.84599e+10
2.22668e+08
-7.85393e+10
1.58192e+08
-7.86089e+10
8.2366e+07
-7.8668e+10
1.47172e+06
-7.87168e+10
-8.1858e+07
-7.87604e+10
-1.66346e+08
-7.87954e+10
-2.53384e+08
-7.88224e+10
-3.4178e+08
-7.88423e+10
-4.27974e+08
-7.88535e+10
-5.06933e+08
-7.8859e+10
-5.77185e+08
-7.88546e+10
-6.36175e+08
-7.88489e+10
-6.77677e+08
-7.88371e+10
-7.07195e+08
-7.88263e+10
-7.20104e+08
-7.88105e+10
-7.21296e+08
-7.87914e+10
-7.09783e+08
-7.87607e+10
-6.92368e+08
-7.87137e+10
-6.66245e+08
-7.86445e+10
-6.37521e+08
-7.85424e+10
-6.06251e+08
-7.84016e+10
-5.71767e+08
-7.82113e+10
-5.38087e+08
-7.79621e+10
-5.03176e+08
-7.76455e+10
-4.69869e+08
-7.72529e+10
-4.34863e+08
-7.67818e+10
-3.98059e+08
-7.62239e+10
-3.59147e+08
-7.55612e+10
-3.2197e+08
-7.47797e+10
-2.80395e+08
-7.38591e+10
-2.3609e+08
-7.27783e+10
-1.79434e+08
-7.15082e+10
-9.58858e+07
-6.99967e+10
1.9175e+07
-6.81624e+10
1.29358e+08
-6.59635e+10
1.74257e+08
-6.345e+10
1.67067e+08
-6.07885e+10
4.41903e+08
-5.57867e+10
7.60007e+08
-4.53733e+10
-4.20949e+08
-2.75221e+10
-5.15742e+09
-7.41514e+09
-5.74948e+10
6.10003e+07
6.24064e+08
-5.73467e+10
7.43567e+07
5.115e+08
-5.72384e+10
6.79087e+07
4.92e+08
-5.71683e+10
6.91835e+07
4.63634e+08
-5.71159e+10
6.34578e+07
4.33845e+08
-5.70756e+10
6.08965e+07
4.11099e+08
-5.70511e+10
5.8859e+07
3.93821e+08
-5.7036e+10
5.69088e+07
3.72915e+08
-5.70331e+10
5.44697e+07
3.51489e+08
-5.70375e+10
5.20227e+07
3.22905e+08
-5.70514e+10
4.91432e+07
2.89443e+08
-5.70739e+10
4.58081e+07
2.46976e+08
-5.71035e+10
4.17716e+07
1.92368e+08
-5.71377e+10
3.67572e+07
1.25276e+08
-5.71766e+10
3.04329e+07
4.68173e+07
-5.72025e+10
2.16258e+07
-5.06504e+07
-5.71972e+10
1.07936e+07
-1.66541e+08
-5.71507e+10
300309
-2.91754e+08
-5.70572e+10
-1.0254e+07
-4.25939e+08
-5.69165e+10
-2.07422e+07
-5.60208e+08
-5.67333e+10
-3.11717e+07
-6.90014e+08
-5.65071e+10
-4.0198e+07
-8.11148e+08
-5.62471e+10
-4.7619e+07
-9.13704e+08
-5.59622e+10
-5.24995e+07
-9.94413e+08
-5.56621e+10
-5.50522e+07
-1.04956e+09
-5.5363e+10
-5.54963e+07
-1.07891e+09
-5.5076e+10
-5.4274e+07
-1.08319e+09
-5.48106e+10
-5.17464e+07
-1.06778e+09
-5.45717e+10
-4.84786e+07
-1.03495e+09
-5.43647e+10
-4.5111e+07
-9.88876e+08
-5.41857e+10
-4.24741e+07
-9.35495e+08
-5.40361e+10
-4.11916e+07
-8.73606e+08
-5.39097e+10
-4.1636e+07
-8.10342e+08
-5.38007e+10
-4.39913e+07
-7.44698e+08
-5.3708e+10
-4.86287e+07
-6.75185e+08
-5.36208e+10
-5.69172e+07
-6.07277e+08
-5.35323e+10
-6.96736e+07
-5.39696e+08
-5.34412e+10
-8.48234e+07
-4.68042e+08
-5.335e+10
-1.01117e+08
-3.90312e+08
-5.325e+10
-1.22718e+08
-3.08589e+08
-5.31279e+10
-1.55802e+08
-2.19157e+08
-5.29615e+10
-2.00994e+08
-1.23406e+08
-5.27445e+10
-2.57396e+08
-1.02333e+07
-5.24583e+10
-3.25327e+08
1.20666e+08
-5.20687e+10
-4.04473e+08
2.69817e+08
-5.15348e+10
-4.94391e+08
4.37804e+08
-5.08526e+10
-6.07008e+08
6.28994e+08
-5.00239e+10
-7.85569e+08
8.12367e+08
-4.88069e+10
-1.09081e+09
8.59791e+08
-4.62397e+10
-1.48323e+09
6.97326e+08
-4.2668e+10
-1.45559e+09
1.11133e+09
-4.11576e+10
-4.95517e+08
2.85806e+09
-5.01304e+10
-7.39228e+09
1.45046e+10
-8.42918e+09
9.50916e+09
-6.53896e+10
6.36298e+08
-6.52058e+10
5.37039e+08
-6.50651e+10
5.14394e+08
-6.4939e+10
4.8634e+08
-6.48364e+10
4.61384e+08
-6.4746e+10
4.40495e+08
-6.46693e+10
4.24764e+08
-6.45998e+10
4.04754e+08
-6.45428e+10
3.84605e+08
-6.44927e+10
3.5734e+08
-6.44527e+10
3.2579e+08
-6.44221e+10
2.85643e+08
-6.44001e+10
2.3374e+08
-6.43852e+10
1.69863e+08
-6.438e+10
9.52783e+07
-6.43767e+10
4.8734e+06
-6.43654e+10
-9.94719e+07
-6.43384e+10
-2.11889e+08
-6.42898e+10
-3.32252e+08
-6.42215e+10
-4.52312e+08
-6.41366e+10
-5.66932e+08
-6.4034e+10
-6.73655e+08
-6.39194e+10
-7.61929e+08
-6.37984e+10
-8.29441e+08
-6.36749e+10
-8.72541e+08
-6.35598e+10
-8.91365e+08
-6.34587e+10
-8.86757e+08
-6.3377e+10
-8.64314e+08
-6.33168e+10
-8.26239e+08
-6.32834e+10
-7.76661e+08
-6.32739e+10
-7.21502e+08
-6.32935e+10
-6.5931e+08
-6.334e+10
-5.97679e+08
-6.34115e+10
-5.35935e+08
-6.35117e+10
-4.72673e+08
-6.36386e+10
-4.1302e+08
-6.37969e+10
-3.5366e+08
-6.39881e+10
-2.92524e+08
-6.42099e+10
-2.31592e+08
-6.44615e+10
-1.72777e+08
-6.47593e+10
-1.08569e+08
-6.51122e+10
-4.01195e+07
-6.55387e+10
4.19841e+07
-6.60479e+10
1.36792e+08
-6.66395e+10
2.47803e+08
-6.73144e+10
3.76121e+08
-6.8126e+10
5.1802e+08
-6.91942e+10
6.35947e+08
-7.06414e+10
7.02277e+08
-7.2479e+10
1.00466e+09
-7.52864e+10
2.44189e+09
-8.09506e+10
5.2534e+09
-1.04545e+11
1.15315e+10
1.11909e+10
-6.42932e+10
-3.15123e+07
7.27868e+08
-6.44293e+10
-3.10462e+07
6.7505e+08
-6.45376e+10
-3.9534e+07
6.35867e+08
-6.46508e+10
-4.42325e+07
6.16812e+08
-6.47687e+10
-5.08109e+07
5.97701e+08
-6.48881e+10
-5.57521e+07
5.8067e+08
-6.50037e+10
-5.9267e+07
5.62442e+08
-6.51186e+10
-6.27609e+07
5.43658e+08
-6.52296e+10
-6.65958e+07
5.21601e+08
-6.53351e+10
-7.05683e+07
4.90627e+08
-6.543e+10
-7.50886e+07
4.50055e+08
-6.55091e+10
-8.01685e+07
3.95207e+08
-6.55678e+10
-8.59708e+07
3.24753e+08
-6.56027e+10
-9.25641e+07
2.39061e+08
-6.56035e+10
-1.0022e+08
1.33321e+08
-6.55755e+10
-1.08848e+08
1.26887e+07
-6.55258e+10
-1.17774e+08
-1.18308e+08
-6.54539e+10
-1.27486e+08
-2.58712e+08
-6.53596e+10
-1.37778e+08
-4.05295e+08
-6.52403e+10
-1.49609e+08
-5.55367e+08
-6.50963e+10
-1.62406e+08
-6.98901e+08
-6.49322e+10
-1.76201e+08
-8.29294e+08
-6.47513e+10
-1.90053e+08
-9.34418e+08
-6.45617e+10
-2.03401e+08
-1.00695e+09
-6.43715e+10
-2.15902e+08
-1.04499e+09
-6.41935e+10
-2.27291e+08
-1.0459e+09
-6.40362e+10
-2.37219e+08
-1.01551e+09
-6.3907e+10
-2.45263e+08
-9.60872e+08
-6.38105e+10
-2.51138e+08
-8.86441e+08
-6.37458e+10
-2.54727e+08
-8.01609e+08
-6.37149e+10
-2.56084e+08
-7.09056e+08
-6.37122e+10
-2.55392e+08
-6.14572e+08
-6.3737e+10
-2.52762e+08
-5.20134e+08
-6.37841e+10
-2.48909e+08
-4.28697e+08
-6.38443e+10
-2.44628e+08
-3.41191e+08
-6.39166e+10
-2.40331e+08
-2.55216e+08
-6.3993e+10
-2.36386e+08
-1.75215e+08
-6.40636e+10
-2.33228e+08
-9.91288e+07
-6.41153e+10
-2.31295e+08
-2.64792e+07
-6.41317e+10
-2.32851e+08
3.89521e+07
-6.40932e+10
-2.41019e+08
1.02179e+08
-6.39783e+10
-2.57729e+08
1.61536e+08
-6.37537e+10
-2.84396e+08
2.18545e+08
-6.3393e+10
-3.22063e+08
2.79288e+08
-6.28681e+10
-3.69429e+08
3.38812e+08
-6.21477e+10
-4.3004e+08
3.90599e+08
-6.11541e+10
-5.26216e+08
4.10878e+08
-5.97895e+10
-6.86416e+08
3.80086e+08
-5.81201e+10
-8.49909e+08
3.0434e+08
-5.64466e+10
-7.9519e+08
1.80004e+08
-5.3632e+10
-6.84004e+08
-5.77881e+08
-4.80668e+10
-3.41932e+08
-1.83053e+09
-1.72014e+10
-1.10634e+10
-4.82984e+09
-7.50112e+09
-3.12043e+09
-6.26387e+10
5.37798e+08
-6.26002e+10
4.64722e+08
-6.25635e+10
4.35284e+08
-6.25322e+10
4.07642e+08
-6.25105e+10
3.8522e+08
-6.24965e+10
3.66508e+08
-6.24834e+10
3.47704e+08
-6.24752e+10
3.28699e+08
-6.24703e+10
3.07435e+08
-6.24682e+10
2.78332e+08
-6.24659e+10
2.41233e+08
-6.24602e+10
1.91324e+08
-6.2449e+10
1.27254e+08
-6.24311e+10
4.93511e+07
-6.24007e+10
-4.63635e+07
-6.23613e+10
-1.55628e+08
-6.23149e+10
-2.7743e+08
-6.2259e+10
-4.10421e+08
-6.21953e+10
-5.49849e+08
-6.21222e+10
-6.92368e+08
-6.20424e+10
-8.28672e+08
-6.19608e+10
-9.52517e+08
-6.1882e+10
-1.05163e+09
-6.18142e+10
-1.11928e+09
-6.17645e+10
-1.15369e+09
-6.17428e+10
-1.15286e+09
-6.17541e+10
-1.12292e+09
-6.1801e+10
-1.07106e+09
-6.18831e+10
-1.00181e+09
-6.19948e+10
-9.24131e+08
-6.21338e+10
-8.40553e+08
-6.22909e+10
-7.56275e+08
-6.2463e+10
-6.7303e+08
-6.26445e+10
-5.93025e+08
-6.28293e+10
-5.16227e+08
-6.30192e+10
-4.40204e+08
-6.32083e+10
-3.69714e+08
-6.33901e+10
-3.03462e+08
-6.35618e+10
-2.40121e+08
-6.37215e+10
-1.82333e+08
-6.38669e+10
-1.26188e+08
-6.39961e+10
-7.34637e+07
-6.40989e+10
-2.47904e+07
-6.41707e+10
2.25027e+07
-6.41976e+10
6.06651e+07
-6.4165e+10
8.16905e+07
-6.40664e+10
6.51666e+07
-6.39154e+10
-2.46804e+07
-6.35917e+10
-2.65009e+08
-6.23065e+10
-7.76898e+08
-5.78115e+10
-2.32705e+09
-4.6945e+10
-5.4622e+09
-3.94414e+10
-6.82036e+09
-1.86665e+08
-6.06869e+10
6.27215e+07
6.29438e+08
-6.06528e+10
6.28296e+07
5.77646e+08
-6.064e+10
6.28971e+07
5.5985e+08
-6.06319e+10
6.42052e+07
5.43837e+08
-6.06352e+10
6.55109e+07
5.34278e+08
-6.06494e+10
6.74795e+07
5.25522e+08
-6.0673e+10
6.9914e+07
5.13723e+08
-6.07065e+10
7.25149e+07
5.01631e+08
-6.07473e+10
7.54029e+07
4.83332e+08
-6.07964e+10
7.85856e+07
4.56639e+08
-6.08539e+10
8.19009e+07
4.19736e+08
-6.09192e+10
8.54467e+07
3.67494e+08
-6.0993e+10
8.95606e+07
3.00231e+08
-6.10687e+10
9.46726e+07
2.11021e+08
-6.11439e+10
1.0144e+08
9.87784e+07
-6.12121e+10
1.09962e+08
-3.75655e+07
-6.12592e+10
1.19277e+08
-1.99513e+08
-6.12749e+10
1.27848e+08
-3.82375e+08
-6.12522e+10
1.36839e+08
-5.77085e+08
-6.11893e+10
1.4624e+08
-7.79737e+08
-6.10828e+10
1.55755e+08
-9.78782e+08
-6.09349e+10
1.64172e+08
-1.16496e+09
-6.07495e+10
1.72139e+08
-1.31726e+09
-6.05368e+10
1.78829e+08
-1.42325e+09
-6.03128e+10
1.8388e+08
-1.47496e+09
-6.00916e+10
1.86621e+08
-1.47314e+09
-5.98876e+10
1.86646e+08
-1.42431e+09
-5.97099e+10
1.83938e+08
-1.34028e+09
-5.95636e+10
1.78622e+08
-1.22922e+09
-5.94505e+10
1.7085e+08
-1.10351e+09
-5.93698e+10
1.60836e+08
-9.68445e+08
-5.93191e+10
1.48795e+08
-8.31065e+08
-5.92951e+10
1.3497e+08
-6.94606e+08
-5.92956e+10
1.19491e+08
-5.60502e+08
-5.93171e+10
1.02457e+08
-4.31392e+08
-5.93543e+10
8.41085e+07
-3.06473e+08
-5.94068e+10
6.41849e+07
-1.85362e+08
-5.9467e+10
4.16984e+07
-7.20401e+07
-5.95316e+10
1.7735e+07
3.75674e+07
-5.95961e+10
-8.33939e+06
1.39117e+08
-5.96481e+10
-3.79729e+07
2.31917e+08
-5.96723e+10
-7.3949e+07
3.1434e+08
-5.9645e+10
-1.18595e+08
3.81896e+08
-5.95384e+10
-1.74295e+08
4.36882e+08
-5.93216e+10
-2.42827e+08
4.68684e+08
-5.89656e+10
-3.28604e+08
4.68906e+08
-5.84145e+10
-4.59785e+08
4.10067e+08
-5.75491e+10
-6.80814e+08
2.59658e+08
-5.61617e+10
-9.96137e+08
-2.19769e+07
-5.42031e+10
-1.28732e+09
-4.63973e+08
-5.10641e+10
-1.91172e+09
-1.75713e+09
-4.53972e+10
-3.74224e+09
-3.67088e+09
-2.85659e+10
-1.02815e+10
-1.14362e+10
-5.72537e+09
-9.01973e+09
-5.67905e+10
5.29738e+08
-5.67451e+10
4.83037e+08
-5.67174e+10
4.71163e+08
-5.67041e+10
4.58946e+08
-5.67062e+10
4.52851e+08
-5.67229e+10
4.50288e+08
-5.67512e+10
4.45081e+08
-5.67913e+10
4.40068e+08
-5.68401e+10
4.29867e+08
-5.68976e+10
4.12034e+08
-5.69625e+10
3.84547e+08
-5.70323e+10
3.41897e+08
-5.71049e+10
2.84157e+08
-5.71704e+10
2.04183e+08
-5.722e+10
9.98832e+07
-5.72383e+10
-3.19135e+07
-5.72102e+10
-1.91426e+08
-5.71289e+10
-3.69871e+08
-5.6989e+10
-5.59933e+08
-5.67858e+10
-7.58085e+08
-5.65167e+10
-9.54225e+08
-5.61826e+10
-1.13745e+09
-5.57909e+10
-1.28792e+09
-5.53558e+10
-1.39229e+09
-5.48984e+10
-1.44287e+09
-5.44391e+10
-1.44078e+09
-5.39977e+10
-1.39329e+09
-5.35888e+10
-1.31286e+09
-5.32215e+10
-1.20869e+09
-5.29008e+10
-1.09372e+09
-5.26275e+10
-9.74115e+08
-5.23999e+10
-8.57301e+08
-5.22137e+10
-7.47015e+08
-5.20651e+10
-6.44896e+08
-5.19476e+10
-5.53522e+08
-5.18505e+10
-4.74036e+08
-5.17668e+10
-4.08333e+08
-5.1685e+10
-3.60133e+08
-5.1596e+10
-3.24529e+08
-5.14915e+10
-3.04028e+08
-5.13607e+10
-2.9816e+08
-5.11964e+10
-3.07854e+08
-5.09906e+10
-3.37476e+08
-5.07366e+10
-3.87285e+08
-5.04294e+10
-4.69623e+08
-5.00702e+10
-5.9671e+08
-4.96902e+10
-7.90443e+08
-4.93355e+10
-1.10936e+09
-4.89152e+10
-1.75948e+09
-4.78794e+10
-3.21417e+09
-4.62407e+10
-6.02126e+09
-4.62466e+10
-9.47144e+09
-4.21713e+10
-2.151e+10
-7.50425e+09
-5.96738e+10
2.22578e+07
6.6753e+08
-5.97736e+10
1.74976e+07
6.6667e+08
-5.98876e+10
1.21417e+07
6.68197e+08
-6.00195e+10
9.42196e+06
6.72414e+08
-6.01668e+10
6.38059e+06
6.8106e+08
-6.03292e+10
4.29768e+06
6.89127e+08
-6.05083e+10
2.76138e+06
6.94936e+08
-6.07022e+10
1.95775e+06
6.98097e+08
-6.09097e+10
2.12774e+06
6.9257e+08
-6.11301e+10
3.26212e+06
6.76768e+08
-6.13581e+10
5.4337e+06
6.44157e+08
-6.15918e+10
8.58808e+06
5.92847e+08
-6.18237e+10
1.29788e+07
5.18218e+08
-6.20448e+10
1.87296e+07
4.13456e+08
-6.22475e+10
2.57378e+07
2.77791e+08
-6.24222e+10
3.28462e+07
1.09755e+08
-6.25671e+10
3.87545e+07
-8.75886e+07
-6.26766e+10
4.5156e+07
-3.11874e+08
-6.27475e+10
5.2373e+07
-5.54681e+08
-6.27743e+10
6.0443e+07
-8.1081e+08
-6.2753e+10
6.85634e+07
-1.0721e+09
-6.26811e+10
7.7661e+07
-1.32308e+09
-6.25649e+10
8.77471e+07
-1.53537e+09
-6.24184e+10
9.9434e+07
-1.68639e+09
-6.22619e+10
1.12871e+08
-1.76383e+09
-6.21125e+10
1.27986e+08
-1.77303e+09
-6.19838e+10
1.44842e+08
-1.72522e+09
-6.18827e+10
1.63755e+08
-1.63814e+09
-6.1808e+10
1.85029e+08
-1.52853e+09
-6.17589e+10
2.08984e+08
-1.40802e+09
-6.17285e+10
2.35867e+08
-1.28832e+09
-6.171e+10
2.65751e+08
-1.17602e+09
-6.16976e+10
2.98571e+08
-1.07345e+09
-6.16823e+10
3.34259e+08
-9.84648e+08
-6.16588e+10
3.72436e+08
-9.0868e+08
-6.162e+10
4.1252e+08
-8.45496e+08
-6.15616e+10
4.53458e+08
-7.91466e+08
-6.14795e+10
4.93505e+08
-7.48181e+08
-6.13653e+10
5.31805e+08
-7.16089e+08
-6.12146e+10
5.68879e+08
-6.94858e+08
-6.10205e+10
6.04648e+08
-6.88735e+08
-6.07773e+10
6.383e+08
-6.96426e+08
-6.04814e+10
6.68793e+08
-7.21276e+08
-6.01251e+10
6.94563e+08
-7.64965e+08
-5.97154e+10
7.12255e+08
-8.26632e+08
-5.92658e+10
7.16758e+08
-9.11212e+08
-5.88188e+10
7.00843e+08
-1.0239e+09
-5.83973e+10
6.44763e+08
-1.20727e+09
-5.79011e+10
5.04213e+08
-1.60277e+09
-5.678e+10
1.48627e+08
-2.51167e+09
-5.44538e+10
-5.37875e+08
-4.57584e+09
-4.98842e+10
-2.32042e+09
-7.08777e+09
-3.56908e+10
-9.19654e+09
-1.7335e+10
-4.54232e+09
-5.51818e+09
-5.9975e+10
5.80377e+08
-6.00492e+10
5.789e+08
-6.01327e+10
5.70954e+08
-6.02306e+10
5.70148e+08
-6.03417e+10
5.74032e+08
-6.0464e+10
5.80239e+08
-6.05984e+10
5.85244e+08
-6.07427e+10
5.89012e+08
-6.08941e+10
5.8574e+08
-6.10512e+10
5.74084e+08
-6.12078e+10
5.47604e+08
-6.13616e+10
5.04275e+08
-6.15039e+10
4.3924e+08
-6.16259e+10
3.45558e+08
-6.17201e+10
2.22353e+08
-6.17832e+10
6.84879e+07
-6.18192e+10
-1.11139e+08
-6.18229e+10
-3.15419e+08
-6.17875e+10
-5.38243e+08
-6.17084e+10
-7.74293e+08
-6.158e+10
-1.01475e+09
-6.13999e+10
-1.24441e+09
-6.11733e+10
-1.4346e+09
-6.09141e+10
-1.56191e+09
-6.06425e+10
-1.61323e+09
-6.03761e+10
-1.5936e+09
-6.01288e+10
-1.51367e+09
-5.99092e+10
-1.39093e+09
-5.97178e+10
-1.24192e+09
-5.95559e+10
-1.07849e+09
-5.94184e+10
-9.12439e+08
-5.93014e+10
-7.50403e+08
-5.92018e+10
-5.94825e+08
-5.91145e+10
-4.49621e+08
-5.90384e+10
-3.13673e+08
-5.89731e+10
-1.8801e+08
-5.89236e+10
-7.0381e+07
-5.89005e+10
3.93835e+07
-5.89114e+10
1.42087e+08
-5.89641e+10
2.36115e+08
-5.90621e+10
3.17284e+08
-5.9212e+10
3.86945e+08
-5.94242e+10
4.42508e+08
-5.97124e+10
4.82899e+08
-6.01135e+10
5.11138e+08
-6.0685e+10
5.22282e+08
-6.15164e+10
5.09178e+08
-6.27262e+10
4.13243e+08
-6.44954e+10
4.2519e+07
-6.70761e+10
-1.14834e+09
-7.08086e+10
-3.69476e+09
-7.5844e+10
-7.64688e+09
-9.18704e+10
-1.5374e+10
-8.66738e+08
-5.91661e+10
1.35697e+08
6.18788e+08
-5.92981e+10
1.43204e+08
6.63314e+08
-5.9435e+10
1.34625e+08
6.78024e+08
-5.95928e+10
1.36446e+08
7.00936e+08
-5.97661e+10
1.3655e+08
7.24613e+08
-5.99541e+10
1.37647e+08
7.45864e+08
-6.01575e+10
1.38491e+08
7.65893e+08
-6.03748e+10
1.39673e+08
7.817e+08
-6.0606e+10
1.4107e+08
7.88524e+08
-6.0846e+10
1.42362e+08
7.80117e+08
-6.10975e+10
1.43104e+08
7.5781e+08
-6.13541e+10
1.4311e+08
7.10871e+08
-6.16087e+10
1.42456e+08
6.35169e+08
-6.18546e+10
1.41288e+08
5.2494e+08
-6.20807e+10
1.39835e+08
3.75512e+08
-6.2277e+10
1.38824e+08
1.84688e+08
-6.24344e+10
1.38861e+08
-4.74853e+07
-6.25481e+10
1.4039e+08
-3.14529e+08
-6.26145e+10
1.44138e+08
-6.09228e+08
-6.26309e+10
1.50617e+08
-9.23383e+08
-6.25909e+10
1.60012e+08
-1.25452e+09
-6.24929e+10
1.72965e+08
-1.58079e+09
-6.23448e+10
1.88997e+08
-1.86431e+09
-6.21757e+10
2.07653e+08
-2.05883e+09
-6.20187e+10
2.27514e+08
-2.14703e+09
-6.19069e+10
2.46517e+08
-2.13506e+09
-6.18571e+10
2.63377e+08
-2.04781e+09
-6.18746e+10
2.77197e+08
-1.91374e+09
-6.19572e+10
2.87664e+08
-1.75606e+09
-6.2093e+10
2.94805e+08
-1.5958e+09
-6.22731e+10
2.98944e+08
-1.4422e+09
-6.24852e+10
3.00368e+08
-1.3053e+09
-6.27193e+10
2.99506e+08
-1.18565e+09
-6.29689e+10
2.96785e+08
-1.084e+09
-6.32295e+10
2.92947e+08
-9.98366e+08
-6.34992e+10
2.88738e+08
-9.26757e+08
-6.3773e+10
2.83073e+08
-8.67897e+08
-6.40485e+10
2.74666e+08
-8.19595e+08
-6.43265e+10
2.62392e+08
-7.78157e+08
-6.4602e+10
2.44799e+08
-7.47277e+08
-6.48817e+10
2.21839e+08
-7.19488e+08
-6.51703e+10
1.93299e+08
-6.94896e+08
-6.54792e+10
1.59627e+08
-6.71197e+08
-6.58281e+10
1.21676e+08
-6.43976e+08
-6.62519e+10
8.06621e+07
-6.02693e+08
-6.68093e+10
3.90404e+07
-5.39511e+08
-6.76119e+10
8.39132e+06
-4.30591e+08
-6.887e+10
7.83376e+06
-2.54448e+08
-7.09502e+10
8.60526e+06
1.39254e+07
-7.41795e+10
-1.58093e+08
1.77831e+08
-7.95606e+10
-5.89678e+08
4.55747e+08
-8.74944e+10
-1.40798e+09
1.13219e+09
-1.0512e+11
-4.41646e+09
3.88592e+09
-3.48417e+09
1.10711e+09
-5.68517e+10
6.86404e+08
-5.68276e+10
7.04316e+08
-5.68383e+10
7.22229e+08
-5.68679e+10
7.41858e+08
-5.69186e+10
7.66714e+08
-5.69867e+10
7.9126e+08
-5.70745e+10
8.16619e+08
-5.71809e+10
8.40337e+08
-5.73065e+10
8.57775e+08
-5.74472e+10
8.62595e+08
-5.76066e+10
8.5555e+08
-5.77799e+10
8.26173e+08
-5.79618e+10
7.69777e+08
-5.81465e+10
6.80105e+08
-5.83239e+10
5.5188e+08
-5.84813e+10
3.81411e+08
-5.86011e+10
1.67493e+08
-5.867e+10
-8.46789e+07
-5.86778e+10
-3.64987e+08
-5.86171e+10
-6.64447e+08
-5.84747e+10
-9.79569e+08
-5.82433e+10
-1.28866e+09
-5.7925e+10
-1.55216e+09
-5.75461e+10
-1.72302e+09
-5.71398e+10
-1.78417e+09
-5.674e+10
-1.74203e+09
-5.63678e+10
-1.62164e+09
-5.60337e+10
-1.45112e+09
-5.57419e+10
-1.25349e+09
-5.54873e+10
-1.04961e+09
-5.5267e+10
-8.48997e+08
-5.5074e+10
-6.61795e+08
-5.49025e+10
-4.88966e+08
-5.47486e+10
-3.31973e+08
-5.46081e+10
-1.89298e+08
-5.44793e+10
-5.91083e+07
-5.43581e+10
5.76852e+07
-5.42415e+10
1.60833e+08
-5.41321e+10
2.55309e+08
-5.40325e+10
3.385e+08
-5.39569e+10
4.17789e+08
-5.39191e+10
4.93817e+08
-5.3939e+10
5.70312e+08
-5.40455e+10
6.54414e+08
-5.42839e+10
7.6208e+08
-5.47254e+10
9.09418e+08
-5.54876e+10
1.13524e+09
-5.67806e+10
1.4773e+09
-5.91136e+10
1.98624e+09
-6.38853e+10
2.85715e+09
-7.39833e+10
5.05863e+09
-9.33679e+10
9.48819e+09
-1.35013e+11
2.14349e+10
2.61038e+09
-6.09262e+10
-2.44945e+07
6.71636e+08
-6.09526e+10
-3.56761e+07
7.35387e+08
-6.09859e+10
-4.45541e+07
7.65221e+08
-6.10342e+10
-4.847e+07
8.06573e+08
-6.10938e+10
-5.41279e+07
8.47042e+08
-6.11658e+10
-5.99961e+07
8.8647e+08
-6.12508e+10
-6.674e+07
9.2658e+08
-6.13459e+10
-7.37517e+07
9.60105e+08
-6.14526e+10
-8.09815e+07
9.86703e+08
-6.15721e+10
-8.83759e+07
9.9956e+08
-6.16996e+10
-9.58592e+07
9.93812e+08
-6.18339e+10
-1.03019e+08
9.61899e+08
-6.19693e+10
-1.09221e+08
8.95386e+08
-6.20964e+10
-1.13743e+08
7.85094e+08
-6.22044e+10
-1.15877e+08
6.25402e+08
-6.22801e+10
-1.15136e+08
4.09591e+08
-6.23137e+10
-1.11496e+08
1.39877e+08
-6.22949e+10
-1.06953e+08
-1.80081e+08
-6.22153e+10
-1.02771e+08
-5.37615e+08
-6.20681e+10
-9.89463e+07
-9.24382e+08
-6.18361e+10
-9.46726e+07
-1.34542e+09
-6.14932e+10
-9.0435e+07
-1.7889e+09
-6.10318e+10
-8.66171e+07
-2.19614e+09
-6.04806e+10
-8.29264e+07
-2.4845e+09
-5.98963e+10
-7.90438e+07
-2.61167e+09
-5.93275e+10
-7.4137e+07
-2.59263e+09
-5.88071e+10
-6.77788e+07
-2.46806e+09
-5.83512e+10
-6.02081e+07
-2.28166e+09
-5.79614e+10
-5.22161e+07
-2.06966e+09
-5.76316e+10
-4.4904e+07
-1.85967e+09
-5.73501e+10
-3.9085e+07
-1.66553e+09
-5.71068e+10
-3.53627e+07
-1.49546e+09
-5.689e+10
-3.39255e+07
-1.35138e+09
-5.66889e+10
-3.50652e+07
-1.23281e+09
-5.64936e+10
-3.88782e+07
-1.13668e+09
-5.6299e+10
-4.4418e+07
-1.05768e+09
-5.6099e+10
-4.98855e+07
-9.96935e+08
-5.58941e+10
-5.38261e+07
-9.47674e+08
-5.56813e+10
-5.55702e+07
-9.09629e+08
-5.54642e+10
-5.50335e+07
-8.80115e+08
-5.52395e+10
-5.13756e+07
-8.5829e+08
-5.50079e+10
-4.39678e+07
-8.40102e+08
-5.47735e+10
-3.22754e+07
-8.19663e+08
-5.45402e+10
-1.54485e+07
-7.93167e+08
-5.43215e+10
8.03289e+06
-7.44883e+08
-5.41497e+10
3.74382e+07
-6.54146e+08
-5.40998e+10
7.72403e+07
-4.69996e+08
-5.43353e+10
1.38495e+08
-1.12467e+08
-5.51805e+10
2.27594e+08
5.75068e+08
-5.71382e+10
1.0191e+08
1.8257e+09
-6.25831e+10
1.55638e+08
5.36479e+09
-7.41167e+10
1.5101e+08
1.21846e+10
-1.05001e+11
6.16219e+09
2.83671e+10
3.61889e+09
1.13264e+10
-5.68245e+10
7.09076e+08
-5.69115e+10
7.62245e+08
-5.70261e+10
7.98668e+08
-5.71664e+10
8.39867e+08
-5.73321e+10
8.84324e+08
-5.75226e+10
9.2797e+08
-5.774e+10
9.7366e+08
-5.79807e+10
1.01428e+09
-5.82454e+10
1.04927e+09
-5.85338e+10
1.07126e+09
-5.88398e+10
1.07512e+09
-5.91594e+10
1.0531e+09
-5.94833e+10
9.96456e+08
-5.97976e+10
8.95742e+08
-6.00868e+10
7.45044e+08
-6.03327e+10
5.37509e+08
-6.05219e+10
2.75385e+08
-6.06454e+10
-3.51951e+07
-6.07e+10
-3.79582e+08
-6.06807e+10
-7.49621e+08
-6.05742e+10
-1.14897e+09
-6.03586e+10
-1.56408e+09
-6.00315e+10
-1.93509e+09
-5.9628e+10
-2.17901e+09
-5.92065e+10
-2.25532e+09
-5.88119e+10
-2.18363e+09
-5.84682e+10
-2.00907e+09
-5.81806e+10
-1.77795e+09
-5.794e+10
-1.52774e+09
-5.77316e+10
-1.28611e+09
-5.75377e+10
-1.06633e+09
-5.73442e+10
-8.75534e+08
-5.71374e+10
-7.14515e+08
-5.69062e+10
-5.82634e+08
-5.6641e+10
-4.7683e+08
-5.63372e+10
-3.89606e+08
-5.59878e+10
-3.22374e+08
-5.55891e+10
-2.70871e+08
-5.51331e+10
-2.33368e+08
-5.46185e+10
-2.05546e+08
-5.40376e+10
-1.85122e+08
-5.33863e+10
-1.66408e+08
-5.26634e+10
-1.42004e+08
-5.18647e+10
-1.0708e+08
-5.09875e+10
-4.5183e+07
-5.00295e+10
5.4523e+07
-4.89917e+10
2.30015e+08
-4.78869e+10
5.27728e+08
-4.6708e+10
9.79936e+08
-4.57466e+10
1.8549e+09
-4.5059e+10
4.33773e+09
-4.54683e+10
9.9143e+09
-4.28581e+10
2.50044e+10
8.9389e+09
-5.97162e+10
3.96459e+07
6.40268e+08
-5.9719e+10
2.98767e+07
7.16212e+08
-5.97301e+10
2.22177e+07
7.619e+08
-5.97548e+10
1.69295e+07
8.22072e+08
-5.97922e+10
1.11537e+07
8.81177e+08
-5.98442e+10
5.81271e+06
9.40994e+08
-5.99122e+10
746574
1.00279e+09
-5.99988e+10
-3.52168e+06
1.06034e+09
-6.01045e+10
-6.80074e+06
1.11078e+09
-6.02332e+10
-8.97468e+06
1.15016e+09
-6.03862e+10
-9.83393e+06
1.17109e+09
-6.05607e+10
-9.1945e+06
1.16135e+09
-6.07541e+10
-6.98165e+06
1.11314e+09
-6.09594e+10
-3.27969e+06
1.01437e+09
-6.11609e+10
1.55035e+06
8.52112e+08
-6.13426e+10
6.52473e+06
6.19556e+08
-6.14836e+10
1.02036e+07
3.14193e+08
-6.15766e+10
1.11915e+07
-4.90846e+07
-6.16255e+10
9.02228e+06
-4.46291e+08
-6.16323e+10
4.57642e+06
-8.71252e+08
-6.15857e+10
-1.04881e+06
-1.33984e+09
-6.14523e+10
-8.16676e+06
-1.86183e+09
-6.12115e+10
-1.87023e+07
-2.363e+09
-6.09067e+10
-3.50936e+07
-2.69488e+09
-6.06221e+10
-5.77744e+07
-2.77905e+09
-6.04038e+10
-8.42574e+07
-2.66808e+09
-6.02578e+10
-1.11037e+08
-2.44759e+09
-6.01765e+10
-1.34543e+08
-2.17571e+09
-6.01439e+10
-1.52692e+08
-1.89842e+09
-6.01449e+10
-1.64844e+08
-1.64238e+09
-6.01645e+10
-1.7133e+08
-1.4216e+09
-6.01927e+10
-1.7289e+08
-1.23839e+09
-6.02205e+10
-1.70502e+08
-1.09323e+09
-6.02406e+10
-1.65157e+08
-9.82892e+08
-6.02495e+10
-1.57838e+08
-8.99536e+08
-6.02391e+10
-1.48953e+08
-8.42338e+08
-6.02074e+10
-1.37666e+08
-8.07302e+08
-6.01475e+10
-1.23621e+08
-7.92716e+08
-6.00583e+10
-1.07239e+08
-7.91903e+08
-5.99336e+10
-8.88302e+07
-8.06064e+08
-5.97674e+10
-6.83145e+07
-8.33399e+08
-5.95521e+10
-4.58844e+07
-8.69472e+08
-5.92785e+10
-2.21862e+07
-9.0774e+08
-5.89374e+10
2.47957e+06
-9.42257e+08
-5.85197e+10
2.80765e+07
-9.58648e+08
-5.80149e+10
5.12011e+07
-9.39404e+08
-5.74158e+10
7.166e+07
-8.41943e+08
-5.66932e+10
9.38236e+07
-6.20557e+08
-5.5635e+10
1.0233e+08
-2.78519e+08
-5.38056e+10
7.06345e+07
2.62669e+08
-4.93668e+10
-1.51335e+08
1.56668e+09
-4.45324e+10
1.38027e+09
6.53876e+09
-4.85887e+10
1.08671e+10
2.22354e+10
5.892e+09
9.92115e+09
-5.90761e+10
7.66799e+08
-5.91152e+10
8.37153e+08
-5.91656e+10
8.77087e+08
-5.92344e+10
9.31631e+08
-5.93201e+10
9.87479e+08
-5.94233e+10
1.04386e+09