/*--------------------------------*- C++ -*----------------------------------*\
| =========                 |                                                 |
| \\      /  F ield         | OpenFOAM: The Open Source CFD Toolbox           |
|  \\    /   O peration     | Version:  4.1                                   |
|   \\  /    A nd           | Web:      www.OpenFOAM.org                      |
|    \\/     M anipulation  |                                                 |
\*---------------------------------------------------------------------------*/
FoamFile
{
    version     2.0;
    format      ascii;
    class       surfaceScalarField;
    location    "71";
    object      phi;
}
// * * * * * * * * * * * * * * * * * * * * * * * * * * * * * * * * * * * * * //

dimensions      [0 3 -1 0 0 0 0];

internalField   nonuniform List<scalar> 
11516
(
-3.49329e+10
8.92645e+07
9.24833e+08
-3.56806e+10
4.74778e+07
7.31827e+08
-3.63596e+10
3.95677e+07
6.69883e+08
-3.69165e+10
1.00558e+07
5.76475e+08
-3.74408e+10
2.17686e+07
5.31337e+08
-3.79339e+10
2.24244e+07
4.98917e+08
-3.83896e+10
1.93462e+07
4.6383e+08
-3.8819e+10
1.92837e+07
4.36976e+08
-3.92199e+10
1.84105e+07
4.08616e+08
-3.95891e+10
1.75439e+07
3.76884e+08
-3.9921e+10
1.66322e+07
3.40053e+08
-4.02093e+10
1.53786e+07
2.98484e+08
-4.04407e+10
1.38984e+07
2.47189e+08
-4.06069e+10
1.16639e+07
1.90252e+08
-4.06971e+10
8.43906e+06
1.23676e+08
-4.07036e+10
3.26681e+06
5.20454e+07
-4.06243e+10
-3.81374e+06
-2.40262e+07
-4.04511e+10
-1.03298e+07
-1.05524e+08
-4.01848e+10
-1.76684e+07
-1.88427e+08
-3.98233e+10
-2.55484e+07
-2.70704e+08
-3.93735e+10
-3.55791e+07
-3.52563e+08
-3.88444e+10
-4.65268e+07
-4.25581e+08
-3.82455e+10
-5.94245e+07
-4.92884e+08
-3.75907e+10
-7.32449e+07
-5.44405e+08
-3.68896e+10
-8.77136e+07
-5.83937e+08
-3.61597e+10
-1.02403e+08
-6.03602e+08
-3.54131e+10
-1.17232e+08
-6.09231e+08
-3.46685e+10
-1.32039e+08
-5.95165e+08
-3.39386e+10
-1.46751e+08
-5.67808e+08
-3.32379e+10
-1.61221e+08
-5.25742e+08
-3.25797e+10
-1.75279e+08
-4.70539e+08
-3.19731e+10
-1.8884e+08
-4.06456e+08
-3.14309e+10
-2.01757e+08
-3.30155e+08
-3.09626e+10
-2.13878e+08
-2.45087e+08
-3.05787e+10
-2.24954e+08
-1.50625e+08
-3.02908e+10
-2.34746e+08
-4.57307e+07
-3.01071e+10
-2.43173e+08
6.70378e+07
-3.00393e+10
-2.50598e+08
1.92372e+08
-3.00915e+10
-2.59759e+08
3.27124e+08
-3.02605e+10
-2.74856e+08
4.69367e+08
-3.05451e+10
-2.9772e+08
6.24242e+08
-3.09528e+10
-3.28941e+08
7.99527e+08
-3.15001e+10
-3.70003e+08
1.00381e+09
-3.22212e+10
-4.21839e+08
1.24934e+09
-3.31812e+10
-4.81949e+08
1.55628e+09
-3.44922e+10
-5.45507e+08
1.95193e+09
-3.62876e+10
-6.16068e+08
2.44296e+09
-3.8637e+10
-7.48045e+08
2.97472e+09
-4.14525e+10
-1.08723e+09
3.52668e+09
-4.44693e+10
-1.77846e+09
4.1215e+09
-4.86457e+10
-2.7124e+09
5.67146e+09
-5.59466e+10
-3.60471e+09
9.73047e+09
-6.72415e+10
-1.04361e+10
2.103e+10
-1.88701e+09
1.02843e+10
-4.99652e+10
6.74222e+08
-5.04383e+10
5.37394e+08
-5.08445e+10
4.62272e+08
-5.12256e+10
4.07394e+08
-5.15456e+10
3.57883e+08
-5.18368e+10
3.29649e+08
-5.2104e+10
3.02257e+08
-5.23497e+10
2.80617e+08
-5.25741e+10
2.58133e+08
-5.27749e+10
2.33473e+08
-5.29481e+10
2.04893e+08
-5.30902e+10
1.73689e+08
-5.31918e+10
1.33972e+08
-5.32486e+10
9.03558e+07
-5.32537e+10
3.9255e+07
-5.32056e+10
-1.66357e+07
-5.31048e+10
-7.33554e+07
-5.29471e+10
-1.34453e+08
-5.27341e+10
-1.94078e+08
-5.24677e+10
-2.54759e+08
-5.21521e+10
-3.14159e+08
-5.17995e+10
-3.65664e+08
-5.14169e+10
-4.13012e+08
-5.10193e+10
-4.4591e+08
-5.06147e+10
-4.70257e+08
-5.02193e+10
-4.77493e+08
-4.98415e+10
-4.75586e+08
-4.94965e+10
-4.57928e+08
-4.91915e+10
-4.32532e+08
-4.89358e+10
-3.97352e+08
-4.87368e+10
-3.54169e+08
-4.85966e+10
-3.08179e+08
-4.85213e+10
-2.55475e+08
-4.85123e+10
-2.00432e+08
-4.85716e+10
-1.42164e+08
-4.87023e+10
-7.95004e+07
-4.89031e+10
-1.60439e+07
-4.91784e+10
5.39949e+07
-4.9532e+10
1.27734e+08
-4.99732e+10
2.07341e+08
-5.0515e+10
2.94755e+08
-5.11746e+10
3.93187e+08
-5.19779e+10
5.08856e+08
-5.29639e+10
6.51449e+08
-5.41903e+10
8.38066e+08
-5.57378e+10
1.0905e+09
-5.77168e+10
1.41985e+09
-6.02731e+10
1.79916e+09
-6.37405e+10
2.24377e+09
-6.89001e+10
3.03874e+09
-7.76199e+10
5.56281e+09
-9.20438e+10
1.03236e+10
-1.23353e+11
2.05434e+10
1.39294e+10
-6.76387e+10
267444
1.19311e+09
-6.78712e+10
-9.15222e+06
9.9454e+08
-6.80604e+10
-2.30931e+07
9.03218e+08
-6.82393e+10
-2.50148e+07
8.01571e+08
-6.83792e+10
-3.08991e+07
7.23561e+08
-6.8501e+10
-3.07471e+07
6.73152e+08
-6.86086e+10
-3.08337e+07
6.24124e+08
-6.86989e+10
-3.00711e+07
5.79392e+08
-6.87697e+10
-2.95048e+07
5.31113e+08
-6.88228e+10
-2.83558e+07
4.80547e+08
-6.88556e+10
-2.71787e+07
4.22484e+08
-6.88643e+10
-2.59402e+07
3.5599e+08
-6.88451e+10
-2.45107e+07
2.78998e+08
-6.87943e+10
-2.35336e+07
1.91953e+08
-6.87061e+10
-2.23931e+07
9.40652e+07
-6.85827e+10
-2.27882e+07
-9.92921e+06
-6.84219e+10
-2.2804e+07
-1.17439e+08
-6.82382e+10
-2.16335e+07
-2.21463e+08
-6.80339e+10
-1.84868e+07
-3.21737e+08
-6.78121e+10
-1.61931e+07
-4.22393e+08
-6.75747e+10
-1.36331e+07
-5.19919e+08
-6.73276e+10
-1.10622e+07
-6.07568e+08
-6.70788e+10
-8.17298e+06
-6.83157e+08
-6.68291e+10
-4.52105e+06
-7.42508e+08
-6.65881e+10
229305
-7.79498e+08
-6.63536e+10
6.31378e+06
-7.9843e+08
-6.61335e+10
1.3727e+07
-7.95647e+08
-6.59254e+10
2.24572e+07
-7.76122e+08
-6.57332e+10
3.24387e+07
-7.40072e+08
-6.55526e+10
4.3669e+07
-6.94448e+08
-6.53821e+10
5.60898e+07
-6.37986e+08
-6.52185e+10
6.96995e+07
-5.76651e+08
-6.50549e+10
8.44628e+07
-5.11194e+08
-6.48869e+10
1.00481e+08
-4.42084e+08
-6.47056e+10
1.17805e+08
-3.73538e+08
-6.45026e+10
1.36588e+08
-3.03941e+08
-6.42689e+10
1.57063e+08
-2.363e+08
-6.39916e+10
1.79374e+08
-1.69091e+08
-6.36626e+10
2.03602e+08
-1.00051e+08
-6.32825e+10
2.30009e+08
-2.18438e+07
-6.28421e+10
2.57943e+08
6.22401e+07
-6.23249e+10
2.87599e+08
1.52871e+08
-6.17096e+10
3.19634e+08
2.5211e+08
-6.09758e+10
3.54179e+08
3.71684e+08
-6.01071e+10
3.93042e+08
5.30799e+08
-5.90815e+10
4.38001e+08
7.43146e+08
-5.78388e+10
4.77288e+08
9.8001e+08
-5.63346e+10
4.84621e+08
1.22189e+09
-5.46141e+10
4.07309e+08
1.57126e+09
-5.33055e+10
3.05957e+08
2.58787e+09
-5.20716e+10
2.06187e+08
4.25959e+09
-4.63432e+10
-6.37014e+08
4.62523e+09
-1.57367e+10
-6.55551e+09
-3.07705e+09
-3.93641e+09
-5.33261e+09
-7.79851e+10
7.92675e+08
-7.80639e+10
6.20364e+08
-7.81512e+10
5.39708e+08
-7.82332e+10
4.77706e+08
-7.83105e+10
4.17919e+08
-7.83782e+10
3.80344e+08
-7.84415e+10
3.48521e+08
-7.84967e+10
3.19738e+08
-7.85413e+10
2.87331e+08
-7.85767e+10
2.54571e+08
-7.86006e+10
2.15872e+08
-7.86086e+10
1.70772e+08
-7.85995e+10
1.16796e+08
-7.85689e+10
5.56044e+07
-7.85155e+10
-1.45127e+07
-7.84415e+10
-8.84735e+07
-7.83438e+10
-1.66661e+08
-7.82234e+10
-2.46677e+08
-7.80775e+10
-3.26739e+08
-7.79076e+10
-4.06832e+08
-7.77174e+10
-4.83611e+08
-7.75092e+10
-5.51831e+08
-7.729e+10
-6.09199e+08
-7.70582e+10
-6.52557e+08
-7.68236e+10
-6.75353e+08
-7.65819e+10
-6.83017e+08
-7.63413e+10
-6.71433e+08
-7.60982e+10
-6.4594e+08
-7.58573e+10
-6.06322e+08
-7.56143e+10
-5.59812e+08
-7.53689e+10
-5.04137e+08
-7.51197e+10
-4.45704e+08
-7.48609e+10
-3.84955e+08
-7.45913e+10
-3.2168e+08
-7.43048e+10
-2.59677e+08
-7.39961e+10
-1.96833e+08
-7.36596e+10
-1.3638e+08
-7.32852e+10
-7.64026e+07
-7.28658e+10
-1.62564e+07
-7.23962e+10
4.8788e+07
-7.18661e+10
1.15593e+08
-7.12635e+10
1.85607e+08
-7.05671e+10
2.56232e+08
-6.97542e+10
3.34647e+08
-6.87934e+10
4.28912e+08
-6.76354e+10
5.40637e+08
-6.62176e+10
6.50219e+08
-6.4532e+10
7.49115e+08
-6.26729e+10
9.01049e+08
-6.05484e+10
1.28451e+09
-5.60807e+10
1.3211e+09
-4.67289e+10
3.17113e+08
-2.76844e+10
-4.83072e+09
-4.73931e+09
-5.88828e+10
9.5856e+07
8.19459e+08
-5.85995e+10
9.86496e+07
6.34609e+08
-5.83645e+10
9.47391e+07
5.95967e+08
-5.81862e+10
9.80292e+07
5.482e+08
-5.80197e+10
8.86383e+07
4.91912e+08
-5.7861e+10
8.65582e+07
4.51689e+08
-5.77179e+10
8.51699e+07
4.19994e+08
-5.75825e+10
8.38894e+07
3.84577e+08
-5.74576e+10
8.18784e+07
3.49038e+08
-5.73396e+10
8.02815e+07
3.07177e+08
-5.72319e+10
7.84068e+07
2.61265e+08
-5.71345e+10
7.64635e+07
2.07798e+08
-5.70461e+10
7.43227e+07
1.43973e+08
-5.69635e+10
7.22447e+07
6.87932e+07
-5.68861e+10
7.08014e+07
-1.62735e+07
-5.68023e+10
6.8442e+07
-1.20729e+08
-5.66957e+10
6.46287e+07
-2.40919e+08
-5.65499e+10
5.6223e+07
-3.73884e+08
-5.63442e+10
4.56037e+07
-5.17188e+08
-5.60801e+10
3.39455e+07
-6.62834e+08
-5.57588e+10
2.28124e+07
-8.01778e+08
-5.53853e+10
1.06461e+07
-9.32606e+08
-5.49686e+10
-866232
-1.04155e+09
-5.45195e+10
-1.14842e+07
-1.12471e+09
-5.4046e+10
-2.02773e+07
-1.17634e+09
-5.35631e+10
-2.69832e+07
-1.19533e+09
-5.30822e+10
-3.14823e+07
-1.18208e+09
-5.26146e+10
-3.38115e+07
-1.14221e+09
-5.21689e+10
-3.41374e+07
-1.0785e+09
-5.17559e+10
-3.26041e+07
-9.95509e+08
-5.13789e+10
-2.93335e+07
-8.99386e+08
-5.1048e+10
-2.44514e+07
-7.88993e+08
-5.07673e+10
-1.80714e+07
-6.71204e+08
-5.05424e+10
-1.04004e+07
-5.44491e+08
-5.0385e+10
-1.69021e+06
-4.06852e+08
-5.03003e+10
7.83173e+06
-2.62347e+08
-5.02985e+10
1.77468e+07
-1.08207e+08
-5.03882e+10
2.7533e+07
5.72946e+07
-5.05711e+10
3.59554e+07
2.31451e+08
-5.08321e+10
4.18874e+07
4.07759e+08
-5.11619e+10
4.44386e+07
5.90719e+08
-5.15501e+10
4.39185e+07
7.80629e+08
-5.19908e+10
3.94568e+07
9.8448e+08
-5.24653e+10
3.16663e+07
1.19999e+09
-5.29377e+10
1.97873e+07
1.42491e+09
-5.33613e+10
2.95363e+06
1.65208e+09
-5.37217e+10
-2.99012e+07
1.88323e+09
-5.39912e+10
-1.1426e+08
2.10168e+09
-5.39187e+10
-3.2396e+08
2.27737e+09
-5.26924e+10
-5.7473e+08
2.3761e+09
-5.01038e+10
-7.37622e+08
2.90001e+09
-4.76648e+10
-1.66918e+09
4.35344e+09
-5.29455e+10
-1.13176e+10
1.42974e+10
-6.56809e+09
8.20883e+09
-6.56342e+10
7.38049e+08
-6.54852e+10
5.83749e+08
-6.53859e+10
5.49426e+08
-6.53051e+10
5.09522e+08
-6.52549e+10
4.71081e+08
-6.52144e+10
4.41381e+08
-6.51857e+10
4.20093e+08
-6.51606e+10
3.93825e+08
-6.5144e+10
3.68097e+08
-6.51295e+10
3.35816e+08
-6.51197e+10
3.00041e+08
-6.5113e+10
2.56604e+08
-6.51066e+10
2.02291e+08
-6.5095e+10
1.36452e+08
-6.50756e+10
5.97752e+07
-6.5035e+10
-3.4269e+07
-6.49651e+10
-1.43726e+08
-6.48625e+10
-2.62019e+08
-6.47217e+10
-3.88954e+08
-6.45432e+10
-5.15587e+08
-6.43317e+10
-6.3654e+08
-6.40889e+10
-7.48709e+08
-6.38249e+10
-8.40283e+08
-6.35478e+10
-9.07643e+08
-6.32629e+10
-9.4585e+08
-6.29818e+10
-9.54224e+08
-6.27116e+10
-9.33372e+08
-6.24592e+10
-8.89077e+08
-6.22291e+10
-8.23896e+08
-6.20284e+10
-7.42254e+08
-6.18559e+10
-6.50404e+08
-6.17184e+10
-5.4688e+08
-6.16156e+10
-4.39191e+08
-6.15488e+10
-3.25975e+08
-6.1525e+10
-2.05208e+08
-6.15444e+10
-8.1721e+07
-6.16133e+10
4.7282e+07
-6.17373e+10
1.83081e+08
-6.19196e+10
3.23585e+08
-6.21551e+10
4.64543e+08
-6.24481e+10
6.12295e+08
-6.27994e+10
7.65152e+08
-6.32205e+10
9.30653e+08
-6.37157e+10
1.10819e+09
-6.42877e+10
1.30058e+09
-6.49425e+10
1.50569e+09
-6.57261e+10
1.72409e+09
-6.67189e+10
1.9445e+09
-6.80403e+10
2.21128e+09
-6.97055e+10
2.71936e+09
-7.32714e+10
4.56336e+09
-8.21028e+10
8.28094e+09
-1.13601e+11
1.61266e+10
7.78996e+09
-6.42416e+10
4.12259e+07
8.46831e+08
-6.43958e+10
3.36114e+07
7.73972e+08
-6.4528e+10
2.87501e+07
7.18896e+08
-6.46742e+10
2.13092e+07
6.93123e+08
-6.48358e+10
1.1655e+07
6.62123e+08
-6.5003e+10
5.07519e+06
6.34107e+08
-6.51711e+10
1.00092e+06
6.07535e+08
-6.53436e+10
-3.59641e+06
5.81313e+08
-6.55168e+10
-8.8873e+06
5.52071e+08
-6.5688e+10
-1.43395e+07
5.13669e+08
-6.58507e+10
-2.04685e+07
4.65249e+08
-6.59978e+10
-2.7085e+07
4.02837e+08
-6.61232e+10
-3.43891e+07
3.24868e+08
-6.62195e+10
-4.18133e+07
2.31736e+08
-6.62766e+10
-4.98579e+07
1.1703e+08
-6.62949e+10
-5.65131e+07
-1.34175e+07
-6.62843e+10
-6.38869e+07
-1.54656e+08
-6.62427e+10
-7.1922e+07
-3.05879e+08
-6.61765e+10
-8.10946e+07
-4.64842e+08
-6.608e+10
-8.96103e+07
-6.27453e+08
-6.59574e+10
-9.86938e+07
-7.83924e+08
-6.5813e+10
-1.07283e+08
-9.27901e+08
-6.5653e+10
-1.15337e+08
-1.04568e+09
-6.54849e+10
-1.22137e+08
-1.12961e+09
-6.53138e+10
-1.27291e+08
-1.17617e+09
-6.51475e+10
-1.30733e+08
-1.18239e+09
-6.49897e+10
-1.3251e+08
-1.15387e+09
-6.48425e+10
-1.32716e+08
-1.09783e+09
-6.47056e+10
-1.31528e+08
-1.01896e+09
-6.45736e+10
-1.2914e+08
-9.26592e+08
-6.44445e+10
-1.25672e+08
-8.23279e+08
-6.43095e+10
-1.21206e+08
-7.14428e+08
-6.4165e+10
-1.15724e+08
-6.01609e+08
-6.40036e+10
-1.0936e+08
-4.87324e+08
-6.3815e+10
-1.0217e+08
-3.71945e+08
-6.3595e+10
-9.45234e+07
-2.53156e+08
-6.33315e+10
-8.66602e+07
-1.35288e+08
-6.30123e+10
-7.90838e+07
-1.58513e+07
-6.26264e+10
-7.23767e+07
1.05624e+08
-6.21643e+10
-6.74781e+07
2.25269e+08
-6.16115e+10
-6.51772e+07
3.44964e+08
-6.09529e+10
-6.6106e+07
4.64491e+08
-6.01725e+10
-7.0879e+07
5.90815e+08
-5.92639e+10
-8.00038e+07
7.2978e+08
-5.82207e+10
-9.22092e+07
8.74593e+08
-5.70505e+10
-1.09528e+08
1.02684e+09
-5.57458e+10
-1.48311e+08
1.18144e+09
-5.42877e+10
-2.25327e+08
1.33385e+09
-5.26502e+10
-3.31139e+08
1.46306e+09
-5.09387e+10
-2.46433e+08
1.49849e+09
-4.84001e+10
2.35724e+07
1.02382e+09
-4.36598e+10
7.23542e+07
5.13159e+08
-2.12467e+10
-1.09092e+10
3.65981e+09
-7.16167e+09
-1.58015e+09
-6.5942e+10
7.65998e+08
-6.59928e+10
6.8107e+08
-6.6038e+10
6.36573e+08
-6.60877e+10
5.94028e+08
-6.61484e+10
5.57085e+08
-6.62132e+10
5.24977e+08
-6.62724e+10
4.94065e+08
-6.63305e+10
4.62339e+08
-6.63848e+10
4.27651e+08
-6.6433e+10
3.83764e+08
-6.64703e+10
3.30886e+08
-6.64913e+10
2.6447e+08
-6.64918e+10
1.8313e+08
-6.64677e+10
8.66117e+07
-6.64088e+10
-3.02571e+07
-6.63173e+10
-1.61675e+08
-6.62013e+10
-3.00993e+08
-6.60635e+10
-4.48122e+08
-6.59061e+10
-6.02003e+08
-6.57261e+10
-7.58881e+08
-6.5526e+10
-9.08728e+08
-6.53112e+10
-1.04478e+09
-6.50868e+10
-1.15435e+09
-6.48604e+10
-1.22959e+09
-6.46368e+10
-1.26764e+09
-6.4424e+10
-1.26541e+09
-6.42256e+10
-1.22838e+09
-6.40444e+10
-1.1633e+09
-6.38816e+10
-1.07439e+09
-6.3734e+10
-9.70315e+08
-6.36026e+10
-8.53302e+08
-6.34821e+10
-7.28291e+08
-6.33731e+10
-5.96596e+08
-6.32731e+10
-4.60282e+08
-6.31771e+10
-3.19729e+08
-6.30874e+10
-1.72758e+08
-6.29991e+10
-2.3566e+07
-6.29083e+10
1.29973e+08
-6.28132e+10
2.88148e+08
-6.2713e+10
4.47381e+08
-6.26023e+10
6.09097e+08
-6.24751e+10
7.71004e+08
-6.23183e+10
9.3251e+08
-6.21254e+10
1.09812e+09
-6.1894e+10
1.27216e+09
-6.1635e+10
1.45818e+09
-6.13758e+10
1.65338e+09
-6.11371e+10
1.83217e+09
-6.07927e+10
1.92861e+09
-5.97284e+10
1.88943e+09
-5.60386e+10
1.62603e+09
-4.86448e+10
1.84218e+09
-4.62713e+10
3.41758e+09
2.36992e+08
-6.08964e+10
6.18478e+07
7.22776e+08
-6.08303e+10
5.16749e+07
6.72168e+08
-6.07913e+10
4.62567e+07
6.50021e+08
-6.07526e+10
4.39607e+07
6.27023e+08
-6.07276e+10
4.15245e+07
6.12282e+08
-6.07139e+10
4.0704e+07
5.9646e+08
-6.07077e+10
4.0447e+07
5.77585e+08
-6.0708e+10
4.01014e+07
5.58249e+08
-6.07113e+10
3.98498e+07
5.32241e+08
-6.07175e+10
3.96097e+07
4.96726e+08
-6.07257e+10
3.90697e+07
4.50091e+08
-6.07343e+10
3.83929e+07
3.87621e+08
-6.0743e+10
3.80538e+07
3.09384e+08
-6.07437e+10
3.82508e+07
2.08505e+08
-6.07338e+10
3.95793e+07
8.34275e+07
-6.07072e+10
4.36246e+07
-6.49015e+07
-6.06545e+10
5.05579e+07
-2.39457e+08
-6.05657e+10
5.93337e+07
-4.34073e+08
-6.04372e+10
6.69523e+07
-6.42426e+08
-6.02647e+10
7.47923e+07
-8.55314e+08
-6.00506e+10
8.12839e+07
-1.06328e+09
-5.97969e+10
8.7318e+07
-1.25304e+09
-5.95144e+10
9.13714e+07
-1.40674e+09
-5.92137e+10
9.40662e+07
-1.51021e+09
-5.89117e+10
9.47948e+07
-1.55636e+09
-5.86213e+10
9.3729e+07
-1.54611e+09
-5.83554e+10
9.07913e+07
-1.48696e+09
-5.81215e+10
8.63571e+07
-1.39143e+09
-5.79229e+10
8.07969e+07
-1.26849e+09
-5.77594e+10
7.43794e+07
-1.1305e+09
-5.76285e+10
6.73411e+07
-9.82709e+08
-5.75265e+10
5.98264e+07
-8.31565e+08
-5.74488e+10
5.19089e+07
-6.79846e+08
-5.73923e+10
4.34205e+07
-5.28159e+08
-5.73525e+10
3.41066e+07
-3.78201e+08
-5.73235e+10
2.35824e+07
-2.28797e+08
-5.73044e+10
1.15668e+07
-7.8234e+07
-5.72883e+10
-2.33298e+06
7.0432e+07
-5.72688e+10
-1.85545e+07
2.19895e+08
-5.72384e+10
-3.78084e+07
3.66237e+08
-5.71841e+10
-6.08892e+07
5.08021e+08
-5.70868e+10
-9.02081e+07
6.41018e+08
-5.69118e+10
-1.28201e+08
7.58338e+08
-5.66205e+10
-1.78339e+08
8.635e+08
-5.61753e+10
-2.37575e+08
9.42317e+08
-5.55332e+10
-3.10402e+08
9.86187e+08
-5.46085e+10
-4.2171e+08
9.64835e+08
-5.32384e+10
-6.07396e+08
8.34581e+08
-5.11771e+10
-8.72886e+08
5.37328e+08
-4.84248e+10
-1.07901e+09
7.42109e+07
-4.47901e+10
-1.37429e+09
-8.22706e+08
-4.26537e+10
-1.12389e+09
-3.32652e+07
-2.28008e+10
-8.35991e+09
-7.62384e+09
-6.25189e+09
-1.04188e+10
-5.77173e+10
6.85027e+08
-5.7605e+10
6.30381e+08
-5.75269e+10
6.14862e+08
-5.74659e+10
5.87206e+08
-5.74263e+10
5.69227e+08
-5.74038e+10
5.5343e+08
-5.73928e+10
5.33748e+08
-5.73939e+10
5.1356e+08
-5.74042e+10
4.878e+08
-5.74247e+10
4.53535e+08
-5.74551e+10
4.09189e+08
-5.7494e+10
3.49723e+08
-5.75411e+10
2.75634e+08
-5.75886e+10
1.79946e+08
-5.76319e+10
6.12858e+07
-5.7659e+10
-8.18776e+07
-5.76458e+10
-2.54124e+08
-5.75749e+10
-4.51161e+08
-5.74393e+10
-6.62464e+08
-5.72358e+10
-8.81385e+08
-5.69625e+10
-1.0958e+09
-5.66234e+10
-1.29442e+09
-5.62286e+10
-1.4572e+09
-5.57933e+10
-1.57036e+09
-5.53388e+10
-1.62544e+09
-5.48843e+10
-1.62295e+09
-5.44478e+10
-1.5697e+09
-5.40415e+10
-1.47785e+09
-5.36724e+10
-1.35619e+09
-5.3343e+10
-1.21716e+09
-5.30522e+10
-1.06621e+09
-5.27974e+10
-9.09857e+08
-5.25745e+10
-7.5081e+08
-5.23809e+10
-5.89572e+08
-5.2213e+10
-4.28158e+08
-5.20666e+10
-2.65203e+08
-5.19434e+10
-9.89267e+07
-5.18405e+10
6.80419e+07
-5.17577e+10
2.39009e+08
-5.16957e+10
4.11118e+08
-5.16538e+10
5.83934e+08
-5.1635e+10
7.57035e+08
-5.16393e+10
9.234e+08
-5.16642e+10
1.07963e+09
-5.17003e+10
1.22141e+09
-5.17297e+10
1.33199e+09
-5.17486e+10
1.39319e+09
-5.17415e+10
1.3401e+09
-5.15671e+10
9.86916e+08
-5.06609e+10
6.24946e+07
-4.87126e+10
-1.5153e+09
-4.50681e+10
-2.76193e+09
-3.6624e+10
-1.34459e+10
-8.07122e+09
-5.91815e+10
1.23018e+08
5.72687e+08
-5.91734e+10
1.13284e+08
5.59787e+08
-5.9179e+10
1.13591e+08
5.50987e+08
-5.9198e+10
1.1522e+08
5.39603e+08
-5.92276e+10
1.17245e+08
5.33332e+08
-5.92685e+10
1.20457e+08
5.25193e+08
-5.93212e+10
1.24542e+08
5.13624e+08
-5.93834e+10
1.29603e+08
4.98263e+08
-5.94531e+10
1.35871e+08
4.72999e+08
-5.95296e+10
1.43195e+08
4.35874e+08
-5.96078e+10
1.51614e+08
3.80869e+08
-5.96858e+10
1.60955e+08
3.06168e+08
-5.97566e+10
1.71477e+08
2.07637e+08
-5.98136e+10
1.82767e+08
7.89804e+07
-5.98492e+10
1.95016e+08
-7.91955e+07
-5.98577e+10
2.06788e+08
-2.69098e+08
-5.9835e+10
2.17923e+08
-4.85919e+08
-5.97792e+10
2.26511e+08
-7.2768e+08
-5.96846e+10
2.34168e+08
-9.84591e+08
-5.95519e+10
2.40056e+08
-1.24863e+09
-5.93775e+10
2.45233e+08
-1.50757e+09
-5.91666e+10
2.48604e+08
-1.74461e+09
-5.89286e+10
2.50644e+08
-1.93222e+09
-5.86815e+10
2.51127e+08
-2.04809e+09
-5.84468e+10
2.50067e+08
-2.08187e+09
-5.82422e+10
2.47116e+08
-2.04024e+09
-5.80805e+10
2.42116e+08
-1.93636e+09
-5.79682e+10
2.35195e+08
-1.78869e+09
-5.79031e+10
2.26584e+08
-1.61402e+09
-5.78841e+10
2.16456e+08
-1.42357e+09
-5.7905e+10
2.04954e+08
-1.22782e+09
-5.79602e+10
1.92025e+08
-1.03211e+09
-5.80464e+10
1.77541e+08
-8.37634e+08
-5.8158e+10
1.61349e+08
-6.468e+08
-5.8293e+10
1.42941e+08
-4.5764e+08
-5.8448e+10
1.21854e+08
-2.70159e+08
-5.86211e+10
9.78719e+07
-8.07768e+07
-5.88124e+10
7.1206e+07
1.09583e+08
-5.90193e+10
4.20556e+07
3.00805e+08
-5.92433e+10
1.06743e+07
4.93824e+08
-5.94831e+10
-2.28782e+07
6.84309e+08
-5.97399e+10
-5.82887e+07
8.70493e+08
-6.00167e+10
-9.52186e+07
1.04581e+09
-6.03221e+10
-1.33525e+08
1.21643e+09
-6.06904e+10
-1.77403e+08
1.39113e+09
-6.11569e+10
-2.31473e+08
1.55449e+09
-6.1785e+10
-3.01751e+08
1.69183e+09
-6.26056e+10
-4.09448e+08
1.73889e+09
-6.34521e+10
-6.04693e+08
1.48547e+09
-6.34962e+10
-9.64778e+08
4.8883e+08
-6.18597e+10
-1.49473e+09
-1.81582e+09
-5.34572e+10
-2.96608e+09
-6.42817e+09
-3.48339e+10
-8.19708e+09
-1.8581e+10
-4.56478e+09
-5.48927e+09
-6.13416e+10
8.51508e+08
-6.1454e+10
8.62414e+08
-6.1576e+10
8.5675e+08
-6.172e+10
8.52501e+08
-6.18825e+10
8.55007e+08
-6.20624e+10
8.59483e+08
-6.226e+10
8.61442e+08
-6.24727e+10
8.61043e+08
-6.26965e+10
8.52258e+08
-6.29292e+10
8.33463e+08
-6.31637e+10
7.9803e+08
-6.33959e+10
7.43872e+08
-6.36156e+10
6.65973e+08
-6.3812e+10
5.57173e+08
-6.39748e+10
4.16384e+08
-6.40942e+10
2.41019e+08
-6.41708e+10
3.55002e+07
-6.42066e+10
-1.95784e+08
-6.42018e+10
-4.43064e+08
-6.41555e+10
-7.00483e+08
-6.40643e+10
-9.58541e+08
-6.39293e+10
-1.20126e+09
-6.37582e+10
-1.40098e+09
-6.35656e+10
-1.53602e+09
-6.33715e+10
-1.5941e+09
-6.31925e+10
-1.58066e+09
-6.30417e+10
-1.50624e+09
-6.2927e+10
-1.38796e+09
-6.28478e+10
-1.24188e+09
-6.28049e+10
-1.0791e+09
-6.27928e+10
-9.10839e+08
-6.28068e+10
-7.43122e+08
-6.28432e+10
-5.77651e+08
-6.28962e+10
-4.17532e+08
-6.29635e+10
-2.61934e+08
-6.30405e+10
-1.12199e+08
-6.31246e+10
3.52971e+07
-6.32151e+10
1.79988e+08
-6.3308e+10
3.22737e+08
-6.34043e+10
4.65879e+08
-6.35018e+10
6.0654e+08
-6.36059e+10
7.51533e+08
-6.37316e+10
9.03298e+08
-6.38976e+10
1.05991e+09
-6.41474e+10
1.2326e+09
-6.45415e+10
1.4087e+09
-6.51603e+10
1.57346e+09
-6.61171e+10
1.66821e+09
-6.75329e+10
1.49454e+09
-6.93823e+10
5.14055e+08
-7.13054e+10
-1.6279e+09
-7.2205e+10
-5.34356e+09
-7.8231e+10
-1.60483e+10
3.39865e+09
-5.54657e+10
3.82743e+08
1.71528e+08
-5.54699e+10
3.81236e+08
1.93542e+08
-5.54809e+10
3.78304e+08
1.94163e+08
-5.55143e+10
3.81857e+08
2.01386e+08
-5.55629e+10
3.83156e+08
2.08791e+08
-5.56263e+10
3.8445e+08
2.13984e+08
-5.57056e+10
3.85018e+08
2.17409e+08
-5.57998e+10
3.85862e+08
2.15892e+08
-5.59096e+10
3.8674e+08
2.04763e+08
-5.60315e+10
3.87186e+08
1.78202e+08
-5.61688e+10
3.86528e+08
1.3721e+08
-5.63157e+10
3.84675e+08
7.08771e+07
-5.6466e+10
3.81558e+08
-2.5027e+07
-5.66115e+10
3.76698e+08
-1.56499e+08
-5.67364e+10
3.69426e+08
-3.29838e+08
-5.68242e+10
3.59465e+08
-5.48407e+08
-5.68565e+10
3.47396e+08
-8.09817e+08
-5.68239e+10
3.34099e+08
-1.10729e+09
-5.67153e+10
3.21911e+08
-1.4304e+09
-5.65251e+10
3.09716e+08
-1.76952e+09
-5.62423e+10
2.98895e+08
-2.11379e+09
-5.58667e+10
2.88937e+08
-2.44078e+09
-5.54041e+10
2.81994e+08
-2.71018e+09
-5.48878e+10
2.78272e+08
-2.87842e+09
-5.43553e+10
2.79047e+08
-2.92843e+09
-5.38468e+10
2.83335e+08
-2.87017e+09
-5.33863e+10
2.90792e+08
-2.73055e+09
-5.29855e+10
3.00368e+08
-2.53898e+09
-5.26473e+10
3.11141e+08
-2.319e+09
-5.23639e+10
3.22246e+08
-2.09087e+09
-5.21286e+10
3.33025e+08
-1.8632e+09
-5.19307e+10
3.42941e+08
-1.64481e+09
-5.17613e+10
3.51847e+08
-1.43563e+09
-5.16136e+10
3.60178e+08
-1.23615e+09
-5.14817e+10
3.68421e+08
-1.04471e+09
-5.13622e+10
3.76648e+08
-8.5882e+08
-5.1251e+10
3.85078e+08
-6.75873e+08
-5.11474e+10
3.94272e+08
-4.93645e+08
-5.1054e+10
4.04733e+08
-3.09235e+08
-5.09673e+10
4.16884e+08
-1.27385e+08
-5.08933e+10
4.30848e+08
5.7168e+07
-5.08363e+10
4.47098e+08
2.40564e+08
-5.08066e+10
4.67157e+08
4.19875e+08
-5.08148e+10
4.92693e+08
5.96979e+08
-5.08768e+10
5.2233e+08
7.81043e+08
-5.10422e+10
5.56488e+08
9.7457e+08
-5.14278e+10
6.04908e+08
1.20424e+09
-5.22485e+10
6.86025e+08
1.46545e+09
-5.39039e+10
8.06067e+08
1.75117e+09
-5.71637e+10
7.67096e+08
2.03408e+09
-6.2979e+10
2.12654e+08
2.48253e+09
-7.20532e+10
-1.0332e+09
2.36013e+09
-8.09083e+10
-5.07024e+09
-5.5887e+09
2.23736e+10
-5.54516e+09
-5.82616e+10
1.21674e+09
-5.82658e+10
1.25532e+09
-5.82957e+10
1.27231e+09
-5.83446e+10
1.29049e+09
-5.8413e+10
1.31358e+09
-5.84973e+10
1.33511e+09
-5.85995e+10
1.35531e+09
-5.87177e+10
1.37162e+09
-5.88515e+10
1.37887e+09
-5.89959e+10
1.37029e+09
-5.91539e+10
1.34622e+09
-5.93196e+10
1.29557e+09
-5.94867e+10
1.21339e+09
-5.96494e+10
1.09339e+09
-5.97987e+10
9.30508e+08
-5.9926e+10
7.22316e+08
-6.00202e+10
4.69838e+08
-6.00712e+10
1.80456e+08
-6.0067e+10
-1.36731e+08
-6.00021e+10
-4.68926e+08
-5.98711e+10
-8.07469e+08
-5.96736e+10
-1.12924e+09
-5.94157e+10
-1.39798e+09
-5.91224e+10
-1.57215e+09
-5.88211e+10
-1.63852e+09
-5.8537e+10
-1.60568e+09
-5.82818e+10
-1.49872e+09
-5.80577e+10
-1.34453e+09
-5.78613e+10
-1.16446e+09
-5.76822e+10
-9.77722e+08
-5.7513e+10
-7.92529e+08
-5.73439e+10
-6.18242e+08
-5.71672e+10
-4.54935e+08
-5.69775e+10
-3.02889e+08
-5.6769e+10
-1.61303e+08
-5.65381e+10
-2.95588e+07
-5.62803e+10
9.55343e+07
-5.59941e+10
2.16975e+08
-5.568e+10
3.38789e+08
-5.53337e+10
4.58796e+08
-5.49605e+10
5.84448e+08
-5.45592e+10
7.16195e+08
-5.41268e+10
8.55467e+08
-5.36642e+10
1.00402e+09
-5.31771e+10
1.17115e+09
-5.26992e+10
1.36384e+09
-5.23093e+10
1.60988e+09
-5.21412e+10
1.92129e+09
-5.24905e+10
2.23526e+09
-5.4276e+10
2.46835e+09
-6.00205e+10
3.59704e+09
-7.24237e+10
5.2045e+09
-1.0224e+11
8.04351e+09
-2.04762e+10
-5.87517e+10
1.46984e+08
293829
-5.87503e+10
1.31411e+08
7.36059e+07
-5.8768e+10
1.22978e+08
1.01371e+08
-5.881e+10
1.1468e+08
1.4108e+08
-5.88733e+10
1.0461e+08
1.79676e+08
-5.89579e+10
9.31496e+07
2.1749e+08
-5.90649e+10
8.07378e+07
2.55722e+08
-5.91912e+10
6.8325e+07
2.85836e+08
-5.93376e+10
5.58765e+07
3.06846e+08
-5.95038e+10
4.33936e+07
3.11528e+08
-5.96828e+10
3.08857e+07
2.93828e+08
-5.98711e+10
1.88311e+07
2.45204e+08
-6.00602e+10
7.77728e+06
1.56832e+08
-6.02393e+10
-1.63952e+06
2.10858e+07
-6.04e+10
-8.61726e+06
-1.66205e+08
-6.05307e+10
-1.2716e+07
-4.10761e+08
-6.06216e+10
-1.50337e+07
-7.11572e+08
-6.06582e+10
-1.46756e+07
-1.0626e+09
-6.06343e+10
-1.18663e+07
-1.45123e+09
-6.05435e+10
-6.39803e+06
-1.86221e+09
-6.03797e+10
-3.05181e+06
-2.28663e+09
-6.01276e+10
-3.4479e+06
-2.70264e+09
-5.97916e+10
-1.04404e+07
-3.05135e+09
-5.94043e+10
-2.52945e+07
-3.25527e+09
-5.90214e+10
-4.85615e+07
-3.2797e+09
-5.86833e+10
-7.76221e+07
-3.15172e+09
-5.84124e+10
-1.08863e+08
-2.9209e+09
-5.82164e+10
-1.3898e+08
-2.63322e+09
-5.80912e+10
-1.65523e+08
-2.32432e+09
-5.80287e+10
-1.87185e+08
-2.01975e+09
-5.80174e+10
-2.03537e+08
-1.73124e+09
-5.80493e+10
-2.14442e+08
-1.46502e+09
-5.81159e+10
-2.20009e+08
-1.22116e+09
-5.82105e+10
-2.208e+08
-9.98375e+08
-5.83269e+10
-2.17313e+08
-7.94026e+08
-5.84629e+10
-2.09918e+08
-6.01595e+08
-5.86146e+10
-1.98481e+08
-4.19816e+08
-5.87837e+10
-1.83208e+08
-2.40946e+08
-5.89691e+10
-1.64358e+08
-6.35751e+07
-5.91737e+10
-1.40916e+08
1.1089e+08
-5.93972e+10
-1.13563e+08
2.85664e+08
-5.96442e+10
-8.37925e+07
4.63747e+08
-5.99254e+10
-5.33265e+07
6.49568e+08
-6.02473e+10
-2.36019e+07
8.41125e+08
-6.06189e+10
2.20913e+06
1.04731e+09
-6.10718e+10
2.53777e+07
1.28111e+09
-6.16891e+10
5.89482e+07
1.58828e+09
-6.26581e+10
1.29213e+08
2.02284e+09
-6.42581e+10
1.8867e+08
2.67504e+09
-6.67994e+10
-1.51186e+07
3.84681e+09
-7.22193e+10
-9.58005e+07
6.99274e+09
-8.32223e+10
-3.25744e+08
1.25534e+10
-1.19078e+11
4.59453e+09
2.4827e+10
6.47541e+09
5.09048e+09
-5.72214e+10
1.38494e+09
-5.7273e+10
1.44707e+09
-5.73497e+10
1.48046e+09
-5.74527e+10
1.51645e+09
-5.75798e+10
1.55345e+09
-5.77308e+10
1.58735e+09
-5.79081e+10
1.62133e+09
-5.81076e+10
1.64717e+09
-5.83291e+10
1.66374e+09
-5.85716e+10
1.66286e+09
-5.88282e+10
1.63873e+09
-5.90943e+10
1.58299e+09
-5.93602e+10
1.48689e+09
-5.96126e+10
1.34172e+09
-5.98374e+10
1.14316e+09
-6.00178e+10
8.85831e+08
-6.01396e+10
5.72582e+08
-6.01872e+10
2.09087e+08
-6.01495e+10
-1.90076e+08
-6.00157e+10
-6.13405e+08
-5.97764e+10
-1.05503e+09
-5.94223e+10
-1.49296e+09
-5.89642e+10
-1.87271e+09
-5.84484e+10
-2.11962e+09
-5.79445e+10
-2.19914e+09
-5.75049e+10
-2.13435e+09
-5.71573e+10
-1.97192e+09
-5.69075e+10
-1.75596e+09
-5.67447e+10
-1.52111e+09
-5.66513e+10
-1.29177e+09
-5.66066e+10
-1.07854e+09
-5.65937e+10
-8.87196e+08
-5.65966e+10
-7.17248e+08
-5.66035e+10
-5.65419e+08
-5.6605e+10
-4.28981e+08
-5.65935e+10
-3.06076e+08
-5.65586e+10
-1.96214e+08
-5.64946e+10
-9.12667e+07
-5.63926e+10
9.33062e+06
-5.6248e+10
1.09131e+08
-5.60495e+10
2.08717e+08
-5.57874e+10
3.08527e+08
-5.54535e+10
4.09587e+08
-5.50366e+10
5.08014e+08
-5.45284e+10
6.08371e+08
-5.39131e+10
7.03678e+08
-5.31426e+10
7.90296e+08
-5.21581e+10
8.80492e+08
-5.11408e+10
1.103e+09
-5.07355e+10
1.59299e+09
-5.11151e+10
3.28549e+09
-5.24896e+10
5.7439e+09
-5.95665e+10
1.95352e+10
8.70344e+09
-5.93985e+10
6.93162e+07
-1.46327e+08
-5.93116e+10
5.32749e+07
-5.32829e+07
-5.92467e+10
5.44385e+07
-5.18605e+06
-5.91982e+10
4.98784e+07
5.52583e+07
-5.91686e+10
4.63567e+07
1.15911e+08
-5.91576e+10
4.25349e+07
1.75928e+08
-5.91664e+10
3.93922e+07
2.36892e+08
-5.9197e+10
3.75131e+07
2.90735e+08
-5.92492e+10
3.71266e+07
3.33489e+08
-5.93248e+10
3.83771e+07
3.59815e+08
-5.94236e+10
4.16278e+07
3.60434e+08
-5.95406e+10
4.71587e+07
3.21644e+08
-5.9671e+10
5.51004e+07
2.35307e+08
-5.9806e+10
6.52415e+07
9.12791e+07
-5.99283e+10
7.71044e+07
-1.21089e+08
-6.00224e+10
9.05336e+07
-4.05981e+08
-6.00698e+10
1.05435e+08
-7.65677e+08
-6.00548e+10
1.22246e+08
-1.19105e+09
-5.99688e+10
1.41152e+08
-1.66604e+09
-5.98051e+10
1.62919e+08
-2.16991e+09
-5.95667e+10
1.87487e+08
-2.69214e+09
-5.92423e+10
2.16392e+08
-3.21864e+09
-5.8838e+10
2.46457e+08
-3.67656e+09
-5.84238e+10
2.74745e+08
-3.91515e+09
-5.81143e+10
2.95529e+08
-3.85709e+09
-5.79715e+10
3.06423e+08
-3.57564e+09
-5.79953e+10
3.06558e+08
-3.18451e+09
-5.81585e+10
2.97872e+08
-2.75564e+09
-5.84196e+10
2.83088e+08
-2.34031e+09
-5.87412e+10
2.65159e+08
-1.96237e+09
-5.90914e+10
2.46389e+08
-1.63021e+09
-5.94487e+10
2.28142e+08
-1.34116e+09
-5.97961e+10
2.11102e+08
-1.09178e+09
-6.01219e+10
1.95559e+08
-8.76177e+08
-6.04194e+10
1.80636e+08
-6.85423e+08
-6.06789e+10
1.66063e+08
-5.16344e+08
-6.08963e+10
1.51986e+08
-3.61398e+08
-6.10622e+10
1.38282e+08
-2.18071e+08
-6.11755e+10
1.25375e+08
-7.61725e+07
-6.12321e+10
1.1537e+08
5.85452e+07
-6.12314e+10
1.09012e+08
1.92719e+08
-6.1163e+10
1.06367e+08
3.19889e+08
-6.10142e+10
1.08496e+08
4.41819e+08
-6.0772e+10
1.15411e+08
5.56553e+08
-6.04211e+10
1.2614e+08
6.66821e+08
-5.99336e+10
1.38979e+08
7.65485e+08
-5.92595e+10
1.55525e+08
8.59119e+08
-5.82915e+10
1.66592e+08
9.4277e+08
-5.67796e+10
1.21398e+08
1.00603e+09
-5.45958e+10
-2.3294e+07
1.55929e+09
-5.07365e+10
-1.91873e+08
3.15976e+09
-4.59533e+10
2.32443e+09
5.4247e+09
-4.78321e+10
1.04491e+10
1.65182e+10
4.59304e+09
7.97376e+09
-6.16042e+10
1.51757e+09
-6.1702e+10
1.60669e+09
-6.18077e+10
1.64892e+09
-6.19357e+10
1.70248e+09
-6.20824e+10
1.75444e+09
-6.22487e+10
1.80379e+09
-6.24343e+10
1.85379e+09
-6.26383e+10
1.89619e+09
-6.28574e+10
1.92745e+09