/*--------------------------------*- C++ -*----------------------------------*\
| =========                 |                                                 |
| \\      /  F ield         | OpenFOAM: The Open Source CFD Toolbox           |
|  \\    /   O peration     | Version:  4.1                                   |
|   \\  /    A nd           | Web:      www.OpenFOAM.org                      |
|    \\/     M anipulation  |                                                 |
\*---------------------------------------------------------------------------*/
FoamFile
{
    version     2.0;
    format      ascii;
    class       volVectorField;
    location    "71";
    object      U;
}
// * * * * * * * * * * * * * * * * * * * * * * * * * * * * * * * * * * * * * //

dimensions      [0 1 -1 0 0 0 0];

internalField   nonuniform List<vector> 
4432
(
(-135967 -3465.63 -492.219)
(-142483 -3638.13 -1119.79)
(-144158 -3427.87 -1011.39)
(-146480 -3673.61 -1521.99)
(-148720 -3712.73 -1761.31)
(-150837 -3748.55 -1883.61)
(-152683 -3811.3 -2073.75)
(-154448 -3859.8 -2232.46)
(-156102 -3910.37 -2398.48)
(-157648 -3967.04 -2579.11)
(-159062 -4031.05 -2778.57)
(-160313 -4100.27 -3005.88)
(-161360 -4171.92 -3264.94)
(-162157 -4247.02 -3551.25)
(-162675 -4325.93 -3860.81)
(-162871 -4409.16 -4183.45)
(-162720 -4497.46 -4524.14)
(-162210 -4587.59 -4882.64)
(-161328 -4687.1 -5265.18)
(-160064 -4794.99 -5650.58)
(-158430 -4915.94 -6039.13)
(-156459 -5047.36 -6416.84)
(-154193 -5190.85 -6775.17)
(-151673 -5343.7 -7104.07)
(-148950 -5503.66 -7395.17)
(-146074 -5668.75 -7644.11)
(-143108 -5836.24 -7847.75)
(-140110 -6003.75 -8006.73)
(-137147 -6167.52 -8121.95)
(-134272 -6324.06 -8195.79)
(-131543 -6468.96 -8229.77)
(-129010 -6597.66 -8225.4)
(-126714 -6705.82 -8185.5)
(-124705 -6789.04 -8111.61)
(-123017 -6844.34 -8006.08)
(-121686 -6870.01 -7872.52)
(-120745 -6865.06 -7715.7)
(-120220 -6829.66 -7540.7)
(-120155 -6770.77 -7349.8)
(-120558 -6704.15 -7158.93)
(-121418 -6644.55 -6952.17)
(-122752 -6599.58 -6687.14)
(-124563 -6579.14 -6318.27)
(-126930 -6589.07 -5763.97)
(-130304 -6624.37 -4914.22)
(-135707 -6672.88 -3630.52)
(-143761 -6699.51 -1681.17)
(-152062 -6634.43 1324.02)
(-155308 -6207.56 6363.49)
(-156176 -4338.3 13555.5)
(-178800 -497.792 24064.9)
(-248995 2995.93 36155.6)
(-301962 -13686.2 66062.6)
(-215733 3132.76 33937.8)
(-197761 3536.53 689.128)
(-201328 3529.25 160.719)
(-202633 3757.63 -71.1992)
(-204216 3658.86 -292.854)
(-205521 3710.81 -512.462)
(-206821 3763.94 -634.057)
(-207916 3799.93 -787.593)
(-208927 3848.52 -921.47)
(-209864 3897.56 -1062.47)
(-210720 3943.92 -1209.08)
(-211476 3986.4 -1367.98)
(-212112 4026.62 -1545.68)
(-212603 4066.36 -1744.8)
(-212919 4104.22 -1962.14)
(-213045 4139.64 -2193.65)
(-212948 4171.67 -2436.83)
(-212645 4203.95 -2688.35)
(-212121 4241.65 -2944.71)
(-211373 4282.69 -3203.43)
(-210402 4327.57 -3458.35)
(-209224 4373.72 -3702.39)
(-207873 4423.57 -3927.22)
(-206390 4475.94 -4124.27)
(-204817 4533.51 -4286.76)
(-203202 4596.94 -4409.41)
(-201592 4667.49 -4490.62)
(-200037 4745.17 -4530.85)
(-198584 4831.05 -4533.52)
(-197278 4925.44 -4503.22)
(-196153 5029.8 -4445.5)
(-195243 5145.22 -4366.17)
(-194569 5273.05 -4270.68)
(-194146 5415.07 -4164.85)
(-193992 5572.09 -4053.77)
(-194109 5744.8 -3943.48)
(-194502 5933.51 -3839.43)
(-195171 6137.97 -3746.31)
(-196116 6356.47 -3667.47)
(-197347 6582.47 -3603.83)
(-198897 6812.77 -3560.07)
(-200826 7055.22 -3526.6)
(-203187 7314.57 -3479.99)
(-206040 7593.17 -3393.35)
(-209502 7895.44 -3219.79)
(-213910 8233.43 -2883.69)
(-219965 8633.3 -2291.44)
(-228204 9129.57 -1311.74)
(-237554 9779.01 270.59)
(-244947 10737.1 2928.03)
(-252529 12413.1 6645.04)
(-279920 15205.4 11282.9)
(-372714 14890.6 17648.6)
(-492321 -5887.19 43699.1)
(-457937 -16651.8 58936.3)
(-269631 -1906.57 7222.04)
(-271202 -1935.43 6430.9)
(-271903 -1978.85 6354.62)
(-272692 -1924.64 5985.16)
(-273209 -1912.58 5755.28)
(-273785 -1887.98 5645.44)
(-274254 -1864.43 5531.13)
(-274630 -1835.74 5429.43)
(-274950 -1808.89 5316.86)
(-275201 -1781.3 5187.99)
(-275377 -1756.63 5035.22)
(-275466 -1733.7 4848.44)
(-275447 -1710.93 4623.75)
(-275300 -1689.93 4360.14)
(-275015 -1670.42 4061.28)
(-274586 -1657.64 3735.61)
(-274004 -1645.6 3391.6)
(-273287 -1630.42 3048.48)
(-272504 -1609.16 2714.24)
(-271644 -1588.97 2388.89)
(-270710 -1567.21 2079.23)
(-269728 -1544.02 1805.69)
(-268723 -1518.67 1580.14)
(-267719 -1489.97 1416.39)
(-266736 -1456.93 1322.93)
(-265784 -1419.19 1302.48)
(-264881 -1376.53 1354.24)
(-264029 -1328.99 1472.19)
(-263237 -1276.27 1649.47)
(-262498 -1218.13 1876.86)
(-261809 -1154.13 2146.48)
(-261154 -1083.49 2450.83)
(-260518 -1005.04 2783.87)
(-259877 -917.404 3139.3)
(-259201 -820.097 3508.61)
(-258455 -711.938 3882.82)
(-257597 -591.475 4251.67)
(-256584 -457.707 4605.11)
(-255365 -310.11 4936.49)
(-253917 -145.828 5242.08)
(-252284 38.1667 5519.29)
(-250380 243.49 5752.55)
(-248106 474.835 5946.49)
(-245373 736.438 6111.97)
(-242214 1039.81 6271.58)
(-238855 1403.13 6439.02)
(-235230 1820.52 6571.03)
(-229709 2295.29 6776.83)
(-220368 2873.83 7487.59)
(-208032 3546.29 9250.45)
(-207289 3812.61 11068.4)
(-215183 622.909 12081.4)
(-195297 -8958.4 13338.1)
(56681.8 -9423.88 5171.68)
(-311540 1839.96 4499.41)
(-312178 1696.43 3799.25)
(-312459 1603.11 3512.55)
(-312793 1591.19 3316.79)
(-313067 1551.03 3110.42)
(-313393 1523.81 3007.14)
(-313661 1497.98 2916.18)
(-313881 1479.35 2837.26)
(-314079 1461.13 2749.54)
(-314243 1446.05 2654.11)
(-314366 1431.32 2543.09)
(-314435 1418.58 2407.96)
(-314432 1409.72 2243.94)
(-314344 1404.39 2051.63)
(-314166 1403.08 1835.55)
(-313902 1401.97 1599.9)
(-313550 1404.11 1354.12)
(-313105 1411.5 1100.05)
(-312561 1423.75 839.352)
(-311918 1435.03 576.672)
(-311184 1447.82 322.4)
(-310373 1462.34 88.849)
(-309506 1479.56 -111.071)
(-308598 1501.14 -267.047)
(-307665 1528.32 -371.653)
(-306713 1562.36 -423)
(-305755 1603.67 -422.586)
(-304794 1653.03 -376.07)
(-303836 1710.78 -289.983)
(-302876 1777.6 -172.034)
(-301913 1853.7 -28.8469)
(-300937 1939.81 133.736)
(-299937 2036.72 311.014)
(-298900 2145.12 499.244)
(-297807 2265.12 694.451)
(-296635 2397.13 892.476)
(-295357 2542.31 1087.59)
(-293941 2701.23 1275.08)
(-292353 2873.11 1454.76)
(-290557 3055.64 1626.11)
(-288560 3245.07 1781.26)
(-286306 3444.42 1910.51)
(-283703 3655.49 2020.24)
(-280659 3878.28 2130.32)
(-277181 4118.2 2267.13)
(-273388 4379.27 2448.48)
(-269123 4638.78 2684.39)
(-262944 4910.29 3117.51)
(-252690 5154.65 4222.42)
(-239152 5576.18 6627.25)
(-234168 4478.38 10710.8)
(-232250 1315.03 13448.4)
(-189968 -16448.8 17971.8)
(-17372.2 -9271.2 3291.7)
(-236643 -2275.52 2193.78)
(-234613 -2323.21 1098.21)
(-233917 -2460.96 629.398)
(-233138 -2419.23 306.156)
(-232392 -2437.19 -60.6267)
(-231748 -2458.9 -357.661)
(-231153 -2479.63 -601.595)
(-230595 -2493.77 -839.398)
(-230071 -2511.44 -1082.37)
(-229582 -2527.79 -1335.44)
(-229132 -2545.52 -1609.91)
(-228725 -2562.72 -1912.58)
(-228349 -2579.78 -2246.73)
(-228000 -2596.29 -2619.82)
(-227673 -2612.14 -3030.22)
(-227360 -2633.08 -3482.29)
(-226992 -2659.48 -3965.26)
(-226507 -2696.88 -4471.89)
(-225795 -2738.71 -4997.24)
(-224844 -2780.76 -5541.18)
(-223659 -2819.46 -6076.88)
(-222253 -2858.24 -6582.6)
(-220658 -2893.01 -7030.91)
(-218912 -2922.83 -7399.06)
(-217057 -2945.61 -7671.09)
(-215138 -2961.09 -7841.08)
(-213205 -2969.64 -7911.23)
(-211304 -2971.92 -7892.22)
(-209477 -2968.61 -7797.44)
(-207759 -2959.95 -7642.83)
(-206182 -2945.52 -7441.93)
(-204768 -2925.18 -7204.43)
(-203548 -2898.88 -6933.65)
(-202544 -2865.91 -6632.05)
(-201786 -2824.99 -6301.89)
(-201305 -2774.58 -5938.02)
(-201128 -2713.61 -5536.1)
(-201289 -2641.25 -5090.89)
(-201817 -2558.52 -4595.13)
(-202719 -2465.37 -4047.81)
(-203878 -2366.83 -3457.26)
(-205298 -2262.28 -2808.89)
(-206904 -2153.97 -2070.96)
(-208624 -2036.96 -1200.19)
(-210586 -1905.55 -146.992)
(-213208 -1733.67 1089.18)
(-216423 -1465.43 2380.76)
(-217843 -943.408 3549.53)
(-212033 85.8668 4655.21)
(-200652 2545.8 7292.79)
(-200574 5893.02 13863.6)
(-237188 7450.99 22795.4)
(-244210 -15123.5 31884.4)
(-158203 -4953.05 8258.88)
(-263087 3127.74 1822.69)
(-262117 3147.89 1020.65)
(-261730 3058.86 743.145)
(-261338 3137.19 528.777)
(-261115 3159.46 304.012)
(-260938 3177.95 120.206)
(-260796 3197.86 -6.11672)
(-260686 3224.13 -131.062)
(-260604 3247.61 -260.221)
(-260539 3272.28 -399.072)
(-260494 3295.48 -556.768)
(-260463 3318.25 -740.645)
(-260433 3339.46 -958.033)
(-260393 3358.6 -1215.92)
(-260330 3375.29 -1517.14)
(-260215 3384.4 -1859.18)
(-259998 3386.35 -2238.35)
(-259644 3376.74 -2646.85)
(-259145 3362.55 -3068.43)
(-258495 3346.93 -3490.71)
(-257698 3332.67 -3896.06)
(-256772 3316.83 -4262.25)
(-255744 3303.04 -4565.91)
(-254649 3292.17 -4787.93)
(-253518 3286.17 -4916.18)
(-252385 3285.63 -4948.41)
(-251282 3290.56 -4889.94)
(-250239 3300.93 -4753.5)
(-249280 3316.84 -4553.48)
(-248424 3339.06 -4305.57)
(-247686 3368.33 -4022.89)
(-247074 3405.33 -3716.32)
(-246601 3450.57 -3392.33)
(-246274 3505.33 -3054.11)
(-246103 3571.5 -2702.62)
(-246100 3651.1 -2336.38)
(-246277 3746.41 -1953.25)
(-246653 3859.57 -1550.91)
(-247249 3991.66 -1126.32)
(-248080 4145.99 -678.878)
(-249114 4328.98 -207.375)
(-250378 4545.04 289.882)
(-251868 4798.75 821.958)
(-253602 5101.19 1406.34)
(-255764 5468.93 2054.71)
(-258846 5934.75 2743.14)
(-263032 6559.27 3399.3)
(-266741 7466.37 3991.19)
(-265807 8862.27 4795.49)
(-262773 11070.7 7188.03)
(-276145 13970.7 12761.9)
(-352540 12500.2 23803.3)
(-440835 -12949.1 29587)
(-424487 -28192.3 7683.77)
(-256669 -2861.16 4664.6)
(-257369 -2922.23 4418.73)
(-257787 -2949.32 4212.61)
(-258388 -2950.94 4162.42)
(-259030 -2961.66 4083.21)
(-259679 -2982.22 4011.64)
(-260345 -2994.61 3946.62)
(-261029 -3006.13 3879.19)
(-261724 -3020.21 3796.19)
(-262413 -3034.29 3685.46)
(-263084 -3050.28 3536.07)
(-263712 -3066.64 3344.15)
(-264264 -3084.36 3098.97)
(-264707 -3103.23 2789.05)
(-265012 -3125.16 2406.14)
(-265149 -3146.04 1948.55)
(-265142 -3170.53 1435.32)
(-265024 -3197.67 880.755)
(-264796 -3227.02 310.645)
(-264453 -3253.82 -252.466)
(-263996 -3280.17 -777.661)
(-263440 -3303.66 -1238.29)
(-262811 -3323.7 -1596.1)
(-262141 -3338.34 -1825.34)
(-261458 -3346.35 -1910.2)
(-260788 -3347.47 -1851.93)
(-260150 -3341.92 -1664.34)
(-259553 -3329.91 -1370.09)
(-259000 -3311.14 -994.731)
(-258481 -3284.37 -562.889)
(-257979 -3247.98 -95.4091)
(-257471 -3201.06 391.198)
(-256933 -3142.73 885.756)
(-256341 -3069.66 1380.36)
(-255663 -2976.87 1869.78)
(-254865 -2862.05 2351.51)
(-253910 -2721.75 2824.09)
(-252752 -2553.01 3286.54)
(-251345 -2354.25 3735.11)
(-249651 -2125.83 4167.84)
(-247626 -1870.02 4596.18)
(-245204 -1592.4 5039.18)
(-242292 -1300.59 5518.91)
(-238844 -1003.91 6042.95)
(-234936 -710.896 6622.9)
(-230946 -431.625 7276.73)
(-227003 -174.818 8037.84)
(-221552 138.558 8790.4)
(-211969 678.784 9443)
(-198716 1607.47 10148.5)
(-195434 2211.16 10870.5)
(-198389 2276.32 6568.92)
(-205390 -9705.61 15787.8)
(29163.2 -11331.9 7492.08)
(-263758 3082.29 4028.33)
(-263931 3030.24 3684.8)
(-264010 3016.23 3578.92)
(-264213 3023.43 3454.85)
(-264490 3022.23 3352.07)
(-264739 3011.02 3254.75)
(-264972 3007.71 3161.29)
(-265210 3005.16 3056.65)
(-265439 3000.47 2940.19)
(-265643 2996.49 2797.03)
(-265815 2991.51 2617.76)
(-265937 2986.94 2397.49)
(-265985 2981.89 2128.67)
(-265935 2976.72 1801.06)
(-265765 2969.63 1408.87)
(-265457 2964.54 958.539)
(-265012 2957.19 463.691)
(-264493 2946.6 -59.8687)
(-263891 2933.13 -600.881)
(-263198 2921.56 -1138.62)
(-262419 2909.67 -1648.52)
(-261567 2899.5 -2100.59)
(-260670 2891.24 -2463.58)
(-259755 2886.35 -2711.57)
(-258851 2885.59 -2830.78)
(-257983 2888.71 -2821.41)
(-257170 2894.92 -2695.75)
(-256423 2903.46 -2473.8)
(-255749 2914.04 -2177.71)
(-255143 2927.28 -1828.67)
(-254602 2944.46 -1444.41)
(-254115 2966.07 -1038.79)
(-253674 2992.43 -620.605)
(-253269 3026.16 -194.823)
(-252893 3071.79 236.452)
(-252536 3131.23 673.413)
(-252183 3207.24 1117.16)
(-251823 3302.09 1568.34)
(-251445 3416.98 2026.97)
(-251045 3551.29 2494.97)
(-250617 3701.91 2981.47)
(-250130 3861.86 3498.67)
(-249524 4018.67 4054.88)
(-248743 4157.6 4660.34)
(-247900 4267.52 5330.79)
(-247429 4342.33 6073.81)
(-247525 4369.82 6831.49)
(-246559 4421.87 7329.81)
(-241066 4572.14 7287.34)
(-231239 5167.31 6125.75)
(-230821 4313.97 4598.3)
(-250779 2735.39 994.624)
(-222062 -32343.2 22010.8)
(-120808 -20652 6579.04)
(-243820 -2733.07 1900.06)
(-243436 -2806.43 1581.51)
(-243230 -2800.06 1424.89)
(-243052 -2787.03 1258.23)
(-242957 -2782.55 1142.19)
(-242886 -2782.72 1040.75)
(-242843 -2783.8 944.328)
(-242824 -2786.9 839.369)
(-242830 -2788.61 718.493)
(-242853 -2787.68 563.135)
(-242887 -2785.77 359.234)
(-242924 -2782.88 104.449)
(-242956 -2777.11 -211.819)
(-242969 -2768.26 -599.763)
(-242947 -2755 -1068.78)
(-242868 -2734.4 -1612.63)
(-242711 -2707.66 -2229.74)
(-242421 -2678.71 -2916.5)
(-241973 -2655.26 -3659.28)
(-241355 -2634.91 -4422.8)
(-240557 -2621.72 -5176.91)
(-239591 -2615.19 -5871.74)
(-238488 -2619.09 -6456.72)
(-237299 -2632.18 -6885.97)
(-236082 -2654.78 -7136.39)
(-234897 -2685.68 -7210.45)
(-233793 -2724.22 -7130.72)
(-232807 -2768.89 -6930.16)
(-231958 -2817.31 -6643.38)
(-231252 -2866.7 -6299.49)
(-230683 -2914.55 -5920.43)
(-230235 -2959.21 -5521.79)
(-229895 -2999.45 -5113.47)
(-229648 -3032.82 -4698.44)
(-229474 -3055.96 -4273.54)
(-229355 -3066.77 -3837.4)
(-229269 -3062.93 -3386.52)
(-229198 -3041.91 -2916.33)
(-229120 -3002.4 -2426.45)
(-229012 -2945.4 -1923.14)
(-228843 -2873.9 -1416.49)
(-228552 -2795.66 -917.817)
(-227990 -2710.77 -417.176)
(-226996 -2631.16 62.7424)
(-225550 -2560.59 442.051)
(-223919 -2513.96 679.114)
(-222021 -2534.15 657.826)
(-217854 -2617 258.129)
(-207444 -2791.04 -769.912)
(-190650 -3163.67 -2975.81)
(-181195 -5077.23 -7916.15)
(-180982 -3623.4 -5264.29)
(-220412 -12394.3 10451.4)
(23718.2 -12105.1 -24865.8)
(-231364 3251.09 2154.62)
(-230561 3182.01 1796.52)
(-230232 3199.37 1626.9)
(-229931 3222.83 1419.68)
(-229781 3238.23 1273.59)
(-229661 3249.29 1159.96)
(-229590 3260.14 1046.53)
(-229562 3269.48 921.035)
(-229582 3280.83 781.862)
(-229646 3295.45 610.251)
(-229753 3311.44 395.628)
(-229895 3328.66 130.573)
(-230063 3348.99 -195.193)
(-230247 3372.57 -594.169)
(-230427 3400.69 -1073.83)
(-230574 3436.82 -1633.84)
(-230624 3480.36 -2269.99)
(-230447 3527.56 -2980.67)
(-230023 3570.35 -3743.03)
(-229332 3611.47 -4526.55)
(-228356 3646.82 -5295.1)
(-227102 3677.35 -6000.75)
(-225602 3699.59 -6588.73)
(-223915 3715.35 -7011.35)
(-222119 3724.63 -7242.85)
(-220294 3728.9 -7283.86)
(-218515 3729.09 -7155.46)
(-216839 3726.85 -6889.61)
(-215300 3724.14 -6520.56)
(-213918 3723.39 -6077.97)
(-212694 3727.04 -5584.97)
(-211621 3736.4 -5057.55)
(-210685 3752.81 -4505.24)
(-209872 3778.77 -3933.05)
(-209168 3817.86 -3343.14)
(-208556 3873.09 -2735.75)
(-208023 3947.51 -2109.95)
(-207565 4043.39 -1464.36)
(-207176 4161.96 -801.439)
(-206866 4302.91 -127.032)
(-206643 4463.19 550.658)
(-206499 4632.49 1222.4)
(-206401 4791.93 1871.91)
(-206330 4920.95 2476.5)
(-206474 5013.42 3036.69)
(-207255 5049.15 3494.18)
(-208801 4981.78 3809.06)
(-209073 4797.61 3753.39)
(-203282 4479.29 2615.62)
(-192489 3553 -2.56508)
(-190834 25.3807 -2770.54)
(-227472 -2915.15 1846.01)
(-204509 -26767.7 -21023.9)
(-81054.2 -15818.9 -15051.7)
(-236810 -2209.3 4009.18)
(-236709 -2254.56 3939.98)
(-236684 -2260.06 3942.22)
(-236728 -2259.07 3910.37)
(-236838 -2262.28 3901.21)
(-236988 -2258.36 3884.02)
(-237177 -2250.32 3858.11)
(-237400 -2243.62 3813.66)
(-237663 -2236.06 3742.31)
(-237963 -2224.03 3626.53)
(-238279 -2205.62 3450.65)
(-238594 -2184.26 3200.47)
(-238891 -2160.5 2861.43)
(-239148 -2136.31 2418.98)
(-239333 -2112.05 1865.27)
(-239414 -2091.73 1199.16)
(-239370 -2075.14 434.16)
(-239198 -2065 -397.5)
(-238882 -2055.53 -1264.65)
(-238407 -2047.48 -2124.63)
(-237761 -2038.61 -2937.97)
(-236948 -2030.9 -3638.61)
(-236006 -2023.38 -4154.23)
(-235003 -2016.43 -4415.41)
(-234026 -2010.07 -4396.24)
(-233151 -2005.13 -4112.28)
(-232437 -2002.27 -3611.39)
(-231913 -2001.59 -2952.44)
(-231587 -2002.5 -2191.71)
(-231447 -2004.34 -1373.49)
(-231476 -2006.86 -528.251)
(-231652 -2010.1 325.236)
(-231957 -2014.15 1177.55)
(-232372 -2019.14 2027.42)
(-232883 -2026.67 2879.67)
(-233477 -2038.66 3740.37)
(-234141 -2056.84 4617.73)
(-234867 -2082.66 5519.34)
(-235653 -2118.15 6446.88)
(-236500 -2165.56 7399.08)
(-237412 -2227.57 8368.81)
(-238384 -2306.25 9335.29)
(-239386 -2400.1 10272.2)
(-240414 -2498.2 11211.9)
(-241719 -2604.82 12154.8)
(-243868 -2714.79 13065.3)
(-247193 -2792.76 13839.3)
(-250512 -2808.34 14225.3)
(-249921 -2726.11 13502.3)
(-245061 -2333.33 10685.7)
(-242200 -519.359 4493.69)
(-275498 1467.43 1689.79)
(-204209 -9344.62 -52948.9)
(-85053.8 -10332.9 -31097.9)
(-245169 3136.63 3379.17)
(-245620 3116.83 3380.4)
(-246020 3134.14 3362.89)
(-246563 3158.53 3318.22)
(-247188 3180.69 3301.71)
(-247875 3211.54 3294.26)
(-248634 3248.26 3283.74)
(-249454 3285.74 3257.53)
(-250328 3326.17 3203.66)
(-251247 3373.18 3107.97)
(-252189 3428.68 2957.04)
(-253128 3489.46 2735.81)
(-254035 3555 2428.43)
(-254872 3623.32 2020.13)
(-255594 3693.87 1500.71)
(-256155 3762.68 863.831)
(-256521 3829.07 117.138)
(-256725 3888.07 -709.203)
(-256766 3942.62 -1572.81)
(-256644 3990.09 -2438)
(-256337 4031.53 -3261.78)
(-255843 4063.74 -3982.38)
(-255189 4087 -4522.54)
(-254430 4101.07 -4814.77)
(-253644 4106.98 -4828.67)
(-252902 4105.82 -4577.5)
(-252261 4099.26 -4103.93)
(-251755 4089.63 -3463.5)
(-251396 4079.42 -2710.72)
(-251181 4071 -1889.94)
(-251097 4066.14 -1032.84)
(-251126 4065.57 -159.058)
(-251250 4070.08 721.664)
(-251449 4080.18 1607.73)
(-251708 4094.81 2501.69)
(-252010 4112.67 3406.44)
(-252341 4132.51 4326.05)
(-252689 4153.65 5263.97)
(-253047 4175.16 6219.89)
(-253413 4195.8 7191.88)
(-253787 4213.76 8173.08)
(-254164 4228.93 9162.19)
(-254554 4242.24 10159.4)
(-255012 4254.49 11159.2)
(-255786 4273.67 12225.3)
(-257503 4306.8 13353.6)
(-260567 4380.24 14526.8)
(-263989 4515.65 15584.4)
(-264932 4681.33 15966)
(-264550 4886.94 14772.5)
(-273869 5184.81 11036.2)
(-321127 3589.67 6539.54)
(-349631 -10593.8 -31108.3)
(-279759 -15552.6 194.413)
(-221930 -990.486 890.203)
(-221862 -1018.06 847.634)
(-221872 -1075.74 780.005)
(-221968 -1117.96 716.001)
(-222138 -1170.78 648.24)
(-222371 -1215.92 572.648)
(-222655 -1263.14 485.553)
(-222994 -1317.46 378.173)
(-223400 -1380.21 235.019)
(-223872 -1447.62 43.9425)
(-224398 -1520.18 -204.156)
(-224967 -1599.78 -529.884)
(-225564 -1686.64 -952.175)
(-226162 -1781.32 -1488.59)
(-226713 -1883.44 -2153.38)
(-227142 -1990.65 -2956.74)
(-227378 -2099.92 -3893.73)
(-227365 -2208.17 -4954.86)
(-227070 -2309.51 -6099.6)
(-226457 -2405.46 -7293.02)
(-225483 -2491.54 -8482.64)
(-224114 -2565.53 -9591.92)
(-222370 -2619.36 -10493)
(-220354 -2649.24 -11059.5)
(-218226 -2650.42 -11228)
(-216142 -2623.76 -11023.1)
(-214223 -2570.49 -10517.2)
(-212533 -2493.91 -9795.44)
(-211091 -2397.08 -8934.07)
(-209883 -2282.82 -7989.2)
(-208877 -2153.07 -6996.7)
(-208039 -2008.56 -5976.06)
(-207331 -1848.2 -4934.76)
(-206722 -1668.64 -3873.23)
(-206184 -1467.18 -2788.98)
(-205696 -1243 -1677.15)
(-205242 -995.616 -532.53)
(-204812 -724.348 649.576)
(-204402 -429.382 1868.64)
(-204021 -111.324 3119.05)
(-203680 228.514 4397.01)
(-203388 588.037 5694.19)
(-203140 967.979 7001.31)
(-202959 1375.4 8341.94)
(-203071 1821.73 9784.64)
(-204060 2331.84 11349.9)
(-206535 2978.39 13145.2)
(-209530 3896.09 15184.2)
(-209537 5261.6 17386.9)
(-208644 7274.19 19519.3)
(-226830 11152.6 20618)
(-305472 17874.5 10343.8)
(-377010 8631.12 -34840.6)
(-288750 26767.7 -25999.8)
(-233117 3840.78 3742.82)
(-232997 3897.33 3803.92)
(-233116 3927.14 3797.44)
(-233257 3969.93 3783.53)
(-233499 4011.81 3781.1)
(-233804 4066.36 3780.21)
(-234180 4125.4 3770.97)
(-234620 4183.59 3748.26)
(-235123 4239.39 3696.4)
(-235685 4295.99 3601.54)
(-236297 4352.38 3449.29)
(-236946 4405.79 3220.18)
(-237614 4454.72 2893.42)
(-238276 4497.19 2450.32)
(-238900 4531.58 1876.73)
(-239448 4558.01 1165.73)
(-239880 4578.97 322.996)
(-240161 4596.38 -632.987)
(-240243 4615.76 -1673.6)
(-240081 4635.97 -2773.26)
(-239656 4664.26 -3898.26)
(-238944 4700.46 -4973.62)
(-237968 4748.61 -5883.16)
(-236817 4807.83 -6508.82)
(-235610 4877.91 -6791.22)
(-234452 4954.06 -6747.19)
(-233405 5032.45 -6437.26)
(-232490 5108.7 -5934.68)
(-231691 5179.28 -5306.65)
(-230979 5241.63 -4604.63)
(-230317 5294.29 -3862.95)
(-229668 5336.85 -3101.4)
(-229002 5370.94 -2328.51)
(-228293 5399.73 -1544.58)
(-227517 5425.56 -752.374)
(-226653 5448.91 48.0709)
(-225684 5470.44 867.04)
(-224597 5492.98 1718.53)
(-223384 5520.09 2620.91)
(-222046 5553.53 3584.39)
(-220591 5595.4 4619.5)
(-219025 5652.22 5760.59)
(-217310 5736.9 7039.9)
(-215413 5862.91 8459.65)
(-213496 6040.91 10039.3)
(-212046 6297.49 11801.7)
(-211555 6701.56 13812.4)
(-211119 7370.91 16074)
(-207864 8465.14 18126.8)
(-202323 10163.6 18381.1)
(-214355 12634.8 18935.1)
(-284173 16077.9 19094)
(-358386 6085.44 -6351.28)
(-311513 66749.8 -77862.1)
(-235116 -1805.15 53.1524)
(-234953 -1905.85 289.537)
(-235008 -2003.44 369.418)
(-235131 -2106.16 491.684)
(-235351 -2211.94 598.737)
(-235648 -2311.33 711.07)
(-236023 -2413.84 817.078)
(-236483 -2520.3 897.862)
(-237037 -2627.38 932.066)
(-237671 -2730.75 902.913)
(-238366 -2830.84 787.177)
(-239109 -2926.74 555.641)
(-239871 -3016.69 178.774)
(-240614 -3099.78 -369.497)
(-241292 -3176.47 -1113.8)
(-241876 -3248.09 -2068.11)
(-242307 -3317.74 -3226.84)
(-242541 -3384.69 -4564.25)
(-242549 -3450.9 -6032.22)
(-242307 -3515.87 -7584.06)
(-241765 -3588.77 -9159.69)
(-240858 -3674.91 -10666.4)
(-239575 -3781.14 -11917.7)
(-238042 -3910.57 -12705.1)
(-236470 -4062.82 -12933.4)
(-235045 -4229.91 -12679.7)
(-233875 -4402.25 -12090.1)
(-232999 -4570.9 -11310.1)
(-232410 -4730.57 -10458.1)
(-232080 -4879.57 -9614.61)
(-231970 -5016.64 -8826.85)
(-232044 -5141.17 -8116.97)
(-232267 -5252.84 -7490.56)
(-232611 -5351.66 -6943.91)
(-233052 -5437.87 -6469.66)
(-233571 -5511.87 -6057.85)
(-234154 -5572.72 -5699.5)
(-234794 -5618.93 -5387.55)
(-235492 -5648.01 -5117.82)
(-236254 -5655.53 -4895.02)
(-237090 -5641.12 -4721.8)
(-238006 -5605.23 -4601.34)
(-239001 -5549.22 -4534.96)
(-240090 -5478.89 -4522.26)
(-241450 -5412.05 -4552.93)
(-243580 -5367.77 -4573.7)
(-247015 -5354.62 -4449.48)
(-250795 -5366.84 -4097.16)
(-252025 -5550.11 -3327.9)
(-251504 -6345.57 -1889.19)
(-265487 -6893.78 4271.07)
(-338061 -14672.2 20157.8)
(-491805 5748.4 33995.6)
(-418500 26517.2 3574.6)
(-228827 2547.83 5374.65)
(-228941 2578.26 5625.92)
(-229224 2599.91 5773.82)
(-229586 2612.4 5935.48)
(-230043 2631.9 6106.82)
(-230597 2661.56 6284.78)
(-231252 2693.03 6458.26)
(-232003 2723.77 6613.93)
(-232852 2755.82 6734.52)
(-233786 2792.43 6797.56)
(-234791 2832 6776)
(-235845 2873.62 6638.09)
(-236917 2917.41 6349.66)
(-237964 2963.98 5877.44)
(-238927 3014.83 5192.95)
(-239740 3071.04 4277.85)
(-240335 3129.9 3131.94)
(-240653 3193.19 1779.11)
(-240663 3258.84 274.558)
(-240316 3324.06 -1322.01)
(-239534 3370.58 -2940.83)
(-238268 3395.58 -4482.95)
(-236527 3394.63 -5768.76)
(-234478 3368.95 -6592.36)
(-232392 3322.77 -6867.69)
(-230515 3265.62 -6673.12)
(-228988 3208.09 -6158.47)
(-227855 3157.66 -5471.13)
(-227092 3119.46 -4730.8)
(-226634 3095.56 -4018.3)
(-226404 3084.66 -3382.4)
(-226329 3085.86 -2849.47)
(-226342 3098.09 -2427.81)
(-226386 3117.79 -2111.49)
(-226425 3143.21 -1894.59)
(-226426 3174.7 -1776.36)
(-226348 3214 -1742.66)
(-226154 3263.96 -1784.44)
(-225819 3325.48 -1905.68)
(-225319 3404.45 -2104.02)
(-224625 3504.48 -2381.15)
(-223697 3625.26 -2742.91)
(-222463 3762.69 -3200.83)
(-220867 3908.07 -3771.27)
(-219003 4037.95 -4474.56)
(-217248 4125.24 -5354.07)
(-215772 4146.95 -6458.37)
(-213115 4104.08 -7876.98)
(-205843 3821.86 -9512.99)
(-194089 2652.64 -10857.9)
(-195784 2236.77 -8646.07)
(-231854 3973.9 -6501.99)
(-277858 8975.49 36653.1)
(-219071 4509.04 11278.3)
(-237912 -3082.72 176.429)
(-237346 -3237.9 510.345)
(-237099 -3314.06 642.112)
(-236869 -3417.95 827.899)
(-236724 -3508.68 1001.5)
(-236636 -3595.23 1176.76)
(-236623 -3684.15 1338.86)
(-236698 -3772.5 1467.52)
(-236868 -3854.51 1548.58)
(-237129 -3928.89 1565.17)
(-237482 -3996.07 1484.79)
(-237919 -4056.08 1272.24)
(-238424 -4109.06 890.65)
(-238966 -4156.41 309.436)
(-239493 -4201.04 -500.681)
(-239932 -4242.61 -1561.75)
(-240207 -4280.35 -2881.96)
(-240249 -4311.34 -4433.41)
(-240024 -4332.35 -6160.57)
(-239519 -4336.21 -7982.73)
(-238693 -4320.57 -9832.94)
(-237453 -4280.09 -11601.4)
(-235788 -4220.15 -13035.1)
(-233972 -4151.06 -13763.1)
(-232473 -4095.59 -13619.8)
(-231629 -4072.24 -12779.5)
(-231500 -4091.79 -11536.8)
(-231992 -4154.63 -10127.2)
(-232942 -4256.79 -8721.33)
(-234183 -4392.35 -7413.3)
(-235581 -4556.23 -6245.19)
(-237036 -4745.97 -5226.08)
(-238475 -4960.56 -4347.84)
(-239848 -5199.01 -3593.84)
(-241116 -5461.1 -2945.54)
(-242246 -5746.72 -2382.54)
(-243210 -6055.05 -1884.97)
(-243980 -6382.01 -1434.39)
(-244537 -6720.28 -1012.02)
(-244854 -7057.84 -624.129)
(-244963 -7378.36 -252.371)
(-244817 -7664.83 95.6868)
(-244342 -7905.37 428.199)
(-243472 -8085.99 733.333)
(-242278 -8198.23 977.404)
(-241070 -8242.24 1119.19)
(-239894 -8235.77 1180.17)
(-237250 -8240.34 1150.98)
(-229751 -8440.14 823.109)
(-215184 -9194.72 940.907)
(-208786 -11743.3 5186.44)
(-213332 -1552.43 11383.1)
(-227310 26880.3 63316.5)
(-152509 15384.2 27506.5)
(-246190 3315.31 6007.83)
(-246632 3422.22 6275.44)
(-246985 3509.28 6402.17)
(-247473 3594.34 6559.86)
(-248017 3695.26 6704.36)
(-248642 3807.4 6829.9)
(-249346 3923.11 6931.74)
(-250123 4043.6 6991.77)
(-250973 4172.63 6992.31)
(-251887 4309.7 6909.91)
(-252852 4451.91 6712.93)
(-253844 4596.02 6365.96)
(-254832 4738.33 5832.13)
(-255769 4873.99 5077.14)
(-256592 4997.65 4074.23)
(-257225 5104.41 2808.35)
(-257581 5190.61 1284.49)
(-257581 5255.85 -463.218)
(-257176 5301.24 -2360.36)
(-256333 5332.72 -4347.38)
(-255017 5360.29 -6388.32)
(-253091 5391.15 -8389.45)
(-250483 5421.69 -10118.2)
(-247376 5447.91 -11223.1)
(-244182 5460.42 -11517.3)
(-241269 5456.03 -11135.5)
(-238801 5435.66 -10341.3)
(-236810 5405.77 -9358)
(-235254 5373.12 -8354.89)
(-234059 5342.72 -7427.36)
(-233143 5316.62 -6618.05)
(-232438 5294.84 -5938.44)
(-231885 5276.05 -5380.57)
(-231436 5257.61 -4920.18)
(-231050 5233.81 -4537.24)
(-230697 5203.06 -4237.57)
(-230354 5167.18 -4013.27)
(-229995 5126.25 -3839.59)
(-229598 5083.79 -3696.48)
(-229146 5051.01 -3562.2)
(-228616 5034.27 -3417.83)
(-227978 5041.11 -3260.91)
(-227171 5090.76 -3072.82)
(-226160 5193.31 -2829.63)
(-225088 5348.39 -2503.59)
(-224417 5542.89 -2081.57)
(-224564 5771.51 -1562.22)
(-224329 5941.52 -863.52)
(-220718 5798.91 127.906)
(-212383 5273.82 403.666)
(-214068 5149.91 1562.39)
(-224011 6369.73 4525.92)
(-196174 15797.6 55275.4)
(-48651.9 8229.55 35114.7)
(-236778 -4952.61 -1740.02)
(-236091 -5025.44 -1392.92)
(-235798 -5023.6 -1169.07)
(-235503 -5056.69 -892.009)
(-235316 -5078.96 -591.586)
(-235196 -5110.12 -269.571)
(-235170 -5145.77 61.3301)
(-235252 -5184.62 387.368)
(-235449 -5226.25 690.246)
(-235772 -5272.85 939.544)
(-236230 -5324.63 1091.28)
(-236822 -5382.01 1091.11)
(-237530 -5444.92 875.68)
(-238314 -5513.14 382.948)
(-239095 -5587.92 -445.508)
(-239753 -5672.36 -1659.93)
(-240113 -5762.77 -3275.01)
(-240025 -5856.04 -5261.17)
(-239365 -5946.02 -7542.45)
(-238056 -6031.4 -10008.1)
(-235968 -6111.26 -12578.8)
(-232776 -6188.21 -15186.3)
(-228130 -6252.97 -17531.8)
(-222235 -6288.14 -18894.8)
(-216033 -6271.18 -18721.6)
(-210526 -6202.82 -17256.2)
(-206164 -6095.89 -15223.5)
(-203003 -5971.05 -13080.5)
(-200907 -5853.23 -11092.8)
(-199653 -5758.47 -9357.81)
(-199048 -5686.09 -7891.56)
(-198936 -5635.21 -6673.17)
(-199195 -5602.88 -5668.26)
(-199738 -5587.19 -4840.67)
(-200494 -5588.22 -4157.32)
(-201403 -5603.66 -3589.09)
(-202413 -5628.48 -3108.98)
(-203470 -5659.46 -2688.89)
(-204510 -5692.44 -2293.08)
(-205475 -5741.28 -1948.51)
(-206190 -5793.62 -1602.46)
(-206551 -5838.64 -1246.03)
(-206460 -5865.49 -878.01)
(-205766 -5862.03 -472.671)
(-204485 -5807.54 -8.4161)
(-202935 -5667.89 528.435)
(-201268 -5356.14 1178.83)
(-197927 -4732.7 1996.33)
(-189158 -3772.5 3372.44)
(-175639 -2756.11 7896.17)
(-172619 -1544.53 15337.8)
(-186159 4636.34 16741.1)
(-183546 37119.8 35615)
(-59579.5 16132.9 22779)
(-251868 5165.68 5936.96)
(-251952 5278.55 6294.45)
(-251943 5357.02 6474.39)
(-252014 5427.41 6723.78)
(-252108 5498.87 6971.97)
(-252236 5559.8 7231.58)
(-252399 5609.61 7500.17)
(-252607 5647.37 7762.18)
(-252867 5670.96 7997.77)
(-253189 5675.69 8179.75)
(-253579 5658.28 8269.62)
(-254041 5615.32 8218.73)
(-254569 5544.44 7970.27)
(-255143 5444.99 7465.74)
(-255724 5318.4 6652.51)
(-256256 5171.5 5491.38)
(-256659 5015.74 3967.42)
(-256836 4862.55 2102.42)
(-256711 4728.02 -33.0618)
(-256197 4625.45 -2362.61)
(-255157 4574.68 -4783.06)
(-253331 4572.9 -7250.35)
(-250443 4629.99 -9527.74)
(-246676 4755.22 -10997.9)
(-242790 4945.88 -11147.4)
(-239502 5167.6 -10166.8)
(-237024 5382.17 -8683.35)
(-235277 5565.39 -7081.74)
(-234089 5709.52 -5583.71)
(-233277 5821.39 -4268.56)
(-232690 5902.37 -3148.04)
(-232228 5957.25 -2203.59)
(-231827 5991.45 -1407.16)
(-231444 6008.24 -718.929)
(-231049 6004.51 -116.783)
(-230650 5992.48 414.632)
(-230228 5976.58 888.303)
(-229765 5956.2 1320.11)
(-229235 5931.04 1718.8)
(-228611 5897.82 2094.27)
(-227857 5857.07 2449.95)
(-226915 5814.79 2788.82)
(-225693 5768.73 3118.33)
(-224112 5712.65 3458.55)
(-222258 5640.2 3839.05)
(-220505 5547.86 4304.08)
(-219083 5468.15 4932.08)
(-216657 5469.04 5950.22)
(-209678 5593.17 7859.6)
(-198522 5984.17 10802)
(-197986 7289.73 13613.5)
(-208226 9716.99 7573.77)
(-205207 24856.8 1137.26)
(63274.2 6758.4 25350.7)
(-242634 -5151.29 -31.8079)
(-242656 -5209.91 511.184)
(-242735 -5206.2 857.842)
(-242877 -5226.42 1257.18)
(-243103 -5240.41 1670.64)
(-243422 -5256.36 2098.6)
(-243857 -5267.05 2524.79)
(-244429 -5274.03 2932.75)
(-245160 -5274.53 3292.62)