/*--------------------------------*- C++ -*----------------------------------*\
| =========                 |                                                 |
| \\      /  F ield         | OpenFOAM: The Open Source CFD Toolbox           |
|  \\    /   O peration     | Version:  4.1                                   |
|   \\  /    A nd           | Web:      www.OpenFOAM.org                      |
|    \\/     M anipulation  |                                                 |
\*---------------------------------------------------------------------------*/
FoamFile
{
    version     2.0;
    format      ascii;
    class       volScalarField;
    location    "1";
    object      k;
}
// * * * * * * * * * * * * * * * * * * * * * * * * * * * * * * * * * * * * * //

dimensions      [0 2 -2 0 0 0 0];

internalField   nonuniform List<scalar> 
4432
(
0.393092
0.40575
0.405136
0.40559
0.40405
0.407115
0.399987
0.415574
0.380558
0.458184
0.471815
0.44433
0.389263
0.468103
0.441925
0.388211
0.466278
0.413373
0.478911
0.440996
0.411706
0.419745
0.381939
0.457106
0.435757
0.386364
0.463673
0.475827
0.486725
0.422269
0.490452
0.423878
0.492742
0.501645
0.460254
0.393652
0.474322
0.485221
0.421576
0.489963
0.445596
0.419279
0.410411
0.406461
0.404606
0.403975
0.403327
0.404053
0.402457
0.406446
0.398261
0.419106
0.378056
0.478578
0.393252
0.405524
0.404787
0.405182
0.403643
0.406672
0.399633
0.415062
0.380445
0.457281
0.425309
0.423472
0.383298
0.459644
0.437259
0.38694
0.464425
0.412539
0.478323
0.440794
0.411668
0.419871
0.381929
0.457417
0.43599
0.386387
0.464119
0.476333
0.487285
0.422491
0.491026
0.42411
0.493346
0.502295
0.460689
0.393734
0.474837
0.445603
0.389161
0.468368
0.434141
0.414515
0.408331
0.405585
0.404283
0.403875
0.403381
0.404014
0.402648
0.406008
0.399052
0.417746
0.377524
0.476701
0.0438594
0.0375567
0.0374986
0.0374974
0.0374966
0.0374957
0.0374947
0.0374936
0.0374891
0.0378182
0.0381678
0.0381684
0.0378411
0.0378106
0.0378282
0.0378034
0.03783
0.0374747
0.0377988
0.0381493
0.0378357
0.0374762
0.0374707
0.0378014
0.0381563
0.0381625
0.0378392
0.0378078
0.0378341
0.0378114
0.038162
0.0381679
0.0378405
0.0378083
0.0378364
0.0378079
0.037837
0.0374806
0.0374767
0.0374716
0.0378048
0.0378369
0.0374774
0.0374739
0.0374739
0.037474
0.0374742
0.0374747
0.037478
0.0374817
0.0374835
0.037501
0.0375734
0.038219
0.043859
0.0375492
0.037491
0.03749
0.0374894
0.0374888
0.0374881
0.0374875
0.0374835
0.0378132
0.0381612
0.0381636
0.0378398
0.0378078
0.0378286
0.037803
0.0378306
0.0374746
0.0377991
0.0381495
0.0378361
0.0374762
0.0374737
0.037474
0.0374728
0.0378034
0.0378331
0.0378079
0.0378343
0.0378115
0.0381622
0.038168
0.0378407
0.0378085
0.0378366
0.037808
0.0378371
0.0374786
0.0374736
0.0378053
0.0381608
0.0378432
0.0374776
0.037474
0.037474
0.0374741
0.0374743
0.0374751
0.0374775
0.0374805
0.0374826
0.0375074
0.037575
0.0382201
0.0438592
0.037555
0.037497
0.0374959
0.0374952
0.0374944
0.0374934
0.0374921
0.0374877
0.0378156
0.0381641
0.0378486
0.0374857
0.0374752
0.037798
0.037826
0.0378012
0.0381464
0.0381534
0.0378362
0.0374743
0.0378005
0.0381525
0.0378356
0.037805
0.0378333
0.0374768
0.0374711
0.0378021
0.0381556
0.0378406
0.0374745
0.0378026
0.0378317
0.0378062
0.0381573
0.0381637
0.0378418
0.0374738
0.0378032
0.0378325
0.0378071
0.0378359
0.0374763
0.0374727
0.0374727
0.0374728
0.037473
0.0374748
0.0374759
0.0374731
0.0374717
0.0374665
0.0378157
0.0438588
0.0375473
0.0374894
0.0374885
0.0374881
0.0374876
0.0374869
0.037486
0.0374821
0.0378106
0.0381594
0.0378445
0.0374826
0.0374736
0.0377981
0.037826
0.0378013
0.0381465
0.0381539
0.0378361
0.0374746
0.0378007
0.0381527
0.0378358
0.0378053
0.0378341
0.0374771
0.0374712
0.0378023
0.0381558
0.0378408
0.0374746
0.0378027
0.0378319
0.0378064
0.0381574
0.0381639
0.0378419
0.0374743
0.0378037
0.0378326
0.0378072
0.037836
0.0374764
0.0374729
0.0374729
0.0374729
0.0374731
0.0374743
0.0374746
0.0374728
0.0374715
0.0374675
0.0378161
0.0438592
0.0375552
0.0374972
0.0374961
0.0374953
0.0374948
0.0374934
0.0374919
0.0374875
0.0378152
0.0378454
0.0374898
0.0374846
0.037479
0.0374743
0.0377973
0.0378255
0.0378011
0.0378262
0.0378028
0.0381503
0.0378372
0.0374769
0.0374703
0.0378014
0.0381559
0.0381614
0.0378387
0.0378052
0.0381552
0.0378386
0.0378061
0.037832
0.0378063
0.0381578
0.0381633
0.0381637
0.0381646
0.0378388
0.0378068
0.0378354
0.0374734
0.0378042
0.0378361
0.0374762
0.0374728
0.0374728
0.0374729
0.0374731
0.0374729
0.0374725
0.0374714
0.0374671
0.0378108
0.0438588
0.0375476
0.0374895
0.0374886
0.0374882
0.037488
0.0374868
0.0374859
0.0374821
0.0378104
0.0378409
0.0374859
0.0374805
0.0374782
0.0374725
0.0377974
0.0378255
0.0378014
0.0381475
0.0378329
0.0378037
0.0378318
0.037477
0.0374704
0.037802
0.0381557
0.0381627
0.0378391
0.0378054
0.0378349
0.0374758
0.0378028
0.0378321
0.0378065
0.0381579
0.0381635
0.0381638
0.0381647
0.0378393
0.0378069
0.0378356
0.0374735
0.0378043
0.0378363
0.0374764
0.0374729
0.0374729
0.037473
0.037473
0.0374729
0.0374725
0.0374716
0.0374679
0.0378111
0.0438594
0.0375556
0.0374975
0.0374963
0.0374955
0.0374947
0.0374933
0.0374889
0.0378171
0.0378473
0.037491
0.0374873
0.0374865
0.0374798
0.0378019
0.0381454
0.0378343
0.0374771
0.0374709
0.037799
0.0378307
0.0374765
0.0374733
0.0374702
0.0378017
0.0381563
0.0381615
0.0381626
0.0378416
0.0374735
0.0378025
0.0381568
0.0378407
0.0374748
0.0378031
0.0381577
0.0381636
0.038164
0.0381649
0.0378391
0.037807
0.0378327
0.0378076
0.0378362
0.0374763
0.0374728
0.0374728
0.0374729
0.0374729
0.0374728
0.0374723
0.0374714
0.0374675
0.0378091
0.0438589
0.0375478
0.0374897
0.0374888
0.0374882
0.0374878
0.0374868
0.0374828
0.0378117
0.0378425
0.0374865
0.0374829
0.0374824
0.0374768
0.0378002
0.0381456
0.0378342
0.0374774
0.037471
0.0377994
0.0378309
0.0374768
0.0374735
0.0374704
0.0378019
0.038156
0.038163
0.0381626
0.0378418
0.0374749
0.0378027
0.038157
0.0378411
0.0374749
0.0378031
0.0381578
0.0381637
0.0381641
0.0381651
0.0378392
0.0378071
0.0378328
0.0378078
0.0378363
0.0374764
0.0374729
0.0374729
0.0374729
0.0374729
0.0374728
0.0374724
0.0374716
0.0374682
0.0378093
0.0438594
0.0375559
0.0374978
0.0374965
0.0374929
0.037825
0.0378555
0.0374921
0.037817
0.0378465
0.0374904
0.0374871
0.0374846
0.0378097
0.0381518
0.0378365
0.0374748
0.0377974
0.0378282
0.0374743
0.0378008
0.0378283
0.0378049
0.0381554
0.037841
0.0374754
0.0378019
0.0378362
0.0374753
0.037801
0.0378323
0.0378066
0.0381568
0.0378408
0.0374748
0.0378033
0.038158
0.0381639
0.0381643
0.0378395
0.0378069
0.0378356
0.0374734
0.0378045
0.0378364
0.0374763
0.0374729
0.0374729
0.0374729
0.0374727
0.0374722
0.0374716
0.0374679
0.0378084
0.0438589
0.037548
0.0374899
0.0374889
0.0374856
0.0378181
0.037849
0.0374861
0.0378118
0.0378419
0.0374863
0.037483
0.0374806
0.0378052
0.0381506
0.0378348
0.037475
0.0377976
0.0378286
0.0374746
0.0378006
0.0378285
0.0378051
0.0381561
0.0378401
0.0374755
0.0378046
0.0378369
0.0374755
0.0378012
0.0378326
0.0378068
0.038157
0.037841
0.0374749
0.0378035
0.0381581
0.038164
0.0381644
0.0378396
0.037807
0.0378357
0.0374735
0.0378046
0.0378366
0.0374764
0.0374729
0.0374729
0.0374729
0.0374727
0.0374723
0.0374718
0.0374685
0.0378086
0.0438596
0.0375563
0.0374981
0.0374968
0.0374935
0.037825
0.0378554
0.037495
0.0374896
0.0374879
0.0374839
0.0378125
0.0378441
0.0374885
0.0378077
0.037828
0.0378005
0.0378247
0.0378017
0.0378271
0.0378038
0.0378289
0.0378052
0.0381574
0.0378432
0.0374806
0.0374765
0.0374763
0.0378008
0.0378357
0.0374813
0.0374727
0.0378032
0.0378319
0.0378077
0.0381561
0.0378392
0.0378062
0.0381579
0.0381653
0.0381653
0.0378419
0.0374734
0.0378045
0.0378364
0.0374763
0.0374729
0.0374729
0.0374728
0.0374726
0.0374722
0.0374716
0.0374681
0.037808
0.0438591
0.0375482
0.0374901
0.0374891
0.037486
0.037818
0.0378489
0.0374888
0.0374843
0.0374833
0.0374799
0.0378083
0.03784
0.037484
0.0378035
0.037826
0.0378006
0.0378248
0.0378021
0.0378301
0.0374769
0.0374709
0.0378021
0.0381581
0.0378423
0.0374809
0.0374728
0.0378039
0.0378329
0.0374798
0.0374781
0.0374729
0.0378035
0.0378321
0.0378079
0.0381563
0.0378394
0.0378064
0.038158
0.0381655
0.0381654
0.037842
0.0374735
0.0378046
0.0378365
0.0374764
0.037473
0.0374729
0.0374728
0.0374727
0.0374723
0.0374719
0.0374686
0.0378082
0.0438596
0.0375565
0.0374983
0.0374969
0.037496
0.0374948
0.0374932
0.0374883
0.0378161
0.0378459
0.0374895
0.0374844
0.037813
0.0378437
0.0374878
0.0378016
0.0378279
0.0374742
0.0377982
0.0381483
0.0378327
0.037806
0.0378306
0.0378076
0.0378358
0.0378087
0.0378349
0.0378076
0.0378347
0.0378069
0.0378348
0.0378064
0.0378348
0.0374751
0.037803
0.0378318
0.0378065
0.0381568
0.0381635
0.0381645
0.0381654
0.0381657
0.0378392
0.0378076
0.0378365
0.0374764
0.0374729
0.0374729
0.0374728
0.0374726
0.0374722
0.0374717
0.0374682
0.0378078
0.0438591
0.0375484
0.0374903
0.0374892
0.0374886
0.0374878
0.0374867
0.0374823
0.0378111
0.0378417
0.0374857
0.0374807
0.0378091
0.037839
0.037482
0.0378004
0.0378277
0.0374745
0.0377985
0.0381491
0.0378332
0.0378061
0.0378309
0.037808
0.0378361
0.037809
0.0378398
0.0374791
0.037801
0.0381556
0.0378411
0.0378067
0.037835
0.0374753
0.0378031
0.0378319
0.0378067
0.0381569
0.0381637
0.0381646
0.0381655
0.0381659
0.0378393
0.0378077
0.0378366
0.0374764
0.037473
0.0374729
0.0374728
0.0374726
0.0374723
0.0374719
0.0374687
0.0378079
0.0438597
0.0375569
0.0374986
0.0374972
0.0374961
0.0374946
0.0374929
0.0374879
0.0378161
0.0378452
0.0374895
0.0374872
0.0374865
0.0378141
0.0378402
0.0378089
0.0381434
0.0381489
0.0381505
0.0381532
0.0381554
0.0378365
0.0378069
0.0378324
0.0378122
0.03784
0.0378126
0.0381637
0.0378471
0.0378087
0.0378389
0.0374771
0.0378028
0.0378341
0.0374765
0.0374712
0.0378032
0.0381566
0.0381635
0.0381646
0.038165
0.0381657
0.0378393
0.0378076
0.0378365
0.0374764
0.037473
0.0374729
0.0374728
0.0374726
0.0374722
0.0374717
0.0374683
0.0378076
0.0438592
0.0375486
0.0374904
0.0374893
0.0374886
0.0374876
0.0374864
0.0374821
0.0378111
0.037841
0.0374858
0.0374834
0.037482
0.0378088
0.0378344
0.0378049
0.0381433
0.0381492
0.0381508
0.0381539
0.0378329
0.0378072
0.0381582
0.037839
0.0378102
0.0378425
0.0374875
0.0374777
0.0374762
0.0378058
0.0381555
0.037838
0.0378065
0.0378344
0.0374784
0.0374715
0.0378023
0.0381565
0.0381636
0.0381647
0.0381651
0.0381658
0.0378394
0.0378077
0.0378366
0.0374765
0.037473
0.0374729
0.0374728
0.0374726
0.0374724
0.037472
0.0374688
0.0378078
0.0438597
0.037557
0.0374987
0.0374972
0.037496
0.0374945
0.0374926
0.0374904
0.0374884
0.0374862
0.0374855
0.0374842
0.037813
0.0378474
0.0374909
0.037809
0.0381446
0.0381483
0.0378296
0.037803
0.0378277
0.037806
0.0378296
0.0378098
0.0378386
0.037813
0.0378579
0.0374815
0.0378043
0.0381544
0.0381633
0.0378398
0.0374762
0.0378045
0.0381536
0.0378359
0.0378075
0.0381567
0.0381643
0.0381645
0.0381649
0.0381655
0.0378393
0.0378076
0.0378363
0.0374764
0.037473
0.0374729
0.0374728
0.0374726
0.0374722
0.0374718
0.0374684
0.0378075
0.0438592
0.0375487
0.0374905
0.0374893
0.0374886
0.0374875
0.0374862
0.0374848
0.0374836
0.0374822
0.0374821
0.0374807
0.0378087
0.0378415
0.0374849
0.0378033
0.0381441
0.0381483
0.0378302
0.0378023
0.037828
0.0378067
0.0378301
0.0378107
0.0378394
0.0378136
0.0378583
0.0378053
0.0378418
0.0378081
0.0381541
0.0378399
0.0374765
0.0378049
0.0381552
0.0378361
0.0378055
0.0381566
0.0381644
0.0381646
0.038165
0.0381656
0.0378394
0.0378077
0.0378364
0.0374765
0.037473
0.0374729
0.0374728
0.0374726
0.0374724
0.037472
0.0374688
0.0378077
0.0438598
0.0375571
0.0374988
0.0374973
0.037496
0.0374944
0.0374925
0.0374904
0.0374879
0.0374858
0.0374821
0.0378122
0.0381642
0.0378536
0.0374947
0.0374853
0.0378018
0.0378238
0.0377998
0.0381461
0.0378327
0.0378048
0.0378305
0.0378126
0.0378414
0.0378262
0.0378668
0.0374904
0.037798
0.0378318
0.0378063
0.0378294
0.0378052
0.0381535
0.0381592
0.0378398
0.0374759
0.0378023
0.0381578
0.0381646
0.0381655
0.0378419
0.0374734
0.0378044
0.0381612
0.0378433
0.0374766
0.037473
0.0374728
0.0374726
0.0374722
0.0374718
0.0374684
0.0378075
0.0438592
0.0375487
0.0374905
0.0374893
0.0374884
0.0374874
0.0374861
0.0374847
0.037483
0.0374819
0.0374787
0.0378087
0.0381598
0.0378481
0.0374887
0.0374803
0.0377994
0.0381417
0.0381485
0.0381516
0.0378336
0.0378052
0.037836
0.0378161
0.0378453
0.0378227
0.0378725
0.037494
0.0378054
0.0381531
0.0378456
0.0374778
0.0378022
0.0381537
0.038161
0.0378402
0.0374749
0.0378024
0.0381579
0.0381647
0.0381656
0.037842
0.0374735
0.0378045
0.038161
0.0378431
0.0374766
0.037473
0.0374728
0.0374726
0.0374724
0.037472
0.0374688
0.0378076
0.0438598
0.0375571
0.0374988
0.0374972
0.0374958
0.0374942
0.0374923
0.0374902
0.0374875
0.0374854
0.0374817
0.037812
0.0381638
0.037851
0.037819
0.0378424
0.037488
0.037472
0.037796
0.038143
0.0378323
0.0374722
0.0378069
0.0381832
0.0381978
0.0378942
0.0378383
0.0381624
0.0381588
0.0378356
0.0377995
0.0381482
0.0381537
0.0378353
0.0378055
0.0378344
0.0374755
0.0378022
0.0381568
0.0381644
0.0381652
0.0378386
0.0378072
0.0378365
0.0374764
0.037473
0.037473
0.037473
0.0374728
0.0374726
0.0374722
0.0374718
0.0374684
0.0378074
0.0438592
0.0375487
0.0374905
0.0374893
0.0374884
0.0374873
0.037486
0.0374847
0.0374828
0.0374817
0.0374785
0.0378088
0.0381602
0.0381663
0.0378471
0.0374873
0.0374776
0.0377962
0.0378232
0.0378011
0.0378292
0.0374792
0.0378116
0.0381875
0.0378559
0.037843
0.0378603
0.0378085
0.0381397
0.0378372
0.0374837
0.0378015
0.038148
0.0378354
0.0378058
0.0378344
0.0374757
0.0378023
0.0381569
0.0381646
0.0381653
0.0378387
0.0378073
0.0378367
0.0374765
0.037473
0.037473
0.037473
0.0374728
0.0374726
0.0374724
0.037472
0.0374689
0.0378076
0.0438597
0.0375571
0.0374958
0.0378297
0.0378585
0.0378279
0.0381768
0.0378573
0.0374912
0.0374854
0.0374847
0.0374836
0.0378134
0.0378453
0.0378205
0.037842
0.0378107
0.0381429
0.0381455
0.0378317
0.0374771
0.0378068
0.038177
0.0378688
0.0378406
0.038225
0.0378717
0.0378168
0.0381412
0.0378307
0.0374812
0.0374736
0.0378007
0.0378301
0.037805
0.0378328
0.0374753
0.0378019
0.0378313
0.0378061
0.038158
0.0378418
0.0374738
0.0378043
0.0378365
0.0374735
0.0378047
0.0378371
0.0374764
0.0374726
0.0374722
0.0374718
0.0374684
0.0378074
0.0438592
0.0375487
0.0374874
0.0378218
0.037851
0.0378209
0.0381705
0.0378517
0.0374865
0.0374816
0.0374815
0.0374802
0.0378097
0.0381602
0.0381641
0.0378446
0.0374823
0.0377968
0.0378256
0.0374755
0.0377998
0.0378324
0.0374915
0.0378424
0.0382221
0.0379281
0.0375202
0.0377861
0.0381239
0.0378313
0.0374868
0.0374742
0.0378011
0.0378305
0.0378038
0.03783
0.0378058
0.0381557
0.0378378
0.0378063
0.0381582
0.037842
0.0374739
0.0378044
0.0378365
0.0374736
0.0378047
0.0378371
0.0374764
0.0374727
0.0374724
0.037472
0.0374689
0.0378076
0.0438568
0.0378916
0.0378677
0.0375007
0.0374928
0.0378241
0.0381766
0.0378543
0.0378187
0.038165
0.0378491
0.0374862
0.0378139
0.0378451
0.0378209
0.0378433
0.0378127
0.0378327
0.0374757
0.0377952
0.0381436
0.0378486
0.0374034
0.0373242
0.03821
0.0381872
0.038264
0.038111
0.0381011
0.0378243
0.0378003
0.0378228
0.0378031
0.0381492
0.0378373
0.0374775
0.0374739
0.0374737
0.0374711
0.037803
0.0378348
0.0374769
0.0374703
0.0378043
0.0378335
0.0378081
0.0378373
0.0374765
0.0374729
0.0374726
0.0374723
0.0374718
0.0374684
0.0378074
0.0438592
0.0375485
0.0374905
0.0374893
0.0374853
0.0378174
0.0381705
0.037849
0.037814
0.0378406
0.0374848
0.0374796
0.0378098
0.0381602
0.0378488
0.0374871
0.0378036
0.0378293
0.0374757
0.0377954
0.0378231
0.0378007
0.0378703
0.0379971
0.0382256
0.0381732
0.0383117
0.0377853
0.0377986
0.0378237
0.0378014
0.0378234
0.0378036
0.0381495
0.0378376
0.0374778
0.0374705
0.0378017
0.0378317
0.0378066
0.0378349
0.0374771
0.0374705
0.0378044
0.0378335
0.0378082
0.0378373
0.0374765
0.0374729
0.0374727
0.0374724
0.0374721
0.0374689
0.0378076
0.0438597
0.037557
0.0374959
0.0378294
0.0378582
0.0378279
0.038177
0.0378574
0.0374881
0.0378127
0.0378406
0.0378154
0.0378438
0.03782
0.0381663
0.0378531
0.0374939
0.0374836
0.0374737
0.0377931
0.0378272
0.0376197
0.0380295
0.0393096
0.0404026
0.0384786
0.0378036
0.0374888
0.0377747
0.0378067
0.0374729
0.0377952
0.0381434
0.0378352
0.0374783
0.0374741
0.0374707
0.0378021
0.038156
0.0378375
0.0378067
0.0378324
0.0378073
0.0378333
0.0378077
0.0381615
0.038168
0.0378435
0.0374735
0.037805
0.0378344
0.0378093
0.0381669
0.0381753
0.044128
0.0379739
0.0374921
0.0378218
0.0381788
0.0378547
0.0378187
0.0378457
0.0374835
0.0378085
0.0378403
0.0374863
0.0374827
0.0378113
0.0378435
0.0374876
0.0378051
0.0378306
0.0374769
0.0377933
0.0378273
0.0378283
0.0383705
0.0375047
0.0428524
0.0380669
0.0377347
0.0377257
0.0377941
0.0378057
0.037795
0.0381374
0.0381492
0.038154
0.0381573
0.0378384
0.0374743
0.0378019
0.0378315
0.0378067
0.0378321
0.0378073
0.0378329
0.0378078
0.0378336
0.037808
0.0378341
0.0378083
0.0378342
0.0378086
0.0381642
0.0378445
0.0374728
0.0378075
0.0441256
0.0383094
0.0378752
0.0375001
0.0374921
0.0378241
0.0381765
0.0378541
0.0378182
0.0378448
0.0374883
0.0374835
0.0378142
0.0378466
0.0378204
0.0378452
0.0378146
0.0381493
0.0378319
0.0374752
0.0378002
0.0381642
0.0384972
0.0410683
0.0380019
0.0377918
0.0377561
0.0377789
0.0377966
0.0377954
0.0381385
0.0378285
0.0378027
0.0378278
0.0378041
0.0381537
0.037839
0.0374737
0.0378027
0.0378316
0.0378065
0.0378327
0.0378072
0.0378364
0.0374736
0.0378044
0.0381616
0.0378433
0.0374732
0.0378053
0.0378346
0.0378102
0.038169
0.0438532
0.0378835
0.0381867
0.0378592
0.0378232
0.0381748
0.0378543
0.0374876
0.0374827
0.0374788
0.0378081
0.037841
0.0374886
0.0374879
0.0374894
0.0374852
0.0378056
0.0381443
0.0378289
0.0377965
0.03784
0.0377196
0.0391037
0.0427744
0.0393473
0.0380892
0.0378011
0.0374948
0.0377888
0.0378167
0.0374764
0.0377976
0.0378263
0.0378035
0.0378316
0.0374744
0.0378021
0.037834
0.0374741
0.0378031
0.0381586
0.0381654
0.0378423
0.0374766
0.0374731
0.0374731
0.037473
0.0374729
0.0374726
0.0374726
0.037469
0.037807
0.0381687
0.0438565
0.0378911
0.0378643
0.0378333
0.0378606
0.0374971
0.0374888
0.0378183
0.0378449
0.037816
0.0381639
0.0378479
0.0378183
0.0378469
0.0378211
0.0378463
0.0378147
0.0381487
0.0381463
0.0378306
0.0377965
0.0378307
0.0374241
0.0382054
0.0375647
0.0381841
0.0379804
0.0378155
0.0378017
0.0374815
0.0377985
0.0378214
0.0378017
0.0378261
0.0378032
0.0378289
0.0378046
0.0381546
0.0378367
0.0378062
0.0378316
0.0378066
0.0381591
0.0381663
0.0378398
0.0378078
0.0378368
0.0374765
0.0374729
0.0374725
0.0374722
0.0374717
0.0374684
0.0378075
0.043856
0.037883
0.0378562
0.0378256
0.0378533
0.0374904
0.0374827
0.0378129
0.0378404
0.0378122
0.0381604
0.0378473
0.0374889
0.037485
0.0378115
0.0378392
0.0378087
0.0381436
0.037833
0.0374787
0.0377952
0.0378331
0.0376069
0.0389284
0.0390526
0.0377657
0.0380204
0.0381868
0.0381309
0.0378229
0.0377994
0.0378242
0.0374781
0.0374708
0.0378004
0.037829
0.0378047
0.0378333
0.0374738
0.0378027
0.0378319
0.0378067
0.0381592
0.0381665
0.0378428
0.0374766
0.0374731
0.037473
0.0374729
0.0374727
0.0374724
0.037472
0.0374688
0.0378077
0.0438595
0.0375559
0.0374946
0.037829
0.0378575
0.0378273
0.0381769
0.0381788
0.0378512
0.0378161
0.037844
0.0374871
0.0378141
0.0381667
0.0381713
0.0378511
0.0378132
0.0381464
0.0378334
0.0374808
0.0378005
0.0378325
0.0374838
0.0378394
0.0378579
0.037853
0.0378821
0.0378146
0.0378208
0.0378097
0.0378309
0.0374745
0.0377988
0.0378269
0.0378032
0.0378287
0.0378047
0.0378332
0.0374737
0.0378024
0.0378344
0.0374765
0.03747
0.0378037
0.0378363
0.0374765
0.0374731
0.037473
0.0374728
0.0374725
0.0374722
0.0374717
0.0374683
0.0378076
0.043859
0.0375478
0.0374866
0.0378215
0.0378504
0.0378207
0.0381709
0.0381736
0.0378467
0.0378124
0.0378408
0.0374838
0.0378099
0.0378415
0.0378136
0.0378386
0.0378083
0.0381433
0.0378306
0.0378009
0.0378276
0.0378
0.0381562
0.0378515
0.0378435
0.0379194
0.0378562
0.0381742
0.0378375
0.037813
0.0378285
0.0374775
0.0377995
0.0378301
0.0374744
0.037801
0.0381538
0.0381607
0.0378368
0.037806
0.0378346
0.0374766
0.0374701
0.0378038
0.0378364
0.0374766
0.0374731
0.037473
0.0374729
0.0374726
0.0374724
0.037472
0.0374688
0.0378078
0.0438594
0.0375555
0.0374973
0.0374927
0.0378262
0.0378572
0.0374918
0.0378182
0.0381695
0.0381726
0.038171
0.0381707
0.0378533
0.0374958
0.0374912
0.0378142
0.0381549
0.03784
0.0374777
0.037803
0.0381487
0.037834
0.0378075
0.0381792
0.0378524
0.0374789
0.0378415
0.0381751
0.0378419
0.0378064
0.038151
0.0378345
0.0374754
0.037801
0.038151
0.0381586
0.0378388
0.0374768
0.0374732
0.0374732
0.037473
0.03747
0.0378035
0.0378357
0.0374766
0.0374731
0.0374731
0.037473
0.0374728
0.0374725
0.0374721
0.0374717
0.0374683
0.0378077
0.0438589
0.0375477
0.0374895
0.0374852
0.0378192
0.0378506
0.0374858
0.0378129
0.038165
0.0381688
0.0381676
0.0381672
0.0378488
0.037491
0.0374847
0.037808
0.0381495
0.0378369
0.0374776
0.0378001
0.0378324
0.0378095
0.0378336
0.037816
0.0378471
0.0374874
0.0378155
0.0381558
0.0381721
0.0378392
0.0378089
0.037831
0.0374758
0.0378013
0.0381514
0.0381588
0.0378389
0.037477
0.0374733
0.0374733
0.0374732
0.0374731
0.0374731
0.037473
0.0374732
0.0374731
0.0374731
0.037473
0.0374729
0.0374726
0.0374723
0.037472
0.0374688
0.0378078
0.0438594
0.0375553
0.037497
0.0374924
0.037826
0.0378543
0.0378241
0.0381729
0.0381757
0.0381727
0.038171
0.0378511
0.0374896
0.0378163
0.0378485
0.0374905
0.0378062
0.0378317
0.0378023
0.0378302
0.0374762
0.0374784
0.0378037
0.0381663
0.0378474
0.0374843
0.0374893
0.0378004
0.0378388
0.0378061
0.0381514
0.0378347
0.0378041
0.0381523
0.0378354
0.0378049
0.0381542
0.0378392
0.0374766
0.0374731
0.037473
0.037473
0.0374729
0.03747
0.0378042
0.0378367
0.0374766
0.037473
0.0374728
0.0374725
0.0374721
0.0374716
0.0374683
0.0378078
0.0438589
0.0375474
0.0374892
0.0374851
0.0378191
0.0378478
0.0378183
0.0381678
0.0381713
0.038169
0.0381678
0.0378477
0.0374854
0.0378109
0.0378418
0.0374851
0.0378025
0.0378299
0.0378024
0.0378304
0.0374807
0.0374793
0.0378109
0.0381697
0.0378503
0.0374765
0.0374859
0.0378002
0.0378394
0.0378071
0.038152
0.0378351
0.0378045
0.0381526
0.0378356
0.0378051
0.0381545
0.0378394
0.0374768
0.0374733
0.0374732
0.0374731
0.037473
0.0374701
0.0378042
0.0378365
0.0374766
0.037473
0.0374729
0.0374726
0.0374723
0.037472
0.0374688
0.0378079
0.0438592
0.0375549
0.0374967
0.0374922
0.0378257
0.0378541
0.0378243
0.0381733
0.0381758
0.0381732
0.0381714
0.0378485
0.0378179
0.0378484
0.0374921
0.0378118
0.0378387
0.0374826
0.0378001
0.0381456
0.0381525
0.0378354
0.0378059
0.038161
0.0378449
0.037473
0.0378048
0.0381637
0.0378434
0.0378079
0.0381498
0.038158
0.0378356
0.0378055
0.0381532
0.0378364
0.0378049
0.0378331
0.0374767
0.0374731
0.037473
0.037473
0.0374729
0.0374729
0.0374729
0.037473
0.0374731
0.037473
0.0374728
0.0374725
0.0374721
0.0374716
0.0374682
0.0378079
0.0438587
0.0375473
0.0374891
0.0374849
0.0378188
0.0378476
0.0378184
0.038168
0.0381713
0.0381693
0.038168
0.0378449
0.0378134
0.0378425
0.0374856
0.0378066
0.0378348
0.0374783
0.0377999
0.0381458
0.0381528
0.0378363
0.0378065
0.0381653
0.0378467
0.0374767
0.0378059
0.038164
0.0378436
0.0378082
0.038153
0.0381588
0.0378359
0.0378058
0.0381534
0.0378366
0.0378055
0.0378332
0.0374768
0.0374733
0.0374732
0.0374731
0.0374731
0.037473
0.037473
0.0374731
0.0374731
0.037473
0.0374729
0.0374726
0.0374723
0.0374719
0.0374688
0.037808
0.0438592
0.0375547
0.0374964
0.0374919
0.0378254
0.0378538
0.037824
0.0381731
0.0381756
0.0381732
0.0381714
0.0378509
0.0374887
0.0378146
0.0378451
0.0374869
0.0378058
0.0378345
0.0374802
0.0374736
0.0378022
0.0378298
0.0374744
0.0378052
0.0378368
0.0374732
0.0378034
0.0381676
0.0381697
0.0381623
0.0378383
0.0374789
0.0374723
0.0378022
0.0378294
0.0378048
0.0381548
0.0378395
0.0374767
0.0374732
0.037473
0.037473
0.0374729
0.0374729
0.0374729
0.037473
0.037473
0.037473
0.0374728
0.0374725
0.037472
0.0374716
0.0374682
0.037808
0.0438588
0.0375469
0.0374888
0.0374847
0.0378187
0.0378475
0.0378183
0.038168
0.0381712
0.0381695
0.0381681
0.0378475
0.0374845
0.0378097
0.03784
0.0374827
0.0378032
0.0378317
0.0374802
0.0374737
0.0378024
0.03783
0.0374752
0.0378043
0.0378341
0.0378111
0.0378353
0.0378147
0.0381603
0.0378393
0.0378066
0.0378336
0.0374759
0.0378025
0.0378301
0.037805
0.0381552
0.0378396
0.0374769
0.0374733
0.0374732
0.0374731
0.0374731
0.037473
0.037473
0.0374731
0.0374731
0.037473
0.0374728
0.0374726
0.0374723
0.0374719
0.0374687
0.0378082
0.043859
0.0375541
0.037496
0.0374915
0.0378252
0.0378566
0.037491
0.0378177
0.0381699
0.0381734
0.0378508
0.0374893
0.0374847
0.0378137
0.0378415
0.037813
0.0378377
0.0374849
0.0374772
0.0374756
0.0378024
0.0378322
0.0374771
0.0378043
0.0381595
0.0378424
0.0374737
0.037808
0.0378377
0.0378072
0.03783
0.0378057
0.0378304
0.037805
0.0378331
0.037474
0.0378019
0.0378334
0.0374767
0.0374732
0.0374731
0.037473
0.0374729
0.0374731
0.037473
0.037473
0.037473
0.037473
0.0374728
0.0374724
0.037472
0.0374715
0.0374681
0.0378082
0.0438586
0.0375468
0.0374886
0.0374845
0.0378185
0.0378503
0.0374852
0.0378125
0.0381654
0.0381697
0.0378474
0.0374857
0.0374804
0.0378088
0.0378393
0.037482
0.0378034
0.0378344
0.0374793
0.0374756
0.0378025
0.0378327
0.0374772
0.0378035
0.0381597
0.0378424
0.0374761
0.0378083
0.0378343
0.0378074
0.03783
0.0378059
0.0378306
0.0378052
0.0378337
0.0374745
0.037802
0.0378335
0.0374768
0.0374734
0.0374733
0.0374731
0.0374731
0.0374733
0.0374731
0.0374731
0.0374731
0.037473
0.0374728
0.0374726
0.0374723
0.0374719
0.0374687
0.0378084
0.0438591
0.0375538
0.0374956
0.0374911
0.0378248
0.0378562
0.0374906
0.0378175
0.0378455
0.0378162
0.0378413
0.0378153
0.0381646
0.037848
0.0378144
0.0378371
0.037809
0.0381536
0.0378399
0.0374794
0.0374726
0.0378041
0.0381547
0.0378371
0.0378064
0.0378349
0.0374751
0.0378044
0.0381593
0.0378399
0.0374787
0.037472
0.037802
0.0378304
0.0378057
0.0378334
0.0374768
0.0374734
0.0374703
0.0378025
0.0378342
0.0374765
0.0374701
0.0378037
0.0378359
0.0374765
0.0374731
0.037473
0.0374728
0.0374725
0.037472
0.0374715
0.037468
0.0378085
0.0438586
0.0375463
0.0374882
0.0374841
0.0378182
0.0378501
0.037485
0.0378125
0.0378412
0.0378126
0.0378381
0.0378119
0.0381608
0.0378437
0.0378102
0.0378336
0.0378069
0.0381511
0.037839
0.0374794
0.0374727
0.0378042
0.0381553
0.0381618
0.037841
0.0374768
0.0374724
0.0378044
0.0381594
0.0378399
0.0374787
0.0374721
0.0378022
0.0378305
0.0378057
0.0378336
0.0374769
0.0374735
0.0374704
0.0378027
0.0378344
0.0374766
0.0374702
0.0378038
0.037836
0.0374766
0.0374731
0.037473
0.0374729
0.0374726
0.0374723
0.0374719
0.0374686
0.0378087
0.0438588
0.037553
0.0374949
0.0374935
0.0374894
0.0378221
0.0378501
0.0378209
0.0378449
0.0378165
0.0381647
0.0378475
0.0378155
0.037841
0.0378135
0.0378375
0.0378095
0.0378336
0.0378067
0.0378284
0.0378044
0.0381526
0.0381587
0.0381616
0.0378398
0.0374769
0.0374752
0.0374716
0.0378043
0.0378308
0.0378067
0.0381549
0.0378397
0.0374752
0.0378022
0.0378306
0.0378052
0.0378337
0.0374738
0.0378024
0.0378345
0.0374765
0.0374701
0.0378035
0.0378358
0.0374765
0.037473
0.037473
0.0374728
0.0374725
0.0374721
0.0374715
0.0374679
0.037809
0.0438584
0.0375461
0.0374879
0.0374868
0.037483
0.0378161
0.0378447
0.0378156
0.0378407
0.0378129
0.0381615
0.0378441
0.0378118
0.0378368
0.0378095
0.0378341
0.0378069
0.0378311
0.037805
0.0378281
0.0378044
0.0381529
0.0381589
0.0381611
0.0378402
0.0374769
0.0374742
0.0374717
0.0378044
0.0378309
0.0378059
0.0381549
0.0378398
0.0374753
0.0378023
0.0378304
0.0378053
0.0378338
0.037474
0.0378025
0.0378346
0.0374766
0.0374702
0.0378037
0.0378359
0.0374766
0.0374731
0.037473
0.0374729
0.0374727
0.0374723
0.0374719
0.0374684
0.0378092
0.0438588
0.0375526
0.0374944
0.037493
0.0374889
0.0378216
0.0378526
0.0374883
0.0378142
0.0378421
0.0378148
0.0381637
0.038169
0.0378488
0.0374844
0.0378072
0.0381554
0.0378389
0.0378056
0.03815
0.0378373
0.0374751
0.0378009
0.0378301
0.0378056
0.037831
0.0378062
0.0378328
0.0378069
0.0378317
0.0378063
0.0378337
0.0374747
0.0378023
0.0381549
0.0378394
0.037477
0.0374705
0.0378021
0.0378312
0.0378061
0.0378348
0.0374764
0.0374729
0.0374729
0.037473
0.037473
0.037473
0.0374729
0.0374726
0.0374722
0.0374714
0.0374678
0.0378097
0.0438583
0.0375455
0.0374874
0.0374864
0.0374827
0.0378158
0.0378473
0.0374832
0.0378102
0.0378387
0.0378117
0.0381606
0.0381655
0.0378452
0.037481
0.0378044
0.0378323
0.0378063
0.0381503
0.0381556
0.0378374
0.0374752
0.0378012
0.0378303
0.0378057
0.037831
0.0378059
0.0378321
0.0378068
0.0378345
0.037475
0.0378018
0.0378308
0.0378058
0.0381551
0.0378395
0.0374771
0.0374706
0.0378023
0.0378342
0.0374767
0.0374732
0.0374731
0.037473
0.037473
0.0374731
0.0374731
0.037473
0.0374729
0.0374727
0.0374724
0.0374718
0.0374686
0.0378098
0.0438584
0.0375517
0.0374936
0.0374923
0.0374912
0.037487
0.0378188
0.0378464
0.0378172
0.0378448
0.0374841
0.0378105
0.0381623
0.0381672
0.0378438
0.0378104
0.0378347
0.0378086
0.038153
0.0381561
0.0378378
0.0374757
0.0378014
0.0381544
0.0378395
0.037474
0.0378022
0.0381558
0.0381624
0.038162
0.0381609
0.0381607
0.0378365
0.0378052
0.037833
0.037477
0.0374705
0.0378022
0.0378339
0.0374767
0.0374731
0.037473
0.0374729
0.0374729
0.0374729
0.0374729
0.037473
0.037473
0.0374729
0.0374728
0.0374724
0.0374719
0.0374671
0.0378111
0.0438581
0.0375451
0.037487
0.0374859
0.0374853
0.0374814
0.0378137
0.0378419
0.0378133
0.0378415
0.0374811
0.0378076
0.0381591
0.0381639
0.0378406
0.0378077
0.0381529
0.0378372
0.0378047
0.0381492
0.0378377
0.0374751
0.0378015
0.0381546
0.0378396
0.0374741
0.0378019
0.0378309
0.0378062
0.0381559
0.0381609
0.0381608
0.0378366
0.0378053
0.0378331
0.0374771
0.0374706
0.0378023
0.037834
0.0374768
0.0374732
0.0374731
0.0374731
0.037473
0.037473
0.0374731
0.0374731
0.0374731
0.037473
0.0374729
0.0374726
0.0374724
0.0374672
0.0378117
0.0438584
0.0375515
0.0374933
0.037492
0.0374909
0.0374897
0.0374852
0.0378161
0.0378465
0.0374847
0.0378105
0.0378394
0.0378128
0.0381603
0.0381646
0.038163
0.0378404
0.0378076
0.0378315
0.0378032
0.0378282
0.0378038
0.0378293
0.0378044
0.03783
0.0378052
0.0378311
0.0378052
0.0378311
0.0378054
0.0378334
0.0374772
0.0374736
0.0374736
0.0374735
0.0374705
0.0378019
0.0378308
0.0378057
0.0378342
0.0374766
0.037473
0.0374729
0.0374729
0.0374729