/*--------------------------------*- C++ -*----------------------------------*\
| =========                 |                                                 |
| \\      /  F ield         | OpenFOAM: The Open Source CFD Toolbox           |
|  \\    /   O peration     | Version:  4.1                                   |
|   \\  /    A nd           | Web:      www.OpenFOAM.org                      |
|    \\/     M anipulation  |                                                 |
\*---------------------------------------------------------------------------*/
FoamFile
{
    version     2.0;
    format      ascii;
    class       volScalarField;
    location    "1";
    object      nut;
}
// * * * * * * * * * * * * * * * * * * * * * * * * * * * * * * * * * * * * * //

dimensions      [0 2 -1 0 0 0 0];

internalField   nonuniform List<scalar> 
4432
(
37.777
40.249
40.1273
40.2172
39.9123
40.5204
39.1135
42.2215
35.4064
51.3243
54.4241
48.2682
37.0461
53.5725
47.7492
36.8479
53.1595
41.7817
56.0823
47.5557
41.4496
43.0854
35.6742
51.0983
46.4367
36.5057
52.5754
55.3663
57.9296
43.6007
58.8158
43.931
59.3629
61.5263
51.791
37.8861
55.0041
57.5608
43.4506
58.6904
48.5423
42.9777
41.1791
40.3901
40.0223
39.8976
39.7696
39.913
39.5983
40.3872
38.7769
42.9423
34.9422
55.9943
37.8076
40.2041
40.0581
40.1363
39.832
40.4323
39.0444
42.1175
35.3854
51.1223
44.224
43.8429
35.9192
51.6538
46.7461
36.607
52.7379
41.6131
55.9446
47.5122
41.442
43.1113
35.6724
51.1677
46.4864
36.5101
52.6766
55.4839
58.063
43.6467
58.9537
43.9791
59.5086
61.6859
51.8891
37.902
55.1236
48.545
37.0256
53.6309
46.0786
42.0066
40.7628
40.2162
39.9584
39.8778
39.7803
39.9052
39.636
40.3002
38.9311
42.6641
34.8439
55.5557
0.000115506
8.54533e-05
8.51896e-05
8.51842e-05
8.51808e-05
8.51374e-05
8.51327e-05
8.51677e-05
8.51082e-05
8.65698e-05
8.82181e-05
8.82215e-05
8.67157e-05
8.66156e-05
8.66968e-05
8.6583e-05
8.67047e-05
8.50841e-05
8.65621e-05
8.81747e-05
8.67311e-05
8.50515e-05
8.50264e-05
8.65341e-05
8.81664e-05
8.81951e-05
8.66669e-05
8.65232e-05
8.66435e-05
8.65395e-05
8.81521e-05
8.81792e-05
8.6673e-05
8.65256e-05
8.66542e-05
8.65233e-05
8.66966e-05
8.50711e-05
8.50532e-05
8.50698e-05
8.65492e-05
8.66961e-05
8.50568e-05
8.50407e-05
8.50802e-05
8.50807e-05
8.50818e-05
8.50837e-05
8.50986e-05
8.5115e-05
8.51238e-05
8.52034e-05
8.55341e-05
8.84565e-05
0.000115504
8.542e-05
8.51558e-05
8.51513e-05
8.5149e-05
8.5107e-05
8.51037e-05
8.51405e-05
8.50833e-05
8.65471e-05
8.8188e-05
8.82e-05
8.67096e-05
8.6603e-05
8.66985e-05
8.65813e-05
8.67078e-05
8.50833e-05
8.65634e-05
8.81758e-05
8.67329e-05
8.50516e-05
8.50399e-05
8.50418e-05
8.5036e-05
8.65433e-05
8.66393e-05
8.65238e-05
8.66444e-05
8.65404e-05
8.8153e-05
8.81798e-05
8.66737e-05
8.65262e-05
8.66548e-05
8.65238e-05
8.66972e-05
8.5062e-05
8.50392e-05
8.65918e-05
8.81871e-05
8.67252e-05
8.50575e-05
8.50412e-05
8.50807e-05
8.50812e-05
8.50821e-05
8.50855e-05
8.50965e-05
8.51098e-05
8.51196e-05
8.52325e-05
8.55414e-05
8.84616e-05
0.000115505
8.54455e-05
8.51823e-05
8.51775e-05
8.51745e-05
8.51709e-05
8.51665e-05
8.51609e-05
8.5141e-05
8.65976e-05
8.81606e-05
8.67491e-05
8.51327e-05
8.50471e-05
8.64796e-05
8.6647e-05
8.65334e-05
8.81211e-05
8.81939e-05
8.67331e-05
8.5043e-05
8.64903e-05
8.81087e-05
8.66907e-05
8.65503e-05
8.668e-05
8.50934e-05
8.50282e-05
8.64971e-05
8.81629e-05
8.67136e-05
8.50433e-05
8.65392e-05
8.66724e-05
8.6596e-05
8.81708e-05
8.81598e-05
8.67185e-05
8.50796e-05
8.65421e-05
8.6676e-05
8.65598e-05
8.66916e-05
8.50909e-05
8.5075e-05
8.5075e-05
8.50753e-05
8.50759e-05
8.50841e-05
8.50889e-05
8.50765e-05
8.50703e-05
8.50469e-05
8.65977e-05
0.000115503
8.54118e-05
8.51487e-05
8.51448e-05
8.5143e-05
8.51407e-05
8.51377e-05
8.5134e-05
8.51164e-05
8.65753e-05
8.81395e-05
8.67307e-05
8.51192e-05
8.50403e-05
8.64799e-05
8.6647e-05
8.65342e-05
8.81217e-05
8.81962e-05
8.6733e-05
8.50443e-05
8.64913e-05
8.81095e-05
8.66913e-05
8.65518e-05
8.66837e-05
8.50945e-05
8.5029e-05
8.64979e-05
8.81637e-05
8.67144e-05
8.50441e-05
8.654e-05
8.66731e-05
8.65968e-05
8.81715e-05
8.81605e-05
8.6719e-05
8.5082e-05
8.65441e-05
8.66766e-05
8.65604e-05
8.66922e-05
8.50915e-05
8.50756e-05
8.50755e-05
8.50757e-05
8.50765e-05
8.50819e-05
8.5083e-05
8.50753e-05
8.50697e-05
8.50514e-05
8.65995e-05
0.000115505
8.54464e-05
8.51833e-05
8.51782e-05
8.51749e-05
8.51729e-05
8.51663e-05
8.516e-05
8.51403e-05
8.65956e-05
8.67338e-05
8.51123e-05
8.50887e-05
8.5064e-05
8.50043e-05
8.64764e-05
8.66056e-05
8.6533e-05
8.66874e-05
8.65405e-05
8.80988e-05
8.66981e-05
8.50546e-05
8.50246e-05
8.65341e-05
8.81642e-05
8.81901e-05
8.67045e-05
8.65513e-05
8.81203e-05
8.66642e-05
8.6555e-05
8.67138e-05
8.65963e-05
8.82138e-05
8.81987e-05
8.82003e-05
8.82044e-05
8.6705e-05
8.65583e-05
8.66895e-05
8.50779e-05
8.65463e-05
8.66926e-05
8.50908e-05
8.50751e-05
8.50753e-05
8.50757e-05
8.50765e-05
8.50756e-05
8.50738e-05
8.50691e-05
8.50496e-05
8.65755e-05
0.000115503
8.54129e-05
8.51494e-05
8.51454e-05
8.51433e-05
8.51425e-05
8.51375e-05
8.51333e-05
8.51161e-05
8.65742e-05
8.67141e-05
8.50949e-05
8.50703e-05
8.50605e-05
8.49966e-05
8.6477e-05
8.66054e-05
8.65342e-05
8.81263e-05
8.66392e-05
8.65448e-05
8.6713e-05
8.50551e-05
8.50253e-05
8.65368e-05
8.81635e-05
8.81958e-05
8.67063e-05
8.65522e-05
8.66871e-05
8.50499e-05
8.654e-05
8.67142e-05
8.6597e-05
8.82144e-05
8.81993e-05
8.82009e-05
8.8205e-05
8.67071e-05
8.65589e-05
8.66901e-05
8.50784e-05
8.65468e-05
8.66931e-05
8.50914e-05
8.50756e-05
8.50757e-05
8.50759e-05
8.5076e-05
8.50755e-05
8.50737e-05
8.50697e-05
8.5053e-05
8.65769e-05
0.000115506
8.54483e-05
8.51846e-05
8.51793e-05
8.51756e-05
8.51721e-05
8.51661e-05
8.51462e-05
8.66043e-05
8.67424e-05
8.51173e-05
8.51007e-05
8.50972e-05
8.50671e-05
8.65364e-05
8.81167e-05
8.66851e-05
8.5056e-05
8.50665e-05
8.65236e-05
8.66682e-05
8.50528e-05
8.50384e-05
8.50243e-05
8.65349e-05
8.81665e-05
8.81903e-05
8.81952e-05
8.67175e-05
8.50784e-05
8.65389e-05
8.81684e-05
8.67138e-05
8.50446e-05
8.65415e-05
8.81724e-05
8.81998e-05
8.82016e-05
8.82061e-05
8.67061e-05
8.65592e-05
8.66769e-05
8.65622e-05
8.66926e-05
8.50909e-05
8.50752e-05
8.50754e-05
8.50757e-05
8.50758e-05
8.50751e-05
8.50732e-05
8.50692e-05
8.50516e-05
8.65682e-05
0.000115504
8.54136e-05
8.51501e-05
8.51459e-05
8.51436e-05
8.51415e-05
8.51372e-05
8.51194e-05
8.65802e-05
8.6721e-05
8.50977e-05
8.5081e-05
8.50791e-05
8.50536e-05
8.6568e-05
8.81173e-05
8.66452e-05
8.50573e-05
8.50671e-05
8.65252e-05
8.66691e-05
8.50932e-05
8.50391e-05
8.49859e-05
8.65359e-05
8.82054e-05
8.8197e-05
8.81545e-05
8.67185e-05
8.50844e-05
8.65399e-05
8.81694e-05
8.67554e-05
8.50455e-05
8.65015e-05
8.8173e-05
8.82004e-05
8.82022e-05
8.82067e-05
8.67066e-05
8.65597e-05
8.66774e-05
8.65627e-05
8.66932e-05
8.50914e-05
8.50756e-05
8.50757e-05
8.50758e-05
8.50757e-05
8.5075e-05
8.50732e-05
8.50701e-05
8.50547e-05
8.65692e-05
0.000115506
8.54496e-05
8.51859e-05
8.51804e-05
8.51637e-05
8.66393e-05
8.67792e-05
8.51607e-05
8.66038e-05
8.67388e-05
8.51146e-05
8.50998e-05
8.50884e-05
8.65708e-05
8.81455e-05
8.66951e-05
8.50459e-05
8.64771e-05
8.66178e-05
8.50433e-05
8.65315e-05
8.66573e-05
8.65498e-05
8.81623e-05
8.67153e-05
8.50475e-05
8.65362e-05
8.66928e-05
8.50471e-05
8.65317e-05
8.67153e-05
8.65976e-05
8.81688e-05
8.67142e-05
8.50447e-05
8.65424e-05
8.81739e-05
8.82011e-05
8.82033e-05
8.67078e-05
8.6559e-05
8.66902e-05
8.50778e-05
8.65476e-05
8.6694e-05
8.50911e-05
8.50756e-05
8.50756e-05
8.50755e-05
8.50746e-05
8.50727e-05
8.50697e-05
8.50532e-05
8.6565e-05
0.000115504
8.54148e-05
8.51511e-05
8.51467e-05
8.51315e-05
8.66085e-05
8.67501e-05
8.51344e-05
8.65804e-05
8.67184e-05
8.50966e-05
8.50815e-05
8.50707e-05
8.65508e-05
8.81403e-05
8.66876e-05
8.50466e-05
8.64778e-05
8.66194e-05
8.50443e-05
8.65304e-05
8.66582e-05
8.6551e-05
8.81653e-05
8.67112e-05
8.5048e-05
8.65485e-05
8.66959e-05
8.50481e-05
8.65328e-05
8.67163e-05
8.65985e-05
8.81696e-05
8.67148e-05
8.50454e-05
8.65429e-05
8.81745e-05
8.82016e-05
8.82039e-05
8.67083e-05
8.65595e-05
8.66907e-05
8.50783e-05
8.65481e-05
8.66945e-05
8.50915e-05
8.50758e-05
8.50758e-05
8.50755e-05
8.50747e-05
8.50731e-05
8.50707e-05
8.50558e-05
8.65658e-05
0.000115507
8.54516e-05
8.51875e-05
8.51816e-05
8.51664e-05
8.66395e-05
8.67788e-05
8.51739e-05
8.51106e-05
8.50639e-05
8.50851e-05
8.65837e-05
8.67281e-05
8.5145e-05
8.65623e-05
8.66167e-05
8.64913e-05
8.6641e-05
8.65752e-05
8.66918e-05
8.65848e-05
8.66601e-05
8.65514e-05
8.82124e-05
8.67252e-05
8.50316e-05
8.50521e-05
8.50511e-05
8.64913e-05
8.6651e-05
8.50737e-05
8.50744e-05
8.65818e-05
8.67135e-05
8.65625e-05
8.81249e-05
8.67068e-05
8.6556e-05
8.81736e-05
8.82488e-05
8.82079e-05
8.6719e-05
8.50779e-05
8.65478e-05
8.66938e-05
8.50913e-05
8.50757e-05
8.50757e-05
8.50754e-05
8.50744e-05
8.50727e-05
8.507e-05
8.50541e-05
8.65632e-05
0.000115505
8.54157e-05
8.51518e-05
8.51473e-05
8.51335e-05
8.66082e-05
8.67496e-05
8.51467e-05
8.50873e-05
8.50439e-05
8.50671e-05
8.6565e-05
8.671e-05
8.51249e-05
8.65433e-05
8.66076e-05
8.64918e-05
8.66417e-05
8.65772e-05
8.66656e-05
8.50548e-05
8.50273e-05
8.65372e-05
8.82154e-05
8.6721e-05
8.5033e-05
8.50357e-05
8.65447e-05
8.66779e-05
8.50674e-05
8.50595e-05
8.50754e-05
8.65829e-05
8.67143e-05
8.65635e-05
8.81255e-05
8.67074e-05
8.65564e-05
8.81741e-05
8.82493e-05
8.82084e-05
8.67194e-05
8.50784e-05
8.65483e-05
8.66942e-05
8.50916e-05
8.50759e-05
8.50758e-05
8.50754e-05
8.50746e-05
8.50731e-05
8.50711e-05
8.50565e-05
8.6564e-05
0.000115507
8.54525e-05
8.51884e-05
8.51821e-05
8.51781e-05
8.51725e-05
8.51657e-05
8.51044e-05
8.65598e-05
8.67363e-05
8.51494e-05
8.51265e-05
8.65859e-05
8.66869e-05
8.51033e-05
8.65349e-05
8.66165e-05
8.50047e-05
8.65196e-05
8.81297e-05
8.66777e-05
8.65948e-05
8.67077e-05
8.6562e-05
8.66907e-05
8.65673e-05
8.66468e-05
8.65218e-05
8.66859e-05
8.65587e-05
8.66468e-05
8.65563e-05
8.67263e-05
8.50465e-05
8.6501e-05
8.66728e-05
8.65574e-05
8.81276e-05
8.81588e-05
8.82039e-05
8.82492e-05
8.82099e-05
8.67067e-05
8.65622e-05
8.66942e-05
8.50914e-05
8.50758e-05
8.50757e-05
8.50753e-05
8.50743e-05
8.50726e-05
8.50703e-05
8.50547e-05
8.65622e-05
0.000115505
8.54166e-05
8.51526e-05
8.51477e-05
8.51453e-05
8.51416e-05
8.5137e-05
8.50777e-05
8.65374e-05
8.67172e-05
8.5133e-05
8.51099e-05
8.65687e-05
8.66662e-05
8.50773e-05
8.65297e-05
8.6616e-05
8.50058e-05
8.6521e-05
8.81736e-05
8.66801e-05
8.65156e-05
8.66688e-05
8.65637e-05
8.66921e-05
8.65684e-05
8.67089e-05
8.51035e-05
8.65324e-05
8.81225e-05
8.66758e-05
8.65573e-05
8.67271e-05
8.50473e-05
8.65019e-05
8.66734e-05
8.6558e-05
8.81281e-05
8.81593e-05
8.82044e-05
8.82497e-05
8.82104e-05
8.67072e-05
8.65627e-05
8.66945e-05
8.50917e-05
8.5076e-05
8.50758e-05
8.50754e-05
8.50745e-05
8.50732e-05
8.50714e-05
8.50569e-05
8.65629e-05
0.000115508
8.54541e-05
8.51897e-05
8.51831e-05
8.51785e-05
8.51719e-05
8.5125e-05
8.51024e-05
8.65997e-05
8.66936e-05
8.51105e-05
8.51001e-05
8.50969e-05
8.65908e-05
8.67106e-05
8.65681e-05
8.80675e-05
8.81328e-05
8.814e-05
8.81126e-05
8.8122e-05
8.66945e-05
8.65588e-05
8.66354e-05
8.65821e-05
8.67502e-05
8.65849e-05
8.81995e-05
8.67819e-05
8.65666e-05
8.6666e-05
8.50549e-05
8.65802e-05
8.67234e-05
8.5053e-05
8.50281e-05
8.65421e-05
8.81267e-05
8.81993e-05
8.82454e-05
8.82062e-05
8.82093e-05
8.67476e-05
8.65619e-05
8.66942e-05
8.50916e-05
8.5076e-05
8.50758e-05
8.50753e-05
8.50743e-05
8.50727e-05
8.50705e-05
8.5055e-05
8.65616e-05
0.000115505
8.54173e-05
8.51531e-05
8.51481e-05
8.51452e-05
8.51406e-05
8.50962e-05
8.50766e-05
8.65773e-05
8.66748e-05
8.50942e-05
8.50835e-05
8.5077e-05
8.65668e-05
8.66845e-05
8.65499e-05
8.80671e-05
8.81341e-05
8.81418e-05
8.81155e-05
8.66389e-05
8.65203e-05
8.81748e-05
8.67057e-05
8.65735e-05
8.67218e-05
8.51007e-05
8.50968e-05
8.50901e-05
8.65932e-05
8.81628e-05
8.6701e-05
8.65969e-05
8.67246e-05
8.50616e-05
8.50296e-05
8.65378e-05
8.81265e-05
8.81998e-05
8.82459e-05
8.82068e-05
8.82098e-05
8.67481e-05
8.65624e-05
8.66946e-05
8.50918e-05
8.50761e-05
8.50758e-05
8.50754e-05
8.50745e-05
8.50732e-05
8.50716e-05
8.50571e-05
8.65623e-05
0.000115508
8.54545e-05
8.51899e-05
8.51832e-05
8.51782e-05
8.51713e-05
8.51238e-05
8.5114e-05
8.51055e-05
8.50563e-05
8.50535e-05
8.50862e-05
8.66251e-05
8.67827e-05
8.51555e-05
8.66072e-05
8.8113e-05
8.80904e-05
8.66246e-05
8.65417e-05
8.66944e-05
8.65551e-05
8.66227e-05
8.65315e-05
8.6703e-05
8.66257e-05
8.68312e-05
8.5075e-05
8.65455e-05
8.81575e-05
8.81581e-05
8.6709e-05
8.50515e-05
8.65081e-05
8.81132e-05
8.66917e-05
8.65619e-05
8.81677e-05
8.82438e-05
8.82449e-05
8.82058e-05
8.82085e-05
8.67473e-05
8.65619e-05
8.66533e-05
8.5052e-05
8.50761e-05
8.50759e-05
8.50753e-05
8.50742e-05
8.50727e-05
8.50706e-05
8.50552e-05
8.65612e-05
0.000115505
8.54177e-05
8.51535e-05
8.51483e-05
8.51451e-05
8.51403e-05
8.50955e-05
8.50888e-05
8.50841e-05
8.50386e-05
8.50386e-05
8.5071e-05
8.66062e-05
8.67561e-05
8.51288e-05
8.65425e-05
8.80706e-05
8.80903e-05
8.66271e-05
8.6499e-05
8.6656e-05
8.6558e-05
8.6625e-05
8.65353e-05
8.67064e-05
8.66287e-05
8.68317e-05
8.65507e-05
8.67172e-05
8.65644e-05
8.81158e-05
8.67097e-05
8.50916e-05
8.65495e-05
8.81209e-05
8.66925e-05
8.65529e-05
8.81673e-05
8.82444e-05
8.82454e-05
8.82064e-05
8.8209e-05
8.67479e-05
8.65623e-05
8.66536e-05
8.50522e-05
8.50762e-05
8.50759e-05
8.50754e-05
8.50745e-05
8.50733e-05
8.50717e-05
8.50573e-05
8.65619e-05
0.000115508
8.54553e-05
8.51906e-05
8.51836e-05
8.5178e-05
8.51711e-05
8.51234e-05
8.50747e-05
8.50637e-05
8.50548e-05
8.50381e-05
8.6582e-05
8.82418e-05
8.67715e-05
8.50956e-05
8.50921e-05
8.6536e-05
8.66373e-05
8.65276e-05
8.81199e-05
8.67174e-05
8.65895e-05
8.67076e-05
8.65843e-05
8.67158e-05
8.66441e-05
8.67894e-05
8.51135e-05
8.65179e-05
8.66726e-05
8.65562e-05
8.66622e-05
8.65512e-05
8.81531e-05
8.82202e-05
8.67097e-05
8.50107e-05
8.65377e-05
8.82137e-05
8.82453e-05
8.82494e-05
8.67594e-05
8.50779e-05
8.65474e-05
8.81886e-05
8.67657e-05
8.50923e-05
8.50761e-05
8.50753e-05
8.50742e-05
8.50727e-05
8.50707e-05
8.50553e-05
8.6561e-05
0.000115505
8.5418e-05
8.51536e-05
8.51483e-05
8.51445e-05
8.51399e-05
8.50949e-05
8.50495e-05
8.50423e-05
8.50372e-05
8.50231e-05
8.65663e-05
8.82222e-05
8.67471e-05
8.50691e-05
8.50698e-05
8.65251e-05
8.80601e-05
8.80914e-05
8.81451e-05
8.67212e-05
8.65916e-05
8.67322e-05
8.66001e-05
8.67331e-05
8.66286e-05
8.68142e-05
8.51294e-05
8.65507e-05
8.81511e-05
8.67753e-05
8.50973e-05
8.65374e-05
8.81539e-05
8.82286e-05
8.67118e-05
8.50065e-05
8.65382e-05
8.82143e-05
8.82459e-05
8.825e-05
8.676e-05
8.50785e-05
8.65479e-05
8.81465e-05
8.67245e-05
8.50923e-05
8.50761e-05
8.50754e-05
8.50745e-05
8.50733e-05
8.50718e-05
8.50574e-05
8.65616e-05
0.000115508
8.5455e-05
8.51902e-05
8.51833e-05
8.51772e-05
8.51307e-05
8.51218e-05
8.51133e-05
8.50619e-05
8.50529e-05
8.50363e-05
8.65416e-05
8.81996e-05
8.6799e-05
8.6613e-05
8.66814e-05
8.51049e-05
8.50332e-05
8.6471e-05
8.80662e-05
8.6636e-05
8.50336e-05
8.65992e-05
8.82894e-05
8.83131e-05
8.69521e-05
8.66986e-05
8.81527e-05
8.81769e-05
8.67286e-05
8.65645e-05
8.81297e-05
8.81544e-05
8.66893e-05
8.65126e-05
8.66454e-05
8.50483e-05
8.65773e-05
8.82092e-05
8.82445e-05
8.82482e-05
8.6704e-05
8.65599e-05
8.67348e-05
8.50916e-05
8.5076e-05
8.50761e-05
8.5076e-05
8.50753e-05
8.50742e-05
8.50727e-05
8.50707e-05
8.50554e-05
8.65608e-05
0.000115505
8.54178e-05
8.51535e-05
8.51483e-05
8.51442e-05
8.51e-05
8.5094e-05
8.50888e-05
8.50413e-05
8.50363e-05
8.50223e-05
8.65272e-05
8.81835e-05
8.82518e-05
8.67818e-05
8.51016e-05
8.50578e-05
8.65108e-05
8.66343e-05
8.65334e-05
8.66221e-05
8.50645e-05
8.66204e-05
8.8308e-05
8.67814e-05
8.67195e-05
8.67998e-05
8.65654e-05
8.80891e-05
8.66981e-05
8.50847e-05
8.65344e-05
8.81281e-05
8.66899e-05
8.65144e-05
8.6645e-05
8.5049e-05
8.65779e-05
8.82098e-05
8.82451e-05
8.82487e-05
8.67046e-05
8.65605e-05
8.67353e-05
8.5092e-05
8.50762e-05
8.50762e-05
8.5076e-05
8.50754e-05
8.50746e-05
8.50733e-05
8.50718e-05
8.50574e-05
8.65615e-05
0.000115508
8.5455e-05
8.51766e-05
8.66604e-05
8.67922e-05
8.66526e-05
8.82179e-05
8.67479e-05
8.51179e-05
8.5092e-05
8.505e-05
8.50836e-05
8.65876e-05
8.67333e-05
8.66197e-05
8.67184e-05
8.6576e-05
8.80653e-05
8.80778e-05
8.66735e-05
8.50557e-05
8.65586e-05
8.82592e-05
8.68408e-05
8.67533e-05
8.8523e-05
8.68545e-05
8.65634e-05
8.80969e-05
8.67062e-05
8.50747e-05
8.504e-05
8.65311e-05
8.66261e-05
8.65107e-05
8.66776e-05
8.50862e-05
8.65362e-05
8.66707e-05
8.65552e-05
8.81741e-05
8.67591e-05
8.50795e-05
8.65468e-05
8.66941e-05
8.50785e-05
8.65487e-05
8.66967e-05
8.50913e-05
8.50743e-05
8.50726e-05
8.50707e-05
8.50554e-05
8.65608e-05
0.000115505
8.54179e-05
8.51397e-05
8.66249e-05
8.67586e-05
8.66214e-05
8.81895e-05
8.6723e-05
8.5097e-05
8.50751e-05
8.50356e-05
8.50687e-05
8.65711e-05
8.81433e-05
8.82014e-05
8.67312e-05
8.50789e-05
8.65138e-05
8.66455e-05
8.50872e-05
8.65265e-05
8.66751e-05
8.51582e-05
8.6717e-05
8.84229e-05
8.71045e-05
8.52846e-05
8.64658e-05
8.80162e-05
8.67101e-05
8.51001e-05
8.50427e-05
8.65328e-05
8.66675e-05
8.65451e-05
8.66651e-05
8.65938e-05
8.82043e-05
8.67406e-05
8.6556e-05
8.81748e-05
8.67597e-05
8.50801e-05
8.65472e-05
8.66943e-05
8.50787e-05
8.65488e-05
8.66967e-05
8.50915e-05
8.50747e-05
8.50734e-05
8.50718e-05
8.50574e-05
8.65615e-05
0.000115492
8.69433e-05
8.6793e-05
8.51591e-05
8.51636e-05
8.66353e-05
8.82168e-05
8.67743e-05
8.66514e-05
8.82055e-05
8.67512e-05
8.51347e-05
8.65899e-05
8.66928e-05
8.65822e-05
8.67243e-05
8.65852e-05
8.66774e-05
8.50503e-05
8.64676e-05
8.81076e-05
8.67877e-05
8.47173e-05
8.42364e-05
8.84497e-05
8.8262e-05
8.86065e-05
8.79206e-05
8.78775e-05
8.66394e-05
8.6569e-05
8.66715e-05
8.65424e-05
8.81341e-05
8.66987e-05
8.50574e-05
8.50411e-05
8.50398e-05
8.50675e-05
8.65412e-05
8.66464e-05
8.50543e-05
8.5064e-05
8.65469e-05
8.66803e-05
8.66046e-05
8.67382e-05
8.5092e-05
8.50756e-05
8.50742e-05
8.50729e-05
8.50707e-05
8.50554e-05
8.65608e-05
0.000115505
8.54169e-05
8.51137e-05
8.51081e-05
8.51302e-05
8.66053e-05
8.81893e-05
8.67503e-05
8.65909e-05
8.6673e-05
8.50897e-05
8.51052e-05
8.65717e-05
8.81434e-05
8.67499e-05
8.51385e-05
8.65441e-05
8.66622e-05
8.50503e-05
8.64687e-05
8.66335e-05
8.65305e-05
8.68443e-05
8.74884e-05
8.85293e-05
8.82032e-05
8.88371e-05
8.64643e-05
8.65221e-05
8.66363e-05
8.65737e-05
8.66739e-05
8.65445e-05
8.81352e-05
8.66997e-05
8.50584e-05
8.50256e-05
8.64954e-05
8.66724e-05
8.65575e-05
8.66472e-05
8.50549e-05
8.50646e-05
8.65474e-05
8.66806e-05
8.66048e-05
8.67382e-05
8.5092e-05
8.50757e-05
8.50746e-05
8.50734e-05
8.50721e-05
8.50576e-05
8.65615e-05
0.000115508
8.54547e-05
8.51374e-05
8.66183e-05
8.6791e-05
8.66528e-05
8.82188e-05
8.67882e-05
8.51041e-05
8.65842e-05
8.67522e-05
8.65968e-05
8.66871e-05
8.6578e-05
8.82104e-05
8.68085e-05
8.51694e-05
8.51233e-05
8.5041e-05
8.64582e-05
8.66524e-05
8.57511e-05
8.75553e-05
9.33719e-05
9.87061e-05
8.95907e-05
8.65391e-05
8.51165e-05
8.63823e-05
8.65613e-05
8.50382e-05
8.64673e-05
8.81074e-05
8.67286e-05
8.50614e-05
8.50419e-05
8.50266e-05
8.64971e-05
8.81242e-05
8.66591e-05
8.65179e-05
8.66755e-05
8.65608e-05
8.66795e-05
8.65626e-05
8.81901e-05
8.82199e-05
8.67263e-05
8.50783e-05
8.65498e-05
8.66845e-05
8.65695e-05
8.82146e-05
8.82532e-05
0.000116925
8.73224e-05
8.50807e-05
8.66246e-05
8.83093e-05
8.67765e-05
8.66114e-05
8.67356e-05
8.50834e-05
8.65657e-05
8.67113e-05
8.50968e-05
8.50796e-05
8.6578e-05
8.67255e-05
8.51409e-05
8.65508e-05
8.6668e-05
8.50555e-05
8.64592e-05
8.66528e-05
8.66922e-05
8.90179e-05
8.50141e-05
0.000110839
8.77351e-05
8.62308e-05
8.62015e-05
8.65043e-05
8.65564e-05
8.65055e-05
8.80402e-05
8.80942e-05
8.81158e-05
8.8171e-05
8.67032e-05
8.5043e-05
8.65364e-05
8.66716e-05
8.65582e-05
8.66742e-05
8.65605e-05
8.66778e-05
8.65628e-05
8.66808e-05
8.65638e-05
8.6683e-05
8.66054e-05
8.66837e-05
8.65661e-05
8.82436e-05
8.67716e-05
8.50353e-05
8.65204e-05
0.000116858
8.88701e-05
8.69094e-05
8.51967e-05
8.51606e-05
8.66352e-05
8.82166e-05
8.67733e-05
8.66092e-05
8.66916e-05
8.5105e-05
8.50835e-05
8.65515e-05
8.67388e-05
8.66192e-05
8.67325e-05
8.65935e-05
8.81336e-05
8.67136e-05
8.50479e-05
8.6528e-05
8.82002e-05
8.96695e-05
0.00010168
8.7172e-05
8.64954e-05
8.63432e-05
8.64339e-05
8.64782e-05
8.65084e-05
8.80852e-05
8.66588e-05
8.65404e-05
8.66551e-05
8.65464e-05
8.81138e-05
8.6706e-05
8.50794e-05
8.65399e-05
8.66321e-05
8.65171e-05
8.66365e-05
8.652e-05
8.66939e-05
8.50394e-05
8.65071e-05
8.81494e-05
8.67254e-05
8.50372e-05
8.6511e-05
8.66853e-05
8.66143e-05
8.82242e-05
0.00011542
8.6906e-05
8.83044e-05
8.67961e-05
8.66721e-05
8.82499e-05
8.67346e-05
8.51015e-05
8.508e-05
8.50231e-05
8.65242e-05
8.67142e-05
8.51071e-05
8.51033e-05
8.51492e-05
8.50918e-05
8.65138e-05
8.81109e-05
8.66997e-05
8.6551e-05
8.67101e-05
8.617e-05
9.26066e-05
0.000110062
9.3601e-05
8.78541e-05
8.65159e-05
8.51429e-05
8.64783e-05
8.66058e-05
8.50915e-05
8.65565e-05
8.66486e-05
8.65044e-05
8.66324e-05
8.50433e-05
8.6537e-05
8.6683e-05
8.50809e-05
8.65417e-05
8.8136e-05
8.81673e-05
8.66808e-05
8.50528e-05
8.50765e-05
8.50369e-05
8.50365e-05
8.50757e-05
8.50745e-05
8.50743e-05
8.5058e-05
8.65589e-05
8.81812e-05
0.000115491
8.69816e-05
8.68591e-05
8.67172e-05
8.68023e-05
8.51042e-05
8.51063e-05
8.66493e-05
8.67718e-05
8.65998e-05
8.82003e-05
8.6746e-05
8.65702e-05
8.67405e-05
8.66614e-05
8.67382e-05
8.65933e-05
8.81708e-05
8.81214e-05
8.66684e-05
8.65121e-05
8.66683e-05
8.48352e-05
8.8338e-05
8.53075e-05
8.82401e-05
8.73507e-05
8.66031e-05
8.64991e-05
8.50785e-05
8.65213e-05
8.66265e-05
8.65755e-05
8.66475e-05
8.65424e-05
8.67e-05
8.65488e-05
8.8118e-05
8.66954e-05
8.6596e-05
8.66721e-05
8.65174e-05
8.81383e-05
8.82123e-05
8.67095e-05
8.65226e-05
8.66551e-05
8.50524e-05
8.50755e-05
8.50741e-05
8.50724e-05
8.50705e-05
8.50552e-05
8.65612e-05
0.000115489
8.69457e-05
8.6823e-05
8.66829e-05
8.67697e-05
8.50745e-05
8.50792e-05
8.66252e-05
8.67514e-05
8.65829e-05
8.81844e-05
8.67435e-05
8.50694e-05
8.50899e-05
8.65791e-05
8.66669e-05
8.6567e-05
8.81477e-05
8.66797e-05
8.50633e-05
8.65065e-05
8.66405e-05
8.56285e-05
9.17031e-05
9.21981e-05
8.63213e-05
8.74724e-05
8.827e-05
8.80513e-05
8.66726e-05
8.6526e-05
8.66394e-05
8.50993e-05
8.50275e-05
8.65296e-05
8.67001e-05
8.65494e-05
8.664e-05
8.50402e-05
8.65798e-05
8.66733e-05
8.6518e-05
8.81386e-05
8.8213e-05
8.67232e-05
8.5053e-05
8.50371e-05
8.50365e-05
8.50756e-05
8.50746e-05
8.50733e-05
8.50717e-05
8.50573e-05
8.65619e-05
0.000115507
8.54498e-05
8.51713e-05
8.66571e-05
8.67877e-05
8.66499e-05
8.82182e-05
8.82276e-05
8.67601e-05
8.66397e-05
8.67676e-05
8.50999e-05
8.65512e-05
8.81722e-05
8.82338e-05
8.67996e-05
8.66259e-05
8.81207e-05
8.66426e-05
8.50722e-05
8.65308e-05
8.66755e-05
8.50832e-05
8.67048e-05
8.67887e-05
8.67215e-05
8.6901e-05
8.65937e-05
8.66213e-05
8.65734e-05
8.66699e-05
8.50439e-05
8.65227e-05
8.66511e-05
8.65026e-05
8.66589e-05
8.6549e-05
8.66794e-05
8.50401e-05
8.64983e-05
8.66846e-05
8.5092e-05
8.50231e-05
8.65038e-05
8.66933e-05
8.50921e-05
8.5037e-05
8.50365e-05
8.50754e-05
8.5074e-05
8.50724e-05
8.50704e-05
8.50551e-05
8.65615e-05
0.000115504
8.54137e-05
8.51361e-05
8.66235e-05
8.6756e-05
8.66206e-05
8.81913e-05
8.82041e-05
8.67403e-05
8.66234e-05
8.67536e-05
8.50854e-05
8.65321e-05
8.67162e-05
8.65891e-05
8.67035e-05
8.66041e-05
8.81066e-05
8.6668e-05
8.65323e-05
8.66545e-05
8.65272e-05
8.81225e-05
8.67597e-05
8.67225e-05
8.70642e-05
8.67787e-05
8.82065e-05
8.66974e-05
8.65886e-05
8.66589e-05
8.50579e-05
8.65259e-05
8.66656e-05
8.50435e-05
8.65722e-05
8.81552e-05
8.81462e-05
8.66562e-05
8.65147e-05
8.66855e-05
8.50926e-05
8.50237e-05
8.65043e-05
8.66936e-05
8.50924e-05
8.50371e-05
8.50365e-05
8.50756e-05
8.50746e-05
8.50732e-05
8.50717e-05
8.50573e-05
8.65622e-05
0.000115506
8.5448e-05
8.51838e-05
8.51631e-05
8.66851e-05
8.67871e-05
8.51199e-05
8.66491e-05
8.82667e-05
8.82813e-05
8.82736e-05
8.8232e-05
8.67701e-05
8.51777e-05
8.51566e-05
8.65913e-05
8.81588e-05
8.6711e-05
8.50203e-05
8.65411e-05
8.8132e-05
8.66826e-05
8.66017e-05
8.827e-05
8.67656e-05
8.50591e-05
8.67141e-05
8.82516e-05
8.66797e-05
8.65577e-05
8.81823e-05
8.66857e-05
8.50481e-05
8.65323e-05
8.81016e-05
8.81365e-05
8.67053e-05
8.50541e-05
8.49984e-05
8.49983e-05
8.49976e-05
8.49838e-05
8.65432e-05
8.66909e-05
8.50528e-05
8.50764e-05
8.50764e-05
8.50761e-05
8.50753e-05
8.5074e-05
8.50723e-05
8.50703e-05
8.5055e-05
8.65618e-05
0.000115504
8.54134e-05
8.51491e-05
8.51299e-05
8.66536e-05
8.67577e-05
8.50932e-05
8.66253e-05
8.82462e-05
8.82641e-05
8.82582e-05
8.82158e-05
8.675e-05
8.51566e-05
8.51277e-05
8.65633e-05
8.80949e-05
8.66965e-05
8.50585e-05
8.65285e-05
8.67155e-05
8.65706e-05
8.66808e-05
8.65978e-05
8.67413e-05
8.50987e-05
8.65952e-05
8.82047e-05
8.82389e-05
8.67078e-05
8.65679e-05
8.66301e-05
8.505e-05
8.65337e-05
8.81037e-05
8.81374e-05
8.67055e-05
8.5055e-05
8.4999e-05
8.49989e-05
8.49981e-05
8.49977e-05
8.50371e-05
8.50368e-05
8.50374e-05
8.50765e-05
8.50765e-05
8.50762e-05
8.50755e-05
8.50745e-05
8.50732e-05
8.50716e-05
8.50572e-05
8.65625e-05
0.000115506
8.54472e-05
8.51825e-05
8.51618e-05
8.66839e-05
8.68138e-05
8.66357e-05
8.82005e-05
8.82543e-05
8.82815e-05
8.82736e-05
8.67605e-05
8.51108e-05
8.66005e-05
8.67478e-05
8.51151e-05
8.65554e-05
8.67119e-05
8.65387e-05
8.6666e-05
8.50521e-05
8.50223e-05
8.65433e-05
8.82532e-05
8.67433e-05
8.50453e-05
8.51073e-05
8.65692e-05
8.67453e-05
8.6595e-05
8.81438e-05
8.66468e-05
8.65468e-05
8.81483e-05
8.66897e-05
8.655e-05
8.81569e-05
8.67072e-05
8.50142e-05
8.49981e-05
8.50367e-05
8.50762e-05
8.50758e-05
8.50229e-05
8.65463e-05
8.67354e-05
8.50923e-05
8.50763e-05
8.50753e-05
8.50739e-05
8.50722e-05
8.50701e-05
8.50548e-05
8.65622e-05
0.000115504
8.54119e-05
8.51481e-05
8.51292e-05
8.6653e-05
8.67851e-05
8.66096e-05
8.81773e-05
8.82344e-05
8.82649e-05
8.82591e-05
8.67452e-05
8.5092e-05
8.65765e-05
8.67181e-05
8.50912e-05
8.65388e-05
8.67038e-05
8.65391e-05
8.66671e-05
8.5072e-05
8.50656e-05
8.65758e-05
8.82277e-05
8.67566e-05
8.50515e-05
8.50935e-05
8.65279e-05
8.67478e-05
8.65994e-05
8.81465e-05
8.66488e-05
8.65484e-05
8.81496e-05
8.66906e-05
8.65508e-05
8.8158e-05
8.67079e-05
8.50148e-05
8.49987e-05
8.50374e-05
8.50767e-05
8.50764e-05
8.50234e-05
8.65059e-05
8.66943e-05
8.50924e-05
8.50763e-05
8.50755e-05
8.50745e-05
8.50731e-05
8.50715e-05
8.50571e-05
8.6563e-05
0.000115505
8.54451e-05
8.51811e-05
8.51609e-05
8.66425e-05
8.67724e-05
8.66766e-05
8.8243e-05
8.82549e-05
8.82836e-05
8.82757e-05
8.67487e-05
8.66077e-05
8.67479e-05
8.5122e-05
8.65807e-05
8.67037e-05
8.50802e-05
8.65282e-05
8.81574e-05
8.81494e-05
8.66501e-05
8.65139e-05
8.81464e-05
8.67325e-05
8.50762e-05
8.65886e-05
8.82404e-05
8.67267e-05
8.65233e-05
8.81363e-05
8.81743e-05
8.66907e-05
8.65531e-05
8.81519e-05
8.67343e-05
8.65502e-05
8.6639e-05
8.50143e-05
8.49982e-05
8.50368e-05
8.50366e-05
8.50362e-05
8.50757e-05
8.50363e-05
8.50366e-05
8.50764e-05
8.50761e-05
8.50752e-05
8.50738e-05
8.5072e-05
8.507e-05
8.50547e-05
8.65628e-05
0.000115503
8.54116e-05
8.51474e-05
8.51285e-05
8.66117e-05
8.67435e-05
8.66503e-05
8.82193e-05
8.82346e-05
8.82664e-05
8.82603e-05
8.67323e-05
8.65876e-05
8.67212e-05
8.50933e-05
8.65574e-05
8.66866e-05
8.50614e-05
8.6527e-05
8.81583e-05
8.81509e-05
8.66538e-05
8.65168e-05
8.81659e-05
8.67406e-05
8.50926e-05
8.65944e-05
8.82417e-05
8.67277e-05
8.65252e-05
8.81508e-05
8.81781e-05
8.66919e-05
8.65542e-05
8.81528e-05
8.6735e-05
8.65526e-05
8.66398e-05
8.50149e-05
8.49987e-05
8.50374e-05
8.50372e-05
8.50368e-05
8.50763e-05
8.50368e-05
8.50369e-05
8.50765e-05
8.50762e-05
8.50755e-05
8.50744e-05
8.5073e-05
8.50714e-05
8.5057e-05
8.65635e-05
0.000115505
8.54443e-05
8.51797e-05
8.51594e-05
8.66412e-05
8.67712e-05
8.66755e-05
8.82424e-05
8.82538e-05
8.82836e-05
8.82755e-05
8.67598e-05
8.51068e-05
8.66326e-05
8.67329e-05
8.5099e-05
8.65538e-05
8.66854e-05
8.507e-05
8.50012e-05
8.65375e-05
8.6704e-05
8.50435e-05
8.6551e-05
8.66955e-05
8.50373e-05
8.65417e-05
8.81765e-05
8.82277e-05
8.8194e-05
8.66633e-05
8.50637e-05
8.50337e-05
8.65378e-05
8.66623e-05
8.65099e-05
8.81596e-05
8.67085e-05
8.50146e-05
8.49982e-05
8.50369e-05
8.50366e-05
8.50363e-05
8.50757e-05
8.50759e-05
8.50762e-05
8.50763e-05
8.50761e-05
8.50752e-05
8.50737e-05
8.50719e-05
8.50697e-05
8.50544e-05
8.65634e-05
0.000115503
8.54098e-05
8.51462e-05
8.51275e-05
8.6611e-05
8.6743e-05
8.66498e-05
8.82194e-05
8.82342e-05
8.82672e-05
8.82608e-05
8.67444e-05
8.50882e-05
8.66104e-05
8.67101e-05
8.50805e-05
8.65421e-05
8.66726e-05
8.50698e-05
8.50011e-05
8.65387e-05
8.67048e-05
8.5047e-05
8.65466e-05
8.66832e-05
8.65371e-05
8.66882e-05
8.65939e-05
8.81842e-05
8.67477e-05
8.65579e-05
8.66814e-05
8.50498e-05
8.65388e-05
8.66656e-05
8.65108e-05
8.81612e-05
8.67091e-05
8.50152e-05
8.49988e-05
8.50375e-05
8.50372e-05
8.50369e-05
8.50763e-05
8.50763e-05
8.50764e-05
8.50765e-05
8.50762e-05
8.50754e-05
8.50743e-05
8.50729e-05
8.50713e-05
8.50568e-05
8.65642e-05
0.000115504
8.54418e-05
8.5178e-05
8.51579e-05
8.66402e-05
8.67839e-05
8.51559e-05
8.66065e-05
8.82272e-05
8.82848e-05
8.67593e-05
8.51094e-05
8.51276e-05
8.65891e-05
8.67163e-05
8.65863e-05
8.66996e-05
8.51291e-05
8.50562e-05
8.50106e-05
8.65385e-05
8.67149e-05
8.50553e-05
8.65471e-05
8.81811e-05
8.66809e-05
8.49999e-05
8.65635e-05
8.66999e-05
8.65604e-05
8.6705e-05
8.65934e-05
8.66669e-05
8.65107e-05
8.66789e-05
8.50805e-05
8.65362e-05
8.66804e-05
8.50536e-05
8.49986e-05
8.50373e-05
8.50367e-05
8.50363e-05
8.50768e-05
8.50759e-05
8.50761e-05
8.50763e-05
8.5076e-05
8.50751e-05
8.50737e-05
8.50718e-05
8.50696e-05
8.50542e-05
8.65643e-05
0.000115502
8.54093e-05
8.51452e-05
8.51265e-05
8.66103e-05
8.6756e-05
8.51304e-05
8.65837e-05
8.82073e-05
8.82681e-05
8.67441e-05
8.50937e-05
8.51087e-05
8.65671e-05
8.67069e-05
8.50775e-05
8.65429e-05
8.67244e-05
8.50662e-05
8.50101e-05
8.65389e-05
8.67169e-05
8.50558e-05
8.65432e-05
8.81817e-05
8.6681e-05
8.50105e-05
8.65646e-05
8.66843e-05
8.65611e-05
8.67049e-05
8.65942e-05
8.66676e-05
8.65115e-05
8.6682e-05
8.50827e-05
8.65369e-05
8.66809e-05
8.50542e-05
8.49991e-05
8.50378e-05
8.50373e-05
8.50369e-05
8.50774e-05
8.50764e-05
8.50764e-05
8.50765e-05
8.50762e-05
8.50755e-05
8.50744e-05
8.50729e-05
8.50711e-05
8.50566e-05
8.65651e-05
0.000115505
8.54406e-05
8.51761e-05
8.51559e-05