/*--------------------------------*- C++ -*----------------------------------*\
| =========                 |                                                 |
| \\      /  F ield         | OpenFOAM: The Open Source CFD Toolbox           |
|  \\    /   O peration     | Version:  4.1                                   |
|   \\  /    A nd           | Web:      www.OpenFOAM.org                      |
|    \\/     M anipulation  |                                                 |
\*---------------------------------------------------------------------------*/
FoamFile
{
    version     2.0;
    format      ascii;
    class       surfaceScalarField;
    location    "1";
    object      phi;
}
// * * * * * * * * * * * * * * * * * * * * * * * * * * * * * * * * * * * * * //

dimensions      [0 3 -1 0 0 0 0];

internalField   nonuniform List<scalar> 
11516
(
9.98396e+06
-658.005
744.682
9.93711e+06
-7373.92
5423.32
9.89174e+06
-7427.73
4788.19
9.84821e+06
-7269.59
4327
9.80656e+06
-7033.63
3938.99
9.76687e+06
-6758.84
3614.1
9.72936e+06
-6433.42
3380.43
9.69432e+06
-6033.02
3292.02
9.662e+06
-5546.83
3352.65
9.63189e+06
-5034.64
3868.16
9.60416e+06
-4408.02
5006.79
9.58043e+06
-3646.33
6253.52
9.56432e+06
-2157.53
7286.04
9.55871e+06
-84.8493
8256.1
9.5586e+06
890.675
6113.7
9.56305e+06
2061.54
5491.55
9.56764e+06
1181.1
1524.23
9.58133e+06
2425.63
1083.58
9.60021e+06
2791.02
-1716.41
9.62327e+06
4048.02
-1756.23
9.64046e+06
2872.65
-3171.9
9.6551e+06
2469.78
-2752.63
9.66608e+06
1870.91
-1299.03
9.67633e+06
1957.07
450.908
9.68508e+06
2120.68
2758.35
9.69262e+06
2276.85
4334.17
9.69792e+06
2255.34
6048.25
9.70188e+06
2202.62
6835.2
9.70452e+06
2093.01
7549.88
9.70681e+06
2063.39
7784.92
9.70934e+06
2028.87
7480.61
9.71217e+06
2070.56
7470.43
9.71574e+06
2081.58
6869.32
9.71998e+06
2132.92
6479.58
9.72471e+06
2127.88
5992.58
9.73012e+06
2143.4
5379.14
9.73558e+06
2098.02
5107.7
9.74148e+06
2073.77
4524.9
9.74736e+06
2001.67
4222.76
9.75336e+06
1962.71
3908.67
9.7595e+06
1895.04
3492.82
9.76575e+06
1871.96
3304.66
9.77202e+06
1834.54
3170.22
9.7783e+06
1844.3
3207.06
9.78413e+06
1811.17
3328.47
9.78844e+06
1685.87
3617.98
9.78918e+06
1273.62
4049.84
9.78398e+06
505.232
4872.69
9.77076e+06
-525.597
6772.19
9.7468e+06
-1580.99
11406.2
9.67652e+06
-2707.61
22582.3
9.51228e+06
-18414.7
82605
9.16834e+06
-10477.8
311215
-4157.61
1.04419e+06
9.98351e+06
719.405
9.93706e+06
5288.27
9.8919e+06
4649.32
9.84845e+06
4189.07
9.80684e+06
3804.08
9.7672e+06
3490.96
9.72976e+06
3269.92
9.69481e+06
3203.06
9.66251e+06
3284.35
9.63252e+06
3821.02
9.60492e+06
4933.14
9.58191e+06
5987.36
9.56639e+06
7338.5
9.55968e+06
7299.36
9.55977e+06
6532.52
9.56217e+06
4417.95
9.56888e+06
2147.82
9.5817e+06
475.372
9.60147e+06
-936.276
9.62209e+06
-2223.55
9.64006e+06
-2677.19
9.6545e+06
-2623
9.66617e+06
-983.021
9.67649e+06
623.559
9.68524e+06
2933.01
9.6926e+06
4441.81
9.69787e+06
6207.32
9.70177e+06
6934.27
9.70449e+06
7678.7
9.70678e+06
7835.77
9.70939e+06
7549.58
9.71218e+06
7463.6
9.71579e+06
6883.88
9.71998e+06
6429.32
9.72473e+06
5970.78
9.73007e+06
5304.75
9.73556e+06
5068.09
9.74141e+06
4443.21
9.74732e+06
4179.72
9.7533e+06
3832.02
9.75948e+06
3455.71
9.76572e+06
3240.43
9.77203e+06
3144.2
9.77827e+06
3158.19
9.784e+06
3303.08
9.78802e+06
3568.63
9.78841e+06
4001.8
9.78295e+06
4850.66
9.7697e+06
6855.51
9.74567e+06
11764.9
9.66081e+06
23576.6
9.52022e+06
98326.4
9.17466e+06
318528
1.05105e+06
9.98863e+06
-683.589
656.686
9.94572e+06
-7543.04
6071.78
9.9035e+06
-7600.92
5599.48
9.8627e+06
-7441.12
5125.01
9.82349e+06
-7201.04
4684.84
9.78603e+06
-6913.35
4327.82
9.75059e+06
-6573.51
4121.91
9.71771e+06
-6149.8
3993.32
9.68709e+06
-5640.93
4684.49
9.65877e+06
-5104.81
5718.56
9.6328e+06
-4502.03
7688.7
9.60939e+06
-3929.73
9950.79
9.59482e+06
-2114.79
12745.6
9.58688e+06
-1044.26
12880.3
9.58919e+06
1314.57
11842.3
9.59153e+06
994.692
7770.32
9.5998e+06
1811.68
3709.74
9.61244e+06
1826.87
426.57
9.63447e+06
3585.92
-2232.12
9.65645e+06
3597.88
-4404.66
9.67662e+06
3381.77
-5897.11
9.69197e+06
2610.99
-4994.18
9.70464e+06
2196.35
-2408.64
9.71492e+06
2139.18
1791.01
9.72434e+06
2305.54
5794.31
9.73149e+06
2395.17
9750.19
9.73725e+06
2425.12
12652.1
9.74091e+06
2311.94
14700.6
9.74395e+06
2231.76
15576.3
9.74629e+06
2123.74
15988.3
9.74885e+06
2107.28
15470.1
9.75197e+06
2073.18
14773
9.75557e+06
2105.66
13912.1
9.75987e+06
2092.27
12737.9
9.76477e+06
2115.81
11774.7
9.76999e+06
2078.61
10608.5
9.77579e+06
2067.87
9709.25
9.78159e+06
2001.41
8757.1
9.7877e+06
1967.65
7997.13
9.79393e+06
1894.96
7224.97
9.79999e+06
1866.52
6884.99
9.80625e+06
1816.12
6278.8
9.81266e+06
1816.89
6075.74
9.81902e+06
1803.76
6084.32
9.825e+06
1794.01
6337.76
9.82944e+06
1644.13
6795.09
9.83054e+06
1231.3
7513.72
9.82637e+06
485.469
8916.08
9.8158e+06
-444.499
12289.2
9.79826e+06
-1228.69
20601.2
9.7766e+06
-1723.42
40384.2
9.78056e+06
-2741.61
85776.8
9.94053e+06
-3196.11
179633
2698.07
261589
9.98824e+06
640.178
9.94566e+06
5952.1
9.90366e+06
5525.24
9.86294e+06
5069.51
9.82378e+06
4642.8
9.78637e+06
4295.98
9.75101e+06
4105.53
9.71822e+06
3989.13
9.68763e+06
4693.25
9.65937e+06
5725.72
9.63337e+06
7572.98
9.6112e+06
9900.93
9.59589e+06
12013.9
9.58924e+06
12594
9.58887e+06
11150.3
9.59234e+06
7567.56
9.59981e+06
3889.38
9.6142e+06
560.558
9.63448e+06
-2116.91
9.65623e+06
-4474.12
9.67585e+06
-5381.06
9.69156e+06
-4773.17
9.70459e+06
-2039.35
9.71508e+06
1992.37
9.72443e+06
5999.05
9.73152e+06
10024.8
9.73713e+06
12980.9
9.74083e+06
15082.2
9.74384e+06
15957.3
9.74627e+06
16357.7
9.74881e+06
15788.3
9.752e+06
15046.4
9.75555e+06
14120
9.75989e+06
12900.2
9.76473e+06
11881.3
9.76998e+06
10683.8
9.77572e+06
9746.19
9.78156e+06
8778.76
9.78763e+06
7995.73
9.7939e+06
7220.17
9.79994e+06
6867.47
9.80625e+06
6265.2
9.81265e+06
6055.35
9.81901e+06
6066.22
9.82485e+06
6305.35
9.82902e+06
6744.2
9.82979e+06
7460.9
9.82544e+06
8908.01
9.81501e+06
12402
9.79777e+06
20909.1
9.77558e+06
40985.9
9.78011e+06
89040.9
9.94643e+06
190064
264032
9.98835e+06
-700.097
678.967
9.94525e+06
-7662.71
6672.14
9.90302e+06
-7675.16
6322.8
9.86226e+06
-7496.62
5857.17
9.82313e+06
-7243.23
5383.01
9.78583e+06
-6945.05
4987.42
9.75085e+06
-6589.89
4589.83
9.71801e+06
-6154.12
4937.56
9.68832e+06
-5632.08
5443.9
9.66074e+06
-5097.74
7137.65
9.63517e+06
-4617.77
9479.93
9.61238e+06
-3979.75
12725.2
9.59536e+06
-2846.46
16317.4
9.58586e+06
-1330.65
17367.4
9.58552e+06
622.504
16302.5
9.58748e+06
791.882
10539
9.59653e+06
1991.32
6397.52
9.61009e+06
1960.86
-258.363
9.63259e+06
3701.16
-3007.12
9.65525e+06
3528.41
-7281.68
9.67811e+06
3898.04
-8078.03
9.69495e+06
2832.17
-7148.53
9.70884e+06
2565.85
-2685.06
9.71965e+06
2340.71
3627.64
9.72821e+06
2510.46
10790.1
9.73472e+06
2669.87
17268.3
9.73921e+06
2754.15
22185.2
9.74199e+06
2693.72
25369.5
9.74374e+06
2612.89
26722.5
9.74556e+06
2493.17
26478.4
9.74748e+06
2425.52
25564.7
9.75037e+06
2346.63
23572
9.75403e+06
2313.6
21793.8
9.75814e+06
2254.55
19915.5
9.76326e+06
2222.47
17756.2
9.76858e+06
2153.85
16053.4
9.77425e+06
2104.89
14537.5
9.78019e+06
2023.07
12924.9
9.78651e+06
1966.28
11512
9.79261e+06
1890.12
10629.1
9.79925e+06
1849.03
9590.52
9.80558e+06
1802.52
9148.16
9.81225e+06
1796.47
8631.26
9.81889e+06
1785.69
8607.13
9.82511e+06
1761.59
8912.5
9.82985e+06
1593.24
9414.63
9.83166e+06
1178.49
10123.5
9.82949e+06
477.393
11405.5
9.82388e+06
-331.676
14460.3
9.81785e+06
-920.762
21697
9.82181e+06
-1121.72
37377.7
9.87425e+06
522.496
66416.9
1.00223e+07
7234.9
98410.8
5141.28
79324.5
9.98799e+06
674.534
9.94523e+06
6617.37
9.9032e+06
6253.11
9.86252e+06
5793.43
9.82343e+06
5333.58
9.78618e+06
4960.09
9.75129e+06
4590.96
9.71853e+06
4974.1
9.68886e+06
5516.39
9.66122e+06
7244.21
9.6358e+06
9559.59
9.61351e+06
12659.9
9.59687e+06
15698.5
9.58781e+06
17034.3
9.58569e+06
14861.2
9.58868e+06
10786.4
9.5965e+06
5510.85
9.61183e+06
459.677
9.63242e+06
-3580.61
9.65562e+06
-6559.93
9.67705e+06
-8063.67
9.69468e+06
-6417.04
9.70862e+06
-2262.13
9.71982e+06
4032.66
9.72837e+06
11028
9.7348e+06
17516.5
9.73915e+06
22414.5
9.74191e+06
25652
9.74362e+06
26957.4
9.74549e+06
26709.3
9.7474e+06
25708.5
9.75033e+06
23692.2
9.75397e+06
21828.3
9.7581e+06
19934.6
9.76319e+06
17707.3
9.76853e+06
16005.4
9.77417e+06
14442
9.78013e+06
12845.4
9.78643e+06
11402.9
9.79257e+06
10546.8
9.79921e+06
9492.35
9.80557e+06
9082.57
9.81224e+06
8558.63
9.81887e+06
8553.95
9.82495e+06
8833.74
9.82943e+06
9324.8
9.83096e+06
10049
9.82868e+06
11450.7
9.8233e+06
14781.8
9.81764e+06
22496.1
9.82345e+06
38994.6
9.88097e+06
68814.5
1.00202e+07
98965
79169.2
9.98829e+06
-704.53
757.309
9.9449e+06
-7717.49
7189.07
9.90256e+06
-7744.84
6796.18
9.86179e+06
-7560.36
6313.74
9.82274e+06
-7292.81
5825.91
9.78583e+06
-6972.24
5234.93
9.75081e+06
-6588.89
5273.44
9.71871e+06
-6117.58
5527.22
9.68963e+06
-5559.48
6223.12
9.66338e+06
-4991.19
8015.15
9.63881e+06
-4538.16
10718.7
9.61598e+06
-4045.14
14658
9.59622e+06
-3465.39
18395.1
9.58539e+06
-1663.79
20543.9
9.57968e+06
-819.056
18568.4
9.58335e+06
1039.43
13797.7
9.59067e+06
1104.39
6787.39
9.60745e+06
2679.2
233.168
9.62882e+06
3127.35
-5165.85
9.65525e+06
4250.56
-9180.53
9.67924e+06
3912.34
-10738.5
9.70009e+06
3564.14
-8834.11
9.71574e+06
2989.12
-2644.62
9.7274e+06
2746.1
6538.23
9.73527e+06
2748.6
17303.3
9.74032e+06
2918.24
27163.2
9.74279e+06
2983.52
34591
9.74374e+06
2976.34
39040.1
9.74419e+06
2847.92
40207
9.74475e+06
2724.23
39306
9.74628e+06
2569.37
36743
9.7486e+06
2466.87
33533.3
9.75206e+06
2348.09
30037.5
9.75657e+06
2273.64
26755
9.76136e+06
2173.56
23798.8
9.76706e+06
2105.8
20841.2
9.77304e+06
2009.36
18557.6
9.77908e+06
1943.58
16562.2
9.78523e+06
1857.17
14626.7
9.79177e+06
1807.83
13175.9
9.79841e+06
1750.86
11812.4
9.80546e+06
1736.96
10989.9
9.81222e+06
1723.8
10740.1
9.8192e+06
1732.54
10503.5
9.82562e+06
1682.84
10806.7
9.83055e+06
1503.41
11315.8
9.83294e+06
1103.95
11962.5
9.83255e+06
522.564
13076.1
9.83112e+06
-10.1495
15674
9.83353e+06
-121.703
21402
9.85085e+06
495.195
31936.5
9.90625e+06
2920.1
46472.8
1.00033e+07
7789.11
53826.1
4985.96
30543.4
9.98792e+06
736.779
9.94487e+06
7021.5
9.90274e+06
6674.56
9.86206e+06
6221.73
9.82306e+06
5759.32
9.78621e+06
5195.03
9.75128e+06
5263.54
9.71927e+06
5546.93
9.69019e+06
6266.71
9.66384e+06
8066.14
9.6393e+06
10721.9
9.61656e+06
14414.3
9.59802e+06
18040.6
9.58624e+06
19396.8
9.58153e+06
17897.7
9.58341e+06
13227.8
9.59225e+06
6792.02
9.6079e+06
580.356
9.62994e+06
-5027.51
9.65491e+06
-8736.84
9.67889e+06
-10433
9.69952e+06
-8124.19
9.71549e+06
-2223.56
9.7274e+06
6852.17
9.73544e+06
17589.7
9.74039e+06
27427.5
9.74278e+06
34968.4
9.74362e+06
39515.9
9.74407e+06
40755.2
9.7446e+06
39857.5
9.74618e+06
37252
9.74848e+06
33955.3
9.75199e+06
30367.3
9.75647e+06
26985.8
9.7613e+06
23950.1
9.76697e+06
20920.4
9.77297e+06
18588.4
9.77899e+06
16552.3
9.78518e+06
14595.8
9.79171e+06
13127.6
9.7984e+06
11760.5
9.80545e+06
10933.7
9.81223e+06
10684.2
9.81915e+06
10433.1
9.82544e+06
10704.2
9.83015e+06
11173.1
9.83236e+06
11812.6
9.83202e+06
13009
9.83101e+06
15787.3
9.83414e+06
21761.7
9.85327e+06
32579.2
9.91112e+06
47165.3
1.00005e+07
53297
29839.6
9.98808e+06
-725.06
730.841
9.94451e+06
-7885.06
7165.87
9.90207e+06
-7866.45
6846.47
9.8613e+06
-7652.51
6399.58
9.82235e+06
-7359.25
5933.6
9.78547e+06
-7012
5365.63
9.75106e+06
-6598.92
5436.38
9.7198e+06
-6097.86
5535.73
9.69161e+06
-5516.11
6487.44
9.66629e+06
-4940.3
8341.71
9.64256e+06
-4534.98
11099.2
9.61953e+06
-4288.76
15151.4
9.59897e+06
-3820.11
19071
9.58353e+06
-2811.06
21900.6
9.57531e+06
-1489.96
20534.5
9.57704e+06
469.44
16639.5
9.58463e+06
1109.06
7958.06
9.60275e+06
3026.53
1327.34
9.62521e+06
3265.72
-7165
9.65439e+06
4694.52
-11157.8
9.68173e+06
4218
-14165.3
9.70707e+06
4274.73
-10833.5
9.7258e+06
3410.64
-3090.76
9.73865e+06
3060.37
10007.8
9.74601e+06
3035.32
25608.6
9.74854e+06
3182.85
40580.5
9.74783e+06
3361.25
51737.1
9.7457e+06
3452.44
57777.1
9.74369e+06
3396.46
58500.6
9.74289e+06
3276
55852.7
9.74357e+06
3078.52
50957.8
9.7458e+06
2889.06
45381.6
9.74918e+06
2678.02
39780.7
9.75372e+06
2504.59
34529.3
9.75901e+06
2324.84
29990.6
9.76459e+06
2185.06
26060.6
9.77085e+06
2040.19
22423.1
9.77734e+06
1933.74
19690.3
9.78398e+06
1826.27
17151.4
9.7908e+06
1759.53
15247.1
9.79759e+06
1698.96
13720.9
9.80481e+06
1680.78
12462.6
9.81219e+06
1667.86
12052.6
9.8195e+06
1662.04
11733.9
9.82612e+06
1580.35
11950.7
9.8312e+06
1360.72
12318.2
9.83406e+06
954.072
12680.3
9.83515e+06
455.479
13270.3
9.83685e+06
103.061
14846.7
9.84406e+06
237.914
18486.5
9.86538e+06
1137.92
24799.9
9.9136e+06
3612.59
31795
9.97997e+06
7260
31528.9
4282.19
14578.4
9.98773e+06
724.075
9.94452e+06
7084.25
9.90229e+06
6753.93
9.86159e+06
6318.6
9.82269e+06
5875.04
9.78588e+06
5338.14
9.75156e+06
5449.44
9.72039e+06
5596.84
9.69219e+06
6601.21
9.6667e+06
8499.38
9.6428e+06
11275.6
9.62e+06
15201.9
9.59998e+06
18824.9
9.58485e+06
21010.3
9.57727e+06
20105.7
9.57768e+06
15261.7
9.58654e+06
8366.1
9.60299e+06
561.976
9.62664e+06
-6301.33
9.65391e+06
-11307.7
9.68179e+06
-13148.1
9.70621e+06
-10264.1
9.72545e+06
-2265.22
9.73863e+06
10591.1
9.74616e+06
25932.5
9.74872e+06
40715.3
9.74792e+06
51871.8
9.74565e+06
57893.4
9.74357e+06
58651.6
9.74269e+06
55967.4
9.74338e+06
51078.2
9.74559e+06
45444.4
9.74901e+06
39833.5
9.75354e+06
34521.5
9.75887e+06
29975.3
9.76444e+06
25996.8
9.77074e+06
22364.5
9.77724e+06
19601.1
9.78391e+06
17081.3
9.79074e+06
15163.8
9.79757e+06
13667.3
9.8048e+06
12408.7
9.81218e+06
12022.9
9.81942e+06
11686.3
9.82591e+06
11876.7
9.83079e+06
12200.2
9.83356e+06
12569.4
9.83479e+06
13263.1
9.83698e+06
15047.8
9.84496e+06
18939.7
9.86786e+06
25412.4
9.91725e+06
31998.2
9.97699e+06
30628.6
13940.4
9.988e+06
-731.826
727.978
9.94419e+06
-7966.68
6896.08
9.90163e+06
-7959
6550.22
9.86083e+06
-7733.65
6133.14
9.82208e+06
-7417.61
5623.06
9.78534e+06
-7039.65
5329.04
9.75136e+06
-6585.86
5394.51
9.72056e+06
-6036.76
5604.2
9.69327e+06
-5402.23
6673.95
9.66925e+06
-4782.72
8428.25
9.64661e+06
-4358.51
11422.5
9.62404e+06
-4238.36
15216.9
9.60201e+06
-4066.36
19237.6
9.58237e+06
-3701.67
22049.4
9.57193e+06
-1918.91
22265.5
9.56868e+06
-908.73
17424.9
9.57851e+06
1517.29
9905.16
9.59497e+06
2260.84
711.871
9.62182e+06
4130.05
-7953.55
9.65228e+06
4544.41
-14241.7
9.68576e+06
5236.04
-17254.6
9.7157e+06
4844.52
-14117.5
9.73968e+06
4237.03
-4060.59
9.75503e+06
3644.44
13194.3
9.76177e+06
3359.61
35376.1
9.76059e+06
3317.68
57191.3
9.75456e+06
3496
73455.3
9.74741e+06
3568.76
81016.6
9.74164e+06
3547.52
80719
9.73869e+06
3390.8
74917.5
9.7385e+06
3199.12
66656.8
9.74051e+06
2951.91
57844.7
9.74443e+06
2730.85
49338
9.74939e+06
2496.84
41937.3
9.75528e+06
2309.64
35573.2
9.76155e+06
2121.36
30344.9
9.76811e+06
1981.62
25758
9.77501e+06
1844.57
22058.9
9.78188e+06
1756.26
19175.5
9.78908e+06
1676.22
16630.6
9.79653e+06
1645.38
14820.6
9.8042e+06
1626.91
13340.8
9.81226e+06
1638.26
12619.4
9.81972e+06
1614.36
12591.3
9.82649e+06
1506.37
12504
9.83156e+06
1242.68
12688.9
9.83465e+06
843.212
12776
9.83672e+06
448.242
12921.1
9.84049e+06
304.174
13675.3
9.85037e+06
691.142
15673.7
9.87238e+06
1750.4
18883
9.91333e+06
3815.79
21513.8
9.96302e+06
6359.66
19053
3644.16
7928.31
9.98764e+06
706.949
9.94419e+06
6716.5
9.90185e+06
6409.27
9.86115e+06
6021.49
9.82246e+06
5540.16
9.78579e+06
5279.15
9.75191e+06
5382.45
9.7212e+06
5633.08
9.69389e+06
6738.7
9.66967e+06
8516.99
9.64673e+06
11499.9
9.62422e+06
15196.4
9.60238e+06
18881.8
9.58416e+06
21567.6
9.57294e+06
21068.4
9.57111e+06
16904.9
9.57926e+06
9545.53
9.59684e+06
881.232
9.62224e+06
-7372
9.65297e+06
-13849.5
9.68536e+06
-16472
9.71509e+06
-13595.1
9.73909e+06
-3546.86
9.75475e+06
13661.4
9.76173e+06
35411.7
9.76077e+06
57309.1
9.75463e+06
73448.8
9.74739e+06
81208.1
9.74148e+06
81151.2
9.7385e+06
75505.1
9.73825e+06
67254.3
9.74028e+06
58380.6
9.7442e+06
49757.3
9.7492e+06
42250.4
9.75509e+06
35777.7
9.76141e+06
30474.6
9.76798e+06
25819.7
9.77492e+06
22084.2
9.7818e+06
19167.7
9.78905e+06
16613.5
9.79652e+06
14792.3
9.80422e+06
13314
9.81224e+06
12580
9.81961e+06
12525
9.82623e+06
12385.2
9.83116e+06
12517.4
9.83425e+06
12597.2
9.83658e+06
12815.4
9.84088e+06
13713.9
9.85143e+06
15857.2
9.87444e+06
19113.2
9.91588e+06
21538.2
9.96031e+06
18468.4
7577.13
9.98779e+06
-752.855
609.83
9.94384e+06
-8146.27
5977.87
9.90121e+06
-8099.95
5735.82
9.86042e+06
-7845.3
5413.12
9.82178e+06
-7500.55
4906.43
9.7853e+06
-7089.84
4923.9
9.75177e+06
-6597.91
5003.46
9.72163e+06
-6008
5318.13
9.69542e+06
-5337.59
6258.68
9.67205e+06
-4694.07
8405.58
9.65061e+06
-4281.21
10912
9.62847e+06
-4259.07
14527.8
9.60494e+06
-4422.26
18555.3
9.58301e+06
-4183.67
21770.2
9.56751e+06
-3116.3
22626.8
9.56198e+06
-1428.96
18694.9
9.56985e+06
1157.54
12411.1
9.58703e+06
2430.34
1056.72
9.61635e+06
4711.92
-8019.25
9.65027e+06
4936.65
-18081.1
9.68959e+06
6019.23
-21902.9
9.72665e+06
5367.07
-20378.7
9.75764e+06
4751.17
-8614.05
9.77822e+06
4112.1
14503.6
9.7843e+06
3395.02
45767
9.77776e+06
3435.34
78578.4
9.76301e+06
3489.17
102746
9.74771e+06
3760.16
112560
9.73682e+06
3979.9
109559
9.73113e+06
3978.69
99183.7
9.73029e+06
3797.09
85602.8
9.7328e+06
3488.1
72212.4
9.73744e+06
3150.48
60078.4
9.74343e+06
2810.04
49765.4
9.75016e+06
2514.23
41273.3
9.75737e+06
2251.1
34337.9
9.76462e+06
2043.33
28737.7
9.77193e+06
1869.86
24208
9.77973e+06
1748.43
20317.5
9.78728e+06
1659.15
17709.4
9.79525e+06
1617.2
15372.7
9.80348e+06
1600.11
13654.2
9.81184e+06
1598.8
12760.6
9.81983e+06
1548.08
12579.8
9.82668e+06
1387.59
12311.8
9.83165e+06
1071.23
12247.5
9.83479e+06
664.408
12001.9
9.83748e+06
342.546
11678.7
9.84249e+06
342.766
11699.2
9.85358e+06
874.638
12486.8
9.87501e+06
1980.55
13899.1
9.91087e+06
3840.22
14559.3
9.9519e+06
5775.04
11921.8
3292.97
4704.2
9.98745e+06
604.016
9.94389e+06
5907.72
9.90147e+06
5661.76
9.86077e+06
5352.51
9.82219e+06
4868.83
9.7858e+06
4918
9.75236e+06
5038.63
9.7223e+06
5402.39
9.69607e+06
6394.8
9.67247e+06
8591.32
9.65063e+06
11121.1
9.62831e+06
14707.6
9.60518e+06
18535.4
9.58407e+06
21428.6
9.5692e+06
21701.6
9.56457e+06
18319.4
9.57112e+06
11109.4
9.58931e+06
1527.11
9.61657e+06
-8657.89
9.65135e+06
-17075.6
9.68894e+06
-21506.1
9.72604e+06
-19265.9
9.757e+06
-7319.96
9.7775e+06
15338.5
9.78434e+06
46472
9.77781e+06
78679.4
9.76328e+06
102667
9.74793e+06
112348
9.73682e+06
109294
9.73095e+06
98994.6
9.72998e+06
85483.7
9.73246e+06
72169.1
9.7371e+06
60053.2
9.74314e+06
49761.3
9.7499e+06
41253.1
9.75716e+06
34321.8
9.76445e+06
28704.1
9.77181e+06
24183.5
9.77964e+06
20286.8
9.78723e+06
17698.2
9.79524e+06
15367.6
9.80348e+06
13670.6
9.81179e+06
12772.3
9.81967e+06
12572.2
9.82636e+06
12252.5
9.83124e+06
12142.5
9.83447e+06
11895.2
9.83748e+06
11646.7
9.84302e+06
11797.6
9.85469e+06
12700.3
9.87687e+06
14110.8
9.91281e+06
14532.6
9.94941e+06
11598.2
4482.83
9.98772e+06
-758.67
517.636
9.9436e+06
-8216.41
4900.18
9.90089e+06
-8174
4683.99
9.86012e+06
-7905.92
4454.05
9.8215e+06
-7538.17
4080.76
9.78538e+06
-7095.69
4262.22
9.75248e+06
-6562.75
4326.11
9.72287e+06
-5923.94
5122.21
9.69718e+06
-5201.59
6223.62
9.67515e+06
-4508.33
8176.45
9.65443e+06
-4072.37
10864.6
9.63271e+06
-4079.35
14255.9
9.60856e+06
-4442.44
17999
9.58428e+06
-4525.56
21362.2
9.5641e+06
-4041.85
22219.7
9.55614e+06
-1804.69
20191.4
9.55943e+06
-144.662
12644.9
9.57879e+06
2901.12
2449.75
9.60722e+06
4072.67
-9640.36
9.64707e+06
5942.94
-21244.7
9.69212e+06
6415.82
-28662.1
9.73913e+06
6480.71
-29298.2
9.78168e+06
6046.85
-17072.2
9.81003e+06
4948.15
12382.7
9.81807e+06
4101.04
57152.8
9.80275e+06
3535.83
106882
9.77342e+06
3409.76
141873
9.74558e+06
3547.05
152736
9.72704e+06
3714.64
143896
9.71854e+06
3789.38
125534
9.71741e+06
3678.03
104775
9.72118e+06
3445.06
85594.2
9.72764e+06
3125.44
69239.8
9.73545e+06
2806.17
56013.5
9.74363e+06
2494.09
45608
9.75207e+06
2235.22
37168
9.7603e+06
2009.78
30720
9.76863e+06
1845.45
25345.2
9.77673e+06
1717.74
21162.3
9.78533e+06
1648.04
17835.7
9.79393e+06
1612.2
15448.8
9.80259e+06
1616.46
13770
9.81146e+06
1610.52
12533.2
9.81976e+06
1540.52
12211.6
9.82661e+06
1328.24
11747.6
9.8314e+06
966.253
11443.3
9.83447e+06
557.706
10915.9
9.8375e+06
310.587
10252.6
9.84328e+06
441.228
9777.63
9.855e+06
1088.23
9770.74
9.87567e+06
2192.2
10067.5
9.90824e+06
3813.51
9789.9
9.94468e+06
5451.44
7551.16
3071.61
2860.33
9.98738e+06
501.737
9.94364e+06
4763.05
9.90116e+06
4570.81
9.86049e+06
4363.04
9.82195e+06
4014.97
9.78592e+06
4227.12
9.75312e+06
4326.84
9.72359e+06
5161.06
9.69787e+06
6298.48
9.67559e+06
8275.37
9.65442e+06
10968
9.63235e+06
14316.9
9.60848e+06
17926.6
9.58477e+06
20948.3
9.56634e+06
21730.2
9.5578e+06
19065.1
9.56247e+06
12225.1
9.57996e+06
2170.12
9.60909e+06
-9469.92
9.64754e+06
-20485.1
9.69219e+06
-28282.6
9.73869e+06
-28719.3
9.78057e+06
-16344.2
9.80918e+06
12763.7
9.8175e+06
58254.1
9.80262e+06
107015
9.77356e+06
141133
9.74575e+06
152326
9.72711e+06
144188
9.71843e+06
126211
9.71718e+06
105530
9.72086e+06
86237.5
9.72732e+06
69739.8
9.73514e+06
56364.2
9.74337e+06
45854
9.75185e+06
37324.6
9.76013e+06
30826.6
9.76851e+06
25408.3
9.77666e+06
21209.9
9.7853e+06
17866.8
9.79394e+06
15480.1
9.80258e+06
13790.8
9.81139e+06
12538
9.81955e+06
12172.4
9.82625e+06
11651.5
9.831e+06
11299.9
9.83422e+06
10773
9.83763e+06
10173.7
9.84392e+06
9798.89
9.8561e+06
9871.99
9.87729e+06
10168.8
9.90987e+06
9782.45
9.9423e+06
7365.77
2764.52
9.98757e+06
-774.569
335.577
9.94338e+06
-8353.54
3287.98
9.90066e+06
-8287.18
3188.97
9.85995e+06
-7996.93
3100.85
9.82148e+06
-7604.11
2901.7
9.78565e+06
-7130.79
3284.53
9.75298e+06
-6562.01
3562.62
9.72417e+06
-5885.11
4465.04
9.69923e+06
-5126.96
5923.46
9.67785e+06
-4409.5
7854.71
9.65812e+06
-3969.12
10308.5
9.63676e+06
-4018.57
13747.3
9.61204e+06
-4515.09
17305.2
9.58566e+06
-4939.92
20399.4
9.56251e+06
-4531.81
22082.2
9.54943e+06
-2931.47
20718.5
9.5499e+06
-564.723
14218.2
9.56727e+06
2621.49
4669.44
9.59657e+06
4243.18
-10781
9.6404e+06
6703
-24785.7
9.69192e+06
6794.34
-39550.9
9.75169e+06
7058.54
-46018.8
9.81131e+06
6774.09
-35475.5
9.85493e+06
5328.43
2340.74
9.86806e+06
5203.9
69543.4
9.8381e+06
3667.45
145774
9.78475e+06
2667.3
198840
9.73748e+06
3136.45
208606
9.70925e+06
4006.63
188622
9.69848e+06
4467.94
157332
9.69894e+06
4433.53
126153
9.70564e+06
4089
99350.4
9.71503e+06
3625.84
78076.4
9.72516e+06
3157.14
61792.2
9.7356e+06
2740.31
49029.9
9.74554e+06
2391.89
39395
9.75532e+06
2116.46
31793.9
9.76446e+06
1908.61
26119.3
9.7736e+06
1765.31
21330.6
9.78275e+06
1679.19
17701.1
9.79206e+06
1643.51
15096.8
9.80155e+06
1637.18
13239.1
9.81094e+06
1615.25
11840.2
9.8195e+06
1501.42
11333.7
9.82631e+06
1232.15
10656.1
9.83088e+06
822.924
10117.1
9.83381e+06
414.785
9355.95
9.83702e+06
231.663
8452.36
9.84327e+06
462.49
7666.76
9.85529e+06
1189.48
7218.65
9.87539e+06
2293.46
7000.45
9.906e+06
3806.05
6436.64
9.93999e+06
5266.05
4754.23
2975.79
1772.79
9.98724e+06
332.108
9.94345e+06
3247.96
9.90095e+06
3155.61
9.86034e+06
3082.25
9.82196e+06
2903.89
9.78622e+06
3313.98
9.75366e+06
3625.97
9.72493e+06
4566.45
9.69995e+06
6064.61
9.67829e+06
8028.3
9.65807e+06
10506.4
9.63626e+06
13927.4
9.61162e+06
17415.4
9.58607e+06
20288
9.56411e+06
21667.2
9.5518e+06
19750.7
9.55308e+06
13786.4
9.5689e+06
3218.41
9.59903e+06
-10456.6
9.64049e+06
-25552.1
9.69219e+06
-38952.8
9.75141e+06
-44451.9
9.80986e+06
-33984.8
9.8548e+06
6030.16
9.86652e+06
71216.2
9.8371e+06
146816
9.78522e+06
199230
9.73835e+06
207850
9.70971e+06
187660
9.69844e+06
156701
9.6986e+06
125871
9.70518e+06
99276.5
9.71456e+06
78091.5
9.72475e+06
61832.6
9.73525e+06
49070.7
9.74526e+06
39429.2
9.75511e+06
31823.9
9.76432e+06
26148.9
9.77352e+06
21365.6
9.78272e+06
17745.9
9.79205e+06
15153.7
9.80153e+06
13303
9.81083e+06
11894.2
9.81923e+06
11353.8
9.8259e+06
10626
9.83047e+06
10047.8
9.83362e+06
9290.68
9.83725e+06
8441.4
9.844e+06
7737.32
9.8564e+06
7346.81
9.8769e+06
7117.93
9.90746e+06
6456.09
9.9377e+06
4687.9
1718.62
9.98753e+06
-778.038
174.688
9.94328e+06
-8393.56
1636.94
9.90057e+06
-8320.55
1615.25
9.85995e+06
-8015.54
1672.58
9.82167e+06
-7601.92
1670.23
9.78613e+06
-7101.49
2289.91
9.75388e+06
-6498.79
2832.4
9.72553e+06
-5783.6
3999.92
9.70136e+06
-4985.87
5691.38
9.68071e+06
-4236.18
7780.96
9.66147e+06
-3771.35
10293.7
9.64062e+06
-3838.69
13557.3
9.61584e+06
-4405.31
16969.7
9.58776e+06
-5051.77
20050
9.56178e+06
-4947.33
21850.3
9.5434e+06
-3899.85
20710.9
9.54113e+06
-996.733
15807.5
9.55272e+06
1169.92
4755.96
9.58298e+06
4567.9
-10736.1
9.62602e+06
5934.85
-30551.3
9.6857e+06
7391.25
-51834.3
9.76179e+06
8624.96
-68951.4
9.84848e+06
8263.77
-64991.9
9.92166e+06
9026.43
-20198.6
9.94384e+06
6878.69
80715.2
9.89077e+06
4710.29
208641
9.79461e+06
3056.79
284886
9.7178e+06
2378.45
284784
9.67851e+06
3043.07
241171
9.66772e+06
3836.65
189088
9.67297e+06
4152.54
143722
9.6849e+06
4015.47
108926
9.69898e+06
3641.31
83070.6
9.71312e+06
3197.76
64173.8
9.72628e+06
2781.39
50161.4
9.73844e+06
2426.41
39723.4
9.74956e+06
2146.6
31816.8
9.76007e+06
1938.27
25792.5
9.77018e+06
1800.46
20849.8
9.78015e+06
1724.01
17109.5
9.7902e+06
1700.49
14422.4
9.80036e+06
1701.13
12476
9.81023e+06
1669.31
10964.4
9.81902e+06
1521.47
10295.3
9.82577e+06
1202.03
9421.26
9.83012e+06
753.655
8680.7
9.8329e+06
349.518
7751.41
9.83624e+06
220.7
6708.38
9.84282e+06
533.054
5765.31
9.85507e+06
1317.65
5092.34
9.87483e+06
2410.94
4629.75
9.90431e+06
3825.5
4041.24
9.93701e+06
5199.73
2884.81
2921.62
1050.78
9.9872e+06
166.794
9.94336e+06
1570.77
9.90087e+06
1554.57
9.86036e+06
1623.84
9.82217e+06
1639.02
9.78673e+06
2280.77
9.7546e+06
2847.75
9.72633e+06
4039.62
9.70211e+06
5750.25
9.68117e+06
7852.21
9.6614e+06
10361.1
9.64005e+06
13600.9
9.61519e+06
16946.4
9.58787e+06
19884
9.56283e+06
21363.4
9.5463e+06
20178.2
9.54329e+06
14633.1
9.55612e+06
4246.83
9.58435e+06
-11221.8
9.62748e+06
-30663.4
9.68694e+06
-51356.5
9.76143e+06
-69713.3
9.84924e+06
-62954.1
9.9195e+06
-21330.1
9.94167e+06
82320.6
9.88911e+06
208885
9.79393e+06
280896
9.71846e+06
283440
9.67931e+06
242271
9.66803e+06
190859
9.67283e+06
145226
9.68453e+06
109972
9.69854e+06
83725.2
9.7127e+06
64576.8
9.72592e+06
50403.2
9.73816e+06
39882.1
9.74935e+06
31922
9.75994e+06
25878
9.7701e+06
20919.8
9.78012e+06
17180
9.7902e+06
14487.1
9.80032e+06
12535.8
9.81009e+06
10998
9.8187e+06
10288.6
9.82532e+06
9363.76
9.82971e+06
8592.34
9.83277e+06
7672.05
9.83655e+06
6678.9
9.8436e+06
5801.84
9.85617e+06
5173.09
9.87624e+06
4708.78
9.90569e+06
4072.2
9.93473e+06
2852.65
1031.78
9.98747e+06
-785.932
-34.0112
9.94326e+06
-8459.72
-346.362
9.90063e+06
-8381.23
-261.546
9.86014e+06
-8064.44
-40.8285
9.82209e+06
-7633.14
172.266
9.78687e+06
-7110.63
1043.95
9.75486e+06
-6483.45
2057.03
9.72703e+06
-5744.02
3291.85
9.70365e+06
-4927
5009.57
9.68362e+06
-4165.09
7438.27
9.66474e+06
-3704.24
10183.6
9.64414e+06
-3795.28
13176.2
9.61903e+06
-4428.84
16561.5
9.59008e+06
-5218.23
19375.4
9.56108e+06
-5434.89
21593.3
9.53916e+06
-4433.27
21276.9
9.53048e+06
-2171.59
17340.5
9.53787e+06
660.788
6766.32
9.56363e+06
4082.35
-9376.96
9.60499e+06
5822.11
-35673.9
9.66778e+06
7866.82
-69747.5
9.76441e+06
7854.14
-105599
9.89113e+06
10297
-129916
1.00201e+07
7879
-86415.7
1.00702e+07
8481.8
69854.3
9.96575e+06
4948.81
298545
9.7935e+06
-943.644
422703
9.6738e+06
1031.96
394126
9.62651e+06
4143.61
307445
9.62309e+06
5608.92
223593
9.63854e+06
5656.96
159729
9.6597e+06
5062.6
115274
9.68062e+06
4296.69
85006.5
9.69963e+06
3601.35
64062.9
9.71616e+06
3023.52
49407
9.73065e+06
2585.14
38735.6
9.74354e+06
2251.87
30772.1
9.75553e+06
2023.81
24576.6
9.76664e+06
1870.46
19849.4
9.77727e+06
1794.53
16325.6
9.78806e+06
1765.15
13417.3
9.79904e+06
1760.94
11217.6
9.80937e+06
1702.83
9784.06
9.81835e+06
1514.78
8954.29
9.82503e+06
1144.56
7895.2
9.82919e+06
665.288
6997.54
9.83186e+06
270.159
5970.1
9.83529e+06
191.226
4878.66
9.84215e+06
569.58
3897.94
9.85461e+06
1398.39
3165.82
9.87424e+06
2489.97
2673.36
9.90316e+06
3856.46
2219.59
9.93517e+06
5167.56
1542.19
2902.62
561.23
9.98714e+06
-34.8003
9.94334e+06
-352.465
9.90094e+06
-248.67
9.86058e+06
-11.9148
9.82261e+06
218.036
9.7875e+06
1109.09
9.7556e+06
2143.34
9.72785e+06
3399.26
9.70441e+06
5134.2
9.68408e+06
7577.57
9.66465e+06
10324.4
9.64351e+06
13313.4
9.61825e+06
16649.6
9.58986e+06
19374.7
9.56208e+06
21362.6
9.54141e+06
20736.9
9.53331e+06
16187
9.54129e+06
6019.86
9.56537e+06
-11248.5
9.60704e+06
-36542
9.66778e+06
-71656.2
9.76687e+06
-102824
9.8887e+06
-133181
1.00207e+07
-80989.6
1.00666e+07
71522.4
9.95985e+06
297180
9.79548e+06
422563
9.67691e+06
390219
9.62797e+06
304717
9.62314e+06
222834
9.63795e+06
159982
9.65894e+06
115759
9.67993e+06
85435.6
9.69905e+06
64357.4
9.71572e+06
49608.5
9.73032e+06
38864.4
9.74331e+06
30873.3
9.75538e+06
24654.3
9.76656e+06
19929.7
9.77724e+06
16402.1
9.78806e+06
13503.9
9.79898e+06
11297.5
9.80918e+06
9852.23
9.81798e+06
8987.01
9.82455e+06
7891.21
9.82879e+06
6969.87
9.83178e+06
5949.36
9.83567e+06
4897.14
9.84298e+06
3963.93
9.8557e+06
3264.94
9.8756e+06
2769.3
9.90447e+06
2276.22
9.93291e+06
1560.05
561.253
9.98747e+06
-786.721
-235.609
9.94335e+06
-8465.83
-2281.85
9.90085e+06
-8368.35
-2079.48
9.86056e+06
-8035.69
-1684.95
9.82256e+06
-7587.37
-1047.38
9.78788e+06
-7045.35
-305.411
9.75648e+06
-6397.26
1194.19
9.72914e+06
-5636.96
2711.09
9.70588e+06
-4802.47
4871.98
9.68636e+06
-4025.8
7284.75
9.66812e+06
-3563.68
10110.4
9.64762e+06
-3658.36
13286.6
9.62244e+06
-4341.29
16471.2
9.59231e+06
-5219.57
19498
9.56119e+06
-5666.31
21650.8
9.53558e+06
-4974.14
21819.7
9.52042e+06
-3325.63
18281
9.5221e+06
-85.4875
9391.71
9.53757e+06
2211.66
-8981.82
9.57029e+06
4954.19
-38242.2
9.63058e+06
5953.88
-80802.1
9.73679e+06
10624
-152101
9.92877e+06
6997.81
-256066
1.01696e+07
13310.9
-247188
1.02947e+07
10136.5
-12121.3
1.0086e+07
3566.93
481411
9.76235e+06
-1081.67
727246
9.58636e+06
-2879.77
574731
9.54253e+06
1415.52
383151
9.55967e+06
4851.3
247857
9.5946e+06
5911.94
163589
9.62982e+06
5548.83
112207
9.66023e+06
4726.56
80268.7
9.68521e+06
3896.36
59597.5
9.70571e+06
3225.32
45694.7
9.7229e+06
2714.17
35687.5
9.73775e+06
2353.21
28287.3
9.75081e+06