/*--------------------------------*- C++ -*----------------------------------*\
| =========                 |                                                 |
| \\      /  F ield         | OpenFOAM: The Open Source CFD Toolbox           |
|  \\    /   O peration     | Version:  4.1                                   |
|   \\  /    A nd           | Web:      www.OpenFOAM.org                      |
|    \\/     M anipulation  |                                                 |
\*---------------------------------------------------------------------------*/
FoamFile
{
    version     2.0;
    format      ascii;
    class       volVectorField;
    location    "1";
    object      U;
}
// * * * * * * * * * * * * * * * * * * * * * * * * * * * * * * * * * * * * * //

dimensions      [0 1 -1 0 0 0 0];

internalField   nonuniform List<vector> 
4432
(
(39.9799 -0.00131601 0.00130125)
(39.8253 -0.0147478 0.0106528)
(39.6574 -0.0148555 0.00940244)
(39.4796 -0.0145392 0.00849744)
(39.3093 -0.0140673 0.00773692)
(39.1467 -0.0135176 0.00710937)
(38.9922 -0.0128667 0.00665434)
(38.8472 -0.012066 0.00647944)
(38.7122 -0.0110936 0.00680865)
(38.587 -0.0100689 0.00784532)
(38.4713 -0.00881577 0.00994001)
(38.3678 -0.00729236 0.012833)
(38.2879 -0.0043148 0.0144858)
(38.244 -0.000177881 0.0168334)
(38.2319 0.001773 0.0125796)
(38.2398 0.00412262 0.0113505)
(38.2567 0.0023619 0.00385182)
(38.2922 0.00485049 0.00257685)
(38.3561 0.00558103 -0.00262622)
(38.4384 0.00809442 -0.00270463)
(38.5179 0.00574399 -0.00592712)
(38.5801 0.00493832 -0.00469489)
(38.6309 0.00374084 -0.00259709)
(38.6727 0.0039131 0.00128644)
(38.7108 0.00424022 0.00508672)
(38.7438 0.00455306 0.00862307)
(38.7702 0.0045101 0.011242)
(38.7899 0.00440422 0.0132096)
(38.8043 0.00418519 0.0142387)
(38.8156 0.00412603 0.0147088)
(38.8264 0.00406215 0.0144957)
(38.8384 0.00414561 0.014078)
(38.8522 0.00416269 0.0132828)
(38.8687 0.00427027 0.0125109)
(38.8874 0.00426028 0.0115494)
(38.9081 0.00428655 0.0107289)
(38.9302 0.00419586 0.00978066)
(38.9534 0.00414743 0.00901629)
(38.9771 0.00400329 0.00822362)
(39.0012 0.00392549 0.00759728)
(39.0257 0.00379007 0.006967)
(39.0505 0.00374388 0.00658402)
(39.0756 0.00366905 0.00631591)
(39.1006 0.00368861 0.00639749)
(39.1249 0.00362234 0.00663996)
(39.1451 0.00337174 0.00721783)
(39.1552 0.00254725 0.00807973)
(39.1463 0.00101046 0.00972182)
(39.1095 -0.00105119 0.0135123)
(39.0351 -0.00316198 0.0227592)
(38.8466 -0.00541521 0.0450605)
(38.3776 -0.0368293 0.164832)
(37.3613 -0.0209556 0.621008)
(34.5858 -0.00831523 2.08361)
(39.9797 -0.00131601 0.00125071)
(39.8236 -0.0147478 0.0103833)
(39.6576 -0.0148555 0.00912533)
(39.4804 -0.0145392 0.0082222)
(39.3103 -0.0140673 0.00746773)
(39.1479 -0.0135176 0.00686365)
(38.9936 -0.0128667 0.0064338)
(38.849 -0.012066 0.00630194)
(38.7142 -0.0110937 0.00667236)
(38.5893 -0.010069 0.00775127)
(38.4741 -0.00881577 0.00979303)
(38.3723 -0.00729236 0.0123018)
(38.295 -0.0043148 0.0145905)
(38.2501 -0.000161514 0.0149243)
(38.2361 0.00178937 0.0134153)
(38.2404 0.00412262 0.00920819)
(38.2574 0.0023619 0.00509608)
(38.2954 0.00485049 0.00136309)
(38.3593 0.00558103 -0.00106955)
(38.4386 0.00809442 -0.00363716)
(38.5147 0.00574399 -0.00493985)
(38.5781 0.00493832 -0.00443617)
(38.6298 0.00374084 -0.00196648)
(38.6732 0.0039131 0.00163097)
(38.7115 0.00424022 0.00543526)
(38.744 0.00455197 0.00883786)
(38.7701 0.00450902 0.0115594)
(38.7895 0.00440422 0.0134073)
(38.804 0.00418519 0.0144957)
(38.8155 0.00412603 0.0148103)
(38.8264 0.00405208 0.0146334)
(38.8385 0.00413553 0.0140643)
(38.8524 0.00416269 0.0133119)
(38.8688 0.00426067 0.0124106)
(38.8874 0.00425069 0.0115059)
(38.908 0.00428655 0.0105805)
(38.93 0.00419586 0.00970161)
(38.9532 0.00414743 0.0088533)
(38.9769 0.00400313 0.00813774)
(39.001 0.00392534 0.00744434)
(39.0255 0.00379007 0.00689295)
(39.0503 0.00374388 0.00645586)
(39.0755 0.00366905 0.00626398)
(39.1006 0.00368861 0.00629996)
(39.1245 0.00362234 0.00658928)
(39.144 0.00337174 0.00711935)
(39.1529 0.00254725 0.00798387)
(39.1427 0.00101046 0.00967787)
(39.1053 -0.00105119 0.0136785)
(39.0307 -0.00316198 0.023475)
(38.813 -0.00541521 0.0470445)
(38.3621 -0.0368293 0.196203)
(37.3898 -0.0209556 0.6356)
(34.615 -0.00831523 2.0973)
(39.9959 -0.00136718 0.00286568)
(39.8501 -0.0150861 0.0230714)
(39.6984 -0.0152018 0.020848)
(39.5324 -0.0148822 0.0189694)
(39.3724 -0.0144021 0.0173067)
(39.219 -0.0138264 0.0159371)
(39.0732 -0.013147 0.0150534)
(38.9362 -0.0122995 0.0150155)
(38.809 -0.0112815 0.0163291)
(38.6913 -0.0102092 0.0196277)
(38.5825 -0.0090036 0.0256352)
(38.4836 -0.00785921 0.0332722)
(38.4073 -0.00422937 0.0405453)
(38.3615 -0.00208836 0.0435746)
(38.3495 0.0026289 0.0372198)
(38.3576 0.00198915 0.028227)
(38.3777 0.00362281 0.0125516)
(38.4183 0.00364535 0.00470685)
(38.4863 0.00715529 -0.00561951)
(38.5732 0.00718682 -0.010043)
(38.6561 0.00676198 -0.0164779)
(38.726 0.00522005 -0.013453)
(38.7808 0.00439089 -0.00658547)
(38.8262 0.00427718 0.00490135)
(38.8658 0.00460982 0.0167137)
(38.899 0.00478958 0.0273667)
(38.9261 0.00484979 0.0355945)
(38.9459 0.00462308 0.0412554)
(38.9608 0.00446773 0.0442337)
(38.9728 0.00425184 0.0451286)
(38.9839 0.00421385 0.044287)
(38.9967 0.00414573 0.042482)
(39.0112 0.00421081 0.0399557)
(39.0281 0.00418417 0.0372267)
(39.0474 0.00423128 0.0343337)
(39.0682 0.00415701 0.0315823)
(39.0909 0.00413561 0.0288488)
(39.1141 0.00400285 0.0263855)
(39.1382 0.00393547 0.0240513)
(39.1627 0.00378989 0.0220774)
(39.1874 0.003733 0.0203724)
(39.2125 0.00363224 0.0191829)
(39.2378 0.00363371 0.0185069)
(39.2634 0.00360752 0.018598)
(39.288 0.00358802 0.0193483)
(39.3089 0.00328826 0.0208432)
(39.3199 0.00246261 0.0231461)
(39.3138 0.000970938 0.0276002)
(39.2843 -0.000888999 0.0381542)
(39.2281 -0.00245738 0.0640672)
(39.1497 -0.00344685 0.126036)
(39.1143 -0.00548322 0.337141)
(39.4422 -0.00639223 0.983119)
(41.3993 0.00539614 2.61633)
(39.9957 -0.00136718 0.0027821)
(39.8485 -0.0150861 0.0225613)
(39.6986 -0.0152018 0.0204211)
(39.5332 -0.0148822 0.018582)
(39.3734 -0.0144021 0.0169522)
(39.2203 -0.0138264 0.0156265)
(39.0748 -0.013147 0.0147991)
(38.9381 -0.0122995 0.0148288)
(38.8111 -0.0112816 0.0162097)
(38.6936 -0.0102096 0.0195476)
(38.5849 -0.00900391 0.0252561)
(38.4884 -0.00785921 0.0326389)
(38.413 -0.00422937 0.0391871)
(38.3684 -0.00208836 0.041084)
(38.3535 0.0026289 0.0366752)
(38.3586 0.00198915 0.0256694)
(38.3793 0.00362281 0.0141608)
(38.4219 0.00366089 0.00375549)
(38.4898 0.00718558 -0.00382545)
(38.5727 0.00720167 -0.0111187)
(38.6541 0.00676198 -0.014454)
(38.7236 0.00522129 -0.012751)
(38.7799 0.00439214 -0.00521333)
(38.8264 0.00427717 0.0056502)
(38.8663 0.00460981 0.0174733)
(38.8993 0.0047885 0.0281317)
(38.9259 0.00484821 0.036571)
(38.9455 0.00462251 0.0422172)
(38.9604 0.00445738 0.0452539)
(38.9725 0.00424149 0.0459692)
(38.9838 0.00421385 0.0450616)
(38.9967 0.00414573 0.0430151)
(39.0112 0.00421081 0.0404007)
(39.0282 0.00418417 0.0374505)
(39.0474 0.00423128 0.0345032)
(39.0682 0.00415701 0.0315836)
(39.0907 0.00413561 0.0288433)
(39.1139 0.00400251 0.0262651)
(39.138 0.00393499 0.0239622)
(39.1625 0.00378974 0.0219141)
(39.1873 0.003733 0.020263)
(39.2124 0.00363224 0.0190269)
(39.2378 0.00363371 0.0184139)
(39.2633 0.00360752 0.0184638)
(39.2877 0.00358802 0.0192325)
(39.3077 0.00328826 0.0206425)
(39.3176 0.00246261 0.0229442)
(39.3105 0.000970938 0.0275399)
(39.2809 -0.000888999 0.0385468)
(39.2256 -0.00245738 0.0654021)
(39.1467 -0.00344685 0.129233)
(39.1114 -0.00548322 0.375184)
(39.4531 -0.00639223 1.01864)
(41.4003 0.00539614 2.63496)
(39.9958 -0.00140019 0.00267131)
(39.8481 -0.0153254 0.0254878)
(39.6965 -0.0153503 0.0238445)
(39.5306 -0.0149932 0.0219643)
(39.3708 -0.0144863 0.0201426)
(39.2179 -0.01389 0.0186374)
(39.073 -0.0131796 0.0178234)
(38.9373 -0.012308 0.0182728)
(38.8123 -0.0112639 0.0206679)
(38.6975 -0.0101951 0.0259257)
(38.5912 -0.00923504 0.0349647)
(38.4939 -0.00795902 0.0465964)
(38.4136 -0.00569253 0.0593879)
(38.3601 -0.00266103 0.0621588)
(38.3397 0.00124487 0.0587707)
(38.3418 0.00158354 0.0395333)
(38.363 0.00398204 0.0231451)
(38.4067 0.00391317 0.00407163)
(38.4769 0.0073854 -0.00674149)
(38.5657 0.00704749 -0.0196511)
(38.6548 0.00779397 -0.0242438)
(38.7326 0.00566143 -0.0214003)
(38.7932 0.00512892 -0.00813577)
(38.8418 0.00467996 0.011256)
(38.8805 0.00501991 0.0327558)
(38.9115 0.0053387 0.0519952)
(38.9344 0.00550693 0.067007)
(38.9503 0.00538675 0.07646)
(38.9613 0.0052307 0.0809117)
(38.9702 0.00499099 0.0810469)
(38.9795 0.00485012 0.0783867)
(38.9906 0.00469256 0.073808)
(39.0045 0.00462656 0.0685397)
(39.0212 0.00450861 0.0628558)
(39.0404 0.00444449 0.0574214)
(39.0617 0.00430739 0.0520852)
(39.0845 0.00420954 0.0472646)
(39.1083 0.00404616 0.0427453)
(39.1328 0.00393261 0.038809)
(39.1579 0.00378016 0.0352995)
(39.1833 0.00369799 0.0325424)
(39.2093 0.003605 0.0304538)
(39.2357 0.0035929 0.0294063)
(39.2623 0.00357135 0.0293751)
(39.288 0.00352319 0.0305005)
(39.3099 0.00318648 0.0324194)
(39.323 0.00235697 0.0352745)
(39.3223 0.000954786 0.0406431)
(39.3068 -0.000663352 0.053499)
(39.2835 -0.00184152 0.0845964)
(39.2793 -0.00224344 0.155524)
(39.3921 0.00104499 0.304388)
(39.7932 0.0144698 0.556088)
(40.5163 0.0102826 0.681827)
(39.9956 -0.00140019 0.00262942)
(39.8468 -0.0153254 0.0251389)
(39.6969 -0.0153503 0.0235567)
(39.5314 -0.0149932 0.0217259)
(39.3719 -0.0144863 0.0199596)
(39.2192 -0.01389 0.0185191)
(39.0746 -0.0131796 0.0177929)
(38.9392 -0.012308 0.0183375)
(38.8144 -0.0112639 0.0208304)
(38.6996 -0.0101953 0.0261532)
(38.5935 -0.00923535 0.0348926)
(38.4975 -0.00795902 0.046366)
(38.4189 -0.00569253 0.0566868)
(38.367 -0.00266103 0.0609197)
(38.3439 0.00124487 0.0545041)
(38.3445 0.00158354 0.0396225)
(38.3654 0.00398204 0.0217309)
(38.4101 0.0039288 0.00577536)
(38.48 0.00741598 -0.00765837)
(38.5661 0.00706266 -0.0183465)
(38.6534 0.00779397 -0.0231829)
(38.7299 0.0056639 -0.0194949)
(38.7922 0.00513139 -0.00655116)
(38.8417 0.00467995 0.0124688)
(38.8812 0.00501881 0.0336412)
(38.9119 0.00533759 0.0530408)
(38.9345 0.00550644 0.0681232)
(38.9501 0.00538521 0.0777881)
(38.9609 0.00521831 0.0821435)
(38.9699 0.00497963 0.0822473)
(38.9792 0.00485012 0.0793106)
(38.9904 0.00469256 0.0745952)
(39.0043 0.00462656 0.0690244)
(39.021 0.00450861 0.0632185)
(39.0402 0.00444449 0.0575368)
(39.0615 0.00430739 0.0521395)
(39.0842 0.00420954 0.0471473)
(39.108 0.00404582 0.0426296)
(39.1325 0.00393229 0.0385879)
(39.1576 0.00378016 0.0351254)
(39.1832 0.00369799 0.032311)
(39.2092 0.003605 0.0302954)
(39.2356 0.0035929 0.0292203)
(39.2622 0.00357135 0.0292325)
(39.2876 0.00352319 0.0302782)
(39.3088 0.00318648 0.032138)
(39.3208 0.00235697 0.0350198)
(39.3193 0.000954786 0.0407173)
(39.304 -0.000663352 0.0543677)
(39.2819 -0.00184152 0.0868103)
(39.2822 -0.00224344 0.159961)
(39.4089 0.00104499 0.315711)
(39.8025 0.0144698 0.578059)
(40.4916 0.0102826 0.686403)
(39.9957 -0.00140906 0.00287255)
(39.8472 -0.015435 0.0277224)
(39.6949 -0.0154897 0.0262379)
(39.5287 -0.0151207 0.0243417)
(39.369 -0.0145853 0.0224175)
(39.2167 -0.0139443 0.0208446)
(39.0729 -0.0131775 0.0201362)
(38.939 -0.012235 0.0209394)
(38.8167 -0.0111188 0.0241461)
(38.7056 -0.00998208 0.0307309)
(38.6032 -0.00907578 0.0416383)
(38.508 -0.00808963 0.0564239)
(38.4229 -0.0069303 0.071102)
(38.3609 -0.00333555 0.0783259)
(38.3269 -0.00164582 0.0732639)
(38.322 0.00207884 0.0526219)
(38.3423 0.00220839 0.0309511)
(38.3886 0.00535718 0.00575859)
(38.4627 0.00625306 -0.0103309)
(38.5558 0.00849831 -0.027123)
(38.6545 0.00782197 -0.0316597)
(38.7422 0.00712448 -0.0276377)
(38.8136 0.00597484 -0.0075813)
(38.8672 0.00549014 0.021561)
(38.9063 0.00549568 0.0549684)
(38.9331 0.00583596 0.0858022)
(38.9497 0.00596618 0.109255)
(38.9587 0.00595201 0.123092)
(38.9636 0.00569595 0.127918)
(38.968 0.00544757 0.125625)
(38.9743 0.00513756 0.118879)
(38.9839 0.00493286 0.109696)
(38.9972 0.00469604 0.0997678)
(39.014 0.00454723 0.0898581)
(39.0335 0.00434665 0.0806385)
(39.0553 0.0042113 0.0721396)
(39.0786 0.00401841 0.0645507)
(39.1031 0.00388693 0.0577453)
(39.1282 0.00371422 0.0518589)
(39.154 0.00361561 0.0468007)
(39.1804 0.00350169 0.0427976)
(39.2074 0.00347385 0.0398675)
(39.235 0.00344757 0.0383426)
(39.2628 0.00346501 0.0382208)
(39.2896 0.00336568 0.0394383)
(39.3123 0.00300683 0.0414609)
(39.327 0.0022079 0.044172)
(39.331 0.00104513 0.0489632)
(39.3273 -2.02989e-05 0.0602686)
(39.3293 -0.000243407 0.0861981)
(39.3687 0.000990391 0.138628)
(39.5142 0.0058402 0.225779)
(39.8191 0.0155782 0.304474)
(40.1608 0.00997192 0.219736)
(39.9956 -0.00140906 0.00282263)
(39.8458 -0.015435 0.0272777)
(39.6952 -0.0154897 0.0258554)
(39.5296 -0.0151207 0.0240303)
(39.3702 -0.0145853 0.0221855)
(39.2182 -0.0139443 0.0207102)
(39.0746 -0.0131775 0.0201187)
(38.9411 -0.012235 0.0210519)
(38.8189 -0.0111188 0.0243782)
(38.7077 -0.00998208 0.031046)
(38.6051 -0.00907578 0.0418039)
(38.5102 -0.00808963 0.0558059)
(38.4276 -0.0069303 0.069155)
(38.3662 -0.00331895 0.0753652)
(38.3323 -0.00162998 0.0690396)
(38.3259 0.00207825 0.0519768)
(38.3456 0.00220839 0.0291867)
(38.3926 0.00535718 0.00788848)
(38.4659 0.00625315 -0.0112016)
(38.5574 0.00849883 -0.0247923)
(38.6531 0.00782232 -0.0310197)
(38.7404 0.0071272 -0.0247544)
(38.812 0.00597734 -0.005893)
(38.8667 0.00549013 0.0229991)
(38.9066 0.0054946 0.0560172)
(38.9336 0.00583278 0.0868273)
(38.9498 0.00596379 0.110468)
(38.9584 0.00594953 0.124609)
(38.9631 0.00569235 0.129484)
(38.9674 0.00544655 0.12719)
(38.9738 0.00513756 0.120184)
(38.9835 0.00493286 0.11078)
(38.9968 0.00469487 0.100496)
(39.0136 0.0045462 0.0903579)
(39.0332 0.00434665 0.0808432)
(39.055 0.0042113 0.0722019)
(39.0783 0.00401841 0.0644212)
(39.1028 0.00388693 0.0575666)
(39.128 0.00371422 0.0515788)
(39.1538 0.00361561 0.0465395)
(39.1802 0.00350169 0.0424974)
(39.2073 0.00347385 0.0396239)
(39.235 0.00344757 0.0380855)
(39.2628 0.00346501 0.0379735)
(39.2892 0.00336568 0.0390758)
(39.3112 0.00300683 0.0409958)
(39.325 0.0022079 0.0437232)
(39.3288 0.00104513 0.0489193)
(39.3261 -2.02989e-05 0.0611381)
(39.3303 -0.000243407 0.0885154)
(39.3748 0.000990391 0.143148)
(39.5288 0.0058402 0.23196)
(39.8232 0.0155782 0.304524)
(40.1353 0.00997192 0.218017)
(39.9957 -0.00145012 0.0029763)
(39.8457 -0.0157701 0.0287099)
(39.6932 -0.0157329 0.0272853)
(39.5267 -0.0153049 0.0254319)
(39.3673 -0.0147184 0.0235244)
(39.2156 -0.014024 0.022001)
(39.073 -0.0131976 0.0214193)
(38.9413 -0.0121955 0.0225368)
(38.8221 -0.0110318 0.0262442)
(38.715 -0.0098801 0.0335517)
(38.6169 -0.00906941 0.0452892)
(38.5234 -0.00858458 0.0612826)
(38.4354 -0.00764709 0.0774305)
(38.3623 -0.00562977 0.0886229)
(38.314 -0.00298739 0.082578)
(38.2995 0.000938984 0.0664907)
(38.3162 0.00221778 0.0363578)
(38.3655 0.00605153 0.0110148)
(38.4442 0.00652931 -0.0157665)
(38.5445 0.00938534 -0.0319867)
(38.6545 0.00842588 -0.0411618)
(38.7569 0.00853807 -0.0325509)
(38.8426 0.00681646 -0.00675337)
(38.9046 0.00611764 0.0349385)
(38.945 0.00606894 0.084003)
(38.9659 0.00636496 0.130806)
(38.9719 0.0067214 0.16592)
(38.9692 0.00690404 0.185055)
(38.964 0.00679237 0.188815)
(38.9613 0.00655101 0.181519)
(38.9636 0.00615728 0.167609)
(38.9716 0.00577758 0.151056)
(38.9847 0.0053555 0.134095)
(39.0021 0.0050089 0.118262)
(39.0227 0.00464907 0.103894)
(39.0456 0.00437441 0.0913365)
(39.0701 0.00408484 0.0803157)
(39.0956 0.00386726 0.0708658)
(39.1219 0.00365236 0.0627276)
(39.1488 0.00351891 0.0560281)
(39.1764 0.00339784 0.0506575)
(39.2048 0.0033615 0.0469042)
(39.234 0.00333572 0.0447849)
(39.2634 0.00332404 0.0444674)
(39.2913 0.00316066 0.0455072)
(39.3147 0.00272144 0.0472681)
(39.3305 0.00190814 0.0492855)
(39.3384 0.000910958 0.0526928)
(39.344 0.000206122 0.0610414)
(39.3618 0.000475828 0.0797771)
(39.4189 0.00227583 0.113473)
(39.558 0.00722517 0.156536)
(39.7872 0.01452 0.17071)
(39.9921 0.00856437 0.0902436)
(39.9955 -0.00145012 0.00292171)
(39.8444 -0.0157701 0.0282115)
(39.6936 -0.0157329 0.026857)
(39.5278 -0.0153049 0.0250859)
(39.3686 -0.0147184 0.0232741)
(39.2172 -0.014024 0.0218662)
(39.0749 -0.0131976 0.0214256)
(38.9435 -0.0121955 0.0226985)
(38.8244 -0.0110318 0.0265589)
(38.717 -0.0098801 0.0339689)
(38.6182 -0.00906941 0.0456484)
(38.5248 -0.00856937 0.0608963)
(38.4384 -0.00763188 0.076229)
(38.367 -0.0056131 0.0845479)
(38.3206 -0.0029715 0.0803782)
(38.3047 0.000938398 0.062595)
(38.3214 0.00221738 0.0371822)
(38.3699 0.00605128 0.0101777)
(38.4475 0.00652948 -0.0137632)
(38.5464 0.00938598 -0.0313995)
(38.6536 0.0084396 -0.0385158)
(38.7553 0.00855367 -0.0299919)
(38.8402 0.00682003 -0.00425942)
(38.9038 0.00611833 0.0367333)
(38.9452 0.00606688 0.0852238)
(38.9666 0.00636081 0.131604)
(38.9725 0.00671801 0.166944)
(38.9693 0.00690033 0.186239)
(38.9637 0.00678858 0.190214)
(38.9607 0.00654887 0.182852)
(38.9628 0.00615338 0.168868)
(38.9708 0.00577584 0.152026)
(38.9839 0.00535434 0.13486)
(39.0014 0.00500786 0.118707)
(39.0221 0.00464907 0.104166)
(39.0451 0.00436498 0.0913673)
(39.0696 0.00407541 0.0802601)
(39.0952 0.00386726 0.0706678)
(39.1215 0.00365236 0.0625256)
(39.1485 0.00351891 0.0557648)
(39.1762 0.00339784 0.0504466)
(39.2047 0.0033615 0.046684)
(39.234 0.00333572 0.0446138)
(39.2632 0.00332404 0.0442312)
(39.2906 0.00316066 0.0451541)
(39.3134 0.00272144 0.0467467)
(39.3287 0.00190814 0.048764)
(39.3367 0.000910958 0.0525442)
(39.3436 0.000206122 0.06167)
(39.3639 0.000475828 0.0814028)
(39.4256 0.00227583 0.115983)
(39.5702 0.00722517 0.158327)
(39.7885 0.01452 0.167851)
(39.969 0.00856437 0.08756)
(39.9956 -0.00146365 0.00291764)
(39.8447 -0.0159334 0.0281239)
(39.6916 -0.015918 0.0267934)
(39.5249 -0.015467 0.025065)
(39.3656 -0.0148351 0.0233133)
(39.2146 -0.014079 0.0219977)
(39.0734 -0.0131714 0.0216799)
(38.9438 -0.0120733 0.0231005)
(38.8277 -0.0108042 0.0271457)
(38.7246 -0.00956486 0.0347769)
(38.631 -0.00871649 0.0466963)
(38.5401 -0.00848345 0.0628137)
(38.4502 -0.00814716 0.080335)
(38.3661 -0.00741015 0.0924809)
(38.3048 -0.0038371 0.091446)
(38.2758 -0.00181702 0.0756315)
(38.2869 0.00302542 0.0450902)
(38.3366 0.00450369 0.0148926)
(38.42 0.00824102 -0.0179949)
(38.5307 0.00907708 -0.0381816)
(38.6543 0.0104606 -0.0502883)
(38.7769 0.00967656 -0.0396355)
(38.8814 0.00846735 -0.00713367)
(38.9582 0.0072844 0.048875)
(39.0024 0.00671731 0.119552)
(39.0153 0.00663446 0.188443)
(39.0042 0.00699452 0.240211)
(38.9818 0.00714182 0.265349)
(38.9603 0.00709984 0.265753)
(38.9469 0.00678533 0.249437)
(38.9439 0.00640328 0.224545)
(38.9505 0.00590825 0.197209)
(38.9644 0.00546039 0.170833)
(38.9838 0.00499274 0.147167)
(39.0066 0.00462345 0.126602)
(39.0317 0.00425184 0.109124)
(39.0582 0.00396765 0.0943044)
(39.0855 0.00368893 0.0818584)
(39.1134 0.0035123 0.0714235)
(39.1419 0.00335237 0.0629369)
(39.1712 0.00329069 0.056265)
(39.2015 0.00325375 0.0515898)
(39.2325 0.00327646 0.0489357)
(39.2636 0.0032287 0.0482503)
(39.2924 0.00301267 0.0489085)
(39.3161 0.00248537 0.0500142)
(39.3324 0.00168642 0.0509125)
(39.3427 0.000896485 0.0523829)
(39.3544 0.000608349 0.0570439)
(39.3817 0.00138228 0.0683204)
(39.4455 0.0035008 0.0873658)
(39.5714 0.00763157 0.106618)
(39.7528 0.0127193 0.101164)
(39.8999 0.00728831 0.0450135)
(39.9955 -0.00146365 0.00286205)
(39.8435 -0.0159334 0.0276015)
(39.6921 -0.015918 0.0263264)
(39.526 -0.015467 0.0246797)
(39.367 -0.0148353 0.0230304)
(39.2163 -0.0140792 0.0218429)
(39.0754 -0.0131714 0.0216818)
(38.9462 -0.0120733 0.0232804)
(38.8302 -0.0108042 0.0275027)
(38.7267 -0.00956486 0.0352697)
(38.632 -0.00871649 0.0472037)
(38.5407 -0.0084684 0.0628736)
(38.4513 -0.00811617 0.0791311)
(38.3704 -0.00739422 0.0897364)
(38.3103 -0.0038371 0.0881937)
(38.2827 -0.00181702 0.071835)
(38.2932 0.00304195 0.0451857)
(38.3418 0.00453664 0.0136994)
(38.4245 0.00827274 -0.0151058)
(38.5329 0.0090927 -0.0376976)
(38.6549 0.0104739 -0.0466885)
(38.7749 0.00969171 -0.0374511)
(38.879 0.0084719 -0.00445418)
(38.9565 0.00728554 0.0509765)
(39.0018 0.00671392 0.120271)
(39.0156 0.0066293 0.188949)
(39.0047 0.00698249 0.240467)
(38.9819 0.00712645 0.265965)
(38.9599 0.00708402 0.26692)
(38.9462 0.0067727 0.250841)
(38.943 0.00638883 0.225981)
(38.9495 0.00589595 0.198406)
(38.9635 0.00546039 0.171777)
(38.9829 0.00499274 0.147778)
(39.0059 0.00461364 0.12698)
(39.0311 0.00423247 0.109256)
(39.0576 0.00395809 0.0943103)
(39.085 0.00368893 0.0817306)
(39.113 0.0035123 0.0712677)
(39.1417 0.00335237 0.0627361)
(39.1711 0.00329069 0.0561014)
(39.2015 0.00325375 0.0514285)
(39.2325 0.00327646 0.0487974)
(39.2633 0.0032287 0.0480226)
(39.2917 0.00301267 0.048523)
(39.3148 0.00248537 0.0494352)
(39.3308 0.00168642 0.0503331)
(39.3417 0.000896485 0.052157)
(39.3549 0.000608349 0.0575233)
(39.3846 0.00138228 0.0695939)
(39.4518 0.0035008 0.089051)
(39.5807 0.00763157 0.107073)
(39.7524 0.0127193 0.0981939)
(39.8799 0.00728831 0.0430351)
(39.9956 -0.00150571 0.00267562)
(39.8433 -0.0162925 0.0257479)
(39.6901 -0.0161999 0.0245721)
(39.5233 -0.0156903 0.0230921)
(39.3642 -0.0150009 0.0216589)
(39.214 -0.0141792 0.0207055)
(39.0741 -0.0131956 0.0207956)
(38.9468 -0.0120156 0.0226551)
(38.8337 -0.0106748 0.0270999)
(38.7345 -0.00938749 0.0349163)
(38.645 -0.00856888 0.0467416)
(38.557 -0.00852415 0.0623925)
(38.4651 -0.00885073 0.0799239)
(38.3734 -0.00838153 0.0932395)
(38.2972 -0.00624819 0.0972789)
(38.2532 -0.00286575 0.0818382)
(38.2556 0.00230564 0.0567214)
(38.3026 0.00484176 0.0181112)
(38.3914 0.00940353 -0.0153342)
(38.5127 0.00986025 -0.0466603)
(38.6535 0.0120312 -0.0605988)
(38.8005 0.0107258 -0.0536035)
(38.9316 0.0094942 -0.0147128)
(39.0317 0.00821947 0.0593008)
(39.085 0.00678873 0.158482)
(39.0871 0.00687093 0.261033)
(39.0493 0.00698049 0.337382)
(38.9951 0.00752994 0.36962)
(38.9484 0.00797734 0.362744)
(38.9203 0.00796639 0.331577)
(38.9114 0.00759815 0.290322)
(38.9179 0.0069806 0.247971)
(38.9347 0.00630437 0.209351)
(38.9579 0.0056292 0.175993)
(38.9847 0.00504346 0.148137)
(39.0133 0.00451221 0.125052)
(39.0428 0.00409089 0.10611)
(39.0727 0.00374419 0.0904773)
(39.1029 0.00349662 0.0777457)
(39.1336 0.00331817 0.0674514)
(39.1651 0.0032343 0.0595761)
(39.1975 0.00320015 0.0539892)
(39.2306 0.00319754 0.0507592)
(39.2634 0.00309616 0.0495419)
(39.293 0.00277512 0.0496306)
(39.3167 0.00214246 0.0498727)
(39.3329 0.00132882 0.0495558)
(39.3445 0.000685092 0.0491996)
(39.3599 0.000685532 0.0507489)
(39.3921 0.00174928 0.0563209)
(39.4572 0.0039611 0.0655642)
(39.5718 0.00768044 0.0721462)
(39.7256 0.0115501 0.0619497)
(39.8459 0.00658594 0.025265)
(39.9954 -0.00150571 0.00262193)
(39.8421 -0.0162925 0.0252484)
(39.6907 -0.0161999 0.0241421)
(39.5245 -0.0156903 0.0227475)
(39.3657 -0.0150011 0.0214179)
(39.2158 -0.0141794 0.020594)
(39.0763 -0.0131956 0.0208418)
(38.9493 -0.0120156 0.0228813)
(38.8364 -0.0106748 0.0275015)
(38.7367 -0.00938749 0.0354651)
(38.6458 -0.0085549 0.0473143)
(38.5567 -0.00851016 0.0627109)
(38.4652 -0.0088357 0.0791725)
(38.376 -0.00834994 0.0915926)
(38.3027 -0.00621419 0.093034)
(38.2618 -0.00284844 0.0800453)
(38.2633 0.00232291 0.0533971)
(38.3097 0.00487564 0.0193881)
(38.3964 0.00943565 -0.0154504)
(38.5153 0.00987626 -0.0438659)
(38.6543 0.0120325 -0.0582402)
(38.798 0.0107298 -0.0503311)
(38.9291 0.00949936 -0.0110945)
(39.029 0.00821912 0.0619067)
(39.0836 0.00678283 0.159964)
(39.0873 0.00686203 0.261471)
(39.0499 0.00696795 0.337212)
(38.9961 0.00750246 0.369579)
(38.9488 0.00793417 0.363079)
(38.9199 0.0079412 0.332374)
(38.9105 0.00758399 0.291279)
(38.9166 0.00696695 0.248956)
(38.9333 0.00629382 0.210139)
(38.9566 0.00560834 0.176611)
(38.9835 0.00501153 0.148506)
(39.0124 0.00449084 0.125279)
(39.042 0.00408146 0.106166)
(39.0721 0.00373477 0.0904788)
(39.1025 0.00349662 0.0776686)
(39.1334 0.00331817 0.0673948)
(39.1649 0.0032343 0.0595096)
(39.1974 0.00320015 0.0539683)
(39.2305 0.00319754 0.0507037)
(39.2629 0.00309616 0.0493942)
(39.2921 0.00277512 0.0492744)
(39.3152 0.00214246 0.0493199)
(39.3314 0.00132882 0.0489847)
(39.3439 0.000685092 0.0489243)
(39.361 0.000685532 0.051023)
(39.3954 0.00174928 0.0571151)
(39.4631 0.0039611 0.0664478)
(39.5794 0.00768044 0.0721416)
(39.7245 0.0115501 0.0601333)
(39.8278 0.00658594 0.0241199)
(39.9955 -0.00151734 0.00225493)
(39.8425 -0.0164328 0.0217561)
(39.689 -0.016348 0.0208396)
(39.522 -0.0158115 0.019734)
(39.3633 -0.0150762 0.0187813)
(39.2138 -0.0141911 0.0183876)
(39.0753 -0.0131251 0.0190772)
(38.9501 -0.0118471 0.0215009)
(38.8399 -0.0104025 0.0263986)
(38.7443 -0.00901603 0.0344121)
(38.6584 -0.00815082 0.0460238)
(38.5733 -0.00817158 0.0610897)
(38.481 -0.00889769 0.0780958)
(38.3834 -0.00906427 0.0929246)
(38.2933 -0.00809755 0.0988504)
(38.2353 -0.00362532 0.0896658)
(38.2233 -0.000306636 0.0653557)
(38.2647 0.00579074 0.025979)
(38.3555 0.00813313 -0.0132732)
(38.4859 0.0118704 -0.0537984)
(38.6479 0.012822 -0.0759862)
(38.8236 0.01295 -0.0766099)
(38.9951 0.0120826 -0.0352505)
(39.1321 0.00989002 0.0599206)
(39.2048 0.00820104 0.199876)
(39.195 0.00707477 0.35505)
(39.1135 0.00682208 0.466988)
(39.0077 0.00710289 0.505537)
(38.9225 0.00745091 0.482724)
(38.8747 0.00759015 0.427217)
(38.8604 0.00736187 0.362184)
(38.8695 0.00690167 0.300331)
(38.8924 0.00626113 0.246861)
(38.9225 0.00562259 0.202681)
(38.9557 0.00500339 0.166961)
(38.9897 0.00448549 0.138265)
(39.0236 0.00402877 0.115214)
(39.0571 0.00369532 0.0966463)
(39.0903 0.00343524 0.0817182)
(39.1237 0.00329588 0.0698602)
(39.1577 0.0032242 0.0608238)
(39.1927 0.00323282 0.0544312)
(39.2281 0.00322097 0.0505711)
(39.2625 0.00308102 0.0487747)
(39.2927 0.00265642 0.0481178)
(39.316 0.00193251 0.0473815)
(39.3317 0.00111541 0.0458357)
(39.3439 0.000621174 0.0438625)
(39.3615 0.000882456 0.0429536)
(39.3965 0.00217646 0.044515)
(39.4613 0.0043844 0.0479333)
(39.5678 0.00762701 0.0486985)
(39.7059 0.0109029 0.038946)
(39.8127 0.00614321 0.0151291)
(39.9954 -0.00151734 0.0022115)
(39.8414 -0.0164328 0.0213415)
(39.6896 -0.016348 0.0204651)
(39.5233 -0.0158115 0.0194307)
(39.3649 -0.0150762 0.0185745)
(39.2157 -0.0141911 0.0183056)
(39.0777 -0.0131251 0.019149)
(38.9528 -0.0118473 0.0217471)
(38.8427 -0.0104028 0.0268204)
(38.7465 -0.00901603 0.0349813)
(38.6593 -0.00813699 0.0466487)
(38.5726 -0.00814365 0.0615713)
(38.4801 -0.00886886 0.0779114)
(38.3842 -0.00903379 0.0914135)
(38.2987 -0.00806542 0.0960204)
(38.2431 -0.00359102 0.0866606)
(38.2327 -0.000271864 0.0619097)
(38.2732 0.0058081 0.0263569)
(38.3616 0.008149 -0.0142126)
(38.4906 0.0118873 -0.0502707)
(38.649 0.012825 -0.0744342)
(38.8228 0.0129556 -0.0732252)
(38.992 0.0120884 -0.0312041)
(39.1282 0.00988895 0.0623537)
(39.202 0.0081914 0.20349)
(39.1936 0.00705869 0.355518)
(39.1135 0.00680796 0.46535)
(39.0083 0.00707655 0.504295)
(38.923 0.00739895 0.482779)
(38.8746 0.00755938 0.428195)
(38.8597 0.00734321 0.363456)
(38.8684 0.00687303 0.301531)
(38.8912 0.00623631 0.24781)
(38.9213 0.00559888 0.203374)
(38.9545 0.00497063 0.167412)
(38.9887 0.00445366 0.138546)
(39.0228 0.00400923 0.11536)
(39.0565 0.00368572 0.0967234)
(39.0899 0.00343524 0.0817518)
(39.1235 0.00329588 0.0699001)
(39.1577 0.0032242 0.0608763)
(39.1927 0.00323282 0.0545053)
(39.2279 0.00322097 0.050604)
(39.2619 0.00308102 0.0486812)
(39.2916 0.00265642 0.0478069)
(39.3145 0.00193251 0.0468849)
(39.3304 0.00111541 0.0453364)
(39.3437 0.000621174 0.0436407)
(39.3631 0.000882456 0.043193)
(39.4 0.00217646 0.0451447)
(39.4668 0.0043844 0.0485591)
(39.5743 0.00762701 0.0486301)
(39.7044 0.0109029 0.037928)
(39.7956 0.00614321 0.0144947)
(39.9955 -0.00154914 0.00170643)
(39.8416 -0.0167071 0.0163763)
(39.6881 -0.0165744 0.0157459)
(39.5212 -0.0159935 0.0151095)
(39.3629 -0.0152079 0.0147647)
(39.2143 -0.0142613 0.0150932)
(39.0773 -0.0131236 0.0165868)
(38.9541 -0.0117696 0.0197947)
(38.8466 -0.0102531 0.0253157)
(38.7542 -0.0088183 0.0337102)
(38.6716 -0.00793728 0.0452348)
(38.589 -0.0080425 0.0597325)
(38.4968 -0.00905038 0.0759983)
(38.394 -0.00989233 0.0912093)
(38.2938 -0.00906791 0.0992313)
(38.2196 -0.00587744 0.0960156)
(38.1919 -0.0011557 0.0723087)
(38.2242 0.00522222 0.03782)
(38.312 0.00846506 -0.0121124)
(38.4505 0.0133803 -0.0588996)
(38.6315 0.0135712 -0.100988)
(38.8423 0.0140969 -0.117077)
(39.0693 0.0135349 -0.0800869)
(39.2678 0.0106488 0.0390277)
(39.3812 0.0104042 0.244126)
(39.3554 0.00733875 0.480783)
(39.2008 0.00534558 0.648396)
(39.0115 0.0062824 0.687659)
(38.8705 0.00802309 0.632366)
(38.7999 0.00894187 0.537219)
(38.7846 0.00887276 0.438245)
(38.8025 0.00818771 0.35144)
(38.837 0.00726169 0.28074)
(38.8779 0.00632452 0.225047)
(38.9202 0.00549097 0.181618)
(38.9615 0.00479468 0.147751)
(39.0011 0.00423796 0.121115)
(39.0392 0.00381677 0.100051)
(39.0761 0.00353035 0.0833414)
(39.1127 0.00335817 0.0702518)
(39.1496 0.0032869 0.0602717)
(39.1872 0.00327427 0.0532082)
(39.225 0.00323044 0.0487458)
(39.2609 0.00300277 0.0462899)
(39.2916 0.00246425 0.0448064)
(39.3144 0.00164585 0.0431207)
(39.3294 0.00082957 0.0405438)
(39.3417 0.000463325 0.0374099)
(39.3606 0.00092498 0.0348888)
(39.3971 0.00237895 0.0339788)
(39.4614 0.00458692 0.034136)
(39.5628 0.00761211 0.0324531)
(39.692 0.0105321 0.0246108)
(39.7919 0.00595157 0.00926625)
(39.9954 -0.00154914 0.00166769)
(39.8405 -0.0167071 0.016022)
(39.6888 -0.0165744 0.0154528)
(39.5226 -0.0159935 0.0148903)
(39.3646 -0.0152079 0.0146375)
(39.2163 -0.0142613 0.0150819)
(39.0798 -0.0131236 0.0167149)
(38.957 -0.0117698 0.0200751)
(38.8496 -0.0102534 0.0257477)
(38.7565 -0.0088183 0.034255)
(38.6723 -0.00793728 0.0458372)
(38.5879 -0.00802915 0.0602148)
(38.495 -0.00900628 0.0760741)
(38.394 -0.00986218 0.0901588)
(38.2978 -0.00905335 0.0974217)
(38.2276 -0.00584379 0.0918257)
(38.203 -0.0011023 0.0706008)
(38.2338 0.00525795 0.0343546)
(38.3201 0.00849762 -0.0111285)
(38.4556 0.0134141 -0.0589169)
(38.6322 0.0135879 -0.0990331)
(38.8423 0.0141174 -0.112783)
(39.0658 0.0135417 -0.0756442)
(39.2647 0.010649 0.0471795)
(39.3779 0.0103959 0.249679)
(39.3503 0.00732034 0.483134)
(39.1998 0.00531615 0.647696)