/*--------------------------------*- C++ -*----------------------------------*\
| =========                 |                                                 |
| \\      /  F ield         | OpenFOAM: The Open Source CFD Toolbox           |
|  \\    /   O peration     | Version:  4.1                                   |
|   \\  /    A nd           | Web:      www.OpenFOAM.org                      |
|    \\/     M anipulation  |                                                 |
\*---------------------------------------------------------------------------*/
FoamFile
{
    version     2.0;
    format      ascii;
    class       volScalarField;
    location    "66";
    object      p;
}
// * * * * * * * * * * * * * * * * * * * * * * * * * * * * * * * * * * * * * //

dimensions      [0 2 -2 0 0 0 0];

internalField   nonuniform List<scalar> 
4432
(
-4.01475e+10
-4.06866e+10
-4.13156e+10
-4.10989e+10
-4.11319e+10
-4.13567e+10
-4.14622e+10
-4.15464e+10
-4.16217e+10
-4.16997e+10
-4.17772e+10
-4.18464e+10
-4.18984e+10
-4.19286e+10
-4.19413e+10
-4.19374e+10
-4.19109e+10
-4.18594e+10
-4.17826e+10
-4.1681e+10
-4.1555e+10
-4.14074e+10
-4.12426e+10
-4.10662e+10
-4.08846e+10
-4.07048e+10
-4.05338e+10
-4.03787e+10
-4.02448e+10
-4.0136e+10
-4.00531e+10
-3.99938e+10
-3.99521e+10
-3.99179e+10
-3.9879e+10
-3.98237e+10
-3.97448e+10
-3.96433e+10
-3.953e+10
-3.94236e+10
-3.93453e+10
-3.93094e+10
-3.93138e+10
-3.93435e+10
-3.93939e+10
-3.94713e+10
-3.9476e+10
-3.89883e+10
-3.74586e+10
-3.56827e+10
-3.78478e+10
-4.83795e+10
-5.77738e+10
-2.84862e+10
-4.04703e+10
-4.06565e+10
-4.10358e+10
-4.12069e+10
-4.11769e+10
-4.13405e+10
-4.14662e+10
-4.15454e+10
-4.1618e+10
-4.17007e+10
-4.17837e+10
-4.18549e+10
-4.19063e+10
-4.19369e+10
-4.19511e+10
-4.19484e+10
-4.19226e+10
-4.18716e+10
-4.17959e+10
-4.16952e+10
-4.15698e+10
-4.14227e+10
-4.12578e+10
-4.10808e+10
-4.0898e+10
-4.07166e+10
-4.05433e+10
-4.03854e+10
-4.02482e+10
-4.0136e+10
-4.00496e+10
-3.99868e+10
-3.99421e+10
-3.99057e+10
-3.98665e+10
-3.98134e+10
-3.97393e+10
-3.96453e+10
-3.95419e+10
-3.94476e+10
-3.93834e+10
-3.93629e+10
-3.93832e+10
-3.94278e+10
-3.949e+10
-3.95709e+10
-3.9554e+10
-3.89696e+10
-3.71403e+10
-3.4664e+10
-3.58743e+10
-4.71477e+10
-6.07981e+10
-3.61841e+10
-4.07712e+10
-4.08098e+10
-4.10173e+10
-4.13093e+10
-4.13028e+10
-4.1383e+10
-4.15284e+10
-4.16131e+10
-4.1686e+10
-4.17691e+10
-4.18514e+10
-4.19305e+10
-4.19937e+10
-4.20306e+10
-4.2044e+10
-4.20401e+10
-4.20152e+10
-4.19626e+10
-4.1882e+10
-4.17723e+10
-4.16342e+10
-4.14706e+10
-4.12862e+10
-4.1088e+10
-4.08835e+10
-4.06811e+10
-4.04883e+10
-4.0313e+10
-4.01605e+10
-4.00351e+10
-3.99376e+10
-3.98662e+10
-3.98158e+10
-3.97769e+10
-3.97378e+10
-3.96875e+10
-3.9619e+10
-3.95327e+10
-3.94366e+10
-3.93472e+10
-3.92826e+10
-3.92524e+10
-3.9248e+10
-3.92479e+10
-3.92438e+10
-3.92353e+10
-3.90773e+10
-3.82189e+10
-3.59645e+10
-3.33122e+10
-3.53069e+10
-4.74523e+10
-5.92667e+10
-3.52421e+10
-4.07603e+10
-4.08784e+10
-4.11075e+10
-4.12644e+10
-4.12957e+10
-4.13879e+10
-4.15319e+10
-4.16097e+10
-4.16851e+10
-4.1769e+10
-4.18552e+10
-4.19364e+10
-4.19991e+10
-4.20348e+10
-4.2049e+10
-4.20484e+10
-4.2025e+10
-4.19728e+10
-4.18932e+10
-4.17847e+10
-4.16476e+10
-4.14848e+10
-4.13009e+10
-4.11029e+10
-4.08982e+10
-4.06955e+10
-4.0502e+10
-4.03256e+10
-4.01718e+10
-4.00452e+10
-3.99466e+10
-3.9874e+10
-3.98219e+10
-3.97812e+10
-3.97409e+10
-3.96903e+10
-3.9622e+10
-3.95364e+10
-3.94424e+10
-3.93557e+10
-3.92939e+10
-3.92658e+10
-3.92627e+10
-3.92631e+10
-3.92578e+10
-3.9243e+10
-3.90641e+10
-3.81355e+10
-3.56973e+10
-3.29123e+10
-3.58818e+10
-5.08168e+10
-6.15464e+10
-2.9839e+10
-4.1163e+10
-4.11338e+10
-4.10285e+10
-4.13003e+10
-4.13666e+10
-4.14127e+10
-4.15007e+10
-4.15841e+10
-4.16652e+10
-4.17487e+10
-4.18319e+10
-4.19156e+10
-4.19843e+10
-4.20266e+10
-4.20465e+10
-4.20494e+10
-4.20312e+10
-4.19853e+10
-4.191e+10
-4.18027e+10
-4.1663e+10
-4.14931e+10
-4.12985e+10
-4.10867e+10
-4.08668e+10
-4.06484e+10
-4.04397e+10
-4.02487e+10
-4.00815e+10
-3.99427e+10
-3.98332e+10
-3.97496e+10
-3.96851e+10
-3.96315e+10
-3.95786e+10
-3.95163e+10
-3.94385e+10
-3.93465e+10
-3.92498e+10
-3.91639e+10
-3.91043e+10
-3.90761e+10
-3.90684e+10
-3.90648e+10
-3.90723e+10
-3.91129e+10
-3.90462e+10
-3.82597e+10
-3.59445e+10
-3.31459e+10
-3.52836e+10
-4.77264e+10
-5.86692e+10
-2.95853e+10
-4.10393e+10
-4.11516e+10
-4.12035e+10
-4.12251e+10
-4.13243e+10
-4.1421e+10
-4.15131e+10
-4.15886e+10
-4.16753e+10
-4.17619e+10
-4.1849e+10
-4.1935e+10
-4.20066e+10
-4.20522e+10
-4.20758e+10
-4.20838e+10
-4.20685e+10
-4.20244e+10
-4.19509e+10
-4.1845e+10
-4.17062e+10
-4.15365e+10
-4.13413e+10
-4.11285e+10
-4.09071e+10
-4.06869e+10
-4.04763e+10
-4.02831e+10
-4.01134e+10
-3.99714e+10
-3.98579e+10
-3.97702e+10
-3.97018e+10
-3.96441e+10
-3.95865e+10
-3.95194e+10
-3.94371e+10
-3.93411e+10
-3.92413e+10
-3.9154e+10
-3.90953e+10
-3.90712e+10
-3.90714e+10
-3.90773e+10
-3.90902e+10
-3.91185e+10
-3.89912e+10
-3.80246e+10
-3.52958e+10
-3.18534e+10
-3.36476e+10
-4.71538e+10
-6.14435e+10
-3.60933e+10
-4.11244e+10
-4.12146e+10
-4.12242e+10
-4.12615e+10
-4.13842e+10
-4.14829e+10
-4.15671e+10
-4.16469e+10
-4.17356e+10
-4.18297e+10
-4.19257e+10
-4.20224e+10
-4.21053e+10
-4.21643e+10
-4.22007e+10
-4.22155e+10
-4.22027e+10
-4.21581e+10
-4.20791e+10
-4.19629e+10
-4.18082e+10
-4.16172e+10
-4.13968e+10
-4.11574e+10
-4.09111e+10
-4.06698e+10
-4.04437e+10
-4.0241e+10
-4.00681e+10
-3.99292e+10
-3.98239e+10
-3.97457e+10
-3.96847e+10
-3.96337e+10
-3.95842e+10
-3.95226e+10
-3.94434e+10
-3.93479e+10
-3.92434e+10
-3.91424e+10
-3.90561e+10
-3.89858e+10
-3.89184e+10
-3.88377e+10
-3.87574e+10
-3.87116e+10
-3.85766e+10
-3.77541e+10
-3.53889e+10
-3.2311e+10
-3.37733e+10
-4.62713e+10
-6.01604e+10
-3.43649e+10
-4.11938e+10
-4.12488e+10
-4.1233e+10
-4.12206e+10
-4.13587e+10
-4.14952e+10
-4.15778e+10
-4.1654e+10
-4.17469e+10
-4.18424e+10
-4.1941e+10
-4.20389e+10
-4.21237e+10
-4.21866e+10
-4.22282e+10
-4.22478e+10
-4.22383e+10
-4.21958e+10
-4.21174e+10
-4.20005e+10
-4.18443e+10
-4.16509e+10
-4.14272e+10
-4.11839e+10
-4.09333e+10
-4.06876e+10
-4.04572e+10
-4.02501e+10
-4.0072e+10
-3.99262e+10
-3.98123e+10
-3.97257e+10
-3.96577e+10
-3.95981e+10
-3.95358e+10
-3.94624e+10
-3.93726e+10
-3.92676e+10
-3.91572e+10
-3.90565e+10
-3.89796e+10
-3.89317e+10
-3.89031e+10
-3.88797e+10
-3.88736e+10
-3.89109e+10
-3.88415e+10
-3.79978e+10
-3.54664e+10
-3.23921e+10
-3.51029e+10
-5.00109e+10
-6.17597e+10
-3.04101e+10
-4.11865e+10
-4.12213e+10
-4.12642e+10
-4.12616e+10
-4.13532e+10
-4.14567e+10
-4.1551e+10
-4.16393e+10
-4.17372e+10
-4.18464e+10
-4.19585e+10
-4.20643e+10
-4.21577e+10
-4.22319e+10
-4.22863e+10
-4.23164e+10
-4.23156e+10
-4.22796e+10
-4.22043e+10
-4.20862e+10
-4.19217e+10
-4.17119e+10
-4.14642e+10
-4.11919e+10
-4.09112e+10
-4.06377e+10
-4.03842e+10
-4.01599e+10
-3.9971e+10
-3.98198e+10
-3.97043e+10
-3.96168e+10
-3.95472e+10
-3.9486e+10
-3.94237e+10
-3.93495e+10
-3.92583e+10
-3.91518e+10
-3.9039e+10
-3.89343e+10
-3.88506e+10
-3.87908e+10
-3.87434e+10
-3.86955e+10
-3.86624e+10
-3.86791e+10
-3.86301e+10
-3.79313e+10
-3.56752e+10
-3.2392e+10
-3.28376e+10
-4.40672e+10
-5.96574e+10
-3.82773e+10
-4.12772e+10
-4.12893e+10
-4.12507e+10
-4.12406e+10
-4.13502e+10
-4.14701e+10
-4.15677e+10
-4.16586e+10
-4.17549e+10
-4.186e+10
-4.19703e+10
-4.2076e+10
-4.21679e+10
-4.2241e+10
-4.22944e+10
-4.23233e+10
-4.23217e+10
-4.22858e+10
-4.22119e+10
-4.20956e+10
-4.19333e+10
-4.17256e+10
-4.14793e+10
-4.12076e+10
-4.09263e+10
-4.06511e+10
-4.03948e+10
-4.01669e+10
-3.99728e+10
-3.98146e+10
-3.96906e+10
-3.95948e+10
-3.95175e+10
-3.9448e+10
-3.93754e+10
-3.92909e+10
-3.91899e+10
-3.90748e+10
-3.89561e+10
-3.88493e+10
-3.87697e+10
-3.87221e+10
-3.86967e+10
-3.86819e+10
-3.8694e+10
-3.8767e+10
-3.87742e+10
-3.8093e+10
-3.58221e+10
-3.28895e+10
-3.5003e+10
-4.84629e+10
-6.10224e+10
-3.07032e+10
-4.12932e+10
-4.12974e+10
-4.13077e+10
-4.13278e+10
-4.14002e+10
-4.14961e+10
-4.15939e+10
-4.16888e+10
-4.17921e+10
-4.19151e+10
-4.20497e+10
-4.21759e+10
-4.22895e+10
-4.23879e+10
-4.24666e+10
-4.25175e+10
-4.25333e+10
-4.2508e+10
-4.24378e+10
-4.23176e+10
-4.21414e+10
-4.19072e+10
-4.16221e+10
-4.1305e+10
-4.09793e+10
-4.06674e+10
-4.03862e+10
-4.01459e+10
-3.99512e+10
-3.98014e+10
-3.9691e+10
-3.96113e+10
-3.95516e+10
-3.95001e+10
-3.94445e+10
-3.93757e+10
-3.92896e+10
-3.91887e+10
-3.90838e+10
-3.89917e+10
-3.89293e+10
-3.89047e+10
-3.89133e+10
-3.89482e+10
-3.90288e+10
-3.91947e+10
-3.9346e+10
-3.89269e+10
-3.70561e+10
-3.43662e+10
-3.59228e+10
-4.79233e+10
-5.99394e+10
-3.01883e+10
-4.13144e+10
-4.13189e+10
-4.13124e+10
-4.13244e+10
-4.14041e+10
-4.14941e+10
-4.15874e+10
-4.16872e+10
-4.17934e+10
-4.19132e+10
-4.20413e+10
-4.21658e+10
-4.22794e+10
-4.23787e+10
-4.24592e+10
-4.25125e+10
-4.25305e+10
-4.25076e+10
-4.24396e+10
-4.23215e+10
-4.21478e+10
-4.19159e+10
-4.16332e+10
-4.13179e+10
-4.09934e+10
-4.06818e+10
-4.03999e+10
-4.01585e+10
-3.99621e+10
-3.98101e+10
-3.96982e+10
-3.9618e+10
-3.95586e+10
-3.95084e+10
-3.94559e+10
-3.93922e+10
-3.93132e+10
-3.9222e+10
-3.91292e+10
-3.90514e+10
-3.90045e+10
-3.89956e+10
-3.90174e+10
-3.90594e+10
-3.91369e+10
-3.92828e+10
-3.9382e+10
-3.88474e+10
-3.6771e+10
-3.38209e+10
-3.52905e+10
-4.79656e+10
-6.14613e+10
-3.46078e+10
-4.1269e+10
-4.12707e+10
-4.12699e+10
-4.13082e+10
-4.13779e+10
-4.14719e+10
-4.15713e+10
-4.16705e+10
-4.17817e+10
-4.19153e+10
-4.20595e+10
-4.22008e+10
-4.23348e+10
-4.24569e+10
-4.25593e+10
-4.26322e+10
-4.26659e+10
-4.26535e+10
-4.25912e+10
-4.24732e+10
-4.22895e+10
-4.20297e+10
-4.16982e+10
-4.132e+10
-4.09299e+10
-4.05601e+10
-4.02331e+10
-3.9961e+10
-3.97468e+10
-3.95865e+10
-3.9472e+10
-3.93927e+10
-3.9337e+10
-3.9292e+10
-3.92448e+10
-3.91855e+10
-3.91098e+10
-3.90206e+10
-3.89282e+10
-3.88485e+10
-3.87983e+10
-3.87858e+10
-3.88068e+10
-3.88541e+10
-3.89444e+10
-3.91117e+10
-3.92504e+10
-3.87922e+10
-3.68052e+10
-3.38402e+10
-3.5145e+10
-4.79171e+10
-6.25044e+10
-3.5182e+10
-4.12563e+10
-4.12543e+10
-4.12845e+10
-4.13294e+10
-4.13962e+10
-4.14772e+10
-4.15735e+10
-4.1681e+10
-4.18017e+10
-4.19378e+10
-4.20829e+10
-4.22283e+10
-4.23673e+10
-4.24942e+10
-4.2601e+10
-4.26772e+10
-4.27131e+10
-4.2702e+10
-4.26405e+10
-4.2523e+10
-4.23381e+10
-4.20757e+10
-4.17406e+10
-4.13587e+10
-4.09663e+10
-4.05956e+10
-4.0269e+10
-3.99985e+10
-3.97865e+10
-3.96293e+10
-3.95184e+10
-3.94429e+10
-3.93906e+10
-3.93487e+10
-3.93051e+10
-3.92503e+10
-3.91799e+10
-3.90969e+10
-3.90118e+10
-3.89407e+10
-3.88996e+10
-3.88959e+10
-3.89236e+10
-3.89728e+10
-3.90559e+10
-3.91991e+10
-3.92839e+10
-3.87216e+10
-3.65278e+10
-3.30235e+10
-3.30749e+10
-4.53546e+10
-6.4407e+10
-4.17133e+10
-4.12841e+10
-4.12686e+10
-4.12714e+10
-4.13205e+10
-4.13973e+10
-4.14851e+10
-4.15779e+10
-4.16793e+10
-4.18049e+10
-4.19566e+10
-4.21178e+10
-4.22817e+10
-4.24445e+10
-4.25997e+10
-4.27373e+10
-4.28451e+10
-4.29095e+10
-4.29212e+10
-4.28754e+10
-4.27681e+10
-4.25822e+10
-4.22931e+10
-4.18961e+10
-4.14273e+10
-4.09467e+10
-4.05037e+10
-4.01268e+10
-3.98273e+10
-3.96036e+10
-3.94462e+10
-3.93424e+10
-3.92787e+10
-3.92407e+10
-3.92143e+10
-3.91864e+10
-3.91472e+10
-3.9092e+10
-3.90228e+10
-3.89491e+10
-3.88857e+10
-3.88472e+10
-3.88403e+10
-3.88585e+10
-3.88931e+10
-3.89563e+10
-3.90753e+10
-3.91353e+10
-3.85502e+10
-3.63174e+10
-3.27636e+10
-3.28853e+10
-4.489e+10
-6.26006e+10
-4.10773e+10
-4.12519e+10
-4.12267e+10
-4.12574e+10
-4.13233e+10
-4.13921e+10
-4.14665e+10
-4.15619e+10
-4.16731e+10
-4.18048e+10
-4.1957e+10
-4.21211e+10
-4.22902e+10
-4.24586e+10
-4.26191e+10
-4.27616e+10
-4.28732e+10
-4.29408e+10
-4.29547e+10
-4.29119e+10
-4.2807e+10
-4.2623e+10
-4.23355e+10
-4.19401e+10
-4.14735e+10
-4.09958e+10
-4.0556e+10
-4.01824e+10
-3.98855e+10
-3.96637e+10
-3.95078e+10
-3.94048e+10
-3.93406e+10
-3.93011e+10
-3.92721e+10
-3.92406e+10
-3.91969e+10
-3.91359e+10
-3.90591e+10
-3.89763e+10
-3.89029e+10
-3.88549e+10
-3.8841e+10
-3.88583e+10
-3.89027e+10
-3.89943e+10
-3.91708e+10
-3.93315e+10
-3.89032e+10
-3.68684e+10
-3.34568e+10
-3.352e+10
-4.54091e+10
-6.31551e+10
-4.03958e+10
-4.11796e+10
-4.11606e+10
-4.11681e+10
-4.12162e+10
-4.12994e+10
-4.13883e+10
-4.14853e+10
-4.16054e+10
-4.17584e+10
-4.19387e+10
-4.21368e+10
-4.23474e+10
-4.25642e+10
-4.27776e+10
-4.29749e+10
-4.31387e+10
-4.32496e+10
-4.32917e+10
-4.32601e+10
-4.3156e+10
-4.29581e+10
-4.26152e+10
-4.20958e+10
-4.14553e+10
-4.08092e+10
-4.02421e+10
-3.97889e+10
-3.94546e+10
-3.9226e+10
-3.90821e+10
-3.90009e+10
-3.89625e+10
-3.89486e+10
-3.89425e+10
-3.89304e+10
-3.89025e+10
-3.88548e+10
-3.87902e+10
-3.87193e+10
-3.8658e+10
-3.86228e+10
-3.86225e+10
-3.86552e+10
-3.87185e+10
-3.88365e+10
-3.90538e+10
-3.92761e+10
-3.89327e+10
-3.70311e+10
-3.39561e+10
-3.47267e+10
-4.65622e+10
-6.04024e+10
-3.16841e+10
-4.11705e+10
-4.11451e+10
-4.11631e+10
-4.1222e+10
-4.12948e+10
-4.13782e+10
-4.14862e+10
-4.16169e+10
-4.17727e+10
-4.19549e+10
-4.21579e+10
-4.23752e+10
-4.25991e+10
-4.282e+10
-4.30248e+10
-4.31959e+10
-4.33128e+10
-4.33577e+10
-4.33244e+10
-4.32134e+10
-4.30054e+10
-4.26494e+10
-4.21159e+10
-4.14645e+10
-4.08133e+10
-4.02484e+10
-3.98027e+10
-3.94787e+10
-3.92616e+10
-3.91296e+10
-3.90603e+10
-3.90331e+10
-3.90291e+10
-3.90312e+10
-3.90252e+10
-3.90003e+10
-3.89511e+10
-3.88798e+10
-3.87957e+10
-3.87136e+10
-3.8649e+10
-3.86115e+10
-3.8601e+10
-3.862e+10
-3.87011e+10
-3.89022e+10
-3.91491e+10
-3.88935e+10
-3.7148e+10
-3.42932e+10
-3.54942e+10
-4.79622e+10
-6.06556e+10
-3.05497e+10
-4.11687e+10
-4.11708e+10
-4.11799e+10
-4.12139e+10
-4.12866e+10
-4.13739e+10
-4.14797e+10
-4.1619e+10
-4.17939e+10
-4.19996e+10
-4.22351e+10
-4.24945e+10
-4.27688e+10
-4.30458e+10
-4.33086e+10
-4.35352e+10
-4.37e+10
-4.37794e+10
-4.37677e+10
-4.36762e+10
-4.34941e+10
-4.31313e+10
-4.2484e+10
-4.16145e+10
-4.07429e+10
-4.00291e+10
-3.95078e+10
-3.91671e+10
-3.8968e+10
-3.88701e+10
-3.88389e+10
-3.88465e+10
-3.88702e+10
-3.88916e+10
-3.88956e+10
-3.88713e+10
-3.88135e+10
-3.87242e+10
-3.86127e+10
-3.84939e+10
-3.83824e+10
-3.82864e+10
-3.82054e+10
-3.81428e+10
-3.81343e+10
-3.82403e+10
-3.8379e+10
-3.7977e+10
-3.60317e+10
-3.29542e+10
-3.39107e+10
-4.61515e+10
-6.00467e+10
-3.20852e+10
-4.11693e+10
-4.11711e+10
-4.11773e+10
-4.12143e+10
-4.1284e+10
-4.13796e+10
-4.14953e+10
-4.16406e+10
-4.18189e+10
-4.20305e+10
-4.22723e+10
-4.25376e+10
-4.28169e+10
-4.30974e+10
-4.33617e+10
-4.35872e+10
-4.37479e+10
-4.38214e+10
-4.38017e+10
-4.37006e+10
-4.35056e+10
-4.31261e+10
-4.24579e+10
-4.15618e+10
-4.0664e+10
-3.99312e+10
-3.9401e+10
-3.90595e+10
-3.88653e+10
-3.87753e+10
-3.87526e+10
-3.87679e+10
-3.87981e+10
-3.88248e+10
-3.88333e+10
-3.8813e+10
-3.87589e+10
-3.86732e+10
-3.85652e+10
-3.84492e+10
-3.83395e+10
-3.82436e+10
-3.81599e+10
-3.80907e+10
-3.80702e+10
-3.81574e+10
-3.82664e+10
-3.78104e+10
-3.57326e+10
-3.22454e+10
-3.2208e+10
-4.38645e+10
-6.08872e+10
-3.87226e+10
-4.10382e+10
-4.10512e+10
-4.10573e+10
-4.10818e+10
-4.11374e+10
-4.12193e+10
-4.13318e+10
-4.14839e+10
-4.16812e+10
-4.19255e+10
-4.22153e+10
-4.25449e+10
-4.29037e+10
-4.32751e+10
-4.36359e+10
-4.39568e+10
-4.42026e+10
-4.43389e+10
-4.43526e+10
-4.4276e+10
-4.41394e+10
-4.3822e+10
-4.30499e+10
-4.1804e+10
-4.05133e+10
-3.95671e+10
-3.89732e+10
-3.8651e+10
-3.85115e+10
-3.84872e+10
-3.85306e+10
-3.86077e+10
-3.86945e+10
-3.87726e+10
-3.88279e+10
-3.88501e+10
-3.8834e+10
-3.87809e+10
-3.86982e+10
-3.85974e+10
-3.84887e+10
-3.83742e+10
-3.82473e+10
-3.81055e+10
-3.79796e+10
-3.79208e+10
-3.78249e+10
-3.70767e+10
-3.46134e+10
-3.07236e+10
-3.05339e+10
-4.28353e+10
-6.16497e+10
-4.18129e+10
-4.10406e+10
-4.10479e+10
-4.10497e+10
-4.10732e+10
-4.11318e+10
-4.12154e+10
-4.13228e+10
-4.14703e+10
-4.1662e+10
-4.18991e+10
-4.21801e+10
-4.24994e+10
-4.28465e+10
-4.32055e+10
-4.35539e+10
-4.38634e+10
-4.41005e+10
-4.42327e+10
-4.42499e+10
-4.41857e+10
-4.40708e+10
-4.37876e+10
-4.30661e+10
-4.18717e+10
-4.06062e+10
-3.9655e+10
-3.90353e+10
-3.86798e+10
-3.85076e+10
-3.84539e+10
-3.8471e+10
-3.85245e+10
-3.85899e+10
-3.86485e+10
-3.86864e+10
-3.86944e+10
-3.86694e+10
-3.86147e+10
-3.85407e+10
-3.84621e+10
-3.83926e+10
-3.83385e+10
-3.82967e+10
-3.82675e+10
-3.82827e+10
-3.8392e+10
-3.84833e+10
-3.79199e+10
-3.55789e+10
-3.15922e+10
-3.07799e+10
-4.1825e+10
-5.93428e+10
-3.57556e+10
-4.09626e+10
-4.09768e+10
-4.0995e+10
-4.10314e+10
-4.10887e+10
-4.1175e+10
-4.12998e+10
-4.14728e+10
-4.17026e+10
-4.19933e+10
-4.2343e+10
-4.27446e+10
-4.31855e+10
-4.36454e+10
-4.40954e+10
-4.45e+10
-4.48195e+10
-4.50142e+10
-4.50611e+10
-4.50105e+10
-4.49799e+10
-4.48734e+10
-4.40851e+10
-4.21914e+10
-4.00573e+10
-3.88123e+10
-3.82177e+10
-3.79705e+10
-3.7933e+10
-3.80055e+10
-3.81298e+10
-3.8271e+10
-3.84091e+10
-3.85317e+10
-3.86301e+10
-3.86986e+10
-3.87359e+10
-3.87465e+10
-3.87412e+10
-3.87341e+10
-3.87374e+10
-3.87545e+10
-3.87793e+10
-3.88097e+10
-3.88728e+10
-3.9006e+10
-3.90702e+10
-3.84142e+10
-3.60161e+10
-3.23545e+10
-3.25617e+10
-4.42382e+10
-5.96244e+10
-3.45621e+10
-4.09844e+10
-4.09937e+10
-4.10155e+10
-4.1055e+10
-4.11148e+10
-4.11976e+10
-4.1316e+10
-4.14811e+10
-4.17006e+10
-4.19781e+10
-4.23122e+10
-4.2696e+10
-4.31177e+10
-4.35584e+10
-4.39904e+10
-4.43792e+10
-4.46851e+10
-4.48667e+10
-4.49025e+10
-4.48464e+10
-4.48161e+10
-4.47258e+10
-4.40139e+10
-4.22474e+10
-4.02206e+10
-3.90027e+10
-3.83832e+10
-3.81046e+10
-3.80394e+10
-3.80885e+10
-3.81919e+10
-3.83129e+10
-3.84301e+10
-3.85298e+10
-3.86025e+10
-3.86422e+10
-3.86482e+10
-3.86263e+10
-3.85893e+10
-3.85537e+10
-3.85356e+10
-3.85437e+10
-3.85782e+10
-3.8645e+10
-3.87819e+10
-3.90396e+10
-3.9294e+10
-3.89026e+10
-3.68255e+10
-3.35098e+10
-3.41778e+10
-4.61781e+10
-5.93606e+10
-3.09024e+10
-4.08741e+10
-4.08642e+10
-4.08789e+10
-4.09018e+10
-4.09343e+10
-4.09867e+10
-4.10757e+10
-4.12172e+10
-4.14255e+10
-4.1709e+10
-4.20692e+10
-4.25038e+10
-4.30083e+10
-4.35713e+10
-4.41631e+10
-4.47388e+10
-4.52504e+10
-4.56446e+10
-4.58691e+10
-4.59638e+10
-4.61554e+10
-4.65069e+10
-4.60192e+10
-4.30774e+10
-3.93214e+10
-3.76679e+10
-3.71156e+10
-3.70386e+10
-3.72206e+10
-3.74744e+10
-3.77249e+10
-3.79453e+10
-3.81281e+10
-3.82715e+10
-3.83744e+10
-3.84365e+10
-3.84608e+10
-3.84554e+10
-3.84341e+10
-3.84146e+10
-3.84132e+10
-3.84392e+10
-3.84932e+10
-3.85814e+10
-3.87398e+10
-3.90078e+10
-3.92375e+10
-3.87853e+10
-3.67679e+10
-3.40526e+10
-3.60224e+10
-4.86805e+10
-6.02923e+10
-3.02529e+10
-4.08909e+10
-4.08898e+10
-4.09106e+10
-4.09406e+10
-4.09777e+10
-4.10321e+10
-4.11208e+10
-4.12592e+10
-4.14613e+10
-4.17354e+10
-4.2083e+10
-4.25013e+10
-4.29846e+10
-4.35208e+10
-4.40825e+10
-4.46282e+10
-4.51102e+10
-4.54733e+10
-4.56522e+10
-4.56816e+10
-4.58067e+10
-4.61496e+10
-4.58111e+10
-4.32112e+10
-3.96592e+10
-3.79818e+10
-3.73443e+10
-3.72139e+10
-3.73557e+10
-3.75815e+10
-3.78151e+10
-3.80257e+10
-3.8203e+10
-3.83427e+10
-3.84419e+10
-3.84992e+10
-3.85166e+10
-3.85014e+10
-3.8467e+10
-3.84312e+10
-3.8411e+10
-3.84169e+10
-3.84521e+10
-3.85263e+10
-3.86801e+10
-3.89585e+10
-3.92165e+10
-3.8801e+10
-3.67763e+10
-3.38381e+10
-3.51317e+10
-4.74809e+10
-6.20753e+10
-3.72375e+10
-4.07282e+10
-4.07154e+10
-4.07177e+10
-4.0715e+10
-4.07168e+10
-4.07344e+10
-4.07917e+10
-4.09172e+10
-4.11388e+10
-4.14762e+10
-4.19399e+10
-4.25336e+10
-4.32605e+10
-4.41134e+10
-4.50373e+10
-4.59529e+10
-4.67959e+10
-4.75124e+10
-4.80145e+10
-4.83004e+10
-4.86595e+10
-4.93721e+10
-4.96603e+10
-4.62822e+10
-4.06212e+10
-3.6332e+10
-3.59604e+10
-3.63685e+10
-3.6882e+10
-3.7321e+10
-3.76727e+10
-3.7949e+10
-3.81635e+10
-3.83231e+10
-3.84316e+10
-3.84926e+10
-3.85121e+10
-3.84995e+10
-3.84691e+10
-3.8439e+10
-3.8426e+10
-3.8439e+10
-3.84782e+10
-3.85481e+10
-3.86798e+10
-3.89035e+10
-3.90616e+10
-3.85206e+10
-3.64583e+10
-3.37821e+10
-3.56014e+10
-4.78097e+10
-6.04777e+10
-3.20543e+10
-4.07441e+10
-4.07354e+10
-4.07434e+10
-4.07442e+10
-4.07485e+10
-4.07683e+10
-4.08269e+10
-4.09519e+10
-4.1171e+10
-4.1504e+10
-4.19604e+10
-4.25437e+10
-4.32547e+10
-4.40821e+10
-4.49844e+10
-4.58887e+10
-4.67111e+10
-4.73832e+10
-4.77545e+10
-4.78286e+10
-4.80168e+10
-4.87941e+10
-4.93681e+10
-4.66557e+10
-4.13014e+10
-3.63063e+10
-3.59576e+10
-3.63862e+10
-3.69049e+10
-3.73425e+10
-3.7693e+10
-3.79705e+10
-3.819e+10
-3.83585e+10
-3.84798e+10
-3.85568e+10
-3.85949e+10
-3.86035e+10
-3.85966e+10
-3.85912e+10
-3.86028e+10
-3.86386e+10
-3.86964e+10
-3.87771e+10
-3.8907e+10
-3.91076e+10
-3.92003e+10
-3.84963e+10
-3.60584e+10
-3.26255e+10
-3.32543e+10
-4.51938e+10
-6.25308e+10
-4.19856e+10
-4.06985e+10
-4.07038e+10
-4.06879e+10
-4.06654e+10
-4.06407e+10
-4.06319e+10
-4.06688e+10
-4.07896e+10
-4.10316e+10
-4.14168e+10
-4.19476e+10
-4.26128e+10
-4.34027e+10
-4.43036e+10
-4.52582e+10
-4.61805e+10
-4.70193e+10
-4.77278e+10
-4.82175e+10
-4.85282e+10
-4.88982e+10
-4.97248e+10
-5.06367e+10
-4.97775e+10
-4.47275e+10
-3.0314e+10
-3.2949e+10
-3.50438e+10
-3.62441e+10
-3.69756e+10
-3.74648e+10
-3.78094e+10
-3.80601e+10
-3.82412e+10
-3.83655e+10
-3.84413e+10
-3.84771e+10
-3.8485e+10
-3.8481e+10
-3.84832e+10
-3.85067e+10
-3.8557e+10
-3.86277e+10
-3.8713e+10
-3.88295e+10
-3.89918e+10
-3.90327e+10
-3.83189e+10
-3.60147e+10
-3.30008e+10
-3.45478e+10
-4.69871e+10
-5.97743e+10
-3.19161e+10
-4.06955e+10
-4.07023e+10
-4.06908e+10
-4.06722e+10
-4.06538e+10
-4.06519e+10
-4.06943e+10
-4.08164e+10
-4.10537e+10
-4.14294e+10
-4.19507e+10
-4.26121e+10
-4.34028e+10
-4.43043e+10
-4.52728e+10
-4.6213e+10
-4.70345e+10
-4.77193e+10
-4.81264e+10
-4.82632e+10
-4.85355e+10
-4.96497e+10
-5.066e+10
-5.01533e+10
-4.71691e+10
-3.01261e+10
-3.28544e+10
-3.49741e+10
-3.6207e+10
-3.69574e+10
-3.7457e+10
-3.78076e+10
-3.80628e+10
-3.82484e+10
-3.83786e+10
-3.84622e+10
-3.85081e+10
-3.85283e+10
-3.85391e+10
-3.85582e+10
-3.86001e+10
-3.86692e+10
-3.87578e+10
-3.88577e+10
-3.8982e+10
-3.91382e+10
-3.91385e+10
-3.82867e+10
-3.56753e+10
-3.2454e+10
-3.50462e+10
-4.99699e+10
-6.15936e+10
-3.1466e+10
-4.06899e+10
-4.06976e+10
-4.06838e+10
-4.06588e+10
-4.06311e+10
-4.06202e+10
-4.06576e+10
-4.07832e+10
-4.10353e+10
-4.14303e+10
-4.19605e+10
-4.26173e+10
-4.3403e+10
-4.43057e+10
-4.52643e+10
-4.61928e+10
-4.70358e+10
-4.77403e+10
-4.8236e+10
-4.85646e+10
-4.90001e+10
-4.97798e+10
-5.04159e+10
-4.64413e+10
-2.36987e+10
-3.24405e+10
-3.46754e+10
-3.5991e+10
-3.67939e+10
-3.732e+10
-3.76808e+10
-3.79362e+10
-3.81162e+10
-3.82368e+10
-3.83083e+10
-3.83405e+10
-3.83463e+10
-3.83423e+10
-3.83472e+10
-3.83756e+10
-3.84321e+10
-3.85084e+10
-3.85957e+10
-3.87079e+10
-3.88648e+10
-3.89247e+10
-3.82925e+10
-3.61157e+10
-3.3083e+10
-3.40097e+10
-4.51956e+10
-5.90701e+10
-3.34031e+10
-4.06856e+10
-4.07116e+10
-4.06934e+10
-4.06755e+10
-4.0655e+10
-4.06517e+10
-4.06934e+10
-4.08172e+10
-4.10592e+10
-4.14416e+10
-4.19677e+10
-4.26285e+10
-4.3415e+10
-4.43115e+10
-4.52714e+10
-4.62062e+10
-4.702e+10
-4.76624e+10
-4.80673e+10
-4.8224e+10
-4.85457e+10
-4.95952e+10
-5.10392e+10
-5.02256e+10
-2.46693e+10
-3.24307e+10
-3.46387e+10
-3.59715e+10
-3.67948e+10
-3.73363e+10
-3.77089e+10
-3.79731e+10
-3.81595e+10
-3.82845e+10
-3.83582e+10
-3.83902e+10
-3.83929e+10
-3.83828e+10
-3.83782e+10
-3.83945e+10
-3.84374e+10
-3.85001e+10
-3.85758e+10
-3.86812e+10
-3.88384e+10
-3.89016e+10
-3.82522e+10
-3.60385e+10
-3.32604e+10
-3.5671e+10
-4.91855e+10
-6.09629e+10
-3.07765e+10
-4.07709e+10
-4.07705e+10
-4.07739e+10
-4.07644e+10
-4.0756e+10
-4.07624e+10
-4.08109e+10
-4.09365e+10
-4.11741e+10
-4.15413e+10
-4.20331e+10
-4.26485e+10
-4.33923e+10
-4.42537e+10
-4.51819e+10
-4.60852e+10
-4.68769e+10
-4.75224e+10
-4.79533e+10
-4.8162e+10
-4.84207e+10
-4.90783e+10
-4.97676e+10
-4.85217e+10
-3.89953e+10
-3.49512e+10
-3.50038e+10
-3.57926e+10
-3.65576e+10
-3.71401e+10
-3.75673e+10
-3.78832e+10
-3.81194e+10
-3.82939e+10
-3.84162e+10
-3.84925e+10
-3.853e+10
-3.85391e+10
-3.85343e+10
-3.85321e+10
-3.85461e+10
-3.85804e+10
-3.86272e+10
-3.86795e+10
-3.87561e+10
-3.8891e+10
-3.89791e+10
-3.84883e+10
-3.66269e+10
-3.41336e+10
-3.60073e+10
-4.79788e+10
-5.90839e+10
-3.03972e+10
-4.07728e+10
-4.07883e+10
-4.07922e+10
-4.07945e+10
-4.0799e+10
-4.08195e+10
-4.08793e+10
-4.10088e+10
-4.12384e+10
-4.15868e+10
-4.20567e+10
-4.26423e+10
-4.33369e+10
-4.41292e+10
-4.49884e+10
-4.58399e+10
-4.65995e+10
-4.71922e+10
-4.75914e+10
-4.786e+10
-4.82556e+10
-4.89935e+10
-4.93331e+10
-4.8162e+10
-3.97386e+10
-3.46458e+10
-3.47512e+10
-3.56312e+10
-3.64641e+10
-3.70909e+10
-3.75455e+10
-3.78785e+10
-3.81256e+10
-3.83068e+10
-3.84322e+10
-3.85085e+10
-3.85425e+10
-3.85445e+10
-3.85288e+10
-3.85122e+10
-3.85086e+10
-3.85234e+10
-3.85504e+10
-3.85835e+10
-3.86416e+10
-3.87557e+10
-3.88119e+10
-3.82577e+10
-3.62441e+10
-3.33507e+10
-3.44915e+10
-4.64917e+10
-6.08376e+10
-3.54533e+10
-4.09919e+10
-4.09981e+10
-4.10198e+10
-4.10436e+10
-4.10758e+10
-4.11251e+10
-4.12072e+10
-4.13421e+10
-4.15493e+10
-4.18399e+10
-4.22141e+10
-4.26677e+10
-4.31946e+10
-4.37785e+10
-4.43849e+10
-4.49592e+10
-4.54374e+10
-4.57614e+10
-4.58813e+10
-4.58403e+10
-4.58798e+10
-4.6141e+10
-4.57792e+10
-4.29827e+10
-3.96128e+10
-3.78956e+10
-3.72791e+10
-3.71855e+10
-3.73593e+10
-3.75994e+10
-3.78375e+10
-3.80477e+10
-3.8224e+10
-3.83637e+10
-3.84656e+10
-3.85297e+10
-3.85591e+10
-3.85612e+10
-3.85481e+10
-3.85338e+10
-3.85299e+10
-3.85387e+10
-3.85512e+10
-3.85596e+10
-3.85827e+10
-3.86589e+10
-3.87016e+10
-3.82182e+10
-3.64266e+10
-3.39151e+10
-3.5463e+10
-4.75972e+10
-6.15621e+10
-3.50784e+10
-4.09877e+10
-4.09917e+10
-4.10134e+10
-4.10391e+10
-4.10748e+10
-4.11289e+10
-4.12165e+10
-4.13562e+10
-4.1566e+10
-4.18564e+10
-4.2228e+10
-4.26742e+10
-4.3184e+10
-4.37396e+10
-4.43101e+10
-4.48477e+10
-4.5298e+10
-4.56068e+10
-4.57448e+10
-4.57814e+10
-4.59318e+10
-4.62416e+10
-4.57945e+10
-4.3064e+10
-3.95515e+10
-3.76966e+10
-3.70827e+10
-3.70361e+10
-3.72576e+10
-3.75317e+10
-3.77903e+10
-3.80113e+10
-3.81914e+10
-3.833e+10
-3.8427e+10
-3.84832e+10
-3.85022e+10
-3.84923e+10
-3.84661e+10
-3.8439e+10
-3.84241e+10
-3.84256e+10
-3.84365e+10
-3.84489e+10
-3.84783e+10
-3.85536e+10
-3.85714e+10
-3.80082e+10
-3.5971e+10
-3.26482e+10
-3.22235e+10
-4.27421e+10
-6.13888e+10
-4.32083e+10
-4.10787e+10
-4.10866e+10
-4.11109e+10
-4.11484e+10
-4.12026e+10
-4.128e+10
-4.13907e+10
-4.1546e+10
-4.17556e+10
-4.20248e+10
-4.23528e+10
-4.27332e+10
-4.31534e+10
-4.35919e+10
-4.40183e+10
-4.43944e+10
-4.46804e+10
-4.48382e+10
-4.4841e+10
-4.47302e+10
-4.46226e+10
-4.44532e+10
-4.36785e+10
-4.19213e+10
-4.00119e+10
-3.88365e+10
-3.82161e+10
-3.7933e+10
-3.78756e+10
-3.79368e+10
-3.80523e+10
-3.81827e+10
-3.83065e+10
-3.84108e+10
-3.84881e+10
-3.85348e+10
-3.85526e+10
-3.85484e+10
-3.85341e+10
-3.85241e+10
-3.853e+10
-3.85546e+10
-3.85897e+10
-3.86279e+10
-3.86884e+10
-3.88099e+10
-3.89086e+10
-3.85007e+10
-3.68174e+10
-3.4419e+10
-3.5837e+10
-4.71388e+10
-5.99823e+10
-3.18508e+10
-4.10648e+10
-4.10704e+10
-4.10947e+10
-4.11316e+10
-4.11859e+10
-4.12641e+10
-4.13767e+10
-4.15355e+10
-4.1751e+10
-4.20287e+10
-4.23678e+10
-4.27615e+10
-4.31963e+10
-4.36506e+10
-4.4093e+10
-4.44844e+10
-4.47817e+10
-4.49451e+10
-4.49581e+10
-4.48724e+10
-4.47917e+10
-4.46118e+10
-4.37764e+10
-4.19178e+10
-3.98978e+10
-3.86788e+10
-3.80795e+10
-3.78368e+10
-3.78183e+10
-3.79084e+10
-3.80425e+10
-3.81829e+10
-3.83103e+10
-3.84136e+10
-3.84863e+10
-3.8526e+10
-3.8535e+10
-3.8521e+10
-3.8497e+10
-3.84784e+10
-3.84783e+10
-3.85009e+10
-3.85391e+10
-3.85856e+10
-3.86558e+10
-3.87805e+10
-3.88628e+10
-3.83871e+10
-3.64655e+10
-3.33537e+10
-3.34506e+10
-4.45221e+10
-6.16892e+10
-4.07829e+10
-4.11654e+10
-4.11728e+10
-4.11959e+10
-4.12335e+10
-4.12902e+10
-4.13709e+10
-4.14828e+10
-4.16333e+10
-4.18278e+10
-4.20686e+10
-4.23542e+10
-4.26785e+10
-4.30298e+10
-4.33896e+10
-4.37334e+10
-4.4032e+10
-4.42555e+10
-4.4375e+10
-4.43748e+10
-4.42783e+10
-4.41067e+10
-4.37367e+10
-4.28996e+10
-4.1595e+10
-4.02724e+10
-3.93085e+10
-3.87101e+10
-3.83869e+10
-3.82506e+10
-3.8229e+10
-3.82716e+10
-3.83433e+10
-3.84211e+10
-3.84894e+10
-3.8538e+10
-3.85622e+10
-3.85628e+10
-3.85472e+10
-3.8528e+10
-3.85205e+10
-3.85372e+10
-3.85817e+10
-3.86466e+10
-3.87251e+10
-3.8836e+10
-3.90138e+10
-3.91596e+10
-3.8754e+10
-3.69864e+10
-3.44307e+10
-3.57467e+10
-4.71359e+10
-5.95363e+10
-3.15854e+10
-4.11754e+10
-4.11784e+10
-4.12011e+10
-4.1237e+10
-4.12915e+10
-4.13694e+10
-4.14784e+10
-4.16259e+10
-4.18181e+10
-4.20578e+10
-4.23441e+10
-4.26714e+10
-4.30288e+10
-4.33989e+10
-4.37577e+10
-4.40753e+10
-4.43178e+10
-4.44528e+10
-4.44663e+10
-4.43853e+10
-4.42274e+10
-4.38544e+10
-4.29882e+10
-4.16392e+10
-4.02812e+10
-3.93166e+10
-3.87372e+10
-3.84335e+10
-3.83114e+10
-3.8298e+10
-3.83442e+10
-3.84165e+10
-3.84928e+10
-3.85583e+10
-3.86036e+10
-3.86242e+10
-3.86214e+10
-3.86026e+10
-3.85807e+10
-3.85706e+10
-3.85841e+10
-3.86234e+10
-3.86787e+10
-3.87394e+10
-3.88191e+10
-3.89464e+10
-3.90145e+10
-3.84798e+10
-3.64857e+10
-3.37448e+10
-3.57e+10
-4.91458e+10
-6.22994e+10
-3.30615e+10
-4.12715e+10
-4.12816e+10
-4.13071e+10
-4.13473e+10
-4.14056e+10
-4.14854e+10
-4.15912e+10
-4.1727e+10
-4.18953e+10
-4.20961e+10
-4.23267e+10
-4.2581e+10
-4.28492e+10
-4.31179e+10
-4.33696e+10
-4.35829e+10
-4.37321e+10
-4.3795e+10
-4.37661e+10
-4.36569e+10
-4.34533e+10
-4.30586e+10
-4.23639e+10
-4.14338e+10
-4.05002e+10
-3.97404e+10
-3.91952e+10
-3.8843e+10
-3.86379e+10
-3.85347e+10
-3.84972e+10
-3.84977e+10
-3.85147e+10
-3.85319e+10
-3.85377e+10
-3.85256e+10
-3.84949e+10
-3.84516e+10
-3.84074e+10
-3.83764e+10
-3.83696e+10
-3.83886e+10
-3.84231e+10
-3.84628e+10
-3.85202e+10
-3.86172e+10
-3.86227e+10
-3.79485e+10
-3.56724e+10
-3.22297e+10
-3.23581e+10
-4.37801e+10
-6.05856e+10
-4.21085e+10
-4.12901e+10
-4.12957e+10
-4.13213e+10
-4.13601e+10
-4.14166e+10
-4.14937e+10
-4.15959e+10
-4.17272e+10
-4.18902e+10
-4.2085e+10
-4.2309e+10
-4.25566e+10
-4.28188e+10
-4.30828e+10
-4.33321e+10
-4.35448e+10
-4.36951e+10
-4.37612e+10
-4.37381e+10
-4.36379e+10
-4.34463e+10
-4.30661e+10
-4.23899e+10
-4.1477e+10
-4.05588e+10
-3.98106e+10
-3.92713e+10
-3.89186e+10
-3.87083e+10
-3.85975e+10
-3.85517e+10
-3.85443e+10
-3.85547e+10
-3.85672e+10
-3.85707e+10
-3.85588e+10
-3.85315e+10
-3.84949e+10
-3.84605e+10
-3.84418e+10
-3.84485e+10
-3.84799e+10
-3.85219e+10
-3.85589e+10
-3.85985e+10
-3.86584e+10
-3.86011e+10
-3.78131e+10