/*--------------------------------*- C++ -*----------------------------------*\
| =========                 |                                                 |
| \\      /  F ield         | OpenFOAM: The Open Source CFD Toolbox           |
|  \\    /   O peration     | Version:  4.1                                   |
|   \\  /    A nd           | Web:      www.OpenFOAM.org                      |
|    \\/     M anipulation  |                                                 |
\*---------------------------------------------------------------------------*/
FoamFile
{
    version     2.0;
    format      ascii;
    class       surfaceScalarField;
    location    "66";
    object      phi;
}
// * * * * * * * * * * * * * * * * * * * * * * * * * * * * * * * * * * * * * //

dimensions      [0 3 -1 0 0 0 0];

internalField   nonuniform List<scalar> 
11516
(
-3.78893e+10
6.55702e+07
8.69851e+08
-3.85396e+10
1.20847e+07
6.50646e+08
-3.91004e+10
-9.92829e+06
5.83812e+08
-3.95061e+10
-5.36922e+07
4.73909e+08
-3.9884e+10
-3.97517e+07
4.33723e+08
-4.02284e+10
-4.49485e+07
4.07563e+08
-4.05278e+10
-5.57557e+07
3.75095e+08
-4.07986e+10
-6.17525e+07
3.5435e+08
-4.10377e+10
-6.88236e+07
3.3126e+08
-4.12422e+10
-7.54664e+07
3.052e+08
-4.14083e+10
-8.18728e+07
2.74679e+08
-4.15318e+10
-8.85421e+07
2.40361e+08
-4.16035e+10
-9.71981e+07
1.98293e+08
-4.16152e+10
-1.08055e+08
1.51853e+08
-4.15545e+10
-1.19346e+08
9.69753e+07
-4.14134e+10
-1.30006e+08
3.53809e+07
-4.11888e+10
-1.40282e+08
-2.91611e+07
-4.08764e+10
-1.51448e+08
-1.00327e+08
-4.04741e+10
-1.63262e+08
-1.7207e+08
-3.99778e+10
-1.75595e+08
-2.46559e+08
-3.9386e+10
-1.88086e+08
-3.21191e+08
-3.87074e+10
-2.01159e+08
-3.90014e+08
-3.79494e+10
-2.14511e+08
-4.54578e+08
-3.71279e+10
-2.27508e+08
-5.05337e+08
-3.62525e+10
-2.3936e+08
-5.46919e+08
-3.53381e+10
-2.49194e+08
-5.72775e+08
-3.43935e+10
-2.5638e+08
-5.89928e+08
-3.34338e+10
-2.60339e+08
-5.93223e+08
-3.24688e+10
-2.60557e+08
-5.89242e+08
-3.15112e+10
-2.56438e+08
-5.7644e+08
-3.0573e+10
-2.47316e+08
-5.56364e+08
-2.96631e+10
-2.32487e+08
-5.32993e+08
-2.87948e+10
-2.11089e+08
-5.02913e+08
-2.79791e+10
-1.82091e+08
-4.69214e+08
-2.72284e+10
-1.44548e+08
-4.31413e+08
-2.65558e+10
-9.76461e+07
-3.8816e+08
-2.5969e+10
-4.22396e+07
-3.43676e+08
-2.54686e+10
1.63652e+07
-2.97481e+08
-2.50419e+10
7.63135e+07
-2.59992e+08
-2.46803e+10
1.40031e+08
-2.27378e+08
-2.43774e+10
2.08527e+08
-1.98266e+08
-2.41304e+10
2.83691e+08
-1.71104e+08
-2.39432e+10
3.69238e+08
-1.43707e+08
-2.38295e+10
4.68042e+08
-1.0978e+08
-2.38209e+10
5.81221e+08
-5.97925e+07
-2.39674e+10
7.10048e+08
3.35079e+06
-2.42897e+10
8.47103e+08
1.94973e+07
-2.47013e+10
9.70612e+08
-9.867e+07
-2.51878e+10
1.04034e+09
-2.72701e+08
-2.61126e+10
1.16425e+09
1.15658e+08
-2.85453e+10
2.11521e+09
6.79934e+08
-3.23856e+10
4.23796e+09
4.62929e+08
-3.24269e+10
9.72673e+09
-9.21898e+09
5.07607e+09
-1.71206e+10
-4.95117e+10
6.16583e+08
-4.99512e+10
4.58307e+08
-5.03314e+10
3.77459e+08
-5.06923e+10
3.15138e+08
-5.09816e+10
2.58437e+08
-5.12452e+10
2.28727e+08
-5.14861e+10
1.96251e+08
-5.17063e+10
1.70439e+08
-5.19038e+10
1.41721e+08
-5.20755e+10
1.10143e+08
-5.22165e+10
7.3935e+07
-5.23242e+10
3.47945e+07
-5.23931e+10
-1.19683e+07
-5.2422e+10
-6.07033e+07
-5.24038e+10
-1.15778e+08
-5.23313e+10
-1.75862e+08
-5.22024e+10
-2.38841e+08
-5.20124e+10
-3.07698e+08
-5.17623e+10
-3.76274e+08
-5.14498e+10
-4.46584e+08
-5.10762e+10
-5.16602e+08
-5.06505e+10
-5.79479e+08
-5.01788e+10
-6.38331e+08
-4.96759e+10
-6.82822e+08
-4.91484e+10
-7.19129e+08
-4.86092e+10
-7.39402e+08
-4.80623e+10
-7.51883e+08
-4.75179e+10
-7.49975e+08
-4.6979e+10
-7.41147e+08
-4.64506e+10
-7.22852e+08
-4.59362e+10
-6.96207e+08
-4.54339e+10
-6.65843e+08
-4.49457e+10
-6.27197e+08
-4.44684e+10
-5.84191e+08
-4.39989e+10
-5.35539e+08
-4.3534e+10
-4.80103e+08
-4.30664e+10
-4.22024e+08
-4.25967e+10
-3.58196e+08
-4.21209e+10
-2.93619e+08
-4.16352e+10
-2.25895e+08
-4.11345e+10
-1.54302e+08
-4.06113e+10
-8.0245e+07
-4.00558e+10
-1.88756e+06
-3.94561e+10
8.02271e+07
-3.88079e+10
1.71329e+08
-3.81161e+10
2.67858e+08
-3.73685e+10
3.3337e+08
-3.65424e+10
3.1565e+08
-3.57456e+10
3.4369e+08
-3.54963e+10
1.02325e+09
-3.55956e+10
2.43744e+09
-3.52063e+10
4.07997e+09
-1.71881e+10
-8.11526e+09
-1.3215e+10
-6.74698e+10
7.05764e+07
9.74994e+08
-6.76136e+10
6.41872e+07
7.37898e+08
-6.77417e+10
5.38863e+07
6.65904e+08
-6.78735e+10
5.44098e+07
5.59946e+08
-6.7968e+10
4.86061e+07
4.89441e+08
-6.80558e+10
4.95301e+07
4.56798e+08
-6.81413e+10
4.92749e+07
4.23327e+08
-6.82191e+10
4.94644e+07
3.9565e+08
-6.82886e+10
4.86779e+07
3.6589e+08
-6.83523e+10
4.8298e+07
3.35235e+08
-6.8408e+10
4.73623e+07
2.9849e+08
-6.84525e+10
4.59145e+07
2.55613e+08
-6.84863e+10
4.30777e+07
2.05501e+08
-6.85065e+10
3.91337e+07
1.51315e+08
-6.8517e+10
3.47266e+07
9.28399e+07
-6.85177e+10
3.07051e+07
3.13509e+07
-6.85044e+10
2.56516e+07
-3.83132e+07
-6.84781e+10
1.97713e+07
-1.12165e+08
-6.84388e+10
1.2576e+07
-1.87439e+08
-6.83868e+10
4.78288e+06
-2.61984e+08
-6.83254e+10
-3.96318e+06
-3.33067e+08
-6.82575e+10
-1.37125e+07
-3.95051e+08
-6.81924e+10
-2.45615e+07
-4.45132e+08
-6.81331e+10
-3.64604e+07
-4.79701e+08
-6.80911e+10
-4.91601e+07
-4.93403e+08
-6.80644e+10
-6.24265e+07
-4.92132e+08
-6.806e+10
-7.6103e+07
-4.73114e+08
-6.80752e+10
-9.0215e+07
-4.41763e+08
-6.81145e+10
-1.04692e+08
-3.97753e+08
-6.81753e+10
-1.19534e+08
-3.47385e+08
-6.82591e+10
-1.34548e+08
-2.88112e+08
-6.83673e+10
-1.49661e+08
-2.24813e+08
-6.84983e+10
-1.64537e+08
-1.56656e+08
-6.86557e+10
-1.78846e+08
-8.2602e+07
-6.88395e+10
-1.92064e+08
-5.16835e+06
-6.90521e+10
-2.04158e+08
7.88125e+07
-6.92966e+10
-2.14948e+08
1.67472e+08
-6.95845e+10
-2.22992e+08
2.67996e+08
-6.99411e+10
-2.27199e+08
3.84651e+08
-7.03949e+10
-2.2704e+08
5.23684e+08
-7.09692e+10
-2.20408e+08
6.80817e+08
-7.16916e+10
-2.06137e+08
8.59314e+08
-7.25903e+10
-1.82896e+08
1.06184e+09
-7.36974e+10
-1.49706e+08
1.29554e+09
-7.50469e+10
-1.03944e+08
1.56742e+09
-7.6694e+10
-4.23505e+07
1.87734e+09
-7.87608e+10
3.94884e+07
2.20361e+09
-8.14178e+10
1.25789e+08
2.49559e+09
-8.47309e+10
2.32011e+08
2.73572e+09
-8.8125e+10
5.48962e+08
2.76408e+09
-9.22602e+10
1.82099e+09
2.8903e+09
-9.83917e+10
4.58389e+09
1.95054e+09
-1.22672e+11
1.06852e+10
4.54044e+09
6.669e+09
4.71103e+09
-7.74767e+10
7.53976e+08
-7.74881e+10
5.38336e+08
-7.75048e+10
4.52918e+08
-7.75155e+10
3.85603e+08
-7.75184e+10
3.16045e+08
-7.75099e+10
2.76607e+08
-7.74993e+10
2.42343e+08
-7.74818e+10
2.10269e+08
-7.74575e+10
1.74545e+08
-7.74287e+10
1.38734e+08
-7.73949e+10
9.71091e+07
-7.73539e+10
4.98986e+07
-7.7309e+10
-3.11044e+06
-7.72607e+10
-5.8607e+07
-7.72081e+10
-1.2013e+08
-7.71507e+10
-1.8655e+08
-7.70843e+10
-2.60607e+08
-7.70124e+10
-3.3874e+08
-7.69345e+10
-4.18187e+08
-7.6853e+10
-4.97363e+08
-7.67718e+10
-5.73188e+08
-7.66942e+10
-6.39972e+08
-7.66305e+10
-6.95296e+08
-7.65834e+10
-7.35937e+08
-7.65667e+10
-7.55943e+08
-7.65788e+10
-7.61543e+08
-7.66295e+10
-7.49222e+08
-7.67169e+10
-7.24313e+08
-7.68476e+10
-6.86057e+08
-7.70195e+10
-6.40888e+08
-7.72348e+10
-5.85538e+08
-7.7495e+10
-5.25309e+08
-7.77976e+10
-4.59395e+08
-7.81453e+10
-3.86117e+08
-7.85365e+10
-3.07678e+08
-7.89719e+10
-2.20322e+08
-7.94541e+10
-1.25759e+08
-7.99842e+10
-2.03107e+07
-8.05701e+10
9.93191e+07
-8.12179e+10
2.35083e+08
-8.19262e+10
3.81799e+08
-8.26969e+10
5.43266e+08
-8.35296e+10
7.19343e+08
-8.44281e+10
9.14829e+08
-8.53978e+10
1.13492e+09
-8.64537e+10
1.3802e+09
-8.76375e+10
1.62857e+09
-8.90282e+10
1.84519e+09
-9.05161e+10
1.99503e+09
-9.08053e+10
1.73428e+09
-8.71248e+10
4.83565e+08
-7.74264e+10
-1.0072e+09
-8.10514e+10
6.08986e+09
8.89756e+09
-5.80527e+10
1.90021e+08
5.5779e+08
-5.79002e+10
2.06679e+08
3.85546e+08
-5.7792e+10
2.0098e+08
3.64305e+08
-5.77671e+10
2.06937e+08
3.36522e+08
-5.77518e+10
1.93277e+08
2.90064e+08
-5.77457e+10
1.91163e+08
2.69485e+08
-5.77604e+10
1.89226e+08
2.59516e+08
-5.77843e+10
1.86683e+08
2.44314e+08
-5.78171e+10
1.82435e+08
2.28299e+08
-5.78524e+10
1.78354e+08
2.05219e+08
-5.78897e+10
1.73339e+08
1.76512e+08
-5.79256e+10
1.67785e+08
1.38743e+08
-5.7955e+10
1.62034e+08
8.84524e+07
-5.79695e+10
1.56499e+08
2.53294e+07
-5.79593e+10
1.49592e+08
-4.94092e+07
-5.79075e+10
1.4139e+08
-1.39891e+08
-5.78107e+10
1.33543e+08
-2.42331e+08
-5.76671e+10
1.25868e+08
-3.50882e+08
-5.74711e+10
1.17226e+08
-4.67037e+08
-5.72218e+10
1.08087e+08
-5.82069e+08
-5.69207e+10
9.89463e+07
-6.9062e+08
-5.65691e+10
9.01372e+07
-7.89681e+08
-5.61795e+10
8.17949e+07
-8.67556e+08
-5.57657e+10
7.39941e+07
-9.21133e+08
-5.5338e+10
6.73285e+07
-9.46643e+08
-5.49098e+10
6.22693e+07
-9.45181e+08
-5.44883e+10
5.90564e+07
-9.18809e+08
-5.40805e+10
5.75704e+07
-8.73895e+08
-5.36902e+10
5.7518e+07
-8.13196e+08
-5.33239e+10
5.84804e+07
-7.41176e+08
-5.2979e+10
6.01894e+07
-6.63713e+08
-5.26595e+10
6.23813e+07
-5.79762e+08
-5.2361e+10
6.5011e+07
-4.96112e+08
-5.20795e+10
6.77506e+07
-4.11734e+08
-5.18143e+10
7.04517e+07
-3.24924e+08
-5.15561e+10
7.29235e+07
-2.40908e+08
-5.1298e+10
7.53689e+07
-1.58341e+08
-5.10231e+10
7.69968e+07
-7.87179e+07
-5.07034e+10
7.90586e+07
-8.70782e+06
-5.03015e+10
8.22351e+07
4.80158e+07
-4.97945e+10
8.83919e+07
1.01104e+08
-4.91609e+10
1.00056e+08
1.51374e+08
-4.83839e+10
1.18849e+08
2.05145e+08
-4.74425e+10
1.4805e+08
2.59946e+08
-4.63206e+10
1.94613e+08
3.16002e+08
-4.50219e+10
2.70456e+08
3.64987e+08
-4.35943e+10
3.86885e+08
3.92443e+08
-4.21653e+10
5.35565e+08
4.10873e+08
-4.08523e+10
7.06991e+08
3.87461e+08
-3.99467e+10
1.04225e+09
2.62995e+08
-4.01996e+10
2.22573e+09
5.56625e+07
-4.32425e+10
4.84204e+09
-7.22299e+08
-3.94011e+10
1.1002e+10
-1.09111e+10
4.83935e+09
-8.90437e+09
-6.47003e+10
7.98393e+08
-6.45759e+10
6.24809e+08
-6.45042e+10
5.86722e+08
-6.44543e+10
5.47649e+08
-6.44435e+10
5.03878e+08
-6.44435e+10
4.7352e+08
-6.44591e+10
4.53365e+08
-6.44818e+10
4.26193e+08
-6.45169e+10
3.99197e+08
-6.45574e+10
3.65224e+08
-6.46056e+10
3.27031e+08
-6.46592e+10
2.80396e+08
-6.47125e+10
2.21604e+08
-6.47547e+10
1.4989e+08
-6.47818e+10
6.79992e+07
-6.47836e+10
-2.97253e+07
-6.47533e+10
-1.40796e+08
-6.46887e+10
-2.5871e+08
-6.45852e+10
-3.83514e+08
-6.44443e+10
-5.07113e+08
-6.42676e+10
-6.24588e+08
-6.40551e+10
-7.33425e+08
-6.38171e+10
-8.22289e+08
-6.35632e+10
-8.8834e+08
-6.32996e+10
-9.27863e+08
-6.30355e+10
-9.41663e+08
-6.27747e+10
-9.31263e+08
-6.25204e+10
-9.02659e+08
-6.22737e+10
-8.58127e+08
-6.20386e+10
-8.01637e+08
-6.18106e+10
-7.39096e+08
-6.15928e+10
-6.68689e+08
-6.13797e+10
-5.98087e+08
-6.11659e+10
-5.25923e+08
-6.09501e+10
-4.50357e+08
-6.07216e+10
-3.76728e+08
-6.04727e+10
-3.03588e+08
-6.01912e+10
-2.31324e+08
-5.98555e+10
-1.64963e+08
-5.94358e+10
-1.09211e+08
-5.8917e+10
-5.29265e+07
-5.82778e+10
4.37231e+06
-5.7503e+10
6.91829e+07
-5.65682e+10
1.39628e+08
-5.54437e+10
2.17729e+08
-5.40903e+10
2.96521e+08
-5.24833e+10
3.66399e+08
-5.06645e+10
4.39857e+08
-4.87266e+10
5.18242e+08
-4.70268e+10
7.02964e+08
-4.60022e+10
1.21442e+09
-4.45324e+10
1.76656e+09
-2.01098e+10
-7.76351e+09
-6.01274e+09
-6.44688e+10
5.25966e+07
5.21823e+08
-6.45675e+10
4.44355e+07
4.44908e+08
-6.46348e+10
4.44391e+07
3.92591e+08
-6.47129e+10
3.70207e+07
3.83281e+08
-6.48069e+10
2.83806e+07
3.61446e+08
-6.49011e+10
2.50556e+07
3.44635e+08
-6.49927e+10
2.55584e+07
3.31938e+08
-6.50869e+10
2.51775e+07
3.20255e+08
-6.51808e+10
2.40211e+07
3.0568e+08
-6.52722e+10
2.32427e+07
2.81679e+08
-6.53557e+10
2.22942e+07
2.47219e+08
-6.54267e+10
2.14803e+07
1.99056e+08
-6.54838e+10
2.09062e+07
1.3649e+08
-6.55282e+10
2.03438e+07
6.07675e+07
-6.55518e+10
1.95466e+07
-3.25006e+07
-6.55539e+10
1.65219e+07
-1.39722e+08
-6.55294e+10
1.08894e+07
-2.58658e+08
-6.54731e+10
3.75853e+06
-3.8875e+08
-6.53876e+10
-3.17264e+06
-5.24569e+08
-6.52699e+10
-9.97333e+06
-6.62402e+08
-6.51203e+10
-1.65445e+07
-7.9209e+08
-6.49431e+10
-2.2574e+07
-9.08076e+08
-6.47467e+10
-2.82746e+07
-9.97924e+08
-6.45443e+10
-3.35288e+07
-1.05517e+09
-6.43456e+10
-3.80018e+07
-1.07842e+09
-6.41609e+10
-4.11571e+07
-1.06605e+09
-6.39949e+10
-4.26535e+07
-1.02456e+09
-6.38518e+10
-4.23957e+07
-9.60836e+08
-6.37351e+10
-4.06541e+07
-8.78838e+08
-6.36446e+10
-3.76404e+07
-7.87127e+08
-6.35847e+10
-3.35773e+07
-6.87519e+08
-6.35536e+10
-2.84395e+07
-5.84637e+08
-6.35562e+10
-2.25005e+07
-4.79512e+08
-6.35935e+10
-1.57696e+07
-3.74047e+08
-6.36656e+10
-8.37799e+06
-2.68234e+08
-6.37792e+10
-676648
-1.59057e+08
-6.39359e+10
6.85662e+06
-5.06143e+07
-6.41411e+10
1.44064e+07
6.12132e+07
-6.44093e+10
2.02051e+07
1.80251e+08
-6.47579e+10
2.428e+07
3.07569e+08
-6.52003e+10
2.78154e+07
4.4671e+08
-6.57487e+10
3.31326e+07
5.95842e+08
-6.64127e+10
4.0987e+07
7.56278e+08
-6.72127e+10
5.18098e+07
9.34699e+08
-6.81767e+10
6.79117e+07
1.12928e+09
-6.93606e+10
9.4207e+07
1.34183e+09
-7.08663e+10
1.33923e+08
1.57299e+09
-7.27979e+10
1.63612e+08
1.81786e+09
-7.5331e+10
2.07573e+08
2.06343e+09
-7.87961e+10
4.6733e+08
2.19085e+09
-8.36527e+10
1.63292e+09
1.80527e+09
-9.01308e+10
4.53962e+09
-3.10949e+08
-1.11254e+11
1.33805e+10
-4.57982e+09
8.70547e+09
1.62702e+10
-6.60003e+10
8.24034e+08
-6.60513e+10
7.24069e+08
-6.60926e+10
6.76612e+08
-6.6137e+10
6.33287e+08
-6.61947e+10
5.94494e+08
-6.62549e+10
5.63499e+08
-6.63068e+10
5.35913e+08
-6.63577e+10
5.07839e+08
-6.64057e+10
4.77347e+08
-6.64482e+10
4.37695e+08
-6.64805e+10
3.89354e+08
-6.64979e+10
3.27973e+08
-6.64985e+10
2.52228e+08
-6.64812e+10
1.62655e+08
-6.6439e+10
5.56421e+07
-6.63791e+10
-6.08218e+07
-6.63105e+10
-1.83753e+08
-6.62328e+10
-3.15331e+08
-6.61482e+10
-4.52214e+08
-6.60539e+10
-5.90132e+08
-6.59515e+10
-7.18919e+08
-6.58469e+10
-8.33092e+08
-6.5748e+10
-9.21125e+08
-6.56665e+10
-9.76969e+08
-6.56098e+10
-9.99967e+08
-6.55849e+10
-9.89001e+08
-6.55924e+10
-9.507e+08
-6.56318e+10
-8.92277e+08
-6.57013e+10
-8.17946e+08
-6.57952e+10
-7.3639e+08
-6.59118e+10
-6.49595e+08
-6.60432e+10
-5.62525e+08
-6.6188e+10
-4.76468e+08
-6.63413e+10
-3.93564e+08
-6.64963e+10
-3.14158e+08
-6.6654e+10
-2.35791e+08
-6.681e+10
-1.62398e+08
-6.69645e+10
-8.93605e+07
-6.71285e+10
-1.19542e+07
-6.73167e+10
6.91909e+07
-6.75322e+10
1.5511e+08
-6.77711e+10
2.4117e+08
-6.8023e+10
3.27643e+08
-6.82864e+10
4.2006e+08
-6.85544e+10
5.12654e+08
-6.88285e+10
6.00744e+08
-6.91319e+10
6.83589e+08
-6.95138e+10
7.50239e+08
-6.99418e+10
7.40505e+08
-6.98493e+10
4.36749e+08
-6.75738e+10
-3.49055e+08
-5.96322e+10
-2.60645e+09
-4.80632e+10
-6.31264e+09
-6.19793e+08
-6.08285e+10
-1.80338e+07
4.99915e+08
-6.08026e+10
-2.86557e+07
4.55943e+08
-6.08121e+10
-2.88274e+07
4.39908e+08
-6.0821e+10
-2.82554e+07
4.30074e+08
-6.08512e+10
-2.66097e+07
4.28568e+08
-6.08985e+10
-2.25265e+07
4.25473e+08
-6.09562e+10
-1.78842e+07
4.1952e+08
-6.10226e+10
-1.36589e+07
4.13297e+08
-6.10936e+10
-9.56052e+06
4.00218e+08
-6.11678e+10
-5.66442e+06
3.7681e+08
-6.12426e+10
-2.32491e+06
3.41553e+08
-6.13147e+10
685516
2.89835e+08
-6.13824e+10
3.74543e+06
2.21747e+08
-6.14371e+10
6.71152e+06
1.30828e+08
-6.14737e+10
1.01211e+07
1.66312e+07
-6.14861e+10
1.5876e+07
-1.18763e+08
-6.14661e+10
2.42819e+07
-2.74419e+08
-6.14089e+10
3.23227e+07
-4.45046e+08
-6.13109e+10
3.86156e+07
-6.24467e+08
-6.11693e+10
4.34301e+07
-8.06731e+08
-6.09817e+10
4.70421e+07
-9.81247e+08
-6.07484e+10
4.95761e+07
-1.13768e+09
-6.04798e+10
4.98036e+07
-1.25962e+09
-6.01901e+10
4.74819e+07
-1.33614e+09
-5.98968e+10
4.25729e+07
-1.36245e+09
-5.96105e+10
3.57177e+07
-1.34113e+09
-5.93395e+10
2.77353e+07
-1.27928e+09
-5.90887e+10
1.90696e+07
-1.18819e+09
-5.88604e+10
9.96511e+06
-1.07533e+09
-5.86551e+10
677042
-9.51812e+08
-5.8472e+10
-8.43435e+06
-8.21969e+08
-5.83095e+10
-1.68809e+07
-6.91606e+08
-5.81651e+10
-2.43109e+07
-5.63263e+08
-5.80386e+10
-3.03195e+07
-4.36991e+08
-5.79287e+10
-3.45523e+07
-3.14201e+08
-5.78335e+10
-3.62287e+07
-1.93023e+08
-5.7758e+10
-3.4294e+07
-7.12145e+07
-5.77008e+10
-2.62124e+07
4.7423e+07
-5.76592e+10
-1.01028e+07
1.63914e+08
-5.76295e+10
1.52707e+07
2.78934e+08
-5.76101e+10
5.14145e+07
3.96192e+08
-5.76065e+10
9.85659e+07
5.21534e+08
-5.76259e+10
1.5791e+08
6.55592e+08
-5.76813e+10
2.3248e+08
8.05881e+08
-5.77955e+10
3.25243e+08
9.70482e+08
-5.80148e+10
4.40721e+08
1.1563e+09
-5.84308e+10
5.80893e+08
1.37954e+09
-5.91422e+10
7.06306e+08
1.64683e+09
-6.03842e+10
8.3992e+08
2.03787e+09
-6.27592e+10
1.1034e+09
2.74394e+09
-6.80753e+10
2.01028e+09
4.33214e+09
-8.05585e+10
3.97917e+09
7.36354e+09
-1.19574e+11
1.28235e+10
2.14239e+10
-5.63339e+09
1.15478e+10
-5.81507e+10
6.61658e+08
-5.80567e+10
6.08539e+08
-5.7998e+10
5.96623e+08
-5.7957e+10
5.72253e+08
-5.79406e+10
5.60388e+08
-5.79417e+10
5.51719e+08
-5.79517e+10
5.38576e+08
-5.79712e+10
5.24956e+08
-5.7997e+10
5.05849e+08
-5.8029e+10
4.77363e+08
-5.8065e+10
4.37879e+08
-5.81022e+10
3.82416e+08
-5.814e+10
3.11582e+08
-5.8171e+10
2.18998e+08
-5.81901e+10
1.04104e+08
-5.81795e+10
-3.44086e+07
-5.81178e+10
-1.97296e+08
-5.79961e+10
-3.77727e+08
-5.78107e+10
-5.69433e+08
-5.75583e+10
-7.66256e+08
-5.72359e+10
-9.56724e+08
-5.68464e+10
-1.13103e+09
-5.64017e+10
-1.27114e+09
-5.59211e+10
-1.36571e+09
-5.54272e+10
-1.40892e+09
-5.49375e+10
-1.4025e+09
-5.44672e+10
-1.3533e+09
-5.40272e+10
-1.27267e+09
-5.36254e+10
-1.16848e+09
-5.32661e+10
-1.05264e+09
-5.29509e+10
-9.30274e+08
-5.26791e+10
-8.07901e+08
-5.24484e+10
-6.88286e+08
-5.22572e+10
-5.72469e+08
-5.21018e+10
-4.62552e+08
-5.19762e+10
-3.57285e+08
-5.18778e+10
-2.55394e+08
-5.1793e+10
-1.60508e+08
-5.17047e+10
-6.84756e+07
-5.1594e+10
1.98698e+07
-5.14403e+10
1.06172e+08
-5.12362e+10
1.98751e+08
-5.09779e+10
3.02552e+08
-5.06591e+10
4.21171e+08
-5.02748e+10
5.47217e+08
-4.98299e+10
6.79845e+08
-4.93546e+10
8.26083e+08
-4.89424e+10
9.86459e+08
-4.86872e+10
1.12384e+09
-4.86344e+10
1.13795e+09
-4.92604e+10
1.9249e+09
-5.39058e+10
6.02743e+09
-6.75319e+10
2.03529e+10
8.32623e+09
-5.84808e+10
2.22548e+08
2.40302e+08
-5.84719e+10
2.23339e+08
2.38601e+08
-5.84898e+10
2.33903e+08
2.39939e+08
-5.85247e+10
2.4076e+08
2.41774e+08
-5.85747e+10
2.48241e+08
2.4953e+08
-5.86407e+10
2.56354e+08
2.55997e+08
-5.87225e+10
2.6472e+08
2.59108e+08
-5.88172e+10
2.73231e+08
2.58889e+08
-5.89223e+10
2.81966e+08
2.49269e+08
-5.90365e+10
2.906e+08
2.28206e+08
-5.91543e+10
2.99316e+08
1.9045e+08
-5.92738e+10
3.08017e+08
1.34846e+08
-5.93904e+10
3.1672e+08
5.79724e+07
-5.95003e+10
3.24744e+08
-4.58111e+07
-5.96014e+10
3.31135e+08
-1.75238e+08
-5.96857e+10
3.35295e+08
-3.30021e+08
-5.97479e+10
3.37311e+08
-5.06396e+08
-5.9781e+10
3.36795e+08
-7.00843e+08
-5.97818e+10
3.33382e+08
-9.04262e+08
-5.97497e+10
3.27751e+08
-1.1094e+09
-5.9681e+10
3.20496e+08
-1.30521e+09
-5.95786e+10
3.10775e+08
-1.47768e+09
-5.9453e+10
2.98466e+08
-1.60264e+09
-5.93248e+10
2.83139e+08
-1.66349e+09
-5.92144e+10
2.65191e+08
-1.6535e+09
-5.91332e+10
2.45578e+08
-1.58226e+09
-5.90863e+10
2.25178e+08
-1.46207e+09
-5.90746e+10
2.04389e+08
-1.31001e+09
-5.90921e+10
1.83487e+08
-1.14081e+09
-5.91355e+10
1.62587e+08
-9.64279e+08
-5.91963e+10
1.41969e+08
-7.9006e+08
-5.92671e+10
1.21671e+08
-6.23289e+08
-5.93418e+10
1.01934e+08
-4.65157e+08
-5.94123e+10
8.27826e+07
-3.18427e+08
-5.94728e+10
6.44854e+07
-1.81244e+08
-5.95164e+10
4.71373e+07
-5.38715e+07
-5.95366e+10
3.10668e+07
6.80967e+07
-5.95316e+10
1.76202e+07
1.8351e+08
-5.94985e+10
8.50969e+06
2.93173e+08
-5.94354e+10
3.82609e+06
3.98684e+08
-5.93333e+10
3.83532e+06
4.98568e+08
-5.91825e+10
1.05001e+07
5.95432e+08
-5.89717e+10
2.62633e+07
6.86218e+08
-5.86861e+10
5.12965e+07
7.71296e+08
-5.83208e+10
8.5005e+07
8.5387e+08
-5.78683e+10
1.26268e+08
9.27373e+08
-5.72935e+10
1.66731e+08
9.76056e+08
-5.65396e+10
2.01947e+08
9.90033e+08
-5.54061e+10
1.8902e+08
9.64027e+08
-5.34953e+10
8.64524e+07
9.99766e+08
-5.05882e+10
2.57236e+08
1.60457e+09
-4.9074e+10
2.55495e+09
4.176e+09
-5.51477e+10
1.1788e+10
1.63774e+10
5.90383e+09
7.93656e+09
-6.13265e+10
9.18928e+08
-6.14356e+10
9.50918e+08
-6.1541e+10
9.46797e+08
-6.16634e+10
9.47087e+08
-6.17976e+10
9.55601e+08
-6.19415e+10
9.65715e+08
-6.20948e+10
9.7141e+08
-6.22537e+10
9.73043e+08
-6.24135e+10
9.6465e+08
-6.25717e+10
9.44453e+08
-6.27207e+10
9.0612e+08
-6.28563e+10
8.47918e+08
-6.29699e+10
7.65442e+08
-6.30544e+10
6.52525e+08
-6.31043e+10
5.10005e+08
-6.31147e+10
3.37103e+08
-6.30845e+10
1.37965e+08
-6.3012e+10
-8.25387e+07
-6.29005e+10
-3.13511e+08
-6.27516e+10
-5.49773e+08
-6.2562e+10
-7.83419e+08
-6.23334e+10
-1.00083e+09
-6.20757e+10
-1.17826e+09
-6.18062e+10
-1.29837e+09
-6.15431e+10
-1.35262e+09
-6.12964e+10
-1.34778e+09
-6.10719e+10
-1.2941e+09
-6.0871e+10
-1.20668e+09
-6.06901e+10
-1.09935e+09
-6.05277e+10
-9.8151e+08
-6.03779e+10
-8.62925e+08
-6.02363e+10
-7.48584e+08
-6.00999e+10
-6.39609e+08
-5.99635e+10
-5.38887e+08
-5.98258e+10
-4.44848e+08
-5.96835e+10
-3.57109e+08
-5.95345e+10
-2.72917e+08
-5.93777e+10
-1.92442e+08
-5.92075e+10
-1.13951e+08
-5.90227e+10
-3.26281e+07
-5.88197e+10
5.12985e+07
-5.85879e+10
1.41602e+08
-5.83098e+10
2.37695e+08
-5.79663e+10
3.39553e+08
-5.75516e+10
4.46642e+08
-5.70601e+10
5.49156e+08
-5.64843e+10
6.37218e+08
-5.58088e+10
6.95913e+08
-5.49985e+10
6.53157e+08
-5.39652e+10
3.70564e+08
-5.16341e+10
1.67353e+08
-4.54773e+10
2.86685e+09
-2.62629e+10
1.3308e+10
6.24595e+09
-5.44041e+10
3.7875e+08
-1.91617e+08
-5.43988e+10
4.01227e+08
-1.5139e+08
-5.44266e+10
4.10715e+08
-1.25546e+08
-5.44866e+10
4.21162e+08
-1.00602e+08
-5.45731e+10
4.29893e+08
-7.36448e+07
-5.46827e+10
4.37035e+08
-4.96655e+07
-5.48152e+10
4.43184e+08
-2.81491e+07
-5.49683e+10
4.49381e+08
-1.26905e+07
-5.514e+10
4.55107e+08
-7.99739e+06
-5.53242e+10
4.59741e+08
-1.96814e+07
-5.55199e+10
4.62512e+08
-4.67663e+07
-5.57156e+10
4.63379e+08
-1.00536e+08
-5.59005e+10
4.62319e+08
-1.8465e+08
-5.60666e+10
4.5909e+08
-3.03124e+08
-5.62025e+10
4.53382e+08
-4.5763e+08
-5.62957e+10
4.454e+08
-6.47964e+08
-5.63309e+10
4.35883e+08
-8.71521e+08
-5.62984e+10
4.26313e+08
-1.12115e+09
-5.61891e+10
4.18574e+08
-1.38959e+09
-5.59978e+10
4.12664e+08
-1.66647e+09
-5.57152e+10
4.07716e+08
-1.94226e+09
-5.53415e+10
4.03279e+08
-2.19389e+09
-5.48896e+10
3.99348e+08
-2.38618e+09
-5.43978e+10
3.95708e+08
-2.47948e+09
-5.39067e+10
3.9251e+08
-2.46409e+09
-5.34505e+10
3.90892e+08
-2.352e+09
-5.30478e+10
3.90844e+08
-2.172e+09
-5.27068e+10
3.92155e+08
-1.95193e+09
-5.24293e+10
3.94147e+08
-1.71319e+09
-5.22079e+10
3.96096e+08
-1.47463e+09
-5.20366e+10
3.97569e+08
-1.24425e+09
-5.19054e+10
3.98205e+08
-1.03064e+09
-5.18054e+10
3.9804e+08
-8.33813e+08
-5.17298e+10
3.9716e+08
-6.54749e+08
-5.16709e+10
3.96277e+08
-4.9242e+08
-5.16229e+10
3.96201e+08
-3.46118e+08
-5.15762e+10
3.9794e+08
-2.15207e+08
-5.1517e+10
3.98559e+08
-1.01176e+08
-5.1431e+10
3.98191e+08
-2.26354e+06
-5.12997e+10
3.98294e+08
7.85216e+07
-5.11125e+10
4.00081e+08
1.47577e+08
-5.08561e+10
4.03803e+08
2.04595e+08
-5.05181e+10
4.11482e+08
2.44354e+08
-5.00861e+10
4.23538e+08
2.62251e+08
-4.95481e+10
4.38894e+08
2.53754e+08
-4.88972e+10
4.58613e+08
2.04772e+08
-4.81412e+10
4.94378e+08
9.25495e+07
-4.73278e+10
5.75313e+08
-8.01953e+07
-4.64751e+10
7.13191e+08
-3.16061e+08
-4.51562e+10
7.09305e+08
-6.07049e+08
-4.22419e+10
6.12777e+08
-1.26209e+09
-3.75559e+10
3.47222e+09
-3.03347e+09
-3.11998e+10
1.16034e+10
-7.06841e+08
4.06412e+09
1.98906e+09
-5.89373e+10
1.21354e+09
-5.88394e+10
1.26499e+09
-5.87602e+10
1.28968e+09
-5.86937e+10
1.31375e+09
-5.86378e+10
1.3425e+09
-5.8589e+10
1.36785e+09
-5.85491e+10
1.38937e+09
-5.85158e+10
1.40473e+09
-5.84886e+10
1.40887e+09
-5.84625e+10
1.39531e+09
-5.84404e+10
1.36495e+09
-5.84164e+10
1.30719e+09
-5.83858e+10
1.21824e+09
-5.83465e+10
1.0936e+09
-5.82931e+10
9.30736e+08
-5.82192e+10
7.28899e+08
-5.81136e+10
4.89221e+08
-5.79643e+10
2.17163e+08
-5.77556e+10
-7.87482e+07
-5.74789e+10
-3.86326e+08
-5.71262e+10
-6.9687e+08
-5.67001e+10
-9.87292e+08
-5.62162e+10
-1.22353e+09
-5.57115e+10
-1.36696e+09
-5.52224e+10
-1.40709e+09
-5.47783e+10
-1.35612e+09
-5.43908e+10
-1.2411e+09
-5.40618e+10
-1.0884e+09
-5.3788e+10
-9.18351e+08
-5.35583e+10
-7.48969e+08
-5.33647e+10
-5.87731e+08
-5.31964e+10
-4.42468e+08
-5.30446e+10
-3.12347e+08
-5.29023e+10
-1.98e+08
-5.2762e+10
-9.80179e+07
-5.2619e+10
-7.57927e+06
-5.24661e+10
7.47938e+07
-5.22981e+10
1.49213e+08
-5.21103e+10
2.1857e+08
-5.18889e+10
2.80931e+08
-5.16251e+10
3.43028e+08
-5.13059e+10
4.04295e+08
-5.0918e+10
4.6461e+08
-5.04499e+10
5.21873e+08
-4.98932e+10
5.7107e+08
-4.92437e+10
5.9916e+08
-4.84872e+10
5.93777e+08
-4.7576e+10
5.49401e+08
-4.64863e+10
4.63369e+08
-4.5712e+10
5.58482e+08
-4.51702e+10
6.57347e+08
-3.72652e+10
-9.07843e+08
-9.47742e+09
-2.47113e+09
-1.50279e+09
-5.95005e+10
-2.34231e+07
-1.87069e+08
-5.95063e+10
-1.19055e+07
-1.18726e+08
-5.9538e+10
-3.32599e+06
-7.52397e+07
-5.9595e+10
3.66398e+06
-3.14018e+07
-5.96742e+10
1.00509e+07
1.23007e+07
-5.97742e+10
1.51638e+07
5.28607e+07
-5.98961e+10
2.03632e+07
9.19426e+07
-6.00361e+10
2.67293e+07
1.19853e+08
-6.01941e+10
3.38998e+07
1.35809e+08
-6.03684e+10
4.17123e+07
1.33065e+08
-6.05501e+10
5.01006e+07
1.05633e+08
-6.07341e+10
5.95209e+07
4.57459e+07
-6.09115e+10
7.02798e+07
-5.47455e+07
-6.10714e+10
8.2297e+07
-2.02985e+08
-6.12031e+10
9.54976e+07
-4.01108e+08
-6.12923e+10
1.10115e+08
-6.51611e+08
-6.13259e+10
1.26424e+08
-9.4973e+08
-6.12881e+10
1.44978e+08
-1.28991e+09
-6.11684e+10
1.66132e+08
-1.66096e+09
-6.09594e+10
1.88074e+08
-2.04736e+09
-6.06521e+10
2.08979e+08
-2.44001e+09
-6.02336e+10
2.27697e+08
-2.81777e+09
-5.97119e+10
2.41983e+08
-3.12482e+09
-5.91281e+10
2.48891e+08
-3.28672e+09
-5.85385e+10
2.47657e+08
-3.27343e+09
-5.79801e+10
2.38503e+08
-3.11652e+09
-5.74672e+10
2.23761e+08
-2.86847e+09
-5.70012e+10
2.06215e+08
-2.57529e+09
-5.65741e+10
1.88317e+08
-2.27174e+09
-5.61743e+10
1.72124e+08
-1.98263e+09
-5.57878e+10
1.59024e+08
-1.71948e+09
-5.54041e+10
1.50059e+08
-1.4882e+09
-5.50132e+10
1.45961e+08
-1.28893e+09
-5.46063e+10
1.4647e+08
-1.12069e+09
-5.41757e+10
1.51478e+08
-9.81646e+08
-5.37161e+10
1.60693e+08
-8.67131e+08
-5.3221e+10
1.74378e+08
-7.78229e+08
-5.26873e+10
1.91744e+08
-7.10076e+08
-5.2108e+10
2.11826e+08
-6.63932e+08
-5.14784e+10
2.34394e+08
-6.38116e+08
-5.0785e+10
2.58321e+08
-6.33784e+08
-5.00144e+10
2.80857e+08
-6.48532e+08
-4.91568e+10
3.0037e+08
-6.8446e+08
-4.82044e+10
3.15149e+08
-7.49323e+08
-4.71552e+10
3.22059e+08
-8.47306e+08
-4.6009e+10
3.16648e+08
-9.96852e+08
-4.47551e+10
3.01487e+08
-1.23662e+09
-4.33088e+10
2.79647e+08
-1.61854e+09
-4.1434e+10
2.52612e+08
-2.24033e+09
-3.91213e+10
2.34392e+08
-2.84621e+09
-3.62128e+10
1.44645e+08
-3.71105e+09
-3.53088e+10
1.71792e+09
-4.65383e+09
-2.51508e+10
6.04279e+08
-1.071e+10
2.41398e+09
-1.02225e+10
-5.89003e+10
1.19478e+09
-5.89068e+10
1.26942e+09
-5.89323e+10
1.32194e+09
-5.89798e+10
1.37547e+09
-5.90456e+10
1.42948e+09
-5.91304e+10
1.47951e+09
-5.92372e+10
1.52883e+09
-5.93617e+10
1.56869e+09
-5.95039e+10
1.59809e+09
-5.96627e+10
1.60908e+09
-5.98301e+10
1.59631e+09
-6.00008e+10
1.55194e+09
-6.01654e+10
1.46786e+09
-6.03114e+10
1.33633e+09
-6.04266e+10
1.15426e+09
-6.04944e+10
9.17653e+08
-6.04987e+10
6.29212e+08
-6.04181e+10
2.90015e+08
-6.02317e+10
-9.07744e+07
-5.99219e+10
-4.98712e+08
-5.94738e+10
-9.24825e+08
-5.88708e+10
-1.34944e+09
-5.81219e+10
-1.71707e+09
-5.72782e+10
-1.94739e+09
-5.64195e+10
-2.00206e+09
-5.56102e+10
-1.90719e+09
-5.48886e+10
-1.71337e+09
-5.42718e+10
-1.46709e+09
-5.376e+10
-1.20421e+09
-5.33441e+10
-9.50104e+08
-5.30097e+10
-7.15923e+08
-5.27447e+10
-5.06211e+08
-5.25384e+10
-3.17707e+08
-5.23802e+10
-1.51107e+08
-5.22595e+10
-4.86341e+06
-5.21684e+10
1.2855e+08
-5.20975e+10
2.49795e+08
-5.20425e+10
3.64313e+08
-5.19978e+10
4.73413e+08
-5.19626e+10
5.80361e+08
-5.19293e+10
6.8433e+08
-5.18942e+10
7.85512e+08
-5.18575e+10
8.82952e+08
-5.18188e+10
9.67487e+08
-5.17821e+10
1.02749e+09
-5.17423e+10
1.03036e+09
-5.16602e+10
9.35021e+08
-5.14137e+10
6.74442e+08
-5.07497e+10
1.60766e+08
-4.94839e+10
-2.68493e+08
-4.79082e+10
-3.03402e+08
-4.54948e+10
-1.08513e+09
-2.82355e+10
-1.88524e+10
-1.36035e+10
-6.18949e+10
-4.57881e+07
-1.38862e+08
-6.19087e+10
-3.15686e+07
-6.26092e+07
-6.19416e+10
-1.74955e+07
-1.39041e+07
-6.19932e+10
-4.64987e+06
3.62123e+07
-6.20643e+10
1.00511e+07
8.53995e+07
-6.21546e+10
2.52387e+07
1.30535e+08
-6.22645e+10
4.16764e+07
1.73462e+08
-6.23954e+10
5.96156e+07
2.04901e+08
-6.25451e+10
7.86384e+07
2.21027e+08
-6.27131e+10
9.83096e+07
2.17104e+08
-6.28957e+10
1.18619e+08
1.84324e+08
-6.30839e+10
1.39375e+08
1.09774e+08
-6.32693e+10
1.60034e+08
-1.37913e+07
-6.34415e+10
1.7998e+08
-1.95786e+08
-6.35844e+10
1.99041e+08
-4.44853e+08
-6.36842e+10
2.16753e+08
-7.60607e+08
-6.37235e+10
2.33154e+08
-1.14124e+09
-6.36877e+10
2.4859e+08
-1.57718e+09
-6.35631e+10
2.62325e+08
-2.05373e+09
-6.334e+10
2.7674e+08
-2.55475e+09
-6.30142e+10
2.9463e+08
-3.06828e+09
-6.25718e+10
3.17665e+08
-3.58579e+09
-6.2015e+10
3.47505e+08
-4.03865e+09
-6.1419e+10
3.86342e+08
-4.27986e+09
-6.09054e+10
4.32498e+08
-4.22965e+09
-6.05482e+10
4.78075e+08
-3.95858e+09
-6.03564e+10
5.1564e+08
-3.57552e+09
-6.03124e+10
5.40157e+08
-3.15167e+09
-6.0382e+10
5.49946e+08
-2.73841e+09
-6.05297e+10
5.46141e+08
-2.36342e+09
-6.0721e+10
5.31301e+08
-2.03932e+09
-6.09303e+10
5.08061e+08
-1.76534e+09
-6.11366e+10
4.78427e+08
-1.53867e+09
-6.1325e+10
4.42929e+08
-1.35284e+09
-6.14878e+10
4.01227e+08
-1.19809e+09
-6.16143e+10
3.51973e+08
-1.07119e+09
-6.1701e+10
2.9443e+08
-9.64606e+08
-6.17411e+10
2.28098e+08
-8.76094e+08
-6.17353e+10
1.52056e+08
-7.97303e+08
-6.16824e+10
6.49322e+07
-7.27016e+08
-6.15846e+10
-3.49932e+07
-6.61111e+08
-6.14474e+10
-1.49284e+08
-5.93926e+08
-6.12835e+10
-2.81046e+08
-5.20992e+08
-6.11113e+10
-4.36721e+08
-4.47232e+08
-6.09529e+10
-6.24833e+08
-3.73815e+08
-6.0844e+10
-8.50539e+08
-3.11414e+08
-6.08323e+10
-1.11673e+09
-2.80995e+08
-6.09321e+10
-1.42925e+09
-3.52016e+08
-6.09968e+10
-1.80269e+09
-7.43226e+08
-5.98176e+10
-2.33336e+09
-2.11344e+09
-5.63527e+10
-2.67213e+09
-4.83297e+09
-4.99757e+10
-2.98823e+09
-8.21374e+09
-4.0656e+10
-4.31102e+09
-1.58229e+10
-3.31441e+09
-4.95196e+09
-6.24434e+10
1.21634e+09
-6.25386e+10
1.33889e+09
-6.26385e+10
1.41027e+09
-6.27604e+10
1.49906e+09
-6.28994e+10
1.58512e+09
-6.30575e+10
1.66982e+09
-6.32354e+10
1.75568e+09
-6.34329e+10
1.83361e+09