/*--------------------------------*- C++ -*----------------------------------*\
| =========                 |                                                 |
| \\      /  F ield         | OpenFOAM: The Open Source CFD Toolbox           |
|  \\    /   O peration     | Version:  4.1                                   |
|   \\  /    A nd           | Web:      www.OpenFOAM.org                      |
|    \\/     M anipulation  |                                                 |
\*---------------------------------------------------------------------------*/
FoamFile
{
    version     2.0;
    format      ascii;
    class       volVectorField;
    location    "66";
    object      U;
}
// * * * * * * * * * * * * * * * * * * * * * * * * * * * * * * * * * * * * * //

dimensions      [0 1 -1 0 0 0 0];

internalField   nonuniform List<vector> 
4432
(
(-147785 -4102.4 -365.169)
(-154400 -4197.07 -894.542)
(-155406 -3878.53 -672.823)
(-157026 -4195.42 -1326.36)
(-158792 -4198.51 -1568.04)
(-160340 -4197.01 -1655.29)
(-161546 -4231.24 -1855.76)
(-162679 -4240.6 -2008.29)
(-163693 -4249.82 -2169.26)
(-164589 -4262.93 -2344.76)
(-165344 -4280.46 -2537.86)
(-165933 -4298.28 -2757.58)
(-166328 -4317.85 -3003.85)
(-166496 -4341.78 -3271.94)
(-166405 -4367.07 -3556.61)
(-166004 -4391.29 -3857.55)
(-165270 -4417.27 -4174.47)
(-164196 -4448.99 -4509.43)
(-162766 -4487.11 -4857.04)
(-160965 -4530.9 -5211.12)
(-158781 -4579.91 -5562.84)
(-156229 -4635.01 -5902.83)
(-153345 -4694.61 -6217.73)
(-150172 -4756.67 -6497.36)
(-146766 -4817.76 -6733.47)
(-143171 -4874.88 -6923.66)
(-139442 -4924.52 -7066.07)
(-135621 -4963.96 -7161.59)
(-131765 -4989.92 -7210.1)
(-127915 -4999.64 -7212.94)
(-124124 -4990.07 -7171.37)
(-120435 -4958.26 -7086.95)
(-116886 -4901.52 -6964.16)
(-113528 -4817.5 -6805.24)
(-110397 -4705.95 -6614.19)
(-107536 -4568.16 -6394.23)
(-104986 -4410.86 -6154.04)
(-102805 -4253.85 -5912.13)
(-100915 -4110.79 -5726.1)
(-99301.2 -3980.51 -5595.45)
(-97958.5 -3864.67 -5510.42)
(-96867.2 -3759.86 -5451.71)
(-95987.2 -3650.61 -5393.31)
(-95318.5 -3524.31 -5275.79)
(-95100.5 -3363.45 -5005.6)
(-95911.5 -3137.01 -4486.71)
(-97949.3 -2807.68 -3697.62)
(-99173.8 -2298 -2497.49)
(-96073.7 -1374.65 -298.162)
(-91570.9 894.604 5097.56)
(-105504 6822.35 11236.8)
(-147814 13698.1 16501.2)
(-184385 29400 -2763.96)
(-40719.3 12447.4 -8661.5)
(-195960 3878.44 792.892)
(-199442 3894.63 264.224)
(-200729 4149.9 61.481)
(-202089 3907.97 -159.646)
(-203296 3904.88 -379.64)
(-204525 3898.56 -461.623)
(-205496 3856.62 -606.84)
(-206396 3830.32 -723.589)
(-207232 3799.17 -852.463)
(-207982 3759.97 -988.081)
(-208620 3712.59 -1139.16)
(-209122 3659.93 -1312.5)
(-209471 3600.61 -1506.47)
(-209661 3534.39 -1714.71)
(-209688 3465.43 -1936.57)
(-209508 3396.59 -2173.34)
(-209102 3327.94 -2422.46)
(-208460 3257.11 -2678.75)
(-207576 3184.26 -2938.88)
(-206442 3110.09 -3195.11)
(-205059 3035.58 -3440.78)
(-203448 2960.19 -3666.72)
(-201641 2884.94 -3863.06)
(-199679 2811.7 -4022.43)
(-197608 2742.39 -4140.25)
(-195464 2679.44 -4216.36)
(-193286 2624.45 -4251.98)
(-191101 2579.29 -4250.32)
(-188936 2545.03 -4214.51)
(-186807 2523.11 -4148.38)
(-184731 2514.45 -4055.66)
(-182712 2519.87 -3939.94)
(-180749 2540.1 -3804.6)
(-178836 2574.84 -3652.56)
(-176957 2622.38 -3486.63)
(-175093 2679.63 -3309.78)
(-173222 2739.98 -3124.98)
(-171328 2791.33 -2938.78)
(-169412 2827.76 -2752.95)
(-167468 2849.09 -2563.88)
(-165488 2853.28 -2355.75)
(-163451 2842.75 -2107.47)
(-161309 2820.33 -1792.25)
(-158975 2796.98 -1396.01)
(-156528 2782.93 -871.075)
(-154261 2797.78 -168.375)
(-152239 2865.37 720.884)
(-149029 3040.9 1813.82)
(-142053 3478.03 3477.22)
(-132998 4756.23 6752.38)
(-138081 8110.81 9172.66)
(-157515 9264.9 12036.2)
(-179641 10539.5 4724.41)
(45792.7 10146.1 -23625.5)
(-269232 -1701.15 6128.11)
(-270232 -1750.62 5206.22)
(-270807 -1803.2 5262.6)
(-271323 -1730.86 4807.57)
(-271615 -1727.67 4586.23)
(-272066 -1711.66 4542.03)
(-272424 -1699.42 4483.99)
(-272719 -1682.62 4450.53)
(-273011 -1672.29 4412.05)
(-273284 -1663.69 4366.41)
(-273528 -1662.39 4306.88)
(-273736 -1666.25 4224)
(-273892 -1675.69 4117.76)
(-273988 -1690.08 3992.94)
(-274031 -1709.28 3854.77)
(-274054 -1732.35 3704.57)
(-274024 -1759.7 3540.14)
(-273936 -1789.72 3368.5)
(-273795 -1824.42 3197.19)
(-273602 -1862.03 3036.96)
(-273361 -1903.56 2898.88)
(-273089 -1949.1 2796.95)
(-272809 -1998.92 2747.23)
(-272550 -2052.96 2762.06)
(-272343 -2110.66 2847.98)
(-272202 -2171.77 3003.37)
(-272145 -2235.83 3223.87)
(-272171 -2303.06 3501.45)
(-272290 -2373.26 3828.84)
(-272498 -2446.81 4197.09)
(-272802 -2523.49 4598.79)
(-273199 -2603.22 5027.52)
(-273692 -2684.88 5478.78)
(-274284 -2767.65 5948.74)
(-274974 -2851.19 6432.53)
(-275770 -2936.31 6926.14)
(-276680 -3023.38 7422.92)
(-277704 -3109.59 7928.11)
(-278956 -3190.54 8465.44)
(-280520 -3266.79 9055.64)
(-282555 -3333.33 9705.56)
(-285131 -3386.37 10419.5)
(-288335 -3418.89 11225.9)
(-292289 -3423.29 12155.9)
(-297213 -3386.56 13232.4)
(-303534 -3284.88 14428.7)
(-311553 -3079.4 15603.3)
(-320685 -2728.78 16587.6)
(-328716 -2041.75 17735.4)
(-338176 -592.213 19336)
(-354591 2212.24 19453.1)
(-418192 6123.76 10812.8)
(-450368 14370.9 -10607.4)
(-520385 36066.3 -36751.9)
(-309627 2367.02 3789.23)
(-310014 2250.49 2909.69)
(-310042 2171.85 2600.02)
(-310067 2202.56 2375.01)
(-310032 2183.16 2115.8)
(-310076 2175.7 1999.47)
(-310043 2166.97 1888.85)
(-309958 2164.74 1791.1)
(-309873 2158.46 1680.95)
(-309772 2153.03 1565.22)
(-309652 2144.01 1435.43)
(-309507 2133.85 1283.93)
(-309327 2122.61 1112.48)
(-309126 2109.51 930.762)
(-308919 2092.78 740.284)
(-308696 2072.48 533.66)
(-308438 2047.12 311.375)
(-308152 2017.36 79.6236)
(-307840 1981.46 -156.987)
(-307509 1940.83 -388.789)
(-307168 1894.62 -604.721)
(-306835 1842.88 -790.098)
(-306537 1785.54 -929.701)
(-306304 1722.97 -1011.38)
(-306170 1655.83 -1027.87)
(-306157 1584.88 -978.452)
(-306286 1510.61 -865.471)
(-306566 1433.32 -694.117)
(-307012 1353.22 -469.398)
(-307626 1270.34 -197.296)
(-308415 1184.82 117.315)
(-309380 1096.84 470.384)
(-310521 1007.32 859.545)
(-311838 916.669 1283.54)
(-313326 824.893 1741.53)
(-314984 730.991 2233.45)
(-316814 634.628 2758.78)
(-318823 537.598 3317.27)
(-321031 438.212 3916.82)
(-323478 335.237 4564.24)
(-326188 231.857 5255.05)
(-329160 131.146 5984.07)
(-332354 32.4126 6770.48)
(-335793 -70.8157 7640.87)
(-339564 -181.252 8624.62)
(-343948 -300.945 9727)
(-349078 -428.58 10880)
(-353985 -607.472 12059.8)
(-356195 -692.441 13647.1)
(-355966 -329.584 15629.1)
(-356256 325.661 16363.4)
(-378277 -2582.72 14566)
(-335127 10098.8 -10542.8)
(-296307 -6942.35 -4445.59)
(-233072 -1867.71 1510.71)
(-231488 -1917.33 311.392)
(-231375 -2109.03 -102.735)
(-231189 -2021.04 -308.345)
(-231002 -2044.46 -614.464)
(-230974 -2077.06 -818.458)
(-231005 -2110.5 -948.939)
(-231080 -2137.06 -1075.95)
(-231192 -2172.72 -1208.41)
(-231329 -2209.06 -1349.86)
(-231482 -2250.15 -1515.47)
(-231638 -2292.48 -1711.49)
(-231769 -2335.32 -1941.26)
(-231854 -2378.05 -2207.59)
(-231877 -2425.21 -2510.94)
(-231752 -2478.49 -2858.61)
(-231456 -2531.14 -3253.22)
(-230970 -2583.28 -3683.35)
(-230283 -2637.94 -4136.98)
(-229383 -2694.21 -4598.43)
(-228266 -2750.25 -5052.86)
(-226944 -2804.85 -5478.25)
(-225446 -2857.47 -5850.68)
(-223823 -2907.64 -6150.64)
(-222128 -2954.3 -6368.13)
(-220409 -2996.55 -6504.93)
(-218705 -3034.05 -6568.44)
(-217047 -3067.11 -6571.17)
(-215457 -3096.18 -6524.97)
(-213954 -3121.7 -6443.27)
(-212547 -3143.85 -6336.24)
(-211234 -3163.5 -6210.37)
(-210013 -3181.36 -6065.21)
(-208872 -3198.06 -5902.38)
(-207792 -3213.74 -5723.4)
(-206753 -3229.23 -5525.33)
(-205723 -3244.48 -5307.81)
(-204668 -3262.67 -5068.41)
(-203490 -3282.09 -4824.16)
(-202077 -3306.15 -4580.36)
(-200267 -3333.15 -4348.92)
(-198014 -3361.97 -4116.24)
(-195204 -3397.86 -3867.45)
(-191738 -3434.44 -3598.78)
(-187677 -3445.58 -3322.01)
(-183347 -3375.86 -3104.7)
(-178920 -3129.02 -3101.27)
(-172934 -2558.42 -3461.23)
(-162579 -1311.12 -4341.42)
(-149614 1283.52 -6281.47)
(-153919 6740 -7702.34)
(-194913 13207.7 -10370.2)
(-219689 30650.1 -19783)
(-74943.6 12608.1 -10676.7)
(-259270 3663.1 2117.64)
(-258450 3714.83 1187.74)
(-258133 3582.88 922.303)
(-257866 3709.58 740.525)
(-257791 3731.31 503.934)
(-257774 3740.17 321.204)
(-257795 3745.55 214.895)
(-257867 3754.02 100.691)
(-257985 3750.98 -21.7544)
(-258134 3743.39 -156.224)
(-258317 3727.26 -312.889)
(-258526 3704.97 -498.466)
(-258745 3676.59 -717.238)
(-258937 3642.82 -974.92)
(-259071 3600.37 -1274.98)
(-259131 3548.55 -1620.92)
(-259079 3493.31 -2014.93)
(-258881 3435.09 -2445.69)
(-258532 3371.53 -2893.63)
(-258032 3303.6 -3344.21)
(-257380 3233.12 -3782.3)
(-256586 3161.4 -4187)
(-255671 3089.27 -4536.37)
(-254674 3017.38 -4813.33)
(-253631 2946.89 -5009.8)
(-252573 2878.8 -5128.21)
(-251524 2813.46 -5176.69)
(-250499 2750.62 -5167.69)
(-249508 2689.81 -5113.22)
(-248557 2630.56 -5025.28)
(-247648 2572.53 -4913.23)
(-246774 2514.95 -4783.88)
(-245928 2457.03 -4640.69)
(-245094 2398.03 -4483.64)
(-244249 2337.53 -4310.91)
(-243370 2274.45 -4120.25)
(-242420 2208.4 -3912.03)
(-241359 2136.65 -3688.2)
(-240143 2059.09 -3453.66)
(-238643 1978.22 -3227.38)
(-236778 1895.21 -3009.94)
(-234485 1809.36 -2793.03)
(-231674 1720.46 -2572.38)
(-228239 1632.85 -2353.32)
(-224208 1563.01 -2142.62)
(-219751 1550.96 -1990.4)
(-214746 1667.45 -2015.31)
(-207686 2016.85 -2257.46)
(-196092 2779.2 -2603.37)
(-181896 4281.98 -3098.12)
(-180497 6883.49 -4076.14)
(-197857 7318.82 -4005.5)
(-205163 9554.08 -2748.57)
(38563 9713.34 -6756.52)
(-257717 -3129.14 3459.61)
(-258153 -3186.19 3266.21)
(-258336 -3169.71 3057.42)
(-258683 -3139.41 3098.59)
(-259064 -3126.35 3066.28)
(-259423 -3129.66 3044.37)
(-259784 -3119.73 3029.5)
(-260157 -3109.35 3012.41)
(-260537 -3103.14 2978.22)
(-260907 -3096.01 2913.77)
(-261260 -3090.77 2808.45)
(-261577 -3085.58 2662.44)
(-261833 -3081.58 2466.65)
(-262028 -3081.12 2215.05)
(-262160 -3085.88 1908.4)
(-262212 -3099.99 1557.8)
(-262159 -3123.63 1173.98)
(-261987 -3152.58 767.623)
(-261690 -3181.14 358.484)
(-261266 -3208.97 -31.1486)
(-260712 -3236.2 -374.778)
(-260037 -3262.09 -643.342)
(-259269 -3286.53 -805.591)
(-258454 -3309.42 -839.435)
(-257642 -3330.4 -737.75)
(-256874 -3348.96 -508.886)
(-256177 -3365.17 -172.243)
(-255568 -3379.28 248.154)
(-255061 -3391.35 728.011)
(-254664 -3400.43 1244.85)
(-254383 -3405.65 1781.56)
(-254217 -3407.64 2325.76)
(-254175 -3408.47 2871.55)
(-254265 -3406.21 3415.5)
(-254492 -3398.08 3957.54)
(-254864 -3386.44 4500.36)
(-255396 -3373.87 5045.99)
(-256096 -3363.35 5598.82)
(-257011 -3364.07 6170.38)
(-258219 -3385.15 6784.56)
(-259791 -3432.97 7489)
(-261766 -3513.72 8308.58)
(-264160 -3643.76 9265.9)
(-267021 -3843.3 10394.7)
(-270549 -4124.65 11733.7)
(-275257 -4487.11 13320.3)
(-281509 -4902.11 15183.6)
(-288402 -5305.59 17339.4)
(-292946 -5429.06 19468.7)
(-297611 -4977.72 21755.9)
(-319097 -4160.64 25174.6)
(-383542 -2545.46 26540.5)
(-421102 17519.7 -10906.1)
(-478272 38731 -17341.4)
(-263993 3524.48 4448.47)
(-264173 3469.89 4066.91)
(-264209 3458.04 3949.08)
(-264414 3467.23 3821.54)
(-264700 3454.34 3701.37)
(-264923 3421.29 3590.31)
(-265120 3398.1 3483.51)
(-265329 3373.15 3364.38)
(-265531 3342.04 3237.14)
(-265711 3309.93 3083.89)
(-265864 3274.58 2895.51)
(-265970 3237.91 2668.98)
(-266009 3199.04 2396.36)
(-265970 3156.13 2068.44)
(-265846 3107.66 1687.54)
(-265624 3049.75 1267.68)
(-265346 2982.58 820.814)
(-265045 2909.9 355.016)
(-264709 2836.74 -113.857)
(-264331 2763.33 -565.783)
(-263917 2690.2 -976.653)
(-263480 2618.53 -1318.88)
(-263053 2548.71 -1563.94)
(-262676 2481.25 -1690.31)
(-262392 2417.08 -1690.12)
(-262231 2357.39 -1569.74)
(-262206 2303.07 -1344.94)
(-262315 2254.8 -1036.33)
(-262552 2212.97 -664.615)
(-262900 2178.59 -248.598)
(-263346 2152.43 196.987)
(-263866 2133.95 661.138)
(-264441 2121.09 1137.98)
(-265052 2115.56 1625.59)
(-265682 2119.72 2124.67)
(-266315 2130.94 2637.77)
(-266936 2146.42 3166.93)
(-267543 2164.56 3716.94)
(-268144 2174.84 4302.04)
(-268829 2170.82 4940.27)
(-269638 2143.69 5657.38)
(-270560 2083.85 6469.36)
(-271531 1976.76 7381.5)
(-272524 1803.82 8408.86)
(-273634 1552.41 9551.48)
(-275168 1221.64 10782)
(-277234 837.436 12064.6)
(-278517 430.424 13295.3)
(-275997 266.531 13966.5)
(-270637 195.86 13677.9)
(-273421 -543.671 12708.5)
(-296947 -4285.86 9759.16)
(-246095 13375.5 -26774.3)
(-123204 2050.31 -19381)
(-243423 -3153.05 660.38)
(-243253 -3243.61 358.309)
(-243199 -3203.04 227.858)
(-243218 -3176.73 98.1327)
(-243343 -3163.82 26.4088)
(-243504 -3159.69 -27.9999)
(-243706 -3156.68 -79.4473)
(-243944 -3156.38 -144.224)
(-244221 -3154.02 -228.79)
(-244518 -3148.59 -355.244)
(-244823 -3143.46 -538.288)
(-245123 -3139.33 -776.862)
(-245401 -3134.43 -1081.1)
(-245643 -3129.64 -1460.86)
(-245827 -3124.23 -1923.98)
(-245920 -3114.15 -2471.36)
(-245898 -3099.79 -3095.05)
(-245736 -3089.31 -3783.09)
(-245414 -3087.03 -4514.54)
(-244919 -3092.54 -5262.06)
(-244237 -3106.02 -5992.6)
(-243367 -3127.67 -6663.47)
(-242334 -3159.1 -7228.23)
(-241195 -3199.96 -7647.96)
(-240015 -3248.76 -7906.34)
(-238853 -3303.34 -8009.54)
(-237746 -3361.04 -7979.08)
(-236717 -3420 -7842.45)
(-235779 -3478.37 -7627.79)
(-234934 -3534.03 -7358.12)
(-234181 -3586.05 -7050.61)
(-233511 -3635.02 -6717.3)
(-232917 -3681.43 -6366.61)
(-232392 -3723.93 -5998.91)
(-231931 -3760.77 -5610.82)
(-231526 -3790.98 -5201.14)
(-231179 -3813.78 -4768.96)
(-230898 -3825.18 -4311.74)
(-230683 -3826.03 -3834.37)
(-230532 -3821.88 -3336.85)
(-230434 -3814.95 -2841.4)
(-230389 -3813.82 -2356.8)
(-230391 -3829.12 -1892.28)
(-230469 -3866.93 -1460.14)
(-230818 -3933.64 -1076.73)
(-231912 -4032.89 -746.621)
(-234121 -4160.88 -445.209)
(-236573 -4353.63 -193.247)
(-236273 -4436.19 305.011)
(-235310 -4888.7 1209.12)
(-254026 -6328.88 2282.91)
(-322311 -8457.22 3508.37)
(-381875 12389.8 33812.8)
(-469971 -8357.57 98924.3)
(-233072 2826.92 2053.9)
(-232327 2732.2 1631.11)
(-232052 2770.32 1437.35)
(-231844 2799.5 1209.43)
(-231805 2812.98 1063.15)
(-231774 2817.64 965.729)
(-231785 2820.59 865.257)
(-231833 2820.47 750.961)
(-231922 2822.2 625.485)
(-232043 2826.87 465.937)
(-232187 2831 262.845)
(-232339 2833.79 10.752)
(-232486 2837.15 -300.04)
(-232619 2840.24 -679.441)
(-232721 2844.55 -1130.62)
(-232759 2853.7 -1649.16)
(-232615 2865.17 -2234.85)
(-232239 2870.15 -2881.93)
(-231615 2864.42 -3572.58)
(-230725 2848.24 -4276.07)
(-229554 2821.92 -4957.01)
(-228102 2786.34 -5573.61)
(-226402 2739.64 -6077.78)
(-224524 2682.09 -6430.44)
(-222555 2615.12 -6615.94)
(-220578 2541.09 -6642.07)
(-218659 2462.9 -6533.09)
(-216846 2382.63 -6321.12)
(-215176 2302.47 -6039.29)
(-213672 2224.9 -5717.07)
(-212343 2152.58 -5377.32)
(-211190 2087.22 -5036.84)
(-210206 2029.15 -4706.15)
(-209380 1980.64 -4392.35)
(-208700 1944.83 -4099.54)
(-208147 1923.87 -3829.23)
(-207698 1919.95 -3583.46)
(-207332 1936.01 -3361.69)
(-206979 1973.71 -3166.22)
(-206586 2035.88 -3001.16)
(-206079 2117.04 -2881.55)
(-205368 2203.67 -2806.3)
(-204427 2288.83 -2758.51)
(-203223 2368 -2738.98)
(-201862 2433.76 -2761.95)
(-200723 2483.63 -2836.95)
(-199994 2529.53 -2938.05)
(-198125 2525.45 -3079.76)
(-192139 2631.82 -3339.1)
(-183404 2495.67 -4220.26)
(-191506 501.886 -3320.93)
(-234167 -5176.36 6371.95)
(-292080 10420.2 39287)
(-236981 -14630.7 22102.3)
(-234038 -1859.9 3113.71)
(-233871 -1891.75 3009.1)
(-233897 -1864.48 2997.47)
(-233991 -1847.59 2961.68)
(-234186 -1833.83 2952.52)
(-234428 -1811.33 2938.47)
(-234721 -1785.23 2916.83)
(-235063 -1763.76 2879.47)
(-235463 -1743.22 2818.39)
(-235914 -1718.6 2713.39)
(-236385 -1687.77 2548.98)
(-236858 -1656.21 2313.23)
(-237328 -1625.72 1995.06)
(-237782 -1599.52 1583.21)
(-238201 -1581.16 1075.66)
(-238567 -1572.47 482.208)
(-238851 -1573.3 -186.308)
(-239028 -1584.86 -908.174)
(-239080 -1607.78 -1656.88)
(-238997 -1641.08 -2400.23)
(-238764 -1684.17 -3100.99)
(-238381 -1738.5 -3705.62)
(-237883 -1803.75 -4152.05)
(-237343 -1879.11 -4389.98)
(-236851 -1962.36 -4405.39)
(-236472 -2050 -4223.88)
(-236236 -2139.16 -3891.31)
(-236148 -2228.74 -3461.59)
(-236194 -2318.41 -2984.37)
(-236352 -2408.63 -2498.82)
(-236592 -2500.43 -2032.36)
(-236887 -2595.78 -1602.91)
(-237205 -2695.85 -1221.41)
(-237517 -2802.42 -890.527)
(-237795 -2917.46 -606.894)
(-238011 -3043.26 -365.186)
(-238141 -3181.8 -157.782)
(-238155 -3333.8 18.9753)
(-238061 -3500.13 148.667)
(-237864 -3682.18 233.675)
(-237538 -3880.91 281.286)
(-237045 -4090.91 296.852)
(-236317 -4304.24 275.637)
(-235286 -4511.76 204.478)
(-234019 -4702.01 61.1355)
(-232769 -4857.13 -184.827)
(-231648 -4966.74 -587.778)
(-229111 -4964.1 -1240.89)
(-222540 -4917.23 -2114.62)
(-210889 -4877.92 -3309.86)
(-206175 -4079.69 -3538.46)
(-218090 1263.77 1144.71)
(-259645 25689.7 51558.1)
(-162025 18503.7 13336.3)
(-245110 3528.38 3129.16)
(-245578 3542.18 3156.15)
(-245904 3582.62 3120.01)
(-246381 3618.65 3063.28)
(-246918 3648.35 3053.67)
(-247475 3684.05 3059.16)
(-248072 3720.97 3060.76)
(-248693 3751.01 3043.75)
(-249332 3777.33 2994.82)
(-249976 3804.47 2898.54)
(-250598 3834.31 2741.22)
(-251172 3861.56 2507.34)
(-251672 3884.66 2181.37)
(-252072 3900.9 1750.84)
(-252340 3907.7 1210.31)
(-252448 3902.96 556.743)
(-252398 3888.23 -194.976)
(-252169 3862.19 -1013.59)
(-251778 3824.11 -1868.11)
(-251237 3775.38 -2730.37)
(-250528 3716.59 -3564.21)
(-249652 3645.91 -4315.37)
(-248638 3562.92 -4917.33)
(-247554 3467.11 -5315.14)
(-246476 3359.44 -5489.95)
(-245462 3242.67 -5459.54)
(-244540 3119.72 -5265.91)
(-243718 2992.57 -4959.94)
(-242987 2862.96 -4591.28)
(-242334 2731.97 -4201.61)
(-241741 2600.03 -3821.33)
(-241187 2466.49 -3470.59)
(-240654 2331.25 -3161.76)
(-240126 2193.3 -2901.02)
(-239590 2051.25 -2689.23)
(-239034 1903.27 -2523.44)
(-238448 1747.67 -2400.92)
(-237825 1585.76 -2319.44)
(-237158 1419.71 -2274.25)
(-236437 1247.3 -2261.86)
(-235660 1068.05 -2279.74)
(-234813 886.32 -2314.54)
(-233796 713.259 -2353.27)
(-232518 555.707 -2404.15)
(-231040 421.514 -2482.47)
(-229635 323.746 -2597.07)
(-228416 278.107 -2750.7)
(-226018 332.014 -2985.82)
(-219768 410.333 -3510.95)
(-209655 201.58 -4766.23)
(-207704 46.9845 -4182.64)
(-215760 736.661 2416.8)
(-198200 16206.6 46104.7)
(-23049.7 11509.1 28864.1)
(-217807 -1496.34 -1181.18)
(-217503 -1344.13 -1107.7)
(-217629 -1291.73 -1067.96)
(-217782 -1232 -1025.81)
(-218100 -1170.39 -981.45)
(-218500 -1096.89 -937.658)
(-218981 -1023.08 -898.607)
(-219542 -957.485 -873.547)
(-220193 -900.653 -880.758)
(-220920 -846.577 -932.153)
(-221690 -797.081 -1034.36)
(-222478 -756.136 -1212.22)
(-223246 -724.662 -1487.48)
(-223956 -703.643 -1875.49)
(-224565 -694.626 -2382.63)
(-225023 -697.781 -3010.88)
(-225274 -711.549 -3751.93)
(-225269 -733.327 -4587.38)
(-224973 -760.568 -5486.14)
(-224355 -797.346 -6413.99)
(-223378 -846.322 -7322.96)
(-222011 -908.183 -8139.68)
(-220292 -982.887 -8753.45)
(-218344 -1069.36 -9056.63)
(-216345 -1165.05 -9009.19)
(-214447 -1262.82 -8646.21)
(-212749 -1358.02 -8043.32)
(-211297 -1447.23 -7282.05)
(-210099 -1529.82 -6433.42)
(-209141 -1607.09 -5552.17)
(-208393 -1681.14 -4676.3)
(-207819 -1754.03 -3829.62)
(-207386 -1827.09 -3024.85)
(-207058 -1902.16 -2269.22)
(-206805 -1980.7 -1566.35)
(-206597 -2062.54 -918.859)
(-206408 -2150.3 -324.848)
(-206203 -2261.12 206.58)
(-205903 -2400.3 687.275)
(-205463 -2569.69 1123.77)
(-204836 -2770.64 1527.42)
(-203959 -3006.55 1911.67)
(-202765 -3270.9 2273.21)
(-201183 -3560.25 2629.21)
(-199284 -3870.8 3001.39)
(-197372 -4183.95 3413.79)
(-195601 -4440.93 3866.76)
(-192593 -4504.3 4485.09)
(-185028 -4155.65 5358.8)
(-172658 -3452.74 7014.74)
(-170103 -2112.02 10086)
(-185350 5806.8 11775.4)
(-191315 25149.3 37437.3)
(-55331.1 10116.8 20771.1)
(-236052 4486.03 4265.58)
(-235488 4520.7 4453.91)
(-235198 4499.11 4484.58)
(-234892 4473.35 4513.98)
(-234655 4445.84 4554.38)
(-234446 4424.05 4593.86)
(-234272 4397.85 4618.08)
(-234123 4358.87 4622.29)
(-234001 4306.11 4588.12)
(-233901 4245.28 4501.19)
(-233810 4175.58 4347.67)
(-233718 4094.28 4107.37)
(-233610 4001.78 3760.58)
(-233472 3898.91 3292.24)
(-233285 3787.17 2695.35)
(-233024 3670.1 1968.3)
(-232655 3553.15 1115.54)
(-232140 3441.14 154.454)
(-231421 3338.95 -882.977)
(-230432 3249.81 -1971.58)
(-229140 3175.81 -3077.26)
(-227526 3117.13 -4131.17)
(-225636 3073.37 -5030.56)
(-223600 3041.22 -5673)
(-221585 3014.58 -6012.86)
(-219723 2989.49 -6075.89)
(-218087 2959.64 -5924.45)
(-216695 2919.8 -5626.67)
(-215534 2864.95 -5243.3)
(-214570 2791.02 -4820.83)
(-213762 2695.8 -4391.13)
(-213070 2578.38 -3971.87)
(-212458 2439.73 -3570.89)
(-211893 2281.15 -3190.96)
(-211343 2104.6 -2831.39)
(-210783 1910.32 -2485.26)
(-210189 1703.38 -2161.61)
(-209538 1482.41 -1855.29)
(-208812 1245.24 -1559.85)
(-207987 994.046 -1262.8)
(-207026 733.034 -954.236)
(-205874 467.361 -627.631)
(-204457 203.233 -276.048)
(-202707 -50.2116 103.802)
(-200694 -282.872 505.313)
(-198718 -469.286 920.951)
(-196914 -542.071 1340.38)
(-193874 -378.321 1793.99)
(-186329 133.653 2175.77)
(-173731 758.802 2387.54)
(-169349 2431.51 1718.68)
(-199542 7188.94 3741.58)
(-157922 20737.9 25610.5)
(63895.8 7121.51 9711.62)
(-238092 -1776.66 -652.439)
(-237939 -1587.95 -355.32)
(-238060 -1491.67 -167.469)
(-238240 -1399.68 18.8507)
(-238527 -1297.34 194.136)
(-238884 -1184.81 369.372)
(-239316 -1075.8 535.27)
(-239833 -972.929 667.5)
(-240442 -872.689 743.607)
(-241117 -771.486 749.838)
(-241834 -673.118 663.404)
(-242572 -578.97 456.665)
(-243302 -488.636 104.717)
(-243986 -402.237 -413.251)
(-244578 -319.597 -1109.68)
(-245022 -239.178 -1984.62)
(-245259 -159.566 -3024.22)
(-245232 -78.5212 -4200.94)
(-244900 6.17365 -5470.99)
(-244229 93.6265 -6782.54)
(-243163 178.847 -8076.26)
(-241637 255.764 -9257.13)
(-239651 313.617 -10151.9)
(-237352 335.887 -10565.2)
(-234973 310.504 -10428.5)
(-232698 231.142 -9835.62)
(-230609 102.582 -8945.14)
(-228716 -64.4241 -7898.49)
(-226992 -258.25 -6806.22)
(-225392 -468.745 -5742.18)
(-223864 -688.465 -4750.34)
(-222361 -911.726 -3851.2)
(-220840 -1134.85 -3050.44)
(-219266 -1356.84 -2346.19)
(-217605 -1577.12 -1735.4)
(-215831 -1793.03 -1217.43)
(-213919 -2004.06 -794.263)
(-211851 -2213.31 -472.496)
(-209613 -2424.28 -259.371)
(-207186 -2640.22 -163.272)
(-204545 -2869.43 -193.241)
(-201634 -3133.2 -350.831)
(-198376 -3450.07 -658.669)
(-194714 -3844.96 -1144.82)
(-190736 -4354.34 -1847.17)
(-186787 -5032.16 -2824.72)
(-183008 -5935.06 -4235.92)
(-178050 -7146.28 -6203.37)
(-167901 -8719.44 -8881.8)
(-150861 -10511.1 -11352.4)
(-143732 -12488.9 -14434.7)
(-157222 -10367.2 -18253.9)
(-202277 -36400.2 -19859.5)
(520.465 5696.78 -20328.4)
(-235602 1573.67 5132.56)
(-235568 1523.71 5428.67)
(-235661 1473.78 5642.61)
(-235815 1398.17 5849.38)
(-236033 1331.89 6058.42)
(-236331 1273.77 6265.07)
(-236712 1211.52 6457.04)
(-237171 1142.57 6621.22)
(-237713 1071.07 6741.45)
(-238322 1002.47 6796.71)
(-238980 935.328 6762.39)
(-239664 870.081 6610.14)
(-240343 808.71 6311.11)
(-240975 752.803 5839.87)
(-241508 704.038 5177.89)
(-241879 664.934 4316.7)
(-242017 637.191 3261.07)
(-241850 622.44 2027.02)
(-241319 616.068 660.911)
(-240317 603.903 -766.711)
(-238776 581.478 -2189.48)
(-236602 546.211 -3512.64)
(-233790 493.175 -4561.19)
(-230502 416.086 -5129.76)
(-227040 315.63 -5136.58)
(-223699 196.367 -4677.36)
(-220672 68.2557 -3913.39)
(-218048 -58.1772 -2990.72)
(-215846 -174.674 -2023.4)
(-214043 -275.404 -1086.49)
(-212587 -356.176 -222.746)
(-211426 -413.429 550.198)
(-210513 -444.173 1230.72)
(-209805 -448.068 1822.86)
(-209263 -425.475 2331.29)
(-208851 -381.98 2779.46)
(-208527 -315.844 3182.57)
(-208261 -222.457 3540.37)
(-208044 -97.5577 3859.8)
(-207870 64.214 4144.83)
(-207727 266.409 4393.51)
(-207595 509.064 4599.07)
(-207435 787.275 4745.73)
(-207227 1093.26 4796.87)
(-207090 1401.54 4666.24)
(-207404 1672.3 4223.23)
(-208289 1858.66 3270.4)
(-208157 1891.43 1543.97)
(-202629 1731.96 -1266.55)
(-189604 1572.19 -3655.35)
(-183825 1155.85 -4944.83)
(-206387 5933.88 -8152.61)
(-222724 10842.3 -40086)
(-9091.63 11959.1 -20977.7)
(-247588 -1690.01 -212.995)
(-247573 -1641.78 53.3272)
(-247665 -1615.62 224.391)
(-247852 -1600.84 401.3)
(-248107 -1572.65 568.638)
(-248420 -1544.13 726.135)
(-248810 -1527.2 859.717)
(-249291 -1518.55 943.902)
(-249861 -1512.33 966.163)
(-250505 -1509.66 911.455)
(-251211 -1512.93 744.455)
(-251961 -1522.82 431.936)
(-252722 -1540.35 -62.6578)
(-253450 -1564.83 -768.262)
(-254093 -1590.55 -1702.11)
(-254585 -1614.23 -2867.28)
(-254856 -1630.55 -4251.93)
(-254842 -1630.79 -5822.74)
(-254495 -1606.6 -7526.39)
(-253788 -1546.54 -9291.71)
(-252665 -1438.62 -11051.1)
(-251018 -1271.85 -12706.2)
(-248821 -1037.34 -14009.8)
(-246337 -736.966 -14591.1)
(-244056 -397.478 -14280.9)
(-242362 -69.8336 -13273)
(-241367 201.534 -11875.5)
(-241011 388.293 -10330.5)
(-241167 479.108 -8809.54)
(-241686 474.575 -7406.27)
(-242428 381.753 -6161.08)
(-243277 209.941 -5078.15)
(-244143 -31.3847 -4141.63)
(-244959 -336.2 -3325.05)
(-245679 -701.347 -2600.84)
(-246263 -1126.9 -1943.3)
(-246686 -1611.89 -1330.69)
(-246928 -2155.04 -744.301)
(-246983 -2755.31 -168.125)
(-246850 -3412.45 409.221)
(-246540 -4127.81 992.527)
(-246061 -4903.13 1580.86)
(-245426 -5746.59 2160.27)
(-244693 -6682.71 2686.06)
(-244041 -7748.23 3072.14)
(-243842 -8998.21 3200.08)
(-244469 -10515 2863.14)
(-245043 -12418.7 1676.76)
(-241851 -14940.9 -1242.74)
(-234494 -18569.9 -6934.94)
(-225009 -22995 -17438.6)
(-243267 -31562 -27312.9)
(-219271 -18664.3 -62511.1)
(-111676 -10724 -31746.1)
(-249523 1284.34 5054.15)
(-249984 1389.69 5369.05)
(-250315 1469.07 5576)
(-250790 1544.26 5825.59)
(-251300 1640.18 6056.11)
(-251892 1746 6263.18)
(-252564 1849.91 6444.96)
(-253312 1954.53 6582.15)
(-254140 2065.17 6659.1)
(-255046 2180.47 6654.43)
(-256016 2296.47 6537.83)
(-257035 2409.99 6276.87)
(-258075 2518.2 5838.01)
(-259099 2616.95 5191.2)
(-260055 2701.32 4316.25)
(-260882 2766.99 3206.59)
(-261511 2812.32 1870.06)
(-261874 2838.32 325.865)
(-261928 2845.03 -1366.93)
(-261704 2847.66 -3149.69)
(-261138 2854.79 -4971.18)
(-260082 2871.06 -6747.82)
(-258420 2899.83 -8246.88)
(-256278 2942.12 -9087.81)
(-254002 2989.37 -9059.41)
(-251908 3020.78 -8306.04)
(-250156 3022.03 -7111.54)
(-248812 2986.16 -5712.79)
(-247892 2913.21 -4292.57)
(-247371 2808.31 -2960.1)
(-247201 2678.69 -1770.48)
(-247322 2531.04 -735.049)
(-247677 2369.45 175.212)
(-248219 2191.63 978.751)
(-248924 1995.51 1702.3)
(-249780 1779.79 2378.61)
(-250794 1546.31 3037.88)
(-251974 1296.94 3698.58)
(-253330 1034.3 4384.45)
(-254874 761.467 5116.44)
(-256629 481.948 5911.65)
(-258617 199.472 6783.14)
(-260865 -87.8055 7738.81)
(-263442 -395.219 8773.98)
(-266593 -754.011 9837.88)
(-270874 -1189.02 10821.4)
(-276754 -1739.41 11561.8)
(-283447 -2479.44 11744.2)
(-287564 -3479.69 10727.8)
(-288670 -4986.29 7676.05)
(-293419 -5950.16 1097.9)
(-326121 -4395.72 -12999.4)
(-294519 -5781.12 -76639.5)
(-211006 -7538.27 -30333.8)
(-250762 -3006.45 -1163.52)
(-251082 -3098.87 -866.013)
(-251213 -3177.06 -701.88)
(-251476 -3244.91 -497.546)
(-251767 -3318.23 -282.246)
(-252103 -3402.98 -65.1243)
(-252499 -3499.36 135.844)
(-252965 -3603.9 305.224)
(-253495 -3715.93 426.337)
(-254093 -3837.45 471.096)
(-254755 -3966.64 400.102)
(-255471 -4101.06 166.402)
(-256217 -4236.42 -284.065)
(-256954 -4369.86 -1002.61)
(-257622 -4502.21 -2033.47)
(-258142 -4631.72 -3391.14)
(-258429 -4756.18 -5062.62)
(-258390 -4873.82 -7011.39)
(-257939 -4981.77 -9177.13)
(-257011 -5077.01 -11473.1)
(-255497 -5158.82 -13825.6)
(-253115 -5227.13 -16196.3)
(-249521 -5271.96 -18327.2)
(-244839 -5261.37 -19551.9)
(-239832 -5154.2 -19374.5)
(-235283 -4938.16 -18086.5)
(-231479 -4634.69 -16314.5)
(-228418 -4281.54 -14441.6)
(-226004 -3918.09 -12681.4)
(-224098 -3580.74 -11134.4)
(-222573 -3293.62 -9833.03)
(-221324 -3067.39 -8762.94)
(-220273 -2898.35 -7893.86)
(-219367 -2777.03 -7192.7)
(-218573 -2699.13 -6623.1)
(-217865 -2666.6 -6146.47)
(-217220 -2683.09 -5724.6)
(-216620 -2750.08 -5318.96)
(-216050 -2868.12 -4888.74)
(-215502 -3037.46 -4389.42)
(-214965 -3257.14 -3770.47)
(-214424 -3523.53 -2974.02)
(-213862 -3830.67 -1937.27)
(-213316 -4168.48 -604.203)
(-213032 -4522.53 1080.87)
(-213577 -4871.36 3146.43)
(-215426 -5194.43 5542.97)
(-217670 -5456.96 8079.21)
(-217099 -5669.05 10180.5)
(-214249 -5598.48 9486.06)
(-223429 -4885.34 6281.26)
(-276588 -4810.59 1081.56)
(-306201 -11418 -29644.6)
(-184839 16104 -1776.35)
(-233750 2810.67 4392.59)
(-233522 2963.17 4947.67)
(-233493 3033.63 5271.6)
(-233485 3135.99 5701.65)
(-233546 3235.67 6126.96)
(-233656 3327.23 6568.73)
(-233830 3408.49 7023.78)
(-234085 3480.85 7472.32)
(-234434 3542.76 7893.14)
(-234895 3589.02 8259.13)
(-235478 3617.52 8531.76)
(-236192 3626.22 8662.66)
(-237033 3614.59 8594.54)
(-237979 3584.66 8269.67)
(-238990 3541.26 7640.68)
(-240011 3491.45 6681.01)
(-240974 3443 5386)
(-241812 3401.62 3764.87)
(-242471 3372.98 1880.69)
(-242934 3361.85 -151.841)
(-243179 3371.55 -2255.19)
(-243006 3398.83 -4422.94)
(-242170 3448.53 -6442.73)
(-240882 3545.51 -7675.88)
(-239841 3718.54 -7625.68)
(-239481 3964.91 -6553.63)
(-239679 4255.64 -5030.85)
(-240164 4561.13 -3386.88)
(-240713 4851.72 -1810.41)
(-241206 5117.68 -385.744)
(-241597 5356.19 864.039)
(-241949 5566.89 1962.62)
(-242356 5754.43 2946.58)
(-242833 5935.62 3812.34)
(-243370 6113.64 4593.35)
(-243960 6284.13 5315.38)
(-244616 6442.53 6008.72)
(-245361 6586.6 6693.96)
(-246230 6714.26 7389.77)
(-247269 6823.6 8115.19)
(-248533 6912.39 8887.11)
(-250082 6979.53 9723.02)
(-251986 7023.98 10642.4)
(-254376 7046.95 11661.9)
(-257581 7052.09 12802.5)
(-262266 7051.92 14080.2)
(-269095 7054.45 15512.8)
(-277596 7087.9 17041)
(-285069 7202.33 18208.9)
(-291935 7635 17677.8)
(-315875 9137.87 15285.9)
(-393602 10804.1 3710.78)
(-473045 1689.23 -49944.1)
(-388624 10596.1 -149956)
(-250447 -4197.24 483.743)
(-250393 -4388.33 985.614)
(-250222 -4486.97 1208.03)
(-250164 -4586.91 1508.81)
(-250132 -4695.45 1796.39)