/*--------------------------------*- C++ -*----------------------------------*\
| =========                 |                                                 |
| \\      /  F ield         | OpenFOAM: The Open Source CFD Toolbox           |
|  \\    /   O peration     | Version:  4.1                                   |
|   \\  /    A nd           | Web:      www.OpenFOAM.org                      |
|    \\/     M anipulation  |                                                 |
\*---------------------------------------------------------------------------*/
FoamFile
{
    version     2.0;
    format      ascii;
    class       volScalarField;
    location    "76";
    object      p;
}
// * * * * * * * * * * * * * * * * * * * * * * * * * * * * * * * * * * * * * //

dimensions      [0 2 -2 0 0 0 0];

internalField   nonuniform List<scalar> 
4432
(
-3.99306e+10
-4.00779e+10
-4.04251e+10
-4.0415e+10
-4.04756e+10
-4.06139e+10
-4.07168e+10
-4.08094e+10
-4.08938e+10
-4.09749e+10
-4.10535e+10
-4.11271e+10
-4.11901e+10
-4.12375e+10
-4.12682e+10
-4.12811e+10
-4.12723e+10
-4.12396e+10
-4.11834e+10
-4.11046e+10
-4.10051e+10
-4.08885e+10
-4.0759e+10
-4.06215e+10
-4.04798e+10
-4.03376e+10
-4.01975e+10
-4.00622e+10
-3.9934e+10
-3.9816e+10
-3.97117e+10
-3.96253e+10
-3.95601e+10
-3.95169e+10
-3.94918e+10
-3.94751e+10
-3.94526e+10
-3.94079e+10
-3.93269e+10
-3.92036e+10
-3.90419e+10
-3.88549e+10
-3.86636e+10
-3.85073e+10
-3.84711e+10
-3.86663e+10
-3.90228e+10
-3.89181e+10
-3.73473e+10
-3.48567e+10
-3.62827e+10
-4.71619e+10
-5.76161e+10
-2.88217e+10
-4.01008e+10
-4.01087e+10
-4.03104e+10
-4.04463e+10
-4.04931e+10
-4.06076e+10
-4.07168e+10
-4.08066e+10
-4.08883e+10
-4.09703e+10
-4.10516e+10
-4.11273e+10
-4.11916e+10
-4.12406e+10
-4.12732e+10
-4.12872e+10
-4.12787e+10
-4.12465e+10
-4.11911e+10
-4.11134e+10
-4.10153e+10
-4.09004e+10
-4.07726e+10
-4.06369e+10
-4.04971e+10
-4.03571e+10
-4.02192e+10
-4.00861e+10
-3.996e+10
-3.98439e+10
-3.97413e+10
-3.96559e+10
-3.95914e+10
-3.95482e+10
-3.9523e+10
-3.95065e+10
-3.94843e+10
-3.94403e+10
-3.936e+10
-3.92374e+10
-3.90767e+10
-3.8892e+10
-3.87047e+10
-3.85549e+10
-3.85288e+10
-3.87383e+10
-3.91035e+10
-3.8944e+10
-3.70777e+10
-3.37551e+10
-3.39371e+10
-4.55326e+10
-6.07011e+10
-3.53731e+10
-4.02416e+10
-4.0222e+10
-4.03338e+10
-4.05056e+10
-4.05621e+10
-4.06438e+10
-4.0759e+10
-4.08537e+10
-4.09403e+10
-4.10273e+10
-4.11124e+10
-4.11952e+10
-4.12687e+10
-4.13244e+10
-4.13593e+10
-4.1374e+10
-4.1367e+10
-4.13347e+10
-4.1277e+10
-4.11937e+10
-4.10868e+10
-4.09596e+10
-4.08166e+10
-4.06638e+10
-4.05061e+10
-4.03485e+10
-4.01939e+10
-4.00456e+10
-3.99057e+10
-3.97769e+10
-3.96622e+10
-3.95652e+10
-3.94892e+10
-3.94346e+10
-3.93976e+10
-3.93694e+10
-3.93362e+10
-3.92824e+10
-3.91936e+10
-3.90632e+10
-3.88944e+10
-3.86993e+10
-3.84965e+10
-3.83234e+10
-3.8269e+10
-3.84482e+10
-3.87465e+10
-3.83697e+10
-3.60788e+10
-3.25643e+10
-3.36e+10
-4.60923e+10
-5.92341e+10
-3.38404e+10
-4.02382e+10
-4.02648e+10
-4.03893e+10
-4.05031e+10
-4.05692e+10
-4.06559e+10
-4.07712e+10
-4.08632e+10
-4.09504e+10
-4.10378e+10
-4.1125e+10
-4.12096e+10
-4.12834e+10
-4.13386e+10
-4.13734e+10
-4.13891e+10
-4.13825e+10
-4.13501e+10
-4.12925e+10
-4.12097e+10
-4.11031e+10
-4.09762e+10
-4.08336e+10
-4.06812e+10
-4.0524e+10
-4.03672e+10
-4.02136e+10
-4.00665e+10
-3.99279e+10
-3.98005e+10
-3.96874e+10
-3.95917e+10
-3.95166e+10
-3.94621e+10
-3.9425e+10
-3.93963e+10
-3.93624e+10
-3.93077e+10
-3.92182e+10
-3.90873e+10
-3.89183e+10
-3.8723e+10
-3.85198e+10
-3.83463e+10
-3.82929e+10
-3.84756e+10
-3.877e+10
-3.83272e+10
-3.58003e+10
-3.20359e+10
-3.40165e+10
-4.94176e+10
-6.15067e+10
-2.99482e+10
-4.04397e+10
-4.0451e+10
-4.04004e+10
-4.05366e+10
-4.06123e+10
-4.06806e+10
-4.07699e+10
-4.08608e+10
-4.09504e+10
-4.1039e+10
-4.11263e+10
-4.1213e+10
-4.12907e+10
-4.135e+10
-4.13888e+10
-4.14081e+10
-4.14069e+10
-4.13821e+10
-4.13322e+10
-4.12553e+10
-4.11512e+10
-4.10221e+10
-4.08727e+10
-4.07093e+10
-4.05383e+10
-4.03658e+10
-4.01959e+10
-4.0032e+10
-3.98768e+10
-3.97334e+10
-3.96047e+10
-3.94933e+10
-3.94006e+10
-3.93268e+10
-3.92685e+10
-3.92172e+10
-3.91606e+10
-3.90846e+10
-3.89779e+10
-3.88356e+10
-3.86618e+10
-3.84665e+10
-3.82653e+10
-3.80985e+10
-3.80731e+10
-3.83392e+10
-3.87923e+10
-3.8541e+10
-3.61647e+10
-3.2389e+10
-3.34889e+10
-4.62759e+10
-5.84656e+10
-2.98893e+10
-4.03816e+10
-4.04534e+10
-4.04921e+10
-4.05282e+10
-4.06045e+10
-4.06909e+10
-4.07828e+10
-4.08704e+10
-4.09616e+10
-4.10512e+10
-4.114e+10
-4.12274e+10
-4.1306e+10
-4.13662e+10
-4.14062e+10
-4.14277e+10
-4.14273e+10
-4.14022e+10
-4.13508e+10
-4.12717e+10
-4.11646e+10
-4.10318e+10
-4.08784e+10
-4.07108e+10
-4.05361e+10
-4.03606e+10
-4.01889e+10
-4.00244e+10
-3.98698e+10
-3.9728e+10
-3.96018e+10
-3.94938e+10
-3.94057e+10
-3.93372e+10
-3.92845e+10
-3.92389e+10
-3.91875e+10
-3.91157e+10
-3.90114e+10
-3.88702e+10
-3.86962e+10
-3.84999e+10
-3.82978e+10
-3.81306e+10
-3.81034e+10
-3.83573e+10
-3.87601e+10
-3.83368e+10
-3.55102e+10
-3.0978e+10
-3.1655e+10
-4.56397e+10
-6.12612e+10
-3.56167e+10
-4.04168e+10
-4.04762e+10
-4.05026e+10
-4.054e+10
-4.06264e+10
-4.07167e+10
-4.08075e+10
-4.08996e+10
-4.09967e+10
-4.1097e+10
-4.11992e+10
-4.13029e+10
-4.13997e+10
-4.14808e+10
-4.15417e+10
-4.15797e+10
-4.15904e+10
-4.15713e+10
-4.15208e+10
-4.14371e+10
-4.1319e+10
-4.11682e+10
-4.09906e+10
-4.07953e+10
-4.05921e+10
-4.03898e+10
-4.0195e+10
-4.00119e+10
-3.98439e+10
-3.96943e+10
-3.9566e+10
-3.94597e+10
-3.93747e+10
-3.93108e+10
-3.92645e+10
-3.92252e+10
-3.91797e+10
-3.91132e+10
-3.90124e+10
-3.88709e+10
-3.86899e+10
-3.84744e+10
-3.82341e+10
-3.80044e+10
-3.78942e+10
-3.8066e+10
-3.84396e+10
-3.81456e+10
-3.57034e+10
-3.15831e+10
-3.18859e+10
-4.4676e+10
-6.02932e+10
-3.33287e+10
-4.046e+10
-4.05185e+10
-4.05374e+10
-4.05491e+10
-4.06324e+10
-4.07353e+10
-4.0826e+10
-4.09166e+10
-4.1015e+10
-4.11154e+10
-4.1218e+10
-4.13209e+10
-4.14166e+10
-4.14969e+10
-4.15577e+10
-4.15959e+10
-4.16064e+10
-4.15865e+10
-4.15343e+10
-4.14478e+10
-4.13263e+10
-4.11717e+10
-4.09902e+10
-4.07912e+10
-4.0585e+10
-4.03809e+10
-4.01861e+10
-4.0005e+10
-3.98408e+10
-3.96962e+10
-3.95736e+10
-3.94745e+10
-3.93991e+10
-3.93449e+10
-3.93065e+10
-3.9274e+10
-3.92333e+10
-3.91682e+10
-3.90659e+10
-3.89207e+10
-3.87347e+10
-3.85156e+10
-3.82776e+10
-3.8062e+10
-3.7984e+10
-3.82085e+10
-3.8637e+10
-3.83262e+10
-3.57254e+10
-3.16742e+10
-3.35259e+10
-4.91301e+10
-6.19077e+10
-3.05264e+10
-4.04586e+10
-4.04936e+10
-4.05332e+10
-4.05525e+10
-4.06156e+10
-4.06989e+10
-4.07887e+10
-4.08812e+10
-4.09808e+10
-4.10889e+10
-4.12026e+10
-4.13168e+10
-4.14254e+10
-4.15214e+10
-4.16001e+10
-4.16562e+10
-4.16841e+10
-4.16799e+10
-4.16395e+10
-4.15589e+10
-4.14342e+10
-4.12655e+10
-4.10591e+10
-4.08273e+10
-4.05846e+10
-4.0344e+10
-4.01152e+10
-3.99045e+10
-3.97161e+10
-3.95533e+10
-3.9418e+10
-3.9311e+10
-3.92313e+10
-3.91774e+10
-3.91445e+10
-3.91226e+10
-3.90977e+10
-3.90544e+10
-3.89788e+10
-3.88627e+10
-3.87053e+10
-3.85102e+10
-3.82871e+10
-3.80738e+10
-3.79828e+10
-3.81835e+10
-3.86216e+10
-3.84815e+10
-3.62829e+10
-3.22214e+10
-3.17889e+10
-4.32605e+10
-5.96643e+10
-3.48892e+10
-4.04974e+10
-4.05366e+10
-4.05398e+10
-4.055e+10
-4.06153e+10
-4.07036e+10
-4.07947e+10
-4.08888e+10
-4.09882e+10
-4.10944e+10
-4.12064e+10
-4.1319e+10
-4.14249e+10
-4.15179e+10
-4.15936e+10
-4.16467e+10
-4.16727e+10
-4.16677e+10
-4.16278e+10
-4.15486e+10
-4.14265e+10
-4.12615e+10
-4.10596e+10
-4.08328e+10
-4.05953e+10
-4.03601e+10
-4.01371e+10
-3.99327e+10
-3.97509e+10
-3.95944e+10
-3.94654e+10
-3.93649e+10
-3.92924e+10
-3.92452e+10
-3.92173e+10
-3.91985e+10
-3.91748e+10
-3.91301e+10
-3.90506e+10
-3.89287e+10
-3.87647e+10
-3.85642e+10
-3.83395e+10
-3.81325e+10
-3.80617e+10
-3.83019e+10
-3.87908e+10
-3.86669e+10
-3.64433e+10
-3.27234e+10
-3.40322e+10
-4.79128e+10
-6.14023e+10
-3.06383e+10
-4.04976e+10
-4.05181e+10
-4.05431e+10
-4.05735e+10
-4.06294e+10
-4.07074e+10
-4.07977e+10
-4.08941e+10
-4.09991e+10
-4.11191e+10
-4.12521e+10
-4.13881e+10
-4.15207e+10
-4.16443e+10
-4.17519e+10
-4.18347e+10
-4.18846e+10
-4.18953e+10
-4.18628e+10
-4.17816e+10
-4.16454e+10
-4.14511e+10
-4.12057e+10
-4.09276e+10
-4.06389e+10
-4.03596e+10
-4.01038e+10
-3.98793e+10
-3.96897e+10
-3.95361e+10
-3.94178e+10
-3.93338e+10
-3.92821e+10
-3.92591e+10
-3.92576e+10
-3.92667e+10
-3.92718e+10
-3.9256e+10
-3.92051e+10
-3.91111e+10
-3.89736e+10
-3.87984e+10
-3.85992e+10
-3.84206e+10
-3.83831e+10
-3.86694e+10
-3.92583e+10
-3.93892e+10
-3.7634e+10
-3.42803e+10
-3.5153e+10
-4.76899e+10
-6.07267e+10
-3.10291e+10
-4.05081e+10
-4.05307e+10
-4.05505e+10
-4.05766e+10
-4.06351e+10
-4.07098e+10
-4.07967e+10
-4.08943e+10
-4.10008e+10
-4.11197e+10
-4.12496e+10
-4.13839e+10
-4.15159e+10
-4.16396e+10
-4.17485e+10
-4.18335e+10
-4.18856e+10
-4.18981e+10
-4.18665e+10
-4.17862e+10
-4.1651e+10
-4.1458e+10
-4.12142e+10
-4.09377e+10
-4.06508e+10
-4.03731e+10
-4.01187e+10
-3.98955e+10
-3.97067e+10
-3.95532e+10
-3.94347e+10
-3.93501e+10
-3.92975e+10
-3.9273e+10
-3.92698e+10
-3.9277e+10
-3.92806e+10
-3.92647e+10
-3.92162e+10
-3.91281e+10
-3.90011e+10
-3.88421e+10
-3.86653e+10
-3.85144e+10
-3.85074e+10
-3.88215e+10
-3.94176e+10
-3.9493e+10
-3.75515e+10
-3.38079e+10
-3.41747e+10
-4.70142e+10
-6.2519e+10
-3.70886e+10
-4.04514e+10
-4.04656e+10
-4.04815e+10
-4.05186e+10
-4.05769e+10
-4.06575e+10
-4.07521e+10
-4.08551e+10
-4.09704e+10
-4.11043e+10
-4.12531e+10
-4.14088e+10
-4.15652e+10
-4.17155e+10
-4.18506e+10
-4.19597e+10
-4.20319e+10
-4.20592e+10
-4.20374e+10
-4.19606e+10
-4.18185e+10
-4.16002e+10
-4.13105e+10
-4.09741e+10
-4.06253e+10
-4.02936e+10
-3.99981e+10
-3.9748e+10
-3.95452e+10
-3.93873e+10
-3.92708e+10
-3.9192e+10
-3.91473e+10
-3.91318e+10
-3.91377e+10
-3.91536e+10
-3.9165e+10
-3.91562e+10
-3.91126e+10
-3.90255e+10
-3.88942e+10
-3.87252e+10
-3.85335e+10
-3.83651e+10
-3.83407e+10
-3.86446e+10
-3.9262e+10
-3.9426e+10
-3.76126e+10
-3.38893e+10
-3.41849e+10
-4.76905e+10
-6.58087e+10
-4.18078e+10
-4.04436e+10
-4.04561e+10
-4.04832e+10
-4.05262e+10
-4.05863e+10
-4.06622e+10
-4.07542e+10
-4.08602e+10
-4.09808e+10
-4.11177e+10
-4.12685e+10
-4.14276e+10
-4.15879e+10
-4.17421e+10
-4.18806e+10
-4.19918e+10
-4.20646e+10
-4.2092e+10
-4.20703e+10
-4.19937e+10
-4.18506e+10
-4.16305e+10
-4.13378e+10
-4.09983e+10
-4.06473e+10
-4.0315e+10
-4.00208e+10
-3.97737e+10
-3.95754e+10
-3.94235e+10
-3.93139e+10
-3.92426e+10
-3.92054e+10
-3.91972e+10
-3.92103e+10
-3.92341e+10
-3.92545e+10
-3.9256e+10
-3.92251e+10
-3.91539e+10
-3.90427e+10
-3.88983e+10
-3.87363e+10
-3.86018e+10
-3.86134e+10
-3.89499e+10
-3.95852e+10
-3.97341e+10
-3.77986e+10
-3.3543e+10
-3.23679e+10
-4.4563e+10
-6.5551e+10
-4.5812e+10
-4.0469e+10
-4.04727e+10
-4.04857e+10
-4.05256e+10
-4.0589e+10
-4.06704e+10
-4.07646e+10
-4.08718e+10
-4.09995e+10
-4.11516e+10
-4.13218e+10
-4.15047e+10
-4.16946e+10
-4.1883e+10
-4.20585e+10
-4.22074e+10
-4.23146e+10
-4.23697e+10
-4.23682e+10
-4.23063e+10
-4.21663e+10
-4.19215e+10
-4.15664e+10
-4.11394e+10
-4.07017e+10
-4.03014e+10
-3.9963e+10
-3.96933e+10
-3.94884e+10
-3.93396e+10
-3.92381e+10
-3.91765e+10
-3.91488e+10
-3.9149e+10
-3.91695e+10
-3.91997e+10
-3.92265e+10
-3.92353e+10
-3.92134e+10
-3.91536e+10
-3.90558e+10
-3.89266e+10
-3.87813e+10
-3.86654e+10
-3.86974e+10
-3.9059e+10
-3.97358e+10
-3.99532e+10
-3.81073e+10
-3.40272e+10
-3.32764e+10
-4.55783e+10
-6.43938e+10
-4.1329e+10
-4.04758e+10
-4.04729e+10
-4.04965e+10
-4.05463e+10
-4.06084e+10
-4.06822e+10
-4.07736e+10
-4.0881e+10
-4.10074e+10
-4.11545e+10
-4.13194e+10
-4.14971e+10
-4.16815e+10
-4.18645e+10
-4.20353e+10
-4.21801e+10
-4.22848e+10
-4.23393e+10
-4.23407e+10
-4.22846e+10
-4.21527e+10
-4.19177e+10
-4.15724e+10
-4.1153e+10
-4.07192e+10
-4.03193e+10
-3.99792e+10
-3.97071e+10
-3.94998e+10
-3.93498e+10
-3.92483e+10
-3.91878e+10
-3.91623e+10
-3.91657e+10
-3.91905e+10
-3.92265e+10
-3.92601e+10
-3.92761e+10
-3.92612e+10
-3.92072e+10
-3.91132e+10
-3.8985e+10
-3.88379e+10
-3.87186e+10
-3.87502e+10
-3.9124e+10
-3.98446e+10
-4.0166e+10
-3.84969e+10
-3.46067e+10
-3.39884e+10
-4.6053e+10
-6.28624e+10
-3.59798e+10
-4.03849e+10
-4.03907e+10
-4.04053e+10
-4.04459e+10
-4.05134e+10
-4.0596e+10
-4.06917e+10
-4.08071e+10
-4.09494e+10
-4.11197e+10
-4.13149e+10
-4.15313e+10
-4.17625e+10
-4.19989e+10
-4.22275e+10
-4.24305e+10
-4.25872e+10
-4.26805e+10
-4.2705e+10
-4.26613e+10
-4.2525e+10
-4.22366e+10
-4.17593e+10
-4.11522e+10
-4.05372e+10
-4.00013e+10
-3.95758e+10
-3.92621e+10
-3.90446e+10
-3.89027e+10
-3.88179e+10
-3.87765e+10
-3.87687e+10
-3.87865e+10
-3.88219e+10
-3.88652e+10
-3.89044e+10
-3.89265e+10
-3.89201e+10
-3.88792e+10
-3.88049e+10
-3.87048e+10
-3.85952e+10
-3.85241e+10
-3.8617e+10
-3.90714e+10
-3.98973e+10
-4.03447e+10
-3.88441e+10
-3.53469e+10
-3.55861e+10
-4.77497e+10
-6.14019e+10
-3.23346e+10
-4.04084e+10
-4.04055e+10
-4.04245e+10
-4.0468e+10
-4.05273e+10
-4.06001e+10
-4.06921e+10
-4.08036e+10
-4.0938e+10
-4.10986e+10
-4.12846e+10
-4.14929e+10
-4.17174e+10
-4.19497e+10
-4.21773e+10
-4.23834e+10
-4.25475e+10
-4.26515e+10
-4.26888e+10
-4.26585e+10
-4.25366e+10
-4.2263e+10
-4.1799e+10
-4.12011e+10
-4.05895e+10
-4.00516e+10
-3.96201e+10
-3.92975e+10
-3.90695e+10
-3.89171e+10
-3.88231e+10
-3.87747e+10
-3.87624e+10
-3.87789e+10
-3.88161e+10
-3.88643e+10
-3.89108e+10
-3.89421e+10
-3.89452e+10
-3.89117e+10
-3.88393e+10
-3.87315e+10
-3.86002e+10
-3.84896e+10
-3.85226e+10
-3.88991e+10
-3.96415e+10
-4.00209e+10
-3.8467e+10
-3.48619e+10
-3.49083e+10
-4.71968e+10
-6.11416e+10
-3.19805e+10
-4.0401e+10
-4.04233e+10
-4.04415e+10
-4.04761e+10
-4.05327e+10
-4.06029e+10
-4.0687e+10
-4.07933e+10
-4.09273e+10
-4.10916e+10
-4.12898e+10
-4.15217e+10
-4.17829e+10
-4.20649e+10
-4.23537e+10
-4.26283e+10
-4.28605e+10
-4.30217e+10
-4.31024e+10
-4.31126e+10
-4.3035e+10
-4.27642e+10
-4.21832e+10
-4.13528e+10
-4.05008e+10
-3.97909e+10
-3.92603e+10
-3.88986e+10
-3.86683e+10
-3.85316e+10
-3.84593e+10
-3.84317e+10
-3.84364e+10
-3.8465e+10
-3.85099e+10
-3.85619e+10
-3.86096e+10
-3.86403e+10
-3.86426e+10
-3.86091e+10
-3.85374e+10
-3.84294e+10
-3.8295e+10
-3.81758e+10
-3.81944e+10
-3.85484e+10
-3.92472e+10
-3.95215e+10
-3.77363e+10
-3.37294e+10
-3.32827e+10
-4.55779e+10
-6.1444e+10
-3.40454e+10
-4.04049e+10
-4.04232e+10
-4.04408e+10
-4.04745e+10
-4.05269e+10
-4.05973e+10
-4.06835e+10
-4.07912e+10
-4.0926e+10
-4.1093e+10
-4.12952e+10
-4.15323e+10
-4.18001e+10
-4.20895e+10
-4.23857e+10
-4.26666e+10
-4.29029e+10
-4.30668e+10
-4.31499e+10
-4.3164e+10
-4.309e+10
-4.2821e+10
-4.22381e+10
-4.14009e+10
-4.05424e+10
-3.9832e+10
-3.93069e+10
-3.89545e+10
-3.87345e+10
-3.86076e+10
-3.85432e+10
-3.85212e+10
-3.85288e+10
-3.85572e+10
-3.85988e+10
-3.86442e+10
-3.86818e+10
-3.86987e+10
-3.86827e+10
-3.8626e+10
-3.85257e+10
-3.83827e+10
-3.82057e+10
-3.80343e+10
-3.79883e+10
-3.82626e+10
-3.88654e+10
-3.90233e+10
-3.70508e+10
-3.25253e+10
-3.08595e+10
-4.26149e+10
-6.22453e+10
-3.98269e+10
-4.02827e+10
-4.02987e+10
-4.0309e+10
-4.03276e+10
-4.03598e+10
-4.04055e+10
-4.04686e+10
-4.05576e+10
-4.06824e+10
-4.08535e+10
-4.10802e+10
-4.13678e+10
-4.17148e+10
-4.21108e+10
-4.25351e+10
-4.29543e+10
-4.33219e+10
-4.35888e+10
-4.37351e+10
-4.37943e+10
-4.37935e+10
-4.35905e+10
-4.28883e+10
-4.16651e+10
-4.03691e+10
-3.94096e+10
-3.87958e+10
-3.84411e+10
-3.8253e+10
-3.81671e+10
-3.81425e+10
-3.81554e+10
-3.81932e+10
-3.8249e+10
-3.83177e+10
-3.83924e+10
-3.84638e+10
-3.8521e+10
-3.85537e+10
-3.8555e+10
-3.85214e+10
-3.84521e+10
-3.83513e+10
-3.82533e+10
-3.82718e+10
-3.85917e+10
-3.91961e+10
-3.92674e+10
-3.70817e+10
-3.22815e+10
-3.05152e+10
-4.24576e+10
-6.27338e+10
-4.50239e+10
-4.02764e+10
-4.02883e+10
-4.03001e+10
-4.03201e+10
-4.03567e+10
-4.0408e+10
-4.04748e+10
-4.0568e+10
-4.06968e+10
-4.08712e+10
-4.10999e+10
-4.13876e+10
-4.17322e+10
-4.21231e+10
-4.25393e+10
-4.29479e+10
-4.33035e+10
-4.35584e+10
-4.3695e+10
-4.37494e+10
-4.3749e+10
-4.35575e+10
-4.28851e+10
-4.16968e+10
-4.04226e+10
-3.94725e+10
-3.88607e+10
-3.8508e+10
-3.8325e+10
-3.8247e+10
-3.82317e+10
-3.82533e+10
-3.82975e+10
-3.83559e+10
-3.8422e+10
-3.84877e+10
-3.85421e+10
-3.85737e+10
-3.85725e+10
-3.8533e+10
-3.84548e+10
-3.83415e+10
-3.82038e+10
-3.80852e+10
-3.81114e+10
-3.84814e+10
-3.91947e+10
-3.9444e+10
-3.74852e+10
-3.28682e+10
-3.11312e+10
-4.28011e+10
-6.14555e+10
-3.55361e+10
-4.02005e+10
-4.0213e+10
-4.02293e+10
-4.02563e+10
-4.02946e+10
-4.03484e+10
-4.04244e+10
-4.05327e+10
-4.06874e+10
-4.09037e+10
-4.11945e+10
-4.15664e+10
-4.20156e+10
-4.25249e+10
-4.30627e+10
-4.35836e+10
-4.40278e+10
-4.43344e+10
-4.44777e+10
-4.45288e+10
-4.46244e+10
-4.46524e+10
-4.39456e+10
-4.20217e+10
-3.98091e+10
-3.85499e+10
-3.79742e+10
-3.77442e+10
-3.77055e+10
-3.77585e+10
-3.78485e+10
-3.79485e+10
-3.80488e+10
-3.81471e+10
-3.82428e+10
-3.83331e+10
-3.8412e+10
-3.84719e+10
-3.85058e+10
-3.85109e+10
-3.84885e+10
-3.84431e+10
-3.83858e+10
-3.83607e+10
-3.84934e+10
-3.8972e+10
-3.97603e+10
-4.00195e+10
-3.81175e+10
-3.40251e+10
-3.35954e+10
-4.58552e+10
-6.16173e+10
-3.29943e+10
-4.01913e+10
-4.01956e+10
-4.02179e+10
-4.0249e+10
-4.02939e+10
-4.03534e+10
-4.04351e+10
-4.05495e+10
-4.07101e+10
-4.09316e+10
-4.12267e+10
-4.16018e+10
-4.20539e+10
-4.25664e+10
-4.31086e+10
-4.36345e+10
-4.40834e+10
-4.43883e+10
-4.45212e+10
-4.45551e+10
-4.46241e+10
-4.46184e+10
-4.39189e+10
-4.20573e+10
-3.98995e+10
-3.86614e+10
-3.80704e+10
-3.78243e+10
-3.77758e+10
-3.78266e+10
-3.79214e+10
-3.80319e+10
-3.81464e+10
-3.82604e+10
-3.83707e+10
-3.84716e+10
-3.85545e+10
-3.86089e+10
-3.86256e+10
-3.85992e+10
-3.85301e+10
-3.84229e+10
-3.82917e+10
-3.8187e+10
-3.82467e+10
-3.86799e+10
-3.94804e+10
-3.98428e+10
-3.81516e+10
-3.44005e+10
-3.46155e+10
-4.7546e+10
-6.19625e+10
-3.33059e+10
-4.0131e+10
-4.0135e+10
-4.01497e+10
-4.01743e+10
-4.02053e+10
-4.02436e+10
-4.0295e+10
-4.03706e+10
-4.04876e+10
-4.06671e+10
-4.09303e+10
-4.12935e+10
-4.17634e+10
-4.23317e+10
-4.29698e+10
-4.3629e+10
-4.42382e+10
-4.47094e+10
-4.49934e+10
-4.51942e+10
-4.56106e+10
-4.62754e+10
-4.59841e+10
-4.29403e+10
-3.90831e+10
-3.74401e+10
-3.68784e+10
-3.6796e+10
-3.69706e+10
-3.72191e+10
-3.7465e+10
-3.76836e+10
-3.78734e+10
-3.80398e+10
-3.81859e+10
-3.83103e+10
-3.84066e+10
-3.84661e+10
-3.84806e+10
-3.84462e+10
-3.83649e+10
-3.82434e+10
-3.80992e+10
-3.79892e+10
-3.8055e+10
-3.84934e+10
-3.92561e+10
-3.95121e+10
-3.78105e+10
-3.45936e+10
-3.59626e+10
-4.94756e+10
-6.32493e+10
-3.30819e+10
-4.01155e+10
-4.01169e+10
-4.01369e+10
-4.01671e+10
-4.02052e+10
-4.02514e+10
-4.03118e+10
-4.03971e+10
-4.05241e+10
-4.07136e+10
-4.0986e+10
-4.13566e+10
-4.1831e+10
-4.24002e+10
-4.30361e+10
-4.36893e+10
-4.42891e+10
-4.47476e+10
-4.50003e+10
-4.5142e+10
-4.54638e+10
-4.60186e+10
-4.57487e+10
-4.29848e+10
-3.9203e+10
-3.75806e+10
-3.69965e+10
-3.68977e+10
-3.70525e+10
-3.72836e+10
-3.75173e+10
-3.77295e+10
-3.7918e+10
-3.80865e+10
-3.82372e+10
-3.83674e+10
-3.84697e+10
-3.85336e+10
-3.85487e+10
-3.85086e+10
-3.84126e+10
-3.82649e+10
-3.80813e+10
-3.79172e+10
-3.79153e+10
-3.82755e+10
-3.89527e+10
-3.91064e+10
-3.72133e+10
-3.34476e+10
-3.35359e+10
-4.62879e+10
-6.52464e+10
-4.52781e+10
-4.00019e+10
-4.00112e+10
-4.00203e+10
-4.00354e+10
-4.00508e+10
-4.00635e+10
-4.00782e+10
-4.01109e+10
-4.01907e+10
-4.03571e+10
-4.0655e+10
-4.1125e+10
-4.17929e+10
-4.26547e+10
-4.36596e+10
-4.473e+10
-4.57588e+10
-4.66161e+10
-4.72274e+10
-4.77562e+10
-4.86097e+10
-4.98948e+10
-5.03322e+10
-4.63574e+10
-4.04818e+10
-3.62378e+10
-3.57822e+10
-3.61197e+10
-3.65822e+10
-3.69917e+10
-3.73306e+10
-3.76114e+10
-3.7851e+10
-3.80601e+10
-3.82441e+10
-3.84023e+10
-3.85284e+10
-3.86128e+10
-3.86455e+10
-3.86213e+10
-3.85406e+10
-3.84101e+10
-3.82475e+10
-3.81095e+10
-3.81343e+10
-3.85055e+10
-3.91485e+10
-3.92183e+10
-3.73195e+10
-3.39734e+10
-3.49795e+10
-4.74204e+10
-6.1029e+10
-3.14665e+10
-4.00065e+10
-4.00173e+10
-4.00297e+10
-4.0048e+10
-4.00671e+10
-4.00845e+10
-4.01044e+10
-4.01422e+10
-4.02265e+10
-4.0396e+10
-4.06934e+10
-4.11567e+10
-4.18088e+10
-4.26467e+10
-4.36305e+10
-4.4676e+10
-4.56663e+10
-4.64754e+10
-4.69601e+10
-4.72543e+10
-4.78575e+10
-4.90145e+10
-4.95596e+10
-4.65615e+10
-4.09581e+10
-3.61165e+10
-3.57165e+10
-3.61077e+10
-3.65976e+10
-3.70165e+10
-3.73544e+10
-3.76289e+10
-3.78601e+10
-3.80602e+10
-3.82352e+10
-3.83851e+10
-3.85047e+10
-3.85853e+10
-3.86189e+10
-3.86011e+10
-3.85337e+10
-3.84235e+10
-3.82882e+10
-3.81829e+10
-3.82431e+10
-3.86457e+10
-3.92941e+10
-3.92727e+10
-3.70246e+10
-3.28085e+10
-3.23933e+10
-4.45622e+10
-6.32299e+10
-4.26785e+10
-3.99993e+10
-4.00226e+10
-4.00271e+10
-4.00359e+10
-4.00366e+10
-4.00263e+10
-4.00107e+10
-4.00125e+10
-4.00725e+10
-4.02439e+10
-4.05826e+10
-4.1132e+10
-4.19036e+10
-4.28607e+10
-4.39299e+10
-4.50278e+10
-4.60481e+10
-4.69046e+10
-4.75637e+10
-4.82083e+10
-4.91079e+10
-5.03327e+10
-5.12853e+10
-5.01043e+10
-4.46959e+10
-2.99579e+10
-3.25572e+10
-3.46742e+10
-3.58652e+10
-3.6588e+10
-3.70706e+10
-3.74183e+10
-3.76868e+10
-3.79056e+10
-3.80889e+10
-3.82404e+10
-3.83566e+10
-3.84301e+10
-3.8454e+10
-3.84254e+10
-3.83471e+10
-3.82274e+10
-3.80844e+10
-3.79708e+10
-3.80144e+10
-3.83807e+10
-3.89714e+10
-3.89083e+10
-3.67406e+10
-3.29396e+10
-3.34347e+10
-4.59121e+10
-6.04781e+10
-3.41019e+10
-3.9988e+10
-4.00162e+10
-4.00197e+10
-4.00303e+10
-4.0035e+10
-4.00313e+10
-4.0024e+10
-4.00339e+10
-4.01e+10
-4.02742e+10
-4.0612e+10
-4.11557e+10
-4.19171e+10
-4.28704e+10
-4.39533e+10
-4.50598e+10
-4.60705e+10
-4.68856e+10
-4.73811e+10
-4.774e+10
-4.85553e+10
-5.01898e+10
-5.12288e+10
-5.03116e+10
-4.7214e+10
-2.99491e+10
-3.24202e+10
-3.45754e+10
-3.58131e+10
-3.6565e+10
-3.70617e+10
-3.74128e+10
-3.76775e+10
-3.78881e+10
-3.80603e+10
-3.81987e+10
-3.83008e+10
-3.83604e+10
-3.83722e+10
-3.83355e+10
-3.82557e+10
-3.81437e+10
-3.80196e+10
-3.79373e+10
-3.80245e+10
-3.84425e+10
-3.90709e+10
-3.89486e+10
-3.65182e+10
-3.25684e+10
-3.44102e+10
-4.99458e+10
-6.25727e+10
-3.11721e+10
-4.0003e+10
-4.00194e+10
-4.00294e+10
-4.00356e+10
-4.00335e+10
-4.00187e+10
-3.99978e+10
-3.99948e+10
-4.00533e+10
-4.02266e+10
-4.05696e+10
-4.11248e+10
-4.18967e+10
-4.2854e+10
-4.39309e+10
-4.5035e+10
-4.60596e+10
-4.69154e+10
-4.7568e+10
-4.82404e+10
-4.92909e+10
-5.05101e+10
-5.03005e+10
-4.55471e+10
-2.31695e+10
-3.20168e+10
-3.43083e+10
-3.56437e+10
-3.64568e+10
-3.69857e+10
-3.73507e+10
-3.76178e+10
-3.78222e+10
-3.79815e+10
-3.81017e+10
-3.81809e+10
-3.82134e+10
-3.81944e+10
-3.81237e+10
-3.80074e+10
-3.78565e+10
-3.76909e+10
-3.75606e+10
-3.75861e+10
-3.79274e+10
-3.85034e+10
-3.84777e+10
-3.64018e+10
-3.25869e+10
-3.2576e+10
-4.40867e+10
-5.95761e+10
-3.50255e+10
-3.99889e+10
-4.00121e+10
-4.00193e+10
-4.0028e+10
-4.00304e+10
-4.00232e+10
-4.00116e+10
-4.00175e+10
-4.00813e+10
-4.02566e+10
-4.05998e+10
-4.11516e+10
-4.19196e+10
-4.28766e+10
-4.39574e+10
-4.50641e+10
-4.60703e+10
-4.68544e+10
-4.73413e+10
-4.77202e+10
-4.85792e+10
-5.01604e+10
-5.1593e+10
-5.0629e+10
-2.42607e+10
-3.19749e+10
-3.4224e+10
-3.55737e+10
-3.64068e+10
-3.69503e+10
-3.73259e+10
-3.7601e+10
-3.78127e+10
-3.79798e+10
-3.81085e+10
-3.81973e+10
-3.82407e+10
-3.82335e+10
-3.81751e+10
-3.80715e+10
-3.79342e+10
-3.77829e+10
-3.76678e+10
-3.77097e+10
-3.80696e+10
-3.86575e+10
-3.85978e+10
-3.64253e+10
-3.28071e+10
-3.43781e+10
-4.84197e+10
-6.14309e+10
-3.05547e+10
-4.00786e+10
-4.00839e+10
-4.01008e+10
-4.01137e+10
-4.01223e+10
-4.01214e+10
-4.01166e+10
-4.01281e+10
-4.01937e+10
-4.03605e+10
-4.06759e+10
-4.11819e+10
-4.18931e+10
-4.27956e+10
-4.38403e+10
-4.49146e+10
-4.58998e+10
-4.67297e+10
-4.73329e+10
-4.78142e+10
-4.84888e+10
-4.94734e+10
-5.02276e+10
-4.86663e+10
-3.84842e+10
-3.45663e+10
-3.4637e+10
-3.54353e+10
-3.62028e+10
-3.67835e+10
-3.72058e+10
-3.75192e+10
-3.77619e+10
-3.79576e+10
-3.81188e+10
-3.82487e+10
-3.83445e+10
-3.83997e+10
-3.8409e+10
-3.8371e+10
-3.82904e+10
-3.81758e+10
-3.80426e+10
-3.7933e+10
-3.79554e+10
-3.82638e+10
-3.88023e+10
-3.88114e+10
-3.69414e+10
-3.35817e+10
-3.44799e+10
-4.67721e+10
-5.90453e+10
-3.01098e+10
-4.00814e+10
-4.00911e+10
-4.0105e+10
-4.01208e+10
-4.01353e+10
-4.01448e+10
-4.01534e+10
-4.01788e+10
-4.02543e+10
-4.04245e+10
-4.07365e+10
-4.12271e+10
-4.19071e+10
-4.27581e+10
-4.37315e+10
-4.47381e+10
-4.5654e+10
-4.63539e+10
-4.68317e+10
-4.73258e+10
-4.81655e+10
-4.93224e+10
-4.96394e+10
-4.81822e+10
-3.9471e+10
-3.43262e+10
-3.43832e+10
-3.52501e+10
-3.6079e+10
-3.66992e+10
-3.7144e+10
-3.74707e+10
-3.77228e+10
-3.79269e+10
-3.80968e+10
-3.82365e+10
-3.83432e+10
-3.84102e+10
-3.84313e+10
-3.84042e+10
-3.83324e+10
-3.82236e+10
-3.80927e+10
-3.79816e+10
-3.7998e+10
-3.82929e+10
-3.88026e+10
-3.87487e+10
-3.67133e+10
-3.2868e+10
-3.27798e+10
-4.48158e+10
-6.05512e+10
-3.54186e+10
-4.02376e+10
-4.02449e+10
-4.0266e+10
-4.02934e+10
-4.0326e+10
-4.03619e+10
-4.04042e+10
-4.04651e+10
-4.05662e+10
-4.07357e+10
-4.10017e+10
-4.13867e+10
-4.18981e+10
-4.25252e+10
-4.32334e+10
-4.39543e+10
-4.45978e+10
-4.50753e+10
-4.53212e+10
-4.54042e+10
-4.55863e+10
-4.59996e+10
-4.5764e+10
-4.28049e+10
-3.92815e+10
-3.75011e+10
-3.68429e+10
-3.67263e+10
-3.68823e+10
-3.71057e+10
-3.73254e+10
-3.75193e+10
-3.76881e+10
-3.78361e+10
-3.79659e+10
-3.80759e+10
-3.81611e+10
-3.82139e+10
-3.82279e+10
-3.82002e+10
-3.8133e+10
-3.80317e+10
-3.79064e+10
-3.77908e+10
-3.7781e+10
-3.80215e+10
-3.8467e+10
-3.84061e+10
-3.65153e+10
-3.303e+10
-3.34264e+10
-4.56867e+10
-6.11604e+10
-3.43261e+10
-4.02468e+10
-4.02503e+10
-4.02702e+10
-4.0297e+10
-4.03303e+10
-4.03687e+10
-4.04159e+10
-4.04839e+10
-4.05936e+10
-4.07721e+10
-4.10466e+10
-4.14368e+10
-4.19461e+10
-4.25584e+10
-4.3235e+10
-4.39108e+10
-4.4499e+10
-4.49112e+10
-4.51218e+10
-4.52667e+10
-4.56056e+10
-4.6126e+10
-4.57683e+10
-4.28961e+10
-3.92322e+10
-3.7323e+10
-3.66578e+10
-3.65901e+10
-3.67988e+10
-3.70617e+10
-3.73075e+10
-3.75181e+10
-3.76978e+10
-3.78534e+10
-3.79888e+10
-3.8103e+10
-3.81906e+10
-3.82438e+10
-3.82556e+10
-3.8223e+10
-3.81482e+10
-3.80372e+10
-3.79018e+10
-3.77772e+10
-3.77595e+10
-3.79893e+10
-3.8415e+10
-3.83117e+10
-3.62424e+10
-3.19445e+10
-3.01292e+10
-4.04045e+10
-6.06465e+10
-4.28532e+10
-4.03764e+10
-4.03826e+10
-4.04023e+10
-4.04326e+10
-4.0474e+10
-4.0528e+10
-4.05992e+10
-4.06972e+10
-4.08353e+10
-4.103e+10
-4.12963e+10
-4.16435e+10
-4.20697e+10
-4.25588e+10
-4.30774e+10
-4.35755e+10
-4.39927e+10
-4.42698e+10
-4.43739e+10
-4.43491e+10
-4.43112e+10
-4.41914e+10
-4.34192e+10
-4.15775e+10
-3.95592e+10
-3.83426e+10
-3.77271e+10
-3.74631e+10
-3.74212e+10
-3.74878e+10
-3.75988e+10
-3.77208e+10
-3.78402e+10
-3.79525e+10
-3.80545e+10
-3.81411e+10
-3.82047e+10
-3.82367e+10
-3.823e+10
-3.81819e+10
-3.80946e+10
-3.79746e+10
-3.78327e+10
-3.77046e+10
-3.76884e+10
-3.79314e+10
-3.83963e+10
-3.8391e+10
-3.66276e+10
-3.33675e+10
-3.39326e+10
-4.57509e+10
-5.93869e+10
-3.03348e+10
-4.03656e+10
-4.03676e+10
-4.03873e+10
-4.04163e+10
-4.04568e+10
-4.05101e+10
-4.05816e+10
-4.06812e+10
-4.08235e+10
-4.10256e+10
-4.13032e+10
-4.16657e+10
-4.21107e+10
-4.26208e+10
-4.31614e+10
-4.36803e+10
-4.41125e+10
-4.43968e+10
-4.45123e+10
-4.45218e+10
-4.45343e+10
-4.44287e+10
-4.35954e+10
-4.1637e+10
-3.94949e+10
-3.82292e+10
-3.76282e+10
-3.73985e+10
-3.73909e+10
-3.7485e+10
-3.7617e+10
-3.77556e+10
-3.78895e+10
-3.8015e+10
-3.81293e+10
-3.82272e+10
-3.83008e+10
-3.83411e+10
-3.83404e+10
-3.82957e+10
-3.82094e+10
-3.80882e+10
-3.7944e+10
-3.78121e+10
-3.77887e+10
-3.8016e+10
-3.84498e+10
-3.83733e+10
-3.63766e+10
-3.24149e+10
-3.17949e+10
-4.36487e+10
-6.07649e+10
-3.55433e+10
-4.0497e+10
-4.05027e+10
-4.05223e+10
-4.0551e+10
-4.0591e+10
-4.06445e+10
-4.07164e+10
-4.08143e+10
-4.0948e+10
-4.11277e+10
-4.13623e+10
-4.16559e+10
-4.20049e+10
-4.23954e+10
-4.28019e+10
-4.31881e+10
-4.35108e+10
-4.3729e+10
-4.3824e+10
-4.38203e+10
-4.3736e+10
-4.34333e+10
-4.26238e+10
-4.13126e+10
-3.99717e+10
-3.89989e+10
-3.8401e+10
-3.80781e+10
-3.79359e+10
-3.79013e+10
-3.79265e+10
-3.79823e+10
-3.80523e+10
-3.81267e+10
-3.8198e+10
-3.82572e+10
-3.82938e+10
-3.82968e+10
-3.82579e+10
-3.8174e+10
-3.80485e+10
-3.78896e+10
-3.77124e+10
-3.75585e+10
-3.75347e+10
-3.77944e+10
-3.82884e+10
-3.82728e+10
-3.63756e+10
-3.27818e+10
-3.27848e+10
-4.42362e+10
-5.90194e+10
-3.20205e+10
-4.04845e+10
-4.04889e+10
-4.05089e+10
-4.05373e+10
-4.05767e+10
-4.06288e+10
-4.06987e+10
-4.07938e+10
-4.09241e+10
-4.11003e+10
-4.13317e+10
-4.16229e+10
-4.19715e+10
-4.2365e+10
-4.27797e+10
-4.31802e+10
-4.35208e+10
-4.37565e+10
-4.38705e+10
-4.38918e+10
-4.38336e+10
-4.35406e+10
-4.27146e+10
-4.13634e+10
-3.9983e+10
-3.89989e+10
-3.84085e+10
-3.8096e+10
-3.79616e+10
-3.7932e+10
-3.79609e+10
-3.80206e+10
-3.80958e+10
-3.81774e+10
-3.82578e+10
-3.83279e+10
-3.83775e+10
-3.83957e+10
-3.83743e+10
-3.83103e+10
-3.82068e+10
-3.80707e+10
-3.79146e+10
-3.77751e+10
-3.77505e+10
-3.79838e+10
-3.84097e+10
-3.82387e+10
-3.60357e+10
-3.22344e+10
-3.32884e+10
-4.73903e+10
-6.13843e+10
-3.10261e+10
-4.05846e+10
-4.05949e+10
-4.06178e+10
-4.06519e+10
-4.06982e+10
-4.07585e+10
-4.08366e+10
-4.09374e+10
-4.10669e+10
-4.12304e+10
-4.14313e+10
-4.16692e+10
-4.19383e+10
-4.22269e+10
-4.25169e+10
-4.27833e+10
-4.29957e+10
-4.31276e+10
-4.31715e+10
-4.31398e+10
-4.30161e+10
-4.26941e+10
-4.2053e+10
-4.11576e+10
-4.02456e+10
-3.94963e+10
-3.8954e+10
-3.85988e+10
-3.8385e+10
-3.82687e+10
-3.8217e+10
-3.82076e+10
-3.82255e+10
-3.82599e+10
-3.83009e+10
-3.83372e+10
-3.83558e+10
-3.83436e+10
-3.82906e+10
-3.81923e+10
-3.8051e+10
-3.78742e+10
-3.76772e+10
-3.75037e+10
-3.74641e+10
-3.77107e+10
-3.81692e+10
-3.80172e+10
-3.57301e+10
-3.1272e+10
-2.99493e+10
-4.08259e+10
-5.85053e+10
-3.42667e+10
-4.05901e+10
-4.06033e+10
-4.06279e+10
-4.06636e+10
-4.07111e+10
-4.0772e+10
-4.08495e+10
-4.09483e+10
-4.1074e+10
-4.12314e+10
-4.14239e+10
-4.1651e+10
-4.19076e+10
-4.2183e+10
-4.24606e+10
-4.27163e+10
-4.29206e+10
-4.30474e+10
-4.30899e+10
-4.30615e+10
-4.29461e+10
-4.26392e+10
-4.20227e+10
-4.11549e+10
-4.02661e+10
-3.95325e+10
-3.89979e+10
-3.86428e+10
-3.84237e+10
-3.82995e+10
-3.82392e+10
-3.82214e+10
-3.82322e+10
-3.82611e+10
-3.82983e+10
-3.83329e+10
-3.83527e+10
-3.83454e+10
-3.83022e+10
-3.82193e+10
-3.80992e+10
-3.79486e+10
-3.77799e+10
-3.76305e+10
-3.76014e+10
-3.78343e+10
-3.82316e+10
-3.79077e+10
-3.53278e+10