/*--------------------------------*- C++ -*----------------------------------*\
| =========                 |                                                 |
| \\      /  F ield         | OpenFOAM: The Open Source CFD Toolbox           |
|  \\    /   O peration     | Version:  4.1                                   |
|   \\  /    A nd           | Web:      www.OpenFOAM.org                      |
|    \\/     M anipulation  |                                                 |
\*---------------------------------------------------------------------------*/
FoamFile
{
    version     2.0;
    format      ascii;
    class       volScalarField;
    location    "80";
    object      p;
}
// * * * * * * * * * * * * * * * * * * * * * * * * * * * * * * * * * * * * * //

dimensions      [0 2 -2 0 0 0 0];

internalField   nonuniform List<scalar> 
4432
(
100978
100978
100979
100981
100984
100987
100991
100996
101001
101007
101014
101021
101029
101037
101046
101054
101060
101065
101069
101078
101094
101111
101130
101150
101173
101197
101219
101237
101251
101262
101271
101279
101290
101305
101319
101324
101327
101332
101338
101342
101345
101347
101349
101351
101351
101349
101345
101344
101344
101338
101329
101323
101322
101320
100978
100978
100979
100981
100984
100987
100991
100996
101001
101007
101014
101021
101029
101037
101046
101054
101060
101064
101069
101078
101094
101112
101131
101152
101174
101199
101220
101237
101251
101264
101274
101282
101292
101304
101316
101323
101327
101332
101338
101342
101345
101346
101348
101349
101350
101351
101346
101342
101341
101338
101331
101325
101319
101319
100977
100977
100978
100979
100982
100985
100989
100993
100999
101005
101011
101019
101027
101037
101048
101060
101077
101095
101108
101117
101129
101144
101160
101174
101189
101204
101220
101236
101252
101267
101279
101288
101294
101299
101304
101307
101314
101324
101334
101343
101344
101342
101345
101349
101351
101350
101347
101345
101343
101341
101337
101328
101301
101322
100977
100977
100978
100979
100982
100985
100989
100993
100999
101005
101011
101019
101027
101037
101047
101060
101076
101095
101109
101118
101129
101143
101158
101172
101187
101202
101218
101234
101250
101264
101275
101281
101288
101299
101306
101311
101316
101325
101335
101343
101344
101343
101345
101350
101351
101350
101348
101345
101345
101343
101337
101326
101296
101322
100975
100975
100976
100978
100981
100984
100988
100992
100998
101004
101010
101018
101026
101036
101046
101059
101072
101085
101096
101109
101125
101141
101156
101171
101186
101203
101221
101239
101257
101273
101284
101293
101304
101313
101314
101311
101316
101330
101343
101352
101350
101346
101349
101355
101356
101354
101351
101345
101339
101335
101334
101332
101325
101327
100975
100975
100976
100978
100981
100984
100988
100992
100998
101004
101010
101018
101026
101036
101046
101058
101072
101085
101096
101109
101124
101140
101155
101169
101184
101201
101219
101237
101255
101272
101283
101290
101298
101308
101315
101315
101320
101331
101342
101350
101351
101347
101350
101355
101356
101354
101350
101346
101340
101336
101337
101330
101324
101333
100973
100973
100974
100976
100979
100982
100985
100990
100995
101001
101007
101015
101023
101032
101042
101054
101066
101078
101089
101104
101120
101136
101151
101166
101183
101203
101224
101244
101265
101284
101297
101310
101329
101334
101325
101307
101309
101327
101343
101356
101352
101346
101353
101360
101360
101356
101352
101345
101338
101331
101332
101335
101331
101321
100973
100973
100974
100976
100979
100982
100985
100990
100995
101001
101007
101015
101023
101032
101042
101054
101066
101078
101089
101103
101120
101136
101151
101165
101183
101203
101224
101244
101265
101284
101297
101308
101324
101331
101327
101318
101320
101332
101345
101353
101349
101347
101353
101359
101360
101357
101351
101345
101337
101333
101337
101337
101328
101319
100970
100970
100971
100973
100976
100979
100982
100987
100992
100997
101004
101011
101019
101028
101038
101049
101061
101072
101083
101095
101110
101126
101142
101159
101178
101203
101229
101253
101277
101298
101314
101332
101351
101359
101382
101284
101293
101321
101348
101372
101365
101352
101361
101366
101365
101361
101354
101348
101343
101337
101333
101330
101330
101333
100970
100970
100971
100973
100976
100979
100982
100987
100992
100997
101004
101011
101019
101028
101038
101049
101061
101072
101083
101095
101109
101126
101142
101159
101180
101204
101229
101253
101279
101301
101316
101331
101348
101352
101348
101322
101315
101331
101353
101370
101366
101356
101360
101365
101365
101361
101355
101349
101342
101336
101336
101335
101326
101329
100967
100967
100968
100970
100972
100975
100979
100983
100988
100993
100999
101006
101014
101023
101032
101042
101053
101064
101075
101087
101101
101116
101131
101148
101168
101195
101223
101250
101278
101303
101320
101340
101366
101465
101647
101369
101281
101296
101326
101336
101345
101375
101379
101375
101371
101367
101359
101353
101348
101343
101335
101326
101326
101334
100967
100967
100968
100970
100972
100975
100979
100983
100988
100993
100999
101006
101014
101022
101032
101042
101053
101064
101075
101087
101100
101116
101132
101149
101170
101196
101223
101249
101278
101303
101320
101333
101348
101381
101410
101339
101298
101315
101346
101373
101382
101370
101371
101372
101370
101366
101361
101354
101348
101340
101334
101329
101329
101335
100963
100963
100964
100966
100968
100971
100974
100978
100983
100988
100994
101001
101008
101016
101025
101035
101045
101056
101067
101078
101091
101106
101122
101136
101152
101177
101207
101233
101257
101281
101305
101336
101394
101640
101558
101505
101321
101324
101345
101352
101362
101384
101388
101383
101378
101374
101367
101360
101354
101348
101339
101328
101319
101327
100963
100963
100964
100966
100968
100971
100974
100978
100983
100988
100994
101001
101008
101016
101025
101035
101045
101056
101067
101078
101091
101106
101122
101137
101155
101179
101206
101229
101255
101281
101301
101322
101351
101413
101482
101399
101296
101307
101341
101358
101369
101378
101383
101381
101376
101370
101363
101358
101352
101345
101336
101327
101324
101325
100958
100959
100960
100961
100963
100966
100969
100973
100977
100982
100988
100994
101001
101009
101018
101027
101037
101048
101058
101069
101081
101094
101108
101121
101132
101150
101178
101200
101219
101235
101256
101287
101318
101389
101435
101408
101337
101337
101353
101363
101372
101381
101386
101384
101377
101372
101365
101359
101353
101348
101341
101328
101316
101323
100958
100959
100960
100961
100963
100966
100969
100973
100977
100982
100988
100994
101001
101009
101018
101027
101037
101048
101058
101069
101081
101094
101108
101122
101135
101154
101176
101196
101216
101237
101256
101281
101319
101361
101403
101367
101324
101331
101353
101367
101376
101382
101384
101382
101377
101370
101362
101356
101352
101347
101338
101326
101317
101324
100953
100954
100954
100956
100958
100960
100963
100967
100971
100976
100981
100987
100994
101001
101010
101019
101028
101039
101049
101060
101070
101081
101091
101102
101110
101118
101136
101157
101179
101201
101223
101248
101287
101325
101363
101348
101335
101343
101357
101366
101374
101381
101386
101385
101379
101371
101364
101359
101355
101352
101345
101331
101319
101323
100953
100954
100954
100956
100958
100960
100963
100967
100971
100976
100981
100987
100994
101001
101010
101019
101028
101039
101049
101060
101070
101081
101091
101101
101110
101120
101137
101157
101177
101198
101221
101250
101289
101326
101355
101355
101348
101353
101365
101376
101383
101386
101387
101385
101381
101373
101365
101359
101356
101352
101344
101330
101319
101326
100948
100948
100949
100950
100952
100954
100957
100960
100964
100968
100973
100979
100985
100992
101000
101009
101019
101029
101039
101049
101059
101067
101073
101078
101081
101083
101095
101119
101147
101174
101201
101233
101274
101312
101350
101363
101368
101374
101383
101390
101396
101399
101401
101398
101391
101381
101371
101365
101361
101359
101352
101339
101326
101324
100948
100948
100949
100950
100952
100954
100957
100960
100964
100968
100973
100979
100985
100992
101000
101009
101019
101029
101039
101049
101059
101067
101073
101077
101079
101083
101096
101120
101146
101172
101201
101234
101274
101314
101349
101366
101374
101383
101394
101403
101406
101406
101404
101400
101394
101385
101374
101366
101363
101359
101351
101339
101327
101329
100942
100942
100943
100944
100946
100948
100950
100953
100956
100960
100965
100970
100976
100983
100991
100999
101009
101019
101029
101039
101048
101055
101057
101052
101044
101039
101053
101085
101121
101154
101188
101226
101267
101310
101350
101378
101398
101415
101429
101436
101437
101433
101425
101415
101404
101393
101381
101371
101365
101362
101357
101344
101326
101314
100942
100942
100943
100944
100946
100948
100950
100953
100956
100960
100965
100970
100976
100983
100991
100999
101009
101019
101029
101039
101048
101055
101056
101051
101042
101039
101055
101086
101121
101154
101189
101228
101270
101312
101350
101378
101398
101417
101433
101442
101443
101437
101427
101417
101407
101396
101383
101373
101367
101364
101357
101345
101323
101319
100936
100936
100936
100937
100939
100941
100943
100945
100948
100952
100956
100960
100966
100972
100980
100988
100998
101008
101019
101031
101041
101047
101045
101029
100995
100975
100997
101043
101088
101128
101168
101211
101257
101305
101350
101389
101422
101450
101469
101477
101472
101459
101443
101428
101414
101401
101389
101376
101366
101361
101356
101347
101329
101320
100936
100936
100936
100937
100939
100941
100943
100945
100948
100952
100956
100960
100966
100972
100980
100988
100998
101008
101019
101031
101041
101047
101045
101028
100993
100975
100999
101044
101088
101128
101168
101212
101258
101305
101350
101389
101422
101450
101470
101479
101475
101462
101446
101430
101416
101403
101390
101377
101368
101363
101357
101347
101324
101329
100929
100929
100930
100930
100932
100933
100935
100937
100939
100942
100946
100950
100955
100961
100967
100976
100985
100996
101009
101024
101038
101049
101045
101013
100931
100892
100926
100992
101050
101094
101137
101186
101239
101294
101350
101402
101448
101485
101509
101515
101505
101484
101463
101444
101427
101410
101393
101378
101365
101357
101352
101345
101329
101323
100929
100929
100930
100930
100932
100933
100935
100937
100939
100942
100946
100950
100955
100961
100967
100976
100985
100996
101009
101024
101038
101048
101044
101008
100922
100889
100933
100998
101052
101094
101138
101186
101239
101294
101350
101402
101450
101487
101512
101516
101505
101485
101465
101447
101429
101410
101392
101377
101366
101359
101353
101344
101326
101322
100922
100922
100923
100923
100924
100925
100926
100928
100930
100932
100935
100939
100943
100948
100954
100962
100971
100983
100998
101017
101042
101070
101086
101027
100846
100743
100830
100942
101010
101052
101098
101152
101212
101276
101345
101412
101475
101523
101559
101563
101541
101510
101482
101459
101437
101414
101393
101375
101362
101352
101346
101341
101327
101325
100922
100922
100923
100923
100924
100925
100926
100928
100930
100932
100935
100939
100943
100948
100954
100961
100971
100983
100998
101017
101042
101070
101085
101022
100820
100748
100843
100943
101009
101053
101098
101152
101211
101276
101345
101410
101476
101524
101576
101576
101546
101508
101478
101455
101434
101412
101391
101374
101361
101353
101347
101341
101328
101321
100915
100915
100915
100916
100916
100917
100918
100919
100920
100922
100924
100927
100930
100934
100939
100945
100954
100965
100981
101003
101040
101105
101172
101170
100619
100483
100667
100893
100978
101003
101045
101105
101173
101247
101329
101414
101497
101553
101620
101628
101583
101525
101487
101462
101437
101412
101389
101371
101357
101347
101341
101337
101328
101323
100915
100915
100915
100916
100916
100917
100918
100919
100920
100922
100924
100927
100930
100934
100939
100945
100954
100965
100981
101003
101040
101104
101168
101155
100523
100572
100735
100902
100975
101007
101049
101107
101173
101246
101332
101420
101509
101538
101617
101629
101577
101518
101484
101461
101436
101411
101388
101370
101357
101347
101342
101337
101330
101321
100908
100908
100908
100908
100908
100909
100909
100909
100910
100911
100912
100914
100916
100918
100922
100927
100933
100942
100955
100974
101004
101051
101168
101450
100449
100658
100866
100940
100945
100976
101035
101107
101192
101293
101401
101516
101558
101633
101686
101626
101540
101490
101460
101432
101404
101382
101364
101350
101339
101332
101328
101325
101317
100908
100908
100908
100908
100908
100909
100909
100909
100910
100911
100912
100914
100916
100918
100922
100927
100933
100942
100955
100974
101003
101049
101165
101437
100406
100680
100877
100943
100952
100983
101040
101109
101194
101284
101411
101527
101521
101513
101658
101612
101537
101490
101458
101428
101401
101380
101363
101350
101340
101333
101329
101326
101317
100900
100900
100900
100900
100900
100900
100900
100900
100900
100900
100900
100900
100901
100902
100904
100906
100910
100915
100922
100930
100938
100935
100895
100821
100529
100544
100828
100965
100959
100926
100928
100961
101016
101097
101203
101315
101443
101481
101548
101728
101664
101568
101499
101449
101410
101382
101362
101347
101335
101326
101320
101317
101318
101311
100900
100900
100900
100900
100900
100900
100900
100900
100900
100900
100900
100900
100901
100902
100904
100906
100910
100915
100921
100930
100937
100934
100893
100810
100525
100610
100868
100968
100948
100920
100929
100965
101017
101088
101146
101312
101326
101568
101508
101533
101560
101535
101492
101447
101409
101381
101361
101347
101335
101327
101321
101318
101318
101312
100893
100893
100893
100893
100892
100892
100891
100890
100889
100888
100887
100886
100885
100885
100884
100884
100884
100884
100884
100882
100876
100857
100824
100758
100691
100702
100844
100916
100916
100904
100898
100900
100919
100978
101140
101303
101283
101502
101787
101601
101560
101529
101469
101412
101371
101347
101333
101323
101316
101312
101310
101310
101314
101309
100893
100893
100893
100893
100892
100891
100891
100890
100889
100888
100887
100886
100885
100885
100884
100884
100884
100884
100884
100882
100875
100857
100823
100758
100688
100715
100849
100909
100905
100893
100889
100897
100915
100952
101001
101220
101032
101443
101897
100956
101368
101504
101472
101419
101375
101349
101333
101323
101316
101312
101310
101310
101314
101309
100886
100886
100885
100885
100884
100883
100882
100880
100879
100877
100875
100872
100870
100867
100864
100861
100858
100853
100848
100839
100827
100808
100782
100744
100699
100691
100735
100783
100812
100827
100832
100828
100816
100812
100914
101173
102203
101449
100608
100905
101380
101487
101432
101370
101329
101311
101302
101296
101294
101295
101298
101302
101312
101309
100886
100886
100885
100885
100884
100883
100882
100880
100879
100877
100875
100872
100870
100867
100864
100861
100858
100853
100848
100839
100827
100808
100782
100744
100699
100695
100738
100781
100805
100818
100825
100823
100818
100745
100886
101197
101705
99761.8
100225
99700
100418
101320
101427
101378
101334
101311
101302
101297
101294
101294
101298
101303
101312
101310
100879
100879
100878
100877
100876
100875
100873
100871
100868
100865
100862
100858
100854
100849
100844
100838
100831
100823
100813
100800
100784
100762
100735
100701
100666
100647
100657
100681
100701
100717
100726
100727
100634
100684
100748
99817.8
99284.2
98972.2
99036
99569.6
100437
101236
101351
101288
101264
101260
101261
101263
101267
101273
101281
101290
101302
101304
100879
100879
100878
100877
100876
100875
100873
100871
100868
100865
100862
100858
100854
100849
100844
100838
100831
100823
100813
100800
100784
100762
100735
100701
100667
100649
100659
100681
100699
100713
100726
100733
100744
100763
100696
100312
102376
99593.9
99205.6
99225.5
99842.2
100755
101271
101294
101260
101256
101259
101264
101268
101273
101281
101290
101306
101309
100872
100872
100871
100870
100869
100867
100864
100861
100858
100854
100850
100845
100839
100832
100825
100816
100806
100794
100780
100763
100742
100717
100688
100654
100621
100597
100588
100588
100590
100598
100609
100646
100409
100626
101090
100619
98918.8
98804.8
99217.5
99598.1
100090
100744
101111
101157
101184
101202
101216
101229
101242
101254
101266
101277
101293
101305
100872
100872
100871
100870
100869
100867
100864
100861
100858
100854
100850
100845
100839
100832
100825
100816
100806
100794
100780
100763
100742
100717
100688
100654
100622
100597
100588
100588
100588
100593
100601
100653
100613
100677
100984
100132
100322
99217.6
99413.6
99712.9
100245
100736
100976
101096
101172
101200
101216
101230
101243
101254
101265
101277
101292
101300
100866
100866
100865
100864
100862
100859
100856
100853
100848
100844
100838
100831
100824
100815
100806
100795
100782
100766
100749
100728
100703
100674
100641
100604
100567
100532
100504
100482
100465
100468
100499
100756
100549
99694.4
99889.1
99883.5
99012.4
99037.8
99441
99822.3
100107
100367
100892
101041
101116
101149
101173
101197
101219
101237
101253
101267
101291
101305
100866
100866
100865
100864
100862
100859
100856
100853
100848
100844
100838
100831
100824
100815
100806
100795
100782
100766
100749
100728
100703
100674
100641
100604
100567
100533
100504
100482
100460
100444
100419
100477
100717
99952.6
96639.3
97379.2
98662.1
99026.7
99515.7
99935.4
100309
100504
100767
100992
101110
101150
101174
101197
101219
101238
101253
101266
101285
101302
100860
100860
100859
100857
100855
100852
100849
100844
100839
100834
100827
100819
100810
100800
100788
100774
100759
100741
100719
100694
100665
100632
100594
100551
100505
100457
100409
100360
100314
100293
100382
100591
100857
99868.4
98654.3
98582.8
98832.3
99170.7
99426
99598.3
99864.4
100131
100589
100942
101063
101104
101134
101166
101196
101221
101240
101256
101280
101295
100860
100860
100859
100857
100855
100852
100849
100844
100839
100834
100827
100819
100810
100800
100788
100774
100759
100741
100719
100694
100665
100632
100594
100551
100505
100457
100409
100360
100305
100262
100187
100438
100620
99845.3
97622.6
98149.2
98794.3
99208.5
99455.8
99624.4
99952.8
100238
100563
100909
101054
101102
101134
101166
101196
101221
101241
101256
101280
101299
100855
100855
100853
100852
100849
100846
100842
100837
100831
100825
100817
100808
100797
100786
100772
100756
100738
100717
100692
100663
100630
100592
100548
100497
100441
100377
100306
100217
100123
99917
100165
100148
100539
93211.7
95140.6
97782.2
98894.1
99398
99397.7
99303.3
99563.6
100015
100499
100833
100977
101045
101092
101136
101175
101207
101233
101250
101273
101292
100855
100855
100853
100852
100849
100846
100842
100837
100831
100825
100817
100808
100797
100786
100772
100756
100738
100717
100692
100663
100630
100592
100548
100497
100441
100377
100305
100221
100118
99981
99882.4
99980.6
98319.5
97890.1
97876.4
98414.9
99118.7
99504
99415.4
99264.7
99574.6
100086
100528
100828
100971
101041
101092
101136
101175
101207
101233
101251
101270
101282
100850
100850
100849
100847
100844
100840
100836
100830
100824
100817
100808
100798
100786
100773
100757
100740
100719
100695
100668
100635
100598
100555
100504
100445
100377
100297
100202
100077
99917.9
99609
99148
100399
96401.9
93950.5
96228.7
98476.1
99739.8
100075
99669.8
99285.9
99489.1
99956.6
100403
100715
100880
100986
101053
101109
101157
101197
101231
101255
101277
101290
100850
100850
100849
100847
100844
100840
100836
100830
100824
100817
100808
100798
100786
100773
100757
100740
100719
100695
100668
100635
100598
100555
100504
100445
100377
100297
100201
100088
99927.9
99692.6
99395.5
99066.8
97086.2
95482
97394.7
98934
99964.8
100187
99681.7
99239.6
99478.4
100027
100466
100718
100876
100980
101052
101110
101156
101194
101229
101257
101279
101292
100846
100846
100845
100842
100839
100835
100830
100825
100818
100810
100800
100789
100776
100762
100745
100725
100703
100677
100646
100611
100570
100521
100465
100398
100319
100223
100106
99957.4
99755.6
99476.5
98950.2
98701.1
100181
100177
99818.6
100434
101119
100961
100073
99314.2
99387.9
99843.8
100282
100612
100812
100940
101025
101091
101143
101182
101216
101252
101293
101303
100846
100846
100845
100842
100839
100835
100830
100824
100818
100810
100800
100789
100776
100762
100745
100725
100703
100677
100646
100611
100570
100521
100465
100398
100318
100222
100099
99960.6
99784.2
99555.1
99265.3
98597.6
97543.7
98226.2
99449.2
100582
101316
101058
100077
99271.1
99367.8
99892.7
100331
100612
100804
100933
101020
101090
101141
101179
101212
101243
101292
101310
100843
100843
100841
100839
100836
100831
100826
100820
100813
100804
100794
100782
100768
100753
100734
100714
100689
100661
100629
100590
100546
100493
100432
100358
100270
100162
100030
99866.5
99644.9
99363.7
98913.2
98379.3
98695.6
99769.1
99802.1
100406
101226
101148
100251
99280.5
99265.7
99754.5
100257
100588
100777
100908
101009
101084
101135
101169
101198
101231
101274
101305
100843
100843
100841
100839
100836
100831
100826
100820
100813
100804
100794
100782
100768
100753
100734
100714
100689
100661
100629
100590
100546
100493
100432
100358
100269
100156
100027
99867.3
99651.1
99381
99136
98164.2
97913.4
98928.3
99793.4
100784
101392
101150
100265
99309.3
99239.9
99760.9
100279
100600
100779
100903
101001
101082
101137
101171
101193
101212
101251
101313
100841
100840
100839
100836
100833
100828
100823
100816
100808
100799
100789
100776
100762
100746
100726
100704
100679
100649
100615
100575
100527
100472
100406
100327
100233
100118
99978.7
99802.2
99572.8
99282
98930.4
98391.3
98122.8
98517.8
98094.9
99047.4
100092
100514
100269
99645.6
99515.7
99917.8
100365
100675
100809
100919
101020
101090
101136
101164
101187
101198
101203
101288
100841
100840
100839
100836
100833
100828
100823
100816
100808
100799
100789
100776
100762
100746
100726
100704
100679
100649
100615
100575
100527
100472
100406
100327
100233
100118
99985
99807.7
99566.3
99271.9
98895.8
98347.4
98155.9
98498.8
99016
99631.7
99740.7
100065
100081
99721.8
99560.7
99892
100357
100690
100834
100920
101012
101091
101138
101166
101189
101192
101173
101273
100840
100839
100837
100834
100831
100826
100821
100814
100806
100797
100786
100773
100758
100741
100721
100698
100672
100641
100606
100564
100515
100457
100388
100306
100208
100088
99942
99760.1
99531.4
99246.2
98916.4
98490.8
98116.1
97618.8
96870.8
96904.3
96325.3
96420.6
96937.8
98229.9
99194.8
100035
100493
100780
100936
101038
101106
101146
101171
101186
101202
101199
101163
101247
100840
100839
100837
100834
100831
100826
100821
100814
100806
100797
100786
100773
100758
100741
100721
100698
100672
100641
100606
100564
100515
100457
100388
100306
100208
100089
99944.1
99766.5
99532.4
99233.8
98926.3
98510.6
98125.7
97932.3
97488.5
96699.4
95776.7
95958.8
96647.5
98060.2
99266.7
100043
100490
100777
100935
101039
101105
101147
101169
101185
101213
101212
101157
101238
100838
100838
100836
100833
100830
100825
100819
100812
100804
100795
100784
100771
100756
100738
100718
100695
100668
100637
100601
100558
100508
100449
100379
100295
100194
100072
99923.1
99739.4
99512.7
99235.2
98905.8
98500.2
98008.3
97530.7
97007.5
95887.4
93915.3
93238.6
93941.5
95925.7
98026.6
99416.8
100160
100558
100847
101043
101130
101162
101180
101191
101193
101186
101173
101221
100838
100838
100836
100833
100830
100825
100819
100812
100804
100795
100784
100771
100756
100738
100718
100695
100668
100637
100601
100558
100508
100449
100379
100295
100194
100073
99923.7
99741.6
99514.6
99237.1
98920.5
98555.7
98163.5
97596.9
96503.4
95057.5
93912.6
93413.2
94024.4
95821
97943.8
99416.6
100167
100551
100819
101030
101135
101161
101176
101192
101198
101193
101186
101244
100713
101161
100641
101567
101574
100610
100546
100587
100495
100440
100619
101150
100567
101572
101533
100574
100433
100561
100417
100402
101453
100884
100570
100871
100501
100537
100448
100553
100384
100474
100376
101422
100867
100482
100866
100472
100416
100403
100445
100393
100438
100430
100949
101024
100941
101071
100947
101065
100935
100783
100833
100773
100750
100675
100725
100650
100930
101020
100925
101059
100902
101056
100882
100768
100814
100764
100676
100624
100650
100617
101237
101171
101235
101220
101368
101220
101370
100552
100686
100608
100693
100574
100569
100532
100616
100433
100447
100406
100447
101229
101167
101228
101218
101358
101214
101364
100398
100619
100474
100564
100440
100646
100583
100662
100391
100469
100418
100532
101258
101167
101259
101037
101021
101035
101016
100673
101462
101152
101150
100721
100442
100481
100477
100410
100474
100425
100504
100418
100511
101251
101163
101256
101033
101010
101032
101012
100643
101435
101138
100647
101136
100404
100403
100490
100428
100533
100448
100536
100484
100565
100678
100816
100671
100784
100688
100785
100690
100371
100527
100417
100598
100574
100601
100590
100663
100809
100662
100784
100690
100785
100693
100464
100527
100475
100606
100606
100609
100609
101040
100936
100698
100929
101076
101036
100683
100900
100920
101019
101405
101485
101581
101492
101419
101202
101240
101405
101493
101578
101491
101409
101200
101196
100522
100582
100641
100663
100458
100555
100573
100552
100492
100483
100486
100567
100531
100467
100535
100454
100453
100466
100469
100997
100872
100594
100860
101024
101001
100568
100848
100838
100991
101417
101490
101563
101412
101498
101233
101226
101414
101486
101550
101487
101389
101252
101182
100347
100448
100505
100536
100268
100429
100458
100456
100442
100392
100459
100429
100389
100324
100456
100433
100387
100424
100437
100340
100395
100667
101458
101147
101145
100656
100331
100310
100375
100659
100554
100655
100428
100368
100529
100629
100344
100642
100459
100518
100489
100461
100492
100424
100406
100436
100476
100401
100419
100410
100441
100528
100543
100527
100455
100432
100513
100475
100423
100508
100298
100304
100642
101433
101137
101140
100671
100296
100340
100326
100621
100465
100340
100612
100317
100465
100599
100607
100361
100403
100394
100383
100405
100382
100406
100401
100405
100393
100401
100388
100401
100406
100445
100421
100415
100426
100401
100423
100440
100425
100401
101240
101096
101168
101311
101091
101313
101246
101203
101058
101151
101295
101049
101201
101301
101235
101165
101076
101307
101085
101310
101229
100594
100647
100610
100495
100642
100497
100600
100570
100602
100598
100499
100622
100500
100523
101216
101158
101063
101321
101061
101314
101221
100522
100583
100564
100493
100565
100509
100488
100518
100561
100546
100482
100554
100488
100493
100788
100962
100796
100880
100956
100794
100795
100778
100947
100876
100780
100950
100772
100788
100401
100407
100429
100372
100385
100421
100414
100381
100371
100365
100421
100369
100381
100420
100753
100941
100775
100863
100761
100937
100768
100751
100947
100865
100762
100944
100766
100756
100382
100372
100417
100408
100380
100374
100409
100382
100396
100422
100411
100386
100399
100387
100550
100631
100440
100568
100644
100513
100486
100316
100213
100180
100327
100317
100140
100164
100278
100537
100569
100637
100490
100640
100496
100529
100289
100519
100420
100061
100537
100248
100120
100014
99928.5
100070
99901.1
100327
100426
100554
100205
100375
100538
100165
99951.4
99807
99855.6
99897.4
101123
100890
100924
100677
100889
101118
100929
101355
101598
101610
101365
101347
101593
101596
101342
101135
100676
100936
100934
100904
100934
101132
100454
100473
101125
100876
100633
100910
100873
101112
100897
101372
101607
101592
101342
101365
101600
101594
101320
101130
100635
100887
100907
101113
100878
100900
100400
100400
100585
100975
100616
101044
100981
100574
100624
100394
100259
100228
100417
100377
100187
100201
100367
100581
101045
100982
100664
100983
100623
100643
100550
100969
100606
101029
100565
100959
100589
100302
100028
100081
100276
100331
100161
100355
100126
100534
101022
100941
100543
100952
100570
100518
101627
101457
101609
101404
101457
101608
101624
101689
101677
101691
101676
101680
101673
101679
101675
101636
101415
101456
101618
101462
101623
101615
101201
101209
101627
101456
101410
101611
101458
101624
101613
101686
101689
101695
101676
101632
101412
101463
101635
101460
101615
101645
101680
101674
101676
101675
101199
101193
100429
100611
100377
100500
100472
100592
100324
100143
99961.1
100104
100015
100167
100095
100220
100050
100408
100469
100561
100254
100396
100564
100287
100563
100566
100520
100542
100525
100560
100550
100530
100515
100535
100562
100572
100533
100522
100536
100512
100557
100530
100562
100555
100544
100553
100538
100530
100506
100479
100494
100529
100512
100511
100514
100501
100499
100474
100467
100467
100479
100481
100488
100484
100472
100497
100485
100470
100483
100510
100493
100492
100464
100894
101002
100516
100912
100439
100519
100221
99995.2
99990.8
100229
100452
101009
100924
100572
100909
100470
100530
100225
99924.1
99966.2
100196
100379
100871
100524
100994
100388
100868
100518
100152
99955.2
99891.4
100211
100147
99904.9
100163
99882.7
100377
100953
100869
100522
100860
100486
100459
101690
101434
101456
101757
101454
101695
101697
101774
101706
101683
101714
101681
101437
101459
101717
101446
101677
101700
101750
101724
101689
101755
101234
101247
101655
101439
101727
101401
101430
101656
101715
101747
101641
101711
101658
101729
101696
101726
101707
101658
101390
101433
101693
101433
101775
101622
101245
101193
100211
100495
99991.7
100308
100217
100486
99956.2
99813.1
99846.7
99759.8
99889
99849.4
99788.5
99868.9
99759.6
100146
100269
100415
99921.8
100445
99919
100161
100442
100450
100423
100450
100457
100441
100457
100442
100424
100445
100457
100458
100443
100441
100449
100474
100460
100454
100465
100448
100423
100410
100417
100421
100348
100323
100431
100462
100441
100444
100467
100427
100438
100434
100412
100414
100440
100426
100404
100415
100411
100436
100430
100458
100447
100463
100438
100438
100344
100340
101120
100889
100919
100665
101115
100889
100920
101341
101593
101333
101590
101344
101593
101340
101594
101123
100662
100885
100917
101116