/*--------------------------------*- C++ -*----------------------------------*\
| =========                 |                                                 |
| \\      /  F ield         | OpenFOAM: The Open Source CFD Toolbox           |
|  \\    /   O peration     | Version:  4.1                                   |
|   \\  /    A nd           | Web:      www.OpenFOAM.org                      |
|    \\/     M anipulation  |                                                 |
\*---------------------------------------------------------------------------*/
FoamFile
{
    version     2.0;
    format      ascii;
    class       volScalarField;
    location    "41";
    object      omega;
}
// * * * * * * * * * * * * * * * * * * * * * * * * * * * * * * * * * * * * * //

dimensions      [0 0 -1 0 0 0 0];

internalField   nonuniform List<scalar> 
4432
(
0.0110879
0.0114528
0.0117959
0.0121546
0.0124912
0.0128354
0.0131677
0.0134946
0.0138211
0.0141315
0.0144504
0.0147475
0.0150556
0.0153411
0.015633
0.0159036
0.0161721
0.0164198
0.0166574
0.0168698
0.0170717
0.0172486
0.0174536
0.017625
0.0178557
0.0180352
0.0182963
0.0184951
0.0187558
0.0189806
0.0191811
0.0193502
0.0195156
0.019636
0.0198575
0.0201009
0.0207569
0.0216018
0.0222142
0.0225355
0.0232199
0.0238705
0.0244999
0.0249868
0.0255114
0.0260623
0.0270052
0.0275307
0.0282246
0.0286261
0.0296233
0.0302793
0.0354681
0.0605121
0.0110888
0.0114517
0.011802
0.0121601
0.0124938
0.012849
0.0131656
0.0135143
0.0138157
0.0141542
0.0144462
0.0147689
0.0150587
0.015359
0.0156459
0.0159213
0.0161949
0.0164473
0.0166997
0.0169146
0.0171388
0.0173129
0.0175432
0.0177021
0.0179558
0.0181129
0.0184089
0.0185611
0.0188644
0.0190323
0.019287
0.019428
0.0196581
0.0198292
0.0201671
0.020449
0.0207963
0.0210492
0.0215184
0.0221785
0.022977
0.0236415
0.0242029
0.0245002
0.0251212
0.0257071
0.0265401
0.0268914
0.0277412
0.0282448
0.0296515
0.0303365
0.0314591
0.0470546
21.7973
3.3806
1.23123
0.665268
0.437435
0.321033
0.252028
0.206891
0.1752
0.151844
0.13389
0.119744
0.108245
0.0987928
0.0908142
0.0840626
0.0782107
0.0731421
0.0686613
0.0646942
0.0611694
0.0579712
0.055165
0.0525508
0.0503117
0.0481536
0.0463483
0.0445424
0.0430259
0.0414751
0.0401553
0.0387783
0.0376603
0.0364792
0.0355319
0.0345412
0.0336985
0.0329202
0.032139
0.0315115
0.0307939
0.0302141
0.0295323
0.0289879
0.0283986
0.0278172
0.0273135
0.0267761
0.0262915
0.0260745
0.0260472
0.026208
0.0271671
0.0304135
21.7972
3.38074
1.23132
0.665328
0.43748
0.321064
0.252068
0.20692
0.17525
0.151877
0.133952
0.119783
0.108316
0.0988372
0.0908927
0.0841156
0.0782956
0.0732129
0.0687572
0.0647953
0.061274
0.0581083
0.0552754
0.052715
0.0504159
0.0483155
0.0464305
0.0446728
0.0430945
0.0415951
0.0402318
0.0389067
0.037763
0.0366304
0.0356657
0.0347119
0.0338925
0.0330882
0.032373
0.0316594
0.0310311
0.0303535
0.0298278
0.0292322
0.0287463
0.0282843
0.0277857
0.0274897
0.027012
0.0266057
0.0261432
0.0262447
0.0266788
0.0293121
21.7968
3.38077
1.23091
0.665128
0.437483
0.321141
0.252167
0.20704
0.17537
0.152011
0.134083
0.119921
0.108458
0.0989781
0.0910522
0.0842655
0.0784807
0.0733771
0.0689714
0.0649854
0.0615142
0.0583409
0.0555482
0.0529945
0.0507064
0.0486253
0.0467231
0.0450007
0.043399
0.041947
0.0405853
0.039352
0.0381958
0.0371429
0.0361595
0.0352431
0.0343725
0.0335752
0.032788
0.0320729
0.0313252
0.0306682
0.0299844
0.0293857
0.0287134
0.0282184
0.0276377
0.0271748
0.0267554
0.026281
0.0259303
0.0254964
0.025488
0.0257645
21.7967
3.38089
1.23095
0.665153
0.43751
0.321167
0.252199
0.207073
0.17541
0.152056
0.134129
0.119979
0.108504
0.0990508
0.0910985
0.0843502
0.0785314
0.0734683
0.069033
0.0650786
0.0616037
0.0584412
0.055668
0.0531053
0.0508364
0.048741
0.0468442
0.0451128
0.0435216
0.0420581
0.0407413
0.0394684
0.0383957
0.0372696
0.0363907
0.0353902
0.0346166
0.0337433
0.0329905
0.0322157
0.0314576
0.0308039
0.030073
0.0295008
0.0288029
0.0282845
0.0276549
0.0271453
0.0266181
0.0264026
0.0252757
0.0255121
0.0259351
0.0258599
21.797
3.38075
1.23082
0.66505
0.437435
0.321095
0.252144
0.206995
0.175359
0.151962
0.134081
0.119871
0.10846
0.0989333
0.0910606
0.0842324
0.0784898
0.0733495
0.0689557
0.0649652
0.0614884
0.0583521
0.0555343
0.0530374
0.0507037
0.0486697
0.0467312
0.0450424
0.0434426
0.0420224
0.0406702
0.0394869
0.0382969
0.0373259
0.0362563
0.0354169
0.0344443
0.0336402
0.0327637
0.0319556
0.0311673
0.030374
0.0296562
0.0289271
0.0282542
0.0276817
0.0270592
0.0264791
0.0259905
0.025081
0.0248324
0.0237754
0.024135
0.0242165
21.7969
3.38086
1.23087
0.665088
0.437464
0.321125
0.252167
0.207035
0.175384
0.152019
0.134106
0.119945
0.108484
0.0990216
0.0910821
0.0843305
0.0785103
0.0734509
0.0689947
0.065069
0.0615672
0.0584484
0.0556586
0.053118
0.0508542
0.0487538
0.0468714
0.0451417
0.0435467
0.0421195
0.0407538
0.039576
0.0383888
0.0374124
0.0363682
0.0355169
0.0345645
0.0337498
0.0328728
0.0320815
0.0312456
0.0305396
0.0297484
0.0291362
0.028406
0.0278924
0.0272205
0.0267378
0.0261285
0.0256651
0.0249507
0.0242989
0.0253243
0.0250689
21.7971
3.38075
1.23077
0.665008
0.4374
0.321069
0.252107
0.206975
0.175318
0.15195
0.134037
0.119868
0.108413
0.0989409
0.0910093
0.0842488
0.0784299
0.0733649
0.0689071
0.0649761
0.061466
0.0583442
0.0555451
0.0530087
0.0507441
0.0486415
0.0467716
0.0450332
0.043475
0.0420261
0.0407191
0.0394969
0.0383849
0.0373047
0.0363009
0.0352816
0.0343431
0.0333413
0.0324773
0.0315407
0.0307378
0.0299321
0.0292034
0.0285223
0.0278665
0.027276
0.0265824
0.0261011
0.0253923
0.0250766
0.0239699
0.0239036
0.0239727
0.0243347
21.797
3.38087
1.2308
0.665019
0.437419
0.321088
0.252137
0.207
0.175359
0.151982
0.134089
0.119904
0.108479
0.0989744
0.0910905
0.0842695
0.0785297
0.0733771
0.0690293
0.0649983
0.0616064
0.0583853
0.0556835
0.0530662
0.0508673
0.048708
0.0468789
0.0450844
0.0435403
0.0420449
0.0407395
0.0394623
0.0383391
0.0372153
0.0361967
0.0351767
0.0342344
0.0332745
0.0323969
0.0314818
0.0306775
0.0298402
0.0291145
0.0283783
0.0276514
0.0270293
0.0263124
0.0258266
0.0251264
0.0248345
0.0240449
0.0240257
0.0239461
0.0245167
21.7972
3.38079
1.23064
0.664897
0.437337
0.321031
0.252071
0.206954
0.175278
0.151944
0.133986
0.11988
0.108349
0.0989662
0.0909334
0.0842772
0.0783544
0.0733975
0.0688508
0.0650093
0.0614262
0.0583439
0.0554981
0.0529654
0.0507032
0.0485775
0.0467623
0.0449662
0.0434696
0.041979
0.0407157
0.0394716
0.0383635
0.0372792
0.0362682
0.0352729
0.0343332
0.0333602
0.0324682
0.0315187
0.030702
0.0298032
0.029061
0.0281803
0.0275147
0.0267103
0.0261346
0.0255469
0.0251011
0.0246653
0.024433
0.0245579
0.025139
0.02542
21.7971
3.38091
1.2307
0.664937
0.43737
0.32105
0.252107
0.206965
0.175337
0.151944
0.134072
0.119863
0.108464
0.0989325
0.0910708
0.0842313
0.0785026
0.0733558
0.0689965
0.0649944
0.0615577
0.0583893
0.05561
0.0530757
0.05079
0.0487231
0.0468237
0.045094
0.0435169
0.0420464
0.0407363
0.0394365
0.0383302
0.0371566
0.0361421
0.0350745
0.03409
0.0331239
0.0321848
0.0313066
0.0304832
0.0296629
0.0289257
0.0281265
0.0274689
0.0267092
0.0261656
0.0255856
0.0250997
0.0246298
0.0243396
0.0243836
0.0247149
0.0247482
21.7972
3.3808
1.23056
0.664832
0.437295
0.320992
0.252044
0.206909
0.175262
0.151885
0.133983
0.119804
0.10836
0.0988742
0.090956
0.0841742
0.078379
0.0732979
0.0688689
0.0649315
0.0614243
0.0583022
0.0554628
0.0529637
0.0506361
0.0486225
0.0466616
0.045041
0.0433454
0.0420502
0.040581
0.0394996
0.0382234
0.0372535
0.0361207
0.0352055
0.0341771
0.0333026
0.0323382
0.0314913
0.0306132
0.0297674
0.0289872
0.0281024
0.0274366
0.0266244
0.0261503
0.0256109
0.0252234
0.0248413
0.0246361
0.0241069
0.0247765
0.0246281
21.7971
3.38093
1.23063
0.664875
0.437324
0.321019
0.252067
0.206941
0.175287
0.15193
0.134007
0.119865
0.108377
0.0989532
0.0909605
0.0842691
0.0783773
0.0733993
0.0688766
0.0650319
0.0614588
0.058402
0.055533
0.0530665
0.0507318
0.0487166
0.0467778
0.0451059
0.0434768
0.0420694
0.0406847
0.0394666
0.0382717
0.0371543
0.0361248
0.0350534
0.0341283
0.033137
0.0322428
0.0313392
0.0304918
0.0296592
0.0288405
0.0280351
0.0273687
0.0265906
0.0261657
0.0255738
0.0252688
0.0246817
0.02422
0.0238703
0.0242049
0.0242166
21.7973
3.38086
1.23046
0.664746
0.437241
0.320956
0.252005
0.20688
0.17522
0.151856
0.133941
0.119771
0.108319
0.0988379
0.0909139
0.0841342
0.0783385
0.0732529
0.0688422
0.0648751
0.0614268
0.0582176
0.0554812
0.0528539
0.0506654
0.0485146
0.0467164
0.0449374
0.0434322
0.0419377
0.0406744
0.0393926
0.0382899
0.0371745
0.0361238
0.0351322
0.0341196
0.0332124
0.0322367
0.0313622
0.0305226
0.0296015
0.0289278
0.0280629
0.0273933
0.026663
0.0261381
0.0257165
0.0251221
0.0248497
0.0242442
0.0242929
0.0241847
0.0247399
21.7972
3.38099
1.23055
0.6648
0.437273
0.320981
0.252026
0.206907
0.175244
0.151893
0.133966
0.119819
0.108341
0.0988975
0.0909264
0.0842104
0.0783346
0.0733529
0.0688204
0.0650008
0.061396
0.058378
0.0554758
0.0530369
0.0506981
0.0486827
0.0467735
0.0450774
0.0434773
0.0420516
0.0406749
0.0394602
0.0382328
0.0371372
0.036028
0.0349869
0.033974
0.0329893
0.0320089
0.0311124
0.0301662
0.029364
0.0284723
0.0277671
0.0270051
0.0264762
0.0259535
0.0255486
0.0251058
0.0245233
0.0241723
0.0235524
0.0235763
0.0238831
21.7974
3.38088
1.23039
0.664684
0.437195
0.320918
0.251964
0.206843
0.175175
0.151818
0.13389
0.11973
0.108263
0.0987903
0.0908564
0.0840789
0.0782834
0.0731932
0.0687973
0.0648303
0.0614008
0.0581917
0.0554585
0.0528348
0.0506286
0.0485157
0.0466527
0.0449493
0.043357
0.0419173
0.040609
0.039334
0.0382276
0.0371257
0.0360561
0.0351215
0.0340492
0.0331661
0.0321356
0.0312359
0.0303731
0.0294167
0.0287424
0.0278397
0.0272577
0.0265859
0.0260068
0.025623
0.0250693
0.0250025
0.0253719
0.025587
0.0274427
0.027729
21.7973
3.38101
1.23046
0.664728
0.43722
0.320944
0.251981
0.206876
0.175191
0.151864
0.133903
0.11979
0.108271
0.0988629
0.0908577
0.0841614
0.0782803
0.0732873
0.0687883
0.0649358
0.0613784
0.0583258
0.0554483
0.0529984
0.0506514
0.0486761
0.0467104
0.0450894
0.0434069
0.042046
0.0405959
0.0394377
0.0381467
0.0371379
0.0359852
0.0350036
0.0339843
0.0330269
0.0320382
0.0311287
0.0301512
0.0292736
0.0283984
0.0276204
0.0268686
0.0263196
0.0258214
0.0252289
0.0249518
0.024357
0.024307
0.024142
0.0250005
0.0252241
21.7974
3.38094
1.23028
0.664594
0.437141
0.320874
0.251929
0.206799
0.17514
0.151769
0.133849
0.119679
0.108212
0.0987416
0.090793
0.0840335
0.0782129
0.0731601
0.0687347
0.0648145
0.0613497
0.0581798
0.0554172
0.0527768
0.0506251
0.0484489
0.0466707
0.0449016
0.0433502
0.0419278
0.0405805
0.0393815
0.0382212
0.0370928
0.0360596
0.0349537
0.03395
0.0328887
0.0318871
0.0309569
0.0300548
0.029157
0.0283978
0.0275928
0.0269645
0.0264489
0.0258801
0.025782
0.0260883
0.0268811
0.0283618
0.029324
0.0303102
0.0316193
21.7974
3.38108
1.23039
0.664658
0.437174
0.3209
0.251945
0.206826
0.175157
0.151804
0.133871
0.119718
0.108239
0.09878
0.0908233
0.0840692
0.0782454
0.0731875
0.0687667
0.0648228
0.0613772
0.0581814
0.0554744
0.0528414
0.0507281
0.0485617
0.0468249
0.0450062
0.0435312
0.0419704
0.0407198
0.0393618
0.0382532
0.0370468
0.0360367
0.0348835
0.0339291
0.0328659
0.0318842
0.0309862
0.0300418
0.0291691
0.0283416
0.0275775
0.0268638
0.0263415
0.0258152
0.0252344
0.0250875
0.0252298
0.025684
0.0262329
0.0271481
0.0283419
21.7975
3.38095
1.23025
0.664555
0.437107
0.320834
0.251895
0.206749
0.175105
0.151708
0.133815
0.119606
0.108176
0.0986546
0.0907506
0.083936
0.0781551
0.0730594
0.0686466
0.0647313
0.0612451
0.0581487
0.0553127
0.0528552
0.0506245
0.0486518
0.0467827
0.045121
0.04351
0.0421252
0.040749
0.0395316
0.0383295
0.0372031
0.0361071
0.0349728
0.0340358
0.0329068
0.0320014
0.0310439
0.0301935
0.0294376
0.0286753
0.0283369
0.0278943
0.0282555
0.0282548
0.0288236
0.0300939
0.0323819
0.0341624
0.0349161
0.0363015
0.0360084
21.7974
3.38108
1.23033
0.664599
0.437132
0.320855
0.251913
0.206772
0.175127
0.151735
0.133845
0.119632
0.108217
0.0986736
0.0908042
0.0839448
0.078219
0.0730594
0.0687097
0.0647145
0.0612906
0.0581308
0.0553791
0.0528801
0.0507192
0.0486977
0.0468831
0.0451841
0.0435758
0.0421553
0.0407677
0.0394724
0.0382883
0.0370244
0.0360247
0.034794
0.0339289
0.0327657
0.0319583
0.0309039
0.0301658
0.0292072
0.0285599
0.0277847
0.0272848
0.0267129
0.0265351
0.0264228
0.0266327
0.0273054
0.0279447
0.0295353
0.0306336
0.0338203
21.7976
3.38102
1.23017
0.664478
0.437051
0.320798
0.251848
0.206719
0.175049
0.151679
0.133747
0.119574
0.108096
0.0986183
0.090656
0.0838907
0.0780432
0.0729925
0.0685261
0.064647
0.0611222
0.0580973
0.0552517
0.052954
0.0508808
0.0490991
0.0472775
0.0457436
0.0440271
0.0428045
0.0412751
0.0401706
0.0388198
0.0377991
0.0366744
0.0357179
0.0348736
0.03391
0.0338986
0.0336088
0.0336538
0.0337476
0.0337567
0.0361415
0.0360415
0.0366788
0.0373455
0.0387404
0.0393411
0.0401124
0.0397077
0.0386239
0.0382409
0.0363563
21.7975
3.38115
1.23026
0.664536
0.437083
0.32082
0.251865
0.206742
0.175064
0.151712
0.133762
0.119617
0.108112
0.098661
0.0906786
0.0839228
0.0780769
0.0730113
0.0685573
0.0646479
0.0611316
0.0580672
0.0552754
0.0529188
0.0509155
0.049036
0.0473131
0.0455972
0.0440344
0.042548
0.041172
0.0398536
0.0385972
0.03744
0.0362638
0.0353271
0.0342135
0.033413
0.0325868
0.031889
0.031158
0.0313493
0.031433
0.0315829
0.0319451
0.0323687
0.03205
0.0326693
0.0341376
0.0349982
0.0364294
0.0371704
0.0379777
0.0381662
21.7976
3.38103
1.23014
0.664446
0.437025
0.320762
0.251819
0.206673
0.175016
0.151625
0.13371
0.11951
0.108056
0.0985383
0.0906099
0.0837898
0.0779777
0.0728719
0.0684036
0.0645197
0.0608981
0.0581419
0.0549823
0.0537023
0.051984
0.0519264
0.0512102
0.0512777
0.0498721
0.0510098
0.0508907
0.0493418
0.0501048
0.0500611
0.0502045
0.0499487
0.0498916
0.0519241
0.0525549
0.052769
0.053002
0.0545559
0.0539232
0.0527953
0.0510878
0.0489983
0.0467616
0.0447547
0.0427662
0.0410746
0.0392103
0.0376555
0.0360157
0.0350746
21.7976
3.38116
1.23022
0.664496
0.437048
0.320785
0.251828
0.206701
0.175025
0.151663
0.133718
0.119559
0.108058
0.098599
0.0906031
0.0838606
0.0779621
0.0729525
0.0683757
0.0646081
0.060839
0.0581704
0.0549556
0.0536719
0.0517693
0.0514845
0.0503435
0.0484681
0.0474919
0.0460081
0.044926
0.0436664
0.0422798
0.0419411
0.0422527
0.0425554
0.0430529
0.0438139
0.0445198
0.0447278
0.0457576
0.0454138
0.0479551
0.0480914
0.0484186
0.0465629
0.0471137
0.0462783
0.0450751
0.0434687
0.0418045
0.0405371
0.0377767
0.0368868
21.7977
3.38111
1.23009
0.664388
0.43699
0.320721
0.2518
0.206617
0.175011
0.151543
0.133724
0.119393
0.108096
0.0983707
0.0906896
0.083545
0.0781146
0.0725032
0.0686203
0.0639497
0.0612728
0.0572405
0.0561103
0.0557525
0.0645788
0.117455
0.119334
0.120293
0.119237
0.116276
0.113612
0.110154
0.106147
0.102016
0.0976508
0.0929881
0.0879505
0.0826186
0.0769984
0.0713147
0.0657309
0.0603419
0.0554404
0.0512771
0.0480102
0.0450009
0.0428687
0.0407116
0.0398539
0.0380878
0.0374898
0.0364877
0.0350763
0.0345678
21.7977
3.38123
1.2302
0.664463
0.437026
0.320744
0.251814
0.206639
0.175024
0.151572
0.13374
0.119428
0.108114
0.09841
0.0907059
0.0835929
0.0781197
0.0725683
0.0686066
0.0640232
0.061196
0.0574082
0.0557615
0.0552075
0.0610055
0.0975373
0.0937914
0.0995386
0.101616
0.101323
0.10083
0.0976564
0.0974776
0.09793
0.0963271
0.0937964
0.0902213
0.0855785
0.0811612
0.0760257
0.0705589
0.0651962
0.0602816
0.0559826
0.0527192
0.0499279
0.0471167
0.0447847
0.0425643
0.0404483
0.0380427
0.0377182
0.0347786
0.0349486
21.7978
3.38112
1.23009
0.66438
0.436974
0.320692
0.251782
0.206576
0.174997
0.151488
0.133717
0.119322
0.108093
0.0982887
0.0906775
0.0834675
0.0780592
0.0724577
0.0684842
0.0638806
0.0612102
0.0569483
0.056581
0.0699593
0.226039
0.342848
0.120793
0.111327
0.0822628
0.0714261
0.0638818
0.0594713
0.0572561
0.0565681
0.0562383
0.0557592
0.0550503
0.0541521
0.0530804
0.0517187
0.0506029
0.0486744
0.0472238
0.0455771
0.0435265
0.0421678
0.0401081
0.0383454
0.036986
0.0334832
0.0334895
0.0324507
0.0333399
0.031906
21.7977
3.38124
1.2302
0.664443
0.437008
0.32071
0.251801
0.206587
0.175022
0.151499
0.13375
0.119333
0.108135
0.0982961
0.0907278
0.083464
0.0781351
0.0724034
0.0686671
0.0636483
0.0616236
0.0562727
0.057226
0.0686078
0.227543
0.321911
0.180167
0.131319
0.100776
0.0853047
0.0744211
0.0678591
0.0646522
0.0630911
0.061465
0.0598126
0.0578764
0.0559719
0.0540458
0.0524129
0.0505834
0.0488921
0.047138
0.0453374
0.043786
0.041518
0.0394508
0.0376041
0.0353666
0.0346916
0.0315639
0.0317843
0.0315963
0.0318153
21.7979
3.3812
1.23009
0.664362
0.436957
0.320671
0.251763
0.206547
0.174977
0.151455
0.133696
0.119285
0.108071
0.0982474
0.0906582
0.0834113
0.0780669
0.0723278
0.0686296
0.0635135
0.0617011
0.0561286
0.0596124
0.112933
0.222312
0.201868
0.15842
0.139985
0.127551
0.11871
0.111501
0.104658
0.0983005
0.0915143
0.085139
0.078524
0.0722414
0.0661964
0.0601526
0.0549965
0.0497128
0.0457436
0.0417411
0.0379873
0.0348116
0.0323702
0.0304985
0.0293494
0.0277617
0.029118
0.0313833
0.0298465
0.0305897
21.7978
3.38133
1.23022
0.66444
0.436995
0.320693
0.251777
0.206564
0.174993
0.151474
0.133718
0.119305
0.108104
0.0982582
0.0907092
0.0834021
0.0781395
0.0723274
0.0686168
0.0637972
0.0609674
0.0571203
0.0566129
0.124616
0.178361
0.182823
0.154369
0.133135
0.12061
0.112697
0.106909
0.101178
0.0958867
0.0895574
0.083758
0.0775179
0.0717562
0.0660305
0.0608483
0.055552
0.0511147
0.0465858
0.0430434
0.0392992
0.0363435
0.0332227
0.02989
0.0298315
0.0270983
0.0276226
0.0299755
0.0296943
0.0306538
21.7979
3.38122
1.23014
0.66439
0.436948
0.320681
0.251715
0.206576
0.174898
0.15151
0.133588
0.119367
0.10794
0.0983531
0.0905084
0.0835441
0.0778915
0.0725298
0.0683305
0.0640211
0.0608711
0.0574352
0.0556632
0.058343
0.0997602
0.0997862
0.0883791
0.0816913
0.0749809
0.0690746
0.063681
0.0586014
0.0538883
0.0495562
0.0455207
0.042178
0.0390236
0.036573
0.0341442
0.0322737
0.030548
0.0291496
0.0281835
0.0271423
0.0265441
0.0262689
0.0255047
0.026507
0.0254836
0.0256371
0.0262944
0.0266497
0.0268981
0.0277733
21.7979
3.38134
1.23026
0.664462
0.436981
0.320704
0.251724
0.2066
0.174901
0.151546
0.133586
0.119415
0.107934
0.0984068
0.090505
0.0835913
0.0779046
0.0725568
0.0683796
0.0640042
0.060964
0.0573389
0.0556753
0.058009
0.0869287
0.0844387
0.0774809
0.0748238
0.0709344
0.0667138
0.0624972
0.0581943
0.0538639
0.0501403
0.0461793
0.0433054
0.0401274
0.0378714
0.0354384
0.0334945
0.0318493
0.0300519
0.0289824
0.0278612
0.0271488
0.0265224
0.0263026
0.0251607
0.0250855
0.0251314
0.0260614
0.0266248
0.0269448
0.0275243
21.798
3.3813
1.23019
0.66441
0.43695
0.320674
0.251704
0.206566
0.174879
0.151511
0.133557
0.119387
0.10789
0.0983996
0.0904406
0.0836225
0.0778078
0.0726545
0.068227
0.0642074
0.0607283
0.0576215
0.0549353
0.0529884
0.0519022
0.0509117
0.0490208
0.0469688
0.0450608
0.0432603
0.0415516
0.04
0.0385156
0.0370998
0.0357726
0.03447
0.0332336
0.0320832
0.0310202
0.0299556
0.028761
0.0279248
0.0271598
0.0261564
0.0259258
0.0255121
0.0252611
0.0249635
0.024752
0.025557
0.0261929
0.0262067
0.0265819
0.0274953
21.798
3.38142
1.23036
0.664519
0.437005
0.320692
0.251731
0.206565
0.174917
0.1515
0.133609
0.119371
0.107949
0.0983877
0.0904924
0.0836268
0.0778444
0.0726842
0.0682462
0.0642727
0.0607197
0.0577289
0.0548951
0.0531303
0.0517168
0.0507222
0.0488511
0.0470079
0.045133
0.0433931
0.041808
0.0402501
0.0388541
0.0375321
0.0361539
0.0350592
0.0336828
0.0327564
0.0315416
0.0307039
0.0296695
0.028698
0.0279966
0.0271036
0.02671
0.0259628
0.0257695
0.0248849
0.0245512
0.0249343
0.0260283
0.0265846
0.0261034
0.0260009
21.7981
3.38132
1.23027
0.66446
0.43697
0.320672
0.251705
0.206555
0.174879
0.151502
0.133552
0.119391
0.107877
0.0984236
0.0904219
0.0836662
0.0778007
0.0727129
0.068259
0.0642802
0.0608123
0.0576449
0.0549475
0.0525214
0.0505529
0.0486947
0.0469533
0.0451488
0.0435194
0.0419032
0.0403742
0.0390149
0.037591
0.0363816
0.035115
0.0339482
0.0328129
0.0316615
0.0307199
0.0296241
0.0284714
0.0277574
0.026948
0.0264757
0.02593
0.0255322
0.0251218
0.0248956
0.0245831
0.0245227
0.0249368
0.0249308
0.0259141
0.0264874
21.798
3.38144
1.2304
0.664536
0.437005
0.320694
0.251715
0.206573
0.174888
0.151523
0.133566
0.119413
0.107894
0.0984505
0.0904343
0.0837051
0.0778023
0.0727737
0.0682454
0.0643704
0.060785
0.0577734
0.0549262
0.0526706
0.0505645
0.0488297
0.0469715
0.0453398
0.0435955
0.0421367
0.0405832
0.0392647
0.0379055
0.0367282
0.0354295
0.0344237
0.0331475
0.0322564
0.0311857
0.0303141
0.0294534
0.0286032
0.0277891
0.0269463
0.0264659
0.0254646
0.0251175
0.0246592
0.0245337
0.0241496
0.0240024
0.0241946
0.0246601
0.0248066
21.7981
3.38141
1.23037
0.664514
0.436989
0.320682
0.251699
0.206563
0.174866
0.151515
0.133536
0.119414
0.107858
0.0984641
0.0903942
0.0837346
0.077765
0.0728161
0.0682279
0.0644157
0.0608069
0.057805
0.0549393
0.0525572
0.0503415
0.0483843
0.0465822
0.0448139
0.0432093
0.0416318
0.0401478
0.0388349
0.0374453
0.0362877
0.0350653
0.0339073
0.0328186
0.0316831
0.03072
0.0296754
0.0287904
0.0278688
0.0272459
0.026605
0.0259661
0.0257574
0.0251928
0.024523
0.0241807
0.0250018
0.0239524
0.0242754
0.0253484
0.025149
21.7981
3.38152
1.23048
0.664586
0.437026
0.320697
0.251718
0.206565
0.174895
0.151509
0.133584
0.119391
0.10793
0.0984191
0.0904939
0.0836708
0.0778863
0.0727496
0.0683579
0.0643653
0.0609332
0.057784
0.0550593
0.0525732
0.0504438
0.0484483
0.0466592
0.0449415
0.0432763
0.0418002
0.0402841
0.0390018
0.0376662
0.036515
0.0352763
0.0343307
0.0330406
0.0322724
0.0311187
0.0303517
0.0293498
0.0284269
0.0275639
0.0268899
0.026303
0.0256833
0.0252294
0.0245727
0.0245647
0.0240455
0.0244058
0.0249791
0.0250808
0.0251465
21.7982
3.38143
1.23046
0.664578
0.437018
0.320689
0.251709
0.206556
0.17488
0.151505
0.133558
0.119402
0.10789
0.0984537
0.090439
0.0837298
0.0778256
0.0728256
0.0683071
0.0644482
0.0609055
0.0578501
0.0550229
0.0525877
0.0502907
0.0483416
0.0464007
0.0447222
0.0430388
0.041537
0.0400663
0.0387646
0.0374427
0.0362466
0.0351389
0.0339074
0.0329433
0.031767
0.0309505
0.0299667
0.0290525
0.0282002
0.0274507
0.0267878
0.0260052
0.0253781
0.0250247
0.0242756
0.0242241
0.0239168
0.0241024
0.0249931
0.0241957
0.0246732
21.7982
3.38154
1.23057
0.664644
0.437048
0.320709
0.251716
0.206576
0.174884
0.15153
0.133562
0.119432
0.107896
0.0984856
0.0904474
0.0837651
0.0778394
0.0728669
0.0683304
0.0644961
0.0609417
0.0579003
0.0550864
0.0526399
0.0503768
0.0483933
0.046502
0.0447851
0.0431497
0.0416226
0.0401958
0.0388648
0.0375887
0.0364022
0.0352935
0.0342352
0.0331131
0.0322372
0.03113
0.030266
0.0293305
0.0283999
0.0276333
0.0268648
0.0264238
0.0257643
0.0252441
0.0246117
0.0244101
0.0237812
0.0238806
0.0241917
0.0242574
0.0257429
21.7983
3.38151
1.23057
0.66464
0.437044
0.320703
0.251711
0.206567
0.174879
0.151518
0.133559
0.119417
0.107898
0.0984693
0.0904594
0.0837447
0.0778651
0.0728416
0.0683694
0.0644723
0.0609783
0.0578934
0.0550867
0.0526101
0.05031
0.0482817
0.0463712
0.0445998
0.0430181
0.0413786
0.0400689
0.0385785
0.0374537
0.0361589
0.035138
0.0339904
0.0330128
0.0320605
0.0311339
0.0302486
0.0293529
0.0284981
0.0277775
0.0269204
0.0263368
0.0256116
0.0251246
0.024605
0.0245122
0.0244179
0.0242644
0.0245804
0.024148
0.0254622
21.7982
3.38161
1.23068
0.66471
0.437079
0.320719
0.251727
0.206573
0.174901
0.151519
0.133592
0.119413
0.107939
0.098465
0.0905007
0.0837544
0.0778968
0.0728802
0.0683854
0.0645432
0.0609848
0.057983
0.055095
0.0527016
0.0503444
0.048368
0.046413
0.04472
0.0430492
0.0415496
0.0401202
0.0387647
0.0375299
0.036334
0.0352366
0.0341349
0.0331743
0.0321099
0.0312733
0.0302575
0.0294839
0.0285896
0.0279358
0.0270466
0.0265283
0.0257172
0.0253426
0.0248288
0.0244577
0.0245724
0.0245323
0.0243897
0.0246779
0.0276653
21.7983
3.38153
1.23066
0.664704
0.437077
0.320713
0.251727
0.206563
0.174902
0.151505
0.133596
0.119396
0.10795
0.098444
0.0905199
0.0837297
0.0779226
0.0728524
0.0684165
0.0645077
0.0610234
0.0579191
0.0551326
0.0525948
0.0503446
0.048203
0.0463748
0.0445069
0.0429896
0.0413109
0.0400342
0.0385176
0.0374439
0.0360985
0.0351622
0.0339574
0.0330953
0.0320373
0.0312183
0.0302486
0.0293828
0.0285294
0.0277233
0.0269512
0.0263334
0.0256984
0.0253027
0.0251934
0.0250633
0.0249028
0.0248031
0.0247031
0.0253478
0.0292123
21.7983
3.38162
1.23076
0.664768
0.437106
0.320733
0.251734
0.206582
0.174905
0.15153
0.1336
0.119423
0.107956
0.0984714
0.0905323
0.0837585
0.0779444
0.0728853
0.0684511
0.0645426
0.0610726
0.0579515
0.0551995
0.0526351
0.0504141
0.0482755
0.046428
0.044615
0.0430286
0.0414566
0.040085
0.0386787
0.0375074
0.0362304
0.035222
0.0340683
0.0331611
0.03213
0.0312389
0.0303447
0.0294835
0.0287254
0.027912
0.0272533
0.0265612
0.0261002
0.0258625
0.0253445
0.0252553
0.0252024
0.0252013
0.0255371
0.0270399
0.034636
21.7984
3.38159
1.23077
0.664777
0.437112
0.320731
0.251738
0.206573
0.174909
0.151517
0.133603
0.119413
0.107955
0.0984665
0.0905275
0.0837566
0.0779367
0.0728805
0.0684399
0.0645313
0.0610493
0.0579372
0.0551553
0.0526016
0.0503375
0.0482118
0.0463175
0.0445247
0.0428953
0.0413598
0.0399303
0.0385923
0.0373498
0.0361523
0.0350919
0.0339862
0.0330778
0.0320499
0.0311972
0.030272
0.0294457
0.0286428
0.0279009
0.0274271
0.0268627
0.0266346
0.0263255
0.0261463
0.0256852
0.0255731
0.0263252
0.0268381
0.0300743
0.0408913
21.7983
3.38168
1.23087
0.664839
0.43714
0.320751
0.251743
0.206595
0.174908
0.151546
0.133599
0.119446
0.107956
0.0984957
0.0905427
0.0837758
0.0779743
0.0728941
0.0684924
0.0645564
0.0610963
0.0579927
0.0551807
0.0526877
0.0503609
0.0483102
0.046348
0.0446301
0.0429261
0.0414802
0.0399572
0.0387321
0.0373693
0.0363026
0.0350921
0.0341444
0.0330816
0.0322137
0.0312641
0.0304375
0.0296399
0.0288848
0.0282283
0.0275243
0.0270757
0.0265394
0.0261673
0.025542
0.0255552
0.0259017
0.0264156
0.0279153
0.0343984
0.0516233
21.7984
3.3816
1.23085
0.664834
0.437137
0.320751
0.251742
0.206593
0.174905
0.151544
0.133593
0.119445
0.107947
0.0984948
0.0905339
0.0837699
0.0779685
0.0728737
0.0684934
0.06451
0.0611084
0.0579081
0.0551969
0.0525724
0.050357
0.0481719
0.0463143
0.0444797
0.0428729
0.0413255
0.039897
0.0385789
0.0372985
0.0361529
0.0350276
0.0340142
0.0330499
0.0321581
0.0313506
0.0305579
0.0298914
0.02922
0.0286778
0.028215
0.0277482
0.0272637
0.0266096
0.0264678
0.026516
0.0269386
0.0319132
0.0340834
0.0462988
0.0702515
21.7983
3.38169
1.23095
0.664895
0.437168
0.320765
0.251756
0.2066
0.174923
0.15155
0.133615
0.119451
0.107969
0.0985093
0.0905493
0.0838036
0.0779729
0.0729323
0.0684895
0.0645903
0.0611016
0.0580035
0.0551918
0.0526853
0.0503511
0.0483007
0.046316
0.0446071
0.0428922
0.0414332
0.039934
0.0386728
0.0373667
0.0362486
0.0351157
0.0341283
0.0331216
0.0322108
0.0313252
0.030537
0.0297424
0.0291384
0.0283909
0.0277196
0.0271789
0.026487
0.0263194
0.0255576
0.0260058
0.0265114
0.0293152
0.0343789
0.0580232
0.0821609
21.7984
3.38164
1.23095
0.664898
0.437171
0.320766
0.251757
0.206598
0.174923
0.151543
0.133615
0.119439
0.107972
0.0984923
0.090555
0.0837795
0.0779773
0.0729002
0.0684859
0.0645493
0.0610833
0.0579545
0.0551608
0.0526164
0.0503129
0.048206
0.046269
0.0444894
0.0428369
0.0413064
0.0398764
0.0385429
0.0372997
0.036128
0.0350582
0.0340282
0.0331179
0.0322301
0.0314417
0.03069
0.0300303
0.0293505
0.0287794
0.0282704
0.0277952
0.0272747
0.0270758
0.0275162
0.0294694
0.0329287
0.0455037
0.0568326
0.0863416
0.11574
21.7984
3.38172
1.23104
0.664957
0.437199
0.320782
0.251768
0.206611
0.174932
0.151559
0.133625
0.11946
0.107982
0.0985186
0.0905647
0.0838141
0.07799
0.0729442
0.0685057
0.0646012
0.0611134
0.0580121
0.0551985
0.0526783
0.0503596
0.0482746
0.0463133
0.0445747
0.0428636
0.0414129
0.0398816
0.0386591
0.0373124
0.0362181
0.0351028
0.0341396
0.033093
0.0321816
0.0312733
0.0305155
0.0296581
0.0291774
0.0282389
0.0275431
0.0268707
0.0264928
0.0263641
0.0264921
0.02815
0.0294609
0.0384766
0.0581268
0.0926396
0.118812
21.7983
3.38164
1.23099
0.664931
0.437189
0.320776
0.251766
0.206606
0.17493
0.151551
0.133622
0.119449
0.107978
0.0985059
0.090559
0.0837981
0.0779784
0.0729227
0.0684835
0.0645706
0.0610784
0.057968
0.0551508
0.0526208
0.0503017
0.0481945
0.0462539
0.0444632
0.042815
0.0412678
0.0398471
0.0384975
0.0372586
0.0360853
0.0350018
0.0339928
0.0330534
0.0322109
0.0313576
0.0306682
0.0299012
0.0292013
0.028735
0.0277556
0.027641
0.0276013
0.0294125
0.0312571
0.0415951
0.0580971
0.0811141
0.0954348
0.123152
0.174522
21.7983
3.38172
1.23108
0.664986
0.437215
0.320791
0.251778
0.206618
0.174942
0.151566
0.133635
0.119466
0.107992
0.0985248
0.0905766
0.0838207
0.0780031
0.0729501
0.0685185
0.0646036
0.0611248
0.0580059
0.0552066
0.0526668
0.0503601
0.0482532
0.0463103
0.0445359
0.0428652
0.0413538
0.0398925
0.0385944
0.0373046
0.0361891
0.0350544
0.0341017
0.0330896
0.0322947
0.0313691
0.0307196
0.0299069
0.0294036
0.0286087
0.0283488
0.0277693
0.0279476
0.0290463
0.0306957
0.0354543
0.0423136
0.0638143
0.092414
0.123531
0.181279
21.7982
3.38172
1.23108
0.664992
0.437234
0.320814
0.251799
0.206636
0.174959
0.151578
0.133649
0.119473
0.108005
0.098527
0.0905854
0.0838165
0.0780043
0.0729378
0.0685067
0.0645819
0.0610953
0.0579762
0.0551629
0.052628
0.0503064
0.0482027
0.0462493
0.044463
0.0428004
0.0412554
0.0398242
0.0384716
0.037229
0.0360378
0.0349647
0.0339099
0.0330075
0.0320295
0.0313632
0.0303767
0.0296322
0.0286812
0.0292191
0.0287837
0.0320117
0.0344371
0.0421199
0.0517943
0.0743108
0.0893476
0.110707
0.114601
0.146419
0.238201
21.7982
3.3818
1.23117
0.665052
0.437265
0.320832
0.251813
0.206649
0.174972
0.151591
0.133663
0.119487
0.10802
0.0985416
0.0906039
0.0838336
0.0780295
0.0729596
0.0685414
0.0646101
0.0611406
0.0580114
0.0552153
0.0526698
0.0503627
0.0482514
0.0463031
0.044526
0.0428454
0.0413358
0.0398552
0.0385703
0.0372448
0.0361529
0.0349719
0.0340299
0.033011
0.0321749
0.0312935
0.0306172
0.0298023
0.0294399
0.0291201
0.0295567
0.0304302
0.033453
0.0377081
0.0442098
0.053438
0.066844
0.0916752
0.107173
0.136737
0.228899
21.7991
3.38195
1.23135
0.664997
0.43702
0.320482
0.251422
0.206241
0.174572
0.151201
0.133287
0.119133
0.10769
0.0982389
0.0903223
0.0835655
0.0777676
0.0727045
0.0682824
0.064351