/*--------------------------------*- C++ -*----------------------------------*\
| =========                 |                                                 |
| \\      /  F ield         | OpenFOAM: The Open Source CFD Toolbox           |
|  \\    /   O peration     | Version:  4.1                                   |
|   \\  /    A nd           | Web:      www.OpenFOAM.org                      |
|    \\/     M anipulation  |                                                 |
\*---------------------------------------------------------------------------*/
FoamFile
{
    version     2.0;
    format      ascii;
    class       volScalarField;
    location    "41";
    object      p;
}
// * * * * * * * * * * * * * * * * * * * * * * * * * * * * * * * * * * * * * //

dimensions      [0 2 -2 0 0 0 0];

internalField   nonuniform List<scalar> 
4432
(
100761
100762
100761
100762
100765
100770
100776
100782
100787
100791
100796
100802
100810
100819
100830
100841
100850
100855
100858
100865
100881
100901
100924
100953
100980
101007
101033
101056
101074
101087
101094
101096
101096
101086
101066
101023
100966
100996
101026
101018
100982
100933
100912
100889
100848
100851
100680
100534
100606
100763
100707
100436
99554.8
99187.6
100761
100762
100761
100762
100765
100771
100776
100782
100787
100791
100796
100802
100810
100819
100830
100841
100849
100855
100858
100864
100881
100904
100927
100952
100981
101010
101035
101054
101073
101090
101098
101097
101094
101076
101052
101030
101018
101003
100990
100987
100975
100954
100930
100874
100791
100835
100752
100585
100623
100722
100688
100569
99578.9
99147.1
100760
100760
100759
100759
100763
100768
100774
100780
100785
100790
100795
100801
100808
100818
100829
100844
100862
100882
100898
100907
100921
100941
100962
100980
100998
101017
101037
101059
101080
101098
101108
101108
101094
101067
101030
100990
100983
100989
100992
100986
100948
100910
100897
100886
100853
100807
100728
100617
100640
100714
100867
100820
98734.1
100102
100760
100760
100759
100759
100763
100768
100774
100780
100785
100789
100794
100800
100808
100817
100829
100844
100862
100882
100899
100908
100921
100940
100960
100977
100995
101014
101034
101056
101078
101096
101104
101101
101089
101070
101041
101006
100987
100977
100976
100973
100958
100929
100913
100908
100866
100823
100753
100640
100665
100735
100805
100983
98815.7
100112
100758
100758
100757
100758
100762
100767
100773
100779
100784
100788
100793
100799
100806
100815
100826
100840
100856
100872
100891
100905
100922
100942
100960
100976
100994
101014
101037
101061
101087
101112
101127
101127
101115
101083
101031
100981
100970
100982
100989
100984
100956
100920
100920
100910
100874
100806
100762
100693
100670
100585
100426
100101
99760.9
100918
100758
100758
100757
100758
100762
100767
100773
100779
100784
100788
100793
100798
100806
100815
100826
100840
100856
100872
100892
100905
100922
100941
100959
100974
100991
101011
101034
101059
101085
101111
101126
101123
101106
101075
101036
101000
100989
100989
100980
100967
100949
100926
100925
100927
100889
100825
100756
100696
100654
100564
100457
100191
99687.2
100908
100756
100756
100755
100756
100759
100764
100770
100775
100780
100785
100790
100795
100802
100811
100821
100834
100848
100867
100888
100902
100918
100937
100954
100970
100989
101013
101039
101066
101098
101129
101145
101148
101144
101099
101017
100930
100901
100932
100958
100989
100982
100929
100929
100926
100898
100848
100830
100756
100716
100678
100561
100371
100149
100313
100756
100756
100755
100756
100759
100764
100770
100775
100780
100785
100789
100795
100802
100810
100821
100834
100849
100867
100889
100902
100918
100937
100953
100969
100988
101012
101038
101066
101100
101131
101146
101148
101140
101095
101023
100965
100954
100961
100962
100951
100958
100942
100940
100925
100901
100854
100803
100761
100703
100691
100589
100508
100021
100253
100753
100753
100752
100753
100756
100761
100767
100772
100777
100781
100786
100791
100797
100806
100816
100828
100844
100861
100881
100895
100909
100927
100944
100962
100984
101011
101041
101071
101107
101138
101151
101158
101154
101126
101133
100889
100884
100910
100931
100982
101002
100963
100946
100947
100959
100950
100856
100743
100693
100706
100761
100484
100063
100938
100753
100753
100752
100753
100756
100761
100767
100772
100777
100781
100785
100790
100797
100806
100816
100829
100844
100861
100882
100896
100909
100926
100945
100962
100985
101012
101040
101072
101110
101142
101153
101154
101146
101107
101041
100960
100925
100930
100940
100947
100990
100986
100965
100944
100928
100894
100838
100780
100731
100730
100716
100700
100025
100768
100749
100749
100748
100749
100752
100757
100762
100767
100772
100776
100780
100785
100791
100800
100810
100822
100837
100852
100869
100885
100900
100914
100931
100951
100973
101000
101030
101059
101090
101116
101131
101151
101185
101408
101720
100981
100887
100897
100915
100919
100944
100962
100978
100973
100972
100987
100888
100772
100697
100692
100730
100441
100077
100818
100749
100749
100748
100749
100752
100757
100762
100767
100772
100776
100780
100785
100791
100799
100810
100822
100837
100853
100869
100885
100900
100914
100931
100952
100975
101001
101029
101057
101088
101113
101125
101130
101131
101174
101187
100995
100904
100905
100918
100920
100946
100981
100977
100972
100970
100938
100865
100786
100727
100705
100696
100420
100105
101001
100745
100745
100744
100744
100747
100752
100757
100762
100766
100770
100774
100778
100785
100793
100803
100815
100828
100843
100858
100872
100888
100903
100914
100935
100955
100979
101006
101026
101038
101053
101082
101134
101267
101807
101429
101393
100890
100880
100905
100903
100905
100960
100989
100979
100969
100976
100925
100833
100741
100694
100736
100595
100180
100735
100745
100745
100744
100745
100748
100752
100757
100762
100766
100770
100773
100778
100785
100793
100803
100815
100828
100843
100857
100872
100889
100905
100914
100935
100960
100982
101004
101020
101036
101050
101066
101094
101137
101242
101259
100992
100860
100872
100897
100901
100917
100958
100977
100977
100986
100977
100904
100810
100733
100671
100630
100427
100242
100724
100740
100740
100739
100739
100742
100747
100751
100756
100760
100763
100767
100771
100777
100785
100795
100806
100818
100831
100845
100858
100873
100889
100900
100910
100932
100950
100969
100978
100980
100976
100985
101021
101076
101207
101131
100891
100863
100886
100914
100918
100916
100933
100953
100949
100943
100968
100967
100903
100782
100665
100666
100572
100267
100835
100740
100740
100739
100740
100742
100747
100751
100756
100759
100763
100766
100771
100777
100785
100795
100806
100818
100831
100844
100858
100873
100889
100900
100913
100936
100955
100969
100972
100973
100975
100979
101002
101050
101080
101078
100943
100872
100894
100922
100922
100915
100923
100931
100938
100975
101000
100957
100860
100742
100663
100653
100510
100249
100859
100734
100734
100733
100734
100736
100740
100745
100749
100752
100755
100759
100763
100769
100776
100785
100796
100807
100819
100831
100844
100857
100870
100882
100889
100901
100917
100927
100929
100926
100925
100932
100950
100986
101008
100994
100913
100888
100925
100955
100962
100948
100921
100910
100915
100927
100964
100990
100950
100822
100669
100600
100502
100345
100971
100734
100734
100733
100734
100736
100740
100745
100749
100752
100755
100758
100763
100769
100776
100785
100796
100807
100819
100831
100844
100857
100870
100883
100893
100902
100916
100925
100924
100923
100925
100931
100949
100979
100996
100996
100955
100939
100954
100973
100976
100954
100918
100890
100894
100944
100993
100990
100908
100784
100675
100603
100437
100254
100936
100728
100728
100727
100727
100730
100733
100737
100741
100744
100747
100750
100754
100759
100766
100775
100784
100795
100806
100817
100829
100841
100851
100860
100868
100868
100874
100878
100884
100891
100895
100902
100923
100957
100981
101002
100986
100982
100997
101011
101016
101006
100961
100911
100895
100914
100963
101006
100992
100883
100723
100633
100592
100644
101026
100728
100728
100727
100728
100730
100734
100738
100741
100744
100747
100750
100754
100759
100766
100775
100784
100795
100806
100817
100829
100841
100852
100861
100867
100867
100869
100878
100887
100891
100895
100904
100922
100952
100984
101010
101006
101004
101011
101020
101029
101016
100971
100914
100886
100922
100987
101009
100970
100863
100699
100558
100445
100405
100883
100722
100722
100721
100721
100723
100726
100730
100733
100735
100738
100740
100744
100749
100755
100763
100772
100782
100793
100804
100815
100827
100835
100842
100842
100830
100822
100833
100857
100873
100881
100895
100922
100954
100989
101022
101029
101032
101043
101052
101048
101034
101007
100955
100911
100891
100944
101016
101029
100930
100782
100716
100702
100693
100430
100722
100722
100721
100721
100723
100726
100730
100733
100735
100738
100740
100744
100749
100755
100763
100772
100782
100793
100804
100816
100827
100837
100842
100839
100828
100821
100837
100861
100874
100881
100897
100924
100958
100994
101024
101032
101037
101045
101051
101051
101046
101024
100969
100906
100904
100968
101024
101015
100921
100772
100652
100588
100418
100269
100715
100715
100714
100713
100715
100718
100721
100724
100726
100728
100730
100733
100737
100743
100750
100759
100769
100779
100791
100804
100817
100828
100831
100817
100779
100760
100788
100829
100850
100859
100878
100912
100952
100992
101025
101044
101057
101073
101084
101082
101067
101042
101012
100971
100918
100925
100986
101025
100968
100847
100773
100772
100747
100535
100715
100715
100714
100714
100715
100718
100721
100724
100726
100728
100730
100733
100737
100743
100750
100759
100769
100779
100792
100805
100818
100828
100830
100814
100776
100761
100794
100833
100850
100859
100879
100914
100955
100994
101025
101043
101058
101073
101084
101083
101070
101050
101014
100961
100929
100957
101009
101022
100964
100859
100781
100760
100622
100720
100708
100708
100706
100706
100707
100709
100712
100714
100716
100717
100719
100721
100725
100730
100737
100745
100755
100766
100780
100796
100813
100828
100830
100803
100717
100687
100738
100794
100813
100822
100846
100888
100937
100985
101027
101061
101090
101114
101131
101132
101116
101090
101054
101012
100960
100935
100958
100994
100986
100916
100834
100766
100726
100464
100708
100707
100706
100706
100707
100710
100712
100714
100716
100717
100719
100721
100725
100730
100737
100745
100755
100766
100780
100796
100814
100827
100827
100793
100705
100690
100752
100802
100815
100822
100847
100888
100937
100984
101026
101060
101091
101116
101134
101134
101117
101089
101051
101007
100967
100960
100984
101002
100981
100914
100832
100750
100678
100386
100700
100700
100699
100698
100699
100701
100703
100705
100706
100706
100707
100709
100712
100716
100722
100730
100739
100751
100767
100788
100816
100849
100869
100819
100651
100544
100667
100746
100758
100766
100800
100852
100911
100970
101028
101083
101132
101170
101199
101200
101176
101138
101093
101043
100992
100955
100948
100960
100961
100924
100859
100776
100713
100460
100700
100700
100698
100698
100699
100701
100703
100705
100706
100706
100707
100709
100712
100716
100722
100730
100739
100751
100767
100789
100816
100848
100864
100808
100601
100590
100701
100749
100752
100760
100796
100849
100908
100968
101027
101081
101133
101169
101215
101214
101183
101138
101089
101037
100990
100963
100964
100974
100967
100926
100859
100767
100695
100434
100692
100692
100691
100690
100690
100692
100693
100694
100695
100695
100695
100696
100698
100701
100706
100713
100721
100733
100749
100773
100812
100885
100963
100976
100591
100114
100525
100688
100697
100697
100736
100801
100873
100946
101023
101103
101180
101225
101279
101281
101235
101176
101123
101071
101019
100977
100954
100949
100946
100924
100877
100802
100724
100494
100692
100692
100691
100690
100690
100692
100693
100694
100695
100695
100695
100696
100698
100701
100706
100713
100721
100733
100749
100773
100812
100881
100957
100939
100081
100377
100640
100709
100692
100693
100735
100800
100871
100944
101026
101114
101194
101205
101274
101283
101230
101170
101122
101075
101027
100989
100970
100965
100957
100929
100879
100802
100723
100488
100684
100684
100683
100681
100681
100682
100683
100684
100684
100683
100683
100683
100684
100686
100689
100694
100701
100710
100723
100743
100772
100816
100937
101205
100182
100514
100670
100660
100631
100664
100736
100817
100903
101000
101109
101227
101264
101315
101348
101286
101213
101166
101127
101082
101037
101002
100981
100967
100946
100910
100842
100763
100510
100684
100684
100682
100681
100682
100682
100683
100684
100684
100683
100683
100683
100684
100686
100689
100694
100701
100710
100723
100743
100771
100816
100936
101087
100140
100566
100658
100637
100622
100663
100738
100818
100904
100989
101120
101236
101205
101162
101318
101267
101201
101166
101135
101094
101050
101015
100992
100974
100949
100908
100838
100754
100513
100677
100676
100674
100673
100673
100673
100674
100673
100673
100671
100670
100669
100669
100669
100671
100674
100678
100683
100690
100699
100708
100706
100679
100646
100343
100374
100687
100742
100653
100594
100615
100677
100749
100830
100928
101038
101168
101181
101227
101389
101325
101255
101224
101203
101171
101127
101080
101039
101008
100979
100952
100893
100841
100541
100676
100676
100674
100673
100673
100673
100674
100673
100673
100671
100670
100669
100669
100669
100671
100674
100678
100683
100691
100700
100708
100705
100672
100602
100345
100421
100704
100737
100643
100590
100617
100683
100752
100822
100871
101035
101020
101233
101157
101195
101212
101204
101199
101192
101171
101133
101088
101046
101013
100981
100949
100885
100816
100541
100669
100668
100666
100665
100664
100664
100664
100663
100661
100659
100657
100655
100654
100653
100652
100653
100653
100654
100656
100657
100655
100646
100627
100567
100500
100501
100623
100641
100590
100568
100590
100632
100676
100740
100887
101040
101011
101189
101433
101241
101218
101236
101238
101241
101237
101209
101163
101108
101057
101014
100986
100931
100930
100595
100669
100668
100666
100665
100664
100664
100664
100663
100661
100659
100657
100655
100654
100653
100652
100653
100653
100655
100656
100657
100655
100646
100625
100562
100480
100491
100604
100620
100573
100559
100593
100643
100685
100721
100759
100962
100745
100997
101432
100517
101003
101202
101226
101228
101227
101210
101170
101118
101067
101022
100989
100929
100898
100568
100661
100661
100658
100656
100655
100655
100654
100653
100651
100648
100645
100641
100639
100636
100634
100631
100629
100626
100623
100619
100612
100600
100577
100533
100474
100446
100469
100492
100502
100524
100557
100582
100591
100606
100689
100894
101899
100727
99760.5
100381
101004
101266
101284
101291
101297
101288
101255
101199
101130
101065
101017
100943
100938
100527
100661
100660
100658
100656
100655
100655
100654
100653
100651
100648
100645
100642
100639
100636
100634
100631
100629
100626
100623
100619
100612
100599
100575
100528
100468
100445
100468
100487
100494
100516
100556
100593
100617
100552
100661
100948
101421
98572.9
99130.2
98958.1
100021
101085
101269
101276
101278
101277
101255
101207
101144
101083
101030
100946
100927
100565
100654
100653
100651
100648
100647
100646
100645
100643
100640
100636
100632
100628
100624
100619
100615
100610
100605
100598
100591
100581
100567
100547
100516
100471
100421
100389
100388
100406
100427
100457
100487
100503
100413
100503
100512
99199.4
97672.9
96702.7
97470.9
98810.7
100080
101149
101363
101376
101369
101368
101355
101308
101235
101169
101111
101027
100935
100397
100654
100653
100651
100648
100647
100646
100645
100643
100640
100636
100632
100628
100624
100620
100615
100610
100605
100598
100591
100581
100567
100546
100514
100469
100421
100391
100392
100409
100427
100452
100487
100520
100555
100603
100488
99861.8
100222
97110.6
97542.9
98352.9
99439.7
100704
101306
101373
101372
101356
101342
101307
101249
101188
101116
100995
100925
100483
100647
100646
100643
100641
100639
100637
100636
100633
100630
100625
100620
100615
100609
100603
100597
100589
100581
100570
100558
100542
100522
100495
100459
100416
100372
100339
100326
100328
100335
100355
100375
100416
100165
100368
100396
98842.6
95663.4
95863.3
97670.4
99105.9
100276
101460
101563
101514
101476
101471
101466
101418
101342
101289
101271
101239
101168
101020
100646
100646
100643
100641
100639
100638
100636
100633
100630
100625
100620
100615
100609
100603
100597
100589
100581
100570
100558
100542
100522
100494
100458
100415
100371
100340
100328
100329
100334
100347
100368
100441
100459
100522
100441
96412.8
96338.9
96159.5
97834.4
99128.6
100234
101270
101573
101538
101493
101467
101444
101404
101350
101308
101265
101224
101054
100495
100640
100639
100637
100634
100631
100629
100627
100624
100620
100615
100609
100603
100596
100588
100579
100569
100557
100543
100526
100505
100479
100446
100407
100362
100316
100276
100245
100224
100210
100214
100242
100455
100240
99189
98038.2
95453.8
94880.9
96527.1
98727.6
100324
101222
101859
101759
101644
101587
101586
101573
101506
101404
101318
101280
101256
101362
101391
100640
100639
100637
100634
100632
100630
100627
100624
100620
100615
100609
100603
100596
100588
100579
100569
100557
100543
100526
100505
100478
100446
100406
100361
100316
100276
100246
100224
100204
100189
100164
100218
100503
99540.9
93182.5
92234.7
94533.4
96491.3
98815.6
100448
101324
101720
101701
101642
101600
101588
101556
101494
101412
101349
101331
101351
101282
101178
100634
100633
100630
100627
100624
100622
100619
100616
100611
100605
100599
100591
100583
100573
100563
100550
100535
100517
100496
100470
100438
100400
100356
100306
100252
100198
100146
100096
100048
100022
100089
100270
100427
98961
93743.1
93322.7
95336.1
97739.9
99951.8
101251
101681
101779
101850
101762
101730
101733
101710
101634
101500
101305
101126
100964
100964
100836
100634
100633
100630
100627
100625
100622
100620
100616
100611
100605
100599
100591
100583
100573
100563
100550
100535
100517
100495
100469
100438
100400
100355
100305
100252
100198
100146
100096
100040
99990.7
99906.1
100061
100145
98104.1
93164.5
93519.1
95519.7
97898.6
100100
101385
101758
101768
101769
101741
101728
101733
101705
101628
101499
101322
101182
101115
101175
101243
100628
100628
100625
100621
100618
100616
100612
100608
100603
100597
100589
100581
100571
100560
100547
100532
100514
100493
100467
100437
100400
100357
100306
100248
100184
100113
100037
99945.9
99848.4
99667.5
99842.6
100450
100075
85927.8
88499
93389.2
96606.8
99146.5
100797
101445
101591
101695
101795
101881
101911
101933
101917
101851
101709
101456
101212
100853
100564
100853
100628
100627
100625
100621
100618
100616
100613
100608
100603
100597
100589
100581
100571
100560
100547
100532
100514
100493
100467
100436
100400
100356
100306
100248
100183
100113
100036
99948.8
99844.2
99705.5
99607
99581.8
96463.3
92906.6
93001.6
94681.5
97089.9
99408.1
100935
101505
101618
101715
101793
101850
101902
101929
101913
101846
101699
101426
101148
100855
100601
100415
100623
100623
100620
100616
100613
100610
100606
100602
100596
100589
100581
100571
100560
100548
100533
100516
100496
100471
100442
100407
100365
100316
100259
100192
100116
100027
99924.6
99795.1
99628.6
99338.5
98919.6
100188
97437.4
89881.4
93250.4
96795.6
99551.8
101171
101568
101385
101367
101562
101778
102001
102114
102155
102156
102101
101983
101780
101442
100672
99908.6
100450
100623
100622
100620
100616
100613
100610
100606
100602
100596
100589
100581
100571
100560
100548
100533
100516
100495
100471
100441
100406
100365
100316
100258
100192
100115
100027
99923.7
99803.6
99637.5
99405.9
99129.5
98833.7
94919.1
91454.6
94513.2
97404.5
99905.3
101392
101653
101370
101350
101590
101798
101958
102094
102150
102152
102105
101967
101726
101347
100618
99966.7
100531
100619
100618
100615
100612
100608
100605
100601
100596
100590
100582
100573
100563
100551
100537
100521
100502
100479
100452
100419
100380
100334
100280
100216
100141
100052
99946.9
99819.4
99660.4
99447.5
99149
98650.5
98468
100960
102285
100655
101559
102947
103118
102180
101195
101065
101419
101826
102145
102294
102370
102412
102355
102331
102165
101397
99901.9
99020.4
100236
100619
100618
100615
100612
100608
100605
100601
100596
100590
100582
100573
100563
100551
100537
100521
100502
100479
100451
100419
100380
100334
100279
100215
100140
100051
99945.2
99813.1
99662.6
99469.8
99224.8
98922.4
98315.2
97618.7
97796.8
99541.7
101634
103225
103290
102215
101154
101038
101443
101838
102115
102275
102365
102398
102355
102297
102130
101352
99806.9
99140.9
100202
100616
100615
100612
100608
100604
100601
100597
100592
100585
100577
100567
100556
100544
100529
100511
100490
100465
100436
100400
100358
100308
100249
100179
100096
99997.2
99877.6
99732.2
99551.1
99311.4
99003.1
98535.3
97946.3
98305.7
100408
100859
102139
103566
103545
102285
100924
100800
101360
101963
102319
102462
102584
102720
102737
102828
102568
101690
100213
98486.4
99934.5
100616
100615
100612
100608
100605
100601
100597
100592
100585
100577
100567
100556
100544
100529
100511
100490
100465
100435
100400
100358
100308
100248
100179
100095
99996
99871.9
99730.1
99550.2
99311.6
99022.3
98738.8
97656.1
97312.6
98933.6
100660
102564
103814
103582
102313
100971
100777
101357
101966
102327
102467
102561
102670
102683
102803
102675
101909
100300
98383.1
99983.6
100613
100612
100609
100605
100601
100598
100593
100588
100581
100573
100563
100551
100538
100522
100503
100481
100455
100423
100385
100340
100287
100225
100150
100061
99955
99826.5
99670.4
99473.2
99221.2
98897.3
98500.4
97896.5
97458.9
98230.9
98478
100311
101990
102629
102176
101256
101066
101608
102183
102548
102672
102806
102936
102961
103042
102777
102635
101680
98276
99466
100613
100612
100609
100605
100602
100598
100593
100588
100581
100573
100563
100551
100538
100522
100503
100481
100454
100423
100385
100340
100287
100224
100150
100061
99954.4
99825.2
99675
99476
99214.2
98892.8
98470.2
97835.6
97511.7
98348.9
99666.8
100981
101504
102047
101939
101369
101136
101574
102160
102561
102694
102770
102881
102916
103061
102924
102898
102062
98337.5
99330.2
100612
100611
100608
100604
100600
100596
100591
100586
100579
100570
100560
100548
100534
100517
100498
100475
100447
100414
100375
100328
100273
100208
100130
100037
99925.9
99791.2
99627
99423
99166.7
98844.6
98462.4
97962.8
97463.3
96900.4
96205.1
96740.5
96424.1
96894.1
97794.6
99606
100878
101898
102420
102740
102917
103024
103062
103022
103086
103163
104003
103912
99099.1
98725.8
100612
100611
100608
100604
100600
100596
100592
100586
100579
100570
100560
100548
100534
100517
100498
100475
100447
100414
100375
100328
100273
100207
100130
100037
99925.4
99791
99628.3
99428.1
99168.2
98835.7
98477.3
97975.9
97458.4
97339.9
97115.2
96515.1
95750.8
96306.4
97432.6
99385.5
100950
101898
102410
102728
102898
103006
103028
103016
103088
103222
104195
104148
99241.1
98142.3
100610
100609
100606
100603
100599
100595
100590
100585
100577
100568
100558
100546
100532
100515
100495
100471
100443
100409
100369
100322
100265
100198
100119
100024
99910
99772.1
99604
99396.9
99140.3
98823.5
98440.4
97958.6
97356.5
96746
96146
95024.8
93228.4
92822.8
94095.5
96836.9
99499.4
101218
102090
102518
102822
102991
103028
103017
103014
103248
103730
103000
99722.8
98199.7
100610
100609
100606
100603
100599
100595
100590
100585
100577
100569
100558
100546
100532
100515
100495
100471
100443
100409
100369
100321
100265
100198
100119
100024
99909.6
99771.8
99604.2
99398.5
99141.9
98826.3
98458.4
98015.6
97505.9
96812.7
95662.9
94231.8
93195.3
92962.2
94133.8
96656.6
99384.9
101228
102080
102494
102775
102965
103008
103006
103071
103296
103772
103054
99755.9
98051.2
100648
100943
100246
101389
101311
100264
100178
100395
100220
100065
100233
100928
100406
101333
101300
100446
100260
100334
100072
100094
101156
100673
100606
100628
100350
100369
100152
100592
100130
100325
100044
101194
100613
100271
100594
100224
100114
100114
100261
100089
100202
100284
100741
100813
100723
100871
100758
100851
100720
100585
100622
100559
100569
100472
100543
100482
100708
100795
100693
100841
100692
100830
100667
100554
100594
100568
100452
100437
100396
100408
101037
100960
101027
101010
101178
101010
101179
100325
100566
100521
100510
100313
100294
100203
100396
100083
100185
100055
100206
101015
100944
101005
101009
101168
100993
101154
99903.1
100329
100247
100275
100152
100508
100390
100535
100104
100304
100155
100365
101005
100936
101031
100786
100743
100784
100741
100284
101213
100826
100827
100357
100348
100451
100261
100118
100269
100173
100308
100145
100326
101031
100930
101025
100780
100730
100783
100739
100439
101130
100909
100400
100883
100106
100121
100341
100182
100392
100201
100389
100274
100451
100549
100631
100508
100603
100518
100602
100516
100065
100322
100130
100417
100378
100420
100412
100485
100596
100485
100599
100518
100600
100522
100254
100367
100326
100431
100422
100434
100416
100825
100789
100609
100773
100894
100835
100529
100674
100729
100794
101238
101324
101393
101326
101255
100998
101052
101267
101256
101384
101316
101175
101051
100962
100301
100480
100448
100502
100261
100248
100170
100232
100132
100182
100115
100158
100255
100203
100240
100080
100098
100079
100199
100588
100677
100422
100722
100946
100701
100435
100702
100704
100676
101233
101162
101315
100951
101325
101321
100507
101094
101349
101336
101264
101252
100790
101111
99978
100257
100300
100266
100165
99938
100103
100083
100129
100108
100235
100173
99996
100121
100108
100089
100122
100140
100161
100002
100088
100289
101214
100868
100837
100373
100028
100119
100211
100625
100557
100615
100278
100176
100466
100466
100142
100559
100409
100319
100364
100293
100528
100243
100095
100315
100217
100123
100186
100154
100352
100464
100540
100423
100474
100259
100441
100297
100169
100357
100134
100153
100301
101181
100850
100847
100192
100026
99906.4
100034
100389
100194
100116
100329
99990.7
100267
100359
100370
99990.5
100079
100117
100080
100141
100068
99904.3
100363
100064
100134
100072
100090
100169
100172
100274
100166
100162
100262
100044
100250
100284
100221
100127
101040
100899
100967
101126
100885
101121
101051
101058
100877
100919
101050
100843
101056
101056
101036
100953
100849
101082
100864
101109
101022
100343
100448
100283
100135
100433
100141
100314
100353
100325
100473
100170
100444
100132
100353
100983
100938
100843
101123
100854
101097
100939
100230
100456
100377
100322
100342
100387
100288
100246
100314
100326
100185
100284
100224
100268
100601
100698
100679
100664
100688
100678
100621
100555
100690
100653
100590
100684
100541
100646
100268
100230
100240
100074
100148
100185
100362
100132
100027
100037
100118
100050
100079
100122
100565
100703
100555
100589
100571
100654
100523
100475
100646
100593
100519
100640
100520
100474
100074
100024
100155
100193
100068
100050
100221
100045
100122
100236
100360
100088
100226
100088
100447
100446
100276
100331
100452
100413
100320
100436
100524
100481
100496
100384
100220
100382
100312
100478
100318
100471
100348
100482
100342
100496
99960.5
100097
99990.6
99648.4
100205
99890.9
99682.2
99506.1
99393.9
99303.7
99500.2
99968.1
100090
100375
99673.3
99951.3
100325
99637.2
99722.9
99831.8
99799.2
99754.4
100742
100433
100590
100325
100453
100727
100619
100951
101335
101329
100974
100951
101316
101317
100933
100747
100328
100473
100605
100460
100627
100745
100406
100467
101007
100391
100537
100812
100606
100777
100876
100768
101183
100513
100923
100883
101413
100801
100620
101008
100500
100672
100680
100884
100621
100857
100050
100093
100449
100766
100368
100850
100799
100368
100426
100450
100504
100500
100443
100407
100218
100402
100284
100459
100854
100800
100462
100803
100437
100491
100234
100743
100338
100834
100298
100725
100303
100175
100283
99875.1
100917
100077
100139
100201
100022
100393
100840
100798
99308.5
100755
100418
100924
101481
101292
101469
101234
101288
101469
101472
101531
101471
101476
101510
101526
101468
101468
101515
101483
101244
101294
101469
101292
101472
101457
101008
101020
101458
101297
101309
101488
101290
101480
101454
101426
101395
101344
101361
101430
101327
101270
101480
101275
101447
101350
101481
101503
101534
101441
101113
101138
100356
100425
100253
100287
100403
100405
100218
100034
99681.8
99611.1
99816.8
100220
100167
100299
100074
100313
100229
100424
100067
100198
100361
100164
100210
100162
100135
100228
100121
100192
100223
100081
100144
100177
100336
100328
100201
100158
100268
100152
100291
100134
100158
100196
100069
100208
100067
100153
100256
100223
100113
100214
100240
100114
100219
100111
100131
100086
100130
100095
100149
100119
100235
100217
100144
100219
100148
100143
100097
100210
100108
100175
100196
100563
100514
99636.5
100655
100146
99638.8
99990.6
99848.9
99731.5
100357
100216
100870
100904
100860
100798
100616
100268
100170
100006
100025
100136
100048
100611
100097
100659
100077
100622
100023
99795.7
99665.4
99611.3
99881
99868.9
99810.2
99989.4
99639.2
100068
100529
100640
100037
100600
99884.4
100203
101674
101349
101389
101550
101244
101200
101518
103431
101249
100833
101024
101345
101228
101307
102284
101155
101213
101086
101795
101986
100881
101726
101420
101073
101979
101239
101779
101206
101283
101343
101556
101586
101389
101516
101493
101530
101620
101577
101540
101967
101342
101148
101752
101029
101679
101268
101173
101275
100074
100179
99653.5
100083
99948.9
100350
99740.6
99660.1
99624.8
99571.2
99782.2
99643
99691.4
99703.8
99538.2
100101
100159
100308
99821.8
100370
99821.8
100082
99989.7
100039
100190
100104
100181
100103
100226
100148
100150
100163
100110
100110
100130
100214
100180
100254
100185
100167
100278
100179
100175
100165
100162
100153
100051
100109
100086
100153
100090
100129
100145
100122
100098
100110
100153
100171
100104
100125
100170
100149
100171
100073
100128
100152
100138
100141
100106
100086
100048
100052
100756
100538
100564
100331
100738
100588
100590
100901
101260
100910
101241
100958
101362
100974