/*--------------------------------*- C++ -*----------------------------------*\
| =========                 |                                                 |
| \\      /  F ield         | OpenFOAM: The Open Source CFD Toolbox           |
|  \\    /   O peration     | Version:  4.1                                   |
|   \\  /    A nd           | Web:      www.OpenFOAM.org                      |
|    \\/     M anipulation  |                                                 |
\*---------------------------------------------------------------------------*/
FoamFile
{
    version     2.0;
    format      ascii;
    class       surfaceScalarField;
    location    "41";
    object      phi;
}
// * * * * * * * * * * * * * * * * * * * * * * * * * * * * * * * * * * * * * //

dimensions      [0 3 -1 0 0 0 0];

internalField   nonuniform List<scalar> 
11516
(
9.98679e+06
503.046
10186.5
9.96866e+06
197.715
21345.5
9.93963e+06
345.839
31811
9.90037e+06
286.731
41931.4
9.85125e+06
321.018
51917.8
9.79251e+06
474.692
61836.1
9.72432e+06
637.553
71675.3
9.64654e+06
733.468
81488.3
9.55866e+06
725.098
91425.6
9.45963e+06
575.456
101910
9.34863e+06
328.912
112944
9.22579e+06
57.3574
123998
9.09324e+06
-122.676
134390
8.95742e+06
-31.4419
140571
8.8326e+06
-264.865
135796
8.73421e+06
-982.306
115952
8.68752e+06
1838.88
63230.3
8.68391e+06
2703.32
15942.4
8.6711e+06
1539.57
21576.6
8.60771e+06
2382.85
67579.7
8.50563e+06
-1019.93
106658
8.36537e+06
-4421.44
147186
8.19403e+06
-7819.46
181917
7.99643e+06
-11556.1
212595
7.77269e+06
-15073.5
242140
7.54704e+06
-17909
246707
7.33647e+06
-15237.7
230654
7.15081e+06
-8931.76
201372
6.99595e+06
-7243.97
171672
6.88255e+06
-12311
136805
6.82908e+06
-18818.5
86818.9
6.84052e+06
-22125.4
24699.2
6.92421e+06
-13874.3
-55509.3
7.07986e+06
9151.41
-148957
7.33182e+06
34883.9
-241961
7.61783e+06
26950.1
-282493
7.79875e+06
48245.3
-186325
7.93818e+06
61600.5
-107285
8.04715e+06
53501.4
-67704.8
8.18371e+06
25176.2
-29061.6
8.32505e+06
2918.58
7723.14
8.47529e+06
11168.4
6157.52
8.6107e+06
25792.6
-5994.64
8.7772e+06
60182.5
-43838.9
8.97873e+06
47766.5
-78550.7
9.29558e+06
15102.8
-217571
9.60044e+06
33374.7
-221134
9.98003e+06
16816.3
-328411
1.0388e+07
73123.9
-453872
1.08785e+07
-14550.9
-539828
1.12645e+07
135449
-270232
1.15154e+07
-55305.3
-684738
1.24459e+07
-6964.74
-509032
-266992
43771.4
9.98756e+06
10175.4
9.96862e+06
21355.1
9.93922e+06
31796.9
9.89964e+06
41861.8
9.85033e+06
51795.9
9.79162e+06
61703.5
9.7236e+06
71574.2
9.64599e+06
81493.1
9.55819e+06
91622.3
9.4591e+06
102342
9.34784e+06
113706
9.22472e+06
125011
9.09151e+06
135694
8.95427e+06
142188
8.82377e+06
138874
8.72103e+06
113283
8.67799e+06
55919.5
8.68238e+06
6197.65
8.67555e+06
13648.4
8.61437e+06
66211.4
8.51236e+06
103255
8.3741e+06
136297
8.20289e+06
166094
8.00099e+06
192938
7.76668e+06
221666
7.52596e+06
225970
7.29913e+06
215455
7.0952e+06
200171
6.92379e+06
170426
6.80886e+06
111691
6.76474e+06
34620.7
6.79388e+06
-39327.7
6.88984e+06
-94001.2
7.04235e+06
-126062
7.25473e+06
-159577
7.47325e+06
-158465
7.65088e+06
-78473.7
7.8142e+06
-38047.5
7.97266e+06
-9424.27
8.1511e+06
-48222.9
8.26599e+06
-13521.9
8.36582e+06
11839.9
8.50646e+06
11683.7
8.69812e+06
-38140.2
8.88817e+06
-38072.3
9.14689e+06
-157080
9.44408e+06
-201279
9.76256e+06
-246889
1.00675e+07
-350092
1.07629e+07
-439315
1.07089e+07
-198620
1.16594e+07
-723229
1.31327e+07
-1.53673e+06
-212949
1.00065e+07
500.922
5969.53
1.00148e+07
130.472
15970.8
1.00233e+07
267.361
25775.4
1.00317e+07
221.358
36035.1
1.00397e+07
284.603
46518.3
1.00474e+07
477.379
57348.7
1.00544e+07
698.09
68596.3
1.00606e+07
884.699
80130.9
1.00649e+07
997.129
92685.8
1.00672e+07
1019.53
105680
1.00664e+07
949.846
119653
1.00617e+07
833.887
134339
1.00516e+07
811.711
149939
1.00331e+07
862.756
164515
9.99343e+06
2471.87
180161
9.91625e+06
3347.25
195839
9.79424e+06
3484.14
187151
9.58885e+06
1906.68
221685
9.3517e+06
-510.769
260377
9.13578e+06
-1185.67
285763
8.93796e+06
299.214
305761
8.75967e+06
1714.08
325760
8.59179e+06
2992.73
348838
8.42473e+06
4708.51
376484
8.25947e+06
5980.26
402658
8.0891e+06
7395.16
411067
7.90685e+06
9007.91
405670
7.69297e+06
12153.7
405600
7.46015e+06
17512.4
389496
7.24807e+06
18694
332625
7.10101e+06
16787.8
218933
7.06191e+06
20283.6
44535.8
7.13601e+06
20449.1
-149712
7.30731e+06
17081
-335256
7.55885e+06
5609.99
-495296
7.73811e+06
8255.33
-438067
7.85933e+06
-14364.8
-232055
7.94743e+06
-13764.9
-120912
7.99918e+06
-2034.4
-46181.5
8.1003e+06
-32022.4
-43573.7
8.22674e+06
-41096.1
-31991.4
8.32686e+06
-63931.4
33339.8
8.45558e+06
-75389.1
32639.8
8.63439e+06
-85710.1
-51934.5
8.87684e+06
-96741.4
-137342
9.13288e+06
-105660
-298840
9.4561e+06
-118047
-383782
9.85383e+06
-133240
-544410
1.02807e+07
-134421
-745354
1.08723e+07
-161672
-1.02721e+06
1.08384e+07
-87668.8
-247463
1.12373e+07
-88535.4
-831872
1.34956e+07
-903003
-1.94977e+06
-549232
-1.65038e+06
1.00072e+07
5955.04
1.00148e+07
15950.1
1.0023e+07
25748.5
1.00309e+07
35996.1
1.00387e+07
46464.6
1.00462e+07
57278.3
1.00533e+07
68517.2
1.00596e+07
80061.6
1.00641e+07
92678.7
1.00665e+07
105767
1.0066e+07
119908
1.00616e+07
134832
1.00521e+07
150477
1.00345e+07
165528
1.0002e+07
179466
9.93401e+06
188587
9.80369e+06
192294
9.59214e+06
220341
9.35015e+06
255703
9.13529e+06
280776
8.94146e+06
298554
8.7649e+06
316083
8.59993e+06
335672
8.43662e+06
362294
8.2782e+06
387109
8.11712e+06
395673
7.94074e+06
402799
7.74127e+06
414451
7.53457e+06
397934
7.33526e+06
332911
7.16696e+06
221779
7.08988e+06
58877.6
7.13489e+06
-116627
7.29333e+06
-264778
7.51738e+06
-366717
7.751e+06
-353997
7.92895e+06
-229119
8.05338e+06
-114318
8.1461e+06
-50615.5
8.29594e+06
-187063
8.4224e+06
-137787
8.51004e+06
-73586.6
8.60372e+06
-87963
8.75925e+06
-186765
8.97087e+06
-280056
9.22067e+06
-480916
9.5661e+06
-621339
9.91787e+06
-717612
1.03845e+07
-937353
1.0887e+07
-1.16555e+06
1.07635e+07
-113924
1.06064e+07
-660707
9.85162e+06
-1.61475e+06
-2.34638e+06
9.99897e+06
489.459
7758.91
9.99559e+06
112.982
22183.2
9.98732e+06
245.896
36433.6
9.97449e+06
195.806
51150.7
9.95745e+06
265.154
66050.5
9.93652e+06
483.51
81300.1
9.91219e+06
754.735
96829.2
9.88394e+06
1014.9
113329
9.85246e+06
1218.87
130113
9.81672e+06
1338.19
148087
9.7768e+06
1338.53
166551
9.732e+06
1261.68
185985
9.68166e+06
1064.52
206514
9.62332e+06
1086.01
228078
9.55778e+06
659.967
248810
9.47804e+06
2492.89
273294
9.37835e+06
1331.85
283143
9.28158e+06
1095.15
316639
9.17928e+06
-236.179
363202
9.06024e+06
176.079
405812
8.92738e+06
791.758
439734
8.78952e+06
1588.95
464466
8.64807e+06
2963.81
489902
8.50062e+06
5689.37
520198
8.34455e+06
7394.6
552642
8.17399e+06
10231.4
572991
7.97089e+06
14920.7
596724
7.71148e+06
19776.2
649250
7.40935e+06
20614
675396
7.11739e+06
11951.3
615665
6.90013e+06
5998.38
430989
6.7945e+06
16510.4
132852
6.79731e+06
40598
-194545
6.93233e+06
61472.4
-536023
7.20516e+06
46898.4
-812017
7.40105e+06
-12018.3
-603579
7.45527e+06
-93895.2
-162266
7.44201e+06
-125504
58379.2
7.34807e+06
-120302
189537
7.35468e+06
-63096
20810.7
7.40299e+06
-32226.6
-34980.8
7.42211e+06
-64379
119804
7.51154e+06
-113417
137351
7.7116e+06
-121726
-23148.8
7.97461e+06
-119476
-198644
8.19173e+06
-83645.5
-366688
8.52071e+06
-64113.8
-565336
8.90778e+06
-76021
-790002
9.50914e+06
-98259.9
-1.18103e+06
1.04129e+07
-136716
-1.75697e+06
1.18659e+07
-155336
-1.53115e+06
1.27482e+07
-226234
-1.45369e+06
1.17554e+07
382109
-1.2352e+06
49644.8
-2.54525e+06
9.99971e+06
7754.77
9.99556e+06
22183.3
9.98693e+06
36418.7
9.97376e+06
51120.7
9.95648e+06
66011.8
9.93555e+06
81260.3
9.91137e+06
96799.3
9.88334e+06
113323
9.85207e+06
130151
9.81647e+06
148183
9.77662e+06
166721
9.73188e+06
186207
9.68142e+06
206768
9.62371e+06
228116
9.55612e+06
248906
9.47522e+06
270997
9.37924e+06
285948
9.28261e+06
317688
9.17902e+06
359538
9.06159e+06
399341
8.93103e+06
431558
8.79628e+06
454543
8.65866e+06
478313
8.51165e+06
516445
8.35685e+06
550417
8.19026e+06
574128
7.9945e+06
616323
7.75259e+06
680211
7.46043e+06
715104
7.1427e+06
665445
6.89355e+06
477536
6.78829e+06
180788
6.83528e+06
-124512
7.02001e+06
-390617
7.31346e+06
-609160
7.52153e+06
-552672
7.61873e+06
-389062
7.66407e+06
-270945
7.66608e+06
-177787
7.75832e+06
-340006
7.84591e+06
-237125
7.84489e+06
-83177.2
7.85056e+06
-99951
7.94838e+06
-316327
8.10306e+06
-492943
8.28089e+06
-674441
8.5356e+06
-884943
8.88242e+06
-1.07128e+06
9.39479e+06
-1.49103e+06
1.01672e+07
-2.03922e+06
1.15317e+07
-1.58251e+06
1.23173e+07
-1.67306e+06
1.19761e+07
-770520
-2.61232e+06
9.99861e+06
485.253
9987.5
9.99542e+06
116.719
28239.1
9.98763e+06
242.674
46598.9
9.9753e+06
187.518
65709.5
9.95854e+06
247.077
85200.3
9.93765e+06
453.409
105107
9.91208e+06
715.046
126200
9.88229e+06
970.87
147991
9.84769e+06
1179.32
170598
9.8079e+06
1304.21
194483
9.76196e+06
1313
219292
9.70885e+06
1205.71
245426
9.64779e+06
943.741
272599
9.57767e+06
625.26
300565
9.49567e+06
14.0493
329768
9.40183e+06
372.435
360917
9.28641e+06
-678.091
392703
9.17689e+06
1002.96
424385
9.08466e+06
-571.116
456988
8.99513e+06
-121.083
497349
8.89667e+06
592.968
540382
8.78681e+06
867.369
576995
8.65696e+06
1105.69
621895
8.50684e+06
2641.8
670184
8.33751e+06
2870.28
720951
8.14033e+06
4096.91
768314
7.88947e+06
7542.46
843471
7.56194e+06
7948.28
973358
7.16868e+06
3040.25
1.07033e+06
6.79157e+06
773.894
994677
6.52827e+06
4368.57
690518
6.38578e+06
11676.2
263018
6.35237e+06
27032.7
-190325
6.46706e+06
49513.7
-702282
6.70149e+06
39985.6
-1.08741e+06
6.8301e+06
-75681.6
-653119
6.77585e+06
-236652
141418
6.64343e+06
-302477
484662
6.44641e+06
-263263
627995
6.42836e+06
-95701
129057
6.44437e+06
-25653.5
-20431
6.4564e+06
-65957.1
211477
6.56163e+06
-69309.9
245816
6.75893e+06
-45345.5
-33048.1
7.02274e+06
-25782.9
-283712
7.23236e+06
-6441.1
-400343
7.49108e+06
-14579.4
-622555
7.77067e+06
15382.5
-910433
8.06291e+06
3151.91
-1.33775e+06
8.34612e+06
63602.7
-1.97908e+06
9.28364e+06
-18305.8
-2.20612e+06
9.99974e+06
-141615
-1.88331e+06
1.03368e+07
300434
-1.82039e+06
401699
-2.63808e+06
9.99934e+06
9988.87
9.99539e+06
28240.1
9.98724e+06
46578.1
9.97457e+06
65685.5
9.95758e+06
85190.5
9.93667e+06
105118
9.91126e+06
126232
9.88171e+06
148041
9.84735e+06
170659
9.80772e+06
194545
9.76184e+06
219348
9.70868e+06
245454
9.64739e+06
272610
9.57704e+06
300439
9.49459e+06
329699
9.40038e+06
360017
9.28898e+06
393795
9.17826e+06
429242
9.08438e+06
453790
8.99551e+06
489886
8.89751e+06
532610
8.7868e+06
569164
8.65574e+06
612865
8.50572e+06
670594
8.33896e+06
721527
8.14019e+06
778888
7.88321e+06
883250
7.55205e+06
1.02209e+06
7.15962e+06
1.11307e+06
6.78822e+06
1.03895e+06
6.53801e+06
732242
6.40597e+06
323698
6.37434e+06
-67889.4
6.51019e+06
-478762
6.84846e+06
-904455
7.0776e+06
-846837
7.16455e+06
-708101
7.10121e+06
-537171
6.90565e+06
-273882
6.73536e+06
-274044
6.69496e+06
-212589
6.66812e+06
-68544.1
6.72004e+06
-96637.8
6.85021e+06
-372477
7.00499e+06
-566976
7.16431e+06
-724488
7.33293e+06
-946238
7.55659e+06
-1.15329e+06
7.65058e+06
-1.46308e+06
7.97768e+06
-2.09529e+06
8.61111e+06
-2.22329e+06
8.98657e+06
-1.9968e+06
1.00011e+07
-1.45643e+06
-2.51987e+06
9.99864e+06
482.871
12181.6
9.99555e+06
122.984
34199.2
9.988e+06
250.701
56539.1
9.97598e+06
193.181
79995.9
9.95967e+06
248.845
103980
9.93921e+06
450.405
128574
9.91472e+06
708.149
154573
9.88629e+06
960.781
181317
9.85317e+06
1165.39
209510
9.81493e+06
1282.8
239031
9.77078e+06
1282.3
269690
9.71981e+06
1150.92
301883
9.66129e+06
870.156
334982
9.59342e+06
451.768
369788
9.5143e+06
-161.202
406427
9.42276e+06
-719.282
447164
9.31814e+06
-63.3929
493278
9.19794e+06
836.55
543846
9.07609e+06
1172.58
579806
8.97308e+06
-809.053
604997
8.87397e+06
867.592
642853
8.76705e+06
1657.74
686988
8.63215e+06
-852.535
761653
8.46422e+06
-1040.28
842279
8.26676e+06
-2941.52
924122
8.02452e+06
-3143.53
1.01612e+06
7.72281e+06
392.089
1.14628e+06
7.36162e+06
1635.58
1.33419e+06
6.97138e+06
-911.069
1.46274e+06
6.61729e+06
69.5141
1.34942e+06
6.33711e+06
6116.6
964674
6.11415e+06
17277.5
468410
5.94826e+06
35088.6
-59632.4
5.87939e+06
74567.4
-707798
5.93508e+06
166404
-1.30917e+06
5.63613e+06
-90513.7
-255170
5.7633e+06
-170225
203929
5.88387e+06
-139106
470814
5.58522e+06
-207095
1.09601e+06
5.44103e+06
-31208.5
291743
5.36015e+06
4013.64
61233.8
5.34411e+06
-66350.4
331779
5.50143e+06
63652.9
172044
5.62883e+06
165191
-90443.5
5.71956e+06
167986
-297915
5.91686e+06
158045
-482989
6.18971e+06
166943
-820836
6.64329e+06
119913
-1.28924e+06
6.90396e+06
100069
-1.59504e+06
6.5943e+06
525850
-1.83051e+06
6.20253e+06
466300
-2.14345e+06
6.59547e+06
427935
-2.57225e+06
7.03874e+06
411956
-2.76887e+06
277707
-2.43698e+06
9.99937e+06
12176.2
9.99552e+06
34200.2
9.98762e+06
56531
9.97526e+06
79993.1
9.95871e+06
103996
9.93824e+06
128616
9.91391e+06
154639
9.88572e+06
181397
9.85283e+06
209590
9.81475e+06
239089
9.77066e+06
269706
9.71961e+06
301834
9.66092e+06
334885
9.59259e+06
369607
9.51322e+06
406462
9.42226e+06
447208
9.31993e+06
493877
9.20414e+06
547334
9.08373e+06
578713
8.97683e+06
600244
8.87365e+06
641151
8.75789e+06
690288
8.61669e+06
755995
8.44917e+06
839329
8.24886e+06
920846
7.99973e+06
1.02621e+06
7.705e+06
1.17902e+06
7.36241e+06
1.36676e+06
6.99379e+06
1.48106e+06
6.65865e+06
1.37423e+06
6.39515e+06
1.00175e+06
6.20296e+06
532775
6.0978e+06
72596.6
6.15261e+06
-458964
6.4653e+06
-1.04618e+06
6.75151e+06
-1.20968e+06
6.86951e+06
-1.00585e+06
6.83082e+06
-656163
6.49893e+06
-180826
6.06724e+06
111224
5.70727e+06
158112
5.55623e+06
65757.5
5.72228e+06
-74980.2
5.91036e+06
-236079
6.0508e+06
-343651
6.13699e+06
-436606
6.21308e+06
-643793
6.27868e+06
-932091
6.32289e+06
-1.22149e+06
6.63643e+06
-1.8541e+06
6.96129e+06
-1.97784e+06
7.26514e+06
-1.86951e+06
7.81633e+06
-1.79304e+06
-2.22224e+06
9.99865e+06
476.462
14354.1
9.99566e+06
127.152
40066.2
9.98847e+06
251.193
66186.8
9.97704e+06
202.448
93791
9.96165e+06
265.448
121963
9.94215e+06
470.129
151219
9.91895e+06
725.775
181778
9.89179e+06
968.846
213396
9.86028e+06
1153.61
246679
9.82395e+06
1240.09
281311
9.78157e+06
1200.38
317689
9.7326e+06
1027.9
355492
9.67586e+06
729.686
394785
9.61035e+06
311.224
436337
9.53558e+06
-131.111
480299
9.45245e+06
-493.329
528381
9.36439e+06
-127.492
580199
9.26629e+06
2632.76
642614
9.1485e+06
6502.36
697926
9.02138e+06
1664.27
739710
8.89192e+06
1409.41
780006
8.75659e+06
1077.75
829697
8.61127e+06
-3303.53
914098
8.44398e+06
-4251.84
1.0179e+06
8.23284e+06
-8186.2
1.14681e+06
7.96207e+06
-7662.63
1.29593e+06
7.64001e+06
-1671.29
1.46988e+06
7.29638e+06
3949
1.67327e+06
6.94403e+06
5430.58
1.80899e+06
6.5875e+06
8541.13
1.69709e+06
6.22414e+06
15901.5
1.31226e+06
5.83465e+06
34812.8
823484
5.36729e+06
78655.1
330363
4.68083e+06
270741
-292077
2.3058e+06
1.07308e+06
-3589.91
1.33901e+06
466580
264697
909602
256777
401656
1.81005e+06
87935.9
-535048
2.74453e+06
-15192.7
153076
3.43991e+06
144601
-579083
3.64542e+06
65348.6
-205852
3.71463e+06
135681
203815
3.6834e+06
303612
120207
3.67077e+06
359264
-133540
3.90058e+06
318803
-478335
4.44357e+06
207067
-852155
5.01954e+06
170633
-1.23302e+06
5.52692e+06
122944
-1.67571e+06
5.95982e+06
181920
-2.01704e+06
6.08045e+06
298319
-2.29815e+06
6.1892e+06
334771
-2.63079e+06
6.17086e+06
652959
-3.45563e+06
4.81054e+06
799736
-2.76737e+06
402886
-3.29582e+06
9.99936e+06
14354.5
9.99564e+06
40063.9
9.9881e+06
66157.8
9.97634e+06
93765.5
9.96073e+06
121965
9.94123e+06
151258
9.91817e+06
181850
9.89124e+06
213489
9.85993e+06
246773
9.82373e+06
281383
9.78138e+06
317714
9.73233e+06
355453
9.67541e+06
394694
9.6096e+06
436213
9.5347e+06
480273
9.45145e+06
528474
9.36483e+06
581153
9.27885e+06
640397
9.17545e+06
696349
9.04243e+06
744040
8.90165e+06
789949
8.75576e+06
843741
8.60354e+06
909771
8.42171e+06
1.01926e+06
8.20117e+06
1.13491e+06
7.93219e+06
1.28812e+06
7.6377e+06
1.47171e+06
7.3235e+06
1.6843e+06
6.99005e+06
1.81937e+06
6.65199e+06
1.72062e+06
6.32572e+06
1.34392e+06
6.0224e+06
871668
5.74396e+06
429646
5.59564e+06
-36232.3
6.30346e+06
-673533
6.03599e+06
-476376
5.60841e+06
-313950
5.12631e+06
-88555.7
4.84096e+06
87854.5
4.75398e+06
358296
4.41733e+06
588617
4.24606e+06
472058
4.23934e+06
412066
4.32074e+06
290021
4.47078e+06
114551
4.68948e+06
-165014
4.9961e+06
-547857
5.30845e+06
-954314
5.63765e+06
-1.31699e+06
5.75789e+06
-1.66156e+06
5.91414e+06
-1.8822e+06
6.64908e+06
-2.24739e+06
7.24639e+06
-1.79959e+06
-2.15164e+06
9.99865e+06
470.778
16499
9.99593e+06
131.657
45645.6
9.98926e+06
262.502
75288.7
9.9786e+06
218.661
106828
9.96419e+06
283.067
138988
9.94588e+06
482.921
172708
9.924e+06
727.665
207626
9.89831e+06
952.988
243910
9.86854e+06
1113.08
281867
9.83342e+06
1170.09
321985
9.79289e+06
1101.76
363331
9.74569e+06
913.863
406799
9.69091e+06
632.077
452275
9.62839e+06
295.25
500139
9.55807e+06
-18.7393
550898
9.48152e+06
-112.952
605332
9.39999e+06
212.926
663676
9.31894e+06
1676.02
727366
9.23102e+06
2803.83
792571
9.12544e+06
2380.1
856195
8.99603e+06
2259.46
922096
8.83567e+06
2689.94
1.00042e+06
8.66286e+06
2121.81
1.09104e+06
8.48665e+06
-7322.64
1.20412e+06
8.28075e+06
-14737.7
1.36945e+06
8.01984e+06
-15121.9
1.57378e+06
7.71564e+06
-853.618
1.77558e+06
7.39337e+06
11186
1.98329e+06
7.04985e+06
11056.7
2.14029e+06
6.65315e+06
12633.1
2.08079e+06
6.20541e+06
26826.8
1.73343e+06
5.66684e+06
53008.8
1.31021e+06
4.7802e+06
145629
1.07168e+06
2.25473e+06
733753
1.50064e+06
-815252
1.04909e+06
2.00942e+06
-870569
15563.9
304783
-514591
-22136.4
114083
-709428
58890.6
-245328
-114484
96624.7
-383510
784241
16435.5
-1.23255e+06
1.53804e+06
-50885
-759791
1.84518e+06
277499
-138221
2.224e+06
294720
-315892
2.97248e+06
113361
-734787
3.92148e+06
6730.59
-1.15218e+06
4.8809e+06
-30110.9
-1.49573e+06
5.67762e+06
-36525.1
-1.72668e+06
6.22613e+06
-45894.3
-1.99612e+06
6.48919e+06
619.237
-2.21484e+06
6.41085e+06
71437.8
-2.3454e+06
5.50319e+06
295491
-2.23657e+06
1.55638e+06
1.21303e+06
-1.3604e+06
-1.65896e+06
908589
-965635
1.70577e+06
-1.20761e+06
9.99937e+06
16492.8
9.99591e+06
45642.3
9.9889e+06
75272.1
9.97792e+06
106815
9.9633e+06
138993
9.94497e+06
172737
9.92325e+06
207676
9.89775e+06
243970
9.86817e+06
281925
9.83316e+06
322025
9.79265e+06
363345
9.74537e+06
406786
9.69047e+06
452259
9.62778e+06
500154
9.55738e+06
551032
9.48101e+06
605549
9.4006e+06
664053
9.32055e+06
726641
9.23468e+06
792165
9.13121e+06
858379
9.00484e+06
928916
8.85246e+06
1.00829e+06
8.67121e+06
1.09972e+06
8.46998e+06
1.21464e+06
8.24646e+06
1.34481e+06
7.98012e+06
1.54028e+06
7.70324e+06
1.74795e+06
7.42266e+06
1.97567e+06
7.11146e+06
2.14112e+06
6.74615e+06
2.09852e+06
6.34356e+06
1.77395e+06
5.93569e+06
1.33281e+06
5.50586e+06
1.00654e+06
5.08091e+06
1.11901e+06
3.2423e+06
2.19939e+06
1.33903e+06
1.44538e+06
233478
801721
121112
261850
655135
-143175
1.54356e+06
-348906
1.72412e+06
514960
1.55263e+06
1.11745e+06
1.71409e+06
766537
2.29032e+06
47015.5
3.09144e+06
-459957
3.91865e+06
-804157
4.66178e+06
-1.14573e+06
5.26231e+06
-1.47988e+06
5.73355e+06
-1.76743e+06
6.0415e+06
-1.95433e+06
6.26651e+06
-2.00885e+06
6.69757e+06
-1.7204e+06
7.44341e+06
-1.75312e+06
-2.17999e+06
9.99872e+06
464.088
18549.5
9.99628e+06
131.528
50912.6
9.99024e+06
255.605
83784.6
9.98046e+06
217.652
118993
9.96707e+06
282.091
154973
9.95019e+06
473.918
192678
9.93004e+06
703.873
231577
9.90592e+06
908.928
272555
9.87764e+06
1046.54
315159
9.84482e+06
1083.91
359899
9.80613e+06
1009.77
406712
9.76108e+06
840.613
455729
9.7091e+06
618.741
507157
9.64989e+06
392.596
561375
9.58389e+06
220.162
618421
9.51216e+06
214.426
678882
9.43597e+06
408.57
742484
9.35759e+06
776.646
809547
9.27559e+06
703.657
880068
9.18597e+06
192.536
953990
9.08376e+06
-68.468
1.03411e+06
8.96e+06
973.73
1.13041e+06
8.80304e+06
4868.8
1.24909e+06
8.6147e+06
-2721.36
1.39543e+06
8.41484e+06
-16829.4
1.58741e+06
8.20186e+06
-21941.9
1.81095e+06
7.96828e+06
-7285.81
2.01801e+06
7.68066e+06
12504.9
2.25889e+06
7.33042e+06
20241
2.46917e+06
6.90247e+06
16995.6
2.4915e+06
6.44484e+06
23537.6
2.16838e+06
5.96334e+06
37691.6
1.75486e+06
5.40599e+06
77551.7
1.55073e+06
4.50122e+06
460139
1.93167e+06
2.10973e+06
947928
3.42891e+06
372730
300265
1.76372e+06
227211
-137442
586843
272163
-122698
129192
966298
-348564
-336326
1.42701e+06
-520354
-772088
2.01273e+06
-267981
-786288
2.8704e+06
-5613.27
-822542
3.68813e+06
-81086.6
-955305
4.52497e+06
-269274
-1.22533e+06
5.31227e+06
-314348
-1.53142e+06
5.93055e+06
-234711
-1.72598e+06
6.36453e+06
-144206
-1.84016e+06
6.61784e+06
-108637
-2.00651e+06
6.77361e+06
-106028
-2.19164e+06
6.81941e+06
-73698.7
-2.33896e+06
6.65615e+06
24146.1
-2.37544e+06
7.11114e+06
187681
-2.27917e+06
8.01184e+06
226130
-2.24317e+06
666677
-3.12013e+06
9.99942e+06
18552.7
9.99628e+06
50908.8
9.9899e+06
83748.6
9.97981e+06
118959
9.96621e+06
154967
9.94932e+06
192707
9.9293e+06
231635
9.90536e+06
272629
9.87726e+06
315230
9.84454e+06
359948
9.80587e+06
406725
9.76077e+06
455701
9.70872e+06
507099
9.64945e+06
561319
9.58351e+06
618400
9.51193e+06
678896
9.43608e+06
742585
9.35701e+06
809691
9.2739e+06
880231
9.18394e+06
953829
9.08344e+06
1.03494e+06
8.96842e+06
1.12946e+06
8.81752e+06
1.25611e+06
8.62653e+06
1.40309e+06
8.40243e+06
1.55392e+06
8.15319e+06
1.76924e+06
7.89862e+06
1.99756e+06
7.64891e+06
2.2374e+06
7.38681e+06
2.42266e+06
7.0336e+06
2.46859e+06
6.58407e+06
2.24795e+06
6.12853e+06
1.82654e+06
5.66278e+06
1.54479e+06
5.48634e+06
1.73606e+06
5.95965e+06
2.65457e+06
4.99389e+06
2.7117e+06
3.66813e+06
2.03853e+06
2.70815e+06
1.22446e+06
1.81971e+06
587088
955502
200643
1.00057e+06
374237
2.04068e+06
190437
3.25818e+06
-460144
4.15018e+06
-1.05912e+06
4.7852e+06
-1.32549e+06
5.2558e+06
-1.3948e+06
5.63061e+06
-1.54185e+06
5.93252e+06
-1.79598e+06
6.14329e+06
-2.04234e+06
6.2963e+06
-2.25122e+06
6.41566e+06
-2.29834e+06
7.01197e+06
-2.27672e+06
7.87181e+06
-2.50902e+06
-2.81129e+06
9.99877e+06
458.476
20517
9.99674e+06
135.912
55731.9
9.99141e+06
265.834
91514.9
9.98263e+06
229.115
130114
9.97051e+06
289.524
169634
9.95513e+06
469.691
211050
9.93649e+06
682.597
253860
9.91447e+06
867.295
298859
9.88827e+06
983.988
346039
9.85748e+06
1004.99
395369
9.82145e+06
924.619
446998
9.77905e+06
765.312
501614
9.73e+06
573.295
558819
9.67446e+06
398.186
618790
9.61237e+06
269.277
681947
9.54472e+06
223.095
747926
9.47214e+06
238.115
816691
9.39592e+06
248.938
887744
9.31693e+06
95.4526
960961
9.23535e+06
-234.504
1.03768e+06
9.15046e+06
-599.673
1.12037e+06
9.06451e+06
-252.961
1.21645e+06
8.96403e+06
406.3
1.34503e+06
8.80906e+06
20408.1
1.52696e+06
8.61175e+06
25488.7
1.76122e+06
8.42826e+06
-3407.07
1.99917e+06
8.2683e+06
-21960.6
2.20232e+06
8.10444e+06
-23120.6
2.44151e+06
7.90929e+06
-4234.29
2.66126e+06
7.56181e+06
28815.3
2.80524e+06
6.98224e+06
50146.9
2.69606e+06
6.29493e+06
50285.8
2.3869e+06
5.69763e+06
64651.7
2.07718e+06
5.53315e+06
104864
1.96185e+06
5.69694e+06
349588
2.89627e+06
4.68115e+06
138651
2.65555e+06
3.77469e+06
-109463
1.70603e+06
3.46317e+06
-183692
814163
3.55136e+06
-344886
169793
3.79572e+06
-376046
-386848
4.27749e+06
-253904
-780005
4.76216e+06
-191540
-939527
5.26071e+06
-341248
-1.02445e+06
5.79651e+06
-491138
-1.25219e+06
6.187e+06
-414275
-1.4755e+06
6.37395e+06
-251378
-1.5786e+06
6.49444e+06
-150528
-1.66866e+06
6.60721e+06
-109118
-1.84841e+06
6.71577e+06
-97376.6
-2.10157e+06
6.79239e+06
-87411.2
-2.36834e+06
6.86095e+06
-18616.8
-2.47679e+06
7.03596e+06
55015.5
-2.56089e+06
7.3004e+06
85863.4
-2.56757e+06
757977
-3.49813e+06
9.99948e+06
20511.5
9.99674e+06
55723.4
9.99108e+06
91492.5
9.98199e+06
130093
9.96966e+06
169629
9.95428e+06
211065
9.93576e+06
253892
9.91391e+06
298899
9.88786e+06
346075
9.85717e+06
395392
9.82116e+06
447000
9.77874e+06
501591
9.72966e+06
558770
9.6741e+06
618712
9.61204e+06
681837
9.54445e+06
747765
9.47189e+06
816474
9.39539e+06
887343
9.31598e+06
960284
9.23357e+06
1.03637e+06
9.14854e+06
1.11871e+06
9.06018e+06
1.21489e+06
8.96902e+06
1.34438e+06
8.87681e+06
1.51618e+06
8.72274e+06
1.7361e+06
8.51397e+06
1.97692e+06
8.27246e+06
2.21436e+06
8.02719e+06
2.45376e+06
7.80321e+06
2.63686e+06
7.56564e+06
2.73044e+06
7.17037e+06
2.68779e+06
6.5856e+06
2.45245e+06
5.99346e+06
2.18536e+06
5.71241e+06
2.10085e+06
6.26363e+06
2.44591e+06
6.56136e+06
2.57803e+06
6.34705e+06
2.20604e+06
5.88302e+06
1.60368e+06
5.27704e+06
980063
4.84374e+06
418604
5.03854e+06
93627.6
5.47921e+06
-322988
5.6336e+06
-901230
5.45913e+06
-1.35182e+06
5.22511e+06
-1.47913e+06
5.14657e+06
-1.49265e+06
5.27335e+06
-1.69241e+06
5.51418e+06
-2.00582e+06
5.74867e+06
-2.28361e+06
5.97666e+06
-2.56956e+06
6.32055e+06
-2.67854e+06
6.77407e+06
-2.72635e+06
7.06809e+06
-2.71024e+06
-3.46368e+06
9.9989e+06
453.667
22317.4
9.99726e+06
128.957
60108.2
9.99272e+06
249.111
98429
9.98505e+06
215.42
140061
9.97435e+06
271.282
182768
9.96066e+06
439.006
227548
9.94395e+06
634.591
273919
9.92398e+06
800.882
322729
9.90023e+06
902.175
374017
9.87205e+06
916.141
427784
9.83867e+06
839.711
484226
9.79948e+06
694.851
543944
9.75389e+06
521.381
606700
9.70156e+06
353.112
672560
9.64289e+06
208.95
741307
9.57804e+06
67.6086
812658
9.50824e+06
-66.5103
885732
9.43426e+06
-269.806
959662
9.35882e+06
-573.558
1.0332e+06
9.28493e+06
-963.566
1.10625e+06
9.21716e+06
-1773.25
1.18148e+06
9.16853e+06
-1266.08
1.25774e+06
9.12234e+06
-2977.49
1.38711e+06
9.07343e+06
10242.1
1.56595e+06
8.95015e+06
45194.3
1.83891e+06
8.77931e+06
34860.7
2.1329e+06
8.61143e+06
-10033.9
2.36992e+06
8.46645e+06
-30404.6
2.60169e+06
8.33164e+06
-22933.6
2.80255e+06
8.16186e+06
-331.196
2.95904e+06
7.81265e+06
13862.8
3.01331e+06
7.20028e+06
34717.4
2.94725e+06
6.5e+06
58924.4
2.69762e+06
5.97976e+06
16889.3
2.45233e+06
6.22503e+06
80721.8
2.5775e+06
6.3034e+06
72206.7
2.5518e+06
6.01204e+06
7872.23
2.08594e+06
5.70717e+06
-93182.9
1.36326e+06
5.57366e+06
-174264
690138
5.57711e+06
-168097
53041.8
5.68272e+06
-118909
-489524
5.87121e+06
-136963
-793651
6.19589e+06
-348943
-925807
6.51863e+06
-454873
-1.10999e+06
6.57377e+06
-252006
-1.286e+06
6.51284e+06
-54255.3
-1.40923e+06
6.61327e+06
-26660.6
-1.59329e+06
6.82337e+06
-16651.1
-1.83184e+06
7.0197e+06
-5166.08
-2.09143e+06
7.18548e+06
6303.18
-2.38519e+06
7.37962e+06
57844.3
-2.61239e+06
7.67088e+06
90538.6
-2.73572e+06
7.74748e+06
60961.4
-2.59867e+06
751734
-3.15809e+06
9.99958e+06
22324.1
9.99727e+06
60103.3
9.9924e+06
98389.9
9.98444e+06
140025
9.97354e+06
182757
9.95983e+06
227569
9.94324e+06
273964
9.92342e+06
322785
9.89982e+06
374067
9.87173e+06
427811
9.83837e+06
484217
9.79917e+06
543892
9.75355e+06
606600
9.70121e+06
672410
9.64252e+06
741102
9.57771e+06
812385
9.50775e+06
885337
9.43366e+06
959094
9.35773e+06
1.03235e+06
9.283e+06
1.10502e+06
9.21393e+06
1.17962e+06
9.15762e+06
1.26279e+06
9.11829e+06
1.37751e+06
9.09726e+06
1.54557e+06
9.07131e+06
1.80648e+06
8.96666e+06
2.11042e+06
8.76459e+06
2.39453e+06
8.53501e+06
2.64045e+06
8.31581e+06
2.82215e+06
8.10099e+06
2.935e+06
7.81581e+06
2.97665e+06
7.37215e+06
2.91853e+06
6.81449e+06
2.7902e+06
6.28089e+06
2.64886e+06
6.23353e+06
2.59137e+06
6.45788e+06
2.46774e+06
6.62625e+06
2.11486e+06
6.62354e+06
1.61264e+06
6.51093e+06
1.05801e+06
6.4729e+06
467348
6.59992e+06
19380.3
6.53486e+06
-284258
5.99993e+06
-666527
5.21919e+06
-1.0239e+06
4.79859e+06
-1.29004e+06
4.9376e+06
-1.59492e+06
5.32396e+06
-1.93974e+06
5.7182e+06
-2.2125e+06
6.0906e+06
-2.49434e+06
6.44733e+06
-2.82873e+06
6.9202e+06
-3.02471e+06
7.49252e+06
-3.11178e+06
8.02353e+06
-2.98702e+06
-4.0227e+06
9.999e+06
448.862
23986.4
9.99789e+06
132.862
63904.2
9.99422e+06
258.283
104392
9.98776e+06
222.77
148709
9.97861e+06
271.313
194244
9.96678e+06
424.111
242025
9.95201e+06
600.521
291809
9.93443e+06
746.499
343886
9.91357e+06
829.709
398705
9.88835e+06
830.625
456766
9.858e+06
748.075
517893
9.82216e+06
600.256
582330
9.77993e+06
420.156
650527
9.73114e+06
230.855
721891
9.67514e+06
42.1768
796729
9.6124e+06
-177.198
873624
9.54328e+06
-440.164
951549
9.46963e+06
-820.338
1.02825e+06
9.39434e+06
-1243.27
1.10089e+06
9.32448e+06
-1886.78
1.16635e+06
9.27111e+06
-2936.12
1.22358e+06
9.23383e+06
3452.18
1.27805e+06
9.23343e+06
6628.69
1.3769e+06
9.30049e+06
573.02
1.49157e+06
9.32772e+06
20309.1
1.78538e+06
9.22176e+06
26917.6
2.19904e+06
9.00278e+06
6272.33
2.56671e+06
8.774e+06
-8108.57
2.82852e+06
8.57134e+06
-12054.4
3.01453e+06
8.38514e+06
-9307.85
3.15617e+06
8.15989e+06
-8008.57
3.24776e+06
7.82833e+06
-4026.1
3.28069e+06
7.31893e+06
-3526.81
3.2093e+06
6.73937e+06
-9224.28
3.05215e+06
6.48195e+06
11706.6
2.85862e+06
6.45656e+06
27591.1
2.60789e+06
6.42042e+06
29438.6
2.17716e+06
6.30639e+06
-118.277
1.59219e+06
6.23012e+06
-41691.5
970526
6.21766e+06
-84254
346398
6.20161e+06
-54943.7
-234730
6.25706e+06
-12927.2
-714175
6.50256e+06
-117517
-989496
6.76597e+06
-176573
-1.1903e+06
6.86259e+06
8868.02
-1.39987e+06
6.92979e+06
128893
-1.59122e+06
7.0646e+06
141489
-1.80569e+06
7.26716e+06
135685
-2.05224e+06
7.48466e+06
111506
-2.30439e+06
7.67142e+06
96947.8
-2.55496e+06
7.9556e+06
75293.4
-2.77905e+06
8.36586e+06
54716
-2.94131e+06
9.14338e+06
28314.1
-2.9801e+06
266904
-3.20196e+06
9.9997e+06
23981.4
9.9979e+06
63889.1
9.99391e+06
104364
9.98716e+06
148681
9.97781e+06
194228
9.96596e+06
242024
9.95129e+06
291819
9.93387e+06
343897
9.91315e+06
398706
9.888e+06
456746
9.85767e+06
517839
9.82182e+06
582231
9.77955e+06
650365
9.73072e+06
721651
9.6747e+06
796377
9.61187e+06
873130
9.54259e+06
950874
9.46852e+06
1.02735e+06
9.39265e+06
1.09975e+06
9.32124e+06
1.16527e+06
9.26385e+06
1.22313e+06
9.24186e+06
1.28027e+06
9.26347e+06
1.35432e+06
9.32087e+06
1.48547e+06
9.35409e+06
1.78373e+06
9.26946e+06
2.2075e+06
9.08114e+06
2.57701e+06
8.86969e+06
2.83744e+06
8.65492e+06
3.0256e+06
8.42533e+06
3.16001e+06
8.16008e+06
3.23923e+06
7.82335e+06
3.25555e+06
7.4004e+06
3.21714e+06
6.93712e+06
3.12113e+06
6.61225e+06
2.95867e+06
6.46773e+06
2.686e+06
6.41754e+06
2.25459e+06
6.38737e+06
1.72163e+06
6.35184e+06
1.15319e+06
6.30885e+06
541859
6.42433e+06
-51702
6.64387e+06
-456866
6.55631e+06
-675028
6.30604e+06
-943221
6.38097e+06
-1.35121e+06
6.62076e+06
-1.68846e+06
6.8527e+06