/*--------------------------------*- C++ -*----------------------------------*\
| =========                 |                                                 |
| \\      /  F ield         | OpenFOAM: The Open Source CFD Toolbox           |
|  \\    /   O peration     | Version:  4.1                                   |
|   \\  /    A nd           | Web:      www.OpenFOAM.org                      |
|    \\/     M anipulation  |                                                 |
\*---------------------------------------------------------------------------*/
FoamFile
{
    version     2.0;
    format      ascii;
    class       volScalarField;
    location    "7";
    object      epsilon;
}
// * * * * * * * * * * * * * * * * * * * * * * * * * * * * * * * * * * * * * //

dimensions      [0 2 -3 0 0 0 0];

internalField   nonuniform List<scalar> 
4432
(
0.000387266
0.000427548
0.000479156
0.000538019
0.000585853
0.000650241
0.000698019
0.000743732
0.000795287
0.00083087
0.000871708
0.000955095
0.0010062
0.00106694
0.00112502
0.0011719
0.00122722
0.00123745
0.00139201
0.00147064
0.00160971
0.00175609
0.00208059
0.00259719
0.00245428
0.00234393
0.00225236
0.00202651
0.00227178
0.00222506
0.00193716
0.00197176
0.00198146
0.0021807
0.00247569
0.00230235
0.00147644
0.00159596
0.00138695
0.00129065
0.00110883
0.000912345
0.000701203
0.000395485
0.00038369
0.000413384
0.000317267
0.000561376
0.000386886
0.000375734
0.000732274
0.00133157
0.00239436
0.00354747
0.000388003
0.000426439
0.000478006
0.000529057
0.000589908
0.000632446
0.000693675
0.000737775
0.000786188
0.000825698
0.000896972
0.000944702
0.000989472
0.00102866
0.00105249
0.00115096
0.00119037
0.00116208
0.00128415
0.00133806
0.00143181
0.00152458
0.00173762
0.00197405
0.00181313
0.0016988
0.0014451
0.00181179
0.00183196
0.00177521
0.00159586
0.00164533
0.00169083
0.0019364
0.0022902
0.00214007
0.0013681
0.00154829
0.00132625
0.00116672
0.00102641
0.000866078
0.000670567
0.000430902
0.000382544
0.000524894
0.000510308
0.0004339
0.000371103
0.000360275
0.000692032
0.00123698
0.00226014
0.00366321
0.0225591
7.61403e-05
1.29799e-05
4.73888e-06
4.34923e-06
4.73237e-06
6.57937e-06
8.67209e-06
1.05609e-05
1.80486e-05
2.31132e-05
2.7324e-05
4.9411e-05
6.72471e-05
6.42193e-05
6.9878e-05
0.000115781
0.000137833
0.000383973
0.000724649
0.000844037
0.000987282
0.00151491
0.00211549
0.00147548
0.0017838
0.00217097
0.0024431
0.00210619
0.00158917
0.00142458
0.00235437
0.00329504
0.00399486
0.000998385
0.00064067
0.000436339
0.000375803
0.00031557
0.000242258
0.000290851
0.000296719
0.000369637
0.000468819
0.00068777
0.00121756
0.00191576
0.00260003
0.00849296
0.0142882
0.0303141
0.0640116
0.0841343
0.109179
0.0225591
7.52833e-05
1.21047e-05
4.24803e-06
3.50246e-06
4.16671e-06
5.61116e-06
7.40722e-06
1.12203e-05
1.52524e-05
1.43483e-05
3.77766e-05
2.62627e-05
7.34603e-05
6.69717e-05
5.27555e-05
0.000159538
0.000154711
0.00036861
0.000693266
0.000764285
0.000919488
0.00144993
0.00196549
0.0013157
0.00167793
0.00202565
0.0023609
0.0018148
0.00145475
0.00137358
0.00220847
0.00297138
0.00338721
0.000651361
0.000539512
0.000191068
0.000159696
0.000146534
0.000161011
0.000173136
0.000200027
0.000247182
0.000350389
0.000590074
0.00113361
0.00201904
0.00361194
0.00691313
0.0138303
0.0297609
0.0668947
0.0908536
0.118788
0.0225234
5.2579e-05
1.54065e-06
1.48899e-06
1.4903e-06
1.48939e-06
1.48939e-06
1.49117e-06
1.49121e-06
1.49143e-06
1.49366e-06
1.4919e-06
1.49192e-06
1.49427e-06
1.49773e-06
1.50598e-06
1.52938e-06
1.62537e-06
2.09211e-06
3.64811e-06
8.1579e-06
3.64725e-05
0.000186067
0.000377791
0.000161413
0.000231863
0.000273446
0.000390741
0.000523824
0.00049138
0.000419895
0.000629573
0.000804435
0.000985025
0.000174791
0.000114109
3.44559e-05
8.73779e-06
7.42552e-06
5.20329e-06
4.508e-06
3.7195e-06
2.50602e-06
2.76349e-06
4.87202e-06
6.9578e-05
0.00016266
2.70334e-05
2.78322e-05
4.26725e-05
0.00026325
0.00186129
0.00558888
0.00699338
0.022524
5.25444e-05
1.54026e-06
1.48878e-06
1.49013e-06
1.4893e-06
1.48929e-06
1.49114e-06
1.49118e-06
1.49137e-06
1.49363e-06
1.49162e-06
1.4913e-06
1.49381e-06
1.49644e-06
1.50405e-06
1.53153e-06
1.6059e-06
2.05225e-06
3.46736e-06
7.54751e-06
3.19343e-05
0.000173649
0.000336617
0.000128783
0.000207061
0.000231105
0.000351998
0.000453419
0.00043847
0.000380664
0.000534491
0.000635002
0.000724702
0.000120594
7.10785e-05
3.9885e-06
4.02493e-06
1.53937e-06
1.66591e-06
1.53765e-06
1.53009e-06
1.51386e-06
1.53218e-06
1.60573e-06
2.47666e-06
4.4903e-06
0.000303928
2.18278e-06
4.76263e-05
0.000411145
0.00237755
0.00600452
0.00705927
0.0225236
5.2579e-05
1.54047e-06
1.4883e-06
1.48894e-06
1.48983e-06
1.48977e-06
1.4916e-06
1.49106e-06
1.49101e-06
1.49288e-06
1.49139e-06
1.4908e-06
1.49141e-06
1.49144e-06
1.49222e-06
1.49393e-06
1.49162e-06
1.4909e-06
1.49246e-06
1.49374e-06
1.49862e-06
1.55883e-06
2.55358e-06
1.78653e-06
2.57802e-06
5.95983e-06
1.92177e-05
5.50415e-05
6.72737e-05
9.75657e-05
0.00011668
9.05731e-05
0.000134007
1.19398e-05
8.46108e-06
1.62864e-06
1.53576e-06
1.5083e-06
1.50208e-06
1.50915e-06
1.5041e-06
1.50254e-06
1.50734e-06
1.50077e-06
1.51026e-06
1.54312e-06
1.51827e-06
1.49989e-06
1.53723e-06
1.7707e-06
2.60744e-06
0.000466255
0.000583555
0.0225242
5.25442e-05
1.54011e-06
1.48809e-06
1.48872e-06
1.48978e-06
1.49105e-06
1.49073e-06
1.49068e-06
1.4933e-06
1.49141e-06
1.48992e-06
1.49039e-06
1.49089e-06
1.49351e-06
1.49149e-06
1.49087e-06
1.49136e-06
1.4921e-06
1.49503e-06
1.4925e-06
1.49848e-06
1.55953e-06
2.42854e-06
1.69701e-06
2.38283e-06
4.31533e-06
1.94108e-05
3.84396e-05
4.7158e-05
7.03516e-05
7.93376e-05
0.000107067
6.97972e-05
6.19047e-06
2.89113e-06
1.50942e-06
1.51378e-06
1.49799e-06
1.49952e-06
1.5076e-06
1.5071e-06
1.50816e-06
1.50531e-06
1.50203e-06
1.5014e-06
1.49898e-06
1.49924e-06
1.51307e-06
1.56932e-06
1.88156e-06
4.75488e-06
1.88559e-06
0.000589368
0.0225236
5.25798e-05
1.5405e-06
1.48899e-06
1.49032e-06
1.4894e-06
1.48936e-06
1.49038e-06
1.49233e-06
1.49173e-06
1.49155e-06
1.49471e-06
1.49099e-06
1.49019e-06
1.4925e-06
1.49219e-06
1.49231e-06
1.49282e-06
1.49291e-06
1.49347e-06
1.49145e-06
1.49098e-06
1.49162e-06
1.49358e-06
1.49272e-06
1.49342e-06
1.4972e-06
1.53276e-06
1.81928e-06
1.5689e-06
1.67968e-06
2.49132e-06
3.6492e-06
1.13025e-05
8.09153e-07
1.52269e-06
1.49723e-06
1.49452e-06
1.49415e-06
1.49449e-06
1.49634e-06
1.49463e-06
1.49643e-06
1.50156e-06
1.50352e-06
1.50842e-06
1.50085e-06
1.50035e-06
1.51005e-06
1.50743e-06
1.51362e-06
1.50809e-06
1.6839e-06
9.28024e-06
0.0225242
5.25436e-05
1.54059e-06
1.48881e-06
1.49014e-06
1.48934e-06
1.48926e-06
1.49046e-06
1.49043e-06
1.49076e-06
1.49268e-06
1.49167e-06
1.49094e-06
1.4937e-06
1.49304e-06
1.49308e-06
1.49438e-06
1.49093e-06
1.49043e-06
1.49249e-06
1.49254e-06
1.49357e-06
1.4937e-06
1.49469e-06
1.49212e-06
1.49128e-06
1.49478e-06
1.52952e-06
1.58929e-06
1.54263e-06
1.69533e-06
1.81219e-06
3.3934e-06
5.24457e-06
1.5969e-06
1.49709e-06
1.49451e-06
1.4959e-06
1.49468e-06
1.4949e-06
1.49671e-06
1.49399e-06
1.4989e-06
1.50594e-06
1.50073e-06
1.50298e-06
1.49808e-06
1.50598e-06
1.51471e-06
1.51197e-06
1.51082e-06
1.87905e-06
1.84574e-06
1.1253e-05
0.0225233
5.25796e-05
1.5425e-06
1.49049e-06
1.4904e-06
1.49107e-06
1.49176e-06
1.49179e-06
1.49378e-06
1.49157e-06
1.49129e-06
1.49474e-06
1.49106e-06
1.4903e-06
1.49211e-06
1.49199e-06
1.49267e-06
1.49217e-06
1.4922e-06
1.49361e-06
1.49155e-06
1.49141e-06
1.49248e-06
1.49251e-06
1.49291e-06
1.49337e-06
1.49568e-06
1.49512e-06
1.49722e-06
1.49516e-06
1.49297e-06
1.49316e-06
1.49887e-06
1.51795e-06
1.49567e-06
1.49477e-06
1.4922e-06
1.49212e-06
1.49354e-06
1.49314e-06
1.49328e-06
1.49417e-06
1.49976e-06
1.50737e-06
1.51104e-06
1.50899e-06
1.4983e-06
1.49952e-06
1.50055e-06
1.5001e-06
1.51284e-06
1.51244e-06
2.06841e-06
1.13103e-05
0.0225239
5.25448e-05
1.54212e-06
1.49027e-06
1.48947e-06
1.49014e-06
1.49069e-06
1.49075e-06
1.49357e-06
1.49143e-06
1.49129e-06
1.49445e-06
1.49267e-06
1.49264e-06
1.49072e-06
1.49021e-06
1.49138e-06
1.49137e-06
1.49239e-06
1.49258e-06
1.49138e-06
1.49093e-06
1.49245e-06
1.49258e-06
1.49211e-06
1.49244e-06
1.4951e-06
1.49562e-06
1.49408e-06
1.49637e-06
1.49243e-06
1.49285e-06
1.5077e-06
1.50597e-06
1.49347e-06
1.49255e-06
1.49402e-06
1.4919e-06
1.49278e-06
1.49265e-06
1.49252e-06
1.49381e-06
1.49533e-06
1.50023e-06
1.49677e-06
1.49895e-06
1.49804e-06
1.50083e-06
1.49886e-06
1.49746e-06
1.50684e-06
1.52147e-06
2.0428e-06
1.08618e-05
0.0225231
5.25805e-05
1.54253e-06
1.49049e-06
1.49042e-06
1.49108e-06
1.49316e-06
1.49102e-06
1.49096e-06
1.49503e-06
1.49099e-06
1.49104e-06
1.49492e-06
1.49172e-06
1.49108e-06
1.49202e-06
1.49301e-06
1.49145e-06
1.49084e-06
1.49455e-06
1.49445e-06
1.49368e-06
1.49349e-06
1.49425e-06
1.49417e-06
1.49514e-06
1.49401e-06
1.49455e-06
1.49781e-06
1.49621e-06
1.4929e-06
1.4929e-06
1.49711e-06
1.49749e-06
1.4957e-06
1.49843e-06
1.49385e-06
1.49424e-06
1.49705e-06
1.49742e-06
1.49397e-06
1.49781e-06
1.49825e-06
1.49823e-06
1.49933e-06
1.49803e-06
1.49977e-06
1.49832e-06
1.49592e-06
1.49441e-06
1.50145e-06
1.51018e-06
1.59367e-06
4.52587e-06
0.0225237
5.25461e-05
1.54216e-06
1.49027e-06
1.48949e-06
1.49014e-06
1.49088e-06
1.49144e-06
1.49207e-06
1.49339e-06
1.49071e-06
1.49074e-06
1.49454e-06
1.49147e-06
1.49073e-06
1.49166e-06
1.49276e-06
1.4911e-06
1.49055e-06
1.49372e-06
1.49124e-06
1.49118e-06
1.49246e-06
1.49238e-06
1.4916e-06
1.49222e-06
1.49403e-06
1.49466e-06
1.49353e-06
1.49452e-06
1.49345e-06
1.49673e-06
1.49473e-06
1.49707e-06
1.49331e-06
1.49715e-06
1.49385e-06
1.49373e-06
1.49761e-06
1.49687e-06
1.49309e-06
1.49699e-06
1.49542e-06
1.49699e-06
1.49881e-06
1.49623e-06
1.49709e-06
1.50063e-06
1.49958e-06
1.49748e-06
1.50151e-06
1.51025e-06
1.61028e-06
5.14036e-06
0.0225226
5.25877e-05
1.54059e-06
1.48897e-06
1.48894e-06
1.48963e-06
1.4903e-06
1.49062e-06
1.49338e-06
1.49112e-06
1.49025e-06
1.49233e-06
1.49238e-06
1.49477e-06
1.49119e-06
1.49124e-06
1.49536e-06
1.49518e-06
1.49159e-06
1.49129e-06
1.4934e-06
1.49315e-06
1.49304e-06
1.49393e-06
1.49236e-06
1.49229e-06
1.4925e-06
1.49621e-06
1.49588e-06
1.49597e-06
1.49716e-06
1.49537e-06
1.49299e-06
1.49418e-06
1.49682e-06
1.49506e-06
1.49655e-06
1.495e-06
1.49575e-06
1.4949e-06
1.49398e-06
1.49875e-06
1.49783e-06
1.50115e-06
1.50421e-06
1.49892e-06
1.49657e-06
1.49803e-06
1.49561e-06
1.49227e-06
1.49935e-06
1.50843e-06
1.55493e-06
3.88029e-06
0.0225232
5.25534e-05
1.54023e-06
1.48808e-06
1.48872e-06
1.49013e-06
1.4901e-06
1.49043e-06
1.49313e-06
1.49085e-06
1.49e-06
1.49206e-06
1.49209e-06
1.49463e-06
1.49095e-06
1.4909e-06
1.4944e-06
1.49427e-06
1.49069e-06
1.49069e-06
1.49152e-06
1.49147e-06
1.49387e-06
1.49299e-06
1.49182e-06
1.49467e-06
1.4954e-06
1.49281e-06
1.4933e-06
1.49556e-06
1.4937e-06
1.49481e-06
1.49327e-06
1.49322e-06
1.49332e-06
1.49552e-06
1.49395e-06
1.49383e-06
1.4945e-06
1.49437e-06
1.49408e-06
1.50058e-06
1.4972e-06
1.49759e-06
1.49808e-06
1.49714e-06
1.49496e-06
1.49715e-06
1.49828e-06
1.49514e-06
1.49844e-06
1.50383e-06
1.56421e-06
3.94786e-06
0.0225223
5.25882e-05
1.5406e-06
1.48825e-06
1.48891e-06
1.49009e-06
1.49282e-06
1.49161e-06
1.49151e-06
1.49578e-06
1.49105e-06
1.49088e-06
1.4949e-06
1.49119e-06
1.49077e-06
1.49171e-06
1.49249e-06
1.49222e-06
1.49184e-06
1.49297e-06
1.49224e-06
1.49411e-06
1.49411e-06
1.49654e-06
1.492e-06
1.49139e-06
1.4931e-06
1.49341e-06
1.49534e-06
1.49556e-06
1.49625e-06
1.49349e-06
1.49182e-06
1.49289e-06
1.4958e-06
1.49499e-06
1.49643e-06
1.49576e-06
1.49488e-06
1.49546e-06
1.49901e-06
1.49954e-06
1.49978e-06
1.50118e-06
1.50441e-06
1.50098e-06
1.50049e-06
1.50177e-06
1.49954e-06
1.49258e-06
1.49973e-06
1.50941e-06
1.53092e-06
2.64254e-06
0.0225229
5.25539e-05
1.54025e-06
1.48806e-06
1.48871e-06
1.49012e-06
1.49079e-06
1.4908e-06
1.4908e-06
1.49343e-06
1.49079e-06
1.49069e-06
1.49462e-06
1.49089e-06
1.4906e-06
1.49137e-06
1.49212e-06
1.4918e-06
1.4912e-06
1.49487e-06
1.49422e-06
1.49491e-06
1.49247e-06
1.49225e-06
1.49338e-06
1.49344e-06
1.49502e-06
1.49085e-06
1.49064e-06
1.49342e-06
1.4936e-06
1.49609e-06
1.49487e-06
1.49305e-06
1.49802e-06
1.49792e-06
1.49804e-06
1.49479e-06
1.49344e-06
1.49529e-06
1.50009e-06
1.49972e-06
1.49885e-06
1.50272e-06
1.49928e-06
1.49669e-06
1.49379e-06
1.49388e-06
1.49574e-06
1.49595e-06
1.49699e-06
1.49997e-06
1.53057e-06
2.9229e-06
0.0225217
5.25932e-05
1.54062e-06
1.48825e-06
1.48889e-06
1.49006e-06
1.49275e-06
1.49141e-06
1.4913e-06
1.49553e-06
1.49531e-06
1.49076e-06
1.49033e-06
1.49423e-06
1.49054e-06
1.49066e-06
1.49247e-06
1.4927e-06
1.49497e-06
1.49169e-06
1.49088e-06
1.49387e-06
1.49385e-06
1.4953e-06
1.49257e-06
1.49191e-06
1.49439e-06
1.49238e-06
1.49328e-06
1.49484e-06
1.49484e-06
1.49315e-06
1.49387e-06
1.49673e-06
1.49838e-06
1.49829e-06
1.49627e-06
1.4999e-06
1.4996e-06
1.50005e-06
1.49831e-06
1.49542e-06
1.49772e-06
1.50172e-06
1.50566e-06
1.50154e-06
1.50156e-06
1.50818e-06
1.50184e-06
1.4956e-06
1.50086e-06
1.50719e-06
1.51829e-06
2.44748e-06
0.0225223
5.25591e-05
1.54027e-06
1.48804e-06
1.48869e-06
1.48984e-06
1.49251e-06
1.49135e-06
1.49128e-06
1.49532e-06
1.49523e-06
1.4907e-06
1.49011e-06
1.49399e-06
1.49157e-06
1.49092e-06
1.49136e-06
1.49293e-06
1.49194e-06
1.49159e-06
1.49218e-06
1.49271e-06
1.49313e-06
1.49357e-06
1.49189e-06
1.49087e-06
1.49495e-06
1.49378e-06
1.49359e-06
1.49398e-06
1.49716e-06
1.49324e-06
1.49405e-06
1.49343e-06
1.49517e-06
1.4939e-06
1.49563e-06
1.49865e-06
1.49802e-06
1.49575e-06
1.49653e-06
1.49855e-06
1.50001e-06
1.50143e-06
1.50194e-06
1.4994e-06
1.4982e-06
1.49912e-06
1.50033e-06
1.49997e-06
1.50134e-06
1.50855e-06
1.5181e-06
2.68026e-06
0.0225212
5.25935e-05
1.54068e-06
1.48825e-06
1.48888e-06
1.49029e-06
1.49027e-06
1.49029e-06
1.49097e-06
1.49161e-06
1.49358e-06
1.49105e-06
1.49043e-06
1.49108e-06
1.49177e-06
1.49116e-06
1.49002e-06
1.49078e-06
1.49088e-06
1.49365e-06
1.49115e-06
1.49031e-06
1.49048e-06
1.49073e-06
1.49213e-06
1.49223e-06
1.49449e-06
1.49232e-06
1.49224e-06
1.49616e-06
1.49644e-06
1.49507e-06
1.49368e-06
1.49841e-06
1.49707e-06
1.49791e-06
1.49994e-06
1.49559e-06
1.4962e-06
1.4972e-06
1.49701e-06
1.49689e-06
1.49924e-06
1.50208e-06
1.50285e-06
1.50107e-06
1.49933e-06
1.50332e-06
1.50338e-06
1.50409e-06
1.50722e-06
1.51812e-06
1.50965e-06
1.51871e-06
0.0225217
5.25595e-05
1.54033e-06
1.48804e-06
1.48868e-06
1.49006e-06
1.49007e-06
1.4901e-06
1.49073e-06
1.49142e-06
1.49337e-06
1.49082e-06
1.49017e-06
1.49079e-06
1.49146e-06
1.49095e-06
1.49073e-06
1.49442e-06
1.49418e-06
1.49077e-06
1.48961e-06
1.49128e-06
1.4912e-06
1.49246e-06
1.49247e-06
1.49238e-06
1.49523e-06
1.49242e-06
1.4933e-06
1.49518e-06
1.49241e-06
1.4922e-06
1.49653e-06
1.49534e-06
1.49511e-06
1.49467e-06
1.49995e-06
1.49521e-06
1.49577e-06
1.49522e-06
1.49504e-06
1.49713e-06
1.49759e-06
1.49699e-06
1.50395e-06
1.49936e-06
1.49799e-06
1.50186e-06
1.50296e-06
1.50752e-06
1.50368e-06
1.50754e-06
1.50384e-06
1.51846e-06
0.0225204
5.25991e-05
1.54139e-06
1.49029e-06
1.49092e-06
1.49368e-06
1.49153e-06
1.49147e-06
1.49562e-06
1.49162e-06
1.49091e-06
1.49492e-06
1.49115e-06
1.49028e-06
1.49116e-06
1.49179e-06
1.49106e-06
1.49102e-06
1.495e-06
1.49471e-06
1.4957e-06
1.49132e-06
1.49031e-06
1.49122e-06
1.49251e-06
1.49349e-06
1.49377e-06
1.49786e-06
1.49375e-06
1.49244e-06
1.49309e-06
1.49239e-06
1.49337e-06
1.49461e-06
1.49429e-06
1.49926e-06
1.49389e-06
1.492e-06
1.4983e-06
1.49561e-06
1.49472e-06
1.49747e-06
1.50285e-06
1.50039e-06
1.49909e-06
1.50346e-06
1.50318e-06
1.51192e-06
1.50879e-06
1.50751e-06
1.51286e-06
1.51231e-06
1.51066e-06
1.51786e-06
0.022521
5.25655e-05
1.54104e-06
1.49011e-06
1.48939e-06
1.49008e-06
1.49142e-06
1.49141e-06
1.49343e-06
1.49143e-06
1.49072e-06
1.49472e-06
1.49087e-06
1.48945e-06
1.49023e-06
1.49145e-06
1.49093e-06
1.49095e-06
1.49294e-06
1.4928e-06
1.49546e-06
1.49102e-06
1.49005e-06
1.49566e-06
1.49265e-06
1.49282e-06
1.49194e-06
1.49074e-06
1.49355e-06
1.49333e-06
1.49267e-06
1.49652e-06
1.49454e-06
1.49492e-06
1.49341e-06
1.49553e-06
1.49427e-06
1.49183e-06
1.49797e-06
1.49633e-06
1.49714e-06
1.49721e-06
1.50199e-06
1.50192e-06
1.50549e-06
1.50092e-06
1.50037e-06
1.51411e-06
1.50834e-06
1.50679e-06
1.51017e-06
1.50901e-06
1.51024e-06
1.51672e-06
0.0225198
5.25823e-05
1.54451e-06
1.49118e-06
1.49181e-06
1.49323e-06
1.49323e-06
1.49441e-06
1.49347e-06
1.49348e-06
1.49554e-06
1.49095e-06
1.49098e-06
1.49492e-06
1.49117e-06
1.49082e-06
1.49259e-06
1.49263e-06
1.49468e-06
1.49213e-06
1.49096e-06
1.49159e-06
1.49163e-06
1.49245e-06
1.49192e-06
1.49344e-06
1.49436e-06
1.49523e-06
1.49335e-06
1.49285e-06
1.49678e-06
1.49678e-06
1.49604e-06
1.49565e-06
1.49685e-06
1.49386e-06
1.49301e-06
1.49408e-06
1.49319e-06
1.49685e-06
1.49648e-06
1.49864e-06
1.49835e-06
1.50611e-06
1.50657e-06
1.5077e-06
1.50824e-06
1.50917e-06
1.50965e-06
1.51597e-06
1.51409e-06
1.51312e-06
1.51485e-06
1.52046e-06
0.0225203
5.25482e-05
1.54418e-06
1.49099e-06
1.4916e-06
1.49302e-06
1.49299e-06
1.49422e-06
1.49333e-06
1.49331e-06
1.49536e-06
1.49075e-06
1.49076e-06
1.49539e-06
1.491e-06
1.49007e-06
1.49176e-06
1.492e-06
1.49397e-06
1.49321e-06
1.49173e-06
1.49169e-06
1.49157e-06
1.49216e-06
1.49458e-06
1.49267e-06
1.49089e-06
1.49335e-06
1.49376e-06
1.49402e-06
1.49399e-06
1.4957e-06
1.49394e-06
1.49739e-06
1.49613e-06
1.49784e-06
1.49446e-06
1.49387e-06
1.49554e-06
1.49524e-06
1.50064e-06
1.50102e-06
1.49909e-06
1.50353e-06
1.50411e-06
1.51002e-06
1.51053e-06
1.51701e-06
1.50597e-06
1.50048e-06
1.50867e-06
1.50808e-06
1.51106e-06
1.521e-06
0.022518
5.27057e-05
1.54587e-06
1.4897e-06
1.49039e-06
1.49032e-06
1.4918e-06
1.49105e-06
1.49023e-06
1.49463e-06
1.49107e-06
1.49086e-06
1.4937e-06
1.49367e-06
1.49502e-06
1.49124e-06
1.48989e-06
1.49049e-06
1.49071e-06
1.49462e-06
1.49187e-06
1.49072e-06
1.49279e-06
1.50841e-06
1.49715e-06
1.49352e-06
1.497e-06
1.49155e-06
1.49126e-06
1.49226e-06
1.4922e-06
1.49298e-06
1.49508e-06
1.49491e-06
1.49552e-06
1.49496e-06
1.49774e-06
1.49395e-06
1.49375e-06
1.49574e-06
1.49814e-06
1.49765e-06
1.49691e-06
1.50406e-06
1.50261e-06
1.50238e-06
1.50332e-06
1.51352e-06
1.51496e-06
1.5144e-06
1.51174e-06
1.51445e-06
1.51694e-06
1.53227e-06
0.0225195
5.25465e-05
1.54297e-06
1.49019e-06
1.49154e-06
1.49155e-06
1.4937e-06
1.49085e-06
1.49078e-06
1.4957e-06
1.49082e-06
1.48997e-06
1.49081e-06
1.49149e-06
1.49088e-06
1.48998e-06
1.49438e-06
1.49091e-06
1.49083e-06
1.4952e-06
1.49194e-06
1.49141e-06
1.49306e-06
1.50576e-06
1.5105e-06
1.49532e-06
1.49736e-06
1.49279e-06
1.49252e-06
1.49327e-06
1.49335e-06
1.49691e-06
1.49233e-06
1.49234e-06
1.49304e-06
1.49432e-06
1.49528e-06
1.49601e-06
1.49504e-06
1.49658e-06
1.50325e-06
1.49842e-06
1.4985e-06
1.50066e-06
1.5012e-06
1.50174e-06
1.5052e-06
1.51526e-06
1.50955e-06
1.51022e-06
1.50874e-06
1.50999e-06
1.51509e-06
1.52764e-06
0.0225182
5.25767e-05
1.54525e-06
1.4933e-06
1.49042e-06
1.49105e-06
1.49609e-06
1.49102e-06
1.49025e-06
1.4945e-06
1.49386e-06
1.49251e-06
1.49289e-06
1.4949e-06
1.49111e-06
1.48914e-06
1.4902e-06
1.49023e-06
1.49112e-06
1.493e-06
1.49143e-06
1.49045e-06
1.50132e-06
1.53944e-06
4.01968e-05
9.24285e-06
2.87211e-06
1.49158e-06
1.49653e-06
1.49506e-06
1.49518e-06
1.49764e-06
1.49215e-06
1.49071e-06
1.49685e-06
1.49605e-06
1.49725e-06
1.4957e-06
1.49559e-06
1.49711e-06
1.49927e-06
1.50111e-06
1.50049e-06
1.4995e-06
1.50352e-06
1.50788e-06
1.51115e-06
1.51153e-06
1.512e-06
1.51607e-06
1.52128e-06
1.52244e-06
1.52272e-06
1.53967e-06
0.0225772
5.28256e-05
1.54626e-06
1.48951e-06
1.49066e-06
1.4941e-06
1.49088e-06
1.49065e-06
1.49331e-06
1.49147e-06
1.49146e-06
1.49337e-06
1.49273e-06
1.49268e-06
1.49407e-06
1.49408e-06
1.49443e-06
1.49086e-06
1.49078e-06
1.49521e-06
1.4911e-06
1.48983e-06
1.50957e-06
1.53701e-06
2.67318e-05
5.20274e-06
1.95561e-06
1.49257e-06
1.49243e-06
1.49312e-06
1.4927e-06
1.4925e-06
1.4934e-06
1.49329e-06
1.49407e-06
1.49391e-06
1.49551e-06
1.50029e-06
1.49878e-06
1.49942e-06
1.49605e-06
1.49605e-06
1.49997e-06
1.50036e-06
1.50081e-06
1.49883e-06
1.50135e-06
1.51154e-06
1.51466e-06
1.50994e-06
1.5132e-06
1.51494e-06
1.51923e-06
1.53336e-06
0.0225678
5.30349e-05
1.54281e-06
1.48965e-06
1.49036e-06
1.49116e-06
1.49328e-06
1.49103e-06
1.49094e-06
1.49596e-06
1.49101e-06
1.49092e-06
1.4957e-06
1.49106e-06
1.49084e-06
1.49487e-06
1.49095e-06
1.49043e-06
1.49174e-06
1.49138e-06
1.49106e-06
1.49142e-06
1.49677e-06
5.40501e-06
0.00156774
6.49502e-05
1.51917e-06
1.4919e-06
1.49179e-06
1.49386e-06
1.49234e-06
1.49002e-06
1.49085e-06
1.4906e-06
1.49173e-06
1.49795e-06
1.49537e-06
1.49554e-06
1.49802e-06
1.4968e-06
1.49698e-06
1.49757e-06
1.50456e-06
1.50692e-06
1.50851e-06
1.50211e-06
1.50197e-06
1.50546e-06
1.50631e-06
1.528e-06
1.52086e-06
1.521e-06
1.54647e-06
0.022509
5.28296e-05
1.5463e-06
1.49305e-06
1.49231e-06
1.49313e-06
1.49497e-06
1.49077e-06
1.49072e-06
1.49477e-06
1.49472e-06
1.49082e-06
1.49072e-06
1.49453e-06
1.49136e-06
1.49146e-06
1.4946e-06
1.49105e-06
1.48966e-06
1.49116e-06
1.4907e-06
1.49082e-06
1.50904e-06
3.60871e-05
0.00131824
6.51215e-06
1.49494e-06
1.49114e-06
1.4911e-06
1.49149e-06
1.49163e-06
1.49337e-06
1.49306e-06
1.49455e-06
1.49749e-06
1.49728e-06
1.49785e-06
1.50067e-06
1.49568e-06
1.49509e-06
1.5024e-06
1.5022e-06
1.5068e-06
1.5064e-06
1.50827e-06
1.50753e-06
1.50928e-06
1.50936e-06
1.51114e-06
1.52502e-06
1.513e-06
1.51277e-06
1.54387e-06
0.0225156
5.27488e-05
1.54397e-06
1.49183e-06
1.49255e-06
1.4945e-06
1.49101e-06
1.48969e-06
1.49243e-06
1.4924e-06
1.4932e-06
1.49303e-06
1.49422e-06
1.4911e-06
1.49032e-06
1.49493e-06
1.49457e-06
1.49049e-06
1.49067e-06
1.49113e-06
1.49068e-06
1.4918e-06
1.49205e-06
1.49801e-06
1.60199e-06
2.4226e-06
1.5047e-06
1.49287e-06
1.49287e-06
1.49303e-06
1.49291e-06
1.49525e-06
1.49196e-06
1.49053e-06
1.49156e-06
1.49106e-06
1.49257e-06
1.49745e-06
1.49613e-06
1.49624e-06
1.495e-06
1.49561e-06
1.50664e-06
1.50094e-06
1.49713e-06
1.49919e-06
1.49994e-06
1.50969e-06
1.50418e-06
1.50582e-06
1.51192e-06
1.51258e-06
1.51405e-06
1.53161e-06
0.0225161
5.27172e-05
1.54365e-06
1.49163e-06
1.49235e-06
1.49431e-06
1.49085e-06
1.4895e-06
1.49294e-06
1.49287e-06
1.49296e-06
1.49273e-06
1.49389e-06
1.49077e-06
1.49061e-06
1.49535e-06
1.49089e-06
1.49028e-06
1.49344e-06
1.49285e-06
1.49169e-06
1.49195e-06
1.49337e-06
1.51046e-06
1.52946e-06
1.98075e-06
1.49741e-06
1.49233e-06
1.49055e-06
1.49181e-06
1.49186e-06
1.49578e-06
1.49362e-06
1.49396e-06
1.49411e-06
1.49523e-06
1.4966e-06
1.49927e-06
1.49654e-06
1.49613e-06
1.49452e-06
1.49552e-06
1.50581e-06
1.50363e-06
1.50335e-06
1.50472e-06
1.50513e-06
1.51548e-06
1.50424e-06
1.50551e-06
1.5254e-06
1.51188e-06
1.50985e-06
1.53944e-06
0.0225157
5.25936e-05
1.54468e-06
1.49112e-06
1.49177e-06
1.49319e-06
1.49318e-06
1.49458e-06
1.49097e-06
1.48955e-06
1.49319e-06
1.49093e-06
1.49076e-06
1.49425e-06
1.49096e-06
1.48962e-06
1.49164e-06
1.49144e-06
1.49402e-06
1.49093e-06
1.49063e-06
1.494e-06
1.49173e-06
1.49215e-06
1.49286e-06
1.49522e-06
1.49171e-06
1.49146e-06
1.49518e-06
1.49292e-06
1.49228e-06
1.49518e-06
1.49416e-06
1.49478e-06
1.49699e-06
1.49474e-06
1.49448e-06
1.49606e-06
1.49675e-06
1.50159e-06
1.49738e-06
1.49435e-06
1.49602e-06
1.5023e-06
1.50277e-06
1.50295e-06
1.50799e-06
1.50781e-06
1.51367e-06
1.50625e-06
1.50646e-06
1.51736e-06
1.5168e-06
1.53601e-06
0.0225162
5.25625e-05
1.5444e-06
1.49093e-06
1.49159e-06
1.49302e-06
1.49299e-06
1.4944e-06
1.49078e-06
1.48936e-06
1.49299e-06
1.49276e-06
1.49396e-06
1.49078e-06
1.49074e-06
1.49469e-06
1.49412e-06
1.49488e-06
1.49162e-06
1.49116e-06
1.493e-06
1.49302e-06
1.49611e-06
1.49224e-06
1.49115e-06
1.49152e-06
1.49189e-06
1.49591e-06
1.49233e-06
1.4925e-06
1.49269e-06
1.49307e-06
1.49616e-06
1.49198e-06
1.49213e-06
1.49737e-06
1.49498e-06
1.49505e-06
1.49424e-06
1.49505e-06
1.49776e-06
1.50026e-06
1.49928e-06
1.49903e-06
1.50204e-06
1.50403e-06
1.50191e-06
1.50207e-06
1.51247e-06
1.5057e-06
1.50603e-06
1.51663e-06
1.5167e-06
1.53459e-06
0.0225149
5.26057e-05
1.5429e-06
1.49037e-06
1.48958e-06
1.49028e-06
1.49311e-06
1.49034e-06
1.48892e-06
1.49036e-06
1.49037e-06
1.49104e-06
1.49076e-06
1.49056e-06
1.49137e-06
1.49428e-06
1.49123e-06
1.49096e-06
1.49525e-06
1.49099e-06
1.49079e-06
1.49482e-06
1.49475e-06
1.49529e-06
1.49455e-06
1.49487e-06
1.49224e-06
1.49235e-06
1.4961e-06
1.4914e-06
1.49076e-06
1.49645e-06
1.4957e-06
1.49336e-06
1.49388e-06
1.49787e-06
1.4973e-06
1.49703e-06
1.49862e-06
1.49858e-06
1.49878e-06
1.50068e-06
1.50235e-06
1.50563e-06
1.51116e-06
1.50275e-06
1.49816e-06
1.50272e-06
1.51324e-06
1.51053e-06
1.51203e-06
1.52784e-06
1.52893e-06
1.54172e-06
0.0225154
5.25755e-05
1.54259e-06
1.49019e-06
1.48941e-06
1.4901e-06
1.49293e-06
1.49017e-06
1.48873e-06
1.49157e-06
1.49086e-06
1.49081e-06
1.49268e-06
1.48999e-06
1.49001e-06
1.49065e-06
1.49134e-06
1.4908e-06
1.49058e-06
1.49481e-06
1.49397e-06
1.49428e-06
1.49187e-06
1.49056e-06
1.49182e-06
1.49171e-06
1.49155e-06
1.49176e-06
1.49425e-06
1.49214e-06
1.49197e-06
1.4973e-06
1.49301e-06
1.49235e-06
1.49308e-06
1.49312e-06
1.49378e-06
1.49538e-06
1.49667e-06
1.49666e-06
1.5014e-06
1.50237e-06
1.50169e-06
1.50298e-06
1.50872e-06
1.5021e-06
1.49784e-06
1.50379e-06
1.51301e-06
1.50607e-06
1.50701e-06
1.52617e-06
1.52708e-06
1.54176e-06
0.022514
5.26092e-05
1.54291e-06
1.48966e-06
1.48952e-06
1.49021e-06
1.49106e-06
1.49385e-06
1.49106e-06
1.48965e-06
1.49245e-06
1.49197e-06
1.49061e-06
1.49081e-06
1.49338e-06
1.4908e-06
1.49012e-06
1.49151e-06
1.49153e-06
1.49149e-06
1.49174e-06
1.49437e-06
1.49118e-06
1.49073e-06
1.49116e-06
1.49166e-06
1.4913e-06
1.49022e-06
1.49197e-06
1.49214e-06
1.49316e-06
1.49312e-06
1.49467e-06
1.49169e-06
1.49169e-06
1.49454e-06
1.4934e-06
1.49346e-06
1.49589e-06
1.5008e-06
1.49881e-06
1.49934e-06
1.50032e-06
1.50162e-06
1.50885e-06
1.50675e-06
1.50314e-06
1.50216e-06
1.51097e-06
1.50733e-06
1.50683e-06
1.51948e-06
1.51972e-06
1.53782e-06
0.0225145
5.25788e-05
1.54261e-06
1.48949e-06
1.48918e-06
1.48986e-06
1.49072e-06
1.4935e-06
1.49089e-06
1.48948e-06
1.49221e-06
1.49069e-06
1.49063e-06
1.49134e-06
1.49268e-06
1.49069e-06
1.4901e-06
1.4909e-06
1.49133e-06
1.49087e-06
1.49065e-06
1.49273e-06
1.4928e-06
1.49432e-06
1.49071e-06
1.49088e-06
1.49548e-06
1.49412e-06
1.49026e-06
1.49089e-06
1.49154e-06
1.49148e-06
1.49401e-06
1.49178e-06
1.49169e-06
1.4962e-06
1.49354e-06
1.49255e-06
1.49481e-06
1.49925e-06
1.49949e-06
1.49979e-06
1.50111e-06
1.50146e-06
1.50241e-06
1.50444e-06
1.50203e-06
1.50258e-06
1.50773e-06
1.50825e-06
1.51564e-06
1.51736e-06
1.52446e-06
1.54369e-06
0.0225132
5.26082e-05
1.54361e-06
1.49035e-06
1.49101e-06
1.49141e-06
1.49145e-06
1.4938e-06
1.49437e-06
1.4917e-06
1.49169e-06
1.49352e-06
1.49361e-06
1.49508e-06
1.49423e-06
1.49025e-06
1.48998e-06
1.4914e-06
1.49144e-06
1.49309e-06
1.4913e-06
1.49075e-06
1.49166e-06
1.49346e-06
1.49101e-06
1.49029e-06
1.49413e-06
1.4926e-06
1.49249e-06
1.49481e-06
1.4943e-06
1.49462e-06
1.49435e-06
1.49455e-06
1.49694e-06
1.49515e-06
1.49488e-06
1.4946e-06
1.49476e-06
1.49605e-06
1.49636e-06
1.50026e-06
1.50015e-06
1.50488e-06
1.50431e-06
1.51038e-06
1.50617e-06
1.50604e-06
1.51764e-06
1.51347e-06
1.51429e-06
1.52229e-06
1.52541e-06
1.53525e-06
0.0225137
5.25782e-05
1.54332e-06
1.49019e-06
1.49085e-06
1.49196e-06
1.49193e-06
1.4929e-06
1.49328e-06
1.49263e-06
1.49238e-06
1.49223e-06
1.49263e-06
1.49474e-06
1.49139e-06
1.49065e-06
1.49324e-06
1.49327e-06
1.49401e-06
1.4913e-06
1.48977e-06
1.49015e-06
1.49051e-06
1.49358e-06
1.49087e-06
1.48967e-06
1.49221e-06
1.49122e-06
1.49112e-06
1.49258e-06
1.4928e-06
1.4941e-06
1.49433e-06
1.49431e-06
1.49662e-06
1.49513e-06
1.49522e-06
1.49802e-06
1.49845e-06
1.49813e-06
1.49852e-06
1.49928e-06
1.49844e-06
1.50415e-06
1.50714e-06
1.51261e-06
1.50614e-06
1.5012e-06
1.50392e-06
1.50277e-06
1.51443e-06
1.51388e-06
1.51469e-06
1.53758e-06
0.0225125
5.26118e-05
1.54363e-06
1.49033e-06
1.49099e-06
1.49124e-06
1.4913e-06
1.49381e-06
1.49439e-06
1.49101e-06
1.49096e-06
1.49423e-06
1.49078e-06
1.49083e-06
1.49481e-06
1.49137e-06
1.49062e-06
1.4937e-06
1.49367e-06
1.49468e-06
1.49061e-06
1.4901e-06
1.49423e-06
1.49295e-06
1.49317e-06
1.49229e-06
1.49244e-06
1.49518e-06
1.492e-06
1.49231e-06
1.49613e-06
1.49497e-06
1.49533e-06
1.49319e-06
1.49334e-06
1.49946e-06
1.49549e-06
1.49505e-06
1.49613e-06
1.49861e-06
1.49784e-06
1.49848e-06
1.50501e-06
1.50372e-06
1.50424e-06
1.50847e-06
1.50872e-06
1.5137e-06
1.50504e-06
1.5046e-06
1.52031e-06
1.51544e-06
1.51586e-06
1.52558e-06
0.022513
5.25817e-05
1.54334e-06
1.49018e-06
1.49083e-06
1.49196e-06
1.49193e-06
1.4929e-06
1.49332e-06
1.49266e-06
1.49264e-06
1.49382e-06
1.49063e-06
1.49068e-06
1.49474e-06
1.49238e-06
1.48973e-06
1.49066e-06
1.49075e-06
1.49253e-06
1.49078e-06
1.48993e-06
1.49441e-06
1.49191e-06
1.49196e-06
1.49532e-06
1.49163e-06
1.49154e-06
1.49526e-06
1.49449e-06
1.49531e-06
1.49237e-06
1.49218e-06
1.49282e-06
1.49302e-06
1.49903e-06
1.49588e-06
1.49395e-06
1.49386e-06
1.49565e-06
1.49775e-06
1.49763e-06
1.50478e-06
1.49978e-06
1.49912e-06
1.50479e-06
1.50728e-06
1.51152e-06
1.50895e-06
1.51203e-06
1.51184e-06
1.52563e-06
1.53e-06
1.53233e-06
0.0225117
5.26099e-05
1.54363e-06
1.49103e-06
1.49171e-06
1.49248e-06
1.49247e-06
1.49233e-06
1.49301e-06
1.49104e-06
1.48951e-06
1.49086e-06
1.49082e-06
1.49285e-06
1.49082e-06
1.48966e-06
1.49109e-06
1.49083e-06
1.49098e-06
1.49292e-06
1.49069e-06
1.4902e-06
1.49425e-06
1.49215e-06
1.49212e-06
1.49156e-06
1.4928e-06
1.49094e-06
1.49092e-06
1.49536e-06
1.49262e-06
1.49264e-06
1.49223e-06
1.49347e-06
1.49213e-06
1.49188e-06
1.49318e-06
1.49311e-06
1.49541e-06
1.49684e-06
1.4972e-06
1.49955e-06
1.5073e-06
1.50556e-06
1.50869e-06
1.50718e-06
1.50697e-06
1.50859e-06
1.50768e-06
1.50312e-06
1.50384e-06
1.50811e-06
1.51172e-06
1.52149e-06
0.0225122
5.25807e-05
1.54334e-06
1.49088e-06
1.49154e-06
1.49236e-06
1.49234e-06
1.49364e-06
1.49083e-06
1.48948e-06
1.49079e-06
1.49064e-06
1.49057e-06
1.492e-06
1.49062e-06
1.48937e-06
1.49067e-06
1.49064e-06
1.49088e-06
1.4928e-06
1.49073e-06
1.4901e-06
1.49299e-06
1.4931e-06
1.4938e-06
1.49375e-06
1.49488e-06
1.49094e-06
1.49032e-06
1.49453e-06
1.4922e-06
1.49167e-06
1.49256e-06
1.49413e-06
1.49225e-06
1.49222e-06
1.4928e-06
1.49359e-06
1.49538e-06
1.49636e-06
1.4972e-06