/*--------------------------------*- C++ -*----------------------------------*\
| =========                 |                                                 |
| \\      /  F ield         | OpenFOAM: The Open Source CFD Toolbox           |
|  \\    /   O peration     | Version:  4.1                                   |
|   \\  /    A nd           | Web:      www.OpenFOAM.org                      |
|    \\/     M anipulation  |                                                 |
\*---------------------------------------------------------------------------*/
FoamFile
{
    version     2.0;
    format      ascii;
    class       volScalarField;
    location    "7";
    object      k;
}
// * * * * * * * * * * * * * * * * * * * * * * * * * * * * * * * * * * * * * //

dimensions      [0 2 -2 0 0 0 0];

internalField   nonuniform List<scalar> 
4432
(
0.387515
0.41546
0.445064
0.481747
0.510626
0.546784
0.578068
0.604279
0.632972
0.657121
0.673629
0.709969
0.74022
0.770976
0.804974
0.846202
0.864284
1.03769
1.22524
1.51552
1.22776
1.29768
1.38069
1.42987
1.31588
1.35993
1.42019
1.54469
1.53321
1.35789
1.4857
1.33416
1.40397
1.5863
1.73036
1.37384
1.45827
1.31602
0.950007
1.00674
0.866753
0.81736
0.811987
0.941
0.931686
0.89379
0.848391
0.763215
0.591329
0.59391
0.671207
1.60018
0.154221
6.20747
0.388706
0.414012
0.445454
0.474432
0.511871
0.537965
0.572026
0.598506
0.627252
0.646586
0.678958
0.70696
0.732272
0.752738
0.785556
0.800239
0.895444
0.958464
1.08799
1.27166
1.06236
1.11739
1.16301
1.18847
1.11317
1.24536
1.39034
1.39982
1.40496
1.21224
1.37514
1.12428
1.37696
1.54179
1.73636
1.35077
1.4761
1.32532
0.906518
0.961464
0.834251
0.768543
0.706056
0.754387
0.801861
0.724308
0.492639
0.531169
0.515758
0.548767
0.654303
1.63491
0.0397291
6.15732
0.00224473
9.13207e-05
0.000804836
0.00191312
0.00261254
0.00330568
0.00407119
0.00502589
0.00616803
0.00775622
0.00941185
0.0123241
0.0157193
0.020926
0.0273265
0.0402047
0.0621197
0.101608
0.226499
0.508085
0.940293
1.47297
2.88529
4.35693
2.10816
1.26622
1.07262
0.416744
0.521312
0.557257
0.556851
1.31422
2.35614
3.15349
0.802254
0.273864
0.241538
0.115598
0.118985
0.0990098
0.0318232
0.0633577
0.0711599
0.104107
0.129062
0.152655
0.00344516
0.0215705
0.0531162
0.113086
0.306332
0.909248
1.59563
2.02876
0.00224469
8.92947e-05
0.000793871
0.00182374
0.00255697
0.00318282
0.00394587
0.00481525
0.00607283
0.0073145
0.00965122
0.0117059
0.0161825
0.0190952
0.0286458
0.0372521
0.058245
0.104535
0.207283
0.4468
0.871889
1.41236
2.88179
4.17315
1.89377
1.11241
0.597589
0.863286
0.316494
0.55057
0.566367
1.42799
2.50064
3.14346
0.487706
0.123284
0.0880786
0.00326182
0.00485954
0.00463367
0.00428013
0.00544626
0.00631532
0.00748789
0.0122167
0.0117725
0.00979357
0.0211611
0.045311
0.110549
0.31896
0.985222
1.7582
2.27782
0.00223875
2.48514e-05
4.48709e-07
1.53357e-07
2.09799e-07
2.87937e-07
4.02414e-07
5.76029e-07
8.51649e-07
1.31431e-06
2.07562e-06
3.55684e-06
6.79814e-06
1.24779e-05
2.90377e-05
6.93053e-05
0.000216661
0.000760114
0.00408203
0.0142743
0.0394683
0.0486197
0.068381
0.13355
0.217658
0.155148
0.165661
0.234597
0.453615
0.505371
0.532748
0.870472
1.0018
0.734654
0.133609
0.0306675
0.0125118
0.0115618
0.00777821
0.00393344
0.00198867
0.00319578
0.00205459
0.00233659
0.00170493
0.00155093
0.000235617
0.00129172
7.18122e-05
0.00130905
0.0041994
0.0168906
0.0491022
0.068974
0.00223878
2.48408e-05
4.47019e-07
1.48661e-07
2.08613e-07
2.81856e-07
3.98664e-07
5.45686e-07
8.33063e-07
1.22372e-06
2.1214e-06
3.37903e-06
6.53885e-06
1.08511e-05
2.57221e-05
6.31642e-05
0.000186635
0.00073478
0.00352227
0.0125526
0.0384079
0.0503571
0.0715524
0.13413
0.216122
0.115379
0.0928682
0.153912
0.195895
0.240389
0.594757
0.776242
0.904092
0.0583019
0.0357452
0.00287401
0.00199506
0.00140404
2.95831e-05
3.51856e-05
1.33104e-05
1.1218e-05
1.79293e-06
3.17185e-06
2.96484e-05
7.44731e-05
0.000160213
0.000148613
0.000614236
0.00140552
0.00541704
0.0220805
0.0511451
0.0700217
0.00223875
2.48492e-05
3.83861e-07
4.24125e-08
4.02232e-08
3.96501e-08
3.96267e-08
3.99832e-08
4.04582e-08
4.05104e-08
4.1431e-08
4.12354e-08
4.19681e-08
4.6328e-08
5.80917e-08
9.3102e-08
2.54323e-07
1.03569e-06
7.69344e-06
3.63483e-05
0.000155634
0.000280612
0.000778661
0.00235499
0.0106246
0.0139671
0.0264337
0.0474416
0.0643703
0.0452167
0.0682996
0.111971
0.107741
0.106386
0.00920373
0.00383271
0.000319657
0.000155942
7.50745e-05
3.31953e-05
1.7346e-05
2.68389e-05
1.74237e-05
1.98314e-05
1.19087e-05
8.02201e-06
1.07681e-06
1.0134e-05
3.68813e-07
0.000109123
0.000349955
0.00140756
0.00410599
0.0057498
0.00223879
2.48389e-05
3.8299e-07
4.22772e-08
4.01037e-08
3.99551e-08
4.06357e-08
4.0131e-08
4.01383e-08
4.04734e-08
4.11141e-08
4.09445e-08
4.20086e-08
4.64369e-08
5.64737e-08
8.97158e-08
2.27922e-07
1.05527e-06
6.92006e-06
3.20294e-05
0.000139107
0.000361034
0.00083245
0.00240092
0.010805
0.00927889
0.0177467
0.0279428
0.0346706
0.0296409
0.0729109
0.0663907
0.0528369
0.0142248
0.000224921
0.000165811
8.75804e-06
1.37423e-05
1.66421e-07
1.52368e-07
8.0239e-08
6.28318e-08
4.91304e-08
4.68613e-08
4.4921e-08
4.23441e-08
4.19045e-08
4.54297e-08
5.12251e-05
0.000117132
0.000451453
0.00185456
0.000164395
0.0058507
0.00223874
2.48494e-05
3.84023e-07
4.23966e-08
4.01045e-08
4.00427e-08
3.99359e-08
3.99265e-08
4.00549e-08
4.07163e-08
3.99692e-08
3.94473e-08
4.09911e-08
4.04453e-08
4.04436e-08
4.18867e-08
4.13969e-08
4.15683e-08
5.74548e-08
1.46438e-07
6.46627e-07
1.432e-06
5.04676e-06
1.99293e-05
0.000110334
0.000167624
0.00039435
0.00187554
0.00368953
0.00241843
0.00652773
0.0181487
0.0263113
0.0128774
0.0010858
0.000152395
1.31637e-06
8.43854e-07
4.87672e-07
2.33564e-07
1.45411e-07
2.14125e-07
1.69402e-07
3.0041e-07
9.60761e-08
6.10991e-08
6.93121e-08
1.93639e-07
4.9482e-08
5.08983e-08
5.2874e-08
1.06591e-07
5.25235e-06
2.35793e-05
0.00223878
2.4839e-05
3.86303e-07
4.26914e-08
3.98289e-08
4.01265e-08
3.96141e-08
3.94907e-08
3.9702e-08
4.00291e-08
3.978e-08
3.92709e-08
4.08507e-08
4.0302e-08
4.03126e-08
4.16807e-08
4.09513e-08
4.12339e-08
5.58875e-08
1.34404e-07
5.89525e-07
1.86365e-06
5.49004e-06
2.07535e-05
0.000116804
0.000109009
0.000271981
0.00115105
0.00185965
0.00133545
0.00698526
0.0115832
0.00906218
0.00200386
0.000185896
1.98894e-06
5.70583e-08
3.7484e-08
4.35046e-08
4.13326e-08
4.08016e-08
4.24347e-08
4.67057e-08
4.71308e-08
4.46741e-08
4.49722e-08
4.28257e-08
4.51574e-08
5.16101e-08
7.11401e-08
3.91684e-07
9.75512e-06
6.75967e-06
2.23779e-05
0.00223871
2.48504e-05
3.93158e-07
4.3323e-08
3.99716e-08
4.02112e-08
4.07278e-08
4.05675e-08
4.05521e-08
4.15833e-08
4.00281e-08
3.94732e-08
4.07383e-08
4.07518e-08
4.18031e-08
4.05388e-08
4.0036e-08
4.11568e-08
4.13178e-08
4.26582e-08
4.31325e-08
5.4751e-08
1.04001e-07
3.46553e-07
1.07348e-06
1.95807e-06
5.32865e-06
2.93257e-05
5.46154e-05
3.12008e-05
7.77592e-05
0.000267953
0.000781425
0.000454529
3.79184e-05
5.05414e-07
4.59833e-08
4.38096e-08
4.37335e-08
4.22004e-08
4.34139e-08
4.49575e-08
4.62615e-08
5.00532e-08
5.01302e-08
5.02041e-08
4.48622e-08
4.83018e-08
4.32336e-08
4.47439e-08
6.94644e-08
4.76705e-07
6.49369e-06
1.49516e-05
0.00223875
2.48402e-05
3.92249e-07
4.31514e-08
3.98285e-08
3.9994e-08
3.99653e-08
4.09904e-08
4.02164e-08
3.90968e-08
3.90659e-08
3.94444e-08
4.04826e-08
4.05729e-08
4.16529e-08
4.03492e-08
3.98019e-08
4.11462e-08
4.12453e-08
4.22857e-08
4.23962e-08
5.91462e-08
1.10353e-07
3.648e-07
1.16088e-06
1.29751e-06
3.77185e-06
1.79425e-05
2.69814e-05
1.67183e-05
8.41005e-05
0.000173447
0.000321153
4.92458e-05
4.10902e-06
3.77078e-08
4.01726e-08
4.03814e-08
4.17157e-08
4.10285e-08
4.17486e-08
4.34037e-08
4.28147e-08
4.39581e-08
4.54124e-08
4.46848e-08
4.36887e-08
4.4934e-08
4.62035e-08
4.54162e-08
6.23645e-08
4.59797e-07
6.53011e-06
1.511e-05
0.00223867
2.4851e-05
3.93412e-07
4.33734e-08
4.00169e-08
4.03941e-08
4.13213e-08
4.00113e-08
3.94697e-08
4.1097e-08
4.05119e-08
3.99865e-08
4.01074e-08
4.044e-08
4.07515e-08
4.10457e-08
4.12067e-08
4.07386e-08
4.08416e-08
4.136e-08
4.15128e-08
4.17365e-08
4.21983e-08
4.67417e-08
5.80221e-08
5.80762e-08
1.02119e-07
4.27128e-07
7.26907e-07
4.12471e-07
9.78361e-07
3.34397e-06
1.01394e-05
5.9555e-06
5.039e-07
3.21529e-08
4.12533e-08
4.15844e-08
4.29703e-08
4.31966e-08
4.48665e-08
4.31726e-08
4.24341e-08
4.20582e-08
4.37541e-08
4.24829e-08
4.32099e-08
4.47678e-08
4.35893e-08
4.29407e-08
4.92465e-08
1.06308e-07
7.65738e-07
2.3894e-06
0.00223871
2.48407e-05
3.92524e-07
4.31996e-08
3.98553e-08
4.0224e-08
4.1122e-08
3.98746e-08
3.93401e-08
4.08664e-08
4.01521e-08
3.99564e-08
4.06621e-08
4.06278e-08
4.06505e-08
4.10036e-08
4.09638e-08
4.06539e-08
4.08625e-08
4.13368e-08
4.00097e-08
4.03141e-08
4.15018e-08
4.55767e-08
5.95021e-08
6.51135e-08
8.53239e-08
2.83037e-07
3.89429e-07
2.35056e-07
1.05401e-06
2.19433e-06
4.31292e-06
7.05765e-07
2.62138e-08
4.20965e-08
4.12267e-08
4.12424e-08
4.25049e-08
4.27373e-08
4.42234e-08
4.29088e-08
4.17993e-08
4.20105e-08
4.57837e-08
4.34389e-08
4.07065e-08
4.29113e-08
4.57969e-08
4.4214e-08
5.15899e-08
1.22266e-07
9.32496e-07
2.95617e-06
0.00223863
2.48542e-05
3.8482e-07
4.24098e-08
4.00643e-08
3.99852e-08
4.00619e-08
3.99878e-08
4.00011e-08
4.07114e-08
3.99751e-08
3.97761e-08
4.15233e-08
4.03427e-08
4.0206e-08
4.12945e-08
4.04611e-08
4.02306e-08
4.05399e-08
4.15828e-08
4.08702e-08
4.08171e-08
4.17669e-08
4.19643e-08
4.25512e-08
4.23716e-08
4.38207e-08
5.13667e-08
5.96724e-08
5.14432e-08
6.46577e-08
1.27108e-07
3.04908e-07
1.26357e-07
3.32696e-08
4.09042e-08
4.17335e-08
4.16654e-08
4.19303e-08
4.32436e-08
4.33509e-08
4.38969e-08
4.56641e-08
4.33799e-08
4.55226e-08
4.30523e-08
4.14037e-08
4.05029e-08
4.09552e-08
4.12146e-08
4.57529e-08
7.22113e-08
5.8283e-07
2.53054e-06
0.00223867
2.4844e-05
3.83957e-07
4.22987e-08
3.94754e-08
3.97596e-08
3.96067e-08
3.94926e-08
3.96936e-08
4.00557e-08
3.98171e-08
3.96371e-08
4.07511e-08
4.07846e-08
4.06531e-08
4.02534e-08
4.02255e-08
4.02282e-08
4.08578e-08
4.1058e-08
4.03613e-08
4.04767e-08
4.10167e-08
4.14175e-08
4.21781e-08
4.19104e-08
4.34883e-08
4.76385e-08
4.4988e-08
4.78996e-08
6.47565e-08
6.759e-08
1.00831e-07
5.14476e-08
4.08073e-08
4.15478e-08
4.15268e-08
4.15614e-08
4.17535e-08
4.29911e-08
4.25758e-08
4.38299e-08
4.5308e-08
4.28979e-08
4.80896e-08
4.29398e-08
4.04458e-08
4.23393e-08
4.44228e-08
4.29521e-08
4.78969e-08
7.99777e-08
5.77047e-07
2.44022e-06
0.00223859
2.48546e-05
3.8509e-07
4.24175e-08
4.01049e-08
4.00357e-08
4.00761e-08
4.00243e-08
4.00264e-08
4.07511e-08
3.99959e-08
3.94098e-08
4.04305e-08
4.03148e-08
4.04354e-08
4.04223e-08
4.14883e-08
4.05465e-08
4.00675e-08
4.05124e-08
4.12041e-08
4.09049e-08
4.06754e-08
4.24255e-08
4.23062e-08
4.21283e-08
4.25381e-08
4.27934e-08
4.20748e-08
4.2049e-08
4.32744e-08
4.36106e-08
4.76573e-08
4.33342e-08
4.12054e-08
4.11501e-08
4.37407e-08
4.24943e-08
4.16824e-08
4.40785e-08
4.3757e-08
4.56773e-08
4.58352e-08
4.43207e-08
4.90366e-08
4.4221e-08
4.20733e-08
4.15574e-08
4.19551e-08
4.18916e-08
4.42349e-08
5.15626e-08
2.34078e-07
1.60386e-06
0.00223863
2.48445e-05
3.84258e-07
4.23066e-08
3.9618e-08
3.95444e-08
3.99218e-08
3.99877e-08
4.0165e-08
4.07469e-08
3.98501e-08
3.93089e-08
4.03218e-08
4.02447e-08
4.02716e-08
4.02212e-08
4.13258e-08
4.02335e-08
4.0284e-08
4.21287e-08
4.03719e-08
4.04573e-08
4.23177e-08
4.09017e-08
4.08461e-08
4.21772e-08
4.09679e-08
4.07563e-08
4.07635e-08
4.11525e-08
4.13355e-08
4.2597e-08
4.22415e-08
4.44339e-08
4.11467e-08
4.08885e-08
4.23732e-08
4.22382e-08
4.20342e-08
4.37592e-08
4.29737e-08
4.4301e-08
4.442e-08
4.41525e-08
4.70256e-08
4.29875e-08
4.06305e-08
4.19372e-08
4.26705e-08
4.30117e-08
4.5797e-08
5.82698e-08
3.25163e-07
2.00848e-06
0.00223854
2.48575e-05
3.85473e-07
4.24345e-08
4.01983e-08
3.94786e-08
3.93986e-08
3.90737e-08
3.86957e-08
3.89971e-08
3.92218e-08
3.94823e-08
3.9432e-08
3.93937e-08
3.97457e-08
3.99501e-08
4.04571e-08
4.17775e-08
4.0516e-08
4.03201e-08
4.17717e-08
4.1978e-08
4.15491e-08
4.1772e-08
4.25063e-08
4.24641e-08
4.28938e-08
4.12962e-08
4.07574e-08
4.12107e-08
4.21562e-08
4.11895e-08
4.08782e-08
4.12665e-08
4.15752e-08
4.3384e-08
4.25363e-08
4.52328e-08
4.33761e-08
4.34356e-08
4.42155e-08
4.42491e-08
4.4052e-08
4.48097e-08
4.99038e-08
4.5446e-08
4.33558e-08
4.37814e-08
4.60127e-08
4.46329e-08
4.54479e-08
4.94383e-08
1.23528e-07
9.75885e-07
0.00223858
2.48475e-05
3.84705e-07
4.19364e-08
3.90583e-08
3.93286e-08
3.9191e-08
3.91358e-08
3.99319e-08
3.99119e-08
3.99876e-08
3.994e-08
4.05876e-08
4.02114e-08
4.00837e-08
4.02754e-08
4.03677e-08
4.16646e-08
4.04456e-08
4.03183e-08
4.14327e-08
4.15133e-08
4.13543e-08
4.09101e-08
4.12799e-08
4.15712e-08
4.22447e-08
4.26131e-08
4.274e-08
4.22436e-08
4.29933e-08
4.148e-08
4.06379e-08
4.30013e-08
4.21822e-08
4.32123e-08
4.25211e-08
4.49699e-08
4.31852e-08
4.32216e-08
4.4067e-08
4.33249e-08
4.28582e-08
4.32365e-08
4.37336e-08
4.33516e-08
4.17301e-08
4.577e-08
4.51978e-08
4.64507e-08
4.65417e-08
5.59442e-08
1.6441e-07
1.30611e-06
0.0022385
2.48578e-05
3.85874e-07
4.2057e-08
3.91691e-08
3.94267e-08
3.91362e-08
3.88948e-08
3.98847e-08
3.94387e-08
3.94162e-08
3.98329e-08
4.12734e-08
4.10053e-08
4.00975e-08
4.04876e-08
4.04012e-08
4.06534e-08
4.06784e-08
4.20948e-08
4.06007e-08
4.0419e-08
4.19471e-08
4.17918e-08
4.16894e-08
4.16457e-08
4.25812e-08
4.11575e-08
4.13917e-08
4.22246e-08
4.16176e-08
4.22465e-08
4.19143e-08
4.33781e-08
4.32592e-08
4.35437e-08
4.21329e-08
4.3947e-08
4.41131e-08
4.41818e-08
4.52573e-08
4.49931e-08
4.4479e-08
4.39433e-08
4.60643e-08
4.9848e-08
4.61875e-08
4.40674e-08
4.85216e-08
4.82321e-08
5.1709e-08
5.097e-08
4.61336e-08
7.81674e-08
0.00223854
2.4848e-05
3.85016e-07
4.19406e-08
3.90597e-08
3.9325e-08
3.93898e-08
3.93406e-08
4.01761e-08
3.98151e-08
3.96866e-08
4.00063e-08
4.13478e-08
4.05978e-08
3.98058e-08
4.0399e-08
4.04278e-08
4.01323e-08
4.02029e-08
4.18365e-08
4.05524e-08
4.04102e-08
4.19224e-08
4.12904e-08
4.22383e-08
4.2277e-08
4.24407e-08
4.13791e-08
4.1449e-08
4.30152e-08
4.14552e-08
4.1767e-08
4.21623e-08
4.22786e-08
4.33033e-08
4.26996e-08
4.15592e-08
4.38458e-08
4.38569e-08
4.39117e-08
4.4476e-08
4.47647e-08
4.45202e-08
4.48315e-08
4.52017e-08
4.76537e-08
4.61874e-08
4.68216e-08
4.51362e-08
4.66192e-08
4.58896e-08
4.63171e-08
4.83513e-08
9.21846e-08
0.00223845
2.48604e-05
3.86115e-07
4.169e-08
3.88801e-08
3.88452e-08
3.90414e-08
3.9587e-08
3.98926e-08
3.94071e-08
3.94082e-08
3.98196e-08
4.12717e-08
4.03444e-08
4.02269e-08
4.23203e-08
4.00869e-08
3.9847e-08
4.04022e-08
4.06524e-08
4.03962e-08
3.99505e-08
4.1072e-08
4.11031e-08
4.27943e-08
4.10963e-08
4.12052e-08
4.29971e-08
4.27004e-08
4.14258e-08
4.00689e-08
4.21397e-08
4.20448e-08
4.2611e-08
4.29091e-08
4.48419e-08
4.26389e-08
4.13066e-08
4.19461e-08
4.20885e-08
4.35217e-08
4.34015e-08
4.42098e-08
4.66697e-08
4.78083e-08
4.76681e-08
4.95605e-08
4.72359e-08
4.77322e-08
4.77669e-08
4.93483e-08
5.11289e-08
5.06094e-08
5.48367e-08
0.00223849
2.48507e-05
3.85208e-07
4.1951e-08
3.90702e-08
3.93286e-08
3.92869e-08
3.92361e-08
4.01458e-08
4.00732e-08
4.02495e-08
4.01221e-08
4.03167e-08
4.15797e-08
4.0337e-08
3.95024e-08
4.02674e-08
4.02705e-08
4.0392e-08
4.04203e-08
4.08102e-08
4.08572e-08
4.08432e-08
4.19252e-08
4.09202e-08
4.09894e-08
4.27379e-08
4.28256e-08
4.37116e-08
4.1372e-08
4.01669e-08
4.20328e-08
4.18505e-08
4.16952e-08
4.18861e-08
4.4807e-08
4.26448e-08
4.11484e-08
4.16946e-08
4.16279e-08
4.53128e-08
4.53758e-08
4.55072e-08
4.78354e-08
4.75585e-08
4.869e-08
4.60753e-08
4.74183e-08
4.75919e-08
4.75508e-08
4.91957e-08
4.99924e-08
4.69016e-08
5.17306e-08
0.00223841
2.4863e-05
3.98375e-07
4.39272e-08
4.06303e-08
4.09735e-08
4.17151e-08
4.05348e-08
3.88854e-08
3.97387e-08
3.94273e-08
3.94042e-08
3.96842e-08
3.95917e-08
3.97198e-08
3.99076e-08
4.0135e-08
4.04804e-08
4.15249e-08
4.03128e-08
4.00824e-08
4.03275e-08
4.06988e-08
4.09971e-08
4.12956e-08
4.36803e-08
4.14854e-08
4.13807e-08
4.35121e-08
4.13383e-08
4.00815e-08
4.14607e-08
4.17713e-08
4.15943e-08
4.10398e-08
4.14045e-08
4.15678e-08
4.14026e-08
4.20286e-08
4.38265e-08
4.44737e-08
4.54142e-08
4.53694e-08
4.59282e-08
4.54346e-08
4.48911e-08
4.66629e-08
4.6521e-08
5.13307e-08
5.06189e-08
5.12003e-08
5.42873e-08
5.49022e-08
5.8279e-08
0.00223845
2.48534e-05
3.97512e-07
4.38065e-08
4.05316e-08
4.08596e-08
4.15959e-08
4.03573e-08
3.90287e-08
3.99528e-08
3.99393e-08
4.02321e-08
4.02e-08
4.03979e-08
4.15637e-08
4.03398e-08
3.9679e-08
4.09899e-08
4.09318e-08
4.18092e-08
4.03132e-08
4.00389e-08
4.0019e-08
4.02939e-08
4.21399e-08
4.1157e-08
4.04964e-08
4.15787e-08
4.10675e-08
4.15268e-08
4.12909e-08
4.19345e-08
4.15027e-08
4.19071e-08
4.10816e-08
4.09955e-08
4.18633e-08
4.46916e-08
4.31967e-08
4.13076e-08
4.76171e-08
4.47242e-08
4.31512e-08
4.56829e-08
4.61194e-08
4.7754e-08
4.68276e-08
5.37536e-08
5.11628e-08
4.80176e-08
5.24706e-08
5.06391e-08
4.97584e-08
5.39523e-08
0.00223836
2.49041e-05
3.93206e-07
4.32882e-08
4.13323e-08
4.12976e-08
4.19971e-08
4.0403e-08
4.01669e-08
4.27274e-08
4.04465e-08
3.97887e-08
4.11436e-08
4.10319e-08
4.13879e-08
4.1555e-08
4.13809e-08
4.14343e-08
4.07017e-08
4.08079e-08
4.24787e-08
4.06626e-08
3.98705e-08
4.64784e-08
4.36905e-08
6.53585e-05
3.59955e-08
3.82193e-08
4.10873e-08
4.07673e-08
4.14668e-08
4.16195e-08
4.17115e-08
4.4041e-08
4.21806e-08
4.03327e-08
4.17434e-08
4.19678e-08
4.23081e-08
4.18605e-08
4.27867e-08
4.41629e-08
4.49262e-08
4.55455e-08
4.57719e-08
4.57941e-08
4.76627e-08
4.96103e-08
5.17293e-08
5.2671e-08
5.13258e-08
4.74164e-08
5.05278e-08
6.02719e-08
0.0022384
2.48608e-05
3.9484e-07
4.32293e-08
3.9652e-08
4.01232e-08
4.15883e-08
4.02831e-08
4.00315e-08
4.22347e-08
3.99254e-08
3.96619e-08
4.00706e-08
4.03611e-08
4.04619e-08
3.99628e-08
4.09889e-08
4.10032e-08
4.16613e-08
4.04549e-08
4.01076e-08
4.19226e-08
4.12892e-08
4.68247e-08
5.29422e-08
5.56427e-05
3.65636e-08
3.86707e-08
4.02322e-08
4.20331e-08
4.18354e-08
4.24865e-08
4.25726e-08
4.40396e-08
4.17173e-08
4.06008e-08
4.13249e-08
4.2383e-08
4.19889e-08
4.15412e-08
4.50795e-08
4.35442e-08
4.27676e-08
4.3988e-08
4.42806e-08
4.61677e-08
4.74081e-08
5.26786e-08
4.92611e-08
4.47683e-08
4.82552e-08
5.02166e-08
5.11869e-08
5.60946e-08
0.00223832
2.48698e-05
3.98921e-07
4.39249e-08
4.0622e-08
4.09617e-08
4.17014e-08
4.04337e-08
3.98151e-08
4.12354e-08
4.1062e-08
4.14421e-08
4.12125e-08
4.11954e-08
4.19483e-08
4.05148e-08
3.92683e-08
4.02097e-08
4.01118e-08
4.04058e-08
4.05177e-08
4.04593e-08
4.07694e-08
5.0082e-08
0.00164571
0.00114607
0.000516802
6.84915e-06
1.21986e-07
4.11746e-08
4.09777e-08
4.15532e-08
4.26005e-08
4.13376e-08
4.08097e-08
4.20389e-08
4.19161e-08
4.20618e-08
4.43988e-08
4.22828e-08
4.24594e-08
4.62789e-08
4.60581e-08
4.60237e-08
4.62728e-08
4.74076e-08
4.92378e-08
5.04543e-08
5.22905e-08
5.1415e-08
5.3246e-08
5.1897e-08
5.33706e-08
6.6953e-08
0.00223795
2.4942e-05
3.97448e-07
4.3686e-08
4.16525e-08
4.0277e-08
4.00617e-08
4.23028e-08
4.02499e-08
4.0045e-08
4.18312e-08
3.98638e-08
3.96626e-08
4.1012e-08
4.07339e-08
4.08056e-08
4.10664e-08
4.05436e-08
4.03672e-08
4.18345e-08
4.06255e-08
4.0384e-08
4.73772e-08
4.9272e-08
0.00168111
0.000999152
0.000215242
2.64057e-06
6.92078e-08
4.15581e-08
4.08786e-08
4.22673e-08
4.2417e-08
4.23374e-08
4.35796e-08
4.16499e-08
4.11568e-08
4.38975e-08
4.26401e-08
4.14177e-08
4.22631e-08
4.36957e-08
4.38334e-08
4.8179e-08
4.80164e-08
4.51469e-08
4.57563e-08
4.76209e-08
5.32889e-08
5.38186e-08
6.21683e-08
5.57472e-08
5.22052e-08
7.04154e-08
0.00223806
2.49647e-05
3.94505e-07
4.29263e-08
4.05712e-08
4.05267e-08
4.19964e-08
4.03896e-08
4.01343e-08
4.23573e-08
4.00482e-08
3.97756e-08
4.11705e-08
4.08537e-08
4.12328e-08
4.11248e-08
4.11283e-08
4.19388e-08
4.04402e-08
3.98913e-08
4.17523e-08
4.07636e-08
1.20609e-06
0.000603928
0.0688465
0.00140255
3.16155e-05
3.68072e-07
4.43047e-08
4.11262e-08
4.23614e-08
4.09956e-08
4.07e-08
4.18734e-08
4.18183e-08
4.5063e-08
4.26648e-08
4.28585e-08
4.34097e-08
4.3445e-08
4.48981e-08
4.51066e-08
4.5655e-08
4.46253e-08
4.54189e-08
4.78583e-08
5.36022e-08
5.08643e-08
4.87725e-08
5.0869e-08
5.31635e-08
5.62761e-08
6.30106e-08
0.0022385
2.49104e-05
4.05308e-07
4.34765e-08
4.07114e-08
4.21841e-08
4.04094e-08
3.90261e-08
3.99937e-08
3.99392e-08
3.99646e-08
4.06734e-08
3.98228e-08
3.96635e-08
4.09961e-08
4.10494e-08
4.10051e-08
4.13837e-08
4.02385e-08
4.00761e-08
4.21453e-08
4.18145e-08
5.06044e-08
0.000250581
0.0661106
0.00133835
1.13744e-05
1.51949e-07
4.25178e-08
3.98769e-08
4.00447e-08
4.05959e-08
4.0889e-08
4.18084e-08
4.23146e-08
4.22458e-08
4.21736e-08
4.28963e-08
4.35605e-08
4.39443e-08
4.33539e-08
4.64606e-08
4.54101e-08
4.31083e-08
4.34945e-08
4.24665e-08
4.32946e-08
4.5223e-08
4.71076e-08
5.01039e-08
5.48471e-08
5.88745e-08
6.5871e-08
0.00223823
2.48913e-05
3.98639e-07
4.3767e-08
4.17787e-08
3.99955e-08
3.97843e-08
4.16004e-08
4.10258e-08
4.0992e-08
4.19683e-08
4.03427e-08
4.00955e-08
4.19358e-08
4.17941e-08
4.17651e-08
4.16317e-08
4.19192e-08
4.23022e-08
4.04823e-08
4.03706e-08
4.23764e-08
4.51325e-08
1.59079e-05
6.01086e-05
0.000281773
4.35175e-05
7.66407e-07
4.92427e-08
4.12156e-08
4.07459e-08
4.15427e-08
4.19218e-08
4.18571e-08
4.20745e-08
4.16861e-08
4.26699e-08
4.48821e-08
4.31997e-08
4.32085e-08
4.58705e-08
4.57555e-08
4.57852e-08
4.64437e-08
4.59841e-08
4.64659e-08
5.19229e-08
4.83271e-08
4.48638e-08
5.11712e-08
5.2108e-08
5.05801e-08
5.10164e-08
6.16712e-08
0.00223827
2.48825e-05
3.97858e-07
4.36581e-08
4.1675e-08
3.99138e-08
3.9685e-08
4.14869e-08
4.09257e-08
4.08933e-08
4.18456e-08
4.03027e-08
3.93458e-08
4.02804e-08
4.02704e-08
4.0268e-08
4.0271e-08
4.15985e-08
4.03488e-08
3.96742e-08
4.148e-08
4.11425e-08
3.95079e-08
1.1247e-06
2.07605e-05
0.000353486
1.71657e-05
3.03147e-07
4.88885e-08
4.11548e-08
4.07675e-08
4.31504e-08
4.07113e-08
4.03966e-08
4.11629e-08
4.13459e-08
4.24974e-08
4.2099e-08
4.36922e-08
4.47774e-08
4.26764e-08
4.21354e-08
4.35038e-08
4.7094e-08
4.49273e-08
4.37847e-08
4.74239e-08
4.81391e-08
4.83928e-08
4.77324e-08
5.38477e-08
5.52535e-08
5.50288e-08
6.4168e-08
0.00223818
2.48721e-05
4.00114e-07
4.42695e-08
4.12046e-08
4.15358e-08
4.17011e-08
4.2342e-08
4.03227e-08
4.01158e-08
4.23158e-08
4.06335e-08
3.98123e-08
4.02997e-08
4.14099e-08
4.03329e-08
4.01541e-08
4.25377e-08
4.0369e-08
3.98461e-08
4.15904e-08
4.05548e-08
4.0368e-08
4.22767e-08
4.11178e-08
8.45618e-07
2.1286e-07
4.50393e-08
4.10787e-08
4.08881e-08
4.14967e-08
4.11123e-08
4.07154e-08
4.12073e-08
4.13996e-08
4.14897e-08
4.09651e-08
4.31392e-08
4.19556e-08
4.14698e-08
4.43389e-08
4.38619e-08
4.38659e-08
4.38114e-08
4.70316e-08
4.60196e-08
4.54643e-08
4.56958e-08
4.6592e-08
4.79032e-08
5.27925e-08
5.29793e-08
5.19192e-08
6.4887e-08
0.00223822
2.48632e-05
3.99311e-07
4.41623e-08
4.11091e-08
4.1438e-08
4.15956e-08
4.22342e-08
4.02246e-08
4.00386e-08
4.2204e-08
4.05622e-08
3.97109e-08
3.99909e-08
3.99961e-08
4.03698e-08
4.0348e-08
4.14653e-08
4.02858e-08
3.99987e-08
4.15077e-08
4.16008e-08
4.30924e-08
4.23243e-08
4.05729e-08
9.35657e-07
1.2252e-07
4.69959e-08
4.08903e-08
4.0511e-08
4.2711e-08
4.11298e-08
4.04683e-08
4.07784e-08
4.07771e-08
4.08347e-08
4.18298e-08
4.48348e-08
4.46021e-08
4.47289e-08
4.66162e-08
4.38679e-08
4.25217e-08
4.37164e-08
4.6452e-08
4.60734e-08
4.57095e-08
5.06923e-08
4.85631e-08
4.88207e-08
5.47501e-08
5.29005e-08
5.10946e-08
6.40699e-08
0.00223815
2.48684e-05
3.97446e-07
4.38e-08
4.07475e-08
4.10825e-08
4.13069e-08
4.13288e-08
4.12873e-08
4.09346e-08
4.09319e-08
4.19226e-08
4.03786e-08
3.94545e-08
4.07547e-08
4.07477e-08
4.18579e-08
4.03754e-08
3.97004e-08
4.00901e-08
4.04363e-08
4.04683e-08
4.06151e-08
4.30125e-08
4.07594e-08
4.20633e-08
4.09883e-08
4.07222e-08
4.04805e-08
4.04109e-08
4.31801e-08
4.05605e-08
4.00953e-08
4.08901e-08
4.09144e-08
4.39527e-08
4.16504e-08
4.07392e-08
4.30501e-08
4.25587e-08
4.25617e-08
4.22086e-08
4.35728e-08
4.56781e-08
4.67833e-08
4.47195e-08
4.44501e-08
4.58693e-08
4.53217e-08
4.76563e-08
4.85505e-08
5.57768e-08
5.90223e-08
6.63638e-08
0.00223818
2.48598e-05
3.96681e-07
4.36969e-08
4.06556e-08
4.09884e-08
4.12073e-08
4.12276e-08
4.11818e-08
4.11896e-08
4.11933e-08
4.18172e-08
4.02299e-08
3.93976e-08
4.058e-08
4.06843e-08
4.16754e-08
4.02612e-08
3.97092e-08
4.08206e-08
4.0924e-08
4.18797e-08
4.0871e-08
4.09567e-08
4.22126e-08
4.27448e-08
4.02741e-08
4.05286e-08
4.11555e-08
4.05073e-08
4.05278e-08
4.30382e-08
4.10754e-08
4.0454e-08
4.10617e-08
4.2578e-08
4.14881e-08
4.07259e-08
4.23176e-08
4.23743e-08
4.20631e-08
4.18497e-08
4.35792e-08
4.50877e-08
5.00647e-08
4.60728e-08
4.48462e-08
5.51556e-08
4.93576e-08
4.76541e-08
5.50697e-08
5.40954e-08
5.47286e-08
6.45698e-08
0.0022381
2.48711e-05
3.97723e-07
4.3447e-08
4.02851e-08
4.02687e-08
4.03746e-08
4.11064e-08
4.11773e-08
4.11472e-08
4.16717e-08
4.01258e-08
3.97454e-08
4.10954e-08
4.07948e-08
4.11741e-08
4.08825e-08
4.04982e-08
4.07883e-08
4.14581e-08
4.01331e-08
4.00705e-08
4.05587e-08
4.10684e-08
4.05069e-08
3.9776e-08
4.22162e-08
4.07037e-08
4.04201e-08
4.07938e-08
4.14925e-08
4.04534e-08
4.04681e-08
4.3643e-08
4.18189e-08
4.19084e-08
4.52104e-08
4.21611e-08
4.15737e-08
4.37076e-08
4.34529e-08
4.27125e-08
4.26224e-08
4.42085e-08
4.52703e-08
4.84493e-08
5.1472e-08
4.64933e-08
4.5659e-08
4.99592e-08
5.1226e-08
5.41421e-08
5.49176e-08
6.16084e-08
0.00223814
2.48629e-05
3.9696e-07
4.33477e-08
4.02004e-08
4.01812e-08
4.02833e-08
4.10093e-08
4.10931e-08
4.10638e-08
4.16045e-08
4.0043e-08
3.96527e-08
4.06335e-08
4.06813e-08
4.0424e-08
4.03477e-08
4.14598e-08
4.1176e-08
4.1426e-08
3.98075e-08
3.97564e-08
3.99814e-08
4.06498e-08
4.0833e-08
4.01819e-08
4.17615e-08
4.1784e-08
4.13226e-08
4.14509e-08
4.26287e-08
4.06423e-08
4.04487e-08
4.36476e-08
4.09998e-08
4.102e-08
4.51454e-08
4.21396e-08
4.15551e-08
4.37523e-08
4.3212e-08
4.27177e-08
4.19706e-08
4.36132e-08
4.6885e-08
4.85597e-08
5.04907e-08
4.86256e-08
4.45947e-08
4.68402e-08
4.92904e-08
4.82414e-08
5.1809e-08
6.3822e-08
0.00223807
2.48705e-05
3.97758e-07
4.34447e-08
4.02986e-08
4.02791e-08
4.03738e-08
4.11066e-08
4.11203e-08
4.1089e-08
4.16762e-08
4.07689e-08
4.07368e-08
4.21582e-08
4.05274e-08
4.00734e-08
4.02204e-08
4.02854e-08
4.06869e-08
4.06822e-08
4.18648e-08
4.03171e-08
4.02201e-08
4.2808e-08
4.05343e-08
3.98401e-08
4.03155e-08
4.06521e-08
4.032e-08
4.03155e-08
4.10775e-08
4.13665e-08
4.05077e-08
4.05502e-08
4.40934e-08
4.33516e-08
4.35175e-08
4.53285e-08
4.2822e-08
4.2114e-08
4.27693e-08
4.27136e-08
4.49415e-08
4.58611e-08
4.48345e-08
4.43671e-08
4.62231e-08
5.22344e-08
5.03029e-08
4.82855e-08
5.5344e-08
5.32236e-08
5.2261e-08
5.95146e-08
0.0022381
2.48629e-05
3.97024e-07
4.33481e-08
4.02192e-08
4.01871e-08
4.02893e-08
4.10016e-08
4.10257e-08
4.09921e-08
4.15985e-08
4.06841e-08
4.06534e-08
4.20747e-08
4.05205e-08
3.97375e-08
4.06621e-08
4.03296e-08
3.99395e-08
4.03209e-08
4.1531e-08
4.02092e-08
4.00935e-08
4.27526e-08
4.02779e-08
3.97602e-08
4.02296e-08
4.06296e-08
4.03393e-08
4.02522e-08
4.19413e-08
4.21666e-08
4.18935e-08
4.19862e-08
4.39558e-08
4.33671e-08
4.35333e-08
4.5309e-08
4.28199e-08
4.1444e-08
4.34876e-08
4.29402e-08
4.49062e-08
4.57264e-08
4.60662e-08
4.57491e-08
5.23508e-08
5.06393e-08
4.79855e-08
5.29565e-08
5.3351e-08
5.47716e-08
5.57224e-08
6.30317e-08
0.00223802
2.48728e-05
3.98054e-07
4.34454e-08
4.02985e-08
4.02888e-08
4.03789e-08
4.11097e-08
4.11686e-08
4.11388e-08
4.16794e-08
4.00822e-08
3.97194e-08
4.07156e-08
4.07297e-08
4.18445e-08
4.01868e-08
3.90403e-08
3.94225e-08
3.99599e-08
4.05533e-08
4.06941e-08
4.15598e-08
4.03429e-08
4.02604e-08
4.20738e-08
4.0399e-08
4.01946e-08
4.05002e-08
4.09434e-08
4.0359e-08
3.96077e-08
4.09905e-08
4.07619e-08
4.09773e-08
4.11223e-08
4.37315e-08
4.23882e-08
4.15207e-08
4.29531e-08
4.30896e-08
4.2845e-08
4.32129e-08
4.36518e-08
4.79576e-08
4.74041e-08
4.71043e-08
5.13197e-08
4.86405e-08
4.88051e-08
5.38879e-08
5.47552e-08
5.3847e-08
5.8305e-08
0.00223806
2.48651e-05
3.97316e-07
4.33515e-08
4.01908e-08
4.0179e-08
4.02911e-08
4.10031e-08
4.10073e-08
4.09717e-08
4.15785e-08
4.00068e-08
3.96343e-08
4.06304e-08
4.06802e-08
4.17544e-08
4.01194e-08
3.93157e-08
3.96667e-08
3.96624e-08
4.01394e-08
4.04492e-08
4.17117e-08
4.0283e-08
4.00813e-08
4.16811e-08
4.08695e-08
4.08798e-08
4.22846e-08
4.03373e-08
4.02155e-08
4.2534e-08
4.0802e-08
4.04605e-08
4.10151e-08
4.10373e-08
4.38329e-08
4.23569e-08
4.15623e-08
4.22549e-08
4.29287e-08
4.32174e-08
4.55779e-08
4.47319e-08
4.6676e-08
4.79618e-08
4.84727e-08
4.96437e-08
4.86959e-08
4.91735e-08
5.24453e-08
5.47549e-08
5.77138e-08
6.25433e-08
0.002238
2.48724e-05
3.98279e-07
4.34498e-08
4.02779e-08
4.02811e-08
4.03956e-08
4.11621e-08
4.12475e-08
4.20004e-08
4.04497e-08
3.94624e-08
4.03985e-08
4.03705e-08
4.07316e-08
4.07547e-08
4.14176e-08
3.98765e-08
3.93007e-08
4.07554e-08
4.06646e-08
4.0451e-08
4.05255e-08
4.04601e-08
4.12885e-08
4.04034e-08
3.98419e-08
4.07215e-08
4.06683e-08
4.08176e-08
4.08466e-08
4.19082e-08
4.18086e-08
4.16918e-08
4.28684e-08
4.16645e-08
4.18691e-08
4.3306e-08
4.38783e-08
6.19996e-08
6.17224e-08
5.43739e-08
4.60294e-08
4.40806e-08
4.80743e-08
4.99507e-08
5.16243e-08
4.83568e-08
4.68527e-08
5.01621e-08
5.79318e-08
5.55316e-08
5.11192e-08
7.77774e-08
0.00223802
2.48648e-05
3.97559e-07
4.33595e-08
4.01837e-08
4.01933e-08
4.03061e-08
4.10648e-08
4.11627e-08
4.19036e-08
4.03536e-08
3.9372e-08
4.03071e-08
4.02814e-08
4.02279e-08
4.06359e-08
4.00652e-08
3.93896e-08
3.9764e-08
3.98006e-08
4.00988e-08
4.04556e-08
4.08147e-08
4.09534e-08
4.22353e-08
4.02803e-08
3.97788e-08
4.116e-08
4.03301e-08
4.02717e-08
4.07747e-08
4.10166e-08
4.17127e-08
4.16963e-08
4.26538e-08
4.162e-08
4.13842e-08
4.43908e-08
4.36266e-08
8.74228e-08
9.97591e-08
9.9987e-08
5.83612e-08
4.72133e-08
4.5349e-08
4.54403e-08
5.32625e-08
4.8412e-08
4.74232e-08
5.10595e-08
4.83617e-08
5.87619e-08
6.31503e-08
7.23999e-08
0.00223795
2.48743e-05
3.9854e-07
4.34548e-08
4.02818e-08
4.0281e-08
4.03893e-08
4.11611e-08
4.08945e-08
4.08763e-08
4.07439e-08
4.07159e-08
4.19363e-08
4.02751e-08
4.00106e-08
4.13966e-08
4.1408e-08
4.26196e-08
4.03011e-08
3.93882e-08
3.99368e-08
3.99792e-08
4.17935e-08
4.03122e-08
4.01284e-08
4.23477e-08
4.06236e-08
4.04667e-08
4.23341e-08
4.03903e-08
3.94854e-08
4.11741e-08
4.12685e-08
4.15254e-08
4.17758e-08
3.22594e-08
1.60686e-07
8.06623e-08
1.17513e-07
1.67901e-06
1.63769e-06
1.04345e-06
2.18665e-07