/*--------------------------------*- C++ -*----------------------------------*\
| =========                 |                                                 |
| \\      /  F ield         | OpenFOAM: The Open Source CFD Toolbox           |
|  \\    /   O peration     | Version:  4.1                                   |
|   \\  /    A nd           | Web:      www.OpenFOAM.org                      |
|    \\/     M anipulation  |                                                 |
\*---------------------------------------------------------------------------*/
FoamFile
{
    version     2.0;
    format      ascii;
    class       volScalarField;
    location    "7";
    object      nut;
}
// * * * * * * * * * * * * * * * * * * * * * * * * * * * * * * * * * * * * * //

dimensions      [0 2 -1 0 0 0 0];

internalField   nonuniform List<scalar> 
4432
(
34.8987
36.3342
37.2058
38.8224
40.0552
41.3809
43.0856
44.1877
45.3406
46.7735
46.8504
47.4979
49.0096
50.1399
51.8376
54.9919
54.7814
78.3157
97.0606
140.56
84.2798
86.3035
82.4605
70.8492
63.497
71.0117
80.5933
105.968
93.1274
74.5814
102.551
81.2466
89.5307
103.853
108.847
73.7804
129.629
97.6661
58.5645
70.6757
60.9775
65.9038
84.6247
201.508
203.611
173.924
204.178
93.3861
81.3425
84.4898
55.3709
173.069
0.894003
977.582
35.0469
36.1753
37.3607
38.2903
39.9741
41.1839
42.4539
43.6974
45.0403
45.5694
46.254
47.6143
48.7735
49.5745
52.7691
50.0752
60.623
71.1471
82.9622
108.771
70.9412
73.7055
70.0576
64.3963
61.5092
82.1658
120.389
97.3373
96.9733
74.502
106.646
69.1418
100.922
110.483
118.481
76.7318
143.336
102.101
55.766
71.3087
61.0261
61.3793
66.9082
118.865
151.272
89.9534
42.8024
58.5219
64.5119
75.229
55.6767
194.478
0.0628529
931.458
2.01024e-05
9.85749e-06
0.00449146
0.0695106
0.141239
0.207819
0.226725
0.262146
0.324218
0.299985
0.344931
0.500279
0.450076
0.586057
1.04651
2.08188
2.99961
6.74129
12.0247
32.0617
94.2775
197.783
494.578
807.595
271.092
80.8931
47.6959
6.39795
11.6129
17.5866
19.5899
66.024
151.629
224.038
58.0187
10.5361
12.0334
3.20025
4.03769
3.64184
0.313371
1.21758
1.23293
2.08064
2.17968
1.72258
0.000557596
0.0161059
0.0298977
0.0805525
0.278602
1.16238
2.72355
3.39286
2.01018e-05
9.53225e-06
0.00468586
0.0704665
0.168005
0.218813
0.249733
0.281725
0.295815
0.315699
0.584262
0.326458
0.897415
0.446725
1.10274
2.36742
1.9138
6.35684
10.4907
25.916
89.5179
195.248
515.489
797.444
245.323
66.3741
15.8666
28.4101
4.96758
18.7534
21.0176
83.1003
189.403
262.553
32.8653
2.53547
3.65422
0.00599612
0.0145042
0.0120016
0.00952287
0.013346
0.0145217
0.0144016
0.0227637
0.0110032
0.00427542
0.0111579
0.0267286
0.0795288
0.307658
1.30593
3.06222
3.93104
2.00271e-05
1.05714e-06
1.17616e-08
1.42155e-09
2.65812e-09
5.0099e-09
9.78545e-09
2.00264e-08
4.37749e-08
1.04239e-07
2.59589e-07
7.63192e-07
2.7879e-06
9.37775e-06
5.06678e-05
0.000287049
0.00276242
0.0319924
0.716819
5.02674
17.1855
5.83312
2.26175
4.24891
26.4151
9.34335
9.03254
12.6765
35.3535
46.7784
60.8339
108.319
112.283
49.313
9.1916
0.741789
0.408905
1.37688
0.733288
0.267614
0.0789559
0.247122
0.151604
0.177808
0.0536966
0.00311137
3.07166e-05
0.00555493
1.6676e-05
0.00361416
0.00602905
0.0137949
0.0388257
0.0612247
2.00273e-05
1.05693e-06
1.16762e-08
1.33599e-09
2.62846e-09
4.80079e-09
9.60458e-09
1.79725e-08
4.1886e-08
9.03693e-08
2.71171e-07
6.88917e-07
2.58035e-06
7.09399e-06
3.97921e-05
0.000238738
0.00204693
0.0302578
0.544073
4.08987
17.5905
7.1467
2.65349
4.81018
32.6424
5.78623
3.35867
6.05685
7.61706
11.8613
83.6334
101.46
115.849
0.422133
0.953571
0.0104587
0.0898137
0.0440801
5.11668e-05
6.6884e-05
1.03697e-05
7.4021e-06
1.9111e-07
5.9096e-07
4.92688e-05
0.000201546
0.000514472
6.54012e-06
0.0155562
0.0037331
0.0064235
0.0184557
0.0392077
0.0625097
2.00271e-05
1.05695e-06
8.60866e-09
1.08778e-10
9.77954e-11
9.49721e-11
9.48634e-11
9.64596e-11
9.88008e-11
9.9059e-11
1.03483e-10
1.02611e-10
1.06332e-10
1.29519e-10
2.03641e-10
5.22792e-10
3.89658e-09
6.47211e-08
3.57301e-06
7.96726e-05
0.0014594
0.00472893
0.0350058
0.195466
5.68666
6.81038
10.5517
10.5404
6.77522
2.73524
4.30311
9.67071
11.5346
7.60129
0.638516
0.156253
0.0056466
0.0014251
0.000336311
6.60241e-05
1.79435e-05
4.31019e-05
1.81843e-05
2.3482e-05
8.50463e-06
3.83494e-06
6.76269e-08
6.0877e-06
8.16201e-09
0.000697158
0.00622474
0.0683849
0.00325428
0.00509878
2.00272e-05
1.05678e-06
8.5717e-09
1.081e-10
9.72291e-11
9.64417e-11
9.967e-11
9.72307e-11
9.72693e-11
9.87271e-11
1.02006e-10
1.01268e-10
1.06566e-10
1.30174e-10
1.92188e-10
4.8569e-10
3.13601e-09
6.72031e-08
2.88844e-06
6.17577e-05
0.00116688
0.00782865
0.0399914
0.213626
6.19168
3.25193
6.56846
3.62025
2.8144
1.67676
6.80071
5.00009
2.34671
0.260915
0.000735496
0.000855855
4.57348e-06
1.12279e-05
1.66398e-09
1.39341e-09
3.84351e-10
2.35755e-10
1.44044e-10
1.31295e-10
1.20911e-10
1.07481e-10
1.05431e-10
1.23894e-10
0.000156081
0.000786839
0.00974876
0.0651002
0.00128995
0.00522724
2.00268e-05
1.05695e-06
8.61576e-09
1.08646e-10
9.71291e-11
9.68899e-11
9.63764e-11
9.62645e-11
9.67583e-11
1.0002e-10
9.63957e-11
9.36957e-11
1.01425e-10
9.87954e-11
9.86338e-11
1.05821e-10
1.03352e-10
1.04174e-10
1.99004e-10
1.29227e-09
2.52314e-08
1.23781e-07
1.53677e-06
2.3933e-05
0.000733979
0.0016933
0.00934815
0.206548
0.673417
0.335515
2.28317
11.8988
17.0738
1.32045
0.131134
0.00137269
1.04161e-07
4.2882e-08
1.43253e-08
3.28521e-09
1.27176e-09
2.76086e-09
1.72594e-09
5.40915e-09
5.52542e-10
2.22735e-10
2.88087e-10
2.24924e-09
1.45931e-10
1.54672e-10
1.66231e-10
6.78048e-10
1.47446e-06
5.39194e-06
2.0027e-05
1.0568e-06
8.7179e-09
1.10175e-10
9.58104e-11
9.72996e-11
9.48355e-11
9.41699e-11
9.51822e-11
9.67358e-11
9.54125e-11
9.3049e-11
1.00735e-10
9.78661e-11
9.79609e-11
1.04719e-10
1.00998e-10
1.02635e-10
1.88608e-10
1.08931e-09
2.09566e-08
2.09288e-07
1.81606e-06
2.59341e-05
0.000822916
0.000717151
0.0044539
0.0779605
0.19584
0.104049
2.59033
6.66338
2.17808
0.068908
0.00194762
2.37816e-07
1.96057e-10
8.45338e-11
1.13963e-10
1.02853e-10
1.00106e-10
1.08477e-10
1.30982e-10
1.32753e-10
1.19688e-10
1.21109e-10
1.10184e-10
1.21866e-10
1.58264e-10
3.01251e-10
9.13906e-09
4.55796e-06
2.22803e-06
4.00511e-06
2.00265e-05
1.05705e-06
9.01883e-09
1.13331e-10
9.64813e-11
9.75976e-11
1.00075e-10
9.92867e-11
9.90797e-11
1.04337e-10
9.66965e-11
9.38169e-11
1.00174e-10
1.00291e-10
1.05405e-10
9.91332e-11
9.66452e-11
1.02166e-10
1.02965e-10
1.0965e-10
1.12257e-10
1.80896e-10
6.52242e-10
7.24213e-09
6.94703e-08
2.31064e-07
1.7086e-06
5.17682e-05
0.000179302
5.85983e-05
0.000364497
0.00432767
0.036665
0.0122493
8.65179e-05
1.53802e-08
1.27531e-10
1.15765e-10
1.15254e-10
1.07343e-10
1.13595e-10
1.21744e-10
1.28429e-10
1.49585e-10
1.4968e-10
1.50326e-10
1.20894e-10
1.40029e-10
1.12108e-10
1.20113e-10
2.87061e-10
1.35226e-08
1.8348e-06
1.77888e-06
2.00267e-05
1.05687e-06
8.97941e-09
1.12452e-10
9.58514e-11
9.66065e-11
9.64317e-11
1.01438e-10
9.74591e-11
9.22405e-11
9.21035e-11
9.36984e-11
9.88138e-11
9.92565e-11
1.04746e-10
9.83254e-11
9.56009e-11
1.02168e-10
1.02591e-10
1.07818e-10
1.08469e-10
2.11174e-10
7.34369e-10
8.02445e-09
8.12868e-08
1.01524e-07
8.5641e-07
1.93725e-05
4.38528e-05
1.68108e-05
0.000426526
0.00181368
0.00615673
0.000144932
1.01747e-06
8.57384e-11
9.72184e-11
9.8371e-11
1.04917e-10
1.01498e-10
1.05101e-10
1.13501e-10
1.10329e-10
1.15921e-10
1.24004e-10
1.19888e-10
1.14672e-10
1.21077e-10
1.28183e-10
1.23968e-10
2.323e-10
1.25058e-08
1.8787e-06
1.89177e-06
2.00261e-05
1.05707e-06
9.0303e-09
1.13595e-10
9.66988e-11
9.84865e-11
1.02916e-10
9.66328e-11
9.40387e-11
1.01675e-10
9.90676e-11
9.65118e-11
9.68442e-11
9.86681e-11
1.00237e-10
1.01626e-10
1.02356e-10
1.00149e-10
1.00697e-10
1.03013e-10
1.03783e-10
1.04958e-10
1.07307e-10
1.31592e-10
2.02781e-10
2.03029e-10
6.28206e-10
1.09862e-08
3.175e-08
1.02338e-08
5.77044e-08
6.74119e-07
6.18033e-06
2.13165e-06
1.52787e-08
6.20935e-11
1.0253e-10
1.04156e-10
1.11005e-10
1.1215e-10
1.21268e-10
1.11996e-10
1.08165e-10
1.06259e-10
1.14917e-10
1.0843e-10
1.12043e-10
1.20384e-10
1.14313e-10
1.11048e-10
1.45372e-10
6.73506e-10
3.31135e-08
1.13532e-07
2.00263e-05
1.05689e-06
8.99179e-09
1.12703e-10
9.59792e-11
9.77206e-11
1.02082e-10
9.59463e-11
9.33524e-11
1.00648e-10
9.73342e-11
9.63856e-11
9.95667e-11
9.96033e-11
9.97647e-11
1.01442e-10
1.0117e-10
9.9756e-11
1.0082e-10
1.02955e-10
9.66106e-11
9.80905e-11
1.03866e-10
1.25271e-10
2.13626e-10
2.55712e-10
4.38557e-10
4.82378e-09
9.1387e-09
3.32725e-09
6.69488e-08
2.89535e-07
1.12001e-06
2.99448e-08
4.14144e-11
1.0653e-10
1.02399e-10
1.02485e-10
1.08573e-10
1.09818e-10
1.17886e-10
1.10692e-10
1.05152e-10
1.06106e-10
1.25869e-10
1.13502e-10
9.96147e-11
1.10436e-10
1.25876e-10
1.1749e-10
1.59531e-10
8.90849e-10
4.86e-08
1.53006e-07
2.00258e-05
1.0572e-06
8.65108e-09
1.08715e-10
9.70244e-11
9.65969e-11
9.69238e-11
9.65451e-11
9.64309e-11
1.00037e-10
9.65077e-11
9.54162e-11
1.0398e-10
9.79936e-11
9.75643e-11
1.02915e-10
9.85307e-11
9.74233e-11
9.91652e-11
1.04354e-10
1.00665e-10
1.00421e-10
1.05156e-10
1.06089e-10
1.09192e-10
1.08278e-10
1.15794e-10
1.58713e-10
2.14236e-10
1.59212e-10
2.51313e-10
9.7239e-10
5.60433e-09
9.617e-10
6.65531e-11
1.00721e-10
1.04742e-10
1.04509e-10
1.05789e-10
1.12583e-10
1.13212e-10
1.15713e-10
1.25294e-10
1.12823e-10
1.23991e-10
1.1129e-10
1.03092e-10
9.85588e-11
1.00935e-10
1.02447e-10
1.25654e-10
3.1112e-10
1.96614e-08
1.48527e-07
2.00259e-05
1.05702e-06
8.61433e-09
1.08211e-10
9.42072e-11
9.54776e-11
9.47469e-11
9.41809e-11
9.49702e-11
9.6858e-11
9.57627e-11
9.47676e-11
1.00167e-10
1.00162e-10
9.97622e-11
9.78136e-11
9.74493e-11
9.74706e-11
1.00787e-10
1.01777e-10
9.82979e-11
9.88639e-11
1.01357e-10
1.03407e-10
1.07325e-10
1.05765e-10
1.13823e-10
1.36821e-10
1.2198e-10
1.38071e-10
2.52665e-10
2.75056e-10
6.12767e-10
1.59533e-10
1.00361e-10
1.03883e-10
1.03887e-10
1.04069e-10
1.04986e-10
1.11312e-10
1.09193e-10
1.15219e-10
1.23399e-10
1.10592e-10
1.38934e-10
1.10841e-10
9.84823e-11
1.07762e-10
1.18539e-10
1.11053e-10
1.3779e-10
3.82809e-10
1.91589e-08
1.3575e-07
2.00254e-05
1.05723e-06
8.66314e-09
1.08807e-10
9.72229e-11
9.68105e-11
9.68294e-11
9.66575e-11
9.66738e-11
9.99207e-11
9.65566e-11
9.37577e-11
9.8412e-11
9.80934e-11
9.87088e-11
9.8583e-11
1.03796e-10
9.91549e-11
9.68507e-11
9.89385e-11
1.02396e-10
1.00789e-10
9.96603e-11
1.08245e-10
1.07965e-10
1.07102e-10
1.09071e-10
1.10362e-10
1.06548e-10
1.06402e-10
1.12642e-10
1.1461e-10
1.37021e-10
1.13208e-10
1.02159e-10
1.0194e-10
1.15068e-10
1.08653e-10
1.04602e-10
1.16929e-10
1.14957e-10
1.25223e-10
1.2607e-10
1.17767e-10
1.43852e-10
1.17253e-10
1.06175e-10
1.03499e-10
1.05646e-10
1.05818e-10
1.17425e-10
1.58527e-10
3.22115e-09
8.76103e-08
2.00256e-05
1.05706e-06
8.62777e-09
1.08253e-10
9.48889e-11
9.44476e-11
9.62159e-11
9.65332e-11
9.73905e-11
1.00057e-10
9.58702e-11
9.32903e-11
9.7902e-11
9.77723e-11
9.79216e-11
9.7626e-11
1.0301e-10
9.76581e-11
9.79427e-11
1.06855e-10
9.81721e-11
9.85419e-11
1.07989e-10
1.00898e-10
1.00548e-10
1.07204e-10
1.01037e-10
1.00276e-10
1.00326e-10
1.02059e-10
1.02957e-10
1.09155e-10
1.07428e-10
1.19014e-10
1.01717e-10
1.00452e-10
1.07871e-10
1.07417e-10
1.06478e-10
1.15254e-10
1.10797e-10
1.17776e-10
1.18479e-10
1.16755e-10
1.32748e-10
1.11121e-10
9.9462e-11
1.05957e-10
1.09557e-10
1.11301e-10
1.26095e-10
2.03727e-10
6.21715e-09
1.24212e-07
2.0025e-05
1.05737e-06
8.6803e-09
1.08894e-10
9.76776e-11
9.41374e-11
9.3587e-11
9.21329e-11
9.03659e-11
9.15194e-11
9.25904e-11
9.41108e-11
9.38983e-11
9.34712e-11
9.53846e-11
9.63604e-11
9.87021e-11
1.05233e-10
9.88246e-11
9.80858e-11
1.05333e-10
1.06163e-10
1.04006e-10
1.05023e-10
1.08947e-10
1.08779e-10
1.10808e-10
1.02845e-10
1.00119e-10
1.02251e-10
1.06997e-10
1.02262e-10
1.00673e-10
1.02399e-10
1.03822e-10
1.1306e-10
1.08831e-10
1.22768e-10
1.12919e-10
1.13195e-10
1.17433e-10
1.17839e-10
1.16612e-10
1.20337e-10
1.48862e-10
1.23793e-10
1.12666e-10
1.14385e-10
1.26875e-10
1.19877e-10
1.2386e-10
1.45949e-10
9.0452e-10
3.50204e-08
2.00252e-05
1.0572e-06
8.64772e-09
1.06368e-10
9.22281e-11
9.34371e-11
9.26188e-11
9.24299e-11
9.62333e-11
9.58767e-11
9.62466e-11
9.63094e-11
9.94972e-11
9.7408e-11
9.69468e-11
9.79197e-11
9.83396e-11
1.0465e-10
9.86807e-11
9.80837e-11
1.0354e-10
1.03906e-10
1.03083e-10
1.00851e-10
1.02797e-10
1.04325e-10
1.07439e-10
1.09406e-10
1.10073e-10
1.07503e-10
1.11116e-10
1.03703e-10
9.9481e-11
1.11435e-10
1.07105e-10
1.12495e-10
1.08799e-10
1.21447e-10
1.12046e-10
1.12405e-10
1.16784e-10
1.12732e-10
1.10209e-10
1.12057e-10
1.1461e-10
1.12807e-10
1.0461e-10
1.25767e-10
1.22544e-10
1.29463e-10
1.29851e-10
1.86721e-10
1.60251e-09
5.72832e-08
2.00247e-05
1.05739e-06
8.69803e-09
1.06965e-10
9.27403e-11
9.38759e-11
9.24986e-11
9.13596e-11
9.60252e-11
9.38493e-11
9.36186e-11
9.57706e-11
1.02866e-10
1.0149e-10
9.70007e-11
9.89377e-11
9.85914e-11
9.97751e-11
9.98911e-11
1.0677e-10
9.94918e-11
9.86592e-11
1.06248e-10
1.05445e-10
1.04831e-10
1.04604e-10
1.09191e-10
1.02159e-10
1.03331e-10
1.0725e-10
1.04169e-10
1.07439e-10
1.05855e-10
1.13019e-10
1.12502e-10
1.13922e-10
1.06515e-10
1.16222e-10
1.17055e-10
1.17341e-10
1.23139e-10
1.21715e-10
1.18764e-10
1.157e-10
1.27074e-10
1.48984e-10
1.28054e-10
1.16259e-10
1.40944e-10
1.39201e-10
1.59661e-10
1.54016e-10
1.26882e-10
3.62093e-10
2.00249e-05
1.05724e-06
8.6614e-09
1.06389e-10
9.22354e-11
9.34063e-11
9.37135e-11
9.3478e-11
9.74492e-11
9.56616e-11
9.49209e-11
9.6622e-11
1.03255e-10
9.95016e-11
9.56143e-11
9.85197e-11
9.86741e-11
9.69966e-11
9.73537e-11
1.05668e-10
9.93577e-11
9.8552e-11
1.06071e-10
1.02811e-10
1.07585e-10
1.07788e-10
1.08418e-10
1.03256e-10
1.03544e-10
1.11377e-10
1.03636e-10
1.05216e-10
1.06906e-10
1.07583e-10
1.12878e-10
1.09785e-10
1.03634e-10
1.15717e-10
1.15732e-10
1.16064e-10
1.19081e-10
1.20463e-10
1.19114e-10
1.20835e-10
1.22269e-10
1.3631e-10
1.28169e-10
1.31373e-10
1.21996e-10
1.2975e-10
1.26042e-10
1.28072e-10
1.39913e-10
5.03683e-10
2.00245e-05
1.0575e-06
8.70489e-09
1.04963e-10
9.12521e-11
9.09199e-11
9.19734e-11
9.45657e-11
9.57651e-11
9.36982e-11
9.37483e-11
9.54593e-11
1.02807e-10
9.82972e-11
9.76677e-11
1.08052e-10
9.69961e-11
9.58405e-11
9.82679e-11
9.95078e-11
9.81928e-11
9.63195e-11
1.01873e-10
1.01964e-10
1.10433e-10
1.01776e-10
1.02297e-10
1.11083e-10
1.09858e-10
1.03488e-10
9.67768e-11
1.07089e-10
1.06537e-10
1.09335e-10
1.10893e-10
1.20707e-10
1.09531e-10
1.02923e-10
1.05688e-10
1.06598e-10
1.1405e-10
1.13213e-10
1.17048e-10
1.30649e-10
1.37221e-10
1.36021e-10
1.47063e-10
1.32818e-10
1.35905e-10
1.36219e-10
1.44873e-10
1.55574e-10
1.52594e-10
1.783e-10
2.00247e-05
1.05735e-06
8.66605e-09
1.06294e-10
9.22416e-11
9.34225e-11
9.31406e-11
9.29005e-11
9.71263e-11
9.69051e-11
9.78064e-11
9.69281e-11
9.81235e-11
1.04467e-10
9.82647e-11
9.41633e-11
9.78793e-11
9.78935e-11
9.83539e-11
9.85008e-11
1.00232e-10
1.00762e-10
1.00758e-10
1.05769e-10
1.00962e-10
1.01293e-10
1.10184e-10
1.10725e-10
1.15137e-10
1.03157e-10
9.72779e-11
1.06252e-10
1.05472e-10
1.04664e-10
1.05731e-10
1.2082e-10
1.09533e-10
1.02148e-10
1.04448e-10
1.04228e-10
1.2343e-10
1.23768e-10
1.2409e-10
1.37118e-10
1.35214e-10
1.42156e-10
1.27345e-10
1.33652e-10
1.35147e-10
1.35053e-10
1.44235e-10
1.49059e-10
1.31091e-10
1.58793e-10
2.00243e-05
1.05806e-06
9.24772e-09
1.16461e-10
9.95928e-11
1.01186e-10
1.04882e-10
9.89529e-11
9.11211e-11
9.51631e-11
9.35485e-11
9.37273e-11
9.50615e-11
9.43695e-11
9.52201e-11
9.61456e-11
9.71291e-11
9.88055e-11
1.03827e-10
9.80214e-11
9.69801e-11
9.81287e-11
9.99409e-11
1.01356e-10
1.02873e-10
1.14981e-10
1.03652e-10
1.03069e-10
1.14104e-10
1.03022e-10
9.65989e-11
1.03361e-10
1.04967e-10
1.04107e-10
1.01268e-10
1.03283e-10
1.04158e-10
1.03258e-10
1.06467e-10
1.15488e-10
1.18954e-10
1.23859e-10
1.23639e-10
1.2605e-10
1.23318e-10
1.20295e-10
1.29932e-10
1.29063e-10
1.5708e-10
1.52117e-10
1.55825e-10
1.75293e-10
1.79082e-10
2.01043e-10
2.00245e-05
1.05793e-06
9.20968e-09
1.15837e-10
9.91232e-11
1.00639e-10
1.04301e-10
9.8101e-11
9.18027e-11
9.62027e-11
9.60056e-11
9.77202e-11
9.75634e-11
9.82213e-11
1.04278e-10
9.82887e-11
9.49871e-11
1.01351e-10
1.00931e-10
1.05358e-10
9.80499e-11
9.67226e-11
9.66347e-11
9.79279e-11
1.06932e-10
1.02133e-10
9.89988e-11
1.0419e-10
1.01615e-10
1.03883e-10
1.02708e-10
1.05814e-10
1.03767e-10
1.05556e-10
1.01524e-10
1.00983e-10
1.05542e-10
1.20332e-10
1.12291e-10
1.02705e-10
1.35985e-10
1.19934e-10
1.11789e-10
1.24921e-10
1.27271e-10
1.35919e-10
1.30652e-10
1.71423e-10
1.56435e-10
1.38297e-10
1.64241e-10
1.53035e-10
1.47467e-10
1.7224e-10
2.0025e-05
1.05907e-06
9.00139e-09
1.1321e-10
1.03163e-10
1.02994e-10
1.06408e-10
9.85323e-11
9.74376e-11
1.09931e-10
9.87428e-11
9.55713e-11
1.01996e-10
1.01445e-10
1.0312e-10
1.04218e-10
1.0344e-10
1.03665e-10
1.00017e-10
1.00276e-10
1.08856e-10
9.98247e-11
9.58399e-11
1.28891e-10
1.1475e-10
0.000257416
7.78967e-11
8.81395e-11
1.01884e-10
1.00236e-10
1.03709e-10
1.04419e-10
1.04735e-10
1.16773e-10
1.07072e-10
9.79324e-11
1.04709e-10
1.06105e-10
1.07848e-10
1.05438e-10
1.09978e-10
1.17205e-10
1.21351e-10
1.24128e-10
1.25485e-10
1.25626e-10
1.36003e-10
1.46352e-10
1.5897e-10
1.64871e-10
1.56833e-10
1.33612e-10
1.51473e-10
2.13372e-10
2.00243e-05
1.0586e-06
9.09343e-09
1.12864e-10
9.48725e-11
9.71396e-11
1.04213e-10
9.79613e-11
9.67457e-11
1.07334e-10
9.62311e-11
9.50195e-11
9.69333e-11
9.82986e-11
9.8831e-11
9.64658e-11
1.01185e-10
1.01491e-10
1.04781e-10
9.85113e-11
9.70383e-11
1.06057e-10
1.02763e-10
1.3105e-10
1.67003e-10
0.000186348
8.03552e-11
9.01585e-11
9.76044e-11
1.06484e-10
1.0548e-10
1.0853e-10
1.09305e-10
1.16966e-10
1.04907e-10
9.92811e-11
1.02788e-10
1.08067e-10
1.06135e-10
1.03777e-10
1.21666e-10
1.13886e-10
1.09853e-10
1.16046e-10
1.17552e-10
1.27739e-10
1.34386e-10
1.64825e-10
1.44678e-10
1.19438e-10
1.38905e-10
1.50301e-10
1.5564e-10
1.8538e-10
2.0024e-05
1.05875e-06
9.26868e-09
1.16283e-10
9.96455e-11
1.01276e-10
1.04613e-10
9.86835e-11
9.57371e-11
1.02397e-10
1.01581e-10
1.03564e-10
1.02394e-10
1.02171e-10
1.06209e-10
9.92056e-11
9.31288e-11
9.76454e-11
9.71126e-11
9.84165e-11
9.90672e-11
9.88466e-11
9.96409e-11
1.46637e-10
0.00606396
0.0127897
0.00836931
2.83055e-06
8.94913e-10
1.02057e-10
1.01075e-10
1.03763e-10
1.09461e-10
1.03167e-10
1.00136e-10
1.06316e-10
1.05611e-10
1.06457e-10
1.18625e-10
1.07478e-10
1.08221e-10
1.28409e-10
1.27239e-10
1.27133e-10
1.2817e-10
1.34145e-10
1.44388e-10
1.51573e-10
1.62755e-10
1.56929e-10
1.67729e-10
1.59215e-10
1.68355e-10
2.62032e-10
1.99652e-05
1.05989e-06
9.19434e-09
1.15314e-10
1.04748e-10
9.77185e-11
9.68856e-11
1.08045e-10
9.76389e-11
9.67665e-11
1.05592e-10
9.57703e-11
9.48472e-11
1.01413e-10
9.99505e-11
1.00302e-10
1.01564e-10
9.92316e-11
9.83753e-11
1.05344e-10
9.96172e-11
9.85198e-11
1.33822e-10
1.42156e-10
0.00951493
0.0172693
0.00213213
4.20437e-07
2.88841e-10
1.04102e-10
1.00754e-10
1.0773e-10
1.08429e-10
1.0803e-10
1.14403e-10
1.04507e-10
1.01938e-10
1.15597e-10
1.0918e-10
1.02965e-10
1.07453e-10
1.14861e-10
1.15284e-10
1.3924e-10
1.38259e-10
1.2239e-10
1.25505e-10
1.35026e-10
1.68734e-10
1.72642e-10
2.29871e-10
1.84626e-10
1.61453e-10
2.91027e-10
1.99755e-05
1.05763e-06
9.07894e-09
1.11328e-10
9.94002e-11
9.91291e-11
1.06298e-10
9.84678e-11
9.72331e-11
1.07939e-10
9.68114e-11
9.55039e-11
1.01993e-10
1.00742e-10
1.02635e-10
1.01824e-10
1.02108e-10
1.06209e-10
9.8668e-11
9.60307e-11
1.05223e-10
1.00274e-10
8.74676e-08
0.00607319
0.272102
0.00272582
5.92154e-05
8.17276e-09
1.18422e-10
1.01899e-10
1.08221e-10
1.01514e-10
9.99992e-11
1.05866e-10
1.05508e-10
1.22008e-10
1.09555e-10
1.1054e-10
1.13213e-10
1.13491e-10
1.21194e-10
1.22274e-10
1.24684e-10
1.18936e-10
1.23074e-10
1.37232e-10
1.72166e-10
1.54667e-10
1.42128e-10
1.52415e-10
1.67255e-10
1.87396e-10
2.31061e-10
2.00356e-05
1.05712e-06
9.56136e-09
1.1394e-10
9.99576e-11
1.07261e-10
9.8305e-11
9.19478e-11
9.65672e-11
9.60433e-11
9.61689e-11
9.9871e-11
9.57441e-11
9.47371e-11
1.01424e-10
1.01682e-10
1.0125e-10
1.03374e-10
9.78223e-11
9.69373e-11
1.07238e-10
1.05553e-10
1.52728e-10
0.000156598
0.298394
0.0247547
7.78882e-06
1.39355e-09
1.09114e-10
9.59542e-11
9.67547e-11
9.93205e-11
1.00781e-10
1.05259e-10
1.07612e-10
1.07277e-10
1.0687e-10
1.10357e-10
1.1418e-10
1.16247e-10
1.12593e-10
1.29325e-10
1.23166e-10
1.11026e-10
1.12884e-10
1.07664e-10
1.11774e-10
1.21946e-10
1.32166e-10
1.48153e-10
1.78942e-10
2.06218e-10
2.52941e-10
2.00249e-05
1.05712e-06
9.26328e-09
1.15562e-10
1.0525e-10
9.63316e-11
9.55402e-11
1.04554e-10
1.01499e-10
1.01334e-10
1.06162e-10
9.8108e-11
9.6832e-11
1.06147e-10
1.05486e-10
1.05015e-10
1.0437e-10
1.06106e-10
1.08041e-10
9.89144e-11
9.83982e-11
1.08338e-10
1.22868e-10
1.5204e-05
0.000202981
0.00294957
0.000113271
3.54111e-08
1.46186e-10
1.02399e-10
1.00087e-10
1.03877e-10
1.06015e-10
1.05789e-10
1.06817e-10
1.04889e-10
1.09787e-10
1.2107e-10
1.12263e-10
1.123e-10
1.26669e-10
1.25983e-10
1.25223e-10
1.29341e-10
1.27116e-10
1.29614e-10
1.61766e-10
1.39231e-10
1.2043e-10
1.56502e-10
1.6163e-10
1.52224e-10
1.54711e-10
2.23491e-10
2.00251e-05
1.05701e-06
9.22887e-09
1.15003e-10
1.04743e-10
9.59505e-11
9.50739e-11
1.03998e-10
1.0097e-10
1.00815e-10
1.05558e-10
9.79326e-11
9.32653e-11
9.79533e-11
9.79153e-11
9.75933e-11
9.78997e-11
1.04503e-10
9.81108e-11
9.4895e-11
1.03811e-10
1.0211e-10
9.40681e-11
7.53711e-08
2.53618e-05
0.00567751
1.77104e-05
5.54222e-09
1.44314e-10
1.02181e-10
1.00264e-10
1.12033e-10
9.98693e-11
9.83088e-11
1.02064e-10
1.02896e-10
1.08608e-10
1.06392e-10
1.14805e-10
1.20612e-10
1.09677e-10
1.06843e-10
1.13117e-10
1.32749e-10
1.20838e-10
1.14665e-10
1.34482e-10
1.37622e-10
1.40116e-10
1.36202e-10
1.71078e-10
1.81737e-10
1.80505e-10
2.40724e-10
2.00238e-05
1.0586e-06
9.32763e-09
1.18288e-10
1.02431e-10
1.03985e-10
1.04816e-10
1.0796e-10
9.8146e-11
9.72345e-11
1.07927e-10
9.96676e-11
9.56906e-11
9.7819e-11
1.0351e-10
9.82845e-11
9.72838e-11
1.0919e-10
9.81707e-11
9.58418e-11
1.04438e-10
9.90781e-11
9.83165e-11
1.07803e-10
1.01925e-10
4.30414e-08
2.73366e-09
1.22409e-10
1.01574e-10
1.00786e-10
1.03853e-10
1.0174e-10
9.98533e-11
1.02238e-10
1.03043e-10
1.03647e-10
1.0106e-10
1.11954e-10
1.05845e-10
1.03075e-10
1.18163e-10
1.15868e-10
1.1576e-10
1.1499e-10
1.32473e-10
1.26819e-10
1.23363e-10
1.24638e-10
1.29072e-10
1.37111e-10
1.66506e-10
1.66482e-10
1.59944e-10
2.46696e-10
2.00241e-05
1.05847e-06
9.29194e-09
1.17731e-10
1.01969e-10
1.03508e-10
1.04299e-10
1.07424e-10
9.76817e-11
9.68729e-11
1.07372e-10
9.91961e-11
9.49998e-11
9.65501e-11
9.65774e-11
9.81309e-11
9.80621e-11
1.03515e-10
9.7924e-11
9.65628e-11
1.03858e-10
1.04323e-10
1.11706e-10
1.0804e-10
9.93559e-11
5.28259e-08
9.05575e-10
1.32879e-10
1.00836e-10
9.89631e-11
1.0999e-10
1.0197e-10
9.85131e-11
1.00309e-10
1.00292e-10
1.00224e-10
1.05336e-10
1.21009e-10
1.19821e-10
1.20438e-10
1.30579e-10
1.15443e-10
1.08538e-10
1.14742e-10
1.29292e-10
1.27024e-10
1.25202e-10
1.53971e-10
1.40335e-10
1.42466e-10
1.79134e-10
1.66067e-10
1.54915e-10
2.40746e-10
2.0024e-05
1.05805e-06
9.21427e-09
1.1585e-10
1.00318e-10
1.01927e-10
1.02848e-10
1.03148e-10
1.03039e-10
1.01189e-10
1.01175e-10
1.06084e-10
9.84323e-11
9.39907e-11
1.00234e-10
1.00004e-10
1.05743e-10
9.84032e-11
9.48677e-11
9.7016e-11
9.8712e-11
9.86012e-11
9.93228e-11
1.11354e-10
1.00043e-10
1.06524e-10
1.01326e-10
1.00008e-10
9.85767e-11
9.85476e-11
1.12565e-10
9.89437e-11
9.67357e-11
1.00766e-10
1.0085e-10
1.16075e-10
1.04272e-10
9.97789e-11
1.11301e-10
1.08778e-10
1.08778e-10
1.06846e-10
1.13737e-10
1.24721e-10
1.3035e-10
1.1977e-10
1.18695e-10
1.26011e-10
1.22165e-10
1.35317e-10
1.40304e-10
1.83262e-10
2.05063e-10
2.57099e-10
2.00242e-05
1.05792e-06
9.18068e-09
1.15319e-10
9.9878e-11
1.01473e-10
1.02365e-10
1.02656e-10
1.02527e-10
1.02371e-10
1.02438e-10
1.05567e-10
9.75824e-11
9.37558e-11
9.94664e-11
9.99354e-11
1.04815e-10
9.78582e-11
9.52072e-11
1.00326e-10
1.00892e-10
1.05637e-10
1.00773e-10
1.01285e-10
1.075e-10
1.10236e-10
9.78717e-11
9.90986e-11
1.02017e-10
9.89692e-11
9.90802e-11
1.11338e-10
1.01706e-10
9.86951e-11
1.01632e-10
1.09275e-10
1.03706e-10
9.98234e-11
1.07685e-10
1.07975e-10
1.06059e-10
1.04918e-10
1.1382e-10
1.21732e-10
1.49519e-10
1.27184e-10
1.20845e-10
1.82069e-10
1.44913e-10
1.35705e-10
1.81114e-10
1.72568e-10
1.76526e-10
2.43379e-10
2.00239e-05
1.05821e-06
9.22705e-09
1.14045e-10
9.80583e-11
9.79333e-11
9.83928e-11
1.01801e-10
1.02344e-10
1.02291e-10
1.04719e-10
9.71251e-11
9.53788e-11
1.01954e-10
1.00296e-10
1.02346e-10
1.00948e-10
9.89659e-11
1.00388e-10
1.03715e-10
9.71752e-11
9.67017e-11
9.92846e-11
1.01826e-10
9.90323e-11
9.54587e-11
1.07556e-10
1.0006e-10
9.85543e-11
1.00374e-10
1.03771e-10
9.86412e-11
9.86105e-11
1.1492e-10
1.05514e-10
1.05764e-10
1.23181e-10
1.07121e-10
1.03987e-10
1.1456e-10
1.13379e-10
1.09509e-10
1.08977e-10
1.17137e-10
1.22242e-10
1.40209e-10
1.5863e-10
1.29511e-10
1.24177e-10
1.49027e-10
1.56733e-10
1.73628e-10
1.78608e-10
2.22135e-10
2.00241e-05
1.05812e-06
9.19346e-09
1.13537e-10
9.76689e-11
9.75309e-11
9.79712e-11
1.01345e-10
1.01938e-10
1.01889e-10
1.04398e-10
9.68076e-11
9.49333e-11
9.96403e-11
9.97848e-11
9.86581e-11
9.83249e-11
1.03764e-10
1.02319e-10
1.03598e-10
9.56746e-11
9.52964e-11
9.63734e-11
9.9521e-11
1.00663e-10
9.74676e-11
1.04957e-10
1.05166e-10
1.03123e-10
1.0372e-10
1.09651e-10
9.96736e-11
9.85594e-11
1.14937e-10
1.01421e-10
1.01214e-10
1.22815e-10
1.07076e-10
1.03969e-10
1.14914e-10
1.12075e-10
1.09504e-10
1.05613e-10
1.14016e-10
1.3168e-10
1.41065e-10
1.52752e-10
1.41624e-10
1.18709e-10
1.30921e-10
1.44268e-10
1.38037e-10
1.58466e-10
2.37478e-10
2.00241e-05
1.05818e-06
9.22447e-09
1.13979e-10
9.80261e-11
9.79051e-11
9.83636e-11
1.01806e-10
1.01835e-10
1.01862e-10
1.04795e-10
1.00159e-10
9.99949e-11
1.0699e-10
9.89291e-11
9.69832e-11
9.77134e-11
9.7936e-11
9.98958e-11
9.97621e-11
1.05773e-10
9.81333e-11
9.76024e-11
1.10433e-10
9.91757e-11
9.58541e-11
9.79034e-11
9.9647e-11
9.80332e-11
9.78589e-11
1.01628e-10
1.03041e-10
9.88245e-11
9.90191e-11
1.16892e-10
1.13128e-10
1.14016e-10
1.23726e-10
1.10409e-10
1.06696e-10
1.1002e-10
1.09448e-10
1.21172e-10
1.25786e-10
1.20262e-10
1.17295e-10
1.27669e-10
1.6305e-10
1.50058e-10
1.38644e-10
1.82044e-10
1.67476e-10
1.61143e-10
2.0764e-10
2.00242e-05
1.05813e-06
9.19224e-09
1.13486e-10
9.76512e-11
9.74225e-11
9.79204e-11
1.01348e-10
1.01441e-10
1.01319e-10
1.04356e-10
9.98291e-11
9.96517e-11
1.06591e-10
9.90831e-11
9.53385e-11
9.96534e-11
9.80286e-11
9.60934e-11
9.81156e-11
1.042e-10
9.76481e-11
9.70635e-11
1.10139e-10
9.79348e-11
9.55099e-11
9.76124e-11
9.96291e-11
9.82172e-11
9.76979e-11
1.06054e-10
1.07103e-10
1.05703e-10
1.06173e-10
1.16188e-10
1.1321e-10
1.14073e-10
1.23337e-10
1.10127e-10
1.03185e-10
1.13582e-10
1.10685e-10
1.21119e-10
1.25109e-10
1.26723e-10
1.24532e-10
1.63767e-10
1.53738e-10
1.37797e-10
1.67953e-10
1.69152e-10
1.78345e-10
1.84493e-10
2.32553e-10
2.00239e-05
1.0583e-06
9.23816e-09
1.13985e-10
9.80269e-11
9.79631e-11
9.83983e-11
1.01821e-10
1.02073e-10
1.02156e-10
1.04862e-10
9.6767e-11
9.52432e-11
1.00077e-10
9.98798e-11
1.05666e-10
9.75083e-11
9.18341e-11
9.3643e-11
9.61486e-11
9.92962e-11
1.00021e-10
1.04033e-10
9.81141e-11
9.76991e-11
1.06761e-10
9.84207e-11
9.7249e-11
9.89436e-11
1.011e-10
9.79842e-11
9.44427e-11
1.01128e-10
1.00147e-10
1.01198e-10
1.01499e-10
1.15093e-10
1.08163e-10
1.03706e-10
1.10801e-10
1.11564e-10
1.10254e-10
1.11669e-10
1.14046e-10
1.37607e-10
1.34072e-10
1.32359e-10
1.56593e-10
1.41478e-10
1.4248e-10
1.71907e-10
1.78055e-10
1.7215e-10
2.00549e-10
2.00241e-05
1.05825e-06
9.20563e-09
1.13505e-10
9.7514e-11
9.73832e-11
9.79288e-11
1.01355e-10
1.01347e-10
1.01216e-10
1.04237e-10
9.64301e-11
9.48453e-11
9.9669e-11
9.9642e-11
1.0514e-10
9.72398e-11
9.33242e-11
9.49924e-11
9.48586e-11
9.72682e-11
9.8832e-11
1.04782e-10
9.78909e-11
9.69104e-11
1.04565e-10
1.00781e-10
1.00838e-10
1.0762e-10
9.79861e-11
9.73416e-11
1.09103e-10
1.00412e-10
9.86953e-11
1.01406e-10
1.01109e-10
1.15597e-10
1.08082e-10
1.04071e-10
1.0744e-10
1.10739e-10
1.12242e-10
1.24245e-10
1.20074e-10
1.30796e-10
1.37581e-10
1.40295e-10
1.46743e-10
1.41433e-10
1.43928e-10
1.63738e-10
1.76865e-10
1.95935e-10
2.29748e-10
2.00241e-05
1.05831e-06
9.24854e-09
1.13955e-10
9.78798e-11
9.78446e-11
9.84021e-11
1.02181e-10
1.02559e-10
1.06478e-10
9.8862e-11
9.40096e-11
9.85252e-11
9.82548e-11
1.00157e-10
1.00349e-10
1.0354e-10
9.5995e-11
9.32337e-11
1.00133e-10
9.98366e-11
9.88228e-11
9.89181e-11
9.87384e-11
1.02824e-10
9.85003e-11
9.57017e-11
1.00099e-10
9.98388e-11
1.00275e-10
1.00602e-10
1.05897e-10
1.05424e-10
1.04748e-10
1.10843e-10
1.04723e-10
1.05662e-10
1.13044e-10
1.15873e-10
2.31123e-10
2.29008e-10
1.77445e-10
1.26506e-10
1.16155e-10
1.3787e-10
1.48991e-10
1.59165e-10
1.39504e-10
1.3104e-10
1.5066e-10
2.00852e-10
1.84031e-10
1.55575e-10
3.57831e-10
2.00242e-05
1.05825e-06
9.21689e-09
1.13493e-10
9.74332e-11
9.74265e-11
9.7975e-11
1.0161e-10
1.02287e-10
1.06099e-10
9.83087e-11
9.35935e-11
9.80964e-11
9.78773e-11
9.77083e-11
9.97842e-11
9.69161e-11
9.36768e-11
9.54513e-11
9.55034e-11
9.70747e-11
9.88518e-11
1.0042e-10
1.01096e-10
1.07473e-10
9.77578e-11
9.52667e-11
1.02267e-10
9.82244e-11
9.76647e-11
1.00276e-10
1.01505e-10
1.04917e-10
1.04724e-10
1.09728e-10
1.04475e-10
1.03254e-10
1.1874e-10
1.1455e-10
4.59679e-10
5.9823e-10
5.99943e-10
2.03346e-10
1.33871e-10
1.23539e-10
1.23762e-10
1.6964e-10
1.39942e-10
1.34228e-10
1.55142e-10
1.39146e-10
2.0319e-10
2.34952e-10
3.07998e-10
2.00238e-05
1.05841e-06
9.26055e-09
1.13982e-10
9.78992e-11
9.77598e-11
9.85175e-11
1.02415e-10
1.009e-10
1.00908e-10
1.00258e-10
1.00074e-10
1.06064e-10
9.78823e-11
9.66065e-11
1.03166e-10
1.03509e-10
1.09652e-10
9.77867e-11
9.36295e-11
9.62498e-11
9.64073e-11
1.053e-10
9.81081e-11
9.72141e-11
1.07894e-10
9.96204e-11
9.8856e-11
1.07872e-10
9.84513e-11
9.409e-11
1.02228e-10
1.02755e-10
1.03953e-10
1.05162e-10
6.27413e-11
1.55265e-09
3.91432e-10
8.30099e-10
1.69379e-07
1.61332e-07
6.53497e-08
2.86623e-09
4.61586e-10
2.11131e-10
2.7028e-10
6.03992e-10
1.50918e-10
1.34876e-10
1.38717e-10
1.44199e-10
1.76295e-10
8.25389e-10
2.83251e-08
2.0024e-05
1.05835e-06
9.22874e-09
1.13552e-10
9.75208e-11
9.73717e-11
9.76615e-11
9.96827e-11
9.90825e-11
1.01005e-10