/*--------------------------------*- C++ -*----------------------------------*\
| =========                 |                                                 |
| \\      /  F ield         | OpenFOAM: The Open Source CFD Toolbox           |
|  \\    /   O peration     | Version:  4.1                                   |
|   \\  /    A nd           | Web:      www.OpenFOAM.org                      |
|    \\/     M anipulation  |                                                 |
\*---------------------------------------------------------------------------*/
FoamFile
{
    version     2.0;
    format      ascii;
    class       volScalarField;
    location    "1";
    object      epsilon;
}
// * * * * * * * * * * * * * * * * * * * * * * * * * * * * * * * * * * * * * //

dimensions      [0 2 -3 0 0 0 0];

internalField   nonuniform List<scalar> 
4432
(
0.000368133
0.000368133
0.000368133
0.000368133
0.000368133
0.000368132
0.000368134
0.000368133
0.000368131
0.000368128
0.000368125
0.000368123
0.000368118
0.000368114
0.000368107
0.0003681
0.000368088
0.000368079
0.000368067
0.000368052
0.000368041
0.00036803
0.000368023
0.00036802
0.00036802
0.000368023
0.00036803
0.000368041
0.000368052
0.000368067
0.000368079
0.000368088
0.0003681
0.000368107
0.000368114
0.000368118
0.000368123
0.000368125
0.000368128
0.000368131
0.000368133
0.000368134
0.000368132
0.000368133
0.000368133
0.000368133
0.000368133
0.000368133
0.000368133
0.000368133
0.000368133
0.000368133
0.000368133
0.000368133
0.000368133
0.000368133
0.000368133
0.000368133
0.000368133
0.000368132
0.000368134
0.000368133
0.000368131
0.000368128
0.000368125
0.000368123
0.000368118
0.000368114
0.000368107
0.0003681
0.000368088
0.000368079
0.000368067
0.000368052
0.000368041
0.00036803
0.000368023
0.00036802
0.00036802
0.000368023
0.00036803
0.000368041
0.000368052
0.000368067
0.000368079
0.000368088
0.0003681
0.000368107
0.000368114
0.000368118
0.000368123
0.000368125
0.000368128
0.000368131
0.000368133
0.000368134
0.000368132
0.000368133
0.000368133
0.000368133
0.000368133
0.000368133
0.000368133
0.000368133
0.000368133
0.000368133
0.000368133
0.000368133
1.49896
1.48594
1.48596
1.48599
1.48604
1.48657
1.48664
1.48628
1.48662
1.48689
1.48679
1.48686
1.48694
1.48723
1.48741
1.48808
1.48833
1.48877
1.4885
1.4888
1.4893
1.48981
1.49145
1.49108
1.49107
1.49142
1.49223
1.49154
1.49218
1.49409
1.49346
1.49487
1.49413
1.49518
1.49441
1.49509
1.49225
1.49252
1.49168
1.48918
1.49087
1.49043
1.48996
1.4894
1.48648
1.48566
1.48551
1.48545
1.48543
1.48557
1.48787
1.48987
1.48953
1.48918
1.49895
1.48581
1.48582
1.48584
1.48588
1.48639
1.48643
1.48605
1.48635
1.48658
1.48645
1.48643
1.48656
1.48667
1.48697
1.48726
1.48755
1.48765
1.48771
1.48776
1.48836
1.48817
1.49026
1.48983
1.48967
1.4911
1.49066
1.48993
1.49051
1.49243
1.49177
1.4932
1.49246
1.49357
1.49284
1.49359
1.49081
1.49119
1.49097
1.48806
1.48984
1.48955
1.48922
1.48883
1.48609
1.48558
1.48552
1.48548
1.48547
1.48594
1.48749
1.48852
1.48781
1.48842
1.49896
1.48594
1.48596
1.48599
1.48604
1.48611
1.48618
1.48627
1.48637
1.48677
1.48699
1.48693
1.48747
1.48798
1.48816
1.48901
1.48936
1.48898
1.4888
1.4906
1.49271
1.49278
1.49135
1.49069
1.49273
1.49217
1.49197
1.4932
1.49206
1.49302
1.49232
1.49338
1.49418
1.49481
1.49186
1.49316
1.49524
1.49249
1.49027
1.49121
1.49083
1.49042
1.48994
1.48711
1.48642
1.48559
1.48542
1.48537
1.48537
1.48557
1.48788
1.48995
1.4896
1.48924
1.49895
1.48581
1.48582
1.48585
1.48588
1.48593
1.48598
1.48605
1.48612
1.48648
1.48665
1.48653
1.48703
1.48748
1.48766
1.48821
1.48858
1.48786
1.48814
1.48939
1.49136
1.49094
1.49031
1.48928
1.48963
1.4899
1.49023
1.49138
1.49018
1.49299
1.49042
1.49149
1.49231
1.493
1.49011
1.49152
1.49368
1.49104
1.48946
1.48999
1.48974
1.48948
1.48914
1.48648
1.48599
1.48547
1.48543
1.4854
1.48541
1.48591
1.48751
1.48857
1.48785
1.48848
1.49895
1.48592
1.48595
1.48598
1.48603
1.48616
1.48616
1.48625
1.48636
1.48688
1.48697
1.48711
1.48765
1.48835
1.48918
1.48997
1.48998
1.48918
1.4914
1.49299
1.49173
1.49196
1.49248
1.49265
1.49507
1.49264
1.49388
1.49293
1.49446
1.49302
1.49355
1.49474
1.49255
1.49403
1.49184
1.49393
1.4933
1.49313
1.49246
1.4922
1.49093
1.48817
1.49063
1.48948
1.48641
1.48556
1.48542
1.48537
1.48537
1.48561
1.48797
1.49005
1.48968
1.48928
1.49894
1.48581
1.48581
1.48584
1.48587
1.48599
1.48597
1.48603
1.48612
1.4866
1.48663
1.48671
1.48712
1.48786
1.48842
1.48928
1.48883
1.48954
1.49151
1.49027
1.48807
1.49089
1.49131
1.49135
1.49205
1.49172
1.49216
1.49112
1.49262
1.49199
1.49064
1.49294
1.49079
1.49231
1.49019
1.49236
1.49182
1.49174
1.49118
1.49103
1.48989
1.48725
1.48987
1.48887
1.486
1.48547
1.48543
1.4854
1.48542
1.48597
1.48759
1.48864
1.4879
1.48851
1.49895
1.48591
1.48593
1.48596
1.486
1.48613
1.48613
1.48621
1.48673
1.48687
1.48695
1.4873
1.48763
1.4886
1.48889
1.48991
1.49034
1.48959
1.49214
1.49206
1.49318
1.49254
1.49506
1.49313
1.49325
1.49473
1.49361
1.49521
1.49451
1.49142
1.49609
1.4952
1.49576
1.49501
1.49506
1.49429
1.49414
1.49349
1.49181
1.49359
1.49109
1.49065
1.49076
1.48959
1.48643
1.48556
1.48542
1.48537
1.48538
1.48575
1.48814
1.49022
1.48979
1.48934
1.49895
1.48578
1.4858
1.48582
1.48585
1.48596
1.48594
1.486
1.48649
1.4866
1.48662
1.48689
1.48713
1.48757
1.48814
1.48981
1.48922
1.48858
1.49069
1.491
1.48945
1.4917
1.49575
1.49213
1.49051
1.49178
1.49243
1.4932
1.49246
1.48938
1.49405
1.49321
1.49186
1.4932
1.49544
1.49449
1.4926
1.49203
1.49047
1.49237
1.49
1.48969
1.48996
1.48895
1.486
1.48547
1.48543
1.4854
1.48542
1.48607
1.4877
1.48875
1.48797
1.48856
1.49894
1.48588
1.4859
1.48593
1.48606
1.48662
1.48658
1.48617
1.48687
1.48673
1.48695
1.48716
1.48802
1.48874
1.48947
1.49052
1.49214
1.49372
1.49235
1.49373
1.4939
1.49329
1.49418
1.49111
1.49491
1.4935
1.49551
1.49881
1.49213
1.49232
1.49824
1.49478
1.49909
1.49603
1.49768
1.49293
1.4942
1.49228
1.49184
1.49407
1.49113
1.49071
1.48768
1.49042
1.48893
1.48548
1.48541
1.48537
1.48539
1.48592
1.48835
1.49041
1.48991
1.48943
1.49893
1.48578
1.48578
1.4858
1.48592
1.48647
1.48641
1.48598
1.48665
1.48647
1.48664
1.48675
1.48722
1.48829
1.48848
1.48935
1.49109
1.49207
1.49096
1.49217
1.49255
1.49144
1.49299
1.48989
1.49358
1.48866
1.48932
1.49694
1.49017
1.49444
1.49633
1.49288
1.49724
1.49422
1.49348
1.49311
1.49269
1.49262
1.49057
1.49289
1.49006
1.48978
1.48688
1.48979
1.48852
1.48547
1.48543
1.48541
1.48543
1.48621
1.48786
1.48888
1.48804
1.48862
1.49894
1.48587
1.48587
1.4859
1.48603
1.48672
1.48656
1.48613
1.48691
1.48717
1.48687
1.48731
1.48786
1.48861
1.49068
1.4917
1.49148
1.49108
1.49135
1.49254
1.49497
1.49688
1.48942
1.49557
1.50097
1.49014
1.49373
1.49544
1.49803
1.49923
1.49697
1.49863
1.4978
1.49359
1.49572
1.49822
1.49273
1.49426
1.49381
1.49021
1.49239
1.49077
1.48756
1.49037
1.48887
1.48548
1.48541
1.48538
1.4854
1.48617
1.48862
1.49063
1.49004
1.48953
1.49894
1.48574
1.48576
1.48578
1.4859
1.48657
1.48639
1.48594
1.48669
1.48692
1.48657
1.48691
1.48736
1.4882
1.48979
1.49058
1.49034
1.48968
1.49232
1.49307
1.49353
1.49471
1.48865
1.49381
1.49556
1.48882
1.49323
1.49352
1.48937
1.49493
1.49478
1.4966
1.49587
1.49177
1.49147
1.4966
1.49124
1.49264
1.49248
1.48906
1.49137
1.48988
1.48679
1.48978
1.4885
1.48547
1.48542
1.48541
1.48544
1.48637
1.48802
1.48901
1.48811
1.4887
1.49892
1.48582
1.48583
1.48586
1.48589
1.48605
1.48599
1.48666
1.48714
1.4869
1.48687
1.48729
1.48815
1.48899
1.49045
1.49272
1.49467
1.49364
1.49574
1.49671
1.49524
1.49458
1.49575
1.50065
1.49912
1.49618
1.48809
1.4959
1.50205
1.50293
1.49523
1.50163
1.49398
1.49661
1.4961
1.49803
1.49236
1.49701
1.49826
1.49314
1.48946
1.49176
1.49011
1.48939
1.48872
1.48546
1.4854
1.48538
1.48541
1.48639
1.48884
1.49081
1.49013
1.48964
1.49892
1.48573
1.48573
1.48575
1.48577
1.48592
1.48585
1.48651
1.48695
1.48668
1.48659
1.48692
1.48756
1.48825
1.48933
1.49159
1.49293
1.4922
1.49052
1.49484
1.49871
1.49874
1.49305
1.50001
1.49363
1.48805
1.49853
1.49369
1.49588
1.49802
1.49351
1.49989
1.49229
1.49497
1.49456
1.49655
1.49099
1.49375
1.49707
1.49206
1.48849
1.49091
1.4894
1.48885
1.48841
1.48546
1.48542
1.48541
1.48544
1.48651
1.48816
1.4891
1.48814
1.48879
1.49893
1.4858
1.4858
1.48582
1.48598
1.48589
1.48662
1.48671
1.48675
1.48727
1.48715
1.48742
1.48819
1.48954
1.49073
1.49342
1.49369
1.49485
1.49942
1.50201
1.50101
1.50253
1.50784
1.49859
1.49107
1.50191
1.49544
1.4934
1.50157
1.49741
1.50058
1.50211
1.49345
1.49642
1.49217
1.49771
1.49415
1.49696
1.49511
1.49104
1.49034
1.49268
1.48667
1.48893
1.48839
1.48543
1.48538
1.48537
1.48541
1.48652
1.48896
1.49087
1.49013
1.48974
1.49892
1.48569
1.4857
1.48572
1.48587
1.48577
1.48648
1.48655
1.48656
1.48704
1.48686
1.48704
1.48724
1.48875
1.48966
1.49144
1.49202
1.49319
1.49724
1.49581
1.49815
1.50148
1.49967
1.50308
1.50162
1.497
1.50075
1.4923
1.50016
1.49309
1.49617
1.50061
1.492
1.49504
1.49094
1.49652
1.49055
1.49586
1.49419
1.49021
1.48963
1.49204
1.48616
1.48858
1.48839
1.48544
1.48541
1.48541
1.48544
1.48657
1.48819
1.48908
1.48811
1.48889
1.4989
1.48573
1.48574
1.48576
1.48591
1.48582
1.48674
1.48647
1.4867
1.48755
1.48742
1.48792
1.48751
1.48956
1.49018
1.49276
1.4963
1.49765
1.49825
1.4972
1.50482
1.51534
1.51444
1.50342
1.494
1.50432
1.49392
1.49718
1.49678
1.49817
1.50142
1.497
1.49627
1.50362
1.49926
1.49475
1.49368
1.49557
1.49116
1.49046
1.49146
1.49247
1.48625
1.48969
1.49148
1.48847
1.48538
1.48537
1.48542
1.4866
1.48899
1.49084
1.49011
1.4899
1.4989
1.48568
1.48567
1.48568
1.48583
1.48573
1.48664
1.48635
1.48656
1.48738
1.4872
1.48759
1.48703
1.48821
1.48976
1.49195
1.49463
1.49617
1.49946
1.49776
1.50111
1.51059
1.51057
1.50795
1.50187
1.49336
1.50486
1.4995
1.50675
1.4996
1.50824
1.50307
1.49283
1.49977
1.49941
1.49484
1.49118
1.49557
1.49116
1.49045
1.49147
1.49248
1.48632
1.48987
1.49152
1.48852
1.48543
1.48543
1.48558
1.48681
1.48838
1.48925
1.48826
1.48913
1.49891
1.48571
1.48571
1.48572
1.48575
1.48578
1.48676
1.48721
1.48727
1.48765
1.48787
1.48754
1.48741
1.48915
1.4905
1.49187
1.49389
1.49548
1.49932
1.4985
1.50118
1.5031
1.5107
1.51657
1.50392
1.52255
1.51
1.50913
1.51126
1.51638
1.50641
1.49921
1.5025
1.50134
1.49882
1.49533
1.50148
1.4989
1.49364
1.49266
1.49179
1.48957
1.48895
1.4912
1.48957
1.4858
1.48546
1.48546
1.48598
1.48751
1.48976
1.49149
1.49062
1.49036
1.4989
1.48563
1.48563
1.48565
1.48566
1.48568
1.48666
1.48709
1.48711
1.48746
1.48763
1.48719
1.48691
1.48844
1.48937
1.49112
1.49373
1.4973
1.49708
1.49665
1.49796
1.49859
1.512
1.51601
1.50092
1.5167
1.50838
1.50898
1.51032
1.50855
1.50884
1.50014
1.50341
1.50198
1.49566
1.49571
1.50198
1.49936
1.49405
1.49304
1.49215
1.48989
1.48933
1.49162
1.49315
1.48964
1.48616
1.48615
1.48664
1.48773
1.48914
1.48986
1.48862
1.48949
1.49888
1.48563
1.48564
1.48565
1.48566
1.48648
1.48654
1.48657
1.48751
1.48765
1.48788
1.48776
1.48746
1.48873
1.49122
1.49081
1.49318
1.49849
1.50513
1.51133
1.51575
1.51178
1.53053
1.53899
1.53378
1.51778
1.53371
1.54146
1.53014
1.52758
1.51379
1.51662
1.51367
1.50561
1.51274
1.51093
1.50735
1.50068
1.49645
1.49518
1.49594
1.49673
1.49704
1.48997
1.49023
1.48819
1.4875
1.48724
1.4876
1.48885
1.49085
1.49233
1.49105
1.49088
1.49888
1.48561
1.4856
1.4856
1.48562
1.48643
1.48648
1.48651
1.48742
1.48754
1.48771
1.48752
1.48706
1.48801
1.48932
1.48946
1.49131
1.49543
1.4982
1.50811
1.50946
1.5043
1.52718
1.51812
1.52271
1.55198
1.53321
1.51555
1.52371
1.51864
1.51431
1.51103
1.50872
1.50097
1.50497
1.50717
1.50404
1.49767
1.49374
1.49275
1.49377
1.49475
1.49536
1.4885
1.48904
1.48729
1.48686
1.48675
1.48711
1.48808
1.48941
1.48998
1.48863
1.4898
1.49889
1.48573
1.4856
1.48628
1.48646
1.48665
1.48717
1.48699
1.487
1.48683
1.48798
1.48742
1.48783
1.48865
1.49044
1.49023
1.49402
1.4991
1.50104
1.50451
1.5209
1.52806
1.53048
1.49836
1.53794
1.54725
1.5876
1.57959
1.53873
1.54067
1.5217
1.53294
1.51432
1.52324
1.51995
1.51551
1.50285
1.50855
1.50437
1.50196
1.50037
1.49693
1.49547
1.49609
1.49476
1.49047
1.49158
1.49124
1.48812
1.48929
1.49124
1.49259
1.49117
1.49177
1.49888
1.48568
1.48556
1.48624
1.48641
1.48659
1.4871
1.4869
1.48689
1.48668
1.48778
1.48714
1.48741
1.48741
1.48789
1.48971
1.49172
1.49504
1.49476
1.50086
1.51699
1.51216
1.52443
1.55481
1.56611
1.62919
1.5555
1.54008
1.54461
1.53692
1.52815
1.53133
1.51205
1.51573
1.51203
1.51403
1.50151
1.49966
1.49857
1.5011
1.49957
1.49629
1.49497
1.49574
1.49454
1.49049
1.49174
1.4915
1.48833
1.48917
1.49035
1.49078
1.48909
1.49101
1.49885
1.48634
1.48692
1.48622
1.48584
1.4864
1.48733
1.48628
1.48595
1.48671
1.48691
1.48608
1.48805
1.48841
1.48985
1.48836
1.49069
1.49288
1.50192
1.50007
1.51905
1.54464
1.56865
1.63697
1.7685
1.79691
1.73096
1.62262
1.59879
1.58367
1.55019
1.54001
1.5411
1.53556
1.52861
1.53016
1.52112
1.51737
1.50845
1.51026
1.50982
1.50828
1.49973
1.50124
1.49821
1.49448
1.4918
1.4926
1.49251
1.4917
1.49504
1.49409
1.49482
1.49816
1.49885
1.48565
1.48621
1.48622
1.48584
1.48639
1.48732
1.48626
1.48685
1.4873
1.48684
1.48595
1.48786
1.48805
1.48721
1.48874
1.48963
1.49208
1.50064
1.50454
1.5205
1.53517
1.52776
1.56965
1.65288
1.81389
1.67872
1.59334
1.54345
1.56028
1.52956
1.52352
1.51841
1.5219
1.5171
1.51429
1.51126
1.51047
1.50967
1.50364
1.50652
1.50046
1.49711
1.49911
1.49644
1.49313
1.49081
1.49034
1.48881
1.49115
1.49236
1.49286
1.48906
1.49302
1.49886
1.4855
1.48633
1.48705
1.48636
1.48639
1.48715
1.48627
1.48661
1.4871
1.4858
1.48708
1.48798
1.48907
1.48818
1.48836
1.48741
1.49044
1.49868
1.49704
1.50339
1.54095
1.65634
1.68779
2.99636
2.40288
1.74933
1.64633
1.61225
1.54591
1.58244
1.54954
1.50669
1.52836
1.52006
1.51725
1.5313
1.52781
1.52294
1.51848
1.50606
1.50418
1.50128
1.49747
1.49406
1.49373
1.49056
1.48966
1.48989
1.49196
1.4951
1.49267
1.49263
1.49797
1.49886
1.48633
1.48704
1.4862
1.48565
1.48638
1.48663
1.48647
1.48656
1.48664
1.48636
1.4869
1.48713
1.48812
1.48666
1.48762
1.48857
1.4898
1.49677
1.49944
1.50286
1.51349
1.64033
1.78391
3.34425
2.40915
1.59489
1.56845
1.55194
1.53173
1.55471
1.55779
1.5379
1.52281
1.51181
1.50687
1.50496
1.50734
1.50536
1.49792
1.50144
1.49881
1.49786
1.49772
1.49244
1.49251
1.4872
1.48998
1.48849
1.48749
1.48922
1.49171
1.4928
1.48825
1.49955
1.48621
1.48562
1.48563
1.48549
1.48658
1.48697
1.48623
1.48654
1.48735
1.48667
1.48677
1.48702
1.48704
1.4873
1.48902
1.48828
1.4918
1.48934
1.49389
1.49638
1.51055
1.48634
1.63367
3.0423
1.66493
1.6233
1.56965
1.56879
1.53637
1.53073
1.51783
1.5251
1.51218
1.50181
1.52372
1.51426
1.49139
1.50198
1.51544
1.51093
1.50821
1.50775
1.49554
1.49631
1.50055
1.50076
1.49161
1.49292
1.49827
1.49249
1.48831
1.49355
1.49955
1.48634
1.48647
1.48635
1.48549
1.48659
1.48739
1.48673
1.48625
1.487
1.48744
1.48678
1.48625
1.48706
1.48649
1.48775
1.48929
1.48917
1.48948
1.49182
1.49794
1.50164
1.48599
1.59186
3.15056
1.63689
1.67076
1.55914
1.51629
1.53468
1.51386
1.48583
1.52411
1.54003
1.52485
1.50886
1.50974
1.50739
1.48537
1.50244
1.51032
1.50783
1.50739
1.49553
1.48525
1.493
1.49216
1.48518
1.48532
1.48545
1.48694
1.49344
1.48969
1.49885
1.48549
1.48549
1.48549
1.48639
1.48718
1.48646
1.48573
1.48577
1.48632
1.48714
1.48636
1.48728
1.48637
1.4874
1.48812
1.49028
1.49016
1.48842
1.49244
1.50293
1.50141
1.51019
1.56274
1.95559
1.54472
1.49271
1.52372
1.5266
1.49433
1.51584
1.49392
1.49295
1.49915
1.49126
1.48986
1.50167
1.49325
1.48816
1.49012
1.49277
1.48944
1.48869
1.48826
1.48941
1.48722
1.48724
1.48501
1.48514
1.48525
1.48549
1.48746
1.48863
1.66821
1.49885
1.48549
1.48562
1.48563
1.48639
1.48719
1.48667
1.48597
1.48549
1.48631
1.48714
1.48636
1.48728
1.48713
1.48761
1.48793
1.48843
1.48755
1.48851
1.49254
1.50384
1.52745
1.52787
1.56092
1.87419
1.66686
1.58355
1.52544
1.50153
1.49554
1.50757
1.49656
1.49393
1.49953
1.49098
1.49023
1.50202
1.49355
1.48844
1.49064
1.49301
1.4897
1.48893
1.48844
1.48958
1.486
1.48742
1.48528
1.48534
1.48546
1.48562
1.48712
1.48741
1.66639
1.49885
1.48561
1.48548
1.48623
1.48654
1.48627
1.48729
1.4876
1.4866
1.4858
1.48587
1.48644
1.48749
1.48838
1.48841
1.48638
1.48823
1.49042
1.49265
1.49601
1.49511
1.50333
1.51956
1.51175
1.5084
1.53048
1.48494
1.50552
1.51484
1.49091
1.49989
1.50552
1.4946
1.4991
1.49432
1.49169
1.49222
1.49043
1.49563
1.49182
1.48654
1.48806
1.48978
1.48757
1.48633
1.48557
1.48558
1.48496
1.48505
1.48521
1.48545
1.48783
1.48851
1.58374
1.49885
1.48561
1.48549
1.48624
1.48655
1.48628
1.48729
1.48761
1.48632
1.48581
1.48588
1.48645
1.48751
1.48795
1.48684
1.48793
1.48835
1.49062
1.4906
1.49591
1.49147
1.50438
1.53964
1.51201
1.53044
1.58728
1.52649
1.51317
1.51667
1.49178
1.4987
1.498
1.48953
1.49505
1.49385
1.49208
1.49605
1.49442
1.49602
1.49215
1.48683
1.48833
1.49002
1.48781
1.48653
1.48577
1.48579
1.48516
1.48523
1.48535
1.48557
1.48727
1.48731
1.58195
1.49885
1.48561
1.48548
1.48548
1.48577
1.48629
1.48648
1.48593
1.48573
1.4861
1.48583
1.48698
1.48703
1.48606
1.48693
1.48944
1.48866
1.48871
1.49523
1.49409
1.4945
1.49713
1.48747
1.51441
1.53081
1.53003
1.50121
1.507
1.50016
1.48292
1.49506
1.50171
1.49398
1.50179
1.49222
1.4951
1.49029
1.49324
1.49418
1.49137
1.4906
1.48831
1.48638
1.48753
1.485
1.485
1.48501
1.48503
1.48512
1.48528
1.4857
1.48848
1.48886
1.55102
1.49885
1.48561
1.48548
1.48548
1.48578
1.4863
1.48649
1.48594
1.48574
1.48611
1.48584
1.48699
1.48652
1.48673
1.48611
1.48954
1.49159
1.48935
1.49238
1.4916
1.48539
1.5012
1.50402
1.51922
1.51855
1.51503
1.49806
1.48698
1.50087
1.48833
1.50951
1.50223
1.48816
1.50226
1.49684
1.49546
1.4878
1.49585
1.49447
1.4916
1.49081
1.4885
1.48653
1.4877
1.48606
1.48514
1.48516
1.48519
1.48526
1.48539
1.48613
1.48767
1.48747
1.54905
1.49885
1.48548
1.48547
1.48547
1.48575
1.48547
1.48653
1.48749
1.48689
1.48576
1.48615
1.48745
1.48757
1.48743
1.48827
1.48844
1.48827
1.48583
1.49166
1.49138
1.49328
1.50522
1.50009
1.49525
1.51292
1.51831
1.50315
1.48341
1.48368
1.49506
1.4989
1.49983
1.48762
1.49277
1.48765
1.49121
1.49022
1.49217
1.49155
1.48873
1.48505
1.48632
1.48628
1.48633
1.48591
1.48509
1.4851
1.48512
1.48519
1.48534
1.48636
1.48894
1.48907
1.53499
1.49885
1.48549
1.48548
1.48548
1.48576
1.48547
1.48654
1.4875
1.48691
1.48578
1.48616
1.48747
1.48708
1.48755
1.48767
1.48856
1.48844
1.48738
1.49127
1.49171
1.49475
1.49458
1.50043
1.50687
1.52283
1.49372
1.50037
1.48375
1.48391
1.49505
1.49924
1.50018
1.48784
1.49303
1.48783
1.49143
1.49008
1.49264
1.49174
1.48889
1.48517
1.48645
1.48639
1.48743
1.48714
1.48522
1.48522
1.48525
1.48531
1.48543
1.48653
1.48792
1.48757
1.53289
1.49885
1.48548
1.48547
1.48547
1.48643
1.4863
1.48563
1.48642
1.48689
1.48572
1.4861
1.48708
1.48756
1.48757
1.48814
1.48759
1.48907
1.49047
1.48933
1.48476
1.49294
1.50169
1.5038
1.5096
1.50824
1.48652
1.49351
1.49382
1.4874
1.50065
1.49265
1.4931
1.49165
1.4877
1.488
1.49009
1.48984
1.4937
1.49078
1.49012
1.48787
1.4879
1.48514
1.48605
1.48692
1.48515
1.48515
1.48517
1.48524
1.48538
1.4867
1.48915
1.48918
1.52561
1.49885
1.48548
1.48548
1.48547
1.48644
1.48631
1.48564
1.48642
1.4869
1.48573
1.48611
1.4871
1.48759
1.48704
1.48753
1.4877
1.48922
1.48998
1.49052
1.48501
1.49332
1.50196
1.50382
1.51287
1.51252
1.49523
1.48496
1.49391
1.48751
1.49448
1.49294
1.4933
1.49181
1.48784
1.48814
1.49024
1.49258
1.49162
1.49091
1.49025
1.48797
1.48802
1.48523
1.48525
1.48531
1.48526
1.48526
1.48528
1.48534
1.48545
1.48674
1.48805
1.48762
1.52341
1.49884
1.48547
1.48546
1.48546
1.48631
1.48631
1.48563
1.48662
1.48667
1.48595
1.48602
1.48672
1.48749
1.48575
1.48784
1.48776
1.48885
1.48915
1.49
1.49545
1.49117
1.4864
1.49539
1.49889
1.50392
1.49239
1.50213
1.50129
1.49191
1.49415
1.49229
1.48704
1.49531
1.4904
1.4927
1.49003
1.48916
1.491
1.49036
1.4897
1.48774
1.48756
1.48516
1.48518
1.48518
1.48518
1.48518
1.4852
1.48527
1.4854
1.48683
1.48922
1.4892
1.51936
1.49885
1.48548
1.48547
1.48547
1.48632
1.48632
1.48564
1.48663
1.48669
1.48597
1.48604
1.48675
1.48754
1.4858
1.48793
1.48788
1.489
1.48864
1.49021
1.49568
1.49142
1.48683
1.49552
1.49886
1.49992
1.50191
1.49506
1.50018
1.491
1.48639
1.49243
1.48716
1.49545
1.49052
1.49284
1.49016
1.48928
1.49112
1.49048
1.48981
1.48785
1.48766
1.48525
1.48527
1.48528
1.48528
1.48528
1.4853
1.48536
1.48546
1.48682
1.4881
1.48762
1.51715
1.49885
1.48547
1.48546
1.48546
1.48632
1.48632
1.48559
1.48665
1.48666
1.4859
1.48696
1.48695
1.48609
1.48751
1.48745
1.4882
1.48758
1.48559
1.48925
1.49428
1.491
1.48685
1.49401
1.49516
1.49542
1.4972
1.49647
1.49334
1.49137
1.4895
1.48485
1.49025
1.49227
1.49023
1.48754
1.48904
1.49102
1.48665
1.48956
1.48924
1.48735
1.48742
1.48518
1.48593
1.48519
1.4852
1.4852
1.48522
1.48528
1.48541
1.48689
1.48924
1.48921
1.51492
1.49885
1.48548
1.48547
1.48547
1.48633
1.48633
1.48561
1.48666
1.48667
1.48592
1.48698
1.48697
1.48612
1.48757
1.48753
1.48831
1.48772
1.48574
1.48944
1.49452
1.49128
1.487
1.49423
1.49538
1.49387
1.49739
1.50196
1.49356
1.49149
1.48498
1.48501
1.49038
1.4924
1.49037
1.48767
1.48916
1.49114
1.48677
1.48968
1.48935
1.48745
1.48752
1.48527
1.48602
1.48528
1.48529
1.4853
1.48532
1.48537
1.48547
1.48687
1.48811
1.48763
1.51267
1.49884
1.48547
1.48546
1.48546
1.48643
1.48633
1.48559
1.4856
1.4858
1.48585
1.4867
1.48723
1.48597
1.4856
1.48773
1.48975
1.48784
1.48873
1.49242
1.49337
1.4904
1.49146
1.49502
1.49697
1.49229
1.49662
1.49189
1.48582
1.4898
1.49367
1.48596
1.49298
1.48499
1.4875
1.48911
1.49227
1.48859
1.48651
1.48906
1.48986
1.48738
1.48516
1.48596
1.48662
1.4852
1.48521
1.48521
1.48523
1.48529
1.48541
1.48692
1.48924
1.48919
1.51157
1.49884
1.48548
1.48547
1.48547
1.48645
1.48635
1.4856
1.48561
1.48582
1.48587
1.48673
1.48726
1.48572
1.48533
1.48814
1.48988
1.48797
1.48887
1.4926
1.49354
1.49058
1.49172
1.49509
1.49818
1.49818
1.49719
1.49767
1.48593
1.48991
1.48902
1.48608
1.4931
1.48511
1.48908
1.48925
1.48898
1.48871
1.48663
1.48918
1.48997
1.48749
1.48526
1.48605
1.48671
1.48529
1.4853
1.48531
1.48533
1.48537
1.48547
1.48688
1.48812
1.48761
1.50935
1.49884
1.48547
1.48546
1.48546
1.48555
1.48639
1.48639
1.48666
1.48683
1.48579
1.48693
1.48721
1.48564
1.48744
1.48712
1.48759
1.49085
1.4879
1.48874
1.49258
1.49412
1.49097
1.48905
1.49232
1.49466
1.49138
1.49108
1.49
1.48961
1.4895
1.48804
1.48826
1.48844
1.48871
1.48807
1.48949
1.48778
1.48778
1.48967
1.48738
1.48521
1.48517
1.48586
1.48588
1.48521
1.48522
1.48522
1.48524
1.4853
1.48542
1.48696
1.48925
1.48917
1.50903
1.49884
1.48548
1.48547
1.48547
1.48557
1.48641
1.48641
1.48667
1.48685
1.48581
1.48695
1.48724
1.48563
1.48745
1.48753
1.48769
1.49097
1.48811
1.4889
1.49275
1.49431
1.49106
1.4892
1.49176
1.49474
1.49573
1.49121
1.49014
1.48974
1.48964
1.48818
1.48839
1.48857
1.48884
1.48822
1.48924
1.48791
1.4879
1.48979
1.48749
1.48531
1.48527
1.48596
1.48597
1.4853
1.48531
1.48531
1.48533
1.48538
1.48548
1.48693
1.48812
1.48761
1.5068
1.49884
1.48546
1.48546
1.48545
1.48545
1.48649
1.48641
1.48545
1.48674
1.4869
1.4856
1.48726
1.48706
1.48533
1.48733
1.48971
1.49042
1.48794
1.48851
1.49233
1.48954
1.48613
1.48664
1.48704
1.49068
1.4954
1.49127
1.49011
1.48761
1.48749
1.49019
1.48713
1.48742
1.48761
1.49026
1.48734
1.48754
1.4881
1.4872
1.48515
1.48517
1.48518
1.4852
1.48521
1.48522
1.48523
1.48524
1.48525
1.4853
1.48543
1.48703
1.48928
1.48912
1.50697
1.49884
1.48548
1.48547
1.48547
1.48546
1.4865
1.48642
1.48546
1.48676
1.48692
1.48563
1.48729
1.48714
1.48565
1.4874
1.4898
1.48785
1.48538
1.48863
1.49246
1.48967
1.48631
1.48672
1.48946
1.49081
1.49547
1.49138
1.49023
1.48819
1.48808
1.49061
1.48756
1.48755
1.48773
1.49039
1.48908
1.48765
1.48822
1.48731
1.48526
1.48527
1.48528
1.48529
1.4853
1.48531
1.48532
1.48532
1.48534
1.48539
1.48548
1.48696
1.48813
1.48751
1.50477
1.49884
1.48547
1.48546
1.48545
1.48545
1.48553
1.48648
1.48648
1.48662
1.48675
1.48555
1.48708
1.48722
1.48551
1.48547
1.48754
1.48768
1.48524
1.48531
1.48871
1.49227
1.48968
1.48663
1.48698
1.48903
1.49342
1.4911
1.48842
1.48761
1.48768
1.48764
1.48873
1.48704
1.48812
1.48913
1.48722
1.48679
1.48705
1.48573
1.48522
1.48518
1.48519
1.48521
1.48522
1.48523
1.48524
1.48524
1.48526
1.48531
1.48543
1.48717
1.48918
1.48884
1.50527
1.49884
1.48548
1.48547
1.48547
1.48546
1.48554
1.4865
1.48649
1.48664
1.48677
1.48557
1.48711
1.48706
1.48555
1.48553
1.48762
1.49035
1.48796
1.48544
1.48909
1.49241
1.49046
1.48675
1.48833
1.48912
1.49195
1.4912
1.48857
1.48948
1.48782
1.48777
1.48887
1.48718
1.48825
1.48927
1.48734
1.48692
1.48717
1.48585
1.48533
1.48528
1.48529
1.4853
1.48531
1.48532
1.48532
1.48533
1.48535
1.48539
1.48549
1.48701
1.48792
1.48738
1.50313
1.49884
1.48546
1.48545
1.48545
1.48545
1.48544
1.48544
1.48656
1.48655
1.4855
1.48692
1.4869
1.48718
1.48729
1.48753
1.48743
1.48783
1.48782
1.4853
1.48837
1.48904
1.48868
1.49176
1.49142
1.49017
1.48791
1.48631
1.48908
1.48732
1.48628
1.48621
1.48781
1.48753
1.48648
1.48749
1.48648
1.48721
1.48642
1.48696
1.48549
1.48546
1.48543
1.4854
1.48538
1.48536
1.48534
1.48532
1.48532
1.48536
1.48547
1.48718
1.48908
1.48895
1.5042
1.49884
1.48547
1.48547
1.48546
1.48546
1.48546
1.48546
1.48657
1.48657
1.48552
1.48694
1.48693
1.48721
1.48733
1.48759
1.4875
1.48791
1.4879
1.4854
1.48567
1.48603
1.48948
1.49182
1.49021
1.48988
1.48859
1.48642
1.48919
1.48982
1.48706
1.48632
1.48793
1.48765
1.48659
1.48761
1.4866
1.48732
1.48653
1.48707
1.48559
1.48555
1.48552
1.48549
1.48547
1.48544
1.48542
1.4854
1.4854
1.48544
1.48551
1.487
1.48817
1.48761
1.50259
1.49885
1.48549
1.48548
1.48548
1.48547
1.48646
1.48646
1.48547
1.48667
1.48677
1.48547
1.48707
1.48697
1.48553
1.48541
1.48549
1.48531
1.4853
1.48525
1.48535
1.48543
1.48837
1.48852
1.48808
1.4882
1.48749
1.48896
1.48823
1.48758
1.48684
1.48625
1.48599
1.48617
1.48647
1.48669
1.48619
1.48625
1.48617
1.48542
1.48604
1.48664
1.48594
1.48575
1.48574
1.48534
1.48533
1.48533
1.48534
1.48539
1.4855
1.48788
1.49019
1.48976
1.50313
1.49885
1.4855
1.48549
1.48549
1.48549
1.48647
1.48648
1.48549
1.48669
1.48679
1.4855
1.4871
1.48701
1.48557
1.48546
1.48555
1.48538
1.48538
1.48534
1.48544
1.48552
1.48844
1.4886
1.48815
1.48827
1.48759
1.48908
1.48835
1.48769
1.48695
1.48636
1.4861
1.48628
1.48658
1.4868
1.4863
1.48635
1.48627
1.48552
1.48614
1.48674
1.48603
1.48584
1.48583
1.48542
1.48541
1.48541
1.48542
1.48546
1.48576
1.48775
1.48885
1.48811
1.50034
0.000368133
0.000368133
0.000368133
0.000368133
0.000368133
0.000368132
0.000368134
0.000368133
0.000368129
0.000368126
0.000368125
0.000368123
0.000368118
0.000368114
0.000368107
0.0003681
0.000368088
0.000368079
0.000368067
0.000368052
0.000368041
0.00036803
0.000368023
0.00036802
0.00036802
0.000368023
0.00036803
0.000368041
0.000368052
0.000368067
0.000368079
0.000368088
0.0003681
0.000368107
0.000368114
0.000368118
0.000368123
0.000368125
0.000368128
0.000368131
0.000368133
0.000368134
0.000368132
0.000368133
0.000368133
0.000368133
0.000368133
0.000368133
0.000368133
0.000368133
0.000368133
0.000368133
0.000368133
0.000368133
0.000368133
0.000368133
0.000368133
0.000368133
0.000368133
0.000368132
0.000368134
0.000368133
0.000368129
0.000368126
0.000368125
0.000368123
0.000368118
0.000368114
0.000368107
0.0003681
0.000368088
0.000368079
0.000368067
0.000368052
0.000368041
0.00036803
0.000368023
0.00036802
0.00036802
0.000368023
0.00036803
0.000368041
0.000368052
0.000368067
0.000368079
0.000368088
0.0003681
0.000368107
0.000368114
0.000368118
0.000368123
0.000368125
0.000368128
0.000368131
0.000368133
0.000368134
0.000368132
0.000368133
0.000368133
0.000368133
0.000368133
0.000368133
0.000368133
0.000368133
0.000368133
0.000368133
0.000368133
0.000368133
2.01108
1.67578
2.70571
1.54828
1.60788
3.97936
3.4415
4.06731
9.83611
11.1306
1.97206
1.89238
2.29305
1.60368
1.52636
4.14532
3.28714
4.1691
11.2487
8.79576
1.54244
1.68391
1.61329
1.58935
1.8381
7.66215
8.52498
3.0072
1.97774
2.80463
2.5926
1.55664
1.75889
1.58718
1.73727
1.65106
8.26031
8.18357
2.84074
2.3456
2.89554
1.58112
1.78314
1.55607
1.51503
1.56502
1.67196
1.67668
1.80138
1.77909
1.71968
1.69975
2.34431
2.60744
2.41405
2.30529
1.71434
1.56664
1.56186
1.59834
1.59241
1.6064
1.73816
1.79886
1.77167
1.7974
2.35419
2.40715
2.39663
2.73009
1.59883
1.59321
1.64986
1.53339
1.54943
1.53388
1.57209
10.5353
5.04643
3.344
5.12337
10.7547
2.44476
2.24726
2.44812
1.52409
2.49705
0.988659
2.8491
1.65474
1.59295
1.60703
1.51266
1.5754
1.48682
1.59249
10.7379
5.78156
3.16838
5.60062
10.6911
2.43823
2.44877
2.17343
1.66681
2.08897
2.44894
2.33195
1.53812
1.52389
1.52365
1.5556
1.5038
1.55324
1.54774
1.70983
1.59383
1.56195
1.55264
1.64978
0.00514502
0.00369836
2.52289
2.97067
3.17705
2.06345
2.08842
1.92865
1.53009
1.5358
1.47957
1.57697
1.50771
1.57383
1.50244
1.56463
1.86694
1.63098
1.62652
1.70253
1.63752
0.0051307
0.00513488
2.18279
3.02903
2.77775
1.94962
1.91524
1.78006
1.81217
1.78223
1.64029
1.78527
1.52859
1.55638
1.55435
1.55801
1.92537
2.00694
1.85485
1.57742
1.66172
1.70186
1.75278
1.66877
1.59351
1.64755
1.60669
1.56587
1.48229
1.53361
1.83735
1.70196
1.78904
1.65095
1.73936
1.71193
1.76837
1.75765
1.49053
2.14399
1.56216
1.53641
1.79249
2.39588
1.98164
1.9281
1.93023
1.70842
1.62045
1.57351
1.60435
1.48281
0.00514509
0.00369808
1.64527
1.74143
1.55825
1.64312
1.9127
0.00513065
0.00513483
10.8094
2.97178
5.28526
5.01978
10.3216
0.005145
0.00369815
9.47591
8.44515
12.3182
9.62823
9.8007
0.00513071
0.00513481
9.3994
9.81407
11.078
11.0825
9.60231
1.867
1.58389
1.98923
1.66192
1.88226
1.73665
2.43941
1.89357
1.90687
1.64598
1.7093
1.6508
1.64964
1.90182
1.73602
0.00513065
0.00513479
1.66716
1.60444
1.57084
1.61764
1.55168
0.00514501
0.00369808
10.4572
3.35386
5.14651
5.20037
10.4065
0.00513067
0.00513481
9.65649
9.45882
9.49521
9.65798
11.8029
0.00514491
0.00369804
9.48179
8.30779
11.0614
11.6683
9.48576
0.005145
0.00369833
1.76461
1.54015
1.55465
1.55109
1.7063
0.00513066
0.00513483
1.76951
1.46638
1.94197
1.75775
1.69044
1.76206
1.94527
1.83636
1.81709
1.83918
7.36529
9.21503
6.09493
7.12482
7.03432
0.00513072
0.00513481
8.26007
8.14244
6.18378
6.3512
7.63398
11.581
3.12014
3.15665
3.20629
9.78661
10.4981
2.86848
2.66299
11.3182
2.71321
0.0051307
0.00513481
1.83417
1.5658
1.56046
1.55485
1.8604
0.00514502
0.00369832
1.76184
1.75514
1.87781
1.96827
1.80901
1.93707
1.63074
1.61715
1.65938
2.06084
9.19469
8.16874
6.49276
7.6414
6.34236
0.00514499