/*--------------------------------*- C++ -*----------------------------------*\
| =========                 |                                                 |
| \\      /  F ield         | OpenFOAM: The Open Source CFD Toolbox           |
|  \\    /   O peration     | Version:  4.1                                   |
|   \\  /    A nd           | Web:      www.OpenFOAM.org                      |
|    \\/     M anipulation  |                                                 |
\*---------------------------------------------------------------------------*/
FoamFile
{
    version     2.0;
    format      ascii;
    class       volScalarField;
    location    "1";
    object      nut;
}
// * * * * * * * * * * * * * * * * * * * * * * * * * * * * * * * * * * * * * //

dimensions      [0 2 -1 0 0 0 0];

internalField   nonuniform List<scalar> 
4432
(
39.0681
39.8049
40.7433
41.2839
41.976
42.6691
43.6839
46.5436
44.5837
72.3117
100.586
149.516
77.5954
86.2212
51.0124
68.1265
76.9314
44.8298
54.3793
37.0139
42.7366
37.6257
34.2952
39.1682
32.0078
18.1399
11.9465
31.0249
18.0206
28.9862
34.5358
39.1653
30.44
36.9807
34.6166
39.4746
36.441
38.3825
36.1653
42.8212
41.8589
40.376
39.4803
38.9849
38.5043
37.8692
37.2637
36.6247
36.7217
37.2567
39.3256
42.5196
42.1331
52.4423
39.2574
39.535
40.2129
40.6085
41.1336
41.6336
42.4133
44.4676
42.9928
63.5485
75.1713
106.958
67.1622
74.4708
47.0651
58.7823
64.2741
42.1843
47.9404
36.337
39.4569
34.9762
30.0705
31.8652
29.5482
15.178
7.79924
19.4957
12.573
25.0912
26.4558
33.9518
24.5827
29.1158
29.4902
36.5606
31.8718
33.3751
33.7904
36.9767
37.8977
38.1129
38.0256
37.937
37.777
37.4472
37.1714
36.8584
37.1922
37.7483
39.481
41.6657
40.3843
48.9902
0.000115758
8.67694e-05
8.65989e-05
8.67037e-05
8.68534e-05
8.70284e-05
8.72661e-05
8.76369e-05
8.78707e-05
9.01328e-05
9.14298e-05
9.07156e-05
9.07701e-05
9.38093e-05
9.21044e-05
9.36845e-05
9.25443e-05
9.50674e-05
9.78035e-05
9.55692e-05
8.89068e-05
8.87938e-05
9.62863e-05
8.54234e-05
8.70805e-05
9.8856e-05
9.78255e-05
8.91e-05
9.93252e-05
8.93211e-05
9.29391e-05
9.41782e-05
0.000101245
9.29732e-05
0.000100997
9.2784e-05
0.000100209
9.68685e-05
9.46489e-05
8.77486e-05
9.20724e-05
9.19454e-05
8.66047e-05
8.5581e-05
8.46065e-05
8.31276e-05
8.31373e-05
8.33593e-05
8.37078e-05
8.41888e-05
8.96984e-05
9.49702e-05
9.49194e-05
9.54651e-05
0.000115744
8.64735e-05
8.62702e-05
8.63504e-05
8.64669e-05
8.65966e-05
8.67798e-05
8.70758e-05
8.72557e-05
8.92549e-05
8.88853e-05
8.93402e-05
8.97357e-05
9.20134e-05
9.10026e-05
9.15748e-05
9.06366e-05
9.23629e-05
9.59151e-05
9.31382e-05
8.6971e-05
8.52736e-05
9.34998e-05
8.3712e-05
8.67779e-05
9.78241e-05
9.41628e-05
8.79606e-05
9.53751e-05
8.61927e-05
9.06859e-05
9.11548e-05
9.72481e-05
9.05294e-05
9.72593e-05
8.95485e-05
9.6771e-05
9.36754e-05
9.27601e-05
9.03147e-05
9.45944e-05
9.02626e-05
8.49659e-05
8.43242e-05
8.37435e-05
8.29544e-05
8.31691e-05
8.34421e-05
8.37737e-05
8.50669e-05
8.89435e-05
9.18897e-05
9.0834e-05
9.35348e-05
0.000115732
8.64446e-05
8.6246e-05
8.63215e-05
8.64321e-05
8.65759e-05
8.67505e-05
8.69527e-05
8.71867e-05
8.82e-05
8.87331e-05
8.86431e-05
8.88183e-05
9.05439e-05
9.12646e-05
9.34127e-05
9.63642e-05
9.83671e-05
9.57854e-05
9.42554e-05
9.8286e-05
0.000101495
9.85942e-05
9.74553e-05
9.8208e-05
0.000100828
9.72052e-05
0.000105186
9.96966e-05
0.000102168
0.000107197
0.000100614
0.000105214
0.000103323
0.000104564
0.000105707
0.000105005
0.000101553
9.63783e-05
9.82501e-05
9.73709e-05
9.63813e-05
9.54125e-05
8.91868e-05
8.74532e-05
8.55409e-05
8.5111e-05
8.50052e-05
8.50122e-05
8.52655e-05
9.04047e-05
9.54708e-05
9.48429e-05
9.36449e-05
0.000115717
8.61391e-05
8.59343e-05
8.59919e-05
8.60727e-05
8.61753e-05
8.62989e-05
8.64421e-05
8.66133e-05
8.75421e-05
8.79472e-05
8.77408e-05
8.77989e-05
8.9374e-05
9.00896e-05
9.1539e-05
9.45075e-05
9.57471e-05
9.41504e-05
9.06072e-05
9.64984e-05
9.91596e-05
9.6097e-05
9.41544e-05
9.70416e-05
9.52769e-05
9.7579e-05
0.00010075
9.52065e-05
0.000101677
0.000102521
9.60964e-05
0.000100685
9.8964e-05
0.000100321
0.000101673
0.000101202
9.80208e-05
9.43429e-05
9.5348e-05
9.47255e-05
9.41382e-05
9.35028e-05
8.77255e-05
8.64389e-05
8.52408e-05
8.51194e-05
8.50699e-05
8.50726e-05
8.60773e-05
8.96815e-05
9.23216e-05
9.0697e-05
9.17983e-05
0.000115711
8.6408e-05
8.62195e-05
8.62935e-05
8.63977e-05
8.67024e-05
8.67051e-05
8.69027e-05
8.71596e-05
8.83035e-05
8.85292e-05
8.85167e-05
8.92233e-05
8.97574e-05
9.26237e-05
9.30282e-05
9.60808e-05
9.62878e-05
9.89658e-05
0.000102903
9.92833e-05
9.33058e-05
9.73491e-05
9.74321e-05
0.000100388
0.000104118
9.83885e-05
0.000102572
0.000106076
0.000102518
0.000104974
0.000107384
0.000105251
0.000106004
0.000109071
0.000109547
0.000105812
0.000105066
0.000101224
0.000100597
9.77382e-05
9.14303e-05
9.6623e-05
9.43511e-05
8.75659e-05
8.54749e-05
8.50972e-05
8.49968e-05
8.50065e-05
8.53554e-05
9.06162e-05
9.57109e-05
9.50234e-05
9.37443e-05
0.000115699
8.6139e-05
8.5916e-05
8.5968e-05
8.60434e-05
8.63101e-05
8.62636e-05
8.64047e-05
8.65955e-05
8.76565e-05
8.77507e-05
8.76053e-05
8.80075e-05
8.86222e-05
9.08416e-05
9.13827e-05
9.34307e-05
9.68356e-05
9.52137e-05
9.64376e-05
9.63199e-05
9.27697e-05
9.44779e-05
9.45058e-05
9.69007e-05
9.62624e-05
9.87867e-05
9.81565e-05
0.000101566
9.97766e-05
9.82571e-05
0.000102901
0.000100931
0.000101791
0.000104984
0.000105637
0.000102192
0.000101672
9.81298e-05
9.77762e-05
9.52405e-05
8.92696e-05
9.48057e-05
9.28916e-05
8.66038e-05
8.52386e-05
8.51124e-05
8.50663e-05
8.50689e-05
8.62035e-05
8.98645e-05
9.24991e-05
9.08256e-05
9.18618e-05
0.00011572
8.63826e-05
8.61745e-05
8.62412e-05
8.63385e-05
8.66204e-05
8.66271e-05
8.68148e-05
8.79439e-05
8.8261e-05
8.78691e-05
8.85978e-05
8.99125e-05
9.12346e-05
9.43991e-05
9.42969e-05
9.4208e-05
9.48002e-05
0.00010058
0.000100203
9.77659e-05
9.40758e-05
0.000102845
9.78403e-05
0.000108921
0.000108471
9.97338e-05
0.000108518
0.000105779
9.94093e-05
0.000110355
0.000111638
0.000109124
0.000102294
0.000107097
0.000110264
0.000110862
0.000106149
0.000105275
0.000103738
9.80379e-05
9.68653e-05
9.70032e-05
9.46337e-05
8.76719e-05
8.5472e-05
8.50962e-05
8.50013e-05
8.50076e-05
8.56629e-05
9.10041e-05
9.6102e-05
9.52877e-05
9.38906e-05
0.000115705
8.6084e-05
8.58769e-05
8.59285e-05
8.59987e-05
8.62438e-05
8.6204e-05
8.63377e-05
8.7401e-05
8.76431e-05
8.71279e-05
8.76617e-05
8.87538e-05
8.98824e-05
9.26686e-05
9.24671e-05
9.15639e-05
9.2407e-05
9.71296e-05
9.76213e-05
9.41688e-05
9.21713e-05
9.9231e-05
0.000101233
9.82733e-05
0.000104876
0.000103026
0.0001028
0.000100748
9.43983e-05
0.000105379
0.000106678
0.000104506
9.77951e-05
0.000102576
0.000105939
0.00010696
0.000102574
0.000102004
0.000100759
9.54539e-05
9.45793e-05
9.5097e-05
9.30949e-05
8.66483e-05
8.52402e-05
8.51107e-05
8.50689e-05
8.50695e-05
8.6412e-05
9.01264e-05
9.2756e-05
9.09733e-05
9.19781e-05
0.000115684
8.63093e-05
8.61151e-05
8.6177e-05
8.64557e-05
8.76779e-05
8.7606e-05
8.67204e-05
8.82429e-05
8.79623e-05
8.78239e-05
8.8661e-05
9.06785e-05
9.32216e-05
9.42329e-05
9.44402e-05
9.81709e-05
0.000100048
9.75641e-05
0.000105894
0.000106809
0.000104089
0.000110997
0.000107773
0.000109021
0.000112682
0.000108157
0.000115008
9.89295e-05
0.000112082
0.00011805
0.00011116
0.000113725
0.000109641
0.000107799
0.000102331
0.000114884
0.000106886
0.000105736
0.00010179
9.8168e-05
9.71552e-05
9.02106e-05
9.6021e-05
9.31092e-05
8.54662e-05
8.50863e-05
8.50008e-05
8.50069e-05
8.60261e-05
9.14836e-05
9.65698e-05
9.55961e-05
9.40958e-05
0.000115675
8.60747e-05
8.58432e-05
8.58853e-05
8.61407e-05
8.73278e-05
8.72154e-05
8.62823e-05
8.77422e-05
8.73766e-05
8.7123e-05
8.77205e-05
8.94991e-05
9.14797e-05
9.24966e-05
9.16999e-05
9.56317e-05
9.61374e-05
9.42454e-05
0.000100686
0.000101155
9.97671e-05
0.000108327
0.000109627
9.92898e-05
0.000109529
0.000102258
0.000100956
9.34975e-05
0.000106546
0.000112959
0.000106432
0.000109096
0.000105228
0.000103819
9.83176e-05
0.000111045
0.000103292
0.000102546
9.89297e-05
9.5634e-05
9.49288e-05
8.83393e-05
9.45394e-05
9.20907e-05
8.54134e-05
8.51114e-05
8.50728e-05
8.50706e-05
8.67099e-05
9.04821e-05
9.30601e-05
9.11541e-05
9.21229e-05
0.000115698
8.6278e-05
8.60581e-05
8.61097e-05
8.66229e-05
8.78749e-05
8.7557e-05
8.69824e-05
8.71847e-05
8.76514e-05
8.77602e-05
8.93018e-05
8.98982e-05
9.30275e-05
9.5437e-05
9.69e-05
9.90249e-05
0.000102867
0.000104097
0.000110015
0.000108883
0.000112974
0.000111736
0.000116571
0.00010905
0.00010146
0.000103949
0.000105153
0.000114209
0.000110611
0.000118575
0.000106276
0.000111776
0.000109927
0.000108486
0.000113859
0.000106818
0.000100638
0.000105602
0.000105287
0.000104085
9.76166e-05
9.00661e-05
9.58812e-05
9.29658e-05
8.54523e-05
8.50778e-05
8.50092e-05
8.50111e-05
8.65611e-05
9.20988e-05
9.71033e-05
9.59153e-05
9.43218e-05
0.000115682
8.59992e-05
8.57875e-05
8.58273e-05
8.63187e-05
8.75358e-05
8.71785e-05
8.62054e-05
8.6697e-05
8.70854e-05
8.70714e-05
8.83739e-05
8.93687e-05
9.13108e-05
9.24429e-05
9.42478e-05
9.63011e-05
9.901e-05
0.000100193
9.79092e-05
9.65259e-05
0.00010802
0.000109434
0.00011239
0.000106527
9.84875e-05
0.00010471
0.000105296
9.51584e-05
0.000102771
0.000112137
0.000101408
0.000107045
0.000105395
0.000104724
0.000109914
0.000102993
9.73501e-05
0.000102524
0.000102495
0.0001016
9.5473e-05
8.82822e-05
9.4488e-05
9.20508e-05
8.5408e-05
8.51079e-05
8.50814e-05
8.50741e-05
8.7068e-05
9.0858e-05
9.3374e-05
9.13132e-05
9.23071e-05
0.000115646
8.61656e-05
8.59628e-05
8.60109e-05
8.63132e-05
8.64408e-05
8.63217e-05
8.67884e-05
8.79288e-05
8.83146e-05
8.76478e-05
8.92396e-05
9.08838e-05
9.18563e-05
9.65592e-05
9.82444e-05
9.89792e-05
0.000105188
0.0001149
0.000111928
0.000117286
0.00012161
0.000117053
0.000109525
0.00011595
0.000106658
0.000107333
9.27503e-05
0.000120379
0.000113575
0.000124317
0.000112623
0.000111391
0.000104834
0.000101354
0.000106046
0.000106656
0.000106754
0.000105713
0.000104923
0.000104122
0.000102931
9.58843e-05
9.39291e-05
9.24858e-05
8.5415e-05
8.50598e-05
8.50131e-05
8.50124e-05
8.70366e-05
9.26176e-05
9.75361e-05
9.61523e-05
9.45818e-05
0.00011564
8.59779e-05
8.57366e-05
8.57683e-05
8.60536e-05
8.61576e-05
8.60075e-05
8.608e-05
8.75065e-05
8.78237e-05
8.70181e-05
8.83908e-05
9.03462e-05
9.01095e-05
9.30622e-05
9.55031e-05
9.48084e-05
0.000101195
0.000109177
0.000106651
0.000108948
0.000116363
0.000110633
0.000106654
0.000102956
0.000106403
0.000116013
0.000100005
0.000110867
0.000113531
0.000108432
0.000108903
0.00010736
0.000100669
0.000104772
0.000103253
9.74482e-05
0.00010339
0.000102863
0.000102339
0.000101806
0.000100894
9.4189e-05
9.26488e-05
9.17088e-05
8.53807e-05
8.50955e-05
8.50839e-05
8.50754e-05
8.73666e-05
9.11733e-05
9.36034e-05
9.14022e-05
9.25008e-05
0.000115664
8.61266e-05
8.58932e-05
8.5933e-05
8.62744e-05
8.60962e-05
8.61786e-05
8.63368e-05
8.84247e-05
8.78092e-05
8.82367e-05
8.93364e-05
9.10978e-05
9.34185e-05
9.73143e-05
0.000103436
0.000107154
0.000112191
0.000117879
0.000114023
0.000111114
0.000131448
0.00012308
0.000118722
0.000112356
0.000106644
0.000122367
9.29063e-05
0.000106345
0.000112688
0.000124319
0.000104287
0.000109893
0.000117607
9.38363e-05
9.09153e-05
0.000109753
0.000105793
0.000109158
0.000104498
0.000103201
0.00010183
9.49455e-05
9.2902e-05
9.16735e-05
8.53413e-05
8.50245e-05
8.5004e-05
8.50097e-05
8.73165e-05
9.28918e-05
9.76889e-05
9.61533e-05
9.48017e-05
0.000115649
8.58828e-05
8.56647e-05
8.56962e-05
8.60202e-05
8.5814e-05
8.58613e-05
8.59728e-05
8.79973e-05
8.73011e-05
8.75964e-05
8.84739e-05
8.98528e-05
9.15554e-05
9.34298e-05
9.87801e-05
0.000103033
0.000106684
0.000112448
0.000109643
0.000117864
0.000134404
0.000117167
0.000102477
0.000117615
0.000100502
0.000123002
8.70774e-05
0.000117324
0.000109619
0.000118762
0.000108216
0.000107125
0.000114239
9.85106e-05
8.91576e-05
9.63738e-05
0.000102651
0.000106975
0.000102594
0.000101512
0.000100376
9.3769e-05
9.21084e-05
9.16201e-05
8.53566e-05
8.50788e-05
8.50811e-05
8.5077e-05
8.74935e-05
9.12452e-05
9.35723e-05
9.1318e-05
9.27113e-05
0.000115598
8.59773e-05
8.57637e-05
8.57968e-05
8.61246e-05
8.59279e-05
8.59811e-05
8.61503e-05
8.68986e-05
8.66952e-05
8.79636e-05
8.99849e-05
8.98037e-05
9.44257e-05
9.76122e-05
0.000105417
0.00011024
0.000111099
0.000116144
0.000124579
0.000133881
0.000138181
0.000131765
0.000148112
0.000141751
0.000143814
0.000111239
0.000117339
0.000100549
0.00012446
0.00012109
0.000115297
0.00010147
0.00010819
0.000109079
0.000107416
0.000109741
0.000105613
0.000109119
0.000108172
0.000106516
0.000101734
9.4263e-05
9.45629e-05
9.19161e-05
8.52476e-05
8.50243e-05
8.50095e-05
8.50236e-05
8.74957e-05
9.29677e-05
9.76363e-05
9.61001e-05
9.5166e-05
0.000115594
8.58493e-05
8.55975e-05
8.56181e-05
8.59358e-05
8.57217e-05
8.5752e-05
8.58853e-05
8.65898e-05
8.63041e-05
8.74668e-05
8.92343e-05
8.86903e-05
9.13549e-05
9.36928e-05
0.000100062
0.000105975
0.000103696
0.000109738
0.000114807
0.000123765
0.000125972
0.000122664
0.000138529
0.000145223
0.000113248
0.000135286
0.000126048
0.000114831
0.000122948
0.000138361
0.000116404
0.000102609
0.000109152
0.000117356
0.000108776
0.000104948
0.000105375
0.000109106
0.00010826
0.000106598
0.000101842
9.44428e-05
9.5003e-05
9.20265e-05
8.53429e-05
8.51426e-05
8.51295e-05
8.53709e-05
8.80558e-05
9.17094e-05
9.39801e-05
9.1669e-05
9.32646e-05
0.000115617
8.59321e-05
8.56848e-05
8.57136e-05
8.57642e-05
8.58375e-05
8.58858e-05
8.65125e-05
8.625e-05
8.65682e-05
8.71062e-05
9.04895e-05
9.14509e-05
9.32393e-05
9.45415e-05
0.000102061
0.00010733
0.00011171
0.000125356
0.000129099
0.000148804
0.000152142
0.000166598
0.000195599
0.000243245
0.000233753
0.000177022
0.000152053
0.000168181
0.000146794
0.000123712
0.000132161
0.000118079
0.000135488
0.000131928
0.000125505
0.000110686
0.000104637
0.000111738
0.0001141
0.000112155
0.000100651
9.06023e-05
9.77468e-05
0.000100999
9.37865e-05
8.55804e-05
8.51991e-05
8.62474e-05
8.95827e-05
9.48019e-05
9.923e-05
9.73317e-05
9.6234e-05
0.000115604
8.57384e-05
8.55126e-05
8.55366e-05
8.55725e-05
8.56237e-05
8.56412e-05
8.6227e-05
8.59034e-05
8.61361e-05
8.65503e-05
8.96797e-05
9.02546e-05
9.15112e-05
9.18261e-05
9.83387e-05
0.000106631
0.000109662
0.000119106
0.000118858
0.000139789
0.000142151
0.000178553
0.000220377
0.000201459
0.000267577
0.000155242
0.000144582
0.000132038
0.000152985
0.000156425
0.000123407
0.000118352
0.000136108
0.000131049
0.000125959
0.000110838
0.000105331
0.000112449
0.000114782
0.000112821
0.000101318
9.13093e-05
9.86813e-05
0.000101991
9.51085e-05
8.71168e-05
8.67586e-05
8.77682e-05
9.01818e-05
9.35148e-05
9.54579e-05
9.2542e-05
9.40682e-05
0.00011554
8.57521e-05
8.55267e-05
8.55447e-05
8.55763e-05
8.55818e-05
8.56543e-05
8.62915e-05
8.59364e-05
8.6221e-05
8.66932e-05
9.02845e-05
9.11936e-05
9.29141e-05
9.56224e-05
9.66384e-05
0.000105799
0.000108624
0.000127553
0.000139875
0.000148566
0.000229642
0.000334336
0.000587859
0.000528069
0.000451535
0.000281174
0.000285995
0.000230435
0.000214223
0.00018505
0.000182089
0.000174327
0.000163326
0.00014043
0.00013506
0.000126222
0.000119742
0.000131502
0.000123373
0.000119624
0.000112987
0.000108782
0.000104062
9.68054e-05
9.16615e-05
9.00948e-05
8.93992e-05
9.00068e-05
9.27376e-05
9.74264e-05
0.000101301
9.84047e-05
9.74264e-05
0.00011554
8.56939e-05
8.54323e-05
8.54419e-05
8.5468e-05
8.54652e-05
8.55216e-05
8.61367e-05
8.57355e-05
8.59681e-05
8.63218e-05
8.97453e-05
9.1528e-05
9.28069e-05
9.12662e-05
9.3472e-05
0.000104821
0.000105139
0.000116692
0.000127271
0.000130443
0.000201835
0.00028932
0.000446999
0.000942665
0.000576347
0.000331981
0.000198955
0.000186562
0.00018926
0.000165372
0.000152248
0.000157942
0.000151179
0.000121205
0.0001248
0.000110242
0.00011154
0.000124246
0.000116807
0.000113848
0.000107981
0.000104556
0.000100404
9.39978e-05
8.95188e-05
8.85703e-05
8.82539e-05
8.88965e-05
9.10342e-05
9.41639e-05
9.57756e-05
9.25375e-05
9.47369e-05
0.000115558
8.59647e-05
8.54297e-05
8.68943e-05
8.72665e-05
8.73067e-05
8.88026e-05
8.71164e-05
8.65202e-05
8.61545e-05
8.65382e-05
8.83753e-05
8.90503e-05
9.22782e-05
9.63732e-05
9.64273e-05
0.00010815
0.000112202
0.000116601
0.000126246
0.000181418
0.000259055
0.000431914
0.00289502
0.00370306
0.00211039
0.000654083
0.000390554
0.000300479
0.000289733
0.000198193
0.000173587
0.000175955
0.000166226
0.000160754
0.000152143
0.000129474
0.000135134
0.000136507
0.00012623
0.000130261
0.000122899
0.000109285
0.000110111
0.000107017
9.415e-05
9.89762e-05
9.84453e-05
9.16062e-05
9.38288e-05
9.84786e-05
0.000101988
9.86154e-05
9.95161e-05
0.000115548
8.58361e-05
8.5328e-05
8.67875e-05
8.71511e-05
8.71732e-05
8.8641e-05
8.69152e-05
8.62687e-05
8.58325e-05
8.60937e-05
8.77408e-05
8.93779e-05
9.27658e-05
9.2442e-05
9.17041e-05
9.92922e-05
0.000106515
0.000100554
0.000132464
0.000160219
0.000214677
0.000595571
0.00181973
0.0032031
0.00137805
0.000523957
0.000347991
0.000308136
0.000269515
0.000180997
0.000162376
0.000166681
0.000158877
0.000153848
0.000145541
0.000129232
0.000135062
0.000134864
0.000122893
0.000127968
0.000120334
0.000107746
0.000109051
0.000106361
9.39402e-05
9.93107e-05
9.89228e-05
9.20778e-05
9.35913e-05
9.63791e-05
9.77575e-05
9.367e-05
9.7535e-05
0.000115457
8.72495e-05
8.70283e-05
8.52397e-05
8.59405e-05
8.71342e-05
8.91211e-05
8.69119e-05
8.82402e-05
8.92508e-05
8.73995e-05
8.65186e-05
8.94699e-05
8.91894e-05
9.42467e-05
9.18715e-05
9.75155e-05
0.00010011
0.000121697
0.000149072
0.000196498
0.000658337
0.00613683
0.00690105
0.0343244
0.00321675
0.00133927
0.000795171
0.000444924
0.000372786
0.000285473
0.000274442
0.00021642
0.000222089
0.000209105
0.000166165
0.000163042
0.000150694
0.000141469
0.000152862
0.000139996
0.000130396
0.0001191
0.000122188
0.000115442
0.000115406
0.000108451
0.000101621
0.000101238
9.9268e-05
0.000107415
0.000105734
0.00010007
0.00011339
0.000115477
8.57799e-05
8.5499e-05
8.52063e-05
8.5924e-05
8.71158e-05
8.90956e-05
8.68675e-05
8.81166e-05
8.69958e-05
8.58403e-05
8.6216e-05
8.90169e-05
9.08127e-05
9.12809e-05
8.96955e-05
9.08449e-05
9.79862e-05
0.00011051
0.000133586
0.000202062
0.000523988
0.0047654
0.0034356
0.0255273
0.00469394
0.00145245
0.000740223
0.000335876
0.000299178
0.000208462
0.000221951
0.000175851
0.000175642
0.000164264
0.000138928
0.000134321
0.000128766
0.000140696
0.000127624
0.000130252
0.000110496
0.00011195
0.00011577
0.000109979
0.000106988
0.000105357
9.25933e-05
9.62482e-05
9.42839e-05
9.64431e-05
0.00010171
9.92702e-05
0.000109229
0.000115498
8.5456e-05
8.54253e-05
8.69597e-05
8.70543e-05
8.71295e-05
8.87462e-05
8.69165e-05
8.60756e-05
8.8632e-05
8.74309e-05
8.86549e-05
8.92943e-05
8.99034e-05
9.23054e-05
8.96607e-05
9.39233e-05
9.63723e-05
0.000115604
0.000117629
0.000142411
0.000284639
0.00125371
0.0679654
0.185355
0.00271201
0.00132014
0.000793384
0.000381436
0.000372123
0.000528128
0.000273658
0.00021506
0.00013477
0.000166007
0.000136056
0.000166013
0.000174271
0.000139157
0.000137208
0.000121099
0.000126786
0.000112137
0.000113393
0.000115548
0.000111582
9.58559e-05
9.53716e-05
9.50789e-05
9.40836e-05
0.000107015
0.000104249
9.82752e-05
0.000114455
0.000116942
8.72267e-05
8.53913e-05
8.70102e-05
8.89781e-05
8.67378e-05
8.7174e-05
8.67786e-05
8.65993e-05
8.69059e-05
8.8002e-05
8.68508e-05
8.73605e-05
8.91305e-05
9.01423e-05
8.68443e-05
9.18868e-05
9.47608e-05
0.000110146
0.00010626
0.00012102
0.000230039
0.00185367
0.0265919
0.223252
0.00254053
0.00128865
0.000761209
0.000430825
0.000318777
0.000288265
0.000251149
0.000221234
0.00017525
0.000134376
0.000117766
0.000131433
0.000120406
0.000131152
0.000111452
0.000122231
0.000115627
0.000113929
0.000104913
0.000100212
9.96721e-05
9.61918e-05
9.2644e-05
9.36641e-05
9.46656e-05
9.84051e-05
9.63462e-05
0.000103785
9.92652e-05
0.000116826
8.87644e-05
8.67936e-05
8.55041e-05
8.5164e-05
8.75184e-05
8.83617e-05
8.73513e-05
8.67937e-05
8.82946e-05
8.60911e-05
8.62548e-05
8.81829e-05
8.85725e-05
8.69203e-05
8.96607e-05
9.14179e-05
0.000101201
9.78579e-05
8.57326e-05
9.70474e-05
0.000132446
0.000252364
3.50227
0.00337898
0.00250018
0.000939749
0.00040827
0.000916429
0.000340728
0.000268622
0.000226813
0.000158301
0.000167468
0.000149439
0.000162719
0.000153052
0.00010307
0.000119889
0.000110594
0.000113653
0.00010649
0.000108221
0.000104384
8.70524e-05
9.71469e-05
0.000114883
0.000101612
8.43174e-05
9.92416e-05
0.00010021
9.82957e-05
0.000121348
0.000115447
8.69578e-05
8.85492e-05
8.73678e-05
8.75066e-05
8.87431e-05
8.67533e-05
8.56695e-05
8.64462e-05
8.58737e-05
8.77022e-05
8.79464e-05
8.65596e-05
8.68791e-05
8.97088e-05
8.79846e-05
9.13908e-05
9.58597e-05
9.78653e-05
9.12041e-05
0.000109125
0.000146384
0.000242964
0.512618
0.00468252
0.0021111
0.000577643
0.00168379
0.000495757
0.000616146
0.000358119
0.000214293
0.000162667
0.000149489
0.000154865
0.000104433
0.000116607
0.000130692
8.91101e-05
0.000114172
0.000133582
0.000133818
0.000110592
8.68263e-05
8.48511e-05
8.41608e-05
8.4406e-05
8.48579e-05
8.45025e-05
9.01985e-05
8.8019e-05
0.000102115
0.000108014
0.000115454
8.72803e-05
8.67691e-05
8.71126e-05
8.67648e-05
8.58832e-05
8.55572e-05
8.79716e-05
8.69337e-05
8.77405e-05
8.96685e-05
8.81054e-05
8.84925e-05
8.87739e-05
8.74539e-05
9.29675e-05
9.22152e-05
9.95217e-05
0.000104014
9.99682e-05
0.000102455
9.85314e-05
0.000280735
0.00034761
0.00086356
0.000533565
0.000426932
0.000145873
6.0537e-05
9.46977e-05
0.000142429
0.000119988
0.000128983
9.3996e-05
0.000118862
0.000102371
0.00011663
9.99584e-05
9.02012e-05
9.47465e-05
8.82672e-05
9.27709e-05
9.12895e-05
8.73372e-05
8.63581e-05
8.71416e-05
8.36725e-05
8.3582e-05
8.39457e-05
8.46049e-05
8.4858e-05
8.94175e-05
0.000100282
0.000595928
0.000115484
8.7282e-05
8.70549e-05
8.74276e-05
8.71269e-05
8.58995e-05
8.55472e-05
8.79515e-05
8.75875e-05
8.77223e-05
8.87679e-05
8.81218e-05
8.64385e-05
8.66335e-05
8.97779e-05
9.30993e-05
9.24608e-05
9.38354e-05
9.69024e-05
9.1544e-05
0.000122501
0.000119069
0.000280132
2.07656e-05
0.103435
0.000255843
0.000246807
0.000202388
0.000142575
0.000108155
0.000126223
0.000106475
9.55237e-05
9.41647e-05
0.000110641
0.000103263
0.000110237
9.03277e-05
9.04884e-05
9.63314e-05
8.88573e-05
9.29425e-05
9.13396e-05
8.77674e-05
8.71122e-05
8.4442e-05
8.43748e-05
8.45225e-05
8.46561e-05
8.49405e-05
8.52114e-05
8.88776e-05
9.71753e-05
0.000591475
0.000115463
8.57007e-05
8.51546e-05
8.7076e-05
8.71007e-05
8.72507e-05
8.90185e-05
8.92166e-05
8.69799e-05
8.71002e-05
8.79599e-05
8.71964e-05
8.73048e-05
9.14566e-05
9.06595e-05
9.30585e-05
9.32676e-05
9.62187e-05
9.82425e-05
9.78949e-05
0.000112277
0.000132506
8.91461e-05
0.000137959
0.000229665
0.000195014
0.000117748
0.000131883
0.000112593
0.000141896
0.000118099
9.24915e-05
0.000109794
0.000105611
0.000103803
0.000107817
9.82749e-05
8.26994e-05
8.97649e-05
9.37719e-05
8.33524e-05
8.36442e-05
8.68756e-05
8.70396e-05
8.69114e-05
8.38819e-05
8.39675e-05
8.40637e-05
8.42382e-05
8.45888e-05
8.51388e-05
9.07104e-05
9.60139e-05
0.0003422
0.000115464
8.57154e-05
8.51654e-05
8.70905e-05
8.71143e-05
8.72666e-05
8.9036e-05
8.92351e-05
8.70143e-05
8.7116e-05
8.79745e-05
8.72294e-05
8.7337e-05
9.04138e-05
8.81928e-05
9.31034e-05
9.35682e-05
9.65031e-05
9.79389e-05
0.000107268
0.00010481
0.000126575
0.00016744
0.000171417
0.000185599
0.000235186
0.000160969
0.000136665
0.000130683
0.000141441
0.000102522
0.00011145
0.000111147
9.74155e-05
0.000104704
0.000118091
0.000106342
9.76956e-05
8.99083e-05
9.44414e-05
8.38786e-05
8.41451e-05
8.73646e-05
8.7497e-05
8.7341e-05
8.43469e-05
8.43825e-05
8.44706e-05
8.46141e-05
8.48796e-05
8.54121e-05
8.93642e-05
9.31228e-05
0.000336844
0.000115468
8.54206e-05
8.51631e-05
8.51413e-05
8.72059e-05
8.68834e-05
8.5091e-05
8.75457e-05
8.90798e-05
8.92603e-05
9.03193e-05
9.07026e-05
8.86133e-05
8.4914e-05
8.62791e-05
9.16423e-05
9.49653e-05
9.36366e-05
8.61469e-05
0.000107803
0.000127475
0.000109037
0.00012369
0.000158481
0.00018789
0.000119108
0.00015638
0.000117061
0.000116723
0.000125527
0.000122589
8.27216e-05
0.000106527
0.00011872
0.000100108
0.000105482
8.87156e-05
8.35481e-05
8.76097e-05
8.32499e-05
8.37705e-05
8.39546e-05
8.42259e-05
8.40772e-05
8.62194e-05
8.41669e-05
8.41796e-05
8.42289e-05
8.4396e-05
8.47384e-05
8.57024e-05
9.21532e-05
9.50652e-05
0.00025212
0.000115468
8.54271e-05
8.51721e-05
8.5151e-05
8.72174e-05
8.68945e-05
8.51016e-05
8.75598e-05
8.909e-05
8.92704e-05
9.03347e-05
9.0731e-05
8.86468e-05
8.79705e-05
8.64677e-05
9.18443e-05
9.50708e-05
9.39573e-05
8.70186e-05
0.000103171
0.000109893
0.000115337
0.000112521
0.000151899
0.000124582
0.000134435
0.000117817
9.94547e-05
0.000137372
0.000116151
0.000123512
9.73864e-05
0.000107386
0.00012057
0.000109099
0.00010608
8.29745e-05
8.36244e-05
8.81087e-05
8.36115e-05
8.41179e-05
8.42791e-05
8.45331e-05
8.4374e-05
8.65054e-05
8.44772e-05
8.45055e-05
8.45601e-05
8.47037e-05
8.49669e-05
8.669e-05
9.024e-05
9.1734e-05
0.000246409
0.000115461
8.54134e-05
8.51503e-05
8.51268e-05
8.69025e-05
8.69303e-05
8.7007e-05
8.94349e-05
8.92293e-05
8.94856e-05
8.97182e-05
8.8304e-05
8.60062e-05
8.93042e-05
9.11019e-05
8.60453e-05
9.07353e-05
9.56405e-05
9.79522e-05
9.99625e-05
8.51541e-05
7.95982e-05
0.000108476
0.000136393
0.000119345
0.000128955
0.000114323
8.5637e-05
0.00011422
0.00011247
0.000105391
0.000104746
0.000110774
0.000110075
9.88156e-05
0.000109509
9.57377e-05
8.3515e-05
8.80992e-05
8.39739e-05
8.43429e-05
8.44494e-05
8.43719e-05
8.66041e-05
8.85611e-05
8.43375e-05
8.43648e-05
8.44052e-05
8.45559e-05
8.48729e-05
8.72035e-05
9.31874e-05
9.46951e-05
0.000208114
0.000115463
8.54304e-05
8.5166e-05
8.51431e-05
8.69211e-05
8.69506e-05
8.70289e-05
8.94629e-05
8.92557e-05
8.95158e-05
8.97568e-05
8.83524e-05
8.61044e-05
8.95921e-05
8.98981e-05
8.62306e-05
9.10759e-05
9.60051e-05
9.86245e-05
0.000100218
8.85897e-05
8.18089e-05
0.000109308
0.000147404
0.000154482
8.61823e-05
0.000113702
8.8552e-05
0.00011493
0.000114371
0.000107043
0.000104311
0.000111492
0.000110768
9.89809e-05
0.000110203
9.66891e-05
8.37924e-05
8.84716e-05
8.42519e-05
8.46088e-05
8.4699e-05
8.46108e-05
8.67862e-05
8.87729e-05
8.45869e-05
8.46294e-05
8.46757e-05
8.48055e-05
8.50495e-05
8.75788e-05
9.07867e-05
9.11325e-05
0.000202276
0.000115463
8.54114e-05
8.5146e-05
8.51215e-05
8.68968e-05
8.69168e-05
8.71272e-05
8.91605e-05
8.98849e-05
8.97269e-05
9.06656e-05
8.84336e-05
8.89164e-05
9.02164e-05
8.73466e-05
9.13973e-05
9.11103e-05
8.74646e-05
9.56874e-05
0.000108172
0.00011552
0.000101764
0.000110453
0.000130642
0.000121843
8.64053e-05
8.27779e-05
0.000108763
0.00010658
0.000107779
9.41427e-05
0.000101328
9.993e-05
0.000112616
9.76312e-05
0.000101584
8.94235e-05
8.37507e-05
8.41401e-05
8.41707e-05
8.43274e-05
8.43515e-05
8.45271e-05
8.44527e-05
8.43725e-05
8.44901e-05
8.44755e-05
8.4511e-05
8.46484e-05
8.49443e-05
8.79463e-05
9.36551e-05
9.45295e-05
0.000182944
0.000115464
8.54233e-05
8.51604e-05
8.51368e-05
8.69139e-05
8.69351e-05
8.71463e-05
8.91814e-05
8.991e-05
8.97513e-05
9.07031e-05
8.84744e-05
8.89978e-05
8.91468e-05
8.5955e-05
9.16123e-05
9.14933e-05
8.63494e-05
9.60673e-05
0.000108984
0.000116618
0.000102254
0.000111412
0.000125894
0.000125021
0.00011282
8.49196e-05
0.000108554
0.000104466
0.000109681
0.000107273
0.000101763
0.000100301
0.000113132
9.82847e-05
0.00010262
0.000100154
8.38123e-05
8.43747e-05
8.4389e-05
8.45373e-05
8.45518e-05
8.47227e-05
8.46968e-05
8.46675e-05
8.47027e-05
8.47033e-05
8.47458e-05
8.48659e-05
8.50947e-05
8.80367e-05
9.10654e-05
9.08196e-05
0.000176984
0.000115457
8.53991e-05
8.51345e-05
8.51086e-05
8.69271e-05
8.69374e-05
8.71864e-05
8.92617e-05
9.00374e-05
8.98631e-05
9.086e-05
8.76976e-05
8.66057e-05
8.96543e-05
8.97157e-05
8.54508e-05
9.23181e-05
9.34694e-05
8.56155e-05
8.2728e-05
9.80517e-05
0.000102789
9.7738e-05
0.000110148
0.000113176
9.10736e-05
8.71382e-05
0.000118339
0.000116611
9.74336e-05
8.35735e-05
9.43324e-05
9.85151e-05
0.000103676
8.8643e-05
9.92977e-05
9.35479e-05
8.38718e-05
8.42935e-05
8.42744e-05
8.43637e-05
8.43995e-05
8.45545e-05
8.45772e-05
8.45539e-05
8.45392e-05
8.45341e-05
8.45709e-05
8.47e-05
8.49787e-05
8.82453e-05
9.38075e-05
9.43195e-05
0.000166531
0.000115459
8.54204e-05
8.51551e-05
8.513e-05
8.69516e-05
8.6964e-05
8.72154e-05
8.92945e-05
9.00767e-05
8.99038e-05
9.09178e-05
8.77583e-05
8.66904e-05
8.97935e-05
8.98978e-05
8.56685e-05
9.26585e-05
9.24839e-05
8.59558e-05
8.31686e-05
9.86797e-05
0.000103786
9.95056e-05
9.66039e-05
0.0001015
0.000108432
9.28226e-05
0.000116822
0.000101104
9.97485e-05
9.94671e-05
9.42411e-05
9.88651e-05
0.000104213
9.54226e-05
9.99983e-05
9.86498e-05
8.39985e-05
8.45238e-05
8.4494e-05
8.45747e-05
8.4602e-05
8.4751e-05
8.47701e-05
8.47489e-05
8.47419e-05
8.47466e-05
8.47869e-05
8.48992e-05
8.51153e-05
8.8226e-05
9.11653e-05
9.05969e-05
0.000160673
0.000115459
8.53981e-05
8.51316e-05
8.51049e-05
8.69571e-05
8.69935e-05
8.50989e-05
8.72594e-05
8.96325e-05
9.05054e-05
8.82035e-05
8.56034e-05
8.56215e-05
8.93532e-05
8.93715e-05
9.09935e-05
9.08629e-05
8.59328e-05
8.41431e-05
8.29418e-05
9.70382e-05
0.000104847
9.13272e-05
0.0001033
0.000116147
9.51216e-05
8.45437e-05
0.000110231
0.000110854
9.65439e-05
8.83439e-05
9.67304e-05
9.49629e-05
9.52713e-05
9.02163e-05
8.80315e-05
9.24619e-05
8.41972e-05
8.44495e-05
8.71908e-05
8.44568e-05
8.44168e-05
8.45992e-05
8.619e-05
8.45605e-05
8.4569e-05
8.45703e-05
8.46065e-05
8.47282e-05
8.49936e-05
8.8363e-05
9.38446e-05
9.41829e-05
0.000155069
0.00011546
8.54147e-05
8.51506e-05
8.5125e-05
8.69799e-05
8.70178e-05
8.51234e-05
8.72867e-05
8.96634e-05
9.05437e-05
8.82451e-05
8.56384e-05
8.6456e-05
8.95039e-05
8.97033e-05
8.56316e-05
9.19037e-05
9.29724e-05
8.47911e-05
8.34096e-05
9.764e-05
0.00010516
9.23767e-05
9.62654e-05
0.000113577
9.30198e-05
9.59105e-05
0.00011071
9.84988e-05
9.71744e-05
8.76368e-05
9.70414e-05
9.52645e-05
9.57052e-05
9.66301e-05
9.28943e-05
9.2735e-05
8.44339e-05
8.46768e-05
8.74163e-05
8.46668e-05
8.46186e-05
8.47951e-05
8.63846e-05
8.47518e-05
8.47652e-05
8.4773e-05
8.48121e-05
8.49185e-05
8.51257e-05
8.83176e-05
9.11928e-05
9.04595e-05
0.000149242
0.000115454
8.5388e-05
8.51224e-05
8.50922e-05
8.71921e-05
8.70174e-05
8.50778e-05
8.73753e-05
8.77342e-05
8.81739e-05