/*--------------------------------*- C++ -*----------------------------------*\
| =========                 |                                                 |
| \\      /  F ield         | OpenFOAM: The Open Source CFD Toolbox           |
|  \\    /   O peration     | Version:  4.1                                   |
|   \\  /    A nd           | Web:      www.OpenFOAM.org                      |
|    \\/     M anipulation  |                                                 |
\*---------------------------------------------------------------------------*/
FoamFile
{
    version     2.0;
    format      ascii;
    class       surfaceScalarField;
    location    "1";
    object      phi;
}
// * * * * * * * * * * * * * * * * * * * * * * * * * * * * * * * * * * * * * //

dimensions      [0 3 -1 0 0 0 0];

internalField   nonuniform List<scalar> 
11516
(
9.87519e+06
-5477.76
20741.6
9.28593e+06
-65351.8
203587
8.66744e+06
-69686.7
210127
8.00394e+06
-74689.8
223859
7.27494e+06
-81604.4
244886
6.45937e+06
-90800.6
273694
5.5371e+06
-102151
311151
4.48918e+06
-115313
358149
3.2947e+06
-130145
415471
1.9206e+06
-148203
483502
347673
-168068
561819
-1.43605e+06
-192917
641573
-3.37763e+06
-209779
691947
-5.46792e+06
-227820
721362
-7.81143e+06
-279860
623797
-1.03661e+07
-333985
498129
-1.30534e+07
-428302
169904
-1.53335e+07
-446719
-203568
-1.70504e+07
-480878
-890428
-1.78317e+07
-449118
-1.67768e+06
-1.78981e+07
-533135
-2.82007e+06
-1.6899e+07
-558460
-4.00147e+06
-1.4997e+07
-641131
-5.26658e+06
-1.21622e+07
-691769
-6.4239e+06
-8.61136e+06
-750369
-7.40009e+06
-4.54842e+06
-801565
-8.1368e+06
-204350
-844455
-8.60026e+06
4.19961e+06
-878916
-8.80077e+06
8.46584e+06
-902711
-8.76051e+06
1.24285e+07
-919543
-8.5261e+06
1.59791e+07
-925576
-8.13811e+06
1.90527e+07
-924281
-7.64969e+06
2.16398e+07
-910989
-7.09626e+06
2.37539e+07
-890569
-6.51885e+06
2.54411e+07
-859021
-5.93517e+06
2.67502e+07
-822449
-5.37162e+06
2.77466e+07
-776819
-4.82998e+06
2.84896e+07
-728169
-4.32743e+06
2.90506e+07
-671785
-3.85674e+06
2.94923e+07
-612911
-3.42889e+06
2.98924e+07
-545821
-3.03437e+06
3.03205e+07
-475145
-2.68092e+06
3.0868e+07
-393613
-2.35759e+06
3.16259e+07
-304924
-2.07279e+06
3.27206e+07
-199053
-1.81393e+06
3.42579e+07
-78792.5
-1.58286e+06
3.62616e+07
53842.2
-1.36016e+06
3.84981e+07
165172
-1.13806e+06
4.0354e+07
201556
-904185
4.08095e+07
79088.6
-663222
3.90462e+07
-203386
-399227
3.52548e+07
-560459
-157874
3.15266e+07
-658519
191370
-295554
1.01011e+06
9.86925e+06
20401
9.28159e+06
201899
8.66244e+06
207518
7.99702e+06
220781
7.26574e+06
241485
6.44802e+06
270015
5.52394e+06
307084
4.47435e+06
353596
3.27665e+06
410258
1.90074e+06
477367
322825
553475
-1.4529e+06
627392
-3.39568e+06
683100
-5.51995e+06
685707
-7.86555e+06
620251
-1.04605e+07
447431
-1.30718e+07
168155
-1.53676e+07
-264922
-1.70186e+07
-882353
-1.79157e+07
-1.7439e+06
-1.79235e+07
-2.80724e+06
-1.69817e+07
-4.01524e+06
-1.50477e+07
-5.24867e+06
-1.22208e+07
-6.40677e+06
-8.66256e+06
-7.38761e+06
-4.59133e+06
-8.12582e+06
-238812
-8.59277e+06
4.17578e+06
-8.79098e+06
8.44901e+06
-8.74975e+06
1.24225e+07
-8.50971e+06
1.59804e+07
-8.12148e+06
1.9066e+07
-7.62911e+06
2.16602e+07
-7.07807e+06
2.37854e+07
-6.49856e+06
2.54777e+07
-5.91887e+06
2.67958e+07
-5.35404e+06
2.77953e+07
-4.81699e+06
2.8546e+07
-4.3133e+06
2.91095e+07
-3.84734e+06
2.95594e+07
-3.41808e+06
2.99631e+07
-3.02821e+06
3.04021e+07
-2.67282e+06
3.09567e+07
-2.35388e+06
3.17318e+07
-2.0665e+06
3.28408e+07
-1.80985e+06
3.43905e+07
-1.57424e+06
3.63729e+07
-1.34947e+06
3.85345e+07
-1.12316e+06
4.02315e+07
-892208
4.05271e+07
-651182
3.86891e+07
-413552
3.51567e+07
-170957
3.18896e+07
182912
1.00611e+06
9.87863e+06
-5820.91
38446.5
9.29874e+06
-67343.3
383760
8.68782e+06
-72620.7
396606
8.03145e+06
-78117.3
423210
7.30946e+06
-85386.7
463830
6.50117e+06
-94905.3
519571
5.58636e+06
-106693
591943
4.54604e+06
-120404
682692
3.35833e+06
-135971
793642
1.98966e+06
-155027
924524
412699
-177203
1.07329e+06
-1.40772e+06
-208010
1.21706e+06
-3.37767e+06
-219603
1.34267e+06
-5.60387e+06
-264606
1.35177e+06
-7.98522e+06
-284691
1.24116e+06
-1.07538e+07
-386331
911696
-1.3498e+07
-432016
375075
-1.61021e+07
-510260
-462819
-1.79269e+07
-474970
-1.67186e+06
-1.90674e+07
-517562
-3.35382e+06
-1.91733e+07
-522693
-5.52505e+06
-1.82532e+07
-574802
-7.94343e+06
-1.6235e+07
-626087
-1.05461e+07
-1.32049e+07
-677746
-1.29396e+07
-9.3969e+06
-741280
-1.5009e+07
-5.04072e+06
-794199
-1.65349e+07
-411764
-840783
-1.74789e+07
4.25358e+06
-873081
-1.7849e+07
8.73499e+06
-896053
-1.772e+07
1.28702e+07
-907276
-1.71861e+07
1.65372e+07
-913124
-1.63579e+07
1.96909e+07
-907875
-1.53301e+07
2.23133e+07
-896913
-1.41919e+07
2.44434e+07
-874288
-1.30078e+07
2.61186e+07
-846625
-1.18298e+07
2.74104e+07
-808572
-1.06885e+07
2.83737e+07
-767337
-9.60812e+06
2.90873e+07
-717340
-8.59757e+06
2.96083e+07
-665419
-7.66493e+06
3.00194e+07
-604914
-6.80878e+06
3.03794e+07
-542150
-6.02954e+06
3.07794e+07
-469198
-5.32249e+06
3.12905e+07
-391699
-4.68623e+06
3.2026e+07
-300010
-4.11296e+06
3.30978e+07
-195883
-3.59785e+06
3.46337e+07
-70513.3
-3.12313e+06
3.66459e+07
64806
-2.66929e+06
3.89045e+07
180858
-2.21829e+06
4.07759e+07
214483
-1.76518e+06
4.12566e+07
91518.2
-1.31713e+06
3.94625e+07
-218675
-891450
3.57618e+07
-576138
-493099
3.24871e+07
-670012
-131310
-300910
159208
9.8736e+06
38334.6
9.29347e+06
383014
8.68232e+06
397426
8.02418e+06
424583
7.29995e+06
465482
6.48938e+06
521460
5.57265e+06
594160
4.53048e+06
685208
3.33927e+06
796337
1.96749e+06
927046
381889
1.0725e+06
-1.4193e+06
1.21764e+06
-3.42267e+06
1.32516e+06
-5.62395e+06
1.34479e+06
-8.08685e+06
1.21771e+06
-1.07995e+07
898097
-1.35762e+07
354654
-1.60668e+07
-487407
-1.79695e+07
-1.71264e+06
-1.90725e+07
-3.40569e+06
-1.92254e+07
-5.52978e+06
-1.83045e+07
-7.9792e+06
-1.62866e+07
-1.05303e+07
-1.32684e+07
-1.2962e+07
-9.44983e+06
-1.50259e+07
-5.08733e+06
-1.65725e+07
-444079
-1.75274e+07
4.23061e+06
-1.79048e+07
8.72374e+06
-1.77779e+07
1.28643e+07
-1.7244e+07
1.65424e+07
-1.6413e+07
1.97019e+07
-1.53824e+07
2.23359e+07
-1.42395e+07
2.44711e+07
-1.30514e+07
2.61566e+07
-1.1868e+07
2.74516e+07
-1.07224e+07
2.84237e+07
-9.63701e+06
2.91392e+07
-8.62311e+06
2.96688e+07
-7.68637e+06
3.00822e+07
-6.82815e+06
3.04523e+07
-6.04595e+06
3.08569e+07
-5.33804e+06
3.13822e+07
-4.69991e+06
3.21301e+07
-4.12607e+06
3.32231e+07
-3.60849e+06
3.4769e+07
-3.13005e+06
3.6762e+07
-2.67179e+06
3.89381e+07
-2.21742e+06
4.0653e+07
-1.76389e+06
4.09464e+07
-1.32059e+06
3.9105e+07
-897759
3.5668e+07
-507004
3.28562e+07
-143102
155887
9.87824e+06
-5932.76
54900.5
9.31159e+06
-68089.5
560896
8.71442e+06
-71800.9
583579
8.07207e+06
-76744.7
624467
7.36519e+06
-83735.8
685665
6.57359e+06
-93014.6
769221
5.67743e+06
-104475
877592
4.65672e+06
-117890
1.01371e+06
3.48934e+06
-133274
1.17859e+06
2.13843e+06
-152507
1.37219e+06
556704
-177992
1.58998e+06
-1.28196e+06
-207438
1.81303e+06
-3.36828e+06
-237119
2.00094e+06
-5.71404e+06
-271586
2.04657e+06
-8.31416e+06
-308138
1.92489e+06
-1.129e+07
-399933
1.44699e+06
-1.43352e+07
-452434
722021
-1.73107e+07
-534847
-560923
-1.96093e+07
-515772
-2.28366e+06
-2.12398e+07
-569468
-4.89243e+06
-2.15938e+07
-527415
-8.03629e+06
-2.08589e+07
-610596
-1.19394e+07
-1.8631e+07
-610250
-1.59687e+07
-1.52774e+07
-700227
-1.99236e+07
-1.09245e+07
-758241
-2.32793e+07
-5.98512e+06
-831814
-2.57505e+07
-781795
-889270
-2.72213e+07
4.38443e+06
-928885
-2.77274e+07
9.26925e+06
-953905
-2.74207e+07
1.37002e+07
-965186
-2.64798e+07
1.7565e+07
-968271
-2.50957e+07
2.08289e+07
-960204
-2.34258e+07
2.34976e+07
-944571
-2.16102e+07
2.56211e+07
-917878
-1.9744e+07
2.72597e+07
-884808
-1.79086e+07
2.84905e+07
-842551
-1.61422e+07
2.93837e+07
-796263
-1.44832e+07
3.0019e+07
-742890
-1.29389e+07
3.04645e+07
-686872
-1.15224e+07
3.07969e+07
-624275
-1.0225e+07
3.10868e+07
-558569
-9.05201e+06
3.14153e+07
-484746
-7.98784e+06
3.18632e+07
-405370
-7.03504e+06
3.25407e+07
-313128
-6.17598e+06
3.35721e+07
-206526
-5.40165e+06
3.50872e+07
-77433.8
-4.6806e+06
3.70967e+07
62312.9
-3.98923e+06
3.93573e+07
181733
-3.30489e+06
4.12237e+07
215772
-2.6317e+06
4.16821e+07
88053.5
-1.98678e+06
3.98606e+07
-224984
-1.39183e+06
3.61235e+07
-590043
-871310
3.27775e+07
-681803
-433326
-304231
-93708.9
9.87342e+06
55259.5
9.30788e+06
564426
8.70948e+06
585516
8.06508e+06
626110
7.35591e+06
687542
6.56213e+06
771546
5.66402e+06
880365
4.64134e+06
1.01685e+06
3.47011e+06
1.18157e+06
2.11295e+06
1.37475e+06
527262
1.58984e+06
-1.31164e+06
1.80748e+06
-3.40273e+06
1.97807e+06
-5.75059e+06
2.02882e+06
-8.40594e+06
1.86607e+06
-1.13425e+07
1.43266e+06
-1.44176e+07
641975
-1.72917e+07
-585194
-1.9663e+07
-2.40906e+06
-2.11978e+07
-4.91994e+06
-2.1677e+07
-8.15352e+06
-2.08585e+07
-1.19345e+07
-1.87209e+07
-1.5996e+07
-1.53354e+07
-1.99029e+07
-1.09981e+07
-2.32634e+07
-6.04258e+06
-2.57487e+07
-821452
-2.72303e+07
4.35941e+06
-2.77454e+07
9.25794e+06
-2.74372e+07
1.36971e+07
-2.64936e+07
1.7573e+07
-2.51017e+07
2.08445e+07
-2.34286e+07
2.35243e+07
-2.16071e+07
2.56542e+07
-1.97402e+07
2.73019e+07
-1.79009e+07
2.85368e+07
-1.61354e+07
2.9437e+07
-1.44737e+07
3.0075e+07
-1.29316e+07
3.05271e+07
-1.15134e+07
3.08626e+07
-1.02191e+07
3.11606e+07
-9.04533e+06
3.14947e+07
-7.98518e+06
3.19555e+07
-7.03213e+06
3.26473e+07
-6.17632e+06
3.37012e+07
-5.3994e+06
3.5227e+07
-4.67725e+06
3.72161e+07
-3.98201e+06
3.93914e+07
-3.2979e+06
4.1096e+07
-2.62788e+06
4.13691e+07
-1.98855e+06
3.94956e+07
-1.40194e+06
3.60317e+07
-885938
3.31551e+07
-445376
-99129.8
9.88477e+06
-5573.74
73411.7
9.33427e+06
-64559.7
735225
8.75531e+06
-69863.6
762529
8.13324e+06
-75101.4
816637
7.44879e+06
-81860.1
898419
6.68231e+06
-90687.2
1.00986e+06
5.81319e+06
-101704
1.1546e+06
4.82182e+06
-114747
1.33494e+06
3.68271e+06
-130294
1.55266e+06
2.35653e+06
-149947
1.80769e+06
780054
-178133
2.09296e+06
-1.09386e+06
-212999
2.39001e+06
-3.32233e+06
-259989
2.63729e+06
-5.83508e+06
-289330
2.7679e+06
-8.79145e+06
-366975
2.61397e+06
-1.20142e+07
-414268
2.12481e+06
-1.56177e+07
-532503
1.14756e+06
-1.90332e+07
-559136
-404205
-2.22193e+07
-641217
-2.75451e+06
-2.43864e+07
-596990
-6.05713e+06
-2.55011e+07
-644716
-1.04063e+07
-2.48939e+07
-605643
-1.57527e+07
-2.25918e+07
-637521
-2.15277e+07
-1.86382e+07
-679512
-2.73598e+07
-1.33994e+07
-742418
-3.22808e+07
-7.4563e+06
-830056
-3.59119e+07
-1.28655e+06
-898230
-3.79346e+07
4.69442e+06
-946828
-3.84805e+07
1.02137e+07
-970452
-3.78174e+07
1.50874e+07
-978990
-3.62707e+07
1.92379e+07
-974254
-3.4143e+07
2.2646e+07
-963020
-3.16794e+07
2.53641e+07
-941426
-2.90667e+07
2.74582e+07
-914067
-2.64381e+07
2.90251e+07
-877058
-2.38847e+07
3.015e+07
-835787
-2.14634e+07
3.09284e+07
-786850
-1.92038e+07
3.14361e+07
-735587
-1.71226e+07
3.17605e+07
-677907
-1.52213e+07
3.19705e+07
-618406
-1.34967e+07
3.21498e+07
-551892
-1.19391e+07
3.2369e+07
-482096
-1.05395e+07
3.27224e+07
-402450
-9.28332e+06
3.33148e+07
-313478
-8.15886e+06
3.42932e+07
-204278
-7.13643e+06
3.57786e+07
-74079.7
-6.18205e+06
3.7781e+07
69534.1
-5.26065e+06
4.00305e+07
188723
-4.35525e+06
4.18687e+07
219590
-3.47672e+06
4.2277e+07
86280.8
-2.6516e+06
4.03812e+07
-235094
-1.90778e+06
3.65614e+07
-604671
-1.25851e+06
3.31171e+07
-693853
-702341
-309652
-219142
9.87992e+06
73297.5
9.32897e+06
734842
8.75007e+06
764482
8.12648e+06
819474
7.43996e+06
901731
6.67129e+06
1.01365e+06
5.80015e+06
1.15897e+06
4.80628e+06
1.33982e+06
3.66306e+06
1.55794e+06
2.32835e+06
1.81271e+06
745193
2.0963e+06
-1.14085e+06
2.38611e+06
-3.35166e+06
2.62972e+06
-5.91272e+06
2.73399e+06
-8.83873e+06
2.59022e+06
-1.21324e+07
2.08858e+06
-1.56443e+07
1.11861e+06
-1.91153e+07
-450960
-2.2175e+07
-2.81608e+06
-2.44341e+07
-6.13295e+06
-2.5462e+07
-1.04925e+07
-2.49258e+07
-1.5763e+07
-2.26337e+07
-2.15828e+07
-1.87012e+07
-2.7317e+07
-1.34871e+07
-3.22865e+07
-7.52451e+06
-3.59063e+07
-1.33517e+06
-3.79586e+07
4.6708e+06
-3.85228e+07
1.02051e+07
-3.78705e+07
1.50921e+07
-3.63257e+07
1.92491e+07
-3.41954e+07
2.26676e+07
-3.17257e+07
2.53914e+07
-2.91068e+07
2.74952e+07
-2.64711e+07
2.90663e+07
-2.39116e+07
3.01989e+07
-2.14842e+07
3.09797e+07
-1.92201e+07
3.14937e+07
-1.71346e+07
3.182e+07
-1.52307e+07
3.20371e+07
-1.35038e+07
3.22196e+07
-1.19457e+07
3.24487e+07
-1.05457e+07
3.28114e+07
-9.29017e+06
3.3424e+07
-8.16491e+06
3.44234e+07
-7.13998e+06
3.59222e+07
-6.18225e+06
3.79002e+07
-5.25862e+06
4.00614e+07
-4.35633e+06
4.17354e+07
-3.48453e+06
4.19557e+07
-2.66836e+06
4.00116e+07
-1.93069e+06
3.64723e+07
-1.28274e+06
3.35013e+07
-721409
-225705
9.88538e+06
-5688
87494
9.36158e+06
-64942.9
895135
8.80941e+06
-67910.3
933524
8.21499e+06
-72265.7
1.00243e+06
7.56049e+06
-78546.5
1.10511e+06
6.82667e+06
-86891.7
1.24497e+06
5.99356e+06
-97330.7
1.4264e+06
5.03985e+06
-109866
1.65208e+06
3.93782e+06
-125025
1.92464e+06
2.64206e+06
-144937
2.24326e+06
1.07715e+06
-174798
2.6001e+06
-846368
-216895
2.97931e+06
-3.19103e+06
-267566
3.32702e+06
-5.98836e+06
-323249
3.55458e+06
-9.27997e+06
-390738
3.47915e+06
-1.29907e+07
-450533
3.04096e+06
-1.71687e+07
-561474
1.9202e+06
-2.13838e+07
-605908
173690
-2.55234e+07
-702815
-2.73705e+06
-2.87399e+07
-672851
-6.70025e+06
-3.08553e+07
-730974
-1.24042e+07
-3.06791e+07
-615897
-1.92401e+07
-2.84351e+07
-692669
-2.73903e+07
-2.35692e+07
-636694
-3.54158e+07
-1.70374e+07
-748172
-4.25135e+07
-9.47975e+06
-824507
-4.75432e+07
-1.82894e+06
-922174
-5.01733e+07
5.36435e+06
-989142
-5.06022e+07
1.17658e+07
-1.02357e+06
-4.93306e+07
1.72219e+07
-1.03398e+06
-4.69063e+07
2.17054e+07
-1.02665e+06
-4.37885e+07
2.52631e+07
-1.00938e+06
-4.0327e+07
2.79937e+07
-981568
-3.67571e+07
3.00133e+07
-947070
-3.3246e+07
3.14473e+07
-904026
-2.98891e+07
3.2409e+07
-856642
-2.6751e+07
3.30089e+07
-803129
-2.38541e+07
3.33373e+07
-747535
-2.12116e+07
3.34855e+07
-687346
-1.88167e+07
3.35288e+07
-625551
-1.66608e+07
3.35496e+07
-558532
-1.47252e+07
3.36238e+07
-488267
-1.29987e+07
3.38475e+07
-409296
-1.14551e+07
3.4337e+07
-319527
-1.00774e+07
3.52476e+07
-207826
-8.82087e+06
3.67e+07
-74282.6
-7.64604e+06
3.86864e+07
71557.8
-6.51104e+06
4.0909e+07
187651
-5.40767e+06
4.26938e+07
211788
-4.34949e+06
4.30209e+07
69521
-3.36839e+06
4.10304e+07
-258010
-2.48461e+06
3.71176e+07
-628897
-1.69939e+06
3.36003e+07
-712921
-991919
-316215
-325963
9.88094e+06
88155.3
9.35861e+06
901778
8.80506e+06
938042
8.20871e+06
1.00666e+06
7.55214e+06
1.10985e+06
6.81624e+06
1.25049e+06
5.98103e+06
1.43277e+06
5.02469e+06
1.65902e+06
3.91792e+06
1.93188e+06
2.6122e+06
2.24952e+06
1.03505e+06
2.60508e+06
-897025
2.977e+06
-3.24671e+06
3.31305e+06
-6.05583e+06
3.51199e+06
-9.33975e+06
3.44338e+06
-1.31016e+07
2.94405e+06
-1.72132e+07
1.87614e+06
-2.14807e+07
25853.8
-2.54934e+07
-2.81316e+06
-2.8798e+07
-6.92502e+06
-3.07401e+07
-1.24757e+07
-3.07558e+07
-1.94576e+07
-2.8379e+07
-2.73874e+07
-2.36807e+07
-3.54433e+07
-1.71138e+07
-4.24388e+07
-9.57749e+06
-4.746e+07
-1.89594e+06
-5.01065e+07
5.32994e+06
-5.05572e+07
1.17553e+07
-4.93038e+07
1.72293e+07
-4.68867e+07
2.17227e+07
-4.3773e+07
2.52909e+07
-4.03098e+07
2.80281e+07
-3.67406e+07
3.00563e+07
-3.3227e+07
3.14947e+07
-2.98712e+07
3.24624e+07
-2.67313e+07
3.30645e+07
-2.38365e+07
3.33975e+07
-2.11932e+07
3.35473e+07
-1.88012e+07
3.35958e+07
-1.66454e+07
3.36199e+07
-1.47138e+07
3.37028e+07
-1.29881e+07
3.39373e+07
-1.14483e+07
3.44487e+07
-1.00689e+07
3.53811e+07
-8.81181e+06
3.68458e+07
-7.63289e+06
3.88025e+07
-6.49986e+06
4.09332e+07
-5.40244e+06
4.25515e+07
-4.35663e+06
4.26933e+07
-3.38807e+06
4.06595e+07
-2.51322e+06
3.70336e+07
-1.73013e+06
3.3997e+07
-1.01497e+06
-335163
9.89648e+06
-5026.7
105258
9.39996e+06
-58300.5
1.05504e+06
8.87828e+06
-63391.9
1.09682e+06
8.31772e+06
-68028.9
1.17901e+06
7.70064e+06
-73801.3
1.30271e+06
7.00782e+06
-81378.4
1.4716e+06
6.21948e+06
-90969.4
1.68973e+06
5.31234e+06
-102929
1.96059e+06
4.25633e+06
-117782
2.28729e+06
2.99916e+06
-138682
2.66863e+06
1.45636e+06
-169818
3.09946e+06
-498068
-219216
3.56169e+06
-2.96271e+06
-281545
4.01353e+06
-6.06309e+06
-365872
4.34617e+06
-9.71691e+06
-426514
4.4427e+06
-1.41098e+07
-547477
4.03751e+06
-1.89139e+07
-605568
3.00376e+06
-2.42944e+07
-753840
1.01872e+06
-2.94887e+07
-778994
-2.13967e+06
-3.44509e+07
-897793
-6.94983e+06
-3.77032e+07
-802486
-1.36887e+07
-3.88475e+07
-833541
-2.25705e+07
-3.64798e+07
-689643
-3.32807e+07
-3.06855e+07
-664193
-4.42746e+07
-2.20793e+07
-673310
-5.41058e+07
-1.21103e+07
-741126
-6.08378e+07
-2.24957e+06
-855290
-6.40605e+07
6.6487e+06
-944087
-6.40703e+07
1.42008e+07
-996724
-6.1785e+07
2.03488e+07
-1.01433e+06
-5.80893e+07
2.51748e+07
-1.01122e+06
-5.36659e+07
2.88365e+07
-992194
-4.89656e+07
3.15074e+07
-965034
-4.42817e+07
3.33705e+07
-928040
-3.97816e+07
3.45867e+07
-886161
-3.55676e+07
3.53067e+07
-837030
-3.1682e+07
3.56508e+07
-785555
-2.8145e+07
3.57327e+07
-729084
-2.49483e+07
3.56399e+07
-671865
-2.20815e+07
3.54636e+07
-610120
-1.95179e+07
3.52766e+07
-547061
-1.72374e+07
3.51666e+07
-477708
-1.52121e+07
3.52263e+07
-402490
-1.34157e+07
3.55937e+07
-311069
-1.18096e+07
3.64221e+07
-198769
-1.03501e+07
3.7835e+07
-61134.3
-8.98299e+06
3.97898e+07
82740.3
-7.67434e+06
4.19672e+07
192881
-6.41851e+06
4.36749e+07
204643
-5.2345e+06
4.39046e+07
49844
-4.14583e+06
4.18157e+07
-286623
-3.15421e+06
3.78251e+07
-659634
-2.23551e+06
3.42663e+07
-735967
-1.34834e+06
-325415
-453819
9.89206e+06
105108
9.39487e+06
1.05464e+06
8.87364e+06
1.09945e+06
8.31194e+06
1.18272e+06
7.69307e+06
1.30692e+06
6.99823e+06
1.47627e+06
6.20752e+06
1.69486e+06
5.29749e+06
1.96617e+06
4.23544e+06
2.29293e+06
2.96802e+06
2.67424e+06
1.40697e+06
3.10377e+06
-560384
3.56243e+06
-3.04701e+06
4.00219e+06
-6.12372e+06
4.32861e+06
-9.83784e+06
4.3892e+06
-1.41678e+07
3.99952e+06
-1.90621e+07
2.94445e+06
-2.43196e+07
967091
-2.96075e+07
-2.22508e+06
-3.43556e+07
-7.04215e+06
-3.77342e+07
-1.38253e+07
-3.87035e+07
-2.27233e+07
-3.64543e+07
-3.32995e+07
-3.06946e+07
-4.43204e+07
-2.21472e+07
-5.39463e+07
-1.22246e+07
-6.07068e+07
-2.3384e+06
-6.39382e+07
6.59609e+06
-6.39994e+07
1.41832e+07
-6.17534e+07
2.03519e+07
-5.80778e+07
2.51939e+07
-5.36582e+07
2.88637e+07
-4.89555e+07
3.15443e+07
-4.42654e+07
3.34124e+07
-3.97604e+07
3.46358e+07
-3.55413e+07
3.53582e+07
-3.1653e+07
3.57072e+07
-2.81135e+07
3.57899e+07
-2.49166e+07
3.57016e+07
-2.20496e+07
3.55266e+07
-1.9488e+07
3.53459e+07
-1.72092e+07
3.52418e+07
-1.51872e+07
3.53178e+07
-1.33924e+07
3.5706e+07
-1.17867e+07
3.65597e+07
-1.03265e+07
3.79789e+07
-8.96024e+06
3.98999e+07
-7.65926e+06
4.1979e+07
-6.41735e+06
4.35201e+07
-5.25183e+06
4.35682e+07
-4.17839e+06
4.14426e+07
-3.19489e+06
3.77488e+07
-2.27314e+06
3.46768e+07
-1.37474e+06
-462499
9.89783e+06
-5177.03
116117
9.44175e+06
-58695.6
1.18963e+06
8.96042e+06
-60765.7
1.24356e+06
8.44159e+06
-64321.3
1.34032e+06
7.86948e+06
-69597.9
1.48426e+06
7.2258e+06
-76713.2
1.68097e+06
6.49056e+06
-85834.4
1.93481e+06
5.63908e+06
-97343.4
2.25074e+06
4.63777e+06
-112145
2.63248e+06
3.4301e+06
-133075
3.0808e+06
1.91873e+06
-165505
3.59248e+06
-45588.3
-218490
4.15387e+06
-2.62955e+06
-292885
4.73752e+06
-5.9653e+06
-383459
5.25689e+06
-1.01206e+07
-480052
5.57779e+06
-1.51415e+07
-585503
5.41749e+06
-2.08965e+07
-664922
4.62944e+06
-2.74515e+07
-805509
2.66937e+06
-3.4301e+07
-864451
-561345
-4.11992e+07
-990140
-6.01938e+06
-4.66034e+07
-939226
-1.38274e+07
-4.95882e+07
-986473
-2.52315e+07
-4.75073e+07
-708455
-3.89616e+07
-4.05498e+07
-710013
-5.42582e+07
-2.88315e+07
-513457
-6.74487e+07
-1.53306e+07
-609882
-7.65742e+07
-2.24268e+06
-732732
-8.01861e+07
8.95553e+06
-873024
-7.92377e+07
1.79162e+07
-964961
-7.53229e+07
2.47889e+07
-1.00274e+06
-6.98254e+07
2.98844e+07
-1.00356e+06
-6.36941e+07
3.35271e+07
-982093
-5.74797e+07
3.60091e+07
-948777
-5.14977e+07
3.75869e+07
-906859
-4.59011e+07
3.84716e+07
-859872
-4.07659e+07
3.88442e+07
-808068
-3.6111e+07
3.88459e+07
-754051
-3.19295e+07
3.85995e+07
-697388
-2.81963e+07
3.82029e+07
-639973
-2.48825e+07
3.7744e+07
-580208
-2.19457e+07
3.73022e+07
-518839
-1.93566e+07
3.69628e+07
-452753
-1.70747e+07
3.68309e+07
-379189
-1.50648e+07
3.70539e+07
-288229
-1.32755e+07
3.77888e+07
-175152
-1.16597e+07
3.91436e+07
-38385.5
-1.01576e+07
4.10456e+07
97824.2
-8.74605e+06
4.31512e+07
194038
-7.41672e+06
4.47636e+07
187308
-6.1861e+06
4.48963e+07
17280.1
-5.05306e+06
4.27344e+07
-327306
-3.98915e+06
3.87122e+07
-697267
-2.93264e+06
3.51608e+07
-762367
-1.82063e+06
-334094
-621755
9.89402e+06
117083
9.43968e+06
1.19935e+06
8.95687e+06
1.25069e+06
8.43631e+06
1.34719e+06
7.86237e+06
1.49182e+06
7.21668e+06
1.68956e+06
6.47905e+06
1.94443e+06
5.62428e+06
2.26131e+06
4.61685e+06
2.64331e+06
3.39767e+06
3.09199e+06
1.86577e+06
3.60161e+06
-119970
4.16132e+06
-2.72009e+06
4.73285e+06
-6.06186e+06
5.23603e+06
-1.0226e+07
5.51526e+06
-1.52209e+07
5.3611e+06
-2.10371e+07
4.48041e+06
-2.75104e+07
2.58076e+06
-3.44267e+07
-794617
-4.11483e+07
-6.17571e+06
-4.66507e+07
-1.42275e+07
-4.931e+07
-2.53733e+07
-4.75088e+07
-3.93028e+07
-4.0353e+07
-5.41201e+07
-2.8928e+07
-6.73042e+07
-1.54536e+07
-7.62668e+07
-2.38302e+06
-7.98707e+07
8.86364e+06
-7.89572e+07
1.78784e+07
-7.50887e+07
2.47882e+07
-6.96347e+07
2.99059e+07
-6.35347e+07
3.35604e+07
-5.73426e+07
3.6051e+07
-5.13749e+07
3.76339e+07
-4.57903e+07
3.85234e+07
-4.06638e+07
3.88983e+07
-3.60181e+07
3.89025e+07
-3.18436e+07
3.8657e+07
-2.81186e+07
3.82626e+07
-2.48111e+07
3.78054e+07
-2.18821e+07
3.73683e+07
-1.92993e+07
3.70364e+07
-1.70247e+07
3.69219e+07
-1.50184e+07
3.7167e+07
-1.32334e+07
3.79255e+07
-1.16182e+07
3.92799e+07
-1.01235e+07
4.11418e+07
-8.7226e+06
4.31445e+07
-7.41276e+06
4.45935e+07
-6.20145e+06
4.45517e+07
-5.08441e+06
4.23644e+07
-4.02615e+06
3.86471e+07
-2.96682e+06
3.55891e+07
-1.84381e+06
-630346
9.91347e+06
-4211.21
132400
9.49567e+06
-48980.1
1.32832e+06
9.05713e+06
-53636.6
1.38418e+06
8.58581e+06
-57453.9
1.49351e+06
8.06583e+06
-62041.1
1.65788e+06
7.47965e+06
-68125.3
1.88249e+06
6.80677e+06
-76206.7
2.1719e+06
6.02107e+06
-86778.8
2.53264e+06
5.08569e+06
-101314
2.96868e+06
3.94224e+06
-121890
3.48381e+06
2.48031e+06
-156389
4.07669e+06
538414
-211045
4.74452e+06
-2.10965e+06
-297575
5.46549e+06
-5.64301e+06
-404350
6.18715e+06
-1.02788e+07
-542624
6.75804e+06
-1.59261e+07
-641939
7.00349e+06
-2.28528e+07
-814044
6.50783e+06
-3.06788e+07
-894202
4.99843e+06
-3.97593e+07
-1.0979e+06
1.80285e+06
-4.90163e+07
-1.14657e+06
-3.69789e+06
-5.80364e+07
-1.33971e+06
-1.28258e+07
-6.33668e+07
-1.12835e+06
-2.64471e+07
-6.28656e+07
-1.05017e+06
-4.46854e+07
-5.37975e+07
-571630
-6.51376e+07
-3.79901e+07
-368469
-8.35778e+07
-1.8931e+07
-301728
-9.53942e+07
-1.26043e+06
-416564
-9.88136e+07
1.2911e+07
-592024
-9.5804e+07
2.34445e+07
-730441
-8.92396e+07
3.09449e+07
-811885
-8.12343e+07
3.61101e+07
-844095
-7.29739e+07
3.95161e+07
-844984
-6.50304e+07
4.1608e+07
-825971
-5.7657e+07
4.27227e+07
-796102
-5.09471e+07
4.31269e+07
-757779
-4.49171e+07
4.3024e+07
-715127
-3.9546e+07
4.25782e+07
-668094
-3.47865e+07
4.19145e+07
-619644
-3.05913e+07
4.11374e+07
-568577
-2.69033e+07
4.03341e+07
-516713
-2.36723e+07
3.95847e+07
-461517
-2.08457e+07
3.89727e+07
-402829
-1.83788e+07
3.86192e+07
-332854
-1.62218e+07
3.86706e+07
-246172
-1.432e+07
3.92904e+07
-133696
-1.2618e+07
4.05552e+07
-4317.3
-1.10679e+07
4.23749e+07
121276
-9.64708e+06
4.43819e+07
197997
-8.35089e+06
4.58966e+07
171957
-7.17657e+06
4.59602e+07
-14071.9
-6.09103e+06
4.37909e+07
-364298
-5.01526e+06
3.98243e+07
-731442
-3.83741e+06
3.63597e+07
-785549
-2.45687e+06
-342686
-854490
9.9097e+06
132240
9.49102e+06
1.32814e+06
9.05332e+06
1.38757e+06
8.58122e+06
1.49806e+06
8.05974e+06
1.66284e+06
7.47156e+06
1.88769e+06
6.7962e+06
2.17731e+06
6.00654e+06
2.53805e+06
5.06512e+06
2.97412e+06
3.90774e+06
3.4887e+06
2.42567e+06
4.08162e+06
451918
4.74792e+06
-2.21638e+06
5.46476e+06
-5.78124e+06
6.17113e+06
-1.0378e+07
6.7361e+06
-1.60982e+07
6.93442e+06
-2.2933e+07
6.46491e+06
-3.08826e+07
4.93221e+06
-3.9808e+07
1.75714e+06
-4.92096e+07
-3.81375e+06
-5.7825e+07
-1.29386e+07
-6.32885e+07
-2.67102e+07
-6.23864e+07
-4.48188e+07
-5.35941e+07
-6.52134e+07
-3.79234e+07
-8.34225e+07
-1.90459e+07
-9.50001e+07
-1.43594e+06
-9.84231e+07
1.27727e+07
-9.54971e+07
2.33632e+07
-8.89916e+07
3.09128e+07
-8.10056e+07
3.61092e+07
-7.27491e+07
3.95351e+07
-6.48066e+07
4.16378e+07
-5.74375e+07
4.2761e+07
-5.07343e+07
4.31695e+07
-4.4714e+07
4.3071e+07
-3.93535e+07
4.26266e+07
-3.46061e+07
4.19655e+07
-3.04229e+07
4.11893e+07
-2.67477e+07
4.03893e+07
-2.35289e+07
3.96434e+07
-2.07149e+07
3.90426e+07
-1.8259e+07
3.87058e+07
-1.61121e+07
3.8783e+07
-1.4219e+07
3.94197e+07
-1.25272e+07
4.06808e+07
-1.09931e+07
4.24517e+07
-9.59445e+06
4.43558e+07
-8.32588e+06
4.57106e+07
-7.17685e+06
4.56099e+07
-6.1085e+06
4.34237e+07
-5.03894e+06
3.97702e+07
-3.85693e+06
3.68025e+07
-2.4655e+06
-855344
9.91584e+06
-4370.89
139602
9.55153e+06
-49164.2
1.43207e+06
9.1664e+06
-50252.2
1.50023e+06
8.75042e+06
-52900.6
1.62256e+06
8.29018e+06
-57087.3
1.80461e+06
7.76929e+06
-62925.5
2.0533e+06
7.1672e+06
-70800.6
2.3744e+06
6.45718e+06
-81371.5
2.77571e+06
5.60083e+06
-95874
3.2639e+06
4.53511e+06
-116996
3.84566e+06
3.14821e+06
-151470
4.52512e+06
1.25957e+06
-207650
5.31199e+06
-1.38748e+06
-298318
6.20039e+06
-5.07083e+06
-420404
7.17872e+06
-1.0031e+07
-564625
8.15044e+06
-1.64175e+07
-711079
8.94914e+06
-2.43556e+07
-857059
9.18711e+06
-3.38661e+07
-960517
8.55947e+06
-4.52549e+07
-1.14363e+06
6.14416e+06
-5.81513e+07
-1.26247e+06
1.14906e+06
-7.16917e+07
-1.45241e+06
-8.80694e+06
-8.16814e+07
-1.39162e+06
-2.51572e+07
-8.34222e+07
-1.18342e+06
-4.9476e+07
-7.23408e+07
-647409
-7.82551e+07
-4.98555e+07
-212674
-1.04408e+08
-2.23138e+07
93428.5
-1.2016e+08
1.81998e+06
-25163.1
-1.21587e+08
1.95454e+07
-284527
-1.14238e+08
3.14966e+07
-482047
-1.03297e+08
3.92354e+07
-583033
-9.17454e+07
4.40684e+07
-619127
-8.08202e+07
4.68967e+07
-621178
-7.09133e+07
4.83179e+07
-606514
-6.20824e+07
4.87499e+07
-583358
-5.42829e+07
4.84961e+07
-554743
-4.74335e+07
4.77798e+07
-522638
-4.14426e+07
4.6772e+07
-487745
-3.62167e+07
4.55999e+07
-451199
-3.16705e+07
4.43683e+07
-412982
-2.77255e+07
4.31589e+07
-373254
-2.43068e+07
4.20499e+07
-330737
-2.13507e+07
4.113e+07
-283053
-1.88005e+07
4.05203e+07
-223220
-1.65969e+07
4.0373e+07
-145169
-1.46857e+07
4.08399e+07
-42964.5
-1.30124e+07
4.19761e+07
70516.2
-1.15432e+07
4.36711e+07
173908
-1.02534e+07
4.55562e+07
223011
-9.13617e+06
4.69822e+07
171681
-8.1562e+06
4.70359e+07
-31548.1
-7.23911e+06
4.49687e+07
-387975
-6.24506e+06
4.12048e+07
-750961
-4.98948e+06
3.7962e+07
-794177
-3.30602e+06
-343539
-1.17427e+06
9.91284e+06
140851
9.55044e+06
1.44465e+06
9.16375e+06
1.50987e+06
8.74623e+06
1.63194e+06
8.28435e+06
1.81485e+06
7.76142e+06
2.06473e+06
7.15663e+06
2.38717e+06
6.44268e+06
2.78966e+06
5.57971e+06
3.27918e+06
4.50065e+06
3.86131e+06
3.09206e+06
4.54294e+06
1.16894e+06
5.32831e+06
-1.5095e+06
6.21837e+06
-5.21497e+06
7.18314e+06
-1.01774e+07
8.13729e+06
-1.65634e+07
8.88375e+06
-2.4459e+07
9.13188e+06
-3.40493e+07
8.39096e+06
-4.53739e+07
6.02387e+06
-5.83416e+07
802806
-7.16311e+07
-9.16845e+06
-8.1473e+07
-2.5804e+07
-8.28851e+07
-4.99771e+07
-7.19052e+07
-7.84665e+07
-4.95489e+07
-1.04192e+08
-2.24326e+07
-1.1968e+08
1.56049e+06
-1.20927e+08
1.9348e+07
-1.13493e+08
3.13957e+07
-1.02583e+08
3.91994e+07
-9.11062e+07
4.40664e+07
-8.02486e+07
4.69114e+07
-7.0397e+07
4.8341e+07
-6.1614e+07
4.87784e+07
-5.38573e+07
4.85282e+07
-4.70473e+07
4.78147e+07
-4.10921e+07
4.68085e+07
-3.58994e+07
4.56381e+07
-3.13831e+07
4.44081e+07
-2.74659e+07
4.32014e+07
-2.40726e+07
4.20976e+07
-2.11404e+07
4.11898e+07
-1.86108e+07
4.05984e+07
-1.64273e+07
4.04752e+07
-1.45323e+07
4.09534e+07
-1.28804e+07
4.20794e+07
-1.1432e+07
4.37202e+07
-1.01706e+07
4.55048e+07
-9.0781e+06
4.67789e+07
-8.11913e+06
4.66795e+07
-7.21233e+06
4.46057e+07
-6.21937e+06
4.11616e+07
-4.95873e+06
3.84127e+07
-3.27945e+06
-1.16239e+06
9.93565e+06
-3122.39
153797
9.6197e+06
-36584.4
1.5441e+06
9.28866e+06
-40614.9
1.61218e+06
8.9327e+06
-43516
1.74495e+06
8.53861e+06
-46853.9
1.94451e+06
8.09054e+06
-51493.1
2.21726e+06
7.56848e+06
-58025
2.56957e+06
6.94515e+06
-67414.7
3.01052e+06
6.18248e+06
-80596.6
3.54939e+06
5.21482e+06
-101350
4.19549e+06
3.9347e+06
-133649
4.96256e+06
2.14778e+06
-191346
5.86636e+06
-408884
-280368
6.93278e+06
-4.09859e+06
-416023
8.17515e+06
-9.22997e+06
-577828
9.57931e+06
-1.61746e+07
-776566
1.10094e+07
-2.49745e+07
-912396
1.22943e+07
-3.62672e+07
-1.12918e+06
1.288e+07
-5.02324e+07
-1.26403e+06
1.21826e+07
-6.81e+07
-1.60893e+06
8.45307e+06
-8.80755e+07
-1.81401e+06
-743049
-1.06115e+08
-2.03903e+06
-1.99817e+07
-1.12389e+08
-1.685e+06
-5.21171e+07
-9.86861e+07
-859029
-9.46312e+07
-6.56755e+07
4173.86
-1.35938e+08
-2.36367e+07
575101
-1.56349e+08
9.31477e+06
636732
-1.52279e+08
3.05946e+07
462027
-1.35707e+08
4.31164e+07
232646
-1.17361e+08
5.01916e+07
56599.4
-1.00974e+08
5.39896e+07
-47303.6
-8.69823e+07
5.5727e+07
-104782
-7.50559e+07
5.61128e+07
-138041
-6.48443e+07
5.55951e+07
-157724
-5.60723e+07
5.44834e+07
-168546
-4.85324e+07
5.30015e+07
-172213
-4.20511e+07
5.13139e+07
-170402
-3.64836e+07
4.95443e+07
-163794
-3.17057e+07
4.77853e+07
-153473
-2.76122e+07
4.61137e+07
-139087
-2.41083e+07
4.45999e+07
-120462
-2.11176e+07
4.33334e+07
-93342.6
-1.85722e+07
4.24308e+07
-53636
-1.64119e+07
4.20468e+07
8228.94
-1.45793e+07
4.23085e+07
89034.7
-1.30363e+07
4.32658e+07
181697
-1.1749e+07
4.47884e+07
256780
-1.0702e+07
4.65361e+07
281080
-9.86958e+06
4.78992e+07
208753
-9.19689e+06
4.803e+07
-4760.4
-8.57051e+06
4.62243e+07
-362282
-7.79081e+06
4.28883e+07
-720212
-6.57199e+06
4.00938e+07
-767607
-4.60858e+06
-331665
-1.72622e+06
9.93271e+06
153637
9.61567e+06
1.54417e+06
9.28576e+06
1.6162e+06
8.92936e+06
1.75015e+06
8.53398e+06
1.94993e+06
8.08401e+06
2.22268e+06
7.55909e+06
2.57485e+06
6.93197e+06
3.01563e+06
6.16173e+06
3.55398e+06
5.18253e+06
4.20028e+06
3.87704e+06
4.96722e+06
2.05882e+06
5.87339e+06
-544445
6.94129e+06
-4.26028e+06
8.18353e+06
-9.42854e+06
9.57474e+06