/*--------------------------------*- C++ -*----------------------------------*\
| =========                 |                                                 |
| \\      /  F ield         | OpenFOAM: The Open Source CFD Toolbox           |
|  \\    /   O peration     | Version:  4.1                                   |
|   \\  /    A nd           | Web:      www.OpenFOAM.org                      |
|    \\/     M anipulation  |                                                 |
\*---------------------------------------------------------------------------*/
FoamFile
{
    version     2.0;
    format      ascii;
    class       volScalarField;
    location    "48";
    object      p;
}
// * * * * * * * * * * * * * * * * * * * * * * * * * * * * * * * * * * * * * //

dimensions      [0 2 -2 0 0 0 0];

internalField   nonuniform List<scalar> 
4432
(
-3.88596e+10
-4.10764e+10
-4.18103e+10
-3.9113e+10
-3.87018e+10
-3.9222e+10
-3.89462e+10
-3.87154e+10
-3.85629e+10
-3.84761e+10
-3.83883e+10
-3.82734e+10
-3.81296e+10
-3.79729e+10
-3.78332e+10
-3.7708e+10
-3.75651e+10
-3.74027e+10
-3.7227e+10
-3.70419e+10
-3.68446e+10
-3.66374e+10
-3.64223e+10
-3.62021e+10
-3.59796e+10
-3.5758e+10
-3.55401e+10
-3.53286e+10
-3.51257e+10
-3.49339e+10
-3.47559e+10
-3.45957e+10
-3.44582e+10
-3.43478e+10
-3.42681e+10
-3.42208e+10
-3.42029e+10
-3.42049e+10
-3.42094e+10
-3.41923e+10
-3.41259e+10
-3.39846e+10
-3.37548e+10
-3.34494e+10
-3.31256e+10
-3.28763e+10
-3.2759e+10
-3.26862e+10
-3.24917e+10
-3.25747e+10
-3.4919e+10
-4.15391e+10
-4.62434e+10
-2.44702e+10
-3.94364e+10
-4.02223e+10
-4.06065e+10
-3.98977e+10
-3.88252e+10
-3.90468e+10
-3.89311e+10
-3.86882e+10
-3.85402e+10
-3.84788e+10
-3.84027e+10
-3.8281e+10
-3.81282e+10
-3.79733e+10
-3.78393e+10
-3.77159e+10
-3.75708e+10
-3.74068e+10
-3.72327e+10
-3.7048e+10
-3.68506e+10
-3.66431e+10
-3.64274e+10
-3.62066e+10
-3.59835e+10
-3.57614e+10
-3.55431e+10
-3.53315e+10
-3.51288e+10
-3.49376e+10
-3.47603e+10
-3.46007e+10
-3.44635e+10
-3.43533e+10
-3.42739e+10
-3.42266e+10
-3.42078e+10
-3.42078e+10
-3.4209e+10
-3.41869e+10
-3.41134e+10
-3.39628e+10
-3.37209e+10
-3.34004e+10
-3.30566e+10
-3.27783e+10
-3.26133e+10
-3.24508e+10
-3.20784e+10
-3.18463e+10
-3.38384e+10
-4.09481e+10
-4.81869e+10
-3.00281e+10
-3.96811e+10
-3.97562e+10
-3.98152e+10
-4.00191e+10
-3.90055e+10
-3.88075e+10
-3.88951e+10
-3.86912e+10
-3.85378e+10
-3.84775e+10
-3.84007e+10
-3.83047e+10
-3.81729e+10
-3.80102e+10
-3.78558e+10
-3.7731e+10
-3.76011e+10
-3.74435e+10
-3.7269e+10
-3.70803e+10
-3.68785e+10
-3.66647e+10
-3.64415e+10
-3.62123e+10
-3.59807e+10
-3.57507e+10
-3.55253e+10
-3.53076e+10
-3.51002e+10
-3.49054e+10
-3.47254e+10
-3.45641e+10
-3.44268e+10
-3.43163e+10
-3.42329e+10
-3.41783e+10
-3.41497e+10
-3.41374e+10
-3.41245e+10
-3.40866e+10
-3.39953e+10
-3.38248e+10
-3.35609e+10
-3.32148e+10
-3.28389e+10
-3.25196e+10
-3.22875e+10
-3.1992e+10
-3.14293e+10
-3.11771e+10
-3.36953e+10
-4.1221e+10
-4.63909e+10
-2.65728e+10
-3.97137e+10
-4.00183e+10
-4.00607e+10
-3.9685e+10
-3.89772e+10
-3.88287e+10
-3.89009e+10
-3.86696e+10
-3.85386e+10
-3.84794e+10
-3.84118e+10
-3.83139e+10
-3.81751e+10
-3.80094e+10
-3.78605e+10
-3.77447e+10
-3.76137e+10
-3.74512e+10
-3.7278e+10
-3.70901e+10
-3.68887e+10
-3.66749e+10
-3.64514e+10
-3.62217e+10
-3.59896e+10
-3.57589e+10
-3.55328e+10
-3.53147e+10
-3.5107e+10
-3.49125e+10
-3.47333e+10
-3.45723e+10
-3.44335e+10
-3.43207e+10
-3.42365e+10
-3.41811e+10
-3.41505e+10
-3.41357e+10
-3.41197e+10
-3.40786e+10
-3.39844e+10
-3.38119e+10
-3.35478e+10
-3.32035e+10
-3.28315e+10
-3.25134e+10
-3.22755e+10
-3.19609e+10
-3.13517e+10
-3.1106e+10
-3.4183e+10
-4.32976e+10
-4.80197e+10
-2.38413e+10
-4.04569e+10
-4.00086e+10
-3.92242e+10
-3.98129e+10
-3.91879e+10
-3.87509e+10
-3.86242e+10
-3.85198e+10
-3.84532e+10
-3.84123e+10
-3.83504e+10
-3.82754e+10
-3.81551e+10
-3.79954e+10
-3.78439e+10
-3.7717e+10
-3.75849e+10
-3.74295e+10
-3.72588e+10
-3.70703e+10
-3.68653e+10
-3.66448e+10
-3.64116e+10
-3.61698e+10
-3.59238e+10
-3.56782e+10
-3.54373e+10
-3.5205e+10
-3.49854e+10
-3.47818e+10
-3.45958e+10
-3.44279e+10
-3.42809e+10
-3.4162e+10
-3.40742e+10
-3.40144e+10
-3.39791e+10
-3.39579e+10
-3.39343e+10
-3.38843e+10
-3.37817e+10
-3.36054e+10
-3.33491e+10
-3.30326e+10
-3.2717e+10
-3.2487e+10
-3.23566e+10
-3.21382e+10
-3.15701e+10
-3.12069e+10
-3.35635e+10
-4.09759e+10
-4.6201e+10
-2.44138e+10
-4.00732e+10
-4.01719e+10
-3.97932e+10
-3.92486e+10
-3.90636e+10
-3.88642e+10
-3.86916e+10
-3.85202e+10
-3.84667e+10
-3.84172e+10
-3.83519e+10
-3.82686e+10
-3.81466e+10
-3.79899e+10
-3.78417e+10
-3.77236e+10
-3.75913e+10
-3.74343e+10
-3.72648e+10
-3.70784e+10
-3.68756e+10
-3.66571e+10
-3.6426e+10
-3.61862e+10
-3.59421e+10
-3.56983e+10
-3.5459e+10
-3.52282e+10
-3.50098e+10
-3.48072e+10
-3.46221e+10
-3.44561e+10
-3.4312e+10
-3.41942e+10
-3.41051e+10
-3.4045e+10
-3.40089e+10
-3.3987e+10
-3.39628e+10
-3.39121e+10
-3.38077e+10
-3.36277e+10
-3.33638e+10
-3.30327e+10
-3.26881e+10
-3.24037e+10
-3.21788e+10
-3.18011e+10
-3.09838e+10
-3.03325e+10
-3.26317e+10
-4.06957e+10
-4.80476e+10
-2.98508e+10
-3.97255e+10
-3.98284e+10
-3.95085e+10
-3.92168e+10
-3.91583e+10
-3.8919e+10
-3.86972e+10
-3.8534e+10
-3.84579e+10
-3.84077e+10
-3.83476e+10
-3.82804e+10
-3.81768e+10
-3.8042e+10
-3.79112e+10
-3.77916e+10
-3.76587e+10
-3.75049e+10
-3.73352e+10
-3.71459e+10
-3.69357e+10
-3.67049e+10
-3.64567e+10
-3.61964e+10
-3.59304e+10
-3.56652e+10
-3.54069e+10
-3.51612e+10
-3.49333e+10
-3.47273e+10
-3.45433e+10
-3.43768e+10
-3.42285e+10
-3.41151e+10
-3.40433e+10
-3.39927e+10
-3.39619e+10
-3.39442e+10
-3.39193e+10
-3.38628e+10
-3.37485e+10
-3.35581e+10
-3.3289e+10
-3.29657e+10
-3.26528e+10
-3.24327e+10
-3.23129e+10
-3.20985e+10
-3.14923e+10
-3.09352e+10
-3.28344e+10
-4.00017e+10
-4.60297e+10
-2.47678e+10
-3.97445e+10
-3.96268e+10
-3.92749e+10
-3.89632e+10
-3.91345e+10
-3.90485e+10
-3.87448e+10
-3.85318e+10
-3.84599e+10
-3.84007e+10
-3.83408e+10
-3.82692e+10
-3.81658e+10
-3.80377e+10
-3.79146e+10
-3.77996e+10
-3.76664e+10
-3.75138e+10
-3.73459e+10
-3.71587e+10
-3.69505e+10
-3.67215e+10
-3.6475e+10
-3.62162e+10
-3.59517e+10
-3.56881e+10
-3.54312e+10
-3.51865e+10
-3.49585e+10
-3.47511e+10
-3.45659e+10
-3.44028e+10
-3.4264e+10
-3.41536e+10
-3.40737e+10
-3.40244e+10
-3.39979e+10
-3.39813e+10
-3.39587e+10
-3.39046e+10
-3.37918e+10
-3.36004e+10
-3.33257e+10
-3.29885e+10
-3.26455e+10
-3.23705e+10
-3.21589e+10
-3.17952e+10
-3.09874e+10
-3.03829e+10
-3.2997e+10
-4.17925e+10
-4.78359e+10
-2.52776e+10
-3.91837e+10
-3.91778e+10
-3.913e+10
-3.88628e+10
-3.89063e+10
-3.8802e+10
-3.86336e+10
-3.84876e+10
-3.84191e+10
-3.83866e+10
-3.83352e+10
-3.82514e+10
-3.81512e+10
-3.80381e+10
-3.79304e+10
-3.78196e+10
-3.76912e+10
-3.75432e+10
-3.73759e+10
-3.71858e+10
-3.69695e+10
-3.67255e+10
-3.64573e+10
-3.61712e+10
-3.58774e+10
-3.55851e+10
-3.5303e+10
-3.50381e+10
-3.47957e+10
-3.45785e+10
-3.43862e+10
-3.4216e+10
-3.40696e+10
-3.39573e+10
-3.38829e+10
-3.38369e+10
-3.38116e+10
-3.37953e+10
-3.37675e+10
-3.37027e+10
-3.35751e+10
-3.33653e+10
-3.30705e+10
-3.27157e+10
-3.23629e+10
-3.20895e+10
-3.19004e+10
-3.15951e+10
-3.08326e+10
-2.98831e+10
-3.09886e+10
-3.77935e+10
-4.63901e+10
-3.1664e+10
-3.93134e+10
-3.9111e+10
-3.88602e+10
-3.87223e+10
-3.89205e+10
-3.88706e+10
-3.86744e+10
-3.85092e+10
-3.84167e+10
-3.83656e+10
-3.83176e+10
-3.82458e+10
-3.81497e+10
-3.80419e+10
-3.79384e+10
-3.78302e+10
-3.77024e+10
-3.75552e+10
-3.73888e+10
-3.71993e+10
-3.6983e+10
-3.67388e+10
-3.64695e+10
-3.61824e+10
-3.5887e+10
-3.55932e+10
-3.53092e+10
-3.50415e+10
-3.47944e+10
-3.45712e+10
-3.43738e+10
-3.42026e+10
-3.40576e+10
-3.3943e+10
-3.38615e+10
-3.3811e+10
-3.37842e+10
-3.37672e+10
-3.37405e+10
-3.36787e+10
-3.35559e+10
-3.33526e+10
-3.30654e+10
-3.27194e+10
-3.23763e+10
-3.21134e+10
-3.19357e+10
-3.16403e+10
-3.09176e+10
-3.03063e+10
-3.26951e+10
-4.12464e+10
-4.76571e+10
-2.46808e+10
-3.90142e+10
-3.88961e+10
-3.88086e+10
-3.87201e+10
-3.87557e+10
-3.8711e+10
-3.85951e+10
-3.84711e+10
-3.83966e+10
-3.83771e+10
-3.83576e+10
-3.8284e+10
-3.81915e+10
-3.80995e+10
-3.80086e+10
-3.79069e+10
-3.77869e+10
-3.76466e+10
-3.74849e+10
-3.72971e+10
-3.70769e+10
-3.68207e+10
-3.65299e+10
-3.62148e+10
-3.58902e+10
-3.55712e+10
-3.52692e+10
-3.49908e+10
-3.47396e+10
-3.45165e+10
-3.43211e+10
-3.41535e+10
-3.40168e+10
-3.39134e+10
-3.38421e+10
-3.38009e+10
-3.37833e+10
-3.37756e+10
-3.37572e+10
-3.37037e+10
-3.35905e+10
-3.33994e+10
-3.31286e+10
-3.28046e+10
-3.249e+10
-3.22648e+10
-3.21459e+10
-3.1955e+10
-3.13658e+10
-3.06591e+10
-3.20878e+10
-3.89501e+10
-4.64999e+10
-2.66804e+10
-3.90408e+10
-3.89147e+10
-3.87774e+10
-3.86839e+10
-3.87723e+10
-3.87128e+10
-3.85916e+10
-3.84916e+10
-3.84188e+10
-3.83807e+10
-3.83419e+10
-3.82741e+10
-3.81875e+10
-3.80983e+10
-3.80083e+10
-3.79068e+10
-3.77866e+10
-3.76471e+10
-3.74864e+10
-3.72999e+10
-3.70816e+10
-3.68274e+10
-3.65393e+10
-3.6227e+10
-3.59047e+10
-3.55871e+10
-3.52852e+10
-3.50063e+10
-3.47537e+10
-3.45281e+10
-3.43302e+10
-3.41607e+10
-3.40201e+10
-3.39111e+10
-3.38348e+10
-3.37888e+10
-3.37666e+10
-3.37551e+10
-3.37339e+10
-3.36787e+10
-3.35653e+10
-3.33753e+10
-3.31075e+10
-3.27894e+10
-3.24857e+10
-3.2279e+10
-3.21894e+10
-3.20402e+10
-3.15287e+10
-3.10686e+10
-3.32411e+10
-4.11365e+10
-4.7828e+10
-2.57698e+10
-3.87057e+10
-3.86259e+10
-3.85721e+10
-3.85938e+10
-3.86151e+10
-3.85972e+10
-3.85222e+10
-3.84268e+10
-3.83698e+10
-3.83611e+10
-3.83369e+10
-3.82779e+10
-3.82092e+10
-3.81397e+10
-3.8063e+10
-3.79715e+10
-3.78601e+10
-3.77265e+10
-3.75695e+10
-3.73832e+10
-3.71581e+10
-3.6884e+10
-3.65599e+10
-3.62015e+10
-3.58321e+10
-3.54755e+10
-3.51471e+10
-3.48547e+10
-3.45992e+10
-3.43772e+10
-3.41858e+10
-3.40248e+10
-3.38962e+10
-3.38e+10
-3.37334e+10
-3.36944e+10
-3.36776e+10
-3.36711e+10
-3.36567e+10
-3.36118e+10
-3.35136e+10
-3.3346e+10
-3.311e+10
-3.28344e+10
-3.2583e+10
-3.24393e+10
-3.24319e+10
-3.24059e+10
-3.20719e+10
-3.17959e+10
-3.40221e+10
-4.1667e+10
-4.80869e+10
-2.56166e+10
-3.86641e+10
-3.86133e+10
-3.86544e+10
-3.86323e+10
-3.86059e+10
-3.85439e+10
-3.84852e+10
-3.84283e+10
-3.83868e+10
-3.83585e+10
-3.83202e+10
-3.8264e+10
-3.81984e+10
-3.81295e+10
-3.80528e+10
-3.79606e+10
-3.78485e+10
-3.77149e+10
-3.75575e+10
-3.73712e+10
-3.71461e+10
-3.68722e+10
-3.65493e+10
-3.61919e+10
-3.58241e+10
-3.54684e+10
-3.51408e+10
-3.48495e+10
-3.45957e+10
-3.4377e+10
-3.419e+10
-3.40333e+10
-3.39079e+10
-3.38141e+10
-3.37508e+10
-3.37155e+10
-3.37019e+10
-3.36979e+10
-3.36852e+10
-3.36407e+10
-3.35411e+10
-3.33698e+10
-3.31264e+10
-3.28388e+10
-3.25701e+10
-3.24014e+10
-3.23567e+10
-3.22722e+10
-3.1844e+10
-3.13824e+10
-3.32253e+10
-4.07855e+10
-4.92429e+10
-3.13305e+10
-3.84916e+10
-3.84277e+10
-3.8442e+10
-3.85273e+10
-3.85615e+10
-3.85151e+10
-3.84348e+10
-3.83618e+10
-3.83422e+10
-3.83552e+10
-3.83332e+10
-3.82892e+10
-3.82431e+10
-3.81945e+10
-3.81366e+10
-3.80623e+10
-3.7966e+10
-3.78453e+10
-3.76986e+10
-3.75219e+10
-3.7301e+10
-3.70145e+10
-3.66551e+10
-3.62419e+10
-3.58151e+10
-3.54099e+10
-3.50483e+10
-3.47385e+10
-3.44784e+10
-3.426e+10
-3.40767e+10
-3.39255e+10
-3.38034e+10
-3.37088e+10
-3.36408e+10
-3.3597e+10
-3.3571e+10
-3.35506e+10
-3.35181e+10
-3.34516e+10
-3.33291e+10
-3.31354e+10
-3.28719e+10
-3.25668e+10
-3.22822e+10
-3.20975e+10
-3.20363e+10
-3.19385e+10
-3.14994e+10
-3.10367e+10
-3.2992e+10
-4.09084e+10
-4.97183e+10
-3.15242e+10
-3.84343e+10
-3.83839e+10
-3.8497e+10
-3.85865e+10
-3.8549e+10
-3.84611e+10
-3.84148e+10
-3.83746e+10
-3.8354e+10
-3.83465e+10
-3.83225e+10
-3.82847e+10
-3.82419e+10
-3.81951e+10
-3.81381e+10
-3.80644e+10
-3.7969e+10
-3.78487e+10
-3.77023e+10
-3.75249e+10
-3.73024e+10
-3.70145e+10
-3.6653e+10
-3.62385e+10
-3.58102e+10
-3.54035e+10
-3.50403e+10
-3.47288e+10
-3.44676e+10
-3.42502e+10
-3.40684e+10
-3.39176e+10
-3.37958e+10
-3.37017e+10
-3.36344e+10
-3.35919e+10
-3.35676e+10
-3.35492e+10
-3.35189e+10
-3.34547e+10
-3.33341e+10
-3.31418e+10
-3.28782e+10
-3.25704e+10
-3.22782e+10
-3.20774e+10
-3.19853e+10
-3.18311e+10
-3.12856e+10
-3.05571e+10
-3.1831e+10
-3.89207e+10
-4.87299e+10
-3.3362e+10
-3.83694e+10
-3.82883e+10
-3.83057e+10
-3.83808e+10
-3.84405e+10
-3.83978e+10
-3.83302e+10
-3.83007e+10
-3.83159e+10
-3.8333e+10
-3.83286e+10
-3.8316e+10
-3.83016e+10
-3.82823e+10
-3.82519e+10
-3.82023e+10
-3.81261e+10
-3.80193e+10
-3.7882e+10
-3.77139e+10
-3.74968e+10
-3.71915e+10
-3.67685e+10
-3.62549e+10
-3.57257e+10
-3.52423e+10
-3.48345e+10
-3.45068e+10
-3.42493e+10
-3.40464e+10
-3.38844e+10
-3.37557e+10
-3.36553e+10
-3.35802e+10
-3.35292e+10
-3.34994e+10
-3.34839e+10
-3.34702e+10
-3.34406e+10
-3.3373e+10
-3.32462e+10
-3.30459e+10
-3.27745e+10
-3.24614e+10
-3.21683e+10
-3.19712e+10
-3.18843e+10
-3.17305e+10
-3.11775e+10
-3.04821e+10
-3.1969e+10
-3.93052e+10
-4.86161e+10
-3.34573e+10
-3.83427e+10
-3.82596e+10
-3.83125e+10
-3.84096e+10
-3.84159e+10
-3.83651e+10
-3.83437e+10
-3.83292e+10
-3.83227e+10
-3.83247e+10
-3.83216e+10
-3.83131e+10
-3.83001e+10
-3.82813e+10
-3.82507e+10
-3.8201e+10
-3.8125e+10
-3.80183e+10
-3.78809e+10
-3.77115e+10
-3.7493e+10
-3.71864e+10
-3.67629e+10
-3.62498e+10
-3.57191e+10
-3.52327e+10
-3.48199e+10
-3.4486e+10
-3.42228e+10
-3.40163e+10
-3.38512e+10
-3.37193e+10
-3.36156e+10
-3.35382e+10
-3.34862e+10
-3.34568e+10
-3.34433e+10
-3.34335e+10
-3.34098e+10
-3.33507e+10
-3.3236e+10
-3.30527e+10
-3.28046e+10
-3.25229e+10
-3.22716e+10
-3.21289e+10
-3.21115e+10
-3.20424e+10
-3.15806e+10
-3.09568e+10
-3.24818e+10
-3.98506e+10
-4.74961e+10
-2.65699e+10
-3.83506e+10
-3.82766e+10
-3.82221e+10
-3.8227e+10
-3.82899e+10
-3.82918e+10
-3.82754e+10
-3.82945e+10
-3.83268e+10
-3.83475e+10
-3.83689e+10
-3.83903e+10
-3.84094e+10
-3.84229e+10
-3.8424e+10
-3.84038e+10
-3.83534e+10
-3.82663e+10
-3.81445e+10
-3.7993e+10
-3.77964e+10
-3.74831e+10
-3.69657e+10
-3.62697e+10
-3.55489e+10
-3.49307e+10
-3.44527e+10
-3.41065e+10
-3.38614e+10
-3.36862e+10
-3.35576e+10
-3.34612e+10
-3.33895e+10
-3.33397e+10
-3.33108e+10
-3.33001e+10
-3.33007e+10
-3.33004e+10
-3.3281e+10
-3.32206e+10
-3.30987e+10
-3.29032e+10
-3.26403e+10
-3.23444e+10
-3.20834e+10
-3.19372e+10
-3.19173e+10
-3.18364e+10
-3.13637e+10
-3.08376e+10
-3.27411e+10
-4.02968e+10
-4.68687e+10
-2.53565e+10
-3.83508e+10
-3.82514e+10
-3.82057e+10
-3.82333e+10
-3.82853e+10
-3.83154e+10
-3.83112e+10
-3.83166e+10
-3.83321e+10
-3.83531e+10
-3.8376e+10
-3.83981e+10
-3.84173e+10
-3.84309e+10
-3.84321e+10
-3.84126e+10
-3.83633e+10
-3.82781e+10
-3.81582e+10
-3.80092e+10
-3.78154e+10
-3.75074e+10
-3.70008e+10
-3.63179e+10
-3.56068e+10
-3.49915e+10
-3.45104e+10
-3.41563e+10
-3.39013e+10
-3.37161e+10
-3.35768e+10
-3.34695e+10
-3.33866e+10
-3.33255e+10
-3.32857e+10
-3.32647e+10
-3.32555e+10
-3.32457e+10
-3.32172e+10
-3.31486e+10
-3.30193e+10
-3.28172e+10
-3.2549e+10
-3.22503e+10
-3.19903e+10
-3.18498e+10
-3.18397e+10
-3.17674e+10
-3.1285e+10
-3.06764e+10
-3.23327e+10
-3.95871e+10
-4.64796e+10
-2.50332e+10
-3.82713e+10
-3.82107e+10
-3.81085e+10
-3.80852e+10
-3.81288e+10
-3.81642e+10
-3.81914e+10
-3.8225e+10
-3.82646e+10
-3.83091e+10
-3.83589e+10
-3.84128e+10
-3.84695e+10
-3.85248e+10
-3.85708e+10
-3.85977e+10
-3.85951e+10
-3.85534e+10
-3.84702e+10
-3.83599e+10
-3.82274e+10
-3.79755e+10
-3.73923e+10
-3.64379e+10
-3.54101e+10
-3.46101e+10
-3.40589e+10
-3.37034e+10
-3.34777e+10
-3.33304e+10
-3.32284e+10
-3.3152e+10
-3.30927e+10
-3.30485e+10
-3.30196e+10
-3.30043e+10
-3.29957e+10
-3.29809e+10
-3.29409e+10
-3.28527e+10
-3.2694e+10
-3.24518e+10
-3.21322e+10
-3.17706e+10
-3.14347e+10
-3.12006e+10
-3.10661e+10
-3.08221e+10
-3.01324e+10
-2.93571e+10
-3.09897e+10
-3.85398e+10
-4.64339e+10
-2.56856e+10
-3.82372e+10
-3.81532e+10
-3.80856e+10
-3.80839e+10
-3.81495e+10
-3.81896e+10
-3.81963e+10
-3.82267e+10
-3.82674e+10
-3.83122e+10
-3.8362e+10
-3.84164e+10
-3.84732e+10
-3.85283e+10
-3.85739e+10
-3.86008e+10
-3.85985e+10
-3.85573e+10
-3.8475e+10
-3.83668e+10
-3.82367e+10
-3.79859e+10
-3.74053e+10
-3.64588e+10
-3.54378e+10
-3.46399e+10
-3.40884e+10
-3.37326e+10
-3.35079e+10
-3.3362e+10
-3.32605e+10
-3.31836e+10
-3.31222e+10
-3.30741e+10
-3.30395e+10
-3.30162e+10
-3.29972e+10
-3.29689e+10
-3.29116e+10
-3.28011e+10
-3.2614e+10
-3.23356e+10
-3.19703e+10
-3.15517e+10
-3.11452e+10
-3.08249e+10
-3.0585e+10
-3.02087e+10
-2.93409e+10
-2.82713e+10
-2.9358e+10
-3.64303e+10
-4.62714e+10
-3.18083e+10
-3.81713e+10
-3.81147e+10
-3.8068e+10
-3.80701e+10
-3.80982e+10
-3.8139e+10
-3.81865e+10
-3.82381e+10
-3.82959e+10
-3.83617e+10
-3.84369e+10
-3.85238e+10
-3.86212e+10
-3.87234e+10
-3.88189e+10
-3.88943e+10
-3.89377e+10
-3.89369e+10
-3.88823e+10
-3.87954e+10
-3.87319e+10
-3.86166e+10
-3.80369e+10
-3.6653e+10
-3.50622e+10
-3.40563e+10
-3.3521e+10
-3.32426e+10
-3.31151e+10
-3.30557e+10
-3.30225e+10
-3.29959e+10
-3.29714e+10
-3.29516e+10
-3.29402e+10
-3.29379e+10
-3.29397e+10
-3.29337e+10
-3.29015e+10
-3.28199e+10
-3.26658e+10
-3.24237e+10
-3.20966e+10
-3.1715e+10
-3.13392e+10
-3.10346e+10
-3.07833e+10
-3.03676e+10
-2.94847e+10
-2.85779e+10
-3.01088e+10
-3.72727e+10
-4.54964e+10
-2.8628e+10
-3.8119e+10
-3.80822e+10
-3.80753e+10
-3.8093e+10
-3.81246e+10
-3.81478e+10
-3.81848e+10
-3.82355e+10
-3.82937e+10
-3.83589e+10
-3.84327e+10
-3.85175e+10
-3.86124e+10
-3.87116e+10
-3.8804e+10
-3.88762e+10
-3.89158e+10
-3.89106e+10
-3.88532e+10
-3.87675e+10
-3.87063e+10
-3.8592e+10
-3.80317e+10
-3.66935e+10
-3.51513e+10
-3.41429e+10
-3.35845e+10
-3.3286e+10
-3.31439e+10
-3.30758e+10
-3.30377e+10
-3.30085e+10
-3.2983e+10
-3.29628e+10
-3.29512e+10
-3.29485e+10
-3.29496e+10
-3.29426e+10
-3.2909e+10
-3.28253e+10
-3.26683e+10
-3.24228e+10
-3.20918e+10
-3.17056e+10
-3.13243e+10
-3.10119e+10
-3.07476e+10
-3.03065e+10
-2.93652e+10
-2.8311e+10
-2.95516e+10
-3.66346e+10
-4.54713e+10
-2.85211e+10
-3.79377e+10
-3.78605e+10
-3.78896e+10
-3.7912e+10
-3.79293e+10
-3.79543e+10
-3.79979e+10
-3.80554e+10
-3.81248e+10
-3.82076e+10
-3.83077e+10
-3.84317e+10
-3.85834e+10
-3.87559e+10
-3.89274e+10
-3.90694e+10
-3.9169e+10
-3.92279e+10
-3.92375e+10
-3.91995e+10
-3.92174e+10
-3.93954e+10
-3.91607e+10
-3.72126e+10
-3.448e+10
-3.30768e+10
-3.25744e+10
-3.2447e+10
-3.25072e+10
-3.25992e+10
-3.26723e+10
-3.27153e+10
-3.27355e+10
-3.27442e+10
-3.27516e+10
-3.27633e+10
-3.27783e+10
-3.27879e+10
-3.27771e+10
-3.27254e+10
-3.2613e+10
-3.24265e+10
-3.21689e+10
-3.18689e+10
-3.15838e+10
-3.13727e+10
-3.12144e+10
-3.08992e+10
-3.01834e+10
-2.96864e+10
-3.20993e+10
-4.00535e+10
-4.54904e+10
-2.34378e+10
-3.79011e+10
-3.78787e+10
-3.79146e+10
-3.794e+10
-3.79498e+10
-3.79665e+10
-3.80053e+10
-3.80591e+10
-3.81256e+10
-3.82046e+10
-3.82998e+10
-3.84175e+10
-3.85612e+10
-3.87239e+10
-3.88857e+10
-3.90229e+10
-3.9123e+10
-3.91802e+10
-3.91811e+10
-3.9135e+10
-3.91605e+10
-3.93608e+10
-3.91541e+10
-3.72845e+10
-3.46104e+10
-3.31824e+10
-3.26532e+10
-3.25075e+10
-3.25474e+10
-3.2622e+10
-3.26829e+10
-3.27181e+10
-3.27337e+10
-3.27401e+10
-3.2747e+10
-3.27597e+10
-3.27773e+10
-3.2791e+10
-3.27857e+10
-3.27414e+10
-3.26383e+10
-3.24637e+10
-3.22213e+10
-3.19408e+10
-3.16796e+10
-3.14965e+10
-3.13649e+10
-3.10609e+10
-3.03106e+10
-2.96905e+10
-3.19034e+10
-3.96376e+10
-4.50858e+10
-2.3885e+10
-3.7764e+10
-3.77123e+10
-3.77632e+10
-3.77874e+10
-3.78153e+10
-3.78521e+10
-3.79101e+10
-3.79907e+10
-3.80952e+10
-3.82245e+10
-3.83845e+10
-3.85873e+10
-3.88447e+10
-3.91471e+10
-3.9444e+10
-3.96719e+10
-3.98378e+10
-3.99996e+10
-4.01478e+10
-4.01814e+10
-4.0175e+10
-4.06277e+10
-4.15019e+10
-3.97465e+10
-3.53421e+10
-3.17407e+10
-3.14935e+10
-3.17952e+10
-3.2131e+10
-3.23735e+10
-3.25288e+10
-3.26179e+10
-3.26652e+10
-3.26898e+10
-3.27059e+10
-3.27213e+10
-3.27367e+10
-3.27449e+10
-3.27316e+10
-3.26785e+10
-3.2567e+10
-3.23857e+10
-3.21394e+10
-3.18585e+10
-3.16008e+10
-3.14282e+10
-3.13258e+10
-3.10996e+10
-3.05268e+10
-3.01968e+10
-3.25507e+10
-4.00343e+10
-4.63395e+10
-2.55992e+10
-3.77307e+10
-3.77127e+10
-3.77628e+10
-3.77869e+10
-3.78121e+10
-3.78485e+10
-3.79053e+10
-3.79843e+10
-3.80872e+10
-3.82149e+10
-3.83736e+10
-3.85747e+10
-3.88267e+10
-3.91168e+10
-3.94042e+10
-3.96454e+10
-3.98361e+10
-3.99908e+10
-4.00906e+10
-4.00978e+10
-4.01777e+10
-4.081e+10
-4.17386e+10
-4.00126e+10
-3.55753e+10
-3.15895e+10
-3.14055e+10
-3.17506e+10
-3.21051e+10
-3.23525e+10
-3.25067e+10
-3.25927e+10
-3.26361e+10
-3.26563e+10
-3.26677e+10
-3.26779e+10
-3.26875e+10
-3.26891e+10
-3.26684e+10
-3.26064e+10
-3.24844e+10
-3.22906e+10
-3.20294e+10
-3.17298e+10
-3.14477e+10
-3.12401e+10
-3.10807e+10
-3.0748e+10
-2.99709e+10
-2.93063e+10
-3.13022e+10
-3.87904e+10
-4.69341e+10
-3.17298e+10
-3.77113e+10
-3.77247e+10
-3.77388e+10
-3.77529e+10
-3.77742e+10
-3.7812e+10
-3.7872e+10
-3.79579e+10
-3.80697e+10
-3.82059e+10
-3.83747e+10
-3.8595e+10
-3.88793e+10
-3.9211e+10
-3.95143e+10
-3.9736e+10
-3.99315e+10
-4.01269e+10
-4.03e+10
-4.03829e+10
-4.04106e+10
-4.10089e+10
-4.23462e+10
-4.32471e+10
-4.06123e+10
-2.72046e+10
-2.9498e+10
-3.09621e+10
-3.17746e+10
-3.22164e+10
-3.24723e+10
-3.26178e+10
-3.27015e+10
-3.27519e+10
-3.27875e+10
-3.28174e+10
-3.28421e+10
-3.28538e+10
-3.28375e+10
-3.27734e+10
-3.26423e+10
-3.24325e+10
-3.21488e+10
-3.18217e+10
-3.15101e+10
-3.12789e+10
-3.11204e+10
-3.08512e+10
-3.02341e+10
-2.97871e+10
-3.19403e+10
-3.95418e+10
-4.6507e+10
-2.69474e+10
-3.77098e+10
-3.77306e+10
-3.77379e+10
-3.77461e+10
-3.77616e+10
-3.77956e+10
-3.7853e+10
-3.79369e+10
-3.80473e+10
-3.81844e+10
-3.83552e+10
-3.85751e+10
-3.88539e+10
-3.91713e+10
-3.94743e+10
-3.9719e+10
-3.99149e+10
-4.0079e+10
-4.02052e+10
-4.02551e+10
-4.03776e+10
-4.12626e+10
-4.25461e+10
-4.3463e+10
-4.10547e+10
-2.72374e+10
-2.94273e+10
-3.09015e+10
-3.17346e+10
-3.21888e+10
-3.2449e+10
-3.25945e+10
-3.26757e+10
-3.27228e+10
-3.27548e+10
-3.27813e+10
-3.28033e+10
-3.28131e+10
-3.2796e+10
-3.27326e+10
-3.26036e+10
-3.23975e+10
-3.21188e+10
-3.17971e+10
-3.14895e+10
-3.12565e+10
-3.10816e+10
-3.0756e+10
-3.00212e+10
-2.95598e+10
-3.24818e+10
-4.17729e+10
-4.75822e+10
-2.46017e+10
-3.76995e+10
-3.7754e+10
-3.77535e+10
-3.77693e+10
-3.77927e+10
-3.78338e+10
-3.78961e+10
-3.7983e+10
-3.80934e+10
-3.8226e+10
-3.83898e+10
-3.86093e+10
-3.88936e+10
-3.92096e+10
-3.94927e+10
-3.97179e+10
-3.99253e+10
-4.01228e+10
-4.02909e+10
-4.04036e+10
-4.04219e+10
-4.08003e+10
-4.28077e+10
-4.33098e+10
-2.27498e+10
-2.92527e+10
-3.07983e+10
-3.16734e+10
-3.215e+10
-3.24237e+10
-3.25784e+10
-3.2668e+10
-3.2724e+10
-3.27659e+10
-3.28035e+10
-3.28373e+10
-3.28598e+10
-3.28557e+10
-3.28056e+10
-3.26906e+10
-3.24999e+10
-3.22389e+10
-3.19388e+10
-3.16604e+10
-3.14726e+10
-3.1374e+10
-3.11793e+10
-3.06068e+10
-3.00303e+10
-3.16653e+10
-3.84479e+10
-4.5939e+10
-3.05963e+10
-3.77063e+10
-3.77564e+10
-3.77498e+10
-3.77597e+10
-3.77784e+10
-3.78154e+10
-3.78739e+10
-3.7957e+10
-3.80647e+10
-3.81979e+10
-3.83645e+10
-3.85809e+10
-3.8855e+10
-3.91656e+10
-3.9463e+10
-3.97105e+10
-3.99135e+10
-4.0088e+10
-4.02217e+10
-4.02806e+10
-4.03755e+10
-4.1148e+10
-4.28761e+10
-4.32595e+10
-2.34846e+10
-2.92686e+10
-3.0781e+10
-3.16584e+10
-3.21443e+10
-3.24237e+10
-3.25811e+10
-3.26714e+10
-3.27272e+10
-3.27691e+10
-3.28077e+10
-3.28448e+10
-3.28735e+10
-3.28795e+10
-3.28442e+10
-3.27493e+10
-3.25841e+10
-3.2354e+10
-3.20899e+10
-3.18507e+10
-3.17023e+10
-3.16383e+10
-3.14643e+10
-3.09125e+10
-3.05443e+10
-3.31221e+10
-4.13969e+10
-4.7123e+10
-2.38729e+10
-3.77562e+10
-3.77722e+10
-3.77793e+10
-3.77937e+10
-3.78184e+10
-3.78582e+10
-3.79168e+10
-3.79959e+10
-3.80952e+10
-3.8215e+10
-3.8362e+10
-3.85525e+10
-3.87942e+10
-3.90658e+10
-3.93226e+10
-3.9543e+10
-3.97311e+10
-3.9902e+10
-4.00881e+10
-4.0205e+10
-4.02637e+10
-4.05888e+10
-4.1556e+10
-4.16447e+10
-3.51621e+10
-3.11316e+10
-3.11232e+10
-3.16366e+10
-3.21005e+10
-3.2411e+10
-3.26012e+10
-3.27114e+10
-3.27754e+10
-3.28167e+10
-3.28513e+10
-3.28871e+10
-3.29243e+10
-3.29553e+10
-3.29653e+10
-3.29361e+10
-3.28503e+10
-3.26987e+10
-3.2488e+10
-3.22506e+10
-3.20488e+10
-3.19548e+10
-3.19755e+10
-3.19385e+10
-3.15786e+10
-3.13177e+10
-3.35707e+10
-4.10426e+10
-4.66158e+10
-2.38261e+10
-3.77613e+10
-3.77674e+10
-3.77736e+10
-3.77848e+10
-3.78069e+10
-3.78443e+10
-3.79006e+10
-3.79776e+10
-3.80751e+10
-3.81938e+10
-3.834e+10
-3.85259e+10
-3.87582e+10
-3.90232e+10
-3.92891e+10
-3.9531e+10
-3.97468e+10
-3.99371e+10
-4.00743e+10
-4.01188e+10
-4.0208e+10
-4.07847e+10
-4.16098e+10
-4.15057e+10
-3.53424e+10
-3.09993e+10
-3.10154e+10
-3.15705e+10
-3.20704e+10
-3.24056e+10
-3.26101e+10
-3.2728e+10
-3.27958e+10
-3.2839e+10
-3.28748e+10
-3.29121e+10
-3.29516e+10
-3.29859e+10
-3.30007e+10
-3.29777e+10
-3.28991e+10
-3.27544e+10
-3.2548e+10
-3.23089e+10
-3.20941e+10
-3.1969e+10
-3.19319e+10
-3.18007e+10
-3.12969e+10
-3.08246e+10
-3.28261e+10
-4.05534e+10
-4.82216e+10
-2.84251e+10
-3.78046e+10
-3.77822e+10
-3.77944e+10
-3.78059e+10
-3.78276e+10
-3.78601e+10
-3.79058e+10
-3.79645e+10
-3.80353e+10
-3.81177e+10
-3.82139e+10
-3.83289e+10
-3.84636e+10
-3.86084e+10
-3.87459e+10
-3.8863e+10
-3.89516e+10
-3.90065e+10
-3.90265e+10
-3.90104e+10
-3.90474e+10
-3.9233e+10
-3.90926e+10
-3.73497e+10
-3.48707e+10
-3.34051e+10
-3.28525e+10
-3.26938e+10
-3.27297e+10
-3.27995e+10
-3.28584e+10
-3.28951e+10
-3.29162e+10
-3.29315e+10
-3.29498e+10
-3.29753e+10
-3.30061e+10
-3.30329e+10
-3.30406e+10
-3.30104e+10
-3.29249e+10
-3.27745e+10
-3.25649e+10
-3.23269e+10
-3.21208e+10
-3.20174e+10
-3.20262e+10
-3.19871e+10
-3.16474e+10
-3.14084e+10
-3.3631e+10
-4.13691e+10
-4.84914e+10
-2.69651e+10
-3.78089e+10
-3.7788e+10
-3.77988e+10
-3.78099e+10
-3.78312e+10
-3.78637e+10
-3.791e+10
-3.79699e+10
-3.80426e+10
-3.81271e+10
-3.82254e+10
-3.83413e+10
-3.84756e+10
-3.86207e+10
-3.87617e+10
-3.88861e+10
-3.89871e+10
-3.90556e+10
-3.90737e+10
-3.90481e+10
-3.90953e+10
-3.93169e+10
-3.91302e+10
-3.73295e+10
-3.47518e+10
-3.32576e+10
-3.27371e+10
-3.26252e+10
-3.26991e+10
-3.27961e+10
-3.28737e+10
-3.29239e+10
-3.29558e+10
-3.29804e+10
-3.30074e+10
-3.30416e+10
-3.30809e+10
-3.31162e+10
-3.31318e+10
-3.31084e+10
-3.30273e+10
-3.28766e+10
-3.26584e+10
-3.23984e+10
-3.21488e+10
-3.19699e+10
-3.18579e+10
-3.16357e+10
-3.10109e+10
-3.02578e+10
-3.16028e+10
-3.92601e+10
-5.04562e+10
-3.57711e+10
-3.78433e+10
-3.78272e+10
-3.78379e+10
-3.78511e+10
-3.78743e+10
-3.79074e+10
-3.79517e+10
-3.80066e+10
-3.80711e+10
-3.8144e+10
-3.82248e+10
-3.83127e+10
-3.8404e+10
-3.84913e+10
-3.85656e+10
-3.86188e+10
-3.86429e+10
-3.86271e+10
-3.85616e+10
-3.84605e+10
-3.83726e+10
-3.8242e+10
-3.77145e+10
-3.64859e+10
-3.50717e+10
-3.4115e+10
-3.35598e+10
-3.32541e+10
-3.31113e+10
-3.30456e+10
-3.30114e+10
-3.29866e+10
-3.29659e+10
-3.29517e+10
-3.2948e+10
-3.29565e+10
-3.29734e+10
-3.29885e+10
-3.29861e+10
-3.29472e+10
-3.28547e+10
-3.2699e+10
-3.24862e+10
-3.22459e+10
-3.20365e+10
-3.19263e+10
-3.1925e+10
-3.18797e+10
-3.15471e+10
-3.12982e+10
-3.3356e+10
-4.07568e+10
-4.83753e+10
-2.85429e+10
-3.78406e+10
-3.78261e+10
-3.78365e+10
-3.78505e+10
-3.78748e+10
-3.79095e+10
-3.79561e+10
-3.80143e+10
-3.80829e+10
-3.81607e+10
-3.82471e+10
-3.83409e+10
-3.84386e+10
-3.85331e+10
-3.8615e+10
-3.86755e+10
-3.87059e+10
-3.86934e+10
-3.86281e+10
-3.85297e+10
-3.84486e+10
-3.83156e+10
-3.77643e+10
-3.6491e+10
-3.5035e+10
-3.40614e+10
-3.35141e+10
-3.32245e+10
-3.30963e+10
-3.30431e+10
-3.30201e+10
-3.30062e+10
-3.29968e+10
-3.29945e+10
-3.30035e+10
-3.30251e+10
-3.30553e+10
-3.30833e+10
-3.30927e+10
-3.30638e+10
-3.29783e+10
-3.28251e+10
-3.26081e+10
-3.23536e+10
-3.21141e+10
-3.1949e+10
-3.18555e+10
-3.16591e+10
-3.10566e+10
-3.02467e+10
-3.13377e+10
-3.87147e+10
-5.03872e+10
-3.69624e+10
-3.78368e+10
-3.78286e+10
-3.78317e+10
-3.78403e+10
-3.78573e+10
-3.78826e+10
-3.79171e+10
-3.79603e+10
-3.80112e+10
-3.8069e+10
-3.81325e+10
-3.81996e+10
-3.82657e+10
-3.83252e+10
-3.83712e+10
-3.8397e+10
-3.83938e+10
-3.8352e+10
-3.82661e+10
-3.81443e+10
-3.79861e+10
-3.77038e+10
-3.71133e+10
-3.61881e+10
-3.52129e+10
-3.44541e+10
-3.39308e+10
-3.35911e+10
-3.3377e+10
-3.3238e+10
-3.31405e+10
-3.30657e+10
-3.30068e+10
-3.29633e+10
-3.29369e+10
-3.29275e+10
-3.29303e+10
-3.29342e+10
-3.29229e+10
-3.28779e+10
-3.2783e+10
-3.26305e+10
-3.24284e+10
-3.22083e+10
-3.20291e+10
-3.19595e+10
-3.20079e+10
-3.2016e+10
-3.17351e+10
-3.15466e+10
-3.36614e+10
-4.07839e+10
-4.68045e+10
-2.45245e+10
-3.78423e+10
-3.783e+10
-3.78353e+10
-3.78448e+10
-3.78631e+10
-3.78899e+10
-3.79261e+10
-3.79714e+10
-3.80248e+10
-3.80852e+10
-3.81515e+10
-3.82215e+10
-3.82909e+10
-3.83538e+10
-3.84033e+10
-3.84318e+10
-3.84307e+10
-3.83897e+10
-3.83037e+10
-3.81824e+10
-3.80248e+10
-3.77367e+10
-3.71259e+10
-3.61756e+10
-3.51788e+10
-3.44125e+10
-3.38927e+10
-3.3561e+10
-3.33557e+10
-3.32254e+10
-3.31364e+10
-3.30705e+10
-3.30207e+10
-3.29867e+10
-3.29699e+10
-3.29694e+10
-3.298e+10
-3.29901e+10
-3.29828e+10
-3.29388e+10
-3.28416e+10
-3.2683e+10
-3.24709e+10
-3.22362e+10
-3.2036e+10
-3.19351e+10
-3.19354e+10
-3.18643e+10
-3.14295e+10
-3.09459e+10
-3.27933e+10
-4.05667e+10
-4.88762e+10
-2.8715e+10
-3.78541e+10
-3.78465e+10
-3.78477e+10
-3.78534e+10
-3.7866e+10
-3.78847e+10
-3.79099e+10
-3.79407e+10
-3.79759e+10
-3.80146e+10
-3.80553e+10
-3.80956e+10
-3.81315e+10
-3.81585e+10
-3.81713e+10
-3.81643e+10
-3.81297e+10
-3.80601e+10
-3.79532e+10
-3.78106e+10
-3.76141e+10
-3.7294e+10
-3.67707e+10
-3.60723e+10
-3.53468e+10
-3.47223e+10
-3.42346e+10
-3.38737e+10
-3.36099e+10
-3.34128e+10
-3.32594e+10
-3.31361e+10
-3.30369e+10
-3.29607e+10
-3.29077e+10
-3.28757e+10
-3.2858e+10
-3.28417e+10
-3.28087e+10
-3.27394e+10
-3.26169e+10
-3.24336e+10
-3.21975e+10
-3.19402e+10
-3.17202e+10
-3.16024e+10
-3.15829e+10
-3.14765e+10
-3.0996e+10
-3.04913e+10
-3.21579e+10
-3.89634e+10
-4.57548e+10
-2.53524e+10
-3.78589e+10
-3.78425e+10
-3.78477e+10
-3.78543e+10
-3.78682e+10
-3.7888e+10
-3.79142e+10
-3.7946e+10
-3.79823e+10
-3.80219e+10
-3.80632e+10
-3.81041e+10
-3.81408e+10
-3.81689e+10
-3.81827e+10
-3.8176e+10
-3.81411e+10
-3.80708e+10
-3.79633e+10
-3.78212e+10
-3.76259e+10
-3.7305e+10
-3.67796e+10
-3.60773e+10
-3.53529e+10
-3.47322e+10
-3.42496e+10
-3.38933e+10
-3.36328e+10
-3.34381e+10
-3.32868e+10
-3.31655e+10
-3.30683e+10
-3.2994e+10
-3.29423e+10
-3.29105e+10
-3.28912e+10
-3.28712e+10
-3.2832e+10
-3.27533e+10
-3.26184e+10
-3.24198e+10
-3.21663e+10
-3.18903e+10
-3.16508e+10
-3.15139e+10
-3.14766e+10
-3.13488e+10