/*--------------------------------*- C++ -*----------------------------------*\
| =========                 |                                                 |
| \\      /  F ield         | OpenFOAM: The Open Source CFD Toolbox           |
|  \\    /   O peration     | Version:  4.1                                   |
|   \\  /    A nd           | Web:      www.OpenFOAM.org                      |
|    \\/     M anipulation  |                                                 |
\*---------------------------------------------------------------------------*/
FoamFile
{
    version     2.0;
    format      ascii;
    class       surfaceScalarField;
    location    "48";
    object      phi;
}
// * * * * * * * * * * * * * * * * * * * * * * * * * * * * * * * * * * * * * //

dimensions      [0 3 -1 0 0 0 0];

internalField   nonuniform List<scalar> 
11516
(
-4.61204e+10
-2.29308e+08
-4.38347e+08
-4.55779e+10
-2.1642e+08
-3.5493e+08
-4.52207e+10
-2.0834e+08
-1.68846e+08
-4.46141e+10
-3.08965e+08
-3.08776e+08
-4.42599e+10
-1.84285e+08
-1.74316e+08
-4.3975e+10
-1.96579e+08
-8.64071e+07
-4.36714e+10
-2.18379e+08
-7.86653e+07
-4.34177e+10
-2.1174e+08
-3.1708e+07
-4.31829e+10
-2.11417e+08
-1.00371e+07
-4.29652e+10
-2.08755e+08
7.26156e+06
-4.27592e+10
-2.05651e+08
1.85794e+07
-4.25572e+10
-2.03449e+08
2.33491e+07
-4.23477e+10
-2.02988e+08
1.94362e+07
-4.21228e+10
-2.03482e+08
1.02092e+07
-4.18725e+10
-2.03827e+08
-7.72286e+06
-4.159e+10
-2.04324e+08
-3.19658e+07
-4.12699e+10
-2.0534e+08
-6.13563e+07
-4.0904e+10
-2.06882e+08
-9.75568e+07
-4.04867e+10
-2.08801e+08
-1.38075e+08
-4.00129e+10
-2.10478e+08
-1.83163e+08
-3.94826e+10
-2.13142e+08
-2.32946e+08
-3.88998e+10
-2.16062e+08
-2.8042e+08
-3.82671e+10
-2.19209e+08
-3.27867e+08
-3.75942e+10
-2.21687e+08
-3.65583e+08
-3.6887e+10
-2.23064e+08
-3.97353e+08
-3.61584e+10
-2.22852e+08
-4.15976e+08
-3.54158e+10
-2.20808e+08
-4.2754e+08
-3.46727e+10
-2.16729e+08
-4.2676e+08
-3.39365e+10
-2.10485e+08
-4.19923e+08
-3.32164e+10
-2.02007e+08
-4.0572e+08
-3.25195e+10
-1.91245e+08
-3.85885e+08
-3.18489e+10
-1.78288e+08
-3.6413e+08
-3.12105e+10
-1.63161e+08
-3.37192e+08
-3.06056e+10
-1.45707e+08
-3.09605e+08
-3.00339e+10
-1.25807e+08
-2.82625e+08
-2.94955e+10
-1.03629e+08
-2.5573e+08
-2.89858e+10
-8.05247e+07
-2.32001e+08
-2.85015e+10
-5.66766e+07
-2.09281e+08
-2.80372e+10
-3.14234e+07
-1.9002e+08
-2.75896e+10
-4.74268e+06
-1.71382e+08
-2.71539e+10
2.29284e+07
-1.53252e+08
-2.67223e+10
5.12692e+07
-1.36964e+08
-2.62861e+10
8.2399e+07
-1.23256e+08
-2.58387e+10
1.22104e+08
-1.13491e+08
-2.53787e+10
1.75909e+08
-1.11286e+08
-2.49164e+10
2.49638e+08
-1.25334e+08
-2.44747e+10
3.47106e+08
-1.79892e+08
-2.4073e+10
4.68173e+08
-2.86828e+08
-2.38427e+10
6.12432e+08
-4.10787e+08
-2.40611e+10
7.87984e+08
-1.01121e+08
-2.53557e+10
1.42794e+09
3.28292e+08
-2.78253e+10
3.6633e+09
-3.09165e+08
-2.51862e+10
8.99179e+09
-1.09268e+10
3.87143e+09
-1.08931e+10
-5.55708e+10
-5.75289e+08
-5.5244e+10
-5.57374e+08
-5.49727e+10
-4.90038e+08
-5.48475e+10
-4.40506e+08
-5.45867e+10
-4.46985e+08
-5.44069e+10
-3.74924e+08
-5.42577e+10
-3.63779e+08
-5.41311e+10
-3.32604e+08
-5.40126e+10
-3.22486e+08
-5.39016e+10
-3.109e+08
-5.37925e+10
-3.04308e+08
-5.36819e+10
-3.01763e+08
-5.35617e+10
-3.08473e+08
-5.34275e+10
-3.19565e+08
-5.32716e+10
-3.37687e+08
-5.3089e+10
-3.61282e+08
-5.28768e+10
-3.88101e+08
-5.26285e+10
-4.21225e+08
-5.23419e+10
-4.56346e+08
-5.20139e+10
-4.95581e+08
-5.16438e+10
-5.38064e+08
-5.12365e+10
-5.77527e+08
-5.07925e+10
-6.17294e+08
-5.03207e+10
-6.47494e+08
-4.98233e+10
-6.73497e+08
-4.93105e+10
-6.87238e+08
-4.87846e+10
-6.96003e+08
-4.82549e+10
-6.93212e+08
-4.77233e+10
-6.85871e+08
-4.71943e+10
-6.71704e+08
-4.66705e+10
-6.52158e+08
-4.61499e+10
-6.31889e+08
-4.56342e+10
-6.07167e+08
-4.512e+10
-5.82465e+08
-4.46041e+10
-5.57554e+08
-4.40835e+10
-5.32309e+08
-4.3552e+10
-5.11036e+08
-4.30075e+10
-4.89852e+08
-4.24426e+10
-4.72592e+08
-4.18523e+10
-4.57e+08
-4.12315e+10
-4.42604e+08
-4.05744e+10
-4.30103e+08
-3.98742e+10
-4.16656e+08
-3.91191e+10
-4.01802e+08
-3.82939e+10
-3.84764e+08
-3.73904e+10
-3.64545e+08
-3.64024e+10
-3.47118e+08
-3.53517e+10
-3.22928e+08
-3.43422e+10
-1.90594e+08
-3.39749e+10
6.02639e+08
-3.44243e+10
2.13692e+09
-3.28705e+10
2.42925e+09
-1.30875e+10
-1.04972e+10
-1.39268e+10
-6.32631e+10
6.6796e+07
-5.76276e+08
-6.3338e+10
1.6095e+07
-3.03788e+08
-6.33785e+10
-5.77323e+06
-1.3126e+08
-6.35094e+10
2.00247e+07
-2.0324e+08
-6.35144e+10
-4.53078e+06
-1.65848e+08
-6.35606e+10
1.67199e+06
-3.98373e+07
-6.36301e+10
-1.75164e+06
-3.51863e+06
-6.36866e+10
-2.39088e+06
3.2547e+07
-6.37431e+10
-7.79096e+06
6.11944e+07
-6.38048e+10
-8.28906e+06
8.58374e+07
-6.38662e+10
-1.02195e+07
1.00688e+08
-6.39247e+10
-1.21598e+07
1.06248e+08
-6.39767e+10
-1.49762e+07
1.01432e+08
-6.4018e+10
-1.80788e+07
8.71541e+07
-6.40445e+10
-2.11427e+07
6.14676e+07
-6.40546e+10
-2.47686e+07
2.74517e+07
-6.40431e+10
-2.83452e+07
-1.59738e+07
-6.40115e+10
-3.21045e+07
-6.5202e+07
-6.3957e+10
-3.58864e+07
-1.18488e+08
-6.3882e+10
-3.98738e+07
-1.75966e+08
-6.37882e+10
-4.42137e+07
-2.36176e+08
-6.36776e+10
-4.91409e+07
-2.93708e+08
-6.35563e+10
-5.44097e+07
-3.45944e+08
-6.34249e+10
-5.9819e+07
-3.88189e+08
-6.32936e+10
-6.51395e+07
-4.14339e+08
-6.31615e+10
-7.0162e+07
-4.27946e+08
-6.30375e+10
-7.47599e+07
-4.25281e+08
-6.29217e+10
-7.88961e+07
-4.10278e+08
-6.28214e+10
-8.25298e+07
-3.82123e+08
-6.27371e+10
-8.57289e+07
-3.46192e+08
-6.26733e+10
-8.85937e+07
-3.00154e+08
-6.26338e+10
-9.1399e+07
-2.4794e+08
-6.26198e+10
-9.44242e+07
-1.8842e+08
-6.26366e+10
-9.76758e+07
-1.21812e+08
-6.26874e+10
-1.01143e+08
-5.16039e+07
-6.27777e+10
-1.05646e+08
2.61797e+07
-6.29142e+10
-1.11744e+08
1.10397e+08
-6.31047e+10
-1.19295e+08
2.03828e+08
-6.33595e+10
-1.28279e+08
3.07732e+08
-6.36894e+10
-1.39249e+08
4.25266e+08
-6.4103e+10
-1.52283e+08
5.56459e+08
-6.46157e+10
-1.66658e+08
7.05662e+08
-6.52393e+10
-1.80416e+08
8.69753e+08
-6.59901e+10
-1.92396e+08
1.05109e+09
-6.6899e+10
-1.98393e+08
1.25779e+09
-6.80163e+10
-1.9277e+08
1.48433e+09
-6.94341e+10
-1.67288e+08
1.71976e+09
-7.12441e+10
-1.1076e+08
1.90836e+09
-7.34683e+10
3.53525e+07
1.98019e+09
-7.55389e+10
3.94026e+08
1.65161e+09
-7.79864e+10
1.81869e+09
1.19534e+09
-8.28362e+10
4.9991e+09
-3.56471e+07
-1.07043e+11
1.13018e+10
2.54962e+09
6.90683e+09
3.74772e+09
-6.83412e+10
-6.6853e+08
-6.83587e+10
-5.29775e+08
-6.84141e+10
-4.44755e+08
-6.84839e+10
-3.52694e+08
-6.8555e+10
-3.80548e+08
-6.86278e+10
-2.99285e+08
-6.87302e+10
-2.60901e+08
-6.88243e+10
-2.37774e+08
-6.89301e+10
-2.20257e+08
-6.90423e+10
-2.01702e+08
-6.91574e+10
-1.92992e+08
-6.92704e+10
-1.93099e+08
-6.93823e+10
-2.02343e+08
-6.94901e+10
-2.18734e+08
-6.9591e+10
-2.44848e+08
-6.96847e+10
-2.77549e+08
-6.97656e+10
-3.18489e+08
-6.98338e+10
-3.65232e+08
-6.98873e+10
-4.15835e+08
-6.99264e+10
-4.7046e+08
-6.99533e+10
-5.27341e+08
-6.99684e+10
-5.82033e+08
-6.99774e+10
-6.32331e+08
-6.99792e+10
-6.74884e+08
-6.99834e+10
-7.03335e+08
-6.99871e+10
-7.22105e+08
-6.99984e+10
-7.26942e+08
-7.00153e+10
-7.21645e+08
-7.00442e+10
-7.04744e+08
-7.0084e+10
-6.81433e+08
-7.01384e+10
-6.48567e+08
-7.02114e+10
-6.10637e+08
-7.03043e+10
-5.66736e+08
-7.04242e+10
-5.15361e+08
-7.05761e+10
-4.58502e+08
-7.07686e+10
-3.93147e+08
-7.10136e+10
-3.20766e+08
-7.13218e+10
-2.38221e+08
-7.17087e+10
-1.44741e+08
-7.21912e+10
-3.64763e+07
-7.27861e+10
8.6907e+07
-7.35151e+10
2.31506e+08
-7.43949e+10
3.97251e+08
-7.54419e+10
5.8754e+08
-7.66704e+10
8.02916e+08
-7.80894e+10
1.03814e+09
-7.97063e+10
1.27804e+09
-8.14595e+10
1.46716e+09
-8.30182e+10
1.49561e+09
-8.30719e+10
1.09869e+09
-7.889e+10
-1.16199e+08
-6.87525e+10
-2.43928e+09
-7.12107e+10
3.37138e+09
9.36148e+09
-5.2493e+10
4.56048e+07
-1.30365e+09
-5.20991e+10
1.31697e+08
-8.29369e+08
-5.16958e+10
1.00878e+08
-6.36089e+08
-5.16289e+10
1.50032e+08
-4.21352e+08
-5.14659e+10
9.81342e+07
-4.28358e+08
-5.13256e+10
1.2534e+08
-3.0692e+08
-5.12667e+10
1.37869e+08
-2.0084e+08
-5.12313e+10
1.44502e+08
-1.46831e+08
-5.11991e+10
1.43985e+08
-1.13007e+08
-5.11662e+10
1.4809e+08
-9.18348e+07
-5.1127e+10
1.49946e+08
-8.37479e+07
-5.10818e+10
1.52455e+08
-8.54394e+07
-5.10272e+10
1.54367e+08
-1.00439e+08
-5.09597e+10
1.56689e+08
-1.29099e+08
-5.08803e+10
1.60712e+08
-1.69417e+08
-5.07846e+10
1.64823e+08
-2.22671e+08
-5.06704e+10
1.69564e+08
-2.87073e+08
-5.05324e+10
1.73452e+08
-3.61013e+08
-5.03624e+10
1.77145e+08
-4.45403e+08
-5.01598e+10
1.80703e+08
-5.35566e+08
-4.99238e+10
1.84509e+08
-6.26651e+08
-4.96544e+10
1.87581e+08
-7.17952e+08
-4.93567e+10
1.90425e+08
-7.97979e+08
-4.9038e+10
1.92249e+08
-8.63051e+08
-4.87025e+10
1.93467e+08
-9.07567e+08
-4.8359e+10
1.93892e+08
-9.30712e+08
-4.80113e+10
1.93674e+08
-9.32841e+08
-4.76627e+10
1.92784e+08
-9.1864e+08
-4.73134e+10
1.91232e+08
-8.9008e+08
-4.69658e+10
1.88992e+08
-8.50709e+08
-4.66148e+10
1.86309e+08
-8.05647e+08
-4.62603e+10
1.83529e+08
-7.54061e+08
-4.58954e+10
1.80693e+08
-7.01238e+08
-4.55149e+10
1.77432e+08
-6.45565e+08
-4.51179e+10
1.73664e+08
-5.85756e+08
-4.46971e+10
1.69978e+08
-5.24714e+08
-4.42507e+10
1.67299e+08
-4.59023e+08
-4.37769e+10
1.65117e+08
-3.8512e+08
-4.32742e+10
1.63575e+08
-3.01357e+08
-4.27387e+10
1.6363e+08
-2.07985e+08
-4.21724e+10
1.66866e+08
-9.94485e+07
-4.15716e+10
1.75686e+08
2.06638e+07
-4.0942e+10
1.95886e+08
1.55152e+08
-4.02858e+10
2.33115e+08
2.98441e+08
-3.95953e+10
2.8907e+08
4.46006e+08
-3.88718e+10
3.69422e+08
5.82825e+08
-3.81344e+10
4.76969e+08
6.88812e+08
-3.74237e+10
6.06412e+08
7.04862e+08
-3.67784e+10
7.55935e+08
5.21616e+08
-3.64755e+10
1.03992e+09
9.74046e+07
-3.72386e+10
2.18312e+09
-7.40605e+08
-3.86367e+10
4.14238e+09
-3.31803e+09
-3.17944e+10
9.64754e+09
-1.44008e+10
4.2435e+09
-6.90708e+09
-5.82169e+10
-1.1333e+09
-5.78693e+10
-7.45282e+08
-5.76239e+10
-5.90849e+08
-5.74229e+10
-4.06353e+08
-5.73463e+10
-3.62638e+08
-5.72552e+10
-2.68496e+08
-5.72052e+10
-1.75878e+08
-5.71647e+10
-1.35686e+08
-5.71375e+10
-1.04348e+08
-5.71069e+10
-8.43417e+07
-5.70763e+10
-7.30979e+07
-5.7043e+10
-7.28186e+07
-5.70034e+10
-8.60209e+07
-5.69515e+10
-1.12007e+08
-5.68859e+10
-1.47359e+08
-5.68015e+10
-1.94053e+08
-5.6695e+10
-2.5123e+08
-5.65646e+10
-3.15978e+08
-5.64052e+10
-3.89783e+08
-5.62166e+10
-4.67311e+08
-5.60008e+10
-5.45158e+08
-5.57571e+10
-6.22125e+08
-5.54937e+10
-6.88209e+08
-5.52185e+10
-7.40114e+08
-5.4938e+10
-7.73297e+08
-5.46627e+10
-7.87167e+08
-5.43984e+10
-7.8209e+08
-5.415e+10
-7.62852e+08
-5.3919e+10
-7.31064e+08
-5.3709e+10
-6.90023e+08
-5.35149e+10
-6.44928e+08
-5.33374e+10
-5.93956e+08
-5.31701e+10
-5.43192e+08
-5.3007e+10
-4.90909e+08
-5.28466e+10
-4.34773e+08
-5.26803e+10
-3.7812e+08
-5.25033e+10
-3.17604e+08
-5.23116e+10
-2.49711e+08
-5.21013e+10
-1.73427e+08
-5.18627e+10
-8.95798e+07
-5.15898e+10
7.56874e+06
-5.1264e+10
1.14821e+08
-5.08652e+10
2.36652e+08
-5.03575e+10
3.67401e+08
-4.97049e+10
5.05894e+08
-4.88714e+10
6.44667e+08
-4.78293e+10
7.64666e+08
-4.65931e+10
8.33268e+08
-4.52711e+10
8.19962e+08
-4.42284e+10
8.63398e+08
-4.30789e+10
5.78827e+08
-4.12245e+10
-6.0281e+08
-1.94144e+10
-9.18941e+09
-5.39467e+09
-5.63113e+10
-2.4659e+08
-1.39137e+09
-5.61395e+10
-1.99886e+08
-7.9749e+08
-5.58888e+10
-1.83327e+08
-7.0604e+08
-5.57005e+10
-1.94868e+08
-4.22522e+08
-5.56017e+10
-2.01642e+08
-3.36442e+08
-5.54879e+10
-1.84061e+08
-2.48423e+08
-5.53768e+10
-1.62494e+08
-1.60487e+08
-5.52845e+10
-1.56586e+08
-9.22249e+07
-5.52069e+10
-1.57158e+08
-4.21271e+07
-5.51378e+10
-1.56504e+08
-1.25076e+07
-5.50696e+10
-1.57569e+08
-2.35388e+06
-5.49995e+10
-1.57898e+08
-5.57945e+06
-5.49248e+10
-1.5847e+08
-2.56185e+07
-5.48436e+10
-1.58997e+08
-6.13083e+07
-5.47504e+10
-1.59527e+08
-1.1486e+08
-5.46449e+10
-1.60006e+08
-1.80495e+08
-5.45255e+10
-1.60412e+08
-2.58724e+08
-5.43874e+10
-1.61012e+08
-3.49302e+08
-5.42338e+10
-1.61788e+08
-4.48259e+08
-5.40609e+10
-1.61879e+08
-5.53825e+08
-5.38709e+10
-1.61746e+08
-6.59472e+08
-5.36665e+10
-1.60683e+08
-7.61228e+08
-5.34547e+10
-1.59162e+08
-8.47351e+08
-5.32464e+10
-1.5696e+08
-9.10699e+08
-5.30519e+10
-1.54154e+08
-9.46404e+08
-5.28828e+10
-1.50838e+08
-9.5141e+08
-5.27462e+10
-1.47129e+08
-9.29548e+08
-5.26471e+10
-1.43448e+08
-8.86529e+08
-5.25883e+10
-1.40354e+08
-8.26116e+08
-5.25678e+10
-1.38217e+08
-7.56095e+08
-5.25869e+10
-1.36894e+08
-6.78466e+08
-5.26421e+10
-1.35783e+08
-5.97434e+08
-5.27336e+10
-1.35187e+08
-5.14337e+08
-5.28574e+10
-1.35167e+08
-4.31026e+08
-5.30094e+10
-1.35382e+08
-3.47175e+08
-5.31888e+10
-1.37329e+08
-2.60109e+08
-5.33912e+10
-1.39836e+08
-1.7175e+08
-5.36125e+10
-1.42089e+08
-7.82591e+07
-5.38521e+10
-1.44192e+08
2.46913e+07
-5.41105e+10
-1.45524e+08
1.38081e+08
-5.43865e+10
-1.456e+08
2.64731e+08
-5.46812e+10
-1.43029e+08
4.03473e+08
-5.4995e+10
-1.38222e+08
5.56678e+08
-5.5337e+10
-1.29576e+08
7.27904e+08
-5.57195e+10
-1.14743e+08
9.07833e+08
-5.61744e+10
-9.18026e+07
1.08767e+09
-5.67835e+10
-5.72235e+07
1.2621e+09
-5.77047e+10
-8.05166e+06
1.39913e+09
-5.91414e+10
7.65282e+07
1.39248e+09
-6.13881e+10
4.27914e+08
9.57563e+08
-6.49846e+10
1.67625e+09
-2.15716e+08
-7.07081e+10
4.91905e+09
-4.04874e+09
-8.12514e+10
1.33338e+10
-1.86571e+10
6.39179e+09
6.24146e+09
-6.23579e+10
-1.49454e+09
-6.23755e+10
-9.26919e+08
-6.23786e+10
-7.73175e+08
-6.23679e+10
-6.16771e+08
-6.24113e+10
-5.27226e+08
-6.2435e+10
-4.35359e+08
-6.2427e+10
-3.52515e+08
-6.24276e+10
-2.97209e+08
-6.24378e+10
-2.56205e+08
-6.24471e+10
-2.36153e+08
-6.24529e+10
-2.29344e+08
-6.24516e+10
-2.36588e+08
-6.24417e+10
-2.59445e+08
-6.24214e+10
-2.97145e+08
-6.23834e+10
-3.51515e+08
-6.2329e+10
-4.15617e+08
-6.22564e+10
-4.91234e+08
-6.21616e+10
-5.78205e+08
-6.20465e+10
-6.71957e+08
-6.19081e+10
-7.7148e+08
-6.17462e+10
-8.69892e+08
-6.1564e+10
-9.63619e+08
-6.13656e+10
-1.04214e+09
-6.11604e+10
-1.09819e+09
-6.09564e+10
-1.12859e+09
-6.07644e+10
-1.12926e+09
-6.05913e+10
-1.10434e+09
-6.04434e+10
-1.05928e+09
-6.03256e+10
-9.97325e+08
-6.02392e+10
-9.26064e+08
-6.01887e+10
-8.4694e+08
-6.01721e+10
-7.6424e+08
-6.01924e+10
-6.78795e+08
-6.025e+10
-5.92015e+08
-6.03423e+10
-5.03521e+08
-6.04751e+10
-4.10118e+08
-6.06467e+10
-3.14506e+08
-6.08556e+10
-2.12436e+08
-6.11025e+10
-1.00479e+08
-6.13882e+10
2.10509e+07
-6.17102e+10
1.55431e+08
-6.20658e+10
3.00912e+08
-6.24484e+10
4.58762e+08
-6.2863e+10
6.35727e+08
-6.33087e+10
8.24264e+08
-6.37907e+10
1.0141e+09
-6.4331e+10
1.18803e+09
-6.49595e+10
1.29609e+09
-6.56391e+10
1.25075e+09
-6.57768e+10
8.64976e+08
-6.38261e+10
-5.59606e+08
-5.47413e+10
-5.7888e+09
-3.6093e+10
-1.50288e+10
-3.97697e+09
-5.51998e+10
-5.59455e+07
-1.46631e+09
-5.49744e+10
-1.0259e+08
-9.12724e+08
-5.48154e+10
-1.2131e+08
-7.39843e+08
-5.45794e+10
-1.20105e+08
-5.39235e+08
-5.44168e+10
-1.13328e+08
-3.8972e+08
-5.42822e+10
-1.00011e+08
-2.88455e+08
-5.41549e+10
-9.01815e+07
-2.03001e+08
-5.40335e+10
-8.62571e+07
-1.32205e+08
-5.39174e+10
-8.33347e+07
-7.88414e+07
-5.38042e+10
-8.11793e+07
-4.77635e+07
-5.36942e+10
-8.12217e+07
-3.40084e+07
-5.35843e+10
-8.1964e+07
-3.6544e+07
-5.34729e+10
-8.25068e+07
-5.84193e+07
-5.33506e+10
-8.40528e+07
-1.0543e+08
-5.32137e+10
-8.63989e+07
-1.73525e+08
-5.30556e+10
-8.99671e+07
-2.5853e+08
-5.28684e+10
-9.44752e+07
-3.61637e+08
-5.2648e+10
-9.99494e+07
-4.7956e+08
-5.23907e+10
-1.06304e+08
-6.08436e+08
-5.20924e+10
-1.1308e+08
-7.45564e+08
-5.17501e+10
-1.20257e+08
-8.85317e+08
-5.13602e+10
-1.26555e+08
-1.01977e+09
-5.09306e+10
-1.32673e+08
-1.13566e+09
-5.04721e+10
-1.36972e+08
-1.21917e+09
-5.00051e+10
-1.4003e+08
-1.26235e+09
-4.95453e+10
-1.40787e+08
-1.2625e+09
-4.91082e+10
-1.39517e+08
-1.22381e+09
-4.87039e+10
-1.3656e+08
-1.1559e+09
-4.83378e+10
-1.32807e+08
-1.06614e+09
-4.80111e+10
-1.29131e+08
-9.65312e+08
-4.77222e+10
-1.26056e+08
-8.57941e+08
-4.7467e+10
-1.23637e+08
-7.50147e+08
-4.7239e+10
-1.22426e+08
-6.45273e+08
-4.70326e+10
-1.23253e+08
-5.42881e+08
-4.68411e+10
-1.26597e+08
-4.4334e+08
-4.66548e+10
-1.32415e+08
-3.46698e+08
-4.64697e+10
-1.40192e+08
-2.4985e+08
-4.62763e+10
-1.49726e+08
-1.54173e+08
-4.60632e+10
-1.61884e+08
-5.69121e+07
-4.58184e+10
-1.7653e+08
4.25887e+07
-4.55316e+10
-1.92844e+08
1.48116e+08
-4.51968e+10
-2.09524e+08
2.62638e+08
-4.4802e+10
-2.26831e+08
3.83566e+08
-4.43318e+10
-2.4531e+08
5.12586e+08
-4.378e+10
-2.65262e+08
6.45167e+08
-4.31605e+10
-2.89939e+08
7.82188e+08
-4.253e+10
-3.2055e+08
9.32854e+08
-4.2021e+10
-3.6268e+08
1.10801e+09
-4.20271e+10
-3.63699e+08
1.34915e+09
-4.35601e+10
-1.0265e+08
1.8416e+09
-4.81147e+10
6.07343e+08
2.72565e+09
-6.20395e+10
3.64728e+09
4.8018e+09
-1.15802e+11
1.8549e+10
1.54898e+10
-3.13314e+09
-1.44491e+10
-5.57445e+10
-1.56227e+09
-5.57291e+10
-1.03762e+09
-5.57298e+10
-8.89824e+08
-5.57195e+10
-7.46339e+08
-5.57471e+10
-6.14241e+08
-5.57776e+10
-5.07128e+08
-5.57894e+10
-4.33479e+08
-5.57993e+10
-3.75749e+08
-5.58107e+10
-3.29844e+08
-5.5824e+10
-3.05236e+08
-5.58377e+10
-2.97926e+08
-5.58481e+10
-3.09415e+08
-5.58531e+10
-3.38981e+08
-5.58457e+10
-3.92012e+08
-5.58237e+10
-4.64826e+08
-5.57815e+10
-5.53547e+08
-5.57129e+10
-6.60079e+08
-5.56155e+10
-7.8097e+08
-5.54861e+10
-9.12161e+08
-5.53223e+10
-1.05169e+09
-5.51199e+10
-1.19246e+09
-5.48776e+10
-1.32853e+09
-5.45993e+10
-1.44477e+09
-5.42949e+10
-1.52996e+09
-5.39783e+10
-1.57532e+09
-5.36612e+10
-1.57908e+09
-5.33543e+10
-1.54507e+09
-5.30644e+10
-1.48257e+09
-5.27957e+10
-1.39833e+09
-5.25502e+10
-1.30289e+09
-5.23274e+10
-1.20036e+09
-5.2126e+10
-1.09616e+09
-5.19435e+10
-9.92381e+08
-5.17796e+10
-8.89249e+08
-5.16323e+10
-7.87978e+08
-5.14989e+10
-6.86479e+08
-5.13807e+10
-5.82286e+08
-5.12743e+10
-4.76288e+08
-5.11789e+10
-3.62544e+08
-5.10941e+10
-2.41189e+08
-5.10176e+10
-1.09353e+08
-5.0949e+10
3.48715e+07
-5.08827e+10
1.88258e+08
-5.08074e+10
3.50994e+08
-5.07132e+10
5.12556e+08
-5.06104e+10
6.68061e+08
-5.05445e+10
8.14487e+08
-5.06315e+10
9.46015e+08
-5.10481e+10
1.0671e+09
-5.2027e+10
1.2696e+09
-5.4699e+10
2.03429e+09
-6.10219e+10
3.64565e+09
-6.93008e+10
1.16201e+10
4.29938e+09
-5.67823e+10
1.72446e+08
-1.50327e+09
-5.6825e+10
1.69386e+08
-1.02196e+09
-5.68588e+10
1.55473e+08
-8.4858e+08
-5.68692e+10
1.6271e+08
-6.82751e+08
-5.68742e+10
1.63147e+08
-5.42554e+08
-5.68878e+10
1.67775e+08
-4.39473e+08
-5.69027e+10
1.71594e+08
-3.57253e+08
-5.69166e+10
1.75077e+08
-2.90674e+08
-5.69289e+10
1.78883e+08
-2.41777e+08
-5.69405e+10
1.81264e+08
-2.1308e+08
-5.69488e+10
1.83971e+08
-2.04836e+08
-5.69499e+10
1.86567e+08
-2.1713e+08
-5.6944e+10
1.90537e+08
-2.50956e+08
-5.69301e+10
1.94304e+08
-3.11983e+08
-5.69057e+10
1.97737e+08
-3.96321e+08
-5.68636e+10
2.00786e+08
-5.03652e+08
-5.68001e+10
2.03861e+08
-6.30986e+08
-5.67113e+10
2.06652e+08
-7.76982e+08
-5.65945e+10
2.09414e+08
-9.35239e+08
-5.64499e+10
2.11761e+08
-1.10314e+09
-5.62704e+10
2.14889e+08
-1.27472e+09
-5.60555e+10
2.18069e+08
-1.44212e+09
-5.58078e+10
2.22399e+08
-1.5857e+09
-5.55427e+10
2.27004e+08
-1.68557e+09
-5.52808e+10
2.32422e+08
-1.72861e+09
-5.50406e+10
2.38909e+08
-1.71407e+09
-5.48366e+10
2.46681e+08
-1.64892e+09
-5.46782e+10
2.55688e+08
-1.54681e+09
-5.45671e+10
2.65619e+08
-1.42197e+09
-5.4505e+10
2.76202e+08
-1.28463e+09
-5.44874e+10
2.87319e+08
-1.14526e+09
-5.45091e+10
2.9873e+08
-1.01039e+09
-5.45652e+10
3.1017e+08
-8.8243e+08
-5.4648e+10
3.21338e+08
-7.63401e+08
-5.47516e+10
3.31867e+08
-6.50949e+08
-5.4869e+10
3.4117e+08
-5.45863e+08
-5.49936e+10
3.49277e+08
-4.44104e+08
-5.51216e+10
3.56848e+08
-3.45329e+08
-5.52495e+10
3.65091e+08
-2.46755e+08
-5.53767e+10
3.74737e+08
-1.46362e+08
-5.5493e+10
3.84971e+08
-4.75127e+07
-5.55871e+10
3.95232e+08
5.21424e+07
-5.56452e+10
4.05933e+08
1.4938e+08
-5.56478e+10
4.16619e+08
2.39484e+08
-5.55851e+10
4.2723e+08
3.2502e+08
-5.54464e+10
4.34568e+08
3.96089e+08
-5.52114e+10
4.32631e+08
4.40642e+08
-5.48719e+10
4.15153e+08
4.66183e+08
-5.44741e+10
3.86896e+08
5.56874e+08
-5.42225e+10
3.75386e+08
1.07556e+09
-5.50421e+10
8.0309e+08
2.46539e+09
-5.84644e+10
2.79199e+09
5.41607e+09
-7.4854e+10
1.26847e+10
1.92718e+10
6.04366e+09
7.47108e+09
-5.44982e+10
-1.35088e+09
-5.44873e+10
-8.68486e+08
-5.4489e+10
-7.24401e+08
-5.44898e+10
-5.77132e+08
-5.45094e+10
-4.27862e+08
-5.45365e+10
-3.0967e+08
-5.45728e+10
-2.23431e+08
-5.46159e+10
-1.55286e+08
-5.46594e+10
-1.0466e+08
-5.47077e+10
-7.25186e+07
-5.47576e+10
-6.06687e+07
-5.48081e+10
-6.92017e+07
-5.48544e+10
-9.99989e+07
-5.48938e+10
-1.57602e+08
-5.49231e+10
-2.3848e+08
-5.49347e+10
-3.42541e+08
-5.49244e+10
-4.67567e+08
-5.48874e+10
-6.11953e+08
-5.48206e+10
-7.69814e+08
-5.47213e+10
-9.38093e+08
-5.45833e+10
-1.11161e+09
-5.44019e+10
-1.28218e+09
-5.41796e+10
-1.4296e+09
-5.39285e+10
-1.53483e+09
-5.36675e+10
-1.58276e+09
-5.34132e+10
-1.5734e+09
-5.3179e+10
-1.51252e+09
-5.29739e+10
-1.41357e+09
-5.2799e+10
-1.29054e+09
-5.26563e+10
-1.15366e+09
-5.25413e+10
-1.01299e+09
-5.24498e+10
-8.74057e+08
-5.23779e+10
-7.38741e+08
-5.23191e+10
-6.09854e+08
-5.22701e+10
-4.85939e+08
-5.22251e+10
-3.67609e+08
-5.21787e+10
-2.5203e+08
-5.21269e+10
-1.37999e+08
-5.20599e+10
-2.39206e+07
-5.19712e+10
9.42747e+07
-5.1852e+10
2.16836e+08
-5.16944e+10
3.46881e+08
-5.14902e+10
4.81859e+08
-5.12282e+10
6.17979e+08
-5.09071e+10
7.50184e+08
-5.05298e+10
8.65603e+08
-5.01091e+10
9.52062e+08
-4.96792e+10
1.0038e+09
-4.92878e+10
1.04836e+09
-4.89643e+10
1.21766e+09
-4.79444e+10
1.72943e+09
-4.44297e+10
2.93163e+09
-3.37912e+10
1.37714e+10
6.51929e+09
-5.37215e+10
4.89812e+07
-1.434e+09
-5.37673e+10
7.43829e+07
-1.03427e+09
-5.379e+10
8.56332e+07
-8.97022e+08
-5.38218e+10
1.01084e+08
-7.3982e+08
-5.38443e+10
1.02091e+08
-6.11834e+08
-5.38678e+10
9.98784e+07
-5.06956e+08
-5.38903e+10
9.78497e+07
-4.24364e+08
-5.39127e+10
1.00814e+08
-3.61084e+08
-5.39351e+10
1.04569e+08
-3.1564e+08
-5.39586e+10
1.06879e+08
-2.87812e+08
-5.39855e+10
1.06437e+08
-2.75413e+08
-5.40084e+10
1.05769e+08
-2.91327e+08
-5.40237e+10
1.06337e+08
-3.34308e+08
-5.4031e+10
1.06998e+08
-4.05948e+08
-5.4025e+10
1.07447e+08
-5.06188e+08
-5.39992e+10
1.08071e+08
-6.34766e+08
-5.39458e+10
1.09253e+08
-7.90248e+08
-5.38619e+10
1.10963e+08
-9.67327e+08
-5.37438e+10
1.13211e+08
-1.16198e+09
-5.35893e+10
1.16017e+08
-1.36901e+09
-5.33889e+10
1.19932e+08
-1.58592e+09
-5.31382e+10
1.24602e+08
-1.80285e+09
-5.28336e+10
1.31364e+08
-1.99275e+09
-5.24988e+10
1.38173e+08
-2.1229e+09
-5.21585e+10
1.46933e+08
-2.17153e+09
-5.18435e+10
1.56528e+08
-2.14009e+09
-5.157e+10
1.67987e+08
-2.04473e+09
-5.13458e+10
1.81183e+08
-1.90745e+09
-5.11729e+10
1.96171e+08
-1.74709e+09
-5.10449e+10
2.12714e+08
-1.58118e+09
-5.09578e+10
2.30477e+08
-1.41761e+09
-5.09038e+10
2.48962e+08
-1.26558e+09
-5.08764e+10
2.67816e+08
-1.12607e+09
-5.08698e+10
2.87128e+08
-9.99982e+08
-5.08776e+10
3.07102e+08
-8.86034e+08
-5.08949e+10
3.26893e+08
-7.82182e+08
-5.09151e+10
3.462e+08
-6.85925e+08
-5.09325e+10
3.66035e+08
-5.96855e+08
-5.09412e+10
3.87366e+08
-5.12985e+08
-5.09286e+10
4.11401e+08
-4.40406e+08
-5.0889e+10
4.37716e+08
-3.73591e+08
-5.08086e+10
4.65824e+08
-3.1729e+08
-5.06718e+10
4.95907e+08
-2.74875e+08
-5.04645e+10
5.29549e+08
-2.51939e+08
-5.01778e+10
5.68579e+08
-2.48117e+08
-4.98122e+10
6.10626e+08
-2.74156e+08
-4.93802e+10
6.47294e+08
-3.39253e+08
-4.89193e+10
6.7246e+08
-4.22803e+08
-4.83746e+10
6.72396e+08
-4.90015e+08
-4.72278e+10
5.73667e+08
-5.27987e+08
-4.43042e+10
3.32464e+08
-5.00204e+08
-4.03964e+10
1.1639e+09
8.49629e+08
-4.37434e+10
9.75577e+09
1.34622e+10
6.30269e+09
7.36844e+09
-5.34251e+10
-1.15749e+09
-5.34632e+10
-7.43382e+08
-5.34794e+10
-6.11566e+08
-5.34851e+10
-4.60898e+08
-5.34884e+10
-3.14362e+08
-5.34929e+10
-1.98085e+08
-5.35018e+10
-1.10176e+08
-5.35106e+10
-3.9454e+07
-5.35187e+10
1.4085e+07
-5.35268e+10
4.84933e+07
-5.35416e+10
6.63422e+07
-5.35581e+10
5.83202e+07
-5.35713e+10
2.36465e+07
-5.35805e+10
-3.88612e+07
-5.35816e+10
-1.28767e+08
-5.35696e+10
-2.45648e+08
-5.35384e+10
-3.88094e+08
-5.34869e+10
-5.50335e+08
-5.34129e+10
-7.28225e+08
-5.33162e+10
-9.15986e+08
-5.31908e+10
-1.11206e+09
-5.30332e+10
-1.30401e+09
-5.28455e+10
-1.46814e+09
-5.26476e+10
-1.56859e+09
-5.24651e+10
-1.58777e+09
-5.23218e+10
-1.52678e+09
-5.22278e+10
-1.40411e+09
-5.21834e+10
-1.24229e+09
-5.21823e+10
-1.06071e+09
-5.22108e+10
-8.76951e+08
-5.22577e+10
-6.98428e+08
-5.23097e+10
-5.3334e+08
-5.2355e+10
-3.82187e+08
-5.23835e+10
-2.45675e+08
-5.23854e+10
-1.22077e+08
-5.23564e+10
-7.15752e+06
-5.22942e+10
1.03546e+08
-5.21948e+10
2.10804e+08
-5.20539e+10
3.1704e+08
-5.18577e+10
4.18239e+08
-5.15946e+10
5.1757e+08
-5.12463e+10
6.1162e+08
-5.07933e+10
6.98179e+08
-5.02169e+10
7.74488e+08
-4.95016e+10
8.36062e+08
-4.86445e+10
8.70958e+08
-4.76708e+10
8.75702e+08
-4.66358e+10
8.6684e+08
-4.5652e+10
9.28029e+08
-4.49004e+10
1.25705e+09
-4.41738e+10
1.67604e+09
-3.99597e+10
4.14428e+08
-1.8733e+10
2.7218e+09
1.45238e+09
-5.36083e+10
-1.53006e+08
-1.24101e+09
-5.35284e+10
-1.33535e+08
-9.61594e+08
-5.34627e+10
-1.21039e+08
-8.24139e+08
-5.34054e+10
-1.13966e+08
-6.66558e+08
-5.33528e+10
-1.17837e+08
-5.31265e+08
-5.33122e+10
-1.2629e+08
-4.07094e+08
-5.32916e+10
-1.32536e+08
-2.99574e+08
-5.32898e+10
-1.33807e+08
-2.17219e+08
-5.33059e+10
-1.35114e+08
-1.53481e+08
-5.33385e+10
-1.37809e+08
-1.06923e+08
-5.33779e+10
-1.42327e+08
-8.40185e+07
-5.34234e+10
-1.46495e+08
-9.06669e+07
-5.34702e+10
-1.50142e+08
-1.30557e+08
-5.35104e+10
-1.53605e+08
-2.07697e+08
-5.35351e+10
-1.56522e+08
-3.22554e+08
-5.35321e+10
-1.5842e+08
-4.77388e+08
-5.34909e+10
-1.58926e+08
-6.69292e+08
-5.33999e+10
-1.57748e+08
-8.95716e+08
-5.32528e+10
-1.54983e+08
-1.15018e+09
-5.30429e+10
-1.50058e+08
-1.42501e+09
-5.27608e+10
-1.42967e+08
-1.72289e+09
-5.23814e+10
-1.31238e+08
-2.03809e+09
-5.18998e+10
-1.16727e+08
-2.335e+09
-5.13388e+10
-9.88181e+07
-2.54454e+09
-5.07578e+10
-8.0501e+07
-2.61993e+09
-5.02081e+10
-6.23148e+07
-2.56672e+09
-4.97241e+10
-4.5144e+07
-2.41904e+09
-4.93196e+10
-2.90176e+07
-2.21652e+09
-4.89917e+10
-1.34903e+07
-1.99335e+09
-4.87287e+10
2.00061e+06
-1.77498e+09
-4.85145e+10
1.78614e+07
-1.57367e+09
-4.83359e+10
3.42567e+07
-1.39573e+09
-4.81802e+10
5.09481e+07
-1.24126e+09
-4.80366e+10
6.80445e+07
-1.10903e+09
-4.78954e+10
8.56773e+07
-9.97184e+08
-4.77507e+10
1.05282e+08
-9.00965e+08
-4.75961e+10
1.28669e+08
-8.20189e+08
-4.74285e+10
1.55185e+08
-7.50041e+08
-4.72443e+10
1.86898e+08
-6.91169e+08
-4.70413e+10
2.23292e+08
-6.4664e+08
-4.68076e+10
2.63611e+08
-6.19241e+08
-4.6533e+10
3.08469e+08
-6.10164e+08
-4.62067e+10
3.57023e+08
-6.22142e+08
-4.58138e+10
4.09807e+08
-6.65924e+08
-4.5346e+10
4.68459e+08
-7.43805e+08
-4.48039e+10
5.31268e+08
-8.67019e+08
-4.41975e+10
5.88958e+08
-1.03831e+09
-4.35234e+10
6.2486e+08
-1.22394e+09
-4.28383e+10
6.76653e+08
-1.34967e+09
-4.21776e+10
8.12698e+08
-1.37226e+09
-4.07106e+10
3.55811e+08
-1.51177e+09
-3.46481e+10
-2.66053e+09
-1.41013e+09
-1.98128e+10
-2.27619e+09
1.85836e+09
1.14003e+09
-1.04946e+09
-5.13509e+10
-1.20831e+09
-5.12838e+10
-9.31337e+08
-5.12186e+10
-7.85886e+08
-5.11482e+10
-6.33948e+08
-5.10712e+10
-4.98668e+08
-5.10045e+10
-3.8146e+08
-5.09617e+10
-2.76878e+08
-5.09336e+10
-1.93469e+08
-5.09192e+10
-1.28185e+08
-5.09175e+10
-8.43568e+07
-5.09223e+10
-6.50653e+07
-5.09309e+10
-7.44553e+07
-5.09372e+10
-1.16428e+08
-5.09326e+10
-1.94961e+08
-5.09065e+10
-3.10293e+08
-5.0845e+10
-4.64459e+08
-5.07356e+10
-6.54072e+08
-5.05647e+10
-8.75844e+08
-5.03227e+10
-1.1224e+09
-5.00011e+10
-1.38613e+09
-4.95839e+10
-1.66844e+09
-4.90461e+10
-1.96482e+09
-4.8375e+10
-2.23785e+09
-4.75958e+10
-2.41793e+09
-4.67691e+10
-2.45753e+09
-4.59533e+10
-2.36118e+09
-4.51914e+10
-2.16522e+09
-4.45059e+10
-1.91004e+09
-4.39015e+10
-1.63099e+09
-4.33726e+10
-1.35447e+09
-4.29072e+10
-1.09325e+09
-4.24946e+10
-8.54161e+08
-4.21242e+10
-6.37593e+08
-4.17875e+10
-4.4232e+08
-4.14761e+10
-2.66141e+08
-4.11796e+10
-1.0534e+08
-4.08801e+10
3.88853e+07
-4.05624e+10
1.69488e+08
-4.02037e+10
2.83741e+08
-3.97823e+10
3.78655e+08
-3.92743e+10
4.56229e+08
-3.86543e+10
5.12967e+08
-3.78925e+10
5.42569e+08
-3.69514e+10
5.32864e+08
-3.57919e+10
4.72798e+08
-3.43793e+10
3.43805e+08
-3.26873e+10
1.3656e+08
-3.07007e+10
-1.29498e+08
-2.83202e+10
-3.72308e+08
-2.52825e+10
-4.50614e+08
-2.25335e+10
7.69987e+07
-2.7521e+10
3.62253e+09
-2.42605e+10
-2.31652e+09
-7.08942e+09
-5.68388e+10
-1.30485e+08
-9.85492e+08
-5.68814e+10
-1.42641e+08
-7.62979e+08
-5.69135e+10
-1.47407e+08
-6.30822e+08
-5.6936e+10
-1.55339e+08
-4.74882e+08
-5.69578e+10
-1.62721e+08
-3.33303e+08
-5.69814e+10
-1.70612e+08
-2.00385e+08
-5.70144e+10
-1.76943e+08
-7.83542e+07
-5.70627e+10
-1.81152e+08
2.24989e+07
-5.71258e+10
-1.85567e+08
1.04519e+08
-5.72015e+10
-1.90666e+08
1.6816e+08
-5.72872e+10
-1.95096e+08
2.04653e+08
-5.73788e+10
-1.98447e+08
2.06021e+08
-5.74729e+10
-2.01225e+08
1.69734e+08
-5.75638e+10
-2.03911e+08
8.99323e+07
-5.76395e+10
-2.06473e+08
-3.90567e+07
-5.76901e+10
-2.09064e+08
-2.16467e+08
-5.77019e+10
-2.118e+08
-4.42634e+08
-5.7665e+10
-2.14965e+08
-7.1307e+08
-5.75721e+10
-2.1907e+08
-1.02019e+09
-5.74167e+10
-2.24698e+08
-1.35581e+09
-5.71891e+10
-2.31802e+08
-1.7213e+09
-5.6854e+10
-2.3985e+08
-2.13226e+09
-5.63721e+10
-2.49449e+08
-2.55703e+09
-5.57589e+10
-2.60345e+08
-2.86869e+09
-5.51043e+10
-2.74025e+08
-2.95882e+09
-5.44907e+10
-2.87396e+08
-2.84194e+09
-5.39662e+10
-2.99724e+08
-2.59162e+09
-5.35514e+10
-3.09779e+08
-2.27155e+09
-5.3242e+10
-3.17165e+08
-1.9379e+09
-5.30244e+10
-3.22108e+08
-1.62385e+09
-5.28793e+10
-3.25228e+08
-1.34595e+09
-5.27904e+10
-3.27331e+08
-1.10671e+09
-5.27414e+10
-3.28999e+08
-9.05916e+08
-5.27184e+10
-3.30635e+08
-7.39461e+08
-5.27131e+10
-3.32393e+08
-6.00024e+08
-5.27144e+10
-3.34311e+08
-4.85758e+08
-5.27164e+10
-3.36813e+08
-3.90596e+08
-5.27078e+10
-3.41475e+08
-3.13839e+08
-5.26811e+10
-3.52085e+08
-2.48512e+08
-5.26245e+10
-3.68883e+08
-2.01244e+08
-5.25297e+10
-3.89856e+08
-1.72954e+08
-5.23872e+10
-4.15189e+08
-1.65126e+08
-5.21873e+10
-4.46864e+08
-1.79394e+08
-5.19213e+10
-4.88499e+08
-2.26394e+08
-5.15817e+10
-5.43362e+08
-3.11559e+08
-5.11621e+10
-6.15791e+08
-4.53566e+08
-5.06368e+10
-7.14181e+08
-6.66982e+08
-4.9951e+10
-8.43728e+08
-9.44489e+08
-4.90171e+10
-9.97108e+08
-1.20436e+09
-4.76925e+10