/*--------------------------------*- C++ -*----------------------------------*\
| =========                 |                                                 |
| \\      /  F ield         | OpenFOAM: The Open Source CFD Toolbox           |
|  \\    /   O peration     | Version:  4.1                                   |
|   \\  /    A nd           | Web:      www.OpenFOAM.org                      |
|    \\/     M anipulation  |                                                 |
\*---------------------------------------------------------------------------*/
FoamFile
{
    version     2.0;
    format      ascii;
    class       volVectorField;
    location    "71";
    object      U;
}
// * * * * * * * * * * * * * * * * * * * * * * * * * * * * * * * * * * * * * //

dimensions      [0 1 -1 0 0 0 0];

internalField   nonuniform List<vector> 
4432
(
(39.9819 4.01972e-05 0.0502546)
(39.9155 -0.000163358 0.0900843)
(39.8141 -0.000123368 0.118476)
(39.6753 -0.000191567 0.145931)
(39.4976 -0.000360482 0.174649)
(39.2825 -0.000457715 0.204891)
(39.0301 -0.000466219 0.236978)
(38.739 -0.000456307 0.270409)
(38.4067 -0.000460043 0.305156)
(38.0322 -0.000492793 0.340602)
(37.6163 -0.000541043 0.37484)
(37.161 -0.000525379 0.40832)
(36.67 -0.000739025 0.434683)
(36.1604 -0.00080609 0.453834)
(35.6363 -0.00362474 0.445953)
(35.2147 -0.00776537 0.390634)
(34.8621 -0.00634408 0.430334)
(34.7259 -0.00344222 0.335405)
(34.8069 -0.00171923 0.247144)
(34.7629 0.00207078 0.393667)
(34.5091 -0.0012468 0.501914)
(34.1324 -0.0113081 0.630883)
(33.6471 -0.0219891 0.708784)
(33.0953 -0.0312647 0.700526)
(32.4798 -0.0385239 0.684754)
(31.8268 -0.0443157 0.56155)
(31.224 -0.0405781 0.363071)
(30.6994 -0.0263237 0.152371)
(30.2921 -0.0175167 0.0684297)
(29.988 -0.0224497 0.0842147)
(29.7365 -0.0395346 0.214261)
(29.4548 -0.0594572 0.465876)
(29.061 -0.0651666 0.565648)
(28.6343 -0.0402713 0.197138)
(28.398 0.000205057 -0.570301)
(28.3196 0.0279809 -0.975568)
(28.2995 0.0351885 -0.905757)
(28.179 0.0247322 -0.793959)
(27.9847 0.0239677 -0.66497)
(27.8474 0.0284021 -0.519701)
(27.7857 0.0181815 -0.462719)
(27.7351 0.00925969 -0.514407)
(27.6407 0.00251651 -0.470963)
(27.5206 0.00881771 -0.416644)
(27.489 0.0250444 -0.404132)
(27.5129 0.0382579 -0.409454)
(27.6131 0.0239281 -0.39609)
(27.777 -0.00947722 -0.412453)
(27.89 0.015309 -0.419743)
(28.0207 0.0516888 -0.447766)
(28.3788 0.046421 -0.351497)
(28.958 0.0233079 -0.410187)
(29.2954 0.000351123 -0.533983)
(29.6918 0.0883864 -0.035828)
(39.982 4.02056e-05 0.0502559)
(39.9156 -0.000163386 0.0901008)
(39.8141 -0.000123451 0.118575)
(39.675 -0.000191201 0.145994)
(39.4973 -0.000359863 0.174618)
(39.2824 -0.00045721 0.20488)
(39.0301 -0.000465914 0.236893)
(38.7391 -0.000455927 0.270276)
(38.4067 -0.000460213 0.305033)
(38.0323 -0.000493729 0.340333)
(37.6164 -0.000542415 0.374769)
(37.161 -0.000527536 0.408039)
(36.6705 -0.00074133 0.435525)
(36.1555 -0.000810918 0.453971)
(35.6345 -0.00361146 0.453047)
(35.1627 -0.00782718 0.401005)
(34.8038 -0.00642021 0.379807)
(34.7112 -0.00343999 0.290411)
(34.7974 -0.00170566 0.238919)
(34.7837 0.00196147 0.40623)
(34.5319 -0.00137018 0.489865)
(34.1522 -0.0113852 0.549648)
(33.6769 -0.0221027 0.592117)
(33.1208 -0.0316618 0.585748)
(32.4851 -0.0393252 0.576133)
(31.7953 -0.0460731 0.442642)
(31.1347 -0.0440861 0.257467)
(30.5681 -0.0305998 0.126757)
(30.1062 -0.0222521 0.0419619)
(29.729 -0.0291175 -0.0670669)
(29.4804 -0.0477454 -0.199752)
(29.2768 -0.0729721 -0.225404)
(29.0276 -0.0822273 -0.0569337)
(28.6616 -0.0591345 0.0953847)
(28.375 -0.0139082 -0.16112)
(28.1778 0.0175486 -0.451637)
(28.059 0.0283167 -0.410355)
(27.888 0.0177781 -0.418449)
(27.6961 0.0165319 -0.378228)
(27.5307 0.0299904 -0.30094)
(27.4142 0.0263083 -0.23812)
(27.3205 0.0190442 -0.231711)
(27.2028 0.0118451 -0.178831)
(27.0906 0.0178567 -0.160985)
(27.0393 0.0354313 -0.170423)
(27.0368 0.0503907 -0.221434)
(27.094 0.0374693 -0.157344)
(27.3313 0.00127981 -0.0954357)
(27.529 0.0307268 -0.0878118)
(27.6988 0.0759116 -0.140599)
(28.1214 0.0421992 -0.263179)
(28.6795 0.0145715 -0.374321)
(29.088 -0.0127974 -0.460776)
(29.6325 0.0790263 0.0687363)
(40.0077 4.11552e-05 0.0177694)
(40.0313 -0.000186773 0.0557668)
(40.0554 -0.000151537 0.0948297)
(40.0763 -0.000223619 0.13417)
(40.093 -0.000393379 0.174087)
(40.1073 -0.000486064 0.215177)
(40.1204 -0.000477113 0.257809)
(40.1312 -0.000437631 0.302163)
(40.1375 -0.000437623 0.348304)
(40.1376 -0.00047646 0.39603)
(40.1299 -0.000559234 0.444727)
(40.1111 -0.000706284 0.492561)
(40.0774 -0.000649261 0.537119)
(40.0111 -0.000775743 0.568064)
(39.9124 0.0028599 0.591548)
(39.64 0.00488966 0.564886)
(39.3298 0.00647254 0.44155)
(38.6242 0.0067356 0.363046)
(37.6441 -0.000900141 0.414289)
(36.827 -0.0027376 0.478953)
(36.1235 0.000179555 0.549561)
(35.4973 0.0035777 0.634875)
(34.9551 0.00673352 0.722656)
(34.4349 0.00955566 0.819582)
(33.9345 0.0110535 0.89344)
(33.4432 0.0124877 0.902048)
(32.9445 0.0143403 0.857424)
(32.4133 0.0209253 0.798905)
(31.8022 0.0341351 0.72092)
(31.1966 0.0406194 0.610837)
(30.6333 0.0430214 0.517511)
(30.1028 0.0437578 0.520249)
(29.6883 0.0409611 0.512405)
(29.4252 0.0311946 0.427333)
(29.2532 0.0107519 0.382955)
(29.1027 -0.0245695 0.514377)
(28.9627 -0.0695684 0.689261)
(28.77 -0.102873 0.766097)
(28.5297 -0.109963 0.723975)
(28.2741 -0.106195 0.542007)
(28.0709 -0.118633 0.397556)
(27.9953 -0.150019 0.419909)
(27.9023 -0.169882 0.45806)
(27.796 -0.182466 0.420965)
(27.7413 -0.192354 0.34263)
(27.7685 -0.194979 0.23615)
(27.8434 -0.200531 0.180787)
(27.9546 -0.203532 0.050759)
(28.0513 -0.188031 -0.0641423)
(28.1354 -0.221312 0.0227549)
(28.3894 -0.18851 -0.319095)
(28.3911 -0.13119 -0.456194)
(29.1907 -0.0615335 -0.534057)
(29.9894 0.0253747 -0.900455)
(40.0078 4.1156e-05 0.0177654)
(40.0313 -0.000186775 0.0557565)
(40.0554 -0.000151534 0.0948084)
(40.0761 -0.000223605 0.134134)
(40.0927 -0.000393361 0.174053)
(40.1072 -0.000486032 0.215162)
(40.1205 -0.000477109 0.257827)
(40.1312 -0.000437556 0.302193)
(40.1375 -0.000437674 0.348341)
(40.1372 -0.000478313 0.396)
(40.1296 -0.000560545 0.444597)
(40.1107 -0.00070395 0.492555)
(40.0766 -0.000673852 0.536665)
(40.0154 -0.000682734 0.570914)
(39.9128 0.00241908 0.583608)
(39.7144 0.00493037 0.554015)
(39.3877 0.00707406 0.460061)
(38.6603 0.00694458 0.353286)
(37.6597 -0.000928907 0.397309)
(36.8189 -0.00257358 0.469192)
(36.1355 0.000283655 0.529096)
(35.5149 0.00372329 0.603828)
(34.973 0.00701374 0.677294)
(34.4615 0.0102094 0.75847)
(33.9717 0.0120969 0.824935)
(33.5034 0.0145419 0.831856)
(33.0204 0.0184209 0.820659)
(32.4945 0.0246902 0.802451)
(31.9501 0.0350163 0.72557)
(31.4354 0.0466916 0.584316)
(30.8969 0.0590576 0.467707)
(30.3028 0.0716779 0.448993)
(29.7797 0.0645307 0.420778)
(29.4767 0.0469321 0.364908)
(29.3371 0.0165685 0.321046)
(29.2731 -0.0254071 0.39551)
(29.2373 -0.0735989 0.504318)
(29.151 -0.108076 0.565609)
(28.9953 -0.11809 0.557287)
(28.8871 -0.121993 0.471506)
(28.7982 -0.131122 0.373721)
(28.8094 -0.151437 0.36622)
(28.7905 -0.171543 0.372265)
(28.7358 -0.181158 0.3231)
(28.7128 -0.189875 0.231442)
(28.7337 -0.189962 0.116334)
(28.7799 -0.19252 0.0712821)
(28.839 -0.195846 -0.0176018)
(28.9013 -0.199766 -0.0914297)
(28.896 -0.212473 -0.205476)
(28.9584 -0.136314 -0.621293)
(29.0266 -0.0984381 -0.715617)
(29.8174 -0.0448544 -0.680043)
(30.5329 0.0393473 -1.02789)
(39.9996 3.99409e-05 0.0249026)
(39.9869 -0.000189035 0.0722259)
(39.9561 -0.000154907 0.116381)
(39.9065 -0.00022604 0.158762)
(39.8382 -0.000392143 0.200988)
(39.7535 -0.000477477 0.244054)
(39.6538 -0.00046428 0.288513)
(39.5387 -0.000432863 0.334739)
(39.4074 -0.000446575 0.383028)
(39.2596 -0.000516065 0.433495)
(39.0958 -0.000632256 0.486076)
(38.9162 -0.000732391 0.540519)
(38.7189 -0.00079132 0.596566)
(38.5033 -0.000478851 0.653707)
(38.2523 -0.000197525 0.715065)
(38.0083 0.00149454 0.790161)
(37.6519 0.00216964 0.834146)
(37.2739 0.00443772 0.958022)
(36.9003 0.00202685 1.13025)
(36.4855 0.00173219 1.24031)
(36.017 0.00297815 1.28475)
(35.5271 0.00502235 1.2994)
(35.0496 0.00775816 1.32499)
(34.5705 0.0119562 1.36432)
(34.087 0.01431 1.40125)
(33.5912 0.0180007 1.38859)
(33.0457 0.0251923 1.33128)
(32.4224 0.0353622 1.28683)
(31.7041 0.0433496 1.18086)
(30.9495 0.0391753 1.06796)
(30.1307 0.036116 1.06699)
(29.2987 0.0482604 1.10441)
(28.6042 0.0827421 1.02944)
(27.9707 0.139003 0.779578)
(27.5262 0.178086 0.236778)
(27.5688 0.0572625 0.198869)
(27.422 -0.0781549 0.452431)
(27.1426 -0.131985 0.538549)
(26.7158 -0.131977 0.569201)
(26.4438 -0.0731838 0.327534)
(26.3607 -0.0894896 0.290929)
(26.3355 -0.15329 0.487156)
(26.2369 -0.183978 0.480706)
(26.0726 -0.191469 0.345207)
(26.0251 -0.193494 0.166482)
(26.0838 -0.182637 -0.013784)
(26.2344 -0.181594 -0.140321)
(26.4369 -0.163794 -0.292442)
(26.6834 -0.184077 -0.329168)
(27.1512 -0.148588 -0.577766)
(27.5065 -0.0714005 -0.694463)
(27.6777 -0.0358841 -0.676028)
(27.6716 -0.018578 -0.971492)
(27.7819 -0.0257989 -1.55858)
(39.9996 3.99413e-05 0.0249)
(39.9869 -0.000189036 0.072225)
(39.9561 -0.000154905 0.116374)
(39.9063 -0.000226032 0.158754)
(39.838 -0.000392131 0.200982)
(39.7534 -0.000477466 0.244051)
(39.6539 -0.00046426 0.288511)
(39.5388 -0.000432848 0.334727)
(39.4073 -0.000446526 0.383011)
(39.2594 -0.000516215 0.433459)
(39.0955 -0.000632738 0.48604)
(38.916 -0.000732721 0.540529)
(38.7194 -0.000793585 0.596504)
(38.5029 -0.00047667 0.653625)
(38.259 -0.000206158 0.712551)
(37.9865 0.00147838 0.782321)
(37.6646 0.00178858 0.854322)
(37.2838 0.00466027 0.962694)
(36.8984 0.00214999 1.12346)
(36.4908 0.00180212 1.22626)
(36.0295 0.00309175 1.26561)
(35.5467 0.00521929 1.27285)
(35.0772 0.00816963 1.28826)
(34.5996 0.0130534 1.33926)
(34.1093 0.0159574 1.38292)
(33.6122 0.020312 1.3767)
(33.0661 0.0286135 1.35245)
(32.4612 0.0397937 1.33334)
(31.8077 0.0491596 1.26141)
(31.0938 0.0505319 1.1344)
(30.2344 0.0461859 1.12417)
(29.4061 0.0554109 1.15996)
(28.7387 0.0955943 1.04167)
(28.2968 0.14094 0.727046)
(28.0902 0.139005 0.380206)
(28.0504 0.0654925 0.193984)
(27.9857 -0.0231622 0.138281)
(27.7898 -0.0800083 0.0882587)
(27.5231 -0.0870742 0.00110945)
(27.3603 -0.0524538 -0.199756)
(27.1088 -0.0578049 -0.167622)
(27.0264 -0.0961121 -0.099566)
(26.9061 -0.1229 -0.147572)
(26.7374 -0.13755 -0.276276)
(26.6433 -0.148055 -0.419397)
(26.6658 -0.140528 -0.571538)
(26.7452 -0.136029 -0.701353)
(26.8577 -0.120467 -0.790251)
(27.0365 -0.132829 -0.859456)
(27.4143 -0.104726 -1.04174)
(27.685 -0.06014 -0.937176)
(27.8293 -0.0278119 -0.861423)
(28.1186 -0.0876262 -0.600629)
(27.9252 -0.0124574 -1.72112)
(39.9992 3.85588e-05 0.0315001)
(39.9856 -0.000187863 0.0938925)
(39.9549 -0.00015823 0.156078)
(39.9064 -0.000231967 0.219189)
(39.8394 -0.000400412 0.284055)
(39.7549 -0.000488865 0.351032)
(39.6536 -0.000478348 0.420297)
(39.5343 -0.000445976 0.491997)
(39.3951 -0.000451317 0.566283)
(39.2349 -0.000506453 0.64325)
(39.0532 -0.000596112 0.722967)
(38.8491 -0.000672409 0.805616)
(38.6206 -0.000724152 0.891564)
(38.3656 -0.000590404 0.982252)
(38.0783 -0.000526291 1.08049)
(37.7656 0.000734989 1.19087)
(37.4087 0.00104445 1.33895)
(36.9711 0.00135843 1.415)
(36.5843 0.00166417 1.47739)
(36.2326 0.00279955 1.56141)
(35.8582 0.00400514 1.64694)
(35.4554 0.00438776 1.70269)
(35.0145 0.00439965 1.75782)
(34.516 0.00539119 1.82744)
(33.9829 0.00425494 1.90884)
(33.409 0.00380023 1.95095)
(32.7312 0.00848483 1.98016)
(31.9486 0.0146509 2.05474)
(31.0502 0.0131781 2.10219)
(29.9615 0.013238 2.09618)
(28.8163 0.018931 2.12089)
(27.8371 0.0326804 2.03436)
(26.9962 0.0628079 1.74579)
(26.3141 0.109051 1.04592)
(26.2915 0.109612 0.0792957)
(26.5384 -0.0453824 0.383725)
(26.4402 -0.196906 0.973265)
(26.0207 -0.298507 1.20326)
(25.3919 -0.254008 1.16349)
(25.1499 -0.112727 0.592841)
(25.0504 -0.0834769 0.478611)
(25.0453 -0.131218 0.790577)
(24.885 -0.162531 0.874321)
(24.6836 -0.153874 0.705896)
(24.6108 -0.139083 0.501512)
(24.7371 -0.125922 0.311876)
(24.875 -0.125826 0.119907)
(25.1061 -0.0863397 -0.00904404)
(25.3847 -0.0822963 -0.184754)
(25.8149 -0.0962175 -0.507372)
(26.4312 -0.108812 -0.765504)
(26.6913 -0.101623 -0.758092)
(26.8692 -0.0897616 -0.778979)
(27.0751 0.0552584 -0.936581)
(39.9993 3.85592e-05 0.0314984)
(39.9856 -0.000187864 0.0938953)
(39.9549 -0.000158229 0.156077)
(39.9062 -0.000231959 0.219186)
(39.8392 -0.000400399 0.284048)
(39.7548 -0.00048885 0.35102)
(39.6536 -0.000478331 0.420282)
(39.5343 -0.000445953 0.491986)
(39.395 -0.000451291 0.566287)
(39.2348 -0.000506395 0.643277)
(39.053 -0.00059611 0.723035)
(38.8489 -0.000672228 0.805707)
(38.6207 -0.000724644 0.891669)
(38.3656 -0.000587922 0.982082)
(38.0806 -0.000527196 1.08004)
(37.7637 0.000763198 1.18994)
(37.4237 0.000892633 1.33383)
(36.9845 0.00127192 1.44464)
(36.5894 0.00160189 1.48308)
(36.2406 0.00283532 1.54978)
(35.8679 0.00418392 1.62741)
(35.4653 0.00469865 1.67785)
(35.0094 0.00458686 1.7343)
(34.5004 0.00517726 1.83873)
(33.978 0.00413035 1.92181)
(33.3967 0.00369394 1.97868)
(32.6943 0.00966588 2.07175)
(31.8975 0.0168443 2.18849)
(31.0134 0.0153132 2.2541)
(29.9446 0.0152616 2.24253)
(28.8642 0.0195296 2.20447)
(27.9557 0.0314905 2.12818)
(27.1715 0.0598447 1.95926)
(26.494 0.119953 1.47797)
(26.3997 0.135329 0.546632)
(26.6388 -0.0350636 0.279508)
(26.6462 -0.219062 0.368213)
(26.4175 -0.390568 0.447703)
(26.0431 -0.465985 0.539287)
(25.7544 -0.367535 0.200134)
(25.5655 -0.144765 0.093791)
(25.4667 -0.130593 0.239978)
(25.2721 -0.127689 0.153606)
(25.0677 -0.124862 -0.013187)
(24.8934 -0.108179 -0.158601)
(24.9671 -0.0979075 -0.332415)
(25.0595 -0.0982145 -0.530298)
(25.2866 -0.0741082 -0.70773)
(25.6104 -0.0556457 -0.851106)
(25.9988 -0.0634102 -1.0446)
(26.539 -0.0926572 -1.2059)
(26.7925 -0.101366 -1.17069)
(27.0295 -0.175327 -1.2366)
(27.6478 0.0308182 -1.40252)
(39.9993 3.81102e-05 0.0389403)
(39.9858 -0.000185707 0.1169)
(39.9557 -0.00015479 0.195176)
(39.9083 -0.000230069 0.274278)
(39.8428 -0.000399978 0.354772)
(39.7603 -0.000489452 0.437178)
(39.6618 -0.000478861 0.521982)
(39.546 -0.000444213 0.609664)
(39.4112 -0.000443778 0.700691)
(39.2563 -0.00049168 0.795525)
(39.0808 -0.000569355 0.894634)
(38.884 -0.000649053 0.998595)
(38.6646 -0.000681494 1.10825)
(38.42 -0.000678444 1.22519)
(38.1501 -0.000431014 1.35177)
(37.8464 -0.000362573 1.49298)
(37.5343 0.00127477 1.65271)
(37.1347 0.00365182 1.81053)
(36.664 0.00396316 1.88457)
(36.233 0.00388664 1.94012)
(35.8236 0.00544891 2.01801)
(35.3984 0.00460023 2.10207)
(34.9243 0.00213106 2.2472)
(34.3635 -0.000791295 2.39139)
(33.746 -0.00765253 2.52813)
(33.0413 -0.0117891 2.65284)
(32.1695 -0.00571795 2.78526)
(31.207 0.00233929 2.99825)
(30.1498 0.00142642 3.19897)
(28.9853 0.00178452 3.26466)
(27.8873 0.0103181 3.17095)
(26.9198 0.0307474 2.89994)
(26.0412 0.0667334 2.30885)
(25.3957 0.132204 1.07514)
(25.5633 0.193892 -0.392562)
(25.3241 -0.0672693 -0.060438)
(25.3109 -0.466688 1.73656)
(24.7464 -0.711653 2.62838)
(24.2199 -0.749227 2.77006)
(23.8157 -0.331933 1.53437)
(23.5797 -0.157181 0.862195)
(23.6868 -0.228253 1.08659)
(23.544 -0.279638 1.04619)
(23.4153 -0.271074 0.730049)
(23.3746 -0.247643 0.451173)
(23.4675 -0.228887 0.201265)
(23.631 -0.22122 -0.045312)
(24.021 -0.223187 -0.342513)
(24.075 -0.178661 -0.75196)
(24.3088 -0.19149 -0.833631)
(24.6838 -0.228932 -1.09625)
(24.9228 -0.181941 -1.26576)
(25.4187 -0.270477 -1.39983)
(25.4342 -0.148657 -1.44052)
(39.9993 3.81106e-05 0.0389382)
(39.9859 -0.000185708 0.116906)
(39.9557 -0.000154789 0.195179)
(39.9081 -0.000230061 0.274283)
(39.8426 -0.000399965 0.354781)
(39.7603 -0.000489433 0.437188)
(39.6618 -0.000478834 0.521989)
(39.546 -0.000444169 0.60967)
(39.4111 -0.000443736 0.700704)
(39.2562 -0.000491539 0.795552)
(39.0806 -0.00056951 0.894685)
(38.8839 -0.000647877 0.998666)
(38.6645 -0.000677904 1.10835)
(38.4204 -0.00067493 1.22522)
(38.1499 -0.000414872 1.35181)
(37.8497 -0.000391564 1.49249)
(37.5285 0.00144232 1.65311)
(37.161 0.00321601 1.82542)
(36.7102 0.00363728 1.89057)
(36.2646 0.00392818 1.93549)
(35.8437 0.00610231 2.01152)
(35.4037 0.00607545 2.10528)
(34.8756 0.00213295 2.24594)
(34.3103 -0.00115137 2.38825)
(33.7101 -0.00789978 2.52259)
(32.9584 -0.0123932 2.67818)
(32.0901 -0.00488346 2.87433)
(31.1808 0.00364176 3.10518)
(30.1753 0.00226602 3.27002)
(29.069 0.00157181 3.30846)
(28.0099 0.00896953 3.19981)
(27.0761 0.0284457 2.9724)
(26.2996 0.0596227 2.53118)
(25.7961 0.129649 1.58256)
(26.0064 0.266991 0.185031)
(26.2737 -0.0119699 -0.22671)
(26.5251 -0.448017 -0.110234)
(26.3255 -0.663803 0.159424)
(25.7791 -0.813916 0.360179)
(25.1892 -0.738137 0.36628)
(24.7106 -0.271719 0.313609)
(24.663 -0.200669 0.300889)
(24.5181 -0.203631 0.0723701)
(24.3464 -0.19059 -0.208294)
(24.2909 -0.166305 -0.453391)
(24.3627 -0.14051 -0.687725)
(24.5326 -0.117071 -0.91585)
(24.797 -0.110998 -1.1636)
(25.039 -0.143598 -1.34033)
(25.264 -0.0705915 -1.73638)
(25.6051 0.0475677 -2.20462)
(25.5904 0.0251261 -1.99621)
(25.8574 -0.0466119 -1.9644)
(26.0043 0.148423 -2.32786)
(39.9993 3.64055e-05 0.0463523)
(39.9862 -0.000181281 0.139172)
(39.9568 -0.000154448 0.232525)
(39.9109 -0.000227509 0.327122)
(39.8476 -0.000391518 0.42375)
(39.7681 -0.000478543 0.523119)
(39.6731 -0.0004701 0.625825)
(39.5615 -0.000438606 0.732407)
(39.4315 -0.000438883 0.843378)
(39.282 -0.000482851 0.959255)
(39.1126 -0.000551355 1.08056)
(38.9228 -0.000613207 1.20789)
(38.712 -0.000633302 1.34207)
(38.4786 -0.000587895 1.48432)
(38.2223 -0.00043748 1.63658)
(37.9423 -0.000166703 1.80218)
(37.645 0.000642562 1.98218)
(37.3351 0.00396358 2.19875)
(36.9578 0.00742856 2.34373)
(36.5144 0.00668492 2.42832)
(36.028 0.0063854 2.49562)
(35.4715 0.00237801 2.59863)
(34.9049 -0.00304921 2.77533)
(34.3369 -0.00826849 3.00704)
(33.6731 -0.0178929 3.26431)
(32.8601 -0.0203192 3.54331)
(31.8065 -0.0086104 3.78807)
(30.6926 0.00735338 4.05352)
(29.6018 0.0112809 4.29362)
(28.475 0.0116914 4.35222)
(27.3756 0.0217114 4.18361)
(26.3155 0.0529695 3.8057)
(25.1493 0.120745 3.07395)
(24.0843 0.328083 1.59766)
(23.665 0.686409 0.23206)
(15.2146 0.0478445 2.584)
(16.7326 -0.574764 2.10014)
(17.4286 -1.0616 1.60879)
(17.8974 -1.68019 2.21786)
(19.2957 -0.926935 0.357103)
(20.338 -0.282895 0.732915)
(20.4028 -0.724632 2.08611)
(20.445 -0.64426 1.89238)
(20.6445 -0.533748 1.44755)
(20.8675 -0.467294 1.04801)
(21.0426 -0.440089 0.69696)
(21.2789 -0.395472 0.341162)
(21.5119 -0.40141 0.00419208)
(21.7805 -0.381797 -0.376436)
(21.8561 -0.313952 -0.660224)
(21.8259 -0.224923 -0.957365)
(21.8286 -0.185179 -1.17037)
(22.1213 -0.219127 -1.31978)
(21.5808 -0.348932 -1.69189)
(39.9994 3.64043e-05 0.0463499)
(39.9862 -0.000181274 0.139179)
(39.9569 -0.000154479 0.23253)
(39.9107 -0.000227365 0.327131)
(39.8473 -0.000392093 0.423767)
(39.768 -0.000480314 0.523136)
(39.6732 -0.000472122 0.625837)
(39.5616 -0.00044065 0.732414)
(39.4315 -0.000440909 0.843387)
(39.2819 -0.000484775 0.959275)
(39.1124 -0.000553421 1.0806)
(38.9228 -0.000614404 1.20796)
(38.712 -0.000629978 1.34218)
(38.4788 -0.000585068 1.48444)
(38.2225 -0.000421996 1.63681)
(37.9438 -0.000190992 1.80189)
(37.6464 0.000803763 1.98361)
(37.3438 0.00327903 2.18525)
(37.0121 0.00762182 2.35124)
(36.5919 0.00692347 2.45963)
(36.0826 0.00759633 2.55291)
(35.5277 0.00393919 2.68229)
(34.9166 -0.00327402 2.81807)
(34.2971 -0.00847775 3.01004)
(33.5999 -0.0186714 3.2488)
(32.7394 -0.020251 3.53211)
(31.7457 -0.00801031 3.80154)
(30.7472 0.00648602 4.09535)
(29.7056 0.00959948 4.3071)
(28.5968 0.00997714 4.35351)
(27.5315 0.0199805 4.19435)
(26.5619 0.0492008 3.87999)
(25.6762 0.11164 3.30445)
(25.002 0.400349 2.17327)
(25.3506 1.29878 0.568933)
(26.5181 2.37633 -1.16908)
(27.6863 2.4307 -1.40633)
(27.6452 2.20726 -1.12779)
(26.949 1.97994 -0.779591)
(26.7065 1.49196 -0.602874)
(24.2945 0.394741 0.151174)
(23.9684 0.106717 0.326628)
(23.7346 0.177692 0.0489474)
(23.5521 0.273262 -0.287052)
(23.3895 0.33774 -0.580555)
(23.205 0.382723 -0.830456)
(23.0167 0.459191 -1.05276)
(22.8207 0.505131 -1.23266)
(22.6512 0.531248 -1.39984)
(22.3823 0.635692 -1.60789)
(22.3472 0.75655 -1.76241)
(22.0337 0.839092 -1.88661)
(22.1684 0.838639 -1.81786)
(21.0952 0.824506 -2.30519)
(39.9993 3.56226e-05 0.0535082)
(39.9867 -0.000178528 0.160652)
(39.9586 -0.000149136 0.268597)
(39.9146 -0.000221026 0.378245)
(39.8541 -0.000383972 0.490447)
(39.7781 -0.000472113 0.605921)
(39.6872 -0.000466575 0.725307)
(39.5802 -0.000437017 0.849233)
(39.4554 -0.000436018 0.978327)
(39.3117 -0.000474099 1.11321)
(39.1488 -0.00053395 1.25448)
(38.9664 -0.000583031 1.40272)
(38.7638 -0.000589424 1.55859)
(38.5403 -0.000525122 1.72292)
(38.2955 -0.000403025 1.89671)
(38.0309 -9.4356e-05 2.08156)
(37.7474 0.000245945 2.27753)
(37.4561 0.00187483 2.49021)
(37.1502 0.00305448 2.69184)
(36.8058 0.00140533 2.87794)
(36.3929 -0.00057369 3.04584)
(35.8907 -0.00160776 3.26193)
(35.2215 -0.00583434 3.43609)
(34.5561 -0.0159513 3.66982)
(33.8798 -0.0284585 4.0677)
(33.0518 -0.033393 4.56476)
(31.9537 -0.00832973 4.97688)
(30.7078 0.021453 5.20034)
(29.5025 0.0246977 5.37462)
(28.2889 0.0212548 5.43607)
(27.11 0.0348925 5.3111)
(25.9378 0.0714324 4.98736)
(24.4437 0.172439 4.51036)
(23.3211 0.534006 3.76114)
(12.4564 0.422151 -0.0802445)
(11.9305 0.0283087 2.61289)
(12.0878 -0.31115 5.4348)
(11.5794 0.365285 3.91452)
(11.5786 0.542127 2.97508)
(10.4769 0.0473151 2.14199)
(13.7412 -0.277386 1.04362)
(13.929 -0.371106 0.793466)
(13.865 -0.23072 0.769063)
(14.1744 -0.0996726 0.642413)
(14.4685 -0.0198011 0.459464)
(14.5166 0.044674 0.262252)
(14.5233 0.136533 0.0302609)
(14.5083 0.222169 -0.273786)
(14.6533 0.223583 -0.627894)
(14.8326 0.160782 -0.916298)
(15.0946 0.0705359 -1.2142)
(15.6476 -0.0378624 -1.60642)
(16.4989 -0.110885 -1.98686)
(17.6043 -0.66811 -3.00328)
(39.9994 3.56213e-05 0.0535049)
(39.9868 -0.000178521 0.160658)
(39.9586 -0.000149167 0.268599)
(39.9144 -0.00022088 0.378249)
(39.8539 -0.000384548 0.490461)
(39.778 -0.00047391 0.605939)
(39.6872 -0.000468663 0.725326)
(39.5803 -0.000439197 0.849254)
(39.4554 -0.000438155 0.978357)
(39.3116 -0.000476482 1.11325)
(39.1487 -0.000535253 1.25455)
(38.9664 -0.000582485 1.40282)
(38.7639 -0.000588164 1.55872)
(38.5405 -0.000522909 1.72304)
(38.2959 -0.000394295 1.89689)
(38.0314 -8.58344e-05 2.08138)
(37.7495 0.000268656 2.27746)
(37.4574 0.00186557 2.48447)
(37.1543 0.00303131 2.6912)
(36.8217 0.00148358 2.89314)
(36.4114 0.000184383 3.08923)
(35.9586 -0.00168828 3.29097)
(35.3087 -0.00744483 3.51041)
(34.5655 -0.0156032 3.72738)
(33.818 -0.0296962 4.03532)
(32.9156 -0.0339563 4.49348)
(31.8134 -0.0065853 4.84697)
(30.7439 0.017805 5.18544)
(29.6383 0.0218594 5.43813)
(28.4598 0.0185743 5.47934)
(27.3124 0.0330622 5.29139)
(26.2628 0.0678312 4.98094)
(25.2323 0.187244 4.5371)
(24.2376 0.842968 3.92085)
(25.2688 2.45718 3.22539)
(12.6259 0.0381123 2.58442)
(13.3383 0.214448 1.11346)
(13.042 1.13311 0.352769)
(11.9882 1.62562 0.507279)
(11.6423 1.43552 1.12922)
(12.5246 0.936394 1.42456)
(12.5731 0.735972 1.07979)
(12.4114 0.852589 0.633014)
(12.4036 0.992185 0.294183)
(12.5301 1.07813 0.0472452)
(12.6795 1.15883 -0.164483)
(12.894 1.29532 -0.353156)
(13.1548 1.4398 -0.485475)
(13.3696 1.54741 -0.578704)
(13.5759 1.61 -0.708176)
(13.8024 1.65595 -0.885363)
(14.1179 1.69656 -1.00946)
(14.6436 1.74153 -1.08092)
(14.4879 1.35592 -1.4524)
(39.9993 3.30761e-05 0.0603182)
(39.9874 -0.000174924 0.181101)
(39.9608 -0.000152444 0.302899)
(39.9192 -0.000222427 0.426781)
(39.862 -0.000378128 0.553711)
(39.7901 -0.000461089 0.684502)
(39.704 -0.000452498 0.819921)
(39.6026 -0.000418576 0.960725)
(39.4841 -0.000410359 1.10765)
(39.3474 -0.000439226 1.26137)
(39.1921 -0.000488602 1.42246)
(39.0178 -0.000527824 1.59139)
(38.8239 -0.000524519 1.7685)
(38.6097 -0.000461081 1.95408)
(38.3748 -0.000326906 2.14826)
(38.12 -0.000126614 2.35115)
(37.8468 0.000111389 2.56182)
(37.5592 0.000565057 2.78038)
(37.259 0.000313578 3.00033)
(36.9398 -0.00115275 3.22341)
(36.5859 -0.00337753 3.46204)
(36.1925 -0.00303488 3.75709)
(35.746 0.00013832 4.0775)
(35.0784 -0.0109532 4.41977)
(34.3388 -0.026654 4.9022)
(33.6201 -0.0372098 5.55345)
(32.7245 -0.0108579 6.11041)
(31.5385 0.0350386 6.46448)
(30.0971 0.0549125 6.65706)
(28.5367 0.0389992 6.63939)
(27.2356 0.0327049 6.35225)
(26.1336 0.0423288 6.02501)
(24.9976 0.0767229 5.96229)
(24.2254 0.349761 6.76971)
(22.7766 0.92185 8.82214)
(9.38709 0.0785255 2.67298)
(8.85816 0.374536 1.16589)
(6.0143 1.37957 -0.8565)
(-4.00765 -1.52166 -3.20079)
(-0.567774 -2.02786 -3.05541)
(-1.41926 -1.71644 -2.14892)
(1.28034 -1.44067 -0.482384)
(2.30551 -1.22646 -0.182458)
(3.64103 -0.951179 -0.379386)
(5.35682 -0.889742 -0.921559)
(7.16158 -1.01079 -1.39672)
(9.02312 -1.09223 -1.72979)
(11.0095 -1.07842 -2.05115)
(12.945 -1.08583 -2.39732)
(14.7349 -1.13084 -2.7415)
(16.3473 -1.191 -3.10153)
(17.9772 -1.20802 -3.49995)
(19.5639 -1.20984 -3.87327)
(21.3207 -1.29462 -4.69995)
(39.9994 3.30764e-05 0.0603146)
(39.9875 -0.000174925 0.181106)
(39.9608 -0.000152442 0.302899)
(39.919 -0.000222421 0.426785)
(39.8618 -0.000378107 0.553725)
(39.79 -0.000461144 0.684522)
(39.7041 -0.000452339 0.819944)
(39.6027 -0.000419521 0.960753)
(39.4841 -0.00041303 1.10769)
(39.3473 -0.000442529 1.26143)
(39.192 -0.000490897 1.42253)
(39.0178 -0.000528367 1.59148)
(38.824 -0.000524503 1.76861)
(38.6099 -0.000460452 1.95418)
(38.3751 -0.000326415 2.14836)
(38.1204 -0.000122293 2.35109)
(37.8475 0.000117224 2.56161)
(37.5593 0.000578733 2.7786)
(37.2566 0.00032764 2.99789)
(36.9357 -0.00115698 3.2225)
(36.5843 -0.00327502 3.46861)
(36.198 -0.003234 3.75404)
(35.7713 0.00105198 4.14127)
(35.167 -0.00879769 4.46941)
(34.3496 -0.0320632 4.892)
(33.5305 -0.0405448 5.44382)
(32.4446 -0.0182574 5.95059)
(31.2245 0.0232223 6.34915)
(30.1013 0.0446193 6.61969)
(28.8608 0.0288062 6.6614)
(27.5108 0.0278899 6.40465)
(26.3373 0.041645 6.01872)
(25.341 0.0808382 5.79465)
(24.1973 0.414177 6.06786)
(24.6445 1.69175 7.81629)
(22.4703 2.32579 8.35682)
(20.6972 2.08686 6.49026)
(18.1427 2.17929 4.05325)
(15.515 2.03531 2.46655)
(13.3707 1.8661 1.61544)
(11.4648 1.48926 0.985519)
(10.0278 1.12383 0.481596)
(9.1745 1.04595 0.169173)
(8.78777 1.15611 0.0600466)
(8.71802 1.2625 0.0332222)
(8.84791 1.28764 -0.00980026)
(9.24875 1.33713 -0.0489769)
(9.90983 1.4694 -0.12312)
(10.6388 1.57081 -0.207665)
(11.3935 1.59471 -0.313799)
(12.1771 1.55074 -0.4914)
(13.114 1.51765 -0.740509)
(14.3135 1.51846 -0.939598)
(15.0475 1.31956 -1.42834)
(39.9994 3.19689e-05 0.0666989)
(39.9883 -0.000173044 0.200255)
(39.9634 -0.000148189 0.335028)
(39.9247 -0.000216868 0.472267)
(39.8713 -0.00037057 0.613086)
(39.8042 -0.000452874 0.758414)
(39.7238 -0.000444835 0.909136)
(39.6289 -0.000410628 1.06612)
(39.5177 -0.000399881 1.23018)
(39.3889 -0.000424251 1.40204)
(39.242 -0.000467855 1.58226)
(39.0765 -0.000500259 1.7712)
(38.8916 -0.000494387 1.96895)
(38.6863 -0.000430102 2.17533)
(38.4601 -0.000307173 2.38981)
(38.2133 -0.000138575 2.61148)
(37.9472 3.55506e-05 2.83897)
(37.6647 0.000202435 3.07108)
(37.3693 0.000196655 3.30608)
(37.0633 -4.97997e-05 3.54867)
(36.7474 -0.000664105 3.81218)
(36.4205 0.000382256 4.13248)
(36.0917 0.00124923 4.53188)
(35.7081 0.0213611 5.06263)
(35.0117 0.0169304 5.70266)
(34.3776 -0.00353295 6.36051)
(33.6959 -0.0124383 6.95629)
(32.851 -0.00334991 7.64617)
(31.6864 0.0425168 8.19746)
(30.1785 0.0865991 8.33251)
(28.3194 0.0847804 7.71131)
(26.3891 0.0603474 6.98928)
(25.006 0.0466134 6.78961)
(23.594 0.116313 7.13927)
(24.3672 0.586003 10.1662)
(21.4621 0.493861 10.4695)
(18.2252 0.190603 7.86983)
(14.7705 0.128501 4.96476)
(10.8837 -0.545716 2.31815)
(8.68098 -1.12264 0.188365)
(7.84998 -1.59901 -1.29227)
(8.3884 -1.9319 -2.05208)
(9.65842 -1.98348 -2.44307)
(11.3514 -1.84031 -2.76835)
(13.2696 -1.68527 -3.14326)
(15.1947 -1.6125 -3.50265)
(17.0077 -1.55719 -3.77073)
(18.6832 -1.4874 -3.96846)
(20.1805 -1.42338 -4.14693)
(21.4703 -1.38205 -4.31416)
(22.5727 -1.3432 -4.48036)
(23.5748 -1.2824 -4.61729)
(24.5537 -1.2028 -4.77224)
(25.1707 -1.16787 -4.95305)
(39.9995 3.19692e-05 0.0666948)
(39.9883 -0.000173045 0.200259)
(39.9635 -0.000148187 0.335026)
(39.9245 -0.000216864 0.472268)
(39.8711 -0.000370547 0.613097)
(39.8042 -0.000452904 0.758432)
(39.7239 -0.0004446 0.909156)
(39.629 -0.000411443 1.06614)
(39.5177 -0.000402468 1.23021)
(39.3888 -0.000427397 1.40208)
(39.2419 -0.000470594 1.58232)
(39.0765 -0.000505217 1.77127)
(38.8917 -0.000499195 1.96903)
(38.6865 -0.000432147 2.17542)
(38.4604 -0.000312594 2.38989)
(38.2136 -0.00014531 2.61153)
(37.9475 3.40149e-05 2.83893)
(37.6649 0.00020329 3.07079)
(37.369 0.000208536 3.30625)
(37.0621 -5.80949e-05 3.54971)
(36.7467 -0.000594033 3.81643)
(36.4229 8.91275e-05 4.13003)
(36.0978 0.00245623 4.54541)
(35.7664 0.0160771 5.03711)
(35.2641 0.0128128 5.66858)
(34.5052 -0.00637324 6.30899)
(33.7138 -0.0222327 7.05039)
(32.4765 -0.00858057 7.61052)
(31.1734 0.0354275 7.93215)
(29.9144 0.0723634 8.06045)
(28.5074 0.0827697 7.87594)
(26.9022 0.0542616 7.25649)
(25.3171 0.0472644 6.78076)
(23.7668 0.0407711 7.10432)
(23.2457 0.508909 8.66258)
(24.0279 1.10064 9.77556)
(24.3028 1.37275 9.17373)
(23.4964 1.47812 7.68202)
(22.021 1.44592 5.92275)
(20.23 1.3607 4.27417)
(18.4425 1.20631 2.99055)
(16.9414 1.01412 2.0718)
(15.8703 0.915789 1.39489)
(15.2507 0.943612 0.883166)
(14.9805 1.01477 0.459947)
(15.0365 1.02469 0.101217)
(15.4577 1.00079 -0.1842)
(16.1441 0.975631 -0.422069)
(16.9259 0.936758 -0.642225)
(17.725 0.857017 -0.870991)
(18.5432 0.750284 -1.09531)
(19.4512 0.653345 -1.33303)
(20.4157 0.614744 -1.54555)
(20.9971 0.418623 -2.11685)
(39.9995 2.9019e-05 0.0725707)
(39.9892 -0.000170072 0.21788)
(39.9665 -0.000153576 0.364611)
(39.9311 -0.000221248 0.5142)
(39.8822 -0.000367553 0.667914)
(39.8205 -0.000444281 0.826813)
(39.7467 -0.000433354 0.991909)
(39.6592 -0.000397267 1.1642)
(39.5562 -0.000383654 1.34462)
(39.4364 -0.000403014 1.534)
(39.299 -0.000441247 1.73293)
(39.1432 -0.000469588 1.94173)
(38.9678 -0.000460384 2.16033)
(38.7716 -0.000391943 2.38818)
(38.5533 -0.000267247 2.62413)