/*--------------------------------*- C++ -*----------------------------------*\
| =========                 |                                                 |
| \\      /  F ield         | OpenFOAM: The Open Source CFD Toolbox           |
|  \\    /   O peration     | Version:  4.1                                   |
|   \\  /    A nd           | Web:      www.OpenFOAM.org                      |
|    \\/     M anipulation  |                                                 |
\*---------------------------------------------------------------------------*/
FoamFile
{
    version     2.0;
    format      ascii;
    class       surfaceScalarField;
    location    "23";
    object      phi;
}
// * * * * * * * * * * * * * * * * * * * * * * * * * * * * * * * * * * * * * //

dimensions      [0 3 -1 0 0 0 0];

internalField   nonuniform List<scalar> 
11516
(
-2.1598e+10
-5.34381e+09
-1.15468e+10
-1.0546e+10
-5.53316e+09
-4.41635e+09
-1.96506e+10
-7.50983e+08
1.09514e+10
-1.37359e+10
-1.1667e+09
-3.52627e+09
-1.18165e+10
-4.15212e+08
-1.8927e+08
-1.19715e+10
-6.13077e+08
1.89672e+09
-1.10109e+10
-5.26521e+08
4.73365e+08
-1.21213e+10
1.00495e+08
1.6611e+09
-1.32435e+10
2.149e+08
1.34302e+09
-1.43147e+10
1.50672e+08
1.19434e+09
-1.51977e+10
6.05059e+07
9.87483e+08
-1.58336e+10
-3.81017e+06
7.41373e+08
-1.6221e+10
-6.5989e+07
5.33329e+08
-1.63982e+10
-1.18685e+08
3.74243e+08
-1.6431e+10
-1.47352e+08
2.56786e+08
-1.63844e+10
-1.63744e+08
1.87158e+08
-1.62956e+10
-1.77139e+08
1.45257e+08
-1.61815e+10
-1.87297e+08
1.34474e+08
-1.60205e+10
-1.98979e+08
1.0122e+08
-1.58257e+10
-2.03659e+08
7.24003e+07
-1.55961e+10
-2.16065e+08
3.29286e+07
-1.53292e+10
-2.29974e+08
172261
-1.50229e+10
-2.4416e+08
-3.47742e+07
-1.46748e+10
-2.57374e+08
-6.65017e+07
-1.42841e+10
-2.71008e+08
-9.81905e+07
-1.38546e+10
-2.85167e+08
-1.25928e+08
-1.33894e+10
-2.99581e+08
-1.5135e+08
-1.2896e+10
-3.1351e+08
-1.69349e+08
-1.23822e+10
-3.2592e+08
-1.7989e+08
-1.18601e+10
-3.35447e+08
-1.78747e+08
-1.13459e+10
-3.40208e+08
-1.63149e+08
-1.08626e+10
-3.37967e+08
-1.28664e+08
-1.04391e+10
-3.26364e+08
-6.90299e+07
-1.00926e+10
-3.05523e+08
830995
-9.8254e+09
-2.79029e+08
6.97105e+07
-9.64182e+09
-2.52839e+08
1.44856e+08
-9.53791e+09
-2.29271e+08
2.16527e+08
-9.51036e+09
-2.08814e+08
2.84621e+08
-9.5558e+09
-1.92271e+08
3.46119e+08
-9.67014e+09
-1.80541e+08
3.99182e+08
-9.84847e+09
-1.75142e+08
4.42055e+08
-1.00837e+10
-1.7663e+08
4.74676e+08
-1.03693e+10
-1.84625e+08
4.99514e+08
-1.0705e+10
-1.96854e+08
5.24073e+08
-1.11133e+10
-2.07807e+08
5.66356e+08
-1.16545e+10
-2.09987e+08
6.51216e+08
-1.24137e+10
-2.08234e+08
8.04091e+08
-1.34932e+10
-2.42053e+08
1.0657e+09
-1.50064e+10
-3.78733e+08
1.5087e+09
-1.69435e+10
-7.93546e+08
2.18016e+09
-2.06805e+10
-1.1423e+09
4.23871e+09
-2.78845e+10
-7.80554e+07
6.6609e+09
-3.60804e+10
-1.57365e+09
9.24355e+09
-1.34138e+08
4.2601e+08
-3.17943e+10
-1.0145e+10
-3.13749e+10
-5.55418e+09
-2.83254e+10
-3.42362e+09
-2.71383e+10
-2.01186e+09
-2.55819e+10
-1.65422e+09
-2.58036e+10
-1.19259e+08
-2.60952e+10
-1.85763e+07
-2.64244e+10
5.97617e+08
-2.67177e+10
6.33892e+08
-2.71316e+10
6.5385e+08
-2.75321e+10
5.22855e+08
-2.78194e+10
3.29102e+08
-2.79848e+10
1.39869e+08
-2.80553e+10
-9.76254e+06
-2.80547e+10
-1.10969e+08
-2.80158e+10
-1.73485e+08
-2.7961e+10
-2.04441e+08
-2.78954e+10
-2.261e+08
-2.78012e+10
-2.63646e+08
-2.76815e+10
-2.9826e+08
-2.75384e+10
-3.37767e+08
-2.73801e+10
-3.72688e+08
-2.72018e+10
-4.09402e+08
-2.70055e+10
-4.42653e+08
-2.67902e+10
-4.76332e+08
-2.65605e+10
-5.0615e+08
-2.63176e+10
-5.35212e+08
-2.60664e+10
-5.58645e+08
-2.58084e+10
-5.78491e+08
-2.55464e+10
-5.91741e+08
-2.52825e+10
-5.97215e+08
-2.50167e+10
-5.94351e+08
-2.47514e+10
-5.78894e+08
-2.44848e+10
-5.54948e+08
-2.42178e+10
-5.24212e+08
-2.39539e+10
-4.90082e+08
-2.36951e+10
-4.57087e+08
-2.34471e+10
-4.22661e+08
-2.32135e+10
-3.90347e+08
-2.30008e+10
-3.59741e+08
-2.28165e+10
-3.31583e+08
-2.26677e+10
-3.07421e+08
-2.25604e+10
-2.86634e+08
-2.25015e+10
-2.65995e+08
-2.25021e+10
-2.34967e+08
-2.25834e+10
-1.7827e+08
-2.27936e+10
-7.50484e+07
-2.3242e+10
9.57453e+07
-2.41879e+10
4.07085e+08
-2.61739e+10
9.69411e+08
-3.01896e+10
2.57647e+09
-3.60686e+10
5.34841e+09
-4.71629e+10
9.20689e+09
-4.38091e+06
-3.33575e+10
-3.29455e+09
-6.8624e+09
-3.64159e+10
-3.53044e+09
2.3708e+09
-3.67117e+10
1.04303e+09
1.02679e+10
-3.54486e+10
-1.48443e+09
-3.24387e+09
-3.48466e+10
-1.14278e+09
4.19264e+08
-3.52746e+10
-1.26427e+08
2.50839e+09
-3.59946e+10
-1.05987e+08
1.35459e+09
-3.5931e+10
1.66136e+08
1.49488e+09
-3.6046e+10
1.81525e+08
1.34662e+09
-3.61473e+10
1.63577e+08
1.20218e+09
-3.62085e+10
1.00045e+08
1.0118e+09
-3.62483e+10
4.36368e+07
7.90851e+08
-3.62399e+10
-9.76522e+06
5.86941e+08
-3.61858e+10
-4.86194e+07
4.15728e+08
-3.60902e+10
-7.02733e+07
2.82127e+08
-3.59705e+10
-8.62223e+07
1.9256e+08
-3.58149e+10
-9.30147e+07
1.20582e+08
-3.5613e+10
-9.64855e+07
6.30286e+07
-3.53811e+10
-9.96125e+07
8.89617e+06
-3.51338e+10
-9.69649e+07
-4.22678e+07
-3.48725e+10
-9.52194e+07
-1.01891e+08
-3.45958e+10
-9.27689e+07
-1.59977e+08
-3.43059e+10
-8.83817e+07
-2.18018e+08
-3.40005e+10
-8.17943e+07
-2.7478e+08
-3.36821e+10
-7.328e+07
-3.29917e+08
-3.33483e+10
-6.28089e+07
-3.84936e+08
-3.30027e+10
-5.02171e+07
-4.36418e+08
-3.26441e+10
-3.5038e+07
-4.8411e+08
-3.2275e+10
-1.65234e+07
-5.24449e+08
-3.18948e+10
5.97073e+06
-5.5659e+08
-3.15047e+10
3.30489e+07
-5.76435e+08
-3.11035e+10
6.52134e+07
-5.81791e+08
-3.06908e+10
1.03032e+08
-5.67593e+08
-3.02659e+10
1.48573e+08
-5.50118e+08
-2.98279e+10
2.00957e+08
-5.40971e+08
-2.93945e+10
2.53862e+08
-5.08823e+08
-2.89703e+10
3.05412e+08
-4.74337e+08
-2.85491e+10
3.5423e+08
-4.48082e+08
-2.81247e+10
3.97618e+08
-4.31199e+08
-2.76899e+10
4.34214e+08
-4.26936e+08
-2.72379e+10
4.62718e+08
-4.3556e+08
-2.67653e+10
4.82251e+08
-4.54482e+08
-2.62685e+10
4.93803e+08
-4.80386e+08
-2.57529e+10
4.99169e+08
-4.98538e+08
-2.52224e+10
4.99744e+08
-4.90812e+08
-2.46856e+10
4.97971e+08
-4.32012e+08
-2.41671e+10
4.95437e+08
-2.82834e+08
-2.36933e+10
4.82056e+08
7.95816e+06
-2.32807e+10
4.76825e+08
4.80076e+08
-2.30333e+10
5.21632e+08
1.23267e+09
-2.22314e+10
5.76701e+08
2.62778e+09
-1.96981e+10
2.63948e+08
3.56032e+09
-1.23507e+10
-1.07244e+09
2.67883e+09
-2.67974e+08
1.38134e+08
-3.2617e+10
-9.64303e+09
-3.63879e+10
-5.20752e+09
-3.59825e+10
-2.73827e+09
-3.69227e+10
-2.53318e+09
-3.72658e+10
-2.44527e+09
-3.694e+10
-5.65253e+08
-3.68238e+10
-2.23498e+08
-3.61112e+10
8.23497e+07
-3.56074e+10
3.52622e+08
-3.52922e+10
5.4567e+08
-3.5124e+10
4.95654e+08
-3.50632e+10
3.49639e+08
-3.50959e+10
1.98252e+08
-3.51881e+10
7.10507e+07
-3.52995e+10
-3.55533e+07
-3.54247e+10
-1.02579e+08
-3.5543e+10
-1.50468e+08
-3.56412e+10
-1.94609e+08
-3.57444e+10
-2.30521e+08
-3.58433e+10
-2.68232e+08
-3.5942e+10
-3.10875e+08
-3.60353e+10
-3.53712e+08
-3.61219e+10
-3.96544e+08
-3.61952e+10
-4.38953e+08
-3.62552e+10
-4.78723e+08
-3.62963e+10
-5.18028e+08
-3.63191e+10
-5.53932e+08
-3.63184e+10
-5.86797e+08
-3.62922e+10
-6.13961e+08
-3.62344e+10
-6.36172e+08
-3.6139e+10
-6.50771e+08
-3.59993e+10
-6.58024e+08
-3.58069e+10
-6.54637e+08
-3.5555e+10
-6.41257e+08
-3.5237e+10
-6.21043e+08
-3.48519e+10
-5.9762e+08
-3.44022e+10
-5.74617e+08
-3.38901e+10
-5.51424e+08
-3.33169e+10
-5.36079e+08
-3.2684e+10
-5.29998e+08
-3.19952e+10
-5.33733e+08
-3.12591e+10
-5.44665e+08
-3.04816e+10
-5.63915e+08
-2.96681e+10
-5.85497e+08
-2.88213e+10
-6.00002e+08
-2.79421e+10
-5.91356e+08
-2.70332e+10
-5.37305e+08
-2.61117e+10
-4.14578e+08
-2.51616e+10
-1.6171e+08
-2.4222e+10
4.21747e+08
-2.27497e+10
1.49467e+09
-2.03278e+10
2.986e+09
-1.22763e+10
-2.57968e+07
-5.64918e+09
-3.58976e+10
9.07138e+08
-3.49138e+09
-3.55153e+10
1.62517e+09
3.14054e+08
-2.88064e+10
1.09934e+09
2.36513e+09
-3.1909e+10
2.99076e+08
-5.91824e+08
-3.11983e+10
-9.361e+07
-3.53133e+08
-3.02068e+10
4.68523e+08
9.19056e+08
-3.02489e+10
3.47676e+08
9.65439e+08
-2.98128e+10
2.47165e+08
7.77208e+08
-2.89904e+10
9.35692e+07
4.38409e+08
-2.81987e+10
1.33828e+08
3.11419e+08
-2.75222e+10
1.42426e+08
2.40383e+08
-2.70565e+10
1.52937e+08
2.25293e+08
-2.6756e+10
1.57617e+08
1.86435e+08
-2.65758e+10
1.7079e+08
1.29548e+08
-2.6482e+10
2.04706e+08
5.71094e+07
-2.64479e+10
2.1595e+08
8.46422e+06
-2.64431e+10
2.30179e+08
-4.49828e+07
-2.6429e+10
2.3024e+08
-1.22256e+08
-2.6404e+10
2.34847e+08
-1.84181e+08
-2.63833e+10
2.41257e+08
-2.48501e+08
-2.63697e+10
2.48935e+08
-3.0972e+08
-2.63649e+10
2.51905e+08
-3.79266e+08
-2.63591e+10
2.54516e+08
-4.47171e+08
-2.63509e+10
2.55361e+08
-5.15724e+08
-2.6336e+10
2.56131e+08
-5.81429e+08
-2.63161e+10
2.56027e+08
-6.44352e+08
-2.62914e+10
2.55309e+08
-7.02623e+08
-2.62623e+10
2.54188e+08
-7.56286e+08
-2.62263e+10
2.53131e+08
-8.0402e+08
-2.61817e+10
2.52402e+08
-8.44024e+08
-2.61209e+10
2.5311e+08
-8.78538e+08
-2.60338e+10
2.57228e+08
-9.1047e+08
-2.59067e+10
2.62842e+08
-9.35813e+08
-2.57462e+10
2.64323e+08
-9.45679e+08
-2.55635e+10
2.62089e+08
-9.47817e+08
-2.53401e+10
2.63276e+08
-9.4761e+08
-2.50715e+10
2.70319e+08
-9.54905e+08
-2.47629e+10
2.74233e+08
-9.62838e+08
-2.44232e+10
2.73331e+08
-9.68124e+08
-2.40615e+10
2.65647e+08
-9.74417e+08
-2.36925e+10
2.50218e+08
-9.76129e+08
-2.333e+10
2.25874e+08
-9.71875e+08
-2.29945e+10
1.9334e+08
-9.50602e+08
-2.27015e+10
1.50588e+08
-8.99685e+08
-2.24572e+10
9.47687e+07
-8.04503e+08
-2.22569e+10
2.01428e+07
-6.46125e+08
-2.20609e+10
-8.5811e+07
-4.06752e+08
-2.17776e+10
-2.36303e+08
-7.92607e+07
-2.1307e+10
-3.99799e+08
3.43969e+08
-2.06196e+10
-4.21667e+08
8.60105e+08
-1.94087e+10
-5.00001e+08
1.76546e+09
-1.89671e+10
-6.3176e+08
3.5913e+09
-1.79335e+10
-5.09374e+09
6.71405e+09
-5.87332e+09
2.24577e+09
-2.40866e+10
-4.82008e+09
-2.48194e+10
-2.91049e+09
-2.39257e+10
-2.63376e+09
-2.43983e+10
-1.88804e+09
-2.53382e+10
-1.72405e+09
-2.50527e+10
-4.85732e+08
-2.52042e+10
2.09599e+08
-2.50076e+10
1.05793e+08
-2.46878e+10
1.2986e+08
-2.41993e+10
2.1408e+08
-2.37843e+10
2.56655e+08
-2.35371e+10
2.94299e+08
-2.34361e+10
2.9929e+08
-2.34246e+10
2.80463e+08
-2.34503e+10
2.4631e+08
-2.35239e+10
2.38754e+08
-2.36023e+10
2.05437e+08
-2.36691e+10
1.50574e+08
-2.37383e+10
1.18433e+08
-2.38061e+10
8.4201e+07
-2.38828e+10
4.96575e+07
-2.39674e+10
1.15023e+07
-2.4063e+10
-2.51215e+07
-2.41693e+10
-5.96793e+07
-2.42864e+10
-9.06427e+07
-2.44178e+10
-1.1769e+08
-2.45654e+10
-1.39742e+08
-2.4731e+10
-1.5709e+08
-2.4914e+10
-1.68516e+08
-2.51135e+10
-1.74127e+08
-2.53218e+10
-1.7691e+08
-2.55314e+10
-1.7503e+08
-2.5737e+10
-1.65063e+08
-2.59376e+10
-1.49119e+08
-2.61322e+10
-1.29937e+08
-2.63195e+10
-1.0429e+08
-2.64931e+10
-7.95851e+07
-2.66535e+10
-5.75335e+07
-2.68156e+10
-3.50201e+07
-2.69991e+10
-1.14578e+07
-2.72279e+10
1.45972e+07
-2.75235e+10
4.27774e+07
-2.79139e+10
7.92004e+07
-2.8427e+10
1.29828e+08
-2.90938e+10
2.04398e+08
-2.99502e+10
3.18893e+08
-3.10455e+10
4.94139e+08
-3.24427e+10
7.57106e+08
-3.41634e+10
1.15203e+09
-3.59891e+10
1.79208e+09
-3.81025e+10
3.06714e+09
-4.0633e+10
4.88896e+09
-5.35621e+10
7.87328e+09
1.56135e+09
-2.45277e+10
7.0618e+07
-1.16339e+09
-2.44696e+10
1.26753e+09
-1.22476e+09
-2.20138e+10
1.37025e+09
-1.70871e+09
-2.3411e+10
6.71808e+08
-1.47116e+08
-2.41723e+10
6.51873e+08
-4.98289e+08
-2.38402e+10
6.79646e+08
-2.9155e+08
-2.36162e+10
5.73683e+08
3.16259e+07
-2.33357e+10
2.91919e+08
1.30928e+08
-2.30819e+10
6.3693e+07
9.74618e+07
-2.28719e+10
1.21733e+07
1.03176e+08
-2.26704e+10
-1.42292e+07
8.95412e+07
-2.25241e+10
8.80493e+06
1.19182e+08
-2.23977e+10
2.9484e+07
8.68975e+07
-2.22765e+10
4.4061e+07
3.78621e+07
-2.2183e+10
5.21919e+07
-1.20023e+07
-2.2102e+10
5.69195e+07
-4.02691e+07
-2.20322e+10
5.85215e+07
-9.60121e+07
-2.19534e+10
5.78631e+07
-1.7627e+08
-2.18763e+10
5.90194e+07
-2.48371e+08
-2.17902e+10
6.4393e+07
-3.24667e+08
-2.17086e+10
6.82766e+07
-4.00667e+08
-2.16325e+10
7.27841e+07
-4.78902e+08
-2.15687e+10
7.67258e+07
-5.52438e+08
-2.15187e+10
8.15556e+07
-6.20663e+08
-2.14852e+10
8.71835e+07
-6.80985e+08
-2.14722e+10
9.31763e+07
-7.32937e+08
-2.14825e+10
9.87424e+07
-7.76214e+08
-2.15196e+10
1.03e+08
-8.09581e+08
-2.1585e+10
1.05686e+08
-8.32502e+08
-2.16756e+10
1.07046e+08
-8.47406e+08
-2.17932e+10
1.09952e+08
-8.53497e+08
-2.1949e+10
1.18014e+08
-8.48253e+08
-2.2135e+10
1.1995e+08
-8.3495e+08
-2.23219e+10
1.13294e+08
-8.23779e+08
-2.25121e+10
1.15962e+08
-8.08087e+08
-2.26919e+10
1.01838e+08
-7.84158e+08
-2.28863e+10
9.43213e+07
-7.47944e+08
-2.31e+10
9.07471e+07
-7.11303e+08
-2.33273e+10
8.06531e+07
-6.7405e+08
-2.35716e+10
6.97668e+07
-6.36763e+08
-2.38307e+10
5.55801e+07
-6.00679e+08
-2.40992e+10
3.8794e+07
-5.66352e+08
-2.43679e+10
1.95705e+07
-5.28036e+08
-2.46169e+10
-3.13118e+06
-4.77357e+08
-2.48165e+10
-3.20245e+07
-4.07294e+08
-2.49245e+10
-7.3546e+07
-3.00399e+08
-2.48739e+10
-1.41505e+08
-1.51527e+08
-2.45728e+10
-2.41271e+08
2.71064e+07
-2.39474e+10
-3.34273e+08
2.09887e+08
-2.30492e+10
-2.47416e+08
3.55709e+08
-2.17566e+10
-7.36101e+07
6.78175e+08
-1.88867e+10
-8.34009e+08
1.73949e+09
-8.20479e+09
-6.95707e+09
3.14678e+09
-4.18295e+09
8.76627e+08
-2.34151e+10
-9.42944e+08
-2.45905e+10
-6.2098e+08
-2.51422e+10
-8.76919e+08
-2.54286e+10
-1.09457e+09
-2.58854e+10
-7.59845e+08
-2.55488e+10
-2.54578e+08
-2.5055e+10
2.17549e+08
-2.4992e+10
3.00191e+08
-2.51562e+10
3.53623e+08
-2.52591e+10
3.44778e+08
-2.53639e+10
3.73457e+08
-2.54582e+10
4.28735e+08
-2.55347e+10
4.42334e+08
-2.55869e+10
4.19322e+08
-2.56292e+10
3.90688e+08
-2.56854e+10
4.0291e+08
-2.57442e+10
3.75199e+08
-2.5804e+10
3.18426e+08
-2.58506e+10
2.73217e+08
-2.58842e+10
2.26674e+08
-2.59102e+10
1.82273e+08
-2.5934e+10
1.38256e+08
-2.59584e+10
9.856e+07
-2.59853e+10
6.61575e+07
-2.60169e+10
4.18479e+07
-2.60574e+10
2.7796e+07
-2.61114e+10
2.31138e+07
-2.61826e+10
2.63433e+07
-2.62734e+10
3.69521e+07
-2.63848e+10
5.44677e+07
-2.65189e+10
8.01617e+07
-2.66696e+10
1.11201e+08
-2.68366e+10
1.45625e+08
-2.70226e+10
1.82569e+08
-2.72145e+10
2.20716e+08
-2.74185e+10
2.56279e+08
-2.76253e+10
2.89224e+08
-2.78321e+10
3.20282e+08
-2.80441e+10
3.49568e+08
-2.82594e+10
3.74569e+08
-2.84774e+10
3.95481e+08
-2.86985e+10
4.12813e+08
-2.89188e+10
4.30352e+08
-2.91353e+10
4.54338e+08
-2.93387e+10
4.87792e+08
-2.95191e+10
5.39691e+08
-2.96586e+10
6.09957e+08
-2.97183e+10
6.95941e+08
-2.95809e+10
7.99987e+08
-2.88814e+10
9.60038e+08
-2.73029e+10
1.55247e+09
-2.60626e+10
2.99707e+09
-3.24338e+10
7.48078e+09
2.61254e+09
-2.57736e+10
-2.48811e+08
9.63937e+08
-2.66739e+10
-4.77253e+08
-4.85584e+07
-2.74687e+10
-5.26923e+08
-5.54374e+08
-2.7035e+10
-2.16723e+06
-7.28303e+08
-2.73368e+10
2.23898e+08
-5.39885e+08
-2.73834e+10
2.99222e+08
-6.27925e+08
-2.72845e+10
1.93213e+08
-3.07236e+08
-2.71238e+10
4.62887e+07
-9.24723e+07
-2.69947e+10
-3.28506e+07
8.98203e+06
-2.68373e+10
-4.73284e+07
1.54526e+07
-2.67e+10
-5.72445e+07
3.82485e+07
-2.65929e+10
-4.51797e+07
8.79732e+07
-2.65228e+10
-2.04844e+07
7.25726e+07
-2.64411e+10
-1.56963e+07
1.71111e+07
-2.63524e+10
-1.36791e+07
-2.82655e+07
-2.62401e+10
-2.07706e+07
-5.85473e+07
-2.61126e+10
-3.13697e+07
-1.1864e+08
-2.59682e+10
-4.33326e+07
-1.97863e+08
-2.58101e+10
-5.58972e+07
-2.80206e+08
-2.56331e+10
-6.58053e+07
-3.64496e+08
-2.54452e+10
-7.79829e+07
-4.54268e+08
-2.52436e+10
-8.83844e+07
-5.42265e+08
-2.50373e+10
-1.00317e+08
-6.25864e+08
-2.48268e+10
-1.09266e+08
-6.96489e+08
-2.46205e+10
-1.16573e+08
-7.53235e+08
-2.44235e+10
-1.21282e+08
-7.94309e+08
-2.42427e+10
-1.2425e+08
-8.20789e+08
-2.40812e+10
-1.25572e+08
-8.35423e+08
-2.39397e+10
-1.25186e+08
-8.39575e+08
-2.3819e+10
-1.23377e+08
-8.34583e+08
-2.37224e+10
-1.18727e+08
-8.18134e+08
-2.36482e+10
-1.09897e+08
-7.9312e+08
-2.35833e+10
-1.02188e+08
-7.6904e+08
-2.35259e+10
-1.02635e+08
-7.37273e+08
-2.34813e+10
-1.06754e+08
-6.88422e+08
-2.34264e+10
-1.07572e+08
-6.55106e+08
-2.33541e+10
-1.03129e+08
-6.20011e+08
-2.32691e+10
-9.73091e+07
-5.80517e+08
-2.31682e+10
-9.30891e+07
-5.43339e+08
-2.30495e+10
-8.85227e+07
-5.10937e+08
-2.29092e+10
-8.48313e+07
-4.87359e+08
-2.27449e+10
-8.1757e+07
-4.71509e+08
-2.25508e+10
-7.75065e+07
-4.62244e+08
-2.23165e+10
-6.9632e+07
-4.55607e+08
-2.20333e+10
-5.36168e+07
-4.45952e+08
-2.16872e+10
-2.43745e+07
-4.24228e+08
-2.12451e+10
7.20212e+06
-3.93943e+08
-2.0664e+10
1.79524e+07
-3.56171e+08
-1.99126e+10
2.85176e+07
-3.45083e+08
-1.90965e+10
1.95172e+08
-4.28395e+08
-1.8175e+10
6.01428e+08
-5.68443e+08
-1.64515e+10
-5.92265e+08
9.49251e+08
-1.27184e+10
-5.38191e+09
5.1159e+09
-2.43427e+09
1.5847e+09
-2.35085e+10
1.11027e+09
-2.44306e+10
-3.34291e+08
-2.50426e+10
-9.16444e+08
-2.50241e+10
-1.20672e+09
-2.51442e+10
-4.82166e+08
-2.50187e+10
-1.21997e+08
-2.47515e+10
1.2539e+08
-2.46922e+10
2.88338e+08
-2.47865e+10
4.28664e+08
-2.48952e+10
4.26171e+08
-2.49941e+10
4.37279e+08
-2.50583e+10
4.71204e+08
-2.50864e+10
4.77083e+08
-2.50959e+10
4.48343e+08
-2.51059e+10
4.32904e+08
-2.51045e+10
4.33416e+08
-2.50955e+10
3.93085e+08
-2.5093e+10
3.29084e+08
-2.50861e+10
2.67095e+08
-2.50758e+10
2.0009e+08
-2.50593e+10
1.31812e+08
-2.50394e+10
6.24041e+07
-2.50167e+10
172246
-2.49928e+10
-5.0601e+07
-2.49693e+10
-8.61766e+07
-2.49476e+10
-1.06102e+08
-2.49295e+10
-1.11743e+08
-2.49166e+10
-1.0566e+08
-2.49094e+10
-8.91524e+07
-2.49064e+10
-6.44325e+07
-2.49039e+10
-3.09697e+07
-2.48963e+10
8.62231e+06
-2.48808e+10
4.98002e+07
-2.48619e+10
9.20154e+07
-2.48388e+10
1.32984e+08
-2.48094e+10
1.7429e+08
-2.47707e+10
2.16243e+08
-2.47202e+10
2.55555e+08
-2.46642e+10
2.97167e+08
-2.46073e+10
3.37609e+08
-2.45545e+10
3.76055e+08
-2.45143e+10
4.16134e+08
-2.44915e+10
4.61401e+08
-2.44846e+10
5.15107e+08
-2.44829e+10
5.76565e+08
-2.44614e+10
6.46144e+08
-2.43917e+10
7.09156e+08
-2.42464e+10
7.39899e+08
-2.3932e+10
6.95855e+08
-2.31179e+10
5.54536e+08
-2.13596e+10
6.79141e+08
-2.07333e+10
2.1716e+09
-2.47087e+10
6.37922e+09
2.31961e+09
-2.84648e+10
3.83074e+08
1.10157e+09
-2.89994e+10
3.35852e+08
7.34768e+06
-2.95222e+10
1.84395e+08
-2.83543e+08
-2.97805e+10
2.90357e+08
-7.70705e+08
-2.99327e+10
1.93884e+08
-5.67376e+08
-3.00842e+10
1.24071e+08
-5.72821e+08
-3.00938e+10
5.14792e+07
-3.1456e+08
-3.00623e+10
-1.45823e+07
-7.16342e+07
-3.00663e+10
-5.70515e+07
1.06358e+08
-3.00885e+10
-1.02106e+08
1.72427e+08
-3.01148e+10
-1.15254e+08
2.0831e+08
-3.00814e+10
-1.18474e+08
1.9788e+08
-3.00606e+10
-1.0549e+08
1.82646e+08
-3.00447e+10
-1.09693e+08
1.42283e+08
-3.00121e+10
-1.19158e+08
1.08883e+08
-2.99466e+10
-1.32105e+08
6.84058e+07
-2.98515e+10
-1.40962e+08
4.73156e+06
-2.97423e+10
-1.53728e+08
-7.91093e+07
-2.96135e+10
-1.63506e+08
-1.67432e+08
-2.94741e+10
-1.75516e+08
-2.62366e+08
-2.9317e+10
-1.86401e+08
-3.64227e+08
-2.91453e+10
-1.99676e+08
-4.69959e+08
-2.89564e+10
-2.12632e+08
-5.69531e+08
-2.87549e+10
-2.26049e+08
-6.51676e+08
-2.85456e+10
-2.39076e+08
-7.11283e+08
-2.83318e+10
-2.51692e+08
-7.48382e+08
-2.81181e+10
-2.635e+08
-7.64769e+08
-2.79095e+10
-2.75196e+08
-7.63305e+08
-2.77093e+10
-2.86708e+08
-7.47649e+08
-2.75209e+10
-2.9618e+08
-7.20267e+08
-2.73415e+10
-3.02617e+08
-6.85051e+08
-2.71632e+10
-3.07713e+08
-6.48019e+08
-2.69829e+10
-3.14469e+08
-6.10478e+08
-2.67983e+10
-3.21929e+08
-5.63962e+08
-2.66016e+10
-3.29438e+08
-5.05569e+08
-2.63981e+10
-3.38781e+08
-4.53468e+08
-2.61794e+10
-3.4755e+08
-4.06345e+08
-2.59377e+10
-3.56302e+08
-3.62143e+08
-2.56677e+10
-3.66509e+08
-3.2379e+08
-2.53669e+10
-3.78135e+08
-2.93173e+08
-2.50314e+10
-3.90753e+08
-2.76116e+08
-2.46568e+10
-4.02334e+08
-2.75168e+08
-2.42356e+10
-4.09848e+08
-2.93131e+08
-2.37589e+10
-4.08924e+08
-3.3122e+08
-2.32254e+10
-3.92179e+08
-3.81636e+08
-2.26233e+10
-3.52973e+08
-4.52243e+08
-2.19232e+10
-2.97373e+08
-5.56062e+08
-2.10858e+10
-2.41278e+08
-6.85435e+08
-2.00597e+10
-1.86266e+08
-8.7718e+08
-1.90434e+10
-1.55277e+07
-1.04671e+09
-1.84883e+10
3.7476e+08
-1.03923e+09
-1.56849e+10
7.86294e+07
-1.45043e+09
-2.88807e+09
-2.63186e+09
-4.65662e+09
-1.31707e+09
-2.83821e+09
-2.46137e+10
1.4978e+09
-2.47214e+10
1.94635e+07
-2.49916e+10
-4.9973e+08
-2.51393e+10
-7.73238e+08
-2.52222e+10
-1.91181e+08
-2.51179e+10
-7.84879e+07
-2.49919e+10
7.97238e+07
-2.49376e+10
2.49176e+08
-2.48899e+10
3.52137e+08
-2.49093e+10
3.68892e+08
-2.49598e+10
3.94686e+08
-2.49957e+10
4.08089e+08
-2.50066e+10
4.02692e+08
-2.50137e+10
3.73454e+08
-2.5019e+10
3.56655e+08
-2.50037e+10
3.36815e+08
-2.49781e+10
2.83511e+08
-2.49507e+10
2.09967e+08
-2.49196e+10
1.31501e+08
-2.48854e+10
4.51533e+07
-2.48469e+10
-4.78162e+07
-2.48044e+10
-1.44103e+08
-2.47602e+10
-2.31449e+08
-2.47198e+10
-3.00803e+08
-2.46894e+10
-3.45328e+08
-2.4674e+10
-3.6619e+08
-2.46776e+10
-3.65766e+08
-2.47045e+10
-3.48297e+08
-2.47557e+10
-3.18698e+08
-2.48297e+10
-2.79158e+08
-2.49221e+10
-2.30781e+08
-2.50278e+10
-1.78074e+08
-2.51448e+10
-1.25275e+08
-2.52718e+10
-7.17969e+07
-2.54086e+10
-1.80254e+07
-2.5552e+10
3.2338e+07
-2.56982e+10
8.06919e+07
-2.58457e+10
1.25388e+08
-2.59915e+10
1.66939e+08
-2.61355e+10
2.04395e+08
-2.62762e+10
2.35309e+08
-2.64073e+10
2.60919e+08
-2.65157e+10
2.81737e+08
-2.6581e+10
2.9886e+08
-2.65811e+10
3.17609e+08
-2.64749e+10
3.26865e+08
-2.62218e+10
3.0713e+08
-2.57823e+10
2.22189e+08
-2.51113e+10
3.09088e+07
-2.4117e+10
-2.13343e+08
-2.20526e+10
-6.95507e+08
-1.73767e+10
-2.08775e+09
-7.25393e+09
-6.13483e+09
-3.18497e+09
-2.66399e+10
2.49423e+08
6.53659e+07
-2.66682e+10
2.93449e+08
-3.09293e+08
-2.67097e+10
1.90874e+08
-4.05586e+08
-2.71109e+10
2.11908e+08
-5.08199e+08
-2.72552e+10
2.47282e+07
-3.54769e+08
-2.73958e+10
-5.97034e+07
-2.81716e+08
-2.7405e+10
-7.94067e+07
-1.45398e+08
-2.73683e+10
-3.36949e+07
-7.29892e+06
-2.73103e+10
-3.11879e+07
1.34484e+08
-2.73091e+10
-6.11316e+07
2.76078e+08
-2.7337e+10
-1.07663e+08
3.77244e+08
-2.73501e+10
-1.31296e+08
3.66257e+08
-2.73582e+10
-1.33592e+08
3.43145e+08
-2.73714e+10
-1.40427e+08
3.19565e+08
-2.7373e+10
-1.50831e+08
2.99987e+08
-2.73529e+10
-1.5978e+08
2.66846e+08
-2.73138e+10
-1.64903e+08
2.11921e+08
-2.72697e+10
-1.7053e+08
1.32815e+08
-2.72146e+10
-1.73586e+08
4.42786e+07
-2.71566e+10
-1.80397e+08
-6.12285e+07
-2.70855e+10
-1.86851e+08
-1.74242e+08
-2.70071e+10
-1.97118e+08
-2.98212e+08
-2.69131e+10
-2.07963e+08
-4.12671e+08
-2.68131e+10
-2.23713e+08
-5.04309e+08
-2.67096e+10
-2.4092e+08
-5.60068e+08
-2.66101e+10
-2.59663e+08
-5.81123e+08
-2.65183e+10
-2.78465e+08
-5.72748e+08
-2.64386e+10
-2.96111e+08
-5.41854e+08
-2.6375e+10
-3.11457e+08
-4.94886e+08
-2.63277e+10
-3.24952e+08
-4.37161e+08
-2.62985e+10
-3.37728e+08
-3.69092e+08
-2.62852e+10
-3.50616e+08
-2.99132e+08
-2.62865e+10
-3.63947e+08
-2.27304e+08
-2.62993e+10
-3.74732e+08
-1.50019e+08
-2.63177e+10
-3.81649e+08
-6.87467e+07
-2.63488e+10
-3.87989e+08
1.42825e+07
-2.63971e+10
-3.95526e+08
9.91441e+07
-2.64644e+10
-4.04331e+08
1.84132e+08
-2.65534e+10
-4.15084e+08
2.67464e+08
-2.66662e+10
-4.28396e+08
3.45025e+08
-2.68096e+10
-4.44628e+08
4.16078e+08
-2.69878e+10
-4.62951e+08
4.73654e+08
-2.71999e+10
-4.80665e+08
5.08796e+08
-2.74404e+10
-4.95727e+08
5.13362e+08
-2.77058e+10
-5.05588e+08
4.95172e+08
-2.79755e+10
-5.0582e+08
4.25695e+08
-2.81856e+10
-4.97852e+08
2.52186e+08
-2.82358e+10
-4.7445e+08
-5.622e+07
-2.79915e+10
-4.21548e+08
-5.69285e+08
-2.73332e+10
-2.34225e+08
-1.2955e+09
-2.59156e+10
9.25401e+07
-2.32593e+09
-2.17181e+10
-4.19715e+08
-4.94386e+09
-1.06259e+10
-3.31824e+09
-1.22918e+10
-1.71698e+09
-5.52802e+09
-2.56498e+10
5.02802e+08
-2.53036e+10
-5.81958e+07
-2.52864e+10
-3.02069e+08
-2.54156e+10
-3.75103e+08
-2.55585e+10
4.50372e+07
-2.57165e+10
8.69454e+07
-2.5767e+10
1.09459e+08
-2.56776e+10
1.74218e+08
-2.55528e+10
2.34766e+08
-2.55196e+10
3.04936e+08
-2.55783e+10
3.68739e+08
-2.56507e+10
3.66502e+08
-2.57028e+10
3.36805e+08
-2.57545e+10
3.05023e+08
-2.57978e+10
2.80968e+08
-2.58195e+10
2.45383e+08
-2.5826e+10
1.82718e+08
-2.58221e+10
1.01341e+08
-2.58076e+10
7.04691e+06
-2.57837e+10
-9.90406e+07
-2.5751e+10
-2.18108e+08
-2.57069e+10
-3.45293e+08
-2.56513e+10
-4.68325e+08
-2.55929e+10
-5.66697e+08
-2.55432e+10
-6.2845e+08
-2.55135e+10
-6.52593e+08
-2.55112e+10
-6.45472e+08
-2.55417e+10
-6.13425e+08
-2.56079e+10
-5.63681e+08
-2.57072e+10
-5.04309e+08
-2.58394e+10
-4.3443e+08
-2.60011e+10
-3.62299e+08
-2.61912e+10
-2.90526e+08
-2.64054e+10
-2.18327e+08
-2.664e+10
-1.44942e+08
-2.68976e+10
-7.11664e+07
-2.71809e+10
2.26509e+06
-2.74924e+10
7.29791e+07
-2.78342e+10
1.39189e+08
-2.82065e+10
1.96971e+08
-2.8614e+10
2.47354e+08
-2.90554e+10
2.8682e+08
-2.95239e+10
3.13354e+08
-3.00032e+10
3.20847e+08
-3.04777e+10
3.17858e+08
-3.09174e+10
2.83873e+08
-3.12786e+10
1.86305e+08
-3.14846e+10
-3.14496e+07
-3.13818e+10
-4.68167e+08
-3.04883e+10
-1.28693e+09
-2.79335e+10
-3.07028e+09
-2.37214e+10
-6.59356e+09
-2.01524e+10
-1.30591e+10
-4.58646e+09
-2.56385e+10
2.42104e+08
-1.38005e+09
-2.53127e+10
3.25382e+08
-9.36485e+08
-2.51018e+10
3.22371e+08
-8.48306e+08
-2.51211e+10
2.77025e+08
-6.31599e+08
-2.49791e+10
1.23569e+08
-4.77398e+08
-2.48919e+10
6.77311e+07
-3.07661e+08
-2.48667e+10
1.18094e+08
-1.82223e+08
-2.48784e+10
2.15524e+08
-1.27583e+08
-2.48744e+10
2.46149e+08
-5.10111e+07
-2.48574e+10
2.45686e+08
6.34767e+07
-2.47835e+10
2.36332e+08
1.05097e+08
-2.47321e+10
2.45318e+08
9.70573e+07
-2.4716e+10
2.60151e+08
8.74537e+07
-2.47187e+10
2.69328e+08
7.58257e+07
-2.47186e+10
2.7763e+08
5.69268e+07
-2.46979e+10
2.87088e+08
2.26544e+07
-2.46657e+10
2.9504e+08
-3.50699e+07
-2.46201e+10
3.04166e+08
-1.12672e+08
-2.45768e+10
3.0909e+08
-2.09448e+08
-2.45279e+10
3.12787e+08
-3.23767e+08
-2.44748e+10
3.11012e+08
-4.60588e+08
-2.4399e+10
3.0926e+08
-6.16836e+08
-2.4302e+10
3.0396e+08
-7.71878e+08
-2.41918e+10
2.97913e+08
-8.89633e+08
-2.40888e+10
2.91122e+08
-9.49227e+08
-2.40044e+10
2.84261e+08
-9.55436e+08
-2.39418e+10
2.77461e+08
-9.22057e+08
-2.3903e+10
2.71233e+08
-8.62221e+08
-2.3891e+10
2.66394e+08
-7.84748e+08
-2.3905e+10
2.62248e+08
-6.98384e+08
-2.39386e+10
2.58787e+08
-6.08215e+08
-2.39906e+10
2.55915e+08
-5.16845e+08
-2.40615e+10
2.52256e+08
-4.21106e+08
-2.4153e+10
2.50074e+08
-3.18885e+08
-2.42643e+10
2.48944e+08
-2.13963e+08
-2.43969e+10
2.47716e+08
-1.0541e+08
-2.45516e+10
2.45701e+08
5.66564e+06
-2.47315e+10
2.42319e+08
1.20105e+08
-2.49406e+10
2.36649e+08
2.36027e+08
-2.51856e+10
2.27714e+08
3.52221e+08
-2.54696e+10
2.14101e+08
4.63938e+08
-2.57944e+10
1.94578e+08
5.64973e+08
-2.61631e+10
1.68898e+08
6.47032e+08
-2.65749e+10
1.36301e+08
6.9877e+08
-2.70273e+10
9.92645e+07
7.22746e+08
-2.75315e+10
5.95437e+07
7.02314e+08
-2.81126e+10
1.80975e+07
5.97674e+08
-2.87836e+10
-2.41777e+07
3.6887e+08
-2.95534e+10
-6.62196e+07
-5.39489e+07
-3.01834e+10
-1.53895e+08
-8.61996e+08
-2.97088e+10
-4.67242e+08
-2.68939e+09
-2.69909e+10
-1.36343e+09
-6.65166e+09
-2.4708e+10
-2.84953e+09
-1.20356e+10
-8.35604e+08
-1.80179e+09
-2.64522e+10
-6.05671e+08
-2.59884e+10
-1.68738e+08
-2.57834e+10
-1.17743e+08
-2.57304e+10
-6.44577e+07
-2.55926e+10
1.17534e+08
-2.55767e+10
2.14905e+08
-2.56595e+10
3.71893e+08
-2.56717e+10
4.50881e+08
-2.56788e+10
5.27074e+08
-2.56964e+10
5.99359e+08
-2.56966e+10
6.29256e+08
-2.56925e+10
6.25414e+08
-2.5697e+10
6.15701e+08
-2.5711e+10
6.05112e+08
-2.57155e+10
5.90374e+08
-2.57004e+10
5.58633e+08
-2.56693e+10
5.04368e+08
-2.56267e+10
4.28187e+08
-2.5574e+10
3.31325e+08
-2.5512e+10
2.12971e+08
-2.54361e+10
6.96972e+07
-2.53365e+10
-9.58026e+07
-2.52107e+10
-2.64013e+08
-2.50667e+10
-3.99703e+08
-2.49216e+10
-4.80893e+08
-2.47869e+10
-5.07926e+08
-2.46699e+10
-4.91956e+08
-2.45746e+10
-4.4482e+08
-2.45019e+10
-3.77793e+08
-2.44507e+10
-3.01564e+08
-2.44155e+10
-2.19693e+08
-2.43928e+10
-1.37591e+08
-2.43834e+10
-5.53485e+07
-2.43856e+10
2.7882e+07
-2.43956e+10
1.09709e+08
-2.44123e+10
1.90788e+08
-2.44347e+10
2.69395e+08
-2.44652e+10
3.4501e+08
-2.45065e+10
4.14639e+08
-2.45661e+10
4.76924e+08
-2.46482e+10
5.28194e+08
-2.47595e+10
5.6566e+08
-2.49097e+10
5.9036e+08
-2.51087e+10
5.94674e+08
-2.53573e+10
5.79722e+08
-2.56563e+10
5.26825e+08
-2.60095e+10
4.08697e+08
-2.64232e+10
1.74172e+08
-2.68918e+10
-2.78003e+08
-2.73779e+10
-1.18809e+09
-2.81393e+10
-3.00797e+09
-2.99266e+10
-6.44993e+09
-3.31437e+10
-1.28785e+10
-2.56362e+09
-2.67188e+10
4.93519e+07
-2.14649e+09
-2.64234e+10
1.19416e+08
-1.29005e+09
-2.6297e+10
1.54368e+08
-1.03742e+09
-2.61983e+10
1.42344e+08
-7.68669e+08
-2.61262e+10
1.30578e+08
-5.80833e+08
-2.60466e+10
1.25665e+08
-4.2542e+08
-2.60059e+10
1.33891e+08
-2.82792e+08
-2.59953e+10
1.47879e+08
-2.22225e+08
-2.59775e+10
1.4329e+08
-1.56425e+08
-2.59237e+10
1.36429e+08
-7.90932e+07
-2.58595e+10
1.45805e+08
-6.69452e+07
-2.58237e+10
1.60561e+08
-7.21064e+07
-2.58144e+10
1.71553e+08
-7.58576e+07
-2.58167e+10
1.76705e+08
-8.4254e+07
-2.58123e+10
1.81264e+08
-1.04666e+08
-2.57874e+10
1.85215e+08
-1.42632e+08
-2.57364e+10
1.87943e+08
-2.04762e+08
-2.5658e+10
1.89084e+08
-2.89489e+08
-2.55601e+10
1.86223e+08
-4.01518e+08
-2.5438e+10
1.82882e+08
-5.37966e+08
-2.52885e+10
1.77701e+08
-7.13779e+08
-2.50845e+10
1.75685e+08
-9.34906e+08
-2.48086e+10
1.73097e+08
-1.18191e+09
-2.44737e+10
1.72862e+08
-1.37611e+09
-2.41307e+10
1.74053e+08
-1.46763e+09
-2.38168e+10
1.78233e+08
-1.45934e+09
-2.35481e+10
1.83857e+08
-1.38852e+09
-2.33282e+10
1.90079e+08
-1.28467e+09
-2.3153e+10
1.96975e+08
-1.16865e+09
-2.30147e+10
2.034e+08
-1.0525e+09
-2.29039e+10
2.09123e+08
-9.41662e+08
-2.28141e+10
2.12485e+08
-8.33053e+08
-2.27349e+10
2.15142e+08
-7.28785e+08
-2.26566e+10
2.18568e+08
-6.2765e+08
-2.25755e+10
2.23169e+08
-5.27694e+08
-2.24882e+10
2.29448e+08
-4.28808e+08
-2.23944e+10
2.37237e+08
-3.29263e+08
-2.22928e+10
2.46457e+08
-2.30303e+08
-2.21866e+10
2.57339e+08
-1.30606e+08
-2.20801e+10
2.70011e+08
-3.20367e+07
-2.19828e+10
2.84905e+08
6.4198e+07
-2.19103e+10
3.02435e+08
1.56761e+08
-2.18851e+10
3.23233e+08
2.42499e+08
-2.19369e+10
3.47623e+08
3.13671e+08
-2.20857e+10
3.7226e+08
3.64238e+08
-2.23462e+10
3.90759e+08
3.76596e+08
-2.27447e+10
3.95001e+08
3.32157e+08
-2.33217e+10
3.77527e+08
2.16037e+08
-2.41782e+10
3.24277e+08
3.41053e+07
-2.55505e+10
1.90659e+08
-2.29796e+08
-2.78542e+10
-8.94854e+07
-9.27116e+08
-3.21844e+10
-9.72412e+08
-2.06769e+09
-3.81961e+10
-3.94094e+09
-2.57729e+09
-8.53255e+08
2.19977e+09
-2.58408e+10
-1.32338e+09
-2.54504e+10
-3.98618e+08
-2.51771e+10