/*--------------------------------*- C++ -*----------------------------------*\
| =========                 |                                                 |
| \\      /  F ield         | OpenFOAM: The Open Source CFD Toolbox           |
|  \\    /   O peration     | Version:  4.1                                   |
|   \\  /    A nd           | Web:      www.OpenFOAM.org                      |
|    \\/     M anipulation  |                                                 |
\*---------------------------------------------------------------------------*/
FoamFile
{
    version     2.0;
    format      ascii;
    class       volVectorField;
    location    "45";
    object      U;
}
// * * * * * * * * * * * * * * * * * * * * * * * * * * * * * * * * * * * * * //

dimensions      [0 1 -1 0 0 0 0];

internalField   nonuniform List<vector> 
4432
(
(-189887 -4187.03 -7861.03)
(-190810 -2240.17 -3768.6)
(-184108 -851.948 -1199.02)
(-179185 -2672.22 -3517.01)
(-179417 -2267.38 -3030.04)
(-177912 -2110.5 -2202.47)
(-175706 -2213.86 -2414.91)
(-174321 -2184.19 -2323.01)
(-173080 -2204.44 -2307.99)
(-171957 -2254.22 -2326.91)
(-170850 -2312.29 -2362.9)
(-169767 -2353.75 -2437.32)
(-168680 -2386.08 -2535.03)
(-167613 -2426.19 -2636.72)
(-166566 -2474.65 -2734.51)
(-165457 -2524.11 -2862.09)
(-164250 -2568.5 -3027.52)
(-162958 -2612.1 -3211.14)
(-161567 -2659.21 -3411.12)
(-160053 -2707.51 -3620.54)
(-158400 -2755 -3835.96)
(-156601 -2802.75 -4053.41)
(-154654 -2848.43 -4266.98)
(-152572 -2893.32 -4473.78)
(-150390 -2936.72 -4669.46)
(-148150 -2978.67 -4851.29)
(-145905 -3018.03 -5016.95)
(-143699 -3054.17 -5166.16)
(-141579 -3085.97 -5299.34)
(-139574 -3113.21 -5418.22)
(-137716 -3135.36 -5524.62)
(-136027 -3152.12 -5620.2)
(-134525 -3162.68 -5707.82)
(-133231 -3166.14 -5789.41)
(-132147 -3163.22 -5861.57)
(-131279 -3156.46 -5917.66)
(-130628 -3147.97 -5955.88)
(-130188 -3138.19 -5971.7)
(-129963 -3127.96 -5952.74)
(-129948 -3116.61 -5885.53)
(-130156 -3102.53 -5743.47)
(-130605 -3084.38 -5494.34)
(-131317 -3063.76 -5098.92)
(-132351 -3044.65 -4505.97)
(-133885 -3034.64 -3623.59)
(-136296 -3024.31 -2344.6)
(-139902 -2982.51 -498.784)
(-144080 -2864.54 2128.81)
(-146615 -2643.67 5872.69)
(-147968 -2274.98 10911.1)
(-162681 -1078.2 19575.1)
(-216446 2802.62 26455.9)
(-263087 -6692.84 55284.4)
(-194173 1067.54 52488.2)
(-216102 -910.616 -5161.24)
(-214456 930.597 -3978.23)
(-212260 2177.8 -3166.68)
(-209185 621.718 -2997.07)
(-208257 1038.01 -3032.31)
(-207677 1203.35 -2453.95)
(-206213 1150.78 -2568.16)
(-205289 1215.23 -2487.66)
(-204601 1233.84 -2487.5)
(-203967 1227.89 -2471.5)
(-203302 1214.85 -2483.68)
(-202635 1216.25 -2534.09)
(-201979 1226.06 -2604.57)
(-201347 1230.72 -2669.29)
(-200722 1230.14 -2734.14)
(-200030 1230.83 -2832.34)
(-199253 1238.2 -2959.96)
(-198409 1248.97 -3093.72)
(-197486 1260.25 -3241.46)
(-196460 1274.22 -3392.47)
(-195323 1293.03 -3547.87)
(-194073 1316.26 -3701.49)
(-192711 1346.07 -3851.02)
(-191250 1381.93 -3993.83)
(-189716 1424.36 -4128.09)
(-188140 1473.71 -4253.25)
(-186557 1530.71 -4369.58)
(-184996 1596.29 -4478.78)
(-183483 1671.26 -4583.39)
(-182034 1756.41 -4686.54)
(-180663 1852.62 -4791.43)
(-179377 1960.95 -4899.94)
(-178182 2083.27 -5013.01)
(-177082 2221.28 -5129.68)
(-176077 2376.17 -5247.94)
(-175168 2548.35 -5364.2)
(-174360 2739.48 -5474.34)
(-173655 2952.07 -5575.96)
(-173057 3187.71 -5671.96)
(-172567 3450.16 -5757.24)
(-172203 3744.37 -5816.75)
(-171994 4075.02 -5833.14)
(-171983 4447.27 -5791.34)
(-172258 4869.29 -5675.95)
(-173030 5356.19 -5440.02)
(-174678 5929.21 -5016.2)
(-177589 6624.69 -4284.25)
(-181610 7484.65 -3119.5)
(-185556 8535.83 -1228.53)
(-191058 9865.72 1662.64)
(-211878 12099 6837.12)
(-277896 14550.1 13524.5)
(-344037 -165.552 36193.4)
(-360800 -23494.4 68361.2)
(-239948 -349.305 -5261.14)
(-239594 -852.21 -2587.36)
(-240066 -1031.25 136.462)
(-239258 -475.587 -1311.1)
(-238374 -568.12 -795.75)
(-238812 -553.29 271.381)
(-238588 -556.136 655.124)
(-238253 -521.16 1008.83)
(-238184 -534.565 1204.36)
(-238125 -531.859 1344.53)
(-238048 -547.989 1436.3)
(-237982 -558.075 1473.94)
(-237893 -563.512 1486.16)
(-237820 -568.288 1492.46)
(-237815 -583.444 1494.01)
(-237844 -608.168 1481.07)
(-237853 -629.645 1447.77)
(-237858 -645.341 1402.68)
(-237867 -666.17 1347.34)
(-237875 -686.689 1292.45)
(-237882 -709.001 1246.24)
(-237890 -731.57 1214.88)
(-237902 -754.777 1207.08)
(-237926 -778.995 1225.33)
(-237975 -804.458 1274)
(-238058 -831.632 1353.52)
(-238189 -860.204 1463.28)
(-238368 -889.895 1598.85)
(-238596 -920.069 1754.68)
(-238859 -950.2 1922.52)
(-239146 -979.496 2095.36)
(-239434 -1006.2 2269.09)
(-239704 -1026.9 2442.94)
(-239925 -1036.64 2615.18)
(-240097 -1033.63 2788.4)
(-240238 -1017.49 2966.8)
(-240324 -986.121 3147.97)
(-240327 -938.276 3329.89)
(-240206 -877.62 3511.92)
(-239908 -802.359 3695.06)
(-239375 -707.837 3876.2)
(-238534 -590.91 4052.03)
(-237306 -448.41 4222.51)
(-235638 -276.979 4377.78)
(-233503 -72.0844 4496.4)
(-230884 182.567 4554.7)
(-227679 509.001 4525.79)
(-223168 905.129 4392.57)
(-216432 1423.47 4248.46)
(-207266 2297.35 4581.75)
(-205275 3977.57 4746.25)
(-195597 8102.06 1954.3)
(-208073 5198.01 337.169)
(40882.7 -11383.3 4853.78)
(-263930 1601.7 -3652.38)
(-263768 1102.16 -2934.24)
(-263286 938.8 -2122.56)
(-262402 1433.68 -1448.74)
(-261949 1339.3 -1545.6)
(-262159 1349.31 -860.763)
(-261830 1344.97 -595.969)
(-261411 1376.05 -389.333)
(-261247 1364.87 -322.857)
(-261059 1369.99 -259.383)
(-260856 1359.86 -236.267)
(-260636 1356.89 -262.956)
(-260395 1359.8 -322.856)
(-260178 1365.06 -388.364)
(-260030 1362.73 -455.984)
(-259902 1353.6 -546.351)
(-259743 1349.53 -656.274)
(-259592 1353.08 -775.93)
(-259457 1354.67 -904.716)
(-259330 1359.55 -1031.78)
(-259218 1366.27 -1152.76)
(-259127 1376.73 -1258.09)
(-259068 1391.21 -1341.85)
(-259057 1410.1 -1398.64)
(-259115 1433.95 -1424.4)
(-259261 1463.37 -1417.47)
(-259521 1499.41 -1377.81)
(-259906 1543.41 -1308.58)
(-260429 1596.78 -1214.45)
(-261088 1660.99 -1102.46)
(-261883 1737.53 -979.007)
(-262800 1828.87 -848.801)
(-263827 1939 -714.776)
(-264942 2072.88 -578.727)
(-266117 2232.58 -442.796)
(-267323 2419.57 -311.75)
(-268525 2636.49 -191.82)
(-269688 2884.91 -89.4316)
(-270760 3164.47 -9.71215)
(-271767 3477.28 53.0525)
(-272648 3829.59 88.292)
(-273325 4225.33 93.4484)
(-273698 4667.21 70.9849)
(-273674 5158.16 18.2865)
(-273188 5703.1 -70.9884)
(-272182 6316.54 -206.343)
(-270462 7009.75 -389.792)
(-267133 7790.05 -562.673)
(-261108 8691.53 -505.574)
(-251591 10040.9 389.928)
(-244000 12372.8 264.206)
(-231079 17078.2 -3447.46)
(-159177 -8396.32 2898.02)
(-5026.01 -10855.5 5504.82)
(-207766 -1460.39 -7265.79)
(-201537 -1454.38 -6507.98)
(-201037 -2196.01 -6301.11)
(-199735 -1098.07 -4768.97)
(-197773 -1259.71 -4951.59)
(-196959 -1364.97 -4548.4)
(-196295 -1429.74 -4003.76)
(-195779 -1413.42 -3696.67)
(-195352 -1444.84 -3488.05)
(-194900 -1440.87 -3300.32)
(-194444 -1441.04 -3181.87)
(-193978 -1428.25 -3126.02)
(-193455 -1420.56 -3123.46)
(-192937 -1418.41 -3174.1)
(-192466 -1418.53 -3273.78)
(-191989 -1430.19 -3386.15)
(-191455 -1436.42 -3508.21)
(-190871 -1437.81 -3644.97)
(-190230 -1439 -3796.92)
(-189511 -1436.65 -3949.12)
(-188716 -1433.79 -4091.15)
(-187847 -1426.64 -4203.73)
(-186915 -1417.28 -4273.19)
(-185947 -1404.17 -4287.01)
(-184976 -1389.03 -4235.9)
(-184048 -1372.74 -4116.53)
(-183211 -1356.15 -3929.47)
(-182509 -1339.72 -3683.13)
(-181981 -1323.78 -3388.95)
(-181651 -1308.43 -3062.24)
(-181536 -1293.5 -2715.22)
(-181642 -1279.69 -2349.49)
(-181980 -1268.66 -1958.12)
(-182558 -1259.43 -1558.22)
(-183337 -1252.03 -1175.82)
(-184264 -1247.04 -795.713)
(-185319 -1240.67 -427.035)
(-186473 -1232.27 -84.2551)
(-187687 -1213.11 218.492)
(-188902 -1180.59 485.709)
(-190061 -1134.88 711.411)
(-191103 -1069.39 889.615)
(-191940 -981.289 1011.36)
(-192437 -858.367 1037.88)
(-192541 -667.794 918.75)
(-192341 -372.465 621.872)
(-191761 73.5209 76.7843)
(-190005 805.108 -752.063)
(-185123 1947.08 -1666.17)
(-178513 3894.73 -1590.55)
(-179192 5757.1 -387.869)
(-209785 7689.01 4303.07)
(-222167 -9859.54 3682.97)
(-151739 -2018.58 3456.04)
(-225696 2371.2 -6530.83)
(-222510 2270 -4869.14)
(-220870 1600.28 -4206.44)
(-219531 2610.02 -3224.49)
(-219100 2463.45 -3425.69)
(-218589 2373.15 -3253.48)
(-218202 2325.66 -2785.91)
(-218039 2351.76 -2579.12)
(-217995 2336.09 -2434.06)
(-217895 2353.75 -2309.43)
(-217817 2368.77 -2236.47)
(-217735 2396.34 -2221.01)
(-217622 2419.91 -2265.78)
(-217511 2439.04 -2372.98)
(-217443 2456.71 -2525.09)
(-217354 2464.69 -2686.86)
(-217190 2478.2 -2861.21)
(-216975 2496.7 -3062.04)
(-216693 2516.21 -3274.18)
(-216320 2539.89 -3492.9)
(-215851 2565.44 -3703.58)
(-215283 2596.42 -3891.88)
(-214621 2631.5 -4043)
(-213884 2672.36 -4144.68)
(-213098 2717.94 -4187.86)
(-212301 2767.88 -4168.88)
(-211533 2821.69 -4088.32)
(-210832 2879.2 -3953.46)
(-210233 2940.34 -3773.87)
(-209759 3005.22 -3562.17)
(-209431 3074.02 -3329.61)
(-209257 3146.36 -3084.87)
(-209253 3221.11 -2832.63)
(-209429 3298.81 -2575.83)
(-209797 3378.98 -2316.07)
(-210375 3461.48 -2056.94)
(-211177 3549.34 -1799.38)
(-212212 3642.76 -1542.91)
(-213514 3756.65 -1310.31)
(-214935 3897.88 -1101.86)
(-216451 4070.61 -923.519)
(-218034 4285.69 -782.743)
(-219633 4554.19 -692.587)
(-221210 4894.83 -665.687)
(-222802 5343.72 -713.965)
(-224547 5945.27 -854.459)
(-226533 6753.09 -1090.84)
(-228349 7872.43 -1331.57)
(-228236 9407.52 -1203.56)
(-228445 11496.5 -133.975)
(-237308 13260.5 2630.97)
(-291620 12706.6 4019.3)
(-365422 -3448.32 11476.2)
(-361736 -24790.9 59.6381)
(-221418 -3734.08 -9459.47)
(-219828 -3082.65 -5367.76)
(-218548 -2760.47 -5145.03)
(-217614 -2516.95 -3215.76)
(-217079 -2596.71 -2837.83)
(-216414 -2745.41 -2415.84)
(-215910 -2742.09 -2101.09)
(-215533 -2732.81 -1834.7)
(-215282 -2747.44 -1626.78)
(-215034 -2745 -1468.94)
(-214814 -2751.76 -1364.51)
(-214588 -2752.01 -1281.81)
(-214313 -2758.08 -1267.75)
(-214028 -2776.34 -1333.03)
(-213746 -2804.18 -1466.03)
(-213423 -2836.59 -1632.12)
(-213026 -2864.5 -1828)
(-212566 -2894 -2049.56)
(-212026 -2920.87 -2287.3)
(-211384 -2946.53 -2527.52)
(-210630 -2967.11 -2757.51)
(-209760 -2982.45 -2949.82)
(-208784 -2989.31 -3086.29)
(-207719 -2986.16 -3144.47)
(-206591 -2972.19 -3115.24)
(-205434 -2947.38 -2997.05)
(-204279 -2912.36 -2798.41)
(-203151 -2867.76 -2536.2)
(-202065 -2813.77 -2230.7)
(-201019 -2750.71 -1901.69)
(-199995 -2679.92 -1565.76)
(-198965 -2607.8 -1234.71)
(-197928 -2541.61 -916.651)
(-196878 -2470.19 -624.746)
(-195761 -2381.54 -371.15)
(-194543 -2297.1 -152.495)
(-193223 -2214.21 39.2081)
(-191770 -2125.28 206.255)
(-190244 -2031.64 340.542)
(-188649 -1935.24 447.895)
(-186985 -1832.39 530.363)
(-185239 -1720.9 587.695)
(-183375 -1595.67 622.457)
(-181398 -1444.78 637.555)
(-179378 -1252.6 633.431)
(-177428 -1000.73 615.807)
(-175543 -654.617 595.233)
(-172973 -171.628 551.131)
(-168110 642.134 514.369)
(-160504 1943.56 190.74)
(-158531 3888.28 -312.815)
(-167747 5280.47 -5880.56)
(-167727 -6497.51 16908)
(-18850.5 -9534.47 19492.5)
(-237923 1087.33 -7876.09)
(-237414 1576.98 -3923.89)
(-236882 1830.99 -2855.51)
(-236999 2009.26 -1914.67)
(-237298 1901.06 -1516.82)
(-237059 1737.4 -1143.24)
(-236857 1719.09 -869.827)
(-236905 1708.68 -701.084)
(-237047 1679.81 -520.152)
(-237181 1669.98 -403.959)
(-237365 1653.75 -351.116)
(-237561 1645.03 -345.717)
(-237756 1631.63 -401.602)
(-237979 1607.1 -531.555)
(-238244 1573.22 -722.925)
(-238512 1533.98 -935.103)
(-238766 1497.44 -1174.65)
(-239025 1457.61 -1438.89)
(-239276 1418.03 -1710.84)
(-239503 1377.15 -1982.34)
(-239698 1338.44 -2235.34)
(-239858 1302.2 -2450.43)
(-239983 1271.83 -2605.41)
(-240082 1249.6 -2682.89)
(-240168 1237.45 -2672.99)
(-240256 1236.73 -2575.68)
(-240359 1248.33 -2400.23)
(-240487 1272.84 -2162.82)
(-240642 1311.01 -1882.13)
(-240815 1363.36 -1577.34)
(-240991 1429.02 -1266.56)
(-241150 1502.63 -964.842)
(-241274 1577.96 -681.267)
(-241345 1664.37 -424.209)
(-241343 1771.66 -200.14)
(-241250 1881.5 -11.6793)
(-241045 1995.95 141.447)
(-240713 2120.13 262.197)
(-240254 2252.33 335.311)
(-239715 2392.12 359.02)
(-239110 2542.69 335.985)
(-238445 2705.96 267.151)
(-237729 2888.86 144.124)
(-236981 3102.86 -48.4716)
(-236256 3362.61 -333.771)
(-235677 3689.42 -742.118)
(-235274 4117.74 -1307)
(-234233 4680.54 -2104.47)
(-231073 5480.23 -3190.24)
(-224178 6586.63 -4818.62)
(-221300 7286.21 -7175.88)
(-221276 7833.26 -7124.08)
(-230164 -11357.5 21056.1)
(-153307 -14745.5 13835.5)
(-217657 -3349.63 -11294)
(-217713 -3347.98 -7489.22)
(-217100 -3078.89 -6227.24)
(-216719 -2997.07 -5045.28)
(-216442 -3082.92 -4138.78)
(-216022 -3184.2 -3433.72)
(-215717 -3238.39 -2869.37)
(-215479 -3275.01 -2455.03)
(-215302 -3277.24 -2119.61)
(-215081 -3262.42 -1902.16)
(-214810 -3265.31 -1786.72)
(-214530 -3286.68 -1693.06)
(-214235 -3312.67 -1658.39)
(-213923 -3348.96 -1702.48)
(-213581 -3392.61 -1811.69)
(-213163 -3443.3 -1966.84)
(-212650 -3496.98 -2168.66)
(-212034 -3556.8 -2417.03)
(-211288 -3618.94 -2691.62)
(-210383 -3685.68 -2987.43)
(-209291 -3752.82 -3279.33)
(-207993 -3822.23 -3543.22)
(-206490 -3887.57 -3739.23)
(-204797 -3947.32 -3834.11)
(-202949 -3996.75 -3806.85)
(-200992 -4033.3 -3655.01)
(-198974 -4054.85 -3392.12)
(-196935 -4059.17 -3040.56)
(-194898 -4044.37 -2626)
(-192867 -4010.38 -2172.47)
(-190832 -3959.94 -1700.02)
(-188774 -3898.32 -1231.25)
(-186683 -3828.89 -786.885)
(-184550 -3747.88 -365.839)
(-182346 -3651.2 39.7438)
(-180037 -3545.27 409.326)
(-177593 -3434.49 749.905)
(-174989 -3320.9 1058.1)
(-172121 -3210.32 1332.94)
(-168927 -3103.44 1568.27)
(-165346 -3003.06 1751.6)
(-161312 -2909.51 1866.84)
(-156758 -2822.86 1905.05)
(-151622 -2749.8 1847.11)
(-145905 -2699.2 1667.5)
(-139703 -2678.44 1346.83)
(-133054 -2702.32 857.211)
(-125319 -2760.81 171.46)
(-114768 -2874.22 -846.065)
(-101320 -2919.26 -1968.61)
(-97610.6 -2780.27 -3671.06)
(-108482 3669.88 -6458.72)
(-189856 -6964.63 -15972)
(10810.4 -13123.1 9135.59)
(-214601 2375.15 -10235.2)
(-214404 2530.76 -7130.41)
(-213964 2826.81 -6264.28)
(-214095 2960.6 -5344.16)
(-214139 2904.14 -4482.95)
(-213792 2827.75 -3708.09)
(-213517 2791.91 -3231.8)
(-213311 2769.3 -2942.06)
(-213169 2778.22 -2698.82)
(-213046 2802.12 -2566.56)
(-212931 2806.65 -2504.92)
(-212822 2791.55 -2484.55)
(-212732 2770.8 -2519.5)
(-212675 2738.66 -2622.97)
(-212647 2698.19 -2781.05)
(-212610 2649.47 -2977.23)
(-212556 2596.3 -3222.53)
(-212492 2534.82 -3507.98)
(-212404 2468.19 -3818.95)
(-212276 2392.9 -4144.53)
(-212095 2311.96 -4466.04)
(-211857 2221.75 -4755.82)
(-211572 2126.81 -4977.68)
(-211264 2026.78 -5097.9)
(-210966 1924.73 -5094.91)
(-210719 1822.09 -4965.59)
(-210553 1720.54 -4722.69)
(-210491 1622.39 -4389.23)
(-210538 1530.11 -3991.9)
(-210687 1444.75 -3555.5)
(-210919 1364.64 -3101.68)
(-211203 1285.94 -2649.47)
(-211514 1206.8 -2213.05)
(-211828 1132.42 -1804.1)
(-212119 1068.23 -1432.65)
(-212361 1009.94 -1103.8)
(-212527 955.649 -823.161)
(-212590 901.921 -594.111)
(-212525 850.016 -427.715)
(-212284 802.532 -331.697)
(-211826 758.996 -315.415)
(-211113 724.128 -399.011)
(-210083 696.351 -615.854)
(-208713 674.092 -1005.34)
(-207040 656.432 -1619.54)
(-205208 645.975 -2516.11)
(-203251 644.375 -3783.93)
(-200571 684.002 -5495.03)
(-195315 691.608 -7834.81)
(-187929 442.396 -10757.2)
(-184450 -581.362 -15785.6)
(-200823 3460.19 -19465.8)
(-161863 -11036.9 -2293.64)
(-39227.3 -9596.83 5550.12)
(-214968 -1360.09 -9116.31)
(-215830 -1463.19 -6370.09)
(-215945 -1480.52 -5280.72)
(-216358 -1458.99 -4321.2)
(-216642 -1521.12 -3487.57)
(-216794 -1535.33 -2897.07)
(-216972 -1552.14 -2413.65)
(-217199 -1598.66 -2021.14)
(-217504 -1635.09 -1684.68)
(-217831 -1645.99 -1444.14)
(-218090 -1635.19 -1295.91)
(-218307 -1639.2 -1232.51)
(-218545 -1648.32 -1250.69)
(-218796 -1663.35 -1357.35)
(-219041 -1682.83 -1529.04)
(-219256 -1705.99 -1760.6)
(-219432 -1734.99 -2051.47)
(-219559 -1768.83 -2396.42)
(-219621 -1810.75 -2778.72)
(-219590 -1858.42 -3193.32)
(-219436 -1916.48 -3615.26)
(-219138 -1983.51 -4016.08)
(-218685 -2061.54 -4335.1)
(-218099 -2148.63 -4521.65)
(-217418 -2241.44 -4542.46)
(-216692 -2335.37 -4399.31)
(-215962 -2425.15 -4118.91)
(-215259 -2506.57 -3740.48)
(-214595 -2575.74 -3304.91)
(-213968 -2628.98 -2845.91)
(-213360 -2665.07 -2389.18)
(-212752 -2683.11 -1957.81)
(-212121 -2680.54 -1570.81)
(-211440 -2655.57 -1231.8)
(-210680 -2610.06 -938.806)
(-209818 -2544.28 -696.501)
(-208832 -2459.15 -505.658)
(-207685 -2354.27 -373.88)
(-206361 -2228.18 -310.73)
(-204839 -2079.33 -327.09)
(-203084 -1907.51 -437.929)
(-201070 -1711.5 -660.018)
(-198778 -1489.21 -1014.42)
(-196205 -1241.35 -1528.26)
(-193411 -973.889 -2236.47)
(-190537 -694.182 -3178.41)
(-187631 -409.373 -4409.6)
(-184175 -114.754 -5956.9)
(-178686 167.97 -7906.67)
(-170326 653.357 -10546.1)
(-165064 1332.41 -15038.1)
(-174682 2636.85 -14357.6)
(-175728 -7596.3 -28253.7)
(-1449.5 -7933.66 -10683)
(-207706 2473.92 -8417.15)
(-207346 2523.69 -5751.55)
(-207022 2563.13 -5080.61)
(-206972 2656.54 -4273.8)
(-206907 2650 -3377.49)
(-206646 2689 -2672.57)
(-206531 2722.21 -2160.73)
(-206480 2722.41 -1795.24)
(-206474 2731.83 -1529.33)
(-206494 2767.47 -1350.84)
(-206494 2826.47 -1243.21)
(-206481 2871.69 -1214.03)
(-206479 2914.53 -1268.48)
(-206484 2955.29 -1409.06)
(-206471 2996.69 -1615.18)
(-206414 3040.46 -1881.37)
(-206304 3085.27 -2212.79)
(-206132 3133.16 -2600.5)
(-205878 3181.7 -3033.5)
(-205518 3234.07 -3501)
(-205026 3286.11 -3985.55)
(-204383 3339.51 -4451.65)
(-203590 3391.61 -4845.17)
(-202683 3442.55 -5108.97)
(-201721 3492.64 -5209.47)
(-200777 3542.81 -5146.48)
(-199914 3594.6 -4945.4)
(-199178 3648.74 -4646.66)
(-198595 3706.36 -4292.89)
(-198170 3769.05 -3919.24)
(-197899 3836.15 -3549.79)
(-197766 3907.19 -3202.34)
(-197754 3983.9 -2892.36)
(-197849 4067.2 -2626.81)
(-198036 4154.68 -2407.69)
(-198301 4245.63 -2234.98)
(-198631 4337.47 -2106.24)
(-199009 4425.56 -2024.6)
(-199429 4505.55 -2003.29)
(-199893 4575.72 -2058.08)
(-200387 4634.53 -2205.86)
(-200919 4685.84 -2464.5)
(-201513 4733.38 -2849.15)
(-202224 4773.87 -3389.52)
(-203192 4799.02 -4117.44)
(-204674 4797.46 -5069.89)
(-206820 4746.11 -6323.55)
(-209063 4634.33 -8006.56)
(-209328 4363.45 -10370.7)
(-207269 4011.22 -13969.9)
(-208081 2671.11 -19768.6)
(-233270 1300.8 -27294.3)
(-229261 -20291.8 -49635.3)
(-131930 -18059.6 -15481.4)
(-206163 -851.824 -9401.3)
(-206733 -806.676 -6868)
(-206788 -897.549 -5998.98)
(-207037 -894.528 -5105.11)
(-207145 -865.46 -4354.24)
(-207207 -793.325 -3731.65)
(-207224 -759.451 -3214.94)
(-207280 -763.871 -2793.53)
(-207419 -776.422 -2479.96)
(-207569 -760.024 -2254.54)
(-207679 -736.185 -2071.16)
(-207792 -720.05 -1986.63)
(-207925 -705.089 -1997.73)
(-208063 -691.186 -2097.98)
(-208190 -677.961 -2277.13)
(-208296 -664.096 -2532.84)
(-208370 -650.172 -2866.45)
(-208405 -635.187 -3262.95)
(-208393 -621.076 -3715.19)
(-208312 -604.576 -4205.15)
(-208134 -590.313 -4724.45)
(-207827 -576.174 -5228.68)
(-207388 -568.477 -5645.68)
(-206866 -567.044 -5883.04)
(-206340 -574.423 -5887.16)
(-205887 -590.925 -5662.54)
(-205552 -614.68 -5251.52)
(-205345 -643.488 -4715.44)
(-205249 -674.477 -4113.3)
(-205228 -705.891 -3488.77)
(-205248 -736.161 -2872.14)
(-205280 -762.825 -2282.71)
(-205299 -783.159 -1726.85)
(-205282 -794.927 -1204.21)
(-205215 -800.457 -719.113)
(-205095 -800.368 -272.425)
(-204921 -792.834 139.704)
(-204686 -779.269 515.018)
(-204385 -759.241 849.102)
(-204012 -729.386 1139.56)
(-203572 -687.432 1386.61)
(-203070 -630.964 1588.28)
(-202530 -557.31 1736.12)
(-202008 -462.783 1820.04)
(-201636 -345.343 1829.65)
(-201663 -205.188 1747.73)
(-202293 -40.4286 1538.32)
(-203176 141.326 1094.72)
(-202520 372.537 99.2899)
(-200604 462.465 -2368.34)
(-200504 316.223 -8492.6)
(-224596 497.127 -18752.8)
(-206516 -9444.9 -48880.1)
(-93268.5 -5215.49 -20355.3)
(-208702 1942.27 -8134.06)
(-209659 1979.7 -5647.17)
(-209631 1890.78 -4886.69)
(-209707 1893.9 -4156.6)
(-209630 1922.37 -3381.01)
(-209542 1990.96 -2750.99)
(-209459 2020.92 -2269.32)
(-209362 2012.84 -1869.65)
(-209263 1996.31 -1572.08)
(-209143 2007.86 -1361.7)
(-209002 2026.38 -1222.71)
(-208859 2037.17 -1175.42)
(-208716 2047.03 -1222.14)
(-208564 2056.64 -1356.55)
(-208388 2067 -1569.52)
(-208175 2080.14 -1860.55)
(-207916 2096.36 -2227.64)
(-207603 2117.72 -2659.89)
(-207223 2143.52 -3142.87)
(-206756 2178.4 -3663.54)
(-206175 2219.38 -4204.13)
(-205448 2270.3 -4724.26)
(-204575 2326.4 -5146.34)
(-203611 2388.58 -5378.24)
(-202649 2453.53 -5368.05)
(-201780 2518.73 -5121.61)
(-201068 2582.95 -4684.57)
(-200541 2645.09 -4120.47)
(-200191 2705.06 -3491.68)
(-199989 2762.14 -2846.4)
(-199899 2815.81 -2213.74)
(-199891 2867.1 -1610.16)
(-199939 2917.81 -1042.66)
(-200022 2969.26 -510.084)
(-200128 3019.65 -7.69818)
(-200266 3067.72 463.752)
(-200445 3113.03 901.543)
(-200662 3153.52 1306)
(-200941 3190.53 1685.66)
(-201315 3229.3 2043.65)
(-201824 3271.23 2381.96)
(-202509 3319.13 2704.28)
(-203421 3378.98 3013.54)
(-204653 3456.57 3310.28)
(-206392 3556.76 3597.7)
(-208950 3684.9 3870.44)
(-212618 3847.48 4085.94)
(-217056 4036.47 4096.69)
(-220870 4261.76 3485.28)
(-224562 4397.51 1109.25)
(-236348 4044.26 -6573.26)
(-279312 3031.52 -16354.8)
(-358711 -15616 -48462.9)
(-274342 -11871.6 -11135)
(-207859 -1270.48 -8929.13)
(-208142 -1172.11 -7120.33)
(-208077 -1235.22 -6372.31)
(-208066 -1282.1 -5538.44)
(-207825 -1253.87 -4873.33)
(-207533 -1199.93 -4220.75)
(-207252 -1198.89 -3643.86)
(-207056 -1221.81 -3185.51)
(-206954 -1234.08 -2846.56)
(-206823 -1222.34 -2579.08)
(-206636 -1219.01 -2396.97)
(-206455 -1224.43 -2323.49)
(-206271 -1232.3 -2353.18)
(-206057 -1241.87 -2486.59)
(-205789 -1250.82 -2725.67)
(-205441 -1258.61 -3071.09)
(-204981 -1262.54 -3521.62)
(-204386 -1263.91 -4066.98)
(-203627 -1256.96 -4694.42)
(-202672 -1242.25 -5385.81)
(-201463 -1213.18 -6140.82)
(-199915 -1169.83 -6923.02)
(-197983 -1107.62 -7629.55)
(-195749 -1027.45 -8084.74)
(-193421 -935.375 -8182.44)
(-191231 -839.473 -7946.98)
(-189348 -748.941 -7473.45)
(-187859 -670.257 -6876.84)
(-186771 -608.049 -6257.28)
(-186042 -565.442 -5681.56)
(-185615 -540.694 -5185.12)
(-185428 -529.874 -4782.3)
(-185427 -530.674 -4468.63)
(-185568 -540.199 -4231.59)
(-185822 -556.155 -4062.18)
(-186168 -576.918 -3949.46)
(-186588 -601.492 -3879.38)
(-187083 -630.293 -3837.92)
(-187659 -662.954 -3813.29)
(-188322 -697.919 -3799.11)
(-189081 -732.083 -3785.49)
(-189953 -762.473 -3750)
(-190969 -784.636 -3664.61)
(-192193 -787.763 -3496.37)
(-193786 -757.379 -3193.32)
(-196050 -680.872 -2681.4)
(-199293 -548.306 -1846.07)
(-203238 -329.362 -575.985)
(-206755 107.598 1150.97)
(-211148 684.798 2734.58)
(-224044 -107.783 3516.05)
(-268252 793.47 6156.99)
(-333250 277.865 -21091.6)
(-210057 4824.87 -3265.5)
(-199504 1321.41 -6700.06)
(-200649 1409.76 -4925.55)
(-200833 1321.74 -4156.97)
(-200977 1252 -3412.37)
(-200785 1255.33 -2795.22)
(-200653 1279.71 -2241.14)
(-200553 1245.34 -1789.68)
(-200452 1183.61 -1421.06)
(-200381 1130.58 -1131.52)
(-200285 1100.2 -931.249)
(-200154 1059.38 -829.627)
(-200015 1008.31 -833.629)
(-199861 953.74 -940.428)
(-199671 896.392 -1149.74)
(-199418 838.424 -1462.04)
(-199076 779.949 -1879.12)
(-198611 723.332 -2398.51)
(-197991 666.966 -3010.01)
(-197181 616.219 -3696.7)
(-196138 570.07 -4444.72)
(-194793 534.932 -5245.56)
(-193046 510.079 -6069.57)
(-190829 499.839 -6805.82)
(-188200 503.886 -7284.05)
(-185345 517.656 -7396.85)
(-182479 534.895 -7162.97)
(-179771 548.04 -6674.21)
(-177324 550.535 -6041.78)
(-175178 536.529 -5367.68)
(-173325 500.653 -4723.87)
(-171738 442.38 -4149.79)
(-170388 364.053 -3664.82)
(-169248 266.842 -3269.72)
(-168293 152.625 -2958.06)
(-167511 23.1913 -2723.75)
(-166884 -120.499 -2555.11)
(-166407 -278.4 -2442.74)
(-166112 -451.664 -2386.22)
(-166018 -644.277 -2380.43)
(-166157 -858.991 -2419.26)
(-166591 -1095.29 -2498.67)
(-167391 -1355.07 -2614.69)
(-168676 -1638.32 -2751.19)
(-170637 -1937.43 -2878.4)
(-173611 -2240.08 -2946.64)
(-178203 -2535.3 -2872.84)
(-185228 -2812.08 -2518.18)
(-195084 -3020.21 -1734.08)
(-207023 -3012.37 -445.659)
(-223501 -2888.15 730.43)
(-260128 -4180.96 607.115)
(-381042 -2214.25 -2662.06)
(-559587 -389.592 1055.1)
(-365420 5398.48 6600.39)
(-215267 -1177.35 -7848.91)
(-216557 -1167.71 -6709.54)
(-217076 -1230.46 -6052.63)
(-217769 -1299.12 -5216.18)
(-218167 -1302.61 -4532.56)
(-218458 -1315.29 -3926.56)
(-218770 -1386.97 -3428.95)
(-219142 -1457.98 -3070.81)
(-219526 -1496.82 -2787.71)
(-219869 -1523.9 -2545.63)
(-220187 -1555.88 -2414.25)
(-220502 -1592.26 -2399.86)
(-220803 -1630.46 -2499.83)
(-221075 -1670.72 -2718.43)
(-221297 -1712.29 -3058.61)
(-221441 -1756.28 -3523.11)
(-221478 -1803.17 -4113.72)
(-221371 -1853.16 -4833.47)
(-221084 -1904.96 -5665.22)
(-220584 -1959.8 -6602.96)
(-219796 -2013.51 -7642.76)
(-218556 -2068 -8789.95)
(-216686 -2118.52 -9901.12)
(-214194 -2163.85 -10653.6)
(-211341 -2198.18 -10790.3)
(-208449 -2213.47 -10333.5)
(-205748 -2208.99 -9474.14)
(-203373 -2187.49 -8411.94)
(-201373 -2157.54 -7317.01)
(-199736 -2130.36 -6295.16)
(-198428 -2113.72 -5400.52)
(-197406 -2112.76 -4649.88)
(-196624 -2130.78 -4041.13)
(-196044 -2170.88 -3562.22)
(-195636 -2235.86 -3198.06)
(-195379 -2329.02 -2931.1)
(-195257 -2453.21 -2744.1)
(-195260 -2609.33 -2622.54)
(-195376 -2797.93 -2557.48)
(-195601 -3020.2 -2537.12)
(-195950 -3280.14 -2542.88)
(-196439 -3583.74 -2564.89)
(-197091 -3937.88 -2595.24)
(-197964 -4352.04 -2618.55)
(-199199 -4840.38 -2599.92)
(-201077 -5427.33 -2471.8)
(-203925 -6154.91 -2086.78)
(-207660 -7093.54 -1218.66)
(-211270 -8256.69 478.828)
(-216360 -9962.62 3259.94)
(-231418 -10992.5 9774.7)
(-295375 -13831.3 22123.5)
(-418377 -1182.11 45385.8)
(-355149 9873.77 20520.2)
(-202384 797.039 -6330.33)
(-203598 812.429 -5253.4)
(-204267 761.506 -4602.4)
(-204926 706.515 -3780.52)
(-205342 725.715 -3189.62)
(-205802 736.545 -2752.36)
(-206301 687.227 -2373.07)
(-206784 642.806 -2093.03)
(-207284 636.278 -1883.35)
(-207793 645.584 -1745.59)
(-208303 653.052 -1712.03)
(-208813 658.727 -1788.85)
(-209315 664.366 -1977.82)
(-209793 668.304 -2283.86)
(-210225 669.819 -2710.42)
(-210585 666.771 -3259.52)
(-210844 657.442 -3933.65)
(-210965 639.575 -4731.2)
(-210915 612.008 -5638.85)
(-210660 570.529 -6640.59)
(-210131 516.367 -7737.39)
(-209166 443.153 -8922.8)
(-207597 350.334 -10050.4)
(-205450 235.154 -10794.2)
(-202997 106.272 -10900.7)
(-200556 -18.701 -10404.9)
(-198339 -128.32 -9504.71)
(-196436 -215.789 -8411.37)
(-194845 -281.922 -7297.36)
(-193507 -332.945 -6264.42)
(-192356 -374.213 -5362.08)
(-191329 -410.097 -4604.93)
(-190374 -444.172 -3986.96)
(-189454 -480.199 -3493.09)
(-188539 -521.511 -3108.2)
(-187607 -571.988 -2813.49)
(-186645 -636.064 -2587.7)
(-185647 -715.819 -2417.35)
(-184596 -811.416 -2291.87)
(-183474 -923.104 -2199.91)
(-182261 -1054.58 -2133.05)
(-180931 -1211.89 -2085.33)
(-179459 -1402.51 -2052.38)
(-177825 -1635.87 -2031.6)
(-176063 -1926.32 -2013.4)
(-174297 -2298.78 -1967.21)
(-172629 -2791.31 -1799.33)
(-170571 -3444.17 -1354.97)
(-166717 -4280.49 -511.813)
(-160475 -5736.35 915.501)
(-162649 -6571.19 7645.46)
(-186716 -7278.89 22396.8)
(-233527 2020.79 59915.8)
(-140031 -1085.95 18310.2)
(-209931 -636.75 -6888.01)
(-211260 -563.622 -5883.06)
(-211983 -595.411 -5279.27)
(-212970 -631.845 -4469.3)
(-213802 -653.515 -3739.53)
(-214529 -724.64 -3115.45)
(-215279 -794.831 -2600.71)
(-216041 -842.239 -2165.98)
(-216761 -873.435 -1782.6)
(-217461 -911.51 -1474.01)
(-218165 -948.315 -1270.33)
(-218866 -985.36 -1177.34)
(-219569 -1022.51 -1203.41)
(-220266 -1061.08 -1361.18)
(-220950 -1101.63 -1659.12)
(-221610 -1145.85 -2100.75)
(-222235 -1195.2 -2701.63)
(-222797 -1250.25 -3477.8)
(-223280 -1315.45 -4425.23)
(-223686 -1389.4 -5522.88)
(-223989 -1478.71 -6766.01)
(-223994 -1583.37 -8218.73)
(-223379 -1717.38 -9776.95)
(-222135 -1898.51 -10927.7)
(-220726 -2125.76 -11137.9)
(-219621 -2376.33 -10435.2)
(-218957 -2624.07 -9250.4)
(-218669 -2856.52 -7887.34)
(-218609 -3061.59 -6552.82)
(-218639 -3237.61 -5343.19)
(-218667 -3388.08 -4295.79)
(-218627 -3516.98 -3411.38)
(-218487 -3627.29 -2673.23)
(-218226 -3721.17 -2060.22)
(-217838 -3802.2 -1551.68)
(-217322 -3874.88 -1129.66)
(-216673 -3941.16 -776.316)
(-215886 -4000.42 -474.263)
(-214968 -4055.31 -213.91)
(-213911 -4109.45 8.05742)
(-212686 -4162.67 200.902)
(-211259 -4211.77 370.581)
(-209597 -4255.59 521.918)
(-207669 -4295.53 660.294)
(-205477 -4332.12 800.291)
(-203061 -4365.84 983.713)
(-200419 -4401.52 1316.99)
(-196845 -4404.41 1977.98)
(-191018 -4446.05 3278.31)
(-180929 -4568.37 5554.88)
(-176225 -5410.36 12824.8)
(-175218 -1367.84 25891.2)
(-201819 19699.8 75128.1)
(-136241 13149.6 21009.5)
(-204975 1934.06 -5563.07)
(-205674 2090.9 -4686.57)
(-206196 2121.18 -4164.95)
(-206843 2155.27 -3439.75)
(-207415 2208.53 -2882.93)
(-207931 2214.23 -2412.7)
(-208429 2224.72 -1954.08)
(-208954 2263.48 -1581.55)
(-209491 2323.48 -1290.33)
(-210051 2380.19 -1084.89)
(-210631 2441.77 -981.35)
(-211227 2506.6 -988.035)
(-211835 2574.86 -1117.57)
(-212445 2645.44 -1384.27)
(-213037 2717.94 -1800.4)
(-213598 2790.46 -2376.35)
(-214111 2861.56 -3133.35)
(-214544 2930.84 -4090.21)
(-214868 2994.15 -5248.09)
(-215073 3053.42 -6587.51)
(-215119 3102.18 -8111.71)
(-214784 3140.69 -9884.97)
(-213707 3154.73 -11798.9)
(-211820 3125.27 -13300.7)
(-209568 3048.71 -13803.3)
(-207491 2940.71 -13286.5)
(-205867 2822.94 -12167)
(-204756 2707.1 -10792)
(-204086 2604.77 -9409.79)
(-203734 2523.96 -8146.48)
(-203589 2471.66 -7058.92)
(-203565 2446.7 -6155.78)
(-203598 2445.94 -5420.64)
(-203647 2467.23 -4828.34)
(-203684 2507.35 -4355.97)
(-203687 2561.32 -3982.3)
(-203636 2625.16 -3681.22)
(-203512 2697.72 -3431.74)
(-203298 2776.15 -3216.34)
(-202971 2854.9 -3013.54)
(-202502 2930.16 -2801.91)
(-201855 3000.32 -2561.8)
(-200989 3061.93 -2270.77)
(-199865 3107.63 -1904.17)
(-198488 3126.43 -1422.24)
(-196914 3103.17 -759.579)
(-195128 3013.44 170.956)
(-192505 2834.65 1473.34)
(-187559 2446.88 3277.83)
(-179727 1764.98 5560.8)