/*--------------------------------*- C++ -*----------------------------------*\
| =========                 |                                                 |
| \\      /  F ield         | OpenFOAM: The Open Source CFD Toolbox           |
|  \\    /   O peration     | Version:  4.1                                   |
|   \\  /    A nd           | Web:      www.OpenFOAM.org                      |
|    \\/     M anipulation  |                                                 |
\*---------------------------------------------------------------------------*/
FoamFile
{
    version     2.0;
    format      ascii;
    class       volScalarField;
    location    "69";
    object      p;
}
// * * * * * * * * * * * * * * * * * * * * * * * * * * * * * * * * * * * * * //

dimensions      [0 2 -2 0 0 0 0];

internalField   nonuniform List<scalar> 
4432
(
-3.71843e+10
-3.75687e+10
-3.81009e+10
-3.7976e+10
-3.80201e+10
-3.82089e+10
-3.83119e+10
-3.83954e+10
-3.8468e+10
-3.85393e+10
-3.86086e+10
-3.86702e+10
-3.87164e+10
-3.87422e+10
-3.87496e+10
-3.8739e+10
-3.87049e+10
-3.86449e+10
-3.85586e+10
-3.84464e+10
-3.83091e+10
-3.81498e+10
-3.79724e+10
-3.77825e+10
-3.75857e+10
-3.73886e+10
-3.71974e+10
-3.7019e+10
-3.6859e+10
-3.67231e+10
-3.66145e+10
-3.65345e+10
-3.64809e+10
-3.64464e+10
-3.64201e+10
-3.63889e+10
-3.63413e+10
-3.62724e+10
-3.61868e+10
-3.61e+10
-3.60343e+10
-3.60124e+10
-3.60475e+10
-3.61454e+10
-3.63258e+10
-3.66143e+10
-3.69016e+10
-3.66935e+10
-3.53104e+10
-3.35049e+10
-3.5691e+10
-4.66514e+10
-5.67997e+10
-2.80813e+10
-3.74538e+10
-3.75668e+10
-3.78835e+10
-3.8049e+10
-3.80521e+10
-3.81949e+10
-3.8312e+10
-3.83913e+10
-3.84609e+10
-3.85354e+10
-3.8609e+10
-3.86727e+10
-3.87187e+10
-3.87445e+10
-3.87522e+10
-3.87413e+10
-3.87065e+10
-3.86456e+10
-3.85589e+10
-3.84463e+10
-3.83085e+10
-3.81483e+10
-3.79697e+10
-3.77779e+10
-3.75787e+10
-3.73785e+10
-3.71835e+10
-3.70003e+10
-3.68348e+10
-3.66925e+10
-3.65768e+10
-3.6489e+10
-3.64269e+10
-3.63839e+10
-3.63498e+10
-3.63121e+10
-3.62595e+10
-3.61871e+10
-3.60991e+10
-3.60109e+10
-3.59456e+10
-3.59252e+10
-3.59625e+10
-3.60621e+10
-3.6242e+10
-3.65238e+10
-3.67827e+10
-3.64698e+10
-3.47585e+10
-3.21686e+10
-3.32366e+10
-4.47803e+10
-5.90767e+10
-3.51747e+10
-3.77078e+10
-3.77217e+10
-3.78953e+10
-3.81463e+10
-3.81688e+10
-3.82495e+10
-3.83816e+10
-3.84674e+10
-3.85406e+10
-3.86185e+10
-3.86945e+10
-3.87672e+10
-3.88261e+10
-3.88612e+10
-3.88729e+10
-3.88653e+10
-3.88355e+10
-3.87775e+10
-3.86907e+10
-3.8574e+10
-3.84286e+10
-3.82572e+10
-3.80643e+10
-3.78564e+10
-3.76405e+10
-3.74245e+10
-3.72151e+10
-3.70197e+10
-3.68441e+10
-3.66939e+10
-3.65725e+10
-3.64811e+10
-3.64184e+10
-3.63781e+10
-3.63497e+10
-3.63214e+10
-3.62827e+10
-3.6229e+10
-3.61632e+10
-3.60992e+10
-3.60575e+10
-3.6057e+10
-3.61056e+10
-3.62034e+10
-3.63677e+10
-3.66201e+10
-3.68068e+10
-3.62889e+10
-3.42091e+10
-3.14903e+10
-3.3492e+10
-4.62591e+10
-5.99083e+10
-3.67258e+10
-3.77003e+10
-3.7781e+10
-3.79729e+10
-3.8118e+10
-3.81655e+10
-3.82546e+10
-3.83852e+10
-3.84648e+10
-3.85386e+10
-3.86163e+10
-3.86947e+10
-3.87686e+10
-3.88264e+10
-3.88596e+10
-3.88706e+10
-3.88642e+10
-3.8834e+10
-3.87749e+10
-3.86877e+10
-3.8571e+10
-3.84255e+10
-3.82539e+10
-3.80605e+10
-3.7852e+10
-3.76352e+10
-3.74179e+10
-3.7207e+10
-3.70096e+10
-3.68317e+10
-3.66789e+10
-3.65547e+10
-3.64603e+10
-3.63938e+10
-3.6349e+10
-3.63165e+10
-3.62845e+10
-3.62424e+10
-3.61854e+10
-3.61168e+10
-3.60505e+10
-3.60066e+10
-3.60031e+10
-3.60475e+10
-3.61396e+10
-3.62964e+10
-3.65363e+10
-3.66946e+10
-3.60894e+10
-3.37811e+10
-3.0857e+10
-3.37768e+10
-4.92936e+10
-6.12551e+10
-2.99379e+10
-3.8054e+10
-3.8039e+10
-3.79549e+10
-3.81754e+10
-3.82493e+10
-3.83052e+10
-3.83927e+10
-3.84763e+10
-3.85561e+10
-3.86357e+10
-3.87139e+10
-3.87918e+10
-3.88568e+10
-3.88977e+10
-3.89158e+10
-3.89145e+10
-3.88909e+10
-3.88394e+10
-3.87589e+10
-3.86465e+10
-3.85019e+10
-3.83266e+10
-3.81256e+10
-3.79062e+10
-3.76769e+10
-3.74467e+10
-3.72235e+10
-3.70148e+10
-3.68272e+10
-3.66665e+10
-3.6536e+10
-3.64359e+10
-3.6363e+10
-3.63115e+10
-3.62731e+10
-3.62368e+10
-3.61941e+10
-3.61411e+10
-3.60832e+10
-3.60345e+10
-3.60145e+10
-3.60378e+10
-3.6109e+10
-3.62321e+10
-3.64399e+10
-3.67785e+10
-3.70965e+10
-3.66809e+10
-3.45443e+10
-3.16879e+10
-3.38766e+10
-4.70036e+10
-5.89722e+10
-2.97187e+10
-3.79484e+10
-3.80434e+10
-3.80907e+10
-3.81182e+10
-3.82082e+10
-3.83e+10
-3.83898e+10
-3.8466e+10
-3.85485e+10
-3.86292e+10
-3.87095e+10
-3.87884e+10
-3.88548e+10
-3.88981e+10
-3.89194e+10
-3.89231e+10
-3.8903e+10
-3.88544e+10
-3.8776e+10
-3.86654e+10
-3.8522e+10
-3.83476e+10
-3.81471e+10
-3.79278e+10
-3.76986e+10
-3.74684e+10
-3.72452e+10
-3.70366e+10
-3.68486e+10
-3.66868e+10
-3.65544e+10
-3.64517e+10
-3.63758e+10
-3.63205e+10
-3.62767e+10
-3.62335e+10
-3.61821e+10
-3.61191e+10
-3.60501e+10
-3.59899e+10
-3.59583e+10
-3.59708e+10
-3.60324e+10
-3.61457e+10
-3.63386e+10
-3.6645e+10
-3.68824e+10
-3.626e+10
-3.36632e+10
-3.00901e+10
-3.18486e+10
-4.58942e+10
-6.05407e+10
-3.43806e+10
-3.80374e+10
-3.81153e+10
-3.81297e+10
-3.81655e+10
-3.82735e+10
-3.83686e+10
-3.84537e+10
-3.85349e+10
-3.86219e+10
-3.87123e+10
-3.8804e+10
-3.88961e+10
-3.89766e+10
-3.90356e+10
-3.90721e+10
-3.90855e+10
-3.90701e+10
-3.90221e+10
-3.89393e+10
-3.88191e+10
-3.86602e+10
-3.84646e+10
-3.82385e+10
-3.79922e+10
-3.77375e+10
-3.74861e+10
-3.7248e+10
-3.70313e+10
-3.6843e+10
-3.66886e+10
-3.65705e+10
-3.64858e+10
-3.64284e+10
-3.6393e+10
-3.63714e+10
-3.63502e+10
-3.63202e+10
-3.62777e+10
-3.6226e+10
-3.6177e+10
-3.6146e+10
-3.61439e+10
-3.61717e+10
-3.62326e+10
-3.6365e+10
-3.66281e+10
-3.68913e+10
-3.64578e+10
-3.42911e+10
-3.11647e+10
-3.27474e+10
-4.62814e+10
-6.26277e+10
-3.88587e+10
-3.80885e+10
-3.8144e+10
-3.8139e+10
-3.81317e+10
-3.82452e+10
-3.83672e+10
-3.84511e+10
-3.85293e+10
-3.86191e+10
-3.87104e+10
-3.8804e+10
-3.8897e+10
-3.89789e+10
-3.90411e+10
-3.90822e+10
-3.91004e+10
-3.9089e+10
-3.90442e+10
-3.89635e+10
-3.88445e+10
-3.86862e+10
-3.84907e+10
-3.82643e+10
-3.80173e+10
-3.77621e+10
-3.75105e+10
-3.72726e+10
-3.70563e+10
-3.68679e+10
-3.67118e+10
-3.65899e+10
-3.65007e+10
-3.64389e+10
-3.63962e+10
-3.63623e+10
-3.63265e+10
-3.62798e+10
-3.62181e+10
-3.61466e+10
-3.60793e+10
-3.60341e+10
-3.60256e+10
-3.60593e+10
-3.61418e+10
-3.63126e+10
-3.66258e+10
-3.69249e+10
-3.64408e+10
-3.40772e+10
-3.0945e+10
-3.38181e+10
-4.96616e+10
-6.23753e+10
-3.06392e+10
-3.8099e+10
-3.81321e+10
-3.81714e+10
-3.81737e+10
-3.82509e+10
-3.83447e+10
-3.84352e+10
-3.85221e+10
-3.86165e+10
-3.87204e+10
-3.88277e+10
-3.89308e+10
-3.9023e+10
-3.90973e+10
-3.91514e+10
-3.91804e+10
-3.91781e+10
-3.914e+10
-3.90619e+10
-3.89403e+10
-3.87715e+10
-3.85565e+10
-3.83023e+10
-3.80221e+10
-3.77323e+10
-3.74484e+10
-3.71831e+10
-3.6946e+10
-3.67437e+10
-3.65805e+10
-3.6457e+10
-3.63692e+10
-3.63099e+10
-3.62715e+10
-3.62443e+10
-3.6216e+10
-3.61773e+10
-3.61245e+10
-3.60618e+10
-3.60014e+10
-3.59595e+10
-3.5948e+10
-3.59702e+10
-3.60336e+10
-3.61801e+10
-3.64726e+10
-3.67928e+10
-3.64678e+10
-3.44179e+10
-3.11201e+10
-3.17008e+10
-4.40181e+10
-6.21255e+10
-4.11922e+10
-3.81641e+10
-3.81872e+10
-3.81615e+10
-3.81545e+10
-3.82431e+10
-3.83491e+10
-3.84429e+10
-3.85328e+10
-3.8627e+10
-3.87285e+10
-3.88348e+10
-3.89379e+10
-3.90291e+10
-3.91026e+10
-3.91559e+10
-3.91841e+10
-3.91818e+10
-3.91449e+10
-3.90695e+10
-3.89512e+10
-3.87867e+10
-3.85762e+10
-3.83265e+10
-3.80503e+10
-3.77635e+10
-3.74816e+10
-3.72173e+10
-3.698e+10
-3.67758e+10
-3.66083e+10
-3.64784e+10
-3.6383e+10
-3.63154e+10
-3.62666e+10
-3.62255e+10
-3.6181e+10
-3.61242e+10
-3.60517e+10
-3.59687e+10
-3.5889e+10
-3.58308e+10
-3.58084e+10
-3.58271e+10
-3.58965e+10
-3.60607e+10
-3.63822e+10
-3.6731e+10
-3.63931e+10
-3.4296e+10
-3.1328e+10
-3.35529e+10
-4.784e+10
-6.1696e+10
-3.23103e+10
-3.81904e+10
-3.82007e+10
-3.82154e+10
-3.82375e+10
-3.83014e+10
-3.83894e+10
-3.84836e+10
-3.85777e+10
-3.86794e+10
-3.87981e+10
-3.89284e+10
-3.90537e+10
-3.91683e+10
-3.92681e+10
-3.93478e+10
-3.93986e+10
-3.94132e+10
-3.93853e+10
-3.93112e+10
-3.91858e+10
-3.90034e+10
-3.87617e+10
-3.84682e+10
-3.81416e+10
-3.78056e+10
-3.74823e+10
-3.71884e+10
-3.69344e+10
-3.67256e+10
-3.65629e+10
-3.64435e+10
-3.63616e+10
-3.63088e+10
-3.62746e+10
-3.62465e+10
-3.62125e+10
-3.61631e+10
-3.60945e+10
-3.60115e+10
-3.59281e+10
-3.58635e+10
-3.58345e+10
-3.5851e+10
-3.59273e+10
-3.6111e+10
-3.6471e+10
-3.69073e+10
-3.67784e+10
-3.50316e+10
-3.22334e+10
-3.37604e+10
-4.63142e+10
-5.91196e+10
-3.11477e+10
-3.82002e+10
-3.82127e+10
-3.8215e+10
-3.82302e+10
-3.82996e+10
-3.83827e+10
-3.84726e+10
-3.85701e+10
-3.86741e+10
-3.87901e+10
-3.89147e+10
-3.90375e+10
-3.9151e+10
-3.92506e+10
-3.93308e+10
-3.93831e+10
-3.93989e+10
-3.93724e+10
-3.92991e+10
-3.91746e+10
-3.89937e+10
-3.87537e+10
-3.84621e+10
-3.81371e+10
-3.78023e+10
-3.74794e+10
-3.71849e+10
-3.69294e+10
-3.67181e+10
-3.6552e+10
-3.6429e+10
-3.63437e+10
-3.62876e+10
-3.62503e+10
-3.622e+10
-3.6185e+10
-3.61363e+10
-3.60709e+10
-3.59938e+10
-3.5919e+10
-3.58653e+10
-3.58486e+10
-3.58769e+10
-3.59609e+10
-3.61434e+10
-3.64858e+10
-3.68699e+10
-3.66176e+10
-3.46364e+10
-3.1489e+10
-3.26851e+10
-4.53627e+10
-5.86905e+10
-3.0509e+10
-3.81787e+10
-3.8187e+10
-3.81925e+10
-3.82303e+10
-3.82957e+10
-3.83853e+10
-3.84835e+10
-3.8584e+10
-3.86954e+10
-3.88268e+10
-3.89693e+10
-3.91112e+10
-3.92467e+10
-3.93701e+10
-3.94733e+10
-3.95463e+10
-3.95792e+10
-3.95644e+10
-3.94987e+10
-3.93764e+10
-3.91877e+10
-3.89222e+10
-3.85842e+10
-3.81986e+10
-3.78e+10
-3.74203e+10
-3.70813e+10
-3.67949e+10
-3.65649e+10
-3.63892e+10
-3.6262e+10
-3.61754e+10
-3.61202e+10
-3.60849e+10
-3.60561e+10
-3.60214e+10
-3.59713e+10
-3.5902e+10
-3.58179e+10
-3.57314e+10
-3.56608e+10
-3.56228e+10
-3.56275e+10
-3.56886e+10
-3.58509e+10
-3.61782e+10
-3.65651e+10
-3.63513e+10
-3.44044e+10
-3.11239e+10
-3.19187e+10
-4.43986e+10
-5.88275e+10
-3.16254e+10
-3.81584e+10
-3.8163e+10
-3.81909e+10
-3.82346e+10
-3.82982e+10
-3.83766e+10
-3.84702e+10
-3.85753e+10
-3.86931e+10
-3.88255e+10
-3.89676e+10
-3.91112e+10
-3.92493e+10
-3.93752e+10
-3.94804e+10
-3.95543e+10
-3.95867e+10
-3.95711e+10
-3.95042e+10
-3.93808e+10
-3.91897e+10
-3.89204e+10
-3.85776e+10
-3.8187e+10
-3.77846e+10
-3.74022e+10
-3.70618e+10
-3.67752e+10
-3.65456e+10
-3.63709e+10
-3.62451e+10
-3.61599e+10
-3.61054e+10
-3.60698e+10
-3.60407e+10
-3.60059e+10
-3.59561e+10
-3.58876e+10
-3.58052e+10
-3.57217e+10
-3.56549e+10
-3.56208e+10
-3.5628e+10
-3.56876e+10
-3.58405e+10
-3.61428e+10
-3.64752e+10
-3.61541e+10
-3.39848e+10
-3.01068e+10
-2.9493e+10
-4.09232e+10
-5.865e+10
-3.42733e+10
-3.82147e+10
-3.82089e+10
-3.82156e+10
-3.82615e+10
-3.83342e+10
-3.84209e+10
-3.85152e+10
-3.86189e+10
-3.87444e+10
-3.88946e+10
-3.90565e+10
-3.92235e+10
-3.93905e+10
-3.955e+10
-3.9692e+10
-3.98038e+10
-3.98716e+10
-3.98857e+10
-3.98418e+10
-3.97364e+10
-3.95523e+10
-3.92641e+10
-3.88666e+10
-3.83962e+10
-3.7913e+10
-3.7466e+10
-3.70831e+10
-3.67747e+10
-3.65399e+10
-3.63709e+10
-3.62577e+10
-3.61897e+10
-3.61553e+10
-3.61423e+10
-3.61378e+10
-3.61297e+10
-3.61086e+10
-3.60706e+10
-3.60198e+10
-3.5968e+10
-3.59318e+10
-3.59258e+10
-3.59582e+10
-3.60404e+10
-3.62132e+10
-3.65347e+10
-3.68923e+10
-3.66063e+10
-3.44558e+10
-3.05811e+10
-3.01055e+10
-4.15871e+10
-5.83465e+10
-3.58111e+10
-3.81882e+10
-3.81706e+10
-3.81959e+10
-3.82539e+10
-3.83189e+10
-3.83917e+10
-3.84838e+10
-3.85913e+10
-3.87182e+10
-3.88652e+10
-3.90257e+10
-3.91931e+10
-3.93612e+10
-3.95224e+10
-3.96663e+10
-3.97799e+10
-3.98496e+10
-3.98656e+10
-3.9825e+10
-3.97231e+10
-3.95425e+10
-3.92572e+10
-3.88615e+10
-3.83921e+10
-3.79087e+10
-3.74608e+10
-3.70764e+10
-3.67664e+10
-3.65297e+10
-3.63593e+10
-3.6245e+10
-3.61756e+10
-3.61393e+10
-3.61238e+10
-3.61162e+10
-3.61042e+10
-3.60777e+10
-3.6032e+10
-3.59705e+10
-3.59052e+10
-3.5853e+10
-3.58298e+10
-3.58463e+10
-3.59184e+10
-3.60948e+10
-3.64461e+10
-3.68771e+10
-3.67265e+10
-3.47646e+10
-3.10503e+10
-3.06082e+10
-4.1974e+10
-5.8343e+10
-3.33103e+10
-3.81258e+10
-3.81166e+10
-3.81265e+10
-3.81713e+10
-3.8249e+10
-3.83366e+10
-3.84344e+10
-3.85541e+10
-3.87049e+10
-3.88838e+10
-3.90835e+10
-3.92987e+10
-3.95225e+10
-3.97451e+10
-3.99531e+10
-4.01288e+10
-4.02517e+10
-4.03052e+10
-4.02841e+10
-4.01901e+10
-4.00013e+10
-3.96637e+10
-3.91444e+10
-3.85005e+10
-3.785e+10
-3.72793e+10
-3.68227e+10
-3.64848e+10
-3.62526e+10
-3.61069e+10
-3.60284e+10
-3.6e+10
-3.60066e+10
-3.60335e+10
-3.60672e+10
-3.60957e+10
-3.61101e+10
-3.61075e+10
-3.60925e+10
-3.60781e+10
-3.60819e+10
-3.61204e+10
-3.62052e+10
-3.6354e+10
-3.66201e+10
-3.70818e+10
-3.76541e+10
-3.76868e+10
-3.59915e+10
-3.28157e+10
-3.34441e+10
-4.53305e+10
-5.87522e+10
-2.89306e+10
-3.81199e+10
-3.81004e+10
-3.81161e+10
-3.81669e+10
-3.82335e+10
-3.83126e+10
-3.8415e+10
-3.85398e+10
-3.86903e+10
-3.88683e+10
-3.90699e+10
-3.92894e+10
-3.9519e+10
-3.97491e+10
-3.99661e+10
-4.01521e+10
-4.02859e+10
-4.03488e+10
-4.03342e+10
-4.02417e+10
-4.005e+10
-3.97051e+10
-3.91752e+10
-3.85204e+10
-3.78612e+10
-3.72859e+10
-3.6828e+10
-3.64908e+10
-3.62608e+10
-3.61187e+10
-3.60452e+10
-3.6023e+10
-3.60366e+10
-3.6071e+10
-3.6112e+10
-3.61465e+10
-3.61647e+10
-3.61621e+10
-3.61416e+10
-3.61139e+10
-3.60944e+10
-3.60981e+10
-3.6136e+10
-3.62284e+10
-3.64344e+10
-3.68447e+10
-3.73946e+10
-3.74575e+10
-3.5853e+10
-3.2824e+10
-3.37959e+10
-4.64176e+10
-5.99447e+10
-3.25135e+10
-3.81189e+10
-3.81281e+10
-3.81412e+10
-3.81754e+10
-3.82431e+10
-3.83266e+10
-3.84288e+10
-3.85626e+10
-3.87319e+10
-3.89349e+10
-3.91715e+10
-3.9437e+10
-3.97231e+10
-4.00172e+10
-4.03019e+10
-4.05536e+10
-4.07439e+10
-4.08463e+10
-4.08544e+10
-4.07807e+10
-4.06134e+10
-4.02577e+10
-3.96068e+10
-3.87262e+10
-3.78417e+10
-3.71164e+10
-3.65857e+10
-3.6237e+10
-3.60321e+10
-3.59325e+10
-3.59074e+10
-3.59327e+10
-3.59899e+10
-3.60629e+10
-3.61374e+10
-3.62004e+10
-3.62418e+10
-3.62574e+10
-3.62499e+10
-3.62296e+10
-3.62108e+10
-3.62065e+10
-3.62263e+10
-3.62899e+10
-3.64587e+10
-3.68253e+10
-3.73193e+10
-3.72959e+10
-3.5572e+10
-3.2448e+10
-3.34528e+10
-4.66699e+10
-6.24946e+10
-3.56638e+10
-3.81196e+10
-3.81253e+10
-3.81354e+10
-3.81709e+10
-3.82351e+10
-3.83243e+10
-3.84345e+10
-3.85739e+10
-3.87474e+10
-3.8957e+10
-3.92011e+10
-3.94747e+10
-3.97685e+10
-4.00695e+10
-4.03596e+10
-4.06143e+10
-4.08048e+10
-4.09056e+10
-4.09101e+10
-4.08311e+10
-4.0655e+10
-4.02855e+10
-3.96153e+10
-3.87092e+10
-3.78002e+10
-3.7058e+10
-3.6519e+10
-3.61684e+10
-3.59647e+10
-3.58674e+10
-3.58436e+10
-3.58686e+10
-3.59234e+10
-3.59925e+10
-3.60618e+10
-3.61189e+10
-3.61542e+10
-3.61635e+10
-3.615e+10
-3.61237e+10
-3.6099e+10
-3.60883e+10
-3.61003e+10
-3.61539e+10
-3.63094e+10
-3.6659e+10
-3.71307e+10
-3.70693e+10
-3.52383e+10
-3.17316e+10
-3.17786e+10
-4.47496e+10
-6.48206e+10
-4.22633e+10
-3.79907e+10
-3.80046e+10
-3.80127e+10
-3.80363e+10
-3.80859e+10
-3.81594e+10
-3.82619e+10
-3.84031e+10
-3.85908e+10
-3.88299e+10
-3.91218e+10
-3.94628e+10
-3.98432e+10
-4.02458e+10
-4.06455e+10
-4.1009e+10
-4.12954e+10
-4.14643e+10
-4.15017e+10
-4.14446e+10
-4.13248e+10
-4.10128e+10
-4.02272e+10
-3.89521e+10
-3.76285e+10
-3.66569e+10
-3.60459e+10
-3.57102e+10
-3.55582e+10
-3.55241e+10
-3.55642e+10
-3.56495e+10
-3.57606e+10
-3.58826e+10
-3.60029e+10
-3.61104e+10
-3.6196e+10
-3.62558e+10
-3.62918e+10
-3.63116e+10
-3.63256e+10
-3.63407e+10
-3.63594e+10
-3.63952e+10
-3.65031e+10
-3.67663e+10
-3.70941e+10
-3.68041e+10
-3.46506e+10
-3.0787e+10
-3.0724e+10
-4.45237e+10
-6.64829e+10
-4.63237e+10
-3.79977e+10
-3.80056e+10
-3.80116e+10
-3.80351e+10
-3.8088e+10
-3.81644e+10
-3.82644e+10
-3.84028e+10
-3.85863e+10
-3.88191e+10
-3.91025e+10
-3.94326e+10
-3.97998e+10
-4.01873e+10
-4.0571e+10
-4.09184e+10
-4.11903e+10
-4.1348e+10
-4.13806e+10
-4.13274e+10
-4.12201e+10
-4.09338e+10
-4.01934e+10
-3.89688e+10
-3.76747e+10
-3.67076e+10
-3.60842e+10
-3.57289e+10
-3.55565e+10
-3.55025e+10
-3.55224e+10
-3.55864e+10
-3.56739e+10
-3.57696e+10
-3.58609e+10
-3.59374e+10
-3.5992e+10
-3.60228e+10
-3.6035e+10
-3.60405e+10
-3.60548e+10
-3.60909e+10
-3.6158e+10
-3.62755e+10
-3.65047e+10
-3.69342e+10
-3.74737e+10
-3.74261e+10
-3.5498e+10
-3.17198e+10
-3.13323e+10
-4.40489e+10
-6.46834e+10
-4.26619e+10
-3.79155e+10
-3.79282e+10
-3.79451e+10
-3.79784e+10
-3.80297e+10
-3.81064e+10
-3.82182e+10
-3.83763e+10
-3.85921e+10
-3.88738e+10
-3.92235e+10
-3.96367e+10
-4.0101e+10
-4.05944e+10
-4.1085e+10
-4.15323e+10
-4.1888e+10
-4.21035e+10
-4.21572e+10
-4.21157e+10
-4.21071e+10
-4.20245e+10
-4.12387e+10
-3.93127e+10
-3.71337e+10
-3.58671e+10
-3.52661e+10
-3.50118e+10
-3.49606e+10
-3.50156e+10
-3.51222e+10
-3.52506e+10
-3.53852e+10
-3.55172e+10
-3.56394e+10
-3.57455e+10
-3.58315e+10
-3.58976e+10
-3.59506e+10
-3.60029e+10
-3.60693e+10
-3.61607e+10
-3.62838e+10
-3.64557e+10
-3.67338e+10
-3.71928e+10
-3.77097e+10
-3.75667e+10
-3.55729e+10
-3.21186e+10
-3.27025e+10
-4.56619e+10
-6.29914e+10
-3.80028e+10
-3.7941e+10
-3.79491e+10
-3.79723e+10
-3.80107e+10
-3.80675e+10
-3.81451e+10
-3.82551e+10
-3.84096e+10
-3.86191e+10
-3.88912e+10
-3.92281e+10
-3.96255e+10
-4.00717e+10
-4.05463e+10
-4.10187e+10
-4.14491e+10
-4.17888e+10
-4.19863e+10
-4.20211e+10
-4.1964e+10
-4.19402e+10
-4.18497e+10
-4.1115e+10
-3.92996e+10
-3.72208e+10
-3.59904e+10
-3.5378e+10
-3.51066e+10
-3.50416e+10
-3.50861e+10
-3.51841e+10
-3.53033e+10
-3.54267e+10
-3.55434e+10
-3.56447e+10
-3.57233e+10
-3.57747e+10
-3.57993e+10
-3.58048e+10
-3.58053e+10
-3.58189e+10
-3.58617e+10
-3.59478e+10
-3.6104e+10
-3.64013e+10
-3.69329e+10
-3.75974e+10
-3.76937e+10
-3.60229e+10
-3.29684e+10
-3.41431e+10
-4.74483e+10
-6.13743e+10
-3.12203e+10
-3.78356e+10
-3.78299e+10
-3.78435e+10
-3.78654e+10
-3.78947e+10
-3.79387e+10
-3.80115e+10
-3.81298e+10
-3.83112e+10
-3.85695e+10
-3.89125e+10
-3.93413e+10
-3.9852e+10
-4.04312e+10
-4.10484e+10
-4.16569e+10
-4.21973e+10
-4.26001e+10
-4.28133e+10
-4.29152e+10
-4.31634e+10
-4.3598e+10
-4.31397e+10
-4.01305e+10
-3.63287e+10
-3.46873e+10
-3.415e+10
-3.40789e+10
-3.42537e+10
-3.44953e+10
-3.47318e+10
-3.49398e+10
-3.51157e+10
-3.52599e+10
-3.53715e+10
-3.54487e+10
-3.54902e+10
-3.54993e+10
-3.54854e+10
-3.54647e+10
-3.54567e+10
-3.54798e+10
-3.55497e+10
-3.56955e+10
-3.5987e+10
-3.65036e+10
-3.71111e+10
-3.70944e+10
-3.53997e+10
-3.27948e+10
-3.49149e+10
-4.82086e+10
-6.055e+10
-3.03772e+10
-3.78449e+10
-3.78459e+10
-3.78674e+10
-3.78981e+10
-3.79349e+10
-3.79847e+10
-3.80619e+10
-3.81822e+10
-3.83626e+10
-3.86167e+10
-3.89517e+10
-3.9368e+10
-3.98605e+10
-4.04154e+10
-4.10047e+10
-4.15838e+10
-4.20941e+10
-4.2462e+10
-4.26249e+10
-4.26619e+10
-4.2835e+10
-4.32173e+10
-4.28614e+10
-4.01764e+10
-3.65496e+10
-3.48964e+10
-3.42823e+10
-3.41655e+10
-3.43068e+10
-3.4525e+10
-3.47467e+10
-3.49458e+10
-3.51157e+10
-3.5255e+10
-3.53615e+10
-3.54316e+10
-3.54632e+10
-3.54577e+10
-3.54236e+10
-3.5376e+10
-3.53342e+10
-3.53167e+10
-3.5341e+10
-3.54394e+10
-3.5686e+10
-3.61656e+10
-3.67472e+10
-3.67062e+10
-3.4932e+10
-3.19877e+10
-3.31771e+10
-4.56412e+10
-6.00986e+10
-3.29409e+10
-3.77013e+10
-3.76966e+10
-3.7701e+10
-3.77021e+10
-3.77028e+10
-3.771e+10
-3.77434e+10
-3.78311e+10
-3.80056e+10
-3.82963e+10
-3.87245e+10
-3.93017e+10
-4.00324e+10
-4.09057e+10
-4.1869e+10
-4.28441e+10
-4.37455e+10
-4.44881e+10
-4.49689e+10
-4.52801e+10
-4.57931e+10
-4.67082e+10
-4.70181e+10
-4.33914e+10
-3.76389e+10
-3.33544e+10
-3.29846e+10
-3.33819e+10
-3.38777e+10
-3.43024e+10
-3.46434e+10
-3.49144e+10
-3.51304e+10
-3.52994e+10
-3.54243e+10
-3.55056e+10
-3.55445e+10
-3.55451e+10
-3.55175e+10
-3.54784e+10
-3.54483e+10
-3.54459e+10
-3.54874e+10
-3.56011e+10
-3.58516e+10
-3.63054e+10
-3.68094e+10
-3.6645e+10
-3.48077e+10
-3.2105e+10
-3.38782e+10
-4.63052e+10
-5.90996e+10
-2.99402e+10
-3.77073e+10
-3.77053e+10
-3.7715e+10
-3.77201e+10
-3.77245e+10
-3.77356e+10
-3.7772e+10
-3.78613e+10
-3.80352e+10
-3.83224e+10
-3.87427e+10
-3.93067e+10
-4.00171e+10
-4.08619e+10
-4.18042e+10
-4.27714e+10
-4.36603e+10
-4.43575e+10
-4.47094e+10
-4.48421e+10
-4.52011e+10
-4.60723e+10
-4.65774e+10
-4.3706e+10
-3.83117e+10
-3.33568e+10
-3.2968e+10
-3.33621e+10
-3.38512e+10
-3.42653e+10
-3.4596e+10
-3.48586e+10
-3.50697e+10
-3.52373e+10
-3.53638e+10
-3.54499e+10
-3.54966e+10
-3.55082e+10
-3.54949e+10
-3.54729e+10
-3.54616e+10
-3.54783e+10
-3.55373e+10
-3.56633e+10
-3.59153e+10
-3.63503e+10
-3.67913e+10
-3.64584e+10
-3.42205e+10
-3.06873e+10
-3.10788e+10
-4.2626e+10
-5.8408e+10
-3.38428e+10
-3.76618e+10
-3.76738e+10
-3.76675e+10
-3.76532e+10
-3.76303e+10
-3.76103e+10
-3.7618e+10
-3.76916e+10
-3.78755e+10
-3.8206e+10
-3.8702e+10
-3.93637e+10
-4.01806e+10
-4.11211e+10
-4.21175e+10
-4.31015e+10
-4.40137e+10
-4.4767e+10
-4.52597e+10
-4.56336e+10
-4.62031e+10
-4.71649e+10
-4.80213e+10
-4.69316e+10
-4.1698e+10
-2.72395e+10
-2.99145e+10
-3.20207e+10
-3.32107e+10
-3.39316e+10
-3.44105e+10
-3.47498e+10
-3.50016e+10
-3.51911e+10
-3.53304e+10
-3.54249e+10
-3.54788e+10
-3.54994e+10
-3.54994e+10
-3.54971e+10
-3.55134e+10
-3.55657e+10
-3.56659e+10
-3.58328e+10
-3.61162e+10
-3.6564e+10
-3.70072e+10
-3.67127e+10
-3.46416e+10
-3.15672e+10
-3.31042e+10
-4.62015e+10
-6.09055e+10
-3.69e+10
-3.76536e+10
-3.76663e+10
-3.76625e+10
-3.76518e+10
-3.7635e+10
-3.76226e+10
-3.76376e+10
-3.77155e+10
-3.78984e+10
-3.82228e+10
-3.87107e+10
-3.93673e+10
-4.01811e+10
-4.11225e+10
-4.21444e+10
-4.31532e+10
-4.40443e+10
-4.47502e+10
-4.51084e+10
-4.52822e+10
-4.58002e+10
-4.70863e+10
-4.80648e+10
-4.73766e+10
-4.4332e+10
-2.71993e+10
-2.98461e+10
-3.19601e+10
-3.31718e+10
-3.39044e+10
-3.43871e+10
-3.4725e+10
-3.4973e+10
-3.51583e+10
-3.52942e+10
-3.5387e+10
-3.54413e+10
-3.5465e+10
-3.54711e+10
-3.54783e+10
-3.55072e+10
-3.55746e+10
-3.56909e+10
-3.58728e+10
-3.61654e+10
-3.6608e+10
-3.70064e+10
-3.65554e+10
-3.41312e+10
-3.07811e+10
-3.32307e+10
-4.84767e+10
-6.03885e+10
-2.99649e+10
-3.76333e+10
-3.76445e+10
-3.76374e+10
-3.76201e+10
-3.7594e+10
-3.75712e+10
-3.75782e+10
-3.76554e+10
-3.7849e+10
-3.81921e+10
-3.86957e+10
-3.93604e+10
-4.01772e+10
-4.11137e+10
-4.21187e+10
-4.31201e+10
-4.40377e+10
-4.47973e+10
-4.53317e+10
-4.5771e+10
-4.63865e+10
-4.72649e+10
-4.7571e+10
-4.32294e+10
-2.07637e+10
-2.9449e+10
-3.16915e+10
-3.2998e+10
-3.37907e+10
-3.43063e+10
-3.46609e+10
-3.49159e+10
-3.51024e+10
-3.5236e+10
-3.53244e+10
-3.53735e+10
-3.5392e+10
-3.53937e+10
-3.5398e+10
-3.54264e+10
-3.54957e+10
-3.5616e+10
-3.58023e+10
-3.60983e+10
-3.65527e+10
-3.70183e+10
-3.68019e+10
-3.48537e+10
-3.17711e+10
-3.27625e+10
-4.49015e+10
-6.1433e+10
-4.18262e+10
-3.76212e+10
-3.76467e+10
-3.76364e+10
-3.76248e+10
-3.76056e+10
-3.75914e+10
-3.76053e+10
-3.76845e+10
-3.78722e+10
-3.82048e+10
-3.8702e+10
-3.93654e+10
-4.01823e+10
-4.11217e+10
-4.21323e+10
-4.3136e+10
-4.40354e+10
-4.47311e+10
-4.51499e+10
-4.53718e+10
-4.58279e+10
-4.69853e+10
-4.84283e+10
-4.75354e+10
-2.16773e+10
-2.94364e+10
-3.164e+10
-3.29562e+10
-3.37638e+10
-3.4291e+10
-3.46542e+10
-3.49157e+10
-3.5107e+10
-3.52437e+10
-3.53335e+10
-3.53819e+10
-3.53967e+10
-3.53909e+10
-3.53835e+10
-3.53953e+10
-3.54435e+10
-3.55381e+10
-3.56947e+10
-3.59584e+10
-3.63784e+10
-3.68004e+10
-3.65018e+10
-3.44341e+10
-3.15331e+10
-3.39044e+10
-4.80715e+10
-6.07529e+10
-3.08936e+10
-3.76907e+10
-3.76953e+10
-3.77026e+10
-3.76995e+10
-3.76926e+10
-3.76898e+10
-3.77138e+10
-3.77992e+10
-3.79877e+10
-3.83103e+10
-3.87787e+10
-3.94003e+10
-4.01739e+10
-4.1074e+10
-4.20595e+10
-4.30374e+10
-4.39064e+10
-4.46162e+10
-4.51009e+10
-4.53849e+10
-4.57559e+10
-4.64696e+10
-4.71395e+10
-4.58001e+10
-3.6127e+10
-3.20155e+10
-3.20298e+10
-3.27939e+10
-3.35363e+10
-3.40984e+10
-3.4509e+10
-3.48141e+10
-3.50474e+10
-3.52275e+10
-3.53637e+10
-3.54598e+10
-3.5519e+10
-3.55472e+10
-3.55558e+10
-3.55612e+10
-3.55821e+10
-3.56326e+10
-3.57198e+10
-3.58558e+10
-3.60831e+10
-3.64584e+10
-3.6869e+10
-3.6692e+10
-3.49586e+10
-3.23347e+10
-3.41125e+10
-4.66683e+10
-5.87304e+10
-3.06485e+10
-3.76822e+10
-3.76979e+10
-3.77059e+10
-3.77121e+10
-3.7717e+10
-3.77289e+10
-3.77671e+10
-3.78621e+10
-3.80503e+10
-3.83626e+10
-3.8816e+10
-3.94145e+10
-4.01486e+10
-4.09926e+10
-4.19075e+10
-4.28227e+10
-4.36498e+10
-4.42788e+10
-4.46783e+10
-4.49683e+10
-4.54764e+10
-4.63294e+10
-4.66596e+10
-4.54028e+10
-3.69227e+10
-3.17695e+10
-3.18112e+10
-3.26502e+10
-3.34526e+10
-3.40552e+10
-3.4492e+10
-3.48153e+10
-3.50623e+10
-3.52534e+10
-3.53982e+10
-3.55004e+10
-3.55628e+10
-3.55907e+10
-3.55945e+10
-3.55903e+10
-3.55963e+10
-3.56268e+10
-3.56895e+10
-3.57972e+10
-3.5992e+10
-3.63275e+10
-3.66822e+10
-3.64128e+10
-3.44897e+10
-3.13839e+10
-3.22336e+10
-4.43863e+10
-5.86357e+10
-3.16146e+10
-3.78984e+10
-3.79077e+10
-3.79306e+10
-3.7957e+10
-3.79898e+10
-3.80343e+10
-3.8104e+10
-3.8219e+10
-3.84027e+10
-3.86739e+10
-3.90414e+10
-3.95064e+10
-4.00617e+10
-4.06864e+10
-4.13464e+10
-4.19829e+10
-4.25207e+10
-4.28889e+10
-4.30349e+10
-4.30132e+10
-4.30761e+10
-4.33595e+10
-4.30181e+10
-4.01534e+10
-3.67089e+10
-3.49345e+10
-3.42691e+10
-3.41406e+10
-3.42854e+10
-3.4501e+10
-3.47184e+10
-3.49134e+10
-3.50816e+10
-3.52219e+10
-3.53327e+10
-3.54119e+10
-3.54588e+10
-3.54763e+10
-3.54729e+10
-3.54622e+10
-3.54594e+10
-3.54754e+10
-3.55139e+10
-3.5583e+10
-3.57221e+10
-3.59902e+10
-3.62947e+10
-3.60582e+10
-3.43268e+10
-3.15906e+10
-3.28664e+10
-4.50951e+10
-5.88322e+10
-3.08671e+10
-3.78923e+10
-3.78995e+10
-3.79234e+10
-3.79515e+10
-3.79878e+10
-3.80377e+10
-3.81142e+10
-3.82366e+10
-3.84267e+10
-3.87023e+10
-3.9072e+10
-3.95346e+10
-4.00779e+10
-4.06785e+10
-4.13008e+10
-4.18931e+10
-4.23924e+10
-4.27308e+10
-4.28782e+10
-4.2925e+10
-4.31137e+10
-4.34733e+10
-4.30508e+10
-4.02834e+10
-3.67189e+10
-3.48088e+10
-3.41348e+10
-3.40461e+10
-3.4236e+10
-3.44866e+10
-3.47282e+10
-3.49393e+10
-3.51181e+10
-3.52646e+10
-3.53782e+10
-3.5457e+10
-3.55004e+10
-3.55115e+10
-3.54991e+10
-3.54776e+10
-3.54635e+10
-3.54695e+10
-3.55015e+10
-3.55689e+10
-3.57088e+10
-3.59727e+10
-3.62545e+10
-3.59493e+10
-3.39829e+10
-3.03912e+10
-2.95181e+10
-3.99222e+10
-5.78234e+10
-3.79026e+10
-3.80096e+10
-3.80172e+10
-3.80402e+10
-3.80755e+10
-3.81258e+10
-3.81965e+10
-3.82969e+10
-3.84396e+10
-3.86371e+10
-3.88991e+10
-3.92295e+10
-3.96251e+10
-4.00734e+10
-4.05513e+10
-4.10254e+10
-4.14525e+10
-4.17853e+10
-4.19787e+10
-4.20046e+10
-4.19067e+10
-4.18056e+10
-4.1638e+10
-4.08544e+10
-3.90605e+10
-3.70987e+10
-3.5887e+10
-3.52453e+10
-3.49466e+10
-3.48746e+10
-3.4921e+10
-3.50225e+10
-3.51421e+10
-3.52606e+10
-3.53665e+10
-3.54522e+10
-3.5512e+10
-3.55437e+10
-3.55496e+10
-3.55383e+10
-3.55239e+10
-3.55222e+10
-3.55452e+10
-3.55976e+10
-3.56896e+10
-3.5862e+10
-3.61768e+10
-3.65485e+10
-3.64138e+10
-3.48379e+10
-3.22903e+10
-3.35656e+10
-4.51318e+10
-5.80853e+10
-2.95209e+10
-3.79935e+10
-3.7998e+10
-3.80223e+10
-3.80571e+10
-3.81076e+10
-3.81789e+10
-3.82813e+10
-3.84277e+10
-3.86315e+10
-3.89028e+10
-3.92458e+10
-3.96569e+10
-4.01227e+10
-4.06192e+10
-4.11114e+10
-4.15547e+10
-4.18984e+10
-4.20953e+10
-4.21275e+10
-4.20527e+10
-4.19819e+10
-4.18084e+10
-4.09603e+10
-3.90567e+10
-3.69773e+10
-3.572e+10
-3.51e+10
-3.48437e+10
-3.48136e+10
-3.48928e+10
-3.50171e+10
-3.51513e+10
-3.5278e+10
-3.53873e+10
-3.54722e+10
-3.55275e+10
-3.55513e+10
-3.55463e+10
-3.55215e+10
-3.54917e+10
-3.54738e+10
-3.54809e+10
-3.55194e+10
-3.55992e+10
-3.57581e+10
-3.60501e+10
-3.63764e+10
-3.61419e+10
-3.42874e+10
-3.09565e+10
-3.07643e+10
-4.18404e+10
-5.82873e+10
-3.64426e+10
-3.81324e+10
-3.81388e+10
-3.81598e+10
-3.81936e+10
-3.82441e+10
-3.83163e+10
-3.84175e+10
-3.85561e+10
-3.87401e+10
-3.89746e+10
-3.92611e+10
-3.95954e+10
-3.99666e+10
-4.03555e+10
-4.07356e+10
-4.10741e+10
-4.13362e+10
-4.14894e+10
-4.15173e+10
-4.14448e+10
-4.12942e+10
-4.09392e+10
-4.01054e+10
-3.87912e+10
-3.74508e+10
-3.64686e+10
-3.58542e+10
-3.55151e+10
-3.53618e+10
-3.53231e+10
-3.53501e+10
-3.54104e+10
-3.5483e+10
-3.55532e+10
-3.56103e+10
-3.56468e+10
-3.56594e+10
-3.56509e+10
-3.56309e+10
-3.56151e+10
-3.56213e+10
-3.56639e+10
-3.57507e+10
-3.58947e+10
-3.61397e+10
-3.65468e+10
-3.70171e+10
-3.69496e+10
-3.53666e+10
-3.27597e+10
-3.40815e+10
-4.62387e+10
-6.05394e+10
-3.49486e+10
-3.81335e+10
-3.81344e+10
-3.81563e+10
-3.81887e+10
-3.82373e+10
-3.83067e+10
-3.84044e+10
-3.85393e+10
-3.87196e+10
-3.89512e+10
-3.9236e+10
-3.95707e+10
-3.99451e+10
-4.03415e+10
-4.07341e+10
-4.10901e+10
-4.1371e+10
-4.15399e+10
-4.15815e+10
-4.15247e+10
-4.13886e+10
-4.10313e+10
-4.01678e+10
-3.88049e+10
-3.7423e+10
-3.64344e+10
-3.58345e+10
-3.55113e+10
-3.53695e+10
-3.5337e+10
-3.53661e+10
-3.54257e+10
-3.54955e+10
-3.55616e+10
-3.56135e+10
-3.5644e+10
-3.56499e+10
-3.5634e+10
-3.5606e+10
-3.55811e+10
-3.55766e+10
-3.56052e+10
-3.5672e+10
-3.57859e+10
-3.59842e+10
-3.63203e+10
-3.66845e+10
-3.64475e+10
-3.45857e+10
-3.17621e+10
-3.37986e+10
-4.78199e+10
-6.10711e+10
-3.01379e+10
-3.82541e+10
-3.82653e+10
-3.82896e+10
-3.83276e+10
-3.83822e+10
-3.84568e+10
-3.85564e+10
-3.86858e+10
-3.88493e+10
-3.90485e+10
-3.92823e+10
-3.95457e+10
-3.98289e+10
-4.01178e+10
-4.03939e+10
-4.06338e+10
-4.08101e+10
-4.08992e+10
-4.0895e+10
-4.08101e+10
-4.06303e+10
-4.02568e+10
-3.95768e+10
-3.86535e+10
-3.77199e+10
-3.6954e+10
-3.63986e+10
-3.60338e+10
-3.58148e+10
-3.56981e+10
-3.56497e+10
-3.5644e+10
-3.56616e+10
-3.5687e+10
-3.57078e+10
-3.57145e+10
-3.57024e+10
-3.5673e+10
-3.56351e+10
-3.56039e+10
-3.55968e+10
-3.56273e+10
-3.57023e+10
-3.58335e+10
-3.60618e+10
-3.64387e+10
-3.68346e+10
-3.65776e+10
-3.45699e+10
-3.11601e+10
-3.14317e+10
-4.40139e+10
-6.33847e+10
-4.27119e+10
-3.82725e+10
-3.82794e+10
-3.83051e+10
-3.83423e+10
-3.83953e+10
-3.84673e+10
-3.8563e+10
-3.86874e+10
-3.88444e+10
-3.90358e+10
-3.92607e+10
-3.95144e+10
-3.97881e+10
-4.00687e+10
-4.03385e+10
-4.05742e+10
-4.07483e+10
-4.08376e+10
-4.08367e+10
-4.07587e+10
-4.05896e+10
-4.02307e+10
-3.95704e+10
-3.86666e+10
-3.77497e+10
-3.69957e+10
-3.64458e+10
-3.60792e+10
-3.58528e+10
-3.57256e+10
-3.56652e+10
-3.56472e+10
-3.56529e+10
-3.56674e+10
-3.56786e+10
-3.56774e+10
-3.56595e+10
-3.56266e+10
-3.55877e+10
-3.55577e+10
-3.55527e+10
-3.55843e+10
-3.56551e+10
-3.57712e+10
-3.59666e+10
-3.62862e+10
-3.65885e+10
-3.61678e+10
-3.39464e+10
-3.08301e+10