/*--------------------------------*- C++ -*----------------------------------*\
| =========                 |                                                 |
| \\      /  F ield         | OpenFOAM: The Open Source CFD Toolbox           |
|  \\    /   O peration     | Version:  4.1                                   |
|   \\  /    A nd           | Web:      www.OpenFOAM.org                      |
|    \\/     M anipulation  |                                                 |
\*---------------------------------------------------------------------------*/
FoamFile
{
    version     2.0;
    format      ascii;
    class       surfaceScalarField;
    location    "69";
    object      phi;
}
// * * * * * * * * * * * * * * * * * * * * * * * * * * * * * * * * * * * * * //

dimensions      [0 3 -1 0 0 0 0];

internalField   nonuniform List<scalar> 
11516
(
-3.58293e+10
3.95476e+07
9.55795e+08
-3.65567e+10
-1.47985e+07
7.36767e+08
-3.72038e+10
-2.53191e+07
6.66299e+08
-3.7713e+10
-6.01879e+07
5.62447e+08
-3.81896e+10
-4.62685e+07
5.15483e+08
-3.86352e+10
-4.52204e+07
4.82877e+08
-3.90421e+10
-4.81788e+07
4.46535e+08
-3.94243e+10
-4.69539e+07
4.19882e+08
-3.97799e+10
-4.61734e+07
3.916e+08
-4.01064e+10
-4.48091e+07
3.60163e+08
-4.03995e+10
-4.30785e+07
3.23804e+08
-4.06552e+10
-4.14932e+07
2.82856e+08
-4.08647e+10
-4.10269e+07
2.32644e+08
-4.10217e+10
-4.26325e+07
1.77099e+08
-4.11164e+10
-4.62841e+07
1.1304e+08
-4.11404e+10
-5.10041e+07
4.17985e+07
-4.10892e+10
-5.57517e+07
-3.30399e+07
-4.09576e+10
-6.00929e+07
-1.14053e+08
-4.07423e+10
-6.37141e+07
-1.97449e+08
-4.04387e+10
-6.71208e+07
-2.84641e+08
-4.00446e+10
-7.0132e+07
-3.70712e+08
-3.95675e+10
-7.33203e+07
-4.49919e+08
-3.90116e+10
-7.65153e+07
-5.24473e+08
-3.83915e+10
-8.00055e+07
-5.85321e+08
-3.77173e+10
-8.37115e+07
-6.36332e+08
-3.70078e+10
-8.77258e+07
-6.69389e+08
-3.62756e+10
-9.2167e+07
-6.90248e+08
-3.5539e+10
-9.70874e+07
-6.92758e+08
-3.48096e+10
-1.02621e+08
-6.83141e+08
-3.41003e+10
-1.08914e+08
-6.59686e+08
-3.34223e+10
-1.16079e+08
-6.23678e+08
-3.27824e+10
-1.24402e+08
-5.79401e+08
-3.21907e+10
-1.33974e+08
-5.23093e+08
-3.16536e+10
-1.45029e+08
-4.5838e+08
-3.11779e+10
-1.57892e+08
-3.84494e+08
-3.07698e+10
-1.73542e+08
-3.00336e+08
-3.04304e+10
-1.93051e+08
-2.09332e+08
-3.0162e+10
-2.17355e+08
-1.0825e+08
-2.99619e+10
-2.46446e+08
-601516
-2.98278e+10
-2.79972e+08
1.14416e+08
-2.97592e+10
-3.19401e+08
2.40738e+08
-2.97606e+10
-3.67645e+08
3.84789e+08
-2.98459e+10
-4.26116e+08
5.5639e+08
-3.00456e+10
-4.95239e+08
7.67344e+08
-3.04209e+10
-5.73516e+08
1.0381e+09
-3.10823e+10
-6.56371e+08
1.39331e+09
-3.21679e+10
-7.4357e+08
1.83918e+09
-3.37199e+10
-8.89506e+08
2.29375e+09
-3.55793e+10
-1.25339e+09
2.7104e+09
-3.74955e+10
-2.03886e+09
3.21801e+09
-4.09359e+10
-2.91889e+09
5.04747e+09
-4.87339e+10
-1.34217e+09
8.29493e+09
-6.22024e+10
-1.54759e+09
1.45386e+10
-6.30179e+08
9.52761e+09
-5.0145e+10
6.75321e+08
-5.06798e+10
5.17318e+08
-5.11369e+10
4.28835e+08
-5.15676e+10
3.67121e+08
-5.1928e+10
3.1067e+08
-5.22554e+10
2.78438e+08
-5.25539e+10
2.46321e+08
-5.28259e+10
2.20623e+08
-5.30705e+10
1.937e+08
-5.32853e+10
1.64691e+08
-5.34661e+10
1.3181e+08
-5.36112e+10
9.64565e+07
-5.37145e+10
5.32455e+07
-5.37765e+10
7.84805e+06
-5.37929e+10
-4.41144e+07
-5.3759e+10
-1.01552e+08
-5.36723e+10
-1.61424e+08
-5.35272e+10
-2.26396e+08
-5.33236e+10
-2.90224e+08
-5.30586e+10
-3.54966e+08
-5.27329e+10
-4.18236e+08
-5.23543e+10
-4.73415e+08
-5.19271e+10
-5.24822e+08
-5.14656e+10
-5.62262e+08
-5.09781e+10
-5.91898e+08
-5.0482e+10
-6.0487e+08
-4.99868e+10
-6.09089e+08
-4.9509e+10
-5.97411e+08
-4.90574e+10
-5.77679e+08
-4.8643e+10
-5.47432e+08
-4.82755e+10
-5.08172e+08
-4.79598e+10
-4.64971e+08
-4.77051e+10
-4.13571e+08
-4.75165e+10
-3.58252e+08
-4.74003e+10
-2.9804e+08
-4.73649e+10
-2.31516e+08
-4.74157e+10
-1.62672e+08
-4.7563e+10
-8.66165e+07
-4.78123e+10
-7.81899e+06
-4.81707e+10
7.63561e+07
-4.86463e+10
1.64889e+08
-4.92523e+10
2.60142e+08
-5.00117e+10
3.69014e+08
-5.09575e+10
4.99507e+08
-5.21405e+10
6.65089e+08
-5.36307e+10
8.81855e+08
-5.55212e+10
1.15742e+09
-5.79241e+10
1.45579e+09
-6.1172e+10
1.80535e+09
-6.60819e+10
2.48317e+09
-7.40752e+10
4.69566e+09
-8.37129e+10
7.90134e+09
-9.85969e+10
1.30514e+10
1.57622e+10
-6.7703e+10
7.93025e+06
1.21805e+09
-6.79712e+10
-5.90953e+06
1.00893e+09
-6.82137e+10
-2.51773e+07
9.31709e+08
-6.84572e+10
-3.00185e+07
8.33508e+08
-6.86684e+10
-4.0341e+07
7.64685e+08
-6.88712e+10
-4.41437e+07
7.27591e+08
-6.90698e+10
-4.8492e+07
6.91387e+08
-6.92602e+10
-5.21454e+07
6.60039e+08
-6.94402e+10
-5.62362e+07
6.25347e+08
-6.96111e+10
-5.97775e+07
5.8824e+08
-6.977e+10
-6.34826e+07
5.43099e+08
-6.99123e+10
-6.72916e+07
4.88866e+08
-7.00362e+10
-7.14599e+07
4.22889e+08
-7.01362e+10
-7.58613e+07
3.46157e+08
-7.0208e+10
-8.13518e+07
2.567e+08
-7.02485e+10
-8.80331e+07
1.59166e+08
-7.02532e+10
-9.56878e+07
5.33761e+07
-7.02219e+10
-1.03688e+08
-5.70489e+07
-7.01606e+10
-1.10708e+08
-1.65345e+08
-7.00756e+10
-1.16012e+08
-2.70142e+08
-6.99687e+10
-1.21111e+08
-3.71801e+08
-6.98407e+10
-1.25704e+08
-4.66126e+08
-6.96971e+10
-1.29801e+08
-5.50841e+08
-6.95369e+10
-1.3314e+08
-6.23341e+08
-6.93697e+10
-1.35549e+08
-6.76998e+08
-6.91932e+10
-1.36865e+08
-7.16339e+08
-6.90157e+10
-1.37034e+08
-7.37045e+08
-6.88342e+10
-1.35894e+08
-7.43718e+08
-6.86529e+10
-1.33417e+08
-7.35913e+08
-6.84668e+10
-1.29463e+08
-7.20207e+08
-6.82748e+10
-1.24074e+08
-6.94633e+08
-6.80738e+10
-1.17192e+08
-6.64883e+08
-6.78568e+10
-1.08867e+08
-6.31296e+08
-6.76203e+10
-9.88773e+07
-5.93883e+08
-6.73562e+10
-8.72316e+07
-5.56744e+08
-6.70552e+10
-7.43445e+07
-5.18811e+08
-6.67064e+10
-6.09165e+07
-4.84342e+08
-6.62959e+10
-4.64957e+07
-4.52482e+08
-6.58155e+10
-2.97992e+07
-4.22367e+08
-6.52633e+10
-9.6651e+06
-3.86601e+08
-6.46356e+10
1.24629e+07
-3.42186e+08
-6.39224e+10
3.52617e+07
-2.87065e+08
-6.31035e+10
5.94953e+07
-2.23678e+08
-6.21597e+10
8.64031e+07
-1.41406e+08
-6.1071e+10
1.1659e+08
-2.63487e+07
-5.98079e+10
1.51224e+08
1.28606e+08
-5.83093e+10
1.88226e+08
2.88733e+08
-5.65322e+10
2.0949e+08
4.02725e+08
-5.44938e+10
1.63893e+08
5.25495e+08
-5.27409e+10
1.93162e+08
1.17614e+09
-5.03329e+10
3.14333e+08
2.21502e+09
-4.52163e+10
5.66739e+08
2.50896e+09
-2.3498e+10
-3.4158e+09
-3.79524e+09
-4.10224e+09
-4.76075e+09
-7.73677e+10
8.07689e+08
-7.74732e+10
6.15593e+08
-7.76043e+10
5.33307e+08
-7.7737e+10
4.68463e+08
-7.78738e+10
4.05723e+08
-7.80095e+10
3.68617e+08
-7.81505e+10
3.37478e+08
-7.82927e+10
3.09299e+08
-7.84343e+10
2.77497e+08
-7.85762e+10
2.45253e+08
-7.87164e+10
2.0666e+08
-7.88507e+10
1.61086e+08
-7.89781e+10
1.05921e+08
-7.90932e+10
4.25936e+07
-7.91945e+10
-2.97713e+07
-7.92845e+10
-1.06574e+08
-7.93597e+10
-1.9007e+08
-7.94218e+10
-2.77611e+08
-7.94667e+10
-3.66048e+08
-7.94936e+10
-4.53738e+08
-7.95035e+10
-5.38273e+08
-7.94959e+10
-6.14959e+08
-7.94756e+10
-6.82503e+08
-7.94392e+10
-7.38141e+08
-7.93963e+10
-7.75509e+08
-7.93419e+10
-8.00169e+08
-7.92836e+10
-8.07649e+08
-7.92163e+10
-8.03108e+08
-7.91435e+10
-7.85878e+08
-7.90586e+10
-7.63062e+08
-7.89593e+10
-7.31937e+08
-7.8842e+10
-6.98875e+08
-7.86984e+10
-6.64154e+08
-7.85248e+10
-6.27385e+08
-7.83121e+10
-5.92581e+08
-7.80522e+10
-5.5781e+08
-7.77375e+10
-5.27015e+08
-7.73555e+10
-4.99076e+08
-7.68952e+10
-4.75618e+08
-7.63452e+10
-4.52613e+08
-7.56969e+10
-4.29728e+08
-7.49446e+10
-4.03323e+08
-7.40676e+10
-3.80824e+08
-7.30416e+10
-3.58137e+08
-7.18382e+10
-3.28093e+08
-7.0418e+10
-2.90289e+08
-6.87066e+10
-2.79203e+08
-6.66497e+10
-3.37452e+08
-6.42767e+10
-4.02528e+08
-6.14044e+10
-2.3871e+08
-5.58817e+10
-5.90736e+08
-4.51399e+10
-2.27688e+09
-2.92723e+10
-6.08028e+09
-3.36963e+09
-5.88233e+10
1.44235e+08
8.53058e+08
-5.865e+10
1.5095e+08
6.83056e+08
-5.8515e+10
1.42351e+08
6.52835e+08
-5.84437e+10
1.46065e+08
6.1483e+08
-5.83794e+10
1.34229e+08
5.65077e+08
-5.83185e+10
1.31391e+08
5.34123e+08
-5.82689e+10
1.29209e+08
5.11563e+08
-5.82205e+10
1.26978e+08
4.83668e+08
-5.81738e+10
1.2382e+08
4.5401e+08
-5.81238e+10
1.21194e+08
4.16202e+08
-5.80719e+10
1.1832e+08
3.72086e+08
-5.80174e+10
1.1532e+08
3.1809e+08
-5.79593e+10
1.11877e+08
2.51377e+08
-5.7896e+10
1.08342e+08
1.72074e+08
-5.78315e+10
1.05913e+08
8.22701e+07
-5.77595e+10
1.04438e+08
-2.22372e+07
-5.76745e+10
1.02383e+08
-1.41922e+08
-5.75687e+10
9.92914e+07
-2.71058e+08
-5.74259e+10
9.32516e+07
-4.12181e+08
-5.72336e+10
8.55267e+07
-5.56481e+08
-5.6994e+10
7.74421e+07
-6.97585e+08
-5.67056e+10
7.00519e+07
-8.31291e+08
-5.63779e+10
6.30287e+07
-9.47635e+08
-5.60185e+10
5.73451e+07
-1.04248e+09
-5.56352e+10
5.27755e+07
-1.11152e+09
-5.52413e+10
4.94103e+07
-1.15398e+09
-5.48455e+10
4.70264e+07
-1.17059e+09
-5.44551e+10
4.5497e+07
-1.16706e+09
-5.40735e+10
4.45253e+07
-1.14628e+09
-5.37053e+10
4.38947e+07
-1.11285e+09
-5.33466e+10
4.32857e+07
-1.07317e+09
-5.29996e+10
4.25252e+07
-1.02626e+09
-5.2659e+10
4.12869e+07
-9.79639e+08
-5.23197e+10
3.912e+07
-9.32391e+08
-5.19812e+10
3.54183e+07
-8.8355e+08
-5.16359e+10
3.00653e+07
-8.38228e+08
-5.12811e+10
2.25791e+07
-7.95271e+08
-5.09137e+10
1.2904e+07
-7.52656e+08
-5.05299e+10
475956
-7.0948e+08
-5.0112e+10
-1.60378e+07
-6.6937e+08
-4.96405e+10
-3.66825e+07
-6.31115e+08
-4.90918e+10
-6.08723e+07
-5.96012e+08
-4.84535e+10
-9.01135e+07
-5.55008e+08
-4.7703e+10
-1.25323e+08
-5.08111e+08
-4.68122e+10
-1.65391e+08
-4.54553e+08
-4.57578e+10
-2.08258e+08
-3.96589e+08
-4.45629e+10
-2.59493e+08
-3.31448e+08
-4.33123e+10
-3.44334e+08
-2.35904e+08
-4.2023e+10
-5.01038e+08
-7.95881e+07
-4.01034e+10
-5.15038e+08
-7.53061e+07
-3.79359e+10
-2.9451e+08
5.78185e+08
-3.94927e+10
2.60368e+08
4.26673e+09
-5.22484e+10
-5.24055e+09
1.48166e+10
-4.28882e+09
1.0905e+10
-6.52339e+10
8.28644e+08
-6.51369e+10
6.68626e+08
-6.50974e+10
6.35438e+08
-6.50806e+10
5.97084e+08
-6.51007e+10
5.59418e+08
-6.51333e+10
5.3204e+08
-6.51808e+10
5.13606e+08
-6.52341e+10
4.89126e+08
-6.52977e+10
4.64506e+08
-6.5364e+10
4.32438e+08
-6.5435e+10
3.95734e+08
-6.55091e+10
3.50162e+08
-6.55848e+10
2.9273e+08
-6.56585e+10
2.23428e+08
-6.57282e+10
1.43979e+08
-6.57821e+10
4.8963e+07
-6.58138e+10
-6.00154e+07
-6.58193e+10
-1.78123e+08
-6.57915e+10
-3.05871e+08
-6.573e+10
-4.3459e+08
-6.56364e+10
-5.5851e+08
-6.55095e+10
-6.75547e+08
-6.53568e+10
-7.74485e+08
-6.51853e+10
-8.52532e+08
-6.50002e+10
-9.05151e+08
-6.48136e+10
-9.31968e+08
-6.46326e+10
-9.33609e+08
-6.44638e+10
-9.16046e+08
-6.43105e+10
-8.81752e+08
-6.41788e+10
-8.35269e+08
-6.40656e+10
-7.83047e+08
-6.3976e+10
-7.23712e+08
-6.39071e+10
-6.65408e+08
-6.38572e+10
-6.0723e+08
-6.38304e+10
-5.47625e+08
-6.3823e+10
-4.92637e+08
-6.38368e+10
-4.40445e+08
-6.38739e+10
-3.89675e+08
-6.39365e+10
-3.41197e+08
-6.40196e+10
-2.9994e+08
-6.41183e+10
-2.64111e+08
-6.42211e+10
-2.3686e+08
-6.4334e+10
-2.09338e+08
-6.44603e+10
-1.83302e+08
-6.46007e+10
-1.57121e+08
-6.47604e+10
-1.31641e+08
-6.49983e+10
-1.02625e+08
-6.54636e+10
-4.84944e+07
-6.63383e+10
1.10353e+08
-6.7425e+10
4.84699e+08
-7.03031e+10
2.31172e+09
-7.73386e+10
5.59193e+09
-1.02022e+11
1.39328e+10
8.84746e+09
-6.416e+10
5.04056e+07
8.48565e+08
-6.42969e+10
4.04709e+07
7.78649e+08
-6.44098e+10
3.45302e+07
7.3077e+08
-6.45381e+10
2.72089e+07
7.15574e+08
-6.46837e+10
1.76315e+07
6.92723e+08
-6.48348e+10
1.18462e+07
6.73072e+08
-6.49878e+10
9.05309e+06
6.55283e+08
-6.5147e+10
5.48923e+06
6.37386e+08
-6.53093e+10
1.08355e+06
6.15572e+08
-6.54723e+10
-3.50572e+06
5.83323e+08
-6.56298e+10
-8.87616e+06
5.3954e+08
-6.57758e+10
-1.49296e+07
4.80274e+08
-6.59051e+10
-2.19116e+07
4.04265e+08
-6.60142e+10
-2.98592e+07
3.12295e+08
-6.60915e+10
-3.84117e+07
1.99759e+08
-6.61372e+10
-4.76512e+07
7.09588e+07
-6.6155e+10
-5.67259e+07
-6.84277e+07
-6.61472e+10
-6.66193e+07
-2.16225e+08
-6.61149e+10
-7.70318e+07
-3.70974e+08
-6.60568e+10
-8.81468e+07
-5.30249e+08
-6.59731e+10
-9.8799e+07
-6.84761e+08
-6.5869e+10
-1.09147e+08
-8.28486e+08
-6.57485e+10
-1.1818e+08
-9.49772e+08
-6.56204e+10
-1.25535e+08
-1.04081e+09
-6.54916e+10
-1.30958e+08
-1.09925e+09
-6.53731e+10
-1.34593e+08
-1.12181e+09
-6.5271e+10
-1.36666e+08
-1.11431e+09
-6.51893e+10
-1.37575e+08
-1.08404e+09
-6.51293e+10
-1.37752e+08
-1.03571e+09
-6.50865e+10
-1.37816e+08
-9.7884e+08
-6.50595e+10
-1.38217e+08
-9.15972e+08
-6.50399e+10
-1.39456e+08
-8.52693e+08
-6.50245e+10
-1.41838e+08
-7.90729e+08
-6.5006e+10
-1.45884e+08
-7.32982e+08
-6.49744e+10
-1.51972e+08
-6.8015e+08
-6.49274e+10
-1.60914e+08
-6.29641e+08
-6.48556e+10
-1.72876e+08
-5.85587e+08
-6.4749e+10
-1.88308e+08
-5.4667e+08
-6.45939e+10
-2.07866e+08
-5.13244e+08
-6.43749e+10
-2.33419e+08
-4.89403e+08
-6.40742e+10
-2.65696e+08
-4.73625e+08
-6.36754e+10
-3.04675e+08
-4.67307e+08
-6.31549e+10
-3.50589e+08
-4.6776e+08
-6.24982e+10
-4.04139e+08
-4.69057e+08
-6.1692e+10
-4.6399e+08
-4.75621e+08
-6.07298e+10
-5.31644e+08
-4.92003e+08
-5.95909e+10
-6.1905e+08
-5.23631e+08
-5.81994e+10
-7.46763e+08
-5.75136e+08
-5.6384e+10
-8.8185e+08
-7.08139e+08
-5.45207e+10
-6.34157e+08
-9.11546e+08
-5.21409e+10
-1.77163e+08
-1.09363e+09
-4.58289e+10
-7.91564e+08
-5.79477e+08
-2.0119e+10
-1.00431e+10
-2.22916e+08
-7.25241e+09
1.47002e+09
-6.58412e+10
8.73931e+08
-6.59275e+10
7.94447e+08
-6.60208e+10
7.62628e+08
-6.61261e+10
7.28912e+08
-6.62517e+10
7.01993e+08
-6.63893e+10
6.80879e+08
-6.6529e+10
6.6177e+08
-6.66764e+10
6.41702e+08
-6.68293e+10
6.18257e+08
-6.6985e+10
5.8465e+08
-6.71388e+10
5.40868e+08
-6.72855e+10
4.82181e+08
-6.74216e+10
4.07259e+08
-6.75442e+10
3.16471e+08
-6.76435e+10
2.04835e+08
-6.77202e+10
7.72149e+07
-6.77791e+10
-6.04858e+07
-6.78231e+10
-2.04572e+08
-6.78569e+10
-3.53453e+08
-6.78776e+10
-5.0594e+08
-6.78858e+10
-6.5318e+08
-6.78841e+10
-7.89926e+08
-6.78744e+10
-9.044e+08
-6.78615e+10
-9.90052e+08
-6.78482e+10
-1.04465e+09
-6.78405e+10
-1.06558e+09
-6.78398e+10
-1.05879e+09
-6.78462e+10
-1.0315e+09
-6.78582e+10
-9.88213e+08
-6.78698e+10
-9.3818e+08
-6.78795e+10
-8.83893e+08
-6.7879e+10
-8.30866e+08
-6.78669e+10
-7.80921e+08
-6.78384e+10
-7.36909e+08
-6.77865e+10
-6.99774e+08
-6.7713e+10
-6.67421e+08
-6.76133e+10
-6.44416e+08
-6.74825e+10
-6.29251e+08
-6.73166e+10
-6.22714e+08
-6.71128e+10
-6.29164e+08
-6.68688e+10
-6.47353e+08
-6.65827e+10
-6.79399e+08
-6.62465e+10
-7.23742e+08
-6.58619e+10
-7.75141e+08
-6.5429e+10
-8.374e+08
-6.49544e+10
-9.12929e+08
-6.44494e+10
-1.00859e+09
-6.39073e+10
-1.12696e+09
-6.31423e+10
-1.30756e+09
-6.13488e+10
-1.60442e+09
-5.63663e+10
-2.34601e+09
-4.80172e+10
-2.9186e+09
-4.57668e+10
1.96317e+09
1.97281e+09
-6.104e+10
5.45239e+07
7.5466e+08
-6.1022e+10
4.73359e+07
7.0928e+08
-6.10321e+10
4.04793e+07
6.96648e+08
-6.10422e+10
3.802e+07
6.84082e+08
-6.10685e+10
3.53658e+07
6.80017e+08
-6.11075e+10
3.42772e+07
6.74136e+08
-6.11543e+10
3.36853e+07
6.6475e+08
-6.12073e+10
3.26751e+07
6.54199e+08
-6.12626e+10
3.15139e+07
6.35889e+08
-6.13193e+10
3.01168e+07
6.0652e+08
-6.13757e+10
2.81512e+07
5.64367e+08
-6.14294e+10
2.57781e+07
5.04759e+08
-6.14802e+10
2.33471e+07
4.28081e+08
-6.15208e+10
2.09373e+07
3.2816e+08
-6.15493e+10
1.86493e+07
2.05231e+08
-6.15615e+10
1.64624e+07
5.99055e+07
-6.15469e+10
1.54515e+07
-1.07793e+08
-6.14986e+10
1.55545e+07
-2.94595e+08
-6.14095e+10
1.66548e+07
-4.92135e+08
-6.12773e+10
1.68566e+07
-6.97566e+08
-6.10977e+10
1.68763e+07
-8.98823e+08
-6.08736e+10
1.54055e+07
-1.08852e+09
-6.06087e+10
1.35573e+07
-1.24652e+09
-6.03139e+10
1.03909e+07
-1.36141e+09
-6.00049e+10
6.34599e+06
-1.42462e+09
-5.96959e+10
1.11236e+06
-1.43692e+09
-5.94008e+10
-5.11795e+06
-1.40519e+09
-5.91281e+10
-1.20612e+07
-1.34211e+09
-5.88812e+10
-1.93838e+07
-1.25685e+09
-5.86601e+10
-2.6987e+07
-1.1625e+09
-5.84612e+10
-3.47543e+07
-1.06489e+09
-5.82791e+10
-4.26455e+07
-9.7145e+08
-5.81067e+10
-5.05801e+07
-8.85787e+08
-5.79379e+10
-5.88205e+07
-8.09661e+08
-5.77643e+10
-6.74567e+07
-7.45565e+08
-5.75757e+10
-7.66067e+07
-6.931e+08
-5.73662e+10
-8.58774e+07
-6.5171e+08
-5.71234e+10
-9.53202e+07
-6.2635e+08
-5.68376e+10
-1.04583e+08
-6.13879e+08
-5.64999e+10
-1.13845e+08
-6.17187e+08
-5.60979e+10
-1.23901e+08
-6.36327e+08
-5.56206e+10
-1.35036e+08
-6.71384e+08
-5.50509e+10
-1.47427e+08
-7.2604e+08
-5.43698e+10
-1.62919e+08
-7.98152e+08
-5.35609e+10
-1.82468e+08
-8.95565e+08
-5.26165e+10
-2.08619e+08
-1.02219e+09
-5.15181e+10
-2.5696e+08
-1.18536e+09
-5.02006e+10
-3.51251e+08
-1.40344e+09
-4.85924e+10
-4.55835e+08
-1.7335e+09
-4.7555e+10
-1.06653e+08
-1.72977e+09
-4.72638e+10
3.75323e+08
-1.62603e+09
-4.10934e+10
-1.87978e+09
-4.58796e+09
-1.09656e+10
-1.24829e+10
-1.78206e+10
-5.44951e+09
-8.27427e+09
-5.78759e+10
7.92929e+08
-5.77895e+10
7.51524e+08
-5.77372e+10
7.46991e+08
-5.7702e+10
7.27978e+08
-5.76884e+10
7.20036e+08
-5.76907e+10
7.13687e+08
-5.77012e+10
7.02254e+08
-5.77194e+10
6.88915e+08
-5.77416e+10
6.68281e+08
-5.77674e+10
6.36738e+08
-5.77947e+10
5.92458e+08
-5.78212e+10
5.30423e+08
-5.78464e+10
4.51486e+08
-5.78633e+10
3.4967e+08
-5.7871e+10
2.2556e+08
-5.7865e+10
8.02243e+07
-5.78309e+10
-8.96137e+07
-5.77517e+10
-2.81325e+08
-5.76158e+10
-4.87959e+08
-5.74182e+10
-7.03222e+08
-5.71563e+10
-9.16493e+08
-5.68318e+10
-1.1179e+09
-5.64526e+10
-1.28871e+09
-5.60327e+10
-1.41575e+09
-5.55934e+10
-1.4907e+09
-5.51543e+10
-1.51405e+09
-5.47339e+10
-1.49297e+09
-5.43441e+10
-1.44017e+09
-5.39917e+10
-1.36523e+09
-5.36784e+10
-1.28146e+09
-5.34025e+10
-1.19515e+09
-5.31599e+10
-1.11374e+09
-5.29448e+10
-1.04099e+09
-5.27526e+10
-9.78823e+08
-5.25768e+10
-9.3011e+08
-5.24095e+10
-8.94145e+08
-5.22478e+10
-8.70241e+08
-5.20826e+10
-8.62196e+08
-5.19083e+10
-8.6684e+08
-5.17211e+10
-8.86237e+08
-5.15178e+10
-9.1901e+08
-5.12987e+10
-9.63597e+08
-5.10604e+10
-1.02389e+09
-5.08021e+10
-1.09659e+09
-5.05292e+10
-1.18684e+09
-5.02582e+10
-1.29644e+09
-5.00162e+10
-1.43956e+09
-4.97919e+10
-1.67043e+09
-4.94066e+10
-2.13249e+09
-4.81087e+10
-3.00775e+09
-4.52246e+10
-4.86092e+09
-4.22518e+10
-7.87343e+09
-3.35666e+10
-1.93721e+10
-7.97221e+09
-5.90967e+10
1.44519e+08
6.02145e+08
-5.91466e+10
1.44147e+08
6.05392e+08
-5.92162e+10
1.42277e+08
6.14388e+08
-5.93017e+10
1.41838e+08
6.18254e+08
-5.94012e+10
1.41791e+08
6.28205e+08
-5.95147e+10
1.42366e+08
6.35774e+08
-5.96422e+10
1.43473e+08
6.392e+08
-5.97808e+10
1.45036e+08
6.37943e+08
-5.99279e+10
1.47287e+08
6.25499e+08
-6.00815e+10
1.50024e+08
5.99506e+08
-6.02356e+10
1.53342e+08
5.53782e+08
-6.03865e+10
1.5709e+08
4.86647e+08
-6.05274e+10
1.61554e+08
3.94511e+08
-6.06514e+10
1.66588e+08
2.71899e+08
-6.07539e+10
1.7197e+08
1.19816e+08
-6.08285e+10
1.77657e+08
-6.12564e+07
-6.08774e+10
1.82463e+08
-2.6642e+08
-6.08961e+10
1.86226e+08
-4.91423e+08
-6.08831e+10
1.88255e+08
-7.29157e+08
-6.08345e+10
1.90452e+08
-9.7442e+08
-6.0749e+10
1.92142e+08
-1.21971e+09
-6.06249e+10
1.94318e+08
-1.45207e+09
-6.04687e+10
1.96311e+08
-1.64615e+09
-6.02924e+10
1.98508e+08
-1.7816e+09
-6.01144e+10
2.00563e+08
-1.84652e+09
-5.99493e+10
2.02156e+08
-1.8466e+09
-5.98078e+10
2.03242e+08
-1.79338e+09
-5.96945e+10
2.04158e+08
-1.70463e+09
-5.96068e+10
2.05254e+08
-1.59668e+09
-5.95438e+10
2.06913e+08
-1.48054e+09
-5.95007e+10
2.09326e+08
-1.36681e+09
-5.94742e+10
2.12571e+08
-1.26105e+09
-5.94633e+10
2.16361e+08
-1.16487e+09
-5.94653e+10
2.20224e+08
-1.08118e+09
-5.94822e+10
2.2366e+08
-1.00813e+09
-5.95147e+10
2.26674e+08
-9.45719e+08
-5.95659e+10
2.28801e+08
-8.916e+08
-5.96394e+10
2.29434e+08
-8.48206e+08
-5.97363e+10
2.27701e+08
-8.14528e+08
-5.98622e+10
2.23597e+08
-7.87001e+08
-6.00212e+10
2.1718e+08
-7.67893e+08
-6.02191e+10
2.07982e+08
-7.53564e+08
-6.04666e+10
1.95183e+08
-7.4394e+08
-6.07779e+10
1.78329e+08
-7.35764e+08
-6.11908e+10
1.55607e+08
-7.20177e+08
-6.17602e+10
1.22231e+08
-6.91871e+08
-6.25525e+10
6.4638e+07
-6.47377e+08
-6.35894e+10
-4.0738e+07
-6.387e+08
-6.47911e+10
-1.98993e+08
-8.32508e+08
-6.49137e+10
-6.18395e+08
-1.70723e+09
-6.12135e+10
-1.84997e+09
-4.37861e+09
-5.33008e+10
-4.61836e+09
-9.0105e+09
-3.97099e+10
-1.30085e+10
-1.90419e+10
-5.02642e+09
-3.47436e+09
-6.11472e+10
9.4899e+08
-6.12277e+10
9.69907e+08
-6.13133e+10
9.68717e+08
-6.14193e+10
9.69744e+08
-6.15414e+10
9.77807e+08
-6.16787e+10
9.87254e+08
-6.1832e+10
9.92771e+08
-6.19987e+10
9.94321e+08
-6.21754e+10
9.85612e+08
-6.23603e+10
9.64691e+08
-6.25469e+10
9.24926e+08
-6.27318e+10
8.64462e+08
-6.29064e+10
7.79012e+08
-6.30621e+10
6.62655e+08
-6.31913e+10
5.16171e+08
-6.32856e+10
3.38856e+08
-6.3345e+10
1.35794e+08
-6.33725e+10
-8.80145e+07
-6.33708e+10
-3.24516e+08
-6.33387e+10
-5.70668e+08
-6.32711e+10
-8.19595e+08
-6.31657e+10
-1.05837e+09
-6.30262e+10
-1.26154e+09
-6.28639e+10
-1.40749e+09
-6.26973e+10
-1.48327e+09
-6.25423e+10
-1.49321e+09
-6.24116e+10
-1.44741e+09
-6.23131e+10
-1.36294e+09
-6.22467e+10
-1.25601e+09
-6.22138e+10
-1.13808e+09
-6.22103e+10
-1.02061e+09
-6.22333e+10
-9.10101e+08
-6.22814e+10
-8.09278e+08
-6.23499e+10
-7.23742e+08
-6.24384e+10
-6.52987e+08
-6.25451e+10
-5.97564e+08
-6.2671e+10
-5.54337e+08
-6.28189e+10
-5.25783e+08
-6.29889e+10
-5.11817e+08
-6.31863e+10
-5.08995e+08
-6.34122e+10
-5.19372e+08
-6.36705e+10
-5.39387e+08
-6.39701e+10
-5.69551e+08
-6.43219e+10
-6.08035e+08
-6.47566e+10
-6.47587e+08
-6.53196e+10
-6.88569e+08
-6.608e+10
-7.43667e+08
-6.70972e+10
-9.03677e+08
-6.84199e+10
-1.33534e+09
-7.01141e+10
-2.42747e+09
-7.22731e+10
-5.21021e+09
-7.40243e+10
-1.13702e+10
-8.45569e+10
-2.23971e+10
-2.43018e+09
-5.53057e+10
4.19846e+08
1.7701e+08
-5.53658e+10
4.35129e+08
2.21735e+08
-5.54289e+10
4.29141e+08
2.3966e+08
-5.55134e+10
4.32969e+08
2.61105e+08
-5.56106e+10
4.33843e+08
2.83077e+08
-5.57187e+10
4.33837e+08
3.01446e+08
-5.58374e+10
4.32649e+08
3.16708e+08
-5.59646e+10
4.31179e+08
3.25136e+08
-5.60992e+10
4.29143e+08
3.21716e+08
-5.6236e+10
4.26085e+08
3.00391e+08
-5.63764e+10
4.21473e+08
2.62069e+08
-5.65125e+10
4.15421e+08
1.95887e+08
-5.66366e+10
4.08006e+08
9.85367e+07
-5.67422e+10
3.99196e+08
-3.45643e+07
-5.68181e+10
3.88847e+08
-2.07141e+08
-5.6853e+10
3.76802e+08
-4.19689e+08
-5.68343e+10
3.63427e+08
-6.70371e+08
-5.67526e+10
3.50822e+08
-9.49104e+08
-5.66027e+10
3.39597e+08
-1.24936e+09
-5.63787e+10
3.30439e+08
-1.56059e+09
-5.60752e+10
3.22798e+08
-1.88171e+09
-5.56886e+10
3.18207e+08
-2.19242e+09
-5.5228e+10
3.16553e+08
-2.45937e+09
-5.47247e+10
3.19634e+08
-2.63677e+09
-5.42206e+10
3.27263e+08
-2.70772e+09
-5.37574e+10
3.38979e+08
-2.67923e+09
-5.33598e+10
3.54014e+08
-2.57834e+09
-5.3038e+10
3.71364e+08
-2.43519e+09
-5.27916e+10
3.89975e+08
-2.27394e+09
-5.26094e+10
4.08843e+08
-2.11505e+09
-5.2482e+10
4.27271e+08
-1.96698e+09
-5.23969e+10
4.4465e+08
-1.83793e+09
-5.23434e+10
4.60204e+08
-1.72719e+09
-5.23138e+10
4.72723e+08
-1.634e+09
-5.23013e+10
4.82711e+08
-1.55613e+09
-5.23024e+10
4.90954e+08
-1.49135e+09
-5.23134e+10
4.97808e+08
-1.43752e+09
-5.23347e+10
5.03322e+08
-1.39292e+09
-5.23686e+10
5.07185e+08
-1.3535e+09
-5.24114e+10
5.09026e+08
-1.32054e+09
-5.24676e+10
5.08258e+08
-1.28669e+09
-5.25378e+10
5.04528e+08
-1.25118e+09
-5.26253e+10
4.97825e+08
-1.21188e+09
-5.27381e+10
4.89551e+08
-1.16495e+09
-5.28968e+10
4.82306e+08
-1.09808e+09
-5.3144e+10
4.76191e+08
-9.95377e+08
-5.35502e+10
4.6269e+08
-8.3485e+08
-5.42158e+10
4.07762e+08
-6.18623e+08
-5.53812e+10
2.94212e+08
-3.94824e+08
-5.75284e+10
-4.67405e+07
-2.64496e+08
-6.17893e+10
-1.22438e+09
-8.66964e+07
-6.77574e+10
-3.75735e+09
-5.28047e+08
-7.09957e+10
-1.27732e+10
-4.03567e+09
-5.26187e+09
1.76268e+10
-5.77225e+10
1.29228e+09
-5.76578e+10
1.33519e+09
-5.7624e+10
1.35874e+09
-5.76084e+10
1.38178e+09
-5.76117e+10
1.40972e+09
-5.76311e+10
1.43529e+09
-5.76692e+10
1.45831e+09
-5.77252e+10
1.47614e+09
-5.77995e+10
1.48343e+09
-5.78881e+10
1.4734e+09
-5.79947e+10
1.44655e+09
-5.8114e+10
1.39232e+09
-5.82411e+10
1.30681e+09
-5.83723e+10
1.18538e+09
-5.85009e+10
1.025e+09
-5.86209e+10
8.25037e+08
-5.87227e+10
5.87951e+08
-5.87978e+10
3.21756e+08
-5.88347e+10
3.43013e+07
-5.88293e+10
-2.65049e+08
-5.87772e+10
-5.68824e+08
-5.86786e+10
-8.59165e+08
-5.85407e+10
-1.10091e+09
-5.83923e+10
-1.25133e+09
-5.82662e+10
-1.29542e+09
-5.81925e+10
-1.24147e+09
-5.81847e+10
-1.11668e+09
-5.82438e+10
-9.50514e+08
-5.83636e+10
-7.66164e+08
-5.853e+10
-5.84192e+08
-5.8733e+10
-4.12385e+08
-5.89614e+10
-2.59547e+08
-5.92079e+10
-1.25244e+08
-5.94695e+10
-1.22956e+07
-5.97464e+10
8.33133e+07
-6.0039e+10
1.62236e+08
-6.03452e+10
2.25201e+08
-6.06659e+10
2.73401e+08
-6.10059e+10
3.1071e+08
-6.13646e+10
3.35333e+08
-6.17519e+10
3.55708e+08
-6.21759e+10
3.73434e+08
-6.26505e+10
3.92855e+08
-6.31954e+10
4.21647e+08
-6.38429e+10
4.76706e+08
-6.46528e+10
5.77805e+08
-6.5751e+10
7.59432e+08
-6.74019e+10
1.01834e+09
-7.0088e+10
1.35979e+09
-7.48597e+10
1.8126e+09
-8.46369e+10
2.66667e+09
-1.04391e+11
3.72916e+09
-1.52759e+11
1.25603e+10
1.05396e+10
-5.94651e+10
1.67204e+08
-2.013e+07
-5.94762e+10
1.70598e+08
5.7254e+07
-5.94982e+10
1.63795e+08
9.25202e+07
-5.95416e+10
1.60854e+08
1.38279e+08
-5.96027e+10
1.55772e+08
1.83221e+08
-5.96806e+10
1.48668e+08
2.25787e+08
-5.9776e+10
1.40181e+08
2.67264e+08
-5.9885e+10
1.31207e+08
2.98247e+08
-6.00073e+10
1.21638e+08
3.17545e+08
-6.01412e+10
1.1148e+08
3.17708e+08
-6.02781e+10
1.00861e+08
2.92575e+08
-6.04125e+10
9.05027e+07
2.3402e+08
-6.05354e+10
8.10734e+07
1.34596e+08
-6.0636e+10
7.32428e+07
-1.26892e+07
-6.0705e+10
6.78906e+07
-2.10963e+08
-6.07315e+10
6.47116e+07
-4.64385e+08
-6.07035e+10
6.40011e+07
-7.68739e+08
-6.06102e+10
6.47985e+07
-1.11711e+09
-6.04419e+10
6.76126e+07
-1.49402e+09
-6.01965e+10
7.17837e+07
-1.88818e+09
-5.98603e+10
7.48112e+07
-2.30078e+09
-5.94133e+10
7.33594e+07
-2.72015e+09
-5.88499e+10
6.63102e+07
-3.09033e+09
-5.82032e+10
5.14422e+07
-3.32984e+09
-5.75356e+10
2.87234e+07
-3.39501e+09
-5.69021e+10
427648
-3.30445e+09
-5.63391e+10
-2.99438e+07
-3.10628e+09
-5.58645e+10
-5.9066e+07
-2.85004e+09
-5.54815e+10
-8.44669e+07
-2.575e+09
-5.51863e+10
-1.04634e+08
-2.30951e+09
-5.4971e+10
-1.18891e+08
-2.067e+09
-5.48298e+10
-1.27089e+08
-1.85449e+09
-5.47555e+10
-1.29365e+08
-1.6722e+09
-5.47432e+10
-1.24494e+08
-1.51915e+09
-5.47889e+10
-1.12678e+08
-1.3919e+09
-5.48914e+10
-9.59486e+07
-1.28351e+09
-5.50477e+10
-7.47863e+07
-1.19281e+09
-5.52602e+10
-4.89148e+07
-1.11291e+09
-5.55279e+10
-1.79838e+07
-1.04235e+09
-5.58552e+10
1.78369e+07
-9.76211e+08
-5.62412e+10
5.86381e+07
-9.11109e+08
-5.66897e+10
1.04246e+08
-8.40862e+08
-5.72089e+10
1.54537e+08
-7.58373e+08
-5.78092e+10
2.11034e+08
-6.59932e+08
-5.85158e+10
2.76891e+08
-5.27159e+08
-5.93774e+10
3.5366e+08
-3.35297e+08
-6.05037e+10
4.37037e+08
-1.38186e+07
-6.21537e+10
5.31241e+08
5.41329e+08
-6.48642e+10
6.30349e+08
1.52645e+09
-6.96274e+10
6.57005e+08
3.35159e+09
-7.77762e+10
3.61307e+08
6.85674e+09
-9.14941e+10
-2.74336e+08
1.2416e+10
-1.24911e+11
3.50603e+08
2.80441e+10
-3.85825e+10
1.53989e+10
-5.75034e+10
1.44681e+09
-5.75145e+10
1.51338e+09
-5.75531e+10
1.5576e+09
-5.76185e+10
1.60453e+09
-5.77087e+10
1.65226e+09
-5.78244e+10
1.69644e+09
-5.79689e+10
1.73999e+09
-5.81389e+10
1.77424e+09
-5.83347e+10
1.79774e+09
-5.85552e+10
1.80202e+09
-5.87925e+10
1.78119e+09
-5.90403e+10
1.7271e+09
-5.92876e+10
1.63172e+09
-5.95196e+10
1.48769e+09
-5.97219e+10
1.29224e+09
-5.9877e+10
1.04166e+09
-5.99697e+10
7.40468e+08
-5.99836e+10
3.96047e+08
-5.99091e+10
2.27061e+07
-5.97316e+10
-3.75136e+08
-5.94323e+10
-7.97305e+08
-5.89916e+10
-1.22808e+09
-5.84125e+10
-1.61103e+09
-5.77421e+10
-1.86315e+09
-5.70602e+10
-1.93913e+09
-5.6436e+10
-1.85628e+09
-5.59129e+10
-1.66358e+09
-5.55076e+10
-1.41152e+09
-5.52165e+10
-1.14027e+09
-5.50255e+10
-8.79027e+08
-5.49145e+10
-6.40886e+08
-5.48659e+10
-4.32603e+08
-5.48625e+10
-2.53489e+08
-5.48823e+10
-1.10144e+08
-5.49034e+10
973308
-5.49136e+10
8.86409e+07
-5.49018e+10
1.53874e+08
-5.48597e+10
2.01679e+08
-5.47744e+10
2.31926e+08
-5.46378e+10
2.47987e+08
-5.4434e+10
2.51273e+08
-5.41501e+10
2.46704e+08
-5.37746e+10
2.39818e+08
-5.32918e+10
2.34476e+08
-5.26874e+10
2.48206e+08
-5.19558e+10
3.03458e+08
-5.11483e+10
4.72463e+08
-5.03643e+10
7.83831e+08
-4.98382e+10
1.35436e+09
-5.00098e+10
2.34334e+09
-5.20717e+10
4.607e+09
-5.84631e+10
9.35493e+09
-7.19633e+10
2.62988e+10
8.5156e+09
-6.10176e+10
9.9427e+07
-1.73746e+08
-6.09813e+10
9.79523e+07
-8.00242e+07
-6.09618e+10
9.97658e+07
-2.97194e+07
-6.09579e+10
9.95015e+07
3.19109e+07
-6.09702e+10
9.91569e+07
9.35481e+07
-6.09983e+10
9.79761e+07
1.53339e+08
-6.1043e+10
9.67062e+07
2.1297e+08
-6.1106e+10
9.5763e+07
2.63453e+08
-6.11861e+10
9.52253e+07
3.00518e+08
-6.12837e+10
9.51836e+07
3.18501e+08
-6.13964e+10
9.60915e+07
3.07853e+08
-6.15164e+10
9.83633e+07
2.55174e+08
-6.16368e+10
1.02202e+08
1.5375e+08
-6.17483e+10
1.07646e+08
-5.80574e+06
-6.18358e+10
1.14536e+08
-2.3264e+08
-6.18865e+10
1.22566e+08
-5.29076e+08
-6.18827e+10
1.31739e+08
-8.953e+08
-6.18126e+10
1.41838e+08
-1.31889e+09
-6.16705e+10
1.5259e+08
-1.77609e+09
-6.14573e+10
1.63092e+08
-2.25205e+09
-6.1166e+10
1.74085e+08
-2.75165e+09
-6.07693e+10
1.86513e+08
-3.28433e+09
-6.02502e+10
1.99756e+08
-3.78174e+09
-5.96663e+10
2.11235e+08
-4.08806e+09
-5.91306e+10
2.1757e+08
-4.10615e+09
-5.87202e+10
2.16672e+08
-3.88858e+09
-5.84531e+10
2.08123e+08
-3.54214e+09
-5.83154e+10
1.94007e+08
-3.14595e+09
-5.82758e+10
1.77341e+08
-2.75785e+09
-5.83036e+10
1.61089e+08
-2.40761e+09
-5.83714e+10
1.47494e+08
-2.1082e+09
-5.84608e+10
1.38102e+08
-1.85964e+09
-5.85567e+10
1.33637e+08
-1.65984e+09
-5.86489e+10
1.34881e+08
-1.50383e+09
-5.87334e+10
1.42145e+08
-1.38259e+09
-5.88022e+10
1.56866e+08
-1.29413e+09
-5.88527e+10
1.79765e+08
-1.23256e+09
-5.88758e+10
2.10621e+08
-1.1971e+09
-5.88662e+10
2.49232e+08
-1.18102e+09
-5.88125e+10
2.95199e+08
-1.18448e+09
-5.87014e+10
3.47962e+08
-1.20454e+09
-5.85164e+10
4.06749e+08
-1.23613e+09
-5.8239e+10
4.7058e+08
-1.27232e+09
-5.78504e+10
5.39053e+08
-1.30794e+09
-5.73292e+10
6.10444e+08
-1.32935e+09
-5.66476e+10
6.82205e+08
-1.32316e+09
-5.57531e+10
7.42437e+08
-1.2544e+09
-5.45641e+10
7.87099e+08
-1.05623e+09
-5.30027e+10
8.38896e+08
-5.60901e+08
-5.06713e+10
8.38594e+08
4.46619e+08
-4.69004e+10
8.30279e+08
2.59576e+09
-4.4009e+10
1.30741e+09
8.73844e+09
-4.98187e+10
7.00958e+09
2.75857e+10
4.18778e+09
1.14264e+10
-6.23738e+10
1.61258e+09
-6.2486e+10
1.722e+09
-6.26129e+10
1.78255e+09
-6.27677e+10