/*--------------------------------*- C++ -*----------------------------------*\
| =========                 |                                                 |
| \\      /  F ield         | OpenFOAM: The Open Source CFD Toolbox           |
|  \\    /   O peration     | Version:  4.1                                   |
|   \\  /    A nd           | Web:      www.OpenFOAM.org                      |
|    \\/     M anipulation  |                                                 |
\*---------------------------------------------------------------------------*/
FoamFile
{
    version     2.0;
    format      ascii;
    class       volScalarField;
    location    "31";
    object      p;
}
// * * * * * * * * * * * * * * * * * * * * * * * * * * * * * * * * * * * * * //

dimensions      [0 2 -2 0 0 0 0];

internalField   nonuniform List<scalar> 
4432
(
-2.63545e+10
-2.94719e+10
-2.59503e+10
-1.31633e+10
-1.47362e+10
-1.8661e+10
-1.74984e+10
-1.69065e+10
-1.66975e+10
-1.66216e+10
-1.64101e+10
-1.6146e+10
-1.59309e+10
-1.58021e+10
-1.57747e+10
-1.5761e+10
-1.56366e+10
-1.54655e+10
-1.53024e+10
-1.51571e+10
-1.5007e+10
-1.4856e+10
-1.47037e+10
-1.45516e+10
-1.44013e+10
-1.42546e+10
-1.41127e+10
-1.39765e+10
-1.38458e+10
-1.372e+10
-1.35982e+10
-1.34805e+10
-1.33675e+10
-1.32591e+10
-1.31562e+10
-1.30625e+10
-1.29819e+10
-1.29199e+10
-1.2884e+10
-1.28825e+10
-1.29236e+10
-1.30115e+10
-1.31411e+10
-1.32954e+10
-1.34479e+10
-1.35528e+10
-1.35217e+10
-1.32344e+10
-1.26091e+10
-1.18599e+10
-1.19199e+10
-1.3994e+10
-1.61638e+10
-8.50406e+09
-2.47468e+10
-2.4725e+10
-2.23423e+10
-1.77543e+10
-1.48452e+10
-1.7841e+10
-1.77293e+10
-1.70552e+10
-1.68411e+10
-1.67974e+10
-1.65412e+10
-1.61916e+10
-1.59281e+10
-1.58072e+10
-1.57924e+10
-1.57717e+10
-1.56333e+10
-1.54593e+10
-1.53063e+10
-1.51637e+10
-1.50146e+10
-1.48653e+10
-1.47145e+10
-1.45639e+10
-1.44147e+10
-1.42688e+10
-1.41273e+10
-1.39909e+10
-1.38595e+10
-1.37325e+10
-1.3609e+10
-1.34891e+10
-1.33737e+10
-1.32636e+10
-1.31602e+10
-1.30659e+10
-1.29842e+10
-1.29213e+10
-1.28848e+10
-1.28829e+10
-1.29236e+10
-1.30112e+10
-1.31395e+10
-1.32905e+10
-1.3434e+10
-1.35203e+10
-1.34565e+10
-1.31097e+10
-1.23955e+10
-1.15268e+10
-1.1527e+10
-1.38968e+10
-1.65403e+10
-9.37747e+09
-2.17968e+10
-2.06334e+10
-1.89143e+10
-1.91734e+10
-1.57592e+10
-1.68684e+10
-1.81624e+10
-1.75757e+10
-1.71791e+10
-1.70174e+10
-1.66509e+10
-1.62912e+10
-1.59899e+10
-1.57762e+10
-1.56988e+10
-1.5721e+10
-1.56621e+10
-1.54979e+10
-1.53317e+10
-1.5175e+10
-1.50241e+10
-1.48729e+10
-1.47206e+10
-1.45679e+10
-1.44164e+10
-1.4268e+10
-1.41242e+10
-1.39863e+10
-1.38545e+10
-1.37288e+10
-1.36083e+10
-1.34936e+10
-1.33875e+10
-1.32878e+10
-1.31898e+10
-1.31001e+10
-1.3026e+10
-1.29732e+10
-1.29485e+10
-1.2957e+10
-1.30029e+10
-1.30881e+10
-1.32062e+10
-1.33361e+10
-1.34452e+10
-1.34948e+10
-1.33912e+10
-1.29845e+10
-1.22274e+10
-1.14589e+10
-1.18702e+10
-1.47452e+10
-1.71871e+10
-9.95724e+09
-2.19896e+10
-2.11879e+10
-1.9155e+10
-1.73253e+10
-1.57815e+10
-1.70004e+10
-1.81676e+10
-1.74774e+10
-1.72064e+10
-1.7023e+10
-1.66728e+10
-1.62918e+10
-1.59719e+10
-1.57622e+10
-1.57101e+10
-1.57542e+10
-1.56765e+10
-1.54921e+10
-1.53375e+10
-1.51855e+10
-1.5037e+10
-1.48872e+10
-1.47365e+10
-1.45852e+10
-1.44352e+10
-1.42882e+10
-1.41457e+10
-1.40089e+10
-1.38781e+10
-1.37529e+10
-1.36323e+10
-1.35161e+10
-1.3406e+10
-1.33027e+10
-1.32063e+10
-1.31192e+10
-1.30455e+10
-1.29931e+10
-1.29701e+10
-1.29808e+10
-1.30286e+10
-1.31146e+10
-1.32312e+10
-1.33567e+10
-1.34561e+10
-1.34811e+10
-1.33392e+10
-1.28954e+10
-1.20933e+10
-1.12864e+10
-1.18008e+10
-1.50044e+10
-1.7269e+10
-8.50274e+09
-2.11835e+10
-1.87103e+10
-1.56285e+10
-1.8241e+10
-1.58677e+10
-1.57352e+10
-1.66652e+10
-1.70762e+10
-1.72104e+10
-1.71138e+10
-1.67623e+10
-1.64076e+10
-1.60578e+10
-1.57847e+10
-1.56884e+10
-1.56956e+10
-1.56344e+10
-1.54882e+10
-1.53414e+10
-1.51912e+10
-1.50424e+10
-1.48921e+10
-1.47398e+10
-1.45863e+10
-1.44329e+10
-1.42817e+10
-1.41347e+10
-1.39934e+10
-1.38584e+10
-1.37291e+10
-1.36031e+10
-1.34777e+10
-1.33562e+10
-1.32494e+10
-1.31539e+10
-1.30644e+10
-1.29949e+10
-1.295e+10
-1.29368e+10
-1.29573e+10
-1.30148e+10
-1.31125e+10
-1.32434e+10
-1.33825e+10
-1.34927e+10
-1.35211e+10
-1.33769e+10
-1.29428e+10
-1.21808e+10
-1.14441e+10
-1.18987e+10
-1.47028e+10
-1.71598e+10
-8.85004e+09
-2.04756e+10
-1.96785e+10
-1.7538e+10
-1.57965e+10
-1.61811e+10
-1.65678e+10
-1.68883e+10
-1.69392e+10
-1.71622e+10
-1.7036e+10
-1.66972e+10
-1.63419e+10
-1.60206e+10
-1.57804e+10
-1.56948e+10
-1.57216e+10
-1.56418e+10
-1.54835e+10
-1.53402e+10
-1.51936e+10
-1.5047e+10
-1.48976e+10
-1.47462e+10
-1.45932e+10
-1.44405e+10
-1.429e+10
-1.41434e+10
-1.40025e+10
-1.3868e+10
-1.37394e+10
-1.36144e+10
-1.3491e+10
-1.33717e+10
-1.32615e+10
-1.31614e+10
-1.30751e+10
-1.30068e+10
-1.29633e+10
-1.29511e+10
-1.29715e+10
-1.30268e+10
-1.31193e+10
-1.32401e+10
-1.33632e+10
-1.3447e+10
-1.34357e+10
-1.32406e+10
-1.27432e+10
-1.1906e+10
-1.11188e+10
-1.16403e+10
-1.4701e+10
-1.7375e+10
-9.623e+09
-1.93199e+10
-1.90316e+10
-1.75304e+10
-1.6454e+10
-1.66472e+10
-1.639e+10
-1.65303e+10
-1.67336e+10
-1.6935e+10
-1.6883e+10
-1.66171e+10
-1.63439e+10
-1.60649e+10
-1.5844e+10
-1.5754e+10
-1.57292e+10
-1.56424e+10
-1.55033e+10
-1.53662e+10
-1.52245e+10
-1.508e+10
-1.49306e+10
-1.47774e+10
-1.46218e+10
-1.44661e+10
-1.43128e+10
-1.41645e+10
-1.40227e+10
-1.38874e+10
-1.37563e+10
-1.36245e+10
-1.34836e+10
-1.33376e+10
-1.3232e+10
-1.31695e+10
-1.30735e+10
-1.29907e+10
-1.29493e+10
-1.29437e+10
-1.29791e+10
-1.30566e+10
-1.31792e+10
-1.3337e+10
-1.34969e+10
-1.36153e+10
-1.36315e+10
-1.34542e+10
-1.29889e+10
-1.22102e+10
-1.1454e+10
-1.18563e+10
-1.47648e+10
-1.80957e+10
-1.12552e+10
-1.89226e+10
-1.8204e+10
-1.71476e+10
-1.65097e+10
-1.75431e+10
-1.72603e+10
-1.65929e+10
-1.65283e+10
-1.68074e+10
-1.67653e+10
-1.65483e+10
-1.62922e+10
-1.60387e+10
-1.58495e+10
-1.57757e+10
-1.57483e+10
-1.56441e+10
-1.55034e+10
-1.5369e+10
-1.52309e+10
-1.50887e+10
-1.49411e+10
-1.47893e+10
-1.46345e+10
-1.44793e+10
-1.43262e+10
-1.41776e+10
-1.40355e+10
-1.39e+10
-1.37697e+10
-1.36414e+10
-1.35119e+10
-1.33852e+10
-1.32702e+10
-1.31676e+10
-1.30819e+10
-1.30117e+10
-1.29631e+10
-1.29536e+10
-1.29834e+10
-1.30524e+10
-1.31631e+10
-1.33061e+10
-1.34489e+10
-1.3543e+10
-1.35302e+10
-1.33239e+10
-1.2828e+10
-1.20307e+10
-1.13486e+10
-1.21074e+10
-1.55384e+10
-1.80616e+10
-9.18532e+09
-1.75312e+10
-1.76494e+10
-1.74713e+10
-1.66498e+10
-1.70519e+10
-1.6695e+10
-1.64662e+10
-1.64957e+10
-1.66871e+10
-1.67317e+10
-1.65296e+10
-1.62295e+10
-1.60082e+10
-1.58573e+10
-1.57947e+10
-1.57396e+10
-1.56372e+10
-1.55079e+10
-1.53757e+10
-1.52371e+10
-1.50923e+10
-1.49399e+10
-1.47814e+10
-1.46185e+10
-1.44552e+10
-1.42951e+10
-1.41412e+10
-1.39949e+10
-1.38556e+10
-1.37186e+10
-1.35793e+10
-1.34338e+10
-1.32893e+10
-1.31708e+10
-1.30776e+10
-1.29847e+10
-1.2906e+10
-1.28607e+10
-1.28552e+10
-1.28976e+10
-1.29925e+10
-1.31378e+10
-1.33185e+10
-1.35013e+10
-1.36375e+10
-1.36603e+10
-1.34788e+10
-1.29902e+10
-1.21493e+10
-1.12572e+10
-1.14609e+10
-1.4428e+10
-1.8526e+10
-1.284e+10
-1.77012e+10
-1.72965e+10
-1.69882e+10
-1.69308e+10
-1.76963e+10
-1.71105e+10
-1.64887e+10
-1.6363e+10
-1.64854e+10
-1.65328e+10
-1.64215e+10
-1.62045e+10
-1.6001e+10
-1.58614e+10
-1.58004e+10
-1.57433e+10
-1.56359e+10
-1.55085e+10
-1.53798e+10
-1.52451e+10
-1.51033e+10
-1.49538e+10
-1.47975e+10
-1.46367e+10
-1.44751e+10
-1.43166e+10
-1.4164e+10
-1.40183e+10
-1.38785e+10
-1.37433e+10
-1.36119e+10
-1.34809e+10
-1.33483e+10
-1.3224e+10
-1.31134e+10
-1.30165e+10
-1.29383e+10
-1.28862e+10
-1.28711e+10
-1.29006e+10
-1.29806e+10
-1.3109e+10
-1.32713e+10
-1.34374e+10
-1.35596e+10
-1.35727e+10
-1.33918e+10
-1.29194e+10
-1.21288e+10
-1.14004e+10
-1.203e+10
-1.53698e+10
-1.82103e+10
-9.7957e+09
-1.69516e+10
-1.7016e+10
-1.70088e+10
-1.68869e+10
-1.70644e+10
-1.67609e+10
-1.64353e+10
-1.63175e+10
-1.63888e+10
-1.64816e+10
-1.64222e+10
-1.61657e+10
-1.59692e+10
-1.58686e+10
-1.58142e+10
-1.57437e+10
-1.56422e+10
-1.55239e+10
-1.53986e+10
-1.52649e+10
-1.51215e+10
-1.49675e+10
-1.48034e+10
-1.46325e+10
-1.44608e+10
-1.42946e+10
-1.41365e+10
-1.39847e+10
-1.38392e+10
-1.36988e+10
-1.35614e+10
-1.3427e+10
-1.32995e+10
-1.31808e+10
-1.30658e+10
-1.29617e+10
-1.28799e+10
-1.28286e+10
-1.28167e+10
-1.28537e+10
-1.29453e+10
-1.30884e+10
-1.32666e+10
-1.34488e+10
-1.3587e+10
-1.36146e+10
-1.34463e+10
-1.29819e+10
-1.21595e+10
-1.12216e+10
-1.12609e+10
-1.41073e+10
-1.83125e+10
-1.21169e+10
-1.72647e+10
-1.71575e+10
-1.70342e+10
-1.68933e+10
-1.72537e+10
-1.68221e+10
-1.64353e+10
-1.63588e+10
-1.63824e+10
-1.64068e+10
-1.63192e+10
-1.61296e+10
-1.59635e+10
-1.58682e+10
-1.58106e+10
-1.57373e+10
-1.56343e+10
-1.55179e+10
-1.53951e+10
-1.52636e+10
-1.5122e+10
-1.49692e+10
-1.48064e+10
-1.46373e+10
-1.44676e+10
-1.43028e+10
-1.4146e+10
-1.3998e+10
-1.38574e+10
-1.37214e+10
-1.359e+10
-1.34617e+10
-1.3334e+10
-1.32108e+10
-1.30955e+10
-1.29905e+10
-1.29048e+10
-1.28469e+10
-1.28248e+10
-1.28487e+10
-1.29258e+10
-1.3053e+10
-1.32158e+10
-1.3385e+10
-1.35151e+10
-1.3543e+10
-1.3387e+10
-1.29497e+10
-1.21853e+10
-1.13969e+10
-1.17571e+10
-1.47831e+10
-1.81502e+10
-1.09066e+10
-1.65606e+10
-1.67633e+10
-1.68199e+10
-1.69423e+10
-1.68458e+10
-1.66052e+10
-1.63519e+10
-1.62155e+10
-1.62463e+10
-1.63293e+10
-1.62397e+10
-1.6053e+10
-1.59301e+10
-1.58665e+10
-1.58093e+10
-1.57349e+10
-1.56396e+10
-1.55302e+10
-1.54111e+10
-1.52815e+10
-1.51386e+10
-1.49789e+10
-1.48023e+10
-1.46155e+10
-1.44283e+10
-1.42491e+10
-1.40811e+10
-1.39255e+10
-1.37808e+10
-1.3643e+10
-1.35106e+10
-1.33858e+10
-1.32703e+10
-1.31593e+10
-1.30478e+10
-1.29443e+10
-1.28591e+10
-1.28012e+10
-1.27803e+10
-1.28049e+10
-1.28797e+10
-1.30022e+10
-1.31585e+10
-1.33207e+10
-1.34448e+10
-1.34722e+10
-1.33316e+10
-1.29386e+10
-1.22437e+10
-1.14998e+10
-1.17595e+10
-1.4422e+10
-1.74321e+10
-9.8981e+09
-1.68482e+10
-1.69836e+10
-1.71458e+10
-1.6882e+10
-1.66626e+10
-1.64194e+10
-1.63448e+10
-1.63275e+10
-1.63329e+10
-1.63025e+10
-1.61849e+10
-1.60392e+10
-1.59332e+10
-1.58691e+10
-1.581e+10
-1.57327e+10
-1.56364e+10
-1.55274e+10
-1.54089e+10
-1.52793e+10
-1.51358e+10
-1.49753e+10
-1.47987e+10
-1.46123e+10
-1.44251e+10
-1.42448e+10
-1.40771e+10
-1.39235e+10
-1.37824e+10
-1.36496e+10
-1.35219e+10
-1.33985e+10
-1.32814e+10
-1.31683e+10
-1.30579e+10
-1.2956e+10
-1.2871e+10
-1.28116e+10
-1.27875e+10
-1.28076e+10
-1.28767e+10
-1.29922e+10
-1.31407e+10
-1.32947e+10
-1.3412e+10
-1.34351e+10
-1.32944e+10
-1.29065e+10
-1.22262e+10
-1.15181e+10
-1.18555e+10
-1.45953e+10
-1.73305e+10
-9.20223e+09
-1.63355e+10
-1.65356e+10
-1.67508e+10
-1.69279e+10
-1.67185e+10
-1.63335e+10
-1.60985e+10
-1.60393e+10
-1.61484e+10
-1.62542e+10
-1.61517e+10
-1.60125e+10
-1.59334e+10
-1.58831e+10
-1.58292e+10
-1.57584e+10
-1.56701e+10
-1.55672e+10
-1.54536e+10
-1.53284e+10
-1.51869e+10
-1.50203e+10
-1.48278e+10
-1.46187e+10
-1.44085e+10
-1.42098e+10
-1.40288e+10
-1.38673e+10
-1.37223e+10
-1.35861e+10
-1.34572e+10
-1.33382e+10
-1.32208e+10
-1.31025e+10
-1.29864e+10
-1.28795e+10
-1.27889e+10
-1.2722e+10
-1.26883e+10
-1.26963e+10
-1.27505e+10
-1.28483e+10
-1.29759e+10
-1.31057e+10
-1.31958e+10
-1.31927e+10
-1.30332e+10
-1.26462e+10
-1.20007e+10
-1.13644e+10
-1.17704e+10
-1.44385e+10
-1.70423e+10
-9.3257e+09
-1.65006e+10
-1.66813e+10
-1.70565e+10
-1.70262e+10
-1.65464e+10
-1.61519e+10
-1.61242e+10
-1.61331e+10
-1.61694e+10
-1.61877e+10
-1.61067e+10
-1.60057e+10
-1.59352e+10
-1.58846e+10
-1.58288e+10
-1.57575e+10
-1.56698e+10
-1.55683e+10
-1.54556e+10
-1.53311e+10
-1.519e+10
-1.50243e+10
-1.48324e+10
-1.46235e+10
-1.44121e+10
-1.42112e+10
-1.40279e+10
-1.38638e+10
-1.37179e+10
-1.35848e+10
-1.34565e+10
-1.33331e+10
-1.3213e+10
-1.30943e+10
-1.29785e+10
-1.28723e+10
-1.27822e+10
-1.27151e+10
-1.26808e+10
-1.26879e+10
-1.27402e+10
-1.28349e+10
-1.29577e+10
-1.30802e+10
-1.316e+10
-1.31434e+10
-1.29669e+10
-1.2558e+10
-1.18814e+10
-1.11863e+10
-1.14658e+10
-1.40539e+10
-1.69872e+10
-9.65373e+09
-1.6192e+10
-1.62448e+10
-1.64718e+10
-1.66549e+10
-1.65735e+10
-1.61865e+10
-1.59609e+10
-1.59805e+10
-1.60995e+10
-1.61248e+10
-1.60421e+10
-1.59638e+10
-1.59147e+10
-1.58748e+10
-1.58276e+10
-1.57638e+10
-1.56822e+10
-1.55853e+10
-1.54778e+10
-1.5361e+10
-1.52275e+10
-1.50612e+10
-1.48526e+10
-1.46126e+10
-1.4369e+10
-1.41437e+10
-1.39455e+10
-1.37738e+10
-1.3625e+10
-1.34896e+10
-1.33592e+10
-1.32352e+10
-1.31131e+10
-1.29894e+10
-1.28687e+10
-1.27564e+10
-1.26598e+10
-1.25883e+10
-1.25517e+10
-1.25584e+10
-1.26118e+10
-1.2708e+10
-1.28312e+10
-1.29508e+10
-1.3021e+10
-1.29838e+10
-1.27702e+10
-1.23035e+10
-1.15478e+10
-1.07575e+10
-1.09554e+10
-1.36309e+10
-1.7149e+10
-1.09096e+10
-1.61892e+10
-1.62527e+10
-1.65843e+10
-1.67748e+10
-1.64821e+10
-1.61211e+10
-1.60563e+10
-1.60539e+10
-1.6056e+10
-1.60522e+10
-1.60085e+10
-1.59587e+10
-1.59153e+10
-1.58764e+10
-1.58285e+10
-1.57655e+10
-1.56852e+10
-1.55899e+10
-1.54834e+10
-1.53675e+10
-1.52353e+10
-1.50708e+10
-1.48638e+10
-1.46257e+10
-1.43831e+10
-1.4158e+10
-1.39584e+10
-1.37843e+10
-1.36348e+10
-1.35028e+10
-1.33737e+10
-1.32481e+10
-1.31235e+10
-1.29986e+10
-1.28779e+10
-1.27655e+10
-1.26683e+10
-1.25956e+10
-1.25574e+10
-1.25621e+10
-1.26133e+10
-1.27069e+10
-1.28268e+10
-1.29423e+10
-1.30077e+10
-1.29645e+10
-1.27427e+10
-1.22626e+10
-1.14806e+10
-1.06294e+10
-1.0699e+10
-1.32463e+10
-1.69729e+10
-1.23155e+10
-1.59947e+10
-1.59243e+10
-1.59483e+10
-1.61269e+10
-1.63063e+10
-1.61463e+10
-1.59929e+10
-1.60151e+10
-1.60423e+10
-1.59921e+10
-1.59529e+10
-1.59239e+10
-1.5899e+10
-1.58737e+10
-1.58391e+10
-1.57884e+10
-1.57195e+10
-1.56351e+10
-1.55416e+10
-1.54439e+10
-1.53341e+10
-1.51829e+10
-1.49571e+10
-1.46676e+10
-1.43701e+10
-1.41095e+10
-1.3895e+10
-1.37192e+10
-1.35705e+10
-1.34394e+10
-1.33168e+10
-1.31961e+10
-1.30736e+10
-1.29492e+10
-1.28277e+10
-1.27152e+10
-1.26203e+10
-1.25544e+10
-1.25295e+10
-1.25549e+10
-1.26346e+10
-1.27638e+10
-1.29249e+10
-1.3084e+10
-1.31905e+10
-1.31791e+10
-1.29711e+10
-1.24764e+10
-1.1648e+10
-1.07536e+10
-1.08683e+10
-1.34883e+10
-1.68488e+10
-1.0111e+10
-1.58781e+10
-1.58149e+10
-1.5961e+10
-1.6245e+10
-1.63411e+10
-1.62494e+10
-1.607e+10
-1.60009e+10
-1.59793e+10
-1.59655e+10
-1.5948e+10
-1.59262e+10
-1.59014e+10
-1.58753e+10
-1.58391e+10
-1.57876e+10
-1.57183e+10
-1.56335e+10
-1.55392e+10
-1.54408e+10
-1.53313e+10
-1.5182e+10
-1.49603e+10
-1.4676e+10
-1.43833e+10
-1.41253e+10
-1.39112e+10
-1.37348e+10
-1.35882e+10
-1.34605e+10
-1.33378e+10
-1.32158e+10
-1.30918e+10
-1.29655e+10
-1.28426e+10
-1.27285e+10
-1.26311e+10
-1.25617e+10
-1.25323e+10
-1.25527e+10
-1.26276e+10
-1.27529e+10
-1.29118e+10
-1.30716e+10
-1.31829e+10
-1.31814e+10
-1.29886e+10
-1.25122e+10
-1.17023e+10
-1.08265e+10
-1.09794e+10
-1.36599e+10
-1.68033e+10
-9.53721e+09
-1.57209e+10
-1.55936e+10
-1.54813e+10
-1.57341e+10
-1.60216e+10
-1.60586e+10
-1.59903e+10
-1.5937e+10
-1.59026e+10
-1.58858e+10
-1.588e+10
-1.58767e+10
-1.58743e+10
-1.58696e+10
-1.58552e+10
-1.58245e+10
-1.57742e+10
-1.57059e+10
-1.56272e+10
-1.55485e+10
-1.54687e+10
-1.53435e+10
-1.50924e+10
-1.4708e+10
-1.43052e+10
-1.39903e+10
-1.37628e+10
-1.35948e+10
-1.34617e+10
-1.33476e+10
-1.32403e+10
-1.31292e+10
-1.301e+10
-1.28849e+10
-1.27595e+10
-1.26413e+10
-1.25404e+10
-1.24703e+10
-1.24446e+10
-1.24747e+10
-1.25663e+10
-1.27158e+10
-1.29057e+10
-1.3102e+10
-1.32527e+10
-1.32903e+10
-1.31326e+10
-1.26852e+10
-1.19131e+10
-1.11537e+10
-1.15749e+10
-1.43986e+10
-1.67778e+10
-8.81685e+09
-1.55425e+10
-1.54744e+10
-1.55639e+10
-1.58601e+10
-1.61438e+10
-1.61194e+10
-1.59431e+10
-1.5903e+10
-1.5893e+10
-1.58835e+10
-1.58797e+10
-1.5878e+10
-1.58749e+10
-1.58684e+10
-1.58521e+10
-1.58205e+10
-1.57707e+10
-1.57034e+10
-1.56257e+10
-1.55479e+10
-1.54699e+10
-1.5348e+10
-1.51006e+10
-1.47199e+10
-1.43195e+10
-1.40049e+10
-1.37753e+10
-1.3606e+10
-1.3474e+10
-1.3361e+10
-1.32531e+10
-1.31406e+10
-1.30202e+10
-1.28934e+10
-1.27663e+10
-1.26462e+10
-1.25428e+10
-1.24692e+10
-1.24392e+10
-1.24642e+10
-1.25505e+10
-1.2695e+10
-1.2881e+10
-1.30751e+10
-1.32263e+10
-1.32678e+10
-1.31172e+10
-1.26781e+10
-1.19139e+10
-1.11633e+10
-1.16147e+10
-1.45249e+10
-1.71078e+10
-9.70195e+09
-1.5497e+10
-1.54206e+10
-1.54383e+10
-1.56712e+10
-1.58454e+10
-1.59156e+10
-1.5914e+10
-1.58872e+10
-1.58683e+10
-1.58646e+10
-1.58737e+10
-1.58918e+10
-1.59101e+10
-1.59212e+10
-1.59182e+10
-1.58944e+10
-1.58474e+10
-1.57786e+10
-1.56965e+10
-1.5621e+10
-1.55719e+10
-1.55095e+10
-1.52762e+10
-1.47662e+10
-1.41937e+10
-1.3818e+10
-1.35929e+10
-1.34463e+10
-1.3343e+10
-1.32564e+10
-1.31706e+10
-1.30749e+10
-1.29653e+10
-1.28443e+10
-1.2718e+10
-1.25951e+10
-1.24868e+10
-1.24066e+10
-1.23689e+10
-1.23855e+10
-1.24623e+10
-1.25955e+10
-1.27679e+10
-1.2946e+10
-1.30795e+10
-1.31033e+10
-1.29391e+10
-1.25012e+10
-1.17765e+10
-1.1131e+10
-1.16975e+10
-1.45565e+10
-1.72969e+10
-1.11667e+10
-1.53743e+10
-1.54326e+10
-1.55942e+10
-1.57964e+10
-1.59052e+10
-1.58789e+10
-1.58653e+10
-1.58666e+10
-1.58634e+10
-1.58638e+10
-1.58722e+10
-1.5889e+10
-1.59062e+10
-1.59163e+10
-1.59125e+10
-1.58894e+10
-1.5845e+10
-1.57801e+10
-1.57016e+10
-1.56282e+10
-1.55808e+10
-1.55234e+10
-1.52995e+10
-1.47944e+10
-1.4227e+10
-1.38505e+10
-1.36197e+10
-1.34686e+10
-1.33634e+10
-1.32752e+10
-1.31872e+10
-1.30898e+10
-1.29795e+10
-1.28582e+10
-1.27322e+10
-1.26101e+10
-1.2503e+10
-1.24245e+10
-1.23889e+10
-1.24078e+10
-1.24873e+10
-1.26239e+10
-1.28004e+10
-1.29831e+10
-1.31206e+10
-1.31473e+10
-1.29825e+10
-1.25355e+10
-1.17862e+10
-1.10849e+10
-1.15368e+10
-1.43745e+10
-1.74919e+10
-1.13912e+10
-1.53958e+10
-1.53875e+10
-1.55705e+10
-1.57031e+10
-1.57296e+10
-1.57428e+10
-1.57628e+10
-1.57753e+10
-1.57824e+10
-1.57942e+10
-1.58135e+10
-1.58406e+10
-1.58682e+10
-1.58858e+10
-1.58847e+10
-1.58602e+10
-1.58172e+10
-1.5763e+10
-1.57068e+10
-1.56707e+10
-1.56993e+10
-1.57971e+10
-1.57166e+10
-1.50215e+10
-1.40765e+10
-1.35556e+10
-1.33269e+10
-1.3228e+10
-1.3189e+10
-1.31557e+10
-1.31093e+10
-1.30426e+10
-1.29555e+10
-1.28517e+10
-1.27384e+10
-1.26256e+10
-1.25254e+10
-1.24517e+10
-1.24183e+10
-1.24363e+10
-1.25102e+10
-1.26349e+10
-1.27917e+10
-1.29475e+10
-1.30534e+10
-1.30474e+10
-1.28562e+10
-1.24024e+10
-1.1687e+10
-1.10941e+10
-1.1777e+10
-1.48133e+10
-1.70449e+10
-8.69875e+09
-1.53704e+10
-1.55062e+10
-1.5674e+10
-1.57566e+10
-1.57335e+10
-1.57237e+10
-1.57476e+10
-1.57661e+10
-1.57792e+10
-1.57923e+10
-1.58107e+10
-1.58353e+10
-1.58598e+10
-1.58737e+10
-1.58684e+10
-1.584e+10
-1.57945e+10
-1.57407e+10
-1.56857e+10
-1.56487e+10
-1.56723e+10
-1.57703e+10
-1.57166e+10
-1.50442e+10
-1.41047e+10
-1.35871e+10
-1.33519e+10
-1.32468e+10
-1.32035e+10
-1.31663e+10
-1.31158e+10
-1.30459e+10
-1.29562e+10
-1.28502e+10
-1.27353e+10
-1.26219e+10
-1.2522e+10
-1.24495e+10
-1.24183e+10
-1.24396e+10
-1.2518e+10
-1.26482e+10
-1.28119e+10
-1.29745e+10
-1.30853e+10
-1.30802e+10
-1.28826e+10
-1.24096e+10
-1.1656e+10
-1.10069e+10
-1.16646e+10
-1.4772e+10
-1.70038e+10
-8.72603e+09
-1.54263e+10
-1.54383e+10
-1.56072e+10
-1.56437e+10
-1.56358e+10
-1.5632e+10
-1.5645e+10
-1.56633e+10
-1.56873e+10
-1.57195e+10
-1.57623e+10
-1.58163e+10
-1.58743e+10
-1.59232e+10
-1.59515e+10
-1.59596e+10
-1.5967e+10
-1.5993e+10
-1.60389e+10
-1.61105e+10
-1.62456e+10
-1.65314e+10
-1.6781e+10
-1.59956e+10
-1.43913e+10
-1.30007e+10
-1.28659e+10
-1.2939e+10
-1.30153e+10
-1.30462e+10
-1.30338e+10
-1.29851e+10
-1.29078e+10
-1.28096e+10
-1.26999e+10
-1.25904e+10
-1.24943e+10
-1.24264e+10
-1.2401e+10
-1.24292e+10
-1.25152e+10
-1.26534e+10
-1.28254e+10
-1.29983e+10
-1.31242e+10
-1.31434e+10
-1.29867e+10
-1.25815e+10
-1.19267e+10
-1.1383e+10
-1.20376e+10
-1.48635e+10
-1.70558e+10
-8.67244e+09
-1.54197e+10
-1.55238e+10
-1.5626e+10
-1.5631e+10
-1.56057e+10
-1.56066e+10
-1.56229e+10
-1.56445e+10
-1.56712e+10
-1.5705e+10
-1.57477e+10
-1.57985e+10
-1.58512e+10
-1.58933e+10
-1.59142e+10
-1.5914e+10
-1.59143e+10
-1.59428e+10
-1.59969e+10
-1.60757e+10
-1.6205e+10
-1.64654e+10
-1.68182e+10
-1.61159e+10
-1.45162e+10
-1.3017e+10
-1.28857e+10
-1.29518e+10
-1.30233e+10
-1.30507e+10
-1.30366e+10
-1.29871e+10
-1.29094e+10
-1.28106e+10
-1.27008e+10
-1.25915e+10
-1.24957e+10
-1.24277e+10
-1.24018e+10
-1.24286e+10
-1.25122e+10
-1.26467e+10
-1.28136e+10
-1.29785e+10
-1.30913e+10
-1.30897e+10
-1.28999e+10
-1.24416e+10
-1.1705e+10
-1.10507e+10
-1.15995e+10
-1.44911e+10
-1.70013e+10
-9.5205e+09
-1.55202e+10
-1.55521e+10
-1.56179e+10
-1.5614e+10
-1.56029e+10
-1.55996e+10
-1.5603e+10
-1.56133e+10
-1.56329e+10
-1.56652e+10
-1.57129e+10
-1.57758e+10
-1.58467e+10
-1.59085e+10
-1.59437e+10
-1.59569e+10
-1.59761e+10
-1.60265e+10
-1.61061e+10
-1.62087e+10
-1.63755e+10
-1.67458e+10
-1.71586e+10
-1.69027e+10
-1.58545e+10
-1.15009e+10
-1.21448e+10
-1.26248e+10
-1.28632e+10
-1.29599e+10
-1.29743e+10
-1.29336e+10
-1.28549e+10
-1.27509e+10
-1.26338e+10
-1.25166e+10
-1.24141e+10
-1.23418e+10
-1.23149e+10
-1.23445e+10
-1.24355e+10
-1.25824e+10
-1.27666e+10
-1.29539e+10
-1.30954e+10
-1.31305e+10
-1.29883e+10
-1.25913e+10
-1.19189e+10
-1.1274e+10
-1.16967e+10
-1.44633e+10
-1.7797e+10
-1.1912e+10
-1.55522e+10
-1.56006e+10
-1.5639e+10
-1.56259e+10
-1.56119e+10
-1.56096e+10
-1.56113e+10
-1.56193e+10
-1.5636e+10
-1.56645e+10
-1.57079e+10
-1.57664e+10
-1.58322e+10
-1.58895e+10
-1.59232e+10
-1.59336e+10
-1.59485e+10
-1.60011e+10
-1.6082e+10
-1.61886e+10
-1.63531e+10
-1.66789e+10
-1.70953e+10
-1.72403e+10
-1.64064e+10
-1.14277e+10
-1.21446e+10
-1.26329e+10
-1.28709e+10
-1.29679e+10
-1.29847e+10
-1.29472e+10
-1.28721e+10
-1.2772e+10
-1.26588e+10
-1.25449e+10
-1.24443e+10
-1.23724e+10
-1.23435e+10
-1.23685e+10
-1.24519e+10
-1.25885e+10
-1.276e+10
-1.29324e+10
-1.30566e+10
-1.30712e+10
-1.29043e+10
-1.24771e+10
-1.17775e+10
-1.11829e+10
-1.19312e+10
-1.5177e+10
-1.74664e+10
-8.80819e+09
-1.5602e+10
-1.56245e+10
-1.56308e+10
-1.56238e+10
-1.56149e+10
-1.56063e+10
-1.56003e+10
-1.56025e+10
-1.56155e+10
-1.56422e+10
-1.56855e+10
-1.5746e+10
-1.58167e+10
-1.588e+10
-1.59168e+10
-1.59263e+10
-1.59409e+10
-1.59997e+10
-1.60913e+10
-1.62e+10
-1.63942e+10
-1.67665e+10
-1.7255e+10
-1.6507e+10
-9.99386e+09
-1.20555e+10
-1.25601e+10
-1.28174e+10
-1.29258e+10
-1.29454e+10
-1.29054e+10
-1.28248e+10
-1.27178e+10
-1.25975e+10
-1.24775e+10
-1.23731e+10
-1.23003e+10
-1.2274e+10
-1.23058e+10
-1.24008e+10
-1.25531e+10
-1.27427e+10
-1.29332e+10
-1.30746e+10
-1.31047e+10
-1.29485e+10
-1.25235e+10
-1.17931e+10
-1.10085e+10
-1.11669e+10
-1.37645e+10
-1.76083e+10
-1.25091e+10
-1.56499e+10
-1.56389e+10
-1.56438e+10
-1.56325e+10
-1.56243e+10
-1.56175e+10
-1.56117e+10
-1.56123e+10
-1.56225e+10
-1.56466e+10
-1.56876e+10
-1.57454e+10
-1.5813e+10
-1.58748e+10
-1.59141e+10
-1.59305e+10
-1.59482e+10
-1.59965e+10
-1.60765e+10
-1.61739e+10
-1.63393e+10
-1.6732e+10
-1.72749e+10
-1.71081e+10
-9.8883e+09
-1.20843e+10
-1.2588e+10
-1.28435e+10
-1.29537e+10
-1.29781e+10
-1.29437e+10
-1.28689e+10
-1.27669e+10
-1.26502e+10
-1.25318e+10
-1.24261e+10
-1.23484e+10
-1.23129e+10
-1.23309e+10
-1.24073e+10
-1.2537e+10
-1.27007e+10
-1.28644e+10
-1.29803e+10
-1.29886e+10
-1.28186e+10
-1.23929e+10
-1.16926e+10
-1.10621e+10
-1.16703e+10
-1.4803e+10
-1.76815e+10
-1.00353e+10
-1.56262e+10
-1.5616e+10
-1.56186e+10
-1.56154e+10
-1.56092e+10
-1.55999e+10
-1.55909e+10
-1.55876e+10
-1.55947e+10
-1.5616e+10
-1.56541e+10
-1.57093e+10
-1.57758e+10
-1.58402e+10
-1.58851e+10
-1.59039e+10
-1.5919e+10
-1.59587e+10
-1.60196e+10
-1.60906e+10
-1.62293e+10
-1.65501e+10
-1.68963e+10
-1.67193e+10
-1.38877e+10
-1.26605e+10
-1.26433e+10
-1.27937e+10
-1.29151e+10
-1.29675e+10
-1.29594e+10
-1.29036e+10
-1.28128e+10
-1.26983e+10
-1.25721e+10
-1.24469e+10
-1.23376e+10
-1.22594e+10
-1.22273e+10
-1.22531e+10
-1.23424e+10
-1.24893e+10
-1.26731e+10
-1.28586e+10
-1.29991e+10
-1.30365e+10
-1.29002e+10
-1.25119e+10
-1.18415e+10
-1.11706e+10
-1.15478e+10
-1.43453e+10
-1.7206e+10
-9.6896e+09
-1.565e+10
-1.56222e+10
-1.56195e+10
-1.56126e+10
-1.56045e+10
-1.55939e+10
-1.5584e+10
-1.55786e+10
-1.55819e+10
-1.55986e+10
-1.56317e+10
-1.56816e+10
-1.57432e+10
-1.58045e+10
-1.58518e+10
-1.5881e+10
-1.59044e+10
-1.59389e+10
-1.59843e+10
-1.60369e+10
-1.61665e+10
-1.64823e+10
-1.67241e+10
-1.64894e+10
-1.41596e+10
-1.27247e+10
-1.26848e+10
-1.28222e+10
-1.29394e+10
-1.29939e+10
-1.29915e+10
-1.29421e+10
-1.28572e+10
-1.27478e+10
-1.2625e+10
-1.25012e+10
-1.23903e+10
-1.23067e+10
-1.22647e+10
-1.22757e+10
-1.23447e+10
-1.24658e+10
-1.26187e+10
-1.27699e+10
-1.28744e+10
-1.2877e+10
-1.27124e+10
-1.23099e+10
-1.16536e+10
-1.10684e+10
-1.16566e+10
-1.45847e+10
-1.70262e+10
-8.88751e+09
-1.56262e+10
-1.56044e+10
-1.56012e+10
-1.5594e+10
-1.55835e+10
-1.557e+10
-1.55559e+10
-1.55439e+10
-1.55385e+10
-1.55438e+10
-1.55616e+10
-1.55913e+10
-1.56286e+10
-1.56647e+10
-1.56901e+10
-1.56995e+10
-1.5695e+10
-1.56804e+10
-1.56553e+10
-1.56326e+10
-1.56623e+10
-1.57654e+10
-1.56898e+10
-1.49368e+10
-1.39652e+10
-1.34193e+10
-1.32106e+10
-1.31336e+10
-1.31091e+10
-1.30785e+10
-1.30241e+10
-1.29411e+10
-1.28328e+10
-1.27058e+10
-1.2569e+10
-1.24337e+10
-1.23132e+10
-1.22221e+10
-1.2175e+10
-1.21841e+10
-1.22551e+10
-1.23822e+10
-1.25453e+10
-1.27114e+10
-1.28377e+10
-1.28731e+10
-1.27552e+10
-1.24159e+10
-1.18374e+10
-1.13086e+10
-1.18167e+10
-1.44584e+10
-1.69246e+10
-9.18355e+09
-1.56329e+10
-1.56126e+10
-1.56058e+10
-1.55963e+10
-1.55834e+10
-1.55675e+10
-1.55512e+10
-1.55372e+10
-1.55291e+10
-1.55307e+10
-1.55444e+10
-1.55703e+10
-1.56049e+10
-1.56404e+10
-1.56674e+10
-1.56801e+10
-1.56792e+10
-1.56673e+10
-1.56449e+10
-1.56259e+10
-1.56631e+10
-1.57704e+10
-1.56819e+10
-1.4958e+10
-1.3964e+10
-1.34117e+10
-1.31972e+10
-1.31192e+10
-1.3097e+10
-1.30705e+10
-1.30213e+10
-1.2943e+10
-1.28388e+10
-1.27151e+10
-1.25811e+10
-1.24476e+10
-1.23276e+10
-1.22357e+10
-1.2186e+10
-1.21903e+10
-1.22537e+10
-1.23696e+10
-1.25176e+10
-1.26642e+10
-1.27665e+10
-1.27729e+10
-1.26224e+10
-1.22472e+10
-1.16274e+10
-1.10431e+10
-1.14865e+10
-1.41618e+10
-1.67897e+10
-8.9149e+09
-1.56247e+10
-1.56078e+10
-1.56022e+10
-1.55933e+10
-1.55827e+10
-1.5569e+10
-1.55541e+10
-1.55401e+10
-1.55303e+10
-1.55279e+10
-1.55347e+10
-1.55496e+10
-1.55694e+10
-1.55891e+10
-1.56031e+10
-1.56063e+10
-1.55946e+10
-1.55639e+10
-1.55132e+10
-1.54553e+10
-1.54117e+10
-1.53506e+10
-1.51215e+10
-1.46198e+10
-1.40711e+10
-1.37088e+10
-1.34963e+10
-1.33636e+10
-1.32736e+10
-1.31939e+10
-1.31063e+10
-1.30024e+10
-1.28808e+10
-1.27449e+10
-1.26015e+10
-1.246e+10
-1.23325e+10
-1.22331e+10
-1.21762e+10
-1.2174e+10
-1.22317e+10
-1.23431e+10
-1.24876e+10
-1.26312e+10
-1.27318e+10
-1.27408e+10
-1.26002e+10
-1.22459e+10
-1.16611e+10
-1.11208e+10
-1.15802e+10
-1.4103e+10
-1.63759e+10
-8.69203e+09
-1.56316e+10
-1.56146e+10
-1.56088e+10
-1.55991e+10
-1.55873e+10
-1.55721e+10
-1.55557e+10
-1.55404e+10
-1.55291e+10
-1.55248e+10
-1.55295e+10
-1.5543e+10
-1.55625e+10
-1.55833e+10
-1.55994e+10
-1.56047e+10
-1.55953e+10
-1.55683e+10
-1.55237e+10
-1.54748e+10
-1.5441e+10
-1.53844e+10
-1.5151e+10
-1.46347e+10
-1.40608e+10
-1.36844e+10
-1.34682e+10
-1.33359e+10
-1.32456e+10
-1.31651e+10
-1.30765e+10
-1.29708e+10
-1.28472e+10
-1.27095e+10
-1.25647e+10
-1.24228e+10
-1.22961e+10
-1.21989e+10
-1.21459e+10
-1.21489e+10
-1.22126e+10
-1.23299e+10
-1.24789e+10
-1.26239e+10
-1.27196e+10
-1.27133e+10
-1.25421e+10
-1.21338e+10
-1.1453e+10
-1.07229e+10
-1.08486e+10
-1.32018e+10
-1.6246e+10
-9.355e+09
-1.56062e+10
-1.5589e+10
-1.5582e+10
-1.55713e+10
-1.55582e+10
-1.55416e+10
-1.55231e+10
-1.55045e+10
-1.54885e+10
-1.54781e+10
-1.54749e+10
-1.54778e+10
-1.54839e+10
-1.54905e+10
-1.54943e+10
-1.54902e+10
-1.54732e+10
-1.54386e+10
-1.5386e+10
-1.5322e+10
-1.52474e+10
-1.51259e+10
-1.48879e+10
-1.45296e+10
-1.41607e+10
-1.38722e+10
-1.3666e+10
-1.3516e+10
-1.33978e+10
-1.3291e+10
-1.31811e+10
-1.30603e+10
-1.29265e+10
-1.27817e+10
-1.26313e+10
-1.2484e+10
-1.23516e+10
-1.2248e+10
-1.21885e+10
-1.21854e+10
-1.22443e+10
-1.23583e+10
-1.25055e+10
-1.26497e+10
-1.27465e+10
-1.27464e+10
-1.25908e+10
-1.22115e+10
-1.15836e+10
-1.09699e+10
-1.13199e+10
-1.37888e+10
-1.63219e+10
-8.73064e+09
-1.56121e+10
-1.55963e+10
-1.55902e+10
-1.558e+10
-1.55671e+10
-1.55504e+10
-1.55318e+10
-1.55136e+10
-1.5498e+10
-1.54877e+10
-1.54845e+10
-1.54877e+10
-1.5495e+10
-1.55034e+10
-1.55087e+10
-1.55057e+10
-1.54894e+10
-1.54568e+10
-1.54081e+10
-1.53494e+10
-1.52797e+10
-1.51594e+10
-1.49158e+10
-1.45452e+10
-1.41587e+10
-1.38577e+10
-1.36439e+10
-1.34885e+10
-1.33638e+10
-1.32502e+10
-1.31333e+10
-1.30053e+10
-1.28648e+10
-1.27141e+10
-1.25592e+10
-1.24095e+10
-1.22772e+10
-1.21774e+10
-1.21255e+10
-1.21339e+10
-1.22076e+10
-1.2339e+10
-1.25049e+10
-1.26666e+10
-1.2775e+10
-1.27737e+10
-1.25946e+10
-1.21549e+10
-1.14019e+10
-1.05362e+10
-1.04207e+10
-1.25443e+10
-1.60701e+10
-1.00681e+10
-1.55912e+10
-1.55763e+10
-1.55691e+10
-1.55577e+10
-1.55437e+10
-1.55259e+10
-1.55054e+10
-1.5484e+10
-1.54639e+10
-1.54478e+10
-1.54373e+10
-1.54315e+10
-1.54276e+10
-1.54233e+10
-1.54169e+10
-1.54045e+10
-1.53811e+10
-1.53424e+10
-1.52876e+10
-1.52178e+10
-1.5125e+10
-1.49837e+10
-1.47669e+10
-1.44896e+10
-1.42087e+10
-1.39682e+10
-1.37761e+10
-1.36225e+10
-1.3492e+10
-1.33706e+10
-1.32466e+10
-1.3113e+10
-1.2968e+10
-1.28133e+10
-1.26543e+10
-1.24997e+10
-1.23613e+10
-1.2254e+10
-1.21933e+10
-1.21929e+10
-1.22583e+10
-1.23822e+10
-1.25415e+10
-1.26992e+10
-1.28099e+10
-1.28239e+10
-1.26817e+10
-1.23111e+10
-1.16846e+10
-1.10925e+10
-1.15506e+10
-1.42149e+10
-1.67436e+10
-9.33295e+09
-1.55962e+10
-1.55805e+10
-1.55751e+10
-1.55647e+10
-1.55516e+10
-1.55343e+10
-1.55144e+10
-1.54938e+10
-1.54748e+10
-1.54596e+10
-1.545e+10
-1.54455e+10
-1.54438e+10
-1.54422e+10
-1.54377e+10
-1.54263e+10
-1.54036e+10
-1.53661e+10
-1.53132e+10
-1.52459e+10
-1.51548e+10
-1.50113e+10
-1.47872e+10
-1.44978e+10
-1.42049e+10
-1.39553e+10
-1.37584e+10
-1.36013e+10
-1.34665e+10
-1.33401e+10
-1.32105e+10
-1.30711e+10
-1.29204e+10
-1.27607e+10
-1.25976e+10
-1.24404e+10
-1.23017e+10
-1.21967e+10
-1.21414e+10
-1.2149e+10
-1.2225e+10
-1.23617e+10
-1.25346e+10
-1.27038e+10
-1.28197e+10
-1.28263e+10
-1.26547e+10
-1.22202e+10
-1.14766e+10
-1.0701e+10