/*--------------------------------*- C++ -*----------------------------------*\
| =========                 |                                                 |
| \\      /  F ield         | OpenFOAM: The Open Source CFD Toolbox           |
|  \\    /   O peration     | Version:  4.1                                   |
|   \\  /    A nd           | Web:      www.OpenFOAM.org                      |
|    \\/     M anipulation  |                                                 |
\*---------------------------------------------------------------------------*/
FoamFile
{
    version     2.0;
    format      ascii;
    class       volVectorField;
    location    "31";
    object      U;
}
// * * * * * * * * * * * * * * * * * * * * * * * * * * * * * * * * * * * * * //

dimensions      [0 1 -1 0 0 0 0];

internalField   nonuniform List<vector> 
4432
(
(-180267 -7575.03 -26192.8)
(-163266 1880.44 4588.92)
(-138162 6152.75 12451)
(-122511 -3077.74 -773.459)
(-131791 -250.633 1169.53)
(-127106 310.37 3969.39)
(-119802 -529.282 642.374)
(-117950 -600.562 -172.943)
(-116383 -931.672 -1049.99)
(-115201 -1261.23 -1630.3)
(-113976 -1496.17 -1932.07)
(-113032 -1560.54 -2114.89)
(-112202 -1558.69 -2179.28)
(-111532 -1579.64 -2136.9)
(-110965 -1608.43 -2042.65)
(-110181 -1615.46 -2064.96)
(-109228 -1596.74 -2214.44)
(-108334 -1577.97 -2339.58)
(-107460 -1582.19 -2476.93)
(-106502 -1584.71 -2592.86)
(-105437 -1591.95 -2725.79)
(-104272 -1603.34 -2857.91)
(-103011 -1619.2 -2991.36)
(-101670 -1639.39 -3119.03)
(-100277 -1663.25 -3237.45)
(-98858.8 -1689.68 -3343.49)
(-97447.4 -1716.99 -3434.83)
(-96072.2 -1743.59 -3511.08)
(-94765.6 -1767.58 -3573.25)
(-93552.8 -1787.29 -3624.48)
(-92462.6 -1801.63 -3669.35)
(-91526.2 -1810.2 -3712.21)
(-90776.3 -1812.42 -3762.93)
(-90239.5 -1809.11 -3827.98)
(-89919.3 -1804.99 -3892.94)
(-89818.9 -1802.9 -3944.96)
(-89950.9 -1802.88 -3990.12)
(-90318.1 -1804.78 -4032.41)
(-90921.5 -1808.88 -4072.42)
(-91760.2 -1817.72 -4099.8)
(-92851.1 -1833.69 -4084.46)
(-94210.2 -1856.87 -3992.02)
(-95852.8 -1883.74 -3781.67)
(-97835.3 -1909.6 -3395.87)
(-100295 -1920.15 -2740.77)
(-103469 -1887.39 -1748.39)
(-107526 -1779.3 -273.866)
(-112108 -1535.18 1882.51)
(-116047 -1127.61 5084.21)
(-120393 -510.264 9141.66)
(-134933 193.897 13811.6)
(-177982 462.282 19238.9)
(-228562 -6240.2 40190.3)
(-188137 4119.1 32432.5)
(-183969 -4097.05 -17591.5)
(-168039 4550.49 -4206.57)
(-158738 8537.59 -540.998)
(-146763 638.047 -243.017)
(-146298 3059.7 -1143.44)
(-145351 3515.43 650.825)
(-139203 2825.42 -1280.15)
(-136871 2771.36 -1693.98)
(-135415 2484.27 -2245.14)
(-133996 2187.2 -2416.68)
(-132474 1962.06 -2522.45)
(-131245 1875.85 -2612.46)
(-130303 1845.09 -2634.75)
(-129580 1790.31 -2551.04)
(-128927 1724.95 -2459.46)
(-128090 1675.77 -2515.81)
(-127147 1645.64 -2654.63)
(-126318 1612.92 -2742.71)
(-125526 1558.3 -2850.2)
(-124672 1503.35 -2938.06)
(-123757 1442.79 -3038.58)
(-122786 1377.87 -3134.5)
(-121758 1308.9 -3227.92)
(-120690 1236.64 -3312.98)
(-119601 1162.14 -3387.12)
(-118512 1087.09 -3448.47)
(-117445 1013.35 -3496.19)
(-116418 942.866 -3531.47)
(-115451 877.632 -3556.62)
(-114557 819.656 -3575.07)
(-113747 770.229 -3590.7)
(-113034 730.372 -3607.52)
(-112430 701.537 -3629.79)
(-111945 683.937 -3659.04)
(-111581 675.415 -3692.11)
(-111342 676.15 -3725.11)
(-111228 688.24 -3756.85)
(-111242 713.389 -3789.08)
(-111385 752.349 -3824.01)
(-111665 804.402 -3854.24)
(-112103 869.799 -3865.72)
(-112723 951.228 -3836.75)
(-113545 1053.6 -3735.62)
(-114619 1182.8 -3520.25)
(-116055 1350.84 -3126.11)
(-118100 1580.13 -2504.3)
(-120921 1908.55 -1544.45)
(-124364 2387.16 -87.9081)
(-127707 3017.9 2080.52)
(-132364 3806.71 4676.99)
(-147207 4775.28 8383.94)
(-195018 4986.09 12055.1)
(-236548 -2573.95 29800.3)
(-255604 7324.73 58088)
(-169396 -2157.63 -39789.4)
(-165911 -3825.33 -17552.3)
(-166274 -3802.74 -3398.36)
(-162043 -754.586 -10277.3)
(-158471 -1230.57 -5561.79)
(-160921 -1189.7 -328.851)
(-158847 -1119.49 271.293)
(-156716 -853.505 815.448)
(-156094 -888.269 625.21)
(-155389 -811.847 469.984)
(-154703 -815.975 364.856)
(-154303 -775.693 274.854)
(-153973 -722.057 302.02)
(-153807 -672.863 439.59)
(-153883 -660.234 597.943)
(-153955 -672.317 705.601)
(-153830 -644.542 729.669)
(-153686 -591.318 739.63)
(-153580 -559.799 713.86)
(-153463 -524.439 698.536)
(-153336 -490.18 674.491)
(-153194 -454.354 662.362)
(-153045 -417.973 664.769)
(-152899 -381.449 691.014)
(-152768 -345.441 744.774)
(-152660 -310.39 828.346)
(-152584 -276.796 941.028)
(-152540 -245.287 1078.67)
(-152529 -216.229 1235.17)
(-152543 -189.347 1400.85)
(-152577 -164.119 1565.46)
(-152621 -140.458 1723.89)
(-152659 -114.898 1875.04)
(-152658 -84.6967 2007.6)
(-152588 -57.4213 2115.27)
(-152445 -38.7843 2198.39)
(-152203 -24.4393 2244.66)
(-151826 -12.0163 2258.33)
(-151299 -0.911112 2242.39)
(-150621 8.20768 2207.65)
(-149747 13.2972 2156.87)
(-148631 16.0862 2094.78)
(-147220 20.0731 2025.09)
(-145451 30.0077 1959.21)
(-143306 54.8503 1921.79)
(-140766 118.526 1940.82)
(-137678 236.183 2029.17)
(-133603 406.627 2189.63)
(-128202 625.121 2571.81)
(-121223 1010.68 3123.11)
(-119570 1985.99 3240.59)
(-122508 2249.38 1868.17)
(-111195 -3865.01 6788.74)
(21795.4 -4412.61 6178)
(-186936 1309.1 -27989.8)
(-183525 21.047 -15419.4)
(-181053 78.5242 -9217.1)
(-178128 2959.31 -5356.66)
(-177367 2367.07 -5082.68)
(-179135 2434.97 -1298.64)
(-177357 2489.72 -428.594)
(-175595 2695.67 153.855)
(-175244 2639.38 133.564)
(-174646 2690.14 320.443)
(-174113 2663.53 436.482)
(-173720 2678.5 489.661)
(-173425 2704.9 556.408)
(-173303 2723.97 697.524)
(-173395 2706.5 853.769)
(-173402 2661.91 911.261)
(-173169 2647.78 903.006)
(-172948 2650.46 879.418)
(-172756 2627.6 827.785)
(-172513 2601.84 775.379)
(-172242 2568.72 708.604)
(-171932 2530.2 643.644)
(-171593 2485.46 583.566)
(-171234 2434.5 535.454)
(-170869 2377.32 503.389)
(-170507 2314.36 489.088)
(-170160 2246.01 492.429)
(-169835 2172.86 510.131)
(-169539 2095.79 537.162)
(-169272 2016.36 565.136)
(-169031 1936.26 586.153)
(-168811 1856.9 597.341)
(-168609 1782.93 599.17)
(-168414 1718.33 587.996)
(-168210 1657.69 560.436)
(-167984 1597.39 510.509)
(-167721 1543.06 432.971)
(-167422 1497.91 330.025)
(-167061 1464.7 202.964)
(-166596 1445.29 59.1047)
(-165991 1440.35 -90.0442)
(-165207 1454.64 -232.641)
(-164195 1494.18 -358.261)
(-162897 1565.87 -452.586)
(-161284 1680.99 -487.564)
(-159319 1863.2 -432.047)
(-156889 2128.63 -271.241)
(-153501 2459.76 29.2672)
(-148527 2827.89 632.25)
(-141670 3538.88 1830.78)
(-139657 5010.34 2902.66)
(-133512 5289.92 4737.49)
(-120309 -407.789 12628.2)
(-2844.77 -4826.03 3687.13)
(-155013 0.130156 -26276.2)
(-143000 -791.747 -22456.4)
(-142464 -3877.84 -20221.4)
(-140611 472.217 -12906.4)
(-135024 -1461.28 -13129)
(-135366 -2381.52 -10342)
(-134695 -2655.15 -7233.12)
(-134195 -2445.82 -5781.19)
(-133467 -2490.72 -4890.9)
(-132280 -2348 -4109.77)
(-131029 -2270.43 -3686.26)
(-129921 -2167.99 -3491.9)
(-128834 -2130.52 -3412.43)
(-128029 -2138.21 -3417.05)
(-127536 -2146.3 -3485.13)
(-127013 -2194.7 -3508.98)
(-126316 -2195.97 -3522.91)
(-125617 -2186.71 -3605.54)
(-124909 -2178.85 -3737.33)
(-124125 -2168.03 -3905.7)
(-123272 -2153.3 -4093.08)
(-122337 -2133.65 -4285.7)
(-121327 -2107.44 -4466.18)
(-120254 -2075.44 -4621.04)
(-119139 -2036.6 -4738.71)
(-118004 -1991.42 -4813.03)
(-116872 -1939.82 -4841.65)
(-115765 -1882.44 -4827.22)
(-114702 -1820.55 -4773.31)
(-113698 -1756.18 -4684.77)
(-112759 -1690 -4563.01)
(-111883 -1622.91 -4391.16)
(-111094 -1556.95 -4141.12)
(-110405 -1486.81 -3884.38)
(-109813 -1411.56 -3692.28)
(-109330 -1341.18 -3445.62)
(-108948 -1269.29 -3173.01)
(-108642 -1205.17 -2901.7)
(-108344 -1149.89 -2634.93)
(-107939 -1103.31 -2386.78)
(-107378 -1061.57 -2162.77)
(-106611 -1021.08 -1973.24)
(-105558 -973.191 -1828.49)
(-104155 -908.522 -1727.56)
(-102350 -814.189 -1660.09)
(-100116 -663.971 -1565.78)
(-97335.7 -413.3 -1363.35)
(-93471.1 1.49018 -887.135)
(-87585.9 632.64 231.212)
(-80929.1 1942.66 3219.85)
(-83236 3084.32 9373.24)
(-105873 4914.47 19871.6)
(-139827 -4480.51 34724.9)
(-86366.5 -2589.8 12542.4)
(-166932 3696.56 -23213.5)
(-162973 2881.65 -15158.6)
(-157520 258.855 -12256.8)
(-155748 4434.31 -8808.27)
(-155799 2781.73 -9549.34)
(-154983 2111.79 -7724.05)
(-153949 1937.39 -4782.75)
(-153552 2177.85 -3562.54)
(-153197 2179.36 -2667.84)
(-152253 2341.68 -1917.08)
(-151412 2443 -1455.64)
(-150687 2561.76 -1216.81)
(-150019 2619.73 -1128.42)
(-149514 2634.6 -1146.32)
(-149250 2645.22 -1200.14)
(-148898 2616.92 -1187.08)
(-148343 2623.67 -1186.83)
(-147832 2633.57 -1278.01)
(-147325 2636 -1388.02)
(-146750 2634.64 -1533.29)
(-146121 2630.1 -1693.07)
(-145427 2622.8 -1856.42)
(-144678 2613.78 -2007.35)
(-143890 2602.16 -2132.97)
(-143081 2588.78 -2222.53)
(-142272 2573.4 -2270.28)
(-141485 2556.33 -2274.55)
(-140738 2537.55 -2238.77)
(-140050 2516.63 -2168)
(-139434 2492.86 -2069.13)
(-138898 2466.68 -1946.88)
(-138452 2438.36 -1800)
(-138109 2407.17 -1624.77)
(-137882 2378.33 -1428.15)
(-137779 2353.46 -1213.97)
(-137807 2327.06 -989.909)
(-137964 2308.83 -758.992)
(-138218 2292.93 -519.291)
(-138532 2280.49 -284.129)
(-138870 2276.67 -54.42)
(-139218 2289.24 169.518)
(-139569 2326.28 380.647)
(-139896 2400.93 567.783)
(-140180 2528.05 731.849)
(-140438 2730.22 891.294)
(-140731 3040.98 1087.14)
(-141036 3498.11 1387.53)
(-140982 4155.43 1938.95)
(-139611 5067.92 3113.01)
(-138764 6448.54 5833.2)
(-142719 7316.03 11068.3)
(-176726 6159.92 19036.7)
(-215205 -2305.58 28093)
(-213738 -16767.2 18142.7)
(-150758 -3351.51 -22330.2)
(-150095 -966.054 -11685.5)
(-145795 -399.985 -12466.7)
(-144325 -702.585 -6768.79)
(-143640 -2039.19 -7494.8)
(-142492 -3007.48 -6629.53)
(-141744 -2810.77 -5739.38)
(-141121 -2573.76 -4710.65)
(-140711 -2488.9 -3792.17)
(-140071 -2344.36 -2973.44)
(-139579 -2295.24 -2329.81)
(-139194 -2241.03 -1725.14)
(-138794 -2233.3 -1385.89)
(-138554 -2271.83 -1256.49)
(-138486 -2331 -1237.86)
(-138357 -2381.75 -1201.68)
(-138114 -2404.51 -1198.69)
(-137900 -2434.07 -1262.01)
(-137696 -2467.03 -1343.86)
(-137449 -2503.64 -1455.85)
(-137153 -2543.11 -1578.22)
(-136798 -2583.08 -1698.4)
(-136393 -2622.78 -1792.54)
(-135950 -2660.08 -1844.5)
(-135491 -2693.39 -1838.66)
(-135034 -2721 -1772.33)
(-134598 -2742.17 -1648.81)
(-134195 -2757.12 -1479.37)
(-133831 -2767.02 -1275.77)
(-133504 -2773.55 -1043.51)
(-133194 -2779.25 -785.905)
(-132882 -2795.79 -505.147)
(-132641 -2835.79 -206.22)
(-132521 -2841.66 83.3317)
(-132337 -2769.63 340.653)
(-132064 -2732.32 580.715)
(-131814 -2696.89 806.199)
(-131534 -2636.99 993.644)
(-131186 -2573.12 1134.87)
(-130743 -2497.44 1213.27)
(-130181 -2406.66 1222.22)
(-129485 -2295.22 1163.15)
(-128610 -2159.19 1043.93)
(-127538 -1993.43 867.147)
(-126298 -1784.38 648.06)
(-124919 -1526.22 431.607)
(-123375 -1220.39 291.251)
(-121179 -851.645 332.243)
(-117316 -322.609 670.605)
(-111518 660.693 1430.92)
(-108877 2425.85 3097.4)
(-115620 3223.89 6908.93)
(-114498 -4328.38 19950.5)
(7819.83 -7552.88 12840.5)
(-157276 641.747 -21431.9)
(-158823 2866.12 -10327.8)
(-157034 3367.11 -7868.63)
(-158138 3107.92 -6614.78)
(-158518 1881.91 -6384.01)
(-156330 1043.9 -5191.74)
(-154737 1255.06 -4113.1)
(-154320 1494.27 -3256.92)
(-153989 1581.63 -2185.07)
(-153377 1730.39 -1388.38)
(-152966 1800.56 -840.819)
(-152608 1879.17 -444.446)
(-152273 1914.49 -230.977)
(-152051 1905.92 -185.28)
(-151930 1877.34 -233.297)
(-151706 1855.35 -231.027)
(-151391 1858.3 -290.585)
(-151143 1854.4 -420.936)
(-150922 1847.17 -564.61)
(-150685 1836.41 -736.576)
(-150433 1822.7 -918.96)
(-150166 1807.81 -1099.69)
(-149893 1792.07 -1259.67)
(-149629 1776.93 -1381.53)
(-149395 1763.34 -1453.56)
(-149209 1752.42 -1472.49)
(-149087 1744.56 -1443.08)
(-149038 1739.43 -1374.68)
(-149068 1736.19 -1276.96)
(-149175 1733.74 -1158.97)
(-149346 1730.18 -1032.13)
(-149571 1715.44 -904.291)
(-149848 1678.36 -773.518)
(-150167 1671.04 -645.379)
(-150512 1732.92 -526.069)
(-150863 1763.23 -413.277)
(-151191 1793.42 -309.473)
(-151495 1847.67 -222.049)
(-151787 1906.54 -159.442)
(-152054 1977.28 -134.664)
(-152293 2065.03 -161.772)
(-152515 2176.36 -249.802)
(-152712 2316.87 -410.643)
(-152867 2494.87 -658.795)
(-152994 2730.7 -1007.57)
(-153099 3041.13 -1457.89)
(-153082 3430.88 -1993.03)
(-152383 3916 -2564.73)
(-149844 4545.36 -3002.18)
(-144281 5493.1 -3171.91)
(-141493 6153.79 -1614.75)
(-142359 6580.2 3812)
(-137714 -11523.5 24899.3)
(-78265.3 -12256.7 9469.48)
(-142471 -2387.92 -27712.8)
(-144968 -2389.92 -17924.6)
(-143196 -1792.53 -14221)
(-142686 -2033.99 -12024.9)
(-141949 -2791.37 -10005.2)
(-140519 -3167.91 -8393.62)
(-139886 -3091.21 -6891.02)
(-139438 -2870.91 -5771.13)
(-139059 -2531.46 -4759.69)
(-138339 -2207.68 -4102.62)
(-137525 -2058.99 -3709.33)
(-136958 -2027.08 -3211.89)
(-136593 -2005.58 -2849.47)
(-136355 -2012.65 -2660.49)
(-136201 -2023.03 -2561.84)
(-135960 -2039.84 -2476.39)
(-135660 -2051.06 -2480.62)
(-135369 -2069.12 -2572.28)
(-135069 -2091.83 -2704.89)
(-134732 -2119.24 -2876.03)
(-134353 -2150.13 -3070.92)
(-133925 -2182.83 -3270.59)
(-133462 -2218.09 -3449.72)
(-132990 -2253.26 -3577.99)
(-132547 -2289.23 -3636.39)
(-132168 -2324.25 -3619.98)
(-131881 -2358.29 -3534.56)
(-131699 -2389.19 -3388.61)
(-131616 -2415.42 -3197.85)
(-131620 -2441.62 -2979.11)
(-131686 -2476.25 -2747.53)
(-131791 -2525.76 -2529.45)
(-131957 -2583.16 -2350.57)
(-132188 -2620.78 -2152.35)
(-132406 -2622.67 -1882.29)
(-132565 -2610.26 -1652.76)
(-132676 -2582.55 -1446.54)
(-132734 -2528.73 -1255.43)
(-132717 -2450.72 -1091.23)
(-132594 -2342.12 -965.495)
(-132324 -2200.36 -893.382)
(-131865 -2020.88 -876.572)
(-131161 -1802.9 -913.708)
(-130146 -1552.73 -1013.31)
(-128743 -1273.2 -1176.93)
(-126884 -966.192 -1380.32)
(-124418 -646.562 -1605.46)
(-120811 -320.747 -1799.8)
(-115187 1.7926 -1901.2)
(-107461 602.018 -2190.6)
(-101198 1449.37 -1601.68)
(-107921 900.679 3563.97)
(-103208 -7614.21 7430.54)
(36575.8 -7215.17 1554.23)
(-143840 1180.71 -25265.1)
(-145683 1385.48 -18001.5)
(-145228 1979.72 -14950)
(-146483 1779.84 -12280.4)
(-146409 1048.68 -9255.89)
(-144585 690.043 -6777.37)
(-143713 769.82 -5506.34)
(-143210 981.006 -4750.39)
(-142845 1307.75 -3876.3)
(-142375 1620.15 -3331.63)
(-141883 1768.28 -2910.64)
(-141451 1810.71 -2511.18)
(-141115 1848.26 -2217.37)
(-140880 1861.19 -2057.23)
(-140692 1874.82 -1958.57)
(-140401 1885.37 -1877.86)
(-140050 1904.77 -1905.51)
(-139719 1921.1 -2010.19)
(-139373 1936.99 -2147.4)
(-138985 1952.48 -2314.76)
(-138545 1968.85 -2494.61)
(-138043 1987.91 -2669.36)
(-137491 2008.96 -2810.87)
(-136913 2034.66 -2892.67)
(-136346 2063.45 -2896.63)
(-135828 2096.05 -2818.86)
(-135393 2131.06 -2666.87)
(-135065 2168.97 -2455.05)
(-134857 2209.74 -2200.69)
(-134778 2247.45 -1918.5)
(-134822 2272.56 -1624.61)
(-134966 2277.09 -1333.92)
(-135207 2265.5 -1048.83)
(-135551 2262.99 -766.509)
(-135982 2285.4 -489.854)
(-136481 2311.75 -214.398)
(-137026 2341.62 50.7027)
(-137596 2386.84 292.344)
(-138158 2446.1 525.519)
(-138722 2523.74 730.32)
(-139283 2620.38 889.146)
(-139832 2744.48 998.331)
(-140357 2902.44 1047.27)
(-140847 3087.63 1006.54)
(-141287 3303.6 837.309)
(-141662 3555.9 517.516)
(-141832 3835.16 41.3993)
(-141211 4126.26 -548.067)
(-138278 4432.31 -1320.4)
(-132442 5003.05 -2302.12)
(-127293 5013.35 -2770.74)
(-136465 1985.34 186.863)
(-132285 -23234.2 17892.7)
(-78280.4 -16488.3 11484.3)
(-141048 -1001.32 -21420.5)
(-143788 -1849.41 -16488.6)
(-143241 -2012.9 -13421.8)
(-143706 -2057.47 -11441.4)
(-143281 -2439.53 -9100.38)
(-142160 -2537.6 -7675.77)
(-141359 -2596.6 -6341.32)
(-140729 -2718.38 -5151.02)
(-140285 -2726.25 -3986.17)
(-139777 -2624.23 -3075.13)
(-138976 -2470.38 -2382.96)
(-138164 -2428.39 -1867.83)
(-137610 -2405.38 -1485.25)
(-137163 -2394.01 -1256.2)
(-136715 -2379.28 -1070.94)
(-136188 -2362.95 -947.995)
(-135593 -2342.98 -926.383)
(-134943 -2327.09 -993.482)
(-134212 -2313.44 -1121.93)
(-133371 -2302.76 -1304.06)
(-132392 -2292.08 -1522.61)
(-131250 -2281.52 -1748.81)
(-129944 -2268.16 -1941.89)
(-128501 -2252.9 -2052.91)
(-126982 -2234 -2057.51)
(-125452 -2209.6 -1947.8)
(-123968 -2179.31 -1739.66)
(-122576 -2148.27 -1458.74)
(-121316 -2118.23 -1136.52)
(-120207 -2086.99 -802.862)
(-119259 -2056.61 -483.444)
(-118475 -2026.62 -210.62)
(-117862 -1984.89 -16.2725)
(-117406 -1925.83 120.071)
(-117099 -1861.05 230.455)
(-116954 -1788.83 298.527)
(-116959 -1700.31 330.782)
(-117056 -1589.91 324.279)
(-117227 -1447.09 278.466)
(-117461 -1262.14 193.872)
(-117741 -1033.53 69.0587)
(-118034 -757.568 -99.7037)
(-118294 -439.308 -320.723)
(-118458 -89.9666 -628.891)
(-118454 273.371 -1072.17)
(-118211 618.574 -1701.37)
(-117536 917.235 -2596.45)
(-115748 1185.55 -3770.75)
(-111688 1489.39 -5354.82)
(-104334 2277.52 -6670.2)
(-103658 2169.65 -6777.63)
(-122622 -2196.79 -8781.96)
(-95368 -9781.05 -25627.3)
(20964.8 -2727.44 -13214.5)
(-140549 1511.38 -21735.7)
(-142195 1057.6 -17244.6)
(-141965 1034.72 -15113.1)
(-142834 1150.3 -12664.6)
(-142904 890.936 -9315.95)
(-141827 884.384 -7246.06)
(-141466 893.285 -5984.25)
(-141170 813.903 -5134.64)
(-140859 830.858 -4407.16)
(-140516 945.932 -3793.64)
(-140083 1107.47 -3253.66)
(-139703 1152.06 -2850.88)
(-139471 1173.71 -2584.77)
(-139319 1179.03 -2451.33)
(-139151 1184.56 -2363.28)
(-138907 1188.68 -2330.6)
(-138611 1194.17 -2403.15)
(-138278 1193.79 -2554.39)
(-137881 1189.77 -2755.93)
(-137389 1181.48 -2997.03)
(-136779 1172.06 -3257.56)
(-136023 1161.27 -3509.22)
(-135115 1151.97 -3707.24)
(-134073 1142.99 -3807.63)
(-132939 1135.6 -3780.47)
(-131758 1130.93 -3621.53)
(-130569 1128.63 -3347.51)
(-129402 1123.1 -2988.93)
(-128269 1111.87 -2579.59)
(-127174 1096.58 -2145.94)
(-126118 1075.25 -1703.28)
(-125085 1048.05 -1269.93)
(-124070 1025.27 -874.009)
(-123074 1011.46 -519.083)
(-122091 996.626 -198.214)
(-121125 982.512 89.7571)
(-120178 974.918 346.168)
(-119244 977.175 566.399)
(-118339 999.36 754.595)
(-117442 1044.68 913.262)
(-116547 1111.48 1035.42)
(-115645 1205.3 1118.91)
(-114687 1324.2 1133.94)
(-113640 1456.73 1041.63)
(-112500 1586.38 791.658)
(-111291 1686.37 325.605)
(-109972 1737.38 -405.276)
(-107973 1733.99 -1470.49)
(-103897 1683.22 -3138.61)
(-97175.1 2115.17 -5676.79)
(-93488.7 1987.66 -9354.28)
(-103827 -2566.11 -12964.7)
(-103407 -10380.2 -17912.4)
(-541.259 -2754.09 -7830.26)
(-136617 24.6413 -18819.2)
(-140393 -708.558 -14605.9)
(-141251 -1271.74 -12678.5)
(-142637 -1212.68 -10929.6)
(-143198 -1128.29 -8870.65)
(-143436 -985.119 -7203.54)
(-143515 -1094.16 -5763.5)
(-143603 -1290.12 -4565.81)
(-143760 -1419 -3632.76)
(-143683 -1384.56 -2893)
(-143366 -1348.27 -2149.41)
(-143147 -1363.78 -1664.05)
(-143047 -1378.4 -1339.65)
(-142936 -1390.92 -1126.35)
(-142777 -1401.83 -983.778)
(-142552 -1407.46 -931.233)
(-142261 -1411 -979.897)
(-141902 -1416.06 -1116.66)
(-141461 -1422.74 -1320.91)
(-140916 -1430.98 -1583.87)
(-140233 -1439.5 -1884.38)
(-139375 -1448.99 -2189.3)
(-138325 -1457.9 -2432.98)
(-137110 -1467.61 -2550.01)
(-135794 -1472.12 -2492.08)
(-134444 -1471.14 -2256.22)
(-133117 -1464.24 -1870.96)
(-131850 -1453.65 -1387.73)
(-130656 -1441.08 -855.686)
(-129532 -1429.92 -308.355)
(-128480 -1420.25 225.889)
(-127504 -1407.45 721.739)
(-126601 -1387.04 1178.35)
(-125744 -1355.98 1596.28)
(-124927 -1317.84 1962.32)
(-124168 -1273.17 2272.64)
(-123487 -1213.31 2546.14)
(-122912 -1134.96 2804.41)
(-122479 -1033.39 3059.36)
(-122211 -904.14 3317.23)
(-122137 -744.199 3584.55)
(-122293 -556.143 3860)
(-122714 -343.454 4133.33)
(-123439 -109.391 4381.82)
(-124530 135.658 4564.52)
(-126107 383.064 4606.86)
(-128270 630.948 4369.31)
(-130749 844.454 3627.7)
(-131897 1002.8 1823.06)
(-131380 1048.53 -1336.37)
(-132922 455.56 -6863.11)
(-135447 -1657.44 -20347.1)
(-126265 -8742.1 -48554.7)
(-45062.8 -4220.42 -20661.8)
(-133582 1455.98 -20439.9)
(-136729 845.388 -16261)
(-137365 386.872 -14771.4)
(-138023 546.042 -13349.6)
(-138544 746.263 -10882.4)
(-138950 995.813 -9044.96)
(-139378 983.129 -7716.61)
(-139527 863.968 -6561.21)
(-139507 796.699 -5670.08)
(-139316 885.326 -4977.71)
(-139102 968.071 -4398.74)
(-138996 988.828 -4010.54)
(-138973 1002.26 -3768.95)
(-138960 1010.92 -3628.58)
(-138920 1015.46 -3558.45)
(-138843 1020.17 -3577.98)
(-138739 1022.53 -3702.79)
(-138612 1019.5 -3913.62)
(-138451 1011.43 -4191.65)
(-138238 998.656 -4525.66)
(-137949 982.879 -4897.11)
(-137553 963.445 -5268.96)
(-137043 941.83 -5576.82)
(-136450 916.001 -5747.02)
(-135837 891.333 -5730.98)
(-135276 867.177 -5524.23)
(-134818 843.137 -5156.28)
(-134492 816.241 -4673.8)
(-134300 784.089 -4128.16)
(-134225 743.038 -3560.53)
(-134251 693.089 -2990.85)
(-134363 638.947 -2436.58)
(-134549 585.568 -1912.82)
(-134785 536.64 -1422.04)
(-135059 489.415 -964.962)
(-135369 443.569 -543.665)
(-135710 403.623 -150.787)
(-136080 373.8 219.458)
(-136471 358.199 565.872)
(-136878 360.297 886.662)
(-137300 382.95 1182.16)
(-137736 429.372 1472)
(-138248 498.514 1757.22)
(-138901 588.475 2016.11)
(-139782 695.721 2209.75)
(-141033 820.036 2272.88)
(-142755 959.533 2064.26)
(-144652 1078.61 1291.31)
(-145431 1180.12 -667.223)
(-144938 1334.25 -4531.38)
(-147508 844.512 -11895.4)
(-163607 -2501.91 -26844.8)
(-171996 -11649.1 -56457.1)
(-115948 -6014.69 -19511.8)
(-130140 362.296 -17868.3)
(-133019 127.267 -13866.8)
(-134202 -361.333 -12334.9)
(-135336 -519.403 -10532.9)
(-135501 -351.697 -9002.06)
(-135591 -182.91 -7340.9)
(-135845 -292.567 -5876.8)
(-136269 -414.826 -4769.6)
(-136788 -424.167 -3943)
(-136904 -328.069 -3185.5)
(-136744 -303.244 -2592.88)
(-136722 -321.258 -2212.87)
(-136785 -339.642 -1943.53)
(-136845 -359.527 -1769.19)
(-136878 -376.252 -1695.85)
(-136864 -392.217 -1728.32)
(-136791 -409.315 -1869.77)
(-136647 -429.322 -2110.44)
(-136418 -452.939 -2437.55)
(-136077 -479.484 -2846.06)
(-135578 -510.712 -3328.93)
(-134848 -545.741 -3860.18)
(-133846 -586.843 -4356.55)
(-132605 -629.364 -4702.95)
(-131231 -672.303 -4806.78)
(-129848 -710.905 -4665.2)
(-128547 -743.967 -4325.46)
(-127379 -769.564 -3857.62)
(-126347 -790.269 -3329.04)
(-125435 -812.14 -2787.09)
(-124635 -830.202 -2255.51)
(-123915 -838.189 -1752.54)
(-123244 -842.636 -1272.37)
(-122612 -844.085 -803.94)
(-122012 -843.299 -350.639)
(-121437 -841.367 88.5014)
(-120874 -837.43 517.47)
(-120307 -824.285 968.835)
(-119724 -798.93 1446.79)
(-119121 -758.673 1954.26)
(-118510 -698.82 2503.3)
(-117910 -618.468 3104.77)
(-117351 -515.736 3770.86)
(-116879 -388.906 4511.54)
(-116571 -235.332 5334.69)
(-116580 -52.021 6239.52)
(-117084 160.1 7175.25)
(-117949 397.295 7960.54)
(-118401 703.497 8332.49)
(-119301 1070.57 7366.87)
(-127012 1017.62 2841.35)
(-148481 -328.608 -9955.05)
(-153592 -5897.89 -33148.1)
(-77859.6 -1862.33 -9155.94)
(-124865 1892.56 -18425.3)
(-127674 1582.46 -14116.9)
(-128784 1101.64 -12417.7)
(-129103 939.743 -11141.9)
(-128766 1134.83 -9781.71)
(-128951 1338.63 -8419.62)
(-129349 1255.84 -7193.2)
(-129559 1156.8 -6097.93)
(-129772 1176.68 -5152.42)
(-129780 1309.28 -4417.21)
(-129671 1367.1 -3896.64)
(-129649 1376.08 -3558.88)
(-129694 1381.81 -3333.89)
(-129755 1383.98 -3206.69)
(-129805 1387.49 -3179.22)
(-129831 1389.89 -3264.81)
(-129820 1389.25 -3465.45)
(-129758 1383.91 -3769.81)
(-129631 1373.3 -4165.96)
(-129414 1358.2 -4648.65)
(-129058 1336.73 -5211.97)
(-128494 1309.64 -5824.86)
(-127680 1274.13 -6398.59)
(-126657 1234.71 -6802.76)
(-125546 1192.51 -6944.05)
(-124481 1153.22 -6812.75)
(-123559 1119.19 -6457.78)
(-122835 1093.43 -5947.32)
(-122317 1073.87 -5355.31)
(-121978 1054.36 -4738.11)
(-121788 1040.53 -4117.79)
(-121723 1039.78 -3512.83)
(-121757 1045.92 -2917.42)
(-121869 1058.39 -2326.41)
(-122047 1076.39 -1742.55)
(-122279 1099.11 -1159.14)
(-122546 1127.73 -568.552)
(-122830 1164.33 33.3235)
(-123113 1211.76 651.185)
(-123376 1272.67 1289.76)
(-123601 1349.9 1954.04)
(-123774 1441.79 2647.92)
(-123884 1547.85 3373.97)
(-123965 1669.07 4147.56)
(-124137 1804.45 4964.46)
(-124592 1956.14 5807.09)
(-125570 2127.16 6629.54)
(-127033 2315.42 7229.51)
(-128466 2551.85 7252.34)
(-130852 2830.94 5818.88)
(-142135 2575.17 1238.96)
(-178267 715.66 -9998.62)
(-236310 -8214.23 -38393.1)
(-200477 -3486.22 8122.69)
(-128654 -113.52 -17585.3)
(-131004 17.6569 -14076.4)
(-132237 -152.304 -12255.3)
(-133433 -312.266 -10039.4)
(-133681 -129.331 -8537.66)
(-133739 -52.3899 -7282.65)
(-134206 -217.244 -6225.29)
(-134862 -283.444 -5465.4)
(-135387 -176.086 -4671.1)
(-135622 -62.5701 -3760.95)
(-135812 -15.9787 -3114.47)
(-136104 -2.91269 -2656.2)
(-136449 3.62261 -2310.88)
(-136811 3.74143 -2076.9)
(-137165 3.43012 -1957.29)
(-137485 0.750249 -1959)
(-137750 -4.26591 -2084.41)
(-137937 -12.3036 -2330.75)
(-138031 -23.2557 -2692.93)
(-138010 -36.1961 -3169.39)
(-137814 -50.9927 -3770.08)
(-137324 -66.0592 -4475.42)
(-136436 -81.7165 -5171.1)
(-135187 -95.0456 -5624.58)
(-133779 -107.004 -5658.65)
(-132444 -112.72 -5273.2)
(-131330 -111.336 -4592.79)
(-130497 -99.858 -3753.72)
(-129929 -82.55 -2866.16)
(-129568 -67.4069 -2004.17)
(-129367 -50.8509 -1202.62)
(-129283 -30.3881 -467.262)
(-129269 -5.11903 194.972)
(-129298 21.766 789.469)
(-129353 47.2368 1321.83)
(-129422 70.7799 1800.69)
(-129503 91.882 2229.93)
(-129586 114.252 2614.21)
(-129664 147.225 2965.58)
(-129774 200.691 3298.5)
(-129929 278.407 3614.94)
(-130154 384.265 3922.63)
(-130484 520.372 4230.92)
(-130968 689.493 4545.11)
(-131700 897.955 4890.19)
(-132875 1149.22 5311.54)
(-134779 1451.54 5843.59)
(-137543 1821.99 6489.13)
(-141037 2357.92 7275.95)
(-146601 3022.87 8543.25)
(-160980 3185.65 9160.51)
(-206282 1031.36 3854.73)
(-277677 -6748.28 -9936.65)
(-277923 20417.9 -13971.7)
(-123677 1336.81 -17403.7)
(-126082 1466.34 -13358)
(-127334 1304.21 -11218.4)
(-128033 1147.44 -9117.65)
(-127872 1346.9 -7900.69)
(-128136 1434.16 -7129.02)
(-128612 1268.34 -6159.06)
(-128869 1201.75 -5335.61)
(-129097 1318.45 -4540.09)
(-129285 1442.96 -3800.11)
(-129480 1496.97 -3255.74)
(-129738 1514.61 -2865.24)
(-130039 1525.28 -2585.35)
(-130370 1529.48 -2414.61)
(-130707 1533.73 -2359.56)
(-131028 1536.46 -2428.97)
(-131307 1538.24 -2626.11)
(-131518 1538.9 -2949.7)
(-131641 1539.16 -3395.61)
(-131647 1540.33 -3966.6)
(-131468 1542.49 -4675.19)
(-130969 1546.29 -5511.66)
(-130031 1548.97 -6357.13)
(-128676 1549.76 -6972.12)
(-127100 1543.43 -7157.61)
(-125536 1533 -6906.27)
(-124135 1519.6 -6339.38)
(-122961 1507.99 -5598.36)
(-122012 1496.56 -4801.17)
(-121218 1479.85 -4023.37)
(-120519 1464.14 -3302.57)
(-119869 1453.99 -2651.67)
(-119218 1451.93 -2069.5)
(-118534 1456.23 -1547.6)
(-117790 1465.55 -1079.04)
(-116967 1481.25 -653.124)
(-116049 1504.47 -265.703)
(-115026 1539.41 80.8335)
(-113880 1593.69 383.121)
(-112594 1672.11 634.779)
(-111149 1777.7 824.827)
(-109523 1912.94 947.816)
(-107698 2079.38 1021.75)
(-105681 2279.91 1084.83)
(-103495 2516.96 1139.8)
(-101290 2790.38 1213.52)
(-99333.2 3102.96 1329.46)
(-97737.5 3475.98 1473.59)
(-96483.7 3973.14 1675.4)
(-96981.3 4440.59 2266.06)
(-106907 4315.58 3707.91)
(-148732 5013.97 3230.62)
(-206120 -5812.32 1597.49)
(-231291 83524 28470.2)
(-127024 -181.616 -15971.5)
(-129582 148.069 -13175.4)
(-130857 52.3354 -11419.3)
(-132710 -148.059 -9521.06)
(-133763 -161.822 -8079.71)
(-134370 -361.995 -7113.94)
(-135194 -452.687 -6316.02)
(-135993 -404.428 -5521.84)
(-136500 -311.781 -4648.12)
(-136926 -297.212 -3865.2)
(-137411 -293.939 -3266.39)
(-137919 -302.18 -2794.46)
(-138465 -312.4 -2438.69)
(-139034 -325.963 -2211.85)
(-139606 -339.248 -2128.33)
(-140157 -353.886 -2203.81)
(-140661 -370.307 -2450.7)
(-141092 -389.745 -2877.69)
(-141433 -413.01 -3488.84)
(-141668 -442.209 -4289.63)
(-141722 -478.352 -5306)
(-141388 -528.606 -6558.36)
(-140394 -598.579 -7922.5)
(-138675 -693.177 -9010.7)
(-136532 -804.475 -9430.75)
(-134387 -925.542 -9162.52)
(-132494 -1049.45 -8513.08)
(-130930 -1172.26 -7722.03)
(-129681 -1297.24 -6939.55)
(-128687 -1427.25 -6246.78)
(-127882 -1556.83 -5678.95)
(-127205 -1686.72 -5223.6)
(-126616 -1816.13 -4861.41)
(-126092 -1943.33 -4577.29)
(-125613 -2070.28 -4354.56)
(-125167 -2196.73 -4179.65)
(-124740 -2321.27 -4048.46)
(-124302 -2439.87 -3968.15)
(-123834 -2545.34 -3938.53)
(-123307 -2638.05 -3982.35)
(-122709 -2714.45 -4112.8)
(-122027 -2770.8 -4342.98)
(-121254 -2807.61 -4681.51)
(-120386 -2828.38 -5138.26)
(-119446 -2834.6 -5714.78)
(-118519 -2828.8 -6390.32)
(-117704 -2814.25 -7128.84)
(-116833 -2781.83 -7792.79)
(-115286 -2660.18 -7853.62)
(-113996 -2566.28 -6936.37)
(-118904 -1941.06 -2332.2)
(-147653 -3802.14 8640.34)
(-196089 -4073.94 28508.9)
(-105597 314.33 -2740.56)
(-123844 678.373 -15235.3)
(-126356 1042.89 -12192.4)
(-127664 951.192 -10479.8)
(-129170 761.05 -8594.73)
(-129978 753.933 -7538.24)
(-130475 549.671 -6732.41)
(-130899 457.266 -5679.14)
(-131399 509.527 -4810.49)
(-131845 609.017 -4044.79)
(-132289 626.448 -3374.88)
(-132747 633.348 -2832.33)
(-133239 630.704 -2392.29)
(-133780 629.058 -2063.34)
(-134358 627.653 -1857.43)
(-134953 631.098 -1795.01)
(-135546 638.453 -1892.01)
(-136113 650.145 -2164.88)
(-136631 665.713 -2626.3)
(-137090 685.362 -3282.35)
(-137482 708.503 -4137.51)
(-137750 736.285 -5214.86)
(-137702 763.848 -6540.1)
(-137084 788.084 -7988.39)
(-135862 804.03 -9156.38)
(-134369 814.872 -9633.06)
(-133036 821.308 -9397.21)
(-132096 826.471 -8761.45)
(-131603 831.107 -7971.47)
(-131511 829.045 -7186.09)
(-131728 817.752 -6485.3)
(-132169 804.278 -5911.01)
(-132769 788.864 -5454.62)
(-133473 772.898 -5102.27)
(-134238 757.775 -4839.67)
(-135038 743.723 -4648.09)
(-135843 732.19 -4517.63)
(-136623 725.13 -4447.89)
(-137352 726.489 -4443.08)
(-138003 742.167 -4504.61)
(-138549 776.53 -4634.94)
(-138973 833.001 -4845.34)
(-139241 915.574 -5152.25)
(-139321 1022.3 -5580.35)
(-139171 1147.52 -6150.5)
(-138741 1285.85 -6871.78)
(-138002 1428.16 -7738.56)
(-136880 1564.69 -8708.06)
(-135008 1692.28 -9612.35)
(-131739 1859.19 -10118.6)
(-127074 1976.52 -10306.4)
(-125498 3103.57 -8700.08)
(-130503 744.853 -6305.8)
(-149231 -3731.56 26439.7)
(-96088.4 -2178.15 2237.79)
(-123498 95.8565 -12512.8)
(-125827 442.897 -10170)