/*--------------------------------*- C++ -*----------------------------------*\
| =========                 |                                                 |
| \\      /  F ield         | OpenFOAM: The Open Source CFD Toolbox           |
|  \\    /   O peration     | Version:  4.1                                   |
|   \\  /    A nd           | Web:      www.OpenFOAM.org                      |
|    \\/     M anipulation  |                                                 |
\*---------------------------------------------------------------------------*/
FoamFile
{
    version     2.0;
    format      ascii;
    class       volScalarField;
    location    "3";
    object      epsilon;
}
// * * * * * * * * * * * * * * * * * * * * * * * * * * * * * * * * * * * * * //

dimensions      [0 2 -3 0 0 0 0];

internalField   nonuniform List<scalar> 
4432
(
0.000349678
0.00047427
0.000505354
0.000533476
0.000558189
0.000580779
0.000599171
0.000618768
0.000627925
0.000552431
0.000664643
0.00055103
0.000684171
0.000702243
0.00056668
0.000697426
0.000713216
0.000715875
0.000732164
0.000576287
0.000705155
0.000708817
0.000704524
0.000716958
0.000579642
0.000693327
0.000627502
0.000548403
0.000669271
0.000677304
0.000700072
0.000705279
0.000617794
0.000726737
0.000590429
0.000725097
0.000608235
0.000719764
0.00072185
0.000739409
0.000634687
0.000540814
0.000504284
0.000469879
0.000484809
0.000421047
0.000555663
0.000585905
0.000622876
0.000663739
0.000719816
0.0008592
0.000971591
0.000567676
0.000350717
0.000473117
0.000503787
0.000531448
0.000555801
0.000578103
0.000596316
0.000615749
0.000625155
0.000649904
0.000537745
0.000621737
0.000650269
0.000671402
0.000558413
0.000674256
0.000693104
0.000698356
0.000717009
0.000570216
0.00069792
0.000703627
0.000700611
0.000714345
0.000579014
0.000693553
0.000628691
0.000549386
0.000671619
0.000680467
0.000703912
0.000709577
0.000620441
0.000731208
0.000592908
0.000730579
0.000743895
0.000584367
0.000721665
0.00073527
0.000622031
0.000530637
0.000497612
0.000466419
0.00048234
0.000421077
0.000552593
0.000581297
0.000614049
0.000642248
0.000711893
0.000766577
0.000860667
0.000558304
0.0548811
0.0148768
0.0148565
0.0148635
0.0148704
0.0148773
0.0148822
0.0148752
0.014877
0.0148907
0.014877
0.01487
0.0148832
0.0148695
0.0148626
0.0148691
0.0148755
0.0148818
0.0148686
0.014862
0.0148677
0.0148679
0.0148731
0.0148798
0.0148817
0.0148882
0.0148883
0.0148882
0.0148885
0.0148885
0.0148948
0.0148887
0.0148883
0.0148942
0.0148942
0.0148931
0.0148792
0.0148792
0.0148858
0.0148787
0.0148747
0.014875
0.0148832
0.0148855
0.0148784
0.0148935
0.0149318
0.0149967
0.0150968
0.0153114
0.0156585
0.0158853
0.0165507
0.0498822
0.0548801
0.0148762
0.014856
0.014863
0.0148699
0.0148767
0.014882
0.014875
0.0148765
0.0148902
0.0148765
0.0148695
0.0148828
0.0148691
0.0148689
0.0148756
0.0148754
0.0148815
0.0148685
0.0148618
0.0148676
0.0148678
0.0148729
0.0148795
0.014875
0.0148814
0.0148881
0.0148882
0.0148884
0.0148883
0.0148947
0.0148885
0.0148882
0.0148941
0.0148941
0.014893
0.0148791
0.0148792
0.0148859
0.0148789
0.0148798
0.0148792
0.0148823
0.0148842
0.0148762
0.0148902
0.0149254
0.0149895
0.0150454
0.0152194
0.0154685
0.0158556
0.0165812
0.0503788
0.0548362
0.0148767
0.0148566
0.0148566
0.0148566
0.0148606
0.0148607
0.0148634
0.0148702
0.0148701
0.0148837
0.0148768
0.0148694
0.014876
0.0148826
0.0148758
0.0148756
0.0148888
0.0148687
0.0148684
0.0148751
0.0148747
0.0148878
0.0148752
0.014875
0.014888
0.0148808
0.0148805
0.0148874
0.0148753
0.014875
0.0148814
0.0148755
0.0148814
0.0148806
0.0148803
0.0148868
0.0148748
0.014868
0.0148751
0.0148755
0.0148837
0.0148848
0.0148782
0.0148805
0.0148941
0.0149241
0.0149817
0.0150455
0.0151737
0.0152825
0.015228
0.0152145
0.0155957
0.0548355
0.0148762
0.0148561
0.0148561
0.0148561
0.0148614
0.0148614
0.0148629
0.0148696
0.0148696
0.0148832
0.0148763
0.014869
0.0148756
0.0148823
0.0148755
0.0148753
0.0148886
0.0148686
0.0148683
0.0148749
0.0148746
0.0148877
0.0148751
0.0148749
0.0148879
0.0148807
0.0148804
0.0148873
0.0148752
0.0148749
0.0148814
0.0148754
0.0148813
0.0148805
0.0148801
0.0148867
0.0148748
0.014868
0.014875
0.0148757
0.0148831
0.0148837
0.0148765
0.0148758
0.0148892
0.0149167
0.0149539
0.0149957
0.0151079
0.0151731
0.0150787
0.015156
0.0156121
0.054837
0.0148767
0.0148566
0.0148566
0.0148635
0.0148722
0.0148717
0.0148699
0.0148701
0.0148769
0.0148769
0.0148738
0.0148796
0.0148819
0.0148891
0.0148891
0.0148888
0.0148755
0.0148686
0.0148753
0.0148821
0.0148753
0.0148749
0.0148815
0.0148753
0.0148817
0.0148818
0.0148754
0.0148816
0.014895
0.0148946
0.014875
0.0148682
0.0148749
0.0148693
0.0148696
0.0148752
0.0148872
0.0148818
0.0148818
0.0148886
0.0148824
0.0148841
0.0148844
0.0148832
0.0148921
0.014916
0.0149442
0.0149665
0.0150077
0.014987
0.0148646
0.0150096
0.0150325
0.0548363
0.0148762
0.0148561
0.014856
0.014863
0.0148733
0.0148731
0.0148696
0.0148696
0.0148764
0.0148764
0.0148751
0.0148799
0.0148806
0.0148887
0.0148823
0.0148818
0.0148751
0.0148753
0.0148949
0.0148751
0.0148683
0.0148749
0.0148748
0.0148815
0.0148817
0.0148818
0.0148753
0.0148814
0.0148879
0.0148875
0.0148877
0.0148806
0.0148771
0.0148715
0.0148692
0.0148748
0.0148871
0.0148817
0.0148817
0.0148883
0.0148819
0.0148793
0.0148792
0.0148777
0.0148883
0.0149083
0.0149225
0.0149525
0.014982
0.0149128
0.0148846
0.0150101
0.0150129
0.0548376
0.0148767
0.0148566
0.0148566
0.0148566
0.0148606
0.0148675
0.0148704
0.0148839
0.0148836
0.0148831
0.0148898
0.0148764
0.0148677
0.0148737
0.0148756
0.0148756
0.0148817
0.0148814
0.0148817
0.0148751
0.0148724
0.014872
0.0148762
0.0148769
0.0148755
0.0148818
0.0148878
0.0148876
0.0148808
0.0148751
0.0148752
0.0148877
0.0148878
0.0148858
0.014886
0.0148877
0.0148873
0.014882
0.0148767
0.0148834
0.014885
0.0148835
0.014889
0.0148854
0.014892
0.0149052
0.0149177
0.0149437
0.0149523
0.0149148
0.0148762
0.0149383
0.0149774
0.0548369
0.0148762
0.0148561
0.0148561
0.0148561
0.0148615
0.0148684
0.0148697
0.0148765
0.0148833
0.0148896
0.014886
0.0148792
0.0148821
0.0148819
0.0148821
0.0148885
0.0148751
0.0148682
0.0148751
0.014875
0.014881
0.0148805
0.0148875
0.0148752
0.0148683
0.0148752
0.014882
0.0148752
0.0148682
0.014875
0.0148751
0.0148809
0.0148804
0.0148876
0.0148752
0.0148751
0.0148871
0.0148816
0.0148763
0.0148828
0.014884
0.014882
0.0148868
0.0148807
0.014887
0.0148945
0.0149097
0.0149273
0.014894
0.0148559
0.0149066
0.014943
0.0149688
0.0548381
0.0148767
0.0148566
0.0148635
0.0148706
0.0148844
0.0148911
0.0148839
0.0148908
0.0148811
0.0148806
0.0148898
0.0148765
0.0148688
0.0148749
0.0148756
0.0148755
0.0148822
0.014884
0.0148828
0.0148746
0.0148686
0.0148739
0.0148741
0.0148819
0.014888
0.0148882
0.0148877
0.0148876
0.0148879
0.0148684
0.0148684
0.0148754
0.0148753
0.014882
0.0148765
0.0148764
0.0148823
0.0148826
0.0148774
0.0148835
0.01489
0.0148856
0.0148839
0.0148871
0.0148836
0.0148877
0.0149101
0.014907
0.0148756
0.0148738
0.0148785
0.0148858
0.0149364
0.0548373
0.0148762
0.0148561
0.014863
0.01487
0.0148769
0.0148785
0.0148781
0.0148902
0.0148831
0.0148827
0.0148893
0.0148892
0.0148893
0.0148759
0.014869
0.0148753
0.014882
0.0148863
0.0148852
0.0148745
0.0148685
0.0148733
0.0148735
0.0148817
0.0148878
0.0148852
0.0148853
0.0148877
0.014888
0.0148683
0.0148683
0.0148816
0.0148811
0.0148818
0.014876
0.0148767
0.0148821
0.0148824
0.0148772
0.0148831
0.0148893
0.0148845
0.0148806
0.0148849
0.0148823
0.0148799
0.0148936
0.0148847
0.0148566
0.0148679
0.0149128
0.0149
0.014937
0.0548386
0.0148767
0.0148566
0.0148635
0.0148706
0.0148844
0.0148911
0.0148769
0.0148769
0.0148903
0.0148768
0.0148766
0.01489
0.0148829
0.0148828
0.0148825
0.0148889
0.0148755
0.0148686
0.0148816
0.0148815
0.0148752
0.0148753
0.0148818
0.0148814
0.014888
0.0148819
0.0148817
0.014895
0.0148948
0.0148753
0.0148684
0.0148812
0.0148813
0.0148815
0.0148886
0.0148759
0.0148765
0.0148891
0.0148834
0.0148781
0.0148801
0.0148866
0.0148895
0.0148925
0.0148797
0.0148835
0.0148977
0.0148823
0.0148558
0.0148494
0.0148939
0.0148884
0.0149301
0.0548378
0.0148762
0.0148561
0.014863
0.01487
0.0148769
0.0148784
0.0148779
0.0148832
0.0148898
0.0148763
0.0148761
0.0148895
0.0148825
0.0148823
0.0148821
0.0148887
0.0148754
0.0148684
0.0148817
0.0148754
0.0148753
0.0148814
0.0148815
0.0148812
0.0148877
0.0148879
0.0148883
0.0148874
0.0148764
0.0148764
0.0148807
0.0148813
0.0148813
0.0148812
0.0148881
0.0148756
0.0148761
0.0148886
0.0148827
0.0148772
0.0148788
0.0148848
0.0148854
0.0148891
0.0148772
0.0148787
0.0148936
0.0148661
0.0148539
0.014868
0.0148838
0.0148919
0.0149308
0.054839
0.0148767
0.0148566
0.0148566
0.0148566
0.0148635
0.0148703
0.0148702
0.0148838
0.0148771
0.0148698
0.0148764
0.0148761
0.0148895
0.0148763
0.0148759
0.0148956
0.0148945
0.0148812
0.0148688
0.014875
0.0148747
0.0148749
0.0148754
0.0148753
0.014882
0.0148892
0.0148953
0.0148816
0.0148818
0.014895
0.0148758
0.0148687
0.0148757
0.0148827
0.0148758
0.0148757
0.0148831
0.0148834
0.0148777
0.0148706
0.0148853
0.0148865
0.0148897
0.0148919
0.0148775
0.0148785
0.0148845
0.0148674
0.014853
0.0148584
0.0148946
0.0148885
0.0149254
0.0548382
0.0148762
0.0148561
0.0148561
0.0148561
0.0148629
0.0148698
0.0148697
0.0148833
0.0148766
0.0148693
0.0148759
0.0148757
0.014889
0.0148759
0.0148756
0.0148888
0.0148881
0.0148748
0.0148684
0.014875
0.0148819
0.0148878
0.0148818
0.0148822
0.0148885
0.0148884
0.0148811
0.0148809
0.0148819
0.0148885
0.0148752
0.0148685
0.0148756
0.0148825
0.0148756
0.0148755
0.0148828
0.0148831
0.0148773
0.01487
0.0148845
0.0148854
0.0148881
0.0148897
0.0148747
0.0148706
0.0148765
0.0148737
0.0148737
0.0148959
0.0149056
0.0148926
0.014926
0.0548394
0.0148768
0.0148566
0.0148566
0.0148635
0.0148704
0.0148839
0.0148826
0.0148824
0.0148974
0.0148768
0.0148764
0.0148898
0.0148766
0.0148736
0.01488
0.0148891
0.0148822
0.0148819
0.0148821
0.0148821
0.0148882
0.0148882
0.0148955
0.0148761
0.0148694
0.014876
0.0148758
0.0148816
0.0148814
0.0148882
0.0148758
0.0148622
0.0148691
0.0148699
0.0148754
0.014883
0.0148899
0.0148768
0.0148704
0.0148846
0.0148849
0.0148859
0.0148829
0.0148848
0.0148784
0.0148773
0.0148891
0.0148709
0.0148518
0.0148584
0.0148849
0.0148887
0.014922
0.0548385
0.0148762
0.0148561
0.0148561
0.014863
0.0148698
0.0148766
0.0148835
0.0148833
0.01489
0.0148763
0.014876
0.0148893
0.0148761
0.0148734
0.0148798
0.0148888
0.014882
0.0148817
0.0148885
0.0148839
0.0148905
0.014882
0.0148784
0.0148844
0.0148881
0.0148885
0.0148685
0.0148619
0.0148687
0.0148693
0.0148754
0.0148685
0.0148689
0.0148756
0.0148753
0.0148825
0.0148894
0.0148763
0.0148697
0.0148837
0.0148838
0.0148833
0.0148808
0.014882
0.0148751
0.0148648
0.0148734
0.0148764
0.0148774
0.0148988
0.0149064
0.0148922
0.0149227
0.0548396
0.0148768
0.0148566
0.0148566
0.0148635
0.0148704
0.0148839
0.0148815
0.0148812
0.014897
0.0148965
0.0148764
0.0148698
0.0148832
0.014871
0.0148707
0.0148825
0.0148825
0.0148886
0.0148753
0.0148683
0.0148751
0.0148749
0.0148886
0.0148766
0.0148703
0.0148828
0.014882
0.0148817
0.0148817
0.0148892
0.0148759
0.0148754
0.0148954
0.0148956
0.0148818
0.0148822
0.0148889
0.0148751
0.0148758
0.014884
0.014885
0.0148857
0.0148856
0.0148945
0.0148809
0.0148642
0.0148753
0.0148678
0.0148554
0.0148727
0.0149072
0.014891
0.0149197
0.0548387
0.0148762
0.0148561
0.0148561
0.014863
0.0148698
0.0148834
0.0148826
0.0148823
0.0148965
0.0148962
0.0148761
0.0148693
0.0148827
0.0148824
0.0148822
0.0148821
0.0148887
0.0148884
0.0148883
0.0148816
0.0148815
0.0148819
0.0148828
0.0148763
0.0148699
0.0148822
0.0148812
0.0148803
0.0148801
0.0148891
0.0148757
0.0148686
0.0148754
0.0148827
0.0148759
0.0148759
0.0148887
0.0148747
0.0148754
0.0148834
0.0148842
0.0148833
0.0148841
0.0148915
0.0148777
0.0148568
0.0148552
0.0148545
0.0148729
0.0148961
0.0149104
0.0148921
0.0149203
0.0548397
0.0148768
0.0148566
0.0148566
0.0148635
0.0148703
0.0148703
0.0148838
0.0148904
0.0148834
0.0148901
0.0148768
0.01487
0.0148767
0.014883
0.0148762
0.0148628
0.0148691
0.0148755
0.014882
0.0148685
0.0148618
0.0148685
0.0148762
0.0148817
0.0148817
0.0148906
0.0148764
0.0148757
0.0148886
0.0148884
0.0148824
0.014882
0.0148885
0.0148822
0.0148821
0.0148889
0.0148762
0.014863
0.0148698
0.0148712
0.0148786
0.0148852
0.0148795
0.01488
0.0148711
0.0148635
0.0148778
0.0148832
0.0148694
0.0148732
0.0149048
0.0148923
0.0149181
0.0548388
0.0148762
0.0148561
0.0148561
0.014863
0.0148698
0.0148697
0.0148833
0.0148899
0.014883
0.0148897
0.0148763
0.0148695
0.0148762
0.0148825
0.0148758
0.0148755
0.0148887
0.0148883
0.0148751
0.0148619
0.0148682
0.0148687
0.0148757
0.0148779
0.0148776
0.0148911
0.014876
0.0148693
0.0148815
0.0148748
0.0148744
0.0148752
0.0148755
0.0148819
0.0148818
0.0148885
0.0148757
0.0148625
0.0148692
0.0148704
0.0148775
0.0148837
0.0148833
0.0148902
0.0148762
0.0148579
0.0148558
0.0148555
0.0148745
0.0148766
0.0148856
0.0148934
0.0149188
0.0548397
0.0148768
0.0148566
0.0148636
0.0148704
0.0148841
0.0148829
0.0148827
0.0148972
0.0148836
0.0148768
0.0148902
0.0148769
0.0148699
0.0148766
0.0148831
0.0148761
0.0148756
0.0148888
0.0148874
0.0148937
0.014875
0.0148691
0.0148773
0.0148873
0.0148793
0.0148773
0.0148962
0.0148762
0.0148625
0.0148687
0.0148755
0.0148754
0.0148757
0.0148895
0.0148957
0.0148759
0.0148566
0.0148631
0.0148683
0.0148693
0.0148717
0.0148784
0.0148719
0.0148703
0.0148729
0.0148743
0.0148817
0.0148701
0.0148558
0.0148751
0.0149063
0.0148902
0.014917
0.0548388
0.0148762
0.0148561
0.014863
0.0148699
0.0148767
0.0148835
0.0148833
0.0148899
0.0148832
0.0148763
0.0148898
0.0148765
0.0148629
0.0148693
0.0148821
0.0148756
0.0148754
0.0148883
0.0148881
0.0148949
0.0148755
0.0148687
0.0148924
0.0148916
0.0148914
0.0148791
0.0148652
0.0148702
0.0148767
0.0148758
0.0148821
0.0148757
0.0148755
0.0148887
0.0148889
0.0148756
0.0148561
0.0148626
0.0148679
0.0148687
0.014871
0.0148775
0.0148708
0.0148702
0.0148704
0.0148708
0.014882
0.0148678
0.0148546
0.0148804
0.0149076
0.0148944
0.0149177
0.0548395
0.0148839
0.0148707
0.0148776
0.0148847
0.0148844
0.0148913
0.0148972
0.0148763
0.0148766
0.0148967
0.0148767
0.0148766
0.01489
0.0148768
0.0148728
0.0148791
0.0148893
0.0148947
0.0148811
0.0148693
0.0148743
0.0148827
0.0148866
0.0148856
0.0148842
0.0148828
0.014889
0.0148759
0.0148687
0.0148815
0.0148812
0.0148818
0.0148764
0.0148827
0.0148762
0.0148689
0.014876
0.0148762
0.0148832
0.0148836
0.0148705
0.0148707
0.0148775
0.0148769
0.014883
0.0148757
0.0148783
0.014872
0.0148717
0.0148933
0.0149048
0.0148892
0.0149168
0.0548386
0.0148833
0.0148701
0.0148771
0.0148841
0.0148839
0.0148908
0.0148968
0.0148759
0.0148761
0.0148964
0.0148763
0.0148761
0.0148963
0.0148763
0.0148694
0.0148739
0.0148737
0.0148818
0.0148813
0.0148759
0.0148743
0.0148784
0.0148803
0.0148912
0.0148782
0.01487
0.0148748
0.0148752
0.0148815
0.0148817
0.0148757
0.0148758
0.014882
0.0148846
0.0148847
0.0148687
0.0148624
0.0148688
0.0148697
0.0148762
0.0148697
0.0148697
0.0148764
0.0148759
0.014883
0.0148758
0.0148788
0.0148715
0.0148538
0.0148532
0.0148848
0.0148926
0.0149175
0.054836
0.0148982
0.0148989
0.0148777
0.0148705
0.0148775
0.0148843
0.0148773
0.0148701
0.0148841
0.0148768
0.0148764
0.0148768
0.0148765
0.0148899
0.0148768
0.0148633
0.0148697
0.0148764
0.0148895
0.0148771
0.0148711
0.0148857
0.0149475
0.0148968
0.0148866
0.0148952
0.0148826
0.014877
0.0148712
0.0148699
0.0148836
0.0148827
0.0148762
0.0148748
0.0148749
0.0148829
0.0148891
0.0148825
0.0148828
0.0148895
0.0148769
0.01487
0.0148765
0.0148757
0.0148689
0.0148604
0.0148702
0.0148639
0.0148632
0.0148606
0.0148807
0.0148891
0.0149168
0.0548384
0.0148903
0.0148841
0.014877
0.0148769
0.0148839
0.0148908
0.0148768
0.0148765
0.014897
0.0148763
0.0148693
0.0148763
0.014883
0.0148762
0.0148691
0.0148889
0.0148758
0.0148754
0.0148951
0.0148826
0.0148761
0.0148805
0.0149092
0.0149328
0.0148896
0.0148937
0.0148819
0.014876
0.0148766
0.0148766
0.0148802
0.0148793
0.0148761
0.0148745
0.0148743
0.0148763
0.0148898
0.014876
0.0148761
0.0148964
0.0148763
0.0148693
0.0148758
0.0148756
0.0148689
0.0148571
0.014867
0.0148641
0.0148523
0.0148514
0.0148831
0.0148913
0.0149175
0.0548388
0.0148909
0.0148777
0.0148846
0.0148777
0.0148774
0.0148984
0.0148773
0.0148701
0.0148837
0.0148835
0.0148768
0.0148765
0.01489
0.0148772
0.0148569
0.014863
0.0148693
0.0148695
0.0148826
0.0148771
0.0148699
0.0149013
0.0150563
0.0150581
0.014912
0.0148737
0.0148735
0.0148927
0.0148822
0.0148824
0.0148954
0.0148765
0.0148695
0.0148821
0.0148821
0.0148828
0.014883
0.0148764
0.0148764
0.0148895
0.0148768
0.0148768
0.01489
0.0148892
0.0148828
0.0148755
0.0148856
0.0148908
0.0148956
0.0149029
0.0149252
0.0149352
0.0149489
0.055042
0.0148978
0.0148981
0.0148773
0.0148702
0.014884
0.0148768
0.0148744
0.0148808
0.0148829
0.0148831
0.0148895
0.0148829
0.0148829
0.0148893
0.0148823
0.0148889
0.0148758
0.0148754
0.014895
0.0148764
0.0148694
0.0149504
0.0150397
0.0151476
0.0148822
0.0148753
0.0148728
0.0148745
0.0148742
0.0148751
0.0148822
0.0148817
0.0148828
0.014883
0.0148759
0.0148757
0.0148886
0.0148825
0.0148765
0.0148766
0.0148766
0.0148827
0.0148888
0.0148823
0.0148803
0.0148889
0.014888
0.0148903
0.0148978
0.0149036
0.0149129
0.0148956
0.0149163
0.0550225
0.0148844
0.0148566
0.0148635
0.0148705
0.0148704
0.0148843
0.0148773
0.0148769
0.0148975
0.0148768
0.0148765
0.0148969
0.0148769
0.0148767
0.01489
0.0148766
0.0148697
0.0148756
0.0148823
0.0148773
0.0148803
0.0149152
0.0151185
0.0149214
0.0148731
0.0148741
0.0148742
0.014884
0.0148873
0.0148751
0.0148638
0.0148636
0.0148696
0.0148765
0.0148903
0.0148764
0.0148692
0.0148764
0.0148766
0.0148768
0.0148772
0.0148903
0.0148755
0.0148768
0.0148837
0.0148868
0.0148922
0.0148992
0.0149232
0.0148889
0.0148954
0.0149578
0.0548142
0.0148909
0.0148774
0.0148842
0.0148771
0.0148771
0.0148907
0.0148766
0.0148763
0.0148898
0.0148898
0.0148764
0.0148761
0.0148893
0.0148826
0.0148824
0.0148889
0.014876
0.0148625
0.0148695
0.0148834
0.0148842
0.0149382
0.0151936
0.0148856
0.0148831
0.0148899
0.0148812
0.0148756
0.0148787
0.0148791
0.0148815
0.0148757
0.0148759
0.0148887
0.0148758
0.0148757
0.0148886
0.0148817
0.0148758
0.0148761
0.0148828
0.0148895
0.0148757
0.0148698
0.0148767
0.0148799
0.0148727
0.0148713
0.0148925
0.014881
0.0148669
0.0149168
0.0548344
0.0148769
0.0148636
0.0148707
0.0148705
0.0148842
0.0148773
0.0148635
0.0148702
0.0148769
0.014884
0.0148835
0.0148902
0.0148769
0.01487
0.0148899
0.0148893
0.0148759
0.0148696
0.0148761
0.0148829
0.0148829
0.0148849
0.0148961
0.0149636
0.0148827
0.014873
0.0148791
0.0148934
0.0148905
0.014891
0.0148907
0.014877
0.0148702
0.0148702
0.0148702
0.0148768
0.0148904
0.0148769
0.0148701
0.0148771
0.0148772
0.0148911
0.0148781
0.0148768
0.014884
0.0148844
0.0148786
0.0148559
0.0148542
0.0148527
0.0148825
0.0148901
0.0149178
0.0548336
0.0148764
0.0148631
0.0148702
0.01487
0.0148836
0.0148768
0.014863
0.0148697
0.0148696
0.0148765
0.014883
0.0148894
0.0148762
0.0148761
0.0148959
0.0148761
0.0148692
0.0148756
0.0148755
0.0148817
0.014889
0.0148899
0.0149461
0.0149565
0.0148965
0.0149039
0.0148832
0.0148695
0.0148758
0.0148826
0.0148834
0.0148831
0.0148829
0.014883
0.0148829
0.0148829
0.0148897
0.0148762
0.0148695
0.0148764
0.0148766
0.0148903
0.0148774
0.0148768
0.0148836
0.0148814
0.0148917
0.014874
0.0148534
0.0148539
0.0148847
0.0148942
0.0149187
0.0548374
0.0148838
0.0148706
0.0148776
0.0148846
0.0148844
0.0148913
0.0148976
0.0148767
0.0148633
0.0148701
0.0148699
0.0148764
0.0148898
0.0148771
0.0148634
0.0148698
0.0148698
0.0148824
0.0148757
0.0148756
0.0148825
0.0148768
0.0148774
0.0148775
0.0148928
0.0148783
0.0148759
0.0148887
0.014887
0.0148807
0.0148816
0.0148883
0.0148884
0.0148953
0.014876
0.014876
0.0148888
0.0148887
0.014896
0.014877
0.0148705
0.014878
0.0148856
0.0148783
0.0148693
0.0148764
0.0148812
0.0148738
0.0148525
0.0148509
0.0148812
0.0148902
0.0149181
0.0548365
0.0148833
0.0148701
0.0148771
0.0148841
0.0148839
0.0148908
0.0148972
0.0148763
0.0148628
0.0148696
0.0148694
0.014883
0.0148764
0.0148761
0.0148894
0.0148824
0.014889
0.0148849
0.0148783
0.0148798
0.0148797
0.0148912
0.0148851
0.0148846
0.0148845
0.0148835
0.0148957
0.0148755
0.0148749
0.0148752
0.0148751
0.0148879
0.0148754
0.0148708
0.0148768
0.0148756
0.0148698
0.0148759
0.0148888
0.0148765
0.0148698
0.0148772
0.0148846
0.0148773
0.0148693
0.0148766
0.0148792
0.014873
0.0148533
0.0148524
0.0148836
0.0148934
0.0149188
0.0548366
0.0148767
0.0148565
0.0148636
0.0148706
0.0148774
0.0148839
0.01487
0.0148565
0.0148633
0.0148701
0.0148769
0.0148823
0.0148752
0.0148763
0.0148897
0.0148785
0.0148779
0.0148953
0.0148759
0.0148755
0.0148886
0.0148823
0.0148841
0.0148787
0.0148848
0.0148772
0.0148763
0.0148952
0.0148753
0.0148688
0.0148882
0.0148879
0.014884
0.0148783
0.0148827
0.014876
0.0148759
0.014889
0.0148829
0.0148832
0.0148905
0.014879
0.0148787
0.0148921
0.0148676
0.0148636
0.0148757
0.0148797
0.0148632
0.0148538
0.0148803
0.0148892
0.0149186
0.0548358
0.0148762
0.014856
0.014863
0.0148701
0.0148769
0.0148834
0.0148696
0.014856
0.0148629
0.0148697
0.0148764
0.0148829
0.0148693
0.0148692
0.014876
0.0148827
0.0148758
0.0148754
0.0148883
0.0148814
0.0148823
0.014877
0.0148776
0.0148776
0.0148837
0.0148884
0.014881
0.0148884
0.0148816
0.0148814
0.0148945
0.0148877
0.0148839
0.0148782
0.0148823
0.0148756
0.0148755
0.0148886
0.0148824
0.0148825
0.0148897
0.0148781
0.0148786
0.0148911
0.0148693
0.0148663
0.0148772
0.0148813
0.0148689
0.0148555
0.0148828
0.0148924
0.0149192
0.0548362
0.0148767
0.0148565
0.0148635
0.01487
0.0148698
0.0148703
0.0148841
0.0148774
0.0148634
0.0148701
0.0148768
0.0148833
0.0148834
0.0148833
0.0148765
0.0148696
0.0148757
0.0148825
0.0148823
0.0148817
0.0148887
0.0148755
0.0148695
0.0148769
0.0148841
0.0148769
0.0148622
0.0148685
0.0148685
0.0148748
0.0148881
0.0148874
0.0148751
0.0148691
0.0148748
0.0148758
0.014877
0.0148833
0.0148895
0.0148771
0.0148651
0.0148732
0.0148737
0.0148806
0.0148721
0.0148643
0.0148754
0.0148802
0.014868
0.0148595
0.0148807
0.0148898
0.0149202
0.0548353
0.0148761
0.014856
0.014863
0.0148678
0.0148676
0.0148698
0.0148836
0.0148769
0.014863
0.0148696
0.0148763
0.0148828
0.0148896
0.0148894
0.0148759
0.0148708
0.014877
0.0148822
0.0148755
0.0148751
0.0148751
0.0148827
0.0148892
0.0148766
0.0148757
0.0148885
0.0148875
0.0148802
0.0148749
0.0148746
0.0148878
0.0148872
0.0148748
0.0148688
0.0148746
0.0148756
0.0148765
0.0148828
0.0148888
0.0148763
0.0148642
0.0148719
0.0148732
0.0148855
0.0148767
0.0148602
0.014857
0.0148567
0.0148618
0.0148613
0.0148884
0.0148933
0.0149209
0.0548353
0.0148766
0.0148635
0.0148705
0.0148775
0.0148774
0.0148773
0.0148912
0.0148909
0.0148702
0.01487
0.0148768
0.0148767
0.0148902
0.0148895
0.0148762
0.0148686
0.0148749
0.0148822
0.0148819
0.0148798
0.0148734
0.0148755
0.0148895
0.0148762
0.0148691
0.0148755
0.0148752
0.0148753
0.0148822
0.0148754
0.0148754
0.0148882
0.0148883
0.0148888
0.0148817
0.0148763
0.0148768
0.0148828
0.0148892
0.014883
0.0148837
0.0148925
0.0148861
0.0148825
0.0148831
0.0148694
0.0148624
0.0148626
0.0148729
0.0149041
0.0149146
0.0148911
0.0149223
0.0548345
0.0148761
0.014863
0.01487
0.014877
0.0148769
0.0148768
0.0148839
0.0148834
0.0148696
0.0148696
0.0148831
0.014883
0.0148897
0.0148827
0.0148758
0.0148808
0.014887
0.0148886
0.0148818
0.0148783
0.0148721
0.0148756
0.0148895
0.0148758
0.0148622
0.0148686
0.0148751
0.0148813
0.0148883
0.0148753
0.0148753
0.014888
0.014888
0.0148885
0.0148813
0.0148759
0.0148763
0.0148822
0.0148886
0.0148822
0.0148828
0.0148912
0.0148844
0.0148803
0.0148789
0.0148694
0.0148585
0.0148682
0.0148929
0.0148819
0.0148889
0.0148941
0.014923
0.0548349
0.0148766
0.0148634
0.0148704
0.0148774
0.0148774
0.0148773
0.0148912
0.014891
0.0148702
0.01487
0.0148836
0.0148766
0.0148765
0.0148899
0.014881
0.0148742
0.0148784
0.014878
0.0148888
0.0148754
0.0148685
0.0148819
0.0148754
0.0148755
0.014873
0.0148729
0.014889
0.0148756
0.0148754
0.014895
0.0148879
0.014888
0.0148758
0.0148759
0.0148957
0.0148768
0.0148767
0.0148837
0.0148842
0.0148835
0.0148847
0.0148938
0.0148811
0.0148804
0.0148798
0.0148712
0.0148791
0.0148685
0.0148596
0.0148668
0.0149006
0.0148918
0.0149252
0.0548341
0.0148761
0.014863
0.0148699
0.0148769
0.0148769
0.0148768
0.0148838
0.0148834
0.0148696
0.0148696
0.0148832
0.0148761
0.014876
0.0148894
0.0148859
0.0148727
0.014869
0.0148756
0.0148888
0.0148753
0.0148685
0.0148817
0.0148753
0.0148757
0.0148892
0.0148821
0.0148793
0.0148854
0.0148808
0.014888
0.0148866
0.0148863
0.0148754
0.0148755
0.0148952
0.0148762
0.0148761
0.014883
0.0148833
0.0148824
0.0148832
0.0148919
0.0148783
0.0148748
0.014873
0.0148701
0.0148831
0.0148662
0.0148674
0.0148585
0.0148956
0.0148953
0.014926
0.0548339
0.0148766
0.0148634
0.0148704
0.0148774
0.0148783
0.014878
0.014884
0.014884
0.0148771
0.01487
0.0148699
0.0148764
0.0148834
0.0148765
0.0148713
0.014871
0.0148755
0.0148818
0.0148885
0.0148755
0.0148686
0.0148819
0.0148753
0.0148756
0.0148824
0.0148884
0.0148753
0.0148753
0.0148883
0.0148751
0.0148752
0.0148814
0.0148883
0.0148762
0.0148691
0.0148764
0.0148769
0.0148836
0.0148914
0.0148789
0.014881
0.0148946
0.0148818
0.014882
0.0148786
0.0148758
0.0148775
0.0148618
0.0148605
0.0148596
0.0149089
0.0148931
0.0149296
0.0548331
0.0148761
0.0148629
0.0148699
0.0148769
0.0148781
0.0148778
0.0148837
0.0148769
0.0148699
0.0148695
0.0148699
0.0148763
0.0148829
0.0148761
0.0148692
0.014869
0.0148754
0.0148818
0.0148885
0.0148754
0.0148685
0.0148752
0.0148752
0.014882
0.0148823
0.0148883
0.0148752
0.0148686
0.0148814
0.0148812
0.0148786
0.0148784
0.014888
0.0148758
0.0148687
0.0148759
0.0148762
0.0148829
0.0148906
0.0148779
0.0148796
0.0148926
0.0148791
0.0148763
0.0148749
0.0148737
0.0148822
0.0148612
0.0148861
0.0148888
0.0149197
0.014896
0.0149299
0.0548334
0.0148766
0.0148634
0.0148704
0.0148774
0.0148842
0.0148702
0.0148565
0.0148633
0.0148701
0.0148768
0.0148837
0.0148837
0.0148832
0.0148831
0.0148898
0.0148763
0.0148761
0.0148892
0.0148823
0.0148819
0.0148884
0.0148955
0.0148754
0.0148753
0.0148954
0.0148754
0.0148752
0.0148884
0.0148796
0.0148793
0.0148819
0.0148821
0.0148691
0.0148693
0.0148764
0.0148833
0.0148772
0.0148706
0.0148793
0.0148874
0.0148831
0.0148783
0.0148871
0.0148886
0.0148832
0.0148718
0.0148662
0.0148617
0.0148704
0.0148879
0.014941
0.0148937
0.0149352
0.0548325
0.0148761
0.0148629
0.0148699
0.0148769
0.0148837
0.0148698
0.014856
0.0148629
0.0148697
0.0148764
0.0148831
0.0148696
0.0148693
0.014876
0.0148827
0.0148759
0.0148757
0.0148889
0.014882
0.0148817
0.0148862
0.0148801
0.0148822
0.0148846
0.0148834
0.0148869
0.0148814
0.0148818
0.0148752
0.0148749
0.0148816
0.0148819
0.0148813
0.0148758
0.0148757
0.0148824
0.0148828
0.0148816
0.0148825
0.0148895
0.0148809
0.0148739
0.0148851
0.0148862
0.0148805
0.0148668
0.0148642
0.0148606
0.0148932
0.0149022
0.0149081
0.0148973
0.014936
0.0548321
0.0148765
0.0148564
0.0148634
0.0148704
0.0148842
0.0148904
0.0148835
0.0148841
0.0148838
0.014884
0.0148768
0.0148765
0.0148834
0.0148832
0.014883
0.0148895
0.0148761
0.0148758
0.0148891
0.0148889
0.0148755
0.0148753
0.0148886
0.014882
0.0148753
0.0148753
0.0148816
0.0148818
0.0148819
0.0148883
0.0148887
0.0148815
0.0148758
0.0148759
0.014883
0.0148902
0.0148776
0.0148776
0.0148973
0.0148806
0.0148693
0.0148789
0.0148838
0.0148881
0.0148869
0.0148762
0.0148777
0.0148603
0.0148677
0.014885
0.0149463
0.0148896
0.0149488
0.0548314
0.0148761
0.0148559
0.0148629
0.0148699
0.0148768
0.0148838
0.0148906
0.0148904
0.0148833
0.0148835
0.0148763
0.0148761
0.014883
0.0148828
0.0148826
0.0148892
0.0148758
0.0148755
0.0148822
0.0148822
0.0148754
0.0148752
0.0148886
0.0148818
0.0148752
0.0148814
0.0148872
0.014881
0.0148817
0.0148881
0.0148884
0.0148813
0.0148755
0.0148754
0.0148824
0.0148896
0.0148769
0.0148767
0.0148961
0.014879
0.0148662
0.0148734
0.0148823
0.0148867
0.0148824
0.0148724
0.0148745
0.0148608
0.0148736
0.0149185
0.0149344
0.0149319
0.0149452
0.0548314
0.0148765
0.0148564
0.0148633
0.0148703
0.0148772
0.0148772
0.0148769
0.0148839
0.0148769
0.0148767
0.0148837
0.0148803
0.0148731
0.0148762
0.014883
0.0148896
0.014876
0.0148758
0.0148959
0.0148756
0.014862
0.0148685
0.0148685
0.0148688
0.014875
0.0148879
0.0148754
0.0148619
0.0148686
0.0148692
0.0148756
0.0148749
0.0148751
0.0148763
0.0148833
0.014877
0.0148772
0.0148973
0.0148798
0.014881
0.0148948
0.0148828
0.0148839
0.0148869
0.014886
0.0149044
0.0149153
0.014924
0.0148942
0.0148623
0.0149104
0.0148828
0.0149687
0.0548306
0.014876
0.0148559
0.0148629
0.0148699
0.0148768
0.0148768
0.0148765
0.0148835
0.0148765
0.0148763
0.0148833
0.014879
0.0148719
0.0148758
0.0148893
0.0148758
0.0148689
0.0148757
0.0148822
0.0148754
0.0148618
0.0148684
0.0148684
0.0148687
0.0148749
0.0148878
0.0148752
0.0148751
0.0148881
0.0148878
0.0148949
0.0148755
0.0148687
0.0148759
0.0148826
0.0148763
0.0148763
0.0148961
0.0148782
0.014866
0.0148704
0.0148749
0.014879
0.0148766
0.0148755
0.0148962
0.0149038
0.0149096
0.0148716
0.0148836
0.0148966
0.014958
0.014976
0.05483
0.0148765
0.0148564
0.0148563
0.0148633
0.0148703
0.0148841
0.0148829
0.0148827
0.0148907
0.0148834
0.0148835
0.0148834
0.0148699
0.0148695
0.0148829
0.0148827
0.0148692
0.0148691
0.0148758
0.0148823
0.0148754
0.014862
0.0148686
0.0148689
0.0148749
0.0148879
0.0148754
0.0148685
0.0148755
0.0148752
0.0148883
0.0148757
0.0148759
0.0148891
0.0148888
0.0148824
0.0148828
0.0148902
0.0148732
0.0148671
0.0148711
0.0148718
0.0148799
0.0148862
0.0148886
0.0149013
0.0149399
0.0149845
0.014966
0.0149771
0.0149566
0.0148692
0.0149526
0.0548294
0.014876
0.0148559
0.0148559
0.0148629
0.0148698
0.0148767
0.0148836
0.0148904
0.0148902
0.0148829
0.0148831
0.014883
0.0148694
0.0148691
0.0148758
0.0148826
0.0148757
0.0148687
0.0148756
0.0148821
0.0148752
0.0148683
0.0148751
0.0148687
0.0148748
0.0148877
0.0148752
0.0148683
0.0148753
0.014875
0.0148881
0.0148755
0.0148755
0.0148886
0.0148882
0.0148817
0.0148819
0.0148891
0.0148717
0.0148651
0.0148699
0.0148746
0.0148814
0.0148808
0.0148769
0.0148961
0.0149326
0.0149755
0.0149562
0.0149832
0.0149149
0.0149966
0.0149569
0.054829
0.0148765
0.0148563
0.0148563
0.0148563
0.0148632