/*--------------------------------*- C++ -*----------------------------------*\
| =========                 |                                                 |
| \\      /  F ield         | OpenFOAM: The Open Source CFD Toolbox           |
|  \\    /   O peration     | Version:  4.1                                   |
|   \\  /    A nd           | Web:      www.OpenFOAM.org                      |
|    \\/     M anipulation  |                                                 |
\*---------------------------------------------------------------------------*/
FoamFile
{
    version     2.0;
    format      ascii;
    class       volScalarField;
    location    "3";
    object      k;
}
// * * * * * * * * * * * * * * * * * * * * * * * * * * * * * * * * * * * * * //

dimensions      [0 2 -2 0 0 0 0];

internalField   nonuniform List<scalar> 
4432
(
0.395918
0.426375
0.461121
0.485356
0.507278
0.518761
0.544092
0.529013
0.602192
0.612632
0.629817
0.636212
0.596346
0.661305
0.664236
0.632809
0.610364
0.63249
0.668769
0.671075
0.618251
0.681738
0.689775
0.698526
0.697132
0.702684
0.606619
0.682914
0.628593
0.623145
0.590578
0.657326
0.662799
0.675134
0.67654
0.685336
0.685526
0.639351
0.656448
0.68338
0.628562
0.591416
0.495814
0.64841
0.719403
1.09582
1.09667
0.882811
0.851326
0.81235
0.804299
0.749998
0.639948
0.508329
0.395993
0.426102
0.459778
0.484946
0.503558
0.521559
0.531453
0.55064
0.546035
0.6024
0.611081
0.588156
0.555632
0.626767
0.633245
0.607888
0.601406
0.602334
0.648541
0.652616
0.608092
0.669586
0.679199
0.689124
0.688832
0.695571
0.604095
0.679169
0.62819
0.621101
0.590626
0.656266
0.662148
0.674801
0.67615
0.629482
0.685771
0.683505
0.630392
0.687554
0.628008
0.585763
0.493337
0.633421
0.702157
1.01358
0.972064
0.790191
0.76659
0.741594
0.736349
0.643454
0.577464
0.502015
0.0067245
0.000457777
0.000398449
0.000403532
0.000402442
0.000404381
0.000409586
0.000410717
0.000414004
0.000406933
0.000414873
0.000421132
0.000422482
0.00041441
0.000419866
0.000425836
0.000418163
0.000416073
0.000410182
0.000411132
0.000413742
0.000407663
0.000416985
0.000414875
0.000422027
0.000443376
0.000431161
0.000433292
0.00044898
0.000459288
0.000465363
0.000484634
0.000486739
0.000507538
0.000533641
0.000573643
0.00060705
0.000627245
0.000688299
0.000781611
0.000869735
0.000946969
0.0010555
0.00134301
0.00181361
0.00235294
0.0036473
0.00543055
0.0106687
0.0202494
0.0340976
0.0449725
0.0739651
0.0278357
0.00672439
0.000457002
0.000397594
0.000402107
0.00040086
0.000403265
0.000408417
0.000409514
0.000412144
0.000412555
0.000414769
0.000422079
0.000417859
0.000411621
0.000417488
0.000422988
0.000416077
0.000414225
0.000408771
0.000410811
0.000412889
0.000407261
0.000416599
0.000414548
0.000421813
0.000436584
0.000429121
0.000436798
0.000447403
0.000459291
0.000465635
0.000484581
0.000486561
0.000506647
0.000532367
0.000563776
0.000610084
0.000631145
0.000684349
0.000787785
0.000873017
0.000935266
0.00103267
0.00131776
0.00178689
0.00229262
0.00354737
0.00530281
0.0105112
0.0199473
0.0342238
0.0443836
0.0676617
0.0267163
0.00671462
0.000441264
0.000375684
0.000375036
0.000375022
0.000377406
0.00038082
0.000380535
0.00038017
0.000381719
0.000388422
0.000386657
0.000378961
0.000381385
0.00038135
0.000384504
0.000387817
0.000388082
0.000390812
0.000384664
0.000380823
0.000384407
0.000387658
0.000385009
0.000384092
0.000391028
0.00038143
0.00038063
0.000384301
0.00038763
0.000385056
0.000380714
0.00038439
0.000384091
0.000387399
0.000387743
0.000390179
0.000384825
0.000380963
0.000385077
0.000384871
0.000389811
0.000391458
0.000387748
0.000385646
0.000398233
0.000425411
0.000467954
0.00059323
0.000984314
0.00162012
0.00220398
0.00706958
0.00365734
0.00671456
0.000440975
0.000375422
0.000374754
0.000376877
0.000379922
0.00038121
0.000380228
0.000379858
0.000381461
0.000388158
0.00038641
0.000378742
0.000381193
0.000381193
0.000384363
0.000387696
0.000387962
0.000390791
0.000384663
0.000380743
0.000384339
0.000387589
0.00038495
0.000384051
0.000391015
0.000381381
0.000380575
0.000384243
0.000387567
0.000384942
0.000380642
0.000384318
0.000384018
0.000387328
0.00038768
0.000390133
0.000384744
0.000380701
0.000384353
0.000384701
0.000388632
0.000390844
0.00038681
0.000384324
0.000395766
0.000417777
0.000461692
0.00058419
0.00094769
0.00161797
0.00219003
0.00679712
0.00356735
0.00671465
0.000441261
0.000375685
0.000375007
0.000378346
0.00037989
0.000379665
0.000383001
0.000383019
0.000381797
0.00038518
0.000382219
0.000375024
0.000377975
0.000381299
0.000381307
0.000384446
0.000387757
0.000387921
0.000391076
0.00039467
0.000385352
0.000377654
0.000380814
0.00038111
0.000384072
0.000390681
0.000385043
0.000384087
0.000394336
0.000385202
0.000384081
0.000390922
0.000390824
0.000391185
0.000387363
0.000387009
0.000390503
0.000384984
0.000384546
0.000391354
0.000388211
0.000387167
0.000387306
0.000386722
0.000390953
0.000406918
0.000417234
0.000440755
0.000467681
0.000480668
0.000479052
0.00140003
0.000590922
0.0067146
0.000440974
0.000375423
0.000374744
0.000378069
0.000380604
0.000380491
0.000383269
0.000383295
0.000381548
0.000384924
0.000381947
0.000377971
0.000380765
0.000380568
0.000381165
0.000384345
0.000387655
0.000391115
0.000385107
0.000384091
0.000391105
0.000381435
0.0003806
0.000384366
0.000384075
0.000390624
0.000384988
0.000384032
0.000390957
0.000387347
0.00038449
0.000384174
0.000387595
0.000388008
0.00038727
0.000386936
0.000390395
0.000385015
0.000384254
0.000391241
0.000387898
0.000386732
0.000386605
0.000385732
0.000387546
0.00040341
0.000410025
0.000437341
0.000480624
0.000461847
0.000664697
0.00139373
0.000587422
0.00671469
0.000441267
0.000375688
0.000375016
0.000377378
0.000380817
0.000380695
0.000380352
0.000381813
0.000385242
0.000382261
0.000378256
0.000380746
0.000380429
0.000382587
0.000389123
0.000386098
0.00037851
0.000380969
0.000381109
0.000384398
0.000381413
0.000377562
0.000380847
0.000381163
0.000381343
0.000384377
0.000390939
0.00038523
0.000380829
0.000384469
0.00038771
0.000385236
0.000380939
0.000384519
0.000381546
0.000383437
0.000386341
0.000390737
0.000385602
0.000385496
0.000391981
0.000393176
0.000394028
0.000387461
0.000391915
0.000399862
0.000406217
0.000420556
0.000431936
0.000415752
0.000369147
0.000494544
0.000412386
0.00671463
0.000440976
0.000375393
0.0003781
0.000381679
0.000381704
0.000380101
0.000379717
0.000381546
0.00038498
0.000382006
0.000378015
0.000380777
0.000380511
0.000382979
0.000389573
0.000385946
0.000378389
0.00038088
0.000381023
0.000384323
0.000381336
0.0003775
0.000380766
0.000381073
0.000384081
0.000387568
0.000391167
0.000385227
0.000380762
0.000384344
0.000387616
0.000385084
0.000380828
0.000384408
0.000381434
0.000383419
0.00038631
0.000390567
0.000385383
0.000385163
0.000391449
0.000392382
0.000392866
0.000385883
0.000388017
0.000398535
0.000407461
0.000414745
0.000405582
0.000379102
0.000420677
0.000498644
0.000412978
0.00671472
0.000441243
0.000379023
0.000381075
0.000380831
0.000381919
0.000385419
0.000388887
0.000388946
0.000388908
0.000382313
0.000378256
0.000381577
0.000381534
0.000388069
0.000385516
0.000381071
0.000384628
0.000384471
0.000387543
0.000384647
0.000384264
0.000387594
0.000391209
0.000385271
0.000380822
0.000384457
0.000384429
0.000387412
0.000384587
0.000384282
0.000387599
0.000391361
0.000385441
0.000380853
0.000384602
0.000381781
0.000384377
0.000391324
0.000385656
0.000385554
0.0003921
0.000389204
0.000388099
0.000389411
0.00039023
0.00039104
0.000402524
0.000402174
0.000387998
0.000391882
0.000370286
0.000373832
0.000393021
0.00671466
0.000440951
0.000378752
0.000380486
0.000380196
0.000381649
0.000385146
0.000388612
0.000385357
0.00038501
0.00038201
0.000378018
0.000381334
0.000381294
0.000387878
0.000385331
0.000380934
0.000384504
0.000384378
0.00038747
0.000384571
0.000384199
0.000387532
0.00039117
0.000385205
0.000380766
0.000384423
0.000384378
0.000387359
0.000384629
0.000384258
0.000387632
0.000391276
0.000385363
0.000380778
0.000384523
0.000381704
0.000384298
0.000391225
0.00038552
0.000385337
0.000391743
0.000388662
0.000387336
0.000389375
0.000388911
0.000385749
0.000389426
0.000388347
0.00037536
0.000384458
0.000383573
0.000379634
0.000394131
0.00671476
0.000441253
0.000379033
0.000381476
0.000381324
0.000381919
0.000385418
0.000382444
0.000378379
0.000381462
0.000381364
0.000381691
0.000385077
0.000388344
0.000388404
0.00038825
0.000388064
0.000388003
0.000391125
0.000391357
0.000391089
0.000391309
0.000391094
0.00039474
0.000385509
0.000374812
0.000377605
0.000380934
0.000381275
0.000384437
0.000381536
0.000380881
0.000384727
0.00038436
0.000387874
0.000391661
0.000385609
0.000384608
0.000391876
0.000392129
0.000396174
0.000387817
0.000383503
0.000387921
0.000389833
0.000388728
0.000385972
0.000390531
0.000388648
0.00037598
0.000384648
0.000383626
0.000362666
0.0003927
0.00671469
0.000440957
0.000378759
0.0003808
0.000380556
0.000381647
0.000385144
0.000382169
0.000378107
0.000380194
0.000379894
0.000381449
0.000384836
0.000388104
0.000388176
0.00038806
0.000387918
0.000387875
0.000391032
0.000391312
0.000381454
0.000380638
0.000384357
0.000387692
0.000385844
0.000378368
0.000380859
0.000381107
0.000384437
0.000381439
0.000378902
0.000382178
0.000381486
0.000384247
0.000387774
0.000391498
0.00038543
0.000384402
0.000391615
0.000391791
0.000395702
0.000387186
0.000382642
0.000386508
0.000389282
0.000387656
0.000381275
0.000380313
0.000377288
0.00037439
0.000394567
0.000387586
0.000361525
0.000393418
0.00671478
0.000441291
0.000375705
0.000375039
0.000376502
0.00037986
0.000380745
0.000380418
0.000381796
0.000385225
0.0003822
0.000381451
0.000385221
0.000385069
0.000385068
0.000382739
0.000384777
0.000386496
0.000387618
0.000390937
0.000385058
0.000384143
0.000391176
0.000391215
0.0003916
0.000391302
0.000391536
0.000391075
0.00039132
0.000391118
0.000391348
0.000391138
0.00039144
0.000387641
0.000384825
0.000384592
0.000388077
0.00038871
0.000385418
0.00038323
0.000386349
0.000392861
0.000388075
0.000386889
0.000395658
0.000385014
0.000381835
0.000379117
0.000379813
0.000375736
0.000386558
0.000384111
0.000364081
0.000393651
0.00671472
0.000440992
0.000375435
0.000374756
0.000377685
0.00038117
0.000380125
0.000379744
0.000381537
0.00038497
0.000381956
0.000381211
0.000384978
0.000384823
0.000388
0.000388074
0.000387231
0.000386778
0.000387507
0.000390832
0.000384998
0.00038408
0.000391127
0.000391134
0.000391518
0.000391214
0.000391505
0.000387621
0.000387518
0.000390897
0.000385113
0.000384142
0.000391165
0.000387543
0.000384722
0.000384482
0.000387954
0.00038857
0.000385257
0.000383012
0.000386049
0.000392431
0.000387491
0.000385885
0.000394535
0.000386003
0.000378831
0.000379204
0.000378895
0.000381698
0.000397694
0.000381026
0.000364777
0.000394374
0.00671481
0.000441298
0.00037571
0.000375047
0.000375986
0.000379316
0.000380908
0.000380622
0.000381794
0.000385209
0.00038225
0.000378263
0.000381603
0.000381666
0.000384902
0.000388172
0.00038824
0.000385011
0.000381337
0.000384444
0.000391099
0.000385085
0.000384181
0.000391374
0.000391574
0.000391926
0.000391556
0.000394886
0.000385437
0.000384406
0.000391325
0.000387822
0.000384862
0.000384829
0.000381619
0.000381047
0.000384906
0.000382345
0.000382297
0.000385183
0.000388469
0.000392799
0.000388053
0.000386799
0.000395649
0.000385412
0.000382005
0.000378252
0.000379546
0.000383545
0.0003915
0.000383216
0.000366727
0.000394234
0.00671474
0.000440996
0.000375438
0.000374765
0.000376943
0.000380345
0.000380171
0.00037981
0.000381534
0.000384957
0.000382007
0.000378028
0.000381359
0.000381414
0.000384648
0.000387951
0.000388074
0.000384851
0.000384407
0.000391055
0.000385005
0.000384092
0.000394556
0.000385296
0.000384488
0.000391529
0.000381944
0.000377746
0.000381027
0.000381332
0.000387589
0.000384938
0.00038425
0.000391265
0.000381633
0.00038087
0.000384684
0.000382099
0.000382007
0.000384817
0.000387992
0.000392153
0.000387219
0.000385694
0.000394186
0.000384859
0.000375873
0.000379094
0.000384378
0.000388124
0.000395887
0.000384419
0.000370544
0.000396478
0.00671482
0.000441303
0.000375715
0.000375059
0.00037506
0.000375061
0.000375054
0.000375042
0.000375024
0.000374975
0.000378162
0.000381625
0.00038168
0.000385087
0.000388326
0.000388391
0.000388179
0.000391383
0.000385183
0.000384209
0.000391165
0.000391048
0.00039144
0.000391449
0.000392106
0.00039211
0.000392149
0.000388016
0.000387095
0.000387041
0.000391073
0.00038542
0.000380996
0.000384791
0.000387911
0.000385312
0.000384535
0.000391753
0.000385698
0.00038236
0.00038552
0.000392399
0.000387471
0.000386537
0.000394404
0.000384256
0.000378821
0.000377178
0.000378606
0.000387104
0.000392632
0.000381539
0.000370352
0.000395612
0.00671475
0.000441
0.00037544
0.000374788
0.000374786
0.000374788
0.000374785
0.000374775
0.000375247
0.000378451
0.0003812
0.000381058
0.000381481
0.000384822
0.000388055
0.000388134
0.000387998
0.000391221
0.00038508
0.000384113
0.000391095
0.000391072
0.000391385
0.000391457
0.000391887
0.000391885
0.000391952
0.000391228
0.000391511
0.000391045
0.000394606
0.000385337
0.000380918
0.000384694
0.000387806
0.00038518
0.000384363
0.000391576
0.000385499
0.000382127
0.000385206
0.00039197
0.000386915
0.000385817
0.000393519
0.000383402
0.000375386
0.000380271
0.000384778
0.00038792
0.000393931
0.000384387
0.000371357
0.000395416
0.00671483
0.000441307
0.000375718
0.000375063
0.000375061
0.000375061
0.000375053
0.00037504
0.000374988
0.000378184
0.000381629
0.000381634
0.000388356
0.000386669
0.000379089
0.000381468
0.000384665
0.000388035
0.000387916
0.00039117
0.000385135
0.000384151
0.000391432
0.000391791
0.000392884
0.000392839
0.000392606
0.000385149
0.000384438
0.000387629
0.000387663
0.000388033
0.000391098
0.000391645
0.000390991
0.000385053
0.000381398
0.0003852
0.000382161
0.000385225
0.000392267
0.000386763
0.000382955
0.000387044
0.00039059
0.000387768
0.000375662
0.000378837
0.000384758
0.000388842
0.000390221
0.00038345
0.000370869
0.000394902
0.00671476
0.000441003
0.00037544
0.000374786
0.000374785
0.000374788
0.000374785
0.000374749
0.000377991
0.000380724
0.000380521
0.000381399
0.0003881
0.0003864
0.000378825
0.000381251
0.000381237
0.000384462
0.000387825
0.0003911
0.000385064
0.000384051
0.000391477
0.000391589
0.000392887
0.000392225
0.000392335
0.000385088
0.000384554
0.000391044
0.000385298
0.000381009
0.000384563
0.000384323
0.000390812
0.000385341
0.000381212
0.000384962
0.000381879
0.000384892
0.000391838
0.000386228
0.000382293
0.000386198
0.000389602
0.000386962
0.000375532
0.000375409
0.000375971
0.00037774
0.00038489
0.000385273
0.000370891
0.000395423
0.00671483
0.000441305
0.000375716
0.000375064
0.000375061
0.00037506
0.000375053
0.000375039
0.000374982
0.000378177
0.000381633
0.000381633
0.000388363
0.000385836
0.000384827
0.000391895
0.000382108
0.000381085
0.000384678
0.000387708
0.000385064
0.000380862
0.000384985
0.000384668
0.00039266
0.000387272
0.000385481
0.000395044
0.000394878
0.000385268
0.000384212
0.000391294
0.000390938
0.00038495
0.000384544
0.000391371
0.000387872
0.000385076
0.000381847
0.000385028
0.000391984
0.00038619
0.000385821
0.000392917
0.00038291
0.000381662
0.000388676
0.000384666
0.000376643
0.000371744
0.000381196
0.000385022
0.000371642
0.00039536
0.00671476
0.000441002
0.000375443
0.000374789
0.000374787
0.000374791
0.000374787
0.000374751
0.000377986
0.000380678
0.000380473
0.000381456
0.000384736
0.000391644
0.000386339
0.000378713
0.000381188
0.000381206
0.00038436
0.000387625
0.000387773
0.000387764
0.000387758
0.000392901
0.000386693
0.000385529
0.000392081
0.000391425
0.000394663
0.000385306
0.000380832
0.000384587
0.000387702
0.000385164
0.000384402
0.0003912
0.000387746
0.000385
0.000381744
0.000384773
0.000391662
0.000385797
0.00038534
0.000392347
0.000382396
0.00037843
0.000379311
0.000381077
0.000380356
0.000373027
0.000382538
0.000386035
0.000372695
0.000395953
0.00671481
0.000441182
0.000382385
0.000385735
0.000385447
0.000388943
0.000392431
0.000386408
0.000375209
0.000374961
0.000378153
0.000381622
0.000381702
0.000384862
0.000388253
0.000388523
0.000391621
0.000391816
0.000390812
0.000384598
0.000381114
0.000385128
0.000389419
0.000387857
0.000386749
0.000396624
0.000386499
0.00038474
0.00039448
0.00038538
0.000377885
0.000381189
0.000381593
0.000384499
0.000387973
0.000388252
0.000387813
0.000385015
0.000384785
0.000388335
0.000392209
0.000386338
0.000381999
0.000385751
0.000385343
0.000388202
0.000384784
0.000385696
0.000382482
0.000371966
0.000381851
0.000386222
0.000372303
0.000395532
0.00671475
0.000440879
0.000382106
0.000385452
0.000385154
0.000388646
0.000392144
0.000386136
0.00037493
0.000377948
0.000380899
0.000380734
0.000381498
0.000384782
0.000391616
0.000385621
0.000381144
0.000384678
0.00038452
0.000387531
0.000385007
0.00038171
0.000383457
0.00038697
0.000392484
0.000386714
0.000381817
0.000384525
0.000387437
0.000385452
0.000378431
0.000381072
0.000381452
0.000384424
0.000387785
0.000388022
0.000391063
0.000394845
0.000385531
0.000384611
0.000394998
0.00038596
0.000381493
0.000385171
0.00038481
0.000388204
0.000384883
0.000386115
0.000383098
0.000372346
0.000382173
0.000386747
0.00037321
0.00039609
0.00671451
0.00044501
0.000382335
0.000381691
0.000385261
0.000385491
0.000388724
0.000386113
0.000385028
0.000395703
0.000386168
0.000381539
0.000385263
0.000384911
0.000388277
0.000388569
0.000391704
0.000391881
0.000388101
0.000387986
0.000391671
0.000386666
0.000382171
0.000397463
0.000402007
0.000395871
0.000399477
0.000388865
0.000385002
0.000382506
0.000384725
0.000392242
0.000392189
0.000395731
0.000386131
0.00037507
0.000378026
0.000380898
0.000380913
0.000381817
0.000385152
0.000382189
0.000381515
0.000385232
0.000384474
0.00038771
0.000388817
0.000382216
0.000373083
0.000371694
0.00038197
0.000386026
0.00037187
0.000395562
0.00671473
0.000440907
0.000378755
0.0003806
0.000380318
0.000381582
0.000388406
0.000385843
0.000384769
0.000392109
0.000382131
0.000381213
0.000384955
0.000388132
0.000385645
0.000381256
0.00038483
0.000384652
0.000387703
0.000384927
0.000384666
0.000388329
0.000387668
0.000406115
0.000409929
0.000395679
0.000400214
0.000388594
0.000384715
0.000388218
0.000388419
0.000388485
0.000391956
0.000395536
0.000385978
0.000378097
0.000381357
0.00038156
0.000384718
0.000388198
0.000388547
0.000382027
0.000381188
0.000384855
0.000384457
0.000387707
0.000388783
0.000382444
0.000373356
0.0003721
0.000382298
0.000387083
0.000373131
0.00039615
0.00671477
0.000441146
0.000382383
0.000385727
0.00038544
0.000388934
0.000392423
0.000386325
0.000381665
0.000385352
0.000385056
0.000388502
0.000388706
0.000391986
0.000395578
0.000386166
0.000375322
0.000378131
0.000381379
0.000381651
0.000383186
0.000385545
0.000389437
0.000457328
0.0130867
0.00040413
0.000383695
0.000381655
0.000384145
0.000381655
0.000384845
0.000388008
0.000391418
0.000386516
0.000375961
0.000377861
0.000381345
0.00038175
0.000388236
0.000385621
0.000384766
0.000391975
0.000392013
0.000392225
0.000391571
0.000392227
0.000392326
0.000385421
0.000383194
0.000386469
0.000387856
0.000391827
0.000395927
0.000421566
0.00673198
0.000446028
0.000382218
0.000385395
0.000388596
0.000385973
0.000384887
0.000392342
0.000385391
0.000384937
0.000388518
0.000381989
0.000381224
0.000384999
0.000384889
0.000388079
0.000388166
0.000387561
0.000387125
0.000387985
0.000385111
0.000385636
0.000402357
0.000427553
0.0145918
0.000388295
0.000383222
0.000384247
0.000381395
0.000384079
0.000387759
0.000388256
0.000385004
0.000384726
0.000391261
0.000385522
0.000381147
0.000384756
0.000384593
0.000387976
0.000388397
0.000391479
0.000391857
0.000391523
0.000391745
0.000391952
0.000393056
0.000394237
0.000396959
0.000400321
0.000408941
0.000393155
0.000389869
0.000421593
0.00673191
0.000450246
0.000379588
0.000378452
0.000381942
0.000381843
0.000388678
0.000386103
0.000385013
0.000392367
0.000382375
0.00038146
0.000385268
0.000384901
0.000388259
0.000388616
0.000391746
0.000395202
0.000385778
0.000381386
0.000385616
0.000384476
0.000404801
0.00026874
0.000650978
0.00038243
0.000384473
0.000381947
0.000384468
0.00038817
0.000392059
0.000385856
0.000384844
0.000391688
0.000391599
0.000395168
0.000385892
0.000381413
0.000385121
0.000385043
0.000388487
0.000388887
0.00039201
0.000391952
0.000388342
0.000389422
0.000393875
0.000387208
0.000384936
0.000389059
0.00038976
0.000395424
0.000401141
0.00671425
0.000448505
0.000393109
0.000386202
0.000384988
0.000395902
0.000386281
0.000374936
0.000377974
0.000381441
0.000381464
0.000384907
0.000381934
0.000381252
0.000388053
0.000388114
0.000388027
0.000391203
0.000385345
0.000384426
0.000391789
0.000389653
0.000429492
7.53144e-05
0.000783557
0.000385523
0.000378811
0.000381265
0.000384734
0.000381892
0.000384796
0.000384952
0.000384788
0.00038824
0.000388355
0.00038781
0.000387766
0.000387854
0.000387782
0.000388001
0.000388106
0.000391702
0.000386452
0.000375567
0.000374339
0.000378187
0.000380067
0.000381937
0.000389726
0.000386781
0.000377131
0.000392836
0.000421844
0.0067144
0.000445103
0.000382731
0.000385471
0.000389183
0.000382601
0.000381676
0.000385502
0.000385247
0.000388671
0.000392089
0.000386009
0.000384898
0.000392152
0.000392028
0.000392203
0.000391802
0.000395182
0.000395023
0.00038562
0.000384828
0.000391713
0.000385047
0.000402616
0.000574405
0.000387266
0.000381464
0.000382072
0.000385037
0.000381663
0.000385331
0.000388935
0.000388958
0.000388918
0.000392165
0.000392416
0.000392077
0.000395635
0.000386054
0.000385048
0.000392244
0.000392241
0.000392684
0.000392366
0.000385223
0.000384398
0.000393531
0.000383111
0.000373737
0.000373443
0.000383631
0.000388533
0.000373693
0.000396645
0.00671433
0.000444807
0.000382461
0.000385197
0.000388907
0.000382332
0.000381413
0.000385231
0.000384965
0.000388389
0.000391847
0.00038591
0.000378142
0.000381408
0.000381489
0.000384676
0.000387958
0.00039134
0.000385477
0.000381205
0.000384744
0.00038211
0.000384324
0.000417105
0.00054175
0.000386361
0.000388937
0.000391178
0.000392873
0.000387759
0.000386995
0.000390591
0.000382208
0.000381271
0.000385064
0.000384783
0.000388258
0.000388483
0.000388251
0.000385251
0.000385056
0.000388646
0.000389036
0.000391917
0.000385787
0.000375569
0.000378002
0.000382403
0.000385527
0.000382162
0.000384774
0.000389094
0.000374455
0.000397196
0.00671468
0.000441146
0.00038236
0.000385713
0.000385427
0.000388971
0.000389074
0.000391816
0.000385326
0.000384963
0.000392324
0.000388742
0.00038546
0.000385086
0.000391939
0.000385901
0.000384787
0.000394974
0.000385678
0.000381195
0.000384886
0.000381698
0.000384797
0.000389817
0.000390233
0.000393324
0.000391652
0.000387207
0.000384733
0.000387777
0.00039136
0.000387832
0.000384892
0.000384599
0.000387963
0.000388237
0.000391248
0.000391622
0.000387889
0.000385213
0.000385172
0.00038252
0.000382239
0.000386327
0.000385752
0.000381991
0.000378548
0.000385137
0.000386249
0.000381269
0.000383227
0.000387594
0.000372744
0.000396208
0.00671461
0.000440851
0.000382092
0.000385443
0.000385147
0.000388687
0.000388807
0.000391575
0.000385103
0.000384725
0.000392086
0.000388506
0.00038521
0.000384795
0.000388143
0.000388323
0.000391454
0.000394864
0.000385426
0.000384259
0.000391226
0.000390969
0.000395701
0.000386728
0.000386409
0.000393814
0.000392486
0.000394996
0.00038537
0.000384242
0.000391105
0.000387668
0.000384697
0.000384521
0.000387464
0.000384782
0.000384469
0.000391022
0.000385338
0.00038446
0.000391431
0.000382056
0.0003818
0.000385333
0.000385238
0.000382552
0.000374181
0.000378119
0.000379426
0.000375082
0.000384064
0.000389774
0.000374438
0.00039685
0.00671462
0.000441221
0.000378988
0.000381958
0.000381915
0.000385459
0.000388969
0.000389037
0.000388881
0.00038891
0.000388875
0.000391506
0.000385944
0.000379072
0.000381676
0.000381664
0.000388206
0.000385655
0.000381198
0.00038472
0.000387854
0.000385134
0.000384665
0.000395675
0.00038695
0.000381927
0.000385469
0.000388269
0.000385298
0.000384284
0.000394534
0.000385386
0.000380981
0.00038471
0.000384484
0.000391078
0.000386219
0.000378676
0.000381401
0.000384789
0.000385032
0.000384984
0.000386104
0.000386328
0.000383753
0.000379151
0.000380501
0.000384195
0.000383042
0.000375756
0.000384501
0.000390326
0.000373149
0.000396223
0.00671456
0.000440939
0.000378727
0.000381693
0.000381651
0.000385194
0.000388704
0.000388776
0.000388628
0.000388665
0.000388637
0.00039125
0.000385662
0.000378807
0.000381399
0.000381384
0.000387919
0.0003854
0.000381042
0.000384594
0.000384251
0.000387703
0.000384947
0.00038822
0.000392312
0.000385586
0.000381659
0.000384553
0.000391308
0.000385144
0.000384217
0.000391078
0.000387586
0.000384723
0.000384396
0.000391026
0.000385999
0.000378474
0.000381174
0.000384524
0.000381898
0.000381315
0.000385416
0.000382303
0.000386087
0.000382793
0.000379552
0.000387105
0.000382664
0.000376224
0.00038547
0.000392776
0.000374597
0.000396888
0.0067146
0.000441213
0.00037897
0.000381938
0.000381899
0.000385326
0.000388878
0.000389
0.000392391
0.000392663
0.000391473
0.000385063
0.000381553
0.000385267
0.000385161
0.000388338
0.00038841
0.000388299
0.000388159
0.000388042
0.000384688
0.000384294
0.000387561
0.000391393
0.000385994
0.000381679
0.000388014
0.000387882
0.000387562
0.000387433
0.000391195
0.000385244
0.000384302
0.000394616
0.000385506
0.000384515
0.000394836
0.000385957
0.000375696
0.000375756
0.000378671
0.000381362
0.00038223
0.00038404
0.00038516
0.000387342
0.000383748
0.000377165
0.000375062
0.000373777
0.000386691
0.00039058
0.000372619
0.000396602
0.00671453
0.000440927
0.00037871
0.000381677
0.000381638
0.000385051
0.00038861
0.000388737
0.000392139
0.000392405
0.000391276
0.00038489
0.000381312
0.000385003
0.00038488
0.000388067
0.000388157
0.000388078
0.000387978
0.000387965
0.00038154
0.000380914
0.000384466
0.000388264
0.00038587
0.000381186
0.000384507
0.000383421
0.000386269
0.000387095
0.000391147
0.000385159
0.000384201
0.000394474
0.000385341
0.000384319
0.000394601
0.000385698
0.000375414
0.000375436
0.000378223
0.000380593
0.000381273
0.000383265
0.000384479
0.000385523
0.000382451
0.000377178
0.000375252
0.000376878
0.000388577
0.000394904
0.000375083
0.000397342
0.00671454
0.000441199
0.000378959
0.000381934
0.000381889
0.000385301
0.000388847
0.000388982
0.000392367
0.000392662
0.00039149
0.000385004
0.000384894
0.000392173
0.000388598
0.000388526
0.000387941
0.000387517
0.000388126
0.000388031
0.00039129
0.000385233
0.000384303
0.000394891
0.000385795
0.000381213
0.000384746
0.000387926
0.000385161
0.00038421
0.000391181
0.000391097
0.000385089
0.000384372
0.000394683
0.000385606
0.000384718
0.000391613
0.000382434
0.00037602
0.000378605
0.000381966
0.000382572
0.000384849
0.000386607
0.000385342
0.000383487
0.000385881
0.000381809
0.000376106
0.000385459
0.000392224
0.000374455
0.000397382
0.00671448
0.000440922
0.000378702
0.000381675
0.00038163
0.000385028
0.00038858
0.000388741
0.000392123
0.000392404
0.000391314
0.000384838
0.000384646
0.0003919
0.000388323
0.000385064
0.000384724
0.000387826
0.000387951
0.000387885
0.000391195
0.000385191
0.000384193
0.000394992
0.000385626
0.000381035
0.0003846
0.000387822
0.000385099
0.000384126
0.00039116
0.000390917
0.000384866
0.000384237
0.000394514
0.000385414
0.000384503
0.000391362
0.000382161
0.000375721
0.00037817
0.000381488
0.000381899
0.000383995
0.000384221
0.000384081
0.000387653
0.000384346
0.000377008
0.00037554
0.000389768
0.000397191
0.000378845
0.000399721
0.00671452
0.000441191
0.000378949
0.00038193
0.000381887
0.000385282
0.000388828
0.000388985
0.000392367
0.000392658
0.000391468
0.000385061
0.000381542
0.000385245
0.000385091
0.000388278
0.000385182
0.000384849
0.000381694
0.000380947
0.000384639
0.000384522
0.000387633
0.000384805
0.00038468
0.0003878
0.000384838
0.00038434
0.000387764
0.000391172
0.000385186
0.000377802
0.000381068
0.000381525
0.000384572
0.000388046
0.000391832
0.000386033
0.000376101
0.000376143
0.000376381
0.000379876
0.00038333
0.000386087
0.000387699
0.000386479
0.000384324
0.000386925
0.000381537
0.000375779
0.000387002
0.000394102
0.000374313
0.000398792
0.00671445
0.00044091
0.000378694
0.000381668
0.000381632
0.000385013
0.000388556
0.000388753
0.000392125
0.000392419
0.000391305
0.000384896
0.000381305
0.000384992
0.000384837
0.000388027
0.000384962
0.000384627
0.00038154
0.000380832
0.000384544
0.000384468
0.000387646
0.000384724
0.000384368
0.000387681
0.00038798
0.000391093
0.000394696
0.000385227
0.000384168
0.000391097
0.000387626
0.000384752
0.000384516
0.000387929
0.000391552
0.000385709
0.000375739
0.000375703
0.000375833
0.000378422
0.00038155
0.000384662
0.000386381
0.000384479
0.000383784
0.000388237
0.000381061
0.000377496
0.000388658
0.000393366
0.000380716
0.000401698
0.00671445
0.000441173
0.000378942
0.000381924
0.000381886
0.000385424
0.00038896
0.00038902
0.000388848
0.000392278
0.000386799
0.000379035
0.000381636
0.000381675
0.000384902
0.000388263
0.000388418
0.000382011
0.000377912
0.000381126
0.000381245
0.000384521
0.000387666
0.000387605
0.000391087
0.000385356
0.000380866
0.000384578
0.000384269
0.000387526
0.000387952
0.000391082
0.000391433
0.000391198
0.000391556
0.000387988
0.000385291
0.000385247
0.000382632
0.000376491
0.000377085
0.000380629
0.000385418
0.000388038
0.0003908
0.000387242
0.000385552
0.000388488
0.000381795
0.000385318
0.000396817
0.000390246
0.000374812
0.000399987
0.00671439
0.000440902
0.000378692
0.000381673
0.000381633
0.00038517
0.000388695
0.000388758
0.000388604
0.000392043
0.000386575
0.000378816
0.0003814
0.000381427
0.000384792
0.00038803
0.000384954
0.00038464
0.00038154
0.000380854
0.000384554
0.000384482
0.000387614
0.000387554
0.000390954
0.00038527
0.000380792
0.000384492
0.000384213
0.000387529
0.000387877
0.000390942
0.000391305
0.000391036
0.000391366
0.000387762
0.000385025
0.000384935
0.000382279
0.000376066
0.000376552
0.000379888
0.000384399
0.000386618
0.000388176
0.000384105
0.000384387
0.000387924
0.000381412
0.000384477
0.000397011
0.000398984
0.000381108
0.000400998
0.00671442
0.000441163
0.000378934