/*--------------------------------*- C++ -*----------------------------------*\
| =========                 |                                                 |
| \\      /  F ield         | OpenFOAM: The Open Source CFD Toolbox           |
|  \\    /   O peration     | Version:  4.1                                   |
|   \\  /    A nd           | Web:      www.OpenFOAM.org                      |
|    \\/     M anipulation  |                                                 |
\*---------------------------------------------------------------------------*/
FoamFile
{
    version     2.0;
    format      ascii;
    class       volScalarField;
    location    "3";
    object      nut;
}
// * * * * * * * * * * * * * * * * * * * * * * * * * * * * * * * * * * * * * //

dimensions      [0 2 -1 0 0 0 0];

internalField   nonuniform List<scalar> 
4432
(
40.3445
34.4985
37.8684
39.7419
41.4909
41.7029
44.4668
40.7049
51.9762
61.1454
53.7134
66.1105
46.7816
56.0479
70.0727
51.6761
47.011
50.2935
54.9777
70.3308
48.7851
59.0124
60.7801
61.2512
75.4594
64.0952
52.7788
76.5376
53.1348
51.5985
44.8388
55.1371
63.9974
56.4476
69.7688
58.298
69.5375
51.113
53.7275
56.8437
56.0247
58.2077
43.8738
80.5296
96.0762
256.68
194.798
119.716
104.721
89.4813
80.8829
58.9209
37.9358
40.9668
40.2402
34.5384
37.7653
39.8262
41.0602
42.3491
42.6281
44.3173
42.9236
50.2532
62.4976
50.0749
42.7291
52.6589
64.6295
49.3248
46.9656
46.7564
52.795
67.223
47.6843
57.3473
59.2598
59.8314
73.7531
62.7834
52.2416
75.565
52.8811
51.0223
44.6015
54.6264
63.5993
56.0471
69.3972
48.8137
56.897
71.9515
49.5597
57.8642
57.0638
58.1955
44.0188
77.4196
91.9936
219.583
153.896
96.6738
86.1322
77.0678
68.548
48.6096
34.8704
40.6262
7.41549e-05
1.26777e-06
9.61767e-07
9.85999e-07
9.80227e-07
9.89237e-07
1.01453e-06
1.02062e-06
1.0369e-06
1.00086e-06
1.04125e-06
1.07342e-06
1.07935e-06
1.03946e-06
1.06751e-06
1.0976e-06
1.05794e-06
1.04695e-06
1.01841e-06
1.02359e-06
1.03623e-06
1.006e-06
1.05216e-06
1.04107e-06
1.07713e-06
1.18835e-06
1.12377e-06
1.13491e-06
1.21856e-06
1.27516e-06
1.30855e-06
1.41976e-06
1.43215e-06
1.55654e-06
1.72078e-06
1.98857e-06
2.22901e-06
2.37978e-06
2.86435e-06
3.69537e-06
4.57687e-06
5.4257e-06
6.73696e-06
1.09053e-05
1.98964e-05
3.34554e-05
8.01813e-05
0.000176984
0.00067855
0.0024102
0.0066825
0.0114589
0.0297495
0.00139798
7.41538e-05
1.26353e-06
9.57675e-07
9.7908e-07
9.72568e-07
9.8382e-07
1.00876e-06
1.01467e-06
1.02764e-06
1.02874e-06
1.04077e-06
1.07828e-06
1.05589e-06
1.02554e-06
1.055e-06
1.08249e-06
1.04742e-06
1.03769e-06
1.01143e-06
1.02201e-06
1.03198e-06
1.00402e-06
1.05022e-06
1.03945e-06
1.07653e-06
1.15274e-06
1.11317e-06
1.15335e-06
1.21002e-06
1.27518e-06
1.31009e-06
1.41946e-06
1.43112e-06
1.5511e-06
1.71258e-06
1.92076e-06
2.25135e-06
2.40947e-06
2.83154e-06
3.75394e-06
4.60989e-06
5.29093e-06
6.44898e-06
1.05e-05
1.93172e-05
3.17692e-05
7.58806e-05
0.000168837
0.000660913
0.00235295
0.00681478
0.0111816
0.0248491
0.00127511
7.39976e-05
1.17797e-06
8.55007e-07
8.5206e-07
8.51993e-07
8.62625e-07
8.78304e-07
8.76827e-07
8.74746e-07
8.81895e-07
9.12304e-07
9.0445e-07
8.69238e-07
8.8e-07
8.79453e-07
8.94466e-07
9.09958e-07
9.10397e-07
9.24495e-07
8.95654e-07
8.77465e-07
8.94081e-07
9.08468e-07
8.96852e-07
8.92594e-07
9.24315e-07
8.79924e-07
8.76258e-07
8.92829e-07
9.09101e-07
8.97083e-07
8.76589e-07
8.9395e-07
8.92207e-07
9.07692e-07
9.09325e-07
9.20388e-07
8.96017e-07
8.78525e-07
8.97175e-07
8.96193e-07
9.18839e-07
9.26552e-07
9.09476e-07
8.99499e-07
9.58302e-07
1.09137e-06
1.31549e-06
2.10514e-06
5.7467e-06
1.54576e-05
2.87087e-05
0.000295646
7.71915e-05
7.39973e-05
1.17647e-06
8.53842e-07
8.50806e-07
8.60476e-07
8.74121e-07
8.8006e-07
8.75443e-07
8.73344e-07
8.80732e-07
9.11097e-07
9.03325e-07
8.68259e-07
8.79137e-07
8.78744e-07
8.93824e-07
9.09405e-07
9.09845e-07
9.24406e-07
8.95661e-07
8.77103e-07
8.93771e-07
9.0815e-07
8.96585e-07
8.92412e-07
9.24267e-07
8.79705e-07
8.76009e-07
8.92564e-07
9.0881e-07
8.96559e-07
8.76258e-07
8.93624e-07
8.91875e-07
9.0737e-07
9.0904e-07
9.20174e-07
8.95645e-07
8.77322e-07
8.93811e-07
8.95386e-07
9.13326e-07
9.23713e-07
9.05182e-07
8.93628e-07
9.4678e-07
1.05307e-06
1.2829e-06
2.04825e-06
5.35019e-06
1.55278e-05
2.86271e-05
0.000274353
7.33621e-05
7.39973e-05
1.17795e-06
8.55012e-07
8.51926e-07
8.66761e-07
8.73342e-07
8.72332e-07
8.87838e-07
8.87906e-07
8.81848e-07
8.97551e-07
8.83983e-07
8.50682e-07
8.63993e-07
8.78831e-07
8.78868e-07
8.93414e-07
9.09679e-07
9.10877e-07
9.25332e-07
9.4199e-07
8.9845e-07
8.62931e-07
8.77041e-07
8.78774e-07
8.92101e-07
9.23062e-07
8.96998e-07
8.92182e-07
9.39579e-07
8.96586e-07
8.92544e-07
9.2505e-07
9.24172e-07
9.26227e-07
9.08197e-07
9.06192e-07
9.21888e-07
8.96339e-07
8.94303e-07
9.25824e-07
9.11396e-07
9.06391e-07
9.07026e-07
9.04366e-07
9.23709e-07
9.99091e-07
1.04841e-06
1.1682e-06
1.31168e-06
1.38745e-06
1.38949e-06
1.1753e-05
2.09061e-06
7.3997e-05
1.17646e-06
8.53848e-07
8.50763e-07
8.65523e-07
8.76561e-07
8.7605e-07
8.89099e-07
8.89218e-07
8.80727e-07
8.96385e-07
8.82652e-07
8.6409e-07
8.76873e-07
8.75487e-07
8.78616e-07
8.93367e-07
9.09227e-07
9.25522e-07
8.96125e-07
8.92584e-07
9.25911e-07
8.80297e-07
8.76452e-07
8.93479e-07
8.92119e-07
9.22795e-07
8.96748e-07
8.91935e-07
9.23989e-07
9.07028e-07
8.93688e-07
8.92646e-07
9.0883e-07
9.11108e-07
9.07786e-07
9.05881e-07
9.21381e-07
8.96488e-07
8.92948e-07
9.25305e-07
9.09956e-07
9.04645e-07
9.04063e-07
9.0007e-07
9.07915e-07
9.82446e-07
1.01396e-06
1.15125e-06
1.38767e-06
1.2873e-06
2.67148e-06
1.16471e-05
2.0686e-06
7.39974e-05
1.17798e-06
8.55023e-07
8.51967e-07
8.62733e-07
8.7829e-07
8.77325e-07
8.75574e-07
8.81508e-07
8.97434e-07
8.83626e-07
8.64818e-07
8.77031e-07
8.76085e-07
8.85693e-07
9.16094e-07
9.01905e-07
8.66451e-07
8.77767e-07
8.78392e-07
8.94013e-07
8.80343e-07
8.6268e-07
8.7751e-07
8.78928e-07
8.79836e-07
8.93516e-07
9.23907e-07
8.97135e-07
8.77157e-07
8.94346e-07
9.09482e-07
8.97158e-07
8.7725e-07
8.93936e-07
8.80153e-07
8.88798e-07
9.02336e-07
9.23317e-07
8.99526e-07
8.98628e-07
9.29017e-07
9.34786e-07
9.38493e-07
9.07694e-07
9.28267e-07
9.65437e-07
9.95537e-07
1.0652e-06
1.12298e-06
1.04302e-06
8.24423e-07
1.4735e-06
1.02191e-06
7.39971e-05
1.17647e-06
8.53713e-07
8.66069e-07
8.8254e-07
8.82335e-07
8.74536e-07
8.72689e-07
8.80712e-07
8.96231e-07
8.82063e-07
8.63938e-07
8.77013e-07
8.75614e-07
8.87018e-07
9.17815e-07
9.00422e-07
8.6628e-07
8.78133e-07
8.78385e-07
8.93669e-07
8.79481e-07
8.61902e-07
8.7647e-07
8.78608e-07
8.9295e-07
9.08815e-07
9.25348e-07
8.97866e-07
8.77592e-07
8.93768e-07
9.09046e-07
8.96862e-07
8.77175e-07
8.93311e-07
8.80275e-07
8.89468e-07
9.02203e-07
9.22532e-07
8.98529e-07
8.97116e-07
9.26561e-07
9.31109e-07
9.33106e-07
9.00598e-07
9.10197e-07
9.59732e-07
1.00218e-06
1.0371e-06
9.94006e-07
8.70674e-07
1.06847e-06
1.49756e-06
1.02543e-06
7.39974e-05
1.17785e-06
8.70272e-07
8.79307e-07
8.77769e-07
8.81972e-07
8.97806e-07
9.14477e-07
9.14332e-07
9.14747e-07
8.84013e-07
8.64818e-07
8.80856e-07
8.81117e-07
9.11182e-07
8.99191e-07
8.78582e-07
8.94659e-07
8.93822e-07
9.08231e-07
8.95207e-07
8.93784e-07
9.09016e-07
9.26034e-07
8.97673e-07
8.76697e-07
8.93504e-07
8.93408e-07
9.07326e-07
8.94127e-07
8.93876e-07
9.09378e-07
9.26678e-07
8.98861e-07
8.77196e-07
8.94879e-07
8.81805e-07
8.93485e-07
9.26053e-07
8.99735e-07
8.98893e-07
9.29267e-07
9.15864e-07
9.10774e-07
9.16744e-07
9.20821e-07
9.24395e-07
9.78017e-07
9.76516e-07
9.10811e-07
9.29248e-07
8.29387e-07
8.44937e-07
9.30736e-07
7.39971e-05
1.17634e-06
8.69057e-07
8.76623e-07
8.74877e-07
8.81168e-07
8.97291e-07
9.13537e-07
8.9757e-07
8.9638e-07
8.82492e-07
8.6376e-07
8.78984e-07
8.78796e-07
9.10222e-07
8.98731e-07
8.77963e-07
8.94096e-07
8.93252e-07
9.07745e-07
8.94859e-07
8.93487e-07
9.08765e-07
9.25891e-07
8.97374e-07
8.76455e-07
8.93523e-07
8.93309e-07
9.07073e-07
8.94316e-07
8.9377e-07
9.0954e-07
9.25887e-07
8.98144e-07
8.76857e-07
8.94547e-07
8.81434e-07
8.93126e-07
9.25597e-07
8.99115e-07
8.97906e-07
9.2762e-07
9.13385e-07
9.07395e-07
9.1671e-07
9.14687e-07
9.00022e-07
9.16414e-07
9.11893e-07
8.5353e-07
8.94726e-07
8.87932e-07
8.70534e-07
9.35967e-07
7.39975e-05
1.17791e-06
8.70318e-07
8.81158e-07
8.80043e-07
8.81971e-07
8.97801e-07
8.84841e-07
8.66133e-07
8.79514e-07
8.79856e-07
8.8138e-07
8.96279e-07
9.11985e-07
9.12279e-07
9.11565e-07
9.10307e-07
9.10837e-07
9.25988e-07
9.26274e-07
9.25015e-07
9.26445e-07
9.25423e-07
9.42346e-07
8.98806e-07
8.49247e-07
8.62303e-07
8.77587e-07
8.78372e-07
8.93014e-07
8.80742e-07
8.78124e-07
8.95177e-07
8.93468e-07
9.09867e-07
9.27276e-07
8.99609e-07
8.94908e-07
9.28263e-07
9.29821e-07
9.49439e-07
9.09687e-07
8.89173e-07
9.09593e-07
9.184e-07
9.13988e-07
9.00839e-07
9.21368e-07
9.13452e-07
8.56398e-07
8.96728e-07
8.89304e-07
7.95074e-07
9.29614e-07
7.39971e-05
1.17637e-06
8.69089e-07
8.78071e-07
8.76535e-07
8.81158e-07
8.97292e-07
8.83507e-07
8.64521e-07
8.73702e-07
8.73114e-07
8.8029e-07
8.95182e-07
9.10885e-07
9.11236e-07
9.10698e-07
9.09633e-07
9.10244e-07
9.25559e-07
9.26055e-07
8.80354e-07
8.76597e-07
8.93447e-07
9.09014e-07
9.00381e-07
8.65451e-07
8.76873e-07
8.77998e-07
8.93454e-07
8.80231e-07
8.68554e-07
8.83385e-07
8.80159e-07
8.92942e-07
9.09412e-07
9.26539e-07
8.98791e-07
8.93972e-07
9.27058e-07
9.28258e-07
9.47235e-07
9.06804e-07
8.85289e-07
9.03235e-07
9.16015e-07
9.09108e-07
8.79333e-07
8.74029e-07
8.61773e-07
8.49281e-07
9.42392e-07
9.08374e-07
7.89898e-07
9.32969e-07
7.39974e-05
1.1781e-06
8.55099e-07
8.52072e-07
8.58733e-07
8.73715e-07
8.77389e-07
8.75889e-07
8.81434e-07
8.97747e-07
8.84136e-07
8.80284e-07
8.97787e-07
8.96272e-07
8.9706e-07
8.86263e-07
8.94551e-07
9.0262e-07
9.08682e-07
9.25084e-07
8.97091e-07
8.92855e-07
9.25837e-07
9.25986e-07
9.27817e-07
9.25985e-07
9.26645e-07
9.24091e-07
9.26096e-07
9.25125e-07
9.254e-07
9.25599e-07
9.27473e-07
9.09123e-07
8.95542e-07
8.94878e-07
9.11173e-07
9.13694e-07
8.98267e-07
8.88437e-07
9.03388e-07
9.33169e-07
9.10501e-07
9.0475e-07
9.46095e-07
8.96739e-07
8.81931e-07
8.6907e-07
8.7327e-07
8.55444e-07
9.05111e-07
8.91512e-07
8.01286e-07
9.34418e-07
7.39971e-05
1.17655e-06
8.53902e-07
8.50815e-07
8.64169e-07
8.79781e-07
8.74564e-07
8.72818e-07
8.80268e-07
8.96589e-07
8.83033e-07
8.79203e-07
8.96679e-07
8.95155e-07
9.10801e-07
9.11168e-07
9.06407e-07
9.04331e-07
9.08553e-07
9.24609e-07
8.96814e-07
8.92132e-07
9.248e-07
9.25207e-07
9.26995e-07
9.25167e-07
9.2655e-07
9.087e-07
9.08231e-07
9.24079e-07
8.96533e-07
8.92821e-07
9.26181e-07
9.08677e-07
8.95081e-07
8.94379e-07
9.10608e-07
9.13055e-07
8.97534e-07
8.87451e-07
9.02017e-07
9.31183e-07
9.07833e-07
9.00155e-07
9.40866e-07
9.01522e-07
8.68573e-07
8.69933e-07
8.68683e-07
8.81582e-07
9.55593e-07
8.76602e-07
8.04133e-07
9.37811e-07
7.39975e-05
1.17814e-06
8.55122e-07
8.52108e-07
8.55983e-07
8.70808e-07
8.77335e-07
8.76098e-07
8.81512e-07
8.9645e-07
8.83951e-07
8.65628e-07
8.80193e-07
8.8126e-07
8.96449e-07
9.11355e-07
9.11115e-07
8.96439e-07
8.79432e-07
8.93811e-07
9.25022e-07
8.96425e-07
8.9222e-07
9.25486e-07
9.27642e-07
9.2973e-07
9.27563e-07
9.43421e-07
8.98464e-07
8.93673e-07
9.25712e-07
9.09974e-07
8.96952e-07
8.96382e-07
8.81443e-07
8.78481e-07
8.95906e-07
8.83616e-07
8.84167e-07
8.97954e-07
9.12468e-07
9.32905e-07
9.10438e-07
9.04744e-07
9.46498e-07
8.98537e-07
8.82788e-07
8.64843e-07
8.71836e-07
8.91445e-07
9.28395e-07
8.8794e-07
8.12965e-07
9.37399e-07
7.39972e-05
1.17658e-06
8.53913e-07
8.50859e-07
8.60374e-07
8.75576e-07
8.74374e-07
8.72311e-07
8.80256e-07
8.95724e-07
8.82857e-07
8.64578e-07
8.79097e-07
8.80126e-07
8.95284e-07
9.10333e-07
9.10357e-07
8.9571e-07
8.93659e-07
9.24416e-07
8.96307e-07
8.91668e-07
9.4145e-07
8.98e-07
8.93876e-07
9.26681e-07
8.81841e-07
8.63723e-07
8.79179e-07
8.80189e-07
9.09276e-07
8.96514e-07
8.93723e-07
9.2663e-07
8.81169e-07
8.77667e-07
8.949e-07
8.82505e-07
8.82861e-07
8.96292e-07
9.10286e-07
9.29906e-07
9.06681e-07
8.99709e-07
9.39688e-07
8.9616e-07
8.55394e-07
8.69616e-07
8.93844e-07
9.11291e-07
9.46746e-07
8.92238e-07
8.29778e-07
9.48053e-07
7.39975e-05
1.17817e-06
8.55142e-07
8.5216e-07
8.51771e-07
8.51382e-07
8.50574e-07
8.50658e-07
8.50596e-07
8.49471e-07
8.64005e-07
8.81086e-07
8.8173e-07
8.96739e-07
9.12631e-07
9.12956e-07
9.11238e-07
9.26343e-07
8.96857e-07
8.93123e-07
9.2619e-07
9.25211e-07
9.27082e-07
9.26276e-07
9.30133e-07
9.30548e-07
9.29949e-07
9.10501e-07
9.06204e-07
9.05949e-07
9.24455e-07
8.98727e-07
8.78243e-07
8.94621e-07
9.09177e-07
8.9787e-07
8.94227e-07
9.27692e-07
9.00074e-07
8.84518e-07
8.98705e-07
9.30998e-07
9.07719e-07
9.03352e-07
9.39937e-07
8.93007e-07
8.68899e-07
8.60737e-07
8.67701e-07
9.0785e-07
9.32881e-07
8.78865e-07
8.2899e-07
9.44103e-07
7.39972e-05
1.1766e-06
8.53922e-07
8.5096e-07
8.50558e-07
8.50173e-07
8.49387e-07
8.49386e-07
8.51544e-07
8.65323e-07
8.77958e-07
8.78491e-07
8.80838e-07
8.95536e-07
9.10665e-07
9.11041e-07
9.10408e-07
9.25191e-07
8.96389e-07
8.91899e-07
9.25033e-07
9.24929e-07
9.26384e-07
9.26669e-07
9.29114e-07
9.29505e-07
9.29056e-07
9.25683e-07
9.27083e-07
9.2489e-07
9.41244e-07
8.98349e-07
8.78285e-07
8.95373e-07
9.09476e-07
8.97605e-07
8.93804e-07
9.26865e-07
8.99169e-07
8.83465e-07
8.97278e-07
9.29018e-07
9.05266e-07
9.00084e-07
9.35913e-07
8.89232e-07
8.5364e-07
8.76094e-07
8.97026e-07
9.10607e-07
9.37584e-07
8.91849e-07
8.33433e-07
9.43135e-07
7.39975e-05
1.17819e-06
8.55159e-07
8.52181e-07
8.51775e-07
8.51386e-07
8.51351e-07
8.50518e-07
8.4991e-07
8.64861e-07
8.80292e-07
8.81105e-07
9.12837e-07
9.04513e-07
8.69029e-07
8.80372e-07
8.95994e-07
9.11378e-07
9.10431e-07
9.2536e-07
8.97845e-07
8.93665e-07
9.27446e-07
9.28667e-07
9.33506e-07
9.333e-07
9.31633e-07
8.9743e-07
8.9416e-07
9.08287e-07
9.08459e-07
9.10559e-07
9.25023e-07
9.27204e-07
9.245e-07
8.9664e-07
8.79298e-07
8.97686e-07
8.84358e-07
8.98182e-07
9.3124e-07
9.04842e-07
8.8671e-07
9.061e-07
9.22743e-07
9.10005e-07
8.54506e-07
8.68178e-07
8.95206e-07
9.15156e-07
9.21427e-07
8.87837e-07
8.3123e-07
9.40824e-07
7.39972e-05
1.17661e-06
8.53922e-07
8.50951e-07
8.50553e-07
8.50175e-07
8.50163e-07
8.49229e-07
8.636e-07
8.76538e-07
8.75214e-07
8.80047e-07
9.11665e-07
9.03286e-07
8.67849e-07
8.79398e-07
8.79348e-07
8.93498e-07
9.09224e-07
9.25461e-07
8.97916e-07
8.92818e-07
9.27646e-07
9.27738e-07
9.33761e-07
9.30633e-07
9.3031e-07
8.97174e-07
8.9509e-07
9.24799e-07
8.98227e-07
8.78362e-07
8.94776e-07
8.93642e-07
9.23676e-07
8.98004e-07
8.78466e-07
8.96602e-07
8.83084e-07
8.96671e-07
9.29253e-07
9.02402e-07
8.8374e-07
9.01913e-07
9.1745e-07
9.05914e-07
8.54236e-07
8.53801e-07
8.56378e-07
8.63345e-07
8.96217e-07
8.97457e-07
8.31267e-07
9.43263e-07
7.39975e-05
1.17818e-06
8.5515e-07
8.51785e-07
8.51376e-07
8.50597e-07
8.50626e-07
8.5058e-07
8.4949e-07
8.64816e-07
8.81102e-07
8.80306e-07
9.12442e-07
9.01035e-07
8.9592e-07
9.28729e-07
8.83335e-07
8.78641e-07
8.94493e-07
9.08725e-07
8.95995e-07
8.77649e-07
8.97107e-07
8.95143e-07
9.32092e-07
9.07173e-07
8.98927e-07
9.42887e-07
9.43357e-07
8.98829e-07
8.93537e-07
9.26354e-07
9.24673e-07
8.96545e-07
8.93826e-07
9.25464e-07
9.10197e-07
8.9829e-07
8.829e-07
8.97358e-07
9.30014e-07
9.02577e-07
9.00442e-07
9.34283e-07
8.87393e-07
8.81467e-07
9.14074e-07
8.94869e-07
8.58596e-07
8.3721e-07
8.79184e-07
8.95044e-07
8.34818e-07
9.43076e-07
7.39972e-05
1.17661e-06
8.53937e-07
8.50566e-07
8.50165e-07
8.49794e-07
8.49389e-07
8.49238e-07
8.63578e-07
8.76318e-07
8.75778e-07
8.79513e-07
8.95503e-07
9.28797e-07
9.03418e-07
8.67355e-07
8.79113e-07
8.79211e-07
8.93047e-07
9.08292e-07
9.08575e-07
9.09717e-07
9.10102e-07
9.32924e-07
9.03718e-07
8.98296e-07
9.29861e-07
9.27616e-07
9.42711e-07
8.98147e-07
8.77465e-07
8.94477e-07
9.09416e-07
8.97553e-07
8.93217e-07
9.25078e-07
9.09624e-07
8.97963e-07
8.82453e-07
8.96198e-07
9.28522e-07
9.00785e-07
8.98254e-07
9.3164e-07
8.8502e-07
8.66744e-07
8.70758e-07
8.78227e-07
8.75743e-07
8.43066e-07
8.8507e-07
8.99684e-07
8.39317e-07
9.45861e-07
7.39975e-05
1.17696e-06
8.8494e-07
9.0009e-07
8.98323e-07
9.14706e-07
9.30757e-07
9.02048e-07
8.51711e-07
8.50572e-07
8.63947e-07
8.81052e-07
8.81428e-07
8.95277e-07
9.11933e-07
9.13447e-07
9.2768e-07
9.2797e-07
9.22883e-07
8.94582e-07
8.79151e-07
8.97462e-07
9.17055e-07
9.09474e-07
9.04346e-07
9.51211e-07
9.03346e-07
8.94768e-07
9.41472e-07
8.98972e-07
8.63603e-07
8.78791e-07
8.8062e-07
8.94406e-07
9.10255e-07
9.11965e-07
9.10348e-07
8.9683e-07
8.95754e-07
9.11928e-07
9.30186e-07
9.03342e-07
8.83154e-07
9.00176e-07
8.98306e-07
9.11313e-07
8.95778e-07
8.99871e-07
8.85314e-07
8.37317e-07
8.8113e-07
9.00722e-07
8.37847e-07
9.43904e-07
7.39972e-05
1.17539e-06
8.83681e-07
8.98804e-07
8.96992e-07
9.13344e-07
9.2943e-07
9.00805e-07
8.50468e-07
8.64202e-07
8.76559e-07
8.76981e-07
8.80514e-07
8.94525e-07
9.27827e-07
9.0006e-07
8.79011e-07
8.954e-07
8.9418e-07
9.08268e-07
8.96797e-07
8.81603e-07
8.89446e-07
9.05704e-07
9.31015e-07
9.04633e-07
8.82353e-07
8.94627e-07
9.08204e-07
8.98537e-07
8.66088e-07
8.78574e-07
8.80324e-07
8.93721e-07
9.09257e-07
9.10366e-07
9.25681e-07
9.44073e-07
8.99672e-07
8.95332e-07
9.4393e-07
9.01624e-07
8.80874e-07
8.97537e-07
8.95888e-07
9.11321e-07
8.96231e-07
9.01795e-07
8.88197e-07
8.40038e-07
8.84994e-07
9.04382e-07
8.41738e-07
9.46529e-07
7.39955e-05
1.19632e-06
8.83032e-07
8.81315e-07
8.98313e-07
8.98961e-07
9.13686e-07
9.01876e-07
8.97247e-07
9.468e-07
9.02163e-07
8.80692e-07
8.97946e-07
8.9632e-07
9.11245e-07
9.1342e-07
9.29062e-07
9.29496e-07
9.11243e-07
9.09901e-07
9.2804e-07
9.04842e-07
8.83058e-07
9.51191e-07
9.76373e-07
9.47444e-07
9.64231e-07
9.14451e-07
8.96711e-07
8.8547e-07
8.95847e-07
9.30342e-07
9.30148e-07
9.47434e-07
9.02114e-07
8.51163e-07
8.64168e-07
8.76982e-07
8.77441e-07
8.81594e-07
8.96657e-07
8.83665e-07
8.80957e-07
8.97814e-07
8.94335e-07
9.09867e-07
9.15591e-07
8.84189e-07
8.4279e-07
8.36566e-07
8.83614e-07
9.01266e-07
8.35905e-07
9.44048e-07
7.39972e-05
1.17498e-06
8.67439e-07
8.76325e-07
8.75034e-07
8.80439e-07
9.11791e-07
9.00646e-07
8.95659e-07
9.28876e-07
8.83427e-07
8.79604e-07
8.9654e-07
9.10986e-07
8.99756e-07
8.79814e-07
8.95196e-07
8.95156e-07
9.09439e-07
8.95279e-07
8.94812e-07
9.12335e-07
9.08962e-07
9.95604e-07
1.01279e-06
9.46335e-07
9.67887e-07
9.13222e-07
8.95433e-07
9.11776e-07
9.12726e-07
9.12815e-07
9.29258e-07
9.46512e-07
9.01414e-07
8.64991e-07
8.79858e-07
8.79995e-07
8.95448e-07
9.11717e-07
9.12114e-07
8.82946e-07
8.79485e-07
8.961e-07
8.94257e-07
9.09852e-07
9.15635e-07
8.85432e-07
8.44015e-07
8.39009e-07
8.85688e-07
9.06062e-07
8.41456e-07
9.46818e-07
7.39975e-05
1.17622e-06
8.84514e-07
8.99634e-07
8.98711e-07
9.15096e-07
9.30274e-07
9.02865e-07
8.81642e-07
8.97935e-07
8.96571e-07
9.13101e-07
9.14076e-07
9.28732e-07
9.46643e-07
9.03367e-07
8.52988e-07
8.65437e-07
8.80361e-07
8.8084e-07
8.88264e-07
8.99672e-07
9.15996e-07
1.2502e-06
0.00102361
9.85709e-07
8.90833e-07
8.81399e-07
8.91785e-07
8.80883e-07
8.95654e-07
9.09646e-07
9.26884e-07
9.04234e-07
8.548e-07
8.6346e-07
8.79414e-07
8.81272e-07
9.11879e-07
8.99635e-07
8.94862e-07
9.29502e-07
9.29685e-07
9.2986e-07
9.2681e-07
9.3032e-07
9.31246e-07
8.98146e-07
8.87485e-07
9.02432e-07
9.08471e-07
9.25789e-07
9.44632e-07
1.06995e-06
7.41027e-05
1.20184e-06
8.82537e-07
8.98526e-07
9.13949e-07
9.00821e-07
8.96186e-07
9.31391e-07
8.98297e-07
8.96057e-07
9.12792e-07
8.81988e-07
8.78849e-07
8.96343e-07
8.95444e-07
9.10779e-07
9.10782e-07
9.08745e-07
9.06729e-07
9.0956e-07
8.97256e-07
9.00128e-07
9.74571e-07
1.09392e-06
0.00126506
9.11797e-07
8.88543e-07
8.93449e-07
8.80134e-07
8.92581e-07
9.0972e-07
9.11616e-07
8.96436e-07
8.95079e-07
9.25737e-07
8.99207e-07
8.78921e-07
8.94865e-07
8.94478e-07
9.10651e-07
9.12625e-07
9.27162e-07
9.28574e-07
9.26613e-07
9.28068e-07
9.29176e-07
9.33873e-07
9.39552e-07
9.52424e-07
9.68136e-07
1.00988e-06
9.3284e-07
9.18379e-07
1.07243e-06
7.41273e-05
1.22578e-06
8.72864e-07
8.67246e-07
8.82903e-07
8.82448e-07
9.13471e-07
9.01833e-07
8.96766e-07
9.30069e-07
8.8453e-07
8.80317e-07
8.9675e-07
8.96248e-07
9.11969e-07
9.12831e-07
9.28427e-07
9.45319e-07
9.00414e-07
8.7963e-07
8.99558e-07
8.94066e-07
9.88769e-07
4.29932e-07
2.55602e-06
8.85004e-07
8.94421e-07
8.82704e-07
8.93803e-07
9.109e-07
9.30007e-07
9.01497e-07
8.96779e-07
9.28585e-07
9.2774e-07
9.43848e-07
9.00896e-07
8.80529e-07
8.97301e-07
8.96928e-07
9.13032e-07
9.14887e-07
9.28823e-07
9.2947e-07
9.12352e-07
9.1701e-07
9.37903e-07
9.06096e-07
8.95072e-07
9.12874e-07
9.18282e-07
9.44748e-07
9.68211e-07
7.40192e-05
1.21578e-06
9.34845e-07
9.01876e-07
8.96642e-07
9.48201e-07
9.01851e-07
8.50457e-07
8.64313e-07
8.79443e-07
8.79548e-07
8.96308e-07
8.82534e-07
8.786e-07
9.10641e-07
9.10938e-07
9.10129e-07
9.25895e-07
8.99188e-07
8.94484e-07
9.28206e-07
9.18063e-07
1.11136e-06
3.35999e-08
3.71207e-06
8.98772e-07
8.67353e-07
8.79143e-07
8.95546e-07
8.82182e-07
8.95629e-07
8.96205e-07
8.95797e-07
9.11924e-07
9.11678e-07
9.09915e-07
9.09712e-07
9.09338e-07
9.09423e-07
9.10805e-07
9.11283e-07
9.2783e-07
9.02721e-07
8.53371e-07
8.48139e-07
8.65266e-07
8.73697e-07
8.82748e-07
9.19207e-07
9.04072e-07
8.60188e-07
9.3421e-07
1.07367e-06
7.39952e-05
1.19854e-06
8.86963e-07
8.99282e-07
9.16694e-07
8.85137e-07
8.81267e-07
8.99859e-07
8.98267e-07
9.13889e-07
9.29594e-07
9.01016e-07
8.95436e-07
9.30332e-07
9.30176e-07
9.29762e-07
9.27903e-07
9.44829e-07
9.44466e-07
8.99649e-07
8.95544e-07
9.27881e-07
8.96445e-07
9.7938e-07
1.98446e-06
9.06938e-07
8.80546e-07
8.82988e-07
8.95889e-07
8.80431e-07
8.97403e-07
9.14288e-07
9.15233e-07
9.15461e-07
9.30816e-07
9.32008e-07
9.29979e-07
9.46073e-07
9.01627e-07
8.97347e-07
9.3076e-07
9.30736e-07
9.31971e-07
9.31273e-07
8.97751e-07
8.9348e-07
9.36418e-07
8.87827e-07
8.46202e-07
8.44971e-07
8.91789e-07
9.12896e-07
8.44062e-07
9.49167e-07
7.39949e-05
1.19698e-06
8.85743e-07
8.98033e-07
9.15426e-07
8.83925e-07
8.80082e-07
8.98625e-07
8.96978e-07
9.13018e-07
9.28912e-07
9.00584e-07
8.64317e-07
8.80096e-07
8.80476e-07
8.94057e-07
9.10591e-07
9.26966e-07
8.99014e-07
8.79202e-07
8.95226e-07
8.82577e-07
8.92782e-07
1.04762e-06
1.76609e-06
9.01872e-07
9.13484e-07
9.2533e-07
9.34226e-07
9.09671e-07
9.0568e-07
9.22538e-07
8.83386e-07
8.79065e-07
8.96639e-07
8.9534e-07
9.11583e-07
9.12225e-07
9.11959e-07
8.98325e-07
8.97e-07
9.13793e-07
9.14781e-07
9.29185e-07
9.00383e-07
8.5293e-07
8.64145e-07
8.83776e-07
8.99343e-07
8.84935e-07
8.9704e-07
9.15404e-07
8.47276e-07
9.51748e-07
7.39974e-05
1.17677e-06
8.84828e-07
8.99991e-07
8.98235e-07
9.1484e-07
9.14905e-07
9.27446e-07
8.98241e-07
8.97361e-07
9.31577e-07
9.14655e-07
8.98884e-07
8.96328e-07
9.29307e-07
9.01729e-07
8.96146e-07
9.44227e-07
8.99537e-07
8.79145e-07
8.96253e-07
8.81059e-07
8.95771e-07
9.19255e-07
9.21211e-07
9.34906e-07
9.27876e-07
9.0708e-07
8.94756e-07
9.09071e-07
9.26339e-07
9.09664e-07
8.95523e-07
8.9415e-07
9.09437e-07
9.11904e-07
9.26104e-07
9.27079e-07
9.09493e-07
8.96549e-07
8.97501e-07
8.85577e-07
8.83827e-07
9.02372e-07
9.00129e-07
8.83199e-07
8.66933e-07
8.97089e-07
9.02729e-07
8.80857e-07
8.90023e-07
9.08568e-07
8.39774e-07
9.47051e-07
7.3997e-05
1.17524e-06
8.83615e-07
8.98759e-07
8.9696e-07
9.13535e-07
9.13678e-07
9.26334e-07
8.97223e-07
8.96276e-07
9.30479e-07
9.13575e-07
8.97322e-07
8.95785e-07
9.11456e-07
9.11488e-07
9.26679e-07
9.42481e-07
8.98213e-07
8.93179e-07
9.25763e-07
9.24558e-07
9.46341e-07
9.04275e-07
9.02817e-07
9.37757e-07
9.31503e-07
9.42683e-07
8.98517e-07
8.93298e-07
9.25478e-07
9.09291e-07
8.94636e-07
8.94573e-07
9.08594e-07
8.95703e-07
8.94319e-07
9.2542e-07
8.98346e-07
8.93479e-07
9.26941e-07
8.83469e-07
8.81848e-07
8.97798e-07
8.97794e-07
8.85798e-07
8.47039e-07
8.64807e-07
8.7116e-07
8.52456e-07
8.93823e-07
9.18674e-07
8.47244e-07
9.50077e-07
7.39972e-05
1.17774e-06
8.70113e-07
8.83386e-07
8.8277e-07
8.98819e-07
9.14866e-07
9.16034e-07
9.16138e-07
9.1585e-07
9.15269e-07
9.27275e-07
9.00787e-07
8.69409e-07
8.8133e-07
8.80481e-07
9.11611e-07
8.99704e-07
8.78e-07
8.95465e-07
9.10139e-07
8.96626e-07
8.94824e-07
9.46668e-07
9.05707e-07
8.81982e-07
8.98877e-07
9.12041e-07
8.96995e-07
8.93473e-07
9.42188e-07
8.9783e-07
8.77438e-07
8.9493e-07
8.94221e-07
9.24881e-07
9.0245e-07
8.67549e-07
8.79307e-07
8.95367e-07
8.96478e-07
8.95813e-07
9.01735e-07
9.02799e-07
8.90003e-07
8.70215e-07
8.76657e-07
8.93036e-07
8.87444e-07
8.54952e-07
8.95779e-07
9.21476e-07
8.41658e-07
9.47094e-07
7.39969e-05
1.17627e-06
8.68943e-07
8.82194e-07
8.81579e-07
8.97612e-07
9.13648e-07
9.14834e-07
9.14973e-07
9.14727e-07
9.14176e-07
9.26092e-07
8.99431e-07
8.68536e-07
8.80467e-07
8.79993e-07
9.10007e-07
8.9864e-07
8.78455e-07
8.94134e-07
8.92952e-07
9.09012e-07
8.96458e-07
9.11729e-07
9.3105e-07
8.99027e-07
8.80534e-07
8.94382e-07
9.25614e-07
8.97096e-07
8.92799e-07
9.24154e-07
9.08134e-07
8.94998e-07
8.93822e-07
9.24659e-07
9.01447e-07
8.6665e-07
8.78288e-07
8.94163e-07
8.81985e-07
8.78865e-07
8.98577e-07
8.84091e-07
9.00919e-07
8.8691e-07
8.72131e-07
9.06524e-07
8.85596e-07
8.56754e-07
9.00197e-07
9.32928e-07
8.4802e-07
9.50236e-07
7.39972e-05
1.1777e-06
8.7003e-07
8.83296e-07
8.82728e-07
8.98655e-07
9.15273e-07
9.14994e-07
9.3144e-07
9.33606e-07
9.27539e-07
8.97013e-07
8.80344e-07
8.97564e-07
8.97075e-07
9.12352e-07
9.1311e-07
9.12213e-07
9.11143e-07
9.10608e-07
8.94968e-07
8.92718e-07
9.08765e-07
9.27198e-07
9.01345e-07
8.80879e-07
9.108e-07
9.11084e-07
9.09195e-07
9.0859e-07
9.25929e-07
8.97172e-07
8.92831e-07
9.42176e-07
8.99539e-07
8.94575e-07
9.43182e-07
9.01169e-07
8.53526e-07
8.53445e-07
8.67458e-07
8.80537e-07
8.8407e-07
8.92436e-07
8.97232e-07
9.07946e-07
8.91643e-07
8.60667e-07
8.50825e-07
8.45696e-07
9.05661e-07
9.22654e-07
8.39236e-07
9.4881e-07
7.39969e-05
1.17621e-06
8.68869e-07
8.82118e-07
8.81656e-07
8.97511e-07
9.14038e-07
9.13787e-07
9.30269e-07
9.32408e-07
9.26636e-07
8.96232e-07
8.79259e-07
8.95959e-07
8.95395e-07
9.11113e-07
9.1185e-07
9.11097e-07
9.10312e-07
9.1066e-07
8.80774e-07
8.77881e-07
8.93878e-07
9.11226e-07
9.00787e-07
8.79103e-07
8.93719e-07
8.88736e-07
9.02428e-07
9.0662e-07
9.25712e-07
8.96792e-07
8.92375e-07
9.41514e-07
8.98785e-07
8.93678e-07
9.42076e-07
8.99986e-07
8.52277e-07
8.5203e-07
8.65454e-07
8.77045e-07
8.79726e-07
8.88869e-07
8.93766e-07
8.9916e-07
8.85869e-07
8.61793e-07
8.5303e-07
8.60148e-07
9.14409e-07
9.42711e-07
8.50173e-07
9.52308e-07
7.3997e-05
1.17762e-06
8.69573e-07
8.82867e-07
8.82242e-07
8.98078e-07
9.14696e-07
9.14475e-07
9.30479e-07
9.33179e-07
9.27623e-07
8.96733e-07
8.96229e-07
9.29603e-07
9.12771e-07
9.13251e-07
9.1097e-07
9.08595e-07
9.11003e-07
9.10579e-07
9.26069e-07
8.98002e-07
8.9355e-07
9.42577e-07
9.00455e-07
8.7962e-07
8.95611e-07
9.10496e-07
8.97554e-07
8.92717e-07
9.25827e-07
9.25427e-07
8.96445e-07
8.93103e-07
9.41626e-07
8.99242e-07
8.95434e-07
9.27789e-07
8.84446e-07
8.54662e-07
8.66815e-07
8.82225e-07
8.84507e-07
8.95451e-07
9.03874e-07
8.9793e-07
8.90121e-07
9.01701e-07
8.82753e-07
8.55987e-07
8.9721e-07
9.28326e-07
8.4745e-07
9.52405e-07
7.39967e-05
1.17618e-06
8.68425e-07
8.81699e-07
8.81075e-07
8.96839e-07
9.13469e-07
9.1379e-07
9.29789e-07
9.3199e-07
9.26818e-07
8.95579e-07
8.94694e-07
9.28341e-07
9.119e-07
8.97071e-07
8.95189e-07
9.09301e-07
9.09792e-07
9.09898e-07
9.25709e-07
8.97889e-07
8.93031e-07
9.43059e-07
8.9969e-07
8.79207e-07
8.95348e-07
9.10013e-07
8.96902e-07
8.91956e-07
9.25731e-07
9.24585e-07
8.95417e-07
8.9249e-07
9.40842e-07
8.98372e-07
8.94458e-07
9.26628e-07
8.83216e-07
8.53335e-07
8.64865e-07
8.80075e-07
8.81475e-07
8.91582e-07
8.92877e-07
8.92313e-07
9.09568e-07
8.9477e-07
8.60372e-07
8.52267e-07
9.18751e-07
9.53626e-07
8.67267e-07
9.63613e-07
7.39971e-05
1.17758e-06
8.6953e-07
8.82851e-07
8.82237e-07
8.97992e-07
9.14608e-07
9.1449e-07
9.30477e-07
9.33157e-07
9.27519e-07
8.96591e-07
8.80687e-07
8.97873e-07
8.96352e-07
9.11788e-07
8.9772e-07
8.95915e-07
8.81309e-07
8.77229e-07
8.95117e-07
8.9499e-07
9.08713e-07
8.95888e-07
8.95303e-07
9.1004e-07
8.96195e-07
8.92913e-07
9.09711e-07
9.2578e-07
8.96487e-07
8.62856e-07
8.7783e-07
8.80661e-07
8.94777e-07
9.09808e-07
9.28823e-07
9.01536e-07
8.55344e-07
8.55509e-07
8.56626e-07
8.72541e-07
8.87935e-07
9.01525e-07
9.09113e-07
9.03434e-07
8.93903e-07
9.0557e-07
8.8115e-07
8.55267e-07
9.06675e-07
9.38112e-07
8.46767e-07
9.5899e-07
7.39968e-05
1.17612e-06
8.68389e-07
8.81669e-07
8.81084e-07
8.96768e-07
9.1336e-07
9.1385e-07
9.29798e-07
9.32058e-07
9.26776e-07
8.95847e-07
8.79624e-07
8.96725e-07
8.952e-07
9.10313e-07
8.96788e-07
8.95444e-07
8.80739e-07
8.76699e-07
8.94679e-07
8.94739e-07
9.08785e-07
8.95516e-07
8.93843e-07
9.08487e-07
9.10325e-07
9.25169e-07
9.4191e-07
8.97536e-07
8.92175e-07
9.24731e-07
9.08405e-07
8.95646e-07
8.94542e-07
9.09284e-07
9.27531e-07
9.00062e-07
8.53741e-07
8.53559e-07
8.54196e-07
8.65958e-07
8.79825e-07
8.95053e-07
9.03284e-07
8.94515e-07
8.91462e-07
9.1147e-07
8.79088e-07
8.62645e-07
9.14965e-07
9.34925e-07
8.75781e-07
9.72965e-07
7.3997e-05
1.17749e-06
8.69501e-07
8.82823e-07
8.82229e-07
8.98603e-07
9.15186e-07
9.15094e-07
9.14284e-07
9.30915e-07
9.0553e-07
8.69548e-07
8.8114e-07
8.80904e-07
8.96275e-07
9.12317e-07
9.13065e-07
8.82923e-07
8.63711e-07
8.78072e-07
8.79386e-07
8.94977e-07
9.08865e-07
9.08985e-07
9.25366e-07
8.98038e-07
8.76878e-07
8.94839e-07
8.93405e-07
9.07821e-07
9.10621e-07
9.25371e-07
9.26649e-07
9.251e-07
9.27554e-07
9.11159e-07
8.98093e-07
8.97864e-07
8.85314e-07
8.56675e-07
8.601e-07
8.76221e-07
8.97587e-07
9.10616e-07
9.23615e-07
9.07082e-07
8.99348e-07
9.12994e-07
8.82739e-07
8.9918e-07
9.53706e-07
9.19334e-07
8.48954e-07
9.64466e-07
7.39967e-05
1.17608e-06
8.68381e-07
8.81691e-07
8.81093e-07
8.97428e-07
9.13949e-07
9.13885e-07
9.13577e-07
9.30256e-07
9.04509e-07
8.68545e-07
8.80049e-07
8.79785e-07
8.95792e-07
9.11351e-07
8.96971e-07
8.95125e-07
8.80374e-07
8.7682e-07
8.94725e-07
8.94803e-07
9.09027e-07
9.08749e-07
9.2434e-07
8.97642e-07
8.76543e-07
8.94449e-07
8.93544e-07
9.08255e-07
9.09898e-07
9.24496e-07
9.26224e-07
9.24355e-07
9.26675e-07
9.10124e-07
8.96886e-07
8.96446e-07
8.83719e-07
8.54792e-07
8.57732e-07
8.72898e-07
8.92969e-07
9.0413e-07
9.11603e-07
8.92664e-07
8.94048e-07
9.10059e-07
8.81001e-07
8.93722e-07
9.52769e-07
9.60267e-07
8.77547e-07
9.69324e-07
7.39971e-05
1.17744e-06
8.69466e-07
8.82806e-07
8.82211e-07
8.98174e-07
9.15646e-07