/*--------------------------------*- C++ -*----------------------------------*\
| =========                 |                                                 |
| \\      /  F ield         | OpenFOAM: The Open Source CFD Toolbox           |
|  \\    /   O peration     | Version:  4.1                                   |
|   \\  /    A nd           | Web:      www.OpenFOAM.org                      |
|    \\/     M anipulation  |                                                 |
\*---------------------------------------------------------------------------*/
FoamFile
{
    version     2.0;
    format      ascii;
    class       volScalarField;
    location    "3";
    object      omega;
}
// * * * * * * * * * * * * * * * * * * * * * * * * * * * * * * * * * * * * * //

dimensions      [0 0 -1 0 0 0 0];

internalField   nonuniform List<scalar> 
4432
(
0.0107146
0.011879
0.0121364
0.0123601
0.0125508
0.0127207
0.0128564
0.0129979
0.0130649
0.0124979
0.0133187
0.0124923
0.0134427
0.0135684
0.0126115
0.0135304
0.0136387
0.013659
0.0137669
0.0126852
0.0135851
0.0136149
0.0135894
0.0136726
0.0127131
0.0135103
0.0130577
0.0124585
0.01334
0.0134005
0.0135535
0.0135916
0.0129785
0.0137276
0.012787
0.0137126
0.0129097
0.0136814
0.0137005
0.0138156
0.013112
0.0124152
0.0121235
0.0118367
0.0119618
0.0114069
0.0125163
0.0127389
0.0129931
0.0132531
0.0135441
0.014169
0.0129733
0.0126486
0.0107246
0.0118692
0.0121228
0.0123429
0.0125307
0.0126982
0.0128323
0.0129723
0.0130397
0.0132136
0.0123902
0.0130066
0.0132085
0.0133543
0.0125438
0.0133693
0.013497
0.0135336
0.0136575
0.0126326
0.0135287
0.0135694
0.0135515
0.0136429
0.0127005
0.0135022
0.0130587
0.0124629
0.0133516
0.0134154
0.0135716
0.0136119
0.0129924
0.0137506
0.012801
0.0137397
0.01383
0.0127392
0.0136832
0.0137745
0.0130143
0.0123316
0.0120669
0.0118055
0.0119407
0.0114058
0.0124931
0.0127049
0.0129328
0.0131136
0.0134913
0.0137643
0.0125297
0.0124731
31.2875
3.82978
0.786629
0.583316
0.516084
0.459813
0.528465
0.544144
0.513623
0.414058
0.441372
0.514443
0.540013
0.506854
0.454957
0.493006
0.416888
0.451518
0.488181
0.457288
0.526047
0.50087
0.458794
0.491963
0.463105
0.525535
0.49889
0.459353
0.494851
0.42309
0.45583
0.492294
0.444724
0.444614
0.460486
0.518113
0.490015
0.458727
0.511539
0.514837
0.480029
0.465081
0.491419
0.49338
0.514212
0.634345
0.928807
1.32602
2.19846
3.67735
4.16576
5.00021
4.89995
6.08931
31.287
3.82961
0.786036
0.573595
0.478055
0.453871
0.526601
0.542989
0.512563
0.412931
0.441148
0.515082
0.539233
0.505446
0.458028
0.523848
0.534198
0.535883
0.531474
0.500904
0.462041
0.488742
0.45714
0.49115
0.46252
0.524941
0.498312
0.458773
0.494217
0.422418
0.455154
0.491627
0.442904
0.44159
0.459613
0.517538
0.489705
0.45858
0.511627
0.514679
0.479607
0.463272
0.488139
0.487808
0.506508
0.61522
0.820428
1.45074
2.0926
3.68218
4.04488
4.90438
4.89049
6.12716
31.2856
3.82979
0.781361
0.43031
0.440474
0.488719
0.457408
0.52773
0.509507
0.464968
0.493605
0.457861
0.526268
0.537488
0.543032
0.506347
0.459634
0.52809
0.502152
0.457624
0.524919
0.533354
0.534439
0.525276
0.510563
0.533557
0.53027
0.517513
0.52902
0.522095
0.511179
0.502558
0.426525
0.45603
0.484663
0.462515
0.488325
0.424349
0.455308
0.505892
0.493445
0.47326
0.495099
0.495493
0.535432
0.648232
0.926284
1.35744
2.22957
3.64171
3.86143
4.65125
5.874
6.05958
31.2851
3.8302
0.775743
0.474468
0.517941
0.476398
0.454302
0.526331
0.508386
0.463912
0.492505
0.456813
0.525207
0.536461
0.542023
0.505416
0.458728
0.527214
0.501475
0.454804
0.521677
0.532185
0.533676
0.524764
0.510324
0.533034
0.52984
0.484099
0.43816
0.468144
0.495352
0.499251
0.425488
0.455228
0.483852
0.461826
0.487731
0.423901
0.454859
0.505206
0.49217
0.470565
0.490379
0.487836
0.508951
0.627027
0.874694
1.31696
1.97229
3.07159
3.71263
4.55628
5.89492
6.11476
31.2859
3.83017
0.776253
0.47521
0.495577
0.457847
0.528047
0.543972
0.513449
0.414554
0.440273
0.511574
0.539652
0.506592
0.459694
0.494565
0.463373
0.520526
0.508409
0.47823
0.408146
0.442732
0.485836
0.458357
0.521404
0.535467
0.501313
0.460046
0.520695
0.526021
0.499838
0.461451
0.518103
0.503901
0.426442
0.457385
0.509563
0.477546
0.42925
0.450263
0.48952
0.523113
0.509702
0.497991
0.545322
0.565944
0.711588
1.13683
1.75131
2.29111
3.16258
3.54751
4.09325
3.98625
31.2856
3.82891
0.785835
0.576941
0.492613
0.455934
0.526892
0.542937
0.512415
0.413332
0.440574
0.513309
0.539094
0.505613
0.458716
0.493538
0.462488
0.523149
0.517054
0.474772
0.455119
0.491295
0.463045
0.488933
0.45801
0.524879
0.529104
0.48277
0.457387
0.490765
0.465617
0.487817
0.4594
0.493006
0.426368
0.460962
0.512231
0.476951
0.428899
0.449738
0.488277
0.520752
0.505737
0.491706
0.516731
0.571444
0.760538
0.919349
1.54559
2.30075
3.37127
3.53638
4.11121
4.02488
31.286
3.83018
0.776252
0.475241
0.495563
0.457871
0.52804
0.509837
0.464917
0.493796
0.458195
0.531035
0.542884
0.506809
0.459682
0.494588
0.463437
0.498684
0.419392
0.450416
0.512988
0.476476
0.456035
0.495755
0.420774
0.454162
0.490968
0.464582
0.526663
0.499837
0.460231
0.492755
0.468132
0.524166
0.531308
0.533142
0.501595
0.465184
0.515874
0.495296
0.464467
0.513797
0.50817
0.516752
0.535998
0.550479
0.627723
0.851636
1.39744
1.6575
1.53317
2.32294
3.31836
2.49729
31.2857
3.82892
0.78584
0.578628
0.499591
0.456899
0.527051
0.508822
0.463893
0.492704
0.45714
0.49484
0.462844
0.491321
0.457348
0.524405
0.503145
0.443855
0.49194
0.531871
0.501416
0.457969
0.488062
0.457885
0.518721
0.524315
0.531745
0.528084
0.531598
0.53037
0.52994
0.533623
0.504263
0.465085
0.485722
0.424573
0.452261
0.503604
0.519959
0.494192
0.461565
0.50915
0.501365
0.506652
0.523301
0.565264
0.65981
0.890653
1.09504
1.64528
2.4277
2.14229
3.00093
2.45623
31.2862
3.82905
0.786409
0.556777
0.463761
0.52934
0.544551
0.509507
0.459469
0.496305
0.463833
0.493045
0.458265
0.495166
0.460475
0.523985
0.538923
0.501843
0.459135
0.527495
0.501576
0.458938
0.526255
0.530603
0.487392
0.416063
0.438466
0.499932
0.531939
0.528227
0.486207
0.41945
0.441832
0.497083
0.527516
0.529973
0.499141
0.474964
0.52256
0.48242
0.464685
0.503961
0.487986
0.530388
0.522928
0.569224
0.568464
0.743673
0.985433
1.1761
0.968535
0.828132
2.35646
1.15116
31.2858
3.82891
0.785822
0.555987
0.462897
0.528403
0.543587
0.508496
0.458441
0.495211
0.462767
0.49192
0.457222
0.493855
0.462429
0.495074
0.415228
0.428753
0.485408
0.531252
0.501613
0.4585
0.525493
0.530046
0.518201
0.531089
0.520672
0.500227
0.530576
0.529665
0.487269
0.421125
0.441767
0.499699
0.52376
0.526034
0.503844
0.475132
0.521721
0.481098
0.462712
0.500755
0.482972
0.522568
0.516854
0.556138
0.524051
0.720913
0.823238
0.696087
0.646358
0.771804
2.61068
1.33568
31.2862
3.82907
0.7864
0.556792
0.463793
0.529364
0.544565
0.509527
0.459476
0.496334
0.463838
0.493524
0.453717
0.489483
0.458371
0.518402
0.502929
0.496782
0.503967
0.423957
0.412258
0.406506
0.451639
0.517506
0.478082
0.452995
0.521366
0.531535
0.531217
0.536974
0.501563
0.461187
0.52569
0.530909
0.48845
0.460388
0.48903
0.471468
0.527176
0.530112
0.50454
0.475411
0.533774
0.531889
0.541144
0.551323
0.524316
0.612329
0.688905
0.41194
0.781655
0.237399
2.06249
0.810542
31.2858
3.82894
0.785815
0.556004
0.462919
0.528414
0.5436
0.508519
0.458452
0.495245
0.46278
0.492422
0.452696
0.492689
0.412312
0.446376
0.510427
0.504871
0.50469
0.423343
0.411573
0.405945
0.450941
0.517051
0.478414
0.453565
0.487723
0.458989
0.521072
0.533797
0.498826
0.460083
0.524676
0.529674
0.486725
0.461884
0.487835
0.469514
0.524708
0.526989
0.500454
0.469676
0.525381
0.52174
0.512611
0.512911
0.508704
0.530881
0.461984
0.190769
0.709151
0.571124
2.05178
0.844409
31.2863
3.82907
0.786399
0.5568
0.463799
0.529373
0.510409
0.464467
0.523856
0.477973
0.455678
0.495125
0.463419
0.496976
0.452813
0.497065
0.475148
0.413748
0.425528
0.47876
0.530033
0.532427
0.4896
0.40974
0.442935
0.490209
0.421647
0.456345
0.489521
0.461662
0.525066
0.530036
0.486531
0.463759
0.490791
0.466905
0.522232
0.538872
0.509776
0.475762
0.532113
0.515943
0.499251
0.520961
0.527781
0.529576
0.475873
0.438707
0.437309
0.318585
0.136445
0.24929
1.66683
0.593678
31.2859
3.82893
0.785811
0.556002
0.462915
0.528434
0.509435
0.463472
0.522855
0.477068
0.454627
0.494016
0.462381
0.495786
0.453285
0.499381
0.475459
0.412643
0.427743
0.483397
0.530853
0.501613
0.458628
0.492272
0.462692
0.493338
0.458389
0.482006
0.463057
0.524669
0.498905
0.462232
0.522531
0.531379
0.501095
0.466777
0.521088
0.537426
0.50808
0.473631
0.52909
0.511822
0.493574
0.514139
0.49753
0.507304
0.497756
0.532484
0.475409
0.203228
0.287806
0.541159
1.80847
0.684081
31.2864
3.82908
0.786395
0.556801
0.463811
0.529432
0.544638
0.509612
0.459528
0.531373
0.506183
0.459561
0.495531
0.463514
0.521234
0.480884
0.4131
0.436436
0.4987
0.530191
0.530941
0.50189
0.4599
0.523499
0.534621
0.531301
0.505209
0.420059
0.450257
0.514049
0.515542
0.506269
0.425944
0.461109
0.525136
0.536628
0.504681
0.470293
0.493903
0.472596
0.523251
0.519574
0.550868
0.524113
0.517015
0.535296
0.528682
0.482029
0.430443
0.373201
0.0701722
0.180414
1.38126
0.452964
31.2859
3.82894
0.785809
0.556021
0.462957
0.528498
0.543671
0.508603
0.45852
0.530327
0.505097
0.458507
0.494458
0.462529
0.520154
0.479647
0.411816
0.437912
0.502627
0.530173
0.497657
0.453872
0.491406
0.417958
0.453273
0.492266
0.461366
0.520321
0.53569
0.503243
0.46081
0.496985
0.427007
0.460452
0.523688
0.534842
0.502256
0.467957
0.491112
0.46912
0.518531
0.518718
0.550405
0.515863
0.493854
0.511323
0.525199
0.565072
0.418713
0.329634
0.468865
0.534421
1.71948
0.629557
31.2864
3.82907
0.786394
0.556834
0.463878
0.529479
0.544683
0.509644
0.45952
0.531406
0.506198
0.460043
0.526766
0.499786
0.454224
0.489275
0.458922
0.524318
0.505741
0.465026
0.520217
0.514761
0.532162
0.537754
0.507776
0.466103
0.528896
0.501508
0.462
0.494061
0.467983
0.489174
0.459349
0.527309
0.532449
0.487057
0.460464
0.529595
0.533645
0.537055
0.533547
0.527462
0.556049
0.513343
0.495265
0.540283
0.551586
0.527981
0.523291
0.268636
0.0364783
0.132463
1.07418
0.344602
31.286
3.82893
0.785805
0.556041
0.46301
0.528513
0.543671
0.508617
0.458531
0.53037
0.505105
0.458974
0.525689
0.531947
0.50307
0.459091
0.523833
0.538058
0.536726
0.53598
0.507832
0.44719
0.49464
0.513542
0.442461
0.456693
0.526892
0.501934
0.461868
0.525212
0.501769
0.459906
0.518016
0.527007
0.500331
0.463241
0.517351
0.536747
0.532937
0.534786
0.529729
0.526738
0.545016
0.500154
0.460336
0.490704
0.488734
0.490428
0.3283
0.226646
0.169104
0.515377
1.57629
0.561948
31.2864
3.82908
0.78639
0.55683
0.463912
0.529509
0.5447
0.509682
0.45959
0.531497
0.506295
0.459646
0.495623
0.464021
0.529665
0.500654
0.45918
0.524811
0.527189
0.510435
0.520805
0.533709
0.537544
0.544664
0.512703
0.462655
0.497425
0.421305
0.456619
0.494669
0.457896
0.499755
0.528939
0.531849
0.527839
0.500137
0.466272
0.523738
0.507727
0.480129
0.503393
0.480703
0.547376
0.513998
0.486931
0.514022
0.466265
0.523419
0.402494
0.238991
0.0386242
0.124311
0.952817
0.308172
31.286
3.82895
0.785804
0.556039
0.46304
0.528542
0.543745
0.50867
0.458593
0.530427
0.505203
0.458586
0.494533
0.463052
0.52866
0.49951
0.458184
0.523703
0.533746
0.505793
0.464192
0.490782
0.455483
0.489472
0.463186
0.525162
0.503582
0.463571
0.523505
0.533243
0.523933
0.51019
0.533962
0.502471
0.457113
0.48788
0.463913
0.521356
0.505001
0.476928
0.499404
0.4743
0.534961
0.505911
0.467688
0.487074
0.458381
0.4676
0.325014
0.110684
0.213462
0.53892
1.34153
0.476175
31.2864
3.83019
0.776246
0.475422
0.527252
0.506214
0.411619
0.392527
0.42457
0.491825
0.497715
0.459106
0.526156
0.540944
0.50662
0.460177
0.528875
0.507574
0.41972
0.427402
0.478189
0.498221
0.454097
0.509452
0.515838
0.44553
0.439289
0.450059
0.489804
0.464484
0.520851
0.518449
0.532154
0.518178
0.495026
0.530504
0.503108
0.465922
0.523744
0.530569
0.500913
0.472928
0.535158
0.540558
0.509626
0.460225
0.537331
0.529506
0.38246
0.243858
0.0110371
0.10849
1.10999
0.357159
31.286
3.83005
0.775685
0.474605
0.491141
0.451199
0.490767
0.404888
0.432533
0.506104
0.499527
0.458311
0.525148
0.539992
0.505597
0.459127
0.527764
0.502646
0.45936
0.526649
0.501317
0.458729
0.492392
0.472644
0.542248
0.550616
0.506271
0.460112
0.490065
0.461316
0.513332
0.509214
0.533807
0.500951
0.46238
0.523794
0.500278
0.463759
0.521653
0.527959
0.49765
0.469163
0.530233
0.534863
0.503243
0.456634
0.537371
0.513903
0.347132
0.151566
0.0968497
0.0654146
1.20143
0.416472
31.2866
3.82594
0.786243
0.556766
0.468119
0.527357
0.4847
0.456218
0.527435
0.535019
0.509987
0.418737
0.40546
0.451695
0.519806
0.501552
0.460404
0.525295
0.506876
0.466568
0.491539
0.462448
0.495595
0.470822
0.547111
0.521747
0.460237
0.525528
0.53134
0.508667
0.425001
0.457946
0.491187
0.459022
0.488875
0.464057
0.522317
0.533483
0.499081
0.462335
0.492308
0.470939
0.531246
0.546096
0.510576
0.413372
0.450431
0.49054
0.414447
0.485924
0.160026
0.115444
1.11673
0.355979
31.2862
3.82581
0.785668
0.555979
0.467256
0.526476
0.48389
0.455173
0.526236
0.533817
0.509177
0.413167
0.445656
0.526706
0.503149
0.458974
0.493811
0.463501
0.491586
0.455906
0.490081
0.46555
0.5278
0.534486
0.557722
0.549391
0.525
0.534329
0.532228
0.507981
0.421526
0.455284
0.488452
0.458771
0.491538
0.467582
0.517005
0.480512
0.414391
0.449071
0.520394
0.535647
0.537059
0.542315
0.505365
0.411811
0.450818
0.530284
0.54669
0.490597
0.130625
0.0138717
1.08677
0.36522
31.2866
3.82596
0.786253
0.561376
0.422425
0.440085
0.509795
0.540173
0.503448
0.459058
0.497519
0.451444
0.506416
0.500659
0.45946
0.529454
0.504488
0.458984
0.492679
0.466397
0.495135
0.466544
0.509759
0.551701
0.60393
0.558524
0.633548
0.485402
0.498785
0.453439
0.489788
0.459997
0.487018
0.454712
0.48984
0.459628
0.524693
0.536597
0.537443
0.510111
0.469641
0.496745
0.465449
0.53077
0.537256
0.506561
0.465502
0.504879
0.366184
0.260993
0.0711466
0.105975
1.10304
0.351146
31.2862
3.82582
0.785672
0.560599
0.421496
0.439312
0.509224
0.506867
0.412471
0.440563
0.513883
0.501741
0.458606
0.529101
0.503747
0.458636
0.528071
0.505965
0.46467
0.5292
0.504344
0.465287
0.507587
0.55352
0.598166
0.558676
0.663929
0.566329
0.553876
0.548198
0.536183
0.48486
0.404626
0.44121
0.487582
0.459115
0.523367
0.534389
0.534624
0.507793
0.469132
0.494615
0.462529
0.527226
0.536228
0.506221
0.466486
0.515635
0.363607
0.244816
0.0366373
0.125988
1.05205
0.351977
31.2884
3.79986
0.773533
0.480664
0.533224
0.541785
0.547625
0.515326
0.40889
0.440166
0.492517
0.412528
0.446962
0.522418
0.53201
0.541642
0.506089
0.460577
0.525045
0.535159
0.511539
0.45317
0.503625
0.584351
0.670883
0.550817
0.522771
0.597669
0.529323
0.473283
0.458811
0.520102
0.523806
0.499068
0.46216
0.48967
0.454449
0.505424
0.533974
0.502711
0.465662
0.532576
0.509045
0.466687
0.52981
0.544057
0.519344
0.465901
0.585898
0.649281
0.697574
0.971914
0.315509
0.630659
31.2882
3.79664
0.773384
0.480784
0.486783
0.455605
0.495592
0.462265
0.500538
0.421335
0.403492
0.44863
0.491536
0.412502
0.444164
0.516892
0.537776
0.507792
0.464963
0.528681
0.504689
0.451889
0.57058
0.642858
0.710423
0.573979
0.535323
0.580593
0.471685
0.519847
0.530221
0.497832
0.457179
0.487123
0.459865
0.514151
0.500718
0.421634
0.45262
0.516899
0.524351
0.53376
0.505631
0.452536
0.50341
0.544641
0.559288
0.58353
0.56741
0.435536
0.619761
0.303327
0.625557
0.789413
31.2883
3.79988
0.773589
0.480282
0.536785
0.5132
0.412881
0.444331
0.522295
0.53904
0.541077
0.544705
0.508219
0.460165
0.529669
0.504496
0.460489
0.525279
0.535358
0.508258
0.469492
0.518571
0.554279
0.758238
0.502707
0.49838
0.57252
0.533124
0.528233
0.50376
0.431678
0.462553
0.492335
0.468191
0.494209
0.469706
0.492505
0.464395
0.49783
0.45817
0.505907
0.503984
0.466809
0.505751
0.43892
0.417737
0.394224
0.359045
0.350617
0.491813
0.916667
0.35831
0.661103
31.2881
3.79613
0.778411
0.435492
0.445443
0.526005
0.53957
0.545433
0.508917
0.45934
0.531202
0.505248
0.458821
0.529369
0.533773
0.487821
0.413401
0.440465
0.506201
0.53104
0.534544
0.510386
0.562514
0.870318
0.506916
0.526925
0.579154
0.505788
0.495676
0.464258
0.490585
0.467187
0.522393
0.498659
0.4233
0.446874
0.50603
0.532299
0.501393
0.463708
0.525881
0.536279
0.508695
0.469739
0.542388
0.562689
0.547724
0.446307
0.592323
0.72194
0.782597
1.5061
0.561152
31.2865
3.82595
0.786295
0.55693
0.468256
0.527706
0.485474
0.456406
0.531597
0.506894
0.459713
0.49621
0.464193
0.497568
0.409409
0.441905
0.491229
0.415583
0.449945
0.520262
0.52805
0.538346
0.530445
0.58336
0.625293
0.511472
0.49757
0.456295
0.504899
0.425207
0.406171
0.453087
0.49433
0.461427
0.532781
0.50856
0.460705
0.495499
0.465282
0.53198
0.546584
0.543515
0.506397
0.43464
0.461363
0.5349
0.586916
0.589251
0.430723
0.380453
0.258438
0.277668
1.34443
0.500743
31.2861
3.82584
0.785709
0.556118
0.467393
0.526664
0.484174
0.45539
0.530564
0.50583
0.458754
0.495168
0.462728
0.495461
0.462413
0.489406
0.457441
0.489703
0.459215
0.516061
0.513954
0.503091
0.454143
0.523355
0.632369
0.543335
0.635777
0.483089
0.504174
0.460236
0.534164
0.508389
0.455325
0.490793
0.459223
0.521981
0.503147
0.461926
0.526092
0.539296
0.542341
0.549402
0.518896
0.432298
0.462216
0.52971
0.57472
0.586032
0.434427
0.36773
0.235532
0.359219
1.35359
0.524644
31.2862
3.82932
0.787497
0.588126
0.551928
0.515218
0.465496
0.532699
0.502054
0.458819
0.531601
0.536678
0.49026
0.412791
0.442227
0.512586
0.538085
0.509597
0.459086
0.5042
0.476957
0.415726
0.451806
0.499073
0.477332
0.541338
0.543865
0.542193
0.539604
0.536802
0.540927
0.505289
0.46332
0.495432
0.468253
0.529117
0.538641
0.510087
0.474606
0.53512
0.537729
0.495049
0.477063
0.515462
0.495857
0.529402
0.506094
0.566657
0.525303
0.663593
0.440164
0.178207
1.2888
0.456349
31.2858
3.83006
0.775724
0.474628
0.495042
0.457278
0.527976
0.544341
0.508704
0.458733
0.530691
0.535702
0.484871
0.456235
0.493847
0.46334
0.491128
0.458281
0.495233
0.441841
0.442589
0.457111
0.493989
0.428323
0.464369
0.530776
0.540298
0.540859
0.542394
0.532932
0.479536
0.458301
0.492749
0.465515
0.518966
0.482094
0.419937
0.446604
0.508129
0.537313
0.538844
0.497647
0.478667
0.518892
0.48615
0.50528
0.500608
0.614347
0.666342
0.680753
0.311555
0.271318
1.38928
0.521408
31.2862
3.82911
0.78647
0.556951
0.463938
0.529675
0.544915
0.510002
0.460232
0.528834
0.535961
0.506996
0.460328
0.526327
0.541729
0.5068
0.460113
0.524997
0.535116
0.540109
0.504204
0.455252
0.489823
0.466822
0.496971
0.461507
0.530879
0.505566
0.461388
0.528444
0.502151
0.46216
0.527748
0.502473
0.463781
0.524519
0.503491
0.468062
0.492921
0.465356
0.496095
0.483248
0.517939
0.454034
0.484022
0.555132
0.586
0.565172
0.466412
0.405962
0.426836
0.333231
1.65171
0.632775
31.2858
3.82896
0.785902
0.55625
0.463183
0.528791
0.543992
0.509032
0.459243
0.527793
0.534914
0.505932
0.459253
0.525175
0.540608
0.505643
0.459279
0.527875
0.505445
0.461827
0.517801
0.530061
0.494961
0.465546
0.500109
0.465211
0.530186
0.508228
0.414802
0.444774
0.486033
0.464293
0.490593
0.45639
0.48854
0.462534
0.523439
0.533276
0.501735
0.46383
0.493976
0.477151
0.509951
0.488741
0.522201
0.470362
0.500537
0.572957
0.445084
0.457297
0.239497
0.298282
1.56314
0.616118
31.2861
3.82914
0.78647
0.556992
0.464026
0.529643
0.544983
0.510068
0.459876
0.532384
0.507289
0.460414
0.530577
0.538594
0.496343
0.458422
0.525206
0.535567
0.508188
0.465995
0.519598
0.477441
0.453775
0.522922
0.532515
0.519157
0.495661
0.497411
0.460096
0.492772
0.465145
0.491436
0.461655
0.528385
0.50404
0.460861
0.495101
0.431368
0.467899
0.501284
0.480488
0.519464
0.504765
0.537321
0.521211
0.571574
0.566068
0.630391
0.66292
0.535842
0.320438
0.339937
1.77964
0.70622
31.2857
3.82899
0.785907
0.556242
0.463209
0.528771
0.544098
0.509109
0.458894
0.531348
0.50623
0.459377
0.526623
0.504055
0.455583
0.516321
0.533992
0.536194
0.506966
0.464797
0.493863
0.463298
0.521932
0.534061
0.53198
0.526683
0.501827
0.460262
0.510628
0.500183
0.532487
0.502224
0.461476
0.527013
0.502395
0.458977
0.492848
0.428934
0.465123
0.498063
0.476796
0.514973
0.498814
0.530645
0.508397
0.550329
0.518303
0.606875
0.479468
0.524731
0.403582
0.436919
1.84651
0.758988
31.286
3.83028
0.776242
0.475337
0.494143
0.459576
0.493505
0.457784
0.496644
0.46402
0.493725
0.458448
0.531247
0.505601
0.459527
0.525869
0.519555
0.493914
0.525084
0.50113
0.463821
0.489409
0.458477
0.493332
0.465714
0.499562
0.420538
0.452039
0.518994
0.532361
0.528509
0.518062
0.536054
0.504856
0.46146
0.492888
0.4682
0.528174
0.543172
0.54299
0.505622
0.494399
0.563357
0.544432
0.527693
0.57309
0.574342
0.545518
0.527849
0.678647
0.540391
0.631764
2.05766
0.858009
31.2856
3.83012
0.775761
0.474653
0.494301
0.460367
0.493106
0.456906
0.495663
0.463013
0.492661
0.457416
0.530188
0.504601
0.458512
0.494539
0.413394
0.447151
0.51665
0.498817
0.462092
0.490002
0.454292
0.522667
0.533467
0.530471
0.501006
0.463042
0.522871
0.532505
0.530623
0.524592
0.536124
0.503663
0.460144
0.491212
0.466187
0.525781
0.540492
0.53999
0.502132
0.490057
0.557174
0.546566
0.524049
0.582493
0.57496
0.566294
0.607649
0.784692
0.581701
0.595401
1.9688
0.841876
31.2859
3.8303
0.776312
0.47543
0.494734
0.460534
0.494022
0.457805
0.49666
0.464024
0.498836
0.413444
0.445021
0.519736
0.536549
0.505364
0.459037
0.519878
0.53524
0.503615
0.459886
0.492669
0.463695
0.489833
0.458539
0.523367
0.533539
0.539396
0.503614
0.460818
0.527502
0.502204
0.462613
0.49672
0.453352
0.499571
0.504757
0.428847
0.464267
0.503216
0.484011
0.548325
0.57575
0.561642
0.528227
0.562325
0.530993
0.559571
0.494613
0.621508
0.984308
0.815476
2.36734
1.03688
31.2855
3.82903
0.785869
0.560384
0.419695
0.449276
0.490782
0.456534
0.495596
0.463018
0.497779
0.412458
0.443405
0.517496
0.535318
0.537396
0.507694
0.463633
0.527032
0.498541
0.458588
0.491923
0.463775
0.489806
0.458083
0.526489
0.530265
0.480908
0.456994
0.525335
0.5009
0.46096
0.493859
0.467008
0.52817
0.53857
0.510021
0.427353
0.460578
0.49886
0.478768
0.541123
0.566308
0.554443
0.513011
0.545393
0.523926
0.537631
0.543432
0.703687
0.661067
0.505573
2.12851
0.954035
31.2858
3.82918
0.786482
0.561279
0.420734
0.45036
0.492037
0.457738
0.4969
0.464176
0.532524
0.504125
0.459154
0.492042
0.458843
0.522616
0.527356
0.536365
0.537096
0.507548
0.464894
0.489876
0.457932
0.522769
0.529525
0.504807
0.425163
0.409815
0.453588
0.523856
0.49472
0.460841
0.523542
0.503081
0.457927
0.5088
0.502357
0.474381
0.528408
0.530163
0.543661
0.560639
0.57644
0.569518
0.559984
0.59585
0.542769
0.576617
0.456354
0.651491
0.495446
0.823837
2.58118
1.19178
31.2854
3.82905
0.785879
0.560496
0.419672
0.449272
0.491066
0.456768
0.495854
0.463185
0.531671
0.503634
0.458229
0.491021
0.457856
0.521874
0.52718
0.535485
0.53614
0.506596
0.464139
0.489158
0.457373
0.522232
0.53258
0.505627
0.464363
0.506805
0.482909
0.517605
0.493747
0.45988
0.522617
0.501746
0.45563
0.505566
0.500126
0.47186
0.526857
0.529433
0.538887
0.553584
0.566749
0.556602
0.544108
0.584281
0.534634
0.551564
0.469331
0.708439
0.99289
1.19204
2.60584
1.22971
31.2855
3.83035
0.776322
0.475374
0.498837
0.414219
0.395876
0.443976
0.526119
0.540141
0.537406
0.506636
0.460238
0.52665
0.507971
0.46541
0.492424
0.458519
0.528683
0.502626
0.459366
0.527545
0.50196
0.45925
0.527492
0.502082
0.454838
0.49115
0.415992
0.449594
0.51562
0.518944
0.536529
0.505053
0.466995
0.526612
0.503721
0.472135
0.504027
0.485833
0.542977
0.539752
0.533424
0.572882
0.570661
0.589194
0.560776
0.507473
0.372718
0.573603
0.924115
1.41105
3.04691
1.49748
31.2852
3.82909
0.785931
0.55586
0.466915
0.499311
0.416179
0.396552
0.443737
0.525011
0.533932
0.505158
0.459216
0.525646
0.506973
0.464437
0.491403
0.457553
0.52775
0.501737
0.45858
0.526913
0.501368
0.458519
0.526498
0.507826
0.419831
0.452143
0.490781
0.41698
0.442503
0.505787
0.533601
0.532326
0.486999
0.464214
0.528169
0.504116
0.476756
0.531643
0.541128
0.530287
0.519477
0.554409
0.54688
0.570329
0.535801
0.512925
0.370073
0.602985
1.09823
1.58646
3.11237
1.56715
31.2854
3.83034
0.776288
0.475247
0.495536
0.461748
0.493699
0.45752
0.528442
0.540116
0.512007
0.465305
0.493332
0.458142
0.5263
0.537007
0.509063
0.465281
0.491614
0.458088
0.49318
0.463265
0.525092
0.523545
0.482481
0.414195
0.434869
0.494509
0.532436
0.502593
0.4569
0.488756
0.462831
0.524357
0.538811
0.510552
0.435748
0.46126
0.517965
0.522784
0.480073
0.493748
0.535071
0.58274
0.564
0.559775
0.558422
0.537588
0.482075
0.70002
0.992849
1.65638
3.36772
1.78391
31.285
3.83021
0.775729
0.474395
0.494563
0.460869
0.492738
0.45663
0.527492
0.539153
0.511017
0.464337
0.492325
0.457188
0.525321
0.535993
0.507904
0.46428
0.490673
0.45731
0.492468
0.462546
0.525873
0.527069
0.483294
0.413783
0.433913
0.493135
0.531746
0.502023
0.455801
0.487905
0.461456
0.522712
0.536636
0.508133
0.431149
0.456044
0.512186
0.51712
0.473061
0.484368
0.522252
0.566054
0.544386
0.537309
0.489207
0.538755
0.498781
0.726639
1.27823
1.90266
3.38839
1.90102
31.2851
3.82974
0.781401
0.4302
0.440517
0.48717
0.459145
0.493412
0.458524
0.528356
0.535302
0.51007
0.417831
0.451517
0.494301
0.414316
0.434671
0.49766
0.531053
0.535846
0.539905
0.504229
0.459354
0.492875
0.463089
0.50107
0.428534
0.454942
0.5257
0.529386
0.480358
0.45598
0.490384
0.465111
0.525528
0.536216
0.505707
0.474585
0.505696
0.48902
0.540404
0.541725
0.537423
0.569504
0.555407
0.596959
0.686406
0.699301
0.981448
1.14837
1.51099
2.305
3.61637
2.26436
31.2847
3.8302
0.77584
0.474465
0.499421
0.413383
0.448932
0.490568
0.457339
0.527358
0.534342
0.509108
0.416884
0.450586
0.489238
0.457162
0.527977
0.506884
0.415032
0.441551
0.509651
0.531334
0.534414
0.50574
0.463745
0.496886
0.419438
0.452968
0.525271
0.50052
0.460049
0.489497
0.461934
0.515617
0.514232
0.531842
0.501838
0.470061
0.499975
0.481502
0.530061
0.528158
0.520283
0.548169
0.530493
0.565158
0.601637
0.659334
0.928021
1.02986
1.62144
2.38838
3.49931
2.77473
31.2849
3.83026
0.776226
0.475098
0.527123
0.536323
0.504776
0.454474
0.490159
0.458153
0.527306
0.538847
0.536137
0.509558
0.414639
0.447344
0.515784
0.515599
0.504416
0.464187
0.495254
0.414983
0.440965
0.507059
0.497686
0.459316
0.522503
0.527925
0.500477
0.460922
0.489627
0.460834
0.51847
0.500781
0.467405
0.491629
0.467865
0.501248
0.483115
0.534753
0.532659
0.503779
0.532178
0.555927
0.580916
0.663889
0.739454
0.999529
1.51413
2.10354
3.14797
4.12238
4.31065
3.87076
31.2845
3.83014
0.775726
0.474486
0.526563
0.535542
0.506424
0.443168
0.457333
0.452945
0.525607
0.537776
0.535174
0.508621
0.41372
0.446435
0.515293
0.51572
0.50363
0.463423
0.4945
0.41421
0.441214
0.508269
0.497287
0.458683
0.521887
0.527334
0.499774
0.460111
0.488591
0.459875
0.516939
0.498861
0.465109
0.488738
0.464487
0.49697
0.47791
0.527642
0.523427
0.492225
0.517896
0.539339
0.561868
0.64292
0.723183
0.974975
1.50181
2.12829
3.16689
4.14442
3.78798
4.07197
31.2845
3.82995
0.780719
0.435272
0.391977
0.432892
0.512085
0.512309
0.484793
0.497591
0.45871
0.527548
0.504936
0.408537
0.440845
0.487141
0.458142
0.490301
0.457756
0.518831
0.499901
0.459086
0.522913
0.504323
0.464216
0.496427
0.433359
0.470621
0.52846
0.501483
0.461267
0.494047
0.467903
0.494218
0.463393
0.493288
0.47506
0.504602
0.485878
0.51437
0.505963
0.528933
0.526074
0.556538
0.601609
0.67865
0.751893
1.15529
1.88699
3.21624
3.58516
4.52829
5.74534
6.18466
31.2841
3.83029
0.775774
0.474489
0.491266
0.450978
0.521952
0.501814
0.459495
0.492045
0.457385
0.526569
0.504024
0.407648
0.439972
0.486253
0.457314
0.489376
0.456944
0.518022
0.499187
0.458457
0.52224
0.536337
0.505587
0.426145
0.448162
0.498101
0.532153
0.501393
0.460287
0.492733
0.466277
0.492169
0.460892
0.490213
0.471262
0.498755
0.478052
0.505871
0.494885
0.514503
0.509319
0.537023
0.578415
0.64515
0.690105
1.06501
1.72361
3.08544
3.4929
4.53905
6.08976
5.96901
31.2838
3.83066
0.776609
0.474852
0.495352
0.457242
0.528084
0.544329
0.509278
0.458772
0.531276
0.510449
0.413419
0.438063
0.50828
0.503638
0.463114
0.494806
0.461585
0.488631
0.456702
0.523158
0.533822
0.50642
0.464135
0.527194
0.504499
0.416813
0.400507
0.434774
0.498562
0.499472
0.430324
0.419354
0.462122
0.526809
0.500991
0.475155
0.531669
0.535432
0.509676
0.499952
0.526956
0.539449
0.607102
0.755153
0.996697
1.27496
1.97651
3.10334
3.88937
4.77459
4.93406
6.11938
31.2833
3.82931
0.786251
0.580559
0.506399
0.457359
0.527465
0.543575
0.508473
0.457931
0.530422
0.509593
0.412533
0.437244
0.50754
0.50284
0.462329
0.498001
0.418012
0.435524
0.491744
0.48407
0.456039
0.491876
0.462247
0.526336
0.503755
0.416154
0.399675
0.434862
0.499331
0.498468
0.428765
0.417378
0.459621
0.523604
0.497095
0.470386
0.525149
0.526889
0.49874
0.486864
0.511544
0.52314
0.587601
0.727138
0.956567
1.23711
2.06481
2.55996
3.71908
4.80776
4.70141
6.12058
0.0107262
0.0118662
0.0117192
0.0118583
0.012419
0.012596
0.0127458
0.01288
0.012985
0.0130996
0.0131462
0.0133009
0.0125545
0.0133398
0.0126729
0.0134757
0.0125817
0.0135309
0.0136441
0.0126303
0.0135748
0.0136733
0.0136874
0.0137936
0.0138035
0.0133628
0.0127346
0.0136405
0.0130645
0.0124472
0.0121008
0.0119431
0.0117531
0.0118699
0.0124171
0.0125723
0.0126983
0.0128326
0.0128995
0.0130722
0.0125712
0.012115
0.0119396
0.0117759
0.0118493
0.011546
0.0124655
0.0126898
0.0129269
0.0131674
0.0134088
0.0139292
0.0130464
0.0126378
0.010737
0.0118551
0.0117065
0.0118566
0.0114021
0.012415
0.0125838
0.0127303
0.0128582
0.0129671
0.0130666
0.0131426
0.0132314
0.0132568
0.0125718
0.0133685
0.0125147
0.0134323
0.0135562
0.0125465
0.0134441
0.0134933
0.0134842
0.0135853
0.013607
0.013721
0.0137397
0.013852
0.0131096
0.0124407
0.0120483
0.0119848
0.0116035
0.0121649
0.0125108
0.0126565
0.0127743
0.0129015
0.0129622
0.0131291
0.0126055
0.0121285
0.0119542
0.0117671
0.0118818
0.0114739
0.0124483
0.0126486
0.0128463
0.0130074
0.0132555
0.0134908
0.0124319
0.0124466
0.657001
0.73865
0.776624
0.771962
0.864991
0.68157
0.991212
0.696175
0.613577
0.694254
0.670175
0.604212
0.641216
0.680572
0.802398
0.857542
0.840594
0.740241
0.701825
0.545216
0.752115
0.55838
0.654208
0.645465
0.696425
0.569961
0.592017
0.639736
0.813621
0.766146
0.733982
0.758453
0.473332
0.67187
0.652295
0.65665
0.590461
0.560896
0.96504
0.643701
1.00059
0.733396
0.455509
0.423259
0.41344