/*--------------------------------*- C++ -*----------------------------------*\
| =========                 |                                                 |
| \\      /  F ield         | OpenFOAM: The Open Source CFD Toolbox           |
|  \\    /   O peration     | Version:  4.1                                   |
|   \\  /    A nd           | Web:      www.OpenFOAM.org                      |
|    \\/     M anipulation  |                                                 |
\*---------------------------------------------------------------------------*/
FoamFile
{
    version     2.0;
    format      ascii;
    class       volScalarField;
    location    "3";
    object      p;
}
// * * * * * * * * * * * * * * * * * * * * * * * * * * * * * * * * * * * * * //

dimensions      [0 2 -2 0 0 0 0];

internalField   nonuniform List<scalar> 
4432
(
30337
30338.2
30341
30345.5
30351.2
30358.1
30365.8
30374.3
30383.3
30392.7
30402.6
30412.6
30422.5
30432.3
30441.8
30450.8
30459.5
30467.8
30475.6
30483
30490.1
30497
30504
30511.3
30519
30527.1
30535.8
30545.2
30555.5
30566.9
30579.5
30593.5
30609.1
30626.5
30646
30667.9
30692.5
30720.1
30751.7
30788.2
30830.9
30882.2
30945.8
31026.6
31132.6
31277.9
31496.1
31857.1
32478
33506.2
35049.3
37181.5
39568.5
45770.6
30337.3
30338.6
30341.3
30345.8
30351.5
30358.4
30366.1
30374.5
30383.5
30393
30402.7
30412.7
30422.6
30432.4
30441.9
30450.9
30459.5
30467.8
30475.6
30483
30490.1
30497
30504.1
30511.4
30519
30527.1
30535.8
30545.2
30555.6
30567
30579.6
30593.6
30609.2
30626.6
30646
30667.9
30692.6
30720.1
30751.6
30788.2
30831
30882.6
30946.5
31027.9
31135.1
31283.7
31509.8
31886.3
32531.4
33579.3
35154.5
37350.9
39714.5
45764.9
30337.2
30338.2
30341
30345.4
30351.2
30358.1
30365.8
30374.3
30383.3
30392.7
30402.5
30412.4
30422.4
30432.3
30441.8
30451
30459.7
30468
30475.9
30483.2
30490.3
30497.1
30504.1
30511.2
30518.7
30526.7
30535.4
30544.7
30555
30566.3
30578.8
30592.7
30608.1
30625.2
30644.4
30665.9
30690
30717.1
30747.8
30783.1
30824.4
30873.9
30935.1
31012.6
31113.9
31252.4
31458
31792.3
32357.9
33296.9
34788.4
37014.7
38571.8
39105.9
30337.5
30338.6
30341.3
30345.8
30351.5
30358.4
30366.1
30374.5
30383.5
30392.9
30402.7
30412.6
30422.6
30432.4
30441.9
30451
30459.7
30468
30475.8
30483.2
30490.2
30497.1
30504.1
30511.2
30518.8
30526.8
30535.4
30544.7
30555
30566.3
30578.9
30592.7
30608.1
30625.3
30644.5
30666
30690
30717.1
30747.8
30783.2
30824.6
30874.3
30935.9
31014.1
31116.6
31258.2
31471.4
31819.9
32406.5
33369.6
34886
37153.8
38720.5
39243.5
30336.8
30338
30340.8
30345.3
30351.1
30357.9
30365.7
30374.1
30383.1
30392.6
30402.3
30412.3
30422.3
30432.2
30441.8
30451
30459.9
30468.2
30476.1
30483.4
30490.4
30497.1
30503.9
30510.8
30518.2
30526
30534.5
30543.8
30554
30565.1
30577.4
30591
30606.1
30622.8
30641.5
30662.2
30685.4
30711.3
30740.6
30773.9
30812.8
30859.1
30916
30987.6
31080.4
31205.9
31388.2
31674.8
32139.9
32879.5
33999
35618.3
35875.4
31723.9
30337.2
30338.4
30341.2
30345.6
30351.4
30358.2
30366
30374.4
30383.4
30392.8
30402.5
30412.4
30422.4
30432.3
30441.9
30451.1
30459.9
30468.2
30476.1
30483.4
30490.4
30497.1
30503.9
30510.8
30518.2
30526
30534.5
30543.8
30554
30565.2
30577.5
30591.1
30606.2
30622.9
30641.5
30662.3
30685.4
30711.4
30740.6
30774.1
30813.1
30859.7
30916.9
30989.2
31083.2
31211.6
31400.7
31699.7
32182.5
32944.8
34085.2
35726.3
35960.2
31722.6
30336.6
30337.8
30340.7
30345.2
30351
30357.9
30365.6
30374.1
30383.1
30392.5
30402.2
30412.1
30422.1
30432.1
30441.8
30451.2
30460.1
30468.6
30476.5
30483.8
30490.6
30497.1
30503.6
30510.2
30517.3
30524.9
30533.2
30542.4
30552.4
30563.4
30575.4
30588.7
30603.3
30619.4
30637.2
30657
30678.9
30703.2
30730.5
30761.3
30796.8
30838.8
30889.9
30953.7
31035.4
31144.4
31299
31531.6
31887.4
32399.7
33038.1
33590.5
33212.3
30134.6
30337
30338.2
30341
30345.5
30351.3
30358.2
30365.9
30374.3
30383.3
30392.7
30402.4
30412.2
30422.2
30432.1
30441.9
30451.2
30460.1
30468.6
30476.4
30483.7
30490.5
30497.1
30503.5
30510.2
30517.3
30524.9
30533.2
30542.4
30552.4
30563.4
30575.5
30588.7
30603.4
30619.5
30637.3
30657.1
30679
30703.3
30730.6
30761.4
30797.1
30839.4
30890.9
30955.3
31038.1
31149.5
31308.9
31550
31916.4
32436
33078.4
33625.8
33218.9
30125.2
30336.5
30337.7
30340.6
30345.1
30350.9
30357.8
30365.6
30374
30383
30392.4
30402
30411.9
30421.9
30431.9
30441.8
30451.3
30460.4
30469
30476.9
30484.2
30490.8
30497.1
30503.1
30509.3
30515.9
30523.3
30531.4
30540.4
30550.3
30561.1
30572.9
30585.7
30599.8
30615.2
30632.1
30650.6
30671
30693.4
30718.2
30745.9
30777.6
30814.5
30858.8
30913.3
30982.1
31071.8
31194.5
31368.4
31612.6
31921.4
32209.5
32225.4
31490.1
29182.3
30336.8
30338.1
30340.9
30345.4
30351.2
30358.1
30365.8
30374.3
30383.2
30392.6
30402.2
30412.1
30422
30432
30441.9
30451.4
30460.4
30469
30476.9
30484.1
30490.8
30497
30503.1
30509.3
30515.9
30523.3
30531.4
30540.4
30550.3
30561.1
30572.9
30585.8
30599.9
30615.3
30632.2
30650.7
30671.1
30693.6
30718.4
30746.3
30778.1
30815.3
30860
30915.2
30985
31076.8
31203.3
31383.3
31634
31944.7
32223.3
32217.3
31460.7
29160.8
30336.4
30337.6
30340.5
30345
30350.9
30357.8
30365.5
30374
30382.9
30392.3
30401.9
30411.7
30421.7
30431.8
30441.8
30451.5
30460.8
30469.5
30477.5
30484.7
30491.2
30497.1
30502.6
30508.2
30514.2
30521.1
30529
30537.9
30547.7
30558.4
30570
30582.4
30595.9
30610.5
30626.4
30643.6
30662.3
30682.7
30705
30729.5
30757.1
30788.7
30826
30871.1
30927.1
30998.3
31091.5
31214
31365.9
31518
31572.7
31324.5
30485.4
28675.1
30336.7
30338
30340.8
30345.3
30351.2
30358.1
30365.8
30374.2
30383.1
30392.5
30402.1
30411.9
30421.9
30431.9
30441.8
30451.5
30460.8
30469.5
30477.4
30484.7
30491.2
30497
30502.6
30508.2
30514.2
30521.1
30529
30537.9
30547.8
30558.5
30570
30582.5
30596
30610.6
30626.5
30643.8
30662.5
30682.9
30705.2
30729.9
30757.6
30789.5
30827.1
30872.8
30929.6
31002.3
31097.7
31223.1
31376.9
31525.8
31567.7
31298.7
30442.3
28651.7
30336.3
30337.5
30340.4
30345
30350.9
30357.8
30365.5
30374
30382.9
30392.2
30401.8
30411.5
30421.5
30431.6
30441.7
30451.6
30461.1
30470
30478.2
30485.4
30491.8
30497.2
30502
30506.8
30512
30518.3
30526
30534.9
30544.8
30555.4
30566.8
30578.9
30591.8
30605.7
30620.5
30636.4
30653.4
30671.7
30691.4
30712.7
30736.1
30762.5
30792.9
30828.9
30872.3
30925.7
30991.4
31068.8
31146.3
31185.4
31096.6
30723.8
29886.3
28396.8
30336.7
30337.9
30340.8
30345.3
30351.2
30358.1
30365.8
30374.2
30383.1
30392.4
30401.9
30411.7
30421.7
30431.7
30441.8
30451.7
30461.1
30470
30478.1
30485.3
30491.7
30497.1
30502
30506.8
30512.1
30518.4
30526
30534.9
30544.8
30555.5
30566.9
30579
30592
30605.8
30620.7
30636.6
30653.7
30672
30691.8
30713.2
30736.8
30763.5
30794.3
30830.8
30875
30929.5
30996.6
31075.2
31152.3
31186.4
31084.8
30692.4
29843.2
28373.7
30336.2
30337.5
30340.4
30345
30350.9
30357.8
30365.5
30373.9
30382.8
30392.1
30401.6
30411.4
30421.3
30431.4
30441.6
30451.8
30461.5
30470.6
30479
30486.3
30492.6
30497.6
30501.6
30505.3
30509.4
30514.9
30522.2
30531.3
30541.4
30552.3
30563.6
30575.5
30587.9
30601
30614.9
30629.5
30645
30661.4
30678.7
30697.1
30716.8
30738.4
30762.7
30790.7
30823.4
30861.6
30904.5
30946.1
30967.9
30928.6
30750.6
30318.8
29513.3
28232.3
30336.6
30337.9
30340.8
30345.3
30351.2
30358.1
30365.8
30374.2
30383.1
30392.3
30401.8
30411.5
30421.5
30431.6
30441.8
30451.8
30461.5
30470.6
30478.9
30486.2
30492.4
30497.5
30501.6
30505.3
30509.5
30515
30522.3
30531.3
30541.5
30552.3
30563.7
30575.6
30588.1
30601.2
30615.1
30629.8
30645.3
30661.7
30679
30697.5
30717.4
30739.3
30763.9
30792.3
30825.5
30864.4
30907.7
30948.7
30968.2
30922.7
30733.5
30286.8
29472
28211.3
30336.3
30337.5
30340.4
30345
30350.9
30357.8
30365.6
30374
30382.8
30392
30401.5
30411.2
30421.1
30431.3
30441.6
30451.9
30461.9
30471.3
30479.9
30487.5
30493.7
30498.4
30501.5
30503.7
30506.4
30510.7
30517.7
30527
30537.8
30549
30560.6
30572.3
30584.3
30596.8
30609.8
30623.3
30637.3
30651.9
30667.1
30682.8
30699.3
30716.8
30735.8
30756.8
30780.2
30805.4
30829.2
30842
30822.5
30730
30499.2
30041.9
29272.6
28130.7
30336.6
30337.9
30340.8
30345.3
30351.2
30358.1
30365.8
30374.2
30383
30392.2
30401.7
30411.4
30421.3
30431.4
30441.7
30451.9
30461.9
30471.3
30479.9
30487.4
30493.6
30498.2
30501.4
30503.8
30506.5
30510.9
30517.9
30527.1
30537.8
30549.1
30560.6
30572.4
30584.5
30597
30610
30623.6
30637.7
30652.3
30667.6
30683.4
30700.1
30717.8
30737.1
30758.5
30782.3
30807.8
30831.5
30843.1
30820.3
30721.4
30480.7
30010.7
29234.6
28110.9
30336.3
30337.5
30340.5
30345.1
30351
30357.9
30365.6
30374
30382.8
30392
30401.4
30411.1
30420.9
30431.1
30441.5
30451.9
30462.2
30472
30481
30489
30495.4
30499.9
30502.1
30502.6
30503
30505.5
30512
30522
30533.8
30545.9
30557.8
30569.6
30581.4
30593.4
30605.6
30618.1
30631
30644.2
30657.6
30671.2
30685.1
30699.3
30714.1
30729.7
30745.7
30760.7
30769.8
30761
30711.7
30583.4
30320
29852.3
29113.9
28065
30336.7
30338
30340.9
30345.4
30351.3
30358.2
30365.9
30374.2
30383
30392.2
30401.6
30411.2
30421.1
30431.3
30441.6
30452
30462.2
30472
30481
30488.9
30495.3
30499.7
30502
30502.6
30503.3
30505.8
30512.2
30522.2
30533.9
30546
30557.9
30569.7
30581.6
30593.6
30605.8
30618.4
30631.3
30644.5
30658
30671.7
30685.7
30700.1
30715.2
30731
30747.3
30762.3
30770.5
30759.8
30706.6
30571.9
30299.9
29822.1
29077.8
28046.6
30336.4
30337.7
30340.6
30345.2
30351.1
30358
30365.7
30374
30382.8
30391.9
30401.3
30410.9
30420.8
30430.9
30441.4
30452
30462.5
30472.7
30482.3
30490.9
30497.9
30502.6
30504
30502.5
30499.6
30498.9
30504.4
30515.9
30529.6
30543.1
30555.6
30567.6
30579.2
30590.8
30602.4
30614.1
30626
30638
30650.1
30662
30673.8
30685.5
30697.1
30708.5
30718.9
30725.9
30723.3
30698.4
30627.7
30475.6
30193.2
29722.7
29008.5
28022.3
30336.8
30338.1
30341
30345.5
30351.4
30358.2
30365.9
30374.2
30383
30392.1
30401.5
30411.1
30420.9
30431.1
30441.5
30452.1
30462.6
30472.7
30482.2
30490.8
30497.8
30502.5
30503.9
30502.6
30499.8
30499.5
30504.9
30516.1
30529.6
30543.1
30555.7
30567.7
30579.4
30591
30602.7
30614.4
30626.4
30638.4
30650.5
30662.6
30674.5
30686.4
30698.2
30709.8
30720.3
30727
30723.5
30696.2
30621.5
30463.3
30173.1
29693.5
28974.3
28004.6
30336.6
30337.8
30340.8
30345.3
30351.2
30358.1
30365.7
30374
30382.8
30391.9
30401.2
30410.7
30420.6
30430.7
30441.2
30452
30462.8
30473.4
30483.7
30493.3
30501.6
30507.2
30508.8
30504.9
30497.2
30489.9
30493.3
30507.9
30525.2
30540.7
30554.2
30566.5
30578.2
30589.4
30600.6
30611.7
30622.9
30634
30645.1
30655.9
30666.3
30676.3
30685.7
30694.3
30700.7
30702.1
30691.4
30655
30569.8
30402
30107.8
29636.8
28939.4
27994.3
30337
30338.2
30341.1
30345.7
30351.5
30358.3
30366
30374.3
30383
30392
30401.4
30410.9
30420.8
30430.9
30441.4
30452.1
30462.9
30473.5
30483.7
30493.2
30501.5
30506.9
30508.8
30504.8
30497.9
30490.6
30494
30508.2
30525.2
30540.7
30554.3
30566.6
30578.3
30589.6
30600.8
30612
30623.2
30634.4
30645.5
30656.3
30666.9
30677
30686.6
30695.2
30701.7
30702.5
30690.5
30651.5
30562.1
30388.5
30087.1
29608.2
28906.2
27977.2
30336.8
30338
30341
30345.5
30351.4
30358.2
30365.8
30374.1
30382.8
30391.8
30401.1
30410.6
30420.4
30430.5
30441.1
30452
30463
30474.1
30485.2
30496
30506.2
30514.8
30520.1
30513.6
30496.5
30470.8
30472.8
30497.1
30521
30539.4
30554
30566.8
30578.4
30589.4
30600.2
30610.9
30621.5
30632
30642.4
30652.5
30662.1
30671.1
30679.3
30686
30689.9
30687.6
30671.4
30627.3
30532.6
30355
30053.9
29583.1
28896.2
27976.7
30337.2
30338.4
30341.3
30345.8
30351.7
30358.5
30366.1
30374.3
30383
30392
30401.2
30410.8
30420.6
30430.7
30441.3
30452.1
30463.2
30474.2
30485.2
30496
30506.1
30515
30520.1
30514
30497.2
30472
30473.2
30497.1
30520.9
30539.4
30554.1
30567
30578.7
30589.7
30600.5
30611.2
30621.9
30632.4
30642.9
30653
30662.7
30671.8
30680.1
30686.9
30690.7
30687.7
30670.1
30623.4
30524.5
30341.2
30033.4
29555.1
28863.8
27959.9
30337.1
30338.3
30341.2
30345.7
30351.5
30358.4
30365.9
30374.1
30382.8
30391.7
30401
30410.4
30420.2
30430.3
30440.9
30451.9
30463.1
30474.6
30486.4
30498.5
30511.9
30527.7
30545.8
30541.3
30518.6
30403.8
30428.9
30483.4
30518.5
30539.6
30555
30568
30579.4
30590.1
30600.4
30610.7
30620.9
30631.1
30641.1
30650.9
30660.3
30669
30676.7
30682.9
30685.8
30681.7
30662.9
30614.8
30514.9
30331.8
30026.4
29555
28872.4
27966.3
30337.4
30338.7
30341.6
30346.1
30351.8
30358.6
30366.2
30374.4
30383
30391.9
30401.1
30410.6
30420.4
30430.5
30441.1
30452
30463.3
30474.8
30486.5
30498.7
30512.2
30528.2
30546.2
30540.6
30517.2
30405.4
30428.3
30482.7
30518.2
30539.5
30555.1
30568.2
30579.7
30590.4
30600.8
30611
30621.2
30631.4
30641.5
30651.4
30660.8
30669.6
30677.4
30683.5
30686.2
30681.4
30661
30610.2
30506.1
30317.4
30005.6
29527
28840.2
27949.7
30337.4
30338.6
30341.5
30346
30351.8
30358.5
30366.1
30374.2
30382.8
30391.7
30400.9
30410.3
30420
30430.1
30440.7
30451.7
30463.1
30475
30487.3
30500.4
30516.8
30539.1
30568.6
30618.1
30634.4
30160.7
30355.7
30479.2
30540.4
30562.6
30576.4
30587.8
30597.3
30606.1
30614.7
30623.3
30632.2
30641.2
30650.4
30659.5
30668.3
30676.7
30684.3
30690.3
30693
30688.6
30669.1
30619.8
30518.1
30332.6
30024.8
29551.5
28868.2
27964.5
30337.7
30339
30341.9
30346.3
30352.1
30358.8
30366.3
30374.4
30383
30391.9
30401
30410.4
30420.2
30430.3
30440.9
30451.9
30463.3
30475.1
30487.4
30500.6
30517.2
30539.7
30569
30621.7
30619.6
30174
30353.8
30477.2
30539
30561.4
30575.5
30587
30596.7
30605.6
30614.3
30623
30631.9
30641
30650.2
30659.4
30668.4
30676.9
30684.5
30690.5
30693
30687.9
30666.8
30614.8
30509
30318
30003.8
29523.5
28835.9
27947.8
30337.7
30339
30341.8
30346.3
30352
30358.8
30366.2
30374.3
30382.8
30391.7
30400.8
30410.1
30419.8
30429.9
30440.4
30451.4
30462.9
30474.9
30487.4
30500.8
30517.5
30540.6
30586.2
30771.2
30037.5
30349.1
30479
30542.9
30565.9
30579.1
30590
30599.2
30607.7
30616.1
30624.7
30633.6
30642.9
30652.5
30662.2
30671.9
30681.3
30690.1
30697.6
30702.1
30699.9
30682.8
30636.1
30536.6
30352.2
30043.7
29567.4
28879.3
27968.7
30338.1
30339.4
30342.2
30346.6
30352.3
30359
30366.5
30374.5
30383
30391.8
30400.9
30410.3
30420
30430.1
30440.6
30451.7
30463.1
30475
30487.5
30501
30517.9
30541.6
30587.7
30778.1
30052.6
30343.1
30476.6
30541.9
30565.4
30578.9
30589.8
30599.1
30607.7
30616.1
30624.7
30633.7
30643
30652.6
30662.3
30672.1
30681.6
30690.4
30697.9
30702.2
30699.2
30680.5
30631
30527.3
30337.3
30022.2
29538.8
28846.4
27951.5
30338.2
30339.4
30342.2
30346.7
30352.3
30359
30366.4
30374.4
30382.9
30391.6
30400.7
30410
30419.6
30429.6
30440.1
30451.1
30462.5
30474.4
30486.7
30499.6
30514.2
30531.6
30550.7
30576.1
30561.1
30405.7
30427.7
30485.6
30522.9
30544
30558.7
30570.8
30581.7
30591.9
30602.1
30612.4
30623
30634.1
30645.5
30657.3
30669.2
30681.1
30692.8
30703.5
30712
30714.5
30703
30662.6
30569.2
30389.2
30081.5
29601.1
28903.6
27977.6
30338.5
30339.8
30342.6
30347
30352.6
30359.3
30366.7
30374.6
30383.1
30391.8
30400.9
30410.1
30419.8
30429.8
30440.3
30451.3
30462.7
30474.5
30486.8
30499.8
30514.7
30532.1
30551.9
30579.5
30563.5
30404.6
30425.5
30484.7
30523.1
30544.6
30559.4
30571.6
30582.5
30592.7
30602.8
30613.1
30623.7
30634.7
30646.2
30657.9
30669.9
30681.8
30693.5
30704.2
30712.5
30714.2
30701.1
30657.8
30560.1
30374.3
30060
29572.5
28870.7
27960.7
30338.6
30339.8
30342.6
30347
30352.7
30359.3
30366.6
30374.6
30383
30391.7
30400.6
30409.8
30419.4
30429.3
30439.8
30450.6
30461.9
30473.4
30485.3
30497.2
30509.1
30519.9
30526.7
30520.8
30502.4
30472.1
30471.2
30496.6
30521.7
30540.3
30554.4
30566.6
30577.7
30588.5
30599.2
30610.3
30621.9
30634.2
30647
30660.5
30674.6
30689.1
30703.9
30718.7
30732.3
30741.3
30738.2
30707.4
30623.9
30451.6
30146.5
29660.2
28947.6
27994.8
30339
30340.2
30343
30347.4
30353
30359.5
30366.9
30374.8
30383.2
30391.8
30400.8
30410
30419.6
30429.5
30440
30450.8
30462.1
30473.6
30485.3
30497.3
30509.1
30520.1
30526.8
30522
30503.3
30472.6
30471.1
30496.5
30521.8
30540.5
30554.9
30567.1
30578.3
30589.1
30599.8
30610.9
30622.5
30634.8
30647.6
30661.2
30675.2
30689.8
30704.7
30719.5
30733
30741.4
30736.7
30702.9
30614.7
30436.3
30124.1
29630.4
28914
27977.5
30339.1
30340.3
30343.1
30347.5
30353.1
30359.6
30366.9
30374.8
30383.1
30391.7
30400.6
30409.7
30419.2
30429.1
30439.4
30450.1
30461
30472.2
30483.3
30494.1
30504
30511.8
30515.1
30511.8
30503
30492.8
30493.6
30507
30524
30539.2
30552.2
30563.9
30575.1
30586.1
30597.4
30609.2
30621.7
30635.2
30649.7
30665.2
30681.7
30699.4
30718.3
30738.3
30758.8
30776.9
30785.1
30767.8
30698.2
30537.4
30236.8
29743.8
29009.9
28018.8
30339.5
30340.7
30343.5
30347.8
30353.3
30359.9
30367.1
30375
30383.3
30391.9
30400.8
30409.9
30419.4
30429.3
30439.6
30450.3
30461.2
30472.3
30483.4
30494.1
30504
30511.6
30515
30511.8
30503.6
30493.4
30493.9
30507
30523.9
30539.2
30552.4
30564.2
30575.4
30586.5
30597.8
30609.6
30622.2
30635.7
30650.2
30665.7
30682.3
30700.1
30719.1
30739.3
30759.7
30777.3
30784
30763.6
30689.1
30521.9
30214
29713.5
28975.6
28001.5
30339.7
30340.9
30343.6
30347.9
30353.5
30359.9
30367.2
30375
30383.2
30391.8
30400.6
30409.7
30419
30428.8
30438.9
30449.4
30460.1
30470.7
30481.2
30491.1
30499.8
30506.3
30509.3
30508.1
30504.7
30502.1
30505.1
30514.6
30527.1
30539.7
30551.6
30562.8
30573.9
30585.1
30596.8
30609.3
30622.8
30637.6
30653.8
30671.5
30691
30712.5
30736.3
30763
30792.2
30822
30845
30845.7
30795.4
30651.6
30360.1
29860.4
29099
28053.6
30340.1
30341.3
30344
30348.3
30353.8
30360.2
30367.4
30375.2
30383.4
30392
30400.8
30409.8
30419.2
30429
30439.2
30449.6
30460.2
30470.8
30481.2
30491
30499.6
30506.1
30508.9
30508.1
30504.9
30502.6
30505.5
30514.7
30527.1
30539.8
30551.7
30563
30574.1
30585.4
30597.1
30609.7
30623.3
30638.1
30654.3
30672.1
30691.7
30713.3
30737.4
30764.3
30793.7
30823
30844.7
30842.1
30786.5
30635.6
30336
29828.1
29063.2
28035.2
30340.3
30341.5
30344.2
30348.5
30353.9
30360.3
30367.5
30375.2
30383.4
30391.9
30400.6
30409.6
30418.9
30428.5
30438.5
30448.7
30459
30469.3
30479.1
30488.3
30496.4
30502.5
30506.1
30507
30506.8
30507.8
30512.1
30520.1
30530.3
30541.2
30552
30562.8
30573.7
30585.1
30597.3
30610.5
30625
30641.2
30659.3
30679.6
30702.4
30728.4
30758.3
30793.1
30833.2
30877.3
30919
30942.2
30916.9
30797.1
30521
30018.1
29223.1
28103
30340.7
30341.8
30344.5
30348.8
30354.2
30360.6
30367.7
30375.4
30383.6
30392.1
30400.8
30409.8
30419.1
30428.7
30438.7
30448.9
30459.2
30469.4
30479.2
30488.3
30496.3
30502.3
30505.8
30506.8
30506.9
30508.1
30512.4
30520.2
30530.3
30541.2
30552.1
30562.9
30573.9
30585.4
30597.6
30610.8
30625.4
30641.7
30659.8
30680.2
30703.2
30729.4
30759.6
30794.7
30835.1
30878.9
30919.1
30938.9
30908.3
30781
30496.7
29985.5
29185.9
28084.5
30340.9
30342.1
30344.8
30349
30354.4
30360.8
30367.8
30375.5
30383.6
30392
30400.7
30409.6
30418.8
30428.3
30438.1
30448.1
30458.1
30467.9
30477.3
30486
30493.7
30499.9
30504.2
30506.8
30508.8
30511.7
30516.8
30524.1
30533.1
30542.8
30553
30563.4
30574.2
30585.8
30598.4
30612.3
30628
30645.6
30665.8
30688.8
30715.5
30746.6
30783.6
30827.9
30881
30942.1
31006.2
31057.5
31065.7
30981.4
30734.5
30236.6
29402.9
28176.8
30341.3
30342.5
30345.1
30349.3
30354.7
30361
30368.1
30375.7
30383.8
30392.2
30400.9
30409.8
30419
30428.5
30438.3
30448.2
30458.2
30467.9
30477.3
30486
30493.6
30499.7
30503.9
30506.6
30508.8
30511.9
30516.9
30524.2
30533.1
30542.9
30553
30563.5
30574.4
30586
30598.7
30612.7
30628.4
30646.2
30666.4
30689.6
30716.4
30747.9
30785.3
30830.1
30883.6
30944.7
31007.3
31055.4
31057.9
30965.7
30709.4
30201.2
29363.4
28156.3
30341.6
30342.8
30345.4
30349.6
30354.9
30361.2
30368.2
30375.8
30383.8
30392.2
30400.8
30409.6
30418.7
30428.1
30437.7
30447.4
30457.1
30466.6
30475.7
30484.1
30491.7
30498.1
30503
30506.9
30510.3
30514.5
30520
30527.1
30535.4
30544.5
30554.1
30564.3
30575.2
30587
30600
30614.7
30631.5
30650.8
30673.2
30699.3
30730.2
30767.3
30812.4
30867.9
30935.8
31016.8
31106.9
31192.3
31243.7
31210.5
31013.9
30540.6
29665.3
28287.4
30342
30343.1
30345.8
30349.9
30355.2
30361.5
30368.5
30376
30384
30392.4
30401
30409.8
30418.9
30428.3
30437.9
30447.6
30457.2
30466.7
30475.7
30484.1
30491.7
30497.9
30502.9
30506.7
30510.3
30514.6
30520.2
30527.2
30535.5
30544.6
30554.2
30564.4
30575.3
30587.2
30600.3
30615.1
30632
30651.3
30673.8
30700.1
30731.3
30768.7
30814.3
30870.4
30938.8
31019.7
31108.6
31190.8
31236.8
31196.3
30990.6
30506.7
29623.5
28266.4
30342.4
30343.5
30346.1
30350.2
30355.5
30361.7
30368.7
30376.2
30384.1
30392.4
30400.9
30409.7
30418.7
30427.9
30437.3
30446.8
30456.3
30465.5
30474.3
30482.6
30490.2
30496.7
30502.3
30507
30511.5
30516.4
30522.4
30529.4
30537.3
30546
30555.4
30565.4
30576.3
30588.4
30601.9
30617.4
30635.4
30656.3
30681
30710.4
30745.9
30789.4
30843.5
30911.1
30995.3
31098
31217.6
31344.1
31453.4
31499
31392.5
30980.3
30066.7
28462.8
30342.7
30343.8
30346.4
30350.5
30355.8
30362
30368.9
30376.4
30384.3
30392.6
30401.1
30409.8
30418.8
30428.1
30437.5
30447
30456.4
30465.6
30474.4
30482.7
30490.1
30496.7
30502.2
30506.9
30511.5
30516.5
30522.5
30529.5
30537.4
30546.1
30555.5
30565.5
30576.5
30588.6
30602.3
30617.9
30635.9
30657
30681.8
30711.4
30747.3
30791.3
30846
30914.2
30999
31101.9
31220.8
31344.9
31450
31488.8
31371.1
30942.3
30020.3
28437.2
30343.1
30344.2
30346.8
30350.9
30356.1
30362.2
30369.1
30376.6
30384.4
30392.6
30401.1
30409.8
30418.7
30427.8
30437
30446.3
30455.6
30464.6
30473.3
30481.5
30489
30495.8
30501.8
30507.1
30512.3
30517.8
30524.1
30531.1
30538.9
30547.4
30556.6
30566.6
30577.6
30590
30604.1
30620.4
30639.5
30662.1
30689.2
30722.1
30762.5
30813
30876.7
30957.3
31058.7
31184.7
31337.2
31512.6
31697.1
31854.6
31896.7
31625.7
30702.5
28750.1
30343.5
30344.6
30347.1
30351.2
30356.4
30362.5
30369.3
30376.8
30384.6
30392.8
30401.3
30409.9
30418.8
30427.9
30437.2
30446.5
30455.7
30464.7
30473.3
30481.5
30489
30495.8
30501.7
30507
30512.3
30517.9
30524.1
30531.1
30538.9
30547.4
30556.7
30566.7
30577.8
30590.2
30604.4
30620.8
30640
30662.8
30690.1
30723.2
30764
30815
30879.3
30960.5
31062.5
31188.8
31341
31515.1
31697
31849.7
31882.9
31596.5
30657.1
28724.9
30343.9
30344.9
30347.5
30351.5
30356.7
30362.8
30369.6
30377
30384.8
30392.9
30401.3
30409.9
30418.7
30427.7
30436.8
30446
30455
30463.9
30472.4
30480.6
30488.2
30495.1
30501.4
30507.2
30512.8
30518.8
30525.2
30532.3
30540.1
30548.5
30557.6
30567.7
30578.9
30591.6
30606.2
30623.3
30643.5
30667.8
30697.2
30733.4
30778.7
30836.1
30909.3
31002.4
31120.5
31269.6
31456.8
31688.8
31970.7
32294.6
32590.1
32627.7
31786.3
29268.1
30344.2
30345.3
30347.8
30351.8
30356.9
30363
30369.8
30377.2
30384.9
30393.1
30401.5
30410.1
30418.9
30427.9
30437
30446.1
30455.1
30463.9
30472.5
30480.6
30488.2
30495.1
30501.3
30507.1
30512.8
30518.8
30525.3
30532.4
30540.1
30548.6
30557.8
30567.8
30579.1
30591.8
30606.5
30623.7
30644.1
30668.5
30698.2
30734.7
30780.5
30838.4
30912.2
31006.1
31125
31275.1
31463.2
31696.6
31980.1
32303.7
32588.5
32602.4
31743.4
29239.5
30344.6
30345.7
30348.2
30352.2
30357.3
30363.3
30370
30377.4
30385.1
30393.2
30401.5
30410.1
30418.8
30427.7
30436.7
30445.7
30454.6
30463.3
30471.8
30479.9
30487.6
30494.6
30501.1
30507.2
30513.2
30519.4
30526.1
30533.3
30541
30549.4
30558.6
30568.7
30580.1
30593.1
30608.2
30626
30647.3
30673.1
30704.8
30744.3
30794.3
30858.3
30940.4
31045.3
31179.3
31351.3
31575.2
31872.2
32273
32806.1
33459.9
34115.3
33670.2
30262.4
30345
30346
30348.5
30352.4
30357.5
30363.5
30370.3
30377.6
30385.3
30393.4
30401.7
30410.2
30419
30427.8
30436.8
30445.8
30454.7
30463.4
30471.9
30480
30487.6
30494.6
30501.1
30507.2
30513.2
30519.4
30526.1
30533.3
30541.1
30549.5
30558.7
30568.9
30580.3
30593.4
30608.6
30626.5
30647.9
30673.9
30705.8
30745.6
30796.1
30860.6
30943.2
31048.7
31183.6
31356.9
31583
31883.5
32289.1
32824.3
33473.5
34128.9
33677.1
30256.6
30345.4
30346.4
30348.9
30352.8
30357.8
30363.8
30370.5
30377.8
30385.5
30393.5
30401.8
30410.3
30418.9
30427.7
30436.6
30445.5
30454.3
30463
30471.4
30479.5
30487.2
30494.3
30500.9
30507.2
30513.4
30519.8
30526.6
30533.9
30541.7
30550.1
30559.3
30569.5
30581.1
30594.4
30609.9
30628.3
30650.5
30677.6
30711.2
30753.4
30807.4
30876.8
30966.1
31080.6
31227.5
31419.1
31676.8
32037.5
32561.5
33332
34459.2
36095.9
36519.7
32238.7
30345.7
30346.7
30349.2
30353
30358.1
30364
30370.7
30377.9
30385.6
30393.6
30401.9
30410.4
30419.1
30427.9
30436.8
30445.6
30454.4
30463.1
30471.5
30479.6
30487.2
30494.3
30500.9
30507.2
30513.4
30519.8
30526.6
30533.9
30541.7
30550.2
30559.4
30569.7
30581.3
30594.7
30610.3
30628.8
30651.2
30678.5
30712.3
30754.9
30809.3
30879.3
30969.2
31084.3
31232.5
31426.5
31688.6
32057.2
32593
33376.1
34521.3
36167.4
36561.6
32227.6
30346.2
30347.1
30349.5
30353.3
30358.3
30364.2
30370.9
30378.1
30385.8
30393.8
30402
30410.4
30419.1
30427.8
30436.6
30445.5
30454.2
30462.8
30471.2
30479.3
30486.9
30494.1
30500.7
30507.1
30513.5
30520
30526.9
30534.3
30542.1
30550.6
30559.9
30570.2
30581.9
30595.4
30611.3
30630.2
30653.1
30681.2
30716.4
30760.8
30817.9
30891.5
30986.3
31108
31265.4
31474
31763.2
32186.7
32833.7
33837.9
35370.6
37545.3
39047.9
39615.6
30346.4
30347.4
30349.8
30353.6
30358.6
30364.5
30371.1
30378.3
30385.9
30393.9
30402.1
30410.6
30419.2
30428
30436.8
30445.6
30454.3
30462.9
30471.3
30479.3
30486.9
30494
30500.7
30507.1
30513.5
30520.1
30527
30534.3
30542.2
30550.7
30560
30570.4
30582.2
30595.7
30611.7
30630.8
30653.8
30682.2
30717.5
30762.4
30819.9
30894
30989.4
31111.9
31270.8
31482.5
31777.8
32212.2
32875
33902.4
35449.4
37633.4
39177.6
39611.5
30346.8
30347.8
30350.2
30353.9
30358.9
30364.7
30371.3
30378.5
30386.1
30394
30402.2
30410.6
30419.2
30427.9
30436.6
30445.4
30454.1
30462.7
30471
30479
30486.6
30493.8
30500.5
30507
30513.4
30520.1
30527
30534.5
30542.4
30550.9
30560.3
30570.7
30582.6
30596.2
30612.3
30631.6
30655
30683.9
30720.1
30766.2
30825.3
30901.6
30999.7
31125.9
31290.2
31510.4
31823
32293.8
33026.9
34155
35774.6
37900.8
40190.6
46150.7
30347.2
30348.2
30350.5
30354.3
30359.1
30365
30371.5
30378.6
30386.2
30394.1
30402.3
30410.7
30419.3
30428
30436.8
30445.5
30454.2
30462.7
30471
30479.1
30486.6
30493.8
30500.5
30507
30513.4
30520.1
30527.1
30534.5
30542.5
30551.1
30560.5
30571
30582.8
30596.6
30612.8
30632.2
30655.8
30684.9
30721.5
30768.1
30827.8
30904.6
31003.4
31130.6
31297.2
31521.9
31843.3
32329.8
33086.3
34238.4
35887.7
38072.9
40307.4
45695.9
30626.9
30620.9
30603.5
30772.2
30773.2
30235.1
30616.5
30251.6
29959.3
30050.8
30610.6
30621.8
30628.8
30779.4
30777
30256.3
30642.6
30249.7
30058.2
30008.8
30783.3
30620
30641.5
30622.8
30632.5
29917.6
30053
30659.2
30243
30656.8
30245.6
30782.8
30624.1
30637.5
30625.2
30645.2
30012.5
30007.3
30664.7
30244.7
30660.8
30255.4
30538
30541.5
30536.6
30572.4
30576
30572.1
30573.8
30475.1
30518.1
30474.2
30547.4
30449.6
30544.9
30450.6
30537.5
30542.3
30538.6
30573.2
30575.7
30574.2
30580
30475.9
30521.1
30477
30548.8
30454
30553.5
30454.1
30604
30569.2
30606.4
30586
30654
30586.4
30657.9
30421.5
30590.3
30641.7
30594.9
30529.8
30245.2
30160.1
30244.2
30028.2
30130.3
30029.2
30128
30607.3
30569.7
30607.3
30587.6
30659.9
30588.3
30660
30455.8
30595.5
30632.1
30601.4
30447.4
30246.9
30164.9
30244.1
30040.2
30128.6
30038.5
30128.3
30656.5
30589.3
30662.2
30572.3
30608.5
30573.5
30611.8
30851.5
30790.5
30740.3
30750.6
30841.8
30595.5
30685.5
30124
30012.6
30118.6
30161.7
30242.8
30153.2
30237.2
30662.8
30590.6
30663.8
30573.9
30612.9
30575.1
30613.4
30850.9
30789.5
30747.5
30850.6
30752.5
30622.6
30650.7
30116.3
30031.7
30118.1
30159
30232.1
30151.6
30232
30585.6
30578.8
30585.7
30548.2
30546.4
30549.1
30547.5
30460.7
30562.7
30459.6
30528.4
30481.6
30529.4
30481.8
30588.5
30581.2
30590.2
30550.1
30549
30551
30550.2
30460
30566.3
30462.2
30530.5
30481.9
30531.3
30482.2
30774.3
30631.7
30623.5
30631.2
30759.9
30775
30613.2
30622.8
30627.3
30768.7
30858.1
30738.9
30791.2
30748.1
30844.5
30915.1
30901.5
30855
30741.3
30785.9
30746.9
30851.6
30917.5
30908.5
30426.5
30622.9
30586.7
30584
30434.5
30463.6
30631
30260
29963
30021.3
29963
30283.4
30440.6
30518.1
30258.8
29974.8
29998.1
29967.7
30272.5
30776.7
30626.4
30620.3
30630.4
30769.5
30779.2
30628.3
30635
30635.2
30765.8
30855.8
30745.5
30789.1
30855.1
30748.6
30916.8
30909.2
30866.8
30746
30797.6
30757
30854.2
30919.4
30907.7
30426.8
30650.4
30597.4
30604
30538.4
30462.7
30548.1
30274.6
29983
30023.7
30281.6
29993.3
30455
30644.5
30231
29983
30049.1
29970.7
30291.2
30900.8
30893.8
30851.4
30792.4
30749.9
30752.8
30851.1
30905.8
30892.7
30770.8
30640.5
30642
30641
30763.7
30773.2
30638.3
30636.7
30763.8
30639.6
30282.4
30023.3
29948.2
29943.4
30262.7
30529.4
30632.7
30282.2
30005.4
29966
29956.3
30302.5
30419.2
30618.8
30674.2
30626.1
30524.5
30437.1
30660.4
30620.8
30457
30620.5
30902.3
30896.9
30859.6
30804
30750.3
30761.6
30851.5
30904.6
30897.8
30772.4
30639.6
30644.3
30769.4
30642.6
30775.9
30647.3
30645.2
30645.9
30767.3
30315.3
30017.7
29976.8
30302.4
29982.4
30551.6
30690.9
30272.8
30058.1
29984.9
29970.6
30296.9
30458.1
30620.8
30668
30441.8
30629.8
30448
30676.2
30624
30631.6
30549.5
30715.8
30636.5
30622.3
30672.5
30640.2
30680.2
30716.1
30714.9
30636.6
30624.9
30677.8
30640.5
30715.1
30682.3
30713.7
30623.6
30635.7
30677.4
30639.1
30681.5
30715
30157
30329.3
30217.3
30060.7
30310.6
30044
30170
30174.1
30229.3
30344.9
30079.9
30323
30055.7
30173.1
30722.2
30626.3
30640.3
30678.4
30644.5
30686.8
30722.2
30196.3
30349.9
30247.2
30085.4
30339.7
30179.8
30076
30154.2
30225.9
30338.4
30068
30316.5
30047.1
30171.4
30713
30673
30638.9
30623.7
30680.8
30642.7
30715.8
30712.3
30678.2
30626
30639.1
30683.2
30713.3
30643.3
30129.6
30059
30338.1
30219.2
30036.3
30313.7
30154.3
30164.2
30072.6
30227.6
30344.8
30051.5
30164.5
30329.2
30713.2
30679.9
30641.4
30627.1
30716.3
30684
30644.8
30720.4
30680.4
30629.4
30644.4
30688.6
30648.7
30722.3
30169.9
30069.9
30338.2
30236.4
30152
30063.1
30332.7
30159.7
30079.8
30227.6
30356.6
30050.9
30327.5
30187.2
30785.9
30473
30574
30430
30479.3
30742.8
30634.5
30768.2
30669.1
30657.1
30772.4
30748.9
30640.4
30644.6
30728.7
30804.6
30510.6
30538.7
30739.4
30509.2
30659.2
30788.6
30764.2
30505.8
30491.7
30588.9
30523
30748.6
30651
30702.2
30606.8
30703.6
30607.6
30749.4
30470
30491.1
30596.9
30744.1
30507.4
30617.5
30713.4
30630.9
30621.7
30720.9
30903.7
31005.9
30801.6