/*--------------------------------*- C++ -*----------------------------------*\
| =========                 |                                                 |
| \\      /  F ield         | OpenFOAM: The Open Source CFD Toolbox           |
|  \\    /   O peration     | Version:  4.1                                   |
|   \\  /    A nd           | Web:      www.OpenFOAM.org                      |
|    \\/     M anipulation  |                                                 |
\*---------------------------------------------------------------------------*/
FoamFile
{
    version     2.0;
    format      ascii;
    class       volScalarField;
    location    "24";
    object      p;
}
// * * * * * * * * * * * * * * * * * * * * * * * * * * * * * * * * * * * * * //

dimensions      [0 2 -2 0 0 0 0];

internalField   nonuniform List<scalar> 
4432
(
100034
100033
100027
100018
100010
100003
99998.8
99998.3
100001
100005
100009
100012
100013
100011
100004
99995
99980.9
99965.1
99973.6
100013
100130
100192
100134
100173
100292
100344
100264
100101
99900.1
99677.2
99455.4
99249.1
99259.7
99385.1
99542.2
99442.6
99058
99042.6
99037.3
99002.5
98973.1
98869.9
98936.8
99067.1
99253.1
100027
99837.9
99198.2
99277.1
100413
101987
100047
88584.8
82914.1
100033
100032
100026
100018
100009
100002
99998.7
99998.3
100001
100005
100009
100012
100013
100011
100005
99995.9
99980.4
99964.9
99968.6
100002
100089
100218
100238
100211
100225
100304
100277
100058
99830.2
99659.8
99512
99324.8
99334.1
99285
99233.6
99227.8
99232.6
99148.9
98998.2
98899.5
98839.7
98862.4
98987.3
99050.1
98918.9
99628.2
99811.6
99251.8
99503.5
100429
102372
101060
88623.2
81956.3
100032
100029
100022
100013
100004
99996
99991.7
99991
99993.6
99998.6
100005
100011
100017
100020
100022
100021
100017
100001
100013
100086
100154
100196
100212
100238
100247
100215
100132
100007
99842.4
99645.6
99428.7
99173.2
98975
98958.5
98989.7
99003.4
99084
99090.5
99023.5
98965.2
98850.6
98778.8
98817.5
98962
99131.6
99423.3
99526.6
99072
99007.2
99527.2
101412
99720.2
85545.3
93050
100031
100028
100021
100012
100003
99995.8
99991.7
99991.2
99994
99999.1
100005
100012
100017
100020
100022
100022
100018
100000
100015
100088
100160
100198
100207
100221
100236
100215
100144
100012
99838.9
99665.9
99452.7
99196.7
99000
98985.9
99080.1
99101.4
99115.8
99068.5
98999.9
98875.7
98731.6
98670.2
98703.5
98912.1
99084.4
99394.4
99587.9
99358.3
99682.8
100428
101952
100667
85989
93437.5
100029
100028
100021
100012
100003
99995.5
99991
99990.1
99992.5
99997.5
100004
100012
100020
100029
100037
100040
100039
99989.5
100007
100102
100169
100195
100204
100221
100244
100249
100199
100065
99862.8
99612.1
99292.2
98961.9
98775
98830.1
98909.4
99011.2
99166.2
99281.3
99313.8
99238.1
98995.3
98897.2
98968.8
99050.8
99156.4
99107.6
99118.9
98871.6
98826.3
98352.6
97149.2
95737.8
91622.8
98059.7
100029
100026
100020
100011
100003
99995.3
99991.1
99990.4
99992.9
99997.9
100005
100012
100021
100029
100037
100042
100042
99990.2
99998.9
100104
100168
100194
100212
100235
100256
100255
100194
100051
99846.5
99608.5
99286.9
98926.1
98712
98767.2
98951.2
99096.8
99214.9
99301.9
99314.3
99166.7
98930.9
98762.8
98761.2
98892.2
99013.1
99071.1
99057.7
98973.5
99079.6
99064
98363.3
97805.4
92128
97940.1
100027
100025
100018
100009
99999.9
99992.3
99987.8
99986.9
99989.5
99994.9
100002
100011
100021
100032
100041
100045
100039
99996.5
100007
100118
100180
100196
100208
100233
100277
100307
100269
100105
99858.1
99581.5
99263.9
98987.7
98854.4
98808.9
98813.8
99025.6
99190.3
99335.2
99437.4
99345.4
99020.7
98847.1
98852
98897.6
98967
98996.8
99202
99083.4
99179.2
99585.5
99539.9
97837.9
93330.6
93929.1
100026
100024
100017
100009
99999.5
99992.1
99987.8
99987.2
99989.9
99995.4
100003
100012
100022
100032
100042
100046
100037
99994
100005
100122
100182
100199
100215
100248
100292
100323
100273
100102
99855.9
99561.2
99222.2
98937
98784.6
98803.1
98931.1
99150.3
99292.5
99424.8
99511.4
99351.3
99037.8
98839
98789.1
98763.6
98815.8
98852.4
98846.7
98887.6
98942.3
99749
100209
99059.1
93008.7
93365.3
100023
100021
100015
100006
99996.5
99989
99984.7
99984
99986.8
99992.5
100000
100009
100020
100030
100039
100042
100040
100027
100015
100121
100196
100221
100227
100243
100288
100340
100350
100237
100014
99741.6
99472.3
99297.3
99231.8
99237.2
99429.8
99501.1
99357.4
99373.1
99417.8
99331.2
99140.2
98887.8
98699.1
98684.9
98887.2
99243.1
99334.3
99189
99195.8
99645.3
100458
98889.1
94494.3
98541
100022
100020
100014
100005
99996.1
99988.8
99984.7
99984.3
99987.3
99993
100001
100010
100020
100030
100039
100042
100038
100020
100027
100118
100198
100228
100233
100248
100302
100361
100358
100229
100012
99737.1
99469.5
99299.6
99243.3
99220
99394.5
99395.9
99384.7
99462.1
99522.6
99386.2
99110.7
98946.6
98765.1
98679.2
98722.7
98834.6
98911.9
98986.5
99150.9
99833.4
100879
100102
94352.2
97316
100019
100017
100011
100002
99992.7
99985.4
99981.2
99980.7
99983.6
99989.3
99996.9
100006
100015
100025
100033
100038
100042
100044
100055
100115
100186
100240
100251
100246
100287
100351
100387
100358
100233
100049
99840
99694.2
99694.1
99991.5
100366
99534.4
99384.9
99380.1
99401.2
99277.3
99066.8
98793.8
98765.1
98690.9
98775.8
99245.7
99374.9
99355.3
99304.3
99494.4
99904.2
98325.9
94935.2
98020.1
100018
100016
100010
100001
99992.3
99985.3
99981.3
99981
99984.1
99989.8
99997.5
100006
100016
100025
100034
100039
100043
100046
100060
100111
100186
100239
100248
100255
100295
100355
100386
100341
100228
100062
99857.4
99698.4
99683.4
99777.6
99730.4
99518.3
99417
99445.1
99482
99374.9
99124.8
98969.6
98802.9
98753.5
98861.8
99044.6
99147.3
99223.6
99345.2
99723.9
100247
98749.1
95042.6
98719.9
100014
100012
100006
99997.3
99988.5
99981.4
99977.4
99977
99979.9
99985.4
99992.7
100001
100010
100020
100029
100038
100046
100059
100083
100122
100182
100241
100254
100236
100250
100321
100383
100410
100383
100263
100074
99919.5
99925.8
100200
99819.2
100107
99396.4
99369.3
99452.5
99452.9
99276.5
99153.1
99067.4
98917.7
98849.3
99084.3
99287.2
99450.2
99485.1
99504.1
99648.7
98589.6
95958.4
97220.2
100013
100011
100005
99996.8
99988.1
99981.3
99977.6
99977.3
99980.4
99985.9
99993.3
100002
100011
100021
100030
100038
100047
100060
100079
100120
100184
100247
100250
100233
100264
100326
100374
100385
100364
100282
100101
99919.3
99846.1
99879.9
99695.5
99450.5
99317.6
99412
99507.3
99477.2
99338
99239.8
99104.5
98970.8
99019.9
99231.8
99343
99442.8
99547
99628.4
99679.9
98387.2
95849.2
97335.6
100009
100007
100001
99992.5
99984
99977.1
99973.3
99973
99975.9
99981.1
99988.1
99996.2
100005
100015
100026
100037
100050
100066
100088
100117
100164
100228
100264
100234
100175
100250
100333
100369
100348
100257
100120
99933.4
99799.6
99768.8
99532.3
99320.5
99347.4
99487.6
99619.7
99713
99625.8
99503.3
99373.1
99129.5
98907.4
98979.2
99219.9
99515.5
99657.3
99640
99851.8
99131.4
96403.8
98653.9
100008
100006
100000
99992
99983.7
99977.1
99973.5
99973.4
99976.3
99981.7
99988.7
99996.9
100006
100016
100027
100038
100051
100066
100086
100116
100163
100224
100252
100232
100215
100265
100323
100342
100341
100287
100141
99951.9
99806.4
99684.9
99498.3
99348
99349.9
99493.7
99640.9
99690.5
99612.2
99502.5
99307.4
99057.5
99039.9
99243.9
99429.6
99583.4
99643.7
99740.8
99994.9
99076.1
96218.4
98424
100003
100002
99995.7
99987.5
99979.2
99972.6
99969
99968.8
99971.6
99976.6
99983.3
99991.3
100000
100011
100023
100037
100052
100069
100089
100114
100148
100192
100231
100216
100147
100182
100261
100271
100245
100163
100037
99885.5
99760.3
99638
99467.4
99391.8
99436.8
99610.5
99814.6
99956.2
99959.7
99805.3
99578.2
99286.8
98978.9
98893.7
99081.3
99402.9
99575.6
99552.2
99575
98759.2
96284
98405.3
100003
100001
99994.9
99987
99978.9
99972.6
99969.2
99969.1
99972
99977.2
99983.9
99992
100001
100012
100024
100038
100053
100069
100089
100113
100146
100186
100224
100229
100184
100199
100240
100232
100219
100170
100059
99910
99763.5
99632.6
99480.1
99399.5
99472.1
99618.4
99785
99901.2
99897.7
99758.8
99479.5
99149.6
99006.4
99078
99295.1
99493.8
99650.6
99823.7
99945.6
98876.2
96037.2
98411.2
99997.6
99995.8
99990
99982.2
99974.1
99967.9
99964.5
99964.3
99967
99971.8
99978.3
99986
99995.3
100006
100020
100035
100052
100069
100088
100108
100131
100153
100175
100173
100116
100096
100119
100136
100139
100094
99998.6
99878.8
99762
99654.3
99551
99512.7
99598.3
99756
99941.1
100108
100188
100058
99733.6
99350.1
98986.7
98762
98760.7
98987.6
99140.9
99027.6
98864.7
98331.8
97480.1
99391.3
99997.1
99995
99989.4
99981.7
99973.9
99967.8
99964.7
99964.6
99967.4
99972.3
99978.9
99986.8
99996.2
100007
100021
100036
100052
100070
100088
100107
100129
100151
100170
100171
100135
100107
100126
100137
100123
100076
99993.2
99882.5
99764.5
99666.4
99581.9
99536.3
99616.5
99757.1
99919
100046
100080
99952.8
99629.8
99230.5
98970.3
98893.3
98967.7
99237.5
99533.4
99626.9
99514.8
98720.5
96852.3
98246.2
99991.6
99989.8
99984.3
99976.7
99969
99963
99959.8
99959.6
99962.2
99966.8
99973
99980.5
99989.8
100001
100015
100032
100049
100067
100084
100100
100113
100118
100125
100114
100052
99993
99996.5
100036
100056
100027
99959.3
99873
99780.2
99704.2
99650
99634.6
99707.9
99859.4
100024
100153
100213
100160
99898.7
99484.7
98973.2
98642
98560.5
98680.9
98701.5
98484.9
98310.8
98044.9
97641.1
96103.9
99991.1
99989
99983.6
99976.2
99968.7
99963
99959.9
99959.9
99962.6
99967.3
99973.5
99981.2
99990.7
100002
100016
100032
100050
100067
100084
100099
100112
100121
100124
100104
100053
100004
100012
100049
100056
100018
99950.4
99867.4
99781.7
99715.4
99675.5
99663.5
99740.9
99876.2
100016
100118
100142
100045
99778.3
99321.1
98895
98676.6
98669.4
98849
99076.6
99165.3
99110.2
98849.7
97437
95531
99985.3
99983.6
99978.3
99971
99963.6
99957.9
99954.8
99954.6
99957
99961.2
99967
99974.3
99983.3
99994.7
100009
100025
100044
100061
100078
100091
100101
100103
100090
100044
99941
99862.2
99890.5
99962.1
99999.5
99984
99933.5
99870.6
99808.8
99760.6
99734.9
99739.3
99800.5
99912.8
100034
100121
100147
100090
99962.4
99707.9
99216.6
98774.5
98586.4
98643.1
98647.2
98429.3
98194.1
98080.6
97858.8
96438.9
99984.9
99982.9
99977.7
99970.6
99963.4
99957.9
99955
99954.9
99957.3
99961.7
99967.6
99974.9
99984.1
99995.6
100010
100026
100044
100061
100077
100090
100100
100103
100089
100038
99935.5
99863.4
99895.5
99965.2
99997
99978.9
99926.8
99864.7
99807
99765.9
99749.6
99759.9
99824
99934.5
100047
100118
100115
100021
99820.4
99469.7
99024
98679.7
98546.8
98596.5
98702.7
98727.5
98753.1
98935.3
98144.9
98160.5
99979.1
99977.4
99972.3
99965.2
99958.1
99952.6
99949.6
99949.3
99951.4
99955.2
99960.4
99967
99975.5
99986.3
99999.9
100016
100034
100052
100069
100084
100096
100099
100073
99982.4
99772
99671.6
99786.8
99918
99982
99984.3
99952
99909.1
99871
99847.1
99843.1
99861.8
99907.4
99970.2
100031
100059
100042
99975.1
99851.9
99678.6
99364.5
98991.9
98750.5
98720.6
98773.3
98695.5
98479.3
98078.1
97731.5
95859
99978.7
99976.7
99971.7
99964.8
99957.9
99952.6
99949.8
99949.6
99951.7
99955.6
99960.9
99967.7
99976.2
99987.1
100001
100017
100034
100051
100068
100083
100096
100098
100073
99966.4
99753.6
99664.3
99789.2
99920.4
99979.5
99979.5
99946.7
99902.4
99865.1
99844.4
99845.6
99868.2
99915.5
99979.4
100040
100063
100028
99930.2
99758.9
99509.3
99183.9
98872.5
98685.2
98649.7
98689.4
98665.5
98521.9
98193.1
97753.6
95619.7
99972.7
99971
99966.1
99959.3
99952.5
99947.2
99944.2
99943.6
99945.2
99948.4
99952.8
99958.5
99965.9
99975.6
99987.9
100003
100019
100036
100054
100074
100099
100123
100123
99988.8
99549.2
99405.2
99713.1
99908.6
99991.1
100006
99990.4
99967.1
99950.3
99950.1
99971
100007
100044
100069
100070
100029
99955.8
99860.7
99739.5
99583.8
99376
99133.7
98934.4
98831.7
98795.3
98702.4
98471.6
97947
97319.8
95465
99972.3
99970.4
99965.6
99959
99952.3
99947.2
99944.3
99943.9
99945.5
99948.8
99953.3
99959.1
99966.6
99976.3
99988.6
100003
100019
100036
100053
100073
100097
100122
100123
99976.1
99510.1
99414.5
99729.5
99918.5
99996.5
100006
99989.2
99964.4
99947.2
99948.9
99972.2
100016
100056
100077
100081
100031
99945.7
99836.4
99695.5
99512.6
99287.6
99058
98883.9
98792
98746.2
98645
98403
97854.2
97153.9
95274.9
99966.3
99964.7
99960
99953.4
99946.8
99941.6
99938.5
99937.6
99938.6
99940.9
99944.3
99948.7
99954.6
99962.4
99972.6
99984.8
99998.5
100013
100029
100049
100084
100158
100257
100240
98844.9
99110.2
99753.5
99998.6
100071
100069
100046
100025
100018
100036
100081
100154
100211
100216
100170
100054
99915.8
99789.5
99669.3
99539.1
99388
99221.9
99066.8
98941.1
98830.4
98667.6
98377.3
97843.5
97053.4
95496.2
99966
99964.1
99959.5
99953.1
99946.6
99941.5
99938.6
99937.8
99938.9
99941.3
99944.7
99949.2
99955.2
99963.1
99973.1
99985.1
99998.4
100012
100027
100047
100078
100147
100240
100125
98415.1
99175.9
99835.5
100049
100103
100087
100056
100031
100021
100039
100095
100202
100253
100231
100182
100043
99891.7
99761.4
99638.7
99503
99346.2
99179.5
99028.5
98905.4
98789.3
98615.8
98313
97771.7
96967.6
95430.1
99959.9
99958.4
99953.8
99947.4
99941
99935.8
99932.5
99931.1
99931.4
99932.7
99934.8
99937.6
99941.5
99946.9
99954.1
99962.6
99971.8
99980.6
99988.6
99997.5
100010
100035
100171
100414
99117.8
99794.8
100059
100130
100109
100075
100052
100048
100072
100135
100247
100367
100396
100305
100113
99909.1
99751.2
99633.3
99529
99419.5
99299.7
99175.4
99048.3
98903
98695.4
98386.5
97877.9
97134.7
95627.1
99959.6
99957.8
99953.3
99947.1
99940.8
99935.8
99932.6
99931.3
99931.6
99933
99935.1
99938
99941.9
99947.4
99954.5
99962.8
99971.5
99979.7
99986.8
99994.6
100002
100020
100148
99524.5
99107.9
99869.5
100113
100170
100137
100091
100060
100050
100071
100129
100310
100458
100397
100249
100060
99857.5
99702.4
99590.9
99491.9
99386
99268.8
99146.1
99017.7
98866.8
98652.5
98336
97829.8
97060.8
95624.3
99953.7
99952.1
99947.7
99941.5
99935.2
99929.9
99926.3
99924.4
99923.7
99923.8
99924.3
99925.2
99926.8
99929.3
99932.9
99936.8
99940
99940.7
99936.8
99925.2
99897.3
99832.3
99671.8
99417.4
99053.6
99538.8
100035
100196
100165
100095
100041
100010
100003
100024
100075
100187
100346
100394
100308
100113
99870.9
99690.7
99576.6
99498.3
99426.4
99344.3
99248.6
99129.1
98960.8
98707.8
98374.1
97864.9
97351.2
95729.7
99953.3
99951.6
99947.2
99941.2
99935
99929.8
99926.4
99924.5
99923.9
99924
99924.6
99925.6
99927.2
99929.7
99933.2
99936.9
99939.7
99939.8
99935
99922.4
99891.9
99823.4
99653.8
99355.7
98962.3
99624.3
100099
100246
100204
100121
100055
100015
99998.6
100006
100032
100181
100382
100400
100219
100014
99793.7
99633.5
99526.6
99452.9
99390
99317.5
99227.4
99108.6
98941.1
98697.1
98379.4
97911.2
97317.3
95807.5
99947.5
99946
99941.6
99935.6
99929.3
99923.9
99919.9
99917.3
99915.6
99914.4
99913.2
99912
99911
99910.3
99909.9
99908.9
99905.8
99898.3
99883.5
99857.3
99814.4
99750.1
99672.7
99591.9
99550.5
99685.8
99958.7
100072
100053
100001
99955.8
99927.9
99917.5
99926.5
99969.6
100026
100103
100333
100299
99982.3
99763.4
99615.9
99510.4
99445.9
99401.9
99355.9
99296
99195.2
99007.8
98700
98313.3
97780
97529.8
95798.8
99947.2
99945.5
99941.2
99935.3
99929.1
99923.8
99919.9
99917.4
99915.8
99914.5
99913.4
99912.2
99911.3
99910.6
99910.1
99908.9
99905.4
99897.3
99882
99855.3
99811.8
99747.7
99668.9
99585.5
99540.8
99689.9
99954.7
100065
100048
99996
99949.8
99919.5
99903.6
99894.1
99897.7
99955.6
100070
99963.3
99479.1
99372.7
99573
99568.3
99488
99410
99364.3
99329.5
99278.4
99181.5
99006.7
98736.9
98412
97950.8
97598.4
95857.6
99941.5
99940
99935.7
99929.8
99923.5
99917.8
99913.4
99910.1
99907.3
99904.6
99901.6
99898.2
99894.5
99890.6
99886.2
99880.4
99871.6
99857.7
99836.7
99806.7
99768.2
99724.6
99686.3
99651.4
99623.7
99668.7
99781.6
99857.2
99868.6
99851.8
99836.5
99832.3
99837.1
99854.4
99862.6
99812.4
100157
99094.8
98322.3
99074.3
99503.9
99634.7
99559.8
99482.4
99421.6
99390.6
99375.2
99316.1
99123.8
98766.6
98308.6
97741.9
97563.5
95572.9
99941.2
99939.5
99935.3
99929.5
99923.3
99917.8
99913.4
99910.1
99907.4
99904.7
99901.7
99898.4
99894.7
99890.8
99886.3
99880.3
99871.2
99856.9
99835.5
99805.4
99767
99723.6
99685
99648.6
99617.8
99666.6
99778.1
99850.9
99859.1
99838.4
99820.6
99816.1
99827.1
99801
99830.1
99847
99879.2
96670
96054.8
97186
98152.5
99378.3
99561.4
99470.3
99391.5
99359.6
99345.7
99285.7
99118.1
98830
98461.3
97958.9
97767.8
95778.8
99935.6
99934.2
99930
99924.1
99917.7
99911.9
99906.9
99902.8
99898.9
99894.7
99889.9
99884.3
99877.9
99870.8
99862.7
99852.6
99839.1
99820.6
99796.2
99765.6
99730.1
99693.8
99661
99630.6
99607.8
99617.1
99657.2
99692.5
99700.6
99697
99701.3
99729.4
99734.5
99887.6
99891.6
98566
95627.3
92526.3
93695.6
96461.4
97866.4
99421.9
99743
99659
99535
99486.8
99511.1
99499.1
99308.7
98943
98464.6
97967.9
97734.1
95495.2
99935.4
99933.7
99929.6
99923.8
99917.5
99911.8
99906.9
99902.8
99898.9
99894.7
99889.9
99884.3
99878
99870.9
99862.7
99852.4
99838.6
99819.9
99795.3
99764.6
99729.3
99693.8
99660.3
99628.1
99605.4
99614.1
99655.8
99692.3
99700.1
99694.8
99700.4
99734.8
99799.2
99909.1
99786.5
98997.1
93860
91280.1
92724.4
95296.8
96869.9
98678.4
99694.1
99679.4
99564.1
99475.3
99466.2
99434.2
99279.6
99000.4
98589
98120.5
97906.4
95702.9
99930.1
99928.6
99924.5
99918.6
99912.1
99906
99900.5
99895.5
99890.4
99884.8
99878.2
99870.4
99861.5
99851.5
99839.9
99826
99808.5
99786.4
99759.3
99727.3
99692.2
99655.6
99620.2
99588.8
99562.6
99548.6
99549.5
99552.9
99548.2
99545.1
99554.3
99605.3
99567.2
99802
99245.7
94292.9
88904.3
89073.8
92448.5
95811.8
98003.6
99756.3
100134
99946.2
99735.4
99655.1
99686.8
99669.4
99449.5
99093.9
98682.5
98360
98182.5
98797.6
99929.8
99928.2
99924.1
99918.3
99912
99905.9
99900.5
99895.5
99890.4
99884.8
99878.2
99870.5
99861.6
99851.5
99839.9
99825.7
99808.1
99785.8
99758.5
99726.6
99691.6
99654.8
99619.9
99588
99559.9
99546.5
99548.3
99553.4
99550.2
99547
99561.4
99650.8
99776.2
99878.3
99357.7
90737.5
87028
88535.1
92216
95406.4
97786.3
99610.9
100156
99987.3
99794.8
99687.4
99646.1
99590.1
99421
99154.9
98762.7
98615.6
98356.2
96348.6
99924.8
99923.4
99919.3
99913.4
99906.8
99900.3
99894.3
99888.5
99882.3
99875.2
99866.9
99857.1
99845.8
99833
99818.4
99801
99780.1
99754.8
99724.9
99690.8
99653.2
99614.5
99576.4
99538.7
99503
99471.5
99445
99422.3
99399.9
99383.9
99380.6
99447.9
99414.4
98770.4
96133
84869.7
85148.1
89046.9
93469.4
97119.6
99521.5
100661
100592
100221
99949.8
99867.8
99881.2
99811.4
99533.7
99061.8
98475.7
97938.8
98039.4
100019
99924.6
99923
99918.9
99913.1
99906.6
99900.2
99894.3
99888.4
99882.2
99875.1
99866.8
99857.1
99845.8
99833
99818.2
99800.7
99779.6
99754.2
99724.2
99690
99652.5
99614.4
99575.7
99537.4
99502
99469.4
99443.7
99422.3
99399.9
99377.7
99350.9
99379.5
99692.5
98956.3
88614.7
81742.6
84773
88737
93174.1
97020.2
99524.6
100551
100471
100198
99998.2
99923.3
99872.7
99783.4
99560.5
99177.5
98639.1
98516.7
98593.2
99869
99919.9
99918.5
99914.4
99908.5
99901.7
99895
99888.4
99881.7
99874.4
99866
99856.1
99844.5
99831
99815.7
99798.2
99777.8
99753.7
99725.4
99692.6
99655.6
99615.5
99572.9
99528.6
99483.7
99436.7
99388.4
99341
99294.5
99246.3
99197.9
99157.8
99177.1
99159.2
97647.3
84994.3
81005.1
86074.4
91235.5
95921.3
99260.6
100682
100941
100851
100442
100224
100168
100162
100089
99833.9
99181.2
98346.2
97300.7
96447.7
97103.1
99919.7
99918.1
99914.1
99908.2
99901.6
99894.9
99888.3
99881.7
99874.4
99866
99856
99844.4
99831
99815.6
99798
99777.5
99753.3
99724.8
99692
99655.1
99615.1
99572.1
99528.3
99483.2
99435.3
99387.8
99340.9
99295.1
99246.3
99189.3
99108.8
99013.7
98880.8
94200.9
83078.8
82656.5
86759.6
91406.8
95999.8
99270.1
100599
100908
100683
100372
100238
100208
100198
100135
99901.4
99212.1
98211.9
97624.2
97870.9
99972.9
99915.4
99914
99909.9
99903.9
99897.1
99890
99882.9
99875.5
99867.2
99857.6
99846.2
99832.9
99817.5
99800
99779.9
99756.8
99729.9
99698.7
99662.9
99622.9
99578.8
99531.6
99481.7
99427.5
99369.3
99307.2
99240.5
99169.1
99087.1
98988.2
98899.8
99642.1
98700.2
75367.3
73927.2
82547.4
89278.7
94655.3
98806.5
100919
101324
101060
100791
100629
100543
100538
100542
100489
100352
99901.2
99522.5
98601.9
96121.6
98577.2
99915.2
99913.6
99909.6
99903.7
99896.9
99889.9
99882.8
99875.4
99867.1
99857.4
99846.1
99832.7
99817.3
99799.8
99779.7
99756.4
99729.4
99698.1
99662.3
99622.3
99578.2
99531.5
99481
99426.7
99369.1
99306.6
99240.8
99170.3
99091
98989.1
98892.9
98624.4
94156.1
84428.1
80859
85310.2
90293.6
95137.7
99011
100717
101276
101070
100773
100578
100530
100557
100591
100571
100453
99769.9
98778.7
97990.1
96851.8
96734.5
99911.4
99910
99905.9
99899.9
99892.9
99885.5
99877.9
99869.8
99860.6
99849.9
99837.2
99822.4
99805.3
99785.8
99763.5
99737.9
99708.5
99674.6
99636
99592.8
99545.2
99493.1
99436.1
99374.1
99305.2
99228.9
99144.6
99050.7
98933.2
98783.4
98556.2
98745.8
99619.7
81611.3
84832
90984.9
96029.4
99637.3
101526
101813
101506
101060
100809
100822
100822
100861
100859
100729
100670
100599
100474
99044
95187.3
97563.7
99911.1
99909.6
99905.6
99899.6
99892.7
99885.3
99877.8
99869.6
99860.5
99849.7
99837.1
99822.2
99805.1
99785.6
99763.2
99737.6
99708
99674.1
99635.5
99592.3
99544.7
99492.4
99435.8
99373.9
99304.6
99229.1
99145.5
99054.9
98939.2
98801.2
98661.2
98412
93146.8
82346.2
86648.6
92087.8
96583.6
99989.5
101725
101922
101408
101062
100822
100770
100797
100862
100896
100820
100776
100480
99827.3
98675.5
95783.9
98684.8
99907.9
99906.5
99902.4
99896.3
99889.2
99881.5
99873.5
99864.8
99854.9
99843.2
99829.5
99813.3
99794.8
99773.6
99749.4
99721.8
99690.1
99653.8
99612.7
99566.4
99514.9
99458.2
99395.9
99325.9
99247.2
99159.1
99059.2
98945.3
98807.4
98627.7
98438.4
98494.9
102630
106139
100500
101385
103433
103962
103098
101917
101115
100801
100791
100955
101032
101166
101088
100757
100672
100233
98387.1
95322.2
92009.4
96840.1
99907.6
99906.1
99902.1
99896.1
99889
99881.4
99873.4
99864.7
99854.7
99843.1
99829.3
99813.1
99794.6
99773.3
99749.1
99721.4
99689.6
99653.3
99612.1
99565.8
99514.3
99458
99395.4
99325.4
99247.2
99158.6
99057.5
98948.6
98813.5
98648.8
98449.9
98243.3
99725.4
97013
98175
101280
103729
104199
103250
101792
101024
100803
100808
100926
101003
101155
101060
100748
100683
99907.7
97691.5
94819.6
92162.5
96606.7
99905
99903.5
99899.4
99893.4
99886.1
99878.2
99869.8
99860.6
99850.1
99837.7
99823
99805.9
99786.1
99763.5
99737.8
99708.5
99674.9
99636.6
99593.2
99544.3
99489.8
99429.2
99361.5
99285.4
99198.8
99099.6
98987.2
98856.6
98704
98504.4
98282
97958.6
98339.6
101018
101410
103285
105034
104860
103140
101207
100418
100479
100832
101109
101250
101543
101588
101306
101114
99535.6
96029.1
93052.3
89797.8
96716.1
99904.7
99903.2
99899.1
99893.1
99885.9
99878.1
99869.7
99860.5
99850
99837.5
99822.8
99805.7
99785.9
99763.3
99737.5
99708.1
99674.4
99636.1
99592.7
99543.8
99489.4
99428.7
99361.3
99285.2
99198.4
99097
98985.9
98854.7
98695.3
98494.2
98284.8
97736.4
97804.9
98684.6
100700
103528
105280
104779
103024
101128
100353
100473
100838
101104
101212
101446
101445
101134
101060
99277.1
95901.1
92876.4
89480
96399.8
99902.7
99901.2
99897.1
99891
99883.6
99875.5
99866.8
99857.2
99846.3
99833.2
99817.8
99799.8
99779.1
99755.5
99728.6
99698
99663
99623.1
99578
99527
99470
99406.3
99335.2
99254.2
99162
99056.9
98937
98796.4
98630.9
98422.6
98175.1
97860.9
97370.1
97743.4
98930.2
101299
103120
103593
102495
100873
100192
100490
100990
101324
101460
101791
101662
101410
101199
99645.7
98063.7
94547.3
86082.6
94171.1
99902.5
99900.8
99896.8
99890.7
99883.4
99875.4
99866.7
99857.1
99846.1
99833
99817.6
99799.6
99778.9
99755.2
99728.3
99697.5
99662.5
99622.6
99577.4
99526.5
99469.5
99406.1
99334.8
99253.9
99162.3
99056.8
98938.9
98796
98625.8
98416.2
98169.9
97782.1
97403.6
97588.8
99364
101569
102531
102753
102036
100832
100196
100473
100966
101312
101409
101635
101610
101396
101261
99540.9
98398.1
95220.2
86404.7
93349.8
99901.2
99899.6
99895.6
99889.5
99882.2
99874.1
99865.3
99855.4
99844
99830.4
99814.5
99796
99774.7
99750.3
99722.6
99691
99655
99614.1
99567.8
99515.5
99457
99391.5
99317.8
99234.3
99139.1
99030.1
98905.9
98761.7
98590.2
98381.6
98129.9
97829.2
97425.5
96996.3
96519.6
96906.7
96530.6
96673.5
96923.8
98322.6
99542.5
100468
101001
101431
101617
101851
101684
101496
101830
102648
105633
103105
84993.1
90753.2
99900.9
99899.3
99895.3
99889.3
99882
99873.9
99865.1
99855.2
99843.8
99830.2
99814.3
99795.8
99774.4
99750
99722.2
99690.6
99654.5
99613.6
99567.2
99515
99456.6
99391.2
99317.7
99234.4
99139.4
99031
98907.8
98765
98591.9
98371.5
98135
97857.5
97360.2
97007.7
97044.8
96969.3
96706.1
96569.3
96865.6
98270.2
99626.9
100486
101018
101410
101555
101748
101645
101625
101815
102357
105722
103405
85238.5
90469.1
99899.4
99898
99894
99887.9
99880.6
99872.6
99863.8
99853.8
99842.2
99828.4
99812.3
99793.5
99771.8
99747
99718.7
99686.6
99650
99608.5
99561.6
99508.7
99449.5
99383.1
99308.5
99223.8
99127.3
99017.4
98891.9
98746.6
98574.9
98369.7
98122.5
97820.6
97402.5
96828.2
96182.2
95249.7
93961.4
93220.8
93784
95706.8
97842.8
99648.9
100755
101210
101486
101603
101720
101857
102050
104321
108226
104587
88294.3
80045.5
99899.2
99897.7
99893.7
99887.7
99880.5
99872.5
99863.6
99853.6
99842
99828.2
99812
99793.2
99771.5
99746.7
99718.4
99686.1
99649.5
99608
99561
99508.3
99449.2
99383
99308.5
99224
99127.9
99018.6
98893.8
98749.1
98577
98370.9
98132.5
97856.5
97471.8
96905
96110.1
94976.6
93894.2
93239
93694.6
95484.4
97709.9
99877.9
100741
101172
101445
101590
101612
101783
102388
104348
108169
104913
88673.8
79971.6
99109.3
100169
98837.7
100755
100284
98878.7
98366.7
98923.8
98881.8
98758.9
98948.7
99967.5
99138.7
100081
100141
98880.9
98863.7
98974.6
98774.2
98836.9
99996
99393.2
98993.5
99400.5
98870.4
99044.2
98909.7
99023.3
99032
98934.9
98875.4
100153
99340.8
98801.6
99355.1
98453.7
98885.4
98916.7
98896
98896.6
98565.6
99166.9
99798.1
99982
99784.3
100036
99706.3
100014
99668.7
99376.5
99519.8
99349.8
99189.3
99009.4
99157.5
99002.8
99774.5
99938.4
99722.1
100002
99720.4
99939.5
99629.4
99337.5
99467.7
99329.2
99168.1
98978.5
99063.8
98944.2
100360
100254
100345
100302
100512
100306
100513
98457.4
98762.9
98847.7
98847.9
98332
99396.7
99142.1
99440.1
98983.8
99282.1
98949.9
99307.7
100310
100183
100230
100278
100447
100213
100336
98124.7
98367.1
98740.9
98645.1
97974.1
99484
99208.8
99489.9
98996.5
99382
99048.3
99411.4
100226
100171
100291
99911.7
99748.8
99905.6
99764.1
98322.4
100377
99780.6
99739.4
98435.1
99082.5
99205.4
99411.8
99080
99425
99234.9
99492
99177.3
99494.1
100220
100100
100137
99883.2
99709.2
99870.2
99714.6
97970.1
99801
99525
98160.1
99588.9
98742.8
98973.3
99474.8
99162.8
99511.6
99233
99570.5
99330.7
99630.7
99224.7
99414.5
99182.5
99489.1
99350.8
99490.2
99345.1
99024
98983.5
98975.3
99281.3
99362.9
99269.8
99367.6
99108
99347.5
99105.1
99469.7
99323.1
99469.4
99333.5
99082.4
99012.8
99236
99272.2
99398.6
99292.4
99426.4
99916.6
99648
99078.4
99601.7
99972.1
100010
98998.6
99657.1
99584.2
99723.3
100581
100727
100724
100701
100636
100230
100285
100586
100355
100608
100614
100181
100310
99609.3
98534.5
98711.6
98486.6
98800
98338.2
98352.2
98324.4
98478
98826.7
98864.4
98807.5
98444.7
98442.5
98389
98496.3
98725.2
98788.3
98736.1
98582
99787.5
99754.9
99043.5
99574.4
99620
99473.8
99026.9
99448.4
99432.9
98154.3
100438
100089
100266
99656.2
100574
103337
98085.2
100146
101163
100268
100174
101937
100134
99206.7
98314.5
98727.1
98715.8
98676.2
98435.4
98182.8
97990.5
98349.5
98783
98791.1
98479.4
98767.3
98267.6
98610.1
98468.6
98776.8
98843.3
98806.4
98575.3
97648.6
97688.6
98256.1
100299
99657.2
99746.3
98022.9
97720.8
97637.7
97936.5
99015.8
99011.9
99024.2
98011.9
97941.6
98959.1
98909
97942.6
98981.3
99072.1
99029.1
99048
98999.4
99147.9
99051.9
98907.7
99015.2
98947.9
98889.2
98923.3
98899.9
98899.9
99018.5
99041.7
98996.8
98977.9
98847.1
99020.4
98916.3
98812.8
98948.8
97253.9
97771.2
98126.9
100113
99843.1
99713.8
98447.2
97585.2
97314.8
97952.5
98868.8
98590.8
98100.6
98751.6
97845
98539.1
98716.8
98694.3
97917.7
98646.2
98854.4
98851
98853.7
98829.2
97328.7
106600
98465.3
98897.2
98797.8
98878.6
98248.4
98866.9
98895.4
98650.2
98806.3
98884.8
98248
98709.4
98955.2
98803.9
97855.1
100299
100061
100220
100475
100020
100449
100329
100368
100049
100009
100147
99855.4
100183
100034
100307
100192
99991.3
100306
100000
100410
100243
98727.7
98761.3
98895.4
98790.8
98798.2
98803.9
98682.7
98734.4
98926.1
98752.4
98805.6
98837.7
98765.9
98722.9
99885.1
99989
99572.7
100483
99708.7
100171
99784.7
98457.5
98615.1
98845.9
98815.2
98664.9
98513.1
98721.3
98749.7
98859.9
98834
98841
98732.7
98841.6
98775.3
98861.8
99437.5
99151.6
99373.9
99403.1
99135.3
98894.4
98813.4
99447.8
99401.6
99114.3
99443
98795.9
99135.7
98888.6
98998.5
98974
98961
98921.2
98901.2
98958.5
98777.1
98806.2
98900.3
98806.4
98831.7
98735.8
98833.9
99072.3
99403
99129.2
99306.3
99000.1
99367.3
99104
98969.8
99466.7
99305.5
99132.2
99371.4
99050.9
99126
98765.7
98798.9
98816.1
99046.6
98746.1
98833.4
98933.6
98557.7
98865.8
99141.8
99215.8
98893.6
98957.9
98358.8
98613
98830.9
98122.7
98371.9
98769.3
98567.5
98070.5
98100.2
97940.4
97911
98062
98086.3
97722.6
97797.9
97960.1
98494.4
98348.1
98597.1
97992.5
98707.4
98025.8
98374.5
98254.2
98397
98063.8
97946.7
98348.7
98253.2
97879.8
97666.2
98010.9
97277.2
97784.6
97926.8
98024.7
98102.9
97222.2
97578.5
98186.7
97582.6
98093.6
97779
97941.5
98025.4
99307.9
98640.7
98987.9
98351.9
98651.6
99249.2
99010.5
99776
100465
100427
99856.9
99789.7
100375
100412
99712.1
99282
98312.1
98675.1
99055.4
98565.3
99023.5
99333.3
99155
99232.6
98318.2
96758.7
98136.2
99155
97172.5
98198.8
99017.6
97284.1
98389.4
97082.6
98172
97680
100468
98188.5
97711.9
98275.7
98163.5
97924.2
98825.2
98565.8
97431.7
98884.8
98405.5
98727.2
98853.1
99704.3
99070.1
99887.7
99702.9
98833.2
99009.1
98288
97937.1
97876.1
98350.6
98221.2
97801
97777.1
98240.6
98832.8
99869.6
99746.3
99098
99707.8
98963.1
98962
98970.7
99751.4
99207.8
100060
98881.8
99785.6
99350.1
98938.8
99745.6
98193.8
100532
98294.9
97812.9
98263.2
97747.8
99408.9
100055
99914.7
90867.8
99907.3
99489.9
100221
100898
100649
100836
100591
100668
100870
100843
100948
100808