/*--------------------------------*- C++ -*----------------------------------*\
| =========                 |                                                 |
| \\      /  F ield         | OpenFOAM: The Open Source CFD Toolbox           |
|  \\    /   O peration     | Version:  4.1                                   |
|   \\  /    A nd           | Web:      www.OpenFOAM.org                      |
|    \\/     M anipulation  |                                                 |
\*---------------------------------------------------------------------------*/
FoamFile
{
    version     2.0;
    format      ascii;
    class       volScalarField;
    location    "91";
    object      p;
}
// * * * * * * * * * * * * * * * * * * * * * * * * * * * * * * * * * * * * * //

dimensions      [0 2 -2 0 0 0 0];

internalField   nonuniform List<scalar> 
4432
(
-3.72503e+10
-3.72288e+10
-3.73372e+10
-3.73526e+10
-3.738e+10
-3.74278e+10
-3.74736e+10
-3.75193e+10
-3.75631e+10
-3.76045e+10
-3.76436e+10
-3.76798e+10
-3.77108e+10
-3.77343e+10
-3.77477e+10
-3.77483e+10
-3.77322e+10
-3.76958e+10
-3.76374e+10
-3.75562e+10
-3.74525e+10
-3.73291e+10
-3.71901e+10
-3.70418e+10
-3.68904e+10
-3.67426e+10
-3.66036e+10
-3.6477e+10
-3.63636e+10
-3.62618e+10
-3.61681e+10
-3.60785e+10
-3.59904e+10
-3.59037e+10
-3.58217e+10
-3.5751e+10
-3.56992e+10
-3.56723e+10
-3.56712e+10
-3.56873e+10
-3.56994e+10
-3.56706e+10
-3.55559e+10
-3.53492e+10
-3.51768e+10
-3.53266e+10
-3.59539e+10
-3.64449e+10
-3.53976e+10
-3.29045e+10
-3.39637e+10
-4.47237e+10
-5.54758e+10
-2.7209e+10
-3.7301e+10
-3.72497e+10
-3.73057e+10
-3.73525e+10
-3.738e+10
-3.74226e+10
-3.74699e+10
-3.75149e+10
-3.75572e+10
-3.75979e+10
-3.76369e+10
-3.7673e+10
-3.7704e+10
-3.77278e+10
-3.77419e+10
-3.77435e+10
-3.77287e+10
-3.76938e+10
-3.76367e+10
-3.75562e+10
-3.74529e+10
-3.73296e+10
-3.71905e+10
-3.70418e+10
-3.68898e+10
-3.67413e+10
-3.66015e+10
-3.64742e+10
-3.636e+10
-3.62578e+10
-3.6164e+10
-3.60747e+10
-3.59871e+10
-3.59009e+10
-3.58195e+10
-3.57495e+10
-3.56982e+10
-3.56712e+10
-3.56683e+10
-3.56807e+10
-3.56871e+10
-3.56508e+10
-3.55276e+10
-3.53124e+10
-3.51358e+10
-3.52961e+10
-3.59612e+10
-3.64792e+10
-3.5238e+10
-3.19194e+10
-3.15438e+10
-4.2633e+10
-5.74281e+10
-3.27124e+10
-3.73211e+10
-3.72921e+10
-3.73216e+10
-3.7377e+10
-3.74097e+10
-3.74475e+10
-3.74988e+10
-3.75498e+10
-3.76002e+10
-3.76503e+10
-3.76993e+10
-3.77473e+10
-3.77915e+10
-3.78275e+10
-3.78505e+10
-3.78573e+10
-3.78449e+10
-3.78096e+10
-3.775e+10
-3.76641e+10
-3.7552e+10
-3.74162e+10
-3.72611e+10
-3.7094e+10
-3.69225e+10
-3.67549e+10
-3.65972e+10
-3.64543e+10
-3.63271e+10
-3.62149e+10
-3.61141e+10
-3.60206e+10
-3.5932e+10
-3.58476e+10
-3.57708e+10
-3.57073e+10
-3.56638e+10
-3.56452e+10
-3.56503e+10
-3.56697e+10
-3.56809e+10
-3.56436e+10
-3.55083e+10
-3.52664e+10
-3.50587e+10
-3.52073e+10
-3.58634e+10
-3.624e+10
-3.46121e+10
-3.10804e+10
-3.16513e+10
-4.42054e+10
-5.88171e+10
-3.5652e+10
-3.73083e+10
-3.72945e+10
-3.73307e+10
-3.73711e+10
-3.74041e+10
-3.74429e+10
-3.74943e+10
-3.75445e+10
-3.75946e+10
-3.76444e+10
-3.76938e+10
-3.77425e+10
-3.77873e+10
-3.78236e+10
-3.78476e+10
-3.78566e+10
-3.78469e+10
-3.78148e+10
-3.77584e+10
-3.76754e+10
-3.75655e+10
-3.74316e+10
-3.72783e+10
-3.71129e+10
-3.69429e+10
-3.6777e+10
-3.66209e+10
-3.64795e+10
-3.63539e+10
-3.62432e+10
-3.61439e+10
-3.60518e+10
-3.59642e+10
-3.58802e+10
-3.58028e+10
-3.57378e+10
-3.5692e+10
-3.56699e+10
-3.56697e+10
-3.56824e+10
-3.56858e+10
-3.56399e+10
-3.54949e+10
-3.52435e+10
-3.50306e+10
-3.51888e+10
-3.58733e+10
-3.62367e+10
-3.43905e+10
-3.05309e+10
-3.18676e+10
-4.70225e+10
-5.98871e+10
-2.9493e+10
-3.73152e+10
-3.73365e+10
-3.7319e+10
-3.73614e+10
-3.73977e+10
-3.74352e+10
-3.74822e+10
-3.75339e+10
-3.75878e+10
-3.7642e+10
-3.76959e+10
-3.77496e+10
-3.77999e+10
-3.78415e+10
-3.78703e+10
-3.78835e+10
-3.78788e+10
-3.78528e+10
-3.78019e+10
-3.77235e+10
-3.76163e+10
-3.74812e+10
-3.73229e+10
-3.71487e+10
-3.69676e+10
-3.67891e+10
-3.66207e+10
-3.64673e+10
-3.63309e+10
-3.62108e+10
-3.61039e+10
-3.60063e+10
-3.59146e+10
-3.58281e+10
-3.57494e+10
-3.56835e+10
-3.56368e+10
-3.56136e+10
-3.56135e+10
-3.5629e+10
-3.56391e+10
-3.56004e+10
-3.54562e+10
-3.51949e+10
-3.4978e+10
-3.51843e+10
-3.60054e+10
-3.65552e+10
-3.48647e+10
-3.10407e+10
-3.16072e+10
-4.43209e+10
-5.69878e+10
-2.89853e+10
-3.72857e+10
-3.73254e+10
-3.734e+10
-3.736e+10
-3.73928e+10
-3.7434e+10
-3.74822e+10
-3.75337e+10
-3.75887e+10
-3.76446e+10
-3.7701e+10
-3.77579e+10
-3.78121e+10
-3.78581e+10
-3.78912e+10
-3.79081e+10
-3.79053e+10
-3.78796e+10
-3.78286e+10
-3.77507e+10
-3.76439e+10
-3.75087e+10
-3.73493e+10
-3.71731e+10
-3.69895e+10
-3.68082e+10
-3.66367e+10
-3.64801e+10
-3.63402e+10
-3.6216e+10
-3.61042e+10
-3.60008e+10
-3.59025e+10
-3.58089e+10
-3.57233e+10
-3.56511e+10
-3.55988e+10
-3.55711e+10
-3.55678e+10
-3.55803e+10
-3.55866e+10
-3.55443e+10
-3.53978e+10
-3.51374e+10
-3.49265e+10
-3.51455e+10
-3.59706e+10
-3.64231e+10
-3.43268e+10
-2.97137e+10
-2.97887e+10
-4.35601e+10
-5.8624e+10
-3.11772e+10
-3.72937e+10
-3.73221e+10
-3.73443e+10
-3.7366e+10
-3.74048e+10
-3.7451e+10
-3.75025e+10
-3.75587e+10
-3.76192e+10
-3.76826e+10
-3.77483e+10
-3.78163e+10
-3.78833e+10
-3.79441e+10
-3.79931e+10
-3.80247e+10
-3.80333e+10
-3.80151e+10
-3.79666e+10
-3.78852e+10
-3.7769e+10
-3.76187e+10
-3.74398e+10
-3.72419e+10
-3.70375e+10
-3.68384e+10
-3.6654e+10
-3.64897e+10
-3.63474e+10
-3.62255e+10
-3.61203e+10
-3.60269e+10
-3.59405e+10
-3.58597e+10
-3.57863e+10
-3.57244e+10
-3.56794e+10
-3.56555e+10
-3.56524e+10
-3.56622e+10
-3.56635e+10
-3.56119e+10
-3.54445e+10
-3.51397e+10
-3.48531e+10
-3.49755e+10
-3.57363e+10
-3.62878e+10
-3.45969e+10
-3.04446e+10
-3.01758e+10
-4.31492e+10
-6.09939e+10
-3.85112e+10
-3.72893e+10
-3.73242e+10
-3.73459e+10
-3.73608e+10
-3.7395e+10
-3.74423e+10
-3.7493e+10
-3.75481e+10
-3.76087e+10
-3.76726e+10
-3.77394e+10
-3.78088e+10
-3.78776e+10
-3.79406e+10
-3.79925e+10
-3.80276e+10
-3.804e+10
-3.80253e+10
-3.79801e+10
-3.79016e+10
-3.7788e+10
-3.76397e+10
-3.74617e+10
-3.72637e+10
-3.7058e+10
-3.68566e+10
-3.6669e+10
-3.6501e+10
-3.63541e+10
-3.62267e+10
-3.61149e+10
-3.60142e+10
-3.59204e+10
-3.58322e+10
-3.57515e+10
-3.56833e+10
-3.56334e+10
-3.56062e+10
-3.56018e+10
-3.56121e+10
-3.56151e+10
-3.55661e+10
-3.54028e+10
-3.51065e+10
-3.48392e+10
-3.49982e+10
-3.57969e+10
-3.62989e+10
-3.43792e+10
-3.02449e+10
-3.15801e+10
-4.71505e+10
-6.06014e+10
-2.98174e+10
-3.72533e+10
-3.72743e+10
-3.72999e+10
-3.73214e+10
-3.73555e+10
-3.74013e+10
-3.74552e+10
-3.75143e+10
-3.75783e+10
-3.76472e+10
-3.77204e+10
-3.77961e+10
-3.78714e+10
-3.79416e+10
-3.80013e+10
-3.80444e+10
-3.8065e+10
-3.80581e+10
-3.80193e+10
-3.79434e+10
-3.78248e+10
-3.76623e+10
-3.7461e+10
-3.72338e+10
-3.69973e+10
-3.67673e+10
-3.6556e+10
-3.63699e+10
-3.62106e+10
-3.60756e+10
-3.596e+10
-3.58575e+10
-3.57625e+10
-3.56728e+10
-3.55899e+10
-3.55188e+10
-3.5466e+10
-3.54369e+10
-3.54333e+10
-3.54493e+10
-3.54647e+10
-3.5435e+10
-3.52955e+10
-3.50203e+10
-3.47562e+10
-3.4887e+10
-3.56675e+10
-3.63395e+10
-3.49476e+10
-3.11205e+10
-3.06587e+10
-4.27271e+10
-5.94141e+10
-3.36071e+10
-3.72614e+10
-3.72868e+10
-3.73045e+10
-3.73222e+10
-3.73548e+10
-3.74005e+10
-3.74539e+10
-3.75133e+10
-3.75777e+10
-3.76469e+10
-3.77207e+10
-3.77974e+10
-3.78736e+10
-3.79446e+10
-3.80052e+10
-3.80495e+10
-3.80718e+10
-3.80671e+10
-3.80305e+10
-3.79569e+10
-3.78414e+10
-3.76825e+10
-3.74851e+10
-3.72615e+10
-3.70279e+10
-3.68002e+10
-3.65905e+10
-3.64055e+10
-3.62467e+10
-3.61118e+10
-3.59958e+10
-3.58929e+10
-3.5798e+10
-3.57089e+10
-3.56269e+10
-3.55565e+10
-3.55039e+10
-3.54739e+10
-3.54671e+10
-3.54759e+10
-3.54788e+10
-3.54296e+10
-3.52617e+10
-3.49486e+10
-3.46394e+10
-3.47212e+10
-3.54358e+10
-3.59652e+10
-3.43244e+10
-3.05106e+10
-3.13309e+10
-4.53434e+10
-5.92885e+10
-2.92865e+10
-3.72534e+10
-3.72687e+10
-3.72919e+10
-3.73198e+10
-3.73574e+10
-3.74071e+10
-3.74671e+10
-3.75343e+10
-3.76076e+10
-3.76886e+10
-3.77774e+10
-3.78712e+10
-3.79667e+10
-3.80594e+10
-3.81436e+10
-3.82115e+10
-3.82549e+10
-3.82668e+10
-3.82418e+10
-3.81725e+10
-3.80496e+10
-3.78675e+10
-3.76318e+10
-3.73608e+10
-3.7079e+10
-3.68089e+10
-3.65666e+10
-3.63601e+10
-3.61901e+10
-3.60525e+10
-3.59397e+10
-3.58433e+10
-3.57566e+10
-3.56755e+10
-3.56001e+10
-3.55344e+10
-3.5485e+10
-3.54577e+10
-3.5455e+10
-3.54716e+10
-3.5487e+10
-3.54559e+10
-3.53113e+10
-3.5022e+10
-3.47241e+10
-3.47927e+10
-3.55035e+10
-3.6165e+10
-3.48772e+10
-3.12783e+10
-3.14122e+10
-4.39319e+10
-5.73516e+10
-2.88081e+10
-3.72749e+10
-3.72897e+10
-3.73136e+10
-3.73414e+10
-3.7381e+10
-3.74309e+10
-3.74905e+10
-3.75585e+10
-3.76331e+10
-3.77148e+10
-3.78034e+10
-3.78969e+10
-3.79921e+10
-3.80849e+10
-3.81696e+10
-3.82387e+10
-3.82837e+10
-3.82976e+10
-3.82739e+10
-3.82053e+10
-3.80824e+10
-3.78994e+10
-3.76627e+10
-3.73908e+10
-3.71084e+10
-3.68384e+10
-3.65969e+10
-3.63918e+10
-3.62235e+10
-3.60873e+10
-3.59755e+10
-3.58798e+10
-3.57927e+10
-3.57098e+10
-3.56303e+10
-3.55571e+10
-3.54957e+10
-3.54509e+10
-3.54246e+10
-3.54107e+10
-3.5389e+10
-3.53144e+10
-3.51212e+10
-3.47802e+10
-3.44312e+10
-3.44534e+10
-3.51204e+10
-3.57157e+10
-3.42557e+10
-3.01631e+10
-2.92135e+10
-4.11451e+10
-5.83572e+10
-3.43272e+10
-3.72301e+10
-3.72487e+10
-3.72721e+10
-3.73063e+10
-3.73513e+10
-3.74091e+10
-3.74776e+10
-3.75534e+10
-3.76362e+10
-3.77279e+10
-3.78287e+10
-3.79367e+10
-3.80494e+10
-3.81631e+10
-3.82716e+10
-3.83659e+10
-3.84353e+10
-3.84705e+10
-3.84648e+10
-3.84086e+10
-3.82866e+10
-3.80833e+10
-3.78011e+10
-3.74656e+10
-3.71145e+10
-3.67816e+10
-3.64895e+10
-3.6248e+10
-3.6057e+10
-3.59093e+10
-3.57947e+10
-3.57021e+10
-3.56227e+10
-3.5551e+10
-3.54858e+10
-3.543e+10
-3.53893e+10
-3.53692e+10
-3.53718e+10
-3.53905e+10
-3.54039e+10
-3.53646e+10
-3.52035e+10
-3.4885e+10
-3.45376e+10
-3.45332e+10
-3.51643e+10
-3.57527e+10
-3.42774e+10
-2.99869e+10
-2.87047e+10
-4.09387e+10
-5.89898e+10
-3.52267e+10
-3.72306e+10
-3.72454e+10
-3.72682e+10
-3.73033e+10
-3.73487e+10
-3.74043e+10
-3.74699e+10
-3.75441e+10
-3.76264e+10
-3.77172e+10
-3.78167e+10
-3.79236e+10
-3.80356e+10
-3.81487e+10
-3.82566e+10
-3.835e+10
-3.84178e+10
-3.84511e+10
-3.84437e+10
-3.83869e+10
-3.8265e+10
-3.80628e+10
-3.77821e+10
-3.74485e+10
-3.70992e+10
-3.67677e+10
-3.64763e+10
-3.62352e+10
-3.60443e+10
-3.58966e+10
-3.57818e+10
-3.5689e+10
-3.56088e+10
-3.55354e+10
-3.5467e+10
-3.54059e+10
-3.53575e+10
-3.53271e+10
-3.53168e+10
-3.53216e+10
-3.53218e+10
-3.52739e+10
-3.5114e+10
-3.48139e+10
-3.45132e+10
-3.46008e+10
-3.53948e+10
-3.62428e+10
-3.5081e+10
-3.08874e+10
-2.89223e+10
-3.98917e+10
-5.82079e+10
-3.38178e+10
-3.72596e+10
-3.72761e+10
-3.72954e+10
-3.73254e+10
-3.73667e+10
-3.74188e+10
-3.74797e+10
-3.75482e+10
-3.76267e+10
-3.77181e+10
-3.78232e+10
-3.79425e+10
-3.80753e+10
-3.82186e+10
-3.83657e+10
-3.85051e+10
-3.86215e+10
-3.87017e+10
-3.87372e+10
-3.8719e+10
-3.86224e+10
-3.84126e+10
-3.8078e+10
-3.7656e+10
-3.72119e+10
-3.68003e+10
-3.64518e+10
-3.61766e+10
-3.59705e+10
-3.58217e+10
-3.57158e+10
-3.5639e+10
-3.55804e+10
-3.55332e+10
-3.54956e+10
-3.54705e+10
-3.54634e+10
-3.54803e+10
-3.5524e+10
-3.55897e+10
-3.56574e+10
-3.56825e+10
-3.5599e+10
-3.53743e+10
-3.51423e+10
-3.52924e+10
-3.61577e+10
-3.71045e+10
-3.61052e+10
-3.23138e+10
-3.12391e+10
-4.25229e+10
-5.80676e+10
-2.95283e+10
-3.72306e+10
-3.72387e+10
-3.7259e+10
-3.72921e+10
-3.7335e+10
-3.7387e+10
-3.74495e+10
-3.75217e+10
-3.76049e+10
-3.7701e+10
-3.7811e+10
-3.79355e+10
-3.80733e+10
-3.82213e+10
-3.83723e+10
-3.85145e+10
-3.86328e+10
-3.87137e+10
-3.8749e+10
-3.87288e+10
-3.8629e+10
-3.84155e+10
-3.80774e+10
-3.76533e+10
-3.72089e+10
-3.67992e+10
-3.64544e+10
-3.61838e+10
-3.59824e+10
-3.58382e+10
-3.57361e+10
-3.56625e+10
-3.56065e+10
-3.55609e+10
-3.55232e+10
-3.54954e+10
-3.54831e+10
-3.54919e+10
-3.55252e+10
-3.55789e+10
-3.56338e+10
-3.56465e+10
-3.55521e+10
-3.53201e+10
-3.50876e+10
-3.52535e+10
-3.61739e+10
-3.72548e+10
-3.64987e+10
-3.30527e+10
-3.25204e+10
-4.43141e+10
-5.85708e+10
-3.0665e+10
-3.71388e+10
-3.71465e+10
-3.71598e+10
-3.71831e+10
-3.72208e+10
-3.72714e+10
-3.73343e+10
-3.74111e+10
-3.75053e+10
-3.76198e+10
-3.77564e+10
-3.79164e+10
-3.80989e+10
-3.82996e+10
-3.85096e+10
-3.87133e+10
-3.8889e+10
-3.90178e+10
-3.90927e+10
-3.91116e+10
-3.90426e+10
-3.88146e+10
-3.83816e+10
-3.7802e+10
-3.72021e+10
-3.6675e+10
-3.62577e+10
-3.59548e+10
-3.57518e+10
-3.56259e+10
-3.55542e+10
-3.55173e+10
-3.55006e+10
-3.54955e+10
-3.54984e+10
-3.55106e+10
-3.5536e+10
-3.5579e+10
-3.56411e+10
-3.5716e+10
-3.57825e+10
-3.57946e+10
-3.56852e+10
-3.54216e+10
-3.51418e+10
-3.52517e+10
-3.61187e+10
-3.71532e+10
-3.63838e+10
-3.31143e+10
-3.31889e+10
-4.58455e+10
-6.07072e+10
-3.29545e+10
-3.71259e+10
-3.71346e+10
-3.71496e+10
-3.71783e+10
-3.72192e+10
-3.72729e+10
-3.73412e+10
-3.74248e+10
-3.75253e+10
-3.76451e+10
-3.77864e+10
-3.79497e+10
-3.81339e+10
-3.83346e+10
-3.85428e+10
-3.87432e+10
-3.89142e+10
-3.90368e+10
-3.91042e+10
-3.91141e+10
-3.90357e+10
-3.87987e+10
-3.83573e+10
-3.7768e+10
-3.71575e+10
-3.66204e+10
-3.61956e+10
-3.58885e+10
-3.56836e+10
-3.55574e+10
-3.54855e+10
-3.54474e+10
-3.54282e+10
-3.54196e+10
-3.54187e+10
-3.54273e+10
-3.54508e+10
-3.54952e+10
-3.55637e+10
-3.56518e+10
-3.57401e+10
-3.57835e+10
-3.57136e+10
-3.54933e+10
-3.52519e+10
-3.53852e+10
-3.62527e+10
-3.72575e+10
-3.63774e+10
-3.27241e+10
-3.19258e+10
-4.43207e+10
-6.31015e+10
-4.15092e+10
-3.70773e+10
-3.70904e+10
-3.71125e+10
-3.71447e+10
-3.71934e+10
-3.72579e+10
-3.73382e+10
-3.74358e+10
-3.7552e+10
-3.7688e+10
-3.7846e+10
-3.80282e+10
-3.82353e+10
-3.84657e+10
-3.87131e+10
-3.89627e+10
-3.91899e+10
-3.93689e+10
-3.94925e+10
-3.9569e+10
-3.95686e+10
-3.93648e+10
-3.88289e+10
-3.80284e+10
-3.72039e+10
-3.65245e+10
-3.60321e+10
-3.57173e+10
-3.55418e+10
-3.54639e+10
-3.54483e+10
-3.54685e+10
-3.55065e+10
-3.5552e+10
-3.56007e+10
-3.56529e+10
-3.57119e+10
-3.5781e+10
-3.58602e+10
-3.59418e+10
-3.60027e+10
-3.59936e+10
-3.58423e+10
-3.55096e+10
-3.51278e+10
-3.51009e+10
-3.58014e+10
-3.66363e+10
-3.55468e+10
-3.1564e+10
-3.04027e+10
-4.33843e+10
-6.45331e+10
-4.24137e+10
-3.7086e+10
-3.71055e+10
-3.7125e+10
-3.7158e+10
-3.72054e+10
-3.72694e+10
-3.73493e+10
-3.74459e+10
-3.75601e+10
-3.76933e+10
-3.78479e+10
-3.80259e+10
-3.82282e+10
-3.84532e+10
-3.86945e+10
-3.89372e+10
-3.91559e+10
-3.93248e+10
-3.94381e+10
-3.9509e+10
-3.95117e+10
-3.9326e+10
-3.88221e+10
-3.80517e+10
-3.72403e+10
-3.65554e+10
-3.60447e+10
-3.57043e+10
-3.54994e+10
-3.53912e+10
-3.53462e+10
-3.53389e+10
-3.53516e+10
-3.53746e+10
-3.54046e+10
-3.54434e+10
-3.54957e+10
-3.55663e+10
-3.56574e+10
-3.57637e+10
-3.5865e+10
-3.59154e+10
-3.58449e+10
-3.56145e+10
-3.53537e+10
-3.5463e+10
-3.63147e+10
-3.73144e+10
-3.63404e+10
-3.21677e+10
-3.01501e+10
-4.19954e+10
-6.30895e+10
-4.02751e+10
-3.6947e+10
-3.69557e+10
-3.69736e+10
-3.70005e+10
-3.70413e+10
-3.70972e+10
-3.71691e+10
-3.72578e+10
-3.73649e+10
-3.74939e+10
-3.7651e+10
-3.78451e+10
-3.80848e+10
-3.83754e+10
-3.87147e+10
-3.90854e+10
-3.94496e+10
-3.97578e+10
-3.99826e+10
-4.01451e+10
-4.02519e+10
-4.01358e+10
-3.94902e+10
-3.83046e+10
-3.70325e+10
-3.60882e+10
-3.54963e+10
-3.51767e+10
-3.50383e+10
-3.50108e+10
-3.50453e+10
-3.51094e+10
-3.51836e+10
-3.5258e+10
-3.53305e+10
-3.54045e+10
-3.54857e+10
-3.55804e+10
-3.56922e+10
-3.58177e+10
-3.59383e+10
-3.601e+10
-3.59654e+10
-3.5771e+10
-3.55653e+10
-3.57554e+10
-3.67052e+10
-3.7799e+10
-3.693e+10
-3.30104e+10
-3.14692e+10
-4.30679e+10
-6.13498e+10
-3.61387e+10
-3.69712e+10
-3.69811e+10
-3.69989e+10
-3.70266e+10
-3.70687e+10
-3.71262e+10
-3.71989e+10
-3.72881e+10
-3.73947e+10
-3.75217e+10
-3.76749e+10
-3.78621e+10
-3.80913e+10
-3.83677e+10
-3.8689e+10
-3.90391e+10
-3.93815e+10
-3.96682e+10
-3.98734e+10
-4.00221e+10
-4.01286e+10
-4.00397e+10
-3.94535e+10
-3.83283e+10
-3.7091e+10
-3.6152e+10
-3.55453e+10
-3.52036e+10
-3.50408e+10
-3.49885e+10
-3.49984e+10
-3.50382e+10
-3.50893e+10
-3.51427e+10
-3.51969e+10
-3.52561e+10
-3.53269e+10
-3.54155e+10
-3.55248e+10
-3.56511e+10
-3.57752e+10
-3.58527e+10
-3.58156e+10
-3.56295e+10
-3.54335e+10
-3.56419e+10
-3.66386e+10
-3.78363e+10
-3.7148e+10
-3.35152e+10
-3.25136e+10
-4.44126e+10
-5.971e+10
-3.10066e+10
-3.68789e+10
-3.68883e+10
-3.69044e+10
-3.69319e+10
-3.6975e+10
-3.70374e+10
-3.71219e+10
-3.723e+10
-3.73637e+10
-3.75272e+10
-3.7729e+10
-3.7981e+10
-3.82955e+10
-3.86789e+10
-3.91257e+10
-3.96091e+10
-4.00729e+10
-4.04412e+10
-4.06706e+10
-4.08264e+10
-4.10475e+10
-4.12138e+10
-4.0635e+10
-3.88053e+10
-3.66174e+10
-3.53165e+10
-3.47001e+10
-3.44503e+10
-3.44166e+10
-3.4489e+10
-3.46028e+10
-3.47207e+10
-3.48251e+10
-3.49101e+10
-3.49778e+10
-3.50351e+10
-3.5091e+10
-3.51543e+10
-3.52312e+10
-3.53212e+10
-3.54092e+10
-3.54544e+10
-3.53948e+10
-3.52075e+10
-3.50473e+10
-3.53286e+10
-3.63905e+10
-3.7583e+10
-3.68969e+10
-3.35956e+10
-3.331e+10
-4.51112e+10
-5.89558e+10
-3.02443e+10
-3.69068e+10
-3.69151e+10
-3.69344e+10
-3.6965e+10
-3.70114e+10
-3.70763e+10
-3.7162e+10
-3.72696e+10
-3.74002e+10
-3.75572e+10
-3.77478e+10
-3.79831e+10
-3.82751e+10
-3.86316e+10
-3.90498e+10
-3.95071e+10
-3.99519e+10
-4.03094e+10
-4.05348e+10
-4.06957e+10
-4.09314e+10
-4.11259e+10
-4.06313e+10
-3.89261e+10
-3.68201e+10
-3.55277e+10
-3.48655e+10
-3.45694e+10
-3.44937e+10
-3.45301e+10
-3.46133e+10
-3.47056e+10
-3.4789e+10
-3.4858e+10
-3.49151e+10
-3.4968e+10
-3.50264e+10
-3.50997e+10
-3.51936e+10
-3.5306e+10
-3.54183e+10
-3.54843e+10
-3.54342e+10
-3.5235e+10
-3.50314e+10
-3.52324e+10
-3.61812e+10
-3.72362e+10
-3.63865e+10
-3.28744e+10
-3.2323e+10
-4.39833e+10
-5.82005e+10
-3.04454e+10
-3.68092e+10
-3.68119e+10
-3.68194e+10
-3.68388e+10
-3.68755e+10
-3.69343e+10
-3.70168e+10
-3.71206e+10
-3.72416e+10
-3.73776e+10
-3.75344e+10
-3.77291e+10
-3.79879e+10
-3.8337e+10
-3.87889e+10
-3.9328e+10
-3.98939e+10
-4.03885e+10
-4.07569e+10
-4.11261e+10
-4.18442e+10
-4.29177e+10
-4.29581e+10
-4.00941e+10
-3.62551e+10
-3.44842e+10
-3.38571e+10
-3.37326e+10
-3.38742e+10
-3.40923e+10
-3.43068e+10
-3.44859e+10
-3.46229e+10
-3.47212e+10
-3.47894e+10
-3.48382e+10
-3.48796e+10
-3.49245e+10
-3.49792e+10
-3.50418e+10
-3.50935e+10
-3.5088e+10
-3.49582e+10
-3.468e+10
-3.44104e+10
-3.45525e+10
-3.53906e+10
-3.62074e+10
-3.50913e+10
-3.17002e+10
-3.19235e+10
-4.44247e+10
-5.91302e+10
-3.10772e+10
-3.68399e+10
-3.68393e+10
-3.68496e+10
-3.687e+10
-3.69072e+10
-3.69653e+10
-3.70456e+10
-3.71458e+10
-3.72613e+10
-3.73902e+10
-3.75382e+10
-3.77221e+10
-3.79683e+10
-3.83044e+10
-3.87462e+10
-3.92828e+10
-3.98567e+10
-4.03672e+10
-4.07395e+10
-4.10789e+10
-4.17255e+10
-4.27046e+10
-4.28193e+10
-4.03076e+10
-3.65015e+10
-3.47099e+10
-3.40281e+10
-3.38734e+10
-3.39852e+10
-3.41769e+10
-3.43702e+10
-3.45337e+10
-3.46597e+10
-3.47511e+10
-3.48162e+10
-3.48666e+10
-3.49155e+10
-3.49748e+10
-3.50521e+10
-3.51458e+10
-3.52364e+10
-3.52756e+10
-3.51923e+10
-3.4956e+10
-3.47151e+10
-3.48643e+10
-3.56805e+10
-3.64206e+10
-3.50391e+10
-3.07519e+10
-2.88578e+10
-3.96487e+10
-5.85323e+10
-3.91978e+10
-3.66903e+10
-3.66963e+10
-3.66951e+10
-3.67068e+10
-3.67385e+10
-3.67952e+10
-3.68753e+10
-3.69708e+10
-3.70712e+10
-3.7172e+10
-3.72882e+10
-3.74643e+10
-3.77702e+10
-3.82754e+10
-3.90117e+10
-3.99454e+10
-4.09651e+10
-4.19272e+10
-4.28096e+10
-4.38147e+10
-4.53541e+10
-4.73497e+10
-4.78795e+10
-4.35174e+10
-3.69936e+10
-3.25955e+10
-3.23436e+10
-3.2825e+10
-3.33674e+10
-3.38108e+10
-3.41474e+10
-3.43948e+10
-3.45722e+10
-3.46956e+10
-3.47806e+10
-3.48439e+10
-3.49019e+10
-3.49687e+10
-3.50534e+10
-3.51553e+10
-3.52557e+10
-3.53077e+10
-3.5243e+10
-3.50378e+10
-3.4848e+10
-3.50625e+10
-3.59209e+10
-3.66421e+10
-3.53139e+10
-3.17577e+10
-3.20418e+10
-4.4549e+10
-5.86965e+10
-3.08303e+10
-3.6689e+10
-3.6692e+10
-3.66897e+10
-3.66985e+10
-3.67269e+10
-3.67802e+10
-3.68572e+10
-3.69506e+10
-3.70511e+10
-3.71554e+10
-3.72792e+10
-3.74659e+10
-3.7781e+10
-3.82901e+10
-3.90272e+10
-3.9963e+10
-4.09783e+10
-4.19035e+10
-4.2628e+10
-4.32897e+10
-4.44433e+10
-4.62317e+10
-4.70463e+10
-4.41273e+10
-3.7938e+10
-3.24336e+10
-3.21968e+10
-3.27308e+10
-3.33088e+10
-3.3769e+10
-3.41132e+10
-3.43647e+10
-3.45455e+10
-3.46726e+10
-3.47622e+10
-3.48304e+10
-3.48932e+10
-3.49647e+10
-3.5054e+10
-3.51606e+10
-3.52668e+10
-3.53273e+10
-3.52756e+10
-3.50896e+10
-3.49274e+10
-3.51804e+10
-3.60788e+10
-3.67758e+10
-3.51516e+10
-3.06771e+10
-2.94547e+10
-4.17063e+10
-5.89945e+10
-3.21874e+10
-3.66384e+10
-3.66546e+10
-3.66491e+10
-3.66593e+10
-3.66896e+10
-3.67454e+10
-3.68226e+10
-3.69101e+10
-3.69951e+10
-3.70755e+10
-3.71772e+10
-3.73687e+10
-3.77464e+10
-3.83857e+10
-3.92894e+10
-4.03578e+10
-4.14422e+10
-4.24399e+10
-4.33648e+10
-4.44499e+10
-4.60008e+10
-4.79077e+10
-4.90154e+10
-4.69116e+10
-4.05736e+10
-2.63703e+10
-2.91237e+10
-3.13062e+10
-3.25639e+10
-3.33271e+10
-3.38178e+10
-3.41423e+10
-3.43576e+10
-3.44982e+10
-3.4589e+10
-3.46507e+10
-3.47018e+10
-3.47574e+10
-3.48272e+10
-3.49116e+10
-3.49936e+10
-3.503e+10
-3.49586e+10
-3.47626e+10
-3.46025e+10
-3.48635e+10
-3.57676e+10
-3.64952e+10
-3.50682e+10
-3.12076e+10
-3.09717e+10
-4.38278e+10
-6.23762e+10
-4.09422e+10
-3.66158e+10
-3.66359e+10
-3.66258e+10
-3.66321e+10
-3.66595e+10
-3.6714e+10
-3.67924e+10
-3.68844e+10
-3.69787e+10
-3.70744e+10
-3.7198e+10
-3.74121e+10
-3.78014e+10
-3.84376e+10
-3.93349e+10
-4.04115e+10
-4.15113e+10
-4.24609e+10
-4.31829e+10
-4.38906e+10
-4.52918e+10
-4.76793e+10
-4.89245e+10
-4.73648e+10
-4.45029e+10
-2.64091e+10
-2.88788e+10
-3.11262e+10
-3.24336e+10
-3.32283e+10
-3.37401e+10
-3.40806e+10
-3.43104e+10
-3.44656e+10
-3.45718e+10
-3.46491e+10
-3.47148e+10
-3.47823e+10
-3.48596e+10
-3.49451e+10
-3.50204e+10
-3.50418e+10
-3.49471e+10
-3.47212e+10
-3.45287e+10
-3.47626e+10
-3.56354e+10
-3.62423e+10
-3.44899e+10
-3.0556e+10
-3.22193e+10
-4.84687e+10
-6.24689e+10
-3.09222e+10
-3.66079e+10
-3.66085e+10
-3.66019e+10
-3.66063e+10
-3.66319e+10
-3.66837e+10
-3.67577e+10
-3.68422e+10
-3.69247e+10
-3.70029e+10
-3.71033e+10
-3.7297e+10
-3.76802e+10
-3.83272e+10
-3.92346e+10
-4.03019e+10
-4.1401e+10
-4.24163e+10
-4.33646e+10
-4.45433e+10
-4.62919e+10
-4.81168e+10
-4.76884e+10
-4.25334e+10
-2.03191e+10
-2.87942e+10
-3.10562e+10
-3.23964e+10
-3.32237e+10
-3.37593e+10
-3.41168e+10
-3.43584e+10
-3.45212e+10
-3.46309e+10
-3.47075e+10
-3.47676e+10
-3.48234e+10
-3.48812e+10
-3.4938e+10
-3.49754e+10
-3.49512e+10
-3.48074e+10
-3.4531e+10
-3.42801e+10
-3.4434e+10
-3.52269e+10
-3.58928e+10
-3.45207e+10
-3.0806e+10
-3.05324e+10
-4.28092e+10
-6.07756e+10
-3.83263e+10
-3.65961e+10
-3.66049e+10
-3.6595e+10
-3.65997e+10
-3.66261e+10
-3.66805e+10
-3.67591e+10
-3.6851e+10
-3.69439e+10
-3.70361e+10
-3.71539e+10
-3.73619e+10
-3.77495e+10
-3.83898e+10
-3.92892e+10
-4.03629e+10
-4.14582e+10
-4.23903e+10
-4.31523e+10
-4.40071e+10
-4.54221e+10
-4.76278e+10
-4.94018e+10
-4.84627e+10
-2.0895e+10
-2.87127e+10
-3.09758e+10
-3.23394e+10
-3.31867e+10
-3.37347e+10
-3.40997e+10
-3.43462e+10
-3.45129e+10
-3.46258e+10
-3.47053e+10
-3.47682e+10
-3.48265e+10
-3.48861e+10
-3.49431e+10
-3.49783e+10
-3.49484e+10
-3.47942e+10
-3.45014e+10
-3.42287e+10
-3.43586e+10
-3.51168e+10
-3.56818e+10
-3.41089e+10
-3.0538e+10
-3.20144e+10
-4.67906e+10
-6.08194e+10
-3.06017e+10
-3.6648e+10
-3.66382e+10
-3.66422e+10
-3.66511e+10
-3.66817e+10
-3.67365e+10
-3.68128e+10
-3.69008e+10
-3.69887e+10
-3.70722e+10
-3.71705e+10
-3.73438e+10
-3.7683e+10
-3.82675e+10
-3.91127e+10
-4.01306e+10
-4.11862e+10
-4.21489e+10
-4.29857e+10
-4.38735e+10
-4.50989e+10
-4.67263e+10
-4.80633e+10
-4.65268e+10
-3.55487e+10
-3.14391e+10
-3.14589e+10
-3.22042e+10
-3.29405e+10
-3.35047e+10
-3.39134e+10
-3.42043e+10
-3.44084e+10
-3.45487e+10
-3.46439e+10
-3.47102e+10
-3.47617e+10
-3.48093e+10
-3.48586e+10
-3.49064e+10
-3.49353e+10
-3.49069e+10
-3.4768e+10
-3.45063e+10
-3.42699e+10
-3.44205e+10
-3.51986e+10
-3.59146e+10
-3.47998e+10
-3.17203e+10
-3.26492e+10
-4.54831e+10
-5.83521e+10
-3.01365e+10
-3.66585e+10
-3.66592e+10
-3.66586e+10
-3.66693e+10
-3.67016e+10
-3.67603e+10
-3.68432e+10
-3.69405e+10
-3.70401e+10
-3.7137e+10
-3.72487e+10
-3.7426e+10
-3.77457e+10
-3.82806e+10
-3.90546e+10
-4.00016e+10
-4.09763e+10
-4.18469e+10
-4.26221e+10
-4.35632e+10
-4.48951e+10
-4.65881e+10
-4.72411e+10
-4.5746e+10
-3.65523e+10
-3.12325e+10
-3.12542e+10
-3.20752e+10
-3.28735e+10
-3.34745e+10
-3.39013e+10
-3.41989e+10
-3.44023e+10
-3.45368e+10
-3.46224e+10
-3.46758e+10
-3.47116e+10
-3.47413e+10
-3.47706e+10
-3.47966e+10
-3.48017e+10
-3.47473e+10
-3.45796e+10
-3.4286e+10
-3.40141e+10
-3.41249e+10
-3.48591e+10
-3.55201e+10
-3.42674e+10
-3.06905e+10
-3.04258e+10
-4.24936e+10
-5.83308e+10
-3.15707e+10
-3.67638e+10
-3.67628e+10
-3.67677e+10
-3.67845e+10
-3.68217e+10
-3.68841e+10
-3.69719e+10
-3.708e+10
-3.72006e+10
-3.73292e+10
-3.74736e+10
-3.76617e+10
-3.7938e+10
-3.83459e+10
-3.88995e+10
-3.95608e+10
-4.02435e+10
-4.08339e+10
-4.12486e+10
-4.1545e+10
-4.19724e+10
-4.27026e+10
-4.27883e+10
-3.97726e+10
-3.61716e+10
-3.43175e+10
-3.36088e+10
-3.34669e+10
-3.36195e+10
-3.38505e+10
-3.40751e+10
-3.42592e+10
-3.43958e+10
-3.4488e+10
-3.45444e+10
-3.45763e+10
-3.45958e+10
-3.46134e+10
-3.46353e+10
-3.46604e+10
-3.46741e+10
-3.46415e+10
-3.45132e+10
-3.42764e+10
-3.40668e+10
-3.42238e+10
-3.49792e+10
-3.56769e+10
-3.45784e+10
-3.14057e+10
-3.17416e+10
-4.3816e+10
-5.82592e+10
-2.93978e+10
-3.67735e+10
-3.67731e+10
-3.67771e+10
-3.67931e+10
-3.68287e+10
-3.68891e+10
-3.69747e+10
-3.70806e+10
-3.71999e+10
-3.73289e+10
-3.74757e+10
-3.7666e+10
-3.79395e+10
-3.83343e+10
-3.88621e+10
-3.94846e+10
-4.01099e+10
-4.06292e+10
-4.10035e+10
-4.13681e+10
-4.19853e+10
-4.28547e+10
-4.27984e+10
-3.99443e+10
-3.61997e+10
-3.42485e+10
-3.35255e+10
-3.3406e+10
-3.35857e+10
-3.38353e+10
-3.407e+10
-3.42576e+10
-3.43929e+10
-3.44798e+10
-3.45275e+10
-3.45474e+10
-3.45516e+10
-3.45507e+10
-3.45509e+10
-3.45509e+10
-3.45362e+10
-3.44725e+10
-3.43115e+10
-3.40421e+10
-3.38026e+10
-3.39365e+10
-3.46911e+10
-3.54323e+10
-3.43232e+10
-3.05504e+10
-2.88956e+10
-3.91012e+10
-5.72622e+10
-3.39456e+10
-3.68379e+10
-3.68398e+10
-3.68488e+10
-3.6869e+10
-3.69066e+10
-3.69665e+10
-3.70516e+10
-3.71625e+10
-3.7299e+10
-3.74629e+10
-3.76618e+10
-3.79106e+10
-3.82274e+10
-3.86252e+10
-3.90996e+10
-3.96181e+10
-4.01194e+10
-4.05273e+10
-4.07921e+10
-4.0935e+10
-4.10442e+10
-4.10324e+10
-4.0279e+10
-3.83135e+10
-3.61452e+10
-3.48727e+10
-3.4278e+10
-3.40663e+10
-3.4088e+10
-3.42143e+10
-3.4371e+10
-3.45168e+10
-3.4635e+10
-3.4722e+10
-3.47825e+10
-3.48253e+10
-3.48607e+10
-3.48981e+10
-3.4943e+10
-3.49932e+10
-3.50334e+10
-3.50277e+10
-3.49247e+10
-3.47076e+10
-3.4507e+10
-3.46555e+10
-3.53798e+10
-3.60188e+10
-3.48212e+10
-3.15032e+10
-3.177e+10
-4.40574e+10
-5.866e+10
-3.24798e+10
-3.68502e+10
-3.68518e+10
-3.68612e+10
-3.68817e+10
-3.69189e+10
-3.69774e+10
-3.70594e+10
-3.71654e+10
-3.72952e+10
-3.74513e+10
-3.76419e+10
-3.78827e+10
-3.8193e+10
-3.85871e+10
-3.90618e+10
-3.95849e+10
-4.00924e+10
-4.05074e+10
-4.07857e+10
-4.09686e+10
-4.11523e+10
-4.12026e+10
-4.04575e+10
-3.84533e+10
-3.62088e+10
-3.49003e+10
-3.42998e+10
-3.40911e+10
-3.41149e+10
-3.42393e+10
-3.43902e+10
-3.45273e+10
-3.46343e+10
-3.47079e+10
-3.47524e+10
-3.47766e+10
-3.47907e+10
-3.48038e+10
-3.48214e+10
-3.48416e+10
-3.48495e+10
-3.48103e+10
-3.46746e+10
-3.44286e+10
-3.42057e+10
-3.43429e+10
-3.50767e+10
-3.57395e+10
-3.44868e+10
-3.08818e+10
-3.09019e+10
-4.39308e+10
-5.89717e+10
-2.97427e+10
-3.69391e+10
-3.69411e+10
-3.69549e+10
-3.69765e+10
-3.70107e+10
-3.70599e+10
-3.71264e+10
-3.72119e+10
-3.73187e+10
-3.74512e+10
-3.76176e+10
-3.78289e+10
-3.80962e+10
-3.84248e+10
-3.88078e+10
-3.92204e+10
-3.96189e+10
-3.99524e+10
-4.01905e+10
-4.03423e+10
-4.04025e+10
-4.01942e+10
-3.93867e+10
-3.8006e+10
-3.65923e+10
-3.55879e+10
-3.49954e+10
-3.46937e+10
-3.45754e+10
-3.45584e+10
-3.45885e+10
-3.46316e+10
-3.46695e+10
-3.46952e+10
-3.47099e+10
-3.47196e+10
-3.47327e+10
-3.47568e+10
-3.47949e+10
-3.48421e+10
-3.48787e+10
-3.48635e+10
-3.47395e+10
-3.44878e+10
-3.42442e+10
-3.43546e+10
-3.50472e+10
-3.56029e+10
-3.41158e+10
-3.00665e+10
-2.91442e+10
-4.15424e+10
-6.19818e+10
-4.27887e+10
-3.69461e+10
-3.69534e+10
-3.69684e+10
-3.69929e+10
-3.70297e+10
-3.70812e+10
-3.7149e+10
-3.72344e+10
-3.7339e+10
-3.74665e+10
-3.76244e+10
-3.78233e+10
-3.80745e+10
-3.83846e+10
-3.87497e+10
-3.91482e+10
-3.95386e+10
-3.98708e+10
-4.01166e+10
-4.02894e+10
-4.03815e+10
-4.02099e+10
-3.94459e+10
-3.80951e+10
-3.66878e+10
-3.56841e+10
-3.50918e+10
-3.47876e+10
-3.46637e+10
-3.46386e+10
-3.46591e+10
-3.46914e+10
-3.47173e+10
-3.47295e+10
-3.47288e+10
-3.47208e+10
-3.4714e+10
-3.47162e+10
-3.47315e+10
-3.4757e+10
-3.47764e+10
-3.47528e+10
-3.46339e+10
-3.44047e+10
-3.42037e+10
-3.43783e+10
-3.51433e+10
-3.57098e+10
-3.40927e+10
-3.02093e+10
-3.12461e+10
-4.67287e+10
-6.21327e+10
-3.20724e+10
-3.70519e+10
-3.70613e+10
-3.70821e+10
-3.71125e+10
-3.71546e+10
-3.72097e+10
-3.72785e+10
-3.73617e+10
-3.74605e+10
-3.75775e+10
-3.77168e+10
-3.78836e+10
-3.80818e+10
-3.83116e+10
-3.85659e+10
-3.88271e+10
-3.9067e+10
-3.92564e+10
-3.93835e+10
-3.94544e+10
-3.94411e+10
-3.92161e+10
-3.86377e+10
-3.77743e+10
-3.68811e+10
-3.61475e+10
-3.56219e+10
-3.52835e+10
-3.5084e+10
-3.49749e+10
-3.4918e+10
-3.48859e+10
-3.48616e+10
-3.4837e+10
-3.48118e+10
-3.47909e+10
-3.47817e+10
-3.47914e+10
-3.48234e+10
-3.48725e+10
-3.49189e+10
-3.49205e+10
-3.48198e+10
-3.46029e+10
-3.44212e+10
-3.46453e+10
-3.55165e+10
-3.62766e+10
-3.48855e+10
-3.05799e+10
-2.88325e+10
-4.00664e+10
-5.99917e+10
-4.05073e+10
-3.70477e+10
-3.70624e+10
-3.70811e+10
-3.71116e+10
-3.71542e+10
-3.72105e+10
-3.72813e+10
-3.73671e+10
-3.74687e+10
-3.75883e+10
-3.77291e+10
-3.78954e+10
-3.80903e+10
-3.83135e+10
-3.8558e+10
-3.88073e+10
-3.90351e+10
-3.92142e+10
-3.93332e+10
-3.93978e+10
-3.93816e+10
-3.91634e+10
-3.86103e+10
-3.77814e+10
-3.69157e+10
-3.61983e+10
-3.56785e+10
-3.53387e+10
-3.51335e+10
-3.50165e+10
-3.49504e+10
-3.4908e+10
-3.48721e+10
-3.48339e+10
-3.47928e+10
-3.4753e+10
-3.4722e+10
-3.47071e+10
-3.47126e+10
-3.47356e+10
-3.47599e+10
-3.47478e+10
-3.46466e+10
-3.44451e+10
-3.42963e+10
-3.45707e+10
-3.54813e+10