/*--------------------------------*- C++ -*----------------------------------*\
| =========                 |                                                 |
| \\      /  F ield         | OpenFOAM: The Open Source CFD Toolbox           |
|  \\    /   O peration     | Version:  4.1                                   |
|   \\  /    A nd           | Web:      www.OpenFOAM.org                      |
|    \\/     M anipulation  |                                                 |
\*---------------------------------------------------------------------------*/
FoamFile
{
    version     2.0;
    format      ascii;
    class       surfaceScalarField;
    location    "91";
    object      phi;
}
// * * * * * * * * * * * * * * * * * * * * * * * * * * * * * * * * * * * * * //

dimensions      [0 3 -1 0 0 0 0];

internalField   nonuniform List<scalar> 
11516
(
-3.74428e+10
6.14726e+06
3.24992e+08
-3.77232e+10
-1.3648e+07
3.01975e+08
-3.80114e+10
-3.12662e+06
2.98782e+08
-3.829e+10
-6.89196e+06
2.92503e+08
-3.8573e+10
-1.90972e+06
2.91451e+08
-3.88603e+10
1.63483e+06
2.91785e+08
-3.91487e+10
4.68885e+06
2.89461e+08
-3.94365e+10
8.08618e+06
2.85364e+08
-3.97199e+10
1.13005e+07
2.77722e+08
-3.9993e+10
1.43267e+07
2.64321e+08
-4.02489e+10
1.71259e+07
2.44098e+08
-4.04819e+10
1.95855e+07
2.1826e+08
-4.06822e+10
2.14484e+07
1.82185e+08
-4.08433e+10
2.26542e+07
1.39671e+08
-4.0955e+10
2.32075e+07
8.77748e+07
-4.10084e+10
2.32296e+07
2.75621e+07
-4.0996e+10
2.2796e+07
-3.8836e+07
-4.09108e+10
2.11961e+07
-1.12312e+08
-4.07513e+10
1.82429e+07
-1.85309e+08
-4.05145e+10
1.37581e+07
-2.60592e+08
-4.0198e+10
8.3982e+06
-3.34992e+08
-3.98083e+10
2.16587e+06
-4.02785e+08
-3.93474e+10
-4.51438e+06
-4.66035e+08
-3.88284e+10
-1.18828e+07
-5.15604e+08
-3.826e+10
-1.98031e+07
-5.55332e+08
-3.76601e+10
-2.81936e+07
-5.77277e+08
-3.704e+10
-3.69832e+07
-5.87593e+08
-3.64167e+10
-4.59908e+07
-5.80469e+08
-3.58004e+10
-5.51412e+07
-5.62474e+08
-3.52033e+10
-6.4336e+07
-5.3197e+08
-3.46356e+10
-7.35361e+07
-4.90555e+08
-3.4103e+10
-8.2869e+07
-4.42927e+08
-3.36136e+10
-9.23904e+07
-3.86236e+08
-3.31717e+10
-1.0212e+08
-3.24499e+08
-3.27815e+10
-1.12118e+08
-2.57422e+08
-3.24478e+10
-1.22745e+08
-1.84391e+08
-3.21713e+10
-1.34401e+08
-1.08705e+08
-3.19557e+10
-1.48651e+08
-2.62676e+07
-3.18002e+10
-1.6716e+08
6.04777e+07
-3.17088e+10
-1.89697e+08
1.565e+08
-3.16858e+10
-2.16167e+08
2.62865e+08
-3.1736e+10
-2.48018e+08
3.82482e+08
-3.18664e+10
-2.87742e+08
5.21319e+08
-3.20901e+10
-3.39391e+08
6.87848e+08
-3.24484e+10
-4.05012e+08
9.03384e+08
-3.3052e+10
-4.74217e+08
1.20613e+09
-3.40912e+10
-5.25562e+08
1.62343e+09
-3.56747e+10
-5.85265e+08
2.06035e+09
-3.75668e+10
-8.22661e+08
2.36957e+09
-3.93887e+10
-1.50806e+09
2.62762e+09
-4.25872e+10
-2.36545e+09
4.33467e+09
-4.97141e+10
-1.21626e+09
7.57568e+09
-6.0879e+10
-3.68113e+09
1.44076e+10
-1.64083e+09
9.8616e+09
-4.69784e+10
3.23609e+08
-4.73041e+10
3.16516e+08
-4.76063e+10
3.03309e+08
-4.79091e+10
2.99992e+08
-4.82015e+10
2.9428e+08
-4.84873e+10
2.91189e+08
-4.87652e+10
2.862e+08
-4.9033e+10
2.79535e+08
-4.9288e+10
2.6989e+08
-4.95252e+10
2.55065e+08
-4.97386e+10
2.34095e+08
-4.99246e+10
2.08741e+08
-5.00744e+10
1.73681e+08
-5.0184e+10
1.33639e+08
-5.02452e+10
8.49554e+07
-5.02518e+10
2.9711e+07
-5.0201e+10
-2.88362e+07
-5.00894e+10
-9.21258e+07
-4.99197e+10
-1.5431e+08
-4.96893e+10
-2.19896e+08
-4.93983e+10
-2.86356e+08
-4.90535e+10
-3.46029e+08
-4.86584e+10
-4.02674e+08
-4.82262e+10
-4.46113e+08
-4.77651e+10
-4.81873e+08
-4.72921e+10
-5.01097e+08
-4.68168e+10
-5.11331e+08
-4.63551e+10
-5.05596e+08
-4.59155e+10
-4.91414e+08
-4.55085e+10
-4.6637e+08
-4.51433e+10
-4.31896e+08
-4.4824e+10
-3.93047e+08
-4.45587e+10
-3.46052e+08
-4.43505e+10
-2.95769e+08
-4.42028e+10
-2.41903e+08
-4.41201e+10
-1.83712e+08
-4.41035e+10
-1.25121e+08
-4.41589e+10
-6.26989e+07
-4.42892e+10
-1.15168e+06
-4.45013e+10
6.42001e+07
-4.48033e+10
1.34802e+08
-4.52038e+10
2.10593e+08
-4.57173e+10
2.94894e+08
-4.63699e+10
3.93984e+08
-4.7212e+10
5.2438e+08
-4.83234e+10
7.1486e+08
-4.97998e+10
9.84429e+08
-5.17068e+10
1.27586e+09
-5.42412e+10
1.51901e+09
-5.80984e+10
1.95312e+09
-6.47176e+10
3.86887e+09
-7.30076e+10
6.69134e+09
-9.12509e+10
1.43057e+10
1.69913e+10
-6.70219e+10
1.17704e+08
3.01987e+08
-6.71315e+10
1.17454e+08
3.00294e+08
-6.72412e+10
1.19847e+08
2.95036e+08
-6.73565e+10
1.21668e+08
2.92611e+08
-6.74716e+10
1.22965e+08
2.90181e+08
-6.75878e+10
1.2485e+08
2.89749e+08
-6.77047e+10
1.26692e+08
2.86529e+08
-6.78216e+10
1.28507e+08
2.80827e+08
-6.79339e+10
1.30077e+08
2.67213e+08
-6.80419e+10
1.31437e+08
2.48538e+08
-6.81431e+10
1.32473e+08
2.20767e+08
-6.82335e+10
1.33135e+08
1.83641e+08
-6.83116e+10
1.33263e+08
1.34854e+08
-6.83727e+10
1.32884e+08
7.56977e+07
-6.84138e+10
1.31815e+08
4.32188e+06
-6.84355e+10
1.3061e+08
-7.37255e+07
-6.84422e+10
1.30051e+08
-1.55069e+08
-6.84391e+10
1.30379e+08
-2.384e+08
-6.84235e+10
1.29884e+08
-3.24276e+08
-6.83947e+10
1.2768e+08
-4.10216e+08
-6.83546e+10
1.23765e+08
-4.92428e+08
-6.83033e+10
1.19663e+08
-5.66947e+08
-6.82454e+10
1.15397e+08
-6.31409e+08
-6.81788e+10
1.10814e+08
-6.82951e+08
-6.81118e+10
1.05779e+08
-7.1513e+08
-6.80411e+10
1.00163e+08
-7.32591e+08
-6.79729e+10
9.38027e+07
-7.31541e+08
-6.79026e+10
8.66317e+07
-7.16824e+08
-6.7832e+10
7.85466e+07
-6.88224e+08
-6.77546e+10
6.94992e+07
-6.52366e+08
-6.76672e+10
5.94565e+07
-6.07432e+08
-6.75651e+10
4.83886e+07
-5.59477e+08
-6.74399e+10
3.64258e+07
-5.09415e+08
-6.7287e+10
2.37129e+07
-4.57764e+08
-6.70972e+10
1.0505e+07
-4.08765e+08
-6.68619e+10
-2.86394e+06
-3.61464e+08
-6.6573e+10
-1.59472e+07
-3.19153e+08
-6.62201e+10
-2.89871e+07
-2.79865e+08
-6.57953e+10
-4.23618e+07
-2.42744e+08
-6.52895e+10
-5.57045e+07
-2.04646e+08
-6.46927e+10
-6.70523e+07
-1.66821e+08
-6.39955e+10
-7.56792e+07
-1.26362e+08
-6.31749e+10
-8.12322e+07
-9.03506e+07
-6.22088e+10
-8.26971e+07
-5.17869e+07
-6.10773e+10
-7.76525e+07
7.54365e+06
-5.9754e+10
-5.9498e+07
1.04297e+08
-5.8165e+10
-2.18656e+07
2.01284e+08
-5.62433e+10
2.24977e+07
2.17869e+08
-5.40353e+10
6.83646e+06
1.7488e+08
-5.2094e+10
2.92981e+07
5.79184e+08
-4.93949e+10
3.47893e+08
1.18316e+09
-4.35469e+10
8.03624e+08
8.32588e+08
-2.05805e+10
-3.69315e+09
-4.88913e+09
-3.66944e+09
-4.38991e+09
-7.78059e+10
5.2863e+08
-7.79031e+10
5.34959e+08
-7.79969e+10
5.20866e+08
-7.80911e+10
5.19735e+08
-7.8185e+10
5.15156e+08
-7.82773e+10
5.12358e+08
-7.83681e+10
5.07762e+08
-7.84572e+10
5.01316e+08
-7.854e+10
4.87142e+08
-7.8618e+10
4.6907e+08
-7.86896e+10
4.42819e+08
-7.87514e+10
4.08448e+08
-7.88034e+10
3.63611e+08
-7.88421e+10
3.09684e+08
-7.88647e+10
2.43943e+08
-7.887e+10
1.70189e+08
-7.88519e+10
8.75569e+07
-7.88091e+10
-310001
-7.874e+10
-8.93971e+07
-7.8653e+10
-1.75247e+08
-7.85562e+10
-2.55576e+08
-7.84499e+10
-3.28931e+08
-7.83385e+10
-3.94259e+08
-7.82198e+10
-4.48196e+08
-7.81042e+10
-4.84176e+08
-7.79885e+10
-5.07506e+08
-7.78815e+10
-5.13778e+08
-7.77801e+10
-5.08011e+08
-7.76893e+10
-4.89519e+08
-7.76047e+10
-4.6527e+08
-7.7526e+10
-4.32653e+08
-7.74514e+10
-3.9813e+08
-7.73746e+10
-3.62587e+08
-7.72929e+10
-3.26487e+08
-7.71994e+10
-2.94118e+08
-7.70872e+10
-2.63747e+08
-7.69494e+10
-2.39241e+08
-7.67776e+10
-2.18715e+08
-7.65679e+10
-2.02801e+08
-7.63113e+10
-1.91339e+08
-7.599e+10
-1.8954e+08
-7.55875e+10
-1.95118e+08
-7.50773e+10
-2.14433e+08
-7.44316e+10
-2.42125e+08
-7.36191e+10
-2.65531e+08
-7.25869e+10
-2.76757e+08
-7.12228e+10
-3.15689e+08
-6.94206e+10
-4.54239e+08
-6.72207e+10
-6.74822e+08
-6.44896e+10
-8.02768e+08
-5.86862e+10
-1.66938e+09
-4.71188e+10
-4.097e+09
-2.76376e+10
-8.76612e+09
-4.40543e+09
-5.6083e+10
2.14512e+07
1.95974e+08
-5.60085e+10
3.31321e+07
2.0074e+08
-5.59469e+10
2.88722e+07
2.12734e+08
-5.58999e+10
3.04036e+07
2.23665e+08
-5.58602e+10
2.78917e+07
2.3112e+08
-5.58255e+10
2.6124e+07
2.37598e+08
-5.57981e+10
2.4058e+07
2.43816e+08
-5.5774e+10
2.16735e+07
2.43876e+08
-5.57577e+10
1.86683e+07
2.41393e+08
-5.57453e+10
1.51816e+07
2.30366e+08
-5.57397e+10
1.10283e+07
2.13914e+08
-5.57407e+10
6.20155e+06
1.8855e+08
-5.5748e+10
591452
1.51942e+08
-5.576e+10
-5.9344e+06
1.04462e+08
-5.57786e+10
-1.36289e+07
4.76698e+07
-5.57933e+10
-2.32579e+07
-2.38773e+07
-5.57878e+10
-3.72718e+07
-1.12117e+08
-5.57472e+10
-5.40716e+07
-2.13172e+08
-5.56633e+10
-6.97689e+07
-3.27469e+08
-5.55345e+10
-8.19368e+07
-4.45259e+08
-5.53648e+10
-9.14843e+07
-5.61046e+08
-5.51524e+10
-9.91272e+07
-6.70124e+08
-5.49062e+10
-1.0512e+08
-7.62058e+08
-5.46343e+10
-1.0824e+08
-8.32427e+08
-5.43458e+10
-1.08546e+08
-8.76676e+08
-5.40556e+10
-1.05997e+08
-8.94234e+08
-5.37737e+10
-1.0086e+08
-8.85986e+08
-5.35088e+10
-9.34647e+07
-8.57697e+08
-5.32654e+10
-8.4359e+07
-8.12171e+08
-5.30496e+10
-7.41226e+07
-7.54021e+08
-5.28585e+10
-6.33882e+07
-6.89565e+08
-5.26953e+10
-5.27473e+07
-6.18251e+08
-5.25556e+10
-4.28054e+07
-5.4787e+08
-5.24349e+10
-3.4282e+07
-4.78136e+08
-5.23338e+10
-2.73279e+07
-4.08052e+08
-5.22462e+10
-2.15423e+07
-3.43516e+08
-5.21707e+10
-1.71464e+07
-2.82941e+08
-5.21051e+10
-1.41989e+07
-2.24761e+08
-5.2043e+10
-1.33476e+07
-1.71652e+08
-5.19672e+10
-1.71001e+07
-1.28606e+08
-5.18614e+10
-2.73893e+07
-9.35272e+07
-5.17029e+10
-4.32738e+07
-7.00922e+07
-5.14822e+10
-6.36035e+07
-5.26885e+07
-5.11798e+10
-8.84382e+07
-4.53777e+07
-5.07634e+10
-1.16356e+08
-4.99523e+07
-5.01965e+10
-1.4047e+08
-7.23873e+07
-4.94852e+10
-1.59534e+08
-1.23165e+08
-4.86792e+10
-2.11054e+08
-2.17829e+08
-4.76864e+10
-3.57434e+08
-3.96674e+08
-4.56335e+10
-4.85707e+08
-9.85738e+08
-4.24747e+10
-2.05642e+08
-1.71288e+09
-4.22682e+10
2.15639e+08
6.29573e+08
-5.06754e+10
-7.73953e+09
1.1654e+10
-6.21482e+09
9.29685e+09
-6.59303e+10
4.02489e+08
-6.57495e+10
3.92447e+08
-6.55955e+10
4.01067e+08
-6.54421e+10
4.02155e+08
-6.52964e+10
4.02658e+08
-6.51532e+10
4.00737e+08
-6.50144e+10
3.98347e+08
-6.48753e+10
3.89222e+08
-6.47415e+10
3.775e+08
-6.46085e+10
3.56876e+08
-6.44799e+10
3.30921e+08
-6.43554e+10
2.95986e+08
-6.4235e+10
2.49755e+08
-6.41178e+10
1.92818e+08
-6.40084e+10
1.27509e+08
-6.39037e+10
4.88833e+07
-6.38066e+10
-4.01892e+07
-6.37185e+10
-1.36075e+08
-6.36294e+10
-2.41882e+08
-6.35303e+10
-3.50339e+08
-6.3417e+10
-4.54939e+08
-6.32886e+10
-5.51715e+08
-6.31526e+10
-6.29641e+08
-6.30154e+10
-6.85828e+08
-6.28819e+10
-7.16017e+08
-6.27625e+10
-7.20168e+08
-6.26626e+10
-6.99385e+08
-6.25869e+10
-6.59557e+08
-6.25371e+10
-6.03317e+08
-6.25178e+10
-5.35181e+08
-6.25255e+10
-4.61367e+08
-6.25644e+10
-3.81073e+08
-6.26322e+10
-3.0232e+08
-6.27284e+10
-2.24628e+08
-6.28573e+10
-1.47157e+08
-6.30148e+10
-7.63965e+07
-6.32019e+10
-1.1307e+07
-6.34173e+10
4.78515e+07
-6.36576e+10
9.77229e+07
-6.39179e+10
1.34741e+08
-6.42049e+10
1.63731e+08
-6.45169e+10
1.79699e+08
-6.48613e+10
1.86863e+08
-6.52377e+10
1.81435e+08
-6.56367e+10
1.63891e+08
-6.60371e+10
1.28759e+08
-6.64535e+10
6.29848e+07
-6.69899e+10
-5.38744e+07
-6.77416e+10
-2.63656e+08
-6.85237e+10
-4.93578e+08
-7.06062e+10
3.17369e+08
-7.71324e+10
2.96831e+09
-1.03845e+11
1.05539e+10
9.03752e+09
-6.38642e+10
-1.56598e+08
3.68114e+08
-6.39022e+10
-1.56982e+08
4.04189e+08
-6.39428e+10
-1.54303e+08
4.16177e+08
-6.39932e+10
-1.54514e+08
4.37172e+08
-6.40544e+10
-1.55006e+08
4.55653e+08
-6.41259e+10
-1.55492e+08
4.72739e+08
-6.42029e+10
-1.55547e+08
4.84233e+08
-6.4288e+10
-1.55565e+08
4.92242e+08
-6.43783e+10
-1.55706e+08
4.9495e+08
-6.44722e+10
-1.55872e+08
4.87696e+08
-6.4565e+10
-1.56214e+08
4.70569e+08
-6.46511e+10
-1.56744e+08
4.39192e+08
-6.47262e+10
-1.5755e+08
3.92841e+08
-6.47865e+10
-1.58791e+08
3.3222e+08
-6.48206e+10
-1.60537e+08
2.52086e+08
-6.48267e+10
-1.63364e+08
1.55023e+08
-6.4805e+10
-1.67136e+08
4.31468e+07
-6.47557e+10
-1.72756e+08
-8.09144e+07
-6.46823e+10
-1.79796e+08
-2.11301e+08
-6.45847e+10
-1.88849e+08
-3.45919e+08
-6.44628e+10
-1.99391e+08
-4.76265e+08
-6.43201e+10
-2.12236e+08
-5.95384e+08
-6.41584e+10
-2.27079e+08
-6.90659e+08
-6.39844e+10
-2.43672e+08
-7.53887e+08
-6.3804e+10
-2.61699e+08
-7.82701e+08
-6.36266e+10
-2.80714e+08
-7.74409e+08
-6.34571e+10
-3.00191e+08
-7.35245e+08
-6.32988e+10
-3.19537e+08
-6.72782e+08
-6.31528e+10
-3.38334e+08
-5.92002e+08
-6.30153e+10
-3.56281e+08
-5.02696e+08
-6.28858e+10
-3.73254e+08
-4.08096e+08
-6.27568e+10
-3.89251e+08
-3.14572e+08
-6.2626e+10
-4.04275e+08
-2.24944e+08
-6.24865e+10
-4.18329e+08
-1.43094e+08
-6.23296e+10
-4.312e+08
-7.03614e+07
-6.21556e+10
-4.42525e+08
-3.77645e+06
-6.19566e+10
-4.52914e+08
5.06753e+07
-6.17224e+10
-4.62708e+08
9.27297e+07
-6.14442e+10
-4.72267e+08
1.21351e+08
-6.11123e+10
-4.82875e+08
1.32274e+08
-6.07112e+10
-4.97465e+08
1.24976e+08
-6.02226e+10
-5.18061e+08
9.54329e+07
-5.96207e+10
-5.4612e+08
4.27746e+07
-5.8887e+10
-5.8329e+08
-2.96617e+07
-5.80052e+10
-6.31208e+08
-1.25505e+08
-5.69665e+10
-6.94446e+08
-2.48647e+08
-5.57407e+10
-7.93709e+08
-4.18936e+08
-5.42503e+10
-9.63855e+08
-6.57331e+08
-5.2399e+10
-1.20713e+09
-9.87397e+08
-5.08822e+10
-1.0769e+09
-1.32348e+09
-4.9631e+10
-5.35455e+08
-2.25434e+09
-4.34406e+10
-1.41386e+09
-3.841e+09
-1.25216e+10
-1.01914e+10
-8.76106e+09
-5.75731e+09
-3.30137e+09
-6.19839e+10
2.3969e+08
-6.19859e+10
2.43283e+08
-6.19819e+10
2.48671e+08
-6.19811e+10
2.52478e+08
-6.19837e+10
2.55883e+08
-6.19908e+10
2.57704e+08
-6.1997e+10
2.54249e+08
-6.20056e+10
2.47265e+08
-6.20141e+10
2.35322e+08
-6.2022e+10
2.13957e+08
-6.20259e+10
1.83688e+08
-6.20217e+10
1.40274e+08
-6.20071e+10
8.312e+07
-6.198e+10
1.30169e+07
-6.19314e+10
-7.52265e+07
-6.18605e+10
-1.78726e+08
-6.17653e+10
-2.96416e+08
-6.16404e+10
-4.27618e+08
-6.14881e+10
-5.68238e+08
-6.1306e+10
-7.15952e+08
-6.10958e+10
-8.60689e+08
-6.08602e+10
-9.96674e+08
-6.06021e+10
-1.11137e+09
-6.03296e+10
-1.1967e+09
-6.00505e+10
-1.24903e+09
-5.97766e+10
-1.26484e+09
-5.95147e+10
-1.24925e+09
-5.92705e+10
-1.20885e+09
-5.9047e+10
-1.14785e+09
-5.88429e+10
-1.07524e+09
-5.86599e+10
-9.93846e+08
-5.84931e+10
-9.09472e+08
-5.83432e+10
-8.24803e+08
-5.82066e+10
-7.43308e+08
-5.80772e+10
-6.6677e+08
-5.79556e+10
-5.94231e+08
-5.78367e+10
-5.31076e+08
-5.7717e+10
-4.76296e+08
-5.75957e+10
-4.30754e+08
-5.74731e+10
-3.98152e+08
-5.73478e+10
-3.77849e+08
-5.72209e+10
-3.74236e+08
-5.70891e+10
-3.89486e+08
-5.69572e+10
-4.22306e+08
-5.68294e+10
-4.80449e+08
-5.67168e+10
-5.74475e+08
-5.66425e+10
-7.31224e+08
-5.66412e+10
-9.85001e+08
-5.66625e+10
-1.42444e+09
-5.5908e+10
-2.26657e+09
-5.21041e+10
-3.84988e+09
-4.4585e+10
-5.66578e+09
-3.3762e+10
-1.03619e+10
-2.76179e+09
-5.97426e+10
4.54162e+08
-1.06313e+08
-5.97151e+10
4.64347e+08
-8.02549e+07
-5.96986e+10
4.79933e+08
-7.30323e+07
-5.96846e+10
4.92434e+08
-6.22958e+07
-5.9676e+10
5.06035e+08
-5.23278e+07
-5.96725e+10
5.1981e+08
-4.42111e+07
-5.96739e+10
5.34297e+08
-4.24929e+07
-5.96811e+10
5.4925e+08
-4.38827e+07
-5.96913e+10
5.64693e+08
-5.37258e+07
-5.9705e+10
5.80547e+08
-7.31649e+07
-5.97215e+10
5.96591e+08
-1.03475e+08
-5.97392e+10
6.12658e+08
-1.49488e+08
-5.97581e+10
6.28775e+08
-2.10064e+08
-5.9772e+10
6.44886e+08
-2.90945e+08
-5.97798e+10
6.61067e+08
-3.92377e+08
-5.97795e+10
6.77206e+08
-5.14043e+08
-5.97655e+10
6.93517e+08
-6.55937e+08
-5.9733e+10
7.08803e+08
-8.15217e+08
-5.96721e+10
7.22401e+08
-9.87106e+08
-5.95786e+10
7.3437e+08
-1.1685e+09
-5.94505e+10
7.46284e+08
-1.34698e+09
-5.92907e+10
7.56871e+08
-1.5127e+09
-5.91035e+10
7.65506e+08
-1.64384e+09
-5.88998e+10
7.71004e+08
-1.72816e+09
-5.8695e+10
7.73587e+08
-1.75832e+09
-5.85016e+10
7.73066e+08
-1.73645e+09
-5.83303e+10
7.69671e+08
-1.67054e+09
-5.81864e+10
7.63841e+08
-1.57352e+09
-5.80707e+10
7.55922e+08
-1.4546e+09
-5.79815e+10
7.46216e+08
-1.32669e+09
-5.79147e+10
7.35151e+08
-1.19579e+09
-5.78657e+10
7.22896e+08
-1.06938e+09
-5.78287e+10
7.09442e+08
-9.51258e+08
-5.77997e+10
6.94585e+08
-8.43705e+08
-5.77716e+10
6.77927e+08
-7.504e+08
-5.77338e+10
6.59002e+08
-6.71871e+08
-5.76811e+10
6.37816e+08
-6.08191e+08
-5.76063e+10
6.14867e+08
-5.62826e+08
-5.75054e+10
5.8967e+08
-5.32596e+08
-5.73748e+10
5.61298e+08
-5.20712e+08
-5.72096e+10
5.28447e+08
-5.27251e+08
-5.70077e+10
4.89182e+08
-5.51196e+08
-5.67628e+10
4.41158e+08
-5.95669e+08
-5.64692e+10
3.82181e+08
-6.57067e+08
-5.61249e+10
3.08874e+08
-7.38853e+08
-5.57395e+10
2.1342e+08
-8.36683e+08
-5.53332e+10
7.34407e+07
-9.46357e+08
-5.48877e+10
-1.45217e+08
-1.09286e+09
-5.42103e+10
-4.58234e+08
-1.41512e+09
-5.29978e+10
-7.69779e+08
-2.08875e+09
-5.12624e+10
-1.12233e+09
-3.25176e+09
-4.76853e+10
-2.15244e+09
-5.58019e+09
-2.91361e+10
-1.09717e+10
-1.66334e+10
-6.54418e+09
-6.82528e+09
-5.83012e+10
7.2902e+08
-5.83526e+10
7.63842e+08
-5.84046e+10
7.85343e+08
-5.84644e+10
8.0914e+08
-5.85305e+10
8.32326e+08
-5.86044e+10
8.55457e+08
-5.8685e+10
8.73069e+08
-5.87731e+10
8.88442e+08
-5.88656e+10
8.96317e+08
-5.89626e+10
8.95387e+08
-5.90625e+10
8.8422e+08
-5.91631e+10
8.57763e+08
-5.92635e+10
8.16992e+08
-5.93561e+10
7.55682e+08
-5.94375e+10
6.72824e+08
-5.95018e+10
5.68294e+08
-5.95403e+10
4.40327e+08
-5.95465e+10
2.91814e+08
-5.95149e+10
1.26428e+08
-5.94402e+10
-5.35018e+07
-5.93138e+10
-2.40587e+08
-5.9131e+10
-4.23785e+08
-5.88982e+10
-5.80719e+08
-5.86278e+10
-6.97578e+08
-5.83386e+10
-7.65324e+08
-5.80474e+10
-7.83418e+08
-5.77695e+10
-7.57813e+08
-5.75149e+10
-6.99653e+08
-5.72892e+10
-6.17106e+08
-5.70945e+10
-5.22177e+08
-5.69308e+10
-4.19637e+08
-5.67971e+10
-3.16402e+08
-5.66914e+10
-2.16233e+08
-5.66132e+10
-1.21103e+08
-5.65608e+10
-3.47765e+07
-5.65314e+10
4.21674e+07
-5.6528e+10
1.10147e+08
-5.65488e+10
1.65761e+08
-5.65964e+10
2.11992e+08
-5.66758e+10
2.46503e+08
-5.67925e+10
2.69601e+08
-5.69583e+10
2.81095e+08
-5.71845e+10
2.75533e+08
-5.74879e+10
2.54571e+08
-5.78945e+10
2.11056e+08
-5.84585e+10
1.46538e+08
-5.92856e+10
5.79596e+07
-6.04952e+10
-1.01795e+08
-6.21076e+10
-5.4369e+08
-6.37626e+10
-1.73792e+09
-6.451e+10
-4.63579e+09
-6.32281e+10
-9.65958e+09
-6.56042e+10
-1.94905e+10
-2.39395e+09
-5.91288e+10
5.58627e+08
-6.95228e+08
-5.90831e+10
5.60278e+08
-6.80688e+08
-5.90497e+10
5.7432e+08
-6.75638e+08
-5.90253e+10
5.82494e+08
-6.64281e+08
-5.90104e+10
5.90859e+08
-6.53489e+08
-5.9004e+10
5.98333e+08
-6.44516e+08
-5.90083e+10
6.05277e+08
-6.39158e+08
-5.90226e+10
6.11644e+08
-6.36921e+08
-5.90464e+10
6.17508e+08
-6.43029e+08
-5.90798e+10
6.22911e+08
-6.58037e+08
-5.91189e+10
6.27868e+08
-6.87394e+08
-5.91635e+10
6.32511e+08
-7.32255e+08
-5.92084e+10
6.36924e+08
-7.96221e+08
-5.92482e+10
6.41105e+08
-8.85237e+08
-5.92783e+10
6.44966e+08
-1.00005e+09
-5.92898e+10
6.48795e+08
-1.14352e+09
-5.92777e+10
6.52299e+08
-1.31424e+09
-5.92317e+10
6.56116e+08
-1.51099e+09
-5.91461e+10
6.59788e+08
-1.72784e+09
-5.9014e+10
6.63652e+08
-1.95979e+09
-5.88296e+10
6.66385e+08
-2.19826e+09
-5.8588e+10
6.69863e+08
-2.42762e+09
-5.82949e+10
6.75055e+08
-2.61893e+09
-5.79644e+10
6.81923e+08
-2.7488e+09
-5.7618e+10
6.90445e+08
-2.80488e+09
-5.72739e+10
7.0058e+08
-2.79312e+09
-5.69463e+10
7.11485e+08
-2.72467e+09
-5.66433e+10
7.22659e+08
-2.61693e+09
-5.63651e+10
7.33513e+08
-2.48615e+09
-5.61127e+10
7.43324e+08
-2.34396e+09
-5.58815e+10
7.5218e+08
-2.20237e+09
-5.56679e+10
7.60123e+08
-2.06842e+09
-5.54696e+10
7.6722e+08
-1.94503e+09
-5.52821e+10
7.73428e+08
-1.83669e+09
-5.51045e+10
7.78548e+08
-1.74358e+09
-5.49348e+10
7.82321e+08
-1.66736e+09
-5.4773e+10
7.84531e+08
-1.60604e+09
-5.46208e+10
7.85265e+08
-1.56172e+09
-5.44773e+10
7.84547e+08
-1.53432e+09
-5.43463e+10
7.81991e+08
-1.5217e+09
-5.42292e+10
7.7733e+08
-1.52641e+09
-5.41297e+10
7.70677e+08
-1.54515e+09
-5.40544e+10
7.62633e+08
-1.57934e+09
-5.40098e+10
7.54942e+08
-1.63048e+09
-5.40238e+10
7.50847e+08
-1.69128e+09
-5.41479e+10
7.53912e+08
-1.74913e+09
-5.44717e+10
7.68213e+08
-1.78527e+09
-5.50973e+10
7.94638e+08
-1.82991e+09
-5.61876e+10
8.11833e+08
-1.97707e+09
-5.78124e+10
7.6293e+08
-2.42567e+09
-5.89457e+10
1.74788e+08
-3.83622e+09
-5.734e+10
-1.31477e+09
-7.49712e+09
-5.23502e+10
-7.56923e+09
-1.52879e+10
-2.45028e+08
-5.55781e+09
-6.05979e+10
1.3849e+09
-6.07297e+10
1.45994e+09
-6.08579e+10
1.49165e+09
-6.09996e+10
1.53697e+09
-6.11522e+10
1.57928e+09
-6.13153e+10
1.62027e+09
-6.14902e+10
1.65665e+09
-6.16757e+10
1.68901e+09
-6.18702e+10
1.71194e+09
-6.20732e+10
1.72492e+09
-6.22792e+10
1.72201e+09
-6.24869e+10
1.70218e+09
-6.26896e+10
1.66136e+09
-6.28808e+10
1.5933e+09
-6.30539e+10
1.49681e+09
-6.31996e+10
1.36839e+09
-6.33109e+10
1.20925e+09
-6.3378e+10
1.02021e+09
-6.33943e+10
8.07643e+08
-6.3357e+10
5.7652e+08
-6.32659e+10
3.36639e+08
-6.31248e+10
1.04514e+08
-6.2941e+10
-9.17056e+07
-6.27327e+10
-2.2712e+08
-6.25225e+10
-2.89459e+08
-6.23259e+10
-2.85779e+08
-6.21543e+10
-2.26358e+08
-6.20139e+10
-1.27286e+08
-6.1905e+10
-3.5948e+06
-6.18294e+10
1.33687e+08
-6.17833e+10
2.73583e+08
-6.17624e+10
4.08681e+08
-6.17635e+10
5.36252e+08
-6.17816e+10
6.52126e+08
-6.18161e+10
7.56833e+08
-6.18661e+10
8.49042e+08
-6.19339e+10
9.31997e+08
-6.20242e+10
1.00454e+09
-6.21397e+10
1.06766e+09
-6.2289e+10
1.12446e+09
-6.24798e+10
1.17401e+09
-6.2724e+10
1.22044e+09
-6.30391e+10
1.26373e+09
-6.34448e+10
1.30696e+09
-6.39835e+10
1.36382e+09
-6.47153e+10
1.44865e+09
-6.5735e+10
1.58589e+09
-6.71929e+10
1.76555e+09
-6.93556e+10
1.87159e+09
-7.27514e+10
1.63778e+09
-7.96073e+10
1.38295e+09
-9.23606e+10
7.6805e+08
-1.20697e+11
6.87019e+08
2.85002e+09
-5.81486e+10
5.28579e+07
-7.85881e+08
-5.81158e+10
4.08262e+07
-7.46698e+08
-5.81026e+10
4.46856e+07
-7.25962e+08
-5.81049e+10
4.24963e+07
-6.96776e+08
-5.81235e+10
4.07537e+07
-6.67744e+08
-5.81565e+10
3.82653e+07
-6.41511e+08
-5.82061e+10
3.51968e+07
-6.16178e+08
-5.82717e+10
3.16817e+07
-5.9403e+08
-5.83542e+10
2.76888e+07
-5.78872e+08
-5.84494e+10
2.31298e+07
-5.76259e+08
-5.85602e+10
1.78146e+07
-5.84118e+08
-5.86814e+10
1.16994e+07
-6.11663e+08
-5.8808e+10
4.78651e+06
-6.62072e+08
-5.89358e+10
-2.89067e+06
-7.4038e+08
-5.90575e+10
-1.12489e+07
-8.51378e+08
-5.91655e+10
-2.00998e+07
-9.98495e+08
-5.92496e+10
-2.92037e+07
-1.18337e+09
-5.93025e+10
-3.77912e+07
-1.40098e+09
-5.93163e+10
-4.56466e+07
-1.64788e+09
-5.92848e+10
-5.23973e+07
-1.91719e+09
-5.91994e+10
-5.85622e+07
-2.2055e+09
-5.90554e+10
-6.35068e+07
-2.48976e+09
-5.886e+10
-6.70456e+07
-2.73192e+09
-5.86415e+10
-6.78624e+07
-2.88517e+09
-5.84325e+10
-6.7503e+07
-2.93393e+09
-5.82627e+10
-6.69029e+07
-2.88664e+09
-5.81461e+10
-6.61274e+07
-2.76847e+09
-5.80861e+10
-6.53005e+07
-2.60681e+09
-5.80799e+10
-6.43049e+07
-2.42398e+09
-5.81162e+10
-6.34456e+07
-2.24001e+09
-5.81871e+10
-6.36122e+07
-2.06373e+09
-5.82812e+10
-6.58779e+07
-1.90451e+09
-5.83892e+10
-7.08346e+07
-1.763e+09
-5.85047e+10
-7.87836e+07
-1.64064e+09
-5.86217e+10
-9.03215e+07
-1.53665e+09
-5.87365e+10
-1.06291e+08
-1.44942e+09
-5.88448e+10
-1.2786e+08
-1.3767e+09
-5.8946e+10
-1.563e+08
-1.31585e+09
-5.90429e+10
-1.92896e+08
-1.2622e+09
-5.91332e+10
-2.38819e+08
-1.21732e+09
-5.92258e+10
-2.95262e+08
-1.17146e+09
-5.93268e+10
-3.64045e+08
-1.12175e+09
-5.94459e+10
-4.48094e+08
-1.06346e+09
-5.95984e+10
-5.48531e+08
-9.93126e+08
-5.98143e+10
-6.62813e+08
-8.95292e+08
-6.01522e+10
-7.90058e+08
-7.39855e+08
-6.07262e+10
-9.28656e+08
-4.65773e+08
-6.18076e+10
-1.06531e+09
1.39787e+07
-6.39216e+10
-1.21475e+09
8.42963e+08
-6.76384e+10
-1.49761e+09
2.05506e+09
-7.44918e+10
-2.13655e+09
4.22998e+09
-8.90449e+10
-2.70321e+09
8.78085e+09
-1.28309e+11
5.60218e+07
2.34879e+10
-1.85074e+10
5.58947e+08
-5.82261e+10
1.48133e+09
-5.82907e+10
1.57168e+09
-5.83559e+10
1.60807e+09
-5.84295e+10
1.65999e+09
-5.85102e+10
1.70793e+09
-5.85955e+10
1.75153e+09
-5.86873e+10
1.79154e+09
-5.87842e+10
1.826e+09
-5.88868e+10
1.85093e+09
-5.89904e+10
1.86076e+09
-5.90985e+10
1.85745e+09
-5.92062e+10
1.83189e+09
-5.93096e+10
1.78099e+09
-5.94061e+10
1.69977e+09
-5.949e+10
1.5836e+09
-5.95558e+10
1.42923e+09
-5.95953e+10
1.23591e+09
-5.96039e+10
1.00891e+09
-5.95749e+10
7.52545e+08
-5.95038e+10
4.73375e+08
-5.938e+10
1.7475e+08
-5.91961e+10
-1.23614e+08
-5.89487e+10
-3.87455e+08
-5.86565e+10
-5.69085e+08
-5.8348e+10
-6.48645e+08
-5.8055e+10
-6.30269e+08
-5.77959e+10
-5.37329e+08
-5.75783e+10
-3.96213e+08
-5.74026e+10
-2.28951e+08
-5.72558e+10
-6.08817e+07
-5.71276e+10
9.85478e+07
-5.70078e+10
2.40789e+08
-5.6889e+10
3.64981e+08
-5.67667e+10
4.699e+08
-5.6637e+10
5.55877e+08
-5.64988e+10
6.23433e+08
-5.63498e+10
6.73675e+08
-5.61917e+10
7.07782e+08
-5.60298e+10
7.29065e+08
-5.58648e+10
7.35085e+08
-5.57085e+10
7.34864e+08
-5.5572e+10
7.30194e+08
-5.54737e+10
7.24973e+08
-5.54383e+10
7.26399e+08
-5.54979e+10
7.53945e+08
-5.56905e+10
8.22911e+08
-5.60828e+10
9.75555e+08
-5.68154e+10
1.27563e+09
-5.82598e+10
1.81123e+09
-6.1177e+10
2.61241e+09
-6.76607e+10
5.26084e+09
-7.99314e+10
1.00701e+10
-1.0431e+11
2.51628e+10
1.02859e+10
-5.88953e+10
-2.32406e+08
-6.09696e+08
-5.88569e+10
-2.45473e+08
-5.26867e+08
-5.88377e+10
-2.44434e+08
-4.87079e+08
-5.88337e+10
-2.47275e+08
-4.38813e+08
-5.88457e+10
-2.48863e+08
-3.91108e+08
-5.88734e+10
-2.50276e+08
-3.46783e+08
-5.89184e+10
-2.51377e+08
-3.02053e+08
-5.89783e+10
-2.51991e+08
-2.63566e+08
-5.90551e+10
-2.52154e+08
-2.30651e+08
-5.91499e+10
-2.51952e+08
-2.09366e+08
-5.92583e+10
-2.51452e+08
-2.03232e+08
-5.93787e+10
-2.50579e+08
-2.18051e+08
-5.95058e+10
-2.49189e+08
-2.60698e+08
-5.96318e+10
-2.47112e+08
-3.39332e+08
-5.9748e+10
-2.44097e+08
-4.5963e+08
-5.98424e+10
-2.40139e+08
-6.29946e+08
-5.99019e+10
-2.34663e+08
-8.51321e+08
-5.99109e+10
-2.27461e+08
-1.12287e+09
-5.98571e+10
-2.18099e+08
-1.43651e+09
-5.97327e+10
-2.07534e+08
-1.78417e+09
-5.95231e+10
-1.96404e+08
-2.16547e+09
-5.92106e+10
-1.86356e+08
-2.56245e+09
-5.87995e+10
-1.76846e+08
-2.9114e+09
-5.83354e+10
-1.67161e+08
-3.12622e+09
-5.78875e+10
-1.56897e+08
-3.16942e+09
-5.75057e+10
-1.46732e+08
-3.06601e+09
-5.7216e+10
-1.37743e+08
-2.86426e+09
-5.70232e+10
-1.30467e+08
-2.61079e+09
-5.69169e+10
-1.24843e+08
-2.34311e+09
-5.68808e+10
-1.20619e+08
-2.08821e+09
-5.6895e+10
-1.17786e+08
-1.85876e+09
-5.69438e+10
-1.16008e+08
-1.66087e+09
-5.70115e+10
-1.15814e+08
-1.49439e+09
-5.70846e+10
-1.16969e+08
-1.35882e+09
-5.71505e+10
-1.19211e+08
-1.25258e+09
-5.71995e+10
-1.22613e+08
-1.1708e+09
-5.722e+10
-1.2697e+08
-1.11354e+09
-5.72042e+10
-1.31873e+08
-1.07468e+09
-5.71404e+10
-1.36514e+08
-1.05396e+09
-5.70231e+10
-1.39799e+08
-1.04789e+09
-5.68397e+10
-1.40291e+08
-1.05493e+09
-5.65783e+10
-1.36698e+08
-1.07166e+09
-5.62292e+10
-1.27871e+08
-1.09208e+09
-5.57786e+10
-1.12857e+08
-1.11662e+09
-5.52068e+10
-9.20113e+07
-1.13749e+09
-5.44826e+10
-6.49198e+07
-1.13904e+09
-5.35662e+10
-2.97851e+07
-1.08092e+09
-5.24155e+10
1.53658e+07
-8.89547e+08
-5.09238e+10
2.35967e+07
-4.27172e+08
-4.90158e+10
-1.52749e+08
5.03068e+08
-4.77741e+10
1.08913e+08
3.12395e+09
-5.05964e+10
2.14883e+09
9.95287e+09
-6.4937e+10
8.56998e+09
2.96278e+10
3.25897e+09
1.06769e+10
-5.7727e+10
1.25891e+09
-5.77654e+10
1.37376e+09
-5.78181e+10
1.42592e+09
-5.78873e+10
1.49221e+09
-5.79725e+10
1.55522e+09
-5.80741e+10
1.61435e+09
-5.81941e+10
1.67231e+09
-5.83306e+10
1.72305e+09
-5.84858e+10
1.76701e+09
-5.86617e+10
1.79816e+09
-5.88546e+10
1.81318e+09
-5.90642e+10
1.80636e+09
-5.92864e+10
1.7711e+09
-5.9514e+10
1.69957e+09
-5.97392e+10
1.58619e+09
-5.99495e+10
1.42314e+09
-6.01317e+10
1.2098e+09
-6.02687e+10
9.48141e+08
-6.03478e+10
6.46413e+08
-6.03587e+10
3.12371e+08
-6.02852e+10
-5.84768e+07
-6.01033e+10
-4.54566e+08
-5.98124e+10
-8.16818e+08
-5.94508e+10
-1.05923e+09
-5.90807e+10
-1.13663e+09
-5.87517e+10
-1.0666e+09
-5.84944e+10
-8.91908e+08
-5.83227e+10
-6.56053e+08
-5.82367e+10
-3.94761e+08
-5.82317e+10
-1.381e+08
-5.82892e+10
9.02168e+07
-5.83925e+10
2.8365e+08
-5.853e+10
4.46327e+08
-5.86933e+10
5.80232e+08
-5.88732e+10
6.8547e+08
-5.9064e+10
7.65812e+08
-5.92575e+10
8.20392e+08
-5.94493e+10
8.54456e+08
-5.96303e+10
8.67412e+08
-5.97962e+10
8.62926e+08
-5.99337e+10
8.42954e+08
-6.00304e+10
8.11673e+08
-6.00729e+10
7.73785e+08
-6.00416e+10
7.31167e+08
-5.99134e+10
6.98125e+08
-5.96667e+10
6.88523e+08
-5.92842e+10
7.44389e+08
-5.87001e+10
8.7671e+08
-5.78212e+10
1.10062e+09
-5.66977e+10
1.47456e+09
-5.34108e+10
2.28323e+09
-4.6468e+10
5.56293e+09
-3.22476e+10
1.97609e+10
1.14401e+10
-6.08872e+10
-2.98366e+08
-3.72549e+08
-6.08235e+10
-3.11752e+08
-2.6627e+08
-6.07778e+10
-3.08645e+08
-2.11047e+08
-6.07441e+10
-3.08961e+08
-1.49677e+08
-6.07248e+10
-3.07915e+08
-8.79516e+07
-6.07211e+10
-3.05926e+08
-2.93505e+07
-6.07345e+10
-3.03228e+08
3.03655e+07
-6.07673e+10
-2.99438e+08
8.49037e+07
-6.0819e+10
-2.94559e+08
1.32113e+08
-6.08916e+10
-2.88435e+08
1.68732e+08
-6.09847e+10
-2.80905e+08
1.88717e+08
-6.10924e+10
-2.71714e+08
1.81298e+08
-6.12104e+10
-2.60629e+08
1.40649e+08
-6.13315e+10
-2.47563e+08
5.58547e+07
-6.14419e+10
-2.32672e+08
-8.62478e+07
-6.1528e+10
-2.16467e+08
-2.93202e+08
-6.15699e+10
-1.99468e+08
-5.71538e+08
-6.155e+10
-1.82326e+08
-9.17687e+08
-6.1452e+10
-1.65686e+08
-1.32157e+09
-6.12605e+10
-1.50332e+08
-1.77509e+09
-6.09522e+10
-1.37424e+08
-2.28357e+09
-6.04824e+10
-1.26036e+08
-2.85241e+09
-5.98214e+10
-1.12379e+08
-3.40307e+09
-5.90264e+10
-9.42019e+07
-3.76873e+09
-5.82159e+10
-6.73892e+07
-3.8513e+09
-5.74765e+10
-3.04143e+07
-3.71161e+09
-5.68435e+10
1.58955e+07
-3.44719e+09
-5.63244e+10
6.8724e+07
-3.12929e+09
-5.59054e+10
1.24672e+08
-2.8129e+09
-5.55674e+10
1.79969e+08
-2.52659e+09
-5.52877e+10
2.29777e+08
-2.28182e+09
-5.50502e+10
2.7453e+08
-2.07921e+09
-5.48411e+10
3.17468e+08
-1.9187e+09
-5.4651e+10
3.60293e+08
-1.79754e+09
-5.44756e+10
4.03069e+08
-1.70851e+09
-5.43067e+10
4.45542e+08
-1.65007e+09
-5.41428e+10
4.87629e+08
-1.61567e+09
-5.3977e+10
5.28857e+08
-1.60365e+09
-5.38098e+10
5.69337e+08
-1.60668e+09
-5.36395e+10
6.10195e+08
-1.62398e+09
-5.34672e+10
6.52596e+08
-1.65212e+09
-5.32944e+10
6.97212e+08
-1.68683e+09
-5.31183e+10
7.43051e+08
-1.72424e+09
-5.29304e+10
7.86758e+08
-1.76556e+09
-5.27214e+10
8.25369e+08
-1.8017e+09
-5.24887e+10
8.63474e+08
-1.81794e+09
-5.22535e+10
9.16016e+08
-1.77405e+09
-5.2029e+10
1.00337e+09
-1.62196e+09
-5.16173e+10
1.09129e+09
-1.40198e+09
-5.02404e+10
1.02344e+09
-1.25975e+09
-4.61712e+10
1.04004e+09
-1.12499e+09
-4.09601e+10
2.77281e+09
2.8914e+09
-3.80503e+10
1.06049e+10
1.69885e+10
5.90418e+09
9.42911e+09
-5.78021e+10
9.37077e+08
-5.77932e+10