/*--------------------------------*- C++ -*----------------------------------*\
| =========                 |                                                 |
| \\      /  F ield         | OpenFOAM: The Open Source CFD Toolbox           |
|  \\    /   O peration     | Version:  4.1                                   |
|   \\  /    A nd           | Web:      www.OpenFOAM.org                      |
|    \\/     M anipulation  |                                                 |
\*---------------------------------------------------------------------------*/
FoamFile
{
    version     2.0;
    format      ascii;
    class       volVectorField;
    location    "91";
    object      U;
}
// * * * * * * * * * * * * * * * * * * * * * * * * * * * * * * * * * * * * * //

dimensions      [0 1 -1 0 0 0 0];

internalField   nonuniform List<vector> 
4432
(
(-148617 -3475.35 -1564.75)
(-150569 -3554.95 -1750.23)
(-151463 -3469.01 -1754.13)
(-152598 -3484.05 -1852.7)
(-153712 -3465.06 -1928.97)
(-154871 -3445.19 -1992.02)
(-156020 -3427.8 -2075.35)
(-157177 -3407.27 -2169.66)
(-158322 -3384.51 -2283.76)
(-159438 -3360.44 -2422.69)
(-160502 -3335.79 -2590.17)
(-161486 -3310.75 -2790.94)
(-162361 -3285.7 -3028.02)
(-163090 -3261.35 -3300.93)
(-163643 -3238.49 -3603.91)
(-163980 -3217.43 -3932.07)
(-164065 -3198.58 -4278.42)
(-163866 -3184.54 -4636.44)
(-163374 -3179.67 -5004.58)
(-162576 -3183.39 -5377.9)
(-161460 -3194.04 -5745.24)
(-160034 -3211.25 -6097.37)
(-158320 -3233.39 -6422.35)
(-156345 -3260.71 -6711.73)
(-154157 -3291.88 -6956.52)
(-151808 -3326.45 -7152.53)
(-149361 -3363.33 -7297.93)
(-146869 -3402.05 -7395.11)
(-144391 -3441.78 -7447.8)
(-141967 -3482.54 -7461.67)
(-139639 -3524.5 -7442.62)
(-137439 -3568.61 -7396.68)
(-135388 -3616.42 -7330.59)
(-133514 -3668.16 -7248.73)
(-131833 -3723.68 -7155.16)
(-130368 -3784.42 -7052.94)
(-129138 -3852.03 -6943.89)
(-128161 -3932.3 -6827.19)
(-127450 -4029.82 -6697.44)
(-127015 -4141.62 -6534.64)
(-126878 -4265.33 -6310.46)
(-126991 -4403.83 -5992.44)
(-127202 -4564.71 -5527.56)
(-127378 -4764.61 -4843.67)
(-127961 -5025.8 -3844.8)
(-130475 -5360.6 -2423.1)
(-136350 -5780.12 -413.235)
(-143066 -6315.34 2343.98)
(-142773 -6827.36 6546.29)
(-136174 -6288.7 13321.1)
(-152332 -2530.4 27042.5)
(-224595 6631.36 39539.3)
(-272079 -601.877 55863.6)
(-198704 5667.17 29692.9)
(-186778 3430.84 -689.18)
(-188783 3363.56 -784.587)
(-189793 3429.18 -854.791)
(-191059 3414.81 -905.877)
(-192216 3426.77 -968.902)
(-193389 3438.7 -1019.65)
(-194518 3448.06 -1083.69)
(-195611 3459.4 -1156.68)
(-196658 3471.7 -1246.18)
(-197645 3484.05 -1355.07)
(-198551 3495.57 -1486.72)
(-199353 3505.79 -1644.81)
(-200031 3514.03 -1831.48)
(-200553 3519.65 -2045.57)
(-200899 3522.2 -2283.23)
(-201038 3521.33 -2539.53)
(-200947 3516.77 -2807.15)
(-200612 3508.44 -3079.49)
(-200045 3499.91 -3357.56)
(-199235 3490.82 -3639.19)
(-198182 3482.84 -3915.37)
(-196896 3476.54 -4173.69)
(-195402 3473.01 -4405.21)
(-193732 3472.38 -4603.27)
(-191934 3474.96 -4761.91)
(-190054 3481.22 -4878.85)
(-188152 3491.15 -4954.37)
(-186275 3505.43 -4991.76)
(-184475 3524.03 -4995.78)
(-182785 3547.46 -4972.11)
(-181244 3575.73 -4926.69)
(-179876 3608.9 -4864.92)
(-178703 3648.3 -4791.83)
(-177749 3695.25 -4711.27)
(-177026 3750.25 -4626.61)
(-176553 3813.84 -4539.03)
(-176349 3887.99 -4447.12)
(-176429 3974.81 -4351.72)
(-176818 4077.08 -4248.2)
(-177542 4201.3 -4120.98)
(-178630 4354.48 -3952.94)
(-180068 4541.76 -3721.71)
(-181776 4767.11 -3391.34)
(-183711 5030.78 -2908.64)
(-186263 5332.1 -2206.19)
(-190586 5676.37 -1213.6)
(-197719 6065.96 184.655)
(-205932 6500.75 2182.94)
(-209709 7124.71 5274.14)
(-210040 8685 9745.35)
(-231084 12382.8 15822.3)
(-311472 18093 18032.1)
(-376017 6105.15 36350.9)
(-347857 -18011.1 69813.7)
(-267759 -1195.51 3812.2)
(-268341 -1168.19 3741.46)
(-268737 -1149.01 3776.84)
(-269208 -1116.04 3783.31)
(-269648 -1086.94 3798.94)
(-270118 -1056.31 3828.19)
(-270588 -1025.51 3848.45)
(-271054 -993.805 3857.69)
(-271512 -962.367 3847.9)
(-271956 -931.234 3814.44)
(-272375 -901.688 3752.63)
(-272761 -874.291 3657.32)
(-273100 -849.528 3525.09)
(-273377 -827.887 3354.81)
(-273579 -810.682 3149.1)
(-273694 -797.819 2912.87)
(-273729 -787.721 2657.21)
(-273733 -778.206 2391.21)
(-273687 -770.831 2121.55)
(-273589 -767.265 1855.72)
(-273438 -766.679 1606.55)
(-273242 -765.564 1384.4)
(-273010 -763.976 1203.25)
(-272753 -762.763 1073.56)
(-272485 -762.625 1004.94)
(-272210 -764.725 1000.01)
(-271942 -769.965 1057.77)
(-271677 -779.338 1171.7)
(-271412 -793.487 1334.09)
(-271131 -812.993 1534.58)
(-270820 -838.079 1763.54)
(-270456 -868.761 2010.37)
(-270013 -904.15 2265.58)
(-269468 -942.931 2520.77)
(-268789 -983.608 2767.24)
(-267947 -1023.96 2997.62)
(-266909 -1060.64 3205.93)
(-265638 -1091.47 3390.4)
(-264106 -1114.27 3555.26)
(-262282 -1125.79 3703.42)
(-260118 -1120.15 3828.06)
(-257580 -1093.81 3935.32)
(-254503 -1043.04 4024.39)
(-250736 -963.323 4108.38)
(-246359 -850.298 4207.68)
(-241815 -697.255 4306.16)
(-237246 -498.129 4270.93)
(-230758 -224.289 3947.15)
(-219578 192.638 3598.49)
(-204172 995.257 4447.48)
(-201621 2066.3 5427.5)
(-199341 2360.99 3132.71)
(-202072 -5187.83 -1842.84)
(34715.4 -9482.26 7925.78)
(-310910 2201.21 3119.7)
(-311469 2168.58 3098.03)
(-311794 2155.33 3050.88)
(-312183 2148.17 3057.61)
(-312549 2139.13 3048.72)
(-312926 2130.89 3051.6)
(-313296 2122.54 3047.65)
(-313653 2114.86 3033.37)
(-313996 2107 3000.76)
(-314319 2099.18 2946.21)
(-314619 2090.79 2865.26)
(-314887 2081.83 2753.26)
(-315115 2072.29 2606.77)
(-315292 2062.56 2424.64)
(-315411 2051.88 2208.9)
(-315460 2040.92 1963.02)
(-315428 2030.83 1693.73)
(-315303 2020.6 1408.5)
(-315064 2004.82 1115.37)
(-314726 1982.27 823.751)
(-314345 1952.65 544.317)
(-313926 1919.25 284.129)
(-313476 1882.5 54.1195)
(-313007 1842.23 -133.913)
(-312536 1798.39 -271.266)
(-312073 1751.07 -354.607)
(-311636 1700.09 -384.52)
(-311229 1645.73 -366.059)
(-310860 1588.09 -305.726)
(-310522 1527.61 -211.925)
(-310214 1464.6 -92.5665)
(-309920 1399.74 44.1117)
(-309629 1334.28 189.925)
(-309323 1269.81 336.473)
(-308978 1208.15 476.042)
(-308576 1151.39 602.964)
(-308087 1101.76 711.717)
(-307475 1060.69 796.906)
(-306730 1028.63 856.899)
(-305833 1007.14 890.136)
(-304730 1001.83 889.291)
(-303331 1017.28 847.241)
(-301475 1057.68 761.513)
(-298996 1127.45 641.752)
(-295931 1229.49 507.235)
(-292615 1366.57 347.891)
(-289063 1545.53 57.3072)
(-283351 1802.5 -420.956)
(-272321 2116.6 -550.793)
(-256744 2932.24 455.767)
(-248420 3971.11 412.876)
(-234683 4321.55 -5286.55)
(-193816 -12629.4 -826.404)
(-8976.67 -7496.03 3706.98)
(-224651 -2893.42 -961.543)
(-224093 -2885.51 -1008.24)
(-223907 -2931.87 -1056.57)
(-223691 -2938.09 -1067.9)
(-223515 -2954.37 -1095.71)
(-223365 -2971.14 -1128.81)
(-223242 -2989.19 -1167.57)
(-223140 -3007.07 -1222.77)
(-223058 -3026.92 -1300.76)
(-222998 -3048.43 -1406.51)
(-222961 -3072.69 -1546.79)
(-222950 -3099.85 -1726.73)
(-222964 -3130.45 -1950.56)
(-223001 -3164.66 -2220.93)
(-223057 -3202.41 -2538.52)
(-223126 -3245.06 -2896.68)
(-223175 -3295.74 -3291.99)
(-223077 -3349.36 -3730.74)
(-222819 -3396.65 -4206.17)
(-222385 -3432.88 -4698.22)
(-221773 -3460 -5189.04)
(-220991 -3478.67 -5657.51)
(-220058 -3487.9 -6083.61)
(-219004 -3483.7 -6447.2)
(-217871 -3465.38 -6734.68)
(-216708 -3432.64 -6942.32)
(-215563 -3386.04 -7073.53)
(-214474 -3326.63 -7139.16)
(-213468 -3255.76 -7151.41)
(-212562 -3174.72 -7124.61)
(-211763 -3084.65 -7070.93)
(-211064 -2986.57 -7002.09)
(-210463 -2881.75 -6926.21)
(-209947 -2772.39 -6849.85)
(-209501 -2659.82 -6777.58)
(-209120 -2543.36 -6711.57)
(-208796 -2425.28 -6652.26)
(-208522 -2309.38 -6593.2)
(-208290 -2200.42 -6527.89)
(-208074 -2103.34 -6454.93)
(-207803 -2017.98 -6379.57)
(-207329 -1942.17 -6303.96)
(-206485 -1875.54 -6225.76)
(-205101 -1821.16 -6122.68)
(-203339 -1780.58 -5957.52)
(-201959 -1740.5 -5730.47)
(-201419 -1673.22 -5603.97)
(-199468 -1484.35 -5830.17)
(-190287 -869.902 -6483.79)
(-175064 1077.26 -7213.07)
(-168995 4707.24 -6726.26)
(-198136 9681.27 1615.63)
(-233901 -8813.89 24930.1)
(-157125 -3399.19 12738.7)
(-264278 3163.48 1477.18)
(-263243 3222.39 1443.13)
(-262713 3203.42 1405.69)
(-262059 3225.97 1389.47)
(-261476 3237.39 1364.18)
(-260897 3247.78 1332.31)
(-260332 3256.09 1296.74)
(-259776 3263.34 1246.08)
(-259230 3267.42 1174.41)
(-258694 3267.96 1076.49)
(-258170 3263.57 946.06)
(-257661 3253.36 777.737)
(-257167 3236.09 566.509)
(-256689 3210.65 308.209)
(-256229 3176.29 2.13381)
(-255792 3132.51 -348.772)
(-255382 3076.39 -738.87)
(-255004 3012.97 -1159.72)
(-254645 2951.15 -1598.97)
(-254275 2896.24 -2039.41)
(-253832 2847.09 -2467.89)
(-253329 2802.35 -2871.56)
(-252786 2762.35 -3232.05)
(-252225 2730.24 -3532.06)
(-251676 2706.36 -3760.54)
(-251169 2690.96 -3915.22)
(-250735 2683.49 -4000.1)
(-250392 2683.36 -4025.42)
(-250156 2689.88 -4002.13)
(-250032 2702.69 -3942.57)
(-250024 2721.83 -3856.71)
(-250127 2747.88 -3754.32)
(-250343 2781.12 -3643.4)
(-250672 2821.79 -3530.11)
(-251119 2871.13 -3418.52)
(-251688 2930.75 -3312.47)
(-252378 3001.29 -3216.06)
(-253195 3083.05 -3133.19)
(-254125 3176.61 -3067.58)
(-255158 3281.21 -3024.82)
(-256303 3398.2 -3015.13)
(-257537 3534.61 -3048.92)
(-258762 3696.55 -3133.44)
(-259889 3888.03 -3262.68)
(-261137 4117.47 -3423.63)
(-263279 4409.3 -3648.91)
(-266789 4806.13 -4116.31)
(-269686 5389.24 -5053.78)
(-266811 6466.58 -6521.18)
(-259572 8674.42 -7505.6)
(-268333 11922.7 -6631.9)
(-333307 12971.7 -1666.84)
(-398475 -7126.89 5539.34)
(-402208 -28341.3 15440.2)
(-255391 -3748.65 2188.37)
(-255551 -3774.36 2354.6)
(-255673 -3780.78 2418.88)
(-255859 -3790.07 2515.77)
(-256087 -3795.47 2605.6)
(-256351 -3801.75 2688.58)
(-256649 -3805.91 2763.11)
(-256978 -3809.14 2825.01)
(-257330 -3812.53 2868.25)
(-257698 -3816.2 2885.57)
(-258070 -3821.08 2868.68)
(-258431 -3827.48 2811.37)
(-258761 -3836.11 2706.26)
(-259034 -3847.85 2546.18)
(-259224 -3863.52 2326.35)
(-259304 -3885.1 2044.76)
(-259254 -3911.81 1698.43)
(-259100 -3945.05 1304.79)
(-258835 -3984.1 884.31)
(-258478 -4032.11 457.517)
(-258021 -4087.47 45.4863)
(-257471 -4151.53 -318.54)
(-256842 -4222.85 -605.201)
(-256155 -4299.4 -786.337)
(-255439 -4378.86 -849.101)
(-254726 -4458.64 -794.006)
(-254042 -4535.93 -634.14)
(-253404 -4607.99 -389.993)
(-252815 -4672.33 -84.0205)
(-252269 -4726.4 262.376)
(-251757 -4768.05 631.046)
(-251258 -4795.59 1006.99)
(-250753 -4808.16 1378.97)
(-250219 -4804.74 1738.21)
(-249631 -4783.75 2079.09)
(-248969 -4744.63 2398.48)
(-248227 -4691.74 2691.39)
(-247376 -4626.31 2950.18)
(-246376 -4549.73 3162.01)
(-245199 -4465.49 3317.03)
(-243804 -4377.82 3409.82)
(-242084 -4288.02 3437.14)
(-239852 -4196.74 3394.48)
(-236923 -4106.92 3281.77)
(-233418 -4026.35 3111.86)
(-229977 -3971.87 2910.41)
(-226965 -3962.1 2669.21)
(-222379 -3957.79 2287.7)
(-212346 -3842.09 1600.51)
(-196788 -2778.1 178.34)
(-194594 -1666.04 -3183.01)
(-206733 -3385.39 -4556)
(-187187 -13024.8 -6292.07)
(69761.4 -9626.97 7765.26)
(-247935 2522.55 1393.79)
(-247976 2526.33 1418.95)
(-247925 2539.34 1469.78)
(-247916 2551.34 1495.29)
(-247927 2567.62 1525.96)
(-247947 2583.56 1546.13)
(-247973 2602.18 1557.4)
(-248006 2622.36 1553.33)
(-248042 2643.05 1530.56)
(-248073 2664.26 1482.23)
(-248094 2685.15 1401.53)
(-248095 2705.55 1283.2)
(-248063 2724.89 1122.28)
(-247980 2742.42 914.11)
(-247828 2757.49 656.129)
(-247587 2768.32 349.07)
(-247246 2772.99 -2.30123)
(-246794 2768.51 -390.814)
(-246226 2755.02 -803.334)
(-245541 2731.61 -1221.99)
(-244740 2699.05 -1617.76)
(-243828 2656.18 -1957.13)
(-242820 2604.71 -2210.09)
(-241741 2547.16 -2351.49)
(-240629 2486.57 -2366.7)
(-239523 2426.27 -2256.54)
(-238459 2369.7 -2034.23)
(-237461 2320.06 -1721)
(-236543 2280.05 -1340.35)
(-235707 2252.25 -915.41)
(-234950 2238.76 -465.893)
(-234265 2240.89 -9.74038)
(-233642 2259.1 438.622)
(-233072 2294.06 868.099)
(-232542 2346.96 1269.02)
(-232039 2417.46 1631.63)
(-231556 2503.7 1947.4)
(-231087 2603.02 2207.91)
(-230623 2713.65 2402.7)
(-230171 2832.45 2523.27)
(-229735 2950.94 2569.53)
(-229275 3062.24 2541.69)
(-228674 3160.23 2439.96)
(-227818 3233.49 2273.43)
(-226952 3262.38 2057.57)
(-226955 3214.62 1798.44)
(-228424 3037.47 1465.39)
(-229161 2750.42 897.907)
(-223953 2461.25 -515.977)
(-214167 3005.56 -4273.87)
(-215550 2240.52 -9511.94)
(-227796 -2178.5 -15465.7)
(-189839 -29128.7 -10099.5)
(-65840 -15341.1 -1714.75)
(-239053 -1224.18 896.58)
(-238899 -1234.13 1028.95)
(-238831 -1213.19 1090.01)
(-238755 -1199.57 1163.02)
(-238716 -1181.31 1235.86)
(-238693 -1162.68 1300.9)
(-238691 -1142.06 1351.43)
(-238705 -1120.71 1380.34)
(-238737 -1098.56 1380.9)
(-238785 -1075.78 1343.32)
(-238847 -1053.3 1257.24)
(-238918 -1031.59 1115.31)
(-238990 -1010.14 910.977)
(-239053 -988.626 638.314)
(-239094 -966.69 294.156)
(-239103 -944.631 -122.274)
(-239065 -922.934 -603.237)
(-238967 -905.075 -1138.15)
(-238777 -890.755 -1707.46)
(-238451 -875.837 -2294.27)
(-237985 -857.4 -2864.02)
(-237379 -838.407 -3372.07)
(-236653 -820.214 -3762.53)
(-235848 -804.735 -3993.77)
(-235018 -791.219 -4046.8)
(-234222 -780.275 -3929.26)
(-233505 -771.904 -3668.03)
(-232896 -766.116 -3299.17)
(-232402 -763.059 -2859.29)
(-232018 -762.89 -2380.85)
(-231730 -765.584 -1889.16)
(-231517 -772.024 -1403.45)
(-231359 -783.93 -937.468)
(-231235 -803.272 -501.576)
(-231126 -831.559 -101.808)
(-231005 -868.522 260.297)
(-230829 -910.783 575.786)
(-230577 -955.326 834.915)
(-230241 -1000.12 1028.02)
(-229815 -1042.91 1140.29)
(-229290 -1079.45 1150.75)
(-228614 -1104.03 1041.41)
(-227652 -1110.63 792.584)
(-226266 -1091.25 377.523)
(-224639 -1042.8 -229.099)
(-223566 -976.078 -1050.08)
(-223678 -906.378 -2151.41)
(-223219 -780.092 -3744.49)
(-217008 -447.473 -6502.76)
(-204281 -24.2809 -10819.2)
(-198522 -965.759 -17799.3)
(-223577 -1608.01 -25644.1)
(-212078 -10589.9 -46961.3)
(-29726.8 -11685.3 -21746.3)
(-233058 4802.49 698.708)
(-233350 4902.26 722.583)
(-233499 4997.1 753.414)
(-233728 5092.76 773.122)
(-233981 5195.37 792.652)
(-234264 5300.8 806.401)
(-234574 5410.7 805.896)
(-234910 5523.55 783.741)
(-235269 5639.24 734.625)
(-235648 5757.3 649.336)
(-236045 5876.39 518.991)
(-236449 5995.32 335.736)
(-236851 6113.27 92.2592)
(-237235 6229.29 -218.249)
(-237584 6342.32 -601.13)
(-237874 6450.89 -1058.03)
(-238075 6555.84 -1589.82)
(-238157 6654.34 -2190.91)
(-238097 6743.35 -2847.17)
(-237871 6821.43 -3540.37)
(-237460 6890.65 -4243.46)
(-236812 6946.62 -4917.69)
(-235947 6987.29 -5503.48)
(-234914 7011.22 -5953.02)
(-233778 7020.71 -6241.23)
(-232612 7017.6 -6366.42)
(-231482 7005.06 -6347.92)
(-230434 6986.6 -6214.63)
(-229494 6965.61 -5997.66)
(-228675 6945.49 -5726.34)
(-227978 6929.56 -5423.71)
(-227398 6920.13 -5106.05)
(-226930 6918.54 -4784.64)
(-226567 6926.02 -4467.13)
(-226305 6943.7 -4158.49)
(-226141 6972.14 -3861.86)
(-226074 7012.67 -3580.08)
(-226110 7069.2 -3314.34)
(-226255 7146.06 -3068.67)
(-226540 7249.37 -2844.38)
(-226991 7384.72 -2648.01)
(-227603 7557.36 -2489.56)
(-228296 7775.05 -2381.22)
(-229002 8046.76 -2336.6)
(-230018 8376 -2359.99)
(-232348 8755.93 -2431.27)
(-236913 9163.33 -2575.75)
(-242085 9627.32 -3014.88)
(-242570 10158.8 -4522.99)
(-239123 10513 -7978.76)
(-249715 8743.97 -15021.6)
(-299906 4049.94 -21348.7)
(-293165 -24786.8 -53054.2)
(-216036 -19984.1 -8503.25)
(-236638 -2022.73 -1741.34)
(-236400 -2059.61 -1646.71)
(-236261 -2059.8 -1617.31)
(-236139 -2079.93 -1574.32)
(-236060 -2102.05 -1544.8)
(-236019 -2128.58 -1532.54)
(-236018 -2157.7 -1543.65)
(-236054 -2190.52 -1584.9)
(-236130 -2226.75 -1663.26)
(-236243 -2265.04 -1787.79)
(-236389 -2303.84 -1968.34)
(-236558 -2342.47 -2214.86)
(-236737 -2380.59 -2537.14)
(-236909 -2418.18 -2943.72)
(-237051 -2455.5 -3440.41)
(-237132 -2492.38 -4029.49)
(-237125 -2529.77 -4704.65)
(-236999 -2566.74 -5452.43)
(-236726 -2604.29 -6251.59)
(-236277 -2641.81 -7075.58)
(-235617 -2681.56 -7883.79)
(-234727 -2719.41 -8616.44)
(-233614 -2753.24 -9188.15)
(-232332 -2783.44 -9528.32)
(-230961 -2811.03 -9604.33)
(-229581 -2835.7 -9430.17)
(-228255 -2859.14 -9049.31)
(-227021 -2882.24 -8518.58)
(-225891 -2905.47 -7894.05)
(-224862 -2929.99 -7223.23)
(-223922 -2955.65 -6542.36)
(-223054 -2981.53 -5876.96)
(-222244 -3006.14 -5242.89)
(-221478 -3027.54 -4649.04)
(-220748 -3043.14 -4099.03)
(-220050 -3049.08 -3594.11)
(-219384 -3040.44 -3130.6)
(-218757 -3010.78 -2700.53)
(-218178 -2952.69 -2293.33)
(-217664 -2860.23 -1898.75)
(-217231 -2727.18 -1502.87)
(-216851 -2544.02 -1080.74)
(-216426 -2298.95 -600.064)
(-215857 -1976.02 -23.6063)
(-215386 -1554.47 709.099)
(-215964 -1013.17 1708.64)
(-218537 -318.666 3120.24)
(-221798 600.216 4947.84)
(-220906 1869.84 6816.81)
(-216726 3983.38 8235.11)
(-226035 7372.48 7857.16)
(-272322 12352.1 803.467)
(-255370 -3381.65 -47224.5)
(-153660 3778.36 -7761.32)
(-242017 6287.6 4952.86)
(-242725 6373.62 5237.81)
(-243148 6459.95 5381.57)
(-243706 6537.99 5558.39)
(-244290 6616.48 5720.79)
(-244923 6694.79 5876.51)
(-245602 6773.4 6015.88)
(-246324 6850.63 6132.33)
(-247085 6925.96 6217.63)
(-247880 6999.54 6262.02)
(-248699 7071.79 6254.93)
(-249529 7142.42 6185.15)
(-250351 7211.25 6040.87)
(-251142 7277.76 5810.83)
(-251872 7341.21 5484.96)
(-252509 7401.83 5057.52)
(-253017 7459.2 4531.06)
(-253362 7515.19 3917.79)
(-253517 7570.34 3234.02)
(-253456 7626.83 2499.21)
(-253156 7684.49 1743.64)
(-252650 7748.78 1034.09)
(-251955 7822.4 450.809)
(-251130 7904.78 64.6312)
(-250279 7997.33 -83.8316)
(-249471 8097.38 -3.99508)
(-248757 8200.3 269.27)
(-248164 8303.66 687.852)
(-247698 8405.71 1200.7)
(-247362 8506.31 1770.97)
(-247147 8607.2 2372.16)
(-247037 8710.32 2982.67)
(-247013 8817.96 3590.07)
(-247059 8932.78 4189.85)
(-247166 9058.06 4781.22)
(-247331 9198.26 5366.24)
(-247563 9360.66 5954.32)
(-247876 9555.82 6559.01)
(-248296 9793.46 7190.33)
(-248853 10084.4 7858.86)
(-249580 10440.8 8574.89)
(-250487 10875.5 9346.75)
(-251523 11401.7 10179.1)
(-252651 12034.1 11071.2)
(-254159 12785.7 12029.6)
(-256958 13667 13085.3)
(-261977 14694.3 14259)
(-268201 15896.1 15388.7)
(-271765 17354.2 16039.7)
(-273739 19374.1 15535.5)
(-290964 21599.2 13430.1)
(-367856 23018.9 6009.62)
(-496090 6641.34 -17986.4)
(-423568 -7410.01 -8504.11)
(-232737 -5015.79 -3635.27)
(-232475 -4997.46 -3620.3)
(-232433 -4942.8 -3625.49)
(-232396 -4903.51 -3609.34)
(-232441 -4858.05 -3600.18)
(-232545 -4808.25 -3594.34)
(-232713 -4753.15 -3595.3)
(-232943 -4693.96 -3607.69)
(-233236 -4631.85 -3639.38)
(-233592 -4566.75 -3700.04)
(-234006 -4499.29 -3801.04)
(-234469 -4430.29 -3957.78)
(-234967 -4360.96 -4188.65)
(-235480 -4292.52 -4513.51)
(-235981 -4226.1 -4952.28)
(-236440 -4162.59 -5519.73)
(-236818 -4102.82 -6223.29)
(-237082 -4047.27 -7053.99)
(-237203 -3998.24 -7994.7)
(-237151 -3958.63 -9021.12)
(-236885 -3932.7 -10102.7)
(-236368 -3922.69 -11166.1)
(-235617 -3930.79 -12091.3)
(-234729 -3955.19 -12749.7)
(-233846 -3996.08 -13082)
(-233094 -4051.97 -13111.4)
(-232551 -4118.39 -12905.4)
(-232244 -4192.19 -12544.3)
(-232161 -4269.21 -12101.1)
(-232267 -4346.36 -11632.2)
(-232521 -4423.5 -11178)
(-232880 -4502 -10763.9)
(-233306 -4582.44 -10404.4)
(-233766 -4664.55 -10106.9)
(-234237 -4748.86 -9875.35)
(-234700 -4836.21 -9711.78)
(-235146 -4927.6 -9616.65)
(-235570 -5024.04 -9589.78)
(-235977 -5127.3 -9631.46)
(-236382 -5240.12 -9743.23)
(-236806 -5367.01 -9925.38)
(-237241 -5518.23 -10176.4)
(-237615 -5713.62 -10501.2)
(-237847 -5974.59 -10921.9)
(-238180 -6324.38 -11420)
(-239521 -6816.55 -11903.3)
(-242897 -7540.77 -12218.2)
(-247444 -8579.49 -12212)
(-249880 -9972.8 -11440.8)
(-252235 -11734.4 -9540.23)
(-272176 -13669.6 -6606.27)
(-347044 -20066.8 -4644.54)
(-451007 -3994.73 17237.1)
(-474441 -56252.9 -22470)
(-232735 5384.28 6393.23)
(-233053 5310.15 6680.88)
(-233285 5276.86 6786.27)
(-233564 5220.78 6946.64)
(-233874 5159.33 7087.02)
(-234206 5091.97 7220.68)
(-234563 5018.82 7338.79)
(-234941 4938.8 7436.77)
(-235337 4850.91 7505.75)
(-235751 4755.61 7534.89)
(-236175 4653.24 7511.11)
(-236605 4544.18 7418.3)
(-237028 4429.32 7237.82)
(-237429 4310.22 6949.99)
(-237790 4189.47 6536.04)
(-238086 4070.76 5981.41)
(-238287 3958.62 5281.68)
(-238370 3858.46 4446.69)
(-238315 3773.92 3497.19)
(-238099 3708.09 2458.84)
(-237679 3662.64 1367.58)
(-237010 3640.72 294.623)
(-236088 3643.38 -641.467)
(-234961 3671.3 -1302.89)
(-233732 3712.84 -1631)
(-232534 3761.08 -1650.03)
(-231458 3810.74 -1428.69)
(-230547 3857.53 -1045.53)
(-229809 3898.42 -572.452)
(-229216 3930.4 -78.3052)
(-228703 3950.96 401.56)
(-228234 3957.37 841.83)
(-227776 3948.57 1223.67)
(-227304 3925.51 1536.23)
(-226803 3889.74 1774.2)
(-226265 3842.86 1933.32)
(-225687 3786.17 2010.36)
(-225075 3720.7 2002.26)
(-224442 3647.58 1906.34)
(-223815 3566.47 1720.41)
(-223227 3473.84 1443.83)
(-222684 3359.63 1080.15)
(-222129 3205.05 635.578)
(-221516 2987.71 116.059)
(-221124 2680.62 -440.638)
(-221885 2231.11 -980.262)
(-224810 1554.64 -1375.36)
(-228809 587.63 -1381.06)
(-229403 -717.521 -890.185)
(-227616 -2306.49 -510.651)
(-241961 -4057.6 4414.65)
(-324006 -1213.93 14337.6)
(-425496 4109.3 53291)
(-407831 -11079.8 42050.4)
(-235783 -3621.05 -3132.81)
(-235441 -3558.39 -2889.72)
(-235389 -3478.81 -2763.58)
(-235323 -3406.51 -2587.01)
(-235346 -3327.7 -2404)
(-235426 -3243.69 -2207.79)
(-235568 -3156.59 -2003.43)
(-235774 -3068 -1802.17)
(-236049 -2979.17 -1619.72)
(-236392 -2890.73 -1475.38)
(-236797 -2803.8 -1392.51)
(-237257 -2718.97 -1398.44)
(-237756 -2636.52 -1522.67)
(-238269 -2556.37 -1794.03)
(-238763 -2478.04 -2237.59)
(-239191 -2401.09 -2870.4)
(-239494 -2323.59 -3694.2)
(-239618 -2243.87 -4689.06)
(-239519 -2160.1 -5821.17)
(-239158 -2072.18 -7057.64)
(-238463 -1979.53 -8366.75)
(-237340 -1883.12 -9660.35)
(-235774 -1779.96 -10742.5)
(-233917 -1670.2 -11377.5)
(-232043 -1558.24 -11467.3)
(-230392 -1452.83 -11088.6)
(-229099 -1362.7 -10387.1)
(-228201 -1293.17 -9508.12)
(-227670 -1246.62 -8573.45)
(-227446 -1223.42 -7667.74)
(-227452 -1221.76 -6840.89)
(-227618 -1235.73 -6115.68)
(-227877 -1263.76 -5499.17)
(-228175 -1303.44 -4991.81)
(-228463 -1350.76 -4591)
(-228699 -1402.07 -4291.9)
(-228845 -1452.92 -4088.55)
(-228867 -1498.4 -3974.12)
(-228730 -1533.14 -3942.29)
(-228410 -1552.03 -3988.04)
(-227876 -1550.53 -4106.6)
(-227056 -1527.5 -4294.15)
(-225787 -1485.97 -4536.7)
(-223911 -1428.69 -4835.57)
(-221525 -1361.58 -5204.51)
(-219212 -1302.8 -5622.61)
(-217490 -1287.7 -6008.86)
(-214752 -1365.86 -6135.95)
(-206817 -1753.62 -5644.91)
(-192061 -3002.06 -4914.75)
(-185886 -3794.1 -372.577)
(-216104 2153.21 20826.4)
(-280334 21572.2 90398)
(-229020 10756.8 20822.3)
(-230865 2000.91 5250.93)
(-230962 1894.28 5664.91)
(-231157 1842.11 5834.55)
(-231395 1767.71 6077.36)
(-231706 1691.57 6307.22)
(-232078 1611.43 6537.57)
(-232518 1526.84 6757.4)
(-233029 1436.72 6955.91)
(-233613 1340.99 7117.7)
(-234273 1240.57 7223.32)
(-235009 1136.48 7249.58)
(-235815 1030.3 7170.09)
(-236681 924.479 6956.69)
(-237587 821.986 6581.77)
(-238501 726.405 6020.98)
(-239378 641.063 5258.48)
(-240159 570.184 4294.93)
(-240786 516.819 3152.92)
(-241211 483.057 1871.79)
(-241387 468.119 491.397)
(-241237 470.443 -955.62)
(-240649 483.715 -2393.42)
(-239586 503.499 -3652.21)
(-238185 527.294 -4498.37)
(-236679 552.356 -4810.78)
(-235290 574.373 -4642.01)
(-234162 590.613 -4122.15)
(-233362 601.52 -3390.55)
(-232906 609.925 -2567.93)
(-232772 619.379 -1767.63)
(-232934 631.94 -1063.97)
(-233294 641.131 -488.286)
(-233795 644.071 -41.1162)
(-234409 644.895 288.958)
(-235102 646.631 505.245)
(-235846 651.428 609.929)
(-236618 662.679 607.103)
(-237396 684.049 499.077)
(-238162 719.687 289.592)
(-238896 773.093 -13.0635)
(-239569 847.488 -395.423)
(-240105 945.415 -843.493)
(-240343 1068.61 -1339.06)
(-240098 1213.46 -1847.26)
(-239434 1365.45 -2307.38)
(-238927 1500.54 -2676.6)
(-239154 1572.44 -2857.19)
(-238592 1494.62 -2778.88)
(-233048 986.771 -2517.85)
(-220912 -468.78 -2641.28)
(-219430 -1089.57 -1067.65)
(-219669 -441.922 8172.08)
(-197507 7738.33 70976)
(-70358.9 5192.8 35174.9)
(-243782 -2479.09 -1554.07)
(-243370 -2497.04 -1110.17)
(-243198 -2474.11 -888.49)
(-243028 -2465.42 -641.04)
(-242924 -2455.55 -409.687)
(-242877 -2445.1 -196.819)
(-242894 -2438.09 -9.39706)
(-242983 -2434.42 137.685)
(-243150 -2434.07 229.673)
(-243400 -2436.29 250.404)
(-243730 -2440.44 180.549)
(-244133 -2445.31 -0.88738)
(-244593 -2449.36 -316.612)
(-245083 -2451.27 -790.452)
(-245560 -2450.22 -1445.68)
(-245965 -2446.26 -2301.5)
(-246220 -2438 -3367.66)
(-246250 -2423.22 -4637.66)
(-246003 -2400.85 -6084.48)
(-245438 -2369.76 -7686.7)
(-244443 -2331.61 -9443.06)
(-242800 -2285.95 -11295)
(-240352 -2225.03 -12964)
(-237266 -2139.42 -14018.3)
(-233985 -2015.67 -14238.4)
(-230913 -1849.4 -13773.2)
(-228246 -1645.76 -12887.1)
(-226034 -1415.56 -11814.4)
(-224242 -1170.92 -10734.4)
(-222796 -924.528 -9751.96)
(-221612 -691.264 -8917.2)
(-220613 -478.493 -8246.58)
(-219741 -282.564 -7738.01)
(-218955 -98.6789 -7382.61)
(-218229 72.8299 -7165.87)
(-217541 229.686 -7069.3)
(-216874 368.787 -7071.51)
(-216220 483.532 -7148.83)
(-215571 567.14 -7277.02)
(-214932 615.014 -7426.53)
(-214311 622.391 -7562.49)
(-213680 582.755 -7646.43)
(-212926 488.103 -7632.97)
(-211877 333.003 -7481.84)
(-210634 127.337 -7137.83)
(-209952 -86.9249 -6476.7)
(-210618 -234.529 -5303.54)
(-211072 -205.812 -3422.73)
(-206506 38.9894 -779.518)
(-194363 344.928 2478.15)
(-188635 1943.26 8540.57)
(-197053 7405.93 25522.3)
(-206758 31003.2 92828.4)
(-101380 16705.2 42085)
(-231287 205.875 4872.58)
(-231157 148.242 5383.59)
(-231179 152.898 5642.96)
(-231220 138.002 5947.38)
(-231331 127.521 6231.23)
(-231502 118.688 6500)
(-231744 109.541 6744.31)
(-232063 100.738 6952.81)
(-232468 93.663 7111.94)
(-232966 90.3715 7206.68)
(-233560 93.0437 7219.91)
(-234249 104.378 7132.94)
(-235022 127.334 6925.73)
(-235858 164.34 6577.06)
(-236725 216.66 6065.53)
(-237567 284.365 5373.7)
(-238313 366.337 4495.62)
(-238894 459.963 3444.47)
(-239269 561.675 2247.81)
(-239433 668.514 925.523)
(-239334 778.344 -537.679)
(-238853 897.222 -2116.52)
(-237878 1035.49 -3562.03)
(-236586 1198.45 -4474.75)
(-235362 1393.22 -4636.28)
(-234465 1617.96 -4169.9)
(-233925 1864.97 -3313.71)
(-233649 2123.99 -2274.11)
(-233497 2385.55 -1201.66)
(-233351 2641.33 -177.835)
(-233149 2884.76 731.506)
(-233009 3132.21 1527.63)
(-232950 3398.13 2212.35)
(-232942 3685.79 2775.77)
(-232926 3993.92 3211.43)
(-232870 4320.93 3525.99)
(-232735 4664.36 3730.76)
(-232490 5018.22 3837.35)
(-232111 5375.85 3855.21)
(-231570 5729 3794.97)
(-230823 6065.57 3671.94)
(-229782 6369.72 3506.17)
(-228277 6620.75 3326.3)
(-226131 6793.76 3173.36)
(-223446 6872.48 3115.15)
(-220921 6866.83 3302.68)
(-219256 6809.06 4018.85)
(-216901 6744.98 5337.28)
(-209577 6667.42 7327.27)
(-195552 6474.46 10292.7)
(-189378 6899.47 14440)
(-205814 8143.58 20686.6)
(-189513 13970.1 35253.5)
(63505.2 7719.78 25348.2)
(-243324 -2611.47 -1617.98)
(-243159 -2723.47 -1199.18)
(-242993 -2767.34 -987.45)
(-242894 -2819.67 -752.481)
(-242812 -2872.03 -521.087)
(-242785 -2921.51 -289.623)
(-242808 -2970.86 -58.5557)
(-242896 -3017.81 167.387)
(-243055 -3061.71 381.734)
(-243293 -3101.57 573.339)
(-243614 -3136.16 723.516)
(-244021 -3164.11 803.589)
(-244507 -3183.93 772.299)
(-245063 -3194.31 574.856)
(-245661 -3194.2 145.891)
(-246250 -3182.63 -577.876)
(-246753 -3158.11 -1644.44)
(-247093 -3119.5 -3068.54)
(-247236 -3059.17 -4835.6)
(-247176 -2975.24 -6895.82)
(-246806 -2871.97 -9246.81)
(-245751 -2762.43 -11887)
(-243585 -2680.53 -14481.2)
(-240438 -2654.37 -16247.2)
(-237059 -2680.09 -16625.7)
(-234115 -2729.52 -15863.4)
(-231827 -2782.27 -14550.6)
(-230200 -2829.59 -13081.9)
(-229120 -2860.15 -11706.7)
(-228429 -2865.53 -10534.5)
(-227993 -2837.17 -9599.26)
(-227715 -2768.99 -8898.77)
(-227533 -2669.99 -8412.48)
(-227402 -2554.43 -8112.69)
(-227284 -2435.71 -7973.78)
(-227150 -2325.38 -7976.41)
(-226966 -2231.3 -8105.12)
(-226705 -2161.64 -8347.24)
(-226335 -2128.13 -8691.86)
(-225826 -2143.18 -9129.79)
(-225129 -2220.33 -9653.92)
(-224147 -2376.41 -10257.1)
(-222684 -2633.76 -10926.9)
(-220507 -3018.5 -11630.9)
(-217629 -3543.09 -12314.9)
(-214630 -4198.46 -12896.5)
(-211973 -4928.85 -13236.8)
(-207794 -5605.08 -13058)
(-197914 -6235.34 -12187.9)
(-180781 -6597.16 -10126.8)
(-169015 -5381.97 -7850.2)
(-191704 -645.563 -1139.89)
(-154969 750.428 14050.3)
(83903.6 -3493.21 9333.55)
(-214565 -27.0399 2241.09)
(-214477 -96.8177 2702.67)
(-214486 -107.704 2989.13)
(-214517 -121.555 3302.69)
(-214609 -133.56 3620.5)
(-214756 -139.084 3950.61)
(-214971 -140.66 4296.47)
(-215264 -135.739 4655.72)
(-215642 -123.389 5023.6)
(-216115 -102.486 5390.8)
(-216687 -71.8445 5740.69)
(-217359 -30.514 6045.78)
(-218124 22.0959 6264.69)
(-218967 85.9258 6340.4)
(-219856 160.092 6203.02)
(-220729 243.69 5781.3)
(-221497 337.238 5018.62)
(-222063 442.497 3891.14)
(-222360 561.701 2429.84)
(-222359 696.648 701.612)
(-221859 860.531 -1295.06)
(-220387 1046.2 -3590.35)
(-217453 1228.24 -5904.14)
(-213175 1390.54 -7448.41)
(-208433 1545.01 -7579.52)
(-204150 1710.58 -6501.01)
(-200790 1887.32 -4812.94)
(-198508 2072.78 -2930.68)
(-197263 2268.31 -1114.77)
(-196879 2474.36 518.076)
(-197166 2701.57 1926.83)
(-197808 2964.64 3141.12)
(-198520 3280.11 4126.27)
(-199190 3632.32 4900.15)
(-199779 4010.8 5488.33)
(-200273 4402.66 5908.64)
(-200678 4796.11 6166.22)
(-200988 5179.19 6267.32)
(-201196 5531.82 6217.9)
(-201311 5829.5 6022.37)
(-201319 6043.51 5680.59)
(-201143 6135.43 5187.08)
(-200591 6057.72 4546.59)
(-199431 5755.11 3777.47)
(-197768 5181.8 2892.12)
(-196391 4308.44 1878.98)
(-195977 3150.4 701.652)
(-194181 1795.21 -595.212)
(-184559 199.625 -1917.5)
(-166082 -1102.65 -999.55)
(-159146 -828.246 2305.72)
(-192893 2106.4 -758.854)
(-155602 -2899.6 -31098.7)
(43335.1 -4191.44 -12412.5)
(-235526 -3366.7 1349.91)
(-235336 -3521.63 1958.23)
(-235085 -3578.07 2280.66)
(-234876 -3656.88 2679.76)
(-234647 -3737 3081.97)
(-234445 -3818.87 3506.81)
(-234268 -3902.84 3944.62)