/*--------------------------------*- C++ -*----------------------------------*\
| =========                 |                                                 |
| \\      /  F ield         | OpenFOAM: The Open Source CFD Toolbox           |
|  \\    /   O peration     | Version:  4.1                                   |
|   \\  /    A nd           | Web:      www.OpenFOAM.org                      |
|    \\/     M anipulation  |                                                 |
\*---------------------------------------------------------------------------*/
FoamFile
{
    version     2.0;
    format      ascii;
    class       volScalarField;
    location    "86";
    object      p;
}
// * * * * * * * * * * * * * * * * * * * * * * * * * * * * * * * * * * * * * //

dimensions      [0 2 -2 0 0 0 0];

internalField   nonuniform List<scalar> 
4432
(
100973
100974
100975
100977
100980
100983
100987
100991
100997
101003
101009
101017
101025
101033
101041
101049
101055
101059
101064
101073
101088
101105
101124
101144
101166
101190
101213
101230
101244
101255
101265
101274
101287
101304
101320
101329
101333
101340
101346
101352
101356
101358
101360
101362
101362
101361
101358
101356
101354
101348
101340
101334
101330
101325
100973
100974
100975
100977
100980
100983
100987
100991
100997
101003
101009
101017
101025
101033
101041
101049
101055
101059
101063
101073
101089
101106
101125
101145
101168
101192
101213
101230
101245
101257
101268
101277
101289
101303
101318
101327
101333
101340
101346
101352
101355
101358
101359
101361
101362
101362
101358
101354
101353
101349
101341
101335
101328
101325
100972
100972
100973
100975
100977
100981
100984
100989
100994
101000
101007
101014
101023
101032
101043
101055
101071
101089
101103
101112
101123
101138
101153
101168
101183
101197
101213
101229
101245
101260
101272
101282
101291
101297
101305
101312
101320
101332
101344
101353
101356
101354
101357
101361
101362
101361
101359
101357
101355
101352
101346
101336
101318
101326
100972
100972
100973
100975
100977
100981
100984
100989
100994
101000
101007
101014
101023
101032
101043
101055
101071
101089
101103
101112
101123
101137
101151
101165
101180
101195
101211
101227
101243
101257
101268
101276
101285
101297
101307
101315
101323
101333
101344
101353
101356
101355
101358
101361
101363
101362
101360
101358
101356
101354
101347
101334
101314
101326
100971
100971
100972
100974
100976
100980
100983
100988
100993
100999
101006
101013
101022
101031
101042
101054
101067
101079
101090
101103
101119
101135
101150
101164
101179
101196
101214
101231
101249
101265
101277
101287
101298
101310
101314
101316
101324
101339
101353
101363
101363
101359
101362
101366
101367
101365
101362
101357
101353
101349
101345
101338
101330
101328
100971
100971
100972
100974
100976
100980
100983
100988
100993
100999
101006
101013
101022
101031
101042
101054
101067
101079
101090
101103
101118
101134
101149
101162
101177
101194
101212
101229
101247
101264
101276
101284
101293
101306
101315
101320
101327
101339
101351
101361
101363
101360
101363
101367
101367
101365
101362
101358
101353
101350
101346
101337
101330
101331
100969
100969
100970
100972
100974
100977
100981
100985
100990
100996
101003
101010
101018
101028
101038
101049
101061
101072
101083
101098
101114
101130
101145
101159
101176
101196
101217
101236
101256
101275
101289
101302
101321
101330
101326
101314
101320
101337
101353
101366
101365
101361
101367
101371
101371
101367
101363
101358
101353
101347
101345
101343
101336
101325
100969
100969
100970
100972
100974
100977
100981
100985
100990
100996
101003
101010
101018
101028
101038
101049
101061
101072
101083
101098
101114
101130
101144
101159
101176
101196
101216
101236
101257
101275
101288
101300
101317
101327
101328
101323
101328
101341
101354
101363
101362
101362
101366
101371
101371
101367
101363
101358
101353
101350
101349
101344
101334
101324
100966
100966
100967
100969
100971
100974
100978
100982
100987
100993
100999
101007
101015
101024
101033
101044
101056
101067
101078
101089
101104
101120
101136
101152
101172
101196
101221
101244
101268
101289
101305
101323
101343
101354
101378
101295
101305
101334
101359
101381
101378
101367
101374
101377
101375
101371
101366
101361
101357
101352
101348
101342
101337
101333
100966
100966
100967
100969
100971
100974
100978
100982
100987
100993
100999
101007
101015
101024
101033
101044
101056
101067
101078
101089
101104
101120
101136
101152
101173
101197
101221
101245
101270
101292
101307
101322
101341
101348
101348
101328
101326
101342
101363
101379
101377
101370
101373
101376
101376
101371
101366
101361
101356
101352
101350
101345
101334
101330
100963
100963
100964
100966
100968
100971
100974
100978
100983
100989
100995
101002
101010
101018
101028
101038
101049
101059
101070
101081
101095
101110
101126
101142
101162
101188
101215
101242
101270
101294
101311
101330
101355
101444
101606
101366
101290
101308
101341
101352
101362
101389
101391
101387
101381
101376
101370
101365
101361
101355
101349
101341
101336
101335
100963
100963
100964
100966
100968
100971
100974
100978
100983
100989
100995
101002
101010
101018
101028
101038
101048
101059
101070
101081
101095
101111
101126
101142
101163
101189
101215
101241
101269
101294
101311
101324
101340
101372
101400
101341
101308
101328
101361
101387
101396
101385
101384
101384
101381
101376
101371
101366
101361
101354
101348
101342
101337
101334
100959
100959
100960
100962
100964
100966
100970
100974
100978
100984
100990
100996
101004
101012
101021
101031
101041
101051
101062
101073
101086
101101
101116
101130
101146
101170
101200
101226
101249
101273
101297
101325
101378
101595
101528
101483
101328
101335
101358
101368
101380
101399
101401
101394
101388
101383
101377
101372
101366
101360
101352
101342
101332
101332
100959
100959
100960
100962
100964
100966
100970
100974
100978
100984
100990
100996
101004
101012
101021
101031
101041
101051
101062
101073
101086
101101
101116
101131
101148
101172
101199
101222
101248
101273
101293
101314
101342
101399
101463
101398
101305
101320
101357
101376
101387
101394
101395
101392
101386
101380
101374
101370
101364
101358
101349
101341
101335
101330
100954
100955
100955
100957
100959
100962
100965
100968
100973
100978
100984
100990
100997
101005
101014
101023
101033
101043
101053
101064
101076
101089
101103
101116
101126
101144
101171
101194
101213
101229
101250
101281
101311
101377
101426
101415
101345
101349
101369
101383
101392
101399
101400
101395
101388
101382
101377
101372
101366
101360
101352
101340
101328
101329
100954
100954
100955
100957
100959
100962
100965
100968
100973
100978
100984
100990
100997
101005
101014
101023
101033
101043
101054
101064
101076
101089
101103
101116
101129
101147
101170
101190
101209
101231
101249
101275
101313
101355
101396
101370
101334
101345
101370
101386
101395
101399
101398
101393
101387
101381
101374
101369
101365
101358
101349
101338
101329
101329
100949
100950
100950
100952
100954
100956
100959
100963
100967
100971
100977
100983
100990
100997
101006
101015
101024
101034
101044
101055
101065
101076
101086
101097
101105
101113
101131
101152
101174
101196
101218
101245
101284
101325
101364
101356
101346
101359
101377
101389
101396
101399
101401
101397
101390
101383
101378
101373
101369
101363
101353
101340
101328
101327
100949
100950
100950
100952
100954
100956
100959
100963
100967
100971
100977
100983
100990
100997
101006
101015
101024
101034
101044
101055
101065
101076
101086
101096
101105
101115
101131
101151
101171
101193
101217
101246
101286
101326
101356
101361
101359
101369
101385
101397
101402
101404
101401
101397
101392
101385
101378
101373
101369
101363
101353
101340
101330
101330
100944
100944
100945
100946
100948
100950
100953
100956
100960
100964
100969
100975
100981
100989
100997
101005
101015
101025
101035
101045
101054
101062
101069
101074
101076
101078
101090
101114
101142
101170
101198
101231
101273
101314
101352
101369
101379
101391
101403
101412
101416
101417
101415
101410
101402
101393
101386
101380
101375
101368
101358
101344
101331
101327
100944
100944
100945
100946
100948
100950
100953
100956
100960
100964
100969
100975
100981
100989
100997
101005
101015
101025
101035
101045
101054
101062
101068
101072
101075
101078
101092
101115
101142
101169
101198
101232
101273
101315
101351
101372
101384
101397
101411
101421
101424
101422
101418
101413
101406
101397
101388
101381
101376
101369
101358
101345
101333
101331
100938
100938
100939
100940
100942
100944
100946
100949
100952
100956
100961
100966
100972
100979
100987
100995
101005
101015
101025
101035
101044
101050
101052
101048
101039
101034
101049
101081
101117
101152
101186
101225
101267
101311
101353
101384
101407
101427
101442
101451
101451
101446
101437
101426
101416
101406
101396
101386
101379
101372
101362
101347
101330
101322
100938
100938
100939
100940
100942
100944
100946
100949
100952
100956
100961
100966
100972
100979
100987
100995
101005
101015
101025
101035
101044
101050
101052
101047
101038
101034
101051
101083
101117
101151
101187
101226
101269
101313
101353
101383
101407
101428
101445
101455
101455
101449
101439
101429
101419
101408
101397
101388
101381
101373
101362
101348
101327
101326
100932
100932
100933
100934
100935
100937
100939
100941
100944
100948
100952
100957
100962
100969
100976
100984
100994
101004
101015
101027
101037
101043
101041
101025
100991
100971
100993
101039
101086
101126
101166
101210
101258
101307
101353
101394
101429
101458
101478
101486
101482
101470
101455
101441
101427
101415
101403
101391
101381
101372
101362
101350
101331
101325
100932
100932
100933
100934
100935
100937
100939
100941
100944
100948
100952
100957
100962
100969
100976
100984
100994
101004
101015
101027
101037
101043
101041
101024
100989
100971
100995
101041
101086
101126
101166
101211
101259
101307
101353
101394
101429
101458
101479
101488
101484
101472
101457
101442
101429
101417
101404
101392
101383
101374
101363
101349
101326
101332
100925
100925
100926
100927
100928
100929
100931
100933
100936
100939
100942
100946
100951
100957
100964
100972
100982
100993
101006
101020
101035
101045
101041
101008
100926
100888
100923
100989
101048
101093
101136
101186
101239
101296
101352
101406
101453
101491
101516
101523
101514
101495
101474
101456
101439
101423
101407
101393
101381
101371
101361
101350
101331
101328
100925
100925
100926
100927
100928
100929
100931
100933
100936
100939
100942
100946
100951
100957
100964
100972
100982
100993
101006
101020
101035
101045
101040
101004
100918
100886
100929
100994
101049
101093
101136
101186
101240
101296
101352
101406
101454
101492
101518
101524
101514
101495
101476
101459
101441
101423
101407
101392
101381
101372
101361
101349
101328
101327
100918
100919
100919
100920
100920
100921
100923
100924
100926
100929
100932
100935
100939
100945
100951
100958
100968
100979
100994
101014
101039
101067
101082
101022
100839
100739
100826
100939
101008
101051
101097
101152
101213
101278
101347
101414
101478
101527
101564
101570
101550
101520
101493
101470
101448
101426
101407
101391
101378
101368
101358
101348
101330
101330
100918
100919
100919
100920
100920
100921
100923
100924
100926
100929
100932
100935
100939
100945
100951
100958
100968
100979
100994
101014
101039
101067
101082
101018
100817
100744
100837
100939
101007
101051
101097
101151
101212
101278
101347
101412
101478
101528
101581
101582
101554
101518
101489
101466
101444
101424
101405
101390
101378
101368
101358
101348
101332
101326
100911
100911
100912
100912
100913
100913
100914
100915
100917
100919
100921
100923
100927
100931
100936
100942
100951
100962
100978
101000
101037
101103
101169
101164
100605
100488
100661
100889
100978
101003
101044
101106
101174
101248
101330
101414
101497
101555
101623
101632
101589
101534
101496
101471
101447
101423
101402
101386
101374
101364
101355
101346
101333
101328
100911
100911
100912
100912
100913
100913
100914
100915
100917
100919
100921
100923
100927
100931
100936
100942
100951
100962
100978
101000
101037
101101
101165
101150
100524
100566
100721
100897
100974
101005
101048
101107
101174
101248
101333
101420
101510
101540
101620
101634
101584
101527
101493
101471
101447
101423
101402
101386
101373
101363
101355
101346
101335
101326
100904
100904
100904
100905
100905
100905
100905
100906
100907
100908
100909
100911
100913
100915
100919
100924
100931
100940
100952
100972
101001
101049
101166
101450
100443
100643
100862
100941
100946
100976
101036
101109
101193
101292
101399
101514
101557
101634
101689
101631
101547
101499
101470
101443
101417
101395
101379
101365
101355
101346
101339
101332
101323
100904
100904
100904
100905
100905
100905
100905
100906
100907
100908
100909
100911
100913
100915
100919
100924
100931
100940
100952
100971
101001
101048
101163
101437
100408
100661
100870
100943
100952
100983
101041
101111
101195
101283
101408
101524
101521
101515
101660
101617
101545
101500
101469
101440
101414
101394
101378
101365
101355
101347
101340
101333
101324
100897
100897
100897
100897
100897
100897
100897
100896
100896
100897
100897
100897
100898
100899
100901
100904
100907
100912
100919
100927
100936
100933
100895
100822
100534
100541
100818
100962
100959
100926
100928
100963
101017
101096
101200
101310
101438
101478
101547
101731
101670
101578
101510
101461
101424
101396
101376
101362
101350
101341
101334
101329
101327
101319
100897
100897
100897
100897
100897
100897
100896
100896
100896
100897
100897
100897
100898
100899
100901
100904
100907
100912
100919
100927
100935
100932
100892
100811
100527
100600
100853
100963
100950
100922
100931
100967
101019
101088
101143
101305
101322
101565
101505
101539
101570
101546
101504
101460
101422
101395
101376
101362
101350
101341
101335
101330
101327
101320
100890
100890
100890
100889
100889
100888
100888
100887
100886
100885
100884
100883
100883
100882
100882
100882
100882
100882
100882
100880
100874
100856
100822
100757
100687
100696
100838
100913
100915
100903
100898
100901
100919
100974
101131
101293
101276
101496
101786
101611
101573
101543
101484
101428
101387
101364
101349
101339
101331
101326
101323
101322
101322
101317
100890
100890
100890
100889
100889
100888
100888
100887
100886
100885
100884
100883
100883
100882
100882
100882
100882
100882
100882
100880
100873
100855
100822
100757
100684
100707
100840
100905
100906
100896
100894
100901
100916
100949
100993
101208
101027
101448
101904
100975
101384
101519
101488
101434
101390
101364
101349
101339
101331
101326
101324
101322
101322
101317
100883
100883
100882
100882
100881
100880
100879
100877
100876
100874
100872
100870
100867
100865
100862
100859
100855
100851
100845
100837
100825
100806
100780
100741
100695
100687
100731
100780
100811
100827
100834
100829
100814
100805
100902
101161
102190
101467
100644
100933
101401
101505
101450
101387
101347
101328
101319
101313
101310
101310
101312
101314
101320
101316
100883
100883
100882
100882
100881
100880
100879
100877
100876
100874
100872
100870
100867
100865
100862
100859
100855
100851
100845
100837
100825
100806
100780
100741
100695
100690
100732
100778
100806
100822
100829
100827
100817
100739
100872
101178
101700
99819.3
100283
99744.8
100449
101340
101445
101396
101352
101329
101320
101314
101310
101310
101312
101315
101320
101317
100876
100876
100875
100874
100873
100872
100870
100868
100865
100862
100859
100856
100852
100847
100842
100836
100829
100821
100811
100798
100782
100760
100733
100699
100663
100645
100654
100680
100702
100719
100728
100726
100630
100672
100736
99839.2
99367.5
99090.5
99126.2
99625.8
100475
101258
101371
101308
101285
101280
101280
101282
101285
101291
101297
101304
101313
101314
100876
100876
100875
100874
100873
100872
100870
100868
100865
100862
100859
100856
100852
100847
100842
100836
100829
100821
100811
100798
100782
100760
100733
100699
100664
100646
100656
100680
100701
100717
100728
100732
100738
100749
100681
100312
102448
99718.3
99301.2
99286.6
99882.4
100778
101291
101314
101280
101276
101279
101282
101286
101291
101297
101305
101315
101317
100869
100869
100868
100867
100866
100864
100861
100859
100855
100851
100847
100842
100836
100830
100822
100814
100804
100792
100778
100761
100740
100715
100686
100652
100620
100596
100588
100590
100592
100600
100607
100639
100403
100613
101083
100690
99086.3
98959.9
99311.2
99647.7
100115
100756
101130
101179
101207
101223
101236
101248
101261
101272
101283
101294
101307
101314
100869
100869
100868
100867
100866
100864
100861
100859
100855
100851
100847
100842
100836
100830
100822
100814
100804
100792
100778
100761
100740
100715
100685
100652
100620
100597
100588
100590
100590
100594
100598
100645
100601
100661
100978
100280
100514
99377.5
99506.7
99760.6
100268
100747
100992
101116
101194
101222
101237
101250
101262
101273
101283
101294
101306
101311
100863
100863
100862
100861
100859
100856
100853
100850
100846
100841
100835
100829
100822
100813
100804
100793
100780
100765
100747
100726
100701
100672
100639
100603
100567
100533
100506
100484
100466
100466
100491
100740
100536
99704.3
99951
100101
99233.3
99183.1
99505.5
99837.7
100107
100374
100911
101065
101142
101174
101196
101218
101238
101256
101271
101284
101303
101313
100863
100863
100862
100861
100859
100856
100853
100850
100846
100841
100835
100829
100822
100813
100804
100793
100780
100765
100747
100726
100701
100672
100639
100603
100567
100533
100506
100483
100461
100442
100413
100464
100700
99968.1
96853.5
97677.1
98894
99174.2
99576.7
99944.8
100306
100512
100786
101016
101134
101174
101197
101219
101239
101256
101271
101284
101300
101312
100857
100857
100856
100854
100852
100849
100846
100842
100837
100831
100825
100817
100808
100798
100786
100773
100757
100739
100718
100693
100664
100631
100593
100551
100506
100459
100410
100362
100313
100288
100366
100570
100849
99900.5
98882.4
98868.4
99034.8
99276.9
99452.3
99589.6
99860.8
100145
100614
100970
101092
101132
101160
101190
101218
101240
101258
101274
101295
101306
100857
100857
100856
100854
100852
100849
100846
100842
100837
100831
100825
100817
100808
100798
100786
100773
100757
100739
100718
100693
100664
100631
100593
100551
100506
100459
100410
100361
100304
100258
100180
100424
100613
99923.1
97892.9
98422.5
98989.9
99309.5
99476.2
99609.9
99947.3
100253
100588
100937
101082
101129
101161
101191
101218
101240
101259
101274
101295
101309
100852
100852
100851
100849
100846
100843
100839
100834
100829
100822
100815
100806
100795
100784
100770
100754
100736
100715
100691
100662
100629
100591
100547
100498
100442
100379
100308
100219
100124
99917.2
100148
100122
100559
93683.8
95561.5
98052
99046.2
99457.4
99402
99298.1
99573.5
100039
100529
100865
101010
101077
101122
101164
101200
101228
101250
101266
101287
101302
100852
100852
100851
100849
100846
100843
100839
100834
100829
100822
100815
100806
100795
100784
100770
100754
100736
100715
100691
100662
100629
100591
100547
100498
100442
100379
100307
100223
100119
99980.3
99878.9
99977.1
98441.8
98162.9
98177
98647.1
99256.9
99555.6
99414.4
99257
99584.9
100110
100558
100860
101003
101073
101122
101165
101201
101228
101251
101267
101285
101297
100848
100847
100846
100844
100841
100837
100833
100828
100821
100814
100806
100796
100784
100771
100756
100738
100718
100694
100666
100634
100597
100554
100504
100446
100379
100299
100205
100081
99923.2
99620.1
99175.9
100403
96549.2
94336.4
96487.9
98616.5
99784.7
100068
99656.4
99293.3
99516
99991.9
100440
100752
100916
101022
101089
101144
101188
101222
101249
101269
101288
101298
100848
100847
100846
100844
100841
100837
100833
100828
100821
100814
100806
100796
100784
100771
100756
100738
100718
100694
100666
100634
100597
100554
100504
100446
100379
100299
100204
100091
99932.7
99700.7
99410.3
99093.6
97276.7
95843.6
97634.9
99059.7
99999
100172
99664.9
99247.5
99507.1
100063
100503
100755
100912
101016
101087
101144
101188
101221
101249
101271
101290
101299
100844
100843
100842
100840
100836
100833
100828
100822
100815
100807
100798
100787
100774
100760
100743
100724
100701
100675
100645
100610
100569
100521
100465
100399
100321
100227
100111
99964.5
99766.8
99493.9
98989.1
98754.7
100234
100191
99832.3
100402
101042
100892
100049
99338.2
99432.9
99891
100326
100654
100853
100982
101066
101133
101182
101218
101246
101272
101301
101304
100844
100843
100842
100840
100836
100833
100828
100822
100815
100807
100798
100787
100774
100760
100743
100724
100702
100676
100645
100610
100569
100521
100465
100399
100320
100225
100104
99967.7
99794.2
99569.9
99285.7
98639.3
97728.4
98392.9
99498.6
100543
101227
100982
100052
99296.9
99414.3
99939.8
100374
100654
100845
100974
101061
101132
101181
101215
101244
101268
101303
101310
100841
100840
100839
100836
100833
100829
100824
100817
100810
100802
100792
100780
100767
100751
100733
100712
100688
100660
100628
100590
100546
100494
100432
100360
100273
100166
100037
99876.8
99661
99387.1
98956.2
98450.1
98791.1
99796.2
99781.8
100336
101115
101065
100235
99326.1
99329.1
99812
100306
100634
100823
100954
101056
101132
101182
101214
101240
101265
101296
101307
100841
100840
100839
100836
100833
100829
100824
100817
100810
100802
100792
100780
100767
100751
100733
100712
100688
100660
100628
100590
100546
100494
100432
100359
100272
100161
100034
99877.4
99666.3
99401.7
99166.9
98258.1
98072.2
98999
99759.9
100681
101269
101066
100249
99354.1
99304
99818.7
100329
100645
100824
100949
101048
101130
101182
101214
101236
101254
101286
101317
100838
100838
100836
100833
100830
100826
100820
100814
100806
100797
100787
100774
100760
100744
100725
100703
100678
100648
100614
100574
100527
100472
100407
100329
100236
100124
99987.2
99815.3
99592.8
99311.9
98974.4
98468.8
98225.8
98568.9
98150.5
99030.8
100027
100463
100268
99695
99581.9
99976.7
100417
100724
100859
100970
101073
101144
101190
101218
101238
101247
101258
101302
100838
100838
100836
100833
100830
100826
100820
100814
100806
100797
100787
100775
100760
100744
100725
100703
100678
100648
100614
100574
100527
100472
100407
100329
100236
100123
99993.4
99820.6
99586.2
99301.6
98943.8
98429.1
98271.2
98540.5
98979
99565.6
99694.6
100036
100089
99768
99625.1
99952
100409
100739
100883
100970
101064
101144
101190
101216
101236
101242
101241
101297
100837
100836
100835
100832
100828
100824
100818
100812
100804
100794
100784
100771
100756
100739
100720
100697
100671
100640
100605
100563
100515
100457
100389
100309
100212
100095
99952
99775.4
99554.4
99280.6
98966
98567.2
98222.1
97765.7
97046.5
97041.9
96488.2
96577.8
97072.1
98318.2
99258.1
100084
100540
100829
100988
101092
101164
101205
101231
101246
101255
101251
101233
101281
100837
100836
100835
100832
100828
100824
100818
100812
100804
100794
100784
100771
100756
100739
100720
100697
100671
100641
100605
100563
100515
100457
100389
100309
100212
100095
99954.1
99781.7
99555.4
99267.6
98974.7
98588.2
98223.7
98014.7
97588.6
96848.8
95974.2
96139.6
96794.1
98154.5
99328.3
100092
100537
100826
100986
101094
101163
101206
101228
101243
101260
101256
101227
101275
100835
100835
100833
100831
100827
100822
100817
100810
100802
100793
100782
100769
100754
100737
100717
100694
100667
100636
100600
100558
100508
100449
100380
100298
100199
100079
99934
99756
99537.6
99272.3
98960.2
98581.9
98127.4
97675.4
97170.7
96103
94220.8
93548.6
94191.1
96082
98114.3
99473.7
100209
100608
100899
101099
101189
101224
101243
101254
101254
101247
101234
101265
100835
100835
100833
100831
100827
100822
100817
100810
100802
100793
100782
100769
100754
100737
100717
100694
100667
100636
100600
100558
100508
100449
100380
100298
100199
100080
99934.7
99758.2
99539.4
99273.6
98972.8
98634.1
98273.2
97745.5
96716.1
95335
94224.5
93719.2
94273.1
95982.9
98033.8
99473.3
100216
100600
100871
101085
101193
101222
101238
101253
101255
101248
101238
101272
100696
101155
100639
101564
101572
100605
100543
100583
100483
100440
100621
101147
100574
101569
101531
100573
100447
100560
100425
100401
101453
100885
100578
100873
100505
100533
100451
100559
100393
100477
100384
101421
100869
100485
100868
100476
100423
100406
100449
100398
100440
100426
100943
101020
100936
101065
100939
101060
100929
100777
100828
100769
100741
100666
100718
100644
100927
101016
100922
101055
100900
101054
100882
100765
100813
100762
100676
100623
100654
100618
101233
101168
101231
101217
101365
101217
101367
100546
100678
100596
100687
100565
100573
100532
100613
100426
100440
100404
100442
101226
101164
101225
101215
101356
101212
101362
100434
100616
100486
100578
100452
100639
100574
100652
100395
100464
100418
100519
101257
101166
101258
101036
101021
101035
101017
100677
101462
101153
101151
100724
100457
100499
100468
100411
100468
100427
100494
100422
100503
101250
101161
101255
101032
101011
101031
101013
100653
101434
101139
100659
101138
100410
100407
100483
100426
100518
100449
100528
100481
100553
100682
100817
100675
100785
100690
100785
100691
100379
100531
100421
100599
100574
100602
100589
100664
100810
100663
100784
100691
100785
100693
100464
100528
100473
100606
100603
100608
100606
101022
100922
100684
100916
101059
101020
100670
100894
100909
101004
101395
101481
101578
101488
101409
101187
101225
101395
101490
101575
101487
101401
101186
101183
100519
100572
100634
100658
100462
100548
100563
100544
100482
100473
100476
100557
100526
100474
100529
100452
100449
100460
100476
100991
100870
100598
100857
101006
100992
100575
100848
100838
100985
101410
101488
101560
101408
101494
101223
101219
101408
101482
101548
101483
101380
101245
101174
100392
100463
100522
100554
100310
100451
100468
100457
100446
100402
100468
100432
100422
100365
100458
100434
100394
100423
100454
100346
100401
100672
101458
101148
101147
100664
100338
100321
100382
100666
100561
100662
100434
100375
100534
100633
100355
100648
100471
100514
100491
100462
100509
100433
100411
100444
100474
100406
100422
100415
100453
100533
100548
100530
100473
100440
100516
100478
100428
100510
100312
100319
100648
101433
101139
101142
100675
100305
100347
100339
100624
100468
100352
100614
100328
100467
100603
100610
100370
100410
100404
100389
100410
100389
100414
100407
100411
100400
100404
100392
100405
100409
100450
100426
100420
100431
100402
100425
100439
100427
100400
101230
101086
101162
101305
101082
101307
101236
101196
101053
101147
101291
101045
101192
101297
101226
101159
101070
101302
101077
101305
101221
100589
100641
100604
100490
100637
100493
100593
100564
100596
100594
100493
100617
100495
100522
101210
101155
101060
101317
101057
101309
101215
100521
100582
100563
100489
100568
100512
100480
100522
100558
100552
100476
100559
100480
100500
100790
100963
100799
100882
100957
100798
100797
100781
100950
100877
100784
100951
100777
100791
100411
100413
100438
100382
100392
100429
100426
100389
100377
100375
100425
100376
100386
100426
100761
100945
100778
100865
100769
100941
100772
100756
100950
100867
100765
100947
100769
100759
100385
100377
100420
100410
100385
100380
100410
100382
100395
100421
100403
100388
100397
100385
100534
100628
100423
100560
100641
100499
100465
100286
100178
100145
100299
100289
100112
100131
100253
100519
100560
100631
100467
100636
100474
100511
100320
100540
100446
100126
100551
100292
100168
100034
99943.9
100082
99914.8
100343
100447
100554
100228
100378
100547
100200
99989.2
99840.7
99879
99948.4
101126
100895
100926
100681
100894
101121
100931
101359
101598
101610
101368
101350
101593
101597
101346
101138
100680
100940
100936
100909
100936
101135
100470
100490
101123
100886
100648
100914
100882
101117
100905
101364
101605
101597
101344
101357
101598
101596
101328
101127
100650
100894
100914
101118
100887
100907
100405
100404
100557
100958
100590
101026
100964
100549
100597
100361
100221
100191
100384
100346
100157
100166
100339
100552
101027
100965
100637
100965
100594
100616
100531
100954
100583
101016
100542
100947
100570
100288
100033
100073
100263
100310
100134
100329
100105
100518
101010
100929
100531
100941
100552
100499
101621
101450
101601
101393
101450
101599
101619
101685
101675
101689
101672
101676
101671
101677
101671
101631
101404
101449
101610
101454
101614
101610
101185
101193
101622
101449
101400
101603
101452
101619
101606
101681
101686
101692
101674
101627
101403
101455
101629
101454
101608
101639
101676
101672
101672
101673
101186
101180
100427
100608
100368
100499
100464
100591
100324
100140
99971.4
100111
100010
100159
100073
100204
100036
100407
100472
100557
100267
100394
100564
100293
100555
100557
100507
100532
100515
100551
100538
100517
100503
100520
100550
100560
100519
100509
100527
100500
100547
100515
100552
100543
100530
100540
100523
100516
100504
100482
100487
100521
100509
100504
100509
100493
100495
100472
100469
100467
100478
100478
100491
100485
100475
100495
100485
100469
100478
100503
100485
100488
100455
100887
100999
100513
100905
100431
100518
100222
100009
99997.3
100231
100450
100999
100912
100549
100902
100464
100522
100219
99939.8
99973.6
100195
100380
100866
100517
100987
100388
100863
100515
100161
99975.3
99911.8
100220
100157
99925.4
100171
99903.7
100377
100948
100865
100520
100855
100485
100459
101686
101423
101448
101749
101451
101689
101691
101755
101702
101691
101716
101680
101425
101449
101704
101442
101674
101697
101743
101715
101695
101749
101220
101233
101645
101432
101718
101394
101426
101652
101707
101743
101639
101708
101654
101724
101693
101721
101704
101650
101381
101427
101684
101430
101767
101616
101235
101184
100255
100520
100061
100352
100263
100512
100024
99862.7
99877.5
99793.6
99934.8
99898.2
99824.2
99920.3
99794.2
100194
100311
100444
99989.3
100473
99986.1
100206
100458
100464
100431
100457
100456
100445
100460
100449
100428
100449
100462
100461
100449
100447
100459
100479
100466
100458
100470
100456
100432
100422
100426
100432
100386
100361
100432
100456
100441
100456
100467
100427
100442
100433
100415
100416
100438
100428
100415
100421
100418
100436
100447
100463
100450
100466
100443
100437
100351
100346
101123
100895
100921
100670
101119
100894
100923
101345
101593
101338
101590
101348
101594
101344
101595
101125
100668
100890
100922
101120
100888