/*--------------------------------*- C++ -*----------------------------------*\
| =========                 |                                                 |
| \\      /  F ield         | OpenFOAM: The Open Source CFD Toolbox           |
|  \\    /   O peration     | Version:  4.1                                   |
|   \\  /    A nd           | Web:      www.OpenFOAM.org                      |
|    \\/     M anipulation  |                                                 |
\*---------------------------------------------------------------------------*/
FoamFile
{
    version     2.0;
    format      ascii;
    class       surfaceScalarField;
    location    "86";
    object      phi;
}
// * * * * * * * * * * * * * * * * * * * * * * * * * * * * * * * * * * * * * //

dimensions      [0 3 -1 0 0 0 0];

internalField   nonuniform List<scalar> 
11516
(
9.98772e+06
17.2242
9180.58
9.96803e+06
49.1119
20044.1
9.93915e+06
65.5868
29242.7
9.90153e+06
70.5815
37992.2
9.85509e+06
73.2279
46827.3
9.79958e+06
77.5325
55926.2
9.73469e+06
79.1476
65334
9.66016e+06
78.7769
74990.8
9.57585e+06
81.9632
84785.2
9.48152e+06
79.4244
94805.8
9.37733e+06
79.1751
104681
9.2642e+06
87.6353
113634
9.14403e+06
-9.15425
120817
9.0216e+06
-144.21
123264
8.90735e+06
-1532.97
116514
8.81623e+06
-2436.54
94262.6
8.76509e+06
-898.124
52871.5
8.76246e+06
-427.419
3666.96
8.7644e+06
67.09
-1495.31
8.72671e+06
1213.81
36963.7
8.65666e+06
-1067.57
71630.2
8.55582e+06
-4764.38
106135
8.43063e+06
-7798.81
133544
8.28817e+06
-10349
153398
8.12976e+06
-12371.7
171391
7.97449e+06
-14003.7
169968
7.83461e+06
-11907
152609
7.71584e+06
-7000.77
126737
7.61597e+06
-6678.66
107638
7.52989e+06
-11551.9
98760.1
7.43902e+06
-19669.2
111656
7.30937e+06
-28076.6
158564
7.14281e+06
-28126
195075
6.98387e+06
-15407.4
174276
6.87551e+06
94.893
108251
6.78366e+06
5900.47
86517.6
6.68259e+06
5241.05
97074.5
6.58651e+06
2845.37
94522.9
6.51001e+06
1498.84
75409.2
6.46249e+06
2569.48
45213.7
6.43585e+06
4445.73
22591.7
6.41732e+06
6204.37
12386.5
6.40167e+06
6805.25
8647.6
6.39586e+06
7634.63
-2705.41
6.40275e+06
8522.11
-17772.5
6.4212e+06
9105
-30578.3
6.44776e+06
11661.5
-39546.7
6.48629e+06
13403.4
-51157.7
6.53125e+06
13488.7
-57568.1
6.58989e+06
16260.6
-73137.5
6.66242e+06
13019.5
-80249.4
6.72153e+06
5849.35
-62740
6.78285e+06
4974.3
-58651.5
6472.19
-59182
9.98774e+06
9180.23
9.96803e+06
20042.7
9.93914e+06
29247.2
9.90152e+06
37992.4
9.85509e+06
46818.8
9.79958e+06
55918.3
9.7347e+06
65313.7
9.66018e+06
74958.8
9.57587e+06
84749.5
9.48156e+06
94753.8
9.37737e+06
104651
9.26425e+06
113611
9.14369e+06
120998
9.01997e+06
124047
8.90047e+06
118493
8.80401e+06
94663.6
8.755e+06
48776.2
8.75872e+06
-3663.96
8.76583e+06
-6636.45
8.73042e+06
36978.6
8.661e+06
68728.2
8.56193e+06
94681.6
8.43758e+06
116948
8.29235e+06
135301
8.12671e+06
153726
7.96171e+06
151534
7.8109e+06
139564
7.67733e+06
127333
7.56058e+06
110933
7.46475e+06
85281.4
7.38131e+06
64729.7
7.27761e+06
76266
7.13573e+06
114008
6.97331e+06
146943
6.83657e+06
136975
6.71728e+06
125946
6.59475e+06
128636
6.48379e+06
114146
6.39286e+06
92427.4
6.32895e+06
66390.5
6.28563e+06
47710.8
6.25276e+06
39083.3
6.22506e+06
34182.2
6.2119e+06
19316.7
6.21629e+06
2655.27
6.23882e+06
-14735
6.27313e+06
-22824.2
6.31791e+06
-30819.4
6.37177e+06
-40306.7
6.45672e+06
-64421.2
6.55475e+06
-85852.8
6.63533e+06
-69275.4
6.70411e+06
-60668.2
-66717.2
1.0006e+07
16.3394
5307.64
1.00118e+07
44.6618
14518.2
1.00178e+07
57.2642
23618.2
1.00234e+07
61.3784
32715.6
1.00286e+07
65.7263
42009.4
1.00332e+07
68.7341
51644.4
1.00372e+07
70.8752
61698.8
1.00406e+07
73.6584
72029
1.00425e+07
74.7144
83283.5
1.00429e+07
81.1594
94752.4
1.00412e+07
83.3113
106777
1.00363e+07
77.2846
118962
1.00263e+07
155.347
131323
1.00074e+07
280.734
142613
9.96653e+06
1756.95
156457
9.89298e+06
2100.92
166689
9.7676e+06
2259.97
177288
9.57484e+06
1286.48
195690
9.36195e+06
-1006.93
212652
9.17587e+06
-1356.73
224611
9.01423e+06
224.374
233253
8.87528e+06
1891.02
243400
8.74845e+06
3234.24
257341
8.6243e+06
4389.2
273369
8.50426e+06
5041.12
286633
8.38286e+06
5780.79
285909
8.25646e+06
6390.82
273094
8.11316e+06
7959.6
262672
7.96027e+06
11879
249246
7.80872e+06
14860.3
236035
7.65851e+06
18017
244366
7.52301e+06
21180.8
273218
7.41755e+06
17606.2
283165
7.33521e+06
6674.94
250273
7.2659e+06
-6918.32
184453
7.19767e+06
-20448.9
175579
7.1246e+06
-29395.2
199653
7.04995e+06
-31085.4
199496
6.96697e+06
-27642.2
185237
6.89916e+06
-22528.6
134992
6.84669e+06
-23687.4
98299.1
6.79728e+06
-30403.4
91713.6
6.76086e+06
-34000.7
78045
6.74188e+06
-35922.3
50570.7
6.73798e+06
-37795.2
22013.1
6.74605e+06
-38288.6
-1969.63
6.76413e+06
-40168.7
-18206.9
6.78732e+06
-41945.9
-31566.9
6.80688e+06
-46250.4
-29828.3
6.84224e+06
-57072.2
-50546.5
6.88092e+06
-38164.4
-80397
6.93279e+06
-21224.3
-90481.3
6.99842e+06
-13033
-107012
-10075.9
-119189
1.0006e+07
5307.77
1.00118e+07
14517.3
1.00178e+07
23616.2
1.00234e+07
32711
1.00286e+07
42001.8
1.00332e+07
51636.3
1.00372e+07
61690
1.00405e+07
72017.4
1.00424e+07
83274.8
1.00428e+07
94735.6
1.00411e+07
106761
1.00362e+07
118985
1.00266e+07
131240
1.00086e+07
142755
9.97578e+06
153800
9.90903e+06
164373
9.77914e+06
181735
9.58156e+06
195526
9.36304e+06
211035
9.17708e+06
221725
9.01817e+06
228004
8.87962e+06
235268
8.7542e+06
245763
8.63257e+06
261493
8.51701e+06
274530
8.4004e+06
274253
8.27703e+06
269804
8.14459e+06
268310
8.01069e+06
257426
7.87715e+06
234497
7.72669e+06
233817
7.56554e+06
259000
7.43175e+06
265692
7.35083e+06
235022
7.29849e+06
182574
7.25408e+06
149936
7.20923e+06
143978
7.15859e+06
133275
7.10811e+06
114939
7.08119e+06
70602.7
7.06e+06
44973.9
7.03311e+06
34942
7.01285e+06
19219.9
7.00159e+06
-6578.21
6.99913e+06
-34091
7.00306e+06
-57853
7.01321e+06
-72903.7
7.02152e+06
-80314.3
7.0238e+06
-88241.1
7.0055e+06
-103733
7.00215e+06
-119926
7.04288e+06
-128482
7.09314e+06
-124335
-158719
9.99928e+06
16.0884
6699.78
9.99413e+06
43.6627
19995.2
9.98491e+06
56.3813
33159
9.97165e+06
60.3369
46296.9
9.9544e+06
63.5182
59586.2
9.93322e+06
65.415
73168.9
9.90833e+06
64.803
86936.3
9.87917e+06
63.8205
101546
9.84657e+06
64.753
116248
9.80983e+06
69.0648
131862
9.76941e+06
74.67
147587
9.72499e+06
93.4998
163810
9.67606e+06
128.394
180735
9.62079e+06
277.854
198346
9.56118e+06
360.413
216661
9.48913e+06
905.818
239134
9.40599e+06
762.926
260880
9.32038e+06
1191.2
280420
9.22548e+06
537.082
307185
9.11883e+06
557.757
330877
9.00345e+06
971.925
347857
8.88694e+06
1644.51
358477
8.77139e+06
2611.27
370501
8.65496e+06
4204.36
385842
8.53514e+06
4952.38
401800
8.40825e+06
6332.87
406929
8.26654e+06
8982.16
406504
8.10144e+06
12258.9
416333
7.9185e+06
14614.3
418460
7.72351e+06
13360.6
418485
7.51515e+06
11458.4
441951
7.3168e+06
14389.5
457768
7.13966e+06
23875.9
437093
6.99054e+06
33604.9
365615
6.90104e+06
26766.6
246261
6.82554e+06
140.804
249955
6.732e+06
-18092.6
310145
6.6282e+06
-20014.2
322620
6.53335e+06
-12502.6
293358
6.48989e+06
-2692.29
181534
6.46896e+06
-11476
130597
6.44118e+06
-24263.4
142829
6.42086e+06
-29843.2
126102
6.41905e+06
-30526.9
81066.3
6.42955e+06
-30333.9
39980.7
6.44831e+06
-29444
7197.25
6.47968e+06
-29878.6
-20566
6.52205e+06
-30815.1
-44867
6.58591e+06
-32906.2
-62290.5
6.66088e+06
-28869.4
-97893.6
6.71485e+06
-14718.8
-119692
6.76102e+06
-8411.13
-126847
6.79871e+06
-11431.8
-134272
-12908.8
-160254
9.9993e+06
6699.36
9.99412e+06
19993.6
9.9849e+06
33157
9.97164e+06
46294.2
9.95439e+06
59582.8
9.93321e+06
73165.2
9.90832e+06
86932.7
9.87915e+06
101542
9.84654e+06
116243
9.8098e+06
131855
9.76939e+06
147579
9.72504e+06
163798
9.67614e+06
180704
9.62142e+06
198287
9.55966e+06
216627
9.48745e+06
238382
9.40822e+06
262509
9.32113e+06
284080
9.22612e+06
306708
9.12113e+06
327394
9.00753e+06
342725
8.89293e+06
351684
8.77908e+06
362426
8.66167e+06
383326
8.54105e+06
400378
8.41437e+06
407702
8.27542e+06
418347
8.1212e+06
435551
7.95121e+06
442938
7.75843e+06
441543
7.54665e+06
457700
7.34857e+06
472054
7.18589e+06
453019
7.07034e+06
384007
7.0034e+06
275176
6.9283e+06
222236
6.84692e+06
204756
6.7622e+06
198206
6.68027e+06
186616
6.63579e+06
114723
6.60539e+06
64068.6
6.56434e+06
50429.2
6.53794e+06
13598.6
6.52798e+06
-28987.2
6.52946e+06
-66958.6
6.54055e+06
-98948.2
6.56333e+06
-126265
6.59807e+06
-147285
6.64237e+06
-167827
6.70026e+06
-191606
6.75046e+06
-184419
6.79314e+06
-180282
6.83413e+06
-175473
-216139
9.99891e+06
15.5868
8545.15
9.99374e+06
42.0729
25478.3
9.98472e+06
54.5844
42496.7
9.97172e+06
58.0387
59611.6
9.95462e+06
60.5687
77009.4
9.93347e+06
62.4483
94648.8
9.90752e+06
62.0976
113232
9.87719e+06
61.8646
132234
9.84206e+06
64.0607
151745
9.80208e+06
69.1057
172216
9.75674e+06
75.9147
193314
9.70546e+06
89.7158
215509
9.64794e+06
104.146
238738
9.58383e+06
172.671
262986
9.51174e+06
213.306
289441
9.43256e+06
711.755
318757
9.34209e+06
417.853
352036
9.24535e+06
317.397
377411
9.1559e+06
455.531
396393
9.06852e+06
889.376
417589
8.97521e+06
1261.96
440154
8.87422e+06
1317.31
458461
8.76095e+06
1228.98
482898
8.63622e+06
1585.18
509340
8.50067e+06
1176.34
536561
8.34995e+06
1143.13
557068
8.17635e+06
2986.8
577828
7.9721e+06
4650.49
616722
7.73148e+06
3460.05
656500
7.46445e+06
3231.77
683111
7.20647e+06
4164.61
696398
6.98175e+06
6868.19
676138
6.79876e+06
13300.8
606886
6.6941e+06
23229.6
447045
6.68618e+06
20866.3
232685
6.65399e+06
-20084.6
300179
6.55226e+06
-46893.9
456296
6.42528e+06
-52519.3
503322
6.29718e+06
-47828.4
471670
6.24366e+06
-18655.1
255803
6.21818e+06
-12396.9
168714
6.19165e+06
-20951.4
189426
6.17299e+06
-22927.3
164896
6.17574e+06
-21175.6
97061.9
6.19194e+06
-19107.5
41599.3
6.21753e+06
-17036.9
-2958.27
6.2518e+06
-15897.7
-41848.3
6.29694e+06
-14543.2
-79927.1
6.36209e+06
-13370.3
-118849
6.43617e+06
-24046.7
-150762
6.52092e+06
-24398.3
-178111
6.60046e+06
-19435.5
-187162
6.68223e+06
-18854.7
-195809
-9665.8
-197721
9.99893e+06
8545.34
9.99374e+06
25477.8
9.98471e+06
42494.4
9.97171e+06
59608.9
9.95461e+06
77006.4
9.93346e+06
94645.2
9.90751e+06
113227
9.87718e+06
132230
9.84204e+06
151741
9.80205e+06
172211
9.75672e+06
193311
9.70547e+06
215502
9.64796e+06
238734
9.584e+06
262937
9.51214e+06
289366
9.43367e+06
318410
9.34534e+06
352053
9.24746e+06
382697
9.15766e+06
397146
9.07075e+06
415372
8.97771e+06
437251
8.87503e+06
455955
8.75926e+06
479712
8.63417e+06
510250
8.49917e+06
536863
8.34543e+06
563009
8.16722e+06
600029
7.96206e+06
645886
7.72679e+06
682265
7.46933e+06
702784
7.22558e+06
706059
7.01467e+06
690247
6.83668e+06
644330
6.71981e+06
523872
6.69689e+06
317664
6.65297e+06
243871
6.57957e+06
231046
6.47873e+06
249292
6.37924e+06
243025
6.32382e+06
154634
6.28292e+06
92426.9
6.24372e+06
67612.5
6.21644e+06
16166.2
6.20994e+06
-44666.4
6.21942e+06
-96281
6.24343e+06
-141082
6.28024e+06
-180896
6.33229e+06
-217189
6.39009e+06
-242481
6.46675e+06
-292657
6.54246e+06
-284885
6.61825e+06
-273470
6.70338e+06
-279691
-290157
9.99892e+06
15.5157
10368.7
9.99384e+06
41.8141
30868.8
9.98501e+06
53.9346
51630.7
9.97231e+06
57.0243
72626.1
9.95562e+06
59.3055
94010.7
9.93483e+06
61.1762
115761
9.9098e+06
61.0022
138593
9.88057e+06
60.8355
161816
9.84653e+06
62.8503
186138
9.80764e+06
66.8392
211469
9.76362e+06
72.8303
237712
9.71416e+06
80.5134
265392
9.65925e+06
97.0815
294123
9.59803e+06
115.848
324793
9.53035e+06
216.245
357780
9.45636e+06
266.169
393637
9.37422e+06
1025.76
434559
9.27381e+06
1165.68
477801
9.16744e+06
954.022
502252
9.06519e+06
1205.2
519062
8.96548e+06
2033.74
538275
8.85861e+06
1684.02
564217
8.73555e+06
430.34
606022
8.59301e+06
-399.811
652741
8.43214e+06
-2796.75
700685
8.24315e+06
-3859.79
750468
8.02465e+06
-1515.24
798404
7.7806e+06
533.684
860752
7.5155e+06
-919.331
923055
7.24768e+06
-1636.39
953083
7.00405e+06
337.817
940120
6.79175e+06
5019.55
883757
6.62425e+06
11474.8
763626
6.53696e+06
24151.4
510557
6.58203e+06
51504.3
136495
6.4875e+06
-50218.2
444338
6.36497e+06
-150589
729010
6.21681e+06
-169040
822021
6.0653e+06
-171359
798797
6.0105e+06
-111271
423288
5.98817e+06
-47792.2
238895
5.96079e+06
-42119.5
258708
5.96898e+06
-33176.2
189442
5.97932e+06
-32482.7
119615
5.99909e+06
-33625.1
55674.1
6.03158e+06
-32916.2
-2782.24
6.07557e+06
-31931.9
-54801.2
6.13103e+06
-32825
-103708
6.18675e+06
-29020.3
-147343
6.24868e+06
-38626.7
-175395
6.3172e+06
-39366.3
-209884
6.39066e+06
-27976.5
-230844
6.46143e+06
-26626.5
-239299
-17099.7
-222312
9.99895e+06
10367.9
9.99384e+06
30866.3
9.985e+06
51628.2
9.9723e+06
72623.5
9.95561e+06
94007.6
9.93482e+06
115757
9.90979e+06
138588
9.88055e+06
161810
9.84651e+06
186133
9.80762e+06
211464
9.7636e+06
237707
9.71415e+06
265387
9.65928e+06
294116
9.59806e+06
324771
9.53055e+06
357738
9.45646e+06
393574
9.37609e+06
434349
9.28227e+06
478438
9.17663e+06
504289
9.07179e+06
521936
8.96829e+06
543253
8.85347e+06
572985
8.72418e+06
609831
8.58214e+06
652213
8.41835e+06
698188
8.22458e+06
753284
8.01194e+06
811463
7.77911e+06
879566
7.52678e+06
934029
7.26967e+06
958628
7.03288e+06
943549
6.83088e+06
897497
6.68202e+06
805055
6.62063e+06
610236
6.657e+06
337003
6.64301e+06
213693
6.53309e+06
192973
6.38864e+06
226297
6.24303e+06
219123
6.17049e+06
116164
6.12841e+06
86855.3
6.09529e+06
58966.4
6.09041e+06
-11453.6
6.10442e+06
-90756
6.13205e+06
-157190
6.17209e+06
-213758
6.22129e+06
-262056
6.27129e+06
-300607
6.32155e+06
-322636
6.3477e+06
-359128
6.37938e+06
-355649
6.43786e+06
-360496
6.49242e+06
-362494
-345008
9.99896e+06
14.6747
12136.8
9.99398e+06
39.4047
36136.9
9.98541e+06
51.2989
60505
9.97312e+06
54.4318
85211
9.95711e+06
56.5369
110314
9.93697e+06
58.1729
136212
9.91284e+06
57.8626
163040
9.88445e+06
57.5703
190541
9.85158e+06
59.2718
219344
9.8142e+06
62.7826
249194
9.77169e+06
67.9418
280584
9.72419e+06
75.2589
313285
9.67134e+06
88.7105
347449
9.613e+06
104.866
383709
9.54944e+06
160.091
422012
9.48082e+06
246.845
463074
9.40933e+06
699.048
506722
9.33081e+06
1471.68
556402
9.23521e+06
2100.29
597042
9.1233e+06
1869.01
630441
9.00051e+06
2287.48
660068
8.86811e+06
590.137
697375
8.7344e+06
-1419.1
741790
8.58667e+06
-2778.03
803828
8.40727e+06
-6094.22
886759
8.18389e+06
-6076.08
980600
7.925e+06
-2346.39
1.06026e+06
7.65985e+06
2029.62
1.1244e+06
7.39688e+06
2170
1.1844e+06
7.13972e+06
1473.62
1.20931e+06
6.8958e+06
3353.19
1.18125e+06
6.66624e+06
10143
1.10417e+06
6.43894e+06
23138.1
968911
6.19172e+06
84881.1
674637
5.73651e+06
358544
238377
5.24617e+06
231727
707090
4.99569e+06
51983.6
929487
5.05714e+06
-55755.3
813168
5.2309e+06
-158584
779632
5.37164e+06
-198684
481161
5.43438e+06
-114745
291087
5.50765e+06
-91299
279055
5.54973e+06
-54631
205063
5.59479e+06
-55022.8
131398
5.64462e+06
-55598.3
63348.5
5.69538e+06
-52327.4
2102.6
5.74533e+06
-45676.6
-55154.7
5.79885e+06
-41171.5
-113053
5.84706e+06
-32383.9
-163073
5.88405e+06
-12556.5
-204371
5.9104e+06
1483.15
-241343
5.9373e+06
14766.2
-273825
5.95247e+06
26949.1
-286294
45012.2
-306238
9.99898e+06
12137
9.99398e+06
36136
9.9854e+06
60501.7
9.97311e+06
85207
9.9571e+06
110310
9.93696e+06
136207
9.91283e+06
163035
9.88444e+06
190535
9.85156e+06
219338
9.81418e+06
249188
9.77167e+06
280578
9.72419e+06
313278
9.67135e+06
347440
9.61302e+06
383696
9.54952e+06
422001
9.48115e+06
462958
9.41047e+06
506701
9.33766e+06
553912
9.24819e+06
597165
9.13772e+06
635546
9.01257e+06
671812
8.87652e+06
710689
8.73195e+06
753835
8.57227e+06
809501
8.38463e+06
880152
8.16199e+06
970238
7.92381e+06
1.04765e+06
7.67661e+06
1.12914e+06
7.42073e+06
1.19248e+06
7.16768e+06
1.21358e+06
6.93439e+06
1.18056e+06
6.73083e+06
1.11182e+06
6.55918e+06
1.00105e+06
6.45538e+06
804269
6.72562e+06
441628
6.8816e+06
294318
6.81533e+06
310293
6.69648e+06
286554
6.55355e+06
200870
6.29904e+06
170667
6.09679e+06
174458
6.01819e+06
47450.2
6.01297e+06
-59714
5.99508e+06
-126648
5.96373e+06
-179997
5.92713e+06
-227724
5.88984e+06
-268508
5.85063e+06
-301418
5.81849e+06
-323952
5.7938e+06
-349074
5.78992e+06
-353078
5.78555e+06
-345396
5.77413e+06
-324332
-292381
9.999e+06
14.4615
13837.4
9.99423e+06
38.8997
41192.7
9.98602e+06
50.3984
68995.2
9.97428e+06
53.2127
97232.2
9.959e+06
55.0112
125885
9.93973e+06
56.4368
155773
9.91662e+06
56.1033
186456
9.88937e+06
55.8204
218102
9.85798e+06
57.3502
251058
9.82162e+06
60.4115
285870
9.78087e+06
64.7867
321671
9.73515e+06
71.9257
359374
9.68425e+06
83.2359
398798
9.62845e+06
102.677
440063
9.56785e+06
133.345
483282
9.50307e+06
222.734
528617
9.43475e+06
365.459
575946
9.36593e+06
875.441
625962
9.2896e+06
847.078
674549
9.19962e+06
61.7106
722752
9.08988e+06
118.341
772468
8.95414e+06
-528.698
836289
8.80265e+06
-1883.81
896765
8.64457e+06
-5494.79
968128
8.46007e+06
-9712.78
1.0816e+06
8.2278e+06
-10409.1
1.22395e+06
7.95091e+06
-1455.89
1.3394e+06
7.65811e+06
6505.84
1.41148e+06
7.37289e+06
5812.04
1.46455e+06
7.09854e+06
3631.38
1.48068e+06
6.8422e+06
7101.89
1.43122e+06
6.58722e+06
15074
1.34495e+06
6.23733e+06
40621.6
1.27935e+06
5.31798e+06
232631
1.36326e+06
4.25863e+06
329196
977367
4.2348e+06
11020.4
719990
4.23037e+06
43133
887168
4.04223e+06
139197
852147
4.08281e+06
68482.4
660532
4.21202e+06
-55899.2
395960
4.42365e+06
-54852.6
128023
4.5695e+06
38282.5
91409
4.63252e+06
79207.8
60223.4
4.67916e+06
84571.1
-1480.53
4.71279e+06
93606.2
-64813.9
4.72755e+06
110706
-124466
4.72611e+06
130613
-184989
4.71277e+06
149635
-250019
4.70017e+06
166954
-319633
4.69831e+06
181555
-388727
4.71716e+06
186942
-453035
4.76672e+06
184682
-519089
4.8519e+06
184880
-559304
159992
-650261
9.99902e+06
13836.2
9.99422e+06
41189.1
9.98601e+06
68991.3
9.97427e+06
97228.3
9.95899e+06
125880
9.93972e+06
155768
9.91661e+06
186450
9.88936e+06
218095
9.85796e+06
251051
9.8216e+06
285862
9.78085e+06
321663
9.73515e+06
359364
9.68426e+06
398787
9.62847e+06
440047
9.56791e+06
483266
9.50326e+06
528532
9.43536e+06
575867
9.36636e+06
624955
9.29136e+06
674450
9.20402e+06
724642
9.0998e+06
778088
8.97228e+06
839773
8.81251e+06
913319
8.63764e+06
979476
8.43533e+06
1.07327e+06
8.19584e+06
1.19979e+06
7.93829e+06
1.30426e+06
7.67525e+06
1.39912e+06
7.40507e+06
1.46895e+06
7.13729e+06
1.48548e+06
6.88995e+06
1.43557e+06
6.67032e+06
1.34726e+06
6.45479e+06
1.2583e+06
6.27198e+06
1.22992e+06
5.59427e+06
1.45425e+06
4.63915e+06
1.26007e+06
4.15545e+06
832405
4.06035e+06
513510
3.98532e+06
335620
3.90759e+06
184669
3.90905e+06
113077
3.91632e+06
75102.6
3.93087e+06
2820.04
3.95357e+06
-66569.4
3.98546e+06
-120061
4.02672e+06
-159661
4.07723e+06
-189650
4.13692e+06
-213221
4.20921e+06
-232286
4.28756e+06
-250419
4.37919e+06
-264598
4.48714e+06
-273790
4.61574e+06
-273432
-274850
9.99905e+06
13.2166
15437.8
9.99455e+06
35.4309
45964.5
9.9868e+06
46.4317
77010.2
9.97572e+06
49.3358
108582
9.96118e+06
51.1462
140692
9.94305e+06
52.5032
174182
9.92135e+06
52.0504
208442
9.89538e+06
51.4261
244360
9.86522e+06
52.2934
281515
9.83092e+06
54.3263
320453
9.79177e+06
57.5861
361125
9.74787e+06
63.454
403606
9.69912e+06
73.8488
447954
9.64542e+06
91.2473
494275
9.5871e+06
114.806
542224
9.52447e+06
166.812
591998
9.45831e+06
217.423
643016
9.38988e+06
339.793
695501
9.31736e+06
70.6304
748800
9.23895e+06
-451.238
803756
9.15109e+06
-835.391
863581
9.05231e+06
-194.873
937991
8.92479e+06
680.466
1.02625e+06
8.76673e+06
-3963.69
1.13169e+06
8.58915e+06
-10906.4
1.27074e+06
8.38863e+06
-13136.2
1.43825e+06
8.14581e+06
-2535.83
1.5858e+06
7.83241e+06
10573.5
1.71623e+06
7.48104e+06
13819.8
1.80412e+06
7.14616e+06
5133.87
1.81231e+06
6.87197e+06
5108.9
1.70148e+06
6.63996e+06
9112.42
1.5686e+06
6.41917e+06
9651.47
1.4908e+06
6.18754e+06
78098.1
1.51972e+06
4.913e+06
293909
1.9606e+06
3.72276e+06
327802
1.57902e+06
3.14553e+06
281136
1.17343e+06
2.95027e+06
238861
791963
2.82237e+06
216910
547403
2.67246e+06
185663
335221
2.51761e+06
153650
107762
2.49519e+06
152631
-55538.8
2.5348e+06
159770
-150863
2.61169e+06
159174
-247139
2.73978e+06
152807
-355592
2.92426e+06
144338
-462549
3.16043e+06
134312
-563724
3.4389e+06
123120
-658577
3.74794e+06
110126
-744382
4.07517e+06
96335.9
-818233
4.41181e+06
80756.1
-880409
4.75132e+06
65285.2
-932892
5.10861e+06
48049.2
-974153
27708.8
-1.02745e+06
9.99907e+06
15438
9.99454e+06
45963.4
9.98679e+06
77005.9
9.97571e+06
108576
9.96117e+06
140687
9.94304e+06
174176
9.92134e+06
208436
9.89537e+06
244353
9.8652e+06
281507
9.8309e+06
320446
9.79175e+06
361117
9.74787e+06
403597
9.69913e+06
447944
9.64543e+06
494260
9.58714e+06
542207
9.52453e+06
591956
9.45848e+06
642961
9.38949e+06
695311
9.31654e+06
748723
9.23822e+06
803981
9.15216e+06
865008
9.05663e+06
937007
8.93724e+06
1.03523e+06
8.77693e+06
1.13705e+06
8.57639e+06
1.26393e+06
8.34656e+06
1.41713e+06
8.07534e+06
1.57424e+06
7.79408e+06
1.69191e+06
7.51151e+06
1.76621e+06
7.21303e+06
1.79021e+06
6.9217e+06
1.7333e+06
6.67586e+06
1.6032e+06
6.44612e+06
1.50042e+06
6.22963e+06
1.52743e+06
6.22306e+06
1.754e+06
5.95251e+06
1.8557e+06
5.45e+06
1.61085e+06
4.96779e+06
1.22616e+06
4.59668e+06
913108
4.29377e+06
663081
4.08476e+06
467554
3.98616e+06
320223
3.94844e+06
195357
3.94766e+06
88778.8
3.97931e+06
-3342.76
4.04397e+06
-84568.4
4.13999e+06
-155989
4.2645e+06
-218928
4.4124e+06
-274083
4.57709e+06
-323548
4.75388e+06
-366338
4.94513e+06
-406523
5.14584e+06
-431222
-470772
9.99912e+06
12.9148
16929.7
9.99494e+06
34.7723
50401.4
9.98774e+06
45.3277
84460.2
9.97743e+06
47.99
119137
9.9639e+06
49.6004
154479
9.94698e+06
50.7524
191356
9.92649e+06
50.1336
229195
9.90233e+06
49.3248
268800
9.87393e+06
49.8866
310185
9.84132e+06
51.5717
353332
9.80435e+06
54.4086
398361
9.76242e+06
59.9034
445853
9.71554e+06
70.1585
495216
9.66394e+06
86.007
546354
9.6074e+06
107.019
599366
9.54652e+06
136.406
653598
9.48161e+06
166.814
708795
9.41385e+06
207.106
764338
9.34399e+06
171.588
820013
9.27225e+06
95.0472
877208
9.19883e+06
-11.9404
939018
9.12448e+06
432.654
1.01416e+06
9.04024e+06
1386.49
1.11167e+06
8.92156e+06
7112.84
1.24559e+06
8.76613e+06
3375.94
1.4241e+06
8.6019e+06
-4017.63
1.60715e+06
8.41499e+06
-5219.6
1.78036e+06
8.16918e+06
-416.417
1.96684e+06
7.85211e+06
13098.8
2.11316e+06
7.4597e+06
22030.8
2.18776e+06
7.02624e+06
19276.6
2.11949e+06
6.63133e+06
5914.41
1.96006e+06
6.32133e+06
1107.21
1.8008e+06
6.11669e+06
5168.26
1.71991e+06
6.02211e+06
106694
1.94508e+06
5.4958e+06
125864
1.97535e+06
4.83866e+06
91383
1.73184e+06
4.22951e+06
76974.5
1.31123e+06
3.77441e+06
75043.3
909548
3.48502e+06
63087.1
543115
3.33385e+06
35677.6
207440
3.32436e+06
12582
-69828.1
3.45157e+06
-153.756
-285781
3.67388e+06
-12571.1
-463618
3.95547e+06
-26043.4
-617378
4.26992e+06
-37736.2
-746013
4.59472e+06
-46364.9
-849042
4.91515e+06
-54420.5
-929849
5.22272e+06
-63253.3
-991141
5.51193e+06
-72870.5
-1.035e+06
5.7775e+06
-82592.8
-1.06397e+06
6.01988e+06
-94350.5
-1.08375e+06
6.23936e+06
-103312
-1.09337e+06
-120060
-1.09968e+06
9.99914e+06
16928.2
9.99493e+06
50397.1
9.98773e+06
84455.4
9.97742e+06
119132
9.96389e+06
154473
9.94697e+06
191350
9.92649e+06
229188
9.90231e+06
268792
9.87391e+06
310177
9.8413e+06
353324
9.80434e+06
398353
9.76241e+06
445844
9.71554e+06
495205
9.66395e+06
546340
9.60741e+06
599349
9.54654e+06
653571
9.48163e+06
708762
9.41377e+06
764265
9.34377e+06
819947
9.27189e+06
877162
9.19893e+06
939325
9.12474e+06
1.01317e+06
9.05073e+06
1.11236e+06
8.95543e+06
1.24144e+06
8.80806e+06
1.41631e+06
8.61717e+06
1.60546e+06
8.36718e+06
1.82133e+06
8.06778e+06
1.99293e+06
7.7602e+06
2.089e+06
7.44523e+06
2.13003e+06
7.09071e+06
2.11029e+06
6.70293e+06
1.99958e+06
6.32769e+06
1.87819e+06
6.0329e+06
1.82754e+06
6.01125e+06
1.88083e+06
6.05947e+06
1.93065e+06
5.96657e+06
1.79044e+06
5.7564e+06
1.50594e+06
5.53148e+06
1.20443e+06
5.33286e+06
916770
5.18158e+06
647932
5.09489e+06
414372
5.0677e+06
218354
5.08822e+06
52331.6
5.1455e+06
-90225.2
5.23219e+06
-213087
5.34473e+06
-318958
5.47756e+06
-408930
5.62266e+06
-483038
5.77199e+06
-544976
5.917e+06
-593231
6.05975e+06
-644228
6.18513e+06
-660506
-747392
9.9992e+06
11.4003
18282.5
9.99539e+06
30.6128
54440.6
9.98883e+06
40.437
91251.8
9.97942e+06
43.0608
128773
9.96704e+06
44.5275
167089
9.95152e+06
45.4454
207112
9.93267e+06
44.5946
248290
9.91025e+06
43.5386
291475
9.88395e+06
43.7833
336722
9.8535e+06
45.2018
384027
9.81857e+06
47.619
433540
9.77896e+06
52.7186
485741
9.73432e+06
62.0072
540207
9.68434e+06
76.3665
596770
9.6293e+06
94.8977
654960
9.56926e+06
115.694
714290
9.50511e+06
142.523
773710
9.43797e+06
167.316
832354
9.37009e+06
198.04
888948
9.30467e+06
155.191
943866
9.24619e+06
159.05
998905
9.19751e+06
-231.572
1.06482e+06
9.15724e+06
390.935
1.1532e+06
9.10707e+06
8148.14
1.28988e+06
9.00559e+06
16266.8
1.51131e+06
8.84597e+06
11907.8
1.75623e+06
8.631e+06
580.228
1.99727e+06
8.39363e+06
-4217.61
2.21159e+06
8.13598e+06
1801.12
2.3727e+06
7.83652e+06
9920.57
2.48135e+06
7.43908e+06
8359.58
2.5129e+06
6.94062e+06
3803.77
2.45876e+06
6.44176e+06
6500.85
2.29565e+06
6.02124e+06
-4392.64
2.14453e+06
5.88162e+06
12019.9
2.07104e+06
5.79415e+06
20876.8
2.03848e+06
5.61812e+06
28168.4
1.87286e+06
5.34661e+06
21891.6
1.54993e+06
5.08664e+06
2084.77
1.15469e+06
4.9078e+06
-31089.5
741261
4.83158e+06
-70159.2
344377
4.85548e+06
-102300
1492.99
4.96202e+06
-123668
-273746
5.12263e+06
-140189
-487882
5.30998e+06
-152286
-656576
5.50506e+06
-158965
-786851
5.69483e+06
-160868
-881828
5.87163e+06
-160859
-946776
6.03281e+06
-161283
-987971
6.17958e+06
-163826
-1.0116e+06
6.30915e+06
-166709
-1.01918e+06
6.42945e+06
-176358
-1.02202e+06
6.52017e+06
-174962
-1.00739e+06
-201861
-1.01547e+06
9.99922e+06
18282.8
9.99539e+06
54439.4
9.98882e+06
91246.9
9.97941e+06
128767
9.96704e+06
167082
9.95152e+06
207105
9.93267e+06
248283
9.91023e+06
291467
9.88393e+06
336714
9.85348e+06
384019
9.81855e+06
433532
9.77895e+06
485733
9.73432e+06
540197
9.68435e+06
596757
9.62931e+06
654945
9.56926e+06
714271
9.50512e+06
773685
9.43798e+06
832313
9.37005e+06
888924
9.30455e+06
943789
9.24565e+06
999460
9.19615e+06
1.06365e+06
9.15824e+06
1.15214e+06
9.12332e+06
1.28603e+06
9.05744e+06
1.49985e+06
8.91031e+06
1.76618e+06
8.69462e+06
2.03916e+06
8.42799e+06
2.25732e+06
8.12338e+06
2.39787e+06
7.79067e+06
2.47536e+06
7.41388e+06
2.49838e+06
6.96654e+06
2.45328e+06
6.49029e+06
2.36249e+06
6.05434e+06
2.25888e+06
5.78512e+06
2.16068e+06
5.69382e+06
2.04006e+06
5.67349e+06
1.83405e+06
5.65059e+06
1.54431e+06
5.63051e+06
1.21989e+06
5.62183e+06
888384
5.62621e+06
568768
5.65055e+06
284316
5.69743e+06
45097.6
5.76128e+06
-154477
5.83755e+06
-321953
5.92095e+06
-458736
6.00554e+06
-566668
6.08584e+06
-649879
6.15873e+06
-714107
6.22478e+06
-769888
6.28763e+06
-817868
6.36344e+06
-893187
6.44239e+06
-911963
-1.14646e+06
9.99929e+06
11.0751
19491.1
9.99591e+06
29.9645
58034.4
9.99008e+06
39.3502
97294.5
9.9817e+06
41.7544
137365
9.97064e+06
43.0329
178361
9.95673e+06
43.7525
221238
9.93955e+06
42.7921
265696
9.91922e+06
41.6894
312034
9.89544e+06
41.9386
360719
9.86745e+06
43.3314
412235
9.83487e+06
45.7399
466351
9.79767e+06
50.5217
523194
9.75516e+06
59.2112
583038
9.70723e+06
72.6158
645100
9.65321e+06
89.3254
709487
9.59344e+06
107.806
774658
9.52832e+06
128.138
839509
9.45965e+06
145.812
901783
9.39063e+06
172.053
958832
9.32749e+06
161.181
1.00802e+06
9.27942e+06
214.326
1.04813e+06
9.25805e+06
325.128
1.08699e+06
9.26614e+06
1330.63
1.14512e+06
9.30394e+06
3545.89
1.25094e+06
9.28401e+06
10414.1
1.52243e+06
9.12934e+06
10808.3
1.90194e+06
8.8762e+06
2327.87
2.24924e+06
8.59115e+06
-2471.8
2.50096e+06
8.29911e+06
-1689.77
2.66882e+06
7.99616e+06
707.842
2.78615e+06
7.65211e+06
-662.874
2.86057e+06
7.23973e+06
-4265.99
2.87875e+06
6.74196e+06
-12742.5
2.8084e+06
6.22701e+06
-17813.5
2.67764e+06
5.81853e+06
-15812
2.4938e+06
5.58801e+06
-6813.43
2.27252e+06
5.46605e+06
2580.48
1.98737e+06
5.38003e+06
2856.38
1.62778e+06
5.32364e+06
-8833.18
1.21473e+06
5.31286e+06
-31972.7
779707
5.35049e+06
-60003.1
363527
5.42734e+06
-85382.4
6883.88
5.52892e+06
-104657
-274587
5.64399e+06
-117871
-490226
5.76218e+06
-125142
-655055
5.8755e+06
-129104
-775528
5.97953e+06
-131951
-856185
6.07423e+06
-136432
-904205
6.16243e+06
-144037
-927936
6.25126e+06
-155871
-937018
6.34348e+06
-166502
-936035
6.4559e+06
-184489
-941623
6.55113e+06
-168809
-926209
-209789
-972141
9.9993e+06
19489.4
9.99591e+06
58029.5
9.99007e+06
97289.2
9.98169e+06
137359
9.97063e+06
178354
9.95672e+06
221231
9.93954e+06
265689
9.9192e+06
312026
9.89542e+06
360711
9.86743e+06
412227
9.83485e+06
466343
9.79767e+06
523185
9.75516e+06
583026
9.70724e+06
645085
9.65322e+06
709468
9.59344e+06
774634
9.52832e+06
839482
9.45964e+06
901746
9.39062e+06
958818
9.32743e+06
1.00796e+06
9.27924e+06
1.04882e+06
9.25823e+06
1.08615e+06
9.27225e+06
1.14044e+06
9.312e+06
1.25078e+06
9.29967e+06
1.52403e+06
9.15745e+06
1.91945e+06
8.92558e+06
2.2742e+06
8.65501e+06
2.52656e+06
8.35857e+06
2.69395e+06
8.0293e+06
2.80697e+06
7.65753e+06
2.87151e+06
7.2285e+06
2.88014e+06
6.74878e+06
2.83055e+06
6.26224e+06
2.72746e+06
5.83681e+06
2.56893e+06
5.52724e+06
2.34057e+06
5.33332e+06
2.02817e+06
5.23313e+06
1.64489e+06
5.21452e+06
1.22768e+06
5.26274e+06
806864
5.34932e+06
420961
5.45027e+06
95842.8
5.55195e+06
-164719
5.64731e+06
-372106
5.73067e+06
-534933
5.79775e+06
-658321
5.85325e+06
-755250
5.91269e+06
-844278
6.00028e+06
-942102
6.14222e+06
-1.0625e+06
6.3709e+06
-1.20705e+06
6.69618e+06
-1.39661e+06
7.15917e+06
-1.53965e+06
-1.93415e+06
9.99939e+06
9.37332
20521.9
9.9965e+06
25.3537
61117
9.99149e+06
33.8626
102491
9.98428e+06
36.1725
144772
9.97451e+06
37.2739
188316
9.96261e+06
37.7483
233334
9.94775e+06
36.5811
280754
9.92984e+06
35.2653
330144
9.90833e+06
35.294
382432
9.8832e+06
36.3701
437552
9.85377e+06
38.4282
495977
9.81931e+06
42.2348
557879
9.77949e+06
49.5152
623129
9.73326e+06
60.3749
691679
9.68032e+06
74.1082
762853
9.61999e+06
89.5376
835485
9.55214e+06
103.018
907917
9.47798e+06
123.179
976564
9.40111e+06
131.324
1.03641e+06
9.33019e+06
223.679
1.07975e+06
9.2817e+06
332.804
1.09737e+06
9.27833e+06
1768.43
1.09054e+06
9.36178e+06
3912.49
1.05954e+06
9.55786e+06
5376.71
1.05102e+06
9.61913e+06
11881.9
1.45169e+06
9.4418e+06
10116.6
2.06774e+06
9.13516e+06
1538.8
2.55309e+06
8.78945e+06