/*--------------------------------*- C++ -*----------------------------------*\
| =========                 |                                                 |
| \\      /  F ield         | OpenFOAM: The Open Source CFD Toolbox           |
|  \\    /   O peration     | Version:  4.1                                   |
|   \\  /    A nd           | Web:      www.OpenFOAM.org                      |
|    \\/     M anipulation  |                                                 |
\*---------------------------------------------------------------------------*/
FoamFile
{
    version     2.0;
    format      ascii;
    class       volScalarField;
    location    "46";
    object      p;
}
// * * * * * * * * * * * * * * * * * * * * * * * * * * * * * * * * * * * * * //

dimensions      [0 2 -2 0 0 0 0];

internalField   nonuniform List<scalar> 
4432
(
-3.72589e+10
-3.97265e+10
-4.03143e+10
-3.69663e+10
-3.64995e+10
-3.71223e+10
-3.67624e+10
-3.6475e+10
-3.62894e+10
-3.61813e+10
-3.60687e+10
-3.59259e+10
-3.57566e+10
-3.55815e+10
-3.54332e+10
-3.53054e+10
-3.51581e+10
-3.49903e+10
-3.48093e+10
-3.46191e+10
-3.44154e+10
-3.42001e+10
-3.39748e+10
-3.37425e+10
-3.35068e+10
-3.32716e+10
-3.30408e+10
-3.28183e+10
-3.26076e+10
-3.2412e+10
-3.22346e+10
-3.20795e+10
-3.19506e+10
-3.18499e+10
-3.17774e+10
-3.17305e+10
-3.17013e+10
-3.16764e+10
-3.16361e+10
-3.15581e+10
-3.14207e+10
-3.12096e+10
-3.09256e+10
-3.05968e+10
-3.02901e+10
-3.0097e+10
-3.00639e+10
-3.00929e+10
-3.00047e+10
-3.01244e+10
-3.22228e+10
-3.81272e+10
-4.22503e+10
-2.16976e+10
-3.78084e+10
-3.86508e+10
-3.89202e+10
-3.79347e+10
-3.66286e+10
-3.69025e+10
-3.67448e+10
-3.64446e+10
-3.62658e+10
-3.61869e+10
-3.60857e+10
-3.59327e+10
-3.57519e+10
-3.55785e+10
-3.54361e+10
-3.53091e+10
-3.51583e+10
-3.49879e+10
-3.48082e+10
-3.46179e+10
-3.44134e+10
-3.41973e+10
-3.3971e+10
-3.37377e+10
-3.35008e+10
-3.32646e+10
-3.30328e+10
-3.28095e+10
-3.25981e+10
-3.24019e+10
-3.2224e+10
-3.20682e+10
-3.19379e+10
-3.18357e+10
-3.17619e+10
-3.17134e+10
-3.16818e+10
-3.16535e+10
-3.1609e+10
-3.15253e+10
-3.13809e+10
-3.11613e+10
-3.08673e+10
-3.05264e+10
-3.02037e+10
-2.99864e+10
-2.99113e+10
-2.98587e+10
-2.96088e+10
-2.94446e+10
-3.12301e+10
-3.75345e+10
-4.37492e+10
-2.68916e+10
-3.79732e+10
-3.80025e+10
-3.79498e+10
-3.80839e+10
-3.68291e+10
-3.66004e+10
-3.67012e+10
-3.64493e+10
-3.62638e+10
-3.61867e+10
-3.60846e+10
-3.59605e+10
-3.58011e+10
-3.56161e+10
-3.54501e+10
-3.53238e+10
-3.51929e+10
-3.50311e+10
-3.48525e+10
-3.46596e+10
-3.44528e+10
-3.42325e+10
-3.40009e+10
-3.37614e+10
-3.3518e+10
-3.32755e+10
-3.30379e+10
-3.28096e+10
-3.25941e+10
-3.23947e+10
-3.22143e+10
-3.20567e+10
-3.19261e+10
-3.18232e+10
-3.17446e+10
-3.16882e+10
-3.16468e+10
-3.16072e+10
-3.15506e+10
-3.14543e+10
-3.12962e+10
-3.10616e+10
-3.07507e+10
-3.03892e+10
-3.00385e+10
-2.97835e+10
-2.9644e+10
-2.9463e+10
-2.90317e+10
-2.88513e+10
-3.11432e+10
-3.79573e+10
-4.26038e+10
-2.58544e+10
-3.80203e+10
-3.8301e+10
-3.82151e+10
-3.76703e+10
-3.67953e+10
-3.6623e+10
-3.67039e+10
-3.64197e+10
-3.62617e+10
-3.61848e+10
-3.6092e+10
-3.59641e+10
-3.57958e+10
-3.56069e+10
-3.54469e+10
-3.53298e+10
-3.51961e+10
-3.50273e+10
-3.48492e+10
-3.4656e+10
-3.44484e+10
-3.42269e+10
-3.39938e+10
-3.37525e+10
-3.35073e+10
-3.32628e+10
-3.30231e+10
-3.27928e+10
-3.25755e+10
-3.23747e+10
-3.21931e+10
-3.20336e+10
-3.18992e+10
-3.17915e+10
-3.171e+10
-3.16506e+10
-3.16053e+10
-3.15613e+10
-3.15003e+10
-3.14001e+10
-3.1239e+10
-3.10028e+10
-3.06927e+10
-3.03342e+10
-2.99881e+10
-2.97334e+10
-2.95857e+10
-2.93819e+10
-2.88991e+10
-2.87048e+10
-3.1466e+10
-3.9653e+10
-4.36974e+10
-2.14063e+10
-3.87761e+10
-3.81926e+10
-3.72176e+10
-3.78458e+10
-3.70358e+10
-3.6509e+10
-3.63667e+10
-3.625e+10
-3.61752e+10
-3.61238e+10
-3.60409e+10
-3.59413e+10
-3.57935e+10
-3.56097e+10
-3.54458e+10
-3.53165e+10
-3.51833e+10
-3.50249e+10
-3.48514e+10
-3.46597e+10
-3.44507e+10
-3.4225e+10
-3.3985e+10
-3.37345e+10
-3.34783e+10
-3.32218e+10
-3.29701e+10
-3.27287e+10
-3.25023e+10
-3.22951e+10
-3.2109e+10
-3.19438e+10
-3.18016e+10
-3.16879e+10
-3.16019e+10
-3.15362e+10
-3.14834e+10
-3.143e+10
-3.13583e+10
-3.12465e+10
-3.10749e+10
-3.08339e+10
-3.05312e+10
-3.02001e+10
-2.99068e+10
-2.97303e+10
-2.96721e+10
-2.95413e+10
-2.90804e+10
-2.87749e+10
-3.08875e+10
-3.75362e+10
-4.21778e+10
-2.202e+10
-3.83397e+10
-3.83863e+10
-3.7862e+10
-3.71615e+10
-3.691e+10
-3.66571e+10
-3.64488e+10
-3.62492e+10
-3.61897e+10
-3.61275e+10
-3.60407e+10
-3.5932e+10
-3.57835e+10
-3.56042e+10
-3.54445e+10
-3.53252e+10
-3.51909e+10
-3.50301e+10
-3.48575e+10
-3.46675e+10
-3.44602e+10
-3.42359e+10
-3.39972e+10
-3.37477e+10
-3.34925e+10
-3.32368e+10
-3.29857e+10
-3.27444e+10
-3.25179e+10
-3.23103e+10
-3.21236e+10
-3.19589e+10
-3.18181e+10
-3.17033e+10
-3.16141e+10
-3.15465e+10
-3.14915e+10
-3.14361e+10
-3.13628e+10
-3.12496e+10
-3.10758e+10
-3.08308e+10
-3.05204e+10
-3.0174e+10
-2.98513e+10
-2.96207e+10
-2.94709e+10
-2.91904e+10
-2.85024e+10
-2.79395e+10
-2.99963e+10
-3.7203e+10
-4.36807e+10
-2.67458e+10
-3.78965e+10
-3.79712e+10
-3.75509e+10
-3.71587e+10
-3.70448e+10
-3.67301e+10
-3.646e+10
-3.62699e+10
-3.61834e+10
-3.61213e+10
-3.60422e+10
-3.5954e+10
-3.58272e+10
-3.56724e+10
-3.55308e+10
-3.54082e+10
-3.52731e+10
-3.51169e+10
-3.49453e+10
-3.47539e+10
-3.45413e+10
-3.4307e+10
-3.4054e+10
-3.37874e+10
-3.35139e+10
-3.32408e+10
-3.29752e+10
-3.2724e+10
-3.24935e+10
-3.22882e+10
-3.2108e+10
-3.19476e+10
-3.18063e+10
-3.17009e+10
-3.16343e+10
-3.15782e+10
-3.15286e+10
-3.14762e+10
-3.13995e+10
-3.12768e+10
-3.10889e+10
-3.08294e+10
-3.05099e+10
-3.01671e+10
-2.98694e+10
-2.96909e+10
-2.96254e+10
-2.94775e+10
-2.89622e+10
-2.84667e+10
-3.01425e+10
-3.6513e+10
-4.19176e+10
-2.25078e+10
-3.78792e+10
-3.77067e+10
-3.72698e+10
-3.68828e+10
-3.70513e+10
-3.69047e+10
-3.65235e+10
-3.62703e+10
-3.61886e+10
-3.61162e+10
-3.60384e+10
-3.59461e+10
-3.58208e+10
-3.56746e+10
-3.5542e+10
-3.54241e+10
-3.52879e+10
-3.51324e+10
-3.49622e+10
-3.47725e+10
-3.45609e+10
-3.43274e+10
-3.40746e+10
-3.3808e+10
-3.35342e+10
-3.32604e+10
-3.29939e+10
-3.27409e+10
-3.25076e+10
-3.22982e+10
-3.21143e+10
-3.19555e+10
-3.18223e+10
-3.1717e+10
-3.16381e+10
-3.15815e+10
-3.15346e+10
-3.14814e+10
-3.14052e+10
-3.12834e+10
-3.10957e+10
-3.0834e+10
-3.05081e+10
-3.0151e+10
-2.9824e+10
-2.95939e+10
-2.94448e+10
-2.91647e+10
-2.84756e+10
-2.79502e+10
-3.02995e+10
-3.82066e+10
-4.35931e+10
-2.31572e+10
-3.71842e+10
-3.71663e+10
-3.70929e+10
-3.67612e+10
-3.67888e+10
-3.66318e+10
-3.64131e+10
-3.62351e+10
-3.6153e+10
-3.61092e+10
-3.60392e+10
-3.5932e+10
-3.58115e+10
-3.56834e+10
-3.55683e+10
-3.54547e+10
-3.53247e+10
-3.51758e+10
-3.50082e+10
-3.48177e+10
-3.46005e+10
-3.4355e+10
-3.40841e+10
-3.37944e+10
-3.34958e+10
-3.31986e+10
-3.29124e+10
-3.26454e+10
-3.24039e+10
-3.21912e+10
-3.20068e+10
-3.18471e+10
-3.17126e+10
-3.16119e+10
-3.15452e+10
-3.14967e+10
-3.14543e+10
-3.14038e+10
-3.13236e+10
-3.11913e+10
-3.09886e+10
-3.07084e+10
-3.0362e+10
-2.99868e+10
-2.96486e+10
-2.94165e+10
-2.92805e+10
-2.90389e+10
-2.83668e+10
-2.75078e+10
-2.84535e+10
-3.42799e+10
-4.18232e+10
-2.55131e+10
-3.73066e+10
-3.70656e+10
-3.67801e+10
-3.66196e+10
-3.68306e+10
-3.67279e+10
-3.64673e+10
-3.62619e+10
-3.61502e+10
-3.60856e+10
-3.60215e+10
-3.59297e+10
-3.58145e+10
-3.56925e+10
-3.55821e+10
-3.54712e+10
-3.53415e+10
-3.51933e+10
-3.50265e+10
-3.48365e+10
-3.46191e+10
-3.43729e+10
-3.41005e+10
-3.38089e+10
-3.35078e+10
-3.32077e+10
-3.29181e+10
-3.26466e+10
-3.23988e+10
-3.21788e+10
-3.1989e+10
-3.18289e+10
-3.1697e+10
-3.1595e+10
-3.15221e+10
-3.14714e+10
-3.14308e+10
-3.13833e+10
-3.13083e+10
-3.11834e+10
-3.09903e+10
-3.07214e+10
-3.03875e+10
-3.00262e+10
-2.97029e+10
-2.94873e+10
-2.93716e+10
-2.91533e+10
-2.85354e+10
-2.79829e+10
-3.00839e+10
-3.77811e+10
-4.35192e+10
-2.25307e+10
-3.69263e+10
-3.67952e+10
-3.66952e+10
-3.65884e+10
-3.66156e+10
-3.65352e+10
-3.63756e+10
-3.62175e+10
-3.61232e+10
-3.60918e+10
-3.60574e+10
-3.5961e+10
-3.58497e+10
-3.57465e+10
-3.56512e+10
-3.55487e+10
-3.54303e+10
-3.52933e+10
-3.51359e+10
-3.49526e+10
-3.47367e+10
-3.44845e+10
-3.41972e+10
-3.38845e+10
-3.35611e+10
-3.32422e+10
-3.29401e+10
-3.26624e+10
-3.24139e+10
-3.21968e+10
-3.2011e+10
-3.18565e+10
-3.17349e+10
-3.16463e+10
-3.1585e+10
-3.15443e+10
-3.15132e+10
-3.14746e+10
-3.14073e+10
-3.12898e+10
-3.1105e+10
-3.08466e+10
-3.05268e+10
-3.01844e+10
-2.98863e+10
-2.97042e+10
-2.964e+10
-2.95109e+10
-2.89991e+10
-2.83207e+10
-2.94539e+10
-3.54038e+10
-4.21029e+10
-2.37171e+10
-3.69561e+10
-3.68131e+10
-3.66601e+10
-3.65501e+10
-3.66402e+10
-3.65414e+10
-3.63753e+10
-3.62437e+10
-3.61493e+10
-3.60954e+10
-3.60395e+10
-3.59518e+10
-3.58483e+10
-3.57488e+10
-3.56548e+10
-3.55531e+10
-3.5435e+10
-3.52993e+10
-3.51435e+10
-3.49621e+10
-3.47486e+10
-3.44986e+10
-3.42138e+10
-3.39034e+10
-3.35814e+10
-3.32624e+10
-3.29587e+10
-3.26786e+10
-3.24268e+10
-3.22054e+10
-3.20159e+10
-3.18585e+10
-3.17327e+10
-3.16384e+10
-3.1573e+10
-3.15294e+10
-3.14965e+10
-3.14577e+10
-3.13915e+10
-3.12766e+10
-3.10961e+10
-3.08434e+10
-3.05312e+10
-3.01993e+10
-2.99166e+10
-2.97581e+10
-2.97299e+10
-2.96536e+10
-2.92359e+10
-2.88221e+10
-3.07024e+10
-3.76849e+10
-4.34702e+10
-2.31834e+10
-3.65502e+10
-3.64691e+10
-3.6415e+10
-3.64387e+10
-3.64473e+10
-3.64018e+10
-3.62918e+10
-3.61651e+10
-3.60879e+10
-3.60661e+10
-3.60244e+10
-3.59454e+10
-3.58622e+10
-3.57854e+10
-3.57071e+10
-3.56184e+10
-3.55133e+10
-3.53885e+10
-3.52417e+10
-3.5066e+10
-3.48516e+10
-3.45883e+10
-3.42747e+10
-3.3926e+10
-3.35645e+10
-3.32137e+10
-3.28891e+10
-3.25998e+10
-3.2348e+10
-3.21321e+10
-3.19499e+10
-3.1802e+10
-3.16894e+10
-3.16093e+10
-3.15551e+10
-3.15204e+10
-3.14955e+10
-3.1465e+10
-3.14097e+10
-3.13096e+10
-3.11486e+10
-3.09219e+10
-3.06433e+10
-3.03535e+10
-3.01203e+10
-3.00201e+10
-3.0069e+10
-3.01121e+10
-2.98744e+10
-2.96599e+10
-3.16191e+10
-3.84125e+10
-4.39715e+10
-2.33948e+10
-3.65146e+10
-3.64661e+10
-3.65158e+10
-3.64792e+10
-3.64313e+10
-3.63393e+10
-3.62538e+10
-3.61733e+10
-3.61123e+10
-3.60667e+10
-3.60098e+10
-3.5936e+10
-3.58577e+10
-3.57828e+10
-3.57057e+10
-3.56174e+10
-3.55129e+10
-3.53895e+10
-3.5244e+10
-3.507e+10
-3.48573e+10
-3.45958e+10
-3.42853e+10
-3.39393e+10
-3.35809e+10
-3.3232e+10
-3.2909e+10
-3.26212e+10
-3.23715e+10
-3.21587e+10
-3.19807e+10
-3.18363e+10
-3.17257e+10
-3.16467e+10
-3.15947e+10
-3.15626e+10
-3.15401e+10
-3.15114e+10
-3.1457e+10
-3.13564e+10
-3.11932e+10
-3.09619e+10
-3.06753e+10
-3.0373e+10
-3.01221e+10
-2.99976e+10
-3.00121e+10
-3.00042e+10
-2.96891e+10
-2.93388e+10
-3.10568e+10
-3.79512e+10
-4.52059e+10
-2.78981e+10
-3.62941e+10
-3.62339e+10
-3.62618e+10
-3.63576e+10
-3.6378e+10
-3.62997e+10
-3.6187e+10
-3.60883e+10
-3.60535e+10
-3.60546e+10
-3.6014e+10
-3.59519e+10
-3.58942e+10
-3.58406e+10
-3.57834e+10
-3.57147e+10
-3.56283e+10
-3.55208e+10
-3.53892e+10
-3.52282e+10
-3.50229e+10
-3.47526e+10
-3.44106e+10
-3.40149e+10
-3.36039e+10
-3.32111e+10
-3.28586e+10
-3.25556e+10
-3.23016e+10
-3.20905e+10
-3.19171e+10
-3.17795e+10
-3.16736e+10
-3.15959e+10
-3.15421e+10
-3.15061e+10
-3.14773e+10
-3.14402e+10
-3.13762e+10
-3.1266e+10
-3.10943e+10
-3.08568e+10
-3.05671e+10
-3.02643e+10
-3.00137e+10
-2.98875e+10
-2.98977e+10
-2.9887e+10
-2.95746e+10
-2.92446e+10
-3.10773e+10
-3.82874e+10
-4.58371e+10
-2.7624e+10
-3.62378e+10
-3.61958e+10
-3.63338e+10
-3.64263e+10
-3.63615e+10
-3.62401e+10
-3.61717e+10
-3.61113e+10
-3.60737e+10
-3.60507e+10
-3.60092e+10
-3.59556e+10
-3.59024e+10
-3.58512e+10
-3.57952e+10
-3.57275e+10
-3.56422e+10
-3.55353e+10
-3.5404e+10
-3.52422e+10
-3.50352e+10
-3.47635e+10
-3.44193e+10
-3.40226e+10
-3.36107e+10
-3.32178e+10
-3.28657e+10
-3.25634e+10
-3.23113e+10
-3.21044e+10
-3.19358e+10
-3.18013e+10
-3.16983e+10
-3.16236e+10
-3.15729e+10
-3.15402e+10
-3.15146e+10
-3.14806e+10
-3.14193e+10
-3.13112e+10
-3.11407e+10
-3.0903e+10
-3.06111e+10
-3.03025e+10
-3.00401e+10
-2.98925e+10
-2.98658e+10
-2.97927e+10
-2.93683e+10
-2.87806e+10
-3.00339e+10
-3.68732e+10
-4.66105e+10
-3.29083e+10
-3.61635e+10
-3.60813e+10
-3.61098e+10
-3.61936e+10
-3.62449e+10
-3.61715e+10
-3.60732e+10
-3.60222e+10
-3.60216e+10
-3.60206e+10
-3.5995e+10
-3.5964e+10
-3.5937e+10
-3.59116e+10
-3.58813e+10
-3.58379e+10
-3.57732e+10
-3.56826e+10
-3.55646e+10
-3.54168e+10
-3.52206e+10
-3.49387e+10
-3.45438e+10
-3.40616e+10
-3.35624e+10
-3.31041e+10
-3.27153e+10
-3.2402e+10
-3.21564e+10
-3.19654e+10
-3.18168e+10
-3.17044e+10
-3.16225e+10
-3.15661e+10
-3.1531e+10
-3.15103e+10
-3.1493e+10
-3.14639e+10
-3.14044e+10
-3.12958e+10
-3.11239e+10
-3.08855e+10
-3.05957e+10
-3.02943e+10
-3.00457e+10
-2.99177e+10
-2.99115e+10
-2.98526e+10
-2.94311e+10
-2.88666e+10
-3.02155e+10
-3.68389e+10
-4.53123e+10
-3.05077e+10
-3.61361e+10
-3.60542e+10
-3.61238e+10
-3.62314e+10
-3.62205e+10
-3.61404e+10
-3.60964e+10
-3.60602e+10
-3.60322e+10
-3.60137e+10
-3.59904e+10
-3.59645e+10
-3.59388e+10
-3.59135e+10
-3.58825e+10
-3.58384e+10
-3.57733e+10
-3.56821e+10
-3.55633e+10
-3.54135e+10
-3.52153e+10
-3.49319e+10
-3.45366e+10
-3.40554e+10
-3.35557e+10
-3.30958e+10
-3.2704e+10
-3.23869e+10
-3.21385e+10
-3.19472e+10
-3.17992e+10
-3.16872e+10
-3.16059e+10
-3.15512e+10
-3.15192e+10
-3.1503e+10
-3.14916e+10
-3.147e+10
-3.14201e+10
-3.13234e+10
-3.11664e+10
-3.09466e+10
-3.06802e+10
-3.04082e+10
-3.01965e+10
-3.01141e+10
-3.01634e+10
-3.01684e+10
-2.98098e+10
-2.92921e+10
-3.07015e+10
-3.74152e+10
-4.47412e+10
-2.59811e+10
-3.61496e+10
-3.6066e+10
-3.6004e+10
-3.60088e+10
-3.60706e+10
-3.60517e+10
-3.60088e+10
-3.60053e+10
-3.60137e+10
-3.60067e+10
-3.60019e+10
-3.60007e+10
-3.60026e+10
-3.60057e+10
-3.60039e+10
-3.59883e+10
-3.59494e+10
-3.588e+10
-3.57802e+10
-3.56523e+10
-3.54792e+10
-3.51935e+10
-3.47147e+10
-3.40675e+10
-3.33949e+10
-3.2816e+10
-3.23663e+10
-3.20396e+10
-3.18088e+10
-3.16471e+10
-3.15339e+10
-3.1456e+10
-3.14052e+10
-3.13768e+10
-3.13664e+10
-3.1367e+10
-3.13676e+10
-3.1353e+10
-3.13048e+10
-3.12047e+10
-3.10396e+10
-3.08095e+10
-3.05342e+10
-3.02592e+10
-3.00553e+10
-2.9994e+10
-3.00744e+10
-3.01106e+10
-2.97887e+10
-2.93965e+10
-3.11743e+10
-3.80183e+10
-4.38957e+10
-2.40385e+10
-3.6141e+10
-3.60299e+10
-3.59825e+10
-3.60162e+10
-3.60654e+10
-3.60789e+10
-3.60476e+10
-3.60258e+10
-3.6014e+10
-3.60076e+10
-3.60044e+10
-3.60035e+10
-3.60046e+10
-3.60068e+10
-3.60038e+10
-3.59871e+10
-3.59475e+10
-3.58779e+10
-3.57774e+10
-3.5649e+10
-3.54755e+10
-3.51915e+10
-3.47196e+10
-3.40815e+10
-3.34154e+10
-3.28364e+10
-3.23812e+10
-3.20447e+10
-3.18032e+10
-3.16312e+10
-3.15073e+10
-3.14188e+10
-3.13578e+10
-3.13195e+10
-3.13002e+10
-3.12931e+10
-3.1287e+10
-3.12668e+10
-3.12139e+10
-3.11104e+10
-3.09434e+10
-3.07129e+10
-3.04392e+10
-3.01689e+10
-2.99745e+10
-2.99294e+10
-3.00326e+10
-3.00949e+10
-2.97898e+10
-2.93633e+10
-3.09797e+10
-3.7599e+10
-4.35072e+10
-2.33958e+10
-3.60789e+10
-3.60019e+10
-3.58805e+10
-3.58532e+10
-3.58957e+10
-3.59168e+10
-3.59197e+10
-3.59239e+10
-3.5931e+10
-3.59421e+10
-3.59598e+10
-3.59853e+10
-3.60195e+10
-3.60601e+10
-3.61002e+10
-3.61298e+10
-3.61378e+10
-3.61138e+10
-3.60536e+10
-3.59672e+10
-3.58548e+10
-3.56241e+10
-3.50801e+10
-3.41902e+10
-3.32335e+10
-3.24884e+10
-3.19733e+10
-3.164e+10
-3.14297e+10
-3.12972e+10
-3.12128e+10
-3.11587e+10
-3.11255e+10
-3.11092e+10
-3.11059e+10
-3.11093e+10
-3.1108e+10
-3.10861e+10
-3.10242e+10
-3.09029e+10
-3.07084e+10
-3.04403e+10
-3.01193e+10
-2.97928e+10
-2.95326e+10
-2.94084e+10
-2.94085e+10
-2.93298e+10
-2.88588e+10
-2.83113e+10
-2.99225e+10
-3.67924e+10
-4.36666e+10
-2.44281e+10
-3.6032e+10
-3.59334e+10
-3.58566e+10
-3.58551e+10
-3.59215e+10
-3.59451e+10
-3.59222e+10
-3.59228e+10
-3.59315e+10
-3.59428e+10
-3.59604e+10
-3.59861e+10
-3.60198e+10
-3.60594e+10
-3.60981e+10
-3.61266e+10
-3.61338e+10
-3.6109e+10
-3.60481e+10
-3.59616e+10
-3.58492e+10
-3.56176e+10
-3.50743e+10
-3.41904e+10
-3.32379e+10
-3.24902e+10
-3.19686e+10
-3.16287e+10
-3.14132e+10
-3.1276e+10
-3.11865e+10
-3.11262e+10
-3.10858e+10
-3.10608e+10
-3.10476e+10
-3.10395e+10
-3.1025e+10
-3.09876e+10
-3.09075e+10
-3.07644e+10
-3.05436e+10
-3.02436e+10
-2.98837e+10
-2.95101e+10
-2.91936e+10
-2.90031e+10
-2.89255e+10
-2.87522e+10
-2.8155e+10
-2.73969e+10
-2.86174e+10
-3.52181e+10
-4.38492e+10
-3.05188e+10
-3.59588e+10
-3.58874e+10
-3.58284e+10
-3.58249e+10
-3.5844e+10
-3.58677e+10
-3.58893e+10
-3.5908e+10
-3.59287e+10
-3.59562e+10
-3.59949e+10
-3.60496e+10
-3.61217e+10
-3.62072e+10
-3.62956e+10
-3.63734e+10
-3.64279e+10
-3.64455e+10
-3.64158e+10
-3.63559e+10
-3.63113e+10
-3.6208e+10
-3.56667e+10
-3.43831e+10
-3.29141e+10
-3.19816e+10
-3.14791e+10
-3.12133e+10
-3.10912e+10
-3.10389e+10
-3.10192e+10
-3.1014e+10
-3.10181e+10
-3.10313e+10
-3.10529e+10
-3.10785e+10
-3.10981e+10
-3.10961e+10
-3.1053e+10
-3.09484e+10
-3.0767e+10
-3.05057e+10
-3.01817e+10
-2.98372e+10
-2.95369e+10
-2.9341e+10
-2.92251e+10
-2.89798e+10
-2.8325e+10
-2.76536e+10
-2.91518e+10
-3.56629e+10
-4.2937e+10
-2.83043e+10
-3.58951e+10
-3.58514e+10
-3.58409e+10
-3.58541e+10
-3.58746e+10
-3.58761e+10
-3.58859e+10
-3.59045e+10
-3.59264e+10
-3.59536e+10
-3.59911e+10
-3.6044e+10
-3.61138e+10
-3.61964e+10
-3.62818e+10
-3.63568e+10
-3.64084e+10
-3.64232e+10
-3.63921e+10
-3.63334e+10
-3.6291e+10
-3.61894e+10
-3.56683e+10
-3.44281e+10
-3.30068e+10
-3.20725e+10
-3.15459e+10
-3.12591e+10
-3.11212e+10
-3.10584e+10
-3.10315e+10
-3.10211e+10
-3.10212e+10
-3.10308e+10
-3.10488e+10
-3.10705e+10
-3.10856e+10
-3.10786e+10
-3.103e+10
-3.09196e+10
-3.0732e+10
-3.04644e+10
-3.01339e+10
-2.97828e+10
-2.94759e+10
-2.92725e+10
-2.91459e+10
-2.88804e+10
-2.81761e+10
-2.73781e+10
-2.86269e+10
-3.50578e+10
-4.32806e+10
-3.03006e+10
-3.57174e+10
-3.56321e+10
-3.56634e+10
-3.56813e+10
-3.56852e+10
-3.56902e+10
-3.57074e+10
-3.57317e+10
-3.57626e+10
-3.58045e+10
-3.58649e+10
-3.59535e+10
-3.60758e+10
-3.6226e+10
-3.63834e+10
-3.65214e+10
-3.66278e+10
-3.67007e+10
-3.67352e+10
-3.67305e+10
-3.67743e+10
-3.69578e+10
-3.67394e+10
-3.49425e+10
-3.24412e+10
-3.11442e+10
-3.06672e+10
-3.05327e+10
-3.0576e+10
-3.06569e+10
-3.07311e+10
-3.07884e+10
-3.08343e+10
-3.08766e+10
-3.09204e+10
-3.09659e+10
-3.10065e+10
-3.10297e+10
-3.10186e+10
-3.09554e+10
-3.08264e+10
-3.06292e+10
-3.03788e+10
-3.01142e+10
-2.98954e+10
-2.97752e+10
-2.97246e+10
-2.95418e+10
-2.89944e+10
-2.86279e+10
-3.08626e+10
-3.80293e+10
-4.27297e+10
-2.17309e+10
-3.56748e+10
-3.56534e+10
-3.5692e+10
-3.57116e+10
-3.57054e+10
-3.57e+10
-3.5712e+10
-3.57327e+10
-3.57612e+10
-3.58002e+10
-3.58566e+10
-3.59394e+10
-3.6054e+10
-3.61952e+10
-3.63443e+10
-3.64786e+10
-3.6586e+10
-3.666e+10
-3.66874e+10
-3.66745e+10
-3.67245e+10
-3.69256e+10
-3.67364e+10
-3.50113e+10
-3.25732e+10
-3.12662e+10
-3.07654e+10
-3.06153e+10
-3.06429e+10
-3.07116e+10
-3.07787e+10
-3.08329e+10
-3.08785e+10
-3.09224e+10
-3.09693e+10
-3.10191e+10
-3.10653e+10
-3.10951e+10
-3.10918e+10
-3.10376e+10
-3.09193e+10
-3.07347e+10
-3.05e+10
-3.02545e+10
-3.00582e+10
-2.99637e+10
-2.9937e+10
-2.97621e+10
-2.91799e+10
-2.87015e+10
-3.07816e+10
-3.78188e+10
-4.25387e+10
-2.12672e+10
-3.55614e+10
-3.55094e+10
-3.55637e+10
-3.55818e+10
-3.55953e+10
-3.561e+10
-3.56377e+10
-3.5679e+10
-3.57369e+10
-3.5816e+10
-3.59267e+10
-3.60838e+10
-3.62985e+10
-3.65635e+10
-3.68312e+10
-3.70435e+10
-3.72115e+10
-3.73832e+10
-3.75579e+10
-3.76394e+10
-3.76935e+10
-3.81772e+10
-3.89615e+10
-3.73358e+10
-3.32532e+10
-2.99219e+10
-2.96904e+10
-2.9955e+10
-3.02529e+10
-3.0472e+10
-3.06216e+10
-3.0721e+10
-3.07915e+10
-3.08483e+10
-3.09005e+10
-3.09499e+10
-3.09916e+10
-3.10141e+10
-3.10018e+10
-3.09387e+10
-3.08129e+10
-3.06231e+10
-3.03863e+10
-3.01419e+10
-2.99499e+10
-2.98647e+10
-2.98628e+10
-2.97548e+10
-2.93241e+10
-2.90835e+10
-3.12129e+10
-3.78875e+10
-4.334e+10
-2.38001e+10
-3.55303e+10
-3.55159e+10
-3.55666e+10
-3.55831e+10
-3.55932e+10
-3.56082e+10
-3.56356e+10
-3.56769e+10
-3.57351e+10
-3.58148e+10
-3.59253e+10
-3.60804e+10
-3.62897e+10
-3.65432e+10
-3.6803e+10
-3.70285e+10
-3.72194e+10
-3.73911e+10
-3.7524e+10
-3.75776e+10
-3.77026e+10
-3.83262e+10
-3.91759e+10
-3.75871e+10
-3.34935e+10
-2.98342e+10
-2.96496e+10
-2.99442e+10
-3.02571e+10
-3.04818e+10
-3.06331e+10
-3.07337e+10
-3.08054e+10
-3.08634e+10
-3.09167e+10
-3.09674e+10
-3.10103e+10
-3.1034e+10
-3.10229e+10
-3.09604e+10
-3.08341e+10
-3.06426e+10
-3.0402e+10
-3.01507e+10
-2.99463e+10
-2.98389e+10
-2.97936e+10
-2.95961e+10
-2.89856e+10
-2.84473e+10
-3.02809e+10
-3.70705e+10
-4.45559e+10
-3.17077e+10
-3.5522e+10
-3.55385e+10
-3.55521e+10
-3.55589e+10
-3.55659e+10
-3.55813e+10
-3.56092e+10
-3.56534e+10
-3.57165e+10
-3.58021e+10
-3.59204e+10
-3.60908e+10
-3.63287e+10
-3.66226e+10
-3.68983e+10
-3.7106e+10
-3.73099e+10
-3.75233e+10
-3.77175e+10
-3.78396e+10
-3.79348e+10
-3.85792e+10
-3.97922e+10
-4.05365e+10
-3.82044e+10
-2.56836e+10
-2.78377e+10
-2.91754e+10
-2.99173e+10
-3.03217e+10
-3.05643e+10
-3.07153e+10
-3.08184e+10
-3.0897e+10
-3.09639e+10
-3.10222e+10
-3.10669e+10
-3.10863e+10
-3.1064e+10
-3.09831e+10
-3.0831e+10
-3.06068e+10
-3.03275e+10
-3.00329e+10
-2.97837e+10
-2.96364e+10
-2.95732e+10
-2.94132e+10
-2.89262e+10
-2.85526e+10
-3.04413e+10
-3.71243e+10
-4.29381e+10
-2.43092e+10
-3.55199e+10
-3.55439e+10
-3.5551e+10
-3.55519e+10
-3.55534e+10
-3.55654e+10
-3.55915e+10
-3.56351e+10
-3.5698e+10
-3.57843e+10
-3.59044e+10
-3.60752e+10
-3.63078e+10
-3.65875e+10
-3.68648e+10
-3.70963e+10
-3.72961e+10
-3.74843e+10
-3.76491e+10
-3.77439e+10
-3.79103e+10
-3.87844e+10
-3.99451e+10
-4.07508e+10
-3.85948e+10
-2.57705e+10
-2.77967e+10
-2.91337e+10
-2.98874e+10
-3.02997e+10
-3.05446e+10
-3.06944e+10
-3.07946e+10
-3.087e+10
-3.09341e+10
-3.09906e+10
-3.10349e+10
-3.10556e+10
-3.10366e+10
-3.09609e+10
-3.08164e+10
-3.06017e+10
-3.03338e+10
-3.00516e+10
-2.9814e+10
-2.96741e+10
-2.96056e+10
-2.94055e+10
-2.88266e+10
-2.84648e+10
-3.10781e+10
-3.93463e+10
-4.43421e+10
-2.27787e+10
-3.55057e+10
-3.55595e+10
-3.55551e+10
-3.55626e+10
-3.55722e+10
-3.55918e+10
-3.56234e+10
-3.56704e+10
-3.57345e+10
-3.58184e+10
-3.59323e+10
-3.60986e+10
-3.63328e+10
-3.66132e+10
-3.68819e+10
-3.71013e+10
-3.73176e+10
-3.75498e+10
-3.77533e+10
-3.78849e+10
-3.79408e+10
-3.83358e+10
-4.01831e+10
-4.07074e+10
-2.16864e+10
-2.75931e+10
-2.90074e+10
-2.98081e+10
-3.02459e+10
-3.05053e+10
-3.0664e+10
-3.07711e+10
-3.08527e+10
-3.09227e+10
-3.09849e+10
-3.10342e+10
-3.1059e+10
-3.10429e+10
-3.09688e+10
-3.08251e+10
-3.06114e+10
-3.03451e+10
-3.00662e+10
-2.98367e+10
-2.97165e+10
-2.96932e+10
-2.95847e+10
-2.91187e+10
-2.86089e+10
-3.00238e+10
-3.59841e+10
-4.24474e+10
-2.7314e+10
-3.55114e+10
-3.55581e+10
-3.55496e+10
-3.5552e+10
-3.55581e+10
-3.55751e+10
-3.56048e+10
-3.56503e+10
-3.57135e+10
-3.57985e+10
-3.59157e+10
-3.60821e+10
-3.63089e+10
-3.65812e+10
-3.68558e+10
-3.70976e+10
-3.73091e+10
-3.75042e+10
-3.7669e+10
-3.77647e+10
-3.78962e+10
-3.86655e+10
-4.02552e+10
-4.06385e+10
-2.22077e+10
-2.76067e+10
-2.89895e+10
-2.97873e+10
-3.023e+10
-3.0492e+10
-3.06512e+10
-3.07574e+10
-3.08377e+10
-3.09073e+10
-3.09707e+10
-3.1024e+10
-3.1056e+10
-3.10511e+10
-3.0993e+10
-3.08699e+10
-3.06815e+10
-3.04446e+10
-3.01988e+10
-3.00042e+10
-2.99178e+10
-2.99219e+10
-2.98251e+10
-2.93699e+10
-2.90472e+10
-3.13224e+10
-3.86556e+10
-4.36983e+10
-2.23229e+10
-3.55429e+10
-3.55553e+10
-3.5558e+10
-3.55642e+10
-3.55756e+10
-3.55956e+10
-3.56264e+10
-3.56701e+10
-3.57281e+10
-3.58034e+10
-3.59043e+10
-3.60466e+10
-3.62424e+10
-3.64791e+10
-3.67191e+10
-3.69371e+10
-3.71457e+10
-3.73668e+10
-3.75766e+10
-3.76984e+10
-3.7773e+10
-3.8113e+10
-3.90089e+10
-3.9105e+10
-3.30695e+10
-2.9282e+10
-2.92748e+10
-2.97443e+10
-3.01671e+10
-3.04515e+10
-3.0632e+10
-3.0747e+10
-3.0827e+10
-3.08914e+10
-3.09508e+10
-3.10075e+10
-3.10561e+10
-3.10849e+10
-3.10778e+10
-3.10189e+10
-3.08977e+10
-3.07151e+10
-3.04889e+10
-3.02601e+10
-3.00915e+10
-3.00454e+10
-3.01149e+10
-3.01269e+10
-2.98234e+10
-2.95651e+10
-3.15093e+10
-3.81199e+10
-4.30856e+10
-2.23252e+10
-3.55412e+10
-3.55429e+10
-3.5545e+10
-3.5548e+10
-3.55572e+10
-3.55754e+10
-3.56052e+10
-3.56482e+10
-3.57057e+10
-3.5781e+10
-3.58824e+10
-3.60236e+10
-3.62148e+10
-3.64481e+10
-3.66967e+10
-3.69361e+10
-3.71607e+10
-3.73718e+10
-3.75332e+10
-3.76071e+10
-3.77265e+10
-3.82964e+10
-3.90531e+10
-3.8966e+10
-3.32133e+10
-2.91735e+10
-2.91856e+10
-2.96869e+10
-3.01369e+10
-3.04392e+10
-3.06291e+10
-3.07478e+10
-3.08285e+10
-3.08923e+10
-3.09508e+10
-3.10072e+10
-3.10566e+10
-3.10876e+10
-3.10842e+10
-3.10304e+10
-3.09147e+10
-3.07364e+10
-3.05111e+10
-3.02765e+10
-3.00905e+10
-3.00093e+10
-3.00188e+10
-2.99376e+10
-2.94984e+10
-2.90538e+10
-3.07887e+10
-3.75627e+10
-4.42879e+10
-2.64648e+10
-3.55576e+10
-3.5533e+10
-3.55394e+10
-3.55422e+10
-3.5551e+10
-3.55658e+10
-3.55882e+10
-3.56182e+10
-3.56562e+10
-3.57037e+10
-3.57649e+10
-3.58469e+10
-3.59541e+10
-3.60821e+10
-3.62166e+10
-3.63439e+10
-3.64574e+10
-3.655e+10
-3.66028e+10
-3.66103e+10
-3.66594e+10
-3.68397e+10
-3.67049e+10
-3.50685e+10
-3.27531e+10
-3.13722e+10
-3.08485e+10
-3.06913e+10
-3.07163e+10
-3.07764e+10
-3.08331e+10
-3.08769e+10
-3.09136e+10
-3.095e+10
-3.09904e+10
-3.10337e+10
-3.10726e+10
-3.10942e+10
-3.10818e+10
-3.10194e+10
-3.08961e+10
-3.07124e+10
-3.04852e+10
-3.02537e+10
-3.00789e+10
-3.00217e+10
-3.00767e+10
-3.00809e+10
-2.97883e+10
-2.95418e+10
-3.1437e+10
-3.81462e+10
-4.43227e+10
-2.48365e+10
-3.55604e+10
-3.55367e+10
-3.55415e+10
-3.55437e+10
-3.55522e+10
-3.55668e+10
-3.55898e+10
-3.56211e+10
-3.56609e+10
-3.57104e+10
-3.57736e+10
-3.58567e+10
-3.59641e+10
-3.60924e+10
-3.62296e+10
-3.63632e+10
-3.64847e+10
-3.65817e+10
-3.66287e+10
-3.66286e+10
-3.66892e+10
-3.69024e+10
-3.67221e+10
-3.50328e+10
-3.26234e+10
-3.12263e+10
-3.07359e+10
-3.06202e+10
-3.06774e+10
-3.07596e+10
-3.08302e+10
-3.0883e+10
-3.09256e+10
-3.09661e+10
-3.10093e+10
-3.10547e+10
-3.10949e+10
-3.11166e+10
-3.1103e+10
-3.10372e+10
-3.09068e+10
-3.071e+10
-3.04601e+10
-3.01913e+10
-2.99575e+10
-2.98103e+10
-2.97338e+10
-2.95509e+10
-2.89849e+10
-2.82768e+10
-2.94044e+10
-3.58036e+10
-4.49966e+10
-3.15927e+10
-3.55704e+10
-3.55512e+10
-3.55557e+10
-3.55598e+10
-3.55706e+10
-3.55872e+10
-3.5611e+10
-3.56416e+10
-3.56789e+10
-3.57233e+10
-3.57762e+10
-3.58392e+10
-3.59117e+10
-3.599e+10
-3.60671e+10
-3.61353e+10
-3.61855e+10
-3.62028e+10
-3.61713e+10
-3.61004e+10
-3.60327e+10
-3.5915e+10
-3.54211e+10
-3.42695e+10
-3.29419e+10
-3.2036e+10
-3.15052e+10
-3.12091e+10
-3.10682e+10
-3.10039e+10
-3.09757e+10
-3.0964e+10
-3.09635e+10
-3.09742e+10
-3.09963e+10
-3.10261e+10
-3.1055e+10
-3.1069e+10
-3.10509e+10
-3.09843e+10
-3.08587e+10
-3.06742e+10
-3.04474e+10
-3.02156e+10
-3.0037e+10
-2.99703e+10
-3.00105e+10
-3.0002e+10
-2.97092e+10
-2.9453e+10
-3.12063e+10
-3.75998e+10
-4.42273e+10
-2.66094e+10
-3.5572e+10
-3.55544e+10
-3.55587e+10
-3.55636e+10
-3.55753e+10
-3.55934e+10
-3.5619e+10
-3.56522e+10
-3.56927e+10
-3.57407e+10
-3.57977e+10
-3.58649e+10
-3.59422e+10
-3.60257e+10
-3.61084e+10
-3.61818e+10
-3.62358e+10
-3.62545e+10
-3.62228e+10
-3.61548e+10
-3.60941e+10
-3.59751e+10
-3.54596e+10
-3.42669e+10
-3.29015e+10
-3.19827e+10
-3.14599e+10
-3.11777e+10
-3.10483e+10
-3.09935e+10
-3.09736e+10
-3.09695e+10
-3.09765e+10
-3.09946e+10
-3.10237e+10
-3.10598e+10
-3.10935e+10
-3.11103e+10
-3.10926e+10
-3.10232e+10
-3.08902e+10
-3.06926e+10
-3.0445e+10
-3.01816e+10
-2.99556e+10
-2.98175e+10
-2.97517e+10
-2.95835e+10
-2.90258e+10
-2.82491e+10
-2.90991e+10
-3.51212e+10
-4.47644e+10
-3.32893e+10
-3.55535e+10
-3.55425e+10
-3.55402e+10
-3.55407e+10
-3.55467e+10
-3.5558e+10
-3.55754e+10
-3.55986e+10
-3.56275e+10
-3.56623e+10
-3.57037e+10
-3.57514e+10
-3.58033e+10
-3.58562e+10
-3.59052e+10
-3.59437e+10
-3.59622e+10
-3.59484e+10
-3.58931e+10
-3.58005e+10
-3.5667e+10
-3.54106e+10
-3.48625e+10
-3.39992e+10
-3.30843e+10
-3.23657e+10
-3.18651e+10
-3.15372e+10
-3.13307e+10
-3.12002e+10
-3.11161e+10
-3.10618e+10
-3.10302e+10
-3.10187e+10
-3.10251e+10
-3.10443e+10
-3.10664e+10
-3.10767e+10
-3.10579e+10
-3.0994e+10
-3.08755e+10
-3.07043e+10
-3.04985e+10
-3.02969e+10
-3.01578e+10
-3.01399e+10
-3.02379e+10
-3.02918e+10
-3.00606e+10
-2.98662e+10
-3.16723e+10
-3.79498e+10
-4.34187e+10
-2.30765e+10
-3.55587e+10
-3.55447e+10
-3.55441e+10
-3.55455e+10
-3.55525e+10
-3.55648e+10
-3.55832e+10
-3.56077e+10
-3.5638e+10
-3.56743e+10
-3.57171e+10
-3.57661e+10
-3.58198e+10
-3.58745e+10
-3.59252e+10
-3.59647e+10
-3.59836e+10
-3.59694e+10
-3.59136e+10
-3.58218e+10
-3.56897e+10
-3.54297e+10
-3.48654e+10
-3.39819e+10
-3.30488e+10
-3.2324e+10
-3.18265e+10
-3.15058e+10
-3.13072e+10
-3.11848e+10
-3.1109e+10
-3.1063e+10
-3.10397e+10
-3.10363e+10
-3.105e+10
-3.10751e+10
-3.11011e+10
-3.11129e+10
-3.10928e+10
-3.10245e+10
-3.08983e+10
-3.0716e+10
-3.04962e+10
-3.0277e+10
-3.01156e+10
-3.00667e+10
-3.01188e+10
-3.00971e+10
-2.97173e+10
-2.92248e+10
-3.06728e+10
-3.73627e+10
-4.50594e+10
-2.76033e+10
-3.55553e+10
-3.55449e+10
-3.55425e+10
-3.55418e+10
-3.55457e+10
-3.55535e+10
-3.55655e+10
-3.55814e+10
-3.56008e+10
-3.56235e+10
-3.56495e+10
-3.5678e+10
-3.57067e+10
-3.57326e+10
-3.57518e+10
-3.57587e+10
-3.57449e+10
-3.57012e+10
-3.56226e+10
-3.55074e+10
-3.5336e+10
-3.50428e+10
-3.45548e+10
-3.38993e+10
-3.32147e+10
-3.26219e+10
-3.21568e+10
-3.18125e+10
-3.15636e+10
-3.13836e+10
-3.12526e+10
-3.11581e+10
-3.10939e+10
-3.10563e+10
-3.10415e+10
-3.10426e+10
-3.10476e+10
-3.10402e+10
-3.10017e+10
-3.09155e+10
-3.0772e+10
-3.05736e+10
-3.03393e+10
-3.01083e+10
-2.99394e+10
-2.98895e+10
-2.99449e+10
-2.99245e+10
-2.95582e+10
-2.91572e+10
-3.07116e+10
-3.69166e+10
-4.30439e+10
-2.44899e+10
-3.55603e+10
-3.55427e+10
-3.55435e+10
-3.55436e+10
-3.55485e+10
-3.5557e+10
-3.55695e+10
-3.55858e+10
-3.56054e+10
-3.5628e+10
-3.56536e+10
-3.56815e+10
-3.57098e+10
-3.57356e+10
-3.57545e+10
-3.57606e+10
-3.57455e+10
-3.57004e+10
-3.56208e+10
-3.55058e+10
-3.53355e+10
-3.50414e+10
-3.45516e+10
-3.38923e+10
-3.32085e+10
-3.26193e+10
-3.2159e+10
-3.1819e+10
-3.15732e+10
-3.13955e+10
-3.12663e+10
-3.11732e+10
-3.111e+10
-3.10731e+10
-3.10581e+10
-3.10576e+10
-3.10593e+10
-3.10466e+10
-3.10007e+10
-3.09048e+10
-3.07495e+10
-3.05381e+10
-3.02902e+10
-3.0046e+10
-2.98646e+10
-2.98029e+10
-2.98463e+10
-2.98069e+10