/*--------------------------------*- C++ -*----------------------------------*\
| =========                 |                                                 |
| \\      /  F ield         | OpenFOAM: The Open Source CFD Toolbox           |
|  \\    /   O peration     | Version:  4.1                                   |
|   \\  /    A nd           | Web:      www.OpenFOAM.org                      |
|    \\/     M anipulation  |                                                 |
\*---------------------------------------------------------------------------*/
FoamFile
{
    version     2.0;
    format      ascii;
    class       surfaceScalarField;
    location    "46";
    object      phi;
}
// * * * * * * * * * * * * * * * * * * * * * * * * * * * * * * * * * * * * * //

dimensions      [0 3 -1 0 0 0 0];

internalField   nonuniform List<scalar> 
11516
(
-4.69638e+10
-2.12106e+08
-8.14399e+08
-4.62514e+10
-1.75043e+08
-5.90298e+08
-4.57884e+10
-1.65921e+08
-3.39051e+08
-4.50508e+10
-2.85521e+08
-4.83442e+08
-4.46295e+10
-1.38509e+08
-3.0614e+08
-4.42869e+10
-1.62672e+08
-1.95736e+08
-4.39207e+10
-1.93538e+08
-1.8317e+08
-4.36149e+10
-1.8906e+08
-1.23056e+08
-4.33298e+10
-1.92536e+08
-9.53154e+07
-4.30644e+10
-1.93147e+08
-7.20054e+07
-4.28129e+10
-1.93524e+08
-5.52936e+07
-4.2567e+10
-1.9499e+08
-4.65972e+07
-4.23169e+10
-1.98782e+08
-4.71293e+07
-4.20557e+10
-2.03629e+08
-5.37055e+07
-4.1774e+10
-2.0811e+08
-6.80315e+07
-4.14651e+10
-2.12763e+08
-8.84179e+07
-4.11237e+10
-2.17489e+08
-1.11467e+08
-4.07459e+10
-2.23297e+08
-1.4049e+08
-4.03267e+10
-2.29466e+08
-1.71583e+08
-3.98612e+10
-2.35777e+08
-2.07032e+08
-3.93431e+10
-2.41663e+08
-2.44775e+08
-3.87766e+10
-2.47969e+08
-2.80358e+08
-3.81632e+10
-2.54135e+08
-3.15649e+08
-3.75137e+10
-2.60071e+08
-3.42289e+08
-3.68342e+10
-2.65256e+08
-3.64314e+08
-3.61364e+10
-2.6924e+08
-3.7518e+08
-3.5426e+10
-2.71601e+08
-3.80998e+08
-3.47142e+10
-2.7207e+08
-3.76608e+08
-3.40067e+10
-2.70326e+08
-3.68017e+08
-3.33107e+10
-2.66192e+08
-3.5382e+08
-3.26321e+10
-2.59428e+08
-3.35452e+08
-3.19731e+10
-2.50011e+08
-3.16355e+08
-3.13388e+10
-2.37706e+08
-2.93265e+08
-3.07295e+10
-2.2229e+08
-2.71225e+08
-3.01442e+10
-2.03923e+08
-2.51025e+08
-2.95818e+10
-1.8307e+08
-2.32498e+08
-2.90359e+10
-1.60292e+08
-2.20185e+08
-2.85036e+10
-1.3539e+08
-2.10926e+08
-2.79804e+10
-1.07128e+08
-2.06934e+08
-2.74652e+10
-7.45559e+07
-2.05282e+08
-2.69568e+10
-3.73031e+07
-2.05307e+08
-2.64521e+10
4.69317e+06
-2.07587e+08
-2.59457e+10
5.15585e+07
-2.11825e+08
-2.54327e+10
1.04292e+08
-2.17597e+08
-2.49157e+10
1.64355e+08
-2.24868e+08
-2.44131e+10
2.31657e+08
-2.38814e+08
-2.39462e+10
3.01624e+08
-2.854e+08
-2.35063e+10
3.72127e+08
-3.94051e+08
-2.31766e+10
4.26839e+08
-4.95552e+08
-2.32477e+10
5.34975e+08
-1.22074e+08
-2.44925e+10
1.10706e+09
4.60548e+08
-2.72014e+10
2.1582e+09
1.20552e+09
-2.60226e+10
5.80966e+09
-6.76158e+09
3.95803e+09
-1.50984e+10
-5.43419e+10
-7.99524e+08
-5.38607e+10
-6.84511e+08
-5.34691e+10
-5.81135e+08
-5.32663e+10
-5.07152e+08
-5.29106e+10
-5.07535e+08
-5.26676e+10
-4.15193e+08
-5.24665e+10
-4.01332e+08
-5.22972e+10
-3.62893e+08
-5.21412e+10
-3.51364e+08
-5.19975e+10
-3.37902e+08
-5.18602e+10
-3.30675e+08
-5.17254e+10
-3.28845e+08
-5.15859e+10
-3.37179e+08
-5.14378e+10
-3.50392e+08
-5.12736e+10
-3.70326e+08
-5.10874e+10
-3.94842e+08
-5.08778e+10
-4.21672e+08
-5.06403e+10
-4.53815e+08
-5.03735e+10
-4.87597e+08
-5.00723e+10
-5.24378e+08
-4.9734e+10
-5.63739e+08
-4.9362e+10
-5.99963e+08
-4.89567e+10
-6.368e+08
-4.85273e+10
-6.65189e+08
-4.80761e+10
-6.90717e+08
-4.76122e+10
-7.05947e+08
-4.71366e+10
-7.18128e+08
-4.66561e+10
-7.20955e+08
-4.61709e+10
-7.21122e+08
-4.56833e+10
-7.16281e+08
-4.51939e+10
-7.07679e+08
-4.46988e+10
-6.99644e+08
-4.41976e+10
-6.88376e+08
-4.36851e+10
-6.78156e+08
-4.31566e+10
-6.68685e+08
-4.26081e+10
-6.59885e+08
-4.20316e+10
-6.55941e+08
-4.14225e+10
-6.53539e+08
-4.07702e+10
-6.56658e+08
-4.00667e+10
-6.62004e+08
-3.93032e+10
-6.68818e+08
-3.84691e+10
-6.78019e+08
-3.7553e+10
-6.88674e+08
-3.65435e+10
-7.00024e+08
-3.54343e+10
-7.10425e+08
-3.42336e+10
-7.20256e+08
-3.2957e+10
-7.39668e+08
-3.16356e+10
-7.7205e+08
-3.03692e+10
-7.16979e+08
-2.9568e+10
-1.49795e+08
-2.94978e+10
1.27739e+09
-3.05717e+10
3.41174e+09
-1.7796e+10
-6.91388e+09
-1.2451e+10
-6.07661e+10
1.18134e+08
-1.13582e+09
-6.07597e+10
6.79079e+07
-6.86157e+08
-6.07161e+10
4.7692e+07
-4.53671e+08
-6.07835e+10
8.29932e+07
-5.18998e+08
-6.0705e+10
5.50756e+07
-4.55033e+08
-6.06905e+10
6.47875e+07
-2.87154e+08
-6.07126e+10
6.27843e+07
-2.3428e+08
-6.07261e+10
6.35746e+07
-1.8191e+08
-6.07495e+10
5.80149e+07
-1.37175e+08
-6.07866e+10
5.75996e+07
-9.77942e+07
-6.08296e+10
5.43921e+07
-7.01985e+07
-6.08768e+10
5.08475e+07
-5.20133e+07
-6.09288e+10
4.5831e+07
-4.32248e+07
-6.09832e+10
4.0791e+07
-4.13938e+07
-6.10411e+10
3.5317e+07
-4.82453e+07
-6.10998e+10
3.00481e+07
-5.94146e+07
-6.11573e+10
2.42331e+07
-7.78178e+07
-6.12122e+10
1.82865e+07
-1.007e+08
-6.12648e+10
1.10077e+07
-1.2701e+08
-6.13132e+10
4.29083e+06
-1.55489e+08
-6.13582e+10
-2.82019e+06
-1.85305e+08
-6.13989e+10
-1.01109e+07
-2.12854e+08
-6.14402e+10
-1.77766e+07
-2.36465e+08
-6.1482e+10
-2.5737e+07
-2.53141e+08
-6.15333e+10
-3.37346e+07
-2.57756e+08
-6.15909e+10
-4.14032e+07
-2.54693e+08
-6.16606e+10
-4.84374e+07
-2.41061e+08
-6.17386e+10
-5.45308e+07
-2.21247e+08
-6.18282e+10
-5.92873e+07
-1.94738e+08
-6.19266e+10
-6.23489e+07
-1.66966e+08
-6.20346e+10
-6.34521e+07
-1.3569e+08
-6.21527e+10
-6.24712e+07
-1.0467e+08
-6.22799e+10
-5.90541e+07
-7.24405e+07
-6.24205e+10
-5.24426e+07
-3.95079e+07
-6.25756e+10
-4.28735e+07
-9.20564e+06
-6.27527e+10
-3.07375e+07
2.46818e+07
-6.29602e+10
-1.54936e+07
5.87145e+07
-6.32027e+10
1.85627e+06
9.2624e+07
-6.34864e+10
2.08688e+07
1.27021e+08
-6.38182e+10
4.23202e+07
1.64164e+08
-6.42028e+10
6.65276e+07
2.04102e+08
-6.46535e+10
9.30366e+07
2.55057e+08
-6.51815e+10
1.2219e+08
3.17359e+08
-6.58004e+10
1.53752e+08
3.93741e+08
-6.65286e+10
1.87695e+08
4.86465e+08
-6.74032e+10
2.23197e+08
5.95193e+08
-6.8501e+10
2.59219e+08
7.13638e+08
-6.99134e+10
2.86846e+08
8.20447e+08
-7.16422e+10
3.1843e+08
9.12829e+08
-7.30876e+10
4.43049e+08
7.89925e+08
-7.47024e+10
1.41805e+09
6.16156e+08
-7.57925e+10
2.66087e+09
-4.66546e+08
-9.13139e+10
5.65869e+09
2.97561e+09
2.92445e+09
8.09896e+09
-6.64448e+10
-9.81726e+08
-6.63496e+10
-7.26608e+08
-6.62856e+10
-6.10714e+08
-6.6239e+10
-4.81579e+08
-6.61913e+10
-5.09017e+08
-6.61467e+10
-4.02612e+08
-6.61389e+10
-3.52927e+08
-6.61207e+10
-3.22925e+08
-6.612e+10
-2.98391e+08
-6.61309e+10
-2.72541e+08
-6.61509e+10
-2.58117e+08
-6.61768e+10
-2.53272e+08
-6.62117e+10
-2.57214e+08
-6.62554e+10
-2.67039e+08
-6.63066e+10
-2.8449e+08
-6.63653e+10
-3.05989e+08
-6.64281e+10
-3.33574e+08
-6.64969e+10
-3.65045e+08
-6.65719e+10
-3.98436e+08
-6.66533e+10
-4.33466e+08
-6.67427e+10
-4.68985e+08
-6.68404e+10
-5.01173e+08
-6.69529e+10
-5.28944e+08
-6.70801e+10
-5.49755e+08
-6.72324e+10
-5.58242e+08
-6.74068e+10
-5.59366e+08
-6.761e+10
-5.49697e+08
-6.78379e+10
-5.33574e+08
-6.80934e+10
-5.10162e+08
-6.83713e+10
-4.85052e+08
-6.867e+10
-4.55697e+08
-6.89868e+10
-4.26964e+08
-6.93157e+10
-3.98339e+08
-6.96549e+10
-3.68753e+08
-7.00001e+10
-3.41027e+08
-7.0349e+10
-3.13007e+08
-7.07019e+10
-2.86119e+08
-7.10593e+10
-2.57771e+08
-7.14254e+10
-2.28633e+08
-7.18e+10
-1.98491e+08
-7.21801e+10
-1.68986e+08
-7.25713e+10
-1.32127e+08
-7.29765e+10
-8.85949e+07
-7.34018e+10
-3.46063e+07
-7.38572e+10
3.13643e+07
-7.43625e+10
1.08867e+08
-7.49589e+10
1.95652e+08
-7.56939e+10
2.86007e+08
-7.64676e+10
3.51908e+08
-7.62997e+10
8.22818e+07
-7.25615e+10
-1.09704e+09
-6.46061e+10
-1.95922e+09
-7.11376e+10
5.12368e+09
9.61944e+09
-5.16247e+10
2.86788e+06
-1.98228e+09
-5.10962e+10
9.95103e+07
-1.32142e+09
-5.05561e+10
5.90188e+07
-1.06149e+09
-5.04238e+10
1.1722e+08
-7.78464e+08
-5.01739e+10
5.26063e+07
-7.67994e+08
-4.9956e+10
8.62993e+07
-6.01974e+08
-4.98392e+10
1.00297e+08
-4.60936e+08
-4.97509e+10
1.06608e+08
-3.84694e+08
-4.96659e+10
1.04249e+08
-3.32359e+08
-4.95836e+10
1.08276e+08
-2.92304e+08
-4.95005e+10
1.10163e+08
-2.65289e+08
-4.94189e+10
1.12981e+08
-2.46961e+08
-4.93356e+10
1.14901e+08
-2.41217e+08
-4.92471e+10
1.17148e+08
-2.4739e+08
-4.91542e+10
1.21055e+08
-2.63493e+08
-4.90499e+10
1.25329e+08
-2.88306e+08
-4.89348e+10
1.30238e+08
-3.22269e+08
-4.88052e+10
1.35409e+08
-3.6225e+08
-4.86581e+10
1.40606e+08
-4.11196e+08
-4.84911e+10
1.4727e+08
-4.62115e+08
-4.8306e+10
1.5457e+08
-5.13248e+08
-4.81011e+10
1.63005e+08
-5.62768e+08
-4.7885e+10
1.71848e+08
-6.02193e+08
-4.76681e+10
1.80725e+08
-6.28189e+08
-4.74585e+10
1.89589e+08
-6.36469e+08
-4.72675e+10
1.98335e+08
-6.26844e+08
-4.71003e+10
2.06951e+08
-6.00624e+08
-4.69609e+10
2.15286e+08
-5.63166e+08
-4.68502e+10
2.23165e+08
-5.17197e+08
-4.67702e+10
2.30507e+08
-4.66886e+08
-4.67153e+10
2.37566e+08
-4.18109e+08
-4.66839e+10
2.44871e+08
-3.70904e+08
-4.6666e+10
2.52243e+08
-3.31897e+08
-4.66505e+10
2.59027e+08
-3.01927e+08
-4.66278e+10
2.64744e+08
-2.82608e+08
-4.65762e+10
2.69577e+08
-2.79835e+08
-4.64798e+10
2.76084e+08
-2.93925e+08
-4.63279e+10
2.87393e+08
-3.23266e+08
-4.61117e+10
3.04304e+08
-3.66115e+08
-4.5819e+10
3.25208e+08
-4.21672e+08
-4.54425e+10
3.50551e+08
-4.84981e+08
-4.49643e+10
3.81477e+08
-5.58356e+08
-4.43713e+10
4.19024e+08
-6.36455e+08
-4.36497e+10
4.6555e+08
-7.19686e+08
-4.2794e+10
5.23203e+08
-8.04561e+08
-4.18117e+10
5.91535e+08
-8.93023e+08
-4.07341e+10
6.74011e+08
-9.92268e+08
-3.96313e+10
7.68267e+08
-1.09711e+09
-3.85675e+10
8.77738e+08
-1.21876e+09
-3.76055e+10
9.67096e+08
-1.47969e+09
-3.63412e+10
1.34905e+09
-2.53824e+09
-3.62672e+10
2.73626e+09
-3.93396e+09
-3.13384e+10
7.94106e+09
-1.04174e+10
4.11185e+09
-2.04116e+09
-5.68653e+10
-1.59481e+09
-5.64525e+10
-1.04244e+09
-5.61693e+10
-8.40187e+08
-5.59414e+10
-5.99143e+08
-5.58675e+10
-5.38072e+08
-5.57762e+10
-4.15199e+08
-5.57361e+10
-2.98996e+08
-5.57088e+10
-2.4854e+08
-5.56979e+10
-2.08446e+08
-5.5684e+10
-1.8017e+08
-5.56713e+10
-1.61375e+08
-5.56577e+10
-1.53714e+08
-5.56402e+10
-1.5941e+08
-5.56131e+10
-1.77011e+08
-5.55743e+10
-2.01895e+08
-5.55192e+10
-2.35164e+08
-5.5444e+10
-2.76751e+08
-5.5347e+10
-3.24357e+08
-5.52223e+10
-3.78876e+08
-5.50681e+10
-4.35286e+08
-5.48837e+10
-4.90292e+08
-5.46668e+10
-5.43385e+08
-5.4425e+10
-5.85404e+08
-5.41667e+10
-6.1364e+08
-5.38993e+10
-6.23981e+08
-5.36344e+10
-6.16248e+08
-5.33782e+10
-5.91235e+08
-5.31363e+10
-5.54183e+08
-5.29116e+10
-5.07135e+08
-5.27089e+10
-4.53969e+08
-5.25242e+10
-4.00574e+08
-5.23586e+10
-3.46088e+08
-5.2206e+10
-2.97591e+08
-5.20598e+10
-2.54875e+08
-5.19172e+10
-2.17594e+08
-5.17674e+10
-1.91273e+08
-5.1599e+10
-1.75754e+08
-5.13928e+10
-1.7291e+08
-5.11294e+10
-1.82812e+08
-5.07934e+10
-2.02868e+08
-5.03767e+10
-2.26409e+08
-4.98579e+10
-2.56921e+08
-4.92208e+10
-2.88415e+08
-4.8443e+10
-3.21381e+08
-4.75056e+10
-3.53423e+08
-4.64002e+10
-3.84748e+08
-4.51254e+10
-4.18301e+08
-4.37002e+10
-4.49049e+08
-4.21293e+10
-5.04519e+08
-4.07505e+10
-5.96956e+08
-3.994e+10
-9.22981e+08
-3.85105e+10
-1.09401e+09
-1.85222e+10
-7.21843e+09
-3.60894e+09
-5.57102e+10
-2.56268e+08
-2.09487e+09
-5.55129e+10
-1.94114e+08
-1.31772e+09
-5.52231e+10
-1.81246e+08
-1.17089e+09
-5.50108e+10
-1.95359e+08
-8.01805e+08
-5.49078e+10
-2.0312e+08
-6.77448e+08
-5.47852e+10
-1.82368e+08
-5.51464e+08
-5.46669e+10
-1.58387e+08
-4.2812e+08
-5.4571e+10
-1.54268e+08
-3.30898e+08
-5.44917e+10
-1.5798e+08
-2.56006e+08
-5.44204e+10
-1.59959e+08
-2.0419e+08
-5.43468e+10
-1.63861e+08
-1.73594e+08
-5.42681e+10
-1.66802e+08
-1.56007e+08
-5.41801e+10
-1.70144e+08
-1.54995e+08
-5.4082e+10
-1.73983e+08
-1.68702e+08
-5.39665e+10
-1.77618e+08
-1.97423e+08
-5.38349e+10
-1.81725e+08
-2.35274e+08
-5.36832e+10
-1.8535e+08
-2.83024e+08
-5.35083e+10
-1.89909e+08
-3.41972e+08
-5.33101e+10
-1.94025e+08
-4.08004e+08
-5.30854e+10
-1.97865e+08
-4.80455e+08
-5.28321e+10
-2.00429e+08
-5.53129e+08
-5.25519e+10
-2.01546e+08
-6.23255e+08
-5.225e+10
-2.01102e+08
-6.80978e+08
-5.19378e+10
-1.98902e+08
-7.19923e+08
-5.1626e+10
-1.94792e+08
-7.36076e+08
-5.13268e+10
-1.88724e+08
-7.2656e+08
-5.10469e+10
-1.8076e+08
-6.95473e+08
-5.07916e+10
-1.71512e+08
-6.48646e+08
-5.0564e+10
-1.61777e+08
-5.89984e+08
-5.03631e+10
-1.523e+08
-5.27425e+08
-5.01916e+10
-1.43197e+08
-4.63283e+08
-5.00477e+10
-1.3411e+08
-4.02203e+08
-4.99332e+10
-1.25655e+08
-3.46578e+08
-4.98474e+10
-1.1803e+08
-2.99539e+08
-4.97932e+10
-1.10104e+08
-2.60265e+08
-4.97813e+10
-1.02869e+08
-2.25699e+08
-4.98222e+10
-9.53112e+07
-1.97974e+08
-4.99254e+10
-8.74674e+07
-1.76192e+08
-5.00975e+10
-8.00026e+07
-1.61386e+08
-5.03431e+10
-7.16228e+07
-1.55613e+08
-5.06654e+10
-6.12592e+07
-1.56255e+08
-5.10699e+10
-4.7752e+07
-1.63001e+08
-5.15606e+10
-2.93118e+07
-1.73002e+08
-5.21482e+10
-4.37475e+06
-1.82013e+08
-5.28451e+10
2.8357e+07
-1.92993e+08
-5.36863e+10
7.09511e+07
-2.04342e+08
-5.47419e+10
1.22811e+08
-2.16013e+08
-5.6086e+10
1.77538e+08
-2.39601e+08
-5.77289e+10
2.32722e+08
-3.6093e+08
-5.96138e+10
4.19053e+08
-8.89593e+08
-6.19002e+10
1.31896e+09
-2.78923e+09
-6.50793e+10
3.43381e+09
-5.52788e+09
-7.76872e+10
1.08722e+10
-9.91147e+09
4.00594e+09
2.32207e+09
-6.04232e+10
-1.98191e+09
-6.04287e+10
-1.22923e+09
-6.04337e+10
-1.01786e+09
-6.04252e+10
-8.07398e+08
-6.04889e+10
-6.83162e+08
-6.05336e+10
-5.58037e+08
-6.05488e+10
-4.4615e+08
-6.05839e+10
-3.70184e+08
-6.06398e+10
-3.11622e+08
-6.07028e+10
-2.76984e+08
-6.077e+10
-2.566e+08
-6.08378e+10
-2.50305e+08
-6.0905e+10
-2.59508e+08
-6.09702e+10
-2.82646e+08
-6.10268e+10
-3.20156e+08
-6.1076e+10
-3.64317e+08
-6.1116e+10
-4.18188e+08
-6.11429e+10
-4.82631e+08
-6.1157e+10
-5.53315e+08
-6.11531e+10
-6.30023e+08
-6.11274e+10
-7.06369e+08
-6.10792e+10
-7.80163e+08
-6.10085e+10
-8.41829e+08
-6.0921e+10
-8.85054e+08
-6.08206e+10
-9.07028e+08
-6.07133e+10
-9.03978e+08
-6.06007e+10
-8.80253e+08
-6.0484e+10
-8.41643e+08
-6.03636e+10
-7.91731e+08
-6.02365e+10
-7.38593e+08
-6.0104e+10
-6.84255e+08
-5.99609e+10
-6.33886e+08
-5.98075e+10
-5.89439e+08
-5.96415e+10
-5.53664e+08
-5.94584e+10
-5.27444e+08
-5.92621e+10
-5.08765e+08
-5.90525e+10
-5.0051e+08
-5.88343e+10
-5.00094e+08
-5.86133e+10
-5.06931e+08
-5.83901e+10
-5.22568e+08
-5.81596e+10
-5.44154e+08
-5.79172e+10
-5.73281e+08
-5.76509e+10
-6.08954e+08
-5.73531e+10
-6.46709e+08
-5.7015e+10
-6.8882e+08
-5.66386e+10
-7.32521e+08
-5.62457e+10
-7.75644e+08
-5.58584e+10
-8.28967e+08
-5.548e+10
-9.44234e+08
-5.46992e+10
-1.41136e+09
-5.25204e+10
-2.40696e+09
-4.74803e+10
-3.35959e+09
-3.46545e+10
-9.62155e+09
-2.56007e+09
-5.50378e+10
-4.87768e+07
-2.07453e+09
-5.49054e+10
-8.62021e+07
-1.35419e+09
-5.48227e+10
-1.16852e+08
-1.1314e+09
-5.46369e+10
-1.15251e+08
-8.72164e+08
-5.45282e+10
-1.08316e+08
-6.80657e+08
-5.44408e+10
-9.48711e+07
-5.47473e+08
-5.43514e+10
-8.72141e+07
-4.32497e+08
-5.42595e+10
-8.7381e+07
-3.3581e+08
-5.41658e+10
-8.90031e+07
-2.59019e+08
-5.40677e+10
-9.16082e+07
-2.06869e+08
-5.3966e+10
-9.68509e+07
-1.7242e+08
-5.38574e+10
-1.02874e+08
-1.53381e+08
-5.37409e+10
-1.08679e+08
-1.5291e+08
-5.36078e+10
-1.15805e+08
-1.75579e+08
-5.34555e+10
-1.23967e+08
-2.1528e+08
-5.32787e+10
-1.3392e+08
-2.67982e+08
-5.30697e+10
-1.44881e+08
-3.34868e+08
-5.28257e+10
-1.57648e+08
-4.1539e+08
-5.25414e+10
-1.71384e+08
-5.0532e+08
-5.22133e+10
-1.86602e+08
-6.0494e+08
-5.18346e+10
-2.02082e+08
-7.07733e+08
-5.14018e+10
-2.17655e+08
-8.09128e+08
-5.09196e+10
-2.32827e+08
-8.95937e+08
-5.0399e+10
-2.46466e+08
-9.56629e+08
-4.98606e+10
-2.5826e+08
-9.83246e+08
-4.93205e+10
-2.66675e+08
-9.73293e+08
-4.87947e+10
-2.71007e+08
-9.30386e+08
-4.82947e+10
-2.70963e+08
-8.63631e+08
-4.78287e+10
-2.66861e+08
-7.79715e+08
-4.74027e+10
-2.59185e+08
-6.88766e+08
-4.70213e+10
-2.48017e+08
-5.9476e+08
-4.6688e+10
-2.33057e+08
-5.03617e+08
-4.64049e+10
-2.14603e+08
-4.18779e+08
-4.61768e+10
-1.9337e+08
-3.40156e+08
-4.60075e+10
-1.69237e+08
-2.67623e+08
-4.58983e+10
-1.41825e+08
-2.01282e+08
-4.58546e+10
-1.11181e+08
-1.39226e+08
-4.58799e+10
-7.64782e+07
-8.33035e+07
-4.5987e+10
-3.57885e+07
-2.75065e+07
-4.61951e+10
1.24491e+07
3.14708e+07
-4.65271e+10
6.90878e+07
9.94826e+07
-4.70131e+10
1.35245e+08
1.84708e+08
-4.76858e+10
2.11676e+08
2.92872e+08
-4.85864e+10
2.99372e+08
4.35538e+08
-4.97794e+10
4.01517e+08
6.22336e+08
-5.13747e+10
5.21841e+08
8.78538e+08
-5.35534e+10
6.63163e+08
1.24505e+09
-5.65825e+10
8.03342e+08
1.7794e+09
-6.09104e+10
9.26231e+08
2.56157e+09
-6.74098e+10
1.13241e+09
3.61609e+09
-7.98316e+10
2.79207e+09
5.77963e+09
-9.95018e+10
5.06515e+09
7.84039e+09
-1.30265e+11
9.44299e+09
1.068e+10
-2.74403e+09
-2.01185e+08
-5.42643e+10
-2.01982e+09
-5.42286e+10
-1.34267e+09
-5.42106e+10
-1.14833e+09
-5.41763e+10
-9.55888e+08
-5.41861e+10
-7.82568e+08
-5.41983e+10
-6.41979e+08
-5.41898e+10
-5.42561e+08
-5.41835e+10
-4.63244e+08
-5.41848e+10
-3.97197e+08
-5.41943e+10
-3.55256e+08
-5.42108e+10
-3.31523e+08
-5.42306e+10
-3.26235e+08
-5.42523e+10
-3.38099e+08
-5.42706e+10
-3.71287e+08
-5.42852e+10
-4.20676e+08
-5.4292e+10
-4.81853e+08
-5.42867e+10
-5.58137e+08
-5.42681e+10
-6.47137e+08
-5.42341e+10
-7.46114e+08
-5.41814e+10
-8.54091e+08
-5.41058e+10
-9.65595e+08
-5.40043e+10
-1.07598e+09
-5.38792e+10
-1.17177e+09
-5.37388e+10
-1.24301e+09
-5.35948e+10
-1.28167e+09
-5.34551e+10
-1.28619e+09
-5.33251e+10
-1.26043e+09
-5.3206e+10
-1.21354e+09
-5.30964e+10
-1.15225e+09
-5.29929e+10
-1.08695e+09
-5.28903e+10
-1.02181e+09
-5.27828e+10
-9.62417e+08
-5.2664e+10
-9.11351e+08
-5.25302e+10
-8.69463e+08
-5.23768e+10
-8.38538e+08
-5.21983e+10
-8.16737e+08
-5.19948e+10
-8.01885e+08
-5.17603e+10
-7.96457e+08
-5.1491e+10
-7.95764e+08
-5.1183e+10
-7.99607e+08
-5.08322e+10
-8.04175e+08
-5.04387e+10
-8.04677e+08
-5.0002e+10
-7.99379e+08
-4.95265e+10
-7.79138e+08
-4.90235e+10
-7.40655e+08
-4.85176e+10
-6.73882e+08
-4.80609e+10
-5.58452e+08
-4.77772e+10
-3.67452e+08
-4.78783e+10
-8.78404e+07
-4.87124e+10
2.55398e+08
-4.99948e+10
1.27353e+09
-5.29071e+10
4.1824e+09
-6.56727e+10
1.23961e+10
3.16581e+09
-5.50142e+10
1.49568e+08
-2.01839e+09
-5.51059e+10
1.51294e+08
-1.39652e+09
-5.51949e+10
1.31753e+08
-1.16223e+09
-5.52551e+10
1.38191e+08
-9.42882e+08
-5.53108e+10
1.35878e+08
-7.57041e+08
-5.53764e+10
1.38672e+08
-6.18293e+08
-5.54423e+10
1.40482e+08
-5.04422e+08
-5.55061e+10
1.41748e+08
-4.0934e+08
-5.55678e+10
1.4327e+08
-3.34016e+08
-5.56276e+10
1.43077e+08
-2.81065e+08
-5.56825e+10
1.43519e+08
-2.49074e+08
-5.57274e+10
1.44026e+08
-2.37491e+08
-5.57631e+10
1.46314e+08
-2.45885e+08
-5.57888e+10
1.4848e+08
-2.78788e+08
-5.5804e+10
1.49989e+08
-3.31155e+08
-5.58009e+10
1.51262e+08
-4.01865e+08
-5.57777e+10
1.52003e+08
-4.89639e+08
-5.57278e+10
1.52684e+08
-5.94386e+08
-5.56486e+10
1.52505e+08
-7.12287e+08
-5.55353e+10
1.5201e+08
-8.42538e+08
-5.53791e+10
1.51145e+08
-9.81523e+08
-5.51727e+10
1.49815e+08
-1.12343e+09
-5.49138e+10
1.48296e+08
-1.25045e+09
-5.46125e+10
1.45693e+08
-1.34448e+09
-5.42854e+10
1.42392e+08
-1.39243e+09
-5.39472e+10
1.39242e+08
-1.39264e+09
-5.36098e+10
1.37311e+08
-1.35034e+09
-5.32807e+10
1.3742e+08
-1.27761e+09
-5.29616e+10
1.3988e+08
-1.18723e+09
-5.26553e+10
1.45001e+08
-1.08836e+09
-5.23598e+10
1.53036e+08
-9.9084e+08
-5.20727e+10
1.64173e+08
-9.00866e+08
-5.17927e+10
1.78379e+08
-8.20703e+08
-5.15168e+10
1.95809e+08
-7.52269e+08
-5.12441e+10
2.1664e+08
-6.93065e+08
-5.09737e+10
2.40858e+08
-6.43411e+08
-5.07069e+10
2.68841e+08
-5.99535e+08
-5.04482e+10
3.01384e+08
-5.60962e+08
-5.01994e+10
3.39413e+08
-5.24832e+08
-4.99655e+10
3.8362e+08
-4.8524e+08
-4.97485e+10
4.35091e+08
-4.3914e+08
-4.9551e+10
4.95501e+08
-3.78344e+08
-4.93764e+10
5.67033e+08
-2.96567e+08
-4.92287e+10
6.5146e+08
-1.84452e+08
-4.91246e+10
7.51467e+08
-2.70094e+07
-4.90913e+10
8.72662e+08
1.94767e+08
-4.91836e+10
1.02448e+09
5.22839e+08
-4.94675e+10
1.20249e+09
1.00982e+09
-5.00367e+10
1.41008e+09
1.75044e+09
-5.11806e+10
1.69727e+09
2.95363e+09
-5.42452e+10
2.70584e+09
5.89766e+09
-6.25391e+10
4.53707e+09
1.14907e+10
-8.76727e+10
1.14854e+10
2.43039e+10
4.35673e+09
7.25256e+09
-5.27995e+10
-1.83372e+09
-5.27457e+10
-1.23579e+09
-5.27162e+10
-1.03929e+09
-5.26835e+10
-8.46332e+08
-5.26741e+10
-6.53761e+08
-5.26724e+10
-5.03311e+08
-5.26796e+10
-3.92603e+08
-5.26936e+10
-3.04095e+08
-5.27072e+10
-2.35366e+08
-5.27256e+10
-1.87149e+08
-5.27452e+10
-1.59712e+08
-5.27643e+10
-1.52381e+08
-5.27777e+10
-1.65817e+08
-5.2784e+10
-2.0317e+08
-5.27815e+10
-2.59331e+08
-5.27641e+10
-3.33976e+08
-5.27291e+10
-4.26046e+08
-5.26721e+10
-5.35361e+08
-5.25899e+10
-6.58056e+08
-5.2479e+10
-7.93047e+08
-5.2332e+10
-9.37385e+08
-5.21424e+10
-1.08446e+09
-5.19118e+10
-1.21615e+09
-5.16517e+10
-1.31463e+09
-5.13815e+10
-1.36542e+09
-5.11178e+10
-1.36763e+09
-5.08734e+10
-1.32601e+09
-5.06563e+10
-1.25298e+09
-5.04671e+10
-1.16174e+09
-5.03068e+10
-1.06214e+09
-5.01706e+10
-9.6395e+08
-5.00535e+10
-8.72852e+08
-4.99508e+10
-7.91046e+08
-4.98555e+10
-7.21674e+08
-4.97627e+10
-6.63893e+08
-4.96658e+10
-6.17902e+08
-4.95589e+10
-5.80301e+08
-4.94376e+10
-5.51445e+08
-4.92937e+10
-5.29337e+08
-4.91217e+10
-5.09763e+08
-4.89123e+10
-4.9151e+08
-4.86541e+10
-4.68615e+08
-4.83335e+10
-4.39454e+08
-4.79306e+10
-4.0009e+08
-4.74317e+10
-3.42944e+08
-4.68195e+10
-2.63903e+08
-4.60742e+10
-1.45876e+08
-4.51863e+10
3.5184e+07
-4.41564e+10
3.05735e+08
-4.29967e+10
7.28438e+08
-4.11653e+10
2.07756e+09
-3.90383e+10
6.5792e+09
-3.40947e+10
1.90186e+10
6.84116e+09
-5.24491e+10
6.78484e+07
-1.93191e+09
-5.24992e+10
9.37298e+07
-1.42985e+09
-5.25296e+10
1.08387e+08
-1.23171e+09
-5.25716e+10
1.2446e+08
-1.01911e+09
-5.26041e+10
1.23651e+08
-8.43619e+08
-5.26398e+10
1.1981e+08
-6.98609e+08
-5.26756e+10
1.17156e+08
-5.81901e+08
-5.27126e+10
1.20793e+08
-4.88417e+08
-5.27507e+10
1.2526e+08
-4.15002e+08
-5.27916e+10
1.28013e+08
-3.60054e+08
-5.28368e+10
1.27756e+08
-3.20933e+08
-5.28776e+10
1.27504e+08
-3.10283e+08
-5.29107e+10
1.28816e+08
-3.24536e+08
-5.29375e+10
1.30298e+08
-3.63575e+08
-5.29553e+10
1.31502e+08
-4.25789e+08
-5.29609e+10
1.32741e+08
-5.10158e+08
-5.29496e+10
1.34297e+08
-6.1646e+08
-5.29193e+10
1.36643e+08
-7.40325e+08
-5.28681e+10
1.39256e+08
-8.81662e+08
-5.27922e+10
1.42886e+08
-1.03704e+09
-5.2683e+10
1.46931e+08
-1.20896e+09
-5.25319e+10
1.52023e+08
-1.38878e+09
-5.23325e+10
1.58153e+08
-1.55399e+09
-5.21026e+10
1.63175e+08
-1.67426e+09
-5.18605e+10
1.67589e+08
-1.73052e+09
-5.16293e+10
1.70506e+08
-1.72239e+09
-5.14175e+10
1.7307e+08
-1.66374e+09
-5.12267e+10
1.75894e+08
-1.57343e+09
-5.10542e+10
1.79561e+08
-1.46729e+09
-5.0892e+10
1.84247e+08
-1.36037e+09
-5.07354e+10
1.89839e+08
-1.25902e+09
-5.05776e+10
1.95957e+08
-1.17127e+09
-5.04138e+10
2.02266e+08
-1.09725e+09
-5.02407e+10
2.08769e+08
-1.03716e+09
-5.00543e+10
2.15582e+08
-9.89366e+08
-4.98533e+10
2.22766e+08
-9.51752e+08
-4.96348e+10
2.30127e+08
-9.21949e+08
-4.93977e+10
2.37581e+08
-8.9764e+08
-4.91428e+10
2.46037e+08
-8.74613e+08
-4.88649e+10
2.5636e+08
-8.53509e+08
-4.85649e+10
2.6947e+08
-8.24983e+08
-4.8238e+10
2.86905e+08
-7.86609e+08
-4.78773e+10
3.1049e+08
-7.34448e+08
-4.74744e+10
3.41586e+08
-6.62953e+08
-4.70214e+10
3.81316e+08
-5.62716e+08
-4.65124e+10
4.3146e+08
-4.25115e+08
-4.59372e+10
4.94422e+08
-2.2916e+08
-4.52684e+10
5.70856e+08
5.49495e+07
-4.43643e+10
6.26287e+08
4.54429e+08
-4.29093e+10
6.36305e+08
1.09054e+09
-4.01725e+10
8.64538e+08
2.70378e+09
-3.8064e+10
3.17949e+09
6.80057e+09
-4.31644e+10
1.20923e+10
1.8017e+10
5.66369e+09
6.92593e+09
-5.27212e+10
-1.58328e+09
-5.27602e+10
-1.09581e+09
-5.27673e+10
-9.18495e+08
-5.27586e+10
-7.26845e+08
-5.27434e+10
-5.42587e+08
-5.27271e+10
-3.97512e+08
-5.27123e+10
-2.87969e+08
-5.2694e+10
-1.98851e+08
-5.26716e+10
-1.29019e+08
-5.26463e+10
-7.94816e+07
-5.26245e+10
-4.7091e+07
-5.26003e+10
-4.01734e+07
-5.25692e+10
-5.73699e+07
-5.25317e+10
-9.83615e+07
-5.24858e+10
-1.61526e+08
-5.24289e+10
-2.46034e+08
-5.23569e+10
-3.51071e+08
-5.22694e+10
-4.72834e+08
-5.21642e+10
-6.09589e+08
-5.20402e+10
-7.58968e+08
-5.18893e+10
-9.22106e+08
-5.17053e+10
-1.08955e+09
-5.14873e+10
-1.24005e+09
-5.12529e+10
-1.34049e+09
-5.10261e+10
-1.37387e+09
-5.08301e+10
-1.33918e+09
-5.06757e+10
-1.25169e+09
-5.05643e+10
-1.13104e+09
-5.04923e+10
-9.94245e+08
-5.04495e+10
-8.57319e+08
-5.04291e+10
-7.26811e+08
-5.04223e+10
-6.10503e+08
-5.04229e+10
-5.08692e+08
-5.04269e+10
-4.21956e+08
-5.04311e+10
-3.48955e+08
-5.04335e+10
-2.88474e+08
-5.04306e+10
-2.38869e+08
-5.04224e+10
-1.97254e+08
-5.04095e+10
-1.59591e+08
-5.03852e+10
-1.28097e+08
-5.03466e+10
-9.57044e+07
-5.0284e+10
-6.06834e+07
-5.01865e+10
-2.0284e+07
-5.004e+10
2.62693e+07
-4.98289e+10
8.1562e+07
-4.95385e+10
1.44477e+08
-4.91536e+10
2.26625e+08
-4.86543e+10
3.45679e+08
-4.79907e+10
4.8804e+08
-4.69255e+10
5.61801e+08
-4.47723e+10
1.15723e+09
-3.89446e+10
4.45368e+09
-1.84283e+10
1.11044e+10
3.96778e+09
-5.27908e+10
-8.50441e+07
-1.74538e+09
-5.27408e+10
-6.48287e+07
-1.4085e+09
-5.2684e+10
-4.90477e+07
-1.23452e+09
-5.2623e+10
-4.06548e+07
-1.03546e+09
-5.25523e+10
-4.55635e+07
-8.6562e+08
-5.24832e+10
-5.54877e+07
-7.09943e+08
-5.24253e+10
-6.21994e+07
-5.75842e+08
-5.23784e+10
-6.2963e+07
-4.70798e+08
-5.23411e+10
-6.42236e+07
-3.86103e+08
-5.23121e+10
-6.75289e+07
-3.18256e+08
-5.22806e+10
-7.33296e+07
-2.73573e+08
-5.22469e+10
-7.89022e+07
-2.56516e+08
-5.22071e+10
-8.39819e+07
-2.68544e+08
-5.21558e+10
-8.95006e+07
-3.11445e+08
-5.2088e+10
-9.54233e+07
-3.83504e+08
-5.19971e+10
-1.01698e+08
-4.86043e+08
-5.18761e+10
-1.07462e+08
-6.1616e+08
-5.17176e+10
-1.12926e+08
-7.73424e+08
-5.15152e+10
-1.17182e+08
-9.54267e+08
-5.12647e+10
-1.20727e+08
-1.15544e+09
-5.09549e+10
-1.22511e+08
-1.38375e+09
-5.05612e+10
-1.20739e+08
-1.63619e+09
-5.00785e+10
-1.16378e+08
-1.87972e+09
-4.95317e+10
-1.09368e+08
-2.04903e+09
-4.89813e+10
-1.02807e+08
-2.09959e+09
-4.848e+10
-9.82983e+07
-2.03588e+09
-4.80607e+10
-9.70865e+07
-1.88941e+09
-4.77348e+10
-9.97372e+07
-1.69732e+09
-4.7496e+10
-1.06024e+08
-1.49093e+09
-4.733e+10
-1.15388e+08
-1.29351e+09
-4.72182e+10
-1.27011e+08
-1.11604e+09
-4.71453e+10
-1.40179e+08
-9.64049e+08
-4.70973e+10
-1.54386e+08
-8.36972e+08
-4.70629e+10
-1.68835e+08
-7.33236e+08
-4.70324e+10
-1.82872e+08
-6.50513e+08
-4.69996e+10
-1.96189e+08
-5.83349e+08
-4.69576e+10
-2.08752e+08
-5.3065e+08
-4.69022e+10
-2.20448e+08
-4.86994e+08
-4.68251e+10
-2.31318e+08
-4.52355e+08
-4.67208e+10
-2.41141e+08
-4.23573e+08
-4.65771e+10
-2.49641e+08
-3.97442e+08
-4.638e+10
-2.54866e+08
-3.72947e+08
-4.61143e+10
-2.53728e+08
-3.49047e+08
-4.57603e+10
-2.44575e+08
-3.27688e+08
-4.52979e+10
-2.27491e+08
-3.05414e+08
-4.47033e+10
-2.0258e+08
-2.8556e+08
-4.39456e+10
-1.65054e+08
-2.63488e+08
-4.29772e+10
-1.09014e+08
-2.22363e+08
-4.1629e+10
-9.24901e+07
-1.58096e+08
-3.93566e+10
-3.55628e+08
-2.37123e+06
-3.53334e+10
-3.59011e+08
1.18305e+08
-2.94283e+10
2.60467e+09
-3.39392e+08
-2.11002e+10
9.47836e+09
1.5134e+09
3.05651e+09
9.21484e+08
-5.06834e+10
-1.46038e+09
-5.07062e+10
-1.13437e+09
-5.07005e+10
-9.70156e+08
-5.06739e+10
-7.91425e+08
-5.06226e+10
-6.37326e+08
-5.05691e+10
-5.04744e+08
-5.05295e+10
-3.88518e+08
-5.04934e+10
-2.96698e+08
-5.04599e+10
-2.24993e+08
-5.04288e+10
-1.75446e+08
-5.03948e+10
-1.50051e+08
-5.03559e+10
-1.51439e+08
-5.03071e+10
-1.81721e+08
-5.02426e+10
-2.42644e+08
-5.01572e+10
-3.32547e+08
-5.0043e+10
-4.52571e+08
-4.98928e+10
-6.00018e+08
-4.96965e+10
-7.73522e+08
-4.94474e+10
-9.69172e+08
-4.91377e+10
-1.18346e+09
-4.8752e+10
-1.42155e+09
-4.82651e+10
-1.68167e+09
-4.7665e+10
-1.92819e+09
-4.69772e+10
-2.09504e+09
-4.62616e+10
-2.13825e+09
-4.55755e+10
-2.06107e+09
-4.496e+10
-1.89672e+09
-4.44357e+10
-1.68335e+09
-4.40063e+10
-1.45337e+09
-4.36659e+10
-1.23104e+09
-4.34024e+10
-1.02794e+09
-4.32047e+10
-8.50148e+08
-4.30619e+10
-6.97563e+08
-4.29642e+10
-5.68727e+08
-4.29028e+10
-4.60821e+08
-4.28734e+10
-3.68051e+08
-4.28711e+10
-2.89441e+08
-4.28929e+10
-2.1973e+08
-4.29325e+10
-1.58233e+08
-4.29876e+10
-1.02167e+08
-4.30476e+10
-5.14698e+07
-4.30979e+10
-5.08794e+06
-4.3118e+10
3.69231e+07
-4.30821e+10
6.96998e+07
-4.29706e+10
9.67433e+07
-4.27665e+10
1.12031e+08
-4.24357e+10
1.13119e+08
-4.19344e+10
1.27978e+08
-4.13433e+10
2.4158e+08
-4.15738e+10
9.89556e+08
-4.22207e+10
2.16727e+09
-3.41609e+10
-1.48377e+08
-1.59924e+09
-1.13848e+10
-7.07482e+09
-5.52134e+10
-7.179e+07
-1.45671e+09
-5.53503e+10
-7.70618e+07
-1.19235e+09
-5.54569e+10
-8.32793e+07
-1.04172e+09
-5.55406e+10
-8.97929e+07
-8.58773e+08
-5.56106e+10
-9.71842e+07
-6.95521e+08
-5.56701e+10
-1.04968e+08
-5.43183e+08
-5.57279e+10
-1.11196e+08
-4.05308e+08
-5.57908e+10
-1.15052e+08
-2.91915e+08
-5.58576e+10
-1.19517e+08
-1.98611e+08
-5.59256e+10
-1.25018e+08
-1.23356e+08
-5.59915e+10
-1.29816e+08
-7.43142e+07
-5.60514e+10
-1.33467e+08
-5.72895e+07
-5.61025e+10
-1.36675e+08
-7.24979e+07
-5.61406e+10
-1.4033e+08
-1.23028e+08
-5.61581e+10
-1.44842e+08
-2.1161e+08
-5.61498e+10
-1.50507e+08
-3.36136e+08
-5.61063e+10
-1.57302e+08
-4.97225e+08
-5.60204e+10
-1.65514e+08
-6.93059e+08
-5.5884e+10
-1.7522e+08
-9.18729e+08
-5.56894e+10
-1.87527e+08
-1.17365e+09
-5.54192e+10
-2.01052e+08
-1.46574e+09
-5.50324e+10
-2.15991e+08
-1.81596e+09
-5.44828e+10
-2.31644e+08
-2.19269e+09
-5.3781e+10
-2.47601e+08
-2.47397e+09
-5.30148e+10
-2.65322e+08
-2.55417e+09
-5.22684e+10
-2.81342e+08
-2.44131e+09
-5.15948e+10
-2.94396e+08
-2.20393e+09
-5.102e+10
-3.03827e+08
-1.90172e+09
-5.05456e+10
-3.10083e+08
-1.58678e+09
-5.01625e+10
-3.14467e+08
-1.29051e+09
-4.98544e+10
-3.18306e+08
-1.02921e+09
-4.96064e+10
-3.22696e+08
-8.05637e+08
-4.9403e+10
-3.28234e+08
-6.19862e+08
-4.92307e+10
-3.35298e+08
-4.67859e+08
-4.90814e+10
-3.44219e+08
-3.41967e+08
-4.8944e+10
-3.55187e+08
-2.39795e+08
-4.88126e+10
-3.68145e+08
-1.55093e+08
-4.86769e+10
-3.82886e+08
-8.72063e+07
-4.8533e+10
-3.99696e+08
-2.92255e+07
-4.83709e+10
-4.1921e+08
1.73207e+07
-4.81776e+10
-4.44105e+08
5.60742e+07
-4.79339e+10
-4.75799e+08
8.49265e+07
-4.76197e+10
-5.15421e+08
1.05655e+08
-4.72131e+10
-5.6429e+08
1.12959e+08
-4.66908e+10
-6.25376e+08
1.05326e+08
-4.60218e+10
-7.04333e+08
6.75448e+07
-4.51386e+10
-8.10651e+08
-2.59883e+07
-4.39211e+10