/*--------------------------------*- C++ -*----------------------------------*\
| =========                 |                                                 |
| \\      /  F ield         | OpenFOAM: The Open Source CFD Toolbox           |
|  \\    /   O peration     | Version:  4.1                                   |
|   \\  /    A nd           | Web:      www.OpenFOAM.org                      |
|    \\/     M anipulation  |                                                 |
\*---------------------------------------------------------------------------*/
FoamFile
{
    version     2.0;
    format      ascii;
    class       volScalarField;
    location    "94";
    object      p;
}
// * * * * * * * * * * * * * * * * * * * * * * * * * * * * * * * * * * * * * //

dimensions      [0 2 -2 0 0 0 0];

internalField   nonuniform List<scalar> 
4432
(
100961
100962
100963
100964
100967
100970
100974
100979
100984
100990
100996
101004
101011
101019
101027
101035
101041
101045
101049
101058
101074
101091
101109
101129
101151
101175
101198
101216
101230
101242
101252
101263
101278
101299
101318
101329
101336
101343
101350
101356
101361
101364
101366
101368
101368
101367
101365
101362
101358
101352
101346
101339
101333
101328
100961
100962
100963
100964
100967
100970
100974
100979
100984
100990
100996
101004
101011
101019
101027
101035
101041
101045
101049
101058
101074
101092
101110
101130
101153
101177
101198
101216
101230
101243
101255
101267
101281
101298
101316
101328
101336
101343
101351
101356
101360
101363
101365
101367
101368
101367
101364
101360
101357
101352
101346
101340
101333
101328
100960
100960
100961
100963
100965
100968
100972
100976
100981
100987
100994
101001
101009
101019
101029
101041
101057
101074
101088
101097
101108
101123
101138
101153
101167
101182
101197
101214
101230
101246
101259
101271
101282
101291
101302
101312
101324
101337
101349
101359
101361
101361
101363
101367
101368
101367
101365
101363
101360
101356
101350
101340
101327
101328
100960
100960
100961
100963
100965
100968
100972
100976
100981
100987
100994
101001
101009
101018
101029
101041
101057
101075
101089
101098
101108
101122
101136
101150
101165
101180
101196
101212
101228
101243
101255
101265
101276
101292
101305
101315
101326
101338
101349
101358
101361
101362
101364
101367
101369
101368
101366
101363
101361
101359
101352
101338
101325
101328
100958
100959
100960
100961
100964
100967
100971
100975
100980
100986
100993
101000
101008
101018
101028
101040
101052
101065
101075
101088
101104
101119
101134
101149
101163
101180
101198
101216
101234
101250
101263
101274
101288
101303
101312
101317
101329
101344
101358
101368
101368
101365
101368
101372
101373
101371
101368
101364
101359
101354
101348
101341
101332
101329
100958
100959
100960
100961
100964
100967
100971
100975
100980
100986
100993
101000
101008
101018
101028
101040
101052
101065
101076
101088
101103
101119
101133
101147
101162
101179
101196
101214
101232
101249
101262
101271
101283
101299
101312
101321
101331
101344
101357
101366
101369
101366
101369
101372
101373
101371
101368
101365
101360
101356
101350
101340
101332
101330
100956
100957
100958
100959
100962
100965
100968
100973
100978
100983
100990
100997
101005
101014
101024
101035
101047
101058
101069
101083
101100
101115
101129
101144
101160
101180
101201
101220
101240
101259
101273
101287
101309
101322
101324
101319
101328
101344
101359
101371
101371
101368
101373
101377
101377
101374
101370
101366
101361
101354
101348
101344
101336
101328
100956
100957
100958
100959
100962
100965
100968
100973
100978
100983
100990
100997
101005
101014
101024
101035
101047
101058
101069
101083
101099
101115
101129
101143
101160
101180
101200
101220
101241
101259
101273
101286
101305
101318
101325
101326
101334
101346
101360
101369
101369
101369
101373
101377
101376
101373
101370
101366
101360
101356
101351
101345
101335
101327
100954
100954
100955
100957
100959
100962
100965
100970
100975
100980
100987
100994
101002
101010
101020
101030
101042
101053
101063
101075
101090
101105
101121
101137
101156
101180
101204
101228
101251
101272
101288
101308
101329
101344
101369
101305
101316
101344
101368
101386
101384
101376
101382
101384
101382
101378
101373
101369
101365
101358
101352
101345
101338
101331
100954
100954
100955
100957
100959
100962
100965
100970
100975
100980
100987
100994
101002
101010
101020
101030
101042
101053
101063
101075
101089
101105
101121
101137
101157
101181
101205
101228
101253
101275
101291
101307
101327
101338
101344
101332
101334
101350
101370
101383
101382
101378
101381
101383
101382
101378
101373
101369
101364
101359
101354
101347
101336
101330
100950
100951
100952
100953
100956
100958
100962
100966
100971
100976
100982
100989
100997
101005
101014
101024
101035
101045
101056
101067
101081
101095
101111
101126
101146
101172
101199
101226
101253
101277
101294
101314
101338
101416
101556
101362
101301
101322
101354
101365
101374
101396
101397
101392
101387
101383
101378
101373
101367
101361
101354
101345
101338
101332
100950
100951
100952
100953
100956
100958
100962
100966
100971
100976
100982
100989
100997
101005
101014
101024
101035
101045
101055
101067
101080
101096
101111
101127
101148
101173
101199
101224
101252
101277
101295
101309
101326
101358
101385
101342
101319
101341
101372
101394
101402
101392
101391
101390
101388
101384
101379
101374
101368
101360
101353
101346
101339
101332
100947
100947
100948
100949
100952
100954
100958
100961
100966
100971
100977
100984
100991
100999
101008
101017
101027
101037
101048
101059
101071
101086
101101
101115
101131
101155
101184
101209
101233
101257
101281
101309
101355
101539
101490
101457
101335
101346
101371
101380
101391
101408
101408
101400
101394
101390
101385
101380
101373
101366
101357
101347
101337
101332
100947
100947
100948
100949
100952
100954
100958
100961
100966
100971
100977
100984
100991
100999
101008
101017
101027
101037
101048
101059
101071
101086
101102
101116
101133
101157
101183
101206
101232
101257
101278
101299
101326
101379
101438
101392
101315
101333
101370
101389
101397
101402
101402
101398
101393
101388
101383
101378
101372
101364
101355
101346
101338
101331
100942
100943
100943
100945
100947
100950
100953
100956
100961
100966
100971
100978
100985
100992
101001
101010
101019
101029
101040
101050
101062
101075
101089
101101
101112
101129
101156
101179
101198
101215
101237
101269
101300
101360
101411
101416
101353
101360
101383
101397
101404
101409
101408
101403
101397
101392
101387
101381
101374
101366
101356
101346
101335
101331
100942
100943
100943
100945
100947
100950
100953
100956
100961
100966
100971
100978
100985
100992
101001
101010
101019
101029
101040
101050
101062
101075
101088
101102
101114
101132
101155
101175
101195
101217
101237
101263
101303
101345
101385
101369
101343
101358
101385
101400
101406
101408
101406
101401
101396
101390
101385
101379
101373
101364
101355
101345
101335
101331
100937
100938
100939
100940
100942
100944
100947
100951
100955
100959
100965
100971
100977
100985
100993
101002
101011
101021
101031
101041
101052
101062
101072
101083
101090
101099
101117
101138
101161
101184
101207
101235
101277
101320
101361
101360
101356
101372
101393
101406
101410
101412
101411
101407
101400
101394
101389
101383
101376
101367
101356
101345
101334
101330
100937
100938
100939
100940
100942
100944
100947
100951
100955
100959
100965
100971
100977
100985
100993
101002
101011
101021
101031
101041
101052
101062
101072
101082
101090
101101
101117
101138
101159
101181
101206
101237
101279
101321
101353
101364
101368
101382
101400
101411
101415
101414
101411
101407
101402
101396
101389
101383
101377
101368
101357
101345
101336
101331
100932
100932
100933
100934
100936
100938
100941
100944
100948
100952
100957
100963
100969
100976
100984
100993
101002
101012
101021
101031
101041
101049
101055
101060
101063
101065
101077
101102
101131
101159
101188
101223
101267
101310
101350
101372
101387
101403
101418
101427
101430
101429
101425
101420
101412
101404
101397
101389
101381
101371
101359
101346
101335
101330
100932
100932
100933
100934
100936
100938
100941
100944
100948
100952
100957
100963
100969
100976
100984
100993
101002
101012
101021
101031
101041
101049
101055
101059
101061
101065
101079
101103
101130
101158
101189
101225
101267
101311
101349
101374
101391
101407
101423
101433
101435
101433
101428
101423
101415
101407
101398
101390
101382
101372
101359
101348
101336
101333
100926
100927
100927
100928
100930
100932
100934
100937
100941
100945
100949
100954
100960
100967
100975
100983
100992
101002
101012
101022
101031
101037
101039
101035
101026
101022
101037
101069
101106
101142
101178
101218
101261
101308
101351
101385
101411
101433
101450
101459
101460
101454
101445
101436
101426
101416
101405
101394
101384
101373
101361
101347
101333
101327
100926
100927
100927
100928
100930
100932
100934
100937
100941
100945
100949
100954
100960
100967
100975
100983
100992
101002
101012
101022
101031
101037
101039
101034
101025
101022
101038
101071
101106
101142
101178
101219
101264
101310
101351
101384
101411
101434
101452
101462
101462
101457
101448
101438
101428
101417
101406
101396
101386
101375
101362
101349
101331
101332
100920
100921
100921
100922
100923
100925
100927
100930
100933
100936
100940
100945
100951
100957
100964
100972
100982
100992
101003
101014
101024
101031
101029
101012
100978
100959
100982
101029
101076
101117
101158
101203
101252
101303
101351
101394
101431
101460
101481
101491
101488
101478
101464
101450
101437
101424
101411
101398
101386
101375
101362
101348
101332
101329
100920
100921
100921
100922
100923
100925
100927
100930
100933
100936
100940
100945
100951
100957
100964
100972
100982
100992
101003
101014
101024
101030
101028
101011
100976
100959
100984
101030
101075
101116
101158
101204
101253
101304
101351
101394
101430
101460
101482
101492
101490
101480
101466
101452
101439
101426
101413
101400
101388
101376
101362
101348
101328
101334
100914
100914
100915
100915
100916
100918
100920
100922
100924
100927
100931
100935
100940
100946
100952
100960
100970
100981
100994
101008
101023
101032
101029
100995
100914
100876
100913
100979
101039
101084
101128
101178
101234
101292
101350
101404
101452
101491
101518
101526
101519
101502
101482
101465
101448
101431
101415
101400
101387
101374
101361
101348
101330
101330
100914
100914
100915
100915
100916
100918
100920
100922
100924
100927
100931
100935
100940
100946
100952
100960
100970
100981
100994
101008
101023
101033
101028
100992
100907
100875
100918
100984
101039
101084
101128
101179
101234
101292
101349
101404
101453
101493
101520
101527
101519
101502
101484
101467
101449
101431
101415
101400
101387
101375
101361
101347
101328
101330
100907
100907
100908
100908
100909
100910
100912
100913
100915
100918
100921
100924
100928
100933
100939
100947
100956
100968
100983
101002
101027
101055
101069
101009
100824
100729
100817
100929
100999
101042
101088
101145
101207
101273
101342
101410
101475
101526
101564
101572
101554
101525
101499
101477
101455
101434
101415
101400
101386
101373
101359
101347
101328
101332
100907
100907
100908
100908
100909
100910
100912
100913
100915
100918
100921
100924
100928
100933
100939
100947
100956
100968
100983
101002
101027
101055
101070
101006
100806
100733
100826
100929
100998
101042
101089
101144
101207
101273
101342
101408
101475
101526
101580
101584
101558
101524
101495
101473
101452
101432
101414
101399
101385
101372
101359
101346
101330
101329
100900
100900
100901
100901
100902
100902
100903
100904
100906
100908
100910
100912
100916
100920
100925
100931
100940
100951
100966
100989
101026
101091
101157
101148
100587
100487
100654
100882
100970
100994
101035
101098
101167
101242
101323
101408
101492
101551
101621
101631
101591
101539
101502
101478
101454
101431
101411
101395
101382
101369
101358
101347
101332
101330
100900
100900
100901
100901
100902
100902
100903
100904
100906
100908
100910
100912
100916
100920
100925
100931
100940
100951
100966
100989
101026
101090
101154
101137
100514
100552
100706
100888
100967
100997
101039
101100
101168
101242
101326
101413
101503
101536
101617
101632
101586
101532
101499
101477
101454
101431
101411
101394
101380
101368
101357
101346
101334
101328
100893
100893
100893
100894
100894
100894
100895
100895
100896
100897
100898
100900
100902
100905
100908
100913
100920
100929
100942
100961
100991
101039
101156
101441
100436
100629
100854
100936
100938
100967
101027
101101
101184
101282
101389
101505
101549
101629
101686
101631
101551
101504
101476
101450
101424
101403
101386
101372
101360
101350
101342
101333
101326
100893
100893
100893
100894
100894
100894
100895
100895
100896
100897
100898
100900
100902
100905
100908
100913
100920
100929
100942
100961
100991
101038
101154
101429
100404
100644
100861
100938
100944
100974
101032
101103
101186
101274
101398
101515
101514
101512
101658
101618
101550
101505
101475
101446
101421
101401
101385
101371
101360
101351
101342
101334
101326
100886
100886
100886
100886
100886
100886
100886
100886
100886
100886
100886
100887
100888
100889
100891
100893
100897
100902
100909
100917
100926
100924
100886
100813
100525
100532
100808
100956
100954
100917
100918
100953
101007
101084
101187
101298
101426
101468
101540
101728
101672
101583
101516
101467
101430
101402
101382
101367
101355
101345
101339
101333
101330
101323
100886
100886
100886
100886
100886
100886
100886
100886
100886
100886
100886
100887
100888
100889
100891
100893
100897
100902
100909
100917
100926
100923
100884
100803
100519
100581
100836
100957
100947
100916
100922
100958
101008
101076
101131
101292
101313
101556
101496
101540
101574
101553
101511
101466
101428
101401
101381
101367
101355
101346
101339
101333
101330
101323
100879
100879
100879
100879
100878
100878
100877
100876
100876
100875
100874
100873
100873
100872
100872
100872
100872
100872
100872
100871
100864
100847
100814
100748
100677
100686
100829
100905
100908
100895
100888
100890
100906
100958
101112
101274
101262
101485
101781
101617
101582
101552
101492
101434
101392
101368
101353
101342
101334
101329
101327
101325
101325
101321
100879
100879
100879
100879
100878
100878
100877
100876
100876
100875
100874
100873
100873
100872
100872
100872
100872
100872
100872
100871
100864
100846
100813
100748
100673
100693
100829
100898
100901
100891
100887
100891
100903
100933
100976
101190
101019
101452
101909
100990
101395
101528
101495
101440
101395
101369
101353
101342
101335
101330
101327
101325
101325
101321
100872
100872
100872
100871
100870
100869
100868
100867
100865
100864
100862
100860
100857
100855
100852
100849
100846
100842
100836
100828
100816
100798
100772
100733
100686
100679
100723
100772
100803
100819
100824
100816
100798
100787
100881
101143
102170
101483
100679
100957
101418
101514
101457
101393
101351
101332
101322
101316
101312
101312
101314
101317
101321
101320
100872
100872
100872
100871
100870
100869
100868
100867
100865
100864
100862
100860
100857
100855
100852
100849
100846
100842
100836
100828
100816
100798
100771
100732
100686
100680
100724
100771
100800
100815
100821
100815
100801
100721
100849
101155
101692
99880.8
100341
99783.5
100472
101350
101453
101402
101356
101332
101322
101316
101312
101312
101315
101317
101321
101320
100866
100865
100865
100864
100863
100861
100860
100858
100855
100853
100849
100846
100842
100838
100833
100827
100820
100812
100802
100790
100773
100752
100725
100691
100656
100638
100648
100674
100696
100711
100716
100710
100613
100650
100718
99863.3
99457.2
99218.3
99217
99674.5
100501
101268
101378
101313
101287
101282
101281
101283
101287
101293
101300
101308
101315
101318
100866
100865
100865
100864
100863
100861
100860
100858
100855
100853
100849
100846
100842
100838
100833
100827
100820
100812
100802
100790
100773
100752
100725
100691
100656
100639
100650
100674
100695
100708
100716
100716
100718
100724
100661
100314
102527
99850.6
99395.9
99337.4
99906.7
100784
101297
101318
101283
101278
101280
101283
101287
101293
101301
101308
101316
101319
100859
100859
100858
100857
100856
100854
100851
100849
100845
100842
100837
100833
100827
100821
100813
100805
100795
100784
100770
100753
100733
100708
100679
100646
100614
100591
100583
100584
100584
100588
100591
100619
100386
100592
101072
100778
99273.8
99125.8
99400.2
99681.5
100117
100744
101127
101179
101207
101223
101235
101247
101261
101274
101286
101298
101310
101317
100859
100859
100858
100857
100856
100854
100851
100849
100845
100842
100837
100833
100827
100821
100813
100805
100795
100784
100770
100753
100733
100708
100679
100646
100614
100591
100583
100584
100583
100583
100582
100623
100580
100639
100969
100448
100726
99546.1
99593.4
99791.7
100270
100734
100984
101114
101194
101222
101236
101248
101262
101274
101286
101298
101310
101316
100853
100853
100852
100851
100849
100846
100843
100840
100836
100831
100826
100820
100813
100804
100795
100784
100771
100757
100739
100718
100694
100666
100634
100598
100562
100529
100501
100478
100457
100453
100472
100713
100517
99716.8
100026
100356
99477.7
99331.7
99555.3
99827.2
100077
100349
100903
101063
101141
101171
101192
101214
101236
101255
101272
101288
101306
101315
100853
100853
100852
100851
100849
100846
100843
100840
100836
100831
100826
100820
100813
100804
100795
100784
100771
100757
100739
100718
100694
100666
100634
100598
100562
100529
100501
100477
100452
100429
100397
100444
100679
99989.1
97108.3
98021
99149
99323.4
99621.6
99927.6
100272
100487
100775
101012
101133
101172
101194
101216
101237
101255
101272
101288
101305
101315
100847
100847
100846
100844
100842
100840
100836
100832
100827
100822
100815
100808
100799
100789
100778
100764
100749
100731
100710
100686
100658
100625
100588
100547
100502
100455
100407
100356
100306
100276
100342
100542
100838
99939.9
99146
99190.9
99250.8
99375.2
99454.6
99547.7
99820.3
100120
100604
100967
101089
101128
101154
101184
101213
101237
101258
101277
101300
101311
100847
100847
100846
100844
100842
100840
100836
100832
100827
100822
100815
100808
100799
100789
100778
100764
100749
100731
100710
100686
100658
100625
100588
100547
100502
100455
100406
100356
100297
100248
100169
100404
100604
100010
98200.2
98726.6
99195.2
99400.4
99471.1
99561.4
99904.9
100228
100574
100932
101078
101124
101155
101185
101213
101237
101258
101277
101300
101313
100842
100842
100841
100839
100836
100833
100829
100825
100819
100813
100805
100797
100787
100775
100762
100747
100729
100708
100684
100656
100624
100587
100544
100495
100440
100377
100306
100217
100121
99916.6
100126
100099
100586
94248.6
96057.1
98354.4
99201
99499.3
99377.2
99257.5
99543.6
100019
100517
100859
101003
101069
101114
101155
101191
101220
101245
101267
101292
101308
100842
100842
100841
100839
100836
100833
100829
100825
100819
100813
100805
100797
100787
100775
100762
100747
100729
100708
100684
100656
100624
100587
100544
100495
100440
100377
100306
100221
100117
99978.4
99875.7
99974.7
98591
98478.2
98517.1
98899.4
99392.2
99586.7
99383
99213.3
99554.8
100090
100545
100851
100996
101065
101114
101156
101192
101221
101246
101267
101291
101305
100838
100837
100836
100834
100831
100828
100824
100818
100812
100805
100797
100787
100776
100763
100748
100730
100710
100687
100660
100629
100593
100551
100502
100445
100378
100300
100206
100085
99929.7
99635.7
99215.1
100406
96750.9
94802.8
96788.8
98762.7
99809.8
100029
99608.3
99264.5
99501.9
99981.3
100431
100741
100905
101011
101077
101132
101176
101210
101238
101262
101287
101302
100838
100837
100836
100834
100831
100828
100824
100818
100812
100805
100797
100787
100776
100763
100748
100730
100710
100687
100660
100629
100593
100551
100502
100445
100378
100300
100206
100095
99938.7
99712.5
99431.7
99128.5
97508.7
96274.9
97907.8
99184.9
100009
100123
99612.7
99219
99494.2
100052
100492
100743
100900
101004
101076
101132
101176
101209
101239
101264
101289
101302
100834
100834
100832
100830
100827
100823
100818
100813
100806
100798
100789
100778
100766
100752
100736
100717
100695
100669
100640
100605
100565
100518
100464
100399
100322
100230
100117
99974.3
99782.5
99517.6
99041.6
98825.4
100298
100202
99830.1
100337
100916
100772
99982.3
99323.9
99434.7
99887.7
100315
100639
100838
100967
101052
101119
101168
101204
101234
101262
101292
101302
100834
100834
100832
100830
100827
100823
100818
100813
100806
100798
100789
100778
100766
100752
100736
100717
100695
100669
100640
100605
100565
100518
100464
100399
100322
100229
100111
99977.3
99808.1
99590.3
99312.1
98692
97966.7
98589.8
99538.7
100467
101086
100855
99984.3
99284.1
99417.3
99936.2
100363
100639
100829
100959
101047
101118
101167
101202
101233
101261
101294
101306
100831
100830
100829
100827
100823
100819
100814
100808
100801
100793
100783
100772
100758
100743
100726
100705
100682
100654
100622
100585
100542
100491
100432
100361
100276
100173
100047
99891.9
99683.8
99418.9
99012.7
98540.2
98907
99818.1
99734.6
100219
100944
100921
100169
99329.1
99344.5
99811.8
100291
100613
100804
100935
101038
101114
101165
101199
101229
101256
101290
101302
100831
100830
100829
100827
100823
100819
100814
100808
100801
100793
100783
100772
100758
100743
100726
100705
100682
100654
100622
100585
100542
100491
100432
100360
100275
100167
100044
99892.3
99687.8
99429.8
99206.7
98376.3
98268.3
99074.2
99696.6
100525
101083
100923
100184
99355.9
99320.3
99819.2
100314
100624
100804
100930
101030
101112
101164
101198
101226
101252
101288
101311
100829
100828
100826
100824
100820
100816
100811
100805
100797
100788
100778
100766
100752
100736
100718
100696
100671
100643
100609
100570
100524
100470
100407
100332
100241
100133
100000
99834.9
99621.2
99352.2
99031.3
98567.6
98353
98625.4
98205.1
98984.6
99914.5
100360
100216
99695.5
99593.3
99970.5
100397
100698
100834
100946
101050
101122
101168
101199
101223
101241
101268
101299
100829
100828
100826
100824
100820
100816
100811
100805
100797
100788
100778
100766
100752
100736
100718
100696
100671
100643
100609
100570
100524
100470
100407
100331
100241
100132
100006
99839.9
99614.5
99341.6
99005.5
98531.2
98411.1
98580.9
98914.8
99460.8
99608.9
99961.8
100047
99763.5
99633.9
99947.6
100390
100712
100857
100947
101042
101122
101169
101197
101222
101240
101262
101301
100827
100827
100825
100822
100819
100814
100809
100802
100795
100786
100775
100763
100748
100732
100713
100690
100665
100635
100600
100560
100512
100456
100390
100312
100218
100105
99967.7
99798.2
99587
99326.8
99029.9
98663.9
98354.9
97950.4
97264.2
97204.2
96672.7
96741.7
97191
98363.2
99260
100060
100509
100797
100956
101063
101137
101180
101207
101224
101235
101237
101243
101286
100827
100827
100825
100822
100819
100814
100809
100802
100795
100786
100775
100763
100748
100732
100713
100690
100665
100635
100600
100560
100512
100456
100390
100312
100218
100106
99969.7
99804.3
99587.7
99312.7
99036.7
98685.4
98343.5
98111.6
97705.9
97024.1
96202.9
96334.3
96929.4
98207.6
99327.9
100067
100506
100793
100955
101064
101136
101181
101205
101222
101238
101243
101245
101286
100826
100825
100824
100821
100818
100813
100808
100801
100793
100784
100773
100761
100746
100729
100710
100687
100661
100631
100595
100554
100506
100449
100381
100301
100206
100091
99951
99780.6
99572.4
99321.5
99030.2
98685.5
98277
97854.1
97369.8
96366.3
94590.8
93909.9
94458.1
96213.8
98147
99459.6
100180
100575
100866
101067
101160
101197
101218
101231
101235
101234
101230
101265
100826
100825
100824
100821
100818
100813
100808
100801
100793
100784
100773
100761
100746
100729
100710
100687
100661
100631
100595
100554
100506
100449
100381
100302
100206
100091
99951.6
99782.6
99573.8
99321.9
99039.8
98732.6
98409.8
97930.1
96980.6
95677.1
94601
94074.9
94539.4
96122.3
98069.3
99458.7
100187
100567
100838
101054
101164
101196
101214
101231
101238
101240
101242
101284
100674
101141
100627
101553
101561
100594
100530
100572
100464
100428
100611
101135
100570
101557
101520
100563
100448
100549
100417
100396
101445
100876
100559
100866
100495
100517
100442
100535
100393
100465
100384
101413
100863
100477
100862
100470
100419
100405
100441
100394
100434
100414
100928
101007
100923
101049
100923
101046
100915
100764
100815
100757
100724
100652
100704
100632
100915
101005
100911
101043
100888
101042
100872
100754
100802
100752
100667
100613
100648
100610
101220
101156
101218
101206
101353
101206
101356
100532
100666
100580
100675
100551
100572
100524
100606
100414
100433
100394
100437
101214
101153
101213
101205
101345
101201
101351
100438
100602
100485
100575
100443
100627
100558
100637
100389
100455
100410
100501
101248
101156
101249
101027
101012
101026
101009
100674
101454
101146
101145
100720
100442
100474
100463
100408
100464
100429
100490
100424
100497
101241
101152
101246
101024
101004
101023
101006
100658
101427
101134
100664
101133
100399
100401
100476
100418
100505
100443
100519
100469
100539
100672
100809
100665
100777
100682
100777
100682
100380
100521
100416
100590
100566
100592
100579
100656
100802
100655
100776
100682
100776
100684
100452
100520
100461
100596
100590
100598
100593
100995
100901
100663
100896
101032
100994
100651
100879
100889
100981
101374
101467
101567
101474
101388
101161
101200
101375
101476
101563
101473
101382
101162
101161
100504
100556
100618
100645
100448
100535
100550
100531
100466
100456
100461
100543
100512
100461
100516
100438
100435
100445
100466
100976
100857
100592
100845
100981
100974
100571
100838
100828
100971
101393
101477
101550
101392
101481
101204
101202
101392
101469
101537
101470
101364
101228
101156
100402
100464
100523
100554
100320
100447
100458
100443
100434
100401
100458
100422
100424
100369
100445
100428
100394
100416
100447
100343
100397
100670
101449
101142
101141
100666
100338
100326
100377
100654
100542
100651
100428
100371
100519
100625
100355
100638
100459
100499
100479
100453
100489
100423
100405
100437
100462
100401
100417
100409
100438
100512
100524
100510
100452
100427
100497
100464
100418
100492
100319
100326
100649
101425
101133
101137
100676
100310
100351
100342
100616
100463
100354
100607
100331
100461
100599
100604
100373
100403
100404
100386
100404
100386
100406
100408
100406
100400
100396
100388
100402
100402
100440
100422
100413
100428
100395
100421
100430
100425
100386
101210
101067
101146
101290
101063
101291
101216
101181
101039
101135
101277
101032
101174
101284
101207
101144
101054
101287
101059
101290
101203
100578
100629
100590
100479
100625
100483
100582
100549
100582
100581
100478
100604
100484
100507
101195
101143
101048
101304
101045
101296
101201
100502
100571
100551
100473
100558
100499
100461
100506
100546
100544
100461
100549
100463
100487
100783
100955
100791
100873
100950
100789
100790
100775
100944
100869
100777
100945
100773
100783
100402
100407
100428
100384
100389
100421
100414
100382
100373
100376
100414
100374
100379
100416
100761
100940
100772
100860
100767
100937
100766
100753
100945
100861
100760
100942
100763
100756
100379
100373
100410
100403
100378
100378
100405
100374
100386
100411
100387
100382
100391
100373
100516
100616
100401
100546
100631
100481
100443
100260
100146
100113
100275
100263
100084
100100
100229
100502
100547
100620
100445
100627
100451
100494
100330
100535
100444
100157
100542
100309
100189
100042
99946.4
100079
99918.6
100343
100444
100540
100231
100366
100538
100212
100011
99863.2
99892.2
99979.9
101121
100895
100920
100678
100894
101118
100925
101355
101590
101603
101363
101347
101587
101590
101343
101134
100677
100939
100931
100909
100930
101131
100452
100467
101119
100891
100657
100911
100888
101116
100908
101352
101595
101592
101341
101346
101590
101590
101330
101121
100659
100898
100915
101117
100894
100909
100399
100399
100525
100934
100556
100998
100939
100518
100562
100326
100184
100156
100348
100314
100126
100133
100309
100517
100999
100939
100601
100940
100558
100583
100505
100930
100551
100992
100513
100925
100542
100270
100031
100061
100248
100286
100107
100300
100083
100495
100988
100910
100510
100921
100527
100476
101606
101432
101583
101372
101432
101581
101604
101672
101664
101678
101659
101663
101661
101667
101658
101616
101382
101432
101592
101437
101597
101595
101159
101167
101608
101432
101380
101586
101435
101604
101589
101667
101675
101681
101664
101612
101383
101437
101613
101438
101592
101625
101663
101661
101659
101663
101162
101158
100415
100594
100350
100483
100448
100576
100310
100128
99970.7
100105
99999.5
100147
100051
100185
100020
100393
100457
100540
100261
100379
100549
100283
100542
100544
100488
100518
100500
100538
100522
100501
100487
100495
100526
100534
100496
100486
100506
100481
100522
100495
100538
100527
100511
100525
100504
100497
100490
100469
100473
100507
100498
100492
100496
100478
100483
100458
100457
100452
100464
100464
100480
100473
100463
100483
100473
100456
100463
100485
100468
100472
100439
100873
100986
100501
100889
100418
100507
100215
100012
99995.9
100226
100439
100981
100894
100522
100887
100451
100507
100209
99949.8
99975.6
100190
100374
100853
100503
100972
100382
100851
100505
100162
99986.5
99923.5
100221
100158
99937.5
100172
99915.7
100370
100934
100853
100510
100843
100475
100453
101672
101404
101432
101732
101437
101675
101676
101732
101691
101689
101708
101669
101405
101429
101684
101428
101661
101684
101727
101700
101690
101735
101198
101211
101628
101416
101702
101377
101412
101638
101692
101730
101629
101698
101641
101712
101682
101709
101694
101635
101365
101412
101668
101416
101751
101603
101216
101167
100273
100518
100095
100361
100281
100510
100056
99892.8
99895.8
99814.3
99961.4
99927.3
99846
99950.4
99815.3
100214
100321
100446
100022
100473
100019
100224
100453
100457
100424
100447
100442
100435
100448
100440
100420
100439
100451
100448
100441
100436
100450
100466
100454
100446
100457
100445
100427
100420
100420
100429
100391
100365
100423
100442
100431
100448
100455
100417
100432
100424
100412
100412
100429
100421
100414
100415
100414
100427
100439
100455
100440
100456
100432
100429
100348
100343
101119
100895
100916
100670
101116
100894
100918
101341
101586
101337
101584
101344
101587
101341
101588
101121
100669
100892
100919
101119