/*--------------------------------*- C++ -*----------------------------------*\
| =========                 |                                                 |
| \\      /  F ield         | OpenFOAM: The Open Source CFD Toolbox           |
|  \\    /   O peration     | Version:  4.1                                   |
|   \\  /    A nd           | Web:      www.OpenFOAM.org                      |
|    \\/     M anipulation  |                                                 |
\*---------------------------------------------------------------------------*/
FoamFile
{
    version     2.0;
    format      ascii;
    class       volScalarField;
    location    "36";
    object      omega;
}
// * * * * * * * * * * * * * * * * * * * * * * * * * * * * * * * * * * * * * //

dimensions      [0 0 -1 0 0 0 0];

internalField   nonuniform List<scalar> 
4432
(
0.0111054
0.0114363
0.0118072
0.0121507
0.0124921
0.0128404
0.0131621
0.0135003
0.0138134
0.014134
0.0144399
0.0147391
0.0150305
0.0153013
0.0155726
0.0158132
0.0160565
0.0162728
0.0164848
0.0166649
0.016838
0.0170027
0.0171715
0.0173675
0.0175843
0.0178259
0.0181049
0.0183607
0.018651
0.0188743
0.0191873
0.0193765
0.0199402
0.0207963
0.0221271
0.0239929
0.0250971
0.0285787
0.0267822
0.0271269
0.0274661
0.0277021
0.0294373
0.0315694
0.0306309
0.0308309
0.031769
0.0329312
0.0327255
0.0338017
0.0349227
0.067453
0.086943
0.0787285
0.0110803
0.0114578
0.0118026
0.0121551
0.0125001
0.0128379
0.0131693
0.0135019
0.0138159
0.0141447
0.0144396
0.0147601
0.0150298
0.0153344
0.015579
0.0158557
0.0160871
0.0163277
0.0165502
0.0167527
0.0169475
0.0171335
0.0173171
0.0175081
0.0177318
0.0179349
0.0182011
0.0184291
0.0187224
0.0189454
0.0193236
0.0195754
0.0205512
0.0211963
0.0230331
0.0242958
0.0233105
0.0239049
0.0246243
0.0251009
0.0257774
0.028779
0.027852
0.0283483
0.0291781
0.030964
0.0304327
0.0306796
0.0316587
0.0325016
0.0340236
0.0382299
0.0468774
0.0718784
21.7868
3.37642
1.21969
0.657928
0.434445
0.319999
0.251658
0.206705
0.175028
0.151673
0.133657
0.119511
0.107917
0.0984642
0.0903573
0.0835741
0.0775685
0.0724778
0.0678799
0.0639456
0.060336
0.0572477
0.0543731
0.051914
0.0496992
0.0477913
0.0461592
0.0446662
0.0434519
0.0421805
0.0411443
0.0398622
0.0388022
0.0375819
0.0365863
0.0354805
0.034613
0.0336037
0.0330248
0.0319579
0.0310875
0.0302034
0.0292431
0.0284476
0.0277132
0.0271472
0.0263913
0.026128
0.0259547
0.0263167
0.0270976
0.0504227
0.171889
0.36471
21.7867
3.37659
1.21972
0.657945
0.43448
0.320036
0.25171
0.20674
0.175095
0.151705
0.133743
0.119544
0.108021
0.0985053
0.0904794
0.083639
0.0777271
0.0725595
0.068053
0.0640522
0.0605599
0.0574295
0.0546716
0.0521948
0.0500318
0.0481186
0.0464208
0.044939
0.0435549
0.0423115
0.0410873
0.0398704
0.038701
0.0375832
0.0365822
0.0355922
0.0347376
0.0338785
0.0331706
0.0323715
0.0317011
0.0309434
0.030184
0.029576
0.0289307
0.0283054
0.0279276
0.0271818
0.0269946
0.0267168
0.0267248
0.028573
0.0990143
0.12491
21.7887
3.37763
1.22229
0.659624
0.43527
0.320446
0.251976
0.207
0.17531
0.151961
0.133948
0.11981
0.108246
0.0988131
0.0907817
0.0840439
0.0781835
0.0731323
0.0687196
0.0647598
0.061293
0.0580531
0.0552839
0.0526457
0.0504887
0.0484242
0.0467634
0.0451741
0.0438559
0.0425973
0.0414582
0.0403904
0.0393443
0.0383619
0.0373621
0.0364486
0.0354573
0.0345092
0.0336248
0.0327082
0.0318301
0.0308358
0.0299461
0.0292024
0.0283771
0.0277647
0.0271251
0.026625
0.0263575
0.0261629
0.0261253
0.0288155
0.0484803
0.0778327
21.7887
3.37783
1.22238
0.659683
0.435326
0.320491
0.252033
0.20704
0.175382
0.152006
0.13404
0.119867
0.108353
0.0988881
0.0908924
0.0841503
0.0782945
0.0732773
0.0688111
0.0649232
0.0613817
0.0582725
0.0554575
0.0529501
0.0507877
0.0487534
0.0471177
0.0454699
0.0441553
0.0428503
0.0416743
0.0405896
0.0394851
0.0384975
0.0374605
0.0364871
0.0355472
0.0344408
0.0336773
0.0325411
0.0316716
0.030503
0.0296831
0.0288113
0.0281336
0.0274422
0.0268195
0.0264901
0.0259756
0.0258412
0.0255818
0.0275573
0.031427
0.0505324
21.7891
3.3777
1.22261
0.659826
0.435348
0.32045
0.25199
0.206967
0.175341
0.151911
0.134006
0.119744
0.108327
0.0987446
0.0908844
0.0840003
0.0783031
0.0731111
0.0688249
0.0647321
0.0614162
0.0580873
0.0554583
0.0527803
0.0506595
0.0486024
0.0468637
0.0453502
0.0438791
0.0427694
0.0414852
0.0404763
0.0393845
0.0383239
0.0373294
0.0362947
0.0351946
0.0341766
0.0328684
0.0319153
0.0306287
0.0298343
0.028783
0.0280463
0.0273016
0.0265623
0.0261761
0.025924
0.0257927
0.025602
0.0248238
0.0266024
0.0469786
0.134082
21.789
3.37786
1.22265
0.659855
0.435387
0.320493
0.252036
0.207016
0.17539
0.151977
0.134059
0.119838
0.108379
0.0988688
0.090929
0.0841554
0.0783419
0.0732865
0.0688514
0.0649238
0.0614344
0.0583279
0.0555173
0.0530948
0.0508144
0.0489249
0.047151
0.0455703
0.044234
0.0428997
0.0417572
0.040624
0.0395296
0.0384301
0.0373092
0.0362524
0.0350841
0.0340627
0.0328352
0.0319535
0.0308958
0.0300809
0.029287
0.0285883
0.0278374
0.0274606
0.0270115
0.0266618
0.0264367
0.0257778
0.0252903
0.0269241
0.0310819
0.0938417
21.7894
3.37774
1.22281
0.659944
0.435379
0.32045
0.251965
0.206963
0.175304
0.151927
0.133962
0.119783
0.108286
0.0987977
0.0908606
0.0840679
0.078289
0.0731861
0.0687972
0.0648365
0.0614037
0.0582436
0.0554942
0.0529728
0.0507251
0.0487708
0.0469819
0.0454042
0.0440496
0.0427234
0.0414858
0.0401694
0.0389155
0.0377389
0.0365799
0.0354498
0.0343742
0.0332661
0.0321939
0.0312149
0.0303032
0.0293635
0.0288276
0.0281149
0.0274665
0.0269517
0.0265341
0.0258633
0.0253804
0.0247746
0.0243702
0.0266348
0.0296737
0.0585541
21.7893
3.378
1.22297
0.660044
0.435451
0.320498
0.252023
0.206998
0.175377
0.15196
0.134056
0.119827
0.108391
0.0988655
0.0909602
0.084157
0.0783862
0.0732746
0.0689132
0.064899
0.0615461
0.0582735
0.0556588
0.0529743
0.0509142
0.0487195
0.0471188
0.0453347
0.0440353
0.0424886
0.041329
0.039965
0.0387969
0.0375927
0.0365003
0.0352536
0.034121
0.0329341
0.0318119
0.0307759
0.0298773
0.0289927
0.0282725
0.0275383
0.027095
0.0264386
0.0260036
0.0255435
0.0249778
0.0247352
0.0241562
0.0249716
0.0301285
0.0365932
21.7898
3.37801
1.22342
0.660318
0.435527
0.320481
0.251978
0.206941
0.175315
0.151908
0.133975
0.119791
0.108283
0.0988545
0.0908226
0.0841786
0.0782155
0.073344
0.0687048
0.0650396
0.0613101
0.0584561
0.0553684
0.0530913
0.0505801
0.0487579
0.0468328
0.0453211
0.0439194
0.0425083
0.0414449
0.0400623
0.0390511
0.037705
0.0365927
0.035248
0.034078
0.0328662
0.0317216
0.0306209
0.0296805
0.0288036
0.0281224
0.0273157
0.0268097
0.0260321
0.0256171
0.0250566
0.0247815
0.0246763
0.0246959
0.0254489
0.0281789
0.0365851
21.7897
3.37818
1.22347
0.660356
0.435565
0.320526
0.252018
0.20699
0.175367
0.151954
0.134059
0.119819
0.108415
0.0988471
0.0910117
0.0841248
0.0784586
0.0732433
0.0690006
0.064883
0.0616358
0.0582725
0.055708
0.0529645
0.0508837
0.0487174
0.0469969
0.0453305
0.0438323
0.0424275
0.0411101
0.0398131
0.0384204
0.0371846
0.0359758
0.0347097
0.033702
0.0324963
0.0316198
0.0305402
0.0296305
0.0288597
0.027973
0.0273169
0.0266746
0.0260457
0.025607
0.025102
0.0248555
0.024337
0.024451
0.0248515
0.0271201
0.0302079
21.7901
3.37817
1.22374
0.660513
0.435588
0.320494
0.251959
0.206933
0.175295
0.151894
0.133976
0.119759
0.108318
0.0987965
0.0908995
0.084094
0.0783347
0.0732253
0.0688581
0.064885
0.0614842
0.0583089
0.0555503
0.0529887
0.0506955
0.0487022
0.0468194
0.045282
0.0437838
0.0424788
0.0411639
0.0400729
0.038649
0.0377227
0.036228
0.0352672
0.0338753
0.0329005
0.031588
0.0306366
0.0295791
0.0288171
0.0280776
0.0275416
0.0268386
0.0264655
0.0263408
0.0256384
0.0259374
0.0260198
0.0262867
0.0267542
0.0303172
0.0317473
21.79
3.37834
1.22381
0.660559
0.435632
0.320537
0.252003
0.206981
0.175345
0.151954
0.134034
0.119833
0.108384
0.0988839
0.0909635
0.0841972
0.0783756
0.0733666
0.0688544
0.0650733
0.0614441
0.0585035
0.0555367
0.0531596
0.0507697
0.0488301
0.0469406
0.0453665
0.0437631
0.0424582
0.0410285
0.0398449
0.0385263
0.0373514
0.0360272
0.0349533
0.0336189
0.0325428
0.0315978
0.0304457
0.0295816
0.0287318
0.0281167
0.0274025
0.0268235
0.0263704
0.0256482
0.0255509
0.0256122
0.0257436
0.0264855
0.0262208
0.0287767
0.0296785
21.7906
3.37838
1.22437
0.660907
0.435733
0.320536
0.251946
0.206939
0.175259
0.151914
0.133934
0.119794
0.10828
0.0988341
0.090877
0.0841241
0.0783322
0.0732512
0.0688734
0.0649141
0.0615156
0.0583766
0.0555974
0.0530476
0.0507835
0.0486519
0.0469422
0.0451477
0.0438688
0.0422975
0.0411595
0.0397634
0.038607
0.0373047
0.0362245
0.0348395
0.0337397
0.0326388
0.03171
0.0306167
0.0296868
0.029213
0.027672
0.0274425
0.0267968
0.0266084
0.0258447
0.0261959
0.0268991
0.0284932
0.0279155
0.0284846
0.0295314
0.0312346
21.7905
3.37851
1.22436
0.660906
0.435755
0.320566
0.251989
0.206976
0.175314
0.151959
0.133996
0.119854
0.108342
0.0989108
0.0909352
0.084205
0.0783881
0.073335
0.0689121
0.0650254
0.0614991
0.058508
0.0555455
0.0532252
0.0507209
0.0489078
0.0468453
0.0453816
0.0437304
0.0423368
0.0409181
0.0395626
0.0382494
0.0369193
0.0355781
0.0343396
0.0330444
0.0320536
0.0310391
0.0301174
0.0293775
0.0286813
0.0281747
0.0275965
0.0269349
0.026384
0.026353
0.026392
0.0256965
0.0258227
0.0265745
0.0266621
0.0277113
0.0289338
21.7909
3.37853
1.22469
0.661095
0.435789
0.320536
0.251924
0.206919
0.17523
0.151901
0.1339
0.119788
0.108243
0.0988317
0.090837
0.0841202
0.0782906
0.0732506
0.0688307
0.0649298
0.0615169
0.0584062
0.0556627
0.0530777
0.0508445
0.0486522
0.0469419
0.0450447
0.0437515
0.042199
0.040925
0.0398036
0.0384507
0.0373281
0.0361701
0.0346649
0.0336521
0.0325339
0.0315353
0.0306973
0.0296921
0.029203
0.0281798
0.0277931
0.0267624
0.0266677
0.0267777
0.0267318
0.027177
0.0286072
0.030182
0.0321628
0.0332284
0.0346593
21.7908
3.3787
1.22475
0.661133
0.435824
0.32058
0.251959
0.206972
0.175268
0.151967
0.133943
0.119871
0.108282
0.0989379
0.0908615
0.0842476
0.0782969
0.0733937
0.0688293
0.0650762
0.0614846
0.0585246
0.0556058
0.0532021
0.0507592
0.0488747
0.0467983
0.0452734
0.0435803
0.0422939
0.0407527
0.03968
0.0382012
0.0370496
0.0356882
0.0345704
0.0329865
0.0321123
0.030801
0.0298864
0.0289248
0.0280855
0.0276006
0.027226
0.0266162
0.0264912
0.0256944
0.0259778
0.0259711
0.0267761
0.0282553
0.0287036
0.0306843
0.0312122
21.7914
3.37877
1.22535
0.661496
0.435937
0.320564
0.251922
0.206891
0.175224
0.15186
0.133907
0.119737
0.108259
0.0987757
0.090843
0.0840738
0.0782732
0.0732344
0.0688225
0.0649558
0.0615253
0.0584862
0.0556803
0.0531811
0.0508452
0.048787
0.0469502
0.0450379
0.0437622
0.0419745
0.0408196
0.0392517
0.0380372
0.0368058
0.0353384
0.0342114
0.0331244
0.032104
0.0312076
0.0300852
0.0292684
0.0289104
0.0276217
0.0275446
0.0274361
0.0275904
0.0281835
0.0293282
0.0311498
0.0339419
0.0358537
0.0382044
0.0404316
0.0428779
21.7913
3.37888
1.22532
0.661484
0.435948
0.320599
0.251945
0.206946
0.175248
0.151933
0.133932
0.119826
0.108285
0.0988752
0.090874
0.0841714
0.0783117
0.0733214
0.068853
0.0650315
0.0615116
0.0585025
0.0556428
0.0531777
0.05089
0.0487929
0.04701
0.0450918
0.0437575
0.042046
0.0408298
0.0393563
0.0382167
0.0366325
0.0356125
0.0342047
0.0330099
0.0319076
0.0313316
0.029509
0.0291663
0.0284297
0.028282
0.0274463
0.0269588
0.0266955
0.0265762
0.0272508
0.0276396
0.027788
0.028472
0.0298515
0.0328849
0.0349343
21.7917
3.37884
1.22553
0.661591
0.435955
0.32054
0.251901
0.206847
0.175209
0.151807
0.133903
0.119672
0.108261
0.0986973
0.0908455
0.0839735
0.0782735
0.0731053
0.0688162
0.0648026
0.0615209
0.0583568
0.0556769
0.0531938
0.0509831
0.0490477
0.0471097
0.0453911
0.0437607
0.0421886
0.0407913
0.0394598
0.0379975
0.0367962
0.0356011
0.0342892
0.0328834
0.0321861
0.031003
0.0308445
0.0293486
0.0291839
0.0295753
0.0319793
0.0303351
0.0310333
0.032949
0.0347004
0.0364325
0.0379661
0.0406527
0.0425573
0.0459019
0.0473782
21.7915
3.37901
1.22555
0.661606
0.435978
0.320577
0.25193
0.206899
0.175241
0.151874
0.133939
0.11975
0.108303
0.0987794
0.0908975
0.0840497
0.0783429
0.0731574
0.0689131
0.0647948
0.0616141
0.0582637
0.0557365
0.0531086
0.0509912
0.0489019
0.0471314
0.0452409
0.0437462
0.0419487
0.0406122
0.0392414
0.0378666
0.0367449
0.0353503
0.0342342
0.0330437
0.0319468
0.0310846
0.0297407
0.0292596
0.0279934
0.027645
0.0272587
0.0278066
0.0273075
0.0276121
0.028919
0.0294309
0.0310957
0.0318824
0.0338803
0.0358332
0.0401196
21.7921
3.37905
1.22609
0.661931
0.436069
0.320566
0.251871
0.206844
0.175152
0.15182
0.133826
0.119696
0.108169
0.0987151
0.0907442
0.0839637
0.0781545
0.0730624
0.0686532
0.0647591
0.0613292
0.0582957
0.0556438
0.0532378
0.051339
0.0493272
0.047554
0.0455576
0.0440209
0.0422158
0.0407846
0.0394891
0.0379209
0.0369291
0.0352314
0.0344591
0.0326609
0.0322256
0.0317651
0.0314736
0.032015
0.0323163
0.0328335
0.0329178
0.0337173
0.0355507
0.0382689
0.0407936
0.0430615
0.0423833
0.0450266
0.044039
0.0473795
0.0463966
21.792
3.37917
1.2261
0.661937
0.43609
0.320591
0.251909
0.206874
0.175204
0.151853
0.133889
0.119744
0.108224
0.0987948
0.0907727
0.0840854
0.0781602
0.0731968
0.0686755
0.0648203
0.0613742
0.0582236
0.0556165
0.053114
0.0511413
0.0491443
0.0473232
0.0454835
0.0439229
0.0422701
0.0408753
0.0394719
0.0380939
0.0367907
0.0354034
0.034158
0.0331835
0.0320394
0.0310722
0.0305493
0.0298174
0.0295407
0.029387
0.0295268
0.0310828
0.0311351
0.031672
0.0325752
0.0342145
0.0356513
0.0369135
0.0380913
0.0410553
0.0477816
21.7923
3.3791
1.22625
0.662013
0.436088
0.320527
0.251866
0.206774
0.175166
0.151737
0.133845
0.119615
0.10817
0.0986476
0.0907133
0.0838942
0.0780926
0.0729537
0.0685631
0.0645622
0.0611707
0.0581407
0.0554614
0.0535916
0.0524223
0.0512261
0.0487613
0.047147
0.0451162
0.043695
0.0423631
0.0411772
0.0402383
0.039874
0.0402064
0.0404104
0.0407242
0.0407175
0.0407237
0.0412318
0.0418823
0.0428768
0.0437483
0.0443509
0.0444671
0.0443778
0.0440431
0.0433413
0.0437013
0.0423133
0.0421912
0.041765
0.045716
0.0464371
21.7922
3.37926
1.22628
0.662034
0.436104
0.320572
0.251877
0.206844
0.175169
0.151826
0.133852
0.119712
0.108187
0.0987462
0.0907371
0.084006
0.0781072
0.0730924
0.06856
0.0647079
0.0611415
0.0581848
0.0554196
0.0535191
0.05208
0.0509949
0.049008
0.0471035
0.0454103
0.0435284
0.0421574
0.0404111
0.0391981
0.0376909
0.0368229
0.0354633
0.0354052
0.0349897
0.0352158
0.035303
0.0359329
0.0368649
0.0377507
0.0388913
0.0393062
0.0403891
0.0402831
0.0406074
0.0412466
0.0416259
0.0414923
0.0419613
0.0477636
0.0500937
21.7927
3.37927
1.22676
0.66232
0.436193
0.32054
0.251855
0.206743
0.175158
0.151684
0.133864
0.119525
0.108222
0.0985078
0.0907899
0.0837015
0.0781701
0.0726844
0.0686232
0.0641449
0.0612342
0.0574655
0.0562552
0.0558476
0.0619657
0.0892144
0.0909675
0.0928321
0.0939534
0.0941668
0.0909401
0.0872171
0.0841455
0.0809119
0.0774318
0.0741431
0.0708875
0.0676953
0.0648028
0.0612401
0.0581542
0.0546955
0.0519024
0.0496751
0.0455999
0.0447789
0.0439502
0.0437467
0.0417852
0.0421298
0.0415095
0.041014
0.0482278
0.0500679
21.7925
3.37935
1.22664
0.662241
0.43617
0.320556
0.251872
0.206785
0.175183
0.15174
0.133892
0.119597
0.10825
0.0985987
0.0908171
0.0838073
0.0782128
0.0727908
0.0686969
0.0642462
0.0612763
0.0575978
0.0560128
0.0555093
0.0625627
0.0857807
0.0808175
0.0797467
0.0777588
0.0749239
0.0720472
0.0693599
0.0668359
0.065126
0.0634566
0.06224
0.0608942
0.0606505
0.059585
0.0584548
0.0575667
0.0564312
0.0547551
0.0527205
0.0502915
0.0485667
0.0474351
0.0455559
0.0449388
0.0445467
0.044137
0.0442252
0.0463067
0.0540185
21.7928
3.37929
1.22682
0.662338
0.436182
0.320502
0.251839
0.206695
0.175155
0.15163
0.133871
0.119465
0.108241
0.0984289
0.0908316
0.0835807
0.0782363
0.072513
0.0686674
0.0639508
0.061214
0.0567837
0.0581502
0.0672195
0.206524
0.348333
0.186857
0.130348
0.104638
0.0898504
0.0809869
0.0753295
0.0696073
0.065894
0.061594
0.0589827
0.0562047
0.0544824
0.0517244
0.0500056
0.049837
0.0472584
0.0464092
0.0453512
0.0445991
0.044243
0.0441404
0.0438647
0.0443807
0.0438499
0.0444479
0.0444167
0.046285
0.0479917
21.7926
3.37939
1.22672
0.662272
0.436166
0.32052
0.25186
0.206731
0.175193
0.151665
0.133931
0.119493
0.10832
0.0984585
0.0909161
0.0836228
0.0783366
0.0725413
0.0688439
0.0638976
0.0614634
0.056925
0.0570933
0.0647233
0.198668
0.3138
0.180686
0.131516
0.111876
0.0997942
0.0910015
0.0846014
0.0793809
0.0751265
0.0711052
0.0673931
0.0641181
0.0607315
0.0575765
0.0551712
0.0523899
0.0503299
0.0488603
0.0459427
0.0450507
0.0444218
0.0442224
0.0438896
0.043381
0.0442847
0.0457167
0.0465419
0.059592
0.0581617
21.793
3.37938
1.22712
0.662515
0.436237
0.320499
0.251827
0.206669
0.175151
0.151597
0.133883
0.119422
0.108263
0.0983819
0.0908474
0.0835428
0.0782283
0.0724756
0.0686742
0.0637667
0.0614543
0.0567401
0.0560672
0.130458
0.234517
0.200599
0.154317
0.132439
0.118688
0.108395
0.0998653
0.0927011
0.0860351
0.0793759
0.0747923
0.0694366
0.0650437
0.0605933
0.0568056
0.0541343
0.0494805
0.0484573
0.0452607
0.0445196
0.0454892
0.0450662
0.0445072
0.0470747
0.0483887
0.0487504
0.0499403
0.0524901
0.0511419
21.7928
3.37941
1.22699
0.66243
0.436206
0.32051
0.251837
0.206708
0.17517
0.151647
0.133911
0.119477
0.108303
0.0984415
0.0909009
0.0836058
0.0783123
0.0725245
0.0688329
0.0637618
0.0616793
0.056599
0.0579102
0.135429
0.209426
0.192534
0.144745
0.12457
0.109477
0.0994558
0.090841
0.084394
0.0786393
0.0738683
0.0690617
0.0657306
0.0626665
0.0576002
0.0550917
0.0528501
0.0497281
0.0490853
0.0448672
0.0440099
0.0428473
0.0435896
0.0475664
0.0458939
0.0484519
0.0517745
0.0545773
0.0540085
0.0560059
21.793
3.37933
1.22703
0.662444
0.436166
0.32049
0.251745
0.206722
0.175025
0.151721
0.133699
0.119617
0.108028
0.0986315
0.0905901
0.0838147
0.0779867
0.0727502
0.0684339
0.0641618
0.0609417
0.0575082
0.0555652
0.0598438
0.0990719
0.0841977
0.0783406
0.0732521
0.0671747
0.0613986
0.0559592
0.0511562
0.0471283
0.0441313
0.0421413
0.0373339
0.0369758
0.03359
0.0327524
0.0338965
0.0312697
0.0328304
0.034997
0.0438116
0.0374021
0.0441855
0.0409341
0.0434143
0.047149
0.0520755
0.0528044
0.0544144
0.0567667
0.0517358
21.7928
3.37939
1.22692
0.662378
0.436149
0.320502
0.251766
0.206753
0.175055
0.151764
0.133727
0.119682
0.108041
0.098731
0.0905787
0.0839553
0.0779578
0.072928
0.0684139
0.0643483
0.0609844
0.0576259
0.0557621
0.0594195
0.092142
0.074151
0.0707541
0.0680616
0.0647536
0.0608651
0.0573016
0.0535808
0.0503739
0.0470047
0.0448939
0.0421789
0.0417754
0.0373635
0.0363232
0.0348905
0.0358756
0.0336183
0.0338784
0.0373496
0.0364939
0.0367188
0.0405257
0.0490048
0.0437803
0.0447266
0.0488986
0.056888
0.0502541
0.0525582
21.7931
3.37935
1.22717
0.662523
0.436185
0.320475
0.251745
0.206693
0.175046
0.151685
0.133739
0.119587
0.108064
0.0986394
0.0905905
0.083892
0.0779435
0.0729007
0.0683729
0.0643644
0.0608516
0.0576389
0.0549779
0.0528489
0.0520461
0.0503968
0.048464
0.0462553
0.0442892
0.042264
0.0406308
0.038857
0.0372379
0.0357484
0.0344143
0.0336433
0.0317304
0.031376
0.0318535
0.030466
0.031278
0.0305807
0.0304583
0.0309598
0.0361983
0.0345366
0.0354956
0.0420116
0.0462226
0.0531776
0.0466596
0.0524255
0.051403
0.0512331
21.7928
3.37926
1.22689
0.662349
0.436121
0.32046
0.251761
0.206704
0.175086
0.151692
0.133806
0.119573
0.108174
0.0985883
0.0907542
0.0838149
0.0781359
0.0728473
0.0685576
0.0643792
0.061054
0.0577541
0.0552158
0.0532028
0.0521205
0.0507255
0.0486263
0.0469118
0.0447364
0.0432188
0.0413071
0.0397716
0.0383537
0.0367487
0.0357606
0.0336208
0.0328646
0.032064
0.0316567
0.0312197
0.0313867
0.0330186
0.0313721
0.0371217
0.0329742
0.0339597
0.0430775
0.0377786
0.0396124
0.0421473
0.0418123
0.0428622
0.0458762
0.0471533
21.7929
3.37925
1.227
0.662399
0.436119
0.320425
0.251733
0.206655
0.175063
0.151644
0.133781
0.119542
0.108126
0.0986042
0.0906592
0.0839003
0.0779883
0.072999
0.0683816
0.0645549
0.0608919
0.0577695
0.0549375
0.0524269
0.0504232
0.0484925
0.0466803
0.0448623
0.0430498
0.0413272
0.0397507
0.038021
0.0366877
0.0353675
0.0339352
0.0328301
0.0320259
0.0313637
0.0310633
0.0304492
0.0313295
0.0318726
0.0320935
0.032525
0.0326701
0.0328421
0.034333
0.035069
0.0410901
0.0470656
0.0452387
0.045921
0.0543786
0.0485988
21.7927
3.37927
1.22684
0.662298
0.43608
0.320436
0.251734
0.206702
0.17506
0.151711
0.133773
0.11962
0.108128
0.0986758
0.0906874
0.0839574
0.0780469
0.0730556
0.0684551
0.0646413
0.0609679
0.0579296
0.0550936
0.0526985
0.0506813
0.0489135
0.0470048
0.0454248
0.0434961
0.0421187
0.0402242
0.0390868
0.0373295
0.0360206
0.0347207
0.0337969
0.0329081
0.0323786
0.0303045
0.0321971
0.0295784
0.0296683
0.0302626
0.0310045
0.0320954
0.0320657
0.0339366
0.0356925
0.0411895
0.0368178
0.0419752
0.0426854
0.0445842
0.044517
21.7929
3.3792
1.227
0.662401
0.436102
0.32042
0.251709
0.206673
0.175034
0.151688
0.133747
0.119607
0.108099
0.0986782
0.0906538
0.0839802
0.0780078
0.0731014
0.0684068
0.0647147
0.060885
0.0580287
0.0548859
0.0526054
0.0501316
0.0483639
0.0462934
0.0447135
0.0428159
0.0412504
0.0396992
0.0379333
0.0368483
0.0350826
0.0339171
0.0328043
0.0311475
0.030527
0.0299431
0.0294743
0.0291882
0.0295346
0.033563
0.0295547
0.0312496
0.0318021
0.0335184
0.0343371
0.0361637
0.0359754
0.038176
0.0404166
0.0480836
0.0446362
21.7927
3.37921
1.22685
0.6623
0.436063
0.320416
0.251718
0.206689
0.175057
0.151705
0.133784
0.119619
0.108154
0.0986797
0.0907382
0.0839587
0.0781472
0.0730353
0.0686302
0.0645983
0.0611955
0.0579146
0.0552318
0.0526222
0.0504972
0.0484638
0.0466682
0.0448269
0.0433226
0.041529
0.0402581
0.0387138
0.0371527
0.0361401
0.0347009
0.033695
0.0327818
0.0317928
0.0301521
0.0297924
0.0295156
0.0293878
0.0303479
0.0290939
0.0320326
0.0304232
0.0342202
0.0316715
0.0337297
0.0325141
0.0380737
0.0357423
0.0393712
0.039498
21.7928
3.37908
1.22676
0.662232
0.436017
0.320372
0.251693
0.206648
0.175045
0.151664
0.133781
0.11958
0.108156
0.0986541
0.0907318
0.0839698
0.0781076
0.073111
0.0685415
0.0647405
0.0610706
0.0580737
0.0550973
0.0526759
0.0502947
0.048334
0.0463951
0.0446499
0.0429037
0.0414936
0.0397387
0.0383713
0.0369388
0.0354836
0.0340235
0.0331567
0.0318734
0.0309362
0.0306775
0.0291463
0.0300499
0.0317708
0.0294965
0.029309
0.0320143
0.0333101
0.0351578
0.0343574
0.0367319
0.0380702
0.0423951
0.0396871
0.0385143
0.0399936
21.7926
3.37912
1.22664
0.662151
0.435986
0.320376
0.251699
0.206678
0.17505
0.151711
0.133777
0.119645
0.108145
0.0987325
0.0907241
0.084051
0.0781185
0.0731938
0.06857
0.0648449
0.0611091
0.0582123
0.0551817
0.0528461
0.050439
0.0485141
0.0465355
0.0448416
0.0431247
0.0416742
0.0401184
0.0387379
0.0375115
0.0360636
0.0346214
0.0335989
0.032459
0.0308277
0.030674
0.0295782
0.0298981
0.0296381
0.0291635
0.0283713
0.0285039
0.0267842
0.0283466
0.0275898
0.0290468
0.0293361
0.0297621
0.0322153
0.0329458
0.0412897
21.7927
3.37901
1.2267
0.662192
0.435986
0.320362
0.251675
0.206662
0.175028
0.151698
0.133765
0.119631
0.108146
0.0987171
0.090736
0.0840407
0.0781347
0.0731907
0.0685953
0.0648322
0.0611617
0.058171
0.0552572
0.0527293
0.0504634
0.0483219
0.046447
0.0446841
0.0429274
0.041554
0.0398473
0.0385661
0.0371669
0.035672
0.0346543
0.0335169
0.0325212
0.031136
0.0302498
0.029336
0.0287588
0.0283737
0.0270983
0.0273462
0.0269229
0.0270049
0.0288834
0.0279646
0.0289325
0.0314671
0.0293645
0.0304766
0.0316915
0.0412178
21.7925
3.37901
1.22654
0.662087
0.435944
0.320356
0.251678
0.206678
0.175039
0.151719
0.133782
0.119647
0.108183
0.0987142
0.0908082
0.0840138
0.0782461
0.0731513
0.0687343
0.0648113
0.0612966
0.0582241
0.055332
0.0529137
0.0504898
0.0485956
0.0464795
0.0449179
0.0430643
0.0416551
0.0400269
0.0388408
0.0373036
0.0360862
0.0348333
0.033636
0.032382
0.0315544
0.0304689
0.0296499
0.0287227
0.0277534
0.0274462
0.0263425
0.0261311
0.0258771
0.0273546
0.0279852
0.0281323
0.0288737
0.0303006
0.0313562
0.0360916
0.0561393
21.7925
3.37888
1.22645
0.662026
0.435908
0.320318
0.251664
0.206639
0.175041
0.151676
0.133795
0.119607
0.108197
0.0986863
0.0908213
0.0839909
0.0782732
0.0731159
0.0687828
0.0647647
0.0613478
0.0581706
0.0553654
0.0528359
0.0504654
0.0484184
0.0464274
0.0446718
0.0430033
0.0414187
0.0400218
0.0385241
0.0373753
0.0358741
0.0350005
0.0335474
0.0327638
0.0313222
0.0304941
0.029333
0.0286074
0.0274639
0.0270435
0.0265729
0.0264576
0.0262936
0.027162
0.028284
0.0285218
0.0291707
0.0288756
0.0297406
0.0356275
0.0561968
21.7923
3.37891
1.2263
0.661921
0.435865
0.320315
0.251665
0.206664
0.175041
0.151717
0.133785
0.119665
0.108178
0.0987579
0.090804
0.0840663
0.0782735
0.0731879
0.0688088
0.0648397
0.0613942
0.0582534
0.0554463
0.0529178
0.0505876
0.0485089
0.046601
0.0447457
0.0431986
0.041486
0.0401435
0.0386767
0.0374223
0.0361186
0.0350036
0.033708
0.0328369
0.031577
0.0308967
0.029762
0.0291197
0.0280821
0.0274669
0.0269105
0.0267665
0.0262246
0.0263728
0.0284019
0.0280814
0.028819
0.0292804
0.0325862
0.0492357
0.0787961
21.7923
3.37877
1.22629
0.661926
0.43586
0.320296
0.251657
0.206637
0.175047
0.151681
0.13381
0.11962
0.108217
0.0987101
0.0908443
0.084034
0.0782952
0.0731826
0.0688057
0.0648479
0.0613792
0.0582594
0.0554161
0.0528988
0.0505378
0.0484303
0.0464963
0.0446797
0.0430725
0.0414846
0.0400998
0.0386754
0.0374018
0.0361554
0.0349366
0.0337684
0.0326229
0.0315751
0.0306663
0.0295567
0.0289293
0.0281059
0.0275066
0.0268342
0.0267632
0.0266238
0.0265462
0.0266929
0.0273192
0.0278279
0.0288369
0.0327618
0.0496264
0.0727421
21.7921
3.37878
1.22615
0.661826
0.435817
0.32029
0.251653
0.206657
0.175042
0.151716
0.133793
0.119673
0.108185
0.0987872
0.0907965
0.0841342
0.0782459
0.0732868
0.0687935
0.0649167
0.0614476
0.0582715
0.0555432
0.0529135
0.050655
0.0485089
0.0465659
0.0448327
0.0431055
0.0415955
0.0401195
0.0387494
0.0374515
0.0363561
0.0350744
0.0340936
0.0327924
0.031991
0.0309121
0.0301163
0.0291121
0.0285839
0.0278919
0.0273999
0.0269127
0.0267611
0.0271467
0.0277295
0.0289528
0.0297051
0.0326975
0.0412521
0.0688454
0.0969967
21.7921
3.37866
1.22607
0.661775
0.435783
0.320264
0.251636
0.206636
0.175031
0.151697
0.133786
0.119657
0.108178
0.0987773
0.0907852
0.0841334
0.0782256
0.0732942
0.0687639
0.0649227
0.0614148
0.0582582
0.0555191
0.0528638
0.0506472
0.0483827
0.0465962
0.0446405
0.0431529
0.0414165
0.040137
0.0386254
0.0375078
0.0362932
0.0352538
0.0342981
0.0332615
0.0324086
0.0315173
0.030846
0.0302912
0.0298158
0.0294542
0.028997
0.0286732
0.0282444
0.0280176
0.0288724
0.0289196
0.0300449
0.035256
0.0477089
0.0736006
0.0925984
21.7919
3.37867
1.22591
0.66167
0.435742
0.320256
0.25164
0.206646
0.175044
0.151709
0.133806
0.119662
0.108212
0.098771
0.0908411
0.0841158
0.0783002
0.0732841
0.0688324
0.0649586
0.0614439
0.0583548
0.0555234
0.0529816
0.0506561
0.0485268
0.0465854
0.0447937
0.0431287
0.0416849
0.0401644
0.0389198
0.0375448
0.0364808
0.0353153
0.0344347
0.0334812
0.0327411
0.0319193
0.031241
0.0304215
0.0301122
0.0293005
0.0288104
0.0284957
0.0275858
0.0280568
0.0295412
0.0307663
0.0333418
0.0460329
0.070427
0.0941826
0.118032
21.792
3.37855
1.2259
0.661665
0.435734
0.320244
0.251629
0.206634
0.175036
0.151698
0.133801
0.119653
0.108209
0.0987615
0.0908411
0.084101
0.0783065
0.0732566
0.0688461
0.0649126
0.0614603
0.0583004
0.0555293
0.0529214
0.0506396
0.048465
0.0465427
0.0447307
0.0430919
0.0415806
0.0401832
0.0389204
0.0377476
0.0367018
0.0357236
0.0348801
0.03406
0.0333838
0.0327457
0.0320382
0.031549
0.0310807
0.0303797
0.0301038
0.02877
0.0282821
0.0286246
0.0295685
0.0316538
0.035655
0.0521053
0.09271
0.13981
0.132145
21.7918
3.37855
1.22574
0.661558
0.435688
0.320232
0.251627
0.206642
0.175039
0.151711
0.133803
0.11967
0.108212
0.0987831
0.0908475
0.08413
0.0783174
0.0732978
0.0688605
0.0649723
0.0614749
0.0583785
0.0555388
0.0530111
0.0506601
0.0485495
0.04658
0.0448008
0.0431405
0.0416323
0.040237
0.0389684
0.0378339
0.036634
0.0362144
0.0336505
0.0332802
0.0324129
0.0320996
0.0305685
0.0300874
0.0300883
0.0295916
0.0291234
0.0287989
0.0274982
0.0282459
0.0300726
0.0330925
0.0432875
0.0821584
0.122709
0.136257
0.123552
21.7918
3.3785
1.22574
0.661557
0.435683
0.320221
0.251617
0.206626
0.175029
0.151692
0.133796
0.11965
0.108208
0.0987604
0.0908437
0.0841041
0.0783122
0.0732675
0.0688509
0.064936
0.0614589
0.0583345
0.0555149
0.0529634
0.050616
0.0484955
0.0465167
0.0447379
0.0430621
0.0415625
0.0401584
0.0388911
0.0377342
0.0366827
0.0357413
0.0348498
0.0340926
0.0333422
0.0327425
0.0320739
0.0316951
0.0306506
0.0300652
0.0298436
0.0289496
0.0287428
0.0291437
0.0324097
0.0358306
0.0470479
0.0969266
0.188745
0.203669
0.193145
21.7916
3.3785
1.22559
0.661461
0.435645
0.320212
0.25162
0.206634
0.175038
0.151704
0.133805
0.119663
0.108219
0.0987785
0.0908577
0.0841289
0.0783308
0.0733013
0.0688769
0.0649792
0.061495
0.0583805
0.0555669
0.0530087
0.0506856
0.0485498
0.0466056
0.0448043
0.0431682
0.0416502
0.0402675
0.0390008
0.0378335
0.0367923
0.035805
0.0349783
0.0341156
0.0334863
0.0328881
0.0321013
0.0309214
0.0302381
0.0294474
0.0288687
0.0281899
0.0279777
0.0292514
0.0337786
0.0376449
0.0609999
0.112662
0.190649
0.212198
0.157936
21.7916
3.37852
1.22573
0.661561
0.435698
0.32024
0.251636
0.206646
0.175047
0.151711
0.133814
0.119669
0.108227
0.0987798
0.0908661
0.0841234
0.078338
0.0732863
0.0688802
0.0649539
0.0614922
0.0583515
0.055555
0.0529754
0.0506607
0.0485122
0.0465571
0.0447662
0.0430933
0.041604
0.0401752
0.038928
0.0377316
0.0366926
0.0356934
0.0348185
0.0340229
0.0332699
0.0326188
0.0319358
0.031364
0.0307825
0.0301612
0.0297169
0.0296034
0.0314882
0.0327291
0.037999
0.0369218
0.0677678
0.193074
0.296167
0.269653
0.215688
21.7914
3.37852
1.22559
0.661466
0.435657
0.320229
0.251635
0.206652
0.175053
0.151721
0.133821
0.119679
0.108235
0.0987925
0.0908768
0.0841395
0.0783543
0.0733073
0.0689052
0.0649807
0.0615264
0.0583826
0.0555949
0.0530122
0.0507137
0.0485524
0.0466279
0.0448087
0.0431783
0.0416508
0.0402623
0.0389913
0.0378194
0.036775
0.0357833
0.034968
0.0340702
0.0335562
0.0325719
0.0320057
0.031113
0.0304618
0.0297934
0.0295377
0.0295675
0.0312875
0.0338343
0.0371388
0.0399281
0.071516
0.165055
0.276277
0.286438
0.322263
21.7916
3.37797
1.22536
0.661171
0.43528
0.319837
0.251266
0.206304
0.174737
0.151416
0.133533
0.119393
0.107964
0.0985104
0.090605
0.0838522
0.0780765
0.0730151