/*--------------------------------*- C++ -*----------------------------------*\
| =========                 |                                                 |
| \\      /  F ield         | OpenFOAM: The Open Source CFD Toolbox           |
|  \\    /   O peration     | Version:  4.1                                   |
|   \\  /    A nd           | Web:      www.OpenFOAM.org                      |
|    \\/     M anipulation  |                                                 |
\*---------------------------------------------------------------------------*/
FoamFile
{
    version     2.0;
    format      ascii;
    class       surfaceScalarField;
    location    "36";
    object      phi;
}
// * * * * * * * * * * * * * * * * * * * * * * * * * * * * * * * * * * * * * //

dimensions      [0 3 -1 0 0 0 0];

internalField   nonuniform List<scalar> 
11516
(
9.9873e+06
918.239
10319.1
9.97296e+06
735.145
21859.6
9.94664e+06
973.479
32536.9
9.90917e+06
763.625
42669.9
9.86091e+06
628.664
52712.1
9.80252e+06
665.075
62571.5
9.73498e+06
797.574
71975
9.65921e+06
956.142
80741.9
9.57575e+06
1066.34
88862.8
9.48412e+06
1018.55
96768.9
9.38329e+06
728.239
104745
9.27212e+06
210.865
112872
9.15075e+06
-529.822
121678
9.02302e+06
-996.895
128249
8.89935e+06
-2111.77
130577
8.80315e+06
-559.89
109653
8.74712e+06
3164.28
73804.5
8.72654e+06
4338.54
42683.4
8.66947e+06
4053.5
81302.1
8.5485e+06
6866.34
142372
8.4027e+06
2789.61
167656
8.24403e+06
-539.365
181482
8.0752e+06
-4425.17
194994
7.88686e+06
-9728.75
221619
7.66748e+06
-16256.8
258619
7.44168e+06
-22087.6
269117
7.23123e+06
-18894.8
253516
7.04832e+06
-11438.8
221713
6.9106e+06
-14130
183027
6.84868e+06
-25491.6
117578
6.91402e+06
-30805.7
1762.09
7.14062e+06
-21355.9
-173301
7.49548e+06
7501.79
-333774
7.88752e+06
45667.3
-413500
8.31024e+06
77314.9
-451372
8.73949e+06
27746
-481591
8.97723e+06
56671.1
-336028
9.12832e+06
75335
-219826
9.21818e+06
78881.7
-150255
9.28489e+06
43239.3
-24377.5
9.19319e+06
-12934.1
248370
8.93215e+06
-32391.7
485406
8.59192e+06
-18540.5
598642
8.27098e+06
51180.4
656652
7.99095e+06
50053.1
721572
7.88326e+06
12627.8
643490
7.79485e+06
50308.5
763345
7.76658e+06
-18805.1
746930
7.92589e+06
14699.4
645150
8.71865e+06
-19001.8
290568
8.72846e+06
55398.8
357206
1.25801e+07
-1.34194e+06
-1.9314e+06
1.78707e+07
-2.2816e+06
-2.23323e+06
-1.46979e+06
1.94221e+06
9.9887e+06
10302.7
9.97297e+06
21857.2
9.94607e+06
32465.6
9.90812e+06
42491.1
9.85958e+06
52412.4
9.80124e+06
62176
9.734e+06
71521
9.65862e+06
80322.9
9.57545e+06
88612.2
9.48385e+06
96831.7
9.38262e+06
105348
9.27077e+06
114106
9.14799e+06
123670
9.01826e+06
131508
8.88988e+06
133259
8.78448e+06
116502
8.73409e+06
70605.4
8.72312e+06
33523.7
8.67053e+06
75420.3
8.55133e+06
141234
8.40468e+06
163838
8.2462e+06
172409
8.07277e+06
184193
7.87417e+06
204450
7.63648e+06
236769
7.38404e+06
247461
7.14294e+06
240250
6.93068e+06
220134
6.761e+06
174025
6.65732e+06
99568.5
6.64899e+06
-5659.48
6.80252e+06
-155229
7.1241e+06
-292957
7.53813e+06
-355559
7.94895e+06
-346468
8.25667e+06
-308821
8.46451e+06
-169627
8.62474e+06
-99975.9
8.78034e+06
-32829.6
8.89267e+06
26426
8.73901e+06
240995
8.37338e+06
485797
7.98743e+06
618109
7.64302e+06
666054
7.28568e+06
787383
7.06807e+06
708225
6.90489e+06
756778
6.62234e+06
840200
6.38432e+06
638736
6.87582e+06
390717
6.22134e+06
456696
8.39315e+06
-2.83262e+06
9.62901e+06
-3.12149e+06
-3.54595e+06
1.00078e+07
914.217
5621.89
1.00204e+07
626.215
16434.9
1.00318e+07
801.234
26827.2
1.00418e+07
558.525
37105.5
1.00505e+07
414.835
47535
1.00581e+07
459.988
58289.4
1.00645e+07
629.482
69320.2
1.00698e+07
879.165
80403.3
1.0073e+07
1147.41
92195.7
1.00736e+07
1378.44
104073
1.00707e+07
1481.92
116638
1.00631e+07
1398.8
129764
1.00498e+07
1357.03
144606
1.00293e+07
1316.64
158669
9.99116e+06
2273.99
179210
9.91874e+06
3202.04
192217
9.80597e+06
4480.32
198389
9.58937e+06
2236.34
264831
9.34054e+06
1183.49
333563
9.1281e+06
548.507
357804
8.94108e+06
1804.46
356436
8.77404e+06
2727.8
350297
8.61763e+06
3255.9
353948
8.46342e+06
4539.74
377627
8.31136e+06
5029.94
412132
8.15155e+06
4555.94
431704
7.97648e+06
4563.36
432410
7.77995e+06
4260.43
422558
7.6069e+06
138.231
361469
7.53693e+06
-6697.35
195401
7.64065e+06
-8199.9
-97852.7
7.89033e+06
9566.82
-439302
8.19957e+06
24146.6
-678676
8.53947e+06
23165
-798403
8.87384e+06
-3879.14
-832087
9.03068e+06
-8588.43
-674162
9.0676e+06
-54649.6
-347457
9.05151e+06
-59423.1
-172813
9.06401e+06
-29330.6
-106706
9.18684e+06
-75377.2
-14196.2
9.34965e+06
-142189
291339
9.53028e+06
-188906
627792
9.79092e+06
-188024
737636
1.00633e+07
-182747
829995
1.03434e+07
-150558
939298
1.06018e+07
-115835
916688
1.09334e+07
-78638.4
953874
1.12206e+07
-37826.6
933642
1.14892e+07
-137472
806979
1.12411e+07
-152166
810098
8.72025e+06
-325960
3.42565e+06
4.82321e+06
-1.52599e+06
4.30146e+06
3.56572e+06
545164
-256906
1.73269e+06
-1.0699e+06
1.00092e+07
5605.54
1.00203e+07
16418.9
1.0031e+07
26789.1
1.00402e+07
37037.3
1.00483e+07
47431.1
1.00555e+07
58138.6
1.00617e+07
69116.5
1.0067e+07
80152.1
1.00702e+07
91954.3
1.0071e+07
103880
1.00684e+07
116651
1.00612e+07
130195
1.00489e+07
145171
1.003e+07
160573
9.99872e+06
177822
9.93625e+06
193723
9.81567e+06
205896
9.59136e+06
264191
9.33924e+06
331293
9.12641e+06
356728
8.94142e+06
352625
8.77397e+06
345358
8.6175e+06
348344
8.46111e+06
370579
8.30781e+06
400620
8.14694e+06
419586
7.96356e+06
436534
7.75751e+06
438850
7.55769e+06
379696
7.42046e+06
229325
7.44834e+06
-47896.7
7.67861e+06
-385708
8.00681e+06
-608070
8.35468e+06
-705009
8.68232e+06
-713256
8.90492e+06
-588611
9.03895e+06
-398130
9.11901e+06
-235942
9.22477e+06
-130508
9.45117e+06
-251980
9.62343e+06
6.81122
9.72192e+06
324604
9.87639e+06
450432
1.00448e+07
570122
1.01883e+07
764926
1.03312e+07
733568
1.05647e+07
789915
1.07636e+07
887192
1.07825e+07
744340
9.87152e+06
1.21677e+06
6.6155e+06
3.56847e+06
-1.32909e+06
4.05677e+06
-2.51881e+06
-974178
-2.1299e+06
9.99991e+06
899.181
7223.6
1.00004e+07
613.918
23008.1
9.9946e+06
783.741
38103.9
9.98321e+06
532.078
52764.5
9.96662e+06
384.976
67479.8
9.94543e+06
447.243
82536.5
9.92059e+06
666.317
97749.9
9.89213e+06
1005.06
113782
9.8612e+06
1411.89
129959
9.82701e+06
1827.61
147233
9.78951e+06
2147.04
165030
9.7477e+06
2342.16
184039
9.70097e+06
2403.71
204925
9.64696e+06
2503.36
227402
9.58915e+06
2484.15
251908
9.51124e+06
3137.16
280928
9.41473e+06
1508.81
300436
9.31113e+06
413.02
368033
9.21069e+06
460.804
433636
9.10333e+06
910.691
464414
8.98827e+06
1643.1
470360
8.86737e+06
2156.41
471232
8.73664e+06
3215.93
486590
8.59293e+06
5621.74
521982
8.43413e+06
6768.77
570873
8.25379e+06
8493.43
612475
8.03231e+06
10013.2
656002
7.76567e+06
6756.54
695442
7.51488e+06
-4633.34
625936
7.37964e+06
-11249.6
342568
7.41779e+06
-1608.66
-141348
7.56303e+06
15242
-611870
7.72327e+06
42775.7
-902100
7.88536e+06
68529.9
-1.0728e+06
8.07496e+06
56805.6
-1.12323e+06
8.12959e+06
-1074.46
-762792
8.03015e+06
-102268
-188205
7.91781e+06
-163235
73312.2
7.87697e+06
-190053
121349
7.92033e+06
-222687
142418
7.92894e+06
-138003
435162
7.91902e+06
-176982
884982
8.16445e+06
-214724
866259
8.53045e+06
-206767
912494
8.96273e+06
-177520
940008
9.35764e+06
-95624.9
916747
9.8999e+06
-11501.2
805057
1.04537e+07
19747
735942
1.10938e+07
10999.5
474259
1.20863e+07
-323273
308413
1.46877e+07
-351332
1.23371e+06
1.71524e+07
-472615
2.42369e+06
1.45126e+07
166946
2.45268e+06
-694633
-498373
1.00012e+07
7212.54
1.00003e+07
23029.5
9.99387e+06
38098
9.98187e+06
52733.7
9.9648e+06
67432.3
9.94343e+06
82480.4
9.91867e+06
97698.8
9.89046e+06
113756
9.85984e+06
129996
9.8259e+06
147371
9.78861e+06
165332
9.74699e+06
184562
9.70028e+06
205591
9.64718e+06
228314
9.58567e+06
252331
9.50956e+06
281382
9.41464e+06
301931
9.31119e+06
367370
9.20872e+06
434098
9.10221e+06
463877
8.98737e+06
469478
8.86732e+06
470136
8.73773e+06
485471
8.59062e+06
528615
8.42767e+06
576404
8.24259e+06
622007
8.0126e+06
688326
7.72993e+06
740105
7.42617e+06
686264
7.22077e+06
422943
7.24539e+06
-80607.4
7.42896e+06
-562875
7.67666e+06
-831271
7.95153e+06
-940096
8.22179e+06
-970429
8.30057e+06
-709684
8.23877e+06
-457373
8.16747e+06
-346954
8.1479e+06
-381188
8.40166e+06
-803671
8.42651e+06
-149140
8.34545e+06
314752
8.48506e+06
276164
8.74966e+06
291305
8.99791e+06
524553
9.34213e+06
535747
9.78936e+06
575766
1.03545e+07
613889
1.08866e+07
427506
1.15027e+07
392929
1.37168e+07
1.09491e+06
1.57889e+07
1.56415e+06
1.37669e+07
1.28787e+06
-3.15805e+06
9.99957e+06
886.771
9283.85
1.00003e+07
644.617
29426.9
9.99511e+06
803.723
48934.8
9.98429e+06
547.284
67947.6
9.96803e+06
391.921
87175.2
9.94689e+06
441.774
106855
9.92077e+06
650.637
127648
9.89076e+06
987.954
149090
9.85682e+06
1415.34
171379
9.81895e+06
1870.67
195070
9.77633e+06
2266.8
219931
9.72792e+06
2550.12
246487
9.67311e+06
2627.11
274577
9.61105e+06
2591.5
303732
9.53947e+06
1995.44
334548
9.45508e+06
1715.98
368728
9.3472e+06
-679.727
402639
9.24553e+06
1108.68
464380
9.16656e+06
15.8667
511336
9.08745e+06
538.156
542191
8.9963e+06
1459.88
560626
8.88785e+06
1765.32
581426
8.75276e+06
2374.23
625359
8.59212e+06
4234.33
686044
8.4072e+06
3490.45
761253
8.18496e+06
4095.88
842855
7.89407e+06
4257.94
957603
7.5397e+06
-1534
1.06624e+06
7.20009e+06
-11097.6
988676
6.99688e+06
-9633.02
560514
6.93341e+06
3732.65
-81844.1
6.90562e+06
15205.9
-602039
6.88123e+06
33791.6
-917711
6.92261e+06
60875.4
-1.18289e+06
7.04876e+06
52907.8
-1.31156e+06
7.0714e+06
-71930.1
-726659
6.88155e+06
-276856
261873
6.72573e+06
-337426
500685
6.67215e+06
-335080
415173
6.65786e+06
-106867
184761
6.67911e+06
-5070.82
408459
6.68068e+06
-37221.9
948777
6.88422e+06
-74178.1
867489
7.17103e+06
-53027.2
821547
7.49869e+06
-35541.3
847203
7.75802e+06
7602.53
926684
8.11519e+06
-8602.17
854939
8.56445e+06
57722.8
689339
9.03169e+06
68246.4
370995
9.89232e+06
-78835.3
-40926.1
1.19616e+07
-272626
-153707
1.42766e+07
-360758
568301
1.61259e+07
-685120
1.14086e+06
-936385
-534568
1.00009e+07
9274.36
1.00002e+07
29433.9
9.99437e+06
48922.2
9.98295e+06
67925.6
9.96623e+06
87170.3
9.94491e+06
106884
9.9189e+06
127721
9.88917e+06
149214
9.85559e+06
171560
9.81808e+06
195306
9.77574e+06
220226
9.72751e+06
246826
9.67274e+06
274983
9.6104e+06
304099
9.53774e+06
335052
9.45161e+06
368681
9.34281e+06
406416
9.24289e+06
466020
9.1647e+06
511519
9.08554e+06
543793
8.99279e+06
565291
8.8816e+06
586809
8.74387e+06
630872
8.58129e+06
700264
8.39747e+06
770394
8.16843e+06
864187
7.8632e+06
1.00749e+06
7.49517e+06
1.11515e+06
7.14534e+06
1.03096e+06
6.95141e+06
609481
6.91422e+06
-40181
6.91214e+06
-548090
6.91457e+06
-805109
7.00331e+06
-978562
7.25314e+06
-1.17808e+06
7.30872e+06
-844583
7.18707e+06
-636712
6.96996e+06
-576064
6.74689e+06
-664887
6.7864e+06
-1.06102e+06
6.78704e+06
-158365
6.7081e+06
402779
6.894e+06
147641
7.04158e+06
232863
7.21411e+06
458878
7.4659e+06
482399
7.82393e+06
463364
8.40884e+06
385315
8.92241e+06
343717
9.66191e+06
2408.26
1.08779e+07
-377065
1.23248e+07
-122729
1.14308e+07
1.35413e+06
-4.29832e+06
9.99965e+06
879.58
11248.8
1.00005e+07
661.555
35793.1
9.99557e+06
834.54
59701
9.98502e+06
586.215
83103.3
9.96914e+06
435.613
106853
9.94833e+06
490.231
131317
9.92321e+06
707.663
157179
9.89451e+06
1058.67
183831
9.86208e+06
1504.24
212093
9.82595e+06
1978.68
241936
9.78552e+06
2396.48
273244
9.73985e+06
2683.46
306429
9.68832e+06
2786.38
340753
9.62906e+06
2673.85
376690
9.55976e+06
2212.39
413514
9.47656e+06
1149.98
455289
9.37719e+06
1106.28
499951
9.27655e+06
-1027.93
565650
9.18466e+06
2030.15
601750
9.09761e+06
547.595
631741
8.99981e+06
1342.26
660344
8.87778e+06
1632.23
707110
8.72137e+06
805.598
786762
8.53121e+06
1477.28
880658
8.31243e+06
-629.352
988125
8.04827e+06
-311.507
1.11702e+06
7.72123e+06
1527.96
1.29232e+06
7.35507e+06
-181.149
1.44008e+06
7.01668e+06
-2540.59
1.33618e+06
6.74864e+06
196.628
832657
6.50962e+06
7301.44
152329
6.25908e+06
19149.6
-369591
6.01835e+06
37565.2
-715395
5.85894e+06
78173.2
-1.10261e+06
5.82071e+06
177419
-1.45111e+06
5.50361e+06
-160654
-241807
5.29311e+06
-230623
644580
4.93052e+06
-98054.9
713508
4.90379e+06
-87367.8
321102
5.35559e+06
131443
-487649
5.59526e+06
76866.2
84767.3
5.84915e+06
-47743.5
728093
6.15186e+06
-27859.6
613045
6.35512e+06
43052.4
694079
6.39744e+06
65791.7
911187
6.56737e+06
65401.2
1.00873e+06
6.87845e+06
51985.5
894707
7.17981e+06
84650.7
752306
7.43449e+06
51018.6
444420
7.84646e+06
135264
307526
7.83382e+06
246020
-175580
9.4777e+06
220136
-1.33369e+06
1.27508e+07
-1.77257e+06
-872892
-882201
-1.45204e+06
1.0001e+07
11228.4
1.00005e+07
35825.6
9.99485e+06
59715.4
9.9837e+06
83123.6
9.96736e+06
106907
9.94639e+06
131425
9.92138e+06
157354
9.89297e+06
184078
9.86091e+06
212406
9.82513e+06
242296
9.78497e+06
273621
9.7395e+06
306771
9.68805e+06
341031
9.62847e+06
376797
9.55846e+06
414016
9.476e+06
455688
9.38102e+06
502727
9.28425e+06
563016
9.18869e+06
612590
9.09547e+06
641305
8.99172e+06
674877
8.86125e+06
723301
8.69796e+06
797566
8.50994e+06
893428
8.29129e+06
993280
8.02275e+06
1.13811e+06
7.70823e+06
1.32805e+06
7.36578e+06
1.46158e+06
7.04734e+06
1.35073e+06
6.79477e+06
865449
6.57371e+06
190391
6.36169e+06
-315738
6.1966e+06
-602078
6.1836e+06
-887422
6.42753e+06
-1.23653e+06
6.55104e+06
-1.12617e+06
6.42946e+06
-784334
5.97561e+06
-335718
5.42984e+06
-387122
5.27898e+06
-919195
5.39725e+06
-218120
5.68422e+06
44241.8
5.94864e+06
-151648
6.07768e+06
183965
6.17002e+06
562095
6.27589e+06
681827
6.52653e+06
606523
6.95162e+06
457025
7.5323e+06
325703
7.86902e+06
-10574.1
7.95971e+06
-84422.6
7.86516e+06
1274.22
5.26711e+06
1.69868e+06
1.17194e+06
9.99971e+06
859.045
13189.3
1.00008e+07
706.769
42144.2
9.99617e+06
871.503
70367.1
9.9862e+06
637.073
98061.7
9.97124e+06
508.98
126137
9.95143e+06
587.923
155488
9.92768e+06
829.44
186206
9.9004e+06
1200.35
218118
9.86984e+06
1656.44
251946
9.83598e+06
2125.57
287435
9.79776e+06
2515.61
324983
9.75445e+06
2752.71
364197
9.70469e+06
2791.26
404938
9.64704e+06
2627.33
447700
9.58065e+06
2335.1
492112
9.5058e+06
1793.31
540385
9.42416e+06
1435.88
591291
9.34628e+06
147.808
654673
9.25333e+06
3550.04
703310
9.1475e+06
39.0981
749731
9.02782e+06
576.644
790225
8.88052e+06
-2340.98
863750
8.714e+06
-2020.62
956062
8.51649e+06
-1395.78
1.08216e+06
8.27947e+06
-5786.99
1.23643e+06
7.99459e+06
-3320.44
1.41287e+06
7.67075e+06
3171.17
1.62013e+06
7.32812e+06
8180.1
1.78148e+06
6.97151e+06
10694.2
1.68896e+06
6.58213e+06
13011.4
1.21594e+06
6.14335e+06
17406.7
579289
5.65355e+06
36686.4
86385
5.08543e+06
83543.1
-227961
4.29411e+06
283895
-595090
1.57899e+06
1.17753e+06
95551.8
665630
429237
212622
-333328
487333
1.02594e+06
-1.12381e+06
71436.4
883784
886848
-772826
-1.3123e+06
3.11794e+06
-372130
-2.57854e+06
3.94618e+06
48394
-884841
4.44382e+06
77171.3
-61328
4.81949e+06
-47785.6
141076
4.94208e+06
37212.5
533906
5.0405e+06
148398
875244
5.2991e+06
97688.1
1.0609e+06
5.67013e+06
53355
1.03596e+06
6.23207e+06
27178.7
755461
6.65959e+06
88912.8
474542
6.66107e+06
171996
315520
6.90419e+06
690731
-1.06949e+06
7.88788e+06
1.12718e+06
-4.16847e+06
9.08409e+06
578745
-3.57208e+06
92734.8
-5.55187e+06
1.0001e+07
13171.6
1.00007e+07
42145.9
9.99545e+06
70347.6
9.98491e+06
98041.6
9.96953e+06
126157
9.94958e+06
155574
9.92594e+06
186372
9.89895e+06
218365
9.86874e+06
252262
9.8352e+06
287795
9.79719e+06
325350
9.75401e+06
364519
9.70423e+06
405186
9.64652e+06
447842
9.57994e+06
492343
9.50456e+06
540718
9.42367e+06
593742
9.34541e+06
653299
9.26107e+06
713426
9.1503e+06
765448
9.02478e+06
809429
8.87804e+06
871984
8.69881e+06
978152
8.48711e+06
1.10621e+06
8.24724e+06
1.23177e+06
7.9722e+06
1.41404e+06
7.68371e+06
1.62417e+06
7.37446e+06
1.78332e+06
7.03543e+06
1.7057e+06
6.66195e+06
1.25738e+06
6.26321e+06
610989
5.86848e+06
119033
5.50951e+06
-159050
5.3202e+06
-404259
6.16064e+06
-897197
5.91941e+06
-444375
5.57387e+06
-28966.5
4.18937e+06
871994
2.70523e+06
43998.1
2.7584e+06
-1.56867e+06
3.18173e+06
-803252
3.78512e+06
-778757
4.22236e+06
-808496
4.44361e+06
55128.5
4.60372e+06
781441
4.83564e+06
922266
5.20389e+06
747521
5.74473e+06
405603
6.35733e+06
101583
6.61436e+06
84580.5
7.14878e+06
-10283.4
8.7582e+06
-891652
1.08163e+07
-63251.6
-228895
9.99974e+06
844.97
15053.3
1.00012e+07
721.782
48230.5
9.99714e+06
909.95
80610.4
9.98801e+06
698.836
112439
9.97415e+06
591.094
144714
9.95568e+06
687
178833
9.93349e+06
941.716
214288
9.90796e+06
1319.17
251320
9.87948e+06
1770.71
290346
9.84718e+06
2221.7
331879
9.81106e+06
2580.21
374939
9.76956e+06
2779.99
420307
9.72132e+06
2793.22
467677
9.66588e+06
2697.99
517262
9.60289e+06
2529.69
569278
9.53432e+06
2534.08
624574
9.46102e+06
2655.78
683642
9.38999e+06
3634.67
747276
9.3088e+06
2193.3
811709
9.21057e+06
923.413
877139
9.0815e+06
2482.29
947332
8.93862e+06
-8308.13
1.03329e+06
8.78332e+06
-8028.59
1.12817e+06
8.58322e+06
-1476.82
1.28653e+06
8.34828e+06
-11600
1.48705e+06
8.07464e+06
-11020.5
1.70336e+06
7.78314e+06
5089.99
1.91681e+06
7.46348e+06
20146.7
2.09093e+06
7.06216e+06
19044.4
2.08149e+06
6.54737e+06
19776.4
1.72022e+06
5.95858e+06
31094
1.14323e+06
5.29401e+06
57039.1
698995
4.30265e+06
154563
609811
1.65272e+06
774512
1.2844e+06
-1.58255e+06
1.15555e+06
2.15965e+06
-1.62706e+06
13540
244261
-973548
83428.5
145926
-47003.9
-341333
-24991
633423
-773327
-1.4716e+06
1.46145e+06
-617956
-3.02646e+06
2.31608e+06
66134.6
-2.06328e+06
2.73589e+06
488115
-1.22627e+06
2.97029e+06
371894
-553627
3.25635e+06
318710
105356
3.50022e+06
439691
600500
3.85317e+06
325125
981490
4.35882e+06
196355
1.0358e+06
4.9392e+06
164975
649259
5.39427e+06
180000
344196
4.70342e+06
458810
786903
-383314
1.82718e+06
1.99263e+06
-9.69363e+06
2.72126e+06
1.82232e+06
-2.02436e+07
2.75682e+06
3.45851e+06
5.03444e+06
3.73422e+06
1.0001e+07
15031.6
1.00011e+07
48275.2
9.99646e+06
80633.8
9.98678e+06
112471
9.9725e+06
144788
9.9539e+06
178969
9.93184e+06
214496
9.90659e+06
251598
9.87844e+06
290683
9.84642e+06
332254
9.81048e+06
375335
9.76906e+06
420705
9.72086e+06
468096
9.6654e+06
517710
9.60244e+06
569914
9.53392e+06
625537
9.46152e+06
685134
9.38889e+06
748738
9.30994e+06
816093
9.2131e+06
885301
9.08432e+06
960196
8.92012e+06
1.04431e+06
8.73545e+06
1.16455e+06
8.54702e+06
1.29642e+06
8.31067e+06
1.45843e+06
8.03888e+06
1.67911e+06
7.78648e+06
1.88697e+06
7.50755e+06
2.08832e+06
7.14151e+06
2.09811e+06
6.66119e+06
1.7651e+06
6.12238e+06
1.18698e+06
5.59844e+06
702562
5.09723e+06
501120
4.65479e+06
808375
2.80182e+06
2.10925e+06
1.10314e+06
1.22157e+06
258546
671296
166380
332963
200384
-939663
169533
-2.3508e+06
663584
-1.51632e+06
1.02243e+06
-816595
1.24836e+06
-509572
1.69604e+06
237151
2.23107e+06
1.09637e+06
2.83011e+06
1.18648e+06
3.4858e+06
858661
4.15947e+06
409677
4.72924e+06
34385.1
5.36043e+06
76413.7
6.22825e+06
912023
6.86716e+06
1.07587e+06
8.27092e+06
1.3074e+06
1.12038e+06
9.99983e+06
822.601
16864.5
1.00017e+07
782.9
54084.1
9.99846e+06
963.678
90437.2
9.99035e+06
767.592
126233
9.9777e+06
680.368
162627
9.96093e+06
792.511
201110
9.94078e+06
1055.96
240991
9.91719e+06
1431.5
283222
9.89056e+06
1870.1
327457
9.86086e+06
2299.14
374215
9.82672e+06
2641.14
423386
9.78729e+06
2842.91
474999
9.7415e+06
2918.12
529152
9.68884e+06
2959.05
586149
9.62975e+06
3054.28
645904
9.5661e+06
3485.4
709116
9.49896e+06
3979.06
775318
9.43016e+06
4783.24
845149
9.3544e+06
3976.21
918772
9.26944e+06
3386.88
998380
9.16606e+06
2176.08
1.08539e+06
9.04006e+06
637.429
1.19128e+06
8.88332e+06
-4002.98
1.30668e+06
8.70863e+06
-7255.03
1.4715e+06
8.50117e+06
-16631
1.71059e+06
8.27598e+06
-17725.4
1.95129e+06
8.04868e+06
-4675.25
2.15889e+06
7.78374e+06
27142.9
2.35307e+06
7.3687e+06
43032.3
2.48033e+06
6.78208e+06
33791.2
2.29804e+06
6.14637e+06
29569.9
1.76408e+06
5.52356e+06
40329.9
1.28793e+06
4.87337e+06
81675.3
1.18031e+06
3.85753e+06
538773
1.74673e+06
1.54487e+06
1.04389e+06
3.40269e+06
-8867.39
195647
1.51343e+06
148918
-203206
60381.7
1.07832e+06
-418931
-583648
1.8401e+06
-754983
-1.442e+06
2.29099e+06
-731026
-2.62242e+06
2.91059e+06
-114172
-2.38557e+06
3.3074e+06
244089
-1.61367e+06
3.45715e+06
337885
-761421
3.44019e+06
411411
121059
3.13148e+06
452367
944174
3.17357e+06
352914
1.30563e+06
3.78892e+06
421013
922256
4.42104e+06
500003
411152
4.87531e+06
512706
126008
5.48973e+06
618962
116378
6.41328e+06
798570
532935
6.07188e+06
1.13731e+06
1.19695e+06
6.89903e+06
1.62886e+06
1.42039e+06
1.31625e+06
-836355
1.0001e+07
16845
1.00016e+07
54087.6
9.99779e+06
90422.6
9.98916e+06
126222
9.97613e+06
162661
9.95924e+06
201218
9.93921e+06
241182
9.91588e+06
283492
9.88956e+06
327790
9.86011e+06
374586
9.82613e+06
423768
9.78679e+06
475373
9.74111e+06
529520
9.6886e+06
586523
9.62994e+06
646383
9.56658e+06
709671
9.50004e+06
776330
9.43008e+06
846726
9.35424e+06
921514
9.26805e+06
1.00096e+06
9.16566e+06
1.08978e+06
9.03795e+06
1.19266e+06
8.88418e+06
1.32445e+06
8.7033e+06
1.47009e+06
8.46966e+06
1.67718e+06
8.20912e+06
1.92606e+06
7.98593e+06
2.11935e+06
7.75516e+06
2.35677e+06
7.44301e+06
2.46374e+06
6.95139e+06
2.30426e+06
6.32626e+06
1.85645e+06
5.73067e+06
1.34772e+06
5.18365e+06
1.13034e+06
5.07869e+06
1.44082e+06
5.69615e+06
2.48659e+06
4.65358e+06
2.4076e+06
3.37792e+06
1.70378e+06
2.59203e+06
707005
1.68752e+06
-734998
1.07844e+06
-2.4067e+06
1.53543e+06
-1.94564e+06
2.0824e+06
-927830
2.26544e+06
-101873
1.7327e+06
1.46054e+06
1.29602e+06
2.38115e+06
1.78692e+06
1.56765e+06
2.62357e+06
1.03622e+06
3.38851e+06
640281
4.0707e+06
270856
4.94921e+06
108843
6.379e+06
428858
7.78205e+06
944169
9.48424e+06
1.32587e+06
405322
9.99989e+06
808.841
18534.7
1.00024e+07
800.266
59467.2
1e+07
1006.48
99545.6
9.99314e+06
833.912
139068
9.98204e+06
763.817
179355
9.96713e+06
885.557
221992
9.94889e+06
1151.85
266293
9.92782e+06
1522.6
313121
9.90366e+06
1948.78
362568
9.8763e+06
2361.58
414610
9.84501e+06
2692.65
469348
9.80832e+06
2900.23
527396
9.76549e+06
3014.31
588321
9.7165e+06
3122.85
652304
9.66165e+06
3361.4
719823
9.60251e+06
3819.2
790617
9.53989e+06
4418.91
864442
9.47455e+06
5101.22
941587
9.40439e+06
5035.02
1.02117e+06
9.3288e+06
4820.4
1.10714e+06
9.24363e+06
3896.77
1.20019e+06
9.14937e+06
1698.04
1.31107e+06
9.01938e+06
-258.093
1.45073e+06
8.87326e+06
2599.4
1.61653e+06
8.70098e+06
12843.6
1.87172e+06
8.51074e+06
-2616.17
2.14682e+06
8.37131e+06
-16318.4
2.3343e+06
8.25098e+06
-14953.3
2.51981e+06
8.04239e+06
26017.7
2.70024e+06
7.54996e+06
65822.9
2.7658e+06
6.73186e+06
71004.2
2.53986e+06
5.83027e+06
55851.7
2.14552e+06
5.11248e+06
68993.2
1.83525e+06
4.94609e+06
167768
1.7227e+06
5.16353e+06
399619
2.72701e+06
4.25767e+06
73314.9
2.27308e+06
3.39879e+06
-269423
1.13345e+06
3.07555e+06
-395108
154694
2.96675e+06
-662567
-624067
2.50355e+06
-765721
-1.36408e+06
2.01655e+06
-86960.1
-1.75408e+06
1.19034e+06
867770
-1.73303e+06
-97883.2
583689
-163602
-837319
-4144.21
826785
-317371
-314183
978835
961243
86134.1
708862
2.61931e+06
138346
321413
3.53706e+06
493754
1969.41
4.21031e+06
636508
-387752
5.10874e+06
477858
-753679
6.72641e+06
447180
-1.05496e+06
8.6632e+06
490518
-861242
1.01789e+07
518291
-247883
772481
-2.11995e+06
1.00011e+07
18516.4
1.00023e+07
59522.6
9.99938e+06
99583.6
9.992e+06
139119
9.98054e+06
179451
9.96552e+06
222152
9.9474e+06
266524
9.92658e+06
313419
9.90271e+06
362924
9.87558e+06
415010
9.84445e+06
469782
9.80786e+06
527869
9.76517e+06
588834
9.71647e+06
652868
9.66202e+06
720442
9.60334e+06
791235
9.54113e+06
865312
9.47538e+06
942170
9.40531e+06
1.02225e+06
9.32843e+06
1.10708e+06
9.24334e+06
1.19984e+06
9.1435e+06
1.30857e+06
9.02651e+06
1.44687e+06
8.88795e+06
1.61441e+06
8.73855e+06
1.84504e+06
8.54983e+06
2.12238e+06
8.3306e+06
2.33213e+06
8.10647e+06
2.57197e+06
7.89397e+06
2.71228e+06
7.58319e+06
2.69883e+06
6.99197e+06
2.53471e+06
6.17963e+06
2.2223e+06
5.42017e+06
1.95566e+06
5.14737e+06
1.85252e+06
5.82968e+06
2.16659e+06
6.06051e+06
2.21954e+06
5.65482e+06
1.82783e+06
4.80861e+06
1.15863e+06
3.10252e+06
291391
1.3542e+06
-1.46065e+06
723856
-1.50017e+06
54086.3
538250
-1.07813e+06
1.56648e+06
-1.74178e+06
2.15546e+06
-1.40727e+06
1.92296e+06
-496736
1.23686e+06
220074
1.10756e+06
1.52373e+06
387558
2.95579e+06
-61468.9
3.94862e+06
-68261.1
5.23473e+06
-130365
7.01012e+06
-135359
8.82057e+06
157949
-1.30509e+06
1e+07
790.236
20126.4
1.00032e+07
872.401
64467.6
1.00019e+07
1073
107978
9.99644e+06
913.629
150960
9.98714e+06
860.22
194853
9.97435e+06
992.435
241349
9.95854e+06
1260.85
289767
9.94003e+06
1625.87
341025
9.9188e+06
2041.25
395274
9.89443e+06
2448.33
452534
9.86611e+06
2785.43
512973
9.83294e+06
3029.16
577162
9.79394e+06
3201.34
644858
9.74871e+06
3382.37
716181
9.69804e+06
3686.83
791033
9.64245e+06
4067.78
869128
9.58409e+06
4761.24
949787
9.52206e+06
5030.37
1.03186e+06
9.45861e+06
5289.2
1.11458e+06
9.39275e+06
4445.75
1.19867e+06
9.32734e+06
2642.01
1.2867e+06
9.26544e+06
-910.071
1.38942e+06
9.18307e+06
-6601.97
1.54638e+06
9.10777e+06
8686.55
1.69101e+06
8.99423e+06
30068.9
1.95764e+06
8.83696e+06
22907.2
2.2784e+06
8.66707e+06
-6610.76
2.49195e+06
8.49618e+06
-26761.1
2.69393e+06
8.35212e+06
-21792.6
2.84795e+06
8.13359e+06
6591.08
2.96709e+06
7.64425e+06
33176.4
2.99033e+06
6.82587e+06
68673.8
2.89162e+06
5.93849e+06
98567.7
2.6097e+06
5.3259e+06
48563.7
2.26522e+06
5.57825e+06
105423
2.33229e+06
5.51983e+06
66949.7
2.21913e+06
5.03301e+06
-68960
1.64995e+06
4.42027e+06
-191848
887344
3.7897e+06
-348219
200241
3.10528e+06
-919388
-32368.2
2.38031e+06
-1.25152e+06
-293842
1.17874e+06
-799226
-552958
-117056
92477
199314
-798151
174598
783677
-383198
26281.3
319654
876969
303639
-651612
2.31651e+06
630954
-1.23679e+06
3.81679e+06
388014
-1.26056e+06
5.07836e+06
147028
-1.22459e+06
6.06326e+06
97986
-1.34311e+06
6.76137e+06
196852
-1.54863e+06
7.65264e+06
326885
-1.57062e+06
8.78578e+06
165109
-1.31422e+06
668631
-2.54251e+06
1.00011e+07
20107.8
1.00031e+07
64473.7
1.00013e+07
107974
9.99534e+06
150965
9.9857e+06
194910
9.97282e+06
241481
9.95713e+06
289982
9.93885e+06
341315
9.91789e+06
395623
9.89376e+06
452918
9.86561e+06
513374
9.83255e+06
577566
9.79373e+06
645261
9.74882e+06
716587
9.69851e+06
791406
9.64358e+06
869517
9.58514e+06
949986
9.52353e+06
1.03207e+06
9.45894e+06
1.11455e+06
9.39168e+06
1.19813e+06
9.32309e+06
1.28544e+06
9.25216e+06
1.38606e+06
9.18361e+06
1.51416e+06
9.1228e+06
1.68461e+06
9.05268e+06
1.94179e+06
8.93307e+06
2.25586e+06
8.71024e+06
2.52808e+06
8.48713e+06
2.74709e+06
8.28115e+06
2.87932e+06
8.0383e+06
2.93626e+06
7.65961e+06
2.93786e+06
7.07871e+06
2.862e+06
6.38066e+06
2.73768e+06
5.71371e+06
2.54908e+06
5.61411e+06
2.34824e+06
5.78315e+06
2.09297e+06
5.79208e+06
1.72194e+06
5.41376e+06
1.29105e+06
4.29584e+06
944707
1.01875e+06
677278
-2.68831e+06
672185
-4.46067e+06
1.23182e+06
-4.78422e+06
1.71377e+06
-4.51691e+06
1.80016e+06
-3.10123e+06
427393
-774669
-515169
2.2651e+06
-633762
3.78462e+06
-21690.1
4.41417e+06
5789.91
5.17254e+06
-371058
6.28339e+06
-773806
7.64324e+06
-963042
9.062e+06
-811493
-2.7065e+06
1.00001e+07
779.367
21519
1.00041e+07
890.74
68815.6
1.0004e+07
1116.55
115401
1.00001e+07
978.929
161505
9.99285e+06
938.934
208683
9.98247e+06
1074.9
258714
9.9692e+06
1339.13
311144
9.95369e+06
1692.85
366333
9.93592e+06
2091.98
424848
9.91505e+06
2481.57
487213
9.89029e+06
2807.2
553235
9.86102e+06
3048.12
623154
9.82608e+06
3221.71
697427
9.78531e+06
3398.1
775545
9.73834e+06
3631.97
857912
9.68618e+06
3959.49
943160
9.62951e+06
4358.63
1.03036e+06
9.56963e+06
4464.15
1.1167e+06
9.50813e+06
4663.14
1.2005e+06
9.44873e+06
3082.51
1.27671e+06
9.39901e+06
2283.85
1.34852e+06
9.39052e+06
-7927.85
1.4052e+06
9.39667e+06
-1013.38
1.53966e+06
9.39047e+06
12100.4
1.66755e+06
9.34476e+06
24780.3
1.95029e+06
9.20301e+06
27349.2
2.35074e+06
8.94095e+06
1940.73
2.6955e+06
8.68039e+06
-17754.2
2.91404e+06
8.45578e+06
-24058.8
3.04451e+06
8.25112e+06
-15843.9
3.1456e+06
7.98902e+06
-4210.42
3.22319e+06
7.56989e+06
13223.8
3.26634e+06
6.91938e+06
26210.3
3.20651e+06
6.166e+06
-63.9564
2.99513e+06
5.79861e+06
3446.82
2.67527e+06
5.63355e+06
22347
2.33239e+06
5.36035e+06
19973.2
1.85927e+06
4.91358e+06
-30191.7
1.27999e+06
4.35401e+06
-118378
712758
4.07597e+06
-413474
394851
4.16398e+06
-1.02855e+06
308733
4.27451e+06
-1.27388e+06
195320
4.69742e+06
-687786
56825.8
5.31764e+06
225434
-428066
5.6792e+06
804348
-1.12114e+06
5.88391e+06
610193
-1.57818e+06
6.00573e+06
413520
-1.74533e+06
6.42305e+06
166676
-1.70211e+06
7.03388e+06
1770.04
-1.66412e+06
7.66336e+06
-47622.5
-1.74571e+06
8.39794e+06
-63174.6
-1.94972e+06
9.32063e+06
-80490.9
-2.11333e+06
1.09296e+07
-166970
-2.21908e+06
-59053
-2.58242e+06
1.00012e+07
21506.4
1.0004e+07
68875.3
1.00034e+07
115450
9.99909e+06
161570
9.99148e+06
208794
9.98101e+06
258884
9.96784e+06
311377
9.95256e+06
366622
9.93506e+06
425182
9.91441e+06
487575
9.88981e+06
553615
9.86067e+06
623536
9.82591e+06
697807
9.78541e+06
775895
9.73884e+06
858185
9.68704e+06
943296
9.63061e+06
1.03015e+06
9.57054e+06
1.11638e+06
9.50809e+06
1.1992e+06
9.44643e+06
1.27619e+06
9.39231e+06
1.34696e+06
9.35396e+06
1.41667e+06
9.34458e+06
1.50902e+06
9.36467e+06
1.6548e+06
9.34905e+06
1.95864e+06
9.21441e+06
2.37266e+06
8.97824e+06
2.71807e+06
8.7279e+06
2.9306e+06
8.47928e+06
3.06115e+06
8.21741e+06
3.14742e+06
7.91978e+06
3.20222e+06
7.54787e+06
3.22152e+06
7.07613e+06
3.2149e+06
6.48768e+06
3.12245e+06
5.96945e+06
2.85299e+06
5.64441e+06
2.41894e+06
5.43879e+06
1.90939e+06
5.203e+06
1.43084e+06
4.84803e+06
1.07298e+06
3.96709e+06
974905
2.18813e+06
1.17075e+06
295239
1.52196e+06
-464096
1.34825e+06
437263
638200
1.69309e+06
-354815
2.29158e+06
-612287
2.84352e+06
-760097
3.96492e+06
-881772
5.20341e+06
-1.11904e+06
6.4178e+06
-1.5002e+06
7.74703e+06
-2.00178e+06
9.46293e+06
-2.38103e+06
1.15704e+07
-2.87559e+06
-3.80737e+06
1.00002e+07
766.971
22798.8
1.00051e+07
965.627
72621.2
1.00063e+07
1188.96
121871
1.00043e+07
1061.69
170710
9.99908e+06
1033.14
220968
9.99156e+06
1172.84
273712
9.98154e+06
1432.13
329709
9.96944e+06
1773.22
388586
9.95499e+06
2156.8
451377
9.93814e+06
2530.81
518052
9.91787e+06
2851.63
589134
9.89296e+06
3088.67
664878