/*--------------------------------*- C++ -*----------------------------------*\
| =========                 |                                                 |
| \\      /  F ield         | OpenFOAM: The Open Source CFD Toolbox           |
|  \\    /   O peration     | Version:  4.1                                   |
|   \\  /    A nd           | Web:      www.OpenFOAM.org                      |
|    \\/     M anipulation  |                                                 |
\*---------------------------------------------------------------------------*/
FoamFile
{
    version     2.0;
    format      ascii;
    class       volVectorField;
    location    "36";
    object      U;
}
// * * * * * * * * * * * * * * * * * * * * * * * * * * * * * * * * * * * * * //

dimensions      [0 1 -1 0 0 0 0];

internalField   nonuniform List<vector> 
4432
(
(39.9841 0.0014505 0.051946)
(39.916 0.00230832 0.0933809)
(39.8385 0.00563832 0.126495)
(39.729 0.00701312 0.159918)
(39.564 0.00652358 0.19473)
(39.3466 0.00517739 0.230224)
(39.087 0.00360543 0.265549)
(38.7932 0.00218503 0.299065)
(38.4698 0.00111247 0.329769)
(38.118 0.000323078 0.356537)
(37.7351 -0.000440336 0.377759)
(37.3163 -0.00132667 0.395532)
(36.8552 -0.0028396 0.406082)
(36.3651 -0.0043908 0.414003)
(35.8402 -0.0087765 0.406086)
(35.4101 -0.0118243 0.360908)
(35.0664 -0.00622362 0.423541)
(34.8714 0.000513466 0.379384)
(34.8065 0.00410116 0.413406)
(34.4647 0.0196056 0.678366)
(33.9171 0.0177382 0.812656)
(33.3116 0.0155826 0.937222)
(32.6741 -0.0125393 0.987125)
(31.9491 -0.0413758 0.94445)
(31.1006 -0.0460684 0.960695)
(30.1974 -0.0473449 0.905945)
(29.3422 -0.0534888 0.758986)
(28.5264 -0.0505029 0.55806)
(27.8425 -0.0430321 0.440517)
(27.4159 -0.0620511 0.360645)
(27.3626 -0.0937127 0.258439)
(27.9655 -0.073756 -0.0548915)
(29.2274 0.0363652 -0.608161)
(30.7426 0.202456 -1.13026)
(32.4145 0.363918 -1.70374)
(33.8315 0.443619 -1.77193)
(35.6962 0.497158 -1.07468)
(36.7752 -0.0285943 -1.05052)
(36.6617 -0.254758 -0.986504)
(36.9809 -0.124151 -0.51496)
(36.8309 0.0151999 0.217033)
(36.3531 0.1078 0.853506)
(35.2943 0.00961831 1.23072)
(33.6377 -0.0391901 1.64259)
(32.6802 -0.0108142 1.97373)
(31.3403 0.506313 1.89024)
(30.1789 1.03851 2.77701)
(32.3488 0.364045 2.6608)
(32.9745 -0.154096 1.82447)
(34.4757 -0.94007 1.42716)
(26.5122 -0.195979 1.24187)
(42.1315 -2.64708 -0.574802)
(62.2424 -5.71161 0.159096)
(75.9747 -3.70373 7.81669)
(39.9864 0.00145057 0.0519167)
(39.9186 0.0023082 0.0933919)
(39.8393 0.00563834 0.126423)
(39.7255 0.00701201 0.159537)
(39.5583 0.00652445 0.193861)
(39.3407 0.00518162 0.228854)
(39.082 0.00361223 0.263536)
(38.7899 0.00219652 0.296528)
(38.4681 0.00112403 0.327019)
(38.1173 0.000334942 0.353895)
(37.7339 -0.000429519 0.376167)
(37.3126 -0.0013228 0.395172)
(36.8495 -0.00282541 0.409141)
(36.3478 -0.00441278 0.41895)
(35.8288 -0.00868907 0.41856)
(35.3374 -0.0121472 0.376604)
(34.9824 -0.00665703 0.376205)
(34.8576 0.000667822 0.326754)
(34.7893 0.00404352 0.410768)
(34.4787 0.0190193 0.694178)
(33.9464 0.0172127 0.801341)
(33.3208 0.0156209 0.84141)
(32.6522 -0.0106136 0.881185)
(31.9237 -0.0424837 0.863536)
(31.0521 -0.0498474 0.866124)
(30.039 -0.0482996 0.766493)
(29.007 -0.0524812 0.627212)
(28.1033 -0.0554653 0.519488)
(27.3628 -0.0458229 0.370038)
(26.746 -0.0577833 0.154845)
(26.4869 -0.0889728 -0.0996387)
(26.72 -0.109416 -0.302826)
(27.7615 -0.0268103 -0.590596)
(29.2059 0.068432 -0.578486)
(31.0544 0.296789 -0.713085)
(32.5045 0.412764 -0.864024)
(33.539 0.532293 -0.467361)
(34.226 0.0714756 -0.145185)
(34.8947 -0.225918 0.268897)
(35.6312 -0.160785 0.651367)
(35.2698 -0.0306461 1.28827)
(34.3903 0.106138 1.86583)
(32.6445 0.0069807 2.35429)
(30.9015 -0.0395907 2.70767)
(30.185 0.0158079 2.80907)
(29.1061 0.553845 1.79974)
(26.428 1.16232 1.92695)
(27.8298 0.283035 2.16435)
(28.0383 -0.463099 1.22686)
(26.9149 -1.07367 0.150007)
(17.9175 -0.206635 -0.933179)
(35.344 -3.13641 -2.40034)
(34.9084 -6.00419 -7.36228)
(43.7273 -2.97333 -9.18952)
(40.0144 0.0014591 0.0199999)
(40.039 0.00210729 0.061661)
(40.0953 0.00526719 0.105797)
(40.1553 0.00650792 0.149795)
(40.199 0.00586304 0.193523)
(40.2284 0.00428832 0.237038)
(40.25 0.00243338 0.279654)
(40.2672 0.000777024 0.320801)
(40.2802 -0.000401749 0.360365)
(40.2871 -0.000930204 0.398605)
(40.2843 -0.000965992 0.436526)
(40.2662 -0.000720491 0.474046)
(40.2303 0.000142489 0.515358)
(40.1638 0.000786536 0.545848)
(40.0758 0.00386433 0.595547)
(39.8406 0.00434927 0.559162)
(39.5683 0.00857657 0.461369)
(38.9032 0.00758589 0.518137)
(37.772 0.00616433 0.847755)
(36.8743 0.00495063 1.00808)
(36.1199 0.00737772 1.057)
(35.4181 0.0068012 1.04647)
(34.7703 0.00607801 1.03587)
(34.1394 0.0103642 1.14405)
(33.5376 0.0133645 1.30144)
(32.9262 0.00937839 1.37239)
(32.2695 0.00390386 1.33891)
(31.5248 0.00219534 1.25505)
(30.7199 -0.0171558 1.09351)
(30.1358 -0.0532956 0.680088)
(30.1563 -0.064503 -0.113561)
(30.9649 0.000249829 -1.20612)
(32.1757 0.0800885 -2.05125)
(33.433 0.124036 -2.36307)
(34.8228 0.0793688 -2.12679)
(35.9105 -0.0382751 -1.7723)
(36.4172 -0.28943 -1.04375)
(36.3837 -0.413669 -0.747426)
(36.3042 -0.310042 -0.714954)
(36.2807 -0.21587 -0.348185)
(36.6977 -0.246736 0.826322)
(37.8145 -0.38387 2.11908)
(38.7429 -0.483268 2.84909)
(39.7394 -0.586037 3.13318)
(40.7385 -0.641126 3.58275)
(41.7586 -0.623987 3.32495)
(42.6484 -0.665937 4.18522)
(45.014 -0.733107 4.40935)
(45.5282 -1.64873 4.29887)
(48.531 -1.7867 2.26521)
(38.0626 -2.1249 9.42549)
(30.6313 -4.22366 0.536768)
(5.73662 0.97678 -20.4035)
(24.5102 6.11042 -1.52335)
(40.0166 0.00145902 0.0199409)
(40.0414 0.00210767 0.0616187)
(40.0956 0.00526767 0.10553)
(40.1507 0.00650848 0.149195)
(40.1909 0.00586344 0.192515)
(40.2182 0.00428822 0.235572)
(40.2387 0.00243399 0.277776)
(40.2554 0.000772985 0.31868)
(40.2688 -0.000396004 0.358424)
(40.2759 -0.000947545 0.39725)
(40.2747 -0.000954123 0.436717)
(40.2582 -0.000712578 0.476781)
(40.2242 6.69146e-05 0.519437)
(40.1652 0.00102794 0.558892)
(40.0782 0.00278654 0.590173)
(39.9008 0.00737838 0.584974)
(39.6301 0.00979183 0.494813)
(38.9201 0.0088334 0.530998)
(37.7851 0.00618451 0.827556)
(36.8572 0.00490931 0.998295)
(36.1193 0.00734399 1.03075)
(35.4173 0.00687419 1.03476)
(34.7699 0.00632574 1.02589)
(34.1385 0.0111139 1.08596)
(33.5224 0.014983 1.19963)
(32.9104 0.0133815 1.27052)
(32.2428 0.0121125 1.30405)
(31.452 0.00991746 1.26129)
(30.6171 0.00117292 1.03685)
(29.863 -0.016492 0.645818)
(29.5031 -0.0386451 0.0784644)
(30.0517 0.00528125 -0.842359)
(31.3972 0.0679352 -1.6062)
(32.7048 0.105968 -2.05855)
(34.0776 0.0482385 -1.98629)
(35.2223 -0.000498253 -1.63728)
(36.011 -0.298513 -1.05095)
(36.465 -0.478492 -0.600949)
(36.6794 -0.363931 -0.364335)
(37.4044 -0.39998 -0.461586)
(37.8276 -0.36849 0.344611)
(38.7038 -0.383898 1.58618)
(39.3405 -0.423745 2.40996)
(39.8499 -0.462225 3.01416)
(40.3848 -0.493961 3.64741)
(40.9958 -0.460331 3.12743)
(41.4534 -0.462707 3.4311)
(42.9909 -0.676919 4.04261)
(44.3916 -0.965651 3.41858)
(42.7173 -1.62996 3.05405)
(33.5794 -1.67267 11.6089)
(26.6332 -3.27492 -1.03104)
(-39.1494 -1.66357 -27.7853)
(2.90161 -1.01334 -18.6408)
(40.0042 0.00143435 0.0260926)
(39.9899 0.00206605 0.0793922)
(39.9855 0.00516406 0.127186)
(39.9677 0.00632119 0.171292)
(39.9177 0.0056093 0.21474)
(39.8385 0.0040155 0.259184)
(39.739 0.0022213 0.304926)
(39.6257 0.000732277 0.352436)
(39.5024 -0.000115256 0.402536)
(39.3704 -0.00014101 0.45618)
(39.2282 0.000534172 0.514563)
(39.0725 0.00179376 0.578693)
(38.8968 0.00347209 0.650941)
(38.7029 0.00570456 0.727588)
(38.4622 0.00733506 0.815501)
(38.2481 0.0107486 0.914871)
(37.8176 0.0040403 0.94327)
(37.5113 0.00230559 1.31734)
(37.0241 0.00249227 1.61582)
(36.6154 0.0036828 1.72224)
(36.1877 0.00536568 1.70579)
(35.7088 0.00673636 1.66327)
(35.2038 0.00951919 1.68106)
(34.6529 0.0155445 1.78406)
(34.0548 0.0190579 1.93214)
(33.3942 0.0225554 2.03116)
(32.609 0.0239921 2.08038)
(31.6214 0.0120709 2.09452)
(30.4926 -0.033978 1.77674)
(29.6635 -0.0580954 0.928554)
(29.3965 -0.0231168 -0.555144)
(29.9145 0.0387216 -2.22285)
(30.6353 0.13179 -3.2883)
(31.1707 0.258486 -3.84538)
(31.7924 0.307901 -4.25833)
(32.4971 -0.014551 -3.43607)
(32.574 -0.454976 -1.67897)
(32.0195 -0.767486 -0.543103)
(31.4381 -0.960773 -0.115043)
(31.6017 -0.862571 0.1837)
(31.4976 -0.452269 1.59211)
(31.611 -0.388026 3.13262)
(32.2533 -0.483455 3.39434)
(33.1738 -0.545997 3.76418)
(34.794 -0.673373 3.91356)
(36.5813 -0.70485 4.07372)
(38.4128 -0.785407 4.09759)
(41.1249 -0.797115 3.94458)
(42.9412 -1.0473 2.68496)
(46.473 -1.76769 3.7773)
(49.8655 -1.47169 12.2353)
(66.7734 -1.74806 21.554)
(65.2853 -0.926729 18.9311)
(57.1649 -2.88165 1.25131)
(40.0064 0.00143428 0.0260375)
(39.9923 0.00206643 0.0793995)
(39.9859 0.00516455 0.127067)
(39.9635 0.00632184 0.171077)
(39.9105 0.00560984 0.214493)
(39.8302 0.00401578 0.258965)
(39.7307 0.0022211 0.304811)
(39.6182 0.000731953 0.352522)
(39.4961 -0.000116859 0.403003)
(39.3655 -0.000143932 0.457209)
(39.2243 0.000530728 0.51644)
(39.0694 0.00179581 0.581884)
(38.8948 0.00344905 0.654839)
(38.7001 0.00573938 0.733428)
(38.4671 0.0072076 0.818935)
(38.2161 0.0111227 0.917372)
(37.8257 0.00414391 0.968296)
(37.5182 0.0014925 1.29119)
(37.0132 0.00245787 1.60983)
(36.6086 0.00372418 1.71754)
(36.1842 0.0054624 1.69869)
(35.7071 0.00694107 1.65324)
(35.2057 0.0100731 1.66497)
(34.6539 0.0176323 1.78142)
(34.0361 0.0220776 1.93141)
(33.3603 0.0276071 2.04169)
(32.547 0.0324742 2.15548)
(31.5231 0.0248245 2.21175)
(30.3193 -0.00379613 1.99218)
(29.1333 -0.0389306 1.28477)
(28.6612 -0.019458 -0.260523)
(29.2906 0.0506679 -2.06129)
(30.1726 0.141753 -3.16469)
(31.2223 0.232924 -3.60722)
(32.2873 0.237334 -3.61424)
(33.2252 0.187456 -2.75736)
(33.2623 -0.194177 -1.84827)
(32.8735 -0.614993 -1.36936)
(32.4097 -0.839017 -1.32377)
(33.4413 -1.03077 -2.42302)
(33.1322 -0.649776 -0.927224)
(33.7035 -0.656151 0.642035)
(33.8072 -0.723047 1.19093)
(34.3172 -0.607813 1.60294)
(35.223 -0.62818 2.41978)
(36.5148 -0.564226 2.87103)
(38.1838 -0.68826 3.217)
(40.5993 -0.76162 3.69952)
(42.425 -0.849844 2.8768)
(44.7441 -1.74585 5.40361)
(47.3782 -1.415 11.2987)
(62.443 -1.31832 17.4514)
(61.4431 0.0564118 20.2176)
(53.389 -2.32454 -3.20434)
(40.0038 0.00140582 0.0331214)
(39.9893 0.00211853 0.104316)
(39.986 0.00514864 0.173607)
(39.9706 0.00627222 0.242304)
(39.9228 0.00555746 0.312733)
(39.8445 0.00396136 0.385946)
(39.7432 0.00215958 0.46165)
(39.6249 0.000663596 0.539907)
(39.4926 -0.000156457 0.621032)
(39.3472 -0.000115896 0.705401)
(39.1867 0.000738738 0.793568)
(39.0071 0.00229376 0.886405)
(38.8032 0.00421018 0.98481)
(38.5718 0.00661167 1.08947)
(38.2997 0.00793861 1.20337)
(37.9958 0.00995623 1.33339)
(37.6032 0.00219823 1.47775)
(37.2302 0.00521024 1.68388)
(36.7851 0.00173037 1.89614)
(36.4908 0.00246088 2.00988)
(36.1775 0.00449488 2.06063)
(35.779 0.00547428 2.10583)
(35.2884 0.0077882 2.20813)
(34.6867 0.0126871 2.38464)
(34.0067 0.011193 2.63027)
(33.228 0.0116462 2.87231)
(32.2135 0.0103532 3.18381)
(30.9067 -0.00649953 3.5064)
(29.42 -0.0366074 3.28961)
(28.2114 -0.0351527 1.85217)
(27.7342 0.0112811 -0.583287)
(27.7067 0.0565886 -2.66692)
(27.6022 0.124867 -3.88067)
(27.4439 0.224293 -4.78546)
(27.8376 0.199908 -5.13479)
(28.3102 -0.201331 -3.14924)
(28.0833 -0.868111 -0.811682)
(27.2438 -1.27835 0.250273)
(26.6927 -1.431 0.872864)
(26.7604 -0.688735 1.07858)
(26.5603 -0.114263 2.09875)
(26.5253 -0.056224 4.02012)
(27.2713 -0.166063 3.59932)
(28.0171 -0.218095 3.76877)
(29.0516 -0.207606 3.89176)
(30.6668 -0.199166 3.77311)
(31.7034 -0.474804 2.89954)
(33.3821 -0.150234 2.17189)
(35.5779 -0.095605 1.0863)
(36.8472 -0.389896 -0.863389)
(41.6892 -0.979544 -0.423919)
(52.9803 -1.6377 3.61819)
(62.5981 -2.69146 4.12087)
(66.8627 -4.25695 -3.48646)
(40.0059 0.00140573 0.0330773)
(39.9915 0.00211892 0.104376)
(39.9863 0.00514917 0.173615)
(39.9664 0.00627293 0.242282)
(39.9158 0.00555808 0.312736)
(39.8362 0.00396175 0.386006)
(39.735 0.00215962 0.461792)
(39.6176 0.000663163 0.540155)
(39.4868 -0.000157628 0.621438)
(39.3429 -0.000117556 0.706009)
(39.1838 0.000735882 0.794489)
(39.0053 0.00229171 0.887692)
(38.8021 0.00420804 0.986487)
(38.5697 0.00662004 1.09143)
(38.2982 0.00791966 1.20453)
(37.9817 0.0100545 1.33439)
(37.5879 0.00189271 1.47598)
(37.2193 0.00504353 1.71456)
(36.7736 0.00154998 1.90954)
(36.4829 0.00229319 2.0122)
(36.1678 0.00439575 2.06205)
(35.764 0.00545807 2.10734)
(35.2554 0.0076639 2.21471)
(34.6411 0.0129998 2.44069)
(33.9711 0.0118522 2.67981)
(33.1832 0.0135625 2.94635)
(32.121 0.0146717 3.37917)
(30.7544 -0.00214796 3.75922)
(29.232 -0.0296242 3.56792)
(27.9594 -0.0253127 2.13983)
(27.6113 0.0158031 -0.397173)
(27.6858 0.0566321 -2.43899)
(27.6865 0.119022 -3.40178)
(27.6386 0.224549 -3.85672)
(28.1994 0.249826 -4.43483)
(29.3293 0.0014773 -3.40528)
(29.3034 -0.578214 -2.29384)
(28.3325 -1.27017 -1.93347)
(27.3567 -1.45714 -1.87122)
(27.0719 -0.91959 -3.63855)
(27.072 -0.262917 -0.00167181)
(26.8978 -0.0956198 1.98655)
(27.3546 -0.146471 0.939082)
(27.9141 -0.204351 0.775852)
(28.1394 -0.212845 2.13772)
(29.274 -0.218425 2.23487)
(30.5775 -0.398746 2.345)
(32.4 -0.0840427 2.03844)
(34.992 -0.132047 1.44894)
(36.5221 -0.460514 0.075521)
(40.1038 -0.947905 -0.245373)
(45.758 -0.614531 1.62103)
(55.8897 -3.247 -0.0361719)
(40.0405 -1.06268 -20.6917)
(40.0038 0.00139071 0.0410284)
(39.99 0.00213987 0.130454)
(39.9875 0.00518859 0.217641)
(39.9729 0.00631072 0.302742)
(39.9263 0.00560954 0.388457)
(39.8497 0.00404822 0.476658)
(39.7511 0.00230234 0.567676)
(39.6366 0.000882307 0.662353)
(39.5095 0.000156702 0.761737)
(39.3709 0.000299987 0.866778)
(39.2189 0.00127233 0.978313)
(39.0495 0.00289833 1.09702)
(38.8569 0.00492879 1.22309)
(38.6365 0.00725277 1.35645)
(38.3791 0.00928889 1.49472)
(38.0812 0.00983341 1.65062)
(37.7333 0.0102671 1.80063)
(37.32 0.00486156 2.05219)
(36.9037 0.0105331 2.1998)
(36.5292 0.00375971 2.33443)
(36.2001 0.0026792 2.42048)
(35.7731 0.00206988 2.55622)
(35.2166 0.00271077 2.82581)
(34.5001 0.0056153 3.12756)
(33.6946 0.00040032 3.47526)
(32.7747 -0.000739934 3.89119)
(31.5675 0.00414269 4.50034)
(30.1631 0.000984424 5.04768)
(28.6958 -0.00254975 4.65774)
(27.4391 0.00952286 2.64639)
(26.4972 0.0328645 -0.0940621)
(25.575 0.0736607 -2.18573)
(24.5043 0.148885 -3.55453)
(23.5829 0.285537 -4.94093)
(23.5862 0.416583 -5.62468)
(22.1027 -0.143571 -2.7963)
(22.332 -1.10611 2.95828)
(20.0764 -1.30557 4.69915)
(18.7921 -1.60302 3.72665)
(21.2133 -0.579928 1.27594)
(21.822 -0.0128092 1.63201)
(22.5277 -0.031359 4.13545)
(24.1352 -0.0637756 3.58036)
(25.5555 -0.0638816 3.0848)
(25.5648 -0.0440221 3.56953)
(25.5881 0.103536 3.78588)
(26.1625 0.621601 2.73952)
(28.8134 1.1331 2.05824)
(28.4839 0.459954 1.17816)
(31.6631 0.0717664 0.714651)
(30.0016 0.580439 -0.722123)
(29.3503 1.3732 -2.13616)
(51.7202 -4.50474 -0.512908)
(53.2198 -10.0259 -2.63029)
(40.0059 0.00139063 0.0409665)
(39.9923 0.00214025 0.130534)
(39.9879 0.00518914 0.217636)
(39.9688 0.00631149 0.302718)
(39.9193 0.00561026 0.388528)
(39.8416 0.00404873 0.476906)
(39.743 0.00230252 0.568159)
(39.6294 0.00088201 0.663104)
(39.5039 0.000155698 0.762765)
(39.3669 0.000298436 0.868051)
(39.2163 0.00127013 0.979766)
(39.0478 0.00289688 1.09848)
(38.8558 0.0049306 1.22448)
(38.6356 0.00725932 1.35718)
(38.3754 0.00927524 1.49649)
(38.0797 0.00994598 1.65023)
(37.7153 0.0101658 1.81862)
(37.376 0.00788511 2.03374)
(36.9285 0.0113254 2.19849)
(36.5237 0.00420867 2.35214)
(36.1788 0.00383859 2.4528)
(35.7373 0.00416372 2.59907)
(35.1235 0.00124505 2.86747)
(34.3998 0.00498645 3.18865)
(33.6331 0.000317771 3.50036)
(32.6617 -0.00101495 3.98828)
(31.4726 0.00459843 4.69875)
(30.1595 0.00278922 5.1859)
(28.7859 -0.00116413 4.72153)
(27.5967 0.00863093 2.76266)
(26.708 0.0301045 0.0625497)
(25.8692 0.0692461 -1.97772)
(25.0472 0.13496 -3.10356)
(24.5295 0.292471 -4.09744)
(24.887 0.674923 -5.14575)
(25.9191 -0.12217 -3.85409)
(26.3448 0.0328456 -3.03134)
(25.2935 0.28061 -2.37892)
(22.4626 0.497356 -2.36575)
(21.3233 0.801865 -3.13468)
(21.4826 0.348225 -0.14143)
(21.5004 0.0073328 2.46785)
(23.5639 -0.00553021 0.907562)
(24.3134 -0.191439 1.35065)
(24.4836 -0.2501 2.12035)
(24.7108 0.0286423 2.18972)
(25.4666 0.713419 1.8096)
(26.9988 1.04472 1.35594)
(28.8166 0.79718 1.45724)
(31.8367 0.606968 -0.0850719)
(30.4597 -0.33229 -1.25781)
(31.0845 0.293419 -2.4298)
(33.1113 -8.29109 4.9368)
(2.51538 3.28207 -9.94768)
(40.0038 0.00134479 0.0488368)
(39.9908 0.00221349 0.155961)
(39.9894 0.00516219 0.260282)
(39.9762 0.00626037 0.362415)
(39.9322 0.00562542 0.466133)
(39.8594 0.00418116 0.574039)
(39.7658 0.0025804 0.686619)
(39.6573 0.00131747 0.804797)
(39.5373 0.000741384 0.92954)
(39.4066 0.000999148 1.06149)
(39.2633 0.00201359 1.20093)
(39.1027 0.00358061 1.34783)
(38.9189 0.00539928 1.50149)
(38.7067 0.00737017 1.66171)
(38.4603 0.00923138 1.82568)
(38.1797 0.0107167 2.00463)
(37.8779 0.0116478 2.18847)
(37.5305 0.00778124 2.46614)
(37.2227 0.0132945 2.59607)
(36.7746 0.00732755 2.74107)
(36.3485 0.00385062 2.87396)
(35.7944 -0.00928263 3.07663)
(35.2176 -0.00891944 3.47307)
(34.4735 -0.00341279 3.95358)
(33.5921 -0.0132668 4.44843)
(32.5881 -0.010786 5.04018)
(31.3254 0.00986107 5.82104)
(29.991 0.0292863 6.44315)
(28.6253 0.0394909 5.99508)
(27.1272 0.0487767 3.98089)
(25.4855 0.065718 1.29157)
(23.6432 0.129171 -0.785867)
(21.4162 0.28384 -2.18494)
(19.3644 0.708673 -3.70926)
(17.327 1.29599 -3.44639)
(-7.2847 0.00529092 0.992323)
(8.9619 -0.902972 5.63998)
(-8.04383 -1.31706 3.29617)
(-1.91646 -3.39223 -3.28859)
(10.0818 -1.73776 -7.02387)
(15.2175 -0.18878 -1.48226)
(16.4797 0.31926 2.12835)
(18.9965 -0.196288 2.84595)
(19.698 -0.262422 3.71239)
(20.2126 -0.0522504 4.36986)
(20.2936 -0.0844263 4.52254)
(21.0093 0.548544 4.26531)
(23.775 0.915433 3.41368)
(26.3316 0.751797 2.12743)
(26.6345 0.0472976 1.22331)
(27.5872 1.43114 -1.30545)
(23.8734 3.99109 -8.34933)
(43.875 3.07118 -6.9284)
(39.2607 0.256493 -19.7993)
(40.0058 0.00134471 0.0487638)
(39.993 0.00221388 0.156025)
(39.9896 0.00516275 0.260264)
(39.9721 0.00626142 0.362406)
(39.9254 0.00562553 0.466273)
(39.8516 0.00417968 0.574425)
(39.7581 0.00257863 0.687312)
(39.6506 0.0013153 0.805818)
(39.532 0.000738647 0.930866)
(39.4029 0.000995767 1.06304)
(39.2607 0.00201053 1.20257)
(39.1009 0.00357639 1.34932)
(38.9174 0.00540646 1.50269)
(38.7051 0.00736379 1.66208)
(38.4576 0.00925117 1.82687)
(38.1789 0.0107421 2.00471)
(37.8686 0.0118189 2.19807)
(37.5421 0.00747078 2.44705)
(37.2233 0.0143651 2.66645)
(36.8107 0.00329579 2.80342)
(36.3221 0.00715999 2.96332)
(35.8038 -0.00522396 3.15042)
(35.1887 -0.00988405 3.52021)
(34.3798 -0.00434915 4.0037)
(33.4703 -0.0142943 4.4655)
(32.4399 -0.00996919 5.10428)
(31.2917 0.0100335 5.90668)
(30.1301 0.0264338 6.47371)
(28.8557 0.0352429 6.02836)
(27.4107 0.0446006 4.10416)
(25.8557 0.0618321 1.43434)
(24.234 0.121332 -0.576904)
(22.6564 0.268033 -1.7594)
(21.537 0.890357 -2.91725)
(22.3986 3.53755 -4.36496)
(23.1555 3.56121 -4.51877)
(24.4131 3.62099 -2.9208)
(21.5642 2.68403 0.540532)
(12.9233 0.566723 0.284157)
(9.1821 0.435958 -5.03826)
(12.1124 0.534952 -2.74119)
(14.064 0.475356 -1.29632)
(15.9367 -0.522596 -0.511582)
(17.5634 -0.623941 1.25897)
(18.0945 -0.417338 2.79078)
(18.6654 -0.4627 2.93268)
(19.7891 0.234414 2.22073)
(21.7565 0.756366 1.3874)
(24.3445 0.876139 0.723592)
(26.2955 0.564615 0.00413988)
(25.8289 0.612338 -0.791763)
(28.1948 1.42861 -0.726521)
(46.7266 -0.769599 6.42518)
(44.1328 -1.46588 8.66168)
(40.0036 0.0013189 0.0564282)
(39.9917 0.00222062 0.180824)
(39.9921 0.00518929 0.302163)
(39.9814 0.00631305 0.421331)
(39.941 0.00574278 0.54279)
(39.8731 0.00439935 0.669489)
(39.7854 0.00292371 0.801839)
(39.6837 0.00179411 0.940753)
(39.5711 0.00133688 1.08715)
(39.4484 0.00167434 1.24152)
(39.313 0.00270513 1.40392)
(39.1602 0.00420262 1.57415)
(38.9838 0.00587288 1.75171)
(38.779 0.0076892 1.9367)
(38.5434 0.0095208 2.12934)
(38.2803 0.0116998 2.3345)
(37.9965 0.013388 2.55602)
(37.7022 0.0165412 2.80052)
(37.3939 0.0156085 3.05656)
(37.0221 0.018153 3.26802)
(36.6001 0.0237296 3.4898)
(35.9136 -0.0140755 3.83872)
(35.5263 -0.0292862 4.11398)
(34.7802 -0.0125874 4.7106)
(33.8507 -0.0297878 5.46531)
(32.8515 -0.033005 6.25812)
(31.708 0.011535 7.12652)
(30.4915 0.0648627 7.76608)
(29.1422 0.0711485 7.42258)
(27.3117 0.0731575 5.68247)
(25.0496 0.103583 3.36301)
(22.5488 0.18382 1.56938)
(19.4359 0.423687 0.715787)
(17.1305 1.16598 0.843918)
(-5.72741 0.491057 2.25646)
(-6.79862 -0.0139574 0.878691)
(-6.46006 -0.429215 -0.467603)
(-2.07033 -1.79441 -0.88753)
(1.87361 -2.87154 -7.33022)
(4.04301 -1.97988 -13.6594)
(8.30467 -0.245735 -6.2268)
(10.7784 -0.320304 -2.28742)
(10.7766 -0.750285 -1.15041)
(12.3304 -0.205638 0.911865)
(13.8908 0.401264 2.61979)
(14.4459 0.0663401 3.68498)
(15.9983 -0.0706011 4.11249)
(18.1024 0.262515 2.88247)
(20.1774 0.278582 1.68626)
(21.5832 0.699374 2.64659)
(19.625 4.9741 0.774626)
(-26.4784 6.44494 -11.2447)
(-65.8481 7.11741 -3.33858)
(-107.989 12.1028 -8.78964)
(40.0056 0.00131882 0.0563477)
(39.994 0.00222098 0.180916)
(39.9924 0.00518985 0.302165)
(39.9775 0.00631417 0.421345)
(39.9345 0.00574304 0.542969)
(39.8656 0.00439808 0.669932)
(39.7781 0.00292219 0.802594)
(39.6773 0.00179225 0.941819)
(39.5661 0.0013345 1.08848)
(39.4448 0.00167155 1.24301)
(39.3105 0.0027026 1.40545)
(39.1582 0.0042011 1.57556)
(38.9821 0.00587559 1.75294)
(38.7774 0.00769051 1.93775)
(38.542 0.00953942 2.13079)
(38.2787 0.0117074 2.33705)
(37.996 0.0134492 2.56194)
(37.6986 0.0164602 2.80984)
(37.3917 0.0157212 3.07622)
(37.0464 0.0203017 3.3218)
(36.5724 0.0247707 3.56319)
(36.0034 -0.0016628 3.86762)
(35.2255 -0.0233857 4.26093)
(34.695 -0.014613 4.80664)
(33.7177 -0.0307431 5.41773)
(32.6691 -0.0321945 6.21485)
(31.5863 0.0148646 7.0612)
(30.6188 0.0583308 7.73624)
(29.4016 0.064957 7.54553)
(27.6912 0.0673651 5.8925)
(25.5783 0.0998215 3.443)
(23.3894 0.177051 1.58387)
(21.3128 0.460493 0.64124)
(19.9285 1.98296 0.491813)
(22.5841 5.69928 1.44734)
(-5.92665 -0.066868 0.919142)
(6.93044 0.72191 -0.023362)
(0.907798 0.699175 0.773423)
(2.18282 -0.806528 -4.72633)
(1.2887 -0.563703 -10.6721)
(0.791872 1.52181 -6.30611)
(5.22362 3.28852 -4.6009)
(3.36688 2.35455 -2.99897)
(4.35622 1.432 0.00206759)
(8.28839 0.85401 3.09829)
(10.1242 0.0412684 3.60523)
(12.1459 -0.417431 2.41133)
(15.1608 -0.131303 0.361358)
(17.7385 0.250878 -1.17285)
(19.049 0.35429 -0.125235)
(24.6112 2.47237 2.05124)
(22.9159 7.13309 -1.53046)
(36.1624 9.17667 -0.691197)
(38.4823 11.7277 -1.48863)
(40.0036 0.00126582 0.0637469)
(39.9931 0.00232339 0.204739)
(39.9959 0.00518559 0.342411)
(39.9882 0.00628703 0.477831)
(39.9523 0.00579698 0.616132)
(39.8903 0.00458517 0.760674)
(39.8096 0.00325785 0.911874)
(39.7158 0.00226674 1.07071)
(39.6119 0.0019146 1.23816)
(39.4981 0.00229921 1.41468)
(39.3717 0.00332332 1.60039)
(39.2279 0.00475888 1.79522)
(39.0608 0.00640184 1.99917)
(38.8662 0.00824741 2.21289)
(38.6433 0.0103946 2.43748)
(38.3961 0.0134189 2.67528)
(38.1312 0.0168751 2.92855)
(37.8551 0.0216733 3.19834)
(37.5594 0.0242869 3.48189)
(37.2381 0.0285434 3.78302)
(36.852 0.0284749 4.11084)
(36.3939 0.024778 4.50144)
(35.729 0.010455 4.94026)
(35.2833 -0.00780652 5.48826)
(34.4341 -0.0479336 6.40527)
(33.5239 -0.0542672 7.36135)
(32.6233 -0.00878312 8.19423)
(31.6875 0.081809 8.94922)
(30.4829 0.14561 9.20439)
(28.3745 0.134214 7.98133)
(25.8658 0.105191 5.64508)
(23.316 0.126301 3.86179)
(20.7648 0.261276 3.6778)
(19.0849 0.989811 6.24424)
(14.1391 1.70659 12.9261)
(-5.00467 -0.0636361 0.827785)
(1.00853 -1.38537 -2.08393)
(3.09659 -2.53757 -0.996644)
(6.14283 -3.35184 -5.4577)
(9.69215 -2.69054 -11.1491)
(9.28783 -0.929564 -11.8018)
(13.2256 -0.0785318 -12.2542)
(13.0768 -0.163881 -8.31454)
(13.9685 0.606379 -4.15444)
(13.6989 1.26439 -0.00238013)
(12.3985 0.486259 3.98948)
(13.7134 -0.00484598 5.03787)
(15.7556 0.215946 2.97134)
(17.5487 0.757637 0.795374)
(20.6063 1.34482 1.32347)
(24.9979 2.12622 5.63341)
(23.1769 3.16458 9.96188)
(31.8795 4.73297 9.92171)
(30.8039 4.37841 15.7653)
(40.0054 0.00126573 0.0636666)
(39.9953 0.00232376 0.204834)
(39.996 0.00518626 0.342422)
(39.9844 0.00628808 0.477864)
(39.9461 0.00579823 0.616342)
(39.8831 0.00458636 0.761153)
(39.8026 0.00325927 0.912662)
(39.7097 0.00226634 1.07179)
(39.6071 0.00191158 1.23948)
(39.4946 0.00229579 1.41615)
(39.3692 0.00332064 1.6019)
(39.2259 0.00475703 1.79668)
(39.0591 0.0064005 2.00061)
(38.865 0.00824909 2.21439)
(38.6431 0.0103973 2.43944)
(38.3972 0.0134303 2.67841)
(38.1341 0.0168958 2.93397)
(37.8568 0.0217273 3.20615)
(37.5601 0.0242617 3.49402)
(37.2393 0.0290599 3.79351)
(36.8399 0.0289651 4.13157)
(36.3951 0.0254208 4.52084)
(35.7082 0.0149939 5.06496)
(35.339 0.0024658 5.52517)
(34.3676 -0.0434706 6.26796)
(33.3043 -0.0572063 7.24979)
(32.3137 -0.0180536 8.08625)
(31.4348 0.077603 8.957)
(30.5172 0.125807 9.16622)
(28.9903 0.10804 8.11925)
(26.5769 0.0976625 5.90313)
(24.0211 0.125229 3.88152)
(21.9286 0.282086 3.19772)
(19.7349 1.68808 4.57457)
(22.9189 4.80682 9.88482)
(19.5607 2.55999 8.64892)
(16.4467 1.77055 6.85442)
(11.4384 1.31805 3.9942)
(10.248 -0.428803 -2.21893)
(5.46783 -0.996735 -8.78487)
(3.43065 1.07378 -8.29661)
(6.82786 2.59051 -8.0672)
(10.2108 3.66002 -7.28266)
(7.77033 3.46868 0.241052)
(5.50913 1.77593 5.99974)
(5.87863 0.474832 6.40963)
(8.55758 -0.000749197 4.93564)
(11.6117 0.0528633 3.07537)
(14.2683 0.810636 1.33282)
(17.9827 1.79989 0.527137)
(22.0991 1.82295 3.03405)
(26.8328 3.62931 5.68181)
(39.1845 6.35965 5.85027)
(41.0021 6.47454 4.05419)
(40.0034 0.00124036 0.0706935)
(39.9946 0.00233359 0.227231)
(40.0001 0.00522108 0.38035)
(39.9963 0.00635754 0.531198)
(39.9658 0.00594187 0.685556)
(39.9106 0.0048348 0.847184)
(39.8381 0.00362749 1.01652)
(39.7534 0.00275298 1.19462)
(39.6594 0.00249504 1.38255)
(39.5558 0.00293733 1.58086)
(39.4401 0.00398105 1.78986)
(39.3073 0.00541076 2.00976)
(39.152 0.00706184 2.24098)
(38.9704 0.00893764 2.48437)
(38.7624 0.0113234 2.74085)
(38.532 0.0146268 3.01184)
(38.2849 0.0187665 3.29659)
(38.0257 0.0239535 3.59667)
(37.7503 0.0284354 3.90961)
(37.4542 0.0331834 4.24703)
(37.1229 0.0373215 4.61478)
(36.7373 0.0369139 5.05508)
(36.3135 0.0384652 5.57937)
(35.6807 0.0437325 6.29186)
(35.257 -0.0390856 7.21248)
(34.3675 -0.0327325 8.22583)
(33.6414 0.0200963 9.06086)
(33.2159 -0.0083007 9.69003)
(32.6507 0.10156 10.4127)
(31.4707 0.27116 10.2901)
(28.924 0.236134 8.39442)
(24.9829 0.163904 6.19564)
(21.8226 0.172433 5.62383)
(19.2959 0.579677 7.21903)
(21.2483 1.32884 14.1984)
(17.8141 0.316434 10.5053)
(15.6713 -1.32735 5.01133)
(12.8635 -2.36563 -0.10143)
(11.6208 -2.94022 -3.49127)
(13.4339 -2.78913 -7.66727)
(7.9786 -1.7158 -5.68616)
(6.86279 1.17379 -0.838463)
(1.67888 -0.422291 2.56948)
(-2.85244 -2.81484 5.24469)
(-4.23755 -3.2372 6.39643)
(2.65468 -1.03614 3.77662)
(9.23551 0.13405 1.1383)
(10.5849 0.446616 0.620897)
(13.5401 0.332016 0.416507)
(18.4593 0.10742 -0.431246)
(23.119 -0.072597 -0.753958)
(30.037 0.533552 2.4997)
(43.5942 0.993442 6.67833)
(39.494 3.39253 -2.94758)
(40.0052 0.00124028 0.0706162)
(39.9968 0.00233392 0.227349)
(40.0004 0.00522174 0.380399)
(39.9927 0.00635866 0.531278)
(39.9598 0.00594329 0.685822)
(39.9038 0.0048363 0.84773)
(39.8314 0.0036294 1.01738)
(39.7477 0.00275322 1.19578)
(39.6548 0.00249284 1.38395)
(39.5526 0.00293473 1.58244)
(39.4377 0.00397985 1.79154)
(39.3054 0.00540747 2.0115)
(39.1505 0.00705812 2.24283)
(38.9696 0.0089381 2.48639)
(38.7629 0.0113217 2.74332)
(38.5342 0.0146301 3.0146)
(38.2889 0.0187862 3.30067)
(38.03 0.023989 3.60085)
(37.7539 0.0285105 3.91651)
(37.4569 0.0333575 4.25187)
(37.118 0.0369298 4.62209)
(36.7385 0.0370059 5.05737)
(36.2939 0.0417741 5.59979)
(35.833 0.030995 6.24767)
(35.3433 0.0713754 7.04096)
(34.3863 -0.0280251 8.10513)
(33.8358 -0.11203 8.7816)
(32.7779 -0.0201225 9.7871)
(31.9283 0.152767 10.4375)
(31.0815 0.221359 10.2159)
(29.4377 0.227651 8.86342)
(26.5728 0.186371 6.73213)
(23.1184 0.236933 5.42377)
(20.3169 0.451306 6.32482)
(21.4109 1.86658 9.83133)
(24.3343 1.88323 10.4506)
(23.8056 1.52845 8.33699)
(21.3524 1.07663 4.88127)
(17.4214 -0.313605 -0.298642)
(10.3529 -1.04411 -7.44007)
(0.936679 1.59868 -5.74448)
(2.23945 4.06868 0.40392)
(-2.42572 3.11931 4.59411)
(-6.57193 0.687737 8.20871)
(-8.22094 -1.64206 9.34202)
(0.358281 -0.725146 5.05587)
(-2.33749 -3.51468 5.67792)
(1.18883 -1.48046 3.69111)
(9.07418 0.730441 1.57605)
(13.8987 1.15211 0.780158)
(17.3767 1.10172 0.934187)
(23.2325 1.15203 3.18279)
(36.5187 1.97867 6.79998)
(39.4095 4.38237 2.4109)
(40.0034 0.00119056 0.0771899)
(39.9965 0.00246105 0.248029)
(40.0053 0.00525743 0.415522)
(40.006 0.00637953 0.580794)
(39.9817 0.00605371 0.750209)
(39.9345 0.00508786 0.92792)
(39.8713 0.00403419 1.1144)
(39.7971 0.00329977 1.31082)
(39.7143 0.00314952 1.51841)
(39.6227 0.00366911 1.73793)
(39.5194 0.00475942 1.96991)
(39.3997 0.00624798 2.21484)
(39.2584 0.00798408 2.47334)
(39.092 0.0100015 2.74608)
(38.9002 0.0126372 3.03359)
(38.6857 0.0159749 3.33555)
(38.4547 0.0208027 3.64988)
(38.2113 0.0256996 3.97563)
(37.9566 0.0310816 4.30916)
(37.6913 0.035259 4.66066)
(37.4171 0.0371004 5.03737)
(37.1213 0.0356734 5.49033)
(36.8718 0.0113212 6.05043)
(36.5136 0.0331102 6.71512)
(36.2574 0.0666426 7.75652)
(35.5086 0.0241637 8.89195)
(35.0202 -0.00673501 9.4836)
(34.2474 -0.0199622 10.3873)
(33.6307 0.000496308 11.1826)
(33.0238 0.0955603 11.7788)
(31.8664 0.178463 11.7301)
(29.3565 0.235962 10.8424)
(25.5169 0.275767 8.99835)
(21.8254 0.227188 7.88967)
(21.4722 0.579562 9.58412)
(22.4972 0.448261 9.24874)
(21.2815 -0.310588 6.24036)
(19.0614 -1.1093 2.37037)
(16.0228 -1.55047 -0.907894)
(15.2805 -2.61409 -2.23238)
(11.7464 -3.37851 -4.82076)
(6.56047 -2.57967 -5.97444)
(1.51195 0.799894 0.575518)
(-3.18757 0.516633 5.42795)
(-3.81808 -0.664999 5.29177)
(1.56443 -1.0855 3.59657)
(7.13671 -2.27619 0.570884)
(11.6959 -2.6778 -1.55979)
(16.6993 -2.85342 -3.05125)
(22.1564 -2.91744 -4.3741)