/*--------------------------------*- C++ -*----------------------------------*\
| =========                 |                                                 |
| \\      /  F ield         | OpenFOAM: The Open Source CFD Toolbox           |
|  \\    /   O peration     | Version:  4.1                                   |
|   \\  /    A nd           | Web:      www.OpenFOAM.org                      |
|    \\/     M anipulation  |                                                 |
\*---------------------------------------------------------------------------*/
FoamFile
{
    version     2.0;
    format      ascii;
    class       volVectorField;
    location    "15";
    object      U;
}
// * * * * * * * * * * * * * * * * * * * * * * * * * * * * * * * * * * * * * //

dimensions      [0 1 -1 0 0 0 0];

internalField   nonuniform List<vector> 
4432
(
(-185946 12546.6 16207.7)
(-172802 28481.3 48181)
(-187939 48883.3 78905.3)
(-221517 23749.4 45943.8)
(-244362 5947.27 36762.5)
(-207420 8098.01 62094.4)
(-187337 6255.51 37626.5)
(-171965 4574.02 3559.61)
(-160713 316.49 -5099.95)
(-158971 -2826.21 -9863.39)
(-147703 -2847.92 -7152.98)
(-133807 -1506.71 -3267.97)
(-133510 159.321 -1738.83)
(-135548 -263.089 -1899.4)
(-132783 -1616.74 -3426.45)
(-126407 -2447.08 -3205.23)
(-121965 -2843.43 240.087)
(-122195 -2926.61 136.309)
(-120709 -2946.29 -2710.52)
(-118355 -2786.24 -2412.02)
(-117382 -2906.95 -1652.43)
(-115863 -3278.77 -1842.58)
(-114298 -3450.82 -1837.02)
(-112638 -3583.08 -1838.64)
(-111068 -3775.52 -1839.78)
(-109480 -3973.55 -1845.78)
(-107876 -4178.82 -1850.94)
(-106269 -4391.99 -1857.82)
(-104658 -4613.14 -1870.51)
(-103055 -4845.02 -1886.83)
(-101464 -5084.66 -1913.63)
(-99893.5 -5343.36 -1977.1)
(-98340.5 -5628.53 -2035.59)
(-96839.5 -5885.54 -2022.71)
(-95507.5 -6090.04 -1977.9)
(-94344.9 -6334.87 -1969.43)
(-93247.4 -6640.77 -1966.68)
(-92286.1 -6910.6 -1896.47)
(-91598.8 -7114.89 -1759.85)
(-91206 -7289.37 -1594.99)
(-91142 -7423.48 -1395.61)
(-91446.3 -7505.93 -1119.89)
(-92167.5 -7518.64 -880.918)
(-93366.5 -7471.67 -874.521)
(-95094.4 -7372.97 -629.284)
(-97603.3 -6974.04 345.69)
(-102151 -6158.36 1639.01)
(-110381 -5239.25 2941.05)
(-122057 -4144.17 3958.19)
(-136681 -2674.24 4826.39)
(-155094 -2018.83 9978.61)
(-201739 -1588.09 16236.7)
(-268654 14221.4 33639.3)
(-295967 -28571.1 49073.5)
(-156246 70316.4 107799)
(-171164 87696.4 148533)
(-188054 98367.3 138849)
(-140591 45110.1 26290.2)
(-210270 2099.18 -17068.4)
(-221623 2541.99 3688.94)
(-195764 7740.25 -6325.3)
(-173105 12803.1 -888.064)
(-162858 4519.98 3618.2)
(-169197 -3212.73 -2643.67)
(-161747 -1348 -5239.15)
(-150437 1205.91 -4913.12)
(-145227 3401.49 -3670.98)
(-142492 3345.32 -5011.65)
(-136824 2281.26 -6650.74)
(-129532 2032.93 -1236.14)
(-128471 1968.89 2480.13)
(-130197 1680.03 -2202.41)
(-129115 1833.49 -4316.21)
(-127484 2384.56 -2581.74)
(-126222 2465.82 -2430.23)
(-125249 2327.38 -2670.25)
(-124317 2403.95 -2738.07)
(-123143 2498.4 -2769.99)
(-122126 2539.69 -2835.56)
(-121107 2580.85 -2899.24)
(-120117 2617.56 -2968.21)
(-119160 2648.88 -3042.09)
(-118233 2673.97 -3122.74)
(-117348 2689.73 -3212.78)
(-116519 2698.49 -3318.08)
(-115756 2688.34 -3444.04)
(-115098 2652.16 -3572.31)
(-114556 2645.1 -3666.13)
(-114066 2688.5 -3732.45)
(-113620 2682.14 -3837.82)
(-113329 2597.62 -3997.64)
(-113234 2531.04 -4134.84)
(-113258 2507.37 -4224.35)
(-113355 2480.11 -4328.5)
(-113493 2444.91 -4473.48)
(-113642 2412.97 -4599.04)
(-113811 2412.58 -4739.14)
(-113939 2457.84 -5033.74)
(-113947 2470.29 -5256.02)
(-114041 2604.89 -5175.14)
(-114132 3153 -5188.65)
(-113987 3595.51 -4983.56)
(-114940 3020.99 -3469.94)
(-118318 1496.45 -381.822)
(-125638 -408.585 7310.94)
(-170683 309.534 15785.3)
(-235873 11513.8 15987.5)
(-119158 -140.819 -2368.63)
(-164790 -32479.6 -111500)
(-197584 -30501.5 -69709.6)
(-259126 -31189.2 -45652.1)
(-306400 -15684.2 -71202.9)
(-303880 -16322.4 -36576.2)
(-271865 -14714.7 -35270.3)
(-224894 -3770.17 -50137.6)
(-202288 -2799 -39032)
(-190852 -1513.67 -958.277)
(-182815 1715.92 1588.94)
(-176112 -565.812 -16556.8)
(-168833 -1770.91 -9658.92)
(-167947 -802.921 -510.448)
(-164925 -537.479 -4108.4)
(-163125 -224.925 -7754.07)
(-164288 -542.902 -5050.25)
(-162929 -1124.67 -1867.61)
(-159515 -1141.84 -2068.16)
(-158093 -1106.33 -2430.89)
(-157642 -853.998 -1919.46)
(-157321 -736.456 -1834.02)
(-156834 -887.506 -1798.75)
(-156208 -926.595 -1732.82)
(-155677 -922.8 -1689.52)
(-155216 -934.522 -1630.97)
(-154836 -946.588 -1561.44)
(-154547 -958.699 -1479.72)
(-154364 -969.016 -1380.56)
(-154289 -976.939 -1263.87)
(-154337 -988.655 -1133.54)
(-154531 -1001.4 -1007.79)
(-154844 -1008.8 -858.161)
(-155245 -1033.84 -588.629)
(-155816 -1054.95 -302.364)
(-156626 -1019.26 -137.235)
(-157574 -988.154 93.8133)
(-158517 -1025.43 475.032)
(-159471 -1064.81 830.329)
(-160416 -1049.94 1054.92)
(-161225 -1012.87 1216.13)
(-161851 -969.009 1379.81)
(-162327 -889.587 1587.09)
(-162594 -743.926 1766.88)
(-162696 -503.134 1846.91)
(-163062 -235.541 1874.12)
(-163098 56.0944 1843.88)
(-161822 566.121 1796.43)
(-159685 1193.25 1813.79)
(-156887 1580.35 1700.95)
(-151262 1521.51 1390.53)
(-145373 -274.341 2371.71)
(-128765 -1851.81 3674.43)
(-122169 2393.86 19598.4)
(-24742.6 2978.52 2894.03)
(-214046 82196.1 131602)
(-207654 90584 128135)
(-205441 113907 119849)
(-187198 108571 134399)
(-255308 35535.4 15130.4)
(-284452 13267.2 -16548.6)
(-268078 2133.2 -40323.4)
(-232070 3202.24 -24750.1)
(-205408 694.11 -6807.66)
(-195721 -4332.64 -15288.1)
(-182944 -4297.96 -22635.3)
(-177615 274.353 -12532.8)
(-177001 2409.99 -305.425)
(-174903 2363.78 -1219.85)
(-175470 2794.03 -4918.48)
(-175778 2481.44 -2202.09)
(-171922 2077.52 -545.852)
(-169575 2444.15 -1084.47)
(-169830 2509.19 -983.419)
(-169763 2733.46 -504.885)
(-168972 3000.32 -259.21)
(-168549 3010.95 -196.126)
(-168065 3115.49 -122.581)
(-167514 3258.06 -66.904)
(-166936 3388.86 -22.4282)
(-166316 3521.97 19.5639)
(-165644 3656.78 55.9678)
(-164928 3795.31 89.2023)
(-164157 3938.13 117.573)
(-163338 4079.01 146.439)
(-162473 4221.72 181.725)
(-161539 4372.03 212.999)
(-160532 4503.36 237.373)
(-159469 4631.25 264.585)
(-158305 4809.47 319.216)
(-157046 4986.82 432.747)
(-155800 5095.29 597.243)
(-154524 5184.5 737.79)
(-153072 5301.41 778.323)
(-151435 5408.25 740.671)
(-149656 5482.88 718.235)
(-147729 5549.6 768.606)
(-145595 5633.44 821.003)
(-143229 5729.45 730.501)
(-140833 5769.43 460.575)
(-138303 5806.57 86.6929)
(-135418 5939.55 -362.703)
(-132696 5833.81 -823.626)
(-130374 4971.07 -1126.39)
(-127579 3366.55 -1315.28)
(-125710 404.203 1935.41)
(-128700 -1141.24 11160.3)
(-133882 3515.8 23243.3)
(-51432.1 3771.93 543.816)
(-167189 -36014.8 -120753)
(-185480 -31717 -114394)
(-207189 -37832 -90817.2)
(-227163 -27913.9 -77628.8)
(-225470 -33078.5 -92606.7)
(-218690 -33617.6 -82653.4)
(-202680 -14904.7 -71835.1)
(-196552 -2962.15 -48426.2)
(-187365 1053.53 -25095.3)
(-168770 744.825 -26940.8)
(-158955 -1253.48 -22578.1)
(-160853 -1033.5 -11885.7)
(-156594 -1896.75 -10585.2)
(-150799 -1340.58 -11589.4)
(-153954 225.29 -10796.9)
(-155950 -484.754 -8225.51)
(-151694 -1213.18 -6937.5)
(-148814 -900.456 -7197.56)
(-147982 -722.329 -6547.23)
(-146639 -636.895 -5718.78)
(-145453 -590.07 -5595.13)
(-144202 -619.117 -5635.08)
(-142779 -604.3 -5631.44)
(-141388 -569.576 -5587.66)
(-140013 -537.394 -5547.87)
(-138686 -494.745 -5474.32)
(-137401 -440.643 -5357.02)
(-136154 -376.698 -5206.24)
(-134959 -305.159 -5040.1)
(-133840 -218.036 -4810.49)
(-132789 -89.4307 -4555.38)
(-131778 34.9186 -4417.14)
(-130792 71.7323 -4112.28)
(-129886 170.046 -3431.53)
(-129221 455.36 -2940.37)
(-128729 685.051 -2693)
(-128118 778.673 -2396.49)
(-127422 885.031 -1826.13)
(-126716 1040.9 -1214.52)
(-125970 1175.73 -624.006)
(-125244 1312.15 73.2486)
(-124549 1480.31 784.581)
(-123728 1683.9 1410.02)
(-122754 1871.85 2100.04)
(-121603 2008.44 2770.07)
(-120052 2153.55 3085.01)
(-117761 2275.94 3501.77)
(-115231 2151.99 4425.75)
(-111939 1765.08 5459.69)
(-107166 1088.07 6294.6)
(-102862 -328.435 6161.96)
(-110405 -1951.45 9604.22)
(-119375 -5128 30391.5)
(-34535.3 -2489.5 15090.7)
(-162511 65572.8 118531)
(-154537 73565.6 143117)
(-156983 82417.6 110712)
(-160590 100388 215477)
(-185431 54155.9 92151.9)
(-210658 33923 24506.7)
(-241198 13031 -29104.3)
(-217553 4555.86 -46472.9)
(-193681 -522.235 -32587.8)
(-179108 -5572.12 -28471.1)
(-170616 -2690.35 -28812.1)
(-172100 1577.91 -13447.3)
(-171446 616.57 -6658.74)
(-170057 707.492 -6703.02)
(-171393 1951.79 -5498.64)
(-171449 1321.78 -3715.7)
(-168981 1167.73 -3311.92)
(-167399 1717.48 -3072.77)
(-167153 1750.29 -2266.41)
(-166496 1805.92 -1614.68)
(-165500 1966.06 -1263.48)
(-164497 2033.46 -1179.02)
(-163288 2112.45 -1083.33)
(-161967 2203.28 -980.285)
(-160540 2287.79 -906.501)
(-159021 2375.52 -824.566)
(-157416 2465.76 -733.86)
(-155735 2555.51 -628.755)
(-153974 2642.38 -508.298)
(-152117 2732.44 -380.349)
(-150162 2849.34 -264.837)
(-148116 2957.46 -170.764)
(-146045 2969.27 -63.7248)
(-144018 2997.75 94.9752)
(-142019 3181.22 396.598)
(-139941 3358.37 770.835)
(-137532 3423.35 928.662)
(-134682 3451.45 914.178)
(-131598 3493.37 1035.32)
(-128484 3517.13 1306.43)
(-125338 3539.15 1561.61)
(-122098 3573.92 1833.96)
(-118729 3618.27 2107.18)
(-115240 3608.18 2342.81)
(-111822 3486.71 2600.39)
(-108687 3311.52 2949.54)
(-105843 3043.36 3637.65)
(-103815 2356.52 4921.61)
(-103238 1293.91 7035.08)
(-103219 265.885 9642.4)
(-107083 -1048.74 13171.6)
(-126939 -2945.65 20510.5)
(-175129 -8160.32 34933.7)
(-103297 -3457.17 7656.13)
(-157830 -38682 -109567)
(-179533 -37452.5 -108646)
(-187544 -36127.3 -110397)
(-193883 -40781.3 -93479.6)
(-195713 -45846.5 -91038.5)
(-188750 -43276.3 -80996.6)
(-179414 -22479 -85094.6)
(-171233 -7384.57 -75619.1)
(-163216 -1736.64 -46379.1)
(-151262 -479.367 -27578.9)
(-152701 372.28 -17619.1)
(-154390 -446.498 -13954.5)
(-149196 -1815.49 -12875)
(-146204 -1690.24 -10301)
(-144949 -1388.31 -9438.63)
(-143580 -1354.17 -10191.4)
(-141199 -1375.76 -9931.85)
(-139288 -1401.23 -8444.3)
(-138288 -1326.76 -7085.66)
(-137154 -1236.95 -6521.79)
(-135966 -1217.78 -6376.24)
(-134697 -1215.33 -6328.35)
(-133334 -1192.62 -6325.31)
(-131951 -1165.76 -6312.64)
(-130559 -1138.92 -6307.8)
(-129195 -1110.38 -6298.08)
(-127870 -1085.33 -6299.46)
(-126595 -1054.87 -6269.48)
(-125410 -1009.54 -6173.58)
(-124358 -985.894 -6043.71)
(-123309 -908.307 -5967.83)
(-122463 -670.698 -5838.71)
(-122749 -708.124 -5345.23)
(-123301 -1111.78 -4852.11)
(-121802 -880.078 -5056.72)
(-119883 -179.041 -5413.24)
(-119604 65.2559 -5227.62)
(-119337 -163.648 -4905.17)
(-118384 -145.928 -4668.09)
(-117531 85.2176 -4386.9)
(-116723 187.638 -4036.72)
(-115679 266.245 -3642.42)
(-114334 407.247 -3159.16)
(-112816 492.399 -2600.44)
(-111029 491.569 -2120.19)
(-108858 521.275 -1810.41)
(-106510 518.063 -1358.57)
(-104155 326.938 -512.291)
(-100960 60.7791 840.357)
(-96387.2 -73.0171 2628.25)
(-92160 -164.003 4869.25)
(-101013 -1064.18 8844.51)
(-108881 -6189.9 24671.2)
(-21108.9 -3043.29 11863.9)
(-105270 23048.9 129158)
(-110014 48926.1 175697)
(-138837 63386.8 190961)
(-140181 57637.7 238498)
(-119020 27437 98715.4)
(-152691 14517.1 25805.5)
(-195420 6024.89 -5820.68)
(-187843 3038.69 -50146.3)
(-174157 -482.398 -45619.8)
(-164549 -5453.5 -38575.5)
(-158705 260.223 -28878.3)
(-158769 1303.56 -13713.6)
(-157254 -752.835 -8265.33)
(-156735 -730.928 -6405.89)
(-156495 118.244 -5203.49)
(-154716 252.787 -5294.14)
(-152661 241.968 -5487.82)
(-151439 199.207 -4450.99)
(-150791 201.242 -3220.59)
(-149934 276.226 -2715.37)
(-148828 313.372 -2525.69)
(-147553 314.92 -2513.04)
(-146116 313.202 -2538.01)
(-144604 309.853 -2588.93)
(-143040 302.966 -2672.95)
(-141480 292.216 -2753.98)
(-139944 270.486 -2827.15)
(-138432 251.588 -2902.98)
(-136912 257.296 -3013.01)
(-135450 235.941 -3127.79)
(-134252 219.119 -3155.65)
(-133172 364.68 -3168.25)
(-131832 384.81 -3297.87)
(-130691 80.7822 -3361.33)
(-130119 203.352 -3287.12)
(-128832 727.24 -3502.5)
(-126418 930.32 -4041.93)
(-124563 639.821 -4363.57)
(-123383 515.214 -4379.91)
(-121944 646.915 -4397.19)
(-120444 676.106 -4479.2)
(-119081 668.471 -4525.8)
(-117519 727.713 -4428.92)
(-115797 740.279 -4168.5)
(-114317 680.412 -3890.71)
(-112924 657.922 -3629.95)
(-111286 646.883 -2957.06)
(-109684 495.549 -1596.87)
(-107948 304.41 309.064)
(-104755 317.989 2631.37)
(-102542 281.98 6670.84)
(-110683 -1155.52 14093.3)
(-138475 -8213.09 31851.1)
(-65814 -3852.88 11265.2)
(-144018 -33256.2 -71904.1)
(-159360 -35868.6 -60690.7)
(-173369 -38028.2 -66956.1)
(-177457 -46804.7 -74807)
(-168645 -51808.4 -71826.5)
(-157765 -43874 -64421.2)
(-147380 -22542.6 -70985.7)
(-143645 -8864.9 -71373.9)
(-149356 -4521.13 -52065.9)
(-150801 -1107.45 -29801.5)
(-149299 1065.09 -18044.4)
(-145857 -1511.76 -17385.6)
(-144173 -2084.77 -14741.9)
(-142752 -1429.85 -12500.3)
(-140484 -1487.81 -11828)
(-139298 -1480.68 -10875)
(-138297 -1472.9 -10220.6)
(-137585 -1421.1 -9072.15)
(-136918 -1313.21 -7532.23)
(-136006 -1205.94 -6888.08)
(-135069 -1121.8 -6750.54)
(-134060 -1041.16 -6670.8)
(-132947 -947.432 -6609.47)
(-131761 -859.287 -6585.89)
(-130536 -773.67 -6579.97)
(-129356 -677.653 -6534.43)
(-128340 -576.46 -6415.04)
(-127476 -516.963 -6214.47)
(-126607 -478.873 -5986.81)
(-125768 -372.067 -5801.81)
(-125239 -219.295 -5500.85)
(-125220 -209.942 -4736.26)
(-125427 -434.958 -3993.52)
(-124949 -636.834 -4257.92)
(-123721 -473.225 -4832.34)
(-122997 -110.297 -4578.31)
(-122866 29.3088 -3868.77)
(-122403 -38.5509 -3697.54)
(-121621 -35.4914 -3649.11)
(-120833 56.044 -3378.54)
(-119947 116.342 -3179.83)
(-118825 129.734 -3119.34)
(-117355 161.287 -2984.52)
(-115531 233.026 -2688.85)
(-113461 251.966 -2497.47)
(-111204 194.972 -2492.74)
(-108590 113.742 -2314.06)
(-105478 -3.15837 -1858.41)
(-101448 -105.571 -1265)
(-95588.7 -91.073 -737.911)
(-88251.8 65.578 274.559)
(-94292.2 -673.213 3939.25)
(-96189.2 -6198.5 18864.8)
(-3119.35 -2955.13 9809.02)
(-97263.4 11356.9 127593)
(-97869.5 28085.2 171810)
(-107285 38171.4 198763)
(-98156.1 29898 211096)
(-78423.6 13761.3 86237.5)
(-144593 2422.28 28526.1)
(-170997 -6422.48 3898.94)
(-160291 -4174.47 -44065.6)
(-158817 -1617.39 -51226.7)
(-150293 -2733.23 -48874.4)
(-143774 437.799 -33906.3)
(-145143 -779.47 -17241.6)
(-145622 -976.824 -11589.6)
(-144033 -480.287 -10035.3)
(-141805 -71.989 -8611.81)
(-139640 -194.567 -8073.26)
(-138290 -278.598 -7895.14)
(-137392 -273 -6876.06)
(-136676 -259.877 -5520.42)
(-135712 -222.65 -4910.39)
(-134624 -197.126 -4762.52)
(-133447 -189.323 -4714.94)
(-132187 -174.279 -4681.88)
(-130888 -164.87 -4678.14)
(-129598 -160.493 -4680.27)
(-128362 -145.871 -4651.69)
(-127174 -113.214 -4624.59)
(-126073 -104.865 -4601.65)
(-125215 -112.635 -4471.16)
(-124742 -52.246 -4117.06)
(-124442 80.162 -3682.67)
(-123818 155.046 -3500.59)
(-122915 69.7859 -3600.28)
(-122273 -64.1286 -3691.91)
(-121798 40.5301 -3781.17)
(-121027 335.016 -3978.92)
(-120154 480.081 -4030.95)
(-119537 432.104 -3884)
(-118945 431.503 -3783.35)
(-118248 521.206 -3715.68)
(-117488 587.335 -3650.67)
(-116622 603.403 -3716.09)
(-115660 623.571 -3724.8)
(-114408 677.795 -3462.23)
(-112763 698.085 -3189.13)
(-111007 645.88 -3147)
(-109179 565.354 -3001)
(-106869 465.72 -2453.37)
(-103608 400.944 -1551.44)
(-98201.1 453.611 -461.758)
(-92440.8 534.798 1238.18)
(-97938.1 -833.205 6563.86)
(-118403 -8069.79 24932.2)
(-42657.9 -3749.37 11040)
(-140974 -26527.7 -61670.6)
(-146045 -30378.8 -50269.9)
(-156001 -34658.7 -58537.3)
(-159474 -42688.2 -60895.4)
(-150593 -45469.3 -52452.7)
(-137858 -33339.6 -52574.5)
(-126462 -11054.5 -67083)
(-127588 -1248.26 -69542.6)
(-138801 -1418.74 -49480.1)
(-144849 -1561.79 -29465)
(-140659 -1546.92 -22502.5)
(-139663 -1688.99 -18488.2)
(-140488 -960.352 -14456.2)
(-138706 -1234.56 -13590.2)
(-137785 -1331.73 -12158.1)
(-137228 -1263.84 -10626.7)
(-136767 -1222.85 -9761.76)
(-136472 -1136.3 -8557.65)
(-135921 -997.831 -7308.74)
(-135006 -861.612 -6871.27)
(-134103 -756.334 -6758.07)
(-133140 -644.232 -6682.14)
(-132053 -523.676 -6655.18)
(-130952 -389.852 -6654.77)
(-129976 -278.05 -6554.01)
(-129158 -216.482 -6296.39)
(-128400 -162.068 -5966.49)
(-127767 -63.74 -5638.71)
(-127418 64.1286 -5248.08)
(-127364 187.732 -4715.17)
(-127565 235.42 -3989.45)
(-127764 102.51 -3205.95)
(-127260 -93.9837 -2965.25)
(-126094 -35.2307 -3411.67)
(-125476 255.767 -3576.3)
(-125634 443.045 -3002.24)
(-125576 440.576 -2462.82)
(-125197 413.168 -2311.29)
(-124802 438.196 -2078.88)
(-124264 503.323 -1665.46)
(-123566 550.659 -1328.68)
(-122732 546.576 -1126.37)
(-121671 549.016 -935.399)
(-120348 571.932 -646.735)
(-118719 538.864 -353.089)
(-116796 461.735 -241.052)
(-114635 384.69 -275.604)
(-112107 276.835 -353.789)
(-108669 145.173 -478.294)
(-102965 38.6627 -1449.9)
(-93957.2 21.5091 -2053.74)
(-94460.5 -1130.06 -3408.84)
(-93625 -6134.76 13626.1)
(-2412.25 -2094.69 7398.62)
(-91723.7 11470.1 111687)
(-87113.5 22953.7 162769)
(-84255.8 30173 176014)
(-71057.6 24021.5 171112)
(-85559.6 12572 80326.2)
(-152494 -1955.84 39592.8)
(-166003 -11218.4 1083.96)
(-146772 -7263.87 -47880.4)
(-136483 -3790.23 -64995.7)
(-128827 -2179.54 -56579)
(-135371 -341.646 -30948.9)
(-140602 -543.935 -15904.9)
(-139089 -240.862 -13774.6)
(-137179 -109.635 -13110.5)
(-135615 -35.2006 -11519.1)
(-134252 -94.6759 -10376)
(-133536 -155.936 -9714.88)
(-133216 -154.914 -8483.99)
(-132783 -122.066 -7160.07)
(-131986 -81.8923 -6551.7)
(-131155 -70.1617 -6300.35)
(-130295 -58.0642 -6078.55)
(-129345 -39.3916 -5883.31)
(-128312 -9.90455 -5708.58)
(-127221 7.18338 -5524.02)
(-126163 -0.618387 -5290.8)
(-125270 -4.12478 -4969.65)
(-124642 32.4612 -4480.97)
(-124315 119.924 -3759.46)
(-124177 236.722 -2966.77)
(-123787 299.845 -2544.77)
(-122928 244.023 -2656.01)
(-122161 162.694 -2838.38)
(-121872 231.154 -2699.23)
(-121601 439.767 -2466.91)
(-121213 605.993 -2297.21)
(-120930 635.922 -2109.46)
(-120639 615.203 -1929.13)
(-120253 635.639 -1701.71)
(-119779 701.676 -1385.76)
(-119105 750.277 -1099.66)
(-118320 746.866 -900.054)
(-117505 745.911 -739.956)
(-116429 768.653 -553.876)
(-114975 742.127 -298.855)
(-113319 669.092 -64.6013)
(-111564 595.706 65.869)
(-109487 491.112 118.574)
(-106602 352.418 190.284)
(-101454 225.996 -326.658)
(-93823.8 137.005 -528.505)
(-95018.5 -1378.32 -1559.13)
(-108344 -7078.86 14925.7)
(-27820.5 -2412.76 9428.34)
(-139779 -24296 -50172.3)
(-134598 -29192.7 -30168.5)
(-136305 -33824.4 -37224.1)
(-135513 -37931.4 -42773.1)
(-126903 -36175.9 -41283.4)
(-116534 -21925 -48355.1)
(-106413 -3698.27 -65220.5)
(-111394 -68.7825 -67078.1)
(-126453 -1217.34 -48747.3)
(-135873 -941.718 -29733.3)
(-135670 -1324.38 -20172.4)
(-136206 -1050.97 -17572.5)
(-135998 -627.717 -16512.2)
(-135282 -803.925 -14727.5)
(-135190 -868.32 -12550.3)
(-134863 -806.713 -11104.2)
(-134337 -764.93 -10365.6)
(-133871 -674.354 -9420.95)
(-133122 -550.891 -8617.78)
(-132149 -437.94 -8352.55)
(-131226 -350.069 -8310.34)
(-130279 -244.048 -8270.76)
(-129316 -127.699 -8219.76)
(-128420 -37.792 -8069.09)
(-127519 -22.7192 -7816.58)
(-126519 -14.185 -7525.95)
(-125498 62.2251 -7176.44)
(-124665 173.434 -6680.34)
(-124071 237.994 -6118.62)
(-123643 203.935 -5598.44)
(-123253 83.7592 -5037.41)
(-122570 -15.5094 -4577.43)
(-121448 12.5208 -4543.36)
(-120441 154.639 -4708.83)
(-120010 297.436 -4545.36)
(-119696 378.466 -4145.7)
(-119110 419.246 -3880.96)
(-118515 446.722 -3768)
(-117975 481.925 -3668.47)
(-117278 547.716 -3545.48)
(-116403 629.669 -3407.36)
(-115435 693.308 -3295.47)
(-114389 735.408 -3226.38)
(-113178 778.759 -3163.38)
(-111708 817.207 -3144.7)
(-110064 832.338 -3251.21)
(-108530 815.868 -3418.14)
(-107131 779.933 -3746.06)
(-105970 768.094 -4477.66)
(-103000 859.797 -5862.96)
(-101830 922.58 -7742.86)
(-98041.2 103.735 -8482.17)
(-119847 -3418.48 -7239.48)
(43851 -2607.77 -12675.7)
(-103747 11532.9 89482.6)
(-95103.8 19070.4 141140)
(-89965 23779.1 149511)
(-79781.2 20619 146453)
(-105254 11998.7 90185.5)
(-157432 -1940.2 50718.6)
(-152257 -8230.79 -3201.19)
(-121323 -4509.79 -59689)
(-107249 1819.68 -74312)
(-119294 -156.881 -47681.3)
(-135242 -415.633 -21615.6)
(-136580 -175.793 -16576.2)
(-134591 309.731 -16531.3)
(-133724 241.768 -15177.7)
(-133276 173.842 -13199.3)
(-132661 148.244 -11979.8)
(-132321 107.39 -11157.9)
(-132224 103.723 -9985.97)
(-131848 132.061 -8907.76)
(-131182 158.184 -8382.35)
(-130501 156.564 -8089.83)
(-129742 168.439 -7831.48)
(-128799 194.009 -7626.67)
(-127628 215.258 -7458.97)
(-126321 190.724 -7249.75)
(-125078 159.54 -6887.62)
(-123971 181.559 -6317.66)
(-122943 267.244 -5520.87)
(-121969 364.894 -4599.43)
(-120903 371.221 -4007.25)
(-119566 255.467 -4088.41)
(-118334 174.16 -4372.98)
(-117580 259.994 -4255.06)
(-116897 426.17 -3920.32)
(-115994 534.375 -3706.1)
(-115038 591.957 -3589.6)
(-114070 641.364 -3482.39)
(-113084 680.857 -3387.64)
(-112112 720.661 -3316.3)
(-111004 785.823 -3265.56)
(-109645 868.209 -3199.49)
(-108085 936.118 -3119.82)
(-106412 984.026 -3083.29)
(-104639 1033.7 -3108.85)
(-102674 1077.74 -3171.99)
(-100534 1098.32 -3328.39)
(-98483.3 1087.68 -3593.13)
(-96571.6 1051.68 -4089.51)
(-94903.5 1027.7 -5070.93)
(-91197 1103.2 -6928.04)
(-88800.6 1117.34 -9735.23)
(-86254.4 6.27046 -11111.8)
(-120663 -4308.75 -8998.93)
(22379 -2684.92 -13179.1)
(-137208 -22170.5 -38910.8)
(-128403 -27787.2 -13558.4)
(-120815 -32990.2 -16160.3)
(-113467 -35437.7 -20754)
(-99552.1 -31207.9 -24359.8)
(-92225.8 -18951.6 -41342.6)
(-88469.6 -5775.23 -60839.4)
(-102460 -3609.65 -59819.2)
(-122591 -1607.43 -40816.6)
(-131073 325.632 -25225.3)
(-131961 -457.446 -20124.2)
(-132229 -661.592 -18758)
(-132745 -555.157 -17103.2)
(-133136 -627.719 -15030.6)
(-133191 -654.657 -13039)
(-132774 -638.294 -11973.2)
(-132259 -620.849 -11338.1)
(-131862 -565.434 -10532.3)
(-131377 -477.305 -9875.72)
(-130920 -403.657 -9525.14)
(-130639 -317.375 -9282.52)
(-130465 -229.374 -9006.64)
(-130254 -165.369 -8747.31)
(-129749 -156.284 -8516.43)
(-128831 -152.259 -8296.76)
(-127675 -81.9448 -7983.02)
(-126574 6.48225 -7513.89)
(-125627 25.1332 -6919.54)
(-124857 26.9363 -6218.04)
(-124424 38.0814 -5373.67)
(-124088 -42.0963 -4596.83)
(-123213 -156.495 -4291.29)
(-122066 -117.087 -4277.27)
(-121432 39.6307 -4040.89)
(-121252 116.547 -3559.2)
(-121050 127.103 -3143.43)
(-120675 152.257 -2889.62)
(-120200 176.069 -2682.68)
(-119706 202.592 -2474.39)
(-119221 245.453 -2302.56)
(-118711 295.391 -2163.23)
(-118116 347.158 -2038.37)
(-117404 401.085 -1962.59)
(-116589 455.825 -1974.5)
(-115713 509.997 -2096.39)
(-114870 559.331 -2350.01)
(-114381 604.372 -2608.51)
(-114416 641.276 -3024.14)
(-115110 695.682 -3941.68)
(-115792 779.345 -5469.58)
(-116348 904.722 -9038.07)
(-122644 546.558 -17574.5)
(-127238 -2683.94 -57230.5)
(-45401.8 -1956.92 -33311.9)
(-119501 7051.76 73136.4)
(-110477 12070.9 123394)
(-105693 14594 130778)
(-97555 12481.8 133756)
(-107120 7591.98 105196)
(-132233 -2124.88 56764.2)
(-109784 -6738.78 -13732.4)
(-86022.1 -4158 -63468.1)
(-112886 531.299 -50581.7)
(-132653 855.795 -30350.9)
(-132715 906.03 -19472.2)
(-131842 261.603 -18839.2)
(-131870 328.168 -17754.4)
(-132290 253.43 -15689)
(-132648 187.532 -13871.8)
(-132611 146.552 -12817.1)
(-132766 88.8059 -11937.9)
(-133019 54.916 -10898.8)
(-133055 55.7195 -10022.8)
(-132954 45.6401 -9519.91)
(-132853 45.3498 -9173.04)
(-132646 51.2496 -8905.19)
(-132195 57.6753 -8747.6)
(-131470 37.029 -8629.08)
(-130600 4.49859 -8365.1)
(-129723 12.8011 -7858.06)
(-128787 76.5424 -7169.36)
(-127829 169.184 -6292.17)
(-126960 253.048 -5371.65)
(-125968 221.638 -4931.28)
(-124933 70.5874 -4939.25)
(-124372 17.1899 -4749.63)
(-124176 141.371 -4255.43)
(-123834 272.462 -3870.53)
(-123427 311.376 -3610.44)
(-123146 335.965 -3350.28)
(-122796 371.367 -3125.69)
(-122315 397.392 -2913.59)
(-121819 434.655 -2711.16)
(-121313 487.175 -2561.25)
(-120775 542.487 -2432.23)
(-120158 599.345 -2277.9)
(-119386 659.295 -2127.69)
(-118493 719.625 -2049.08)
(-117539 778.351 -2064.54)
(-116573 831.836 -2185.41)
(-115854 880.103 -2325.48)
(-115482 916.966 -2694.17)
(-115523 965.358 -3663.34)
(-115223 1039.02 -5440.12)
(-114912 1118.02 -9477.73)
(-120441 600.351 -17781.8)
(-130978 -2754.86 -53142.9)
(-62192.1 -2329.59 -32454.1)
(-131696 -18451.6 -28676.1)
(-125440 -24004.7 -3899.83)
(-110537 -29873.1 -259.803)
(-101507 -31654.3 -7829.06)
(-84343.2 -27815.5 -16259.6)
(-74914.3 -18684.7 -33646.2)
(-81138 -8068.19 -48900)
(-103281 -2950.53 -43724.2)
(-119331 -1054.21 -31265.4)
(-124974 -74.7055 -23143.2)
(-127026 -417.188 -20133.8)
(-128119 -621.586 -18747.2)
(-129139 -619.562 -17174.5)
(-129925 -633.969 -15274.8)
(-130055 -632.461 -13812.9)
(-129845 -619.279 -13022.5)
(-129786 -593.374 -12338.6)
(-129964 -526.945 -11524)
(-130266 -439.607 -10776.2)
(-130756 -355.279 -10226.9)
(-131428 -265.781 -9752.07)
(-132067 -214.785 -9436.06)
(-132269 -201.441 -9410.82)
(-131760 -190.298 -9594.33)
(-130763 -123.406 -9614.39)
(-129719 -45.5189 -9262.65)
(-128882 -27.2468 -8595.41)
(-128427 -22.4454 -7603.01)
(-128374 35.683 -6319.65)
(-128332 65.6474 -5189.37)
(-127981 12.9595 -4658.18)
(-127552 -35.7837 -4443.63)
(-127453 2.88191 -3971.39)
(-127690 80.1527 -3205.35)
(-127968 142.131 -2501.29)
(-128175 179.426 -2009.92)
(-128393 197.961 -1615.56)
(-128676 219.727 -1147.87)
(-128983 248.028 -575.866)
(-129281 282.656 32.9928)
(-129588 332.439 638.332)
(-129907 384.782 1240.32)
(-130209 427.515 1864.63)
(-130510 468.275 2527.7)
(-130896 509.36 3194.22)
(-131510 538.389 3785.72)
(-132422 546.295 4338.62)
(-133550 529.708 4713.87)
(-134648 503.329 4497.34)
(-134247 467.119 2870.89)
(-134409 516.157 -1882.89)
(-137783 1720.22 -13216.3)
(-163718 973.267 -48904.7)
(-81576.2 113.305 -15798)
(-126235 -868.295 58190.5)
(-117701 1046.38 104620)
(-110104 1663.81 111187)
(-104504 -392.17 109844)
(-95488.2 -3487.14 86558)
(-91479.3 -8631.44 31175.8)
(-75241.5 -10078.4 -36019.6)
(-88348.6 -5570.04 -53546)
(-115817 -37.7034 -35976.9)
(-124126 1265.94 -26232.2)
(-125734 623.424 -20608)
(-127402 273.094 -18829.9)
(-128942 260.283 -17298.3)
(-130181 200.253 -15467.1)
(-130885 160.792 -14087.7)
(-131311 117.309 -13206)
(-131904 62.7613 -12353.6)
(-132541 37.1983 -11435.5)
(-133100 33.0793 -10658.6)
(-133644 28.5305 -10109.2)
(-134222 33.8715 -9688.32)
(-134686 20.9392 -9420.4)
(-134841 -2.14795 -9360.95)
(-134618 -23.7192 -9333.22)
(-134114 -1.80987 -9032.86)
(-133470 54.8718 -8409)
(-132822 118.056 -7549.97)
(-132470 204.117 -6370.89)
(-132344 289.254 -5146.79)
(-131962 278.516 -4504.34)
(-131609 219.748 -4195.47)
(-131791 219.833 -3544.54)
(-132201 270.259 -2747.11)
(-132582 326.285 -2104.26)
(-132946 396.92 -1469.05)
(-133235 455.643 -885.878)
(-133545 484.78 -427.654)
(-133919 516.827 86.7802)
(-134287 557.683 717.369)
(-134655 604.831 1382.7)
(-135011 667.901 2057.75)
(-135315 734.781 2751.39)
(-135559 793.256 3473.91)
(-135789 850.702 4234.11)
(-136077 909.827 5000.51)
(-136544 959.516 5724.9)
(-137307 990.047 6436.4)
(-138361 996.775 6937.13)
(-139750 997.237 6825.31)
(-140020 989.6 5387.96)
(-142196 1034.15 578.084)
(-149119 1973.72 -9722.67)
(-180272 1279.95 -43230.8)
(-124456 535.315 -12500.5)
(-126292 -13575.1 -19501.2)
(-124078 -17460.1 -369.182)
(-106355 -21769.4 6192.55)
(-98932.2 -22415.9 -3843.33)
(-87363.3 -19024.1 -14368.2)
(-80329.8 -12469.4 -23866.2)
(-88923.8 -4782 -31357.7)
(-104920 -1277.27 -28305.8)
(-114200 -584.351 -23744.3)
(-118423 -424.764 -20655.5)
(-121141 -603.568 -18945.3)
(-123073 -745.621 -17703.6)
(-124620 -715.544 -16384.9)
(-125607 -674.169 -15083.2)
(-126047 -641.716 -14075.3)
(-126405 -598.567 -13340.9)
(-127008 -539.651 -12571.3)
(-127832 -459.117 -11713)
(-128809 -392.636 -10922.8)
(-129901 -326.67 -10312.2)
(-131045 -295.45 -9913.41)
(-131893 -295.441 -9969.91)
(-131978 -299.536 -10593.2)
(-131242 -247.559 -11358.4)
(-130054 -160.063 -11580.2)
(-128907 -103.05 -11034.7)
(-128102 -75.4813 -9934.92)
(-127734 13.4714 -8587.79)
(-127573 137.508 -7483.53)
(-127287 145.302 -6843.35)
(-126997 93.4443 -6360.06)
(-127109 145.184 -5731.87)
(-127576 248.393 -5059.16)
(-128007 290.752 -4507.94)
(-128300 342.348 -4069.08)
(-128663 449.155 -3671.53)
(-129192 541.352 -3273.33)
(-129801 607.71 -2860.35)
(-130423 683.327 -2422.25)
(-131048 777.559 -1951.09)
(-131682 891.256 -1439.68)
(-132357 1021.92 -888.354)
(-133088 1161.42 -288.923)
(-133895 1305.94 382.334)
(-134864 1454.87 1110.33)
(-136197 1603.72 1820.58)
(-138274 1749.11 2443.13)
(-141507 1883.35 2751.15)
(-146721 1995.91 2331.68)
(-153896 2171.97 960.674)
(-171236 2075.43 -1478.47)
(-206972 4560.29 -6898.31)
(-240909 9315.59 -20232)
(-395636 7372.89 -51550)
(-125413 -7494.25 36836.9)
(-119959 -9099.76 74725.2)
(-107229 -9262.19 80867.5)
(-99980.8 -10429 71249.6)
(-87377.7 -11406.3 41822.5)
(-77215.9 -11301.9 -2812.55)
(-79481 -7322.12 -34938.1)
(-98877.6 -2344.29 -34545.6)
(-110893 504.163 -25391)
(-117089 747.568 -21715.1)
(-120488 304.474 -18731.2)
(-123058 152.57 -17362.3)
(-125130 155.688 -16255.4)
(-126596 141.713 -15046.3)
(-127510 126.539 -14086.6)
(-128311 104.233 -13324.4)
(-129212 81.9781 -12534)
(-130148 76.8554 -11718.2)
(-131109 60.4074 -10995.9)
(-132131 47.7322 -10425.6)
(-133213 12.792 -10037)
(-134138 -29.0735 -9998.6)
(-134531 -56.9579 -10410.7)
(-134168 -31.7432 -10919.8)
(-133183 28.9396 -10990.7)
(-131984 79.8425 -10476.9)
(-131014 118.713 -9487.62)
(-130472 220.637 -8148.08)
(-129936 359.239 -7115.61)
(-129195 377.442 -6731.24)
(-128887 317.097 -6311.01)
(-129095 341.839 -5487.24)
(-129258 425.209 -4789.44)
(-129399 481.388 -4372.39)
(-129605 557.472 -4008.23)
(-129717 661.414 -3653.33)
(-129815 737.91 -3309.33)
(-129966 798.817 -2960.92)
(-130095 871.267 -2602.51)
(-130171 956.62 -2229.78)
(-130195 1057.36 -1839.36)
(-130148 1171.64 -1415.72)
(-130033 1290.53 -937.825)
(-129890 1410.2 -399.628)
(-129810 1529.29 170.677)
(-129985 1643.04 733.948)
(-130748 1748.51 1217.93)
(-132434 1836.19 1418.85)
(-135803 1909.01 1032.51)
(-140955 2043.43 -178.689)
(-153193 1905.5 -1726.83)
(-184586 3802.36 -4481.08)
(-201164 8010.37 -9305.55)
(-282925 7421.94 27097.2)