/*--------------------------------*- C++ -*----------------------------------*\
| =========                 |                                                 |
| \\      /  F ield         | OpenFOAM: The Open Source CFD Toolbox           |
|  \\    /   O peration     | Version:  4.1                                   |
|   \\  /    A nd           | Web:      www.OpenFOAM.org                      |
|    \\/     M anipulation  |                                                 |
\*---------------------------------------------------------------------------*/
FoamFile
{
    version     2.0;
    format      ascii;
    class       surfaceScalarField;
    location    "77";
    object      phi;
}
// * * * * * * * * * * * * * * * * * * * * * * * * * * * * * * * * * * * * * //

dimensions      [0 3 -1 0 0 0 0];

internalField   nonuniform List<scalar> 
11516
(
-3.45546e+10
9.0212e+07
8.00733e+08
-3.52508e+10
5.76036e+07
6.60428e+08
-3.58851e+10
4.91028e+07
6.05886e+08
-3.64347e+10
2.87291e+07
5.40633e+08
-3.69511e+10
3.20748e+07
5.03155e+08
-3.7439e+10
3.03904e+07
4.75913e+08
-3.78957e+10
2.67462e+07
4.47753e+08
-3.83276e+10
2.49044e+07
4.24334e+08
-3.8733e+10
2.27092e+07
3.99657e+08
-3.91088e+10
2.06434e+07
3.71555e+08
-3.945e+10
1.87693e+07
3.38582e+08
-3.97517e+10
1.69668e+07
3.01468e+08
-4.00028e+10
1.53032e+07
2.55465e+08
-4.01964e+10
1.35039e+07
2.04611e+08
-4.03224e+10
1.13975e+07
1.44959e+08
-4.03729e+10
8.26805e+06
7.95848e+07
-4.0345e+10
3.30656e+06
8.81088e+06
-4.02321e+10
-1.63999e+06
-6.80818e+07
-4.0035e+10
-7.15572e+06
-1.46673e+08
-3.97498e+10
-1.27993e+07
-2.26874e+08
-3.93792e+10
-1.97604e+07
-3.08546e+08
-3.89304e+10
-2.7237e+07
-3.83814e+08
-3.84112e+10
-3.61899e+07
-4.55685e+08
-3.78351e+10
-4.57195e+07
-5.13947e+08
-3.72104e+10
-5.5525e+07
-5.62333e+08
-3.65534e+10
-6.51321e+07
-5.92851e+08
-3.5875e+10
-7.44768e+07
-6.11236e+08
-3.51929e+10
-8.34546e+07
-6.11429e+08
-3.45196e+10
-9.20762e+07
-5.99437e+08
-3.38694e+10
-1.00252e+08
-5.73326e+08
-3.32559e+10
-1.07916e+08
-5.34153e+08
-3.26882e+10
-1.15126e+08
-4.86032e+08
-3.21786e+10
-1.2199e+08
-4.25252e+08
-3.17348e+10
-1.29048e+08
-3.55324e+08
-3.13641e+10
-1.36964e+08
-2.75575e+08
-3.1074e+10
-1.46277e+08
-1.84857e+08
-3.08676e+10
-1.57243e+08
-8.60496e+07
-3.07469e+10
-1.7112e+08
2.22726e+07
-3.07035e+10
-1.89403e+08
1.33177e+08
-3.073e+10
-2.12949e+08
2.50744e+08
-3.08227e+10
-2.42387e+08
3.81302e+08
-3.09791e+10
-2.79002e+08
5.27676e+08
-3.12032e+10
-3.23946e+08
6.96537e+08
-3.15149e+10
-3.77983e+08
8.98818e+08
-3.19653e+10
-4.3733e+08
1.15384e+09
-3.26648e+10
-4.88841e+08
1.49152e+09
-3.37842e+10
-5.23691e+08
1.94204e+09
-3.54435e+10
-5.81571e+08
2.43986e+09
-3.75049e+10
-8.3088e+08
2.9017e+09
-3.97435e+10
-1.55786e+09
3.39494e+09
-4.35327e+10
-2.44409e+09
5.15306e+09
-5.10208e+10
-2.35606e+09
9.18841e+09
-6.33349e+10
-8.89035e+09
2.07985e+10
-5.4301e+09
1.175e+10
-4.82134e+10
6.03751e+08
-4.86545e+10
5.09997e+08
-4.90432e+10
4.48836e+08
-4.94087e+10
4.04868e+08
-4.97299e+10
3.63753e+08
-5.00253e+10
3.36075e+08
-5.02972e+10
3.08912e+08
-5.05467e+10
2.84681e+08
-5.0773e+10
2.59258e+08
-5.0973e+10
2.30785e+08
-5.11417e+10
1.97947e+08
-5.12758e+10
1.62322e+08
-5.13658e+10
1.18415e+08
-5.14071e+10
7.09515e+07
-5.13923e+10
1.65157e+07
-5.1319e+10
-4.22677e+07
-5.11874e+10
-1.03225e+08
-5.09924e+10
-1.70395e+08
-5.07348e+10
-2.37412e+08
-5.04136e+10
-3.06599e+08
-5.00305e+10
-3.75992e+08
-4.95953e+10
-4.39075e+08
-4.91136e+10
-4.99316e+08
-4.85996e+10
-5.46221e+08
-4.80606e+10
-5.85281e+08
-4.75118e+10
-6.07721e+08
-4.69613e+10
-6.21058e+08
-4.64243e+10
-6.18335e+08
-4.59088e+10
-6.0702e+08
-4.5425e+10
-5.84685e+08
-4.49819e+10
-5.52755e+08
-4.45833e+10
-5.16175e+08
-4.42369e+10
-4.70897e+08
-4.39468e+10
-4.21054e+08
-4.37183e+10
-3.6582e+08
-4.35581e+10
-3.04047e+08
-4.34683e+10
-2.40178e+08
-4.34539e+10
-1.71663e+08
-4.35163e+10
-1.02879e+08
-4.36598e+10
-3.04589e+07
-4.38904e+10
4.71447e+07
-4.4216e+10
1.31151e+08
-4.46513e+10
2.25995e+08
-4.52211e+10
3.39152e+08
-4.59659e+10
4.85214e+08
-4.69463e+10
6.90202e+08
-4.82557e+10
9.78778e+08
-5.00063e+10
1.31837e+09
-5.24951e+10
1.67283e+09
-5.66919e+10
2.38609e+09
-6.41257e+10
4.73474e+09
-7.56383e+10
8.83759e+09
-1.04134e+11
1.94099e+10
2.36845e+10
-6.56884e+10
9.57645e+07
9.27984e+08
-6.58996e+10
9.757e+07
7.87457e+08
-6.60923e+10
9.13835e+07
7.20664e+08
-6.62826e+10
9.26265e+07
6.51856e+08
-6.64545e+10
9.10473e+07
5.97695e+08
-6.66196e+10
9.29917e+07
5.6205e+08
-6.67806e+10
9.47994e+07
5.28383e+08
-6.69364e+10
9.70147e+07
4.9799e+08
-6.70842e+10
9.89073e+07
4.63877e+08
-6.72255e+10
1.00884e+08
4.27832e+08
-6.73582e+10
1.02611e+08
3.8509e+08
-6.74783e+10
1.04107e+08
3.34931e+08
-6.75831e+10
1.05462e+08
2.75096e+08
-6.76675e+10
1.06266e+08
2.05765e+08
-6.77252e+10
1.07113e+08
1.25001e+08
-6.7757e+10
1.07309e+08
3.68397e+07
-6.7763e+10
1.07345e+08
-5.47726e+07
-6.77538e+10
1.06276e+08
-1.45157e+08
-6.77288e+10
1.05302e+08
-2.35132e+08
-6.76908e+10
1.0353e+08
-3.26336e+08
-6.76416e+10
1.01611e+08
-4.15828e+08
-6.75856e+10
9.89323e+07
-4.97823e+08
-6.75305e+10
9.56341e+07
-5.70037e+08
-6.74766e+10
9.19716e+07
-6.28235e+08
-6.74331e+10
8.8103e+07
-6.66187e+08
-6.73961e+10
8.4232e+07
-6.88143e+08
-6.73721e+10
8.02427e+07
-6.90206e+08
-6.73568e+10
7.61164e+07
-6.77067e+08
-6.73526e+10
7.17354e+07
-6.48572e+08
-6.73533e+10
6.71818e+07
-6.11451e+08
-6.73555e+10
6.24552e+07
-5.64118e+08
-6.73535e+10
5.77393e+07
-5.12621e+08
-6.73376e+10
5.31983e+07
-4.57807e+08
-6.73011e+10
4.9226e+07
-4.00105e+08
-6.72324e+10
4.60339e+07
-3.43845e+08
-6.71205e+10
4.39196e+07
-2.87223e+08
-6.69549e+10
4.28392e+07
-2.32454e+08
-6.67287e+10
4.32387e+07
-1.73819e+08
-6.64469e+10
4.67686e+07
-1.07954e+08
-6.61068e+10
5.37434e+07
-3.67145e+07
-6.56907e+10
6.32441e+07
3.21198e+07
-6.51781e+10
7.63694e+07
9.88146e+07
-6.4542e+10
9.41882e+07
1.61584e+08
-6.37571e+10
1.18315e+08
2.308e+08
-6.28072e+10
1.52372e+08
3.28457e+08
-6.16734e+10
2.00879e+08
4.71969e+08
-6.02841e+10
2.64595e+08
6.299e+08
-5.85896e+10
3.27569e+08
7.62296e+08
-5.66433e+10
3.14297e+08
9.37154e+08
-5.50539e+10
3.48444e+08
1.6552e+09
-5.34542e+10
8.26989e+08
2.85891e+09
-4.8332e+10
1.29758e+09
2.89642e+09
-1.58358e+10
-5.88338e+09
-5.67643e+09
-4.77136e+09
-5.4197e+09
-7.7669e+10
7.93333e+08
-7.77333e+10
6.8006e+08
-7.78027e+10
6.17741e+08
-7.78685e+10
5.71636e+08
-7.79321e+10
5.26911e+08
-7.799e+10
4.95785e+08
-7.80455e+10
4.68266e+08
-7.80971e+10
4.42628e+08
-7.81415e+10
4.12362e+08
-7.81807e+10
3.80945e+08
-7.8213e+10
3.43474e+08
-7.82349e+10
2.9977e+08
-7.82455e+10
2.47368e+08
-7.82402e+10
1.87421e+08
-7.82153e+10
1.16911e+08
-7.81687e+10
3.95907e+07
-7.80986e+10
-4.28819e+07
-7.80135e+10
-1.24592e+08
-7.79144e+10
-2.05683e+08
-7.78029e+10
-2.87772e+08
-7.76826e+10
-3.67796e+08
-7.75566e+10
-4.40646e+08
-7.74334e+10
-5.03878e+08
-7.73133e+10
-5.54007e+08
-7.72077e+10
-5.84077e+08
-7.7114e+10
-5.99179e+08
-7.7042e+10
-5.94765e+08
-7.69897e+10
-5.75829e+08
-7.69635e+10
-5.41781e+08
-7.69602e+10
-4.99743e+08
-7.69804e+10
-4.4731e+08
-7.70228e+10
-3.91114e+08
-7.7081e+10
-3.31897e+08
-7.71522e+10
-2.69788e+08
-7.7228e+10
-2.08945e+08
-7.73011e+10
-1.47174e+08
-7.73653e+10
-8.69995e+07
-7.74161e+10
-2.37488e+07
-7.74503e+10
4.18496e+07
-7.74561e+10
1.05652e+08
-7.74149e+10
1.61938e+08
-7.73083e+10
2.13514e+08
-7.71078e+10
2.5547e+08
-7.67823e+10
2.9377e+08
-7.6296e+10
3.39736e+08
-7.55953e+10
4.02864e+08
-7.45769e+10
4.52522e+08
-7.31573e+10
4.47423e+08
-7.14282e+10
4.45492e+08
-6.91176e+10
5.60776e+08
-6.31627e+10
-2.95523e+08
-4.95812e+10
-3.28756e+09
-2.76985e+10
-8.06944e+09
-1.06223e+09
-5.73057e+10
6.77625e+07
6.53692e+08
-5.71201e+10
8.11211e+07
5.34021e+08
-5.69862e+10
8.11439e+07
5.19413e+08
-5.68978e+10
8.58847e+07
4.91878e+08
-5.68299e+10
8.27851e+07
4.61988e+08
-5.67752e+10
8.33866e+07
4.39616e+08
-5.6738e+10
8.44882e+07
4.22983e+08
-5.67108e+10
8.55171e+07
4.02426e+08
-5.66962e+10
8.57882e+07
3.81366e+08
-5.66889e+10
8.58682e+07
3.53516e+08
-5.6691e+10
8.52592e+07
3.21499e+08
-5.67009e+10
8.39768e+07
2.81798e+08
-5.67163e+10
8.17968e+07
2.31923e+08
-5.6734e+10
7.88222e+07
1.71581e+08
-5.6754e+10
7.52253e+07
1.0276e+08
-5.67677e+10
6.98748e+07
1.77536e+07
-5.67598e+10
6.24325e+07
-8.23119e+07
-5.67171e+10
5.25295e+07
-1.96429e+08
-5.66249e+10
4.28336e+07
-3.21996e+08
-5.64838e+10
3.22584e+07
-4.51029e+08
-5.6294e+10
2.205e+07
-5.75222e+08
-5.60603e+10
1.12492e+07
-6.93149e+08
-5.57932e+10
1.33521e+06
-7.91174e+08
-5.55054e+10
-7.47109e+06
-8.65245e+08
-5.52064e+10
-1.41967e+07
-9.09306e+08
-5.49123e+10
-1.85309e+07
-9.22079e+08
-5.4635e+10
-2.04039e+07
-9.03738e+08
-5.43863e+10
-1.99596e+07
-8.59625e+08
-5.41753e+10
-1.75101e+07
-7.92324e+08
-5.40129e+10
-1.32996e+07
-7.0636e+08
-5.39019e+10
-7.61246e+06
-6.08132e+08
-5.38513e+10
-704788
-4.9688e+08
-5.38629e+10
7.12844e+06
-3.80325e+08
-5.39387e+10
1.54272e+07
-2.57877e+08
-5.40849e+10
2.36852e+07
-1.28777e+08
-5.42999e+10
3.1618e+07
1.42875e+06
-5.4584e+10
3.87873e+07
1.33389e+08
-5.49285e+10
4.55211e+07
2.64418e+08
-5.53113e+10
4.96174e+07
3.87707e+08
-5.57047e+10
5.00972e+07
4.98312e+08
-5.60913e+10
4.85759e+07
5.98224e+08
-5.6444e+10
4.47593e+07
6.80164e+08
-5.67376e+10
3.75592e+07
7.45382e+08
-5.69288e+10
2.66148e+07
7.86417e+08
-5.69509e+10
1.29163e+07
7.98215e+08
-5.67148e+10
1.52439e+06
7.6352e+08
-5.6167e+10
-2.21491e+06
6.69217e+08
-5.53119e+10
-1.6305e+07
5.28696e+08
-5.4089e+10
-9.60505e+07
3.94775e+08
-5.17336e+10
-1.86667e+08
4.01007e+07
-4.76404e+10
-3.48872e+08
-2.55231e+08
-4.47261e+10
-1.75454e+09
2.53843e+09
-5.21828e+10
-1.16387e+10
1.43749e+10
-5.44473e+09
7.97347e+09
-6.56136e+10
6.98711e+08
-6.54431e+10
5.98706e+08
-6.53165e+10
5.80797e+08
-6.52056e+10
5.55597e+08
-6.5119e+10
5.32608e+08
-6.50432e+10
5.13286e+08
-6.49791e+10
4.99085e+08
-6.49199e+10
4.79934e+08
-6.48707e+10
4.60499e+08
-6.48257e+10
4.34018e+08
-6.47879e+10
4.0379e+08
-6.47563e+10
3.65966e+08
-6.47295e+10
3.17861e+08
-6.47046e+10
2.59509e+08
-6.46837e+10
1.9252e+08
-6.46609e+10
1.11332e+08
-6.46318e+10
1.71153e+07
-6.4588e+10
-8.72606e+07
-6.45178e+10
-2.03079e+08
-6.44215e+10
-3.19755e+08
-6.43035e+10
-4.31584e+08
-6.41654e+10
-5.35613e+08
-6.40179e+10
-6.19987e+08
-6.38698e+10
-6.80704e+08
-6.37269e+10
-7.12448e+08
-6.36007e+10
-7.1426e+08
-6.34979e+10
-6.86481e+08
-6.3425e+10
-6.34631e+08
-6.33862e+10
-5.61148e+08
-6.33882e+10
-4.70531e+08
-6.34294e+10
-3.69217e+08
-6.35157e+10
-2.56288e+08
-6.36456e+10
-1.39879e+08
-6.3819e+10
-1.95352e+07
-6.40406e+10
1.056e+08
-6.43068e+10
2.29003e+08
-6.46165e+10
3.50699e+08
-6.49584e+10
4.65906e+08
-6.5319e+10
5.70017e+08
-6.56863e+10
6.60647e+08
-6.60548e+10
7.4113e+08
-6.6405e+10
8.00111e+08
-6.67229e+10
8.38212e+08
-6.69807e+10
8.462e+08
-6.71326e+10
8.17274e+08
-6.71088e+10
7.3662e+08
-6.6857e+10
5.86551e+08
-6.63832e+10
3.60082e+08
-6.57621e+10
1.30852e+08
-6.49583e+10
4.75002e+06
-6.61034e+10
1.08844e+09
-7.50578e+10
4.89263e+09
-1.08406e+11
1.4526e+10
7.01547e+09
-6.43418e+10
-2.66417e+07
7.53913e+08
-6.44851e+10
-3.14353e+07
7.19422e+08
-6.46113e+10
-3.55348e+07
6.9264e+08
-6.47516e+10
-3.91447e+07
6.83594e+08
-6.49044e+10
-4.51841e+07
6.73083e+08
-6.50657e+10
-4.90816e+07
6.63754e+08
-6.523e+10
-5.1327e+07
6.53144e+08
-6.54004e+10
-5.36033e+07
6.41761e+08
-6.55734e+10
-5.62852e+07
6.26902e+08
-6.57465e+10
-5.91517e+07
6.02972e+08
-6.59139e+10
-6.26347e+07
5.69506e+08
-6.60685e+10
-6.6716e+07
5.2229e+08
-6.62047e+10
-7.16445e+07
4.60182e+08
-6.63156e+10
-7.71734e+07
3.8389e+08
-6.63898e+10
-8.38412e+07
2.87189e+08
-6.64232e+10
-9.03746e+07
1.7377e+08
-6.64201e+10
-9.74251e+07
4.55962e+07
-6.6381e+10
-1.05061e+08
-9.28337e+07
-6.63136e+10
-1.14426e+08
-2.37579e+08
-6.62126e+10
-1.23639e+08
-3.86704e+08
-6.60796e+10
-1.33946e+08
-5.32344e+08
-6.59163e+10
-1.44446e+08
-6.68813e+08
-6.5727e+10
-1.5538e+08
-7.82697e+08
-6.55178e+10
-1.66196e+08
-8.65897e+08
-6.52924e+10
-1.76567e+08
-9.14295e+08
-6.50573e+10
-1.86376e+08
-9.24156e+08
-6.48144e+10
-1.9557e+08
-9.00464e+08
-6.45648e+10
-2.0414e+08
-8.49933e+08
-6.43076e+10
-2.1208e+08
-7.76917e+08
-6.40373e+10
-2.19348e+08
-6.90888e+08
-6.37516e+10
-2.25756e+08
-5.94783e+08
-6.34417e+10
-2.31086e+08
-4.9472e+08
-6.31036e+10
-2.34888e+08
-3.93179e+08
-6.27301e+10
-2.36841e+08
-2.93863e+08
-6.23107e+10
-2.3649e+08
-1.98521e+08
-6.18421e+10
-2.3388e+08
-1.06203e+08
-6.13132e+10
-2.29381e+08
-2.25143e+07
-6.07149e+10
-2.24525e+08
5.32239e+07
-6.0044e+10
-2.19755e+08
1.22032e+08
-5.93031e+10
-2.14537e+08
1.84627e+08
-5.84922e+10
-2.07985e+08
2.41176e+08
-5.76049e+10
-2.04851e+08
2.83074e+08
-5.66259e+10
-2.05969e+08
3.04664e+08
-5.55457e+10
-2.12478e+08
3.04567e+08
-5.43466e+10
-2.2692e+08
2.69587e+08
-5.30205e+10
-2.51462e+08
1.88891e+08
-5.15688e+10
-2.95058e+08
5.83297e+07
-4.99606e+10
-3.85448e+08
-1.13495e+08
-4.80522e+10
-5.22826e+08
-3.62401e+08
-4.62398e+10
-3.47336e+08
-6.89349e+08
-4.49857e+10
3.05292e+08
-9.50845e+08
-3.99917e+10
-1.04129e+09
-2.67955e+08
-1.55061e+10
-1.18471e+10
2.71054e+09
-5.91216e+09
-4.39583e+08
-6.37948e+10
6.38177e+08
-6.38128e+10
5.92951e+08
-6.3832e+10
5.72596e+08
-6.38576e+10
5.50818e+08
-6.38946e+10
5.33611e+08
-6.39387e+10
5.17923e+08
-6.39816e+10
5.00863e+08
-6.40266e+10
4.8206e+08
-6.40706e+10
4.59586e+08
-6.41117e+10
4.27905e+08
-6.41453e+10
3.8725e+08
-6.41661e+10
3.33217e+08
-6.41702e+10
2.64797e+08
-6.41538e+10
1.82155e+08
-6.41062e+10
8.00004e+07
-6.4026e+10
-3.84162e+07
-6.39139e+10
-1.69435e+08
-6.37734e+10
-3.08929e+08
-6.3611e+10
-4.54336e+08
-6.3424e+10
-6.03949e+08
-6.32133e+10
-7.48785e+08
-6.29834e+10
-8.82239e+08
-6.274e+10
-9.91227e+08
-6.24918e+10
-1.06688e+09
-6.22458e+10
-1.10529e+09
-6.20116e+10
-1.10263e+09
-6.17946e+10
-1.06377e+09
-6.15994e+10
-9.95219e+08
-6.14287e+10
-9.01309e+08
-6.12804e+10
-7.91157e+08
-6.11555e+10
-6.67843e+08
-6.10477e+10
-5.37309e+08
-6.09554e+10
-4.02277e+08
-6.08727e+10
-2.66446e+08
-6.07896e+10
-1.321e+08
-6.07028e+10
905178
-6.06031e+10
1.26506e+08
-6.04872e+10
2.45097e+08
-6.03562e+10
3.56164e+08
-6.02098e+10
4.57923e+08
-6.00502e+10
5.5697e+08
-5.98805e+10
6.39415e+08
-5.96937e+10
6.95179e+08
-5.94877e+10
7.18256e+08
-5.92553e+10
6.92174e+08
-5.89923e+10
5.97466e+08
-5.86984e+10
4.07064e+08
-5.83854e+10
1.02009e+08
-5.79325e+10
-3.54049e+08
-5.66636e+10
-1.01082e+09
-5.24498e+10
-1.95735e+09
-4.59497e+10
-1.61732e+09
-4.29944e+10
3.65771e+08
-6.55003e+08
-6.05853e+10
5.61607e+07
6.57207e+08
-6.05503e+10
5.34077e+07
6.41473e+08
-6.05398e+10
5.34357e+07
6.39646e+08
-6.05329e+10
5.32399e+07
6.34835e+08
-6.05374e+10
5.31329e+07
6.36009e+08
-6.05513e+10
5.35883e+07
6.35981e+08
-6.05724e+10
5.43495e+07
6.31842e+08
-6.05999e+10
5.49716e+07
6.26477e+08
-6.06303e+10
5.5512e+07
6.14105e+08
-6.06635e+10
5.58868e+07
5.92628e+08
-6.06983e+10
5.58398e+07
5.6061e+08
-6.07329e+10
5.53693e+07
5.1345e+08
-6.07674e+10
5.46892e+07
4.51986e+08
-6.07947e+10
5.38789e+07
3.69991e+08
-6.08136e+10
5.32949e+07
2.66506e+08
-6.08202e+10
5.36484e+07
1.42797e+08
-6.08099e+10
5.54487e+07
-4.39815e+06
-6.07749e+10
5.97184e+07
-1.70333e+08
-6.07079e+10
6.36828e+07
-3.52689e+08
-6.06016e+10
6.78824e+07
-5.43867e+08
-6.04557e+10
7.19153e+07
-7.35167e+08
-6.02701e+10
7.69032e+07
-9.14912e+08
-6.00535e+10
8.16318e+07
-1.06597e+09
-5.98163e+10
8.67643e+07
-1.17373e+09
-5.9575e+10
9.1673e+07
-1.22988e+09
-5.9342e+10
9.62245e+07
-1.23381e+09
-5.91292e+10
9.98858e+07
-1.19135e+09
-5.89436e+10
1.02275e+08
-1.11355e+09
-5.87886e+10
1.02981e+08
-1.00827e+09
-5.8664e+10
1.01604e+08
-8.87506e+08
-5.8567e+10
9.78394e+07
-7.56547e+08
-5.84934e+10
9.14162e+07
-6.22294e+08
-5.84374e+10
8.21488e+07
-4.8829e+08
-5.83948e+10
6.9625e+07
-3.56322e+08
-5.83589e+10
5.33251e+07
-2.29558e+08
-5.83217e+10
3.2643e+07
-1.08001e+08
-5.82804e+10
7.13027e+06
8.90344e+06
-5.82235e+10
-2.45699e+07
1.1487e+08
-5.81376e+10
-6.43999e+07
2.11751e+08
-5.8005e+10
-1.11905e+08
2.96105e+08
-5.78046e+10
-1.6348e+08
3.62246e+08
-5.75168e+10
-2.20486e+08
4.04663e+08
-5.71161e+10
-2.84788e+08
4.14382e+08
-5.65761e+10
-3.56503e+08
3.87497e+08
-5.58703e+10
-4.35328e+08
3.07202e+08
-5.49767e+10
-5.23142e+08
1.60267e+08
-5.38519e+10
-6.35164e+08
-7.35293e+07
-5.2371e+10
-8.03944e+08
-4.33795e+08
-5.03349e+10
-1.03672e+09
-9.97247e+08
-4.84678e+10
-8.91603e+08
-1.31602e+09
-4.75084e+10
-4.0616e+08
-1.04574e+09
-4.34818e+10
-1.91537e+09
-1.85307e+09
-1.3875e+10
-1.26446e+10
-1.39847e+10
-6.78307e+09
-1.04656e+10
-5.71823e+10
6.12735e+08
-5.71357e+10
6.0655e+08
-5.71049e+10
6.02326e+08
-5.70868e+10
5.9312e+08
-5.70821e+10
5.89232e+08
-5.70891e+10
5.85517e+08
-5.71039e+10
5.77038e+08
-5.71268e+10
5.66755e+08
-5.71546e+10
5.49622e+08
-5.71879e+10
5.23447e+08
-5.72255e+10
4.86775e+08
-5.72661e+10
4.34801e+08
-5.73097e+10
3.68483e+08
-5.73496e+10
2.81665e+08
-5.73835e+10
1.73638e+08
-5.74058e+10
4.42524e+07
-5.74037e+10
-1.09137e+08
-5.73612e+10
-2.85524e+08
-5.72666e+10
-4.79474e+08
-5.71154e+10
-6.82776e+08
-5.69035e+10
-8.84684e+08
-5.66317e+10
-1.07451e+09
-5.63069e+10
-1.2323e+09
-5.5942e+10
-1.34316e+09
-5.55554e+10
-1.39751e+09
-5.51635e+10
-1.39478e+09
-5.47821e+10
-1.34099e+09
-5.44221e+10
-1.24771e+09
-5.40909e+10
-1.12354e+09
-5.37923e+10
-9.81065e+08
-5.35273e+10
-8.26329e+08
-5.32957e+10
-6.66606e+08
-5.30962e+10
-5.05816e+08
-5.2929e+10
-3.46084e+08
-5.27937e+10
-1.91224e+08
-5.2689e+10
-4.19845e+07
-5.26194e+10
1.00729e+08
-5.25833e+10
2.30524e+08
-5.25818e+10
3.48007e+08
-5.26121e+10
4.48523e+08
-5.26611e+10
5.32367e+08
-5.27212e+10
5.90352e+08
-5.27897e+10
6.15319e+08
-5.2867e+10
6.03144e+08
-5.29568e+10
5.37016e+08
-5.30736e+10
3.99524e+08
-5.32502e+10
1.59579e+08
-5.34898e+10
-2.60341e+08
-5.36446e+10
-1.04352e+09
-5.291e+10
-2.41919e+09
-5.03402e+10
-4.6867e+09
-4.57365e+10
-7.93252e+09
-3.91528e+10
-1.88927e+10
-8.42556e+09
-5.86724e+10
6.61849e+07
6.02822e+08
-5.872e+10
6.39458e+07
6.32749e+08
-5.87838e+10
5.51383e+07
6.55666e+08
-5.88633e+10
4.81468e+07
6.72952e+08
-5.89574e+10
4.10299e+07
6.95071e+08
-5.90654e+10
3.3827e+07
7.15087e+08
-5.91886e+10
2.66901e+07
7.32223e+08
-5.93255e+10
1.95507e+07
7.46305e+08
-5.94744e+10
1.26355e+07
7.51549e+08
-5.96346e+10
5.87388e+06
7.46598e+08
-5.98009e+10
-679759
7.25466e+08
-5.99713e+10
-7.13086e+06
6.86752e+08
-6.01386e+10
-1.32793e+07
6.26539e+08
-6.02963e+10
-1.93043e+07
5.38371e+08
-6.04359e+10
-2.4884e+07
4.2209e+08
-6.05494e+10
-3.09541e+07
2.74719e+08
-6.06289e+10
-3.75138e+07
9.93002e+07
-6.06704e+10
-4.63883e+07
-1.00681e+08
-6.06701e+10
-5.69886e+07
-3.16209e+08
-6.06286e+10
-6.89992e+07
-5.43191e+08
-6.05401e+10
-8.13006e+07
-7.71993e+08
-6.04061e+10
-9.44538e+07
-9.89077e+08
-6.0234e+10
-1.07326e+08
-1.16789e+09
-6.00414e+10
-1.19469e+08
-1.28574e+09
-5.98511e+10
-1.30203e+08
-1.33012e+09
-5.96821e+10
-1.39244e+08
-1.30556e+09
-5.95496e+10
-1.46446e+08
-1.2223e+09
-5.94633e+10
-1.51682e+08
-1.09669e+09
-5.94251e+10
-1.54895e+08
-9.44231e+08
-5.94378e+10
-1.56012e+08
-7.75663e+08
-5.94984e+10
-1.54957e+08
-6.01954e+08
-5.96043e+10
-1.51652e+08
-4.2929e+08
-5.97538e+10
-1.46095e+08
-2.60035e+08
-5.99429e+10
-1.3817e+08
-9.85729e+07
-6.01701e+10
-1.28019e+08
5.49285e+07
-6.04321e+10
-1.15895e+08
1.9859e+08
-6.07279e+10
-1.02498e+08
3.36012e+08
-6.10585e+10
-8.81832e+07
4.63488e+08
-6.14272e+10
-7.32365e+07
5.85286e+08
-6.1843e+10
-5.9011e+07
7.0602e+08
-6.2315e+10
-4.61432e+07
8.20155e+08
-6.28545e+10
-3.39111e+07
9.24027e+08
-6.34738e+10
-2.237e+07
1.00872e+09
-6.41847e+10
-1.10505e+07
1.06744e+09
-6.50192e+10
871058
1.09665e+09
-6.60225e+10
1.30449e+07
1.08513e+09
-6.72539e+10
2.05018e+07
1.01427e+09
-6.87354e+10
6.44618e+06
8.07538e+08
-7.03941e+10
-3.98805e+07
2.83469e+08
-7.09525e+10
-3.25486e+08
-1.0025e+09
-6.75291e+10
-1.3651e+09
-3.92626e+09
-5.70818e+10
-3.86553e+09
-9.36264e+09
-3.89739e+10
-1.00324e+10
-2.25505e+10
-3.84235e+09
-1.02933e+10
-6.01022e+10
6.61605e+08
-6.01166e+10
6.89775e+08
-6.01439e+10
6.89378e+08
-6.01888e+10
6.90404e+08
-6.02492e+10
6.94269e+08
-6.03247e+10
6.97817e+08
-6.04169e+10
6.98101e+08
-6.05244e+10
6.95277e+08
-6.06454e+10
6.83769e+08
-6.07789e+10
6.62461e+08
-6.09196e+10
6.25322e+08
-6.10656e+10
5.70774e+08
-6.12091e+10
4.94506e+08
-6.13419e+10
3.89967e+08
-6.14559e+10
2.5609e+08
-6.15404e+10
8.99675e+07
-6.15924e+10
-1.04703e+08
-6.16162e+10
-3.20459e+08
-6.16162e+10
-5.51826e+08
-6.15901e+10
-7.96084e+08
-6.15337e+10
-1.0439e+09
-6.14459e+10
-1.2809e+09
-6.1332e+10
-1.47924e+09
-6.12057e+10
-1.61531e+09
-6.10852e+10
-1.67498e+09
-6.09846e+10
-1.66246e+09
-6.09138e+10
-1.58774e+09
-6.08775e+10
-1.46742e+09
-6.08729e+10
-1.31726e+09
-6.08983e+10
-1.14845e+09
-6.09462e+10
-9.72398e+08
-6.10098e+10
-7.95626e+08
-6.10833e+10
-6.20847e+08
-6.11578e+10
-4.52928e+08
-6.12279e+10
-2.92761e+08
-6.12856e+10
-1.43612e+08
-6.13267e+10
-3.43759e+06
-6.13509e+10
1.24858e+08
-6.13658e+10
2.49896e+08
-6.13859e+10
3.72552e+08
-6.14229e+10
4.89914e+08
-6.14939e+10
5.98616e+08
-6.16168e+10
6.91806e+08
-6.18115e+10
7.65721e+08
-6.21184e+10
8.20669e+08
-6.25978e+10
8.49706e+08
-6.3343e+10
8.38437e+08
-6.44599e+10
6.94241e+08
-6.60477e+10
2.26538e+08
-6.83238e+10
-9.00462e+08
-7.18242e+10
-3.13824e+09
-7.58872e+10
-8.243e+09
-8.76618e+10
-1.75868e+10
1.4051e+10
-5.77788e+10
1.79217e+08
4.86409e+08
-5.78813e+10
1.93871e+08
5.47019e+08
-5.79843e+10
1.82913e+08
5.80931e+08
-5.81072e+10
1.82271e+08
6.17758e+08
-5.82447e+10
1.79839e+08
6.56119e+08
-5.83965e+10
1.77364e+08
6.91761e+08
-5.85636e+10
1.74187e+08
7.26281e+08
-5.87447e+10
1.7072e+08
7.56763e+08
-5.89396e+10
1.66839e+08
7.78572e+08
-5.91432e+10
1.62174e+08
7.85747e+08
-5.93576e+10
1.56264e+08
7.79862e+08
-5.95759e+10
1.48976e+08
7.50451e+08
-5.97912e+10
1.40355e+08
6.93639e+08
-5.99971e+10
1.3044e+08
6.03746e+08
-6.01828e+10
1.19286e+08
4.75943e+08
-6.03382e+10
1.0685e+08
3.07364e+08
-6.04506e+10
9.36404e+07
9.90147e+07
-6.05125e+10
8.06962e+07
-1.43255e+08
-6.05134e+10
6.90718e+07
-4.12274e+08
-6.04496e+10
5.79189e+07
-6.98871e+08
-6.03136e+10
4.85625e+07
-9.95381e+08
-6.01059e+10
4.10588e+07
-1.28213e+09
-5.9834e+10
3.6975e+07
-1.52132e+09
-5.95321e+10
3.61025e+07
-1.66918e+09
-5.92376e+10
3.89754e+07
-1.7086e+09
-5.89867e+10
4.4792e+07
-1.64805e+09
-5.87988e+10
5.30012e+07
-1.51299e+09
-5.86815e+10
6.27545e+07
-1.33071e+09
-5.86354e+10
7.33755e+07
-1.12274e+09
-5.8651e+10
8.43731e+07
-9.08507e+08
-5.87212e+10
9.55896e+07
-6.96143e+08
-5.88358e+10
1.06979e+08
-4.94791e+08
-5.89863e+10
1.18642e+08
-3.04883e+08
-5.91668e+10
1.30942e+08
-1.28693e+08
-5.93714e+10
1.4407e+08
3.36293e+07
-5.9598e+10
1.58472e+08
1.83321e+08
-5.98471e+10
1.75969e+08
3.24438e+08
-6.01254e+10
1.98659e+08
4.57777e+08
-6.04433e+10
2.28954e+08
5.88711e+08
-6.08028e+10
2.66958e+08
7.14056e+08
-6.12168e+10
3.12034e+08
8.39643e+08
-6.16978e+10
3.65399e+08
9.60319e+08
-6.2263e+10
4.28171e+08
1.07028e+09
-6.29354e+10
5.02108e+08
1.16466e+09
-6.37524e+10
5.89878e+08
1.24457e+09
-6.478e+10
6.94355e+08
1.31203e+09
-6.61439e+10
8.23983e+08
1.38059e+09
-6.8057e+10
9.82572e+08
1.43402e+09
-7.08624e+10
1.17002e+09
1.42893e+09
-7.51686e+10
1.19252e+09
1.28518e+09
-8.19087e+10
4.88105e+08
1.16502e+09
-9.05163e+10
-5.75995e+08
-1.2992e+09
-1.0571e+11
-2.27223e+09
-5.95108e+09
4.22688e+10
-8.02553e+09
-5.70086e+10
7.49023e+08
-5.68925e+10
7.70444e+08
-5.68038e+10
7.86061e+08
-5.67292e+10
7.99765e+08
-5.6671e+10
8.16942e+08
-5.66277e+10
8.32196e+08
-5.66026e+10
8.46662e+08
-5.65958e+10
8.58084e+08
-5.66089e+10
8.61912e+08
-5.66389e+10
8.5204e+08
-5.66903e+10
8.29403e+08
-5.67592e+10
7.83886e+08
-5.68417e+10
7.11172e+08
-5.69344e+10
6.05337e+08
-5.70301e+10
4.6134e+08
-5.71213e+10
2.75987e+08
-5.7197e+10
4.96603e+07
-5.72439e+10
-2.10764e+08
-5.72488e+10
-4.99309e+08
-5.72076e+10
-8.04753e+08
-5.71125e+10
-1.12018e+09
-5.69611e+10
-1.42364e+09
-5.67601e+10
-1.67694e+09
-5.65395e+10
-1.83348e+09
-5.63333e+10
-1.87652e+09
-5.61717e+10
-1.81509e+09
-5.60688e+10
-1.67624e+09
-5.60267e+10
-1.48873e+09
-5.60413e+10
-1.27504e+09
-5.61002e+10
-1.05486e+09
-5.61934e+10
-8.3661e+08
-5.63088e+10
-6.29347e+08
-5.6436e+10
-4.33454e+08
-5.65677e+10
-2.50603e+08
-5.66967e+10
-8.12171e+07
-5.68183e+10
7.41276e+07
-5.69265e+10
2.18051e+08
-5.70188e+10
3.53284e+08
-5.70896e+10
4.88113e+08
-5.71277e+10
6.17636e+08
-5.71334e+10
7.50249e+08
-5.71072e+10
8.83946e+08
-5.7054e+10
1.01656e+09
-5.69803e+10
1.14567e+09
-5.68996e+10
1.27623e+09
-5.68453e+10
1.41405e+09
-5.68885e+10
1.57853e+09
-5.71865e+10
1.75808e+09
-5.80433e+10
1.88692e+09
-6.03268e+10
2.00615e+09
-6.67956e+10
3.16853e+09
-8.1265e+10
4.93606e+09
-1.11326e+11
9.60196e+09
-4.78544e+09
-6.10828e+10
1.35039e+06
5.44392e+08
-6.11663e+10
6.12501e+06
6.26289e+08
-6.12463e+10
-3.96653e+06
6.6599e+08
-6.13426e+10
-7.44987e+06
7.21615e+08
-6.14511e+10
-1.25613e+07
7.7624e+08
-6.15729e+10
-1.86492e+07
8.30498e+08
-6.17091e+10
-2.57797e+07
8.85745e+08
-6.18562e+10
-3.34679e+07
9.34395e+08
-6.20153e+10
-4.16554e+07
9.75877e+08
-6.21861e+10
-5.03263e+07
1.00316e+09
-6.23622e+10
-5.93918e+07
1.01109e+09
-6.25407e+10
-6.83593e+07
9.91878e+08
-6.27145e+10
-7.65693e+07
9.36919e+08
-6.28735e+10
-8.32664e+07
8.36951e+08
-6.30079e+10
-8.77562e+07
6.85993e+08
-6.31038e+10
-8.91899e+07
4.77792e+08
-6.31515e+10
-8.79792e+07
2.15279e+08
-6.31383e+10
-8.33786e+07
-9.55456e+07
-6.30585e+10
-7.69808e+07
-4.43142e+08
-6.29064e+10
-7.08098e+07
-8.12723e+08
-6.26725e+10
-6.63331e+07
-1.20322e+09
-6.23348e+10
-6.37251e+07
-1.59935e+09
-6.18912e+10
-6.54715e+07
-1.94522e+09
-6.13751e+10
-7.25086e+07
-2.15716e+09
-6.0848e+10
-8.46099e+07
-2.19638e+09
-6.03572e+10
-9.89223e+07
-2.08717e+09
-5.99313e+10
-1.12889e+08
-1.87703e+09
-5.95822e+10
-1.25043e+08
-1.61073e+09
-5.93088e+10
-1.34735e+08
-1.32294e+09
-5.91037e+10
-1.41905e+08
-1.03877e+09
-5.89551e+10
-1.4686e+08
-7.69996e+08
-5.8854e+10
-1.49947e+08
-5.22357e+08
-5.87919e+10
-1.5128e+08
-2.95682e+08
-5.8761e+10
-1.50171e+08
-9.20092e+07
-5.87516e+10
-1.45668e+08
8.56258e+07
-5.87615e+10
-1.39094e+08
2.47211e+08
-5.87878e+10
-1.29213e+08
3.94779e+08
-5.88319e+10
-1.16161e+08
5.33343e+08
-5.88914e+10
-9.85989e+07
6.63964e+08
-5.89717e+10
-7.50141e+07
7.89613e+08
-5.90723e+10
-4.51522e+07
9.10899e+08
-5.9197e+10
-9.60784e+06
1.02765e+09
-5.93516e+10
3.0553e+07
1.1371e+09
-5.95377e+10
7.19732e+07
1.2313e+09
-5.97579e+10
1.1124e+08
1.30968e+09
-6.00217e+10
1.49343e+08
1.36674e+09
-6.0358e+10
1.95747e+08
1.40986e+09
-6.08342e+10
2.49274e+08
1.44743e+09
-6.16927e+10
2.90235e+08
1.60005e+09
-6.35435e+10
2.88995e+08
2.23773e+09
-6.77861e+10
5.56047e+08
4.01826e+09
-7.66572e+10
1.47586e+08
6.54121e+09
-1.08985e+11
5.08369e+09
2.06907e+10
2.77493e+09
1.09678e+10
-5.64601e+10
7.24776e+08
-5.64389e+10
7.5688e+08
-5.64394e+10
7.83549e+08
-5.64619e+10
8.15122e+08
-5.65064e+10
8.48643e+08
-5.65749e+10
8.81257e+08
-5.66707e+10
9.15451e+08
-5.67917e+10
9.44173e+08
-5.694e+10
9.66846e+08
-5.71163e+10
9.76141e+08
-5.73156e+10
9.66991e+08
-5.75351e+10
9.31752e+08
-5.77668e+10
8.61853e+08
-5.79989e+10
7.48012e+08
-5.82178e+10
5.84344e+08
-5.84056e+10
3.63794e+08
-5.85455e+10
8.81052e+07
-5.86183e+10
-2.37844e+08
-5.86124e+10
-6.02e+08
-5.85212e+10
-9.90825e+08
-5.83347e+10
-1.40113e+09
-5.80356e+10
-1.81754e+09
-5.76285e+10
-2.18096e+09
-5.71622e+10
-2.40324e+09
-5.67148e+10
-2.43965e+09
-5.63482e+10
-2.31318e+09
-5.60983e+10
-2.07428e+09
-5.59779e+10
-1.7727e+09
-5.59815e+10
-1.44815e+09
-5.60943e+10
-1.12924e+09
-5.62956e+10
-8.30527e+08
-5.65663e+10
-5.59184e+08
-5.68874e+10
-3.15938e+08
-5.72416e+10
-9.99373e+07
-5.76129e+10
9.06424e+07
-5.79897e+10
2.58481e+08
-5.836e+10
4.06565e+08
-5.8715e+10
5.41284e+08
-5.90368e+10
6.62894e+08
-5.93115e+10
7.72546e+08
-5.95142e+10
8.67982e+08
-5.96211e+10
9.48094e+08
-5.96086e+10
1.00919e+09
-5.94504e+10
1.04124e+09
-5.91287e+10
1.04897e+09
-5.85996e+10
1.00566e+09
-5.77545e+10
8.65895e+08
-5.64818e+10
6.05575e+08
-5.48121e+10
2.79283e+08
-5.30741e+10
2.18865e+08
-5.03001e+10
5.12721e+08
-4.69016e+10
1.32704e+09
-4.62304e+10
1.38825e+10
7.81996e+09
-5.92164e+10
1.08984e+08
4.67673e+08
-5.92659e+10
1.12775e+08
5.689e+08
-5.93161e+10
1.09136e+08
6.12601e+08
-5.93779e+10
1.08271e+08
6.80334e+08
-5.94503e+10
1.06967e+08
7.4654e+08
-5.95341e+10
1.05439e+08
8.1345e+08
-5.963e+10
1.04106e+08
8.82016e+08
-5.97398e+10
1.03358e+08
9.45322e+08
-5.98628e+10
1.03538e+08
1.00006e+09
-6.00014e+10
1.04902e+08
1.04167e+09
-6.0156e+10
1.07949e+08
1.06221e+09
-6.0323e+10
1.13212e+08
1.04925e+09
-6.05006e+10
1.21141e+08
9.95222e+08
-6.06849e+10
1.31961e+08
8.88456e+08
-6.08651e+10
1.45576e+08
7.16596e+08
-6.10309e+10
1.61272e+08
4.74358e+08
-6.11651e+10
1.77073e+08
1.60382e+08
-6.12528e+10
1.91283e+08
-2.1434e+08
-6.1284e+10
2.01969e+08
-6.32414e+08
-6.12525e+10
2.09137e+08
-1.07711e+09
-6.11493e+10
2.13008e+08
-1.54779e+09
-6.0942e+10
2.11604e+08
-2.04988e+09
-6.0607e+10
2.01145e+08
-2.51072e+09
-6.01981e+10
1.7726e+08
-2.7684e+09
-5.98211e+10
1.39725e+08
-2.73519e+09
-5.95354e+10
9.27637e+07
-2.48642e+09
-5.93473e+10
4.12997e+07
-2.12784e+09
-5.92439e+10
-1.06584e+07
-1.72593e+09
-5.92016e+10
-6.00826e+07
-1.32907e+09
-5.91993e+10
-1.04899e+08
-9.61696e+08
-5.92179e+10
-1.43735e+08
-6.34483e+08
-5.92456e+10
-1.76029e+08
-3.46141e+08
-5.92731e+10
-2.01613e+08
-9.39777e+07
-5.92981e+10
-2.19e+08
1.254e+08
-5.93284e+10
-2.29361e+08
3.20599e+08
-5.93608e+10
-2.32892e+08
4.90358e+08
-5.93921e+10
-2.31407e+08
6.3898e+08
-5.94158e+10
-2.24944e+08
7.68201e+08
-5.94307e+10
-2.11878e+08
8.8359e+08
-5.94309e+10
-1.90602e+08
9.82364e+08
-5.94098e+10
-1.59387e+08
1.06364e+09
-5.93594e+10
-1.17043e+08
1.12548e+09
-5.92714e+10
-6.31296e+07
1.16469e+09
-5.914e+10
1.06629e+06
1.17504e+09
-5.89634e+10
7.45948e+07
1.15478e+09
-5.87425e+10
1.54998e+08
1.09075e+09
-5.84568e+10
2.2569e+08
9.72684e+08
-5.80671e+10
2.58445e+08
8.09569e+08
-5.74446e+10
2.27641e+08
6.6762e+08
-5.6086e+10
2.0062e+08
4.77262e+08
-5.26729e+10
4.88082e+08
-5.83703e+07
-4.81474e+10
1.87688e+09
5.65433e+07
-4.65549e+10
7.189e+09
1.20249e+10
4.21811e+09
8.90046e+09
-5.93888e+10
8.44873e+08
-5.94287e+10
9.14413e+08
-5.94789e+10
9.47846e+08
-5.95491e+10
9.98364e+08
-5.96387e+10
1.04996e+09
-5.97497e+10
1.10226e+09
-5.98831e+10
1.15765e+09
-6.00401e+10
1.20916e+09
-6.02186e+10
1.25381e+09
-6.04197e+10
1.28704e+09