/*--------------------------------*- C++ -*----------------------------------*\
| =========                 |                                                 |
| \\      /  F ield         | OpenFOAM: The Open Source CFD Toolbox           |
|  \\    /   O peration     | Version:  4.1                                   |
|   \\  /    A nd           | Web:      www.OpenFOAM.org                      |
|    \\/     M anipulation  |                                                 |
\*---------------------------------------------------------------------------*/
FoamFile
{
    version     2.0;
    format      ascii;
    class       volScalarField;
    location    "60";
    object      p;
}
// * * * * * * * * * * * * * * * * * * * * * * * * * * * * * * * * * * * * * //

dimensions      [0 2 -2 0 0 0 0];

internalField   nonuniform List<scalar> 
4432
(
-3.87998e+10
-3.97498e+10
-4.05517e+10
-3.99675e+10
-3.99153e+10
-4.0193e+10
-4.02427e+10
-4.02714e+10
-4.03015e+10
-4.03466e+10
-4.03947e+10
-4.04322e+10
-4.04489e+10
-4.04433e+10
-4.04257e+10
-4.03979e+10
-4.03492e+10
-4.02763e+10
-4.01791e+10
-4.00591e+10
-3.99166e+10
-3.97564e+10
-3.95841e+10
-3.94074e+10
-3.92337e+10
-3.90707e+10
-3.89245e+10
-3.87995e+10
-3.86972e+10
-3.86164e+10
-3.85526e+10
-3.84992e+10
-3.84488e+10
-3.83936e+10
-3.83287e+10
-3.8254e+10
-3.81761e+10
-3.81078e+10
-3.80658e+10
-3.8065e+10
-3.81101e+10
-3.81881e+10
-3.82665e+10
-3.83051e+10
-3.82871e+10
-3.82301e+10
-3.81037e+10
-3.76687e+10
-3.66285e+10
-3.57811e+10
-3.86602e+10
-4.88254e+10
-5.72498e+10
-2.85153e+10
-3.92444e+10
-3.96053e+10
-4.00903e+10
-4.01855e+10
-3.99882e+10
-4.01592e+10
-4.02487e+10
-4.027e+10
-4.02975e+10
-4.03511e+10
-4.04062e+10
-4.04442e+10
-4.04579e+10
-4.04518e+10
-4.04355e+10
-4.04081e+10
-4.03584e+10
-4.02842e+10
-4.01866e+10
-4.00656e+10
-3.9922e+10
-3.97601e+10
-3.95857e+10
-3.94064e+10
-3.92299e+10
-3.90639e+10
-3.89146e+10
-3.87866e+10
-3.86817e+10
-3.85989e+10
-3.85339e+10
-3.84803e+10
-3.84307e+10
-3.83779e+10
-3.83174e+10
-3.82492e+10
-3.81795e+10
-3.81209e+10
-3.80891e+10
-3.80981e+10
-3.81519e+10
-3.82367e+10
-3.83186e+10
-3.83556e+10
-3.83279e+10
-3.82471e+10
-3.80679e+10
-3.75107e+10
-3.61808e+10
-3.47358e+10
-3.68722e+10
-4.78423e+10
-6.04856e+10
-3.709e+10
-3.95698e+10
-3.96548e+10
-3.99064e+10
-4.02494e+10
-4.0093e+10
-4.01233e+10
-4.02592e+10
-4.02922e+10
-4.03202e+10
-4.03754e+10
-4.04316e+10
-4.04839e+10
-4.05157e+10
-4.05172e+10
-4.04994e+10
-4.04732e+10
-4.04299e+10
-4.03588e+10
-4.02606e+10
-4.01348e+10
-3.99832e+10
-3.98099e+10
-3.96215e+10
-3.94268e+10
-3.92346e+10
-3.9054e+10
-3.88916e+10
-3.87527e+10
-3.86389e+10
-3.85496e+10
-3.84802e+10
-3.84245e+10
-3.83757e+10
-3.83259e+10
-3.82687e+10
-3.82037e+10
-3.81361e+10
-3.8077e+10
-3.80398e+10
-3.8036e+10
-3.80668e+10
-3.81153e+10
-3.81451e+10
-3.81118e+10
-3.7995e+10
-3.78059e+10
-3.74777e+10
-3.66727e+10
-3.49987e+10
-3.34694e+10
-3.63635e+10
-4.8023e+10
-5.86715e+10
-3.63983e+10
-3.95615e+10
-3.97623e+10
-4.00371e+10
-4.01593e+10
-4.00819e+10
-4.01324e+10
-4.02652e+10
-4.02872e+10
-4.03205e+10
-4.03767e+10
-4.04378e+10
-4.04911e+10
-4.052e+10
-4.05185e+10
-4.05007e+10
-4.04774e+10
-4.04339e+10
-4.03607e+10
-4.02619e+10
-4.01356e+10
-3.99832e+10
-3.98089e+10
-3.96193e+10
-3.94232e+10
-3.92294e+10
-3.90472e+10
-3.8883e+10
-3.87425e+10
-3.86276e+10
-3.85376e+10
-3.84684e+10
-3.84134e+10
-3.83652e+10
-3.83161e+10
-3.82612e+10
-3.81995e+10
-3.81358e+10
-3.8081e+10
-3.80483e+10
-3.80487e+10
-3.80823e+10
-3.81319e+10
-3.81612e+10
-3.8126e+10
-3.80059e+10
-3.78093e+10
-3.74625e+10
-3.66049e+10
-3.48058e+10
-3.32371e+10
-3.71227e+10
-5.14931e+10
-6.09853e+10
-2.99061e+10
-4.00776e+10
-3.99957e+10
-3.98024e+10
-4.0183e+10
-4.01713e+10
-4.01441e+10
-4.01946e+10
-4.02417e+10
-4.02933e+10
-4.03552e+10
-4.04179e+10
-4.04815e+10
-4.05241e+10
-4.05345e+10
-4.0525e+10
-4.05051e+10
-4.04675e+10
-4.04028e+10
-4.03103e+10
-4.01872e+10
-4.00342e+10
-3.9855e+10
-3.96565e+10
-3.94483e+10
-3.92402e+10
-3.90423e+10
-3.88618e+10
-3.87044e+10
-3.85725e+10
-3.8466e+10
-3.83805e+10
-3.8308e+10
-3.82396e+10
-3.81696e+10
-3.8094e+10
-3.80115e+10
-3.79273e+10
-3.78515e+10
-3.77963e+10
-3.77696e+10
-3.77701e+10
-3.77801e+10
-3.77655e+10
-3.76914e+10
-3.75553e+10
-3.73888e+10
-3.71302e+10
-3.63978e+10
-3.47145e+10
-3.31126e+10
-3.6135e+10
-4.80878e+10
-5.78707e+10
-2.96146e+10
-3.98943e+10
-4.00405e+10
-4.00645e+10
-4.00243e+10
-4.01019e+10
-4.01632e+10
-4.02142e+10
-4.02438e+10
-4.03018e+10
-4.03641e+10
-4.04282e+10
-4.04904e+10
-4.05324e+10
-4.05433e+10
-4.05347e+10
-4.05179e+10
-4.04797e+10
-4.04129e+10
-4.03182e+10
-4.01928e+10
-4.00373e+10
-3.98551e+10
-3.96534e+10
-3.94417e+10
-3.92302e+10
-3.90288e+10
-3.88451e+10
-3.86847e+10
-3.85501e+10
-3.84411e+10
-3.83535e+10
-3.82802e+10
-3.82131e+10
-3.81453e+10
-3.80726e+10
-3.79948e+10
-3.79169e+10
-3.78492e+10
-3.78046e+10
-3.77921e+10
-3.78105e+10
-3.78416e+10
-3.785e+10
-3.77969e+10
-3.76715e+10
-3.74903e+10
-3.71624e+10
-3.6248e+10
-3.41871e+10
-3.20331e+10
-3.47973e+10
-4.77097e+10
-6.06109e+10
-3.65202e+10
-3.99557e+10
-4.00709e+10
-4.00437e+10
-4.0054e+10
-4.01775e+10
-4.02396e+10
-4.02771e+10
-4.03123e+10
-4.03681e+10
-4.04352e+10
-4.05053e+10
-4.05764e+10
-4.06288e+10
-4.06536e+10
-4.06584e+10
-4.06469e+10
-4.06105e+10
-4.05441e+10
-4.04458e+10
-4.03128e+10
-4.01444e+10
-3.99438e+10
-3.97191e+10
-3.94819e+10
-3.9245e+10
-3.90202e+10
-3.88165e+10
-3.864e+10
-3.84936e+10
-3.8377e+10
-3.82846e+10
-3.82052e+10
-3.81274e+10
-3.80489e+10
-3.79684e+10
-3.78793e+10
-3.77876e+10
-3.77038e+10
-3.76375e+10
-3.75943e+10
-3.75688e+10
-3.75404e+10
-3.74747e+10
-3.73406e+10
-3.7144e+10
-3.6927e+10
-3.66387e+10
-3.59029e+10
-3.41945e+10
-3.23538e+10
-3.47343e+10
-4.64677e+10
-5.85131e+10
-3.27781e+10
-4.00375e+10
-4.00787e+10
-4.00126e+10
-3.99619e+10
-4.01346e+10
-4.02627e+10
-4.02914e+10
-4.03169e+10
-4.03768e+10
-4.04429e+10
-4.05136e+10
-4.05827e+10
-4.06341e+10
-4.06603e+10
-4.06677e+10
-4.06579e+10
-4.06209e+10
-4.05531e+10
-4.04529e+10
-4.03174e+10
-4.0146e+10
-3.99421e+10
-3.97137e+10
-3.94725e+10
-3.9232e+10
-3.90041e+10
-3.87982e+10
-3.86203e+10
-3.84726e+10
-3.83544e+10
-3.82608e+10
-3.81835e+10
-3.8113e+10
-3.80421e+10
-3.79665e+10
-3.78881e+10
-3.78118e+10
-3.7747e+10
-3.77059e+10
-3.76954e+10
-3.77115e+10
-3.77348e+10
-3.77308e+10
-3.7666e+10
-3.75389e+10
-3.73778e+10
-3.71033e+10
-3.62807e+10
-3.43454e+10
-3.24176e+10
-3.58025e+10
-4.97391e+10
-6.03319e+10
-3.03343e+10
-3.99572e+10
-3.9989e+10
-4.00223e+10
-3.99824e+10
-4.00833e+10
-4.01716e+10
-4.02311e+10
-4.02797e+10
-4.03459e+10
-4.04287e+10
-4.0512e+10
-4.05841e+10
-4.06409e+10
-4.06778e+10
-4.06989e+10
-4.06999e+10
-4.06726e+10
-4.06124e+10
-4.05157e+10
-4.03791e+10
-4.01995e+10
-3.99786e+10
-3.97247e+10
-3.94513e+10
-3.91756e+10
-3.89127e+10
-3.86746e+10
-3.84685e+10
-3.82971e+10
-3.81589e+10
-3.80472e+10
-3.79509e+10
-3.78596e+10
-3.7769e+10
-3.76773e+10
-3.7583e+10
-3.74918e+10
-3.7414e+10
-3.73603e+10
-3.73369e+10
-3.73388e+10
-3.73443e+10
-3.7318e+10
-3.7228e+10
-3.7077e+10
-3.6901e+10
-3.6647e+10
-3.59371e+10
-3.41797e+10
-3.19379e+10
-3.31845e+10
-4.3763e+10
-5.80335e+10
-3.63448e+10
-4.00684e+10
-4.0038e+10
-3.99518e+10
-3.99177e+10
-4.00604e+10
-4.01766e+10
-4.0238e+10
-4.02876e+10
-4.03488e+10
-4.04244e+10
-4.05063e+10
-4.05805e+10
-4.06376e+10
-4.06759e+10
-4.06986e+10
-4.07005e+10
-4.06732e+10
-4.06128e+10
-4.05164e+10
-4.03799e+10
-4.02004e+10
-3.99793e+10
-3.97246e+10
-3.94503e+10
-3.91732e+10
-3.89091e+10
-3.86701e+10
-3.84634e+10
-3.8291e+10
-3.8151e+10
-3.80379e+10
-3.79426e+10
-3.7855e+10
-3.77682e+10
-3.7679e+10
-3.75887e+10
-3.75035e+10
-3.74338e+10
-3.73912e+10
-3.73824e+10
-3.74032e+10
-3.74324e+10
-3.74346e+10
-3.73779e+10
-3.72638e+10
-3.71262e+10
-3.69018e+10
-3.61844e+10
-3.44009e+10
-3.24826e+10
-3.52874e+10
-4.81341e+10
-5.97194e+10
-3.05776e+10
-4.00451e+10
-4.00203e+10
-4.00073e+10
-4.00066e+10
-4.00803e+10
-4.0166e+10
-4.0237e+10
-4.02974e+10
-4.03699e+10
-4.04693e+10
-4.05797e+10
-4.06727e+10
-4.07494e+10
-4.08122e+10
-4.08589e+10
-4.08811e+10
-4.08712e+10
-4.08232e+10
-4.07331e+10
-4.05951e+10
-4.04036e+10
-4.01567e+10
-3.98623e+10
-3.95393e+10
-3.92119e+10
-3.89028e+10
-3.86285e+10
-3.83973e+10
-3.82105e+10
-3.80635e+10
-3.79475e+10
-3.78518e+10
-3.77667e+10
-3.76846e+10
-3.76012e+10
-3.75179e+10
-3.74416e+10
-3.73833e+10
-3.7355e+10
-3.73649e+10
-3.741e+10
-3.74713e+10
-3.7516e+10
-3.75137e+10
-3.74657e+10
-3.74073e+10
-3.72936e+10
-3.67672e+10
-3.52614e+10
-3.34285e+10
-3.55192e+10
-4.68665e+10
-5.82659e+10
-2.99507e+10
-4.0064e+10
-4.00391e+10
-3.99999e+10
-3.99903e+10
-4.00802e+10
-4.01598e+10
-4.02279e+10
-4.02996e+10
-4.03783e+10
-4.04743e+10
-4.05778e+10
-4.06722e+10
-4.07523e+10
-4.08185e+10
-4.08685e+10
-4.0894e+10
-4.0887e+10
-4.08421e+10
-4.07546e+10
-4.06191e+10
-4.04299e+10
-4.01854e+10
-3.98937e+10
-3.95739e+10
-3.92502e+10
-3.89453e+10
-3.86753e+10
-3.84489e+10
-3.82671e+10
-3.81253e+10
-3.80152e+10
-3.79263e+10
-3.78481e+10
-3.77728e+10
-3.76966e+10
-3.76206e+10
-3.75514e+10
-3.74999e+10
-3.74773e+10
-3.74911e+10
-3.75376e+10
-3.75966e+10
-3.76327e+10
-3.7613e+10
-3.75369e+10
-3.74368e+10
-3.72598e+10
-3.66305e+10
-3.49815e+10
-3.30697e+10
-3.54616e+10
-4.76998e+10
-5.97003e+10
-3.30597e+10
-3.99536e+10
-3.99277e+10
-3.99119e+10
-3.99473e+10
-4.00181e+10
-4.01069e+10
-4.0189e+10
-4.02637e+10
-4.03538e+10
-4.04727e+10
-4.05989e+10
-4.07154e+10
-4.08217e+10
-4.09164e+10
-4.09927e+10
-4.10412e+10
-4.10526e+10
-4.10195e+10
-4.09376e+10
-4.07999e+10
-4.05965e+10
-4.0318e+10
-3.99698e+10
-3.95788e+10
-3.9181e+10
-3.88103e+10
-3.84885e+10
-3.82256e+10
-3.80206e+10
-3.7865e+10
-3.77464e+10
-3.76524e+10
-3.75724e+10
-3.74972e+10
-3.74209e+10
-3.73438e+10
-3.72722e+10
-3.72167e+10
-3.71888e+10
-3.71958e+10
-3.72354e+10
-3.72893e+10
-3.73246e+10
-3.73103e+10
-3.72449e+10
-3.71592e+10
-3.70057e+10
-3.64257e+10
-3.48436e+10
-3.29303e+10
-3.51808e+10
-4.73928e+10
-6.01875e+10
-3.34455e+10
-3.99172e+10
-3.98952e+10
-3.99277e+10
-3.99661e+10
-4.00268e+10
-4.0095e+10
-4.0176e+10
-4.02654e+10
-4.03683e+10
-4.04869e+10
-4.06114e+10
-4.07314e+10
-4.08423e+10
-4.09408e+10
-4.10201e+10
-4.10702e+10
-4.10819e+10
-4.10481e+10
-4.09637e+10
-4.08222e+10
-4.06129e+10
-4.0327e+10
-3.99711e+10
-3.95726e+10
-3.91693e+10
-3.87948e+10
-3.84713e+10
-3.82084e+10
-3.8005e+10
-3.78527e+10
-3.77389e+10
-3.76502e+10
-3.75754e+10
-3.75054e+10
-3.7435e+10
-3.73645e+10
-3.72999e+10
-3.72517e+10
-3.72316e+10
-3.72466e+10
-3.72934e+10
-3.73525e+10
-3.73891e+10
-3.73695e+10
-3.72883e+10
-3.71697e+10
-3.69544e+10
-3.6266e+10
-3.44887e+10
-3.21254e+10
-3.33798e+10
-4.52128e+10
-6.23794e+10
-4.21662e+10
-3.99035e+10
-3.98666e+10
-3.98664e+10
-3.99264e+10
-4.00093e+10
-4.00897e+10
-4.01661e+10
-4.02494e+10
-4.03629e+10
-4.0506e+10
-4.06514e+10
-4.07933e+10
-4.09318e+10
-4.10616e+10
-4.11737e+10
-4.12567e+10
-4.12977e+10
-4.1288e+10
-4.12219e+10
-4.10941e+10
-4.08874e+10
-4.05786e+10
-4.01657e+10
-3.96854e+10
-3.9199e+10
-3.87567e+10
-3.83875e+10
-3.81004e+10
-3.78895e+10
-3.77404e+10
-3.76358e+10
-3.75597e+10
-3.74978e+10
-3.74392e+10
-3.73776e+10
-3.73128e+10
-3.72502e+10
-3.71993e+10
-3.71705e+10
-3.71698e+10
-3.71928e+10
-3.72198e+10
-3.72165e+10
-3.71499e+10
-3.70145e+10
-3.68337e+10
-3.65487e+10
-3.57849e+10
-3.39152e+10
-3.14404e+10
-3.26844e+10
-4.4586e+10
-6.11651e+10
-3.99356e+10
-3.98659e+10
-3.98249e+10
-3.98693e+10
-3.99486e+10
-4.00121e+10
-4.00707e+10
-4.01532e+10
-4.02501e+10
-4.03679e+10
-4.05058e+10
-4.06499e+10
-4.07936e+10
-4.09332e+10
-4.10632e+10
-4.11745e+10
-4.12555e+10
-4.12939e+10
-4.12811e+10
-4.12128e+10
-4.10828e+10
-4.0874e+10
-4.05643e+10
-4.0151e+10
-3.96713e+10
-3.91847e+10
-3.87412e+10
-3.83691e+10
-3.80773e+10
-3.78605e+10
-3.77053e+10
-3.75944e+10
-3.75115e+10
-3.74431e+10
-3.73785e+10
-3.73118e+10
-3.72432e+10
-3.71785e+10
-3.71277e+10
-3.71025e+10
-3.71107e+10
-3.71498e+10
-3.72026e+10
-3.72384e+10
-3.7228e+10
-3.71708e+10
-3.70953e+10
-3.69477e+10
-3.63517e+10
-3.46494e+10
-3.22299e+10
-3.32535e+10
-4.47714e+10
-6.15239e+10
-4.09706e+10
-3.97902e+10
-3.97523e+10
-3.97552e+10
-3.98108e+10
-3.99006e+10
-3.99793e+10
-4.00586e+10
-4.01636e+10
-4.03057e+10
-4.04722e+10
-4.06488e+10
-4.08319e+10
-4.10172e+10
-4.11969e+10
-4.13597e+10
-4.14903e+10
-4.15713e+10
-4.15895e+10
-4.15394e+10
-4.14198e+10
-4.12084e+10
-4.08568e+10
-4.03359e+10
-3.96988e+10
-3.90579e+10
-3.84977e+10
-3.80545e+10
-3.77321e+10
-3.75137e+10
-3.73738e+10
-3.72864e+10
-3.72298e+10
-3.71863e+10
-3.71432e+10
-3.70947e+10
-3.70418e+10
-3.69917e+10
-3.69558e+10
-3.69465e+10
-3.69721e+10
-3.70308e+10
-3.7106e+10
-3.7168e+10
-3.71901e+10
-3.71743e+10
-3.7152e+10
-3.70713e+10
-3.6557e+10
-3.49696e+10
-3.27997e+10
-3.42491e+10
-4.55532e+10
-5.9258e+10
-3.26398e+10
-3.97974e+10
-3.97548e+10
-3.97727e+10
-3.98419e+10
-3.99118e+10
-3.99812e+10
-4.00757e+10
-4.01902e+10
-4.03271e+10
-4.04866e+10
-4.06607e+10
-4.08427e+10
-4.10264e+10
-4.12043e+10
-4.13651e+10
-4.14936e+10
-4.15724e+10
-4.1587e+10
-4.15325e+10
-4.1407e+10
-4.11904e+10
-4.08353e+10
-4.03141e+10
-3.9681e+10
-3.90453e+10
-3.84915e+10
-3.80541e+10
-3.7736e+10
-3.75203e+10
-3.73818e+10
-3.72943e+10
-3.72352e+10
-3.71862e+10
-3.71347e+10
-3.7075e+10
-3.7008e+10
-3.69409e+10
-3.68853e+10
-3.68539e+10
-3.68561e+10
-3.68915e+10
-3.69466e+10
-3.69961e+10
-3.70194e+10
-3.70271e+10
-3.70621e+10
-3.70864e+10
-3.67364e+10
-3.5368e+10
-3.34732e+10
-3.54094e+10
-4.72334e+10
-5.90179e+10
-3.04902e+10
-3.97836e+10
-3.97714e+10
-3.97615e+10
-3.97859e+10
-3.98587e+10
-3.99374e+10
-4.00302e+10
-4.01593e+10
-4.03221e+10
-4.05084e+10
-4.07168e+10
-4.09413e+10
-4.11738e+10
-4.14043e+10
-4.16187e+10
-4.17991e+10
-4.19251e+10
-4.1979e+10
-4.19559e+10
-4.18623e+10
-4.16828e+10
-4.13296e+10
-4.07015e+10
-3.98531e+10
-3.89947e+10
-3.82853e+10
-3.7765e+10
-3.74223e+10
-3.72154e+10
-3.70998e+10
-3.70374e+10
-3.69987e+10
-3.69629e+10
-3.69167e+10
-3.6855e+10
-3.67799e+10
-3.66999e+10
-3.66284e+10
-3.65801e+10
-3.65655e+10
-3.65854e+10
-3.66267e+10
-3.66657e+10
-3.66844e+10
-3.66976e+10
-3.67503e+10
-3.67974e+10
-3.64554e+10
-3.50705e+10
-3.31874e+10
-3.51812e+10
-4.67841e+10
-5.86363e+10
-3.04349e+10
-3.97935e+10
-3.97723e+10
-3.97606e+10
-3.97897e+10
-3.98566e+10
-3.9946e+10
-4.00483e+10
-4.01777e+10
-4.03367e+10
-4.05232e+10
-4.07321e+10
-4.09567e+10
-4.11888e+10
-4.14182e+10
-4.16306e+10
-4.18081e+10
-4.19301e+10
-4.19792e+10
-4.19499e+10
-4.18492e+10
-4.16616e+10
-4.13007e+10
-4.06672e+10
-3.98128e+10
-3.89483e+10
-3.82344e+10
-3.77129e+10
-3.73711e+10
-3.71671e+10
-3.7056e+10
-3.6999e+10
-3.6966e+10
-3.69357e+10
-3.68945e+10
-3.68372e+10
-3.67657e+10
-3.66884e+10
-3.66185e+10
-3.657e+10
-3.65531e+10
-3.65682e+10
-3.66016e+10
-3.66289e+10
-3.66313e+10
-3.66221e+10
-3.66436e+10
-3.66438e+10
-3.6222e+10
-3.46802e+10
-3.24093e+10
-3.35272e+10
-4.44566e+10
-5.82299e+10
-3.29707e+10
-3.96477e+10
-3.96492e+10
-3.96288e+10
-3.96372e+10
-3.96873e+10
-3.9764e+10
-3.98698e+10
-4.00128e+10
-4.01951e+10
-4.04144e+10
-4.06665e+10
-4.09444e+10
-4.12393e+10
-4.15389e+10
-4.1826e+10
-4.20788e+10
-4.22731e+10
-4.23848e+10
-4.24037e+10
-4.23518e+10
-4.22461e+10
-4.19685e+10
-4.12572e+10
-4.00829e+10
-3.88465e+10
-3.79233e+10
-3.73308e+10
-3.69988e+10
-3.68395e+10
-3.67827e+10
-3.6777e+10
-3.67862e+10
-3.67868e+10
-3.67657e+10
-3.67185e+10
-3.66475e+10
-3.65616e+10
-3.64741e+10
-3.63992e+10
-3.63462e+10
-3.63138e+10
-3.62869e+10
-3.62402e+10
-3.61551e+10
-3.60458e+10
-3.59516e+10
-3.58064e+10
-3.51838e+10
-3.33789e+10
-3.08702e+10
-3.20372e+10
-4.35532e+10
-5.94214e+10
-3.88381e+10
-3.96409e+10
-3.963e+10
-3.96137e+10
-3.96264e+10
-3.96862e+10
-3.97693e+10
-3.98712e+10
-4.00138e+10
-4.01965e+10
-4.04159e+10
-4.06681e+10
-4.09461e+10
-4.1241e+10
-4.15403e+10
-4.18267e+10
-4.20784e+10
-4.22715e+10
-4.23831e+10
-4.24036e+10
-4.23556e+10
-4.22555e+10
-4.19835e+10
-4.12782e+10
-4.01084e+10
-3.88678e+10
-3.79356e+10
-3.73318e+10
-3.69886e+10
-3.68212e+10
-3.67596e+10
-3.67524e+10
-3.67635e+10
-3.67699e+10
-3.67588e+10
-3.67262e+10
-3.66752e+10
-3.66155e+10
-3.65614e+10
-3.65273e+10
-3.65227e+10
-3.6546e+10
-3.65809e+10
-3.65997e+10
-3.65801e+10
-3.65296e+10
-3.64774e+10
-3.63414e+10
-3.56724e+10
-3.37222e+10
-3.08085e+10
-3.09388e+10
-4.09335e+10
-5.63534e+10
-3.39975e+10
-3.95652e+10
-3.95641e+10
-3.95656e+10
-3.95894e+10
-3.96386e+10
-3.97206e+10
-3.98428e+10
-4.00108e+10
-4.02283e+10
-4.04942e+10
-4.08027e+10
-4.11461e+10
-4.15145e+10
-4.18945e+10
-4.22649e+10
-4.25985e+10
-4.28658e+10
-4.30393e+10
-4.31013e+10
-4.30852e+10
-4.30745e+10
-4.29691e+10
-4.221e+10
-4.04006e+10
-3.83762e+10
-3.71987e+10
-3.66454e+10
-3.64272e+10
-3.64056e+10
-3.6478e+10
-3.65839e+10
-3.66866e+10
-3.67666e+10
-3.68157e+10
-3.68326e+10
-3.68224e+10
-3.67954e+10
-3.67656e+10
-3.67477e+10
-3.6751e+10
-3.67739e+10
-3.68e+10
-3.68021e+10
-3.67589e+10
-3.66785e+10
-3.65854e+10
-3.6382e+10
-3.56106e+10
-3.36021e+10
-3.09722e+10
-3.20917e+10
-4.32187e+10
-5.71404e+10
-3.27815e+10
-3.95539e+10
-3.9552e+10
-3.95635e+10
-3.95941e+10
-3.96484e+10
-3.97266e+10
-3.98436e+10
-4.00076e+10
-4.02204e+10
-4.04801e+10
-4.07812e+10
-4.11161e+10
-4.14755e+10
-4.18459e+10
-4.22064e+10
-4.25301e+10
-4.27885e+10
-4.29554e+10
-4.30147e+10
-4.29996e+10
-4.29912e+10
-4.28961e+10
-4.21892e+10
-4.04652e+10
-3.8507e+10
-3.73141e+10
-3.67136e+10
-3.64548e+10
-3.64047e+10
-3.64569e+10
-3.65475e+10
-3.66374e+10
-3.67065e+10
-3.67454e+10
-3.67534e+10
-3.67364e+10
-3.67057e+10
-3.6677e+10
-3.66663e+10
-3.66849e+10
-3.67331e+10
-3.67972e+10
-3.68529e+10
-3.68819e+10
-3.68956e+10
-3.6921e+10
-3.68623e+10
-3.62587e+10
-3.44113e+10
-3.18462e+10
-3.2864e+10
-4.38335e+10
-5.6341e+10
-3.0083e+10
-3.93939e+10
-3.93603e+10
-3.93724e+10
-3.93904e+10
-3.9422e+10
-3.94814e+10
-3.95871e+10
-3.97504e+10
-3.99784e+10
-4.0271e+10
-4.0623e+10
-4.10279e+10
-4.14817e+10
-4.19776e+10
-4.24905e+10
-4.29785e+10
-4.34006e+10
-4.37271e+10
-4.39309e+10
-4.4032e+10
-4.41735e+10
-4.44033e+10
-4.38781e+10
-4.1042e+10
-3.73947e+10
-3.57984e+10
-3.53362e+10
-3.53438e+10
-3.55912e+10
-3.58864e+10
-3.61552e+10
-3.63709e+10
-3.65291e+10
-3.66327e+10
-3.66882e+10
-3.6706e+10
-3.66998e+10
-3.6686e+10
-3.66811e+10
-3.66965e+10
-3.67332e+10
-3.67789e+10
-3.68111e+10
-3.68138e+10
-3.67997e+10
-3.67937e+10
-3.66927e+10
-3.60501e+10
-3.43146e+10
-3.24443e+10
-3.50579e+10
-4.6922e+10
-5.68309e+10
-2.88168e+10
-3.93958e+10
-3.93784e+10
-3.93926e+10
-3.94137e+10
-3.94435e+10
-3.9498e+10
-3.95971e+10
-3.97515e+10
-3.9968e+10
-4.02464e+10
-4.05817e+10
-4.09682e+10
-4.14026e+10
-4.18778e+10
-4.23701e+10
-4.28383e+10
-4.32441e+10
-4.35602e+10
-4.37482e+10
-4.38163e+10
-4.39277e+10
-4.4195e+10
-4.3828e+10
-4.12967e+10
-3.78543e+10
-3.6187e+10
-3.56088e+10
-3.55355e+10
-3.57197e+10
-3.59676e+10
-3.62028e+10
-3.63938e+10
-3.65325e+10
-3.66188e+10
-3.66581e+10
-3.66602e+10
-3.66385e+10
-3.66095e+10
-3.65899e+10
-3.6592e+10
-3.66184e+10
-3.66585e+10
-3.66929e+10
-3.67087e+10
-3.67227e+10
-3.67634e+10
-3.67286e+10
-3.61604e+10
-3.446e+10
-3.24485e+10
-3.45633e+10
-4.59846e+10
-5.74674e+10
-3.22379e+10
-3.91884e+10
-3.91546e+10
-3.91626e+10
-3.91619e+10
-3.91774e+10
-3.92244e+10
-3.93294e+10
-3.95145e+10
-3.97961e+10
-4.01786e+10
-4.06572e+10
-4.1224e+10
-4.18797e+10
-4.26242e+10
-4.34107e+10
-4.41593e+10
-4.48128e+10
-4.53545e+10
-4.57649e+10
-4.60405e+10
-4.62813e+10
-4.67398e+10
-4.71416e+10
-4.41458e+10
-3.85227e+10
-3.42859e+10
-3.39964e+10
-3.4478e+10
-3.5051e+10
-3.553e+10
-3.59021e+10
-3.61787e+10
-3.63754e+10
-3.65043e+10
-3.65774e+10
-3.66083e+10
-3.6613e+10
-3.66087e+10
-3.66112e+10
-3.66312e+10
-3.6669e+10
-3.67115e+10
-3.67363e+10
-3.67267e+10
-3.66943e+10
-3.66618e+10
-3.65281e+10
-3.58682e+10
-3.4187e+10
-3.24536e+10
-3.49993e+10
-4.64626e+10
-5.78314e+10
-3.12005e+10
-3.91808e+10
-3.91528e+10
-3.91603e+10
-3.91575e+10
-3.91693e+10
-3.92132e+10
-3.9314e+10
-3.94935e+10
-3.97675e+10
-4.01403e+10
-4.06076e+10
-4.11649e+10
-4.18145e+10
-4.25533e+10
-4.33388e+10
-4.40837e+10
-4.47241e+10
-4.52521e+10
-4.56045e+10
-4.57421e+10
-4.58703e+10
-4.64964e+10
-4.71576e+10
-4.45914e+10
-3.91737e+10
-3.42439e+10
-3.40277e+10
-3.45448e+10
-3.51223e+10
-3.55962e+10
-3.59622e+10
-3.62341e+10
-3.64284e+10
-3.65573e+10
-3.6632e+10
-3.6665e+10
-3.66713e+10
-3.6667e+10
-3.66674e+10
-3.66822e+10
-3.67107e+10
-3.67386e+10
-3.67413e+10
-3.67003e+10
-3.6624e+10
-3.65288e+10
-3.62982e+10
-3.54643e+10
-3.34483e+10
-3.11156e+10
-3.28045e+10
-4.3898e+10
-5.85169e+10
-3.92977e+10
-3.9129e+10
-3.91243e+10
-3.91069e+10
-3.90869e+10
-3.90817e+10
-3.9115e+10
-3.92169e+10
-3.94164e+10
-3.97343e+10
-4.01719e+10
-4.07144e+10
-4.13403e+10
-4.20443e+10
-4.28282e+10
-4.3635e+10
-4.43917e+10
-4.50446e+10
-4.55658e+10
-4.59758e+10
-4.62527e+10
-4.64817e+10
-4.70767e+10
-4.81098e+10
-4.80171e+10
-4.34081e+10
-2.87027e+10
-3.13689e+10
-3.34063e+10
-3.45969e+10
-3.53295e+10
-3.58206e+10
-3.61583e+10
-3.63927e+10
-3.655e+10
-3.66494e+10
-3.67076e+10
-3.67418e+10
-3.67692e+10
-3.68046e+10
-3.68562e+10
-3.69208e+10
-3.69802e+10
-3.70051e+10
-3.69707e+10
-3.68794e+10
-3.67477e+10
-3.64789e+10
-3.56648e+10
-3.38108e+10
-3.18419e+10
-3.41908e+10
-4.60463e+10
-5.79012e+10
-3.20923e+10
-3.91177e+10
-3.91137e+10
-3.90928e+10
-3.9073e+10
-3.90699e+10
-3.91059e+10
-3.92081e+10
-3.94037e+10
-3.97114e+10
-4.0135e+10
-4.06645e+10
-4.1287e+10
-4.19979e+10
-4.27884e+10
-4.36129e+10
-4.43821e+10
-4.50121e+10
-4.55018e+10
-4.58832e+10
-4.60714e+10
-4.62663e+10
-4.71704e+10
-4.82873e+10
-4.83129e+10
-4.49597e+10
-2.83768e+10
-3.12289e+10
-3.33066e+10
-3.45404e+10
-3.52952e+10
-3.5798e+10
-3.61425e+10
-3.63809e+10
-3.65414e+10
-3.66439e+10
-3.67054e+10
-3.67426e+10
-3.67723e+10
-3.68092e+10
-3.6861e+10
-3.69238e+10
-3.69789e+10
-3.69964e+10
-3.69508e+10
-3.68426e+10
-3.66845e+10
-3.63656e+10
-3.54323e+10
-3.33406e+10
-3.1264e+10
-3.46288e+10
-4.86902e+10
-5.926e+10
-3.03449e+10
-3.9088e+10
-3.90972e+10
-3.90715e+10
-3.90483e+10
-3.90394e+10
-3.90733e+10
-3.91805e+10
-3.93917e+10
-3.9726e+10
-4.01767e+10
-4.07164e+10
-4.13302e+10
-4.20252e+10
-4.28087e+10
-4.36269e+10
-4.43881e+10
-4.50532e+10
-4.55966e+10
-4.60133e+10
-4.62914e+10
-4.65294e+10
-4.69969e+10
-4.82745e+10
-4.54661e+10
-2.21852e+10
-3.09885e+10
-3.31647e+10
-3.44588e+10
-3.52497e+10
-3.57705e+10
-3.61221e+10
-3.63623e+10
-3.65223e+10
-3.66238e+10
-3.66848e+10
-3.6723e+10
-3.67558e+10
-3.6798e+10
-3.68574e+10
-3.693e+10
-3.6997e+10
-3.70284e+10
-3.69989e+10
-3.69124e+10
-3.67942e+10
-3.65704e+10
-3.58592e+10
-3.41353e+10
-3.21239e+10
-3.38758e+10
-4.46231e+10
-5.74409e+10
-3.58973e+10
-3.91107e+10
-3.91425e+10
-3.91104e+10
-3.90908e+10
-3.90841e+10
-3.9118e+10
-3.92195e+10
-3.94172e+10
-3.97302e+10
-4.01598e+10
-4.06922e+10
-4.13115e+10
-4.20164e+10
-4.28061e+10
-4.36312e+10
-4.44051e+10
-4.50389e+10
-4.55033e+10
-4.58587e+10
-4.60361e+10
-4.62391e+10
-4.70723e+10
-4.86142e+10
-4.77439e+10
-2.33151e+10
-3.09457e+10
-3.30953e+10
-3.44067e+10
-3.52155e+10
-3.57468e+10
-3.61036e+10
-3.63449e+10
-3.65031e+10
-3.66001e+10
-3.66544e+10
-3.66839e+10
-3.67065e+10
-3.67376e+10
-3.67861e+10
-3.68499e+10
-3.69123e+10
-3.69463e+10
-3.69303e+10
-3.68716e+10
-3.67979e+10
-3.66325e+10
-3.59754e+10
-3.43039e+10
-3.26249e+10
-3.57888e+10
-4.85756e+10
-5.89884e+10
-2.91945e+10
-3.91381e+10
-3.9133e+10
-3.91244e+10
-3.91122e+10
-3.91165e+10
-3.91582e+10
-3.92643e+10
-3.94625e+10
-3.97732e+10
-4.01957e+10
-4.07057e+10
-4.12851e+10
-4.19462e+10
-4.26958e+10
-4.34808e+10
-4.42317e+10
-4.48808e+10
-4.53963e+10
-4.57788e+10
-4.59934e+10
-4.61612e+10
-4.66064e+10
-4.72245e+10
-4.63532e+10
-3.76411e+10
-3.34922e+10
-3.35435e+10
-3.43161e+10
-3.5065e+10
-3.56339e+10
-3.60469e+10
-3.63425e+10
-3.65506e+10
-3.6691e+10
-3.67792e+10
-3.68297e+10
-3.68584e+10
-3.68816e+10
-3.69137e+10
-3.69631e+10
-3.70275e+10
-3.70911e+10
-3.71282e+10
-3.71198e+10
-3.70788e+10
-3.70459e+10
-3.69757e+10
-3.65257e+10
-3.51974e+10
-3.376e+10
-3.64335e+10
-4.78402e+10
-5.76235e+10
-2.90405e+10
-3.91949e+10
-3.92076e+10
-3.9202e+10
-3.91996e+10
-3.92123e+10
-3.92598e+10
-3.93654e+10
-3.95528e+10
-3.98386e+10
-4.02244e+10
-4.06983e+10
-4.12476e+10
-4.18725e+10
-4.25714e+10
-4.33104e+10
-4.40325e+10
-4.46641e+10
-4.5139e+10
-4.55231e+10
-4.57693e+10
-4.59828e+10
-4.65465e+10
-4.6997e+10
-4.61914e+10
-3.83395e+10
-3.31939e+10
-3.33004e+10
-3.41701e+10
-3.49894e+10
-3.56022e+10
-3.604e+10
-3.63493e+10
-3.65644e+10
-3.67073e+10
-3.67948e+10
-3.68424e+10
-3.68664e+10
-3.68835e+10
-3.69091e+10
-3.69526e+10
-3.70132e+10
-3.70766e+10
-3.71186e+10
-3.71206e+10
-3.70939e+10
-3.70733e+10
-3.70019e+10
-3.65156e+10
-3.50695e+10
-3.33111e+10
-3.54211e+10
-4.70611e+10
-5.98829e+10
-3.472e+10
-3.94046e+10
-3.9395e+10
-3.94069e+10
-3.942e+10
-3.94497e+10
-3.9508e+10
-3.96112e+10
-3.97748e+10
-4.00089e+10
-4.03133e+10
-4.06773e+10
-4.10897e+10
-4.15463e+10
-4.20394e+10
-4.25405e+10
-4.30083e+10
-4.33951e+10
-4.36644e+10
-4.37988e+10
-4.38183e+10
-4.38854e+10
-4.41059e+10
-4.37297e+10
-4.12135e+10
-3.80511e+10
-3.63751e+10
-3.57779e+10
-3.56917e+10
-3.58694e+10
-3.61075e+10
-3.63357e+10
-3.65258e+10
-3.66717e+10
-3.67738e+10
-3.68372e+10
-3.68709e+10
-3.68871e+10
-3.68999e+10
-3.6922e+10
-3.69609e+10
-3.70139e+10
-3.70655e+10
-3.7091e+10
-3.70731e+10
-3.70266e+10
-3.69954e+10
-3.69451e+10
-3.65528e+10
-3.53125e+10
-3.38672e+10
-3.62996e+10
-4.79645e+10
-5.98993e+10
-3.27845e+10
-3.94083e+10
-3.94024e+10
-3.9415e+10
-3.94313e+10
-3.94646e+10
-3.95263e+10
-3.96321e+10
-3.97963e+10
-4.00279e+10
-4.03268e+10
-4.06841e+10
-4.10894e+10
-4.15356e+10
-4.20125e+10
-4.2496e+10
-4.2951e+10
-4.33357e+10
-4.36136e+10
-4.37781e+10
-4.38468e+10
-4.3964e+10
-4.42103e+10
-4.37974e+10
-4.13147e+10
-3.80161e+10
-3.62171e+10
-3.56325e+10
-3.55957e+10
-3.58184e+10
-3.60875e+10
-3.63349e+10
-3.65365e+10
-3.6689e+10
-3.6795e+10
-3.68611e+10
-3.68974e+10
-3.69172e+10
-3.69354e+10
-3.6966e+10
-3.70174e+10
-3.7088e+10
-3.71632e+10
-3.72179e+10
-3.72321e+10
-3.72136e+10
-3.71929e+10
-3.71151e+10
-3.66236e+10
-3.51154e+10
-3.29149e+10
-3.36935e+10
-4.44457e+10
-6.11101e+10
-4.01441e+10
-3.95154e+10
-3.9516e+10
-3.95376e+10
-3.95706e+10
-3.96237e+10
-3.97042e+10
-3.98222e+10
-3.99859e+10
-4.01997e+10
-4.04622e+10
-4.07666e+10
-4.11034e+10
-4.14617e+10
-4.18258e+10
-4.21729e+10
-4.2476e+10
-4.27078e+10
-4.2841e+10
-4.28557e+10
-4.27793e+10
-4.26988e+10
-4.25433e+10
-4.18193e+10
-4.0187e+10
-3.83956e+10
-3.72715e+10
-3.66727e+10
-3.64009e+10
-3.63506e+10
-3.6413e+10
-3.65215e+10
-3.66344e+10
-3.67305e+10
-3.68002e+10
-3.68425e+10
-3.68628e+10
-3.68716e+10
-3.68814e+10
-3.69044e+10
-3.69467e+10
-3.7005e+10
-3.70634e+10
-3.70969e+10
-3.70877e+10
-3.70493e+10
-3.70241e+10
-3.69772e+10
-3.65916e+10
-3.53677e+10
-3.39006e+10
-3.60239e+10
-4.68242e+10
-5.85415e+10
-3.21893e+10
-3.9498e+10
-3.95012e+10
-3.95218e+10
-3.95552e+10
-3.96091e+10
-3.96916e+10
-3.98127e+10
-3.99812e+10
-4.02018e+10
-4.04732e+10
-4.0789e+10
-4.11395e+10
-4.15128e+10
-4.18926e+10
-4.22554e+10
-4.2573e+10
-4.28149e+10
-4.29525e+10
-4.29751e+10
-4.29154e+10
-4.28495e+10
-4.26821e+10
-4.19149e+10
-4.02067e+10
-3.83279e+10
-3.71641e+10
-3.65788e+10
-3.63371e+10
-3.63159e+10
-3.64001e+10
-3.65227e+10
-3.66439e+10
-3.67445e+10
-3.6817e+10
-3.68618e+10
-3.68856e+10
-3.68999e+10
-3.69185e+10
-3.6954e+10
-3.70136e+10
-3.70945e+10
-3.71809e+10
-3.72476e+10
-3.72743e+10
-3.72686e+10
-3.72612e+10
-3.72001e+10
-3.67337e+10
-3.52558e+10
-3.30866e+10
-3.38739e+10
-4.43436e+10
-6.01268e+10
-3.9314e+10
-3.96016e+10
-3.96075e+10
-3.96307e+10
-3.96684e+10
-3.97264e+10
-3.981e+10
-3.99256e+10
-4.0078e+10
-4.02695e+10
-4.04983e+10
-4.07597e+10
-4.10458e+10
-4.13459e+10
-4.16455e+10
-4.19256e+10
-4.2165e+10
-4.23422e+10
-4.24339e+10
-4.24251e+10
-4.23313e+10
-4.21643e+10
-4.1809e+10
-4.10199e+10
-3.9794e+10
-3.85487e+10
-3.76411e+10
-3.708e+10
-3.67832e+10
-3.66662e+10
-3.66563e+10
-3.67008e+10
-3.67631e+10
-3.68207e+10
-3.68618e+10
-3.68833e+10
-3.68892e+10
-3.68889e+10
-3.68945e+10
-3.6917e+10
-3.69619e+10
-3.70246e+10
-3.7088e+10
-3.71262e+10
-3.71201e+10
-3.70815e+10
-3.70492e+10
-3.69787e+10
-3.65353e+10
-3.52067e+10
-3.36371e+10
-3.57936e+10
-4.65975e+10
-5.69777e+10
-2.93391e+10
-3.96028e+10
-3.96047e+10
-3.96265e+10
-3.96618e+10
-3.97175e+10
-3.97989e+10
-3.99128e+10
-4.00645e+10
-4.02564e+10
-4.04875e+10
-4.07533e+10
-4.10464e+10
-4.13564e+10
-4.16687e+10
-4.19646e+10
-4.22211e+10
-4.24133e+10
-4.25153e+10
-4.25142e+10
-4.24282e+10
-4.22665e+10
-4.19019e+10
-4.10788e+10
-3.98068e+10
-3.85255e+10
-3.76137e+10
-3.70669e+10
-3.67852e+10
-3.66784e+10
-3.66732e+10
-3.67181e+10
-3.67784e+10
-3.68329e+10
-3.68709e+10
-3.68901e+10
-3.6895e+10
-3.68954e+10
-3.69036e+10
-3.69304e+10
-3.6981e+10
-3.70497e+10
-3.71181e+10
-3.71582e+10
-3.71484e+10
-3.70965e+10
-3.70359e+10
-3.69155e+10
-3.6382e+10
-3.488e+10
-3.30974e+10
-3.55435e+10
-4.78533e+10
-5.95072e+10
-3.15193e+10
-3.97189e+10
-3.97234e+10
-3.97472e+10
-3.97843e+10
-3.98397e+10
-3.99163e+10
-4.0018e+10
-4.01473e+10
-4.03046e+10
-4.04879e+10
-4.06932e+10
-4.09144e+10
-4.11428e+10
-4.13677e+10
-4.15755e+10
-4.17488e+10
-4.18661e+10
-4.19085e+10
-4.18703e+10
-4.17581e+10
-4.15556e+10
-4.11741e+10
-4.05143e+10
-3.96349e+10
-3.87526e+10
-3.80381e+10
-3.75303e+10
-3.72078e+10
-3.70243e+10
-3.69332e+10
-3.68964e+10
-3.68847e+10
-3.68779e+10
-3.68641e+10
-3.68389e+10
-3.68049e+10
-3.67698e+10
-3.67438e+10
-3.67361e+10
-3.67498e+10
-3.67773e+10
-3.6798e+10
-3.67817e+10
-3.67042e+10
-3.65707e+10
-3.64078e+10
-3.61468e+10
-3.54039e+10
-3.35913e+10
-3.12609e+10
-3.24096e+10
-4.30987e+10
-5.69871e+10
-3.2676e+10
-3.97296e+10
-3.97289e+10
-3.97535e+10
-3.97891e+10
-3.98429e+10
-3.99175e+10
-4.00168e+10
-4.01433e+10
-4.02975e+10
-4.04778e+10
-4.068e+10
-4.08983e+10
-4.11246e+10
-4.13485e+10
-4.15562e+10
-4.17305e+10
-4.18499e+10
-4.18957e+10
-4.18619e+10
-4.17558e+10
-4.15611e+10
-4.11871e+10
-4.05356e+10
-3.96616e+10
-3.87853e+10
-3.80755e+10
-3.75693e+10
-3.7244e+10
-3.70548e+10
-3.69573e+10
-3.69146e+10
-3.68988e+10
-3.68904e+10
-3.68779e+10
-3.6857e+10
-3.68304e+10
-3.68055e+10
-3.67923e+10
-3.67992e+10
-3.68281e+10
-3.68699e+10
-3.69018e+10
-3.68911e+10
-3.68107e+10
-3.66636e+10
-3.64757e+10
-3.61775e+10
-3.53726e+10