/*--------------------------------*- C++ -*----------------------------------*\
| =========                 |                                                 |
| \\      /  F ield         | OpenFOAM: The Open Source CFD Toolbox           |
|  \\    /   O peration     | Version:  4.1                                   |
|   \\  /    A nd           | Web:      www.OpenFOAM.org                      |
|    \\/     M anipulation  |                                                 |
\*---------------------------------------------------------------------------*/
FoamFile
{
    version     2.0;
    format      ascii;
    class       volScalarField;
    location    "88";
    object      p;
}
// * * * * * * * * * * * * * * * * * * * * * * * * * * * * * * * * * * * * * //

dimensions      [0 2 -2 0 0 0 0];

internalField   nonuniform List<scalar> 
4432
(
-4.10014e+10
-4.09908e+10
-4.11305e+10
-4.11476e+10
-4.11821e+10
-4.12439e+10
-4.13017e+10
-4.13594e+10
-4.14154e+10
-4.14698e+10
-4.15233e+10
-4.15751e+10
-4.16225e+10
-4.16623e+10
-4.16915e+10
-4.17069e+10
-4.17041e+10
-4.16796e+10
-4.16318e+10
-4.15599e+10
-4.14647e+10
-4.13492e+10
-4.12179e+10
-4.10772e+10
-4.09332e+10
-4.07918e+10
-4.06573e+10
-4.05322e+10
-4.04163e+10
-4.03079e+10
-4.02037e+10
-4.01014e+10
-4.00009e+10
-3.99044e+10
-3.98174e+10
-3.9746e+10
-3.96949e+10
-3.9665e+10
-3.96494e+10
-3.96332e+10
-3.95925e+10
-3.94949e+10
-3.93088e+10
-3.90438e+10
-3.883e+10
-3.8929e+10
-3.94471e+10
-3.97412e+10
-3.84414e+10
-3.57067e+10
-3.65631e+10
-4.714e+10
-5.77012e+10
-2.87955e+10
-4.10669e+10
-4.10174e+10
-4.1091e+10
-4.11515e+10
-4.11855e+10
-4.12406e+10
-4.13009e+10
-4.1358e+10
-4.14127e+10
-4.14671e+10
-4.15213e+10
-4.15739e+10
-4.16222e+10
-4.16632e+10
-4.16941e+10
-4.17115e+10
-4.17108e+10
-4.16886e+10
-4.16428e+10
-4.15722e+10
-4.14779e+10
-4.1363e+10
-4.1232e+10
-4.10912e+10
-4.09468e+10
-4.0805e+10
-4.06698e+10
-4.05441e+10
-4.04277e+10
-4.03188e+10
-4.02146e+10
-4.01126e+10
-4.00125e+10
-3.99166e+10
-3.98302e+10
-3.97595e+10
-3.97091e+10
-3.96792e+10
-3.96624e+10
-3.96435e+10
-3.95988e+10
-3.94965e+10
-3.93058e+10
-3.90382e+10
-3.88276e+10
-3.89448e+10
-3.9504e+10
-3.9818e+10
-3.83105e+10
-3.47505e+10
-3.42323e+10
-4.52897e+10
-6.02932e+10
-3.5249e+10
-4.1096e+10
-4.10643e+10
-4.11031e+10
-4.11732e+10
-4.12116e+10
-4.12573e+10
-4.13203e+10
-4.1382e+10
-4.14432e+10
-4.15053e+10
-4.15674e+10
-4.16298e+10
-4.16889e+10
-4.17392e+10
-4.17755e+10
-4.17943e+10
-4.17927e+10
-4.1767e+10
-4.17154e+10
-4.16364e+10
-4.15304e+10
-4.14001e+10
-4.12507e+10
-4.10894e+10
-4.09238e+10
-4.07615e+10
-4.06076e+10
-4.0466e+10
-4.03366e+10
-4.02183e+10
-4.01078e+10
-4.00027e+10
-3.99025e+10
-3.9809e+10
-3.97269e+10
-3.96617e+10
-3.9617e+10
-3.95922e+10
-3.95788e+10
-3.95611e+10
-3.95139e+10
-3.94022e+10
-3.91902e+10
-3.88865e+10
-3.86347e+10
-3.87248e+10
-3.92474e+10
-3.93786e+10
-3.7438e+10
-3.36318e+10
-3.3935e+10
-4.60733e+10
-5.93959e+10
-3.43703e+10
-4.1085e+10
-4.10738e+10
-4.11204e+10
-4.11709e+10
-4.12106e+10
-4.12582e+10
-4.13217e+10
-4.13829e+10
-4.14445e+10
-4.15069e+10
-4.15703e+10
-4.16342e+10
-4.16945e+10
-4.17459e+10
-4.17838e+10
-4.18056e+10
-4.1807e+10
-4.1784e+10
-4.1735e+10
-4.1658e+10
-4.15532e+10
-4.14239e+10
-4.1275e+10
-4.11139e+10
-4.09482e+10
-4.07856e+10
-4.06311e+10
-4.04888e+10
-4.03585e+10
-4.02391e+10
-4.01275e+10
-4.0021e+10
-3.9919e+10
-3.98232e+10
-3.97381e+10
-3.96691e+10
-3.96202e+10
-3.95905e+10
-3.95715e+10
-3.95475e+10
-3.94941e+10
-3.93764e+10
-3.9159e+10
-3.88517e+10
-3.8602e+10
-3.8709e+10
-3.92636e+10
-3.938e+10
-3.72233e+10
-3.3108e+10
-3.42464e+10
-4.91896e+10
-6.12825e+10
-2.9312e+10
-4.11288e+10
-4.11502e+10
-4.11276e+10
-4.11808e+10
-4.12241e+10
-4.12685e+10
-4.13249e+10
-4.13872e+10
-4.14523e+10
-4.15187e+10
-4.1586e+10
-4.16543e+10
-4.17195e+10
-4.17755e+10
-4.18177e+10
-4.18428e+10
-4.18483e+10
-4.18303e+10
-4.17859e+10
-4.17126e+10
-4.16092e+10
-4.14772e+10
-4.13219e+10
-4.11508e+10
-4.09726e+10
-4.07962e+10
-4.0628e+10
-4.0472e+10
-4.03294e+10
-4.0199e+10
-4.00782e+10
-3.99644e+10
-3.98564e+10
-3.97556e+10
-3.96662e+10
-3.9593e+10
-3.95399e+10
-3.95058e+10
-3.94837e+10
-3.94594e+10
-3.94084e+10
-3.92931e+10
-3.90721e+10
-3.87531e+10
-3.85006e+10
-3.86574e+10
-3.93465e+10
-3.96397e+10
-3.76165e+10
-3.34723e+10
-3.37131e+10
-4.59311e+10
-5.80167e+10
-2.91831e+10
-4.10967e+10
-4.1141e+10
-4.11589e+10
-4.11817e+10
-4.12215e+10
-4.12714e+10
-4.13298e+10
-4.13921e+10
-4.14591e+10
-4.1528e+10
-4.15985e+10
-4.16704e+10
-4.17398e+10
-4.18001e+10
-4.1846e+10
-4.18744e+10
-4.18815e+10
-4.18641e+10
-4.18198e+10
-4.17464e+10
-4.16423e+10
-4.15084e+10
-4.13497e+10
-4.11741e+10
-4.09906e+10
-4.08084e+10
-4.06341e+10
-4.0472e+10
-4.03231e+10
-4.01862e+10
-4.00587e+10
-3.9938e+10
-3.98233e+10
-3.97167e+10
-3.9623e+10
-3.95476e+10
-3.9494e+10
-3.94612e+10
-3.94424e+10
-3.94227e+10
-3.93773e+10
-3.92692e+10
-3.90582e+10
-3.87531e+10
-3.85202e+10
-3.87022e+10
-3.94041e+10
-3.96051e+10
-3.71844e+10
-3.2272e+10
-3.2075e+10
-4.55624e+10
-6.09249e+10
-3.43505e+10
-4.11093e+10
-4.11419e+10
-4.11663e+10
-4.11912e+10
-4.1238e+10
-4.12934e+10
-4.13549e+10
-4.14219e+10
-4.14943e+10
-4.15709e+10
-4.1651e+10
-4.17343e+10
-4.18168e+10
-4.1892e+10
-4.19537e+10
-4.19961e+10
-4.20135e+10
-4.20021e+10
-4.1959e+10
-4.18816e+10
-4.1768e+10
-4.16193e+10
-4.14414e+10
-4.12441e+10
-4.10393e+10
-4.0838e+10
-4.06487e+10
-4.04758e+10
-4.03204e+10
-4.0181e+10
-4.00546e+10
-3.99377e+10
-3.98277e+10
-3.97259e+10
-3.96359e+10
-3.95617e+10
-3.95063e+10
-3.94689e+10
-3.94426e+10
-3.94129e+10
-3.9355e+10
-3.9229e+10
-3.89873e+10
-3.86279e+10
-3.83118e+10
-3.83941e+10
-3.90328e+10
-3.93349e+10
-3.73188e+10
-3.28707e+10
-3.22961e+10
-4.46856e+10
-6.07999e+10
-3.68114e+10
-4.11098e+10
-4.11504e+10
-4.11731e+10
-4.11893e+10
-4.12316e+10
-4.12899e+10
-4.13517e+10
-4.14189e+10
-4.1493e+10
-4.15717e+10
-4.16546e+10
-4.17409e+10
-4.18265e+10
-4.19053e+10
-4.19711e+10
-4.20179e+10
-4.20398e+10
-4.20323e+10
-4.19924e+10
-4.19174e+10
-4.18053e+10
-4.1657e+10
-4.14779e+10
-4.12782e+10
-4.10697e+10
-4.08638e+10
-4.06692e+10
-4.04909e+10
-4.03298e+10
-4.01845e+10
-4.00519e+10
-3.99291e+10
-3.98147e+10
-3.97098e+10
-3.96181e+10
-3.95443e+10
-3.94918e+10
-3.94594e+10
-3.94405e+10
-3.94202e+10
-3.93734e+10
-3.926e+10
-3.90333e+10
-3.86953e+10
-3.84133e+10
-3.85496e+10
-3.92479e+10
-3.95313e+10
-3.73287e+10
-3.29481e+10
-3.40827e+10
-4.93614e+10
-6.2064e+10
-2.96898e+10
-4.10898e+10
-4.11147e+10
-4.11448e+10
-4.11693e+10
-4.12106e+10
-4.12661e+10
-4.13306e+10
-4.14013e+10
-4.14781e+10
-4.15615e+10
-4.16505e+10
-4.17431e+10
-4.18355e+10
-4.19223e+10
-4.19976e+10
-4.20551e+10
-4.20887e+10
-4.20936e+10
-4.20652e+10
-4.19981e+10
-4.18873e+10
-4.17316e+10
-4.15366e+10
-4.13147e+10
-4.10818e+10
-4.08527e+10
-4.06381e+10
-4.04438e+10
-4.02706e+10
-4.01165e+10
-3.99776e+10
-3.98495e+10
-3.97297e+10
-3.96189e+10
-3.95213e+10
-3.94423e+10
-3.93867e+10
-3.93552e+10
-3.93428e+10
-3.93367e+10
-3.93129e+10
-3.92306e+10
-3.90395e+10
-3.87342e+10
-3.84691e+10
-3.85961e+10
-3.93013e+10
-3.97795e+10
-3.81144e+10
-3.40045e+10
-3.32061e+10
-4.47262e+10
-6.07281e+10
-3.38276e+10
-4.10987e+10
-4.11307e+10
-4.11494e+10
-4.11698e+10
-4.12103e+10
-4.12668e+10
-4.13321e+10
-4.14043e+10
-4.14828e+10
-4.15674e+10
-4.16581e+10
-4.17525e+10
-4.18465e+10
-4.19345e+10
-4.2011e+10
-4.20696e+10
-4.21045e+10
-4.21109e+10
-4.20842e+10
-4.2019e+10
-4.19106e+10
-4.17577e+10
-4.15656e+10
-4.13465e+10
-4.11159e+10
-4.08886e+10
-4.06755e+10
-4.04825e+10
-4.03104e+10
-4.01572e+10
-4.00189e+10
-3.98918e+10
-3.97739e+10
-3.96658e+10
-3.95715e+10
-3.94961e+10
-3.94437e+10
-3.94145e+10
-3.94027e+10
-3.93944e+10
-3.93646e+10
-3.92719e+10
-3.90655e+10
-3.87415e+10
-3.84583e+10
-3.8574e+10
-3.92662e+10
-3.96754e+10
-3.78641e+10
-3.39244e+10
-3.46715e+10
-4.85448e+10
-6.24111e+10
-3.18621e+10
-4.11157e+10
-4.11338e+10
-4.11622e+10
-4.11953e+10
-4.12404e+10
-4.12995e+10
-4.13702e+10
-4.14486e+10
-4.15343e+10
-4.16295e+10
-4.17346e+10
-4.1846e+10
-4.19598e+10
-4.2071e+10
-4.21731e+10
-4.22579e+10
-4.23169e+10
-4.2343e+10
-4.23308e+10
-4.2273e+10
-4.2161e+10
-4.19895e+10
-4.17645e+10
-4.1504e+10
-4.12314e+10
-4.09682e+10
-4.07289e+10
-4.05207e+10
-4.03438e+10
-4.01938e+10
-4.00644e+10
-3.99494e+10
-3.98449e+10
-3.97505e+10
-3.96688e+10
-3.9605e+10
-3.95641e+10
-3.95477e+10
-3.95514e+10
-3.9563e+10
-3.95577e+10
-3.94936e+10
-3.93188e+10
-3.90246e+10
-3.87586e+10
-3.8871e+10
-3.95756e+10
-4.01372e+10
-3.87055e+10
-3.50323e+10
-3.52172e+10
-4.7838e+10
-6.1433e+10
-3.22095e+10
-4.11277e+10
-4.11488e+10
-4.11762e+10
-4.12087e+10
-4.12556e+10
-4.13143e+10
-4.13838e+10
-4.14628e+10
-4.15494e+10
-4.16447e+10
-4.17488e+10
-4.18591e+10
-4.1972e+10
-4.20825e+10
-4.21846e+10
-4.227e+10
-4.23299e+10
-4.2357e+10
-4.23448e+10
-4.22863e+10
-4.21729e+10
-4.19993e+10
-4.17719e+10
-4.15089e+10
-4.12342e+10
-4.09693e+10
-4.07292e+10
-4.05207e+10
-4.03437e+10
-4.01935e+10
-4.00635e+10
-3.99475e+10
-3.98413e+10
-3.9744e+10
-3.96576e+10
-3.95866e+10
-3.95354e+10
-3.95055e+10
-3.94932e+10
-3.94861e+10
-3.9461e+10
-3.93779e+10
-3.91873e+10
-3.88839e+10
-3.86191e+10
-3.8747e+10
-3.94773e+10
-4.00452e+10
-3.85155e+10
-3.44509e+10
-3.37517e+10
-4.61292e+10
-6.40212e+10
-4.16817e+10
-4.10923e+10
-4.11107e+10
-4.11362e+10
-4.1173e+10
-4.12221e+10
-4.12856e+10
-4.13608e+10
-4.14445e+10
-4.15368e+10
-4.16407e+10
-4.17566e+10
-4.18821e+10
-4.20139e+10
-4.21473e+10
-4.22752e+10
-4.23875e+10
-4.24729e+10
-4.25217e+10
-4.25272e+10
-4.24803e+10
-4.23662e+10
-4.21706e+10
-4.18964e+10
-4.15693e+10
-4.12267e+10
-4.09012e+10
-4.06142e+10
-4.03743e+10
-4.01807e+10
-4.0026e+10
-3.99007e+10
-3.97959e+10
-3.97053e+10
-3.96267e+10
-3.95614e+10
-3.95135e+10
-3.94871e+10
-3.94837e+10
-3.94985e+10
-3.95181e+10
-3.95166e+10
-3.94508e+10
-3.92666e+10
-3.89523e+10
-3.86497e+10
-3.8707e+10
-3.93525e+10
-3.98609e+10
-3.82672e+10
-3.39628e+10
-3.28624e+10
-4.56942e+10
-6.51765e+10
-3.99546e+10
-4.10871e+10
-4.11044e+10
-4.1129e+10
-4.11671e+10
-4.12164e+10
-4.1277e+10
-4.13488e+10
-4.14307e+10
-4.15227e+10
-4.16257e+10
-4.17402e+10
-4.18647e+10
-4.19959e+10
-4.2129e+10
-4.22567e+10
-4.23684e+10
-4.24526e+10
-4.25002e+10
-4.2505e+10
-4.24588e+10
-4.23465e+10
-4.21535e+10
-4.18822e+10
-4.15573e+10
-4.12156e+10
-4.08894e+10
-4.06e+10
-4.03563e+10
-4.01578e+10
-3.99975e+10
-3.98663e+10
-3.97552e+10
-3.96579e+10
-3.95717e+10
-3.94978e+10
-3.944e+10
-3.94027e+10
-3.93876e+10
-3.9391e+10
-3.94013e+10
-3.93954e+10
-3.93338e+10
-3.91684e+10
-3.88943e+10
-3.86626e+10
-3.88344e+10
-3.96563e+10
-4.04176e+10
-3.9098e+10
-3.48003e+10
-3.28663e+10
-4.42472e+10
-6.37158e+10
-3.96487e+10
-4.1097e+10
-4.11075e+10
-4.11241e+10
-4.11525e+10
-4.11944e+10
-4.12492e+10
-4.13147e+10
-4.13902e+10
-4.14792e+10
-4.15853e+10
-4.17091e+10
-4.18503e+10
-4.20071e+10
-4.21746e+10
-4.23443e+10
-4.25031e+10
-4.26346e+10
-4.27251e+10
-4.27661e+10
-4.27491e+10
-4.26504e+10
-4.24368e+10
-4.20985e+10
-4.16743e+10
-4.12298e+10
-4.08191e+10
-4.04713e+10
-4.01948e+10
-3.99843e+10
-3.98273e+10
-3.97097e+10
-3.9619e+10
-3.95465e+10
-3.9488e+10
-3.94436e+10
-3.94168e+10
-3.94112e+10
-3.94284e+10
-3.94646e+10
-3.95076e+10
-3.95337e+10
-3.95022e+10
-3.93633e+10
-3.91093e+10
-3.88873e+10
-3.90589e+10
-3.98817e+10
-4.06574e+10
-3.93875e+10
-3.53257e+10
-3.40248e+10
-4.54149e+10
-6.20618e+10
-3.49349e+10
-4.1082e+10
-4.10864e+10
-4.11065e+10
-4.11404e+10
-4.11854e+10
-4.12409e+10
-4.13088e+10
-4.13887e+10
-4.14826e+10
-4.15927e+10
-4.17202e+10
-4.18646e+10
-4.20237e+10
-4.21927e+10
-4.23629e+10
-4.25209e+10
-4.26506e+10
-4.27382e+10
-4.27759e+10
-4.27544e+10
-4.26511e+10
-4.24339e+10
-4.20934e+10
-4.16689e+10
-4.12258e+10
-4.08179e+10
-4.04739e+10
-4.02012e+10
-3.99935e+10
-3.98381e+10
-3.97204e+10
-3.96279e+10
-3.95521e+10
-3.94883e+10
-3.94363e+10
-3.93992e+10
-3.9381e+10
-3.93835e+10
-3.94036e+10
-3.94303e+10
-3.94408e+10
-3.93952e+10
-3.92445e+10
-3.8982e+10
-3.87578e+10
-3.89418e+10
-3.98129e+10
-4.07106e+10
-3.96637e+10
-3.59224e+10
-3.51048e+10
-4.65589e+10
-6.04187e+10
-3.11257e+10
-4.09603e+10
-4.09627e+10
-4.09745e+10
-4.09986e+10
-4.10407e+10
-4.10981e+10
-4.11701e+10
-4.12589e+10
-4.13689e+10
-4.15028e+10
-4.16624e+10
-4.18476e+10
-4.20561e+10
-4.22815e+10
-4.25127e+10
-4.27321e+10
-4.29171e+10
-4.30485e+10
-4.31197e+10
-4.31292e+10
-4.3046e+10
-4.2801e+10
-4.23502e+10
-4.17545e+10
-4.11413e+10
-4.06035e+10
-4.01762e+10
-3.98619e+10
-3.9644e+10
-3.94986e+10
-3.94022e+10
-3.93358e+10
-3.92861e+10
-3.92461e+10
-3.92135e+10
-3.91897e+10
-3.91767e+10
-3.9175e+10
-3.91801e+10
-3.91799e+10
-3.91508e+10
-3.90531e+10
-3.88387e+10
-3.85025e+10
-3.81988e+10
-3.83078e+10
-3.91216e+10
-3.99777e+10
-3.89129e+10
-3.52974e+10
-3.49325e+10
-4.68025e+10
-6.0317e+10
-3.05938e+10
-4.0954e+10
-4.09599e+10
-4.09745e+10
-4.1005e+10
-4.10499e+10
-4.11095e+10
-4.1186e+10
-4.12799e+10
-4.13933e+10
-4.15289e+10
-4.16884e+10
-4.18717e+10
-4.20762e+10
-4.22956e+10
-4.25192e+10
-4.27301e+10
-4.29064e+10
-4.30288e+10
-4.30914e+10
-4.30925e+10
-4.30029e+10
-4.27536e+10
-4.23004e+10
-4.1701e+10
-4.10822e+10
-4.0538e+10
-4.01058e+10
-3.97892e+10
-3.95709e+10
-3.94266e+10
-3.93319e+10
-3.92673e+10
-3.9219e+10
-3.91801e+10
-3.91489e+10
-3.91275e+10
-3.91192e+10
-3.91258e+10
-3.91439e+10
-3.91625e+10
-3.91584e+10
-3.90908e+10
-3.89083e+10
-3.85994e+10
-3.83091e+10
-3.84062e+10
-3.91737e+10
-3.99426e+10
-3.87096e+10
-3.46811e+10
-3.34529e+10
-4.4796e+10
-6.03244e+10
-3.3981e+10
-4.0925e+10
-4.09392e+10
-4.09642e+10
-4.10028e+10
-4.10604e+10
-4.11354e+10
-4.1227e+10
-4.1337e+10
-4.1467e+10
-4.16186e+10
-4.17944e+10
-4.19962e+10
-4.22237e+10
-4.24735e+10
-4.2737e+10
-4.29974e+10
-4.32289e+10
-4.34055e+10
-4.35207e+10
-4.35836e+10
-4.35665e+10
-4.33464e+10
-4.27967e+10
-4.19844e+10
-4.11486e+10
-4.04584e+10
-3.99543e+10
-3.96248e+10
-3.94291e+10
-3.93238e+10
-3.92723e+10
-3.92482e+10
-3.9234e+10
-3.92207e+10
-3.92051e+10
-3.91874e+10
-3.91692e+10
-3.91498e+10
-3.9124e+10
-3.90788e+10
-3.89895e+10
-3.8814e+10
-3.84994e+10
-3.8035e+10
-3.75704e+10
-3.7485e+10
-3.80742e+10
-3.86652e+10
-3.72013e+10
-3.27966e+10
-3.11377e+10
-4.29212e+10
-6.15769e+10
-4.02196e+10
-4.092e+10
-4.09417e+10
-4.09628e+10
-4.10003e+10
-4.10545e+10
-4.11269e+10
-4.12162e+10
-4.13231e+10
-4.1449e+10
-4.15961e+10
-4.17668e+10
-4.19631e+10
-4.21848e+10
-4.24289e+10
-4.26866e+10
-4.29412e+10
-4.3166e+10
-4.33354e+10
-4.34441e+10
-4.35057e+10
-4.3495e+10
-4.32931e+10
-4.27718e+10
-4.19847e+10
-4.11589e+10
-4.04637e+10
-3.99458e+10
-3.95989e+10
-3.93858e+10
-3.92651e+10
-3.92018e+10
-3.91697e+10
-3.9152e+10
-3.91402e+10
-3.91324e+10
-3.91302e+10
-3.91358e+10
-3.91493e+10
-3.91659e+10
-3.91737e+10
-3.91489e+10
-3.90498e+10
-3.88232e+10
-3.84558e+10
-3.80922e+10
-3.81048e+10
-3.87829e+10
-3.9445e+10
-3.79649e+10
-3.3189e+10
-3.04132e+10
-4.10536e+10
-6.06188e+10
-4.03124e+10
-4.08348e+10
-4.08469e+10
-4.08696e+10
-4.09046e+10
-4.0955e+10
-4.1021e+10
-4.11026e+10
-4.12007e+10
-4.13177e+10
-4.14584e+10
-4.16307e+10
-4.1844e+10
-4.21059e+10
-4.24196e+10
-4.27793e+10
-4.3164e+10
-4.35328e+10
-4.38355e+10
-4.40475e+10
-4.4195e+10
-4.42895e+10
-4.41672e+10
-4.35215e+10
-4.23384e+10
-4.10679e+10
-4.01253e+10
-3.95342e+10
-3.92099e+10
-3.90588e+10
-3.90104e+10
-3.90161e+10
-3.9044e+10
-3.90756e+10
-3.91024e+10
-3.91233e+10
-3.91416e+10
-3.9161e+10
-3.91836e+10
-3.92074e+10
-3.92228e+10
-3.92086e+10
-3.9126e+10
-3.89242e+10
-3.85945e+10
-3.82874e+10
-3.83795e+10
-3.91511e+10
-3.9898e+10
-3.84964e+10
-3.39104e+10
-3.16024e+10
-4.22742e+10
-5.96408e+10
-3.29733e+10
-4.08405e+10
-4.08549e+10
-4.08761e+10
-4.091e+10
-4.09598e+10
-4.10255e+10
-4.11058e+10
-4.12021e+10
-4.13165e+10
-4.14533e+10
-4.16198e+10
-4.18245e+10
-4.2075e+10
-4.2374e+10
-4.27163e+10
-4.3082e+10
-4.34321e+10
-4.37181e+10
-4.39175e+10
-4.40592e+10
-4.41598e+10
-4.40664e+10
-4.34772e+10
-4.2349e+10
-4.11064e+10
-4.01619e+10
-3.95502e+10
-3.92022e+10
-3.903e+10
-3.89649e+10
-3.89584e+10
-3.89789e+10
-3.90082e+10
-3.9038e+10
-3.90674e+10
-3.90998e+10
-3.91392e+10
-3.91868e+10
-3.92389e+10
-3.9285e+10
-3.93019e+10
-3.92494e+10
-3.90763e+10
-3.87733e+10
-3.84938e+10
-3.8623e+10
-3.94622e+10
-4.03333e+10
-3.91234e+10
-3.48061e+10
-3.29348e+10
-4.39743e+10
-5.94629e+10
-3.08157e+10
-4.07791e+10
-4.07909e+10
-4.08128e+10
-4.08498e+10
-4.09037e+10
-4.0977e+10
-4.10711e+10
-4.11873e+10
-4.13288e+10
-4.15026e+10
-4.17197e+10
-4.19941e+10
-4.23372e+10
-4.27519e+10
-4.32273e+10
-4.37312e+10
-4.42031e+10
-4.45669e+10
-4.47853e+10
-4.49296e+10
-4.51402e+10
-4.52908e+10
-4.46832e+10
-4.28154e+10
-4.06005e+10
-3.93108e+10
-3.87239e+10
-3.84997e+10
-3.84799e+10
-3.85559e+10
-3.86644e+10
-3.87706e+10
-3.88592e+10
-3.89267e+10
-3.89773e+10
-3.90181e+10
-3.90565e+10
-3.90972e+10
-3.91401e+10
-3.91787e+10
-3.91942e+10
-3.91499e+10
-3.89994e+10
-3.87429e+10
-3.85446e+10
-3.87858e+10
-3.97225e+10
-4.06242e+10
-3.94819e+10
-3.56507e+10
-3.48563e+10
-4.62149e+10
-6.00226e+10
-3.11991e+10
-4.08002e+10
-4.08096e+10
-4.08334e+10
-4.08705e+10
-4.09247e+10
-4.09968e+10
-4.1088e+10
-4.11995e+10
-4.13339e+10
-4.14971e+10
-4.16997e+10
-4.19551e+10
-4.22752e+10
-4.26649e+10
-4.31165e+10
-4.36024e+10
-4.40663e+10
-4.4432e+10
-4.4659e+10
-4.48195e+10
-4.50508e+10
-4.52281e+10
-4.46995e+10
-4.29526e+10
-4.08182e+10
-3.95321e+10
-3.88893e+10
-3.86097e+10
-3.85423e+10
-3.85797e+10
-3.86582e+10
-3.87425e+10
-3.8817e+10
-3.88782e+10
-3.89302e+10
-3.89802e+10
-3.90357e+10
-3.91007e+10
-3.91737e+10
-3.92444e+10
-3.92892e+10
-3.92655e+10
-3.91191e+10
-3.88415e+10
-3.85908e+10
-3.87487e+10
-3.95821e+10
-4.03764e+10
-3.91322e+10
-3.52154e+10
-3.44227e+10
-4.60652e+10
-6.06619e+10
-3.41966e+10
-4.06954e+10
-4.07017e+10
-4.07161e+10
-4.07463e+10
-4.07948e+10
-4.08637e+10
-4.09522e+10
-4.10574e+10
-4.1177e+10
-4.13141e+10
-4.14809e+10
-4.17e+10
-4.19985e+10
-4.23972e+10
-4.28989e+10
-4.34793e+10
-4.40704e+10
-4.45684e+10
-4.49259e+10
-4.52785e+10
-4.59685e+10
-4.69906e+10
-4.69647e+10
-4.4018e+10
-4.01297e+10
-3.83899e+10
-3.78005e+10
-3.771e+10
-3.78747e+10
-3.81074e+10
-3.83277e+10
-3.85065e+10
-3.86403e+10
-3.87363e+10
-3.88053e+10
-3.88589e+10
-3.89072e+10
-3.89564e+10
-3.90061e+10
-3.90465e+10
-3.90541e+10
-3.89858e+10
-3.87899e+10
-3.84653e+10
-3.81793e+10
-3.83039e+10
-3.905e+10
-3.96443e+10
-3.82199e+10
-3.45792e+10
-3.47173e+10
-4.72434e+10
-6.25181e+10
-3.61308e+10
-4.07261e+10
-4.07269e+10
-4.07425e+10
-4.07711e+10
-4.08177e+10
-4.08836e+10
-4.0968e+10
-4.10679e+10
-4.11812e+10
-4.13111e+10
-4.14698e+10
-4.16797e+10
-4.19683e+10
-4.23579e+10
-4.2855e+10
-4.34391e+10
-4.40448e+10
-4.45644e+10
-4.49296e+10
-4.52583e+10
-4.58842e+10
-4.68076e+10
-4.68365e+10
-4.4227e+10
-4.03681e+10
-3.86183e+10
-3.79719e+10
-3.7842e+10
-3.79703e+10
-3.81712e+10
-3.8367e+10
-3.85285e+10
-3.86513e+10
-3.87415e+10
-3.88097e+10
-3.88676e+10
-3.89261e+10
-3.89916e+10
-3.90636e+10
-3.91314e+10
-3.91692e+10
-3.91305e+10
-3.89584e+10
-3.86448e+10
-3.8349e+10
-3.84359e+10
-3.9109e+10
-3.95724e+10
-3.78458e+10
-3.33413e+10
-3.15141e+10
-4.24181e+10
-6.21951e+10
-4.25659e+10
-4.05554e+10
-4.0565e+10
-4.05713e+10
-4.05939e+10
-4.06361e+10
-4.06985e+10
-4.07756e+10
-4.0859e+10
-4.09427e+10
-4.10321e+10
-4.11548e+10
-4.1366e+10
-4.17367e+10
-4.23226e+10
-4.31339e+10
-4.41258e+10
-4.51771e+10
-4.61243e+10
-4.69511e+10
-4.78778e+10
-4.93363e+10
-5.1263e+10
-5.18043e+10
-4.74573e+10
-4.10818e+10
-3.68159e+10
-3.64941e+10
-3.69241e+10
-3.74336e+10
-3.78561e+10
-3.81774e+10
-3.84126e+10
-3.85816e+10
-3.87022e+10
-3.87917e+10
-3.88667e+10
-3.89409e+10
-3.9023e+10
-3.9114e+10
-3.92042e+10
-3.92686e+10
-3.92623e+10
-3.91309e+10
-3.88722e+10
-3.86513e+10
-3.88254e+10
-3.95643e+10
-4.00428e+10
-3.84104e+10
-3.46149e+10
-3.46863e+10
-4.67999e+10
-6.04235e+10
-3.12834e+10
-4.05629e+10
-4.05693e+10
-4.05749e+10
-4.05953e+10
-4.06355e+10
-4.06964e+10
-4.07731e+10
-4.08578e+10
-4.0945e+10
-4.10411e+10
-4.11735e+10
-4.13948e+10
-4.17706e+10
-4.23537e+10
-4.31586e+10
-4.41462e+10
-4.51928e+10
-4.61084e+10
-4.67886e+10
-4.74077e+10
-4.85379e+10
-5.02439e+10
-5.0994e+10
-4.803e+10
-4.19115e+10
-3.66388e+10
-3.638e+10
-3.6867e+10
-3.74118e+10
-3.78512e+10
-3.81814e+10
-3.84227e+10
-3.85971e+10
-3.8723e+10
-3.88179e+10
-3.88978e+10
-3.89761e+10
-3.90612e+10
-3.91545e+10
-3.92466e+10
-3.93138e+10
-3.93124e+10
-3.91898e+10
-3.8945e+10
-3.87442e+10
-3.89456e+10
-3.97062e+10
-4.01316e+10
-3.81716e+10
-3.34282e+10
-3.19743e+10
-4.39889e+10
-6.23983e+10
-3.86032e+10
-4.05103e+10
-4.05325e+10
-4.05382e+10
-4.05621e+10
-4.06042e+10
-4.06646e+10
-4.07351e+10
-4.08051e+10
-4.08687e+10
-4.09372e+10
-4.10535e+10
-4.12983e+10
-4.17651e+10
-4.25022e+10
-4.34786e+10
-4.45862e+10
-4.56723e+10
-4.66152e+10
-4.74469e+10
-4.8467e+10
-4.99754e+10
-5.18109e+10
-5.29149e+10
-5.09487e+10
-4.48198e+10
-3.07687e+10
-3.33016e+10
-3.54336e+10
-3.66483e+10
-3.73821e+10
-3.78503e+10
-3.81583e+10
-3.83633e+10
-3.85006e+10
-3.85964e+10
-3.8671e+10
-3.874e+10
-3.88127e+10
-3.88909e+10
-3.89661e+10
-3.90158e+10
-3.89988e+10
-3.88666e+10
-3.86225e+10
-3.84337e+10
-3.86528e+10
-3.94322e+10
-3.99082e+10
-3.816e+10
-3.4032e+10
-3.35254e+10
-4.56115e+10
-6.19157e+10
-3.68717e+10
-4.0494e+10
-4.05181e+10
-4.0519e+10
-4.05402e+10
-4.05813e+10
-4.06432e+10
-4.07183e+10
-4.07964e+10
-4.08725e+10
-4.09587e+10
-4.1097e+10
-4.13606e+10
-4.18309e+10
-4.25577e+10
-4.35283e+10
-4.46506e+10
-4.57573e+10
-4.66425e+10
-4.725e+10
-4.78962e+10
-4.92984e+10
-5.16038e+10
-5.28128e+10
-5.13151e+10
-4.82337e+10
-3.06347e+10
-3.31259e+10
-3.53348e+10
-3.6609e+10
-3.73816e+10
-3.78795e+10
-3.82117e+10
-3.84382e+10
-3.85962e+10
-3.87115e+10
-3.88038e+10
-3.88873e+10
-3.89699e+10
-3.90516e+10
-3.91229e+10
-3.91608e+10
-3.91246e+10
-3.89674e+10
-3.86951e+10
-3.84799e+10
-3.86812e+10
-3.94401e+10
-3.98079e+10
-3.77485e+10
-3.35268e+10
-3.48327e+10
-5.05535e+10
-6.40806e+10
-3.23462e+10
-4.04883e+10
-4.04959e+10
-4.05003e+10
-4.05186e+10
-4.05562e+10
-4.06126e+10
-4.06799e+10
-4.07468e+10
-4.08083e+10
-4.08756e+10
-4.09926e+10
-4.12433e+10
-4.17192e+10
-4.24652e+10
-4.34461e+10
-4.45587e+10
-4.56708e+10
-4.66534e+10
-4.75225e+10
-4.86122e+10
-5.02566e+10
-5.19551e+10
-5.15124e+10
-4.64273e+10
-2.46298e+10
-3.29174e+10
-3.51618e+10
-3.64839e+10
-3.73003e+10
-3.78284e+10
-3.81825e+10
-3.84252e+10
-3.85949e+10
-3.87183e+10
-3.8815e+10
-3.88986e+10
-3.89762e+10
-3.90471e+10
-3.91014e+10
-3.91168e+10
-3.9055e+10
-3.88727e+10
-3.85771e+10
-3.83334e+10
-3.84897e+10
-3.92132e+10
-3.96908e+10
-3.80508e+10
-3.40814e+10
-3.35277e+10
-4.51287e+10
-6.16077e+10
-4.07294e+10
-4.04858e+10
-4.05039e+10
-4.05036e+10
-4.05221e+10
-4.05611e+10
-4.06207e+10
-4.06934e+10
-4.07679e+10
-4.08386e+10
-4.09172e+10
-4.10467e+10
-4.1304e+10
-4.17749e+10
-4.25093e+10
-4.3488e+10
-4.4614e+10
-4.57332e+10
-4.66341e+10
-4.72992e+10
-4.80696e+10
-4.93885e+10
-5.1486e+10
-5.31821e+10
-5.22268e+10
-2.50664e+10
-3.28845e+10
-3.51213e+10
-3.64622e+10
-3.72965e+10
-3.78379e+10
-3.82013e+10
-3.84508e+10
-3.86263e+10
-3.8755e+10
-3.8857e+10
-3.8946e+10
-3.9029e+10
-3.91048e+10
-3.91631e+10
-3.91812e+10
-3.91204e+10
-3.89367e+10
-3.8637e+10
-3.83875e+10
-3.85402e+10
-3.92551e+10
-3.96676e+10
-3.78738e+10
-3.40829e+10
-3.53021e+10
-4.96651e+10
-6.31342e+10
-3.08347e+10
-4.05302e+10
-4.05255e+10
-4.0539e+10
-4.05618e+10
-4.0605e+10
-4.06662e+10
-4.07389e+10
-4.08132e+10
-4.08835e+10
-4.09579e+10
-4.10711e+10
-4.1296e+10
-4.17228e+10
-4.24071e+10
-4.33323e+10
-4.44011e+10
-4.54745e+10
-4.64165e+10
-4.7193e+10
-4.80068e+10
-4.91361e+10
-5.0618e+10
-5.18078e+10
-5.02977e+10
-3.97007e+10
-3.55593e+10
-3.55624e+10
-3.63071e+10
-3.70471e+10
-3.76175e+10
-3.80341e+10
-3.83358e+10
-3.85555e+10
-3.87181e+10
-3.88438e+10
-3.89486e+10
-3.90444e+10
-3.91373e+10
-3.92269e+10
-3.93039e+10
-3.93482e+10
-3.93253e+10
-3.91958e+10
-3.89661e+10
-3.87899e+10
-3.89994e+10
-3.97724e+10
-4.03731e+10
-3.90619e+10
-3.57715e+10
-3.64713e+10
-4.89632e+10
-6.14385e+10
-3.04129e+10
-4.05469e+10
-4.05542e+10
-4.05638e+10
-4.05882e+10
-4.06334e+10
-4.06995e+10
-4.07799e+10
-4.08648e+10
-4.09473e+10
-4.10345e+10
-4.11589e+10
-4.13838e+10
-4.17855e+10
-4.24191e+10
-4.32818e+10
-4.42869e+10
-4.52788e+10
-4.61036e+10
-4.67873e+10
-4.76357e+10
-4.88696e+10
-5.04749e+10
-5.10595e+10
-4.96055e+10
-4.07095e+10
-3.54326e+10
-3.54241e+10
-3.62246e+10
-3.70153e+10
-3.76162e+10
-3.80476e+10
-3.83545e+10
-3.85736e+10
-3.8732e+10
-3.88513e+10
-3.89487e+10
-3.90368e+10
-3.91228e+10
-3.92067e+10
-3.92799e+10
-3.93223e+10
-3.92997e+10
-3.91727e+10
-3.89481e+10
-3.87797e+10
-3.89988e+10
-3.97825e+10
-4.03869e+10
-3.89979e+10
-3.52794e+10
-3.49619e+10
-4.7204e+10
-6.40417e+10
-4.058e+10
-4.0674e+10
-4.06777e+10
-4.06923e+10
-4.0722e+10
-4.07726e+10
-4.08453e+10
-4.0937e+10
-4.10418e+10
-4.11549e+10
-4.12791e+10
-4.14319e+10
-4.16489e+10
-4.19751e+10
-4.2443e+10
-4.30503e+10
-4.37466e+10
-4.44379e+10
-4.50086e+10
-4.53845e+10
-4.56407e+10
-4.60261e+10
-4.66979e+10
-4.673e+10
-4.37625e+10
-4.0214e+10
-3.8387e+10
-3.76928e+10
-3.7566e+10
-3.77299e+10
-3.79709e+10
-3.82051e+10
-3.84007e+10
-3.85537e+10
-3.86699e+10
-3.87595e+10
-3.8834e+10
-3.89031e+10
-3.89732e+10
-3.90447e+10
-3.91102e+10
-3.91522e+10
-3.91391e+10
-3.90329e+10
-3.88365e+10
-3.86894e+10
-3.89019e+10
-3.96456e+10
-4.02233e+10
-3.89318e+10
-3.55786e+10
-3.58074e+10
-4.79523e+10
-6.28832e+10
-3.47549e+10
-4.06778e+10
-4.06834e+10
-4.06968e+10
-4.07256e+10
-4.07748e+10
-4.08459e+10
-4.09365e+10
-4.1041e+10
-4.11554e+10
-4.12831e+10
-4.14416e+10
-4.16639e+10
-4.19899e+10
-4.24476e+10
-4.30334e+10
-4.36957e+10
-4.43341e+10
-4.48362e+10
-4.51755e+10
-4.55022e+10
-4.60724e+10
-4.68862e+10
-4.67933e+10
-4.39887e+10
-4.03164e+10
-3.83802e+10
-3.76574e+10
-3.75417e+10
-3.77268e+10
-3.79836e+10
-3.8227e+10
-3.84266e+10
-3.858e+10
-3.8694e+10
-3.87799e+10
-3.88497e+10
-3.8914e+10
-3.89796e+10
-3.90473e+10
-3.911e+10
-3.91506e+10
-3.91383e+10
-3.90371e+10
-3.88522e+10
-3.8726e+10
-3.89725e+10
-3.97757e+10
-4.04542e+10
-3.9197e+10
-3.52709e+10
-3.35807e+10
-4.42973e+10
-6.45475e+10
-4.58814e+10
-4.07626e+10
-4.07676e+10
-4.07841e+10
-4.08153e+10
-4.08655e+10
-4.09377e+10
-4.10329e+10
-4.11512e+10
-4.12937e+10
-4.14653e+10
-4.16778e+10
-4.19487e+10
-4.22953e+10
-4.27248e+10
-4.32244e+10
-4.37543e+10
-4.42489e+10
-4.46332e+10
-4.48634e+10
-4.49683e+10
-4.50427e+10
-4.50067e+10
-4.42561e+10
-4.23349e+10
-4.02133e+10
-3.8963e+10
-3.83777e+10
-3.8169e+10
-3.81907e+10
-3.83169e+10
-3.84747e+10
-3.86248e+10
-3.8752e+10
-3.88552e+10
-3.89401e+10
-3.90153e+10
-3.90888e+10
-3.9165e+10
-3.92425e+10
-3.93123e+10
-3.93545e+10
-3.93356e+10
-3.92152e+10
-3.89925e+10
-3.8802e+10
-3.89478e+10
-3.95986e+10
-4.00594e+10
-3.863e+10
-3.51269e+10
-3.52273e+10
-4.71259e+10
-6.06127e+10
-3.13052e+10
-4.07707e+10
-4.07769e+10
-4.07943e+10
-4.08253e+10
-4.08747e+10
-4.09447e+10
-4.10365e+10
-4.11501e+10
-4.12872e+10
-4.14534e+10
-4.16616e+10
-4.19302e+10
-4.22773e+10
-4.27112e+10
-4.32196e+10
-4.37616e+10
-4.42676e+10
-4.46612e+10
-4.49065e+10
-4.50541e+10
-4.52038e+10
-4.52264e+10
-4.44735e+10
-4.24984e+10
-4.02897e+10
-3.89942e+10
-3.83977e+10
-3.81896e+10
-3.82129e+10
-3.83377e+10
-3.84906e+10
-3.86332e+10
-3.87513e+10
-3.88443e+10
-3.89182e+10
-3.89818e+10
-3.90435e+10
-3.91079e+10
-3.91744e+10
-3.92344e+10
-3.92694e+10
-3.92471e+10
-3.91291e+10
-3.89173e+10
-3.87479e+10
-3.89274e+10
-3.96312e+10
-4.01552e+10
-3.86964e+10
-3.48795e+10
-3.46337e+10
-4.74852e+10
-6.30713e+10
-3.48263e+10
-4.08824e+10
-4.08861e+10
-4.09055e+10
-4.09347e+10
-4.09785e+10
-4.1038e+10
-4.11153e+10
-4.12119e+10
-4.13314e+10
-4.14796e+10
-4.16663e+10
-4.19026e+10
-4.21978e+10
-4.25527e+10
-4.29551e+10
-4.33753e+10
-4.37669e+10
-4.40797e+10
-4.42871e+10
-4.44031e+10
-4.44281e+10
-4.41959e+10
-4.33892e+10
-4.20308e+10
-4.0641e+10
-3.96514e+10
-3.9069e+10
-3.87752e+10
-3.86643e+10
-3.86555e+10
-3.86953e+10
-3.8751e+10
-3.8806e+10
-3.8855e+10
-3.89002e+10
-3.89465e+10
-3.89991e+10
-3.90592e+10
-3.9122e+10
-3.9174e+10
-3.91905e+10
-3.91319e+10
-3.89528e+10
-3.86512e+10
-3.83674e+10
-3.84174e+10
-3.89676e+10
-3.92641e+10
-3.74636e+10
-3.31612e+10
-3.19469e+10
-4.33816e+10
-6.11139e+10
-4.02832e+10
-4.08969e+10
-4.09054e+10
-4.09263e+10
-4.09577e+10
-4.1003e+10
-4.10636e+10
-4.11407e+10
-4.12357e+10
-4.13514e+10
-4.14934e+10
-4.16708e+10
-4.1895e+10
-4.21754e+10
-4.25151e+10
-4.29043e+10
-4.33163e+10
-4.37062e+10
-4.40235e+10
-4.42432e+10
-4.43835e+10
-4.44426e+10
-4.42447e+10
-4.34702e+10
-4.21253e+10
-4.07291e+10
-3.97343e+10
-3.91499e+10
-3.88527e+10
-3.87355e+10
-3.87175e+10
-3.87462e+10
-3.87898e+10
-3.88321e+10
-3.88683e+10
-3.89005e+10
-3.8934e+10
-3.89746e+10
-3.90246e+10
-3.90808e+10
-3.91324e+10
-3.9158e+10
-3.91221e+10
-3.89829e+10
-3.874e+10
-3.8533e+10
-3.86754e+10
-3.93181e+10
-3.96394e+10
-3.77089e+10
-3.35107e+10
-3.41359e+10
-4.88296e+10
-6.31004e+10
-3.12478e+10
-4.10245e+10
-4.10334e+10
-4.10588e+10
-4.10938e+10
-4.11421e+10
-4.12038e+10
-4.12801e+10
-4.1372e+10
-4.14818e+10
-4.16133e+10
-4.17714e+10
-4.1961e+10
-4.21847e+10
-4.24399e+10
-4.27161e+10
-4.29927e+10
-4.32394e+10
-4.34266e+10
-4.35431e+10
-4.35971e+10
-4.35643e+10
-4.33231e+10
-4.27379e+10
-4.18775e+10
-4.09927e+10
-4.02695e+10
-3.97551e+10
-3.94279e+10
-3.92388e+10
-3.91397e+10
-3.90934e+10
-3.90745e+10
-3.90682e+10
-3.90687e+10
-3.90767e+10
-3.90964e+10
-3.91315e+10
-3.91828e+10
-3.9245e+10
-3.93041e+10
-3.93344e+10
-3.9295e+10
-3.91396e+10
-3.88701e+10
-3.86401e+10
-3.87845e+10
-3.94722e+10
-3.98942e+10
-3.8055e+10
-3.32968e+10
-3.106e+10
-4.14956e+10
-5.97362e+10
-3.96694e+10
-4.10211e+10
-4.10336e+10
-4.10573e+10
-4.10928e+10
-4.11418e+10
-4.1205e+10
-4.12833e+10
-4.13775e+10
-4.14893e+10
-4.1622e+10
-4.17796e+10
-4.19662e+10
-4.21838e+10
-4.24294e+10
-4.26934e+10
-4.2956e+10
-4.3189e+10
-4.33647e+10
-4.34729e+10
-4.35217e+10
-4.34877e+10
-4.32549e+10
-4.26947e+10
-4.18665e+10
-4.10061e+10
-4.02959e+10
-3.97846e+10
-3.94533e+10
-3.92561e+10
-3.91469e+10
-3.90897e+10
-3.90596e+10
-3.90418e+10
-3.90304e+10
-3.9026e+10
-3.90327e+10
-3.90548e+10
-3.90938e+10
-3.91459e+10
-3.91998e+10
-3.92336e+10
-3.92102e+10
-3.90871e+10
-3.88671e+10
-3.87027e+10
-3.89257e+10
-3.96764e+10
-4.00442e+10
-3.79661e+10
-3.33878e+10
-3.33486e+10