/*--------------------------------*- C++ -*----------------------------------*\
| =========                 |                                                 |
| \\      /  F ield         | OpenFOAM: The Open Source CFD Toolbox           |
|  \\    /   O peration     | Version:  4.1                                   |
|   \\  /    A nd           | Web:      www.OpenFOAM.org                      |
|    \\/     M anipulation  |                                                 |
\*---------------------------------------------------------------------------*/
FoamFile
{
    version     2.0;
    format      ascii;
    class       surfaceScalarField;
    location    "88";
    object      phi;
}
// * * * * * * * * * * * * * * * * * * * * * * * * * * * * * * * * * * * * * //

dimensions      [0 3 -1 0 0 0 0];

internalField   nonuniform List<scalar> 
11516
(
-3.76927e+10
2.67457e+07
3.84807e+08
-3.8003e+10
-9.64831e+06
3.43874e+08
-3.82982e+10
-8.74226e+06
3.27772e+08
-3.85667e+10
-1.87846e+07
3.11135e+08
-3.88261e+10
-1.87699e+07
3.02276e+08
-3.90779e+10
-2.02863e+07
2.96659e+08
-3.93194e+10
-2.26217e+07
2.89099e+08
-3.95507e+10
-2.43864e+07
2.81068e+08
-3.9769e+10
-2.62729e+07
2.70298e+08
-3.99691e+10
-2.81446e+07
2.5458e+08
-4.01452e+10
-2.99668e+07
2.32807e+08
-4.02926e+10
-3.17134e+07
2.06195e+08
-4.04024e+10
-3.36407e+07
1.7031e+08
-4.04682e+10
-3.54114e+07
1.28643e+08
-4.04788e+10
-3.67219e+07
7.75413e+07
-4.04245e+10
-3.72116e+07
1.7679e+07
-4.03006e+10
-3.6935e+07
-4.70182e+07
-4.01012e+10
-3.83826e+07
-1.18751e+08
-3.98242e+10
-4.24447e+07
-1.91162e+08
-3.94645e+10
-4.80045e+07
-2.66825e+08
-3.90184e+10
-5.34397e+07
-3.42893e+08
-3.84917e+10
-5.8989e+07
-4.13619e+08
-3.789e+10
-6.44016e+07
-4.80793e+08
-3.72288e+10
-6.92368e+07
-5.35036e+08
-3.65177e+10
-7.29836e+07
-5.80747e+08
-3.57727e+10
-7.48844e+07
-6.10837e+08
-3.50032e+10
-7.44167e+07
-6.31679e+08
-3.42254e+10
-7.10492e+07
-6.37536e+08
-3.34501e+10
-6.44563e+07
-6.34633e+08
-3.26907e+10
-5.42743e+07
-6.21141e+08
-3.19592e+10
-4.02572e+07
-5.98627e+08
-3.12635e+10
-2.22614e+07
-5.71641e+08
-3.06136e+10
-192382
-5.37776e+08
-3.0015e+10
2.57793e+07
-5.01387e+08
-2.94719e+10
5.55616e+07
-4.63461e+08
-2.89879e+10
8.93878e+07
-4.24682e+08
-2.85614e+10
1.26677e+08
-3.89386e+08
-2.81921e+10
1.65713e+08
-3.53883e+08
-2.78704e+10
2.03999e+08
-3.24068e+08
-2.7587e+10
2.43027e+08
-2.99884e+08
-2.73358e+10
2.85152e+08
-2.79698e+08
-2.71088e+10
3.30825e+08
-2.64824e+08
-2.68998e+10
3.80979e+08
-2.54234e+08
-2.67175e+10
4.38413e+08
-2.38196e+08
-2.66096e+10
5.07318e+08
-1.92675e+08
-2.66768e+10
5.93541e+08
-9.777e+07
-2.7004e+10
6.97834e+08
-8.57245e+06
-2.75399e+10
7.97107e+08
-4.46732e+07
-2.82571e+10
8.45849e+08
-1.28531e+08
-2.94969e+10
8.40458e+08
3.75822e+08
-3.18363e+10
1.45447e+09
9.16776e+08
-3.47959e+10
2.96829e+09
6.15586e+08
-3.18441e+10
6.28978e+09
-8.9276e+09
4.29991e+09
-1.32867e+10
-4.57336e+10
4.31637e+08
-4.61506e+10
4.21176e+08
-4.65429e+10
3.97401e+08
-4.69349e+10
3.87201e+08
-4.7315e+10
3.7539e+08
-4.76884e+10
3.67414e+08
-4.80544e+10
3.57875e+08
-4.84113e+10
3.47118e+08
-4.87563e+10
3.33437e+08
-4.90842e+10
3.14645e+08
-4.93887e+10
2.89714e+08
-4.96658e+10
2.60421e+08
-4.99058e+10
2.21505e+08
-5.01033e+10
1.77671e+08
-5.02477e+10
1.24862e+08
-5.03296e+10
6.47156e+07
-5.03441e+10
-219034
-5.02879e+10
-7.1062e+07
-5.01659e+10
-1.40645e+08
-4.99753e+10
-2.13218e+08
-4.97144e+10
-2.86963e+08
-4.93898e+10
-3.54375e+08
-4.90054e+10
-4.18858e+08
-4.8575e+10
-4.70095e+08
-4.81049e+10
-5.14059e+08
-4.7608e+10
-5.42324e+08
-4.7089e+10
-5.62667e+08
-4.65594e+10
-5.68009e+08
-4.60229e+10
-5.6566e+08
-4.54863e+10
-5.52968e+08
-4.49543e+10
-5.31212e+08
-4.44267e+10
-5.0556e+08
-4.39067e+10
-4.7226e+08
-4.33924e+10
-4.36618e+08
-4.28817e+10
-3.98635e+08
-4.23727e+10
-3.58036e+08
-4.18588e+10
-3.19643e+08
-4.13381e+10
-2.80209e+08
-4.08053e+10
-2.45043e+08
-4.02557e+10
-2.11683e+08
-3.96822e+10
-1.79425e+08
-3.90754e+10
-1.50133e+08
-3.84259e+10
-1.22277e+08
-3.77299e+10
-9.0209e+07
-3.70017e+10
-3.77069e+07
-3.62843e+10
5.14229e+07
-3.55998e+10
1.44514e+08
-3.49253e+10
1.58817e+08
-3.43109e+10
1.66486e+08
-3.43188e+10
7.59603e+08
-3.48895e+10
2.0522e+09
-3.55229e+10
3.65151e+09
-2.25544e+10
-6.54186e+09
-1.16161e+10
-6.6082e+10
1.38589e+08
3.36006e+08
-6.61648e+10
1.37195e+08
3.04227e+08
-6.62511e+10
1.35774e+08
2.93427e+08
-6.63427e+10
1.36134e+08
2.81823e+08
-6.64341e+10
1.35671e+08
2.73532e+08
-6.65277e+10
1.35761e+08
2.70213e+08
-6.66242e+10
1.35671e+08
2.65819e+08
-6.67233e+10
1.35439e+08
2.60743e+08
-6.68211e+10
1.34834e+08
2.4937e+08
-6.69186e+10
1.33994e+08
2.34395e+08
-6.70138e+10
1.32834e+08
2.11723e+08
-6.71033e+10
1.31435e+08
1.81224e+08
-6.71869e+10
1.29639e+08
1.40821e+08
-6.72609e+10
1.27809e+08
9.23973e+07
-6.73254e+10
1.25855e+08
3.44219e+07
-6.73802e+10
1.24561e+08
-2.95183e+07
-6.74227e+10
1.23179e+08
-1.02504e+08
-6.74536e+10
1.22115e+08
-1.81542e+08
-6.74731e+10
1.20448e+08
-2.64177e+08
-6.74806e+10
1.17853e+08
-3.47771e+08
-6.74774e+10
1.14774e+08
-4.29809e+08
-6.74647e+10
1.12114e+08
-5.05446e+08
-6.74499e+10
1.0966e+08
-5.72147e+08
-6.74351e+10
1.07532e+08
-6.26513e+08
-6.74312e+10
1.05943e+08
-6.62839e+08
-6.74361e+10
1.05227e+08
-6.85995e+08
-6.74572e+10
1.05592e+08
-6.92307e+08
-6.74923e+10
1.07139e+08
-6.86245e+08
-6.75463e+10
1.09973e+08
-6.66903e+08
-6.76177e+10
1.14136e+08
-6.39992e+08
-6.77089e+10
1.19805e+08
-6.02736e+08
-6.78228e+10
1.26964e+08
-5.59941e+08
-6.79598e+10
1.35833e+08
-5.11103e+08
-6.81262e+10
1.46098e+08
-4.55078e+08
-6.83265e+10
1.58198e+08
-3.94243e+08
-6.85703e+10
1.73159e+08
-3.25872e+08
-6.88685e+10
1.91096e+08
-2.51972e+08
-6.92276e+10
2.10148e+08
-1.72638e+08
-6.96588e+10
2.30718e+08
-8.7311e+07
-7.01803e+10
2.54366e+08
8.35959e+06
-7.08083e+10
2.82186e+08
1.1508e+08
-7.15689e+10
3.14654e+08
2.3971e+08
-7.24871e+10
3.5292e+08
3.83279e+08
-7.35922e+10
3.96771e+08
5.57092e+08
-7.49153e+10
4.48241e+08
7.80681e+08
-7.65115e+10
5.12859e+08
1.0714e+09
-7.85229e+10
5.97726e+08
1.42666e+09
-8.11861e+10
6.85718e+08
1.80794e+09
-8.4573e+10
7.27071e+08
2.20491e+09
-8.80827e+10
7.79822e+08
2.58204e+09
-9.27611e+10
1.54103e+09
3.61189e+09
-9.94705e+10
3.01091e+09
3.84742e+09
-1.22129e+11
6.91831e+09
6.86939e+09
3.25098e+09
1.4192e+09
-7.72741e+10
6.39691e+08
-7.73335e+10
6.26875e+08
-7.73989e+10
6.0771e+08
-7.74672e+10
6.00768e+08
-7.75383e+10
5.91544e+08
-7.76115e+10
5.85935e+08
-7.76881e+10
5.79695e+08
-7.77684e+10
5.72513e+08
-7.78487e+10
5.58428e+08
-7.79314e+10
5.4124e+08
-7.80153e+10
5.16662e+08
-7.80979e+10
4.84833e+08
-7.81798e+10
4.43611e+08
-7.8258e+10
3.94539e+08
-7.83298e+10
3.34812e+08
-7.83937e+10
2.67638e+08
-7.84449e+10
1.90805e+08
-7.84835e+10
1.07686e+08
-7.85079e+10
2.28623e+07
-7.85239e+10
-5.99508e+07
-7.8536e+10
-1.39519e+08
-7.8544e+10
-2.12554e+08
-7.85549e+10
-2.76932e+08
-7.85679e+10
-3.29717e+08
-7.85936e+10
-3.64564e+08
-7.86275e+10
-3.87071e+08
-7.86765e+10
-3.92836e+08
-7.87359e+10
-3.86636e+08
-7.88095e+10
-3.67248e+08
-7.88923e+10
-3.4102e+08
-7.89841e+10
-3.0461e+08
-7.90837e+10
-2.63723e+08
-7.91868e+10
-2.18058e+08
-7.92956e+10
-1.66066e+08
-7.94094e+10
-1.10623e+08
-7.95269e+10
-5.07715e+07
-7.9648e+10
9.83514e+06
-7.97739e+10
7.44289e+07
-7.99107e+10
1.42904e+08
-8.00618e+10
2.17125e+08
-8.02274e+10
2.95701e+08
-8.04151e+10
3.85429e+08
-8.06294e+10
4.85375e+08
-8.08811e+10
6.06748e+08
-8.11842e+10
7.64982e+08
-8.15541e+10
9.72314e+08
-8.20484e+10
1.22825e+09
-8.28101e+10
1.51412e+09
-8.39432e+10
1.82141e+09
-8.45781e+10
1.86923e+09
-8.26338e+10
1.35271e+09
-7.67925e+10
7.52313e+08
-8.40397e+10
7.46009e+09
8.66691e+09
-5.64248e+10
3.73012e+07
1.87875e+08
-5.63191e+10
5.1753e+07
1.61343e+08
-5.62312e+10
4.75338e+07
1.7274e+08
-5.61631e+10
5.01559e+07
1.78635e+08
-5.61058e+10
4.89141e+07
1.82717e+08
-5.60553e+10
4.83807e+07
1.87096e+08
-5.60134e+10
4.75845e+07
1.92437e+08
-5.59748e+10
4.63198e+07
1.92228e+08
-5.59428e+10
4.42256e+07
1.89983e+08
-5.5912e+10
4.15106e+07
1.79525e+08
-5.58836e+10
3.79536e+07
1.63761e+08
-5.58554e+10
3.34238e+07
1.38864e+08
-5.58235e+10
2.74411e+07
1.01718e+08
-5.57811e+10
1.96318e+07
5.17703e+07
-5.57217e+10
9.52708e+06
-1.07488e+07
-5.56284e+10
-2.73596e+06
-9.11664e+07
-5.54926e+10
-1.67521e+07
-1.87062e+08
-5.531e+10
-3.12603e+07
-2.93973e+08
-5.50744e+10
-4.46369e+07
-4.1463e+08
-5.47837e+10
-5.51737e+07
-5.40976e+08
-5.44376e+10
-6.34461e+07
-6.67656e+08
-5.40345e+10
-6.98581e+07
-7.91208e+08
-5.35849e+10
-7.4062e+07
-8.99745e+08
-5.31017e+10
-7.59535e+07
-9.89242e+08
-5.25954e+10
-7.49862e+07
-1.0544e+09
-5.20808e+10
-7.07431e+07
-1.09427e+09
-5.15676e+10
-6.31496e+07
-1.10903e+09
-5.10653e+10
-5.24435e+07
-1.10372e+09
-5.05803e+10
-3.90025e+07
-1.0804e+09
-5.01212e+10
-2.32462e+07
-1.04323e+09
-4.96874e+10
-5.54238e+06
-9.9804e+08
-4.92837e+10
1.35956e+07
-9.44378e+08
-4.89061e+10
3.39678e+07
-8.89753e+08
-4.85507e+10
5.61112e+07
-8.3415e+08
-4.82163e+10
8.07708e+07
-7.77042e+08
-4.78917e+10
1.06235e+08
-7.24886e+08
-4.75666e+10
1.30822e+08
-6.76113e+08
-4.72352e+10
1.56222e+08
-6.28605e+08
-4.68931e+10
1.84594e+08
-5.81155e+08
-4.6531e+10
2.15778e+08
-5.34534e+08
-4.61442e+10
2.49874e+08
-4.81933e+08
-4.57203e+10
2.87548e+08
-4.25033e+08
-4.52545e+10
3.30284e+08
-3.55701e+08
-4.47383e+10
3.80663e+08
-2.71431e+08
-4.4167e+10
4.44989e+08
-1.63309e+08
-4.35526e+10
5.35003e+08
-3.11628e+07
-4.29411e+10
6.62317e+08
1.13721e+08
-4.24313e+10
8.05585e+08
2.86776e+08
-4.21112e+10
9.32117e+08
5.02482e+08
-4.20784e+10
1.08991e+09
7.44488e+08
-4.285e+10
2.05501e+09
1.2899e+09
-4.63305e+10
4.49187e+09
2.01305e+09
-4.35165e+10
9.50067e+09
-6.182e+09
4.22685e+09
-1.14877e+10
-6.6267e+10
5.05408e+08
-6.60518e+10
4.72339e+08
-6.58683e+10
4.80994e+08
-6.56912e+10
4.83423e+08
-6.55266e+10
4.85677e+08
-6.53695e+10
4.87293e+08
-6.52214e+10
4.89639e+08
-6.50778e+10
4.86045e+08
-6.49446e+10
4.80608e+08
-6.4817e+10
4.6688e+08
-6.46982e+10
4.48279e+08
-6.45876e+10
4.20964e+08
-6.44847e+10
3.82294e+08
-6.43876e+10
3.32366e+08
-6.42986e+10
2.73021e+08
-6.42118e+10
1.98893e+08
-6.41258e+10
1.12749e+08
-6.40399e+10
1.77658e+07
-6.39429e+10
-8.98428e+07
-6.38251e+10
-2.02858e+08
-6.36813e+10
-3.14729e+08
-6.35083e+10
-4.21589e+08
-6.33135e+10
-5.12227e+08
-6.31043e+10
-5.83333e+08
-6.28846e+10
-6.30367e+08
-6.26627e+10
-6.52984e+08
-6.24413e+10
-6.51854e+08
-6.22225e+10
-6.32596e+08
-6.20057e+10
-5.97594e+08
-6.17931e+10
-5.51195e+08
-6.15777e+10
-4.99684e+08
-6.13597e+10
-4.42165e+08
-6.11312e+10
-3.86846e+08
-6.08818e+10
-3.338e+08
-6.06018e+10
-2.84871e+08
-6.02764e+10
-2.45381e+08
-5.9901e+10
-2.10902e+08
-5.94676e+10
-1.79137e+08
-5.89662e+10
-1.50455e+08
-5.83843e+10
-1.24475e+08
-5.77188e+10
-9.35424e+07
-5.69564e+10
-5.94116e+07
-5.60919e+10
-1.37288e+07
-5.51107e+10
4.61892e+07
-5.39917e+10
1.29055e+08
-5.27084e+10
2.40887e+08
-5.12379e+10
3.82869e+08
-4.9606e+10
5.545e+08
-4.79059e+10
7.82692e+08
-4.67632e+10
1.41264e+09
-4.65523e+10
2.72737e+09
-4.48991e+10
3.00878e+09
-2.29378e+10
-5.4476e+09
-4.69642e+09
-6.46356e+10
-1.27439e+08
3.46087e+08
-6.46835e+10
-1.35928e+08
3.57343e+08
-6.47205e+10
-1.40553e+08
3.6301e+08
-6.47651e+10
-1.43603e+08
3.80143e+08
-6.48162e+10
-1.4826e+08
3.95955e+08
-6.48742e+10
-1.52399e+08
4.12007e+08
-6.49343e+10
-1.5616e+08
4.23905e+08
-6.49997e+10
-1.60035e+08
4.33685e+08
-6.50678e+10
-1.6426e+08
4.3943e+08
-6.51377e+10
-1.687e+08
4.36337e+08
-6.52048e+10
-1.73505e+08
4.24346e+08
-6.52642e+10
-1.7863e+08
3.98884e+08
-6.53132e+10
-1.84046e+08
3.59092e+08
-6.53508e+10
-1.90085e+08
3.0564e+08
-6.53683e+10
-1.96642e+08
2.33552e+08
-6.53651e+10
-2.04179e+08
1.45149e+08
-6.53386e+10
-2.13032e+08
4.20087e+07
-6.52856e+10
-2.24249e+08
-7.47841e+07
-6.52089e+10
-2.38025e+08
-2.01566e+08
-6.5105e+10
-2.53845e+08
-3.36875e+08
-6.49721e+10
-2.70872e+08
-4.71827e+08
-6.48122e+10
-2.88915e+08
-6.00608e+08
-6.46305e+10
-3.08252e+08
-7.10549e+08
-6.44369e+10
-3.2848e+08
-7.93879e+08
-6.42388e+10
-3.48766e+08
-8.47094e+08
-6.40452e+10
-3.68057e+08
-8.66241e+08
-6.38607e+10
-3.85506e+08
-8.55832e+08
-6.36896e+10
-4.00568e+08
-8.2174e+08
-6.35358e+10
-4.13078e+08
-7.67476e+08
-6.33995e+10
-4.22822e+08
-7.01472e+08
-6.32854e+10
-4.29833e+08
-6.25863e+08
-6.31923e+10
-4.33961e+08
-5.4597e+08
-6.31255e+10
-4.3508e+08
-4.63566e+08
-6.30876e+10
-4.32698e+08
-3.81257e+08
-6.30807e+10
-4.27401e+08
-2.99142e+08
-6.31145e+10
-4.19489e+08
-2.14659e+08
-6.31934e+10
-4.08836e+08
-1.32805e+08
-6.33225e+10
-3.95019e+08
-4.97446e+07
-6.35116e+10
-3.77825e+08
3.94289e+07
-6.37719e+10
-3.56411e+08
1.36513e+08
-6.41144e+10
-3.31137e+08
2.47524e+08
-6.45523e+10
-3.01928e+08
3.7563e+08
-6.5099e+10
-2.68904e+08
5.27626e+08
-6.5778e+10
-2.3164e+08
7.14998e+08
-6.66195e+10
-1.89568e+08
9.42328e+08
-6.76887e+10
-1.38736e+08
1.22448e+09
-6.91209e+10
-7.52344e+07
1.59226e+09
-7.10527e+10
-3.84127e+07
2.06998e+09
-7.36695e+10
-3.69266e+07
2.68953e+09
-7.7264e+10
1.13268e+08
3.4048e+09
-8.2885e+10
1.18172e+09
4.55194e+09
-9.19968e+10
2.84141e+09
6.84488e+09
-1.22679e+11
1.08925e+10
1.22072e+10
5.66431e+09
-1.80356e+10
-6.16328e+10
3.92734e+08
-6.16809e+10
3.94055e+08
-6.17367e+10
4.06086e+08
-6.18038e+10
4.16973e+08
-6.18846e+10
4.28802e+08
-6.1979e+10
4.4036e+08
-6.20815e+10
4.4761e+08
-6.21951e+10
4.51988e+08
-6.23175e+10
4.51879e+08
-6.24477e+10
4.42511e+08
-6.25816e+10
4.24115e+08
-6.27144e+10
3.92147e+08
-6.28432e+10
3.45578e+08
-6.29651e+10
2.84713e+08
-6.30693e+10
2.0381e+08
-6.31522e+10
1.05004e+08
-6.32098e+10
-1.04517e+07
-6.3239e+10
-1.4111e+08
-6.32449e+10
-2.83541e+08
-6.32246e+10
-4.3639e+08
-6.31766e+10
-5.9008e+08
-6.31025e+10
-7.38851e+08
-6.30065e+10
-8.70604e+08
-6.28968e+10
-9.77241e+08
-6.27791e+10
-1.05505e+09
-6.26604e+10
-1.0998e+09
-6.25428e+10
-1.11565e+09
-6.24278e+10
-1.10858e+09
-6.23157e+10
-1.08217e+09
-6.22034e+10
-1.0447e+09
-6.2092e+10
-9.98297e+08
-6.19764e+10
-9.48409e+08
-6.18573e+10
-8.97195e+08
-6.17322e+10
-8.47726e+08
-6.16e+10
-8.00874e+08
-6.14681e+10
-7.53669e+08
-6.13348e+10
-7.10543e+08
-6.11993e+10
-6.67911e+08
-6.10638e+10
-6.22222e+08
-6.09293e+10
-5.73359e+08
-6.07941e+10
-5.15986e+08
-6.06596e+10
-4.48346e+08
-6.05241e+10
-3.6522e+08
-6.03929e+10
-2.59438e+08
-6.02676e+10
-1.3238e+08
-6.01581e+10
2.21215e+07
-6.00991e+10
2.19678e+08
-6.01786e+10
4.56193e+08
-6.0438e+10
6.99285e+08
-6.03215e+10
8.963e+08
-5.8708e+10
1.55719e+09
-5.71228e+10
3.43172e+09
-6.25682e+10
1.05356e+10
4.65523e+09
-5.99291e+10
3.59826e+08
-5.55966e+07
-5.98733e+10
3.62671e+08
-4.66723e+07
-5.98418e+10
3.71993e+08
-2.57239e+07
-5.98174e+10
3.79624e+08
-8.32689e+06
-5.98037e+10
3.87765e+08
1.10081e+07
-5.97999e+10
3.96395e+08
2.94252e+07
-5.98049e+10
4.05596e+08
4.22608e+07
-5.98189e+10
4.15253e+08
5.28188e+07
-5.98384e+10
4.25443e+08
5.55237e+07
-5.98632e+10
4.36173e+08
4.89065e+07
-5.98914e+10
4.47329e+08
3.14955e+07
-5.99205e+10
4.58847e+08
-1.68789e+06
-5.99505e+10
4.70653e+08
-4.96188e+07
-5.99737e+10
4.8252e+08
-1.1839e+08
-5.99866e+10
4.94343e+08
-2.08632e+08
-5.99819e+10
5.06052e+08
-3.19879e+08
-5.99501e+10
5.17279e+08
-4.53925e+08
-5.98842e+10
5.27696e+08
-6.08008e+08
-5.97791e+10
5.36979e+08
-7.78438e+08
-5.96303e+10
5.44897e+08
-9.61623e+08
-5.94331e+10
5.52154e+08
-1.14798e+09
-5.91872e+10
5.58896e+08
-1.32716e+09
-5.8901e+10
5.63728e+08
-1.48037e+09
-5.85882e+10
5.66415e+08
-1.59376e+09
-5.82667e+10
5.67231e+08
-1.65905e+09
-5.7949e+10
5.67184e+08
-1.67593e+09
-5.7646e+10
5.67302e+08
-1.65032e+09
-5.73637e+10
5.6832e+08
-1.59384e+09
-5.71044e+10
5.70881e+08
-1.51503e+09
-5.68678e+10
5.75629e+08
-1.42636e+09
-5.66508e+10
5.82938e+08
-1.33356e+09
-5.64492e+10
5.93153e+08
-1.2437e+09
-5.62578e+10
6.06683e+08
-1.16016e+09
-5.60731e+10
6.24115e+08
-1.08423e+09
-5.58898e+10
6.45203e+08
-1.01788e+09
-5.57012e+10
6.69535e+08
-9.58861e+08
-5.55095e+10
6.97669e+08
-9.04355e+08
-5.53133e+10
7.30872e+08
-8.54232e+08
-5.51147e+10
7.69448e+08
-8.00571e+08
-5.49151e+10
8.13776e+08
-7.41025e+08
-5.47154e+10
8.64375e+08
-6.70239e+08
-5.45203e+10
9.22614e+08
-5.80707e+08
-5.43326e+10
9.89896e+08
-4.69628e+08
-5.41577e+10
1.06828e+09
-3.28209e+08
-5.40093e+10
1.16086e+09
-1.5665e+08
-5.39223e+10
1.2731e+09
5.9527e+07
-5.39634e+10
1.41112e+09
3.53452e+08
-5.4179e+10
1.54951e+09
7.33035e+08
-5.45912e+10
1.67983e+09
1.22199e+09
-5.5385e+10
1.82356e+09
1.94965e+09
-5.8335e+10
2.81546e+09
4.22937e+09
-6.48181e+10
4.53213e+09
8.57776e+09
-8.56841e+10
1.15221e+10
2.17786e+10
4.13186e+09
7.63809e+09
-5.6702e+10
7.70537e+08
-5.67433e+10
8.09166e+08
-5.67944e+10
8.40895e+08
-5.68585e+10
8.73189e+08
-5.69346e+10
9.0601e+08
-5.70224e+10
9.38828e+08
-5.712e+10
9.66184e+08
-5.72274e+10
9.912e+08
-5.73408e+10
1.00865e+09
-5.74595e+10
1.01694e+09
-5.75812e+10
1.01444e+09
-5.77028e+10
9.96002e+08
-5.78232e+10
9.62329e+08
-5.7935e+10
9.07195e+08
-5.8035e+10
8.2962e+08
-5.81173e+10
7.29652e+08
-5.81741e+10
6.05266e+08
-5.81994e+10
4.58071e+08
-5.8187e+10
2.90368e+08
-5.81305e+10
1.04666e+08
-5.80205e+10
-9.16923e+07
-5.78522e+10
-2.89177e+08
-5.76323e+10
-4.6606e+08
-5.73758e+10
-6.0688e+08
-5.71023e+10
-7.01458e+08
-5.68277e+10
-7.46979e+08
-5.65665e+10
-7.47378e+08
-5.63279e+10
-7.136e+08
-5.61169e+10
-6.53111e+08
-5.5935e+10
-5.77302e+08
-5.57806e+10
-4.91487e+08
-5.56503e+10
-4.0285e+08
-5.55387e+10
-3.15056e+08
-5.54412e+10
-2.29889e+08
-5.53514e+10
-1.49994e+08
-5.52626e+10
-7.3513e+07
-5.51742e+10
2.57407e+06
-5.508e+10
7.72981e+07
-5.49755e+10
1.57255e+08
-5.48569e+10
2.43771e+08
-5.47185e+10
3.42084e+08
-5.45564e+10
4.5735e+08
-5.43611e+10
5.90261e+08
-5.4119e+10
7.42173e+08
-5.38158e+10
9.06478e+08
-5.3442e+10
1.08896e+09
-5.29899e+10
1.3008e+09
-5.24625e+10
1.51866e+09
-5.17624e+10
1.62139e+09
-5.06076e+10
1.44169e+09
-4.80716e+10
1.75678e+09
-4.47603e+10
4.80413e+09
-3.73031e+10
1.50064e+10
8.77481e+09
-6.06352e+10
4.25706e+08
-4.77969e+08
-6.06424e+10
4.29923e+08
-4.52295e+08
-6.06586e+10
4.37982e+08
-4.29196e+08
-6.06845e+10
4.45467e+08
-4.08246e+08
-6.07195e+10
4.53192e+08
-3.85941e+08
-6.07615e+10
4.6104e+08
-3.66507e+08
-6.08119e+10
4.69016e+08
-3.51252e+08
-6.08692e+10
4.77187e+08
-3.3977e+08
-6.09324e+10
4.85686e+08
-3.37592e+08
-6.10007e+10
4.94665e+08
-3.45525e+08
-6.10695e+10
5.04279e+08
-3.69373e+08
-6.11375e+10
5.14693e+08
-4.10432e+08
-6.11994e+10
5.26042e+08
-4.72458e+08
-6.12499e+10
5.3841e+08
-5.61429e+08
-6.12837e+10
5.51904e+08
-6.77781e+08
-6.12914e+10
5.66675e+08
-8.24421e+08
-6.12668e+10
5.82766e+08
-9.99963e+08
-6.12024e+10
5.99864e+08
-1.20452e+09
-6.10931e+10
6.17763e+08
-1.43266e+09
-6.09337e+10
6.36428e+08
-1.68071e+09
-6.0715e+10
6.56157e+08
-1.94038e+09
-6.04334e+10
6.77135e+08
-2.19823e+09
-6.00946e+10
7.00296e+08
-2.42675e+09
-5.97151e+10
7.25329e+08
-2.60303e+09
-5.93158e+10
7.51954e+08
-2.7123e+09
-5.89135e+10
7.803e+08
-2.75676e+09
-5.85218e+10
8.09863e+08
-2.74442e+09
-5.81489e+10
8.3909e+08
-2.69061e+09
-5.77958e+10
8.67139e+08
-2.6107e+09
-5.74648e+10
8.94059e+08
-2.51655e+09
-5.71525e+10
9.20502e+08
-2.42037e+09
-5.68565e+10
9.46268e+08
-2.3288e+09
-5.65747e+10
9.70935e+08
-2.24409e+09
-5.63026e+10
9.94115e+08
-2.16996e+09
-5.60387e+10
1.01645e+09
-2.10531e+09
-5.57805e+10
1.03831e+09
-2.04978e+09
-5.55262e+10
1.05985e+09
-1.99878e+09
-5.52755e+10
1.08121e+09
-1.95124e+09
-5.50237e+10
1.1034e+09
-1.90292e+09
-5.47705e+10
1.12688e+09
-1.8472e+09
-5.4511e+10
1.15267e+09
-1.78206e+09
-5.424e+10
1.182e+09
-1.70119e+09
-5.39529e+10
1.21707e+09
-1.60323e+09
-5.36449e+10
1.26055e+09
-1.48735e+09
-5.3328e+10
1.31797e+09
-1.35241e+09
-5.30221e+10
1.39994e+09
-1.20045e+09
-5.27345e+10
1.51851e+09
-1.02921e+09
-5.24371e+10
1.6813e+09
-8.63491e+08
-5.19282e+10
1.86221e+09
-7.8602e+08
-5.06086e+10
1.92303e+09
-8.48969e+08
-4.64277e+10
2.01066e+09
-1.15356e+09
-4.17419e+10
3.51027e+09
1.55107e+09
-4.36711e+10
1.13923e+10
1.35882e+10
7.40397e+09
8.19557e+09
-5.92292e+10
1.25928e+09
-5.93272e+10
1.34987e+09
-5.94333e+10
1.3984e+09
-5.95575e+10
1.45711e+09
-5.96977e+10
1.51487e+09
-5.98527e+10
1.57147e+09
-6.00238e+10
1.62425e+09
-6.02097e+10
1.67361e+09
-6.04088e+10
1.71422e+09
-6.06202e+10
1.7454e+09
-6.08385e+10
1.76118e+09
-6.10618e+10
1.7603e+09
-6.12834e+10
1.73856e+09
-6.14966e+10
1.6897e+09
-6.16937e+10
1.61261e+09
-6.18633e+10
1.50384e+09
-6.19971e+10
1.36402e+09
-6.2086e+10
1.19291e+09
-6.21245e+10
9.96298e+08
-6.21092e+10
7.78678e+08
-6.20367e+10
5.4844e+08
-6.19089e+10
3.20563e+08
-6.1735e+10
1.23831e+08
-6.15321e+10
-1.88833e+07
-6.13206e+10
-9.31234e+07
-6.11148e+10
-1.01451e+08
-6.09255e+10
-5.15181e+07
-6.07634e+10
4.39096e+07
-6.06343e+10
1.71421e+08
-6.05405e+10
3.16009e+08
-6.04752e+10
4.63419e+08
-6.04321e+10
6.0698e+08
-6.04082e+10
7.45518e+08
-6.03985e+10
8.75289e+08
-6.04011e+10
9.96999e+08
-6.04105e+10
1.10986e+09
-6.04217e+10
1.2176e+09
-6.04298e+10
1.32007e+09
-6.04242e+10
1.4196e+09
-6.03963e+10
1.52076e+09
-6.03306e+10
1.62396e+09
-6.02095e+10
1.7338e+09
-6.00123e+10
1.84922e+09
-5.97164e+10
1.96774e+09
-5.93095e+10
2.09119e+09
-5.87662e+10
2.21468e+09
-5.8033e+10
2.33197e+09
-5.70238e+10
2.40744e+09
-5.56288e+10
2.29647e+09
-5.40434e+10
2.08796e+09
-5.19932e+10
2.18275e+09
-4.58345e+10
2.81871e+09
-1.74772e+10
-1.44804e+09
-5.98058e+08
-5.99352e+10
-3.44873e+07
-4.82757e+08
-5.98958e+10
-4.22123e+07
-4.31785e+08
-5.98663e+10
-4.66992e+07
-3.93576e+08
-5.98474e+10
-4.82795e+07
-3.59447e+08
-5.98382e+10
-4.9775e+07
-3.24796e+08
-5.98363e+10
-5.085e+07
-2.95763e+08
-5.9843e+10
-5.18334e+07
-2.69662e+08
-5.98573e+10
-5.24793e+07
-2.48796e+08
-5.98795e+10
-5.27646e+07
-2.37307e+08
-5.99048e+10
-5.27043e+07
-2.41021e+08
-5.99361e+10
-5.23818e+07
-2.57943e+08
-5.99675e+10
-5.18146e+07
-2.9759e+08
-5.9994e+10
-5.09763e+07
-3.63219e+08
-6.00119e+10
-4.9986e+07
-4.59644e+08
-6.00136e+10
-4.89029e+07
-5.90872e+08
-5.99909e+10
-4.76466e+07
-7.60196e+08
-5.99328e+10
-4.61505e+07
-9.68665e+08
-5.98336e+10
-4.4566e+07
-1.21225e+09
-5.96858e+10
-4.2766e+07
-1.48778e+09
-5.9483e+10
-4.02892e+07
-1.79005e+09
-5.92132e+10
-3.69045e+07
-2.1168e+09
-5.88701e+10
-3.23524e+07
-2.44827e+09
-5.84576e+10
-2.60802e+07
-2.74783e+09
-5.80024e+10
-1.85528e+07
-2.97051e+09
-5.75341e+10
-1.10965e+07
-3.09652e+09
-5.70814e+10
-4.71275e+06
-3.12748e+09
-5.66589e+10
122312
-3.08477e+09
-5.62717e+10
4.74743e+06
-2.99446e+09
-5.59196e+10
1.0664e+07
-2.87861e+09
-5.55942e+10
1.67536e+07
-2.75651e+09
-5.52889e+10
2.03177e+07
-2.63598e+09
-5.49945e+10
2.0169e+07
-2.52562e+09
-5.47036e+10
1.67289e+07
-2.42584e+09
-5.44113e+10
9.3447e+06
-2.33744e+09
-5.41123e+10
-3.01654e+06
-2.25838e+09
-5.38028e+10
-2.136e+07
-2.18575e+09
-5.34765e+10
-4.66481e+07
-2.11573e+09
-5.31287e+10
-7.97479e+07
-2.04471e+09
-5.27543e+10
-1.20949e+08
-1.96711e+09
-5.23394e+10
-1.70464e+08
-1.88457e+09
-5.18731e+10
-2.28563e+08
-1.78969e+09
-5.1335e+10
-2.95706e+08
-1.68492e+09
-5.0703e+10
-3.70636e+08
-1.57323e+09
-4.99583e+10
-4.50355e+08
-1.46058e+09
-4.90916e+10
-5.28955e+08
-1.35577e+09
-4.80999e+10
-5.92665e+08
-1.27956e+09
-4.69693e+10
-6.16277e+08
-1.27238e+09
-4.56825e+10
-5.57838e+08
-1.38578e+09
-4.41813e+10
-4.3078e+08
-1.68195e+09
-4.24562e+10
-3.52753e+08
-1.91011e+09
-4.09349e+10
-1.1026e+08
-2.10514e+09
-3.57783e+10
4.00994e+08
-3.03577e+09
-1.31513e+10
-1.66655e+08
-8.22288e+09
-1.53316e+08
-4.95859e+09
-5.5977e+10
1.17815e+09
-5.5943e+10
1.28597e+09
-5.59331e+10
1.3548e+09
-5.5936e+10
1.42534e+09
-5.59524e+10
1.49584e+09
-5.5979e+10
1.56223e+09
-5.60176e+10
1.62655e+09
-5.60672e+10
1.68679e+09
-5.61283e+10
1.739e+09
-5.61964e+10
1.77762e+09
-5.62746e+10
1.80439e+09
-5.63579e+10
1.81006e+09
-5.64421e+10
1.79119e+09
-5.65243e+10
1.74256e+09
-5.65979e+10
1.65951e+09
-5.66557e+10
1.53846e+09
-5.66889e+10
1.37773e+09
-5.66927e+10
1.18107e+09
-5.66599e+10
9.51631e+08
-5.65838e+10
6.94631e+08
-5.64506e+10
4.13075e+08
-5.62515e+10
1.26714e+08
-5.59889e+10
-1.24658e+08
-5.56895e+10
-2.94299e+08
-5.53877e+10
-3.60585e+08
-5.51183e+10
-3.26912e+08
-5.48995e+10
-2.18145e+08
-5.47307e+10
-6.45009e+07
-5.46002e+10
1.11048e+08
-5.44914e+10
2.87672e+08
-5.43993e+10
4.59565e+08
-5.4319e+10
6.19156e+08
-5.4246e+10
7.65883e+08
-5.41755e+10
8.9539e+08
-5.41022e+10
1.00678e+09
-5.40234e+10
1.10118e+09
-5.39349e+10
1.18007e+09
-5.38348e+10
1.24531e+09
-5.37215e+10
1.29957e+09
-5.35837e+10
1.33872e+09
-5.34165e+10
1.37e+09
-5.32089e+10
1.3917e+09
-5.29493e+10
1.40128e+09
-5.26274e+10
1.39368e+09
-5.22282e+10
1.36281e+09
-5.17145e+10
1.28562e+09
-5.09779e+10
1.11207e+09
-4.98091e+10
7.62094e+08
-4.80192e+10
1.63866e+08
-4.6018e+10
-1.27143e+08
-4.36411e+10
2.39888e+07
-3.63563e+10
-3.4558e+09
-1.88845e+10
-1.87292e+10
-1.02969e+10
-6.03548e+10
-1.98849e+08
-3.24122e+08
-6.03143e+10
-2.1105e+08
-2.46236e+08
-6.02799e+10
-2.20759e+08
-1.91733e+08
-6.02537e+10
-2.29183e+08
-1.4064e+08
-6.02355e+10
-2.37644e+08
-8.93839e+07
-6.02259e+10
-2.46596e+08
-4.29718e+07
-6.02267e+10
-2.56083e+08
2.54181e+06
-6.02352e+10
-2.66265e+08
4.04198e+07
-6.02529e+10
-2.7723e+08
7.10877e+07
-6.02814e+10
-2.88975e+08
8.86806e+07
-6.03164e+10
-3.01573e+08
8.97352e+07
-6.03567e+10
-3.15073e+08
6.82148e+07
-6.03971e+10
-3.29477e+08
1.70482e+07
-6.04293e+10
-3.44832e+08
-7.17399e+07
-6.04444e+10
-3.61214e+08
-2.03442e+08
-6.04282e+10
-3.78467e+08
-3.86486e+08
-6.03671e+10
-3.96536e+08
-6.21673e+08
-6.02451e+10
-4.15223e+08
-9.07706e+08
-6.00503e+10
-4.34038e+08
-1.23743e+09
-5.97727e+10
-4.52122e+08
-1.60511e+09
-5.93953e+10
-4.67866e+08
-2.01655e+09
-5.88943e+10
-4.80386e+08
-2.45793e+09
-5.82697e+10
-4.88498e+08
-2.87088e+09
-5.75621e+10
-4.90464e+08
-3.17174e+09
-5.68399e+10
-4.86014e+08
-3.31222e+09
-5.61623e+10
-4.78164e+08
-3.30269e+09
-5.55663e+10
-4.70706e+08
-3.18388e+09
-5.50658e+10
-4.66964e+08
-3.00031e+09
-5.46575e+10
-4.68549e+08
-2.78927e+09
-5.43303e+10
-4.74898e+08
-2.5781e+09
-5.407e+10
-4.84282e+08
-2.3798e+09
-5.38662e+10
-4.94555e+08
-2.20108e+09
-5.37099e+10
-5.05665e+08
-2.04144e+09
-5.35939e+10
-5.19648e+08
-1.89729e+09
-5.35135e+10
-5.37302e+08
-1.76361e+09
-5.34684e+10
-5.58186e+08
-1.6326e+09
-5.34581e+10
-5.82131e+08
-1.50151e+09
-5.34865e+10
-6.0865e+08
-1.36133e+09
-5.35559e+10
-6.37455e+08
-1.20854e+09
-5.36747e+10
-6.67769e+08
-1.03776e+09
-5.38451e+10
-6.9925e+08
-8.47464e+08
-5.40739e+10
-7.31808e+08
-6.35116e+08
-5.43743e+10
-7.65275e+08
-4.01257e+08
-5.47672e+10
-7.98984e+08
-1.5531e+08
-5.52904e+10
-8.31524e+08
9.52314e+07
-5.59907e+10
-8.64275e+08
3.23387e+08
-5.68886e+10
-8.97699e+08
4.60467e+08
-5.79096e+10
-9.16802e+08
3.60142e+08
-5.86573e+10
-9.41987e+08
-2.81279e+08
-5.83436e+10
-8.86056e+08
-1.69462e+09
-5.61032e+10
-7.11782e+08
-3.63666e+09
-4.97807e+10
-1.94268e+09
-7.24592e+09
-3.07512e+10
-8.35047e+09
-1.86119e+10
-4.06528e+09
-8.87087e+09
-5.89927e+10
9.68581e+08
-5.89949e+10
1.08735e+09
-5.90059e+10
1.15537e+09
-5.90327e+10
1.23349e+09
-5.90735e+10
1.30941e+09
-5.91295e+10
1.38196e+09
-5.92028e+10
1.45362e+09
-5.92911e+10
1.51811e+09
-5.93964e+10
1.57553e+09
-5.95195e+10
1.61946e+09
-5.96557e+10
1.64607e+09
-5.98029e+10
1.64895e+09
-5.99548e+10
1.62064e+09
-6.01022e+10
1.55259e+09
-6.02346e+10
1.43871e+09
-6.03369e+10
1.27065e+09
-6.03943e+10
1.04689e+09
-6.03897e+10
7.69274e+08
-6.03118e+10
4.46684e+08
-6.01502e+10
8.73102e+07
-5.98876e+10
-3.11425e+08
-5.94974e+10
-7.37796e+08
-5.89745e+10
-1.12889e+09
-5.83525e+10
-1.39705e+09
-5.76937e+10
-1.49198e+09
-5.70563e+10
-1.42625e+09
-5.64827e+10
-1.24456e+09
-5.6e+10
-9.95678e+08
-5.56192e+10
-7.19148e+08
-5.53393e+10
-4.47496e+08
-5.51468e+10
-1.97149e+08
-5.50248e+10
2.32105e+07
-5.49564e+10
2.12941e+08
-5.49329e+10
3.73668e+08
-5.49517e+10
5.10531e+08
-5.50152e+10
6.29697e+08
-5.51253e+10
7.32675e+08
-5.52892e+10
8.27502e+08
-5.55122e+10
9.15731e+08
-5.58071e+10
1.00211e+09
-5.61811e+10
1.08932e+09
-5.66485e+10
1.18236e+09
-5.72329e+10
1.28456e+09
-5.79645e+10
1.39023e+09
-5.88874e+10
1.49761e+09
-6.00636e+10
1.59256e+09
-6.15557e+10
1.62431e+09
-6.33317e+10
1.45477e+09
-6.51683e+10
8.20014e+08
-6.56318e+10
-7.76963e+08
-6.18987e+10
-4.43058e+09
-5.59081e+10
-1.12657e+10
-5.71679e+10
-2.58178e+10
-9.93249e+09
-6.2735e+10
-1.37498e+08
-1.70086e+08
-6.27372e+10
-1.53972e+08
-8.06299e+07
-6.27353e+10
-1.75664e+08
-8.60183e+06
-6.274e+10
-1.89032e+08
6.2349e+07
-6.27506e+10
-2.04867e+08
1.35208e+08
-6.27704e+10
-2.20427e+08
2.05812e+08
-6.2801e+10
-2.36788e+08
2.77834e+08
-6.28455e+10
-2.53565e+08
3.4536e+08
-6.29043e+10
-2.70768e+08
4.06307e+08
-6.29801e+10
-2.88489e+08
4.57566e+08
-6.30732e+10
-3.06704e+08
4.93183e+08
-6.31786e+10
-3.25268e+08
5.02332e+08
-6.32924e+10
-3.44147e+08
4.7915e+08
-6.34081e+10
-3.63429e+08
4.12633e+08
-6.35118e+10
-3.83338e+08
2.8966e+08
-6.35902e+10
-4.04222e+08
1.02145e+08
-6.36241e+10
-4.26523e+08
-1.5665e+08
-6.35972e+10
-4.50818e+08
-4.82515e+08
-6.34964e+10
-4.7711e+08
-8.62413e+08
-6.33099e+10
-5.06247e+08
-1.2918e+09
-6.30138e+10
-5.38627e+08
-1.78297e+09
-6.25623e+10
-5.74305e+08
-2.3468e+09
-6.19224e+10
-6.11937e+08
-2.90998e+09
-6.11372e+10
-6.46863e+08
-3.31527e+09
-6.03152e+10
-6.72936e+08
-3.45939e+09
-5.95465e+10
-6.85895e+08
-3.37873e+09
-5.88747e+10
-6.8423e+08
-3.16368e+09
-5.83167e+10
-6.69417e+08
-2.88278e+09
-5.78672e+10
-6.45271e+08
-2.58999e+09
-5.75136e+10
-6.15318e+08
-2.31561e+09
-5.7239e+10
-5.8268e+08
-2.0734e+09
-5.70296e+10
-5.50764e+08
-1.86388e+09
-5.6871e+10
-5.2155e+08
-1.68515e+09
-5.67522e+10
-4.93674e+08
-1.53163e+09
-5.66679e+10
-4.66026e+08
-1.39343e+09
-5.66092e+10
-4.38564e+08
-1.26654e+09
-5.6573e+10
-4.11375e+08
-1.14193e+09
-5.65515e+10
-3.84572e+08
-1.01516e+09
-5.65446e+10
-3.57827e+08
-8.74983e+08
-5.65498e+10
-3.30548e+08
-7.18275e+08
-5.65666e+10
-3.03521e+08
-5.40251e+08
-5.65974e+10
-2.77508e+08
-3.35714e+08
-5.66526e+10
-2.52862e+08
-1.0175e+08
-5.67569e+10
-2.30153e+08
1.55447e+08
-5.6953e+10
-2.11128e+08
4.3397e+08
-5.73004e+10
-2.00983e+08
7.15494e+08
-5.78871e+10
-2.02046e+08
9.61003e+08
-5.88377e+10
-2.10069e+08
1.0664e+09
-6.03714e+10
-2.17426e+08
8.11116e+08
-6.2352e+10
-3.39098e+08
-1.71009e+08
-6.37312e+10
-8.44709e+08
-2.42913e+09
-6.25669e+10
-2.08481e+09
-7.17317e+09
-5.55424e+10
-7.443e+09
-1.89584e+10
-5.077e+08
-1.27792e+10
-5.79357e+10
7.8639e+08
-5.78886e+10
8.90282e+08
-5.78591e+10
9.542e+08
-5.78366e+10
1.02581e+09
-5.78244e+10