/*--------------------------------*- C++ -*----------------------------------*\
| =========                 |                                                 |
| \\      /  F ield         | OpenFOAM: The Open Source CFD Toolbox           |
|  \\    /   O peration     | Version:  4.1                                   |
|   \\  /    A nd           | Web:      www.OpenFOAM.org                      |
|    \\/     M anipulation  |                                                 |
\*---------------------------------------------------------------------------*/
FoamFile
{
    version     2.0;
    format      ascii;
    class       volVectorField;
    location    "88";
    object      U;
}
// * * * * * * * * * * * * * * * * * * * * * * * * * * * * * * * * * * * * * //

dimensions      [0 1 -1 0 0 0 0];

internalField   nonuniform List<vector> 
4432
(
(-149373 -3692.79 -747.297)
(-151729 -3865.17 -924.334)
(-152606 -3802.04 -920.43)
(-153735 -3855.3 -1018.94)
(-154780 -3866.6 -1084.87)
(-155825 -3875.08 -1128.81)
(-156807 -3887.09 -1193.86)
(-157756 -3894.64 -1266.31)
(-158655 -3899.52 -1356.49)
(-159494 -3902.78 -1469.57)
(-160252 -3905.41 -1609.27)
(-160905 -3907.46 -1780.46)
(-161427 -3909.36 -1985.97)
(-161786 -3910.95 -2224.47)
(-161948 -3912 -2489.9)
(-161866 -3911.63 -2778.13)
(-161509 -3911.75 -3081.6)
(-160863 -3922.03 -3400.51)
(-159909 -3945.1 -3726.67)
(-158631 -3977.34 -4055.08)
(-157011 -4014.61 -4375.19)
(-155053 -4057.73 -4677.46)
(-152783 -4105.66 -4949.08)
(-150242 -4156.96 -5180.02)
(-147486 -4209.19 -5362.23)
(-144563 -4260.21 -5492.8)
(-141530 -4307.48 -5570.32)
(-138431 -4349.25 -5596.59)
(-135326 -4383.45 -5574.29)
(-132257 -4408.9 -5507.92)
(-129271 -4424.49 -5402.9)
(-126411 -4429.38 -5264.83)
(-123706 -4422.96 -5101.32)
(-121194 -4404.79 -4918.92)
(-118897 -4374.79 -4727.32)
(-116835 -4331.2 -4535.65)
(-115019 -4272.71 -4347.58)
(-113450 -4201.53 -4157.12)
(-112122 -4123.55 -3964.25)
(-110963 -4036.14 -3781.17)
(-109958 -3929.39 -3597.59)
(-109024 -3800.32 -3404.15)
(-108000 -3646.44 -3182.99)
(-106785 -3462.78 -2889.11)
(-105804 -3245.57 -2445.59)
(-106308 -2998.84 -1788.79)
(-109162 -2753.99 -1008.41)
(-111795 -2514.17 -112.157)
(-108669 -1894.9 1771.54)
(-103157 157.478 7490.17)
(-117275 6119.88 13551.2)
(-160222 11944 17444.9)
(-184323 20970.2 -2286.12)
(-48321.7 9999.16 -8948.1)
(-181513 3867.42 -5.7336)
(-184008 3789.37 -74.7146)
(-185367 3852.76 -159.608)
(-186985 3828.52 -209.41)
(-188490 3830.98 -270.274)
(-190018 3833.32 -314.126)
(-191498 3829.63 -372.843)
(-192945 3827.03 -440.294)
(-194349 3823.89 -525.558)
(-195697 3819.23 -631.476)
(-196968 3812.1 -761.685)
(-198136 3802.34 -919.835)
(-199177 3789.46 -1107.7)
(-200059 3773.66 -1323.25)
(-200750 3755.17 -1562.91)
(-201207 3734.59 -1822.79)
(-201401 3711.58 -2096.83)
(-201308 3681.76 -2374.18)
(-200942 3646.44 -2651.16)
(-200310 3610.9 -2927.92)
(-199397 3578.57 -3195.65)
(-198212 3549.27 -3442.96)
(-196782 3523.76 -3660.78)
(-195139 3503.08 -3841.39)
(-193330 3487.91 -3979.28)
(-191389 3479.72 -4072.93)
(-189357 3478.9 -4122.52)
(-187263 3486.08 -4130.7)
(-185137 3500.59 -4100.79)
(-182998 3522.11 -4037.05)
(-180865 3549.52 -3943.91)
(-178749 3581.58 -3825.76)
(-176652 3617.03 -3686.8)
(-174580 3653.7 -3532.29)
(-172527 3690.21 -3366.41)
(-170489 3726.31 -3189.38)
(-168453 3759.84 -3000.51)
(-166401 3786.71 -2801.12)
(-164324 3804.54 -2588.25)
(-162201 3818.41 -2355.69)
(-160004 3831.08 -2095.46)
(-157662 3840.98 -1799.49)
(-155046 3845.55 -1451.83)
(-152052 3844.34 -1025.26)
(-148920 3837.74 -475.158)
(-146486 3816.75 241.554)
(-145367 3756.1 1086.62)
(-143630 3659.02 2058.11)
(-136837 3761.62 3636.76)
(-126108 4730.24 7151.3)
(-131636 7935.89 9897.1)
(-159864 9220 10974.9)
(-188771 6940.89 5910.88)
(18013.1 8435.55 -23053.8)
(-264058 -1191.99 3826.42)
(-264505 -1176.41 3614.48)
(-264830 -1177.45 3615.18)
(-265202 -1155.97 3572.52)
(-265541 -1141.85 3552.11)
(-265920 -1128.1 3560.34)
(-266305 -1116.06 3567.1)
(-266693 -1104.8 3571.69)
(-267086 -1095.86 3565.1)
(-267478 -1089.13 3542.88)
(-267864 -1086.12 3500.68)
(-268236 -1087.09 3434.41)
(-268584 -1092.32 3342.61)
(-268897 -1101.54 3225.36)
(-269167 -1115.89 3083.6)
(-269397 -1134.35 2920.54)
(-269587 -1157.48 2741.28)
(-269726 -1182.27 2553.94)
(-269816 -1210.59 2364.6)
(-269860 -1241.74 2182.43)
(-269856 -1273.77 2017.41)
(-269810 -1304.7 1881.29)
(-269741 -1335.16 1788.38)
(-269671 -1364.91 1749.94)
(-269631 -1393.47 1772.95)
(-269631 -1420.43 1857.52)
(-269692 -1445.24 2001.12)
(-269813 -1467.84 2196.96)
(-270005 -1487.79 2438.16)
(-270265 -1505.02 2715.83)
(-270601 -1518.93 3022.53)
(-271016 -1529.35 3350.96)
(-271518 -1535.35 3695.94)
(-272123 -1537.3 4054.83)
(-272849 -1533.3 4425.79)
(-273728 -1519.14 4809.67)
(-274808 -1494.4 5208.48)
(-276130 -1464.7 5620.06)
(-277708 -1429.82 6045.57)
(-279621 -1382.75 6498.75)
(-281932 -1320.13 6992.38)
(-284701 -1240.78 7538.42)
(-287944 -1142.22 8154.79)
(-291723 -1023.96 8879.22)
(-296348 -882.581 9760.46)
(-302580 -711.569 10783)
(-311028 -495.435 11784.6)
(-320811 -191.808 12644.8)
(-328835 318.151 13970.4)
(-337169 1282.9 16373.6)
(-352618 3144.59 18395.7)
(-421258 4671.37 13476)
(-462680 6572.04 -5194.38)
(-488016 19712.2 -35367.8)
(-308880 2322.72 3524.68)
(-309236 2285.47 3424.16)
(-309461 2257.92 3334.57)
(-309737 2245.98 3305.15)
(-310001 2230.2 3265.06)
(-310297 2214.28 3245)
(-310600 2197.55 3222.97)
(-310909 2180.93 3195.09)
(-311228 2163.37 3152.52)
(-311555 2145.39 3092.24)
(-311889 2126.4 3010.16)
(-312223 2106.88 2902.32)
(-312552 2087.18 2766.34)
(-312868 2068.45 2602)
(-313164 2050.2 2410.76)
(-313429 2033.42 2194.18)
(-313651 2016.77 1955.33)
(-313827 2000.52 1701.54)
(-313939 1981.37 1444.43)
(-313997 1958.04 1193.89)
(-314042 1932.24 956.119)
(-314068 1906.19 741.579)
(-314092 1879.66 564.486)
(-314130 1853.41 435.582)
(-314206 1828.26 362.337)
(-314326 1805.35 346.539)
(-314502 1785.41 386.913)
(-314731 1769.11 478.665)
(-315013 1756.83 616.641)
(-315339 1748.88 794.291)
(-315705 1745.5 1005.93)
(-316098 1746.68 1245.75)
(-316511 1752.8 1509.47)
(-316937 1762.89 1795.65)
(-317384 1777.32 2103.68)
(-317855 1798.58 2428.52)
(-318337 1827.14 2765.59)
(-318834 1858.71 3115.53)
(-319369 1894 3480.58)
(-319962 1934.92 3863.34)
(-320619 1982.57 4268.52)
(-321333 2035.75 4701.68)
(-322060 2092.9 5175.93)
(-322775 2146.38 5724.23)
(-323707 2187.87 6393.96)
(-325427 2206.91 7197.23)
(-328309 2194.17 8069.26)
(-331269 2124.12 9038.87)
(-331275 2038.8 10660.1)
(-329545 2093.02 13149.6)
(-331723 2370.29 15119.7)
(-361475 -3518.87 17601)
(-339815 3788.88 -1659.23)
(-320021 -3655.96 -637.521)
(-226145 -2685.07 -1085.82)
(-225353 -2684.77 -1261.84)
(-225097 -2754.23 -1317.25)
(-224781 -2772.1 -1346.18)
(-224530 -2801.06 -1380.62)
(-224312 -2833.3 -1413.34)
(-224130 -2868.32 -1443.63)
(-223972 -2904.93 -1485.36)
(-223830 -2945.91 -1546.09)
(-223704 -2990.78 -1631.51)
(-223587 -3040.79 -1749.44)
(-223475 -3096.35 -1905.76)
(-223357 -3158.85 -2106.46)
(-223214 -3228.15 -2356.32)
(-223020 -3303.18 -2659.25)
(-222719 -3382.88 -3016.06)
(-222264 -3465.16 -3428.14)
(-221624 -3546.6 -3888.74)
(-220781 -3623.99 -4388.17)
(-219720 -3694.18 -4909.95)
(-218432 -3757.8 -5438.93)
(-216918 -3813.7 -5953.38)
(-215197 -3859.44 -6428.81)
(-213313 -3893.79 -6843.53)
(-211322 -3915.04 -7182.82)
(-209274 -3922.07 -7441.92)
(-207217 -3914.83 -7622.24)
(-205189 -3894.31 -7732.08)
(-203224 -3861.56 -7780.32)
(-201345 -3817.4 -7778.73)
(-199570 -3762.47 -7736.89)
(-197901 -3698.32 -7664.66)
(-196341 -3626.48 -7567.58)
(-194877 -3546.41 -7450.22)
(-193499 -3458.19 -7316.32)
(-192193 -3371 -7169.03)
(-190912 -3292.09 -7009.26)
(-189615 -3218.27 -6838.65)
(-188292 -3144.81 -6648.09)
(-186929 -3072.14 -6428.88)
(-185486 -2999.51 -6170.61)
(-183895 -2926.46 -5863.64)
(-182004 -2850.77 -5489.24)
(-179692 -2766.09 -5010.07)
(-177208 -2658.87 -4374.33)
(-175461 -2498.12 -3584.04)
(-175118 -2214.86 -2738.28)
(-173856 -1677.98 -1957.27)
(-166543 -459.515 -1313.11)
(-155309 2038.86 -587.652)
(-162070 7649.37 3523.55)
(-207165 13308.8 7408.99)
(-236234 25324.3 -1192.02)
(-90213.7 10852.1 -1896.35)
(-265725 2982.55 1571.76)
(-264502 3067.04 1443.97)
(-263856 3053.68 1399.68)
(-263097 3091.63 1378.51)
(-262428 3118.74 1351.63)
(-261784 3142.84 1324.52)
(-261173 3164.37 1300.3)
(-260590 3184.11 1264.98)
(-260036 3199.42 1212.1)
(-259512 3210.07 1136.24)
(-259019 3214.51 1030.94)
(-258558 3211.52 890.798)
(-258128 3199.02 710.851)
(-257728 3176.06 486.609)
(-257352 3142.73 216.472)
(-256995 3099.46 -98.3297)
(-256645 3047.96 -454.403)
(-256295 2992.95 -845.392)
(-255929 2939.38 -1259.84)
(-255503 2890.93 -1682.07)
(-254962 2847.36 -2098.96)
(-254314 2809.16 -2491.34)
(-253565 2778.4 -2836.9)
(-252744 2755.93 -3117.08)
(-251880 2743.07 -3319.47)
(-250999 2740.8 -3440.93)
(-250118 2749.15 -3484.41)
(-249249 2767.53 -3459.26)
(-248395 2795.11 -3375.94)
(-247553 2830.85 -3246.66)
(-246714 2873.63 -3082.3)
(-245860 2921.99 -2893.47)
(-244973 2974.74 -2688.53)
(-244031 3032.52 -2474.06)
(-242989 3094.93 -2261.33)
(-241783 3157.29 -2057.75)
(-240394 3213.97 -1861.74)
(-238800 3266.79 -1669.15)
(-236957 3317.49 -1479.28)
(-234825 3362.8 -1288.43)
(-232374 3399.7 -1088.87)
(-229541 3425.81 -873.615)
(-226203 3438.51 -632.484)
(-222259 3434.66 -335.93)
(-217855 3419.14 46.2178)
(-213597 3407.16 503.576)
(-209801 3431.21 973.289)
(-204373 3557.83 1389.96)
(-193254 4049.08 1933.9)
(-177758 5199.77 3025.45)
(-179762 6986.08 5372.15)
(-205088 6784.05 4876.17)
(-204529 8485.16 4693.53)
(19680.6 8723.51 -2932.25)
(-258422 -3524.55 2481.46)
(-258689 -3566.26 2553.5)
(-258784 -3588.4 2584.11)
(-258963 -3601.83 2651.97)
(-259157 -3616.52 2713.29)
(-259374 -3633.16 2768.87)
(-259610 -3649.7 2817.12)
(-259866 -3667.65 2853.55)
(-260134 -3688.61 2871.76)
(-260409 -3712.69 2864.11)
(-260681 -3740.9 2821.8)
(-260938 -3773.27 2737.86)
(-261161 -3810.13 2603.47)
(-261335 -3852.96 2412.14)
(-261441 -3902.62 2160.77)
(-261469 -3960.83 1849.77)
(-261398 -4028.83 1482.37)
(-261226 -4109.35 1068.27)
(-260954 -4201.97 620.021)
(-260576 -4305.07 153.21)
(-260085 -4416.52 -309.916)
(-259479 -4534.54 -740.562)
(-258776 -4657.7 -1106.2)
(-258009 -4783.32 -1379.36)
(-257218 -4907.73 -1542.91)
(-256437 -5027.11 -1593.04)
(-255690 -5138.36 -1537.01)
(-254994 -5239.62 -1389.35)
(-254360 -5330.22 -1166.8)
(-253797 -5409.55 -886.046)
(-253311 -5477.84 -561.149)
(-252906 -5535.78 -204.199)
(-252591 -5585.15 176.925)
(-252378 -5627.11 575.944)
(-252282 -5664.48 989.64)
(-252331 -5700.61 1414.2)
(-252553 -5738.09 1847.1)
(-252972 -5779.29 2292.94)
(-253619 -5827.23 2762.51)
(-254538 -5882.94 3266)
(-255776 -5949.53 3817.11)
(-257344 -6030.48 4434.46)
(-259199 -6131.1 5141.99)
(-261328 -6259.3 5975.7)
(-264045 -6430.77 6994.31)
(-268284 -6662.47 8288.57)
(-274897 -6946.39 9962)
(-282650 -7263.91 12079.5)
(-287187 -7383.71 14486.9)
(-290563 -7222.98 17088)
(-311403 -7735.46 22366.5)
(-383716 -10820.7 33615.7)
(-423325 7359.29 26482.7)
(-483252 33042.7 -119131)
(-246465 2552.53 2429.84)
(-246630 2520.79 2411.26)
(-246823 2505.73 2476.34)
(-247055 2501.84 2520.32)
(-247365 2496.69 2569.62)
(-247716 2490.34 2612.49)
(-248108 2484.68 2647.57)
(-248544 2478.24 2667.82)
(-249018 2469.42 2669.47)
(-249522 2458.26 2644.42)
(-250049 2443.86 2584.75)
(-250586 2426.42 2484.13)
(-251116 2405.96 2336.14)
(-251620 2381.43 2134.25)
(-252073 2352.47 1874.18)
(-252448 2318.25 1554.79)
(-252720 2277.86 1178.33)
(-252878 2229.22 751.532)
(-252933 2170.97 288.219)
(-252888 2104.03 -195.636)
(-252735 2029.98 -673.527)
(-252472 1949.6 -1115.04)
(-252113 1863.36 -1490.65)
(-251686 1772.92 -1774.21)
(-251225 1680.93 -1951.03)
(-250757 1590.52 -2019.8)
(-250296 1504.45 -1990.54)
(-249849 1424.55 -1881.23)
(-249414 1351.84 -1711.85)
(-248986 1287.62 -1501.88)
(-248555 1232.36 -1268.03)
(-248114 1186.34 -1024.74)
(-247654 1148.85 -782.233)
(-247168 1119.65 -549.117)
(-246646 1094.72 -336.811)
(-246119 1068.65 -142.642)
(-245591 1038.76 38.9429)
(-245062 1002.81 213.495)
(-244539 958.281 390.879)
(-244031 903.767 584.184)
(-243533 834.988 807.669)
(-243012 748.654 1082.45)
(-242374 640.567 1437.91)
(-241547 503.592 1914.07)
(-240762 323.933 2563.27)
(-240792 86.3565 3460.63)
(-242184 -206.204 4682.14)
(-242994 -550.366 6158.34)
(-238825 -701.859 7483.61)
(-231174 -892.241 9047.62)
(-235454 -1575.89 11656)
(-266004 -8325.45 16217.7)
(-277990 7067.19 9888.82)
(-196423 -8860.84 -3635.36)
(-239899 -1296.46 536.836)
(-239552 -1286.89 554.246)
(-239434 -1261.29 621.989)
(-239298 -1236.98 686.369)
(-239232 -1212.54 759.499)
(-239199 -1189.32 831.672)
(-239203 -1167.03 894.341)
(-239238 -1146.73 940.481)
(-239304 -1128.18 963.351)
(-239394 -1111.35 952.332)
(-239503 -1097 896.349)
(-239622 -1085.48 787.738)
(-239741 -1076.87 618.873)
(-239846 -1071.87 381.386)
(-239920 -1071.11 69.1347)
(-239932 -1074.64 -320.856)
(-239857 -1083.4 -787.517)
(-239656 -1097.8 -1324.73)
(-239305 -1119.53 -1920.55)
(-238782 -1149.73 -2557.6)
(-238068 -1188.62 -3207.95)
(-237153 -1237.19 -3829.46)
(-236058 -1298.76 -4372.77)
(-234836 -1373.74 -4794.26)
(-233553 -1460.9 -5070.61)
(-232274 -1556.86 -5202.17)
(-231044 -1657.49 -5208.12)
(-229894 -1759.23 -5118.46)
(-228835 -1858.64 -4965.62)
(-227867 -1952.14 -4777.78)
(-226980 -2037.38 -4576.66)
(-226159 -2113.18 -4378.5)
(-225384 -2179.03 -4194.89)
(-224638 -2234.25 -4032.4)
(-223907 -2280.25 -3891.76)
(-223169 -2318.65 -3772.46)
(-222412 -2347.68 -3677.99)
(-221641 -2363.44 -3603.88)
(-220866 -2364.52 -3538.74)
(-220100 -2348.72 -3471.73)
(-219349 -2311.03 -3396.84)
(-218588 -2243.39 -3301.28)
(-217724 -2137.57 -3171)
(-216678 -1982.55 -2995.14)
(-215698 -1766.94 -2763.5)
(-215631 -1480.22 -2426.39)
(-217249 -1086.56 -1853.48)
(-218961 -540.812 -1073.13)
(-216088 271.811 -28.4953)
(-208890 844.386 1151.13)
(-217400 1797.02 4988.33)
(-278323 2690.61 16732.4)
(-353792 17873.9 59454.2)
(-336337 15625.4 15592.6)
(-226734 4205.5 941.694)
(-226892 4228.52 965.024)
(-227064 4279.21 1028.84)
(-227283 4329.74 1072.13)
(-227574 4385.09 1121.85)
(-227904 4443.27 1168.53)
(-228277 4504.89 1201.52)
(-228685 4569.08 1213.23)
(-229125 4636.28 1198.41)
(-229591 4706.69 1146.74)
(-230076 4779.7 1048.59)
(-230568 4854.99 895.264)
(-231053 4932.58 678.035)
(-231517 5011.85 388.188)
(-231940 5091.85 18.1767)
(-232301 5171.72 -435.777)
(-232574 5250.43 -973.417)
(-232735 5326.59 -1590.07)
(-232752 5399.95 -2280.22)
(-232600 5469.44 -3029.51)
(-232255 5535.7 -3811.04)
(-231673 5598.37 -4587.82)
(-230865 5654.83 -5306.82)
(-229886 5705.28 -5918.89)
(-228808 5750.89 -6395.06)
(-227708 5794.3 -6729.05)
(-226644 5838.14 -6934.8)
(-225662 5883.96 -7040.61)
(-224784 5933.02 -7077.49)
(-224020 5986.73 -7070.36)
(-223366 6045.42 -7037.65)
(-222812 6108.87 -6994.79)
(-222340 6176.39 -6954.44)
(-221929 6247.71 -6925.79)
(-221559 6319.84 -6909.44)
(-221208 6389.32 -6904.03)
(-220862 6457.17 -6909.76)
(-220508 6527.05 -6921.19)
(-220132 6601.01 -6929.18)
(-219721 6681.22 -6923.28)
(-219263 6769.11 -6890.38)
(-218699 6868.03 -6815.83)
(-217895 6982.45 -6682.28)
(-216722 7113.23 -6488.3)
(-215342 7252.05 -6237.41)
(-214474 7385.04 -5890.98)
(-214594 7511.11 -5366.98)
(-213503 7613.49 -4801.15)
(-206819 7748.05 -4599.4)
(-194461 7279.58 -5306.25)
(-195189 6066.3 -2635.89)
(-210425 -942.757 9874.46)
(-206696 7509.54 57776.3)
(-91789.6 5919.03 32673.7)
(-242544 -2126.91 -1163.87)
(-242545 -2131.22 -1088.53)
(-242597 -2110.85 -997.357)
(-242673 -2096.86 -928.001)
(-242796 -2082.39 -862.552)
(-242953 -2067.31 -813.755)
(-243142 -2051.19 -786.666)
(-243357 -2035.47 -788.273)
(-243597 -2020.04 -826.044)
(-243861 -2003.33 -910.511)
(-244137 -1983.61 -1052.86)
(-244413 -1960.22 -1264.13)
(-244675 -1932.23 -1554.95)
(-244903 -1898.87 -1934.95)
(-245073 -1859.28 -2410.92)
(-245154 -1812.77 -2985.22)
(-245113 -1758.27 -3654.71)
(-244924 -1695.46 -4408.41)
(-244564 -1623.69 -5229.83)
(-244010 -1542.83 -6096.05)
(-243226 -1452.46 -6973.84)
(-242188 -1353.01 -7808.08)
(-240905 -1244.79 -8524.62)
(-239436 -1131.88 -9052.89)
(-237862 -1019.15 -9356.27)
(-236262 -910.546 -9438.78)
(-234693 -810.451 -9335.86)
(-233191 -724.979 -9099.29)
(-231771 -658.407 -8783.6)
(-230433 -611.089 -8437.95)
(-229170 -581.217 -8101.1)
(-227973 -568.405 -7798.96)
(-226828 -572.846 -7546.45)
(-225725 -594.331 -7350.44)
(-224654 -628.97 -7210.75)
(-223610 -672.031 -7119.69)
(-222590 -720.085 -7065)
(-221589 -769.02 -7028.86)
(-220604 -810.977 -6987.26)
(-219630 -840.707 -6916.62)
(-218656 -854.252 -6789.75)
(-217631 -846.787 -6571.54)
(-216434 -812.355 -6229.09)
(-214957 -743.814 -5737.46)
(-213392 -627.495 -5076.96)
(-212480 -433.445 -4197.5)
(-212838 -112.561 -3018.28)
(-212697 436.665 -1579.8)
(-207725 1364.84 -56.2238)
(-195883 2637.35 1534.21)
(-192678 5525.99 5516.77)
(-197605 10326.8 12485.3)
(-215035 34105.6 64156.3)
(-133265 21489.4 30991.1)
(-236686 5542.01 4996.34)
(-237133 5604.89 5310.12)
(-237501 5651.77 5483.41)
(-237963 5704.52 5684.33)
(-238492 5756.17 5873.65)
(-239084 5810.26 6057.22)
(-239739 5866.76 6226.78)
(-240454 5924.44 6375.52)
(-241224 5983.42 6495.06)
(-242046 6044.84 6574.9)
(-242907 6109.97 6603.63)
(-243794 6178.66 6568.69)
(-244687 6250.75 6456.74)
(-245561 6325.64 6255.36)
(-246385 6402.43 5954.08)
(-247119 6480.19 5546.82)
(-247721 6558.44 5033.42)
(-248155 6636.38 4420.7)
(-248396 6714.08 3722.32)
(-248422 6792.26 2958.75)
(-248209 6873.74 2156.98)
(-247765 6960.93 1375.1)
(-247119 7057.55 695.616)
(-246331 7164.54 193.923)
(-245488 7282.65 -89.9849)
(-244662 7412.32 -152.97)
(-243895 7551.8 -21.5037)
(-243213 7696.83 263.784)
(-242660 7846.27 659.2)
(-242248 8001.24 1120.14)
(-241959 8163.4 1603.94)
(-241764 8331.58 2084.2)
(-241642 8503.25 2550.2)
(-241579 8677.25 2997.85)
(-241568 8855.96 3425.45)
(-241596 9040.54 3837.5)
(-241646 9230.98 4242.72)
(-241698 9426.56 4651.07)
(-241729 9626.77 5072.89)
(-241705 9829.58 5519.14)
(-241575 10031.5 5997.66)
(-241246 10226.1 6510.89)
(-240548 10404.6 7054.63)
(-239308 10552.2 7590.28)
(-237647 10657.7 8094.23)
(-236128 10712.6 8558.67)
(-235043 10705.9 8959.33)
(-232549 10641.2 9179.58)
(-224745 10518.5 8859.55)
(-210590 10090.9 7978.67)
(-204487 9493.11 8549.86)
(-215369 8806.93 11925)
(-204163 9788.87 10868.8)
(47841.1 9637.65 14268.3)
(-239900 -5416.26 -2682.15)
(-239631 -5454.37 -2607.05)
(-239520 -5466.31 -2539.13)
(-239414 -5477.4 -2484.71)
(-239360 -5485.09 -2426.97)
(-239341 -5487.35 -2376.61)
(-239353 -5484.08 -2333.88)
(-239394 -5476.42 -2304.28)
(-239464 -5464.97 -2297.52)
(-239561 -5448.8 -2325.46)
(-239678 -5427.57 -2401.19)
(-239803 -5401.27 -2542.08)
(-239922 -5369.93 -2768)
(-240016 -5333.64 -3099.02)
(-240058 -5292.1 -3553.4)
(-240014 -5244.44 -4145.75)
(-239846 -5189.58 -4881.52)
(-239520 -5127.36 -5755.55)
(-239011 -5057.54 -6751)
(-238293 -4980.11 -7847.61)
(-237317 -4895.16 -9015.4)
(-236037 -4803.28 -10190.6)
(-234460 -4704.2 -11257.8)
(-232670 -4601.3 -12093.4)
(-230800 -4497.56 -12626)
(-228968 -4396.31 -12859.9)
(-227251 -4298.49 -12848.1)
(-225677 -4201.99 -12662.8)
(-224244 -4103.72 -12373.6)
(-222931 -4007.33 -12036.2)
(-221705 -3920.44 -11689.6)
(-220528 -3845.75 -11358.1)
(-219373 -3780.79 -11056.6)
(-218215 -3725.4 -10793.3)
(-217036 -3680.46 -10570.9)
(-215821 -3646.06 -10388.2)
(-214555 -3622.17 -10240.2)
(-213222 -3608.95 -10121.4)
(-211800 -3605.95 -10024)
(-210264 -3614.13 -9940.88)
(-208571 -3638.5 -9864.28)
(-206616 -3696.48 -9797.68)
(-204220 -3801.77 -9741.87)
(-201197 -3971.57 -9706.7)
(-197657 -4225.84 -9710.63)
(-194276 -4578.59 -9759.01)
(-191638 -5030.1 -9862.28)
(-187987 -5511.96 -10014.5)
(-178799 -5964.4 -10222)
(-163124 -6340.93 -9697.88)
(-153709 -5364.21 -9364.38)
(-181697 -1268 -1206.57)
(-167395 1992.39 10023.6)
(52201.7 -324.957 3917.9)
(-224078 5198.35 5034.16)
(-223771 5203.6 5380.65)
(-223754 5199.22 5584.73)
(-223721 5202.84 5808.63)
(-223765 5201.56 6030.58)
(-223850 5201.88 6248.85)
(-223983 5201.86 6459.3)
(-224159 5200.06 6656.19)
(-224378 5194.93 6829.49)
(-224638 5186.83 6967.01)
(-224932 5175.64 7054.33)
(-225255 5160.72 7073.68)
(-225593 5141.75 7005.02)
(-225930 5118.36 6827.94)
(-226244 5090.82 6524.23)
(-226504 5060.36 6079.84)
(-226677 5028.49 5489.34)
(-226739 4996.04 4759.41)
(-226668 4964.11 3909.01)
(-226436 4933.63 2961.03)
(-225989 4905.39 1946.42)
(-225271 4880.32 931.916)
(-224285 4859.45 43.5356)
(-223105 4845.18 -592.005)
(-221875 4832.9 -893.949)
(-220738 4820.52 -865.515)
(-219793 4806.85 -563.886)
(-219078 4796.76 -63.2633)
(-218540 4793.9 563.84)
(-218104 4798.72 1233.47)
(-217728 4802.8 1902.74)
(-217402 4800.97 2548.75)
(-217109 4794.56 3155.76)
(-216829 4783.09 3709.86)
(-216543 4764.86 4203.65)
(-216238 4738.04 4633.84)
(-215905 4700.23 5000.83)
(-215539 4648.64 5307.22)
(-215131 4580.48 5553.64)
(-214671 4490.28 5738.98)
(-214120 4369.7 5871.06)
(-213414 4213.4 5952.89)
(-212399 4006.64 5979.39)
(-210923 3730.89 5934.51)
(-209125 3361.86 5782.85)
(-207698 2872.8 5451.82)
(-207093 2239.28 4787.56)
(-204998 1456.37 3528.44)
(-195440 443.651 1104.87)
(-176578 -665.337 -919.46)
(-167202 -128.012 -523.155)
(-192100 2840.93 -2820.28)
(-174790 1614.27 -36252.4)
(20861.7 -266.58 -16018.7)
(-241565 -4109.6 -1552.47)
(-241329 -4110.49 -1235.56)
(-241176 -4127.04 -1002.36)
(-241057 -4137.13 -763.657)
(-240969 -4150.24 -516.204)
(-240915 -4163.08 -266.179)
(-240893 -4177.45 -18.5014)
(-240909 -4195.14 213.356)
(-240963 -4216.23 410.42)
(-241055 -4239.65 552.871)
(-241182 -4265.29 616.923)
(-241336 -4292.95 575.123)
(-241502 -4322.42 398.76)
(-241657 -4353.53 61.7906)
(-241762 -4386.21 -456.367)
(-241767 -4419.98 -1169.6)
(-241608 -4455.27 -2077.3)
(-241227 -4492.02 -3159.88)
(-240583 -4529.26 -4383.92)
(-239633 -4563.64 -5722.85)
(-238298 -4590.13 -7157.07)
(-236468 -4605.12 -8609.84)
(-234105 -4603.51 -9893.09)
(-231340 -4578.13 -10773.4)
(-228432 -4526.45 -11122.4)
(-225640 -4453.6 -10978.7)
(-223139 -4367.64 -10469.8)
(-221008 -4276.67 -9737.09)
(-219252 -4184.93 -8903.06)
(-217834 -4089.86 -8050.69)
(-216700 -3987.28 -7227.34)
(-215801 -3873.63 -6454.86)
(-215096 -3749.51 -5737.44)
(-214556 -3618.4 -5065)
(-214163 -3480.44 -4421.47)
(-213909 -3332.91 -3789.63)
(-213797 -3173.98 -3151.4)
(-213836 -3001.94 -2490.38)
(-214044 -2816.1 -1794.26)
(-214448 -2615.68 -1060.46)
(-215069 -2401.88 -297.463)
(-215899 -2177.62 474.597)
(-216865 -1946.09 1209.04)
(-217910 -1709.27 1825.61)
(-219317 -1471.87 2196.48)
(-222058 -1264.84 2119.05)
(-227078 -1153.22 1203.42)
(-232667 -1228.01 -1136.32)
(-232486 -1775.32 -5966.66)
(-223041 -2555.88 -13329.5)
(-218965 -3227.09 -21084.5)
(-245201 -4058.77 -28562.1)
(-215739 -12315.5 -56834.7)
(-37794.7 -7481.56 -30783.5)
(-236004 2718.79 4220.24)
(-235970 2654.72 4747.42)
(-235980 2611.32 5083.68)
(-236066 2556.59 5458.16)
(-236196 2497.1 5835.89)
(-236390 2431.21 6218.77)
(-236645 2357.14 6597.59)
(-236966 2272.06 6960.78)
(-237355 2175.22 7292.45)
(-237811 2067.3 7573.01)
(-238330 1948.56 7779.38)
(-238902 1819.63 7885.34)
(-239506 1682.23 7862.75)
(-240115 1538.75 7684.51)
(-240686 1392.12 7327.15)
(-241163 1246.06 6774.35)
(-241478 1104.33 6022.68)
(-241569 971.23 5089.44)
(-241391 850.571 4009.56)
(-240906 747.839 2813.08)
(-240034 667.843 1528.1)
(-238656 612.229 232.283)
(-236721 580.207 -876.064)
(-234344 565.393 -1570.89)
(-231743 558.005 -1735.92)
(-229159 541.594 -1426.57)
(-226776 501.408 -786.687)
(-224710 428.266 27.627)
(-223030 319.982 902.598)
(-221757 177.503 1760.77)
(-220856 11.5889 2562.85)
(-220267 -164.962 3289.21)
(-219909 -348.486 3934.31)
(-219725 -542.16 4492.4)
(-219712 -742.076 4969.54)
(-219871 -940.355 5377.06)
(-220213 -1129.59 5727.81)
(-220760 -1301.86 6033.9)
(-221542 -1450.64 6304.44)
(-222600 -1569.18 6546.44)
(-223975 -1651.65 6766.87)
(-225679 -1694.18 6974.37)
(-227678 -1693.6 7171.55)
(-229959 -1646.86 7348.12)
(-232830 -1551.6 7480.25)
(-237271 -1421.33 7518.77)
(-244324 -1296.86 7268.03)
(-252572 -1225.75 6256.79)
(-255754 -1363.01 3642.99)
(-252353 -1480.78 -1079.64)
(-252694 -1487.72 -11869.1)
(-269013 -3146.3 -36697.9)
(-269098 -17576.5 -91460.2)
(-172568 -11055.9 -33962.6)
(-250897 -2052.71 -560.192)
(-250987 -2078.2 -184.894)
(-250919 -2145.41 96.5026)
(-250945 -2185.05 355.331)
(-250970 -2239.02 598.762)
(-251031 -2293.08 819.216)
(-251129 -2353.33 1008.58)
(-251274 -2418.29 1154.52)
(-251478 -2486.17 1243.62)
(-251749 -2555.55 1262.59)
(-252086 -2625.15 1194.13)
(-252486 -2693.27 1018.59)
(-252934 -2758.59 713.777)
(-253406 -2820.56 256.987)
(-253859 -2880.12 -373.858)
(-254234 -2939.38 -1201.91)
(-254455 -3000.68 -2238.77)
(-254451 -3066.98 -3476.62)
(-254178 -3139.42 -4889.2)
(-253612 -3219.58 -6466.97)
(-252646 -3309.04 -8234)
(-251061 -3410.51 -10154.7)
(-248695 -3521.3 -11974.5)
(-245680 -3627.96 -13275.5)
(-242409 -3711.67 -13792.4)
(-239263 -3757.31 -13588)
(-236460 -3757.29 -12893.6)
(-234088 -3712.34 -11937.1)
(-232153 -3630.12 -10899.3)
(-230609 -3519.02 -9890.17)
(-229399 -3386.93 -8963.37)
(-228463 -3242.62 -8132.36)
(-227746 -3093.35 -7384.83)
(-227204 -2939.87 -6693.65)
(-226804 -2782.69 -6025.52)
(-226521 -2625.4 -5343.62)
(-226336 -2472.91 -4609.15)
(-226231 -2330.72 -3777.07)
(-226194 -2202.09 -2792.7)
(-226222 -2089.71 -1603.62)
(-226315 -2000.41 -160.83)
(-226441 -1939.03 1588.1)
(-226521 -1903.92 3695.05)
(-226510 -1885.03 6204.19)
(-226702 -1864.62 9151.06)
(-228053 -1821.34 12531.5)
(-231539 -1711.23 16173.2)
(-236097 -1472.34 19569.2)
(-237184 -1022.98 21676.9)
(-234704 -261.53 21109.7)
(-245138 1737.82 16057.4)
(-288456 4848.55 395.924)
(-284617 -5656.62 -46617.4)
(-146506 236.194 -12078.5)
(-231913 999.057 3902.02)
(-231594 883.579 4367.34)
(-231493 792.049 4642.02)
(-231377 704.111 4950.75)
(-231310 607.501 5233.43)
(-231281 507.286 5497.75)
(-231302 399.101 5731.13)
(-231377 283.489 5921.82)
(-231517 162.293 6055.29)
(-231729 37.3089 6115.86)
(-232019 -89.0897 6085.28)
(-232388 -213.72 5943.2)
(-232833 -333.17 5667.33)
(-233342 -444.336 5234.21)
(-233890 -544.764 4620.74)
(-234436 -632.632 3806.75)
(-234924 -706.659 2782.17)
(-235298 -767.178 1561.88)
(-235540 -816.416 180.276)
(-235647 -859.232 -1334.77)
(-235583 -907.386 -2987.37)
(-235139 -962.897 -4747.88)
(-234189 -1022.61 -6342.49)
(-232894 -1070.33 -7344.22)
(-231624 -1084.47 -7492.59)
(-230661 -1050.65 -6870.89)
(-230072 -966.677 -5727.87)
(-229803 -840.338 -4308.99)
(-229747 -684.76 -2814.32)
(-229795 -510.889 -1371.52)
(-229868 -326.627 -49.8048)
(-229917 -140.701 1133.84)
(-229945 46.2085 2194.35)
(-229981 245.352 3157.78)
(-230024 463.398 4057.6)
(-230093 702.355 4919.74)
(-230215 961.514 5771.54)
(-230418 1238.19 6645.98)
(-230740 1528.67 7574.72)
(-231213 1827.56 8587.28)
(-231877 2124.65 9717.84)
(-232747 2410.67 11001.6)
(-233784 2681.48 12467.4)
(-234962 2939.95 14128.5)
(-236560 3197.71 15992.1)
(-239502 3470.54 18075.5)
(-244765 3794.43 20284.3)
(-251252 4244.53 22321.9)
(-255011 4985.19 23626.3)
(-255943 6125.65 23401.2)
(-274848 7708.68 20222.4)
(-345172 9199.4 6859.5)
(-422942 -4544.63 -49851.8)
(-455067 -5551.61 -6322.75)
(-246624 -1425.3 -686.37)
(-247465 -1454.11 -349.545)
(-247808 -1535.54 -106.269)
(-248314 -1573.61 143.062)
(-248786 -1623.49 395.498)
(-249282 -1670.18 655.175)
(-249799 -1718.12 919.674)
(-250345 -1765.4 1187.13)
(-250927 -1811.17 1452.22)
(-251550 -1855.01 1704.79)
(-252217 -1896.11 1926.87)
(-252930 -1933.56 2089.95)
(-253683 -1966.37 2151.55)
(-254465 -1993.48 2054.23)
(-255249 -2013.53 1730.17)
(-255986 -2025.14 1110.43)
(-256599 -2026.88 143.596)
(-257007 -2013.87 -1180.68)
(-257185 -1982.24 -2817.16)
(-257159 -1928.16 -4718.05)
(-256839 -1856.26 -6916.81)
(-255857 -1773.58 -9437.69)
(-253832 -1696.21 -11970.6)
(-250918 -1646.99 -13811.3)
(-247847 -1635.48 -14403.9)
(-245275 -1658.18 -13868.4)
(-243379 -1693.45 -12782.5)
(-242081 -1723.22 -11532.6)
(-241224 -1737.63 -10346.8)
(-240640 -1732.76 -9324.18)
(-240207 -1708.13 -8489.79)
(-239838 -1666.24 -7830.74)
(-239481 -1609.88 -7316.59)
(-239102 -1541.99 -6912.96)
(-238683 -1465.56 -6586.08)
(-238216 -1383.47 -6305.39)
(-237702 -1297.5 -6042.88)
(-237148 -1210.02 -5772.4)
(-236562 -1127.41 -5471.45)
(-235946 -1056.04 -5120.12)
(-235300 -1000.51 -4694.35)
(-234608 -964.371 -4167.39)
(-233818 -952.533 -3515.37)
(-232916 -971.412 -2724.1)
(-232198 -1027.38 -1775.16)
(-232615 -1106.07 -630.62)
(-235341 -1156.35 769.306)
(-240065 -1189.07 2382.49)
(-243359 -1273.36 3955.02)
(-244945 -771.961 5542.88)
(-266034 2002.11 8683.88)
(-352653 4571.9 4844.77)
(-413195 -3252.71 -23398)
(-402730 -13230.4 -146443)
(-212973 667.883 2353.29)
(-212610 649.122 2688.94)
(-212522 588.935 2903.23)
(-212419 568.199 3136.22)
(-212398 543.55 3367.48)
(-212437 525.395 3604.18)
(-212553 511.107 3848.63)
(-212755 502.877 4098.49)
(-213051 502.365 4348.53)
(-213449 510.677 4589.08)
(-213957 529.228 4802.68)
(-214575 559.268 4960.52)
(-215298 601.628 5019.32)
(-216108 656.663 4920.04)
(-216969 724.321 4591.5)
(-217822 803.51 3958.25)
(-218570 892.174 2955.62)
(-219117 989.004 1560.36)
(-219404 1090.04 -186.701)
(-219434 1194.22 -2230.46)
(-218882 1303.73 -4615.7)
(-217296 1403.96 -7395.87)
(-214126 1467.11 -10268.1)
(-209439 1461.12 -12456.2)
(-204099 1385.53 -13274.3)
(-199104 1265.19 -12813.1)
(-194957 1144.11 -11676.4)
(-191748 1057.33 -10282.9)
(-189385 1020.85 -8901.19)
(-187686 1038.79 -7657.41)
(-186473 1107.82 -6592.74)
(-185601 1218.81 -5700.11)
(-184958 1360.6 -4953.23)
(-184464 1521.06 -4327.3)
(-184062 1687.43 -3795.2)
(-183716 1848.63 -3327.8)
(-183400 1996.56 -2894.78)
(-183082 2121.84 -2469.38)
(-182741 2210.36 -2026.56)
(-182369 2249.79 -1533.17)
(-181936 2228.04 -966.836)
(-181364 2134.54 -303.351)
(-180516 1956.47 474.636)
(-179287 1677.08 1351.98)
(-177965 1276.71 2282.37)
(-177637 755.088 3225.78)
(-179489 156.908 4239.15)
(-182356 -511.128 5331.07)
(-181594 -1217.26 6073.34)
(-178351 -1188.52 6019.54)
(-192684 724.688 6215.4)
(-259783 2502.57 2487.39)
(-315232 -4327.66 12243.7)
(-400591 -6598.95 136736)
(-237195 -2471.24 1024.34)
(-237959 -2563.88 1600.57)
(-238302 -2656.24 1932.56)
(-238773 -2735.19 2347.28)
(-239211 -2823.89 2766.57)
(-239661 -2917.6 3213.26)
(-240122 -3017.22 3674.3)