/*--------------------------------*- C++ -*----------------------------------*\
| =========                 |                                                 |
| \\      /  F ield         | OpenFOAM: The Open Source CFD Toolbox           |
|  \\    /   O peration     | Version:  4.1                                   |
|   \\  /    A nd           | Web:      www.OpenFOAM.org                      |
|    \\/     M anipulation  |                                                 |
\*---------------------------------------------------------------------------*/
FoamFile
{
    version     2.0;
    format      ascii;
    class       surfaceScalarField;
    location    "58";
    object      phi;
}
// * * * * * * * * * * * * * * * * * * * * * * * * * * * * * * * * * * * * * //

dimensions      [0 3 -1 0 0 0 0];

internalField   nonuniform List<scalar> 
11516
(
-4.10974e+10
3.14343e+07
5.40637e+08
-4.14614e+10
1.01935e+07
3.42623e+08
-4.17793e+10
-1.38457e+07
3.23765e+08
-4.19044e+10
-7.54806e+07
1.96141e+08
-4.20729e+10
-3.14029e+07
1.98706e+08
-4.22445e+10
-3.14365e+07
2.0515e+08
-4.23862e+10
-4.0139e+07
1.86535e+08
-4.25269e+10
-3.85908e+07
1.8627e+08
-4.26556e+10
-3.98565e+07
1.77494e+08
-4.27678e+10
-4.09035e+07
1.6408e+08
-4.28577e+10
-4.22868e+07
1.44707e+08
-4.2919e+10
-4.46212e+07
1.1938e+08
-4.29422e+10
-4.88242e+07
8.40915e+07
-4.2919e+10
-5.39178e+07
4.24491e+07
-4.28379e+10
-5.82644e+07
-7.72855e+06
-4.269e+10
-6.19946e+07
-6.53959e+07
-4.24692e+10
-6.55914e+07
-1.26543e+08
-4.21711e+10
-7.0455e+07
-1.95194e+08
-4.17928e+10
-7.56793e+07
-2.64272e+08
-4.13299e+10
-8.11833e+07
-3.36641e+08
-4.07781e+10
-8.59387e+07
-4.08683e+08
-4.01461e+10
-9.10231e+07
-4.75346e+08
-3.94399e+10
-9.59208e+07
-5.37793e+08
-3.86761e+10
-1.00517e+08
-5.86543e+08
-3.78649e+10
-1.04335e+08
-6.26015e+08
-3.70215e+10
-1.06859e+08
-6.49661e+08
-3.61538e+10
-1.07788e+08
-6.64669e+08
-3.52757e+10
-1.06942e+08
-6.66011e+08
-3.43953e+10
-1.04197e+08
-6.60354e+08
-3.35231e+10
-9.93993e+07
-6.46177e+08
-3.26684e+10
-9.22958e+07
-6.24917e+08
-3.18368e+10
-8.26979e+07
-6.0054e+08
-3.10377e+10
-7.0181e+07
-5.69432e+08
-3.02765e+10
-5.42594e+07
-5.353e+08
-2.95586e+10
-3.43624e+07
-4.98235e+08
-2.88894e+10
-1.00434e+07
-4.57684e+08
-2.82694e+10
1.89841e+07
-4.17778e+08
-2.77004e+10
5.31303e+07
-3.76262e+08
-2.71783e+10
9.17489e+07
-3.37452e+08
-2.66955e+10
1.31077e+08
-3.00966e+08
-2.62406e+10
1.71614e+08
-2.69971e+08
-2.58108e+10
2.17684e+08
-2.40057e+08
-2.5408e+10
2.72245e+08
-2.08453e+08
-2.50411e+10
3.37682e+08
-1.70879e+08
-2.47359e+10
4.15899e+08
-1.21716e+08
-2.454e+10
5.06387e+08
-6.46385e+07
-2.44976e+10
6.01153e+08
-4.17726e+07
-2.46006e+10
6.91398e+08
-1.03603e+08
-2.49366e+10
7.57267e+08
-1.69433e+08
-2.58221e+10
8.86373e+08
2.99089e+08
-2.85631e+10
1.79704e+09
1.18079e+09
-3.29988e+10
3.86126e+09
1.30013e+09
-3.25121e+10
8.45876e+09
-8.61753e+09
4.60305e+09
-1.61029e+10
-5.55838e+10
1.94433e+08
-5.56099e+10
3.06061e+07
-5.56188e+10
-9.5677e+06
-5.56549e+10
-4.2381e+07
-5.56096e+10
-7.78134e+07
-5.55666e+10
-7.38874e+07
-5.55196e+10
-8.51512e+07
-5.54677e+10
-8.73337e+07
-5.54065e+10
-9.68356e+07
-5.53336e+10
-1.08567e+08
-5.52448e+10
-1.2514e+08
-5.51381e+10
-1.45259e+08
-5.50067e+10
-1.74479e+08
-5.48471e+10
-2.07471e+08
-5.46501e+10
-2.47575e+08
-5.44074e+10
-2.92883e+08
-5.41169e+10
-3.41601e+08
-5.37734e+10
-3.96519e+08
-5.33775e+10
-4.5151e+08
-5.2925e+10
-5.0833e+08
-5.24154e+10
-5.65317e+08
-5.18556e+10
-6.15769e+08
-5.12503e+10
-6.62993e+08
-5.06137e+10
-6.96565e+08
-4.99529e+10
-7.22601e+08
-4.92811e+10
-7.33197e+08
-4.86029e+10
-7.36734e+08
-4.79292e+10
-7.26691e+08
-4.72639e+10
-7.10668e+08
-4.66135e+10
-6.86201e+08
-4.59829e+10
-6.54594e+08
-4.53721e+10
-6.20653e+08
-4.47845e+10
-5.80218e+08
-4.42183e+10
-5.37683e+08
-4.36717e+10
-4.92431e+08
-4.31423e+10
-4.43987e+08
-4.26221e+10
-3.96847e+08
-4.21061e+10
-3.47579e+08
-4.15834e+10
-3.01762e+08
-4.10474e+10
-2.58999e+08
-4.04896e+10
-2.20143e+08
-3.98975e+10
-1.84919e+08
-3.92584e+10
-1.49643e+08
-3.85619e+10
-1.11548e+08
-3.78032e+10
-6.79327e+07
-3.69959e+10
-1.94389e+07
-3.61563e+10
1.33947e+07
-3.53016e+10
3.69194e+06
-3.45528e+10
7.55547e+07
-3.44003e+10
7.82392e+08
-3.46818e+10
2.23925e+09
-3.44223e+10
3.73547e+09
-1.85507e+10
-7.33382e+09
-1.17505e+10
-6.83571e+10
1.52338e+07
6.21273e+08
-6.84461e+10
-707406
4.2731e+08
-6.85303e+10
-1.16169e+07
4.14344e+08
-6.86436e+10
-5.88584e+06
3.11516e+08
-6.86964e+10
-1.43496e+07
2.64108e+08
-6.87527e+10
-1.02059e+07
2.71691e+08
-6.88155e+10
-9.07051e+06
2.59929e+08
-6.88697e+10
-7.43792e+06
2.50534e+08
-6.8917e+10
-7.90175e+06
2.3621e+08
-6.89593e+10
-7.35756e+06
2.18293e+08
-6.89926e+10
-8.05641e+06
1.91533e+08
-6.90132e+10
-9.64165e+06
1.56044e+08
-6.90214e+10
-1.27837e+07
1.10012e+08
-6.90131e+10
-1.64886e+07
5.66852e+07
-6.89914e+10
-2.06159e+07
-3.50065e+06
-6.89562e+10
-2.37867e+07
-6.57172e+07
-6.89062e+10
-2.80921e+07
-1.35326e+08
-6.88405e+10
-3.32548e+07
-2.09767e+08
-6.87599e+10
-4.02569e+07
-2.86215e+08
-6.86631e+10
-4.74449e+07
-3.61604e+08
-6.85534e+10
-5.55158e+07
-4.33427e+08
-6.84324e+10
-6.41404e+07
-4.96438e+08
-6.83091e+10
-7.34589e+07
-5.47826e+08
-6.81871e+10
-8.3305e+07
-5.83661e+08
-6.80797e+10
-9.34032e+07
-5.98404e+08
-6.7986e+10
-1.03296e+08
-5.9786e+08
-6.79143e+10
-1.12734e+08
-5.7966e+08
-6.78623e+10
-1.21502e+08
-5.49553e+08
-6.78353e+10
-1.29479e+08
-5.07534e+08
-6.78313e+10
-1.36478e+08
-4.60014e+08
-6.78526e+10
-1.42283e+08
-4.04606e+08
-6.79011e+10
-1.46691e+08
-3.46085e+08
-6.79757e+10
-1.49351e+08
-2.8365e+08
-6.80803e+10
-1.49805e+08
-2.16599e+08
-6.82161e+10
-1.47444e+08
-1.47704e+08
-6.83879e+10
-1.41922e+08
-7.31594e+07
-6.86032e+10
-1.32611e+08
5.96025e+06
-6.88703e+10
-1.18871e+08
9.22748e+07
-6.91991e+10
-1.01281e+08
1.84613e+08
-6.96012e+10
-8.04368e+07
2.85176e+08
-7.00925e+10
-5.59119e+07
3.95968e+08
-7.0696e+10
-2.67746e+07
5.26452e+08
-7.14413e+10
1.11505e+07
6.83587e+08
-7.23657e+10
5.93917e+07
8.75955e+08
-7.35111e+10
1.18477e+08
1.11025e+09
-7.49512e+10
1.9141e+08
1.39293e+09
-7.68366e+10
2.81272e+08
1.72517e+09
-7.93601e+10
3.76115e+08
2.0803e+09
-8.26524e+10
5.03658e+08
2.47798e+09
-8.64017e+10
8.56095e+08
2.87149e+09
-9.08417e+10
1.95175e+09
3.37356e+09
-9.64947e+10
4.0436e+09
2.59808e+09
-1.21077e+11
9.48381e+09
6.29678e+09
4.05625e+09
9.15638e+09
-7.61157e+10
2.68258e+08
-7.61706e+10
8.12748e+07
-7.62348e+10
4.01644e+07
-7.63004e+10
1.5639e+07
-7.6359e+10
-3.40939e+07
-7.64068e+10
-3.58766e+07
-7.6458e+10
-4.18784e+07
-7.65004e+10
-5.06224e+07
-7.65383e+10
-6.44252e+07
-7.65724e+10
-7.87795e+07
-7.66013e+10
-1.00577e+08
-7.66226e+10
-1.29647e+08
-7.66384e+10
-1.6751e+08
-7.66471e+10
-2.11689e+08
-7.66466e+10
-2.63607e+08
-7.66362e+10
-3.19942e+08
-7.66127e+10
-3.83795e+08
-7.65791e+10
-4.52304e+08
-7.65351e+10
-5.22534e+08
-7.64822e+10
-5.92805e+08
-7.6423e+10
-6.60536e+08
-7.63593e+10
-7.20361e+08
-7.63e+10
-7.7011e+08
-7.62471e+10
-8.06339e+08
-7.62139e+10
-8.2291e+08
-7.61981e+10
-8.2588e+08
-7.62084e+10
-8.11876e+08
-7.62416e+10
-7.86273e+08
-7.6303e+10
-7.48361e+08
-7.63891e+10
-7.04481e+08
-7.6501e+10
-6.51487e+08
-7.6639e+10
-5.94734e+08
-7.67992e+10
-5.33668e+08
-7.69829e+10
-4.67038e+08
-7.71874e+10
-3.9755e+08
-7.74117e+10
-3.22088e+08
-7.76567e+10
-2.42715e+08
-7.7921e+10
-1.56869e+08
-7.82088e+10
-6.52248e+07
-7.85264e+10
3.44819e+07
-7.88811e+10
1.42682e+08
-7.92867e+10
2.6744e+08
-7.97461e+10
4.0551e+08
-8.02625e+10
5.61331e+08
-8.08466e+10
7.408e+08
-8.15198e+10
9.45992e+08
-8.23387e+10
1.17655e+09
-8.34022e+10
1.42992e+09
-8.4639e+10
1.70043e+09
-8.48185e+10
1.62254e+09
-8.15466e+10
7.15065e+08
-7.41263e+10
2.22157e+08
-8.04924e+10
8.29553e+09
8.88171e+09
-5.65276e+10
1.75589e+08
2.2694e+08
-5.64524e+10
2.11758e+08
1.40655e+08
-5.63827e+10
2.05017e+08
1.40487e+08
-5.6452e+10
2.28509e+08
1.53872e+08
-5.64995e+10
2.1176e+08
1.02193e+08
-5.65484e+10
2.21139e+08
1.02607e+08
-5.66233e+10
2.28326e+08
1.10543e+08
-5.67064e+10
2.34402e+08
1.04063e+08
-5.6794e+10
2.37823e+08
9.18961e+07
-5.68824e+10
2.43079e+08
7.06361e+07
-5.69704e+10
2.47499e+08
4.03857e+07
-5.70552e+10
2.51476e+08
-1.2789e+06
-5.7133e+10
2.54369e+08
-5.7126e+07
-5.71975e+10
2.56512e+08
-1.26218e+08
-5.72416e+10
2.57509e+08
-2.07977e+08
-5.72467e+10
2.5734e+08
-3.0497e+08
-5.72086e+10
2.56318e+08
-4.14324e+08
-5.71237e+10
2.54931e+08
-5.29957e+08
-5.69866e+10
2.5244e+08
-6.54857e+08
-5.67932e+10
2.4991e+08
-7.79775e+08
-5.65429e+10
2.46901e+08
-9.00871e+08
-5.62318e+10
2.44194e+08
-1.0148e+09
-5.58689e+10
2.41419e+08
-1.11053e+09
-5.54658e+10
2.38579e+08
-1.18404e+09
-5.50313e+10
2.36242e+08
-1.23084e+09
-5.4578e+10
2.35064e+08
-1.25145e+09
-5.41125e+10
2.35602e+08
-1.24804e+09
-5.36406e+10
2.38139e+08
-1.22711e+09
-5.31662e+10
2.42673e+08
-1.19162e+09
-5.2696e+10
2.49186e+08
-1.14597e+09
-5.22287e+10
2.57787e+08
-1.09624e+09
-5.17694e+10
2.68738e+08
-1.04137e+09
-5.13155e+10
2.82324e+08
-9.8848e+08
-5.08644e+10
2.98648e+08
-9.36676e+08
-5.04172e+10
3.1795e+08
-8.84973e+08
-4.99658e+10
3.40479e+08
-8.38897e+08
-4.95034e+10
3.66509e+08
-7.97479e+08
-4.90198e+10
3.95639e+08
-7.60982e+08
-4.85044e+10
4.28605e+08
-7.30814e+08
-4.79464e+10
4.68027e+08
-7.07767e+08
-4.73429e+10
5.17915e+08
-6.85368e+08
-4.66822e+10
5.8095e+08
-6.66317e+08
-4.5952e+10
6.56105e+08
-6.42663e+08
-4.51333e+10
7.4448e+08
-6.1506e+08
-4.42168e+10
8.51913e+08
-5.77335e+08
-4.32129e+10
9.84302e+08
-5.28946e+08
-4.21598e+10
1.14621e+09
-4.75365e+08
-4.11634e+10
1.33524e+09
-4.00405e+08
-4.04193e+10
1.56175e+09
-2.26385e+08
-4.01777e+10
1.8924e+09
6.80207e+07
-4.02966e+10
2.84618e+09
-3.86592e+08
-4.2591e+10
5.62553e+09
-1.92353e+09
-4.24852e+10
1.24871e+10
-7.12715e+09
5.00073e+09
1.82833e+09
-6.21224e+10
3.46303e+08
-6.21031e+10
2.75503e+08
-6.21187e+10
2.62606e+08
-6.21467e+10
2.74027e+08
-6.22185e+10
2.51673e+08
-6.22848e+10
2.54085e+08
-6.23625e+10
2.67207e+08
-6.2439e+10
2.64097e+08
-6.252e+10
2.58812e+08
-6.25952e+10
2.4492e+08
-6.26669e+10
2.2479e+08
-6.27326e+10
1.9442e+08
-6.27899e+10
1.50991e+08
-6.28325e+10
9.39366e+07
-6.2856e+10
2.50515e+07
-6.28515e+10
-5.84192e+07
-6.28158e+10
-1.51983e+08
-6.27494e+10
-2.51277e+08
-6.26469e+10
-3.58229e+08
-6.25084e+10
-4.65428e+08
-6.23343e+10
-5.6795e+08
-6.21231e+10
-6.63794e+08
-6.18844e+10
-7.41962e+08
-6.1628e+10
-7.99049e+08
-6.13613e+10
-8.30832e+08
-6.10944e+10
-8.37773e+08
-6.08312e+10
-8.213e+08
-6.05749e+10
-7.87426e+08
-6.03258e+10
-7.38298e+08
-6.00876e+10
-6.77676e+08
-5.98554e+10
-6.11192e+08
-5.96311e+10
-5.36963e+08
-5.94089e+10
-4.62237e+08
-5.91828e+10
-3.85593e+08
-5.89508e+10
-3.05135e+08
-5.87024e+10
-2.25835e+08
-5.8431e+10
-1.45612e+08
-5.81281e+10
-6.33486e+07
-5.7784e+10
1.97561e+07
-5.73815e+10
1.01125e+08
-5.69029e+10
1.84778e+08
-5.63154e+10
2.66313e+08
-5.56011e+10
3.55834e+08
-5.474e+10
4.56699e+08
-5.37106e+10
5.73655e+08
-5.24968e+10
7.09732e+08
-5.10983e+10
8.68306e+08
-4.95537e+10
1.07181e+09
-4.79209e+10
1.34049e+09
-4.65507e+10
1.70333e+09
-4.5765e+10
2.21336e+09
-4.46682e+10
4.03538e+09
-2.09245e+10
-3.45734e+09
-5.04907e+09
-6.02881e+10
3.37188e+07
1.7601e+08
-6.04014e+10
5.96038e+07
2.03844e+08
-6.04837e+10
6.46552e+07
1.66523e+08
-6.06005e+10
6.21709e+07
2.15855e+08
-6.07606e+10
5.80847e+07
2.10967e+08
-6.09262e+10
6.4404e+07
2.10688e+08
-6.10993e+10
7.51243e+07
2.16134e+08
-6.12867e+10
8.14185e+07
2.18765e+08
-6.14849e+10
8.52592e+07
2.14753e+08
-6.16906e+10
8.93738e+07
1.97916e+08
-6.18982e+10
9.30824e+07
1.67621e+08
-6.21066e+10
9.74577e+07
1.23639e+08
-6.23161e+10
1.02139e+08
6.55906e+07
-6.25292e+10
1.05824e+08
-5.41242e+06
-6.27367e+10
1.07987e+08
-9.35315e+07
-6.29399e+10
1.08229e+08
-1.95767e+08
-6.31337e+10
1.08284e+08
-3.10077e+08
-6.3315e+10
1.06934e+08
-4.35846e+08
-6.34847e+10
1.04754e+08
-5.67313e+08
-6.36403e+10
1.01169e+08
-7.02328e+08
-6.37786e+10
9.70914e+07
-8.31929e+08
-6.39006e+10
9.24384e+07
-9.52268e+08
-6.40097e+10
8.68727e+07
-1.05167e+09
-6.41154e+10
8.02371e+07
-1.12391e+09
-6.42243e+10
7.27124e+07
-1.16649e+09
-6.43431e+10
6.47665e+07
-1.17767e+09
-6.44719e+10
5.69977e+07
-1.16345e+09
-6.46103e+10
4.95301e+07
-1.13071e+09
-6.47573e+10
4.21531e+07
-1.08321e+09
-6.49087e+10
3.45695e+07
-1.02933e+09
-6.50656e+10
2.66846e+07
-9.70645e+08
-6.52233e+10
1.86648e+07
-9.11971e+08
-6.53832e+10
1.04489e+07
-8.54798e+08
-6.55428e+10
2.0913e+06
-8.01759e+08
-6.56982e+10
-6.17157e+06
-7.53614e+08
-6.58523e+10
-1.45648e+07
-7.08198e+08
-6.60019e+10
-2.27505e+07
-6.7079e+08
-6.61459e+10
-3.03993e+07
-6.39402e+08
-6.62873e+10
-3.72751e+07
-6.11463e+08
-6.64303e+10
-4.29998e+07
-5.86284e+08
-6.65794e+10
-4.72695e+07
-5.5835e+08
-6.67419e+10
-4.8568e+07
-5.28164e+08
-6.69223e+10
-4.5744e+07
-4.93095e+08
-6.71351e+10
-3.65507e+07
-4.44836e+08
-6.74001e+10
-1.91789e+07
-3.79993e+08
-6.776e+10
9.11584e+06
-2.89888e+08
-6.82982e+10
4.66206e+07
-1.6607e+08
-6.91325e+10
7.65403e+07
1.5084e+07
-7.03489e+10
1.08262e+08
2.70369e+08
-7.187e+10
2.25189e+08
3.37835e+08
-7.48494e+10
1.36643e+09
-2.45827e+08
-8.07751e+10
4.69451e+09
-2.3096e+09
-9.65307e+10
1.25749e+10
-5.45905e+09
2.01913e+09
2.35877e+10
-6.5875e+10
2.46696e+08
-6.5826e+10
2.9191e+08
-6.57963e+10
3.03008e+08
-6.57738e+10
3.1871e+08
-6.57837e+10
3.24534e+08
-6.57981e+10
3.37878e+08
-6.58041e+10
3.53973e+08
-6.5816e+10
3.63671e+08
-6.58322e+10
3.67341e+08
-6.58478e+10
3.57769e+08
-6.58579e+10
3.36968e+08
-6.58576e+10
3.01755e+08
-6.58457e+10
2.51804e+08
-6.58243e+10
1.8916e+08
-6.57916e+10
1.1101e+08
-6.57524e+10
2.24826e+07
-6.57059e+10
-7.65115e+07
-6.56489e+10
-1.85561e+08
-6.55858e+10
-2.99615e+08
-6.55152e+10
-4.15998e+08
-6.54375e+10
-5.26258e+08
-6.53566e+10
-6.26525e+08
-6.52776e+10
-7.06022e+08
-6.5211e+10
-7.58782e+08
-6.51633e+10
-7.83595e+08
-6.51407e+10
-7.78679e+08
-6.51426e+10
-7.50099e+08
-6.51671e+10
-7.04535e+08
-6.52116e+10
-6.45583e+08
-6.527e+10
-5.81099e+08
-6.53416e+10
-5.1233e+08
-6.5419e+10
-4.43709e+08
-6.55015e+10
-3.76222e+08
-6.5585e+10
-3.11639e+08
-6.56631e+10
-2.49793e+08
-6.57379e+10
-1.87473e+08
-6.5805e+10
-1.28153e+08
-6.58608e+10
-6.94985e+07
-6.59038e+10
-9.81723e+06
-6.59357e+10
5.14391e+07
-6.59586e+10
1.19317e+08
-6.5977e+10
1.92951e+08
-6.59866e+10
2.75383e+08
-6.59877e+10
3.75227e+08
-6.59795e+10
4.94904e+08
-6.59788e+10
6.45676e+08
-6.60347e+10
8.42439e+08
-6.62396e+10
1.1067e+09
-6.66177e+10
1.39044e+09
-6.67968e+10
1.43255e+09
-6.53416e+10
1.13779e+09
-5.79288e+10
2.92198e+08
-4.50474e+10
-4.1758e+09
-1.5617e+09
-5.56868e+10
1.65446e+08
1.12615e+07
-5.57272e+10
1.67562e+08
9.0482e+07
-5.58181e+10
1.63503e+08
1.07389e+08
-5.5897e+10
1.68114e+08
1.39482e+08
-5.60192e+10
1.75038e+08
1.70412e+08
-5.61712e+10
1.85991e+08
1.89174e+08
-5.63419e+10
1.97047e+08
2.02856e+08
-5.65284e+10
2.0606e+08
2.1337e+08
-5.67273e+10
2.144e+08
2.14635e+08
-5.69362e+10
2.2187e+08
2.02083e+08
-5.71521e+10
2.27708e+08
1.75407e+08
-5.73702e+10
2.32339e+08
1.32144e+08
-5.75873e+10
2.36112e+08
7.18187e+07
-5.77941e+10
2.39091e+08
-1.11376e+07
-5.79889e+10
2.41932e+08
-1.13549e+08
-5.81688e+10
2.45027e+08
-2.32354e+08
-5.8328e+10
2.48923e+08
-3.66659e+08
-5.84663e+10
2.52439e+08
-5.11831e+08
-5.85848e+10
2.55252e+08
-6.61676e+08
-5.86864e+10
2.57129e+08
-8.11809e+08
-5.87722e+10
2.58403e+08
-9.53006e+08
-5.88453e+10
2.5888e+08
-1.07731e+09
-5.89181e+10
2.57195e+08
-1.17022e+09
-5.90061e+10
2.52713e+08
-1.22169e+09
-5.91292e+10
2.44344e+08
-1.22854e+09
-5.92953e+10
2.32858e+08
-1.1946e+09
-5.95076e+10
2.19207e+08
-1.12887e+09
-5.97621e+10
2.04337e+08
-1.04451e+09
-6.00516e+10
1.88902e+08
-9.50025e+08
-6.03671e+10
1.73355e+08
-8.56806e+08
-6.0699e+10
1.58231e+08
-7.68774e+08
-6.1038e+10
1.44048e+08
-6.91425e+08
-6.13743e+10
1.3099e+08
-6.26944e+08
-6.1701e+10
1.19231e+08
-5.75076e+08
-6.2011e+10
1.09155e+08
-5.37157e+08
-6.22959e+10
1.01535e+08
-5.1227e+08
-6.25541e+10
9.72695e+07
-4.99625e+08
-6.27788e+10
9.60855e+07
-5.01134e+08
-6.29673e+10
9.78257e+07
-5.10137e+08
-6.31167e+10
1.0247e+08
-5.25201e+08
-6.32255e+10
1.10638e+08
-5.40566e+08
-6.32971e+10
1.23129e+08
-5.52134e+08
-6.33364e+10
1.41449e+08
-5.57061e+08
-6.33548e+10
1.69285e+08
-5.43812e+08
-6.33725e+10
2.08679e+08
-5.05929e+08
-6.34384e+10
2.66278e+08
-4.24042e+08
-6.36726e+10
3.50088e+08
-2.53491e+08
-6.42685e+10
4.39802e+08
8.91522e+07
-6.54035e+10
4.59616e+08
6.46295e+08
-6.74839e+10
4.86161e+08
1.37699e+09
-7.40974e+10
1.77518e+09
3.98059e+09
-8.94055e+10
3.23398e+09
9.01447e+09
-1.28459e+11
1.00444e+10
2.34184e+10
-9.88728e+09
1.25854e+10
-5.80736e+10
2.45262e+08
-5.79445e+10
3.41103e+08
-5.78477e+10
3.79969e+08
-5.77595e+10
4.08561e+08
-5.76972e+10
4.47044e+08
-5.76472e+10
4.83983e+08
-5.75961e+10
5.10501e+08
-5.75479e+10
5.32819e+08
-5.75012e+10
5.47504e+08
-5.74565e+10
5.48757e+08
-5.74117e+10
5.35798e+08
-5.7364e+10
5.04605e+08
-5.73117e+10
4.5586e+08
-5.72454e+10
3.83462e+08
-5.71595e+10
2.89286e+08
-5.70424e+10
1.74911e+08
-5.68817e+10
3.93393e+07
-5.66717e+10
-1.1169e+08
-5.64093e+10
-2.72326e+08
-5.6092e+10
-4.37775e+08
-5.57181e+10
-5.98604e+08
-5.52901e+10
-7.4661e+08
-5.48201e+10
-8.65075e+08
-5.43296e+10
-9.4323e+08
-5.3844e+10
-9.75134e+08
-5.33825e+10
-9.62685e+08
-5.29597e+10
-9.13115e+08
-5.25836e+10
-8.38095e+08
-5.22575e+10
-7.45431e+08
-5.19821e+10
-6.46269e+08
-5.17546e+10
-5.44759e+08
-5.15708e+10
-4.46818e+08
-5.14244e+10
-3.55407e+08
-5.13102e+10
-2.70798e+08
-5.12196e+10
-1.95494e+08
-5.11371e+10
-1.322e+08
-5.10524e+10
-7.75678e+07
-5.09526e+10
-3.19596e+07
-5.08289e+10
1.09244e+07
-5.06736e+10
5.26003e+07
-5.04782e+10
9.84447e+07
-5.02415e+10
1.55483e+08
-4.99609e+10
2.28033e+08
-4.96357e+10
3.29543e+08
-4.92563e+10
4.51553e+08
-4.88175e+10
6.04854e+08
-4.83371e+10
8.15493e+08
-4.78868e+10
1.11963e+09
-4.7667e+10
1.52113e+09
-4.80368e+10
2.0216e+09
-4.91806e+10
3.77664e+09
-5.44253e+10
8.844e+09
-7.20251e+10
2.37368e+10
9.46876e+09
-5.98315e+10
4.21996e+08
-4.69208e+08
-5.9769e+10
4.25393e+08
-3.77973e+08
-5.97385e+10
4.25581e+08
-3.29491e+08
-5.97188e+10
4.29444e+08
-2.90686e+08
-5.97123e+10
4.32287e+08
-2.49281e+08
-5.97223e+10
4.36396e+08
-2.17781e+08
-5.97458e+10
4.40508e+08
-1.93941e+08
-5.97781e+10
4.44324e+08
-1.77021e+08
-5.98155e+10
4.4804e+08
-1.72589e+08
-5.98555e+10
4.51255e+08
-1.83188e+08
-5.98919e+10
4.54844e+08
-2.13317e+08
-5.99205e+10
4.58821e+08
-2.63557e+08
-5.99363e+10
4.63509e+08
-3.36449e+08
-5.99357e+10
4.6833e+08
-4.36901e+08
-5.99161e+10
4.73257e+08
-5.62137e+08
-5.98682e+10
4.7838e+08
-7.10713e+08
-5.97882e+10
4.83874e+08
-8.77906e+08
-5.96704e+10
4.90392e+08
-1.05975e+09
-5.95154e+10
4.97758e+08
-1.24755e+09
-5.93262e+10
5.06052e+08
-1.4342e+09
-5.91027e+10
5.15669e+08
-1.61025e+09
-5.8851e+10
5.2621e+08
-1.76314e+09
-5.85853e+10
5.37384e+08
-1.8697e+09
-5.83343e+10
5.47152e+08
-1.912e+09
-5.81279e+10
5.5422e+08
-1.88313e+09
-5.79863e+10
5.57801e+08
-1.79282e+09
-5.79188e+10
5.57588e+08
-1.6566e+09
-5.79252e+10
5.53559e+08
-1.49519e+09
-5.79954e+10
5.45927e+08
-1.32708e+09
-5.81198e+10
5.35147e+08
-1.16479e+09
-5.82828e+10
5.21979e+08
-1.01959e+09
-5.84694e+10
5.06776e+08
-8.97257e+08
-5.86661e+10
4.89898e+08
-7.98756e+08
-5.88582e+10
4.72187e+08
-7.26048e+08
-5.90343e+10
4.54282e+08
-6.76662e+08
-5.91831e+10
4.36053e+08
-6.49606e+08
-5.92955e+10
4.17795e+08
-6.40923e+08
-5.93634e+10
4.01066e+08
-6.52705e+08
-5.93754e+10
3.87221e+08
-6.81884e+08
-5.93251e+10
3.7829e+08
-7.23634e+08
-5.92031e+10
3.75114e+08
-7.75466e+08
-5.89956e+10
3.74391e+08
-8.34227e+08
-5.86858e+10
3.75847e+08
-8.97804e+08
-5.82542e+10
3.80928e+08
-9.59416e+08
-5.76867e+10
3.89874e+08
-1.00841e+09
-5.69649e+10
4.03174e+08
-1.04166e+09
-5.60544e+10
4.14624e+08
-1.03866e+09
-5.48389e+10
3.88594e+08
-9.75095e+08
-5.31759e+10
3.09823e+08
-8.1618e+08
-5.12074e+10
2.71599e+08
-3.65546e+08
-4.80421e+10
2.88512e+08
1.11175e+09
-4.53697e+10
1.54348e+09
5.84405e+09
-5.41445e+10
9.54636e+09
2.33865e+10
5.53637e+09
1.11395e+10
-6.21047e+10
6.25531e+08
-6.20966e+10
7.70866e+08
-6.21051e+10
8.26498e+08
-6.21345e+10
8.79854e+08
-6.21853e+10
9.42661e+08
-6.22528e+10
1.00083e+09
-6.23363e+10
1.04814e+09
-6.24316e+10
1.08707e+09
-6.25328e+10
1.11261e+09
-6.2638e+10
1.12291e+09
-6.27392e+10
1.11221e+09
-6.28317e+10
1.07948e+09
-6.29069e+10
1.02124e+09
-6.2959e+10
9.32439e+08
-6.29816e+10
8.1539e+08
-6.29668e+10
6.7065e+08
-6.29105e+10
5.02749e+08
-6.28059e+10
3.14471e+08
-6.26501e+10
1.14534e+08
-6.24417e+10
-9.09087e+07
-6.21761e+10
-2.93823e+08
-6.18522e+10
-4.81918e+08
-6.14801e+10
-6.31456e+08
-6.10818e+10
-7.2356e+08
-6.06851e+10
-7.47767e+08
-6.03118e+10
-7.10853e+08
-5.99772e+10
-6.24494e+08
-5.96899e+10
-5.06169e+08
-5.94501e+10
-3.71821e+08
-5.92588e+10
-2.31925e+08
-5.91106e+10
-9.66045e+07
-5.90004e+10
2.83268e+07
-5.89236e+10
1.41089e+08
-5.88742e+10
2.40716e+08
-5.88488e+10
3.28684e+08
-5.88455e+10
4.03797e+08
-5.88622e+10
4.70126e+08
-5.88943e+10
5.2701e+08
-5.89309e+10
5.75883e+08
-5.89604e+10
6.20283e+08
-5.8965e+10
6.60301e+08
-5.89272e+10
7.00592e+08
-5.8826e+10
7.42069e+08
-5.86288e+10
7.88423e+08
-5.83158e+10
8.40227e+08
-5.78594e+10
8.94302e+08
-5.72308e+10
9.58259e+08
-5.64084e+10
1.02912e+09
-5.5344e+10
1.07825e+09
-5.38544e+10
1.128e+09
-5.09632e+10
1.61764e+09
-4.50561e+10
5.04471e+09
-2.94228e+10
1.80986e+10
9.15241e+09
-5.96308e+10
1.61418e+08
-6.44926e+08
-5.96238e+10
1.67743e+08
-5.36495e+08
-5.9624e+10
1.71521e+08
-4.84456e+08
-5.96461e+10
1.76197e+08
-4.28118e+08
-5.96788e+10
1.7629e+08
-3.75743e+08
-5.97227e+10
1.74116e+08
-3.30008e+08
-5.9777e+10
1.70923e+08
-2.91503e+08
-5.98393e+10
1.68906e+08
-2.63282e+08
-5.99072e+10
1.67002e+08
-2.49599e+08
-5.99747e+10
1.6434e+08
-2.55469e+08
-6.00405e+10
1.60248e+08
-2.79403e+08
-6.00933e+10
1.55496e+08
-3.32884e+08
-6.01239e+10
1.50425e+08
-4.17676e+08
-6.01268e+10
1.44531e+08
-5.36578e+08
-6.00927e+10
1.37622e+08
-6.90216e+08
-6.00111e+10
1.29936e+08
-8.77315e+08
-5.98682e+10
1.22125e+08
-1.09416e+09
-5.9655e+10
1.14892e+08
-1.33283e+09
-5.93632e+10
1.09331e+08
-1.58699e+09
-5.8988e+10
1.07329e+08
-1.8492e+09
-5.85185e+10
1.09923e+08
-2.11406e+09
-5.79505e+10
1.18181e+08
-2.36381e+09
-5.72895e+10
1.33957e+08
-2.56499e+09
-5.65733e+10
1.56521e+08
-2.67853e+09
-5.58438e+10
1.85913e+08
-2.68916e+09
-5.51429e+10
2.20325e+08
-2.60603e+09
-5.4495e+10
2.57872e+08
-2.45542e+09
-5.39126e+10
2.96323e+08
-2.2653e+09
-5.34015e+10
3.33572e+08
-2.0586e+09
-5.2958e+10
3.67902e+08
-1.85588e+09
-5.25803e+10
3.98189e+08
-1.66653e+09
-5.22625e+10
4.24385e+08
-1.50074e+09
-5.19998e+10
4.47843e+08
-1.35966e+09
-5.17892e+10
4.69648e+08
-1.24461e+09
-5.16253e+10
4.89764e+08
-1.15443e+09
-5.15038e+10
5.08617e+08
-1.08724e+09
-5.14172e+10
5.26052e+08
-1.04096e+09
-5.13571e+10
5.41133e+08
-1.0171e+09
-5.13173e+10
5.55881e+08
-1.01136e+09
-5.12868e+10
5.71922e+08
-1.02465e+09
-5.12603e+10
5.90489e+08
-1.04944e+09
-5.12347e+10
6.14124e+08
-1.08206e+09
-5.12099e+10
6.45424e+08
-1.11861e+09
-5.11804e+10
6.86036e+08
-1.15984e+09
-5.11363e+10
7.36687e+08
-1.20468e+09
-5.10667e+10
7.94778e+08
-1.26123e+09
-5.09566e+10
8.65842e+08
-1.33184e+09
-5.07744e+10
9.52676e+08
-1.42198e+09
-5.03672e+10
1.01499e+09
-1.55403e+09
-4.90088e+10
9.25828e+08
-1.842e+09
-4.50565e+10
6.45429e+08
-2.35706e+09
-3.98057e+10
1.6296e+09
2.61143e+08
-3.71149e+10
8.65104e+09
1.32152e+10
5.43062e+09
8.26949e+09
-6.11766e+10
8.27451e+08
-6.12057e+10
9.78749e+08
-6.12354e+10
1.03874e+09
-6.12766e+10
1.10842e+09
-6.13267e+10
1.18064e+09
-6.13851e+10
1.24539e+09
-6.14534e+10
1.30021e+09
-6.15286e+10
1.34502e+09
-6.16091e+10
1.37503e+09
-6.16892e+10
1.38417e+09
-6.17708e+10
1.37367e+09
-6.18461e+10
1.33333e+09
-6.1909e+10
1.26088e+09
-6.19572e+10
1.15354e+09
-6.1985e+10
1.0105e+09
-6.19859e+10
8.32595e+08
-6.19505e+10
6.23557e+08
-6.18764e+10
3.93525e+08
-6.17609e+10
1.50655e+08
-6.16011e+10
-9.77262e+07
-6.13863e+10
-3.4749e+08
-6.1111e+10
-5.79907e+08
-6.07788e+10
-7.63613e+08
-6.04151e+10
-8.59354e+08
-6.00486e+10
-8.54721e+08
-5.97045e+10
-7.60458e+08
-5.93927e+10
-6.0323e+08
-5.91148e+10
-4.10078e+08
-5.88688e+10
-2.0225e+08
-5.8647e+10
1.60982e+06
-5.84471e+10
1.95441e+08
-5.82644e+10
3.70583e+08
-5.80937e+10
5.26084e+08
-5.79294e+10
6.62124e+08
-5.77638e+10
7.7836e+08
-5.7591e+10
8.76442e+08
-5.7402e+10
9.57639e+08
-5.71903e+10
1.02326e+09
-5.6948e+10
1.07622e+09
-5.66586e+10
1.11308e+09
-5.63106e+10
1.1407e+09
-5.5884e+10
1.15835e+09
-5.53551e+10
1.16657e+09
-5.46967e+10
1.16606e+09
-5.38839e+10
1.15666e+09
-5.28927e+10
1.12597e+09
-5.16865e+10
1.06604e+09
-5.01974e+10
9.49015e+08
-4.83428e+10
7.23289e+08
-4.62774e+10
5.70354e+08
-4.39923e+10
7.749e+08
-3.75042e+10
1.20065e+09
-1.06477e+10
6.0981e+08
-9.31371e+08
-6.0853e+10
-3.29906e+08
-2.8858e+08
-6.08722e+10
-3.38372e+08
-1.66343e+08
-6.09003e+10
-3.40586e+08
-1.03318e+08
-6.09479e+10
-3.44311e+08
-2.34783e+07
-6.10077e+10
-3.5247e+08
5.01558e+07
-6.10822e+10
-3.63351e+08
1.22364e+08
-6.11741e+10
-3.74703e+08
1.9063e+08
-6.12809e+10
-3.84539e+08
2.44791e+08
-6.1403e+10
-3.94226e+08
2.84765e+08
-6.15388e+10
-4.04188e+08
3.04793e+08
-6.16786e+10
-4.14469e+08
2.98437e+08
-6.18177e+10
-4.24094e+08
2.58688e+08
-6.19491e+10
-4.32788e+08
1.79639e+08
-6.20643e+10
-4.40773e+08
5.58471e+07
-6.21553e+10
-4.481e+08
-1.14006e+08
-6.22105e+10
-4.54642e+08
-3.30768e+08
-6.22185e+10
-4.59738e+08
-5.88664e+08
-6.21663e+10
-4.61978e+08
-8.81934e+08
-6.20464e+10
-4.62172e+08
-1.20021e+09
-6.18522e+10
-4.62164e+08
-1.53328e+09
-6.15719e+10
-4.61827e+08
-1.88137e+09
-6.11814e+10
-4.59566e+08
-2.23189e+09
-6.06798e+10
-4.56008e+08
-2.53588e+09
-6.01006e+10
-4.5079e+08
-2.71892e+09
-5.95049e+10
-4.43957e+08
-2.74327e+09
-5.89389e+10
-4.35697e+08
-2.63299e+09
-5.8427e+10
-4.26132e+08
-2.43259e+09
-5.79779e+10
-4.16024e+08
-2.18363e+09
-5.75874e+10
-4.06231e+08
-1.91972e+09
-5.72467e+10
-3.97298e+08
-1.66592e+09
-5.69448e+10
-3.88937e+08
-1.43479e+09
-5.66738e+10
-3.80706e+08
-1.23386e+09
-5.64263e+10
-3.71707e+08
-1.06489e+09
-5.61965e+10
-3.61131e+08
-9.28007e+08
-5.59777e+10
-3.50311e+08
-8.21206e+08
-5.57653e+10
-3.3956e+08
-7.39081e+08
-5.55512e+10
-3.29586e+08
-6.82074e+08
-5.53309e+10
-3.20776e+08
-6.46321e+08
-5.50941e+10
-3.12529e+08
-6.33715e+08
-5.48337e+10
-3.04095e+08
-6.41858e+08
-5.45332e+10
-2.94813e+08
-6.7286e+08
-5.41738e+10
-2.84818e+08
-7.24896e+08
-5.37296e+10
-2.74683e+08
-8.00439e+08
-5.31685e+10
-2.61952e+08
-9.10422e+08
-5.24649e+10
-2.43597e+08
-1.05726e+09
-5.15871e+10
-2.2105e+08
-1.26089e+09
-5.04819e+10
-1.93823e+08
-1.5519e+09
-4.90929e+10
-1.47749e+08
-1.93404e+09
-4.734e+10
-1.02779e+08
-2.38396e+09
-4.54439e+10
-6.88626e+07
-2.6309e+09
-4.39044e+10
-1.41728e+08
-2.46223e+09
-3.68202e+10
-1.34039e+09
-3.82518e+09
-3.31227e+09
-4.91148e+09
-1.4091e+10
-1.67895e+09
-7.68499e+09
-5.57953e+10
5.94951e+08
-5.58788e+10
7.32542e+08
-5.59734e+10
8.01554e+08
-5.60841e+10
8.84105e+08
-5.62062e+10
9.6012e+08
-5.63449e+10
1.03132e+09
-5.65071e+10
1.09894e+09
-5.66884e+10
1.15378e+09
-5.68889e+10
1.19438e+09
-5.71076e+10
1.21319e+09
-5.73366e+10
1.20522e+09
-5.75712e+10
1.1641e+09
-5.78041e+10
1.08417e+09
-5.80268e+10
9.60405e+08
-5.82312e+10
7.91815e+08
-5.84037e+10
5.75342e+08
-5.85304e+10
3.15916e+08
-5.85925e+10
2.05606e+07
-5.85769e+10
-2.99211e+08
-5.84756e+10
-6.31286e+08
-5.82761e+10
-9.74841e+08
-5.79576e+10
-1.31757e+09
-5.75198e+10
-1.60783e+09
-5.70036e+10
-1.76671e+09
-5.64789e+10
-1.75677e+09
-5.59986e+10
-1.60448e+09
-5.55911e+10
-1.36014e+09
-5.52659e+10
-1.06938e+09
-5.50175e+10
-7.68705e+08
-5.48333e+10
-4.8454e+08
-5.4695e+10
-2.28605e+08
-5.45856e+10
-8.04398e+06
-5.44889e+10
1.77769e+08
-5.43881e+10
3.29502e+08
-5.42689e+10
4.48967e+08
-5.41286e+10
5.49011e+08
-5.39615e+10
6.28382e+08
-5.37662e+10
6.92335e+08
-5.35364e+10
7.40321e+08
-5.32695e+10
7.73835e+08
-5.29537e+10
7.91552e+08
-5.25767e+10
7.92667e+08
-5.21236e+10
7.74903e+08
-5.15699e+10
7.2925e+08
-5.08849e+10
6.47786e+08
-5.0023e+10
4.95552e+08
-4.89068e+10
2.34999e+08
-4.74059e+10
-1.81223e+08
-4.53679e+10
-8.03991e+08
-4.29402e+10
-1.10754e+09
-4.01896e+10
-9.66898e+08
-3.54495e+10
-3.65571e+09
-1.68722e+10
-2.21027e+10
-1.44558e+10
-5.99355e+10
-3.65117e+08
8.46772e+07
-5.99451e+10
-3.78266e+08
2.28686e+08
-5.99732e+10
-3.78367e+08
3.10883e+08
-6.00167e+10
-3.82048e+08
4.10357e+08
-6.00777e+10
-3.85016e+08
5.05401e+08
-6.01563e+10
-3.88147e+08
5.98976e+08
-6.02554e+10
-3.9039e+08
6.90391e+08
-6.03783e+10
-3.90936e+08
7.69088e+08
-6.05234e+10
-3.90419e+08
8.31003e+08
-6.0689e+10
-3.89052e+08
8.70846e+08
-6.087e+10
-3.86199e+08
8.78712e+08
-6.10571e+10
-3.81624e+08
8.43396e+08
-6.1244e+10
-3.75785e+08
7.60736e+08
-6.1424e+10
-3.69354e+08
6.24121e+08
-6.15849e+10
-3.63009e+08
4.26761e+08
-6.17168e+10
-3.58842e+08
1.73035e+08
-6.18068e+10
-3.59075e+08
-1.31152e+08
-6.18456e+10
-3.63907e+08
-4.74291e+08
-6.18289e+10
-3.72351e+08
-8.42529e+08
-6.17535e+10
-3.84709e+08
-1.22508e+09
-6.16108e+10
-4.00762e+08
-1.62359e+09
-6.13707e+10
-4.20088e+08
-2.04485e+09
-6.10128e+10
-4.42692e+08
-2.43279e+09
-6.05838e+10
-4.66298e+08
-2.64361e+09
-6.01908e+10
-4.89806e+08
-2.59597e+09
-5.98992e+10
-5.09351e+08
-2.35431e+09
-5.97255e+10
-5.23926e+08
-2.01531e+09
-5.96662e+10
-5.34325e+08
-1.63613e+09
-5.97028e+10
-5.42273e+08
-1.26292e+09
-5.98156e+10
-5.49245e+08
-9.1996e+08
-5.99853e+10
-5.56321e+08
-6.18383e+08
-6.02003e+10
-5.64066e+08
-3.57929e+08
-6.04516e+10
-5.72885e+08
-1.37355e+08
-6.07347e+10
-5.82708e+08
4.79597e+07
-6.10518e+10
-5.92291e+08
2.05731e+08
-6.14025e+10
-5.99528e+08
3.37372e+08
-6.1794e+10
-6.05645e+08
4.5199e+08
-6.22286e+10
-6.09952e+08
5.48522e+08
-6.27182e+10
-6.11247e+08
6.34223e+08
-6.3275e+10
-6.08834e+08
7.114e+08
-6.39106e+10
-6.02997e+08
7.78284e+08
-6.46355e+10
-5.92959e+08
8.35065e+08
-6.54666e+10
-5.77178e+08
8.82971e+08
-6.64245e+10
-5.57146e+08
9.11957e+08
-6.7526e+10
-5.36137e+08
9.10394e+08
-6.87837e+10
-5.16522e+08
8.46454e+08
-7.01848e+10
-4.95746e+08
6.60426e+08
-7.1565e+10
-4.92657e+08
2.32917e+08
-7.23283e+10
-5.79358e+08
-7.21263e+08
-7.12135e+10
-6.58743e+08
-2.72785e+09
-6.59061e+10
-8.08497e+08
-6.26767e+09
-5.38566e+10
-2.55951e+09
-1.24181e+10
-3.26682e+10
-1.13392e+10
-2.34389e+10
-6.17438e+09
-1.00076e+10
-5.79804e+10
3.02553e+08
-5.80866e+10
4.64338e+08
-5.82096e+10
5.50406e+08
-5.83593e+10
6.56352e+08