/*--------------------------------*- C++ -*----------------------------------*\
| =========                 |                                                 |
| \\      /  F ield         | OpenFOAM: The Open Source CFD Toolbox           |
|  \\    /   O peration     | Version:  4.1                                   |
|   \\  /    A nd           | Web:      www.OpenFOAM.org                      |
|    \\/     M anipulation  |                                                 |
\*---------------------------------------------------------------------------*/
FoamFile
{
    version     2.0;
    format      ascii;
    class       volScalarField;
    location    "27";
    object      omega;
}
// * * * * * * * * * * * * * * * * * * * * * * * * * * * * * * * * * * * * * //

dimensions      [0 0 -1 0 0 0 0];

internalField   nonuniform List<scalar> 
4432
(
0.0110942
0.0114466
0.0118119
0.0121347
0.0125158
0.0127939
0.0131566
0.0133999
0.0137161
0.013959
0.0142302
0.0144989
0.0147378
0.0150083
0.0152499
0.0155049
0.0157549
0.0160589
0.0163438
0.0166187
0.0168725
0.0170576
0.0172001
0.017324
0.0174961
0.0177385
0.0187041
0.0211379
0.0242517
0.0276063
0.0305797
0.03348
0.0358583
0.0378656
0.0395954
0.0410892
0.0425784
0.0439308
0.0440823
0.043861
0.044993
0.0444721
0.0450377
0.0440514
0.043419
0.0431436
0.0426865
0.0403153
0.0369773
0.0356925
0.0415264
0.0350776
0.0302996
0.0231915
0.0110704
0.0114707
0.0117687
0.0121831
0.0124618
0.012853
0.0131144
0.0134491
0.0137132
0.0139947
0.0142716
0.014533
0.0148031
0.0150612
0.015307
0.0155556
0.0158141
0.0160944
0.0163694
0.0166472
0.0168156
0.0170391
0.017189
0.0174638
0.01777
0.0181371
0.0198311
0.0224434
0.0249352
0.0278145
0.0305496
0.0332902
0.035801
0.0375866
0.0390531
0.0399469
0.0406203
0.0410576
0.0413682
0.0411515
0.0413147
0.0407958
0.0404614
0.0404638
0.0403367
0.0396717
0.0381371
0.0358227
0.0322481
0.0311154
0.0309915
0.0309219
0.0346814
0.0287907
21.8287
3.39205
1.26228
0.685539
0.446113
0.324117
0.253005
0.207177
0.175303
0.151928
0.134037
0.119981
0.108603
0.0993313
0.091544
0.0851323
0.0796385
0.0749766
0.0707298
0.06722
0.0634948
0.0608615
0.0573995
0.0551642
0.0527177
0.050492
0.0481916
0.0467925
0.0450193
0.0436211
0.0419021
0.0411254
0.0392328
0.0386607
0.0380096
0.037447
0.0373759
0.0366716
0.0362791
0.0382175
0.0358912
0.0372354
0.0387996
0.0364743
0.0366742
0.0380625
0.0431698
0.0426255
0.0450206
0.0456756
0.119307
0.331957
0.48892
0.626048
21.8289
3.39256
1.26288
0.685906
0.446265
0.324156
0.253008
0.207161
0.175272
0.15192
0.133993
0.119985
0.108577
0.099326
0.0915693
0.085081
0.0796696
0.0747509
0.0706406
0.0667481
0.0634067
0.0602967
0.057447
0.0549973
0.0526635
0.0508251
0.0490355
0.0472564
0.0456995
0.0440127
0.0427472
0.04121
0.0407459
0.0389863
0.0383937
0.038202
0.0366623
0.0362458
0.0360741
0.0353923
0.0355241
0.0337437
0.0334569
0.0331982
0.0341194
0.0358652
0.0364287
0.0397861
0.0455939
0.0458737
0.0761793
0.129918
0.297129
0.452935
21.8243
3.38959
1.26036
0.684512
0.445673
0.323997
0.253052
0.207291
0.17545
0.152094
0.134196
0.12016
0.108749
0.0995182
0.0916141
0.0853
0.0795655
0.0752575
0.0709508
0.0678883
0.0643971
0.0619571
0.0589365
0.0567617
0.0543632
0.0522458
0.0500365
0.0483231
0.0465345
0.0446103
0.0430906
0.042231
0.0397271
0.0390656
0.0392922
0.037586
0.0390759
0.0371676
0.0395747
0.0378545
0.0385226
0.0365216
0.0405897
0.0365208
0.0353051
0.0391964
0.0383979
0.0389705
0.0421129
0.0528317
0.00817726
0.309399
0.512498
0.550991
21.8243
3.39012
1.26082
0.684747
0.44577
0.324003
0.253059
0.207243
0.175454
0.152044
0.134202
0.120127
0.10876
0.0994949
0.0917088
0.0853339
0.0798588
0.0753532
0.0713951
0.0680015
0.0648154
0.0621709
0.0592821
0.0570231
0.0548617
0.0524597
0.0503642
0.0486076
0.0461762
0.044835
0.0425704
0.0410399
0.0399163
0.0391424
0.038712
0.0378931
0.0381977
0.0362645
0.0361346
0.0355728
0.0374697
0.038727
0.0359241
0.0363537
0.0369647
0.0343861
0.0344404
0.0393995
0.0384845
0.0575698
0.0276338
0.240484
0.478122
0.454366
21.8234
3.38889
1.25966
0.684045
0.445466
0.323895
0.253036
0.207247
0.175482
0.152039
0.134243
0.120083
0.108833
0.099476
0.0918283
0.0853754
0.0799994
0.0754228
0.0716589
0.0680722
0.0654726
0.0622491
0.0600719
0.057389
0.0553177
0.0527836
0.0505473
0.0477677
0.0464244
0.0425793
0.041456
0.0407776
0.0410452
0.0382224
0.0385889
0.0386292
0.0390474
0.0413031
0.043932
0.0441797
0.0470821
0.0424351
0.0501775
0.0455767
0.0444568
0.0440656
0.0441979
0.0499431
0.0496118
0.0283018
0.187241
0.977109
0.376826
0.586533
21.8234
3.38937
1.25942
0.68389
0.445427
0.323898
0.253049
0.207243
0.175495
0.152019
0.134273
0.12005
0.108867
0.0994206
0.0919146
0.0853748
0.0802285
0.0755224
0.0719697
0.0682487
0.0656283
0.0625516
0.0601243
0.0577009
0.0552959
0.0533888
0.0501659
0.0495218
0.0452682
0.0440029
0.0433867
0.0421093
0.0426688
0.0398719
0.0414832
0.0409739
0.0396535
0.0394125
0.0422843
0.0483029
0.0418574
0.0409833
0.0408992
0.0406688
0.0412871
0.0397966
0.040972
0.0408393
0.0429755
0.0510449
0.0744946
0.859296
0.586835
0.717106
21.8226
3.38827
1.25736
0.682602
0.44488
0.3237
0.253
0.207218
0.175495
0.151976
0.134255
0.119999
0.108911
0.0994736
0.09206
0.0855839
0.0802877
0.0759139
0.0717838
0.0689148
0.0654457
0.06304
0.0604617
0.0570397
0.0552943
0.0498934
0.0480118
0.0484904
0.0464906
0.0443959
0.0447169
0.0407657
0.0403029
0.0420681
0.0552093
0.0440034
0.0446713
0.053739
0.0480865
0.0477242
0.0477441
0.05897
0.0518545
0.0521613
0.0525311
0.0580776
0.0604366
0.0623009
0.0597845
0.0572099
0.115925
0.165315
1.13846
0.928283
21.8223
3.38873
1.25959
0.684065
0.44549
0.323926
0.253041
0.207266
0.17545
0.152037
0.1342
0.12005
0.108802
0.0993874
0.0918171
0.0851786
0.0798841
0.0749913
0.0712417
0.0674309
0.064664
0.0614734
0.0592969
0.0560145
0.053311
0.0513065
0.0486586
0.0487354
0.044069
0.0431105
0.0420696
0.0426112
0.0408484
0.0404349
0.0407958
0.0479747
0.0405439
0.0414951
0.0519843
0.0440199
0.0441647
0.0515531
0.055821
0.0503128
0.0498762
0.0567545
0.049825
0.0508534
0.0545476
0.0576316
0.0732495
0.189779
0.796874
0.801607
21.8207
3.3876
1.25798
0.683043
0.445053
0.323778
0.252974
0.207224
0.17543
0.151967
0.134223
0.119923
0.108883
0.0991997
0.0919607
0.0850331
0.080147
0.0751197
0.0717296
0.0681069
0.0653953
0.0624646
0.0599889
0.0572661
0.0532953
0.050627
0.0497803
0.0448421
0.0438134
0.0450614
0.0410493
0.0439127
0.0448211
0.0405023
0.0412791
0.0491781
0.0542002
0.0600719
0.0539523
0.0626824
0.0551219
0.0605646
0.0545224
0.06239
0.0543642
0.0537842
0.0540863
0.0607493
0.0579736
0.0635079
0.0864993
0.0779001
0.227812
0.399418
21.8207
3.38797
1.25868
0.683466
0.445197
0.323811
0.252983
0.207265
0.175432
0.152066
0.134174
0.12011
0.108758
0.0994326
0.0917023
0.085078
0.079624
0.0747577
0.0708113
0.0672772
0.0643219
0.0610329
0.0587776
0.0551097
0.0515757
0.0507835
0.0456766
0.0445446
0.0463884
0.042546
0.041697
0.041108
0.0406805
0.0405187
0.0430157
0.0467836
0.0418339
0.042347
0.0472102
0.0541991
0.0481398
0.0484668
0.0483041
0.057012
0.0505373
0.0505552
0.0564752
0.0527701
0.0539674
0.0632397
0.0710344
0.0950081
0.186672
0.262435
21.8194
3.3872
1.2575
0.682711
0.444843
0.323685
0.252905
0.207264
0.175352
0.152076
0.134036
0.120096
0.108551
0.0994055
0.0914954
0.0851516
0.0796048
0.0749605
0.0712622
0.0677037
0.0649265
0.0619068
0.0596054
0.0562957
0.0532812
0.050196
0.0493324
0.0445626
0.0433375
0.0422085
0.0437972
0.0416396
0.0418253
0.0462646
0.0450531
0.047488
0.04977
0.0524981
0.0540139
0.0548771
0.0553582
0.055334
0.0552049
0.0546018
0.0545473
0.0593204
0.0601819
0.0628755
0.057437
0.0623252
0.0736148
0.0772612
0.106088
0.102081
21.8194
3.38731
1.25798
0.683015
0.444991
0.323734
0.252947
0.207251
0.175408
0.152049
0.134128
0.120068
0.108665
0.0993743
0.0915814
0.0850619
0.0795257
0.0747742
0.070726
0.0673305
0.0642062
0.0611328
0.0590954
0.0542167
0.0520028
0.0497479
0.0486182
0.0443334
0.0435965
0.045559
0.0419384
0.0441365
0.0414482
0.0421567
0.0482194
0.0544724
0.0522977
0.0582228
0.0510817
0.0576415
0.0518594
0.0519696
0.0512053
0.0560386
0.064258
0.0543356
0.0577551
0.0602466
0.0552796
0.0598455
0.0686639
0.0721354
0.109675
0.116594
21.8174
3.3858
1.25565
0.681649
0.444445
0.323574
0.252927
0.207254
0.175406
0.152041
0.134066
0.12002
0.108548
0.0993242
0.0914706
0.0851844
0.0793832
0.0752226
0.0707062
0.0677591
0.0646434
0.0620156
0.0589177
0.0569676
0.0524357
0.0499281
0.0481619
0.0477761
0.045692
0.0450465
0.046976
0.0590874
0.046829
0.0493413
0.0590853
0.0775057
0.066561
0.0783682
0.0703032
0.0696667
0.0753263
0.077983
0.0762095
0.0783973
0.0680842
0.066288
0.064059
0.072429
0.0641484
0.0629031
0.0645644
0.0764244
0.0721594
0.0757359
21.8174
3.3863
1.25609
0.681925
0.444577
0.323644
0.252936
0.207317
0.175402
0.152129
0.134076
0.12013
0.10857
0.0993851
0.0914798
0.0850118
0.0794248
0.0746213
0.0706166
0.0671204
0.0636653
0.061371
0.0576782
0.0559186
0.0505381
0.0488097
0.0490656
0.0463752
0.0473673
0.0437997
0.0432576
0.0487412
0.0435933
0.0449027
0.0518363
0.0562402
0.0589104
0.0624926
0.0676762
0.0598537
0.063269
0.0579387
0.0567416
0.0554537
0.0553183
0.0584803
0.0541177
0.0605776
0.0545732
0.0556247
0.0637852
0.0772435
0.0768062
0.0787354
21.8162
3.38535
1.25558
0.681559
0.444373
0.323532
0.252909
0.207212
0.175374
0.151959
0.134002
0.119909
0.108456
0.0991755
0.0913376
0.0848979
0.0790701
0.0746946
0.0699082
0.0670228
0.0635866
0.0612941
0.058257
0.0558921
0.0526412
0.0500977
0.0492112
0.0464702
0.0454039
0.0467136
0.0528828
0.0599172
0.0714476
0.0736503
0.0885913
0.0752668
0.0759062
0.0752114
0.0747076
0.0738121
0.0774764
0.0763852
0.0790349
0.0712202
0.0702906
0.068972
0.0794292
0.0684162
0.06789
0.0679553
0.0673189
0.0716747
0.0748726
0.0779684
21.8159
3.38564
1.25639
0.682201
0.4447
0.323709
0.252968
0.207336
0.175377
0.152127
0.133978
0.120143
0.108386
0.0994104
0.0911199
0.0849451
0.0787492
0.0743622
0.0696372
0.0665167
0.062916
0.0607338
0.0571871
0.055745
0.0513251
0.0494471
0.0490514
0.0448248
0.0447983
0.0435128
0.0437308
0.0510147
0.04654
0.048545
0.0526288
0.0659914
0.0586834
0.0584459
0.0647694
0.0729382
0.0640456
0.0677738
0.0699571
0.0688732
0.0683579
0.0673782
0.0638618
0.0601717
0.0640455
0.0583205
0.0592168
0.0725535
0.0759525
0.0871722
21.8139
3.38415
1.25449
0.680984
0.444134
0.323415
0.252877
0.207173
0.175373
0.151907
0.133985
0.119821
0.108354
0.0989555
0.0910041
0.0844682
0.0785034
0.0740826
0.0694049
0.0662585
0.0635309
0.060493
0.0577689
0.0547177
0.0532614
0.0486644
0.0488416
0.0527245
0.0579812
0.0673986
0.0704345
0.0857337
0.0732291
0.0780811
0.0867681
0.0786956
0.0791603
0.0775856
0.0804943
0.0737927
0.0801572
0.0713658
0.0698645
0.0690453
0.0726461
0.0691891
0.0694782
0.0678085
0.0741035
0.0729616
0.0723385
0.0973463
0.103479
0.121469
21.814
3.38443
1.2549
0.681233
0.444265
0.32353
0.252899
0.20729
0.175369
0.152086
0.133973
0.120064
0.108326
0.0992602
0.0909409
0.0847707
0.078471
0.0742185
0.0693927
0.0663814
0.0626297
0.0609111
0.0561811
0.0541727
0.0524612
0.0485483
0.0484539
0.0465909
0.047194
0.0504077
0.0629395
0.0583052
0.0614801
0.062797
0.0644139
0.0685256
0.0807464
0.068975
0.0750625
0.0823386
0.0740027
0.0829756
0.0740393
0.0788126
0.0807527
0.0782433
0.0773046
0.0695451
0.0675218
0.0681546
0.0676303
0.12775
0.111644
0.122898
21.813
3.38387
1.25303
0.680014
0.443772
0.323295
0.252879
0.207147
0.175424
0.151857
0.134022
0.119722
0.10831
0.0988272
0.0909152
0.0843586
0.0785188
0.07389
0.0695348
0.0658219
0.0635733
0.0598538
0.0570845
0.0541066
0.0501442
0.0489263
0.0534996
0.0682696
0.0544194
0.0581675
0.0634686
0.069457
0.0731682
0.0781409
0.0838129
0.0845619
0.0873426
0.0864748
0.0899611
0.0859029
0.0837856
0.0803236
0.0765152
0.0726353
0.0705994
0.0746586
0.0647984
0.0726254
0.0625939
0.0635808
0.0757604
0.163116
0.152001
0.159323
21.8127
3.38427
1.25416
0.680771
0.444087
0.323492
0.252964
0.207314
0.175457
0.152059
0.134047
0.119944
0.108364
0.0990326
0.0909108
0.0844655
0.0783015
0.0738328
0.069096
0.0655963
0.0625441
0.059265
0.0573771
0.0539082
0.0517714
0.0525252
0.05571
0.0606988
0.0691822
0.073463
0.0858521
0.0721987
0.0738186
0.0739138
0.0742008
0.0818773
0.0772016
0.0772967
0.0777029
0.077366
0.0774881
0.0763971
0.075469
0.0740173
0.0724758
0.0702367
0.0783276
0.0667468
0.06953
0.0697847
0.0895137
0.273951
0.313541
0.185117
21.8109
3.38294
1.25216
0.6795
0.443541
0.323204
0.252858
0.2071
0.175424
0.151751
0.134004
0.11954
0.108225
0.0986232
0.0906624
0.0842089
0.0780605
0.0737252
0.0688031
0.0657537
0.0618618
0.0595136
0.0562231
0.0531748
0.0517517
0.0508687
0.0747785
0.0586816
0.0620306
0.0787178
0.0973052
0.0990943
0.104505
0.114267
0.111252
0.0995436
0.102064
0.10305
0.106366
0.108448
0.106165
0.106086
0.0991802
0.0940544
0.0908761
0.0836071
0.0852185
0.0673637
0.0738698
0.0672983
0.12898
0.176922
0.314033
0.180208
21.8107
3.38316
1.25352
0.68042
0.443965
0.323429
0.252948
0.20727
0.175431
0.151969
0.133981
0.119807
0.108232
0.0988341
0.0906602
0.0841299
0.0779056
0.073222
0.068563
0.0647815
0.0617956
0.0585101
0.0560141
0.0534419
0.049987
0.0533506
0.0476068
0.0499212
0.0608519
0.07186
0.0688998
0.0753884
0.0962925
0.0924485
0.099527
0.0887879
0.0958207
0.102856
0.0871986
0.0968477
0.0840945
0.0952116
0.0827305
0.0806892
0.094046
0.0994093
0.0993035
0.094335
0.0919461
0.0815523
0.141401
0.207121
0.237102
0.213499
21.8099
3.38248
1.25134
0.679059
0.443389
0.323206
0.252875
0.207153
0.175423
0.151768
0.134014
0.119435
0.108326
0.0982764
0.0909087
0.0834923
0.0783501
0.0725989
0.0687332
0.0642944
0.0609723
0.0581423
0.0541885
0.0531129
0.0542681
0.0753906
0.0650449
0.0693964
0.0860349
0.109199
0.115053
0.116425
0.130534
0.105839
0.1062
0.115197
0.129928
0.128161
0.138065
0.140357
0.151066
0.125324
0.136604
0.106946
0.106962
0.0990403
0.0925479
0.0790626
0.0810293
0.0661899
0.0766989
0.128301
0.154142
0.16718
21.8096
3.38271
1.25295
0.680132
0.443843
0.32341
0.252942
0.207294
0.17544
0.151987
0.133984
0.119784
0.108204
0.0987335
0.090566
0.083911
0.0776852
0.0729125
0.0680543
0.0645353
0.0608187
0.0581883
0.0552105
0.0527138
0.0528057
0.0538614
0.0556352
0.0687193
0.0791003
0.0802953
0.0881813
0.0945104
0.118475
0.0951006
0.0981618
0.0992208
0.111814
0.0953348
0.107366
0.0961642
0.0960959
0.104233
0.125893
0.0900884
0.10078
0.106227
0.104233
0.0974614
0.0914829
0.0782035
0.113594
0.171472
0.209869
0.211115
21.808
3.38129
1.25133
0.679187
0.443433
0.323236
0.252849
0.207201
0.175351
0.151821
0.13388
0.119473
0.108111
0.0982174
0.0904592
0.0831481
0.0774656
0.0718166
0.0675381
0.0628411
0.0598668
0.0558834
0.0539795
0.0543319
0.0884417
0.115844
0.14639
0.137779
0.123567
0.11977
0.129673
0.118122
0.116854
0.131492
0.135838
0.146991
0.14878
0.156502
0.164871
0.147476
0.138713
0.120568
0.110663
0.0961952
0.0861735
0.0928889
0.0826178
0.0767465
0.0827422
0.0723413
0.0797621
0.103561
0.134875
0.173691
21.808
3.38202
1.25148
0.679253
0.443524
0.323344
0.252937
0.207312
0.175439
0.151963
0.133965
0.119694
0.108158
0.0985673
0.0904826
0.0836178
0.0776825
0.0723033
0.0682043
0.0635211
0.0607742
0.0571161
0.055102
0.0550506
0.0661563
0.0965644
0.11257
0.10936
0.114373
0.103875
0.117315
0.123767
0.141457
0.120217
0.126727
0.127053
0.130236
0.14779
0.129535
0.138246
0.148055
0.138561
0.121612
0.0958699
0.0743896
0.0847667
0.0939792
0.0898132
0.0919388
0.0775905
0.106746
0.12405
0.1812
0.267445
21.8073
3.38103
1.25089
0.678911
0.443341
0.323201
0.252895
0.207175
0.175453
0.151746
0.13402
0.119339
0.10827
0.0979922
0.090647
0.0827677
0.0776907
0.0713394
0.0676416
0.0626519
0.0586509
0.0559301
0.0549525
0.0742096
0.231121
0.267619
0.18917
0.164555
0.123938
0.127303
0.122456
0.13415
0.113884
0.128558
0.152804
0.154387
0.152931
0.152425
0.158005
0.151269
0.145462
0.131983
0.118371
0.104808
0.106859
0.0982268
0.0823467
0.0842416
0.0836094
0.0789019
0.0936227
0.105929
0.153645
0.178793
21.8072
3.38169
1.25135
0.679186
0.443492
0.323354
0.252966
0.207362
0.17548
0.152004
0.133994
0.119684
0.108188
0.0984484
0.090555
0.0833556
0.0777502
0.0719752
0.0682118
0.0630548
0.0608666
0.0562988
0.0562233
0.0682528
0.141738
0.321665
0.21493
0.161586
0.14387
0.115344
0.126463
0.130295
0.154956
0.125688
0.132764
0.137576
0.160639
0.148863
0.173907
0.158559
0.161554
0.157378
0.148257
0.139368
0.144228
0.13237
0.115187
0.0979547
0.0912824
0.084334
0.0857528
0.116704
0.170451
0.279258
21.8058
3.38041
1.25063
0.678799
0.4433
0.323197
0.252908
0.207185
0.17546
0.151754
0.133989
0.119354
0.108174
0.0980047
0.090516
0.0827272
0.0775387
0.0712165
0.0675275
0.0620516
0.0593392
0.0544789
0.055597
0.10958
0.393139
0.202447
0.155065
0.110593
0.108374
0.121922
0.117618
0.12288
0.140983
0.156239
0.160147
0.158378
0.16021
0.165043
0.165604
0.162442
0.150848
0.134544
0.125746
0.138526
0.11057
0.119159
0.0970646
0.092049
0.0994328
0.0888714
0.0991515
0.129698
0.186991
21.8058
3.38071
1.25041
0.678645
0.443297
0.323306
0.252991
0.207375
0.175522
0.152013
0.134016
0.119703
0.108167
0.0984845
0.090503
0.0833615
0.0777836
0.0719461
0.0683217
0.0631842
0.0607787
0.05607
0.0586511
0.121446
0.258448
0.180311
0.157414
0.110805
0.110679
0.103281
0.109624
0.129252
0.149716
0.170276
0.154049
0.155092
0.156103
0.154592
0.156674
0.167649
0.183906
0.164364
0.15989
0.153185
0.164256
0.161316
0.153436
0.13735
0.117947
0.0906542
0.0979357
0.15003
0.315765
21.8054
3.38039
1.24993
0.678319
0.443117
0.323185
0.252909
0.207265
0.17544
0.151871
0.133908
0.119534
0.107992
0.098335
0.0901353
0.0832927
0.0769648
0.0719809
0.0667688
0.0632898
0.0584841
0.056084
0.0526787
0.0537844
0.0857783
0.0678876
0.0647289
0.0569791
0.0642935
0.068674
0.106088
0.112972
0.132033
0.148739
0.158155
0.160134
0.162873
0.159677
0.160932
0.159906
0.166326
0.141384
0.142267
0.116395
0.113561
0.106253
0.116127
0.107322
0.0983135
0.0935316
0.0900421
0.0910778
0.1274
0.244918
21.8054
3.38066
1.25002
0.678407
0.44322
0.323309
0.25301
0.207412
0.175522
0.152082
0.133969
0.119833
0.108081
0.0987234
0.0904636
0.0837976
0.0777703
0.0727975
0.0680208
0.0646337
0.0602098
0.0582815
0.0548207
0.0567656
0.0841623
0.064339
0.0590101
0.0541284
0.0534475
0.0632482
0.102852
0.121132
0.138873
0.141336
0.147821
0.151067
0.152992
0.156702
0.150385
0.154623
0.150259
0.149258
0.146065
0.138023
0.136699
0.13032
0.122671
0.115047
0.104791
0.102497
0.0957186
0.125339
0.220801
0.409463
21.8043
3.37993
1.2497
0.678239
0.443092
0.323206
0.252922
0.207335
0.17544
0.151999
0.133885
0.119726
0.107968
0.0985331
0.0902085
0.0833735
0.0772929
0.0718338
0.0675539
0.0628158
0.0596154
0.056319
0.0526318
0.0511699
0.0471594
0.0494035
0.0495091
0.0489033
0.0524184
0.0642208
0.11402
0.122102
0.144656
0.157417
0.15852
0.159432
0.158372
0.157169
0.153865
0.147172
0.139698
0.135406
0.137423
0.112239
0.121243
0.112004
0.102399
0.0807801
0.0879331
0.0828167
0.0796456
0.0776452
0.0869626
0.205993
21.8048
3.38009
1.2472
0.676613
0.442503
0.323097
0.252996
0.207454
0.175605
0.152121
0.134082
0.119846
0.108312
0.0988508
0.0909519
0.0842242
0.078532
0.0734755
0.0690467
0.0651238
0.0615678
0.0579787
0.0560211
0.0523264
0.0498236
0.0488543
0.0440327
0.0477019
0.04496
0.0590155
0.0896298
0.111951
0.129049
0.140674
0.150029
0.147418
0.15025
0.152971
0.152673
0.149106
0.144467
0.140338
0.134895
0.130369
0.124203
0.108516
0.110643
0.104429
0.0942922
0.0892101
0.0889481
0.0834891
0.152952
0.240044
21.8043
3.37987
1.24938
0.677996
0.443007
0.323206
0.252963
0.207378
0.175508
0.152019
0.133981
0.119698
0.108135
0.0984566
0.0904825
0.0833079
0.077646
0.0719464
0.0678763
0.0632278
0.0601646
0.05612
0.0539982
0.0485717
0.0468858
0.0450295
0.0439226
0.0460929
0.0425073
0.0588637
0.103052
0.140767
0.129314
0.143424
0.154217
0.157351
0.157725
0.157072
0.153003
0.14235
0.139158
0.149884
0.143231
0.134855
0.124091
0.104851
0.0878082
0.0653473
0.0716271
0.0603935
0.0547435
0.0553126
0.0600096
0.0863056
21.8043
3.38018
1.24888
0.677686
0.442952
0.323283
0.253069
0.207526
0.175633
0.152199
0.134121
0.119912
0.108287
0.0987678
0.09068
0.083917
0.0779672
0.0730426
0.068439
0.0647693
0.0610746
0.0580491
0.0551489
0.0515983
0.049074
0.0467786
0.0435038
0.0426944
0.0420016
0.0504086
0.0768213
0.097883
0.114844
0.125603
0.135734
0.145282
0.142104
0.145443
0.145822
0.142499
0.140586
0.14051
0.136597
0.126551
0.113121
0.0975902
0.0830998
0.0725056
0.0597116
0.0607221
0.0585338
0.0622711
0.0690711
0.170387
21.8035
3.37948
1.24899
0.677837
0.442959
0.323212
0.252998
0.20742
0.175579
0.152068
0.134086
0.119754
0.108251
0.0985714
0.0905303
0.0835954
0.0775316
0.0724512
0.0676765
0.0638165
0.0600691
0.0570097
0.0534838
0.0506489
0.0477828
0.0436634
0.0456005
0.0515556
0.0553598
0.0525874
0.085541
0.124801
0.140038
0.137884
0.139968
0.152168
0.155897
0.154559
0.148065
0.144013
0.152839
0.157461
0.159956
0.141675
0.110144
0.0842397
0.0681725
0.0530172
0.0572679
0.0502641
0.0488414
0.0478231
0.0576344
0.063794
21.8034
3.37986
1.24914
0.677964
0.443097
0.32336
0.253135
0.207578
0.175707
0.152265
0.134191
0.120016
0.10833
0.0989035
0.0906346
0.083928
0.0777767
0.072676
0.0681197
0.0639986
0.0605913
0.0573993
0.0546195
0.0524184
0.0497589
0.0465999
0.0446467
0.0439821
0.0430317
0.0484925
0.0716986
0.09325
0.109634
0.118308
0.1272
0.129076
0.131132
0.131689
0.130073
0.128794
0.128531
0.122561
0.110786
0.0961474
0.0807776
0.0681782
0.0587138
0.0512684
0.0474183
0.0461034
0.0453448
0.0452342
0.0557099
0.0690556
21.8036
3.37965
1.24875
0.677673
0.442934
0.323233
0.253047
0.207481
0.175649
0.15215
0.134172
0.119853
0.10837
0.0986761
0.0907311
0.0837161
0.0778549
0.0726286
0.0681556
0.0639933
0.0609364
0.0570665
0.0549471
0.0517094
0.0493934
0.0468436
0.0432254
0.0428182
0.0425237
0.0567776
0.0687137
0.0982788
0.114105
0.124329
0.12415
0.124476
0.128006
0.13132
0.13619
0.145747
0.160053
0.159376
0.131755
0.0995138
0.0742516
0.0587062
0.0503014
0.0449368
0.0458562
0.0447598
0.0458059
0.0451876
0.0702839
0.0692973
21.8034
3.37994
1.24898
0.677858
0.443085
0.32337
0.253184
0.207618
0.175793
0.152297
0.134324
0.120018
0.108529
0.0988727
0.0909016
0.0839463
0.0780641
0.0729133
0.0683316
0.064517
0.0608073
0.0578871
0.0551253
0.0525931
0.0506548
0.0480125
0.0442717
0.0430606
0.041999
0.0443438
0.0703375
0.0681734
0.0744664
0.0880269
0.0961573
0.103025
0.102818
0.104793
0.104895
0.102601
0.0970583
0.0858092
0.0736371
0.0626754
0.0544847
0.048595
0.0447453
0.041556
0.0415448
0.0406226
0.0440717
0.0450289
0.0917323
0.0909193
21.8031
3.37942
1.24908
0.677845
0.442999
0.323301
0.253098
0.207544
0.175693
0.152237
0.134205
0.119992
0.108385
0.0988984
0.0907216
0.084012
0.0778367
0.072948
0.0681302
0.0644451
0.0607524
0.0578077
0.0551951
0.0523979
0.0504151
0.0477906
0.0439452
0.0428827
0.0418128
0.0468098
0.0454828
0.0566911
0.0783942
0.0937952
0.103229
0.110659
0.112858
0.122163
0.127204
0.125793
0.118765
0.0985898
0.0747995
0.0585878
0.0488588
0.0439178
0.0405868
0.0385868
0.0385937
0.0401611
0.0436349
0.0479825
0.0926269
0.0863041
21.803
3.37976
1.24918
0.678022
0.443174
0.323429
0.253239
0.207674
0.175855
0.152371
0.134396
0.120121
0.108604
0.0990321
0.0909477
0.0842372
0.0780152
0.0734097
0.0682661
0.0649779
0.0612473
0.0580413
0.0551846
0.0521743
0.0504979
0.047856
0.0459957
0.0437407
0.0434071
0.0406078
0.0470271
0.0633313
0.0709587
0.0798502
0.0775472
0.0803585
0.0814419
0.0800045
0.0766794
0.0709104
0.0631716
0.0554655
0.0496169
0.0451447
0.0423691
0.0402179
0.0391751
0.0375358
0.0380226
0.038551
0.0510082
0.0718996
0.159063
0.149403
21.8033
3.3795
1.24899
0.677897
0.443065
0.323339
0.253142
0.207584
0.175759
0.15229
0.134302
0.120054
0.108532
0.0989549
0.0909576
0.0840244
0.0781894
0.0728729
0.068542
0.0643472
0.0610012
0.0579721
0.0552087
0.052439
0.0505187
0.0479306
0.0462895
0.042955
0.0417087
0.0406741
0.0455867
0.0566104
0.0700641
0.0814487
0.0779942
0.0811655
0.0842993
0.0848156
0.0821002
0.0745722
0.0636804
0.0536145
0.0464194
0.0423052
0.0398366
0.0383613
0.0370957
0.0362587
0.0364833
0.0392376
0.0440413
0.0634881
0.143982
0.136949
21.8032
3.37997
1.24927
0.678074
0.443215
0.323475
0.253271
0.207739
0.175887
0.152466
0.134433
0.120244
0.108671
0.099145
0.0911121
0.0842233
0.0783602
0.073143
0.0687133
0.0647844
0.0611197
0.0587865
0.0549964
0.0525112
0.0500756
0.0480229
0.0468051
0.0433565
0.0420802
0.0408811
0.0421419
0.0473718
0.0523555
0.0576849
0.0574263
0.0583979
0.057706
0.055618
0.0525735
0.0488275
0.0454898
0.0427903
0.0409338
0.0395965
0.038618
0.0378779
0.037114
0.0362
0.0369777
0.0454612
0.0526059
0.136631
0.386501
0.187326
21.8031
3.37945
1.24872
0.677719
0.443018
0.323332
0.253174
0.207624
0.175816
0.152352
0.134377
0.120139
0.108626
0.0990657
0.0910789
0.0841751
0.0783464
0.0730958
0.0687367
0.0646394
0.0613586
0.058116
0.0558299
0.0531004
0.0505179
0.048406
0.0465993
0.0436952
0.0438599
0.0400817
0.0412619
0.0451002
0.0485772
0.0530367
0.0517079
0.0526528
0.0522121
0.0502586
0.047295
0.0445357
0.0420983
0.0404525
0.0391878
0.0384015
0.0378061
0.0373318
0.0364502
0.0357766
0.0360443
0.0420559
0.0520232
0.103568
0.308231
0.162018
21.803
3.37982
1.2493
0.678129
0.443256
0.323515
0.253318
0.207772
0.175954
0.152506
0.134522
0.120305
0.108775
0.099254
0.0912076
0.0843981
0.0784345
0.0733451
0.0688072
0.0648856
0.061471
0.0583487
0.0560371
0.0530328
0.052443
0.0477822
0.0462872
0.0452861
0.0439701
0.0421473
0.0421139
0.0394335
0.0395713
0.0398982
0.0429887
0.0411071
0.0427935
0.0432657
0.0427143
0.0416769
0.040725
0.0397868
0.0390293
0.0384682
0.0377358
0.0373385
0.0360581
0.0356948
0.0367369
0.0539037
0.0633967
0.28379
0.236458
0.230484
21.8034
3.37963
1.24903
0.677917
0.443112
0.323391
0.253218
0.207672
0.175865
0.15241
0.134441
0.120212
0.108709
0.0991662
0.0911805
0.0843146
0.0784558
0.0732819
0.0688551
0.0648642
0.0615328
0.0583749
0.0561065
0.053152
0.0525951
0.0478607
0.0463449
0.0453583
0.044039
0.0421989
0.0419637
0.0390306
0.0387908
0.0387195
0.0419721
0.0395971
0.0414826
0.0421811
0.0416428
0.0410373
0.0401804
0.0395825
0.0388089
0.0382256
0.0373625
0.0360534
0.0345002
0.0345546
0.0350974
0.0471588
0.0663533
0.124013
0.331188
0.190988
21.8032
3.37998
1.24921
0.678005
0.443203
0.323508
0.253339
0.207803
0.175998
0.152555
0.134585
0.120369
0.108858
0.0993374
0.0913209
0.0844999
0.0785743
0.0734644
0.0689516
0.0650315
0.0615851
0.0585854
0.0559575
0.0536765
0.0517062
0.0499267
0.0484212
0.0470862
0.045931
0.0448898
0.0440395
0.0433892
0.0427398
0.0427131
0.0426835
0.0423775
0.0419257
0.0413028
0.0406242
0.0398597
0.0392234
0.0384619
0.0379115
0.0373095
0.0367272
0.0354405
0.0346195
0.035146
0.0363502
0.0638226
0.0846961
0.292455
0.269338
0.258103
21.8034
3.3797
1.24894
0.677865
0.443104
0.323416
0.253247
0.207707
0.175908
0.152461
0.134499
0.120281
0.108786
0.0992596
0.0912817
0.0844423
0.0785863
0.0734487
0.0690046
0.0650716
0.0616554
0.0586378
0.0560335
0.0537193
0.0517475
0.049998
0.0484439
0.0471026
0.0459787
0.0447775
0.0439251
0.0428755
0.0424366
0.0418598
0.0415364
0.0411784
0.040591
0.0400576
0.0392818
0.0386323
0.0378546
0.0371435
0.036438
0.0355164
0.0345117
0.0337522
0.033574
0.0351484
0.0393575
0.0510654
0.0955509
0.157382
0.217074
0.208507
21.8033
3.38001
1.2493
0.678119
0.443285
0.323572
0.253387
0.20785
0.176045
0.152607
0.134641
0.120434
0.108927
0.0994198
0.0914077
0.0846023
0.0786797
0.0735898
0.0690576
0.0651734
0.061668
0.0587016
0.0560147
0.0537565
0.0517046
0.0499993
0.0484249
0.0471305
0.0458917
0.0449753
0.0440951
0.0434597
0.0428172
0.0423536
0.0417738
0.0412456
0.0405659
0.0399447
0.0392445
0.0385935
0.037993
0.0373177
0.0367324
0.0361934
0.0349734
0.0338574
0.0344036
0.0367324
0.0371977
0.0810399
0.11583
0.195494
0.285116
0.166966
21.8037
3.37991
1.24926
0.678063
0.443195
0.323463
0.25328
0.207738
0.175942
0.152498
0.134544
0.120328
0.108843
0.0993208
0.0913513
0.0845188
0.0786632
0.073526
0.0690666
0.065115
0.0616718
0.0586344
0.0560085
0.0537081
0.0517412
0.0500077
0.0485022
0.0471406
0.046
0.0449379
0.0440383
0.0432126
0.0424638
0.0417949
0.0410384
0.0403771
0.0395748
0.0388279
0.0381026
0.0372578
0.0366944
0.03584
0.0349467
0.0340692
0.0330529
0.033087
0.0349674
0.0412667
0.0475558
0.0840788
0.194401
0.299071
0.430703
0.327492
21.8036
3.3802
1.24938
0.678201
0.443308
0.32358
0.253402
0.207869
0.17607
0.152638
0.134679
0.120477
0.108983
0.0994737
0.0914903
0.0846709
0.0788007
0.0736835
0.0692189
0.0652984
0.0618652
0.0588638
0.0562322
0.0539622
0.0519453
0.0502231
0.0486833
0.0473548
0.0461377
0.0450863
0.0441802
0.0433807
0.042643
0.0419587
0.0412217
0.0405625
0.0397752
0.0390687
0.0383497
0.0375839
0.0369487
0.0362266
0.0351594
0.0344365
0.0334319
0.0332717
0.0358142
0.0403274
0.0477682
0.165819
0.230233
0.304608
0.212727
0.229294
21.8036
3.37995
1.24921
0.678007
0.443191
0.323474
0.253297
0.207765
0.175969
0.152538
0.134583
0.120384
0.108896
0.0993965
0.0914251
0.0846241
0.078772
0.073678
0.0692274
0.065317
0.0618792
0.0588562
0.0562124
0.053888
0.0518657
0.0500691
0.0485199
0.0471053
0.0459205
0.0447796
0.0438497
0.0428663
0.0421015
0.0411699
0.0404719
0.0395671
0.0388011
0.0380309
0.037083
0.0365139
0.0355039
0.0348034
0.033624
0.033309
0.0344862
0.0362139
0.0426798
0.0517062
0.0693132
0.119815
0.323664
0.510349
0.601514
0.747803
21.8034
3.38023
1.24945
0.678187
0.443326
0.323597
0.253418
0.207888
0.176094
0.152668
0.134714
0.120523
0.10903
0.0995384
0.0915516
0.0847613
0.0788828
0.0738029
0.0693243
0.0654355
0.061985
0.0589917
0.0563528
0.05405
0.0520466
0.0502693
0.0487442
0.0473614
0.0461848
0.0450639
0.044138
0.0431834
0.0424133
0.0415182
0.0408176
0.0399076
0.0392293
0.038312
0.0375881
0.036819
0.0357927
0.0351498
0.0336013
0.0334229
0.0343496
0.0361522
0.0421853
0.0486292
0.0792227
0.241691
0.442908
0.455873
0.562104
0.665888
21.8018
3.37905
1.24837
0.677458
0.44281
0.323183
0.253042
0.20753
0.175735
0.152316
0.134354
0.120173
0.108685
0.099236
0.0913186
0.0846396
0.0789205
0.0739988
0.069723
0.065962
0.0626739
0.0597115
0.0571402
0.0547608
0.0527345
0.0508012
0.0492025
0.0476453
0.0463901
0.0451245
0.0441384
0.0430391
0.04227
0.0412425
0.0405147
0.0397051
0.0388162
0.0378426
0.0364588
0.0354762
0.0344775
0.033114
0.0336288
0.0347271
0.0382391
0.0417573
0.0505273
0.0573079
0.0923488
0.0995366
0.298197
0.640821
0.663026
0.679456
21.802
3.37964
1.24877
0.677709
0.442985
0.323322