/*--------------------------------*- C++ -*----------------------------------*\
| =========                 |                                                 |
| \\      /  F ield         | OpenFOAM: The Open Source CFD Toolbox           |
|  \\    /   O peration     | Version:  4.1                                   |
|   \\  /    A nd           | Web:      www.OpenFOAM.org                      |
|    \\/     M anipulation  |                                                 |
\*---------------------------------------------------------------------------*/
FoamFile
{
    version     2.0;
    format      ascii;
    class       volScalarField;
    location    "27";
    object      p;
}
// * * * * * * * * * * * * * * * * * * * * * * * * * * * * * * * * * * * * * //

dimensions      [0 2 -2 0 0 0 0];

internalField   nonuniform List<scalar> 
4432
(
100898
100897
100891
100884
100878
100875
100875
100879
100884
100890
100896
100900
100902
100902
100900
100900
100901
100907
100936
100981
101054
101076
101040
101070
101137
101157
101119
101053
100976
100878
100753
100603
100553
100553
100572
100446
100151
100162
100197
100216
100250
100242
100347
100475
100605
101076
100827
100299
100334
100978
101665
100377
92986.5
89169.4
100897
100896
100890
100884
100878
100875
100876
100879
100885
100891
100896
100900
100902
100903
100902
100902
100901
100908
100933
100975
101034
101096
101092
101076
101093
101141
101132
101033
100943
100879
100792
100640
100580
100472
100374
100336
100326
100266
100176
100149
100174
100259
100399
100463
100369
100849
100897
100407
100512
100999
101833
100936
92774.4
88285.8
100896
100894
100888
100880
100874
100870
100871
100874
100880
100888
100895
100902
100908
100912
100915
100918
100924
100931
100971
101036
101071
101083
101092
101110
101117
101103
101074
101032
100966
100866
100716
100511
100317
100221
100182
100158
100215
100237
100213
100211
100178
100171
100248
100396
100525
100683
100676
100296
100233
100476
101495
100314
90167.1
95798.2
100896
100893
100887
100880
100874
100870
100871
100875
100881
100888
100896
100902
100908
100912
100915
100919
100925
100931
100974
101038
101073
101082
101085
101099
101112
101108
101086
101041
100974
100884
100732
100520
100329
100245
100255
100249
100260
100235
100203
100149
100108
100120
100199
100394
100530
100723
100802
100564
100715
101104
101721
100844
90430.6
96112.2
100894
100893
100887
100880
100873
100870
100871
100874
100880
100888
100896
100904
100912
100919
100926
100928
100929
100903
100955
101030
101062
101076
101090
101105
101119
101132
101132
101094
101004
100864
100649
100405
100235
100185
100173
100206
100314
100405
100432
100378
100215
100157
100241
100345
100448
100414
100422
100257
100265
99937.9
99085.4
97136.1
94571.6
99280.5
100894
100892
100886
100879
100873
100870
100871
100875
100881
100889
100897
100905
100912
100919
100926
100930
100931
100904
100949
101029
101061
101075
101092
101109
101125
101139
101138
101097
101006
100865
100641
100377
100185
100142
100209
100293
100388
100450
100436
100321
100164
100083
100128
100280
100401
100446
100433
100382
100459
100402
99737.3
98425.5
94928.5
99183.7
100892
100890
100884
100877
100871
100868
100868
100872
100878
100886
100895
100904
100913
100921
100928
100929
100924
100902
100948
101036
101069
101077
101089
101107
101135
101169
101190
101154
101050
100891
100673
100471
100351
100247
100154
100229
100328
100424
100456
100336
100073
100022
100091
100173
100255
100302
100484
100439
100556
100832
100659
99145.4
96050.9
96264.5
100891
100889
100884
100877
100871
100868
100868
100872
100879
100887
100896
100905
100913
100922
100928
100930
100923
100902
100945
101037
101070
101079
101092
101112
101142
101181
101199
101158
101054
100880
100647
100439
100297
100218
100216
100343
100457
100531
100529
100349
100053
100035
100069
100110
100201
100263
100299
100380
100455
101004
101107
100077
95741.5
95826
100889
100887
100882
100874
100868
100865
100866
100870
100876
100885
100894
100903
100913
100921
100927
100929
100929
100927
100943
101030
101075
101083
101087
101099
101130
101178
101227
101232
101154
100992
100789
100643
100569
100511
100566
100545
100430
100412
100376
100233
100052
100022
99980.1
100037
100236
100514
100581
100496
100526
100811
101290
99950.3
96706.7
99531.1
100888
100886
100881
100874
100868
100866
100866
100870
100877
100885
100895
100904
100913
100921
100927
100929
100928
100923
100949
101027
101076
101087
101088
101099
101137
101190
101235
101229
101153
100991
100791
100646
100573
100493
100495
100506
100497
100513
100474
100293
100045
100091
100044
100052
100148
100270
100360
100454
100595
101029
101576
100885
96548.9
98661.1
100885
100884
100878
100871
100865
100863
100863
100867
100874
100882
100891
100901
100910
100918
100925
100929
100934
100942
100961
101014
101062
101084
101077
101074
101104
101156
101205
101237
101219
101125
100978
100853
100808
100993
101324
100571
100423
100395
100353
100210
100075
99949.7
100011
100033
100159
100521
100604
100593
100550
100652
100886
99594.1
97031.5
99167.6
100885
100883
100878
100871
100865
100863
100864
100868
100874
100883
100892
100901
100910
100918
100924
100930
100935
100944
100964
101010
101062
101084
101074
101074
101107
101156
101200
101222
101206
101128
100988
100845
100767
100775
100746
100577
100477
100447
100393
100248
100097
100080
100038
100081
100230
100400
100496
100569
100653
100851
101083
99822.3
97162.3
99909.1
100881
100880
100875
100868
100862
100859
100860
100864
100871
100879
100888
100897
100906
100914
100923
100930
100939
100953
100976
101007
101048
101080
101071
101042
101053
101105
101152
101183
101214
101194
101091
100970
100948
101224
100854
101075
100414
100350
100367
100322
100187
100159
100174
100141
100170
100391
100552
100664
100666
100638
100720
99857.8
97690.1
98829.5
100881
100879
100874
100867
100862
100860
100860
100865
100871
100880
100888
100897
100906
100915
100923
100931
100940
100954
100972
101006
101050
101084
101068
101041
101059
101104
101141
101170
101201
101197
101100
100953
100845
100867
100725
100490
100338
100365
100373
100305
100223
100206
100181
100166
100285
100493
100596
100674
100730
100722
100671
99588.4
97642.2
98634.1
100877
100876
100870
100864
100858
100856
100857
100861
100867
100875
100884
100892
100901
100911
100920
100931
100942
100956
100974
100996
101027
101064
101072
101029
100986
101034
101087
101119
101135
101116
101057
100924
100796
100773
100560
100334
100327
100404
100464
100488
100403
100336
100288
100177
100111
100263
100495
100711
100770
100685
100758
100134
98006.1
99389.4
100877
100875
100870
100863
100858
100856
100857
100861
100868
100876
100884
100893
100902
100911
100921
100931
100942
100956
100972
100995
101026
101061
101064
101030
101009
101040
101083
101098
101121
101130
101061
100922
100780
100681
100535
100367
100329
100402
100458
100442
100373
100313
100221
100129
100226
100450
100613
100721
100731
100740
100852
100070
97811.2
99300.8
100872
100871
100866
100859
100854
100852
100853
100857
100863
100870
100879
100888
100897
100907
100917
100929
100941
100954
100969
100986
101006
101029
101043
101013
100952
100972
101030
101044
101040
101007
100936
100826
100723
100627
100481
100384
100388
100495
100607
100655
100605
100461
100294
100133
100021
100093
100320
100573
100653
100540
100414
99744.5
97975.5
99734.6
100872
100870
100865
100859
100854
100852
100853
100857
100863
100871
100879
100888
100897
100907
100918
100929
100941
100954
100968
100984
101004
101024
101037
101023
100977
100982
101014
101010
101015
101010
100951
100846
100726
100619
100502
100408
100425
100500
100573
100597
100548
100423
100228
100075
100113
100278
100484
100621
100686
100710
100645
99735.2
97656.8
99351.6
100867
100866
100861
100855
100850
100847
100848
100852
100858
100865
100873
100882
100891
100901
100913
100925
100937
100949
100961
100972
100983
100990
100992
100976
100922
100905
100924
100939
100948
100929
100874
100795
100710
100629
100551
100499
100536
100624
100719
100782
100770
100606
100319
100051
99885.8
99878.1
100022
100258
100352
100186
99935.7
99441.7
98812.5
100042
100867
100865
100860
100854
100850
100848
100849
100853
100858
100866
100874
100882
100892
100902
100913
100925
100937
100949
100960
100971
100981
100988
100989
100974
100934
100908
100924
100936
100933
100913
100868
100796
100711
100639
100581
100531
100556
100623
100694
100723
100681
100532
100265
100017
99962.3
100072
100238
100458
100617
100545
100241
99484.9
98143.4
99131.2
100862
100860
100856
100850
100845
100843
100843
100847
100853
100859
100867
100875
100884
100895
100906
100918
100930
100941
100950
100956
100959
100954
100946
100922
100863
100817
100826
100865
100886
100871
100830
100777
100715
100665
100630
100607
100638
100720
100798
100831
100805
100691
100437
100117
99801.6
99696.9
99808.3
100023
100072
99879.9
99700.2
99445.9
99079.4
97706.9
100861
100860
100855
100849
100845
100843
100844
100847
100853
100860
100868
100876
100885
100895
100906
100918
100930
100940
100949
100955
100957
100954
100943
100914
100863
100822
100834
100871
100882
100861
100822
100771
100716
100674
100649
100630
100662
100725
100781
100792
100739
100601
100361
100036
99817.6
99822.3
99987.2
100213
100364
100323
100117
99756.4
98598.7
97122.7
100856
100855
100850
100844
100840
100838
100838
100841
100846
100853
100860
100867
100876
100886
100897
100909
100920
100930
100937
100941
100939
100931
100907
100857
100763
100703
100743
100816
100850
100839
100804
100766
100729
100702
100688
100685
100711
100764
100814
100826
100784
100682
100541
100331
99995.9
99764
99765.9
99931.8
99990.8
99825.4
99631.3
99518.9
99268.2
98018.7
100856
100854
100850
100844
100840
100838
100838
100842
100847
100853
100860
100868
100876
100886
100897
100908
100919
100929
100935
100939
100938
100930
100905
100851
100757
100702
100746
100816
100846
100833
100799
100762
100730
100707
100699
100699
100725
100775
100815
100813
100748
100622
100436
100179
99911.2
99783.3
99842.2
100004
100130
100116
100050
100048
99294.9
99114.3
100850
100849
100844
100839
100834
100832
100832
100835
100840
100845
100851
100858
100866
100875
100885
100896
100906
100915
100922
100926
100927
100918
100883
100796
100611
100547
100671
100795
100847
100842
100815
100787
100768
100760
100762
100772
100791
100811
100821
100802
100745
100656
100538
100399
100184
99965.1
99878.3
99944
100023
99948.6
99736.1
99373.1
99014
97502.3
100850
100848
100844
100839
100834
100832
100833
100836
100840
100846
100852
100859
100866
100875
100885
100895
100905
100914
100920
100924
100925
100916
100880
100779
100594
100544
100679
100801
100847
100840
100813
100785
100767
100761
100766
100778
100797
100817
100827
100802
100731
100621
100472
100291
100091
99942.2
99911.1
99979.9
100055
100022
99850.8
99504.7
99025.2
97285.1
100844
100843
100839
100833
100829
100826
100826
100828
100832
100837
100842
100847
100854
100861
100870
100879
100888
100896
100903
100912
100923
100932
100917
100794
100415
100347
100640
100810
100862
100857
100835
100817
100812
100823
100848
100877
100896
100895
100872
100813
100731
100640
100542
100432
100297
100153
100052
100016
99998.4
99893.6
99647.8
99168.1
98603.3
97159.7
100844
100842
100838
100833
100829
100826
100826
100829
100832
100837
100842
100848
100854
100861
100870
100878
100887
100894
100901
100909
100919
100929
100911
100780
100371
100370
100667
100824
100869
100858
100836
100818
100813
100826
100852
100886
100907
100902
100885
100820
100728
100627
100517
100391
100252
100127
100054
100031
100009
99900.6
99648.7
99150.2
98529.7
97058.4
100838
100837
100832
100827
100823
100820
100819
100821
100824
100827
100831
100835
100840
100845
100851
100858
100864
100869
100875
100884
100905
100963
101043
101007
99970.8
100016
100660
100883
100920
100891
100856
100836
100836
100863
100914
100982
101031
101024
100979
100875
100755
100653
100568
100485
100391
100288
100189
100099
99997.7
99827.7
99535.8
99054.8
98391.7
97189.8
100838
100836
100832
100827
100823
100820
100820
100821
100824
100827
100831
100835
100840
100845
100851
100857
100863
100868
100873
100881
100899
100951
101025
100912
99381.2
100167
100766
100936
100947
100904
100862
100838
100838
100866
100926
101020
101064
101027
100981
100865
100735
100632
100548
100464
100368
100267
100175
100090
99986.8
99811
99513.2
99031.2
98367.4
97170
100832
100831
100826
100821
100816
100813
100812
100813
100815
100817
100819
100821
100824
100827
100830
100833
100835
100835
100834
100834
100836
100849
100963
101184
100050
100692
100929
100955
100897
100844
100817
100819
100854
100927
101044
101167
101188
101113
100963
100795
100674
100599
100542
100478
100400
100308
100197
100052
99842.3
99541.7
99090.2
98483.1
97306.3
100831
100830
100826
100821
100816
100813
100813
100813
100815
100817
100819
100821
100824
100827
100830
100833
100834
100834
100832
100830
100829
100837
100941
100494
100044
100773
100971
100978
100908
100846
100814
100813
100847
100914
101085
101232
101161
101008
100903
100743
100628
100563
100513
100455
100381
100291
100180
100033
99818.9
99513.4
99063.4
98439.9
97308.5
100825
100824
100820
100815
100810
100807
100805
100805
100805
100805
100806
100806
100806
100806
100806
100805
100802
100795
100784
100767
100736
100677
100547
100364
100091
100465
100929
101053
100974
100864
100788
100750
100748
100781
100853
100986
101169
101210
101124
100994
100794
100657
100592
100561
100530
100480
100402
100286
100114
99866
99557.5
99124.5
98704.4
97421.8
100825
100824
100820
100814
100810
100807
100805
100805
100805
100806
100806
100806
100806
100806
100806
100805
100801
100794
100782
100764
100732
100670
100534
100307
100021
100543
100986
101088
100993
100869
100783
100740
100732
100756
100799
100988
101158
101200
101042
100866
100701
100596
100543
100519
100500
100460
100387
100272
100102
99859.6
99558.4
99142.8
98654.6
97451.9
100819
100818
100814
100808
100803
100800
100797
100796
100795
100794
100792
100790
100788
100785
100781
100776
100767
100754
100734
100706
100666
100614
100559
100503
100480
100599
100838
100913
100853
100768
100704
100669
100660
100683
100768
100891
100999
101255
101224
100863
100688
100602
100551
100536
100535
100519
100469
100360
100165
99872.1
99533.9
99100.2
98898.2
97523.2
100819
100817
100813
100808
100803
100800
100797
100796
100795
100794
100792
100790
100788
100785
100781
100775
100766
100753
100733
100704
100665
100613
100557
100500
100471
100602
100831
100899
100836
100750
100685
100649
100638
100644
100678
100832
100957
100840
100625
100235
100491
100557
100530
100503
100501
100496
100455
100352
100168
99901.6
99598.5
99195.6
98896.5
97511.3
100813
100812
100808
100802
100797
100792
100789
100787
100784
100782
100778
100774
100769
100763
100756
100746
100733
100715
100691
100662
100628
100595
100568
100544
100521
100555
100642
100687
100669
100629
100599
100585
100583
100602
100638
100691
101369
100202
99152.3
99927.2
100427
100631
100604
100576
100564
100565
100553
100472
100264
99927.2
99538.2
99085.4
98940.9
97344.6
100813
100811
100807
100802
100797
100792
100789
100787
100785
100782
100778
100774
100769
100763
100755
100746
100732
100714
100690
100661
100628
100595
100568
100541
100516
100555
100640
100681
100657
100611
100578
100565
100574
100541
100606
100743
101164
97707.1
97342.6
98165.1
99257.2
100400
100602
100562
100533
100534
100527
100451
100267
99979.8
99641.5
99205.9
99024.5
97460.1
100807
100806
100801
100796
100790
100785
100781
100778
100774
100770
100764
100758
100750
100741
100730
100717
100701
100680
100654
100625
100594
100565
100539
100513
100490
100490
100515
100530
100518
100498
100487
100499
100473
100617
100613
99227.5
96641
94028
95115.5
97625.9
99086.4
100464
100768
100736
100668
100656
100677
100631
100419
100075
99674.7
99273.5
99058.1
97217.1
100807
100805
100801
100796
100790
100785
100781
100778
100774
100770
100764
100758
100750
100741
100730
100717
100700
100679
100653
100624
100594
100566
100539
100511
100488
100489
100515
100532
100518
100494
100484
100504
100560
100664
100540
99749.4
96290.1
93367.7
94508.5
96698
98273.5
99913.6
100719
100750
100690
100640
100635
100581
100403
100119
99747
99319.5
99109.3
97351.7
100801
100800
100796
100790
100784
100778
100774
100769
100764
100758
100750
100741
100731
100720
100706
100690
100671
100647
100620
100590
100559
100528
100497
100468
100441
100422
100414
100406
100389
100373
100368
100407
100306
100550
100107
96268.8
91217.7
91352.1
94476.2
97422.7
99454.6
100963
101144
101001
100853
100812
100837
100782
100544
100208
99864.8
99598.9
99465.8
99675.9
100801
100799
100795
100790
100784
100778
100774
100769
100764
100758
100750
100741
100731
100720
100706
100690
100670
100646
100619
100589
100559
100528
100497
100467
100439
100421
100414
100408
100391
100374
100373
100447
100554
100651
100201
92334.6
90189.4
91184.6
94404.7
97210
99258
100835
101195
101050
100906
100832
100794
100713
100517
100239
99886
99724.3
99453
97752.5
100796
100794
100790
100784
100778
100772
100766
100760
100754
100746
100737
100726
100714
100700
100684
100665
100643
100617
100587
100556
100522
100488
100454
100419
100383
100349
100318
100289
100259
100236
100230
100327
100246
99453.3
96963.3
88410.2
88373.2
91783
95821.1
99057.5
100985
101740
101560
101253
101050
101005
101009
100909
100615
100179
99676.9
99219.2
99390
100628
100795
100794
100790
100784
100778
100772
100766
100760
100754
100746
100737
100726
100714
100700
100683
100664
100642
100616
100587
100555
100522
100488
100454
100418
100382
100348
100318
100291
100260
100228
100189
100214
100537
99708
89997.2
85132.5
88095.8
91601.8
95721.7
99037.1
100988
101680
101500
101251
101098
101045
100989
100869
100608
100224
99765.1
99636
99672.5
100378
100790
100789
100785
100778
100772
100765
100759
100752
100744
100735
100724
100712
100697
100681
100663
100641
100617
100588
100557
100523
100486
100448
100408
100366
100321
100272
100223
100172
100118
100068
100045
100111
100145
98561
87456.1
85059.5
89318.5
93921.8
98198.3
101032
102037
102034
101807
101460
101298
101267
101253
101153
100873
100277
99466.8
98509.8
98012
98433.9
100790
100789
100784
100778
100772
100765
100759
100752
100744
100735
100724
100712
100697
100681
100662
100641
100616
100588
100557
100523
100486
100448
100408
100366
100320
100272
100223
100174
100118
100056
99967.1
99931.9
99858.5
95883.8
86774.9
86458.2
89885.9
94152.6
98348
101117
102015
101992
101727
101429
101317
101296
101268
101161
100874
100224
99346.9
98810.8
99054.9
100489
100786
100784
100780
100773
100766
100759
100752
100744
100736
100725
100713
100699
100683
100664
100644
100620
100593
100563
100529
100492
100452
100409
100364
100313
100258
100196
100129
100053
99963.7
99841.9
99809.9
100721
99763
77920.6
78770.3
86334.2
92085.2
96908
100531
102223
102396
102093
101814
101654
101596
101598
101600
101537
101375
100926
100271
99164.8
97480.7
99381.8
100785
100784
100779
100773
100766
100759
100752
100744
100736
100725
100713
100699
100682
100664
100643
100620
100593
100562
100529
100492
100452
100410
100364
100313
100258
100197
100130
100055
99967.1
99851.2
99751.4
99539.8
95246.5
86793.9
85366
88690.8
92957.3
97360.2
100752
102246
102368
102090
101815
101637
101595
101608
101624
101569
101377
100710
99680.8
98800
97974.8
97964.2
100781
100780
100775
100769
100762
100754
100746
100738
100728
100716
100703
100687
100669
100649
100627
100601
100572
100539
100503
100463
100420
100373
100321
100263
100198
100123
100039
99938.1
99807.6
99622.6
99357.9
99924.7
100356
84810.7
88399.6
93539.3
97931.1
101086
102584
102719
102349
102002
101817
101848
101874
101903
101915
101823
101785
101646
100925
99204.3
96388.3
98405.5
100781
100779
100775
100769
100761
100754
100746
100738
100728
100716
100703
100687
100669
100649
100626
100601
100572
100539
100503
100463
100420
100373
100321
100264
100198
100124
100040
99943.8
99815
99651.1
99476.7
99227
94006.3
85859.8
89974.8
94451.9
98443.6
101427
102744
102741
102285
102003
101840
101815
101862
101901
101933
101867
101781
101432
100425
99006.5
96900.8
99244.1
100777
100776
100771
100765
100757
100749
100741
100732
100721
100709
100694
100677
100658
100636
100612
100585
100554
100520
100481
100439
100392
100340
100283
100218
100144
100058
99957.3
99836.3
99680.5
99465.2
99196.5
99191.5
102946
105944
101507
102348
104230
104701
103823
102603
101930
101763
101834
102016
102093
102182
102170
101953
101988
101546
99260.2
96240.4
94030.6
98021.2
100777
100776
100771
100765
100757
100749
100741
100732
100721
100708
100694
100677
100658
100636
100612
100585
100554
100519
100481
100439
100392
100341
100283
100218
100144
100058
99955
99839.1
99689.7
99500
99261.6
98942.2
99878.5
98080.8
99481.6
102275
104541
104930
103886
102517
101860
101769
101855
101988
102073
102170
102145
101933
101928
101271
98762.3
95928.1
94342.5
98551.7
100774
100773
100768
100762
100754
100746
100737
100727
100716
100702
100687
100669
100649
100626
100600
100572
100539
100503
100463
100418
100368
100313
100251
100180
100099
100002
99889.5
99751.9
99578.4
99344.4
99049.7
98633.9
98983.6
101617
102120
103889
105572
105426
103788
101945
101321
101516
101926
102198
102298
102504
102625
102484
102463
101070
97695.8
94998.3
92225
97796.4
100774
100772
100768
100761
100754
100746
100737
100727
100715
100702
100687
100669
100649
100626
100600
100571
100539
100503
100463
100418
100369
100314
100252
100181
100099
99999.9
99888.6
99751.2
99570.6
99340.3
99099.3
98386.7
98270.2
99503.3
101536
104154
105803
105405
103739
101924
101268
101512
101935
102206
102288
102427
102511
102334
102415
100974
97620.6
94855.1
92118.1
97625.9
100772
100770
100766
100759
100751
100743
100733
100723
100711
100697
100681
100662
100641
100618
100591
100561
100528
100490
100449
100402
100350
100292
100227
100151
100064
99962.6
99842.4
99694.1
99508.3
99264.1
98962.6
98553.7
98012.9
98492.1
99571.4
101913
103720
104236
103286
101790
101213
101595
102116
102437
102512
102751
102761
102662
102543
101155
99693.6
96828.4
89618.3
95944.2
100772
100770
100765
100759
100751
100742
100733
100723
100711
100697
100681
100662
100641
100617
100591
100561
100528
100490
100449
100402
100350
100293
100227
100152
100065
99963
99845.7
99695.3
99502.9
99258.9
98952.5
98475.6
98051.4
98498.9
100250
102258
103120
103489
102918
101823
101256
101574
102096
102449
102516
102637
102716
102630
102639
101247
100073
97443
89718.4
93850.8
100770
100769
100764
100757
100749
100741
100731
100721
100708
100694
100677
100658
100637
100612
100585
100555
100520
100482
100439
100392
100338
100279
100211
100133
100043
99937.1
99811.8
99659
99467.4
99224
98922.7
98545.4
98075.6
97585.1
97026.7
97481.5
97171.6
97463.3
97964.5
99548
100786
101749
102262
102614
102751
102898
102849
102746
102901
103294
105774
103958
89463.2
93882
100770
100768
100764
100757
100749
100741
100731
100721
100708
100694
100677
100658
100636
100612
100585
100554
100520
100482
100439
100392
100339
100279
100211
100134
100044
99938.6
99814.2
99663.2
99469.2
99213.9
98930.7
98562
97984.7
97629.2
97620.5
97418.1
96976.9
97124.9
97764.9
99413.7
100867
101757
102266
102600
102714
102834
102814
102819
102919
103208
106080
104384
89563.4
93321.4
100768
100767
100762
100756
100748
100739
100730
100719
100707
100692
100675
100656
100634
100609
100581
100551
100516
100477
100434
100386
100332
100272
100203
100124
100033
99925.4
99797.9
99642.8
99450.1
99209.4
98910.8
98537.2
98037.6
97406.4
96732.3
95735.4
94332.8
93722.1
94554.8
96804.4
99161.8
100957
101971
102391
102639
102742
102792
102782
102685
104093
107230
104624
92150.4
86071.8
100768
100766
100762
100755
100748
100739
100730
100719
100706
100692
100675
100655
100634
100609
100581
100550
100516
100477
100434
100386
100333
100272
100204
100125
100034
99926.9
99799.7
99645
99451.3
99209.6
98920.6
98574
98115.2
97472.6
96559
95333.5
94266.8
93767.2
94502.7
96593.5
99040.2
101106
101957
102361
102600
102719
102733
102733
102884
104118
107294
105068
92269
85655.1
100123
100939
99727
101496
101105
99883.2
99421.4
99970.8
99867.3
99754.8
99816.7
100804
100101
100989
101049
99950.6
99873.7
99994.2
99775.5
99811.1
100860
100313
100164
100316
99991.8
100063
99911.5
100193
99993.1
100052
99850.9
101038
100269
99914.2
100274
99606.6
99878.3
99895.4
100001
99876.2
99724.2
100157
100620
100786
100603
100831
100547
100805
100502
100284
100384
100258
100131
99995.2
100099
99998.3
100591
100745
100548
100793
100538
100742
100471
100247
100338
100248
100072
99959.3
99986.2
99930.9
101124
101037
101105
101084
101267
101084
101266
99653
99896.8
99969.5
99978.2
99551.7
100311
100069
100370
99913
100186
99888.1
100220
101075
100979
101010
101062
101219
101010
101133
99309
99447.1
99778.3
99705.9
99226.9
100453
100195
100465
99952
100322
99999.2
100357
100995
100958
101054
100731
100575
100725
100586
99382.9
101159
100593
100566
99455.1
100210
100414
100310
100015
100331
100154
100397
100104
100407
101004
100906
100952
100706
100544
100701
100563
99394.9
100761
100470
99441.3
100537
99819.6
99976.9
100395
100101
100436
100161
100485
100260
100553
100245
100358
100197
100417
100316
100419
100311
99989.1
100034
99970
100267
100330
100258
100343
100132
100301
100131
100405
100297
100408
100311
100087
100076
100248
100266
100371
100289
100399
100696
100512
100091
100472
100756
100789
99969.5
100465
100434
100525
101320
101460
101472
101438
101356
100988
101026
101348
101147
101385
101368
101030
101101
100627
99713.1
99834.7
99663.4
99956.2
99611.2
99516.8
99508.5
99573.1
99792.7
99855.8
99778.3
99544.9
99592.3
99585.2
99598.7
99714.9
99786.7
99723.8
99637.2
100407
100559
100033
100482
100508
100325
100037
100408
100381
99652.4
101235
100928
101140
100480
101362
103022
99315.3
100976
101725
101173
101072
101886
100825
100897
99538.9
99794.7
99798.3
99763.5
99763.3
99347.2
99217.7
99466.5
99791
99792
99610.9
99787.8
99513.8
99879.5
99608.4
99755.4
99824.8
99798.9
99726.7
98828.5
98853.1
99385.9
101113
100551
100592
99270.5
98969.8
99002
99138.1
100123
100180
100136
99198.4
99164.5
100106
100004
99231.3
100083
100183
100050
100069
100023
100290
100139
99929.5
100100
99964.4
99886.6
99934.3
99938.6
100034
100112
100209
100091
100125
99950.9
100162
99992.5
99853.8
100042
98907.1
99184.4
99376.7
101006
100693
100598
99494.1
99008.7
98698
99308.1
99947.7
99714.9
99383.8
99846
99107.6
99698.4
99792.1
99790.7
99058.2
99705.7
99848.3
99838.3
99893.7
99808.8
98800.4
103583
99590.3
99875.9
99791.7
99857.3
99366.3
99900.3
99969
99754.1
99836.9
99944.2
99414.7
99836.2
100073
99851.5
99405.2
101043
100836
100986
101217
100799
101192
101067
101125
100830
100825
100948
100690
100962
100893
101050
100957
100765
101066
100774
101154
100989
99786.6
99844.1
99903.3
99769
99881.8
99777.1
99751.9
99802.6
99946.1
99866.3
99798
99928.7
99751.4
99809.3
100745
100818
100504
101192
100590
100990
100638
99589.9
99733
99898.4
99896.1
99749.2
99674.2
99801.9
99856.4
99898.5
99902.9
99858.4
99809.1
99872.1
99911.1
99898.1
100324
100164
100295
100296
100157
99920
99863.9
100358
100314
100132
100334
99879.1
100151
99936.2
99979.3
99984.4
99926.6
99910.2
99922.6
100002
99810.1
99786.6
99869.3
99826.4
99814.9
99759.3
99858.9
100162
100331
100134
100238
100072
100298
100119
99971.1
100351
100239
100099
100284
100051
100060
99756.6
99774.3
99838.3
100019
99752.6
99807.2
99941.5
99599.9
99861.4
100109
100269
99869.7
99963.5
99478.1
99870.3
99967.8
99494.6
99565.7
99900.1
99879
99427.6
99544.6
99503.6
99523
99532.3
99571.5
99165.6
99377.7
99461.1
99736.4
99542.8
99769.3
99378.8
99848.9
99369.2
99650.8
99413.6
99533.2
99274.7
99187.2
99517.4
99433
99103.8
98708.2
99013.4
98317.8
98864.3
99046.7
99208.1
99311.1
98476.6
98765.9
99359.2
98713.9
99286.8
99199.9
99230.6
99324.6
100214
99655.7
99958.9
99405.6
99652.6
100185
99969.9
100599
101245
101207
100666
100628
101195
101210
100578
100179
99365.3
99634.4
99991.2
99561.9
99975.7
100215
100292
100406
99776.6
98460
99597.8
100302
98867.7
99564.5
100283
98905.8
99805.8
98658.2
99540.3
99177.5
101234
99437.3
99058.7
99744.4
99587.1
99376.6
99968.3
99853.4
99192.2
100106
99574.9
99801.7
99814.8
100522
99934
100677
100530
99761.7
99910.2
99501.3
99384.4
99413.4
99520.1
99439.7
99109
99260
99367.4
99802
100658
100566
99974
100533
99871.3
99892.9
99819.1
100551
100053
100841
99768.7
100575
100160
99828.5
100664
99203.2
101437
99285.5
99043.7
99324.6
98920.3
100218
100835
100674
94240.7
100672
100333
101085
101629
101387
101584
101318
101395
101605
101586
101674
101544
101536
101647
101652
101498
101519
101605
101626
101314
101419
101594
101403
101597
101605
100973
100945
101395
101373
101379
101504
101326
101527
101267
101011
100620
100700
100759
101263
101381
101175
101581
101242
101197
101036
101313
101444
101534
101183
101246
101267
99828.9
100015
99580.4
99758.7
99933.6
100001
99538.6
98919.5
99370.9
98633.1
98790.4
99232.4
99077
99421.6
98920.3
99621.8
99685.7
99654.2
99072.5
99221.7
99842.6
99352.4
99455.9
99447.7
99740.6
99713.7
99679.5
99559.6
99729.8
99676.2
99729.1
99954
100140
100192
99937.9
99926.1
100102
99906.1
100143
99757.1
99554.6
99690.4
99696.7
99716.7
99700.7
99739.3
99655.8
99641.7
99691.4
99695.9
99616.8
99682.8
99690.1
99700.3
99693
99805.8
99943.2
99811
99963
99680.9
99641
99727
99676
99685.5
99695.1
99717.9
99842.6
100047
99866
100006
99173.1
99808.1
99927.5
98194
100155
98796.6
97694.4
99432.3
99944.4
99169.7
100457
99710.1
100420
100771
100449
100563
100526
99225.8
99002.7
98883
99091.3
98650.5
99247.3
99929.9
99300.8
100332
98975.2
100095
99389.7
98564.4
98670
98391.4
98964.3
98858.8
98604.2
98727.1
98489.1
99200.2
99792.5
99782.9
99439
99899.1
99005.8
99501.4
102513
101498
101591
101566
101422
100184
101595
109600
100088
100573
99680.3
101240
100875
101135
105446
101070
100575
100200
102646
103493
100367
102551
102239
100393
103734
101084
102949
101471
101946
101162
101334
101341
99634
100663
102194
101385
102218
101894
101468
104108
101750
100788
101442
100865
100801
102347
101851
102120
99357.5
99772.2
99093.3
99643.4
99419.9
99986.8
98903.2
98620.2
98522.7
98558.5
99004.1
98537.5
98724.4
98924.8
98398.7
99472.9
99845.5
99923.5
99037.9
100084