/*--------------------------------*- C++ -*----------------------------------*\
| =========                 |                                                 |
| \\      /  F ield         | OpenFOAM: The Open Source CFD Toolbox           |
|  \\    /   O peration     | Version:  4.1                                   |
|   \\  /    A nd           | Web:      www.OpenFOAM.org                      |
|    \\/     M anipulation  |                                                 |
\*---------------------------------------------------------------------------*/
FoamFile
{
    version     2.0;
    format      ascii;
    class       surfaceScalarField;
    location    "27";
    object      phi;
}
// * * * * * * * * * * * * * * * * * * * * * * * * * * * * * * * * * * * * * //

dimensions      [0 3 -1 0 0 0 0];

internalField   nonuniform List<scalar> 
11516
(
9.98856e+06
2156.46
12001.5
1.00017e+07
4581.05
20573.5
1.00025e+07
5756.98
30914.9
9.99158e+06
5502.85
40874.4
9.96757e+06
5139.89
51670
9.92971e+06
4826.96
62999.7
9.87865e+06
4542.97
74056.7
9.81612e+06
4359.68
84053.6
9.74491e+06
4299.91
92008.8
9.668e+06
4290.25
97172.2
9.58881e+06
4143.49
98457.9
9.50954e+06
3604.3
94583.3
9.43073e+06
1623.44
86558.4
9.34546e+06
-1653.93
72831.4
9.23465e+06
-10347.7
70099.5
9.13399e+06
-11592
29575
8.99549e+06
-17420
36254.5
8.92968e+06
-16447.8
-25918.1
8.95771e+06
-17385.5
-102082
9.02205e+06
-5938.29
-89535.4
9.04046e+06
-9981.5
-4610.81
8.9569e+06
-4327.01
106767
8.8346e+06
-416.225
159359
8.721e+06
4576.58
178776
8.63456e+06
-2389.3
170647
8.62209e+06
-15865.5
90003.7
8.77172e+06
-10355.3
-90531
9.13698e+06
-1065.24
-357881
9.82043e+06
1478.85
-720699
1.09152e+07
20375
-1.18377e+06
1.23473e+07
63938.9
-1.53887e+06
1.38063e+07
103183
-1.58676e+06
1.48954e+07
101483
-1.17174e+06
1.53417e+07
66932.5
-443619
1.5259e+07
66084.2
150742
1.49126e+07
-75158.3
430620
1.41676e+07
-59746
721428
1.33577e+07
-73926.5
743766
1.24244e+07
3952.01
675659
1.15915e+07
32473.1
510854
1.09743e+07
-6839.94
374647
1.01164e+07
-37938.5
593238
8.8532e+06
-73009.1
993049
7.3666e+06
-10662.6
1.26039e+06
6.10722e+06
237290
1.30289e+06
5.79624e+06
100615
775352
5.61249e+06
-34561.7
1.39651e+06
5.43531e+06
-58952.4
1.4324e+06
5.17718e+06
963007
1.29492e+06
6.42568e+06
-280074
828723
3.81434e+06
1.10767e+06
2.3424e+06
1.23899e+07
-947012
-8.27371e+06
2.00658e+07
-1.87448e+06
-4.9172e+06
-1.75015e+06
-8.39178e+06
9.99166e+06
11975.2
1.00019e+07
20379.6
1.00021e+07
30478.4
9.99071e+06
40121.8
9.96642e+06
50509.2
9.92877e+06
61360.4
9.87842e+06
71881.8
9.81711e+06
81325.5
9.74751e+06
88752.9
9.67244e+06
93568.7
9.59498e+06
94642.5
9.51686e+06
91177.8
9.4364e+06
84005.4
9.34663e+06
73725.5
9.23518e+06
66533.2
9.11227e+06
54346.8
8.9637e+06
53235.7
8.90787e+06
-24465.3
8.95375e+06
-102121
9.0278e+06
-96438.8
9.05143e+06
-29848.6
8.97876e+06
87353.4
8.84395e+06
170270
8.71559e+06
177526
8.61982e+06
134783
8.58574e+06
52848.7
8.67785e+06
-97187.8
8.99911e+06
-341666
9.63534e+06
-678776
1.06054e+07
-993576
1.18576e+07
-1.24607e+06
1.32753e+07
-1.33768e+06
1.44877e+07
-1.0959e+06
1.5136e+07
-562689
1.52037e+07
-26476.9
1.48258e+07
224236
1.42847e+07
369332
1.3711e+07
291372
1.31849e+07
239897
1.27431e+07
185988
1.24351e+07
34119.6
1.18923e+07
175962
1.11081e+07
522441
1.01218e+07
819118
9.34481e+06
1.05874e+06
8.96678e+06
719208
8.66598e+06
664642
8.30679e+06
965713
8.70547e+06
1.01155e+06
9.41099e+06
-370395
7.58477e+06
2.36919e+06
1.38547e+07
-6.4265e+06
1.88181e+07
-6.46793e+06
-1.12001e+07
1.00115e+07
2124.57
6209.03
1.00522e+07
4300.62
12413.7
1.00892e+07
5239.38
23164.4
1.01237e+07
4705.29
32296.2
1.01559e+07
4047.78
41448.7
1.01859e+07
3434.07
50840.3
1.02139e+07
2858.36
59904.9
1.02405e+07
2393.91
68244
1.02655e+07
2115.65
75991.7
1.02891e+07
2004.58
81734.3
1.03108e+07
2008.86
85093.4
1.03289e+07
1981.84
84954.6
1.03423e+07
1334.16
81560.1
1.03442e+07
340.095
74233
1.03286e+07
-4380.77
79382.3
1.0276e+07
-5253.91
59413.7
1.01091e+07
311.239
147147
9.98763e+06
-2436.4
63638.2
9.88741e+06
-5088.24
-12090.9
9.79967e+06
-4498.65
-1357.49
9.71926e+06
763.588
79341.6
9.63443e+06
890.068
199793
9.5211e+06
-1075.38
285184
9.41603e+06
1087.3
292923
9.38712e+06
2370.02
202344
9.48044e+06
-9552.66
3271.6
9.72331e+06
-26347.6
-325982
1.02295e+07
-44394.7
-851850
1.11179e+07
-63621.6
-1.58093e+06
1.2278e+07
-58731.2
-2.32684e+06
1.34308e+07
-25502.8
-2.71614e+06
1.42501e+07
7179.02
-2.45572e+06
1.47361e+07
7597.95
-1.71608e+06
1.52016e+07
-31421.1
-966471
1.57576e+07
-105818
-463033
1.60778e+07
-237561
165887
1.63054e+07
-382987
645138
1.64151e+07
-423747
726796
1.63847e+07
-323184
667052
1.63415e+07
-171918
419662
1.63824e+07
-117940
195869
1.61926e+07
-167251
631461
1.56505e+07
-197906
1.41873e+06
1.47551e+07
-174354
2.01186e+06
1.34042e+07
-38415.5
2.38925e+06
1.1486e+07
78357.6
2.41173e+06
9.82407e+06
51857.1
2.91951e+06
7.87844e+06
186233
3.25228e+06
5.41839e+06
-16451.3
3.26278e+06
3.95418e+06
-539556
2.16746e+06
-810881
-1.93259e+06
9.03149e+06
-1.04113e+07
-1.43889e+06
3.67959e+06
-9.04273e+06
-1.99429e+06
-3.14133e+06
-1.12084e+06
-4.58732e+06
1.00144e+07
6211.17
1.00517e+07
12315.7
1.00875e+07
22873.8
1.01206e+07
31871.2
1.01513e+07
40882.8
1.01797e+07
50092
1.02062e+07
58913.3
1.02314e+07
66967.3
1.02549e+07
74342.7
1.02772e+07
79760.2
1.02975e+07
82720.9
1.03146e+07
82504.2
1.03259e+07
79136.4
1.0326e+07
73896.3
1.03037e+07
75512.9
1.02403e+07
87142.4
1.0116e+07
146752
9.99851e+06
72057.3
9.88547e+06
-1413.53
9.7922e+06
-7115.13
9.71179e+06
55228.7
9.63257e+06
172503
9.53376e+06
274547
9.42485e+06
294517
9.36271e+06
202057
9.38703e+06
10784.3
9.54977e+06
-305258
9.94828e+06
-812813
1.06403e+07
-1.47828e+06
1.1729e+07
-2.20814e+06
1.3033e+07
-2.63814e+06
1.41083e+07
-2.46511e+06
1.4754e+07
-1.7931e+06
1.51953e+07
-1.1422e+06
1.5583e+07
-662127
1.57194e+07
-345383
1.58022e+07
-336049
1.59422e+07
-535894
1.60412e+07
-459813
1.60677e+07
-284793
1.65144e+07
-775753
1.66933e+07
-448050
1.64944e+07
210271
1.61675e+07
738177
1.60246e+07
970509
1.58741e+07
776166
1.56138e+07
967202
1.52376e+07
1.41423e+06
1.54942e+07
488006
1.3241e+07
1.2599e+06
6.20731e+06
7.60026e+06
-4.53746e+06
3.63362e+06
-7.34528e+06
-4.80993e+06
-6.62969e+06
1.00028e+07
2102.04
7488.75
1.00297e+07
4208.38
16715.7
1.00492e+07
5044.94
31294
1.00622e+07
4416.23
43407
1.00681e+07
3651.26
55338.1
1.00668e+07
2918.63
67269.6
1.00591e+07
2223.9
78272.9
1.00454e+07
1666.7
88917.2
1.00279e+07
1338.76
98102.4
1.00071e+07
1254.88
106205
9.98435e+06
1408.5
111974
9.96028e+06
1754.75
115485
9.93537e+06
2134.64
116380
9.9062e+06
1696.17
116870
9.88078e+06
602.27
118418
9.81884e+06
-5092.83
125588
9.80549e+06
-4693.92
147808
9.85271e+06
-7153.92
12233.5
9.86973e+06
3359.48
-37773.1
9.86065e+06
2096.31
6881.87
9.82231e+06
1544.23
121402
9.76251e+06
628.163
264873
9.68334e+06
-2327.18
373507
9.59374e+06
-4877.48
394241
9.52027e+06
-9386.66
287295
9.49066e+06
-24460.8
45773
9.59514e+06
-51391.6
-411860
1.00118e+07
-73927
-1.2471e+06
1.07472e+07
-74236.3
-2.31914e+06
1.15166e+07
-19065.3
-3.16235e+06
1.19751e+07
34658.5
-3.28903e+06
1.20404e+07
60419.4
-2.66348e+06
1.18567e+07
121952
-1.76693e+06
1.15145e+07
165359
-1.00152e+06
1.1051e+07
163021
-374770
1.08282e+07
-106535
300941
1.10632e+07
-580627
751732
1.14861e+07
-912030
1.01803e+06
1.21567e+07
-704038
540646
1.29874e+07
-530997
-5383.61
1.36513e+07
-411905
-167912
1.40974e+07
-512150
473056
1.43452e+07
-641393
1.39679e+06
1.45325e+07
-560215
1.9821e+06
1.45993e+07
-488562
2.34199e+06
1.4084e+07
-293986
2.71908e+06
1.32422e+07
5120.51
3.33478e+06
1.19088e+07
209770
3.86835e+06
1.08884e+07
191135
3.59196e+06
1.06514e+07
-989777
3.20934e+06
1.50763e+07
-1.92384e+06
6.53077e+06
1.89822e+07
-2.78618e+06
2.87952e+06
1.82454e+07
-2.91445e+06
1.21315e+06
-2.80458e+06
-4.56796e+06
1.00057e+07
7447.46
1.00294e+07
16590.4
1.0048e+07
31092.7
1.00599e+07
43140.7
1.00648e+07
54989.3
1.00627e+07
66822.9
1.00544e+07
77714.2
1.00404e+07
88239.9
1.00227e+07
97301.2
1.00019e+07
105327
9.97925e+06
111068
9.95525e+06
114692
9.92972e+06
116164
9.90017e+06
117757
9.8645e+06
120588
9.81514e+06
133341
9.79288e+06
151143
9.81067e+06
37333.2
9.84618e+06
-35486.6
9.84753e+06
-4932.39
9.81051e+06
96834.3
9.75244e+06
234934
9.67587e+06
353808
9.57701e+06
393229
9.47042e+06
299518
9.37445e+06
73196.7
9.38738e+06
-396436
9.67891e+06
-1.23301e+06
1.03033e+07
-2.26285e+06
1.11395e+07
-3.16225e+06
1.17979e+07
-3.34477e+06
1.20493e+07
-2.73079e+06
1.20898e+07
-1.83361e+06
1.2056e+07
-1.10531e+06
1.1789e+07
-415301
1.08347e+07
281500
9.44383e+06
309466
8.54813e+06
-666097
8.2365e+06
-907479
9.07247e+06
-1.67283e+06
1.02849e+07
-2.52701e+06
1.12625e+07
-2.24386e+06
1.17405e+07
-1.36036e+06
1.22947e+07
-871021
1.29303e+07
-652646
1.34777e+07
-526647
1.40786e+07
-62299.3
1.48235e+07
488487
1.49819e+07
207525
1.44204e+07
665572
1.70645e+07
3.17229e+06
2.09127e+07
-2.9013e+06
2.10238e+07
-7.42811e+06
-8.55577e+06
1.00023e+07
2045.11
9256.33
1.00287e+07
4086.01
20840.8
1.00482e+07
4902.23
38895.6
1.00613e+07
4276.82
53959
1.00671e+07
3497.39
68872
1.00652e+07
2731.94
83650.5
1.00554e+07
1985.16
98120.8
1.00388e+07
1364.59
111818
1.00162e+07
965.202
124658
9.98902e+06
847.989
136873
9.95811e+06
1022.21
147863
9.92466e+06
1582.23
157920
9.89113e+06
2389.03
166194
9.85947e+06
3462.4
172842
9.83102e+06
3179.22
175874
9.79838e+06
2230.96
178370
9.77617e+06
-6887.73
163300
9.69295e+06
-5863.78
85147.7
9.66294e+06
4622.13
-17425.2
9.67178e+06
2156.32
-2714.23
9.68879e+06
-835.703
110131
9.69512e+06
-2382.89
267076
9.66612e+06
-4076.09
414172
9.57985e+06
-7946.09
498979
9.43902e+06
-16926.6
454711
9.26334e+06
-39154
257980
9.17815e+06
-62114.3
-294631
9.26483e+06
-48993.2
-1.35091e+06
9.39137e+06
-27773.9
-2.51481e+06
9.30928e+06
8972.61
-3.18507e+06
8.84474e+06
32775.5
-2.92797e+06
8.13618e+06
45087.2
-2.05974e+06
7.36957e+06
82492.5
-1.15746e+06
6.72365e+06
129441
-553362
6.36185e+06
77448.9
-137487
6.28334e+06
-147846
466713
6.29976e+06
-888923
1.62661e+06
6.8726e+06
-1.45254e+06
1.99823e+06
8.07876e+06
-1.34263e+06
808755
9.66559e+06
-1.00174e+06
-480661
1.04082e+07
-349056
-578552
1.07244e+07
-348265
327225
1.08919e+07
-872023
1.47196e+06
1.12108e+07
-1.00404e+06
1.80604e+06
1.20874e+07
-918006
1.51807e+06
1.29242e+07
-901524
1.89597e+06
1.32931e+07
-535682
2.75307e+06
1.30762e+07
-128423
3.60237e+06
1.27674e+07
62168.4
3.48177e+06
1.26511e+07
-147074
3.54201e+06
1.57168e+07
-613232
4.32867e+06
1.96291e+07
-2.65813e+06
1.6124e+06
2.27044e+07
-1.73473e+06
-77780
-167068
-4.60823e+06
1.00051e+07
9253.37
1.00284e+07
20763.1
1.0047e+07
38658.9
1.0059e+07
53633.7
1.00638e+07
68493.4
1.00611e+07
83226.5
1.00507e+07
97658.4
1.00339e+07
111323
1.00113e+07
124133
9.9843e+06
136317
9.95383e+06
147280
9.92105e+06
157281
9.88809e+06
165612
9.85616e+06
172245
9.82487e+06
175914
9.79004e+06
176426
9.74682e+06
172754
9.66555e+06
102028
9.63873e+06
-6681.91
9.64874e+06
-11380
9.66533e+06
83177.1
9.67231e+06
230995
9.63915e+06
389584
9.54251e+06
488874
9.37133e+06
459208
9.14367e+06
257685
9.01719e+06
-355335
9.08981e+06
-1.39882e+06
9.23993e+06
-2.50201e+06
9.21193e+06
-3.18558e+06
8.83774e+06
-2.982e+06
8.22211e+06
-2.11751e+06
7.57366e+06
-1.16225e+06
7.06438e+06
-531813
6.87999e+06
-211290
5.80583e+06
1.17421e+06
2.68303e+06
2.60315e+06
1.5222e+06
-722329
2.6249e+06
-2.98145e+06
5.61025e+06
-5.5903e+06
7.41772e+06
-4.74373e+06
8.17417e+06
-3.66327e+06
7.65644e+06
-2.47959e+06
7.4106e+06
-2.4265e+06
7.74157e+06
-2.67245e+06
8.12338e+06
-2.59613e+06
8.88155e+06
-2.01536e+06
1.00928e+07
-1.41369e+06
1.06527e+07
-548907
1.13521e+07
23340.8
1.37818e+07
20459.3
1.13563e+07
-2.96439e+06
6.88002e+06
-4.87201e+06
-7.54056e+06
1.00025e+07
2015.62
11006.6
1.00279e+07
4032.64
25102.6
1.00467e+07
4832.34
46454.5
1.0059e+07
4213.18
64490.9
1.0064e+07
3437.7
82441.9
1.00612e+07
2668.39
100344
1.00507e+07
1915.7
117989
1.00335e+07
1289.38
134882
1.00102e+07
885.13
151680
9.98198e+06
764.496
168172
9.95018e+06
944.709
184050
9.91645e+06
1505.76
199610
9.88313e+06
2510.4
213408
9.85199e+06
3712.18
224540
9.81925e+06
4639.76
230572
9.77304e+06
1831.87
229543
9.68958e+06
1549.1
233729
9.52609e+06
-1556.86
224597
9.40771e+06
6298.82
89221.7
9.35704e+06
2677.74
47474.9
9.37565e+06
-766.532
101174
9.43531e+06
-1314.71
222526
9.47117e+06
-50.8946
390699
9.4194e+06
-3556.92
572076
9.24771e+06
-16238.9
660521
8.94693e+06
-33471.4
607202
8.57753e+06
-36530.7
111339
8.18907e+06
-10477.4
-969151
7.68088e+06
7171.43
-2.04358e+06
6.93795e+06
6183.59
-2.48003e+06
6.01738e+06
3459.78
-2.03805e+06
5.09132e+06
9001.76
-1.17001e+06
4.3116e+06
24573.9
-427771
3.79712e+06
63724.4
-117726
3.64882e+06
184084
-168739
3.80887e+06
-253953
583917
3.96055e+06
-1.44813e+06
3.05028e+06
5.0604e+06
-1.03715e+06
2.18109e+06
6.3843e+06
-923302
661900
7.5663e+06
-580614
-1.08334e+06
8.1711e+06
-154074
-1.0621e+06
8.20872e+06
-277784
260343
7.75984e+06
-861123
1.84986e+06
6.96576e+06
-946251
2.42228e+06
7.49625e+06
-827806
712722
9.002e+06
-750069
273319
1.02139e+07
-517786
1.35905e+06
1.05372e+07
-20228.6
2.87424e+06
1.06106e+07
526742
2.88939e+06
1.16742e+07
-163673
2.93116e+06
1.28084e+07
247409
2.9247e+06
1.63128e+07
-1.38644e+06
-760390
1.75254e+07
-89014.4
-2.03283e+06
283889
-3.91125e+06
1.00053e+07
10922.6
1.00276e+07
24896.2
1.00454e+07
46147
1.00567e+07
64119.2
1.00607e+07
82016.8
1.00571e+07
99884.3
1.00461e+07
117518
1.00286e+07
134415
1.00052e+07
151227
9.97723e+06
167722
9.94588e+06
183583
9.91286e+06
198998
9.88045e+06
212417
9.84913e+06
223235
9.81455e+06
228297
9.76591e+06
229322
9.69669e+06
232027
9.56639e+06
217247
9.4037e+06
159405
9.31776e+06
83195.6
9.32493e+06
85397.5
9.37948e+06
187184
9.42058e+06
361080
9.37099e+06
547527
9.17479e+06
652969
8.85264e+06
556602
8.51025e+06
-48004.3
8.15161e+06
-1.05757e+06
7.68417e+06
-2.04026e+06
6.98408e+06
-2.49474e+06
6.09898e+06
-2.1096e+06
5.21099e+06
-1.23565e+06
4.50123e+06
-439725
4.116e+06
-77182.2
4.11771e+06
26573.8
3.53741e+06
1.6353e+06
2.06548e+06
3.11144e+06
1.79558e+06
-1.14299e+06
2.65291e+06
-4.63576e+06
4.02702e+06
-7.57876e+06
5.50742e+06
-6.49086e+06
5.82348e+06
-4.72057e+06
4.57395e+06
-2.94464e+06
3.87716e+06
-3.52912e+06
3.94064e+06
-4.31025e+06
3.87966e+06
-3.9333e+06
3.82264e+06
-2.98538e+06
4.526e+06
-2.32217e+06
6.31614e+06
-1.69031e+06
6.77867e+06
-562007
6.51377e+06
501015
243643
1.50749e+06
-3.69611e+06
-1.76312e+06
-4.20856e+06
1.00026e+07
1917.48
12345.1
1.00268e+07
3843.08
29292.6
1.00446e+07
4587.11
53752.8
1.00562e+07
3964.41
74665
1.00607e+07
3188.5
95457.9
1.00574e+07
2421.51
116640
1.00466e+07
1673.72
137392
1.00288e+07
1047.77
157750
1.00052e+07
634.236
178350
9.97688e+06
474.817
198792
9.9448e+06
590.148
219328
9.91065e+06
971.158
239213
9.87521e+06
1667.57
257623
9.83875e+06
2471.09
273698
9.79545e+06
2659.11
285722
9.74139e+06
1718.29
293323
9.66748e+06
499.715
299519
9.55909e+06
2426.99
319738
9.36345e+06
6521.33
279599
9.1764e+06
159.433
253097
9.07184e+06
-8141.41
249997
9.09023e+06
-3665.81
253377
9.14577e+06
5281.77
358791
9.15253e+06
7624.47
585994
9.02259e+06
-7368.95
832971
8.67942e+06
-9901.36
1.00224e+06
8.06351e+06
1717.85
761529
7.26329e+06
20830.3
-169270
6.34003e+06
30398.8
-1.14168e+06
5.3077e+06
11042.7
-1.46012e+06
4.24448e+06
2459.76
-982497
3.25559e+06
22675.3
-211513
2.37736e+06
73885.7
374345
1.45501e+06
280656
536463
-787130
1.16896e+06
962901
-178892
3495.41
84843.9
3.41632e+06
-1.22232e+06
1.10927e+06
5.19078e+06
-242271
805486
5.84376e+06
615483
-677777
6.20961e+06
840540
-2.49998e+06
6.78481e+06
481752
-2.32747e+06
6.12476e+06
300435
-90016.4
5.277e+06
201767
1.55442e+06
3.84039e+06
382516
2.34289e+06
3.69718e+06
257823
-303591
4.76795e+06
-327685
-1.09698e+06
6.3785e+06
-217785
-237025
7.83187e+06
269382
1.34724e+06
8.64795e+06
481799
1.90716e+06
9.02861e+06
708914
1.86476e+06
8.62326e+06
1.99428e+06
1.20122e+06
8.68429e+06
2.18484e+06
-4.00105e+06
6.89182e+06
-643168
-908780
-3.35261e+06
-4.0412e+06
1.00052e+07
12331.8
1.00264e+07
29169.7
1.00434e+07
53413.5
1.0054e+07
74205.6
1.00575e+07
94937.5
1.00534e+07
116088
1.0042e+07
136839
1.0024e+07
157221
1.00003e+07
177854
9.9722e+06
198322
9.94044e+06
218840
9.90672e+06
238604
9.87188e+06
256673
9.83504e+06
272268
9.79171e+06
283505
9.7337e+06
290633
9.6619e+06
298360
9.57273e+06
307086
9.44294e+06
306685
9.24932e+06
301493
9.06977e+06
287787
9.02993e+06
265156
9.07432e+06
360971
9.08538e+06
565921
8.95027e+06
805039
8.60384e+06
916557
8.04106e+06
534143
7.30681e+06
-291866
6.41624e+06
-1.11508e+06
5.40921e+06
-1.47874e+06
4.39283e+06
-1.09603e+06
3.5005e+06
-325114
2.854e+06
285230
2.68119e+06
431822
4.10866e+06
-66666
4.88637e+06
1.16047e+06
3.10192e+06
4.03675e+06
1.78544e+06
60613.9
2.0191e+06
-4.26037e+06
1.94333e+06
-6.82201e+06
2.50965e+06
-6.8721e+06
2.60803e+06
-5.12106e+06
3.13555e+06
-3.93206e+06
3.91856e+06
-4.41841e+06
3.96283e+06
-4.44024e+06
3.08056e+06
-3.58085e+06
2.40843e+06
-2.48355e+06
2.5843e+06
-1.93521e+06
3.57169e+06
-1.87907e+06
4.94118e+06
-1.15286e+06
7.41221e+06
-10977.8
1.25308e+07
-1.99432e+06
9.12759e+06
525085
2.12321e+06
1.00026e+07
1867.87
13809.1
1.00257e+07
3757.65
33574.6
1.00427e+07
4483.41
60783
1.00537e+07
3880.58
84376.3
1.00578e+07
3132.05
107922
1.00542e+07
2394.09
132335
1.00432e+07
1680.35
156209
1.00255e+07
1089.87
180081
1.00019e+07
701.05
204317
9.97304e+06
548.342
229294
9.94054e+06
631.573
253816
9.90478e+06
907.048
278216
9.86611e+06
1411.82
301490
9.82392e+06
1910.43
322794
9.77475e+06
2082.32
341379
9.71515e+06
1895.15
358633
9.64508e+06
1118.08
374843
9.58025e+06
4909.62
397384
9.48655e+06
-3127.2
403422
9.38552e+06
-1557.69
414477
9.28229e+06
2786.75
447155
9.12207e+06
23836
521073
9.00383e+06
1794.87
567037
8.95284e+06
-1344.67
685629
8.84786e+06
-11214.3
988216
8.57635e+06
-4727.5
1.3258e+06
7.96896e+06
18884.5
1.40099e+06
6.95459e+06
27580.5
858210
5.74743e+06
31959
53630.4
4.55929e+06
18691.6
-286668
3.49913e+06
12909.1
60177.6
2.56052e+06
37502.8
686770
1.54396e+06
130011
1.2597e+06
-510053
605673
1.9933e+06
-2.93188e+06
1.08134e+06
2.3648e+06
-2.98897e+06
10389.1
137186
-1.53911e+06
434684
-523516
749166
597719
-1.70582e+06
2.04405e+06
1.29374e+06
-3.01471e+06
2.75028e+06
1.47151e+06
-4.49915e+06
3.26288e+06
1.44245e+06
-4.31609e+06
3.60619e+06
1.26874e+06
-1.79607e+06
3.88065e+06
1.40673e+06
-386736
4.11146e+06
1.42083e+06
356232
3.68765e+06
1.03689e+06
-1.27256e+06
3.28013e+06
543521
-1.39376e+06
3.87094e+06
760352
-1.09188e+06
5.30475e+06
1.30099e+06
-611236
6.54795e+06
1.50305e+06
121774
6.30775e+06
1.9068e+06
1.19858e+06
-289525
4.86216e+06
3.42016e+06
-1.02115e+07
4.06499e+06
1.87304e+06
-1.1397e+07
675148
-1.32045e+06
3.63605e+06
3.07063e+06
1.00052e+07
13710.8
1.00254e+07
33349.8
1.00415e+07
60427.6
1.00515e+07
83954.3
1.00546e+07
107457
1.00502e+07
131857
1.00388e+07
155748
1.00208e+07
179654
9.99723e+06
203919
9.96847e+06
228909
9.93619e+06
253396
9.90073e+06
277719
9.8623e+06
300801
9.82001e+06
321870
9.77014e+06
340666
9.70996e+06
357764
9.64215e+06
375566
9.57253e+06
394925
9.48998e+06
412566
9.40218e+06
433336
9.30066e+06
470180
9.16757e+06
528974
9.00347e+06
629153
8.90226e+06
704887
8.78603e+06
945650
8.49795e+06
1.23188e+06
7.90364e+06
1.18246e+06
6.9937e+06
667120
5.86919e+06
54243.5
4.72166e+06
-308808
3.70349e+06
-65596
2.89861e+06
516627
2.31263e+06
1.00728e+06
1.8232e+06
1.58354e+06
371997
2.61259e+06
526926
1.17353e+06
2.24797e+06
3.16603e+06
2.00045e+06
1.26891e+06
2.19945e+06
-2.95065e+06
1.993e+06
-5.02607e+06
2.20643e+06
-5.62487e+06
3.27093e+06
-4.90338e+06
4.82817e+06
-4.07171e+06
5.64766e+06
-3.83963e+06
5.02988e+06
-2.81161e+06
3.5387e+06
-1.39695e+06
2.72486e+06
-479367
3.35673e+06
-498407
4.27273e+06
-431143
5.58867e+06
343903
9.24938e+06
2.05214e+06
1.26541e+07
-1.03441e+06
1.56772e+07
-1.90913e+06
-539761
1.00027e+07
1749.9
14833.6
1.00247e+07
3559.46
37642.1
1.0041e+07
4212.64
67402.2
1.00514e+07
3611.16
93617.4
1.00551e+07
2874.43
119925
1.00515e+07
2152.35
147271
1.0041e+07
1452
174096
1.00234e+07
859.787
201702
9.99978e+06
435.571
229679
9.97125e+06
207.363
258421
9.93794e+06
160.658
287575
9.90055e+06
280.715
316797
9.85919e+06
592.463
345660
9.81309e+06
975.281
373780
9.76156e+06
1590.74
401281
9.70161e+06
1597.37
428337
9.63859e+06
2938.74
456898
9.57363e+06
4059.88
487485
9.50102e+06
3676.8
519797
9.41815e+06
4357.15
565793
9.33927e+06
8611.59
634912
9.28128e+06
19726.2
733558
9.17399e+06
10961.1
866502
9.00531e+06
7209.95
965718
8.85632e+06
-16302.8
1.20878e+06
8.68505e+06
-21598.7
1.57124e+06
8.36025e+06
-9131.3
1.82178e+06
7.55473e+06
52831.9
1.75384e+06
6.17978e+06
88050.7
1.45803e+06
4.70018e+06
45488.1
1.22055e+06
3.62864e+06
26628.7
1.12718e+06
2.90417e+06
29499.1
1.3858e+06
2.35693e+06
79675.2
1.72594e+06
1.41464e+06
495570
2.42477e+06
-112720
602297
3.34699e+06
-295315
-379864
863574
1.11361e+06
-397358
-843065
2.11616e+06
-4768.32
-1.76704e+06
3.07052e+06
433660
-3.3287e+06
2.82732e+06
1.07718e+06
-4.19709e+06
2.46931e+06
1.31577e+06
-3.98233e+06
3.30088e+06
1.32597e+06
-2.68089e+06
4.43726e+06
1.28642e+06
-1.97443e+06
5.79908e+06
1.10717e+06
-1.66562e+06
6.32153e+06
413884
-2.03827e+06
6.49674e+06
239714
-1.52317e+06
6.244e+06
523723
-759720
5.89044e+06
1.04195e+06
-174009
6.05404e+06
1.0762e+06
487845
6.53886e+06
1.27476e+06
1.19574e+06
7.44961e+06
1.8913e+06
2.30753e+06
5.08427e+06
1.66582e+06
3.35662e+06
2.29816e+06
1.12586e+06
668618
2.02541e+06
-5.43654e+06
1.00051e+07
14818.4
1.00243e+07
37515
1.00398e+07
67047.2
1.00493e+07
93138.3
1.0052e+07
119393
1.00477e+07
146728
1.00367e+07
173581
1.00189e+07
201244
9.99518e+06
229291
9.9667e+06
258091
9.93351e+06
287279
9.89627e+06
316494
9.85505e+06
345266
9.80912e+06
373350
9.75719e+06
400675
9.6986e+06
428225
9.63554e+06
457034
9.57078e+06
488718
9.49843e+06
525786
9.42207e+06
571928
9.34912e+06
642581
9.2927e+06
736890
9.1816e+06
889775
9.00084e+06
993948
8.82735e+06
1.18601e+06
8.61001e+06
1.48527e+06
8.20481e+06
1.69778e+06
7.40827e+06
1.59071e+06
6.3035e+06
1.29136e+06
5.06359e+06
1.01371e+06
3.96711e+06
1.08569e+06
3.24227e+06
1.28281e+06
2.82521e+06
1.49698e+06
2.82865e+06
2.09388e+06
2.85654e+06
3.24014e+06
1.9018e+06
1.98463e+06
3.20505e+06
1.96173e+06
4.20319e+06
913780
3.91746e+06
-1.69286e+06
3.97366e+06
-3.47916e+06
4.39446e+06
-4.18773e+06
5.27674e+06
-3.90673e+06
6.24587e+06
-3.35567e+06
6.519e+06
-2.75321e+06
5.86851e+06
-1.50977e+06
4.87039e+06
186634
4.36744e+06
1.29314e+06
4.92161e+06
1.23911e+06
5.56131e+06
1.33811e+06
6.81325e+06
1.89265e+06
8.55686e+06
3.78757e+06
5.72319e+06
4.30946e+06
2.69139e+06
2.27488e+06
-419526
1.00027e+07
1696.48
16011.4
1.00237e+07
3476.66
41727.1
1.00394e+07
4125.01
73689.4
1.00495e+07
3558.31
102314
1.00531e+07
2863.24
131260
1.00497e+07
2183.12
161464
1.00394e+07
1527.88
191446
1.00226e+07
977.128
222469
9.9994e+06
583.389
254581
9.9708e+06
366.3
287629
9.93733e+06
322.068
321500
9.89886e+06
446.796
356495
9.85576e+06
765.154
391810
9.80848e+06
1337.17
427354
9.75647e+06
2074.23
463935
9.7e+06
2958.81
501808
9.64075e+06
4416.57
543444
9.57989e+06
6199.34
588233
9.51735e+06
8766.64
641709
9.45259e+06
11175.4
709115
9.39664e+06
16162.5
800968
9.37154e+06
22167.6
917201
9.3459e+06
19492.1
1.0939e+06
9.21902e+06
32324.9
1.28438e+06
9.01996e+06
14205
1.5154e+06
8.82228e+06
-25557.1
1.86404e+06
8.79262e+06
-20725.7
2.1139e+06
8.51586e+06
57283.9
2.33018e+06
7.49183e+06
187056
2.61001e+06
5.94114e+06
221995
2.79227e+06
4.54597e+06
113653
2.53829e+06
3.65684e+06
16215.1
2.32242e+06
3.23718e+06
43228.2
2.1112e+06
3.15225e+06
271127
2.21468e+06
3.22018e+06
249852
3.04025e+06
3.0906e+06
-333853
1.551e+06
3.50071e+06
-723666
24163.6
4.15993e+06
-465753
-1.21759e+06
4.39715e+06
-97944.6
-2.53893e+06
4.51429e+06
204529
-3.33161e+06
4.76896e+06
571779
-3.37359e+06
5.6264e+06
777091
-2.80873e+06
6.42627e+06
681461
-2.28989e+06
7.13683e+06
325881
-2.02881e+06
7.54203e+06
-312323
-1.80197e+06
8.0353e+06
-787884
-1.10689e+06
8.62686e+06
-648939
-469744
9.05454e+06
-113773
38806.5
9.52608e+06
97765.6
538859
9.59908e+06
626010
1.18045e+06
1.04377e+07
584086
1.65132e+06
9.86643e+06
551339
4.10486e+06
4.55121e+06
1.35218e+06
4.91364e+06
4.82075e+06
2.2289e+06
1.0005e+07
15912.9
1.00234e+07
41534.8
1.00383e+07
73365.2
1.00474e+07
101937
1.00501e+07
130867
1.00461e+07
161091
1.00353e+07
191131
1.00182e+07
222235
9.99499e+06
254438
9.96643e+06
287575
9.93304e+06
321545
9.8947e+06
356660
9.8518e+06
392143
9.8047e+06
427943
9.75301e+06
464860
9.69731e+06
503603
9.63888e+06
545661
9.57957e+06
591959
9.51869e+06
645720
9.45852e+06
713279
9.40827e+06
803298
9.37102e+06
919790
9.3501e+06
1.08894e+06
9.27425e+06
1.27929e+06
9.13754e+06
1.51114e+06
8.96206e+06
1.80106e+06
8.81487e+06
2.0614e+06
8.331e+06
2.30669e+06
7.55445e+06
2.39241e+06
6.47035e+06
2.45038e+06
5.26116e+06
2.51193e+06
4.23651e+06
2.37883e+06
3.66123e+06
2.14189e+06
3.9714e+06
2.0555e+06
4.71975e+06
2.78386e+06
4.13994e+06
2.39113e+06
4.27458e+06
1.45331e+06
5.1107e+06
171542
5.32517e+06
-1.3985e+06
5.38158e+06
-2.60998e+06
5.69419e+06
-3.11371e+06
6.37875e+06
-2.97138e+06
6.85573e+06
-2.4945e+06
6.76235e+06
-1.86987e+06
6.11854e+06
-907063
5.50755e+06
257945
5.71696e+06
801063
6.254e+06
1.02302e+06
6.27626e+06
1.97012e+06
7.03501e+06
2.3977e+06
8.70306e+06
3.38321e+06
8.16336e+06
5.75436e+06
5.71513e+06
6.19534e+06
2.54462e+06
1.00029e+07
1578
16776.6
1.0023e+07
3316.4
45559.2
1.00382e+07
3887.4
79535.2
1.00481e+07
3329.84
110524
1.00519e+07
2661.06
142028
1.00491e+07
2013.38
175019
1.00396e+07
1390.1
208129
1.00236e+07
858.77
242703
1.00014e+07
465.267
278890
9.97354e+06
226.692
316644
9.94022e+06
167.607
356037
9.90188e+06
312.989
397470
9.85887e+06
740.758
440596
9.81167e+06
1549.79
485594
9.76111e+06
2681.5
532741
9.70846e+06
4364.67
583215
9.65404e+06
5976.18
637266
9.60215e+06
8962.84
696864
9.55271e+06
11600.3
762292
9.51167e+06
14844.5
838452
9.49064e+06
18862.3
931645
9.49667e+06
20620.1
1.04814e+06
9.50905e+06
14756.2
1.24776e+06
9.51513e+06
34045
1.48858e+06
9.3939e+06
62204.3
1.79811e+06
9.22871e+06
38694.3
2.18478e+06
9.14597e+06
61524.4
2.44751e+06
9.00373e+06
57797.1
2.73263e+06
8.68937e+06
96737.9
3.12916e+06
7.96813e+06
186357
3.60369e+06
6.74065e+06
220815
3.78365e+06
5.4898e+06
189398
3.54997e+06
4.62937e+06
99866.8
2.95357e+06
4.37349e+06
55671.5
2.45027e+06
4.81609e+06
66163.6
2.55681e+06
4.8845e+06
-192616
1.8316e+06
4.93234e+06
-291413
703100
5.03443e+06
-62062.8
-505418
5.13369e+06
15207.8
-1.63192e+06
5.35489e+06
79991
-2.27051e+06
5.83294e+06
206943
-2.42194e+06
6.58492e+06
306700
-2.19542e+06
7.33215e+06
163254
-1.91288e+06
7.89268e+06
-93979.7
-1.72252e+06
8.23411e+06
-298660
-1.60405e+06
8.71576e+06
-498625
-1.24228e+06
9.33641e+06
-755796
-714490
1.00099e+07
-742913
-340353
1.08601e+07
-466553
-123320
1.15461e+07
252506
250394
1.21832e+07
1.03154e+06
127401
1.38137e+07
872658
1.9434e+06
1.46056e+07
321668
3.78664e+06
610757
3.78526e+06
1.00049e+07
16760.7
1.00226e+07
45447.8
1.00371e+07
79216.2
1.00461e+07
110096
1.00491e+07
141566
1.00456e+07
174574
1.00357e+07
207748
1.00194e+07
242426
9.99721e+06
278737
9.96934e+06
316627
9.93611e+06
356162
9.89795e+06
397759
9.85521e+06
441085
9.80842e+06
486334
9.75857e+06
533893
9.70648e+06
584727
9.65405e+06
639793
9.60284e+06
699861
9.55595e+06
766123
9.51687e+06
842545
9.49351e+06
938451
9.49193e+06
1.06128e+06
9.5085e+06
1.23276e+06
9.53835e+06
1.4689e+06
9.51392e+06
1.79685e+06
9.40608e+06
2.1667e+06
9.24532e+06
2.50832e+06
9.00022e+06
2.81814e+06
8.61035e+06
3.06695e+06
8.06356e+06
3.34847e+06
7.35876e+06
3.57148e+06
6.52293e+06
3.49734e+06
5.71705e+06
3.0905e+06
5.31678e+06
2.53301e+06
5.74193e+06
2.46387e+06
5.87689e+06
2.18217e+06
5.96376e+06
1.38161e+06
6.21103e+06
399575
6.3241e+06
-811999
6.39391e+06
-1.75197e+06
6.6486e+06
-2.19976e+06
7.15399e+06
-2.24583e+06
7.48152e+06
-1.93134e+06
7.44845e+06
-1.48736e+06
7.41577e+06
-1.0261e+06
7.53171e+06
-496139
7.28251e+06
-61503
6.92408e+06
276510
7.29451e+06
1.02475e+06
8.16574e+06
1.79494e+06
1.05411e+07
2.13377e+06
1.33571e+07
3.82499e+06
1.45494e+07
5.65438e+06
4.28039e+06
1.00028e+07
1528.16
17683.6
1.00224e+07
3250.87
49270.1
1.00374e+07
3835.51
84928.1
1.00474e+07
3325.54
118033
1.00517e+07
2708.94
151930
1.00498e+07
2113.52
187590
1.00413e+07
1545.57
224018
1.00267e+07
1068.85
262046
1.00063e+07
723.875
302308
9.97988e+06
533.594
345335
9.94772e+06
531.08
390954
9.91065e+06
774.226
439367
9.86905e+06
1353.51
491121
9.82413e+06
2372.36
545999
9.77658e+06
3871.54
605013
9.72788e+06
5742.6
668080
9.67962e+06
7986.07
735729
9.63523e+06
10796.6
808235
9.59865e+06
13452.5
883163
9.57754e+06
17370.1
963527
9.58373e+06
19797.5
1.04852e+06
9.56092e+06
36964.4
1.17504e+06
9.59859e+06
25318.4
1.31197e+06
9.7681e+06
25210.1
1.51585e+06
9.81471e+06
48991.4
1.94639e+06
9.70544e+06
74302.5
2.47986e+06
9.47067e+06
62753.2
2.87132e+06
9.26472e+06
47619
3.11044e+06
9.17791e+06
45932.6
3.36155e+06
9.08799e+06
84901.3
3.77589e+06
8.65672e+06
153287
4.19629e+06
7.80259e+06
201232
4.29701e+06
6.74838e+06
151017
3.91234e+06
5.93923e+06
59921.9
3.23137e+06
5.82483e+06
41419.3
2.68491e+06
5.8567e+06
-43078.6
1.99621e+06
5.96562e+06
-94514.5
1.08459e+06
6.02454e+06
-22048.5
172249
5.99863e+06
100576
-726532
6.11852e+06
192947
-1.34921e+06
6.47075e+06
263444
-1.61613e+06
7.0115e+06
294000
-1.66137e+06
7.66484e+06
201111
-1.60959e+06
8.3828e+06
-77743.3
-1.56766e+06
8.95534e+06
-271474
-1.545e+06
9.42075e+06
-287478
-1.50113e+06
9.9564e+06
-292083
-1.34551e+06
1.06653e+07
-549492
-1.0062e+06
1.14434e+07
-849771
-645048
1.21408e+07
-607215
-495176
1.24302e+07
170117
-706290
1.37193e+07
468979
-78297.9
1.74184e+07
-233241
907035
-899194
2.42272e+06
1.00049e+07
17595.1
1.0022e+07
49140.7
1.00363e+07
84681.8
1.00456e+07
117758
1.0049e+07
151669
1.00465e+07
187387
1.00376e+07
223916
1.00228e+07
262077
1.00023e+07
302494
9.97595e+06
345697
9.94393e+06
391515
9.90709e+06
440180
9.86586e+06
492267
9.82149e+06
547567
9.77465e+06
607135
9.72699e+06
670811
9.68018e+06
739385
9.63699e+06
812201
9.6015e+06
888390
9.58154e+06
968578
9.58581e+06
1.05871e+06
9.63105e+06
1.16765e+06
9.71055e+06
1.31711e+06
9.81452e+06
1.52854e+06
9.87167e+06
1.98313e+06