/*--------------------------------*- C++ -*----------------------------------*\
| =========                 |                                                 |
| \\      /  F ield         | OpenFOAM: The Open Source CFD Toolbox           |
|  \\    /   O peration     | Version:  4.1                                   |
|   \\  /    A nd           | Web:      www.OpenFOAM.org                      |
|    \\/     M anipulation  |                                                 |
\*---------------------------------------------------------------------------*/
FoamFile
{
    version     2.0;
    format      ascii;
    class       volScalarField;
    location    "97";
    object      p;
}
// * * * * * * * * * * * * * * * * * * * * * * * * * * * * * * * * * * * * * //

dimensions      [0 2 -2 0 0 0 0];

internalField   nonuniform List<scalar> 
4432
(
-3.78801e+10
-3.78548e+10
-3.79227e+10
-3.79389e+10
-3.79624e+10
-3.79989e+10
-3.8037e+10
-3.80771e+10
-3.81173e+10
-3.81564e+10
-3.81934e+10
-3.82273e+10
-3.82563e+10
-3.82783e+10
-3.82914e+10
-3.82935e+10
-3.82814e+10
-3.82521e+10
-3.82042e+10
-3.81368e+10
-3.80496e+10
-3.79442e+10
-3.78234e+10
-3.76919e+10
-3.7555e+10
-3.74193e+10
-3.72905e+10
-3.71746e+10
-3.7075e+10
-3.69932e+10
-3.69276e+10
-3.68739e+10
-3.68269e+10
-3.67812e+10
-3.6734e+10
-3.66861e+10
-3.66429e+10
-3.66138e+10
-3.66088e+10
-3.66321e+10
-3.66722e+10
-3.66899e+10
-3.66172e+10
-3.64087e+10
-3.61629e+10
-3.61902e+10
-3.67215e+10
-3.71972e+10
-3.61569e+10
-3.3558e+10
-3.43381e+10
-4.46997e+10
-5.50154e+10
-2.72938e+10
-3.7914e+10
-3.78748e+10
-3.79102e+10
-3.79435e+10
-3.79681e+10
-3.80024e+10
-3.8042e+10
-3.80824e+10
-3.81222e+10
-3.8161e+10
-3.8198e+10
-3.82319e+10
-3.82606e+10
-3.82825e+10
-3.82956e+10
-3.82979e+10
-3.82863e+10
-3.82575e+10
-3.82097e+10
-3.81418e+10
-3.80538e+10
-3.79472e+10
-3.78247e+10
-3.76911e+10
-3.75516e+10
-3.74129e+10
-3.7281e+10
-3.71618e+10
-3.70587e+10
-3.69734e+10
-3.69044e+10
-3.68477e+10
-3.67981e+10
-3.675e+10
-3.67009e+10
-3.66514e+10
-3.66071e+10
-3.65768e+10
-3.65693e+10
-3.65883e+10
-3.66223e+10
-3.66316e+10
-3.65484e+10
-3.63279e+10
-3.60724e+10
-3.61044e+10
-3.66745e+10
-3.71979e+10
-3.60089e+10
-3.26315e+10
-3.19814e+10
-4.25198e+10
-5.63256e+10
-2.99219e+10
-3.78984e+10
-3.7881e+10
-3.79006e+10
-3.79395e+10
-3.79683e+10
-3.80011e+10
-3.80443e+10
-3.80899e+10
-3.81368e+10
-3.81842e+10
-3.82308e+10
-3.82762e+10
-3.8318e+10
-3.83529e+10
-3.8377e+10
-3.8387e+10
-3.83806e+10
-3.83551e+10
-3.8309e+10
-3.82403e+10
-3.81483e+10
-3.80343e+10
-3.79014e+10
-3.77554e+10
-3.76026e+10
-3.74512e+10
-3.73078e+10
-3.71791e+10
-3.70689e+10
-3.69789e+10
-3.69077e+10
-3.68512e+10
-3.68041e+10
-3.67612e+10
-3.67196e+10
-3.668e+10
-3.66473e+10
-3.66298e+10
-3.66354e+10
-3.66669e+10
-3.67116e+10
-3.67262e+10
-3.66355e+10
-3.63881e+10
-3.60954e+10
-3.61086e+10
-3.66699e+10
-3.70614e+10
-3.54933e+10
-3.18943e+10
-3.2154e+10
-4.42801e+10
-5.87259e+10
-3.60821e+10
-3.78957e+10
-3.78885e+10
-3.79132e+10
-3.79437e+10
-3.79723e+10
-3.80057e+10
-3.80489e+10
-3.80938e+10
-3.814e+10
-3.81865e+10
-3.82323e+10
-3.82768e+10
-3.83175e+10
-3.83509e+10
-3.83737e+10
-3.83834e+10
-3.83773e+10
-3.83522e+10
-3.83061e+10
-3.82369e+10
-3.81439e+10
-3.80286e+10
-3.78941e+10
-3.77463e+10
-3.75917e+10
-3.74385e+10
-3.72934e+10
-3.71633e+10
-3.70519e+10
-3.69611e+10
-3.68894e+10
-3.68327e+10
-3.67856e+10
-3.67426e+10
-3.67007e+10
-3.66605e+10
-3.66267e+10
-3.66069e+10
-3.66087e+10
-3.66351e+10
-3.66729e+10
-3.66783e+10
-3.65758e+10
-3.63144e+10
-3.60105e+10
-3.60286e+10
-3.66216e+10
-3.70145e+10
-3.52462e+10
-3.13118e+10
-3.2248e+10
-4.67799e+10
-5.93123e+10
-2.98326e+10
-3.7859e+10
-3.7881e+10
-3.78748e+10
-3.79067e+10
-3.79383e+10
-3.79726e+10
-3.80144e+10
-3.80612e+10
-3.81107e+10
-3.8161e+10
-3.82108e+10
-3.82595e+10
-3.83049e+10
-3.83428e+10
-3.83699e+10
-3.8384e+10
-3.83837e+10
-3.83659e+10
-3.83268e+10
-3.82634e+10
-3.81736e+10
-3.80573e+10
-3.79178e+10
-3.7761e+10
-3.7595e+10
-3.74292e+10
-3.72716e+10
-3.71295e+10
-3.70073e+10
-3.69072e+10
-3.6828e+10
-3.67659e+10
-3.67155e+10
-3.66715e+10
-3.66308e+10
-3.65937e+10
-3.65647e+10
-3.65514e+10
-3.65623e+10
-3.66023e+10
-3.66598e+10
-3.66876e+10
-3.66011e+10
-3.6341e+10
-3.60349e+10
-3.60938e+10
-3.68163e+10
-3.74014e+10
-3.58149e+10
-3.19757e+10
-3.23101e+10
-4.47252e+10
-5.70092e+10
-2.89691e+10
-3.78428e+10
-3.7878e+10
-3.78914e+10
-3.79118e+10
-3.79408e+10
-3.79769e+10
-3.80193e+10
-3.80658e+10
-3.81155e+10
-3.81662e+10
-3.82169e+10
-3.82671e+10
-3.83145e+10
-3.83551e+10
-3.83849e+10
-3.84009e+10
-3.84006e+10
-3.83813e+10
-3.83407e+10
-3.8276e+10
-3.81847e+10
-3.80667e+10
-3.79249e+10
-3.77658e+10
-3.75976e+10
-3.74299e+10
-3.72711e+10
-3.71284e+10
-3.70061e+10
-3.69059e+10
-3.68262e+10
-3.67628e+10
-3.671e+10
-3.66623e+10
-3.66168e+10
-3.6574e+10
-3.65384e+10
-3.65179e+10
-3.6521e+10
-3.65514e+10
-3.65969e+10
-3.66113e+10
-3.65113e+10
-3.62393e+10
-3.59267e+10
-3.5991e+10
-3.67214e+10
-3.72254e+10
-3.52499e+10
-3.06203e+10
-3.04311e+10
-4.38227e+10
-5.84869e+10
-3.13018e+10
-3.78401e+10
-3.78656e+10
-3.78863e+10
-3.79076e+10
-3.79405e+10
-3.79802e+10
-3.80254e+10
-3.80756e+10
-3.81302e+10
-3.81875e+10
-3.82467e+10
-3.83074e+10
-3.83675e+10
-3.8423e+10
-3.84694e+10
-3.85019e+10
-3.85153e+10
-3.85055e+10
-3.84692e+10
-3.84026e+10
-3.83029e+10
-3.81694e+10
-3.8006e+10
-3.78212e+10
-3.76263e+10
-3.74335e+10
-3.72534e+10
-3.70939e+10
-3.69597e+10
-3.68526e+10
-3.67709e+10
-3.67101e+10
-3.66638e+10
-3.6626e+10
-3.65932e+10
-3.65647e+10
-3.65442e+10
-3.65386e+10
-3.65562e+10
-3.6602e+10
-3.66653e+10
-3.66991e+10
-3.66132e+10
-3.63362e+10
-3.59863e+10
-3.59831e+10
-3.66636e+10
-3.72711e+10
-3.57127e+10
-3.15828e+10
-3.1095e+10
-4.34794e+10
-6.03936e+10
-3.80216e+10
-3.78443e+10
-3.78759e+10
-3.78977e+10
-3.79162e+10
-3.79464e+10
-3.79865e+10
-3.80309e+10
-3.80798e+10
-3.81332e+10
-3.81893e+10
-3.82474e+10
-3.83069e+10
-3.83658e+10
-3.84205e+10
-3.84664e+10
-3.84988e+10
-3.85126e+10
-3.85037e+10
-3.84683e+10
-3.84031e+10
-3.83049e+10
-3.81731e+10
-3.80112e+10
-3.78275e+10
-3.76333e+10
-3.74406e+10
-3.72602e+10
-3.71e+10
-3.69647e+10
-3.68556e+10
-3.67708e+10
-3.67055e+10
-3.66535e+10
-3.66088e+10
-3.65677e+10
-3.65301e+10
-3.65001e+10
-3.64853e+10
-3.64947e+10
-3.65336e+10
-3.65912e+10
-3.66206e+10
-3.65322e+10
-3.62576e+10
-3.59213e+10
-3.59517e+10
-3.66698e+10
-3.72222e+10
-3.54053e+10
-3.12097e+10
-3.21626e+10
-4.71253e+10
-6.03535e+10
-3.01704e+10
-3.77839e+10
-3.78049e+10
-3.78274e+10
-3.78493e+10
-3.78793e+10
-3.79184e+10
-3.79649e+10
-3.8017e+10
-3.80742e+10
-3.81359e+10
-3.82016e+10
-3.82699e+10
-3.83388e+10
-3.84047e+10
-3.84632e+10
-3.85087e+10
-3.85356e+10
-3.85387e+10
-3.85129e+10
-3.84518e+10
-3.8349e+10
-3.82014e+10
-3.80128e+10
-3.77945e+10
-3.75628e+10
-3.73339e+10
-3.71219e+10
-3.69362e+10
-3.6782e+10
-3.66603e+10
-3.65685e+10
-3.65009e+10
-3.64502e+10
-3.64094e+10
-3.63742e+10
-3.63439e+10
-3.63224e+10
-3.63175e+10
-3.63391e+10
-3.63943e+10
-3.6475e+10
-3.65365e+10
-3.64889e+10
-3.6257e+10
-3.59465e+10
-3.5964e+10
-3.66669e+10
-3.73926e+10
-3.61503e+10
-3.244e+10
-3.20436e+10
-4.40473e+10
-5.96664e+10
-3.27228e+10
-3.77992e+10
-3.78219e+10
-3.78415e+10
-3.78611e+10
-3.78897e+10
-3.79279e+10
-3.79731e+10
-3.80242e+10
-3.80802e+10
-3.81407e+10
-3.82051e+10
-3.82725e+10
-3.83403e+10
-3.84052e+10
-3.84628e+10
-3.85077e+10
-3.85343e+10
-3.85374e+10
-3.85115e+10
-3.84503e+10
-3.83479e+10
-3.82012e+10
-3.80137e+10
-3.77963e+10
-3.75649e+10
-3.73357e+10
-3.71227e+10
-3.69356e+10
-3.67796e+10
-3.66558e+10
-3.65616e+10
-3.64919e+10
-3.64398e+10
-3.63987e+10
-3.63643e+10
-3.63362e+10
-3.6318e+10
-3.63173e+10
-3.63431e+10
-3.64013e+10
-3.64818e+10
-3.65374e+10
-3.64747e+10
-3.62148e+10
-3.58623e+10
-3.58226e+10
-3.64331e+10
-3.69573e+10
-3.53418e+10
-3.13828e+10
-3.18087e+10
-4.54772e+10
-5.95591e+10
-3.02341e+10
-3.77872e+10
-3.78008e+10
-3.78185e+10
-3.78407e+10
-3.78698e+10
-3.79086e+10
-3.79571e+10
-3.80136e+10
-3.80771e+10
-3.81482e+10
-3.82271e+10
-3.83117e+10
-3.83997e+10
-3.84875e+10
-3.85702e+10
-3.86411e+10
-3.86924e+10
-3.8717e+10
-3.87086e+10
-3.86586e+10
-3.85562e+10
-3.83937e+10
-3.81748e+10
-3.79158e+10
-3.76401e+10
-3.73707e+10
-3.71255e+10
-3.69156e+10
-3.67459e+10
-3.66162e+10
-3.65219e+10
-3.64557e+10
-3.64091e+10
-3.63738e+10
-3.63443e+10
-3.6319e+10
-3.63014e+10
-3.62995e+10
-3.63239e+10
-3.63828e+10
-3.6469e+10
-3.65383e+10
-3.64997e+10
-3.62718e+10
-3.59444e+10
-3.59051e+10
-3.65224e+10
-3.71967e+10
-3.59856e+10
-3.23583e+10
-3.22974e+10
-4.46738e+10
-5.84626e+10
-3.0372e+10
-3.78051e+10
-3.78168e+10
-3.78365e+10
-3.78586e+10
-3.78892e+10
-3.79283e+10
-3.79767e+10
-3.80337e+10
-3.80982e+10
-3.817e+10
-3.82489e+10
-3.83336e+10
-3.84214e+10
-3.85091e+10
-3.8592e+10
-3.86633e+10
-3.87153e+10
-3.87407e+10
-3.87323e+10
-3.86816e+10
-3.85775e+10
-3.84125e+10
-3.81907e+10
-3.79288e+10
-3.76506e+10
-3.73795e+10
-3.71336e+10
-3.69243e+10
-3.67564e+10
-3.66293e+10
-3.65387e+10
-3.64772e+10
-3.64363e+10
-3.64077e+10
-3.63854e+10
-3.63669e+10
-3.63547e+10
-3.63553e+10
-3.63778e+10
-3.64283e+10
-3.64977e+10
-3.654e+10
-3.64622e+10
-3.61817e+10
-3.57882e+10
-3.56721e+10
-3.62018e+10
-3.67581e+10
-3.53126e+10
-3.10727e+10
-2.96841e+10
-4.14255e+10
-5.97284e+10
-3.8225e+10
-3.77285e+10
-3.77405e+10
-3.77571e+10
-3.77818e+10
-3.78156e+10
-3.78607e+10
-3.79167e+10
-3.79817e+10
-3.80548e+10
-3.81369e+10
-3.82278e+10
-3.83263e+10
-3.84305e+10
-3.85376e+10
-3.86431e+10
-3.87393e+10
-3.88166e+10
-3.88656e+10
-3.88789e+10
-3.88455e+10
-3.87482e+10
-3.85693e+10
-3.8309e+10
-3.79912e+10
-3.76525e+10
-3.7327e+10
-3.70388e+10
-3.68007e+10
-3.6616e+10
-3.64816e+10
-3.63898e+10
-3.63309e+10
-3.62942e+10
-3.62705e+10
-3.6253e+10
-3.62395e+10
-3.62329e+10
-3.6241e+10
-3.62743e+10
-3.63408e+10
-3.64326e+10
-3.65048e+10
-3.64641e+10
-3.62232e+10
-3.58592e+10
-3.57502e+10
-3.62787e+10
-3.68666e+10
-3.54773e+10
-3.12021e+10
-2.97381e+10
-4.16636e+10
-5.971e+10
-3.66866e+10
-3.77257e+10
-3.77359e+10
-3.77524e+10
-3.77777e+10
-3.78121e+10
-3.7856e+10
-3.79101e+10
-3.79736e+10
-3.80459e+10
-3.81269e+10
-3.82166e+10
-3.83137e+10
-3.84168e+10
-3.8523e+10
-3.86276e+10
-3.87228e+10
-3.87986e+10
-3.88459e+10
-3.88575e+10
-3.88233e+10
-3.87256e+10
-3.85476e+10
-3.82888e+10
-3.7972e+10
-3.76331e+10
-3.73058e+10
-3.70144e+10
-3.67723e+10
-3.65834e+10
-3.64451e+10
-3.63504e+10
-3.62896e+10
-3.62522e+10
-3.62279e+10
-3.62098e+10
-3.61947e+10
-3.61844e+10
-3.61853e+10
-3.62069e+10
-3.62562e+10
-3.63254e+10
-3.63708e+10
-3.63025e+10
-3.60385e+10
-3.56671e+10
-3.55881e+10
-3.62238e+10
-3.70471e+10
-3.60041e+10
-3.19651e+10
-3.01924e+10
-4.13834e+10
-5.93781e+10
-3.40302e+10
-3.77221e+10
-3.77374e+10
-3.77542e+10
-3.77797e+10
-3.78145e+10
-3.78595e+10
-3.79135e+10
-3.79758e+10
-3.80473e+10
-3.81297e+10
-3.82238e+10
-3.83304e+10
-3.84497e+10
-3.85807e+10
-3.87193e+10
-3.88564e+10
-3.89784e+10
-3.90719e+10
-3.91274e+10
-3.9134e+10
-3.90638e+10
-3.88791e+10
-3.85655e+10
-3.81591e+10
-3.77243e+10
-3.73167e+10
-3.6969e+10
-3.6694e+10
-3.64907e+10
-3.63503e+10
-3.62603e+10
-3.62072e+10
-3.61783e+10
-3.61631e+10
-3.61547e+10
-3.61511e+10
-3.61558e+10
-3.61773e+10
-3.62277e+10
-3.63165e+10
-3.64378e+10
-3.65492e+10
-3.65608e+10
-3.63864e+10
-3.6106e+10
-3.61137e+10
-3.68394e+10
-3.77669e+10
-3.68697e+10
-3.32245e+10
-3.24285e+10
-4.40279e+10
-5.91067e+10
-3.01503e+10
-3.77211e+10
-3.77247e+10
-3.77414e+10
-3.7766e+10
-3.77991e+10
-3.78407e+10
-3.78921e+10
-3.79531e+10
-3.80241e+10
-3.81066e+10
-3.82015e+10
-3.83099e+10
-3.8432e+10
-3.85667e+10
-3.87099e+10
-3.88523e+10
-3.89803e+10
-3.90805e+10
-3.91435e+10
-3.91572e+10
-3.90934e+10
-3.89131e+10
-3.86024e+10
-3.81981e+10
-3.77656e+10
-3.73608e+10
-3.70161e+10
-3.67441e+10
-3.65437e+10
-3.64059e+10
-3.63182e+10
-3.62673e+10
-3.62408e+10
-3.62277e+10
-3.62204e+10
-3.62159e+10
-3.62169e+10
-3.62308e+10
-3.62687e+10
-3.63396e+10
-3.64376e+10
-3.65203e+10
-3.64979e+10
-3.62848e+10
-3.59628e+10
-3.59335e+10
-3.66476e+10
-3.76291e+10
-3.68969e+10
-3.35389e+10
-3.32155e+10
-4.54356e+10
-6.00197e+10
-3.28344e+10
-3.76435e+10
-3.76544e+10
-3.76653e+10
-3.76844e+10
-3.77136e+10
-3.77535e+10
-3.78042e+10
-3.78672e+10
-3.79449e+10
-3.80399e+10
-3.81541e+10
-3.82898e+10
-3.84478e+10
-3.86271e+10
-3.88225e+10
-3.9022e+10
-3.92062e+10
-3.93559e+10
-3.94624e+10
-3.95202e+10
-3.94936e+10
-3.93067e+10
-3.8909e+10
-3.83539e+10
-3.77655e+10
-3.72374e+10
-3.681e+10
-3.64914e+10
-3.62708e+10
-3.61293e+10
-3.60466e+10
-3.60043e+10
-3.59873e+10
-3.59839e+10
-3.59868e+10
-3.59937e+10
-3.60075e+10
-3.6036e+10
-3.60902e+10
-3.61781e+10
-3.62923e+10
-3.63878e+10
-3.63697e+10
-3.61463e+10
-3.57927e+10
-3.57077e+10
-3.63409e+10
-3.72043e+10
-3.63041e+10
-3.2801e+10
-3.25469e+10
-4.52373e+10
-6.11388e+10
-3.44415e+10
-3.76381e+10
-3.76423e+10
-3.7654e+10
-3.76739e+10
-3.77029e+10
-3.77424e+10
-3.77944e+10
-3.78603e+10
-3.79416e+10
-3.80406e+10
-3.81597e+10
-3.83007e+10
-3.84643e+10
-3.86493e+10
-3.88504e+10
-3.90553e+10
-3.92442e+10
-3.93975e+10
-3.9506e+10
-3.95637e+10
-3.95354e+10
-3.93459e+10
-3.89453e+10
-3.83875e+10
-3.7798e+10
-3.72717e+10
-3.68493e+10
-3.65382e+10
-3.63264e+10
-3.61936e+10
-3.6118e+10
-3.60803e+10
-3.60648e+10
-3.60597e+10
-3.6057e+10
-3.60542e+10
-3.60546e+10
-3.60668e+10
-3.61025e+10
-3.61719e+10
-3.62698e+10
-3.63537e+10
-3.63309e+10
-3.61084e+10
-3.5756e+10
-3.5664e+10
-3.62746e+10
-3.70945e+10
-3.60865e+10
-3.22027e+10
-3.10284e+10
-4.35918e+10
-6.41212e+10
-4.2594e+10
-3.76239e+10
-3.76327e+10
-3.76457e+10
-3.76655e+10
-3.76961e+10
-3.77392e+10
-3.77959e+10
-3.78683e+10
-3.7958e+10
-3.80663e+10
-3.81957e+10
-3.83488e+10
-3.85282e+10
-3.87358e+10
-3.89697e+10
-3.922e+10
-3.94658e+10
-3.96814e+10
-3.98563e+10
-3.99926e+10
-4.00512e+10
-3.98957e+10
-3.93905e+10
-3.8603e+10
-3.77757e+10
-3.70804e+10
-3.65617e+10
-3.62123e+10
-3.59975e+10
-3.58796e+10
-3.58267e+10
-3.58141e+10
-3.58239e+10
-3.58435e+10
-3.58658e+10
-3.58887e+10
-3.59153e+10
-3.59531e+10
-3.60121e+10
-3.60991e+10
-3.62046e+10
-3.62798e+10
-3.62246e+10
-3.59384e+10
-3.54862e+10
-3.52597e+10
-3.57104e+10
-3.63523e+10
-3.51149e+10
-3.08538e+10
-2.92017e+10
-4.16591e+10
-6.28461e+10
-4.22747e+10
-3.76058e+10
-3.76159e+10
-3.76291e+10
-3.76501e+10
-3.7681e+10
-3.7725e+10
-3.77832e+10
-3.78572e+10
-3.79485e+10
-3.80585e+10
-3.81896e+10
-3.83442e+10
-3.85251e+10
-3.87338e+10
-3.89683e+10
-3.92181e+10
-3.94608e+10
-3.96701e+10
-3.98353e+10
-3.99623e+10
-4.0017e+10
-3.98719e+10
-3.93939e+10
-3.86385e+10
-3.78367e+10
-3.71587e+10
-3.66511e+10
-3.63074e+10
-3.6094e+10
-3.59741e+10
-3.5916e+10
-3.58951e+10
-3.58928e+10
-3.58964e+10
-3.58989e+10
-3.58986e+10
-3.58996e+10
-3.59107e+10
-3.59437e+10
-3.6009e+10
-3.61019e+10
-3.618e+10
-3.61498e+10
-3.59167e+10
-3.555e+10
-3.54449e+10
-3.60607e+10
-3.69187e+10
-3.59012e+10
-3.16575e+10
-2.95287e+10
-4.13853e+10
-6.26412e+10
-4.16989e+10
-3.75245e+10
-3.75273e+10
-3.75336e+10
-3.75445e+10
-3.75635e+10
-3.75935e+10
-3.7637e+10
-3.76965e+10
-3.77739e+10
-3.78723e+10
-3.7997e+10
-3.81563e+10
-3.83604e+10
-3.86187e+10
-3.89357e+10
-3.93029e+10
-3.96902e+10
-4.00497e+10
-4.03461e+10
-4.05861e+10
-4.0759e+10
-4.0684e+10
-4.00565e+10
-3.88775e+10
-3.76071e+10
-3.66541e+10
-3.60421e+10
-3.56907e+10
-3.55136e+10
-3.54443e+10
-3.54366e+10
-3.54596e+10
-3.54932e+10
-3.55252e+10
-3.55498e+10
-3.55669e+10
-3.55818e+10
-3.56043e+10
-3.56481e+10
-3.57245e+10
-3.58296e+10
-3.59223e+10
-3.59108e+10
-3.57067e+10
-3.53907e+10
-3.53699e+10
-3.61046e+10
-3.71093e+10
-3.63067e+10
-3.25294e+10
-3.11453e+10
-4.26701e+10
-6.02056e+10
-3.54444e+10
-3.75166e+10
-3.75186e+10
-3.75268e+10
-3.75396e+10
-3.75616e+10
-3.75957e+10
-3.76441e+10
-3.77092e+10
-3.7793e+10
-3.78978e+10
-3.80284e+10
-3.81919e+10
-3.83974e+10
-3.86531e+10
-3.89627e+10
-3.93171e+10
-3.96863e+10
-4.00223e+10
-4.0291e+10
-4.05022e+10
-4.06536e+10
-4.05812e+10
-3.99886e+10
-3.88503e+10
-3.76113e+10
-3.66807e+10
-3.60848e+10
-3.57455e+10
-3.55775e+10
-3.55139e+10
-3.55083e+10
-3.55294e+10
-3.55573e+10
-3.55801e+10
-3.55917e+10
-3.55925e+10
-3.55881e+10
-3.55892e+10
-3.56097e+10
-3.56615e+10
-3.57418e+10
-3.58099e+10
-3.57752e+10
-3.55487e+10
-3.52116e+10
-3.51767e+10
-3.59227e+10
-3.69911e+10
-3.63293e+10
-3.28386e+10
-3.21282e+10
-4.42894e+10
-5.88966e+10
-2.98871e+10
-3.74908e+10
-3.74957e+10
-3.74985e+10
-3.75053e+10
-3.75192e+10
-3.75462e+10
-3.75915e+10
-3.76595e+10
-3.77535e+10
-3.78769e+10
-3.80354e+10
-3.82389e+10
-3.85002e+10
-3.88308e+10
-3.92344e+10
-3.96967e+10
-4.01741e+10
-4.05922e+10
-4.08924e+10
-4.11196e+10
-4.14015e+10
-4.16217e+10
-4.11112e+10
-3.93749e+10
-3.72788e+10
-3.60046e+10
-3.53749e+10
-3.50954e+10
-3.50292e+10
-3.50708e+10
-3.51579e+10
-3.52533e+10
-3.53371e+10
-3.53991e+10
-3.54361e+10
-3.54495e+10
-3.54457e+10
-3.54355e+10
-3.54334e+10
-3.54523e+10
-3.5491e+10
-3.55109e+10
-3.54267e+10
-3.51636e+10
-3.48251e+10
-3.48345e+10
-3.56333e+10
-3.6703e+10
-3.60681e+10
-3.29221e+10
-3.2829e+10
-4.47859e+10
-5.859e+10
-2.98312e+10
-3.74846e+10
-3.74912e+10
-3.74978e+10
-3.75097e+10
-3.75304e+10
-3.75652e+10
-3.76191e+10
-3.76961e+10
-3.77987e+10
-3.79291e+10
-3.80916e+10
-3.82938e+10
-3.85469e+10
-3.88613e+10
-3.92411e+10
-3.96749e+10
-4.01222e+10
-4.05111e+10
-4.0784e+10
-4.09879e+10
-4.12533e+10
-4.14733e+10
-4.10224e+10
-3.93861e+10
-3.73526e+10
-3.60861e+10
-3.54272e+10
-3.51227e+10
-3.50365e+10
-3.50615e+10
-3.51329e+10
-3.52122e+10
-3.52785e+10
-3.53216e+10
-3.53384e+10
-3.53313e+10
-3.53081e+10
-3.52814e+10
-3.52671e+10
-3.52791e+10
-3.53159e+10
-3.5337e+10
-3.52522e+10
-3.49777e+10
-3.46053e+10
-3.45476e+10
-3.52405e+10
-3.61599e+10
-3.53053e+10
-3.17975e+10
-3.10756e+10
-4.25796e+10
-5.80736e+10
-3.20319e+10
-3.74312e+10
-3.74278e+10
-3.74199e+10
-3.74112e+10
-3.74088e+10
-3.74213e+10
-3.74557e+10
-3.75157e+10
-3.76e+10
-3.77041e+10
-3.78265e+10
-3.79752e+10
-3.81719e+10
-3.84472e+10
-3.88249e+10
-3.93058e+10
-3.98509e+10
-4.03778e+10
-4.08234e+10
-4.12935e+10
-4.21269e+10
-4.33322e+10
-4.35101e+10
-4.07947e+10
-3.70964e+10
-3.53116e+10
-3.46343e+10
-3.44584e+10
-3.45518e+10
-3.47314e+10
-3.49218e+10
-3.50905e+10
-3.52266e+10
-3.5327e+10
-3.53923e+10
-3.54261e+10
-3.54363e+10
-3.54348e+10
-3.5436e+10
-3.54519e+10
-3.54783e+10
-3.54721e+10
-3.53428e+10
-3.50147e+10
-3.45955e+10
-3.44986e+10
-3.51046e+10
-3.57995e+10
-3.46453e+10
-3.11515e+10
-3.11029e+10
-4.32662e+10
-5.82788e+10
-3.05982e+10
-3.7439e+10
-3.74379e+10
-3.74351e+10
-3.74318e+10
-3.7435e+10
-3.74527e+10
-3.74917e+10
-3.75549e+10
-3.76407e+10
-3.7744e+10
-3.78623e+10
-3.80029e+10
-3.81862e+10
-3.84422e+10
-3.87978e+10
-3.92598e+10
-3.97952e+10
-4.03212e+10
-4.07567e+10
-4.11794e+10
-4.19121e+10
-4.29987e+10
-4.32676e+10
-4.09701e+10
-3.73669e+10
-3.55492e+10
-3.47891e+10
-3.45597e+10
-3.46074e+10
-3.4749e+10
-3.49079e+10
-3.50493e+10
-3.51604e+10
-3.52364e+10
-3.52779e+10
-3.52896e+10
-3.52803e+10
-3.52637e+10
-3.52571e+10
-3.52752e+10
-3.53166e+10
-3.53407e+10
-3.52579e+10
-3.49911e+10
-3.46437e+10
-3.46248e+10
-3.53115e+10
-3.60646e+10
-3.47983e+10
-3.05499e+10
-2.84708e+10
-3.86527e+10
-5.67546e+10
-3.31287e+10
-3.73022e+10
-3.72973e+10
-3.7279e+10
-3.72563e+10
-3.72403e+10
-3.72425e+10
-3.72715e+10
-3.73287e+10
-3.74063e+10
-3.74925e+10
-3.75841e+10
-3.77055e+10
-3.79186e+10
-3.83076e+10
-3.89307e+10
-3.97778e+10
-4.07741e+10
-4.18256e+10
-4.29101e+10
-4.41875e+10
-4.60186e+10
-4.82718e+10
-4.88607e+10
-4.43704e+10
-3.77684e+10
-3.3062e+10
-3.28795e+10
-3.33983e+10
-3.39498e+10
-3.43913e+10
-3.47281e+10
-3.49828e+10
-3.51736e+10
-3.53113e+10
-3.54043e+10
-3.54617e+10
-3.54956e+10
-3.55216e+10
-3.55573e+10
-3.56174e+10
-3.56989e+10
-3.57594e+10
-3.57092e+10
-3.54757e+10
-3.51713e+10
-3.52023e+10
-3.59049e+10
-3.65814e+10
-3.52518e+10
-3.1564e+10
-3.15826e+10
-4.38846e+10
-5.77314e+10
-3.04692e+10
-3.73251e+10
-3.73229e+10
-3.73048e+10
-3.72823e+10
-3.72655e+10
-3.7266e+10
-3.72922e+10
-3.73453e+10
-3.74184e+10
-3.75008e+10
-3.75908e+10
-3.77121e+10
-3.79223e+10
-3.82985e+10
-3.88998e+10
-3.97282e+10
-4.07133e+10
-4.17319e+10
-4.26722e+10
-4.35953e+10
-4.49655e+10
-4.69192e+10
-4.77979e+10
-4.48806e+10
-3.87887e+10
-3.31031e+10
-3.28487e+10
-3.33681e+10
-3.39244e+10
-3.43609e+10
-3.46864e+10
-3.49271e+10
-3.51027e+10
-3.52251e+10
-3.53027e+10
-3.5345e+10
-3.53641e+10
-3.53757e+10
-3.53982e+10
-3.54471e+10
-3.55216e+10
-3.5582e+10
-3.55422e+10
-3.53346e+10
-3.50783e+10
-3.519e+10
-3.60083e+10
-3.67805e+10
-3.53174e+10
-3.09092e+10
-2.96724e+10
-4.18626e+10
-5.80751e+10
-3.02668e+10
-3.72511e+10
-3.72537e+10
-3.72254e+10
-3.7195e+10
-3.71708e+10
-3.71668e+10
-3.71914e+10
-3.72438e+10
-3.73126e+10
-3.73834e+10
-3.74567e+10
-3.75742e+10
-3.78282e+10
-3.83306e+10
-3.91249e+10
-4.01271e+10
-4.12129e+10
-4.23043e+10
-4.34268e+10
-4.47919e+10
-4.66534e+10
-4.88303e+10
-5.00561e+10
-4.77184e+10
-4.13313e+10
-2.66916e+10
-2.97334e+10
-3.19286e+10
-3.31867e+10
-3.39486e+10
-3.44415e+10
-3.47746e+10
-3.50035e+10
-3.51576e+10
-3.52549e+10
-3.53096e+10
-3.53362e+10
-3.53516e+10
-3.53742e+10
-3.54185e+10
-3.54821e+10
-3.55242e+10
-3.546e+10
-3.52248e+10
-3.49388e+10
-3.5011e+10
-3.57644e+10
-3.64643e+10
-3.5064e+10
-3.10872e+10
-3.05244e+10
-4.31559e+10
-6.21827e+10
-4.17073e+10
-3.72347e+10
-3.72376e+10
-3.72059e+10
-3.71707e+10
-3.71416e+10
-3.7133e+10
-3.71536e+10
-3.72039e+10
-3.72745e+10
-3.73536e+10
-3.74443e+10
-3.75857e+10
-3.78592e+10
-3.83617e+10
-3.91415e+10
-4.01466e+10
-4.12487e+10
-4.22983e+10
-4.32326e+10
-4.42435e+10
-4.59235e+10
-4.85385e+10
-4.98452e+10
-4.81221e+10
-4.51163e+10
-2.72351e+10
-2.96121e+10
-3.18181e+10
-3.30997e+10
-3.38773e+10
-3.43763e+10
-3.47108e+10
-3.49396e+10
-3.50944e+10
-3.51945e+10
-3.52545e+10
-3.52891e+10
-3.53145e+10
-3.53478e+10
-3.54021e+10
-3.54734e+10
-3.55194e+10
-3.5454e+10
-3.52122e+10
-3.49177e+10
-3.49877e+10
-3.57385e+10
-3.63479e+10
-3.46516e+10
-3.06557e+10
-3.20819e+10
-4.80757e+10
-6.22093e+10
-3.11905e+10
-3.72287e+10
-3.7218e+10
-3.71887e+10
-3.71525e+10
-3.71231e+10
-3.71145e+10
-3.71353e+10
-3.71845e+10
-3.72506e+10
-3.73187e+10
-3.73888e+10
-3.75034e+10
-3.77565e+10
-3.82667e+10
-3.90675e+10
-4.00748e+10
-4.11798e+10
-4.23036e+10
-4.34723e+10
-4.49337e+10
-4.69185e+10
-4.89258e+10
-4.85064e+10
-4.30187e+10
-2.09424e+10
-2.94911e+10
-3.17126e+10
-3.30187e+10
-3.3826e+10
-3.43544e+10
-3.4717e+10
-3.49732e+10
-3.51557e+10
-3.52842e+10
-3.53739e+10
-3.54392e+10
-3.54948e+10
-3.55556e+10
-3.56313e+10
-3.57147e+10
-3.5762e+10
-3.56885e+10
-3.543e+10
-3.51019e+10
-3.51019e+10
-3.57575e+10
-3.63869e+10
-3.50369e+10
-3.12625e+10
-3.08276e+10
-4.29627e+10
-6.13169e+10
-4.08993e+10
-3.72222e+10
-3.72203e+10
-3.71835e+10
-3.71435e+10
-3.71102e+10
-3.70982e+10
-3.71168e+10
-3.71659e+10
-3.72354e+10
-3.73118e+10
-3.73968e+10
-3.75297e+10
-3.77968e+10
-3.83037e+10
-3.90923e+10
-4.0102e+10
-4.12153e+10
-4.22904e+10
-4.33021e+10
-4.44057e+10
-4.60203e+10
-4.83944e+10
-5.03132e+10
-4.92961e+10
-2.19178e+10
-2.94344e+10
-3.16175e+10
-3.29333e+10
-3.37551e+10
-3.42911e+10
-3.46568e+10
-3.49139e+10
-3.50968e+10
-3.52264e+10
-3.53183e+10
-3.53873e+10
-3.54488e+10
-3.55174e+10
-3.56025e+10
-3.5696e+10
-3.5753e+10
-3.56865e+10
-3.54296e+10
-3.50965e+10
-3.50869e+10
-3.57181e+10
-3.62456e+10
-3.46675e+10
-3.09793e+10
-3.22027e+10
-4.68517e+10
-6.09941e+10
-3.07376e+10
-3.7263e+10
-3.72426e+10
-3.72282e+10
-3.7201e+10
-3.71821e+10
-3.71814e+10
-3.72085e+10
-3.72631e+10
-3.73351e+10
-3.74092e+10
-3.74811e+10
-3.75837e+10
-3.78e+10
-3.82412e+10
-3.89708e+10
-3.99286e+10
-4.09882e+10
-4.20325e+10
-4.30415e+10
-4.41576e+10
-4.55839e+10
-4.74062e+10
-4.89105e+10
-4.73858e+10
-3.62504e+10
-3.21505e+10
-3.21496e+10
-3.28524e+10
-3.35479e+10
-3.40853e+10
-3.44833e+10
-3.47785e+10
-3.49988e+10
-3.51629e+10
-3.52842e+10
-3.53741e+10
-3.5445e+10
-3.55102e+10
-3.55829e+10
-3.5671e+10
-3.57665e+10
-3.58275e+10
-3.57736e+10
-3.55435e+10
-3.52444e+10
-3.5255e+10
-3.59041e+10
-3.65855e+10
-3.55022e+10
-3.24127e+10
-3.32841e+10
-4.62425e+10
-5.94538e+10
-3.06062e+10
-3.72625e+10
-3.72552e+10
-3.72348e+10
-3.72083e+10
-3.71892e+10
-3.719e+10
-3.72201e+10
-3.728e+10
-3.73605e+10
-3.74472e+10
-3.75363e+10
-3.76548e+10
-3.78715e+10
-3.82804e+10
-3.89391e+10
-3.98135e+10
-4.07891e+10
-4.17503e+10
-4.27026e+10
-4.38296e+10
-4.53604e+10
-4.7244e+10
-4.79745e+10
-4.64776e+10
-3.73801e+10
-3.19593e+10
-3.19106e+10
-3.26694e+10
-3.34272e+10
-3.40062e+10
-3.44292e+10
-3.47393e+10
-3.49689e+10
-3.51387e+10
-3.52637e+10
-3.53559e+10
-3.54275e+10
-3.54918e+10
-3.55618e+10
-3.56455e+10
-3.57342e+10
-3.57849e+10
-3.57159e+10
-3.54638e+10
-3.51334e+10
-3.51012e+10
-3.56979e+10
-3.63134e+10
-3.50753e+10
-3.14322e+10
-3.09756e+10
-4.3092e+10
-5.96268e+10
-3.45567e+10
-3.73615e+10
-3.7355e+10
-3.73451e+10
-3.73328e+10
-3.73283e+10
-3.73415e+10
-3.73807e+10
-3.74484e+10
-3.75402e+10
-3.76469e+10
-3.77634e+10
-3.79023e+10
-3.81015e+10
-3.8415e+10
-3.88808e+10
-3.9485e+10
-4.01588e+10
-4.07971e+10
-4.13115e+10
-4.1731e+10
-4.22796e+10
-4.31425e+10
-4.3359e+10
-4.0417e+10
-3.68739e+10
-3.50037e+10
-3.42679e+10
-3.40946e+10
-3.42214e+10
-3.44388e+10
-3.46648e+10
-3.48648e+10
-3.50293e+10
-3.51574e+10
-3.52526e+10
-3.53207e+10
-3.53709e+10
-3.54151e+10
-3.54663e+10
-3.55336e+10
-3.56114e+10
-3.56627e+10
-3.5614e+10
-3.54086e+10
-3.5147e+10
-3.51881e+10
-3.58499e+10
-3.65534e+10
-3.55268e+10
-3.23899e+10
-3.27206e+10
-4.48112e+10
-5.91608e+10
-3.02154e+10
-3.73604e+10
-3.73578e+10
-3.735e+10
-3.73403e+10
-3.73382e+10
-3.73537e+10
-3.7395e+10
-3.74651e+10
-3.75601e+10
-3.76717e+10
-3.7796e+10
-3.79447e+10
-3.81511e+10
-3.84617e+10
-3.89084e+10
-3.94762e+10
-4.00931e+10
-4.06582e+10
-4.11196e+10
-4.15802e+10
-4.2302e+10
-4.32917e+10
-4.33383e+10
-4.05563e+10
-3.68646e+10
-3.4899e+10
-3.41435e+10
-3.39969e+10
-3.41562e+10
-3.43991e+10
-3.46435e+10
-3.48576e+10
-3.50338e+10
-3.5172e+10
-3.52756e+10
-3.53507e+10
-3.54063e+10
-3.54537e+10
-3.55051e+10
-3.55681e+10
-3.56358e+10
-3.56699e+10
-3.55962e+10
-3.53571e+10
-3.50532e+10
-3.5048e+10
-3.56811e+10
-3.6408e+10
-3.53704e+10
-3.16531e+10
-3.00726e+10
-4.05818e+10
-5.89282e+10
-3.90911e+10
-3.74293e+10
-3.74301e+10
-3.74293e+10
-3.743e+10
-3.74382e+10
-3.74606e+10
-3.75043e+10
-3.75743e+10
-3.76723e+10
-3.7799e+10
-3.79574e+10
-3.81577e+10
-3.84176e+10
-3.87569e+10
-3.91835e+10
-3.96801e+10
-4.01968e+10
-4.06593e+10
-4.10061e+10
-4.12435e+10
-4.14459e+10
-4.15159e+10
-4.08186e+10
-3.88783e+10
-3.67165e+10
-3.54447e+10
-3.48548e+10
-3.46431e+10
-3.46649e+10
-3.47965e+10
-3.49675e+10
-3.51386e+10
-3.52915e+10
-3.54189e+10
-3.55203e+10
-3.56005e+10
-3.56676e+10
-3.57328e+10
-3.58086e+10
-3.59038e+10
-3.60128e+10
-3.60987e+10
-3.60883e+10
-3.59239e+10
-3.5703e+10
-3.57798e+10
-3.64652e+10
-3.71605e+10
-3.60437e+10
-3.26801e+10
-3.2775e+10
-4.49328e+10
-5.95898e+10
-3.38733e+10
-3.7436e+10
-3.74356e+10
-3.74389e+10
-3.74423e+10
-3.74534e+10
-3.74784e+10
-3.7524e+10
-3.75944e+10
-3.76911e+10
-3.78147e+10
-3.79687e+10
-3.81635e+10
-3.84176e+10
-3.87517e+10
-3.91752e+10
-3.96716e+10
-4.01898e+10
-4.06541e+10
-4.10054e+10
-4.12653e+10
-4.15231e+10
-4.16432e+10
-4.09565e+10
-3.8996e+10
-3.67784e+10
-3.54811e+10
-3.48875e+10
-3.46793e+10
-3.47032e+10
-3.48347e+10
-3.50046e+10
-3.51745e+10
-3.53268e+10
-3.54541e+10
-3.55552e+10
-3.56335e+10
-3.56961e+10
-3.5753e+10
-3.58152e+10
-3.58903e+10
-3.59715e+10
-3.60211e+10
-3.59658e+10
-3.5749e+10
-3.54708e+10
-3.5492e+10
-3.61388e+10
-3.68155e+10
-3.56307e+10
-3.20955e+10
-3.23237e+10
-4.55933e+10
-6.00362e+10
-3.00956e+10
-3.74881e+10
-3.7492e+10
-3.75e+10
-3.75107e+10
-3.75276e+10
-3.75542e+10
-3.75941e+10
-3.76502e+10
-3.77249e+10
-3.78215e+10
-3.79459e+10
-3.81085e+10
-3.83222e+10
-3.85984e+10
-3.89395e+10
-3.93311e+10
-3.97381e+10
-4.0112e+10
-4.04178e+10
-4.06561e+10
-4.08118e+10
-4.06931e+10
-3.99533e+10
-3.86187e+10
-3.7235e+10
-3.62511e+10
-3.56741e+10
-3.53825e+10
-3.52737e+10
-3.52705e+10
-3.53225e+10
-3.53968e+10
-3.54736e+10
-3.55417e+10
-3.55969e+10
-3.56407e+10
-3.56796e+10
-3.57237e+10
-3.57845e+10
-3.58695e+10
-3.59706e+10
-3.60469e+10
-3.60201e+10
-3.58296e+10
-3.55792e+10
-3.56411e+10
-3.6337e+10
-3.70177e+10
-3.56861e+10
-3.15908e+10
-3.03247e+10
-4.23663e+10
-6.36157e+10
-4.70075e+10
-3.74904e+10
-3.74973e+10
-3.7506e+10
-3.75182e+10
-3.75368e+10
-3.75651e+10
-3.76065e+10
-3.76632e+10
-3.7737e+10
-3.78301e+10
-3.79474e+10
-3.80979e+10
-3.82939e+10
-3.85473e+10
-3.88628e+10
-3.92296e+10
-3.9616e+10
-3.99763e+10
-4.0278e+10
-4.05252e+10
-4.07029e+10
-4.06208e+10
-3.99443e+10
-3.8671e+10
-3.73172e+10
-3.63394e+10
-3.57568e+10
-3.54546e+10
-3.53337e+10
-3.53196e+10
-3.5363e+10
-3.54313e+10
-3.5504e+10
-3.55689e+10
-3.56205e+10
-3.56588e+10
-3.56888e+10
-3.57196e+10
-3.5762e+10
-3.58232e+10
-3.58969e+10
-3.59452e+10
-3.58941e+10
-3.56885e+10
-3.54388e+10
-3.55264e+10
-3.62672e+10
-3.69419e+10
-3.54838e+10
-3.1655e+10
-3.25781e+10
-4.78783e+10
-6.35385e+10
-3.38804e+10
-3.75678e+10
-3.75785e+10
-3.75947e+10
-3.76179e+10
-3.76495e+10
-3.76917e+10
-3.77459e+10
-3.78132e+10
-3.78941e+10
-3.79898e+10
-3.8103e+10
-3.8238e+10
-3.83999e+10
-3.85925e+10
-3.88138e+10
-3.90524e+10
-3.92849e+10
-3.94844e+10
-3.9639e+10
-3.97532e+10
-3.97959e+10
-3.96336e+10
-3.91159e+10
-3.8306e+10
-3.74558e+10
-3.67544e+10
-3.62536e+10
-3.59366e+10
-3.57601e+10
-3.56802e+10
-3.56612e+10
-3.56761e+10
-3.57054e+10
-3.5736e+10
-3.57615e+10
-3.57812e+10
-3.58003e+10
-3.58283e+10
-3.58769e+10
-3.59538e+10
-3.60513e+10
-3.6128e+10
-3.6105e+10
-3.5927e+10
-3.57168e+10
-3.58827e+10
-3.67832e+10
-3.77684e+10
-3.67555e+10
-3.27937e+10
-3.11865e+10
-4.22162e+10
-6.12965e+10
-4.03872e+10
-3.75717e+10
-3.75877e+10
-3.76009e+10
-3.76231e+10
-3.76536e+10
-3.76951e+10
-3.77491e+10
-3.78167e+10
-3.78983e+10
-3.7995e+10
-3.81086e+10
-3.82428e+10
-3.84017e+10
-3.8588e+10
-3.87994e+10
-3.90246e+10
-3.92421e+10
-3.94272e+10
-3.95694e+10
-3.96731e+10
-3.97082e+10
-3.95485e+10
-3.9055e+10
-3.82803e+10
-3.74567e+10
-3.67688e+10
-3.62716e+10
-3.59538e+10
-3.57755e+10
-3.56946e+10
-3.56757e+10
-3.56915e+10
-3.57216e+10
-3.5752e+10
-3.57751e+10
-3.5789e+10
-3.57974e+10
-3.58089e+10
-3.58346e+10
-3.58828e+10
-3.59477e+10
-3.59915e+10
-3.59402e+10
-3.5743e+10
-3.55282e+10
-3.57101e+10
-3.66261e+10