/*--------------------------------*- C++ -*----------------------------------*\
| =========                 |                                                 |
| \\      /  F ield         | OpenFOAM: The Open Source CFD Toolbox           |
|  \\    /   O peration     | Version:  4.1                                   |
|   \\  /    A nd           | Web:      www.OpenFOAM.org                      |
|    \\/     M anipulation  |                                                 |
\*---------------------------------------------------------------------------*/
FoamFile
{
    version     2.0;
    format      ascii;
    class       volVectorField;
    location    "97";
    object      U;
}
// * * * * * * * * * * * * * * * * * * * * * * * * * * * * * * * * * * * * * //

dimensions      [0 1 -1 0 0 0 0];

internalField   nonuniform List<vector> 
4432
(
(-151174 -3015.11 -1523.04)
(-152286 -3089.83 -1559.6)
(-152876 -3074.35 -1536.56)
(-153612 -3102.12 -1557.86)
(-154360 -3117.53 -1575.34)
(-155153 -3132.49 -1590.65)
(-155956 -3150.55 -1623.17)
(-156774 -3168.08 -1669.21)
(-157589 -3185.08 -1734.59)
(-158387 -3201.64 -1823.35)
(-159147 -3217.65 -1938.41)
(-159845 -3232.89 -2083.8)
(-160450 -3246.02 -2263.2)
(-160925 -3257.77 -2476.52)
(-161246 -3268.54 -2722.84)
(-161385 -3278.8 -2992.31)
(-161321 -3290.63 -3283.07)
(-161039 -3306.31 -3594.26)
(-160507 -3325.96 -3927.59)
(-159712 -3346.86 -4271.82)
(-158657 -3371.72 -4622.99)
(-157358 -3397.42 -4967.02)
(-155832 -3423.36 -5294.38)
(-154101 -3447.04 -5594.4)
(-152204 -3467.46 -5857.75)
(-150189 -3483.93 -6078.77)
(-148123 -3495.01 -6253.91)
(-146064 -3499.58 -6384.05)
(-144080 -3496.12 -6471.42)
(-142219 -3483.68 -6520.43)
(-140531 -3461.42 -6535.63)
(-139052 -3428.96 -6521.88)
(-137808 -3386.88 -6484.71)
(-136828 -3336.23 -6429.17)
(-136118 -3279.96 -6360.73)
(-135694 -3219.74 -6284.38)
(-135564 -3156.76 -6201.88)
(-135741 -3092.19 -6111.83)
(-136248 -3027.64 -6009.62)
(-137093 -2964.92 -5889.98)
(-138283 -2903.04 -5729.63)
(-139750 -2842.41 -5499.38)
(-141253 -2787.79 -5162.29)
(-142535 -2747.71 -4654.19)
(-143944 -2734.7 -3880.49)
(-146945 -2777.69 -2767.83)
(-152803 -2897.66 -1280.88)
(-158923 -3122.98 766.468)
(-158914 -3183.45 4418.83)
(-155041 -1801.17 9942.39)
(-171221 1086.01 18848.1)
(-231840 2676.15 29681)
(-274282 -12785.5 62737.3)
(-197808 -2191.11 34690)
(-186140 3352.32 -101.446)
(-186985 3325.59 -78.5858)
(-187540 3359.5 -97.9922)
(-188211 3360.16 -96.5072)
(-188878 3370.77 -108.746)
(-189588 3382.4 -119.273)
(-190308 3391.76 -142.698)
(-191037 3401.71 -177.732)
(-191763 3412.05 -229.495)
(-192473 3422.38 -300.563)
(-193150 3432.49 -393.452)
(-193770 3442.21 -511.259)
(-194310 3452.26 -656.403)
(-194737 3461.7 -829.162)
(-195031 3469.86 -1027.27)
(-195166 3476.28 -1247.12)
(-195126 3479.87 -1481.07)
(-194892 3482.68 -1726.07)
(-194461 3486.69 -1982.7)
(-193822 3493.41 -2244.94)
(-192979 3500.88 -2503.4)
(-191947 3511.79 -2748.56)
(-190747 3526.33 -2971.25)
(-189400 3546.35 -3163.01)
(-187947 3572.1 -3316.82)
(-186433 3604.37 -3429.25)
(-184914 3642.61 -3499.68)
(-183439 3687.15 -3530.66)
(-182064 3737.37 -3526.74)
(-180825 3793.31 -3493.54)
(-179761 3854.3 -3437.4)
(-178901 3919.54 -3364.3)
(-178262 3988.05 -3280.23)
(-177871 4058.32 -3190.68)
(-177744 4131.1 -3100.81)
(-177902 4206.24 -3015.47)
(-178364 4283.63 -2937.37)
(-179154 4363.78 -2863.58)
(-180307 4447.35 -2789.14)
(-181871 4538.6 -2709.62)
(-183893 4642.36 -2616.37)
(-186366 4760.24 -2493.88)
(-189178 4893.07 -2316.4)
(-192225 5039.79 -2034.09)
(-195866 5195.27 -1575.16)
(-201312 5344.02 -879.604)
(-209821 5464.37 76.1472)
(-219647 5538.61 1437.34)
(-225187 5733.93 3903.94)
(-227530 6912.28 7444.68)
(-249943 9104.95 12305.3)
(-341369 8945.19 18025.8)
(-470419 -8736.72 43267.4)
(-385379 -9501.18 34509)
(-267300 -1396.67 3034.23)
(-267331 -1406.57 3084.12)
(-267412 -1420.39 3158.34)
(-267515 -1419.11 3219.87)
(-267620 -1421.21 3278.71)
(-267753 -1421.29 3340.97)
(-267901 -1420.76 3393.52)
(-268059 -1418.74 3434.83)
(-268224 -1415.61 3459.93)
(-268394 -1411.07 3465.92)
(-268562 -1405.47 3450.06)
(-268721 -1398.86 3408.94)
(-268858 -1390.36 3340.22)
(-268958 -1381.31 3241.14)
(-269008 -1371.23 3111.49)
(-268998 -1364.25 2953.15)
(-268923 -1357.46 2770.21)
(-268781 -1350.3 2572.45)
(-268586 -1340.94 2360.77)
(-268334 -1330.74 2141.42)
(-268030 -1317.22 1921.69)
(-267685 -1300.28 1718.16)
(-267307 -1278.66 1544.2)
(-266904 -1251.18 1413.11)
(-266486 -1217.21 1334.51)
(-266058 -1176.72 1312.6)
(-265638 -1129.79 1347.51)
(-265231 -1076.42 1433.76)
(-264845 -1016.55 1563.95)
(-264475 -950.178 1727.93)
(-264116 -877.387 1915.79)
(-263754 -798.185 2117.33)
(-263373 -712.76 2323.5)
(-262952 -620.974 2526.08)
(-262466 -522.825 2717.25)
(-261888 -418.117 2891.12)
(-261187 -306.688 3042.15)
(-260325 -186.08 3166.34)
(-259265 -53.9824 3265.34)
(-257992 91.5076 3343.3)
(-256500 249.716 3399.74)
(-254681 420.699 3430.01)
(-252350 605.552 3438.64)
(-249303 806.486 3448.29)
(-245601 1023.07 3490.5)
(-241714 1251.99 3545.72)
(-237948 1463.86 3487.35)
(-232371 1646.72 3376.34)
(-222090 1912.6 3656.62)
(-207502 2412.68 4997.93)
(-205339 2274.98 6990.96)
(-210139 -607.57 8640.13)
(-193150 -8167.68 6067.3)
(63257.5 -8328.86 4247.71)
(-306009 1437.85 1610.02)
(-305947 1400.03 1664.02)
(-305983 1375.19 1683.42)
(-306017 1358.61 1733.48)
(-306072 1340.16 1770.2)
(-306150 1322.76 1810.28)
(-306244 1305.65 1843.05)
(-306350 1289.68 1866.36)
(-306467 1274.73 1875.09)
(-306591 1261.29 1866.9)
(-306719 1249.55 1839.03)
(-306843 1239.91 1788.38)
(-306954 1233.63 1711.93)
(-307038 1230.4 1607.59)
(-307086 1230.95 1475.88)
(-307089 1232.19 1317.76)
(-307040 1236.39 1137.53)
(-306918 1241.46 940.757)
(-306732 1246.82 732.419)
(-306479 1251.33 514.069)
(-306160 1257.19 294.7)
(-305775 1264.54 86.8135)
(-305328 1274.48 -95.775)
(-304819 1288.26 -241.373)
(-304252 1306.53 -340.844)
(-303627 1329.79 -390.45)
(-302953 1357.99 -390.528)
(-302229 1391.49 -346.036)
(-301456 1430.16 -263.77)
(-300625 1474.15 -151.968)
(-299728 1523.06 -18.2028)
(-298748 1576.72 130.36)
(-297669 1634.61 287.695)
(-296470 1696.35 449.141)
(-295130 1761.55 610.164)
(-293627 1829.68 767.678)
(-291939 1900.31 918.399)
(-290039 1975.87 1059.21)
(-287896 2058.46 1189.98)
(-285481 2147.32 1314.97)
(-282767 2240.61 1437.7)
(-279693 2337.91 1558.4)
(-276122 2437.96 1680.88)
(-271896 2540.9 1827.72)
(-267068 2643.83 2035.35)
(-262145 2745.96 2300.54)
(-257333 2803.3 2556.41)
(-250958 2798.55 2842.21)
(-240007 2832.16 3559.3)
(-224803 3023.49 5582.79)
(-219866 1504.97 10197.6)
(-221714 -994.082 14608.4)
(-182295 -15686.3 17628.9)
(-7552.27 -8119.43 1060.63)
(-223444 -2427.76 -1660.12)
(-223095 -2401.24 -1579.38)
(-222957 -2423.18 -1553.22)
(-222795 -2411.8 -1503.63)
(-222646 -2409.37 -1472.83)
(-222504 -2406.84 -1451.29)
(-222373 -2406.04 -1439.3)
(-222248 -2405.61 -1442.09)
(-222128 -2406.8 -1463.59)
(-222017 -2409.54 -1506.41)
(-221915 -2414.66 -1574.74)
(-221825 -2422.41 -1672.45)
(-221742 -2433.35 -1803.19)
(-221661 -2448.01 -1974.76)
(-221574 -2465.88 -2188.8)
(-221483 -2487.88 -2450.58)
(-221372 -2512.29 -2752.44)
(-221195 -2537.01 -3096.38)
(-220903 -2557.53 -3474.92)
(-220480 -2576.16 -3884.25)
(-219921 -2590.61 -4304.94)
(-219237 -2600.66 -4715.89)
(-218445 -2602.86 -5090.54)
(-217568 -2595.97 -5405.76)
(-216639 -2578.79 -5643.67)
(-215699 -2551.89 -5795.56)
(-214797 -2516.48 -5860.08)
(-213977 -2474.13 -5843.96)
(-213277 -2426.55 -5757.05)
(-212724 -2375.31 -5611.98)
(-212339 -2320.82 -5420.65)
(-212136 -2262.67 -5194.17)
(-212130 -2200.55 -4940.92)
(-212329 -2133.65 -4667.35)
(-212745 -2061.46 -4379.23)
(-213393 -1983.22 -4077.86)
(-214287 -1899.81 -3765.54)
(-215446 -1813.65 -3441.84)
(-216889 -1725.88 -3102.3)
(-218629 -1632.48 -2740.02)
(-220629 -1531.33 -2363.09)
(-222850 -1421.1 -1978.1)
(-225104 -1307.19 -1590.2)
(-227164 -1193.81 -1180.82)
(-229158 -1082.17 -706.021)
(-231990 -976.329 -146.961)
(-236191 -893.813 347.664)
(-239067 -819.115 419.35)
(-233673 -434.546 -23.7233)
(-219913 1334.93 1016.77)
(-214187 4033.08 5317.48)
(-244468 6085.64 5929.8)
(-223866 -13174.4 7106.57)
(-139690 -6229.06 2676.6)
(-253180 2845.24 -29.8552)
(-252538 2862.3 16.5653)
(-252310 2840.91 45.1825)
(-251985 2848.77 81.1674)
(-251729 2850.07 105.86)
(-251488 2852.26 122.641)
(-251271 2853.86 133.3)
(-251075 2855.93 132.039)
(-250899 2857.15 115.125)
(-250744 2857.22 79.4935)
(-250611 2855.13 20.9514)
(-250501 2850.19 -64.4764)
(-250409 2841.36 -181.999)
(-250329 2827.72 -337.751)
(-250257 2809.49 -536.197)
(-250190 2785.3 -778.067)
(-250122 2755.97 -1060.77)
(-250053 2723.14 -1377.33)
(-249934 2692.98 -1722.64)
(-249753 2664.92 -2091.64)
(-249505 2641.07 -2470.94)
(-249199 2621.4 -2840.94)
(-248842 2609.04 -3178.82)
(-248451 2605.65 -3464.87)
(-248041 2612.04 -3684.05)
(-247636 2627.49 -3829.63)
(-247262 2650.75 -3901.41)
(-246939 2680.5 -3906.25)
(-246687 2715.67 -3852.83)
(-246518 2756.57 -3751.48)
(-246443 2804 -3611.25)
(-246464 2858.86 -3440.86)
(-246588 2922.09 -3246.43)
(-246820 2995.34 -3032.27)
(-247169 3080.15 -2801.52)
(-247647 3178.97 -2556.01)
(-248267 3293.43 -2297.79)
(-249061 3422.49 -2027.23)
(-250074 3564.83 -1740.99)
(-251366 3722.89 -1435.84)
(-252987 3902.82 -1112.76)
(-254935 4109.21 -777.932)
(-257117 4342.17 -438.402)
(-259442 4602.22 -87.5278)
(-262143 4894.74 305.173)
(-266136 5224.17 747.243)
(-272149 5580.36 1100.66)
(-278079 5995.71 1139.39)
(-278012 6747.59 872.981)
(-273245 8497.14 1585.7)
(-283090 10682.7 3418.23)
(-349720 10124.1 7855.53)
(-390260 -10754.8 8240.92)
(-408465 -33094.4 780.05)
(-244980 -3113.06 2063.67)
(-244719 -3108.2 2276.22)
(-244603 -3098.44 2350.39)
(-244488 -3084.32 2454.19)
(-244416 -3070.13 2542.13)
(-244372 -3055.62 2620.71)
(-244357 -3039.89 2688.14)
(-244369 -3023.06 2742.53)
(-244404 -3005.51 2780.03)
(-244458 -2987.1 2795.7)
(-244523 -2968.21 2783.2)
(-244591 -2948.68 2736.82)
(-244649 -2928.84 2648.63)
(-244676 -2908.47 2509.42)
(-244651 -2889.75 2311.63)
(-244557 -2872.42 2050.87)
(-244377 -2859.81 1730.03)
(-244113 -2850.73 1357.01)
(-243773 -2849.55 946.613)
(-243343 -2856.33 511.677)
(-242816 -2873.34 75.9757)
(-242192 -2899.85 -331.437)
(-241478 -2935.01 -673.611)
(-240688 -2976.32 -919.958)
(-239839 -3020.97 -1050.86)
(-238958 -3066.08 -1061.73)
(-238067 -3108.72 -959.768)
(-237186 -3146.16 -760.913)
(-236325 -3175.77 -484.584)
(-235483 -3194.87 -150.204)
(-234653 -3201.04 225.413)
(-233818 -3192.39 628.536)
(-232960 -3167.34 1049.3)
(-232055 -3124.07 1481.03)
(-231078 -3060.33 1919.29)
(-230001 -2975.41 2361.45)
(-228791 -2867.76 2804.83)
(-227415 -2736.65 3249.1)
(-225841 -2582.76 3694.51)
(-224049 -2408.23 4143.87)
(-221998 -2215.06 4589.7)
(-219599 -2004.88 5022.63)
(-216648 -1781.74 5426.31)
(-212915 -1554.16 5786.06)
(-208509 -1334.34 6105.75)
(-204177 -1137.79 6418.12)
(-200598 -1009.38 6749.89)
(-195694 -951.236 6925.65)
(-185179 -847.723 6470.83)
(-169621 -654.082 5494.42)
(-167695 -1601.98 4768.48)
(-171275 185.478 2745.22)
(-210582 -5778.89 -17949.2)
(28643.7 -12121.8 1925.4)
(-234624 2736.41 986.691)
(-234455 2688.82 1178.31)
(-234459 2656.56 1291.38)
(-234437 2628.27 1392.56)
(-234477 2597.5 1489.13)
(-234542 2565.99 1573.61)
(-234638 2534.42 1647.84)
(-234765 2502.88 1707.67)
(-234918 2471.19 1750.76)
(-235095 2439.7 1771.9)
(-235291 2408.3 1765.19)
(-235501 2377.42 1724.85)
(-235712 2347.08 1643.63)
(-235909 2317.94 1512.78)
(-236075 2288.08 1323.91)
(-236190 2258.58 1072.77)
(-236240 2226.79 758.704)
(-236209 2193.71 386.804)
(-236084 2155.72 -31.1058)
(-235857 2112.1 -476.923)
(-235523 2060.96 -928.509)
(-235082 2003.54 -1354.56)
(-234548 1941.19 -1719.33)
(-233941 1876.72 -1991.33)
(-233290 1813.01 -2151.02)
(-232629 1752.46 -2192.76)
(-231992 1697.08 -2123.59)
(-231405 1648.46 -1959.26)
(-230885 1607.95 -1718.62)
(-230435 1576.96 -1420.69)
(-230053 1556.96 -1082.22)
(-229729 1548.92 -717.217)
(-229448 1553.74 -336.095)
(-229192 1572.56 53.2224)
(-228942 1606.94 445.473)
(-228679 1657.12 837.991)
(-228387 1724.07 1231.27)
(-228045 1808.04 1628.55)
(-227637 1909.03 2030.59)
(-227155 2024.03 2435.77)
(-226582 2152.16 2841.39)
(-225853 2292.15 3241.54)
(-224789 2439.56 3629.93)
(-223182 2583.19 4001.91)
(-221199 2706.46 4373.55)
(-219703 2787.78 4790)
(-219272 2777.79 5268.57)
(-217904 2697.41 5528.27)
(-210881 2623.36 5008.63)
(-199931 2612.35 3267.58)
(-201404 859.51 373.064)
(-227231 1321.72 -7939.19)
(-188045 -21886.8 -10600.8)
(-54309.6 -12805.7 -6689.88)
(-227503 -1242.88 -1127.93)
(-227035 -1236.97 -964.52)
(-226837 -1211.64 -853.342)
(-226586 -1190.95 -749.474)
(-226378 -1165.3 -647.796)
(-226191 -1137.97 -551.806)
(-226031 -1107.62 -465.228)
(-225896 -1074.88 -392.045)
(-225787 -1039.57 -336.898)
(-225704 -1001.61 -306.796)
(-225648 -961.509 -309.779)
(-225616 -919.621 -352.828)
(-225605 -875.824 -444.221)
(-225605 -830.42 -592.79)
(-225601 -783.76 -809.514)
(-225580 -736.292 -1097.72)
(-225525 -688.823 -1460.96)
(-225421 -641.399 -1887.99)
(-225236 -593.449 -2372.77)
(-224952 -544.362 -2897.34)
(-224557 -496.73 -3437.14)
(-224053 -452.159 -3947.44)
(-223460 -413.252 -4375.15)
(-222821 -382.091 -4673.29)
(-222187 -361.446 -4818.42)
(-221616 -352.891 -4811.7)
(-221154 -357.589 -4673.15)
(-220833 -375.307 -4432.17)
(-220666 -404.34 -4119.47)
(-220653 -441.806 -3762.09)
(-220783 -484.654 -3381.13)
(-221041 -530.25 -2991.81)
(-221410 -576.957 -2603.5)
(-221874 -624.235 -2221.58)
(-222419 -671.155 -1847.03)
(-223039 -717.228 -1480.93)
(-223728 -762.486 -1123.37)
(-224489 -807.918 -775.832)
(-225332 -853.145 -442.839)
(-226264 -890.857 -120.134)
(-227308 -914.572 178.23)
(-228426 -916.583 437.751)
(-229460 -884.933 636.333)
(-230205 -805.295 740.457)
(-230796 -657.675 724.519)
(-232101 -417.348 599.572)
(-234844 -66.771 358.356)
(-237097 410.554 -186.876)
(-233087 1062.81 -1739.86)
(-222628 2045.21 -5036.62)
(-217100 3148.11 -11855.2)
(-243898 3373.96 -17085.5)
(-204556 -13429.4 -36601.7)
(-49391.3 -9762.66 -22201.5)
(-231816 5276.94 -71.7285)
(-231743 5301.8 122.984)
(-231756 5317.75 236.989)
(-231783 5339.47 342.093)
(-231848 5362.37 445.717)
(-231947 5387.41 541.839)
(-232078 5414.91 627.388)
(-232241 5444.4 696.346)
(-232434 5476.07 744.113)
(-232655 5509.78 762.853)
(-232901 5544.77 744.344)
(-233166 5580.38 680.019)
(-233443 5616 560.707)
(-233716 5650.71 375.736)
(-233969 5683.2 114.557)
(-234184 5711.54 -230.081)
(-234344 5733.44 -660.248)
(-234427 5747.57 -1170.31)
(-234417 5752.56 -1753.03)
(-234292 5748.35 -2392.4)
(-234037 5732.41 -3059.93)
(-233642 5704.14 -3709.83)
(-233121 5662.4 -4288.83)
(-232511 5607.61 -4752.48)
(-231870 5543.1 -5069.71)
(-231258 5473.07 -5234.26)
(-230734 5401.3 -5258.84)
(-230342 5331.52 -5167.67)
(-230107 5267.07 -4988.34)
(-230043 5211 -4746.25)
(-230150 5165.29 -4463.57)
(-230419 5130.16 -4159.59)
(-230839 5104.63 -3848.06)
(-231399 5087.54 -3535.29)
(-232093 5077.81 -3223.2)
(-232911 5073.99 -2911.66)
(-233849 5075.46 -2597.02)
(-234906 5080.51 -2275.61)
(-236094 5088.73 -1944.25)
(-237433 5102.23 -1599.36)
(-238940 5124.94 -1238.69)
(-240584 5162.85 -861.256)
(-242224 5225.74 -472.571)
(-243691 5325.87 -81.7466)
(-245178 5479.93 317.318)
(-247601 5705.89 766.288)
(-251722 6024.92 1361.73)
(-255915 6443.03 1930.27)
(-255520 7009.11 1762.8)
(-251528 7537.93 103.544)
(-257831 6642.88 -3285.61)
(-306320 2153.79 -7351.64)
(-321385 -20817.8 -35768.7)
(-247781 -19408.8 3434.43)
(-228491 -3459.3 -3527.76)
(-228243 -3499.92 -3330.9)
(-228110 -3507.47 -3196.99)
(-227964 -3521.93 -3072.57)
(-227841 -3533.25 -2953.08)
(-227738 -3543.6 -2846.27)
(-227658 -3551.23 -2755.47)
(-227599 -3557.19 -2686.55)
(-227562 -3561.35 -2645.81)
(-227545 -3563.21 -2641.14)
(-227544 -3562.05 -2681.42)
(-227551 -3557.74 -2775.81)
(-227554 -3549.75 -2934.43)
(-227534 -3537.86 -3168.83)
(-227464 -3521.27 -3489.79)
(-227313 -3500.77 -3904.06)
(-227048 -3475.29 -4409.95)
(-226636 -3444.22 -4995.54)
(-226045 -3404.29 -5644.16)
(-225237 -3353.17 -6333.15)
(-224172 -3286.61 -7028.71)
(-222821 -3201.33 -7667.5)
(-221197 -3094.51 -8161.12)
(-219363 -2965.43 -8426.14)
(-217417 -2816.14 -8420.63)
(-215467 -2650.97 -8149.5)
(-213612 -2475.48 -7651.84)
(-211922 -2296.33 -6981.89)
(-210443 -2119.55 -6194.92)
(-209195 -1949.79 -5338.48)
(-208182 -1790.95 -4448.98)
(-207391 -1646.22 -3551.97)
(-206807 -1517.62 -2662.76)
(-206409 -1406.44 -1789.64)
(-206175 -1312.72 -933.643)
(-206086 -1235.03 -91.5134)
(-206123 -1171.06 743.255)
(-206273 -1115.67 1576.97)
(-206529 -1062.59 2415.4)
(-206896 -1002.2 3264.8)
(-207376 -924.048 4128.68)
(-207910 -816.318 5009.99)
(-208314 -666.303 5908.62)
(-208358 -458.639 6820.45)
(-208174 -174.857 7764.15)
(-208691 204.054 8814.25)
(-210858 705.728 10099.3)
(-213131 1399.35 11665.6)
(-210554 2418.29 13289)
(-203861 4039.45 14437.3)
(-210258 7204.49 14427.9)
(-261864 12400.3 6913.36)
(-277251 -192.885 -28242)
(-152619 7881.29 -4169.42)
(-237768 7274.85 4175.51)
(-237624 7360.87 4571.55)
(-237543 7400.23 4778.69)
(-237477 7449.42 5014.95)
(-237425 7494.15 5238.72)
(-237398 7537.36 5454.61)
(-237396 7579.09 5656.98)
(-237419 7618.09 5839.78)
(-237467 7653.99 5996.01)
(-237540 7686.62 6117.29)
(-237635 7716.02 6194.41)
(-237747 7741.73 6217.05)
(-237870 7763.48 6173.24)
(-237989 7780.85 6049.62)
(-238084 7793.75 5832.9)
(-238132 7800.64 5513.18)
(-238106 7801.65 5088.49)
(-237981 7796.37 4565)
(-237732 7786.74 3954.39)
(-237328 7773.99 3270.04)
(-236736 7760.49 2538.37)
(-235933 7747.49 1812.53)
(-234931 7737.03 1173.67)
(-233785 7730.79 699.43)
(-232577 7728.59 434.069)
(-231394 7729.74 385.322)
(-230297 7729.81 525.651)
(-229332 7725.46 810.736)
(-228521 7714.33 1193.7)
(-227868 7697.81 1641.81)
(-227366 7676.87 2127.85)
(-226994 7651.17 2630.12)
(-226731 7621.58 3139.74)
(-226553 7588.46 3652.79)
(-226434 7552.82 4171.21)
(-226353 7516.66 4701.66)
(-226296 7483.99 5259.52)
(-226251 7461.63 5861.38)
(-226212 7457.13 6521.58)
(-226189 7481.68 7255.81)
(-226193 7547.88 8078.38)
(-226189 7670.92 9001.25)
(-226045 7867.95 10028.2)
(-225596 8160.34 11151.7)
(-225008 8573.98 12366.3)
(-225177 9135.34 13702.6)
(-227096 9876.2 15239.7)
(-229623 10868.6 16876.8)
(-228425 12246.8 18007.5)
(-223177 14068 17550.4)
(-236052 16946.6 18053.6)
(-308624 20156.2 16878.6)
(-382320 -1819.46 -8519.06)
(-378914 -18929 -52765.5)
(-234258 -4316.52 -4612.12)
(-234384 -4352.33 -4458.12)
(-234443 -4385.08 -4381.68)
(-234550 -4409.5 -4299.84)
(-234667 -4435.69 -4230.22)
(-234812 -4458.15 -4172.03)
(-234982 -4477.92 -4127.77)
(-235177 -4496.89 -4100.75)
(-235400 -4515.52 -4096.1)
(-235651 -4533.31 -4119.98)
(-235928 -4550.27 -4180.46)
(-236229 -4566.39 -4289.38)
(-236549 -4581.5 -4462.6)
(-236874 -4595.44 -4719.99)
(-237184 -4607.91 -5083.81)
(-237451 -4618.67 -5575.75)
(-237640 -4627.34 -6207.38)
(-237720 -4633.58 -6977.83)
(-237661 -4636.89 -7874.6)
(-237426 -4637.87 -8884.01)
(-236954 -4636.9 -9978.31)
(-236183 -4636.81 -11084.9)
(-235100 -4641.17 -12070.8)
(-233771 -4649.54 -12796)
(-232316 -4657.91 -13184.2)
(-230853 -4660.68 -13243.7)
(-229471 -4650.03 -13035.5)
(-228225 -4618.45 -12638.4)
(-227140 -4561.02 -12125.3)
(-226220 -4474.21 -11553.4)
(-225462 -4356.94 -10961.8)
(-224856 -4211.35 -10373.4)
(-224393 -4038.23 -9799.2)
(-224066 -3837.9 -9242.13)
(-223870 -3609.61 -8699.38)
(-223810 -3351.84 -8164.09)
(-223894 -3062.32 -7628.36)
(-224138 -2737.74 -7083.46)
(-224570 -2374.11 -6520.92)
(-225235 -1966.15 -5932.27)
(-226181 -1507.8 -5315.78)
(-227410 -996.817 -4668.88)
(-228815 -437.396 -3992.88)
(-230239 155.57 -3299.57)
(-231850 749.784 -2597.96)
(-234619 1295.12 -1855.3)
(-239698 1730.03 -924.053)
(-245941 1909.09 285.589)
(-248099 1553.96 1595.96)
(-245154 392.222 3431.82)
(-262400 -33.8664 10451.6)
(-345196 742.473 18015.5)
(-410832 2983.38 21521.9)
(-391715 -68699.4 21252.3)
(-235237 4714.92 4500.88)
(-234889 4639.06 4733.42)
(-234718 4588.54 4889.47)
(-234541 4526.86 5034.68)
(-234389 4458.9 5171.99)
(-234269 4384.87 5298)
(-234181 4306.74 5410.5)
(-234129 4225.32 5507.39)
(-234113 4140.63 5582.95)
(-234136 4052.92 5630.06)
(-234197 3962.78 5639.23)
(-234295 3870.35 5597.38)
(-234424 3776.33 5487.32)
(-234573 3681.99 5288.04)
(-234721 3589.08 4975.95)
(-234840 3499.78 4529.4)
(-234895 3416.76 3935.28)
(-234853 3342.51 3193.97)
(-234687 3279.7 2315.2)
(-234355 3229.09 1313.08)
(-233801 3191.53 217.371)
(-232962 3164.35 -900.627)
(-231811 3139.74 -1908.42)
(-230412 3110.74 -2659.7)
(-228904 3072.67 -3084.98)
(-227431 3021 -3199.83)
(-226109 2958.19 -3066.78)
(-224998 2885.53 -2768.04)
(-224114 2803.29 -2381.26)
(-223444 2709.62 -1967.7)
(-222953 2602.31 -1573.95)
(-222598 2478.4 -1230.41)
(-222339 2335.57 -937.979)
(-222142 2173.66 -705.709)
(-221970 1994.83 -531.249)
(-221791 1802.19 -408.284)
(-221576 1600.03 -330.661)
(-221296 1393.32 -294.664)
(-220929 1187.95 -297.711)
(-220463 990.923 -339.574)
(-219880 809.267 -424.655)
(-219111 646.142 -562.868)
(-217978 498.007 -775.55)
(-216262 350.935 -1102.9)
(-214054 173.449 -1592.91)
(-212126 -83.2203 -2268.66)
(-211224 -488.091 -3109.06)
(-209792 -1206.62 -4247.51)
(-203012 -2477.16 -5727.82)
(-190578 -4066.14 -7258.68)
(-192358 -5046.7 -6363.86)
(-237778 -6097.3 -4503.54)
(-287620 -4446.57 39400.2)
(-281109 -10098.3 3501.16)
(-230536 -2913.49 -3990.96)
(-230410 -2951.19 -3691.28)
(-230397 -2963.63 -3553.84)
(-230400 -2990.7 -3360.11)
(-230438 -3014.58 -3172.73)
(-230512 -3037.36 -2976.71)
(-230622 -3058.15 -2779.05)
(-230770 -3078.17 -2585.07)
(-230961 -3097.59 -2405.46)
(-231198 -3116.46 -2253.7)
(-231484 -3135.28 -2147.2)
(-231823 -3154.4 -2108.1)
(-232214 -3173.83 -2162.32)
(-232652 -3193.19 -2338.82)
(-233117 -3211.71 -2667.26)
(-233578 -3228.31 -3172.66)
(-233989 -3241.82 -3866.99)
(-234308 -3250.64 -4741.95)
(-234506 -3253.24 -5775.83)
(-234552 -3246.22 -6951.86)
(-234369 -3227.13 -8251.28)
(-233854 -3195.06 -9589.22)
(-232985 -3149.16 -10760.4)
(-231911 -3090.07 -11519.8)
(-230883 -3022.19 -11744)
(-230123 -2951.27 -11479.9)
(-229750 -2882.37 -10860.1)
(-229788 -2817.68 -10029.2)
(-230202 -2756.98 -9105.5)
(-230927 -2698.98 -8170.23)
(-231896 -2640.11 -7271.24)
(-233044 -2576.08 -6431.34)
(-234315 -2505.37 -5658.33)
(-235660 -2429.4 -4952.06)
(-237033 -2347.35 -4308.21)
(-238395 -2257.83 -3720.83)
(-239706 -2159.74 -3184.97)
(-240927 -2051.36 -2696.59)
(-242021 -1930.01 -2253.74)
(-242961 -1791.44 -1855.59)
(-243713 -1629.18 -1518.75)
(-244246 -1430.17 -1246.65)
(-244396 -1185.82 -1054.86)
(-243923 -895.702 -979.535)
(-242860 -566.249 -1074.09)
(-241812 -215.588 -1414.44)
(-241283 101.835 -2127.14)
(-239112 325.27 -3422.39)
(-230495 416.814 -5300.03)
(-214784 524.893 -7114.7)
(-207344 447.625 -6301.76)
(-211701 1090.26 -1280.95)
(-236825 15590.6 43605.6)
(-146226 10311.2 18452)
(-245009 2068.06 3506.69)
(-245552 2062.62 3732.23)
(-245802 2099.67 3883.03)
(-246167 2115.63 4048.02)
(-246516 2144.18 4218.35)
(-246892 2177.47 4393.91)
(-247286 2218.19 4568.24)
(-247700 2264.85 4734.58)
(-248133 2317.07 4881.64)
(-248584 2374.42 4994.95)
(-249051 2435.85 5055.8)
(-249532 2499.94 5041.41)
(-250018 2565.28 4925.13)
(-250497 2630.3 4677.48)
(-250941 2693.23 4268.33)
(-251311 2752.12 3672.42)
(-251555 2804.59 2877.64)
(-251623 2848.49 1892.62)
(-251477 2881.67 740.649)
(-251074 2904.42 -553.894)
(-250329 2917.16 -1955.4)
(-249136 2915.17 -3394.23)
(-247486 2893.81 -4704.49)
(-245493 2857.06 -5654.04)
(-243374 2804.6 -6116.71)
(-241333 2737.03 -6123.87)
(-239496 2655.59 -5793.53)
(-237917 2563.42 -5258.55)
(-236599 2464.31 -4628.97)
(-235519 2361.21 -3977.33)
(-234645 2255.5 -3350.96)
(-233947 2145.52 -2787.93)
(-233401 2031.93 -2289.65)
(-232971 1910.67 -1870.17)
(-232636 1782.5 -1518.15)
(-232364 1650.27 -1222.57)
(-232129 1517.49 -974.071)
(-231907 1388.6 -766.657)
(-231679 1269.74 -598.606)
(-231432 1169.6 -469.714)
(-231147 1103.46 -381.067)
(-230752 1084.62 -336.883)
(-230067 1123.63 -345.323)
(-228867 1228.63 -417.948)
(-227232 1403.34 -558.411)
(-225912 1641.57 -742.936)
(-225726 1897.84 -958.707)
(-225125 2100.27 -1270.87)
(-219623 2247.42 -1709.93)
(-207270 2045.1 -2632.55)
(-202640 987.293 -3243.58)
(-209591 616.851 -690.194)
(-206286 11666.6 51675.9)
(-72858 7596.69 31968)
(-230017 -3571.57 -3998.45)
(-229645 -3634.86 -3667.58)
(-229516 -3643.27 -3489.05)
(-229374 -3680.08 -3263.52)
(-229296 -3710.54 -3047.73)
(-229265 -3742.9 -2834.1)
(-229295 -3776.19 -2635.14)
(-229393 -3811.99 -2461.11)
(-229567 -3850.34 -2324.39)
(-229823 -3891.56 -2237.48)
(-230167 -3936.06 -2215.36)
(-230601 -3983.96 -2274.68)
(-231119 -4035.19 -2434.78)
(-231704 -4089.33 -2719.25)
(-232321 -4145.65 -3156.3)
(-232906 -4203.42 -3776.78)
(-233376 -4261.87 -4607.17)
(-233642 -4319.85 -5657.91)
(-233645 -4375.41 -6927.03)
(-233326 -4423.91 -8426.69)
(-232529 -4458.96 -10187.6)
(-230982 -4477.17 -12147.5)
(-228493 -4478.96 -13984.6)
(-225231 -4459.08 -15215.2)
(-221688 -4413.25 -15566.4)
(-218352 -4341.64 -15129.7)
(-215506 -4247.76 -14178.2)
(-213242 -4136.84 -12976.2)
(-211538 -4016.47 -11716.1)
(-210318 -3896.78 -10509.3)
(-209493 -3779.86 -9411.25)
(-208980 -3664.11 -8440.81)
(-208713 -3549.49 -7596.4)
(-208635 -3434.58 -6867)
(-208700 -3318.05 -6239.41)
(-208871 -3195.83 -5701.02)
(-209113 -3064.54 -5239.08)
(-209392 -2921.32 -4838.5)
(-209675 -2763.91 -4480.63)
(-209923 -2588.96 -4137.91)
(-210106 -2405.98 -3818.76)
(-210048 -2222.38 -3512.22)
(-209466 -2044.62 -3206.65)
(-208067 -1875.99 -2907.03)
(-205823 -1723.3 -2577.12)
(-203458 -1576.8 -2172.77)
(-201871 -1363.07 -1712.83)
(-199710 -908.824 -1181.99)
(-192720 -125.208 15.7785)
(-180285 896.035 2298.5)
(-178693 2291.46 5195.6)
(-193326 6576.77 3891.37)
(-186954 27836.9 29728.7)
(-66918.2 13324.3 26717)
(-244671 3077.41 4789.49)
(-244927 3225.95 5089.58)
(-244924 3324.34 5228.75)
(-244987 3414.52 5422.19)
(-245002 3507.14 5598.96)
(-245005 3596.15 5769.81)
(-244991 3681.73 5922.1)
(-244965 3761.24 6047.28)
(-244930 3833.29 6133.76)
(-244892 3896.19 6169.21)
(-244858 3947.77 6139.52)
(-244836 3986 6028.92)
(-244833 4009.12 5819)
(-244852 4015.76 5487.75)
(-244884 4004.91 5009.56)
(-244903 3976.22 4357.87)
(-244868 3930.38 3513.17)
(-244739 3870.08 2471.01)
(-244498 3800.09 1237.76)
(-244125 3729.65 -193.444)
(-243488 3672.54 -1860.82)
(-242268 3648.06 -3736.46)
(-240254 3656.01 -5541.94)
(-237605 3689.73 -6842.5)
(-234748 3739.8 -7373.34)
(-232097 3789.91 -7206.53)
(-229864 3825.11 -6586.92)
(-228079 3835.09 -5748.76)
(-226680 3814.51 -4856.45)
(-225574 3766.11 -3996.13)
(-224667 3693.93 -3207.07)
(-223882 3604.11 -2493.46)
(-223155 3501.66 -1844.65)
(-222446 3384.84 -1276.23)
(-221738 3259.23 -777.113)
(-221023 3128.15 -344.167)
(-220288 2994.66 31.9603)
(-219521 2859.86 354.931)
(-218711 2723.9 624.47)
(-217849 2586.58 839.102)
(-216911 2443.29 996.904)
(-215812 2290.59 1094.76)
(-214336 2130.85 1131.74)
(-212193 1959.68 1114.8)
(-209395 1773.5 1060.82)
(-206694 1585.59 999.719)
(-204951 1472.03 968.228)
(-202717 1613.37 1101.62)
(-194875 2074.65 1799.81)
(-181766 2791.74 3976.99)
(-178558 3541.94 7006.71)
(-196568 5348.29 4881.83)
(-186072 20336.8 20428.4)
(42295.8 7566.27 5162.14)
(-234263 -3972.03 -4137.31)
(-234545 -4007.19 -3859.29)
(-234797 -3998.18 -3681.84)
(-235107 -4009.48 -3459.96)
(-235469 -4013.07 -3226.92)
(-235882 -4016.99 -2974.76)
(-236358 -4018.9 -2707.99)
(-236901 -4019.38 -2428.34)
(-237517 -4018.21 -2140.76)
(-238212 -4015.98 -1854.11)
(-238991 -4012.45 -1579.67)
(-239861 -4007.66 -1338.03)
(-240826 -4001.69 -1163.9)
(-241885 -3994.5 -1109.23)
(-243019 -3985.72 -1243.46)
(-244184 -3974.67 -1647.03)
(-245305 -3959.95 -2398.55)
(-246296 -3940.39 -3554.58)
(-247108 -3914.47 -5130.9)
(-247707 -3882.3 -7132.75)
(-247900 -3847.07 -9596.41)
(-247182 -3818.22 -12490.4)
(-245034 -3810.22 -15382.8)
(-241528 -3826.22 -17422.4)
(-237379 -3849.32 -17980.2)
(-233354 -3878.79 -17192.3)
(-229834 -3919.64 -15681.3)
(-226879 -3967.09 -13926.4)
(-224393 -4013.42 -12193.1)
(-222238 -4052.09 -10604)
(-220287 -4077.21 -9200.76)
(-218438 -4083.91 -7979.9)
(-216606 -4067.28 -6917.07)
(-214729 -4019.68 -5982.24)
(-212760 -3935.85 -5150.56)
(-210664 -3812.78 -4405.14)
(-208411 -3645.8 -3736.83)
(-205978 -3434.23 -3142.93)
(-203353 -3180.93 -2628.44)
(-200528 -2892.98 -2216.56)
(-197496 -2579.91 -1941.35)
(-194216 -2260.88 -1853.36)
(-190554 -1985.09 -2027.33)
(-186181 -1784.52 -2483.75)
(-181134 -1716.1 -3283.94)
(-176249 -1855.48 -4468.58)
(-172429 -2214.17 -6146.9)
(-168279 -2785.41 -8215.74)
(-157943 -3533.15 -10371)
(-140053 -4504.8 -11601.2)
(-134932 -4351.69 -13538.8)
(-146162 3698.06 -24601.7)
(-221031 -456.101 -50158.4)
(-17133.8 -1169.74 739.274)
(-233163 1627.02 3179.09)
(-233721 1653.75 3412.37)
(-234016 1654.21 3493.64)
(-234422 1642.48 3647.09)
(-234835 1623.22 3784.9)
(-235288 1592.71 3931.03)
(-235783 1552.16 4078.71)
(-236331 1500.62 4227.82)
(-236939 1438.48 4375.94)
(-237618 1365.86 4518.86)
(-238379 1283.58 4648.04)
(-239234 1193.1 4747.53)
(-240194 1097.04 4789.09)
(-241265 999.095 4728.17)
(-242433 904.885 4504.28)
(-243658 822.12 4047.12)
(-244864 760.587 3290.02)
(-245968 729.322 2190)
(-246921 734.828 739.761)
(-247693 780.785 -1072.18)
(-248021 863.069 -3309.98)
(-247389 962.073 -5942.13)
(-245264 1063.46 -8578.56)
(-241633 1163.99 -10395.5)
(-237163 1272.55 -10723.5)
(-232677 1383.38 -9678.93)
(-228658 1484.59 -7898.11)
(-225257 1573.03 -5874.8)
(-222453 1650.36 -3878.36)
(-220151 1720.08 -2034.35)
(-218242 1786.64 -384.012)
(-216624 1853.31 1076.25)
(-215210 1922.89 2373.48)
(-213938 1995.15 3522.77)
(-212749 2073.96 4565.81)
(-211596 2161.2 5534.86)
(-210461 2255.86 6446.71)
(-209286 2360.31 7308.1)
(-208074 2467.24 8125.41)
(-206845 2575.12 8900.36)
(-205614 2671.85 9619.77)
(-204342 2739.91 10263)
(-202862 2748.45 10803.7)
(-200929 2652.87 11214.1)
(-198588 2397.11 11456.4)
(-196660 1915.88 11459.2)
(-196141 1186.8 11078.8)
(-195193 202.099 10350.2)
(-187897 -951.424 9881.09)
(-171635 -2588.04 10596.3)
(-167114 -3689.26 9442.33)
(-193688 3586.59 3456.43)
(-201544 5799.49 16526.4)
(-4300.07 2203.97 -14672.6)
(-229251 -3310.07 -411.094)
(-229772 -3334.31 101.709)
(-230179 -3336.68 363.559)
(-230659 -3349.23 712.255)
(-231185 -3360.64 1069.02)
(-231755 -3375.63 1452.06)