/*--------------------------------*- C++ -*----------------------------------*\
| =========                 |                                                 |
| \\      /  F ield         | OpenFOAM: The Open Source CFD Toolbox           |
|  \\    /   O peration     | Version:  4.1                                   |
|   \\  /    A nd           | Web:      www.OpenFOAM.org                      |
|    \\/     M anipulation  |                                                 |
\*---------------------------------------------------------------------------*/
FoamFile
{
    version     2.0;
    format      ascii;
    class       volScalarField;
    location    "90";
    object      p;
}
// * * * * * * * * * * * * * * * * * * * * * * * * * * * * * * * * * * * * * //

dimensions      [0 2 -2 0 0 0 0];

internalField   nonuniform List<scalar> 
4432
(
-3.75676e+10
-3.75488e+10
-3.76662e+10
-3.76813e+10
-3.77097e+10
-3.77603e+10
-3.78081e+10
-3.78556e+10
-3.79011e+10
-3.79443e+10
-3.79856e+10
-3.80242e+10
-3.8058e+10
-3.80843e+10
-3.81006e+10
-3.81043e+10
-3.80913e+10
-3.80582e+10
-3.80033e+10
-3.79258e+10
-3.78266e+10
-3.77083e+10
-3.75755e+10
-3.74342e+10
-3.72908e+10
-3.71516e+10
-3.70215e+10
-3.69037e+10
-3.67987e+10
-3.67048e+10
-3.66184e+10
-3.65361e+10
-3.6456e+10
-3.6379e+10
-3.63093e+10
-3.62539e+10
-3.62197e+10
-3.62117e+10
-3.62287e+10
-3.62606e+10
-3.62857e+10
-3.62691e+10
-3.61716e+10
-3.59941e+10
-3.58675e+10
-3.60754e+10
-3.67623e+10
-3.73063e+10
-3.63128e+10
-3.38945e+10
-3.50864e+10
-4.60558e+10
-5.68861e+10
-2.80409e+10
-3.76219e+10
-3.75703e+10
-3.76309e+10
-3.7681e+10
-3.77092e+10
-3.77541e+10
-3.78037e+10
-3.78505e+10
-3.78945e+10
-3.79372e+10
-3.79786e+10
-3.80176e+10
-3.80517e+10
-3.80787e+10
-3.80964e+10
-3.81016e+10
-3.80905e+10
-3.80594e+10
-3.80064e+10
-3.79302e+10
-3.78319e+10
-3.77144e+10
-3.75819e+10
-3.74408e+10
-3.72973e+10
-3.71581e+10
-3.70278e+10
-3.691e+10
-3.68051e+10
-3.67117e+10
-3.66261e+10
-3.65451e+10
-3.64666e+10
-3.63913e+10
-3.63235e+10
-3.62701e+10
-3.6238e+10
-3.62317e+10
-3.6249e+10
-3.62796e+10
-3.63019e+10
-3.62816e+10
-3.61801e+10
-3.6e+10
-3.58764e+10
-3.61033e+10
-3.68365e+10
-3.74149e+10
-3.62336e+10
-3.30022e+10
-3.28152e+10
-4.42947e+10
-5.96861e+10
-3.44432e+10
-3.76412e+10
-3.76108e+10
-3.7642e+10
-3.77005e+10
-3.77333e+10
-3.77715e+10
-3.78241e+10
-3.78759e+10
-3.79268e+10
-3.79777e+10
-3.80277e+10
-3.8077e+10
-3.81227e+10
-3.81601e+10
-3.81843e+10
-3.81923e+10
-3.8181e+10
-3.8147e+10
-3.80885e+10
-3.80039e+10
-3.78936e+10
-3.776e+10
-3.76081e+10
-3.74451e+10
-3.72784e+10
-3.71163e+10
-3.69643e+10
-3.68269e+10
-3.67049e+10
-3.65972e+10
-3.65002e+10
-3.64104e+10
-3.63258e+10
-3.62468e+10
-3.61772e+10
-3.61232e+10
-3.60908e+10
-3.60836e+10
-3.60981e+10
-3.61233e+10
-3.61361e+10
-3.60985e+10
-3.59666e+10
-3.57395e+10
-3.55623e+10
-3.57508e+10
-3.64396e+10
-3.6831e+10
-3.52168e+10
-3.17462e+10
-3.24017e+10
-4.49872e+10
-5.89204e+10
-3.53997e+10
-3.76292e+10
-3.76155e+10
-3.76538e+10
-3.7696e+10
-3.77295e+10
-3.77691e+10
-3.78221e+10
-3.78733e+10
-3.79244e+10
-3.79754e+10
-3.80264e+10
-3.80769e+10
-3.81237e+10
-3.8162e+10
-3.81878e+10
-3.81986e+10
-3.81906e+10
-3.81599e+10
-3.8105e+10
-3.80236e+10
-3.79157e+10
-3.77843e+10
-3.76343e+10
-3.74731e+10
-3.73081e+10
-3.71475e+10
-3.69971e+10
-3.68613e+10
-3.67408e+10
-3.66345e+10
-3.65389e+10
-3.64503e+10
-3.63666e+10
-3.62879e+10
-3.62179e+10
-3.61627e+10
-3.61284e+10
-3.61183e+10
-3.6129e+10
-3.61495e+10
-3.61572e+10
-3.61143e+10
-3.5977e+10
-3.57458e+10
-3.55701e+10
-3.57757e+10
-3.65e+10
-3.68851e+10
-3.50663e+10
-3.12959e+10
-3.27861e+10
-4.81285e+10
-6.06878e+10
-2.9686e+10
-3.76441e+10
-3.76649e+10
-3.76445e+10
-3.76884e+10
-3.77247e+10
-3.77619e+10
-3.7809e+10
-3.78609e+10
-3.7915e+10
-3.79696e+10
-3.8024e+10
-3.80786e+10
-3.813e+10
-3.81725e+10
-3.82021e+10
-3.82158e+10
-3.82112e+10
-3.81847e+10
-3.81331e+10
-3.80537e+10
-3.79455e+10
-3.78098e+10
-3.76513e+10
-3.74777e+10
-3.72977e+10
-3.71205e+10
-3.69532e+10
-3.68006e+10
-3.66641e+10
-3.65429e+10
-3.6434e+10
-3.63338e+10
-3.62396e+10
-3.61515e+10
-3.60727e+10
-3.60086e+10
-3.5965e+10
-3.5945e+10
-3.59461e+10
-3.59587e+10
-3.59609e+10
-3.59119e+10
-3.57609e+10
-3.55048e+10
-3.53092e+10
-3.55455e+10
-3.63877e+10
-3.69392e+10
-3.52452e+10
-3.14328e+10
-3.20286e+10
-4.47116e+10
-5.71456e+10
-2.90708e+10
-3.76142e+10
-3.76548e+10
-3.76691e+10
-3.76883e+10
-3.77211e+10
-3.77626e+10
-3.78112e+10
-3.78631e+10
-3.79187e+10
-3.79754e+10
-3.80328e+10
-3.80909e+10
-3.81465e+10
-3.81937e+10
-3.82278e+10
-3.82454e+10
-3.82429e+10
-3.82172e+10
-3.8166e+10
-3.80874e+10
-3.79797e+10
-3.78438e+10
-3.7684e+10
-3.75081e+10
-3.73252e+10
-3.71448e+10
-3.6974e+10
-3.68178e+10
-3.66775e+10
-3.65522e+10
-3.64385e+10
-3.63329e+10
-3.6233e+10
-3.61392e+10
-3.60557e+10
-3.59882e+10
-3.59427e+10
-3.59224e+10
-3.59252e+10
-3.59407e+10
-3.59464e+10
-3.59023e+10
-3.57591e+10
-3.55153e+10
-3.53385e+10
-3.56013e+10
-3.64619e+10
-3.69318e+10
-3.48521e+10
-3.02784e+10
-3.04302e+10
-4.43632e+10
-6.00651e+10
-3.39137e+10
-3.76176e+10
-3.76467e+10
-3.76683e+10
-3.76892e+10
-3.77282e+10
-3.77746e+10
-3.78263e+10
-3.78826e+10
-3.79434e+10
-3.80074e+10
-3.8074e+10
-3.81431e+10
-3.82115e+10
-3.82733e+10
-3.8323e+10
-3.83547e+10
-3.83631e+10
-3.8344e+10
-3.82945e+10
-3.82117e+10
-3.80939e+10
-3.79421e+10
-3.7762e+10
-3.75634e+10
-3.73585e+10
-3.71589e+10
-3.69734e+10
-3.68073e+10
-3.66619e+10
-3.65356e+10
-3.64249e+10
-3.63252e+10
-3.62323e+10
-3.61458e+10
-3.60683e+10
-3.60042e+10
-3.59585e+10
-3.59339e+10
-3.59284e+10
-3.59319e+10
-3.5922e+10
-3.58562e+10
-3.56776e+10
-3.53731e+10
-3.51034e+10
-3.52515e+10
-3.60275e+10
-3.65727e+10
-3.48736e+10
-3.07492e+10
-3.04849e+10
-4.31399e+10
-5.95596e+10
-3.48101e+10
-3.76135e+10
-3.76492e+10
-3.76699e+10
-3.76833e+10
-3.77178e+10
-3.77658e+10
-3.7817e+10
-3.78727e+10
-3.79342e+10
-3.79993e+10
-3.80677e+10
-3.8139e+10
-3.82098e+10
-3.82747e+10
-3.8328e+10
-3.8364e+10
-3.83768e+10
-3.83619e+10
-3.83161e+10
-3.82366e+10
-3.81216e+10
-3.79718e+10
-3.77926e+10
-3.75939e+10
-3.73877e+10
-3.71858e+10
-3.69975e+10
-3.68281e+10
-3.6679e+10
-3.65486e+10
-3.6433e+10
-3.63282e+10
-3.6231e+10
-3.61409e+10
-3.60607e+10
-3.59956e+10
-3.59512e+10
-3.59305e+10
-3.59315e+10
-3.59445e+10
-3.59466e+10
-3.58951e+10
-3.5734e+10
-3.54536e+10
-3.52212e+10
-3.54269e+10
-3.6266e+10
-3.67925e+10
-3.49002e+10
-3.08197e+10
-3.22114e+10
-4.77943e+10
-6.09351e+10
-2.92549e+10
-3.75778e+10
-3.75995e+10
-3.76251e+10
-3.76458e+10
-3.76799e+10
-3.77262e+10
-3.77804e+10
-3.78399e+10
-3.79047e+10
-3.79747e+10
-3.80494e+10
-3.81271e+10
-3.82047e+10
-3.82772e+10
-3.83391e+10
-3.83842e+10
-3.84065e+10
-3.84012e+10
-3.83636e+10
-3.82887e+10
-3.81711e+10
-3.80097e+10
-3.78101e+10
-3.75851e+10
-3.7351e+10
-3.71235e+10
-3.6914e+10
-3.67289e+10
-3.65693e+10
-3.6433e+10
-3.63149e+10
-3.62094e+10
-3.61119e+10
-3.60213e+10
-3.594e+10
-3.58735e+10
-3.58283e+10
-3.58087e+10
-3.58148e+10
-3.58386e+10
-3.5859e+10
-3.58332e+10
-3.57022e+10
-3.5449e+10
-3.5226e+10
-3.54114e+10
-3.6244e+10
-3.69559e+10
-3.56077e+10
-3.18448e+10
-3.14445e+10
-4.34375e+10
-5.95977e+10
-3.18151e+10
-3.75852e+10
-3.76119e+10
-3.76286e+10
-3.76454e+10
-3.76781e+10
-3.77246e+10
-3.77789e+10
-3.78391e+10
-3.79047e+10
-3.79755e+10
-3.80513e+10
-3.81304e+10
-3.82093e+10
-3.82829e+10
-3.83461e+10
-3.83925e+10
-3.84166e+10
-3.84135e+10
-3.83783e+10
-3.83059e+10
-3.81914e+10
-3.80338e+10
-3.78382e+10
-3.7617e+10
-3.73864e+10
-3.71617e+10
-3.69546e+10
-3.67717e+10
-3.66141e+10
-3.64794e+10
-3.63629e+10
-3.62593e+10
-3.61646e+10
-3.60776e+10
-3.60007e+10
-3.59391e+10
-3.58988e+10
-3.58837e+10
-3.58927e+10
-3.59166e+10
-3.59332e+10
-3.58983e+10
-3.5752e+10
-3.54772e+10
-3.52296e+10
-3.53922e+10
-3.61923e+10
-3.68044e+10
-3.52619e+10
-3.15898e+10
-3.2612e+10
-4.68578e+10
-6.11618e+10
-3.13388e+10
-3.75822e+10
-3.75979e+10
-3.76216e+10
-3.76494e+10
-3.76871e+10
-3.7737e+10
-3.77973e+10
-3.78646e+10
-3.79382e+10
-3.80199e+10
-3.81101e+10
-3.82059e+10
-3.83038e+10
-3.83993e+10
-3.84863e+10
-3.85569e+10
-3.86027e+10
-3.8617e+10
-3.85939e+10
-3.85264e+10
-3.84054e+10
-3.82255e+10
-3.79929e+10
-3.77259e+10
-3.74488e+10
-3.71838e+10
-3.69467e+10
-3.67451e+10
-3.65794e+10
-3.64453e+10
-3.63356e+10
-3.62424e+10
-3.61599e+10
-3.60854e+10
-3.602e+10
-3.59688e+10
-3.59382e+10
-3.59333e+10
-3.5955e+10
-3.59961e+10
-3.60354e+10
-3.60291e+10
-3.59163e+10
-3.56754e+10
-3.54496e+10
-3.56107e+10
-3.64208e+10
-3.71813e+10
-3.60171e+10
-3.26215e+10
-3.31096e+10
-4.61586e+10
-6.02896e+10
-3.16319e+10
-3.75999e+10
-3.76162e+10
-3.76399e+10
-3.76673e+10
-3.77069e+10
-3.77568e+10
-3.78164e+10
-3.78844e+10
-3.79592e+10
-3.80414e+10
-3.81312e+10
-3.82265e+10
-3.8324e+10
-3.84194e+10
-3.85068e+10
-3.85785e+10
-3.8626e+10
-3.86419e+10
-3.862e+10
-3.8553e+10
-3.84317e+10
-3.8251e+10
-3.80171e+10
-3.7749e+10
-3.74712e+10
-3.72062e+10
-3.69698e+10
-3.67695e+10
-3.66055e+10
-3.6473e+10
-3.63646e+10
-3.62725e+10
-3.61904e+10
-3.61152e+10
-3.60473e+10
-3.59908e+10
-3.59514e+10
-3.59335e+10
-3.59377e+10
-3.59568e+10
-3.59699e+10
-3.59344e+10
-3.57913e+10
-3.55214e+10
-3.52718e+10
-3.54187e+10
-3.62221e+10
-3.69573e+10
-3.5665e+10
-3.18311e+10
-3.13581e+10
-4.41612e+10
-6.29421e+10
-4.14017e+10
-3.75593e+10
-3.75777e+10
-3.76006e+10
-3.76337e+10
-3.76774e+10
-3.77338e+10
-3.78006e+10
-3.78746e+10
-3.79558e+10
-3.80466e+10
-3.81473e+10
-3.82561e+10
-3.83704e+10
-3.84861e+10
-3.85967e+10
-3.86928e+10
-3.87635e+10
-3.87994e+10
-3.87936e+10
-3.87366e+10
-3.86133e+10
-3.84088e+10
-3.8126e+10
-3.77907e+10
-3.74408e+10
-3.71099e+10
-3.68203e+10
-3.65814e+10
-3.63926e+10
-3.62467e+10
-3.61334e+10
-3.60424e+10
-3.59655e+10
-3.58986e+10
-3.58416e+10
-3.57982e+10
-3.57743e+10
-3.57746e+10
-3.57996e+10
-3.5841e+10
-3.58764e+10
-3.58604e+10
-3.57303e+10
-3.54605e+10
-3.51874e+10
-3.52803e+10
-3.60181e+10
-3.67154e+10
-3.53782e+10
-3.1322e+10
-3.05161e+10
-4.37772e+10
-6.37331e+10
-4.06083e+10
-3.75582e+10
-3.75736e+10
-3.75956e+10
-3.76298e+10
-3.76738e+10
-3.77278e+10
-3.77916e+10
-3.78641e+10
-3.79448e+10
-3.80348e+10
-3.81343e+10
-3.82422e+10
-3.83559e+10
-3.84713e+10
-3.85816e+10
-3.86772e+10
-3.87468e+10
-3.87812e+10
-3.87743e+10
-3.87175e+10
-3.85952e+10
-3.83927e+10
-3.81122e+10
-3.77793e+10
-3.74313e+10
-3.71016e+10
-3.68121e+10
-3.65726e+10
-3.63826e+10
-3.62351e+10
-3.61202e+10
-3.60273e+10
-3.59481e+10
-3.58781e+10
-3.58167e+10
-3.57674e+10
-3.57355e+10
-3.57262e+10
-3.57404e+10
-3.57712e+10
-3.57985e+10
-3.57811e+10
-3.56614e+10
-3.54209e+10
-3.52064e+10
-3.54031e+10
-3.63133e+10
-3.72741e+10
-3.62459e+10
-3.22703e+10
-3.07423e+10
-4.2622e+10
-6.28575e+10
-4.08874e+10
-3.75828e+10
-3.75971e+10
-3.76139e+10
-3.76407e+10
-3.76786e+10
-3.77271e+10
-3.77844e+10
-3.78495e+10
-3.79251e+10
-3.80148e+10
-3.81193e+10
-3.82392e+10
-3.83735e+10
-3.85187e+10
-3.86675e+10
-3.88077e+10
-3.89235e+10
-3.90015e+10
-3.9033e+10
-3.90089e+10
-3.8905e+10
-3.8687e+10
-3.83442e+10
-3.79146e+10
-3.74638e+10
-3.70466e+10
-3.66933e+10
-3.64133e+10
-3.62019e+10
-3.60468e+10
-3.59335e+10
-3.58484e+10
-3.57813e+10
-3.57262e+10
-3.56822e+10
-3.56525e+10
-3.56426e+10
-3.56576e+10
-3.56982e+10
-3.57576e+10
-3.58146e+10
-3.58265e+10
-3.57332e+10
-3.5512e+10
-3.53037e+10
-3.54918e+10
-3.63885e+10
-3.7342e+10
-3.6339e+10
-3.25878e+10
-3.16552e+10
-4.3357e+10
-5.99498e+10
-3.33839e+10
-3.75576e+10
-3.75643e+10
-3.75829e+10
-3.76136e+10
-3.76538e+10
-3.77028e+10
-3.77621e+10
-3.78314e+10
-3.79121e+10
-3.80065e+10
-3.8116e+10
-3.82408e+10
-3.83797e+10
-3.85289e+10
-3.86808e+10
-3.88231e+10
-3.89399e+10
-3.90176e+10
-3.9048e+10
-3.90214e+10
-3.89142e+10
-3.86929e+10
-3.83477e+10
-3.79173e+10
-3.74678e+10
-3.70541e+10
-3.67058e+10
-3.64314e+10
-3.62256e+10
-3.60754e+10
-3.59661e+10
-3.58841e+10
-3.58191e+10
-3.57649e+10
-3.57199e+10
-3.56869e+10
-3.56711e+10
-3.56776e+10
-3.57078e+10
-3.57557e+10
-3.58011e+10
-3.58021e+10
-3.56998e+10
-3.54731e+10
-3.52662e+10
-3.54714e+10
-3.64234e+10
-3.75091e+10
-3.67438e+10
-3.33312e+10
-3.28785e+10
-4.48113e+10
-5.90714e+10
-3.00998e+10
-3.74556e+10
-3.74605e+10
-3.74712e+10
-3.74913e+10
-3.7526e+10
-3.75736e+10
-3.76334e+10
-3.77076e+10
-3.77998e+10
-3.79133e+10
-3.80501e+10
-3.82112e+10
-3.83954e+10
-3.85979e+10
-3.88089e+10
-3.90118e+10
-3.91847e+10
-3.93079e+10
-3.93745e+10
-3.93824e+10
-3.92999e+10
-3.90566e+10
-3.86076e+10
-3.8012e+10
-3.73974e+10
-3.68572e+10
-3.64277e+10
-3.61129e+10
-3.58971e+10
-3.57569e+10
-3.56689e+10
-3.56132e+10
-3.55756e+10
-3.55477e+10
-3.55267e+10
-3.55136e+10
-3.55123e+10
-3.55258e+10
-3.55537e+10
-3.55879e+10
-3.56061e+10
-3.55644e+10
-3.54022e+10
-3.50973e+10
-3.47951e+10
-3.48946e+10
-3.57371e+10
-3.6704e+10
-3.58156e+10
-3.23823e+10
-3.21622e+10
-4.41562e+10
-5.7829e+10
-2.95295e+10
-3.74447e+10
-3.74516e+10
-3.74643e+10
-3.74903e+10
-3.75283e+10
-3.75789e+10
-3.76441e+10
-3.77246e+10
-3.78225e+10
-3.79403e+10
-3.80804e+10
-3.82432e+10
-3.84271e+10
-3.86274e+10
-3.88344e+10
-3.90319e+10
-3.91981e+10
-3.93136e+10
-3.93716e+10
-3.93699e+10
-3.92783e+10
-3.90273e+10
-3.85716e+10
-3.79685e+10
-3.73453e+10
-3.67968e+10
-3.63615e+10
-3.60438e+10
-3.58277e+10
-3.56889e+10
-3.56028e+10
-3.55487e+10
-3.55117e+10
-3.54836e+10
-3.54622e+10
-3.54494e+10
-3.54502e+10
-3.54692e+10
-3.55076e+10
-3.55587e+10
-3.56013e+10
-3.55919e+10
-3.54676e+10
-3.52012e+10
-3.49291e+10
-3.50391e+10
-3.58633e+10
-3.6774e+10
-3.57442e+10
-3.19033e+10
-3.07775e+10
-4.21876e+10
-5.84772e+10
-3.3696e+10
-3.73994e+10
-3.74115e+10
-3.74327e+10
-3.74639e+10
-3.75116e+10
-3.75748e+10
-3.76534e+10
-3.77491e+10
-3.78636e+10
-3.79981e+10
-3.81555e+10
-3.83378e+10
-3.85459e+10
-3.87774e+10
-3.90253e+10
-3.92737e+10
-3.94972e+10
-3.96695e+10
-3.97832e+10
-3.98466e+10
-3.98306e+10
-3.96102e+10
-3.90576e+10
-3.82406e+10
-3.74006e+10
-3.67077e+10
-3.62029e+10
-3.58757e+10
-3.56867e+10
-3.55928e+10
-3.55579e+10
-3.5555e+10
-3.5566e+10
-3.55808e+10
-3.55954e+10
-3.56102e+10
-3.56277e+10
-3.56498e+10
-3.56747e+10
-3.56924e+10
-3.56786e+10
-3.55861e+10
-3.53491e+10
-3.49388e+10
-3.44953e+10
-3.44146e+10
-3.504e+10
-3.57431e+10
-3.44473e+10
-3.0177e+10
-2.85222e+10
-4.00889e+10
-5.83973e+10
-3.31897e+10
-3.74046e+10
-3.74235e+10
-3.74411e+10
-3.74722e+10
-3.75176e+10
-3.75793e+10
-3.76565e+10
-3.77501e+10
-3.78613e+10
-3.7992e+10
-3.81446e+10
-3.83216e+10
-3.85236e+10
-3.87487e+10
-3.89896e+10
-3.92303e+10
-3.94449e+10
-3.96071e+10
-3.97109e+10
-3.97695e+10
-3.97573e+10
-3.95548e+10
-3.90331e+10
-3.82451e+10
-3.74176e+10
-3.67195e+10
-3.6198e+10
-3.5848e+10
-3.56336e+10
-3.55145e+10
-3.54559e+10
-3.54315e+10
-3.54243e+10
-3.54251e+10
-3.54311e+10
-3.54442e+10
-3.54683e+10
-3.55064e+10
-3.55583e+10
-3.56163e+10
-3.56583e+10
-3.56393e+10
-3.54949e+10
-3.51954e+10
-3.48765e+10
-3.49293e+10
-3.56942e+10
-3.65368e+10
-3.53168e+10
-3.07992e+10
-2.81913e+10
-3.86173e+10
-5.75185e+10
-3.35816e+10
-3.72835e+10
-3.72922e+10
-3.73103e+10
-3.73374e+10
-3.73782e+10
-3.74337e+10
-3.75045e+10
-3.75914e+10
-3.76965e+10
-3.78238e+10
-3.79805e+10
-3.81757e+10
-3.84182e+10
-3.87128e+10
-3.90559e+10
-3.94286e+10
-3.97911e+10
-4.00932e+10
-4.03079e+10
-4.04573e+10
-4.05498e+10
-4.04202e+10
-3.97621e+10
-3.85636e+10
-3.72794e+10
-3.63269e+10
-3.57289e+10
-3.54032e+10
-3.52576e+10
-3.52209e+10
-3.52439e+10
-3.52941e+10
-3.53518e+10
-3.54076e+10
-3.54596e+10
-3.55111e+10
-3.55674e+10
-3.56333e+10
-3.57103e+10
-3.57928e+10
-3.58606e+10
-3.58712e+10
-3.57625e+10
-3.551e+10
-3.52577e+10
-3.54031e+10
-3.62803e+10
-3.72349e+10
-3.61337e+10
-3.18648e+10
-2.97865e+10
-4.04421e+10
-5.71409e+10
-2.92542e+10
-3.73028e+10
-3.73129e+10
-3.73297e+10
-3.73566e+10
-3.73977e+10
-3.74536e+10
-3.75239e+10
-3.76099e+10
-3.7713e+10
-3.78369e+10
-3.79879e+10
-3.81747e+10
-3.84053e+10
-3.86845e+10
-3.90088e+10
-3.93605e+10
-3.97018e+10
-3.99837e+10
-4.01806e+10
-4.03184e+10
-4.04123e+10
-4.03102e+10
-3.97106e+10
-3.85706e+10
-3.7318e+10
-3.63663e+10
-3.57493e+10
-3.5399e+10
-3.52283e+10
-3.5168e+10
-3.51695e+10
-3.52005e+10
-3.52421e+10
-3.5285e+10
-3.53282e+10
-3.53759e+10
-3.5434e+10
-3.5507e+10
-3.55956e+10
-3.56935e+10
-3.57798e+10
-3.58112e+10
-3.57252e+10
-3.54964e+10
-3.52701e+10
-3.54517e+10
-3.63952e+10
-3.74726e+10
-3.65667e+10
-3.2577e+10
-3.09942e+10
-4.21806e+10
-5.70986e+10
-2.91998e+10
-3.72283e+10
-3.72377e+10
-3.72547e+10
-3.72835e+10
-3.73277e+10
-3.73908e+10
-3.74749e+10
-3.75817e+10
-3.77134e+10
-3.78754e+10
-3.80774e+10
-3.83324e+10
-3.8653e+10
-3.90449e+10
-3.95006e+10
-3.99908e+10
-4.04566e+10
-4.08211e+10
-4.10425e+10
-4.11872e+10
-4.13946e+10
-4.15443e+10
-4.09443e+10
-3.90872e+10
-3.68771e+10
-3.55764e+10
-3.497e+10
-3.47302e+10
-3.4704e+10
-3.47815e+10
-3.48982e+10
-3.50176e+10
-3.51226e+10
-3.52082e+10
-3.52774e+10
-3.53374e+10
-3.5397e+10
-3.54637e+10
-3.55417e+10
-3.56282e+10
-3.57068e+10
-3.57374e+10
-3.56633e+10
-3.54697e+10
-3.53159e+10
-3.56066e+10
-3.66534e+10
-3.77757e+10
-3.69572e+10
-3.34833e+10
-3.30117e+10
-4.46624e+10
-5.85132e+10
-2.95202e+10
-3.72546e+10
-3.72625e+10
-3.72818e+10
-3.73125e+10
-3.73588e+10
-3.74228e+10
-3.75064e+10
-3.76107e+10
-3.77374e+10
-3.78908e+10
-3.80796e+10
-3.83162e+10
-3.86132e+10
-3.89781e+10
-3.94063e+10
-3.98732e+10
-4.03242e+10
-4.06829e+10
-4.09052e+10
-4.10588e+10
-4.12827e+10
-4.1461e+10
-4.09456e+10
-3.92151e+10
-3.70887e+10
-3.57933e+10
-3.51348e+10
-3.48434e+10
-3.47712e+10
-3.48096e+10
-3.48938e+10
-3.49868e+10
-3.50714e+10
-3.51428e+10
-3.52045e+10
-3.52645e+10
-3.53321e+10
-3.54152e+10
-3.55169e+10
-3.56324e+10
-3.57412e+10
-3.5798e+10
-3.57382e+10
-3.55376e+10
-3.53465e+10
-3.55663e+10
-3.65149e+10
-3.75218e+10
-3.65729e+10
-3.29563e+10
-3.23984e+10
-4.43814e+10
-5.96347e+10
-3.39849e+10
-3.71625e+10
-3.71661e+10
-3.71748e+10
-3.7196e+10
-3.72344e+10
-3.72938e+10
-3.73748e+10
-3.7475e+10
-3.75905e+10
-3.7721e+10
-3.78747e+10
-3.80711e+10
-3.83378e+10
-3.87002e+10
-3.91679e+10
-3.97211e+10
-4.02952e+10
-4.07895e+10
-4.11523e+10
-4.15105e+10
-4.22077e+10
-4.32537e+10
-4.32692e+10
-4.03612e+10
-3.64837e+10
-3.47252e+10
-3.41223e+10
-3.40178e+10
-3.41757e+10
-3.44073e+10
-3.46326e+10
-3.48209e+10
-3.49666e+10
-3.5075e+10
-3.51556e+10
-3.52203e+10
-3.52806e+10
-3.53465e+10
-3.54222e+10
-3.55032e+10
-3.5569e+10
-3.55743e+10
-3.54571e+10
-3.52015e+10
-3.49696e+10
-3.51568e+10
-3.6026e+10
-3.68432e+10
-3.57154e+10
-3.23638e+10
-3.27761e+10
-4.57917e+10
-6.16236e+10
-3.48695e+10
-3.71938e+10
-3.71933e+10
-3.72041e+10
-3.72254e+10
-3.72634e+10
-3.73211e+10
-3.73992e+10
-3.74948e+10
-3.76042e+10
-3.77271e+10
-3.78717e+10
-3.80574e+10
-3.83122e+10
-3.8663e+10
-3.91234e+10
-3.96779e+10
-4.02643e+10
-4.07783e+10
-4.11466e+10
-4.1475e+10
-4.21018e+10
-4.30516e+10
-4.31335e+10
-4.05806e+10
-3.67418e+10
-3.49651e+10
-3.43027e+10
-3.41656e+10
-3.42932e+10
-3.44986e+10
-3.47036e+10
-3.48777e+10
-3.50148e+10
-3.51191e+10
-3.52002e+10
-3.52704e+10
-3.53425e+10
-3.54272e+10
-3.55299e+10
-3.56461e+10
-3.57543e+10
-3.58069e+10
-3.57375e+10
-3.55243e+10
-3.53209e+10
-3.55148e+10
-3.63624e+10
-3.71051e+10
-3.5718e+10
-3.15014e+10
-2.99258e+10
-4.16973e+10
-6.29755e+10
-4.35723e+10
-3.70395e+10
-3.70458e+10
-3.70453e+10
-3.70584e+10
-3.70909e+10
-3.71462e+10
-3.72214e+10
-3.73079e+10
-3.73964e+10
-3.74855e+10
-3.75948e+10
-3.77732e+10
-3.80927e+10
-3.86207e+10
-3.93834e+10
-4.03411e+10
-4.13748e+10
-4.23342e+10
-4.31997e+10
-4.41774e+10
-4.56773e+10
-4.76333e+10
-4.81853e+10
-4.38188e+10
-3.72625e+10
-3.291e+10
-3.26558e+10
-3.31346e+10
-3.36777e+10
-3.41244e+10
-3.44654e+10
-3.47178e+10
-3.49016e+10
-3.50337e+10
-3.51311e+10
-3.52106e+10
-3.52886e+10
-3.53779e+10
-3.54851e+10
-3.56066e+10
-3.57212e+10
-3.57824e+10
-3.57266e+10
-3.55379e+10
-3.53775e+10
-3.56271e+10
-3.65065e+10
-3.72247e+10
-3.58989e+10
-3.24104e+10
-3.28283e+10
-4.545e+10
-5.93622e+10
-3.00214e+10
-3.70421e+10
-3.70456e+10
-3.70443e+10
-3.70547e+10
-3.70841e+10
-3.71364e+10
-3.7209e+10
-3.7294e+10
-3.73831e+10
-3.74759e+10
-3.75926e+10
-3.77803e+10
-3.81072e+10
-3.86378e+10
-3.94029e+10
-4.03678e+10
-4.1405e+10
-4.23349e+10
-4.30445e+10
-4.36724e+10
-4.47892e+10
-4.65293e+10
-4.73297e+10
-4.4406e+10
-3.82055e+10
-3.27736e+10
-3.25376e+10
-3.30671e+10
-3.36473e+10
-3.41138e+10
-3.44661e+10
-3.47269e+10
-3.49187e+10
-3.50595e+10
-3.51664e+10
-3.52562e+10
-3.53447e+10
-3.54446e+10
-3.55629e+10
-3.56965e+10
-3.58252e+10
-3.59043e+10
-3.5872e+10
-3.57147e+10
-3.55956e+10
-3.58985e+10
-3.68335e+10
-3.75417e+10
-3.59354e+10
-3.15485e+10
-3.05555e+10
-4.32874e+10
-6.1766e+10
-3.6453e+10
-3.69917e+10
-3.70096e+10
-3.7006e+10
-3.70184e+10
-3.70501e+10
-3.71044e+10
-3.71756e+10
-3.7252e+10
-3.7323e+10
-3.73903e+10
-3.7486e+10
-3.7683e+10
-3.80784e+10
-3.87409e+10
-3.9665e+10
-4.07454e+10
-4.18281e+10
-4.28113e+10
-4.37252e+10
-4.48017e+10
-4.63288e+10
-4.8188e+10
-4.93132e+10
-4.73204e+10
-4.08652e+10
-2.66742e+10
-2.93896e+10
-3.1567e+10
-3.28188e+10
-3.35773e+10
-3.40646e+10
-3.4387e+10
-3.4602e+10
-3.47447e+10
-3.48408e+10
-3.49116e+10
-3.49748e+10
-3.50441e+10
-3.51269e+10
-3.52203e+10
-3.53051e+10
-3.53385e+10
-3.52626e+10
-3.50683e+10
-3.49207e+10
-3.51973e+10
-3.61e+10
-3.67975e+10
-3.53361e+10
-3.14689e+10
-3.11726e+10
-4.35516e+10
-6.02051e+10
-3.5445e+10
-3.69729e+10
-3.69953e+10
-3.69885e+10
-3.69982e+10
-3.70283e+10
-3.7083e+10
-3.71571e+10
-3.72401e+10
-3.7322e+10
-3.7406e+10
-3.75234e+10
-3.77409e+10
-3.81434e+10
-3.87975e+10
-3.97109e+10
-4.08e+10
-4.19031e+10
-4.28404e+10
-4.35488e+10
-4.42443e+10
-4.56234e+10
-4.79486e+10
-4.9157e+10
-4.76603e+10
-4.47033e+10
-2.67274e+10
-2.9194e+10
-3.14332e+10
-3.27371e+10
-3.35316e+10
-3.40453e+10
-3.43892e+10
-3.46243e+10
-3.47873e+10
-3.49043e+10
-3.49959e+10
-3.50789e+10
-3.51652e+10
-3.52605e+10
-3.53604e+10
-3.54449e+10
-3.54709e+10
-3.53818e+10
-3.51706e+10
-3.50075e+10
-3.5278e+10
-3.6175e+10
-3.6783e+10
-3.50297e+10
-3.11091e+10
-3.27648e+10
-4.8905e+10
-6.25478e+10
-3.03641e+10
-3.69691e+10
-3.69713e+10
-3.69669e+10
-3.69743e+10
-3.70022e+10
-3.70532e+10
-3.71216e+10
-3.71952e+10
-3.72635e+10
-3.73285e+10
-3.74224e+10
-3.76217e+10
-3.80227e+10
-3.86922e+10
-3.96212e+10
-4.07045e+10
-4.18097e+10
-4.28128e+10
-4.37302e+10
-4.48632e+10
-4.65667e+10
-4.8358e+10
-4.7941e+10
-4.28338e+10
-2.05703e+10
-2.90036e+10
-3.12676e+10
-3.2606e+10
-3.34313e+10
-3.3965e+10
-3.43216e+10
-3.45634e+10
-3.47285e+10
-3.48433e+10
-3.49283e+10
-3.49994e+10
-3.50675e+10
-3.51368e+10
-3.52018e+10
-3.52423e+10
-3.52173e+10
-3.50735e+10
-3.4806e+10
-3.45775e+10
-3.47605e+10
-3.55695e+10
-3.62247e+10
-3.48288e+10
-3.11009e+10
-3.07736e+10
-4.25951e+10
-5.93287e+10
-3.57204e+10
-3.6959e+10
-3.69697e+10
-3.69613e+10
-3.69691e+10
-3.69979e+10
-3.70517e+10
-3.71251e+10
-3.72066e+10
-3.72855e+10
-3.73644e+10
-3.74754e+10
-3.76884e+10
-3.80933e+10
-3.87575e+10
-3.96803e+10
-4.07737e+10
-4.18848e+10
-4.28075e+10
-4.3518e+10
-4.43134e+10
-4.56818e+10
-4.78607e+10
-4.96326e+10
-4.87178e+10
-2.11321e+10
-2.89469e+10
-3.12056e+10
-3.25649e+10
-3.34104e+10
-3.3958e+10
-3.43238e+10
-3.45727e+10
-3.4744e+10
-3.48646e+10
-3.49553e+10
-3.50325e+10
-3.51069e+10
-3.51823e+10
-3.52527e+10
-3.52974e+10
-3.52745e+10
-3.51304e+10
-3.48592e+10
-3.4625e+10
-3.48044e+10
-3.56046e+10
-3.61912e+10
-3.46314e+10
-3.10746e+10
-3.25375e+10
-4.72678e+10
-6.12048e+10
-3.05584e+10
-3.70154e+10
-3.70076e+10
-3.70145e+10
-3.70269e+10
-3.70598e+10
-3.71142e+10
-3.7186e+10
-3.72645e+10
-3.73396e+10
-3.74106e+10
-3.75022e+10
-3.76793e+10
-3.80336e+10
-3.86382e+10
-3.95029e+10
-4.05364e+10
-4.15969e+10
-4.25428e+10
-4.33403e+10
-4.41851e+10
-4.5358e+10
-4.69225e+10
-4.81794e+10
-4.66137e+10
-3.57366e+10
-3.16138e+10
-3.1635e+10
-3.23827e+10
-3.31203e+10
-3.36855e+10
-3.4095e+10
-3.43874e+10
-3.45946e+10
-3.47406e+10
-3.48452e+10
-3.4925e+10
-3.49939e+10
-3.50619e+10
-3.51328e+10
-3.52015e+10
-3.52496e+10
-3.52401e+10
-3.51249e+10
-3.48993e+10
-3.47159e+10
-3.49299e+10
-3.57641e+10
-3.65141e+10
-3.54212e+10
-3.23693e+10
-3.33407e+10
-4.62534e+10
-5.91438e+10
-3.00347e+10
-3.70264e+10
-3.70295e+10
-3.70314e+10
-3.70454e+10
-3.70803e+10
-3.71393e+10
-3.72184e+10
-3.73072e+10
-3.7395e+10
-3.74805e+10
-3.75861e+10
-3.77675e+10
-3.81021e+10
-3.86567e+10
-3.9447e+10
-4.04016e+10
-4.13784e+10
-4.2228e+10
-4.29503e+10
-4.38632e+10
-4.5168e+10
-4.68158e+10
-4.742e+10
-4.59093e+10
-3.67639e+10
-3.14243e+10
-3.14359e+10
-3.22493e+10
-3.30438e+10
-3.36423e+10
-3.40676e+10
-3.43647e+10
-3.45695e+10
-3.47084e+10
-3.48026e+10
-3.48694e+10
-3.49236e+10
-3.49756e+10
-3.50298e+10
-3.50814e+10
-3.51125e+10
-3.50858e+10
-3.49532e+10
-3.47101e+10
-3.45091e+10
-3.47056e+10
-3.55229e+10
-3.62498e+10
-3.50527e+10
-3.15474e+10
-3.14483e+10
-4.3941e+10
-6.09681e+10
-3.72386e+10
-3.71389e+10
-3.71394e+10
-3.71464e+10
-3.71657e+10
-3.72049e+10
-3.72678e+10
-3.73531e+10
-3.74551e+10
-3.75668e+10
-3.76858e+10
-3.78232e+10
-3.80098e+10
-3.82914e+10
-3.87086e+10
-3.92721e+10
-3.99393e+10
-4.06192e+10
-4.11948e+10
-4.15859e+10
-4.18574e+10
-4.2255e+10
-4.2943e+10
-4.29785e+10
-3.99424e+10
-3.63216e+10
-3.44642e+10
-3.37591e+10
-3.36197e+10
-3.37732e+10
-3.40041e+10
-3.4228e+10
-3.44119e+10
-3.455e+10
-3.46468e+10
-3.47119e+10
-3.47572e+10
-3.47947e+10
-3.48342e+10
-3.48805e+10
-3.49307e+10
-3.49692e+10
-3.49623e+10
-3.48647e+10
-3.46703e+10
-3.45185e+10
-3.47417e+10
-3.55549e+10
-3.62901e+10
-3.52217e+10
-3.21062e+10
-3.25697e+10
-4.49817e+10
-6.02732e+10
-3.2857e+10
-3.7144e+10
-3.71453e+10
-3.71508e+10
-3.71689e+10
-3.72062e+10
-3.72669e+10
-3.73499e+10
-3.74501e+10
-3.75611e+10
-3.76813e+10
-3.7822e+10
-3.80119e+10
-3.82916e+10
-3.86966e+10
-3.92344e+10
-3.98628e+10
-4.04867e+10
-4.09923e+10
-4.13422e+10
-4.16847e+10
-4.22753e+10
-4.31068e+10
-4.30088e+10
-4.01332e+10
-3.63692e+10
-3.44033e+10
-3.36745e+10
-3.35514e+10
-3.37282e+10
-3.39751e+10
-3.42073e+10
-3.43933e+10
-3.4529e+10
-3.462e+10
-3.46764e+10
-3.47107e+10
-3.4735e+10
-3.47595e+10
-3.47891e+10
-3.4821e+10
-3.48401e+10
-3.48136e+10
-3.4698e+10
-3.44896e+10
-3.43304e+10
-3.45577e+10
-3.54011e+10
-3.62129e+10
-3.51662e+10
-3.14774e+10
-3.00235e+10
-4.08632e+10
-6.08896e+10
-4.17262e+10
-3.72171e+10
-3.72196e+10
-3.72301e+10
-3.72522e+10
-3.72917e+10
-3.73527e+10
-3.74376e+10
-3.75466e+10
-3.76797e+10
-3.78399e+10
-3.80361e+10
-3.82843e+10
-3.86029e+10
-3.90036e+10
-3.94792e+10
-3.99946e+10
-4.04858e+10
-4.08758e+10
-4.11162e+10
-4.12311e+10
-4.13096e+10
-4.12655e+10
-4.04836e+10
-3.85002e+10
-3.63171e+10
-3.50336e+10
-3.44315e+10
-3.42123e+10
-3.42265e+10
-3.43458e+10
-3.44961e+10
-3.46369e+10
-3.47522e+10
-3.48395e+10
-3.49042e+10
-3.49557e+10
-3.50043e+10
-3.5058e+10
-3.51203e+10
-3.5187e+10
-3.52413e+10
-3.5248e+10
-3.51592e+10
-3.49643e+10
-3.47962e+10
-3.49799e+10
-3.57235e+10
-3.63542e+10
-3.51379e+10
-3.18331e+10
-3.21326e+10
-4.43781e+10
-5.85141e+10
-3.04464e+10
-3.72248e+10
-3.72279e+10
-3.72385e+10
-3.72604e+10
-3.72991e+10
-3.73581e+10
-3.74394e+10
-3.75431e+10
-3.76695e+10
-3.7822e+10
-3.80105e+10
-3.82519e+10
-3.85656e+10
-3.89642e+10
-3.94418e+10
-3.9963e+10
-4.04615e+10
-4.08593e+10
-4.11145e+10
-4.12723e+10
-4.14283e+10
-4.14479e+10
-4.06736e+10
-3.86476e+10
-3.63828e+10
-3.50561e+10
-3.44443e+10
-3.42264e+10
-3.42423e+10
-3.43597e+10
-3.45043e+10
-3.46366e+10
-3.47409e+10
-3.48153e+10
-3.48653e+10
-3.49001e+10
-3.49301e+10
-3.49636e+10
-3.50044e+10
-3.50488e+10
-3.50808e+10
-3.50664e+10
-3.49602e+10
-3.47544e+10
-3.45849e+10
-3.47807e+10
-3.55594e+10
-3.62416e+10
-3.4995e+10
-3.14119e+10
-3.14876e+10
-4.4731e+10
-6.04444e+10
-3.24279e+10
-3.73218e+10
-3.73236e+10
-3.73377e+10
-3.73597e+10
-3.73943e+10
-3.74436e+10
-3.75095e+10
-3.75939e+10
-3.76992e+10
-3.78307e+10
-3.79969e+10
-3.82094e+10
-3.84787e+10
-3.88089e+10
-3.91914e+10
-3.95993e+10
-3.99876e+10
-4.0305e+10
-4.05217e+10
-4.06475e+10
-4.06783e+10
-4.04404e+10
-3.96075e+10
-3.82064e+10
-3.67741e+10
-3.57542e+10
-3.51499e+10
-3.48387e+10
-3.47125e+10
-3.46889e+10
-3.47136e+10
-3.47529e+10
-3.4789e+10
-3.4816e+10
-3.48356e+10
-3.4854e+10
-3.48792e+10
-3.49169e+10
-3.49681e+10
-3.50249e+10
-3.50657e+10
-3.50493e+10
-3.49221e+10
-3.4671e+10
-3.44338e+10
-3.45469e+10
-3.52166e+10
-3.571e+10
-3.41406e+10
-3.00237e+10
-2.89449e+10
-4.06467e+10
-5.93468e+10
-3.87864e+10
-3.7331e+10
-3.73388e+10
-3.73544e+10
-3.73792e+10
-3.74163e+10
-3.74675e+10
-3.75345e+10
-3.76183e+10
-3.77211e+10
-3.78472e+10
-3.80046e+10
-3.82046e+10
-3.8458e+10
-3.87705e+10
-3.91361e+10
-3.95314e+10
-3.99133e+10
-4.02311e+10
-4.04569e+10
-4.06051e+10
-4.06693e+10
-4.04682e+10
-3.96762e+10
-3.83002e+10
-3.687e+10
-3.5849e+10
-3.52453e+10
-3.49329e+10
-3.48028e+10
-3.47727e+10
-3.47891e+10
-3.4819e+10
-3.48448e+10
-3.48605e+10
-3.48676e+10
-3.48724e+10
-3.48831e+10
-3.49062e+10
-3.49441e+10
-3.49911e+10
-3.50294e+10
-3.50221e+10
-3.49204e+10
-3.47143e+10
-3.45435e+10
-3.47453e+10
-3.55133e+10
-3.60454e+10
-3.43681e+10
-3.04012e+10
-3.12777e+10
-4.64513e+10
-6.13607e+10
-3.03337e+10
-3.7441e+10
-3.74498e+10
-3.74704e+10
-3.75001e+10
-3.75414e+10
-3.7595e+10
-3.76619e+10
-3.77429e+10
-3.78395e+10
-3.79547e+10
-3.80933e+10
-3.82603e+10
-3.84595e+10
-3.86901e+10
-3.89439e+10
-3.92022e+10
-3.94357e+10
-3.96147e+10
-3.97273e+10
-3.97798e+10
-3.97449e+10
-3.94971e+10
-3.88965e+10
-3.80125e+10
-3.71011e+10
-3.63529e+10
-3.58163e+10
-3.54697e+10
-3.52639e+10
-3.515e+10
-3.50899e+10
-3.50567e+10
-3.50344e+10
-3.50157e+10
-3.50012e+10
-3.49962e+10
-3.50074e+10
-3.50405e+10
-3.50964e+10
-3.51671e+10
-3.52304e+10
-3.5244e+10
-3.51538e+10
-3.4951e+10
-3.4788e+10
-3.50241e+10
-3.58744e+10
-3.65605e+10
-3.50527e+10
-3.06221e+10
-2.86689e+10
-3.93085e+10
-5.78744e+10
-3.69185e+10
-3.7438e+10
-3.74522e+10
-3.74714e+10
-3.75016e+10
-3.75437e+10
-3.75989e+10
-3.76681e+10
-3.77519e+10
-3.78514e+10
-3.79692e+10
-3.81089e+10
-3.82749e+10
-3.847e+10
-3.86932e+10
-3.89364e+10
-3.9182e+10
-3.94026e+10
-3.95708e+10
-3.96749e+10
-3.97212e+10
-3.96837e+10
-3.94429e+10
-3.88673e+10
-3.80172e+10
-3.7133e+10
-3.64009e+10
-3.58708e+10
-3.55236e+10
-3.5313e+10
-3.51922e+10
-3.51239e+10
-3.50817e+10
-3.50493e+10
-3.50193e+10
-3.49918e+10
-3.49718e+10
-3.49665e+10
-3.49817e+10
-3.50198e+10
-3.50752e+10
-3.51297e+10
-3.51457e+10
-3.50737e+10
-3.49073e+10
-3.48002e+10
-3.51108e+10
-3.60283e+10
-3.66706e+10