/*--------------------------------*- C++ -*----------------------------------*\
| =========                 |                                                 |
| \\      /  F ield         | OpenFOAM: The Open Source CFD Toolbox           |
|  \\    /   O peration     | Version:  4.1                                   |
|   \\  /    A nd           | Web:      www.OpenFOAM.org                      |
|    \\/     M anipulation  |                                                 |
\*---------------------------------------------------------------------------*/
FoamFile
{
    version     2.0;
    format      ascii;
    class       surfaceScalarField;
    location    "90";
    object      phi;
}
// * * * * * * * * * * * * * * * * * * * * * * * * * * * * * * * * * * * * * //

dimensions      [0 3 -1 0 0 0 0];

internalField   nonuniform List<scalar> 
11516
(
-3.7424e+10
261383
3.52849e+08
-3.77084e+10
-2.80829e+07
3.25915e+08
-3.79966e+10
-1.91398e+07
3.20571e+08
-3.82711e+10
-2.4694e+07
3.12398e+08
-3.8547e+10
-2.09243e+07
3.1004e+08
-3.88246e+10
-1.83978e+07
3.09542e+08
-3.9101e+10
-1.62679e+07
3.06495e+08
-3.93753e+10
-1.3536e+07
3.02018e+08
-3.96442e+10
-1.07643e+07
2.94231e+08
-3.99022e+10
-7.89746e+06
2.80983e+08
-4.01428e+10
-4.92191e+06
2.61288e+08
-4.03605e+10
-1.86094e+06
2.36456e+08
-4.05447e+10
1.26166e+06
2.01888e+08
-4.06881e+10
4.46497e+06
1.61285e+08
-4.07802e+10
7.70685e+06
1.11017e+08
-4.08121e+10
1.09463e+07
5.22329e+07
-4.0778e+10
1.3526e+07
-1.3579e+07
-4.06694e+10
1.50237e+07
-8.79911e+07
-4.04839e+10
1.56478e+07
-1.64242e+08
-4.02169e+10
1.55587e+07
-2.44068e+08
-3.98655e+10
1.47285e+07
-3.25282e+08
-3.94351e+10
1.31118e+07
-4.01641e+08
-3.89295e+10
1.09662e+07
-4.74798e+08
-3.83618e+10
8.54406e+06
-5.34959e+08
-3.77401e+10
6.14589e+06
-5.86181e+08
-3.70797e+10
4.13281e+06
-6.20959e+08
-3.63897e+10
2.63649e+06
-6.4565e+08
-3.56857e+10
1.81781e+06
-6.54634e+08
-3.4977e+10
1.70746e+06
-6.54447e+08
-3.42749e+10
2.4014e+06
-6.43595e+08
-3.3589e+10
3.97566e+06
-6.23777e+08
-3.29241e+10
6.35537e+06
-5.99955e+08
-3.22863e+10
9.26184e+06
-5.69711e+08
-3.1677e+10
1.26025e+07
-5.37835e+08
-3.10969e+10
1.68609e+07
-5.04695e+08
-3.05469e+10
2.234e+07
-4.70446e+08
-3.00225e+10
2.93102e+07
-4.3989e+08
-2.95212e+10
3.8464e+07
-4.11471e+08
-2.90324e+10
4.79381e+07
-3.91033e+08
-2.85422e+10
5.70967e+07
-3.8017e+08
-2.80384e+10
6.77516e+07
-3.77854e+08
-2.75063e+10
8.12655e+07
-3.86796e+08
-2.69328e+10
1.00077e+08
-4.06958e+08
-2.63156e+10
1.27304e+08
-4.30941e+08
-2.5678e+10
1.6687e+08
-4.40469e+08
-2.50779e+10
2.29705e+08
-4.25355e+08
-2.45815e+10
3.417e+08
-4.22863e+08
-2.42075e+10
5.04308e+08
-4.94393e+08
-2.39221e+10
6.31645e+08
-6.31922e+08
-2.38116e+10
6.16175e+08
-3.5969e+08
-2.48993e+10
1.01831e+09
4.45427e+08
-2.93461e+10
3.7347e+09
1.30302e+09
-3.23865e+10
1.03543e+10
-7.04632e+09
4.58407e+09
-1.19598e+10
-4.66517e+10
3.63033e+08
-4.70273e+10
3.54906e+08
-4.73769e+10
3.37978e+08
-4.7727e+10
3.32924e+08
-4.80656e+10
3.25249e+08
-4.83968e+10
3.20491e+08
-4.8719e+10
3.13846e+08
-4.90301e+10
3.05634e+08
-4.9327e+10
2.9449e+08
-4.96046e+10
2.78291e+08
-4.98567e+10
2.56149e+08
-5.00787e+10
2.29948e+08
-5.02608e+10
1.94382e+08
-5.03974e+10
1.54093e+08
-5.04793e+10
1.05025e+08
-5.04997e+10
4.88104e+07
-5.04557e+10
-1.16685e+07
-5.03431e+10
-7.7986e+07
-5.01634e+10
-1.43931e+08
-4.99136e+10
-2.13009e+08
-4.95929e+10
-2.83963e+08
-4.92076e+10
-3.4976e+08
-4.87614e+10
-4.13043e+08
-4.82677e+10
-4.63218e+08
-4.77335e+10
-5.06025e+08
-4.71737e+10
-5.32886e+08
-4.65954e+10
-5.51574e+08
-4.60124e+10
-5.55209e+08
-4.54316e+10
-5.51388e+08
-4.48617e+10
-5.37791e+08
-4.431e+10
-5.16071e+08
-4.37785e+10
-4.91499e+08
-4.32728e+10
-4.60525e+08
-4.27933e+10
-4.28328e+08
-4.23392e+10
-3.95383e+08
-4.19087e+10
-3.62014e+08
-4.1495e+10
-3.33198e+08
-4.10936e+10
-3.05136e+08
-4.06948e+10
-2.85104e+08
-4.02899e+10
-2.71878e+08
-3.98669e+10
-2.66694e+08
-3.94082e+10
-2.73051e+08
-3.8894e+10
-2.90807e+08
-3.83082e+10
-3.13176e+08
-3.76501e+10
-3.23671e+08
-3.69251e+10
-3.13949e+08
-3.60802e+10
-3.23032e+08
-3.50162e+10
-4.09561e+08
-3.38301e+10
-4.48527e+08
-3.34651e+10
3.71535e+08
-3.47499e+10
2.47688e+09
-3.38608e+10
2.9713e+09
-1.25089e+10
-1.0949e+10
-1.30207e+10
-6.6659e+10
1.22052e+08
3.29509e+08
-6.677e+10
1.18935e+08
3.25476e+08
-6.68844e+10
1.19916e+08
3.22728e+08
-6.70061e+10
1.2144e+08
3.20463e+08
-6.71292e+10
1.22263e+08
3.18843e+08
-6.72551e+10
1.23894e+08
3.19722e+08
-6.73841e+10
1.25643e+08
3.18063e+08
-6.75154e+10
1.27547e+08
3.1423e+08
-6.76448e+10
1.2941e+08
3.02791e+08
-6.7773e+10
1.31326e+08
2.8662e+08
-6.78976e+10
1.33215e+08
2.61789e+08
-6.80146e+10
1.35103e+08
2.28139e+08
-6.81223e+10
1.36929e+08
1.83462e+08
-6.82161e+10
1.38692e+08
1.28704e+08
-6.82921e+10
1.40302e+08
6.15187e+07
-6.83497e+10
1.41711e+08
-1.47e+07
-6.83893e+10
1.43285e+08
-9.85296e+07
-6.84172e+10
1.454e+08
-1.85886e+08
-6.84331e+10
1.47631e+08
-2.76232e+08
-6.84376e+10
1.49626e+08
-3.68739e+08
-6.84325e+10
1.50885e+08
-4.59952e+08
-6.84194e+10
1.5152e+08
-5.44387e+08
-6.84055e+10
1.52009e+08
-6.19265e+08
-6.83917e+10
1.52407e+08
-6.80898e+08
-6.83888e+10
1.52629e+08
-7.22836e+08
-6.83949e+10
1.52685e+08
-7.49566e+08
-6.84179e+10
1.52327e+08
-7.57142e+08
-6.84559e+10
1.51346e+08
-7.50075e+08
-6.85141e+10
1.49379e+08
-7.27672e+08
-6.859e+10
1.46159e+08
-6.95914e+08
-6.86852e+10
1.41356e+08
-6.52283e+08
-6.88008e+10
1.34662e+08
-6.01872e+08
-6.89351e+10
1.25799e+08
-5.44654e+08
-6.90913e+10
1.14773e+08
-4.8021e+08
-6.92699e+10
1.01652e+08
-4.11717e+08
-6.94731e+10
8.61695e+07
-3.36945e+08
-6.97053e+10
6.84813e+07
-2.58589e+08
-6.99709e+10
4.86783e+07
-1.7483e+08
-7.02826e+10
2.74562e+07
-8.38452e+07
-7.06598e+10
4.86529e+06
2.0068e+07
-7.11173e+10
-2.00237e+07
1.34709e+08
-7.16727e+10
-4.7838e+07
2.61838e+08
-7.23407e+10
-7.80521e+07
3.98715e+08
-7.31375e+10
-1.08653e+08
5.53114e+08
-7.40791e+10
-1.3577e+08
7.38136e+08
-7.52033e+10
-1.51596e+08
9.70629e+08
-7.66099e+10
-1.46928e+08
1.24864e+09
-7.8403e+10
-1.28717e+08
1.50434e+09
-8.0612e+10
-9.92892e+07
1.68486e+09
-8.28513e+10
6.06225e+07
1.74292e+09
-8.58718e+10
1.31819e+09
2.05364e+09
-8.9712e+10
4.2307e+09
8.025e+08
-1.07447e+11
9.46707e+09
1.07483e+09
-3.05744e+08
-4.40504e+07
-7.75693e+10
5.79372e+08
-7.76752e+10
5.84267e+08
-7.77838e+10
5.71222e+08
-7.78949e+10
5.7019e+08
-7.80084e+10
5.65805e+08
-7.81226e+10
5.63541e+08
-7.82378e+10
5.59699e+08
-7.83537e+10
5.54205e+08
-7.84658e+10
5.41211e+08
-7.85754e+10
5.2462e+08
-7.86807e+10
5.00268e+08
-7.87779e+10
4.68345e+08
-7.88664e+10
4.26573e+08
-7.8942e+10
3.76155e+08
-7.90014e+10
3.13877e+08
-7.90432e+10
2.42783e+08
-7.90615e+10
1.61221e+08
-7.9055e+10
7.28106e+07
-7.90202e+10
-1.89759e+07
-7.89597e+10
-1.11396e+08
-7.88798e+10
-1.99895e+08
-7.87844e+10
-2.80185e+08
-7.86804e+10
-3.51827e+08
-7.8567e+10
-4.11605e+08
-7.84558e+10
-4.52737e+08
-7.83442e+10
-4.80407e+08
-7.82423e+10
-4.89956e+08
-7.81487e+10
-4.86051e+08
-7.80718e+10
-4.67468e+08
-7.80115e+10
-4.40531e+08
-7.79731e+10
-4.01911e+08
-7.79618e+10
-3.57097e+08
-7.79801e+10
-3.05665e+08
-7.80362e+10
-2.46871e+08
-7.81353e+10
-1.83924e+08
-7.82867e+10
-1.13435e+08
-7.85021e+10
-3.73916e+07
-7.87912e+10
4.59936e+07
-7.91685e+10
1.35219e+08
-7.96495e+10
2.32961e+08
-8.02507e+10
3.38168e+08
-8.09974e+10
4.56479e+08
-8.19116e+10
5.85541e+08
-8.30127e+10
7.31984e+08
-8.43119e+10
9.06183e+08
-8.58206e+10
1.11902e+09
-8.75916e+10
1.37031e+09
-8.96967e+10
1.60788e+09
-9.19856e+10
1.73593e+09
-9.3017e+10
1.41568e+09
-8.93952e+10
9.2982e+07
-7.95458e+10
-2.72737e+09
-8.38868e+10
2.71278e+09
8.07234e+09
-5.60259e+10
2.73473e+07
2.12295e+08
-5.59452e+10
3.77277e+07
2.1413e+08
-5.58783e+10
3.24854e+07
2.30677e+08
-5.58277e+10
3.42206e+07
2.43009e+08
-5.57848e+10
3.16739e+07
2.51784e+08
-5.57468e+10
2.99104e+07
2.59397e+08
-5.57157e+10
2.79042e+07
2.66658e+08
-5.5687e+10
2.55873e+07
2.67513e+08
-5.56649e+10
2.26725e+07
2.65573e+08
-5.56448e+10
1.93429e+07
2.54859e+08
-5.56288e+10
1.54184e+07
2.38483e+08
-5.56159e+10
1.09287e+07
2.13017e+08
-5.56048e+10
5.78439e+06
1.76186e+08
-5.55933e+10
-56734.4
1.2825e+08
-5.55822e+10
-6.86382e+06
7.02929e+07
-5.55631e+10
-1.50651e+07
-3.58503e+06
-5.55257e+10
-2.58158e+07
-9.26765e+07
-5.54586e+10
-3.94018e+07
-1.94997e+08
-5.535e+10
-5.34208e+07
-3.12598e+08
-5.51968e+10
-6.56346e+07
-4.36684e+08
-5.50001e+10
-7.48546e+07
-5.6085e+08
-5.47597e+10
-8.12014e+07
-6.80922e+08
-5.44861e+10
-8.54685e+07
-7.84614e+08
-5.41907e+10
-8.72729e+07
-8.67174e+08
-5.38837e+10
-8.62757e+07
-9.23278e+08
-5.358e+10
-8.21546e+07
-9.51971e+08
-5.32895e+10
-7.50055e+07
-9.53889e+08
-5.30211e+10
-6.51026e+07
-9.34622e+08
-5.278e+10
-5.29852e+07
-8.96926e+08
-5.25726e+10
-3.92162e+07
-8.4535e+08
-5.23957e+10
-2.4446e+07
-7.86281e+08
-5.22516e+10
-9.22014e+06
-7.19166e+08
-5.21339e+10
6.14156e+06
-6.51871e+08
-5.20358e+10
2.1326e+07
-5.84061e+08
-5.19542e+10
3.60395e+07
-5.14778e+08
-5.18786e+10
5.09901e+07
-4.49608e+08
-5.18028e+10
6.76884e+07
-3.88228e+08
-5.17197e+10
8.61775e+07
-3.29834e+08
-5.16166e+10
1.05007e+08
-2.76334e+08
-5.14643e+10
1.2173e+08
-2.3579e+08
-5.12363e+10
1.37112e+08
-2.07675e+08
-5.09043e+10
1.54683e+08
-1.94768e+08
-5.04487e+10
1.76578e+08
-1.92515e+08
-4.98424e+10
2.05456e+08
-2.02681e+08
-4.90536e+10
2.4537e+08
-2.22048e+08
-4.80409e+10
3.04942e+08
-2.59761e+08
-4.67626e+10
3.98897e+08
-3.47593e+08
-4.52397e+10
5.26385e+08
-5.05464e+08
-4.36812e+10
6.915e+08
-6.30453e+08
-4.26352e+10
1.00793e+09
-5.4357e+08
-4.17871e+10
2.07272e+09
-1.32347e+09
-4.15375e+10
4.28121e+09
-4.4072e+09
-4.01578e+10
1.07761e+10
-1.16313e+10
4.49127e+09
-3.94211e+09
-6.60172e+10
4.57765e+08
-6.58369e+10
4.45881e+08
-6.5689e+10
4.60073e+08
-6.55443e+10
4.64096e+08
-6.54097e+10
4.67316e+08
-6.52799e+10
4.68083e+08
-6.51562e+10
4.68256e+08
-6.50335e+10
4.61476e+08
-6.49171e+10
4.51882e+08
-6.48018e+10
4.33145e+08
-6.46902e+10
4.08874e+08
-6.4581e+10
3.75444e+08
-6.44732e+10
3.30502e+08
-6.43646e+10
2.74414e+08
-6.42583e+10
2.09031e+08
-6.41501e+10
1.29116e+08
-6.40411e+10
3.73076e+07
-6.39334e+10
-6.28816e+07
-6.38191e+10
-1.74689e+08
-6.36927e+10
-2.91012e+08
-6.35477e+10
-4.06363e+08
-6.33779e+10
-5.16892e+08
-6.31905e+10
-6.10088e+08
-6.2993e+10
-6.82367e+08
-6.27896e+10
-7.28965e+08
-6.25897e+10
-7.49497e+08
-6.23968e+10
-7.44775e+08
-6.22142e+10
-7.20532e+08
-6.20419e+10
-6.79198e+08
-6.18827e+10
-6.25104e+08
-6.1731e+10
-5.64246e+08
-6.15883e+10
-4.95429e+08
-6.1448e+10
-4.26493e+08
-6.13039e+10
-3.56771e+08
-6.11546e+10
-2.84627e+08
-6.09891e+10
-2.1549e+08
-6.07974e+10
-1.4895e+08
-6.0568e+10
-8.44884e+07
-6.02911e+10
-2.29298e+07
-5.99535e+10
3.24103e+07
-5.95452e+10
8.51712e+07
-5.90413e+10
1.30036e+08
-5.84208e+10
1.71339e+08
-5.76526e+10
2.08165e+08
-5.66989e+10
2.4699e+08
-5.55051e+10
2.84142e+08
-5.39791e+10
2.88626e+08
-5.20753e+10
2.42168e+08
-4.99406e+10
2.33577e+08
-4.80468e+10
3.52745e+08
-4.63585e+10
1.75073e+08
-4.44935e+10
-7.2943e+08
-2.19632e+10
-9.37766e+09
-4.92318e+09
-6.40966e+10
-1.58154e+08
3.87627e+08
-6.41356e+10
-1.64531e+08
4.22804e+08
-6.4174e+10
-1.63821e+08
4.38118e+08
-6.42219e+10
-1.65397e+08
4.61574e+08
-6.42799e+10
-1.6766e+08
4.82519e+08
-6.43478e+10
-1.69717e+08
5.02015e+08
-6.44209e+10
-1.71342e+08
5.15873e+08
-6.45022e+10
-1.72913e+08
5.26237e+08
-6.45888e+10
-1.74601e+08
5.31299e+08
-6.46794e+10
-1.76276e+08
5.26424e+08
-6.47696e+10
-1.78056e+08
5.1176e+08
-6.48538e+10
-1.7993e+08
4.83009e+08
-6.49283e+10
-1.8205e+08
4.39536e+08
-6.49895e+10
-1.84654e+08
3.82027e+08
-6.50268e+10
-1.87777e+08
3.04801e+08
-6.50376e+10
-1.91665e+08
2.10153e+08
-6.502e+10
-1.96584e+08
9.96013e+07
-6.49724e+10
-2.03086e+08
-2.49292e+07
-6.49007e+10
-2.11134e+08
-1.57937e+08
-6.48038e+10
-2.20775e+08
-2.96895e+08
-6.46817e+10
-2.31796e+08
-4.33534e+08
-6.45377e+10
-2.44047e+08
-5.61114e+08
-6.43773e+10
-2.57921e+08
-6.65986e+08
-6.42105e+10
-2.73323e+08
-7.39351e+08
-6.40453e+10
-2.89692e+08
-7.77727e+08
-6.38927e+10
-3.06299e+08
-7.7746e+08
-6.37588e+10
-3.22437e+08
-7.43966e+08
-6.36493e+10
-3.37584e+08
-6.84276e+08
-6.35682e+10
-3.51397e+08
-6.02941e+08
-6.35156e+10
-3.63678e+08
-5.09382e+08
-6.34953e+10
-3.74344e+08
-4.06365e+08
-6.35049e+10
-3.83398e+08
-2.99738e+08
-6.35477e+10
-3.90763e+08
-1.9162e+08
-6.36233e+10
-3.964e+08
-8.52442e+07
-6.37298e+10
-3.99741e+08
1.81178e+07
-6.38735e+10
-3.99825e+08
1.20401e+08
-6.40573e+10
-3.96095e+08
2.18093e+08
-6.42877e+10
-3.88408e+08
3.1535e+08
-6.45731e+10
-3.76695e+08
4.12451e+08
-6.49281e+10
-3.60071e+08
5.06979e+08
-6.53688e+10
-3.38169e+08
6.01144e+08
-6.59096e+10
-3.11736e+08
6.92314e+08
-6.65604e+10
-2.80858e+08
7.81664e+08
-6.73388e+10
-2.44726e+08
8.74641e+08
-6.8263e+10
-2.01703e+08
9.71824e+08
-6.93824e+10
-1.50636e+08
1.08745e+09
-7.08134e+10
-9.71707e+07
1.24568e+09
-7.27083e+10
-7.35413e+07
1.457e+09
-7.51385e+10
-9.61578e+07
1.7201e+09
-7.80538e+10
-7.63184e+07
1.9861e+09
-8.42331e+10
1.30589e+09
2.69527e+09
-9.64803e+10
4.01647e+09
2.82555e+09
-1.26592e+11
1.11452e+10
6.42255e+09
2.01691e+09
-2.53781e+09
-6.2121e+10
3.21299e+08
-6.21666e+10
3.30631e+08
-6.22072e+10
3.40567e+08
-6.22529e+10
3.4803e+08
-6.23045e+10
3.54879e+08
-6.23625e+10
3.59774e+08
-6.24211e+10
3.58978e+08
-6.24834e+10
3.54173e+08
-6.25466e+10
3.43884e+08
-6.26098e+10
3.23594e+08
-6.26688e+10
2.93829e+08
-6.2719e+10
2.50358e+08
-6.27577e+10
1.92518e+08
-6.27825e+10
1.20881e+08
-6.27838e+10
2.98173e+07
-6.27592e+10
-7.85443e+07
-6.27059e+10
-2.0283e+08
-6.26195e+10
-3.41826e+08
-6.25023e+10
-4.92034e+08
-6.23513e+10
-6.51117e+08
-6.21669e+10
-8.09621e+08
-6.19523e+10
-9.6116e+08
-6.1712e+10
-1.09312e+09
-6.14553e+10
-1.19704e+09
-6.11897e+10
-1.26878e+09
-6.09257e+10
-1.30414e+09
-6.06691e+10
-1.30764e+09
-6.04247e+10
-1.28543e+09
-6.01958e+10
-1.24129e+09
-5.99815e+10
-1.18378e+09
-5.97846e+10
-1.11532e+09
-5.96012e+10
-1.0412e+09
-5.94335e+10
-9.63416e+08
-5.92801e+10
-8.84585e+08
-5.91367e+10
-8.05418e+08
-5.90054e+10
-7.23801e+08
-5.88838e+10
-6.43475e+08
-5.87711e+10
-5.619e+08
-5.86673e+10
-4.78747e+08
-5.85722e+10
-3.967e+08
-5.84824e+10
-3.139e+08
-5.83969e+10
-2.3374e+08
-5.8308e+10
-1.57858e+08
-5.82095e+10
-8.48343e+07
-5.80854e+10
-1.84495e+07
-5.79337e+10
4.69591e+07
-5.78128e+10
1.20738e+08
-5.78498e+10
1.98496e+08
-5.80923e+10
2.40189e+08
-5.82574e+10
1.08924e+08
-5.71983e+10
-1.02559e+08
-5.53588e+10
8.23753e+08
-6.2555e+10
8.66361e+09
4.68918e+09
-5.97517e+10
4.19802e+08
-5.31133e+07
-5.97289e+10
4.26437e+08
-2.22907e+07
-5.97204e+10
4.40847e+08
-7.23063e+06
-5.97145e+10
4.52405e+08
7.39075e+06
-5.97147e+10
4.65165e+08
2.15679e+07
-5.97202e+10
4.78369e+08
3.31561e+07
-5.97306e+10
4.92474e+08
3.78141e+07
-5.97463e+10
5.0729e+08
3.88692e+07
-5.97644e+10
5.22858e+08
3.09467e+07
-5.97852e+10
5.39138e+08
1.29437e+07
-5.98075e+10
5.5596e+08
-1.6243e+07
-5.98295e+10
5.73148e+08
-6.12404e+07
-5.98514e+10
5.90495e+08
-1.20972e+08
-5.98666e+10
6.07818e+08
-2.01337e+08
-5.9874e+10
6.25196e+08
-3.02562e+08
-5.98705e+10
6.42565e+08
-4.24057e+08
-5.98504e+10
6.59931e+08
-5.67049e+08
-5.98094e+10
6.77089e+08
-7.28101e+08
-5.97404e+10
6.92567e+08
-9.0376e+08
-5.96368e+10
7.06208e+08
-1.09039e+09
-5.94945e+10
7.19106e+08
-1.27651e+09
-5.93151e+10
7.31256e+08
-1.45096e+09
-5.91064e+10
7.41671e+08
-1.59286e+09
-5.88818e+10
7.49076e+08
-1.68827e+09
-5.86583e+10
7.53666e+08
-1.72879e+09
-5.84489e+10
7.55677e+08
-1.7153e+09
-5.82644e+10
7.55707e+08
-1.65494e+09
-5.81105e+10
7.54368e+08
-1.56049e+09
-5.79887e+10
7.52227e+08
-1.44128e+09
-5.7898e+10
7.49725e+08
-1.31023e+09
-5.78348e+10
7.4733e+08
-1.17319e+09
-5.77946e+10
7.45371e+08
-1.03744e+09
-5.77718e+10
7.44038e+08
-9.06459e+08
-5.77623e+10
7.43325e+08
-7.81986e+08
-5.77602e+10
7.43399e+08
-6.66907e+08
-5.77588e+10
7.44941e+08
-5.60852e+08
-5.77543e+10
7.47611e+08
-4.64032e+08
-5.77345e+10
7.5168e+08
-3.80652e+08
-5.76903e+10
7.57102e+08
-3.0717e+08
-5.76128e+10
7.64824e+08
-2.46073e+08
-5.74898e+10
7.75995e+08
-1.98804e+08
-5.73112e+10
7.91543e+08
-1.65959e+08
-5.70598e+10
8.12114e+08
-1.52735e+08
-5.67161e+10
8.39264e+08
-1.57741e+08
-5.62596e+10
8.7651e+08
-1.86545e+08
-5.56715e+10
9.25141e+08
-2.32245e+08
-5.49286e+10
9.77057e+08
-2.83009e+08
-5.40002e+10
1.00573e+09
-3.33854e+08
-5.29176e+10
1.03102e+09
-3.73252e+08
-5.19415e+10
1.14129e+09
-2.74251e+08
-5.21768e+10
1.81113e+09
9.7665e+08
-5.7403e+10
3.23072e+09
4.66188e+09
-8.08752e+10
1.20907e+10
1.79394e+10
7.48445e+09
8.98418e+09
-5.78298e+10
7.83239e+08
-5.78953e+10
8.24987e+08
-5.79627e+10
8.51192e+08
-5.80386e+10
8.78734e+08
-5.81215e+10
9.05307e+08
-5.82121e+10
9.312e+08
-5.83091e+10
9.51032e+08
-5.84129e+10
9.68066e+08
-5.85202e+10
9.77094e+08
-5.86307e+10
9.76827e+08
-5.87426e+10
9.65921e+08
-5.88533e+10
9.39404e+08
-5.89623e+10
8.98216e+08
-5.90626e+10
8.36163e+08
-5.91519e+10
7.52285e+08
-5.92253e+10
6.46446e+08
-5.92746e+10
5.16503e+08
-5.92929e+10
3.64319e+08
-5.92739e+10
1.92738e+08
-5.92112e+10
4.46647e+06
-5.90961e+10
-1.92202e+08
-5.89229e+10
-3.87752e+08
-5.86972e+10
-5.60534e+08
-5.84328e+10
-6.94392e+08
-5.81492e+10
-7.79618e+08
-5.78623e+10
-8.14712e+08
-5.75868e+10
-8.04883e+08
-5.73313e+10
-7.61289e+08
-5.71001e+10
-6.91811e+08
-5.68942e+10
-6.08092e+08
-5.67114e+10
-5.15129e+08
-5.65482e+10
-4.19524e+08
-5.63996e+10
-3.24569e+08
-5.62617e+10
-2.31684e+08
-5.61283e+10
-1.43682e+08
-5.59901e+10
-6.08156e+07
-5.58411e+10
1.62546e+07
-5.56697e+10
8.47167e+07
-5.5468e+10
1.49096e+08
-5.52276e+10
2.07224e+08
-5.49365e+10
2.59551e+08
-5.45843e+10
3.05767e+08
-5.41545e+10
3.39364e+08
-5.36283e+10
3.60773e+08
-5.29815e+10
3.61978e+08
-5.2192e+10
3.45958e+08
-5.12556e+10
3.20228e+08
-5.01811e+10
2.47001e+08
-4.88763e+10
1.51352e+07
-4.72403e+10
-3.84893e+08
-4.52044e+10
-3.234e+08
-4.30507e+10
2.05981e+09
-3.2094e+10
1.00687e+10
8.71613e+09
-5.97088e+10
5.25107e+08
-5.99513e+08
-5.968e+10
5.26511e+08
-5.75803e+08
-5.96573e+10
5.39505e+08
-5.67548e+08
-5.96421e+10
5.48928e+08
-5.54846e+08
-5.9634e+10
5.58554e+08
-5.42877e+08
-5.9632e+10
5.67766e+08
-5.34082e+08
-5.96381e+10
5.76741e+08
-5.29931e+08
-5.96512e+10
5.85484e+08
-5.30013e+08
-5.96707e+10
5.94105e+08
-5.39568e+08
-5.96963e+10
6.02696e+08
-5.59068e+08
-5.97236e+10
6.11286e+08
-5.93851e+08
-5.97522e+10
6.20025e+08
-6.44826e+08
-5.97774e+10
6.29099e+08
-7.15236e+08
-5.97953e+10
6.38478e+08
-8.10875e+08
-5.98019e+10
6.48137e+08
-9.32153e+08
-5.97894e+10
6.58151e+08
-1.08206e+09
-5.97524e+10
6.68702e+08
-1.25915e+09
-5.96827e+10
6.79929e+08
-1.46318e+09
-5.95747e+10
6.9165e+08
-1.68849e+09
-5.94225e+10
7.03727e+08
-1.93048e+09
-5.92182e+10
7.1578e+08
-2.17923e+09
-5.89585e+10
7.28113e+08
-2.4185e+09
-5.86508e+10
7.41493e+08
-2.61873e+09
-5.83126e+10
7.56145e+08
-2.75585e+09
-5.79669e+10
7.71548e+08
-2.8158e+09
-5.76323e+10
7.87712e+08
-2.80335e+09
-5.73227e+10
8.03833e+08
-2.72933e+09
-5.70455e+10
8.18775e+08
-2.61154e+09
-5.67994e+10
8.32097e+08
-2.46729e+09
-5.65839e+10
8.44037e+08
-2.30914e+09
-5.63928e+10
8.546e+08
-2.14928e+09
-5.62199e+10
8.63808e+08
-1.99479e+09
-5.60599e+10
8.71999e+08
-1.84879e+09
-5.59052e+10
8.79474e+08
-1.71573e+09
-5.57511e+10
8.86394e+08
-1.59554e+09
-5.55907e+10
8.9273e+08
-1.48975e+09
-5.54188e+10
8.98099e+08
-1.39655e+09
-5.52316e+10
9.03196e+08
-1.31887e+09
-5.50219e+10
9.09089e+08
-1.2577e+09
-5.47849e+10
9.16049e+08
-1.21219e+09
-5.45099e+10
9.23314e+08
-1.1883e+09
-5.41837e+10
9.30321e+08
-1.18721e+09
-5.37925e+10
9.37079e+08
-1.21366e+09
-5.332e+10
9.44609e+08
-1.27036e+09
-5.27586e+10
9.57712e+08
-1.36176e+09
-5.211e+10
9.82954e+08
-1.48417e+09
-5.13925e+10
1.02965e+09
-1.62619e+09
-5.06248e+10
1.10857e+09
-1.79882e+09
-4.96098e+10
1.19797e+09
-2.13932e+09
-4.78549e+10
1.2199e+09
-2.7052e+09
-4.45813e+10
1.45052e+09
-3.04107e+09
-4.03964e+10
3.26047e+09
-1.85995e+09
-3.69796e+10
1.11676e+10
4.21011e+09
7.03911e+09
7.80395e+09
-6.01387e+10
1.40503e+09
-6.02779e+10
1.4922e+09
-6.04164e+10
1.53079e+09
-6.05696e+10
1.58255e+09
-6.0735e+10
1.63122e+09
-6.0912e+10
1.67807e+09
-6.11018e+10
1.72004e+09
-6.13032e+10
1.75771e+09
-6.15144e+10
1.78576e+09
-6.17347e+10
1.80377e+09
-6.19586e+10
1.80596e+09
-6.21848e+10
1.79143e+09
-6.24068e+10
1.75623e+09
-6.26185e+10
1.69419e+09
-6.28139e+10
1.60412e+09
-6.29829e+10
1.48238e+09
-6.3118e+10
1.32953e+09
-6.32097e+10
1.14528e+09
-6.32505e+10
9.35088e+08
-6.32353e+10
7.03315e+08
-6.31599e+10
4.59927e+08
-6.30278e+10
2.21604e+08
-6.28496e+10
1.82551e+07
-6.26448e+10
-1.25348e+08
-6.24378e+10
-1.94982e+08
-6.22454e+10
-1.96573e+08
-6.20793e+10
-1.4113e+08
-6.19464e+10
-4.54285e+07
-6.18459e+10
7.44842e+07
-6.17777e+10
2.07724e+08
-6.17352e+10
3.42583e+08
-6.17121e+10
4.72733e+08
-6.17022e+10
5.95211e+08
-6.16957e+10
7.05392e+08
-6.16857e+10
8.03763e+08
-6.16643e+10
8.88821e+08
-6.16271e+10
9.63277e+08
-6.15692e+10
1.02477e+09
-6.14784e+10
1.07172e+09
-6.13438e+10
1.10438e+09
-6.11493e+10
1.11751e+09
-6.08771e+10
1.10965e+09
-6.05085e+10
1.07334e+09
-6.00181e+10
1.00299e+09
-5.93866e+10
8.99085e+08
-5.85926e+10
7.64386e+08
-5.76047e+10
6.00386e+08
-5.63774e+10
3.74298e+08
-5.49065e+10
6.35015e+06
-5.33062e+10
-4.37135e+08
-5.07072e+10
-1.01403e+09
-4.40978e+10
-7.72942e+08
-2.07232e+10
-1.81342e+09
1.78847e+09
-5.85375e+10
1.79539e+07
-6.70214e+08
-5.84876e+10
3.80546e+06
-6.25504e+08
-5.84518e+10
5.30693e+06
-6.04422e+08
-5.84287e+10
3.90858e+06
-5.7745e+08
-5.84183e+10
2.601e+06
-5.51053e+08
-5.84189e+10
1.04891e+06
-5.29316e+08
-5.84326e+10
-848354
-5.09847e+08
-5.84587e+10
-2.86649e+06
-4.95104e+08
-5.84981e+10
-5.01099e+06
-4.88906e+08
-5.85464e+10
-7.35223e+06
-4.96667e+08
-5.86068e+10
-1.00467e+07
-5.1609e+08
-5.8674e+10
-1.31256e+07
-5.56122e+08
-5.87435e+10
-1.6589e+07
-6.19586e+08
-5.88123e+10
-2.04763e+07
-7.11247e+08
-5.88735e+10
-2.47305e+07
-8.35642e+08
-5.89201e+10
-2.91388e+07
-9.96308e+08
-5.89417e+10
-3.32902e+07
-1.19486e+09
-5.89315e+10
-3.67033e+07
-1.42769e+09
-5.88804e+10
-3.9002e+07
-1.69193e+09
-5.87804e+10
-3.99553e+07
-1.98119e+09
-5.86201e+10
-3.95807e+07
-2.29034e+09
-5.83947e+10
-3.72575e+07
-2.59471e+09
-5.81125e+10
-3.26414e+07
-2.85467e+09
-5.78047e+10
-2.46688e+07
-3.02186e+09
-5.7508e+10
-1.40146e+07
-3.07818e+09
-5.72563e+10
-1.29544e+06
-3.03001e+09
-5.70682e+10
1.28968e+07
-2.90299e+09
-5.69504e+10
2.78276e+07
-2.72553e+09
-5.69019e+10
4.22797e+07
-2.52122e+09
-5.69122e+10
5.56536e+07
-2.31163e+09
-5.6973e+10
6.80024e+07
-2.10717e+09
-5.70728e+10
7.96066e+07
-1.91875e+09
-5.72006e+10
8.9894e+07
-1.7485e+09
-5.73465e+10
9.83757e+07
-1.599e+09
-5.75e+10
1.0477e+08
-1.47068e+09
-5.76511e+10
1.08697e+08
-1.36372e+09
-5.77874e+10
1.09581e+08
-1.27836e+09
-5.78975e+10
1.06802e+08
-1.21538e+09
-5.7971e+10
1.00119e+08
-1.17448e+09
-5.79882e+10
8.91279e+07
-1.16298e+09
-5.79358e+10
7.35526e+07
-1.17921e+09
-5.77931e+10
5.26791e+07
-1.23035e+09
-5.75348e+10
2.28809e+07
-1.32247e+09
-5.71301e+10
-2.24301e+07
-1.45872e+09
-5.65424e+10
-8.34911e+07
-1.65266e+09
-5.57333e+10
-1.58258e+08
-1.9105e+09
-5.46291e+10
-2.50075e+08
-2.26022e+09
-5.31069e+10
-3.67888e+08
-2.74124e+09
-5.12771e+10
-4.82201e+08
-3.28025e+09
-4.96162e+10
-5.40095e+08
-3.54655e+09
-4.69173e+10
-7.54482e+08
-4.57076e+09
-3.80655e+10
-1.62546e+09
-8.55104e+09
-1.21646e+10
-4.42642e+09
-1.69913e+10
2.36222e+09
-5.23501e+09
-5.72895e+10
1.44963e+09
-5.7347e+10
1.55681e+09
-5.74122e+10
1.60486e+09
-5.74871e+10
1.66516e+09
-5.75715e+10
1.7223e+09
-5.76626e+10
1.77451e+09
-5.77621e+10
1.82311e+09
-5.78688e+10
1.86609e+09
-5.7983e+10
1.89957e+09
-5.81e+10
1.91814e+09
-5.82229e+10
1.92391e+09
-5.8347e+10
1.908e+09
-5.84686e+10
1.8675e+09
-5.85858e+10
1.79753e+09
-5.86933e+10
1.69353e+09
-5.87859e+10
1.55193e+09
-5.88553e+10
1.37118e+09
-5.88971e+10
1.15519e+09
-5.89032e+10
9.06944e+08
-5.88669e+10
6.31646e+08
-5.87752e+10
3.34016e+08
-5.86205e+10
3.55771e+07
-5.84027e+10
-2.24826e+08
-5.81449e+10
-3.98972e+08
-5.78768e+10
-4.66486e+08
-5.76296e+10
-4.3264e+08
-5.74209e+10
-3.22598e+08
-5.72562e+10
-1.65747e+08
-5.71337e+10
1.36922e+07
-5.70437e+10
1.95951e+08
-5.69777e+10
3.70439e+08
-5.6925e+10
5.28718e+08
-5.68756e+10
6.6795e+08
-5.6822e+10
7.85474e+08
-5.67565e+10
8.81631e+08
-5.66735e+10
9.56443e+08
-5.65644e+10
1.0095e+09
-5.64224e+10
1.03953e+09
-5.62413e+10
1.04566e+09
-5.60063e+10
1.01936e+09
-5.57072e+10
9.60782e+08
-5.53276e+10
8.61471e+08
-5.48504e+10
7.09846e+08
-5.42593e+10
4.92792e+08
-5.35307e+10
2.00291e+08
-5.26253e+10
-1.83915e+08
-5.14749e+10
-6.91233e+08
-5.0013e+10
-1.35906e+09
-4.82553e+10
-2.12337e+09
-4.62554e+10
-2.79426e+09
-4.37685e+10
-4.00076e+09
-4.02653e+10
-5.63544e+09
-2.49379e+10
-2.15312e+10
-1.03451e+10
-5.91789e+10
-2.44835e+08
-4.93461e+08
-5.91263e+10
-2.613e+08
-4.09657e+08
-5.9091e+10
-2.64652e+08
-3.67419e+08
-5.90697e+10
-2.7032e+08
-3.20467e+08
-5.90629e+10
-2.7554e+08
-2.73955e+08
-5.9071e+10
-2.80735e+08
-2.32092e+08
-5.90959e+10
-2.86059e+08
-1.9084e+08
-5.9135e+10
-2.91357e+08
-1.56962e+08
-5.91906e+10
-2.96636e+08
-1.29637e+08
-5.92642e+10
-3.02014e+08
-1.14732e+08
-5.93511e+10
-3.07637e+08
-1.15581e+08
-5.94503e+10
-3.13483e+08
-1.37642e+08
-5.95567e+10
-3.19498e+08
-1.87436e+08
-5.96628e+10
-3.2558e+08
-2.73007e+08
-5.97607e+10
-3.31477e+08
-4.00145e+08
-5.98383e+10
-3.36851e+08
-5.77396e+08
-5.9883e+10
-3.4116e+08
-8.06765e+08
-5.98783e+10
-3.43667e+08
-1.08897e+09
-5.98097e+10
-3.43539e+08
-1.4182e+09
-5.96647e+10
-3.4123e+08
-1.78777e+09
-5.94253e+10
-3.36611e+08
-2.19621e+09
-5.90718e+10
-3.30248e+08
-2.62227e+09
-5.86078e+10
-3.21759e+08
-3.00067e+09
-5.80801e+10
-3.10425e+08
-3.24254e+09
-5.75618e+10
-2.95467e+08
-3.30277e+09
-5.71113e+10
-2.78003e+08
-3.20293e+09
-5.67622e+10
-2.60044e+08
-2.99258e+09
-5.65262e+10
-2.42955e+08
-2.71944e+09
-5.63989e+10
-2.27575e+08
-2.4218e+09
-5.63689e+10
-2.14429e+08
-2.12786e+09
-5.64215e+10
-2.03372e+08
-1.85182e+09
-5.65461e+10
-1.93106e+08
-1.60214e+09
-5.67324e+10
-1.84594e+08
-1.37993e+09
-5.69721e+10
-1.78742e+08
-1.18464e+09
-5.72589e+10
-1.75378e+08
-1.01477e+09
-5.75898e+10
-1.74834e+08
-8.66714e+08
-5.79597e+10
-1.77602e+08
-7.42384e+08
-5.83675e+10
-1.83976e+08
-6.38303e+08
-5.88079e+10
-1.94013e+08
-5.58023e+08
-5.92808e+10
-2.07357e+08
-5.03907e+08
-5.97783e+10
-2.23692e+08
-4.81814e+08
-6.0293e+10
-2.42992e+08
-4.98451e+08
-6.08139e+10
-2.66646e+08
-5.62623e+08
-6.13276e+10
-2.97574e+08
-6.79756e+08
-6.1816e+10
-3.41863e+08
-8.66602e+08
-6.22313e+10
-4.1033e+08
-1.15515e+09
-6.24989e+10
-5.18837e+08
-1.59065e+09
-6.25018e+10
-6.82978e+08
-2.24122e+09
-6.19177e+10
-9.16933e+08
-3.18476e+09
-5.95482e+10
-1.41966e+09
-4.71781e+09
-5.37723e+10
-2.55537e+09
-8.02669e+09
-4.53476e+10
-3.41195e+09
-1.38238e+10
-3.15724e+10
-6.05535e+09
-2.49647e+10
-3.91941e+09
-5.76282e+09
-5.77531e+10
1.19547e+09
-5.77706e+10
1.31784e+09
-5.78022e+10
1.377e+09
-5.78499e+10
1.44786e+09
-5.79131e+10
1.51535e+09
-5.79921e+10
1.57822e+09
-5.80891e+10
1.63917e+09
-5.82016e+10
1.69206e+09
-5.83316e+10
1.7373e+09
-5.84805e+10
1.76888e+09
-5.86441e+10
1.78358e+09
-5.88216e+10
1.77586e+09
-5.90088e+10
1.73937e+09
-5.91988e+10
1.66648e+09
-5.93843e+10
1.55172e+09
-5.9553e+10
1.38693e+09
-5.96923e+10
1.17067e+09
-5.97847e+10
9.03841e+08
-5.9816e+10
5.93138e+08
-5.97714e+10
2.43749e+08
-5.96314e+10
-1.45627e+08
-5.9374e+10
-5.55482e+08
-5.90008e+10
-9.2317e+08
-5.85519e+10
-1.16128e+09
-5.80936e+10
-1.22162e+09
-5.76812e+10
-1.12307e+09
-5.73496e+10
-9.13867e+08
-5.71159e+10
-6.42136e+08
-5.69828e+10
-3.46741e+08
-5.69453e+10
-5.59604e+07
-5.69917e+10
2.13184e+08
-5.71088e+10
4.51783e+08
-5.72828e+10
6.55501e+08
-5.75075e+10
8.282e+08
-5.77796e+10
9.73624e+08
-5.80994e+10
1.09505e+09
-5.84666e+10
1.19083e+09
-5.8886e+10
1.2648e+09
-5.93601e+10
1.31363e+09
-5.98985e+10
1.3365e+09
-6.05061e+10
1.3295e+09
-6.11939e+10
1.29016e+09
-6.19792e+10
1.21104e+09
-6.2883e+10
1.07794e+09
-6.39358e+10
8.80412e+08
-6.51687e+10
5.879e+08
-6.66245e+10
1.60479e+08
-6.83357e+10
-4.59035e+08
-7.01004e+10
-1.42789e+09
-7.12082e+10
-3.28274e+09
-7.03805e+10
-7.57665e+09
-6.31671e+10
-1.65335e+10
-6.12939e+10
-2.97006e+10
-8.82576e+09
-6.1512e+10
-2.95455e+08
-2.4742e+08
-6.14588e+10
-3.16812e+08
-1.39955e+08
-6.14205e+10
-3.22885e+08
-7.66236e+07
-6.13939e+10
-3.29906e+08
-1.08216e+07
-6.13805e+10
-3.37072e+08
5.60445e+07
-6.13827e+10
-3.43255e+08
1.19387e+08
-6.14023e+10
-3.4921e+08
1.83477e+08
-6.14421e+10
-3.54459e+08
2.41936e+08
-6.15014e+10
-3.59087e+08
2.92527e+08
-6.15822e+10
-3.62975e+08
3.32075e+08
-6.16839e+10
-3.65956e+08
3.54731e+08
-6.18007e+10
-3.67828e+08
3.50046e+08
-6.19283e+10
-3.68406e+08
3.12671e+08
-6.20605e+10
-3.67541e+08
2.32087e+08
-6.21847e+10
-3.65305e+08
9.49602e+07
-6.22884e+10
-3.62064e+08
-1.07511e+08
-6.23528e+10
-3.58245e+08
-3.829e+08
-6.23604e+10
-3.53887e+08
-7.29911e+08
-6.22934e+10
-3.4924e+08
-1.14106e+09
-6.21316e+10
-3.4557e+08
-1.61138e+09
-6.18488e+10
-3.42661e+08
-2.14467e+09
-6.14019e+10
-3.38937e+08
-2.74045e+09
-6.07614e+10
-3.32034e+08
-3.31934e+09
-5.99801e+10
-3.19503e+08
-3.71306e+09
-5.91768e+10
-2.97096e+08
-3.81303e+09
-5.84418e+10
-2.62455e+08
-3.6763e+09
-5.78116e+10
-2.15713e+08
-3.40749e+09
-5.72946e+10
-1.59042e+08
-3.07922e+09
-5.6878e+10
-9.51558e+07
-2.74733e+09
-5.65426e+10
-2.69546e+07
-2.44251e+09
-5.6267e+10
4.26958e+07
-2.17856e+09
-5.60347e+10
1.11258e+08
-1.95665e+09
-5.58313e+10
1.78103e+08
-1.7753e+09
-5.56472e+10
2.449e+08
-1.63084e+09
-5.54794e+10
3.13748e+08
-1.5169e+09
-5.53216e+10
3.84491e+08
-1.43336e+09
-5.51742e+10
4.57472e+08
-1.37547e+09
-5.50335e+10
5.32335e+08
-1.34369e+09
-5.49024e+10
6.07786e+08
-1.33359e+09
-5.47819e+10
6.8315e+08
-1.34887e+09
-5.4677e+10
7.58635e+08
-1.39116e+09
-5.4598e+10
8.34182e+08
-1.46196e+09
-5.456e+10
9.09061e+08
-1.56583e+09
-5.45691e+10
9.79403e+08
-1.71617e+09
-5.46333e+10
1.03685e+09
-1.92429e+09
-5.4775e+10
1.0766e+09
-2.21011e+09
-5.50528e+10
1.099e+09
-2.58822e+09
-5.55667e+10
1.09877e+09
-3.08074e+09
-5.63619e+10
1.05067e+09
-3.79476e+09
-5.72627e+10
8.09145e+08
-5.18891e+09
-5.78143e+10
-6.37789e+07
-8.15985e+09
-5.75282e+10
-1.5321e+09
-1.3553e+10
-5.55347e+10
-6.59302e+09
-2.11479e+10
-1.57086e+09
9.68722e+08
-5.78069e+10
8.69899e+08
-5.77878e+10
9.85434e+08
-5.7781e+10
1.05101e+09
-5.77843e+10
1.12481e+09
-5.78002e+10