/*--------------------------------*- C++ -*----------------------------------*\
| =========                 |                                                 |
| \\      /  F ield         | OpenFOAM: The Open Source CFD Toolbox           |
|  \\    /   O peration     | Version:  4.1                                   |
|   \\  /    A nd           | Web:      www.OpenFOAM.org                      |
|    \\/     M anipulation  |                                                 |
\*---------------------------------------------------------------------------*/
FoamFile
{
    version     2.0;
    format      ascii;
    class       volVectorField;
    location    "90";
    object      U;
}
// * * * * * * * * * * * * * * * * * * * * * * * * * * * * * * * * * * * * * //

dimensions      [0 1 -1 0 0 0 0];

internalField   nonuniform List<vector> 
4432
(
(-148488 -3608.72 -1252.91)
(-150523 -3720.34 -1437.65)
(-151407 -3632.5 -1437.56)
(-152532 -3655.21 -1534.29)
(-153623 -3641.73 -1606.28)
(-154749 -3626.47 -1661.59)
(-155854 -3613.81 -1736.83)
(-156960 -3597.48 -1821.06)
(-158048 -3578.69 -1923.28)
(-159104 -3558.43 -2048.31)
(-160107 -3537.56 -2199.47)
(-161030 -3516.13 -2381.14)
(-161842 -3494.16 -2595.78)
(-162503 -3472.22 -2842.61)
(-162982 -3450.92 -3116.9)
(-163236 -3430.96 -3413.19)
(-163236 -3415.28 -3727.05)
(-162948 -3405.37 -4050.33)
(-162357 -3402.62 -4381.06)
(-161446 -3407.03 -4713.85)
(-160203 -3418.91 -5039.86)
(-158628 -3438.05 -5348.23)
(-156745 -3463.38 -5625.96)
(-154584 -3494.2 -5862.32)
(-152194 -3529.13 -6048.29)
(-149618 -3567.21 -6180.57)
(-146913 -3607.2 -6257.55)
(-144122 -3648.59 -6282.2)
(-141299 -3690.53 -6258)
(-138480 -3732.83 -6191)
(-135706 -3775.23 -6087.24)
(-133004 -3818.03 -5953.4)
(-130392 -3862.45 -5797.49)
(-127889 -3910.64 -5626.25)
(-125497 -3961.64 -5445.17)
(-123224 -4013.26 -5257.97)
(-121073 -4063.84 -5068.84)
(-119030 -4109.24 -4884.7)
(-117104 -4152.53 -4707.31)
(-115202 -4196.79 -4559.69)
(-113291 -4236.29 -4433.89)
(-111262 -4266.39 -4322.6)
(-108919 -4280.25 -4209.42)
(-106116 -4270.94 -4057.3)
(-103195 -4235.03 -3811.88)
(-101257 -4166.73 -3463.03)
(-100978 -4028.84 -3065.79)
(-99993.3 -3753.9 -2376.33)
(-93474.2 -3086.99 -843.196)
(-83738.9 -1469.87 3232.84)
(-92305.8 2746.51 9138.11)
(-132766 10714.3 18335.9)
(-172777 28045.9 1688.99)
(-57385.5 12680.3 -5840.66)
(-185320 3548.51 -448.237)
(-187592 3464.7 -542.159)
(-188782 3527.94 -623.106)
(-190236 3506.89 -675.897)
(-191579 3513.34 -742.383)
(-192936 3520.46 -794.883)
(-194245 3524.64 -860.961)
(-195513 3531.2 -935.442)
(-196730 3538.98 -1026.02)
(-197882 3547.12 -1135.2)
(-198947 3554.74 -1265.98)
(-199899 3561.6 -1421.51)
(-200714 3567.45 -1603.48)
(-201356 3571.5 -1810.36)
(-201798 3572.91 -2038.77)
(-202007 3570.94 -2284.47)
(-201958 3563.85 -2540.04)
(-201637 3551.49 -2798.54)
(-201046 3537.36 -3059.68)
(-200178 3522.47 -3318.89)
(-199028 3506.86 -3568.64)
(-197603 3490.9 -3799.65)
(-195928 3474.74 -4000.43)
(-194035 3458.84 -4162.74)
(-191969 3442.93 -4280.71)
(-189771 3427.06 -4352.69)
(-187492 3410.17 -4379.25)
(-185169 3391.58 -4364)
(-182845 3369.65 -4311.64)
(-180549 3343.15 -4228.07)
(-178310 3310.24 -4119.59)
(-176147 3268.84 -3992.15)
(-174069 3216.89 -3851.52)
(-172093 3154.89 -3702.06)
(-170220 3083.18 -3547.8)
(-168445 2999.65 -3393.1)
(-166759 2903.13 -3240.86)
(-165146 2794.66 -3090.44)
(-163575 2677.5 -2951.64)
(-162013 2552.44 -2823.21)
(-160419 2422.56 -2702.87)
(-158694 2290.13 -2586.74)
(-156660 2157.96 -2461.61)
(-154159 2027.19 -2291.87)
(-151381 1894.89 -2026.28)
(-149053 1761.11 -1652.83)
(-147537 1646.6 -1229.56)
(-144623 1593.9 -615.511)
(-136158 1774.92 724.308)
(-123896 2537.9 3976.62)
(-127909 4629.14 7732.91)
(-161831 7376.56 9295.27)
(-159691 14310.1 -5911.15)
(59737.7 8113.41 -17667.8)
(-266308 -1228.79 3944.29)
(-266880 -1213.96 3855.58)
(-267302 -1203.61 3903.19)
(-267792 -1175.72 3914.23)
(-268260 -1153.25 3939.04)
(-268765 -1129.28 3982.15)
(-269279 -1105.17 4018.99)
(-269797 -1080.1 4048.1)
(-270318 -1055.24 4061.37)
(-270836 -1030.49 4054.51)
(-271342 -1007.07 4023.37)
(-271828 -985.278 3963.46)
(-272280 -965.384 3871.69)
(-272681 -947.818 3746.3)
(-273017 -933.767 3588.59)
(-273278 -924.338 3400.21)
(-273458 -918.432 3186.36)
(-273582 -914.662 2955.83)
(-273660 -912.275 2717.5)
(-273690 -910.889 2480.04)
(-273675 -910.376 2254.6)
(-273625 -910.302 2055.45)
(-273557 -909.631 1897.98)
(-273492 -908.619 1795.6)
(-273455 -907.942 1758.1)
(-273460 -908.552 1788.29)
(-273526 -911.696 1885.67)
(-273656 -918.916 2044.68)
(-273863 -931.852 2259.24)
(-274141 -952.244 2520.95)
(-274497 -981.799 2822.44)
(-274927 -1022.28 3156.2)
(-275431 -1075.07 3515.66)
(-276013 -1140.48 3895.52)
(-276679 -1218.96 4291.2)
(-277440 -1312.34 4699.6)
(-278306 -1421.32 5117.21)
(-279302 -1544.13 5542.88)
(-280450 -1679.58 5985.06)
(-281834 -1825.63 6461.72)
(-283525 -1985.83 6985.13)
(-285561 -2163.59 7557.4)
(-287906 -2359.97 8189.52)
(-290568 -2572.86 8913.8)
(-293790 -2800.55 9763.85)
(-298271 -3041.36 10728.2)
(-304582 -3292.43 11712.5)
(-311627 -3523.57 12584.2)
(-315467 -3521.64 13495.6)
(-318133 -2906.26 15025.3)
(-330225 -1333.32 17731.3)
(-390013 1663.04 12548.4)
(-402850 11463.3 -12038.1)
(-423807 13159.5 -37276.8)
(-309952 2261.47 3343.99)
(-310524 2220.62 3311.46)
(-310913 2202.7 3262.14)
(-311362 2194.99 3269.68)
(-311800 2184.44 3262.74)
(-312261 2175.16 3270.44)
(-312723 2166.21 3273.41)
(-313182 2158.4 3268.27)
(-313637 2150.88 3247.05)
(-314083 2143.97 3206.67)
(-314514 2137.04 3143.24)
(-314920 2130.3 3052.78)
(-315292 2123.82 2932.28)
(-315616 2117.93 2780.52)
(-315883 2111.79 2598.42)
(-316079 2104.8 2387.4)
(-316193 2097.46 2151.9)
(-316212 2089.4 1899.74)
(-316118 2077.93 1637.87)
(-315912 2062.3 1373.78)
(-315609 2042 1119.12)
(-315245 2016.74 887.459)
(-314833 1987.54 691.168)
(-314388 1954.48 542.545)
(-313936 1917.22 450.989)
(-313489 1875.71 420.149)
(-313069 1829.19 450.222)
(-312685 1777.15 537.404)
(-312357 1718.6 676.988)
(-312091 1652.84 862.725)
(-311904 1578.78 1088.92)
(-311810 1495.56 1350.42)
(-311825 1402.5 1643.12)
(-311972 1299.81 1962.57)
(-312275 1188 2303.2)
(-312766 1066.28 2663.11)
(-313490 934.734 3041.88)
(-314491 792.354 3439.68)
(-315824 639.024 3857.14)
(-317544 473.076 4296.44)
(-319722 290.931 4761.44)
(-322415 88.4118 5253.99)
(-325637 -136.443 5782.64)
(-329413 -383.678 6371.51)
(-333975 -654.582 7050.7)
(-339954 -957.614 7815.74)
(-347800 -1309.4 8590.24)
(-356234 -1692.59 9281.71)
(-360919 -1910.96 10244.1)
(-361468 -1985.31 12770.9)
(-366466 -789.822 15669.7)
(-388337 -383.661 8093.13)
(-342290 10029.2 -23717.3)
(-321527 -10971.9 -11580.3)
(-224458 -2853.85 -862.58)
(-223833 -2857.88 -915.815)
(-223643 -2916.32 -944.619)
(-223408 -2929.06 -945.399)
(-223219 -2953.43 -961.65)
(-223055 -2979.24 -983.322)
(-222919 -3006.91 -1009.79)
(-222801 -3035.13 -1052.73)
(-222699 -3066.18 -1118.71)
(-222612 -3099.74 -1212.62)
(-222540 -3137 -1341.28)
(-222482 -3178.05 -1509.68)
(-222432 -3223.38 -1722.03)
(-222386 -3272.89 -1981.93)
(-222338 -3326.81 -2292.5)
(-222275 -3384.96 -2653.95)
(-222179 -3447.96 -3059.49)
(-221974 -3515 -3507.96)
(-221615 -3580.9 -3994.8)
(-221082 -3641.65 -4506.42)
(-220367 -3694.62 -5023.33)
(-219477 -3738.89 -5521.71)
(-218433 -3774.48 -5975.77)
(-217277 -3799.56 -6362.36)
(-216059 -3812.69 -6665.82)
(-214831 -3813.09 -6880.94)
(-213641 -3800.97 -7010.39)
(-212528 -3777.16 -7064.09)
(-211520 -3742.99 -7053.51)
(-210635 -3699.95 -6991.83)
(-209881 -3649.6 -6890.6)
(-209250 -3593.72 -6760.03)
(-208733 -3534.13 -6607.06)
(-208307 -3473.77 -6437.06)
(-207950 -3415.79 -6253.27)
(-207638 -3359.93 -6055.77)
(-207343 -3302.87 -5846.64)
(-207042 -3248.75 -5625.99)
(-206697 -3206.13 -5389.85)
(-206264 -3183.81 -5142.39)
(-205578 -3177.23 -4900.37)
(-204505 -3178.71 -4669.13)
(-202850 -3185.31 -4443.29)
(-200414 -3194.39 -4199.06)
(-197344 -3199.63 -3906.28)
(-194318 -3185.1 -3584.41)
(-191587 -3090.32 -3394.33)
(-186821 -2771.28 -3592.44)
(-175713 -1758.31 -3901.78)
(-160534 488.266 -3739.94)
(-164873 4930.98 -4687.83)
(-195530 9267.33 -10273.5)
(-203163 28069.7 -22242.4)
(-106513 12387.4 -5453.67)
(-264641 3155.06 1654.49)
(-263572 3219.2 1616.04)
(-263074 3199.61 1599.08)
(-262446 3227.02 1596.1)
(-261903 3242.17 1584.54)
(-261374 3255.64 1567.31)
(-260866 3266.78 1547.63)
(-260374 3276.53 1513.52)
(-259896 3282.66 1458.94)
(-259431 3284.83 1378.81)
(-258977 3281.59 1267.08)
(-258534 3272.11 1118.67)
(-258097 3255.22 928.632)
(-257663 3230.13 691.838)
(-257227 3195.74 405.429)
(-256791 3151.44 70.1286)
(-256351 3097.92 -310.123)
(-255909 3036.79 -728.092)
(-255458 2972.33 -1171.85)
(-254973 2908.77 -1626.42)
(-254425 2849.17 -2073.87)
(-253779 2794.35 -2495.71)
(-253052 2743.8 -2871.35)
(-252268 2698.51 -3181.89)
(-251460 2659.12 -3414.44)
(-250653 2625.74 -3565.66)
(-249873 2597.54 -3638.79)
(-249132 2573.18 -3643.55)
(-248439 2550.98 -3590.33)
(-247793 2529.4 -3490.72)
(-247188 2506.93 -3354.22)
(-246612 2482.86 -3189.17)
(-246052 2456.79 -3001.87)
(-245490 2427.78 -2797.52)
(-244905 2393.07 -2578.26)
(-244281 2352.11 -2343.39)
(-243584 2306.06 -2095.23)
(-242759 2254.2 -1839.93)
(-241767 2190.44 -1580.74)
(-240580 2107.93 -1318.86)
(-239148 2005 -1056.35)
(-237369 1885.98 -797.383)
(-235056 1750.8 -541.872)
(-232021 1599.03 -278.164)
(-228348 1429.63 11.9499)
(-224591 1250.92 298.977)
(-220902 1100.45 456.584)
(-214820 1089.85 325.942)
(-202249 1504.77 90.1778)
(-185323 2815.04 -587.884)
(-184571 5181.06 -2387.21)
(-199030 5133.78 -7643.49)
(-198883 7151.93 -10084.2)
(18877.3 9337.47 -2337.17)
(-256313 -3694.54 2246.39)
(-256486 -3734.63 2398.58)
(-256600 -3746.94 2463.7)
(-256780 -3760.56 2555.77)
(-256994 -3772.06 2638.74)
(-257245 -3784.77 2713.05)
(-257528 -3796.16 2777.13)
(-257841 -3807.41 2826.87)
(-258178 -3819.81 2856.28)
(-258532 -3833.48 2858.18)
(-258891 -3849.35 2824.45)
(-259244 -3867.74 2749.4)
(-259569 -3889.49 2626.41)
(-259843 -3915.93 2448.47)
(-260038 -3947.68 2209.11)
(-260137 -3986.13 1906.32)
(-260108 -4032.32 1541.15)
(-259965 -4087.07 1122.52)
(-259706 -4149.51 666.87)
(-259352 -4221.66 194.241)
(-258895 -4302.73 -272.339)
(-258342 -4391.93 -700.902)
(-257713 -4489.26 -1056.17)
(-257041 -4593.42 -1307.74)
(-256368 -4702.27 -1438.14)
(-255733 -4813.47 -1444.53)
(-255168 -4924.85 -1336.81)
(-254695 -5034.96 -1133.12)
(-254330 -5142.8 -854.061)
(-254081 -5247.63 -519.381)
(-253952 -5349.18 -145.59)
(-253943 -5447.89 253.99)
(-254056 -5545.05 670.084)
(-254291 -5642.21 1095.56)
(-254654 -5740.01 1525.44)
(-255152 -5839.54 1956.73)
(-255794 -5942.61 2387.14)
(-256621 -6054.32 2823.48)
(-257665 -6179.05 3262.43)
(-258953 -6323.93 3693.05)
(-260581 -6496.25 4115.72)
(-262564 -6703.34 4537.73)
(-264841 -6953.11 4961.61)
(-267366 -7255.7 5398.42)
(-270406 -7625.32 5879.28)
(-274876 -8086.16 6459.89)
(-281607 -8655.26 7179.82)
(-289278 -9287.3 7970.28)
(-293553 -9838.18 8820.96)
(-295936 -10550.7 10237.7)
(-311702 -9949.18 11540.1)
(-395101 -9257.65 4792.1)
(-494034 2565.67 -2477.93)
(-456208 14106.2 -32134.4)
(-248384 2481.7 1740.13)
(-248610 2463.87 1770.62)
(-248736 2467.24 1838.27)
(-248905 2470.67 1871.91)
(-249110 2476.49 1908.63)
(-249329 2481.55 1932.79)
(-249562 2488.29 1945.17)
(-249808 2495.55 1939.19)
(-250060 2502.06 1911.31)
(-250312 2507.73 1854.33)
(-250554 2511.75 1761.37)
(-250775 2513.87 1627.19)
(-250959 2513.38 1446.7)
(-251088 2509.07 1214.3)
(-251139 2500.35 925.684)
(-251093 2485.97 579.781)
(-250928 2464.93 179.401)
(-250636 2435.31 -267.083)
(-250215 2395.27 -746.335)
(-249661 2344.82 -1242.05)
(-248973 2283.09 -1729.07)
(-248156 2210.58 -2174.62)
(-247226 2127.1 -2543.63)
(-246215 2034.1 -2808.22)
(-245162 1934.15 -2951.29)
(-244104 1830.26 -2970.78)
(-243071 1725.49 -2876.98)
(-242084 1622.17 -2688.44)
(-241154 1522.15 -2425.74)
(-240286 1427 -2108.87)
(-239480 1337.75 -1754.01)
(-238733 1254.7 -1374.82)
(-238039 1177.03 -981.826)
(-237396 1103.73 -581.867)
(-236802 1035.3 -176.988)
(-236254 972.286 230.622)
(-235743 912.252 637.077)
(-235280 850.227 1045.51)
(-234866 781.393 1457.38)
(-234502 704.639 1870.3)
(-234185 616.815 2283.49)
(-233870 511.891 2698.37)
(-233429 383.832 3119.01)
(-232732 224.076 3562.24)
(-231959 16.7399 4063.58)
(-231906 -268.856 4664.2)
(-233180 -657.759 5340.96)
(-233879 -1123.13 6008.4)
(-229286 -1474.86 6429.61)
(-220525 -2141.32 5853.81)
(-227818 -2214.06 1960.33)
(-265884 -7065.07 1298.22)
(-265789 9509.03 -2455.44)
(-209080 -3098.91 -3910.23)
(-239092 -1216.08 944.616)
(-238931 -1226.13 1082.9)
(-238904 -1206.76 1170.08)
(-238856 -1193.13 1256.02)
(-238852 -1176.01 1342.77)
(-238865 -1159.01 1420.06)
(-238898 -1140.81 1481.06)
(-238948 -1122.61 1518.8)
(-239013 -1104.34 1526.44)
(-239091 -1086.16 1494.13)
(-239179 -1068.97 1411.72)
(-239271 -1053.46 1271.91)
(-239359 -1040.05 1067.22)
(-239430 -1028.69 790.675)
(-239474 -1019.03 437.778)
(-239475 -1011.41 6.40613)
(-239420 -1006.03 -500.922)
(-239289 -1003.77 -1073.73)
(-239067 -1008.27 -1696.27)
(-238705 -1016.73 -2350.69)
(-238191 -1027.15 -3006.51)
(-237518 -1039.99 -3617.95)
(-236710 -1057.43 -4130.37)
(-235819 -1081.52 -4498.29)
(-234909 -1111.48 -4699.03)
(-234042 -1146.5 -4736.12)
(-233266 -1185.39 -4633.19)
(-232610 -1227.14 -4424.86)
(-232084 -1270.88 -4146.91)
(-231684 -1316.12 -3830.56)
(-231399 -1362.61 -3499.71)
(-231210 -1410.9 -3171.97)
(-231097 -1462.49 -2858.67)
(-231041 -1519.41 -2567.22)
(-231020 -1583.1 -2302.1)
(-231015 -1653.2 -2066.91)
(-231017 -1733.9 -1866.3)
(-230979 -1823.07 -1705.96)
(-230872 -1919.46 -1593.84)
(-230668 -2019.22 -1538.23)
(-230332 -2118.69 -1556.55)
(-229783 -2208.99 -1665.15)
(-228854 -2280.31 -1878.49)
(-227370 -2322.47 -2215.05)
(-225451 -2322.84 -2682.92)
(-223768 -2281.06 -3249.89)
(-222763 -2202.33 -3847.89)
(-220514 -2063.68 -4505.48)
(-212722 -1691.66 -5409.48)
(-200082 -1157.75 -6932.14)
(-201257 -889.353 -5717.61)
(-244214 -2431.83 2480.4)
(-326001 19291.6 42003.3)
(-300635 31126.8 27195.6)
(-231148 4529.75 926.859)
(-231484 4603.81 976.579)
(-231702 4690.11 1021.5)
(-231989 4775.92 1049.78)
(-232311 4869.39 1076.06)
(-232661 4966.43 1093.27)
(-233037 5068.55 1092.66)
(-233437 5174.43 1066.79)
(-233857 5284.05 1010.36)
(-234294 5397.1 914.102)
(-234741 5512.41 769.299)
(-235190 5628.94 568.216)
(-235630 5745.62 303.183)
(-236047 5861.18 -33.3165)
(-236425 5974.68 -447.661)
(-236747 6084.38 -943.31)
(-236988 6188.64 -1519.19)
(-237119 6286.39 -2171.33)
(-237107 6375.07 -2891.6)
(-236931 6452.04 -3661.11)
(-236561 6517.8 -4452.34)
(-235963 6570.23 -5226.02)
(-235132 6605.87 -5931.06)
(-234126 6621.69 -6516.1)
(-233012 6618.1 -6953.84)
(-231867 6596.05 -7240.76)
(-230750 6557.42 -7394.49)
(-229706 6504.21 -7444.85)
(-228755 6438.35 -7423.22)
(-227904 6361.64 -7356.64)
(-227148 6275.46 -7267.78)
(-226473 6180.47 -7172.66)
(-225862 6076.14 -7080.59)
(-225297 5961.41 -6996.2)
(-224757 5836.13 -6921.63)
(-224221 5701.7 -6858.08)
(-223661 5558.83 -6807.35)
(-223030 5406.32 -6773.42)
(-222303 5244.59 -6755.61)
(-221460 5079.27 -6751.65)
(-220465 4919.42 -6762.95)
(-219233 4771.82 -6793.97)
(-217596 4643.1 -6855.48)
(-215378 4541.88 -6960.99)
(-212716 4477.37 -7109.15)
(-210285 4447.58 -7249.78)
(-208539 4437.21 -7306.16)
(-205421 4430.59 -7433.43)
(-196526 4527.15 -8071.96)
(-181941 4254.86 -9367.31)
(-180748 2750.81 -7633.61)
(-201270 -2334.05 2319.58)
(-194967 11889.2 45419.6)
(-63845.7 10687.3 28259.7)
(-238914 -1987.01 -1328.84)
(-238765 -2007.72 -1203.06)
(-238670 -1999.57 -1150.01)
(-238589 -2006.36 -1097.27)
(-238542 -2015.85 -1058.11)
(-238524 -2029.31 -1041.11)
(-238535 -2045.56 -1051.06)
(-238573 -2065.8 -1094.74)
(-238637 -2089.76 -1178.93)
(-238726 -2116 -1312.36)
(-238833 -2142.97 -1504.16)
(-238947 -2169.7 -1762.96)
(-239055 -2195.13 -2097.47)
(-239143 -2219.26 -2516.56)
(-239193 -2242.14 -3025.28)
(-239179 -2263.85 -3625.6)
(-239072 -2284.02 -4313.51)
(-238848 -2302.37 -5076.57)
(-238482 -2319.03 -5897.04)
(-237946 -2334.8 -6748.9)
(-237206 -2350.6 -7591.85)
(-236238 -2366.07 -8363.92)
(-235059 -2380.69 -8982.67)
(-233733 -2395.93 -9375.54)
(-232347 -2414.86 -9507.58)
(-230987 -2439.54 -9390.08)
(-229718 -2473.02 -9066.35)
(-228572 -2518.73 -8595.46)
(-227559 -2578.25 -8037.93)
(-226670 -2651.58 -7445.21)
(-225886 -2739.12 -6855.49)
(-225181 -2841.09 -6295.35)
(-224531 -2956.49 -5782.77)
(-223910 -3083.67 -5328.48)
(-223296 -3220.77 -4937.36)
(-222668 -3365.19 -4611.33)
(-222008 -3514.02 -4352.45)
(-221297 -3662.4 -4161.84)
(-220522 -3803.52 -4038.78)
(-219670 -3932.09 -3982.01)
(-218714 -4049.76 -4001.73)
(-217569 -4159.85 -4103.09)
(-216067 -4263.76 -4286.32)
(-214040 -4360.62 -4547.57)
(-211616 -4440.55 -4874.36)
(-209515 -4484.91 -5204.95)
(-208388 -4466.4 -5450.88)
(-206498 -4317.68 -5565.81)
(-199314 -3933.72 -5738.18)
(-184973 -3208.89 -6210.82)
(-180900 -707.096 -5118.26)
(-196162 5352.46 2489.23)
(-195420 27780.4 49298.5)
(-104155 16193.7 29436.3)
(-240180 5974.84 5192.11)
(-240889 6044.22 5508.48)
(-241364 6118.42 5668.33)
(-241960 6190.6 5858.8)
(-242593 6263.12 6032.56)
(-243280 6337.43 6197.48)
(-244017 6413.58 6344.4)
(-244800 6490.01 6466.78)
(-245626 6566.3 6556.56)
(-246488 6642.81 6604.18)
(-247378 6719.91 6599.33)
(-248281 6797.11 6530.87)
(-249179 6874.16 6386.77)
(-250050 6950.3 6155.39)
(-250867 7024.33 5826.28)
(-251594 7095.54 5392.74)
(-252197 7164.02 4853.99)
(-252639 7230.5 4217.82)
(-252892 7295.93 3497.96)
(-252925 7361.58 2713.39)
(-252707 7428.57 1895.9)
(-252244 7498.72 1106.58)
(-251579 7574.35 430.848)
(-250775 7655.33 -55.3076)
(-249934 7740.38 -311.066)
(-249142 7828 -341.609)
(-248446 7913.14 -181.947)
(-247877 7991.11 121.143)
(-247445 8060.25 516.968)
(-247144 8120.62 960.249)
(-246952 8170.46 1417.95)
(-246847 8208.92 1868.89)
(-246799 8236.39 2296.72)
(-246777 8253.34 2691.56)
(-246751 8260.19 3049.11)
(-246692 8256.99 3364.57)
(-246577 8243.31 3634.77)
(-246399 8223.71 3866.25)
(-246126 8202.13 4055.23)
(-245719 8180.81 4194.09)
(-245125 8160.97 4270.73)
(-244247 8142.28 4267.13)
(-242911 8123.06 4156.55)
(-240938 8101.8 3906.54)
(-238408 8080.16 3486.15)
(-235872 8054.85 2887.57)
(-233737 8029.18 2099.62)
(-230309 8015.76 927.895)
(-221689 8030.02 -973.618)
(-207504 8211.5 -2856.9)
(-202283 8939.28 -3749.11)
(-208566 9499.97 -4022.83)
(-205384 14558.3 -7887.45)
(27915.6 11912.9 20097.1)
(-234342 -5311.64 -3288.59)
(-233998 -5324.85 -3247.24)
(-233877 -5293.87 -3249.85)
(-233745 -5272.32 -3235.64)
(-233680 -5246.22 -3227.72)
(-233662 -5214.64 -3227.23)
(-233693 -5177.26 -3235.55)
(-233771 -5135 -3257.88)
(-233899 -5088.64 -3302.25)
(-234075 -5037.76 -3378.19)
(-234295 -4982.61 -3496.42)
(-234549 -4923.63 -3671.79)
(-234825 -4861.55 -3921.5)
(-235106 -4797.21 -4264.15)
(-235368 -4731.27 -4718.4)
(-235582 -4663.95 -5299.21)
(-235712 -4595.16 -6013.25)
(-235724 -4525.16 -6855.42)
(-235589 -4455.29 -7809.02)
(-235272 -4388.28 -8849.76)
(-234721 -4327.14 -9939.35)
(-233892 -4274.04 -10999)
(-232805 -4231.24 -11902.9)
(-231563 -4198.62 -12518.1)
(-230324 -4176.26 -12776.9)
(-229230 -4162.97 -12696)
(-228378 -4156.7 -12342.4)
(-227811 -4155.65 -11798.6)
(-227526 -4158.99 -11142.1)
(-227494 -4164.53 -10434.4)
(-227675 -4169.94 -9719.09)
(-228025 -4174.91 -9025.69)
(-228502 -4180.73 -8372.16)
(-229064 -4188.15 -7767.59)
(-229672 -4197.55 -7216.64)
(-230288 -4210.11 -6722.38)
(-230872 -4227.75 -6287.54)
(-231382 -4252.92 -5915.69)
(-231775 -4288.91 -5611.6)
(-232003 -4342.28 -5383.71)
(-232006 -4422.63 -5246.37)
(-231676 -4543.49 -5215.87)
(-230828 -4731.92 -5308.17)
(-229258 -5033.26 -5556.24)
(-226967 -5493.17 -6036.9)
(-224500 -6154.35 -6743.97)
(-222194 -7099.6 -7714.51)
(-218169 -8465.16 -9014.56)
(-207749 -10234.3 -10727.7)
(-192048 -11923.5 -11455.6)
(-188324 -13165.7 -10843.2)
(-195136 -15777.5 -14900.4)
(-161775 -49621.8 -38148.1)
(47892.1 5497.8 1319.34)
(-229051 5369.48 6272.31)
(-229258 5314.83 6617.62)
(-229516 5292.07 6763.53)
(-229787 5256.69 6958.87)
(-230109 5214.54 7138.77)
(-230459 5168.34 7311.95)
(-230844 5117.19 7471.98)
(-231256 5059.76 7614.12)
(-231695 4994.57 7729.75)
(-232158 4921.7 7808.47)
(-232639 4841.08 7837.92)
(-233132 4752.48 7802.71)
(-233624 4656.17 7684.96)
(-234104 4552.88 7465.62)
(-234554 4444.35 7126.49)
(-234950 4333.64 6652.62)
(-235264 4225.09 6037.59)
(-235473 4123.46 5287.01)
(-235555 4032.74 4418.06)
(-235480 3955.75 3453.87)
(-235194 3895.4 2432.74)
(-234648 3855.95 1429.56)
(-233841 3840.07 571.862)
(-232838 3850.65 -1.3171)
(-231765 3881.24 -220.884)
(-230741 3925.31 -109.871)
(-229860 3978.81 259.535)
(-229160 4035.51 798.681)
(-228634 4086.23 1428.44)
(-228253 4125.12 2096.34)
(-227979 4151.73 2760.85)
(-227769 4167.59 3396.18)
(-227585 4171.47 3985.08)
(-227390 4162.95 4516.12)
(-227157 4143.35 4984.55)
(-226861 4115.15 5387.17)
(-226481 4080.81 5720.24)
(-225991 4042.45 5975.65)
(-225365 4002.98 6141.21)
(-224574 3964.26 6201.37)
(-223576 3926.28 6132.84)
(-222278 3882.87 5904.66)
(-220502 3817.13 5476.23)
(-218065 3701.83 4794.03)
(-215060 3513.66 3805.03)
(-212108 3215.19 2479.81)
(-209697 2732.66 699.029)
(-205996 1950.88 -1708.31)
(-195860 1012.03 -4654.92)
(-178039 523.727 -7660.86)
(-169766 680.612 -12596.9)
(-181056 120.711 -11111.8)
(-205283 4330.01 -29875.1)
(-467.11 11957.6 -3620.03)
(-236958 -3950.06 -2610.52)
(-236547 -3931.52 -2341.15)
(-236431 -3887.59 -2201.65)
(-236304 -3847.3 -2021.53)
(-236251 -3803.81 -1835.37)
(-236255 -3755.08 -1642.37)
(-236317 -3703.98 -1446.53)
(-236441 -3651.82 -1260.43)
(-236631 -3599.29 -1100.04)
(-236888 -3546.56 -984.121)
(-237208 -3494.59 -935.375)
(-237583 -3443.73 -979.694)
(-237999 -3394.17 -1144.79)
(-238433 -3345.76 -1458.37)
(-238850 -3297.84 -1944.66)
(-239208 -3249.58 -2620.37)
(-239448 -3199.49 -3489.26)
(-239514 -3145.19 -4536.7)
(-239359 -3084.13 -5733.49)
(-238930 -3015.66 -7049.46)
(-238138 -2938.43 -8446.04)
(-236876 -2851.72 -9823.26)
(-235122 -2752.7 -10975.2)
(-233031 -2640 -11653.2)
(-230886 -2515.52 -11736.9)
(-228953 -2386.66 -11291.9)
(-227399 -2263.04 -10466.3)
(-226291 -2151.14 -9409.06)
(-225627 -2054.59 -8244.93)
(-225367 -1976.03 -7062.66)
(-225456 -1916.35 -5918.34)
(-225844 -1873.13 -4842.02)
(-226485 -1845.42 -3845.37)
(-227345 -1834.38 -2930.6)
(-228400 -1838.83 -2097.98)
(-229635 -1857.74 -1349.27)
(-231037 -1890.01 -688.293)
(-232598 -1934.28 -123.347)
(-234313 -1989.14 330.956)
(-236177 -2053.16 653.069)
(-238178 -2125.42 811.357)
(-240263 -2206.74 763.183)
(-242283 -2309.47 455.185)
(-244026 -2461.57 -126.016)
(-245658 -2697.02 -1071.9)
(-247799 -3070.64 -2511.4)
(-250896 -3693.08 -4710.54)
(-252957 -4720.46 -8051.16)
(-248390 -6287.58 -12615.2)
(-235313 -8998.39 -18687.5)
(-221875 -14159.3 -31780.5)
(-222830 -20043.7 -52699.4)
(-200084 -13048.4 -75727.3)
(-56458.1 -6037.82 -22870.4)
(-231040 2255.38 5139.02)
(-231012 2160.96 5631.47)
(-231135 2109.2 5861.36)
(-231289 2037.78 6154.7)
(-231511 1960.49 6438.87)
(-231795 1876.38 6721.99)
(-232144 1783.84 6994.27)
(-232560 1681.23 7244.46)
(-233045 1568.23 7457.28)
(-233602 1445.38 7613.65)
(-234225 1313.14 7691.25)
(-234910 1172.78 7664.87)
(-235643 1026.54 7507.61)
(-236404 877.302 7192.99)
(-237165 729.048 6697.17)
(-237879 586.485 6002.98)
(-238490 454.943 5107.54)
(-238940 340.059 4028.06)
(-239181 246.672 2797.13)
(-239153 176.497 1446.14)
(-238762 130.538 14.2701)
(-237889 105.548 -1409.14)
(-236511 97.0369 -2627.22)
(-234769 99.7087 -3405.19)
(-232911 109.333 -3618.72)
(-231179 119.209 -3324.51)
(-229735 123.331 -2662.46)
(-228661 119.992 -1779.4)
(-227983 110.255 -801.016)
(-227691 96.6586 189.364)
(-227749 83.1859 1125.59)
(-228120 74.9425 1980.22)
(-228718 64.0887 2726.31)
(-229520 52.2996 3372.64)
(-230514 44.7379 3933.27)
(-231693 44.609 4413.55)
(-233062 54.907 4818.7)
(-234633 78.7074 5147.86)
(-236429 118.73 5393.3)
(-238479 177.236 5543.8)
(-240813 255.192 5586.56)
(-243441 351.617 5513.99)
(-246300 465.662 5293.19)
(-249340 592.847 4888.49)
(-252814 716.015 4256.03)
(-257593 795.807 3323.46)
(-264500 753.305 1962.12)
(-272225 472.752 -6.23828)
(-275987 -196.154 -3017.91)
(-273343 -1903.12 -8498.28)
(-275085 -5727.84 -20908.3)
(-317475 -7207.93 -43618.5)
(-282154 -13066.3 -101233)
(-189967 -11027.9 -34222.2)
(-246238 -2514.22 -1092.38)
(-245905 -2565.85 -645.121)
(-245746 -2577.05 -397.892)
(-245616 -2593.47 -143.342)
(-245533 -2613.32 96.6408)
(-245511 -2630.7 313.852)
(-245550 -2651.21 501.686)
(-245665 -2673.92 645.399)
(-245861 -2698.55 730.94)
(-246142 -2724.06 743.319)
(-246506 -2749.41 664.535)
(-246946 -2773.31 475.747)
(-247444 -2794.19 156.523)
(-247976 -2810.68 -315.854)
(-248504 -2822.19 -965.57)
(-248971 -2829.02 -1815.58)
(-249304 -2831.96 -2880.1)
(-249431 -2829.13 -4160.58)
(-249301 -2819.61 -5641.53)
(-248859 -2802.91 -7308.28)
(-247975 -2778.71 -9153.78)
(-246427 -2746.14 -11102.7)
(-244067 -2700.4 -12869.6)
(-241051 -2633.06 -14010.3)
(-237815 -2530.59 -14268.7)
(-234769 -2384.59 -13777.4)
(-232117 -2196.32 -12816.7)
(-229916 -1973.25 -11627.2)
(-228135 -1723.87 -10392.5)
(-226700 -1456.65 -9222.73)
(-225529 -1179.24 -8172.43)
(-224547 -897.816 -7259.49)
(-223696 -616.507 -6477.25)
(-222933 -333.165 -5809.75)
(-222234 -43.7111 -5238.47)
(-221582 251.546 -4744.37)
(-220969 552.829 -4307.2)
(-220396 856.149 -3905.21)
(-219869 1151.82 -3519.56)
(-219399 1427.9 -3137.45)
(-219004 1675.38 -2740.89)
(-218676 1884.35 -2314.26)
(-218354 2043.32 -1842.56)
(-217967 2136.64 -1308.55)
(-217668 2154.82 -754.808)
(-218305 2108.71 -212.34)
(-220808 2029.76 277.875)
(-223890 1941.37 605.563)
(-222834 1918.97 329.597)
(-217594 2013.35 -2139.78)
(-222498 1716.81 -11259.5)
(-265119 2576.57 -30856.9)
(-265174 -7690.06 -80595.1)
(-174889 8383.57 -10994.6)
(-231338 261.757 4500.03)
(-231148 161.81 5006.91)
(-231135 125.832 5273.74)
(-231115 73.3416 5577.15)
(-231156 18.4394 5857.25)
(-231244 -37.2908 6117.72)
(-231394 -97.3515 6348.03)
(-231610 -160.825 6536.41)
(-231902 -226.3 6669.04)
(-232276 -291.587 6731.25)
(-232735 -354.102 6706.86)
(-233277 -410.789 6578.89)
(-233897 -458.162 6329.57)
(-234579 -492.708 5940.12)
(-235294 -511.894 5390.53)
(-235998 -514.711 4662.18)
(-236624 -500.641 3745.82)
(-237108 -470.041 2650.04)
(-237405 -425.078 1398.12)
(-237485 -372.074 0.10015)
(-237310 -312.514 -1549)
(-236703 -240.462 -3173.89)
(-235564 -148.974 -4608.05)
(-234077 -28.9642 -5436.97)
(-232656 131.555 -5418.98)
(-231619 336.409 -4685.68)
(-231048 579.534 -3518)
(-230870 850.451 -2160.01)
(-230951 1139.57 -791.113)
(-231149 1439.14 486.92)
(-231352 1743.61 1624.97)
(-231511 2051.91 2624.84)
(-231620 2376.7 3508.7)
(-231800 2728.62 4308.05)
(-232042 3112 5023.95)
(-232368 3527.11 5657.46)
(-232786 3975.49 6214.49)
(-233291 4456.61 6708.5)
(-233907 4968.12 7154.11)
(-234670 5508.9 7559.74)
(-235618 6077.45 7933.35)
(-236761 6672.45 8281.82)
(-238049 7293.65 8612.75)
(-239460 7939 8937.53)
(-241323 8606.4 9264.12)
(-244692 9313.78 9593.82)
(-250870 10098.8 9960.4)
(-259129 10986.8 10437.7)
(-265544 11994.8 10799.1)
(-270666 13160.6 9758.04)
(-290780 14266.5 3595.25)
(-374454 15887.9 -14712.6)
(-505264 3855.35 -57779.9)
(-451053 -12249.5 -55737.9)
(-245809 -2289.65 -995.679)
(-245921 -2400.35 -578.276)
(-245851 -2464.92 -342.705)
(-245887 -2521.1 -93.3498)
(-245908 -2582.6 154.498)
(-245975 -2639.48 402.063)
(-246080 -2696.11 648.475)
(-246238 -2749.93 888.865)
(-246454 -2800.19 1116.19)
(-246735 -2845.89 1319.46)
(-247084 -2885.73 1480.89)
(-247502 -2918.36 1573.33)
(-247984 -2942.24 1557.76)
(-248522 -2955.9 1381.99)
(-249096 -2958.23 980.683)
(-249665 -2948.2 283.11)
(-250158 -2924.65 -765.535)
(-250504 -2884.54 -2192.5)
(-250666 -2820.79 -3990.07)
(-250616 -2727.39 -6128.47)
(-250218 -2607.74 -8596.03)
(-249103 -2471.18 -11357.6)
(-246880 -2344.45 -14085.7)
(-243669 -2259.07 -16010.5)
(-240213 -2217.78 -16513)
(-237208 -2194.5 -15813.2)
(-234863 -2165.01 -14557.6)
(-233153 -2122.6 -13138.4)
(-231974 -2061.74 -11799.8)
(-231184 -1977.6 -10657)
(-230669 -1869.49 -9747.01)
(-230342 -1738.72 -9068.1)
(-230152 -1582.11 -8601.71)
(-230079 -1399.58 -8326.77)
(-230122 -1202.03 -8225.03)
(-230292 -1004.82 -8280.68)
(-230608 -823.497 -8482.5)
(-231094 -670.748 -8824.53)
(-231789 -561.482 -9303.93)
(-232747 -515.862 -9918.87)
(-234026 -555.248 -10671.8)
(-235660 -705.757 -11566.4)
(-237608 -998.229 -12615)
(-239847 -1479.89 -13833.6)
(-242650 -2202.74 -15217.6)
(-247062 -3210.29 -16746.5)
(-254408 -4534.92 -18354.3)
(-263902 -6140.19 -19861.9)
(-271337 -7884.38 -20931.4)
(-278649 -9925.82 -22260.6)
(-302528 -11887.7 -24103.2)
(-394493 -12017.2 -32079.1)
(-576791 168.922 -29742.5)
(-413333 12984.1 -2563.66)
(-213617 103.047 2140.04)
(-213505 23.1 2532.99)
(-213537 -19.3604 2772.51)
(-213575 -47.7592 3036.49)
(-213679 -78.9724 3302.36)
(-213840 -102.579 3576.43)
(-214074 -122.397 3861.2)
(-214390 -135.655 4153.62)
(-214798 -141.25 4448.46)
(-215305 -138.05 4736.55)
(-215916 -124.781 5002.26)
(-216635 -100.497 5220.31)
(-217456 -64.6859 5352.57)
(-218372 -17.4173 5345.6)
(-219358 39.9642 5130.41)
(-220363 105.328 4629.18)
(-221304 176.619 3776.15)
(-222088 253.654 2535.22)
(-222633 338.461 911.694)
(-222846 436.426 -1045.23)
(-222405 553.975 -3309.1)
(-220879 678.408 -5861.46)
(-217761 783.629 -8405.32)
(-213128 845.049 -10149.7)
(-207840 875.94 -10380.3)
(-202839 916.338 -9268.66)
(-198579 990.919 -7471.7)
(-195203 1103.54 -5418.68)
(-192711 1254.47 -3386.26)
(-191007 1441.91 -1508.3)
(-189972 1660.53 167.849)
(-189487 1903.42 1642.21)
(-189466 2181.31 2946.57)
(-189656 2492.11 4086.6)
(-189905 2841.73 5076.84)
(-190119 3223.11 5940.59)
(-190279 3620.78 6685.67)
(-190398 4025.38 7312.96)
(-190470 4425.03 7821.88)
(-190513 4796.64 8212.38)
(-190576 5114.63 8484.24)
(-190656 5345.58 8628.91)
(-190701 5442.85 8619.7)
(-190643 5348.8 8458.87)
(-190866 4996.85 8150.12)
(-192691 4331.24 7692.44)
(-197769 3300.21 7078.14)
(-205291 1920.87 6340.94)
(-209710 282.063 5426.51)
(-210293 -1812.35 3153.78)
(-234217 -3200.83 3452.78)
(-345462 -3356.96 7186.63)
(-514533 7381.87 17528.6)
(-300309 5406.16 -14179.5)
(-237451 -3164.66 1542.53)
(-237569 -3321.22 2146.24)
(-237462 -3401.71 2474.35)
(-237430 -3489.48 2880.51)
(-237355 -3583.51 3292.01)