/*--------------------------------*- C++ -*----------------------------------*\
| =========                 |                                                 |
| \\      /  F ield         | OpenFOAM: The Open Source CFD Toolbox           |
|  \\    /   O peration     | Version:  4.1                                   |
|   \\  /    A nd           | Web:      www.OpenFOAM.org                      |
|    \\/     M anipulation  |                                                 |
\*---------------------------------------------------------------------------*/
FoamFile
{
    version     2.0;
    format      ascii;
    class       volScalarField;
    location    "54";
    object      omega;
}
// * * * * * * * * * * * * * * * * * * * * * * * * * * * * * * * * * * * * * //

dimensions      [0 0 -1 0 0 0 0];

internalField   nonuniform List<scalar> 
4432
(
0.0110949
0.0114468
0.0118133
0.0121557
0.0125112
0.0128437
0.0131894
0.0135082
0.0138442
0.0141458
0.0144743
0.0147571
0.0150781
0.015343
0.0156536
0.0159047
0.0162006
0.0164427
0.0167213
0.0169555
0.0172211
0.0174531
0.0177155
0.0179366
0.0181841
0.0183861
0.0186159
0.0188071
0.0190303
0.0192169
0.0194527
0.0196343
0.0198809
0.0200471
0.0202873
0.0204341
0.02066
0.0207807
0.0209795
0.0210922
0.0212555
0.0213479
0.0215144
0.0216586
0.0218404
0.0220626
0.0222495
0.0225631
0.0228135
0.0231936
0.023566
0.0238758
0.0238416
0.0239256
0.0110845
0.0114563
0.0118084
0.0121588
0.012511
0.0128412
0.0131928
0.013502
0.0138509
0.0141375
0.0144851
0.0147475
0.015094
0.0153322
0.0156744
0.0158929
0.0162251
0.0164308
0.0167476
0.0169451
0.0172432
0.017443
0.0177301
0.0179286
0.0182
0.01839
0.0186459
0.0188255
0.0190711
0.0192449
0.0194962
0.0196665
0.0199218
0.0200792
0.0203284
0.0204741
0.0207062
0.0208314
0.0210378
0.0211567
0.0213366
0.0214854
0.0216422
0.0218534
0.0219529
0.0221287
0.0222898
0.0224877
0.0227629
0.0230734
0.0232428
0.0232862
0.023306
0.0232103
21.7969
3.38064
1.2291
0.663672
0.436581
0.320515
0.251649
0.206541
0.174889
0.15152
0.133605
0.119438
0.107984
0.0985168
0.0905923
0.083839
0.0780497
0.0730004
0.0685925
0.0646813
0.0612224
0.0581164
0.0553294
0.0528012
0.050487
0.0483789
0.0464163
0.0446377
0.0429675
0.0414737
0.0400604
0.0388037
0.0375894
0.0365026
0.0354104
0.0344363
0.033425
0.0325444
0.0315928
0.0308167
0.0299602
0.0292845
0.0285319
0.0279793
0.0273378
0.0268645
0.0263035
0.0259133
0.0254586
0.0251672
0.0248825
0.0245631
0.0244281
0.0237602
21.7969
3.38067
1.22913
0.663688
0.436586
0.320515
0.251646
0.206539
0.174884
0.151518
0.133599
0.119436
0.107977
0.0985154
0.0905871
0.0838381
0.0780452
0.0729981
0.0685891
0.0646775
0.0612189
0.058106
0.0553234
0.0527836
0.0504859
0.0483684
0.0464324
0.0446497
0.0430061
0.0415055
0.0401011
0.0388321
0.037603
0.0365079
0.0353949
0.0344279
0.0334024
0.0325472
0.0315968
0.0308403
0.0299835
0.0293407
0.0285931
0.0280689
0.0274029
0.0269624
0.0263834
0.0260241
0.0255517
0.0252421
0.025004
0.0243968
0.0242425
0.0236309
21.7965
3.38078
1.22928
0.663872
0.436784
0.320698
0.251823
0.206717
0.175068
0.151709
0.133795
0.11964
0.108183
0.0987292
0.0907962
0.0840585
0.0782532
0.0732187
0.0687913
0.0648932
0.0614182
0.0583287
0.0555367
0.0530214
0.0507104
0.0486057
0.0466501
0.0448676
0.0432041
0.0416935
0.0402789
0.0389964
0.0377796
0.0366693
0.0355937
0.0346068
0.0336299
0.032755
0.0318607
0.0310862
0.0302694
0.0296053
0.0288724
0.0283047
0.0276413
0.0271635
0.0265839
0.026145
0.025683
0.0253104
0.0249764
0.0247367
0.0244843
0.0239419
21.7965
3.3808
1.22931
0.663885
0.436788
0.320698
0.25182
0.206714
0.175066
0.151705
0.133793
0.119634
0.108181
0.0987225
0.0907973
0.08405
0.0782567
0.0732077
0.068796
0.0648829
0.0614264
0.0583188
0.0555401
0.0530086
0.0507074
0.0485988
0.0466534
0.0448816
0.043221
0.0417279
0.0402993
0.0390294
0.0377846
0.0366877
0.0355822
0.0346163
0.0336193
0.0327654
0.0318572
0.031114
0.0302945
0.0296599
0.028921
0.0283734
0.0277078
0.0272373
0.0266379
0.0262433
0.0257331
0.0254393
0.0249757
0.0247885
0.0244821
0.0240874
21.7966
3.38071
1.22922
0.663816
0.436734
0.320653
0.251779
0.206676
0.175027
0.151669
0.133753
0.119601
0.108141
0.0986907
0.0907549
0.0840175
0.0782094
0.0731725
0.0687437
0.0648554
0.0613862
0.0583111
0.0555248
0.0530182
0.0507111
0.0486062
0.0466583
0.0448684
0.0432118
0.0416847
0.0402662
0.0389629
0.037744
0.0366303
0.0355655
0.0345893
0.0336349
0.0327669
0.0319005
0.0311449
0.0303679
0.0296938
0.0289799
0.028346
0.0277103
0.0271104
0.0265778
0.0260471
0.0256395
0.0251903
0.0248194
0.0244459
0.0242987
0.0240478
21.7966
3.38073
1.22924
0.663826
0.436736
0.320651
0.251776
0.206673
0.175024
0.151665
0.133752
0.119597
0.10814
0.0986866
0.0907536
0.0840153
0.0782069
0.0731728
0.0687447
0.0648591
0.0613868
0.0583089
0.055513
0.0530064
0.0506912
0.0486012
0.0466461
0.0448842
0.0432139
0.0417218
0.04028
0.0390142
0.0377571
0.0366754
0.0355601
0.0346194
0.0336143
0.0327854
0.0318842
0.0311563
0.0303487
0.0296937
0.0289647
0.0283605
0.0277174
0.0271478
0.0266443
0.0261111
0.0257492
0.0252245
0.0249508
0.024438
0.02454
0.0239123
21.7967
3.38069
1.22919
0.663792
0.436711
0.320631
0.251757
0.206653
0.175004
0.151643
0.13373
0.119571
0.108116
0.0986544
0.0907274
0.0839747
0.0781769
0.0731253
0.0687166
0.0648093
0.0613613
0.058261
0.0554956
0.0529704
0.0506906
0.0485784
0.0466537
0.0448601
0.0432148
0.0416854
0.0402667
0.0389641
0.0377313
0.0366235
0.0355375
0.0345857
0.0336107
0.0327734
0.0318963
0.0311567
0.0303654
0.0296918
0.0289606
0.0283298
0.0276616
0.0270811
0.0265414
0.0260311
0.0255985
0.0251427
0.0248193
0.0242842
0.0241645
0.0238038
21.7967
3.3807
1.22921
0.6638
0.436713
0.320627
0.251756
0.206648
0.175004
0.151637
0.133731
0.119565
0.108116
0.0986494
0.0907273
0.0839711
0.078178
0.0731256
0.0687203
0.0648125
0.0613619
0.0582579
0.0554875
0.0529597
0.050679
0.0485703
0.046652
0.0448636
0.0432294
0.0417026
0.0402974
0.0389897
0.0377664
0.0366416
0.0355608
0.0345891
0.0336176
0.0327726
0.0318888
0.0311451
0.0303374
0.0296662
0.0289231
0.0283073
0.0276334
0.0271073
0.0265077
0.026098
0.025532
0.0252163
0.024666
0.0243745
0.0240294
0.0237566
21.7967
3.38066
1.22915
0.663758
0.436684
0.320607
0.251732
0.206629
0.174977
0.151616
0.133698
0.119538
0.108077
0.0986154
0.0906804
0.0839304
0.0781256
0.0730823
0.0686653
0.0647671
0.0613049
0.0582085
0.0554373
0.052926
0.0506593
0.0485627
0.0466556
0.0448582
0.0432307
0.0416789
0.0402869
0.0389414
0.0377454
0.0365763
0.0355492
0.0345345
0.0336384
0.0327337
0.0319306
0.0311013
0.0303767
0.0296112
0.028958
0.0282497
0.0276748
0.0270612
0.0266037
0.0260825
0.0256872
0.0252062
0.0248211
0.0243729
0.0241822
0.0235184
21.7966
3.38068
1.22917
0.663767
0.436686
0.320605
0.25173
0.206625
0.174975
0.151612
0.133696
0.119536
0.108075
0.0986142
0.0906802
0.0839293
0.0781292
0.0730816
0.0686719
0.0647646
0.0613113
0.058207
0.0554388
0.0529191
0.0506491
0.0485519
0.0466446
0.0448599
0.0432371
0.0416995
0.0403111
0.038972
0.0377792
0.0366073
0.0355807
0.0345494
0.0336537
0.0327282
0.0319281
0.0310839
0.0303689
0.0295825
0.0289552
0.0282164
0.0276946
0.0270125
0.0266158
0.0259986
0.0256575
0.0250665
0.0247973
0.0242271
0.0240544
0.0233261
21.7967
3.38065
1.22913
0.663734
0.436661
0.320584
0.251707
0.206602
0.174947
0.151586
0.13366
0.119505
0.10803
0.0985791
0.0906237
0.0838897
0.0780598
0.0730391
0.0685937
0.0647221
0.0612284
0.058161
0.0553627
0.0528839
0.0506049
0.0485433
0.0466301
0.0448606
0.0432222
0.0416866
0.0402759
0.0389437
0.0377261
0.0365773
0.0355262
0.0345315
0.0336156
0.0327298
0.0319079
0.0310836
0.0303517
0.0295703
0.0289339
0.0282034
0.0276797
0.0270175
0.026629
0.0260294
0.0256864
0.0250942
0.0247571
0.024121
0.0238625
0.0229854
21.7966
3.38067
1.22914
0.663743
0.436663
0.320583
0.251704
0.206601
0.174943
0.151584
0.133657
0.119502
0.10803
0.098575
0.0906276
0.0838844
0.0780697
0.0730309
0.0686081
0.0647097
0.0612454
0.0581477
0.0553781
0.0528701
0.0506105
0.0485278
0.0466322
0.0448562
0.0432337
0.0416963
0.0403025
0.0389603
0.037768
0.0365899
0.0355718
0.0345294
0.0336473
0.0327083
0.0319227
0.0310665
0.0303511
0.0295686
0.0289313
0.0282151
0.0276787
0.0270298
0.0266158
0.025991
0.0256435
0.0250211
0.0246741
0.0240497
0.023676
0.0231106
21.7966
3.38062
1.22908
0.663696
0.436633
0.320556
0.251683
0.206571
0.17492
0.151546
0.133631
0.119454
0.107997
0.0985158
0.090585
0.0838142
0.0780143
0.0729512
0.0685406
0.0646276
0.0611705
0.058069
0.0553017
0.0528123
0.0505661
0.0485124
0.046627
0.0448619
0.0432316
0.0416917
0.0402715
0.038944
0.0377104
0.0365815
0.0355004
0.0345404
0.0335792
0.0327428
0.0318733
0.0311149
0.0303093
0.0296153
0.0288834
0.0282682
0.0276297
0.0270901
0.0265633
0.0260138
0.0255845
0.0249504
0.0245639
0.0239379
0.0236184
0.0228079
21.7966
3.38064
1.22909
0.663704
0.436634
0.320557
0.251678
0.206574
0.174912
0.151552
0.13362
0.119463
0.107985
0.0985276
0.0905742
0.0838286
0.0780051
0.0729684
0.0685324
0.064643
0.0611631
0.0580835
0.0553001
0.0528213
0.0505552
0.0485106
0.046606
0.044865
0.043224
0.0417132
0.040294
0.0389782
0.0377581
0.0366073
0.0355595
0.0345433
0.0336325
0.0327218
0.0319071
0.0310766
0.0303308
0.0295779
0.0289076
0.0282321
0.0276571
0.0270406
0.0265624
0.0259417
0.0255397
0.0248512
0.0245214
0.0238212
0.0235946
0.022857
21.7966
3.3806
1.22905
0.663668
0.436609
0.320533
0.251657
0.206543
0.174888
0.151513
0.13359
0.119414
0.107946
0.0984688
0.0905224
0.0837578
0.0779389
0.0728835
0.0684546
0.0645491
0.061076
0.0579785
0.055205
0.052729
0.0504941
0.0484716
0.0466075
0.0448734
0.0432587
0.041726
0.0403166
0.0389764
0.0377527
0.0365942
0.0355289
0.0345268
0.0335953
0.0327137
0.031889
0.0310827
0.0303286
0.0295926
0.0288958
0.0282719
0.0276281
0.0270923
0.0265082
0.025968
0.0254869
0.0248933
0.0245161
0.0239277
0.0237761
0.0230214
21.7966
3.38062
1.22906
0.663675
0.436609
0.320533
0.251654
0.206545
0.174883
0.151516
0.133584
0.119419
0.107941
0.0984745
0.0905186
0.0837646
0.0779381
0.0728917
0.0684534
0.0645551
0.0610728
0.0579872
0.0552088
0.0527392
0.0504955
0.0484718
0.0465992
0.0448753
0.0432566
0.0417476
0.0403356
0.0390107
0.0377896
0.0366275
0.0355744
0.0345487
0.0336339
0.0327179
0.0319051
0.0310722
0.0303305
0.0295756
0.0289047
0.0282389
0.0276449
0.027048
0.0265046
0.0259338
0.0254478
0.0248646
0.0244949
0.0238606
0.0236343
0.0228622
21.7966
3.38056
1.22899
0.663623
0.436578
0.320507
0.25163
0.206516
0.174856
0.151478
0.133551
0.119371
0.107897
0.0984133
0.0904628
0.0836878
0.0778657
0.0727966
0.0683634
0.0644378
0.0609678
0.057851
0.0550996
0.052618
0.0504325
0.0484342
0.0466227
0.044926
0.0433323
0.0418293
0.0404016
0.0390732
0.0378106
0.0366616
0.0355592
0.0345679
0.0336103
0.0327404
0.0319056
0.0311081
0.0303616
0.0296181
0.0289434
0.0282897
0.0276532
0.0271093
0.0265101
0.0260166
0.025587
0.0250158
0.0246856
0.024463
0.0244295
0.0243839
21.7966
3.38058
1.229
0.663629
0.43658
0.320506
0.251631
0.206513
0.174858
0.151475
0.133555
0.119366
0.107904
0.0984079
0.0904729
0.0836817
0.0778796
0.0727888
0.0683799
0.0644282
0.0609834
0.0578502
0.0551236
0.0526288
0.0504499
0.0484357
0.0466249
0.044915
0.0433326
0.0418248
0.0404203
0.0390873
0.037856
0.0366864
0.0356179
0.034591
0.0336643
0.0327502
0.0319315
0.0311024
0.0303542
0.0296088
0.0289191
0.0282744
0.0276274
0.0270714
0.0264461
0.0259884
0.0254195
0.0249893
0.0247891
0.0239321
0.0236366
0.0234409
21.7966
3.38054
1.22895
0.663592
0.436553
0.320486
0.251605
0.206493
0.174821
0.151453
0.133504
0.119341
0.107836
0.0983751
0.0903848
0.0836353
0.077769
0.072722
0.0682427
0.0643413
0.0608304
0.0577415
0.0549672
0.0525254
0.0503811
0.0484324
0.0467031
0.0450528
0.0435333
0.042039
0.0406464
0.0392771
0.0380429
0.0368165
0.0357655
0.0346839
0.0337903
0.0328487
0.0320323
0.0312642
0.0304044
0.0298455
0.029061
0.0283623
0.0279291
0.026834
0.0266397
0.0269265
0.0271647
0.0277726
0.0269245
0.0270761
0.0288599
0.0284148
21.7965
3.38055
1.22896
0.663597
0.436554
0.320484
0.251605
0.206491
0.174824
0.15145
0.133508
0.119337
0.107841
0.0983727
0.0903909
0.0836349
0.0777753
0.0727233
0.0682495
0.0643382
0.0608412
0.0577394
0.0549965
0.0525341
0.0504135
0.0484324
0.0467181
0.0450337
0.0435268
0.0420153
0.0406393
0.0392787
0.0380406
0.0368461
0.0357605
0.0347176
0.0337743
0.0328457
0.0320165
0.0311765
0.0304218
0.0296793
0.0289751
0.0283647
0.0278251
0.027047
0.0265178
0.0263458
0.0254015
0.0255772
0.0265608
0.0258617
0.0259784
0.0261031
21.7965
3.3805
1.22888
0.663542
0.43652
0.320464
0.251577
0.206475
0.174784
0.151435
0.133451
0.119324
0.107762
0.0983589
0.0902819
0.0836158
0.0776279
0.0726917
0.0680554
0.0642931
0.0605966
0.0576839
0.0547479
0.0525026
0.05044
0.0487183
0.0472651
0.045855
0.0444809
0.0430668
0.041673
0.040333
0.0390266
0.0378506
0.0366753
0.0357284
0.0346159
0.0339184
0.0330167
0.0319555
0.0313512
0.0300331
0.0299573
0.0304483
0.0301267
0.0325133
0.0301731
0.0304289
0.0325216
0.034367
0.0357907
0.0361506
0.0358159
0.0356769
21.7965
3.38051
1.22889
0.663547
0.436522
0.320464
0.251578
0.206475
0.174786
0.151435
0.133454
0.119324
0.107765
0.0983616
0.0902826
0.0836243
0.0776232
0.0727084
0.0680422
0.0643167
0.0605796
0.0577034
0.0547534
0.0525358
0.0504613
0.048733
0.0471958
0.0456668
0.0442354
0.0427669
0.0413924
0.0400341
0.0387718
0.0375711
0.0364536
0.0353935
0.0344185
0.0334923
0.0326369
0.0317408
0.0310627
0.0296619
0.0291654
0.0290877
0.0290748
0.0280292
0.0288805
0.029716
0.0306961
0.0333178
0.0321286
0.0325913
0.0329685
0.0332897
21.7965
3.38047
1.22884
0.663512
0.4365
0.320446
0.251561
0.206453
0.174765
0.151406
0.133426
0.119288
0.107725
0.0983171
0.0902206
0.0835728
0.0775199
0.072659
0.0678565
0.0643021
0.0602508
0.0578484
0.0542741
0.0533908
0.0510001
0.0521657
0.0532016
0.053741
0.0520355
0.0508142
0.0490454
0.0474954
0.0461575
0.0448963
0.0442206
0.0415295
0.0407839
0.0403419
0.0419332
0.0407195
0.0409162
0.0416499
0.0429364
0.0459056
0.0451512
0.0460808
0.0460922
0.0464048
0.0456997
0.0449943
0.0449565
0.0441861
0.0423971
0.0403747
21.7964
3.38048
1.22885
0.663516
0.4365
0.320448
0.251557
0.20646
0.174757
0.151421
0.13341
0.119312
0.1077
0.0983528
0.0901863
0.0836192
0.0774799
0.0727103
0.0678207
0.0643412
0.06024
0.0578254
0.0544025
0.0531474
0.0512256
0.0514815
0.0512877
0.0499004
0.0488064
0.047284
0.0456052
0.0441567
0.0426532
0.0415094
0.0400716
0.0393912
0.0377182
0.0373893
0.0359514
0.0359235
0.0359588
0.0364872
0.0369215
0.0393035
0.038059
0.03858
0.0411686
0.0407062
0.0420054
0.042518
0.0421229
0.0415879
0.0412106
0.0397074
21.7964
3.38042
1.22877
0.66346
0.436481
0.320411
0.251574
0.206394
0.174808
0.151304
0.13351
0.119127
0.107859
0.0980823
0.0904132
0.0832453
0.0777783
0.0722002
0.0682008
0.0636248
0.0607238
0.0569068
0.0553074
0.0547618
0.0608259
0.128804
0.124769
0.125554
0.125613
0.120187
0.119384
0.116893
0.11388
0.111088
0.108536
0.106314
0.104112
0.101631
0.0989241
0.0955885
0.0920753
0.0877849
0.0835572
0.078535
0.0735921
0.0679418
0.0628149
0.0570125
0.0523093
0.0468922
0.0428661
0.0385775
0.0358476
0.0332865
21.7964
3.38044
1.22878
0.663464
0.436482
0.320415
0.251571
0.206402
0.174802
0.151318
0.133498
0.119147
0.107843
0.0981079
0.0903936
0.0832748
0.0777583
0.0722317
0.0681803
0.0636726
0.0606541
0.0570228
0.055211
0.0548256
0.0605714
0.100098
0.102863
0.10502
0.106231
0.105241
0.103752
0.103268
0.101498
0.0993227
0.0973377
0.0954448
0.0939604
0.0922648
0.0905821
0.0884988
0.0864023
0.0835761
0.0808531
0.0772876
0.0739105
0.0694973
0.0653596
0.060362
0.0560986
0.051242
0.0473288
0.0427105
0.0389031
0.0360993
21.7964
3.3804
1.22873
0.663434
0.436467
0.320402
0.251566
0.206384
0.1748
0.151288
0.133503
0.119099
0.10786
0.0980309
0.0904298
0.0831538
0.0778256
0.0720238
0.0683489
0.0631768
0.0612759
0.0556042
0.0569551
0.0615145
0.254076
0.327775
0.162667
0.110858
0.103973
0.0976115
0.0910527
0.0853777
0.0803251
0.0753866
0.0703918
0.0653911
0.0606895
0.056187
0.0525457
0.049743
0.0477164
0.0459436
0.0453121
0.0428308
0.0424602
0.0421032
0.0418007
0.0406289
0.0398
0.0386719
0.0375368
0.0355019
0.0328231
0.0307106
21.7963
3.38041
1.22874
0.663437
0.436469
0.320402
0.251569
0.206384
0.174805
0.151288
0.133509
0.119099
0.107866
0.0980333
0.0904339
0.0831611
0.0778231
0.0720587
0.0682571
0.063508
0.0603491
0.0567828
0.0562865
0.0600176
0.193855
0.316713
0.186389
0.106325
0.0902155
0.0871414
0.0847801
0.0820509
0.0785131
0.0744283
0.0702351
0.0661406
0.0622907
0.0586794
0.0553466
0.0523551
0.0499121
0.0476697
0.0459903
0.0443243
0.043334
0.0420778
0.0411286
0.0397791
0.0383447
0.0367149
0.0350727
0.0335514
0.0313808
0.0296087
21.7963
3.38035
1.22866
0.663388
0.436447
0.320392
0.251563
0.206377
0.1748
0.151276
0.133507
0.119081
0.107867
0.0980067
0.090438
0.0831249
0.0778285
0.0720149
0.0682577
0.0634683
0.060368
0.056731
0.055999
0.119358
0.166545
0.174787
0.133929
0.11908
0.112177
0.108208
0.104663
0.101265
0.0982389
0.0955346
0.093138
0.0907788
0.0883138
0.0851408
0.0814669
0.0773977
0.0729851
0.0684649
0.0636568
0.0589468
0.0539373
0.0491992
0.0441282
0.0393626
0.0345875
0.0307769
0.0276929
0.025559
0.0239785
21.7962
3.38037
1.22866
0.663391
0.436449
0.320394
0.251565
0.206381
0.174801
0.151285
0.133504
0.119093
0.107864
0.0980157
0.0904451
0.0831216
0.0778514
0.0719996
0.068316
0.0633019
0.0610281
0.0557509
0.0586872
0.118353
0.176001
0.200878
0.152331
0.131413
0.118643
0.110984
0.105615
0.101083
0.0970833
0.0935005
0.0903439
0.087264
0.0840005
0.0806074
0.0771215
0.0735131
0.0696554
0.065764
0.0616251
0.0575286
0.0530866
0.0489103
0.044358
0.0401777
0.0357516
0.0320829
0.0287444
0.0262967
0.0245802
21.7962
3.38033
1.22862
0.663369
0.436436
0.3204
0.251551
0.206401
0.174774
0.15132
0.133461
0.119149
0.107798
0.0981026
0.0903456
0.083254
0.0777108
0.0721917
0.0681329
0.0636107
0.060623
0.0569096
0.0552463
0.057901
0.0968936
0.115983
0.116931
0.117008
0.113708
0.108741
0.10202
0.095324
0.0885289
0.0816553
0.0747247
0.0678585
0.0612273
0.0551672
0.0499451
0.0454297
0.0415572
0.0381785
0.0353671
0.0328697
0.0308888
0.029053
0.0277032
0.0263616
0.0254551
0.0244752
0.0238483
0.0231366
0.0225798
0.0220171
21.7962
3.38035
1.22863
0.663372
0.436439
0.320401
0.251555
0.206401
0.174781
0.15132
0.133468
0.119151
0.107803
0.0981094
0.0903461
0.0832677
0.0777064
0.0722142
0.0681202
0.0636489
0.0606008
0.0569329
0.0552262
0.0579695
0.0903644
0.0883349
0.0889298
0.0875367
0.0861531
0.0835666
0.0799381
0.0759839
0.0717668
0.0672899
0.0626243
0.0578481
0.0532821
0.0492194
0.0455068
0.0422013
0.0392093
0.0365493
0.034227
0.0321515
0.0304474
0.0288498
0.0276706
0.0264365
0.0256641
0.0246914
0.024171
0.0233707
0.0229494
0.0223069
21.7961
3.38028
1.22855
0.663332
0.436418
0.32041
0.251539
0.206436
0.174742
0.15139
0.13339
0.119274
0.107668
0.0983086
0.0901361
0.0835689
0.0774063
0.0726442
0.0677285
0.0642377
0.060137
0.0576949
0.0542224
0.0531906
0.0503975
0.0507626
0.0503682
0.0488268
0.0470041
0.0451304
0.0432929
0.0415689
0.0399373
0.0384338
0.0370199
0.0357227
0.034508
0.033389
0.0323491
0.0313633
0.0304646
0.0295734
0.0288026
0.0279735
0.0273061
0.0265148
0.0259296
0.0251709
0.0246693
0.0239499
0.0235027
0.0228209
0.0224813
0.021707
21.7961
3.3803
1.22856
0.663335
0.436421
0.320414
0.251541
0.206442
0.174745
0.151397
0.133395
0.119278
0.107678
0.0983066
0.0901563
0.0835563
0.0774408
0.0726208
0.067778
0.0642053
0.0602
0.0576592
0.0543179
0.0530124
0.0509211
0.0504738
0.0490504
0.0475881
0.0458095
0.0440878
0.0424429
0.0408793
0.0394263
0.0380465
0.0367601
0.0355531
0.0344161
0.0333683
0.0323605
0.0314317
0.0305383
0.0296927
0.0289107
0.0281181
0.0274338
0.026675
0.0260926
0.0253542
0.024867
0.0241433
0.0237226
0.022988
0.0226936
0.0219273
21.7961
3.38027
1.22852
0.663318
0.436421
0.320416
0.251555
0.206443
0.174769
0.15139
0.133435
0.119263
0.10774
0.0982815
0.0902453
0.0835246
0.0775652
0.0725871
0.0679569
0.0641668
0.0604646
0.0575313
0.054613
0.0523712
0.0502308
0.048436
0.0467801
0.045141
0.0436025
0.0421335
0.0407426
0.0394071
0.0381371
0.0369181
0.0357612
0.0346509
0.0336091
0.0326072
0.0316787
0.0307694
0.0299471
0.0291152
0.0283936
0.0276163
0.0269806
0.0262417
0.0256773
0.0249727
0.0244809
0.0237937
0.0234118
0.0227018
0.0224507
0.0216498
21.796
3.38028
1.22853
0.663321
0.436423
0.32042
0.251556
0.206451
0.174768
0.151402
0.133433
0.119276
0.107738
0.0982938
0.0902476
0.0835324
0.0775765
0.072588
0.0679801
0.0641617
0.0604985
0.0575299
0.0546422
0.0523677
0.0502552
0.0484632
0.0467272
0.0450946
0.0435303
0.042066
0.0406812
0.0393473
0.0380946
0.0368762
0.0357332
0.0346369
0.0336003
0.0326232
0.0316882
0.0308095
0.029978
0.0291719
0.0284444
0.0276886
0.0270512
0.0263381
0.0257784
0.0250991
0.0246038
0.0239675
0.0235166
0.0229097
0.0226373
0.0218147
21.796
3.38023
1.22846
0.663288
0.436415
0.320424
0.251568
0.206459
0.174789
0.151409
0.133464
0.119281
0.107786
0.0982961
0.0903182
0.0835341
0.0776761
0.0725955
0.068117
0.064185
0.0606726
0.057568
0.0547951
0.0523307
0.0501491
0.0481469
0.0463463
0.0446418
0.0430868
0.0416029
0.0402312
0.0389065
0.037672
0.0364694
0.0353567
0.0342729
0.0332817
0.0323101
0.0314258
0.0305483
0.0297639
0.0289592
0.028262
0.0275063
0.0268836
0.0261647
0.0256047
0.0249341
0.0244244
0.0238189
0.0233707
0.0228702
0.0225474
0.0219791
21.7959
3.38024
1.22847
0.663291
0.436419
0.320427
0.251574
0.206463
0.174797
0.151414
0.133472
0.119288
0.107792
0.0983055
0.0903227
0.0835473
0.0776803
0.0726129
0.068121
0.0642079
0.0606735
0.0575987
0.0547877
0.0523575
0.0501408
0.0481771
0.0463546
0.0446723
0.0431017
0.0416231
0.0402485
0.0389204
0.0376905
0.0364926
0.0353821
0.0343174
0.0333133
0.0323704
0.0314636
0.0306176
0.0298104
0.0290287
0.0283226
0.0275805
0.026961
0.0262597
0.0257028
0.0250405
0.0245498
0.0239274
0.0235395
0.0229477
0.022772
0.0219373
21.7959
3.38021
1.22844
0.663282
0.436423
0.320438
0.251585
0.20648
0.174811
0.151436
0.133492
0.119315
0.107822
0.0983386
0.0903657
0.0835868
0.0777424
0.0726609
0.0682069
0.0642658
0.0607819
0.0576538
0.0548888
0.0523726
0.0501437
0.0480835
0.0462368
0.0444966
0.0429203
0.0414189
0.040047
0.0387202
0.037501
0.0363076
0.0352165
0.034144
0.0331694
0.0322076
0.0313325
0.0304679
0.0296849
0.0288914
0.0281924
0.0274446
0.0268275
0.0261252
0.0255821
0.0249234
0.0244537
0.0238393
0.0234563
0.0229397
0.0226661
0.0218414
21.7959
3.38023
1.22845
0.663285
0.436426
0.320442
0.25159
0.206485
0.174818
0.151441
0.1335
0.11932
0.10783
0.0983446
0.0903737
0.0835954
0.0777502
0.0726738
0.0682148
0.0642832
0.0607902
0.0576737
0.0548972
0.0523909
0.0501512
0.0481084
0.0462575
0.0445274
0.0429481
0.0414446
0.0400715
0.0387405
0.0375236
0.0363375
0.0352421
0.0341933
0.0331946
0.0322732
0.0313598
0.0305434
0.0297152
0.0289703
0.0282322
0.0275274
0.0268816
0.0262127
0.0256378
0.0250178
0.0245133
0.0239335
0.0235171
0.0230093
0.0226757
0.0219122
21.7958
3.38018
1.22839
0.663258
0.436423
0.320449
0.251604
0.2065
0.174837
0.15146
0.133525
0.119344
0.107864
0.0983731
0.0904194
0.0836294
0.0778103
0.0727148
0.0682884
0.064332
0.0608671
0.0577254
0.0549539
0.0524164
0.0501573
0.048073
0.0461873
0.0444355
0.0428262
0.0413181
0.0399207
0.0385965
0.0373658
0.0361885
0.0350846
0.0340331
0.0330335
0.0321
0.0311967
0.0303672
0.0295488
0.0288035
0.0280583
0.0273854
0.0267161
0.0261048
0.0255107
0.0249512
0.0244206
0.0238518
0.0234597
0.0228121
0.0225976
0.0218791
21.7958
3.38019
1.22839
0.663261
0.436427
0.320455
0.251609
0.206508
0.174841
0.15147
0.133529
0.119355
0.107866
0.0983869
0.0904217
0.083646
0.0778132
0.0727342
0.0682934
0.0643528
0.0608764
0.0577453
0.0549674
0.0524324
0.0501811
0.0480872
0.0462245
0.0444549
0.0428691
0.0413414
0.0399619
0.0386236
0.037403
0.03622
0.0351224
0.034077
0.033077
0.032162
0.0312423
0.0304423
0.0295936
0.0288822
0.0281043
0.0274635
0.0267552
0.0261781
0.0255334
0.0250068
0.0244345
0.0239156
0.0234519
0.0228789
0.0225264
0.0219763
21.7958
3.38017
1.22838
0.663256
0.436434
0.320466
0.251626
0.206521
0.174865
0.151484
0.133559
0.119372
0.107906
0.0984077
0.0904709
0.083672
0.0778706
0.0727666
0.0683558
0.0643901
0.0609367
0.0577775
0.0550096
0.0524493
0.050182
0.0480711
0.046176
0.0444023
0.0427781
0.0412595
0.0398393
0.0385189
0.0372682
0.0360988
0.0349938
0.0339352
0.0329639
0.0319957
0.0311489
0.0302573
0.029517
0.0286915
0.028038
0.0272768
0.02669
0.025994
0.0254676
0.0248468
0.0243208
0.0238145
0.0233373
0.0227564
0.022476
0.0216486
21.7957
3.38018
1.22838
0.66326
0.436438
0.320471
0.251631
0.206528
0.17487
0.151493
0.133564
0.119383
0.107909
0.0984215
0.0904716
0.0836903
0.0778697
0.0727896
0.0683551
0.0644163
0.0609381
0.0578046
0.0550171
0.0524769
0.0501932
0.0481034
0.0461926
0.044435
0.0428023
0.0412903
0.0398709
0.0385493
0.0373023
0.0361343
0.0350269
0.033987
0.0329954
0.0320678
0.0311755
0.0303453
0.0295364
0.0287907
0.0280517
0.0273806
0.0266991
0.026104
0.0254664
0.0249322
0.0243661
0.0238335
0.0233855
0.0227798
0.0225233
0.0217154
21.7957
3.38014
1.22834
0.663241
0.436439
0.320481
0.251644
0.206544
0.174887
0.151513
0.133585
0.119408
0.107934
0.0984523
0.0905008
0.0837265
0.0779025
0.0728294
0.0683888
0.0644558
0.0609672
0.057838
0.0550333
0.0524876
0.0501877
0.0480812
0.0461524
0.0443805
0.0427266
0.0412112
0.0397634
0.0384532
0.0371721
0.036028
0.034889
0.033869
0.0328599
0.031931
0.0310492
0.0301899
0.029426
0.0286224
0.0279587
0.0272
0.026615
0.0258972
0.0253921
0.0246928
0.024277
0.0236782
0.0232189
0.0225948
0.0222605
0.0215747
21.7957
3.38016
1.22834
0.663245
0.436443
0.320486
0.25165
0.206552
0.174893
0.151523
0.133589
0.119421
0.107937
0.0984679
0.0905021
0.0837459
0.0779033
0.0728534
0.0683899
0.0644845
0.0609694
0.0578713
0.0550362
0.0525237
0.0501988
0.0481147
0.046175
0.0444112
0.0427613
0.041238
0.0398128
0.0384786
0.037234
0.0360554
0.034955
0.0339065
0.0329241
0.0319849
0.0311109
0.0302538
0.0294891
0.0286841
0.0280264
0.0272585
0.026691
0.02596
0.0254614
0.0247733
0.0243503
0.0236826
0.0233344
0.0227079
0.0224356
0.0215501
21.7956
3.38013
1.22833
0.663245
0.436451
0.320498
0.251666
0.206564
0.174913
0.151536
0.133614
0.119435
0.107967
0.0984852
0.0905377
0.0837655
0.0779417
0.0728733
0.068428
0.0645007
0.0610028
0.0578763
0.0550574
0.0525146
0.0501952
0.0480849
0.0461424
0.0443609
0.0426992
0.0411723
0.0397217
0.0384013
0.0371174
0.0359693
0.0348246
0.0338099
0.0327937
0.0318727
0.0309886
0.0301279
0.0293739
0.0285586
0.0279132
0.0271575
0.0265778
0.025876
0.0253554
0.0246752
0.02425
0.0235674
0.0231152
0.0224379
0.0222038
0.021421
21.7956
3.38015
1.22834
0.663249
0.436455
0.320504
0.25167
0.206574
0.174916
0.151549
0.133616
0.11945
0.107967
0.0985021
0.0905376
0.083784
0.0779435
0.072893
0.0684335
0.0645219
0.0610127
0.0578991
0.0550725
0.0525408
0.0502106
0.0481192
0.0461581
0.0443997
0.0427175
0.041214
0.0397487
0.0384436
0.0371591
0.0360084
0.0348803
0.0338484
0.0328573
0.0319185
0.0310517
0.0301826
0.0294328
0.0286132
0.0279834
0.0271936
0.0266708
0.0258976
0.0254473
0.0247136
0.02428
0.0236049
0.0231645
0.0225113
0.0222883
0.0214969
21.7956
3.38011
1.22831
0.663238
0.43646
0.320514
0.251684
0.206587
0.174934
0.151564
0.133637
0.119466
0.107994
0.0985193
0.0905682
0.083801
0.0779758
0.0729079
0.0684634
0.0645316
0.0610348
0.0579016
0.055083
0.0525275
0.0502055
0.0480837
0.0461301
0.0443424
0.0426668
0.0411406
0.0396737
0.0383616
0.0370568
0.0359254
0.0347554
0.0337639
0.0327247
0.0318204
0.0309235
0.0300696
0.0292986
0.0285208
0.0278088
0.0271678
0.0264235
0.0259209
0.0251709
0.0247152
0.0240504
0.0234793
0.0230716
0.0222665
0.022224
0.0224028
21.7956
3.38013
1.22831
0.663242
0.436464
0.32052
0.25169
0.206596
0.17494
0.151574
0.133643
0.119478
0.107998
0.0985333
0.0905712
0.0838184
0.0779782
0.0729299
0.0684663
0.0645592
0.0610393
0.0579351
0.0550873
0.0525663
0.0502135
0.0481268
0.0461424
0.0443921
0.0426837
0.0411953
0.0396999
0.0384186
0.0370986
0.0359788
0.0348159
0.033809
0.0328019
0.0318596
0.0310115
0.0301037
0.0293955
0.0285425
0.0279198
0.0271511
0.0265594
0.0258408
0.0253164
0.0246401
0.024089
0.0235136
0.0227743
0.0229706
0.0223546
0.0224009
21.7955
3.38012
1.22831
0.663248
0.436475
0.320531
0.251703
0.206608
0.174954
0.151585
0.133659
0.119489
0.108017
0.0985433
0.0905929
0.0838259
0.0780014
0.0729332
0.0684882
0.0645557
0.0610564
0.0579212
0.055097
0.0525405
0.0502107
0.0480829
0.0461283
0.0443274
0.0426593
0.0411131
0.0396631
0.038326
0.037042
0.0358854
0.0347328
0.0337209
0.0326969
0.0317641
0.0309007
0.029979
0.029281
0.0283978
0.0277586
0.0270178
0.0263588
0.0257826
0.0251236
0.0246243
0.0240447
0.0238618
0.0245738
0.0249601
0.0247987
0.0256423
21.7955
3.38014
1.22832
0.663254
0.43648
0.320537
0.251709
0.206615
0.174961
0.151594
0.133666
0.119499
0.108023
0.098554
0.0905978
0.0838396
0.0780062
0.0729511
0.0684941
0.0645785
0.0610647
0.0579481
0.0551088
0.0525714
0.0502237
0.0481211
0.0461439
0.0443711
0.0426782
0.0411617
0.0396877
0.0383787
0.0370774
0.035937
0.0347844
0.0337646
0.0327647
0.0318041
0.0309683
0.0300362
0.0293283
0.0284707
0.0278022
0.0270555
0.0264355
0.0257757
0.0251667
0.0248359
0.0239987
0.0237644
0.0247561
0.0242433
0.0262982
0.0259968
21.7953
3.38018
1.22835
0.663292
0.436521
0.320577
0.251745
0.206648
0.174992
0.151622
0.133694
0.119523
0.10805
0.0985746
0.0906243
0.083855
0.0780326
0.0729587
0.0685195
0.0645751
0.0610879
0.0579325
0.0551293
0.0525376
0.0502408
0.0480658
0.0461519
0.0442951
0.0426738
0.0410684
0.0396643
0.0382731
0.0370235
0.03583
0.0346888
0.0336703
0.0326317
0.0317185
0.0308362
0.0299398
0.0292206
0.0284004
0.0276877
0.0270082
0.0264948
0.0256665
0.0254538
0.0261689
0.0259028
0.0273886
0.0296043
0.0332217
0.0327323
0.0340155
21.7953
3.3802
1.22836
0.663298
0.436526
0.320582
0.251751
0.206654
0.174998
0.151629
0.1337
0.119531
0.108055
0.0985856
0.0906292
0.0838703
0.0780369
0.07298
0.0685234
0.0646038
0.0610918
0.0579684
0.0551315
0.0525783
0.050246
0.0481091
0.0461629
0.0443407
0.0426914
0.0411161
0.0396896
0.0383248
0.0370563
0.0358862
0.0347294
0.0337267
0.0326831
0.0317705
0.0308964
0.0299972
0.0292743
0.0284757
0.0277465
0.0270739
0.0265704
0.025742
0.0254836
0.0258437
0.0261577
0.0274778
0.030078
0.0293696
0.0309492
0.032028
21.7954
3.37989
1.22791
0.662896
0.436184
0.320266
0.251454
0.206365
0.174734
0.151377
0.133475
0.119312
0.107851
0.0983746
0.0904325
0.0836605
0.0778425