/*--------------------------------*- C++ -*----------------------------------*\
| =========                 |                                                 |
| \\      /  F ield         | OpenFOAM: The Open Source CFD Toolbox           |
|  \\    /   O peration     | Version:  4.1                                   |
|   \\  /    A nd           | Web:      www.OpenFOAM.org                      |
|    \\/     M anipulation  |                                                 |
\*---------------------------------------------------------------------------*/
FoamFile
{
    version     2.0;
    format      ascii;
    class       surfaceScalarField;
    location    "54";
    object      phi;
}
// * * * * * * * * * * * * * * * * * * * * * * * * * * * * * * * * * * * * * //

dimensions      [0 3 -1 0 0 0 0];

internalField   nonuniform List<scalar> 
11516
(
9.98751e+06
184.405
9644.82
9.96946e+06
348.151
20918.8
9.94165e+06
472.718
30794.6
9.90463e+06
518.166
40169.4
9.85837e+06
569.825
49501
9.80254e+06
613.758
59015.2
9.73674e+06
605.694
68866.6
9.66057e+06
554.069
79117.8
9.57378e+06
505.473
89733.7
9.47614e+06
491.233
100782
9.36801e+06
557.286
111772
9.25071e+06
712.928
121753
9.1266e+06
841.243
129643
9.00084e+06
875.771
132353
8.88414e+06
-446.768
125004
8.78998e+06
-1787.82
103212
8.7364e+06
-62.3025
60745.5
8.73098e+06
456.338
10011.3
8.73377e+06
798.856
103.922
8.70063e+06
1757.15
33806
8.6352e+06
-995.929
67949.9
8.53801e+06
-4912.49
103268
8.41644e+06
-8074.75
130790
8.27843e+06
-10642.7
149990
8.12604e+06
-12576.2
166525
7.9793e+06
-13987.6
162650
7.8519e+06
-11461.6
141498
7.7511e+06
-6014.6
110008
7.67717e+06
-4343.32
81705.1
7.62893e+06
-6931.04
58843.1
7.59241e+06
-11686.7
52578.1
7.53813e+06
-17437.8
75793.5
7.47535e+06
-17619.9
83944
7.44943e+06
-4389.5
33869.7
7.50323e+06
11049.2
-56110.4
7.57893e+06
14488.5
-82465.8
7.6184e+06
13745.3
-44409.5
7.63383e+06
4698.92
-10075.8
7.62727e+06
-1352.45
7804.35
7.62758e+06
2021.54
-7241.87
7.65218e+06
9516.42
-48069.4
7.65109e+06
16478.2
-51133
7.60707e+06
16148.1
-21584.1
7.54248e+06
15119.9
4993.65
7.47259e+06
2545.38
22739.8
7.42515e+06
-7137.26
4660.04
7.36701e+06
6480.06
29027.4
7.36337e+06
11075.2
-21124.2
7.36368e+06
26443.2
-51934.9
7.42363e+06
445.008
-116842
7.57191e+06
5774.99
-166602
7.77983e+06
-14340.9
-284722
8.11044e+06
52934.4
-281965
105718
-588149
9.98778e+06
9646.11
9.96945e+06
20932.6
9.94152e+06
30805.8
9.90442e+06
40165.8
9.85812e+06
49493.6
9.80231e+06
59034.9
9.73654e+06
68919.1
9.66036e+06
79210.4
9.57351e+06
89863.5
9.4758e+06
100900
9.36761e+06
111873
9.25032e+06
121760
9.12586e+06
129726
8.9988e+06
132848
8.87657e+06
126842
8.7777e+06
102225
8.72638e+06
56089.4
8.72842e+06
1775.12
8.73714e+06
-5503.21
8.70636e+06
33981.5
8.64116e+06
65158.3
8.5451e+06
91907.2
8.42365e+06
114117
8.28232e+06
131550
8.12246e+06
148373
7.96637e+06
143633
7.82923e+06
127721
7.71573e+06
109944
7.62852e+06
85800.9
7.57705e+06
48307.3
7.55921e+06
10201.3
7.54735e+06
-1529.48
7.52788e+06
6156.66
7.51802e+06
9334.43
7.55872e+06
-24217
7.62129e+06
-38422.7
7.66331e+06
-18367.3
7.68002e+06
-7772.69
7.68348e+06
-6839.95
7.68816e+06
-12675.5
7.7016e+06
-21078.6
7.69767e+06
-8081.77
7.66503e+06
22444.8
7.59906e+06
43205.6
7.5106e+06
61448.3
7.44288e+06
36265.4
7.39062e+06
42996.3
7.36031e+06
35253.7
7.34996e+06
-22095.5
7.49538e+06
-105381
7.58447e+06
-196382
7.88983e+06
-266197
8.17836e+06
-185573
-470625
1.00065e+07
186.943
5618.28
1.0015e+07
348.56
15392.3
1.00237e+07
476.867
25118.4
1.00322e+07
535.774
34902.6
1.00402e+07
606.139
44882.8
1.00475e+07
667.778
55193.2
1.00539e+07
683.008
65931.3
1.00594e+07
658.154
76978.5
1.00636e+07
624.077
89008.3
1.00666e+07
615.643
101311
1.00678e+07
646.992
114203
1.00664e+07
711.974
127194
1.00603e+07
914.616
140193
1.00455e+07
1103.28
151847
1.00079e+07
2776.49
165887
9.93719e+06
2920.94
176862
9.81204e+06
3095.43
190151
9.61598e+06
1975.57
207192
9.39657e+06
-642.085
221410
9.201e+06
-1142.71
231193
9.03104e+06
266.241
238039
8.88624e+06
1838.2
246454
8.75583e+06
3135.52
258298
8.62997e+06
4294.32
271849
8.50978e+06
4915.16
282273
8.39013e+06
5652.06
277474
8.26807e+06
6537.65
258385
8.13225e+06
8648.14
239146
7.98985e+06
13470.4
212854
7.85061e+06
17055.8
183424
7.71245e+06
21050.7
172072
7.59112e+06
25418.2
173588
7.51349e+06
23183.6
140338
7.4905e+06
14826.3
45145.6
7.52867e+06
5193.28
-93198.4
7.56218e+06
-8128.08
-95042.1
7.56536e+06
-21013.9
-13528.1
7.55022e+06
-30648.9
38203.9
7.51882e+06
-31292.1
66143.9
7.50609e+06
-19862.3
15301.9
7.50259e+06
-18444.9
-37636.4
7.45768e+06
-29521.2
3854.16
7.38406e+06
-38436.1
63991.6
7.30214e+06
-42429.5
90922.7
7.22498e+06
-47687.6
106589
7.1515e+06
-50791.5
93200.7
7.09645e+06
-52310.4
104261
7.02702e+06
-38670.9
72753.3
6.96819e+06
-50924.2
36919.3
6.97521e+06
-88584.8
-65168.8
6.85637e+06
-27883.8
-32048.6
6.87576e+06
51802
-299186
7.60169e+06
146858
-1.05553e+06
29130.1
-1.38799e+06
1.00068e+07
5615.72
1.0015e+07
15389.9
1.00236e+07
25113.5
1.0032e+07
34891.6
1.004e+07
44865.1
1.00473e+07
55174.5
1.00538e+07
65919.9
1.00595e+07
76985.5
1.00637e+07
89049.7
1.00667e+07
101383
1.0068e+07
114296
1.00665e+07
127337
1.00606e+07
140191
1.00466e+07
152001
1.00176e+07
163168
9.95379e+06
174051
9.82357e+06
194106
9.6228e+06
206367
9.39753e+06
219915
9.20251e+06
228231
9.0354e+06
232717
8.89097e+06
238323
8.7617e+06
246692
8.63786e+06
259942
8.52154e+06
270033
8.4061e+06
265536
8.28719e+06
254507
8.16288e+06
244747
8.04086e+06
223750
7.9254e+06
184060
7.79502e+06
164587
7.65665e+06
164570
7.5559e+06
132343
7.53618e+06
48033.9
7.5747e+06
-51081.2
7.62311e+06
-84061.8
7.64857e+06
-58320.5
7.63901e+06
-29305.5
7.61074e+06
-19190.8
7.60982e+06
-41818.8
7.63653e+06
-79231.6
7.62548e+06
-45857.6
7.57453e+06
7379.04
7.5198e+06
31556.7
7.46642e+06
37058.5
7.41094e+06
7385
7.37272e+06
9854.04
7.33444e+06
13715.3
7.29675e+06
-51687
7.20943e+06
-136004
7.11434e+06
-122640
7.31318e+06
-346335
7.86406e+06
-542929
-1.36218e+06
9.99942e+06
184.845
7222.67
9.99631e+06
346.527
21370.7
9.98893e+06
472.21
35480.2
9.97742e+06
531.077
49589.9
9.96178e+06
606.675
63847.4
9.94196e+06
679.973
78385.1
9.9182e+06
706.546
93103.7
9.88996e+06
686.351
108661
9.85818e+06
645.801
124298
9.82229e+06
611.726
140818
9.78289e+06
603.918
157388
9.7398e+06
644.922
174325
9.69257e+06
733.138
191771
9.63949e+06
972.231
209596
9.58283e+06
1166.95
228027
9.51532e+06
1850.8
250569
9.43858e+06
1703.74
273039
9.35591e+06
1756.62
289957
9.25903e+06
1034.25
318057
9.14731e+06
709.229
342561
9.02544e+06
1020.26
359048
8.90252e+06
1625.17
367921
8.78114e+06
2534.05
377388
8.65977e+06
4126.54
389440
8.53627e+06
4856.82
401440
8.40791e+06
6298.85
400371
8.26825e+06
9542.65
389920
8.10612e+06
13884.1
389419
7.9209e+06
17296.7
383316
7.70851e+06
16260.7
382445
7.46067e+06
14577.4
408189
7.21636e+06
21553.8
398866
7.01374e+06
42954.2
302887
6.9012e+06
67468.8
93990.1
6.94571e+06
56060.4
-188980
7.01029e+06
619.698
-154616
6.99864e+06
-45565.5
46492.2
6.95132e+06
-63162.3
143202
6.88622e+06
-55768.6
178279
6.90337e+06
-14739
7972.67
6.93808e+06
-16138
-60626.4
6.91893e+06
-39822.5
51793.7
6.85415e+06
-55880
160751
6.79093e+06
-56222.2
183867
6.71909e+06
-52640.8
186691
6.61959e+06
-42805.9
181301
6.57495e+06
-47413.2
154814
6.54898e+06
-49887.9
113381
6.55031e+06
-69193.7
98203.3
6.57297e+06
-63979.3
-19483.5
6.74462e+06
-28359.1
-168712
6.83093e+06
10595.2
-357047
6.30517e+06
55994.2
-519673
33055.1
-1.0728e+06
9.99968e+06
7220.25
9.9963e+06
21363.3
9.98881e+06
35466.5
9.97722e+06
49569.8
9.96155e+06
63823.5
9.9418e+06
78360.6
9.91812e+06
93082.4
9.88995e+06
108646
9.85817e+06
124293
9.82223e+06
140824
9.78276e+06
157397
9.73965e+06
174330
9.69238e+06
191740
9.6398e+06
209534
9.58098e+06
227968
9.51303e+06
249834
9.43951e+06
274660
9.35548e+06
293924
9.25956e+06
317342
9.14976e+06
338949
9.0297e+06
353891
8.90862e+06
361155
8.78864e+06
369429
8.66579e+06
387242
8.54105e+06
400077
8.41284e+06
400802
8.27629e+06
401775
8.12646e+06
410212
7.95817e+06
411979
7.75281e+06
408907
7.50611e+06
428451
7.27195e+06
422687
7.11161e+06
338878
7.06538e+06
163850
7.1417e+06
-67783.5
7.20021e+06
-139456
7.21392e+06
-120816
7.19169e+06
-79769.8
7.14177e+06
-31756.2
7.13839e+06
-60106.3
7.16063e+06
-123812
7.12225e+06
-60978.2
7.03684e+06
13885.6
6.95141e+06
24808.6
6.87337e+06
20823.4
6.79011e+06
7247.15
6.72489e+06
-10361.1
6.68804e+06
-20789.5
6.62284e+06
-66409.8
6.6291e+06
-200047
6.79516e+06
-297703
6.90711e+06
-436255
6.65318e+06
-161168
-1.09775e+06
9.99907e+06
182.041
9235.99
9.99599e+06
339.816
27264.3
9.98887e+06
461.899
45507.8
9.97765e+06
516.415
63884
9.96214e+06
586.958
82561.7
9.94229e+06
655.93
101496
9.91728e+06
679.412
121390
9.88753e+06
657.253
141700
9.85268e+06
615.25
162485
9.81276e+06
579.671
184162
9.76737e+06
569.956
206357
9.71607e+06
605.827
229484
9.65871e+06
680.126
253407
9.59526e+06
881.797
278018
9.52506e+06
1068.48
304429
9.45007e+06
1881.66
333021
9.36635e+06
1290.03
364062
9.27363e+06
799.744
385858
9.18394e+06
866.322
407827
9.09349e+06
1112.05
432257
8.99512e+06
1411.58
456255
8.88765e+06
1345.24
474347
8.76668e+06
1217.36
497600
8.63388e+06
1555.39
521192
8.4908e+06
1048.13
543956
8.33401e+06
1113.02
556719
8.15571e+06
3893.89
565263
7.9399e+06
6715.08
599877
7.66497e+06
5794.15
654583
7.32833e+06
6421.39
715106
6.97957e+06
8586.13
750361
6.67497e+06
13783.4
691244
6.45524e+06
26674.8
496771
6.4e+06
47409.7
102658
6.52661e+06
38728.1
-354682
6.62226e+06
-58164.7
-192889
6.56009e+06
-144922
247558
6.46787e+06
-204348
424982
6.38924e+06
-198451
450636
6.43919e+06
-95476.8
52399
6.47354e+06
-37237
-59019.9
6.44156e+06
-59974.1
138445
6.36152e+06
-66370.8
281789
6.27459e+06
-62074
279087
6.18583e+06
-56440.4
268859
6.06518e+06
-63658.3
285221
5.97005e+06
-75998.6
252031
5.92032e+06
-50693.8
174036
5.8858e+06
-45202
178136
5.92249e+06
-68227.5
45250.1
6.07862e+06
-55079.8
-177313
6.12325e+06
-30894.6
-305600
6.05623e+06
-27061.6
-381517
283313
-452704
9.99933e+06
9235.82
9.99597e+06
27260.7
9.98875e+06
45495.8
9.97745e+06
63870.2
9.96191e+06
82550.5
9.94211e+06
101485
9.91719e+06
121374
9.88751e+06
141675
9.85266e+06
162447
9.81269e+06
184110
9.76722e+06
206294
9.71585e+06
229407
9.65842e+06
253331
9.59509e+06
277910
9.52518e+06
304330
9.45098e+06
332777
9.36879e+06
364373
9.27444e+06
391758
9.18546e+06
407976
9.09564e+06
430225
8.99749e+06
453706
8.88814e+06
472220
8.76441e+06
494734
8.63125e+06
522307
8.4887e+06
544051
8.32898e+06
562157
8.14588e+06
589511
7.92904e+06
634869
7.6611e+06
687277
7.33828e+06
739813
7.01102e+06
765689
6.72653e+06
722158
6.51166e+06
580842
6.44835e+06
275087
6.59873e+06
-178725
6.7067e+06
-309472
6.73139e+06
-298890
6.6707e+06
-231899
6.58679e+06
-153019
6.63415e+06
-207483
6.65719e+06
-185698
6.60787e+06
-81222.4
6.50353e+06
21881.4
6.40536e+06
21203.5
6.30843e+06
11014.7
6.18686e+06
2092.52
6.08294e+06
-29112.1
6.03657e+06
-49986.9
5.99575e+06
-57927.6
6.00567e+06
-215164
6.02587e+06
-367556
6.07429e+06
-431693
6.2758e+06
-352693
-667845
9.9991e+06
180.935
11206.6
9.99608e+06
337.348
33068.4
9.98911e+06
457.582
55339.2
9.97814e+06
509.631
77891.5
9.96301e+06
577.261
100855
9.94349e+06
643.549
124202
9.9194e+06
665.166
148646
9.89077e+06
642.141
173471
9.85703e+06
600.34
199352
9.8182e+06
566.058
226165
9.77409e+06
559.725
253783
9.72449e+06
596.342
282699
9.66955e+06
686.543
312477
9.60868e+06
858.912
343940
9.54228e+06
1147.55
377228
9.47118e+06
1598.06
412652
9.39269e+06
2406.84
451532
9.29563e+06
2081.53
489243
9.19193e+06
597.082
513278
9.08778e+06
1778.07
536159
8.98299e+06
2591.04
559388
8.86824e+06
1878.76
588257
8.73526e+06
598.825
630677
8.58128e+06
-309.691
676205
8.40797e+06
-3097.25
721086
8.205e+06
-4081.96
764702
7.96932e+06
-840.26
803048
7.69514e+06
1958.43
873329
7.37336e+06
382.967
977271
7.02042e+06
242.52
1.06911e+06
6.68072e+06
4192.58
1.08699e+06
6.37949e+06
13262.1
980179
6.15047e+06
27430
700109
6.05549e+06
57614.7
141025
6.16713e+06
123570
-588565
6.0068e+06
-55867
21694.6
6.02001e+06
-159293
381177
6.00425e+06
-178210
605234
5.82648e+06
-215228
836086
5.8397e+06
-48985.1
84819.7
5.83758e+06
-21470
-35251.4
5.75815e+06
-87090.9
302721
5.71349e+06
-88686.9
396539
5.62833e+06
-78823.5
408157
5.53231e+06
-78313.7
365536
5.4551e+06
-81692.2
327604
5.37445e+06
-68797.3
283300
5.21787e+06
3758.51
267013
5.11583e+06
-7255.7
289890
5.19891e+06
-45883.2
133331
5.10862e+06
-3768.96
-12826.6
4.97214e+06
106881
-179327
4.86961e+06
25223.5
-217738
94800.8
-394981
9.99936e+06
11203.2
9.99606e+06
33059.9
9.98899e+06
55327.6
9.97794e+06
77880.2
9.96278e+06
100846
9.94331e+06
124190
9.91932e+06
148626
9.89074e+06
173437
9.85701e+06
199298
9.81813e+06
226091
9.77395e+06
253692
9.72427e+06
282597
9.6693e+06
312380
9.60845e+06
343834
9.54233e+06
377177
9.47106e+06
412564
9.39389e+06
451213
9.30247e+06
490550
9.19916e+06
514824
9.09264e+06
540535
8.98402e+06
566204
8.86129e+06
597705
8.72255e+06
634769
8.56964e+06
675378
8.39346e+06
717723
8.18594e+06
766358
7.95637e+06
819009
7.69404e+06
899971
7.3893e+06
993304
7.05471e+06
1.07558e+06
6.73155e+06
1.09392e+06
6.45564e+06
1.01194e+06
6.27149e+06
793487
6.25585e+06
349946
6.46497e+06
-258771
6.6785e+06
-572919
6.77413e+06
-559947
6.76269e+06
-407673
6.6072e+06
-218764
6.48222e+06
-132110
6.3459e+06
-70774.4
6.19631e+06
-17988.2
6.10146e+06
22088.4
6.00203e+06
11048
5.88869e+06
-11965
5.77654e+06
-40903.1
5.68164e+06
-61266.1
5.57224e+06
31019.3
5.49949e+06
25369.4
5.31068e+06
-70326.9
5.11715e+06
-133509
5.20803e+06
-367943
5.14366e+06
-294610
-539666
9.99913e+06
177.192
13113.5
9.99619e+06
329.888
38738
9.98946e+06
447.963
64886.5
9.97893e+06
499.568
91416.7
9.96452e+06
565.045
118361
9.9457e+06
626.526
146116
9.92257e+06
641.383
174820
9.89481e+06
610.636
204189
9.86224e+06
561.104
234827
9.82487e+06
521.056
266458
9.78215e+06
512.475
299566
9.73433e+06
551.471
333919
9.68116e+06
652.912
369645
9.62265e+06
811.921
407298
9.55953e+06
1117.4
446709
9.49193e+06
1423.34
488166
9.42175e+06
2140.84
531356
9.34333e+06
1702.2
577400
9.24873e+06
488.316
615150
9.13775e+06
2100.9
651236
9.01216e+06
3615.16
685860
8.87192e+06
1325.49
730387
8.72852e+06
-777.851
776255
8.56785e+06
-2589.96
840583
8.37103e+06
-6549.52
925821
8.12403e+06
-6254.29
1.02001e+06
7.83486e+06
-1714.48
1.0958e+06
7.53075e+06
3600.83
1.17536e+06
7.2113e+06
3724.13
1.29433e+06
6.87483e+06
3798.08
1.40296e+06
6.52903e+06
9237.55
1.42475e+06
6.17242e+06
24420.2
1.31454e+06
5.77647e+06
56554.7
1.04197e+06
5.25868e+06
201746
460095
3.75396e+06
827767
95463.7
2.76035e+06
560032
457632
2.32004e+06
297960
519731
2.89653e+06
205489
-202508
3.42806e+06
81810.1
185441
3.99108e+06
115711
-592854
4.17894e+06
22027.9
-242240
4.31495e+06
-30010.6
224711
4.38213e+06
4775.78
353214
4.41706e+06
6536.01
339874
4.39223e+06
28788.3
261195
4.36821e+06
28217
162775
4.27085e+06
92586.4
147230
4.16666e+06
280082
-4573.46
4.12599e+06
297015
-6245.22
3.9415e+06
286507
-22525.6
3.78641e+06
224719
-71534.5
3.62446e+06
224754
-154146
3.52604e+06
111601
-325876
58486
-925472
9.99938e+06
13112.8
9.99617e+06
38733.6
9.98934e+06
64872.5
9.97873e+06
91402.9
9.96429e+06
118353
9.94553e+06
146111
9.92247e+06
174809
9.89477e+06
204165
9.8622e+06
234784
9.82478e+06
266396
9.78199e+06
299487
9.7341e+06
333831
9.68089e+06
369557
9.62248e+06
407234
9.55942e+06
446642
9.4921e+06
488094
9.4221e+06
531247
9.3461e+06
576366
9.25153e+06
617141
9.14283e+06
656850
9.01922e+06
696906
8.87902e+06
742090
8.72435e+06
790546
8.55161e+06
846433
8.34689e+06
916997
8.10184e+06
1.00633e+06
7.83675e+06
1.08349e+06
7.55282e+06
1.18843e+06
7.24435e+06
1.30643e+06
6.92082e+06
1.40385e+06
6.60369e+06
1.42109e+06
6.31113e+06
1.33032e+06
6.05263e+06
1.11059e+06
5.91142e+06
700670
6.49649e+06
10084.3
6.61733e+06
-133094
6.52307e+06
-175424
6.38831e+06
-76789.4
6.1769e+06
66880.2
5.88697e+06
274303
5.49705e+06
350256
5.28795e+06
179003
5.21257e+06
103734
5.13119e+06
71011.2
4.98607e+06
95327.6
4.86079e+06
24274.4
4.85595e+06
-96128.8
4.64341e+06
427544
4.54549e+06
343194
4.42772e+06
289445
4.2452e+06
265774
4.07477e+06
-33483.8
3.77534e+06
138602
-350142
9.99918e+06
175.335
14947.1
9.99641e+06
327.068
44179.9
9.99005e+06
444.608
74011.3
9.98008e+06
495.136
104325
9.9664e+06
557.419
135074
9.94847e+06
614.07
167076
9.92634e+06
624.191
199896
9.8997e+06
590.125
233684
9.86856e+06
539.902
268768
9.83215e+06
502.572
305694
9.7911e+06
500.634
343606
9.74494e+06
550.496
383435
9.69353e+06
658.904
424994
9.63732e+06
836.278
468346
9.57654e+06
1087.24
513467
9.51164e+06
1379.51
560224
9.44279e+06
1713.92
608532
9.37066e+06
1944.09
658722
9.28858e+06
1662.72
707195
9.1935e+06
1105.29
756323
9.07983e+06
1415.01
808478
8.94462e+06
-855.943
875174
8.78933e+06
-1658.47
937853
8.62037e+06
-4811.39
1.01651e+06
8.41728e+06
-10322.3
1.141e+06
8.15566e+06
-11105.3
1.29481e+06
7.83948e+06
-832.17
1.41543e+06
7.50433e+06
10002.3
1.50256e+06
7.17148e+06
10105
1.61868e+06
6.83124e+06
7300.64
1.73724e+06
6.47469e+06
14749.2
1.76798e+06
6.05884e+06
34667
1.69748e+06
5.38016e+06
101759
1.62108e+06
3.42999e+06
537792
1.87521e+06
1.11045e+06
776423
1.65232e+06
1.06471e+06
18349
484975
981715
104555
464809
128735
541431
-3024.14
61235.8
-45825.5
174354
796445
-433738
-945942
1.49714e+06
-283825
-679457
1.59153e+06
119451
-11039.7
1.62244e+06
250320
24253.3
1.70615e+06
220680
-46644.7
1.60281e+06
306195
-84506.7
1.43455e+06
350194
-207521
1.37269e+06
287585
-336162
1.54349e+06
301241
-669581
1.80615e+06
375360
-827867
2.10063e+06
454768
-935064
2.58523e+06
388717
-1.01546e+06
3.1418e+06
284404
-1.13461e+06
3.85186e+06
339009
-1.33664e+06
87920.1
-1.67977e+06
9.99943e+06
14942.8
9.9964e+06
44167.7
9.98994e+06
73993.2
9.97989e+06
104306
9.96618e+06
135058
9.94829e+06
167060
9.92623e+06
199875
9.89964e+06
233653
9.8685e+06
268726
9.83204e+06
305639
9.79093e+06
343541
9.74472e+06
383362
9.69331e+06
424916
9.63715e+06
468258
9.57648e+06
513357
9.51176e+06
560087
9.44317e+06
608320
9.37122e+06
657735
9.29015e+06
707510
9.19659e+06
758927
9.08715e+06
814837
8.95555e+06
879473
8.79158e+06
957950
8.60926e+06
1.02574e+06
8.38933e+06
1.12822e+06
8.12128e+06
1.26481e+06
7.83172e+06
1.37373e+06
7.53169e+06
1.49961e+06
7.21728e+06
1.63199e+06
6.89359e+06
1.73568e+06
6.5695e+06
1.76089e+06
6.2486e+06
1.68703e+06
5.90021e+06
1.56255e+06
5.56369e+06
1.59174e+06
4.12013e+06
2.23053e+06
2.40707e+06
1.59279e+06
1.40023e+06
912735
1.30835e+06
530297
1.12316e+06
177694
1.35553e+06
-420636
1.47627e+06
-84840.1
1.38344e+06
362436
1.38203e+06
317094
1.4619e+06
132019
1.43437e+06
279256
1.22564e+06
365157
949844
239871
584440
858831
466582
577484
637139
342981
966234
157738
1.21454e+06
-10669.3
1.85854e+06
-155164
-549368
9.99924e+06
170.514
16656.7
9.99672e+06
316.34
49298.3
9.99081e+06
429.317
82602.3
9.9815e+06
477.152
116480
9.96857e+06
535.872
150923
9.95177e+06
588.405
186770
9.93106e+06
596.074
223426
9.90573e+06
562.336
261767
9.87584e+06
515.711
301365
9.84153e+06
484.308
342775
9.80213e+06
489.362
385969
9.75783e+06
542.265
431046
9.70857e+06
644.119
478057
9.65435e+06
797.036
527058
9.59544e+06
971.93
577586
9.53211e+06
1210.51
629743
9.46458e+06
1360.87
682836
9.39374e+06
1527.97
737180
9.31725e+06
1137.66
792303
9.23418e+06
522.069
849540
9.14128e+06
50.0914
912146
9.03724e+06
260.819
990051
8.90362e+06
697.698
1.08139e+06
8.73835e+06
-4516.79
1.19116e+06
8.54821e+06
-12822.1
1.34624e+06
8.32304e+06
-15148.9
1.53722e+06
8.04148e+06
-3050.76
1.7026e+06
7.68152e+06
15621.5
1.85124e+06
7.28714e+06
21015
1.99582e+06
6.91181e+06
10925.4
2.10412e+06
6.5809e+06
12508.5
2.08775e+06
6.25701e+06
21464.2
2.00087e+06
5.87829e+06
42878
1.9568e+06
5.28033e+06
275490
2.1988e+06
3.08375e+06
653487
3.18699e+06
1.23509e+06
374838
1.9354e+06
170900
321949
1.1214e+06
-403710
163134
268198
-54793.9
-418872
95791.9
-256720
-720517
-155217
-433060
-363438
-304723
-13928.9
-20575.7
-589750
476286
83544.8
-683788
938620
74866.3
-695691
1.41331e+06
165190
-851606
1.96649e+06
166530
-1.04562e+06
2.65383e+06
58443.2
-1.18505e+06
3.34215e+06
-137358
-1.35214e+06
3.94388e+06
-93665
-1.49744e+06
4.4209e+06
43183
-1.60362e+06
4.82524e+06
75555.5
-1.64339e+06
5.23666e+06
57170.8
-1.62758e+06
5.51752e+06
53651.5
-1.6732e+06
-23810
-1.7589e+06
9.99948e+06
16656
9.99671e+06
49292.9
9.9907e+06
82585.3
9.98131e+06
116462
9.96835e+06
150910
9.95159e+06
186759
9.93095e+06
223410
9.90566e+06
261741
9.87578e+06
301326
9.84142e+06
342724
9.80197e+06
385910
9.75761e+06
430984
9.70835e+06
477995
9.65415e+06
526990
9.59538e+06
577517
9.53211e+06
629605
9.46476e+06
682667
9.39335e+06
736837
9.31654e+06
792147
9.23343e+06
849529
9.14229e+06
913459
9.04075e+06
989048
8.91434e+06
1.09187e+06
8.74446e+06
1.1956e+06
8.52833e+06
1.33498e+06
8.27075e+06
1.50913e+06
7.96613e+06
1.67863e+06
7.65112e+06
1.83208e+06
7.3371e+06
1.96835e+06
7.00758e+06
2.07765e+06
6.67019e+06
2.11235e+06
6.35619e+06
2.02357e+06
6.03316e+06
1.93112e+06
5.8408e+06
2.05687e+06
5.9888e+06
2.72852e+06
5.09307e+06
2.85194e+06
3.99913e+06
2.3186e+06
2.99072e+06
1.68969e+06
1.52119e+06
1.19989e+06
-386491
709560
-1.38803e+06
485225
-1.38424e+06
282310
-1.21988e+06
151308
-1.09691e+06
-61062.6
-761550
-89627.4
-335550
-58038
-100547
-101504
366740
79264.2
732352
-61274.7
1.3371e+06
-373027
2.06598e+06
-581474
2.79434e+06
-703129
3.5042e+06
-812610
-901992
9.99931e+06
168.523
18247.9
9.99709e+06
312.591
54066.9
9.99172e+06
424.303
90589.9
9.98319e+06
470.378
127784
9.97128e+06
526.093
165678
9.95573e+06
575.72
205142
9.93627e+06
582.648
245623
9.91279e+06
551.237
287921
9.88476e+06
509.617
332057
9.85225e+06
484.815
378030
9.81516e+06
495.394
425989
9.77292e+06
549.132
476538
9.72557e+06
644.013
529079
9.67335e+06
768.933
583466
9.61602e+06
914.903
639715
9.55407e+06
1062.29
697072
9.48758e+06
1165.72
755246
9.41761e+06
1264.63
813758
9.34472e+06
1223.87
872462
9.26933e+06
1185.98
933175
9.19173e+06
1140.57
998670
9.11321e+06
1508.97
1.07881e+06
9.02133e+06
2213.9
1.18173e+06
8.89674e+06
6415
1.31986e+06
8.73626e+06
207.941
1.51122e+06
8.55901e+06
-6725.9
1.72272e+06
8.3467e+06
-5624.44
1.9253e+06
8.04938e+06
3573.91
2.15156e+06
7.67793e+06
20917.1
2.35342e+06
7.25488e+06
31308
2.50374e+06
6.80252e+06
30684.7
2.51559e+06
6.37192e+06
22122.1
2.41212e+06
6.00982e+06
26083.3
2.29258e+06
5.91268e+06
42191.9
2.24834e+06
5.82302e+06
255873
3.01466e+06
4.57837e+06
213754
2.96182e+06
3.3639e+06
102664
2.23796e+06
2.32425e+06
-47562.9
1.36163e+06
1.92289e+06
-174807
667972
1.97567e+06
-382628
152450
2.3671e+06
-502016
-226325
2.73887e+06
-437501
-562759
3.09705e+06
-262565
-832728
3.49083e+06
-66817
-1.06703e+06
3.93719e+06
-24727.5
-1.27853e+06
4.42196e+06
-68264.7
-1.44328e+06
4.90597e+06
-104359
-1.55094e+06
5.34556e+06
-182658
-1.63533e+06
5.68384e+06
-199478
-1.70834e+06
5.8978e+06
-170296
-1.74523e+06
6.03812e+06
-137720
-1.71806e+06
6.15191e+06
-127093
-1.65644e+06
6.16073e+06
-100794
-1.5813e+06
-106242
-1.54554e+06
9.99955e+06
18243.3
9.99708e+06
54053.9
9.99162e+06
90570.2
9.983e+06
127763
9.97106e+06
165659
9.95554e+06
205124
9.93616e+06
245600
9.91273e+06
287891
9.88469e+06
332017
9.85214e+06
377979
9.815e+06
425926
9.77271e+06
476463
9.72535e+06
528990
9.67316e+06
583358
9.61588e+06
639582
9.55397e+06
696906
9.48753e+06
755079
9.41742e+06
813476
9.34447e+06
872161
9.26895e+06
932680
9.19197e+06
998650
9.11258e+06
1.07742e+06
9.03202e+06
1.18261e+06
8.92383e+06
1.31796e+06
8.7612e+06
1.50318e+06
8.54945e+06
1.71761e+06
8.26327e+06
1.96233e+06
7.92832e+06
2.17317e+06
7.59726e+06
2.32364e+06
7.27243e+06
2.43859e+06
6.9186e+06
2.50217e+06
6.52079e+06
2.44674e+06
6.13319e+06
2.34449e+06
5.9036e+06
2.3275e+06
6.23802e+06
2.64955e+06
6.41469e+06
2.8937e+06
6.13522e+06
2.7084e+06
5.52936e+06
2.25457e+06
4.7815e+06
1.77471e+06
3.77928e+06
1.32541e+06
2.80564e+06
944481
2.06873e+06
547067
1.76086e+06
146809
1.80388e+06
-203610
2.12881e+06
-442126
2.6166e+06
-593491
3.14386e+06
-723016
3.83104e+06
-809280
4.44325e+06
-919317
4.88111e+06
-1.04635e+06
5.22117e+06
-1.11234e+06
5.5108e+06
-1.1546e+06
5.70913e+06
-1.13456e+06
-1.31082e+06
9.9994e+06
163.522
19674.6
9.99754e+06
301.032
58393.7
9.99281e+06
407.226
97852.7
9.98519e+06
450.199
138075
9.97446e+06
502.968
179137
9.96035e+06
550.335
221958
9.94261e+06
557.403
266009
9.92097e+06
528.792
312148
9.89518e+06
491.099
360436
9.86498e+06
469.023
410894
9.83009e+06
476.516
463699
9.79031e+06
518.718
519360
9.74527e+06
589.647
577449
9.69463e+06
680.185
637767
9.63866e+06
785.146
699790
9.57736e+06
883.569
762954
9.51167e+06
1007.65
826220
9.44248e+06
1087.82
888696
9.37232e+06
1233.27
949272
9.30423e+06
1238.06
1.00853e+06
9.24333e+06
1357.72
1.06806e+06
9.19059e+06
632.696
1.14081e+06
9.14602e+06
1808.4
1.23441e+06
9.08976e+06
10065.2
1.37658e+06
8.9832e+06
16090.8
1.60713e+06
8.81688e+06
11715.1
1.87996e+06
8.5866e+06
1796.15
2.15473e+06
8.33106e+06
-4388.82
2.4141e+06
8.05737e+06
2035.39
2.6319e+06
7.7466e+06
15440.6
2.80912e+06
7.34511e+06
20781.3
2.90611e+06
6.84266e+06
22962.6
2.90006e+06
6.33957e+06
33609.5
2.76607e+06
5.98734e+06
-2461.79
2.60841e+06
6.20404e+06
52764.1
2.75935e+06
6.23057e+06
76253
2.8846e+06
5.86936e+06
37540.1
2.59094e+06
5.34196e+06
-54085.8
1.97081e+06
4.94406e+06
-155948
1.2451e+06
4.79e+06
-251201
575918
4.87112e+06
-320750
12114.5
5.04931e+06
-313022
-457091
5.26082e+06
-246321
-839981
5.48661e+06
-190461
-1.12402e+06
5.72402e+06
-172787
-1.329e+06
5.97425e+06
-177762
-1.46366e+06
6.21522e+06
-186460
-1.54389e+06
6.41028e+06
-202587
-1.5924e+06
6.52289e+06
-211220
-1.62366e+06
6.55595e+06
-206824
-1.63262e+06
6.5413e+06
-191182
-1.58808e+06
6.53804e+06
-185049
-1.51056e+06
6.43912e+06
-164253
-1.35682e+06
-79043.2
-1.34443e+06
9.99963e+06
19674.2
9.99752e+06
58388.6
9.9927e+06
97836.5
9.985e+06
138057
9.97424e+06
179125
9.96017e+06
221948
9.94249e+06
265995
9.9209e+06
312124
9.89511e+06
360403
9.86487e+06
410851
9.82992e+06
463649
9.79009e+06
519305
9.74502e+06
577388
9.6944e+06
637696
9.63846e+06
699700
9.57723e+06
762849
9.51151e+06
826066
9.44241e+06
888518
9.37215e+06
949065
9.30395e+06
1.00815e+06
9.24212e+06
1.06842e+06
9.18889e+06
1.1384e+06
9.14733e+06
1.23349e+06
9.10634e+06
1.37556e+06
9.02675e+06
1.60344e+06
8.86413e+06
1.89349e+06
8.62664e+06
2.20185e+06
8.33532e+06
2.46276e+06
8.01361e+06
2.65343e+06
7.68207e+06
2.79313e+06
7.33198e+06
2.88029e+06
6.92414e+06
2.88239e+06
6.48517e+06
2.82031e+06
6.08366e+06
2.73177e+06
6.07249e+06
2.7249e+06
6.33859e+06
2.7191e+06
6.55343e+06
2.54622e+06
6.57308e+06
2.19329e+06
6.45682e+06
1.74498e+06
6.26661e+06
1.26855e+06
6.07998e+06
802202
5.94289e+06
350414
5.88894e+06
-67534.7
5.90961e+06
-422372
6.01141e+06
-697141
6.16669e+06
-886650
6.3215e+06
-1.02441e+06
6.4593e+06
-1.13204e+06
6.53959e+06
-1.22804e+06
6.5562e+06
-1.31575e+06
6.58419e+06
-1.38072e+06
6.67677e+06
-1.47117e+06
6.87056e+06
-1.48869e+06
-1.97018e+06
9.9995e+06
161.831
20946.3
9.99805e+06
297.495
62257.5
9.99406e+06
402.842
104324
9.98749e+06
444.387
147256
9.97813e+06
494.827
191173
9.9657e+06
540.488
237037
9.94972e+06
548.25
284576
9.93032e+06
522.974
334104
9.90722e+06
490.173
386099
9.87968e+06
472.287
441076
9.84733e+06
480.797
498834
9.81013e+06
517.963
559528
9.76732e+06
577.047
623433
9.71878e+06
651.736
689749
9.66381e+06
735.336
758546
9.60281e+06
833.2
828239
9.53622e+06
942.158
897699
9.46585e+06
1056.7
964652
9.39497e+06
1232.17
1.02652e+06
9.33013e+06
1237.8
1.08048e+06
9.28066e+06
1589.15
1.12521e+06
9.26248e+06
195.12
1.16757e+06
9.27287e+06
1460.75
1.22956e+06
9.30605e+06
7718.08
1.34345e+06
9.28229e+06
16704.1
1.6231e+06
9.12476e+06
16709.6
2.02005e+06
8.86423e+06
4886.61
2.40831e+06
8.57673e+06
-2971.91
2.70696e+06
8.29219e+06
-2389.78
2.92675e+06
8.0055e+06
1759.7
3.10355e+06
7.68485e+06
3218.28
3.2323e+06
7.29851e+06
3379.22
3.28906e+06
6.81831e+06
3381.63
3.24699e+06
6.32504e+06
-4553.34
3.11339e+06
6.14593e+06
2988.48
2.94965e+06
6.24517e+06
15184.5
2.78795e+06
6.3437e+06
8727.53
2.49948e+06
6.32677e+06
-30089.2
2.02854e+06
6.25058e+06
-95783.5
1.42307e+06
6.2101e+06
-163240
775799
6.23926e+06
-212785
179808
6.31187e+06
-236268
-320514
6.39681e+06
-237730
-711586
6.48609e+06
-231238
-993902
6.56675e+06
-216441
-1.17989e+06
6.64271e+06
-205975
-1.29401e+06
6.71071e+06
-195720
-1.36202e+06
6.75988e+06
-189412
-1.40585e+06
6.76656e+06
-187044
-1.4329e+06
6.73625e+06
-183727
-1.44037e+06
6.72551e+06
-180824
-1.42899e+06
6.79165e+06
-176390
-1.42357e+06
6.97943e+06
-140128
-1.36361e+06
-59955.9
-1.5519e+06
9.99973e+06
20942.2
9.99804e+06
62245.8
9.99396e+06
104306
9.98731e+06
147238
9.97791e+06
191158
9.96552e+06
237022
9.94961e+06
284558
9.93024e+06
334078
9.90714e+06
386065
9.87956e+06
441031
9.84715e+06
498779
9.8099e+06
559461
9.76707e+06
623357
9.71853e+06
689661
9.6636e+06
758447
9.60264e+06
828129
9.53607e+06
897581
9.46573e+06
964557
9.39482e+06
1.02644e+06
9.32965e+06
1.08051e+06
9.27987e+06
1.12631e+06
9.25719e+06
1.16843e+06
9.26958e+06
1.22897e+06
9.31072e+06
1.34865e+06
9.29665e+06
1.63664e+06
9.14791e+06
2.058e+06
8.9078e+06
2.4471e+06
8.63243e+06
2.73879e+06
8.33438e+06
2.95552e+06
8.01249e+06
3.12414e+06
7.66642e+06
3.23563e+06
7.27944e+06
3.27694e+06
6.85457e+06
3.25178e+06
6.42741e+06
3.15968e+06
6.15131e+06
3.01157e+06
6.10087e+06
2.7925e+06
6.19515e+06
2.46533e+06
6.32683e+06
2.03183e+06
6.4445e+06
1.5265e+06
6.54868e+06
990306
6.64078e+06
479660
6.70475e+06
29692.1
6.73635e+06
-351149
6.74207e+06
-658014
6.7329e+06
-885843
6.71461e+06
-1.04279e+06
6.69887e+06
-1.16731e+06
6.70992e+06
-1.30347e+06
6.7734e+06
-1.47099e+06
6.93559e+06
-1.67254e+06
7.27233e+06
-1.9152e+06
7.83439e+06
-2.19413e+06
8.69006e+06
-2.47511e+06
-3.07869e+06
9.99961e+06
157.363
22016.8
9.99865e+06
287.378
65562.1
9.9955e+06
387.252
109876
9.99013e+06
425.982
155152
9.98213e+06
474.422
201763
9.9718e+06
519.222
249930
9.95828e+06
528.415
300614
9.94148e+06
506.252
353403
9.92084e+06
476.346
409240
9.8964e+06
458.091
468090
9.86744e+06
461.329
530465
9.83318e+06
485.185
596567
9.79324e+06
527.192
666285
9.74651e+06
582.045
739572
9.69274e+06
652.419
815737
9.63133e+06
747.092
893602
9.56219e+06
858.445
971486
9.48661e+06
1034.56
1.04582e+06
9.40792e+06
1201.54