/*--------------------------------*- C++ -*----------------------------------*\
| =========                 |                                                 |
| \\      /  F ield         | OpenFOAM: The Open Source CFD Toolbox           |
|  \\    /   O peration     | Version:  4.1                                   |
|   \\  /    A nd           | Web:      www.OpenFOAM.org                      |
|    \\/     M anipulation  |                                                 |
\*---------------------------------------------------------------------------*/
FoamFile
{
    version     2.0;
    format      ascii;
    class       volVectorField;
    location    "4";
    object      U;
}
// * * * * * * * * * * * * * * * * * * * * * * * * * * * * * * * * * * * * * //

dimensions      [0 1 -1 0 0 0 0];

internalField   nonuniform List<vector> 
4432
(
(-245.433 -8.34542 139.443)
(-345.63 -14.9633 -435.556)
(70.5551 -19.2161 -654.48)
(495.879 -21.0909 -637.8)
(839.604 -22.0415 -549.951)
(1084.47 -22.3268 -458.199)
(1256.62 -21.9604 -381.537)
(1352.86 -18.0428 -323.182)
(1395.9 -13.4731 -245.444)
(1379.65 -17.3513 -134.385)
(1216.26 -27.0285 -96.6165)
(1023.73 -27.2925 -173.468)
(1018.96 -17.149 -238.077)
(1078.56 -17.7785 -220.628)
(980.865 -28.0414 -167.031)
(807.4 -33.7356 -123.236)
(645.082 -32.8101 -89.469)
(537.828 -31.1086 -94.2259)
(510.183 -28.3796 -132.326)
(612.191 -27.5579 -197.625)
(815.125 -25.7787 -256.409)
(1137.1 -24.554 -303.726)
(1518.21 -24.049 -327.948)
(1981.99 -25.202 -343.141)
(2522.49 -30.2612 -332.728)
(3021.67 -38.5899 -296.655)
(3502.73 -28.5871 -462.948)
(4156.4 -1.0441 -624.372)
(4835.39 5.15775 -612.197)
(5258.24 -6.94153 -479.447)
(5567.24 -9.77671 -397.355)
(5790.33 -1.60805 -347.823)
(5935.57 5.52353 -307.617)
(6034.65 -3.52028 -261.649)
(6070.91 -14.307 -210.676)
(6039.88 1.30095 -167.675)
(5911.1 20.8357 -127.797)
(5749.4 19.1883 -88.1992)
(5463.68 -8.22298 -42.3204)
(5322.56 2.6312 -6.05883)
(4936.89 17.9984 39.0935)
(4525.39 -24.5748 77.9954)
(4200.96 -47.2202 96.1635)
(3738.29 -26.7502 85.9261)
(3590.34 -6.0974 82.4362)
(3235.67 -9.83102 107.778)
(3116.85 -14.2504 142.41)
(2630.4 -13.3868 142.168)
(2416.99 -14.8964 140.302)
(2074.94 -21.073 164.898)
(2062.8 -19.2282 196.593)
(1204.81 -19.1459 175.239)
(619.406 -13.1507 98.3241)
(484.935 -8.52717 51.0838)
(-248.926 -7.92066 154.654)
(-353.768 -13.2789 -444.136)
(70.878 -17.3833 -679.545)
(496.407 -19.017 -668.219)
(837.921 -19.8695 -583.531)
(1079.19 -20.145 -494.486)
(1249.16 -19.7612 -420.622)
(1340.55 -15.6549 -368.221)
(1409.43 -11.2156 -290.814)
(1426.02 -14.5611 -170.386)
(1259.63 -22.825 -123.941)
(1031.76 -22.4954 -208.271)
(1016.08 -11.9155 -280.57)
(1103.16 -11.9817 -246.2)
(983.543 -20.4152 -183.248)
(773.662 -24.2524 -134.013)
(597.602 -22.6112 -101.359)
(479.705 -20.8664 -104.649)
(457.501 -18.3026 -146.596)
(568.814 -17.6081 -211.595)
(793.724 -16.2438 -272.965)
(1135.47 -14.8836 -320.212)
(1535.45 -13.3846 -345.731)
(2008.6 -13.7874 -365.118)
(2557.03 -20.1993 -355.889)
(3026.86 -32.0352 -310.449)
(3441.47 -25.4098 -499.88)
(4119.06 1.59411 -687.868)
(4904.58 8.8822 -676.967)
(5368.77 -2.18277 -527.393)
(5690.26 -4.98593 -441.052)
(5929.28 3.45639 -376.947)
(6167.52 9.17775 -329.066)
(6377.22 0.93031 -294.049)
(6395.71 -8.78785 -251.956)
(6316.61 5.61388 -198.055)
(6368.51 21.2975 -149.557)
(6343.42 17.9718 -91.9052)
(6229.68 -3.06703 -54.8677)
(5833.09 5.53857 -6.13263)
(5801.42 15.2722 38.9372)
(5386.21 -15.4816 72.8756)
(4901.56 -37.2197 82.0173)
(4203.03 -24.0191 63.5376)
(4134.19 -4.12189 62.4382)
(3744.81 -7.58202 98.069)
(3610.46 -11.6724 133.645)
(3051.07 -11.6415 131.799)
(2887.19 -12.6164 140.712)
(2461.9 -18.7139 163.583)
(2397.61 -17.2485 181.06)
(1516.18 -17.8094 148.536)
(932.481 -12.2668 73.6559)
(802.707 -7.85087 26.9952)
(-88.2033 -4.81403 312.661)
(14.9102 -8.44685 -565.013)
(277.258 -9.85184 -777.675)
(552.233 -9.80316 -656.463)
(797.324 -9.69622 -499.65)
(992.283 -9.54785 -370.304)
(1139.73 -8.98011 -262.773)
(1228.27 -7.06525 -171.015)
(1250.68 -5.65316 -66.5116)
(1235.11 -7.72626 98.2431)
(1149.1 -12.8943 185.139)
(985.059 -13.735 77.8013)
(891.707 -10.9022 18.4353)
(804.678 -11.9339 95.0916)
(661.802 -16.2494 140.745)
(565.646 -18.4553 132.452)
(533.406 -19.1087 59.4854)
(555.383 -17.7306 -62.7)
(652.531 -16.7057 -224.597)
(800.196 -13.5059 -382.277)
(1019.85 -9.45434 -520.305)
(1294.6 -7.17707 -620.87)
(1630.88 -12.1896 -712.198)
(2050.58 -21.3825 -764.115)
(2579.43 -24.4705 -758.102)
(3181.43 -22.1641 -712.65)
(3668.97 -14.1557 -734.059)
(4027.62 -1.16553 -769.087)
(4296.46 7.16576 -615.411)
(4481.2 6.30799 -378.302)
(4639.25 5.27954 -220.511)
(4746.95 6.12308 -124.996)
(4800.1 8.34649 -46.8994)
(4813.17 6.38046 38.4371)
(4820.44 3.48995 124.157)
(4825.06 5.88326 189.952)
(4797.96 10.5151 243.449)
(4745.13 9.54114 302.642)
(4669.16 5.00341 349.32)
(4575.84 4.47161 393.282)
(4459.95 6.03836 456.582)
(4348.88 -2.25464 500.276)
(4244.07 -7.23794 510.26)
(4109.87 -5.25096 456.16)
(3928.71 -3.53845 393.763)
(3715.41 -6.74052 371.853)
(3517.55 -10.8147 388.81)
(3316.01 -13.7515 391.677)
(3082.67 -17.062 357.171)
(2794.32 -17.9709 360.563)
(2528.24 -13.7033 504.209)
(2295.24 -5.95756 581.222)
(2071.82 -3.63424 476.211)
(1616.03 -5.40659 375.459)
(-88.0191 -4.38563 332.387)
(23.4527 -7.26351 -584.45)
(285.162 -8.54074 -809.553)
(556.049 -8.42136 -688.996)
(797.791 -8.34708 -531.174)
(989.664 -8.26245 -400.606)
(1134.31 -7.74382 -292.946)
(1219.97 -5.82767 -203.862)
(1246.77 -4.28427 -98.7797)
(1237.17 -6.07585 72.9148)
(1159.49 -10.456 160.394)
(984.294 -10.721 39.7479)
(892.943 -7.71567 -8.37257)
(801.78 -8.16168 77.5585)
(651.25 -11.5232 136.394)
(551.21 -12.8496 118.092)
(512.925 -12.658 44.1724)
(541.884 -10.5745 -84.7491)
(639.785 -8.66283 -244.009)
(802.879 -4.73687 -400.475)
(1043.36 0.287624 -538.937)
(1355.98 5.1448 -638.725)
(1729.31 4.80522 -732.28)
(2156.05 -2.90962 -793.782)
(2665.75 -13.7721 -791.013)
(3241.45 -24.5881 -744.032)
(3692.29 -26.1024 -778.989)
(4013.71 -14.5099 -838.748)
(4284.44 -2.49895 -690.591)
(4494.66 0.888645 -442.775)
(4680.35 2.67709 -281.541)
(4812.34 5.12361 -193.961)
(4887.73 8.28461 -122.21)
(4922.55 7.08067 -23.736)
(4929.47 4.79637 82.2341)
(4938.58 7.43243 134.891)
(4922.5 12.1274 168.537)
(4879.8 11.3551 231.686)
(4825.17 7.08511 311.39)
(4739.65 6.65479 346.667)
(4647.84 8.23436 392.322)
(4542.12 0.207117 483.562)
(4451.84 -4.73454 517.935)
(4327.63 -2.93737 444.319)
(4153.87 -1.36152 365.264)
(3936.65 -4.6127 348.937)
(3731.37 -8.76463 371.29)
(3506.14 -11.877 368.95)
(3248.43 -15.3319 336.2)
(2937.58 -16.4137 351.231)
(2670.19 -12.2312 501.304)
(2448.13 -4.52485 575.177)
(2257.92 -2.27912 466.084)
(1811.23 -4.12083 362.221)
(6.15319 -5.60574 251.876)
(156.687 -5.1944 -791.127)
(359.861 -5.65543 -1034.86)
(560.801 -5.73252 -899.323)
(748.209 -5.73257 -719.604)
(910.916 -5.73752 -559.968)
(1046.7 -5.55104 -414.288)
(1145.37 -4.96294 -270.086)
(1193.44 -4.43986 -102.931)
(1205.48 -5.417 111.23)
(1169.26 -8.33903 245.837)
(1021.78 -9.00625 124.82)
(941.428 -7.59797 55.3175)
(899.589 -8.72261 136.94)
(815.025 -11.7317 152.434)
(743.377 -12.1015 90.5327)
(730.204 -12.4688 -37.9896)
(763.111 -10.4549 -215.15)
(855.498 -7.92553 -432.797)
(981.862 -1.51114 -635.728)
(1172.34 5.69907 -829.985)
(1378.75 6.61776 -969.364)
(1653.39 -10.2483 -1158.62)
(2072.34 -28.1051 -1302.22)
(2626.78 -25.9467 -1368.51)
(3222.75 -12.9299 -1295.02)
(3701.13 -1.6396 -1181.72)
(4005.72 5.00291 -1062.25)
(4166.76 5.47668 -836.634)
(4236.65 1.82324 -560.291)
(4254.1 0.251991 -349.517)
(4221.53 1.04411 -200.826)
(4146.95 2.61043 -80.6829)
(4033.19 2.64151 33.7367)
(3882.23 3.45071 139.408)
(3723.59 5.529 222.888)
(3518.62 7.33023 304.386)
(3282.48 7.4363 386.075)
(3025.44 6.70325 459.748)
(2759.05 6.12649 520.303)
(2498.49 6.04592 573.407)
(2261.78 3.92277 606.315)
(2052.89 2.10138 608.04)
(1862.85 1.04308 573.887)
(1683.09 -0.450198 532.88)
(1519.51 -3.78217 510.796)
(1379.26 -8.25958 508.596)
(1248.94 -12.6697 508.832)
(1096.71 -15.524 513.823)
(910.053 -14.5741 548.394)
(706.955 -9.3708 623.757)
(502.524 -1.88186 669.395)
(314.953 -0.603638 660.062)
(-36.9691 -3.71568 603.721)
(14.6334 -5.14132 268.175)
(170.598 -4.25583 -809.581)
(372.734 -4.54433 -1062.04)
(571.424 -4.56179 -927.927)
(757.402 -4.59014 -747.296)
(918.528 -4.654 -586.339)
(1052.6 -4.51412 -439.755)
(1149.3 -3.92968 -296.068)
(1195.97 -3.31415 -128.522)
(1210.21 -4.10608 90.4793)
(1173 -6.63743 222.406)
(1017.06 -6.9754 87.3382)
(937.061 -5.24624 24.1346)
(898.446 -5.87061 114.512)
(810.992 -8.07812 140.111)
(738.887 -7.46779 66.2095)
(720.197 -6.72734 -56.6155)
(762.218 -3.55777 -240.548)
(858.53 0.251138 -447.399)
(1011.39 7.87803 -651.82)
(1240.05 17.0117 -842.219)
(1526.03 23.668 -984.624)
(1858.63 15.5697 -1172.47)
(2265.79 -5.64571 -1335.66)
(2770.86 -26.9275 -1415.48)
(3314.53 -40.4641 -1349.49)
(3750.93 -40.8609 -1251.7)
(4036.06 -29.9083 -1149.56)
(4198.43 -19.295 -935.704)
(4274.38 -13.9244 -660.417)
(4301.41 -9.40808 -445.809)
(4278.54 -4.92423 -292.234)
(4211.1 -1.12898 -168.465)
(4105.43 0.349744 -47.638)
(3948.78 2.00627 72.1423)
(3794.75 4.66651 158.093)
(3597.15 6.8942 234.732)
(3368.63 7.39485 318.881)
(3122.18 7.0178 399.53)
(2868.14 6.75226 463.139)
(2618.54 6.926 516.906)
(2392.52 5.04658 562.673)
(2196.52 3.41298 573.571)
(2017.04 2.47662 540.713)
(1842.31 1.0688 500.35)
(1676.09 -2.19769 482.486)
(1524.03 -6.67109 483.08)
(1371.97 -11.1658 483.601)
(1195.11 -14.1483 491.097)
(992.524 -13.294 530.229)
(794.136 -8.10845 609.273)
(616.062 -0.607464 656.274)
(472.828 0.611938 647.814)
(135.219 -2.53099 590.972)
(51.9891 -0.297199 98.7243)
(216.968 -2.61096 -995.366)
(384.539 -3.47527 -1228.43)
(539.871 -3.6023 -1081.66)
(688.04 -3.69067 -894.302)
(825.777 -3.88411 -721.688)
(952.316 -3.98251 -554.164)
(1061.08 -3.77244 -376.877)
(1142.25 -3.4692 -168.105)
(1200.54 -4.43164 91.4455)
(1222.76 -6.41198 306.249)
(1094.54 -7.56564 204.321)
(1008.41 -6.26377 105.784)
(991.017 -7.04576 156.332)
(978.116 -7.59766 184.269)
(953.143 -8.13747 93.0062)
(952.729 -6.58306 -60.8447)
(982.134 -4.69573 -303.044)
(1047.5 1.39901 -560.292)
(1150.56 9.90018 -817.198)
(1305.74 22.9629 -1048.14)
(1448.5 17.4697 -1225.62)
(1688.52 -15.3516 -1555.97)
(2138.93 -37.8189 -1789.79)
(2692.84 -23.0493 -1889.48)
(3238.41 -1.47683 -1745.77)
(3645.21 7.39514 -1460.76)
(3856.28 5.95946 -1173.79)
(3914 -2.66737 -834.16)
(3896.28 -13.2264 -483.01)
(3834.6 -18.4786 -212.262)
(3741.75 -18.17 -21.9182)
(3624.22 -15.6805 129.04)
(3465.02 -14.5587 278.144)
(3284.03 -11.3916 404.29)
(3075.62 -7.06192 507.182)
(2796.26 -4.97809 612.115)
(2464.94 -3.44294 708.443)
(2094.02 -2.49849 785.971)
(1698.71 -1.47473 838.619)
(1298.65 -0.855755 864.501)
(916.449 -0.562336 857.349)
(566.407 -0.787639 815.691)
(256.696 -1.43689 746.575)
(-4.10479 -3.28954 672.353)
(-216.528 -6.70976 611.872)
(-382.974 -11.3438 572.43)
(-525.76 -15.8183 554.196)
(-673.971 -17.8614 563.823)
(-849.097 -15.416 609.38)
(-1054.97 -8.71363 681.118)
(-1279.61 -0.363551 739.862)
(-1467.5 0.62666 776.958)
(-1783.99 -3.33733 754.413)
(61.1985 0.278856 116.663)
(230.863 -1.69297 -1011.32)
(399.373 -2.35603 -1255.22)
(554.212 -2.42571 -1108.86)
(702.195 -2.54817 -920.445)
(839.25 -2.80734 -746.287)
(964.39 -2.96895 -577.347)
(1071.25 -2.79424 -398.973)
(1150.54 -2.45301 -188.11)
(1210.17 -3.23531 77.7208)
(1227.95 -4.98419 286.108)
(1091.5 -5.94118 166.7)
(1005.12 -4.26683 67.2596)
(993.263 -4.48428 128.461)
(977.935 -4.35013 150.873)
(951.949 -3.81472 67.8591)
(951.821 -1.05654 -91.5985)
(987.947 2.25516 -326.236)
(1071.44 9.82185 -579.627)
(1211.82 20.0196 -829.33)
(1440.77 35.7372 -1065.23)
(1712.58 40.3118 -1241.11)
(2022.39 19.2608 -1568.46)
(2416.78 -19.4056 -1842.89)
(2886.81 -49.9504 -1969.48)
(3358.45 -65.3074 -1850.05)
(3710.64 -63.236 -1603.18)
(3909 -48.7192 -1348.25)
(3987.48 -38.0039 -1030.08)
(3989.58 -34.5115 -685.974)
(3947.27 -31.0078 -405.701)
(3868.97 -25.6523 -197.097)
(3757.89 -20.4242 -26.8081)
(3603.44 -17.7245 137.549)
(3394.26 -14.1511 292.518)
(3184.59 -9.25186 404.91)
(2904.83 -6.66515 513.951)
(2576.63 -4.6675 616.347)
(2210.49 -3.30605 701.162)
(1822.44 -1.90993 761.291)
(1429.65 -0.959457 794.076)
(1056.07 -0.367692 796.271)
(713.716 -0.33178 763.402)
(410.226 -0.756416 701.621)
(149.097 -2.421 632.982)
(-72.1696 -5.70328 576.706)
(-259.676 -10.2958 539.019)
(-432.48 -14.8338 521.301)
(-610.971 -16.9723 532.823)
(-802.717 -14.5451 582.886)
(-998.696 -7.77744 660.988)
(-1186.49 0.61947 724.969)
(-1321.3 1.57467 765.036)
(-1618.44 -2.3624 742.208)
(68.1039 -2.37118 -83.256)
(234.727 -2.15428 -1173.54)
(376.505 -2.49708 -1377.51)
(500.885 -2.64495 -1222.05)
(620.213 -2.76298 -1034.57)
(737.876 -3.04388 -859.348)
(855.515 -3.33733 -683.05)
(970.394 -3.39321 -490.566)
(1076.73 -3.226 -262.59)
(1176.43 -3.71404 21.2842)
(1265.14 -5.43018 316.224)
(1185.39 -6.66113 278.41)
(1094.79 -5.72427 147.952)
(1083.51 -5.19667 161.481)
(1092.06 -4.88815 148.31)
(1110.91 -4.47069 52.0414)
(1144.06 -2.11466 -103.484)
(1183.92 1.4195 -362.804)
(1233.03 9.45082 -656.479)
(1303.56 22.9398 -960.197)
(1420.98 40.1426 -1226.67)
(1482.93 25.256 -1450.15)
(1711.97 -26.3605 -1962.26)
(2190.52 -45.5912 -2256.25)
(2686.17 -12.1326 -2342.57)
(3154.28 13.16 -2063.79)
(3483.53 14.4291 -1581.51)
(3587.06 1.62914 -1132.12)
(3527.38 -20.9681 -682.184)
(3415.84 -45.6115 -264.053)
(3272.34 -59.8547 43.2069)
(3119.11 -61.8568 245.4)
(2971.84 -56.8841 400.989)
(2797.9 -53.1176 568.856)
(2668.82 -44.7182 705.645)
(2468.59 -35.0994 852.38)
(2167.87 -29.2696 1003.62)
(1786.77 -24.0772 1135.37)
(1342.29 -19.4522 1232.53)
(853.947 -15.1542 1287.31)
(344.137 -11.6866 1295.39)
(-163.304 -8.82971 1253.97)
(-641.721 -7.12288 1158.7)
(-1073.93 -6.69815 1024.36)
(-1434.91 -8.39218 880.221)
(-1716.43 -12.4454 751.333)
(-1930.09 -18.1094 652.576)
(-2105.82 -22.8916 594.253)
(-2277.56 -23.7918 589.455)
(-2482.35 -19.5088 642.815)
(-2738.75 -11.0298 733.612)
(-3023.37 -1.8335 816.567)
(-3234.93 -0.609623 879.357)
(-3552.01 -4.51782 881.627)
(81.3539 -1.72957 -76.5296)
(253.134 -1.16635 -1190.36)
(396.316 -1.27477 -1401.79)
(521.665 -1.3586 -1246.72)
(642.333 -1.49873 -1058.04)
(760.493 -1.83993 -881.241)
(877.239 -2.20483 -703.313)
(989.902 -2.31972 -509.274)
(1093.9 -2.1631 -279.087)
(1192.38 -2.5228 10.6816)
(1278.21 -4.05774 304.163)
(1185.16 -5.18512 242.442)
(1096.68 -3.85147 109.44)
(1087.06 -2.74443 126.329)
(1094.8 -1.71741 113.128)
(1111.14 -0.291089 24.9502)
(1148.68 3.25971 -134.854)
(1196.93 8.29499 -384.244)
(1277.52 18.0092 -675.505)
(1407.25 33.4872 -971.674)
(1636.91 54.3095 -1251.81)
(1891.8 54.7475 -1463.42)
(2178.55 15.5855 -1975.82)
(2541.89 -40.875 -2345.23)
(2926.41 -74.8597 -2477.17)
(3306.43 -87.9013 -2253.21)
(3573.21 -80.1088 -1855.94)
(3678.91 -60.9415 -1481.29)
(3664.57 -53.7933 -1088.07)
(3586.06 -59.9922 -701.932)
(3476.93 -64.1537 -383.871)
(3356.7 -61.3638 -138.332)
(3230.4 -54.822 71.6911)
(3066.82 -50.8234 283.863)
(2875 -44.4867 481.365)
(2658.94 -35.1577 650.63)
(2346.09 -29.3625 819.686)
(1959.38 -24.1565 970.107)
(1512.88 -19.5336 1086.98)
(1025.85 -15.2122 1160.39)
(519.467 -11.6865 1186.35)
(17.5807 -8.73915 1161.57)
(-455.707 -6.90801 1082.33)
(-885.302 -6.33515 962.144)
(-1252.08 -7.86923 829.122)
(-1551.95 -11.7947 706.923)
(-1798.2 -17.4352 610.66)
(-2014.22 -22.3092 552.475)
(-2222.56 -23.2993 548.981)
(-2443.26 -18.9739 609.342)
(-2680.56 -10.3749 710.787)
(-2911.86 -1.13046 802.413)
(-3058.35 0.063499 869.215)
(-3351.74 -3.7741 869.651)
(71.6233 1.9571 -286.669)
(233.515 -0.709138 -1331.74)
(353.353 -1.5203 -1489.39)
(455.442 -1.64116 -1326.94)
(552.924 -1.73868 -1142.76)
(654.068 -2.06301 -970.558)
(762.273 -2.46963 -794.377)
(878.17 -2.62349 -600.49)
(1000.52 -2.4534 -370.175)
(1130.86 -2.89856 -77.6059)
(1284.55 -4.31628 288.585)
(1284.02 -5.41655 352.166)
(1192.47 -5.0353 201.446)
(1194.55 -3.56906 192.527)
(1203.02 -3.16534 149.234)
(1208.63 -0.713848 30.6904)
(1246.06 1.57123 -168.128)
(1296.9 7.82248 -425.949)
(1347.85 17.6156 -744.48)
(1406.82 38.2183 -1050.63)
(1497.35 58.0493 -1342.31)
(1466.99 32.2978 -1614.45)
(1701.62 -39.9741 -2342.43)
(2182.71 -46.6113 -2640.31)
(2547.89 8.3523 -2681.1)
(2946.63 31.2876 -2214.79)
(3202.92 22.9625 -1517.73)
(3188.85 -2.47049 -904.239)
(3016.57 -44.5092 -331.629)
(2839.81 -93.2499 169.842)
(2642.53 -126.708 515.075)
(2432.39 -137.319 698.155)
(2235.39 -130.854 798.707)
(2031.7 -123.432 913.803)
(1994.94 -104.847 1032.91)
(1860.58 -86.523 1243.11)
(1582.16 -74.1779 1458.84)
(1182.51 -62.5883 1639)
(684.815 -51.2642 1768.11)
(114.538 -41.2939 1836.09)
(-502.153 -32.7342 1836.6)
(-1133.06 -26.0483 1767.25)
(-1752.69 -20.8862 1621.89)
(-2341.81 -18.1668 1405.45)
(-2844.32 -18.804 1158.75)
(-3245.3 -23.1025 929.835)
(-3555.17 -28.9743 742.584)
(-3804.63 -33.4838 616.299)
(-4041.53 -33.4392 577.879)
(-4328.38 -25.8925 645.805)
(-4708 -13.8724 782.894)
(-5124.66 -2.3501 895.485)
(-5375.67 -0.666188 965.28)
(-5687.13 -5.95718 984.364)
(85.4368 2.75422 -273.628)
(252.76 0.397332 -1347.09)
(376.184 -0.158447 -1514.38)
(481.162 -0.20629 -1352.26)
(581.508 -0.320401 -1167.69)
(684.401 -0.694073 -994.716)
(792.467 -1.1646 -817.58)
(906.203 -1.39726 -622.556)
(1025.6 -1.2862 -389.835)
(1153.79 -1.66813 -89.9687)
(1304.96 -2.97431 278.643)
(1287.12 -4.06105 314.342)
(1196.65 -3.30124 159.19)
(1199.86 -1.24561 148.083)
(1208.77 -0.0415269 111.77)
(1212.57 3.34011 -10.9353)
(1257.53 6.79208 -198.04)
(1325.2 14.4685 -454.576)
(1419.04 26.102 -761.14)
(1567.37 48.7014 -1072.99)
(1812.89 73.6946 -1375.82)
(2047.8 69.2245 -1627.69)
(2302.28 7.13954 -2360.6)
(2597.02 -63.8016 -2787.07)
(2836.76 -92.4534 -2890.89)
(3133 -97.1034 -2535.68)
(3330.69 -77.6117 -1999.59)
(3348.24 -52.7005 -1532.99)
(3242.67 -53.9017 -1089.26)
(3084.86 -78.878 -694.966)
(2911.01 -100.226 -380.116)
(2752.2 -107.158 -134.797)
(2622.21 -102.946 87.1801)
(2478.76 -100.079 325.026)
(2340.87 -91.7139 572.619)
(2167.98 -76.6499 830.757)
(1859.54 -66.5359 1092.08)
(1440.55 -56.82 1322.19)
(930.199 -47.0465 1499.99)
(351.709 -38.2949 1612.51)
(-266.683 -30.6389 1652.72)
(-896.202 -24.602 1618.01)
(-1511.91 -19.8602 1504.03)
(-2099.59 -17.3619 1315.44)
(-2611.08 -18.0689 1090.36)
(-3040.14 -22.3871 874.377)
(-3395.95 -28.3505 691.051)
(-3701.86 -33.0478 563.276)
(-3984.83 -33.1323 528.53)
(-4286.12 -25.5045 609.636)
(-4631.05 -13.3526 764.876)
(-4968.04 -1.89755 891.278)
(-5139.72 -0.312739 964.317)
(-5428.07 -5.43701 977.008)
(65.3553 -0.5625 -478.395)
(216.02 -0.661077 -1469.4)
(316.828 -1.01726 -1576.02)
(401.492 -1.0241 -1409.63)
(481.148 -1.03174 -1232.06)
(567.798 -1.31246 -1066.89)
(665.333 -1.78271 -896.788)
(776.905 -2.14973 -710.293)
(902.96 -2.30255 -490.279)
(1053.64 -2.65709 -209.693)
(1250.45 -3.95313 182.76)
(1356.26 -4.68594 383.099)
(1285.49 -4.13717 253.265)
(1286.04 -2.66886 199.717)
(1319.42 -1.55 157.426)
(1323.73 1.0269 37.129)
(1326.14 5.38028 -178.983)
(1335.13 13.2787 -469.486)
(1354.99 27.962 -822.287)
(1386.76 53.5741 -1146.94)
(1472.02 78.1003 -1423.77)
(1373.38 34.1966 -1734.47)
(1632.14 -57.0265 -2677.7)
(2085.51 -43.9759 -2917.02)
(2246.49 32.416 -2901.34)
(2624.63 48.601 -2192.87)
(2793.43 35.8928 -1271.62)
(2643.14 2.07955 -502.91)
(2396.13 -62.368 198.238)
(2261.02 -143.87 821.926)
(2144.57 -206.536 1269.99)
(1984.01 -233.71 1480.76)
(1762.78 -232.538 1510.01)
(1460.48 -226.303 1454.17)
(1379.06 -196.885 1453.88)
(1310.37 -165.298 1700.41)
(1066.16 -143.025 1999.83)
(651.536 -118.469 2241.16)
(108.688 -95.2439 2413.11)
(-534.22 -75.0469 2502.68)
(-1248.11 -58.1695 2506.83)
(-1996.65 -44.7359 2420.45)
(-2749.44 -34.4069 2240.31)
(-3514.91 -27.7769 1940.36)
(-4233.57 -26.7609 1567)
(-4850.65 -31.5785 1202.76)
(-5362.4 -40.4245 878.304)
(-5802.16 -47.4691 629.941)
(-6222.85 -43.3799 527.849)
(-6741.3 -29.5203 636.885)
(-7478.65 -12.35 894.808)
(-8264.94 2.87389 1031.78)
(-8582.61 3.1615 1030.69)
(-8790.63 -6.57451 1041.98)
(82.5418 0.303403 -477.897)
(240.586 0.59539 -1486.28)
(345.649 0.532501 -1600.28)
(434.928 0.615607 -1434.71)
(519.431 0.613907 -1256.98)
(609.859 0.312113 -1091.36)
(708.964 -0.192854 -920.564)
(819.335 -0.625127 -733.106)
(942.68 -0.862015 -511.273)
(1089.44 -1.23529 -224.83)
(1284 -2.48851 176.038)
(1370.83 -3.28108 353.862)
(1292.75 -2.53728 209.103)
(1297.45 -0.498053 157.773)
(1329.31 1.40843 118.046)
(1334.43 4.92169 -2.60153)
(1345.48 10.4415 -210.062)
(1384.97 19.7605 -498.4)
(1462.35 36.271 -843.126)
(1621.47 64.1134 -1178.55)
(1914.68 95.4353 -1470.31)
(2154.9 80.0566 -1737.86)
(2370.32 -6.81418 -2705.03)
(2554.77 -88.3047 -3135.71)
(2590.86 -101.196 -3193.13)
(2842.67 -89.4706 -2688.64)
(2984.24 -46.2406 -2022.31)
(2920.88 -11.1 -1483.44)
(2748.46 -22.3839 -1012.25)
(2544.81 -69.2011 -649.758)
(2337.71 -110.031 -387.601)
(2160.04 -129.754 -190.853)
(2028.71 -134.229 0.961476)
(1910.48 -141.019 226.34)
(1768.8 -142.248 514.654)
(1689.37 -125.077 881.936)
(1428.29 -112.395 1286.36)
(1007.01 -95.8927 1641.78)
(455.768 -79.019 1921.24)
(-194.228 -63.7082 2106.82)
(-912.24 -50.4593 2192.76)
(-1661.62 -39.6283 2175.41)
(-2413.68 -31.101 2054.38)
(-3179.43 -25.6008 1806.65)
(-3909.93 -25.1757 1474.89)
(-4564.81 -30.2601 1135.12)
(-5139.11 -39.2974 820.066)
(-5647.45 -46.626 572.909)
(-6118.13 -42.7358 470.763)
(-6641.94 -28.8257 616.955)
(-7302.02 -11.7773 902.07)
(-7939.73 2.8218 1054.52)
(-8148.12 2.84736 1063.85)
(-8349.75 -6.35723 1051.29)
(54.5667 3.07659 -676.825)
(190.609 0.621371 -1588.17)
(273.541 0.0159488 -1637.37)
(344.257 0.136046 -1469.62)
(409.458 0.247248 -1299.66)
(483.544 0.048629 -1142.26)
(569.566 -0.443807 -980.091)
(671.911 -0.965718 -804.868)
(790.7 -1.31872 -606.49)
(944.261 -1.88048 -357.723)
(1153.26 -3.77261 17.9669)
(1366.4 -4.59339 352.163)
(1358.07 -3.91581 302.36)
(1346.56 -2.14249 201.866)
(1396.68 -0.247413 157.968)
(1415.97 2.47282 49.9601)
(1412.48 8.9357 -149.302)
(1393.23 18.7385 -446.965)
(1352.3 39.7241 -815.285)
(1289.04 72.0171 -1196.89)
(1305.16 101.397 -1491.35)
(1149.19 32.8566 -1844.75)
(1495.06 -76.6015 -2956.91)
(1882.86 -36.8027 -3071.34)
(1780.19 59.1458 -2998.86)
(2225.74 70.6782 -1975.77)
(2243.64 69.7817 -848.352)
(1930.61 39.3722 15.0977)
(1658.71 -42.5666 779.499)
(1685.48 -149.967 1518.38)
(1790.66 -225.918 2145.17)
(1833.82 -255.36 2526.31)
(1766.91 -256.444 2668.72)
(1551.48 -246.556 2574.8)
(1181.01 -231.868 2283.53)
(1095.79 -214.284 2392.09)
(788.814 -188.532 2768.48)
(255.225 -155.354 3050.93)
(-406.246 -124.61 3245.14)
(-1159.13 -98.3748 3334.89)
(-1972.79 -77.6516 3328.53)
(-2825.5 -61.2161 3228.08)
(-3682.86 -47.9193 3026.59)
(-4576.22 -37.4567 2669.21)
(-5582.7 -33.846 2179.86)
(-6518.99 -40.5147 1659.53)
(-7392.49 -51.6487 1153.83)
(-8230.51 -58.4579 724.643)
(-9110.52 -60.8096 513.88)
(-10326.8 -16.3429 780.983)
(-12337.2 12.5811 1441.85)
(-14386.7 28.4088 1592.76)
(-15098.1 38.6428 1068.27)
(-14842.8 2.37643 939.641)
(73.4969 4.14449 -666.944)
(217.357 2.06063 -1605.52)
(307.028 1.77311 -1663.84)
(384.663 2.00345 -1497.12)
(456.903 2.15847 -1328.1)
(537.052 1.98311 -1171.52)
(626.923 1.50257 -1010)
(729.934 0.947488 -835.267)
(847.235 0.505946 -636.15)
(997.186 -0.149475 -381.908)
(1204.73 -2.0894 7.71464)
(1399.28 -3.0717 328.847)
(1373.4 -2.42247 257.167)
(1364.96 -0.151831 158.564)
(1414.97 2.45817 112.709)
(1437.7 6.09101 10.9548)
(1448.04 13.629 -189.544)
(1469.54 24.8933 -477.141)
(1511.08 47.6081 -847.602)
(1614.7 82.7669 -1239.93)
(1905.68 120.792 -1557.25)
(2167.74 89.8109 -1823.65)
(2364.61 -24.6114 -3001.89)
(2398.29 -109.858 -3369.95)
(2181.08 -96.0754 -3369.44)
(2457.19 -54.7573 -2691.34)
(2538.88 32.9737 -1886.22)
(2412.7 84.5699 -1290.35)
(2236.16 64.976 -824.712)
(2064.05 7.37515 -538.106)
(1904.71 -30.3136 -367.497)
(1783.5 -43.9816 -243.947)
(1699.42 -49.3708 -100.431)
(1624.19 -58.1429 94.8667)
(1454.5 -83.1901 383.977)
(1298.64 -107.733 827.221)
(1062.81 -108.087 1392.38)
(640.252 -97.627 1925.24)
(49.0543 -84.5607 2347.24)
(-665.405 -71.4825 2637.21)
(-1463.15 -60.1225 2794.75)
(-2310.73 -50.1365 2827.89)
(-3173.72 -41.165 2735)
(-4072.26 -33.4092 2473.37)
(-5082.86 -31.1696 2063.3)
(-6051.76 -38.2099 1594.76)
(-6989.15 -49.4028 1120.72)
(-7908.21 -56.3868 688.288)
(-8818.15 -58.9497 464.483)
(-9975.86 -15.0917 859.499)
(-11760.4 11.8526 1570.57)
(-13352.3 23.7558 1743.08)
(-13914 32.1377 1297.45)
(-13771.2 -0.385848 1059.56)
(38.1774 0.722068 -852.146)
(153.591 0.735208 -1684.91)
(221.241 0.607636 -1679.73)
(280.385 0.952542 -1514.59)
(333.329 1.25176 -1354.17)
(396.155 1.24614 -1205.49)
(470.408 0.878091 -1052.47)
(559.689 0.313685 -889.428)
(667.124 -0.336987 -711.194)
(806.931 -1.19136 -493.077)
(999.32 -3.63368 -165.63)
(1292.86 -5.95443 239.551)
(1395.71 -5.12974 326.9)
(1373.76 -2.30141 203.878)
(1418.88 0.390857 142.938)
(1458.18 3.85309 58.2173)
(1457.74 10.8064 -120.101)
(1425.6 24.1372 -397.011)
(1354.61 49.4842 -748.717)
(1228.14 90.9269 -1139.77)
(1116.1 121.646 -1486.06)
(822.089 28.0745 -1939.84)
(1287.33 -99.8404 -3196.45)
(1581.89 -28.4247 -3106.88)
(1157.79 83.7032 -2979.26)
(1813.3 99.5316 -1548.01)
(1570.96 135.506 -290.27)
(1077.58 118.895 503.576)
(709.125 25.5038 1165.1)
(697.632 -75.3427 1930.69)
(647.936 -101.12 2640.9)
(436.139 -70.1732 3114.28)
(161.81 -16.3905 3405.02)
(33.7776 50.4777 3557.67)
(-236.953 67.8035 3712.82)
(315.433 -25.4416 4036.78)
(47.5804 -78.5994 4272.29)
(-708.66 -81.8074 4364.37)
(-1588.09 -79.5425 4401.13)
(-2484.27 -69.4464 4362.62)
(-3348.87 -61.6337 4272.56)
(-4200.91 -52.712 4131.36)
(-5043.62 -43.3415 3919.25)
(-5882.34 -30.802 3560.85)
(-7135.59 -23.3586 3025.14)
(-8423.75 -29.5811 2410.41)
(-9832.5 -39.961 1781.4)
(-11454.4 -71.756 1237.49)
(-13579 -100.436 1168.45)
(-17676.9 114.557 2387.95)
(-25565.7 264.738 3527.44)
(-25705.8 290.239 1404.48)
(-25278.4 381.214 -805.562)
(-25168.2 165.21 -630.3)
(60.3905 1.86091 -855.047)
(186.658 2.38446 -1704.55)
(262.116 2.61476 -1707.06)
(330.327 3.09649 -1543.81)
(392.88 3.48641 -1384.85)
(464.803 3.56673 -1237.69)
(546.324 3.29149 -1086.07)
(639.704 2.77513 -924.273)
(748.626 2.0968 -746.911)
(886.55 1.1329 -527.095)
(1077.41 -1.47383 -188.205)
(1356.2 -4.04525 219.643)
(1429.33 -3.51594 285.011)
(1403.19 -0.395881 158.025)
(1451.92 2.88525 98.6359)
(1494.53 7.1498 15.994)
(1513.61 15.1578 -162.676)
(1530.12 29.9015 -433.74)
(1568.13 57.073 -790.905)
(1647.78 101.997 -1198.59)
(1881.08 144.415 -1564.55)
(2091.88 98.0818 -1882.84)
(2275.65 -47.6949 -3265.74)
(2131.47 -127.89 -3486.95)
(1622.97 -79.2877 -3408.4)
(2033.39 8.97259 -2513.44)
(2037.34 163.798 -1533.51)
(1895.6 221.679 -927.703)
(1785.44 181.924 -533.826)
(1682.03 128.602 -359.486)
(1612.34 125.754 -259.365)
(1605.64 144.476 -154.689)
(1640.28 159.016 3.53656)
(1683.77 165.782 238.166)
(1590.7 138.798 573.8)
(1210.56 80.8199 1030.45)
(703.52 23.986 1572.57)
(170.097 -6.51085 2214.09)
(-510.133 -27.9907 2814.45)
(-1320.22 -36.9891 3219.89)
(-2188.6 -42.2225 3453.25)
(-3094.22 -42.0541 3556.88)
(-4016.86 -38.1057 3528.35)
(-4953.24 -29.013 3318.37)
(-6211.63 -23.0832 2901.65)
(-7504.08 -28.7991 2375.15)
(-8941.81 -38.0406 1826.83)
(-10576.5 -67.5466 1248.62)
(-12413.5 -94.2967 823.817)
(-15676.1 101.523 2122.26)
(-21813.6 194.92 3303.21)
(-22337.1 211.398 2022.79)
(-22099.7 288.065 473.414)
(-21875 120.228 -89.7559)
(17.5202 3.81736 -1028.82)
(109.431 2.08182 -1759.48)
(163.822 1.93102 -1701.76)
(213.648 2.48151 -1542.56)
(256.946 3.03054 -1391.48)
(310.582 3.33172 -1249.76)
(373.944 3.25277 -1103.66)
(448.526 2.86296 -950.237)
(538.08 2.16794 -788.396)
(650.805 1.06238 -611.846)
(793.086 -1.42484 -376.279)
(1110.78 -6.76946 15.9685)
(1379.82 -8.27663 301.505)
(1384.35 -4.10566 232.93)
(1394.98 0.783992 140.453)
(1439.8 5.00215 67.6825)
(1449.37 12.2703 -86.1318)
(1408.96 28.4527 -325.464)
(1315.63 58.3661 -651.882)
(1139.36 107.006 -1015.56)
(953.164 139.836 -1380.53)
(496.119 20.2646 -1957.31)
(1059.66 -122.777 -3383.96)
(1207.04 -19.9798 -3083.26)
(425.782 107.271 -2888.77)
(1518.42 146.541 -896.166)
(884.794 238.873 166.266)
(259.129 201.258 642.044)
(32.9422 69.8659 1216.75)
(137.267 5.34105 2133.92)
(-157.789 66.2881 3036.73)
(-1164.67 206 3632.59)
(-2881.57 407.676 3926.11)
(-5031.71 684.404 3947.32)
(-10526.5 634.986 2635.49)
(-13015.8 -58.3686 1945.35)
(-10586.9 -409.213 2813.85)
(-9651.31 -237.506 3558.15)
(-8670.88 -69.5625 4291.36)
(-8477.41 12.2079 4597.29)
(-8495.73 24.8815 4645.19)
(-8590.85 30.4669 4563.35)
(-8754.62 28.227 4435.08)
(-8826.89 22.0876 4236.93)
(-10077 17.0015 3879.47)
(-11664.4 0.50831 3452.05)
(-13868.2 -1.41519 3145.72)
(-17066.6 -146.046 3244.67)
(-22044.6 -796.454 3621.47)
(-26032.9 -468.683 3633.31)
(-24267.1 248.799 2165.75)
(-22845.3 1056.94 1119.98)
(-28264.7 2498.88 2646.54)
(-54197.1 2391.14 2958.74)
(42.8467 5.21587 -1021.31)
(146.344 3.97089 -1781.87)
(211.192 4.20354 -1732.6)
(272.783 4.92279 -1575.64)
(328.475 5.61613 -1427.26)
(394.463 6.0826 -1288.61)
(469.157 6.21159 -1145.69)
(552.467 6.01029 -995.633)
(648.735 5.42487 -837.276)
(764.26 4.30393 -662.458)
(906.759 1.60956 -418.077)
(1218.17 -4.14386 -11.3642)
(1448.21 -6.22009 260.688)
(1432.94 -2.1028 180.429)
(1449.1 3.16326 89.8386)
(1500.12 8.004 14.7446)
(1532.38 16.2945 -135.57)
(1550.98 33.8605 -379.286)
(1585.12 65.9016 -709.121)
(1660.37 118.513 -1096.71)
(1875.84 166.758 -1467.34)
(1999.91 104.145 -1858.15)
(2143.97 -72.0475 -3488.12)
(1763.87 -138.511 -3536.46)
(958.531 -49.5922 -3343.63)
(1670.51 110.299 -2114.32)
(1594.26 326.871 -1013.48)
(1499.75 333.155 -507.239)
(1460.75 246.809 -250.887)
(1335.91 210.366 -133.618)
(1272.47 261.215 23.563)
(1291.27 325.773 239.678)
(1380.41 362.951 565.813)
(1548.39 357.845 1053.47)
(1411.5 180.341 1615.32)
(715.673 -36.6541 2217.75)
(-418.774 -187.171 2715.49)
(-1374.49 -161.661 3135.1)
(-2195.18 -92.2895 3715.92)
(-3171.68 -44.5834 4162.54)
(-4097.61 -29.6466 4367.53)
(-4943.54 -17.2717 4451.97)
(-5764.9 -9.2977 4443.22)
(-6492.39 -5.04519 4303.01)
(-7837.93 -3.84178 3966.24)
(-9362.45 -13.0173 3546.67)
(-11415.1 -11.3334 3294.33)
(-14454.7 -130.223 3506.57)
(-19133.3 -825.201 4502.55)
(-37747.3 -924.958 7220.46)