/*--------------------------------*- C++ -*----------------------------------*\
| =========                 |                                                 |
| \\      /  F ield         | OpenFOAM: The Open Source CFD Toolbox           |
|  \\    /   O peration     | Version:  4.1                                   |
|   \\  /    A nd           | Web:      www.OpenFOAM.org                      |
|    \\/     M anipulation  |                                                 |
\*---------------------------------------------------------------------------*/
FoamFile
{
    version     2.0;
    format      ascii;
    class       surfaceScalarField;
    location    "9";
    object      phi;
}
// * * * * * * * * * * * * * * * * * * * * * * * * * * * * * * * * * * * * * //

dimensions      [0 3 -1 0 0 0 0];

internalField   nonuniform List<scalar> 
11516
(
-1.10571e+11
-5.25626e+10
1.51627e+11
-1.31745e+11
-4.49014e+10
6.45106e+10
-7.43988e+10
5.0822e+10
-1.08764e+11
1.24305e+11
5.03024e+10
-2.49123e+11
2.6863e+11
-7.59195e+09
-1.37095e+11
3.10715e+11
-2.41301e+10
-1.87829e+10
1.6923e+11
3.07607e+10
1.09543e+11
9.12832e+10
1.79894e+10
5.91889e+10
5.39588e+10
2.96734e+09
3.37351e+10
3.36834e+10
-6.34636e+08
2.03522e+10
2.14662e+10
-1.07672e+09
1.28141e+10
1.36107e+10
-9.41214e+08
8.4065e+09
8.38745e+09
-7.77769e+08
5.68729e+09
4.82953e+09
-6.15583e+08
3.90474e+09
2.30952e+09
-4.88386e+08
2.75379e+09
4.59288e+08
-3.88114e+08
1.99802e+09
-9.35169e+08
-3.08056e+08
1.48644e+09
-1.98148e+09
-2.37481e+08
1.13705e+09
-2.783e+09
-1.85726e+08
8.83863e+08
-3.39375e+09
-1.38338e+08
7.0069e+08
-3.89277e+09
-1.10245e+08
5.48072e+08
-4.29665e+09
-8.10401e+07
4.43287e+08
-4.63601e+09
-6.35801e+07
3.72952e+08
-4.90332e+09
-5.35242e+07
3.33582e+08
-5.09679e+09
-6.10948e+07
3.09666e+08
-5.21087e+09
-7.37894e+07
2.793e+08
-5.25671e+09
-8.26691e+07
2.37999e+08
-5.26049e+09
-8.64713e+07
2.01859e+08
-5.26469e+09
-7.95469e+07
1.7811e+08
-5.29856e+09
-6.00554e+07
1.6621e+08
-5.38057e+09
-4.03801e+07
1.64084e+08
-5.51978e+09
-2.76846e+07
1.8823e+08
-5.67592e+09
-2.58948e+07
2.14007e+08
-5.94913e+09
-6.29658e+07
2.90709e+08
-6.71044e+09
-1.34818e+08
6.94545e+08
-7.99381e+09
-1.20799e+08
1.08386e+09
-9.66611e+09
-2.85948e+07
1.27734e+09
-1.14371e+10
7.42304e+07
1.33653e+09
-1.30058e+10
1.45872e+08
1.24342e+09
-1.38625e+10
1.90363e+08
7.35543e+08
-1.34259e+10
1.71813e+08
-3.40787e+08
-1.17565e+10
1.12436e+08
-1.45683e+09
-9.72979e+09
1.07095e+08
-1.94685e+09
-8.19045e+09
1.80567e+08
-1.74443e+09
-7.15984e+09
2.66412e+08
-1.53509e+09
-6.14339e+09
2.38549e+08
-1.61465e+09
-8.17774e+09
-6.36846e+06
1.25095e+09
-1.38319e+10
-1.01086e+08
4.97207e+09
-2.08022e+10
2.69704e+08
5.47308e+09
-2.98266e+10
5.89757e+08
6.4009e+09
-3.67663e+10
-1.85361e+09
6.04981e+09
-4.33873e+10
-1.20163e+09
5.31165e+09
-6.52792e+10
6.69324e+09
1.44943e+10
6.59709e+09
1.42576e+10
-9.46867e+10
3.33271e+10
-1.18277e+11
-2.25162e+10
-8.34963e+10
1.5696e+10
6.0146e+10
-9.34531e+10
1.89104e+11
-1.36743e+11
2.00155e+11
-3.5554e+10
1.20984e+11
1.09421e+11
7.71926e+10
6.12974e+10
4.98041e+10
2.99386e+10
3.24083e+10
1.63755e+10
2.10231e+10
9.95932e+09
1.34341e+10
6.34467e+09
8.29614e+09
4.10012e+09
4.69883e+09
2.74675e+09
2.08817e+09
1.90301e+09
1.46344e+08
1.34833e+09
-1.31859e+09
9.89634e+08
-2.44174e+09
7.5559e+08
-3.28988e+09
5.81964e+08
-3.94007e+09
4.43068e+08
-4.43822e+09
3.35341e+08
-4.81925e+09
2.50677e+08
-5.104e+09
1.96043e+08
-5.3145e+09
1.60581e+08
-5.45968e+09
1.22988e+08
-5.54819e+09
7.91876e+07
-5.59479e+09
4.30006e+07
-5.62194e+09
1.73194e+07
-5.6515e+09
9.49466e+06
-5.70579e+09
2.50824e+07
-5.80203e+09
6.26994e+07
-5.94783e+09
1.01754e+08
-6.1196e+09
1.19872e+08
-6.38248e+09
1.37093e+08
-7.01534e+09
3.33092e+08
-8.22848e+09
7.89389e+08
-9.95728e+09
1.35735e+09
-1.18344e+10
1.693e+09
-1.34715e+10
1.6887e+09
-1.4373e+10
1.19424e+09
-1.40476e+10
9.72095e+07
-1.26473e+10
-1.04321e+09
-1.08772e+10
-1.54676e+09
-9.27352e+09
-1.5054e+09
-7.75306e+09
-1.46444e+09
-6.22684e+09
-1.5669e+09
-6.9974e+09
2.40265e+08
-1.03855e+10
2.79838e+09
-1.43773e+10
3.58565e+09
-1.99941e+10
5.10736e+09
-2.92682e+10
5.94192e+09
-3.84037e+10
7.22738e+09
-4.88924e+10
1.69057e+10
1.39105e+10
-4.70231e+10
-2.79539e+09
1.76141e+11
-2.10833e+10
-3.67285e+10
7.52746e+10
2.90459e+10
-4.67785e+10
-1.12007e+11
-2.56824e+10
-3.86925e+10
-1.55664e+11
1.36331e+10
-2.45171e+09
-1.73935e+11
1.52422e+10
2.7641e+09
-2.33256e+10
4.00267e+10
2.33449e+10
6.1174e+10
3.5943e+10
7.3569e+09
5.55954e+10
2.70215e+10
-1.44818e+09
4.36856e+10
1.85697e+10
-2.70152e+09
3.10153e+10
1.20627e+10
-2.09552e+09
2.09198e+10
7.44417e+09
-1.55501e+09
1.41346e+10
4.14899e+09
-1.18561e+09
9.78646e+09
1.7444e+09
-9.01948e+08
6.8812e+09
-3.27919e+07
-7.2331e+08
4.96559e+09
-1.35889e+09
-6.11969e+08
3.67056e+09
-2.34754e+09
-5.27343e+08
2.7935e+09
-3.10057e+09
-4.62645e+08
2.1812e+09
-3.66732e+09
-3.95063e+08
1.74639e+09
-4.13418e+09
-3.35687e+08
1.417e+09
-4.53988e+09
-2.73983e+08
1.16166e+09
-4.92043e+09
-2.13757e+08
9.69799e+08
-5.26828e+09
-1.58523e+08
8.31528e+08
-5.55853e+09
-1.17726e+08
7.30797e+08
-5.76677e+09
-9.11334e+07
6.49075e+08
-5.90683e+09
-6.36008e+07
5.63866e+08
-6.01958e+09
-3.11553e+07
4.7891e+08
-6.15462e+09
-4.87345e+06
4.24401e+08
-6.39059e+09
2.24166e+07
4.47364e+08
-6.79816e+09
5.05608e+07
5.36067e+08
-7.37057e+09
6.66685e+07
6.53092e+08
-8.10303e+09
3.63689e+07
8.5501e+08
-8.70924e+09
-2.86158e+07
7.60256e+08
-8.94069e+09
-2.16255e+08
6.18141e+08
-1.00562e+10
-6.66064e+08
2.19766e+09
-1.18635e+10
-7.05379e+08
3.02386e+09
-1.40046e+10
-2.56269e+08
3.1259e+09
-1.62203e+10
1.60759e+08
3.03909e+09
-1.81394e+10
4.30637e+08
2.66171e+09
-1.96935e+10
6.37379e+08
1.84117e+09
-2.09813e+10
7.6275e+08
5.03427e+08
-2.25101e+10
7.73259e+08
-4.44654e+08
-2.5346e+10
7.90162e+08
8.04089e+07
-2.95746e+10
8.14586e+08
1.20439e+09
-3.43691e+10
1.12462e+09
1.28263e+09
-4.16213e+10
9.85345e+08
3.19645e+09
-4.27358e+10
-1.2664e+09
1.36557e+09
-3.45957e+10
-2.61455e+09
-1.78281e+09
-3.03467e+10
-2.05864e+09
2.0639e+09
-2.85993e+10
-4.71966e+08
3.79578e+09
-2.69193e+10
-2.46054e+08
3.40539e+09
-2.56805e+10
-6.94665e+08
4.24396e+09
-2.21011e+10
3.95828e+09
6.81016e+09
1.6821e+09
1.87703e+09
-3.15031e+10
4.75715e+10
3.73209e+10
-1.2772e+11
3.05994e+10
-2.40768e+10
-3.67608e+10
-6.47663e+10
8.18686e+09
-1.84174e+11
1.73084e+10
-4.20691e+10
5.18686e+10
9.7885e+10
4.94573e+10
7.0711e+10
3.61275e+10
4.14665e+10
2.50328e+10
2.44151e+10
1.67564e+10
1.57987e+10
1.0785e+10
1.04558e+10
6.59109e+09
6.84543e+09
3.59852e+09
4.60907e+09
1.39057e+09
3.18069e+09
-2.82136e+08
2.23191e+09
-1.57718e+09
1.60848e+09
-2.6016e+09
1.21063e+09
-3.42601e+09
9.32866e+08
-4.10369e+09
7.27166e+08
-4.6712e+09
5.76112e+08
-5.14008e+09
4.57939e+08
-5.51227e+09
3.79115e+08
-5.79583e+09
3.26026e+08
-6.00222e+09
2.75771e+08
-6.13382e+09
2.15821e+08
-6.21616e+09
1.72495e+08
-6.31577e+09
1.73592e+08
-6.50069e+09
2.40835e+08
-6.81607e+09
3.72593e+08
-7.28912e+09
5.46862e+08
-7.93619e+09
7.25509e+08
-8.70665e+09
7.94522e+08
-9.59567e+09
6.60192e+08
-1.11782e+10
9.26397e+08
-1.38545e+10
2.31496e+09
-1.75354e+10
4.36353e+09
-2.07306e+10
4.83592e+09
-2.24918e+10
3.94909e+09
-2.30332e+10
2.63615e+09
-2.27478e+10
8.22084e+08
-2.2401e+10
-5.13405e+08
-2.30543e+10
-2.46385e+08
-2.50643e+10
9.62183e+08
-2.71243e+10
1.22654e+09
-2.97183e+10
1.26417e+09
-3.21613e+10
3.88437e+08
-3.28143e+10
4.53417e+07
-3.44344e+10
2.22682e+09
-3.27315e+10
1.89845e+09
-3.24284e+10
4.587e+09
-3.63171e+10
1.00712e+10
-2.68243e+10
1.14075e+10
6.51725e+08
-2.92383e+10
1.9126e+10
1.24447e+11
-3.87482e+10
-1.96453e+10
1.04856e+11
3.52367e+10
-3.41492e+10
-1.51525e+11
-6.99175e+10
-4.64359e+10
-4.01129e+09
-3.06538e+10
-1.26591e+10
-2.0052e+11
-1.29971e+10
5.13296e+09
-4.60927e+10
4.81608e+09
7.89105e+09
3.54184e+10
1.51183e+10
-2.48694e+09
4.76591e+10
1.69546e+10
-5.93429e+09
4.75383e+10
1.34223e+10
-4.65052e+09
3.88209e+10
8.78901e+09
-2.81441e+09
2.79535e+10
4.98631e+09
-1.61242e+09
1.91827e+10
2.27346e+09
-8.72064e+08
1.30749e+10
3.46277e+08
-4.44901e+08
9.01325e+09
-1.04886e+09
-2.49671e+08
6.4228e+09
-2.1e+09
-1.80284e+08
4.74433e+09
-2.87567e+09
-1.52192e+08
3.61993e+09
-3.47006e+09
-1.48189e+08
2.84131e+09
-3.91936e+09
-1.30779e+08
2.29928e+09
-4.30606e+09
-1.16875e+08
1.89021e+09
-4.64032e+09
-9.18348e+07
1.58541e+09
-4.97727e+09
-6.83002e+07
1.34353e+09
-5.30291e+09
-3.76727e+07
1.17646e+09
-5.59707e+09
-1.59765e+07
1.03231e+09
-5.81421e+09
9.57027e+06
8.85704e+08
-5.98073e+09
5.36446e+07
7.2644e+08
-6.18815e+09
1.20511e+08
6.14727e+08
-6.52573e+09
1.8543e+08
6.09686e+08
-7.22254e+09
2.09507e+08
9.30977e+08
-8.49777e+09
2.2258e+08
1.52996e+09
-1.03024e+10
2.83066e+08
2.03136e+09
-1.24803e+10
2.69161e+08
2.51453e+09
-1.42851e+10
3.2971e+08
1.99668e+09
-1.40849e+10
-3.69394e+07
1.30074e+08
-1.68171e+10
-2.6968e+09
7.16397e+09
-1.91709e+10
-3.50203e+09
8.48026e+09
-2.07929e+10
-1.48916e+09
6.02328e+09
-2.20957e+10
4.84765e+08
3.88462e+09
-2.17365e+10
8.48394e+08
1.68164e+09
-2.04204e+10
9.53879e+08
-2.20504e+08
-1.89843e+10
8.98635e+08
-1.80143e+09
-1.73713e+10
5.88308e+08
-2.83175e+09
-1.61986e+10
2.80332e+08
-1.73201e+09
-1.69958e+10
3.41362e+08
1.31248e+09
-2.00782e+10
6.42528e+08
3.38465e+09
-2.17716e+10
-3.28471e+08
4.73769e+09
-2.23563e+10
-1.04257e+09
2.33038e+09
-2.37068e+10
-6.21697e+08
-4.7365e+08
-2.01852e+10
-1.38147e+09
-7.11802e+08
-1.42498e+10
-2.74464e+09
2.959e+07
-1.18035e+10
-9.90034e+08
1.42949e+09
-1.14978e+10
9.90055e+08
2.86218e+09
-1.00617e+10
1.20567e+09
4.399e+09
4.46523e+08
8.23199e+08
-6.51308e+09
4.57521e+10
-5.85682e+10
-9.44049e+10
-8.78128e+09
-1.07392e+11
-3.29149e+10
-8.69776e+10
-4.97638e+10
-1.79761e+11
-4.88985e+10
-3.76021e+10
8.6536e+09
4.83502e+10
2.68896e+10
4.99966e+10
2.44527e+10
3.78665e+10
1.76011e+10
2.6434e+10
1.15829e+10
1.87921e+10
6.9963e+09
1.32332e+10
3.78339e+09
9.01411e+09
1.49466e+09
6.30325e+09
-2.14376e+08
4.51018e+09
-1.53903e+09
3.27682e+09
-2.59204e+09
2.43256e+09
-3.43596e+09
1.8662e+09
-4.13525e+09
1.47269e+09
-4.72506e+09
1.19187e+09
-5.24163e+09
9.83124e+08
-5.69111e+09
8.25331e+08
-6.07954e+09
7.09139e+08
-6.39393e+09
6.20949e+08
-6.6205e+09
5.33027e+08
-6.74848e+09
4.37263e+08
-6.80225e+09
3.77288e+08
-6.85165e+09
4.0542e+08
-7.05143e+09
6.01705e+08
-7.55833e+09
1.00862e+09
-8.41841e+09
1.55926e+09
-9.70205e+09
2.10538e+09
-1.14101e+10
2.59091e+09
-1.3458e+10
2.38694e+09
-1.84308e+10
2.93445e+09
-2.69182e+10
7.10856e+09
-3.26005e+10
8.58344e+09
-3.26227e+10
5.57396e+09
-2.94494e+10
1.9438e+09
-2.5146e+10
-5.6773e+08
-2.12903e+10
-2.19142e+09
-1.82359e+10
-3.20833e+09
-1.59647e+10
-2.54479e+09
-1.54964e+10
5.98027e+08
-1.67637e+10
2.9707e+09
-1.95079e+10
3.43491e+09
-2.24367e+10
1.88456e+09
-2.31089e+10
-3.53014e+08
-2.32082e+10
4.88598e+08
-2.67811e+10
2.10838e+09
-2.745e+10
3.91714e+09
-2.15923e+10
5.31528e+09
-1.40767e+10
5.3478e+09
6.97285e+08
-1.98027e+10
5.22622e+09
8.15367e+10
-4.30911e+10
-7.07538e+09
1.35863e+11
-2.06571e+10
-1.43508e+10
-1.59022e+11
-5.00324e+10
-1.53891e+10
4.10022e+10
-3.22756e+10
-9.98915e+09
-2.07804e+11
-2.60828e+10
1.34456e+10
-6.51543e+10
-1.21055e+10
7.539e+09
1.44564e+10
3.64578e+09
-1.03048e+09
3.34019e+10
1.24715e+10
-4.21879e+09
4.31417e+10
1.27146e+10
-3.86523e+09
4.23675e+10
7.58902e+09
-2.75854e+09
3.55934e+10
3.24218e+09
-1.54065e+09
2.48227e+10
5.45305e+08
-6.70319e+08
1.6229e+10
-1.31929e+09
-2.68313e+08
1.09847e+10
-2.60187e+09
-1.36967e+08
7.71676e+09
-3.47446e+09
-1.01451e+08
5.66853e+09
-4.09432e+09
-9.77926e+07
4.31767e+09
-4.51675e+09
-8.65834e+07
3.38493e+09
-4.83242e+09
-7.45156e+07
2.71922e+09
-5.07428e+09
-5.41202e+07
2.23996e+09
-5.29638e+09
-3.8125e+07
1.87959e+09
-5.5322e+09
-2.05493e+07
1.62245e+09
-5.79963e+09
-1.64315e+07
1.44899e+09
-6.0604e+09
-7.28236e+06
1.26848e+09
-6.29118e+09
2.89385e+07
1.05913e+09
-6.55571e+09
1.08336e+08
8.69463e+08
-7.1561e+09
1.97495e+08
1.01157e+09
-8.36646e+09
2.77313e+08
1.4865e+09
-1.05944e+10
2.2065e+08
2.78332e+09
-1.38889e+10
2.29322e+08
4.32285e+09
-1.83435e+10
6.94491e+08
5.38699e+09
-2.44894e+10
1.26823e+09
6.81137e+09
-3.43468e+10
2.60715e+09
8.59387e+09
-5.15212e+10
4.63853e+09
1.2182e+10
-4.86782e+10
-6.78453e+09
1.11249e+10
-2.89266e+10
-1.06743e+10
-4.49257e+07
-1.94295e+10
-2.67541e+09
-2.71487e+08
-1.51638e+10
2.73312e+08
-2.93612e+08
-1.35969e+10
2.46904e+08
9.01787e+07
-1.46391e+10
3.16681e+08
4.81828e+08
-1.79817e+10
4.28883e+08
8.49606e+08
-2.22895e+10
1.98019e+08
7.52572e+08
-2.39512e+10
-5.48125e+08
-1.20486e+08
-2.23765e+10
-4.18595e+08
-7.12107e+07
-2.05022e+10
4.85246e+08
1.05572e+09
-1.59805e+10
-5.46708e+08
7.62661e+08
-1.15236e+10
-1.37003e+09
-8.99463e+08
-1.08618e+10
-2.77343e+08
-1.11342e+09
-1.15401e+10
7.16522e+07
-4.03259e+08
-1.15052e+10
-6.42957e+08
3.80193e+08
-1.08034e+10
-4.93203e+08
1.09117e+09
-9.56206e+09
2.14249e+08
1.58879e+09
-7.12726e+09
4.01221e+08
1.88808e+09
5.79997e+07
1.36207e+08
9.33789e+09
7.41226e+09
-3.7642e+10
-5.34065e+10
-5.22948e+10
-1.06591e+11
-1.22949e+11
-3.13159e+10
-1.29462e+11
-1.82474e+11
-7.55672e+10
-7.74098e+10
-2.10784e+10
1.80626e+09
3.38989e+09
2.47046e+10
1.039e+10
2.66986e+10
9.72608e+09
2.31791e+10
6.4062e+09
1.92587e+10
3.27672e+09
1.47252e+10
1.05821e+09
1.04719e+10
-6.04543e+08
7.61422e+09
-1.89949e+09
5.60928e+09
-2.9135e+09
4.15816e+09
-3.70758e+09
3.13533e+09
-4.33289e+09
2.42756e+09
-4.83776e+09
1.93713e+09
-5.25699e+09
1.58971e+09
-5.62355e+09
1.33968e+09
-5.96282e+09
1.15433e+09
-6.30109e+09
1.01963e+09
-6.63234e+09
9.26648e+08
-6.92274e+09
8.35497e+08
-7.13107e+09
7.40596e+08
-7.30476e+09
7.23518e+08
-7.55465e+09
8.85854e+08
-8.20793e+09
1.39981e+09
-9.74177e+09
2.60948e+09
-1.2633e+10
4.86715e+09
-1.67811e+10
7.1803e+09
-1.92609e+10
7.38742e+09
-1.76448e+10
5.34978e+09
-2.44095e+10
3.0959e+09
-2.98686e+10
2.42598e+09
-2.32933e+10
-1.45147e+08
-1.6298e+10
-8.44482e+08
-1.38627e+10
-1.20161e+08
-1.44883e+10
3.14678e+08
-1.71343e+10
6.63897e+08
-2.16448e+10
1.17314e+09
-2.47659e+10
-2.58076e+08
-2.32117e+10
-1.45099e+09
-1.97704e+10
6.19899e+07
-1.84374e+10
1.53536e+09
-1.80425e+10
-7.2594e+07
-1.68419e+10
-2.10723e+09
-1.5602e+10
-9.40297e+08
-1.59427e+10
1.58662e+09
-1.5257e+10
2.68446e+09
-1.19837e+10
2.48613e+09
-8.06062e+09
2.00501e+09
1.00612e+08
-2.72404e+10
-1.57971e+09
6.53186e+10
-2.41466e+10
5.24645e+09
1.28244e+11
-4.29794e+10
-2.76184e+10
-1.12076e+11
-1.93255e+10
1.06645e+08
1.74772e+10
-3.70977e+10
-8.85556e+09
-1.80693e+11
-3.1554e+10
7.9763e+09
-7.80993e+10
-1.7213e+10
1.01244e+10
-9.48458e+09
-5.7417e+09
4.7945e+09
1.75311e+10
4.44191e+09
2.28224e+09
3.09455e+10
1.09616e+10
1.9437e+09
3.39772e+10
6.85545e+09
1.62482e+09
3.8091e+10
3.32115e+08
1.02578e+09
3.03479e+10
-2.67998e+09
7.70564e+08
1.84589e+10
-4.48138e+09
5.00429e+08
1.22606e+10
-5.72799e+09
2.76503e+08
8.68029e+09
-6.56109e+09
1.4262e+08
6.44866e+09
-7.13284e+09
2.18146e+07
4.99726e+09
-7.3869e+09
-5.13755e+07
3.89319e+09
-7.51958e+09
-9.63693e+07
3.07982e+09
-7.57768e+09
-8.30811e+07
2.54794e+09
-7.70345e+09
-6.20046e+07
2.16314e+09
-7.88504e+09
-3.52541e+07
1.94222e+09
-8.15198e+09
-5.75801e+07
1.75479e+09
-8.46042e+09
-2.92847e+07
1.54633e+09
-9.01945e+09
7.92584e+07
1.46263e+09
-1.02404e+10
2.59625e+08
1.81179e+09
-1.26401e+10
2.55181e+08
3.17083e+09
-1.5758e+10
2.21148e+08
4.39959e+09
-1.73476e+10
-1.4582e+08
4.49315e+09
-1.65049e+10
-6.13849e+08
3.9148e+09
-1.56562e+10
2.0819e+08
4.01036e+09
-1.68549e+10
1.97458e+09
5.78927e+09
-1.87281e+10
2.4705e+09
7.91243e+09
-1.75371e+10
1.63023e+09
9.57709e+09
-1.30414e+10
-3.38174e+08
7.51933e+09
-1.27968e+10
-2.21244e+09
2.35988e+09
-1.27318e+10
-9.3824e+08
1.00948e+09
-1.27399e+10
-1.78856e+08
2.13817e+08
-1.16486e+10
9.18064e+07
-9.98162e+08
-1.02935e+10
1.34847e+08
-1.12319e+09
-1.0181e+10
1.26072e+08
3.99283e+08
-1.16258e+10
4.15309e+08
1.57677e+09
-1.32925e+10
-3.11657e+08
1.73933e+09
-1.27627e+10
-1.25306e+09
6.86838e+08
-1.11129e+10
-5.84769e+08
1.01115e+08
-1.04332e+10
1.96157e+08
-4.70321e+07
-1.06328e+10
-2.53904e+08
-5.48314e+08
-1.07031e+10
-3.79393e+08
-9.09e+08
-1.03336e+10
-1.54237e+08
-9.06732e+08
-9.78124e+09
1.07869e+08
-5.11617e+08
-8.9262e+09
1.32763e+08
-2.46646e+06
-7.75099e+09
1.88372e+08
3.39318e+08
-6.40111e+09
1.93488e+08
5.48502e+08
4.22805e+07
-1.53462e+07
-4.20666e+09
-1.90968e+10
-2.56437e+10
-2.58822e+10
-4.95022e+10
-1.0988e+11
-4.33145e+10
-3.69875e+10
-6.70654e+10
-1.66991e+11
-5.18765e+10
-8.4065e+10
-2.34688e+10
-1.60391e+10
-5.66075e+09
1.19925e+10
2.47695e+09
2.10188e+10
4.33974e+09
2.33488e+10
2.39226e+09
2.28781e+10
-1.54886e+08
1.83182e+10
-1.9436e+09
1.30267e+10
-3.32998e+09
9.48125e+09
-4.42327e+09
6.97554e+09
-5.25441e+09
5.16187e+09
-5.87937e+09
3.86232e+09
-6.37908e+09
2.95995e+09
-6.78795e+09
2.34429e+09
-7.14568e+09
1.93419e+09
-7.46301e+09
1.66449e+09
-7.77898e+09
1.46106e+09
-8.1436e+09
1.31594e+09
-8.57765e+09
1.27435e+09
-8.9839e+09
1.26486e+09
-9.25485e+09
1.23698e+09
-9.65979e+09
1.38911e+09
-1.05787e+10
2.06718e+09
-1.29543e+10
3.58832e+09
-1.67203e+10
5.60702e+09
-1.92834e+10
7.48763e+09
-1.82623e+10
8.06951e+09
-1.40147e+10
5.66083e+09
-1.05078e+10
3.61284e+09
-1.04304e+10
2.89538e+09
-1.21708e+10
2.2713e+09
-1.3691e+10
7.2679e+08
-1.43961e+10
-1.59979e+08
-1.29792e+10
-1.45515e+09
-1.07193e+10
-1.94727e+09
-9.76602e+09
-3.09348e+08
-9.57977e+09
1.31816e+09
-1.19494e+10
1.788e+09
-1.58867e+10
1.33672e+09
-1.63623e+10
9.24478e+07
-1.42699e+10
-3.42342e+08
-1.43039e+10
-3.92396e+08
-1.60835e+10
-9.14983e+08
-1.62734e+10
-1.14383e+09
-1.41563e+10
-5.91551e+08
-1.13949e+10
5.42465e+07
-8.91002e+09
3.3185e+08
-7.08735e+09
5.07859e+08
-1.13141e+07
-2.39239e+10
1.09941e+10
4.90034e+10
-1.98763e+10
1.13872e+10
1.13243e+11
-3.80496e+10
-3.13654e+10
-6.21111e+10
-7.52512e+09
-3.55308e+09
-9.14284e+09
-3.36899e+10
-1.56887e+10
-1.38318e+11
-2.96592e+10
4.47557e+09
-8.59987e+10
-1.91058e+10
1.20359e+10
-3.14051e+10
-1.30793e+10
9.55516e+09
2.66268e+09
-5.76543e+09
7.94824e+09
1.62672e+10
-3.00219e+09
6.51822e+09
2.51476e+10
-5.38338e+09
4.96022e+09
3.59146e+10
-7.68626e+09
2.87509e+09
3.00612e+10
-8.26448e+09
1.47986e+09
1.7714e+10
-8.87301e+09
9.78958e+08
1.19382e+10
-9.64183e+09
7.42144e+08
8.77565e+09
-1.04557e+10
6.1939e+08
6.75796e+09
-1.10558e+10
4.88413e+08
5.38366e+09
-1.1405e+10
2.97415e+08
4.1989e+09
-1.1582e+10
1.6029e+08
3.39019e+09
-1.17901e+10
8.09011e+07
2.8702e+09
-1.2052e+10
7.65577e+07
2.56496e+09
-1.23025e+10
4.1516e+07
2.24245e+09
-1.25323e+10
-5.04401e+07
2.0259e+09
-1.3335e+10
2.29649e+07
2.21021e+09
-1.52272e+10
2.46186e+08
2.99528e+09
-1.77356e+10
2.40434e+08
4.07681e+09
-1.78631e+10
-6.02258e+08
4.09375e+09
-1.47127e+10
-1.37188e+09
2.87477e+09
-1.16376e+10
-8.66376e+08
2.3541e+09
-1.08716e+10
2.15115e+08
2.8929e+09
-1.20483e+10
1.15409e+09
4.09098e+09
-1.39888e+10
1.86005e+09
6.04301e+09
-1.4957e+10
1.50273e+09
7.66937e+09
-1.32503e+10
1.77162e+08
8.13318e+09
-1.00112e+10
-8.1408e+08
5.46556e+09
-8.89574e+09
-1.03447e+09
2.54343e+09
-8.55218e+09
-5.53403e+08
1.37818e+09
-9.13599e+09
-2.63431e+08
1.10188e+09
-1.09732e+10
-1.09983e+08
8.65918e+08
-1.19486e+10
-6.05451e+08
2.6585e+08
-1.13676e+10
-4.81811e+08
1.79865e+08
-1.07049e+10
2.01473e+08
7.06239e+08
-9.76148e+09
-2.53012e+07
8.90349e+08
-8.80274e+09
-4.38127e+08
2.72151e+08
-7.98044e+09
-2.67974e+08
-3.36673e+08
-7.32716e+09
2.3861e+07
-6.71209e+08
-7.086e+09
5.82292e+07
-8.81545e+08
-7.18685e+09
5.60061e+07
-9.80014e+08
-7.42248e+09
1.0588e+08
-9.34889e+08
-7.48323e+09
1.32111e+08
-7.22171e+08
-7.20769e+09
1.01851e+08
-4.33865e+08
-6.7489e+09
9.18282e+07
-1.27288e+08
-6.41897e+09
1.25592e+08
2.50651e+08
4.41946e+07
1.04847e+08
-2.87251e+10
-1.17458e+09
-3.17891e+10
-1.07054e+10
-6.28748e+10
-1.09495e+11
-2.94814e+10
-7.3316e+10
-6.53592e+10
-1.46099e+11
-5.61448e+10
-8.81161e+10
-3.29354e+10
-2.66657e+10
-1.67492e+10
5.72997e+09
-8.45068e+09
2.08995e+10
-6.23674e+09
2.78156e+10
-6.25705e+09
2.80053e+10
-6.70966e+09
2.17713e+10
-7.42256e+09
1.52899e+10
-8.06104e+09
1.11272e+10
-8.599e+09
8.286e+09
-8.96459e+09
6.24514e+09
-9.19496e+09
4.72995e+09
-9.38969e+09
3.63163e+09
-9.59811e+09
2.87027e+09
-9.84709e+09
2.4055e+09
-1.01191e+10
2.1212e+09
-1.04237e+10
1.86654e+09
-1.08639e+10
1.68658e+09
-1.14023e+10
1.76744e+09
-1.18115e+10
1.85997e+09
-1.21511e+10
1.82239e+09
-1.33469e+10
2.07129e+09
-1.58723e+10
3.30196e+09
-1.77702e+10
4.67128e+09
-1.80408e+10
6.10307e+09
-1.67853e+10
7.41192e+09
-1.25801e+10
5.80783e+09
-8.0916e+09
2.76757e+09
-6.22726e+09
2.04841e+09
-5.78098e+09
1.7805e+09
-5.77623e+09
1.38433e+09
-6.25429e+09
7.36198e+08
-7.41615e+09
7.35817e+08
-9.65913e+09
5.86062e+08
-1.25021e+10
1.58538e+08
-1.33542e+10
-2.89475e+06
-1.2245e+10
4.48562e+08
-1.15212e+10
1.12519e+09
-1.12705e+10
7.49233e+08
-1.10888e+10
-2.83359e+08
-1.0398e+10
-9.96391e+08
-9.55301e+09
-1.2404e+09
-9.20316e+09
-1.3251e+09
-9.1082e+09
-1.26494e+09
-8.67931e+09
-9.83639e+08
-7.90194e+09
-6.3369e+08
-7.12571e+09
-2.75997e+08
-6.52805e+09
1.15198e+08
9.42915e+07
-2.5089e+10
1.25721e+10
3.83996e+10
-2.05142e+10
1.49136e+10
9.39289e+10
-4.16364e+10
-3.02948e+10
-1.032e+10
-1.775e+10
-7.88421e+09
-2.47158e+10
-3.93425e+10
-1.38249e+10
-1.02389e+11
-4.17013e+10
2.73109e+09
-8.57778e+10
-3.57508e+10
1.26551e+10
-4.9434e+10
-2.78143e+10
1.16122e+10
-1.643e+10
-2.17475e+10
7.21396e+09
3.32865e+09
-2.17287e+10
4.64406e+09
2.08843e+10
-2.00875e+10
3.28946e+09
3.15239e+10
-1.6004e+10
1.79289e+09
2.47036e+10
-1.37479e+10
6.83185e+08
1.50895e+10
-1.2685e+10
5.31968e+08
1.05128e+10
-1.22954e+10
5.36813e+08
7.9882e+09
-1.22534e+10
5.66843e+08
6.36905e+09
-1.23269e+10
5.93829e+08
5.23047e+09
-1.26359e+10
5.5064e+08
4.36547e+09
-1.30834e+10
4.88663e+08
3.77867e+09
-1.37087e+10
4.09662e+08
3.41618e+09
-1.44276e+10
3.99731e+08
3.19932e+09
-1.53255e+10
3.97915e+08
2.91514e+09
-1.63974e+10
2.9654e+08
2.8956e+09
-1.79129e+10
1.93586e+08
3.4736e+09
-1.8734e+10
-2.8541e+07
3.80266e+09
-1.68078e+10
-9.12557e+08
3.13117e+09
-1.31408e+10
-1.58327e+09
2.15431e+09
-1.05634e+10
-1.22339e+09
1.59563e+09
-9.70133e+09
-2.71011e+08
1.79777e+09
-1.06323e+10
7.37578e+08
3.08374e+09
-1.31315e+10
1.77708e+09
4.85056e+09
-1.64305e+10
1.79563e+09
7.8539e+09
-1.78871e+10
1.12979e+09
8.59802e+09
-1.66126e+10
-1.61188e+08
7.83539e+09
-1.4208e+10
-1.36956e+09
4.99358e+09
-1.20746e+10
-1.60725e+09
2.32107e+09
-9.96534e+09
-1.17174e+09
5.17578e+08
-8.22455e+09
-5.72239e+08
-1.38927e+08
-7.4704e+09
-1.58318e+08
1.65288e+08
-7.55149e+09
-2.5617e+08
5.23765e+08
-7.6277e+09
-2.89794e+08
5.37436e+08
-7.04985e+09
-9.12539e+07
2.8009e+08
-6.2282e+09
7.65887e+07
5.88324e+07
-5.79702e+09
7.99789e+07
-1.99712e+08
-5.74251e+09
9.34605e+07
-4.74182e+08
-5.83447e+09
1.15006e+08
-7.19496e+08
-5.96478e+09
8.69027e+07
-9.18197e+08
-6.08987e+09
5.62739e+07
-1.0486e+09
-6.14793e+09
4.07449e+07
-1.08201e+09
-6.05877e+09
2.05169e+07
-9.87296e+08
-5.73618e+09
-1.58043e+07
-8.5539e+08
-4.86914e+09
-3.90439e+07
-9.95958e+08
-2.71996e+09
-5.14073e+07
-1.8662e+09
2.17628e+07
-7.43797e+08
-3.81425e+10
2.89662e+10
-2.79014e+10
-5.82234e+09
-8.57619e+10
-8.14473e+10
-6.87601e+10
-9.75509e+10
-9.9948e+10
-1.28024e+11
-8.43717e+10
-1.00323e+11
-5.6269e+10
-4.16124e+10
-3.76908e+10
-8.76771e+08
-2.86177e+10
1.93582e+10
-2.4013e+10
2.82433e+10
-1.94033e+10
2.71407e+10
-1.58546e+10
2.04108e+10
-1.43321e+10
1.47195e+10
-1.35445e+10
1.10443e+10
-1.30954e+10
8.52878e+09
-1.27233e+10
6.6505e+09
-1.23583e+10
5.22005e+09
-1.20551e+10
4.17254e+09
-1.1891e+10
3.44745e+09
-1.18782e+10
3.02698e+09
-1.19838e+10
2.78761e+09
-1.21265e+10
2.50151e+09
-1.24323e+10
2.29554e+09
-1.27873e+10
2.28952e+09
-1.30451e+10
2.07398e+09
-1.38832e+10
1.77978e+09
-1.56961e+10
2.38146e+09
-1.67562e+10
3.23201e+09
-1.58972e+10
3.52661e+09
-1.52924e+10
6.19275e+09
-1.23935e+10
6.36012e+09
-7.73617e+09
3.05156e+09
-5.35175e+09
1.65665e+09
-5.5302e+09
2.27061e+09
-7.15095e+09
2.21667e+09
-8.72794e+09
1.47823e+09
-9.2468e+09
7.7335e+07
-8.59349e+09
-5.81572e+08
-8.07405e+09
-1.83894e+08
-8.78499e+09
5.67333e+08
-9.8541e+09
8.0857e+08
-9.74637e+09
3.27933e+08
-8.34839e+09
-1.37049e+08
-7.07725e+09
-4.16393e+08
-6.56279e+09
-7.10823e+08
-6.51095e+09
-9.78881e+08
-6.5819e+09
-1.17395e+09
-6.66733e+09
-1.31253e+09
-6.68821e+09
-1.34585e+09
-6.53867e+09
-1.23837e+09
-6.13795e+09
-1.13358e+09
-5.20378e+09
-1.27552e+09
-3.10913e+09
-2.06292e+09
-6.41517e+08
-3.09278e+10
3.04454e+09
4.34735e+10
-2.18466e+10
1.41991e+10
7.02532e+10
-3.69132e+10
-1.26529e+10
1.73735e+10
-2.82644e+10
-6.85771e+09
-2.62563e+10
-4.25054e+10
-1.11605e+10
-7.65444e+10
-4.67462e+10
-3.95754e+09
-7.70877e+10
-4.64794e+10
7.20313e+09
-5.63562e+10
-4.21124e+10
7.89214e+09
-2.80063e+10
-4.02781e+10
2.60297e+09
-3.25236e+08
-3.8988e+10
9.09178e+08
1.97428e+10
-3.12497e+10
7.54972e+08
2.42328e+10
-2.29813e+10
6.36768e+07
1.73294e+10
-1.83678e+10
-3.06699e+08
1.13888e+10
-1.59123e+10
-4.00538e+07
8.4626e+09
-1.46331e+10
1.76942e+08
6.78926e+09
-1.3907e+10
3.14188e+08
5.66685e+09
-1.34881e+10
4.03289e+08
4.82041e+09
-1.32643e+10
4.63073e+08
4.20983e+09
-1.32541e+10
4.79083e+08
3.75648e+09
-1.34532e+10
4.7882e+08
3.58583e+09
-1.39126e+10
5.32666e+08
3.43256e+09
-1.47796e+10
6.39755e+08
3.40575e+09
-1.6188e+10
5.80036e+08
3.86387e+09
-1.69054e+10
1.40858e+08
4.17254e+09
-1.55944e+10
-5.54464e+08
3.12453e+09
-1.30458e+10
-1.28342e+09
1.92302e+09
-1.08143e+10
-1.44246e+09
1.43152e+09
-9.85349e+09
-7.2181e+08
1.40316e+09
-1.02349e+10
4.11086e+07
2.06397e+09
-1.50163e+10
1.7577e+09
6.07876e+09
-2.21698e+10
3.85444e+09
8.55103e+09
-2.43228e+10
3.39596e+09
7.50693e+09
-1.90267e+10
5.67586e+08
3.86523e+09
-1.23057e+10
-3.01162e+08
2.32672e+09
-7.79726e+09
-3.52166e+08
1.17419e+09
-5.70718e+09
-4.87999e+08
7.96353e+08
-5.38349e+09
-4.99422e+08
6.58306e+08
-5.7571e+09
-4.69249e+08
6.13827e+08
-5.92096e+09
-2.53629e+08
5.00347e+08
-5.74516e+09
-4.91971e+07
3.75968e+08
-5.52882e+09
8.27521e+07
2.71695e+08
-5.45923e+09
1.1417e+08
1.46764e+08
-5.47667e+09
1.20051e+08
-1.0636e+07
-5.56212e+09
9.90884e+07
-2.13632e+08
-5.71547e+09
7.77673e+07
-4.38814e+08
-5.91711e+09
5.30252e+07
-6.57144e+08
-6.164e+09
2.58571e+07
-8.40635e+08
-6.44196e+09
7.73832e+06
-9.79596e+08
-6.69921e+09
-7.61997e+06
-1.06186e+09
-6.87602e+09
-5.45897e+07
-1.01416e+09
-6.93198e+09
-1.06861e+08
-9.14595e+08
-6.63799e+09
-9.4696e+07
-1.3776e+09
-5.82158e+09
-6.26209e+07
-2.73547e+09
2.60193e+07
-7.3885e+08
-3.09707e+10
4.59027e+10
-1.74881e+10
-5.32913e+09
-5.16539e+10
-5.97798e+10
-6.61296e+10
-8.95146e+10
-9.36679e+10
-1.11148e+11
-9.03683e+10
-1.07032e+11
-7.10755e+10
-5.31911e+10
-5.60332e+10
-7.56935e+09
-4.77644e+10
1.42524e+10
-3.91465e+10
2.12489e+10
-2.95042e+10
1.89619e+10
-2.30758e+10
1.46042e+10
-1.97379e+10
1.14575e+10
-1.77241e+10
9.23493e+09
-1.6339e+10
7.52667e+09
-1.5269e+10
6.13545e+09
-1.43886e+10
5.06524e+09
-1.36663e+10
4.26155e+09
-1.31124e+10
3.71009e+09
-1.27569e+10
3.42635e+09
-1.24448e+10
3.21361e+09
-1.20715e+10
2.89273e+09
-1.18761e+10
2.75279e+09
-1.20451e+10
2.65463e+09
-1.25925e+10
2.10393e+09
-1.39036e+10
1.85502e+09
-1.52291e+10
2.3e+09
-1.50803e+10
2.34272e+09
-1.43208e+10
2.78918e+09
-1.37319e+10
7.47583e+09
-1.00177e+10
6.68064e+09
-6.60904e+09
3.22027e+09
-6.30613e+09
2.1654e+09
-5.84828e+09
1.74679e+09
-4.78937e+09
8.92854e+08
-4.49553e+09
7.07529e+08
-5.48593e+09
5.19793e+08
-7.0598e+09
4.40596e+08
-7.9188e+09
3.67999e+08
-7.5841e+09
1.88572e+08
-6.71465e+09
6.12818e+07
-6.15657e+09
-7.59855e+07
-5.92259e+09
-2.30613e+08
-5.84684e+09
-4.00729e+08
-5.91332e+09
-6.04885e+08
-6.09778e+09
-8.16227e+08
-6.36382e+09
-1.00083e+09
-6.68458e+09
-1.14359e+09
-6.99453e+09
-1.22677e+09
-7.23162e+09
-1.23934e+09
-7.33029e+09
-1.29665e+09
-7.0297e+09
-1.80341e+09
-5.92409e+09
-3.32606e+09
-1.40674e+09
-2.57259e+10
-9.4157e+08
5.19486e+10
-2.28524e+10
1.2066e+10
5.47509e+10
-2.61958e+10
-2.15967e+09
2.28122e+10
-2.87844e+10
-6.11482e+09
-1.73358e+10
-3.96628e+10
-1.15087e+10
-5.38851e+10
-4.60516e+10
-9.47114e+09
-6.0919e+10
-5.36522e+10
4.67793e+09
-5.30019e+10
-5.71427e+10
6.8744e+09
-3.07708e+10
-5.98171e+10
9.40162e+08
2.33886e+09
-5.22207e+10
-4.1787e+08
1.3825e+10
-3.7807e+10
-1.16671e+09
1.21702e+10
-2.7297e+10
-1.29293e+09
8.98549e+09
-2.14612e+10
-9.26774e+08
7.0301e+09
-1.81571e+10
-4.04827e+08
5.88668e+09
-1.62409e+10
-6.96925e+07
5.18636e+09
-1.50464e+10
8.79954e+07
4.6848e+09
-1.42538e+10
1.94676e+08
4.26973e+09
-1.36287e+10
3.09613e+08
3.84891e+09
-1.32492e+10
4.0868e+08
3.54427e+09
-1.31438e+10
4.91637e+08
3.52739e+09
-1.34135e+10
6.00757e+08
3.51467e+09
-1.40538e+10
7.10121e+08
3.69422e+09
-1.47547e+10
5.47353e+08
4.34399e+09
-1.41494e+10
5.7621e+07
3.80542e+09
-1.26822e+10
-5.6768e+08
2.35941e+09
-1.13859e+10
-9.38693e+08
1.61438e+09
-1.07721e+10
-8.77427e+08
1.66523e+09
-1.12834e+10
-4.92605e+08
2.32856e+09
-1.33438e+10
-3.52806e+07
4.17572e+09
-1.40778e+10
1.68637e+09
5.39564e+09
-1.15345e+10
2.68262e+09
3.64826e+09
-8.40017e+09
2.16082e+09
2.53892e+09
-7.25036e+09
1.27724e+09
1.78714e+09
-6.19587e+09
5.71879e+08
1.00356e+09
-5.39504e+09
-129180
4.9726e+08
-5.11058e+09
-2.94165e+08
8.22349e+08
-4.98844e+09
-4.44469e+08
9.37453e+08
-4.98846e+09
-3.43216e+08
9.01009e+08
-5.10317e+09
-7.76349e+07
6.57245e+08
-5.2528e+09
5.10804e+07
4.69257e+08
-5.40466e+09
9.01994e+07
3.48863e+08
-5.558e+09
8.80041e+07
2.32585e+08
-5.71784e+09
6.99323e+07
8.92296e+07
-5.90507e+09
4.60012e+07
-8.7004e+07
-6.13731e+09
2.3385e+07
-2.82326e+08
-6.42129e+09
4.97998e+06
-4.82132e+08
-6.74376e+09
-9.48818e+06
-6.79975e+08
-7.07696e+09
-2.33136e+07
-8.64945e+08
-7.39497e+09
-3.64167e+07
-1.00568e+09
-7.58858e+09
-9.86289e+07
-1.03874e+09
-7.6916e+09
-1.77743e+08
-9.37051e+08
-8.02101e+09
-1.82059e+08
-1.12978e+09
-8.63845e+09
-5.30075e+08
-1.85128e+09
-5.51924e+08
-4.34762e+08
-1.95609e+10
5.15847e+10
-1.46879e+10
1.35896e+09
-3.43875e+10
-4.22867e+10
-5.60113e+10
-7.38306e+10
-8.19862e+10
-9.64267e+10
-8.26865e+10
-1.15512e+11
-7.88461e+10
-5.19959e+10
-6.79232e+10
-1.11048e+10
-5.59066e+10
3.90526e+09
-4.24103e+10
8.13955e+09
-3.23709e+10
8.48615e+09
-2.63914e+10
7.91746e+09
-2.26446e+10
7.19998e+09
-2.0028e+10
6.49863e+09
-1.80658e+10
5.73716e+09
-1.66128e+10
5.0575e+09
-1.54898e+10
4.51253e+09
-1.45308e+10
4.03476e+09