/*--------------------------------*- C++ -*----------------------------------*\
| =========                 |                                                 |
| \\      /  F ield         | OpenFOAM: The Open Source CFD Toolbox           |
|  \\    /   O peration     | Version:  4.1                                   |
|   \\  /    A nd           | Web:      www.OpenFOAM.org                      |
|    \\/     M anipulation  |                                                 |
\*---------------------------------------------------------------------------*/
FoamFile
{
    version     2.0;
    format      ascii;
    class       volScalarField;
    location    "47";
    object      omega;
}
// * * * * * * * * * * * * * * * * * * * * * * * * * * * * * * * * * * * * * //

dimensions      [0 0 -1 0 0 0 0];

internalField   nonuniform List<scalar> 
4432
(
0.0110897
0.011451
0.011809
0.0121543
0.0125061
0.0128374
0.0131795
0.0134984
0.0138286
0.0141371
0.0144544
0.0147528
0.0150574
0.015343
0.015637
0.0159051
0.0161918
0.016436
0.0167155
0.0169321
0.0171989
0.0174075
0.0176693
0.0178828
0.0181225
0.0183275
0.0185415
0.0187185
0.0189173
0.0190677
0.0192545
0.0194052
0.0195883
0.0197544
0.0199463
0.0201131
0.0203249
0.0204876
0.0207284
0.0209709
0.0214267
0.0217029
0.0222667
0.0225974
0.0232427
0.0236821
0.0242135
0.02456
0.0250943
0.0254047
0.0262609
0.0262425
0.0265592
0.0261968
0.0110794
0.0114614
0.0117952
0.0121675
0.0124937
0.0128516
0.0131729
0.0135109
0.01383
0.0141463
0.0144625
0.0147594
0.0150697
0.0153478
0.0156525
0.0159083
0.0162115
0.0164394
0.0167436
0.0169378
0.0172353
0.0174103
0.0177091
0.0178791
0.0181635
0.0183333
0.0185938
0.0187527
0.0189883
0.0191364
0.0193621
0.0195113
0.0197295
0.0198794
0.0200937
0.0202424
0.0204662
0.0206093
0.020897
0.0210584
0.0213694
0.0215893
0.0220587
0.0224233
0.023098
0.0234692
0.0240195
0.0244765
0.0246953
0.0255812
0.0253668
0.0253335
0.0254184
0.0253549
21.7956
3.37988
1.2284
0.663296
0.43647
0.320515
0.251691
0.206613
0.174975
0.151629
0.133723
0.119577
0.108133
0.0986812
0.0907689
0.0840206
0.078246
0.0731884
0.0687992
0.0648627
0.0614219
0.0582735
0.0555106
0.0529402
0.050674
0.0485313
0.0466293
0.0447995
0.0431528
0.0415732
0.0401136
0.038751
0.0374608
0.0363138
0.0351971
0.0342353
0.033284
0.0324754
0.0316772
0.031001
0.0303052
0.0297301
0.0291069
0.028654
0.0281001
0.0277626
0.0272692
0.0269598
0.0265665
0.0262909
0.0259064
0.0255708
0.0253651
0.0250707
21.7955
3.37989
1.22838
0.663277
0.43646
0.320508
0.25169
0.206612
0.17498
0.151631
0.133731
0.119585
0.108142
0.0986952
0.0907779
0.0840406
0.078253
0.0732148
0.0688054
0.0648965
0.061431
0.0583112
0.055524
0.0529753
0.0506879
0.0485584
0.0466406
0.0448198
0.0431771
0.0416008
0.0401789
0.0388129
0.0375809
0.0364111
0.0353549
0.0343599
0.0334514
0.0326121
0.0318223
0.0311293
0.0304164
0.0298598
0.0292109
0.0287812
0.0282049
0.0278637
0.0273643
0.027108
0.0266551
0.0264696
0.0260253
0.025865
0.0254074
0.0255026
21.7953
3.38008
1.22865
0.66352
0.436652
0.320683
0.251866
0.206789
0.175165
0.151816
0.133926
0.119774
0.108342
0.0988864
0.0909779
0.0842345
0.0784495
0.0734098
0.0689931
0.0650866
0.0616026
0.0584953
0.0556892
0.0531694
0.0508658
0.0487801
0.0468465
0.0450784
0.0434173
0.0418885
0.0404394
0.0391111
0.0378466
0.0367003
0.0356039
0.0346242
0.0336797
0.0328521
0.0320506
0.0313506
0.0306668
0.0300716
0.0294969
0.0289941
0.0284963
0.0281035
0.0276396
0.0273149
0.0268242
0.0265692
0.0260085
0.0258289
0.0254343
0.0250135
21.7952
3.3801
1.22862
0.663497
0.436638
0.320677
0.251861
0.206791
0.175165
0.151825
0.133929
0.119787
0.108349
0.0989004
0.0909893
0.0842471
0.078466
0.0734202
0.0690124
0.0650967
0.0616278
0.0585109
0.0557235
0.0531859
0.0509066
0.0487876
0.0468894
0.0450797
0.0434666
0.0419031
0.0405064
0.0391589
0.0379332
0.0367876
0.0357083
0.0347479
0.0337999
0.0330027
0.0321752
0.0315069
0.0307967
0.0302377
0.0296316
0.0291583
0.0286193
0.0282347
0.0277028
0.0273663
0.0268391
0.0265575
0.0258831
0.0256342
0.0253291
0.0249596
21.7954
3.38002
1.22861
0.663477
0.436609
0.320638
0.251827
0.206746
0.175129
0.151774
0.133889
0.119734
0.108302
0.0988487
0.0909345
0.0841987
0.0784016
0.0733725
0.0689367
0.0650447
0.0615481
0.0584624
0.0556522
0.053157
0.050849
0.048787
0.0468408
0.0451033
0.0434263
0.0419313
0.0404717
0.0391582
0.0378946
0.0367384
0.0356612
0.0346588
0.0337422
0.0328903
0.0321002
0.031383
0.0307136
0.0301195
0.0295595
0.0290418
0.0285392
0.0280807
0.0275247
0.0270597
0.0263967
0.0258835
0.0252014
0.0246072
0.0245464
0.0243276
21.7954
3.38003
1.22858
0.663455
0.436595
0.320633
0.25182
0.20675
0.175124
0.151784
0.133888
0.119748
0.108306
0.0988626
0.0909458
0.0842092
0.0784207
0.0733778
0.0689644
0.0650537
0.0615831
0.0584822
0.0556869
0.0531832
0.050876
0.0488101
0.046861
0.0451197
0.0434453
0.0419495
0.0404983
0.0391983
0.0379394
0.0368146
0.0357224
0.0347687
0.0338128
0.03302
0.0321803
0.0315365
0.0308029
0.030283
0.0296264
0.0291783
0.0285549
0.0281108
0.027489
0.027008
0.0263614
0.0258665
0.0251635
0.0247432
0.0247896
0.0245369
21.7955
3.38001
1.22859
0.663456
0.436582
0.320614
0.251795
0.206721
0.175092
0.15175
0.133849
0.119709
0.108261
0.0988186
0.0908937
0.0841577
0.0783628
0.0733171
0.0689057
0.0649834
0.0615223
0.0583988
0.0556251
0.0530941
0.0508237
0.0487275
0.0468285
0.0450503
0.0434334
0.041894
0.0404972
0.0391489
0.0379328
0.0367559
0.0357008
0.0346898
0.0337739
0.0329171
0.0321107
0.0313991
0.0306773
0.0300977
0.029438
0.0289393
0.0282942
0.0277717
0.0271128
0.0265862
0.0258925
0.0254605
0.0249065
0.024416
0.0241758
0.0242791
21.7954
3.38002
1.22857
0.663435
0.436571
0.320605
0.251795
0.206714
0.175101
0.151743
0.133868
0.1197
0.108288
0.0988088
0.0909249
0.0841503
0.0783934
0.073316
0.0689342
0.0649938
0.0615547
0.0584208
0.0556618
0.053119
0.0508587
0.0487497
0.0468571
0.0450707
0.0434563
0.0419177
0.0405225
0.0391825
0.0379702
0.0367979
0.0357465
0.0347279
0.0338183
0.0329437
0.0321501
0.0314069
0.0306959
0.0300659
0.0293925
0.0288307
0.0281426
0.0276344
0.0269274
0.0264597
0.025756
0.0253513
0.0247551
0.0243443
0.0241163
0.0243318
21.7955
3.38002
1.2286
0.663446
0.436562
0.320593
0.251763
0.206698
0.175052
0.151727
0.133803
0.119682
0.10821
0.0987844
0.0908374
0.0841124
0.078302
0.0732652
0.0688476
0.0649324
0.0614686
0.0583408
0.0555628
0.0530285
0.0507631
0.0486792
0.0467877
0.0450301
0.043414
0.0418974
0.0405011
0.0391663
0.0379543
0.0367673
0.035721
0.034677
0.0337916
0.0328853
0.0321418
0.031355
0.0307248
0.0300305
0.0294528
0.0287982
0.028208
0.0275553
0.0269901
0.0263833
0.0258613
0.0253949
0.0249456
0.0246321
0.0246641
0.0243295
21.7954
3.38003
1.22858
0.663428
0.436554
0.320581
0.251768
0.206685
0.175069
0.15171
0.133828
0.119666
0.108238
0.0987735
0.0908636
0.0841129
0.0783217
0.0732797
0.0688608
0.0649587
0.0614845
0.0583797
0.0555956
0.053071
0.050807
0.048709
0.0468293
0.0450484
0.0434484
0.0419176
0.0405266
0.0391996
0.0379774
0.0368169
0.0357536
0.0347319
0.0338262
0.0329238
0.0321543
0.0313485
0.0306857
0.0299462
0.0293443
0.0286519
0.0280624
0.0274069
0.0268379
0.0262374
0.0257061
0.0251763
0.0248614
0.0243948
0.0242818
0.0239918
21.7956
3.38002
1.2286
0.663434
0.436544
0.320564
0.25174
0.206658
0.175027
0.151675
0.133775
0.119623
0.108175
0.0987208
0.0907907
0.0840492
0.0782378
0.0732079
0.0687658
0.0648877
0.0613741
0.0583092
0.0554619
0.0530058
0.0506668
0.0486659
0.0467069
0.0450264
0.0433543
0.0419039
0.0404572
0.0391786
0.0379183
0.0367761
0.0356917
0.0346742
0.0337612
0.0328727
0.0321077
0.0313327
0.03066
0.0299808
0.0293332
0.0287054
0.0280746
0.0274491
0.0269011
0.0263045
0.0258573
0.0252877
0.0249274
0.0243678
0.0240506
0.0235731
21.7955
3.38004
1.22858
0.66342
0.436533
0.32056
0.251732
0.206663
0.175019
0.151689
0.133766
0.119643
0.108166
0.0987456
0.0907845
0.0840746
0.0782405
0.0732299
0.06878
0.0649035
0.061404
0.0583245
0.0555136
0.0530237
0.0507339
0.0486767
0.0467771
0.0450296
0.0434232
0.0419047
0.0405223
0.0391901
0.0379762
0.0368117
0.0357428
0.0347297
0.0338081
0.0329179
0.0321383
0.0313342
0.0306758
0.0299068
0.0293269
0.0285796
0.0280217
0.027307
0.0267746
0.0261245
0.0256356
0.0250855
0.024725
0.0241226
0.0238997
0.0233323
21.7956
3.38005
1.22862
0.663435
0.436529
0.32054
0.25171
0.206624
0.174991
0.151633
0.133733
0.11957
0.108129
0.0986543
0.0907428
0.0839643
0.0781898
0.0731021
0.0687209
0.0647685
0.0613359
0.058185
0.0554271
0.0528828
0.0506423
0.0485629
0.0466986
0.0449624
0.0433614
0.0418775
0.0404733
0.0391734
0.0379404
0.0367801
0.0357155
0.0346762
0.0337725
0.0328631
0.0320863
0.0313244
0.030587
0.0299506
0.0292212
0.0286512
0.0279344
0.0273931
0.0267358
0.0262393
0.0256432
0.0252044
0.0246479
0.0242282
0.023721
0.0234357
21.7955
3.38006
1.2286
0.663423
0.436519
0.320536
0.251703
0.206628
0.174983
0.151646
0.133722
0.119594
0.108112
0.0986896
0.09072
0.0840111
0.0781651
0.073158
0.0686988
0.0648256
0.0613243
0.0582478
0.055439
0.0529586
0.0506688
0.0486355
0.0467293
0.0450188
0.0433952
0.0419184
0.040507
0.0392135
0.0379683
0.0368368
0.0357346
0.0347518
0.0337875
0.0329275
0.0320937
0.0313157
0.0305865
0.0298493
0.0292018
0.0284693
0.027856
0.0271525
0.0265684
0.0259653
0.0253968
0.0248839
0.0243508
0.0239205
0.023442
0.0230526
21.7957
3.38005
1.22862
0.663429
0.436511
0.320514
0.251679
0.206589
0.174952
0.15159
0.133686
0.119518
0.108073
0.0985919
0.0906759
0.083893
0.0781095
0.0730253
0.0686291
0.0646949
0.0612437
0.058122
0.0553349
0.0528251
0.0505568
0.0485086
0.046638
0.0449263
0.0433274
0.0418694
0.040457
0.0391878
0.0379427
0.0368019
0.0357278
0.0346901
0.0337782
0.0328503
0.0320735
0.0312745
0.0305487
0.0298475
0.029134
0.0284769
0.0278239
0.0271619
0.0266423
0.0260615
0.0256136
0.0252177
0.0248449
0.0246353
0.024539
0.0246927
21.7956
3.38007
1.22861
0.663418
0.436502
0.320512
0.251672
0.206594
0.174944
0.151603
0.133677
0.119538
0.108061
0.0986203
0.0906621
0.0839291
0.0780974
0.0730682
0.0686205
0.0647363
0.0612399
0.0581645
0.0553522
0.052884
0.0505914
0.0485891
0.046679
0.0450056
0.043376
0.0419286
0.0405141
0.0392334
0.0379911
0.0368569
0.035756
0.0347584
0.0337917
0.0329088
0.0320757
0.0312833
0.0305514
0.0298072
0.0291439
0.0283971
0.0277765
0.0270773
0.0265121
0.0258982
0.0253816
0.0248369
0.0244723
0.0240885
0.0238389
0.0236373
21.7957
3.38009
1.22866
0.663439
0.4365
0.320493
0.251649
0.206556
0.174911
0.15155
0.133635
0.11947
0.108009
0.0985346
0.0905998
0.0838233
0.0780229
0.0729404
0.0685362
0.0645962
0.0611487
0.0580179
0.055243
0.0527289
0.0504921
0.0484662
0.0466241
0.0449181
0.0433677
0.0418859
0.0405464
0.0392373
0.0380419
0.0368831
0.0358072
0.0347793
0.0338199
0.0329069
0.0320512
0.0312597
0.0304609
0.0297856
0.0290122
0.0284522
0.0277758
0.0273633
0.0268868
0.0266202
0.0267744
0.0270245
0.0273638
0.0280268
0.0285919
0.0301807
21.7957
3.3801
1.22865
0.663432
0.436495
0.320488
0.251647
0.206555
0.174913
0.15155
0.133641
0.119471
0.10802
0.098535
0.0906162
0.0838233
0.0780462
0.0729404
0.0685633
0.0645927
0.0611747
0.0580154
0.0552935
0.0527527
0.0505856
0.0485117
0.0467326
0.044979
0.0434613
0.0419433
0.0406107
0.0392757
0.0380836
0.0369083
0.0358318
0.0347978
0.0338407
0.0329277
0.0320835
0.0312721
0.0305099
0.0297541
0.0290638
0.0283542
0.0277558
0.0271045
0.0265836
0.0260663
0.0257463
0.0256087
0.0256969
0.0262718
0.0264554
0.0267982
21.7958
3.3801
1.22867
0.663437
0.436487
0.320469
0.251624
0.206521
0.174877
0.151506
0.133589
0.119419
0.107946
0.0984789
0.090512
0.0837645
0.0779037
0.0728765
0.0683844
0.0645225
0.0609881
0.0579416
0.0551166
0.0526878
0.0504832
0.0485302
0.0467312
0.0450724
0.043557
0.0420916
0.0407805
0.0394528
0.0382908
0.0370911
0.0360369
0.0349826
0.034035
0.0331212
0.032304
0.031519
0.0308645
0.0302654
0.0297756
0.0295699
0.0296455
0.0298838
0.0305988
0.0316065
0.0338134
0.0351398
0.0363787
0.0368001
0.0372285
0.0365686
21.7957
3.38012
1.22867
0.66343
0.436482
0.320464
0.251623
0.206517
0.174882
0.151502
0.1336
0.119413
0.107963
0.0984729
0.0905345
0.083759
0.0779323
0.0728724
0.0684168
0.0645157
0.0610092
0.0579422
0.055143
0.052725
0.0505417
0.0485806
0.0468181
0.0451164
0.0436328
0.0421025
0.0408231
0.0394319
0.0383032
0.0370424
0.0360351
0.034908
0.0340042
0.033016
0.0322014
0.031368
0.0306221
0.0299377
0.0293075
0.0288118
0.0283809
0.0281134
0.0281863
0.0284623
0.0289593
0.0299088
0.0311271
0.0331475
0.03383
0.0344462
21.7959
3.38014
1.22872
0.663456
0.436481
0.320454
0.251595
0.206496
0.174835
0.151475
0.133533
0.119383
0.107873
0.0984378
0.0904142
0.0837202
0.0777683
0.0728296
0.0681979
0.0644737
0.0607602
0.0579009
0.0549299
0.0527385
0.0506331
0.0489725
0.0474075
0.045987
0.0445566
0.0431837
0.0419111
0.0405742
0.0394734
0.0382436
0.0373238
0.0363461
0.0356153
0.0351388
0.0344095
0.0344552
0.0346912
0.0352764
0.0370292
0.0385252
0.0404949
0.0420925
0.0438954
0.0445422
0.0444881
0.0432627
0.0423472
0.0402568
0.0394779
0.0364331
21.7958
3.38016
1.22872
0.663453
0.436477
0.320451
0.251592
0.206497
0.174835
0.151478
0.133538
0.119386
0.107883
0.0984398
0.0904294
0.0837189
0.0777926
0.0728217
0.0682318
0.0644512
0.0607931
0.0578655
0.054975
0.052726
0.0506675
0.0489725
0.0473555
0.0458307
0.0443181
0.0429025
0.0415179
0.040206
0.0389746
0.0377499
0.0367165
0.0356094
0.034805
0.0339538
0.0333783
0.0329183
0.0324636
0.0325151
0.0327895
0.0331542
0.0343587
0.0353838
0.0366799
0.0382616
0.0398277
0.0405082
0.040451
0.0396753
0.0395077
0.0374058
21.7959
3.38015
1.22874
0.663463
0.436475
0.320437
0.251577
0.206466
0.174812
0.151433
0.133505
0.119327
0.107835
0.0983707
0.0903557
0.0836433
0.0776727
0.0727458
0.0680343
0.064399
0.0604937
0.0579334
0.0546952
0.0532782
0.0520426
0.0526366
0.0557729
0.0555461
0.0549729
0.0538518
0.0526473
0.0510517
0.0508029
0.0491793
0.0495037
0.0502812
0.0517398
0.0533898
0.0552499
0.0568735
0.0587184
0.0593647
0.0591366
0.0581447
0.0566601
0.0544237
0.0518409
0.048642
0.0458632
0.0428014
0.0405378
0.0378218
0.0368
0.0333551
21.7959
3.38018
1.22874
0.663461
0.436471
0.320436
0.251571
0.206472
0.174803
0.151448
0.133492
0.119352
0.107818
0.0984049
0.0903336
0.0836883
0.077646
0.0728046
0.0680007
0.0644683
0.0604374
0.058013
0.054579
0.0534923
0.0515651
0.0522888
0.0517667
0.0511248
0.0499548
0.0482046
0.0469187
0.0452547
0.0440871
0.0434789
0.0421429
0.0424444
0.0431293
0.0444401
0.0456987
0.0470002
0.0483711
0.0497409
0.0508617
0.0520091
0.0519058
0.0514082
0.0502965
0.0482432
0.0468059
0.0441999
0.0426451
0.0399789
0.0387904
0.0352402
21.796
3.3802
1.2288
0.663493
0.436487
0.320417
0.251581
0.206416
0.17483
0.151344
0.133554
0.119181
0.107934
0.098141
0.0905295
0.0832942
0.0779486
0.0722282
0.0684315
0.0636524
0.0609832
0.0570502
0.0554803
0.0552876
0.0665604
0.135422
0.142039
0.140557
0.136802
0.132391
0.128644
0.125393
0.121859
0.117891
0.113532
0.108429
0.102759
0.096446
0.0898099
0.0827174
0.0758072
0.0685482
0.0624053
0.0566413
0.052088
0.0473882
0.0447069
0.0417415
0.0399621
0.0376535
0.0363161
0.0340929
0.0331763
0.0291747
21.796
3.38023
1.22881
0.663494
0.436485
0.320417
0.251577
0.20642
0.174827
0.151355
0.133547
0.119203
0.107918
0.0981781
0.0904992
0.0833526
0.0778969
0.0723171
0.0683435
0.0637874
0.0608428
0.057175
0.0554582
0.0549061
0.0612646
0.106938
0.107655
0.111482
0.11438
0.114525
0.113366
0.111425
0.109181
0.106838
0.104312
0.101424
0.0980357
0.0940649
0.089548
0.0846407
0.0792846
0.0736788
0.0678
0.0622123
0.0573264
0.0528591
0.0492092
0.0451956
0.0427831
0.0394482
0.0376991
0.0347211
0.0328499
0.0290653
21.7961
3.38022
1.22883
0.663511
0.436492
0.32041
0.251573
0.206399
0.174817
0.151323
0.133531
0.119159
0.107897
0.0981186
0.0904786
0.0832625
0.0778896
0.0721689
0.0683396
0.0636754
0.0603577
0.0569934
0.0565216
0.0685917
0.246713
0.329937
0.108768
0.105832
0.0921571
0.0796505
0.0752529
0.0737525
0.0693915
0.0664017
0.0637727
0.0614071
0.0595395
0.0578932
0.0564394
0.0552522
0.0538625
0.0526303
0.051049
0.0489293
0.0471277
0.0445411
0.0427772
0.0394764
0.0369852
0.0335851
0.0312547
0.0279646
0.0264406
0.0240315
21.796
3.38025
1.22884
0.663512
0.436491
0.320406
0.251575
0.206395
0.174824
0.151318
0.133545
0.119153
0.107917
0.098111
0.0905011
0.0832589
0.0779047
0.0721857
0.0683431
0.0636135
0.0608807
0.0564266
0.0567131
0.0678112
0.222608
0.320961
0.172875
0.121729
0.0959787
0.0863842
0.0795834
0.0757388
0.0724316
0.0687926
0.0651396
0.0619983
0.0593757
0.0574751
0.0557477
0.0543087
0.0527086
0.0512141
0.0493734
0.0476133
0.0454456
0.0428998
0.0406981
0.0378365
0.0359997
0.0326778
0.0305394
0.0273933
0.0260133
0.0240338
21.7962
3.38028
1.22891
0.663555
0.436509
0.320411
0.25157
0.206389
0.174809
0.151305
0.133522
0.119135
0.107886
0.0980885
0.0904658
0.0832282
0.0778737
0.0721302
0.0683416
0.0634984
0.0609787
0.0561746
0.0587293
0.100302
0.184878
0.183924
0.146862
0.134637
0.127283
0.121836
0.117803
0.112723
0.106429
0.0996779
0.0927904
0.0860012
0.0792851
0.07277
0.0665152
0.0603842
0.0549276
0.049461
0.0444549
0.0397287
0.0356091
0.0319455
0.0288848
0.0270355
0.025444
0.0244684
0.0235826
0.0227335
0.0223073
21.7961
3.3803
1.22892
0.66356
0.436511
0.320409
0.251573
0.206385
0.17482
0.151298
0.133544
0.11912
0.107921
0.0980681
0.0905004
0.0832258
0.0778675
0.0722024
0.0682544
0.0636006
0.0609728
0.0563153
0.0566552
0.120173
0.16469
0.189751
0.160036
0.135755
0.123385
0.116582
0.111519
0.105899
0.100173
0.0943866
0.0886273
0.0828811
0.0771479
0.0714043
0.0658392
0.0602594
0.0550378
0.050011
0.0452999
0.0409102
0.0368629
0.0335229
0.0303885
0.0282083
0.0261755
0.025138
0.0238365
0.0233722
0.0226645
21.7962
3.3803
1.22895
0.663586
0.436518
0.320427
0.251555
0.206412
0.174775
0.151345
0.133466
0.119195
0.107806
0.0981752
0.0903551
0.0833543
0.0777246
0.0723134
0.0681591
0.0637535
0.0606799
0.0570685
0.0553328
0.0577532
0.103577
0.119389
0.114104
0.105658
0.0965719
0.0876566
0.0796625
0.0717587
0.0640677
0.0574656
0.0518012
0.0470644
0.0430355
0.0396903
0.0368779
0.034509
0.0325655
0.0309331
0.0295137
0.0283648
0.0272994
0.0264147
0.0256268
0.0249211
0.0244135
0.0238016
0.02343
0.0227981
0.0226241
0.0219256
21.7962
3.38033
1.22896
0.663591
0.436517
0.320428
0.251553
0.206415
0.174777
0.151347
0.133475
0.119193
0.107826
0.0981629
0.0903903
0.0833315
0.0777699
0.0722923
0.0681967
0.0637508
0.0607028
0.0570617
0.0552338
0.0570531
0.0855759
0.094394
0.0895339
0.0873987
0.0823396
0.0770987
0.0714435
0.0654979
0.0597015
0.054556
0.0499602
0.0459387
0.042501
0.039447
0.0369441
0.0347038
0.0328905
0.0313159
0.0299658
0.028908
0.0278276
0.027034
0.0261876
0.0254615
0.024861
0.0241365
0.0237393
0.0230074
0.0227111
0.0221558
21.7963
3.38035
1.22903
0.663642
0.436542
0.320444
0.251554
0.206429
0.174761
0.151373
0.133436
0.119243
0.107754
0.0982569
0.090268
0.0834955
0.0775822
0.0725582
0.0679326
0.0641651
0.0603481
0.0576787
0.0544067
0.0531837
0.0510307
0.0516603
0.0499145
0.0480592
0.0460122
0.0440952
0.0423004
0.0406407
0.0391178
0.037704
0.0363731
0.0351588
0.033969
0.0329208
0.0318594
0.030903
0.0299456
0.0290687
0.0281688
0.0273742
0.0265376
0.0258498
0.0251611
0.0245819
0.0241108
0.0236243
0.0232436
0.0227507
0.0224264
0.0218046
21.7963
3.38038
1.22905
0.66365
0.436546
0.320444
0.251557
0.206429
0.174767
0.151377
0.13344
0.119256
0.107752
0.098282
0.0902576
0.0835326
0.0775648
0.0726027
0.0679191
0.0642031
0.0603462
0.0576894
0.0544606
0.0530514
0.0512214
0.050527
0.0494777
0.0476197
0.0456683
0.0439192
0.0421304
0.0406268
0.0390868
0.0377742
0.0364672
0.0352755
0.0341714
0.0330878
0.0321285
0.0311314
0.0302514
0.0293654
0.0285331
0.0277967
0.0269603
0.026324
0.0255661
0.0249834
0.0243729
0.0238568
0.0233849
0.0228069
0.0224864
0.0220458
21.7964
3.38038
1.22908
0.663679
0.436564
0.32046
0.251564
0.206443
0.174769
0.151388
0.133446
0.119259
0.107772
0.098271
0.0903052
0.0835037
0.0776562
0.0725556
0.0680746
0.064138
0.0605995
0.0575334
0.0547321
0.0524071
0.0503531
0.0486302
0.0469031
0.0452702
0.0436646
0.0421415
0.0406922
0.039293
0.0380105
0.036755
0.0355904
0.0344694
0.0333946
0.0323978
0.0314223
0.0305138
0.0296132
0.0287834
0.027948
0.0271842
0.0264047
0.0257527
0.0251084
0.0245316
0.0241023
0.0236174
0.0232625
0.0227197
0.0224744
0.0220282
21.7963
3.38041
1.2291
0.663686
0.436565
0.320461
0.251563
0.206448
0.174768
0.1514
0.133442
0.119279
0.107761
0.0983027
0.0902867
0.0835473
0.07763
0.0726102
0.0680461
0.0641969
0.0605758
0.0575876
0.0547154
0.0524503
0.0503489
0.04864
0.0468821
0.0452924
0.0436434
0.0421993
0.0406761
0.0393907
0.038016
0.0368528
0.0356454
0.0345543
0.0335151
0.0325
0.0315895
0.0306587
0.0298378
0.0290119
0.0282439
0.0275314
0.0267688
0.0261291
0.0254386
0.0248627
0.0242712
0.0238673
0.0233135
0.0228448
0.0226082
0.0221426
21.7965
3.38043
1.22917
0.663741
0.436596
0.320483
0.251575
0.206464
0.174774
0.151416
0.133447
0.119296
0.107772
0.0983171
0.0903132
0.0835578
0.0776845
0.0726171
0.0681395
0.064207
0.0607081
0.0576025
0.0548316
0.0523807
0.0501975
0.0482522
0.0464563
0.044782
0.0432009
0.0416825
0.0402941
0.0389194
0.0376957
0.0364663
0.0353596
0.0342633
0.0332535
0.0322748
0.0313562
0.0304491
0.0295867
0.0287502
0.0279488
0.0271557
0.0264664
0.0258052
0.0251661
0.0246216
0.0241155
0.0236707
0.0232295
0.0228813
0.0227382
0.0226195
21.7964
3.38046
1.22919
0.663749
0.436602
0.32048
0.251585
0.206456
0.174794
0.151403
0.133477
0.119279
0.107808
0.0983016
0.0903501
0.0835483
0.0777176
0.0726196
0.0681663
0.0642249
0.0607274
0.0576316
0.0548435
0.0524178
0.0502087
0.0482961
0.0464767
0.0448374
0.0432145
0.0417626
0.0403019
0.0390244
0.0377112
0.0365686
0.0354087
0.0343483
0.0333494
0.0323593
0.0314834
0.0305729
0.0297763
0.0289592
0.0282043
0.0274884
0.0267396
0.0260927
0.0254414
0.0248249
0.0243494
0.0238603
0.0234624
0.0230629
0.0229377
0.0227383
21.7965
3.38046
1.22922
0.663781
0.436625
0.320502
0.251596
0.206479
0.174799
0.151432
0.133476
0.119315
0.107806
0.098344
0.0903529
0.0835985
0.0777312
0.0726782
0.0681967
0.0642909
0.060777
0.0576908
0.0548958
0.052416
0.0501728
0.0481482
0.0463106
0.0445753
0.0430074
0.0414766
0.0401196
0.0387547
0.037558
0.0363435
0.0352604
0.0341746
0.033198
0.032229
0.0313363
0.030419
0.0296178
0.0287792
0.0280632
0.0272952
0.0266502
0.0259367
0.025363
0.0246694
0.0242773
0.0236472
0.0234839
0.0231646
0.0232002
0.0233801
21.7965
3.38049
1.22923
0.663789
0.436627
0.320504
0.251597
0.206484
0.174801
0.151439
0.133481
0.119324
0.107815
0.0983538
0.0903656
0.0836078
0.0777495
0.0726885
0.0682208
0.0643039
0.060804
0.0577071
0.0549208
0.0524362
0.0502007
0.0481838
0.0463423
0.0446298
0.0430397
0.0415443
0.0401482
0.0388299
0.0375875
0.0364154
0.0353072
0.0342384
0.0332736
0.0322801
0.0314349
0.030516
0.0297367
0.0289182
0.0281674
0.0274569
0.0267152
0.0260874
0.0253995
0.0248628
0.0243833
0.0238925
0.0236836
0.0233018
0.0231033
0.0231534
21.7966
3.38051
1.2293
0.663839
0.436659
0.320525
0.251617
0.206498
0.17482
0.15145
0.133503
0.119334
0.10784
0.098367
0.0903955
0.0836284
0.077784
0.0727183
0.0682625
0.0643374
0.0608558
0.0577271
0.0549712
0.0524121
0.050208
0.0480737
0.0462684
0.044457
0.0429137
0.0413559
0.0399907
0.0386437
0.0374187
0.036243
0.0351406
0.0340864
0.0331132
0.0321444
0.0312803
0.0303895
0.029609
0.0288097
0.0280643
0.0273676
0.0266308
0.0260436
0.025336
0.0249233
0.0243512
0.024092
0.0238355
0.0233836
0.0234919
0.0244739
21.7965
3.38054
1.22932
0.663849
0.436664
0.320527
0.251621
0.2065
0.174827
0.151457
0.13351
0.119348
0.107845
0.0983883
0.0903974
0.0836559
0.0777866
0.0727504
0.0682687
0.0643745
0.0608623
0.0577712
0.0549716
0.0524668
0.0502055
0.048136
0.0462791
0.0445167
0.0429454
0.0414048
0.0400469
0.0386795
0.0374959
0.0362716
0.0352238
0.0341255
0.0331877
0.0321922
0.0313527
0.0304414
0.0296777
0.0288615
0.0281253
0.0274359
0.0266889
0.0261607
0.0254665
0.0250434
0.0245676
0.0241517
0.0237705
0.023109
0.0231311
0.0237979
21.7966
3.38052
1.22934
0.663876
0.436687
0.320545
0.251642
0.206514
0.17485
0.151467
0.133536
0.119355
0.107878
0.0983932
0.0904393
0.0836582
0.077839
0.0727488
0.0683306
0.0643669
0.0609271
0.0577531
0.0550234
0.0524237
0.050216
0.0480496
0.046228
0.0443904
0.0428475
0.0412606
0.0399195
0.0385344
0.0373488
0.0361392
0.0350662
0.0340119
0.0330233
0.0320973
0.0311922
0.030352
0.0295397
0.0287583
0.0280316
0.0273064
0.026673
0.0259851
0.0255222
0.0249812
0.024687
0.0243535
0.0236422
0.0238239
0.024278
0.0276175
21.7966
3.38056
1.22936
0.663884
0.43669
0.320548
0.251643
0.206519
0.174853
0.151475
0.133544
0.119365
0.107888
0.0984043
0.0904521
0.0836723
0.0778535
0.0727696
0.0683443
0.0643982
0.0609357
0.0577959
0.0550246
0.0524757
0.0502177
0.0481107
0.0462367
0.0444586
0.0428643
0.0413325
0.0399434
0.0386085
0.0373776
0.0362068
0.0351032
0.0340647
0.0330726
0.0321349
0.031245
0.0303901
0.0295883
0.028817
0.0280826
0.0273984
0.0267354
0.0261829
0.0255705
0.0251506
0.0246095
0.0242565
0.0233769
0.0235194
0.0237255
0.0261745
21.7967
3.38057
1.22941
0.663927
0.436719
0.320569
0.251662
0.206535
0.174869
0.151491
0.133558
0.119382
0.107903
0.0984229
0.0904682
0.0836935
0.0778695
0.0727927
0.0683574
0.0644203
0.0609412
0.05781
0.0550132
0.0524723
0.0501769
0.0480756
0.0461602
0.0443865
0.0427621
0.0412305
0.0398311
0.0384847
0.0372589
0.0360723
0.0349756
0.033936
0.0329302
0.0320263
0.0310871
0.0303029
0.0294395
0.0287364
0.0279824
0.0273332
0.0267073
0.0261499
0.0256804
0.0251688
0.0247817
0.0240332
0.0239796
0.0244198
0.0269997
0.0359746
21.7966
3.3806
1.22943
0.663936
0.436724
0.320573
0.251665
0.206541
0.174876
0.151498
0.133569
0.11939
0.107917
0.0984353
0.0904811
0.0837133
0.0778795
0.072823
0.0683644
0.0644604
0.060946
0.0578567
0.0550169
0.0525266
0.0501799
0.0481393
0.0461658
0.0444568
0.0427696
0.0413046
0.0398422
0.0385588
0.0372804
0.0361378
0.0350148
0.0339827
0.0329951
0.0320485
0.0311837
0.0303162
0.0295448
0.0287756
0.0280546
0.0274008
0.0267436
0.0261861
0.0255988
0.0250305
0.0245912
0.0237474
0.023611
0.0239509
0.0255128
0.0323717
21.7967
3.38058
1.22945
0.663958
0.436743
0.320591
0.251682
0.206557
0.174893
0.151511
0.133588
0.119399
0.10794
0.0984383
0.0905111
0.0837094
0.0779154
0.0728117
0.0684019
0.0644418
0.0609775
0.0578295
0.0550346
0.0524821
0.0501745
0.0480695
0.0461292
0.0443609
0.0427072
0.04119
0.0397624
0.0384342
0.0371872
0.0360107
0.0349093
0.0338624
0.0328724
0.0319497
0.0310367
0.0302469
0.029401
0.0287304
0.0279566
0.0273901
0.0266816
0.026198
0.0256417
0.0249436
0.0244114
0.0243528
0.0249348
0.0273317
0.0398478
0.0452494
21.7967
3.38061
1.22946
0.663966
0.436746
0.320594
0.251684
0.206563
0.174895
0.151523
0.133589
0.119419
0.107937
0.0984674
0.0905047
0.0837471
0.0779067
0.0728577
0.0683931
0.0644936
0.0609713
0.0578825
0.0550347
0.0525318
0.0501868
0.0481162
0.0461533
0.0444075
0.0427383
0.0412386
0.0397934
0.0384901
0.0372127
0.0360751
0.0349274
0.0339328
0.0328915
0.0320146
0.0310898
0.0302901
0.0294748
0.0287375
0.0280089
0.0273662
0.0267014
0.0261207
0.0254301
0.0250686
0.0241513
0.024046
0.0246219
0.0255565
0.0329798
0.0433456
21.7967
3.38061
1.2295
0.663999
0.436771
0.320612
0.251703
0.206576
0.174913
0.151534
0.133606
0.119427
0.107955
0.0984725
0.0905237
0.0837494
0.0779259
0.0728547
0.0684114
0.0644815
0.0609863
0.0578571
0.0550399
0.0524906
0.0501746
0.0480557
0.0461197
0.0443281
0.0426836
0.0411438
0.0397237
0.0383814
0.0371343
0.0359532
0.0348443
0.0338001
0.0328031
0.0318901
0.0309652
0.0302088
0.0292967
0.0287024
0.0278301
0.0273172
0.0265738
0.0260991
0.0253945
0.0251331
0.0253911
0.0265728
0.0284016
0.042352
0.0464893
0.0528317
21.7967
3.38064
1.22951
0.664008
0.436775
0.320616
0.251705
0.206583
0.174917
0.151545
0.133612
0.119442
0.107963
0.0984918
0.0905335
0.0837722
0.077938
0.072882
0.0684249
0.0645148
0.0609987
0.0578977
0.0550489
0.0525409
0.0501805
0.0481144
0.0461277
0.0443892
0.0426959
0.0412048
0.0397376
0.0384465
0.037145
0.0360274
0.0348513
0.033884
0.0328045
0.0319802
0.0309889
0.0302696
0.0293445
0.0287131
0.0278412
0.0272806
0.0265564
0.025976
0.0255485
0.0248792
0.0252338
0.0258269
0.0281617
0.0318397
0.0476906
0.0493666
21.7967
3.38064
1.22953
0.664026
0.436793
0.320631
0.25172
0.206595
0.174929
0.151554
0.133622
0.11945
0.107972
0.0984973
0.090541
0.083775
0.0779447
0.0728789
0.0684308
0.0645011
0.0610032
0.0578687
0.0550507
0.0524922
0.0501737
0.0480472
0.0461034
0.0443081
0.04265
0.0411136
0.0396759
0.0383429
0.0370784
0.0359041
0.034785
0.0337298
0.0327451
0.0317782
0.0309012
0.0300564
0.0291759
0.0285769
0.0276522
0.0272118
0.0263877
0.0263237
0.0266118
0.027386
0.0296845
0.0332554
0.0418234
0.0539678
0.0525777
0.0530144
21.7967
3.38067
1.22954
0.664032
0.436796
0.320634
0.251723
0.2066
0.174936
0.151562
0.133632
0.11946
0.107985
0.0985095
0.0905567
0.0837897
0.0779628
0.0728978
0.0684501
0.0645259
0.0610215
0.0579005
0.0550668
0.0525305
0.0501895
0.048092
0.0461199
0.0443589
0.0426676
0.0411688
0.0396942
0.0384009
0.0370977
0.0359662
0.0348049
0.0337997
0.0327612
0.0318655
0.0309068
0.0301512
0.0291963
0.0286098
0.0277548
0.027184
0.0266962
0.0261032
0.0265592
0.0272594
0.0294185
0.0320938
0.0387614
0.0455982
0.0543234
0.0511799
21.7966
3.38072
1.22962
0.664096
0.436849
0.320678
0.251762
0.206633
0.174966
0.151589
0.133658
0.119482
0.108006
0.0985283
0.0905733
0.0838051
0.0779748
0.0729079
0.0684573
0.0645272
0.0610243
0.0578882
0.0550638
0.0525013
0.0501801
0.0480419
0.046104
0.0442845
0.0426454
0.0410639
0.0396657
0.0382592
0.0370606
0.0357845
0.0347517
0.0335813
0.0326861
0.0316003
0.0308283
0.0298392
0.0290893
0.0284908
0.0277183
0.0279507
0.0286218
0.0305043
0.0331921
0.0376698
0.0446156
0.0472672
0.0548659
0.0511322
0.0506869
0.0503967
21.7966
3.38075
1.22963
0.664104
0.436853
0.320681
0.251766
0.206638
0.174973
0.151596
0.133668
0.119491
0.108019
0.098539
0.090589
0.0838181
0.0779928
0.0729248
0.0684764
0.0645498
0.0610422
0.0579184
0.0550782
0.0525418
0.0501896
0.048094
0.0461087
0.0443469
0.0426459
0.0411343
0.0396635
0.0383343
0.0370597
0.0358592
0.0347612
0.0336449
0.0327146
0.0316536
0.0308455
0.0299314
0.0290595
0.0285677
0.0277552
0.0279234
0.0285277
0.0301783
0.0329713
0.0368734
0.0425033
0.0467154
0.0502371
0.0471161
0.0482126
0.0493267
21.7973
3.38075
1.22974
0.664034
0.436628
0.320376
0.251431
0.206291
0.174633
0.151265
0.133348
0.11919
0.107743
0.0982796