/*--------------------------------*- C++ -*----------------------------------*\
| =========                 |                                                 |
| \\      /  F ield         | OpenFOAM: The Open Source CFD Toolbox           |
|  \\    /   O peration     | Version:  4.1                                   |
|   \\  /    A nd           | Web:      www.OpenFOAM.org                      |
|    \\/     M anipulation  |                                                 |
\*---------------------------------------------------------------------------*/
FoamFile
{
    version     2.0;
    format      ascii;
    class       volScalarField;
    location    "47";
    object      p;
}
// * * * * * * * * * * * * * * * * * * * * * * * * * * * * * * * * * * * * * //

dimensions      [0 2 -2 0 0 0 0];

internalField   nonuniform List<scalar> 
4432
(
100713
100714
100714
100715
100719
100723
100727
100731
100735
100740
100746
100753
100762
100772
100782
100791
100797
100799
100801
100808
100823
100841
100859
100879
100900
100923
100945
100963
100975
100983
100987
100986
100982
100976
100965
100939
100905
100913
100916
100893
100861
100834
100827
100824
100814
100827
100757
100729
100828
100931
100872
100704
100357
100295
100713
100714
100714
100715
100719
100723
100727
100731
100735
100740
100746
100753
100762
100772
100782
100791
100797
100799
100801
100808
100824
100843
100861
100880
100901
100925
100946
100962
100975
100985
100989
100987
100983
100972
100959
100942
100926
100908
100891
100880
100865
100850
100836
100812
100784
100830
100806
100753
100821
100900
100857
100767
100338
100249
100712
100712
100712
100713
100716
100721
100725
100729
100733
100738
100743
100751
100760
100770
100782
100796
100813
100831
100843
100850
100860
100875
100889
100903
100917
100932
100947
100964
100980
100994
101000
101000
100989
100971
100949
100920
100906
100901
100892
100877
100850
100830
100827
100829
100821
100810
100790
100771
100831
100896
100970
100947
99949
100748
100712
100712
100712
100713
100717
100721
100725
100729
100733
100737
100743
100751
100760
100770
100782
100796
100813
100831
100844
100851
100860
100874
100887
100900
100914
100929
100945
100961
100977
100990
100996
100993
100982
100970
100952
100926
100906
100893
100885
100877
100861
100842
100835
100837
100823
100812
100797
100773
100830
100896
100933
101010
99960.2
100736
100710
100710
100710
100712
100715
100720
100724
100728
100732
100736
100742
100749
100758
100768
100780
100794
100809
100824
100833
100842
100856
100872
100886
100900
100914
100931
100949
100967
100986
101004
101014
101016
101013
100996
100958
100916
100898
100900
100899
100894
100869
100843
100841
100841
100829
100805
100805
100798
100815
100806
100802
100748
100675
101198
100710
100710
100710
100712
100716
100720
100724
100728
100732
100736
100742
100749
100758
100768
100780
100794
100809
100824
100833
100842
100856
100871
100885
100898
100912
100928
100946
100964
100983
101002
101014
101011
101002
100988
100962
100928
100911
100904
100894
100884
100868
100847
100846
100850
100833
100808
100793
100795
100807
100804
100837
100750
100579
101203
100708
100708
100708
100710
100713
100717
100721
100725
100729
100733
100738
100745
100754
100764
100776
100789
100804
100817
100826
100836
100852
100868
100882
100896
100912
100932
100952
100973
100997
101021
101036
101044
101050
101021
100957
100883
100852
100871
100890
100909
100880
100844
100847
100849
100838
100818
100826
100812
100827
100844
100846
100846
100851
100882
100708
100708
100708
100710
100713
100717
100721
100725
100728
100733
100738
100745
100754
100764
100776
100790
100804
100817
100826
100836
100851
100868
100882
100895
100911
100931
100951
100972
100997
101021
101036
101043
101046
101018
100966
100910
100891
100890
100892
100888
100884
100857
100852
100845
100835
100820
100811
100818
100823
100853
100866
100889
100730
100820
100705
100705
100705
100707
100710
100714
100718
100722
100725
100729
100734
100741
100750
100760
100771
100784
100798
100812
100822
100829
100841
100858
100873
100889
100909
100934
100959
100983
101012
101038
101055
101070
101075
101057
101073
100840
100835
100854
100869
100906
100886
100862
100865
100867
100871
100864
100817
100779
100813
100882
100961
100868
100749
101192
100705
100705
100705
100707
100710
100714
100718
100721
100725
100729
100734
100741
100750
100760
100772
100784
100798
100812
100822
100829
100841
100857
100873
100889
100910
100934
100959
100983
101014
101042
101057
101066
101068
101039
100989
100905
100867
100867
100878
100893
100906
100880
100869
100857
100848
100834
100818
100816
100834
100879
100921
100972
100698
101081
100701
100702
100702
100703
100706
100710
100714
100717
100721
100724
100729
100736
100744
100754
100765
100777
100790
100803
100813
100822
100833
100847
100862
100878
100899
100926
100956
100984
101012
101038
101054
101074
101106
101313
101627
100950
100844
100844
100854
100857
100864
100894
100901
100891
100883
100883
100827
100787
100801
100866
100939
100837
100732
101118
100701
100701
100702
100703
100706
100710
100714
100717
100720
100724
100729
100736
100744
100754
100765
100778
100790
100802
100812
100823
100834
100847
100863
100879
100901
100928
100956
100982
101012
101037
101050
101055
101060
101103
101128
100945
100853
100849
100858
100868
100886
100896
100890
100881
100874
100852
100820
100805
100822
100868
100919
100832
100754
101226
100697
100697
100697
100698
100701
100705
100709
100712
100715
100719
100724
100730
100738
100748
100758
100770
100781
100793
100803
100813
100825
100838
100850
100866
100882
100907
100939
100966
100985
100999
101020
101061
101180
101687
101384
101305
100849
100834
100848
100846
100853
100900
100917
100903
100889
100885
100853
100813
100804
100843
100935
100926
100770
101071
100697
100697
100697
100699
100701
100705
100709
100712
100715
100719
100724
100730
100738
100748
100758
100770
100781
100793
100802
100813
100825
100838
100850
100867
100886
100910
100938
100960
100981
100998
101009
101028
101067
101170
101218
100964
100825
100827
100844
100849
100862
100888
100900
100897
100895
100880
100837
100803
100806
100837
100881
100843
100827
101072
100692
100693
100692
100693
100696
100700
100703
100706
100709
100713
100717
100723
100731
100740
100750
100761
100771
100782
100792
100802
100813
100826
100837
100848
100861
100877
100904
100922
100932
100934
100940
100965
101009
101139
101100
100878
100830
100835
100849
100851
100858
100877
100894
100893
100889
100900
100891
100851
100808
100803
100885
100911
100816
101112
100692
100692
100692
100694
100696
100700
100703
100706
100709
100712
100717
100723
100731
100740
100750
100761
100771
100782
100792
100802
100814
100826
100837
100849
100865
100881
100901
100916
100929
100936
100936
100951
100992
101029
101046
100918
100835
100840
100857
100861
100863
100872
100879
100886
100906
100911
100873
100820
100789
100812
100885
100884
100821
101142
100687
100687
100687
100688
100690
100694
100697
100700
100702
100705
100710
100716
100723
100731
100741
100751
100761
100771
100781
100791
100801
100811
100820
100827
100835
100841
100854
100866
100875
100882
100891
100907
100937
100959
100960
100880
100844
100858
100871
100870
100865
100859
100866
100884
100902
100923
100924
100887
100824
100790
100835
100865
100852
101175
100687
100687
100687
100688
100691
100694
100697
100699
100702
100705
100710
100715
100723
100731
100741
100751
100761
100771
100781
100791
100801
100811
100821
100828
100834
100843
100854
100863
100873
100881
100888
100904
100932
100953
100961
100919
100888
100883
100886
100886
100879
100868
100860
100874
100911
100933
100913
100854
100802
100798
100842
100839
100827
101196
100681
100681
100681
100682
100684
100687
100690
100692
100695
100698
100702
100707
100714
100722
100731
100740
100750
100759
100769
100779
100788
100795
100801
100804
100802
100800
100804
100816
100832
100846
100859
100881
100912
100936
100959
100940
100922
100918
100916
100912
100905
100885
100871
100885
100917
100952
100964
100935
100868
100814
100834
100885
100975
101183
100681
100681
100681
100682
100684
100687
100690
100692
100695
100698
100701
100707
100714
100722
100731
100740
100750
100759
100769
100779
100788
100796
100801
100802
100799
100797
100805
100819
100833
100845
100860
100880
100909
100940
100965
100957
100941
100932
100928
100926
100917
100896
100875
100880
100921
100961
100957
100914
100853
100800
100796
100820
100882
101158
100675
100675
100674
100675
100677
100680
100682
100685
100687
100689
100693
100698
100704
100711
100720
100729
100738
100748
100758
100768
100777
100782
100784
100777
100760
100748
100755
100779
100802
100820
100843
100873
100906
100940
100970
100974
100970
100970
100970
100964
100955
100940
100919
100911
100921
100964
100999
100984
100913
100849
100864
100914
100955
100839
100675
100675
100674
100675
100677
100680
100682
100684
100686
100689
100693
100697
100704
100711
100720
100729
100738
100748
100758
100768
100777
100783
100783
100774
100758
100747
100759
100782
100802
100820
100844
100874
100909
100944
100970
100975
100973
100973
100973
100971
100967
100954
100928
100908
100928
100974
100995
100967
100900
100837
100824
100855
100822
100782
100668
100668
100668
100668
100670
100672
100674
100676
100678
100680
100683
100687
100693
100700
100708
100716
100726
100736
100747
100758
100769
100775
100773
100752
100708
100681
100698
100735
100762
100784
100815
100855
100897
100936
100968
100987
101000
101014
101024
101024
101014
100997
100979
100960
100942
100960
100998
101008
100961
100898
100891
100936
100963
100892
100668
100668
100668
100668
100670
100672
100674
100676
100678
100680
100683
100687
100693
100700
100708
100716
100726
100736
100747
100759
100769
100775
100771
100749
100705
100681
100703
100738
100761
100783
100815
100855
100898
100936
100966
100986
101000
101015
101027
101028
101019
101004
100982
100957
100951
100977
101004
100995
100948
100895
100885
100919
100896
101000
100661
100661
100660
100661
100662
100664
100666
100667
100669
100670
100673
100676
100681
100687
100694
100703
100712
100723
100736
100750
100765
100776
100772
100737
100644
100597
100627
100678
100708
100735
100775
100826
100877
100926
100969
101008
101042
101071
101091
101094
101079
101053
101023
100994
100968
100964
100988
101009
100999
100960
100933
100931
100951
100859
100661
100661
100660
100661
100662
100664
100666
100667
100668
100670
100673
100676
100681
100687
100695
100703
100712
100723
100736
100751
100765
100775
100769
100728
100632
100597
100639
100684
100709
100734
100775
100825
100877
100924
100968
101007
101044
101074
101096
101098
101081
101054
101023
100993
100974
100978
100996
101003
100985
100951
100926
100917
100927
100819
100654
100654
100653
100653
100654
100656
100657
100658
100659
100660
100662
100664
100668
100674
100680
100688
100697
100708
100723
100743
100768
100796
100812
100756
100574
100437
100532
100613
100645
100677
100729
100792
100854
100914
100975
101035
101094
101140
101175
101176
101148
101104
101058
101017
100986
100972
100981
101000
101008
100993
100973
100955
100962
100866
100654
100653
100653
100653
100654
100656
100657
100658
100659
100660
100661
100664
100669
100674
100680
100688
100697
100708
100723
100743
100768
100795
100808
100745
100531
100468
100555
100610
100637
100672
100728
100791
100853
100913
100974
101034
101096
101141
101193
101193
101156
101105
101055
101012
100983
100975
100988
101004
101006
100990
100970
100949
100954
100851
100646
100646
100645
100645
100646
100647
100648
100648
100649
100649
100650
100652
100655
100659
100664
100671
100679
100689
100705
100727
100764
100832
100903
100906
100423
100050
100382
100555
100589
100615
100676
100752
100825
100898
100977
101063
101148
101203
101266
101269
101215
101142
101080
101032
100995
100976
100978
100995
101013
101017
101009
100990
100983
100889
100646
100646
100645
100645
100646
100647
100648
100648
100648
100649
100650
100652
100655
100659
100664
100671
100679
100690
100705
100727
100763
100828
100897
100880
100074
100267
100481
100562
100579
100614
100679
100755
100827
100899
100982
101073
101164
101187
101267
101276
101212
101136
101079
101034
101000
100984
100988
101004
101017
101017
101008
100989
100982
100884
100638
100638
100637
100637
100637
100638
100639
100638
100638
100638
100638
100639
100640
100643
100647
100651
100657
100665
100677
100695
100723
100767
100887
101157
100094
100373
100538
100556
100561
100619
100700
100779
100862
100961
101076
101202
101246
101309
101345
101272
101177
101112
101064
101025
100998
100991
101003
101022
101036
101039
101022
101008
100896
100638
100638
100637
100637
100637
100638
100639
100638
100638
100638
100638
100639
100640
100643
100647
100651
100657
100665
100677
100695
100722
100766
100884
101099
100061
100415
100522
100538
100561
100627
100708
100785
100867
100954
101091
101217
101197
101173
101319
101255
101168
101112
101071
101034
101007
101000
101009
101025
101035
101036
101019
101003
100899
100631
100631
100630
100629
100629
100629
100629
100628
100627
100626
100625
100625
100625
100626
100628
100630
100633
100637
100642
100649
100655
100652
100619
100569
100213
100251
100543
100614
100562
100540
100584
100649
100714
100791
100894
101015
101156
101183
101234
101390
101310
101213
101150
101106
101066
101033
101014
101013
101028
101046
101062
101055
101051
100911
100631
100630
100629
100629
100629
100629
100629
100628
100627
100626
100625
100625
100625
100626
100628
100630
100633
100637
100642
100649
100655
100650
100610
100532
100238
100303
100562
100613
100559
100546
100595
100662
100722
100785
100838
101020
101033
101253
101201
101192
101195
101165
101132
101101
101069
101039
101020
101017
101029
101045
101057
101047
101036
100913
100623
100623
100622
100621
100620
100620
100620
100618
100616
100614
100612
100611
100609
100608
100607
100607
100606
100605
100604
100601
100594
100576
100543
100465
100383
100380
100503
100541
100525
100533
100567
100603
100635
100693
100852
101027
101016
101216
101462
101238
101190
101173
101139
101111
101086
101059
101035
101023
101028
101045
101070
101072
101101
100946
100623
100623
100622
100621
100620
100620
100620
100618
100616
100614
100612
100611
100609
100608
100608
100607
100606
100605
100604
100601
100593
100575
100540
100460
100365
100374
100493
100530
100518
100534
100577
100618
100644
100673
100717
100951
100779
101064
101505
100548
100985
101140
101132
101105
101083
101063
101042
101030
101033
101047
101066
101066
101079
100929
100616
100615
100614
100613
100612
100611
100610
100608
100606
100603
100599
100596
100593
100590
100587
100583
100578
100572
100565
100556
100542
100519
100485
100431
100368
100344
100378
100422
100458
100497
100531
100544
100536
100541
100640
100885
101919
100866
99954.5
100434
100983
101160
101141
101114
101095
101079
101060
101044
101038
101045
101062
101057
101089
100900
100616
100615
100614
100613
100612
100612
100610
100608
100606
100603
100599
100596
100593
100590
100587
100583
100578
100572
100565
100556
100541
100518
100482
100427
100364
100348
100383
100424
100455
100493
100532
100554
100558
100481
100604
100922
101433
98895.4
99397.3
99125.7
100041
100985
101129
101107
101085
101074
101062
101051
101046
101051
101062
101053
101081
100927
100608
100608
100607
100605
100604
100603
100601
100599
100595
100591
100587
100582
100577
100572
100566
100559
100550
100540
100528
100512
100491
100463
100424
100377
100329
100305
100316
100349
100386
100423
100447
100450
100343
100417
100447
99264.1
98047.4
97317.4
97875.3
98936.7
100033
100976
101143
101116
101096
101087
101080
101070
101064
101074
101087
101071
101044
100789
100608
100608
100606
100605
100604
100603
100601
100598
100595
100591
100587
100582
100577
100572
100566
100559
100550
100540
100528
100512
100490
100462
100422
100375
100330
100309
100322
100354
100386
100417
100446
100463
100480
100513
100415
99865.2
100808
97806.6
97964.8
98507
99395.9
100504
101077
101120
101099
101079
101073
101072
101073
101081
101081
101044
101041
100857
100601
100601
100599
100598
100596
100595
100592
100589
100585
100580
100574
100568
100561
100554
100545
100535
100523
100508
100491
100469
100443
100410
100371
100328
100290
100265
100261
100273
100287
100308
100323
100357
100091
100290
100483
99331.9
96580
96662.9
97985.6
99021.8
99904.5
100939
101148
101125
101100
101095
101096
101089
101089
101121
101172
101192
101171
101109
100601
100601
100599
100598
100596
100595
100592
100589
100585
100580
100574
100568
100561
100554
100545
100535
100523
100508
100491
100469
100442
100409
100370
100328
100290
100267
100264
100274
100285
100299
100315
100377
100374
100434
100471
97465.4
97449.9
96982.2
98149.4
99065.7
99919.1
100773
101090
101121
101114
101095
101085
101085
101098
101131
101158
101166
101086
100823
100595
100595
100593
100591
100589
100587
100584
100580
100575
100569
100562
100555
100546
100536
100525
100512
100496
100478
100456
100429
100398
100362
100322
100279
100239
100205
100182
100167
100156
100163
100195
100430
100207
99189.2
98507.2
96779.2
96039.3
97126.2
98683.6
99804.2
100440
101036
101171
101132
101104
101102
101100
101084
101079
101114
101186
101246
101346
101352
100595
100594
100593
100591
100589
100587
100584
100580
100575
100569
100562
100555
100546
100536
100525
100512
100496
100477
100455
100429
100398
100362
100322
100279
100240
100206
100183
100166
100150
100137
100114
100180
100460
99540.7
94152.9
93728
95670.4
97095.2
98764.2
99920.4
100576
100935
101050
101104
101106
101105
101093
101082
101089
101133
101208
101275
101253
101197
100589
100588
100586
100584
100582
100580
100576
100572
100566
100559
100551
100542
100532
100520
100506
100490
100471
100449
100423
100392
100357
100318
100273
100226
100177
100129
100083
100038
99994.3
99976.3
100071
100275
100445
99095.2
95220.8
94831.1
96232.3
97920.9
99416.1
100265
100605
100781
101067
101131
101123
101123
101110
101087
101065
101047
101066
101104
101197
101105
100589
100588
100586
100584
100582
100580
100576
100572
100566
100559
100551
100542
100532
100520
100506
100490
100471
100449
100422
100392
100357
100317
100273
100226
100177
100130
100083
100037
99985.2
99943.2
99869.4
100083
100199
98587.1
94443.6
94809.6
96344
98041.1
99524.2
100361
100687
100804
100952
101082
101110
101122
101110
101088
101070
101062
101104
101176
101272
101275
100583
100583
100581
100578
100576
100573
100569
100564
100557
100549
100540
100530
100518
100504
100488
100470
100448
100422
100393
100358
100319
100275
100225
100170
100110
100045
99973.7
99887.1
99796.3
99613.1
99847.9
100276
100071
87913.4
90320.6
94533.1
97056.2
98875.2
99892.5
100218
100376
100610
100877
101092
101139
101164
101153
101129
101090
101025
101017
101005
101040
101154
100583
100583
100581
100578
100576
100573
100569
100564
100557
100549
100540
100530
100518
100504
100488
100470
100448
100422
100392
100358
100319
100275
100225
100170
100110
100045
99973.8
99890.7
99791.2
99659.7
99575.5
99613.5
96850.8
94331.4
94298.1
95617.6
97458.6
99086.4
99987.9
100240
100396
100648
100878
101041
101121
101157
101154
101131
101092
101018
101002
101002
100975
100836
100579
100578
100576
100573
100570
100567
100563
100557
100550
100541
100531
100519
100506
100491
100473
100452
100427
100398
100365
100328
100284
100235
100179
100115
100043
99960
99862.8
99738
99578.4
99283.6
98847.9
100206
96687.4
90718.2
93836.2
97022.8
99283.2
100409
100435
100103
100134
100433
100751
101014
101151
101208
101215
101193
101148
101074
101006
100847
100717
100968
100579
100578
100576
100573
100570
100567
100563
100557
100550
100541
100531
100519
100506
100491
100473
100451
100427
100398
100365
100327
100284
100235
100179
100115
100043
99960.2
99862.3
99748
99588.9
99361.1
99086.6
98809.2
95361.4
92326.3
95081.9
97592.6
99601.4
100595
100492
100072
100116
100476
100781
100979
101122
101198
101213
101202
101152
101057
100978
100773
100571
100887
100575
100574
100572
100569
100566
100562
100557
100551
100543
100534
100523
100510
100496
100479
100459
100436
100409
100378
100342
100301
100253
100199
100137
100065
99980.9
99881
99759.3
99606.8
99400.8
99111
98587.3
98379
100458
101240
100082
100899
102024
101993
100946
99937.8
99843.8
100237
100665
100995
101172
101257
101301
101276
101258
101162
100835
100318
100153
100832
100574
100574
100572
100569
100566
100562
100557
100551
100543
100534
100523
100510
100495
100478
100459
100436
100409
100378
100342
100300
100253
100199
100137
100065
99980.4
99879.8
99752.9
99609.8
99428.3
99194.9
98908
98267.8
97209
97500.2
99200
101015
102287
102141
100966
99891.6
99815.1
100268
100687
100970
101147
101247
101293
101285
101265
101179
100892
100220
100011
100730
100571
100571
100568
100565
100562
100558
100553
100546
100538
100528
100516
100503
100487
100469
100447
100423
100394
100361
100322
100278
100228
100169
100101
100022
99927.7
99813.8
99675
99503
99271.6
98973.9
98494.8
97894.1
98186.9
99921.9
100224
101265
102475
102340
101068
99727
99594.6
100123
100690
101040
101205
101314
101430
101451
101489
101339
100928
100344
99697.8
100587
100571
100570
100568
100565
100562
100558
100553
100546
100538
100528
100516
100503
100487
100469
100447
100423
100394
100361
100322
100278
100227
100169
100101
100022
99927.1
99808.4
99672.9
99503.6
99278
98999.4
98730.1
97596.9
97124.6
98595.7
100125
101739
102716
102360
101087
99765.3
99566.6
100120
100700
101047
101208
101302
101404
101433
101515
101476
101218
100489
99497.7
100500
100569
100568
100565
100562
100559
100555
100549
100542
100534
100523
100511
100497
100480
100461
100439
100413
100382
100347
100307
100261
100207
100145
100073
99988.3
99887.2
99765.3
99616.9
99429.1
99185.4
98869.5
98477.9
97852.2
97429.4
98085.9
97965.7
99512.8
101004
101499
101013
100098
99869.5
100335
100847
101183
101306
101415
101534
101564
101607
101473
101418
101064
99421.5
100435
100569
100568
100565
100562
100559
100555
100549
100542
100534
100523
100511
100497
100480
100461
100438
100412
100382
100347
100307
100261
100207
100146
100073
99988.3
99887.3
99764.8
99623.2
99434.6
99180.4
98865.6
98442.4
97792.3
97441.8
98130.1
99226
100275
100552
100928
100775
100197
99930.3
100300
100829
101196
101331
101400
101502
101550
101642
101604
101739
101466
99455.9
100284
100567
100567
100564
100561
100557
100553
100547
100540
100531
100520
100507
100493
100476
100456
100433
100406
100375
100338
100297
100249
100194
100130
100054
99965.7
99859.9
99732.2
99576
99380.8
99132.9
98816.9
98438.9
97926.4
97417.6
96788.3
95983.9
96347.1
95812.4
96082.6
96808.3
98434.2
99586.8
100538
101024
101318
101473
101568
101622
101615
101641
101659
102041
101976
99575.7
99810.4
100567
100567
100564
100561
100557
100553
100547
100540
100531
100520
100507
100493
100475
100456
100432
100406
100374
100338
100297
100249
100194
100130
100054
99965.8
99860.2
99733
99578.6
99387.8
99135.8
98809.6
98456.5
97942.3
97430
97286.3
96895.6
96081.7
95115.9
95500.8
96451
98225.2
99664.3
100543
101018
101312
101467
101565
101612
101622
101645
101694
102210
102378
99906.4
99897.1
100566
100565
100563
100559
100556
100552
100546
100538
100529
100518
100505
100490
100473
100453
100429
100402
100370
100334
100291
100243
100186
100121
100045
99954
99845.8
99715.1
99555.2
99356.8
99108.2
98796.3
98412.4
97914.7
97281.3
96651.3
96015.4
94762.4
92676.5
92088.5
93173.3
95724.4
98251.6
99867
100684
101090
101377
101555
101615
101618
101612
101683
101788
101292
99719.1
99409.6
100566
100565
100563
100560
100556
100552
100546
100538
100529
100518
100505
100490
100473
100453
100429
100402
100370
100333
100291
100243
100187
100121
100045
99954.2
99846.1
99715.7
99556.3
99359.6
99111.1
98800.7
98433.8
97978.5
97452.1
96717.6
95434.8
93835
92640.6
92250.5
93233.6
95566.5
98145.4
99868.3
100681
101074
101343
101540
101615
101620
101624
101691
101832
101402
99903.5
99465.5
100522
100884
100230
101310
101281
100238
100144
100298
100143
100003
100202
100873
100290
101301
101251
100319
100122
100221
100005
100043
101136
100634
100402
100586
100208
100258
100056
100383
100043
100166
99985.9
101135
100569
100160
100557
100135
100029
100073
100126
100038
100094
100185
100675
100750
100660
100805
100685
100790
100656
100501
100551
100479
100486
100391
100463
100385
100645
100736
100634
100779
100619
100773
100593
100473
100525
100481
100379
100342
100326
100314
100971
100901
100964
100951
101108
100951
101110
100261
100428
100375
100396
100253
100194
100141
100292
100016
100081
99980.2
100092
100954
100890
100950
100949
101097
100938
101092
99745.9
100285
100128
100161
100014
100368
100288
100400
100022
100181
100101
100262
100962
100885
100977
100744
100719
100742
100712
100356
101167
100825
100824
100427
100196
100280
100145
100031
100153
100080
100190
100060
100208
100973
100878
100970
100736
100699
100737
100702
100388
101112
100875
100378
100849
100041
100039
100225
100128
100295
100123
100269
100203
100331
100421
100554
100396
100514
100408
100514
100409
99961.8
100207
100048
100294
100255
100301
100292
100389
100526
100388
100512
100414
100511
100416
100161
100248
100208
100313
100300
100313
100292
100757
100701
100489
100689
100815
100752
100448
100611
100662
100747
101145
101237
101318
101241
101164
100920
100970
101160
101210
101315
101238
101114
100940
100890
100197
100355
100361
100379
100087
100228
100192
100215
100094
100100
100076
100200
100194
100054
100201
100045
100024
100041
100095
100590
100590
100315
100621
100871
100693
100308
100600
100602
100672
101148
101149
101265
100979
101238
101092
100629
101067
101240
101273
101206
101140
100815
100947
99760.5
100112
100147
100122
99822.6
99781.4
99976
99972.8
100075
100035
100105
100098
99779.9
99820.2
99956
100030
100049
100069
99983.6
100085
100165
100343
101166
100846
100824
100378
100067
100074
100212
100483
100355
100468
100273
100172
100287
100359
100084
100429
100247
100203
100261
100183
100347
100097
100014
100157
100109
100035
100082
100041
100207
100313
100332
100270
100302
100130
100251
100154
100086
100203
100057
100080
100332
101131
100812
100819
100285
100035
100006
99961.9
100306
100116
100040
100265
99985.4
100161
100291
100301
100035
100025
100041
100011
100043
100013
99948.3
100202
100032
100069
100057
100048
100130
100074
100145
100071
100089
100139
100012
100116
100151
100108
100146
100966
100830
100899
101049
100820
101046
100976
100953
100802
100864
101005
100775
100981
101005
100960
100890
100793
101028
100805
101040
100958
100324
100385
100244
100120
100356
100116
100317
100283
100256
100356
100130
100338
100106
100230
100930
100880
100790
101050
100792
101035
100909
100116
100340
100260
100206
100223
100236
100177
100076
100214
100182
100094
100159
100122
100067
100584
100686
100609
100625
100675
100603
100602
100541
100660
100612
100524
100664
100506
100576
100154
100150
100142
99988.3
100061
100085
100245
100033
99971.9
99962
100052
99978
100003
100036
100475
100658
100487
100551
100492
100622
100459
100448
100622
100556
100471
100618
100470
100456
100032
99983
100100
100123
100013
100009
100148
100037
100088
100156
100217
100053
100146
100087
100270
100356
100137
100283
100368
100242
100187
100145
100203
100149
100182
100120
100004
100085
100081
100275
100266
100361
100194
100375
100212
100276
99788.8
99953.9
99844.9
99392.3
100067
99672
99492.5
99490.9
99331.7
99353.5
99454.2
99891.3
99949.5
100269
99593.4
99909.4
100201
99556
99527.7
99587.1
99603.3
99478.2
100781
100513
100620
100390
100534
100764
100648
100978
101295
101295
100994
100972
101277
101281
100954
100793
100395
100565
100638
100551
100656
100787
100254
100291
101002
100495
100447
100718
100669
100803
100759
100994
101261
100837
101012
101045
101358
101015
100784
101027
100438
100681
100644
100883
100671
100772
100006
100029
100374
100702
100326
100779
100728
100318
100371
100297
100263
100230
100304
100256
100058
100155
100183
100381
100782
100726
100405
100731
100379
100423
100212
100682
100288
100739
100269
100661
100242
100068
99940.3
99781.7
100500
100050
100026
100141
99946.4
100296
100739
100718
99794.9
100673
100309
100647
101384
101201
101370
101144
101199
101370
101378
101440
101399
101407
101422
101435
101397
101398
101427
101388
101155
101204
101372
101203
101376
101366
100930
100942
101376
101204
101187
101383
101201
101385
101366
101395
101382
101344
101355
101366
101199
101214
101381
101197
101363
101330
101415
101420
101442
101388
100969
100982
100143
100301
100071
100147
100198
100260
99998.5
99859.3
99514.5
99527.9
99700.2
99994.2
99971.2
100052
99910.6
100108
100073
100282
99837.9
100039
100213
99935.2
100224
100191
100101
100204
100108
100200
100207
100084
100108
100091
100197
100188
100112
100083
100152
100079
100171
100103
100188
100205
100090
100209
100080
100120
100146
100086
100096
100183
100173
100099
100181
100083
100110
100046
100046
100066
100054
100105
100132
100148
100097
100161
100112
100121
100043
100098
100042
100071
100191
100563
100541
99880.4
100610
100183
99866.9
99904.5
99639.7
99642.2
100102
100142
100781
100784
100637
100690
100411
100227
100085
99837.9
99857.6
100079
100068
100590
100174
100649
100103
100590
100098
99836.5
99658.4
99607
99893.1
99867.8
99710.7
99954.2
99609.2
100082
100552
100605
100088
100579
99988.4
100178
101488
101221
101254
101491
101146
101264
101432
102478
101314
100983
101165
101298
101169
101248
101819
101105
101265
101175
101607
101717
101036
101567
101183
101009
101654
101175
101567
101108
101156
101316
101449
101492
101363
101446
101392
101457
101483
101474
101447
101623
101175
101125
101537
101029
101550
101253
101015
101022
99826.8
99978
99390.2
99816.3
99708.4
100084
99467.6
99495.4
99553.7
99481.1
99593.1
99484
99513.4
99467.5
99446.9
99819.8
99834.9
100024
99494.1
100069
99497.3
99814.4
99856.4
99927.1
100091
99997.6
100082
100003
100114
100046
100057
100107
100038
100077
100061
100132
100052
100154
100107
100122
100156
100085
100099
100073
100079
100072
99801.5
99838.6
99988.8
100046
99972
99948.4
100024
100031
99954.1
100009
100062
100053
100027
100028
100067
100061
100056
99970.3
99962.2
100034
99993.2
100019
99971.5
99991.9
100117
100122
100782
100564
100596
100367
100762
100603
100615