/*--------------------------------*- C++ -*----------------------------------*\
| =========                 |                                                 |
| \\      /  F ield         | OpenFOAM: The Open Source CFD Toolbox           |
|  \\    /   O peration     | Version:  4.1                                   |
|   \\  /    A nd           | Web:      www.OpenFOAM.org                      |
|    \\/     M anipulation  |                                                 |
\*---------------------------------------------------------------------------*/
FoamFile
{
    version     2.0;
    format      ascii;
    class       surfaceScalarField;
    location    "47";
    object      phi;
}
// * * * * * * * * * * * * * * * * * * * * * * * * * * * * * * * * * * * * * //

dimensions      [0 3 -1 0 0 0 0];

internalField   nonuniform List<scalar> 
11516
(
9.98731e+06
275.268
9812.08
9.96868e+06
238.482
21259.4
9.93996e+06
372.83
31410
9.90195e+06
416.048
41029.5
9.85481e+06
521.203
50530.9
9.79845e+06
669.102
60102.3
9.73251e+06
764.497
69869.4
9.65645e+06
765.948
79957.8
9.56961e+06
688.438
90490.4
9.47117e+06
557.619
101743
9.36088e+06
456.255
113438
9.23965e+06
454.207
124732
9.10985e+06
554.124
134527
8.97766e+06
768.198
139265
8.85649e+06
118.866
132535
8.75978e+06
-1100.15
111264
8.7109e+06
992.317
61748.8
8.71336e+06
1366.27
6656.12
8.72429e+06
1194.65
-4356.23
8.69727e+06
2121.31
30805.9
8.63597e+06
-599.247
66742.8
8.53788e+06
-4152.91
106711
8.40841e+06
-7288.32
141377
8.25387e+06
-9963.48
169622
8.07574e+06
-12107.6
195842
7.89632e+06
-13798.3
199853
7.73166e+06
-11372.5
184824
7.59128e+06
-5664.73
157189
7.47748e+06
-3376.71
130269
7.39211e+06
-6268.5
106101
7.33008e+06
-10734.1
89257
7.27547e+06
-17486.1
88772.4
7.24584e+06
-19011.4
65683.8
7.27657e+06
-2681.63
-7932.34
7.41014e+06
17374.3
-111039
7.58921e+06
20211.7
-150797
7.7178e+06
27118.3
-96763
7.82439e+06
22307.6
-49117.7
7.89467e+06
8511.02
-14541.1
7.96518e+06
-1183.41
-2981.72
8.04915e+06
3251.34
-36957.3
8.13319e+06
17109.1
-72117.7
8.18317e+06
25257
-77215.8
8.21771e+06
35019.9
-82857.2
8.23603e+06
17933.3
-82804.2
8.28041e+06
-8834.72
-137302
8.26438e+06
2484.9
-100148
8.28982e+06
-157.756
-149686
8.36739e+06
41823.5
-249930
8.52556e+06
-26418.2
-348201
8.84428e+06
8185.47
-425827
9.1565e+06
-39611.5
-612685
1.00025e+07
79852.2
-874607
84546.4
-1.35026e+06
9.98773e+06
9808.66
9.96868e+06
21269
9.93979e+06
31403
9.90162e+06
40989.3
9.85443e+06
50471.1
9.79811e+06
60065.6
9.73225e+06
69885.3
9.65621e+06
80068.3
9.56927e+06
90731.1
9.47063e+06
102093
9.36006e+06
113911
9.23858e+06
125217
9.10831e+06
135106
8.97491e+06
140117
8.84792e+06
134946
8.74755e+06
108463
8.70163e+06
55242.7
8.71116e+06
-2209.77
8.72732e+06
-10367.8
8.70276e+06
30268
8.64197e+06
63628.1
8.54591e+06
95355.9
8.41765e+06
124461
8.26134e+06
150077
8.07733e+06
176145
7.88979e+06
179261
7.71635e+06
169219
7.56357e+06
155953
7.43799e+06
132740
7.35719e+06
87868.6
7.32634e+06
34908.5
7.32261e+06
2654.54
7.33223e+06
-10249.4
7.37407e+06
-24764.5
7.48512e+06
-66656
7.63945e+06
-88479.7
7.7721e+06
-50403.5
7.88674e+06
-33525.5
7.97865e+06
-22670.2
8.05508e+06
-33497.2
8.11827e+06
-30643.6
8.18732e+06
-40109.9
8.25535e+06
-33568.7
8.3026e+06
-39537.2
8.31078e+06
-28212
8.32209e+06
-82530.7
8.32036e+06
-73234.9
8.34119e+06
-88902.5
8.36468e+06
-159756
8.65181e+06
-289520
8.83159e+06
-450734
9.32164e+06
-551541
1.00787e+07
-705135
-1.12703e+06
1.00066e+07
275.679
5654.49
1.00148e+07
211.575
15673
1.00233e+07
342.965
25616.4
1.00316e+07
403.216
35655.9
1.00397e+07
536.476
45870
1.00474e+07
716.414
56420.4
1.00542e+07
856.829
67409.4
1.00602e+07
921.618
78728.4
1.00644e+07
914.354
91100
1.0067e+07
864.559
103888
1.00677e+07
803.365
117508
1.00655e+07
784.612
131575
1.00588e+07
891.342
145974
1.00439e+07
1175.16
159341
1.00055e+07
3256.74
174427
9.93265e+06
3420.29
187264
9.80547e+06
2880.08
193560
9.60188e+06
2360.29
211471
9.37521e+06
-482.612
224884
9.17661e+06
-1246.83
232652
9.00439e+06
393.369
240682
8.85639e+06
2000.14
254702
8.72005e+06
3417.81
276232
8.58433e+06
4892.05
302348
8.45049e+06
5957.01
325953
8.31394e+06
7308.54
332281
8.17089e+06
8863.13
323871
8.00381e+06
12252.9
318693
7.81657e+06
18830.3
305789
7.626e+06
22297.7
281618
7.44559e+06
24185.6
252245
7.31114e+06
27043.7
201483
7.25622e+06
24161.2
101576
7.2902e+06
17761
-50365.3
7.41723e+06
9525.72
-226255
7.53197e+06
2762.72
-219545
7.62389e+06
-10246.5
-107941
7.7092e+06
-18911.6
-44318.2
7.7668e+06
-25177.6
11586.8
7.84754e+06
-34129.2
-22959.9
7.91775e+06
-26838.9
-62333.3
7.94213e+06
-37976.6
-44611.7
7.93967e+06
-44271.2
-20358.8
7.92269e+06
-46835
-36639.9
7.90772e+06
-56580.9
-54965
7.8821e+06
-68200
-117467
7.87573e+06
-78915.3
-117706
7.89888e+06
-79515.8
-186356
7.8964e+06
-79269.6
-295800
8.0068e+06
-122275
-488812
7.91685e+06
-56589
-401511
8.00904e+06
103020
-879829
9.18612e+06
214432
-2.32236e+06
38310.2
-2.73059e+06
1.00071e+07
5649.08
1.00148e+07
15668.2
1.00231e+07
25607
1.00312e+07
35635.8
1.00392e+07
45837.2
1.00469e+07
56377.7
1.00539e+07
67366.7
1.006e+07
78704.3
1.00645e+07
91130
1.00673e+07
103989
1.00681e+07
117711
1.0066e+07
131899
1.00598e+07
146279
1.00459e+07
159717
1.00174e+07
171999
9.95232e+06
181980
9.81646e+06
198462
9.60754e+06
211069
9.37599e+06
222136
9.17776e+06
228679
9.00875e+06
234468
8.86195e+06
245552
8.72816e+06
263085
8.59665e+06
288020
8.4701e+06
310593
8.343e+06
316818
8.20808e+06
317922
8.05896e+06
323701
7.90434e+06
314231
7.74762e+06
276586
7.57286e+06
242131
7.41298e+06
195635
7.32976e+06
103377
7.35945e+06
-25352.8
7.47268e+06
-146233
7.62316e+06
-188097
7.75196e+06
-135622
7.84361e+06
-85124.8
7.89535e+06
-59378.3
7.96663e+06
-103420
8.03839e+06
-113580
8.08886e+06
-113134
8.10126e+06
-88082.1
8.10601e+06
-92601
8.10904e+06
-120641
8.10303e+06
-210287
8.1212e+06
-235004
8.12362e+06
-259281
8.14818e+06
-351820
8.2139e+06
-584019
8.13062e+06
-461967
8.47558e+06
-817065
9.49032e+06
-1.5041e+06
-2.6398e+06
9.99934e+06
270.767
7305.86
9.99575e+06
207.434
21773.9
9.98775e+06
335.818
36183.9
9.97568e+06
393.709
50621.5
9.9597e+06
532.457
65185.7
9.9399e+06
731.068
80068.6
9.91646e+06
900.313
95198.2
9.88871e+06
997.885
111249
9.85734e+06
1017.97
127500
9.82155e+06
977.908
144799
9.78181e+06
899.447
162354
9.73787e+06
837.32
180546
9.68926e+06
770.191
199453
9.63409e+06
963.338
219092
9.5737e+06
1030.9
238966
9.50135e+06
2249.29
262976
9.41155e+06
2157.1
286438
9.31896e+06
2295.26
303669
9.2197e+06
434.918
325272
9.10606e+06
607.81
347478
8.98156e+06
1069.45
365973
8.85534e+06
1740.3
381031
8.72985e+06
2869.44
400760
8.6031e+06
4977.4
426164
8.47258e+06
6252.15
452723
8.33485e+06
8693.79
465312
8.1777e+06
13508.4
473716
7.97918e+06
19500.9
505598
7.73626e+06
23538.6
533888
7.45927e+06
19351.9
547518
7.17004e+06
14402.5
533709
6.92781e+06
22126
426348
6.77238e+06
46159.4
216366
6.75546e+06
71227
-94285.1
6.9233e+06
54707.1
-431424
7.08316e+06
-7302.09
-343608
7.14295e+06
-71673.4
-52416.9
7.18112e+06
-97193.6
63988.3
7.17015e+06
-107368
154922
7.24391e+06
-66098.7
-11871.9
7.29851e+06
-41589.2
-68155.1
7.29676e+06
-56804.2
25497.8
7.29067e+06
-76154.1
76603.5
7.31064e+06
-76342.6
30353
7.32515e+06
-69920.7
-29988.5
7.26561e+06
-51668.8
-77658.9
7.26872e+06
-53121
-155234
7.31276e+06
-73613.3
-259893
7.45196e+06
-97490.2
-413097
7.69329e+06
-89653.5
-686086
8.21267e+06
-75863.1
-850807
8.46464e+06
-46929.9
-1.07549e+06
7.0454e+06
326323
-1.15865e+06
230351
-2.0834e+06
9.99975e+06
7302.83
9.99575e+06
21770.6
9.98757e+06
36170.8
9.97533e+06
50597.5
9.95927e+06
65155
9.93954e+06
80036.1
9.91626e+06
95170.4
9.88866e+06
111234
9.85739e+06
127507
9.82163e+06
144832
9.78185e+06
162416
9.73788e+06
180615
9.68916e+06
199528
9.63448e+06
218974
9.57205e+06
238886
9.49842e+06
261646
9.41432e+06
288246
9.32182e+06
308097
9.22143e+06
324226
9.1091e+06
342885
8.98668e+06
359336
8.86311e+06
372246
8.74063e+06
389978
8.61407e+06
421196
8.48462e+06
448497
8.35043e+06
463345
8.20083e+06
486405
8.02231e+06
528834
7.80371e+06
565211
7.52877e+06
579577
7.22733e+06
563670
6.98715e+06
462459
6.87327e+06
269230
6.91119e+06
15544.3
7.09546e+06
-257959
7.25401e+06
-324475
7.35447e+06
-269752
7.41568e+06
-209808
7.43816e+06
-149492
7.5129e+06
-215965
7.56945e+06
-199093
7.55886e+06
-139980
7.53013e+06
-107580
7.51636e+06
-154114
7.51729e+06
-221025
7.49205e+06
-282029
7.49423e+06
-351977
7.52774e+06
-425413
7.5982e+06
-579413
7.77767e+06
-867302
8.2294e+06
-969518
8.4699e+06
-1.1297e+06
7.95063e+06
-582502
-2.17614e+06
9.99901e+06
267.381
9354.12
9.99552e+06
205.905
27741.7
9.98787e+06
328.684
46337.7
9.97618e+06
379.479
65099.8
9.96042e+06
509.02
84154.5
9.94063e+06
698.325
103546
9.91601e+06
860.536
124017
9.88681e+06
953.882
145041
9.85244e+06
972.417
166699
9.81267e+06
928.337
189422
9.76691e+06
845.01
212841
9.71458e+06
751.268
237377
9.65533e+06
657.581
262906
9.58862e+06
625.352
289332
9.51309e+06
663.349
318218
9.42963e+06
1606.39
349928
9.33423e+06
1453.88
387226
9.23285e+06
1115.76
409259
9.13768e+06
204.645
422598
9.04364e+06
806.834
442833
8.94295e+06
1344.13
467464
8.83464e+06
1376.1
490223
8.71324e+06
1382.85
523163
8.57954e+06
2240.75
560068
8.43407e+06
2249.84
598598
8.27164e+06
3483.62
628202
8.07446e+06
7628.22
668586
7.81484e+06
10190.8
761257
7.47176e+06
8075.15
876043
7.07041e+06
7155.08
947796
6.7005e+06
8345.65
898983
6.42477e+06
13537.5
690754
6.27254e+06
27509.6
342324
6.30591e+06
49874.2
-176246
6.50886e+06
38280
-671337
6.64856e+06
-72670.9
-405339
6.62006e+06
-188614
182591
6.5771e+06
-265322
405012
6.51411e+06
-245192
482533
6.60036e+06
-142705
61393.1
6.63304e+06
-55448.7
-40991.5
6.61518e+06
-76682.3
134935
6.59954e+06
-66539.3
203851
6.60031e+06
-53556.8
98552.5
6.59902e+06
-39446.2
2052.64
6.51915e+06
-44845.1
-2062.69
6.46873e+06
-64353.5
-106652
6.42803e+06
-54938.3
-242141
6.49512e+06
-49923.9
-494702
6.57363e+06
-55376.7
-745113
6.80157e+06
-55151.8
-914982
6.92419e+06
-56358.4
-1.07444e+06
6.38183e+06
155626
-738244
749545
-1.06878e+06
9.99941e+06
9353.29
9.99552e+06
27739.7
9.98768e+06
46326.1
9.97583e+06
65087.2
9.95999e+06
84150.1
9.94027e+06
103550
9.9158e+06
124024
9.88677e+06
145044
9.85249e+06
166692
9.81274e+06
189397
9.76692e+06
212796
9.71447e+06
237307
9.65497e+06
262813
9.58825e+06
289187
9.51276e+06
317966
9.43063e+06
349355
9.33987e+06
386789
9.23723e+06
415788
9.14067e+06
422987
9.04707e+06
439110
8.94678e+06
462752
8.8372e+06
485334
8.71392e+06
516561
8.58022e+06
558846
8.4367e+06
596326
8.27294e+06
633528
8.07111e+06
699462
7.81055e+06
803780
7.47439e+06
913965
7.08463e+06
980221
6.73226e+06
926650
6.47049e+06
739252
6.31514e+06
452755
6.34731e+06
35047.1
6.60671e+06
-474089
6.80731e+06
-581949
6.9158e+06
-540122
6.9157e+06
-442730
6.87193e+06
-318167
6.90812e+06
-371091
6.90198e+06
-240428
6.83929e+06
-131728
6.8034e+06
-97333.5
6.80535e+06
-190664
6.8065e+06
-274123
6.76487e+06
-325268
6.72969e+06
-434890
6.71486e+06
-535776
6.67499e+06
-643541
6.64595e+06
-845312
6.74474e+06
-1.14298e+06
6.80139e+06
-1.13352e+06
6.96613e+06
-553540
-1.15188e+06
9.99905e+06
266.239
11344
9.99566e+06
206.134
33600.8
9.98821e+06
328.86
56281.9
9.97681e+06
376.761
79291
9.96146e+06
501.735
102706
9.94207e+06
686.029
126609
9.91847e+06
843.724
151756
9.89054e+06
933.01
177440
9.85748e+06
947.329
204344
9.81904e+06
898.34
232341
9.77483e+06
811.078
261289
9.72449e+06
716.937
291675
9.66791e+06
618.621
323112
9.60416e+06
573.54
356554
9.53337e+06
603.11
392726
9.45666e+06
999.459
432498
9.37557e+06
2033.09
477950
9.27184e+06
2964.11
521206
9.15219e+06
1351.56
545782
9.04182e+06
626.327
557280
8.93423e+06
2071.85
577110
8.82002e+06
2105.95
606982
8.68724e+06
292.513
659184
8.53246e+06
-445.834
718228
8.35676e+06
-2768.42
779704
8.14673e+06
-2872.86
844294
7.88983e+06
1104.17
927696
7.57307e+06
3176.63
1.07792e+06
7.19728e+06
659.448
1.25407e+06
6.80535e+06
712.671
1.3414e+06
6.45918e+06
5478.85
1.24129e+06
6.17713e+06
15673.7
958286
5.9783e+06
32122.4
510762
5.90882e+06
68071.3
-173512
6.01647e+06
146855
-924248
5.80012e+06
-55934.5
-124986
5.89637e+06
-145620
274825
5.93924e+06
-184432
597917
5.80102e+06
-225712
874592
5.81965e+06
-38914.2
91602.3
5.77743e+06
-18110.1
24501.2
5.73439e+06
-83817.5
288089
5.78071e+06
-31794.4
267784
5.79263e+06
9407.64
172829
5.75996e+06
15947.4
54611.1
5.7529e+06
344.738
-27123.5
5.70908e+06
-597.646
-175464
5.70655e+06
3997.37
-381352
5.58726e+06
48023.8
-525546
5.31317e+06
145883
-588327
4.87493e+06
166407
-662689
4.50928e+06
386932
-1.00753e+06
4.80344e+06
216973
-1.15236e+06
124345
-1.46872e+06
9.99946e+06
11338.9
9.99566e+06
33598.6
9.98802e+06
56276.4
9.97645e+06
79289
9.96103e+06
102714
9.94172e+06
126624
9.91827e+06
151771
9.89049e+06
177444
9.85752e+06
204325
9.8191e+06
232287
9.77483e+06
261192
9.72435e+06
291540
9.66761e+06
322963
9.60364e+06
356410
9.53289e+06
392663
9.4564e+06
432497
9.37499e+06
477798
9.27712e+06
524538
9.1638e+06
543765
9.05221e+06
556880
8.94054e+06
581155
8.81729e+06
614733
8.67766e+06
659574
8.52267e+06
715296
8.34374e+06
774311
8.12721e+06
848984
7.87424e+06
955203
7.57089e+06
1.11196e+06
7.21574e+06
1.2714e+06
6.84476e+06
1.35334e+06
6.51626e+06
1.26176e+06
6.26205e+06
1.00982e+06
6.11543e+06
632756
6.14675e+06
73169.7
6.43517e+06
-606426
6.72126e+06
-900320
6.87144e+06
-812579
6.88909e+06
-625931
6.72593e+06
-361669
6.52639e+06
-192199
6.30226e+06
-25700.2
6.15456e+06
-26509.1
6.16593e+06
-66437.6
6.18957e+06
-156069
6.18215e+06
-237516
6.12554e+06
-304623
6.01765e+06
-414065
5.89255e+06
-527934
5.75929e+06
-554799
5.53566e+06
-597494
5.21808e+06
-630670
5.42214e+06
-924874
5.46575e+06
-467790
-1.04627e+06
9.99909e+06
261.009
13273.9
9.99582e+06
206.274
39319.7
9.98867e+06
326.495
65927.3
9.97778e+06
375.851
92975.6
9.96327e+06
500.521
120428
9.94473e+06
680.298
148806
9.92225e+06
829.152
178285
9.8954e+06
905.052
208584
9.86373e+06
901.589
240301
9.82697e+06
832.438
273149
9.78438e+06
727.262
307602
9.73605e+06
627.887
343453
9.68162e+06
551.235
380919
9.62096e+06
549.817
420821
9.55497e+06
597
463222
9.48472e+06
1027.11
509298
9.41457e+06
1984.78
557964
9.33416e+06
4697.41
612562
9.23172e+06
5125.7
657088
9.11479e+06
2138.69
686820
8.98625e+06
3252.63
715843
8.84514e+06
1803.35
758139
8.69618e+06
-1773.6
814833
8.53068e+06
-3537.87
890481
8.32884e+06
-7371.36
991570
8.07425e+06
-6828.76
1.10831e+06
7.77109e+06
-1196.87
1.23442e+06
7.44187e+06
4237.22
1.40463e+06
7.0919e+06
4105.75
1.60138e+06
6.72927e+06
5495.38
1.69993e+06
6.36514e+06
12621
1.59428e+06
5.99135e+06
30276.1
1.30412e+06
5.56377e+06
68903
872081
4.96696e+06
240898
184875
3.03502e+06
974858
40362.3
2.04611e+06
543083
347243
1.64152e+06
312514
448638
2.26708e+06
211467
-161837
2.94179e+06
32895.1
238872
3.72389e+06
87583.4
-743489
3.98599e+06
46808.3
-262978
4.17621e+06
77993.3
137613
4.32015e+06
139437
195047
4.41655e+06
145092
108474
4.39788e+06
163976
3764.02
4.32625e+06
137577
-127380
4.12244e+06
125855
-260315
3.9247e+06
121181
-535582
3.73613e+06
168870
-739424
3.5556e+06
212585
-911225
3.70117e+06
161769
-1.08996e+06
3.93472e+06
151975
-1.37338e+06
4.31217e+06
44741.2
-1.76556e+06
115077
-2.3926e+06
9.99948e+06
13271.6
9.99581e+06
39317
9.98849e+06
65913.7
9.97744e+06
92965.1
9.96286e+06
120434
9.94438e+06
148827
9.92205e+06
178311
9.89533e+06
208601
9.86374e+06
240295
9.82699e+06
273107
9.78433e+06
307517
9.73589e+06
343327
9.68129e+06
380783
9.62051e+06
420691
9.5544e+06
463238
9.48453e+06
509260
9.41536e+06
558182
9.34652e+06
610349
9.25514e+06
654416
9.13667e+06
691047
9.00407e+06
727594
8.85779e+06
772448
8.69686e+06
824707
8.51632e+06
894502
8.3044e+06
980577
8.04997e+06
1.09823e+06
7.76998e+06
1.23526e+06
7.4634e+06
1.42377e+06
7.12909e+06
1.6108e+06
6.78385e+06
1.70512e+06
6.45364e+06
1.60555e+06
6.1556e+06
1.33978e+06
5.8924e+06
966530
5.75755e+06
456907
6.46157e+06
-307513
6.42105e+06
-302329
6.24048e+06
-301817
6.07945e+06
-219440
5.75716e+06
57267.3
5.40994e+06
291955
5.06858e+06
423653
4.95184e+06
268295
4.95699e+06
170421
4.98847e+06
41503.4
4.97651e+06
-29443.2
4.87524e+06
-106837
4.7182e+06
-245100
4.51385e+06
-368868
4.28742e+06
-370858
4.10914e+06
-342894
3.92139e+06
-369709
3.75569e+06
-755372
3.71904e+06
-416917
-1.23137e+06
9.99913e+06
258.293
15126.2
9.9961e+06
206.724
44771.4
9.9894e+06
329.833
75092.9
9.97918e+06
379.883
105967
9.96553e+06
500.932
137259
9.948e+06
672.515
169921
9.92668e+06
809.988
203550
9.9011e+06
872.556
238285
9.87101e+06
855.643
274447
9.83536e+06
775.598
312567
9.79461e+06
667.122
351798
9.74819e+06
577.99
393125
9.696e+06
542.004
436487
9.63852e+06
589.46
482207
9.57626e+06
736.716
530503
9.51059e+06
1138.22
581722
9.44222e+06
1833.98
635431
9.37439e+06
3178.8
692109
9.29961e+06
4168.84
747015
9.20752e+06
3676.3
798904
9.09367e+06
3692.66
851978
8.95203e+06
2652.95
921129
8.7863e+06
242.028
992287
8.60742e+06
-5972.35
1.08008e+06
8.39623e+06
-12415.5
1.21795e+06
8.1283e+06
-13195.2
1.39231e+06
7.80918e+06
-941.431
1.55637e+06
7.47276e+06
12322.2
1.72914e+06
7.13143e+06
11505
1.93142e+06
6.76658e+06
9029.56
2.05638e+06
6.3719e+06
19952.8
1.97028e+06
5.90093e+06
44150.5
1.73286e+06
5.11529e+06
125595
1.53431e+06
2.84393e+06
645264
1.81391e+06
111431
941296
1.84333e+06
59683.5
18481.9
380882
620609
984.72
-60934.4
-91631.7
577560
283313
143628
-151698
440798
890092
-559836
-830411
1.49037e+06
-172992
-595959
1.55918e+06
467569
-219485
1.56741e+06
429319
-59364.8
1.73618e+06
245290
-131324
1.96319e+06
182730
-309698
2.27069e+06
130787
-569180
2.64172e+06
58828.5
-777657
3.05584e+06
-6556.87
-1.10645e+06
3.5023e+06
-42725.2
-1.349e+06
4.02833e+06
-26740.2
-1.6238e+06
4.6314e+06
10189.6
-1.83497e+06
5.09157e+06
-1129.36
-2.07355e+06
5.44154e+06
189185
-2.34077e+06
121115
-2.81028e+06
9.99952e+06
15119.8
9.9961e+06
44766
9.98923e+06
75080.5
9.97885e+06
105956
9.96512e+06
137256
9.94766e+06
169926
9.92647e+06
203554
9.90101e+06
238279
9.87099e+06
274421
9.83534e+06
312515
9.79453e+06
351720
9.74802e+06
393024
9.69571e+06
436386
9.63815e+06
482111
9.57594e+06
530470
9.51053e+06
581611
9.4432e+06
635243
9.37654e+06
690715
9.30274e+06
745753
9.213e+06
800004
9.104e+06
857916
8.97041e+06
925601
8.7982e+06
1.00937e+06
8.60044e+06
1.08963e+06
8.36855e+06
1.20271e+06
8.09248e+06
1.36257e+06
7.80103e+06
1.52634e+06
7.50087e+06
1.73632e+06
7.18325e+06
1.93984e+06
6.843e+06
2.0544e+06
6.48816e+06
1.98092e+06
6.13139e+06
1.74155e+06
5.74402e+06
1.48165e+06
5.37407e+06
1.48709e+06
3.7373e+06
2.27526e+06
1.94619e+06
1.51455e+06
923493
755991
953383
431498
758954
260492
1.1101e+06
-505352
1.16125e+06
283747
1.06587e+06
902016
1.26628e+06
497091
1.70762e+06
-37826.7
2.01819e+06
-68672.6
2.21208e+06
-135974
2.28492e+06
-290855
2.22135e+06
-403070
2.14912e+06
-487487
2.28917e+06
-666458
2.65617e+06
-904320
2.93884e+06
-1.13065e+06
3.88729e+06
-1.21895e+06
-1.77156e+06
9.9992e+06
251.733
16853
9.99647e+06
204.356
49876.7
9.99031e+06
321.962
83677.3
9.98085e+06
369.353
118130
9.96807e+06
484.539
153113
9.95181e+06
646.076
189611
9.93204e+06
772.032
227057
9.90787e+06
824.092
266313
9.87916e+06
800.594
306942
9.84576e+06
720.94
349499
9.80686e+06
623.304
393981
9.76264e+06
556.7
440560
9.71319e+06
558.59
489416
9.65867e+06
642.549
540799
9.59961e+06
801.457
594464
9.53666e+06
1062.24
650655
9.4705e+06
1425.22
708754
9.40259e+06
1893.66
768699
9.33125e+06
1985.62
829735
9.25349e+06
1714.45
891997
9.16537e+06
1632.82
959128
9.06397e+06
2413.65
1.04239e+06
8.93139e+06
4048.88
1.14263e+06
8.75971e+06
-3802.42
1.26464e+06
8.56239e+06
-14782.9
1.43362e+06
8.33481e+06
-17558.4
1.63874e+06
8.06134e+06
-1380.19
1.83001e+06
7.71623e+06
16659.7
2.05273e+06
7.34016e+06
19524.2
2.28202e+06
6.95349e+06
10827.4
2.42733e+06
6.57952e+06
16474.9
2.32607e+06
6.19154e+06
28976.2
2.092e+06
5.72636e+06
60328.6
1.93911e+06
4.97304e+06
368447
2.20007e+06
2.63349e+06
813722
3.36712e+06
820236
348923
1.83961e+06
-60584.2
199740
722174
-34415.2
210535
368147
549073
-150952
189893
709034
-598604
-351213
915371
-352386
-450040
1.32823e+06
87589.3
-727760
1.89559e+06
125052
-715710
2.45451e+06
103840
-708761
3.01458e+06
76852.7
-844784
3.6137e+06
2096.56
-1.05904e+06
4.21402e+06
5185.24
-1.29181e+06
4.74529e+06
-24580.4
-1.57688e+06
5.26602e+06
-43050.3
-1.8583e+06
5.70758e+06
-46977.2
-2.09872e+06
6.01474e+06
-57588.6
-2.27807e+06
6.25838e+06
-45503.2
-2.36549e+06
6.27001e+06
27112.3
-2.45234e+06
99473.5
-2.74568e+06
9.99957e+06
16851.1
9.99647e+06
49873.2
9.99014e+06
83659.8
9.98053e+06
118113
9.96767e+06
153110
9.95147e+06
189620
9.93182e+06
227069
9.90777e+06
266313
9.87912e+06
306920
9.84572e+06
349446
9.80677e+06
393897
9.76248e+06
440450
9.71296e+06
489296
9.65838e+06
540688
9.59937e+06
594378
9.53653e+06
650557
9.47067e+06
708587
9.4024e+06
768307
9.33022e+06
829195
9.25219e+06
891221
9.16597e+06
959622
9.06911e+06
1.04044e+06
8.94315e+06
1.15198e+06
8.76914e+06
1.26768e+06
8.54523e+06
1.41638e+06
8.28371e+06
1.60728e+06
7.98478e+06
1.82222e+06
7.68782e+06
2.04712e+06
7.39549e+06
2.24915e+06
7.06604e+06
2.39216e+06
6.69147e+06
2.3703e+06
6.32114e+06
2.14056e+06
5.93907e+06
1.92576e+06
5.76329e+06
2.0303e+06
6.05621e+06
2.792e+06
5.083e+06
2.83475e+06
3.83011e+06
2.2241e+06
2.84653e+06
1.65763e+06
1.84927e+06
1.14324e+06
108662
654830
-880494
914693
-653315
779804
-151363
185533
412953
-363524
1.01947e+06
-430156
1.53156e+06
-497878
2.08639e+06
-737223
2.68087e+06
-992385
3.33891e+06
-1.22448e+06
3.97355e+06
-1.44228e+06
4.51313e+06
-1.61583e+06
5.00937e+06
-1.7443e+06
5.56477e+06
-1.79201e+06
-2.09168e+06
9.99927e+06
249.091
18453.5
9.99691e+06
204.229
54585.9
9.99137e+06
323.215
91588.5
9.98279e+06
368.818
129348
9.97113e+06
477.592
167756
9.95623e+06
629.174
207833
9.93781e+06
744.738
249048
9.91561e+06
788.533
292181
9.88887e+06
761.005
337247
9.85745e+06
683.381
384254
9.82113e+06
593.912
433391
9.77941e+06
540.293
485349
9.73251e+06
557.571
539654
9.6809e+06
650.823
596308
9.62445e+06
787.969
655473
9.56378e+06
947.282
716498
9.49908e+06
1093.84
779156
9.43147e+06
1253.18
842693
9.362e+06
1397.34
906926
9.29106e+06
1575.64
972858
9.21936e+06
1857.72
1.04348e+06
9.14809e+06
2869.65
1.12941e+06
9.06494e+06
3661.62
1.24016e+06
8.9448e+06
9804.21
1.39161e+06
8.78449e+06
1750.32
1.59915e+06
8.61172e+06
-7932.17
1.82007e+06
8.39411e+06
-6221.46
2.04921e+06
8.10184e+06
5583.87
2.32513e+06
7.7815e+06
16465.8
2.5696e+06
7.41679e+06
24599.1
2.75466e+06
6.95526e+06
32078.7
2.74972e+06
6.44331e+06
31294.4
2.56903e+06
5.98785e+06
41836.8
2.35123e+06
5.8638e+06
71691.4
2.24757e+06
5.84664e+06
312939
3.07056e+06
4.5571e+06
221373
2.919e+06
3.25678e+06
28510.7
2.0415e+06
2.63713e+06
-110337
1.18374e+06
2.61346e+06
-211744
527166
2.7696e+06
-399307
-27428.4
3.32868e+06
-592470
-375791
3.78343e+06
-530097
-647087
4.18072e+06
-292464
-853050
4.54069e+06
-62526.6
-1.05642e+06
4.92827e+06
35830.4
-1.28819e+06
5.35097e+06
64233.1
-1.5169e+06
5.76476e+06
89377
-1.72431e+06
6.12375e+06
69210.9
-1.93869e+06
6.41187e+06
18759.1
-2.15095e+06
6.59955e+06
-30352.7
-2.31949e+06
6.67603e+06
-38922.4
-2.39022e+06
6.68168e+06
-41395.5
-2.41617e+06
6.52803e+06
2895.19
-2.32699e+06
145152
-2.56796e+06
9.99965e+06
18446.8
9.99691e+06
54578.1
9.99121e+06
91572.7
9.98248e+06
129332
9.97074e+06
167746
9.95588e+06
207828
9.93758e+06
249041
9.91549e+06
292162
9.88881e+06
337211
9.85739e+06
384195
9.82103e+06
433307
9.77925e+06
485236
9.7323e+06
539511
9.68064e+06
596131
9.62416e+06
655262
9.56348e+06
716244
9.49878e+06
778818
9.43113e+06
842183
9.36156e+06
906104
9.29054e+06
971637
9.21927e+06
1.04253e+06
9.147e+06
1.12698e+06
9.07466e+06
1.24059e+06
8.97645e+06
1.38763e+06
8.8145e+06
1.58672e+06
8.59647e+06
1.81725e+06
8.30714e+06
2.09898e+06
8.00738e+06
2.34505e+06
7.72842e+06
2.5374e+06
7.45039e+06
2.68801e+06
7.10346e+06
2.74441e+06
6.65073e+06
2.62103e+06
6.18609e+06
2.42885e+06
5.93161e+06
2.35526e+06
6.36719e+06
2.67348e+06
6.59333e+06
2.84861e+06
6.29924e+06
2.58064e+06
5.80259e+06
2.0886e+06
5.21574e+06
1.56676e+06
4.41258e+06
1.10007e+06
3.9392e+06
830073
3.70087e+06
496606
3.51987e+06
48062.3
3.39623e+06
-344285
3.63996e+06
-659301
4.14889e+06
-914834
4.73209e+06
-1.17608e+06
5.31037e+06
-1.45744e+06
5.81729e+06
-1.70714e+06
6.18179e+06
-1.8839e+06
6.42892e+06
-1.96237e+06
6.60308e+06
-2.02276e+06
6.76817e+06
-2.00101e+06
-2.57837e+06
9.99937e+06
242.316
19881.8
9.99742e+06
199.391
58828.2
9.99259e+06
310.886
98722
9.98501e+06
351.552
139468
9.97463e+06
452.619
180980
9.96125e+06
593.9
224334
9.94463e+06
700.101
269022
9.92436e+06
738.272
315875
9.89998e+06
710.696
364957
9.87106e+06
638.258
416298
9.83725e+06
556.426
470117
9.79843e+06
504.871
526998
9.75444e+06
512.39
586617
9.70513e+06
574.687
648880
9.65084e+06
659.675
713358
9.59149e+06
724.5
779572
9.52789e+06
749.591
846500
9.46115e+06
792.169
913200
9.39393e+06
880.533
978469
9.33015e+06
1068.5
1.04223e+06
9.27545e+06
1493.36
1.10645e+06
9.23366e+06
1695.2
1.18207e+06
9.20025e+06
2664.5
1.28486e+06
9.15745e+06
11116.3
1.44038e+06
9.06149e+06
18474.9
1.68552e+06
8.90041e+06
13141
1.96944e+06
8.67035e+06
1117.79
2.27165e+06
8.44036e+06
-7254.84
2.55123e+06
8.2155e+06
-2330.94
2.78474e+06
7.9727e+06
10753.5
2.97592e+06
7.62173e+06
16077.4
3.07458e+06
7.10832e+06
23247.1
3.05313e+06
6.54496e+06
39441.9
2.87108e+06
6.13135e+06
1856.45
2.66524e+06
6.36903e+06
65857.6
2.79181e+06
6.41474e+06
84413.7
2.83787e+06
6.06607e+06
21884.4
2.44203e+06
5.65275e+06
-70502.7
1.76565e+06
5.40535e+06
-164213
1.05498e+06
5.33449e+06
-246910
407621
5.47525e+06
-308773
-122635
5.69074e+06
-305663
-541676
5.90598e+06
-243206
-884248
6.10514e+06
-184084
-1.15804e+06
6.28768e+06
-139947
-1.40084e+06
6.4826e+06
-113383
-1.61139e+06
6.69292e+06
-97199.6
-1.79133e+06
6.87489e+06
-94492.5
-1.95662e+06
6.98495e+06
-103598
-2.11326e+06
7.01264e+06
-111881
-2.24433e+06
6.96169e+06
-101438
-2.29369e+06
6.8965e+06
-89699.8
-2.28767e+06
6.67107e+06
-73877.5
-2.09015e+06
181598
-2.43198e+06
9.99973e+06
19880.7
9.99741e+06
58824.7
9.99243e+06
98704
9.98471e+06
139450
9.97425e+06
180974
9.96091e+06
224337
9.94439e+06
269024
9.92423e+06
315865
9.89991e+06
364925
9.87099e+06
416238
9.83713e+06
470028
9.79826e+06
526882
9.75421e+06
586475
9.70484e+06
648712
9.65047e+06
713168
9.59107e+06
779353
9.52741e+06
846222
9.46064e+06
912818
9.39344e+06
977877
9.32954e+06
1.0414e+06
9.27407e+06
1.10626e+06
9.23074e+06
1.18091e+06
9.20148e+06
1.28392e+06
9.17411e+06
1.43661e+06
9.10737e+06
1.67851e+06
8.95246e+06
1.98433e+06
8.73163e+06
2.31456e+06
8.46838e+06
2.59373e+06
8.19309e+06
2.80464e+06
7.92431e+06
2.96314e+06
7.62699e+06
3.05461e+06
7.22863e+06
3.04013e+06
6.75155e+06
2.9456e+06
6.29596e+06
2.8215e+06
6.27889e+06
2.77897e+06
6.53835e+06
2.70914e+06
6.73865e+06
2.45103e+06
6.78356e+06
2.03105e+06
6.70876e+06
1.53905e+06
6.58952e+06
1.03409e+06
6.57549e+06
574445
6.61285e+06
148661
6.61936e+06
-245959
6.63268e+06
-600324
6.7078e+06
-911689
6.85055e+06
-1.16941e+06
7.01111e+06
-1.40046e+06
7.12459e+06
-1.62609e+06
7.16705e+06
-1.83834e+06
7.16233e+06
-2.01685e+06
7.2094e+06
-2.15499e+06
7.3759e+06
-2.32609e+06
7.7539e+06
-2.43743e+06
-3.35912e+06
9.99947e+06
240.255
21148
9.99798e+06
199.199
62568.4
9.99396e+06
311.562
105002
9.9875e+06
349.525
148394
9.97855e+06
443.494
192675
9.96692e+06
575.026
238968
9.95212e+06
672.329
287012
9.93415e+06
705.114
337089
9.91257e+06
676.791
389680
9.8865e+06
607.877
445312
9.85551e+06
530.828
503826
9.81967e+06
479.385
565443
9.77841e+06
477.11
630531
9.73175e+06
518.117
698360
9.67902e+06
573.266
769065
9.62047e+06
603.005
841107
9.55639e+06
583.199
913377
9.48858e+06
581.581
983668
9.42073e+06
548.611
1.04909e+06
9.35979e+06
904.759
1.10717e+06
9.31645e+06
1346.95
1.15584e+06
9.29911e+06
3706.4
1.20567e+06
9.31731e+06
3862.72
1.27388e+06
9.37468e+06
6614.04
1.39222e+06
9.37349e+06
16532.6
1.68525e+06
9.23187e+06
15574.9
2.09899e+06
8.99674e+06
3975.48
2.50165e+06
8.74596e+06
-4260.66
2.80754e+06
8.50569e+06
-4671.19
3.03552e+06
8.27096e+06
-1257.82
3.2191e+06
8.00478e+06
-764.06
3.34802e+06
7.66055e+06
-594.506
3.40269e+06
7.18755e+06
-1175.44
3.35159e+06
6.67199e+06
-8370.3
3.20556e+06
6.47171e+06
5201.84
3.01967e+06
6.53254e+06
20834.1
2.80358e+06
6.58385e+06
15208.3
2.43546e+06
6.53899e+06
-21619.3
1.89949e+06
6.47362e+06
-77869.1
1.2717e+06
6.45965e+06
-135814
627460
6.52288e+06
-179107
39508.8
6.61512e+06
-198030
-439798
6.70747e+06
-189314
-832364
6.80204e+06
-180126
-1.14223e+06
6.88012e+06
-160865
-1.37918e+06
6.95648e+06
-147903
-1.5662e+06
7.03908e+06
-132889
-1.72137e+06
7.11948e+06
-120811
-1.86274e+06
7.15673e+06
-114305
-1.99206e+06
7.13781e+06
-106871
-2.09287e+06
7.14225e+06
-103680
-2.1663e+06
7.22097e+06
-95204
-2.24082e+06
7.56669e+06
-76751
-2.23893e+06
90432.6
-2.77235e+06
9.99983e+06
21141.6
9.99798e+06
62559.4
9.9938e+06
104985
9.9872e+06
148376
9.97817e+06
192662
9.96657e+06
238958
9.95187e+06
286997
9.934e+06
337063
9.91248e+06
389635
9.8864e+06
445243
9.85538e+06
503729
9.81948e+06
565314
9.77816e+06
630360
9.73143e+06
698143
9.67862e+06
768797
9.61997e+06
840785
9.55577e+06
913010
9.4879e+06
983210
9.41988e+06
1.04865e+06
9.359e+06
1.1066e+06
9.3157e+06
1.1565e+06
9.30542e+06
1.20428e+06
9.33312e+06
1.27067e+06
9.39045e+06
1.39939e+06
9.39243e+06
1.69869e+06
9.26182e+06
2.13167e+06
9.05276e+06
2.52846e+06
8.81907e+06
2.82741e+06
8.56994e+06
3.05674e+06
8.30397e+06
3.23697e+06
8.01278e+06
3.35362e+06
7.66639e+06
3.39357e+06
7.25596e+06
3.3643e+06
6.81979e+06
3.26549e+06
6.52664e+06
3.10134e+06
6.44231e+06
2.8468e+06
6.48353e+06
2.46208e+06
6.5622e+06
1.97044e+06
6.64236e+06
1.42074e+06
6.7194e+06
853611
6.80297e+06
322724
6.87702e+06
-141901
6.9316e+06
-530560
6.95913e+06
-852235
6.97269e+06
-1.11959e+06
6.98227e+06
-1.33927e+06
7.00828e+06
-1.54378e+06
7.07394e+06
-1.77861e+06
7.20433e+06
-2.05295e+06
7.4626e+06
-2.35848e+06
7.94362e+06
-2.71766e+06
8.71241e+06
-3.11405e+06
9.80197e+06
-3.56021e+06
-4.39878e+06
9.9996e+06
233.885
22199.7
9.99862e+06
192.874
65729.4
9.99548e+06
296.785
110318
9.99028e+06
328.728
155959
9.98273e+06
414.576
202817
9.97323e+06
536.691
251275
9.96092e+06
626.673
302298
9.94559e+06
656.492
355439
9.92656e+06
629.464
411640
9.90373e+06
564.725
470873