/*--------------------------------*- C++ -*----------------------------------*\
| =========                 |                                                 |
| \\      /  F ield         | OpenFOAM: The Open Source CFD Toolbox           |
|  \\    /   O peration     | Version:  4.1                                   |
|   \\  /    A nd           | Web:      www.OpenFOAM.org                      |
|    \\/     M anipulation  |                                                 |
\*---------------------------------------------------------------------------*/
FoamFile
{
    version     2.0;
    format      ascii;
    class       volVectorField;
    location    "47";
    object      U;
}
// * * * * * * * * * * * * * * * * * * * * * * * * * * * * * * * * * * * * * //

dimensions      [0 1 -1 0 0 0 0];

internalField   nonuniform List<vector> 
4432
(
(39.9817 0.000443455 0.0510126)
(39.9168 0.00071532 0.0918067)
(39.8244 0.00188407 0.122418)
(39.6985 0.00220884 0.15235)
(39.5277 0.00178372 0.183224)
(39.315 0.00130659 0.215048)
(39.0664 0.00110311 0.247916)
(38.7827 0.00119548 0.281294)
(38.46 0.00150598 0.315401)
(38.0934 0.00187479 0.35011)
(37.6792 0.00222766 0.384193)
(37.2168 0.00254099 0.418703)
(36.7113 0.0027623 0.447945)
(36.1809 0.00306452 0.471335)
(35.6431 0.0017358 0.468651)
(35.2117 -0.00338971 0.417466)
(34.8659 9.79451e-05 0.458921)
(34.7552 0.00517949 0.358739)
(34.8793 0.00605427 0.256969)
(34.9072 0.00838676 0.37786)
(34.7114 0.00228521 0.466759)
(34.3714 -0.00879944 0.597406)
(33.9019 -0.0218892 0.689848)
(33.3369 -0.0313873 0.707869)
(32.6726 -0.0368467 0.726857)
(31.9413 -0.04239 0.634344)
(31.2394 -0.039999 0.456429)
(30.6052 -0.0248431 0.252508)
(30.0973 -0.00922238 0.163173)
(29.7083 -0.00998605 0.161026)
(29.4245 -0.0233885 0.250673)
(29.1848 -0.0414865 0.417102)
(28.9905 -0.0469941 0.369981)
(29.0054 -0.0114012 -0.131448)
(29.3225 0.0433608 -0.977096)
(29.8642 0.0749578 -1.39364)
(30.6843 0.0821149 -1.23301)
(31.245 -0.0724164 -1.18579)
(31.3666 -0.0688854 -1.01762)
(31.5862 0.0816289 -0.709378)
(32.0479 0.166135 -0.566458)
(32.4149 0.167096 -0.585536)
(32.7051 0.0812658 -0.539305)
(32.7962 0.0275336 -0.487709)
(32.9464 0.0474877 -0.469165)
(32.9021 0.187698 -0.593812)
(32.8894 0.232754 -0.415187)
(33.6184 -0.0758968 -0.584424)
(33.791 -0.150581 -0.883663)
(33.3768 -0.31679 -1.18498)
(33.7062 -0.0640568 -0.947884)
(35.6569 -0.0576317 -2.21737)
(38.4808 -0.164408 -4.02107)
(43.5579 -0.0313379 -2.41375)
(39.9825 0.000443499 0.0510072)
(39.9176 0.000715287 0.0918428)
(39.8248 0.00188352 0.122502)
(39.6972 0.00221028 0.152316)
(39.5256 0.00178647 0.182995)
(39.3133 0.00130953 0.214751)
(39.0652 0.00110331 0.247536)
(38.7819 0.00119296 0.280999)
(38.4591 0.00149965 0.315435)
(38.092 0.00186533 0.350502)
(37.6766 0.00221725 0.385382)
(37.213 0.00253199 0.42032)
(36.7065 0.00275479 0.451008)
(36.1713 0.00306267 0.473867)
(35.634 0.00173143 0.478034)
(35.1557 -0.00336489 0.429035)
(34.8099 0.000135202 0.40496)
(34.7468 0.00509654 0.308132)
(34.8727 0.00624754 0.244883)
(34.9303 0.00835636 0.385255)
(34.7383 0.00217407 0.450449)
(34.3951 -0.00870335 0.513246)
(33.9363 -0.0217981 0.572876)
(33.3753 -0.0319614 0.590776)
(32.6987 -0.0377767 0.610348)
(31.9364 -0.0436455 0.503475)
(31.1851 -0.0429795 0.337661)
(30.5224 -0.0295059 0.217737)
(29.9677 -0.0150154 0.128518)
(29.534 -0.0165657 -0.0136605)
(29.3123 -0.030103 -0.20698)
(29.2751 -0.053736 -0.308418)
(29.2822 -0.0642996 -0.250479)
(29.3722 -0.0330195 -0.201485)
(29.6945 0.0333443 -0.53005)
(30.1942 0.0858832 -0.849991)
(30.8202 0.101826 -0.745773)
(31.3115 -0.046764 -0.663497)
(31.7577 -0.0971119 -0.51512)
(32.0657 0.0292865 -0.399519)
(32.3664 0.153309 -0.295643)
(32.597 0.195512 -0.298676)
(32.8777 0.116198 -0.224798)
(33.036 0.0625509 -0.195824)
(33.4137 0.0879381 -0.280256)
(33.3915 0.223764 -0.634728)
(32.8659 0.293309 -0.511846)
(33.6121 -0.0358437 -0.383043)
(33.8974 -0.125551 -0.529494)
(33.7541 -0.245315 -0.678577)
(34.2918 0.00227336 -1.11962)
(35.7397 0.00529943 -1.91984)
(38.4502 -0.111144 -3.87819)
(44.1763 -0.0241009 -2.33118)
(40.0091 0.000447768 0.0190833)
(40.0363 0.000665102 0.0586772)
(40.0749 0.00182449 0.100424)
(40.1158 0.00215593 0.142362)
(40.148 0.00172536 0.184173)
(40.1739 0.00122765 0.226451)
(40.199 0.00103814 0.269605)
(40.2241 0.00124684 0.314108)
(40.2469 0.00180275 0.36068)
(40.2644 0.00258393 0.409936)
(40.2742 0.00344632 0.462058)
(40.2726 0.00422331 0.515729)
(40.2573 0.00504797 0.568197)
(40.2109 0.00556027 0.609242)
(40.1402 0.0103866 0.636508)
(39.8696 0.0113975 0.637471)
(39.5996 0.0110664 0.492835)
(38.8881 0.0125308 0.406164)
(37.892 0.00196287 0.415063)
(37.0579 -0.00212845 0.438497)
(36.3361 0.000471417 0.502333)
(35.6932 0.00364578 0.610976)
(35.1377 0.0071806 0.740016)
(34.595 0.011281 0.886575)
(34.0584 0.0141236 1.00893)
(33.5221 0.0171845 1.05279)
(32.9702 0.0214507 1.03128)
(32.3781 0.0336607 0.986276)
(31.6529 0.0570296 0.905482)
(30.8757 0.065822 0.765895)
(30.1233 0.0639087 0.570866)
(29.4344 0.0600685 0.394857)
(29.0364 0.0546178 0.17042)
(29.0097 0.0498132 -0.084925)
(29.3566 0.0385108 -0.190072)
(29.8617 0.0100041 -0.113457)
(30.3732 -0.0503581 0.179671)
(30.7062 -0.0775932 0.272483)
(30.9321 -0.0285497 0.327772)
(31.1985 0.00791816 0.291606)
(31.5372 -0.0309174 0.134656)
(31.7482 -0.137024 0.0436618)
(31.8509 -0.234231 0.0255527)
(31.7083 -0.290123 -0.0433242)
(31.6027 -0.356224 -0.105822)
(31.5523 -0.39306 -0.403144)
(31.3757 -0.437593 -0.213868)
(31.8533 -0.471846 -0.585783)
(31.7649 -0.481146 -1.27972)
(31.8901 -0.555332 -1.69616)
(31.7215 -0.441711 -1.52715)
(29.7112 0.0836267 -3.39767)
(36.6341 0.262242 -5.98697)
(39.2746 0.0609088 -9.05955)
(40.0098 0.000447771 0.0190646)
(40.0371 0.000665144 0.0586807)
(40.0753 0.00182452 0.100364)
(40.1144 0.00215598 0.142192)
(40.1455 0.00172546 0.183916)
(40.1716 0.00122774 0.226172)
(40.1973 0.00103844 0.269437)
(40.2232 0.00124663 0.314209)
(40.2469 0.00180196 0.36127)
(40.2652 0.00258583 0.411078)
(40.2757 0.00343715 0.463886)
(40.275 0.004233 0.518239)
(40.2596 0.00501948 0.570788)
(40.2191 0.00566645 0.613985)
(40.1406 0.00992093 0.63343)
(39.9665 0.0115464 0.604565)
(39.6588 0.011957 0.503635)
(38.9195 0.0130394 0.393591)
(37.9085 0.00208736 0.393834)
(37.0499 -0.00189616 0.424656)
(36.349 0.000635373 0.479898)
(35.7139 0.00385137 0.579503)
(35.1623 0.00749081 0.691706)
(34.6347 0.0119356 0.817085)
(34.117 0.015069 0.929147)
(33.6194 0.0189732 0.970602)
(33.1089 0.0258219 0.982217)
(32.5418 0.0382793 0.98124)
(31.923 0.0561606 0.90033)
(31.3262 0.0725327 0.705506)
(30.6531 0.0833437 0.481814)
(29.8966 0.094465 0.290942)
(29.3739 0.0856442 0.0679203)
(29.2957 0.0739902 -0.154472)
(29.6186 0.0495491 -0.275489)
(30.1158 0.0345583 -0.252459)
(30.772 -0.0430095 -0.0487019)
(31.2394 -0.0901469 0.100684)
(31.5131 -0.0636543 0.145909)
(31.6825 -0.0538081 0.0221588)
(32.0167 0.00211671 -0.0370126)
(32.2608 -0.0497722 -0.0327502)
(32.447 -0.141447 0.0511874)
(32.399 -0.205322 0.0439286)
(32.3716 -0.296237 -0.0833926)
(32.4457 -0.347668 -0.563648)
(32.3169 -0.387638 -0.530893)
(32.7735 -0.437048 -0.545393)
(32.8168 -0.410817 -0.819814)
(32.6712 -0.500403 -1.8449)
(32.181 -0.262077 -1.43461)
(31.7624 0.101943 -3.11447)
(37.6335 0.237556 -4.44214)
(41.0589 -0.0559176 -7.48708)
(40.0001 0.000438961 0.0262694)
(39.9896 0.000652985 0.0755278)
(39.9701 0.00179037 0.121919)
(39.9365 0.00209918 0.166537)
(39.8795 0.00167061 0.210829)
(39.8022 0.00121405 0.256086)
(39.7111 0.00110975 0.303051)
(39.6082 0.00144725 0.352307)
(39.4922 0.00216205 0.404457)
(39.361 0.00311711 0.459843)
(39.2128 0.00410908 0.518461)
(39.0466 0.00503429 0.579753)
(38.86 0.00558876 0.642551)
(38.6548 0.00640661 0.705369)
(38.4125 0.00624113 0.76857)
(38.1794 0.00855176 0.840098)
(37.8506 0.00811564 0.872521)
(37.4288 0.00767881 0.97016)
(37.0721 0.00233617 1.119)
(36.6619 0.00164956 1.2288)
(36.1749 0.0029951 1.28539)
(35.6591 0.0051654 1.32276)
(35.1572 0.00850472 1.38279)
(34.6525 0.01425 1.46434)
(34.1401 0.0182735 1.54523)
(33.6172 0.0249715 1.56718)
(33.0413 0.0382802 1.54341)
(32.3549 0.057563 1.55987)
(31.4712 0.0738708 1.5161)
(30.4226 0.0623345 1.44655)
(29.2359 0.0487166 1.4003)
(28.0998 0.0676202 1.17049)
(27.3533 0.127639 0.637531)
(26.8993 0.230883 -0.185571)
(27.086 0.284879 -1.40017)
(28.0696 0.052712 -1.29942)
(28.5644 -0.228299 -0.644656)
(28.763 -0.374033 -0.074471)
(28.6754 -0.431536 0.287556)
(28.8137 -0.222861 -0.0912123)
(29.026 -0.13641 -0.366291)
(29.2039 -0.218418 -0.231804)
(29.228 -0.294437 -0.186377)
(29.2094 -0.346994 -0.352176)
(29.1672 -0.388075 -0.468494)
(29.2671 -0.375383 -0.628243)
(29.0276 -0.389347 -0.625737)
(29.2395 -0.338418 -0.991537)
(29.334 -0.348642 -1.56269)
(29.9828 -0.344827 -2.65268)
(31.9091 -0.225327 -2.59158)
(33.651 -0.279481 -2.51227)
(33.4224 0.575195 -6.8987)
(24.1287 1.36941 -12.695)
(40.0009 0.000438963 0.0262538)
(39.9904 0.000653032 0.0755107)
(39.9705 0.00179039 0.121855)
(39.9351 0.00209921 0.166442)
(39.8772 0.00167064 0.210737)
(39.8003 0.00121409 0.256026)
(39.7099 0.00110975 0.303055)
(39.6078 0.00144742 0.352405)
(39.4924 0.00216252 0.404684)
(39.3615 0.00311784 0.460205)
(39.2132 0.00410971 0.518961)
(39.0466 0.00503588 0.580301)
(38.8604 0.00559305 0.642994)
(38.6533 0.00640945 0.705025)
(38.4188 0.0062389 0.765216)
(38.1561 0.00852474 0.829181)
(37.8541 0.00716495 0.896989)
(37.4494 0.00819709 0.976709)
(37.0732 0.0025518 1.10851)
(36.6708 0.00176345 1.21082)
(36.1914 0.00315338 1.26168)
(35.6843 0.00538963 1.29011)
(35.1946 0.00888199 1.33652)
(34.6977 0.0152377 1.42612)
(34.1844 0.0198793 1.51118)
(33.6709 0.0274816 1.53797)
(33.1112 0.042707 1.55292)
(32.4664 0.0634638 1.59951)
(31.7018 0.0810004 1.59331)
(30.7542 0.0789386 1.50109)
(29.4748 0.0634222 1.47714)
(28.2986 0.0775857 1.28083)
(27.5894 0.148061 0.725709)
(27.4731 0.224084 -0.010983)
(27.8653 0.199188 -0.682768)
(28.6621 0.0711159 -0.890717)
(29.3138 -0.140449 -0.660603)
(29.5975 -0.326496 -0.480377)
(29.7106 -0.42958 -0.472964)
(29.8995 -0.362862 -0.763663)
(30.1904 -0.201185 -0.768446)
(30.2292 -0.18462 -0.714512)
(30.2537 -0.251611 -0.690856)
(30.0488 -0.262198 -0.801649)
(29.9657 -0.321519 -0.871296)
(30.0383 -0.314463 -1.03133)
(29.9786 -0.345762 -1.18746)
(30.2365 -0.296803 -1.41455)
(29.8953 -0.3198 -2.14539)
(30.778 -0.215499 -3.12836)
(31.9567 -0.205404 -3.03443)
(33.6192 -0.274246 -2.94979)
(35.9548 0.527733 -2.8572)
(28.3157 1.38593 -11.7591)
(39.9998 0.000432803 0.0334055)
(39.9886 0.000648731 0.0985781)
(39.9694 0.00176177 0.164598)
(39.9375 0.00205694 0.231931)
(39.8821 0.0016199 0.30098)
(39.8052 0.0011475 0.372321)
(39.7124 0.00101899 0.446164)
(39.6048 0.00132898 0.522592)
(39.4802 0.00202214 0.601693)
(39.3352 0.00295865 0.683432)
(39.1665 0.00395335 0.767646)
(38.9719 0.00483611 0.854234)
(38.749 0.00541158 0.942996)
(38.4966 0.00573026 1.03527)
(38.2109 0.0054498 1.13399)
(37.9016 0.00654067 1.24222)
(37.5603 0.0049701 1.39607)
(37.0865 0.00374549 1.45754)
(36.7128 0.00172222 1.48923)
(36.3661 0.00247759 1.56828)
(35.9726 0.00395069 1.66847)
(35.5484 0.00444807 1.74881)
(35.0915 0.00488559 1.83817)
(34.5752 0.00739152 1.95084)
(34.0215 0.00779703 2.07837)
(33.4289 0.0110822 2.15582)
(32.7194 0.0228055 2.24028)
(31.832 0.033074 2.46933)
(30.6772 0.0303476 2.75113)
(29.1056 0.0268756 2.95513)
(27.4283 0.0315271 2.9032)
(26.1573 0.0513674 2.28628)
(25.2965 0.101107 1.16474)
(24.8845 0.182827 -0.589445)
(25.5158 0.175189 -2.33943)
(26.379 -0.130543 -1.60087)
(26.642 -0.496551 -0.215132)
(26.5698 -0.84219 0.384553)
(26.1031 -0.686997 0.912915)
(26.2461 -0.213223 0.037543)
(26.3276 -0.119425 -0.241318)
(26.5754 -0.247458 0.262599)
(26.4734 -0.339176 0.588715)
(26.3511 -0.346478 0.394127)
(26.3572 -0.279173 0.0950279)
(26.2326 -0.258233 0.0128222)
(26.0239 -0.345885 -0.56351)
(25.7805 -0.185137 -0.909532)
(26.0371 -0.213092 -1.56094)
(25.7392 -0.205298 -2.77061)
(26.8639 -0.155354 -4.31899)
(27.2435 -0.385056 -5.28574)
(29.4308 0.138341 -4.75544)
(19.5553 2.27793 -5.6387)
(40.0006 0.000432805 0.0333971)
(39.9893 0.000648778 0.0985693)
(39.9698 0.00176179 0.164565)
(39.9361 0.00205696 0.231882)
(39.8799 0.00161994 0.300928)
(39.8033 0.00114754 0.372261)
(39.7112 0.00101904 0.446084)
(39.6044 0.00132911 0.522481)
(39.4804 0.00202251 0.601547)
(39.3357 0.00295933 0.683243)
(39.1669 0.0039547 0.767428)
(38.9718 0.00483783 0.85394)
(38.7484 0.00541311 0.942687)
(38.4946 0.00573595 1.03441)
(38.2112 0.00543867 1.13278)
(37.8958 0.00662611 1.24023)
(37.5786 0.00484023 1.38882)
(37.113 0.00382253 1.48863)
(36.7202 0.00168672 1.49371)
(36.3787 0.00249969 1.55109)
(35.9882 0.00417828 1.64133)
(35.5652 0.0048619 1.71419)
(35.0961 0.0052238 1.80124)
(34.5723 0.00707862 1.95207)
(34.0326 0.00746723 2.08041)
(33.4399 0.0109585 2.17301)
(32.7131 0.0249409 2.34262)
(31.8105 0.0366776 2.63543)
(30.6744 0.0331514 2.94952)
(29.1279 0.0297541 3.16296)
(27.5183 0.032425 3.05563)
(26.3229 0.0497984 2.48961)
(25.4964 0.0983094 1.59843)
(25.0478 0.200128 0.272373)
(25.6884 0.20319 -1.48462)
(26.8419 -0.115952 -1.83286)
(27.6113 -0.472025 -1.46951)
(27.8403 -0.929965 -1.06607)
(27.5994 -1.15549 -0.506103)
(27.654 -0.962208 -0.876801)
(27.4487 -0.27262 -0.838362)
(27.4904 -0.23394 -0.599222)
(27.3035 -0.230023 -0.455998)
(27.1018 -0.259043 -0.700164)
(27.3244 -0.199769 -0.96817)
(27.0146 -0.156598 -1.06295)
(27.1358 -0.161605 -1.52534)
(26.933 -0.0297095 -1.96648)
(26.9228 -0.0796932 -2.49861)
(26.401 -0.0496652 -3.56059)
(26.8237 -0.0620313 -4.72158)
(26.9822 -0.109826 -5.17167)
(29.5459 -0.439799 -4.70314)
(25.3879 2.46633 -7.34954)
(39.9999 0.000430723 0.0413428)
(39.9889 0.000648063 0.122686)
(39.9703 0.00176128 0.205546)
(39.9393 0.00204954 0.289357)
(39.8852 0.00161006 0.37422)
(39.8104 0.00113733 0.46112)
(39.7204 0.0010065 0.550744)
(39.6166 0.00131071 0.643597)
(39.4967 0.00199386 0.740135)
(39.3574 0.00291368 0.840717)
(39.1954 0.00388776 0.945616)
(39.0082 0.00474676 1.05515)
(38.7942 0.00528647 1.16995)
(38.5517 0.00553712 1.29116)
(38.2826 0.00530935 1.42252)
(37.9846 0.00526129 1.56806)
(37.6864 0.00521448 1.73411)
(37.3171 0.00886038 1.872)
(36.7888 0.00556472 1.93908)
(36.3705 0.00367873 1.97773)
(35.9497 0.00576338 2.05884)
(35.5028 0.00574704 2.16517)
(35.0134 0.00210167 2.35046)
(34.4305 -0.00096609 2.53976)
(33.783 -0.00731151 2.72702)
(33.0437 -0.00865337 2.8971)
(32.099 0.00235369 3.14313)
(30.9725 0.011238 3.65845)
(29.5977 0.00750486 4.29774)
(27.968 0.0098884 4.6485)
(26.4478 0.0258482 4.30521)
(25.2207 0.0607717 3.25489)
(24.2029 0.126752 1.54545)
(23.5602 0.250701 -1.01217)
(24.0298 0.362369 -3.29186)
(23.2134 -0.0927398 -2.10051)
(23.5962 -0.785634 1.56074)
(23.6914 -1.22593 2.68878)
(23.6924 -1.31847 2.80372)
(23.3244 -0.2922 0.659317)
(22.8162 -0.0643133 -0.0403412)
(23.2577 -0.320085 0.747602)
(22.9876 -0.387726 0.930115)
(23.0952 -0.325522 0.473739)
(23.1279 -0.21611 -0.0227008)
(22.7458 -0.0618251 -0.349499)
(22.8849 0.241526 -1.04867)
(22.6602 0.297141 -1.58894)
(23.6251 -0.0963746 -2.18062)
(21.9916 0.0385101 -2.1974)
(20.3181 0.0461946 -2.33527)
(16.9848 1.33486 -3.83851)
(22.127 0.1551 -2.93852)
(17.2176 -0.342322 -1.38915)
(40.0006 0.000430724 0.0413308)
(39.9896 0.000648109 0.122677)
(39.9707 0.0017613 0.205508)
(39.9379 0.00204957 0.289322)
(39.883 0.00161009 0.374223)
(39.8085 0.00113736 0.461163)
(39.7192 0.00100656 0.550808)
(39.6162 0.00131087 0.643648)
(39.4969 0.00199423 0.740132)
(39.3579 0.00291453 0.840616)
(39.1957 0.00388856 0.945381)
(39.0081 0.00475005 1.05477)
(38.7934 0.00529256 1.16943)
(38.5503 0.00554307 1.29056)
(38.2804 0.00533591 1.42179)
(37.9839 0.0052079 1.56723)
(37.6788 0.00530153 1.73379)
(37.3146 0.00784453 1.89559)
(36.8406 0.00518254 1.94325)
(36.4128 0.00363001 1.9675)
(35.985 0.00629124 2.04126)
(35.5231 0.00736138 2.15348)
(34.976 0.00244079 2.33168)
(34.3858 -0.00122603 2.52601)
(33.7561 -0.00759466 2.70895)
(32.9655 -0.00937949 2.92478)
(32.0128 0.00291657 3.28453)
(30.9351 0.0123533 3.83324)
(29.6247 0.00832798 4.40979)
(28.091 0.00920492 4.72268)
(26.6402 0.023387 4.39347)
(25.4782 0.0565948 3.44815)
(24.6377 0.114288 2.01283)
(24.2729 0.249921 -0.0841968)
(24.9535 0.527592 -2.4745)
(26.1025 0.266493 -3.16555)
(27.4497 0.184259 -3.14933)
(27.8108 0.156381 -2.73928)
(27.4421 -0.00231288 -2.0219)
(26.8827 0.0896229 -1.6804)
(25.1024 0.0964126 -0.874838)
(24.9402 -0.141439 -0.418419)
(24.54 -0.103851 -0.464849)
(24.6581 -0.0530725 -0.9085)
(24.7475 0.0626407 -1.3003)
(24.581 0.264684 -1.6385)
(24.3897 0.592441 -1.9915)
(23.94 0.676229 -2.28742)
(23.7009 0.568988 -2.38015)
(22.5419 0.594102 -2.85996)
(21.3174 0.751373 -3.89787)
(20.4178 1.14886 -3.89459)
(24.7221 0.0802941 -1.51967)
(19.544 0.464204 -2.22365)
(39.9999 0.000421063 0.0491761)
(39.9892 0.000644916 0.145932)
(39.9715 0.00172808 0.244637)
(39.9418 0.00202146 0.344817)
(39.8902 0.00161516 0.446822)
(39.8189 0.00117552 0.551945)
(39.7331 0.00106087 0.660961)
(39.6342 0.00135628 0.774316)
(39.5197 0.00200035 0.892361)
(39.3861 0.00284838 1.01536)
(39.2303 0.00372183 1.14356)
(39.05 0.00446862 1.27733)
(38.8441 0.0049187 1.41739)
(38.6128 0.00512473 1.56522)
(38.3567 0.00478576 1.72313)
(38.0825 0.00496327 1.89617)
(37.7916 0.00525022 2.08298)
(37.5182 0.0106159 2.29177)
(37.1039 0.0134992 2.44336)
(36.6829 0.0108156 2.51977)
(36.2115 0.0111651 2.58167)
(35.6509 0.00712893 2.69174)
(35.0586 -0.00238199 2.9206)
(34.4479 -0.0101037 3.20368)
(33.7345 -0.021456 3.51525)
(32.8596 -0.0232155 3.86315)
(31.7004 -0.00635712 4.27963)
(30.42 0.013187 4.96393)
(29.0876 0.0169516 5.74097)
(27.6291 0.0232709 6.09783)
(26.1684 0.0475705 5.62549)
(24.731 0.106655 4.39455)
(23.0479 0.238375 2.50061)
(21.495 0.617903 -0.289155)
(20.3898 1.17353 -1.9779)
(1.651 0.0543766 1.45168)
(9.16098 -0.612711 1.12126)
(8.85968 -0.571239 1.63607)
(10.3205 -1.53656 3.77064)
(13.2413 -0.590505 -0.72345)
(16.2656 -0.123209 0.138822)
(16.2795 -0.545299 2.15238)
(16.8343 -0.456078 1.80568)
(17.4013 -0.285992 0.942023)
(17.7987 -0.0769411 0.241407)
(17.2375 -0.0470859 -0.0301622)
(16.7101 0.248667 -0.262393)
(16.3749 0.311236 -0.946235)
(16.1679 0.121744 -1.61906)
(14.7222 -0.101327 -2.30059)
(13.5258 -0.274415 -2.74096)
(13.917 -0.0431607 -4.05749)
(20.0764 -0.163986 -5.84161)
(16.7207 -0.517997 -9.00874)
(40.0006 0.000421062 0.0491612)
(39.99 0.000644968 0.145922)
(39.9718 0.00172807 0.244598)
(39.9405 0.00202163 0.344794)
(39.8881 0.00161459 0.446858)
(39.817 0.00117369 0.552037)
(39.732 0.00105875 0.661076)
(39.6337 0.00135423 0.774403)
(39.5198 0.00199854 0.892361)
(39.3864 0.00284708 1.01522)
(39.2305 0.00372059 1.14322)
(39.0497 0.00446887 1.27678)
(38.8433 0.00492578 1.41674)
(38.6112 0.00512734 1.56447)
(38.3551 0.00483995 1.72285)
(38.0798 0.00481929 1.89546)
(37.7941 0.00545307 2.08393)
(37.5131 0.00962738 2.28693)
(37.1985 0.0131683 2.4193)
(36.7851 0.0103246 2.52677)
(36.2805 0.0136016 2.63528)
(35.7296 0.00921811 2.77021)
(35.0885 -0.00255771 2.95038)
(34.4167 -0.0101348 3.19503)
(33.6625 -0.0221193 3.4866)
(32.732 -0.0231469 3.86302)
(31.6291 -0.0060839 4.35535)
(30.4777 0.0118966 5.0596)
(29.2108 0.0146704 5.75975)
(27.8077 0.0204612 6.10425)
(26.4314 0.0443059 5.69154)
(25.1761 0.0995945 4.59734)
(24.0177 0.222595 2.98954)
(23.1842 0.753617 0.716776)
(24.1209 2.7383 -1.97337)
(25.2004 3.7944 -3.75116)
(25.8838 3.33207 -3.1563)
(25.1313 2.89065 -2.28427)
(23.6337 2.57894 -1.22519)
(22.8693 2.23873 -0.329985)
(20.201 0.895588 0.574826)
(20.1291 0.821415 0.659634)
(19.7052 0.856193 0.337177)
(19.8426 0.960211 -0.318348)
(19.8967 1.11241 -0.867469)
(19.6055 1.15506 -1.2126)
(19.2355 1.48425 -1.53111)
(18.7844 1.63977 -1.75699)
(18.0243 1.61083 -1.65798)
(16.739 1.49165 -1.42427)
(16.0034 1.44681 -1.1836)
(13.7245 2.00169 -2.98585)
(20.0846 1.79624 0.517141)
(11.4797 1.72929 -3.82595)
(40 0.00041619 0.0567183)
(39.9898 0.000642259 0.168295)
(39.9733 0.00172783 0.28235)
(39.9457 0.00202722 0.39841)
(39.8972 0.00163786 0.516776)
(39.8297 0.0012128 0.638758)
(39.7485 0.00109829 0.765103)
(39.6545 0.00137287 0.896255)
(39.5453 0.00197265 1.03264)
(39.4176 0.00275395 1.17465)
(39.268 0.00354588 1.32275)
(39.0947 0.00420926 1.47758)
(38.8971 0.00463671 1.64005)
(38.676 0.00482357 1.81173)
(38.4331 0.00478359 1.99408)
(38.1732 0.00495219 2.19027)
(37.8994 0.00547183 2.39832)
(37.6217 0.00751469 2.62301)
(37.3298 0.011572 2.82791)
(37.0042 0.014556 3.00625)
(36.6084 0.0134997 3.18546)
(36.1046 0.00944754 3.41998)
(35.4691 0.000566924 3.63644)
(34.7484 -0.0155039 3.93795)
(34.0081 -0.0351128 4.40651)
(33.1063 -0.0428936 4.99817)
(31.9007 -0.0100736 5.60996)
(30.528 0.0345155 6.29274)
(29.2022 0.0398274 7.05846)
(27.7983 0.0377066 7.4734)
(26.2942 0.0692803 7.12824)
(24.6108 0.145406 6.09055)
(22.2502 0.352143 4.75822)
(20.4388 1.01286 3.45184)
(0.916869 0.604417 0.705734)
(0.0232723 0.0132607 1.42135)
(0.263609 -0.490354 2.26095)
(1.19171 2.13173 -0.436405)
(1.77927 0.0964369 0.205609)
(-1.05777 -2.45707 -4.28476)
(7.89577 -1.38105 -1.67102)
(6.29243 -0.285103 -0.2127)
(5.47807 0.066613 0.520641)
(6.15757 0.0888721 0.177313)
(7.45845 -0.101113 -0.288849)
(8.30545 -0.723024 -1.05983)
(9.2379 -1.08005 -1.73239)
(11.7066 -1.03305 -3.55419)
(13.4555 -1.06092 -4.57847)
(15.4398 -1.18204 -5.62377)
(17.223 -1.2146 -6.23187)
(18.5675 -0.881333 -7.02978)
(23.6636 -0.0218849 -8.63639)
(20.7763 -0.350342 -11.1258)
(40.0007 0.00041619 0.0567013)
(39.9905 0.00064231 0.168279)
(39.9737 0.00172781 0.282294)
(39.9444 0.00202739 0.398363)
(39.8951 0.00163729 0.51678)
(39.8279 0.00121095 0.638808)
(39.7473 0.00109612 0.765162)
(39.654 0.0013707 0.896272)
(39.5453 0.00197078 1.03256)
(39.4177 0.002752 1.17444)
(39.268 0.00354592 1.32239)
(39.0943 0.00421142 1.47708)
(38.8962 0.00463988 1.63953)
(38.6746 0.00482735 1.81124)
(38.4318 0.00480086 1.99411)
(38.1719 0.0049448 2.19013)
(37.9005 0.00548782 2.39865)
(37.6242 0.00761133 2.61713)
(37.3424 0.0113538 2.82767)
(37.0262 0.0140489 3.02768)
(36.6247 0.0141151 3.23048)
(36.17 0.00923198 3.45619)
(35.5514 -0.000660409 3.6883)
(34.765 -0.0145545 3.9853)
(33.9406 -0.0358883 4.35334)
(32.9587 -0.0431818 4.92192)
(31.7497 -0.00840328 5.53216)
(30.5908 0.0297013 6.32205)
(29.3852 0.036054 7.10742)
(28.0516 0.0329771 7.51043)
(26.6443 0.0656053 7.14128)
(25.2305 0.138056 6.14744)
(23.7401 0.380282 4.86033)
(22.4474 1.61521 3.60566)
(24.604 4.71506 3.02608)
(1.04619 0.00492673 1.44923)
(6.5248 -0.257709 -0.413594)
(7.5561 1.52494 -0.541791)
(1.99111 0.990312 0.49261)
(3.67491 0.0171709 -0.443718)
(4.6006 0.864471 0.44333)
(4.9127 1.72066 1.07966)
(4.31408 1.77379 1.73795)
(5.79104 1.7649 1.66191)
(7.46822 1.778 1.2152)
(8.07753 1.58442 0.573879)
(8.82341 1.51777 -0.422579)
(9.54604 1.62154 -1.04401)
(9.28934 1.77307 -0.927587)
(8.9618 1.76403 -0.972413)
(9.33049 1.876 -1.53252)
(10.7001 2.35959 -2.98933)
(16.1788 3.59527 -4.1437)
(15.0214 2.08758 -7.26461)
(40 0.000404582 0.063858)
(39.9905 0.000633478 0.189443)
(39.9756 0.00167793 0.317939)
(39.9505 0.00197488 0.448845)
(39.9055 0.00161131 0.58246)
(39.8424 0.00120755 0.720232)
(39.7663 0.00109396 0.863024)
(39.6782 0.00134513 1.0114)
(39.5754 0.00189931 1.16596)
(39.4547 0.00261925 1.32724)
(39.3128 0.0033485 1.49589)
(39.1481 0.00396418 1.67263)
(38.9602 0.00439612 1.85831)
(38.75 0.00464111 2.05395)
(38.5196 0.00475933 2.26037)
(38.2714 0.00489135 2.47812)
(38.0088 0.00532634 2.70608)
(37.7349 0.00626158 2.94257)
(37.452 0.00713556 3.18068)
(37.1539 0.00740088 3.41951)
(36.8222 0.00608044 3.67632)
(36.4426 0.00494475 3.99368)
(36.0048 0.0106783 4.34104)
(35.3708 -0.00643642 4.73291)
(34.5764 -0.0353245 5.32695)
(33.8153 -0.0507942 6.09898)
(32.8644 -0.0148076 6.82023)
(31.5683 0.0486238 7.52838)
(30.1098 0.0713034 8.3549)
(28.5274 0.0581495 8.88656)
(27.0489 0.0639365 8.51413)
(25.5713 0.0966916 7.62314)
(23.8351 0.205446 7.09234)
(22.6046 0.812981 8.33848)
(19.05 1.52594 12.4662)
(-0.413566 0.000496325 1.45717)
(0.638009 -0.46114 -2.79114)
(1.78215 1.13639 -0.228519)
(0.638381 -0.547929 0.903051)
(3.71571 -2.72128 -2.60605)
(2.76373 -2.56533 -2.74633)
(4.62073 -2.75072 -3.00152)
(6.38721 -2.53467 -2.25437)
(8.5252 -2.09634 -1.67944)
(11.0174 -2.00977 -2.12501)
(13.2288 -2.30556 -3.17579)
(15.3509 -2.28649 -4.30859)
(17.7151 -1.90463 -5.54491)
(20.2525 -1.42862 -6.76312)
(22.4718 -1.15148 -7.78684)
(23.896 -1.09955 -8.47903)
(24.0078 -0.882649 -8.87718)
(27.2354 -0.409657 -9.25338)
(22.8888 0.289758 -11.026)
(40.0007 0.000404583 0.0638412)
(39.9913 0.000633519 0.189425)
(39.9759 0.00167795 0.31788)
(39.9493 0.00197491 0.448792)
(39.9034 0.00161137 0.582453)
(39.8407 0.00120754 0.720264)
(39.7652 0.0010942 0.863057)
(39.6776 0.0013444 1.01139)
(39.5753 0.00189703 1.16586)
(39.4547 0.00261636 1.32703)
(39.3127 0.00334727 1.49555)
(39.1477 0.00396565 1.67219)
(38.9594 0.00439845 1.85786)
(38.7489 0.00464431 2.05358)
(38.5183 0.00476198 2.2602)
(38.2704 0.00490274 2.47796)
(38.0085 0.00532017 2.70556)
(37.7352 0.00627995 2.93983)
(37.4509 0.00719523 3.17568)
(37.1498 0.00739138 3.4137)
(36.817 0.00607351 3.67821)
(36.4454 0.00464167 3.98857)
(36.0289 0.0111387 4.41249)
(35.4518 -0.00338145 4.76771)
(34.5713 -0.0413618 5.28722)
(33.7132 -0.0543474 5.9591)
(32.5201 -0.021345 6.66741)
(31.283 0.0330564 7.53504)
(30.1766 0.0564705 8.35572)
(28.9577 0.0402609 8.84922)
(27.4884 0.0555906 8.59443)
(26.0039 0.0938172 7.65685)
(24.6 0.217246 6.82941)
(22.9147 1.11815 7.20327)
(25.0716 3.71327 10.6418)
(21.2333 3.08162 10.2093)
(18.1475 1.96086 7.20974)
(13.7102 1.43511 4.8386)
(9.07108 1.15832 2.7924)
(6.11434 -0.00390931 0.128082)
(-4.68193 1.51012 4.49904)
(-3.61171 3.33631 5.61115)
(-0.908998 2.30415 1.14684)
(1.06774 1.94354 -2.99902)
(3.11005 2.21126 -2.46498)
(3.51325 0.85133 -2.14562)
(6.33262 0.464037 -2.83709)
(9.71613 0.934284 -3.65138)
(12.7526 1.4743 -4.43508)
(15.2853 1.57295 -5.19393)
(17.1443 1.18831 -5.87581)
(18.5385 0.974571 -6.425)
(23.1803 1.18797 -6.54735)
(21.618 1.04697 -7.39037)
(40.0001 0.000399905 0.0704957)
(39.9914 0.000629909 0.209102)
(39.9783 0.00167503 0.351003)
(39.9561 0.00197451 0.495714)
(39.9151 0.00162269 0.643584)
(39.8572 0.00122631 0.796231)
(39.7871 0.00110532 0.954636)
(39.7056 0.00133154 1.11949)
(39.6103 0.00184525 1.29152)
(39.4978 0.00251501 1.47143)
(39.3649 0.00319311 1.65997)
(39.21 0.00376867 1.85786)
(39.0326 0.00418259 2.06575)
(38.8335 0.00444312 2.28403)
(38.6142 0.00459152 2.51258)
(38.3763 0.00473198 2.75057)
(38.1222 0.00487689 2.9965)
(37.8543 0.00512812 3.24808)
(37.5756 0.00534571 3.50331)
(37.2888 0.00547629 3.76539)
(36.9939 0.00526486 4.04835)
(36.6961 0.00691837 4.39378)
(36.3879 0.00734908 4.83007)
(36.0505 0.0236948 5.41715)
(35.3681 0.0113015 6.17461)
(34.7501 -0.0098702 6.97534)
(34.083 -0.0173034 7.70903)
(33.0019 0.0135593 8.72747)
(31.7945 0.0578933 9.73995)
(30.4209 0.0945276 10.4337)
(28.8195 0.105074 10.021)
(26.7302 0.127086 8.98652)
(24.9011 0.152192 8.38847)
(23.0217 0.349485 9.15424)
(24.8735 1.08134 14.4903)
(20.5265 0.593938 12.4536)
(15.4668 -0.529771 7.49729)
(11.2335 -1.57285 3.21856)
(10.0062 -2.24098 0.506783)
(10.3876 -2.77431 -1.4419)
(12.1502 -3.24392 -2.55532)
(14.3865 -3.12546 -3.26067)
(16.1275 -2.62716 -3.60914)
(17.4993 -2.0579 -3.88631)
(18.9547 -1.70574 -4.53367)
(20.4984 -1.60889 -5.49563)
(21.9859 -1.44139 -6.42988)
(23.5275 -1.14422 -7.35998)
(25.1752 -0.798004 -8.28458)
(26.4818 -0.587975 -9.12473)
(27.158 -0.454457 -9.72193)
(26.3701 -0.248403 -9.95192)
(28.3148 0.266119 -9.93179)
(23.455 1.26582 -10.6494)
(40.0007 0.000399906 0.0704789)
(39.9921 0.00062995 0.209079)
(39.9786 0.00167505 0.350935)
(39.9548 0.00197454 0.495644)
(39.9131 0.00162275 0.643555)
(39.8554 0.00122634 0.796237)
(39.7859 0.00110566 0.954639)
(39.705 0.00133097 1.11945)
(39.6102 0.00184305 1.29139)
(39.4977 0.00251239 1.4712)
(39.3648 0.00319101 1.65963)
(39.2095 0.0037649 1.85743)
(39.0318 0.00418013 2.06525)
(38.8324 0.00444428 2.2835)
(38.6129 0.00458857 2.51202)
(38.3751 0.00472837 2.74993)
(38.121 0.00487379 2.99537)
(37.8532 0.00512277 3.24594)
(37.5743 0.00538496 3.50012)
(37.2869 0.00547911 3.76119)
(36.9927 0.0054519 4.04703)
(36.6939 0.00617584 4.38576)
(36.3924 0.00850315 4.83901)
(36.0871 0.0217212 5.3827)
(35.5548 -0.00189499 6.06736)
(34.8567 -0.0207425 6.87522)
(33.8214 -0.0272357 7.82949)
(32.5866 -0.00142191 8.72202)
(31.4458 0.041162 9.4882)
(30.3519 0.0665985 10.1203)
(29.1527 0.0927029 10.2293)
(27.6022 0.0968438 9.34868)
(25.6893 0.153208 8.37852)
(23.856 0.241839 8.78869)
(24.1713 1.39614 11.5525)
(26.1751 1.95527 12.4479)
(26.1745 1.75226 10.8137)
(24.3294 1.35897 8.39575)
(22.0732 1.10186 5.99315)
(19.5 0.568898 3.93057)
(16.5167 -0.000484982 2.40715)
(14.7503 -0.0765735 1.25681)
(14.4317 0.201589 0.206499)
(14.0639 0.839084 -0.506584)
(13.9528 1.24774 -1.44455)
(15.0143 1.10837 -2.32069)
(17.1639 0.879075 -3.31524)
(19.9298 0.769875 -4.53464)
(22.6285 0.743013 -5.82162)
(24.5579 0.601021 -6.91456)
(25.5792 0.395773 -7.39474)
(25.8939 0.302551 -7.36561)
(28.243 0.552709 -6.86607)
(26.8874 1.17993 -8.4697)
(40.0002 0.000388484 0.0765397)
(39.9924 0.000616347 0.227028)
(39.9813 0.0016153 0.381151)
(39.9625 0.00190706 0.538483)
(39.9261 0.00157599 0.699448)
(39.874 0.00119639 0.865837)
(39.8107 0.0010729 1.03876)
(39.7369 0.00127427 1.21905)
(39.6502 0.0017459 1.40759)
(39.5471 0.00236444 1.60526)
(39.4245 0.00298967 1.81289)
(39.2805 0.00351062 2.0312)
(39.1143 0.00387409 2.26059)
(38.9262 0.00407936 2.50088)
(38.7168 0.00416923 2.75112)
(38.4873 0.00419007 3.0094)
(38.2393 0.00409835 3.27298)
(37.976 0.00404914 3.53859)
(37.704 0.00380277 3.80455)
(37.4323 0.00352837 4.07196)
(37.1811 0.00349034 4.35502)
(36.9584 0.0027639 4.68458)
(36.8017 -0.000301629 5.12686)
(36.669 0.0126968 5.74738)
(36.3936 0.0487887 6.66275)
(35.9051 0.0572854 7.60603)
(35.1042 0.0221693 8.6137)
(34.2311 -0.0093048 9.75217)
(33.321 -0.0124912 10.751)
(32.3941 0.0237571 11.5711)
(31.2911 0.0528431 11.9227)
(29.622 0.0781759 11.5824)
(27.3297 0.139763 10.4535)
(24.9073 0.0875792 9.81345)
(24.7171 0.353483 11.4099)
(25.8605 0.409381 12.0168)
(25.1763 -0.0756154 10.06)
(23.3282 -0.707861 6.92517)
(21.8806 -1.24726 3.93552)
(21.3116 -1.62365 1.3825)