/*--------------------------------*- C++ -*----------------------------------*\
| =========                 |                                                 |
| \\      /  F ield         | OpenFOAM: The Open Source CFD Toolbox           |
|  \\    /   O peration     | Version:  4.1                                   |
|   \\  /    A nd           | Web:      www.OpenFOAM.org                      |
|    \\/     M anipulation  |                                                 |
\*---------------------------------------------------------------------------*/
FoamFile
{
    version     2.0;
    format      ascii;
    class       volScalarField;
    location    "17";
    object      omega;
}
// * * * * * * * * * * * * * * * * * * * * * * * * * * * * * * * * * * * * * //

dimensions      [0 0 -1 0 0 0 0];

internalField   nonuniform List<scalar> 
4432
(
0.0111323
0.011389
0.0116898
0.0119657
0.0123123
0.0126137
0.0129322
0.0132431
0.0134885
0.0137795
0.0140559
0.014143
0.0145347
0.0143627
0.0143946
0.0141073
0.0133806
0.0135597
0.0136538
0.0172159
0.0200449
0.0250966
0.0322188
0.0368026
0.0400323
0.0424588
0.0440491
0.0449478
0.0459774
0.0465426
0.0467749
0.0469826
0.0471833
0.0466835
0.0471868
0.0466495
0.0486498
0.0486245
0.045536
0.0412047
0.0364485
0.0326269
0.0299133
0.0148448
0.0139629
0.0140554
0.0141361
0.0145952
0.0140985
0.0142014
0.0125043
0.0115396
0.0109336
0.0124857
0.011139
0.011383
0.0117266
0.0120043
0.0123785
0.0126791
0.0130072
0.0133089
0.0135571
0.0138491
0.0140512
0.0143848
0.0145917
0.0147524
0.0145536
0.0141682
0.0138049
0.0140493
0.0146031
0.0212337
0.0231255
0.0278358
0.0342764
0.0364852
0.0381568
0.0400063
0.0423279
0.0436116
0.043657
0.0430266
0.0412232
0.0387239
0.0364787
0.0349221
0.0336703
0.0336895
0.0331947
0.0355807
0.035065
0.0339793
0.0315353
0.0281729
0.0260264
0.0206954
0.0166312
0.0154072
0.0141863
0.0128337
0.0131039
0.012167
0.00612672
0.00567241
0.00640241
0.0100112
21.9537
3.56989
1.48852
0.806885
0.495462
0.344237
0.263012
0.216416
0.1859
0.165181
0.147465
0.132873
0.11836
0.106627
0.0947241
0.0853116
0.075624
0.0683882
0.0645121
0.0609936
0.0603412
0.0609437
0.0599454
0.0758392
0.0617064
0.0624598
0.0727398
0.0797056
0.0871024
0.0833956
0.0801671
0.0822717
0.0952423
0.101204
0.130184
0.154624
0.254231
0.218811
0.25595
0.323347
0.385846
0.314705
0.280575
0.343759
0.410309
0.315134
0.297869
0.226391
0.305064
0.390801
0.550288
0.736113
1.04533
1.2885
21.9522
3.57395
1.49202
0.808543
0.496605
0.344249
0.264282
0.216677
0.186365
0.162873
0.144879
0.128514
0.114972
0.102579
0.0925208
0.0827953
0.0756704
0.0703106
0.067001
0.0647931
0.0628594
0.0694565
0.0621905
0.063426
0.064974
0.0637231
0.0654137
0.0683057
0.081525
0.0755214
0.0769805
0.0827452
0.0876187
0.0806752
0.0802985
0.109417
0.111975
0.108752
0.130219
0.192965
0.197565
0.190229
0.188619
0.230031
0.296869
0.295842
0.380214
0.431051
0.433881
0.568432
0.624303
0.814781
1.24122
1.47547
21.9497
3.57495
1.48899
0.802613
0.492151
0.341537
0.262228
0.213776
0.18224
0.159006
0.143132
0.129592
0.119572
0.109715
0.100983
0.0926639
0.0841943
0.0777731
0.0724389
0.0689596
0.0666937
0.0657531
0.0629191
0.0636186
0.063441
0.0648864
0.0791315
0.0657983
0.0730128
0.0925964
0.109223
0.159061
0.187825
0.217264
0.261318
0.321101
0.385807
0.388344
0.421092
0.435868
0.431423
0.473666
0.448875
0.462367
0.496638
0.380135
0.303282
0.296073
0.321125
0.386976
0.448621
0.630931
0.909578
0.875902
21.9485
3.57636
1.49174
0.801487
0.492154
0.341845
0.26279
0.215382
0.184445
0.161579
0.144354
0.130423
0.118687
0.108119
0.0999007
0.0898859
0.0829941
0.0759247
0.0706606
0.0677442
0.0653757
0.0642648
0.0630141
0.063829
0.0674764
0.067228
0.0682875
0.0837107
0.0751159
0.0768584
0.0862811
0.0891843
0.0853716
0.10027
0.131557
0.184724
0.233225
0.314339
0.274373
0.28447
0.338431
0.38022
0.349131
0.350236
0.364985
0.415398
0.450713
0.429876
0.379342
0.4031
0.399271
0.568366
0.986751
1.24979
21.9511
3.57337
1.49001
0.795724
0.49088
0.341763
0.263013
0.213549
0.181885
0.158757
0.142339
0.128599
0.11877
0.108506
0.100717
0.0919349
0.08435
0.0778523
0.0724667
0.0700986
0.068142
0.0674687
0.0693487
0.0790292
0.0821189
0.0940765
0.102671
0.129451
0.152848
0.185372
0.213801
0.255787
0.253026
0.280124
0.379874
0.397852
0.440943
0.429408
0.436747
0.447474
0.488912
0.487923
0.473126
0.484284
0.412339
0.271091
0.262019
0.303593
0.337019
0.405715
0.481992
0.751018
1.02077
0.855491
21.949
3.57057
1.50699
0.812358
0.493093
0.341722
0.268483
0.23129
0.203875
0.180435
0.159794
0.143407
0.128032
0.11649
0.104817
0.0949257
0.0861125
0.0776822
0.0727686
0.0688546
0.0675469
0.0669352
0.0674559
0.076675
0.0755401
0.075776
0.0806594
0.0781834
0.0795556
0.0845566
0.0928617
0.0984968
0.11252
0.150273
0.211385
0.278841
0.335702
0.369008
0.39888
0.424938
0.43339
0.476257
0.41109
0.400912
0.391545
0.516257
0.456944
0.3358
0.337407
0.454225
0.397047
0.695664
0.767735
0.74773
21.9516
3.56116
1.52859
0.775444
0.577367
0.441793
0.331696
0.247305
0.203369
0.174774
0.154956
0.138603
0.125975
0.113423
0.104336
0.093634
0.0852022
0.0776863
0.073551
0.0695157
0.0690372
0.0711779
0.0862073
0.0957987
0.105747
0.126294
0.141847
0.176715
0.188155
0.213459
0.277763
0.2575
0.337112
0.402942
0.483017
0.481417
0.454382
0.468518
0.481399
0.469212
0.512433
0.515561
0.476524
0.351455
0.332603
0.283962
0.329006
0.429279
0.461899
0.700069
0.665273
0.635602
1.22203
0.858489
21.9505
3.57938
1.49195
0.806932
0.490073
0.340353
0.26229
0.218681
0.187955
0.163889
0.145819
0.131373
0.120103
0.109549
0.10067
0.0913343
0.0850399
0.0796574
0.0725959
0.071845
0.0741455
0.0766003
0.0861952
0.079903
0.0888955
0.0885494
0.0940841
0.0989917
0.109097
0.117694
0.135624
0.173176
0.22191
0.276464
0.327308
0.367168
0.403002
0.4263
0.446931
0.471701
0.430458
0.44325
0.451646
0.373656
0.413659
0.445249
0.398418
0.365143
0.299016
0.282819
0.345042
0.750136
0.914955
0.844382
21.9536
3.5695
1.48901
0.795935
0.487449
0.342499
0.268512
0.224799
0.194397
0.171223
0.15234
0.137322
0.123613
0.112205
0.10188
0.0923142
0.0842344
0.0760943
0.072717
0.0682474
0.074877
0.0749945
0.0839788
0.0959061
0.124405
0.134983
0.193873
0.193713
0.265453
0.258518
0.329962
0.392968
0.494686
0.488371
0.488702
0.474783
0.467717
0.47007
0.496051
0.475535
0.477015
0.406297
0.263003
0.337399
0.317771
0.324381
0.28519
0.221208
0.194561
0.275576
0.424752
0.654371
0.64464
0.69021
21.9522
3.57588
1.49084
0.797856
0.487015
0.338055
0.260108
0.212404
0.180644
0.157245
0.140149
0.12687
0.116241
0.106925
0.0987217
0.0901507
0.0830469
0.0783762
0.0707536
0.0704111
0.0753461
0.0832048
0.0903731
0.0961691
0.104005
0.106787
0.113863
0.124851
0.135516
0.164859
0.214581
0.273266
0.317712
0.36801
0.395267
0.421352
0.416548
0.445146
0.430129
0.428483
0.414036
0.42689
0.372266
0.355521
0.373867
0.448423
0.416791
0.321972
0.268343
0.233774
0.355121
0.617457
0.898954
0.598023
21.9549
3.57114
1.49092
0.802179
0.48702
0.337874
0.259912
0.214567
0.185262
0.164177
0.1474
0.133922
0.121693
0.111003
0.1009
0.0924743
0.0832712
0.0776724
0.0706132
0.074426
0.0946414
0.107298
0.120548
0.131604
0.169057
0.180755
0.23796
0.267042
0.318038
0.356186
0.450073
0.451764
0.464582
0.447944
0.44139
0.449509
0.449138
0.446008
0.433251
0.412454
0.365996
0.305014
0.346002
0.364158
0.32846
0.333672
0.30439
0.254222
0.151073
0.146062
0.206907
0.440597
0.844243
0.799655
21.9536
3.57631
1.48597
0.789218
0.484807
0.337657
0.259156
0.212512
0.181917
0.159506
0.142413
0.12867
0.117106
0.107336
0.0987945
0.0902427
0.0826346
0.0772044
0.0709162
0.0694058
0.0795793
0.0938871
0.102387
0.113579
0.124835
0.130092
0.150467
0.176652
0.209889
0.248728
0.287006
0.327314
0.368807
0.369575
0.381716
0.392171
0.411995
0.416745
0.413471
0.414511
0.404867
0.392311
0.364437
0.363044
0.35325
0.408865
0.398234
0.311338
0.313342
0.220872
0.557172
0.90132
0.875195
0.887776
21.9551
3.56691
1.5046
0.807567
0.489114
0.335487
0.264026
0.226724
0.198676
0.174646
0.154302
0.137065
0.123857
0.111018
0.101651
0.0916208
0.0838147
0.0760181
0.0725242
0.081897
0.107623
0.134964
0.158724
0.175802
0.214484
0.23594
0.232472
0.272281
0.373611
0.39552
0.406835
0.4127
0.413865
0.396178
0.399121
0.396503
0.405665
0.403277
0.394766
0.37397
0.300591
0.334392
0.326471
0.347799
0.286308
0.325071
0.301467
0.282219
0.163312
0.151684
0.186788
0.273179
0.399825
0.725978
21.9537
3.56925
1.50684
0.813378
0.482575
0.333374
0.257965
0.216258
0.187316
0.165201
0.147221
0.132537
0.120083
0.109432
0.0998446
0.0915637
0.0826291
0.0760388
0.0700486
0.0722185
0.0862009
0.102537
0.114479
0.12791
0.138178
0.163019
0.202905
0.243145
0.26907
0.300847
0.320867
0.348728
0.354823
0.360693
0.363427
0.367266
0.376046
0.369182
0.361994
0.368105
0.358987
0.363502
0.352358
0.344929
0.334705
0.37904
0.381343
0.336038
0.327233
0.290495
0.220797
0.373997
0.522764
0.729451
21.9574
3.56833
1.482
0.795116
0.486428
0.339875
0.267894
0.223327
0.19061
0.1655
0.146038
0.130969
0.118846
0.108094
0.0989827
0.0903753
0.0830735
0.074145
0.0740767
0.104422
0.1214
0.153831
0.158595
0.188809
0.243423
0.229522
0.31647
0.340925
0.357313
0.355731
0.365876
0.369817
0.364743
0.357492
0.359638
0.367789
0.377197
0.373133
0.367634
0.317983
0.299428
0.305697
0.285211
0.272326
0.216353
0.296618
0.268247
0.235478
0.168463
0.148479
0.166651
0.301572
0.520728
0.686719
21.9548
3.58193
1.49142
0.800837
0.48685
0.337177
0.257553
0.209862
0.177431
0.154635
0.137434
0.124426
0.113644
0.104545
0.0961933
0.088681
0.0822479
0.0739135
0.0704755
0.0783092
0.10006
0.111
0.121858
0.141945
0.170892
0.210052
0.240817
0.267216
0.281724
0.311937
0.308038
0.316072
0.320303
0.322199
0.322238
0.322334
0.329941
0.360364
0.318958
0.329884
0.336493
0.324034
0.321339
0.310715
0.297015
0.303337
0.354923
0.317729
0.317214
0.271213
0.289868
0.329401
0.428703
0.443053
21.9571
3.57691
1.49363
0.802402
0.484304
0.334129
0.256172
0.20893
0.177357
0.155333
0.138636
0.125996
0.115163
0.106058
0.0975872
0.0899401
0.0829783
0.0748733
0.0785624
0.109381
0.125066
0.163611
0.152548
0.20046
0.255049
0.3027
0.308538
0.310665
0.314062
0.311054
0.32016
0.326203
0.331235
0.334404
0.345039
0.350671
0.368282
0.359375
0.342116
0.28435
0.308816
0.289741
0.252888
0.260232
0.254105
0.302387
0.208684
0.17515
0.123965
0.134822
0.167833
0.255695
0.382788
0.601218
21.9566
3.57752
1.49181
0.800238
0.48776
0.337901
0.256788
0.209157
0.177261
0.154941
0.137874
0.124488
0.113271
0.103902
0.0956207
0.0882005
0.0821193
0.0741058
0.0709399
0.0829472
0.102526
0.114205
0.127174
0.161276
0.199602
0.24095
0.254345
0.281978
0.265773
0.271971
0.275788
0.287567
0.299666
0.304482
0.317309
0.315217
0.340743
0.301054
0.319328
0.310988
0.315029
0.309265
0.309115
0.305434
0.292877
0.268806
0.297012
0.297126
0.271452
0.222384
0.284005
0.464381
0.529551
0.582252
21.9591
3.56071
1.5036
0.80798
0.478112
0.329165
0.254736
0.214053
0.185973
0.164344
0.146089
0.131639
0.118834
0.108331
0.0993057
0.0893655
0.0840146
0.0756227
0.0794172
0.108416
0.127527
0.178429
0.180104
0.280909
0.28297
0.289932
0.28157
0.281775
0.282702
0.283373
0.298596
0.302271
0.317866
0.325925
0.337029
0.344141
0.334275
0.30767
0.278624
0.282533
0.291516
0.279046
0.261784
0.245356
0.204396
0.151081
0.131086
0.137602
0.111256
0.122619
0.159495
0.320538
0.456962
0.607154
21.9577
3.57285
1.49305
0.80125
0.487113
0.336265
0.255711
0.208772
0.178159
0.156759
0.140083
0.126541
0.114916
0.104751
0.0963367
0.0880519
0.0830084
0.0742653
0.072487
0.0876589
0.100526
0.127287
0.148107
0.197668
0.2213
0.23973
0.267313
0.248046
0.249689
0.257733
0.261107
0.267452
0.275579
0.290432
0.295798
0.319014
0.282604
0.295858
0.28745
0.271877
0.290148
0.282214
0.297819
0.284713
0.241297
0.22611
0.239452
0.24303
0.199543
0.1901
0.256973
0.631472
0.821097
0.879558
21.9591
3.56213
1.50107
0.80587
0.479991
0.329309
0.256185
0.217358
0.189712
0.167345
0.148453
0.133071
0.119874
0.108974
0.0990683
0.0907131
0.0849026
0.0746845
0.0819349
0.13579
0.162675
0.205348
0.270787
0.260653
0.264418
0.268757
0.263467
0.260663
0.266244
0.273738
0.282537
0.287507
0.303147
0.315213
0.323044
0.321984
0.319677
0.284144
0.224941
0.237387
0.23799
0.220176
0.234555
0.23608
0.15661
0.133987
0.122386
0.106931
0.105071
0.0981199
0.120142
0.160667
0.424247
0.438097
21.958
3.57457
1.49125
0.80387
0.489596
0.335343
0.255049
0.20729
0.175823
0.153853
0.137376
0.1242
0.113602
0.103439
0.0961868
0.0871124
0.0833237
0.0743275
0.0717786
0.0843649
0.109636
0.136784
0.158834
0.212488
0.23377
0.250157
0.231265
0.248863
0.232583
0.233384
0.236747
0.24966
0.263292
0.267011
0.28923
0.25484
0.276912
0.224439
0.230877
0.228898
0.233901
0.228209
0.232799
0.22382
0.183211
0.205645
0.211963
0.161414
0.152405
0.133751
0.144857
0.414359
0.780078
0.84718
21.9592
3.56305
1.50669
0.796617
0.484926
0.335758
0.261806
0.221903
0.19305
0.169255
0.149481
0.13297
0.119943
0.108257
0.0994614
0.0902603
0.0844103
0.0752539
0.0863873
0.119182
0.186403
0.218712
0.242531
0.240874
0.242243
0.242983
0.243656
0.249337
0.252064
0.255865
0.259775
0.275293
0.290171
0.296039
0.294828
0.292848
0.270568
0.201335
0.193127
0.207925
0.220855
0.213561
0.236636
0.166595
0.123738
0.125789
0.114726
0.105723
0.0994191
0.0973959
0.111611
0.120446
0.176262
0.207604
21.9586
3.57736
1.47826
0.794136
0.483801
0.334887
0.255507
0.207204
0.174932
0.152139
0.135391
0.122575
0.112818
0.103682
0.0964271
0.0878285
0.0833459
0.0751566
0.0720487
0.0874058
0.112059
0.133459
0.171639
0.218398
0.244975
0.218632
0.20245
0.205697
0.217326
0.227011
0.23411
0.242774
0.246233
0.263081
0.246812
0.244262
0.224107
0.24277
0.187649
0.208925
0.218315
0.217496
0.209161
0.184848
0.164126
0.152158
0.137627
0.111299
0.11416
0.102225
0.115868
0.12557
0.319071
0.376094
21.9589
3.57596
1.48683
0.797968
0.487683
0.336122
0.255135
0.206758
0.174922
0.152233
0.135638
0.122533
0.112862
0.103334
0.0972373
0.0879996
0.0854918
0.0729093
0.086892
0.169553
0.194107
0.204202
0.228979
0.220913
0.218334
0.219383
0.217868
0.219944
0.231574
0.235116
0.245481
0.260164
0.271146
0.273677
0.272437
0.257507
0.207498
0.192809
0.205949
0.236806
0.233408
0.237704
0.179191
0.125138
0.105615
0.104223
0.0955021
0.0917351
0.0931155
0.100993
0.11097
0.125591
0.162039
0.192226
21.9585
3.57142
1.49234
0.804392
0.489658
0.335342
0.254889
0.207563
0.176292
0.154206
0.137525
0.124224
0.113618
0.104821
0.0969747
0.0897442
0.0830983
0.0775911
0.0744446
0.0883653
0.130406
0.150636
0.184532
0.372726
0.335333
0.281808
0.190456
0.164806
0.178557
0.18687
0.198392
0.212449
0.226873
0.238243
0.242831
0.257615
0.192725
0.189472
0.195024
0.215551
0.222708
0.226641
0.199242
0.173682
0.159528
0.125814
0.130551
0.111232
0.103711
0.101963
0.11316
0.138386
0.174993
0.19436
21.959
3.57596
1.49148
0.796656
0.480224
0.332103
0.252462
0.204572
0.172999
0.150557
0.134279
0.12118
0.111441
0.102576
0.0956605
0.0886901
0.0832761
0.0772024
0.0761326
0.128413
0.23818
0.221528
0.198789
0.181758
0.255925
0.209241
0.206954
0.198117
0.2006
0.214542
0.226758
0.243292
0.251966
0.254973
0.250376
0.232352
0.214871
0.25655
0.28518
0.270231
0.25071
0.182401
0.1163
0.102475
0.0933302
0.0930567
0.0893676
0.0948802
0.104597
0.120633
0.136086
0.172416
0.213734
0.242278
21.9592
3.57123
1.47731
0.793607
0.485914
0.334708
0.254042
0.20595
0.174724
0.152958
0.137184
0.124186
0.113383
0.104942
0.0970642
0.0903012
0.0832761
0.0780798
0.0733156
0.0749116
0.118907
0.155996
0.221203
0.443865
0.484249
0.366594
0.268427
0.205058
0.179144
0.178912
0.183472
0.192678
0.207634
0.206219
0.229234
0.181577
0.19333
0.207908
0.222153
0.245393
0.233664
0.198605
0.180057
0.162399
0.136015
0.123815
0.105411
0.100488
0.101345
0.118419
0.141303
0.190701
0.227817
0.2671
21.9577
3.58083
1.47836
0.794951
0.484751
0.335434
0.254381
0.20547
0.172997
0.149848
0.132872
0.119628
0.109286
0.101234
0.0936528
0.0889164
0.0809551
0.0818711
0.0653298
0.0990199
0.188773
0.223891
0.196635
0.244423
0.238802
0.200977
0.201125
0.19549
0.204162
0.222307
0.233514
0.237219
0.232317
0.218669
0.198363
0.252321
0.28686
0.260647
0.266425
0.171132
0.101271
0.0926196
0.0863777
0.0778046
0.0773934
0.0795273
0.0978013
0.11152
0.136306
0.173772
0.21684
0.271648
0.341339
21.9579
3.57494
1.49457
0.795294
0.487246
0.334735
0.253595
0.205859
0.174999
0.153648
0.137873
0.125416
0.115109
0.106332
0.0982068
0.0913609
0.083808
0.0798787
0.0714373
0.0736152
0.0944953
0.115885
0.142667
0.464697
0.384072
0.263576
0.210357
0.181473
0.17863
0.183918
0.189925
0.201198
0.192583
0.185481
0.173454
0.182204
0.183553
0.226272
0.180743
0.148121
0.130739
0.134792
0.120104
0.101402
0.0929776
0.084153
0.0931261
0.106414
0.147555
0.200564
0.237265
0.441065
0.435896
21.9581
3.57344
1.49225
0.804472
0.484725
0.33514
0.253836
0.204701
0.172196
0.148882
0.131949
0.119153
0.109299
0.101463
0.0945287
0.0888152
0.082501
0.0794821
0.0725601
0.0770492
0.104686
0.157753
0.190024
0.192566
0.43213
0.189585
0.184965
0.195984
0.185133
0.194263
0.206063
0.211407
0.21305
0.20651
0.199512
0.203548
0.257564
0.248213
0.293679
0.156294
0.0996067
0.0853165
0.0781968
0.0712621
0.0650569
0.0695085
0.0790255
0.106657
0.126595
0.175535
0.235743
0.301268
0.389505
0.558938
21.9582
3.5708
1.48515
0.787046
0.481434
0.333456
0.255165
0.206256
0.175298
0.153602
0.137659
0.125649
0.115518
0.107135
0.0991741
0.0921576
0.0852678
0.0796589
0.0744748
0.0704166
0.0743805
0.101275
0.100584
0.114137
0.522445
0.333266
0.261149
0.200705
0.180076
0.171698
0.179136
0.180704
0.179955
0.176109
0.172004
0.151769
0.165079
0.167575
0.147508
0.123819
0.108554
0.0983914
0.0876998
0.0785805
0.0714956
0.072214
0.0764404
0.098816
0.123961
0.204493
0.331264
0.565559
1.08183
0.69826
21.9568
3.57495
1.489
0.806411
0.485894
0.335534
0.254421
0.205201
0.172434
0.14928
0.131911
0.118918
0.109298
0.101722
0.0952372
0.0894136
0.0837891
0.0794467
0.0744405
0.073458
0.0775778
0.101536
0.119453
0.12806
0.205621
0.202664
0.169796
0.163646
0.172046
0.191551
0.204568
0.204399
0.199393
0.189314
0.188437
0.185786
0.24586
0.238935
0.146378
0.0981043
0.0838612
0.0728175
0.0643504
0.0599199
0.0601921
0.0643449
0.0830662
0.119298
0.143482
0.22802
0.31353
0.446137
0.753594
0.709589
21.9582
3.54844
1.5306
0.757184
0.602404
0.460869
0.350928
0.265281
0.206238
0.171682
0.148671
0.1319
0.119053
0.109076
0.100536
0.0934095
0.0865162
0.0806962
0.075714
0.0705411
0.0712476
0.0744013
0.0851244
0.0852206
0.110658
0.13657
0.185363
0.183525
0.177297
0.168969
0.16404
0.164606
0.157192
0.16207
0.152348
0.140812
0.136606
0.126536
0.108846
0.0969835
0.0900257
0.0797877
0.0729561
0.0619439
0.0645426
0.0627359
0.0803176
0.109267
0.139807
0.365309
0.729781
0.937329
0.81464
0.674239
21.9575
3.56889
1.47659
0.800111
0.485276
0.333095
0.252341
0.204084
0.172868
0.150425
0.134018
0.121029
0.111034
0.103053
0.0963799
0.0910058
0.0851122
0.0806452
0.0756617
0.0720975
0.0733921
0.0775621
0.0857781
0.0956072
0.10983
0.115163
0.126052
0.138485
0.146373
0.147637
0.184333
0.198097
0.208727
0.190328
0.176926
0.162501
0.146167
0.113051
0.08974
0.0757289
0.0650293
0.0581192
0.0529552
0.0543846
0.0566314
0.0637542
0.0896219
0.116327
0.145233
0.27779
0.344775
0.531237
0.703277
0.54042
21.9577
3.5609
1.48888
0.792667
0.484038
0.334566
0.259445
0.217705
0.18841
0.164934
0.146077
0.130795
0.118601
0.108948
0.10046
0.0939031
0.0872637
0.0820955
0.0762577
0.0722656
0.0687486
0.0686496
0.0727971
0.0714367
0.0794153
0.0834334
0.0971833
0.109682
0.132969
0.137577
0.151139
0.148058
0.144703
0.137115
0.129174
0.11865
0.107495
0.0948934
0.0858761
0.076613
0.0693759
0.0608849
0.0533022
0.0540131
0.0588408
0.0591717
0.092187
0.101899
0.183323
0.557879
0.653188
0.649546
0.669943
0.659538
21.9557
3.57298
1.48447
0.793352
0.483326
0.332784
0.252324
0.2036
0.171624
0.148746
0.132111
0.119673
0.109786
0.102243
0.0957741
0.0908452
0.0857579
0.0821976
0.0773919
0.0737447
0.0713361
0.0696039
0.0738777
0.0772217
0.0760256
0.076014
0.0827718
0.0872784
0.0916309
0.116514
0.125402
0.133039
0.126707
0.117593
0.10851
0.0957173
0.0825131
0.0714366
0.0635836
0.0568745
0.0525481
0.0488465
0.0487125
0.0501388
0.053523
0.0628791
0.0849312
0.11382
0.160111
0.276881
0.285113
0.581081
0.443577
0.737635
21.9555
3.57167
1.49149
0.804449
0.488604
0.335285
0.253411
0.204278
0.171765
0.148651
0.131855
0.119474
0.110221
0.103081
0.0969931
0.0919259
0.0865574
0.0824203
0.0781831
0.0741504
0.0706329
0.0680462
0.0675045
0.0659814
0.0687082
0.0686629
0.0713151
0.0743069
0.0804924
0.0900798
0.0980005
0.101032
0.1063
0.103811
0.0974961
0.089988
0.0813643
0.0737385
0.0656853
0.0591416
0.0540266
0.0498792
0.0492453
0.0540786
0.0560526
0.0626303
0.0850855
0.107173
0.205224
0.363474
0.479303
0.532261
0.600615
0.657379
21.9557
3.56781
1.49023
0.806364
0.49037
0.336291
0.254016
0.204996
0.173423
0.150952
0.134429
0.12153
0.111308
0.103222
0.0964364
0.0910826
0.0860938
0.0819261
0.0780565
0.0747377
0.0718455
0.0696806
0.0695888
0.0680927
0.0682123
0.0678981
0.0679663
0.0671437
0.0682669
0.0734524
0.073503
0.0732206
0.0717389
0.0687011
0.0648827
0.0608541
0.0570048
0.0535917
0.0504884
0.0487877
0.0461537
0.0468131
0.0468318
0.0483966
0.0522387
0.0657848
0.0795082
0.122114
0.139149
0.243081
0.345541
0.457664
0.422218
0.72064
21.955
3.56818
1.49267
0.804936
0.491362
0.337379
0.253921
0.205001
0.173422
0.151169
0.13475
0.12172
0.111466
0.10314
0.0962206
0.0910016
0.0862753
0.0822543
0.078318
0.0750712
0.0718302
0.0694557
0.067683
0.0660172
0.0646026
0.0638908
0.0643627
0.0651078
0.0666736
0.0691515
0.0701268
0.0719975
0.072711
0.0717187
0.0685623
0.0643473
0.0592693
0.0552227
0.0513065
0.0492282
0.0471581
0.0471945
0.0479857
0.0530939
0.057382
0.0588971
0.0762839
0.0968603
0.17975
0.368748
0.446668
0.46737
0.574084
0.722117
21.9539
3.57305
1.48272
0.801414
0.487733
0.334975
0.253149
0.203883
0.17136
0.148666
0.132171
0.11968
0.109969
0.10225
0.0958954
0.0906754
0.085902
0.0817702
0.078011
0.0746138
0.0716633
0.069381
0.0677241
0.0665004
0.0648577
0.0632273
0.0618383
0.0605453
0.0596795
0.0594037
0.0589159
0.0578478
0.056509
0.0545128
0.0528089
0.0508379
0.0496626
0.0479958
0.047
0.0454756
0.0453667
0.046627
0.0494915
0.0483149
0.0576798
0.0609415
0.0770535
0.116838
0.115713
0.22626
0.280664
0.357415
0.43533
0.666976
21.9538
3.57298
1.48974
0.801024
0.485772
0.334644
0.253394
0.204921
0.17348
0.151486
0.135249
0.122376
0.112286
0.103671
0.0969368
0.091112
0.0863333
0.0819318
0.0781795
0.0748124
0.0718178
0.0692256
0.0672502
0.0656598
0.0636874
0.062138
0.0611661
0.0605287
0.060424
0.0601532
0.05966
0.0585473
0.0574071
0.0556844
0.0538969
0.0518926
0.0499591
0.0483163
0.0471435
0.0466667
0.0460911
0.0470119
0.0481486
0.0544816
0.0530754
0.0600235
0.09104
0.101159
0.129624
0.342207
0.469696
0.365045
0.675569
0.739886
21.9535
3.57389
1.48845
0.804733
0.490029
0.336417
0.254136
0.204436
0.171337
0.147914
0.130694
0.117803
0.108027
0.100381
0.0942856
0.0892194
0.084814
0.0808067
0.0772014
0.0736941
0.0707346
0.068069
0.0658604
0.0643224
0.0625735
0.0607106
0.0590678
0.0574143
0.0560328
0.0548538
0.0538526
0.0527829
0.0518172
0.0506605
0.0498199
0.0486404
0.0480599
0.0467218
0.0461736
0.0456004
0.0460047
0.0451146
0.0444249
0.0447671
0.0481024
0.0526469
0.0615967
0.0761855
0.0889292
0.186566
0.265796
0.388022
0.360473
0.523046
21.9536
3.57044
1.48397
0.804286
0.489272
0.335725
0.253631
0.203964
0.171357
0.148505
0.132047
0.119459
0.109874
0.101995
0.0958323
0.0903442
0.085604
0.0814275
0.0772951
0.0741985
0.0708988
0.0680898
0.0657789
0.0637754
0.0617928
0.0597995
0.0579389
0.0565694
0.0555417
0.0548731
0.0541488
0.0534019
0.0524241
0.0514921
0.0503052
0.049204
0.0480447
0.0471807
0.0464051
0.0463184
0.0454686
0.0467891
0.0464702
0.0505928
0.0505505
0.0645446
0.0725635
0.0834572
0.115771
0.305993
0.335267
0.449803
0.572844
0.594794
21.9522
3.5707
1.4922
0.807195
0.49093
0.335855
0.253318
0.203878
0.171288
0.148193
0.131406
0.118618
0.108972
0.101025
0.0951246
0.0896701
0.0855243
0.0813246
0.0777666
0.0741106
0.0706612
0.0677843
0.0651718
0.0627163
0.0608995
0.0589414
0.0571341
0.0553839
0.053885
0.0524107
0.0512286
0.0500578
0.0490073
0.0479447
0.0470934
0.046118
0.0455182
0.0447646
0.0440909
0.0432707
0.04292
0.0424127
0.042317
0.0443359
0.0512981
0.0563341
0.0629326
0.0702437
0.0923188
0.1635
0.30915
0.549167
0.533277
0.902402
21.9522
3.57328
1.48544
0.803421
0.490264
0.33584
0.253372
0.203679
0.170768
0.147666
0.130992
0.118583
0.109099
0.101503
0.0955398
0.0902502
0.0856948
0.0816997
0.0777784
0.0739166
0.070822
0.0676816
0.0647926
0.0625449
0.060282
0.0582981
0.0564951
0.0546791
0.0531992
0.0518907
0.0507704
0.0498615
0.0487666
0.0480245
0.0469967
0.0462616
0.0453445
0.0445317
0.0439361
0.0437671
0.0427002
0.0430662
0.0429857
0.0456922
0.0471872
0.0531845
0.0592415
0.0812736
0.107037
0.179989
0.612642
0.687702
0.631822
0.756745
21.9521
3.57203
1.48816
0.805802
0.491414
0.336742
0.253771
0.20398
0.171001
0.147837
0.131029
0.118396
0.108959
0.101359
0.095389
0.0901703
0.0857623
0.0815153
0.0777919
0.0741269
0.0708569
0.067518
0.064901
0.0622978
0.0600068
0.0582588
0.0562234
0.0545599
0.0528759
0.0515629
0.050141
0.0491691
0.0479669
0.0470717
0.0460096
0.0452423
0.0443358
0.0438091
0.0429301
0.0422908
0.0422452
0.0409044
0.0422686
0.0414423
0.0411516
0.0475438
0.0469415
0.067494
0.0768823
0.114505
0.310696
0.336613
0.576895
0.618813
21.9519
3.57012
1.49023
0.806971
0.490831
0.336521
0.253895
0.20392
0.170689
0.14732
0.130489
0.118058
0.108633
0.101199
0.0952464
0.0901186
0.0856488
0.0816205
0.0777411
0.0740726
0.0706164
0.0674973
0.0646623
0.0618376
0.0597051
0.0575453
0.0557615
0.054036
0.0524587
0.0510881
0.0497562
0.0486923
0.0475716
0.0466679
0.0456956
0.044837
0.0440483
0.0432571
0.0426092
0.041887
0.0415261
0.0413645
0.0402011
0.0440748
0.0446318
0.0453777
0.0492033
0.0639347
0.101115
0.155196
0.419868
0.810617
1.13701
0.883082
21.9515
3.5698
1.49064
0.805136
0.490828
0.337197
0.254612
0.204631
0.171335
0.147899
0.130943
0.118242
0.108764
0.101203
0.0951979
0.0900543
0.0856291
0.0814427
0.0777189
0.0739688
0.0706871
0.0674639
0.0645917
0.0618224
0.0595257
0.0573614
0.0553941
0.0536013
0.0520154
0.0505681
0.0492917
0.0480028
0.0469512
0.0458694
0.0449369
0.0441161
0.0433506
0.0425451
0.0421059
0.041023
0.0407768
0.0393903
0.0389361
0.0385961
0.0389779
0.040614
0.0416763
0.0502229
0.0596702
0.0862752
0.167414
0.265293
0.383908
0.334024
21.9514
3.57006
1.489
0.806666
0.491696
0.33675
0.253777
0.203864
0.17058
0.147256
0.130258
0.117745
0.108119
0.100704
0.094521
0.0894865
0.0849429
0.0810011
0.0773224
0.0737124
0.0704966
0.0672987
0.0642748
0.0616162
0.0593253
0.0572238
0.0554243
0.0538176
0.0522433
0.0509454
0.0495304
0.0484345
0.0472192
0.0462625
0.0452073
0.0442669
0.0433574
0.0426276
0.0416909
0.0411608
0.0403652
0.0398686
0.0389138
0.039687
0.0398901
0.0402486
0.0448341
0.0496982
0.0582542
0.132799
0.23285
0.483615
0.527415
0.502354
21.9513
3.57067
1.48775
0.807093
0.49155
0.336711
0.253989
0.204269
0.171224
0.14752
0.130212
0.116998
0.107191
0.0996847
0.0938298
0.089034
0.0848923
0.0809765
0.0773914
0.0738679
0.0707545
0.0675364
0.0648047
0.0619434
0.0594476
0.0570511
0.0550439
0.0531102
0.051499
0.0499866
0.048697
0.047379
0.0462863
0.0450854
0.0441436
0.0430322
0.0422452
0.0414131
0.0405452
0.0395535
0.0388871
0.0387371
0.0368189
0.0372108
0.0407688
0.0389791
0.0407767
0.0502504
0.0658139
0.100829
0.173472
0.313398
0.577029
0.641994
21.9514
3.5694
1.4901
0.806734
0.491056
0.336586
0.253818
0.204037
0.170993
0.147864
0.130887
0.118288
0.10862
0.101082
0.0949933
0.089829
0.0853613
0.0813078
0.0775519
0.0741353
0.07082
0.0676281
0.0646791
0.0617099
0.0593071
0.0569807
0.0549895
0.0532385
0.0515843
0.0502336
0.0487651
0.0476034
0.0462649
0.0452256
0.0440219
0.0430608
0.0421287
0.0412953
0.040592
0.0399668
0.0390821
0.0380227
0.0374044
0.0368282
0.0395534
0.0383529
0.0480464
0.059541
0.0824043
0.211105
0.218431
0.569227
0.875129
1.04052
21.9513
3.56907
1.4891
0.806186
0.491391
0.336847
0.254109
0.204519
0.17165
0.14839
0.131349
0.118489
0.108541
0.10076
0.0944202
0.0891561
0.0846192
0.0804913
0.0767514
0.07322
0.0699608
0.0668921
0.0640302
0.0612917
0.0588285
0.0565287
0.054423
0.052624
0.0508989
0.0494735
0.0480273
0.0468311
0.0455891
0.0445158
0.0434926
0.0425217
0.0416702
0.0407254
0.0401259
0.0391994
0.038241
0.0369733
0.0358835
0.0357836
0.0354169
0.0355912
0.0372952
0.0432068
0.0518958
0.129497
0.107042
0.657829
0.736744
0.955274
21.9513
3.56901
1.48692
0.806547
0.491513
0.336812
0.253859
0.204178
0.171314
0.148226
0.131252
0.118557
0.108713
0.101031
0.0947942
0.0895545
0.085053
0.0809711
0.0772504
0.0737585
0.0705725
0.0674449
0.0644877
0.0617215
0.0591623
0.056822
0.0547021
0.0528608
0.0511336
0.0496808
0.0482516
0.0469806
0.0457767
0.0446577
0.0436629
0.0427909
0.0419063
0.0411519
0.0405486
0.0390217
0.0381918
0.0370141
0.0364518
0.0344277
0.0341056
0.0367623
0.0411795
0.0522889
0.113595
0.146474
0.223359
0.380399
0.991889
0.764239
21.9468
3.57383
1.49736
0.808912
0.49075
0.336
0.259431
0.214882
0.183655
0.159698
0.140991
0.12645
0.114973
0.10587
0.0983794
0.0921172
0.0867097
0.0819947
0.0777927
0.0740836
0.0707188
0.0676769
0.0647357
0.0621732
0.0595786
0.0574344
0.055401
0.0536505
0.0520485
0.0505315
0.0492455
0.0479148
0.0468242
0.045519
0.0444364
0.0430514
0.042173
0.0408992
0.0400589
0.0388684
0.0377675
0.0367619
0.036853
0.0373232
0.0380994
0.03988
0.0444982
0.0562051
0.0833137
0.153989
0.119182
0.976203
1.27592
1.35598
21.9486
3.5681
1.48411
0.802547
0.489297
0.336019
0.25358
0.203989
0.171549
0.149177
0.133023
0.12086
0.111153
0.103297
0.096618
0.0910015
0.0860661
0.0818023
0.0778949
0.0744857
0.0712291
0.0682487
0.0654064
0.0626604
0.0602165
0.0578368
0.0558811
0.0538148
0.0521827
0.0504642
0.0489649
0.0476105
0.0461346
0.0449889
0.0435188
0.0423172
0.0411042
0.039835
0.0386104
0.0372976
0.0360767
0.0354516
0.0352732
0.0353073
0.035017
0.0480876
0.0419171
0.0654731
0.103315
0.100216
0.169816
0.411195
0.74949
0.911671
0.0110734
0.0114716
0.0118167
0.0122024
0.0124753
0.0127749
0.01301
0.0132732
0.0135321
0.0137869
0.0140575
0.0142985
0.0145516
0.0147565
0.0149804
0.01514
0.0153298
0.0154377
0.0156335
0.0157303
0.0159294
0.0160453
0.0162993
0.0164784
0.0168563
0.0172986
0.017691
0.0183618
0.0187872
0.019489
0.0202179
0.0209798
0.0216167