/*--------------------------------*- C++ -*----------------------------------*\
| =========                 |                                                 |
| \\      /  F ield         | OpenFOAM: The Open Source CFD Toolbox           |
|  \\    /   O peration     | Version:  4.1                                   |
|   \\  /    A nd           | Web:      www.OpenFOAM.org                      |
|    \\/     M anipulation  |                                                 |
\*---------------------------------------------------------------------------*/
FoamFile
{
    version     2.0;
    format      ascii;
    class       volScalarField;
    location    "17";
    object      p;
}
// * * * * * * * * * * * * * * * * * * * * * * * * * * * * * * * * * * * * * //

dimensions      [0 2 -2 0 0 0 0];

internalField   nonuniform List<scalar> 
4432
(
108265
108265
108265
108264
108261
108257
108253
108251
108250
108251
108254
108256
108256
108253
108242
108224
108187
108111
108002
107839
107916
107966
107380
106892
106808
106877
106785
106568
106315
106048
105768
105371
105511
106086
107049
107048
106032
105866
105780
105647
105567
105208
105085
105200
105585
106455
106531
106273
107185
110191
112700
103108
72011.4
56046.5
108264
108264
108264
108263
108260
108256
108252
108250
108249
108251
108253
108255
108255
108251
108242
108223
108185
108109
107979
107770
107652
107908
107846
107372
106874
106882
106897
106467
106060
105830
105738
105516
105815
105928
105981
106047
106056
105880
105617
105483
105471
105496
105580
105698
105924
106356
106686
106316
107224
109788
113494
104760
72599.2
55611.4
108258
108257
108256
108253
108249
108243
108237
108233
108232
108232
108235
108240
108245
108250
108257
108262
108260
108211
108061
107880
107784
107808
107616
107333
106922
106454
105963
105669
105520
105560
105810
105858
105674
105620
105671
105728
105664
105469
105227
105144
105106
104963
104808
104747
104891
105379
105660
105207
105571
107985
111366
102729
70786
82582.9
108258
108256
108255
108252
108248
108242
108236
108232
108231
108232
108235
108239
108244
108249
108255
108263
108263
108204
108047
107853
107766
107797
107646
107302
106812
106303
105928
105633
105458
105568
105734
105791
105789
105860
105910
105720
105510
105256
105090
105059
105127
105110
105019
105090
105312
105731
105962
105698
106602
109011
112638
104606
71131.8
81855.1
108251
108250
108249
108247
108241
108234
108227
108220
108215
108213
108213
108216
108223
108235
108256
108281
108318
108271
108062
107795
107755
107716
107522
107189
106753
106272
105818
105543
105481
105650
105803
105713
105700
105938
105799
105597
105482
105435
105403
105472
105375
105229
105067
104826
104429
103931
103707
103147
103394
103917
102611
97789.9
82764.3
94096.9
108250
108249
108248
108246
108240
108233
108226
108219
108214
108212
108212
108216
108223
108235
108256
108286
108328
108262
108010
107796
107748
107706
107545
107235
106769
106233
105765
105477
105438
105608
105681
105570
105556
105752
105797
105601
105402
105253
105222
105257
105322
105124
104891
104707
104507
104347
103932
103613
103893
104512
103795
99842.7
81816.2
91613.5
108242
108241
108239
108236
108230
108222
108213
108204
108198
108193
108192
108193
108199
108210
108230
108251
108275
108195
107961
107687
107655
107688
107636
107369
106993
106491
106014
105652
105519
105585
105600
105422
105468
105750
105530
105333
105175
105160
105195
105249
105012
104636
104453
104288
103934
103428
103269
102485
102818
104527
105160
99252.7
85728.9
84833.9
108241
108240
108238
108235
108229
108221
108212
108204
108197
108193
108191
108193
108199
108211
108231
108257
108275
108188
107922
107698
107658
107688
107622
107406
106999
106480
105992
105664
105576
105612
105590
105410
105345
105623
105558
105405
105252
105165
105189
105237
105137
104742
104558
104251
103837
103354
102769
102316
102271
104123
105709
99890.3
84366.3
82856.1
108230
108228
108227
108223
108216
108206
108196
108186
108178
108171
108167
108166
108168
108173
108180
108180
108164
108082
107845
107610
107561
107654
107634
107495
107257
106778
106395
106057
105817
105744
105741
105630
105382
105408
105370
105108
104999
104995
104950
104789
104837
104002
103820
103711
103725
103920
103461
102349
102210
103613
105216
100816
89381.2
95675.9
108229
108228
108226
108222
108215
108205
108195
108185
108177
108171
108167
108166
108168
108174
108181
108183
108164
108061
107838
107629
107609
107683
107642
107501
107235
106790
106379
106029
105846
105767
105740
105609
105461
105471
105245
105130
105076
105052
105028
104993
104725
104134
104038
103809
103467
103121
102585
102010
102053
103534
105365
101306
88803.5
94415
108216
108214
108212
108207
108199
108188
108177
108165
108155
108146
108139
108134
108131
108126
108119
108099
108055
107971
107809
107649
107591
107636
107623
107442
107325
107045
106744
106466
106089
105905
105785
105635
105377
105308
105195
104771
104712
104739
104707
104439
103951
103542
103745
103656
103513
103925
103408
102509
102254
102927
103578
99232.1
89594.3
93900.6
108215
108213
108211
108206
108198
108187
108176
108164
108154
108146
108139
108134
108130
108126
108119
108100
108057
107965
107805
107658
107615
107636
107597
107517
107302
107023
106731
106397
106079
105874
105743
105560
105388
105100
104902
104812
104775
104794
104790
104679
104191
103861
103770
103734
103602
103401
102890
102277
102240
103113
103730
99153.5
89632.3
94901.4
108200
108198
108195
108190
108181
108169
108156
108143
108130
108119
108108
108099
108089
108076
108057
108025
107971
107891
107780
107665
107616
107633
107607
107477
107234
107121
107006
106771
106306
105928
105680
105473
105341
105201
104618
104955
104312
104435
104555
104531
104273
104202
104287
104082
103719
103606
103133
102626
102446
102691
102486
98685.1
91329.7
91612.5
108199
108197
108195
108189
108180
108168
108155
108142
108129
108118
108108
108098
108088
108076
108057
108025
107972
107890
107772
107663
107621
107640
107590
107476
107295
107142
106974
106656
106277
105961
105673
105399
105174
104908
104619
104447
104392
104500
104624
104610
104403
104301
104280
104137
103924
103773
103277
102744
102640
102885
102622
98498.6
91012.9
91770.9
108182
108180
108177
108171
108161
108148
108134
108119
108104
108090
108077
108062
108046
108027
108000
107963
107907
107834
107742
107645
107588
107604
107622
107522
107134
107096
107049
106738
106344
105942
105627
105320
105040
104747
104396
104085
104131
104346
104628
104821
104819
104873
104977
104637
104038
103585
103183
102929
102867
102892
102449
99187.9
92589.8
95609.1
108181
108180
108177
108170
108160
108147
108133
108118
108104
108090
108076
108062
108046
108027
108001
107963
107908
107834
107739
107641
107583
107592
107588
107492
107290
107153
106955
106680
106323
105961
105627
105291
104971
104705
104406
104173
104157
104349
104641
104804
104796
104799
104743
104438
104154
103998
103655
103295
103065
102968
102595
99152
91877.6
94090.9
108163
108161
108158
108151
108140
108126
108111
108094
108078
108062
108045
108027
108007
107983
107952
107913
107861
107795
107717
107635
107569
107546
107554
107474
107221
107062
106866
106596
106280
105930
105602
105290
104983
104676
104355
104146
104185
104444
104816
105179
105492
105649
105689
105323
104549
103771
103317
103122
103065
102986
102082
98765.6
92834.2
96062.3
108163
108161
108157
108150
108139
108126
108110
108094
108078
108061
108045
108027
108007
107983
107953
107914
107862
107796
107717
107632
107564
107530
107526
107468
107271
107066
106843
106563
106251
105921
105601
105282
104973
104683
104381
104175
104203
104397
104732
105077
105361
105483
105337
104892
104402
103980
103687
103412
103203
102961
102185
98992
92345.3
95142
108144
108142
108138
108131
108119
108104
108088
108070
108053
108034
108015
107995
107972
107945
107914
107875
107829
107772
107707
107638
107571
107514
107470
107395
107179
106916
106684
106471
106229
105934
105623
105323
105034
104750
104470
104295
104318
104553
104941
105454
106037
106436
106482
106079
105188
104048
103152
102775
102629
102299
101244
98764.9
94952
97028.5
108143
108141
108138
108130
108118
108104
108087
108070
108052
108034
108015
107995
107972
107945
107914
107876
107830
107773
107708
107636
107567
107506
107452
107373
107193
106942
106718
106486
106218
105919
105617
105318
105026
104756
104497
104324
104334
104529
104886
105331
105799
106123
106050
105546
104857
104095
103423
103176
103071
102695
101726
99207.6
94028.1
95323.5
108124
108122
108118
108110
108098
108082
108065
108047
108028
108009
107988
107966
107941
107914
107883
107848
107808
107761
107709
107651
107589
107520
107444
107334
107117
106829
106582
106389
106191
105944
105668
105391
105122
104873
104648
104501
104514
104715
105080
105579
106168
106767
107025
106777
105761
104385
103135
102377
101941
101356
100205
98195.4
95223.9
90073.8
108123
108121
108117
108109
108097
108082
108065
108046
108028
108008
107988
107966
107942
107915
107884
107849
107809
107763
107710
107651
107588
107520
107438
107316
107114
106850
106617
106423
106205
105946
105668
105389
105122
104879
104667
104529
104538
104719
105054
105498
105989
106435
106580
106122
105238
104213
103283
102739
102502
102087
100980
99286.8
95387.2
89788
108104
108102
108098
108089
108077
108061
108043
108025
108005
107985
107964
107941
107916
107889
107860
107829
107796
107759
107719
107676
107628
107570
107488
107338
107079
106772
106537
106367
106199
105996
105763
105521
105288
105076
104899
104789
104798
104953
105241
105635
106106
106584
106994
107070
106274
104934
103536
102436
101620
100781
99586.7
98223.3
96037.2
91134.3
108103
108101
108097
108089
108076
108060
108043
108024
108005
107985
107964
107941
107916
107890
107861
107830
107797
107760
107720
107677
107629
107571
107487
107333
107076
106781
106555
106388
106214
106004
105767
105523
105290
105082
104911
104804
104810
104954
105227
105592
106005
106381
106603
106395
105609
104505
103393
102501
101893
101318
100505
100012
97141.7
95329.8
108084
108082
108078
108069
108056
108040
108023
108004
107984
107964
107942
107919
107895
107869
107843
107816
107789
107761
107734
107708
107684
107655
107594
107410
107030
106663
106508
106410
106289
106132
105947
105753
105565
105396
105261
105178
105174
105265
105444
105691
105978
106268
106480
106531
106075
105092
103902
102796
101852
100904
99694.2
97965.9
95943.5
90289.1
108084
108081
108077
108068
108056
108040
108022
108003
107984
107964
107942
107919
107895
107870
107844
107817
107790
107763
107736
107710
107686
107659
107603
107404
107019
106660
106510
106416
106296
106136
105949
105752
105562
105394
105260
105177
105173
105262
105438
105672
105933
106166
106274
106130
105581
104677
103641
102670
101843
101030
99986.2
98547.6
96511.3
90511.6
108065
108063
108058
108049
108037
108021
108003
107984
107965
107945
107924
107901
107878
107853
107829
107806
107784
107764
107748
107740
107748
107775
107814
107616
107009
106373
106442
106473
106427
106328
106201
106061
105923
105799
105699
105630
105604
105625
105682
105761
105853
105931
105943
105817
105436
104749
103864
102925
101999
100980
99685.3
97667.6
95133
89449.4
108064
108062
108057
108049
108036
108020
108003
107984
107965
107945
107924
107901
107878
107854
107830
107807
107785
107766
107750
107741
107751
107788
107840
107617
106983
106351
106425
106466
106428
106331
106203
106062
105923
105799
105700
105637
105614
105635
105693
105762
105837
105889
105856
105655
105206
104507
103658
102766
101878
100889
99616.7
97606.7
95046.4
89351.6
108046
108044
108039
108030
108018
108002
107985
107967
107948
107928
107908
107886
107864
107841
107819
107798
107779
107764
107753
107754
107784
107875
108029
108185
106233
106154
106508
106640
106649
106591
106509
106417
106324
106240
106169
106117
106072
106022
105955
105858
105762
105661
105518
105281
104893
104329
103623
102821
101936
100877
99473.4
97359.5
94450.8
89269.6
108045
108043
108039
108030
108017
108002
107985
107966
107948
107928
107908
107886
107864
107841
107820
107799
107780
107765
107754
107756
107784
107877
108028
108009
106111
105997
106471
106630
106651
106597
106515
106424
106331
106248
106189
106154
106105
106054
105985
105865
105751
105636
105477
105218
104806
104228
103520
102721
101832
100756
99328.3
97194.6
94279.5
89142
108028
108026
108021
108013
108000
107985
107968
107951
107932
107914
107894
107873
107852
107830
107809
107790
107772
107756
107744
107737
107744
107777
107984
108485
106087
106578
106795
106867
106857
106821
106777
106728
106680
106639
106600
106527
106404
106196
105929
105679
105448
105209
104921
104539
104042
103435
102721
101869
100778
99277
97073.8
94019.2
89130.3
108027
108025
108021
108012
108000
107985
107968
107950
107932
107914
107894
107873
107852
107831
107810
107791
107773
107758
107745
107738
107740
107770
107942
107592
105920
106559
106810
106892
106880
106842
106795
106745
106699
106668
106681
106584
106428
106238
105917
105657
105418
105175
104882
104495
103995
103385
102663
101793
100673
99144.4
96940
93858.9
89071.3
108011
108009
108004
107996
107984
107969
107953
107936
107919
107901
107882
107863
107842
107821
107801
107781
107763
107743
107722
107695
107650
107553
107307
106843
106082
106460
106870
107022
107034
107019
107006
106996
106983
106965
106931
106874
106753
106543
106214
105876
105557
105258
104976
104677
104317
103872
103338
102693
101865
100719
99065
96671
93672.9
88841.6
108011
108008
108004
107995
107983
107969
107953
107936
107919
107901
107882
107863
107843
107822
107802
107782
107764
107744
107723
107695
107647
107547
107286
106748
105755
106464
106888
107047
107062
107046
107031
107018
107003
106980
106941
106903
106767
106484
106122
105808
105515
105222
104938
104636
104276
103834
103299
102642
101792
100626
98986
96682.1
93608.8
88912.2
107995
107993
107988
107980
107969
107955
107939
107923
107907
107890
107872
107854
107834
107814
107794
107774
107753
107729
107698
107653
107582
107460
107277
107021
106784
106767
106971
107077
107104
107106
107103
107103
107102
107091
107056
106955
106727
106381
105955
105756
105476
105159
104864
104567
104222
103811
103336
102761
101962
100744
98905.5
96309.8
93407.5
88572.8
107995
107993
107988
107980
107968
107954
107939
107923
107907
107890
107872
107854
107834
107815
107795
107774
107753
107729
107698
107653
107580
107458
107270
107008
106763
106764
106976
107088
107121
107125
107122
107119
107113
107091
107037
106889
106488
105984
104273
104874
105280
105105
104827
104517
104170
103766
103291
102696
101869
100654
98889.9
96457.4
93507
88678.4
107980
107978
107974
107966
107955
107942
107927
107912
107897
107881
107864
107846
107827
107808
107788
107767
107744
107716
107681
107631
107560
107460
107338
107191
107043
106996
107064
107133
107165
107174
107179
107193
107216
107251
107259
107142
106438
105112
104724
104988
105394
105215
104932
104617
104245
103840
103432
102962
102216
100944
98980
96297.8
93281.5
88347.9
107980
107978
107974
107966
107954
107941
107927
107912
107897
107881
107864
107846
107828
107808
107788
107767
107744
107717
107681
107631
107559
107460
107337
107189
107038
106991
107060
107132
107167
107179
107187
107201
107220
107232
107222
107130
105321
102039
98312.2
101108
103234
105074
104930
104592
104208
103803
103378
102851
102060
100801
98921.7
96425.1
93673.7
88612.3
107966
107965
107960
107953
107942
107930
107916
107902
107888
107873
107857
107840
107822
107803
107783
107761
107737
107708
107672
107623
107559
107479
107385
107285
107190
107143
107154
107186
107208
107222
107245
107292
107358
107494
107573
107027
103258
95635.6
96617.2
101002
102829
105042
105175
104836
104381
103947
103602
103239
102545
101294
99358.3
96691.5
93442.8
88356.1
107966
107964
107960
107953
107942
107930
107916
107902
107888
107873
107857
107840
107823
107804
107783
107762
107738
107709
107672
107623
107559
107478
107385
107285
107189
107140
107150
107182
107205
107223
107249
107301
107375
107477
107454
107090
99078.1
89392.3
89701.8
95556.5
98932.7
103757
105201
104858
104402
103934
103524
103051
102292
101033
99155.3
96857.3
94090.2
88755.7
107954
107952
107948
107941
107931
107919
107907
107894
107880
107866
107851
107835
107818
107800
107780
107758
107733
107704
107668
107622
107565
107496
107420
107342
107271
107222
107203
107201
107204
107215
107248
107317
107412
107598
107350
99962.3
91204.4
88551.6
92483.3
97423.1
98666.1
104688
105604
105185
104598
104105
103776
103445
102759
101623
99950.7
97445.8
93919.9
91975.4
107954
107952
107948
107941
107931
107919
107907
107894
107880
107866
107852
107836
107818
107800
107780
107758
107734
107704
107668
107622
107564
107496
107420
107342
107270
107220
107199
107197
107201
107214
107254
107352
107493
107606
107143
99981.8
85914
81798
88221.2
91303.3
98605.4
104461
105759
105239
104653
104123
103683
103215
102463
101282
99649.4
97889.8
94833.8
89659.7
107943
107941
107938
107931
107921
107910
107898
107886
107874
107861
107847
107832
107815
107797
107777
107756
107731
107702
107667
107624
107572
107511
107444
107376
107312
107257
107216
107186
107166
107157
107166
107201
107285
107202
105752
89928.1
84642.8
86235.1
93985.8
95981.5
102251
106481
106226
105536
104825
104297
103959
103596
102897
101797
100186
97572.5
94482.1
96395.7
107943
107941
107937
107930
107921
107910
107898
107886
107874
107861
107847
107832
107815
107797
107778
107756
107731
107702
107667
107623
107571
107510
107444
107375
107311
107255
107213
107182
107162
107154
107163
107223
107438
107164
98667
83280.8
79108.5
83559.5
91476.4
98036.2
104759
106713
106340
105564
104861
104318
103891
103447
102688
101545
100093
98507.9
95648.2
95896.3
107933
107932
107928
107922
107913
107902
107891
107880
107868
107856
107843
107829
107813
107795
107776
107754
107730
107701
107667
107626
107577
107521
107459
107393
107328
107264
107205
107152
107105
107062
107013
106967
106912
106213
94849.8
82395.4
85063.3
91464.3
97735.1
100564
103868
106660
106632
105785
105085
104611
104277
103931
103337
102218
100595
97323.4
92584.7
91557
107933
107932
107928
107921
107912
107902
107891
107880
107868
107856
107843
107829
107813
107795
107776
107755
107730
107701
107667
107626
107576
107520
107458
107392
107326
107262
107202
107149
107102
107056
107007
106900
106810
103012
83301.3
76135.9
83433.5
89916
97854.2
101341
104291
107522
106581
105714
105045
104574
104259
103890
103179
101899
100282
98198.8
95257.5
97634.7
107925
107923
107920
107914
107905
107895
107885
107874
107864
107852
107840
107826
107811
107794
107775
107754
107730
107701
107668
107628
107580
107526
107465
107398
107328
107255
107180
107105
107030
106959
106824
106796
106331
89542.5
74749.4
78820
90015.9
95167.7
100312
102384
106703
106761
106194
105826
105311
104986
104645
104258
103872
103241
102524
99788.4
92458.5
94119.9
107925
107923
107920
107913
107905
107895
107885
107874
107864
107852
107840
107826
107811
107794
107775
107754
107730
107701
107667
107627
107579
107525
107463
107396
107326
107252
107176
107102
107028
106949
106852
106564
103477
95560.4
75313.2
81263.2
91721.1
95558.1
99977
93630
106338
107501
106200
105503
105114
104899
104655
104269
103762
102779
101597
99077.1
93406.9
90453.9
107918
107916
107913
107907
107899
107890
107880
107870
107860
107849
107838
107825
107810
107793
107775
107754
107729
107701
107668
107628
107581
107527
107464
107395
107318
107233
107143
107048
106944
106836
106639
105809
105543
87116.7
82298.8
88989.7
98603
102884
107251
105104
107668
106181
105465
105563
105406
105239
104792
104163
103866
103878
104195
101397
91293.9
93436.2
107918
107916
107913
107907
107899
107890
107880
107870
107860
107849
107838
107825
107810
107793
107775
107754
107729
107701
107667
107627
107580
107525
107463
107393
107315
107231
107140
107045
106943
106840
106709
106260
102952
85862.5
83188.1
91387.4
99491.7
104309
110413
108146
106487
106643
105421
105234
105171
105154
104824
104213
103739
103502
103433
100575
91658.3
94199.1
107912
107910
107907
107901
107894
107885
107876
107867
107857
107847
107836
107823
107809
107793
107774
107753
107729
107701
107667
107627
107580
107524
107460
107387
107302
107207
107102
106985
106857
106719
106608
106663
110944
115658
105669
107343
112088
110392
106779
107133
106526
105342
104958
105343
105459
105472
104670
103667
103302
102691
101486
96447.2
87393.4
93011.2
107912
107910
107907
107901
107894
107885
107876
107867
107857
107847
107836
107823
107809
107793
107774
107753
107729
107700
107667
107626
107579
107523
107458
107384
107300
107204
107099
106982
106851
106713
106559
106457
108427
103447
101792
107528
111758
111874
112725
106542
105836
105410
104921
105175
105276
105454
104705
103628
102946
102123
100935
96149.9
87558.9
92082.1
107907
107906
107903
107897
107890
107881
107873
107864
107855
107845
107834
107822
107808
107792
107774
107753
107729
107700
107666
107626
107577
107520
107454
107376
107285
107179
107060
106923
106772
106602
106442
106251
106558
109582
109606
110916
113058
112308
108995
107353
105985
105045
104915
105278
105537
105677
104971
104235
103787
102220
100088
94784.9
85302.4
95213.2
107907
107906
107902
107897
107890
107881
107873
107864
107855
107845
107834
107822
107808
107792
107774
107753
107729
107700
107666
107625
107576
107519
107452
107373
107282
107176
107058
106915
106754
106580
106384
106010
106320
107173
109357
112471
114873
112810
109604
106716
105639
104907
104856
105119
105402
105824
105083
104015
103334
101990
100210
94416.6
85069.6
95175.9
107904
107902
107899
107894
107887
107879
107870
107862
107853
107844
107833
107821
107808
107792
107774
107753
107728
107699
107665
107623
107574
107515
107446
107365
107268
107155
107025
106876
106708
106515
106298
106065
105680
105972
106614
108164
109757
110340
107752
105943
105020
104385
104623
105148
105394
105275
104437
104087
104141
103882
103277
96420.9
79941.1
88814
107904
107902
107899
107894
107887
107879
107870
107862
107853
107844
107833
107821
107808
107792
107774
107753
107728
107699
107664
107622
107573
107514
107444
107362
107265
107152
107022
106870
106700
106503
106270
105888
105516
105659
107221
109272
110941
110415
108273
106077
104739
104327
104587
105042
105381
105594
104940
104161
103786
103769
103656
96943.1
80408.3
88855.6
107901
107900
107897
107892
107885
107877
107869
107861
107852
107843
107833
107821
107808
107792
107774
107753
107728
107698
107663
107621
107570
107511
107439
107355
107254
107136
107000
106844
106666
106463
106231
105976
105647
105296
104972
104888
103682
102791
101602
101800
102766
103266
103762
104842
105279
104897
104368
104686
106592
110310
114569
107053
73751.7
78130.9
107901
107900
107897
107892
107885
107877
107869
107861
107852
107843
107833
107821
107808
107792
107774
107753
107728
107698
107662
107620
107569
107509
107437
107352
107251
107133
106997
106840
106661
106450
106218
105969
105643
105574
105490
105604
106160
104474
102674
102443
102939
103423
103983
104963
105458
105263
104819
104710
106170
109957
114617
107201
73192.6
78224.5
107900
107899
107895
107890
107883
107876
107868
107860
107851
107842
107832
107821
107807
107792
107774
107752
107727
107697
107661
107618
107567
107506
107433
107346
107243
107122
106983
106824
106643
106439
106209
105953
105624
105159
104535
103620
102282
100661
99783.1
100031
100967
102643
104095
104783
105160
104630
105319
106901
109055
115321
120587
111103
77694.7
56612.3
107900
107899
107895
107890
107883
107876
107868
107860
107851
107842
107832
107821
107807
107792
107773
107752
107726
107696
107660
107617
107565
107504
107430
107343
107240
107119
106979
106821
106640
106434
106208
105962
105659
105249
104676
103660
102318
100735
99656.5
99826.2
100802
103299
104186
104840
105244
104944
104956
106196
109653
115520
120932
111462
77593.4
56223.8
107021
108129
106882
108873
108443
105907
106089
105823
105841
105570
106872
107809
106693
108110
107885
105790
106093
105830
105509
105622
108204
106997
105902
106926
105665
105944
105670
105856
106088
105586
105811
107827
106902
105494
106970
105291
105592
105654
105404
105729
105052
105798
107395
107621
107396
107809
107462
107808
107464
106654
106997
106640
106707
106251
106700
106243
107389
107572
107321
107788
107468
107714
107339
106629
106934
106601
106722
106232
106597
106189
108222
108041
108238
108117
108455
108135
108481
104557
105768
106199
105771
104391
106315
106084
106284
105982
106218
105873
106159
108215
107942
108104
108072
108335
107990
108220
104252
105722
105945
105676
104516
106223
106015
106219
105791
106097
105835
106107
108167
107994
108198
107678
107565
107675
107554
105975
108471
107797
107755
106263
105758
106070
106344
105968
106275
106221
106416
106107
106357
108077
107881
107975
107644
107492
107622
107478
104920
107624
107335
105179
107295
104719
105305
106227
105934
106222
106085
106334
106091
106324
106418
106809
106327
106922
106643
106903
106602
106046
105924
105908
106407
106401
106347
106350
106189
106755
106177
106869
106545
106871
106541
105833
105734
105871
106280
106317
106271
106315
108481
107722
106966
107689
108563
108425
106956
107707
107689
107976
108975
108846
108868
108842
109080
108816
109006
108840
108453
108718
108732
108143
108601
106848
104714
106168
105710
105783
104724
104417
104221
105061
105833
105773
105782
105019
104558
104540
105025
105578
105637
105644
104881
110022
107668
106593
107373
107816
108298
106525
107160
107178
105706
109341
108215
108416
108225
108879
117083
106039
108966
110493
108042
108061
122773
108940
106621
104140
105822
105558
105503
104138
104162
104359
104696
105520
105499
104742
105516
103960
103975
104727
105619
105591
105603
104724
104979
105262
105785
108400
107633
107747
105429
104745
104503
105096
106128
105914
106127
105318
105003
105811
105931
104839
106051
105798
105869
106008
105898
106105
105627
105327
105671
105733
105695
105763
105488
105697
105949
105855
105886
106037
105576
105758
105638
105474
105746
103705
104273
105244
107868
107643
107520
105435
104041
103200
104545
105832
105288
104708
105730
104642
105231
105811
105749
105007
104903
105536
105611
105338
105557
103162
150322
104565
105626
105546
105610
103773
105046
105417
105120
105337
105260
104380
105078
105008
105153
102687
108592
108128
108191
108536
108114
108542
108614
108914
107951
107843
108081
107769
108204
107876
108577
108179
108030
108387
108100
108519
108471
105529
105756
105892
105820
105748
105828
105470
105499
105874
105692
105646
105759
105728
105391
108373
107890
107468
109207
107657
108349
108968
105109
105631
105797
105544
105618
105182
105492
105162
105761
105617
105584
105555
105568
105090
106388
107208
106560
106983
107180
106533
106451
106328
107107
106981
106440
107182
106256
106511
105883
106082
106018
105974
105944
105900
106051
105715
105729
105864
105690
105796
105601
105769
106283
107062
106458
106879
106259
107029
106439
106437
107218
106896
106584
107098
106473
106619
105400
105657
105514
105775
105483
105609
105529
105079
105586
105815
105440
105611
105471
104728
104397
105129
103515
104449
105074
104436
103345
104151
105008
104792
104380
104221
104846
104725
104279
104243
104386
104961
103349
105006
103226
104385
104455
104857
104234
103549
104866
104288
103636
104271
104843
104403
104471
104434
104386
104977
103778
104477
104915
103664
104125
103809
104079
103827
107314
106456
106800
106028
106535
107212
106835
108049
108734
108738
108124
107972
108535
108639
107855
107390
106091
106786
106959
106630
106898
107452
105881
105974
105608
104096
104942
106367
104372
105726
106079
104830
105578
105117
105516
105759
110810
107467
106141
105461
104933
104806
106202
105844
104071
106121
103865
104647
107383
108125
107815
108508
108140
107368
107809
106622
105860
105693
106705
106450
105659
105539
106503
107446
108560
108171
107962
108175
107870
107554
107465
108134
107724
108377
107369
108133
107754
107017
106418
106205
107217
106665
105709
106516
105840
107630
108247
108137
88321.6
108163
107470
107602
109183
108928
109147
109054
108979
109249
109096
109266
109130
109156
109237
109185
108958
109061
109087
109229
109111
108981
109339
109008
109339
109192
108896
108972
108546
108844
108691
108743
108744
108859
107900
107747
106561
107051
107384
108250
108505
108568
108758
108571
107423
107965
108289
108564
108735
108090
108473
108143
104677
105210
103762
104771
104570
105226
103901
104689
105382
104671
105296
104559
104886
104374
105048
104688
104762
105095
103973
104618
105185
103963
104350
104266
105520
105493
105221
105058
105536
105226
105482
105738
105938
105903
105811
105725
105830
105693
105848
105504
104984
105475
105202
105500
105192
105538
104629
104584
105339
105400
104991
105138
105355
105376
105095
105464
105569
105420
105575
105264
104965
105236
105004
105291
105044
105202
105540
105717
105591
105640
106143
107003
108600
107895
107462
105910
105342
105497
105473
104864
106126
106493
107976
107954
105419
107657
106965
105618
104729
103943
104152
104520
106168
106972
107509
107595
106076
107137
106483
103713
103572
103669
103419
105466
104471
105149
104799
105134
106127
106175
105087
106515
105160
105106
112797
109833
109836
109880
109725
106884
109789
133561
106378
111767
106228
109960
108575
108560
121861
109120
107742
108530
113643
116572
110911
113420
114503
108636
116226
109019
112226
110006
112194
109226
106021
109240
102768
105775
117398
108936
111710
110698
108681
119742
111705
111099
113190
110837
104848
125244
109227
109622
104137
104767
103282
104170
104148
104808
103200
103749
102528
104264
104011
103750
103959
103753
104179
104321
104163
104855
103504
104818
103360
104992
104219
104243
105252
104672
105164
104948
105148
104936
105264
105418
105522
105394
105506
105224
104698
105163
104964
105202
105149
104950
105440
105536
105466
105499
104003
103999
105416
105246
104992
104747
105298
105373
105027
105536
105584
105520
105603
105549
105582
105531
105539
105377
104705
105241
105087
105241
105057
105415
105031
105062
106846
106062
106710
105633
107007
105711
106617
106890
106518
106411
107246
107288
108167
107558
107782
106583
105561
105333
106438
106333
105509