/*--------------------------------*- C++ -*----------------------------------*\
| =========                 |                                                 |
| \\      /  F ield         | OpenFOAM: The Open Source CFD Toolbox           |
|  \\    /   O peration     | Version:  4.1                                   |
|   \\  /    A nd           | Web:      www.OpenFOAM.org                      |
|    \\/     M anipulation  |                                                 |
\*---------------------------------------------------------------------------*/
FoamFile
{
    version     2.0;
    format      ascii;
    class       volVectorField;
    location    "17";
    object      U;
}
// * * * * * * * * * * * * * * * * * * * * * * * * * * * * * * * * * * * * * //

dimensions      [0 1 -1 0 0 0 0];

internalField   nonuniform List<vector> 
4432
(
(39.9141 0.00105523 0.0942133)
(39.9474 0.0310435 0.169499)
(40.0617 0.043416 0.272999)
(40.0239 0.0508208 0.401412)
(39.8207 0.0586816 0.55107)
(39.4381 0.06654 0.721353)
(38.8509 0.0741666 0.909634)
(38.0314 0.081537 1.11334)
(36.9605 0.0889086 1.32749)
(35.632 0.0972416 1.5416)
(34.0648 0.106245 1.74022)
(32.2968 0.116903 1.89012)
(30.434 0.139808 1.94563)
(28.6091 0.152898 1.91453)
(26.9227 0.118869 1.59261)
(26.5688 0.129158 1.22223)
(25.7 0.21998 0.893738)
(25.6185 0.268054 -0.0848185)
(25.6597 0.076412 -0.205962)
(28.4506 0.269846 -1.45078)
(29.9073 0.0628978 -2.57344)
(29.7234 0.582122 -1.63475)
(33.51 0.814423 -2.54146)
(40.7631 0.177527 -6.8367)
(49.881 -0.252349 -11.447)
(59.0241 0.146108 -12.8383)
(66.6785 0.380348 -10.9561)
(71.0129 -0.084508 -6.83789)
(70.4318 0.0714274 -2.11249)
(66.4175 0.454194 2.2245)
(60.5164 0.609178 6.00722)
(53.9282 0.239312 8.32236)
(48.8764 -0.602085 7.24784)
(37.866 -2.75656 5.87555)
(17.6483 -2.65487 7.68926)
(13.1228 4.50661 3.62562)
(-7.09808 2.43669 -9.85784)
(-9.3606 5.33178 -17.2275)
(-7.65259 5.60148 -19.5996)
(-2.84218 6.13325 -22.0809)
(0.943047 4.73143 -27.2574)
(12.8673 4.02788 -29.058)
(26.5357 -1.03608 -21.8754)
(33.2781 -5.78644 -12.0571)
(33.4271 -6.67441 -4.92366)
(33.0181 -11.6223 -1.30999)
(28.3448 -13.6342 8.6044)
(28.2967 -16.9848 21.0037)
(11.158 -17.3596 10.7325)
(7.69354 -17.2758 16.4549)
(-8.40854 -25.2915 28.9222)
(30.3594 -23.9611 -47.072)
(105.46 -13.8085 -70.0412)
(195.139 -1.41514 -91.8141)
(39.9119 0.00105681 0.0942585)
(39.9541 0.0310491 0.169741)
(40.0563 0.0434842 0.274108)
(40.0146 0.0509728 0.402938)
(39.8106 0.0589038 0.55278)
(39.4265 0.0668378 0.722994)
(38.8374 0.0745435 0.910597)
(38.0174 0.0820083 1.11302)
(36.9479 0.0894789 1.32502)
(35.6242 0.0979269 1.53602)
(34.0673 0.106958 1.72793)
(32.3118 0.117887 1.87764)
(30.453 0.141016 1.94316)
(28.6629 0.155723 1.86818)
(27.0316 0.118509 1.62023)
(26.2965 0.120906 1.23278)
(25.4322 0.239201 0.705303)
(25.2548 0.285917 -0.0716716)
(25.8042 0.0630893 -0.413284)
(28.5426 0.206412 -2.12814)
(30.842 -0.0103059 -3.68374)
(30.8121 0.329427 -3.71454)
(32.343 0.681981 -3.33681)
(38.7372 0.205531 -4.81524)
(49.3842 -0.336719 -7.8821)
(61.1207 -0.144425 -9.16476)
(69.9988 -0.145881 -6.59591)
(73.1701 -0.823541 -1.85267)
(72.1332 -0.747728 2.11657)
(67.9554 -0.334637 4.88723)
(61.8467 0.169277 6.06496)
(55.6667 0.437911 7.61348)
(49.875 0.647421 7.55953)
(39.3872 -2.53655 6.35299)
(22.682 -0.144165 3.16578)
(17.935 -3.20139 4.23995)
(13.0932 13.4307 8.87946)
(-1.87614 9.42393 -0.424465)
(-4.16023 8.68689 -5.86166)
(-7.6562 10.3561 -6.75245)
(-8.06883 11.4058 -6.20198)
(6.43077 8.6892 -7.54441)
(16.8015 2.3414 -8.23382)
(24.8336 -1.73726 -7.20997)
(27.5391 -3.06842 -4.4749)
(42.9467 -3.06208 -4.29545)
(49.4466 -1.07546 3.9789)
(47.1847 2.23223 6.58423)
(51.8817 1.98931 -22.9757)
(68.4855 2.55834 -24.478)
(72.4444 -8.22258 -39.4184)
(25.6924 -18.0111 -93.8816)
(7.79963 -1.2669 -74.3669)
(136.585 5.8832 -84.2455)
(39.9578 0.000831984 0.123436)
(40.2161 0.0320161 0.198068)
(40.6589 0.0455414 0.332702)
(41.1392 0.0536 0.521761)
(41.6656 0.061995 0.734409)
(42.2382 0.0702833 0.980568)
(42.8379 0.0781106 1.26463)
(43.4352 0.0855093 1.5922)
(43.9936 0.0924028 1.96579)
(44.4677 0.0997761 2.38281)
(44.8034 0.107732 2.82763)
(44.9358 0.115378 3.26307)
(44.8245 0.131003 3.64618)
(44.3649 0.138993 3.89859)
(43.8251 0.170876 4.06651)
(42.2833 0.154936 3.4982)
(42.2431 0.245409 3.3681)
(40.2168 0.204628 2.95371)
(39.6949 0.168794 1.22378)
(38.1127 0.18222 -0.467534)
(34.8168 0.297352 -0.949169)
(33.7402 0.269125 -2.88908)
(36.2057 -0.0271507 -8.71462)
(40.5103 -0.235537 -15.1606)
(44.2807 -0.055719 -17.6117)
(47.6258 0.354766 -14.6909)
(50.6227 0.551118 -8.02178)
(53.9804 0.507427 0.259512)
(55.7877 0.36476 6.95297)
(55.3088 -0.0682364 10.6965)
(53.2888 -0.0538766 11.2824)
(47.7338 0.0533013 10.6686)
(43.3205 -1.00317 14.1833)
(35.9108 -2.11726 21.0592)
(24.4224 5.54953 35.4591)
(21.2868 13.0316 34.865)
(-3.46298 4.71479 13.411)
(-9.00398 2.54733 0.772404)
(-4.71922 2.71019 -13.4915)
(0.153307 3.94614 -24.2255)
(6.76153 1.15728 -30.9804)
(15.5109 -1.0037 -26.3263)
(23.8371 -2.74556 -16.19)
(31.7276 -5.24801 -7.97281)
(34.2165 -9.34451 0.986515)
(41.2294 -13.5415 9.70868)
(52.4265 -11.5166 10.8498)
(70.8208 -14.4695 13.5519)
(21.9202 -25.5637 42.9792)
(35.2606 -14.1355 28.8801)
(65.2385 -6.55704 18.7088)
(-80.268 -7.84059 -57.3593)
(-129.932 -1.80574 -65.6849)
(-93.2565 5.66128 -61.2694)
(39.9561 0.00083605 0.123357)
(40.2261 0.0320217 0.198048)
(40.6587 0.0456186 0.333486)
(41.1382 0.0537651 0.522998)
(41.667 0.0622509 0.736132)
(42.2407 0.0706362 0.98256)
(42.84 0.0785698 1.26645)
(43.4352 0.0860807 1.59323)
(43.9924 0.0931007 1.96501)
(44.4618 0.100614 2.37932)
(44.7988 0.108684 2.81863)
(44.9285 0.116347 3.25033)
(44.8192 0.132869 3.62483)
(44.4192 0.145536 3.89796)
(43.7633 0.161683 3.94463)
(43.2318 0.170839 3.58682)
(42.3467 0.266172 3.62611)
(40.5295 0.221813 2.47717)
(40.0092 0.166216 0.709224)
(38.5723 0.203774 -1.01227)
(34.9969 0.308547 -2.43066)
(33.3859 0.260931 -3.8753)
(36.053 -0.0404643 -7.13487)
(41.2753 -0.225076 -11.9383)
(45.9398 -0.0740693 -15.2211)
(50.2926 0.281725 -13.1747)
(56.0804 0.832922 -6.60793)
(62.4682 0.910006 1.20284)
(66.2047 0.461201 7.12997)
(66.9095 -0.312974 9.83305)
(63.3248 -0.889704 10.2607)
(57.2464 -0.335324 10.3311)
(50.7373 -0.726457 13.8784)
(39.556 -2.24115 16.9596)
(25.1265 6.79252 21.6222)
(11.6224 17.483 21.3344)
(13.9446 20.3488 25.1427)
(3.43767 13.8054 26.5113)
(10.823 14.3898 14.716)
(-8.49312 13.3549 11.2626)
(2.68257 4.06648 -5.20565)
(16.5287 0.4465 -15.0415)
(26.0066 -1.20752 -15.4905)
(33.0191 -1.35331 -12.756)
(36.8445 -0.737289 -7.73869)
(54.297 -1.63497 -7.46027)
(58.8714 -4.00992 -0.0336677)
(66.3964 -3.5038 12.3903)
(65.4027 -3.08263 20.9454)
(22.0931 3.51941 20.1291)
(58.8616 1.9069 13.0179)
(-113.229 -0.393217 -44.9453)
(-147.048 4.55736 -59.6792)
(-93.2127 4.30772 -33.8205)
(39.9372 0.000787797 0.170197)
(40.1028 0.0318445 0.233921)
(40.4018 0.0452069 0.34285)
(40.6636 0.0531281 0.524288)
(40.9025 0.0615721 0.714398)
(41.1298 0.0699029 0.931344)
(41.3532 0.0777039 1.18379)
(41.5842 0.0847801 1.48229)
(41.8425 0.0911043 1.83802)
(42.1523 0.097079 2.26127)
(42.5412 0.103646 2.7546)
(42.9974 0.107465 3.30903)
(43.5372 0.121046 3.89579)
(44.0105 0.133577 4.46876)
(44.5451 0.129292 5.06566)
(44.9169 0.17749 5.21788)
(45.389 0.291125 5.74535)
(42.2117 0.0776753 4.68006)
(38.6697 0.0927365 3.90689)
(34.339 0.127607 3.05797)
(30.1456 0.127423 0.37656)
(28.6675 0.0707824 -4.76824)
(30.1478 -0.124795 -11.0645)
(31.93 -0.312757 -15.7801)
(32.5039 -0.168055 -17.4945)
(33.0742 0.136046 -16.475)
(34.07 0.298111 -13.0116)
(34.5304 0.367582 -7.23623)
(33.3625 0.113136 0.207748)
(31.0837 -0.193796 8.25876)
(27.4779 0.476822 14.2411)
(20.6877 0.95932 17.8305)
(16.9174 0.618725 21.9587)
(16.28 0.660929 28.0566)
(11.9682 5.5215 35.7724)
(16.9409 11.3015 42.4992)
(-7.40364 1.8151 12.3444)
(-5.04279 -0.960774 -2.75759)
(-2.62596 0.45681 -17.3364)
(2.7836 1.10673 -29.8304)
(7.74614 -0.902203 -38.7087)
(12.7032 -2.87292 -34.8824)
(22.6799 -5.22525 -17.1043)
(31.0809 -5.723 -4.53153)
(32.8879 -7.01868 4.13265)
(52.373 -3.61556 -2.45934)
(53.1768 -7.71458 7.31253)
(-18.4134 -26.4469 85.1289)
(-34.0244 -26.8104 95.9292)
(-1.91972 -20.4585 84.3535)
(64.3999 -17.4524 97.7589)
(122.362 -22.5172 98.759)
(141.238 -19.4133 48.2016)
(-7.19997 4.77273 -6.63536)
(39.9353 0.00079198 0.170214)
(40.1115 0.0318513 0.232664)
(40.3984 0.0452858 0.341484)
(40.6581 0.0532928 0.523065)
(40.8982 0.0618267 0.713372)
(41.1256 0.0702551 0.930547)
(41.3483 0.0781645 1.18329)
(41.5787 0.0853609 1.4819)
(41.8369 0.0918156 1.83786)
(42.1476 0.0979338 2.26042)
(42.5356 0.104593 2.75272)
(42.9984 0.108388 3.30269)
(43.5268 0.122848 3.89218)
(44.0442 0.139435 4.51751)
(44.5859 0.123356 4.94996)
(44.8934 0.166705 5.14476)
(45.3279 0.29021 5.83436)
(42.7237 0.0954728 4.73045)
(38.979 0.0959011 3.79613)
(34.5361 0.137317 2.76825)
(30.4176 0.139829 -0.0711772)
(28.9473 0.0807187 -5.03786)
(30.3012 -0.122749 -10.57)
(32.1752 -0.276482 -14.4783)
(33.2531 -0.110055 -16.5098)
(34.7076 0.283164 -16.0119)
(37.6554 0.683841 -12.9532)
(40.819 0.824043 -6.85838)
(42.2715 0.421756 0.720904)
(40.3334 -0.525715 6.41088)
(34.1013 0.100501 11.7183)
(28.2723 1.02807 17.4025)
(27.1167 0.543691 22.4966)
(25.4653 -0.246651 27.0962)
(19.8462 7.64311 32.4311)
(16.3976 19.7489 35.6834)
(20.5265 15.6409 26.772)
(13.3961 12.3379 18.4577)
(18.1977 6.92732 26.9934)
(1.72995 0.0354738 28.5987)
(10.4916 -0.636704 -21.2476)
(18.3469 -2.85475 -30.5252)
(27.6866 -3.79326 -26.3784)
(36.2057 -2.31245 -27.431)
(42.1061 0.318969 -30.6333)
(65.0649 3.44668 -41.9647)
(62.4874 0.272731 -2.47072)
(30.886 8.31342 38.2867)
(17.3136 13.3985 23.2196)
(0.472883 -6.71571 72.8504)
(70.5524 -7.94046 76.3881)
(133.766 -18.2635 89.2439)
(-34.0052 3.9637 0.257152)
(1.68914 5.0431 1.09214)
(39.9408 0.000993388 0.222759)
(40.1038 0.0308478 0.309487)
(40.4048 0.0440604 0.464986)
(40.6718 0.0521353 0.724031)
(40.9101 0.0605112 0.992638)
(41.1205 0.0687108 1.28601)
(41.2957 0.0763339 1.60388)
(41.4286 0.0831584 1.94767)
(41.5186 0.0891824 2.32)
(41.5728 0.0945988 2.72478)
(41.6159 0.100688 3.1682)
(41.6609 0.103938 3.65917)
(41.7954 0.117369 4.21339)
(41.953 0.131176 4.86064)
(42.3857 0.0976297 5.65563)
(43.0546 0.220533 6.21142)
(43.5083 0.235969 7.56312)
(42.8228 0.0879317 9.43858)
(39.1815 0.125867 9.12289)
(34.258 0.177269 6.92164)
(29.8742 0.107163 2.43302)
(27.6687 -0.0610328 -4.32303)
(26.6178 -0.265923 -10.7418)
(24.1599 -0.297181 -14.8232)
(20.8033 -0.141136 -16.8636)
(17.8763 0.114135 -17.1579)
(14.8981 0.228153 -12.814)
(10.9367 0.016252 -3.39122)
(6.36589 -0.155279 7.03662)
(0.547989 0.198133 15.3977)
(-5.19029 0.740356 20.3291)
(-8.78297 0.946585 21.6252)
(-9.37113 1.28536 21.6547)
(-6.48471 1.95859 21.8033)
(-2.06081 3.25611 23.7799)
(5.06366 4.96735 27.8854)
(0.039227 0.817766 19.9218)
(-6.45037 -3.18839 2.27228)
(-3.43277 -0.406719 -15.0929)
(2.21382 -1.33139 -30.0886)
(6.05843 -1.15212 -38.069)
(9.77609 -3.04988 -36.6059)
(22.6316 -7.537 -20.8424)
(33.5033 -11.0548 -6.17197)
(41.6803 -8.66719 -1.39549)
(50.4984 -5.4056 8.69678)
(4.15813 -18.7385 73.2406)
(-48.7105 -22.5316 102.872)
(-8.73622 -3.04412 18.63)
(18.5852 1.18732 -21.0878)
(55.84 -1.77609 -9.71038)
(118.877 -8.82904 -12.2283)
(196.454 -14.4485 24.7975)
(217.246 -3.40563 8.19691)
(39.9389 0.000996648 0.222683)
(40.1124 0.0308542 0.308382)
(40.4024 0.0441327 0.463529)
(40.667 0.0522899 0.722303)
(40.9061 0.0607525 0.990636)
(41.1161 0.069047 1.28367)
(41.29 0.0767762 1.60114)
(41.4213 0.08372 1.94447)
(41.5099 0.0898762 2.31638)
(41.5644 0.095437 2.72056)
(41.606 0.101638 3.16384)
(41.6595 0.105301 3.6532)
(41.7814 0.117452 4.21231)
(41.9895 0.137821 4.88329)
(42.5033 0.102172 5.5953)
(42.8244 0.187898 6.22038)
(43.6914 0.262175 7.46129)
(43.1949 0.123885 9.50466)
(39.6509 0.124494 9.08075)
(34.7955 0.190717 6.6511)
(30.6544 0.127205 2.06385)
(28.4372 -0.0590228 -4.47081)
(26.4757 -0.294417 -10.4203)
(23.4771 -0.305775 -14.2685)
(20.2698 -0.115123 -16.3423)
(17.5234 0.209229 -16.5629)
(14.8619 0.382568 -11.9531)
(11.7274 0.236459 -2.73981)
(8.02355 0.0369471 7.30997)
(2.37061 0.283351 14.9942)
(-2.96166 0.810323 19.6065)
(-5.141 1.03585 21.864)
(-3.76639 1.27798 23.7959)
(2.97195 2.27834 27.7688)
(10.2735 7.05093 35.3674)
(19.7433 17.2451 44.2825)
(21.4843 16.9048 31.2458)
(12.9457 16.4357 26.188)
(10.9088 1.54856 18.6565)
(10.0561 -2.90473 15.0254)
(13.4609 -0.0758023 -27.2947)
(17.1783 -0.0739884 -40.3174)
(25.1116 1.21247 -44.3772)
(37.087 4.13669 -52.8438)
(42.3224 7.3139 -55.5341)
(53.903 11.1066 -50.2776)
(51.1912 1.5713 25.0746)
(-11.5113 13.194 68.7813)
(0.283087 15.4224 10.5571)
(31.405 5.25923 -18.2461)
(46.9054 0.826695 4.38577)
(79.7618 -4.74508 -23.6293)
(147.269 -3.06727 3.51105)
(171.313 7.42247 -12.1536)
(39.9436 0.000904302 0.27612)
(40.1074 0.0306902 0.376939)
(40.4124 0.0434257 0.563091)
(40.6878 0.0509803 0.875849)
(40.9431 0.0589947 1.19639)
(41.1791 0.0668249 1.54492)
(41.3882 0.0740514 1.922)
(41.5604 0.0804619 2.33023)
(41.6876 0.0860872 2.77303)
(41.7631 0.0910678 3.25331)
(41.7884 0.0968374 3.77473)
(41.756 0.099856 4.34104)
(41.7199 0.112532 4.97153)
(41.6493 0.126341 5.68918)
(41.7833 0.107336 6.55338)
(42.1273 0.188306 7.50059)
(42.3226 0.292598 8.43435)
(43.1923 0.152851 10.691)
(43.2269 0.110305 13.4602)
(39.6189 0.19734 11.5303)
(35.0494 -0.0162455 5.92684)
(31.0272 -0.316834 -1.00046)
(26.0718 -0.202952 -5.90094)
(19.925 -0.252389 -8.65186)
(12.9068 -0.180479 -10.9611)
(6.53598 0.0399378 -11.7853)
(-0.257492 0.196654 -6.64186)
(-6.07909 0.0631691 3.14605)
(-10.6895 -0.0384602 13.087)
(-14.1473 0.111247 19.965)
(-15.5825 0.241743 21.8601)
(-15.469 0.26533 20.3685)
(-14.4133 0.429163 18.0941)
(-12.1276 0.743629 16.3163)
(-8.89565 0.719122 15.3964)
(-4.98617 -0.328541 18.3162)
(1.31013 -3.60188 21.2769)
(-6.94623 -0.571323 10.5713)
(-7.89833 -2.25905 -11.3212)
(2.5872 -1.17957 -34.1276)
(2.57356 -1.13468 -42.5274)
(7.89225 -4.11485 -49.4143)
(23.1911 -8.24182 -42.8348)
(36.1397 -13.9202 -24.1815)
(40.4897 -8.36457 -0.059795)
(14.8469 -11.2292 52.3089)
(-31.4595 -17.3254 101.526)
(-31.548 -14.8822 75.4975)
(21.282 -3.46655 -7.00515)
(23.8772 -4.60503 -13.3499)
(47.1422 -8.95133 -45.6277)
(8.55583 -13.5639 -50.2153)
(65.5817 3.02395 7.0164)
(-44.3789 5.15805 -43.3424)
(39.9419 0.00090774 0.2761)
(40.1159 0.0306929 0.375189)
(40.4089 0.0434974 0.560678)
(40.6823 0.0511299 0.873034)
(40.9385 0.0592258 1.19305)
(41.1742 0.0671444 1.54097)
(41.382 0.0744694 1.9174)
(41.5527 0.0809907 2.32501)
(41.6784 0.0867393 2.76723)
(41.754 0.0918531 3.24697)
(41.7776 0.0977301 3.7678)
(41.7529 0.101341 4.33283)
(41.7078 0.111283 4.96388)
(41.6745 0.134204 5.6794)
(41.8741 0.111503 6.56343)
(41.9736 0.155787 7.42554)
(42.3103 0.305792 8.32393)
(43.467 0.201738 11.0719)
(43.6255 0.0637311 13.3857)
(40.5719 0.233186 11.6181)
(36.3957 0.0599032 6.33047)
(31.5646 -0.356448 -0.102589)
(25.21 -0.215878 -5.02745)
(18.5889 -0.278715 -8.43268)
(11.8375 -0.172246 -10.6754)
(4.6614 0.0371571 -10.6562)
(-2.2513 0.171369 -5.18195)
(-6.97742 0.0941998 3.65683)
(-10.8151 -0.000797667 12.8119)
(-13.6739 0.14014 19.4264)
(-14.8036 0.266367 21.465)
(-14.301 0.288499 20.4219)
(-12.4364 0.474141 19.3702)
(-8.41388 1.09818 21.0338)
(-1.99605 2.51731 27.3115)
(12.4496 12.2833 37.8333)
(22.224 18.2683 46.5302)
(11.9392 14.268 38.3613)
(9.93273 2.39715 39.2942)
(16.1475 1.85723 11.6142)
(15.1891 0.678639 -29.4483)
(19.8822 2.63903 -49.1033)
(25.0015 7.65111 -63.8565)
(35.4536 11.2115 -67.4317)
(30.8687 9.92601 -60.0404)
(33.2403 13.9068 -47.4592)
(44.2948 8.41893 36.4807)
(-5.74404 9.4859 84.0758)
(27.4584 8.12298 18.1745)
(42.4938 1.45904 -5.1495)
(51.214 -0.380289 -31.3058)
(-47.4391 1.69811 -79.0387)
(-52.9475 10.5533 -39.2183)
(-42.4396 3.7112 -48.3485)
(39.9479 0.00120003 0.324638)
(40.1115 0.0289794 0.431024)
(40.4125 0.0412906 0.638096)
(40.695 0.0488643 0.995192)
(40.9634 0.0565312 1.35766)
(41.2194 0.0639257 1.74912)
(41.4558 0.0706841 2.16988)
(41.6652 0.0766546 2.62402)
(41.8422 0.0818512 3.11857)
(41.9834 0.0864719 3.66186)
(42.0897 0.0915775 4.26373)
(42.1543 0.0946864 4.93159)
(42.2006 0.104039 5.68512)
(42.2126 0.115354 6.51767)
(42.24 0.10598 7.47793)
(42.4715 0.129464 8.57275)
(42.4844 0.249962 9.3786)
(42.6075 0.0455116 10.6635)
(44.9371 -0.12129 14.4756)
(44.5674 0.106831 15.4461)
(42.1455 0.0293309 11.4712)
(35.9138 -0.383943 5.01299)
(26.6551 -0.213184 0.377037)
(20.001 -0.187504 -1.1416)
(11.9579 -0.285831 -3.24524)
(3.9734 -0.05075 -4.6164)
(-3.08422 0.273019 -0.472311)
(-8.19072 0.240026 7.6654)
(-10.8331 0.0809475 15.597)
(-11.9795 0.0589051 20.632)
(-11.391 0.111122 21.2699)
(-10.2326 0.124659 19.1366)
(-9.46886 0.203573 16.4765)
(-9.0353 0.30486 14.118)
(-9.6492 -0.249156 11.2359)
(-23.4337 -1.57817 -1.4477)
(7.53195 -2.22016 32.961)
(-5.2496 -1.69044 10.5606)
(-9.47712 -2.22381 -16.513)
(-0.0122883 0.121951 -37.4968)
(-0.732632 -1.1624 -51.7228)
(8.27386 -3.33788 -63.557)
(26.6779 -7.25714 -44.1168)
(28.3647 -9.09133 -24.295)
(15.179 -6.68734 31.1394)
(-11.0824 -10.3399 81.6256)
(-29.4447 -12.8398 96.2567)
(-0.0785581 -13.7374 41.4372)
(37.8041 -7.35536 -11.5955)
(50.9207 3.5282 -8.05001)
(40.0211 4.73533 -11.7488)
(1.6691 -0.395153 -24.8412)
(27.5107 -5.41987 -7.93115)
(147.35 -68.6636 42.0102)
(39.9464 0.00120217 0.324496)
(40.1197 0.0289821 0.429089)
(40.4102 0.0413509 0.63552)
(40.6903 0.0489946 0.992072)
(40.9592 0.0567365 1.35392)
(41.2147 0.0642125 1.74469)
(41.4498 0.0710576 2.16474)
(41.6577 0.0771282 2.61826)
(41.8333 0.0824391 3.11225)
(41.9744 0.0871828 3.65514)
(42.0793 0.0923867 4.25601)
(42.1487 0.0960551 4.92364)
(42.1899 0.102979 5.6734)
(42.2146 0.121128 6.49816)
(42.307 0.111069 7.48718)
(42.4273 0.109864 8.49334)
(42.3204 0.254599 9.15654)
(42.9753 0.139762 11.0736)
(43.9878 -0.267307 13.7177)
(42.8373 0.0866093 15.1371)
(41.7065 0.0934474 11.5044)
(36.08 -0.508005 5.1276)
(26.064 -0.143781 0.900431)
(17.6757 -0.15783 -1.03703)
(9.47328 -0.273886 -2.98729)
(1.50765 -0.0611277 -3.31512)
(-4.91553 0.22707 0.746481)
(-8.7109 0.246695 7.70002)
(-11.0076 0.0979769 14.9324)
(-11.7863 0.0675195 20.0465)
(-11.1008 0.114986 21.0839)
(-9.77359 0.1298 19.4235)
(-8.55697 0.254436 17.7409)
(-7.38185 1.00819 18.8192)
(-3.33317 9.86399 21.9254)
(13.639 6.50384 48.3366)
(24.638 16.4786 55.4984)
(17.8563 9.39629 36.8801)
(8.34232 -0.335582 26.9503)
(14.8953 -0.303054 5.86864)
(17.2962 1.92063 -31.006)
(23.1834 5.93252 -49.6978)
(25.9101 10.8013 -68.6436)
(32.7852 12.4819 -67.9194)
(23.5412 6.63446 -57.7984)
(23.2481 14.9421 -38.2221)
(35.6307 12.1557 44.4797)
(9.23095 4.75576 73.4378)
(38.1661 8.37214 10.1946)
(86.5006 7.65793 2.50403)
(70.518 1.48197 6.87896)
(23.1768 -2.89474 2.41729)
(-19.1362 -10.1787 11.2361)
(-68.1889 -5.45004 22.1298)
(39.9519 0.00100918 0.367005)
(40.1136 0.0286573 0.4747)
(40.4157 0.0404909 0.696551)
(40.7019 0.0474004 1.08974)
(40.9815 0.0546089 1.48567)
(41.2549 0.0615426 1.91141)
(41.5156 0.0678413 2.36655)
(41.7571 0.073366 2.85523)
(41.9762 0.0781514 3.38537)
(42.173 0.0824061 3.96765)
(42.3522 0.0867169 4.61521)
(42.5179 0.0902669 5.3401)
(42.6791 0.0949535 6.16171)
(42.8453 0.106654 7.06979)
(42.9646 0.0983429 8.08289)
(43.2226 0.0893514 9.21837)
(43.2994 0.159873 10.1295)
(42.9622 0.0864453 11.1194)
(43.8594 0.0342432 13.6054)
(44.7702 0.103521 16.0379)
(43.2647 0.00509689 15.4289)
(36.9546 -0.830671 13.7252)
(30.4092 -0.769541 7.54067)
(24.624 -0.298296 4.16999)
(16.7334 -0.237724 4.28154)
(8.40465 -0.224714 2.77302)
(2.11673 0.340313 4.57542)
(-2.01432 0.559523 10.6799)
(-4.01821 0.268516 16.9428)
(-4.90606 0.0831003 20.5887)
(-4.51751 0.0722093 20.4856)
(-3.91814 0.128432 18.4192)
(-3.7701 0.147144 16.2524)
(-3.90955 -0.0104279 14.2745)
(-15.434 -3.73738 2.33106)
(-17.7778 -1.01063 -2.44683)
(-18.119 1.61302 -4.6377)
(-3.79716 -5.89721 20.11)
(-4.07054 -5.00787 -11.974)
(2.1555 -1.84401 -32.3616)
(2.92226 1.10133 -49.9893)
(6.81644 2.29637 -66.3305)
(17.3707 2.56847 -51.3497)
(14.9942 -7.54922 -4.77457)
(-5.2988 -7.15095 56.6073)
(-20.3143 -8.63943 93.8506)
(-15.6579 -10.8651 80.753)
(16.8166 -15.3351 37.0632)
(26.6853 -8.53477 -4.1496)
(35.6751 -3.65884 -27.6955)
(46.9888 7.62286 -28.3957)
(51.3459 7.84183 -28.9946)
(58.8824 2.28573 -18.6862)
(84.4717 2.88735 -26.2517)
(39.9505 0.00101175 0.366901)
(40.1219 0.0286581 0.47223)
(40.4122 0.0405512 0.69319)
(40.6961 0.0475265 1.08582)
(40.9765 0.054805 1.48106)
(41.2495 0.0618133 1.90604)
(41.5089 0.0681903 2.36042)
(41.7491 0.0738061 2.84837)
(41.9669 0.0786951 3.37785)
(42.1633 0.0830632 3.95946)
(42.342 0.0874616 4.60562)
(42.5084 0.0914332 5.32963)
(42.6706 0.0946661 6.14547)
(42.8311 0.108887 7.04522)
(42.994 0.106514 8.06952)
(43.2126 0.0779864 9.17404)
(43.075 0.14842 9.94021)
(43.0904 0.137625 11.1941)
(44.0285 0.00120597 13.8214)
(44.1958 0.123875 16.0297)
(42.451 -0.0369051 14.9469)
(34.2241 -0.878296 12.3586)
(22.9319 -0.863919 10.9378)
(20.7858 -0.336315 4.33917)
(13.3208 -0.19818 3.7342)
(5.7936 -0.242167 3.2827)
(0.169634 0.272762 5.56226)
(-2.46139 0.541624 10.7013)
(-3.9966 0.268733 16.0742)
(-4.67768 0.0836384 19.9738)
(-4.21925 0.0755686 20.3928)
(-3.52586 0.14822 18.8062)
(-2.9889 0.267004 17.4984)
(-3.45522 1.34434 19.1035)
(-8.55573 5.84124 21.1981)
(-18.3416 -0.135846 -0.534829)
(22.5504 10.629 55.4024)
(18.6219 0.407481 45.4959)
(9.42624 -3.20403 20.4242)
(11.8205 -1.43107 -7.59291)
(18.2274 2.60709 -31.101)
(21.7239 6.59561 -51.6111)
(28.1626 11.3103 -68.0234)
(31.665 14.3011 -64.2295)
(20.9343 8.69477 -57.7312)
(17.3502 15.9976 -34.6647)
(28.186 10.328 44.8554)
(31.4528 3.03376 52.5288)
(56.2312 6.24912 9.50808)
(50.197 6.21848 -4.12798)
(72.7896 7.97765 -6.54262)
(110.372 8.69562 -15.8047)
(132.003 3.25546 -8.80924)
(152.324 4.5585 0.85695)
(39.9576 0.00137324 0.403015)
(40.1179 0.0263215 0.506659)
(40.4108 0.0375339 0.736226)
(40.7001 0.0444507 1.15676)
(40.9889 0.051245 1.57688)
(41.2782 0.0576656 2.02693)
(41.5618 0.0634207 2.50583)
(41.8343 0.0683893 3.01738)
(42.094 0.0726151 3.56926)
(42.3423 0.0762138 4.1717)
(42.5844 0.0794211 4.83673)
(42.8282 0.0818586 5.5763)
(43.0782 0.0828687 6.40404)
(43.3505 0.089255 7.32421)
(43.5886 0.0811656 8.32501)
(43.8778 0.0654285 9.45346)
(44.1348 0.0943356 10.5427)
(43.9489 0.11085 11.4475)
(44.147 0.116575 13.2249)
(45.4301 0.0456835 16.3083)
(45.9385 0.12382 18.817)
(43.4421 -0.111463 19.3134)
(37.4014 -0.765248 16.0072)
(29.5714 -0.646565 12.5339)
(25.9917 -0.745694 10.6027)
(18.6064 -0.500072 9.25872)
(13.3663 0.215646 8.35008)
(8.78269 0.846357 11.6289)
(5.2746 0.409896 17.8058)
(2.96896 0.0339155 21.0798)
(2.16061 -0.0281665 20.3231)
(1.98543 0.0141583 17.9529)
(2.21493 0.0201144 16.0964)
(3.06292 -0.660375 15.59)
(-0.198488 -0.400914 13.3608)
(-10.1301 -1.05439 -2.15244)
(-9.91059 -3.07678 12.1644)
(-1.58065 -11.004 13.9351)
(6.11521 -6.32884 -3.39777)
(9.87006 -1.3568 -26.4187)
(6.41891 4.47054 -46.6603)
(7.05152 6.57871 -61.6915)
(13.5144 0.938394 -67.9094)
(5.26863 -8.13133 13.5103)
(-11.9951 -7.40592 70.4763)
(-18.9603 -7.99759 94.6851)
(-2.85392 -10.3516 68.6108)
(16.6728 -26.046 37.753)
(-14.9754 -4.06818 -19.8008)
(1.01377 3.58087 -36.361)
(-17.9927 4.94904 -46.4743)
(-61.9309 1.89647 -46.8282)
(-65.7728 -1.74889 -17.2558)
(-15.3346 6.4863 -9.52269)
(39.9565 0.00137428 0.402816)
(40.1256 0.0263221 0.504046)
(40.4087 0.0375809 0.7328)
(40.6955 0.0445553 1.1527)
(40.9845 0.0514101 1.5721)
(41.2731 0.0578967 2.02137)
(41.5553 0.0637237 2.49949)
(41.8264 0.0687773 3.0103)
(42.0847 0.0730977 3.56148)
(42.3319 0.0767906 4.16314)
(42.573 0.0800735 4.8268)
(42.8147 0.0827928 5.56442)
(43.0651 0.0831922 6.38839)
(43.3265 0.0893086 7.29718)
(43.5858 0.0889791 8.29908)
(43.8908 0.0624011 9.44346)
(43.9977 0.0745498 10.4418)
(43.9247 0.138244 11.3359)
(44.4915 0.146065 13.2826)
(46.068 0.0383569 16.4192)
(46.0669 0.137218 19.5387)
(43.1656 -0.0555381 19.5975)
(34.7149 -0.720376 16.8732)
(28.2296 -0.531309 10.7708)
(22.3229 -0.0912158 9.85182)
(16.4832 -0.467014 8.23764)
(10.6398 0.0444204 8.57571)
(6.92706 0.726796 13.5976)
(4.8991 0.408053 17.406)
(3.41326 0.0353269 20.0755)
(2.69054 -0.0120892 20.1565)
(2.30167 0.0703887 18.4268)
(2.36407 0.222736 17.4307)
(3.35619 1.28346 21.8174)
(-5.67915 0.75938 32.8978)
(-10.5706 -1.05219 3.82218)
(12.829 4.42481 41.0665)
(12.5945 -0.344829 24.5394)
(13.8055 -1.94223 9.00007)
(15.1689 -0.417512 -11.8971)
(17.5225 3.03835 -32.5206)
(22.9027 7.98598 -49.6447)
(31.5421 12.5125 -63.4195)
(35.4811 15.7478 -53.6558)
(33.5839 17.2057 -54.2838)
(29.8351 14.4122 -52.0481)
(46.4016 7.42327 5.92496)
(60.5773 0.794731 -0.385325)
(58.4139 3.92293 -17.6481)
(59.1887 6.41963 -17.52)
(78.2202 3.45591 -15.7504)
(52.2342 -1.58815 -28.3026)
(-25.368 -8.57872 -4.60866)
(30.7623 6.39518 32.3498)
(39.9626 0.00108707 0.4322)
(40.1188 0.0259302 0.528328)
(40.4099 0.0366942 0.760055)
(40.698 0.0428697 1.19935)
(40.9928 0.0491828 1.63468)
(41.2941 0.0551339 2.09928)
(41.5965 0.0604201 2.59116)
(41.8958 0.0649384 3.11344)
(42.1911 0.0687105 3.67309)
(42.4844 0.071825 4.27905)
(42.78 0.0743005 4.94098)
(43.0833 0.0757795 5.66795)
(43.3968 0.0754144 6.46737)
(43.7275 0.0759197 7.34772)
(44.0548 0.0718285 8.29547)
(44.3929 0.0530922 9.35911)
(44.7989 0.0514331 10.5014)
(45.0184 0.0759868 11.5092)
(45.1674 0.0862847 12.6859)
(46.1128 0.0422476 14.9715)
(48.1999 0.15506 18.3313)
(49.3638 0.258455 21.509)
(47.295 -0.0345084 22.1287)
(41.7207 -0.535283 19.8923)
(37.7565 -1.06634 17.9831)
(32.6832 -0.962489 14.7964)
(28.8473 -0.192372 12.148)
(20.6809 1.87164 13.8803)
(12.8735 1.1385 19.6445)
(10.5161 -0.288261 22.2797)
(10.173 -0.45274 20.521)
(9.38502 -0.44293 17.9366)
(9.12113 -0.338193 15.118)
(10.4461 -1.70676 15.788)
(8.56652 -2.73941 14.5482)
(3.61243 -0.769165 4.42046)
(-3.50272 -4.5122 12.8588)
(3.66731 -5.61749 5.2454)
(12.4118 -4.97572 -5.32992)
(19.7725 -2.5602 -19.5555)
(18.1061 3.39954 -37.5616)
(13.9152 8.96779 -51.7253)
(5.78977 5.31768 -58.7566)
(2.19666 -6.02128 24.8894)
(-7.65255 -6.79015 72.3976)
(-8.29374 -8.01024 88.1413)
(11.7843 -10.0868 57.1146)
(31.0566 -12.2309 32.6365)
(40.8089 -11.7345 12.1101)
(3.53769 1.98305 -0.69764)
(-14.1651 -5.3827 1.93828)
(-31.591 -8.90168 -13.8661)
(-13.9078 8.69161 -12.5912)
(55.4381 0.885038 8.00654)
(39.9616 0.00108876 0.432018)
(40.1268 0.0259293 0.52539)
(40.4063 0.0367419 0.756024)
(40.6923 0.0429714 1.19463)
(40.9875 0.0493404 1.62919)
(41.2882 0.0553519 2.09296)
(41.5894 0.0607033 2.58401)
(41.8873 0.065299 3.10553)
(42.1813 0.0691572 3.6644)
(42.4734 0.0723562 4.2695)
(42.7675 0.0749013 4.93011)
(43.068 0.0765673 5.65491)
(43.3788 0.076084 6.45189)
(43.7028 0.0754728 7.32306)
(44.0307 0.0764153 8.26796)
(44.3917 0.0571784 9.34764)
(44.739 0.0349966 10.4675)
(44.9018 0.0774739 11.3839)
(45.1841 0.123748 12.4681)
(46.534 0.0225173 14.8432)
(48.5105 0.201568 18.91)
(50.8931 0.373755 22.2418)
(48.606 -0.055332 22.2529)
(42.3474 -0.371311 18.0741)
(31.3158 -0.728944 16.4341)
(29.7127 -1.00258 13.4902)
(17.3741 0.0174814 13.6436)
(14.2038 1.46546 16.3996)
(14.2856 1.14154 18.8588)
(13.0288 0.0482268 20.7139)
(11.1785 -0.515655 20.3452)
(9.35628 -0.400413 18.425)
(7.30495 -0.330837 17.3879)
(7.14564 -0.0249786 26.3461)
(1.52799 -0.527257 33.1945)
(3.35297 -0.368026 19.1066)
(6.43372 -2.26355 16.1718)
(14.181 -2.13178 8.35527)
(20.0267 -1.6706 -1.94029)
(23.0201 -0.910587 -14.3453)
(23.1276 2.28937 -27.9681)
(27.0106 8.14892 -42.7592)
(33.9652 13.4521 -56.61)
(42.6181 17.1709 -48.7577)
(47.1405 20.3475 -37.9165)
(45.6887 18.7174 -29.823)
(60.649 8.43768 -19.4335)
(60.3409 1.77058 -14.3816)
(45.2981 3.29984 4.40783)
(50.6419 1.4892 -15.8681)
(69.4954 -10.4342 -1.83878)
(-15.6928 -8.72606 -6.83781)
(-57.434 4.13243 5.04484)
(62.269 0.111242 14.9313)
(39.9693 0.00149092 0.454501)
(40.1229 0.0231721 0.539298)
(40.3992 0.0330988 0.767305)
(40.6853 0.039249 1.21713)
(40.983 0.0450886 1.65919)
(41.2932 0.0504827 2.1291)
(41.6105 0.0551779 2.62389)
(41.9316 0.0591004 3.14565)
(42.2563 0.0622283 3.70018)
(42.5867 0.0645859 4.29502)
(42.9259 0.0660017 4.93775)
(43.2756 0.0659586 5.63496)
(43.635 0.0637423 6.39049)
(44.0023 0.0599128 7.20898)
(44.3747 0.0548138 8.08717)
(44.7479 0.0383555 9.04097)
(45.1969 0.0273044 10.0993)
(45.6707 0.035868 11.1558)
(46.0001 0.0476315 12.0914)
(46.5064 0.0452847 13.3077)
(48.1149 0.0747528 15.5226)
(50.7449 0.159583 19.4977)
(52.8424 0.102409 23.0487)
(52.797 0.172877 23.9317)
(48.653 -0.28596 22.8962)
(46.7847 -0.622625 20.122)
(39.7054 -0.849704 19.1224)
(32.8561 0.0865705 19.7744)
(27.3993 1.2077 20.7021)
(22.6956 1.04924 21.7083)
(20.6432 0.187494 20.78)
(19.081 -0.599862 18.3938)
(17.3596 -1.23901 14.5331)
(17.0753 -2.57357 13.9852)
(17.4371 -3.60431 11.4612)
(14.4768 -4.23521 9.43643)
(15.1006 -4.37297 5.30214)
(20.4617 -4.04872 -2.50139)
(25.224 -2.8376 -11.3404)
(30.6643 -2.31998 -19.2362)
(31.6511 -0.16569 -28.5664)
(29.9461 6.73593 -38.8502)
(11.3017 15.6041 -65.756)
(8.16875 0.33813 15.5896)
(2.61643 -4.46846 66.2604)
(8.18507 -7.00048 76.4775)
(23.0171 -8.97571 55.6472)
(33.2353 -11.4386 38.8705)
(42.7992 -15.9635 23.1776)
(31.1403 -12.6876 18.1514)
(28.4426 -12.6763 22.8302)
(45.8433 -15.078 16.4193)
(13.4775 8.69942 -24.2348)
(-51.3036 10.3061 5.09941)
(39.9685 0.00149108 0.454255)
(40.13 0.0231712 0.536243)
(40.3973 0.0331329 0.763267)
(40.6809 0.0393269 1.21235)
(40.9786 0.0452127 1.65362)
(41.2879 0.0506574 2.12268)
(41.6038 0.0554101 2.61662)
(41.9233 0.0593977 3.13759)
(42.2464 0.0625975 3.69132)
(42.575 0.0650334 4.28528)
(42.9117 0.0665161 4.92675)
(43.2578 0.0665833 5.62194)
(43.6123 0.0644411 6.375)
(43.9746 0.059711 7.18836)
(44.3406 0.0564335 8.05906)
(44.7271 0.0442999 9.02143)
(45.1772 0.0208722 10.0968)
(45.584 0.0227252 11.1062)
(45.9046 0.0662204 11.906)
(46.5175 0.0531699 13.0444)
(48.2736 0.0929334 15.5733)
(51.5996 0.20203 19.8068)
(54.1941 0.051308 23.4721)
(53.5567 0.238785 24.302)
(48.3865 0.0923521 22.7948)
(42.8128 -0.435908 20.7253)
(33.6572 -0.545345 20.3325)
(25.8465 -0.121436 19.9336)
(21.7837 1.1252 20.1304)
(21.0157 1.31219 20.9015)
(20.65 0.291561 20.7618)
(19.5586 -0.399571 18.985)
(16.404 -0.673241 17.2868)
(15.3008 -1.05577 20.4756)