/*--------------------------------*- C++ -*----------------------------------*\
| =========                 |                                                 |
| \\      /  F ield         | OpenFOAM: The Open Source CFD Toolbox           |
|  \\    /   O peration     | Version:  4.1                                   |
|   \\  /    A nd           | Web:      www.OpenFOAM.org                      |
|    \\/     M anipulation  |                                                 |
\*---------------------------------------------------------------------------*/
FoamFile
{
    version     2.0;
    format      ascii;
    class       volScalarField;
    location    "55";
    object      omega;
}
// * * * * * * * * * * * * * * * * * * * * * * * * * * * * * * * * * * * * * //

dimensions      [0 0 -1 0 0 0 0];

internalField   nonuniform List<scalar> 
4432
(
0.0110951
0.0114468
0.0118132
0.0121556
0.0125116
0.0128432
0.0131905
0.0135076
0.0138465
0.0141456
0.0144773
0.0147578
0.0150808
0.0153447
0.0156552
0.0159073
0.0162014
0.0164452
0.0167224
0.0169575
0.0172237
0.0174551
0.0177187
0.0179391
0.0181864
0.0183884
0.0186186
0.0188097
0.0190382
0.0192254
0.0194707
0.0196548
0.0199107
0.0200809
0.0203275
0.0204762
0.0207017
0.0208215
0.0210079
0.0211231
0.0212822
0.0213774
0.021524
0.0216648
0.0218072
0.0220075
0.0221402
0.0224172
0.0226497
0.022975
0.0233406
0.0236582
0.023636
0.0237358
0.0110866
0.0114543
0.0118109
0.0121569
0.0125135
0.0128393
0.0131955
0.0135
0.0138543
0.0141354
0.014489
0.0147459
0.0150973
0.0153318
0.0156764
0.015894
0.0162256
0.0164331
0.0167472
0.0169479
0.0172435
0.0174459
0.0177312
0.0179309
0.018201
0.0183917
0.0186477
0.0188279
0.019077
0.0192521
0.0195095
0.0196821
0.0199429
0.0201037
0.0203559
0.0205042
0.0207354
0.0208637
0.0210613
0.0211889
0.0213508
0.0215146
0.0216451
0.0218467
0.0219456
0.0220867
0.0222358
0.0223876
0.022599
0.022883
0.0231451
0.0232165
0.0232451
0.0231749
21.7957
3.3799
1.22791
0.662896
0.43621
0.320335
0.251566
0.206497
0.17486
0.151499
0.133586
0.119422
0.107966
0.0985005
0.0905728
0.0838196
0.0780254
0.0729766
0.068563
0.0646516
0.061184
0.0580781
0.0552853
0.0527656
0.0504573
0.0483634
0.046409
0.0446364
0.0429624
0.0414575
0.0400276
0.0387554
0.0375271
0.0364409
0.03535
0.0343906
0.0333894
0.0325294
0.031595
0.0308208
0.0299653
0.0292813
0.0285168
0.0279379
0.0272853
0.0267965
0.0262297
0.0258108
0.0253492
0.025003
0.0246722
0.0244138
0.0241035
0.0236964
21.7956
3.3799
1.22788
0.66288
0.436201
0.32033
0.251562
0.206495
0.174856
0.151497
0.133581
0.11942
0.107961
0.0984983
0.0905686
0.0838172
0.0780217
0.0729723
0.0685603
0.0646466
0.0611833
0.0580694
0.0552842
0.0527507
0.050456
0.0483499
0.0464153
0.0446381
0.0429852
0.041481
0.0400591
0.0387869
0.0375454
0.036458
0.0353431
0.0343879
0.0333708
0.0325284
0.0315889
0.030835
0.0299764
0.0293221
0.0285578
0.0280145
0.0273428
0.0268814
0.0263011
0.0259058
0.0254371
0.0250848
0.0247337
0.024393
0.0240656
0.0236328
21.7954
3.38014
1.22821
0.663185
0.436468
0.320564
0.25176
0.206682
0.175043
0.151688
0.133776
0.119623
0.108165
0.0987115
0.090776
0.0840371
0.0782303
0.0731948
0.068767
0.0648663
0.0613855
0.0582885
0.0554927
0.0529792
0.0506763
0.048583
0.0466377
0.0448603
0.0431964
0.0416785
0.0402521
0.0389566
0.0377284
0.0366133
0.0355351
0.0345576
0.0335822
0.0327173
0.0318246
0.0310582
0.0302365
0.0295667
0.0288259
0.0282489
0.0275878
0.0270837
0.0265161
0.0260466
0.02558
0.0251864
0.0248127
0.0245513
0.0243867
0.0238804
21.7954
3.38014
1.22819
0.663172
0.436461
0.320559
0.251757
0.206679
0.175041
0.151685
0.133775
0.119617
0.108164
0.0987043
0.0907777
0.0840284
0.0782337
0.0731839
0.0687704
0.0648555
0.0613914
0.0582817
0.0554968
0.0529724
0.0506731
0.0485772
0.0466329
0.0448672
0.0432006
0.0417039
0.0402657
0.0389887
0.0377367
0.0366368
0.0355309
0.034569
0.0335736
0.0327267
0.0318179
0.0310751
0.0302497
0.0296071
0.0288645
0.0283077
0.0276387
0.0271555
0.0265538
0.026137
0.0256183
0.0252865
0.0248672
0.0245514
0.0244651
0.0238043
21.7956
3.38007
1.22814
0.66313
0.436419
0.320519
0.251717
0.206642
0.175003
0.15165
0.133736
0.119585
0.108125
0.0986738
0.0907375
0.0839979
0.0781901
0.0731535
0.0687236
0.0648284
0.0613522
0.0582662
0.0554779
0.0529712
0.0506754
0.0485797
0.0466435
0.0448596
0.0432039
0.0416756
0.0402487
0.0389374
0.0377041
0.0365813
0.0355085
0.0345336
0.033578
0.0327174
0.031849
0.0310876
0.0303108
0.0296298
0.0289344
0.028292
0.0276744
0.0270619
0.0265288
0.0259696
0.0255424
0.0250771
0.0247406
0.0242772
0.024283
0.0237926
21.7956
3.38008
1.22813
0.663118
0.436412
0.320514
0.251714
0.206639
0.175001
0.151647
0.133735
0.119581
0.108123
0.0986705
0.0907349
0.0839962
0.0781866
0.0731523
0.0687214
0.06483
0.0613517
0.0582677
0.0554707
0.0529665
0.0506577
0.0485756
0.0466251
0.0448681
0.0431952
0.041703
0.0402527
0.0389816
0.0377147
0.0366278
0.0355096
0.034567
0.0335668
0.0327339
0.0318361
0.0310977
0.030297
0.029631
0.0289185
0.0282958
0.0276773
0.0270707
0.0265794
0.0259982
0.0256588
0.0250716
0.0249206
0.0241416
0.0240303
0.0237709
21.7956
3.38005
1.22812
0.663109
0.4364
0.320499
0.251697
0.20662
0.174982
0.151625
0.133715
0.119556
0.108102
0.0986404
0.090712
0.0839585
0.0781604
0.0731078
0.0686963
0.0647838
0.0613282
0.0582216
0.0554515
0.0529281
0.0506521
0.0485515
0.0466329
0.0448504
0.0432039
0.0416793
0.0402503
0.0389459
0.037697
0.0365839
0.0354855
0.0345292
0.0335533
0.0327131
0.0318385
0.0310928
0.0303081
0.0296333
0.028919
0.0282846
0.0276365
0.0270324
0.02649
0.0259483
0.0255186
0.0250397
0.0247425
0.0242391
0.0239493
0.0237486
21.7956
3.38006
1.22811
0.663099
0.436394
0.320494
0.251696
0.206616
0.174982
0.151621
0.133715
0.119551
0.108102
0.0986358
0.0907107
0.083955
0.0781594
0.0731063
0.0686962
0.0647853
0.0613288
0.0582217
0.0554479
0.0529218
0.0506434
0.0485419
0.0466275
0.044846
0.0432103
0.041686
0.0402719
0.0389639
0.0377283
0.0366035
0.0355111
0.034541
0.0335629
0.0327192
0.0318356
0.0310903
0.0302885
0.0296171
0.0288826
0.0282696
0.0275897
0.027062
0.0264389
0.0260232
0.0254518
0.0251246
0.0246195
0.0242719
0.0239645
0.0237356
21.7957
3.38006
1.22813
0.663109
0.436389
0.320484
0.251677
0.206598
0.174956
0.151599
0.133684
0.119525
0.108066
0.0986045
0.0906678
0.0839172
0.0781099
0.0730652
0.0686452
0.0647434
0.0612786
0.0581763
0.0554006
0.0528834
0.0506189
0.048527
0.0466307
0.0448419
0.043221
0.0416708
0.0402765
0.0389273
0.0377224
0.0365455
0.0355036
0.0344798
0.0335763
0.0326703
0.0318714
0.0310467
0.0303294
0.0295667
0.0289198
0.0282126
0.0276326
0.026999
0.0265216
0.0259839
0.0255828
0.0251119
0.0247544
0.0242938
0.0240009
0.0235665
21.7957
3.38007
1.22812
0.663099
0.436384
0.320479
0.251675
0.206595
0.174955
0.151597
0.133682
0.119523
0.108063
0.0986015
0.0906675
0.0839141
0.0781126
0.073062
0.0686498
0.0647397
0.0612824
0.0581753
0.0554026
0.0528813
0.050612
0.0485188
0.0466189
0.0448378
0.0432198
0.0416805
0.0402926
0.0389485
0.037751
0.0365715
0.0355363
0.0344987
0.0335985
0.0326731
0.0318776
0.0310322
0.0303287
0.0295372
0.0289229
0.0281726
0.0276542
0.0269551
0.0265402
0.0259184
0.0255727
0.0250081
0.0246893
0.0242164
0.0238398
0.0233774
21.7957
3.38006
1.22813
0.663105
0.436378
0.320467
0.251656
0.206575
0.174928
0.151572
0.133648
0.119495
0.108021
0.0985701
0.0906143
0.0838785
0.0780472
0.0730218
0.0685764
0.0646987
0.0612081
0.0581311
0.0553337
0.0528422
0.0505667
0.0485031
0.0466028
0.0448402
0.0432127
0.0416817
0.0402716
0.0389376
0.0377107
0.0365516
0.0354878
0.0344791
0.0335577
0.0326638
0.0318551
0.0310268
0.0303133
0.029528
0.0289034
0.0281617
0.0276363
0.0269523
0.026542
0.0259365
0.0255984
0.0250233
0.0246928
0.0241271
0.0237215
0.0231834
21.7957
3.38007
1.22812
0.663096
0.436372
0.320464
0.251652
0.206573
0.174925
0.15157
0.133646
0.119491
0.108021
0.098564
0.0906176
0.0838703
0.0780559
0.0730118
0.0685887
0.0646856
0.0612214
0.0581192
0.0553462
0.0528334
0.0505727
0.0484921
0.0466026
0.044832
0.043218
0.0416808
0.0402916
0.0389421
0.0377473
0.0365579
0.0355317
0.0344813
0.0335926
0.0326556
0.0318684
0.0310204
0.0303103
0.0295283
0.0288982
0.0281695
0.027636
0.0269606
0.0265436
0.0259122
0.0255748
0.0249651
0.024645
0.0240071
0.0237697
0.0229879
21.7958
3.38008
1.22816
0.663115
0.436372
0.32045
0.251637
0.206547
0.174904
0.151533
0.13362
0.119445
0.107988
0.0985099
0.0905766
0.0838066
0.078002
0.0729385
0.0685227
0.0646101
0.0611496
0.0580482
0.0552741
0.0527759
0.0505248
0.0484696
0.0465924
0.0448401
0.0432203
0.0416947
0.0402726
0.038949
0.0376985
0.0365643
0.0354639
0.034494
0.0335234
0.0326801
0.0318142
0.0310597
0.0302673
0.0295755
0.0288528
0.0282215
0.0275906
0.0270084
0.0265079
0.0259304
0.0255364
0.0249215
0.0245404
0.0239506
0.023575
0.0230274
21.7957
3.38009
1.22815
0.663108
0.436367
0.320449
0.251632
0.206549
0.174897
0.151539
0.133611
0.119453
0.107978
0.0985189
0.0905657
0.0838175
0.0779924
0.0729519
0.0685144
0.0646218
0.0611422
0.0580584
0.0552718
0.0527859
0.0505169
0.048472
0.0465742
0.044839
0.04321
0.0417007
0.0402881
0.038964
0.0377422
0.0365781
0.0355235
0.0344974
0.0335801
0.0326687
0.0318539
0.031032
0.030291
0.0295403
0.0288745
0.0281845
0.0276147
0.0269719
0.026515
0.0258797
0.0255052
0.0248465
0.0244783
0.0238811
0.0234703
0.0229756
21.7958
3.38008
1.22817
0.663116
0.436363
0.320434
0.251615
0.206523
0.174874
0.151503
0.133581
0.119408
0.107939
0.0984646
0.0905162
0.0837516
0.0779293
0.0728711
0.0684385
0.0645319
0.0610606
0.0579632
0.0551852
0.0526983
0.0504566
0.0484268
0.0465694
0.0448418
0.0432437
0.0417239
0.0403196
0.0389818
0.0377479
0.036582
0.0355027
0.0344881
0.0335473
0.0326561
0.0318309
0.0310323
0.030279
0.0295606
0.0288522
0.0282288
0.0275817
0.0270231
0.0264756
0.0259051
0.0254598
0.0248677
0.0244702
0.0239511
0.0234767
0.0229586
21.7958
3.38009
1.22816
0.66311
0.436358
0.320433
0.251612
0.206524
0.17487
0.151506
0.133577
0.119412
0.107934
0.0984676
0.0905117
0.0837549
0.0779269
0.0728766
0.068437
0.0645361
0.0610563
0.0579677
0.0551866
0.0527066
0.0504594
0.0484309
0.0465626
0.0448429
0.0432368
0.0417326
0.0403294
0.0389996
0.0377771
0.0366036
0.035544
0.0345085
0.0335868
0.0326688
0.0318533
0.031029
0.0302881
0.0295414
0.0288652
0.0281956
0.0275949
0.0269945
0.0264661
0.0258852
0.0254275
0.0248297
0.0244591
0.0238864
0.0234682
0.0228963
21.7959
3.3801
1.22821
0.663136
0.436362
0.320421
0.251595
0.206498
0.174845
0.15147
0.133543
0.119365
0.107892
0.0984098
0.0904579
0.0836826
0.0778573
0.0727846
0.0683502
0.0644242
0.0609576
0.0578426
0.0550852
0.0525956
0.0503947
0.0483912
0.046572
0.0448834
0.0432998
0.0418158
0.0403988
0.0390789
0.0378124
0.0366545
0.0355428
0.0345337
0.0335706
0.0326831
0.0318511
0.0310525
0.0303114
0.0295811
0.0288945
0.0282557
0.0276057
0.0270559
0.0264739
0.025918
0.025543
0.0249717
0.024626
0.0241695
0.024338
0.0235159
21.7958
3.38012
1.22821
0.663132
0.43636
0.320419
0.251595
0.206496
0.174847
0.151467
0.133548
0.119361
0.107899
0.0984035
0.0904663
0.0836747
0.0778692
0.0727762
0.0683646
0.0644146
0.0609689
0.057837
0.0551016
0.0526028
0.0504111
0.0483952
0.0465789
0.0448747
0.0432995
0.041804
0.0404087
0.0390781
0.0378463
0.0366687
0.0355937
0.0345558
0.033622
0.0327044
0.0318807
0.0310624
0.0303083
0.0295787
0.0288744
0.0282409
0.0275805
0.0270362
0.0264061
0.025934
0.025373
0.0249439
0.0244288
0.023976
0.0237521
0.0229452
21.7959
3.38011
1.22823
0.663143
0.436356
0.32041
0.251574
0.20648
0.174813
0.151447
0.133499
0.119336
0.107834
0.0983716
0.0903836
0.08363
0.0777644
0.0727114
0.0682327
0.064326
0.0608217
0.0577301
0.0549608
0.0525033
0.0503536
0.0483851
0.046638
0.0449826
0.0434702
0.0419949
0.0406281
0.039269
0.0380447
0.0368112
0.0357459
0.034661
0.03373
0.0328162
0.031946
0.0312236
0.0303577
0.0297416
0.0290425
0.0283383
0.0277368
0.0272158
0.0260168
0.0261687
0.0267182
0.0256692
0.0256668
0.0258443
0.0258875
0.0260713
21.7959
3.38012
1.22823
0.663139
0.436354
0.320407
0.251575
0.206478
0.174815
0.151444
0.133502
0.119334
0.107838
0.0983691
0.0903868
0.0836283
0.077768
0.0727111
0.068239
0.0643226
0.06083
0.0577252
0.0549801
0.0525094
0.0503812
0.04839
0.0466559
0.0449731
0.0434639
0.041976
0.0406092
0.039267
0.0380291
0.0368332
0.0357401
0.0346855
0.0337352
0.032802
0.0319671
0.0311384
0.0303764
0.0296455
0.0289426
0.0282673
0.0277679
0.0270554
0.0265345
0.0258965
0.0253996
0.0252241
0.0248393
0.0247844
0.0254618
0.0249455
21.796
3.38014
1.22828
0.663171
0.436359
0.320403
0.251554
0.206465
0.174777
0.151431
0.133447
0.119322
0.10776
0.0983568
0.0902808
0.0836124
0.0776235
0.0726846
0.0680419
0.0642836
0.0605831
0.0576713
0.0547537
0.0524706
0.0504211
0.0486555
0.047161
0.0456919
0.0443232
0.042952
0.0415889
0.0402908
0.038986
0.0378299
0.0366203
0.0356697
0.0345735
0.0337307
0.0329824
0.0319933
0.0312728
0.0305361
0.0290978
0.0287322
0.0284641
0.0285121
0.0284212
0.0286623
0.030195
0.0320586
0.0345526
0.0340915
0.0350566
0.0348502
21.796
3.38016
1.22828
0.66317
0.436358
0.320403
0.251555
0.206466
0.17478
0.151432
0.13345
0.119323
0.107761
0.0983612
0.0902775
0.0836221
0.0776148
0.0727017
0.0680294
0.064303
0.0605712
0.0576861
0.054741
0.0525188
0.0504246
0.0486705
0.0471013
0.0455681
0.0441309
0.0426922
0.0413356
0.0400017
0.0387439
0.0375417
0.0364233
0.0353523
0.0343788
0.0334205
0.0326189
0.031677
0.0310672
0.030073
0.0289843
0.0291207
0.0276871
0.0273358
0.0278787
0.028289
0.0298496
0.0282392
0.0285838
0.0303822
0.0321466
0.0318904
21.796
3.38015
1.22831
0.663186
0.436361
0.320396
0.251543
0.206447
0.174761
0.151406
0.133422
0.11929
0.10772
0.0983219
0.0902139
0.0835816
0.0775044
0.0726719
0.067827
0.0643115
0.0602312
0.0578161
0.0543797
0.0530176
0.0512523
0.0519177
0.053262
0.0509062
0.0507429
0.0498497
0.0484247
0.046999
0.0456106
0.0445298
0.0430904
0.0416547
0.0411196
0.0387629
0.0384447
0.0382726
0.0390281
0.0397411
0.0420976
0.0405003
0.0410345
0.0436899
0.0439059
0.0440578
0.044888
0.0452122
0.0440042
0.0438766
0.0430588
0.0416034
21.796
3.38017
1.22831
0.663186
0.436359
0.320398
0.251539
0.206455
0.174752
0.151421
0.133406
0.119314
0.107696
0.0983545
0.0901819
0.0836196
0.0774722
0.0727064
0.0678107
0.0643245
0.0602407
0.0578087
0.0543505
0.0532882
0.0509021
0.0510456
0.0504694
0.0499991
0.0484489
0.046962
0.045332
0.0439358
0.0424199
0.0412931
0.0399366
0.0389148
0.0379157
0.0365293
0.0361433
0.0347795
0.0346869
0.0354204
0.0359098
0.0354315
0.0358225
0.036886
0.0370254
0.0375744
0.0400417
0.0397409
0.0408353
0.0411601
0.0406142
0.0396459
21.7961
3.38019
1.22838
0.663222
0.436382
0.320377
0.251563
0.206392
0.174806
0.151305
0.133507
0.119131
0.107855
0.0980888
0.0904078
0.0832508
0.0777739
0.0721985
0.0681936
0.0636288
0.0606775
0.0569399
0.0552572
0.0548352
0.0633448
0.121026
0.127688
0.127515
0.120422
0.119185
0.115324
0.113983
0.111621
0.109042
0.1066
0.104361
0.102363
0.100274
0.0980822
0.0954116
0.092603
0.0890587
0.0855076
0.0812481
0.0769755
0.0719224
0.0671591
0.0616495
0.0567498
0.0514961
0.0468986
0.0420257
0.0379789
0.0355165
21.7961
3.38021
1.22838
0.663224
0.436382
0.320381
0.251561
0.2064
0.1748
0.151319
0.133497
0.119149
0.107841
0.0981111
0.0903901
0.0832769
0.0777525
0.0722335
0.0681606
0.0636901
0.0606234
0.0570181
0.0552043
0.0546428
0.0595462
0.0978529
0.100296
0.104137
0.104507
0.104524
0.103605
0.101068
0.10027
0.0985074
0.0966174
0.0946708
0.0930468
0.0914557
0.0899322
0.0880659
0.0862417
0.0837475
0.0814144
0.0783492
0.0754577
0.0716678
0.0680155
0.0634847
0.0593389
0.0546459
0.0504444
0.0463971
0.0415869
0.0391065
21.7961
3.3802
1.22841
0.663245
0.436392
0.320379
0.251562
0.206384
0.174802
0.151288
0.133506
0.119099
0.107864
0.0980307
0.0904354
0.0831514
0.0778275
0.0720458
0.0682325
0.06357
0.0601037
0.0568194
0.0559946
0.0684533
0.255741
0.336106
0.161563
0.127652
0.108615
0.0991354
0.0928079
0.086861
0.0810591
0.0758779
0.0709953
0.0662552
0.0617887
0.0574818
0.0536574
0.0503518
0.0477461
0.0459187
0.0438493
0.0426419
0.0416464
0.0413552
0.0401199
0.0397371
0.0391053
0.0380203
0.0371644
0.0360473
0.0339731
0.0321868
21.7961
3.38022
1.22842
0.663247
0.436394
0.320379
0.251564
0.206385
0.174806
0.151289
0.133511
0.1191
0.107867
0.0980354
0.0904338
0.0831647
0.0778122
0.0720838
0.068201
0.0635312
0.0606419
0.056284
0.0562533
0.0680071
0.193676
0.321529
0.179219
0.137913
0.106072
0.0925063
0.0861838
0.0819839
0.0782608
0.0743117
0.0702845
0.0663124
0.0625733
0.0590484
0.0558355
0.0527586
0.0502102
0.0478459
0.0460154
0.0442042
0.0430255
0.0417534
0.0408055
0.0396214
0.0384765
0.0369451
0.0353691
0.0339754
0.0321618
0.03065
21.7962
3.38025
1.22849
0.663292
0.436414
0.320385
0.251566
0.20638
0.174805
0.151278
0.13351
0.119083
0.10787
0.0980105
0.0904391
0.0831317
0.0778198
0.0720392
0.0682192
0.0634427
0.0607566
0.0559982
0.0585808
0.0956895
0.170408
0.174767
0.125552
0.115363
0.108919
0.105366
0.10246
0.0995827
0.0967319
0.0940777
0.0917039
0.0894838
0.0873794
0.085076
0.0821812
0.078863
0.0750855
0.0711653
0.066824
0.0624799
0.0577464
0.0531946
0.0483659
0.0436612
0.0387195
0.0342505
0.0304534
0.0271787
0.025705
21.7962
3.38027
1.22849
0.663296
0.436417
0.320388
0.251568
0.206385
0.174805
0.151286
0.13351
0.119092
0.107872
0.0980125
0.0904523
0.0831217
0.077847
0.0720165
0.0682658
0.0634276
0.0605817
0.0566375
0.0575329
0.121751
0.167905
0.195449
0.158945
0.133979
0.119495
0.111231
0.105635
0.101082
0.0971486
0.0936266
0.0904654
0.0875661
0.0846339
0.0815486
0.0783249
0.0750096
0.0714422
0.0679015
0.0640773
0.0602993
0.056085
0.052097
0.0476965
0.0436878
0.039231
0.0351921
0.0314918
0.0280868
0.0262548
21.7962
3.38026
1.22853
0.663324
0.436427
0.320405
0.25156
0.206407
0.174782
0.151323
0.133468
0.11915
0.107806
0.0981037
0.0903534
0.0832553
0.0777161
0.0721945
0.0681256
0.0636245
0.0605918
0.0569085
0.0552021
0.0573367
0.0987409
0.114395
0.117416
0.115722
0.114246
0.109703
0.103747
0.0973487
0.0908363
0.0843549
0.0779127
0.0715322
0.0652299
0.0591669
0.0535516
0.0486326
0.04439
0.0406171
0.0374522
0.0346009
0.0323145
0.0301934
0.0286005
0.0270519
0.0259633
0.0248418
0.024102
0.0232502
0.0228333
0.0218782
21.7962
3.38028
1.22853
0.663328
0.43643
0.320406
0.251563
0.206408
0.174787
0.151325
0.133473
0.119154
0.107808
0.0981122
0.0903511
0.0832691
0.0777101
0.072214
0.0681195
0.0636426
0.0605977
0.0569396
0.0551587
0.0568387
0.0845668
0.0895183
0.0872728
0.0872502
0.0859317
0.0836754
0.0805461
0.0768858
0.0728934
0.068682
0.0643441
0.059903
0.055428
0.051267
0.0474567
0.0440133
0.0408896
0.0380432
0.0355567
0.0332753
0.031406
0.0296143
0.0282876
0.0269004
0.026007
0.0249327
0.0243416
0.0234665
0.0230862
0.0222677
21.7962
3.3803
1.2286
0.663379
0.43645
0.320432
0.251552
0.206449
0.174746
0.151401
0.13339
0.119286
0.107666
0.0983217
0.0901345
0.0835793
0.0774077
0.0726481
0.0677351
0.0642291
0.0601515
0.0576704
0.0542737
0.0529366
0.0507564
0.0510601
0.0503079
0.0490278
0.0470926
0.0452231
0.0434064
0.0416984
0.0400787
0.0385746
0.0371592
0.0358481
0.0346264
0.0334863
0.0324428
0.0314381
0.0305438
0.0296354
0.0288724
0.0280348
0.0273793
0.0265898
0.0260165
0.0252574
0.0247581
0.0240294
0.0235942
0.0229116
0.0225258
0.0219269
21.7962
3.38033
1.22861
0.663385
0.436454
0.320437
0.251555
0.206454
0.17475
0.151406
0.133397
0.119288
0.107679
0.0983158
0.0901572
0.0835642
0.0774415
0.0726265
0.0677772
0.064209
0.0601957
0.0576578
0.054315
0.0529958
0.0509429
0.0502964
0.0492873
0.0475713
0.0458259
0.0441129
0.0424762
0.0409169
0.0394643
0.0380921
0.0368048
0.0356026
0.0344645
0.0334143
0.0324131
0.0314756
0.0305956
0.0297368
0.0289711
0.0281676
0.0275022
0.0267329
0.0261622
0.0254187
0.0249274
0.0242112
0.0237821
0.0230878
0.022699
0.0221481
21.7963
3.38032
1.22865
0.663413
0.436476
0.320448
0.251575
0.206457
0.174778
0.151401
0.133439
0.119273
0.107742
0.0982938
0.090246
0.0835372
0.0775654
0.0725975
0.0679577
0.0641728
0.060466
0.057532
0.054605
0.0523585
0.0502322
0.0484242
0.0467568
0.0451172
0.0435742
0.0421088
0.0407246
0.0393979
0.0381384
0.036926
0.0357782
0.0346706
0.0336354
0.032632
0.0317116
0.0307981
0.029984
0.0291441
0.0284312
0.0276494
0.027023
0.026286
0.0257302
0.0250266
0.0245397
0.0238508
0.0234465
0.0227927
0.0223668
0.0217946
21.7963
3.38034
1.22866
0.663419
0.436479
0.320452
0.251576
0.206465
0.174778
0.15141
0.133439
0.119284
0.107743
0.0983017
0.0902518
0.0835398
0.0775799
0.0725941
0.0679819
0.0641667
0.0604969
0.0575311
0.0546401
0.0523577
0.0502481
0.0484451
0.0467162
0.0450707
0.043511
0.0420403
0.0406606
0.0393316
0.0380837
0.036877
0.0357366
0.0346483
0.0336138
0.0326375
0.0317099
0.0308237
0.0300034
0.0291853
0.0284687
0.0277055
0.0270768
0.0263604
0.025807
0.0251296
0.0246341
0.0239981
0.0235486
0.0229585
0.0225322
0.021972
21.7963
3.38036
1.22872
0.663469
0.436509
0.320471
0.251595
0.206476
0.174801
0.151418
0.133473
0.119289
0.107794
0.0983042
0.090325
0.0835423
0.0776821
0.0726028
0.0681226
0.0641895
0.0606766
0.0575698
0.0547943
0.0523291
0.0501519
0.0481499
0.0463433
0.0446349
0.04307
0.0415829
0.0402102
0.0388897
0.0376633
0.0364696
0.0353641
0.0342839
0.0332943
0.0323226
0.031441
0.0305595
0.0297789
0.0289694
0.0282796
0.0275233
0.0269094
0.026197
0.0256429
0.024979
0.0244759
0.0238586
0.0234206
0.0228333
0.0226106
0.0218264
21.7963
3.38039
1.22874
0.663477
0.436515
0.320475
0.2516
0.20648
0.174808
0.151424
0.133479
0.119296
0.107799
0.098314
0.0903286
0.0835551
0.0776856
0.0726194
0.0681258
0.0642114
0.0606785
0.0575975
0.0547892
0.0523565
0.0501435
0.0481731
0.0463523
0.0446593
0.0430879
0.0416024
0.0402292
0.0389061
0.0376783
0.0364923
0.0353801
0.0343236
0.0333177
0.0323762
0.0314733
0.03062
0.0298227
0.0290303
0.0283349
0.0275889
0.0269749
0.0262768
0.0257266
0.0250669
0.0245785
0.0239561
0.0235329
0.0230045
0.0224988
0.021997
21.7963
3.38038
1.22877
0.663507
0.436537
0.320494
0.251617
0.206499
0.174826
0.151446
0.133502
0.119323
0.107831
0.0983463
0.0903756
0.0835938
0.0777519
0.0726672
0.0682156
0.0642711
0.0607885
0.0576568
0.0548936
0.0523792
0.0501507
0.0480949
0.046243
0.0444994
0.042915
0.04141
0.0400359
0.0387121
0.0374971
0.0363108
0.0352225
0.034155
0.0331792
0.0322204
0.0313438
0.0304772
0.029696
0.0288998
0.0282072
0.0274598
0.0268466
0.0261461
0.0256066
0.0249498
0.0244826
0.0238652
0.0234568
0.02294
0.0225613
0.0220096
21.7963
3.3804
1.22878
0.663513
0.436542
0.320498
0.251621
0.206504
0.174832
0.151451
0.133509
0.119328
0.107838
0.0983526
0.090382
0.0836028
0.077758
0.0726804
0.0682218
0.064289
0.0607947
0.0576782
0.0549032
0.0523943
0.0501592
0.0481129
0.0462599
0.0445241
0.0429413
0.0414354
0.0400603
0.0387349
0.0375149
0.0363404
0.0352385
0.0342012
0.0331966
0.0322801
0.0313664
0.0305458
0.0297255
0.0289709
0.0282452
0.0275339
0.0268942
0.0262271
0.0256553
0.0250308
0.024532
0.0239383
0.0235289
0.0229661
0.0226951
0.0220218
21.7963
3.38042
1.22884
0.663558
0.43657
0.320519
0.251641
0.206521
0.174852
0.151471
0.133536
0.119352
0.107874
0.0983815
0.0904294
0.0836379
0.077819
0.0727238
0.0682953
0.0643419
0.0608725
0.0577372
0.0549595
0.0524284
0.050167
0.0480853
0.0461953
0.0444417
0.0428289
0.0413188
0.0399205
0.0385979
0.0373659
0.0361948
0.0350904
0.0340465
0.0330462
0.0321145
0.0312107
0.030378
0.0295621
0.0288122
0.028073
0.0273916
0.0267282
0.0261069
0.0255195
0.0249417
0.0244435
0.0238378
0.0234626
0.0228549
0.0224571
0.0219614
21.7963
3.38044
1.22885
0.663567
0.436576
0.320525
0.251645
0.206529
0.174857
0.151481
0.13354
0.119364
0.107877
0.0983946
0.0904321
0.0836532
0.0778228
0.0727413
0.0683024
0.0643594
0.0608856
0.0577523
0.0549744
0.0524431
0.0501882
0.0480964
0.0462288
0.0444598
0.0428676
0.0413431
0.039958
0.0386261
0.0373997
0.0362269
0.0351223
0.0340886
0.0330801
0.032173
0.0312474
0.0304491
0.0296013
0.0288876
0.0281133
0.0274693
0.0267634
0.0261802
0.0255451
0.0249969
0.0244541
0.023889
0.0234765
0.0228486
0.0225905
0.0218634
21.7963
3.38043
1.22888
0.663592
0.436598
0.320543
0.251666
0.206545
0.174882
0.151497
0.133571
0.119383
0.107917
0.0984181
0.0904811
0.0836827
0.0778795
0.0727781
0.0683638
0.0644032
0.0609442
0.0577912
0.0550184
0.0524662
0.0501911
0.0480882
0.0461849
0.0444156
0.0427851
0.0412697
0.0398489
0.0385271
0.0372811
0.0361061
0.0350114
0.0339456
0.0329844
0.0320073
0.0311665
0.0302679
0.0295299
0.0287021
0.0280469
0.0272883
0.0266982
0.0260079
0.0254673
0.0248622
0.0243277
0.0237895
0.0233524
0.0227595
0.0223891
0.0217496
21.7963
3.38045
1.22889
0.6636
0.436604
0.320548
0.251671
0.206551
0.174887
0.151506
0.133575
0.119393
0.107919
0.0984318
0.0904811
0.0837003
0.0778788
0.0727995
0.0683639
0.0644272
0.0609459
0.0578164
0.0550274
0.052488
0.0502037
0.0481145
0.0462009
0.0444427
0.042809
0.0412966
0.0398779
0.0385561
0.0373096
0.0361423
0.0350353
0.0339969
0.0330052
0.0320775
0.0311848
0.0303535
0.0295447
0.0287976
0.0280596
0.0273875
0.0267091
0.0261063
0.0254872
0.0249212
0.0243903
0.023815
0.0233919
0.0227999
0.0223966
0.0217709
21.7964
3.38046
1.22894
0.663638
0.436629
0.320568
0.251688
0.20657
0.174905
0.151527
0.133597
0.119419
0.107945
0.0984634
0.0905114
0.0837374
0.0779131
0.0728403
0.0684001
0.0644675
0.0609795
0.0578522
0.0550463
0.052503
0.0502016
0.0480977
0.0461644
0.0443966
0.0427385
0.0412281
0.0397786
0.03847
0.0371904
0.0360415
0.0349105
0.0338807
0.0328848
0.0319421
0.0310725
0.0301991
0.0294437
0.0286296
0.027972
0.0272083
0.0266307
0.025909
0.0254118
0.0247203
0.0242744
0.023676
0.0232722
0.0225945
0.0223319
0.0215041
21.7963
3.38049
1.22895
0.663647
0.436636
0.320575
0.251694
0.206577
0.17491
0.151537
0.133601
0.119432
0.107947
0.0984787
0.0905127
0.0837563
0.0779141
0.0728635
0.0684018
0.0644942
0.0609837
0.0578813
0.0550503
0.0525354
0.0502133
0.048125
0.0461894
0.0444211
0.0427751
0.0412492
0.0398267
0.0384912
0.0372469
0.0360682
0.034968
0.0339186
0.03294
0.0319932
0.0311291
0.0302568
0.0295065
0.0286853
0.02804
0.0272618
0.0267025
0.0259686
0.0254772
0.0247819
0.0243616
0.023702
0.0233227
0.0227492
0.0223209
0.0217255
21.7964
3.38048
1.22897
0.663668
0.436655
0.320591
0.251713
0.206593
0.174932
0.151552
0.133627
0.119449
0.107978
0.0984981
0.0905483
0.0837782
0.0779527
0.0728861
0.0684404
0.0645146
0.0610172
0.0578906
0.0550738
0.0525314
0.0502115
0.0481036
0.0461595
0.0443809
0.0427164
0.0411949
0.0397416
0.0384253
0.0371403
0.0359896
0.0348511
0.0338253
0.032824
0.0318842
0.031017
0.0301385
0.0293922
0.0285713
0.0279174
0.027168
0.0265824
0.0258852
0.0253734
0.0246912
0.0242621
0.02361
0.0231767
0.0225385
0.0220871
0.0215277
21.7963
3.3805
1.22898
0.663676
0.43666
0.320598
0.251716
0.206601
0.174935
0.151564
0.133628
0.119462
0.107979
0.0985131
0.0905493
0.0837946
0.0779559
0.0729038
0.0684467
0.0645342
0.0610259
0.0579129
0.0550876
0.052555
0.0502259
0.0481351
0.0461735
0.0444155
0.0427347
0.0412298
0.039769
0.0384585
0.0371811
0.0360213
0.0349026
0.0338597
0.03288
0.0319272
0.0310741
0.030188
0.0294536
0.0286141
0.0279954
0.027193
0.0266733
0.0259107
0.0254464
0.0247459
0.0242879
0.0236576
0.0231957
0.0225862
0.0221638
0.0216513
21.7964
3.3805
1.22902
0.66371
0.436684
0.320616
0.251734
0.206617
0.174954
0.151579
0.133651
0.119479
0.108006
0.0985312
0.0905801
0.083813
0.0779881
0.0729207
0.068477
0.0645461
0.0610501
0.0579189
0.0550989
0.0525462
0.0502233
0.0481053
0.0461488
0.0443669
0.0426869
0.041168
0.0396967
0.0383902
0.0370835
0.0359492
0.0347873
0.0337796
0.0327608
0.0318336
0.0309527
0.0300926
0.0293074
0.0285519
0.0277952
0.027188
0.0264246
0.0259177
0.0252125
0.0246891
0.0241374
0.0234913
0.0230894
0.0225558
0.0217353
0.0216298
21.7963
3.38053
1.22904
0.66372
0.436691
0.320622
0.25174
0.206625
0.17496
0.151589
0.133656
0.119491
0.10801
0.0985453
0.090583
0.0838303
0.0779906
0.0729423
0.0684801
0.0645724
0.061055
0.0579499
0.0551025
0.0525837
0.0502296
0.0481456
0.0461603
0.0444119
0.0427038
0.0412152
0.0397239
0.0384365
0.0371268
0.035991
0.0348483
0.0338152
0.032836
0.0318654
0.0310389
0.0301184
0.029407
0.0285612
0.0279185
0.0271639
0.0265653
0.0258682
0.0253067
0.0247069
0.0240817
0.0236689
0.0227598
0.0224789
0.0221345
0.0219603
21.7963
3.38053
1.22906
0.663744
0.43671
0.320637
0.251755
0.206638
0.174974
0.151601
0.133673
0.119503
0.10803
0.0985562
0.090606
0.0838393
0.078015
0.0729476
0.0685029
0.064572
0.0610731
0.0579383
0.0551152
0.05256
0.0502306
0.0481049
0.0461511
0.0443528
0.0426831
0.0411425
0.0396883
0.0383583
0.03707
0.0359137
0.0347683
0.0337377
0.0327426
0.0317746
0.0309434
0.0300069
0.0292957
0.0284495
0.0277601
0.0270573
0.0263688
0.0257888
0.02517
0.0245693
0.0242305
0.0232959
0.0240458
0.0233717
0.0236538
0.0239179
21.7963
3.38055
1.22907
0.663751
0.436715
0.320642
0.25176
0.206644
0.174981
0.151609
0.133679
0.119512
0.108035
0.098567
0.0906104
0.0838529
0.0780193
0.072965
0.0685083
0.0645939
0.0610802
0.0579642
0.0551261
0.0525884
0.0502428
0.0481403
0.0461647
0.0443923
0.0427003
0.041185
0.0397119
0.0384015
0.0371054
0.0359538
0.0348191
0.0337736
0.0328028
0.031816
0.0309966
0.0300661
0.0293386
0.0285101
0.0278173
0.0270874
0.0264389
0.0258243
0.0251662
0.0246867
0.0242403
0.0234076
0.0233008
0.0232456
0.0235079
0.0237474
21.7962
3.38062
1.22916
0.663818
0.436768
0.320686
0.251797
0.206677
0.175012
0.151637
0.133708
0.119536
0.108063
0.0985876
0.0906384
0.0838681
0.0780476
0.0729724
0.0685361
0.0645902
0.0611065
0.0579491
0.0551492
0.052556
0.0502623
0.0480885
0.0461744
0.0443238
0.0426963
0.0411043
0.0396863
0.0383151
0.0370474
0.0358703
0.0347222
0.033697
0.032682
0.031736
0.0308847
0.0299832
0.0292407
0.0284615
0.0277437
0.0270339
0.026461
0.0259314
0.0250234
0.0249574
0.0249573
0.0256215
0.028566
0.0275337
0.0289062
0.0298746
21.7962
3.38064
1.22917
0.663826
0.436774
0.320692
0.251803
0.206684
0.175018
0.151644
0.133714
0.119545
0.108068
0.098599
0.0906423
0.0838838
0.0780509
0.0729939
0.0685392
0.0646183
0.0611101
0.057983
0.055152
0.0525944
0.0502683
0.0481279
0.0461863
0.0443649
0.0427139
0.0411471
0.0397102
0.0383613
0.0370783
0.0359196
0.034762
0.0337459
0.0327314
0.0317845
0.030937
0.0300403
0.0292897
0.0285226
0.0278129
0.0270878
0.026538
0.0259871
0.0251156
0.025437
0.0252309
0.0265793
0.0261114
0.0268985
0.0293069
0.0294192
21.7968
3.38062
1.22918
0.663726
0.43658
0.320448
0.251547
0.206423
0.174775
0.151415
0.133502
0.119334
0.10787
0.0983929
0.0904487
0.0836774
0.0778578
0.0727852
0.0683444