/*--------------------------------*- C++ -*----------------------------------*\
| =========                 |                                                 |
| \\      /  F ield         | OpenFOAM: The Open Source CFD Toolbox           |
|  \\    /   O peration     | Version:  4.1                                   |
|   \\  /    A nd           | Web:      www.OpenFOAM.org                      |
|    \\/     M anipulation  |                                                 |
\*---------------------------------------------------------------------------*/
FoamFile
{
    version     2.0;
    format      ascii;
    class       surfaceScalarField;
    location    "55";
    object      phi;
}
// * * * * * * * * * * * * * * * * * * * * * * * * * * * * * * * * * * * * * //

dimensions      [0 3 -1 0 0 0 0];

internalField   nonuniform List<scalar> 
11516
(
9.98752e+06
176.511
9619.12
9.9694e+06
332.837
20867.6
9.94152e+06
450.545
30702.7
9.90444e+06
489.852
40043
9.85813e+06
535.98
49353
9.80227e+06
576.173
58860
9.73644e+06
566.811
68715
9.66024e+06
515.606
78968
9.5734e+06
467.808
89565.4
9.47572e+06
453.148
100558
9.3676e+06
515.098
111449
9.25035e+06
659.08
121291
9.12633e+06
762.336
129036
9.00058e+06
756.373
131637
8.88344e+06
-664.942
124482
8.78876e+06
-1959.61
102507
8.73399e+06
-260.545
60428.6
8.72719e+06
265.997
10113.3
8.72878e+06
639.522
243.62
8.6944e+06
1630.91
34346.3
8.62766e+06
-1072.8
68817.5
8.52936e+06
-4977.43
104149
8.40702e+06
-8147.41
131441
8.26871e+06
-10734.9
150208
8.11667e+06
-12678.6
166099
7.97099e+06
-14078.7
161490
7.84525e+06
-11517.8
139618
7.74661e+06
-6060.52
107561
7.67523e+06
-4456.66
78891.6
7.62982e+06
-7076.86
55749.7
7.59596e+06
-11927.9
49662
7.54338e+06
-17562.5
73752.8
7.47993e+06
-17426.1
83978.3
7.45058e+06
-4243.66
36542.6
7.49784e+06
11075.8
-51137.5
7.56429e+06
14719.6
-75711
7.59448e+06
13486.7
-38087.1
7.60036e+06
4726.66
-4508.7
7.58619e+06
-473.042
11120.2
7.58018e+06
3326.21
-6206.65
7.59731e+06
9806.44
-44226.5
7.58759e+06
15054.3
-42934.8
7.53645e+06
13726.5
-11258.2
7.46545e+06
12521.3
16521.5
7.39248e+06
674.687
32566.1
7.34365e+06
-7521.16
14348.2
7.29068e+06
5794.55
33155.8
7.29382e+06
11153.1
-17933.1
7.29901e+06
24994.2
-43381.1
7.36448e+06
3971.41
-107777
7.50067e+06
8405.2
-151551
7.67693e+06
-10292.8
-256985
7.94436e+06
48913.2
-243940
102022
-517021
9.98777e+06
9620.83
9.96938e+06
20881
9.94139e+06
30714.7
9.90423e+06
40041.9
9.85789e+06
49349.3
9.80204e+06
58882.7
9.73624e+06
68766.9
9.66001e+06
79052.8
9.57312e+06
89677.4
9.47538e+06
100649
9.36722e+06
111513
9.25e+06
121259
9.12565e+06
129085
8.99857e+06
132120
8.87599e+06
126178
8.77637e+06
101766
8.72371e+06
56089.6
8.72441e+06
2027.55
8.73203e+06
-5294.05
8.70003e+06
34588.6
8.63357e+06
66062.9
8.53639e+06
92796
8.41407e+06
114794
8.27225e+06
131854
8.11247e+06
148079
7.95711e+06
142634
7.82132e+06
126077
7.70973e+06
107692
7.62474e+06
83102.2
7.57516e+06
45810.5
7.55826e+06
8519.73
7.5463e+06
-2060.53
7.52525e+06
7332.09
7.51157e+06
12629.1
7.54598e+06
-19110.4
7.59982e+06
-31820.7
7.6322e+06
-12015.4
7.63955e+06
-1756.28
7.63516e+06
-1570.25
7.63382e+06
-8184.99
7.64064e+06
-16202.9
7.627e+06
-172.017
7.5828e+06
32089.4
7.50754e+06
52952.5
7.41305e+06
69787.1
7.34182e+06
44896.3
7.29052e+06
48253.4
7.26262e+06
39562
7.26078e+06
-18796.3
7.40763e+06
-99831.2
7.49213e+06
-178484
7.75955e+06
-238195
7.99258e+06
-150282
-408637
1.00065e+07
179.297
5608.98
1.00148e+07
333.259
15353.7
1.00234e+07
454.568
25044.3
1.00317e+07
506.598
34791.7
1.00395e+07
570.792
44737.2
1.00466e+07
627.895
55013.3
1.00528e+07
639.982
65716.8
1.00582e+07
611.842
76727.6
1.00622e+07
573.128
88714.2
1.00649e+07
558.381
100963
1.00659e+07
582.204
113783
1.0064e+07
636.552
126685
1.00573e+07
824.152
139585
1.0042e+07
982.863
151119
1.00042e+07
2492.97
165064
9.933e+06
2733.55
175924
9.80658e+06
3104
189875
9.61027e+06
1854.24
207028
9.39098e+06
-727.587
221199
9.19569e+06
-1179
231282
9.02603e+06
243.338
238506
8.88139e+06
1812.1
247164
8.75094e+06
3101.83
258987
8.625e+06
4246.26
272167
8.5048e+06
4847.3
281858
8.38524e+06
5547.28
276201
8.26344e+06
6372.93
256194
8.12863e+06
8336.28
235704
7.98865e+06
12936.3
207831
7.85339e+06
16472
176613
7.72014e+06
20551.2
164436
7.60266e+06
25048.3
167865
7.52602e+06
22934.6
139446
7.50041e+06
14454.8
50482.9
7.53169e+06
4583.21
-81942.6
7.55747e+06
-8869.37
-82760.5
7.55164e+06
-21768.2
-1733.09
7.52579e+06
-31234.1
50162.4
7.48393e+06
-30800.4
75750.5
7.4606e+06
-19029.1
24316.9
7.44864e+06
-19439
-25488.8
7.39759e+06
-30818.3
19126.3
7.32243e+06
-39147
77272.3
7.24453e+06
-43294.6
102267
7.17433e+06
-47357.5
114292
7.1102e+06
-49256.6
99124.9
7.0655e+06
-49988.8
105102
7.00366e+06
-35978.2
74406.5
6.95321e+06
-49412
46373.4
6.96057e+06
-85032.2
-47965
6.84149e+06
-26543.5
-15436.2
6.8358e+06
44595.8
-256956
7.47669e+06
133408
-944839
29122.4
-1.25832e+06
1.00068e+07
5606.64
1.00148e+07
15351.2
1.00232e+07
25039.5
1.00315e+07
34781.5
1.00393e+07
44721.1
1.00464e+07
54997
1.00527e+07
65708.4
1.00582e+07
76736.6
1.00623e+07
88754.4
1.0065e+07
101027
1.0066e+07
113861
1.0064e+07
126804
1.00576e+07
139552
1.0043e+07
151266
1.00131e+07
162398
9.94856e+06
173415
9.81805e+06
193684
9.61716e+06
206249
9.39187e+06
219859
9.19711e+06
228421
9.03032e+06
233225
8.88598e+06
239060
8.7566e+06
247431
8.63255e+06
260383
8.51599e+06
269844
8.40026e+06
264600
8.28113e+06
252708
8.15708e+06
241622
8.03611e+06
219116
7.92296e+06
178217
7.79683e+06
157797
7.66271e+06
159182
7.56367e+06
131361
7.54194e+06
52483.5
7.57495e+06
-42304.6
7.61425e+06
-71977.3
7.62974e+06
-46136.7
7.61049e+06
-17993.7
7.57507e+06
-9140.87
7.56879e+06
-33684.1
7.5885e+06
-69047
7.57119e+06
-33199
7.5207e+06
17028.5
7.4703e+06
37920.5
7.42449e+06
41972.9
7.38013e+06
12704.1
7.35257e+06
13144.9
7.32524e+06
19461.4
7.29449e+06
-43861.3
7.20038e+06
-112834
7.09803e+06
-97860.3
7.2596e+06
-303404
7.74053e+06
-468917
-1.23111e+06
9.99941e+06
177.426
7205.56
9.9962e+06
330.996
21311.3
9.98869e+06
449.812
35370.4
9.97704e+06
501.929
49431.4
9.96126e+06
571.172
63642.2
9.94133e+06
639.061
78130.4
9.91747e+06
660.685
92794.8
9.88911e+06
634.578
108292
9.85717e+06
586.628
123861
9.82104e+06
544.082
140305
9.78134e+06
527.718
156791
9.73789e+06
561.517
173640
9.69027e+06
645.097
190991
9.63678e+06
870.375
208717
9.5797e+06
1034.06
227053
9.51143e+06
1690.95
249653
9.43453e+06
1508.08
272204
9.35241e+06
1591.27
289093
9.25575e+06
1037.72
317417
9.1444e+06
711.411
342132
9.023e+06
1016.81
358991
8.90044e+06
1620.59
368239
8.77929e+06
2523.04
377849
8.65799e+06
4096.49
389685
8.53438e+06
4793.16
401109
8.40575e+06
6154.05
399368
8.26597e+06
9211.37
387910
8.10512e+06
13294.9
384925
7.92369e+06
16519.2
374881
7.71774e+06
15678.6
369376
7.47738e+06
14281.5
393074
7.23838e+06
21166
388056
7.03695e+06
42114.8
301523
6.91987e+06
66205.7
104639
6.95371e+06
55896.9
-167705
7.0077e+06
2125.5
-135041
6.98722e+06
-42109.8
60175.2
6.92809e+06
-58410.2
158411
6.85318e+06
-48574.3
188582
6.86033e+06
-9565.57
20611.8
6.88878e+06
-13998
-44651.3
6.86534e+06
-38863.1
70118
6.79865e+06
-53470.6
173191
6.73347e+06
-53727.8
194605
6.66189e+06
-50194
194453
6.57094e+06
-41451.7
182976
6.53612e+06
-46178.7
152153
6.52164e+06
-45945.6
113573
6.52455e+06
-63777.3
111001
6.53778e+06
-59129.2
6380.75
6.68147e+06
-24089.8
-128539
6.74722e+06
12752.6
-301947
6.25937e+06
43668.5
-453900
25910.4
-972323
9.99966e+06
7203.18
9.99618e+06
21303.7
9.98857e+06
35357.1
9.97685e+06
49412.2
9.96105e+06
63619.7
9.94118e+06
78107.6
9.91739e+06
92775.3
9.88907e+06
108279
9.85712e+06
123857
9.82094e+06
140310
9.78117e+06
156798
9.7377e+06
173640
9.69005e+06
190955
9.63707e+06
208665
9.57779e+06
227017
9.50931e+06
248952
9.4354e+06
273792
9.35157e+06
293125
9.25601e+06
316785
9.14666e+06
338592
9.02706e+06
353900
8.90632e+06
361541
8.78649e+06
369985
8.6636e+06
387653
8.53861e+06
400013
8.40984e+06
400133
8.27275e+06
399957
8.12337e+06
405723
7.95776e+06
403475
7.75863e+06
395844
7.5201e+06
412939
7.29179e+06
410946
7.13231e+06
336039
7.0819e+06
171028
7.14969e+06
-51583.4
7.19845e+06
-118001
7.20232e+06
-98527.8
7.17046e+06
-57342.3
7.11411e+06
-11549.9
7.10309e+06
-41042
7.11673e+06
-103486
7.0699e+06
-39878.7
6.98245e+06
26064.9
6.89793e+06
32725.9
6.82033e+06
30193.4
6.74318e+06
12472.6
6.68654e+06
-2989.56
6.65914e+06
-9883.42
6.59792e+06
-47111
6.59524e+06
-160164
6.7349e+06
-243954
6.82158e+06
-372480
6.57166e+06
-120138
-985404
9.99906e+06
174.673
9213.68
9.99587e+06
324.088
27189.7
9.98861e+06
439.7
45372.1
9.97725e+06
487.959
63689.1
9.9616e+06
552.712
82308.3
9.94163e+06
616.895
101177
9.91652e+06
635.956
120997
9.88666e+06
608.336
141222
9.85166e+06
559.307
161912
9.81153e+06
515.929
183487
9.76589e+06
498.498
205576
9.71429e+06
529.08
228597
9.65663e+06
600.261
252412
9.59292e+06
801.932
276915
9.52248e+06
970.143
303147
9.44734e+06
1728.59
331579
9.36354e+06
1102.36
362469
9.2705e+06
662.038
384767
9.18097e+06
883.2
406752
9.09095e+06
1121.93
431228
8.99308e+06
1397.81
455614
8.88606e+06
1333.49
474158
8.76544e+06
1202.1
497677
8.63278e+06
1526.33
521263
8.48958e+06
983.638
543735
8.33238e+06
927.026
556189
8.1541e+06
3488.87
563441
7.94061e+06
6206.88
593299
7.67196e+06
5341.85
639983
7.34477e+06
6082.16
692651
7.0042e+06
8375.18
727134
6.70318e+06
13598.9
676994
6.4816e+06
26334.4
497594
6.41932e+06
46816.1
121028
6.53713e+06
38756.2
-324697
6.62573e+06
-55564.6
-169361
6.55861e+06
-140004
259791
6.45441e+06
-197423
442143
6.36686e+06
-190043
459598
6.40895e+06
-89938.3
66267.1
6.43988e+06
-34730.1
-42338.2
6.40393e+06
-57015.3
156525
6.3187e+06
-62923.3
291606
6.22865e+06
-58540.9
287089
6.14018e+06
-54883.8
275024
6.02932e+06
-62266.9
281795
5.95108e+06
-72836.7
247925
5.92592e+06
-47715
162415
5.8945e+06
-43434.4
198750
5.93136e+06
-63655.5
75769.3
6.07675e+06
-48623.9
-136312
6.11534e+06
-26624
-257406
6.06768e+06
-32148.1
-345508
248390
-410559
9.99931e+06
9213.5
9.99585e+06
27185.8
9.9885e+06
45360
9.97706e+06
63675.1
9.96139e+06
82296.4
9.94147e+06
101165
9.91643e+06
120979
9.88661e+06
141195
9.8516e+06
161874
9.81142e+06
183436
9.7657e+06
205515
9.71404e+06
228523
9.65635e+06
252342
9.59275e+06
276813
9.5226e+06
303078
9.44812e+06
331362
9.36549e+06
362912
9.27092e+06
390558
9.18219e+06
406991
9.0928e+06
429317
8.99513e+06
453140
8.88622e+06
472077
8.7628e+06
494910
8.62973e+06
522544
8.48695e+06
544094
8.32663e+06
561810
8.14349e+06
587181
7.92896e+06
627363
7.66721e+06
671930
7.35384e+06
716799
7.03486e+06
741632
6.75433e+06
706259
6.53869e+06
578490
6.46882e+06
288270
6.60865e+06
-152099
6.7061e+06
-276275
6.71929e+06
-262464
6.64794e+06
-194580
6.55844e+06
-120981
6.59953e+06
-177692
6.618e+06
-158836
6.56376e+06
-54350.3
6.45607e+06
36183.7
6.35502e+06
32093.9
6.25661e+06
24817.9
6.14178e+06
14123.7
6.04722e+06
-13080.4
6.02075e+06
-40441.9
5.99209e+06
-36069
6.00915e+06
-174379
6.02789e+06
-305222
6.06717e+06
-369956
6.2504e+06
-312501
-613813
9.99909e+06
173.516
11181.3
9.99596e+06
321.275
32977.7
9.98885e+06
435.096
55176.5
9.97774e+06
481.074
77659.1
9.96246e+06
543.132
100553
9.94282e+06
604.88
123822
9.91862e+06
622.372
148176
9.88987e+06
594.244
172900
9.85596e+06
545.886
198668
9.81692e+06
504.261
225360
9.77254e+06
490.479
252855
9.72265e+06
520.446
281649
9.66741e+06
608.355
311300
9.60626e+06
776.948
342622
9.53954e+06
1065.13
375707
9.46798e+06
1472.46
410860
9.38864e+06
2267.64
449549
9.29086e+06
1816.84
487895
9.1874e+06
559.836
511508
9.08326e+06
1821.92
534638
8.97877e+06
2578.83
558126
8.8646e+06
1860.44
587166
8.73228e+06
591.163
629941
8.57889e+06
-301.518
675565
8.40603e+06
-3094.79
720346
8.20344e+06
-4171.89
763794
7.9689e+06
-1076.36
800167
7.69838e+06
1731.49
863182
7.38336e+06
282.558
955904
7.03827e+06
158.106
1.03881e+06
6.70433e+06
4025
1.05816e+06
6.4057e+06
12928
963665
6.17649e+06
26779.5
701825
6.07952e+06
56154.4
162871
6.18957e+06
120533
-553895
6.03596e+06
-57807.8
40361.1
6.03934e+06
-167963
412383
6.00871e+06
-188164
647177
5.82772e+06
-221684
855148
5.83442e+06
-55118.9
111409
5.83243e+06
-22308.3
-18176.8
5.75157e+06
-85310.7
317437
5.696e+06
-86810.1
405428
5.60209e+06
-79735.5
413493
5.50745e+06
-82042.6
371828
5.43659e+06
-84387.2
334372
5.369e+06
-73780.5
291885
5.23088e+06
-12024.4
265778
5.14361e+06
-13358.2
314453
5.2589e+06
-55635.3
154105
5.20013e+06
-7352.17
12630.5
5.08765e+06
84322.1
-155963
5.0097e+06
-1137.13
-210608
78405.1
-338488
9.99934e+06
11178
9.99593e+06
32968.7
9.98873e+06
55164.8
9.97754e+06
77647.5
9.96225e+06
100543
9.94266e+06
123809
9.91854e+06
148155
9.88982e+06
172865
9.8559e+06
198615
9.8168e+06
225291
9.77236e+06
252772
9.7224e+06
281559
9.66716e+06
311217
9.60605e+06
342530
9.53962e+06
375672
9.4679e+06
410787
9.39021e+06
449270
9.29825e+06
488797
9.19436e+06
513767
9.0875e+06
539488
8.97915e+06
564958
8.85705e+06
596599
8.71904e+06
634003
8.56682e+06
674859
8.39114e+06
717222
8.18413e+06
765351
7.95604e+06
814883
7.69747e+06
888413
7.39909e+06
971435
7.07185e+06
1.04511e+06
6.75408e+06
1.06429e+06
6.48033e+06
993558
6.29504e+06
791639
6.27505e+06
366140
6.47509e+06
-225754
6.67774e+06
-529888
6.76097e+06
-518125
6.73683e+06
-366544
6.57912e+06
-190397
6.46109e+06
-116627
6.33196e+06
-53005.3
6.18419e+06
3212.99
6.08059e+06
34824.4
5.97101e+06
23377.5
5.85649e+06
1619.36
5.74631e+06
-22103.5
5.65372e+06
-41221.2
5.59693e+06
-8045.45
5.54594e+06
35694.7
5.37871e+06
-42736.4
5.22011e+06
-113785
5.31528e+06
-346541
5.27354e+06
-315631
-519131
9.99912e+06
169.847
13085.4
9.99607e+06
313.328
38631.4
9.9892e+06
425.281
64699.1
9.97851e+06
470.902
91151.7
9.96396e+06
530.825
118019
9.945e+06
587.923
145688
9.92174e+06
599.113
174293
9.89384e+06
564.154
203552
9.86109e+06
509.501
234068
9.8235e+06
463.92
265570
9.78051e+06
449.867
298543
9.73238e+06
483.124
332758
9.6789e+06
581.169
368338
9.62008e+06
735.088
405820
9.55658e+06
1043.01
445026
9.48846e+06
1311.12
486195
9.41749e+06
1965.9
529126
9.33864e+06
1337.17
575236
9.24334e+06
265.803
612850
9.13099e+06
2105.05
649515
9.00437e+06
3447.31
684359
8.86399e+06
1153.87
728412
8.72144e+06
-831.591
774295
8.56217e+06
-2535.36
838335
8.36695e+06
-6438.23
923293
8.12172e+06
-6174.83
1.01715e+06
7.8347e+06
-1766.54
1.09074e+06
7.53384e+06
3478.1
1.16204e+06
7.21903e+06
3697.45
1.26832e+06
6.88784e+06
3706.74
1.36748e+06
6.54701e+06
8916.89
1.39126e+06
6.19514e+06
23714.5
1.29399e+06
5.80513e+06
54969.7
1.03939e+06
5.29835e+06
196519
476348
3.84672e+06
806365
99101.5
2.86684e+06
552077
472867
2.47452e+06
278244
530132
3.03829e+06
183584
-115019
3.55442e+06
76511.8
232528
4.06242e+06
126875
-524502
4.22883e+06
22022.6
-206481
4.34598e+06
-37250.1
248097
4.39349e+06
-5639.08
363003
4.41275e+06
-3943.27
350817
4.39362e+06
15070.2
271441
4.38357e+06
15977.7
181078
4.2987e+06
61750.1
174505
4.25941e+06
181745
46386.6
4.25068e+06
268462
38501
4.11702e+06
275385
-906.916
3.98128e+06
216983
-51689.8
3.8322e+06
181963
-123415
3.6825e+06
88440.2
-262780
66631.3
-805678
9.99936e+06
13084.8
9.99604e+06
38626.7
9.98909e+06
64684.9
9.97833e+06
91137.3
9.96374e+06
118010
9.94484e+06
145680
9.92164e+06
174279
9.89378e+06
203525
9.86101e+06
234024
9.82336e+06
265509
9.78031e+06
298470
9.73213e+06
332680
9.67864e+06
368261
9.61993e+06
405765
9.55653e+06
444954
9.48867e+06
486121
9.41782e+06
529044
9.34075e+06
574081
9.24535e+06
615223
9.13562e+06
655408
9.01077e+06
695600
8.87016e+06
740272
8.71663e+06
788048
8.54553e+06
844202
8.34261e+06
914744
8.0995e+06
1.00339e+06
7.83665e+06
1.07704e+06
7.55594e+06
1.1735e+06
7.25173e+06
1.28028e+06
6.93285e+06
1.36863e+06
6.61988e+06
1.38699e+06
6.33042e+06
1.30812e+06
6.0743e+06
1.10488e+06
5.93398e+06
711348
6.50873e+06
34645.7
6.64939e+06
-114159
6.57619e+06
-169663
6.44285e+06
-55908.1
6.23748e+06
84170.2
5.95201e+06
293297
5.56842e+06
354561
5.35771e+06
178104
5.27963e+06
92411.6
5.19409e+06
63747.1
5.07183e+06
67139.1
4.95564e+06
19515
4.90193e+06
-16507.1
4.84117e+06
174667
4.74555e+06
350413
4.65329e+06
303170
4.53091e+06
221404
4.38808e+06
-106369
4.10557e+06
61905.8
-336790
9.99917e+06
167.979
14917.6
9.99629e+06
310.092
44058.2
9.98979e+06
421.388
73801.9
9.97966e+06
465.886
104032
9.96582e+06
522.648
134699
9.94773e+06
575.128
166609
9.92546e+06
582.047
199325
9.89867e+06
544.558
232996
9.86734e+06
490.246
267954
9.8307e+06
448.528
304743
9.78938e+06
441.896
342512
9.74291e+06
485.737
382187
9.69117e+06
587.368
423579
9.6346e+06
756.233
466734
9.57342e+06
996.002
511620
9.50801e+06
1262.11
558090
9.43854e+06
1537.71
606075
9.36573e+06
1708.82
656026
9.28258e+06
1283.12
704298
9.18642e+06
675.073
753510
9.07148e+06
942.823
805793
8.93444e+06
-1085.73
872628
8.77844e+06
-1630.01
935321
8.61056e+06
-4945.46
1.01291e+06
8.40959e+06
-10179.6
1.13607e+06
8.1508e+06
-10855.5
1.28879e+06
7.8375e+06
-759.719
1.40746e+06
7.50433e+06
9589.95
1.4878e+06
7.17332e+06
9736.01
1.59131e+06
6.83618e+06
7132.71
1.69889e+06
6.48455e+06
14316.6
1.73e+06
6.07619e+06
33610.4
1.67053e+06
5.41227e+06
98720.8
1.60682e+06
3.50693e+06
523621
1.86107e+06
1.24406e+06
755711
1.62134e+06
1.19927e+06
18327.1
499332
1.17223e+06
96579.4
431235
285041
578710
88759.8
111012
54183.8
233392
841598
-378511
-929869
1.56194e+06
-305890
-645733
1.65858e+06
57704.1
46302.8
1.6272e+06
193915
138277
1.65098e+06
188716
48209.3
1.62461e+06
231414
-76602.8
1.57464e+06
277612
-246945
1.52633e+06
419987
-411587
1.63448e+06
469171
-700986
1.86423e+06
480347
-835261
2.13003e+06
516569
-916163
2.52106e+06
483301
-978436
2.99765e+06
317289
-1.07409e+06
3.65468e+06
356559
-1.24984e+06
91863.1
-1.57156e+06
9.9994e+06
14913.3
9.99627e+06
44045.4
9.98968e+06
73783.8
9.97947e+06
104013
9.96561e+06
134682
9.94756e+06
166592
9.92536e+06
199303
9.8986e+06
232965
9.86725e+06
267912
9.83056e+06
304692
9.78918e+06
342454
9.74267e+06
382125
9.69094e+06
423513
9.63444e+06
466658
9.57337e+06
511519
9.50813e+06
557963
9.43885e+06
605903
9.36599e+06
655077
9.28397e+06
704752
9.18946e+06
756253
9.07888e+06
812259
8.94598e+06
876891
8.78121e+06
955041
8.59932e+06
1.02264e+06
8.38163e+06
1.12372e+06
8.11659e+06
1.2591e+06
7.82933e+06
1.36514e+06
7.53117e+06
1.48249e+06
7.21844e+06
1.60389e+06
6.89708e+06
1.69804e+06
6.5768e+06
1.7226e+06
6.26067e+06
1.65906e+06
5.91801e+06
1.54822e+06
5.58922e+06
1.58202e+06
4.1783e+06
2.20387e+06
2.48926e+06
1.5897e+06
1.5013e+06
893584
1.47711e+06
520779
1.39072e+06
194973
1.63906e+06
-366231
1.77378e+06
-120892
1.6451e+06
330137
1.60383e+06
283302
1.62192e+06
158102
1.71866e+06
88744
1.8768e+06
-30442.8
1.99414e+06
22198
1.93756e+06
462106
1.70212e+06
786639
1.69235e+06
611069
1.80332e+06
382809
1.71305e+06
268859
2.01663e+06
120200
-317682
9.99923e+06
163.23
16626.5
9.99659e+06
298.748
49164.1
9.99054e+06
405.991
82376.9
9.98105e+06
448.165
116170
9.96796e+06
501.724
150528
9.951e+06
550.588
186282
9.93015e+06
555.677
222832
9.90464e+06
519.23
261056
9.87456e+06
469.172
300524
9.84e+06
433.869
341793
9.80032e+06
434.301
384837
9.75569e+06
480.809
429750
9.70607e+06
574.116
476581
9.65143e+06
716.764
525376
9.59208e+06
881.42
575666
9.52826e+06
1103.68
627541
9.46015e+06
1225.36
680305
9.38864e+06
1346.42
734316
9.31124e+06
889.703
789126
9.22708e+06
209.544
846167
9.13287e+06
-319.468
908696
9.02739e+06
-52.218
986537
8.89224e+06
498.161
1.07815e+06
8.7259e+06
-4574.12
1.18773e+06
8.53621e+06
-12585.6
1.34041e+06
8.31311e+06
-14863.3
1.52893e+06
8.03437e+06
-3088.44
1.69229e+06
7.67648e+06
15219.4
1.83578e+06
7.28181e+06
20729
1.97002e+06
6.90653e+06
10812.7
2.06659e+06
6.57844e+06
12126.8
2.04767e+06
6.26036e+06
20696.9
1.96901e+06
5.89131e+06
40894.5
1.93501e+06
5.31491e+06
264387
2.17513e+06
3.14817e+06
636366
3.14396e+06
1.30243e+06
380551
1.93795e+06
142466
350222
1.14593e+06
-372371
171562
290944
-21949.7
-377595
123838
-286867
-635888
-142362
-490840
-289588
-295261
-42063.8
21259.1
-593319
521076
113917
-644276
963918
164663
-635757
1.45994e+06
151131
-815366
2.06376e+06
50952.9
-1.02628e+06
2.72752e+06
-78561.3
-1.20965e+06
3.35867e+06
-175138
-1.3599e+06
3.93134e+06
-163340
-1.47036e+06
4.37479e+06
27040.9
-1.56062e+06
4.73373e+06
104645
-1.59149e+06
5.11689e+06
85997.5
-1.56521e+06
5.38062e+06
80667.7
-1.59599e+06
-25082.2
-1.64791e+06
9.99946e+06
16625.9
9.99657e+06
49158.3
9.99043e+06
82359.7
9.98087e+06
116151
9.96775e+06
150514
9.95084e+06
186269
9.93004e+06
222814
9.90456e+06
261028
9.87446e+06
300485
9.83986e+06
341745
9.80012e+06
384784
9.75545e+06
429696
9.70584e+06
476528
9.65125e+06
525315
9.59203e+06
575600
9.52826e+06
627404
9.46031e+06
680147
9.38815e+06
733999
9.31044e+06
789027
9.22626e+06
846265
9.13385e+06
910139
9.03101e+06
985637
8.90337e+06
1.08854e+06
8.73261e+06
1.19259e+06
8.51702e+06
1.32992e+06
8.2616e+06
1.50168e+06
7.95943e+06
1.66814e+06
7.64525e+06
1.81424e+06
7.33056e+06
1.94104e+06
7.00044e+06
2.04091e+06
6.66527e+06
2.0718e+06
6.35593e+06
1.99038e+06
6.03839e+06
1.90991e+06
5.84561e+06
2.03767e+06
5.98491e+06
2.69347e+06
5.11522e+06
2.82745e+06
4.03338e+06
2.31295e+06
3.03252e+06
1.67833e+06
1.62743e+06
1.1932e+06
-123568
698627
-980833
394342
-823637
156206
-436543
-37359
13913.4
-198016
333829
-185984
173734
-45580.7
-491381
232204
-735842
180091
-555582
118078
23165.8
-160434
773041
-363908
1.59709e+06
-493613
2.41135e+06
-612907
-673669
9.9993e+06
161.195
18218.9
9.99696e+06
294.602
53921.3
9.99144e+06
400.438
90351.4
9.98273e+06
440.919
127461
9.97064e+06
491.676
165271
9.95493e+06
537.961
204643
9.93531e+06
542.714
245020
9.91165e+06
509.019
287202
9.88341e+06
464.315
331210
9.85063e+06
435.718
377042
9.81323e+06
441.552
424848
9.77064e+06
488.449
475227
9.7229e+06
573.617
527580
9.67023e+06
687.162
581755
9.61243e+06
822.223
637765
9.54997e+06
958.847
694848
9.48292e+06
1050.13
752708
9.41231e+06
1126.01
810874
9.33861e+06
1048.05
869220
9.2622e+06
955.381
929625
9.1833e+06
847.17
994955
9.10327e+06
1182.95
1.07481e+06
9.01044e+06
1915.85
1.17752e+06
8.88396e+06
6742.28
1.31629e+06
8.72104e+06
1186.13
1.50637e+06
8.543e+06
-6312.55
1.71495e+06
8.3338e+06
-5840.88
1.91339e+06
8.04222e+06
2704.59
2.1338e+06
7.67189e+06
20373.2
2.32961e+06
7.24374e+06
31533.3
2.47308e+06
6.78769e+06
30648.9
2.4803e+06
6.35974e+06
21426.5
2.3789e+06
6.0031e+06
24999.3
2.26699e+06
5.90749e+06
39976.7
2.22658e+06
5.81862e+06
248939
2.977e+06
4.59559e+06
212468
2.94045e+06
3.3869e+06
108196
2.24439e+06
2.33249e+06
-37112
1.37954e+06
1.92497e+06
-167068
685150
1.95681e+06
-362380
159581
2.30664e+06
-456025
-220261
2.64857e+06
-411815
-556004
3.0165e+06
-237347
-817341
3.42299e+06
-36446.5
-1.0466e+06
3.84859e+06
4424.14
-1.26031e+06
4.32527e+06
-82988.2
-1.41481e+06
4.82553e+06
-204400
-1.5089e+06
5.26182e+06
-248959
-1.58069e+06
5.60234e+06
-251196
-1.63633e+06
5.81522e+06
-210616
-1.66233e+06
5.95369e+06
-170909
-1.63078e+06
6.06591e+06
-154405
-1.56511e+06
6.07814e+06
-125613
-1.48593e+06
-138223
-1.41629e+06
9.99953e+06
18214.4
9.99694e+06
53907.5
9.99133e+06
90331.6
9.98255e+06
127440
9.97044e+06
165252
9.95476e+06
204624
9.9352e+06
244996
9.91157e+06
287172
9.88331e+06
331171
9.85049e+06
376995
9.81305e+06
424792
9.77042e+06
475163
9.72267e+06
527505
9.67005e+06
581663
9.61229e+06
637650
9.54987e+06
694701
9.48287e+06
752565
9.41209e+06
810630
9.3383e+06
868986
9.26175e+06
929241
9.18349e+06
995039
9.10275e+06
1.07357e+06
9.02114e+06
1.17857e+06
8.91317e+06
1.314e+06
8.7506e+06
1.49874e+06
8.53954e+06
1.7104e+06
8.25655e+06
1.94977e+06
7.92152e+06
2.15576e+06
7.58724e+06
2.30006e+06
7.25772e+06
2.40774e+06
6.89984e+06
2.4664e+06
6.50252e+06
2.41304e+06
6.11976e+06
2.31826e+06
5.89338e+06
2.30363e+06
6.21747e+06
2.61738e+06
6.39318e+06
2.86663e+06
6.12072e+06
2.69791e+06
5.51396e+06
2.25069e+06
4.76445e+06
1.77376e+06
3.7727e+06
1.32238e+06
2.7789e+06
920288
1.97896e+06
515280
1.54057e+06
118485
1.49044e+06
-220010
1.74381e+06
-446567
2.17914e+06
-562075
2.81944e+06
-611081
3.4069e+06
-681247
3.99755e+06
-776097
4.45424e+06
-896774
4.82765e+06
-964867
5.15094e+06
-1.00835e+06
5.37256e+06
-986027
-1.10744e+06
9.99939e+06
156.253
19647.9
9.9974e+06
282.268
58239.1
9.99251e+06
383.251
97606.9
9.98471e+06
421.12
137749
9.9738e+06
469.338
178732
9.95952e+06
513.768
221465
9.9416e+06
519.002
265416
9.91977e+06
488.324
311444
9.89375e+06
447.594
359609
9.86327e+06
421.678
409932
9.82805e+06
424.614
462589
9.78789e+06
460.902
518087
9.74243e+06
524.084
575997
9.69132e+06
606.137
636116
9.63485e+06
703.612
697917
9.57301e+06
798.172
760833
9.50676e+06
917.653
823810
9.43695e+06
988.882
885968
9.36601e+06
1107.72
946193
9.29692e+06
1072.43
1.00513e+06
9.23469e+06
1126.42
1.06445e+06
9.18045e+06
366.325
1.13687e+06
9.13484e+06
1611.53
1.22974e+06
9.07791e+06
10030
1.37217e+06
8.96927e+06
17048
1.60288e+06
8.80123e+06
12545.9
1.8734e+06
8.57271e+06
1691.64
2.14268e+06
8.31853e+06
-4720.11
2.39731e+06
8.04405e+06
1852.46
2.61093e+06
7.72914e+06
15360.8
2.78415e+06
7.32163e+06
20671.6
2.87812e+06
6.81587e+06
22801.8
2.87126e+06
6.31431e+06
33554.1
2.74003e+06
5.96468e+06
-1813.59
2.58403e+06
6.17558e+06
50952.7
2.72814e+06
6.2056e+06
73734.4
2.85831e+06
5.85406e+06
37112.5
2.58171e+06
5.32667e+06
-52835
1.9789e+06
4.91805e+06
-152738
1.25974e+06
4.74314e+06
-241941
584924
4.803e+06
-303674
15384.1
4.96845e+06
-299020
-452003
5.17757e+06
-233867
-830136
5.40133e+06
-175830
-1.11242e+06
5.63057e+06
-160024
-1.31402e+06
5.878e+06
-175657
-1.43807e+06
6.13347e+06
-201016
-1.50209e+06
6.34433e+06
-220099
-1.53616e+06
6.47228e+06
-227219
-1.55415e+06
6.51608e+06
-221366
-1.55268e+06
6.508e+06
-205650
-1.50011e+06
6.50322e+06
-200189
-1.41329e+06
6.40724e+06
-181700
-1.25517e+06
-110406
-1.19475e+06
9.99961e+06
19647.5
9.99738e+06
58233.6
9.99241e+06
97590.4
9.98454e+06
137730
9.9736e+06
178718
9.95935e+06
221452
9.94149e+06
265400
9.91968e+06
311419
9.89365e+06
359575
9.86313e+06
409891
9.82785e+06
462544
9.78765e+06
518039
9.74217e+06
575944
9.6911e+06
636054
9.63466e+06
697836
9.5729e+06
760734
9.50663e+06
823666
9.43688e+06
885806
9.36582e+06
946027
9.29661e+06
1.00482e+06
9.2335e+06
1.06486e+06
9.1788e+06
1.13457e+06
9.13599e+06
1.22929e+06
9.09464e+06
1.37104e+06
9.01634e+06
1.59839e+06
8.85508e+06
1.88636e+06
8.61785e+06
2.19013e+06
8.32598e+06
2.4469e+06
8.0014e+06
2.63358e+06
7.66424e+06
2.76853e+06
7.3071e+06
2.85196e+06
6.89495e+06
2.85341e+06
6.45778e+06
2.7929e+06
6.0601e+06
2.70489e+06
6.04308e+06
2.69557e+06
6.30322e+06
2.69274e+06
6.51815e+06
2.53117e+06
6.53514e+06
2.18854e+06
6.41482e+06
1.74639e+06
6.22349e+06
1.27139e+06
6.02547e+06
804405
5.86377e+06
358206
5.78128e+06
-52473.8
5.78124e+06
-402157
5.8637e+06
-671321
6.01154e+06
-845548
6.19774e+06
-956877
6.36027e+06
-1.04547e+06
6.4624e+06
-1.12505e+06
6.49291e+06
-1.19919e+06
6.5167e+06
-1.24919e+06
6.58289e+06
-1.32038e+06
6.72324e+06
-1.31187e+06
-1.72938e+06
9.99948e+06
154.498
20923.7
9.99791e+06
278.405
62094.9
9.99376e+06
378.27
104073
9.987e+06
414.748
146931
9.97745e+06
460.824
190774
9.96483e+06
503.792
236556
9.94867e+06
509.949
284004
9.92906e+06
482.75
333428
9.90571e+06
446.908
385309
9.87787e+06
425.026
440160
9.84517e+06
428.819
497779
9.80757e+06
460.314
558320
9.76432e+06
512.422
622056
9.71529e+06
579.416
688186
9.6598e+06
656.482
756778
9.59826e+06
750.027
826245
9.53108e+06
857.422
895450
9.46008e+06
964.447
962117
9.38842e+06
1130.95
1.02368e+06
9.32261e+06
1090.58
1.07734e+06
9.27201e+06
1331.94
1.12182e+06
9.25219e+06
28.9414
1.16408e+06
9.26047e+06
1579.39
1.22586e+06
9.29257e+06
7469.21
1.33908e+06
9.2688e+06
16578.2
1.61789e+06
9.11147e+06
17053.8
2.01319e+06
8.84999e+06
5199.65
2.39795e+06
8.56023e+06
-2709.72
2.69328e+06
8.27211e+06
-2202.12
2.90967e+06
7.98092e+06
1839.66
3.08299e+06
7.65509e+06
3254.15
3.20931e+06
7.26394e+06
3499.2
3.2651e+06
6.7818e+06
3650.25
3.22299e+06
6.28815e+06
-4189.73
3.08901e+06
6.10347e+06
2550.2
2.923e+06
6.19924e+06
14163.5
2.76291e+06
6.29982e+06
7531.17
2.48454e+06
6.28677e+06
-30883.7
2.0278e+06
6.21005e+06
-95790.2
1.43194e+06
6.16247e+06
-162403
785260
6.18212e+06
-210557
187138
6.24919e+06
-233496
-311901
6.33263e+06
-235936
-698748
6.41859e+06
-231461
-975907
6.49413e+06
-219765
-1.15543e+06
6.5701e+06
-211964
-1.25943e+06
6.64676e+06
-205176
-1.31512e+06
6.70779e+06
-201402
-1.3467e+06
6.72511e+06
-201482
-1.36193e+06
6.70047e+06
-200682
-1.35764e+06
6.68565e+06
-199700
-1.33208e+06
6.7371e+06
-197616
-1.30786e+06
6.89178e+06
-161733
-1.22801e+06
-90428.6
-1.357e+06
9.9997e+06
20919.7
9.99789e+06
62082.3
9.99366e+06
104055
9.98683e+06
146912
9.97725e+06
190758
9.96467e+06
236540
9.94856e+06
283984
9.92897e+06
333402
9.90562e+06
385275
9.87773e+06
440117
9.84497e+06
497730
9.80733e+06
558262
9.76406e+06
621992
9.71505e+06
688113
9.65961e+06
756697
9.59811e+06
826153
9.53097e+06
895352
9.45998e+06
962043
9.38831e+06
1.02363e+06
9.32214e+06
1.07741e+06
9.27105e+06
1.12298e+06
9.2468e+06
1.16491e+06
9.25781e+06
1.2252e+06
9.29759e+06
1.34412e+06
9.28363e+06
1.63111e+06
9.13577e+06
2.05066e+06
8.89485e+06
2.43723e+06
8.61702e+06
2.72614e+06
8.31545e+06
2.93939e+06
7.98874e+06
3.10403e+06
7.63687e+06
3.21265e+06
7.24495e+06
3.25275e+06
6.81742e+06
3.22714e+06
6.38853e+06
3.13436e+06
6.1079e+06
2.98493e+06
6.05323e+06
2.76691e+06
6.1474e+06
2.44607e+06
6.2803e+06
2.02155e+06
6.39881e+06
1.52367e+06
6.50284e+06
991738
6.59414e+06
484494
6.65877e+06
41297.7
6.68959e+06
-331495
6.69144e+06
-633394
6.6759e+06
-855759
6.6549e+06
-1.00244e+06
6.64472e+06
-1.11143e+06
6.65754e+06
-1.22957e+06
6.71157e+06
-1.37606e+06
6.84806e+06
-1.55433e+06
7.1428e+06
-1.7704e+06
7.65048e+06
-2.02324e+06
8.44898e+06
-2.27306e+06
-2.84324e+06
9.99959e+06
150.071
21999
9.9985e+06
267.201
65393.2
9.99519e+06
362.338
109624
9.98963e+06
396.496
154834
9.98143e+06
440.887
201380
9.97091e+06
483.2
249474
9.95719e+06
490.85
300076
9.94016e+06
466.671
352772
9.91926e+06
433.548
408506
9.8945e+06
411.184
467243
9.86516e+06
410.093
529495
9.83049e+06
429.582
595463
9.79009e+06
467.082
665034
9.74287e+06
517.383
738159
9.68857e+06
583.69
814146
9.6266e+06
675.071
891811
9.55685e+06
784.988
969470
9.48062e+06
953.221
1.04354e+06
9.40119e+06
1109.57
1.10895e+06
9.32732e+06
1395.35
1.15777e+06
9.27522e+06
1839.25
1.18038e+06
9.2684e+06
3843.35