/*--------------------------------*- C++ -*----------------------------------*\
| =========                 |                                                 |
| \\      /  F ield         | OpenFOAM: The Open Source CFD Toolbox           |
|  \\    /   O peration     | Version:  4.1                                   |
|   \\  /    A nd           | Web:      www.OpenFOAM.org                      |
|    \\/     M anipulation  |                                                 |
\*---------------------------------------------------------------------------*/
FoamFile
{
    version     2.0;
    format      ascii;
    class       volVectorField;
    location    "55";
    object      U;
}
// * * * * * * * * * * * * * * * * * * * * * * * * * * * * * * * * * * * * * //

dimensions      [0 1 -1 0 0 0 0];

internalField   nonuniform List<vector> 
4432
(
(39.9814 0.000246158 0.0507131)
(39.9198 0.000789808 0.0908938)
(39.8295 0.00160419 0.120403)
(39.7037 0.00185 0.149111)
(39.5358 0.00168714 0.178851)
(39.3283 0.0015917 0.209779)
(39.0842 0.00171132 0.242209)
(38.8026 0.00197148 0.275747)
(38.4794 0.00227917 0.310574)
(38.1119 0.00254217 0.346311)
(37.6998 0.00275866 0.381209)
(37.2461 0.00299636 0.415737)
(36.7575 0.00308832 0.443398)
(36.2531 0.00321132 0.464035)
(35.7384 0.000606359 0.458055)
(35.3281 -0.0041041 0.405139)
(34.9748 -0.00220531 0.450121)
(34.8469 0.00134926 0.359564)
(34.9239 0.00248926 0.257131)
(34.9082 0.00492363 0.376232)
(34.6786 -0.00036688 0.471004)
(34.3288 -0.0115276 0.599884)
(33.8758 -0.0229105 0.681344)
(33.3571 -0.0319221 0.674645)
(32.7775 -0.0384122 0.656283)
(32.1647 -0.0436136 0.527264)
(31.6079 -0.0394163 0.320368)
(31.1399 -0.024462 0.100654)
(30.8022 -0.0129699 0.00508981)
(30.5843 -0.0135709 0.00248572)
(30.443 -0.0249336 0.112644)
(30.2879 -0.0406767 0.341011)
(30.0367 -0.0479095 0.402792)
(29.8355 -0.0242167 -0.0156137)
(29.8576 0.0160413 -0.824095)
(30.0352 0.0417629 -1.23938)
(30.3504 0.0433639 -1.15403)
(30.4694 -0.0164074 -1.05927)
(30.3595 0.000654293 -0.889929)
(30.2979 0.0736292 -0.674062)
(30.3814 0.0909054 -0.592973)
(30.4015 0.0632015 -0.621736)
(30.2965 0.00671076 -0.55121)
(30.0165 -0.0183099 -0.477841)
(29.7338 0.00327826 -0.438946)
(29.42 0.0777543 -0.472026)
(29.1902 0.0707777 -0.365305)
(29.4109 -0.0959184 -0.472)
(29.2658 -0.116581 -0.574836)
(28.9561 -0.086883 -0.679605)
(29.1528 0.0479136 -0.448075)
(30.452 0.0613063 -1.20541)
(31.5877 -0.0101092 -1.95035)
(32.8869 0.28348 -0.557368)
(39.9818 0.000246152 0.0507166)
(39.9204 0.000789851 0.09094)
(39.8296 0.00160405 0.120529)
(39.7028 0.00185054 0.149173)
(39.5345 0.00168779 0.17879)
(39.3273 0.0015918 0.20973)
(39.0835 0.00171032 0.242131)
(38.8019 0.0019695 0.275732)
(38.4785 0.00227683 0.310746)
(38.1107 0.00253979 0.34653)
(37.6982 0.00275777 0.381779)
(37.2444 0.00299746 0.416127)
(36.7561 0.00309089 0.444789)
(36.2467 0.00321481 0.464324)
(35.7343 0.000615778 0.464744)
(35.2753 -0.00413891 0.415039)
(34.9161 -0.00224561 0.398959)
(34.8315 0.00128492 0.313535)
(34.9177 0.00254455 0.246403)
(34.9325 0.0048651 0.386973)
(34.7061 -0.000459419 0.458056)
(34.3511 -0.0115803 0.518268)
(33.9067 -0.0230486 0.564362)
(33.3823 -0.0324474 0.55893)
(32.7824 -0.0392862 0.545757)
(32.1334 -0.0453112 0.406476)
(31.5233 -0.0427925 0.214593)
(31.02 -0.0286928 0.0760756)
(30.6346 -0.0178596 -0.0188895)
(30.3552 -0.0205211 -0.140361)
(30.2349 -0.0338498 -0.291103)
(30.2011 -0.0532829 -0.339218)
(30.1492 -0.0612379 -0.216101)
(30.0568 -0.0375801 -0.113268)
(30.1027 0.00808949 -0.413183)
(30.2214 0.04242 -0.712654)
(30.4765 0.0488169 -0.661853)
(30.5556 -0.0160641 -0.629224)
(30.5947 -0.0205318 -0.544234)
(30.5485 0.0585966 -0.44063)
(30.5582 0.103116 -0.371978)
(30.5368 0.0918019 -0.34314)
(30.4333 0.0322845 -0.252512)
(30.1906 0.00361534 -0.193304)
(29.9501 0.0268496 -0.203423)
(29.5496 0.0990045 -0.340726)
(29.0598 0.104422 -0.195983)
(29.1884 -0.0809888 -0.053518)
(29.2023 -0.0991005 -0.109381)
(29.0644 -0.0369235 -0.219282)
(29.3892 0.0660154 -0.368061)
(30.4291 0.0639791 -0.968657)
(31.5749 -0.0173062 -1.70608)
(33.4902 0.27356 -0.427716)
(40.008 0.000249266 0.0186491)
(40.0378 0.000790783 0.0571895)
(40.0757 0.00162347 0.0976399)
(40.1134 0.00188373 0.138313)
(40.1442 0.00172915 0.179162)
(40.1706 0.00164685 0.220796)
(40.1963 0.00182218 0.263724)
(40.2212 0.00220596 0.308371)
(40.2427 0.00268528 0.355113)
(40.2583 0.00315025 0.403977)
(40.2662 0.00353877 0.454356)
(40.2633 0.00372316 0.504134)
(40.2473 0.00406664 0.550216)
(40.2002 0.00384422 0.58221)
(40.1252 0.00726907 0.604886)
(39.8777 0.00896646 0.58344)
(39.5803 0.0108449 0.469882)
(38.9094 0.0102871 0.389523)
(37.9604 0.000828647 0.40589)
(37.131 -0.00200338 0.448429)
(36.4137 0.000290356 0.513698)
(35.7855 0.00341139 0.600584)
(35.2465 0.00650467 0.687623)
(34.7343 0.00939816 0.779492)
(34.2452 0.010856 0.846287)
(33.7693 0.0123723 0.847442)
(33.2935 0.0150613 0.794231)
(32.7949 0.0230586 0.722219)
(32.2301 0.0392026 0.620292)
(31.6717 0.0487061 0.477659)
(31.1412 0.0539973 0.34244)
(30.6095 0.0560905 0.306684)
(30.2002 0.0530144 0.257418)
(30.001 0.0446815 0.123609)
(30.0309 0.0296948 0.0597572)
(30.1332 -0.00119641 0.205008)
(30.2661 -0.0497703 0.451731)
(30.1729 -0.0858996 0.590183)
(30.0475 -0.0760607 0.600342)
(29.922 -0.0601779 0.442661)
(29.7828 -0.0806743 0.191601)
(29.6915 -0.131459 0.20385)
(29.4901 -0.176549 0.315963)
(29.142 -0.199315 0.425713)
(28.8327 -0.217845 0.493422)
(28.5637 -0.214161 0.410892)
(28.329 -0.215648 0.538738)
(28.3858 -0.192612 0.290598)
(27.6876 -0.17188 0.155282)
(27.9063 -0.264772 -0.125494)
(27.5968 -0.188334 -0.0661393)
(26.2851 0.030774 -0.849308)
(29.3791 0.247612 -1.59367)
(31.6204 0.145927 -4.07642)
(40.0084 0.000249261 0.018645)
(40.0384 0.000790808 0.0572064)
(40.0759 0.00162353 0.0976333)
(40.1125 0.00188385 0.138262)
(40.1429 0.00172935 0.179098)
(40.1697 0.00164719 0.220775)
(40.196 0.00182249 0.263827)
(40.2213 0.00220718 0.308653)
(40.243 0.00268428 0.355625)
(40.2587 0.00315313 0.40464)
(40.2666 0.00353289 0.455037)
(40.2637 0.00373148 0.504906)
(40.2467 0.00404165 0.550333)
(40.2045 0.00394589 0.584886)
(40.1227 0.00685739 0.597224)
(39.9477 0.0087955 0.567819)
(39.6385 0.0115573 0.485927)
(38.9497 0.0105736 0.37273)
(37.9745 0.00086636 0.38973)
(37.1254 -0.00181852 0.440022)
(36.4276 0.000399379 0.493764)
(35.8043 0.00354986 0.569961)
(35.2652 0.00677558 0.642135)
(34.76 0.0100233 0.717683)
(34.2799 0.0118474 0.777321)
(33.8242 0.0142197 0.777329)
(33.362 0.0186551 0.75581)
(32.8722 0.0263385 0.7236)
(32.3764 0.0388244 0.631178)
(31.9208 0.0528074 0.463525)
(31.4491 0.0684388 0.303457)
(30.8874 0.0849507 0.228524)
(30.392 0.0796654 0.145416)
(30.1549 0.0642886 0.0365098)
(30.1986 0.0385101 -0.0480186)
(30.3168 0.0038903 0.042455)
(30.5159 -0.0509234 0.192954)
(30.5221 -0.0911333 0.317112)
(30.4228 -0.0858669 0.336912)
(30.28 -0.0498823 0.270282)
(30.2928 -0.0529313 0.150092)
(30.3041 -0.0972711 0.225152)
(30.2264 -0.154256 0.377526)
(29.9895 -0.18256 0.46965)
(29.7919 -0.208409 0.46853)
(29.6269 -0.205528 0.293172)
(29.457 -0.205518 0.378677)
(29.4211 -0.188666 0.431051)
(29.359 -0.204983 0.184342)
(28.9709 -0.251993 -0.306954)
(28.3024 -0.101665 -0.375839)
(27.9234 0.0465614 -1.13716)
(30.7356 0.197179 -1.36387)
(32.8222 0.0975054 -3.45055)
(39.9994 0.000246156 0.0259378)
(39.9921 0.000784218 0.0740318)
(39.9735 0.00160362 0.119481)
(39.9384 0.00185578 0.163122)
(39.8819 0.00170917 0.206519)
(39.807 0.00165738 0.250727)
(39.7179 0.00187879 0.29637)
(39.6152 0.00231318 0.343878)
(39.4971 0.00283088 0.393556)
(39.3624 0.00330246 0.445392)
(39.2108 0.00362681 0.499041)
(39.0428 0.00378879 0.553654)
(38.8579 0.00377603 0.608405)
(38.6568 0.00390901 0.661859)
(38.426 0.00382171 0.717832)
(38.2057 0.00515982 0.787489)
(37.8884 0.00506667 0.837829)
(37.5705 0.00609071 0.936332)
(37.2279 0.00371286 1.10751)
(36.8087 0.00229501 1.21992)
(36.3301 0.00306171 1.26407)
(35.8315 0.0048624 1.27546)
(35.3459 0.00744208 1.29469)
(34.8596 0.0116173 1.32486)
(34.3726 0.0139885 1.35081)
(33.8794 0.0179009 1.32336)
(33.3488 0.0264947 1.24273)
(32.7565 0.0398149 1.16808)
(32.0723 0.0523663 1.03191)
(31.3155 0.0495702 0.909719)
(30.4029 0.0464057 0.934139)
(29.3886 0.0645085 0.98487)
(28.5414 0.117347 0.829117)
(27.8257 0.2078 0.379009)
(27.4854 0.265702 -0.513049)
(27.9494 0.0808338 -0.543774)
(28.0612 -0.127423 -0.0815885)
(27.9327 -0.233851 0.253586)
(27.5614 -0.256955 0.42799)
(27.3915 -0.114874 -0.0092512)
(27.4266 -0.0780418 -0.269207)
(27.5206 -0.156253 0.0431378)
(27.4001 -0.214753 0.331664)
(27.1043 -0.245176 0.445055)
(26.7708 -0.258978 0.514989)
(26.5045 -0.23572 0.520824)
(26.2418 -0.235547 0.494583)
(26.1261 -0.171116 0.315975)
(25.999 -0.199389 0.122433)
(26.0192 -0.196813 -0.347708)
(26.3151 -0.0972869 -0.463406)
(27.0169 -0.0378965 -0.79284)
(26.3473 0.249492 -3.383)
(24.1129 0.417131 -6.20859)
(39.9998 0.000246151 0.0259307)
(39.9927 0.000784242 0.0740098)
(39.9736 0.00160368 0.11943)
(39.9375 0.0018559 0.163055)
(39.8807 0.00170937 0.206456)
(39.8061 0.00165769 0.250684)
(39.7175 0.00187927 0.296355)
(39.6151 0.00231382 0.343893)
(39.4971 0.00283192 0.393596)
(39.3622 0.00330364 0.44543)
(39.2102 0.00362744 0.499029)
(39.0419 0.00379041 0.553597)
(38.8573 0.0037762 0.608053)
(38.6552 0.00391269 0.661442)
(38.4305 0.00382227 0.715086)
(38.1836 0.00510443 0.779574)
(37.8941 0.00469942 0.854243)
(37.5693 0.00632222 0.943735)
(37.2254 0.00390355 1.10133)
(36.8139 0.00239778 1.20586)
(36.343 0.00317265 1.24495)
(35.8515 0.00504299 1.24889)
(35.3733 0.00782024 1.25813)
(34.8867 0.0126196 1.30029)
(34.3918 0.0154763 1.33209)
(33.8958 0.0198395 1.30945)
(33.3648 0.0293871 1.25926)
(32.7933 0.0436948 1.21126)
(32.1821 0.0571195 1.11547)
(31.4938 0.0618257 0.966305)
(30.558 0.0580987 0.983209)
(29.5594 0.0723467 1.04975)
(28.7651 0.134012 0.856569)
(28.3573 0.207926 0.373113)
(28.3465 0.206237 -0.139641)
(28.6319 0.0936088 -0.344353)
(28.8775 -0.0492731 -0.2922)
(28.8118 -0.173259 -0.227372)
(28.6107 -0.20566 -0.264654)
(28.4362 -0.109707 -0.426292)
(28.3882 -0.0704656 -0.560794)
(28.3527 -0.108421 -0.336591)
(28.178 -0.152713 -0.144938)
(27.7803 -0.169437 -0.0810588)
(27.4109 -0.198674 -0.0190782)
(27.1547 -0.183794 -0.0404089)
(26.9231 -0.188452 -0.119879)
(26.7075 -0.12287 -0.167564)
(26.5035 -0.163652 -0.536849)
(26.1935 -0.149522 -0.792687)
(26.5437 -0.0834322 -0.790247)
(27.2147 -0.00105247 -1.03729)
(28.0173 -0.144235 -0.305068)
(24.6804 0.498778 -5.72103)
(39.9992 0.000242533 0.0329331)
(39.9909 0.000769434 0.0965634)
(39.9723 0.00157244 0.160983)
(39.9385 0.00181451 0.226488)
(39.8832 0.0016588 0.293678)
(39.8084 0.00159252 0.362857)
(39.7173 0.00179419 0.434141)
(39.6097 0.0022084 0.507564)
(39.4828 0.00270986 0.583121)
(39.3341 0.0031721 0.660688)
(39.1622 0.00349322 0.740068)
(38.9665 0.00365279 0.821088)
(38.7464 0.00360956 0.903771)
(38.5027 0.00366624 0.989104)
(38.232 0.00339696 1.08025)
(37.9471 0.00463419 1.18192)
(37.6275 0.00354682 1.31665)
(37.2444 0.00302663 1.37739)
(36.9004 0.00316729 1.44635)
(36.5456 0.00347814 1.5413)
(36.1631 0.00431863 1.6331)
(35.7525 0.00438447 1.68857)
(35.2995 0.00429819 1.73802)
(34.7854 0.00525522 1.79699)
(34.2384 0.00399817 1.86325)
(33.6559 0.00385859 1.88042)
(32.9822 0.0108134 1.86687)
(32.2127 0.0205985 1.90499)
(31.2975 0.0210536 1.96319)
(30.0755 0.0226103 2.05745)
(28.6471 0.0300135 2.23425)
(27.3688 0.0490153 2.16244)
(26.308 0.093144 1.66196)
(25.5503 0.162995 0.473122)
(25.7698 0.159401 -1.03512)
(26.3662 -0.085451 -0.61723)
(26.5343 -0.345014 0.298378)
(26.0769 -0.583667 0.857517)
(25.6134 -0.521152 0.982828)
(25.5279 -0.193452 0.153322)
(25.5944 -0.0932987 -0.156436)
(25.76 -0.189199 0.399203)
(25.5222 -0.269422 0.94625)
(25.1095 -0.27477 1.04702)
(24.7304 -0.246116 1.04374)
(24.3936 -0.23652 1.03454)
(23.9868 -0.297943 0.844659)
(23.7943 -0.188068 0.69817)
(23.6128 -0.228584 0.709126)
(23.3279 -0.260531 0.266019)
(23.9521 -0.185511 -0.809691)
(24.53 -0.177632 -1.42593)
(24.8882 -0.0512656 -1.69358)
(22.2093 0.946427 -2.11721)
(39.9995 0.000242528 0.0329277)
(39.9914 0.000769457 0.0965409)
(39.9724 0.0015725 0.16094)
(39.9376 0.00181463 0.22643)
(39.882 0.00165899 0.293609)
(39.8075 0.00159281 0.362769)
(39.7169 0.00179464 0.434026)
(39.6096 0.00220903 0.507417)
(39.4827 0.00271071 0.582946)
(39.3339 0.00317312 0.660491)
(39.1616 0.00349451 0.739866)
(38.9656 0.00365432 0.820869)
(38.7455 0.00361065 0.903548)
(38.5012 0.00367107 0.988756)
(38.2328 0.00339555 1.07982)
(37.9434 0.00467122 1.18162)
(37.6383 0.00351888 1.3139)
(37.2475 0.00299456 1.40671)
(36.9038 0.00322784 1.44907)
(36.5523 0.00357015 1.52941)
(36.1715 0.00450004 1.61402)
(35.7612 0.00466653 1.66356)
(35.2925 0.00446659 1.71411)
(34.7687 0.00502154 1.80828)
(34.2329 0.00381461 1.87554)
(33.6423 0.0035481 1.90618)
(32.9455 0.0120156 1.95741)
(32.1624 0.0231909 2.04522)
(31.2643 0.0234784 2.1302)
(30.0694 0.0247003 2.21889)
(28.7232 0.0303568 2.33386)
(27.5386 0.0471301 2.29539)
(26.5453 0.0893632 1.9842)
(25.7841 0.180563 1.14194)
(25.9489 0.196974 -0.319965)
(26.6332 -0.0764309 -0.698002)
(26.9814 -0.370681 -0.464986)
(26.8843 -0.72329 -0.160968)
(26.4585 -0.914738 0.208758)
(26.2374 -0.679822 -0.0645093)
(26.3525 -0.212285 -0.443534)
(26.4109 -0.193618 -0.18579)
(26.0988 -0.218751 0.190811)
(25.616 -0.24081 0.268953)
(25.288 -0.204409 0.326946)
(24.8072 -0.197675 0.332249)
(24.4324 -0.226208 0.235901)
(24.1198 -0.145752 0.0886514)
(23.982 -0.156392 -0.0314616)
(23.8976 -0.177671 -0.565404)
(23.9393 -0.155309 -1.22737)
(24.2708 -0.0521466 -1.66612)
(24.8376 -0.518745 -1.83833)
(24.5525 0.935384 -2.88699)
(39.9992 0.000240949 0.0407428)
(39.991 0.000763373 0.120323)
(39.9729 0.00156158 0.201357)
(39.9398 0.00179656 0.283233)
(39.8857 0.00163578 0.366278)
(39.8127 0.00156416 0.451052)
(39.7241 0.00175834 0.538043)
(39.6197 0.00216362 0.627649)
(39.4968 0.00265655 0.720203)
(39.3529 0.0031109 0.815996)
(39.1866 0.00342923 0.915291)
(38.9971 0.00357127 1.01843)
(38.7848 0.00356045 1.12586)
(38.5494 0.00352161 1.23882)
(38.2931 0.00359398 1.35849)
(38.011 0.00396626 1.48861)
(37.7268 0.00535477 1.62858)
(37.3482 0.00629284 1.75311)
(36.9543 0.00396867 1.8284)
(36.5322 0.0053542 1.90526)
(36.1174 0.00692195 2.00684)
(35.6805 0.00541146 2.10501)
(35.1923 0.00264497 2.25033)
(34.6116 -0.00056062 2.38217)
(33.9736 -0.0081182 2.49864)
(33.2457 -0.0121301 2.58986)
(32.3531 -0.00410552 2.67079)
(31.3587 0.00631947 2.8783)
(30.2104 0.00550841 3.19561)
(28.8341 0.00679456 3.50169)
(27.4424 0.0194939 3.59786)
(26.1886 0.0496209 3.27147)
(25.0663 0.1051 2.30277)
(24.2889 0.208172 0.339334)
(24.6225 0.304745 -1.80573)
(24.1501 -0.0680718 -1.20835)
(24.3931 -0.623767 1.5892)
(24.1004 -0.959729 2.66489)
(23.7793 -1.06808 2.70741)
(23.3899 -0.306776 0.687611)
(23.0312 -0.100181 -0.0565902)
(23.3234 -0.330492 0.706362)
(22.9839 -0.461843 1.23932)
(22.5586 -0.455522 1.25729)
(22.2273 -0.387666 1.15069)
(21.8423 -0.296743 1.0762)
(21.5541 -0.20842 0.893346)
(21.7035 -0.0898269 0.688601)
(20.148 -0.302119 1.24176)
(21.0201 -0.375118 0.639878)
(20.7638 -0.3489 -0.172262)
(20.0167 0.304202 -1.20734)
(21.886 -0.255484 -1.61686)
(18.5588 0.131875 -0.297816)
(39.9996 0.000240944 0.0407359)
(39.9916 0.000763397 0.120298)
(39.973 0.00156164 0.201308)
(39.9389 0.00179667 0.28318)
(39.8845 0.00163597 0.366235)
(39.8118 0.00156445 0.451008)
(39.7237 0.00175878 0.537979)
(39.6196 0.00216425 0.627544)
(39.4968 0.00265737 0.720042)
(39.3527 0.00311198 0.815771)
(39.186 0.00343022 0.915009)
(38.9963 0.00357392 1.01808)
(38.7837 0.00356605 1.12553)
(38.5484 0.00352728 1.23839)
(38.2922 0.00361133 1.35832)
(38.013 0.00394913 1.48827)
(37.7192 0.00536873 1.62963)
(37.375 0.00633413 1.77091)
(36.9837 0.00364767 1.83233)
(36.5552 0.00564506 1.89834)
(36.129 0.00776202 2.00084)
(35.6762 0.00688758 2.10983)
(35.1362 0.00275634 2.2498)
(34.5579 -0.000949129 2.37773)
(33.9373 -0.00838909 2.49095)
(33.1625 -0.0126854 2.61069)
(32.2752 -0.00302266 2.7652)
(31.3317 0.00768161 3.00876)
(30.2365 0.00626459 3.2892)
(28.9372 0.00632084 3.55275)
(27.6083 0.0175965 3.63344)
(26.4141 0.0462169 3.38488)
(25.4479 0.0943841 2.65033)
(24.8983 0.205444 1.10494)
(25.368 0.427308 -1.01443)
(26.0884 0.155017 -1.74809)
(27.0633 -0.104411 -1.75956)
(27.2842 -0.151491 -1.41518)
(26.8014 -0.304538 -0.939603)
(26.268 -0.118484 -0.81275)
(25.1921 -0.0140413 -0.583803)
(25.0521 -0.186962 -0.272733)
(24.5758 -0.275684 -0.0021542)
(24.1092 -0.284171 -0.0496729)
(23.6911 -0.238511 -0.110914)
(23.2289 -0.150789 -0.190849)
(22.8381 -0.0237984 -0.238398)
(22.5872 0.0300148 -0.128467)
(22.2362 -0.0573002 0.168816)
(22.0744 -0.275007 -0.438645)
(20.6972 0.0538893 -0.923195)
(20.8048 0.280472 -1.38594)
(22.171 -0.16494 -1.32544)
(20.3982 0.364937 -1.76109)
(39.9993 0.000235858 0.0484789)
(39.9913 0.000745727 0.143307)
(39.9737 0.00152467 0.239965)
(39.9418 0.00176034 0.337922)
(39.8898 0.0016116 0.437745)
(39.8197 0.00154426 0.540194)
(39.7346 0.00172607 0.645839)
(39.6342 0.00210251 0.755068)
(39.5158 0.00255303 0.8682)
(39.3767 0.00295679 0.98555)
(39.2155 0.00322379 1.10745)
(39.032 0.00331758 1.2343)
(38.8265 0.00328923 1.36666)
(38.5996 0.00319516 1.50529)
(38.3532 0.00336755 1.65122)
(38.0865 0.00350935 1.80563)
(37.8088 0.0050256 1.96892)
(37.5026 0.00445904 2.15008)
(37.1734 0.00498672 2.2801)
(36.7476 0.00799026 2.38057)
(36.2842 0.0103819 2.46455)
(35.7144 0.00554669 2.59494)
(35.1462 -0.00110132 2.79196)
(34.5603 -0.00744547 3.02563)
(33.8734 -0.0186026 3.26855)
(33.023 -0.0208989 3.51953)
(31.9117 -0.00753737 3.72067)
(30.7234 0.0108652 4.01862)
(29.521 0.0149838 4.45413)
(28.2092 0.0167216 4.82438)
(26.8582 0.0344115 4.87367)
(25.4991 0.0836329 4.42818)
(23.9356 0.191691 3.2798)
(22.4971 0.509772 1.02778)
(21.7522 1.0174 -0.790032)
(7.14704 0.078157 1.92325)
(11.4562 -0.638313 1.21029)
(12.0705 -0.999844 1.2732)
(13.313 -1.57349 3.28136)
(14.9936 -0.427711 -0.903658)
(17.1578 -0.197917 -0.362952)
(17.2134 -0.920171 2.21382)
(17.2882 -0.898622 2.35914)
(17.5686 -0.775444 1.96824)
(17.7425 -0.63028 1.60748)
(17.5181 -0.564248 1.43275)
(17.4052 -0.357389 1.42608)
(17.3048 -0.0752356 1.51005)
(17.2394 0.0901622 1.57498)
(16.809 0.126544 1.32989)
(15.7544 0.158478 1.07943)
(14.8298 0.32728 0.826364)
(16.9696 0.170612 0.634252)
(14.343 -0.447804 -1.3803)
(39.9996 0.000235851 0.0484708)
(39.9918 0.000745757 0.143279)
(39.9738 0.00152469 0.239914)
(39.9409 0.00176058 0.337874)
(39.8886 0.00161119 0.437716)
(39.8188 0.00154275 0.540169)
(39.7342 0.00172438 0.645788)
(39.6341 0.00210095 0.754963)
(39.5157 0.00255165 0.868021)
(39.3763 0.00295568 0.985287)
(39.2149 0.00322267 1.10711)
(39.0311 0.00331755 1.23391)
(38.8254 0.00329441 1.36626)
(38.5987 0.00320142 1.50489)
(38.3524 0.00337931 1.65095)
(38.0873 0.00353215 1.80524)
(37.8059 0.00486841 1.96909)
(37.5088 0.00504979 2.14145)
(37.1766 0.00208681 2.28791)
(36.7652 0.00829651 2.42163)
(36.3013 0.0121188 2.52439)
(35.7589 0.00729272 2.66783)
(35.1483 -0.000918031 2.82858)
(34.5154 -0.00758786 3.02518)
(33.7965 -0.0193379 3.24772)
(32.9003 -0.020727 3.50048)
(31.8556 -0.00683509 3.74179)
(30.7886 0.00987199 4.08732)
(29.6382 0.0129312 4.47747)
(28.3593 0.0145056 4.81259)
(27.0728 0.031963 4.87946)
(25.8648 0.0778745 4.54003)
(24.7354 0.178009 3.63591)
(23.9068 0.62039 1.86838)
(24.56 2.13469 -0.497257)
(25.7919 3.57126 -2.50823)
(26.9401 3.29868 -2.45139)
(26.4684 3.01305 -1.84294)
(25.3237 2.80483 -1.13959)
(25.0607 2.44996 -0.565292)
(22.2933 0.887229 0.0738736)
(21.8505 0.50127 0.480308)
(21.2595 0.514125 0.364861)
(20.9299 0.600238 0.073907)
(20.5875 0.697924 -0.199705)
(20.1014 0.716032 -0.338913)
(19.6291 0.912104 -0.358103)
(19.6359 1.13083 -0.231105)
(19.3571 1.21911 0.0198009)
(18.6125 1.15161 0.219575)
(18.3379 1.03163 0.207859)
(17.0085 1.2022 -0.718674)
(19.6118 1.13614 0.607661)
(14.2338 0.90667 -1.17441)
(39.9993 0.000233134 0.0559317)
(39.9917 0.000737749 0.165492)
(39.9751 0.00151264 0.277297)
(39.945 0.00174804 0.390867)
(39.8956 0.00160289 0.506789)
(39.8288 0.00153351 0.625804)
(39.7475 0.00170245 0.74849)
(39.6513 0.002056 0.875311)
(39.5375 0.00247762 1.00672)
(39.4035 0.00285223 1.14321)
(39.2479 0.00309457 1.2853)
(39.0706 0.00317892 1.43353)
(38.8719 0.00314643 1.58849)
(38.653 0.00311013 1.75063)
(38.415 0.00323962 1.92052)
(38.1594 0.0035508 2.09811)
(37.8869 0.00424224 2.28324)
(37.6002 0.00523308 2.47807)
(37.2899 0.00618893 2.65755)
(36.9351 0.00654806 2.85019)
(36.5259 0.00626147 3.03451)
(36.0099 7.43438e-05 3.26269)
(35.4091 -0.00434973 3.4322)
(34.742 -0.013861 3.69334)
(34.0448 -0.0293765 4.11002)
(33.1759 -0.0355994 4.60949)
(31.9975 -0.00841377 5.00184)
(30.6504 0.0278344 5.26968)
(29.3433 0.0341277 5.67192)
(28.0059 0.0301209 6.09546)
(26.6442 0.0510972 6.25571)
(25.1708 0.111689 5.96007)
(23.1361 0.278503 5.25688)
(21.5817 0.828729 4.17923)
(5.37188 0.553789 0.206705)
(4.61618 0.0230801 1.91205)
(4.83012 -0.431584 3.7889)
(2.64658 1.03384 0.950135)
(2.30472 -0.542702 0.402766)
(-1.82345 -2.66347 -3.19265)
(7.60882 -1.49781 -1.1603)
(6.76189 -0.792522 0.0589137)
(5.87577 -0.126073 0.994663)
(6.24925 0.123327 1.1575)
(6.96131 0.167818 1.01137)
(6.5054 0.124533 0.727776)
(5.80997 0.262042 0.604283)
(6.42436 0.40194 -0.98626)
(7.25467 0.326274 -1.55104)
(8.12294 -0.053103 -1.87493)
(8.85352 -0.323211 -2.02254)
(10.1283 -0.304376 -2.45093)
(14.0624 0.0339448 -3.7082)
(16.3164 -0.940024 -5.97328)
(39.9996 0.000233128 0.0559222)
(39.9922 0.000737779 0.165457)
(39.9752 0.00151267 0.27723)
(39.9441 0.00174828 0.390797)
(39.8944 0.00160248 0.506735)
(39.8279 0.00153196 0.625751)
(39.7471 0.00170069 0.748411)
(39.6511 0.00205427 0.875184)
(39.5373 0.00247611 1.00654)
(39.4031 0.00285053 1.14297)
(39.2472 0.00309444 1.28502)
(39.0696 0.00318103 1.43324)
(38.8709 0.00314932 1.5882)
(38.652 0.00311487 1.7504)
(38.4144 0.00324794 1.92025)
(38.1593 0.00357076 2.09774)
(37.8875 0.0042306 2.28274)
(37.6006 0.00531345 2.47451)
(37.2927 0.00615122 2.66801)
(36.9478 0.00681424 2.86994)
(36.5303 0.00700881 3.07648)
(36.0725 0.00144484 3.28966)
(35.4365 -0.00495764 3.51223)
(34.7334 -0.0134922 3.74449)
(33.9712 -0.0301047 4.06577)
(33.0304 -0.0357466 4.52224)
(31.8591 -0.00595833 4.86565)
(30.71 0.0242088 5.28016)
(29.5094 0.0310193 5.74336)
(28.2177 0.0264487 6.11778)
(26.9182 0.0485024 6.20962)
(25.6631 0.105768 5.94288)
(24.3454 0.300981 5.29016)
(23.1417 1.30963 4.35603)
(24.6911 3.79555 3.70791)
(5.53442 0.0258933 1.94327)
(8.60813 0.201452 0.399554)
(7.90775 1.40653 0.606979)
(5.8006 1.52171 0.704502)
(5.16408 1.01923 0.648995)
(7.11373 0.171675 0.944363)
(7.24089 0.546241 1.06785)
(6.48164 1.19368 1.45198)
(6.02053 1.55414 1.67046)
(6.67821 1.66115 1.43303)
(7.42653 1.58663 0.63836)
(7.20983 2.0203 -0.423683)
(8.89026 2.09173 0.882405)
(7.82476 1.96763 1.90253)
(6.34902 2.18154 1.26454)
(6.43598 2.50345 0.586649)
(6.34628 2.96121 -0.481106)
(9.4213 3.94407 -0.910505)
(6.89583 1.5921 -2.56464)
(39.9994 0.000226718 0.0629966)
(39.9923 0.000713061 0.186588)
(39.977 0.00146016 0.312733)
(39.949 0.00169037 0.441011)
(39.9026 0.00155266 0.572101)
(39.8397 0.00148321 0.706843)
(39.763 0.00163906 0.845961)
(39.6719 0.0019703 0.990081)
(39.5639 0.00236684 1.13983)
(39.4363 0.00271858 1.29581)
(39.2877 0.00294702 1.45863)
(39.118 0.00302697 1.6288)
(38.9273 0.00299367 1.80664)
(38.7165 0.00296451 1.99221)
(38.4864 0.00301658 2.18519)
(38.2383 0.00335549 2.38475)
(37.9724 0.00378014 2.58987)
(37.6903 0.00461809 2.80014)
(37.3902 0.00470496 3.013)
(37.0665 0.00379169 3.23486)
(36.7068 0.00166325 3.47542)
(36.3061 0.00039027 3.76943)
(35.8459 0.00240168 4.0882)
(35.207 -0.0107864 4.43532)
(34.469 -0.0318709 4.96707)
(33.7231 -0.0437179 5.66878)
(32.7602 -0.0156477 6.24863)
(31.4555 0.0435559 6.63218)
(29.9066 0.0717034 7.02338)
(28.2864 0.0543824 7.41304)
(26.9255 0.050603 7.48933)
(25.6871 0.0721166 7.28793)
(24.2677 0.148912 7.24344)
(23.3179 0.628028 8.43077)
(20.4559 1.23197 11.5138)
(3.11218 0.0268915 1.97327)
(3.10456 0.199941 -0.0609938)
(-1.24657 -0.491611 -2.28007)
(0.764172 -1.99416 0.0101108)
(0.74365 -2.93987 -2.33254)
(-4.11025 -2.50313 -2.37612)
(-0.0580762 -2.43738 -1.19007)
(1.01814 -1.8521 -1.31461)
(2.5599 -1.07878 -1.29702)
(4.8517 -1.10525 -2.11857)
(7.0707 -1.71555 -3.23928)
(9.40207 -1.81596 -4.23954)
(12.2267 -1.36267 -4.82291)
(14.8075 -1.11565 -5.18946)
(16.9787 -1.0985 -5.5504)
(18.2905 -1.15816 -5.7066)
(19.2592 -1.1065 -5.73081)
(21.5335 -0.908941 -5.9461)
(21.6885 -0.936942 -6.6773)
(39.9997 0.000226713 0.0629869)
(39.9928 0.000713082 0.186551)
(39.9771 0.00146021 0.312662)
(39.9482 0.00169047 0.440936)
(39.9015 0.00155283 0.57204)
(39.8388 0.0014834 0.706784)
(39.7625 0.00163957 0.84588)
(39.6717 0.00196988 0.98996)
(39.5637 0.00236486 1.13966)
(39.4359 0.00271596 1.29561)
(39.2871 0.00294582 1.45841)
(39.117 0.00302815 1.62858)
(38.9262 0.0029957 1.80643)
(38.7155 0.0029675 1.992)
(38.4858 0.00301976 2.18491)
(38.2381 0.00336165 2.38435)
(37.9727 0.0037953 2.58922)
(37.6901 0.0046147 2.79852)
(37.3882 0.00476196 3.0114)
(37.0637 0.00388304 3.233)
(36.7037 0.00180418 3.47999)
(36.3118 0.000395192 3.76669)
(35.8625 0.0034677 4.15662)
(35.2845 -0.00729041 4.47433)
(34.4493 -0.0356232 4.93738)
(33.6062 -0.0462517 5.53792)
(32.4462 -0.0221776 6.05622)
(31.1516 0.0313664 6.55453)
(29.9602 0.0577199 7.03161)
(28.6701 0.0396183 7.39811)
(27.2738 0.0429783 7.48654)
(26.0075 0.069121 7.2357)
(24.8471 0.157817 6.96713)
(23.4074 0.798038 7.42856)
(24.932 2.89749 10.2111)
(21.33 2.84094 10.2674)
(18.4899 1.92589 7.38613)
(14.411 1.48092 4.46164)
(10.4181 0.975485 2.42587)
(3.63322 0.14834 -0.291848)
(-5.59987 1.73191 0.117106)
(-3.03087 2.03209 0.710465)
(-2.79059 1.47102 -0.603423)
(-0.991479 1.38791 -1.77835)
(1.06897 2.00579 -1.24717)
(2.25832 2.29542 -0.0781)
(-2.1616 1.53901 2.84359)
(-1.6447 0.786436 4.28403)
(-2.75207 0.798164 5.2619)
(-1.09184 1.43088 4.02535)
(1.21335 1.43447 2.6057)
(3.97517 1.18794 1.53182)
(8.8072 1.28528 0.433064)
(10.5902 0.608288 -0.637357)
(39.9994 0.000223869 0.0695838)
(39.993 0.000703218 0.20634)
(39.9792 0.00144463 0.345897)
(39.9538 0.00167272 0.487963)
(39.9111 0.00153715 0.633363)
(39.8527 0.00146565 0.783073)
(39.7814 0.00161167 0.937957)
(39.6966 0.00192811 1.09878)
(39.5954 0.0023094 1.2663)
(39.4754 0.0026498 1.44123)
(39.335 0.00287408 1.62419)
(39.1737 0.00295658 1.81559)
(38.9915 0.0029292 2.01551)
(38.7888 0.00287797 2.22358)
(38.5661 0.00292479 2.43879)
(38.3243 0.00315061 2.65976)
(38.0639 0.00345363 2.88463)
(37.7865 0.00390431 3.11279)
(37.4937 0.0041096 3.34376)
(37.1871 0.00410301 3.58405)
(36.8673 0.00374993 3.84608)
(36.5358 0.004178 4.16622)
(36.1985 0.0058497 4.5652)
(35.7968 0.0190393 5.09525)
(35.127 0.00673305 5.77878)
(34.493 -0.0112152 6.52693)
(33.783 -0.0127674 7.20109)
(32.8075 0.00745968 7.92346)
(31.4911 0.0658148 8.61128)
(29.8598 0.111447 9.03676)
(28.0379 0.110105 8.79714)
(26.1768 0.104566 8.32179)
(24.7681 0.108505 8.22533)
(23.2255 0.248232 9.0076)
(24.8784 0.871647 13.6769)
(20.6128 0.531868 12.5138)
(15.8363 -0.163638 8.06144)
(11.3314 -1.0863 3.76411)
(7.90576 -1.83086 0.666983)
(7.29632 -2.45333 -0.965021)
(8.38974 -2.93435 -2.18395)
(9.95936 -3.09449 -3.01781)
(11.3966 -2.82781 -3.39446)
(12.8513 -2.30657 -3.81812)
(14.4748 -1.89862 -4.53462)
(16.2602 -1.78677 -5.33304)
(18.216 -1.75579 -5.93437)
(20.1996 -1.56919 -6.34572)
(21.9703 -1.36575 -6.64964)
(23.1736 -1.22575 -6.82594)
(23.729 -1.1403 -6.80369)
(23.7559 -1.03137 -6.53452)
(24.7937 -0.78616 -6.34311)
(23.6715 -0.600664 -6.21784)
(39.9998 0.000223864 0.0695738)
(39.9935 0.000703239 0.206301)
(39.9793 0.00144468 0.345822)
(39.953 0.00167281 0.487881)
(39.91 0.00153732 0.633294)
(39.8519 0.00146586 0.783006)
(39.7809 0.00161226 0.937872)
(39.6963 0.00192782 1.09867)
(39.5952 0.00230746 1.26614)
(39.475 0.00264739 1.44104)
(39.3343 0.00287213 1.62397)
(39.1728 0.00295282 1.81536)
(38.9905 0.00292609 2.01527)
(38.7878 0.00287802 2.22328)
(38.5654 0.00292233 2.43842)
(38.3238 0.00314633 2.65916)
(38.0637 0.00345642 2.88388)
(37.7862 0.00390597 3.11153)
(37.4928 0.00412285 3.34271)
(37.1856 0.00412356 3.58323)
(36.866 0.00379331 3.84864)
(36.538 0.00416347 4.1626)
(36.1989 0.00599278 4.57831)
(35.8575 0.016991 5.07269)
(35.3085 0.0044381 5.7145)
(34.5571 -0.0145569 6.44847)
(33.6663 -0.0274425 7.21621)
(32.3378 -0.00437912 7.87593)
(30.9822 0.0454879 8.38716)
(29.6863 0.0821658 8.7776)
(28.3153 0.0956901 8.93222)
(26.8227 0.0783353 8.54153)
(25.2702 0.102194 8.13097)
(23.7139 0.131618 8.67858)
(23.8786 1.03069 11.1756)
(25.4208 1.65007 12.3998)
(25.3971 1.64381 11.1311)
(23.5449 1.34844 8.78205)
(20.7482 1.07271 6.51592)
(17.5192 0.568022 4.44538)
(12.819 0.29014 2.57989)
(9.13467 0.181004 0.992893)
(6.45572 0.404444 -0.0249075)
(5.90858 1.03309 -0.620536)
(6.36053 1.42865 -1.20454)
(7.4224 1.12101 -1.72405)
(9.87508 0.663026 -2.43529)
(12.5191 0.569143 -2.9549)
(15.0899 0.560499 -3.47445)
(17.2377 0.489743 -3.95402)
(18.6188 0.278096 -4.0625)
(19.755 0.0737249 -3.87393)
(21.5303 0.0859848 -3.5857)
(21.8599 -0.0595166 -3.76156)
(39.9995 0.000217247 0.0756118)
(39.9938 0.000676629 0.224514)
(39.9819 0.00138764 0.376416)
(39.9596 0.00160827 0.531215)
(39.9211 0.00147959 0.6899)
(39.8681 0.00140938 0.853598)
(39.803 0.00154525 1.02332)
(39.7254 0.00184291 1.2)
(39.6323 0.00220196 1.38453)
(39.5211 0.00252257 1.57774)
(39.39 0.00272714 1.78033)
(39.2382 0.00278859 1.99264)
(39.0653 0.00273076 2.2146)
(38.871 0.00263264 2.44545)
(38.6553 0.00261293 2.68368)
(38.4184 0.00271526 2.92699)
(38.1617 0.00299543 3.17252)
(37.8875 0.00327654 3.41792)
(37.6015 0.00363286 3.66171)
(37.3114 0.00369304 3.90845)
(37.0347 0.00397973 4.17024)
(36.7736 0.00246007 4.47997)
(36.5698 0.00222969 4.89255)
(36.3851 0.0195786 5.45911)
(36.0513 0.0509794 6.30869)
(35.498 0.0468114 7.20496)
(34.7446 0.0176338 8.04174)
(33.8052 -0.00760624 9.03223)
(32.7442 -0.00273913 9.92774)
(31.5734 0.0404108 10.65)
(30.1773 0.0762501 10.9553)
(28.3466 0.0909355 10.7127)
(26.2718 0.131202 9.9168)
(24.1323 0.0642069 9.52021)
(24.0435 0.276981 11.1355)
(25.0777 0.349256 12.1762)
(24.3492 0.00611019 10.7571)