/*--------------------------------*- C++ -*----------------------------------*\
| =========                 |                                                 |
| \\      /  F ield         | OpenFOAM: The Open Source CFD Toolbox           |
|  \\    /   O peration     | Version:  4.1                                   |
|   \\  /    A nd           | Web:      www.OpenFOAM.org                      |
|    \\/     M anipulation  |                                                 |
\*---------------------------------------------------------------------------*/
FoamFile
{
    version     2.0;
    format      ascii;
    class       volScalarField;
    location    "19";
    object      p;
}
// * * * * * * * * * * * * * * * * * * * * * * * * * * * * * * * * * * * * * //

dimensions      [0 2 -2 0 0 0 0];

internalField   nonuniform List<scalar> 
4432
(
-5.14946e+09
-4.53325e+09
4.70054e+09
2.75889e+10
9.29276e+09
-6.95363e+09
-3.87431e+09
-3.22555e+09
-3.76293e+09
-4.46745e+09
-4.73182e+09
-4.98868e+09
-5.42818e+09
-5.92012e+09
-6.36329e+09
-6.58511e+09
-6.43826e+09
-6.27712e+09
-6.24513e+09
-6.30305e+09
-6.34864e+09
-6.38867e+09
-6.41801e+09
-6.43863e+09
-6.45253e+09
-6.46195e+09
-6.46933e+09
-6.4772e+09
-6.488e+09
-6.50405e+09
-6.52709e+09
-6.559e+09
-6.60099e+09
-6.6498e+09
-6.70103e+09
-6.75377e+09
-6.80494e+09
-6.85362e+09
-6.90096e+09
-6.94761e+09
-6.9961e+09
-7.05007e+09
-7.1102e+09
-7.17788e+09
-7.26652e+09
-7.39292e+09
-7.54594e+09
-7.73476e+09
-8.01843e+09
-8.51796e+09
-9.56058e+09
-1.1709e+10
-1.41589e+10
-9.38548e+09
-6.13208e+09
-1.74467e+09
2.83401e+09
7.79146e+09
6.41553e+09
-7.29329e+09
-6.86715e+09
-5.11855e+09
-5.05745e+09
-5.4058e+09
-5.24135e+09
-5.13751e+09
-5.4298e+09
-5.94373e+09
-6.40027e+09
-6.5852e+09
-6.40155e+09
-6.23985e+09
-6.23693e+09
-6.29494e+09
-6.33875e+09
-6.38003e+09
-6.41041e+09
-6.43237e+09
-6.44747e+09
-6.45815e+09
-6.46688e+09
-6.47623e+09
-6.4886e+09
-6.50624e+09
-6.531e+09
-6.56471e+09
-6.60857e+09
-6.66059e+09
-6.7171e+09
-6.77441e+09
-6.82936e+09
-6.88214e+09
-6.93405e+09
-6.98553e+09
-7.03847e+09
-7.096e+09
-7.15798e+09
-7.22415e+09
-7.30355e+09
-7.41183e+09
-7.54346e+09
-7.697e+09
-7.96196e+09
-8.46089e+09
-9.57008e+09
-1.20796e+10
-1.45692e+10
-8.40812e+09
1.19238e+09
2.67934e+09
2.41043e+09
-5.7948e+09
-1.60451e+09
-8.81432e+09
-1.1937e+10
-8.755e+09
-6.92815e+09
-6.19507e+09
-5.34625e+09
-5.06082e+09
-5.23613e+09
-5.63234e+09
-6.12299e+09
-6.55544e+09
-6.59125e+09
-6.39257e+09
-6.31618e+09
-6.32547e+09
-6.36848e+09
-6.4083e+09
-6.43882e+09
-6.45909e+09
-6.47175e+09
-6.47932e+09
-6.48465e+09
-6.49059e+09
-6.49964e+09
-6.5141e+09
-6.53543e+09
-6.5654e+09
-6.60756e+09
-6.65604e+09
-6.69753e+09
-6.73729e+09
-6.78088e+09
-6.82634e+09
-6.87258e+09
-6.91626e+09
-6.95747e+09
-7.00242e+09
-7.05863e+09
-7.12871e+09
-7.22136e+09
-7.3823e+09
-7.6013e+09
-7.83028e+09
-8.19647e+09
-8.87946e+09
-1.02774e+10
-1.29588e+10
-1.47043e+10
-7.56855e+09
-1.54509e+09
-5.81185e+08
7.21275e+08
-1.33477e+09
-3.43579e+09
-9.88713e+09
-1.2237e+10
-8.59951e+09
-7.00377e+09
-6.10997e+09
-5.28945e+09
-4.9717e+09
-5.14601e+09
-5.5875e+09
-6.14241e+09
-6.60716e+09
-6.57701e+09
-6.3343e+09
-6.30196e+09
-6.32244e+09
-6.36826e+09
-6.40893e+09
-6.44086e+09
-6.46264e+09
-6.47696e+09
-6.48631e+09
-6.49355e+09
-6.50144e+09
-6.51238e+09
-6.52841e+09
-6.55089e+09
-6.58123e+09
-6.62124e+09
-6.66844e+09
-6.71646e+09
-6.76274e+09
-6.80628e+09
-6.8507e+09
-6.89892e+09
-6.94521e+09
-6.98812e+09
-7.03413e+09
-7.08922e+09
-7.15644e+09
-7.24525e+09
-7.38601e+09
-7.5799e+09
-7.81925e+09
-8.20253e+09
-8.89969e+09
-1.03412e+10
-1.3117e+10
-1.50951e+10
-7.89885e+09
-8.35882e+08
1.05336e+09
3.09502e+09
-8.67061e+09
-5.21465e+09
-7.85438e+09
-1.03254e+10
-9.79447e+09
-8.45163e+09
-7.01417e+09
-5.67812e+09
-5.12077e+09
-5.05707e+09
-5.33316e+09
-5.89055e+09
-6.3899e+09
-6.49214e+09
-6.37531e+09
-6.35334e+09
-6.37137e+09
-6.41495e+09
-6.45503e+09
-6.48623e+09
-6.5066e+09
-6.51897e+09
-6.52612e+09
-6.53124e+09
-6.5372e+09
-6.54582e+09
-6.55846e+09
-6.5758e+09
-6.59681e+09
-6.62477e+09
-6.66913e+09
-6.70828e+09
-6.73e+09
-6.76514e+09
-6.79952e+09
-6.8312e+09
-6.85184e+09
-6.86713e+09
-6.89328e+09
-6.94209e+09
-7.01613e+09
-7.1313e+09
-7.31764e+09
-7.58585e+09
-7.96035e+09
-8.52389e+09
-9.38995e+09
-1.08858e+10
-1.34464e+10
-1.53619e+10
-8.22891e+09
-2.01154e+07
-7.85152e+08
2.66345e+07
-1.06193e+09
-6.40772e+09
-9.12581e+09
-9.56354e+09
-8.43194e+09
-7.76397e+09
-6.47097e+09
-5.35004e+09
-4.91003e+09
-4.98923e+09
-5.36181e+09
-5.91394e+09
-6.43441e+09
-6.46954e+09
-6.33279e+09
-6.33357e+09
-6.36629e+09
-6.41569e+09
-6.45844e+09
-6.49143e+09
-6.51359e+09
-6.52758e+09
-6.53624e+09
-6.54271e+09
-6.54987e+09
-6.55989e+09
-6.57396e+09
-6.59184e+09
-6.61291e+09
-6.63997e+09
-6.67592e+09
-6.71184e+09
-6.74718e+09
-6.78231e+09
-6.81616e+09
-6.84617e+09
-6.86357e+09
-6.87372e+09
-6.89432e+09
-6.93572e+09
-7.00225e+09
-7.10577e+09
-7.27673e+09
-7.53969e+09
-7.91883e+09
-8.49251e+09
-9.39519e+09
-1.09476e+10
-1.35045e+10
-1.51651e+10
-7.54359e+09
-2.34739e+09
-3.68675e+09
-3.25979e+09
-3.67439e+09
-7.05939e+09
-7.9423e+09
-8.77304e+09
-8.55648e+09
-7.86351e+09
-6.65889e+09
-5.53224e+09
-5.09326e+09
-5.08282e+09
-5.36532e+09
-5.85409e+09
-6.27125e+09
-6.36733e+09
-6.32838e+09
-6.35298e+09
-6.3987e+09
-6.45194e+09
-6.49646e+09
-6.52986e+09
-6.55231e+09
-6.56703e+09
-6.57735e+09
-6.58614e+09
-6.59575e+09
-6.60657e+09
-6.61792e+09
-6.63068e+09
-6.63986e+09
-6.64628e+09
-6.72904e+09
-6.86377e+09
-6.84318e+09
-6.82108e+09
-6.84314e+09
-6.85825e+09
-6.8659e+09
-6.86394e+09
-6.87165e+09
-6.90141e+09
-6.94888e+09
-7.03561e+09
-7.1995e+09
-7.4601e+09
-7.87746e+09
-8.52676e+09
-9.50188e+09
-1.11036e+10
-1.37709e+10
-1.60047e+10
-9.50314e+09
-1.56207e+09
-1.99743e+09
-2.89741e+09
-4.46678e+09
-8.98912e+09
-8.52662e+09
-7.04234e+09
-6.80441e+09
-6.95419e+09
-6.11945e+09
-5.31755e+09
-5.00209e+09
-5.07938e+09
-5.42204e+09
-5.9112e+09
-6.28998e+09
-6.33218e+09
-6.2976e+09
-6.33686e+09
-6.39311e+09
-6.45152e+09
-6.49888e+09
-6.53426e+09
-6.55804e+09
-6.57363e+09
-6.5846e+09
-6.59441e+09
-6.60574e+09
-6.6198e+09
-6.63642e+09
-6.65487e+09
-6.67485e+09
-6.70203e+09
-6.74631e+09
-6.79032e+09
-6.82938e+09
-6.85141e+09
-6.8571e+09
-6.87233e+09
-6.88001e+09
-6.87663e+09
-6.88173e+09
-6.9105e+09
-6.9606e+09
-7.04407e+09
-7.20621e+09
-7.47621e+09
-7.90747e+09
-8.57905e+09
-9.60135e+09
-1.12785e+10
-1.39208e+10
-1.55842e+10
-7.94925e+09
-3.78152e+09
-5.06046e+09
-5.70799e+09
-5.0465e+09
-7.2854e+09
-6.75069e+09
-6.69436e+09
-6.89512e+09
-6.98217e+09
-6.47716e+09
-5.62896e+09
-5.06879e+09
-5.11823e+09
-5.42313e+09
-5.84799e+09
-6.13711e+09
-6.22647e+09
-6.25808e+09
-6.31867e+09
-6.3852e+09
-6.44815e+09
-6.49861e+09
-6.53475e+09
-6.55847e+09
-6.57374e+09
-6.58517e+09
-6.59564e+09
-6.60777e+09
-6.62262e+09
-6.63529e+09
-6.64743e+09
-6.66188e+09
-6.68754e+09
-6.75574e+09
-6.83518e+09
-6.85858e+09
-6.86557e+09
-6.88241e+09
-6.89362e+09
-6.89842e+09
-6.8985e+09
-6.89894e+09
-6.90715e+09
-6.93216e+09
-6.99748e+09
-7.13935e+09
-7.39115e+09
-7.80331e+09
-8.44101e+09
-9.40886e+09
-1.10467e+10
-1.39737e+10
-1.69901e+10
-1.18969e+10
-3.62923e+09
-3.84681e+09
-4.70283e+09
-5.52764e+09
-7.78786e+09
-6.03747e+09
-5.07928e+09
-5.40936e+09
-5.85099e+09
-5.75514e+09
-5.37469e+09
-5.08935e+09
-5.15529e+09
-5.45552e+09
-5.85487e+09
-6.12551e+09
-6.19921e+09
-6.23805e+09
-6.30753e+09
-6.37989e+09
-6.44587e+09
-6.49761e+09
-6.53454e+09
-6.55834e+09
-6.57363e+09
-6.58531e+09
-6.59691e+09
-6.61018e+09
-6.62543e+09
-6.64413e+09
-6.67093e+09
-6.70256e+09
-6.731e+09
-6.77101e+09
-6.8181e+09
-6.85571e+09
-6.8844e+09
-6.90439e+09
-6.9193e+09
-6.92717e+09
-6.93334e+09
-6.94183e+09
-6.95869e+09
-6.99688e+09
-7.07772e+09
-7.23423e+09
-7.50544e+09
-7.9436e+09
-8.61469e+09
-9.63436e+09
-1.13491e+10
-1.41838e+10
-1.62248e+10
-8.92535e+09
-5.35255e+09
-5.9637e+09
-6.04373e+09
-5.7708e+09
-6.3896e+09
-5.71475e+09
-5.41928e+09
-5.6321e+09
-5.94766e+09
-5.98558e+09
-5.67919e+09
-5.19197e+09
-5.18343e+09
-5.47834e+09
-5.80804e+09
-6.01443e+09
-6.1196e+09
-6.19883e+09
-6.28805e+09
-6.37261e+09
-6.44696e+09
-6.50374e+09
-6.54132e+09
-6.56153e+09
-6.57128e+09
-6.57858e+09
-6.58571e+09
-6.5891e+09
-6.59497e+09
-6.60889e+09
-6.63164e+09
-6.66474e+09
-6.70811e+09
-6.75669e+09
-6.78873e+09
-6.81043e+09
-6.8349e+09
-6.85691e+09
-6.87041e+09
-6.87638e+09
-6.87624e+09
-6.87279e+09
-6.87269e+09
-6.89006e+09
-6.95031e+09
-7.08464e+09
-7.32933e+09
-7.73149e+09
-8.34298e+09
-9.25563e+09
-1.08221e+10
-1.38228e+10
-1.72316e+10
-1.26696e+10
-5.53967e+09
-5.39528e+09
-5.31105e+09
-4.97889e+09
-6.11184e+09
-5.10018e+09
-4.75035e+09
-5.19038e+09
-5.50362e+09
-5.54825e+09
-5.33991e+09
-5.11644e+09
-5.18382e+09
-5.47611e+09
-5.79084e+09
-5.99337e+09
-6.09833e+09
-6.18653e+09
-6.28188e+09
-6.37027e+09
-6.44579e+09
-6.50302e+09
-6.54114e+09
-6.56295e+09
-6.57455e+09
-6.58213e+09
-6.58925e+09
-6.59771e+09
-6.60954e+09
-6.62505e+09
-6.64968e+09
-6.6833e+09
-6.71619e+09
-6.75315e+09
-6.79143e+09
-6.82324e+09
-6.85399e+09
-6.88082e+09
-6.89886e+09
-6.91023e+09
-6.91948e+09
-6.92745e+09
-6.94148e+09
-6.97579e+09
-7.05524e+09
-7.21097e+09
-7.481e+09
-7.90991e+09
-8.55041e+09
-9.50343e+09
-1.11203e+10
-1.39754e+10
-1.6442e+10
-1.00326e+10
-6.1404e+09
-6.53067e+09
-6.12008e+09
-5.86763e+09
-5.40883e+09
-5.03245e+09
-4.9949e+09
-5.23302e+09
-5.58575e+09
-5.76469e+09
-5.46894e+09
-5.17351e+09
-5.25502e+09
-5.51393e+09
-5.74565e+09
-5.91298e+09
-6.03893e+09
-6.1538e+09
-6.26957e+09
-6.37564e+09
-6.46522e+09
-6.52931e+09
-6.56586e+09
-6.57913e+09
-6.5798e+09
-6.57607e+09
-6.57131e+09
-6.57003e+09
-6.57629e+09
-6.58933e+09
-6.61107e+09
-6.64533e+09
-6.6912e+09
-6.73465e+09
-6.76265e+09
-6.78591e+09
-6.81023e+09
-6.83187e+09
-6.84862e+09
-6.85871e+09
-6.86238e+09
-6.86467e+09
-6.87564e+09
-6.91184e+09
-6.99608e+09
-7.15891e+09
-7.43842e+09
-7.87442e+09
-8.50246e+09
-9.38128e+09
-1.0767e+10
-1.32088e+10
-1.58693e+10
-1.05837e+10
-6.3891e+09
-6.14326e+09
-5.8831e+09
-4.72314e+09
-4.4686e+09
-4.47883e+09
-5.01144e+09
-5.41534e+09
-5.58126e+09
-5.49492e+09
-5.2461e+09
-5.12665e+09
-5.25438e+09
-5.50504e+09
-5.73256e+09
-5.89727e+09
-6.02492e+09
-6.14468e+09
-6.26292e+09
-6.37022e+09
-6.4595e+09
-6.52394e+09
-6.56217e+09
-6.57843e+09
-6.58012e+09
-6.57577e+09
-6.57309e+09
-6.57607e+09
-6.58587e+09
-6.60159e+09
-6.62284e+09
-6.65069e+09
-6.68879e+09
-6.72821e+09
-6.76052e+09
-6.78919e+09
-6.81664e+09
-6.84017e+09
-6.85865e+09
-6.87222e+09
-6.88135e+09
-6.89046e+09
-6.90991e+09
-6.95644e+09
-7.05433e+09
-7.23302e+09
-7.53045e+09
-7.98543e+09
-8.63225e+09
-9.53244e+09
-1.09353e+10
-1.33243e+10
-1.56961e+10
-9.69809e+09
-6.2992e+09
-6.3955e+09
-6.0914e+09
-5.67735e+09
-4.80975e+09
-4.19253e+09
-4.39015e+09
-4.90013e+09
-5.45739e+09
-5.71494e+09
-5.41546e+09
-5.22048e+09
-5.31339e+09
-5.50085e+09
-5.67848e+09
-5.83278e+09
-5.97633e+09
-6.1194e+09
-6.26071e+09
-6.39109e+09
-6.4974e+09
-6.56836e+09
-6.60141e+09
-6.6045e+09
-6.58993e+09
-6.57134e+09
-6.55745e+09
-6.55349e+09
-6.56089e+09
-6.57266e+09
-6.59445e+09
-6.63552e+09
-6.67201e+09
-6.70102e+09
-6.72742e+09
-6.7565e+09
-6.78498e+09
-6.80645e+09
-6.82049e+09
-6.82779e+09
-6.83102e+09
-6.83741e+09
-6.85792e+09
-6.90941e+09
-7.0174e+09
-7.21561e+09
-7.54317e+09
-8.03784e+09
-8.72626e+09
-9.65664e+09
-1.10553e+10
-1.32e+10
-1.45112e+10
-7.74849e+09
-6.37104e+09
-6.09927e+09
-5.9993e+09
-5.02282e+09
-3.83241e+09
-3.58194e+09
-4.40468e+09
-4.96234e+09
-5.28511e+09
-5.40469e+09
-5.27354e+09
-5.21646e+09
-5.32561e+09
-5.50522e+09
-5.67567e+09
-5.82779e+09
-5.97245e+09
-6.11647e+09
-6.2583e+09
-6.38831e+09
-6.49503e+09
-6.56709e+09
-6.60134e+09
-6.60458e+09
-6.58868e+09
-6.5682e+09
-6.55397e+09
-6.54969e+09
-6.55963e+09
-6.57946e+09
-6.60027e+09
-6.62982e+09
-6.66435e+09
-6.69681e+09
-6.72675e+09
-6.7582e+09
-6.78738e+09
-6.80832e+09
-6.82176e+09
-6.82946e+09
-6.83344e+09
-6.8418e+09
-6.8655e+09
-6.92165e+09
-7.03591e+09
-7.24149e+09
-7.57754e+09
-8.08157e+09
-8.78073e+09
-9.72535e+09
-1.11433e+10
-1.33287e+10
-1.46747e+10
-7.63318e+09
-5.92781e+09
-5.75731e+09
-5.7093e+09
-5.40536e+09
-4.78125e+09
-3.99614e+09
-4.11623e+09
-4.76314e+09
-5.31621e+09
-5.41201e+09
-5.24688e+09
-5.20756e+09
-5.30933e+09
-5.4601e+09
-5.61825e+09
-5.77567e+09
-5.9371e+09
-6.10462e+09
-6.27306e+09
-6.43084e+09
-6.55916e+09
-6.64081e+09
-6.66696e+09
-6.64763e+09
-6.60576e+09
-6.5653e+09
-6.53771e+09
-6.5256e+09
-6.53262e+09
-6.55084e+09
-6.57026e+09
-6.6033e+09
-6.63979e+09
-6.67009e+09
-6.69828e+09
-6.72198e+09
-6.73807e+09
-6.74484e+09
-6.74213e+09
-6.7298e+09
-6.71016e+09
-6.69073e+09
-6.68426e+09
-6.70962e+09
-6.79389e+09
-6.97221e+09
-7.28365e+09
-7.76452e+09
-8.43833e+09
-9.34591e+09
-1.06871e+10
-1.27566e+10
-1.41199e+10
-7.46969e+09
-5.70007e+09
-5.50277e+09
-5.60573e+09
-5.2283e+09
-4.13834e+09
-3.58019e+09
-4.12416e+09
-4.66126e+09
-4.97889e+09
-5.14035e+09
-5.1641e+09
-5.21635e+09
-5.32459e+09
-5.4711e+09
-5.6235e+09
-5.77964e+09
-5.94095e+09
-6.10799e+09
-6.27614e+09
-6.43362e+09
-6.56321e+09
-6.64548e+09
-6.67166e+09
-6.65166e+09
-6.60884e+09
-6.56661e+09
-6.53647e+09
-6.52172e+09
-6.53079e+09
-6.55819e+09
-6.57899e+09
-6.60825e+09
-6.64142e+09
-6.67283e+09
-6.70528e+09
-6.73158e+09
-6.74862e+09
-6.75588e+09
-6.75306e+09
-6.74107e+09
-6.72244e+09
-6.70426e+09
-6.69894e+09
-6.7259e+09
-6.81206e+09
-6.99186e+09
-7.30358e+09
-7.78197e+09
-8.44935e+09
-9.34496e+09
-1.0678e+10
-1.28189e+10
-1.44638e+10
-7.63763e+09
-5.10474e+09
-5.02521e+09
-5.01666e+09
-5.17071e+09
-5.21468e+09
-4.60402e+09
-4.4118e+09
-4.77357e+09
-5.02853e+09
-5.02264e+09
-5.07027e+09
-5.16107e+09
-5.2791e+09
-5.42067e+09
-5.57576e+09
-5.74153e+09
-5.91976e+09
-6.11002e+09
-6.30822e+09
-6.49916e+09
-6.66049e+09
-6.76031e+09
-6.77389e+09
-6.71061e+09
-6.6202e+09
-6.54421e+09
-6.49647e+09
-6.47611e+09
-6.48109e+09
-6.50771e+09
-6.54687e+09
-6.5906e+09
-6.6318e+09
-6.66688e+09
-6.69624e+09
-6.71549e+09
-6.7213e+09
-6.71309e+09
-6.69044e+09
-6.65276e+09
-6.60181e+09
-6.54458e+09
-6.4941e+09
-6.4707e+09
-6.50313e+09
-6.628e+09
-6.88585e+09
-7.31272e+09
-7.92806e+09
-8.77501e+09
-1.00871e+10
-1.22689e+10
-1.43461e+10
-9.28499e+09
-4.80383e+09
-4.84795e+09
-5.11546e+09
-5.3902e+09
-5.06454e+09
-4.59014e+09
-4.29623e+09
-4.47955e+09
-4.73474e+09
-4.92692e+09
-5.06086e+09
-5.17234e+09
-5.28854e+09
-5.42872e+09
-5.58123e+09
-5.74685e+09
-5.92496e+09
-6.11492e+09
-6.31167e+09
-6.50229e+09
-6.66326e+09
-6.7628e+09
-6.77591e+09
-6.71411e+09
-6.62587e+09
-6.55152e+09
-6.50412e+09
-6.48404e+09
-6.49476e+09
-6.52828e+09
-6.56396e+09
-6.60361e+09
-6.64365e+09
-6.679e+09
-6.71173e+09
-6.73477e+09
-6.74313e+09
-6.73666e+09
-6.71544e+09
-6.67969e+09
-6.63198e+09
-6.57945e+09
-6.53496e+09
-6.51864e+09
-6.55872e+09
-6.69076e+09
-6.95345e+09
-7.38054e+09
-7.9922e+09
-8.83553e+09
-1.01483e+10
-1.23851e+10
-1.45337e+10
-9.18249e+09
-4.3439e+09
-4.46101e+09
-4.52475e+09
-5.2717e+09
-5.63265e+09
-5.24951e+09
-4.85815e+09
-4.7479e+09
-4.78807e+09
-4.90174e+09
-5.02667e+09
-5.13976e+09
-5.25806e+09
-5.39468e+09
-5.54938e+09
-5.72192e+09
-5.91294e+09
-6.12346e+09
-6.35063e+09
-6.58099e+09
-6.78823e+09
-6.92224e+09
-6.91829e+09
-6.77592e+09
-6.59157e+09
-6.4563e+09
-6.38372e+09
-6.36206e+09
-6.38001e+09
-6.42918e+09
-6.49403e+09
-6.55813e+09
-6.61491e+09
-6.66405e+09
-6.70502e+09
-6.73345e+09
-6.74567e+09
-6.74117e+09
-6.71965e+09
-6.68055e+09
-6.62605e+09
-6.56306e+09
-6.50491e+09
-6.47291e+09
-6.49748e+09
-6.61763e+09
-6.87799e+09
-7.3194e+09
-7.97056e+09
-8.91313e+09
-1.04605e+10
-1.29482e+10
-1.45187e+10
-7.78267e+09
-4.10087e+09
-4.4695e+09
-4.94431e+09
-5.54401e+09
-5.70836e+09
-5.1161e+09
-4.51754e+09
-4.57441e+09
-4.74266e+09
-4.89039e+09
-5.02331e+09
-5.14311e+09
-5.26186e+09
-5.39775e+09
-5.55183e+09
-5.72494e+09
-5.91728e+09
-6.12811e+09
-6.35388e+09
-6.58234e+09
-6.78707e+09
-6.918e+09
-6.91053e+09
-6.7668e+09
-6.58356e+09
-6.45118e+09
-6.3804e+09
-6.36135e+09
-6.38438e+09
-6.4351e+09
-6.49696e+09
-6.55833e+09
-6.61513e+09
-6.66516e+09
-6.70814e+09
-6.73884e+09
-6.75276e+09
-6.74934e+09
-6.72876e+09
-6.69095e+09
-6.63861e+09
-6.57906e+09
-6.5257e+09
-6.49937e+09
-6.52982e+09
-6.65564e+09
-6.92068e+09
-7.36488e+09
-8.01807e+09
-8.96487e+09
-1.05591e+10
-1.31498e+10
-1.4558e+10
-7.5503e+09
-4.04609e+09
-4.329e+09
-4.70558e+09
-5.37468e+09
-5.51171e+09
-5.29537e+09
-5.02713e+09
-4.87759e+09
-4.86679e+09
-4.93351e+09
-5.02996e+09
-5.1407e+09
-5.25765e+09
-5.38881e+09
-5.5414e+09
-5.71706e+09
-5.91829e+09
-6.14632e+09
-6.40137e+09
-6.67744e+09
-6.95174e+09
-7.16073e+09
-7.1762e+09
-6.91972e+09
-6.57366e+09
-6.34855e+09
-6.25292e+09
-6.23806e+09
-6.27805e+09
-6.3489e+09
-6.4331e+09
-6.51366e+09
-6.58321e+09
-6.6411e+09
-6.68686e+09
-6.71862e+09
-6.73414e+09
-6.73268e+09
-6.71416e+09
-6.67889e+09
-6.62993e+09
-6.57497e+09
-6.5287e+09
-6.51473e+09
-6.5659e+09
-6.72332e+09
-7.03372e+09
-7.54055e+09
-8.27773e+09
-9.32277e+09
-1.09484e+10
-1.33862e+10
-1.47851e+10
-7.9157e+09
-3.98673e+09
-4.58471e+09
-5.12202e+09
-5.49184e+09
-5.39143e+09
-4.9936e+09
-4.82958e+09
-4.8297e+09
-4.8714e+09
-4.94374e+09
-5.03547e+09
-5.14305e+09
-5.25904e+09
-5.38921e+09
-5.54147e+09
-5.71821e+09
-5.92218e+09
-6.15264e+09
-6.40812e+09
-6.68152e+09
-6.95124e+09
-7.15486e+09
-7.16582e+09
-6.90103e+09
-6.55579e+09
-6.33383e+09
-6.24095e+09
-6.22953e+09
-6.27436e+09
-6.34568e+09
-6.42662e+09
-6.50457e+09
-6.57272e+09
-6.62944e+09
-6.67406e+09
-6.7044e+09
-6.7179e+09
-6.7136e+09
-6.69152e+09
-6.65211e+09
-6.59861e+09
-6.53905e+09
-6.48842e+09
-6.46943e+09
-6.51362e+09
-6.66227e+09
-6.96189e+09
-7.45482e+09
-8.17328e+09
-9.19194e+09
-1.0791e+10
-1.32647e+10
-1.49859e+10
-9.20871e+09
-4.18288e+09
-4.47746e+09
-5.0348e+09
-5.27055e+09
-5.14415e+09
-5.0226e+09
-4.96845e+09
-4.94799e+09
-4.95801e+09
-5.00383e+09
-5.07235e+09
-5.16049e+09
-5.26372e+09
-5.38498e+09
-5.53271e+09
-5.71016e+09
-5.92323e+09
-6.17487e+09
-6.46682e+09
-6.80026e+09
-7.16844e+09
-7.52964e+09
-7.68042e+09
-7.25882e+09
-6.57083e+09
-6.15209e+09
-6.03872e+09
-6.06351e+09
-6.1562e+09
-6.26199e+09
-6.36627e+09
-6.45866e+09
-6.53482e+09
-6.59364e+09
-6.63588e+09
-6.662e+09
-6.67114e+09
-6.66281e+09
-6.63721e+09
-6.59513e+09
-6.53997e+09
-6.48017e+09
-6.43216e+09
-6.42208e+09
-6.48532e+09
-6.66423e+09
-7.00515e+09
-7.54982e+09
-8.33038e+09
-9.41462e+09
-1.10516e+10
-1.35531e+10
-1.51824e+10
-9.2006e+09
-4.23331e+09
-4.79199e+09
-5.12802e+09
-5.17318e+09
-4.96052e+09
-4.86823e+09
-4.89138e+09
-4.91818e+09
-4.95338e+09
-5.0035e+09
-5.07035e+09
-5.1551e+09
-5.25628e+09
-5.37615e+09
-5.52351e+09
-5.70288e+09
-5.92079e+09
-6.17882e+09
-6.47351e+09
-6.80387e+09
-7.16266e+09
-7.51399e+09
-7.66695e+09
-7.2294e+09
-6.5414e+09
-6.13264e+09
-6.02797e+09
-6.06001e+09
-6.15888e+09
-6.26711e+09
-6.37108e+09
-6.46391e+09
-6.54081e+09
-6.6e+09
-6.64257e+09
-6.66941e+09
-6.67896e+09
-6.67027e+09
-6.64352e+09
-6.5996e+09
-6.54195e+09
-6.47935e+09
-6.42835e+09
-6.41385e+09
-6.4695e+09
-6.63799e+09
-6.96579e+09
-7.49466e+09
-8.26013e+09
-9.34291e+09
-1.10477e+10
-1.36972e+10
-1.51107e+10
-7.9295e+09
-4.37989e+09
-4.57249e+09
-4.99452e+09
-4.97763e+09
-4.9023e+09
-4.89234e+09
-4.9314e+09
-4.97177e+09
-5.01585e+09
-5.06835e+09
-5.13185e+09
-5.21141e+09
-5.30807e+09
-5.42545e+09
-5.5742e+09
-5.76059e+09
-5.99274e+09
-6.27597e+09
-6.60771e+09
-6.99637e+09
-7.45942e+09
-8.02341e+09
-8.56248e+09
-8.20407e+09
-6.87942e+09
-5.59801e+09
-5.63029e+09
-5.8425e+09
-6.05453e+09
-6.2242e+09
-6.36353e+09
-6.47577e+09
-6.56466e+09
-6.63182e+09
-6.67973e+09
-6.70976e+09
-6.72188e+09
-6.71607e+09
-6.69245e+09
-6.65202e+09
-6.59884e+09
-6.54287e+09
-6.50246e+09
-6.50533e+09
-6.58717e+09
-6.79036e+09
-7.16034e+09
-7.73585e+09
-8.54423e+09
-9.64795e+09
-1.13064e+10
-1.37699e+10
-1.5186e+10
-7.97394e+09
-4.41298e+09
-4.77259e+09
-4.93548e+09
-4.86001e+09
-4.78949e+09
-4.8344e+09
-4.90322e+09
-4.96077e+09
-5.01146e+09
-5.06416e+09
-5.12541e+09
-5.20028e+09
-5.29164e+09
-5.40435e+09
-5.55026e+09
-5.73744e+09
-5.97719e+09
-6.27837e+09
-6.62452e+09
-7.01753e+09
-7.46134e+09
-7.97803e+09
-8.56037e+09
-8.19492e+09
-6.85298e+09
-5.56115e+09
-5.61187e+09
-5.83008e+09
-6.04622e+09
-6.21683e+09
-6.35547e+09
-6.46655e+09
-6.55357e+09
-6.6184e+09
-6.66476e+09
-6.69388e+09
-6.70456e+09
-6.6963e+09
-6.6693e+09
-6.62466e+09
-6.56654e+09
-6.50527e+09
-6.45942e+09
-6.45518e+09
-6.52683e+09
-6.71669e+09
-7.06957e+09
-7.6237e+09
-8.40709e+09
-9.48524e+09
-1.11136e+10
-1.36176e+10
-1.53678e+10
-9.56806e+09
-4.59624e+09
-4.68313e+09
-4.8534e+09
-4.82265e+09
-4.83484e+09
-4.89647e+09
-4.96999e+09
-5.03972e+09
-5.10505e+09
-5.16993e+09
-5.23859e+09
-5.31567e+09
-5.40548e+09
-5.51272e+09
-5.64835e+09
-5.82064e+09
-6.03696e+09
-6.30786e+09
-6.63291e+09
-7.01793e+09
-7.48897e+09
-8.12942e+09
-8.77119e+09
-9.3128e+09
-9.28671e+09
-3.99361e+09
-5.08539e+09
-5.63137e+09
-5.97805e+09
-6.20259e+09
-6.37043e+09
-6.49716e+09
-6.59489e+09
-6.66874e+09
-6.72181e+09
-6.75473e+09
-6.76751e+09
-6.76033e+09
-6.73324e+09
-6.68752e+09
-6.6283e+09
-6.56679e+09
-6.52159e+09
-6.51946e+09
-6.59609e+09
-6.79423e+09
-7.15706e+09
-7.71954e+09
-8.50361e+09
-9.55943e+09
-1.11414e+10
-1.36986e+10
-1.58736e+10
-9.55098e+09
-4.67043e+09
-4.73392e+09
-4.80765e+09
-4.76691e+09
-4.79073e+09
-4.86983e+09
-4.95021e+09
-5.02541e+09
-5.09461e+09
-5.1617e+09
-5.23093e+09
-5.30761e+09
-5.397e+09
-5.50437e+09
-5.64023e+09
-5.81385e+09
-6.03668e+09
-6.3237e+09
-6.66954e+09
-7.07709e+09
-7.52729e+09
-8.0603e+09
-8.65696e+09
-9.30679e+09
-8.95009e+09
-4.11199e+09
-5.07746e+09
-5.60765e+09
-5.95267e+09
-6.17849e+09
-6.34692e+09
-6.47335e+09
-6.57071e+09
-6.64526e+09
-6.69988e+09
-6.73445e+09
-6.74895e+09
-6.74383e+09
-6.71936e+09
-6.67725e+09
-6.62308e+09
-6.56867e+09
-6.53307e+09
-6.5424e+09
-6.63127e+09
-6.84094e+09
-7.21513e+09
-7.79162e+09
-8.5975e+09
-9.70716e+09
-1.14325e+10
-1.40735e+10
-1.55409e+10
-7.97727e+09
-4.9141e+09
-4.8597e+09
-4.85235e+09
-4.84403e+09
-4.8781e+09
-4.93708e+09
-5.00632e+09
-5.08347e+09
-5.15969e+09
-5.23194e+09
-5.30236e+09
-5.37653e+09
-5.46e+09
-5.55937e+09
-5.68411e+09
-5.84105e+09
-6.03836e+09
-6.29211e+09
-6.6086e+09
-6.98637e+09
-7.4596e+09
-8.14423e+09
-8.95579e+09
-9.30431e+09
-2.6296e+09
-5.0854e+09
-5.63464e+09
-5.9828e+09
-6.20985e+09
-6.37704e+09
-6.50153e+09
-6.59659e+09
-6.66741e+09
-6.71587e+09
-6.74198e+09
-6.74538e+09
-6.7258e+09
-6.68336e+09
-6.6203e+09
-6.54285e+09
-6.46237e+09
-6.39626e+09
-6.37054e+09
-6.42248e+09
-6.59562e+09
-6.92963e+09
-7.45677e+09
-8.19662e+09
-9.18747e+09
-1.06711e+10
-1.3343e+10
-1.66781e+10
-1.27008e+10
-5.02194e+09
-4.8535e+09
-4.84472e+09
-4.82837e+09
-4.86734e+09
-4.93126e+09
-5.00222e+09
-5.07885e+09
-5.1546e+09
-5.22893e+09
-5.30219e+09
-5.378e+09
-5.46116e+09
-5.55765e+09
-5.67751e+09
-5.83017e+09
-6.02508e+09
-6.28127e+09
-6.61155e+09
-7.00714e+09
-7.47457e+09
-8.11323e+09
-8.89069e+09
-9.26366e+09
-3.09391e+09
-5.08885e+09
-5.60922e+09
-5.95019e+09
-6.17918e+09
-6.3489e+09
-6.47575e+09
-6.57369e+09
-6.64757e+09
-6.69967e+09
-6.73075e+09
-6.7408e+09
-6.72985e+09
-6.69868e+09
-6.65024e+09
-6.59161e+09
-6.535e+09
-6.49834e+09
-6.50799e+09
-6.6009e+09
-6.81891e+09
-7.20324e+09
-7.78979e+09
-8.60173e+09
-9.70319e+09
-1.13893e+10
-1.40754e+10
-1.60604e+10
-9.45904e+09
-5.08625e+09
-4.95972e+09
-4.93558e+09
-4.93557e+09
-4.96338e+09
-5.00903e+09
-5.06965e+09
-5.14156e+09
-5.21887e+09
-5.29631e+09
-5.37118e+09
-5.44546e+09
-5.5229e+09
-5.61042e+09
-5.71922e+09
-5.8587e+09
-6.03416e+09
-6.25546e+09
-6.53121e+09
-6.8653e+09
-7.29122e+09
-7.84774e+09
-8.32409e+09
-8.52589e+09
-6.752e+09
-5.54044e+09
-5.62849e+09
-5.86255e+09
-6.08633e+09
-6.26607e+09
-6.40904e+09
-6.5217e+09
-6.61039e+09
-6.6776e+09
-6.7235e+09
-6.7474e+09
-6.74862e+09
-6.72681e+09
-6.68289e+09
-6.6205e+09
-6.54679e+09
-6.4727e+09
-6.41486e+09
-6.40036e+09
-6.46914e+09
-6.66557e+09
-7.0271e+09
-7.58431e+09
-8.35586e+09
-9.37993e+09
-1.09002e+10
-1.3485e+10
-1.61001e+10
-1.08287e+10
-5.09776e+09
-4.94908e+09
-4.93039e+09
-4.93098e+09
-4.96248e+09
-5.01127e+09
-5.07445e+09
-5.14684e+09
-5.22273e+09
-5.2996e+09
-5.37551e+09
-5.45163e+09
-5.53129e+09
-5.61961e+09
-5.72496e+09
-5.85705e+09
-6.02356e+09
-6.23885e+09
-6.5165e+09
-6.85784e+09
-7.2855e+09
-7.83273e+09
-8.31319e+09
-8.60013e+09
-7.0376e+09
-5.55363e+09
-5.60169e+09
-5.82835e+09
-6.0523e+09
-6.2361e+09
-6.3843e+09
-6.49977e+09
-6.58991e+09
-6.65842e+09
-6.70606e+09
-6.73262e+09
-6.73759e+09
-6.72098e+09
-6.68434e+09
-6.6319e+09
-6.5713e+09
-6.51377e+09
-6.47629e+09
-6.4865e+09
-6.58403e+09
-6.81198e+09
-7.20932e+09
-7.80983e+09
-8.6354e+09
-9.74214e+09
-1.13857e+10
-1.3897e+10
-1.54971e+10
-8.26128e+09
-5.08929e+09
-5.00809e+09
-5.00382e+09
-5.01115e+09
-5.03777e+09
-5.08036e+09
-5.13713e+09
-5.20322e+09
-5.27591e+09
-5.35138e+09
-5.42584e+09
-5.49837e+09
-5.57129e+09
-5.65011e+09
-5.74401e+09
-5.86211e+09
-6.00846e+09
-6.18785e+09
-6.4061e+09
-6.66703e+09
-6.98085e+09
-7.32379e+09
-7.48061e+09
-7.11801e+09
-6.50143e+09
-6.13424e+09
-6.05766e+09
-6.10198e+09
-6.20954e+09
-6.32559e+09
-6.43456e+09
-6.5287e+09
-6.6067e+09
-6.6676e+09
-6.70981e+09
-6.73162e+09
-6.73207e+09
-6.71128e+09
-6.67132e+09
-6.61696e+09
-6.55552e+09
-6.49761e+09
-6.45988e+09
-6.47042e+09
-6.57097e+09
-6.80763e+09
-7.21666e+09
-7.82561e+09
-8.65015e+09
-9.72539e+09
-1.12682e+10
-1.36374e+10
-1.5348e+10
-8.52831e+09
-5.07604e+09
-5.00735e+09
-5.00164e+09
-5.01048e+09
-5.03844e+09
-5.08268e+09
-5.14226e+09
-5.21134e+09
-5.28567e+09
-5.36196e+09
-5.43768e+09
-5.51244e+09
-5.58857e+09
-5.67052e+09
-5.76442e+09
-5.8775e+09
-6.0173e+09
-6.19291e+09
-6.41277e+09
-6.67924e+09
-6.99739e+09
-7.3388e+09
-7.48292e+09
-7.11404e+09
-6.4913e+09
-6.10837e+09
-6.02823e+09
-6.07864e+09
-6.19008e+09
-6.31056e+09
-6.42441e+09
-6.52079e+09
-6.59926e+09
-6.65997e+09
-6.70164e+09
-6.72277e+09
-6.7225e+09
-6.70129e+09
-6.66155e+09
-6.60812e+09
-6.54807e+09
-6.49208e+09
-6.45734e+09
-6.47197e+09
-6.57674e+09
-6.81666e+09
-7.22828e+09
-7.84007e+09
-8.66611e+09
-9.74029e+09
-1.12685e+10
-1.35687e+10
-1.51118e+10
-7.86831e+09
-5.10521e+09
-5.06009e+09
-5.06122e+09
-5.07183e+09
-5.10118e+09
-5.14332e+09
-5.19808e+09
-5.26231e+09
-5.33283e+09
-5.40647e+09
-5.48e+09
-5.55107e+09
-5.6214e+09
-5.6974e+09
-5.7864e+09
-5.89393e+09
-6.02292e+09
-6.17508e+09
-6.35291e+09
-6.55722e+09
-6.77927e+09
-6.96939e+09
-7.00561e+09
-6.80322e+09
-6.51626e+09
-6.33165e+09
-6.2622e+09
-6.26517e+09
-6.31719e+09
-6.39113e+09
-6.46996e+09
-6.54383e+09
-6.60762e+09
-6.65756e+09
-6.69031e+09
-6.70313e+09
-6.69484e+09
-6.66601e+09
-6.61932e+09
-6.55942e+09
-6.49315e+09
-6.4305e+09
-6.38767e+09
-6.3926e+09
-6.48749e+09
-6.72014e+09
-7.12704e+09
-7.73177e+09
-8.54335e+09
-9.59191e+09
-1.10796e+10
-1.33126e+10
-1.48117e+10
-7.93554e+09
-5.10984e+09
-5.06229e+09
-5.06312e+09
-5.0728e+09
-5.10152e+09
-5.14408e+09
-5.20056e+09
-5.26732e+09
-5.34012e+09
-5.41557e+09
-5.49113e+09
-5.56507e+09
-5.63928e+09
-5.71881e+09
-5.80892e+09
-5.91398e+09
-6.03916e+09
-6.19035e+09
-6.37107e+09
-6.58042e+09
-6.80599e+09
-6.99395e+09
-7.02245e+09
-6.80736e+09
-6.50918e+09
-6.32018e+09
-6.2563e+09
-6.26612e+09
-6.32082e+09
-6.39695e+09
-6.47811e+09
-6.55288e+09
-6.61629e+09
-6.66483e+09
-6.6952e+09
-6.70472e+09
-6.69222e+09
-6.65842e+09
-6.60595e+09
-6.53899e+09
-6.46367e+09
-6.38993e+09
-6.33448e+09
-6.32483e+09
-6.40172e+09
-6.61114e+09
-6.98899e+09
-7.55712e+09
-8.31841e+09
-9.29675e+09
-1.06839e+10
-1.28794e+10
-1.48915e+10
-9.24381e+09
-5.15679e+09
-5.11427e+09
-5.12074e+09
-5.13255e+09
-5.16003e+09
-5.19873e+09
-5.24947e+09
-5.30978e+09
-5.37665e+09
-5.44741e+09
-5.51905e+09
-5.58804e+09
-5.6548e+09
-5.72634e+09
-5.81006e+09
-5.90803e+09
-6.02191e+09
-6.15252e+09
-6.30036e+09
-6.46367e+09
-6.62703e+09
-6.74901e+09
-6.76804e+09
-6.67132e+09
-6.53599e+09
-6.43854e+09
-6.39391e+09
-6.39272e+09
-6.42513e+09
-6.47839e+09
-6.53917e+09
-6.59928e+09
-6.65305e+09
-6.6948e+09
-6.71988e+09
-6.72495e+09
-6.70872e+09
-6.67193e+09
-6.61726e+09
-6.54878e+09
-6.47217e+09
-6.39635e+09
-6.33686e+09
-6.32104e+09
-6.39139e+09
-6.59774e+09
-6.97751e+09
-7.55068e+09
-8.32268e+09
-9.33424e+09
-1.08028e+10
-1.30514e+10
-1.46971e+10
-8.2263e+09
-5.15963e+09
-5.11737e+09
-5.12344e+09
-5.1343e+09
-5.16075e+09
-5.19916e+09
-5.25108e+09
-5.31376e+09
-5.38309e+09
-5.45568e+09
-5.52889e+09
-5.60011e+09
-5.67028e+09
-5.74468e+09
-5.82869e+09
-5.92512e+09
-6.03708e+09
-6.16862e+09
-6.32087e+09
-6.48853e+09
-6.65327e+09
-6.77197e+09
-6.78255e+09
-6.67683e+09
-6.53449e+09
-6.43771e+09
-6.40049e+09
-6.40547e+09
-6.43862e+09
-6.49138e+09
-6.55126e+09
-6.60925e+09
-6.65985e+09
-6.69725e+09
-6.71665e+09
-6.71454e+09
-6.68945e+09
-6.64195e+09
-6.57412e+09
-6.48911e+09
-6.39188e+09
-6.29103e+09
-6.20213e+09
-6.15154e+09
-6.17953e+09
-6.33383e+09
-6.65134e+09
-7.14834e+09
-7.81998e+09
-8.69765e+09
-9.99645e+09
-1.22211e+10
-1.48998e+10
-1.17114e+10
-5.20471e+09
-5.17176e+09
-5.18001e+09
-5.19163e+09
-5.21727e+09
-5.25307e+09
-5.30006e+09
-5.35643e+09
-5.41964e+09
-5.48691e+09
-5.55504e+09
-5.62035e+09
-5.68228e+09
-5.74677e+09
-5.82165e+09
-5.91001e+09
-6.01152e+09
-6.12514e+09
-6.25092e+09
-6.38422e+09
-6.50937e+09
-6.59906e+09
-6.62613e+09
-6.5932e+09
-6.53644e+09
-6.49223e+09
-6.47396e+09
-6.48093e+09
-6.50991e+09
-6.55567e+09
-6.60912e+09
-6.66299e+09
-6.71201e+09
-6.75032e+09
-6.77272e+09
-6.77578e+09
-6.75818e+09
-6.72074e+09
-6.66605e+09
-6.59793e+09
-6.5209e+09
-6.44231e+09
-6.3774e+09
-6.3539e+09
-6.4154e+09
-6.61297e+09
-6.98532e+09
-7.54979e+09
-8.30955e+09
-9.32164e+09
-1.08274e+10
-1.31103e+10
-1.46277e+10
-7.90521e+09
-5.2068e+09
-5.17296e+09
-5.18115e+09
-5.19209e+09
-5.2167e+09
-5.25163e+09
-5.29878e+09
-5.35648e+09
-5.42136e+09
-5.49006e+09
-5.55973e+09
-5.6274e+09
-5.69269e+09
-5.7601e+09
-5.8354e+09
-5.92208e+09
-6.02191e+09
-6.1356e+09
-6.26288e+09
-6.39825e+09
-6.5248e+09
-6.61289e+09
-6.6358e+09
-6.59704e+09
-6.53696e+09
-6.49504e+09
-6.48362e+09
-6.49561e+09
-6.52458e+09
-6.56846e+09
-6.61918e+09
-6.66906e+09
-6.71341e+09
-6.74641e+09
-6.76265e+09
-6.75861e+09
-6.73272e+09
-6.68534e+09
-6.61813e+09
-6.53399e+09
-6.43739e+09
-6.33581e+09
-6.24358e+09
-6.18713e+09
-6.20808e+09
-6.35697e+09
-6.67075e+09
-7.16682e+09
-7.84394e+09
-8.7634e+09
-1.02039e+10
-1.26122e+10
-1.48231e+10