/*--------------------------------*- C++ -*----------------------------------*\
| =========                 |                                                 |
| \\      /  F ield         | OpenFOAM: The Open Source CFD Toolbox           |
|  \\    /   O peration     | Version:  4.1                                   |
|   \\  /    A nd           | Web:      www.OpenFOAM.org                      |
|    \\/     M anipulation  |                                                 |
\*---------------------------------------------------------------------------*/
FoamFile
{
    version     2.0;
    format      ascii;
    class       volVectorField;
    location    "37";
    object      U;
}
// * * * * * * * * * * * * * * * * * * * * * * * * * * * * * * * * * * * * * //

dimensions      [0 1 -1 0 0 0 0];

internalField   nonuniform List<vector> 
4432
(
(-188070 -5730.93 -16828.6)
(-182097 -846.906 -3999.85)
(-167757 1658.02 919.011)
(-157747 -2575.09 -4538.59)
(-160121 -1332.92 -3239.45)
(-157055 -985.717 -1467.38)
(-152691 -1256.79 -2363.11)
(-150614 -1205.68 -2379.49)
(-148813 -1284.91 -2533.64)
(-147277 -1402.49 -2670.15)
(-145792 -1506.23 -2759.9)
(-144453 -1549.45 -2857.66)
(-143185 -1563.58 -2939.82)
(-142021 -1589.75 -2986.94)
(-140941 -1624.25 -3007.54)
(-139778 -1650.95 -3079.82)
(-138511 -1662.92 -3218.58)
(-137220 -1669.38 -3359.48)
(-135893 -1682.58 -3512.64)
(-134488 -1693.45 -3659.95)
(-132995 -1703.6 -3812.99)
(-131410 -1711.95 -3961.87)
(-129729 -1717.83 -4105.27)
(-127962 -1721.9 -4239.49)
(-126133 -1724.72 -4362.06)
(-124274 -1726.37 -4470.91)
(-122423 -1726.13 -4564.14)
(-120613 -1723.12 -4641.69)
(-118875 -1716.09 -4704.41)
(-117229 -1704.13 -4755.21)
(-115695 -1686.31 -4797.89)
(-114295 -1661.75 -4836.55)
(-113050 -1629.16 -4878.04)
(-111983 -1588.06 -4925.02)
(-111107 -1539.88 -4968.68)
(-110437 -1485.58 -5001.15)
(-110001 -1426.75 -5023.96)
(-109808 -1365.09 -5048.51)
(-109873 -1301.78 -5077.3)
(-110213 -1238.91 -5095.73)
(-110859 -1179.2 -5083.13)
(-111843 -1126.39 -5011.83)
(-113194 -1087.03 -4846.18)
(-114973 -1069.78 -4530.16)
(-117364 -1069.48 -3969.91)
(-120720 -1069.03 -3048.05)
(-125385 -1031.92 -1553.04)
(-131054 -902.753 732.064)
(-136293 -641.186 4160.15)
(-142151 -274.566 8686.95)
(-159137 137.841 14591.3)
(-208527 1834.06 21846.9)
(-267196 -4331.58 45934)
(-212632 5986.41 36746.2)
(-197830 -3217.88 -11226.5)
(-189563 1437.26 -6040.69)
(-183886 3777.75 -3944.73)
(-176351 -140.199 -3489.38)
(-174815 1020.4 -3613.56)
(-173530 1341.12 -2346.55)
(-170012 1098.92 -2911.93)
(-168172 1153.29 -2874.52)
(-166893 1086.15 -2988.4)
(-165730 985.565 -2988.89)
(-164546 896.721 -3003.95)
(-163489 861.635 -3051.42)
(-162576 852.121 -3093.49)
(-161796 831.819 -3090.97)
(-161081 804.199 -3078.49)
(-160283 783.527 -3136.08)
(-159406 775.802 -3240.83)
(-158536 772.897 -3330.44)
(-157643 764.347 -3431.36)
(-156684 758.269 -3522.31)
(-155656 753.398 -3614.03)
(-154556 751.119 -3696.24)
(-153381 752.229 -3767.78)
(-152141 756.603 -3825.07)
(-150853 763.962 -3866.04)
(-149543 774.669 -3889.55)
(-148236 789.515 -3895.27)
(-146955 809.694 -3884.54)
(-145718 836.404 -3860.02)
(-144537 870.822 -3825.95)
(-143418 914.044 -3787.3)
(-142368 967.184 -3748.23)
(-141390 1031.79 -3712.43)
(-140492 1108.54 -3681.49)
(-139673 1196.94 -3655.07)
(-138938 1297.04 -3632.69)
(-138292 1408.56 -3614.77)
(-137747 1531.95 -3604.56)
(-137314 1667.31 -3607.13)
(-137010 1813.76 -3622.66)
(-136870 1970.19 -3642.03)
(-136936 2134.46 -3648.33)
(-137274 2304.89 -3627.66)
(-137999 2485.41 -3548.31)
(-139329 2687.32 -3350.32)
(-141617 2928.78 -2953.46)
(-145224 3241.69 -2217.9)
(-150125 3673.33 -977.086)
(-155466 4238.21 970.794)
(-162887 4947.16 3292.87)
(-181596 5659.49 7832.75)
(-240410 6180.1 12648.5)
(-297608 152.761 28248.3)
(-290319 2707.72 53584.1)
(-203150 -1218.75 -20589.3)
(-200078 -2018.15 -10004.4)
(-200526 -2188.54 -3099.57)
(-197962 -710.723 -6232.99)
(-195778 -942.804 -4167)
(-196733 -898.415 -1376.5)
(-195825 -874.085 -613.395)
(-194779 -764.502 24.2933)
(-194417 -782.251 254.389)
(-194027 -747.925 399.265)
(-193591 -754.334 481.339)
(-193222 -738.538 502.047)
(-192832 -710.452 528.997)
(-192492 -681.214 583.974)
(-192274 -670.113 644.555)
(-192075 -674.581 680.995)
(-191783 -661.024 678.279)
(-191464 -631.68 667.259)
(-191145 -609.256 640.842)
(-190816 -583.519 622.44)
(-190480 -556.57 610.261)
(-190137 -526.753 616.126)
(-189792 -494.067 644.012)
(-189446 -459.053 697.699)
(-189111 -422.455 779.023)
(-188794 -384.96 888.709)
(-188508 -347.031 1026.22)
(-188254 -308.88 1187.98)
(-188034 -270.727 1368.94)
(-187840 -232.696 1560.81)
(-187665 -194.775 1755.62)
(-187497 -156.031 1948.63)
(-187319 -113.157 2137.35)
(-187104 -64.0169 2312.48)
(-186821 -12.6666 2466.51)
(-186457 38.0753 2597.45)
(-185984 91.2204 2698.74)
(-185372 151.155 2772.18)
(-184657 215.798 2829.1)
(-183802 280.562 2865.58)
(-182765 344.433 2877.62)
(-181486 407.267 2860.45)
(-179894 468.902 2812.79)
(-177922 532.119 2741.44)
(-175560 604.838 2664.9)
(-172827 702.339 2603.92)
(-169626 829.501 2574.22)
(-165288 1011.56 2611.74)
(-159428 1233.43 2907.53)
(-151628 1478.47 3649.89)
(-149405 2412.93 4336.64)
(-151613 2586.22 3616.59)
(-141110 -4009.99 5440.76)
(28989.3 -5978.89 4957.14)
(-222640 1647.9 -13999.8)
(-220022 762.458 -8387.14)
(-218627 578.647 -5507.59)
(-216406 1904.85 -3365.95)
(-215646 1619.65 -3170.54)
(-216345 1641.23 -1171.91)
(-215563 1639.23 -487.322)
(-214703 1714.6 10.2029)
(-214535 1674.53 164.779)
(-214264 1684.33 349.375)
(-213985 1658.32 457.568)
(-213719 1653.33 489.532)
(-213457 1659.26 491.022)
(-213265 1665.15 510.118)
(-213197 1652.85 533.032)
(-213109 1624.27 505.838)
(-212906 1609.65 443.302)
(-212697 1606.22 370.458)
(-212496 1593.07 283.628)
(-212271 1579.36 199.154)
(-212034 1562.92 115.939)
(-211782 1545.03 45.4264)
(-211521 1525.61 -8.17221)
(-211255 1504.2 -40.4492)
(-210995 1480.35 -48.274)
(-210750 1453.83 -30.385)
(-210533 1424.65 13.6772)
(-210349 1393.25 81.5503)
(-210203 1360.1 169.449)
(-210091 1325.88 271.038)
(-210010 1291.37 380.625)
(-209952 1258.29 494.922)
(-209908 1230.49 611.974)
(-209863 1210.98 727.992)
(-209795 1197.45 839.031)
(-209686 1188.78 940.67)
(-209515 1189.5 1028.85)
(-209258 1204.03 1100.4)
(-208877 1232.44 1152.54)
(-208355 1272.79 1187.71)
(-207666 1326.15 1205.8)
(-206756 1394.37 1208.19)
(-205559 1479.21 1204.1)
(-204014 1586.61 1204.11)
(-202076 1727.21 1225.95)
(-199698 1915.96 1296.41)
(-196752 2159.71 1446.86)
(-192616 2480.12 1710)
(-186459 2819.41 2319.02)
(-177909 3311.68 3731.04)
(-175471 4401.51 5749.93)
(-166824 5674.2 7314.18)
(-147942 -364.547 11952.3)
(-1833.5 -5823.39 2580.13)
(-185554 -1896.03 -17991.3)
(-173875 -1915.75 -14258.9)
(-172257 -3342.32 -13011.7)
(-169367 -916.344 -9065.11)
(-165001 -1575.19 -9137.75)
(-163617 -1923.13 -7784.68)
(-162325 -2051.34 -6224.6)
(-161307 -1961.69 -5407.31)
(-160377 -1983.63 -4866.25)
(-159310 -1910.34 -4393.86)
(-158235 -1857.1 -4106.32)
(-157205 -1782.45 -3958.18)
(-156141 -1732.7 -3905.43)
(-155188 -1704.16 -3937.85)
(-154400 -1681.12 -4039.83)
(-153619 -1684.08 -4142.58)
(-152746 -1667.21 -4245.33)
(-151843 -1642.97 -4379.23)
(-150905 -1618.49 -4537.57)
(-149900 -1591.75 -4710.72)
(-148834 -1563.31 -4884.67)
(-147707 -1530.79 -5045.63)
(-146521 -1493.37 -5180.6)
(-145294 -1451.06 -5281.82)
(-144046 -1403.98 -5342.76)
(-142810 -1353.17 -5361.2)
(-141619 -1298.89 -5337.01)
(-140505 -1241.47 -5275.26)
(-139492 -1181.33 -5182.49)
(-138599 -1118.73 -5067.04)
(-137832 -1053.54 -4932.85)
(-137192 -986.972 -4768.48)
(-136697 -921.466 -4552.76)
(-136362 -853.576 -4319.44)
(-136189 -782.234 -4106.75)
(-136193 -714.137 -3851.58)
(-136375 -648.366 -3555.89)
(-136735 -590.585 -3239.31)
(-137158 -540.109 -2909.05)
(-137591 -490.32 -2581.77)
(-137980 -438.903 -2269.92)
(-138274 -379.867 -2010.2)
(-138360 -309.784 -1815.39)
(-138173 -217.751 -1684.22)
(-137697 -90.6152 -1608.45)
(-136961 90.8103 -1557.2)
(-135885 360.331 -1503.67)
(-133864 758.764 -1268.95)
(-129509 1359.27 -404.682)
(-124193 2682.76 2529.86)
(-127578 3483.15 9513.45)
(-157169 6105.43 20140.2)
(-195790 -6063.31 30422.7)
(-132640 -163.152 12754.4)
(-196339 2282.73 -16429.6)
(-190876 2142.57 -10491.3)
(-186819 783.25 -8561.21)
(-184122 3033.71 -6205.61)
(-182995 2383.59 -6460.61)
(-181626 2063.79 -5607.05)
(-180339 1924.88 -4146.78)
(-179541 1987.58 -3457.98)
(-178906 1950.42 -2941.96)
(-178055 2001.32 -2500.85)
(-177270 2036.54 -2209.45)
(-176538 2093.19 -2053.65)
(-175821 2129.13 -2011.91)
(-175193 2147.46 -2068.68)
(-174723 2162.23 -2180.81)
(-174246 2155.11 -2277.27)
(-173671 2166.11 -2382.73)
(-173098 2183.69 -2535.23)
(-172510 2201.09 -2699.73)
(-171872 2220.08 -2879.87)
(-171189 2240.18 -3059.2)
(-170458 2263.31 -3225.96)
(-169682 2290.1 -3367.44)
(-168875 2320.67 -3474.18)
(-168056 2355 -3538.78)
(-167251 2392.35 -3558.07)
(-166491 2432.56 -3531.4)
(-165804 2475.51 -3463.49)
(-165212 2520.94 -3360.51)
(-164733 2568.82 -3230.93)
(-164372 2619.31 -3081.37)
(-164134 2671.6 -2914.43)
(-164029 2724.01 -2729.32)
(-164066 2779.55 -2528.09)
(-164254 2838.98 -2309.93)
(-164611 2897.52 -2075.48)
(-165144 2957.36 -1819.39)
(-165865 3010.14 -1532.11)
(-166782 3059.77 -1225.04)
(-167832 3115.87 -902.416)
(-168972 3184.31 -567.226)
(-170185 3271.09 -228.592)
(-171447 3388.72 103.261)
(-172741 3557.17 421.699)
(-174113 3801.43 734.458)
(-175709 4156.25 1074.89)
(-177630 4670 1504.01)
(-179521 5398.03 2180.37)
(-180409 6414.28 3635.6)
(-182325 7938.67 7080.61)
(-189753 8949.81 13932.5)
(-239755 8851.29 23592.4)
(-263701 -2488.91 26637.1)
(-308208 -20461.8 3202.09)
(-189055 -3750.49 -19803.8)
(-187740 -2437.08 -10969)
(-184913 -1942.35 -10432.9)
(-183380 -1779.46 -6444.59)
(-182379 -2263.92 -6058.03)
(-181152 -2708.83 -5258.86)
(-180216 -2671.25 -4608.47)
(-179476 -2600.26 -3994.55)
(-178934 -2580.1 -3474.58)
(-178339 -2514.73 -3034.45)
(-177814 -2477.68 -2696.09)
(-177319 -2429.55 -2392.39)
(-176786 -2398.09 -2235.4)
(-176302 -2389.36 -2220.94)
(-175888 -2394.37 -2306.52)
(-175434 -2398.96 -2416.53)
(-174899 -2390.01 -2555.2)
(-174336 -2380.85 -2728.18)
(-173735 -2368.38 -2911.49)
(-173068 -2353.02 -3102.07)
(-172333 -2332.74 -3284.79)
(-171526 -2305.93 -3440.75)
(-170656 -2271.02 -3552.2)
(-169735 -2226.27 -3606.21)
(-168786 -2171.36 -3596.03)
(-167834 -2106.54 -3525.08)
(-166905 -2032.69 -3402.29)
(-166019 -1950.96 -3243.63)
(-165188 -1862.47 -3065.98)
(-164411 -1768.74 -2882.59)
(-163668 -1672.39 -2702.55)
(-162937 -1583 -2529.98)
(-162250 -1510.56 -2365.99)
(-161630 -1425.77 -2220.53)
(-160979 -1302.82 -2099.78)
(-160267 -1194.94 -1989.84)
(-159536 -1090.59 -1881.05)
(-158756 -979.004 -1777.89)
(-157906 -870.63 -1676.16)
(-156968 -762.708 -1572.08)
(-155924 -652.092 -1460.85)
(-154790 -525.642 -1360.45)
(-153600 -378.754 -1267.97)
(-152344 -206.978 -1179.74)
(-151051 4.63121 -1092.31)
(-149766 269.956 -970.747)
(-148483 590.356 -725.394)
(-146629 981.233 -261.74)
(-142754 1545.07 548.149)
(-136706 2434.91 1686.42)
(-134483 4655.68 3690.87)
(-141776 6533.5 4916.01)
(-148303 -3702.04 29207.5)
(-11969.3 -8197.62 18374.9)
(-192401 487.904 -18650.3)
(-192433 1915.46 -9639.93)
(-191230 2405.95 -7344.4)
(-191612 2584.98 -5572.49)
(-191929 2122.48 -4866.25)
(-190934 1704.79 -3973.98)
(-190145 1742.26 -3235.72)
(-189966 1805.42 -2666.88)
(-189917 1820.9 -2015.06)
(-189767 1882.93 -1502.42)
(-189711 1920.21 -1124.41)
(-189674 1970.6 -839.22)
(-189637 2006.34 -673.347)
(-189660 2020.8 -635.348)
(-189751 2022.09 -687.435)
(-189806 2023.21 -742.739)
(-189820 2036.22 -838.812)
(-189862 2047.53 -976.143)
(-189917 2059.57 -1124.05)
(-189965 2071.35 -1283.12)
(-190005 2084.08 -1437.4)
(-190035 2098.82 -1571.86)
(-190058 2116.63 -1668.77)
(-190083 2139.27 -1713.93)
(-190120 2167.41 -1700.04)
(-190184 2201.42 -1627.22)
(-190290 2241.4 -1503.04)
(-190447 2287.02 -1340.19)
(-190662 2337.93 -1152.67)
(-190930 2393.39 -954.432)
(-191240 2451.21 -759.402)
(-191579 2502.81 -577.537)
(-191937 2539.69 -411.021)
(-192303 2588 -262.895)
(-192658 2668.82 -131.876)
(-192989 2733.78 -12.6081)
(-193275 2793.81 97.7557)
(-193503 2859.65 203.413)
(-193669 2926.2 297.501)
(-193779 2998.5 376.55)
(-193838 3082.15 437.718)
(-193844 3183.48 476.722)
(-193789 3308.89 485.122)
(-193680 3466.71 449.709)
(-193564 3675.6 354.237)
(-193507 3959.79 192.3)
(-193468 4335.65 -34.638)
(-192826 4817.2 -302.895)
(-190400 5476.78 -500.855)
(-184511 6182.01 -328.728)
(-183083 6975.23 1326.22)
(-179750 9758.73 4333.29)
(-177864 -9259.8 28520.1)
(-109625 -14152.7 10700.8)
(-177809 -2440.73 -22837.4)
(-179698 -2405.35 -14817.4)
(-178873 -2055.95 -12154.8)
(-178788 -2136.83 -9975.82)
(-178589 -2552.53 -8344.32)
(-178023 -2866.11 -7112.79)
(-177762 -2992.29 -6104.87)
(-177599 -3039.67 -5386.22)
(-177499 -2997.64 -4792.5)
(-177241 -2925.73 -4419.32)
(-176896 -2907.33 -4217.85)
(-176608 -2930.06 -4004.33)
(-176372 -2952.13 -3882.53)
(-176169 -2984.77 -3882.26)
(-175979 -3018.16 -3965.3)
(-175714 -3052.82 -4084.39)
(-175371 -3082.74 -4258.95)
(-174977 -3114.09 -4482.13)
(-174520 -3144.58 -4724.87)
(-173979 -3175.22 -4980.87)
(-173344 -3203.84 -5231.25)
(-172607 -3230.25 -5453.47)
(-171774 -3251.22 -5618.4)
(-170863 -3263.44 -5697.58)
(-169903 -3264.8 -5676.23)
(-168929 -3252.69 -5553.43)
(-167975 -3227.03 -5340.11)
(-167066 -3187.24 -5052.03)
(-166214 -3133.86 -4708.51)
(-165413 -3071.27 -4328.3)
(-164647 -3007.68 -3927.7)
(-163897 -2953.04 -3529.39)
(-163168 -2911.76 -3154.42)
(-162458 -2875.81 -2777.7)
(-161725 -2837.32 -2369.04)
(-160934 -2806.4 -1977)
(-160080 -2784.85 -1597.84)
(-159144 -2769.92 -1227.85)
(-158107 -2762.67 -873.597)
(-156947 -2762.28 -536.284)
(-155630 -2768.99 -223.605)
(-154102 -2776.61 53.2282)
(-152285 -2780.8 291.616)
(-150117 -2775.51 471.728)
(-147575 -2753.34 582.07)
(-144673 -2704.43 637.069)
(-141369 -2641.38 690.506)
(-137130 -2585.14 760.767)
(-130674 -2461.79 892.924)
(-122083 -1906.3 1421.67)
(-118824 -1184.42 2627.11)
(-119447 2304.33 1576.06)
(-154728 -444.783 6613.06)
(32758.9 -11992.3 6474.29)
(-175056 1096.55 -20695.3)
(-175487 1489.94 -13792.7)
(-174829 2023.13 -11455.6)
(-175354 2138.99 -9188.06)
(-175375 1876.72 -7029.79)
(-174498 1695.59 -5220.39)
(-173993 1688.45 -4141.17)
(-173707 1747.77 -3449.75)
(-173548 1889.13 -2799.03)
(-173382 2052.29 -2371.71)
(-173219 2153.6 -2058.23)
(-173082 2208.28 -1793.96)
(-172994 2261.46 -1616.53)
(-172975 2302.46 -1546.32)
(-172999 2342.99 -1543.58)
(-172984 2383.3 -1573.77)
(-172943 2430.46 -1670.69)
(-172918 2478.95 -1814.97)
(-172904 2531.61 -1979.37)
(-172893 2587.31 -2156.09)
(-172885 2648.01 -2328.47)
(-172884 2713.09 -2475.91)
(-172904 2784.48 -2570.8)
(-172968 2863.83 -2589.06)
(-173102 2950.9 -2516.73)
(-173331 3046.08 -2353.79)
(-173673 3147.38 -2111.25)
(-174133 3253.81 -1806.28)
(-174704 3363.6 -1457.58)
(-175373 3471.35 -1080.6)
(-176116 3568.02 -689.489)
(-176902 3643.11 -296.678)
(-177710 3692.15 94.0712)
(-178535 3724.85 486.276)
(-179390 3752.84 875.274)
(-180270 3772.11 1257.16)
(-181149 3783.36 1628.31)
(-182010 3790.37 1983.66)
(-182831 3794.28 2325.76)
(-183591 3798.57 2646.98)
(-184268 3804.07 2932.95)
(-184836 3810.13 3172.54)
(-185268 3821.59 3351.37)
(-185542 3845 3442.44)
(-185655 3889.47 3409.85)
(-185628 3968.26 3222.2)
(-185348 4084.26 2834.45)
(-184192 4232.31 2221.47)
(-180473 4438.15 1349.05)
(-173968 4667.79 541.787)
(-167082 4406.4 -2819.66)
(-174806 7385.69 -5626.55)
(-136087 -18904.6 10944.7)
(-54801.9 -18058.5 12969.6)
(-172468 -1101.34 -18005.8)
(-174119 -1306.47 -12810.4)
(-173998 -1315.58 -10553.1)
(-174494 -1301.83 -8745.52)
(-174579 -1482.76 -7065.94)
(-174335 -1549.28 -5966.63)
(-174226 -1618.17 -5042.36)
(-174234 -1743.56 -4277.68)
(-174381 -1825.69 -3592.48)
(-174525 -1847.54 -3087.56)
(-174508 -1831.24 -2742)
(-174445 -1862.59 -2530.73)
(-174482 -1903.52 -2434.05)
(-174564 -1951.88 -2462.04)
(-174636 -2000.97 -2555.91)
(-174648 -2051.45 -2711.57)
(-174597 -2103.65 -2935.27)
(-174490 -2160.95 -3213.13)
(-174317 -2224.57 -3522.7)
(-174057 -2294.52 -3857.29)
(-173688 -2372.74 -4196.98)
(-173189 -2460.63 -4515.3)
(-172552 -2559.24 -4764.2)
(-171795 -2670.24 -4896.29)
(-170953 -2791.66 -4885.93)
(-170073 -2920.63 -4730.68)
(-169194 -3053.48 -4452.34)
(-168349 -3188.82 -4081.6)
(-167561 -3324.37 -3652.76)
(-166839 -3457.05 -3195.4)
(-166179 -3587.48 -2733.88)
(-165574 -3716.66 -2294.71)
(-165015 -3841.19 -1901.95)
(-164481 -3958.22 -1551.78)
(-163958 -4071.12 -1231.43)
(-163449 -4179.3 -952.051)
(-162946 -4278.03 -721.733)
(-162437 -4365.01 -543.34)
(-161914 -4437.87 -422.976)
(-161368 -4493.17 -363.282)
(-160767 -4533.34 -378.294)
(-160059 -4552.73 -475.745)
(-159197 -4547.82 -655.968)
(-158146 -4514.11 -931.943)
(-156891 -4444.25 -1321.93)
(-155466 -4340.83 -1839.36)
(-153810 -4211.68 -2540.49)
(-151272 -4022.89 -3451.38)
(-146688 -3826.41 -4624.36)
(-139153 -3320.19 -5901.19)
(-136411 -2681.65 -7527.77)
(-136564 -1007.87 -9838.79)
(-154930 -12778.8 -22166.4)
(17471.6 -5663.51 -17474.2)
(-170789 1029.68 -18428.5)
(-171927 827.376 -13407)
(-171374 851.434 -11708.4)
(-171581 912.98 -9751.11)
(-171295 784.752 -7509.11)
(-170438 772.602 -5882.12)
(-169892 760.129 -4743.11)
(-169422 690.982 -3917.23)
(-168984 667.467 -3258.17)
(-168559 708.485 -2737.37)
(-168086 792.616 -2317.38)
(-167626 830.996 -2019.41)
(-167237 863.015 -1844.32)
(-166891 891.816 -1788.3)
(-166529 925.391 -1799.42)
(-166101 963.918 -1869.83)
(-165602 1007.94 -2013.94)
(-165035 1055.03 -2210.49)
(-164382 1104.93 -2437.21)
(-163620 1158.45 -2681.29)
(-162724 1214.49 -2922.83)
(-161676 1272.09 -3129.62)
(-160475 1330.25 -3252.66)
(-159156 1386.25 -3242.85)
(-157780 1440.14 -3070.3)
(-156424 1492.36 -2736.79)
(-155162 1543.86 -2267.45)
(-154049 1593.25 -1702.28)
(-153119 1640.43 -1083.76)
(-152382 1686.41 -446.6)
(-151831 1728.15 186.022)
(-151446 1762.33 793.561)
(-151202 1790.38 1354.24)
(-151098 1815.56 1862.65)
(-151089 1830.42 2321.57)
(-151139 1831.29 2725.3)
(-151224 1822.58 3076.24)
(-151296 1804.48 3373.94)
(-151332 1776.76 3608.84)
(-151313 1737.89 3769.94)
(-151225 1682.81 3841.48)
(-151061 1606.78 3804.55)
(-150820 1506.71 3639.2)
(-150518 1381.35 3317.39)
(-150201 1229.24 2795.68)
(-149956 1043.3 2016.08)
(-149761 803.994 893.025)
(-148996 528.687 -642.63)
(-145872 177.06 -2758.83)
(-139981 -51.2281 -6168)
(-136048 -491.863 -13046.7)
(-150590 -1566.1 -22400.7)
(-143941 -17093.2 -32237.5)
(-37069.2 -8577.66 -8889.03)
(-168503 -768.389 -16335.2)
(-170579 -934.231 -12017.3)
(-170915 -1135.43 -10370.1)
(-171655 -1078.5 -8770.43)
(-171932 -979.126 -7273.77)
(-172073 -826.134 -6057.09)
(-172123 -795.098 -5045.66)
(-172235 -837.962 -4224.67)
(-172460 -875.694 -3605.93)
(-172625 -839.928 -3141.08)
(-172672 -800.155 -2722.1)
(-172756 -787.597 -2481.36)
(-172908 -779.073 -2380.72)
(-173071 -773.153 -2392.41)
(-173217 -768.843 -2488.59)
(-173326 -763.459 -2667.93)
(-173396 -758.221 -2925.97)
(-173434 -753.801 -3241.47)
(-173446 -750.484 -3596.65)
(-173426 -745.543 -3977.45)
(-173355 -740.185 -4371.31)
(-173211 -733.435 -4744.3)
(-172990 -728.081 -5032.5)
(-172732 -726.588 -5163.36)
(-172496 -728.898 -5087.49)
(-172336 -738.66 -4808.22)
(-172283 -757.13 -4360.3)
(-172341 -786.683 -3798.22)
(-172490 -827.4 -3174.1)
(-172699 -879.487 -2525.66)
(-172942 -941.358 -1881.58)
(-173197 -1009.05 -1263.72)
(-173446 -1078.43 -677.458)
(-173665 -1147.03 -125.019)
(-173843 -1217.38 385.029)
(-173978 -1292.54 846.483)
(-174066 -1373.77 1254.47)
(-174107 -1457.55 1605.53)
(-174103 -1541.44 1897.76)
(-174045 -1622.21 2138.51)
(-173954 -1694.95 2335.24)
(-173860 -1758.56 2497.77)
(-173775 -1810.71 2631.66)
(-173726 -1849.77 2735.06)
(-173770 -1875.65 2793.43)
(-174012 -1890.15 2772.9)
(-174479 -1894.11 2583.37)
(-174864 -1924.04 2049.4)
(-173373 -1964.15 849.233)
(-170503 -2230.2 -1474.3)
(-165431 -2109.4 -9489.04)
(-176970 -2327.4 -22910)
(-148645 -9804.09 -57274.6)
(-60039.1 -8600.02 -24359.4)
(-166693 1752.18 -17057.8)
(-169727 1478.6 -12646.6)
(-170450 1213.7 -11251)
(-171360 1218.76 -9839.19)
(-171978 1280.87 -8142.77)
(-172533 1406.54 -6800.21)
(-173076 1416.51 -5785.63)
(-173509 1358.31 -4925.94)
(-173869 1311.83 -4261.38)
(-174136 1345.11 -3750.16)
(-174358 1387.99 -3348.17)
(-174598 1408.05 -3095.39)
(-174861 1427.56 -2976.98)
(-175115 1447.79 -2968.82)
(-175330 1469.32 -3049.33)
(-175488 1494.46 -3219.82)
(-175589 1521.8 -3478.91)
(-175632 1550.56 -3807.56)
(-175612 1580.6 -4187.97)
(-175516 1614.91 -4609.45)
(-175310 1652.83 -5058.64)
(-174957 1695.96 -5503.64)
(-174434 1742.22 -5881.33)
(-173755 1789.84 -6111.32)
(-172969 1838.97 -6139.45)
(-172136 1885.65 -5959.62)
(-171308 1927.74 -5601.33)
(-170529 1961.8 -5113.34)
(-169821 1986.95 -4548.4)
(-169192 2002.44 -3949.84)
(-168645 2009.38 -3343.66)
(-168182 2011.59 -2748.53)
(-167798 2013.25 -2175.64)
(-167484 2016.87 -1630.36)
(-167234 2019.32 -1120.56)
(-167054 2016.81 -658.127)
(-166969 2014.36 -234.146)
(-166993 2013.02 153.281)
(-167134 2013.24 502.582)
(-167403 2016.27 813.308)
(-167824 2023.78 1086.6)
(-168426 2038.46 1321.9)
(-169254 2063.32 1521.08)
(-170369 2101.94 1688.04)
(-171876 2157.26 1823.01)
(-173938 2230.65 1913.72)
(-176654 2325.95 1911)
(-179681 2412.97 1664.94)
(-181742 2489.39 794.012)
(-183274 2195.58 -1780.75)
(-189760 1878.89 -8891.18)
(-216636 -19.9222 -21194.4)
(-244543 -12859.5 -57428.8)
(-178872 -12721.3 -20583.8)
(-165829 -994.73 -14993.8)
(-167386 -1012.45 -11697.1)
(-167698 -1229.57 -10343.1)
(-168064 -1329.85 -8816.24)
(-167809 -1252.84 -7577.55)
(-167468 -1143.42 -6344.69)
(-167181 -1165.42 -5276.46)
(-167049 -1212.01 -4455.1)
(-167049 -1209.35 -3850.82)
(-166908 -1145.81 -3346.56)
(-166640 -1108.14 -2980.35)
(-166433 -1090.23 -2785.75)
(-166270 -1073.18 -2720.39)
(-166100 -1056.32 -2771.62)
(-165889 -1036.23 -2935.84)
(-165602 -1013.77 -3206.95)
(-165216 -989.394 -3573.52)
(-164720 -965.321 -4012.68)
(-164110 -939.607 -4503.73)
(-163375 -912.804 -5031.13)
(-162474 -883.263 -5593.54)
(-161343 -851.554 -6165.32)
(-159944 -816.973 -6668.98)
(-158332 -773.359 -6971.4)
(-156657 -717.219 -6979.53)
(-155085 -642.666 -6710.12)
(-153741 -549.087 -6233.84)
(-152685 -437.876 -5641.31)
(-151920 -314.827 -5012.66)
(-151408 -188.106 -4401.95)
(-151108 -57.995 -3836.53)
(-150961 77.7122 -3328.88)
(-150917 217.012 -2871.81)
(-150939 359.633 -2457.22)
(-150995 508.099 -2087.46)
(-151064 665.663 -1762.8)
(-151131 831.063 -1482.2)
(-151189 1002.42 -1241.07)
(-151229 1179 -1034.4)
(-151244 1359.55 -853.937)
(-151226 1544.59 -683.114)
(-151157 1735.27 -518.53)
(-151041 1933.23 -345.278)
(-150905 2142.1 -148.208)
(-150832 2369.71 85.2884)
(-150999 2625.64 369.08)
(-151599 2920.48 723.028)
(-152405 3272.57 1104.91)
(-152627 3667.32 1405.04)
(-152918 4042.12 509.802)
(-159903 3450.3 -3089.83)
(-189642 3211.65 -9120.77)
(-220244 -6493.9 -35096.4)
(-117794 2951.63 -7439.67)
(-160862 2303.36 -14695.4)
(-162621 2294.13 -10965.3)
(-163132 2044.39 -9340.96)
(-163351 1926.09 -7847.34)
(-163084 1992.84 -6513.58)
(-163085 2096.21 -5287.77)
(-163235 2065.52 -4231.58)
(-163381 2012.51 -3313.1)
(-163594 2014.51 -2525.22)
(-163748 2082.42 -1892.43)
(-163857 2125.85 -1422.45)
(-164011 2150.08 -1107.26)
(-164205 2174.01 -916.277)
(-164409 2197.54 -837.948)
(-164596 2223.2 -867.14)
(-164747 2249.42 -1002.44)
(-164854 2275.06 -1233.34)
(-164920 2297.5 -1539.18)
(-164957 2318.75 -1899.93)
(-164972 2338.63 -2305.32)
(-164947 2359.82 -2751.85)
(-164843 2383.31 -3221.12)
(-164648 2412.42 -3637.73)
(-164421 2456.89 -3879.81)
(-164279 2523.54 -3869.41)
(-164311 2618.92 -3619.32)
(-164544 2741.52 -3193.74)
(-164952 2886.3 -2666.45)
(-165475 3044.24 -2105.53)
(-166039 3205.09 -1556.39)
(-166590 3366.69 -1038.18)
(-167090 3529.55 -560.086)
(-167535 3690.28 -116.714)
(-167923 3848.01 294.644)
(-168311 4009.32 671.511)
(-168698 4177.47 1011.11)
(-169084 4354.83 1325.18)
(-169483 4544.44 1612.68)
(-169912 4748.43 1877.67)
(-170393 4968.54 2125.13)
(-170958 5207.49 2358.26)
(-171659 5469.78 2580.79)
(-172570 5762.67 2802.26)
(-173807 6096.97 3036.83)
(-175547 6488.54 3300.18)
(-178070 6955.94 3605.7)
(-181708 7517.26 3959.26)
(-186531 8192.16 4305.98)
(-192202 8953.42 4469.67)
(-200319 9793.56 3553.55)
(-217887 9827.18 -1320.63)
(-273413 8411.66 -10920.5)
(-392101 -1994.22 -17660.4)
(-370915 -12724.7 -16852.9)
(-167977 -1512.06 -14142.6)
(-169829 -1447.49 -11860.6)
(-170620 -1522.32 -10572.6)
(-171495 -1622.05 -8969.48)
(-171756 -1557.47 -7749.92)
(-171822 -1539.52 -6715.76)
(-172004 -1647.56 -5885.6)
(-172289 -1722.28 -5305.64)
(-172537 -1707.48 -4805.23)
(-172647 -1670.78 -4318.27)
(-172706 -1650.89 -4017.08)
(-172786 -1638.35 -3882.17)
(-172871 -1621.77 -3881.61)
(-172938 -1600.02 -4010.54)
(-172959 -1569.28 -4266.14)
(-172900 -1529.77 -4645.58)
(-172734 -1481.78 -5137.22)
(-172446 -1426.32 -5724.75)
(-172037 -1362.21 -6384.61)
(-171502 -1289.26 -7110.07)
(-170792 -1203.98 -7905.8)
(-169789 -1109.05 -8776.86)
(-168361 -1007.3 -9626.79)
(-166508 -910.12 -10211.4)
(-164421 -832.248 -10329.3)
(-162331 -775.877 -10001.4)
(-160386 -738.829 -9381.8)
(-158664 -711.623 -8626.41)
(-157176 -689.321 -7863.18)
(-155902 -671.478 -7171.43)
(-154814 -654.421 -6587.91)
(-153887 -634.041 -6117.58)
(-153093 -605.027 -5755.82)
(-152424 -566.68 -5489.39)
(-151885 -527.773 -5303.37)
(-151478 -496.993 -5182.6)
(-151212 -475.862 -5116.04)
(-151099 -465.713 -5095.98)
(-151157 -467.236 -5119.48)
(-151407 -482.801 -5185.63)
(-151872 -516.158 -5291.76)
(-152578 -571.957 -5434.88)
(-153557 -653.449 -5612.35)
(-154863 -762.082 -5822.82)
(-156620 -896.093 -6063.54)
(-159097 -1053.8 -6327.14)
(-162607 -1234.87 -6579.88)
(-167145 -1449.04 -6684.21)
(-171961 -1668.79 -6367.37)
(-179289 -2158.86 -5903.2)
(-195126 -3604.82 -4065.89)
(-250090 -5642.1 -973.132)
(-355790 3907.29 14545.1)
(-306070 4596.68 10900.4)
(-164525 2011.79 -13667.4)
(-165944 2258.49 -10991.7)
(-166272 2237.79 -9315.95)
(-166407 2203.14 -7514.28)
(-165925 2322.09 -6201.97)
(-165560 2385.47 -5215.49)
(-165262 2309.41 -4265.65)
(-164890 2259.91 -3476.13)
(-164527 2298.49 -2778.74)
(-164167 2355.08 -2177.41)
(-163820 2388.7 -1739.44)
(-163502 2409.03 -1453.03)
(-163195 2428.11 -1298.39)
(-162875 2446.72 -1270.5)
(-162499 2468.31 -1366.89)
(-162023 2492.19 -1583.58)
(-161403 2517.4 -1908.84)
(-160605 2542.22 -2323.65)
(-159611 2567.13 -2806.85)
(-158400 2591.31 -3347.08)
(-156910 2617.39 -3953.89)
(-154998 2641.18 -4633.6)
(-152503 2658.4 -5286.69)
(-149428 2657.01 -5658.1)
(-146032 2625.26 -5523.35)
(-142670 2569.1 -4903.6)
(-139617 2499.4 -3956.5)
(-137036 2431.8 -2851.91)
(-134985 2374.06 -1731.99)
(-133424 2326.75 -682.235)
(-132280 2292.95 257.592)
(-131474 2276.85 1079.55)
(-130905 2284.56 1789.35)
(-130465 2319.46 2389.74)
(-129957 2364.04 2918.6)
(-129386 2404.89 3383.81)
(-128728 2438 3790.97)
(-127972 2460.39 4146.2)
(-127109 2469.19 4445.76)
(-126134 2459.69 4684.2)
(-125047 2424.54 4856.03)
(-123868 2353.92 4952.4)
(-122635 2237.9 4958.1)
(-121417 2067.18 4853.81)
(-120351 1834.9 4618.03)
(-119684 1530.99 4236.72)
(-119701 1143.69 3752.25)
(-120244 675.097 3394.82)
(-120456 171.226 3664.71)
(-122580 -771.275 4336.14)
(-136784 -2787.32 9547.08)
(-208589 -4349.33 16371.2)
(-302620 3555.01 29439.3)
(-144602 2473.31 1042.39)
(-164386 -1286.5 -12921.3)
(-165687 -1249.41 -11202.2)
(-166337 -1288.42 -10057.3)
(-167333 -1417.03 -8669.53)
(-167942 -1460.91 -7491.68)
(-168310 -1605.68 -6581.52)
(-168750 -1711.67 -5853.12)
(-169190 -1745.6 -5221.76)
(-169493 -1742.17 -4626.06)
(-169743 -1762.06 -4132.63)
(-170004 -1779.49 -3795.78)
(-170263 -1796.23 -3600.88)
(-170530 -1809.21 -3547.5)
(-170795 -1819.43 -3643.91)
(-171037 -1825.51 -3898.11)
(-171226 -1828.59 -4315.63)
(-171340 -1830.86 -4892.07)
(-171371 -1833.54 -5612.26)
(-171336 -1838.37 -6457.12)
(-171264 -1841.05 -7413.88)
(-171136 -1841.58 -8489.65)
(-170798 -1836.53 -9725.03)
(-169980 -1824.05 -11053.7)
(-168641 -1804.4 -12060.3)
(-167159 -1776.04 -12276.7)
(-165977 -1745.08 -11719.3)
(-165268 -1718.74 -10763.1)
(-165006 -1705.38 -9676.19)
(-165060 -1704.61 -8630.5)
(-165295 -1713.54 -7706.54)
(-165608 -1726.07 -6936.43)
(-165926 -1740.56 -6314.39)
(-166206 -1758.02 -5822.06)
(-166424 -1774.6 -5437.72)
(-166573 -1783.59 -5135.84)
(-166651 -1784.85 -4894.32)
(-166658 -1783.58 -4697.15)
(-166588 -1782.02 -4532.69)
(-166434 -1781.73 -4392.29)
(-166180 -1784.73 -4271.18)
(-165810 -1792 -4170.05)
(-165299 -1805.32 -4095.72)
(-164620 -1826.57 -4060.93)
(-163750 -1856.55 -4085.09)
(-162700 -1896.03 -4190.03)
(-161517 -1951.93 -4378.34)
(-160244 -2058.67 -4620.75)
(-158385 -2244.1 -4817.23)
(-155015 -2598.49 -4612.56)
(-148793 -3658.34 -3599.59)
(-146946 -5627.01 685.201)
(-150632 -5497.85 8994.43)
(-172272 3093.26 41883.1)
(-94103.3 4255.24 11354.7)
(-165686 1278.31 -11960.2)
(-168096 1568.32 -10008.4)
(-169273 1644.66 -8756.18)
(-170725 1647.76 -7246.77)
(-171716 1715.63 -6143.28)
(-172481 1666.79 -5220.65)
(-173105 1641.52 -4270.1)
(-173695 1671.68 -3473.02)
(-174209 1724.38 -2797.13)
(-174675 1740.05 -2236.08)
(-175104 1745.51 -1808.05)
(-175507 1740.62 -1508.39)
(-175892 1730.71 -1343.69)
(-176253 1716.94 -1321.06)
(-176568 1703.1 -1450.42)
(-176810 1690.57 -1736.83)
(-176954 1679.73 -2178.5)
(-176985 1671.66 -2763.17)
(-176910 1666.5 -3471.8)
(-176740 1669.62 -4287.91)
(-176447 1681.49 -5220.49)
(-175856 1705.51 -6313.79)
(-174674 1742.35 -7504.73)
(-172791 1784.99 -8379.23)
(-170496 1818.23 -8475.21)
(-168190 1820.54 -7794.32)
(-166089 1785.86 -6681.55)
(-164263 1715.42 -5396.96)
(-162688 1613.71 -4124.91)
(-161303 1488.76 -2956.9)
(-160050 1352.7 -1935.37)
(-158882 1212.51 -1061.45)
(-157763 1072.66 -324.42)
(-156718 936.916 276.288)
(-155744 808.186 772.983)
(-154760 688.928 1205.45)
(-153735 575.67 1591.36)
(-152643 466.798 1942.46)
(-151463 361.816 2267.94)
(-150188 259.642 2576.11)
(-148816 158.951 2871.95)
(-147347 57.4266 3155.31)
(-145790 -46.9872 3420.1)
(-144164 -155.118 3655.76)
(-142504 -267.005 3853.11)
(-140886 -386.984 4025.85)
(-139344 -535.033 4254.6)
(-137524 -742.763 4744.49)
(-134490 -1103.68 5755.14)
(-128745 -1978.09 7632.25)
(-130334 -3542.14 13481.7)
(-137508 -3813.62 20843.5)
(-147503 3862.77 53485.7)
(-78116.7 3222.3 12258.4)