/*--------------------------------*- C++ -*----------------------------------*\
| =========                 |                                                 |
| \\      /  F ield         | OpenFOAM: The Open Source CFD Toolbox           |
|  \\    /   O peration     | Version:  4.1                                   |
|   \\  /    A nd           | Web:      www.OpenFOAM.org                      |
|    \\/     M anipulation  |                                                 |
\*---------------------------------------------------------------------------*/
FoamFile
{
    version     2.0;
    format      ascii;
    class       volVectorField;
    location    "35";
    object      U;
}
// * * * * * * * * * * * * * * * * * * * * * * * * * * * * * * * * * * * * * //

dimensions      [0 1 -1 0 0 0 0];

internalField   nonuniform List<vector> 
4432
(
(-186205 -6389.2 -20003.5)
(-177481 -277.407 -2686.58)
(-160309 2687.52 3037.69)
(-148675 -2676.7 -4048.72)
(-152577 -1024.42 -2497.33)
(-149096 -604.921 -412.869)
(-144033 -969.166 -1770.34)
(-141993 -912.415 -1924.3)
(-140255 -1022.72 -2218.28)
(-138841 -1167.54 -2438.57)
(-137487 -1282.76 -2564.33)
(-136338 -1315.83 -2672.25)
(-135292 -1312.19 -2739.3)
(-134381 -1324.08 -2751.39)
(-133562 -1344.7 -2729.06)
(-132619 -1354.25 -2770.92)
(-131543 -1348.46 -2894.25)
(-130446 -1340.25 -3011.81)
(-129309 -1345.55 -3142.1)
(-128071 -1350.13 -3260.57)
(-126709 -1358.81 -3388.25)
(-125227 -1370.1 -3509.63)
(-123633 -1386.38 -3624.57)
(-121951 -1406.71 -3725.62)
(-120206 -1431.18 -3809.54)
(-118423 -1458.91 -3874.48)
(-116626 -1489.24 -3919.4)
(-114835 -1521.85 -3945.47)
(-113073 -1556.14 -3954.88)
(-111356 -1591.77 -3952.07)
(-109702 -1628.33 -3942.34)
(-108128 -1665.43 -3931.24)
(-106657 -1702.31 -3927.86)
(-105309 -1739.08 -3938.46)
(-104086 -1777.41 -3953.3)
(-102999 -1817.13 -3959.4)
(-102064 -1856.06 -3956.88)
(-101296 -1893.37 -3949.11)
(-100712 -1929.95 -3935.75)
(-100320 -1966.37 -3912.83)
(-100141 -2001.19 -3862.26)
(-100201 -2034.23 -3752.18)
(-100530 -2063.28 -3539.77)
(-101205 -2081.87 -3165.38)
(-102434 -2080.92 -2530.86)
(-104583 -2038.09 -1523.65)
(-108050 -1920.81 29.4936)
(-112638 -1681.55 2416.49)
(-117089 -1258.49 6214.31)
(-122596 -462.207 10763)
(-139059 326.586 17604.6)
(-188030 185.693 25319.6)
(-233035 -6238.94 39006.3)
(-166054 2325.96 28183.6)
(-192725 -3687.1 -13225.4)
(-182088 2087.75 -5953.83)
(-175316 4843.35 -3383.03)
(-166320 -125.945 -2893.41)
(-164925 1378.52 -3144.5)
(-163610 1750.01 -1668.39)
(-159361 1410.94 -2534.34)
(-157324 1459.76 -2579.19)
(-155948 1354.81 -2791.67)
(-154686 1220.65 -2829.85)
(-153389 1113.04 -2868.41)
(-152272 1080.08 -2932)
(-151343 1082.12 -2977.4)
(-150574 1072.53 -2963.75)
(-149869 1056.88 -2941.64)
(-149040 1052.76 -3012.55)
(-148106 1064.02 -3144.63)
(-147187 1079.17 -3257.51)
(-146242 1083.85 -3387.87)
(-145214 1090.5 -3510.44)
(-144096 1094.65 -3641.53)
(-142895 1097.57 -3768.97)
(-141622 1096.9 -3890.83)
(-140300 1093.35 -4001.63)
(-138955 1086.54 -4098.27)
(-137609 1077.11 -4179.13)
(-136288 1065.43 -4243.72)
(-135012 1051.76 -4293.27)
(-133803 1036.52 -4330.29)
(-132675 1020.14 -4358.93)
(-131647 1003.18 -4384.29)
(-130735 986.261 -4410.61)
(-129953 970.546 -4441.88)
(-129317 956.526 -4480.74)
(-128839 943.661 -4526.97)
(-128530 932.935 -4578.03)
(-128401 926.969 -4632.86)
(-128463 927.874 -4695.4)
(-128729 936.374 -4770.91)
(-129216 954.372 -4856.66)
(-129952 985.985 -4941.17)
(-130971 1034.05 -5004.36)
(-132317 1103.72 -5017.73)
(-134067 1203.41 -4942.22)
(-136402 1347.29 -4709.82)
(-139649 1557.72 -4230.12)
(-144144 1868.3 -3365.52)
(-149817 2327.85 -1933.54)
(-155946 2998.73 467.764)
(-164531 4035.42 3823.6)
(-183565 4940.14 7912.16)
(-236839 4809.47 9769.58)
(-289610 -2280.62 22790.1)
(-302452 -14632.4 48668.5)
(-192698 -1607.2 -26430.6)
(-188992 -2541.54 -12618.4)
(-189582 -2658.48 -3720.33)
(-186603 -742.263 -7711.63)
(-184160 -1019.88 -4910.15)
(-185730 -953.814 -1372.36)
(-184815 -904.084 -524.808)
(-183784 -746.505 171.56)
(-183680 -758.188 365.207)
(-183551 -704.666 484.17)
(-183401 -705.545 550.817)
(-183381 -679.728 566.464)
(-183372 -642.798 610.037)
(-183445 -608.585 697.647)
(-183668 -598.408 790.323)
(-183893 -608.465 847.005)
(-183984 -596.689 845.362)
(-184031 -570.192 827.864)
(-184068 -556.138 781.896)
(-184069 -541.424 738.838)
(-184032 -527.766 688.74)
(-183954 -514.987 649.656)
(-183847 -503.353 624.685)
(-183720 -492.969 624.566)
(-183584 -483.854 652.785)
(-183437 -475.511 711.876)
(-183280 -467.993 801.671)
(-183104 -461.332 919.382)
(-182902 -455.795 1061.35)
(-182664 -451.343 1221.22)
(-182382 -448.014 1393.49)
(-182045 -445.027 1576.59)
(-181641 -438.909 1771.54)
(-181144 -427.404 1971.81)
(-180536 -415.907 2172.54)
(-179808 -408.866 2370.09)
(-178924 -403.01 2550.43)
(-177853 -396.602 2710.45)
(-176555 -390.184 2846.83)
(-174995 -383.376 2963.53)
(-173136 -374.2 3061.19)
(-170983 -360.869 3153.83)
(-168497 -341.224 3240.72)
(-165657 -312.044 3322.14)
(-162475 -264.778 3418.55)
(-158987 -180.962 3555.89)
(-155147 -38.94 3780.36)
(-150501 166.488 4182.3)
(-144807 445.779 4865.01)
(-136980 1237.75 5789.6)
(-137030 2041.71 7225.42)
(-133658 1716.73 6379.73)
(-135738 -2579.98 4664.85)
(6724.21 -4440.3 4215.37)
(-210905 1563.23 -18165.2)
(-207434 582.709 -10597.9)
(-205611 408.798 -6823.15)
(-202969 2131.94 -4137.28)
(-202136 1768.65 -3876.19)
(-203115 1799.74 -1354.76)
(-202155 1809.39 -553.627)
(-201153 1920.25 17.9461)
(-201071 1881.77 168.612)
(-200878 1910.35 385.6)
(-200716 1895.01 524.284)
(-200623 1908.48 586.792)
(-200578 1936.3 629.098)
(-200653 1964.94 705.119)
(-200892 1973.96 789.095)
(-201102 1966.26 809.191)
(-201169 1980.47 783.384)
(-201237 2009.7 742.928)
(-201320 2028.52 681.804)
(-201367 2048.64 618.66)
(-201389 2068.27 548.478)
(-201380 2087.12 483.86)
(-201351 2104.52 430.767)
(-201308 2119.95 396.005)
(-201263 2132.92 384.019)
(-201213 2143.4 395.992)
(-201159 2150.73 431.17)
(-201094 2154.28 485.791)
(-201012 2153.18 554.64)
(-200901 2146.8 630.104)
(-200753 2134.45 705.569)
(-200556 2116.27 778.004)
(-200299 2094.88 846.207)
(-199975 2071.28 908.939)
(-199575 2039.37 964.227)
(-199083 1994.78 1004.35)
(-198480 1940.26 1020.9)
(-197738 1876.56 1009.25)
(-196826 1802.91 966.739)
(-195700 1719.18 895.462)
(-194317 1626.2 801.239)
(-192635 1526.79 689.761)
(-190594 1422.46 569.866)
(-188148 1314.74 460.149)
(-185291 1211.01 390.713)
(-182021 1129.43 404.733)
(-178287 1090.48 550.689)
(-173597 1092.12 913.385)
(-167399 1149.34 1686.57)
(-159237 1579.19 2784.61)
(-154989 1317.71 4756.36)
(-150908 1217.5 5562.2)
(-145809 -4990.11 7241.73)
(3769.86 -3871.22 2477.72)
(-177469 -1803.65 -20649.1)
(-165399 -1981.21 -16421.9)
(-163817 -3795.25 -14841.7)
(-160961 -876.817 -9957.93)
(-156105 -1823.93 -10010.5)
(-154975 -2304.11 -8247.83)
(-153736 -2462.32 -6236.21)
(-152775 -2335.9 -5199.2)
(-151846 -2351.31 -4514.78)
(-150701 -2247.1 -3918.35)
(-149543 -2170.52 -3554.97)
(-148457 -2070.44 -3358)
(-147354 -2004.78 -3266.77)
(-146411 -1966.68 -3266.84)
(-145668 -1932.83 -3340.7)
(-144917 -1929.08 -3415.72)
(-144036 -1898.57 -3499.11)
(-143115 -1862.61 -3638.97)
(-142148 -1827.9 -3821.79)
(-141092 -1793.89 -4042.78)
(-139951 -1757.93 -4285.11)
(-138720 -1722.32 -4539.91)
(-137418 -1683.86 -4788.78)
(-136071 -1644.86 -5019.19)
(-134713 -1603.14 -5220.73)
(-133369 -1559.07 -5389.08)
(-132062 -1511.97 -5524.97)
(-130812 -1462.16 -5633.99)
(-129631 -1410.45 -5722.69)
(-128525 -1357.5 -5798.06)
(-127491 -1303.16 -5862.07)
(-126516 -1248.35 -5900.15)
(-125604 -1194.45 -5887.93)
(-124756 -1136.56 -5866.56)
(-123954 -1073.51 -5880.93)
(-123197 -1012.87 -5855.08)
(-122482 -953.067 -5796.4)
(-121800 -900.649 -5709.2)
(-121138 -856.192 -5580.27)
(-120470 -823.564 -5403.52)
(-119761 -805.699 -5184.88)
(-118895 -799.413 -4933.26)
(-117803 -795.246 -4655.59)
(-116414 -781.42 -4348.4)
(-114711 -734.022 -3997.38)
(-112769 -613.839 -3530.24)
(-110638 -385.359 -2827.88)
(-107835 0.161179 -1720.41)
(-103215 663.089 4.55601)
(-98576.7 1915.11 4018.29)
(-103840 3392.42 11707.5)
(-134258 4786.26 27345.2)
(-175925 -10618.3 47666.4)
(-103881 -1321.64 12631.1)
(-187650 2420.79 -18937)
(-182378 2207.97 -11951.6)
(-177801 526.977 -9630.07)
(-175171 3248.46 -6867.22)
(-174216 2336.28 -7185.55)
(-172907 1903.33 -6031.85)
(-171592 1723.84 -4129.97)
(-170835 1801.28 -3227.73)
(-170228 1749.38 -2538.11)
(-169323 1810.05 -1941.7)
(-168497 1847.23 -1535.15)
(-167747 1907.81 -1291.24)
(-167030 1939.23 -1175.89)
(-166429 1948.18 -1166.57)
(-166012 1954.96 -1213.09)
(-165563 1936.34 -1236.65)
(-164978 1943.16 -1278.53)
(-164395 1956.24 -1389.99)
(-163791 1970.12 -1526.98)
(-163122 1985.36 -1697.46)
(-162394 2004.34 -1886.28)
(-161604 2025.2 -2082.73)
(-160766 2050.94 -2272)
(-159905 2079.68 -2441.39)
(-159045 2113.72 -2580.81)
(-158210 2153.28 -2686.34)
(-157420 2198.91 -2758.37)
(-156692 2250.22 -2802.96)
(-156039 2306.31 -2827.17)
(-155468 2366.35 -2839.47)
(-154978 2430.21 -2845.81)
(-154565 2496.92 -2847.33)
(-154231 2564.95 -2842.64)
(-153964 2638.29 -2836.93)
(-153746 2718.24 -2834.96)
(-153562 2799.34 -2841.23)
(-153420 2884.74 -2850.1)
(-153327 2970.08 -2851.1)
(-153284 3056.67 -2844.04)
(-153297 3144.2 -2821.56)
(-153380 3230.99 -2774.34)
(-153557 3322.51 -2699.52)
(-153845 3430.42 -2595.42)
(-154272 3569.16 -2448.6)
(-154915 3765.26 -2229.4)
(-155945 4058.28 -1866.34)
(-157489 4485.14 -1237.57)
(-159296 5082.99 -80.6646)
(-160667 5942.93 2158)
(-163400 7228.67 6840.47)
(-176954 8463.18 15856.6)
(-226985 7922.79 30681.7)
(-263876 -10043.3 39157.5)
(-380117 -36799 14634.2)
(-176537 -3697.46 -21207.7)
(-175746 -2060.39 -11149.4)
(-172690 -1548.18 -10781.4)
(-171319 -1494.02 -6164.28)
(-170515 -2201.34 -5945.47)
(-169410 -2790.66 -5055.18)
(-168610 -2726.47 -4284.42)
(-167979 -2621.23 -3514.74)
(-167543 -2583.82 -2842.6)
(-167005 -2489.24 -2258.07)
(-166551 -2433.35 -1794.71)
(-166140 -2364.37 -1368.61)
(-165691 -2317.14 -1121.22)
(-165315 -2297.05 -1037.66)
(-165027 -2292.09 -1063.43)
(-164682 -2282.85 -1114.04)
(-164228 -2257.11 -1204.85)
(-163738 -2232.07 -1352.63)
(-163202 -2207.34 -1522.14)
(-162584 -2180.75 -1718.02)
(-161876 -2153.56 -1919.07)
(-161071 -2122.57 -2114.01)
(-160183 -2089.02 -2273.71)
(-159241 -2050.88 -2383.27)
(-158275 -2006.79 -2425.08)
(-157319 -1955.96 -2399.96)
(-156399 -1898.22 -2315.67)
(-155536 -1834.91 -2189.28)
(-154745 -1767.96 -2038.63)
(-154030 -1700.11 -1876.37)
(-153377 -1635.22 -1710.54)
(-152770 -1584.95 -1544.06)
(-152257 -1561.53 -1377.45)
(-151876 -1529.04 -1224.25)
(-151510 -1456.17 -1094.04)
(-151129 -1410.91 -967.073)
(-150797 -1375.62 -827.808)
(-150475 -1331.63 -677.463)
(-150123 -1288.74 -510.565)
(-149706 -1241.16 -334.058)
(-149192 -1187.82 -157.571)
(-148554 -1124.05 17.6276)
(-147741 -1043.98 195.668)
(-146708 -941.68 383.726)
(-145451 -802.169 603.632)
(-143997 -612.371 916.735)
(-142295 -358.927 1427.86)
(-139806 1.91807 2252.64)
(-135603 570.212 3507.25)
(-129483 1764.84 5309.96)
(-127277 3659.54 9180.16)
(-134170 4586.54 15701.2)
(-133104 -7922.33 40624)
(3324.64 -9344.66 19417)
(-180083 230.886 -20757.4)
(-180287 1965.04 -10570.3)
(-178792 2499.45 -8014.62)
(-179252 2600.71 -6187.69)
(-179525 1948.97 -5501.16)
(-178158 1411.06 -4467.13)
(-177093 1476.45 -3587)
(-176792 1572.76 -2886.81)
(-176619 1604.5 -2060.27)
(-176294 1690.84 -1401.29)
(-176075 1740.65 -903.906)
(-175869 1803.68 -512.325)
(-175652 1845.87 -256.429)
(-175492 1861.82 -141.124)
(-175385 1862.57 -120.792)
(-175198 1866.34 -95.1783)
(-174922 1884.72 -122.224)
(-174645 1900.85 -206.043)
(-174348 1914.71 -309.581)
(-174003 1927.97 -436.739)
(-173608 1938.95 -572.265)
(-173161 1950.36 -701.364)
(-172677 1960.93 -804.442)
(-172176 1972.94 -862.118)
(-171682 1988.44 -862.73)
(-171219 2009.4 -804.519)
(-170801 2037.6 -696.077)
(-170441 2073.5 -552.34)
(-170147 2117.01 -389.536)
(-169920 2167.23 -223.226)
(-169756 2221.8 -68.8458)
(-169651 2270.92 62.9353)
(-169608 2303.55 171.35)
(-169634 2352.56 253.017)
(-169736 2447.49 304.535)
(-169926 2525.86 338.967)
(-170187 2604.32 363.889)
(-170520 2700.02 383.117)
(-170916 2807.31 399.767)
(-171344 2932.27 410.164)
(-171792 3078.01 406.06)
(-172255 3251.63 383.156)
(-172713 3461.58 335.667)
(-173149 3716.28 257.209)
(-173596 4033.22 149.359)
(-174109 4425.75 39.2121)
(-174659 4903.44 -4.34204)
(-174683 5506.96 154.955)
(-172816 6274.82 694.545)
(-168332 7495.76 2175.76)
(-166603 9040.53 6629.07)
(-170888 7787.74 17902.7)
(-180764 -16580.9 49542.3)
(-99024.4 -14640.8 12481)
(-164254 -2426.73 -24748.5)
(-166305 -2303.53 -15592.2)
(-165360 -1821.54 -12455.5)
(-165321 -1923.2 -10085.7)
(-165182 -2425.33 -8243.84)
(-164598 -2761.39 -6845.55)
(-164459 -2842.44 -5665.04)
(-164444 -2825.47 -4808.98)
(-164493 -2703.77 -4080.49)
(-164330 -2556.83 -3612.79)
(-164076 -2489.35 -3343.54)
(-163929 -2478.23 -3039.39)
(-163874 -2465.38 -2839.69)
(-163883 -2464.65 -2778.12)
(-163930 -2462.42 -2809.23)
(-163902 -2459.25 -2879.25)
(-163802 -2449.47 -3030.52)
(-163664 -2439.98 -3254.98)
(-163476 -2432.42 -3524.52)
(-163217 -2425.38 -3827.24)
(-162874 -2421.04 -4152.57)
(-162432 -2416.17 -4474.31)
(-161900 -2415.09 -4766.82)
(-161302 -2412.85 -4993.19)
(-160669 -2410.78 -5130.63)
(-160037 -2404.57 -5172.87)
(-159433 -2393.37 -5128.23)
(-158872 -2375.13 -5012.59)
(-158358 -2349.16 -4847.13)
(-157887 -2319.39 -4652.7)
(-157443 -2293.77 -4447.47)
(-157014 -2281.1 -4256.08)
(-156615 -2282.29 -4100.57)
(-156258 -2282.57 -3947.8)
(-155902 -2271.32 -3760.53)
(-155523 -2261.94 -3597.33)
(-155124 -2255.83 -3446.36)
(-154689 -2246.44 -3292.3)
(-154198 -2231.53 -3135.28)
(-153628 -2205.29 -2976.52)
(-152949 -2164 -2827.45)
(-152129 -2101.81 -2691.65)
(-151122 -2013.92 -2566.04)
(-149879 -1900.34 -2450.09)
(-148362 -1761.22 -2329.88)
(-146566 -1598.84 -2159.2)
(-144384 -1426.04 -1901.25)
(-141230 -1238.32 -1448.56)
(-136069 -1016.38 -805.663)
(-128411 -240.529 -46.7819)
(-122990 1554.79 1132.27)
(-131340 2527.43 3409.33)
(-121985 -12807.4 21626.2)
(49338.8 -7007.78 1478.53)
(-164251 793.978 -23209.1)
(-165055 1153.05 -15686.3)
(-164300 1755.47 -12964)
(-164895 1815.6 -10427.8)
(-164769 1450.53 -7924.15)
(-163510 1227.77 -5842.31)
(-162756 1243.79 -4638.86)
(-162269 1346.9 -3872.38)
(-161917 1548.72 -3114.01)
(-161535 1770.6 -2609.3)
(-161143 1908.56 -2225.17)
(-160777 1985.11 -1885.9)
(-160464 2059.16 -1641.19)
(-160216 2118.14 -1515.01)
(-159996 2177.32 -1461.35)
(-159696 2236.78 -1446.42)
(-159325 2303.22 -1522.17)
(-158932 2370.98 -1669.21)
(-158501 2439.35 -1855.86)
(-158017 2510.3 -2074.64)
(-157473 2582 -2308.9)
(-156865 2657.64 -2539.24)
(-156210 2732.05 -2736)
(-155537 2808.86 -2868.21)
(-154890 2884.36 -2914.03)
(-154304 2960.51 -2867.68)
(-153807 3035.75 -2738.02)
(-153413 3110.37 -2542.63)
(-153126 3183.8 -2302)
(-152945 3251.25 -2033.24)
(-152858 3304.34 -1752.82)
(-152847 3333.69 -1474.84)
(-152911 3337.87 -1203.05)
(-153060 3331.82 -934.632)
(-153297 3326.92 -667.974)
(-153629 3310.42 -396.248)
(-154064 3282.95 -119.825)
(-154604 3251.49 164.626)
(-155259 3218.47 471.917)
(-156035 3188.97 803.532)
(-156941 3167.58 1154.42)
(-157999 3162.49 1514.13)
(-159227 3180.81 1880.44)
(-160642 3222.34 2243.27)
(-162274 3289.05 2587.31)
(-164178 3381.15 2918.52)
(-166268 3479.7 3266.91)
(-167833 3578.61 3704.01)
(-166967 3689.57 4275.04)
(-162694 4251.35 5374.5)
(-159592 5055.88 8388.46)
(-168500 1997.63 16138.9)
(-149917 -31403.9 33631.9)
(-80259.7 -20373 11721.6)
(-159657 -1255.02 -19375.7)
(-161134 -1600.7 -13723.1)
(-160613 -1565.86 -11021.2)
(-160849 -1515.81 -8989.42)
(-160595 -1699.44 -6991.36)
(-159958 -1725.11 -5697.73)
(-159549 -1743.45 -4581.69)
(-159324 -1825.05 -3631.73)
(-159295 -1845.28 -2749.49)
(-159279 -1789.25 -2071.08)
(-159089 -1688.6 -1572.09)
(-158889 -1653.46 -1221.83)
(-158865 -1630.07 -992.676)
(-158939 -1614.76 -898.567)
(-159039 -1596.97 -868.463)
(-159104 -1578.56 -907.754)
(-159132 -1556.23 -1038.12)
(-159130 -1537.36 -1245.49)
(-159086 -1519.45 -1510.26)
(-158987 -1505.81 -1817.32)
(-158810 -1492.59 -2152.26)
(-158537 -1484.87 -2481.6)
(-158168 -1481.4 -2766.76)
(-157730 -1488.16 -2946.45)
(-157276 -1506 -2991.93)
(-156854 -1535.36 -2890.31)
(-156495 -1576.23 -2661.1)
(-156216 -1630.8 -2333.99)
(-156020 -1699.02 -1945.03)
(-155895 -1778.59 -1526.85)
(-155821 -1870.74 -1107.47)
(-155781 -1975.39 -717.703)
(-155755 -2086.38 -384.288)
(-155719 -2201.13 -99.1108)
(-155650 -2325.83 155.417)
(-155547 -2459.25 371.71)
(-155398 -2597.24 550.046)
(-155181 -2736.91 695.06)
(-154875 -2873.99 806.322)
(-154464 -3003.66 888.116)
(-153927 -3122.85 942.613)
(-153243 -3226.19 968.146)
(-152383 -3312.96 963.863)
(-151314 -3386.79 925.759)
(-150003 -3455.96 842.008)
(-148391 -3521.94 688.788)
(-146321 -3604.61 439.382)
(-143170 -3758.97 0.298889)
(-137359 -3943.58 -878.314)
(-127842 -3722.47 -1444.91)
(-122779 -4079.39 -1440.13)
(-120962 -3834.02 -689.781)
(-135596 -13676.8 5591.17)
(42316.1 -6806.01 -19152.2)
(-159111 952.969 -20544.7)
(-160768 626.669 -15181.8)
(-160383 631.625 -13187.8)
(-160880 681.401 -10953.7)
(-160756 498.186 -8301.33)
(-159880 464.43 -6438.12)
(-159384 432.207 -5166.9)
(-158947 333.437 -4251.72)
(-158514 294.839 -3501.89)
(-158066 334.638 -2887.2)
(-157545 423.405 -2366.38)
(-157037 450.206 -1970.27)
(-156618 467.201 -1700.23)
(-156255 479.086 -1553.47)
(-155880 497.362 -1471.59)
(-155438 520.908 -1455.19)
(-154925 553.916 -1533.07)
(-154346 590.114 -1687.51)
(-153676 633.097 -1895.43)
(-152890 680.736 -2144.21)
(-151961 738.313 -2414.36)
(-150859 801.951 -2678.3)
(-149580 874.17 -2888.55)
(-148151 949.281 -2993.45)
(-146634 1025.89 -2954.31)
(-145103 1102.05 -2763.81)
(-143628 1175.57 -2439.67)
(-142263 1241.69 -2016.49)
(-141044 1297.82 -1533.44)
(-139986 1344.5 -1022.82)
(-139093 1379.15 -505.592)
(-138350 1400.62 -1.1799)
(-137744 1415.35 466.735)
(-137263 1426.31 894.295)
(-136892 1426.26 1288.85)
(-136620 1416.27 1655.96)
(-136437 1400.43 1998.8)
(-136326 1380.39 2319.42)
(-136275 1359.43 2619.2)
(-136278 1340.75 2899.33)
(-136340 1330.25 3176.81)
(-136446 1334.87 3468.18)
(-136579 1355.32 3763.98)
(-136742 1386.55 4053.58)
(-136967 1416.74 4317.77)
(-137327 1427.9 4524.15)
(-137766 1387.45 4606.46)
(-137656 1224.38 4416.6)
(-135233 944.872 3637.59)
(-129947 988.467 2183.01)
(-125661 391.236 139.873)
(-138905 -1457.67 -612.138)
(-125062 -19161.1 -19784.3)
(-17338.8 -8636.1 -13677.1)
(-156830 -667.161 -17393.4)
(-159151 -1026.39 -12773)
(-159318 -1319.68 -10841.5)
(-159946 -1268.05 -9034.01)
(-159979 -1168.7 -7249.22)
(-159842 -1008.91 -5788.68)
(-159607 -1004.8 -4556.23)
(-159447 -1081.18 -3540.3)
(-159419 -1137.28 -2753.98)
(-159312 -1093.74 -2138.66)
(-159074 -1045.64 -1557.78)
(-158911 -1032.9 -1181.65)
(-158859 -1024.29 -957.665)
(-158840 -1018.19 -852.01)
(-158820 -1013.79 -834.008)
(-158775 -1007.84 -914.169)
(-158693 -1001.02 -1092.64)
(-158571 -995.937 -1358.15)
(-158404 -990.308 -1684.5)
(-158182 -984.37 -2059.84)
(-157885 -974.526 -2457.58)
(-157489 -962.218 -2850.66)
(-156990 -943.181 -3166.93)
(-156443 -923.189 -3333.86)
(-155940 -897.006 -3293.06)
(-155570 -869.779 -3045.34)
(-155396 -842.767 -2627.65)
(-155438 -821.545 -2097.98)
(-155686 -809.781 -1511.65)
(-156107 -811.497 -906.925)
(-156674 -827.891 -312.469)
(-157363 -855.529 250.4)
(-158154 -889.87 781.243)
(-159016 -928.491 1285.39)
(-159938 -974.738 1762.34)
(-160929 -1029.99 2216.15)
(-161993 -1092.64 2659.77)
(-163141 -1160.32 3107.79)
(-164385 -1230.81 3569.42)
(-165735 -1300.67 4055.38)
(-167209 -1367.42 4576.25)
(-168827 -1431.39 5141.67)
(-170615 -1492.34 5753.66)
(-172599 -1547.81 6417.77)
(-174844 -1595.27 7142.5)
(-177498 -1635.56 7877.64)
(-180636 -1673.75 8520.61)
(-183895 -1711.65 8821.5)
(-185653 -1733.3 8165.47)
(-185547 -2103.15 5840.62)
(-180391 -2828.16 602.805)
(-189839 -6104.02 -4632.47)
(-129519 -11896.5 -55410)
(-47332.2 -7702.89 -33588.1)
(-153106 1603.88 -19235.2)
(-156098 1243.4 -14469.8)
(-156625 906.067 -12814.2)
(-157325 924.907 -11202.9)
(-157760 999.159 -9136.7)
(-158160 1135.58 -7505.37)
(-158588 1114.51 -6265.23)
(-158893 1008.92 -5197.08)
(-159125 922.518 -4351.9)
(-159261 936.763 -3677.3)
(-159372 957.73 -3115.17)
(-159542 945.173 -2715.12)
(-159770 929.592 -2455.01)
(-160015 912.646 -2305.32)
(-160244 895.087 -2243.49)
(-160440 879.942 -2278.53)
(-160599 866.226 -2416.95)
(-160720 850.974 -2641.47)
(-160797 836.154 -2932.1)
(-160820 821.44 -3273.71)
(-160769 810.454 -3648.18)
(-160613 802.1 -4022.13)
(-160340 801.582 -4333.01)
(-159980 805.007 -4501.47)
(-159591 819.865 -4472.17)
(-159236 843.402 -4240.5)
(-158957 875.936 -3838.53)
(-158772 912.839 -3316.6)
(-158679 950.156 -2729.29)
(-158666 983.19 -2121.43)
(-158720 1010.13 -1519.38)
(-158837 1033.45 -942.04)
(-159009 1056.88 -402.145)
(-159224 1083.08 98.5779)
(-159476 1108.67 562.991)
(-159768 1132.1 991.044)
(-160102 1155.16 1387.18)
(-160480 1180.96 1761.88)
(-160902 1212.6 2124.35)
(-161368 1254.03 2481.95)
(-161879 1308 2841.94)
(-162446 1376.22 3239.33)
(-163119 1459.03 3682.82)
(-163945 1559.05 4179.06)
(-165005 1677.56 4723.49)
(-166447 1813.11 5287.78)
(-168401 1954.88 5787.98)
(-170658 2081.49 5982.95)
(-172101 2189 5257.8)
(-172619 1900.14 2349.08)
(-176365 812.42 -4726.39)
(-202153 -4486.65 -18153.6)
(-224141 -13388.3 -54352.5)
(-150674 -11405.2 -24006.7)
(-154383 -562.1 -15956.6)
(-156428 -683.632 -12348)
(-156917 -980.432 -10801.7)
(-157469 -1114.65 -9072.56)
(-157255 -1032.43 -7643.54)
(-156949 -921.993 -6191.7)
(-156718 -980.835 -4919.03)
(-156656 -1062.45 -3925.42)
(-156730 -1077.76 -3169.46)
(-156606 -1019.11 -2507.23)
(-156325 -997.322 -1990.41)
(-156140 -1001.96 -1657.51)
(-156028 -1008.42 -1452.76)
(-155932 -1016.46 -1365.07)
(-155820 -1022.56 -1397.48)
(-155657 -1026.83 -1552.18)
(-155414 -1031.27 -1826.8)
(-155063 -1035.23 -2207.31)
(-154584 -1040.41 -2668.93)
(-153954 -1044.73 -3194.75)
(-153128 -1050.79 -3768.48)
(-152027 -1054.45 -4365.18)
(-150597 -1061.06 -4894.32)
(-148875 -1065.54 -5223.97)
(-147001 -1069.95 -5239.56)
(-145150 -1068.32 -4954.86)
(-143455 -1056.85 -4439.74)
(-141995 -1031.9 -3785.57)
(-140787 -995.319 -3075.29)
(-139819 -953.789 -2366.89)
(-139064 -907.041 -1689.99)
(-138479 -852.697 -1059.66)
(-138014 -796.017 -469.299)
(-137638 -739.108 91.6663)
(-137317 -681.42 630.822)
(-137027 -622.489 1162.92)
(-136751 -562.751 1702.47)
(-136466 -500.08 2264.3)
(-136156 -432.26 2861.58)
(-135811 -358.296 3510.49)
(-135423 -277.909 4227.31)
(-134978 -192.955 5029.94)
(-134472 -102.048 5938.67)
(-133915 -0.536207 6976.49)
(-133371 120.434 8162.74)
(-133012 276.701 9495.37)
(-133101 481.994 10913.8)
(-133716 729.739 12279.7)
(-134109 1050.66 13102.7)
(-135268 1482.88 12030.5)
(-145735 2312.88 6907.5)
(-180956 3035.67 -5954.65)
(-203640 -6881.21 -30385.1)
(-87779 2558.54 -11058.3)
(-149264 1940.78 -17105.6)
(-151439 1903.6 -13107.5)
(-151978 1625.52 -11295)
(-152096 1515.04 -9709.45)
(-151596 1628.43 -8249.47)
(-151400 1771.51 -6882.34)
(-151358 1738.56 -5684.69)
(-151269 1680.56 -4624.96)
(-151236 1692.6 -3701.73)
(-151113 1783.13 -2947.44)
(-150932 1837.36 -2370.11)
(-150814 1864.51 -1956.63)
(-150752 1889.97 -1667.99)
(-150710 1913.86 -1493.83)
(-150659 1939 -1434.03)
(-150574 1964.36 -1495.22)
(-150433 1986.64 -1674.75)
(-150219 2005.08 -1955.87)
(-149925 2016.41 -2316.58)
(-149547 2021.28 -2738.18)
(-149062 2015.48 -3207.58)
(-148426 2001.91 -3695.44)
(-147625 1974.57 -4116.76)
(-146741 1940.39 -4332.98)
(-145943 1902.05 -4248.31)
(-145400 1872.23 -3874.2)
(-145202 1860.72 -3285.46)
(-145361 1875.01 -2564.87)
(-145827 1914.6 -1791.39)
(-146513 1972.54 -1019.67)
(-147340 2048.61 -271.75)
(-148243 2144.34 439.768)
(-149170 2253.57 1121.13)
(-150085 2374.17 1781.99)
(-150971 2505.98 2430.99)
(-151818 2649.26 3094.35)
(-152671 2804.07 3789.26)
(-153534 2973.38 4525.06)
(-154410 3160.52 5312.2)
(-155299 3368.24 6166.26)
(-156202 3599.92 7113.1)
(-157121 3858.94 8184.97)
(-158058 4151.38 9402.99)
(-159035 4484.89 10791.9)
(-160128 4872.53 12381.4)
(-161497 5334.73 14197)
(-163340 5892.58 16224.3)
(-165634 6549.06 18300.1)
(-168044 7339.89 19916.6)
(-171306 8247 19950.1)
(-184815 9083.31 17694.6)
(-229005 9214.83 11571.3)
(-282958 -2800.4 -21504.2)
(-319561 -10118 -26205.9)
(-156228 -1070.34 -14901.5)
(-158276 -1049.58 -12211)
(-159145 -1169.27 -10644.7)
(-160098 -1304.37 -8737.68)
(-160331 -1232.95 -7294.86)
(-160372 -1222.67 -6056.9)
(-160602 -1369.74 -5031.96)
(-160968 -1470.71 -4276.6)
(-161283 -1462.26 -3578.67)
(-161431 -1435.72 -2864.79)
(-161535 -1439.4 -2356.84)
(-161692 -1459.13 -2023.9)
(-161882 -1479.92 -1825.57)
(-162082 -1500.69 -1760.8)
(-162269 -1516.64 -1833.42)
(-162411 -1527.45 -2048.53)
(-162477 -1532.01 -2407.79)
(-162438 -1528.93 -2899.5)
(-162281 -1517.38 -3504.62)
(-161999 -1494.31 -4198.61)
(-161556 -1457.08 -4979.74)
(-160847 -1401.07 -5830.74)
(-159756 -1326.5 -6651.51)
(-158301 -1234.86 -7183.57)
(-156691 -1142.48 -7218.84)
(-155163 -1056.06 -6791.86)
(-153836 -983.101 -6078.68)
(-152740 -919.496 -5238.8)
(-151842 -862.799 -4397.96)
(-151081 -812.537 -3637.24)
(-150406 -762.295 -2991.84)
(-149775 -706.697 -2464.48)
(-149147 -641.92 -2050.07)
(-148495 -567.128 -1734.39)
(-147802 -478.133 -1500.28)
(-147060 -369.381 -1328.38)
(-146260 -238.065 -1203.68)
(-145393 -83.3919 -1116.59)
(-144452 94.3312 -1054.63)
(-143423 295.924 -1010.98)
(-142293 524.984 -985.274)
(-141053 784.081 -973.344)
(-139708 1073.77 -966.778)
(-138268 1396.62 -947.34)
(-136796 1757.96 -878.196)
(-135479 2165.29 -695.734)
(-134617 2626.72 -312.094)
(-134486 3133.23 376.142)
(-134918 3698.47 1497.98)
(-137309 4475.04 3219.49)
(-151765 6464 5880.09)
(-207457 7898.81 6060.74)
(-256708 -1108.13 3847.63)
(-313422 -18582 -23160)
(-152603 1437.87 -15702.5)
(-154836 1657.2 -12661.3)
(-155694 1636.77 -10769.2)
(-156298 1604.48 -8786.61)
(-156163 1774.02 -7392.22)
(-156176 1877.95 -6362.52)
(-156250 1817.73 -5327.77)
(-156188 1801.82 -4454.55)
(-156102 1897.3 -3661.45)
(-155987 2011.17 -2956.05)
(-155864 2093.87 -2420.81)
(-155764 2159.87 -2038.26)
(-155678 2224.67 -1786.16)
(-155589 2289.05 -1663.91)
(-155464 2357.24 -1675.89)
(-155265 2428.71 -1827.83)
(-154946 2503.5 -2118.93)
(-154462 2581.7 -2538.98)
(-153779 2662.49 -3067.21)
(-152865 2746.84 -3683.9)
(-151655 2834.63 -4386.57)
(-150006 2926.95 -5168.19)
(-147750 3018.53 -5921.25)
(-144873 3102.39 -6387.54)
(-141595 3158.23 -6336.51)
(-138236 3181.16 -5799.85)
(-135037 3170.31 -4949)
(-132148 3138.01 -3948.52)
(-129637 3093.25 -2934.23)
(-127487 3039.97 -1993.72)
(-125665 2986.33 -1170.08)
(-124134 2937.3 -478.274)
(-122846 2894.54 82.9475)
(-121760 2854.78 521.127)
(-120842 2819.94 848.37)
(-119941 2801.95 1132.09)
(-118954 2798.1 1374.43)
(-117810 2805.47 1581.5)
(-116449 2821.32 1769.92)
(-114837 2843.77 1946.99)
(-112929 2874.25 2108.58)
(-110667 2916.23 2252.58)
(-107996 2971.74 2380.3)
(-104879 3042.45 2499.6)
(-101323 3131.6 2632.55)
(-97425.3 3243.89 2827.9)
(-93364.7 3390.38 3172.6)
(-89118.7 3561 3738)
(-84675.5 3743.74 4616.71)
(-81340 4243.04 6127.89)
(-88931.6 5748.31 8929.09)
(-120915 6554.21 11135.3)
(-145184 -1622.62 24693.4)
(-271310 -3977.36 49250.4)
(-154391 -972.2 -13624.2)
(-156111 -915.766 -11613.7)
(-156866 -1020.83 -10238.5)
(-158036 -1209.07 -8639.62)
(-158679 -1293.68 -7304.82)
(-159012 -1498.18 -6287.97)
(-159430 -1648.84 -5454.38)
(-159827 -1711.63 -4697.31)
(-160035 -1733.77 -3947.54)
(-160170 -1791.24 -3293.72)
(-160317 -1849.68 -2799.75)
(-160464 -1910.46 -2443.23)
(-160627 -1969.03 -2224.5)
(-160799 -2026.58 -2157.85)
(-160962 -2081.19 -2259.61)
(-161090 -2134.41 -2546.49)
(-161149 -2186.81 -3031.96)
(-161105 -2240.49 -3717.02)
(-160941 -2296.83 -4580.81)
(-160667 -2359.44 -5587.96)
(-160268 -2428.78 -6733.02)
(-159594 -2507.59 -8038.07)
(-158377 -2591.83 -9423.17)
(-156570 -2681.3 -10467.3)
(-154599 -2761.59 -10685.3)
(-152980 -2822.78 -10117.9)
(-151917 -2859.41 -9195.54)
(-151404 -2882.4 -8173.61)
(-151333 -2902.93 -7213.73)
(-151562 -2925.5 -6398.41)
(-151965 -2946.83 -5753.96)
(-152447 -2966.33 -5267.39)
(-152944 -2984.13 -4916.06)
(-153414 -3000.79 -4678.47)
(-153829 -3018.35 -4533.79)
(-154169 -3034.77 -4463.81)
(-154417 -3042.89 -4453.33)
(-154564 -3038.8 -4496.59)
(-154595 -3016.76 -4591.69)
(-154480 -2973.72 -4744.53)
(-154183 -2910.98 -4963.93)
(-153663 -2826.91 -5261.79)
(-152866 -2718.21 -5654.76)
(-151741 -2580.55 -6159.48)
(-150255 -2404.25 -6787.6)
(-148417 -2172.65 -7534.21)
(-146218 -1863.99 -8369.55)
(-143252 -1453.92 -9158.51)
(-138796 -858.126 -9516.38)
(-132589 577.42 -9272.15)
(-132551 3168.25 -6412.38)
(-145420 3540.65 907.479)
(-171477 568.903 39600.9)
(-95805.7 -1631.92 9473.81)
(-151659 953.134 -13762.1)
(-154294 1246.53 -11523.8)
(-155600 1291.39 -10090.9)
(-157196 1261.68 -8405.34)
(-158246 1330.86 -7217.87)
(-159034 1271.87 -6233.64)
(-159675 1261.52 -5180.64)
(-160291 1331.83 -4294.52)
(-160821 1435.33 -3529.19)
(-161302 1496.32 -2875.22)
(-161745 1549.88 -2351.95)
(-162172 1594.73 -1951.15)
(-162599 1636.52 -1682.46)
(-163028 1675.35 -1557.59)
(-163443 1714.79 -1593.79)
(-163827 1755.25 -1805.55)
(-164150 1798.51 -2204.85)
(-164385 1845.07 -2792.65)
(-164521 1896.53 -3548.74)
(-164574 1952.46 -4441.53)
(-164532 2015.8 -5463.95)
(-164249 2087.76 -6639.53)
(-163474 2177.19 -7882.06)
(-162155 2284.8 -8780.36)
(-160659 2409.87 -8864.63)
(-159403 2532.13 -8186.4)
(-158531 2633.76 -7163.92)
(-158055 2701.45 -6037.8)
(-157917 2727.51 -4968.66)
(-158022 2711.46 -4031.95)
(-158295 2659.75 -3254.56)
(-158686 2574.27 -2624.39)
(-159158 2456.44 -2119.58)
(-159700 2307.35 -1722.5)
(-160318 2134.5 -1434.84)
(-161097 1935.3 -1261.62)
(-162018 1715.69 -1183.48)
(-163087 1478.44 -1186.93)
(-164290 1227.8 -1269.78)
(-165581 965.4 -1443.45)
(-166921 695.67 -1723.59)
(-168270 422.646 -2130.86)
(-169572 151.206 -2692.14)
(-170752 -113.242 -3436.16)
(-171728 -361.007 -4391.73)
(-172396 -575.91 -5590.89)
(-172483 -731.845 -7053.36)
(-171201 -811.601 -8685.58)
(-167154 -652.268 -10115.4)
(-159770 122.654 -10895.3)
(-150777 1974.06 -12003.3)
(-139979 3055.67 -13492)
(-146134 1319.89 28177.6)
(-65859.7 -1541 9550.54)
(-149960 102.927 -11348)
(-151252 290.772 -9291.97)