/*--------------------------------*- C++ -*----------------------------------*\
| =========                 |                                                 |
| \\      /  F ield         | OpenFOAM: The Open Source CFD Toolbox           |
|  \\    /   O peration     | Version:  4.1                                   |
|   \\  /    A nd           | Web:      www.OpenFOAM.org                      |
|    \\/     M anipulation  |                                                 |
\*---------------------------------------------------------------------------*/
FoamFile
{
    version     2.0;
    format      ascii;
    class       volScalarField;
    location    "6";
    object      epsilon;
}
// * * * * * * * * * * * * * * * * * * * * * * * * * * * * * * * * * * * * * //

dimensions      [0 2 -3 0 0 0 0];

internalField   nonuniform List<scalar> 
4432
(
0.0003862
0.000428224
0.000485445
0.000540626
0.000588506
0.000651326
0.000688712
0.000735479
0.00077977
0.000806031
0.000870187
0.0008762
0.00101779
0.00105792
0.00110563
0.00113915
0.0011759
0.00120386
0.00122375
0.00108071
0.00127324
0.0011147
0.00132667
0.00122583
0.0011918
0.00126893
0.00123408
0.0017076
0.00198522
0.0020971
0.00194624
0.00183502
0.00174825
0.00167492
0.00147436
0.00155942
0.00133447
0.00117934
0.00106249
0.000986739
0.000882245
0.000749091
0.000646742
0.000359702
0.000139556
0.000109782
0.000143117
0.000426453
0.000515086
0.000559422
0.00122372
0.00173789
0.00201977
0.00437871
0.000385959
0.000427633
0.000482769
0.000535922
0.000591001
0.000617085
0.000704426
0.000729306
0.0007479
0.00083563
0.000898841
0.000934617
0.000972659
0.00100539
0.00104348
0.00106982
0.000965751
0.00111401
0.00113936
0.00103362
0.00118936
0.00106221
0.00122996
0.00114984
0.00112451
0.001171
0.00117146
0.00147302
0.00166114
0.00168918
0.00159142
0.00151423
0.00144848
0.0013889
0.00123728
0.00127528
0.00119814
0.0011175
0.00106471
0.000915313
0.000814017
0.000720609
0.000618487
0.000409979
0.000154119
0.000102007
0.000377
0.000446488
0.000473048
0.000524665
0.00114174
0.00161214
0.00202215
0.00452339
0.0573772
0.000505477
1.65745e-05
1.50383e-05
1.50477e-05
1.50589e-05
1.50149e-05
1.50306e-05
1.5069e-05
1.51143e-05
1.51113e-05
1.5164e-05
1.54174e-05
1.53161e-05
1.54773e-05
1.58042e-05
1.60556e-05
1.65238e-05
1.69263e-05
1.81357e-05
2.13487e-05
2.46785e-05
3.81822e-05
5.76813e-05
0.000121865
0.000306137
0.000484944
0.000653167
0.000683476
0.000510328
0.000585349
0.000778314
0.00101324
0.00120385
0.0010574
0.000981451
5.91886e-05
0.000259728
0.00016412
0.000183492
0.000205764
0.000214925
0.000253087
0.000294714
0.000324248
0.000642773
0.00122617
0.00262852
0.00505364
0.0104009
0.0234952
0.0456761
0.0806454
0.0449629
0.0573777
0.000497767
1.64625e-05
1.50262e-05
1.50213e-05
1.50343e-05
1.50452e-05
1.50036e-05
1.49648e-05
1.5082e-05
1.51179e-05
1.51199e-05
1.53363e-05
1.53454e-05
1.55183e-05
1.56501e-05
1.57695e-05
1.62402e-05
1.66261e-05
1.76491e-05
2.04723e-05
2.3777e-05
3.49317e-05
5.20969e-05
0.000108792
0.000271061
0.000451798
0.000585033
0.000597297
0.000455115
0.000558515
0.00075611
0.000987802
0.00114137
0.000912758
0.000810791
1.69015e-05
0.000233925
0.000175164
0.000185356
0.000188069
0.000204607
0.000276215
0.000297351
0.000325281
0.00068898
0.00132704
0.00248431
0.00492378
0.0100854
0.0161671
0.0377859
0.0761856
0.0460384
0.0573233
0.000332359
1.50436e-05
1.48807e-05
1.48872e-05
1.48847e-05
1.48846e-05
1.48954e-05
1.48952e-05
1.48978e-05
1.49184e-05
1.49015e-05
1.48932e-05
1.49005e-05
1.49069e-05
1.49014e-05
1.49013e-05
1.49324e-05
1.48962e-05
1.48956e-05
1.49167e-05
1.49168e-05
1.49353e-05
1.49135e-05
1.49287e-05
1.49996e-05
1.51041e-05
1.56785e-05
1.71224e-05
1.66042e-05
1.75777e-05
2.26884e-05
5.35867e-05
0.000150761
0.00012745
8.20503e-05
1.60632e-05
1.49412e-05
1.4613e-05
1.51566e-05
1.51393e-05
1.51719e-05
1.50711e-05
1.51112e-05
1.50956e-05
1.51905e-05
1.97835e-05
0.000103392
0.000315003
0.000526457
0.000836965
0.00142392
0.00294295
0.00405033
0.0573241
0.000332053
1.50415e-05
1.48793e-05
1.48859e-05
1.48845e-05
1.48842e-05
1.48961e-05
1.48959e-05
1.48984e-05
1.4919e-05
1.48996e-05
1.48912e-05
1.48985e-05
1.49048e-05
1.4899e-05
1.48982e-05
1.49289e-05
1.48934e-05
1.4892e-05
1.49132e-05
1.49124e-05
1.49288e-05
1.49069e-05
1.49197e-05
1.49818e-05
1.50836e-05
1.55863e-05
1.67134e-05
1.62101e-05
1.71623e-05
2.19416e-05
5.19621e-05
0.000143036
0.000110065
6.54429e-05
2.15845e-05
1.67275e-05
1.46126e-05
1.52061e-05
1.501e-05
1.50478e-05
1.50829e-05
1.51255e-05
1.51103e-05
1.54465e-05
2.45059e-05
0.0001096
0.000213585
0.000419116
0.000761991
0.00151814
0.00338839
0.0041134
0.0573233
0.000332346
1.50435e-05
1.48808e-05
1.48806e-05
1.48892e-05
1.48927e-05
1.49045e-05
1.49015e-05
1.49013e-05
1.4914e-05
1.49045e-05
1.48992e-05
1.49041e-05
1.49092e-05
1.49136e-05
1.49259e-05
1.49026e-05
1.48952e-05
1.49035e-05
1.491e-05
1.49044e-05
1.49039e-05
1.49247e-05
1.49198e-05
1.49151e-05
1.49274e-05
1.4926e-05
1.49268e-05
1.4962e-05
1.4975e-05
1.49584e-05
1.50277e-05
1.52809e-05
1.57769e-05
1.6202e-05
1.49946e-05
1.50184e-05
1.49636e-05
1.49769e-05
1.50404e-05
1.50107e-05
1.50119e-05
1.50589e-05
1.49932e-05
1.49568e-05
1.49412e-05
1.49544e-05
1.4964e-05
1.52535e-05
1.53837e-05
1.70652e-05
0.000160623
0.00137026
0.0573241
0.000332039
1.50416e-05
1.48793e-05
1.4879e-05
1.48894e-05
1.49022e-05
1.48989e-05
1.48986e-05
1.49186e-05
1.49058e-05
1.48913e-05
1.48959e-05
1.49047e-05
1.49254e-05
1.49056e-05
1.48982e-05
1.49041e-05
1.49083e-05
1.49315e-05
1.49014e-05
1.48944e-05
1.49136e-05
1.49099e-05
1.49159e-05
1.49063e-05
1.49249e-05
1.49206e-05
1.49114e-05
1.49409e-05
1.49597e-05
1.49581e-05
1.4953e-05
1.52754e-05
1.58061e-05
1.58905e-05
1.49843e-05
1.50187e-05
1.49569e-05
1.498e-05
1.50462e-05
1.50451e-05
1.50675e-05
1.5044e-05
1.50143e-05
1.49952e-05
1.49642e-05
1.49558e-05
1.50977e-05
1.55182e-05
1.56537e-05
1.7569e-05
0.000160047
0.00124242
0.0573225
0.000332346
1.50436e-05
1.48808e-05
1.48874e-05
1.48849e-05
1.48847e-05
1.48946e-05
1.49147e-05
1.49081e-05
1.4907e-05
1.49328e-05
1.49008e-05
1.4892e-05
1.49103e-05
1.49065e-05
1.49068e-05
1.49142e-05
1.4916e-05
1.49204e-05
1.49034e-05
1.4896e-05
1.49029e-05
1.49055e-05
1.49116e-05
1.49127e-05
1.49195e-05
1.49225e-05
1.49407e-05
1.49332e-05
1.49166e-05
1.49406e-05
1.49539e-05
1.49541e-05
1.49599e-05
1.49676e-05
1.4964e-05
1.4933e-05
1.4937e-05
1.49429e-05
1.49609e-05
1.49446e-05
1.49619e-05
1.50068e-05
1.49866e-05
1.49887e-05
1.4951e-05
1.49599e-05
1.50409e-05
1.50392e-05
1.50887e-05
1.50508e-05
1.54977e-05
1.93964e-05
0.0573234
0.000332026
1.50432e-05
1.48795e-05
1.48861e-05
1.48849e-05
1.48844e-05
1.48899e-05
1.48897e-05
1.48985e-05
1.4918e-05
1.49086e-05
1.49016e-05
1.49233e-05
1.4917e-05
1.49172e-05
1.49294e-05
1.48988e-05
1.48923e-05
1.49115e-05
1.49118e-05
1.4921e-05
1.49201e-05
1.49245e-05
1.49059e-05
1.48947e-05
1.49113e-05
1.49114e-05
1.49074e-05
1.49128e-05
1.4909e-05
1.49085e-05
1.49151e-05
1.49424e-05
1.49721e-05
1.49448e-05
1.49284e-05
1.49461e-05
1.49397e-05
1.49464e-05
1.49635e-05
1.49379e-05
1.49836e-05
1.50454e-05
1.4993e-05
1.5004e-05
1.49629e-05
1.50184e-05
1.50888e-05
1.50795e-05
1.50945e-05
1.51143e-05
1.57829e-05
3.37548e-05
0.0573215
0.000332319
1.5055e-05
1.49027e-05
1.49022e-05
1.49019e-05
1.49085e-05
1.49154e-05
1.49289e-05
1.4906e-05
1.49045e-05
1.49328e-05
1.49011e-05
1.48931e-05
1.4906e-05
1.4905e-05
1.49114e-05
1.49092e-05
1.4909e-05
1.49178e-05
1.49016e-05
1.48986e-05
1.49121e-05
1.49124e-05
1.49152e-05
1.49174e-05
1.49289e-05
1.49228e-05
1.49309e-05
1.49289e-05
1.49066e-05
1.49138e-05
1.49388e-05
1.49425e-05
1.49283e-05
1.49391e-05
1.49173e-05
1.4917e-05
1.49305e-05
1.49227e-05
1.49205e-05
1.49236e-05
1.49326e-05
1.49524e-05
1.49332e-05
1.494e-05
1.49225e-05
1.49627e-05
1.497e-05
1.4957e-05
1.50583e-05
1.4988e-05
1.53694e-05
3.57038e-05
0.0573224
0.000332009
1.5053e-05
1.49011e-05
1.48935e-05
1.48932e-05
1.48985e-05
1.49003e-05
1.49219e-05
1.49062e-05
1.49051e-05
1.49308e-05
1.49186e-05
1.49182e-05
1.4899e-05
1.48922e-05
1.48991e-05
1.4899e-05
1.49109e-05
1.49145e-05
1.48998e-05
1.48951e-05
1.49093e-05
1.49098e-05
1.49089e-05
1.49104e-05
1.49234e-05
1.49229e-05
1.49168e-05
1.49306e-05
1.49005e-05
1.49033e-05
1.49375e-05
1.49363e-05
1.49309e-05
1.49198e-05
1.49324e-05
1.49125e-05
1.4922e-05
1.49206e-05
1.49221e-05
1.49255e-05
1.49278e-05
1.49702e-05
1.49357e-05
1.49499e-05
1.49365e-05
1.49514e-05
1.49447e-05
1.49516e-05
1.50642e-05
1.51602e-05
1.54522e-05
3.70665e-05
0.0573203
0.000332325
1.50551e-05
1.49028e-05
1.49022e-05
1.49019e-05
1.49156e-05
1.49012e-05
1.49006e-05
1.49345e-05
1.49011e-05
1.49008e-05
1.49337e-05
1.49077e-05
1.49009e-05
1.49084e-05
1.49203e-05
1.49023e-05
1.48956e-05
1.49267e-05
1.49256e-05
1.49194e-05
1.49203e-05
1.49283e-05
1.49264e-05
1.49348e-05
1.4923e-05
1.49234e-05
1.49465e-05
1.49368e-05
1.49162e-05
1.49118e-05
1.49426e-05
1.49465e-05
1.49345e-05
1.49617e-05
1.49239e-05
1.49265e-05
1.49575e-05
1.49603e-05
1.49251e-05
1.4955e-05
1.49517e-05
1.49518e-05
1.49471e-05
1.49497e-05
1.49437e-05
1.49522e-05
1.49318e-05
1.49127e-05
1.50068e-05
1.50681e-05
1.51884e-05
1.96952e-05
0.0573212
0.000332017
1.50531e-05
1.49011e-05
1.48935e-05
1.48932e-05
1.49002e-05
1.49063e-05
1.4906e-05
1.49192e-05
1.48992e-05
1.48988e-05
1.49314e-05
1.49059e-05
1.48987e-05
1.49061e-05
1.49183e-05
1.48998e-05
1.48932e-05
1.49226e-05
1.49017e-05
1.49014e-05
1.49116e-05
1.49117e-05
1.49105e-05
1.49123e-05
1.4921e-05
1.49221e-05
1.49201e-05
1.492e-05
1.49115e-05
1.49337e-05
1.49212e-05
1.49365e-05
1.49111e-05
1.49508e-05
1.49223e-05
1.49235e-05
1.49653e-05
1.49573e-05
1.49178e-05
1.49534e-05
1.4935e-05
1.49399e-05
1.49458e-05
1.49362e-05
1.49388e-05
1.49645e-05
1.49412e-05
1.49342e-05
1.50108e-05
1.50919e-05
1.51871e-05
2.02803e-05
0.0573191
0.000332394
1.50437e-05
1.48877e-05
1.48875e-05
1.48874e-05
1.48875e-05
1.48942e-05
1.49214e-05
1.49017e-05
1.48936e-05
1.49137e-05
1.49139e-05
1.49329e-05
1.49012e-05
1.49011e-05
1.49384e-05
1.49351e-05
1.49046e-05
1.48972e-05
1.49182e-05
1.49146e-05
1.49134e-05
1.4919e-05
1.4912e-05
1.4911e-05
1.49209e-05
1.49394e-05
1.49277e-05
1.4928e-05
1.49448e-05
1.49263e-05
1.49101e-05
1.49183e-05
1.49465e-05
1.49281e-05
1.49436e-05
1.49252e-05
1.49392e-05
1.49285e-05
1.49275e-05
1.49713e-05
1.49776e-05
1.49888e-05
1.50113e-05
1.49477e-05
1.49356e-05
1.49621e-05
1.4937e-05
1.49039e-05
1.49808e-05
1.50729e-05
1.51435e-05
2.05188e-05
0.05732
0.000332082
1.50418e-05
1.48793e-05
1.4879e-05
1.48861e-05
1.48859e-05
1.48926e-05
1.49196e-05
1.48998e-05
1.48919e-05
1.49118e-05
1.49119e-05
1.49314e-05
1.48996e-05
1.4899e-05
1.49299e-05
1.49276e-05
1.48969e-05
1.48937e-05
1.49054e-05
1.49054e-05
1.49226e-05
1.49177e-05
1.49136e-05
1.49312e-05
1.49341e-05
1.49102e-05
1.49118e-05
1.49256e-05
1.49217e-05
1.49215e-05
1.49053e-05
1.49133e-05
1.49185e-05
1.49331e-05
1.49226e-05
1.4922e-05
1.49279e-05
1.49251e-05
1.49236e-05
1.4988e-05
1.49617e-05
1.49496e-05
1.4968e-05
1.49336e-05
1.49296e-05
1.49406e-05
1.49489e-05
1.49491e-05
1.49768e-05
1.50298e-05
1.5198e-05
2.02041e-05
0.0573179
0.000332398
1.50437e-05
1.48807e-05
1.48805e-05
1.48897e-05
1.4917e-05
1.49069e-05
1.49064e-05
1.49419e-05
1.49011e-05
1.49e-05
1.49333e-05
1.49015e-05
1.4898e-05
1.49056e-05
1.49143e-05
1.4909e-05
1.49074e-05
1.49104e-05
1.49088e-05
1.49243e-05
1.49249e-05
1.49445e-05
1.49087e-05
1.49025e-05
1.49197e-05
1.49215e-05
1.49329e-05
1.49339e-05
1.49405e-05
1.49182e-05
1.49002e-05
1.49085e-05
1.49281e-05
1.49219e-05
1.49315e-05
1.49269e-05
1.49331e-05
1.49368e-05
1.49667e-05
1.4971e-05
1.49826e-05
1.4989e-05
1.50148e-05
1.49591e-05
1.49723e-05
1.50047e-05
1.49797e-05
1.49176e-05
1.49894e-05
1.50816e-05
1.51566e-05
2.15369e-05
0.0573188
0.000332088
1.50418e-05
1.48792e-05
1.4879e-05
1.48928e-05
1.48997e-05
1.48997e-05
1.48996e-05
1.49195e-05
1.48993e-05
1.48983e-05
1.49313e-05
1.48994e-05
1.48964e-05
1.49034e-05
1.49119e-05
1.49064e-05
1.49041e-05
1.4931e-05
1.49257e-05
1.49324e-05
1.49091e-05
1.49073e-05
1.492e-05
1.49194e-05
1.49281e-05
1.48967e-05
1.48905e-05
1.49113e-05
1.49132e-05
1.49291e-05
1.49217e-05
1.49104e-05
1.4947e-05
1.49451e-05
1.49494e-05
1.49303e-05
1.49193e-05
1.49325e-05
1.49743e-05
1.49679e-05
1.49685e-05
1.49872e-05
1.49757e-05
1.49389e-05
1.49226e-05
1.49201e-05
1.49496e-05
1.49577e-05
1.4965e-05
1.49883e-05
1.51381e-05
2.15204e-05
0.0573166
0.000332429
1.50438e-05
1.48807e-05
1.48804e-05
1.48895e-05
1.49165e-05
1.49052e-05
1.49045e-05
1.494e-05
1.49384e-05
1.48992e-05
1.48938e-05
1.49266e-05
1.48958e-05
1.48958e-05
1.49142e-05
1.49149e-05
1.49322e-05
1.49027e-05
1.48961e-05
1.49195e-05
1.49194e-05
1.49347e-05
1.49091e-05
1.49056e-05
1.49256e-05
1.4912e-05
1.49146e-05
1.49286e-05
1.49324e-05
1.49157e-05
1.49125e-05
1.49487e-05
1.4955e-05
1.49501e-05
1.4934e-05
1.49617e-05
1.49587e-05
1.49658e-05
1.49587e-05
1.49437e-05
1.49399e-05
1.49768e-05
1.50211e-05
1.49744e-05
1.49796e-05
1.50294e-05
1.49956e-05
1.49499e-05
1.49967e-05
1.50484e-05
1.51148e-05
2.04204e-05
0.0573175
0.000332116
1.50419e-05
1.48791e-05
1.48789e-05
1.4888e-05
1.49149e-05
1.49053e-05
1.49047e-05
1.49387e-05
1.49378e-05
1.48984e-05
1.48921e-05
1.49247e-05
1.49059e-05
1.48991e-05
1.49051e-05
1.49189e-05
1.49112e-05
1.49057e-05
1.49108e-05
1.49161e-05
1.49123e-05
1.49164e-05
1.49035e-05
1.48976e-05
1.49292e-05
1.49176e-05
1.49131e-05
1.49145e-05
1.49404e-05
1.49076e-05
1.49154e-05
1.49163e-05
1.49257e-05
1.49282e-05
1.49348e-05
1.49597e-05
1.49556e-05
1.49497e-05
1.49441e-05
1.49657e-05
1.4976e-05
1.49714e-05
1.49789e-05
1.49684e-05
1.49517e-05
1.49537e-05
1.49896e-05
1.49977e-05
1.501e-05
1.50639e-05
1.51141e-05
2.13499e-05
0.0573155
0.000332432
1.50439e-05
1.48806e-05
1.48803e-05
1.48872e-05
1.48872e-05
1.4894e-05
1.49072e-05
1.49138e-05
1.4927e-05
1.4901e-05
1.48944e-05
1.49013e-05
1.49074e-05
1.49013e-05
1.48883e-05
1.48953e-05
1.48957e-05
1.49196e-05
1.48965e-05
1.48888e-05
1.48945e-05
1.48966e-05
1.4908e-05
1.49135e-05
1.49302e-05
1.49105e-05
1.49082e-05
1.49393e-05
1.49407e-05
1.49266e-05
1.49108e-05
1.49547e-05
1.49381e-05
1.49386e-05
1.49616e-05
1.49215e-05
1.49225e-05
1.49373e-05
1.49365e-05
1.49367e-05
1.49654e-05
1.49784e-05
1.49714e-05
1.49809e-05
1.49939e-05
1.49992e-05
1.50021e-05
1.50212e-05
1.50317e-05
1.51237e-05
1.50628e-05
1.51498e-05
0.0573164
0.000332122
1.50419e-05
1.4879e-05
1.48788e-05
1.48856e-05
1.48856e-05
1.48925e-05
1.49057e-05
1.49125e-05
1.49256e-05
1.48993e-05
1.48925e-05
1.48993e-05
1.49052e-05
1.48993e-05
1.48983e-05
1.49296e-05
1.49275e-05
1.48978e-05
1.48857e-05
1.48975e-05
1.48969e-05
1.49058e-05
1.49044e-05
1.49085e-05
1.49331e-05
1.49045e-05
1.49055e-05
1.49261e-05
1.49087e-05
1.49058e-05
1.49304e-05
1.49246e-05
1.49264e-05
1.49266e-05
1.49606e-05
1.49184e-05
1.49193e-05
1.49331e-05
1.49347e-05
1.49314e-05
1.494e-05
1.49542e-05
1.49948e-05
1.49721e-05
1.49549e-05
1.49928e-05
1.49979e-05
1.50332e-05
1.50158e-05
1.50462e-05
1.5019e-05
1.51459e-05
0.0573142
0.000332462
1.50508e-05
1.49012e-05
1.49008e-05
1.49213e-05
1.49067e-05
1.49061e-05
1.49406e-05
1.49074e-05
1.49004e-05
1.49337e-05
1.49017e-05
1.48938e-05
1.49013e-05
1.4908e-05
1.49008e-05
1.49e-05
1.49321e-05
1.49305e-05
1.49377e-05
1.49018e-05
1.48932e-05
1.49019e-05
1.49137e-05
1.49114e-05
1.49125e-05
1.49509e-05
1.49156e-05
1.49018e-05
1.49086e-05
1.49096e-05
1.4911e-05
1.49231e-05
1.49247e-05
1.49515e-05
1.49178e-05
1.48994e-05
1.49404e-05
1.49344e-05
1.49294e-05
1.49334e-05
1.49838e-05
1.49625e-05
1.49564e-05
1.50046e-05
1.50076e-05
1.50485e-05
1.50443e-05
1.5043e-05
1.50266e-05
1.50391e-05
1.50805e-05
1.51479e-05
0.0573152
0.00033215
1.50488e-05
1.48998e-05
1.48927e-05
1.48926e-05
1.48993e-05
1.48992e-05
1.49191e-05
1.4906e-05
1.4899e-05
1.49321e-05
1.48996e-05
1.48859e-05
1.48927e-05
1.49048e-05
1.4899e-05
1.48986e-05
1.49176e-05
1.49184e-05
1.49368e-05
1.49002e-05
1.48912e-05
1.49366e-05
1.49167e-05
1.49166e-05
1.49063e-05
1.48935e-05
1.49056e-05
1.49029e-05
1.49038e-05
1.49327e-05
1.49177e-05
1.49239e-05
1.49296e-05
1.49334e-05
1.49156e-05
1.48979e-05
1.4938e-05
1.49261e-05
1.49296e-05
1.4928e-05
1.49635e-05
1.49557e-05
1.49871e-05
1.49729e-05
1.49626e-05
1.50832e-05
1.49876e-05
1.49896e-05
1.50425e-05
1.50561e-05
1.50722e-05
1.5133e-05
0.0573134
0.000332149
1.50708e-05
1.491e-05
1.49094e-05
1.49161e-05
1.4916e-05
1.49284e-05
1.49196e-05
1.49196e-05
1.49397e-05
1.49006e-05
1.49004e-05
1.49334e-05
1.49015e-05
1.48976e-05
1.49102e-05
1.491e-05
1.49286e-05
1.49078e-05
1.48957e-05
1.4905e-05
1.49052e-05
1.49155e-05
1.49171e-05
1.49207e-05
1.49205e-05
1.49303e-05
1.49133e-05
1.49063e-05
1.49366e-05
1.49359e-05
1.49271e-05
1.49323e-05
1.49426e-05
1.49186e-05
1.49096e-05
1.49194e-05
1.49254e-05
1.49379e-05
1.49211e-05
1.49533e-05
1.49591e-05
1.50047e-05
1.49992e-05
1.50139e-05
1.50095e-05
1.50514e-05
1.50811e-05
1.50984e-05
1.50755e-05
1.50493e-05
1.51016e-05
1.51373e-05
0.0573143
0.00033184
1.50688e-05
1.49085e-05
1.49078e-05
1.49145e-05
1.49144e-05
1.49268e-05
1.49183e-05
1.49183e-05
1.49385e-05
1.48991e-05
1.48987e-05
1.49384e-05
1.49001e-05
1.4892e-05
1.49089e-05
1.49096e-05
1.49227e-05
1.49187e-05
1.49013e-05
1.49015e-05
1.48994e-05
1.49041e-05
1.49321e-05
1.49093e-05
1.48959e-05
1.49139e-05
1.49169e-05
1.4916e-05
1.49171e-05
1.49262e-05
1.49158e-05
1.49378e-05
1.49304e-05
1.49458e-05
1.49185e-05
1.49157e-05
1.4928e-05
1.49315e-05
1.49638e-05
1.49619e-05
1.49465e-05
1.49981e-05
1.4999e-05
1.50534e-05
1.50557e-05
1.50904e-05
1.50049e-05
1.4951e-05
1.50054e-05
1.50075e-05
1.5063e-05
1.51726e-05
0.0573138
0.000333345
1.50889e-05
1.48879e-05
1.48948e-05
1.49019e-05
1.49088e-05
1.49017e-05
1.4894e-05
1.49299e-05
1.49013e-05
1.48999e-05
1.49207e-05
1.49203e-05
1.49337e-05
1.49018e-05
1.48879e-05
1.48949e-05
1.48954e-05
1.49272e-05
1.49043e-05
1.48956e-05
1.49163e-05
1.50436e-05
1.49548e-05
1.4931e-05
1.49463e-05
1.49065e-05
1.48929e-05
1.49013e-05
1.491e-05
1.49178e-05
1.49268e-05
1.49166e-05
1.4917e-05
1.49169e-05
1.49366e-05
1.49206e-05
1.49153e-05
1.49258e-05
1.49514e-05
1.49447e-05
1.49406e-05
1.4984e-05
1.49587e-05
1.49779e-05
1.49975e-05
1.50638e-05
1.50425e-05
1.50545e-05
1.50876e-05
1.5111e-05
1.5142e-05
1.52141e-05
0.0573131
0.000331678
1.5059e-05
1.48934e-05
1.49001e-05
1.49e-05
1.49213e-05
1.49002e-05
1.48993e-05
1.49413e-05
1.48993e-05
1.48916e-05
1.48991e-05
1.49058e-05
1.48994e-05
1.48914e-05
1.49299e-05
1.48996e-05
1.48984e-05
1.49357e-05
1.49069e-05
1.49007e-05
1.49156e-05
1.50116e-05
1.50532e-05
1.49333e-05
1.4947e-05
1.49106e-05
1.49044e-05
1.49174e-05
1.49185e-05
1.49367e-05
1.49098e-05
1.48981e-05
1.49024e-05
1.49144e-05
1.49121e-05
1.49442e-05
1.49456e-05
1.49468e-05
1.49883e-05
1.49356e-05
1.49371e-05
1.49777e-05
1.49978e-05
1.50083e-05
1.50149e-05
1.50729e-05
1.50103e-05
1.50121e-05
1.50341e-05
1.50355e-05
1.50607e-05
1.51857e-05
0.0573116
0.000331955
1.50776e-05
1.49312e-05
1.49025e-05
1.49018e-05
1.49444e-05
1.49017e-05
1.48938e-05
1.49285e-05
1.49253e-05
1.49118e-05
1.49136e-05
1.49337e-05
1.49019e-05
1.48812e-05
1.48928e-05
1.48928e-05
1.48969e-05
1.49158e-05
1.49032e-05
1.48937e-05
1.49738e-05
1.5313e-05
3.7794e-05
1.49828e-05
1.48999e-05
1.48954e-05
1.49348e-05
1.49193e-05
1.49207e-05
1.49439e-05
1.49036e-05
1.48935e-05
1.49315e-05
1.49213e-05
1.49321e-05
1.493e-05
1.49246e-05
1.49268e-05
1.49713e-05
1.49788e-05
1.49718e-05
1.4963e-05
1.50003e-05
1.50338e-05
1.50238e-05
1.50239e-05
1.50569e-05
1.50856e-05
1.50779e-05
1.50872e-05
1.50729e-05
1.52036e-05
0.0572025
0.000333267
1.50886e-05
1.48866e-05
1.48938e-05
1.49284e-05
1.49002e-05
1.4898e-05
1.49175e-05
1.49059e-05
1.49058e-05
1.49184e-05
1.4912e-05
1.49184e-05
1.49313e-05
1.49245e-05
1.49302e-05
1.48994e-05
1.48983e-05
1.49358e-05
1.49003e-05
1.4887e-05
1.50466e-05
1.52743e-05
5.0916e-05
1.49315e-05
1.48954e-05
1.48988e-05
1.491e-05
1.49125e-05
1.49107e-05
1.49072e-05
1.49091e-05
1.49194e-05
1.4931e-05
1.49343e-05
1.49349e-05
1.49647e-05
1.49481e-05
1.49514e-05
1.49357e-05
1.49338e-05
1.49437e-05
1.49437e-05
1.49683e-05
1.49834e-05
1.50042e-05
1.50636e-05
1.50572e-05
1.50226e-05
1.50441e-05
1.51102e-05
1.51441e-05
1.52309e-05
0.0572212
0.000336288
1.50553e-05
1.48948e-05
1.48948e-05
1.4897e-05
1.49181e-05
1.49016e-05
1.49008e-05
1.4943e-05
1.49009e-05
1.49001e-05
1.49407e-05
1.49011e-05
1.49003e-05
1.49331e-05
1.49011e-05
1.48944e-05
1.49007e-05
1.48971e-05
1.49019e-05
1.49052e-05
1.49444e-05
3.93326e-05
0.00130841
1.50497e-05
1.48962e-05
1.49013e-05
1.49038e-05
1.49129e-05
1.49021e-05
1.4883e-05
1.48847e-05
1.48912e-05
1.49018e-05
1.49451e-05
1.49113e-05
1.49116e-05
1.49346e-05
1.49186e-05
1.49211e-05
1.49462e-05
1.50057e-05
1.50048e-05
1.50122e-05
1.49751e-05
1.49707e-05
1.50022e-05
1.50116e-05
1.51594e-05
1.51184e-05
1.51084e-05
1.5284e-05
0.0573337
0.000335421
1.50812e-05
1.49292e-05
1.49149e-05
1.49155e-05
1.49345e-05
1.48993e-05
1.48987e-05
1.49323e-05
1.49321e-05
1.48993e-05
1.48984e-05
1.49307e-05
1.49053e-05
1.49051e-05
1.49307e-05
1.48998e-05
1.48856e-05
1.48933e-05
1.489e-05
1.48966e-05
1.50424e-05
9.21916e-05
0.000704846
1.49073e-05
1.49171e-05
1.48985e-05
1.48943e-05
1.49005e-05
1.49014e-05
1.49181e-05
1.49271e-05
1.49283e-05
1.49427e-05
1.4936e-05
1.49366e-05
1.49632e-05
1.49331e-05
1.49277e-05
1.49693e-05
1.49661e-05
1.50054e-05
1.5e-05
1.50121e-05
1.50037e-05
1.50078e-05
1.50016e-05
1.50471e-05
1.51627e-05
1.50545e-05
1.50442e-05
1.52755e-05
0.0573118
0.000334309
1.50642e-05
1.49167e-05
1.49166e-05
1.49292e-05
1.49015e-05
1.48878e-05
1.49083e-05
1.4908e-05
1.49154e-05
1.49142e-05
1.49269e-05
1.49014e-05
1.48941e-05
1.49336e-05
1.49305e-05
1.48978e-05
1.4895e-05
1.48995e-05
1.49003e-05
1.49108e-05
1.49131e-05
1.49366e-05
1.51283e-05
1.4906e-05
1.48967e-05
1.49064e-05
1.49061e-05
1.4914e-05
1.49216e-05
1.49332e-05
1.49036e-05
1.48849e-05
1.48958e-05
1.49066e-05
1.49188e-05
1.4948e-05
1.49193e-05
1.49197e-05
1.49272e-05
1.49305e-05
1.50124e-05
1.49786e-05
1.49365e-05
1.49536e-05
1.49919e-05
1.50482e-05
1.49569e-05
1.49574e-05
1.50039e-05
1.49943e-05
1.50429e-05
1.51978e-05
0.0573126
0.000334011
1.50624e-05
1.49152e-05
1.49152e-05
1.49277e-05
1.49001e-05
1.48863e-05
1.49136e-05
1.49132e-05
1.49135e-05
1.49123e-05
1.49243e-05
1.48988e-05
1.48981e-05
1.49375e-05
1.48992e-05
1.48924e-05
1.49168e-05
1.49142e-05
1.49039e-05
1.49046e-05
1.49172e-05
1.50596e-05
1.5108e-05
1.49331e-05
1.49459e-05
1.49093e-05
1.48934e-05
1.4902e-05
1.4903e-05
1.49277e-05
1.49245e-05
1.49214e-05
1.49237e-05
1.4929e-05
1.49279e-05
1.49511e-05
1.4921e-05
1.49216e-05
1.49274e-05
1.49301e-05
1.50074e-05
1.50038e-05
1.49987e-05
1.5012e-05
1.50286e-05
1.50882e-05
1.49965e-05
1.49961e-05
1.51322e-05
1.5054e-05
1.50276e-05
1.5225e-05
0.0573091
0.000332232
1.50709e-05
1.49098e-05
1.49092e-05
1.49159e-05
1.49155e-05
1.49293e-05
1.4901e-05
1.48869e-05
1.49153e-05
1.49006e-05
1.49e-05
1.49267e-05
1.49012e-05
1.4887e-05
1.48999e-05
1.48994e-05
1.49241e-05
1.48988e-05
1.48985e-05
1.49239e-05
1.49069e-05
1.49068e-05
1.49139e-05
1.49347e-05
1.49027e-05
1.49024e-05
1.49308e-05
1.49136e-05
1.49082e-05
1.49229e-05
1.49169e-05
1.49196e-05
1.49408e-05
1.49309e-05
1.49303e-05
1.4926e-05
1.49335e-05
1.49787e-05
1.49494e-05
1.49428e-05
1.49311e-05
1.49626e-05
1.49598e-05
1.49633e-05
1.50101e-05
1.49971e-05
1.50484e-05
1.50077e-05
1.50019e-05
1.50417e-05
1.50355e-05
1.51938e-05
0.05731
0.000331934
1.50691e-05
1.49084e-05
1.49077e-05
1.49144e-05
1.4914e-05
1.49279e-05
1.48995e-05
1.48854e-05
1.49137e-05
1.49124e-05
1.49249e-05
1.4899e-05
1.48986e-05
1.49312e-05
1.49246e-05
1.49315e-05
1.49074e-05
1.49008e-05
1.49145e-05
1.49141e-05
1.49374e-05
1.49113e-05
1.49019e-05
1.49056e-05
1.49097e-05
1.4937e-05
1.48997e-05
1.49006e-05
1.49133e-05
1.4914e-05
1.49357e-05
1.49042e-05
1.49035e-05
1.49388e-05
1.49144e-05
1.49163e-05
1.49274e-05
1.49494e-05
1.49506e-05
1.49505e-05
1.49398e-05
1.49608e-05
1.49854e-05
1.497e-05
1.49808e-05
1.49928e-05
1.50491e-05
1.50029e-05
1.49971e-05
1.50383e-05
1.50327e-05
1.51819e-05
0.057309
0.000332502
1.50555e-05
1.49025e-05
1.48949e-05
1.48945e-05
1.4915e-05
1.48944e-05
1.48805e-05
1.48945e-05
1.48945e-05
1.48944e-05
1.48992e-05
1.49044e-05
1.49107e-05
1.49311e-05
1.49027e-05
1.49011e-05
1.49368e-05
1.48998e-05
1.48983e-05
1.49304e-05
1.49265e-05
1.49302e-05
1.49235e-05
1.49277e-05
1.49009e-05
1.49019e-05
1.49385e-05
1.48985e-05
1.48931e-05
1.49356e-05
1.49326e-05
1.49065e-05
1.49086e-05
1.4946e-05
1.49372e-05
1.49393e-05
1.49509e-05
1.49388e-05
1.49609e-05
1.50035e-05
1.50043e-05
1.50085e-05
1.50504e-05
1.49892e-05
1.49428e-05
1.4959e-05
1.5052e-05
1.49973e-05
1.50026e-05
1.51456e-05
1.51439e-05
1.52455e-05
0.0573097
0.000332214
1.50537e-05
1.49011e-05
1.48935e-05
1.48931e-05
1.49136e-05
1.48931e-05
1.4879e-05
1.48998e-05
1.48998e-05
1.48998e-05
1.49118e-05
1.48915e-05
1.48914e-05
1.4898e-05
1.49049e-05
1.48984e-05
1.48972e-05
1.49297e-05
1.49222e-05
1.49242e-05
1.4906e-05
1.48947e-05
1.48996e-05
1.48988e-05
1.49042e-05
1.49092e-05
1.49246e-05
1.49059e-05
1.49053e-05
1.4943e-05
1.49137e-05
1.49066e-05
1.49146e-05
1.49306e-05
1.49368e-05
1.49385e-05
1.49502e-05
1.49589e-05
1.4981e-05
1.49788e-05
1.49683e-05
1.4996e-05
1.50467e-05
1.49864e-05
1.49392e-05
1.49623e-05
1.50536e-05
1.50048e-05
1.50016e-05
1.51376e-05
1.51355e-05
1.52425e-05
0.057308
0.000332523
1.50554e-05
1.48954e-05
1.48943e-05
1.48939e-05
1.4896e-05
1.49238e-05
1.4902e-05
1.48876e-05
1.49082e-05
1.49069e-05
1.49001e-05
1.49e-05
1.49194e-05
1.48998e-05
1.48928e-05
1.48991e-05
1.48987e-05
1.49062e-05
1.49066e-05
1.4925e-05
1.48998e-05
1.48945e-05
1.49007e-05
1.49066e-05
1.49004e-05
1.48869e-05
1.49071e-05
1.49077e-05
1.49076e-05
1.49056e-05
1.49187e-05
1.49021e-05
1.49005e-05
1.49282e-05
1.4932e-05
1.49348e-05
1.49356e-05
1.49616e-05
1.49375e-05
1.49441e-05
1.49809e-05
1.4988e-05
1.50323e-05
1.49792e-05
1.49829e-05
1.49844e-05
1.50144e-05
1.50096e-05
1.50061e-05
1.51326e-05
1.51417e-05
1.52379e-05
0.0573088
0.000332232
1.50537e-05
1.4894e-05
1.48911e-05
1.48907e-05
1.48928e-05
1.49207e-05
1.49006e-05
1.48862e-05
1.49065e-05
1.48988e-05
1.48985e-05
1.49054e-05
1.49181e-05
1.4898e-05
1.48928e-05
1.48995e-05
1.49039e-05
1.4898e-05
1.48968e-05
1.49093e-05
1.49075e-05
1.49218e-05
1.48981e-05
1.48979e-05
1.4931e-05
1.49226e-05
1.48942e-05
1.48935e-05
1.49021e-05
1.49124e-05
1.49247e-05
1.49022e-05
1.49003e-05
1.4928e-05
1.49161e-05
1.49015e-05
1.49164e-05
1.496e-05
1.49403e-05
1.49432e-05
1.49813e-05
1.49819e-05
1.49882e-05
1.50011e-05
1.49782e-05
1.49701e-05
1.49812e-05
1.49795e-05
1.50865e-05
1.50988e-05
1.50897e-05
1.52572e-05
0.0573079
0.000332522
1.50623e-05
1.49022e-05
1.49017e-05
1.49056e-05
1.49066e-05
1.49303e-05
1.49355e-05
1.49008e-05
1.49011e-05
1.49202e-05
1.49201e-05
1.49344e-05
1.49297e-05
1.48966e-05
1.48916e-05
1.48981e-05
1.48978e-05
1.49149e-05
1.49033e-05
1.48981e-05
1.49058e-05
1.49217e-05
1.48996e-05
1.4892e-05
1.49185e-05
1.49036e-05
1.49043e-05
1.49255e-05
1.4919e-05
1.49198e-05
1.4917e-05
1.49174e-05
1.4938e-05
1.49151e-05
1.49166e-05
1.49278e-05
1.49293e-05
1.49397e-05
1.49408e-05
1.49696e-05
1.4973e-05
1.50137e-05
1.50205e-05
1.50489e-05
1.50115e-05
1.50047e-05
1.50724e-05
1.5019e-05
1.50344e-05
1.51215e-05
1.51122e-05
1.52011e-05
0.0573086
0.000332239
1.50605e-05
1.49009e-05
1.49003e-05
1.49044e-05
1.4904e-05
1.49208e-05
1.49249e-05
1.49108e-05
1.49122e-05
1.49178e-05
1.49185e-05
1.49325e-05
1.49053e-05
1.48978e-05
1.49159e-05
1.49158e-05
1.49233e-05
1.49039e-05
1.48881e-05
1.48933e-05
1.48939e-05
1.49159e-05
1.48981e-05
1.48842e-05
1.48992e-05
1.48986e-05
1.48974e-05
1.49133e-05
1.49141e-05
1.49137e-05
1.49159e-05
1.49138e-05
1.49342e-05
1.49148e-05
1.49172e-05
1.49417e-05
1.49349e-05
1.49547e-05
1.49556e-05
1.49632e-05
1.49769e-05
1.50031e-05
1.49985e-05
1.5051e-05
1.50118e-05
1.49498e-05
1.49838e-05
1.50125e-05
1.50656e-05
1.50559e-05
1.50542e-05
1.52243e-05
0.0573069
0.000332542
1.50622e-05
1.49021e-05
1.49016e-05
1.49041e-05
1.49055e-05
1.49306e-05
1.49355e-05
1.4894e-05
1.48941e-05
1.49271e-05
1.48998e-05
1.48998e-05
1.49328e-05
1.49047e-05
1.48972e-05
1.49204e-05
1.49195e-05
1.493e-05
1.48978e-05
1.48911e-05
1.4924e-05
1.491e-05
1.49105e-05
1.49017e-05
1.49024e-05
1.49308e-05
1.48986e-05
1.48991e-05
1.49381e-05
1.49257e-05
1.49271e-05
1.49168e-05
1.49167e-05
1.49586e-05
1.49162e-05
1.49231e-05
1.49344e-05
1.493e-05
1.49484e-05
1.49574e-05
1.49999e-05
1.49661e-05
1.49702e-05
1.50178e-05
1.50118e-05
1.50496e-05
1.49885e-05
1.49865e-05
1.50844e-05
1.5074e-05
1.5056e-05
1.51037e-05
0.0573077
0.000332257
1.50605e-05
1.49008e-05
1.49002e-05
1.49044e-05
1.49041e-05
1.49207e-05
1.49251e-05
1.49111e-05
1.49124e-05
1.49247e-05
1.48984e-05
1.48983e-05
1.49314e-05
1.49148e-05
1.48882e-05
1.48908e-05
1.48903e-05
1.49095e-05
1.48972e-05
1.48895e-05
1.49235e-05
1.4909e-05
1.49088e-05
1.49309e-05
1.49042e-05
1.49023e-05
1.49285e-05
1.49227e-05
1.49297e-05
1.49108e-05
1.4908e-05
1.49131e-05
1.49145e-05
1.49557e-05
1.49344e-05
1.49311e-05
1.49227e-05
1.49209e-05
1.49408e-05
1.49629e-05
1.50079e-05
1.49632e-05
1.49492e-05
1.50076e-05
1.50206e-05
1.50197e-05
1.49994e-05
1.50466e-05
1.50889e-05
1.51522e-05
1.51457e-05
1.51668e-05
0.0573068
0.000332538
1.50622e-05
1.49092e-05
1.49088e-05
1.49094e-05
1.49091e-05
1.49149e-05
1.49217e-05
1.49015e-05
1.48868e-05
1.4893e-05
1.48929e-05
1.49129e-05
1.48998e-05
1.48878e-05
1.4894e-05
1.48914e-05
1.48978e-05
1.49172e-05
1.48977e-05
1.48913e-05
1.4924e-05
1.49033e-05
1.49041e-05
1.49087e-05
1.49161e-05
1.48981e-05
1.48979e-05
1.49305e-05
1.49029e-05
1.49031e-05
1.4909e-05
1.49203e-05
1.49056e-05
1.49004e-05
1.49129e-05
1.49254e-05
1.49408e-05
1.49513e-05
1.49644e-05
1.49675e-05
1.50143e-05
1.49944e-05
1.50118e-05
1.50007e-05
1.50046e-05
1.50227e-05
1.49602e-05
1.49836e-05
1.5023e-05
1.50491e-05
1.50653e-05
1.50927e-05
0.0573074
0.000332262
1.50605e-05
1.49079e-05
1.49075e-05
1.49083e-05
1.4908e-05
1.49207e-05
1.49001e-05
1.48862e-05
1.48922e-05
1.48911e-05
1.48976e-05
1.49114e-05
1.48982e-05
1.48849e-05
1.48906e-05
1.48906e-05
1.48987e-05
1.49179e-05
1.4897e-05
1.48901e-05
1.49108e-05
1.49103e-05
1.49176e-05
1.49171e-05
1.49277e-05
1.48973e-05
1.4891e-05
1.49232e-05
1.49104e-05
1.4904e-05
1.49128e-05
1.49269e-05
1.49038e-05
1.49001e-05
1.49091e-05
1.49106e-05
1.49238e-05