/*--------------------------------*- C++ -*----------------------------------*\
| =========                 |                                                 |
| \\      /  F ield         | OpenFOAM: The Open Source CFD Toolbox           |
|  \\    /   O peration     | Version:  4.1                                   |
|   \\  /    A nd           | Web:      www.OpenFOAM.org                      |
|    \\/     M anipulation  |                                                 |
\*---------------------------------------------------------------------------*/
FoamFile
{
    version     2.0;
    format      ascii;
    class       volScalarField;
    location    "6";
    object      k;
}
// * * * * * * * * * * * * * * * * * * * * * * * * * * * * * * * * * * * * * //

dimensions      [0 2 -2 0 0 0 0];

internalField   nonuniform List<scalar> 
4432
(
0.387883
0.414335
0.44704
0.48294
0.511156
0.547955
0.574476
0.599293
0.626679
0.64524
0.666217
0.708055
0.733098
0.762319
0.78975
0.81155
0.836909
0.841568
0.910282
0.94427
1.00292
1.06285
1.19007
1.3797
1.32862
1.28848
1.25468
1.16932
1.26183
1.24444
1.13461
1.14806
1.1518
1.22776
1.3361
1.27298
0.946628
0.997047
0.907974
0.865435
0.782114
0.686752
0.576224
0.393352
0.385491
0.405133
0.339608
0.496818
0.387629
0.380144
0.593122
0.883629
1.30664
1.69814
0.388375
0.413618
0.446324
0.477562
0.513512
0.537912
0.57209
0.596088
0.62189
0.642559
0.679027
0.702909
0.724951
0.743973
0.755429
0.801852
0.820071
0.80704
0.862627
0.886627
0.927591
0.967259
1.0554
1.14909
1.08577
1.03962
0.93334
1.08519
1.09321
1.07048
0.997091
1.01757
1.03622
1.13426
1.2685
1.21244
0.899734
0.977094
0.881285
0.809109
0.742862
0.663333
0.559316
0.416499
0.384723
0.475054
0.466211
0.418428
0.377014
0.369644
0.571188
0.841271
1.25734
1.73488
0.00173052
3.06407e-05
0.000133351
0.000187192
0.000253171
0.000327243
0.000423344
0.000564583
0.000676356
0.000897691
0.00112753
0.00152337
0.00228347
0.00285283
0.00392354
0.00568256
0.00727985
0.0110002
0.0166391
0.0260095
0.0451351
0.0782909
0.128225
0.208834
0.218731
0.21286
0.270777
0.261857
0.252887
0.143476
0.207137
0.395381
0.793823
1.26089
1.16786
0.0304245
0.073885
0.0167804
0.00727083
0.00720731
0.00796169
0.00832922
0.0104353
0.0172214
0.0204912
0.043085
0.0391184
0.0063979
0.0333336
0.0649669
0.160893
0.463121
1.60883
1.09312
0.00173047
3.00888e-05
0.000123311
0.000172073
0.000229618
0.000291452
0.000390531
0.000486362
0.000619364
0.000803097
0.00116084
0.00146393
0.00201863
0.00245105
0.0032639
0.00500448
0.00643624
0.00930409
0.0152681
0.023669
0.0418253
0.0705559
0.117972
0.184404
0.191401
0.181645
0.215882
0.248492
0.210799
0.126713
0.206463
0.4245
0.892937
1.38408
1.06594
0.197462
0.0601746
0.0111741
0.00501192
0.00493815
0.00358548
0.00278317
0.00319553
0.00236354
0.00250754
0.00561683
0.0102665
0.0159698
0.0301198
0.0625279
0.14645
0.441672
1.56833
1.15357
0.00172598
1.52555e-05
5.76815e-07
3.88389e-07
3.94842e-07
3.96015e-07
4.03734e-07
4.11085e-07
4.2261e-07
4.41284e-07
4.73329e-07
5.27605e-07
6.275e-07
7.58139e-07
1.00812e-06
1.49921e-06
2.20381e-06
3.98875e-06
7.72074e-06
1.45932e-05
3.28782e-05
7.81802e-05
0.000184368
0.000406492
0.000639854
0.00114694
0.00282409
0.00753797
0.0171908
0.017005
0.0429972
0.0604799
0.0821239
0.0833593
0.0375919
0.00270702
0.000688346
8.02918e-05
2.95661e-05
2.07604e-05
1.27965e-05
9.39345e-06
3.24581e-06
2.93305e-06
3.32096e-06
3.25361e-05
0.000149791
0.000161036
0.000254236
0.000333569
0.00230236
0.00973108
0.0369763
0.0473822
0.001726
1.52456e-05
5.75288e-07
3.90693e-07
3.99253e-07
4.01122e-07
4.09892e-07
4.0762e-07
4.16009e-07
4.35444e-07
4.73835e-07
5.21945e-07
5.99204e-07
7.05518e-07
8.96778e-07
1.36982e-06
2.00569e-06
3.42114e-06
7.10137e-06
1.33498e-05
3.055e-05
7.03638e-05
0.000169011
0.000362671
0.00057392
0.000985199
0.00223457
0.00700497
0.0139943
0.0151318
0.0411548
0.0592093
0.0796452
0.076004
0.0248969
0.000600256
0.000106437
9.89442e-05
1.29183e-06
2.68472e-06
8.54708e-07
9.34029e-07
2.90758e-07
9.20963e-07
5.47182e-06
4.13316e-05
0.000176446
0.000381085
0.000552317
0.000577902
0.00256526
0.0104878
0.0440352
0.0482839
0.00172601
1.52554e-05
5.74361e-07
3.88612e-07
3.93635e-07
3.9154e-07
3.91297e-07
3.91452e-07
3.98461e-07
4.00531e-07
4.03753e-07
3.95484e-07
3.87227e-07
3.9269e-07
3.92443e-07
3.93652e-07
3.93424e-07
3.97278e-07
4.02732e-07
4.12526e-07
4.78908e-07
5.06241e-07
7.17129e-07
1.36321e-06
2.42504e-06
5.35266e-06
1.75496e-05
6.34468e-05
0.000196749
0.000166184
0.000370317
0.000752299
0.00203389
0.00358421
0.00219407
0.000188223
3.81572e-06
1.1706e-06
5.39669e-07
5.21044e-07
5.12588e-07
4.95677e-07
4.85106e-07
4.59697e-07
4.53867e-07
4.55792e-07
4.16936e-07
4.53663e-07
7.14258e-07
3.82025e-06
2.8481e-05
0.000168522
0.00137697
0.00746389
0.00172603
1.52455e-05
5.73162e-07
3.87792e-07
3.92744e-07
3.91659e-07
3.98317e-07
3.96182e-07
3.95727e-07
3.96751e-07
3.99937e-07
3.93756e-07
3.88882e-07
4.01203e-07
3.96904e-07
3.96466e-07
3.98638e-07
3.98752e-07
4.11078e-07
4.07713e-07
4.27318e-07
6.07554e-07
6.98163e-07
1.25985e-06
2.28557e-06
4.78026e-06
1.45044e-05
6.09652e-05
0.000163228
0.000140191
0.00035983
0.000595982
0.00143231
0.00321647
0.00115605
4.19411e-05
7.99921e-07
9.65389e-07
4.65022e-07
4.67756e-07
4.77269e-07
4.69852e-07
4.8298e-07
4.6927e-07
4.4493e-07
4.10234e-07
4.11579e-07
4.70614e-07
7.24354e-07
2.67698e-06
2.82211e-05
0.000282111
0.00158867
0.00788567
0.00172602
1.52558e-05
5.74407e-07
3.88621e-07
3.92603e-07
3.92446e-07
3.93437e-07
3.96678e-07
3.99198e-07
4.02486e-07
3.94845e-07
3.89926e-07
4.02126e-07
3.9924e-07
3.99057e-07
4.09163e-07
4.01264e-07
3.92558e-07
3.99346e-07
3.99809e-07
4.06193e-07
3.97562e-07
3.94804e-07
4.0647e-07
4.04563e-07
4.20955e-07
5.11805e-07
1.44859e-06
2.45836e-06
2.28566e-06
5.12175e-06
1.08075e-05
3.16373e-05
6.03261e-05
3.3399e-05
2.94147e-06
4.3764e-07
4.16538e-07
4.28524e-07
4.1077e-07
4.09463e-07
4.10739e-07
4.46648e-07
4.68295e-07
4.32508e-07
4.6018e-07
4.2169e-07
4.15396e-07
4.64054e-07
4.79539e-07
4.60223e-07
1.98656e-07
1.29928e-06
3.09555e-05
0.00172604
1.52455e-05
5.78067e-07
3.91404e-07
3.92829e-07
3.96323e-07
3.91822e-07
3.90806e-07
3.92874e-07
3.96176e-07
3.93673e-07
3.88856e-07
4.01306e-07
3.98422e-07
3.98171e-07
4.08148e-07
3.98699e-07
3.90074e-07
3.97816e-07
3.97581e-07
4.04457e-07
3.96219e-07
3.90609e-07
4.0213e-07
4.03392e-07
4.16472e-07
4.92862e-07
1.42781e-06
2.14442e-06
2.02119e-06
5.02442e-06
8.64637e-06
2.16799e-05
5.20959e-05
1.69203e-05
9.88268e-07
4.14015e-07
4.12903e-07
4.26426e-07
4.0985e-07
4.06591e-07
4.22114e-07
4.63219e-07
4.6425e-07
4.34542e-07
4.3611e-07
4.16289e-07
4.32216e-07
4.81379e-07
4.61469e-07
2.62677e-07
2.38263e-05
2.68263e-06
3.20844e-05
0.00172603
1.52549e-05
5.88422e-07
3.99349e-07
3.94858e-07
3.96972e-07
4.02085e-07
4.00899e-07
4.00849e-07
4.07757e-07
3.95164e-07
3.89986e-07
3.99861e-07
3.99831e-07
4.1003e-07
3.99115e-07
3.93908e-07
4.04158e-07
4.0446e-07
4.10169e-07
3.99661e-07
3.99321e-07
4.03472e-07
4.07198e-07
4.02308e-07
3.98925e-07
4.10015e-07
4.23042e-07
4.50743e-07
4.43236e-07
4.58638e-07
5.5868e-07
9.38055e-07
1.43306e-06
9.02677e-07
4.44231e-07
4.02611e-07
4.03235e-07
4.1703e-07
4.10003e-07
4.14325e-07
4.11845e-07
4.19721e-07
4.21046e-07
4.07941e-07
4.25055e-07
4.13911e-07
4.40596e-07
4.22389e-07
4.36985e-07
4.81965e-07
6.2658e-07
3.90889e-06
2.28229e-05
0.00172605
1.5245e-05
5.87163e-07
3.98153e-07
3.93767e-07
3.95574e-07
3.98877e-07
4.05482e-07
3.97518e-07
3.89695e-07
3.86667e-07
3.88828e-07
3.98755e-07
3.98692e-07
4.08951e-07
3.979e-07
3.92582e-07
4.05088e-07
4.05267e-07
4.0846e-07
3.97643e-07
3.97639e-07
4.02296e-07
4.05583e-07
3.99502e-07
3.93496e-07
4.05105e-07
4.17352e-07
4.42516e-07
4.40423e-07
4.56596e-07
5.24167e-07
1.10816e-06
1.29207e-06
6.45311e-07
4.14849e-07
3.99139e-07
4.00771e-07
4.14401e-07
4.0717e-07
4.12471e-07
4.24138e-07
4.19626e-07
4.26819e-07
4.44913e-07
4.35088e-07
4.17426e-07
4.27588e-07
4.29376e-07
4.27215e-07
4.41741e-07
6.60752e-07
4.34287e-06
2.36218e-05
0.00172604
1.52554e-05
5.88477e-07
3.99761e-07
3.95298e-07
3.97866e-07
4.06949e-07
3.95236e-07
3.90077e-07
4.03196e-07
3.99996e-07
3.97808e-07
3.9632e-07
3.97082e-07
4.02908e-07
4.04421e-07
4.03955e-07
4.01669e-07
4.01576e-07
4.0495e-07
4.07125e-07
4.09015e-07
4.12098e-07
4.17237e-07
4.03046e-07
3.93505e-07
3.98401e-07
3.96321e-07
4.02671e-07
4.03443e-07
4.03113e-07
4.07619e-07
4.23468e-07
4.26811e-07
4.36838e-07
4.20414e-07
4.06152e-07
4.11108e-07
4.23711e-07
4.24494e-07
4.39345e-07
4.24364e-07
4.11264e-07
4.03241e-07
4.17218e-07
4.08614e-07
4.07518e-07
4.22996e-07
4.11953e-07
4.10123e-07
4.5322e-07
5.02097e-07
8.06278e-07
3.79177e-06
0.00172606
1.52455e-05
5.87232e-07
3.98487e-07
3.9401e-07
3.96107e-07
4.05014e-07
3.94244e-07
3.8916e-07
4.01171e-07
3.96877e-07
3.95107e-07
3.99252e-07
3.99163e-07
3.99794e-07
4.03168e-07
4.02608e-07
4.00145e-07
4.00379e-07
4.06085e-07
3.94346e-07
3.93904e-07
3.9889e-07
4.01664e-07
4.01379e-07
3.97501e-07
4.00335e-07
3.96929e-07
4.05051e-07
4.02514e-07
3.9755e-07
4.01713e-07
4.32038e-07
4.14559e-07
4.20897e-07
4.15789e-07
4.06565e-07
4.07862e-07
4.19923e-07
4.21625e-07
4.3532e-07
4.26291e-07
4.04436e-07
3.98583e-07
4.42094e-07
4.22279e-07
3.93088e-07
4.07982e-07
4.27791e-07
4.16498e-07
4.61282e-07
5.29814e-07
8.70545e-07
4.56379e-06
0.00172605
1.5257e-05
5.74528e-07
3.8861e-07
3.92142e-07
3.91839e-07
3.92653e-07
3.92093e-07
3.94419e-07
4.01395e-07
3.94731e-07
3.93191e-07
4.07084e-07
3.97862e-07
3.97086e-07
4.04385e-07
3.98173e-07
3.96288e-07
3.99615e-07
4.07238e-07
4.00249e-07
3.99348e-07
4.09623e-07
4.10834e-07
4.1398e-07
4.12895e-07
4.13794e-07
4.11629e-07
4.177e-07
4.18347e-07
4.19298e-07
4.19429e-07
4.24841e-07
4.16955e-07
4.06719e-07
4.06698e-07
4.04585e-07
4.13067e-07
4.16149e-07
4.21907e-07
4.1874e-07
4.36808e-07
4.37122e-07
4.12723e-07
4.38262e-07
4.15932e-07
3.98877e-07
3.94594e-07
4.04637e-07
4.09245e-07
4.4517e-07
4.74345e-07
9.04652e-07
4.39266e-06
0.00172607
1.52471e-05
5.73337e-07
3.8781e-07
3.88914e-07
3.92275e-07
3.91704e-07
3.90807e-07
3.92803e-07
3.96177e-07
3.93634e-07
3.9222e-07
4.02903e-07
4.03065e-07
4.01308e-07
4.00348e-07
3.98956e-07
3.98152e-07
4.01911e-07
4.04962e-07
3.97847e-07
3.97354e-07
4.04491e-07
4.06113e-07
4.12753e-07
4.1379e-07
4.15536e-07
4.06514e-07
4.03431e-07
4.16426e-07
4.00899e-07
4.00172e-07
4.24037e-07
4.07509e-07
4.03934e-07
4.04359e-07
4.02961e-07
4.1203e-07
4.14348e-07
4.20013e-07
4.17069e-07
4.30532e-07
4.3769e-07
4.16876e-07
4.63492e-07
4.11474e-07
3.8862e-07
4.05417e-07
4.25139e-07
4.25668e-07
4.60773e-07
4.9907e-07
8.584e-07
4.17024e-06
0.00172606
1.52574e-05
5.74556e-07
3.88605e-07
3.92621e-07
3.92314e-07
3.92778e-07
3.9229e-07
3.94818e-07
4.01764e-07
3.94879e-07
3.89829e-07
3.96689e-07
3.95402e-07
3.9869e-07
3.99808e-07
4.06752e-07
3.98791e-07
3.94355e-07
3.98355e-07
4.05286e-07
4.00629e-07
3.9914e-07
4.13205e-07
4.11897e-07
4.12979e-07
4.1282e-07
4.17116e-07
4.05745e-07
4.08742e-07
4.19714e-07
4.07718e-07
4.03653e-07
4.10859e-07
4.02543e-07
4.02459e-07
4.2076e-07
4.1694e-07
4.0772e-07
4.23148e-07
4.19714e-07
4.4e-07
4.36193e-07
4.24295e-07
4.61097e-07
4.29714e-07
4.1296e-07
4.09081e-07
4.13224e-07
4.16473e-07
4.36025e-07
4.64648e-07
9.39444e-07
4.32355e-06
0.00172608
1.52475e-05
5.73387e-07
3.87817e-07
3.88189e-07
3.87956e-07
3.949e-07
3.95531e-07
3.94189e-07
3.99748e-07
3.93811e-07
3.8895e-07
3.95749e-07
3.94792e-07
3.98122e-07
3.98628e-07
4.05427e-07
3.97098e-07
3.96505e-07
4.12085e-07
3.97919e-07
3.97219e-07
4.15554e-07
4.00972e-07
4.00162e-07
4.14158e-07
4.00016e-07
3.95402e-07
3.99744e-07
4.0082e-07
4.03433e-07
4.03002e-07
4.04823e-07
4.22297e-07
4.00933e-07
3.99991e-07
4.12696e-07
4.16018e-07
4.07711e-07
4.20689e-07
4.15673e-07
4.28643e-07
4.30643e-07
4.22834e-07
4.48557e-07
4.15491e-07
3.96827e-07
4.13796e-07
4.19876e-07
4.28011e-07
4.51069e-07
4.934e-07
9.67678e-07
4.61417e-06
0.00172607
1.52579e-05
5.74632e-07
3.88632e-07
3.93546e-07
3.90225e-07
3.90022e-07
3.86691e-07
3.8252e-07
3.85448e-07
3.87616e-07
3.87441e-07
3.89711e-07
3.92145e-07
3.95416e-07
3.97869e-07
4.00818e-07
4.1053e-07
3.98924e-07
3.97187e-07
4.10931e-07
4.11782e-07
4.0665e-07
4.07395e-07
4.14201e-07
4.12813e-07
4.15934e-07
4.05547e-07
4.00153e-07
4.04706e-07
4.12596e-07
4.03203e-07
3.99039e-07
4.03276e-07
4.04666e-07
4.15291e-07
4.09226e-07
4.34158e-07
4.19872e-07
4.19667e-07
4.25522e-07
4.24475e-07
4.23884e-07
4.20829e-07
4.60512e-07
4.36966e-07
4.15857e-07
4.21535e-07
4.45747e-07
4.3675e-07
4.48199e-07
4.72013e-07
7.1653e-07
2.78189e-06
0.00172608
1.5248e-05
5.73569e-07
3.84422e-07
3.85863e-07
3.88918e-07
3.8765e-07
3.87167e-07
3.91841e-07
3.91558e-07
3.92338e-07
3.92159e-07
3.98434e-07
3.9761e-07
3.96814e-07
3.98098e-07
3.9826e-07
4.08114e-07
3.97991e-07
3.9646e-07
4.07167e-07
4.07567e-07
4.05621e-07
4.03541e-07
4.07481e-07
4.09301e-07
4.12825e-07
4.12668e-07
4.15972e-07
4.18227e-07
4.18573e-07
4.01676e-07
3.97278e-07
4.10088e-07
4.03315e-07
4.12356e-07
4.09616e-07
4.32148e-07
4.18404e-07
4.18066e-07
4.23062e-07
4.10875e-07
4.15481e-07
4.19051e-07
4.26907e-07
4.18416e-07
4.07761e-07
4.41867e-07
4.4105e-07
4.50785e-07
4.48766e-07
5.04185e-07
7.84358e-07
3.33667e-06
0.00172606
1.52582e-05
5.7481e-07
3.85182e-07
3.86654e-07
3.89772e-07
3.86937e-07
3.84661e-07
3.91277e-07
3.8961e-07
3.89469e-07
3.91283e-07
4.05275e-07
4.03078e-07
3.94628e-07
3.96971e-07
3.96671e-07
4.00858e-07
4.00982e-07
4.10908e-07
3.99256e-07
3.97661e-07
4.10766e-07
4.10172e-07
4.09878e-07
4.08571e-07
4.13838e-07
4.01279e-07
4.03197e-07
4.09132e-07
4.07084e-07
4.10095e-07
4.1041e-07
4.15091e-07
4.13668e-07
4.13799e-07
4.04003e-07
4.21218e-07
4.19394e-07
4.22119e-07
4.34949e-07
4.26947e-07
4.29395e-07
4.33053e-07
4.39024e-07
4.65268e-07
4.39756e-07
4.26481e-07
4.47733e-07
4.4477e-07
4.81341e-07
4.79896e-07
4.3507e-07
6.37998e-07
0.00172608
1.52484e-05
5.73584e-07
3.84392e-07
3.85842e-07
3.889e-07
3.88732e-07
3.8827e-07
3.94162e-07
3.9359e-07
3.92438e-07
3.93716e-07
4.06424e-07
4.01748e-07
3.9354e-07
3.98782e-07
3.98809e-07
3.96309e-07
3.95995e-07
4.09071e-07
3.98321e-07
3.9685e-07
4.09543e-07
4.07459e-07
4.14076e-07
4.10973e-07
4.11532e-07
4.03241e-07
4.03061e-07
4.18339e-07
4.01665e-07
4.01867e-07
4.09161e-07
4.10105e-07
4.15789e-07
4.11847e-07
4.05111e-07
4.20764e-07
4.17549e-07
4.20122e-07
4.31622e-07
4.25707e-07
4.30807e-07
4.32175e-07
4.2493e-07
4.47384e-07
4.35066e-07
4.45035e-07
4.49287e-07
4.59245e-07
4.40509e-07
4.44621e-07
4.72373e-07
7.01816e-07
0.00172607
1.52587e-05
5.74838e-07
3.81827e-07
3.82961e-07
3.86366e-07
3.89433e-07
3.91556e-07
3.91487e-07
3.89568e-07
3.89428e-07
3.91208e-07
4.05267e-07
3.98527e-07
3.97001e-07
4.14314e-07
3.95477e-07
3.93247e-07
3.97634e-07
4.00529e-07
3.98314e-07
3.9346e-07
4.05569e-07
4.05793e-07
4.16846e-07
4.04677e-07
4.03441e-07
4.19597e-07
4.20201e-07
4.0571e-07
3.95709e-07
4.09744e-07
4.11049e-07
4.10029e-07
4.11456e-07
4.27286e-07
4.11063e-07
4.01908e-07
4.05551e-07
4.08802e-07
4.25685e-07
4.30048e-07
4.33341e-07
4.4478e-07
4.40378e-07
4.42145e-07
4.58966e-07
4.35905e-07
4.39646e-07
4.41673e-07
4.56488e-07
4.72205e-07
4.68975e-07
5.08683e-07
0.00172608
1.52488e-05
5.73564e-07
3.84395e-07
3.85849e-07
3.88929e-07
3.88615e-07
3.88147e-07
3.93879e-07
3.93184e-07
3.94787e-07
3.94124e-07
3.97422e-07
4.09802e-07
3.98605e-07
3.89997e-07
3.95257e-07
3.95157e-07
3.98657e-07
3.98871e-07
3.99848e-07
3.99248e-07
4.02231e-07
4.12624e-07
4.01462e-07
4.01053e-07
4.17597e-07
4.17829e-07
4.21912e-07
4.04951e-07
3.93617e-07
4.04302e-07
4.04079e-07
4.07296e-07
4.0923e-07
4.27664e-07
4.11338e-07
4.0048e-07
4.03522e-07
4.05495e-07
4.33871e-07
4.29682e-07
4.33476e-07
4.53486e-07
4.38458e-07
4.51578e-07
4.44793e-07
4.4093e-07
4.49717e-07
4.63667e-07
4.68971e-07
4.63801e-07
4.47972e-07
4.87438e-07
0.00172606
1.5256e-05
5.9364e-07
4.04269e-07
4.01434e-07
4.04999e-07
4.12234e-07
4.00374e-07
3.84275e-07
3.89632e-07
3.89506e-07
3.89337e-07
3.89596e-07
3.92029e-07
3.95099e-07
3.96624e-07
3.97252e-07
4.00131e-07
4.07878e-07
3.97129e-07
3.94256e-07
3.97642e-07
4.02336e-07
4.01569e-07
4.02106e-07
4.2358e-07
4.04748e-07
4.03214e-07
4.22711e-07
4.0538e-07
3.92783e-07
4.03439e-07
4.05026e-07
4.04637e-07
4.03491e-07
4.02671e-07
4.0481e-07
4.08229e-07
4.14874e-07
4.22645e-07
4.21594e-07
4.28581e-07
4.26104e-07
4.29295e-07
4.18247e-07
4.29466e-07
4.51162e-07
4.64376e-07
4.72182e-07
4.48074e-07
4.65464e-07
4.90204e-07
4.84677e-07
5.25473e-07
0.00172608
1.5246e-05
5.92417e-07
4.03433e-07
4.00592e-07
4.04139e-07
4.11316e-07
3.98763e-07
3.85982e-07
3.92158e-07
3.9172e-07
3.94886e-07
3.94576e-07
3.97854e-07
4.09632e-07
3.98028e-07
3.92264e-07
4.05123e-07
4.05264e-07
4.08846e-07
3.97405e-07
3.93748e-07
3.94985e-07
3.96449e-07
4.11869e-07
4.02348e-07
3.97617e-07
4.01625e-07
3.98472e-07
4.0313e-07
4.0013e-07
4.02381e-07
4.00746e-07
4.04049e-07
4.01238e-07
3.98753e-07
4.04244e-07
4.27944e-07
4.16451e-07
4.03543e-07
4.50378e-07
4.28309e-07
4.15189e-07
4.27934e-07
4.25086e-07
4.50302e-07
4.50411e-07
4.84584e-07
4.683e-07
4.46047e-07
4.70885e-07
4.6112e-07
4.61119e-07
5.00967e-07
0.001726
1.53117e-05
5.85021e-07
3.95689e-07
4.04546e-07
4.04478e-07
4.11344e-07
3.99006e-07
3.96979e-07
4.18691e-07
3.9941e-07
3.93274e-07
4.06933e-07
4.06968e-07
4.07148e-07
4.07069e-07
4.05376e-07
4.05896e-07
4.01314e-07
4.01199e-07
4.14254e-07
4.00203e-07
3.93653e-07
4.44264e-07
4.30528e-07
4.21067e-07
3.81639e-07
4.07463e-07
4.00095e-07
3.99768e-07
4.01479e-07
4.07537e-07
4.10661e-07
4.23926e-07
4.0838e-07
3.93242e-07
4.02168e-07
3.98441e-07
4.09219e-07
4.15703e-07
4.22837e-07
4.26987e-07
4.22126e-07
4.2597e-07
4.23654e-07
4.37967e-07
4.65527e-07
4.74466e-07
4.57686e-07
4.71226e-07
4.60864e-07
4.57321e-07
4.51358e-07
5.26954e-07
0.00172607
1.52469e-05
5.87376e-07
3.98221e-07
3.91965e-07
3.94972e-07
4.09309e-07
3.98112e-07
3.96085e-07
4.14168e-07
3.94421e-07
3.9214e-07
3.96173e-07
3.99297e-07
3.98076e-07
3.93057e-07
4.05345e-07
4.05558e-07
4.08691e-07
3.97773e-07
3.95935e-07
4.09242e-07
4.04657e-07
4.4422e-07
4.59101e-07
3.96111e-07
3.78163e-07
4.06462e-07
3.95714e-07
4.09357e-07
4.09757e-07
4.07539e-07
4.08226e-07
4.21535e-07
4.05867e-07
3.96005e-07
4.03955e-07
4.09649e-07
4.0583e-07
4.03456e-07
4.26824e-07
4.18479e-07
4.12635e-07
4.24605e-07
4.38806e-07
4.52071e-07
4.54736e-07
4.77501e-07
4.49546e-07
4.38447e-07
4.38029e-07
4.39021e-07
4.60056e-07
5.15915e-07
0.00172604
1.52557e-05
5.93577e-07
4.04194e-07
4.01385e-07
4.04957e-07
4.12143e-07
3.99331e-07
3.93486e-07
4.07537e-07
4.07571e-07
4.07711e-07
4.07328e-07
4.07261e-07
4.11254e-07
3.99488e-07
3.87299e-07
3.93313e-07
3.92659e-07
3.95441e-07
3.95163e-07
3.95957e-07
3.99902e-07
4.41378e-07
0.00192933
4.10158e-05
1.58341e-05
5.14205e-07
4.06829e-07
3.99418e-07
3.98435e-07
4.00813e-07
4.12794e-07
4.03072e-07
3.9589e-07
4.02915e-07
4.00741e-07
4.019e-07
4.21606e-07
4.11681e-07
4.10967e-07
4.34506e-07
4.28643e-07
4.39824e-07
4.43894e-07
4.40104e-07
4.65079e-07
4.80484e-07
4.67454e-07
4.79556e-07
4.81808e-07
4.50503e-07
4.67108e-07
5.74193e-07
0.00172988
1.53756e-05
5.90225e-07
3.99102e-07
4.07712e-07
3.98166e-07
3.963e-07
4.14788e-07
3.97834e-07
3.96177e-07
4.1026e-07
3.93998e-07
3.92144e-07
4.02571e-07
3.99658e-07
4.03038e-07
4.06012e-07
3.99735e-07
3.9858e-07
4.08948e-07
4.00221e-07
3.97609e-07
4.48017e-07
4.43047e-07
0.0025369
3.49368e-05
1.08534e-05
4.60702e-07
3.93351e-07
4.00442e-07
4.01096e-07
4.06791e-07
4.06535e-07
4.07326e-07
4.18588e-07
4.03637e-07
3.99096e-07
4.17192e-07
4.13701e-07
4.1194e-07
4.09751e-07
4.23082e-07
4.28211e-07
4.53052e-07
4.50141e-07
4.35437e-07
4.33296e-07
4.34541e-07
4.76302e-07
4.71889e-07
5.39101e-07
5.00463e-07
4.69054e-07
6.03765e-07
0.00172945
1.54374e-05
5.83798e-07
3.9222e-07
4.00777e-07
4.00869e-07
4.11581e-07
3.98937e-07
3.96855e-07
4.15071e-07
3.9532e-07
3.93058e-07
4.06954e-07
4.07045e-07
4.07232e-07
4.06608e-07
4.06552e-07
4.10798e-07
3.98783e-07
3.93636e-07
4.07348e-07
4.00152e-07
4.43039e-07
0.000112486
0.0439603
0.000134445
1.10543e-06
3.98182e-07
3.95084e-07
3.98735e-07
4.10076e-07
3.98421e-07
3.97735e-07
4.09283e-07
4.10087e-07
4.29519e-07
4.05784e-07
4.05841e-07
4.11625e-07
4.10301e-07
4.20952e-07
4.20554e-07
4.38331e-07
4.44405e-07
4.44769e-07
4.46002e-07
4.87785e-07
4.74407e-07
4.48169e-07
4.73372e-07
5.16654e-07
5.19327e-07
5.39269e-07
0.00172558
1.535e-05
6.02071e-07
3.96564e-07
4.0048e-07
4.15489e-07
3.99246e-07
3.85988e-07
3.92331e-07
3.91854e-07
3.92176e-07
3.99336e-07
3.93592e-07
3.92143e-07
4.02438e-07
4.02302e-07
4.02578e-07
4.06148e-07
3.97379e-07
3.95644e-07
4.12401e-07
4.08902e-07
4.80674e-07
0.00334365
0.0454964
2.19199e-05
4.6899e-07
3.90086e-07
3.9155e-07
3.95167e-07
3.95967e-07
3.96429e-07
4.03077e-07
4.07585e-07
4.03359e-07
4.03764e-07
4.10439e-07
4.1817e-07
4.13097e-07
4.24727e-07
4.33061e-07
4.48437e-07
4.33564e-07
4.10519e-07
4.17151e-07
4.21437e-07
4.30337e-07
4.39283e-07
4.60887e-07
4.92825e-07
5.03761e-07
5.02229e-07
5.5278e-07
0.00172596
1.53128e-05
5.91381e-07
3.9965e-07
4.08769e-07
3.95267e-07
3.93388e-07
4.0789e-07
4.05461e-07
4.05241e-07
4.11313e-07
3.98609e-07
3.96547e-07
4.10963e-07
4.0921e-07
4.09385e-07
4.07931e-07
4.14911e-07
4.17397e-07
3.98483e-07
3.97364e-07
4.13596e-07
4.03546e-07
5.06128e-07
5.52821e-06
6.36981e-06
1.19749e-06
4.12799e-07
3.97e-07
4.01487e-07
4.01696e-07
4.03143e-07
4.02847e-07
4.03297e-07
4.12543e-07
4.15976e-07
4.16598e-07
4.28199e-07
4.08869e-07
4.08947e-07
4.32635e-07
4.28538e-07
4.28795e-07
4.33774e-07
4.24818e-07
4.4129e-07
4.86534e-07
4.5167e-07
4.18681e-07
4.58355e-07
4.57872e-07
4.60753e-07
4.655e-07
5.34462e-07
0.00172597
1.53034e-05
5.90239e-07
3.98877e-07
4.07961e-07
3.94526e-07
3.92609e-07
4.07021e-07
4.04575e-07
4.04348e-07
4.10393e-07
3.9813e-07
3.89056e-07
3.95441e-07
3.94741e-07
3.98101e-07
3.98887e-07
4.09074e-07
3.97737e-07
3.92065e-07
4.05205e-07
4.03865e-07
4.02949e-07
5.01761e-07
1.32331e-06
5.76188e-06
5.0344e-07
4.08339e-07
4.12911e-07
4.0134e-07
3.9944e-07
4.16005e-07
3.96873e-07
3.95523e-07
4.03402e-07
4.04508e-07
4.16696e-07
4.19128e-07
4.24443e-07
4.24118e-07
4.13101e-07
4.07025e-07
4.18848e-07
4.49359e-07
4.29654e-07
4.17402e-07
4.54129e-07
4.54945e-07
4.51253e-07
4.41995e-07
4.77874e-07
4.77716e-07
4.68655e-07
5.47392e-07
0.00172601
1.52558e-05
5.93733e-07
4.04084e-07
4.04991e-07
4.08729e-07
4.08488e-07
4.14867e-07
3.98235e-07
3.96744e-07
4.14906e-07
4.0166e-07
3.93828e-07
3.98537e-07
4.08979e-07
3.98371e-07
3.96603e-07
4.17062e-07
3.9855e-07
3.92962e-07
4.0615e-07
3.99933e-07
3.99035e-07
4.00936e-07
4.00124e-07
4.35887e-07
4.12711e-07
3.96769e-07
3.97134e-07
3.95572e-07
4.02719e-07
4.01473e-07
3.95332e-07
4.04534e-07
4.04761e-07
4.02959e-07
3.97826e-07
4.11702e-07
4.07901e-07
4.02697e-07
4.19348e-07
4.11489e-07
4.23502e-07
4.38287e-07
4.5094e-07
4.39954e-07
4.37533e-07
4.21139e-07
4.24802e-07
4.59866e-07
4.88616e-07
4.8247e-07
4.68271e-07
5.55742e-07
0.00172603
1.52465e-05
5.92599e-07
4.0331e-07
4.04199e-07
4.07916e-07
4.07639e-07
4.1401e-07
3.97459e-07
3.95975e-07
4.14032e-07
4.00872e-07
3.92992e-07
3.95891e-07
3.9595e-07
3.9922e-07
4.0242e-07
4.09677e-07
3.97467e-07
3.95054e-07
4.09097e-07
4.09332e-07
4.19123e-07
4.01368e-07
3.98852e-07
4.2923e-07
4.16562e-07
4.17872e-07
3.99001e-07
3.96762e-07
4.13855e-07
4.01946e-07
3.95564e-07
3.99076e-07
4.05931e-07
4.08209e-07
4.09267e-07
4.29118e-07
4.22645e-07
4.23115e-07
4.39552e-07
4.22956e-07
4.10102e-07
4.22968e-07
4.45812e-07
4.40388e-07
4.34146e-07
4.61716e-07
4.57818e-07
4.5545e-07
4.82161e-07
4.76157e-07
4.58335e-07
5.49805e-07
0.00172599
1.52572e-05
5.88856e-07
3.99969e-07
4.01097e-07
4.04846e-07
4.04807e-07
4.04964e-07
4.04394e-07
4.04497e-07
4.04515e-07
4.10855e-07
3.98788e-07
3.90386e-07
3.99566e-07
3.994e-07
4.09878e-07
3.98349e-07
3.92576e-07
3.96187e-07
3.99292e-07
3.96511e-07
3.9673e-07
4.18651e-07
4.00586e-07
3.94087e-07
3.98155e-07
4.00235e-07
3.9767e-07
3.9619e-07
4.17299e-07
3.98583e-07
3.9342e-07
4.00808e-07
4.0177e-07
4.22343e-07
4.05614e-07
3.97198e-07
4.08824e-07
4.01305e-07
4.11852e-07
4.20615e-07
4.23747e-07
4.44653e-07
4.46377e-07
4.2465e-07
4.20585e-07
4.3516e-07
4.43144e-07
4.65418e-07
4.84425e-07
5.11974e-07
5.02388e-07
5.59304e-07
0.00172601
1.52482e-05
5.87756e-07
3.9923e-07
4.00337e-07
4.04068e-07
4.04019e-07
4.04175e-07
4.03574e-07
4.03658e-07
4.03658e-07
4.09957e-07
3.97821e-07
3.89632e-07
3.9868e-07
3.9865e-07
4.08707e-07
3.97369e-07
3.92026e-07
4.04261e-07
4.04727e-07
4.09063e-07
4.0283e-07
4.02732e-07
4.10558e-07
3.97841e-07
3.93856e-07
3.97072e-07
4.0414e-07
3.97086e-07
3.96751e-07
4.15355e-07
4.01661e-07
3.95772e-07
4.01298e-07
4.14931e-07
4.04692e-07
3.97062e-07
4.01789e-07
3.99802e-07
4.06557e-07
4.17514e-07
4.35062e-07
4.40307e-07
4.69199e-07
4.37055e-07
4.25981e-07
5.00633e-07
4.57165e-07
4.42776e-07
4.85125e-07
4.67518e-07
4.71578e-07
5.51488e-07
0.00172599
1.52569e-05
5.88801e-07
3.99909e-07
3.99392e-07
3.95972e-07
3.97062e-07
4.04247e-07
4.04218e-07
4.03899e-07
4.08415e-07
3.96402e-07
3.93015e-07
4.0328e-07
4.00112e-07
4.0361e-07
4.03401e-07
4.02843e-07
4.02665e-07
4.05611e-07
3.96348e-07
3.95675e-07
3.99605e-07
4.04012e-07
3.98384e-07
3.92905e-07
4.10137e-07
4.00523e-07
3.97449e-07
4.00454e-07
4.06938e-07
3.9752e-07
3.97033e-07
4.209e-07
4.01294e-07
4.01514e-07
4.31347e-07
4.08593e-07
4.01834e-07
4.11839e-07
4.06158e-07
4.1208e-07
4.17086e-07
4.33038e-07
4.47406e-07
4.7944e-07
4.83338e-07
4.31088e-07
4.23992e-07
4.66502e-07
4.66515e-07
4.65415e-07
4.66608e-07
5.27702e-07
0.001726
1.5248e-05
5.87711e-07
3.99172e-07
3.98665e-07
3.95226e-07
3.96288e-07
4.03429e-07
4.03407e-07
4.031e-07
4.07735e-07
3.95733e-07
3.92223e-07
4.02401e-07
4.0269e-07
3.99626e-07
3.99152e-07
4.05828e-07
4.02569e-07
4.05425e-07
3.92851e-07
3.91672e-07
3.94858e-07
4.00052e-07
3.9926e-07
3.93522e-07
4.05677e-07
4.05025e-07
4.05081e-07
4.05234e-07
4.12885e-07
3.98095e-07
3.9656e-07
4.2099e-07
4.00916e-07
4.00581e-07
4.30954e-07
4.08395e-07
4.0162e-07
4.11945e-07
4.03819e-07
4.09882e-07
4.18142e-07
4.34986e-07
4.47575e-07
4.43917e-07
4.56484e-07
4.51338e-07
4.41153e-07
4.32754e-07
4.59477e-07
4.74427e-07
5.1064e-07
5.81129e-07
0.00172596
1.52565e-05
5.88724e-07
3.9987e-07
3.99409e-07
3.95962e-07
3.97007e-07
4.04186e-07
4.04143e-07
4.03831e-07
4.08441e-07
4.02879e-07
4.02786e-07
4.13487e-07
4.01164e-07
3.96175e-07
3.98469e-07
3.98507e-07
4.01983e-07
4.05051e-07
4.12224e-07
3.97452e-07
3.96166e-07
4.17024e-07
3.98442e-07
3.9276e-07
3.96636e-07
3.99747e-07
3.97116e-07
3.95954e-07
4.04799e-07
4.06249e-07
3.98171e-07
3.97816e-07
4.242e-07
4.14145e-07
4.15391e-07
4.30468e-07
4.11991e-07
4.04375e-07
4.10471e-07
4.11563e-07
4.34962e-07
4.39201e-07
4.24332e-07
4.20415e-07
4.3305e-07
4.82873e-07
4.68498e-07
4.47321e-07
4.81185e-07
4.76233e-07
4.75165e-07
5.18826e-07
0.00172598
1.52478e-05
5.8765e-07
3.99161e-07
3.98693e-07
3.95207e-07
3.96263e-07
4.03345e-07
4.03306e-07
4.0299e-07
4.07721e-07
4.02222e-07
4.02113e-07
4.12779e-07
4.00421e-07
3.92867e-07
3.98888e-07
3.98798e-07
3.98667e-07
3.98427e-07
4.05562e-07
3.96803e-07
3.94966e-07
4.16521e-07
3.97498e-07
3.91988e-07
3.95813e-07
3.99201e-07
3.9637e-07
3.95286e-07
4.13197e-07
4.1396e-07
4.04642e-07
4.05975e-07
4.23435e-07
4.143e-07
4.15538e-07
4.30344e-07
4.1185e-07
4.00486e-07
4.17852e-07
4.20227e-07
4.26771e-07
4.21358e-07
4.36718e-07
4.48793e-07
4.84961e-07
4.71901e-07
4.43159e-07
4.6568e-07
4.63993e-07
4.78121e-07
4.76507e-07
5.43069e-07
0.00172596
1.52566e-05
5.88746e-07
3.99851e-07
3.99414e-07
3.95961e-07
3.96985e-07
4.0413e-07
4.04104e-07
4.03773e-07
4.0833e-07
3.96282e-07
3.92878e-07
4.0317e-07
4.0329e-07
4.10072e-07
3.97285e-07
3.8994e-07
3.89917e-07
3.93966e-07
4.04072e-07
4.05692e-07
4.09204e-07
3.97147e-07
3.96412e-07
4.09445e-07
3.9721e-07
3.95613e-07
3.99094e-07
4.02634e-07
3.972e-07
3.89629e-07
3.97008e-07
3.93182e-07
4.0076e-07
4.06285e-07
4.21866e-07
4.08759e-07
4.00408e-07
4.03673e-07
4.02703e-07
4.09095e-07
4.25238e-07
4.36629e-07
4.58658e-07
4.47676e-07
4.43863e-07
4.72635e-07
4.60756e-07
4.49429e-07
4.63249e-07
4.60861e-07
4.67027e-07
5.00474e-07
0.00172597
1.52477e-05
5.8768e-07
3.99142e-07
3.98626e-07
3.95167e-07
3.96274e-07
4.03314e-07
4.03257e-07
4.02902e-07
4.07552e-07
3.95667e-07
3.92122e-07
4.02371e-07
4.02536e-07
4.09249e-07
3.96693e-07
3.88899e-07
3.89172e-07
3.92551e-07
3.99881e-07
4.013e-07
4.08437e-07
3.96492e-07
3.95407e-07
4.05668e-07
4.02015e-07
4.02002e-07
4.10488e-07
3.96724e-07
3.95576e-07
4.12569e-07
4.00491e-07
3.96474e-07
4.01219e-07
4.0271e-07
4.18995e-07
4.08278e-07
4.01935e-07
4.04131e-07
4.10861e-07
4.12153e-07
4.34132e-07
4.39717e-07
4.42111e-07
4.41043e-07
4.44052e-07
4.56615e-07
4.4878e-07
4.47719e-07
4.89737e-07
4.90477e-07
4.84576e-07
5.19839e-07
0.00172593
1.5256e-05
5.88779e-07
3.99843e-07
3.99338e-07
3.95998e-07
3.97124e-07
4.0458e-07
4.04234e-07
4.11454e-07
3.9962e-07
3.90453e-07
3.96241e-07
3.95994e-07
3.99471e-07
3.99211e-07
4.05869e-07
3.93965e-07
3.88672e-07
3.98604e-07
3.98473e-07
3.95594e-07
3.95815e-07
3.99043e-07
4.06256e-07
3.97704e-07
3.92274e-07
4.01224e-07
4.01262e-07
4.02466e-07
4.02568e-07
4.06841e-07
4.06575e-07
4.04892e-07
4.11923e-07
4.06169e-07
4.00022e-07
4.11106e-07
4.18066e-07
4.09467e-07
4.09783e-07
4.09282e-07
4.20293e-07
4.30469e-07
4.54691e-07
4.54501e-07
4.53274e-07
4.54589e-07
4.56733e-07
4.64666e-07
5.07927e-07
4.79945e-07
4.39373e-07
4.82281e-07
0.00172595
1.52475e-05
5.87724e-07
3.9913e-07
3.98618e-07
3.9528e-07
3.96389e-07
4.03771e-07
4.03463e-07
4.10673e-07
3.98844e-07
3.89707e-07
3.95462e-07
3.95191e-07
3.9824e-07
4.01816e-07
3.96336e-07
3.89268e-07
3.89394e-07
3.93367e-07
4.00036e-07
4.00595e-07
4.04351e-07
4.0506e-07
4.12222e-07
3.96775e-07
3.91658e-07
4.00562e-07
3.96938e-07
3.96931e-07
4.01934e-07
4.03661e-07
4.0365e-07
4.04675e-07
4.11766e-07
4.06283e-07
3.99786e-07
4.10752e-07
4.17723e-07
4.08963e-07
4.21944e-07
4.18916e-07
4.27582e-07
4.24064e-07
4.25172e-07
4.26518e-07
4.6044e-07
4.39272e-07
4.32492e-07
4.7011e-07
4.81799e-07
5.08054e-07
4.95835e-07
5.07735e-07
0.00172592
1.5256e-05
5.88804e-07
3.99823e-07
3.99349e-07
3.95971e-07
3.9707e-07
4.04579e-07
4.04533e-07
4.04509e-07
4.03202e-07
4.02731e-07
4.11151e-07
3.98294e-07
3.96061e-07
4.09901e-07
4.09952e-07
4.17171e-07
3.98059e-07
3.88942e-07
3.94908e-07
3.95125e-07
4.08452e-07
3.97205e-07