/*--------------------------------*- C++ -*----------------------------------*\
| =========                 |                                                 |
| \\      /  F ield         | OpenFOAM: The Open Source CFD Toolbox           |
|  \\    /   O peration     | Version:  4.1                                   |
|   \\  /    A nd           | Web:      www.OpenFOAM.org                      |
|    \\/     M anipulation  |                                                 |
\*---------------------------------------------------------------------------*/
FoamFile
{
    version     2.0;
    format      ascii;
    class       volScalarField;
    location    "6";
    object      nut;
}
// * * * * * * * * * * * * * * * * * * * * * * * * * * * * * * * * * * * * * //

dimensions      [0 2 -1 0 0 0 0];

internalField   nonuniform List<scalar> 
4432
(
35.0616
36.0806
37.0505
38.8268
39.9575
41.4892
43.127
43.9491
45.328
46.4871
45.9051
51.4959
47.5233
49.4383
50.7708
52.0345
53.6078
52.9474
60.9399
74.2552
71.0987
91.208
96.0776
139.761
133.303
117.75
114.807
72.0647
72.1836
66.4618
59.5309
64.6449
68.2959
80.9975
108.973
93.5235
60.4353
75.864
69.8337
68.314
62.4013
56.664
46.2055
38.7134
95.8347
134.557
72.5283
52.0914
26.2541
23.2487
25.873
40.4353
76.0763
59.2712
35.1725
36.0056
37.1368
38.3002
40.1565
42.2008
41.8154
43.8484
46.54
44.4687
46.1673
47.5781
48.6294
49.5477
49.2203
54.0905
62.673
52.6191
58.7798
68.4486
65.1091
79.2714
81.5061
103.352
94.3524
83.0686
66.9258
71.952
64.7502
61.0556
56.2247
61.543
66.7171
83.3676
117.046
103.742
60.8082
76.8894
65.6514
64.3705
61.0134
54.9548
45.5225
38.081
86.4338
199.111
51.888
35.2919
27.0428
23.4384
25.7178
39.5105
70.3611
59.8849
4.69739e-06
1.67163e-07
9.65601e-05
0.00020971
0.000383354
0.000640015
0.00107426
0.00190863
0.00273218
0.00479851
0.00757175
0.0137733
0.0304384
0.0478238
0.0895167
0.18389
0.297072
0.659076
1.47211
3.35716
8.58815
22.3535
38.7549
68.047
35.3335
13.3204
13.6074
9.44817
8.42114
3.63039
6.59694
18.0767
55.973
118.857
116.088
0.0848831
8.30073
0.097572
0.0289901
0.0254784
0.0277257
0.0290512
0.0387245
0.0905682
0.116547
0.259919
0.11232
0.00140154
0.019788
0.0365221
0.0991605
0.422612
2.88856
2.3918
4.69709e-06
1.63691e-07
8.31283e-05
0.000177344
0.000315898
0.000508504
0.000912339
0.00141895
0.00230708
0.00384876
0.00802217
0.0127565
0.0239131
0.0352345
0.0617836
0.144027
0.236422
0.479733
1.26188
2.85681
7.69049
18.8431
35.8574
58.7449
30.3064
10.9553
9.28395
9.49922
6.69562
3.17516
6.86895
21.4493
72.6464
151.056
112.034
4.32815
19.2816
0.0480383
0.0129064
0.0118403
0.00615204
0.00340722
0.00332722
0.00169083
0.00173972
0.00412116
0.00714824
0.00923919
0.0165824
0.0348898
0.119396
0.464634
2.90566
2.60141
4.67717e-06
6.30212e-08
1.99051e-09
9.12331e-10
9.42487e-10
9.48261e-10
9.85589e-10
1.02107e-09
1.07914e-09
1.17641e-09
1.3516e-09
1.68125e-09
2.37948e-09
3.47168e-09
6.13596e-09
1.3575e-08
2.93337e-08
9.58933e-08
3.6015e-07
1.28672e-06
6.52207e-06
3.68774e-05
0.000204832
0.000997163
0.00246822
0.00789311
0.0475232
0.326172
1.55334
1.5674
9.4659
14.5097
11.3272
4.1482
0.997909
0.00803796
0.00265475
3.88328e-05
5.38381e-06
2.55924e-06
9.7346e-07
5.23422e-07
6.29137e-08
5.12368e-08
6.57533e-08
6.27196e-06
0.000102074
2.25737e-05
1.84672e-05
1.90217e-05
0.000570007
0.0059852
0.0418125
0.0498863
4.6772e-06
6.2998e-08
1.98025e-09
9.23278e-10
9.6375e-10
9.72884e-10
1.01591e-09
1.00388e-09
1.04564e-09
1.14542e-09
1.35444e-09
1.64558e-09
2.17001e-09
3.00689e-09
4.85609e-09
1.13347e-08
2.43017e-08
7.05599e-08
3.04741e-07
1.07705e-06
5.63243e-06
2.98809e-05
0.000172205
0.00079411
0.00198695
0.00583077
0.0297936
0.283342
1.05458
1.27127
8.88195
14.3799
10.9869
3.63472
0.506854
0.000495511
4.72376e-05
5.26734e-05
1.02784e-08
4.26604e-08
4.38023e-09
5.21783e-09
5.04451e-10
5.04683e-09
1.78333e-07
9.95354e-06
0.000114339
0.000119254
0.000128543
7.17161e-05
0.000777241
0.00652073
0.0515049
0.051009
4.67733e-06
6.30229e-08
1.97361e-09
9.1337e-10
9.37154e-10
9.26663e-10
9.25298e-10
9.25301e-10
9.58922e-10
9.68925e-10
9.83738e-10
9.44461e-10
9.05754e-10
9.31184e-10
9.29696e-10
9.35156e-10
9.33302e-10
9.53168e-10
9.80005e-10
1.02768e-09
1.38442e-09
1.54754e-09
3.10554e-09
1.12063e-08
3.54746e-08
1.72885e-07
1.85691e-06
2.42727e-05
0.000233399
0.000166124
0.000824182
0.00340518
0.0247744
0.0756624
0.0274613
0.000196797
8.73902e-08
8.21176e-09
1.7517e-09
1.63143e-09
1.57224e-09
1.47313e-09
1.41085e-09
1.26297e-09
1.23653e-09
1.25008e-09
1.04712e-09
1.23862e-09
3.06834e-09
8.61108e-08
4.7456e-06
0.000149776
0.00106239
0.00365907
4.67736e-06
6.29996e-08
1.96564e-09
9.09616e-10
9.33015e-10
9.27219e-10
9.58185e-10
9.48151e-10
9.45994e-10
9.49622e-10
9.65765e-10
9.37058e-10
9.13719e-10
9.71959e-10
9.49921e-10
9.49084e-10
9.59985e-10
9.60154e-10
1.02015e-09
1.00196e-09
1.10285e-09
2.23044e-09
2.94153e-09
9.58088e-09
3.15197e-08
1.37967e-07
1.26863e-06
2.24192e-05
0.000160809
0.000118388
0.00077896
0.00213714
0.0123478
0.0609547
0.00760972
9.96291e-06
3.84328e-09
5.58488e-09
1.30122e-09
1.31453e-09
1.36252e-09
1.32059e-09
1.39334e-09
1.31742e-09
1.18665e-09
1.01007e-09
1.01882e-09
1.33279e-09
3.12776e-09
4.15616e-08
4.57903e-06
0.000407696
0.00141925
0.00450455
4.67746e-06
6.30265e-08
1.97392e-09
9.13413e-10
9.31814e-10
9.3123e-10
9.35952e-10
9.50798e-10
9.61625e-10
9.77963e-10
9.41251e-10
9.16362e-10
9.76688e-10
9.6329e-10
9.61229e-10
1.01079e-09
9.72111e-10
9.29931e-10
9.62252e-10
9.64202e-10
9.96377e-10
9.54956e-10
9.41318e-10
9.97591e-10
9.87852e-10
1.06944e-09
1.58015e-09
1.26558e-08
3.64053e-08
3.14858e-08
1.58274e-07
7.03596e-07
6.024e-06
2.19024e-05
6.71088e-06
5.20257e-08
1.15194e-09
1.0457e-09
1.10644e-09
1.01626e-09
1.00859e-09
1.01599e-09
1.20002e-09
1.3152e-09
1.12338e-09
1.27155e-09
1.07043e-09
1.0381e-09
1.28856e-09
1.37615e-09
1.26336e-09
2.35987e-10
9.8034e-09
4.44628e-06
4.67749e-06
6.30018e-08
1.99921e-09
9.26627e-10
9.32967e-10
9.49723e-10
9.28304e-10
9.23152e-10
9.3296e-10
9.48146e-10
9.34983e-10
9.12817e-10
9.7266e-10
9.57337e-10
9.56536e-10
1.00506e-09
9.58277e-10
9.19144e-10
9.56411e-10
9.54052e-10
9.87314e-10
9.46928e-10
9.20354e-10
9.7516e-10
9.82511e-10
1.04805e-09
1.46615e-09
1.23045e-08
2.77625e-08
2.46545e-08
1.52393e-07
4.51312e-07
2.83616e-06
1.63467e-05
1.72098e-06
5.88167e-09
1.03338e-09
1.02662e-09
1.09543e-09
1.01147e-09
9.94316e-10
1.07353e-09
1.28884e-09
1.28926e-09
1.13349e-09
1.14085e-09
1.04236e-09
1.11948e-09
1.38217e-09
1.27099e-09
4.11405e-10
3.38039e-06
4.10371e-08
2.74471e-06
4.67761e-06
6.30241e-08
2.06985e-09
9.63121e-10
9.41622e-10
9.51745e-10
9.75988e-10
9.69791e-10
9.68675e-10
1.00388e-09
9.42933e-10
9.16642e-10
9.65702e-10
9.66074e-10
1.01511e-09
9.61851e-10
9.36509e-10
9.86026e-10
9.87518e-10
1.01499e-09
9.64704e-10
9.63255e-10
9.82492e-10
1.0007e-09
9.76636e-10
9.60133e-10
1.01348e-09
1.07935e-09
1.22466e-09
1.18436e-09
1.27e-09
1.88356e-09
5.30132e-09
1.23694e-08
4.91244e-09
1.18887e-09
9.77967e-10
9.81016e-10
1.04834e-09
1.01384e-09
1.03548e-09
1.02291e-09
1.06177e-09
1.06706e-09
1.00297e-09
1.08838e-09
1.03327e-09
1.16766e-09
1.07262e-09
1.14903e-09
1.38834e-09
2.3575e-09
8.94731e-08
1.31301e-06
4.67764e-06
6.30011e-08
2.06128e-09
9.57469e-10
9.3697e-10
9.45608e-10
9.6112e-10
9.93093e-10
9.53082e-10
9.16906e-10
9.02782e-10
9.11326e-10
9.59244e-10
9.58959e-10
1.01025e-09
9.56819e-10
9.30984e-10
9.91251e-10
9.91333e-10
1.00678e-09
9.551e-10
9.55381e-10
9.76958e-10
9.92957e-10
9.6346e-10
9.3462e-10
9.89713e-10
1.05049e-09
1.18148e-09
1.16924e-09
1.25923e-09
1.65921e-09
7.39897e-09
1.00594e-08
2.51012e-09
1.03815e-09
9.60198e-10
9.69359e-10
1.03575e-09
1.00002e-09
1.02612e-09
1.08474e-09
1.06163e-09
1.09522e-09
1.1928e-09
1.13962e-09
1.04991e-09
1.10055e-09
1.11028e-09
1.09862e-09
1.16582e-09
2.59188e-09
1.09852e-07
1.35484e-06
4.67775e-06
6.3027e-08
2.07023e-09
9.6511e-10
9.43718e-10
9.56034e-10
9.99271e-10
9.43484e-10
9.19051e-10
9.7968e-10
9.6635e-10
9.55825e-10
9.46598e-10
9.51901e-10
9.80483e-10
9.87371e-10
9.84306e-10
9.74378e-10
9.74361e-10
9.88743e-10
9.99465e-10
1.00918e-09
1.02439e-09
1.04954e-09
9.79487e-10
9.33136e-10
9.57258e-10
9.47255e-10
9.76344e-10
9.8073e-10
9.80481e-10
1.00281e-09
1.08008e-09
1.09692e-09
1.14999e-09
1.0632e-09
9.94801e-10
1.01905e-09
1.08024e-09
1.08404e-09
1.16396e-09
1.08376e-09
1.01811e-09
9.78766e-10
1.04812e-09
1.00517e-09
1.00018e-09
1.07699e-09
1.02288e-09
1.01511e-09
1.2319e-09
1.50578e-09
3.85212e-09
6.57001e-08
4.67778e-06
6.30038e-08
2.06175e-09
9.59075e-10
9.38124e-10
9.48159e-10
9.90807e-10
9.38431e-10
9.14405e-10
9.70858e-10
9.51463e-10
9.43018e-10
9.60809e-10
9.62021e-10
9.65535e-10
9.8141e-10
9.77886e-10
9.67155e-10
9.68721e-10
9.94561e-10
9.39212e-10
9.37122e-10
9.60344e-10
9.73739e-10
9.72436e-10
9.53621e-10
9.66696e-10
9.50254e-10
9.89672e-10
9.77313e-10
9.53902e-10
9.72537e-10
1.12586e-09
1.03554e-09
1.06926e-09
1.04069e-09
9.96935e-10
1.00322e-09
1.06047e-09
1.06965e-09
1.14329e-09
1.09374e-09
9.85686e-10
9.57043e-10
1.17693e-09
1.07448e-09
9.30908e-10
1.00106e-09
1.10235e-09
1.04541e-09
1.27577e-09
1.67396e-09
4.49106e-09
9.24315e-08
4.67791e-06
6.30275e-08
1.97474e-09
9.12939e-10
9.29624e-10
9.28194e-10
9.32051e-10
9.28971e-10
9.38314e-10
9.73087e-10
9.41553e-10
9.32963e-10
1.00004e-09
9.54036e-10
9.5234e-10
9.87675e-10
9.5517e-10
9.46356e-10
9.64286e-10
1.00192e-09
9.66464e-10
9.62353e-10
1.01259e-09
1.0182e-09
1.03434e-09
1.029e-09
1.03279e-09
1.02076e-09
1.05191e-09
1.05515e-09
1.05876e-09
1.06073e-09
1.08947e-09
1.04882e-09
9.96075e-10
9.97202e-10
9.85844e-10
1.02888e-09
1.04331e-09
1.07315e-09
1.05717e-09
1.147e-09
1.14817e-09
1.02281e-09
1.15157e-09
1.04163e-09
9.58733e-10
9.36594e-10
9.86535e-10
1.01137e-09
1.19058e-09
1.34349e-09
4.86384e-09
8.46341e-08
4.67793e-06
6.30048e-08
1.96682e-09
9.09701e-10
9.14901e-10
9.30346e-10
9.2765e-10
9.22992e-10
9.30752e-10
9.48073e-10
9.36439e-10
9.28477e-10
9.79738e-10
9.79244e-10
9.72799e-10
9.68189e-10
9.59475e-10
9.55759e-10
9.75904e-10
9.90986e-10
9.55721e-10
9.53351e-10
9.8677e-10
9.95023e-10
1.02811e-09
1.03207e-09
1.04059e-09
9.9749e-10
9.82316e-10
1.04565e-09
9.69383e-10
9.6588e-10
1.0857e-09
1.00217e-09
9.84323e-10
9.85435e-10
9.79321e-10
1.02394e-09
1.03508e-09
1.06378e-09
1.04902e-09
1.11304e-09
1.15237e-09
1.04623e-09
1.2917e-09
1.02038e-09
9.10426e-10
9.90097e-10
1.08817e-09
1.09086e-09
1.27584e-09
1.49147e-09
4.36351e-09
7.74687e-08
4.67803e-06
6.30295e-08
1.97493e-09
9.13344e-10
9.32331e-10
9.30305e-10
9.30797e-10
9.29114e-10
9.41164e-10
9.72253e-10
9.41785e-10
9.17916e-10
9.4839e-10
9.44257e-10
9.60249e-10
9.65153e-10
9.98388e-10
9.60034e-10
9.38893e-10
9.57839e-10
9.91564e-10
9.67909e-10
9.60685e-10
1.02824e-09
1.02419e-09
1.03001e-09
1.02803e-09
1.04941e-09
9.92211e-10
1.00686e-09
1.06117e-09
1.00287e-09
9.84158e-10
1.01904e-09
9.76925e-10
9.76925e-10
1.06711e-09
1.04814e-09
1.00188e-09
1.07887e-09
1.05931e-09
1.16385e-09
1.14291e-09
1.08095e-09
1.27441e-09
1.11096e-09
1.02511e-09
1.00377e-09
1.02591e-09
1.04645e-09
1.14152e-09
1.28838e-09
5.24063e-09
7.81157e-08
4.67805e-06
6.30064e-08
1.96715e-09
9.09737e-10
9.11494e-10
9.09561e-10
9.41973e-10
9.4499e-10
9.38592e-10
9.6396e-10
9.36814e-10
9.13888e-10
9.44028e-10
9.4148e-10
9.57621e-10
9.59603e-10
9.92051e-10
9.52061e-10
9.49363e-10
1.02359e-09
9.54766e-10
9.50988e-10
1.04243e-09
9.70666e-10
9.65932e-10
1.03472e-09
9.64698e-10
9.44562e-10
9.65822e-10
9.69671e-10
9.82237e-10
9.79094e-10
9.88446e-10
1.07644e-09
9.67902e-10
9.63481e-10
1.02537e-09
1.04328e-09
1.00276e-09
1.06667e-09
1.03848e-09
1.10477e-09
1.11506e-09
1.07365e-09
1.20918e-09
1.04003e-09
9.49731e-10
1.03287e-09
1.06134e-09
1.10227e-09
1.22363e-09
1.4618e-09
5.56717e-09
8.90391e-08
4.67818e-06
6.30282e-08
1.97544e-09
9.13476e-10
9.36737e-10
9.20434e-10
9.17814e-10
9.02885e-10
8.83555e-10
8.95001e-10
9.05191e-10
9.06758e-10
9.17747e-10
9.27204e-10
9.44685e-10
9.56446e-10
9.69476e-10
1.01698e-09
9.59178e-10
9.52724e-10
1.02025e-09
1.02288e-09
9.97541e-10
1.00018e-09
1.03565e-09
1.02896e-09
1.04318e-09
9.92639e-10
9.66233e-10
9.87423e-10
1.02603e-09
9.80947e-10
9.60996e-10
9.79141e-10
9.85485e-10
1.03825e-09
1.00924e-09
1.13385e-09
1.06068e-09
1.05914e-09
1.08941e-09
1.08515e-09
1.0824e-09
1.06423e-09
1.27065e-09
1.1476e-09
1.03904e-09
1.06407e-09
1.19249e-09
1.14834e-09
1.20556e-09
1.33248e-09
3.05709e-09
3.4108e-08
4.67819e-06
6.30057e-08
1.9684e-09
8.93891e-10
9.00612e-10
9.14369e-10
9.0678e-10
9.05102e-10
9.27126e-10
9.23682e-10
9.27418e-10
9.29028e-10
9.59403e-10
9.53349e-10
9.50734e-10
9.57332e-10
9.5772e-10
1.00477e-09
9.56036e-10
9.49053e-10
1.00066e-09
1.00227e-09
9.92975e-10
9.82545e-10
1.00269e-09
1.01207e-09
1.0274e-09
1.02741e-09
1.04425e-09
1.0555e-09
1.05542e-09
9.74059e-10
9.52352e-10
1.0147e-09
9.80832e-10
1.02513e-09
1.01111e-09
1.12353e-09
1.05349e-09
1.05221e-09
1.07791e-09
1.01523e-09
1.03741e-09
1.05563e-09
1.09504e-09
1.05265e-09
1.00084e-09
1.17511e-09
1.16796e-09
1.21943e-09
1.20754e-09
1.51875e-09
3.66345e-09
4.69324e-08
4.67825e-06
6.303e-08
1.97665e-09
8.97336e-10
9.04225e-10
9.18441e-10
9.05129e-10
8.94099e-10
9.24301e-10
9.1604e-10
9.14567e-10
9.24719e-10
9.92471e-10
9.8129e-10
9.40196e-10
9.5178e-10
9.5117e-10
9.70898e-10
9.71477e-10
1.01853e-09
9.63078e-10
9.55892e-10
1.01954e-09
1.01646e-09
1.01422e-09
1.00739e-09
1.03238e-09
9.71948e-10
9.81418e-10
1.00841e-09
9.98254e-10
1.01403e-09
1.01667e-09
1.03694e-09
1.03099e-09
1.0316e-09
9.81823e-10
1.07015e-09
1.06083e-09
1.0736e-09
1.13991e-09
1.09834e-09
1.10884e-09
1.12683e-09
1.15866e-09
1.3005e-09
1.16078e-09
1.09138e-09
1.20262e-09
1.18525e-09
1.38721e-09
1.3705e-09
1.13098e-09
2.41809e-09
4.67828e-06
6.30074e-08
1.96849e-09
8.93752e-10
9.0052e-10
9.1443e-10
9.13644e-10
9.11051e-10
9.38077e-10
9.34933e-10
9.28652e-10
9.36358e-10
9.98233e-10
9.74956e-10
9.3515e-10
9.60609e-10
9.60808e-10
9.46806e-10
9.4544e-10
1.01092e-09
9.59265e-10
9.51438e-10
1.01332e-09
1.00243e-09
1.03535e-09
1.01962e-09
1.0207e-09
9.8187e-10
9.80932e-10
1.05525e-09
9.73939e-10
9.75109e-10
1.00916e-09
1.01422e-09
1.0424e-09
1.02271e-09
9.87283e-10
1.06806e-09
1.05174e-09
1.06376e-09
1.12267e-09
1.09235e-09
1.11804e-09
1.12408e-09
1.08377e-09
1.20315e-09
1.13912e-09
1.18891e-09
1.21132e-09
1.26265e-09
1.16307e-09
1.18249e-09
1.33713e-09
2.92681e-09
4.67838e-06
6.30281e-08
1.97594e-09
8.80554e-10
8.85811e-10
9.00397e-10
9.15645e-10
9.2569e-10
9.23229e-10
9.16234e-10
9.16006e-10
9.22338e-10
9.91946e-10
9.59737e-10
9.51921e-10
1.03629e-09
9.44664e-10
9.34088e-10
9.52988e-10
9.67022e-10
9.55893e-10
9.34988e-10
9.93994e-10
9.94514e-10
1.0486e-09
9.8842e-10
9.82315e-10
1.05984e-09
1.06541e-09
9.94112e-10
9.45276e-10
1.01345e-09
1.01982e-09
1.01394e-09
1.0209e-09
1.09899e-09
1.01942e-09
9.75724e-10
9.90769e-10
1.00712e-09
1.09238e-09
1.1146e-09
1.12793e-09
1.18995e-09
1.16699e-09
1.1726e-09
1.26326e-09
1.1364e-09
1.15632e-09
1.16711e-09
1.24808e-09
1.33439e-09
1.31258e-09
1.53739e-09
4.67839e-06
6.30061e-08
1.96745e-09
8.92521e-10
8.99709e-10
9.14135e-10
9.12253e-10
9.10068e-10
9.35887e-10
9.33413e-10
9.4148e-10
9.3624e-10
9.54051e-10
1.01535e-09
9.60187e-10
9.18412e-10
9.43722e-10
9.43271e-10
9.58833e-10
9.59806e-10
9.63329e-10
9.62801e-10
9.77832e-10
1.02589e-09
9.72428e-10
9.70454e-10
1.0529e-09
1.05498e-09
1.07482e-09
9.90323e-10
9.35609e-10
9.85179e-10
9.85084e-10
1.00041e-09
1.00956e-09
1.10227e-09
1.02094e-09
9.68902e-10
9.81033e-10
9.91442e-10
1.13479e-09
1.1131e-09
1.13016e-09
1.23755e-09
1.15447e-09
1.22575e-09
1.19001e-09
1.16008e-09
1.21448e-09
1.29082e-09
1.31587e-09
1.28586e-09
1.1983e-09
1.41305e-09
4.6784e-06
6.3065e-08
2.10452e-09
9.86516e-10
9.72775e-10
9.89677e-10
1.02536e-09
9.66409e-10
8.90779e-10
9.15787e-10
9.13961e-10
9.15568e-10
9.16799e-10
9.26233e-10
9.4281e-10
9.50348e-10
9.5256e-10
9.66422e-10
1.00296e-09
9.5212e-10
9.39155e-10
9.54759e-10
9.77423e-10
9.73024e-10
9.75531e-10
1.08224e-09
9.88161e-10
9.80039e-10
1.07834e-09
9.922e-10
9.29601e-10
9.80767e-10
9.89084e-10
9.86845e-10
9.80578e-10
9.78172e-10
9.89189e-10
1.00531e-09
1.03789e-09
1.07623e-09
1.07209e-09
1.10553e-09
1.09237e-09
1.10542e-09
1.04964e-09
1.10562e-09
1.22051e-09
1.28946e-09
1.33054e-09
1.19677e-09
1.29343e-09
1.43707e-09
1.39998e-09
1.6417e-09
4.67842e-06
6.3041e-08
2.09614e-09
9.82541e-10
9.68799e-10
9.85585e-10
1.02091e-09
9.5875e-10
8.98792e-10
9.2778e-10
9.24459e-10
9.41945e-10
9.40492e-10
9.5364e-10
1.01354e-09
9.57447e-10
9.28871e-10
9.90719e-10
9.90536e-10
1.00839e-09
9.5386e-10
9.36372e-10
9.42402e-10
9.49095e-10
1.02244e-09
9.77217e-10
9.55223e-10
9.734e-10
9.57983e-10
9.80575e-10
9.65959e-10
9.76264e-10
9.6902e-10
9.83617e-10
9.70457e-10
9.57485e-10
9.85838e-10
1.10503e-09
1.04561e-09
9.81564e-10
1.21999e-09
1.1035e-09
1.038e-09
1.09891e-09
1.08426e-09
1.21232e-09
1.21272e-09
1.40049e-09
1.3154e-09
1.19766e-09
1.32991e-09
1.27515e-09
1.27045e-09
1.48868e-09
4.67802e-06
6.3299e-08
2.0414e-09
9.46493e-10
9.88878e-10
9.88077e-10
1.02143e-09
9.61537e-10
9.52284e-10
1.05675e-09
9.63513e-10
9.34219e-10
9.98845e-10
9.99046e-10
9.99033e-10
1.00078e-09
9.934e-10
9.95482e-10
9.73102e-10
9.70475e-10
1.03625e-09
9.67707e-10
9.34991e-10
1.18079e-09
1.11549e-09
1.0687e-09
8.77032e-10
1.00241e-09
9.67364e-10
9.6524e-10
9.72949e-10
1.00201e-09
1.01681e-09
1.0843e-09
1.00621e-09
9.33008e-10
9.74557e-10
9.57605e-10
1.01046e-09
1.04201e-09
1.07624e-09
1.09796e-09
1.07339e-09
1.08986e-09
1.07987e-09
1.15259e-09
1.3005e-09
1.34499e-09
1.25331e-09
1.3275e-09
1.26698e-09
1.24564e-09
1.21088e-09
1.64264e-09
4.67851e-06
6.30796e-08
2.06195e-09
9.58285e-10
9.27999e-10
9.423e-10
1.01051e-09
9.57333e-10
9.47664e-10
1.03325e-09
9.39714e-10
9.29359e-10
9.48093e-10
9.62675e-10
9.5721e-10
9.33725e-10
9.90458e-10
9.93514e-10
1.009e-09
9.53425e-10
9.46461e-10
1.01157e-09
9.88044e-10
1.18307e-09
1.26018e-09
9.45632e-10
8.61086e-10
9.97209e-10
9.45563e-10
1.01101e-09
1.01291e-09
1.00075e-09
1.00594e-09
1.07344e-09
9.94842e-10
9.46319e-10
9.84849e-10
1.01064e-09
9.91781e-10
9.80139e-10
1.09392e-09
1.05528e-09
1.02591e-09
1.08335e-09
1.15547e-09
1.22554e-09
1.23947e-09
1.36143e-09
1.21172e-09
1.15248e-09
1.1486e-09
1.15371e-09
1.26479e-09
1.57748e-09
4.67846e-06
6.30997e-08
2.10312e-09
9.84754e-10
9.72984e-10
9.90425e-10
1.02296e-09
9.63107e-10
9.35608e-10
1.00129e-09
1.00167e-09
1.00327e-09
1.00126e-09
9.99591e-10
1.02146e-09
9.65184e-10
9.0648e-10
9.34847e-10
9.31491e-10
9.43535e-10
9.43011e-10
9.47408e-10
9.6121e-10
1.14499e-09
0.00886405
1.01054e-05
1.51442e-06
1.59758e-09
9.97394e-10
9.62382e-10
9.57569e-10
9.67528e-10
1.02901e-09
9.8177e-10
9.44684e-10
9.79183e-10
9.67945e-10
9.73687e-10
1.0719e-09
1.02187e-09
1.01531e-09
1.13438e-09
1.10449e-09
1.16354e-09
1.18223e-09
1.15954e-09
1.29573e-09
1.38298e-09
1.30612e-09
1.37201e-09
1.38564e-09
1.21068e-09
1.3028e-09
1.9517e-09
4.70826e-06
6.38431e-08
2.07792e-09
9.62974e-10
1.00449e-09
9.55781e-10
9.48631e-10
1.03936e-09
9.54883e-10
9.47684e-10
1.01626e-09
9.36501e-10
9.28108e-10
9.77701e-10
9.62766e-10
9.79564e-10
9.93698e-10
9.652e-10
9.59707e-10
1.00774e-09
9.6749e-10
9.55758e-10
1.20058e-09
1.1566e-09
0.0113762
7.35708e-06
7.11749e-07
1.28213e-09
9.33956e-10
9.67766e-10
9.71046e-10
9.99058e-10
9.97673e-10
1.00087e-09
1.05615e-09
9.81837e-10
9.59835e-10
1.04675e-09
1.03046e-09
1.02148e-09
1.01171e-09
1.07875e-09
1.10433e-09
1.23618e-09
1.21833e-09
1.13889e-09
1.12616e-09
1.12817e-09
1.35601e-09
1.33406e-09
1.73866e-09
1.49181e-09
1.30751e-09
2.15404e-09
4.70437e-06
6.37795e-08
2.0374e-09
9.29536e-10
9.70536e-10
9.7084e-10
1.02197e-09
9.61212e-10
9.51254e-10
1.03765e-09
9.43906e-10
9.33184e-10
9.97612e-10
1.00072e-09
1.00169e-09
9.96423e-10
9.98285e-10
1.01971e-09
9.60527e-10
9.36118e-10
1.00215e-09
9.66844e-10
1.18208e-09
2.89527e-05
0.132929
0.000108095
7.38287e-09
9.57592e-10
9.42594e-10
9.59508e-10
1.0156e-09
9.59925e-10
9.56512e-10
1.01242e-09
1.01568e-09
1.11098e-09
9.93838e-10
9.94101e-10
1.02107e-09
1.01559e-09
1.06883e-09
1.06501e-09
1.15237e-09
1.18459e-09
1.18595e-09
1.1955e-09
1.43039e-09
1.35018e-09
1.2042e-09
1.33035e-09
1.58904e-09
1.6066e-09
1.71245e-09
4.67416e-06
6.32222e-08
2.16323e-09
9.48056e-10
9.67798e-10
1.04166e-09
9.60578e-10
8.99961e-10
9.29818e-10
9.25474e-10
9.27008e-10
9.63279e-10
9.35824e-10
9.26937e-10
9.77912e-10
9.77263e-10
9.76929e-10
9.96393e-10
9.54741e-10
9.45933e-10
1.02799e-09
1.01017e-09
1.38238e-09
0.0109142
0.264303
2.90082e-06
1.32704e-09
9.1922e-10
9.26397e-10
9.43201e-10
9.46963e-10
9.48113e-10
9.79586e-10
1.00154e-09
9.79929e-10
9.82346e-10
1.01505e-09
1.05178e-09
1.02848e-09
1.0876e-09
1.12756e-09
1.20931e-09
1.12746e-09
1.01116e-09
1.04325e-09
1.06539e-09
1.11056e-09
1.15769e-09
1.27051e-09
1.44162e-09
1.51714e-09
1.50895e-09
1.80032e-09
4.67797e-06
6.31251e-08
2.08945e-09
9.63673e-10
1.00815e-09
9.41863e-10
9.34659e-10
1.00577e-09
9.92455e-10
9.91398e-10
1.02083e-09
9.5882e-10
9.48121e-10
1.02005e-09
1.01186e-09
1.01005e-09
1.0031e-09
1.03999e-09
1.05269e-09
9.59158e-10
9.53728e-10
1.03251e-09
9.82791e-10
1.54351e-09
1.81811e-07
2.44982e-07
8.66361e-09
1.02884e-09
9.51608e-10
9.72731e-10
9.73245e-10
9.79509e-10
9.80016e-10
9.83441e-10
1.0283e-09
1.04472e-09
1.04699e-09
1.10395e-09
1.00847e-09
1.00883e-09
1.12851e-09
1.107e-09
1.10228e-09
1.13057e-09
1.08743e-09
1.17205e-09
1.42106e-09
1.22012e-09
1.05479e-09
1.26413e-09
1.25756e-09
1.27424e-09
1.29643e-09
1.69159e-09
4.678e-06
6.31038e-08
2.08163e-09
9.60042e-10
1.00427e-09
9.3843e-10
9.31052e-10
1.00159e-09
9.87777e-10
9.86689e-10
1.01639e-09
9.56641e-10
9.12792e-10
9.44613e-10
9.41319e-10
9.54886e-10
9.61126e-10
1.0113e-09
9.5446e-10
9.27598e-10
9.91501e-10
9.84905e-10
9.79613e-10
1.50461e-09
1.04318e-08
2.00087e-07
1.52622e-09
1.00653e-09
1.0303e-09
9.72799e-10
9.63543e-10
1.04339e-09
9.49832e-10
9.43575e-10
9.81392e-10
9.86427e-10
1.04684e-09
1.05746e-09
1.08663e-09
1.08492e-09
1.02889e-09
9.98668e-10
1.05209e-09
1.21123e-09
1.10772e-09
1.04451e-09
1.23505e-09
1.2346e-09
1.22206e-09
1.17246e-09
1.35821e-09
1.36436e-09
1.3154e-09
1.77126e-09
4.67851e-06
6.30481e-08
2.10516e-09
9.85628e-10
9.90101e-10
1.00801e-09
1.00685e-09
1.03758e-09
9.57868e-10
9.51608e-10
1.03875e-09
9.74441e-10
9.36854e-10
9.5767e-10
1.01024e-09
9.59425e-10
9.50102e-10
1.05069e-09
9.57902e-10
9.32809e-10
9.96486e-10
9.64574e-10
9.61343e-10
9.70524e-10
9.6614e-10
1.14496e-09
1.02865e-09
9.50741e-10
9.50677e-10
9.44301e-10
9.79086e-10
9.72082e-10
9.42953e-10
9.87179e-10
9.86886e-10
9.78764e-10
9.54025e-10
1.02203e-09
1.00275e-09
9.74375e-10
1.05869e-09
1.01983e-09
1.08109e-09
1.15546e-09
1.22336e-09
1.16421e-09
1.14784e-09
1.06435e-09
1.07926e-09
1.26822e-09
1.43229e-09
1.3928e-09
1.31256e-09
1.82946e-09
4.67853e-06
6.30278e-08
2.09738e-09
9.81953e-10
9.86327e-10
1.0041e-09
1.00277e-09
1.03339e-09
9.54235e-10
9.48019e-10
1.03449e-09
9.69853e-10
9.31321e-10
9.46749e-10
9.47059e-10
9.60666e-10
9.76556e-10
1.01163e-09
9.53768e-10
9.42638e-10
1.00992e-09
1.01111e-09
1.0584e-09
9.72328e-10
9.6078e-10
1.11243e-09
1.04745e-09
1.05212e-09
9.6164e-10
9.5082e-10
1.03363e-09
9.74954e-10
9.42865e-10
9.61712e-10
9.95077e-10
1.0039e-09
1.01076e-09
1.11106e-09
1.07698e-09
1.0778e-09
1.16306e-09
1.0769e-09
1.01317e-09
1.07623e-09
1.19365e-09
1.16598e-09
1.13235e-09
1.2797e-09
1.25348e-09
1.24436e-09
1.39515e-09
1.35689e-09
1.25769e-09
1.79198e-09
4.6784e-06
6.30081e-08
2.07284e-09
9.66127e-10
9.72083e-10
9.90368e-10
9.88816e-10
9.9095e-10
9.89084e-10
9.88665e-10
9.88746e-10
1.01999e-09
9.60648e-10
9.20275e-10
9.63654e-10
9.61542e-10
1.01458e-09
9.58412e-10
9.28613e-10
9.48119e-10
9.63136e-10
9.47724e-10
9.4902e-10
1.05653e-09
9.67752e-10
9.36339e-10
9.57488e-10
9.67455e-10
9.52759e-10
9.48215e-10
1.05233e-09
9.5732e-10
9.32867e-10
9.69931e-10
9.74454e-10
1.07411e-09
9.91284e-10
9.50446e-10
1.00611e-09
9.70232e-10
1.02039e-09
1.06126e-09
1.07706e-09
1.18563e-09
1.19151e-09
1.08275e-09
1.06542e-09
1.1393e-09
1.17419e-09
1.29992e-09
1.40776e-09
1.55758e-09
1.49997e-09
1.8467e-09
4.67843e-06
6.29885e-08
2.06535e-09
9.62653e-10
9.68496e-10
9.86659e-10
9.85063e-10
9.87182e-10
9.85176e-10
9.84212e-10
9.84213e-10
1.01517e-09
9.55185e-10
9.17516e-10
9.60631e-10
9.6006e-10
1.00864e-09
9.53873e-10
9.2847e-10
9.85181e-10
9.87945e-10
1.00909e-09
9.79771e-10
9.80039e-10
1.01816e-09
9.56119e-10
9.36719e-10
9.51756e-10
9.84928e-10
9.52036e-10
9.50466e-10
1.03907e-09
9.73587e-10
9.457e-10
9.71771e-10
1.03781e-09
9.86814e-10
9.49845e-10
9.71834e-10
9.61687e-10
9.92988e-10
1.04738e-09
1.13808e-09
1.16353e-09
1.31678e-09
1.14714e-09
1.09319e-09
1.50759e-09
1.24953e-09
1.17593e-09
1.41193e-09
1.29951e-09
1.32237e-09
1.7958e-09
4.67845e-06
6.30022e-08
2.07246e-09
9.66302e-10
9.63876e-10
9.47467e-10
9.52553e-10
9.85496e-10
9.86802e-10
9.86196e-10
1.00698e-09
9.48697e-10
9.32977e-10
9.82354e-10
9.65725e-10
9.83976e-10
9.83424e-10
9.80291e-10
9.79449e-10
9.93334e-10
9.48454e-10
9.44074e-10
9.6455e-10
9.86287e-10
9.58603e-10
9.3205e-10
1.01602e-09
9.69824e-10
9.537e-10
9.68135e-10
9.99751e-10
9.54137e-10
9.50967e-10
1.06992e-09
9.72671e-10
9.71931e-10
1.12144e-09
1.00606e-09
9.72999e-10
1.02028e-09
9.9393e-10
1.02267e-09
1.0451e-09
1.12603e-09
1.19846e-09
1.38109e-09
1.40329e-09
1.11618e-09
1.07758e-09
1.30492e-09
1.30529e-09
1.28828e-09
1.29411e-09
1.64473e-09
4.67847e-06
6.29837e-08
2.06504e-09
9.62833e-10
9.60576e-10
9.441e-10
9.49046e-10
9.8172e-10
9.82941e-10
9.82389e-10
1.00374e-09
9.46012e-10
9.29325e-10
9.77729e-10
9.78296e-10
9.64762e-10
9.62816e-10
9.94847e-10
9.7864e-10
9.92968e-10
9.32403e-10
9.26041e-10
9.41279e-10
9.65283e-10
9.62989e-10
9.35525e-10
9.92005e-10
9.89375e-10
9.91534e-10
9.92336e-10
1.02957e-09
9.56468e-10
9.48318e-10
1.07037e-09
9.70855e-10
9.67435e-10
1.1206e-09
1.00734e-09
9.73215e-10
1.02091e-09
9.82325e-10
1.01185e-09
1.05036e-09
1.13665e-09
1.20288e-09
1.18229e-09
1.25209e-09
1.22468e-09
1.16916e-09
1.12519e-09
1.25946e-09
1.34165e-09
1.55521e-09
1.99211e-09
4.67832e-06
6.2999e-08
2.07098e-09
9.65672e-10
9.63481e-10
9.4667e-10
9.51614e-10
9.84771e-10
9.84223e-10
9.84991e-10
1.00759e-09
9.79077e-10
9.7863e-10
1.03033e-09
9.70141e-10
9.48265e-10
9.59597e-10
9.59367e-10
9.7619e-10
9.90015e-10
1.02619e-09
9.54289e-10
9.47633e-10
1.04893e-09
9.58957e-10
9.32277e-10
9.49079e-10
9.64989e-10
9.52284e-10
9.45373e-10
9.88517e-10
9.95552e-10
9.56534e-10
9.54803e-10
1.08416e-09
1.03496e-09
1.04109e-09
1.11719e-09
1.02324e-09
9.85071e-10
1.01493e-09
1.01837e-09
1.1372e-09
1.15633e-09
1.07887e-09
1.05705e-09
1.12433e-09
1.39856e-09
1.31062e-09
1.19905e-09
1.38606e-09
1.34986e-09
1.34463e-09
1.59372e-09
4.67837e-06
6.29808e-08
2.06367e-09
9.62338e-10
9.60119e-10
9.43144e-10
9.48212e-10
9.81305e-10
9.80845e-10
9.80233e-10
1.00329e-09
9.76043e-10
9.75471e-10
1.02694e-09
9.68133e-10
9.3242e-10
9.60055e-10
9.59628e-10
9.58513e-10
9.58607e-10
9.943e-10
9.51485e-10
9.42659e-10
1.04681e-09
9.54511e-10
9.29101e-10
9.46365e-10
9.62677e-10
9.49153e-10
9.42955e-10
1.03029e-09
1.03413e-09
9.87952e-10
9.94608e-10
1.08052e-09
1.03575e-09
1.04178e-09
1.11551e-09
1.02216e-09
9.65252e-10
1.05071e-09
1.06215e-09
1.09448e-09
1.06503e-09
1.14445e-09
1.2044e-09
1.41001e-09
1.34063e-09
1.17961e-09
1.30007e-09
1.28611e-09
1.3665e-09
1.35745e-09
1.74347e-09
4.67838e-06
6.2996e-08
2.07114e-09
9.65586e-10
9.63511e-10
9.46766e-10
9.51579e-10
9.84483e-10
9.84028e-10
9.85161e-10
1.00751e-09
9.4684e-10
9.32346e-10
9.81833e-10
9.80248e-10
1.01541e-09
9.53547e-10
9.17187e-10
9.17133e-10
9.35622e-10
9.86365e-10
9.94741e-10
1.0098e-09
9.52061e-10
9.48515e-10
1.01251e-09
9.52856e-10
9.4341e-10
9.62161e-10
9.79271e-10
9.50528e-10
9.15399e-10
9.50312e-10
9.32724e-10
9.69032e-10
9.93145e-10
1.07382e-09
1.00767e-09
9.66186e-10
9.82297e-10
9.76373e-10
1.00702e-09
1.08497e-09
1.14646e-09
1.26472e-09
1.20106e-09
1.18116e-09
1.33589e-09
1.27475e-09
1.21301e-09
1.28039e-09
1.2681e-09
1.30382e-09
1.49253e-09
4.6784e-06
6.29764e-08
2.06388e-09
9.62249e-10
9.59799e-10
9.4295e-10
9.4826e-10
9.81161e-10
9.80595e-10
9.79787e-10
1.00245e-09
9.44054e-10
9.28847e-10
9.78044e-10
9.76676e-10
1.01065e-09
9.51278e-10
9.1411e-10
9.15423e-10
9.30186e-10
9.66049e-10
9.73424e-10
1.00605e-09
9.48991e-10
9.43818e-10
9.91971e-10
9.75927e-10
9.75989e-10
1.01584e-09
9.49232e-10
9.43301e-10
1.02739e-09
9.68299e-10
9.48649e-10
9.71396e-10
9.75938e-10
1.05797e-09
1.00476e-09
9.74332e-10
9.85125e-10
1.01685e-09
1.02175e-09
1.13023e-09
1.16296e-09
1.17676e-09
1.16652e-09
1.18147e-09
1.24935e-09
1.20847e-09
1.19899e-09
1.43057e-09
1.42891e-09
1.39533e-09
1.60357e-09
4.67824e-06
6.2992e-08
2.07137e-09
9.65091e-10
9.62676e-10
9.46604e-10
9.52014e-10
9.87711e-10
9.85574e-10
1.02248e-09
9.65464e-10
9.21293e-10
9.48814e-10
9.46363e-10
9.63903e-10
9.63419e-10
9.95413e-10
9.38042e-10
9.12615e-10
9.58605e-10
9.59226e-10
9.45823e-10
9.44805e-10
9.61612e-10
9.96636e-10
9.54822e-10
9.2847e-10
9.72491e-10
9.72692e-10
9.76397e-10
9.78702e-10
9.99576e-10
9.97873e-10
9.88881e-10
1.02453e-09
9.96451e-10
9.65713e-10
1.01912e-09
1.05283e-09
1.00925e-09
1.00993e-09
1.00726e-09
1.05887e-09
1.11224e-09
1.23949e-09
1.23937e-09
1.23237e-09
1.23804e-09
1.25495e-09
1.2969e-09
1.54557e-09
1.37757e-09
1.15327e-09
1.38699e-09
4.67829e-06
6.29736e-08
2.06418e-09
9.61736e-10
9.59292e-10
9.43243e-10
9.48561e-10
9.83384e-10
9.83241e-10
1.01965e-09
9.61369e-10
9.1789e-10
9.44791e-10
9.42628e-10
9.58071e-10
9.76229e-10
9.49414e-10
9.15859e-10
9.1595e-10
9.33538e-10
9.66809e-10
9.69965e-10
9.86864e-10
9.90368e-10
1.02519e-09
9.49832e-10
9.24834e-10
9.69337e-10
9.52277e-10
9.50191e-10
9.75133e-10
9.83952e-10
9.83317e-10
9.87384e-10
1.02388e-09
9.97037e-10
9.64821e-10
1.01837e-09
1.0523e-09
1.0071e-09
1.07078e-09
1.05537e-09
1.09595e-09
1.082e-09
1.08911e-09
1.094e-09
1.27016e-09
1.15598e-09
1.12268e-09
1.32507e-09
1.38513e-09
1.53236e-09
1.46588e-09
1.53485e-09
4.67828e-06
6.29885e-08
2.07154e-09
9.64996e-10
9.62733e-10
9.45658e-10
9.52701e-10
9.9e-10
9.88384e-10
9.88762e-10
9.82397e-10
9.79648e-10
1.02009e-09
9.57808e-10
9.47135e-10
1.01262e-09
1.01516e-09
1.05125e-09
9.55094e-10
9.13487e-10
9.41739e-10
9.42339e-10
1.00647e-09
9.53123e-10
9.44977e-10
1.02568e-09
9.66219e-10
9.61246e-10
1.02369e-09
9.54899e-10
9.14558e-10
9.65165e-10
9.63837e-10
9.73758e-10
9.70126e-10