/*--------------------------------*- C++ -*----------------------------------*\
| =========                 |                                                 |
| \\      /  F ield         | OpenFOAM: The Open Source CFD Toolbox           |
|  \\    /   O peration     | Version:  4.1                                   |
|   \\  /    A nd           | Web:      www.OpenFOAM.org                      |
|    \\/     M anipulation  |                                                 |
\*---------------------------------------------------------------------------*/
FoamFile
{
    version     2.0;
    format      ascii;
    class       surfaceScalarField;
    location    "6";
    object      phi;
}
// * * * * * * * * * * * * * * * * * * * * * * * * * * * * * * * * * * * * * //

dimensions      [0 3 -1 0 0 0 0];

internalField   nonuniform List<scalar> 
11516
(
9.97538e+06
-2689.41
5303.76
9.84753e+06
-17788.2
15852.8
9.7186e+06
-19969.1
17066.1
9.58631e+06
-20321
18412.1
9.44858e+06
-20934.6
20442.6
9.30338e+06
-21396.8
22843.6
9.14952e+06
-22566.2
25865.9
8.98552e+06
-23953.8
29657.1
8.80923e+06
-24488.4
34174.4
8.61901e+06
-25977.5
40336.8
8.41185e+06
-26937
47939.5
8.18608e+06
-29269.3
56815.5
7.93837e+06
-32325.1
68363
7.65445e+06
-34715.7
83402
7.31515e+06
-41023.2
100439
6.90371e+06
-50894.2
125362
6.40716e+06
-59563.8
157577
5.82222e+06
-62460.5
204063
5.11731e+06
-70813.4
267253
4.25444e+06
-86183.9
341372
3.19389e+06
-103301
440056
1.89199e+06
-124317
581258
319218
-136963
778184
-1.64567e+06
-158117
1.06134e+06
-4.07822e+06
-197593
1.40778e+06
-7.2113e+06
-261532
1.92566e+06
-1.14146e+07
-421205
2.77887e+06
-1.77257e+07
-618383
4.61061e+06
-2.67656e+07
-564006
6.83883e+06
-3.22884e+07
-308148
3.4398e+06
-3.59181e+07
-390329
2.17607e+06
-3.87663e+07
-500543
1.81373e+06
-4.14466e+07
-628971
1.96178e+06
-4.46055e+07
-783157
2.738e+06
-4.83696e+07
-829314
3.57839e+06
-5.05377e+07
-686494
1.98276e+06
-5.18787e+07
-689538
1.17599e+06
-5.28647e+07
-809583
918591
-5.28888e+07
-925020
9880.27
-5.21936e+07
-1.04003e+06
-734952
-5.11722e+07
-1.17136e+06
-1.18172e+06
-4.98253e+07
-1.38885e+06
-1.68123e+06
-4.80952e+07
-1.60861e+06
-2.28826e+06
-4.57433e+07
-1.76778e+06
-2.98239e+06
-4.54886e+07
-1.59132e+06
-1.10694e+06
-5.31331e+07
-1.84899e+06
6.5538e+06
-6.40598e+07
-6.76253e+06
1.33828e+07
-5.87018e+07
-8.04639e+06
-1.59985e+06
-3.71268e+07
-3.95455e+06
-1.9983e+07
-3.25985e+06
-1.72396e+06
-3.4035e+07
5.00204e+07
-1.38878e+06
-5.2355e+07
1.13214e+08
-2.43907e+06
-6.18499e+07
1.75236e+08
-4.09547e+06
-5.96497e+07
-5.20183e+06
-1.886e+08
9.97282e+06
5067.22
9.84915e+06
15050.3
9.72096e+06
16142.9
9.58918e+06
17490.6
9.45195e+06
19248
9.30771e+06
21796.7
9.15453e+06
24950.9
8.99066e+06
28467.6
8.81569e+06
33095.9
8.6267e+06
39184.3
8.42124e+06
47097.3
8.19608e+06
56111.5
7.94463e+06
67901.6
7.65592e+06
81838.5
7.31097e+06
99884.4
6.8881e+06
124526
6.38432e+06
157545
5.79714e+06
200494
5.08898e+06
265239
4.21383e+06
340019
3.13892e+06
440574
1.81922e+06
584385
213636
783058
-1.79627e+06
1.06947e+06
-4.33592e+06
1.42972e+06
-7.68818e+06
1.97976e+06
-1.24442e+07
2.92801e+06
-1.99267e+07
5.02552e+06
-2.96759e+07
7.01812e+06
-3.50163e+07
3.26363e+06
-3.85759e+07
1.85123e+06
-4.15691e+07
1.41905e+06
-4.45769e+07
1.45946e+06
-4.82737e+07
2.13376e+06
-5.23994e+07
2.66881e+06
-5.46384e+07
1.01781e+06
-5.60299e+07
176025
-5.71181e+07
-271787
-5.75417e+07
-1.11284e+06
-5.73204e+07
-1.98869e+06
-5.66793e+07
-2.73429e+06
-5.56634e+07
-3.59526e+06
-5.38385e+07
-4.86099e+06
-5.04331e+07
-6.62834e+06
-4.73856e+07
-6.09093e+06
-4.94959e+07
-1.62353e+06
-5.93342e+07
104391
-6.14148e+07
-9.12079e+06
-4.2259e+07
-2.54201e+07
-6.0779e+06
-3.90675e+07
4.82161e+07
-5.63829e+07
1.09157e+08
-6.5016e+07
1.66397e+08
-6.27794e+07
-1.99458e+08
9.9859e+06
-2881.58
2714.08
9.86466e+06
-19275.1
17369.4
9.74455e+06
-21599.1
17575.7
9.62255e+06
-22050.6
18475.5
9.49638e+06
-22667.7
20677.6
9.36397e+06
-23639.5
24054.5
9.2235e+06
-24747.5
28774.1
9.07341e+06
-25985.3
35049.6
8.91127e+06
-27405.7
43818.7
8.73506e+06
-28895.3
54905.6
8.54198e+06
-30702.4
69070.7
8.32815e+06
-33030
86038.3
8.09201e+06
-34939.1
107590
7.81969e+06
-38854.1
132876
7.49451e+06
-44631.2
164865
7.09245e+06
-54750.6
206344
6.61102e+06
-63955.2
266556
6.04114e+06
-73243.3
346269
5.37166e+06
-82497.7
453421
4.54747e+06
-98074.1
586817
3.52419e+06
-118590
771565
2.27113e+06
-139711
1.02869e+06
757662
-160396
1.38395e+06
-1.0586e+06
-183565
1.86583e+06
-3.31282e+06
-220199
2.52449e+06
-6.17133e+06
-280767
3.49362e+06
-9.95311e+06
-393505
5.04902e+06
-1.50966e+07
-591939
7.87e+06
-2.25336e+07
-689714
1.18303e+07
-2.9712e+07
-448799
8.57564e+06
-3.56078e+07
-352058
6.80759e+06
-4.14159e+07
-358668
6.80924e+06
-4.71089e+07
-398927
7.16663e+06
-5.23072e+07
-429645
7.70324e+06
-5.66539e+07
-343259
7.76866e+06
-5.90255e+07
-164050
4.11941e+06
-5.90653e+07
-226753
1.02602e+06
-5.89915e+07
-372902
774911
-5.96681e+07
-499482
681431
-6.09771e+07
-626680
563592
-6.30118e+07
-737296
732336
-6.54824e+07
-828355
494011
-6.87051e+07
-873045
430709
-7.26595e+07
-671070
142238
-7.45254e+07
22140.2
-740605
-7.07291e+07
1.04864e+06
119646
-6.13782e+07
1.85486e+06
379146
-5.92614e+07
760820
-6.40293e+06
-6.46405e+07
280685
-1.68892e+07
-7.03261e+07
382475
-3.05046e+07
-7.41083e+07
501101
-5.12117e+07
-7.63159e+07
-911019
-6.16145e+07
-1.32396e+08
-7.71769e+06
1.21226e+06
-1.67931e+06
-2.01091e+07
9.98302e+06
2709.14
9.86559e+06
17209.6
9.74553e+06
17403.4
9.62335e+06
18304.1
9.49678e+06
20461.5
9.36392e+06
23883.7
9.22308e+06
28659.5
9.07244e+06
34854.4
8.90962e+06
43648.5
8.73268e+06
54797.3
8.53869e+06
68877.3
8.32456e+06
86078.3
8.08539e+06
107328
7.80988e+06
133138
7.47834e+06
165261
7.07456e+06
208143
6.58993e+06
267549
6.01734e+06
347815
5.33726e+06
454626
4.50079e+06
591143
3.4668e+06
777757
2.20072e+06
1.03873e+06
666496
1.39686e+06
-1.19182e+06
1.88765e+06
-3.5232e+06
2.56531e+06
-6.53925e+06
3.57579e+06
-1.06394e+07
5.22867e+06
-1.6367e+07
8.29875e+06
-2.43441e+07
1.21068e+07
-3.16671e+07
8.44048e+06
-3.7841e+07
6.56327e+06
-4.40714e+07
6.471e+06
-5.0341e+07
6.71002e+06
-5.62293e+07
7.13113e+06
-6.12477e+07
6.99733e+06
-6.38355e+07
3.15261e+06
-6.39876e+07
-204981
-6.43379e+07
-627587
-6.55612e+07
-781062
-6.74928e+07
-1.18526e+06
-7.01544e+07
-1.47298e+06
-7.31655e+07
-2.24729e+06
-7.68149e+07
-3.05007e+06
-8.07572e+07
-4.33997e+06
-8.16216e+07
-6.14926e+06
-7.69454e+07
-6.24748e+06
-6.90335e+07
-7.06153e+06
-6.5435e+07
-1.31654e+07
-6.85643e+07
-2.31699e+07
-7.21545e+07
-3.62548e+07
-7.3562e+07
-5.59646e+07
-7.69092e+07
-6.44157e+07
-1.51331e+08
2.6611e+06
-1.98809e+07
9.98268e+06
-2931.57
2241.5
9.85863e+06
-19447.6
21997.1
9.73539e+06
-21697.2
21663.4
9.60985e+06
-22112.5
22568.5
9.47973e+06
-22735.7
25431.1
9.34314e+06
-23658.5
30051.5
9.19851e+06
-24762.4
36545.6
9.04368e+06
-25990.1
45931.2
8.87767e+06
-27365.6
58042.7
8.69734e+06
-28956
74261.9
8.49981e+06
-30831.2
94533.1
8.28174e+06
-32970.4
119791
8.03954e+06
-35381.4
150801
7.76399e+06
-38870.7
187616
7.43702e+06
-44742.2
232809
7.03868e+06
-53924.1
293342
6.55898e+06
-64418.7
376249
5.99772e+06
-73576.5
488814
5.33557e+06
-83938
634103
4.53735e+06
-97770.3
825321
3.55533e+06
-118439
1.07874e+06
2.37339e+06
-138587
1.43068e+06
968520
-160623
1.90105e+06
-668260
-180972
2.53018e+06
-2.57631e+06
-209455
3.36848e+06
-4.76723e+06
-251777
4.52492e+06
-7.17725e+06
-320919
6.19345e+06
-9.5114e+06
-427925
8.75286e+06
-1.18064e+07
-465072
1.23693e+07
-1.6418e+07
-306752
1.16618e+07
-2.16084e+07
-243826
1.10023e+07
-2.69433e+07
-243815
1.15033e+07
-3.25072e+07
-275300
1.23862e+07
-3.7771e+07
-291082
1.28433e+07
-4.20892e+07
-243050
1.20767e+07
-4.5647e+07
-197798
7.72343e+06
-4.85175e+07
-338091
4.1263e+06
-5.11153e+07
-458726
3.74999e+06
-5.37301e+07
-530750
3.71855e+06
-5.64508e+07
-555732
3.64631e+06
-5.93404e+07
-591708
3.88711e+06
-6.26779e+07
-597680
3.96747e+06
-6.62078e+07
-565212
3.94756e+06
-7.00579e+07
-380607
3.74795e+06
-7.40727e+07
-35.9971
2.64618e+06
-7.56604e+07
371066
657866
-7.47069e+07
575884
-1.78176e+06
-7.56046e+07
588899
-6.645e+06
-7.85832e+07
846750
-1.52719e+07
-8.27637e+07
1.35092e+06
-2.82353e+07
-9.2938e+07
1.73739e+06
-4.34468e+07
-1.08279e+08
1.18167e+06
-4.84603e+07
-1.01976e+08
-2.44157e+06
-3.05347e+06
172363
9.38259e+07
9.97999e+06
2255.23
9.86013e+06
22199
9.73723e+06
21795.3
9.61181e+06
22693.2
9.48173e+06
25577.1
9.34514e+06
30249.6
9.20051e+06
36790.7
9.04559e+06
46231
8.87935e+06
58400.2
8.69863e+06
74684.6
8.50064e+06
94980.7
8.282e+06
120250
8.03825e+06
151093
7.7595e+06
188454
7.42777e+06
234330
7.0261e+06
296030
6.5452e+06
380195
5.97985e+06
492970
5.30997e+06
640412
4.49854e+06
833164
3.50763e+06
1.09346e+06
2.31137e+06
1.4484e+06
892346
1.92711e+06
-775078
2.5659e+06
-2.73438e+06
3.42586e+06
-5.01852e+06
4.62275e+06
-7.59091e+06
6.37546e+06
-1.01474e+07
9.10532e+06
-1.26946e+07
1.27461e+07
-1.75098e+07
1.17887e+07
-2.2959e+07
1.09741e+07
-2.86871e+07
1.1399e+07
-3.4807e+07
1.21811e+07
-4.0715e+07
1.25082e+07
-4.56622e+07
1.15754e+07
-4.98366e+07
7.06217e+06
-5.35779e+07
3.18486e+06
-5.72932e+07
2.64191e+06
-6.10318e+07
2.43121e+06
-6.48283e+07
2.01312e+06
-6.87872e+07
1.79069e+06
-7.31382e+07
1.34315e+06
-7.76033e+07
659490
-8.2112e+07
-374835
-8.60065e+07
-2.40248e+06
-8.71385e+07
-4.88948e+06
-8.60852e+07
-7.62676e+06
-8.61918e+07
-1.25077e+07
-8.76278e+07
-2.09466e+07
-8.91829e+07
-3.34704e+07
-9.59407e+07
-4.76738e+07
-1.10058e+08
-4.95409e+07
-1.06765e+08
-2.83855e+06
9.79582e+07
9.98251e+06
-2919.15
2455.81
9.85928e+06
-19274.6
26927.3
9.73707e+06
-21583.4
25840.5
9.61278e+06
-22001
26662.9
9.48421e+06
-22606.6
30096.6
9.34969e+06
-23484.9
35667.7
9.20698e+06
-24546.5
44306.8
9.05513e+06
-25755.5
55984
8.89228e+06
-27114.8
71367.4
8.71629e+06
-28659.6
91667.2
8.52354e+06
-30568.8
117356
8.31041e+06
-32782.9
149679
8.07324e+06
-35437.5
189139
7.80637e+06
-38471.6
236633
7.49384e+06
-43834.6
294822
7.11765e+06
-52208.5
370493
6.66738e+06
-62007.9
472731
6.13839e+06
-71591.2
611713
5.52353e+06
-80688.3
791114
4.79108e+06
-94303.7
1.02485e+06
3.91402e+06
-110438
1.33221e+06
2.8651e+06
-131141
1.7483e+06
1.64639e+06
-149740
2.2962e+06
268342
-167236
3.01359e+06
-1.24181e+06
-185464
3.93561e+06
-2.81076e+06
-208963
5.12849e+06
-4.24396e+06
-239602
6.67868e+06
-5.1064e+06
-281674
8.69055e+06
-4.83723e+06
-251414
1.11348e+07
-6.53782e+06
-181340
1.23963e+07
-9.79691e+06
-154366
1.35564e+07
-1.32843e+07
-157333
1.46036e+07
-1.68299e+07
-170711
1.58216e+07
-2.01712e+07
-180211
1.62943e+07
-2.29955e+07
-131658
1.51514e+07
-2.62723e+07
-117867
1.14215e+07
-2.98309e+07
-236687
8.4565e+06
-3.21532e+07
-343381
7.12236e+06
-3.31292e+07
-445608
5.96189e+06
-3.29535e+07
-537733
4.89455e+06
-3.16056e+07
-606923
4.06275e+06
-2.9794e+07
-652258
3.73245e+06
-2.83803e+07
-628227
4.10451e+06
-2.79056e+07
-451692
4.72267e+06
-2.83655e+07
-109356
4.26083e+06
-2.81156e+07
122753
1.38281e+06
-2.6365e+07
77357.5
-2.5536e+06
-2.62182e+07
-88764.3
-5.70296e+06
-2.80218e+07
56183.5
-1.25335e+07
-3.09782e+07
731469
-2.50597e+07
-4.20223e+07
1.83881e+06
-3.34156e+07
-6.26014e+07
3.15145e+06
-3.03603e+07
-4.40687e+07
-343511
-2.0103e+07
-9.74659e+06
-1.03113e+08
9.97979e+06
2451.62
9.86073e+06
27051.8
9.73892e+06
26056.4
9.61478e+06
26920.9
9.48628e+06
30394.6
9.35177e+06
36012.3
9.20905e+06
44703.2
9.05711e+06
56432.7
8.89406e+06
71877
8.71762e+06
92218
8.52437e+06
117920
8.31053e+06
150161
8.07259e+06
189660
7.80263e+06
237130
7.48588e+06
296190
7.1064e+06
373297
6.65416e+06
477053
6.12292e+06
615725
5.5001e+06
796549
4.7599e+06
1.03275e+06
3.87057e+06
1.34572e+06
2.81358e+06
1.76481e+06
1.5834e+06
2.32006e+06
188289
3.04393e+06
-1.35068e+06
3.98234e+06
-2.96337e+06
5.20307e+06
-4.46968e+06
6.80293e+06
-5.39989e+06
8.90435e+06
-5.17409e+06
1.14051e+07
-6.97906e+06
1.26092e+07
-1.04282e+07
1.36745e+07
-1.41854e+07
1.46331e+07
-1.81337e+07
1.57677e+07
-2.19355e+07
1.60855e+07
-2.51797e+07
1.47618e+07
-2.89588e+07
1.09295e+07
-3.34173e+07
7.75663e+06
-3.69274e+07
6.27174e+06
-3.93537e+07
4.94859e+06
-4.09056e+07
3.608e+06
-4.15132e+07
2.39015e+06
-4.17832e+07
1.55952e+06
-4.2371e+07
1.22159e+06
-4.34786e+07
901843
-4.47504e+07
-615949
-4.47945e+07
-4.09709e+06
-4.34663e+07
-8.28039e+06
-4.31028e+07
-1.24389e+07
-4.40983e+07
-1.94158e+07
-4.56786e+07
-3.06629e+07
-5.3301e+07
-3.77807e+07
-6.74704e+07
-3.16239e+07
-4.94866e+07
-2.02918e+07
-1.15779e+08
9.98249e+06
-2919.68
2669.16
9.8608e+06
-19194.8
31481.4
9.74024e+06
-21405.8
29824.2
9.61777e+06
-21788.5
30551.1
9.4913e+06
-22370.8
34453.2
9.35909e+06
-23225.5
40975.7
9.21957e+06
-24263.3
51093
9.0715e+06
-25457.7
64633.9
8.91296e+06
-26808.8
82875
8.74197e+06
-28373.9
106508
8.55514e+06
-30342.2
136343
8.34875e+06
-32738.1
174087
8.1199e+06
-35466
220353
7.86313e+06
-38652.8
276545
7.56837e+06
-43385.7
345257
7.21912e+06
-50797.6
431625
6.80586e+06
-59789.1
548942
6.31854e+06
-70663
701845
5.76083e+06
-79498.7
906091
5.10813e+06
-92399.4
1.16274e+06
4.35097e+06
-105646
1.50489e+06
3.45294e+06
-127883
1.94484e+06
2.43676e+06
-144968
2.52957e+06
1.31433e+06
-164357
3.27073e+06
151228
-177642
4.20306e+06
-963954
-192703
5.34495e+06
-1.85136e+06
-208167
6.7173e+06
-2.21958e+06
-224227
8.29696e+06
-1.71095e+06
-205904
9.89537e+06
-1.46271e+06
-160184
1.13797e+07
-2.16487e+06
-134720
1.36143e+07
-3.68468e+06
-128767
1.57443e+07
-5.33329e+06
-127510
1.73403e+07
-6.78174e+06
-125173
1.78072e+07
-7.62208e+06
-56722
1.61894e+07
-8.59705e+06
17008.3
1.275e+07
-1.05886e+07
-39169.8
1.11327e+07
-1.27009e+07
-162886
1.02962e+07
-1.43492e+07
-285482
9.02821e+06
-1.56028e+07
-399323
7.86629e+06
-1.63943e+07
-498085
6.78471e+06
-1.64188e+07
-565138
5.77153e+06
-1.50736e+07
-568799
4.72383e+06
-1.17791e+07
-456623
3.20014e+06
-6.72947e+06
-222500
683629
-1.12824e+06
-28374.3
-3.10123e+06
4.31113e+06
-47080.7
-7.02492e+06
3.60923e+06
-963456
-2.77524e+06
-4.54597e+06
-1.12707e+06
-2.09454e+06
-1.23241e+07
236102
-1.64771e+07
-2.27984e+07
1.51438e+06
-2.30208e+07
-3.43465e+07
3.06633e+06
-2.02936e+07
-4.47783e+07
930756
-9.21479e+06
-40045.6
-4.89902e+06
9.97979e+06
2682.09
9.86232e+06
31928.2
9.74211e+06
30229.7
9.61977e+06
30977.2
9.49338e+06
34942.2
9.36119e+06
41549.8
9.22165e+06
51768.6
9.07351e+06
65415.6
8.91476e+06
83782.1
8.74328e+06
107530
8.55586e+06
137562
8.34888e+06
175392
8.11916e+06
221721
7.86017e+06
278161
7.56166e+06
347777
7.2091e+06
436529
6.79182e+06
554464
6.30391e+06
710923
5.73914e+06
914909
5.0817e+06
1.17861e+06
4.30912e+06
1.52186e+06
3.40738e+06
1.97424e+06
2.37799e+06
2.56317e+06
1.24894e+06
3.31723e+06
68278.6
4.2618e+06
-1.06992e+06
5.42609e+06
-1.99457e+06
6.83041e+06
-2.40947e+06
8.45609e+06
-1.90748e+06
1.00819e+07
-1.63066e+06
1.15953e+07
-2.41645e+06
1.38773e+07
-4.13159e+06
1.59515e+07
-6.05911e+06
1.74467e+07
-7.82621e+06
1.77355e+07
-8.84742e+06
1.5874e+07
-9.93074e+06
1.23324e+07
-1.23719e+07
1.0647e+07
-1.52812e+07
9.6861e+06
-1.80253e+07
8.24301e+06
-2.07502e+07
6.91132e+06
-2.34199e+07
5.6255e+06
-2.56958e+07
4.35131e+06
-2.69179e+07
2.91736e+06
-2.6263e+07
760685
-2.38268e+07
-2.39941e+06
-2.07942e+07
-6.42584e+06
-1.80709e+07
-1.04513e+07
-1.84689e+07
-1.23319e+07
-2.2812e+07
-1.54713e+07
-2.80819e+07
-2.43484e+07
-3.65328e+07
-2.68064e+07
-4.45545e+07
-1.94155e+07
-5.32057e+07
-9.8346e+06
-7.63926e+06
9.98303e+06
-2890.75
2998.11
9.86301e+06
-18806.6
36269.4
9.74432e+06
-21083.6
33795.6
9.62402e+06
-21456.2
34351.2
9.50019e+06
-21989.4
38574.9
9.37087e+06
-22782.2
46151.3
9.23491e+06
-23749.7
57479
9.09083e+06
-24879.8
72788.3
8.93726e+06
-26158.4
93296.1
8.77234e+06
-27678.2
119502
8.59276e+06
-29541.3
152969
8.39492e+06
-31966.4
194735
8.17513e+06
-34778.8
246403
7.93028e+06
-37897.1
310055
7.65314e+06
-41969.5
387392
7.33438e+06
-47430.8
484466
6.95667e+06
-56632
609516
6.52055e+06
-65055.1
775421
6.01672e+06
-75413.5
991936
5.4539e+06
-82951
1.26876e+06
4.80248e+06
-97882.6
1.62176e+06
4.06411e+06
-112113
2.07626e+06
3.22957e+06
-131224
2.66413e+06
2.33802e+06
-145907
3.40124e+06
1.44495e+06
-157109
4.30789e+06
638777
-164962
5.38052e+06
44940.8
-172228
6.60388e+06
-171761
-179076
7.91997e+06
78550.6
-169291
9.15401e+06
760614
-131358
1.02757e+07
1.90442e+06
-96452.9
1.21198e+07
2.82597e+06
-75704.5
1.45999e+07
3.12107e+06
-73207.6
1.698e+07
2.95773e+06
-70528.1
1.80882e+07
3.12184e+06
-1276.11
1.62664e+07
3.57688e+06
131496
1.26384e+07
3.49606e+06
128977
1.1821e+07
2.64872e+06
55741.4
1.20778e+07
1.53665e+06
21037
1.14005e+07
568895
-14603.2
1.04652e+07
-170087
-102233
9.52748e+06
-619133
-274200
8.53797e+06
-564593
-529360
7.20492e+06
-165462
-636419
5.28368e+06
-749585
-88973.9
2.99388e+06
-6.01194e+06
1.74422e+06
1.84584e+06
-1.95857e+07
5.03308e+06
3.41003e+06
-2.41723e+07
5.05579e+06
108867
-1.29466e+07
-1.58108e+06
-8.92018e+06
-1.46537e+07
-1.38297e+06
-1.17214e+07
-2.92637e+07
1.25119e+06
-8.10935e+06
-3.55179e+07
3.13441e+06
-1.54703e+07
-3.53218e+07
1.34438e+06
-9.33151e+06
-251764
7.65436e+06
9.98031e+06
2989.12
9.86446e+06
36457.6
9.74621e+06
34117.7
9.62609e+06
34731.4
9.50237e+06
39004.4
9.37308e+06
46634.3
9.2371e+06
58019.8
9.09296e+06
73393.6
8.93916e+06
93959.4
8.77384e+06
120250
8.59355e+06
153800
8.39507e+06
195640
8.17458e+06
247333
7.92826e+06
310988
7.64876e+06
388966
7.32489e+06
487076
6.94599e+06
614489
6.50585e+06
781965
6.00232e+06
999383
5.42888e+06
1.27813e+06
4.77356e+06
1.63579e+06
4.02381e+06
2.09764e+06
3.18579e+06
2.68989e+06
2.28924e+06
3.43614e+06
1.38999e+06
4.35003e+06
571807
5.43621e+06
-43992.6
6.67861e+06
-309829
8.0192e+06
-108075
9.26473e+06
596849
1.03865e+07
1.7798e+06
1.23163e+07
2.60561e+06
1.48686e+07
2.67506e+06
1.72426e+07
2.20773e+06
1.81952e+07
2.21892e+06
1.60548e+07
2.8336e+06
1.22017e+07
2.89683e+06
1.12477e+07
1.92493e+06
1.14238e+07
432771
1.06599e+07
-1.2012e+06
9.63903e+06
-3.00778e+06
8.60646e+06
-5.04617e+06
7.4721e+06
-7.24224e+06
5.90929e+06
-9.52415e+06
3.60404e+06
-1.17412e+07
747622
-1.39474e+07
-1.60729e+06
-1.55536e+07
-2.87429e+06
-1.41948e+07
-7.39368e+06
-1.68973e+07
-1.29887e+07
-2.80394e+07
-1.35373e+07
-3.98675e+07
-1.2736e+07
-3.9508e+07
-1.55199e+07
-3.80625e+07
-9.29933e+06
6.4467e+06
9.98313e+06
-2890.68
3104.83
9.86553e+06
-18682.5
40031.4
9.74927e+06
-20825.7
37065.9
9.63158e+06
-21152.7
37420.2
9.51069e+06
-21662.8
41776.2
9.38479e+06
-22436.9
50098.8
9.25279e+06
-23389.6
62213.6
9.11335e+06
-24510.1
78739.3
8.96537e+06
-25796.5
100579
8.80662e+06
-27309.5
128928
8.63518e+06
-29187.6
164076
8.44686e+06
-31673.9
208241
8.23816e+06
-34640.6
263349
8.00668e+06
-37963.7
331430
7.74877e+06
-41673.2
414320
7.45794e+06
-46600
517393
7.12026e+06
-54339.2
645573
6.73478e+06
-62333.3
816474
6.29205e+06
-73430
1.03125e+06
5.80938e+06
-80783.1
1.31326e+06
5.26605e+06
-94141.9
1.65812e+06
4.67649e+06
-104796
2.10802e+06
4.01234e+06
-126541
2.66285e+06
3.32719e+06
-139309
3.3696e+06
2.6515e+06
-153255
4.2196e+06
2.06717e+06
-158700
5.21751e+06
1.65215e+06
-162706
6.3255e+06
1.49197e+06
-165845
7.48718e+06
1.58894e+06
-161976
8.58133e+06
1.95967e+06
-132412
9.52896e+06
2.97325e+06
-94407.8
1.08156e+07
4.63061e+06
-62853.9
1.27393e+07
6.49514e+06
-46130
1.50246e+07
7.75732e+06
-46988
1.68829e+07
8.06062e+06
1765.09
1.61313e+07
7.90979e+06
112110
1.30368e+07
8.27103e+06
131422
1.19032e+07
8.85286e+06
116201
1.21615e+07
8.98844e+06
127343
1.20739e+07
8.71267e+06
131663
1.16494e+07
8.10308e+06
87460.1
1.11421e+07
7.03929e+06
-28097
1.07163e+07
5.12278e+06
-174277
1.03111e+07
1.78736e+06
-147823
9.65973e+06
-2.99703e+06
264518
8.25303e+06
-7.51348e+06
1.04341e+06
5.90738e+06
-7.76463e+06
1.20338e+06
2.93165e+06
-7.56483e+06
520745
-11932.3
-8.83168e+06
-302791
-6.30027e+06
-1.11179e+07
-78183.2
-8.16682e+06
-1.99396e+07
581445
1.11541e+06
-2.61337e+07
2.93074e+06
-1.11438e+07
-1.63535e+07
1.74351e+06
-2.02059e+07
-394887
346308
9.98044e+06
3125.4
9.86707e+06
40636.1
9.75118e+06
37627.2
9.63365e+06
38011.6
9.51288e+06
42444.7
9.38702e+06
50871.1
9.255e+06
63104.1
9.11548e+06
79762.7
8.9673e+06
101738
8.80815e+06
130287
8.63598e+06
165656
8.44695e+06
210217
8.23754e+06
265596
8.00515e+06
333982
7.74517e+06
417739
7.45035e+06
521744
7.11065e+06
653901
6.72012e+06
824747
6.27874e+06
1.04559e+06
5.78754e+06
1.32662e+06
5.24323e+06
1.68242e+06
4.63723e+06
2.13248e+06
3.97535e+06
2.70321e+06
3.28178e+06
3.41371e+06
2.60736e+06
4.27618e+06
2.01623e+06
5.28294e+06
1.58758e+06
6.40368e+06
1.39029e+06
7.57926e+06
1.42484e+06
8.67973e+06
1.76381e+06
9.61221e+06
2.83427e+06
1.09314e+07
4.56336e+06
1.29402e+07
6.41037e+06
1.53052e+07
7.49437e+06
1.71206e+07
7.66302e+06
1.60643e+07
7.58927e+06
1.26994e+07
8.02642e+06
1.14067e+07
8.57386e+06
1.15888e+07
8.60755e+06
1.14321e+07
8.15357e+06
1.09457e+07
7.20798e+06
1.03771e+07
5.51916e+06
9.85826e+06
2.6215e+06
9.3135e+06
-1.68301e+06
8.36591e+06
-6.49089e+06
6.32297e+06
-9.61873e+06
2.95375e+06
-1.07094e+07
-236674
-1.51781e+07
-1.92309e+06
-1.83586e+07
-9.39711e+06
-2.24861e+07
-8.82909e+06
-3.09674e+07
-3.04736e+06
-3.06884e+07
-1.23365e+07
-1.83819e+07
-1.95593e+07
93930.4
9.98386e+06
-2849.82
3357.71
9.86856e+06
-18152.8
44060.6
9.75484e+06
-20375.4
40293.4
9.64001e+06
-20690.2
40388.3
9.52227e+06
-21144.1
44940.9
9.4002e+06
-21844.4
53751.5
9.27266e+06
-22719.6
66431
9.13803e+06
-23759
84241.1
8.99541e+06
-24973
107282
8.84378e+06
-26364.4
136770
8.6804e+06
-28123.4
173605
8.50242e+06
-30347.6
219563
8.30617e+06
-33232.4
276721
8.08876e+06
-36493.8
347669
7.85016e+06
-39643.4
435155
7.5836e+06
-44100.6
541559
7.28807e+06
-48580.4
674709
6.94552e+06
-57895.1
841856
6.56949e+06
-64452.3
1.05768e+06
6.15133e+06
-74623.7
1.32972e+06
5.71967e+06
-79240.4
1.67081e+06
5.24627e+06
-93561.4
2.09124e+06
4.75342e+06
-104954
2.61624e+06
4.24127e+06
-121095
3.27016e+06
3.75676e+06
-130975
4.06652e+06
3.34319e+06
-136121
4.99587e+06
3.06115e+06
-137914
6.01698e+06
2.96046e+06
-140320
7.07575e+06
3.0399e+06
-141411
8.09545e+06
3.26406e+06
-129448
8.99848e+06
3.87022e+06
-101420
9.99345e+06
5.08858e+06
-73324.9
1.13867e+07
6.83451e+06
-54837.9
1.32429e+07
8.59969e+06
-52994.4
1.52092e+07
9.59204e+06
-12280.6
1.53428e+07
9.81913e+06
87966
1.30779e+07
1.03771e+07
141005
1.17412e+07
1.1394e+07
145042
1.16897e+07
1.23367e+07
136769
1.17755e+07
1.29195e+07
116974
1.17587e+07
1.30892e+07
76603
1.16942e+07
1.29987e+07
9277.76
1.15565e+07
1.2824e+07
-40413.9
1.12185e+07
1.24008e+07
20088.6
1.06564e+07
1.10946e+07
226744
9.80888e+06
8.49944e+06
510913
8.32532e+06
4.50184e+06
435105
6.71195e+06
-1.31233e+06
-273725
6.2131e+06
-1.08715e+07
-949098
4.39533e+06
-1.46436e+07
-696584
-3.46814e+06
-1.33788e+07
1.19736e+06
-1.03966e+06
-2.15969e+07
3.01519e+06
-5.67449e+06
-3.09214e+07
3.6231e+06
-1.424e+07
277374
-4.21166e+06
9.98114e+06
3349.47
9.87e+06
44288
9.75678e+06
40678.8
9.64216e+06
40835
9.52457e+06
45433.6
9.40254e+06
54289.1
9.275e+06
67016.6
9.14029e+06
84872.9
8.99753e+06
107975
8.84551e+06
137533
8.68158e+06
174531
8.50275e+06
220699
8.30581e+06
278085
8.088e+06
349292
7.84749e+06
436755
7.57986e+06
544461
7.27823e+06
678493
6.93668e+06
848876
6.55543e+06
1.06634e+06
6.14099e+06
1.34076e+06
5.69721e+06
1.68356e+06
5.22338e+06
2.11021e+06
4.72115e+06
2.64247e+06
4.2103e+06
3.30326e+06
3.72595e+06
4.10831e+06
3.31053e+06
5.04314e+06
3.01797e+06
6.07131e+06
2.88807e+06
7.13995e+06
2.90318e+06
8.16684e+06
3.04679e+06
9.06344e+06
3.61587e+06
1.00652e+07
4.85484e+06
1.1512e+07
6.61694e+06
1.34558e+07
8.29525e+06
1.54523e+07
9.15625e+06
1.53576e+07
9.41139e+06
1.28174e+07
1.00747e+07
1.12928e+07
1.11503e+07
1.11666e+07
1.20634e+07
1.12153e+07
1.25206e+07
1.11737e+07
1.2443e+07
1.10825e+07
1.19464e+07
1.08809e+07
1.1281e+07
1.04006e+07
1.03524e+07
9.70145e+06
8.59681e+06
8.59913e+06
5.57552e+06
6.68077e+06
972113
4.91308e+06
-5.90344e+06
4.78643e+06
-1.75923e+07
1.46914e+06
-2.22097e+07
-4.68924e+06
-2.21115e+07
-1.82371e+06
-2.60137e+07
-5.19517e+06
-2.7893e+07
-1.39817e+07
-4.75234e+06
9.98396e+06
-2846.64
3325
9.87171e+06
-18007.2
46615.2
9.76105e+06
-20073.4
42412
9.64943e+06
-20341.1
42195
9.53523e+06
-20779.2
46694.6
9.41713e+06
-21473.1
55606.8
9.2939e+06
-22349.3
68545.5
9.16452e+06
-23403.6
86646.3
9.02772e+06
-24629.8
110337
8.88272e+06
-26036
140202
8.72804e+06
-27737.7
177221
8.56073e+06
-29890.1
223586
8.37741e+06
-32745.8
280797
8.17601e+06
-36022.7
351953
7.95533e+06
-39544.3
440095
7.71485e+06
-43172.7
547047
7.45228e+06
-47512
679360
7.15705e+06
-54885.1
839294
6.83744e+06
-61198.2
1.0467e+06
6.48952e+06
-71164.9
1.29826e+06
6.14417e+06
-75879.3
1.6185e+06
5.78601e+06
-87990
1.99611e+06
5.44472e+06
-96104.8
2.47587e+06
5.103e+06
-112870
3.06055e+06
4.79244e+06
-120245
3.80228e+06
4.52056e+06
-127382
4.67715e+06
4.34121e+06
-128974
5.63607e+06
4.29661e+06
-129177
6.62332e+06
4.3961e+06
-130057
7.58738e+06
4.60652e+06
-126352
8.47831e+06
5.02991e+06
-111782
9.35431e+06
5.87577e+06
-90533.2
1.04118e+07
7.27234e+06
-71510.6
1.18078e+07
9.13123e+06
-62317
1.34195e+07
1.06846e+07
-23447
1.39511e+07
1.13895e+07
65292.8
1.25968e+07
1.20989e+07
136868
1.1341e+07
1.32531e+07
159332
1.0958e+07
1.46004e+07
150287
1.09449e+07
1.59065e+07
123475
1.10209e+07
1.70882e+07
90037.7
1.10909e+07
1.81108e+07
40062
1.11042e+07
1.88791e+07
-567.227
1.09721e+07
1.91544e+07
6837.38
1.07785e+07
1.83477e+07
76687.4
1.08144e+07
1.57935e+07
192595
1.08372e+07
1.14687e+07
121677
1.09688e+07
5.78419e+06
-448801
1.23407e+07
-2.96724e+06
-1.86435e+06
1.49197e+07
-2.01714e+07
-1.2648e+06
1.47858e+07
-3.05044e+07
1.4772e+06
7.35071e+06
-4.02184e+07
3.29794e+06
560899
-5.68149e+07
3.91035e+06
-1.68963e+06
255107
6.50202e+06
9.9813e+06
3355.7
9.87328e+06
47343.6
9.76301e+06
43092
9.65158e+06
42906.8
9.53752e+06
47487.1
9.41946e+06
56504.8
9.29622e+06
69566.8
9.16678e+06
87799.4
9.02984e+06
111651
8.88456e+06
141694
8.72936e+06
179045
8.56119e+06
225803
8.37716e+06
283674
8.17507e+06
355354
7.95368e+06
444054
7.71159e+06
552386
7.44495e+06
685416
7.14926e+06
850622
6.8246e+06
1.05753e+06
6.48021e+06
1.31676e+06
6.12571e+06
1.63537e+06
5.76893e+06
2.02547e+06
5.41541e+06
2.50678e+06
5.07925e+06
3.10665e+06
4.76504e+06
3.85298e+06
4.49495e+06
4.73712e+06
4.31077e+06
5.70018e+06
4.24803e+06
6.69153e+06
4.30248e+06
7.66007e+06
4.43687e+06
8.54854e+06
4.78355e+06
9.42241e+06
5.58633e+06
1.05043e+07
6.96503e+06
1.1964e+07
8.76733e+06
1.36259e+07
1.02118e+07
1.40221e+07
1.08963e+07
1.24371e+07
1.16778e+07
1.0996e+07
1.2921e+07
1.05234e+07
1.43047e+07
1.04784e+07
1.55652e+07
1.05435e+07
1.66185e+07
1.06004e+07
1.73952e+07
1.0575e+07
1.78124e+07
1.03451e+07
1.77063e+07
1.00947e+07
1.65217e+07
1.00541e+07
1.36715e+07
9.84306e+06
8.96715e+06
9.80929e+06
1.92985e+06
1.13974e+07
-1.25662e+07
1.40737e+07
-3.1435e+07
1.26678e+07
-3.84699e+07
6.43796e+06
-4.17968e+07
1.19459e+06
-5.13814e+07
-618227
2.93098e+06
9.98482e+06
-2793.83
3495.76
9.8753e+06
-17367
49552.9
9.76764e+06
-19526
44525.8
9.65934e+06
-19786.1
43940.6
9.54883e+06
-20168.5
48373.9
9.43485e+06
-20791.2
57365
9.31622e+06
-21587.8
70501.9
9.19189e+06
-22564.4
88871.1
9.06098e+06
-23696.9
112874
8.92267e+06
-25005.3
143005
8.77613e+06
-26472.1
180268
8.6194e+06
-28367.5
226483
8.4497e+06
-30741.1
283657
8.26408e+06
-33769.7
354482
8.06124e+06
-37102.4
441889
7.84444e+06
-39804.6
549528
7.60828e+06
-44108.9
678171
7.35911e+06
-47110.3
836404
7.08206e+06
-55497.9
1.02776e+06
6.80347e+06
-59414.8
1.26584e+06
6.51962e+06
-67884.8
1.55062e+06
6.27631e+06
-69727.2
1.89542e+06
6.06289e+06
-79847.5
2.30056e+06
5.90913e+06
-86379.3
2.82557e+06
5.76622e+06
-95415.6
3.53231e+06
5.61678e+06
-99896.7
4.38198e+06
5.51681e+06
-101888
5.29998e+06
5.52447e+06
-102830
6.21962e+06
5.66944e+06
-104671
7.10988e+06
5.93649e+06
-106386
7.95606e+06
6.36005e+06
-104103
8.75451e+06
7.0759e+06
-95162.2
9.5971e+06
8.25573e+06
-82381.4
1.06074e+07
9.97092e+06
-68523.8
1.17742e+07
1.16894e+07
-29674.9
1.23852e+07
1.27557e+07
48343.1
1.17466e+07
1.35924e+07
125742
1.0793e+07
1.46749e+07
168590
1.02569e+07
1.60146e+07
176218
1.00687e+07
1.74749e+07
156457
1.00711e+07
1.89095e+07
119983
1.01725e+07
2.01851e+07
68158.4
1.03275e+07
2.11474e+07
20466.7
1.04657e+07
2.16438e+07
-1794.66
1.06617e+07
2.14349e+07
10435.2
1.12921e+07
2.01095e+07
68551.6
1.22891e+07
1.76109e+07
54615.4
1.3526e+07
1.45013e+07
-288561
1.57525e+07
1.11556e+07
-1.30454e+06
1.94391e+07
4.1123e+06
-2.03415e+06
2.34819e+07
-1.1158e+07
-761276
2.27578e+07
-3.22654e+07
2.50936e+06
1.84143e+07
-6.07181e+07
5.75344e+06
2.05612e+07
130239
5.58857e+07
9.98212e+06
3490.38
9.87676e+06
49806.5
9.76962e+06
44953.1
9.66157e+06
44428.5
9.55123e+06
48900.3
9.4373e+06
57926.5
9.31866e+06
71097.7
9.19429e+06
89506.9
9.06326e+06
113550
8.92481e+06
143769
8.77781e+06
181164
8.6205e+06
227685
8.4499e+06
285248
8.26359e+06
356481
8.0608e+06
444401
7.84181e+06
551953
7.606e+06
682445
7.35054e+06
841375
7.07672e+06
1.03668e+06
6.79257e+06
1.27638e+06
6.5144e+06
1.56466e+06
6.26133e+06
1.90967e+06
6.0496e+06
2.32144e+06
5.89046e+06
2.85911e+06
5.74935e+06
3.5811e+06
5.59907e+06
4.42911e+06
5.49516e+06
5.34809e+06
5.48985e+06
6.26992e+06
5.60214e+06
7.16524e+06
5.80544e+06
8.01515e+06
6.14244e+06
8.81634e+06
6.77507e+06
9.67251e+06
7.89585e+06
1.07232e+07
9.55488e+06
1.19356e+07
1.11878e+07
1.24834e+07
1.22129e+07
1.16812e+07
1.30928e+07
1.05621e+07
1.42724e+07
9.91794e+06
1.57097e+07
9.67547e+06
1.7221e+07
9.65718e+06
1.86303e+07
9.75227e+06
1.97697e+07
9.89234e+06
2.04817e+07
9.97626e+06
2.06725e+07
1.01518e+07
2.01297e+07
1.07882e+07
1.8486e+07
1.16773e+07
1.56306e+07
1.27836e+07
1.16137e+07
1.51225e+07
5.11796e+06
1.91516e+07
-7.82179e+06
2.33263e+07
-2.56961e+07
2.31122e+07
-4.09069e+07
1.85783e+07
-5.61831e+07
2.02187e+07
5.73937e+07
9.98493e+06
-2785.98
3341.41
9.87887e+06
-17209.3
50713.7
9.77465e+06
-19198.3
45249.8
9.66991e+06
-19414.1
44226.7
9.56325e+06
-19789.9
48319.2
9.4535e+06
-20418.3
56983.1
9.33934e+06
-21231
70004.9
9.22017e+06
-22229.8
87864.9
9.09519e+06
-23396.5
111302
8.96352e+06
-24704.7
141125
8.82478e+06
-26140.5
177852
8.67834e+06
-27862.1
222732
8.52178e+06
-30021.2
278329
8.35221e+06
-32917.7
346596
8.16823e+06
-36131.1
431534
7.97105e+06
-39421.4
535546
7.76237e+06
-42519.5
660263
7.54499e+06
-45702.9
811409