/*--------------------------------*- C++ -*----------------------------------*\
| =========                 |                                                 |
| \\      /  F ield         | OpenFOAM: The Open Source CFD Toolbox           |
|  \\    /   O peration     | Version:  4.1                                   |
|   \\  /    A nd           | Web:      www.OpenFOAM.org                      |
|    \\/     M anipulation  |                                                 |
\*---------------------------------------------------------------------------*/
FoamFile
{
    version     2.0;
    format      ascii;
    class       volVectorField;
    location    "6";
    object      U;
}
// * * * * * * * * * * * * * * * * * * * * * * * * * * * * * * * * * * * * * //

dimensions      [0 1 -1 0 0 0 0];

internalField   nonuniform List<vector> 
4432
(
(40.0043 -0.00185056 0.0443367)
(39.6511 -0.0365875 0.0774394)
(39.1608 -0.0494323 0.0837047)
(38.6296 -0.0552892 0.0890603)
(38.082 -0.0604121 0.0967064)
(37.5164 -0.0646834 0.101956)
(36.9119 -0.0702258 0.108685)
(36.2782 -0.0751905 0.118016)
(35.5967 -0.0785038 0.125566)
(34.8606 -0.0841369 0.139295)
(34.0749 -0.0877895 0.152231)
(33.1908 -0.094604 0.174361)
(32.262 -0.102671 0.205076)
(31.2025 -0.108892 0.231439)
(29.9454 -0.123176 0.265709)
(28.4788 -0.145343 0.31619)
(26.6469 -0.164942 0.37886)
(24.5203 -0.17399 0.463206)
(21.9979 -0.19521 0.565284)
(18.724 -0.230956 0.707753)
(15.1396 -0.269684 0.891145)
(10.1867 -0.318573 1.16816)
(4.90438 -0.350755 1.52573)
(-2.34496 -0.400296 2.06975)
(-10.9769 -0.484966 2.74298)
(-21.4449 -0.616558 3.73766)
(-36.2324 -0.936945 5.42485)
(-53.1576 -1.30016 8.56123)
(-90.8985 -1.08115 5.21801)
(-127.651 -0.268431 -14.327)
(-136.002 -0.367457 -18.836)
(-148.143 -0.539119 -22.2103)
(-159.111 -0.770194 -24.8147)
(-168.632 -1.05101 -26.3638)
(-182.822 -1.03816 -30.4909)
(-200.868 -0.536151 -42.7152)
(-209.258 -0.414509 -51.1759)
(-209.247 -0.610749 -54.4111)
(-213.547 -0.760504 -59.9951)
(-210.926 -0.850625 -65.0672)
(-207.403 -0.913059 -69.0762)
(-202.504 -1.18205 -72.2431)
(-197.038 -1.44769 -74.7836)
(-185.775 -1.61425 -72.6048)
(-172.673 -0.98548 -51.0271)
(-177.521 -1.22228 -4.26456)
(-259.123 -12.7122 34.119)
(-289.11 -13.0554 -21.8996)
(-173.223 -3.68647 -83.9969)
(-64.7509 1.34677 -135.499)
(60.3018 2.21266 -203.175)
(320.784 -0.921937 -214.47)
(577.37 -4.08748 -184.236)
(1133.78 -4.81659 -601.341)
(40.0033 -0.00184955 0.043982)
(39.6458 -0.0365896 0.0757012)
(39.1672 -0.0493821 0.081249)
(38.64 -0.055183 0.0870632)
(38.0963 -0.0602127 0.092136)
(37.5272 -0.0645131 0.100988)
(36.9371 -0.0697801 0.108232)
(36.2955 -0.0748351 0.112974)
(35.6169 -0.0780451 0.125552)
(34.8948 -0.0834438 0.138566)
(34.0989 -0.0870841 0.157288)
(33.245 -0.093384 0.179726)
(32.2883 -0.101608 0.202304)
(31.2181 -0.107716 0.226026)
(29.942 -0.121864 0.261278)
(28.4584 -0.144068 0.302639)
(26.5408 -0.164863 0.365575)
(24.4246 -0.173379 0.451081)
(21.8935 -0.194004 0.561609)
(18.6063 -0.229283 0.705228)
(14.9337 -0.268398 0.893381)
(9.96408 -0.31677 1.17437)
(4.51819 -0.349733 1.5393)
(-2.82568 -0.398585 2.09076)
(-11.7055 -0.483895 2.79061)
(-22.8706 -0.620409 3.85713)
(-38.4915 -0.951335 5.72572)
(-58.7346 -1.38316 9.50939)
(-103.847 -1.04582 4.34367)
(-138.754 -0.0316172 -15.9826)
(-146.23 -0.0608855 -21.0694)
(-158.926 -0.179907 -24.7521)
(-170.768 -0.350754 -27.7702)
(-181.948 -0.567593 -29.6711)
(-198.543 -0.445707 -35.2352)
(-217.28 0.112054 -47.6441)
(-225.57 0.29564 -55.5596)
(-225.961 0.154223 -60.0987)
(-230.985 0.0194205 -66.1287)
(-230.742 -0.0104429 -71.1378)
(-228.524 0.0109161 -76.1218)
(-225.216 -0.150731 -80.3641)
(-220.706 -0.25507 -84.9192)
(-207.285 -0.0789408 -85.7769)
(-190.061 0.944997 -68.7875)
(-181.867 1.50082 -35.9613)
(-220.346 -5.57879 -18.7834)
(-287.369 -9.63162 -50.7919)
(-200.813 -2.17593 -104.724)
(-78.8012 3.08524 -152.636)
(54.2938 4.13807 -215.509)
(310.435 0.966466 -222.066)
(558.741 -2.11728 -189.74)
(1090.72 -1.83472 -615.446)
(40.0255 -0.00190777 0.00481176)
(39.7047 -0.0395592 0.0505426)
(39.2465 -0.0533202 0.0526221)
(38.753 -0.0597356 0.056597)
(38.2502 -0.0652442 0.0640891)
(37.73 -0.0708797 0.0758009)
(37.1828 -0.0763035 0.0910792)
(36.6002 -0.0817639 0.111383)
(35.9752 -0.0873398 0.138911)
(35.2991 -0.0927245 0.173068)
(34.5607 -0.098703 0.216904)
(33.7466 -0.105721 0.26703)
(32.848 -0.111653 0.330948)
(31.8335 -0.121417 0.415307)
(30.643 -0.135001 0.512922)
(29.1995 -0.15785 0.646012)
(27.4407 -0.180027 0.833336)
(25.3506 -0.203305 1.09282)
(22.8805 -0.226914 1.44746)
(19.9123 -0.263104 1.86182)
(16.2606 -0.310858 2.44366)
(11.7587 -0.361841 3.25493)
(6.29998 -0.413316 4.40759)
(-0.26142 -0.47014 5.97116)
(-8.20661 -0.55403 8.03644)
(-18.0179 -0.686883 11.138)
(-30.3256 -0.926597 16.196)
(-44.8593 -1.33956 26.5628)
(-74.3124 -1.52573 41.8611)
(-114.112 -0.789264 25.9272)
(-128.736 -0.575375 16.9786)
(-152.424 -0.575266 15.2558)
(-175.042 -0.640986 15.7936)
(-196.308 -0.680738 18.6127)
(-218.842 -0.375641 21.6613)
(-240.491 0.299292 11.9336)
(-237.96 0.436725 6.46679)
(-233.409 0.306058 8.49606)
(-237.679 0.237786 8.50728)
(-241.102 0.136851 7.85812)
(-247.878 0.108073 7.48986)
(-257.612 0.124959 4.93111)
(-267.226 0.268424 1.00297)
(-282.313 1.01499 -9.53346)
(-299.159 2.9949 -24.5866)
(-291.69 5.70494 -30.0972)
(-259.663 7.78525 -42.7903)
(-240.851 6.09657 -70.3382)
(-243.184 5.90861 -101.836)
(-256.333 7.03467 -145.353)
(-286.529 8.06029 -218.308)
(-323.526 4.65567 -260.364)
(-612.339 -11.086 -100.496)
(-666.324 -1.53595 -290.72)
(40.0243 -0.00190637 0.004443)
(39.6972 -0.0395656 0.0485031)
(39.2489 -0.0532602 0.0501844)
(38.757 -0.059598 0.0538634)
(38.2531 -0.065026 0.0612382)
(37.7309 -0.0705825 0.0720882)
(37.1818 -0.0759149 0.0878758)
(36.5977 -0.0812871 0.108407)
(35.9701 -0.0867671 0.134342)
(35.2909 -0.0920452 0.169193)
(34.5495 -0.0979085 0.211437)
(33.7331 -0.104786 0.262654)
(32.8279 -0.11058 0.329518)
(31.8011 -0.120194 0.412761)
(30.5922 -0.133612 0.513107)
(29.1314 -0.156296 0.651754)
(27.3624 -0.178276 0.837979)
(25.2591 -0.201191 1.08823)
(22.7684 -0.224302 1.44381)
(19.7525 -0.26025 1.86749)
(16.0543 -0.30781 2.45554)
(11.5048 -0.358405 3.28136)
(5.98243 -0.409386 4.43964)
(-0.693638 -0.465756 6.02971)
(-8.85158 -0.549743 8.16415)
(-19.0797 -0.684401 11.4145)
(-32.1679 -0.931089 16.8915)
(-48.0168 -1.36727 28.2656)
(-81.8492 -1.44602 42.6011)
(-121.444 -0.505369 24.8406)
(-136.926 -0.252199 15.5927)
(-162.027 -0.214591 13.5706)
(-186.646 -0.241006 13.7371)
(-210.512 -0.236745 16.1693)
(-236.074 0.130946 18.4869)
(-259.908 0.884501 8.24169)
(-256.867 1.09968 2.04235)
(-253.877 1.01082 3.70011)
(-259.973 0.977342 4.21557)
(-265.947 0.944503 2.55865)
(-275.184 1.00115 0.844879)
(-287.27 1.10963 -3.29227)
(-298.817 1.35495 -9.83219)
(-315.069 2.25496 -24.1849)
(-330.683 4.32255 -41.5082)
(-318.391 7.0518 -48.5724)
(-287.166 9.11371 -63.0158)
(-269.329 7.53471 -91.8417)
(-264.002 7.39388 -124.113)
(-268.708 8.48831 -166.52)
(-289.174 9.52457 -237.116)
(-317.808 6.08843 -275.059)
(-675.911 -11.1639 -102.815)
(-748.837 -1.48533 -321.113)
(40.0203 -0.00197159 0.00915232)
(39.6867 -0.0399327 0.0803556)
(39.2165 -0.0536122 0.0811968)
(38.7099 -0.0599935 0.0855554)
(38.1919 -0.0655341 0.0964751)
(37.6554 -0.0710969 0.113173)
(37.091 -0.0765708 0.136752)
(36.491 -0.0819748 0.168565)
(35.8489 -0.087445 0.210698)
(35.1562 -0.0931358 0.265989)
(34.4012 -0.0992544 0.336297)
(33.5703 -0.105829 0.422446)
(32.6501 -0.112852 0.528265)
(31.6167 -0.121879 0.653045)
(30.4173 -0.135661 0.809135)
(28.976 -0.156573 1.01516)
(27.2306 -0.181386 1.30285)
(25.1563 -0.20441 1.68987)
(22.7203 -0.230143 2.19769)
(19.8182 -0.26293 2.8531)
(16.2906 -0.310797 3.73681)
(12.0056 -0.359456 4.964)
(6.88747 -0.413627 6.63244)
(0.876118 -0.465131 8.88299)
(-6.08992 -0.533156 11.9235)
(-14.0458 -0.630534 16.2506)
(-22.7173 -0.786255 22.8124)
(-30.4726 -1.0287 33.7045)
(-40.0188 -1.14812 49.9932)
(-61.5579 -0.741532 39.9591)
(-75.2333 -0.628614 34.0681)
(-95.8536 -0.604522 35.2496)
(-116.906 -0.607822 37.965)
(-138.412 -0.541518 40.8746)
(-161.601 -0.29454 41.2711)
(-183.469 0.0279933 26.3796)
(-186.443 -0.036318 12.0006)
(-197.954 -0.116702 9.29534)
(-210.431 -0.124208 7.13016)
(-220.852 -0.0424214 4.55745)
(-231.716 0.0279422 3.397)
(-243.9 0.179273 0.0689162)
(-257.824 0.445496 -3.09165)
(-272.061 1.15339 -4.98294)
(-289.854 2.41342 -10.3306)
(-301.197 3.56834 -20.2367)
(-299.717 4.29808 -35.1622)
(-300.451 4.78088 -64.3909)
(-307.2 6.00612 -103.38)
(-317.743 8.10801 -150.46)
(-322.659 9.83269 -215.71)
(-392.631 8.12314 -250.622)
(-524.452 -1.94869 -52.1558)
(-576.269 0.914924 -56.8437)
(40.0192 -0.00197025 0.00911088)
(39.6807 -0.0399381 0.0804911)
(39.2217 -0.0535502 0.0812722)
(38.7178 -0.0598526 0.0856779)
(38.2002 -0.0653119 0.0966438)
(37.6636 -0.0707913 0.113566)
(37.0991 -0.0761771 0.13725)
(36.4989 -0.0814869 0.169256)
(35.8562 -0.0868556 0.211678)
(35.1623 -0.0924392 0.266926)
(34.4055 -0.0984391 0.33723)
(33.5725 -0.104879 0.423947)
(32.6482 -0.111754 0.528496)
(31.6058 -0.120618 0.655371)
(30.3908 -0.134224 0.813165)
(28.9328 -0.154939 1.02407)
(27.1773 -0.17952 1.31268)
(25.0932 -0.20214 1.70143)
(22.6352 -0.227413 2.21303)
(19.6924 -0.25986 2.8773)
(16.1194 -0.307427 3.77902)
(11.7883 -0.355572 5.02005)
(6.61285 -0.409152 6.7117)
(0.522049 -0.459896 8.99964)
(-6.59507 -0.527418 12.124)
(-14.809 -0.624831 16.6182)
(-23.9175 -0.782429 23.5514)
(-32.2142 -1.03094 35.2689)
(-43.4969 -1.0834 51.1731)
(-65.5747 -0.504844 39.6799)
(-80.0049 -0.367624 33.4165)
(-101.912 -0.307248 34.2918)
(-124.746 -0.260805 36.6146)
(-148.938 -0.133646 39.1604)
(-174.801 0.190868 38.8951)
(-198.629 0.61262 23.2262)
(-204.699 0.670987 7.52481)
(-220.273 0.684994 3.94313)
(-237.454 0.783602 0.978964)
(-252.308 0.988424 -2.92915)
(-267.303 1.2055 -6.10458)
(-283.697 1.50036 -11.6654)
(-301.463 1.91821 -17.5152)
(-319.453 2.76804 -22.9204)
(-338.763 4.15145 -32.1265)
(-348.131 5.42722 -44.3324)
(-345.407 6.24988 -60.2978)
(-344.873 6.83484 -87.6176)
(-347.287 8.17212 -124.997)
(-350.383 10.3902 -170.792)
(-342.934 12.1615 -232.63)
(-398.942 10.0726 -258.305)
(-526.442 -0.990892 -53.085)
(-612.355 1.24057 -58.9178)
(40.0199 -0.00194841 0.00958103)
(39.6882 -0.0395916 0.0976609)
(39.2211 -0.0534057 0.0945465)
(38.7189 -0.0597954 0.097743)
(38.2066 -0.0652936 0.110023)
(37.677 -0.0707616 0.130468)
(37.1209 -0.0761511 0.160414)
(36.5311 -0.0815119 0.201887)
(35.9012 -0.0869267 0.257342)
(35.2232 -0.0925161 0.32964)
(34.4857 -0.0987042 0.422004)
(33.6746 -0.105422 0.537454)
(32.7752 -0.11299 0.678418)
(31.7683 -0.121203 0.847785)
(30.6138 -0.133918 1.05548)
(29.2448 -0.1532 1.32861)
(27.6014 -0.176335 1.69989)
(25.65 -0.200075 2.20557)
(23.371 -0.223085 2.85704)
(20.6896 -0.255526 3.71014)
(17.4947 -0.293842 4.83575)
(13.6791 -0.343149 6.37675)
(9.18404 -0.390158 8.42091)
(4.03954 -0.436037 11.1244)
(-1.6647 -0.483995 14.6534)
(-7.69039 -0.543895 19.3489)
(-13.3953 -0.622893 25.7307)
(-17.1278 -0.736994 34.6202)
(-18.4301 -0.73943 46.3047)
(-23.6068 -0.682852 50.793)
(-32.4538 -0.674478 51.5382)
(-45.7863 -0.672951 53.8226)
(-59.291 -0.634401 57.7362)
(-72.5421 -0.52025 59.011)
(-87.2589 -0.223373 54.9324)
(-103.163 0.0251933 38.5958)
(-110.06 -0.0589969 24.4203)
(-124.515 -0.185461 19.8876)
(-132.298 -0.398494 17.5082)
(-134.058 -0.648204 15.1464)
(-130.833 -0.89169 13.2831)
(-123.395 -1.10998 12.2639)
(-115.748 -1.14759 11.8918)
(-111.877 -0.714427 11.022)
(-113.221 0.181757 6.2392)
(-115.017 0.708887 -5.29013)
(-108.929 0.520521 -19.1587)
(-105.527 0.14589 -36.3824)
(-106.937 0.520986 -66.342)
(-109.33 2.71705 -117.576)
(-110.453 6.69798 -166.334)
(-175.532 11.3613 -161.482)
(-454.908 3.78745 -43.7833)
(405.806 -20.0587 55.7535)
(40.0188 -0.00194707 0.00957982)
(39.682 -0.0395964 0.0983393)
(39.2262 -0.0533435 0.0953096)
(38.727 -0.0596542 0.0985876)
(38.2151 -0.0650713 0.110992)
(37.6855 -0.0704552 0.131636)
(37.1293 -0.0757565 0.161798)
(36.5393 -0.0810233 0.203458)
(35.9088 -0.0863368 0.259141)
(35.2295 -0.091816 0.331704)
(34.4902 -0.0978842 0.424146)
(33.6765 -0.10447 0.539407)
(32.7742 -0.111897 0.680114)
(31.7602 -0.119908 0.850535)
(30.5913 -0.132439 1.06136)
(29.2069 -0.151558 1.33957)
(27.5521 -0.174437 1.71667)
(25.5928 -0.197855 2.22189)
(23.2942 -0.2205 2.88058)
(20.5827 -0.25259 3.74122)
(17.348 -0.290451 4.89209)
(13.4898 -0.33926 6.44456)
(8.95676 -0.385567 8.51955)
(3.75872 -0.430471 11.2536)
(-2.02933 -0.477351 14.8565)
(-8.18645 -0.536285 19.6826)
(-14.0877 -0.613814 26.3136)
(-17.9712 -0.725725 35.6622)
(-19.8469 -0.703017 47.7475)
(-25.1965 -0.546359 51.6168)
(-34.5547 -0.502627 51.6161)
(-48.7859 -0.467894 53.6608)
(-63.5371 -0.375507 57.1628)
(-78.6455 -0.185838 57.8385)
(-95.4428 0.202567 53.1111)
(-112.289 0.561858 36.1877)
(-122.324 0.613377 20.9068)
(-141.041 0.59054 15.7628)
(-153.96 0.497527 12.6564)
(-162.143 0.39438 8.97486)
(-166.345 0.322794 5.38327)
(-167.043 0.298121 2.25702)
(-167.843 0.458539 -0.809383)
(-171.506 1.05306 -4.84163)
(-178.172 2.07807 -13.247)
(-181.331 2.76445 -26.622)
(-176.118 2.78919 -41.2124)
(-174.042 2.61727 -59.5662)
(-173.357 3.19166 -90.0996)
(-172.694 5.58639 -139.029)
(-166.593 9.67936 -183.979)
(-216.76 13.5826 -167.005)
(-435.09 5.04065 -41.7058)
(352.466 -18.5041 39.9532)
(40.0196 -0.00197813 0.0103437)
(39.6912 -0.0394299 0.116682)
(39.2305 -0.0530029 0.111056)
(38.7352 -0.0593195 0.114144)
(38.2306 -0.0647705 0.128829)
(37.7102 -0.070185 0.153815)
(37.1651 -0.0755174 0.190588)
(36.5885 -0.0808335 0.241471)
(35.9745 -0.0862135 0.30921)
(35.3152 -0.0918279 0.397243)
(34.6002 -0.0981081 0.509168)
(33.8148 -0.105201 0.649535)
(32.9448 -0.112918 0.822011)
(31.9743 -0.121467 1.03081)
(30.8744 -0.133057 1.28565)
(29.5924 -0.150364 1.6109)
(28.0753 -0.171567 2.05172)
(26.2819 -0.197748 2.63692)
(24.197 -0.220375 3.40698)
(21.7855 -0.251474 4.38912)
(18.9794 -0.283718 5.69134)
(15.6989 -0.335671 7.40332)
(11.8987 -0.379315 9.67138)
(7.66056 -0.429149 12.5864)
(3.1313 -0.467917 16.2897)
(-1.34073 -0.511091 20.9323)
(-5.14413 -0.558751 26.7015)
(-6.9974 -0.617396 33.6855)
(-7.24711 -0.633757 41.3629)
(-6.31449 -0.651948 49.0334)
(-6.2447 -0.711286 58.2571)
(-11.4654 -0.738843 63.8622)
(-18.1036 -0.714121 68.691)
(-23.5466 -0.604905 70.1492)
(-29.902 -0.274677 64.1273)
(-36.6797 0.0955932 49.9097)
(-33.5793 0.126905 41.3767)
(-46.0989 -0.0596887 36.9271)
(-55.1163 -0.336771 31.7602)
(-60.7939 -0.644609 27.5801)
(-64.9054 -0.962638 24.3488)
(-67.0259 -1.25519 22.3289)
(-65.473 -1.42931 21.8929)
(-59.012 -1.28656 20.9334)
(-42.9006 -0.883672 15.5971)
(-15.6037 -0.851218 2.75756)
(12.1982 -1.53919 -13.2742)
(17.5832 -4.05094 -25.7819)
(3.30864 -4.7089 -47.1996)
(-13.314 -1.91559 -83.84)
(-46.8089 1.73587 -111.424)
(-131.253 8.5694 -107.002)
(-297.955 4.12425 -64.1073)
(-262.58 -1.68851 -78.5493)
(40.0185 -0.00197689 0.0103591)
(39.6853 -0.0394348 0.117825)
(39.2357 -0.0529416 0.112298)
(38.7433 -0.05918 0.115512)
(38.2391 -0.0645501 0.130407)
(37.7188 -0.0698808 0.155661)
(37.1735 -0.0751252 0.192752)
(36.5968 -0.0803474 0.243961)
(35.9822 -0.0856264 0.312075)
(35.3215 -0.0911306 0.400424)
(34.6044 -0.0972955 0.512781)
(33.8166 -0.104231 0.653158)
(32.9437 -0.111794 0.825864)
(31.9673 -0.120167 1.03512)
(30.8558 -0.131575 1.29339)
(29.5596 -0.148711 1.62656)
(28.0274 -0.169678 2.07159)
(26.2238 -0.195603 2.66369)
(24.1252 -0.217805 3.43573)
(21.6905 -0.248563 4.43775)
(18.8467 -0.280229 5.753)
(15.5238 -0.331651 7.49791)
(11.693 -0.374633 9.78879)
(7.41205 -0.423705 12.7459)
(2.84353 -0.46122 16.5061)
(-1.70249 -0.502953 21.2513)
(-5.60136 -0.548452 27.1818)
(-7.54066 -0.60356 34.4252)
(-8.10298 -0.60532 42.2787)
(-7.08484 -0.576973 50.2345)
(-6.96148 -0.605521 59.3636)
(-12.8931 -0.608613 64.4384)
(-20.3463 -0.540723 68.9135)
(-27.0132 -0.35902 69.6552)
(-34.8705 0.0656546 62.7712)
(-41.5828 0.540956 48.1776)
(-39.2422 0.699113 39.0647)
(-54.6165 0.622356 34.1118)
(-67.2982 0.461064 28.3552)
(-78.0297 0.294905 23.2255)
(-88.8516 0.125688 18.5873)
(-99.2899 -0.0338618 14.7159)
(-107.355 -0.114771 11.6041)
(-111.37 0.0493314 7.216)
(-105.442 0.407485 -1.57997)
(-89.5658 0.429905 -16.2802)
(-73.5208 -0.145293 -33.0325)
(-71.9763 -2.22066 -49.8347)
(-80.9519 -2.74616 -74.0161)
(-82.6657 0.0928047 -109.946)
(-107.13 4.50427 -129.91)
(-181.653 10.3641 -108.47)
(-327.339 5.2386 -69.7443)
(-316.57 -1.72117 -103.623)
(40.0193 -0.00193853 0.0113891)
(39.6978 -0.0386635 0.135486)
(39.2431 -0.0523588 0.127109)
(38.7557 -0.0586427 0.129604)
(38.2606 -0.0639704 0.146004)
(37.7512 -0.0692322 0.174561)
(37.2191 -0.0743943 0.216861)
(36.658 -0.079548 0.275318)
(36.0623 -0.0847522 0.352822)
(35.4248 -0.0902515 0.452922)
(34.7356 -0.0962967 0.579965)
(33.9816 -0.103403 0.739412)
(33.1468 -0.111283 0.936959)
(32.2186 -0.119751 1.17776)
(31.1765 -0.130133 1.4714)
(29.9888 -0.143318 1.84008)
(28.6027 -0.164851 2.32701)
(26.9806 -0.185727 2.96671)
(25.1053 -0.211374 3.8113)
(22.9747 -0.231385 4.88131)
(20.5565 -0.266687 6.27453)
(17.7921 -0.301856 8.06583)
(14.6748 -0.348551 10.4123)
(11.2495 -0.388787 13.3698)
(7.71467 -0.423306 17.0446)
(4.37533 -0.452331 21.4595)
(1.72109 -0.482628 26.6128)
(0.566673 -0.518695 32.3217)
(0.573773 -0.540647 37.8622)
(1.30205 -0.548621 42.9806)
(5.37541 -0.592571 52.3838)
(10.7822 -0.635466 64.1665)
(12.2762 -0.661015 72.756)
(12.3532 -0.604554 75.0276)
(11.6787 -0.31458 67.5248)
(8.15383 0.149504 53.6878)
(19.0814 0.188217 50.1467)
(13.3972 0.0184713 49.2792)
(7.75368 -0.0756607 44.5554)
(3.76805 -0.178295 39.2681)
(0.307317 -0.402519 34.4319)
(-2.00818 -0.831296 30.3212)
(-4.56163 -1.46609 25.8447)
(-7.40393 -1.80225 19.4772)
(-9.80543 -0.777715 11.1644)
(-11.7804 2.82806 4.58686)
(-29.6053 10.2852 9.43417)
(-145.899 13.1918 37.3126)
(-60.9166 -5.63777 19.71)
(20.3322 -5.77283 -41.9875)
(-86.0044 0.0662565 -55.1584)
(-176.021 7.23704 -56.8424)
(-249.998 3.7733 -23.88)
(-53.2933 -1.75173 8.38398)
(40.0182 -0.00193732 0.0113937)
(39.6916 -0.0386676 0.136754)
(39.2482 -0.0522973 0.128573)
(38.764 -0.0585035 0.131232)
(38.2694 -0.0637532 0.147859)
(37.7601 -0.0689321 0.176696)
(37.228 -0.074004 0.219318)
(36.6667 -0.0790645 0.278119)
(36.0705 -0.0841682 0.355991)
(35.4316 -0.0895581 0.456494)
(34.7403 -0.095488 0.584089)
(33.9835 -0.102446 0.743881)
(33.1461 -0.110141 0.94159)
(32.2136 -0.118452 1.18285)
(31.1643 -0.12868 1.47954)
(29.9619 -0.141667 1.85507)
(28.5623 -0.162946 2.34781)
(26.9297 -0.183465 2.99783)
(25.0467 -0.208674 3.84343)
(22.8979 -0.228253 4.93097)
(20.4493 -0.263118 6.33548)
(17.6568 -0.297574 8.16522)
(14.5057 -0.343785 10.5282)
(11.0653 -0.383189 13.5269)
(7.51049 -0.416515 17.237)
(4.14187 -0.443707 21.7173)
(1.43688 -0.471537 26.9615)
(0.21464 -0.504358 32.7903)
(-0.0821056 -0.516652 38.3852)
(0.447075 -0.498277 43.5267)
(4.8862 -0.523054 53.4056)
(10.2009 -0.551684 65.2868)
(10.956 -0.550265 73.4922)
(10.1446 -0.43627 74.9939)
(7.91633 -0.0589706 66.3665)
(4.54452 0.49066 51.9921)
(16.7994 0.603489 48.2515)
(11.0184 0.514481 46.8841)
(4.29642 0.535361 41.3881)
(-1.65467 0.568555 35.4944)
(-8.42931 0.49231 30.123)
(-15.962 0.186001 25.3824)
(-25.642 -0.384182 19.8678)
(-38.7569 -0.663546 11.4037)
(-51.5175 0.374441 0.412788)
(-57.4742 3.61481 -10.0685)
(-53.6155 8.47368 -16.0602)
(-61.4963 4.90209 -21.0016)
(-57.3176 -4.02261 -37.0656)
(-42.1049 -4.13425 -67.7501)
(-142.655 2.26845 -68.6967)
(-203.034 8.5682 -51.6876)
(-255.26 4.21839 -22.8662)
(-68.9892 -1.59955 2.34738)
(40.0188 -0.00197904 0.0122416)
(39.7031 -0.0384185 0.152622)
(39.2581 -0.0517724 0.141652)
(38.7807 -0.0579481 0.143405)
(38.2966 -0.0632175 0.161111)
(37.7999 -0.0684244 0.192481)
(37.2825 -0.0735363 0.239143)
(36.7386 -0.0786465 0.303567)
(36.163 -0.0838448 0.388672)
(35.5494 -0.0893094 0.497813)
(34.8889 -0.0953706 0.635903)
(34.1696 -0.102549 0.808493)
(33.3763 -0.110683 1.02341)
(32.4969 -0.119595 1.28818)
(31.5192 -0.129331 1.61054)
(30.4242 -0.141576 2.01316)
(29.1715 -0.160037 2.52164)
(27.7296 -0.179673 3.19799)
(26.0763 -0.206652 4.06246)
(24.2248 -0.22633 5.18334)
(22.1763 -0.258432 6.57955)
(19.9165 -0.2856 8.38923)
(17.4344 -0.336872 10.6682)
(14.7564 -0.372866 13.552)
(12.0689 -0.412834 17.0506)
(9.59335 -0.437461 21.1729)
(7.69905 -0.460393 25.7979)
(6.85453 -0.485427 30.6942)
(7.00704 -0.508756 35.2873)
(7.14199 -0.511278 39.3731)
(9.46956 -0.52772 45.4749)
(15.3099 -0.553605 54.5709)
(22.3121 -0.585698 65.2221)
(29.7519 -0.589486 72.4576)
(33.5212 -0.386393 66.8698)
(26.6365 0.0276068 52.2563)
(33.9686 0.138117 48.0787)
(35.4896 0.100207 50.2319)
(35.8075 0.0836199 50.4693)
(34.967 0.0324057 49.2748)
(33.295 -0.15004 47.6065)
(30.3871 -0.497473 45.7029)
(24.822 -0.89385 43.1042)
(12.8816 -0.930755 38.5302)
(-4.77173 -0.179193 30.5459)
(-26.418 1.26806 21.0231)
(-39.8286 1.60188 10.4377)
(-10.0415 0.594843 -10.8189)
(-50.7915 -1.05314 -29.1642)
(6.89076 -1.95812 -26.6216)
(-60.7253 -0.968623 -1.51585)
(-116.774 6.36212 -44.0015)
(-203.918 3.79147 -49.2268)
(57.7897 -1.67461 27.816)
(40.0177 -0.00197795 0.0122646)
(39.6973 -0.0384226 0.154208)
(39.2634 -0.051712 0.143412)
(38.789 -0.0578113 0.145336)
(38.3055 -0.0630035 0.163295)
(37.8088 -0.0681283 0.194981)
(37.2915 -0.0731505 0.241998)
(36.7474 -0.0781682 0.30682)
(36.1712 -0.0832662 0.392314)
(35.5564 -0.088626 0.502031)
(34.8937 -0.0945489 0.640739)
(34.1715 -0.101591 0.814281)
(33.3753 -0.109591 1.02981)
(32.4927 -0.118316 1.29521)
(31.5094 -0.127828 1.62067)
(30.4023 -0.139881 2.02704)
(29.1375 -0.158098 2.54862)
(27.6813 -0.177367 3.22786)
(26.0194 -0.20395 4.10712)
(24.1556 -0.223214 5.22931)
(22.0874 -0.255025 6.65825)
(19.7968 -0.281516 8.48202)
(17.28 -0.332371 10.8058)
(14.594 -0.367564 13.7145)
(11.8895 -0.406542 17.258)
(9.41051 -0.429394 21.4255)
(7.48723 -0.449824 26.1175)
(6.59149 -0.47219 31.0928)
(6.54859 -0.489464 35.7267)
(6.30105 -0.474972 39.7819)
(8.71871 -0.474771 46.1035)
(14.935 -0.491055 55.627)
(22.0902 -0.50848 66.5593)
(29.349 -0.472588 73.3842)
(31.8734 -0.188035 66.4393)
(24.9548 0.314864 50.8092)
(33.1328 0.484574 46.0608)
(34.4539 0.482954 47.9818)
(34.4712 0.502138 48.083)
(33.1379 0.498783 46.7265)
(30.5936 0.375077 44.8268)
(25.9861 0.0894176 42.4367)
(17.4807 -0.251104 39.0316)
(0.719172 -0.213768 32.4316)
(-20.4593 0.647874 21.0596)
(-41.3297 2.22002 7.00785)
(-42.622 2.51562 -4.98082)
(-27.8777 1.07104 -17.5081)
(-90.6437 -0.611406 -38.9024)
(-33.242 -1.33228 -28.9343)
(-114.455 0.616896 -20.8186)
(-152.868 7.28179 -48.0624)
(-205.07 4.18349 -50.2575)
(45.5167 -1.49957 23.8549)
(40.0185 -0.00192086 0.0129522)
(39.7119 -0.0373676 0.168209)
(39.2753 -0.0508676 0.154654)
(38.8085 -0.0570059 0.155476)
(38.3366 -0.0621354 0.174043)
(37.8538 -0.0671631 0.207512)
(37.3525 -0.0720816 0.257476)
(36.8269 -0.0769894 0.326337)
(36.2724 -0.0820106 0.416877)
(35.6837 -0.0872106 0.532415)
(35.0531 -0.0930089 0.677565)
(34.3704 -0.0996241 0.858788)
(33.6229 -0.107523 1.0846)
(32.7965 -0.116271 1.36428)
(31.8855 -0.124892 1.70753)
(30.8764 -0.136361 2.12917)
(29.754 -0.147921 2.65507)
(28.4813 -0.170013 3.33455)
(27.044 -0.187331 4.19939)
(25.4546 -0.212568 5.31122)
(23.7488 -0.226463 6.68709)
(21.9436 -0.260203 8.42788)
(20.0208 -0.289803 10.5889)
(18.0378 -0.330983 13.3051)
(16.0737 -0.362778 16.5957)
(14.3197 -0.386476 20.4416)
(13.0016 -0.404423 24.686)
(12.423 -0.425545 29.1053)
(12.6737 -0.450972 33.3155)
(13.0849 -0.47 37.012)
(14.1836 -0.485222 41.5251)
(17.5895 -0.512459 48.1926)
(23.6731 -0.546767 56.6419)
(31.6675 -0.576133 64.9282)
(38.3116 -0.437091 63.8886)
(34.9024 -0.0797407 52.5909)
(40.5882 0.109669 47.3555)
(44.4466 0.141666 47.6381)
(47.817 0.117471 47.8444)
(50.4705 0.0473102 47.5274)
(51.6627 -0.0874573 46.9469)
(51.6389 -0.287479 46.2313)
(51.0542 -0.449011 45.024)
(48.7622 -0.393893 42.9135)
(45.556 -0.0635313 38.7669)
(36.6355 0.442797 31.1763)
(24.0845 0.323439 21.9284)
(14.8697 -1.0032 15.3982)
(-5.78996 -2.469 -3.18949)
(-40.4339 -2.83494 -24.4048)
(-57.0223 1.4008 14.5184)
(-76.2867 6.56073 -25.9424)
(-249.922 8.00063 -66.723)
(6.37707 0.449233 -16.0544)
(40.0174 -0.00191982 0.0129764)
(39.7058 -0.0373706 0.169871)
(39.2804 -0.0508069 0.156551)
(38.8171 -0.0568693 0.157559)
(38.3459 -0.0619202 0.176374)
(37.8633 -0.0668661 0.210141)
(37.362 -0.0716985 0.260438)
(36.8362 -0.076519 0.329655)
(36.2812 -0.0814415 0.420588)
(35.6914 -0.0865308 0.53666)
(35.059 -0.092197 0.682579)
(34.3736 -0.0986661 0.864994)
(33.6229 -0.106424 1.09183)
(32.7944 -0.115009 1.37263)
(31.8788 -0.123441 1.71748)
(30.864 -0.134674 2.14353)
(29.7277 -0.145955 2.67903)
(28.4435 -0.167809 3.36485)
(26.9983 -0.184687 4.24477)
(25.4047 -0.209595 5.35936)
(23.6861 -0.223145 6.75907)
(21.8528 -0.256426 8.51339)
(19.9137 -0.285342 10.7168)
(17.91 -0.32599 13.4553)
(15.9508 -0.356749 16.7832)
(14.1968 -0.37892 20.6539)
(12.863 -0.394716 24.9303)
(12.2353 -0.413462 29.3898)
(12.335 -0.435116 33.6202)
(12.3714 -0.444307 37.2721)
(13.1367 -0.447045 41.8541)
(16.5729 -0.464381 48.8018)
(22.7671 -0.491096 57.6285)
(30.8698 -0.496343 65.9701)
(36.7158 -0.289338 63.8309)
(32.9651 0.158533 51.3664)
(39.236 0.411206 45.3988)
(43.4548 0.476229 45.4235)
(46.8193 0.478307 45.4532)
(49.2034 0.440001 44.997)
(49.6776 0.341883 44.2485)
(48.5332 0.180656 43.2168)
(45.9806 0.0539356 41.4443)
(41.6217 0.132575 38.8882)
(36.1035 0.51313 33.5473)
(25.1238 1.08989 23.5493)
(12.0306 0.995953 13.2424)
(0.588701 -0.429069 8.45086)
(-26.602 -2.01208 -15.4669)
(-76.6167 -1.71608 -24.2034)
(-90.6388 1.97478 -0.344871)
(-107.671 6.37712 -30.5445)
(-242.788 7.68751 -64.5117)
(19.654 0.291431 -16.3725)
(40.0179 -0.00196019 0.0133804)
(39.7185 -0.0370804 0.181372)
(39.2939 -0.0501747 0.165371)
(38.8397 -0.0561908 0.165068)
(38.3812 -0.0612714 0.18392)
(37.9134 -0.0662666 0.218556)
(37.429 -0.0711644 0.270554)
(36.9226 -0.0760801 0.342193)
(36.3898 -0.0811069 0.436036)
(35.8263 -0.0863291 0.555333)
(35.2265 -0.0919913 0.704186)
(34.5818 -0.098413 0.889676)
(33.8816 -0.106212 1.11969)
(33.1134 -0.114925 1.40583)
(32.2702 -0.124293 1.75966)
(31.3483 -0.13413 2.18936)
(30.3429 -0.145562 2.72419)
(29.2282 -0.163616 3.3818)
(27.9972 -0.180027 4.23271)
(26.6573 -0.204671 5.28281)
(25.2615 -0.218578 6.60937)
(23.8503 -0.247703 8.2041)
(22.452 -0.269762 10.2117)
(21.1102 -0.311254 12.6798)
(19.8394 -0.337342 15.746)
(18.7186 -0.36443 19.3364)
(17.8703 -0.381603 23.2716)
(17.5293 -0.39646 27.3346)
(17.8476 -0.41597 31.2785)
(18.5355 -0.437524 34.8554)
(19.5158 -0.458273 38.5595)
(21.6807 -0.484272 43.46)
(26.0323 -0.515962 50.0728)
(33.0982 -0.544532 57.4295)
(40.7952 -0.449371 59.1597)
(42.0217 -0.173237 52.1054)
(46.4108 0.0500972 46.5711)
(51.0035 0.139466 45.3614)
(56.075 0.139615 45.3655)
(60.9843 0.0842327 45.5066)
(65.4165 0.000573042 45.7845)
(69.8594 -0.128712 45.8461)
(73.5473 -0.244159 45.004)
(74.7205 -0.270166 43.4895)
(74.0754 -0.198054 41.9911)
(67.2451 -0.0223389 39.1616)
(52.6825 -0.185388 36.3528)
(37.2493 -1.35896 38.1817)
(22.8729 -4.24972 39.5129)
(4.68132 -3.72349 24.8102)
(-131.732 1.74518 4.81062)
(-159.214 7.17259 -14.301)
(-346.353 8.60825 -36.324)
(-114.335 0.744815 -10.583)
(40.0168 -0.00195926 0.0134242)
(39.7129 -0.0370833 0.183285)
(39.2994 -0.0501153 0.167499)
(38.8483 -0.056057 0.167378)
(38.3904 -0.06106 0.186483)
(37.9228 -0.0659744 0.22142)
(37.4384 -0.0707869 0.273761)
(36.9318 -0.075616 0.345757)
(36.3987 -0.0805449 0.440047)
(35.8343 -0.0856535 0.559842)
(35.2329 -0.0912026 0.709694)
(34.5856 -0.0975112 0.896398)
(33.8823 -0.105127 1.1282)
(33.1111 -0.11367 1.41596)
(32.2651 -0.122921 1.77087)
(31.3388 -0.132522 2.20608)
(30.322 -0.143625 2.74386)
(29.1981 -0.161409 3.41906)
(27.956 -0.177393 4.27198)
(26.612 -0.201713 5.3435)
(25.2076 -0.215277 6.66947)
(23.7796 -0.243997 8.30367)
(22.3623 -0.265415 10.3293)
(21.0032 -0.306369 12.8456)
(19.7382 -0.331486 15.9378)
(18.6145 -0.357421 19.5617)
(17.7658 -0.373176 23.5229)
(17.3969 -0.385984 27.6155)
(17.6221 -0.402394 31.5855)
(18.0532 -0.41812 35.1484)
(18.6533 -0.430174 38.8581)
(20.5544 -0.447241 43.9129)
(24.8025 -0.471659 50.8394)
(31.8954 -0.482599 58.3719)
(39.1137 -0.337066 59.3549)
(39.8765 0.01337 51.2346)
(44.55 0.295258 44.9385)
(49.537 0.419393 43.4001)
(54.9044 0.444371 43.2819)
(59.7634 0.412316 43.376)
(63.8399 0.354403 43.6157)
(67.7116 0.252127 43.5062)
(70.0771 0.160234 42.2041)
(69.7483 0.142745 40.3192)
(67.4218 0.235916 38.1829)
(58.7999 0.470829 33.9718)
(43.6638 0.376863 30.376)
(25.9194 -0.820033 33.2397)
(9.36134 -3.89729 32.5086)
(-56.6354 -3.13487 15.3197)
(-178.723 2.41675 5.50036)
(-171.765 6.12787 -8.84255)
(-326.705 7.72642 -32.7456)
(-90.73 0.563852 -14.031)
(40.0175 -0.00188197 0.0136486)
(39.7289 -0.0358028 0.192357)
(39.3142 -0.049065 0.173838)
(38.8725 -0.0550513 0.172169)
(38.4281 -0.0599886 0.190782)
(37.9759 -0.064808 0.225793)
(37.5089 -0.0695119 0.278717)
(37.0219 -0.074241 0.351662)
(36.5111 -0.0790503 0.447071)
(35.9726 -0.084051 0.567839)
(35.4028 -0.0892352 0.717904)
(34.7956 -0.0951258 0.903694)
(34.1426 -0.101878 1.13388)
(33.4336 -0.109977 1.41994)
(32.6583 -0.118938 1.7738)
(31.82 -0.126859 2.20673)
(30.9139 -0.13837 2.73303)
(29.9419 -0.147231 3.37452)
(28.8882 -0.167705 4.17753)
(27.7683 -0.1795 5.16354)
(26.6321 -0.200796 6.37905)
(25.56 -0.208698 7.83188)
(24.6391 -0.233184 9.60123)
(23.9178 -0.253032 11.8217)
(23.3695 -0.280381 14.7069)
(22.8396 -0.301908 18.1427)
(22.3869 -0.319039 21.8735)
(22.2573 -0.333855 25.6628)
(22.6797 -0.351666 29.3609)
(23.6272 -0.374872 32.8284)
(24.9518 -0.403302 36.1485)
(26.9787 -0.435004 39.9038)
(30.5346 -0.468682 44.7213)
(36.5044 -0.49204 50.3926)
(43.9116 -0.426967 53.09)
(47.9032 -0.224077 49.5275)
(51.9969 -0.0104755 45.0067)
(56.4049 0.122463 42.836)
(61.4619 0.170081 42.1292)
(66.9339 0.149081 42.1197)
(72.3887 0.0817067 42.4279)
(77.7672 -0.0297694 42.8203)
(82.3239 -0.141584 42.9395)
(84.4815 -0.215354 43.0975)
(85.0652 -0.24466 44.7759)
(82.2367 -0.172666 47.2587)
(73.8671 -0.226998 50.2074)
(64.3999 -0.985218 57.4186)
(55.4821 -3.1262 69.6472)
(61.6285 -4.87296 74.8854)
(-1.37076 -3.18449 63.401)
(-84.3049 4.28998 42.6293)
(-307.949 12.438 38.7513)