/*--------------------------------*- C++ -*----------------------------------*\
| =========                 |                                                 |
| \\      /  F ield         | OpenFOAM: The Open Source CFD Toolbox           |
|  \\    /   O peration     | Version:  4.1                                   |
|   \\  /    A nd           | Web:      www.OpenFOAM.org                      |
|    \\/     M anipulation  |                                                 |
\*---------------------------------------------------------------------------*/
FoamFile
{
    version     2.0;
    format      ascii;
    class       volScalarField;
    location    "15";
    object      p;
}
// * * * * * * * * * * * * * * * * * * * * * * * * * * * * * * * * * * * * * //

dimensions      [0 2 -2 0 0 0 0];

internalField   nonuniform List<scalar> 
4432
(
110544
110544
110549
110556
110561
110567
110572
110579
110588
110599
110611
110623
110633
110640
110639
110628
110592
110491
110281
109867
109660
109398
108136
106970
106550
106741
107030
107231
107292
107198
106931
106338
106351
107118
108670
108436
106779
106303
105981
105649
105470
105044
104979
105236
105914
107332
107998
108460
110475
114501
116857
103512
64004.2
43297
110543
110544
110549
110555
110561
110566
110571
110578
110587
110598
110610
110622
110632
110639
110638
110627
110590
110487
110243
109745
109203
109203
108787
107798
106882
106979
107370
107236
107039
106915
106854
106498
106783
106847
106897
106915
106744
106315
105793
105473
105377
105418
105619
105939
106482
107378
108342
108619
110460
114069
117754
105059
64541.1
43068.7
110535
110535
110539
110544
110548
110552
110556
110561
110568
110578
110591
110605
110620
110635
110653
110672
110687
110642
110405
109911
109399
109118
108505
107816
107106
106628
106286
106222
106239
106419
106863
106979
106537
106420
106682
106599
106296
105895
105471
105220
105091
104982
104911
104961
105293
106103
106844
106888
108070
111694
115655
103600
64109.6
77216.2
110535
110535
110538
110543
110547
110551
110555
110560
110567
110577
110590
110604
110619
110634
110652
110674
110691
110633
110372
109838
109317
109058
108577
107841
107021
106478
106309
106222
106176
106409
106671
106777
106702
106714
106682
106379
105970
105540
105220
105075
105092
105134
105153
105371
105823
106589
107376
107601
109268
113170
117951
105797
64089.3
75305.6
110526
110526
110530
110535
110538
110540
110541
110544
110548
110554
110563
110576
110593
110616
110650
110694
110759
110735
110420
109668
109275
109013
108562
107912
107212
106668
106282
106134
106188
106475
106710
106634
106635
106926
106693
106335
106061
105921
105812
105832
105748
105657
105602
105431
105075
104516
104260
103802
104392
105628
104713
98250.6
77039.1
91130.9
110526
110526
110530
110534
110537
110539
110540
110543
110547
110553
110562
110575
110592
110616
110652
110703
110774
110724
110305
109656
109270
109012
108627
108035
107321
106697
106274
106088
106145
106375
106438
106354
106387
106581
106504
106167
105829
105585
105481
105474
105553
105431
105282
105146
105020
104917
104674
104549
105113
106564
107419
100009
75674.8
86724
110514
110514
110517
110521
110523
110524
110523
110524
110525
110529
110535
110545
110560
110582
110616
110656
110709
110648
110337
109639
109348
109266
109045
108407
107741
107103
106669
106382
106313
106384
106261
105841
105994
106579
106191
105899
105692
105626
105636
105687
105496
105170
105119
105061
104726
104052
103539
102630
103107
105189
105744
97548
79826.2
78158.6
110514
110514
110517
110520
110522
110523
110522
110523
110524
110528
110534
110545
110560
110583
110618
110666
110713
110640
110255
109678
109392
109295
109027
108515
107810
107163
106714
106486
106459
106443
106262
105888
105916
106423
106221
105938
105695
105550
105556
105611
105560
105249
105166
104899
104501
103891
103145
102660
102552
104657
106697
98125.8
78487.2
76055.7
110499
110498
110501
110504
110504
110503
110501
110499
110498
110499
110502
110509
110519
110532
110551
110564
110563
110480
110182
109715
109438
109379
109112
108674
108239
107556
107300
107106
106862
106770
106641
106113
105388
105570
105668
105593
105546
105503
105463
105321
105655
104727
104662
104606
104644
104688
103707
102486
102283
103618
104978
99095.7
84848.2
92299.1
110498
110498
110501
110503
110503
110502
110500
110498
110497
110498
110502
110508
110518
110533
110552
110570
110567
110456
110150
109743
109525
109437
109169
108735
108221
107624
107348
107144
106986
106845
106670
106153
105808
106151
105916
105712
105575
105490
105502
105536
105380
104854
104862
104670
104277
103759
102900
102180
102029
103449
104936
99269.5
84295.6
91269.7
110480
110480
110482
110483
110482
110479
110475
110471
110467
110464
110464
110464
110467
110469
110467
110452
110408
110305
110072
109771
109545
109448
109236
108626
108362
108006
107784
107666
107193
107054
106926
106445
105608
105416
105444
105277
105254
105300
105316
105131
104778
104464
104784
104696
104477
104736
103894
102770
102249
102536
102745
97361.2
86414.4
92799.6
110480
110479
110481
110483
110482
110478
110474
110470
110466
110464
110463
110464
110466
110468
110467
110454
110411
110293
110055
109777
109580
109453
109265
108875
108351
107985
107808
107586
107205
106993
106844
106372
106000
105705
105473
105326
105284
105295
105356
105358
104997
104811
104796
104752
104516
104118
103261
102455
102189
102749
102820
97029.9
86005
92943
110459
110458
110460
110460
110458
110453
110446
110439
110432
110426
110420
110414
110407
110397
110378
110341
110273
110161
109977
109749
109571
109489
109375
109005
108304
108154
108173
107997
107354
106899
106662
106333
106033
105618
105144
105203
104928
105068
105270
105408
105334
105383
105514
105280
104742
104424
103682
102932
102446
102293
101502
96651.1
88177.4
89173.5
110458
110458
110459
110459
110457
110452
110445
110438
110431
110425
110419
110413
110407
110396
110378
110342
110275
110159
109967
109743
109569
109488
109351
109126
108543
108252
108152
107835
107315
106955
106639
106224
105881
105542
105221
105022
104965
105078
105282
105424
105415
105473
105523
105327
104935
104534
103673
102975
102667
102520
101642
96292.6
87458.6
88984.9
110435
110435
110435
110435
110431
110424
110415
110405
110395
110384
110373
110361
110345
110324
110291
110241
110163
110050
109893
109704
109541
109466
109421
109231
108470
108270
108286
107854
107352
106880
106538
106186
105836
105452
105062
104753
104780
105013
105409
105794
105995
106176
106332
105957
105203
104545
103835
103287
102933
102583
101412
97085.2
89804
94270.3
110435
110434
110435
110434
110430
110423
110414
110404
110394
110383
110372
110360
110345
110323
110291
110241
110164
110050
109889
109697
109530
109443
109375
109208
108818
108482
108163
107785
107311
106891
106535
106148
105757
105439
105104
104863
104779
104977
105376
105720
105920
106092
106103
105761
105329
104942
104213
103669
103206
102661
101438
96786.3
88620.4
92150.6
110410
110409
110409
110407
110402
110393
110382
110369
110356
110341
110326
110307
110284
110254
110213
110155
110074
109966
109827
109667
109511
109403
109348
109199
108807
108460
108090
107702
107295
106887
106524
106174
105812
105448
105074
104838
104847
105143
105640
106196
106717
106995
107086
106717
105902
104985
104240
103697
103255
102714
101091
96927.6
90347.7
94656.8
110410
110409
110409
110407
110401
110392
110381
110369
110355
110341
110325
110306
110284
110254
110212
110155
110075
109966
109826
109662
109502
109377
109303
109176
108861
108476
108080
107678
107264
106870
106515
106158
105797
105456
105114
104897
104880
105087
105527
106053
106553
106837
106765
106332
105779
105179
104532
103952
103426
102735
101086
96631.4
89609.4
93712.6
110384
110383
110382
110379
110372
110361
110348
110333
110317
110299
110279
110255
110227
110191
110144
110084
110005
109905
109783
109643
109496
109361
109250
109105
108779
108347
107948
107608
107265
106903
106554
106220
105893
105560
105226
105016
105024
105295
105790
106480
107262
107775
107882
107494
106651
105449
104281
103535
102940
102093
100338
96952.7
92045.9
93726.6
110383
110382
110381
110378
110371
110360
110347
110332
110316
110298
110278
110255
110226
110190
110144
110084
110005
109905
109783
109640
109490
109344
109215
109065
108781
108376
107989
107624
107255
106889
106547
106213
105882
105560
105258
105069
105061
105280
105731
106331
106987
107456
107479
107061
106387
105512
104532
103899
103321
102372
100608
97190.4
91194.1
92263
110356
110355
110354
110349
110341
110329
110314
110297
110278
110257
110234
110207
110174
110135
110086
110026
109952
109863
109756
109635
109503
109361
109208
109020
108707
108286
107891
107567
107261
106938
106617
106309
106010
105722
105457
105282
105291
105525
105974
106600
107335
108026
108371
108156
107219
105860
104391
103260
102335
101134
99150.3
96240.5
92335.2
86195.8
110356
110355
110353
110349
110340
110328
110313
110296
110278
110257
110233
110206
110174
110135
110086
110026
109953
109863
109757
109635
109500
109353
109190
108990
108693
108304
107927
107599
107274
106943
106620
106310
106009
105725
105475
105319
105324
105534
105947
106510
107139
107693
107933
107591
106782
105707
104544
103629
102883
101757
99748.4
97231.9
92525.1
85848.1
110328
110327
110325
110320
110310
110297
110280
110262
110241
110218
110192
110163
110128
110087
110038
109981
109914
109835
109746
109646
109536
109410
109253
109026
108681
108261
107893
107596
107323
107043
106759
106484
106223
105984
105782
105656
105666
105850
106198
106676
107232
107771
108199
108284
107591
106337
104800
103367
102071
100599
98608.4
96389.4
93327.6
87466.9
110328
110326
110324
110319
110310
110296
110280
110261
110240
110217
110192
110162
110128
110087
110038
109981
109914
109836
109747
109647
109535
109408
109249
109013
108670
108265
107911
107619
107342
107055
106768
106491
106230
105992
105795
105675
105682
105855
106187
106635
107134
107579
107846
107695
107001
105910
104632
103403
102327
101119
99537.1
98201.9
94346.5
92109.8
110300
110299
110296
110290
110280
110265
110248
110228
110206
110181
110154
110123
110087
110046
109999
109946
109886
109819
109746
109670
109592
109505
109385
109129
108675
108207
107925
107706
107486
107252
107013
106783
106568
106379
106226
106131
106131
106246
106472
106778
107120
107436
107638
107639
107174
106236
104970
103607
102252
100756
98874.3
96391.4
93726.3
87029.9
110300
110298
110296
110290
110279
110265
110247
110227
110205
110181
110154
110123
110087
110046
109999
109946
109886
109820
109748
109672
109595
109512
109398
109124
108662
108207
107930
107716
107497
107262
107022
106789
106573
106383
106230
106137
106136
106250
106471
106765
107082
107351
107472
107324
106778
105862
104699
103447
102205
100854
99181
97000.3
94234
87316.9
110272
110271
110268
110261
110250
110235
110216
110196
110173
110147
110119
110088
110052
110012
109967
109918
109864
109808
109751
109698
109660
109644
109653
109414
108761
107985
107932
107853
107714
107540
107356
107177
107009
106863
106744
106664
106642
106686
106787
106920
107055
107148
107140
106958
106497
105724
104693
103498
102201
100701
98838.2
96146.2
93031.6
86229.9
110272
110271
110268
110261
110249
110234
110216
110195
110172
110147
110119
110088
110052
110012
109968
109919
109865
109809
109752
109700
109666
109664
109695
109420
108731
107974
107921
107849
107718
107546
107362
107182
107014
106866
106748
106670
106649
106694
106793
106920
107043
107117
107076
106841
106333
105540
104519
103347
102069
100591
98760.5
96086.4
92984.9
86171.3
110245
110244
110240
110233
110221
110206
110187
110166
110142
110117
110089
110057
110022
109984
109941
109896
109848
109798
109752
109714
109703
109755
109884
110068
108198
107720
108046
108094
108024
107896
107760
107628
107505
107394
107301
107230
107184
107158
107135
107099
107043
106948
106776
106473
105980
105268
104350
103251
101973
100413
98418.2
95614.4
92026.5
85833.4
110245
110243
110240
110233
110221
110205
110186
110165
110142
110116
110088
110057
110022
109984
109942
109896
109848
109800
109753
109717
109706
109768
109902
109888
108047
107696
108018
108083
108023
107900
107766
107634
107510
107400
107311
107243
107196
107172
107148
107104
107039
106935
106752
106433
105924
105200
104276
103172
101880
100302
98295.3
95489.2
91925.2
85741.3
110219
110217
110214
110206
110194
110178
110159
110138
110114
110089
110061
110031
109997
109960
109920
109877
109832
109787
109742
109702
109675
109674
109841
110389
107638
108171
108327
108330
108259
108175
108092
108011
107935
107867
107801
107717
107607
107450
107253
107036
106798
106515
106144
105635
104958
104106
103065
101783
100128
97938.2
94976.3
91089.1
85449.2
110219
110217
110213
110206
110193
110177
110159
110137
110114
110089
110061
110031
109997
109960
109920
109878
109833
109788
109743
109704
109674
109676
109809
109792
107601
108138
108323
108337
108269
108186
108102
108021
107946
107883
107833
107739
107619
107471
107258
107027
106779
106493
106118
105605
104925
104066
103011
101704
100027
97838.5
94900.2
91043.2
85419.8
110194
110192
110188
110181
110168
110152
110133
110112
110089
110064
110037
110008
109975
109940
109902
109861
109818
109773
109724
109669
109596
109471
109190
108655
107723
108112
108465
108567
108545
108499
108455
108413
108372
108326
108269
108189
108058
107860
107589
107296
106981
106657
106322
105932
105431
104786
103986
102989
101681
99879.1
97423.4
94225.8
90232.9
84938.1
110194
110192
110188
110180
110168
110152
110133
110112
110089
110064
110037
110008
109975
109940
109902
109862
109819
109774
109725
109670
109596
109471
109185
108628
107589
108103
108451
108562
108547
108505
108463
108422
108381
108334
108277
108213
108071
107827
107548
107273
106957
106628
106288
105894
105390
104746
103939
102922
101589
99788.1
97391.4
94291.6
90335.3
85051
110170
110169
110165
110157
110144
110128
110110
110089
110067
110043
110017
109988
109957
109924
109887
109848
109806
109760
109706
109638
109543
109393
109167
108847
108525
108440
108591
108660
108666
108652
108631
108611
108589
108559
108514
108425
108234
107929
107595
107330
106996
106619
106263
105876
105384
104759
104000
103044
101698
99706.2
96967.6
93552.4
89639.6
84504.1
110170
110168
110164
110156
110144
110128
110109
110089
110067
110043
110017
109988
109958
109924
109888
109849
109807
109761
109707
109639
109543
109392
109166
108845
108521
108439
108584
108655
108665
108653
108634
108614
108591
108557
108503
108394
108118
107720
106617
106817
106866
106566
106214
105816
105321
104700
103935
102949
101579
99634.7
97028.7
93764.9
89868
84667
110148
110146
110142
110134
110122
110106
110088
110068
110047
110024
109999
109972
109943
109910
109876
109838
109797
109751
109697
109627
109534
109409
109251
109054
108850
108751
108773
108809
108822
108818
108811
108808
108813
108827
108834
108777
108334
107558
107502
107129
107137
106756
106394
105989
105464
104829
104112
103215
101829
99647.7
96714.4
93203.2
89427.1
84285.7
110148
110146
110142
110134
110122
110106
110088
110068
110047
110024
109999
109972
109943
109911
109876
109839
109798
109752
109697
109628
109535
109410
109252
109056
108854
108751
108770
108805
108818
108815
108809
108806
108809
108812
108810
108835
107688
105907
103111
105917
105960
106766
106378
105942
105412
104778
104038
103078
101667
99580.5
96815.4
93469.9
89801.7
84498.8
110128
110126
110122
110114
110102
110086
110069
110050
110029
110007
109984
109958
109931
109900
109867
109832
109793
109749
109696
109632
109552
109451
109332
109200
109071
108989
108973
108985
108995
108999
109010
109037
109087
109169
109238
109095
107329
101907
101769
104660
106080
106924
106727
106274
105649
104959
104269
103424
101999
99725.1
96779.3
93211.6
89283.3
84132
110128
110126
110122
110113
110101
110086
110069
110050
110029
110007
109984
109958
109931
109901
109868
109833
109794
109749
109697
109633
109553
109452
109334
109203
109073
108991
108972
108983
108992
108997
109009
109037
109087
109157
109185
109091
104808
94351.8
90331.1
99848.6
104589
107372
106803
106274
105643
104930
104174
103218
101767
99596.9
96802.8
93536.8
89876.7
84455
110109
110107
110103
110095
110083
110068
110052
110033
110014
109993
109971
109947
109921
109893
109862
109829
109792
109751
109703
109646
109578
109496
109405
109309
109220
109157
109127
109119
109121
109131
109158
109211
109303
109439
109458
104789
97516.6
91847.8
92663
97684.7
97213.8
106661
107270
106696
105899
105112
104414
103583
102143
99983.6
97208.8
93520.6
89099.2
85491.1
110109
110107
110103
110095
110083
110068
110051
110033
110014
109993
109971
109947
109921
109893
109862
109829
109793
109752
109704
109647
109578
109498
109406
109311
109223
109157
109126
109117
109119
109130
109160
109223
109333
109431
109219
105457
91398
75007.7
80117.9
82623
99342.1
107830
107576
106768
105932
105097
104288
103313
101839
99713.2
97098.2
94057
90083.2
84846.8
110092
110090
110086
110078
110067
110053
110036
110019
110001
109981
109961
109938
109914
109887
109859
109828
109794
109757
109714
109664
109606
109540
109467
109393
109324
109268
109230
109208
109199
109204
109229
109280
109391
109495
109028
98688.2
84397.5
79661.5
92035.8
89866.7
102439
108343
107933
107108
106161
105312
104603
103755
102329
100304
97715.9
93848.6
89260.7
90012.1
110092
110090
110086
110078
110067
110052
110036
110019
110001
109981
109961
109938
109914
109888
109859
109828
109795
109757
109715
109665
109607
109540
109468
109394
109325
109269
109229
109206
109197
109202
109232
109301
109452
109467
105129
91136.1
70485.5
70656.9
84842.2
95875.2
110155
109788
108330
107198
106185
105275
104461
103511
102039
100019
97641
94714.4
90601.3
90552.3
110077
110075
110071
110064
110052
110039
110023
110007
109990
109971
109952
109931
109909
109884
109857
109829
109798
109764
109726
109683
109634
109578
109518
109456
109397
109343
109299
109264
109240
109230
109231
109254
109303
109224
102175
86752.7
78301.7
86406.6
96352.3
95623.2
103669
109171
108464
107429
106469
105662
104958
104130
102846
101006
98691.5
94440.1
88093.5
86540.7
110077
110075
110071
110063
110052
110039
110023
110007
109990
109972
109952
109932
109909
109884
109858
109830
109799
109765
109727
109684
109634
109579
109518
109456
109397
109343
109297
109262
109238
109228
109235
109252
109326
108323
91415.7
67224.3
69418.4
79631.4
95294
97565.9
105045
111266
108877
107454
106402
105535
104824
103949
102574
100616
98391.9
95305.5
90639.1
92600.5
110064
110062
110058
110051
110040
110027
110012
109997
109980
109963
109945
109926
109905
109882
109857
109831
109803
109772
109738
109700
109657
109609
109557
109502
109446
109392
109340
109292
109253
109226
109184
109197
108957
101737
86890.8
70241.1
80328.6
87488.3
93455.4
92019.5
107469
109537
108517
107589
106789
106107
105351
104498
103549
102482
101176
97573.3
89090
90852.8
110064
110062
110058
110051
110040
110027
110012
109997
109980
109963
109945
109926
109905
109882
109858
109832
109804
109773
109739
109701
109658
109609
109557
109502
109446
109390
109338
109290
109251
109222
109195
109101
107797
104036
77574.5
68914
80730.9
86961.7
91927.6
67954.5
105933
111172
108744
107293
106476
105882
105195
104299
103310
102006
100430
97050.8
89604.5
85748.9
110053
110051
110047
110040
110030
110017
110003
109988
109973
109957
109940
109922
109902
109881
109858
109834
109808
109780
109750
109716
109677
109634
109586
109534
109478
109420
109359
109298
109239
109183
109095
108614
108067
97257.9
82778.3
74759.7
88801.7
100183
109909
99754.3
109928
108859
107744
107498
107041
106446
105518
104468
103763
103669
103531
99265.3
87854.4
91357.7
110053
110051
110047
110040
110029
110017
110003
109988
109973
109957
109940
109922
109903
109882
109859
109835
109809
109781
109750
109716
109677
109634
109586
109534
109477
109418
109357
109296
109238
109188
109130
108975
107424
93840.3
78979.6
77473.4
90774.5
107157
121977
108179
106437
109634
107632
107128
106740
106200
105321
104267
103555
103433
102996
98568.6
87812.3
90790.4
110044
110042
110038
110031
110021
110009
109995
109981
109967
109952
109936
109919
109901
109881
109860
109837
109813
109787
109759
109728
109692
109652
109607
109555
109498
109433
109362
109285
109204
109121
109050
109056
111502
112277
99534.8
100621
114020
114548
106195
106080
107739
107172
106913
107309
107256
106778
105414
104043
103428
103113
101871
94786.6
83190.6
90288.1
110044
110042
110038
110031
110021
110009
109995
109981
109967
109952
109936
109919
109901
109881
109860
109838
109814
109788
109760
109728
109692
109652
109606
109554
109496
109431
109359
109281
109200
109117
109042
109008
109934
101849
94576.2
102213
115041
123223
127455
106686
106038
106977
106625
107015
106960
106511
105190
103794
103080
102715
101293
94195.7
83064.2
88770.2
110036
110035
110031
110024
110014
110002
109989
109976
109962
109948
109933
109917
109900
109881
109861
109840
109817
109793
109767
109737
109704
109665
109620
109568
109508
109437
109355
109260
109156
109033
108905
108777
108870
109687
108416
109223
115432
116936
109733
107035
106494
105979
106250
107025
107347
107061
105860
104873
104371
103509
101342
93571.7
80751
91695.2
110036
110035
110031
110024
110014
110002
109990
109976
109962
109948
109933
109917
109900
109881
109862
109841
109818
109794
109767
109737
109704
109665
109620
109567
109506
109434
109352
109254
109143
109019
108875
108657
108341
108576
110281
114607
122467
122771
115831
107360
106090
105579
105888
106643
107090
107074
105779
104544
104165
103707
101371
92952.9
80109.7
91170.9
110031
110029
110025
110019
110009
109998
109985
109972
109959
109945
109931
109916
109899
109882
109863
109842
109821
109798
109772
109744
109711
109673
109628
109575
109511
109435
109345
109238
109111
108958
108771
108555
108189
108092
107882
108235
110445
112760
107449
104779
104577
104066
104824
106208
106809
106328
105088
104586
104921
105689
104837
95226
73814.7
83306.9
110031
110029
110025
110018
110009
109998
109985
109972
109959
109945
109931
109916
109899
109882
109863
109843
109821
109798
109772
109744
109711
109673
109628
109574
109510
109433
109341
109234
109105
108948
108742
108387
108010
107712
108819
111379
115741
117056
112307
106928
104776
104066
104618
105867
106828
106750
105602
104807
105078
106151
105350
95481.7
73600.5
82207.6
110027
110025
110022
110015
110006
109995
109982
109970
109957
109944
109930
109915
109899
109882
109864
109845
109824
109801
109776
109748
109715
109677
109632
109577
109511
109430
109333
109218
109078
108907
108695
108432
108086
107661
107307
106952
105214
103898
102071
101666
102505
102755
103322
105056
105942
105366
104602
105137
107999
112924
117097
106218
65551.2
68410.4
110027
110025
110022
110015
110006
109995
109983
109970
109957
109944
109930
109915
109900
109883
109865
109845
109824
109801
109776
109748
109715
109677
109631
109576
109509
109428
109331
109215
109074
108898
108685
108420
108104
108038
107756
107994
109167
106898
104007
102792
102802
103029
103604
105190
106312
105930
105237
105406
108162
113231
117648
106396
64597.7
68605
110025
110024
110020
110013
110003
109993
109981
109968
109956
109943
109929
109915
109899
109883
109865
109846
109825
109803
109778
109750
109717
109678
109632
109576
109508
109424
109324
109204
109058
108880
108660
108388
108030
107535
106853
105864
104391
102394
100931
100416
100795
102433
104074
104989
105573
104733
105638
108101
111573
119482
125136
112238
70810.5
44754.4
110025
110024
110020
110013
110004
109993
109981
109968
109956
109943
109929
109915
109900
109883
109865
109846
109825
109803
109778
109749
109716
109678
109631
109574
109505
109421
109321
109200
109054
108874
108656
108388
108046
107590
106980
105960
104532
102590
100839
100235
100620
103296
104212
105090
105759
105275
105298
107483
112896
120301
125671
111691
69930.5
44305.4
109040
110044
108940
110774
110603
107541
108122
107576
107281
107238
108809
109668
108721
110386
109871
107561
108086
107569
107207
107384
110242
108847
107480
108801
107459
107359
107338
107338
107538
107358
107567
109705
108822
107412
108909
107296
107266
107331
107298
107535
107079
107390
109181
109424
109186
109653
109321
109662
109332
108361
108754
108352
108558
108011
108561
108022
109170
109372
109113
109636
109280
109560
109186
108345
108705
108335
108540
107998
108453
107978
110074
109901
110106
109966
110291
109974
110293
105797
107600
108165
107577
105746
107877
107718
107878
107536
107789
107507
107774
110114
109813
109998
109927
110196
109865
110139
105741
107577
107958
107546
105807
107856
107709
107850
107492
107748
107541
107749
110012
109843
109995
109557
109444
109550
109419
108064
110411
109720
109692
108277
107324
107317
107931
107616
107914
107810
108025
107798
108009
109952
109768
109892
109535
109406
109523
109404
107147
109680
109361
107469
109296
107722
107465
107870
107578
107833
107770
107967
107703
107921
108134
108634
108102
108747
108420
108736
108401
107657
107663
107631
108117
108061
108091
108043
108058
108652
108064
108727
108380
108736
108383
107618
107570
107611
108059
108039
108054
108028
110548
109695
108996
109682
110607
110441
108988
109646
109682
110167
110981
110743
110808
110773
111047
110878
111052
110842
110559
110743
110737
110338
110583
108990
105903
108145
107620
107608
105897
105558
105339
106437
107331
107276
107319
106298
105699
105673
106496
107260
107246
107267
106409
113360
109516
108679
109351
110160
110795
108591
109186
109201
108848
111642
110354
110569
110868
111002
121517
109358
111348
113139
109957
110030
134788
110947
112073
105770
107843
107417
107412
105737
105541
105576
106348
107259
107207
106323
107278
105525
105237
106410
107419
107332
107381
106291
107049
107256
107963
110379
109588
109670
107657
106931
106713
107000
107805
107497
107789
107192
106958
107506
107765
106916
107771
107329
107361
107398
107388
107335
107317
107188
107331
107345
107399
107401
107214
107235
107358
107386
107387
107269
107225
107429
107383
107178
107386
105919
106523
107294
109769
109528
109456
107387
106099
104679
106574
107757
107272
106798
107660
106595
107201
107735
107671
106999
106849
107193
107328
107124
107223
105811
180662
106396
107294
107127
107214
104973
106893
107277
107131
107134
107160
105890
107050
106813
106967
106120
110570
110055
110086
110433
110059
110462
110572
111129
109828
109707
110000
109682
110116
109758
110569
110092
109988
110364
110062
110471
110496
106916
107417
107537
107331
107409
107351
106853
106980
107570
107481
107353
107465
107356
106971
110684
109809
109483
111559
109660
110436
111883
106853
107431
107572
107319
107428
106871
107295
106889
107552
107397
107340
107386
107337
106781
108268
109093
108365
108830
109066
108331
108329
108236
109018
108816
108319
109049
108231
108317
107326
107439
107388
107530
107446
107406
107303
107343
107489
107542
107449
107466
107345
107425
108215
109013
108372
108828
108240
109001
108358
108336
109147
108858
108491
109069
108408
108478
107160
107456
107367
107531
107297
107328
107363
106663
107152
107468
107032
107218
107161
106267
106157
106586
105029
105721
106552
106145
104932
106279
107231
107045
106518
106320
107033
106970
106329
106047
105607
106516
105045
106483
104808
106228
105977
106456
105712
104902
106475
105901
104887
106060
106590
106118
106419
106048
105756
106551
105063
106073
106516
104986
105855
106056
106087
105784
109382
108656
108823
108068
108665
109340
108832
110090
110711
110734
110144
110064
110648
110687
110020
109430
108116
108860
108933
108721
108880
109471
107349
107322
108020
106731
107198
108326
107032
108055
108187
107895
108461
108451
108233
108612
114164
110829
108854
108051
107285
107398
108347
108261
106807
108311
106613
107134
109574
110186
110011
110584
110200
109550
110037
108896
108153
108021
108952
108727
107926
107869
108743
109651
110640
110209
110162
110231
110115
109720
109475
110165
109825
110343
109500
110149
109671
108484
107465
107659
108199
108653
107868
108685
107817
109305
110217
110079
85793.5
110126
109098
108941
111143
110914
111149
111050
110946
111232
111088
111222
111096
111137
111187
111164
111027
111077
111110
111177
111099
110922
111308
110961
111322
111130
110972
111054
110584
110859
110641
110730
110783
110890
109679
110099
109109
109425
109843
110339
110456
110708
110846
110644
109101
110165
110451
110763
110856
110359
110290
109901
106234
106643
105132
105917
106200
106635
105149
106288
106704
106200
106829
106354
106964
106313
106936
106156
105910
106623
105117
106142
106624
105073
105491
105341
107020
106993
106671
106362
106992
106619
107014
107133
107273
107277
107189
107196
107328
107202
107300
106942
106260
106875
106486
106920
106525
106953
105771
105719
106949
106962
106474
106656
106941
106956
106633
107114
107226
107077
107219
106901
106463
106887
106585
106916
106605
106856
107156
107287
107172
107248
108959
109493
111736
111892
109870
108884
108921
107797
107242
107026
107921
108899
110515
109807
107719
109704
108847
108550
107348
106510
106514
107326
108506
109253
110212
109808
108648
109370
108637
105799
105227
105863
105067
107872
106947
107687
107238
107401
108667
108973
108490
108966
107645
107531
115963
112194
112297
112046
112139
108678
112251
142617
109889
116789
109338
113015
110941
110769
127627
111519
110148
111494
117397
120926
114898
116873
118764
111911
120618
111520
114538
112747
115570
111842
106903
112734
105430
108222
125393
111476
114630
113413
111017
126304
115974
116122
122326
114889
106815
137765
111002
112375
106050
106483
104989
105824
105968
106548
105072
105914
103576
106637
105462
105963
106300
105904
106552
106256
105696
106563
105198
106529
105069
106901
105546
105516
106963
106274
106900
106611
106864
106541
107000
107100
107193
107075
107174
106920
106279
106862
106578
106895
106857
106546
107141
107242
107192
107179
105613
105435
107171
106985
106679
106448
107043
107123
106742
107298
107352
107244
107430
107300
107326
107286
107268
107152
106366
106978
106707
106997
106750
107217
107040
107051
109111
108453
108782
107844
109241
108148
108716
109276
109129
108910
109672
109651
110428
109864
110121
108832
107775
107743
108550