/*--------------------------------*- C++ -*----------------------------------*\
| =========                 |                                                 |
| \\      /  F ield         | OpenFOAM: The Open Source CFD Toolbox           |
|  \\    /   O peration     | Version:  4.1                                   |
|   \\  /    A nd           | Web:      www.OpenFOAM.org                      |
|    \\/     M anipulation  |                                                 |
\*---------------------------------------------------------------------------*/
FoamFile
{
    version     2.0;
    format      ascii;
    class       surfaceScalarField;
    location    "15";
    object      phi;
}
// * * * * * * * * * * * * * * * * * * * * * * * * * * * * * * * * * * * * * //

dimensions      [0 3 -1 0 0 0 0];

internalField   nonuniform List<scalar> 
11516
(
9.96089e+06
1408.53
40755.7
9.96422e+06
12202.7
74964.2
9.92019e+06
14041.6
124347
9.82104e+06
14913.7
184461
9.66228e+06
16050.8
250910
9.44044e+06
17390.3
322305
9.1509e+06
18955.6
399553
8.7894e+06
20787.5
482718
8.35515e+06
23179.5
570072
7.85435e+06
26714.2
658005
7.3064e+06
31785.6
737841
6.74438e+06
42419
800703
6.20746e+06
49978.5
833844
5.78675e+06
52181.8
789057
5.65111e+06
99761.2
656763
5.79239e+06
125702
476040
6.33772e+06
117733
289939
7.4789e+06
75895.1
-428439
8.38333e+06
-59792
-571114
9.11679e+06
-231806
-708976
9.93416e+06
-473524
-985950
1.04027e+07
-291160
-1.12554e+06
1.16615e+07
154336
-2.56524e+06
1.39402e+07
577029
-3.91007e+06
1.65015e+07
682445
-4.11379e+06
1.80982e+07
654098
-2.92104e+06
1.81782e+07
558959
-1.07361e+06
1.70011e+07
312543
621910
1.55584e+07
280559
1.22549e+06
1.39002e+07
146580
1.72895e+06
1.25732e+07
-116017
1.99149e+06
1.13878e+07
-159554
2.03953e+06
9.22033e+06
-602993
3.45848e+06
2.98067e+06
341901
6.72651e+06
-8.1833e+06
4.31335e+06
8.62717e+06
-8.05758e+06
1.2944e+06
598504
-7.51821e+06
-535238
564993
-4.73818e+06
-199676
-2.89109e+06
-1.9149e+06
2.27145e+06
-5.63267e+06
-868634
3.67562e+06
-5.8475e+06
3.50915e+06
876199
-6.12363e+06
4.10839e+06
809.659
-3.63563e+06
2.30113e+06
-1.79741e+06
57137.2
3.17121e+06
-1.26121e+06
-1.63411e+06
4.93583e+06
-2.15499e+06
-271970
6.04992e+06
-816321
691772
4.5219e+06
1.56278e+06
2.94571e+06
1.702e+06
366785
6.4954e+06
-8.91442e+06
-3.50765e+06
1.77291e+07
-1.23322e+07
-4.00418e+06
1.35864e+07
-2.51437e+06
-6.12112e+06
668735
2.5986e+07
-5.85145e+06
-2.23819e+07
3.64366e+07
1.78136e+06
-1.11711e+07
3.23542e+06
-2.29305e+07
9.96165e+06
40876.7
9.96205e+06
75353.9
9.91767e+06
125301
9.81835e+06
185848
9.65954e+06
252574
9.43763e+06
324118
9.14816e+06
401261
8.78718e+06
484050
8.35431e+06
570694
7.85613e+06
657244
7.31246e+06
735704
6.75823e+06
795700
6.23234e+06
819726
5.8077e+06
787281
5.64595e+06
685302
5.84696e+06
493717
6.41323e+06
214568
7.47402e+06
-573820
8.35725e+06
-792730
9.05066e+06
-1.14607e+06
9.74548e+06
-1.71757e+06
1.04189e+07
-1.69537e+06
1.1832e+07
-2.00394e+06
1.45317e+07
-2.76685e+06
1.77412e+07
-3.00731e+06
1.92428e+07
-1.15297e+06
1.85173e+07
1.06739e+06
1.67094e+07
2.02003e+06
1.46627e+07
2.24541e+06
1.28476e+07
2.0702e+06
1.16729e+07
1.34111e+06
1.02489e+07
1.80093e+06
6.65476e+06
3.30844e+06
2.44287e+06
4.746e+06
1.96522e+06
5.39222e+06
2.45282e+06
1.44906e+06
1.85289e+06
-21180.7
2.01174e+06
-944079
284232
2.63152e+06
799199
1.77885e+06
3.36177e+06
-2.83555e+06
5.42852e+06
-3.81105e+06
6.29424e+06
-3.95707e+06
6.65448e+06
-2.52066e+06
6.20864e+06
-1.71879e+06
6.16195e+06
-90057.2
7.84995e+06
1.07847e+06
9.40506e+06
359468
9.81908e+06
-1.17475e+06
3.606e+06
4.75297e+06
-3.21935e+06
1.43047e+06
1.32543e+07
-2.12737e+07
2.984e+07
-1.36413e+07
-2.22881e+07
1.002e+07
1477.55
37100.1
1.01048e+07
13017.7
73839.2
1.02079e+07
15352.7
108500
1.03242e+07
16493.2
161777
1.04482e+07
17770.4
227947
1.05718e+07
19095.5
307389
1.06848e+07
20459.7
402519
1.07745e+07
21891.2
515822
1.08253e+07
23494.3
649094
1.08216e+07
25572.5
800162
1.07489e+07
28324.5
961730
1.05951e+07
33588.6
1.12477e+06
1.03616e+07
39998.3
1.26236e+06
1.00474e+07
48749.4
1.34478e+06
9.65198e+06
80902.1
1.32055e+06
9.35102e+06
104404
1.13755e+06
9.33161e+06
92675.5
930519
9.39419e+06
190.651
-237094
9.22801e+06
23558.7
-367492
8.654e+06
64089.4
-289776
8.30157e+06
101736
-968598
9.02402e+06
104161
-2.20103e+06
9.94562e+06
-28997.1
-3.716e+06
1.05542e+07
-91730.3
-4.59719e+06
1.08227e+07
41792.7
-4.53852e+06
1.10686e+07
393765
-3.65587e+06
1.13485e+07
475098
-1.98828e+06
1.16397e+07
59163.1
31422.7
1.15685e+07
-473504
1.53752e+06
1.05187e+07
-534207
3.1565e+06
8.35852e+06
-54651
4.19331e+06
5.75664e+06
92472.5
4.65404e+06
3.37601e+06
-359397
6.29958e+06
1.0663e+06
712731
8.19547e+06
-346516
3.36341e+06
6.52398e+06
-1.27912e+06
1.14306e+06
840601
-1.65455e+06
1.39622e+06
256063
-1.98978e+06
1.15787e+06
-3.3454e+06
-1.69301e+06
1.22893e+06
-7.51256e+06
547580
972086
-9.34429e+06
3.59734e+06
730597
-1.03365e+07
5.68165e+06
464646
-7.08577e+06
7.41225e+06
976490
-3.42743e+06
7.99775e+06
560374
-3.28097e+06
1.04278e+07
-579140
-1.73345e+06
1.26207e+07
818255
-1.42793e+06
8.26058e+06
2.85592e+06
6.33631e+06
-399416
1.60971e+06
1.59163e+07
-287136
-1.87511e+06
2.20707e+07
8.63465e+06
-6.27763e+06
1.40692e+07
-3.48186e+06
-4.43002e+06
1.85288e+07
-2.78902e+07
-3.3947e+06
7.58606e+06
-3.4239e+07
3.3207e+06
-5.85395e+06
2.38217e+06
-9.70709e+06
1.00215e+07
37074.3
1.01038e+07
73920.1
1.02074e+07
108701
1.03243e+07
162257
1.04489e+07
228742
1.05728e+07
308505
1.06858e+07
403901
1.07754e+07
517354
1.08261e+07
650594
1.08228e+07
801293
1.07514e+07
962580
1.06001e+07
1.12368e+06
1.03679e+07
1.2605e+06
1.00826e+07
1.32727e+06
9.83966e+06
1.29881e+06
9.59253e+06
1.26654e+06
9.47212e+06
854658
9.40982e+06
-371826
9.13427e+06
-477732
8.48157e+06
-504783
8.08731e+06
-1.37539e+06
8.87751e+06
-2.55474e+06
1.02384e+07
-3.56689e+06
1.13174e+07
-4.07708e+06
1.24048e+07
-4.13126e+06
1.41047e+07
-2.55135e+06
1.5581e+07
-63885.9
1.58451e+07
1.62264e+06
1.47176e+07
2.66136e+06
1.29216e+07
3.12925e+06
1.09477e+07
3.2166e+06
8.11871e+06
4.71776e+06
4.22503e+06
6.78126e+06
1.35005e+06
8.10816e+06
1.57729e+06
8.47475e+06
-398870
4.68848e+06
-1.92522e+06
3.05314e+06
-1.9121e+06
-46691.5
-840600
2.10647e+06
1.67238e+06
-569114
4.87773e+06
-5.84981e+06
7.53896e+06
-6.47645e+06
8.17962e+06
-4.0333e+06
8.91159e+06
-2.70574e+06
9.40892e+06
-2.44413e+06
1.09161e+07
192873
9.56752e+06
6.72286e+06
1.05852e+07
3.23828e+06
1.75413e+07
-7.56637e+06
9.96962e+06
8.21686e+06
-1.21312e+07
1.9521e+07
-3.81856e+07
3.25723e+06
-3.31337e+07
-1.5087e+07
-7.42714e+06
9.99386e+06
1480.9
53292.8
1.00435e+07
13118.6
107905
1.00851e+07
15536.3
154787
1.01183e+07
16888
224084
1.0146e+07
18432.4
304608
1.0173e+07
20008.7
394050
1.02046e+07
21528.9
493307
1.02452e+07
22956.3
605530
1.02993e+07
24306.8
732642
1.0367e+07
25822.1
878230
1.04432e+07
27729.9
1.04256e+06
1.05143e+07
30861.8
1.22598e+06
1.05487e+07
36840.7
1.42161e+06
1.05148e+07
33827.6
1.61773e+06
1.03482e+07
75360.9
1.78407e+06
9.94198e+06
138682
1.95411e+06
9.14161e+06
50930.6
2.26457e+06
7.61674e+06
-44801.6
1.4815e+06
6.17046e+06
34881.9
1.07562e+06
5.23229e+06
34438
550943
5.00312e+06
34471.8
-906662
5.50561e+06
462.337
-2.89674e+06
6.0596e+06
-80948
-4.35735e+06
5.99168e+06
-70023.1
-4.62045e+06
5.68916e+06
104870
-4.41672e+06
5.6557e+06
249685
-3.92221e+06
5.60815e+06
-31495.2
-2.02209e+06
5.37397e+06
-385352
439656
4.46353e+06
-641920
2.73198e+06
2.46366e+06
-163734
4.94346e+06
-382627
743433
5.9691e+06
-2.62154e+06
776659
5.86446e+06
-2.84556e+06
398249
5.79522e+06
-1.53957e+06
481806
5.75448e+06
-382937
831091
3.94195e+06
-1.59924e+06
274019
1.72376e+06
-2.04272e+06
390550
325432
-1.20625e+06
133143
-4.61744e+06
-709224
-313219
-7.88855e+06
905284
-1.05521e+06
-1.00395e+07
2.46779e+06
-418888
-1.1424e+07
4.85244e+06
-887931
-8.44663e+06
6.6835e+06
-1.09389e+06
-3.89078e+06
8.89703e+06
-1.18393e+06
-3.86086e+06
1.05465e+07
-125721
-2.8978e+06
3.98243e+06
1.01472e+06
5.00466e+06
-8.6323e+06
-2.19255e+06
2.17124e+07
-1.54519e+07
-968585
2.4024e+07
-3.32253e+06
2.97697e+06
7.55838e+06
1.16041e+07
-1.19711e+06
391222
3.05254e+07
-3.9846e+06
3.58402e+06
3.39031e+07
-7.53314e+06
1.23264e+07
9.72798e+06
2.53964e+06
1.55523e+07
3.25698e+06
8.47213e+06
9.99528e+06
53299.5
1.0042e+07
107694
1.00838e+07
154666
1.01174e+07
224016
1.01456e+07
304614
1.01729e+07
394154
1.02047e+07
493511
1.02454e+07
605825
1.02997e+07
733022
1.03679e+07
878674
1.04448e+07
1.04317e+06
1.05171e+07
1.22631e+06
1.05566e+07
1.42245e+06
1.05151e+07
1.60589e+06
1.03888e+07
1.78203e+06
1.01233e+07
2.08223e+06
9.23813e+06
2.19556e+06
7.45925e+06
1.49168e+06
6.02333e+06
1.01062e+06
5.20532e+06
307403
5.07595e+06
-1.28562e+06
5.65853e+06
-3.26789e+06
6.21944e+06
-4.36691e+06
6.29632e+06
-4.32022e+06
6.45765e+06
-4.2684e+06
7.31391e+06
-3.22974e+06
7.8221e+06
-727069
7.13664e+06
1.70268e+06
5.06499e+06
3.73776e+06
2.60109e+06
4.98868e+06
809550
5.398e+06
213755
5.77543e+06
487864
6.44592e+06
686145
7.83061e+06
1.05171e+06
8.48561e+06
-845054
6.41787e+06
-2.96116e+06
5.13807e+06
-3.36683e+06
-674360
-51250.5
-2.67593e+06
2.60617e+06
-4.45728e+06
5.71439e+06
-9.35625e+06
7.44729e+06
-8.96199e+06
8.04255e+06
-5.35647e+06
1.01395e+07
-5.69845e+06
1.13741e+07
-3.16798e+06
5.83907e+06
7.33791e+06
-5.47357e+06
1.61641e+07
-2.29418e+06
-834855
1.39878e+06
-8.04533e+06
8.38043e+06
-313980
1.88651e+07
5.28702e+06
6.65455e+06
6.96517e+06
-3.11956e+06
-3.12229e+06
-2.63465e+06
9.99346e+06
1524.99
69517.8
1.00451e+07
12862
138448
1.00896e+07
15311.3
196519
1.01229e+07
16710.9
284133
1.01439e+07
18291.7
385789
1.01524e+07
19920
496814
1.01483e+07
21510.8
617636
1.01336e+07
23021.5
748800
1.01115e+07
24469.4
891611
1.00882e+07
26042.6
1.04793e+06
1.00707e+07
28039.5
1.21973e+06
1.00641e+07
30876.8
1.41143e+06
1.00585e+07
37234.3
1.6314e+06
1.00505e+07
33170
1.88739e+06
9.94104e+06
74019.2
2.20735e+06
9.68821e+06
122119
2.61011e+06
9.27913e+06
332.125
3.21793e+06
7.53376e+06
-12990.7
3.52534e+06
5.70957e+06
88448.6
2.89616e+06
4.76256e+06
71497.1
1.44473e+06
4.48206e+06
10772.1
-685336
4.46597e+06
-87070.5
-2.92347e+06
3.63157e+06
-174036
-3.606e+06
1.98114e+06
-176569
-2.98747e+06
500133
-19245.1
-3.05381e+06
-692069
46024.9
-2.88447e+06
-1.85748e+06
-206601
-708069
-3.12163e+06
-387044
1.97739e+06
-4.75503e+06
-368548
4.46068e+06
-6.45356e+06
-20244
6.23011e+06
-7.631e+06
321620
6.42175e+06
-7.96755e+06
357933
5.45429e+06
-7.25274e+06
518212
4.24928e+06
-5.31522e+06
393407
3.13619e+06
-3.25821e+06
479940
1.18938e+06
-1.69269e+06
208865
-410450
-2.39853e+06
887022
-594726
-2.60852e+06
-212352
-5.85294e+06
-1.88659e+06
-753735
-8.50823e+06
-190996
-1.6679e+06
-1.00904e+07
511511
-715232
-1.13385e+07
1.75028e+06
-1.23959e+06
-8.14681e+06
4.75122e+06
-2.44015e+06
-3.59011e+06
7.60735e+06
-1.98463e+06
-4.48949e+06
3.02628e+06
506252
1.52678e+06
-8.33431e+06
121784
1.61733e+07
-1.20561e+07
-1.33408e+06
2.64919e+07
-3.63314e+06
1.01013e+06
1.38708e+07
8.26078e+06
3.92531e+06
-8.93151e+06
9.39575e+06
2.2225e+06
-4.09958e+06
2.35103e+07
-1.51295e+06
-1.03229e+07
4.14895e+07
-5.57353e+06
-2.10507e+06
4.6056e+07
623473
8.76811e+06
3.82295e+06
-1.20414e+07
9.99486e+06
69551.3
1.00439e+07
138368
1.00885e+07
196229
1.01223e+07
283808
1.01435e+07
385427
1.01522e+07
496403
1.01481e+07
617168
1.01334e+07
748279
1.01114e+07
891043
1.00886e+07
1.04733e+06
1.00718e+07
1.21923e+06
1.0066e+07
1.41081e+06
1.00667e+07
1.63113e+06
1.00375e+07
1.88289e+06
9.98134e+06
2.20484e+06
9.94777e+06
2.62767e+06
9.29393e+06
3.26282e+06
7.34875e+06
3.63568e+06
5.74987e+06
2.75772e+06
5.03289e+06
1.11747e+06
4.94238e+06
-1.24699e+06
4.56417e+06
-3.11128e+06
3.21768e+06
-3.34134e+06
1.45144e+06
-2.86249e+06
-143124
-2.80483e+06
-1.23055e+06
-2.18929e+06
-2.23417e+06
31155.5
-3.44952e+06
2.46016e+06
-4.92654e+06
4.65636e+06
-6.31852e+06
6.08204e+06
-7.02311e+06
6.1423e+06
-6.45441e+06
5.31381e+06
-4.33714e+06
4.56707e+06
-1.22483e+06
4.80858e+06
1.75815e+06
5.57391e+06
1.5656e+06
5.99162e+06
1.23156e+06
4.88352e+06
-648345
-1.37145e+06
461863
-5.33218e+06
2.10955e+06
-7.7611e+06
3.18646e+06
-1.1047e+07
4.79261e+06
-1.15198e+07
6.79371e+06
-9.36623e+06
9.46706e+06
-9.95496e+06
8.87673e+06
-1.97421e+06
2.608e+06
1.34638e+07
151091
1.68642e+07
5.56906e+06
-5.66167e+06
8.54985e+06
-7.85163e+06
1.24568e+07
-2.83833e+06
2.2493e+07
-7.59604e+06
2.80169e+07
-5.51864e+06
2.42782e+07
-883758
-2.03827e+07
9.99438e+06
1483.33
84688
1.00479e+07
12802
165529
1.00964e+07
15049.8
231751
1.01364e+07
16277.6
334389
1.01668e+07
17729.2
453621
1.01866e+07
19245
583643
1.01942e+07
20730.3
724923
1.01874e+07
22150.5
878251
1.01636e+07
23530
1.04582e+06
1.01222e+07
25028.9
1.22894e+06
1.00655e+07
27076.1
1.42956e+06
9.99778e+06
29731.3
1.65161e+06
9.92458e+06
36019.8
1.90417e+06
9.86707e+06
34253.2
2.20038e+06
9.80811e+06
61912
2.57866e+06
9.7865e+06
113919
3.02636e+06
9.89678e+06
48166.6
3.6612e+06
9.23858e+06
16176.6
4.64499e+06
7.74545e+06
112014
4.41901e+06
6.68273e+06
73064.7
2.50036e+06
6.11887e+06
-146045
-12425.7
5.21713e+06
-152620
-2.01023e+06
2.61322e+06
68802.6
-1.26658e+06
-88401.6
-124747
-383876
-2.43409e+06
-97972.1
-841806
-4.34847e+06
-29058
-1.09096e+06
-5.56608e+06
35322.6
542258
-6.27527e+06
-83122
2.83646e+06
-6.56141e+06
-120030
4.83505e+06
-6.5005e+06
-60365.7
6.09718e+06
-6.13009e+06
5421.91
5.84667e+06
-5.63414e+06
2640.4
4.78137e+06
-5.10965e+06
-41485.4
3.60006e+06
-4.45558e+06
-49306.7
2.43626e+06
-3.90635e+06
97847
428360
-3.66823e+06
-232250
-918939
-4.23882e+06
-655041
-1.03034e+06
-4.13837e+06
-1.95641e+06
-5.72724e+06
-2.47653e+06
-1.68841e+06
-9.14605e+06
-869632
-1.21682e+06
-1.04783e+07
-680318
-980240
-1.04778e+07
725185
-1.28586e+06
-7.86269e+06
4.61977e+06
-1.63185e+06
-4.95151e+06
3.25275e+06
-231166
-2.11925e+06
-6.85147e+06
1.9334e+06
9.73348e+06
-1.33568e+07
111362
2.25273e+07
-9.27161e+06
697496
2.16041e+07
2.73968e+06
2.23618e+06
-254844
6.21029e+06
-1.49524e+06
-1.17059e+07
4.79947e+06
72588.7
-4.39099e+06
-6.54193e+06
346308
-757794
-1.13931e+07
27359.4
80240.9
-1.27541e+07
1.39436e+06
5.36621e+06
1.72671e+06
-2.14062e+06
9.99578e+06
84672.8
1.00464e+07
165097
1.00952e+07
231367
1.01356e+07
333943
1.01664e+07
453088
1.01864e+07
583038
1.0194e+07
724240
1.01871e+07
877490
1.01634e+07
1.04496e+06
1.01224e+07
1.22798e+06
1.00663e+07
1.42845e+06
9.99909e+06
1.65037e+06
9.93184e+06
1.90259e+06
9.85943e+06
2.19787e+06
9.8299e+06
2.57062e+06
9.93525e+06
2.99824e+06
9.84546e+06
3.79177e+06
8.9985e+06
4.78294e+06
7.88957e+06
4.13594e+06
6.98014e+06
2.15974e+06
6.31436e+06
-740944
4.82716e+06
-1.86747e+06
2.12279e+06
-662042
-448233
-560338
-2.99679e+06
-495984
-4.97588e+06
-287111
-5.95316e+06
1.08311e+06
-6.29903e+06
2.77488e+06
-6.36344e+06
4.5989e+06
-6.21489e+06
5.79543e+06
-5.8552e+06
5.68146e+06
-5.36951e+06
4.72026e+06
-4.71836e+06
3.78858e+06
-3.56589e+06
3.51316e+06
-1.37785e+06
2.90187e+06
11402.9
2.95649e+06
241820
2.2423e+06
-689088
-3.93814e+06
242180
-8.37911e+06
1.02516e+06
-9.65141e+06
1.13908e+06
-1.20285e+07
2.28881e+06
-1.36223e+07
5.16319e+06
-1.33371e+07
5.34639e+06
-1.01334e+07
3.29467e+06
2.26812e+06
1.07518e+06
1.58095e+07
5.44888e+06
1.32935e+07
9.1109e+06
-7.35056e+06
8.27828e+06
-9.18095e+06
5.93801e+06
-1.25557e+06
-2.09382e+06
-592043
-1.52046e+07
4.29689e+06
-1.90835e+07
1.93868e+06
-4.95427e+06
9.99564e+06
1524.57
97917
1.00499e+07
12321.5
189377
1.01015e+07
14563.4
261409
1.01472e+07
15778.2
376036
1.01859e+07
17150.9
509638
1.02165e+07
18574.9
655401
1.02383e+07
19958.3
813067
1.02491e+07
21281.2
984530
1.0246e+07
22544.5
1.17285e+06
1.02267e+07
23911.7
1.3804e+06
1.01891e+07
25703.1
1.61072e+06
1.01347e+07
28133.6
1.86738e+06
1.00677e+07
33413.2
2.15756e+06
1.00059e+07
34243.9
2.48896e+06
9.98149e+06
48821.1
2.88992e+06
9.97677e+06
98931.7
3.34755e+06
1.01535e+07
66584.9
3.91816e+06
1.03099e+07
-1392.12
4.93695e+06
9.48585e+06
2570.69
5.52806e+06
7.6092e+06
-1644.19
4.55649e+06
5.86505e+06
-428855
2.30597e+06
3.62729e+06
-175854
418482
1.59536e+06
285107
471132
52730.4
9060
930802
-2.1217e+06
-42387.6
1.1152e+06
-3.64028e+06
-43112.2
485030
-4.3927e+06
161587
1.27424e+06
-4.61481e+06
137745
3.11494e+06
-4.34741e+06
50175.5
4.63681e+06
-3.73723e+06
32480
5.47766e+06
-3.01254e+06
37062.4
5.04835e+06
-2.49938e+06
12049
4.15733e+06
-2.31486e+06
13609.2
3.30623e+06
-2.47318e+06
72486.2
2.40713e+06
-4.3959e+06
1.39547e+06
582462
-3.99637e+06
-1.13766e+06
-1.08515e+06
-4.39584e+06
-1.94926e+06
-361300
-4.85747e+06
-1.30101e+06
-5.18147e+06
-3.82562e+06
-369158
-1.01328e+07
-2.47042e+06
-561277
-1.12052e+07
-1.27411e+06
-604185
-1.08412e+07
1.17491e+06
-1.36318e+06
-7.81188e+06
1.05929e+06
-875640
-2.69993e+06
-4.60893e+06
-1.38684e+06
5.30671e+06
-1.17767e+07
22499.6
1.73385e+07
-1.12452e+07
-639852
2.29654e+07
-948601
-267518
1.23067e+07
6.2723e+06
1.91964e+06
-8.61243e+06
3.02817e+06
489489
-9.08956e+06
1.82137e+06
377474
-4.93066e+06
-1.01681e+07
56260.5
7.22803e+06
-2.88974e+07
3.46157e+06
1.05766e+07
-4.18508e+07
2.26769e+06
1.1378e+07
-469658
1.4771e+07
9.99701e+06
97984.1
1.00488e+07
189245
1.01006e+07
260990
1.01467e+07
375567
1.01856e+07
509101
1.02164e+07
654767
1.02382e+07
812323
1.02489e+07
983658
1.02459e+07
1.17185e+06
1.02268e+07
1.37925e+06
1.01899e+07
1.60938e+06
1.01359e+07
1.86593e+06
1.00718e+07
2.15516e+06
1.00058e+07
2.48831e+06
9.97938e+06
2.88363e+06
1.00552e+07
3.3168e+06
1.02511e+07
3.99257e+06
1.02494e+07
5.08953e+06
9.08211e+06
5.54284e+06
6.78573e+06
4.64251e+06
3.73861e+06
1.96734e+06
2.12544e+06
-268387
969895
715151
-752811
1.07558e+06
-2.71206e+06
1.3075e+06
-4.04165e+06
1.00344e+06
-4.57279e+06
1.88722e+06
-4.6243e+06
3.07135e+06
-4.2867e+06
4.36759e+06
-3.66274e+06
5.19992e+06
-2.97165e+06
4.98231e+06
-2.49909e+06
4.19828e+06
-2.29904e+06
3.52437e+06
-2.64916e+06
3.56331e+06
-3.37323e+06
3.73294e+06
-2.95224e+06
326838
-2.61307e+06
-1.22831e+06
-1.68841e+06
-6.79098e+06
-602062
-9.84898e+06
312619
-1.09113e+07
606833
-1.25971e+07
677369
-1.4416e+07
1.91161e+06
-1.47967e+07
34542.8
-8.83817e+06
-1.71382e+06
4.82349e+06
-1.52592e+06
1.53961e+07
4.87742e+06
7.24421e+06
7.12978e+06
-7.29633e+06
6.98698e+06
-8.69214e+06
6.65872e+06
-1.84339e+06
-1.96796e+06
3.31082e+06
-1.052e+07
1.13909e+07
-1.79586e+07
1.0283e+07
1.16249e+07
9.99657e+06
1463.05
110275
1.00525e+07
12220.2
209490
1.01075e+07
14258.1
284982
1.01584e+07
15284.6
409117
1.02046e+07
16509.4
554201
1.02452e+07
17794.1
712543
1.02797e+07
19044.6
883031
1.03067e+07
20233.7
1.06827e+06
1.03249e+07
21363
1.27153e+06
1.03322e+07
22557.8
1.49684e+06
1.03289e+07
24074.9
1.74735e+06
1.03156e+07
26296.8
2.02844e+06
1.02952e+07
30130.3
2.34589e+06
1.02797e+07
33847.3
2.70455e+06
1.0294e+07
39379.9
3.11677e+06
1.03163e+07
74264.1
3.58092e+06
1.04193e+07
79571.4
4.09409e+06
1.07426e+07
27131.1
4.90566e+06
1.05588e+07
56161.8
5.929e+06
9.08857e+06
39657.8
6.26695e+06
6.37585e+06
-43372.9
5.31008e+06
4.17141e+06
-302044
3.52262e+06
2.90371e+06
-194497
1.95715e+06
2.04591e+06
-108155
1.85575e+06
93347.2
142896
2.86462e+06
-1.33253e+06
-152458
2.0458e+06
-1.81476e+06
59144.3
1.87806e+06
-1.77092e+06
338933
2.85828e+06
-1.80509e+06
136213
4.58673e+06
-1.63477e+06
30672.5
5.27542e+06
-1.34112e+06
36684
4.67685e+06
-1.16487e+06
40407.3
3.88109e+06
-1.23604e+06
29610
3.27257e+06
-2.29542e+06
12641.8
3.31716e+06
-4.45513e+06
-1.17865e+06
3.33465e+06
-4.60035e+06
-163828
-799901
-4.20035e+06
-139701
-1.16924e+06
-3.73436e+06
-555108
-5.59496e+06
-4.09583e+06
208693
-9.99216e+06
-3.19047e+06
192972
-1.19436e+07
-2.0697e+06
-780573
-1.02071e+07
-1.75889e+06
-54565
-6.0281e+06
-4.93318e+06
66619.6
1.6698e+06
-9.46874e+06
-1.43912e+06
1.20535e+07
-1.17806e+07
-1.60289e+06
2.16173e+07
-7.52542e+06
-1.71541e+06
2.08074e+07
3.45286e+06
-2.35163e+06
4.64267e+06
6.83573e+06
-2.53255e+06
-8.28091e+06
3.48028e+06
899989
-6.38907e+06
2.90365e+06
1.72619e+06
-7.00199e+06
1.56034e+07
429082
-7.1498e+06
2.89119e+07
-117851
-3.56089e+06
3.71891e+07
2.66718e+06
827955
7.80051e+06
-1.54077e+07
9.99799e+06
110230
1.00512e+07
208828
1.01063e+07
284371
1.01576e+07
408411
1.02041e+07
553362
1.02449e+07
711583
1.02795e+07
881949
1.03064e+07
1.06705e+06
1.03245e+07
1.27018e+06
1.03321e+07
1.4953e+06
1.03293e+07
1.74553e+06
1.03166e+07
2.02618e+06
1.02983e+07
2.34245e+06
1.02827e+07
2.7006e+06
1.02893e+07
3.11001e+06
1.03493e+07
3.5541e+06
1.05583e+07
4.08642e+06
1.08848e+07
4.99599e+06
1.06149e+07
6.04996e+06
8.99668e+06
6.47443e+06
5.72002e+06
5.52064e+06
2.64655e+06
2.7431e+06
1.29142e+06
2.14072e+06
659874
1.5619e+06
-567823
2.67515e+06
-1.65764e+06
2.01037e+06
-1.91274e+06
2.28227e+06
-1.89801e+06
3.43256e+06
-1.7651e+06
4.37965e+06
-1.52335e+06
4.96912e+06
-1.28534e+06
4.74149e+06
-1.15864e+06
4.06888e+06
-1.39144e+06
3.70191e+06
-2.68687e+06
4.27838e+06
-4.13338e+06
3.34959e+06
-3.16683e+06
-1.20474e+06
-1.64438e+06
-3.30724e+06
-1.34076e+06
-7.72967e+06
-1.28846e+06
-9.54898e+06
248732
-1.18826e+07
633682
-1.30705e+07
460702
-1.3285e+07
-541491
-1.25034e+07
-2.40847e+06
-7.19342e+06
-294020
2.15459e+06
2.88669e+06
1.10034e+07
6.99165e+06
1.53264e+06
6.03673e+06
-8.44156e+06
5.96184e+06
-7.7735e+06
1.30883e+07
-7.68946e+06
2.36183e+07
-7.72587e+06
3.5198e+07
-615500
4.05064e+07
8.74065e+06
7.49067e+06
9.9982e+06
1502.59
120043
1.00541e+07
11499.4
225818
1.01115e+07
13521.1
302601
1.01676e+07
14550.8
433051
1.02212e+07
15695.6
586597
1.02719e+07
16871.4
754091
1.03193e+07
18001
933803
1.03622e+07
19057.4
1.12906e+06
1.04002e+07
20054.9
1.34243e+06
1.04335e+07
21049.5
1.57784e+06
1.04629e+07
22231.6
1.83933e+06
1.04911e+07
23888.3
2.13119e+06
1.05224e+07
26316.3
2.45812e+06
1.05629e+07
29400.1
2.82464e+06
1.06253e+07
30893.9
3.23327e+06
1.07062e+07
48511.7
3.69085e+06
1.08031e+07
66134.6
4.17034e+06
1.11242e+07
47552.7
4.77216e+06
1.15919e+07
36150.3
5.63617e+06
1.1598e+07
23788.9
6.43899e+06
1.02371e+07
131717
6.78199e+06
8.09601e+06
-284667
6.27636e+06
6.07564e+06
-232441
4.76068e+06
4.32656e+06
277193
3.53311e+06
3.20701e+06
96218.1
3.95067e+06
2.06016e+06
-246215
3.49305e+06
1.17374e+06
-140288
2.90308e+06
409121
345449
3.13507e+06
-230147
151643
4.92979e+06
-435234
-109428
5.44161e+06
-484517
-86136.6
4.73807e+06
-565264
-14068.6
3.93229e+06
-808854
108121
3.3691e+06
-1.38573e+06
-460141
4.03281e+06
-894849
-1.86772e+06
4.19648e+06
-505023
-1.07743e+06
-366239
282336
379804
-2.54083e+06
-862041
700926
-5.11871e+06
-2.57084e+06
536446
-8.47086e+06
-3.88932e+06
1.09966e+06
-1.10848e+07
-3.78812e+06
349110
-9.29999e+06
-3.9943e+06
626127
-4.13568e+06
-6.42701e+06
941986
4.66702e+06
-9.38821e+06
661154
1.52806e+07
-8.96302e+06
-889801
2.27162e+07
-3.31706e+06
-2.95014e+06
1.84752e+07
4.05905e+06
-4.0645e+06
2.04364e+06
4.00923e+06
-4.54784e+06
-2.43634e+06
436834
-1.14026e+06
-537640
-6.26014e+06
1.35929e+06
-1.22697e+06
-1.12532e+07
1.86408e+06
-3.36914e+06
-1.08916e+07
3.52218e+06
-6.10053e+06
-1.50693e+07
8.42041e+06
-1.47764e+06
3.08481e+07
127928
9.99954e+06
120143
1.00533e+07
225620
1.01108e+07
302040
1.01671e+07
432427
1.02209e+07
585893
1.02717e+07
753272
1.03191e+07
932852
1.03619e+07
1.12796e+06
1.03998e+07
1.34119e+06
1.04333e+07
1.57643e+06
1.04629e+07
1.83768e+06
1.04916e+07
2.12913e+06
1.05234e+07
2.45539e+06
1.05642e+07
2.82089e+06
1.06231e+07
3.22994e+06
1.07081e+07
3.67524e+06
1.08812e+07
4.13902e+06
1.12824e+07
4.78592e+06
1.17772e+07
5.72294e+06
1.17473e+07
6.66768e+06
1.05926e+07
6.98021e+06
7.22773e+06
6.13826e+06
4.35589e+06
4.99153e+06
3.2181e+06
3.19334e+06
2.79399e+06
3.33932e+06
1.62172e+06
2.96836e+06
784017
2.9072e+06
388214
4.0966e+06
-80812.2
4.9343e+06
-498128
5.18807e+06
-907237
4.97712e+06
-1.16262e+06
4.24158e+06
-1.31959e+06
3.79886e+06
-1.38612e+06
3.4708e+06
-1.20529e+06
944733
-1.71164e+06
-1.893e+06
381659
-4.97989e+06
354355
-6.83037e+06
-226727
-8.08272e+06
470770
-1.09157e+07
1.15964e+06
-1.25767e+07
2.02225e+06
-1.2435e+07
1.80442e+06
-1.00025e+07
3.17544e+06
-6.22203e+06
6.5689e+06
-892819
9.46968e+06
5.66043e+06
7.9654e+06
-378920
-2.05084e+06
-2.44785e+06
-9.69255e+06
-989800
-1.32175e+07
-2.63535e+06
-1.39038e+07
-4.91968e+06
-3.23434e+06
-6.742e+06
1.61205e+07
73697.6
-5.87649e+06
9.99921e+06
1423.51
129008
1.00565e+07
11346.1
238392
1.01163e+07
13167.3
314483
1.01766e+07
14004.8
448928
1.02368e+07
15002.5
607985
1.02968e+07
16040.3
781339
1.03562e+07
17037.5
966851
1.04147e+07
17967.5
1.16758e+06
1.0472e+07
18829.8
1.38646e+06
1.05287e+07
19660.4
1.62654e+06
1.05871e+07
20584.3
1.89135e+06
1.06498e+07
21782.3
2.18512e+06
1.07216e+07
23442.7
2.5105e+06
1.08078e+07
25382.5
2.87092e+06
1.09167e+07
26903.4
3.26642e+06
1.10495e+07
32554.7
3.69942e+06
1.11881e+07
44650.3
4.15288e+06
1.14293e+07
45016.6
4.63871e+06
1.19297e+07
26921.8
5.25103e+06
1.25234e+07
12657.8
5.98286e+06
1.27306e+07
-1356.57
6.72862e+06
1.20685e+07
-72156.1
7.203e+06
1.03767e+07
140462
6.6085e+06
8.36329e+06
460118
5.47808e+06
7.22326e+06
5647.65
5.28785e+06
6.15687e+06
-405854
4.98334e+06
4.71881e+06
-221687
4.34773e+06
2.67547e+06
195614
4.48657e+06
1.32486e+06
271738
5.44557e+06
903052
-223519
5.56746e+06
625142
-299150
4.99272e+06
131964
-116626
4.36059e+06
-99856.4
-58719.2
3.57816e+06
575150
-358132
3.55514e+06
3.96882e+06
-1.31582e+06
2.03395e+06
3.74403e+06
-330250
518882
3.83577e+06
471499
-2.76564e+06
2.89759e+06
799870
-4.52097e+06
455181
974117
-6.50458e+06
-3.21064e+06
1.77507e+06
-8.6856e+06
-5.07295e+06
1.87734e+06
-8.58368e+06
-5.01516e+06
1.27811e+06
-4.35283e+06
-5.77219e+06
1.39287e+06
4.93039e+06
-6.95263e+06
1.50689e+06
1.58693e+07
-5.06455e+06
211662
2.16166e+07
1.04476e+06
-3.36658e+06
1.65961e+07
7.1132e+06
-5.89321e+06
3.18455e+06
1.09724e+07
-4.60786e+06
281877
9.96536e+06
-262591
2.67689e+06
3.67684e+06
659952
5.69469e+06
-2.58731e+06
-788575
4.41504e+06
-5.08422e+06
331432
-2.44318e+06
-4.61273e+06
3.55477e+06
-4.60337e+06
1.50883e+06
1.63192e+06
1.00006e+07
128928
1.00553e+07
237526
1.01152e+07
313647
1.01758e+07
447953
1.02363e+07
606827
1.02964e+07
780020
1.03557e+07
965367
1.04142e+07
1.16593e+06
1.04714e+07
1.38461e+06
1.05282e+07
1.62446e+06
1.05867e+07
1.8889e+06
1.06496e+07
2.18203e+06
1.07215e+07
2.5065e+06
1.08079e+07
2.86539e+06
1.09146e+07
3.26023e+06
1.10437e+07
3.68875e+06
1.12037e+07
4.12628e+06
1.15149e+07
4.6123e+06
1.2077e+07
5.27964e+06
1.27077e+07
6.13412e+06
1.2871e+07
6.9057e+06
1.17905e+07
7.26001e+06
1.01802e+07
6.97905e+06
8.22914e+06
5.89506e+06
6.84205e+06
4.90811e+06
4.87795e+06
4.49619e+06
2.94977e+06
4.39384e+06
2.06748e+06
4.91574e+06
1.65577e+06
5.37579e+06
962514
5.38474e+06
316771
5.06489e+06
10323.9
4.27853e+06
132399
3.48899e+06
1.22545e+06
1.97492e+06
1.44703e+06
-385132
1.7369e+06
-2.10544e+06
1.92475e+06
-4.2939e+06
1.80747e+06
-5.57724e+06
2.05506e+06
-6.96188e+06
2.42891e+06
-9.10077e+06
3.14366e+06
-1.10207e+07
4.34485e+06
-1.1816e+07
5.42329e+06
-8.7461e+06
7.45941e+06
-5.30239e+06
9.55669e+06
-965668
1.14125e+07
1.86309e+06
6.19314e+06
309425
-522468
556049
-3.24785e+06
2.35503e+06
-7.12274e+06
2.73422e+06
-9.40258e+06
-2.69024e+06
-6.94612e+06
-8.13354e+06
-2.23288e+06
106182
2.94584e+06
1.00012e+07
1449.98
134821
1.00573e+07
10416.6
247048
1.01182e+07
12187.9
320610
1.01823e+07
13032.2
455891
1.02486e+07
13944.8
617312
1.03171e+07
14865
793276
1.03876e+07
15718.4
980964
1.04604e+07
16489.9
1.18325e+06
1.05354e+07
17160.5
1.40281e+06
1.06137e+07
17749.7
1.64216e+06
1.06969e+07
18258.1
1.90409e+06
1.0788e+07
18793.9
2.19176e+06
1.08904e+07
19440.2
2.50678e+06
1.10091e+07
19944.8
2.85109e+06
1.11497e+07
20472.2
3.22411e+06
1.13155e+07
21179.4
3.62445e+06
1.15011e+07
25803.8
4.04761e+06
1.17175e+07
28588.7
4.47734e+06
1.20869e+07
24724
4.93294e+06
1.26632e+07
12234.6
5.46361e+06
1.33723e+07
-25722.2
6.12087e+06
1.38536e+07
-76307.3
6.9032e+06
1.3379e+07
83376.7
7.16994e+06
1.19004e+07
512559
6.71254e+06
1.0502e+07
314846
6.57904e+06
9.21976e+06
-213282
6.48595e+06
7.90229e+06
-631272
6.08023e+06
6.72651e+06
-532137
5.80071e+06
5.48159e+06
244009
5.9965e+06
4.40789e+06
302648
5.86788e+06
3.64292e+06
69782.4
5.27356e+06
3.2111e+06
55014.3
4.50009e+06
3.05279e+06
21658.3
3.72221e+06
3.80128e+06
231260
2.85481e+06
4.99703e+06
13255.7
1.3105e+06
6.61402e+06
17842.3
-506704
7.04265e+06
102606
-2.76157e+06
6.90851e+06
332827
-4.31246e+06
5.76496e+06
508711
-5.60559e+06
2.39381e+06
1.30361e+06
-6.5802e+06
-1.89269e+06
2.68073e+06
-6.94668e+06
-2.70536e+06
3.33593e+06
-6.83163e+06
-2.36599e+06
2.97436e+06
2.58279e+06
-2.90864e+06
2.25765e+06
1.52652e+07
-375420
1.0924e+06
1.95076e+07
4.66743e+06
-1.36982e+06
1.47734e+07
6.57884e+06
-2.94004e+06
6.08263e+06
6.94551e+06
-3.18351e+06
4.8424e+06
8.23499e+06
-1.38186e+06
4.69643e+06
1.05221e+07
-1.80795e+06
6.65833e+06
1.31491e+07
-4.68407e+06
7.27141e+06
1.10291e+07
-4.32355e+06
4.57688e+06
-1.02047e+06
6.15206e+06
3.66678e+06
1.60182e+06
1.19312e+07
1.00024e+07
134953
1.00566e+07
246794
1.01177e+07
319913
1.01819e+07
455101
1.02483e+07
616421
1.03168e+07
792249
1.03872e+07
979787
1.04598e+07
1.18192e+06
1.05347e+07
1.40131e+06
1.06129e+07
1.64047e+06
1.06959e+07
1.90215e+06
1.07867e+07
2.18939e+06
1.08891e+07
2.50377e+06
1.10071e+07
2.84719e+06
1.11466e+07
3.21923e+06
1.13109e+07
3.61916e+06
1.14924e+07
4.03358e+06
1.17364e+07
4.44986e+06
1.21638e+07
4.92072e+06
1.28187e+07
5.53275e+06
1.34884e+07
6.25599e+06
1.38399e+07
6.90926e+06
1.3699e+07
7.31374e+06
1.29837e+07
7.28085e+06
1.16321e+07
6.67469e+06
9.62591e+06
6.24891e+06
7.1788e+06
6.02574e+06
5.2826e+06
6.00743e+06
4.68825e+06
5.91738e+06
4.47589e+06
5.6243e+06
4.28644e+06
5.1169e+06
4.18554e+06
4.33049e+06
4.45387e+06
3.31671e+06
5.22555e+06
1.71915e+06
5.49928e+06
-189794
5.87479e+06
-1.95184e+06
5.85067e+06
-3.754e+06
6.03329e+06
-5.12261e+06
5.96641e+06
-6.18634e+06
5.3829e+06
-7.19889e+06
5.19579e+06
-8.13725e+06
6.21029e+06
-9.23971e+06
8.02828e+06
-6.95903e+06
1.09211e+07
-4.70267e+06
1.42246e+07
-1.52465e+06
1.62153e+07
52212.9
1.36439e+07
1.18519e+06
9.31477e+06
3.03267e+06
8.0801e+06
3.74459e+06
7.18094e+06
3.20762e+06
944623
-382650
-5.77066e+06
-4.09005e+06
-3.13578e+06
3.20547e+06
8.52793e+06
1.00021e+07
1354.3
140063
1.00589e+07
10221.8
252296
1.0121e+07
11805.1
321925
1.01875e+07
12456.9
456216
1.02584e+07