/*--------------------------------*- C++ -*----------------------------------*\
| =========                 |                                                 |
| \\      /  F ield         | OpenFOAM: The Open Source CFD Toolbox           |
|  \\    /   O peration     | Version:  4.1                                   |
|   \\  /    A nd           | Web:      www.OpenFOAM.org                      |
|    \\/     M anipulation  |                                                 |
\*---------------------------------------------------------------------------*/
FoamFile
{
    version     2.0;
    format      ascii;
    class       volVectorField;
    location    "15";
    object      U;
}
// * * * * * * * * * * * * * * * * * * * * * * * * * * * * * * * * * * * * * //

dimensions      [0 1 -1 0 0 0 0];

internalField   nonuniform List<vector> 
4432
(
(39.9197 -0.000446483 0.101769)
(39.8711 0.0242643 0.208119)
(39.8125 0.0333357 0.34385)
(39.5278 0.0380431 0.510382)
(39.0091 0.0438983 0.695349)
(38.2554 0.0507362 0.892735)
(37.2458 0.0580939 1.10353)
(35.9556 0.065874 1.32654)
(34.3718 0.0747133 1.55649)
(32.5073 0.0856642 1.78136)
(30.3886 0.0991094 1.97453)
(28.169 0.125396 2.10831)
(25.9207 0.13795 2.19891)
(23.7038 0.142208 2.05923)
(22.6835 0.275013 1.6212)
(22.6521 0.31871 1.11979)
(23.4945 0.274541 -0.084308)
(26.8051 0.247485 -1.73537)
(30.8158 -0.0195385 -2.51585)
(35.5978 -0.217627 -3.9243)
(39.2907 -0.34959 -5.34572)
(39.4186 1.46372 -2.85236)
(42.7902 2.13184 -4.69265)
(52.9353 0.890144 -10.1648)
(62.4602 -0.361148 -14.4446)
(69.4911 -0.502135 -13.7928)
(72.6498 -0.421495 -10.4234)
(70.3519 -1.38687 -6.4448)
(65.4873 -1.46558 -3.28002)
(58.8979 -1.46248 0.839287)
(51.7369 -1.65134 6.15822)
(49.8736 -0.892316 8.8041)
(47.4657 -1.95962 8.53715)
(15.1405 -0.313593 13.6469)
(4.59479 11.3591 26.5641)
(-47.4527 2.98358 5.70092)
(-32.0871 -2.2666 -9.758)
(-26.5063 1.23805 -31.024)
(-10.5701 1.39214 -40.8614)
(-4.7367 -0.437631 -43.6349)
(-0.305744 -3.59266 -45.6736)
(15.1786 -7.67544 -35.4783)
(21.0392 -11.9562 -14.8174)
(8.50303 -16.0435 -23.4052)
(14.0069 -19.4302 -19.3245)
(28.5629 -13.8146 -7.13285)
(18.3976 -5.26669 3.80723)
(36.578 -13.1591 12.4742)
(-42.5996 -24.1326 44.3254)
(-53.9227 -18.7089 43.2278)
(-50.1572 -21.8573 33.8201)
(63.5878 -22.0731 -57.3344)
(140.45 -6.81176 -71.4554)
(188.263 2.29093 -98.5435)
(39.9168 -0.000445108 0.101854)
(39.8733 0.0242686 0.209151)
(39.8027 0.0333896 0.346337)
(39.5169 0.0381268 0.513922)
(38.9985 0.0440145 0.699304)
(38.2447 0.0508971 0.897135)
(37.2344 0.0582976 1.10784)
(35.9456 0.0661505 1.33007)
(34.3651 0.0750666 1.55876)
(32.5078 0.0861086 1.78055)
(30.407 0.0997034 1.97153)
(28.189 0.126235 2.09892)
(26.0015 0.137748 2.11452)
(23.8775 0.14466 2.04286)
(22.6148 0.275634 1.83627)
(22.717 0.371244 0.909515)
(23.7187 0.273483 -0.388461)
(26.8585 0.160772 -1.92769)
(30.6363 0.0708937 -2.94872)
(34.9856 -0.0240346 -5.00599)
(39.7328 -0.272309 -6.82344)
(40.2019 1.00634 -6.39528)
(42.8421 2.37539 -5.94943)
(52.11 1.38507 -6.96088)
(66.0267 -0.609056 -8.20949)
(76.3649 -1.14897 -5.90888)
(75.6462 -1.53887 -2.38492)
(70.0599 -2.64301 0.966741)
(62.9999 -2.48159 3.29448)
(54.7812 -1.61695 4.7589)
(48.1814 -1.21481 6.92334)
(46.7871 -0.874876 9.79951)
(37.8112 -2.67277 9.75399)
(11.1692 3.33399 15.4858)
(9.27224 18.1079 22.1791)
(2.6686 20.3181 14.1856)
(22.1897 4.92523 -7.71556)
(-2.82629 0.764497 -20.9437)
(11.3002 11.1768 -26.1345)
(-2.16583 12.2365 -23.746)
(4.78381 5.0743 -35.7154)
(20.4201 5.03971 -28.5122)
(23.9676 -1.45025 -32.8308)
(28.1577 0.0765863 -30.3672)
(26.0877 -5.69613 -26.6462)
(20.8272 -8.00337 -15.7076)
(26.7402 -3.87449 -20.6213)
(41.9899 -1.92077 -22.5345)
(34.8498 -4.35323 4.43657)
(23.6122 -6.66107 16.9878)
(-6.80571 -10.537 24.4607)
(25.285 -7.46748 -49.1454)
(74.566 9.91987 -62.2802)
(187.264 9.1693 -91.5362)
(39.9855 -0.000659234 0.137783)
(40.239 0.0259521 0.288559)
(40.6018 0.0367196 0.47125)
(41.0377 0.042433 0.716851)
(41.5231 0.0490378 1.00301)
(42.0307 0.0563909 1.32725)
(42.5223 0.0639747 1.69605)
(42.9486 0.071679 2.11506)
(43.2519 0.0797443 2.58316)
(43.3719 0.0886595 3.09051)
(43.2354 0.0986983 3.60338)
(42.808 0.113943 4.09421)
(42.0074 0.128978 4.46287)
(40.892 0.146953 4.5603)
(39.6235 0.221971 4.38502)
(37.528 0.280094 3.62091)
(37.9425 0.273161 2.89885)
(37.0569 -0.0581557 -1.78693)
(37.0956 0.0868017 -4.02485)
(35.9256 0.222593 -3.15396)
(33.2723 0.474367 -2.62086)
(33.9922 0.482298 -5.98246)
(37.9612 -0.12953 -13.6277)
(41.902 -0.778536 -19.8108)
(42.7333 -0.646441 -20.7379)
(43.2362 -0.150932 -16.2589)
(44.0699 -0.445871 -7.69581)
(46.4393 -1.45726 2.23964)
(47.171 -2.65406 7.54692)
(45.6697 -2.43419 12.1255)
(40.118 -0.680589 13.4083)
(26.9007 0.0812434 12.3372)
(18.1947 -0.910554 21.2795)
(6.11221 3.46951 37.8248)
(3.3065 13.8704 38.675)
(-6.35094 4.44095 -4.81352)
(-3.20655 7.08508 -3.01619)
(-8.81192 5.60506 -11.6409)
(-7.89212 4.89877 -20.7452)
(-1.84936 4.55847 -21.0213)
(5.49492 1.59079 -19.0155)
(20.1283 1.12462 -12.071)
(26.0642 -0.567598 -10.0928)
(33.2618 -5.0896 -10.9729)
(31.6735 -12.8868 -3.3838)
(51.3462 -3.29475 -6.28372)
(46.0418 -4.00177 -3.94129)
(38.7255 -13.0255 29.0692)
(-49.8798 -25.2689 92.8936)
(6.88933 -28.1054 55.8)
(98.4786 -22.3143 10.029)
(-93.181 -13.9248 -83.2553)
(-171.908 5.3436 -60.5379)
(-147.733 8.9778 -60.3408)
(39.9826 -0.000656499 0.137783)
(40.246 0.0259545 0.289662)
(40.5981 0.0367787 0.47387)
(41.0362 0.0425652 0.720845)
(41.5251 0.0492447 1.00828)
(42.0346 0.0566661 1.3335)
(42.5266 0.0643131 1.70272)
(42.9523 0.0720797 2.12139)
(43.2554 0.0802194 2.58816)
(43.3752 0.0891799 3.09209)
(43.2452 0.0993519 3.60229)
(42.817 0.114853 4.08339)
(42.0412 0.13006 4.44988)
(40.9267 0.144959 4.53776)
(39.8228 0.232362 4.29178)
(38.9685 0.368008 3.85828)
(38.3113 0.256915 2.72306)
(37.5703 -0.0678471 -2.66458)
(36.9234 0.107194 -4.66294)
(35.3687 0.280203 -4.05605)
(32.5465 0.508437 -5.40684)
(32.9711 0.500591 -7.70563)
(38.0534 -0.0521486 -11.338)
(44.0776 -0.556988 -16.0198)
(46.3806 -0.648448 -18.356)
(51.6471 0.506057 -11.1321)
(60.2734 1.34905 0.347899)
(64.2696 -0.78363 6.50277)
(62.8034 -3.28683 10.1298)
(56.0138 -3.11227 12.0086)
(48.3692 -0.8334 8.50675)
(39.4755 0.532381 10.9661)
(25.1327 -0.704163 20.2264)
(6.11491 7.07871 26.0703)
(6.2913 21.6234 25.1241)
(3.93569 18.5193 5.73414)
(-6.33446 12.3038 -1.97367)
(-9.78105 9.39687 -8.62916)
(-1.2 11.6581 18.7917)
(-0.507032 4.05938 3.01215)
(12.1198 5.40062 -2.4795)
(23.5528 5.36462 -20.5553)
(32.6853 6.80518 -17.0161)
(36.943 7.62556 -8.41226)
(35.0121 3.36087 -2.32598)
(39.5385 1.61733 4.43842)
(37.3501 5.68646 13.9249)
(57.6655 6.14349 18.0942)
(40.0143 11.0513 -12.9926)
(50.0946 -12.3724 15.4712)
(82.1938 -9.9605 15.3849)
(-153.05 1.07471 -91.1071)
(-211.053 16.2228 -78.1736)
(-114.602 3.37721 -56.4589)
(39.9535 -0.00070041 0.185786)
(40.0836 0.0261922 0.362062)
(40.2592 0.0371052 0.512553)
(40.4001 0.0431298 0.737977)
(40.5147 0.0502344 1.00986)
(40.6223 0.0580876 1.32825)
(40.74 0.0659566 1.7031)
(40.8854 0.0735631 2.14755)
(41.0765 0.0808968 2.67219)
(41.3252 0.0883808 3.28189)
(41.6285 0.0961433 3.96479)
(41.938 0.106438 4.7003)
(42.2145 0.121506 5.41156)
(42.1247 0.105712 6.01899)
(42.1638 0.218052 6.27733)
(40.6612 0.340385 6.15293)
(39.8201 -0.0355796 6.35911)
(33.6464 -0.244445 0.956355)
(25.8736 0.0519211 0.959425)
(22.7207 0.140368 1.12075)
(19.7362 0.110842 -3.54897)
(20.4511 -0.0482759 -10.694)
(23.7425 -0.46642 -16.7833)
(25.0851 -0.913013 -18.9347)
(22.7028 -0.757862 -17.7431)
(21.646 -0.969579 -14.6507)
(21.9968 -1.99328 -8.99923)
(22.7242 -2.58992 -1.59485)
(20.9108 -2.90749 6.0181)
(16.6412 -0.914886 15.2019)
(4.99464 1.86043 20.5284)
(-9.33307 2.04492 22.345)
(-13.5821 1.97471 26.7046)
(-8.67102 3.35559 29.6399)
(-4.28463 3.46245 19.3828)
(-1.19467 4.99097 11.3944)
(-8.0557 4.43637 3.00897)
(-6.39149 3.49966 -8.49451)
(-3.99529 1.81293 -28.6122)
(0.339839 1.72415 -39.256)
(3.87687 0.938501 -47.9056)
(14.8521 -1.14418 -36.0075)
(24.3921 -1.75406 -17.4355)
(29.3383 -1.56304 -15.2041)
(41.2927 0.643007 -11.5215)
(41.3957 2.0545 -5.07668)
(-7.45025 -23.6937 68.2417)
(-58.8114 -24.8138 112.385)
(-53.3478 -15.2012 104.982)
(6.64313 -13.4192 69.7897)
(97.729 -18.6797 105.617)
(154.964 -28.3428 114.729)
(104.113 -11.4758 64.4697)
(-37.4804 7.94996 -5.93122)
(39.9507 -0.000697858 0.185909)
(40.0897 0.0261958 0.361665)
(40.2529 0.0371685 0.512458)
(40.3951 0.0432671 0.738654)
(40.5127 0.0504455 1.01141)
(40.6218 0.0583698 1.33072)
(40.7403 0.0663086 1.70637)
(40.8862 0.0739869 2.15137)
(41.0779 0.0813951 2.6762)
(41.3279 0.0889517 3.28551)
(41.6338 0.0967794 3.96794)
(41.9505 0.107262 4.6999)
(42.2131 0.121833 5.41041)
(42.2382 0.103286 5.94061)
(42.0308 0.220347 6.23642)
(41.0966 0.436071 6.9688)
(41.0326 -0.00284214 5.87324)
(32.9421 -0.308082 0.772865)
(25.2773 0.0766662 0.774529)
(22.347 0.174858 0.145203)
(19.7981 0.144795 -5.07902)
(20.9975 -0.0223543 -12.0816)
(24.5178 -0.397579 -16.8309)
(25.8698 -0.304793 -17.5074)
(23.6823 -0.0517371 -16.9916)
(26.3114 0.460093 -10.8582)
(31.0864 -0.352012 -1.11106)
(31.0167 -1.78115 6.817)
(27.0465 -2.34428 12.5633)
(16.5802 -0.227951 15.3127)
(5.4979 3.20958 17.5715)
(-0.81813 3.72839 23.3281)
(0.873806 2.96726 29.5819)
(3.78565 6.65027 35.6722)
(1.31637 19.1581 36.9853)
(4.38208 15.8733 23.6898)
(-11.5605 9.07457 20.9177)
(-12.5866 3.96156 4.08913)
(-5.33211 3.18066 4.26405)
(6.79046 -3.40018 0.385017)
(12.2973 0.256076 -32.8096)
(25.7628 -0.739308 -29.4883)
(32.2013 -1.29268 -15.3546)
(36.2048 -1.97981 -12.6857)
(45.792 2.9445 -12.6073)
(46.5161 5.81152 8.41731)
(-5.53872 -3.15238 61.9643)
(-28.1794 8.07009 25.4504)
(13.8056 25.2961 -36.7461)
(-13.0036 2.06516 46.8502)
(86.5677 -7.76687 95.3453)
(108.641 -18.1077 95.0108)
(-80.981 19.4882 -11.1193)
(5.72889 5.05488 -7.53286)
(39.9561 -0.000461569 0.245028)
(40.0827 0.0256631 0.49058)
(40.2707 0.0365673 0.702683)
(40.4225 0.0428306 1.02008)
(40.5289 0.0500493 1.38696)
(40.5909 0.0579981 1.78811)
(40.6053 0.0659977 2.22398)
(40.5714 0.0737719 2.70124)
(40.4974 0.0813143 3.22798)
(40.402 0.0889541 3.81399)
(40.3179 0.0969017 4.46981)
(40.2649 0.106505 5.20682)
(40.2884 0.122532 6.03574)
(40.1512 0.09932 6.94644)
(40.488 0.229758 7.91305)
(39.1073 0.269907 9.10798)
(39.3605 -0.310046 10.9492)
(34.8742 -0.0619743 10.2661)
(24.2342 0.223001 7.69877)
(20.5876 0.226546 3.21503)
(17.8842 0.0120546 -4.26592)
(18.0885 -0.365786 -12.7701)
(18.1747 -0.827024 -17.4872)
(11.7675 -0.928423 -16.6772)
(3.82154 -0.687366 -15.8251)
(-1.50615 -0.792804 -14.4694)
(-5.23737 -1.65735 -4.54152)
(-9.59672 -2.0114 7.23988)
(-14.9408 -1.52181 16.7767)
(-21.8082 -0.0265205 24.2199)
(-28.6924 1.13407 26.7649)
(-32.7841 1.25478 24.4021)
(-31.745 1.53275 20.0502)
(-25.6454 1.69414 15.4862)
(-18.0505 1.84199 8.91813)
(-7.99131 1.19077 3.6735)
(-4.36674 0.6841 6.47533)
(-13.2738 -1.07639 -18.8783)
(-8.91612 -0.488131 -31.7277)
(-3.98827 -1.71129 -40.7162)
(-0.873477 -1.26366 -46.3907)
(4.10445 -4.8377 -34.3417)
(12.0974 -10.8445 -9.81609)
(24.9138 -10.1988 -9.67802)
(34.8639 -5.02571 -6.30778)
(-11.0504 -14.7921 49.0458)
(-50.5137 -23.6316 107.877)
(-51.7161 -12.4909 75.7065)
(23.5993 11.0293 -49.9829)
(41.7596 3.82072 -47.2864)
(57.0267 -3.75903 -40.8222)
(128.641 -17.9839 5.95965)
(194.268 -14.5715 55.8492)
(206.38 1.98874 25.333)
(39.9532 -0.000459568 0.245045)
(40.0889 0.0256671 0.490006)
(40.2656 0.0366251 0.701922)
(40.4184 0.04296 1.01928)
(40.5273 0.0502524 1.38613)
(40.5903 0.0582732 1.7873)
(40.6049 0.0663447 2.2232)
(40.5709 0.0741938 2.70051)
(40.497 0.0818169 3.22732)
(40.4025 0.0895436 3.81344)
(40.3207 0.0975728 4.46994)
(40.2768 0.107297 5.20616)
(40.2777 0.122786 6.03767)
(40.2803 0.106605 6.91869)
(40.2463 0.203078 7.92733)
(39.667 0.369137 9.33344)
(40.9705 -0.127201 10.7368)
(33.2928 -0.268889 10.44)
(24.1494 0.23293 7.22042)
(21.1742 0.306412 1.97268)
(19.4399 0.0507721 -6.04037)
(20.264 -0.363508 -14.3378)
(16.7836 -0.852457 -17.1417)
(9.94394 -0.962986 -15.3182)
(0.987584 -0.519973 -14.7064)
(-3.85797 -0.248388 -11.6996)
(-6.87659 -0.828218 -1.02675)
(-10.9875 -1.03056 9.79744)
(-15.7831 -0.548067 18.7861)
(-22.4509 0.745206 24.581)
(-27.4145 1.70205 25.8581)
(-28.9444 1.92542 24.0546)
(-24.0113 3.07125 23.2083)
(-10.2105 4.26688 27.0327)
(-0.117858 7.64971 32.3255)
(11.4244 10.5358 31.8618)
(4.24795 11.3422 30.3387)
(3.77699 7.90658 13.0414)
(-1.36387 0.500711 -8.19403)
(6.62703 -5.06231 -23.7997)
(5.34213 -0.768995 -41.8046)
(13.9839 -1.38671 -41.0133)
(25.278 -2.57459 -24.1679)
(32.0248 -3.33467 -30.19)
(45.2476 6.85199 -16.1087)
(27.313 6.99221 41.1)
(-11.7092 3.64852 59.9979)
(19.2441 16.5052 -33.7575)
(18.1866 12.2305 -31.0705)
(47.9217 6.1634 -21.4469)
(95.2934 -3.1714 -15.2629)
(100.677 -13.222 -7.27908)
(87.7461 8.42059 0.14007)
(135.051 17.4937 -39.2092)
(39.9576 -0.000559612 0.307244)
(40.0886 0.0256636 0.609441)
(40.2878 0.0361033 0.860624)
(40.4597 0.0418444 1.24404)
(40.5988 0.048692 1.68933)
(40.7043 0.0563242 2.1763)
(40.7673 0.0640144 2.70378)
(40.7762 0.0715055 3.27636)
(40.7205 0.0788103 3.89801)
(40.5937 0.0862254 4.57264)
(40.4014 0.0944295 5.30741)
(40.1526 0.103345 6.1169)
(39.8905 0.120153 7.04004)
(39.5463 0.10171 8.12665)
(39.6132 0.199745 9.53757)
(38.9865 0.2498 11.2704)
(39.6303 -0.0667645 13.8073)
(40.0837 -0.0316219 17.2406)
(32.3587 0.410056 14.8244)
(28.64 0.366956 7.45911)
(25.3377 -0.153526 -1.62848)
(23.9594 -0.517376 -10.5201)
(17.7073 -0.401678 -11.1726)
(5.20219 -0.778579 -6.36796)
(-6.26996 -0.748984 -7.85713)
(-14.9659 -0.433969 -7.62948)
(-20.5338 -0.170586 -0.0154039)
(-24.0437 -0.581954 9.47372)
(-25.7013 -0.437846 19.4258)
(-26.3705 -0.0639319 25.6447)
(-25.2087 0.14761 25.0009)
(-23.5474 0.0456917 20.5563)
(-21.7858 -0.135299 15.4821)
(-19.4113 -0.197959 10.3721)
(-16.268 -0.0191169 1.74774)
(-15.3914 -1.05399 -5.28573)
(-13.6538 -3.01417 -5.79136)
(-18.1062 -3.01252 -26.5058)
(-13.148 -3.59174 -35.2557)
(-5.73147 -3.97471 -41.462)
(-5.30101 -3.45974 -43.1705)
(-3.15421 -7.79327 -32.0991)
(9.4888 -9.16918 -28.2431)
(26.8738 -5.27745 -30.2757)
(-0.169713 -8.34382 19.3276)
(-47.2869 -19.1835 85.6576)
(-63.5976 -15.907 101.639)
(-15.0788 -3.45177 28.3387)
(28.2878 -5.65308 -40.4928)
(30.6977 -2.47037 -4.75738)
(14.6336 1.07311 -52.5678)
(-59.0917 0.838363 -37.7066)
(-65.312 1.93464 -9.13022)
(-57.2627 2.80469 -59.2279)
(39.9549 -0.000557284 0.307363)
(40.0945 0.0256665 0.608411)
(40.2817 0.0361621 0.859171)
(40.455 0.0419708 1.24244)
(40.5969 0.0488846 1.68752)
(40.7035 0.056581 2.17426)
(40.7668 0.0643359 2.70147)
(40.7755 0.0718959 3.27376)
(40.7198 0.0792766 3.89509)
(40.5939 0.0867751 4.56941)
(40.403 0.0950651 5.30414)
(40.1632 0.104074 6.11283)
(39.8812 0.1203 7.03688)
(39.6495 0.111758 8.11333)
(39.4671 0.155956 9.50576)
(39.2493 0.343679 11.1786)
(40.5462 -0.000255493 14.4012)
(38.3239 -0.310924 17.8054)
(32.305 0.440396 14.1264)
(29.9279 0.502967 6.21762)
(27.2194 -0.474026 -3.83302)
(22.9637 -0.921087 -10.4908)
(14.9583 -0.171511 -9.61751)
(4.45343 -0.93653 -7.03037)
(-8.09601 -0.629699 -6.72498)
(-17.4371 -0.254627 -4.59654)
(-23.0928 0.0134945 1.83409)
(-24.5985 -0.226479 9.98735)
(-25.2986 -0.211011 18.3171)
(-25.2207 0.0590146 23.8603)
(-24.1565 0.222565 23.7855)
(-22.5238 0.163596 19.7423)
(-20.667 0.154465 15.5955)
(-17.0639 0.531818 13.2763)
(-12.3685 1.42533 12.8421)
(-0.561319 3.34243 21.5075)
(3.34421 5.72637 15.4907)
(-1.21549 -1.61661 -17.393)
(0.0263126 -1.99496 -33.7218)
(3.08684 0.232973 -39.795)
(0.887087 -0.935432 -47.2569)
(2.38287 1.24805 -52.732)
(17.9284 4.87136 -51.1994)
(24.9631 6.80953 -51.192)
(23.4187 17.2718 -7.16647)
(6.97014 9.94308 66.9833)
(-11.7896 9.99759 67.2271)
(53.1934 14.623 -30.1504)
(20.3421 -0.772335 -38.3712)
(41.4914 2.8712 -13.8922)
(38.6995 2.60143 -57.969)
(-56.6859 3.07768 -60.9642)
(-106.177 3.76083 -38.133)
(-78.8765 2.32867 -71.4998)
(39.9606 -0.000186182 0.364463)
(40.0953 0.0246844 0.711325)
(40.299 0.0348568 0.99002)
(40.4891 0.0407237 1.42712)
(40.6561 0.0474392 1.93572)
(40.7995 0.0548164 2.4906)
(40.9124 0.0621854 3.09128)
(40.9852 0.0693433 3.74579)
(41.0076 0.0762449 4.46236)
(40.9691 0.0832386 5.24872)
(40.8638 0.09088 6.11457)
(40.6871 0.099164 7.07266)
(40.458 0.11389 8.15636)
(40.1559 0.105315 9.40937)
(40.0425 0.156319 10.9832)
(39.9426 0.247371 12.8303)
(39.7272 0.0577815 15.3897)
(41.3725 -0.125566 19.8916)
(39.9237 0.19161 21.0368)
(35.6575 0.353657 13.9002)
(25.9085 -0.69364 2.26503)
(21.7401 -0.677198 -5.94772)
(6.53871 -0.36863 -0.259149)
(7.47168 -0.792605 1.72056)
(-5.78429 -0.580807 0.718118)
(-13.1356 -0.380859 -1.21471)
(-16.5921 0.457849 4.09817)
(-18.6423 0.376533 12.6591)
(-18.0341 0.137835 18.8204)
(-16.4515 0.139512 22.8227)
(-13.2895 0.163253 21.3818)
(-10.5716 -0.0113606 17.2326)
(-9.4636 -0.140471 13.1049)
(-9.5293 -0.338526 9.1008)
(-9.76114 -1.22977 2.62435)
(-26.3132 -6.42474 -3.64097)
(-10.4585 -5.22614 -2.449)
(-17.9485 -3.32056 -24.1949)
(-17.0665 -0.724713 -40.4354)
(-12.1269 -3.24288 -44.2054)
(-14.6182 -5.54511 -43.6397)
(0.0923829 -14.4631 -34.3519)
(9.43823 -15.206 -13.5064)
(0.211957 -16.0343 9.84941)
(-31.6436 -15.6349 57.4261)
(-58.7008 -18.8815 91.9103)
(-40.3561 -9.72821 66.565)
(28.3975 1.77409 -31.3465)
(19.6755 -5.18296 -42.7591)
(12.262 -0.905644 -23.9746)
(24.7765 0.629589 45.5367)
(-91.0905 3.87031 49.2363)
(-226.422 1.72823 68.9672)
(-145.595 -1.1215 22.9846)
(39.9579 -0.000184776 0.364499)
(40.1012 0.0246879 0.710207)
(40.2947 0.0349057 0.988514)
(40.4857 0.0408324 1.42535)
(40.6548 0.0476098 1.93359)
(40.799 0.0550485 2.4881)
(40.9121 0.0624768 3.08839)
(40.9847 0.0696968 3.74248)
(41.007 0.0766699 4.45857)
(40.9692 0.0837422 5.24441)
(40.8651 0.091468 6.1095)
(40.6955 0.0998364 7.06723)
(40.4548 0.114049 8.14789)
(40.2109 0.113854 9.40503)
(40.0141 0.125197 10.9545)
(39.8854 0.292786 12.7098)
(40.4011 0.134124 15.874)
(41.115 -0.241982 20.5109)
(39.0154 0.0973332 19.9213)
(33.8363 0.454245 13.026)
(23.0932 -1.88727 -1.50084)
(7.19765 -1.65471 -5.17891)
(6.50302 0.901137 1.76505)
(3.99357 -0.284358 1.14844)
(-8.62015 -0.460938 2.31493)
(-14.8603 -0.298271 1.88117)
(-18.128 0.395691 6.55398)
(-18.714 0.343307 11.7355)
(-17.9844 0.179844 17.821)
(-16.0284 0.170143 21.7945)
(-13.0674 0.186302 20.9287)
(-10.4619 0.0308427 17.2554)
(-9.57974 0.00351613 13.7719)
(-9.78227 0.272165 13.1579)
(-11.9474 6.37623 11.1426)
(-13.9279 0.943281 2.73043)
(-11.6546 1.31825 -1.98789)
(-6.64692 1.05278 -26.1745)
(-3.45234 2.60293 -40.1559)
(0.538769 4.34019 -42.1191)
(-3.69712 4.60464 -52.379)
(1.11314 8.00188 -59.2596)
(6.3856 12.8951 -59.729)
(14.0565 11.7674 -33.7359)
(-3.96692 16.0356 22.5726)
(-10.1715 11.9066 61.6842)
(-16.3458 6.39037 40.9062)
(49.745 8.40611 -27.4018)
(9.90894 8.28748 -36.9777)
(56.2833 8.15718 5.85834)
(30.5874 1.33816 43.196)
(-27.3937 9.07628 76.792)
(-115.234 0.72377 61.2058)
(-82.2853 -1.0083 7.51575)
(39.9627 -0.000361453 0.415516)
(40.1006 0.0246422 0.799551)
(40.3146 0.0343448 1.09686)
(40.5209 0.0395595 1.57697)
(40.7138 0.0457808 2.13774)
(40.8922 0.0527136 2.74837)
(41.0501 0.0596485 3.40753)
(41.1801 0.0663537 4.12514)
(41.2758 0.0727907 4.91288)
(41.3318 0.0792491 5.78387)
(41.3466 0.0861408 6.75373)
(41.3216 0.0940944 7.83936)
(41.2623 0.104993 9.06916)
(41.1718 0.1083 10.4665)
(41.1392 0.125082 12.1209)
(41.2794 0.213898 14.0097)
(41.0312 0.144575 16.2142)
(41.9855 -0.026854 19.949)
(43.1827 0.158539 23.5688)
(41.3137 0.18847 22.6361)
(32.8826 0.247526 15.9299)
(21.0092 -1.78905 8.27623)
(8.33103 -2.5218 3.72741)
(15.0475 -1.57072 4.65663)
(3.4986 -0.339536 8.24701)
(-4.51595 -0.763516 4.97016)
(-6.72162 0.170024 6.48984)
(-7.27178 1.09712 13.1599)
(-7.28726 0.427661 18.5772)
(-7.00448 0.137675 20.9832)
(-5.84468 0.128659 18.8401)
(-4.87372 0.0672617 15.5813)
(-4.50854 -0.13492 12.9158)
(-4.8427 -1.15075 10.5404)
(-15.382 -11.6299 0.867427)
(-18.9206 -4.00529 -4.10541)
(-19.3877 2.04213 -5.64362)
(-11.4022 -2.96677 -22.2585)
(-15.0724 0.787608 -42.8332)
(-17.3196 -1.21122 -47.5457)
(-18.1871 -9.85587 -44.2043)
(-0.399902 -14.4065 -28.0365)
(-10.9095 -16.8187 0.884123)
(-25.0236 -19.5184 40.026)
(-45.6352 -18.934 84.0088)
(-51.1621 -15.9775 89.7509)
(-15.4165 -8.63956 31.3329)
(39.376 -14.4772 -38.7166)
(18.2924 -1.59888 -33.5219)
(11.8517 5.74417 -27.8266)
(31.2417 -0.628842 -7.58382)
(87.3217 -0.191638 15.6213)
(142.605 4.34786 13.8691)
(192.779 15.8777 16.2431)
(39.9602 -0.000359371 0.415622)
(40.1064 0.0246437 0.79797)
(40.309 0.0343951 1.09471)
(40.5164 0.0396652 1.57456)
(40.7117 0.0459401 2.13498)
(40.8912 0.0529259 2.74519)
(41.0492 0.059912 3.40389)
(41.179 0.066671 4.12096)
(41.2745 0.0731694 4.90818)
(41.3311 0.0797018 5.77847)
(41.3475 0.0866639 6.74731)
(41.3263 0.0946867 7.83203)
(41.2666 0.10522 9.0569)
(41.1944 0.113969 10.4592)
(41.1676 0.111378 12.0964)
(41.1787 0.208947 13.8907)
(41.385 0.239943 16.2982)
(42.7025 -0.04927 20.4943)
(43.4006 0.0573566 24.2516)
(42.0136 0.402191 23.4075)
(32.0836 -0.126876 16.5967)
(16.4447 -2.07378 3.40563)
(1.2454 -1.43465 5.59438)
(7.47382 -0.920375 6.10306)
(0.307233 0.0245696 7.23291)
(-5.87697 -0.722387 6.26339)
(-7.94957 0.0238158 9.09938)
(-7.78006 0.822925 13.24)
(-7.32505 0.442873 17.418)
(-6.55401 0.173544 19.9743)
(-5.50095 0.159566 18.7977)
(-4.73931 0.13261 15.9126)
(-4.67782 -0.0258126 14.0039)
(-6.82118 -0.385511 15.9443)
(-13.2081 0.640343 20.3053)
(-20.9953 1.62426 -5.58646)
(-7.99713 0.978911 -10.8631)
(-1.51374 2.49758 -32.3051)
(-5.91659 2.38076 -41.2694)
(-2.79031 5.14295 -47.3192)
(-1.00309 8.16322 -51.5485)
(0.256451 11.5729 -55.9734)
(1.91304 14.9966 -55.3152)
(3.60773 11.8271 -24.2278)
(-6.64389 11.8012 42.6452)
(-5.17028 9.64763 62.0188)
(11.6536 1.31508 15.4245)
(43.0692 1.90422 -28.1731)
(9.51214 11.1097 -31.4415)
(42.5737 13.3323 -28.4596)
(75.0688 10.9431 -19.98)
(135.871 6.72074 28.0877)
(137.881 11.8243 34.777)
(188.079 24.0152 25.0919)
(39.9666 0.000127515 0.460054)
(40.1076 0.0231707 0.872379)
(40.3224 0.0324289 1.17894)
(40.5446 0.037815 1.6909)
(40.7635 0.0438967 2.29203)
(40.9771 0.0505042 2.94608)
(41.1802 0.0570304 3.65029)
(41.3669 0.0632606 4.41509)
(41.5336 0.0692259 5.25331)
(41.6792 0.0750598 6.17967)
(41.8072 0.0811069 7.21174)
(41.9276 0.0879044 8.36873)
(42.0476 0.0954595 9.67371)
(42.1844 0.101123 11.1468)
(42.3508 0.103039 12.816)
(42.6683 0.15736 14.6886)
(42.831 0.161041 16.6641)
(43.3911 0.0623764 19.3829)
(45.3039 0.0818678 23.437)
(47.2233 0.106036 26.6671)
(46.2289 0.490638 26.1914)
(36.1647 -0.656566 21.0925)
(27.2495 -1.27822 13.4928)
(19.586 -1.14208 10.3229)
(17.1622 -1.77107 13.0838)
(9.15153 -1.32127 11.2767)
(6.7818 -0.384073 9.32716)
(3.24756 1.40238 11.7198)
(-0.584695 0.453553 19.0958)
(-1.63887 -0.414492 21.1702)
(-1.51571 -0.224039 18.4107)
(-2.36891 -0.161874 15.3134)
(-2.08968 -0.0183011 12.9195)
(-4.57716 -2.01052 14.0793)
(-2.23342 -9.81915 19.1469)
(-9.60362 -4.20344 -4.09241)
(4.68186 -3.8258 -7.50821)
(0.31187 -0.389353 -20.7294)
(-4.732 1.35968 -36.2227)
(-14.5287 2.4232 -45.9081)
(-24.3332 -4.87005 -39.1039)
(-9.34477 -11.2589 -24.0621)
(-18.8249 -14.7009 11.4035)
(-30.0482 -18.3586 55.2636)
(-41.1299 -17.9336 89.2729)
(-35.4097 -15.411 79.4224)
(6.8948 -12.0079 13.6902)
(21.8078 -18.0245 -14.877)
(8.08068 -4.02231 -11.3669)
(-0.631325 5.06285 -18.226)
(-31.5742 7.43189 -32.1536)
(-56.1612 13.6221 -33.6149)
(-59.0244 21.6913 -9.11159)
(-144.501 18.2304 -49.7513)
(39.9643 0.000128413 0.460114)
(40.1132 0.0231736 0.870652)
(40.3191 0.0324668 1.1767)
(40.5418 0.037901 1.68834)
(40.7623 0.0440344 2.28901)
(40.9765 0.0506936 2.94256)
(41.1794 0.0572688 3.64627)
(41.3658 0.0635503 4.41051)
(41.5322 0.0695719 5.24818)
(41.678 0.0754667 6.17383)
(41.8071 0.0815701 7.2049)
(41.9289 0.0884148 8.3602)
(42.0507 0.0957333 9.66169)
(42.1887 0.104352 11.1316)
(42.3735 0.100304 12.7972)
(42.6139 0.136791 14.6061)
(42.8989 0.218394 16.5394)
(43.9414 0.116166 19.5765)
(45.8743 -0.0280452 23.9618)
(48.3485 0.101923 27.6951)
(46.1309 0.709405 27.3287)
(40.271 -1.00118 19.2306)
(18.123 -1.63754 13.043)
(13.5246 -0.363967 8.26231)
(13.3281 0.665088 12.1021)
(9.02046 -1.22721 9.32014)
(3.54762 -1.09386 10.047)
(2.98358 0.809773 15.3164)
(-0.18158 0.613762 18.3283)
(-0.519321 -0.272571 19.8854)
(-3.2258 -0.434298 18.9339)
(-4.13736 -0.12467 16.3275)
(-5.50715 0.424108 15.1054)
(-3.89538 -1.05139 15.7552)
(-4.46466 -1.51514 0.803179)
(-12.9032 -0.192915 -10.3338)
(-1.24788 4.96292 -22.2757)
(8.45404 2.87218 -31.3196)
(-0.701547 1.91973 -34.448)
(-0.639393 5.64655 -45.2989)
(-0.298248 8.08869 -50.5805)
(5.3378 10.7678 -50.1928)
(8.40784 15.0283 -45.8401)
(10.0484 17.6559 -39.6827)
(30.9495 13.3565 -25.5359)
(16.4768 4.68171 32.8349)
(46.8469 -1.34957 10.0908)
(18.3121 2.40343 -24.2372)
(-35.6003 9.83777 -19.593)
(-40.7717 13.2197 -25.0715)
(-52.5347 12.1274 -31.205)
(-51.4946 14.376 -28.4652)
(-1.19542 22.3201 7.21841)
(193.751 107.434 9.79303)
(39.9696 -0.000125674 0.497433)
(40.1117 0.0230533 0.930522)
(40.3355 0.0318713 1.23825)
(40.5698 0.0365154 1.77067)
(40.8107 0.0420302 2.39963)
(41.0563 0.048142 3.08374)
(41.3018 0.0541913 3.8185)
(41.5431 0.0599576 4.61415)
(41.7781 0.0654417 5.48348)
(42.0081 0.0707506 6.44025)
(42.2386 0.0761468 7.50051)
(42.4816 0.0818747 8.68113)
(42.7494 0.087964 9.99871)
(43.0593 0.0924711 11.4712)
(43.4234 0.0942361 13.0982)
(43.9003 0.115838 14.9015)
(44.4053 0.134304 16.7756)
(44.9628 0.0931491 18.8656)
(46.3542 0.0496436 21.7517)
(49.0374 0.0667811 25.1696)
(51.521 0.0980587 28.2507)
(50.3047 0.075807 28.8214)
(46.0747 0.209123 23.6818)
(36.0629 0.271157 18.2846)
(31.6202 -2.1363 18.3675)
(26.0451 -1.73042 16.5398)
(22.6116 -0.692657 13.2853)
(16.0517 1.03502 13.0639)
(6.01395 0.766453 20.1149)
(3.52376 -0.899439 22.1154)
(3.74224 -1.0165 19.1006)
(1.4992 -1.29425 15.7907)
(-1.20367 -1.38461 13.6774)
(0.0686717 -2.95628 16.1537)
(3.69857 -9.8746 13.4863)
(16.701 -6.24821 2.15539)
(19.867 -4.80778 -11.9025)
(16.1207 -0.944988 -19.6609)
(9.62581 1.28632 -29.254)
(-3.53556 4.12637 -38.6825)
(-23.8635 1.45533 -28.869)
(-20.9856 -7.83983 -5.41003)
(-17.9775 -12.7107 24.2572)
(-25.4941 -16.4532 65.4434)
(-29.8239 -18.5896 89.0823)
(-15.951 -16.4251 66.9659)
(26.0533 -16.7431 3.67643)
(28.4551 -18.4886 -5.9758)
(52.535 -2.93694 8.21803)
(36.1721 -0.0596681 12.8443)
(6.9744 -4.96636 1.95028)
(-22.6223 -3.07849 -20.0593)
(-59.1935 5.38724 -11.2073)
(7.97263 2.72049 9.61082)
(39.9673 -0.000123857 0.497508)
(40.1175 0.0230535 0.928421)
(40.3304 0.031911 1.23538)
(40.5656 0.0365997 1.76738)
(40.8085 0.0421582 2.39586)
(41.0548 0.0483131 3.07944)
(41.3003 0.0544042 3.81361)
(41.5412 0.0602169 4.60864)
(41.7759 0.0657559 5.47726)
(42.0058 0.0711196 6.43326)
(42.2369 0.0765663 7.49229)
(42.4808 0.0823447 8.67078)
(42.7489 0.0882913 9.98548)
(43.0589 0.0941264 11.452)
(43.4281 0.0957459 13.0802)
(43.8811 0.100465 14.8524)
(44.372 0.146726 16.6452)
(45.1236 0.161183 18.796)
(46.8222 0.0318235 21.9867)
(49.684 -0.0186157 25.988)
(52.4554 0.140421 28.931)
(50.9528 -0.065474 29.1646)
(43.1437 0.935567 25.4293)
(37.2908 1.78715 17.8065)
(29.1466 -0.09397 15.9414)
(25.1158 -2.25377 14.2566)
(14.1742 -1.37547 13.2952)
(9.52745 0.292106 17.259)
(6.97578 1.58945 20.4489)
(6.11934 -0.167346 21.0351)
(2.3795 -1.30467 20.1352)
(-0.268281 -0.472828 16.7926)
(-1.33215 0.551606 14.2118)
(4.05486 0.917243 9.3463)
(4.29369 -0.403847 0.706309)
(2.87036 1.0133 -6.17881)
(9.0671 3.01503 -18.1167)
(11.493 1.38104 -23.3633)
(8.26621 2.44167 -29.2401)
(9.52296 5.43134 -39.5569)
(8.34995 8.70462 -46.3487)
(14.0113 10.8439 -47.7878)
(18.4687 13.306 -35.5799)
(25.5388 15.8067 -17.108)
(35.8023 15.3961 -1.44907)
(43.4778 3.60821 8.16005)
(49.14 -7.52519 -8.70873)
(-3.07197 0.524395 -0.963541)
(-7.20449 6.3604 3.0531)
(-17.1506 5.62493 -0.922188)
(-25.2895 3.48358 -11.9063)
(-40.6619 5.99402 -29.3224)
(-49.1919 9.53532 -3.38608)
(3.55308 1.78211 7.0243)
(39.9742 0.000442877 0.527286)
(40.1185 0.0211453 0.972901)
(40.3378 0.0292776 1.27378)
(40.5828 0.0340814 1.81583)
(40.8439 0.0394298 2.46057)
(41.1187 0.0451665 3.16157)
(41.4032 0.0507142 3.91221)
(41.6947 0.0559208 4.72211)
(41.9928 0.0607507 5.6032)
(42.3002 0.0653255 6.56767)
(42.6224 0.069652 7.62857)
(42.97 0.073823 8.79871)
(43.355 0.0777736 10.089)
(43.7906 0.0796384 11.5104)
(44.2965 0.0802311 13.0601)
(44.8902 0.08508 14.7399)
(45.5866 0.0962939 16.5055)
(46.3373 0.0797954 18.3124)
(47.3588 0.0532158 20.3477)
(49.3465 0.0521059 22.8796)
(52.3103 0.014469 25.9824)
(54.8109 0.018244 29.2468)
(55.4453 0.460194 28.9439)
(51.5026 1.15162 25.6471)
(43.8844 0.339707 24.1583)
(39.4078 -0.833125 22.6748)
(33.5542 -1.95591 20.6583)
(30.655 -1.4267 20.5053)
(24.1208 1.00587 22.8206)
(19.3382 1.11021 22.8887)
(15.7233 0.152471 20.8777)
(14.1934 -0.738879 18.397)
(9.94127 -1.78739 15.0279)
(13.5607 -2.10087 13.8245)
(15.6876 -4.61398 7.67834)
(22.8875 -4.24918 -0.151944)
(29.2079 -3.56727 -10.1238)
(29.7456 -1.76385 -17.1937)
(26.9271 -0.409573 -23.5497)
(20.9081 2.34496 -29.9765)
(0.36792 6.68969 -33.638)
(-13.5222 4.72065 -16.9675)
(-9.62753 -6.05485 21.4462)
(-10.0705 -14.0483 61.5881)
(-13.099 -17.0152 83.9048)
(1.42812 -16.3193 62.5421)
(34.2159 -14.7092 15.2325)
(26.9523 -13.4549 8.20447)
(25.2622 -9.43875 11.79)
(39.3389 -6.30029 25.8064)
(53.6733 -10.6459 27.4814)
(59.8441 -20.8044 6.76341)
(-0.442518 6.63106 2.30712)
(-22.6334 4.87875 12.7211)
(39.9721 0.000443307 0.527372)
(40.1238 0.0211479 0.970635)
(40.3355 0.0293044 1.27079)
(40.5807 0.0341427 1.8124)
(40.8428 0.0395301 2.45654)
(41.1177 0.0453069 3.15693)
(41.4018 0.0508951 3.90694)
(41.6926 0.0561441 4.71618)
(41.9902 0.0610224 5.59655)
(42.297 0.0656543 6.56021)
(42.6189 0.0700257 7.61982)
(42.9662 0.0742352 8.78785)
(43.3497 0.0781165 10.0749)
(43.7847 0.0804638 11.4914)
(44.2872 0.0823432 13.0374)
(44.8783 0.0782642 14.7093)
(45.5551 0.0888412 16.4271)
(46.306 0.117147 18.1776)
(47.5141 0.0945028 20.3485)
(49.7404 0.0250456 23.3193)
(53.1701 -0.0442913 26.6274)
(55.1801 -0.124013 29.3475)
(55.0876 0.601289 30.1992)
(53.9878 2.50192 28.002)
(49.7283 1.05347 23.6973)
(42.398 -1.55831 21.4697)
(34.9381 -2.84492 20.47)
(23.5258 -2.04778 21.5212)