/*--------------------------------*- C++ -*----------------------------------*\
| =========                 |                                                 |
| \\      /  F ield         | OpenFOAM: The Open Source CFD Toolbox           |
|  \\    /   O peration     | Version:  4.1                                   |
|   \\  /    A nd           | Web:      www.OpenFOAM.org                      |
|    \\/     M anipulation  |                                                 |
\*---------------------------------------------------------------------------*/
FoamFile
{
    version     2.0;
    format      ascii;
    class       surfaceScalarField;
    location    "46";
    object      phi;
}
// * * * * * * * * * * * * * * * * * * * * * * * * * * * * * * * * * * * * * //

dimensions      [0 3 -1 0 0 0 0];

internalField   nonuniform List<scalar> 
11516
(
9.98727e+06
307.624
9825.45
9.96862e+06
222.112
21324.6
9.9398e+06
352.483
31468.2
9.90163e+06
387.748
41090.3
9.8543e+06
489.159
50626
9.79778e+06
648.098
60224.1
9.73178e+06
765.148
69985.4
9.65578e+06
788.049
80038.3
9.56906e+06
720.934
90522.5
9.47067e+06
580.147
101747
9.36022e+06
449.574
113478
9.23846e+06
400.344
124911
9.10769e+06
475.119
134974
8.97421e+06
661.232
140072
8.85162e+06
-12.4791
133738
8.75379e+06
-1139.32
112476
8.70451e+06
1065.27
62045.9
8.70664e+06
1369.26
6843.28
8.7176e+06
1084.62
-4736.35
8.6901e+06
2050.64
30833.2
8.62679e+06
-731.604
68279.7
8.52492e+06
-4224.23
110040
8.39024e+06
-7343.16
146245
8.22923e+06
-10077.6
175909
8.04365e+06
-12321.9
203245
7.85628e+06
-14094.5
207815
7.68348e+06
-11594
193007
7.53507e+06
-5733.36
165272
7.41392e+06
-3357.07
137914
7.32267e+06
-6359.04
112639
7.25848e+06
-10829.2
92439.9
7.20875e+06
-17748.7
85237.5
7.19041e+06
-18904.9
55516.8
7.23481e+06
-1618.15
-21188.3
7.38407e+06
19286.1
-124756
7.58068e+06
21783.5
-165752
7.72106e+06
30988.6
-106030
7.83761e+06
28831.1
-53545.5
7.91637e+06
14738.2
-16481
7.99719e+06
1547.45
121.185
8.08989e+06
2697.1
-27121.1
8.18911e+06
16761.8
-64356.3
8.25923e+06
26960.8
-75564.1
8.31886e+06
39925.7
-88090
8.36224e+06
23237.7
-91682.2
8.4332e+06
-5684.1
-154759
8.43564e+06
6006.45
-121289
8.46918e+06
2756.86
-172733
8.56625e+06
45240.4
-285982
8.75452e+06
-29855.9
-395777
9.08726e+06
20640.6
-461874
9.41313e+06
-32822.8
-674098
1.04003e+07
73564.7
-1.03158e+06
61059.2
-1.4358e+06
9.98775e+06
9822.22
9.96862e+06
21332.7
9.9396e+06
31457.2
9.90125e+06
41043.8
9.85386e+06
50556.7
9.79738e+06
60175.7
9.73147e+06
69990.7
9.6555e+06
80144.8
9.56866e+06
90773
9.47007e+06
102127
9.35931e+06
114010
9.23728e+06
125482
9.10605e+06
135658
8.97138e+06
141001
8.84298e+06
136103
8.74148e+06
109505
8.69506e+06
55573.7
8.70399e+06
-1938.98
8.72024e+06
-11001.8
8.69538e+06
30050.3
8.63268e+06
65088.1
8.53297e+06
98735
8.39963e+06
129365
8.23695e+06
156192
8.04543e+06
183280
7.8497e+06
187003
7.66785e+06
177263
7.50687e+06
164056
7.37406e+06
140142
7.2883e+06
93192.4
7.25597e+06
36929.9
7.25568e+06
-80.0086
7.2738e+06
-17290.3
7.32749e+06
-33953.3
7.45159e+06
-75779.9
7.61959e+06
-96450
7.76377e+06
-51714.6
7.89134e+06
-31200
7.99627e+06
-17308.8
8.0862e+06
-31336.5
8.15581e+06
-24552.5
8.23399e+06
-34309.5
8.31987e+06
-32226.9
8.3929e+06
-44932.4
8.4253e+06
-33423.4
8.45876e+06
-94165.5
8.47195e+06
-85920.9
8.5036e+06
-102571
8.54024e+06
-186138
8.85592e+06
-318385
9.03585e+06
-468323
9.55568e+06
-589341
1.04566e+07
-880911
-1.22756e+06
1.00066e+07
308.916
5614.43
1.00148e+07
188.122
15708.2
1.00231e+07
314.011
25758.8
1.00313e+07
367.534
35776.7
1.00392e+07
498.707
45991.2
1.00468e+07
692.587
56559.2
1.00537e+07
859.198
67557
1.00597e+07
952.243
78884.1
1.00641e+07
965.133
91270
1.00668e+07
918.301
104093
1.00674e+07
842.018
117792
1.0065e+07
792.826
132003
1.0058e+07
886.79
146650
1.00426e+07
1151.53
160335
1.00044e+07
2953.38
175350
9.93081e+06
3193.96
188679
9.80163e+06
3067.47
194393
9.59687e+06
2478.91
212124
9.36963e+06
-581.102
224926
9.16988e+06
-1345.51
233844
8.9956e+06
346.332
244353
8.84477e+06
1955.05
261014
8.70479e+06
3394.66
284836
8.5648e+06
4930.98
312881
8.4261e+06
6073.77
338014
8.28405e+06
7517.71
345401
8.13449e+06
9197.48
338042
7.95916e+06
12755.6
334369
7.76236e+06
19455.8
322293
7.56331e+06
22822.7
296139
7.37948e+06
24199.4
258882
7.24964e+06
26799.2
193640
7.20656e+06
23814.2
79885.8
7.25711e+06
17789.5
-80135.8
7.40272e+06
9618.19
-258245
7.53102e+06
4931.26
-246714
7.63517e+06
-8094.68
-124227
7.72994e+06
-14806
-54018.9
7.79212e+06
-19953.2
9424.84
7.88013e+06
-34439.1
-18989.2
7.95969e+06
-29160.3
-51940.6
7.99746e+06
-40891.1
-35865.8
8.01721e+06
-46321.8
-22293
8.02796e+06
-48862.9
-49115.6
8.04248e+06
-57823.1
-73750.6
8.04228e+06
-69994.8
-146240
8.05275e+06
-79588.4
-152089
8.09397e+06
-78774.5
-231723
8.10795e+06
-83675.1
-356718
8.22682e+06
-126720
-563211
8.13857e+06
-65700.6
-450803
8.26255e+06
114000
-1.03483e+06
9.55147e+06
217415
-2.63106e+06
31102.5
-3.07022e+06
1.00071e+07
5609.89
1.00148e+07
15704.6
1.00229e+07
25747
1.00308e+07
35753.7
1.00386e+07
45954.6
1.00462e+07
56511.2
1.00533e+07
67507.9
1.00595e+07
78853.3
1.00641e+07
91296.4
1.0067e+07
104197
1.00678e+07
118013
1.00656e+07
132363
1.00591e+07
146997
1.00448e+07
160721
1.00156e+07
173178
9.94929e+06
183265
9.81229e+06
199247
9.60271e+06
211724
9.37042e+06
222001
9.17088e+06
229656
8.9999e+06
237914
8.85044e+06
251644
8.71327e+06
271405
8.57778e+06
298155
8.44679e+06
322207
8.31475e+06
329569
8.17378e+06
332195
8.01714e+06
339738
7.85413e+06
330649
7.6888e+06
291144
7.50877e+06
249511
7.35185e+06
189731
7.27944e+06
85274.4
7.32356e+06
-48791.8
7.45277e+06
-170097
7.62099e+06
-208415
7.76541e+06
-144277
7.86998e+06
-83645.8
7.93181e+06
-51924.7
8.01379e+06
-104981
8.08977e+06
-106120
8.14903e+06
-106849
8.17959e+06
-92503.2
8.20865e+06
-108266
8.23698e+06
-139529
8.25183e+06
-237620
8.28844e+06
-264857
8.31104e+06
-297308
8.34526e+06
-401054
8.42955e+06
-648938
8.33981e+06
-491910
8.72751e+06
-918670
9.8647e+06
-1.82536e+06
-2.91017e+06
9.99931e+06
304.677
7245.44
9.99571e+06
185.275
21829.8
9.98758e+06
305.236
36385.4
9.97532e+06
355.734
50788.3
9.95915e+06
492.139
65352.2
9.93922e+06
705.272
80264.3
9.91576e+06
903.764
95420.3
9.8881e+06
1035.53
111510
9.85688e+06
1084.44
127819
9.82123e+06
1059.15
145203
9.78155e+06
974.713
162889
9.73749e+06
889.107
181268
9.68856e+06
779.728
200433
9.63274e+06
937.373
220431
9.57111e+06
866.626
240374
9.49696e+06
2118.61
264675
9.40467e+06
2027.1
288104
9.31091e+06
2268.17
305113
9.21081e+06
322.199
326176
9.09627e+06
554.128
349711
8.97072e+06
1043.48
370885
8.8431e+06
1740.4
388922
8.71572e+06
2917.39
411310
8.58654e+06
5117.47
438988
8.45291e+06
6487.92
467538
8.31099e+06
9079.46
482082
8.14753e+06
14050.2
493537
7.93955e+06
20146.2
530068
7.68501e+06
24045.2
561599
7.39915e+06
19171.5
571169
7.11066e+06
13698.7
540257
6.87939e+06
21639.9
407856
6.74198e+06
45814.7
176723
6.74816e+06
70436
-146854
6.93804e+06
53751
-484201
7.11156e+06
-8257.11
-381768
7.17914e+06
-73857.9
-71416.3
7.22062e+06
-97370.6
52962.3
7.20277e+06
-108542
162509
7.27233e+06
-69369.8
1508.24
7.32539e+06
-43381.1
-51879.2
7.32821e+06
-59021
39081.4
7.34364e+06
-79564.6
70386.3
7.39284e+06
-80090.8
9631.26
7.44138e+06
-72413.8
-63201.2
7.41001e+06
-51020.3
-120665
7.43928e+06
-48624.2
-209814
7.50312e+06
-69152.6
-327950
7.66896e+06
-97141.7
-507402
7.97986e+06
-93308.8
-832612
8.60092e+06
-85892.2
-997849
8.82247e+06
-50528
-1.20579e+06
7.16708e+06
433769
-1.36413e+06
300407
-2.62483e+06
9.99977e+06
7242.48
9.99571e+06
21827.8
9.98735e+06
36372.1
9.9749e+06
50763.8
9.95865e+06
65320.7
9.93879e+06
80230.8
9.9155e+06
95392.1
9.88801e+06
111496
9.85691e+06
127830
9.8213e+06
145247
9.78159e+06
162969
9.73751e+06
181361
9.68846e+06
200523
9.6331e+06
220297
9.56935e+06
240403
9.49396e+06
263277
9.4076e+06
289848
9.3139e+06
309625
9.21248e+06
324989
9.09921e+06
344839
8.9758e+06
363891
8.85097e+06
379729
8.7268e+06
400077
8.59805e+06
433632
8.4658e+06
463032
8.32787e+06
480100
8.17261e+06
506832
7.98558e+06
554101
7.7555e+06
593777
7.4693e+06
605268
7.16552e+06
572624
6.93502e+06
446262
6.83873e+06
232895
6.89704e+06
-29505.6
7.10148e+06
-302885
7.27737e+06
-359429
7.38946e+06
-290013
7.45874e+06
-217726
7.48552e+06
-149739
7.56264e+06
-222083
7.61929e+06
-189787
7.61396e+06
-132202
7.60699e+06
-121600
7.62015e+06
-184664
7.6464e+06
-254583
7.64409e+06
-320292
7.6684e+06
-393531
7.72308e+06
-478437
7.82714e+06
-663775
8.06374e+06
-995938
8.59726e+06
-1.0938e+06
8.84172e+06
-1.26148e+06
8.28161e+06
-773694
-2.49578e+06
9.99897e+06
300.91
9283.26
9.99549e+06
185.43
27811.4
9.98773e+06
299.558
46582.5
9.97588e+06
342.696
65297.1
9.95994e+06
469.423
84351.3
9.94005e+06
672.585
103785
9.91542e+06
863.535
124302
9.88634e+06
991.037
145398
9.85215e+06
1039.21
167158
9.81255e+06
1011.06
190018
9.76689e+06
923.113
213613
9.71444e+06
802.739
238364
9.65482e+06
660.356
264142
9.58727e+06
563.942
290911
9.51008e+06
475.447
320137
9.42458e+06
1296.87
351844
9.32693e+06
1197.53
389505
9.2231e+06
1090.67
412616
9.12615e+06
99.624
425390
9.03138e+06
743.613
446024
8.93053e+06
1305.79
472771
8.82213e+06
1358.58
498389
8.70031e+06
1410.75
534138
8.56567e+06
2310.49
573709
8.41837e+06
2364.9
615032
8.25241e+06
3692.05
648204
8.04851e+06
7862.04
694920
7.77847e+06
10238.8
796264
7.42392e+06
7840.93
915631
7.01771e+06
6654.63
976827
6.65475e+06
7906.78
898912
6.39384e+06
13254.9
657519
6.25949e+06
27414
284628
6.3095e+06
49847.8
-245708
6.52324e+06
38064.1
-734855
6.66647e+06
-73666.4
-445547
6.63772e+06
-193335
166256
6.59259e+06
-261828
382012
6.51306e+06
-241461
495648
6.59243e+06
-142673
80243.6
6.62223e+06
-55144.2
-21607.2
6.60988e+06
-77333.6
147780
6.62004e+06
-64932.6
186989
6.65681e+06
-51356.1
61623.4
6.69549e+06
-37188.7
-48708.3
6.64892e+06
-40259.7
-55812.1
6.62453e+06
-60086.2
-169857
6.58951e+06
-50081.2
-309518
6.6539e+06
-54302.2
-581123
6.71421e+06
-48090.9
-891698
6.91573e+06
-42422.2
-1.05193e+06
6.73955e+06
-36354.5
-942956
5.00497e+06
416689
-95169.7
848162
-711951
9.99943e+06
9282
9.99548e+06
27809.9
9.9875e+06
46571.1
9.97546e+06
65284.5
9.95944e+06
84348.1
9.93962e+06
103791
9.91516e+06
124314
9.88626e+06
145408
9.85218e+06
167160
9.81262e+06
190004
9.76689e+06
213580
9.71433e+06
238306
9.65442e+06
264053
9.58684e+06
290747
9.50965e+06
319905
9.42531e+06
351268
9.33241e+06
389103
9.22769e+06
419033
9.12915e+06
425645
9.03471e+06
441974
8.93424e+06
467600
8.82463e+06
492946
8.70109e+06
526950
8.56664e+06
572077
8.42145e+06
612589
8.2543e+06
653845
8.04577e+06
726849
7.77471e+06
839669
7.42672e+06
954197
7.03136e+06
1.01099e+06
6.68493e+06
929108
6.43689e+06
708878
6.29901e+06
398569
6.35041e+06
-29582.1
6.62746e+06
-536140
6.8421e+06
-631721
6.96267e+06
-581788
6.9595e+06
-456115
6.90086e+06
-307577
6.9138e+06
-355762
6.90015e+06
-222071
6.84288e+06
-122694
6.83916e+06
-123792
6.87153e+06
-229880
6.90001e+06
-313045
6.88343e+06
-363777
6.86902e+06
-477089
6.87301e+06
-593323
6.81881e+06
-718492
6.76836e+06
-945103
6.88096e+06
-1.28215e+06
6.8123e+06
-1.13546e+06
6.81538e+06
-351045
-1.29143e+06
9.99901e+06
299.713
11259.7
9.99564e+06
186.221
33682.4
9.98809e+06
300.833
56572.5
9.97652e+06
341.525
79523.6
9.96101e+06
463.87
102942
9.94153e+06
662.004
126901
9.91794e+06
848.367
152112
9.89014e+06
971.658
177891
9.8573e+06
1015.27
204923
9.81908e+06
981.409
233082
9.77501e+06
888.144
262221
9.72461e+06
764.258
292824
9.66768e+06
610.972
324490
9.60317e+06
485.3
358217
9.53089e+06
392.076
394852
9.45176e+06
672.197
435029
9.36853e+06
1765.72
480629
9.26277e+06
2767.69
525730
9.14002e+06
1392.74
551577
9.02785e+06
457.41
562590
8.9197e+06
1982.73
583286
8.80591e+06
2074.19
614921
8.67367e+06
245.729
669768
8.51895e+06
-490.951
731896
8.3423e+06
-2824.24
797150
8.12932e+06
-2881.72
867186
7.86638e+06
1072.07
959924
7.54132e+06
3036.74
1.12124e+06
7.15889e+06
514.271
1.30036e+06
6.76681e+06
695.312
1.37049e+06
6.42685e+06
5648.46
1.23472e+06
6.15342e+06
16000.3
915964
5.96203e+06
32744.2
444864
5.89618e+06
69433.3
-248014
5.99913e+06
150341
-986644
5.76819e+06
-56897.1
-150010
5.86716e+06
-137087
228608
5.94093e+06
-149724
475236
5.77697e+06
-206215
877306
5.78479e+06
-24389
103446
5.74312e+06
-13457.3
38914.3
5.72138e+06
-81104.8
282407
5.79699e+06
-15525.5
225379
5.84393e+06
31310.9
111514
5.84153e+06
36884.1
-5731.53
5.87863e+06
17338.4
-94692.3
5.86742e+06
18116.9
-248973
5.88433e+06
16610.5
-455897
5.77327e+06
40680.8
-611754
5.36783e+06
197628
-657782
4.82536e+06
220321
-762306
4.61316e+06
355950
-1.06972e+06
5.32115e+06
184988
-934158
-11365.2
-1.49721e+06
9.99947e+06
11253.7
9.99563e+06
33681.7
9.98786e+06
56568.6
9.97611e+06
79524
9.96051e+06
102954
9.9411e+06
126924
9.91768e+06
152137
9.89006e+06
177908
9.85732e+06
204918
9.81914e+06
233041
9.77502e+06
262136
9.72447e+06
292695
9.66734e+06
324341
9.60254e+06
358069
9.53026e+06
394795
9.45145e+06
435065
9.36801e+06
480683
9.26826e+06
528935
9.15216e+06
549178
9.03855e+06
561733
8.92599e+06
586978
8.803e+06
622178
8.664e+06
669402
8.50905e+06
728501
8.329e+06
791649
8.10923e+06
872445
7.85026e+06
988446
7.53924e+06
1.15527e+06
7.1779e+06
1.31755e+06
6.80681e+06
1.38406e+06
6.48442e+06
1.25814e+06
6.2392e+06
970693
6.10123e+06
570455
6.14e+06
2337.55
6.43469e+06
-670863
6.72228e+06
-955683
6.8846e+06
-871296
6.89449e+06
-608377
6.69477e+06
-301937
6.471e+06
-141562
6.25434e+06
-8053.63
6.12633e+06
-28345.3
6.17406e+06
-97738.7
6.23556e+06
-183359
6.26354e+06
-255409
6.23745e+06
-319078
6.16076e+06
-436882
6.05235e+06
-571217
5.87225e+06
-582812
5.61665e+06
-626203
5.28227e+06
-700647
5.35466e+06
-850657
5.23244e+06
-160796
-1.13159e+06
9.99905e+06
293.657
13175
9.99581e+06
188.114
39415.1
9.98857e+06
300.571
66267.9
9.97753e+06
343.24
93248.5
9.96288e+06
466.218
120709
9.94426e+06
660.634
149157
9.92182e+06
838.559
178713
9.89514e+06
948.255
209121
9.86372e+06
972.964
240978
9.82723e+06
916.565
273993
9.78481e+06
802.076
308633
9.73646e+06
668.568
344689
9.68168e+06
533.445
382380
9.62029e+06
454.461
422571
9.55314e+06
407.08
465429
9.48101e+06
842.22
512234
9.40853e+06
1795.79
561354
9.32711e+06
4464.88
617072
9.22336e+06
5359.11
663530
9.10362e+06
2402.07
694715
8.9724e+06
3421.95
724774
8.83026e+06
1634.93
767669
8.68092e+06
-2061.25
826320
8.51573e+06
-3603.08
904113
8.314e+06
-7484.72
1.00903e+06
8.05853e+06
-7010.31
1.13187e+06
7.75272e+06
-1292.82
1.26896e+06
7.41953e+06
4129.08
1.45159e+06
7.06657e+06
4187.03
1.6502e+06
6.70301e+06
5908.93
1.72924e+06
6.33912e+06
13233.9
1.58666e+06
5.96466e+06
31171
1.26139e+06
5.53295e+06
70738.8
808397
4.92328e+06
246397
117407
2.91937e+06
994261
30736.6
1.89022e+06
560444
333553
1.3225e+06
356199
477852
2.00507e+06
209093
-404746
2.77644e+06
20667.3
120284
3.65074e+06
130480
-877540
3.97966e+06
63539.6
-328954
4.20111e+06
94065.9
85907.3
4.37203e+06
167687
112371
4.47679e+06
191839
43472.5
4.48418e+06
209097
-55921.5
4.48184e+06
169197
-214668
4.32941e+06
161115
-349582
4.11135e+06
167107
-591687
3.89801e+06
208182
-818112
3.70896e+06
242258
-1.00104e+06
3.83693e+06
188702
-1.20304e+06
4.16516e+06
147523
-1.54695e+06
4.66924e+06
72111.1
-1.74753e+06
133253
-2.30094e+06
9.99949e+06
13172.1
9.9958e+06
39413.1
9.98834e+06
66254.4
9.97713e+06
93238.5
9.9624e+06
120717
9.94385e+06
149183
9.92157e+06
178748
9.89504e+06
209149
9.86372e+06
240984
9.82724e+06
273962
9.78476e+06
308556
9.73628e+06
344566
9.68131e+06
382244
9.61975e+06
422437
9.55245e+06
465446
9.48092e+06
512153
9.40988e+06
561709
9.34011e+06
614740
9.24811e+06
660417
9.12713e+06
698749
8.99189e+06
736379
8.84356e+06
782105
8.68171e+06
835399
8.50102e+06
907859
8.289e+06
997800
8.03348e+06
1.12241e+06
7.75084e+06
1.27077e+06
7.44119e+06
1.46973e+06
7.10471e+06
1.65892e+06
6.75906e+06
1.73645e+06
6.42972e+06
1.60155e+06
6.13274e+06
1.30039e+06
5.86943e+06
905967
5.73461e+06
391840
6.43074e+06
-348616
6.33116e+06
-289333
6.05404e+06
-229447
5.71201e+06
-16481.1
5.38357e+06
105308
5.16991e+06
250682
4.96324e+06
308816
4.89485e+06
222907
4.96728e+06
104059
5.05635e+06
30706
5.09667e+06
-11425.3
5.05832e+06
-105151
4.9683e+06
-255918
4.7919e+06
-363634
4.55211e+06
-335199
4.32557e+06
-281938
4.06995e+06
-348440
3.9128e+06
-710328
4.09778e+06
-323647
-1.32175e+06
9.99909e+06
290.777
15013.7
9.9961e+06
189.407
44875.8
9.98932e+06
305.402
75476.4
9.97898e+06
349.809
106270
9.9652e+06
469.914
137575
9.94763e+06
656.219
170318
9.92638e+06
822.104
204031
9.90099e+06
916.911
238881
9.87118e+06
925.63
275184
9.83583e+06
855.071
313465
9.79526e+06
733.872
352872
9.74883e+06
608.368
394390
9.69633e+06
516.456
437979
9.63819e+06
495.268
483998
9.57499e+06
569.774
532753
9.50816e+06
946.873
584737
9.43826e+06
1615.05
639254
9.36941e+06
2992.03
696685
9.29438e+06
4085.55
752963
9.20148e+06
3846.4
807074
9.0856e+06
3991.23
862594
8.94125e+06
2885.35
933410
8.77302e+06
485.322
1.00607e+06
8.59258e+06
-6160.78
1.09547e+06
8.38152e+06
-12664.8
1.2354e+06
8.11527e+06
-13496.4
1.41429e+06
7.79822e+06
-904.843
1.58821e+06
7.46254e+06
12137.8
1.77484e+06
7.12015e+06
11233.5
1.98099e+06
6.75123e+06
9334.45
2.08906e+06
6.3504e+06
21020.7
1.96751e+06
5.87086e+06
45718
1.69706e+06
5.0695e+06
129193
1.48257e+06
2.75264e+06
661079
1.77634e+06
-40358
963380
1.8698e+06
-92743.3
19561.4
366768
81586.2
43749.8
297108
-354494
72986.4
194133
166904
-368818
208300
864848
-345756
-1.10667e+06
1.59613e+06
-20309.4
-955278
1.79784e+06
465860
-413564
1.82779e+06
452265
-175643
1.96526e+06
382396
-259131
2.202e+06
323773
-452561
2.50827e+06
258819
-710956
2.84873e+06
188465
-901494
3.25736e+06
87157.2
-1.20659e+06
3.71365e+06
21892.9
-1.46921e+06
4.23215e+06
21913.8
-1.73668e+06
4.77809e+06
45855
-1.91768e+06
5.07539e+06
37820.5
-2.14345e+06
5.35387e+06
234754
-2.32342e+06
200505
-2.86671e+06
9.99954e+06
15006.2
9.9961e+06
44872
9.98911e+06
75465.8
9.97859e+06
106261
9.96473e+06
137576
9.94722e+06
170329
9.92612e+06
204043
9.90088e+06
238884
9.87114e+06
275167
9.8358e+06
313422
9.79517e+06
352800
9.74863e+06
394295
9.696e+06
437884
9.63776e+06
483917
9.57459e+06
532749
9.50806e+06
584609
9.4394e+06
639079
9.3715e+06
695466
9.29705e+06
751856
9.20693e+06
807967
9.09702e+06
867951
8.96131e+06
937647
8.78644e+06
1.02299e+06
8.58599e+06
1.10537e+06
8.35377e+06
1.21992e+06
8.07905e+06
1.38489e+06
7.78891e+06
1.56024e+06
7.49022e+06
1.78028e+06
7.17313e+06
1.98678e+06
6.83023e+06
2.08843e+06
6.47012e+06
1.98312e+06
6.10755e+06
1.70943e+06
5.71474e+06
1.43029e+06
5.33596e+06
1.44433e+06
3.68286e+06
2.2718e+06
1.91597e+06
1.50327e+06
841716
946934
202673
870955
-138982
308765
437342
-564009
1.0635e+06
-262703
1.36391e+06
449066
1.79947e+06
214829
2.1787e+06
146716
2.47512e+06
113481
2.72314e+06
-25778.4
2.81534e+06
-151356
2.72581e+06
-241522
2.64305e+06
-342786
2.79493e+06
-539503
3.13182e+06
-790763
3.37677e+06
-1.0166e+06
4.32186e+06
-1.08742e+06
-1.80908e+06
9.99917e+06
283.196
16726.5
9.99648e+06
189.121
49989.1
9.99026e+06
300.076
84099.8
9.9807e+06
342.154
118458
9.96782e+06
456.747
153454
9.95154e+06
632.642
190038
9.93186e+06
785.641
227568
9.90792e+06
867.729
266936
9.8795e+06
867.093
307700
9.8464e+06
794.424
350408
9.8077e+06
683.031
395057
9.76349e+06
582.491
441826
9.7138e+06
536.238
490921
9.65877e+06
566.006
542631
9.59899e+06
675.152
596773
9.53524e+06
907.639
653671
9.46817e+06
1277.7
712653
9.39914e+06
1727.33
773515
9.32691e+06
1778.58
835797
9.2486e+06
1578.43
899891
9.16016e+06
1639.98
969309
9.05788e+06
2408.43
1.05463e+06
8.92378e+06
4400.56
1.15692e+06
8.74916e+06
-3643.39
1.28233e+06
8.55013e+06
-14925.6
1.45292e+06
8.32439e+06
-17729.7
1.65892e+06
8.05695e+06
-1002.64
1.85499e+06
7.71811e+06
16217.1
2.09142e+06
7.34549e+06
18667.1
2.32767e+06
6.95428e+06
10764.9
2.46369e+06
6.57016e+06
17257
2.33233e+06
6.16979e+06
30340.6
2.06715e+06
5.69061e+06
63277.8
1.89853e+06
4.91616e+06
381271
2.17014e+06
2.53339e+06
848991
3.40533e+06
650076
379907
1.88624e+06
-95959.1
182258
1.0036e+06
45733.2
-151559
454060
788852
-323544
-22327.6
944551
-677121
-494350
1.30612e+06
-606649
-653072
1.7811e+06
-8868.85
-857486
2.30189e+06
178545
-832392
2.82994e+06
126832
-838545
3.34949e+06
108089
-985896
3.87743e+06
74587.5
-1.18714e+06
4.42586e+06
61191.3
-1.39516e+06
4.92994e+06
20723.4
-1.66987e+06
5.41642e+06
-8873.62
-1.95431e+06
5.81616e+06
-24756.7
-2.17266e+06
6.05118e+06
-40886.2
-2.31112e+06
6.16074e+06
-26455
-2.33708e+06
6.09031e+06
36296.7
-2.38657e+06
162718
-2.81757e+06
9.99959e+06
16723.9
9.99648e+06
49986.4
9.99005e+06
84082.5
9.98032e+06
118442
9.96737e+06
153454
9.95114e+06
190053
9.9316e+06
227587
9.90778e+06
266945
9.87944e+06
307686
9.84635e+06
350362
9.8076e+06
394977
9.76331e+06
441717
9.71353e+06
490800
9.65844e+06
542520
9.5987e+06
596692
9.53505e+06
653568
9.46831e+06
712485
9.39901e+06
773229
9.32583e+06
835401
9.24714e+06
899070
9.16045e+06
969519
9.06296e+06
1.05256e+06
8.93596e+06
1.16623e+06
8.76036e+06
1.28483e+06
8.53481e+06
1.43493e+06
8.27468e+06
1.62792e+06
7.98024e+06
1.85151e+06
7.68849e+06
2.08483e+06
7.4008e+06
2.29007e+06
7.0697e+06
2.42725e+06
6.68608e+06
2.38197e+06
6.30437e+06
2.12108e+06
5.91129e+06
1.88796e+06
5.73813e+06
1.99842e+06
6.07276e+06
2.7836e+06
5.11716e+06
2.84487e+06
4.00321e+06
2.27428e+06
3.13614e+06
1.64468e+06
2.13196e+06
1.06096e+06
355260
603318
-973804
505463
-888445
397507
-286848
-137914
289828
-216304
823087
-182194
1.31552e+06
-297120
1.83308e+06
-489232
2.45016e+06
-787453
3.17549e+06
-1.09102e+06
3.87222e+06
-1.33975e+06
4.43327e+06
-1.50879e+06
4.9154e+06
-1.60892e+06
5.48721e+06
-1.67913e+06
-2.16216e+06
9.99924e+06
280.424
18315.6
9.99693e+06
189.99
54698.2
9.99135e+06
302.793
92036.2
9.9827e+06
343.918
129684
9.97097e+06
452.358
168105
9.95606e+06
617.522
208271
9.93776e+06
758.429
249564
9.91579e+06
829.777
292799
9.88936e+06
822.289
337985
9.85824e+06
749.215
385124
9.82215e+06
644.968
434407
9.78048e+06
558.953
486538
9.73345e+06
532.722
541071
9.6815e+06
580.537
598047
9.62455e+06
676.718
657675
9.56331e+06
808.395
719357
9.49799e+06
939.216
782870
9.42959e+06
1065.28
847391
9.35928e+06
1165.91
912824
9.28775e+06
1346.17
980138
9.21579e+06
1659.92
1.05256e+06
9.1439e+06
2766.85
1.14067e+06
9.06073e+06
3543.11
1.25281e+06
8.93979e+06
10813.7
1.40786e+06
8.77622e+06
3889.99
1.6194e+06
8.60263e+06
-7345.78
1.84047e+06
8.38871e+06
-7049.9
2.07056e+06
8.10755e+06
4372.78
2.35158e+06
7.80315e+06
14311.6
2.59852e+06
7.44654e+06
23059.1
2.78169e+06
6.97497e+06
32714.3
2.76367e+06
6.4414e+06
33113.8
2.56289e+06
5.96805e+06
44223.9
2.32607e+06
5.84609e+06
73191.8
2.21311e+06
5.88123e+06
316199
3.05468e+06
4.70288e+06
202343
2.8864e+06
3.75062e+06
4454.48
2.03409e+06
3.2929e+06
-141511
1.18985e+06
3.19029e+06
-253394
484192
3.29377e+06
-399989
-77705.2
3.71264e+06
-561103
-434825
4.10623e+06
-544848
-678137
4.45474e+06
-334848
-864202
4.80515e+06
-177900
-1.06357e+06
5.16306e+06
-59120.4
-1.31084e+06
5.53355e+06
14752.3
-1.54602e+06
5.91498e+06
49141.2
-1.75227e+06
6.25657e+06
32881.6
-1.96888e+06
6.51626e+06
-9175.99
-2.17905e+06
6.65396e+06
-45206.6
-2.32448e+06
6.66381e+06
-38195.3
-2.35807e+06
6.59759e+06
-32779.6
-2.33961e+06
6.3926e+06
17078.3
-2.23149e+06
208592
-2.6281e+06
9.99967e+06
18307.6
9.99693e+06
54691.6
9.99115e+06
92022
9.98233e+06
129671
9.97052e+06
168099
9.95566e+06
208271
9.93749e+06
249563
9.91564e+06
292788
9.88928e+06
337955
9.85817e+06
385071
9.82203e+06
434327
9.78031e+06
486429
9.73321e+06
540932
9.6812e+06
597875
9.62423e+06
657471
9.56297e+06
719104
9.49765e+06
782515
9.42924e+06
846882
9.35882e+06
912012
9.28708e+06
978951
9.21532e+06
1.05154e+06
9.14286e+06
1.13789e+06
9.07089e+06
1.25313e+06
8.97523e+06
1.40256e+06
8.81462e+06
1.60593e+06
8.59644e+06
1.83835e+06
8.31087e+06
2.12273e+06
8.02002e+06
2.37135e+06
7.75123e+06
2.56449e+06
7.48007e+06
2.71292e+06
7.12898e+06
2.75917e+06
6.66035e+06
2.61806e+06
6.17917e+06
2.40892e+06
5.92121e+06
2.32656e+06
6.37796e+06
2.64944e+06
6.62854e+06
2.8236e+06
6.40831e+06
2.54622e+06
5.93661e+06
2.03484e+06
5.31722e+06
1.49295e+06
4.59252e+06
991504
3.9813e+06
612579
3.50646e+06
357119
2.96897e+06
45159.6
2.77905e+06
-248714
3.05965e+06
-546683
3.62289e+06
-820130
4.33627e+06
-1.09719e+06
5.03375e+06
-1.40259e+06
5.60487e+06
-1.65936e+06
5.99172e+06
-1.81685e+06
6.25386e+06
-1.87262e+06
6.46609e+06
-1.92349e+06
6.71926e+06
-1.96695e+06
-2.71511e+06
9.99934e+06
272.506
19732.7
9.99745e+06
186.863
58936.7
9.9926e+06
292.689
99185.2
9.98497e+06
328.799
139803
9.97454e+06
429.256
181324
9.96118e+06
583.006
224762
9.94469e+06
712.496
269515
9.92466e+06
775.73
316454
9.9006e+06
765.982
365636
9.87199e+06
697.044
417085
9.83843e+06
601.681
471025
9.79973e+06
521.448
528053
9.75571e+06
491.584
587871
9.70622e+06
514.598
650418
9.65162e+06
562.991
715303
9.5919e+06
595.736
782082
9.52787e+06
586.553
849737
9.46061e+06
593.039
917303
9.39274e+06
606.991
983627
9.32837e+06
788.165
1.0484e+06
9.27303e+06
1254.29
1.11406e+06
9.23107e+06
1491.32
1.19139e+06
9.19831e+06
2449.07
1.29518e+06
9.1589e+06
11148.4
1.45221e+06
9.06471e+06
20278.6
1.70194e+06
8.90317e+06
14979.5
1.98821e+06
8.67433e+06
1744.05
2.29027e+06
8.45223e+06
-7707.4
2.56822e+06
8.24086e+06
-3964.57
2.79873e+06
8.01233e+06
8638.88
2.98696e+06
7.66725e+06
13991.5
3.08067e+06
7.14559e+06
22424.6
3.05267e+06
6.56658e+06
39770.1
2.85873e+06
6.13873e+06
1952.49
2.64355e+06
6.38577e+06
65350
2.76759e+06
6.44964e+06
78162
2.79973e+06
6.13977e+06
21524
2.40894e+06
5.76741e+06
-65375.2
1.74398e+06
5.52697e+06
-160484
1.02683e+06
5.45687e+06
-231047
374071
5.5723e+06
-275328
-156188
5.78605e+06
-295697
-550004
6.01269e+06
-270550
-862365
6.21894e+06
-228476
-1.12351e+06
6.391e+06
-182635
-1.3765e+06
6.57485e+06
-153417
-1.60042e+06
6.78436e+06
-136178
-1.78715e+06
6.96163e+06
-125032
-1.95194e+06
7.04635e+06
-119582
-2.09454e+06
7.02957e+06
-112602
-2.1968e+06
6.9268e+06
-89014.4
-2.21884e+06
6.83599e+06
-71697.6
-2.19638e+06
6.62181e+06
-62562.2
-2.02073e+06
227099
-2.51961e+06
9.99975e+06
19730.8
9.99745e+06
58933.8
9.99241e+06
99167.5
9.98461e+06
139785
9.9741e+06
181319
9.96079e+06
224770
9.94441e+06
269523
9.9245e+06
316451
9.9005e+06
365609
9.8719e+06
417028
9.8383e+06
470936
9.79955e+06
527933
9.75545e+06
587722
9.7059e+06
650242
9.65123e+06
715102
9.59145e+06
781844
9.52734e+06
849429
9.46002e+06
916887
9.39215e+06
982977
9.32761e+06
1.04762e+06
9.27171e+06
1.11385e+06
9.22829e+06
1.19002e+06
9.19963e+06
1.29444e+06
9.17489e+06
1.4483e+06
9.1146e+06
1.69293e+06
8.96509e+06
2.00149e+06
8.74994e+06
2.33231e+06
8.49501e+06
2.60968e+06
8.22938e+06
2.81833e+06
7.97029e+06
2.97388e+06
7.67768e+06
3.0602e+06
7.27488e+06
3.03882e+06
6.78577e+06
2.93663e+06
6.31651e+06
2.80618e+06
6.29504e+06
2.76076e+06
6.55472e+06
2.68363e+06
6.76568e+06
2.41422e+06
6.81785e+06
1.98642e+06
6.74062e+06
1.48691e+06
6.61596e+06
965295
6.53512e+06
479438
6.52614e+06
83570
6.51773e+06
-250180
6.55943e+06
-575758
6.68056e+06
-893275
6.85905e+06
-1.1582e+06
7.03759e+06
-1.38352e+06
7.14167e+06
-1.59274e+06
7.15773e+06
-1.77781e+06
7.13597e+06
-1.93223e+06
7.20498e+06
-2.07404e+06
7.44496e+06
-2.28307e+06
7.90973e+06
-2.47682e+06
-3.5162e+06
9.99944e+06
270.38
20991.9
9.99803e+06
187.565
62664.2
9.994e+06
294.462
105463
9.9875e+06
328.425
148708
9.97853e+06
421.643
192992
9.96693e+06
564.373
239363
9.95227e+06
682.837
287455
9.93455e+06
738.06
337595
9.91329e+06
724.977
390255
9.88754e+06
657.74
445957
9.85683e+06
566.676
504547
9.82118e+06
487.544
566259
9.77999e+06
449.68
631484
9.73327e+06
452.19
699520
9.6804e+06
469.741
770533
9.62163e+06
459.507
843005
9.55726e+06
394.871
915832
9.48907e+06
344.577
986810
9.42073e+06
227.316
1.05303e+06
9.35884e+06
711.365
1.11211e+06
9.31476e+06
998.596
1.16184e+06
9.29764e+06
3285.15
1.21284e+06
9.31638e+06
3898.57
1.2825e+06
9.37553e+06
6720.01
1.40138e+06
9.37972e+06
16981.8
1.6952e+06
9.24464e+06
16200.9
2.11042e+06
9.01428e+06
5002.21
2.51405e+06
8.76962e+06
-3463.86
2.81723e+06
8.53697e+06
-4616.51
3.04118e+06
8.31119e+06
-1960.31
3.22109e+06
8.05349e+06
-2285.95
3.34609e+06
7.71436e+06
-2482.15
3.39793e+06
7.23884e+06
-3395.45
3.34345e+06
6.71544e+06
-10417.4
3.1944e+06
6.51024e+06
3135.61
3.00531e+06
6.56252e+06
16872.7
2.78337e+06
6.61384e+06
14315.7
2.41148e+06
6.57485e+06
-16612.7
1.87868e+06
6.50768e+06
-68707.6
1.25235e+06
6.48655e+06
-121668
607638
6.53749e+06
-154769
17716.1
6.62644e+06
-173664
-450001
6.73253e+06
-176192
-825514
6.84721e+06
-176386
-1.13068e+06
6.93764e+06
-158114
-1.37967e+06
7.01971e+06
-145508
-1.57896e+06
7.10204e+06
-130770
-1.73392e+06
7.17206e+06
-116485
-1.86109e+06
7.18524e+06
-105544
-1.9619e+06
7.1384e+06
-93705.3
-2.02909e+06
7.13536e+06
-89325.4
-2.09038e+06
7.2475e+06
-84804.7
-2.18468e+06
7.68654e+06
-75349.9
-2.25371e+06
109128
-2.90479e+06
9.99985e+06
20984.2
9.99803e+06
62655.5
9.99381e+06
105447
9.98715e+06
148692
9.97809e+06
192982
9.96653e+06
239356
9.95199e+06
287444
9.93437e+06
337572
9.91318e+06
390212
9.88743e+06
445889
9.85668e+06
504447
9.82097e+06
566125
9.7797e+06
631304
9.73292e+06
699291
9.67996e+06
770245
9.62108e+06
842651
9.55657e+06
915418
9.48828e+06
986282
9.41971e+06
1.0525e+06
9.35833e+06
1.11137e+06
9.3146e+06
1.16226e+06
9.30437e+06
1.21123e+06
9.33301e+06
1.27911e+06
9.39243e+06
1.40883e+06
9.39954e+06
1.70805e+06
9.2769e+06
2.14113e+06
9.07713e+06
2.5376e+06
8.85315e+06
2.83417e+06
8.61377e+06
3.06058e+06
8.35716e+06
3.23747e+06
8.07276e+06
3.35075e+06
7.72903e+06
3.38766e+06
7.31597e+06
3.35616e+06
6.87341e+06
3.25581e+06
6.5735e+06
3.09073e+06
6.47845e+06
2.83292e+06
6.50896e+06
2.44177e+06
6.58095e+06
1.9459e+06
6.65494e+06
1.39433e+06
6.72142e+06
822830
6.78763e+06
283160
6.8581e+06
-167916
6.92748e+06
-531592
6.97673e+06
-848207
7.00845e+06
-1.12587e+06
7.02323e+06
-1.3439e+06
7.03863e+06
-1.52639e+06
7.08448e+06
-1.72963e+06
7.2046e+06
-1.97793e+06
7.48401e+06
-2.28186e+06
8.02235e+06
-2.67591e+06
8.86377e+06
-3.12447e+06
9.99101e+06
-3.63302e+06
-4.52061e+06
9.99957e+06
262.817
22036.8
9.99867e+06
181.998
65806.9
9.99555e+06
280.955
110763
9.99033e+06
308.43
156240
9.98276e+06
392.676
203091
9.97331e+06
524.318
251612
9.96114e+06
632.975
302660
9.94606e+06
682.621
355834
9.92734e+06
668.717