/*--------------------------------*- C++ -*----------------------------------*\
| =========                 |                                                 |
| \\      /  F ield         | OpenFOAM: The Open Source CFD Toolbox           |
|  \\    /   O peration     | Version:  4.1                                   |
|   \\  /    A nd           | Web:      www.OpenFOAM.org                      |
|    \\/     M anipulation  |                                                 |
\*---------------------------------------------------------------------------*/
FoamFile
{
    version     2.0;
    format      ascii;
    class       volVectorField;
    location    "46";
    object      U;
}
// * * * * * * * * * * * * * * * * * * * * * * * * * * * * * * * * * * * * * //

dimensions      [0 1 -1 0 0 0 0];

internalField   nonuniform List<vector> 
4432
(
(39.9818 0.000513198 0.051078)
(39.9162 0.00070113 0.0919199)
(39.8237 0.001944 0.122519)
(39.698 0.00231067 0.152587)
(39.5268 0.00183766 0.183689)
(39.3132 0.0012829 0.215734)
(39.0636 0.00100572 0.248759)
(38.7793 0.001043 0.282185)
(38.4567 0.00132286 0.316201)
(38.0905 0.00167553 0.350677)
(37.6766 0.00202004 0.384438)
(37.2134 0.00230411 0.418604)
(36.7057 0.0025397 0.447567)
(36.1708 0.00275229 0.470848)
(35.6276 0.00125926 0.469067)
(35.1905 -0.00375699 0.417787)
(34.8405 6.60811e-05 0.457894)
(34.7271 0.00517742 0.35962)
(34.8508 0.00601002 0.258508)
(34.881 0.00863009 0.380647)
(34.6817 0.00232941 0.471974)
(34.3293 -0.00872711 0.605803)
(33.8407 -0.0223233 0.700213)
(33.2515 -0.0322102 0.721273)
(32.5592 -0.0375881 0.745316)
(31.7978 -0.0432166 0.657779)
(31.0643 -0.0410999 0.483324)
(30.3967 -0.025847 0.280163)
(29.8573 -0.00964315 0.189541)
(29.4402 -0.0108013 0.184916)
(29.1382 -0.025061 0.267248)
(28.8989 -0.0435323 0.414943)
(28.7432 -0.0463193 0.344779)
(28.8056 -0.0058421 -0.16609)
(29.1862 0.0530739 -1.00904)
(29.7917 0.0866824 -1.41612)
(30.6864 0.0963897 -1.22955)
(31.3014 -0.076747 -1.18709)
(31.4271 -0.0785048 -1.02397)
(31.6771 0.0804937 -0.704441)
(32.1742 0.173475 -0.543772)
(32.6073 0.181749 -0.552749)
(32.9767 0.0948668 -0.506989)
(33.144 0.0400035 -0.448535)
(33.4036 0.0611192 -0.425205)
(33.4397 0.214724 -0.561776)
(33.5039 0.276354 -0.377043)
(34.3458 -0.0443791 -0.560555)
(34.5902 -0.145689 -0.908854)
(34.2792 -0.359077 -1.27402)
(34.6403 -0.0410545 -0.991461)
(36.5247 -0.0296211 -2.29231)
(39.689 -0.21549 -4.47585)
(45.5537 -0.161094 -2.41646)
(39.9827 0.000513235 0.0510732)
(39.9171 0.000700911 0.0919534)
(39.8241 0.00194355 0.122594)
(39.6965 0.00231297 0.15254)
(39.5244 0.00184142 0.183437)
(39.3112 0.0012865 0.215398)
(39.0622 0.00100581 0.248323)
(38.7784 0.00103972 0.281823)
(38.4556 0.00131495 0.31617)
(38.0889 0.00166401 0.351028)
(37.6737 0.00200748 0.385633)
(37.2092 0.00229347 0.420317)
(36.7003 0.00253133 0.450894)
(36.1609 0.00275077 0.473851)
(35.6183 0.00125044 0.478329)
(35.1339 -0.00373648 0.428821)
(34.7843 0.000114085 0.404555)
(34.7175 0.00507181 0.309399)
(34.8422 0.00622103 0.245897)
(34.9031 0.00860196 0.386892)
(34.7084 0.00222526 0.455134)
(34.3526 -0.00860273 0.521216)
(33.8748 -0.02218 0.583506)
(33.2911 -0.0328313 0.604304)
(32.587 -0.0386001 0.627939)
(31.7934 -0.0444298 0.525136)
(31.0084 -0.0440328 0.362634)
(30.3124 -0.030689 0.244324)
(29.7262 -0.0156447 0.153489)
(29.2656 -0.0170551 0.00567274)
(29.0299 -0.0308486 -0.195899)
(28.9963 -0.0558044 -0.306931)
(29.0246 -0.0652278 -0.26099)
(29.1574 -0.0311986 -0.21586)
(29.5323 0.0406776 -0.543968)
(30.0989 0.0981316 -0.86201)
(30.7647 0.117721 -0.740856)
(31.3067 -0.0460841 -0.644254)
(31.7949 -0.107247 -0.480369)
(32.1661 0.0229445 -0.365716)
(32.4925 0.155573 -0.252356)
(32.7652 0.208339 -0.252568)
(33.0933 0.128792 -0.175234)
(33.3275 0.073579 -0.146767)
(33.8308 0.100738 -0.234803)
(33.9011 0.251211 -0.631927)
(33.4045 0.341215 -0.521594)
(34.252 -0.0049207 -0.394502)
(34.6089 -0.124794 -0.589788)
(34.5682 -0.273355 -0.791764)
(35.1058 0.0359831 -1.20931)
(36.4801 0.0247766 -1.98066)
(39.5522 -0.172969 -4.38016)
(46.0552 -0.15636 -2.47746)
(40.009 0.000522774 0.0190396)
(40.0359 0.000636753 0.0588878)
(40.0744 0.00186292 0.100825)
(40.1152 0.00224057 0.142735)
(40.147 0.00176132 0.184625)
(40.1723 0.00118198 0.226993)
(40.1967 0.000912511 0.270142)
(40.2216 0.0010606 0.314548)
(40.2446 0.00158592 0.360949)
(40.2625 0.00236522 0.410027)
(40.2727 0.00324943 0.462094)
(40.2711 0.00406727 0.515963)
(40.2553 0.00503882 0.569092)
(40.2079 0.00562464 0.611329)
(40.1333 0.00968799 0.639057)
(39.8688 0.0109362 0.642559)
(39.5874 0.0118124 0.496271)
(38.8697 0.0131007 0.40975)
(37.8702 0.00177162 0.417191)
(37.0335 -0.00239828 0.441598)
(36.3064 0.000314816 0.51252)
(35.6533 0.00343023 0.629833)
(35.0846 0.00699745 0.767606)
(34.5258 0.0113063 0.922587)
(33.9712 0.0143625 1.05127)
(33.4145 0.0175142 1.09776)
(32.8389 0.0218278 1.07653)
(32.2185 0.034426 1.0315)
(31.4563 0.0580132 0.950332)
(30.6393 0.0657419 0.805304)
(29.859 0.0623047 0.590692)
(29.1707 0.0583597 0.376898)
(28.8068 0.0538215 0.115223)
(28.8415 0.0504636 -0.15604)
(29.2583 0.0393219 -0.259753)
(29.8384 0.0111546 -0.184575)
(30.4018 -0.053195 0.131981)
(30.7854 -0.0768564 0.230348)
(31.0225 -0.0191401 0.293701)
(31.297 0.0189164 0.280188)
(31.6715 -0.0214921 0.167758)
(31.945 -0.134345 0.0842471)
(32.1174 -0.239463 0.0474771)
(32.0678 -0.303946 -0.0670477)
(32.0736 -0.377567 -0.150919)
(32.1307 -0.423192 -0.49492)
(32.0432 -0.467095 -0.319009)
(32.58 -0.495974 -0.713417)
(32.6404 -0.553265 -1.50968)
(32.757 -0.636734 -1.95396)
(32.6341 -0.51079 -1.69219)
(30.4773 0.0827809 -4.08503)
(38.0587 0.220839 -7.13613)
(41.209 -0.0507316 -9.62291)
(40.0098 0.000522768 0.0190254)
(40.0368 0.000636768 0.0588897)
(40.0748 0.00186295 0.100747)
(40.1135 0.00224063 0.142543)
(40.1442 0.00176144 0.184335)
(40.1695 0.00118205 0.226667)
(40.1947 0.000912829 0.269918)
(40.2204 0.00106006 0.314594)
(40.2443 0.00158544 0.361512)
(40.2631 0.00236624 0.411195)
(40.2741 0.00324009 0.464055)
(40.2736 0.00407569 0.51872)
(40.2578 0.00501206 0.57204)
(40.2163 0.00576003 0.616218)
(40.1357 0.00925167 0.636635)
(39.9587 0.0108581 0.608831)
(39.6427 0.0126436 0.506758)
(38.9028 0.0136261 0.398591)
(37.8873 0.00189148 0.395138)
(37.0248 -0.00214206 0.426832)
(36.3188 0.000497973 0.489358)
(35.674 0.00364899 0.598116)
(35.11 0.0073091 0.718756)
(34.5675 0.0119562 0.851448)
(34.033 0.0153043 0.969272)
(33.5171 0.0193656 1.01361)
(32.9855 0.0265145 1.02686)
(32.3915 0.0394068 1.0268)
(31.7396 0.0575863 0.942435)
(31.1094 0.0740728 0.738219)
(30.4013 0.0833284 0.498464)
(29.6365 0.0932688 0.279742)
(29.1429 0.0842953 0.0274201)
(29.1209 0.0738426 -0.210376)
(29.5054 0.0489879 -0.328652)
(30.0775 0.0385855 -0.300577)
(30.7995 -0.0461005 -0.0650311)
(31.3269 -0.0943099 0.108621)
(31.6308 -0.0579802 0.168735)
(31.8554 -0.0555299 0.0186467)
(32.1983 0.00605458 -0.0235239)
(32.4812 -0.044467 -0.00605477)
(32.727 -0.139569 0.0585093)
(32.7544 -0.211748 0.01901)
(32.8193 -0.311813 -0.118442)
(32.9955 -0.373932 -0.649734)
(32.9307 -0.415265 -0.628084)
(33.4798 -0.465659 -0.662048)
(33.6258 -0.452245 -1.0089)
(33.4862 -0.555625 -2.03742)
(33.0733 -0.310869 -1.40996)
(32.5179 0.0993371 -3.45901)
(39.0723 0.198379 -5.45443)
(42.8443 -0.163212 -8.06229)
(40.0001 0.000517457 0.0260431)
(39.9891 0.000626225 0.0757183)
(39.9694 0.00181989 0.122619)
(39.9359 0.00217291 0.167045)
(39.8783 0.00169386 0.211251)
(39.8002 0.00115502 0.256525)
(39.7083 0.000975855 0.303492)
(39.6051 0.00126531 0.352794)
(39.4893 0.00197237 0.405084)
(39.3587 0.00296255 0.460777)
(39.2111 0.00401923 0.519977)
(39.0452 0.00503608 0.582203)
(38.8581 0.00568386 0.646428)
(38.6515 0.00663267 0.710951)
(38.4047 0.00622129 0.774393)
(38.1681 0.00866156 0.848063)
(37.8257 0.00815558 0.878804)
(37.4025 0.00768078 0.975163)
(37.0361 0.00199713 1.11991)
(36.6236 0.00141859 1.23501)
(36.1344 0.00284609 1.30306)
(35.6135 0.00509964 1.35276)
(35.1049 0.00857524 1.42318)
(34.5918 0.0145691 1.51276)
(34.0685 0.0188338 1.59971)
(33.5315 0.025835 1.62657)
(32.9357 0.039453 1.6097)
(32.2193 0.0589204 1.63729)
(31.2909 0.0745843 1.60043)
(30.1942 0.0611499 1.52199)
(28.9855 0.0463359 1.43457)
(27.8753 0.0659597 1.128)
(27.1898 0.126846 0.523516)
(26.8158 0.230734 -0.348886)
(27.1097 0.28472 -1.58316)
(28.1603 0.0476558 -1.44645)
(28.7078 -0.238689 -0.73535)
(28.9274 -0.385012 -0.108752)
(28.8187 -0.447295 0.303059)
(28.933 -0.229409 -0.0326829)
(29.1197 -0.132737 -0.294841)
(29.3117 -0.216988 -0.185367)
(29.4005 -0.299966 -0.208693)
(29.4664 -0.358992 -0.429164)
(29.5489 -0.407331 -0.594876)
(29.7853 -0.397301 -0.793985)
(29.6481 -0.40615 -0.813509)
(29.9752 -0.349946 -1.24747)
(30.0963 -0.373339 -1.90173)
(30.9285 -0.377055 -3.12726)
(33.35 -0.25167 -2.96115)
(35.3725 -0.318575 -2.73695)
(34.7667 0.686288 -7.59532)
(24.2644 1.51715 -14.3157)
(40.0009 0.000517451 0.0260294)
(39.99 0.000626243 0.075706)
(39.9698 0.00181989 0.122548)
(39.9343 0.00217293 0.166941)
(39.8758 0.00169388 0.21115)
(39.798 0.00115504 0.256458)
(39.7069 0.000975822 0.303496)
(39.6045 0.00126547 0.352907)
(39.4893 0.0019728 0.40535)
(39.3591 0.00296327 0.461218)
(39.2115 0.00401991 0.520604)
(39.0453 0.00503733 0.582922)
(38.8586 0.00568849 0.64698)
(38.6499 0.00663241 0.710628)
(38.4112 0.00623064 0.771951)
(38.1432 0.00863945 0.837311)
(37.8307 0.00723162 0.903719)
(37.4236 0.00821757 0.980932)
(37.0367 0.00219941 1.10851)
(36.6322 0.00153846 1.21601)
(36.1506 0.00301764 1.27814)
(35.6388 0.00533643 1.31877)
(35.143 0.00896049 1.3752)
(34.6387 0.0155768 1.4727)
(34.1154 0.0205011 1.56427)
(33.5892 0.0285322 1.59693)
(33.0119 0.0442416 1.62082)
(32.3399 0.0652876 1.67907)
(31.5355 0.0825964 1.67998)
(30.5373 0.0785315 1.58426)
(29.219 0.0611154 1.52162)
(28.059 0.0761324 1.24702)
(27.4108 0.147262 0.625484)
(27.3724 0.221745 -0.136523)
(27.8478 0.194348 -0.81298)
(28.7342 0.0683114 -0.988582)
(29.4398 -0.150162 -0.699591)
(29.756 -0.337017 -0.472523)
(29.8779 -0.444357 -0.441556)
(30.1238 -0.385288 -0.767201)
(30.3548 -0.210795 -0.723908)
(30.436 -0.189767 -0.687406)
(30.527 -0.262165 -0.718427)
(30.4017 -0.271877 -0.890916)
(30.4152 -0.333532 -0.983377)
(30.5892 -0.326241 -1.15539)
(30.6232 -0.359179 -1.3186)
(30.9849 -0.307653 -1.59595)
(30.6623 -0.335519 -2.39769)
(31.8437 -0.230138 -3.51572)
(33.3045 -0.226709 -3.40043)
(35.2304 -0.288182 -3.26746)
(37.6626 0.860749 -3.81183)
(29.4777 1.47051 -13.0146)
(39.9998 0.000510061 0.0331461)
(39.988 0.000625389 0.0988174)
(39.9689 0.0017932 0.165486)
(39.937 0.00213143 0.232689)
(39.8813 0.00164447 0.301789)
(39.8037 0.00109071 0.373332)
(39.7101 0.000888274 0.447386)
(39.6022 0.00115143 0.524095)
(39.4779 0.00183943 0.603566)
(39.3336 0.00281507 0.685792)
(39.1657 0.00388245 0.770639)
(38.9715 0.00485795 0.858031)
(38.748 0.0055243 0.947775)
(38.4935 0.00592765 1.04152)
(38.2033 0.00551725 1.14097)
(37.8854 0.00636147 1.24905)
(37.5384 0.00475298 1.40511)
(37.0553 0.00377268 1.46645)
(36.6656 0.00147537 1.49511)
(36.3166 0.00227549 1.57858)
(35.9236 0.00377651 1.68944)
(35.4989 0.00431965 1.78214)
(35.041 0.00486539 1.88263)
(34.5224 0.00751518 2.00519)
(33.9635 0.00806053 2.14204)
(33.3611 0.0115649 2.22982)
(32.6326 0.0233437 2.33211)
(31.7113 0.0330726 2.58842)
(30.5084 0.0294528 2.89069)
(28.8937 0.0251814 3.07116)
(27.2196 0.0302282 2.92212)
(25.9991 0.0507502 2.18038)
(25.2067 0.101399 0.960141)
(24.8689 0.184469 -0.850525)
(25.5587 0.176207 -2.58909)
(26.4479 -0.1369 -1.77307)
(26.7085 -0.520787 -0.308637)
(26.6718 -0.858852 0.296015)
(26.116 -0.71098 0.972265)
(26.2298 -0.20903 0.0964484)
(26.2733 -0.111624 -0.180073)
(26.5316 -0.245751 0.316897)
(26.5026 -0.342387 0.544829)
(26.4967 -0.355424 0.297275)
(26.6441 -0.287984 -0.0604481)
(26.6788 -0.259913 -0.191108)
(26.5976 -0.344776 -0.842193)
(26.3894 -0.173712 -1.21675)
(26.6992 -0.226126 -1.93434)
(26.347 -0.182495 -3.4109)
(27.4399 -0.0963971 -5.02716)
(27.615 -0.389709 -5.82544)
(28.4691 0.574622 -5.13304)
(9.30633 2.73908 -8.00255)
(40.0007 0.000510055 0.0331361)
(39.9889 0.00062541 0.0988126)
(39.9692 0.00179321 0.165456)
(39.9354 0.00213145 0.232643)
(39.8787 0.0016445 0.301743)
(39.8014 0.00109073 0.373282)
(39.7086 0.000888293 0.44732)
(39.6016 0.00115152 0.524004)
(39.478 0.00183979 0.603446)
(39.334 0.00281583 0.685635)
(39.1661 0.00388393 0.770464)
(38.9714 0.00485956 0.85778)
(38.7474 0.00552509 0.947481)
(38.4913 0.00593311 1.04053)
(38.2035 0.00551434 1.13994)
(37.8791 0.0064582 1.24689)
(37.5554 0.00455699 1.39731)
(37.0825 0.00382139 1.49847)
(36.6728 0.00141376 1.49962)
(36.3289 0.00229951 1.56015)
(35.9388 0.00403726 1.66067)
(35.5154 0.00477764 1.74577)
(35.0454 0.00524066 1.84397)
(34.5204 0.00717237 2.00524)
(33.9759 0.00772021 2.14334)
(33.3742 0.0114946 2.24735)
(32.6289 0.0256173 2.43776)
(31.6921 0.0368054 2.75918)
(30.5075 0.0323809 3.09403)
(28.9156 0.0282942 3.28759)
(27.3054 0.0312676 3.08345)
(26.1564 0.0492786 2.39387)
(25.3938 0.0986638 1.40782)
(25.0206 0.200728 0.0354887)
(25.7348 0.202339 -1.7197)
(26.9577 -0.114247 -2.0259)
(27.794 -0.474413 -1.6128)
(28.0329 -0.933927 -1.14474)
(27.7352 -1.16137 -0.505817)
(27.7489 -0.991963 -0.876808)
(27.4257 -0.275153 -0.786138)
(27.4689 -0.230487 -0.565629)
(27.3875 -0.223095 -0.555215)
(27.3136 -0.257152 -0.868898)
(27.621 -0.200767 -1.13161)
(27.4274 -0.156746 -1.23926)
(27.6529 -0.161306 -1.71591)
(27.4981 -0.00304196 -2.1953)
(27.5858 -0.0927988 -2.86807)
(26.8348 -0.0163745 -4.10499)
(27.5063 -0.00162435 -5.30291)
(27.4696 -0.0712204 -5.64868)
(29.7787 0.344081 -5.1766)
(23.847 2.76922 -8.68151)
(39.9999 0.000507815 0.0410334)
(39.9883 0.000625436 0.122988)
(39.9698 0.00179449 0.206621)
(39.9389 0.00212706 0.290222)
(39.8845 0.00163919 0.375076)
(39.8089 0.00108705 0.462139)
(39.7183 0.000884807 0.551937)
(39.6142 0.00114489 0.645066)
(39.4948 0.00182548 0.742007)
(39.3563 0.00278636 0.843142)
(39.1952 0.00383452 0.948757)
(39.0087 0.00478163 1.05918)
(38.7943 0.00539721 1.17497)
(38.5499 0.00568051 1.29753)
(38.2769 0.00534613 1.43079)
(37.9717 0.005165 1.57653)
(37.6639 0.00512257 1.7425)
(37.2897 0.00866151 1.88905)
(36.7419 0.00569101 1.95805)
(36.3149 0.0034284 1.99521)
(35.8917 0.00550584 2.0805)
(35.4454 0.005519 2.19634)
(34.9583 0.00184249 2.393)
(34.3772 -0.00122015 2.59412)
(33.7287 -0.00761486 2.79525)
(32.9828 -0.00882201 2.9843)
(32.0201 0.00214707 3.26262)
(30.8633 0.0107142 3.81933)
(29.454 0.00699843 4.47504)
(27.8062 0.00991967 4.76522)
(26.301 0.0265246 4.28501)
(25.1083 0.0620455 3.09319)
(24.125 0.129226 1.28527)
(23.5073 0.255478 -1.31329)
(23.9848 0.369238 -3.55444)
(23.1049 -0.0979501 -2.2498)
(23.4819 -0.800779 1.54524)
(23.6418 -1.19304 2.76187)
(23.6476 -1.32601 2.94218)
(23.1993 -0.272516 0.766744)
(22.6626 -0.0471871 0.0579799)
(23.1446 -0.315173 0.833775)
(22.9842 -0.370419 0.864762)
(23.2554 -0.296287 0.283652)
(23.3943 -0.185523 -0.243229)
(23.1001 -0.028739 -0.567671)
(23.4686 0.317996 -1.33358)
(23.2119 0.388318 -1.93901)
(24.578 -0.0702229 -2.54435)
(22.6048 0.129347 -2.57991)
(20.2635 0.195548 -2.68912)
(16.2156 1.33089 -3.06348)
(25.8554 -0.0612691 -0.0540022)
(18.4555 -0.996186 0.308726)
(40.0007 0.000507808 0.0410185)
(39.9893 0.000625457 0.122984)
(39.9702 0.0017945 0.206586)
(39.9373 0.00212708 0.290191)
(39.882 0.00163921 0.375089)
(39.8067 0.00108707 0.462201)
(39.7168 0.000884835 0.55203)
(39.6136 0.00114502 0.645157)
(39.4948 0.00182586 0.742054)
(39.3567 0.00278727 0.843096)
(39.1956 0.00383539 0.948577)
(39.0086 0.00478527 1.05884)
(38.7935 0.00540331 1.17446)
(38.5483 0.00568723 1.29689)
(38.2742 0.00536725 1.43004)
(37.9708 0.00510041 1.57581)
(37.6555 0.00528447 1.7425)
(37.2873 0.0076458 1.911)
(36.797 0.00522681 1.96174)
(36.3581 0.00332347 1.98488)
(35.9273 0.00609961 2.06083)
(35.4653 0.0071866 2.18128)
(34.9201 0.00218014 2.37094)
(34.3324 -0.00154811 2.57832)
(33.701 -0.00790777 2.77659)
(32.9028 -0.00959365 3.01396)
(31.931 0.00269902 3.40893)
(30.8248 0.0119035 3.9962)
(29.4827 0.00787365 4.58671)
(27.932 0.00920518 4.84403)
(26.4952 0.0239933 4.38382)
(25.3678 0.0577983 3.29818)
(24.5647 0.116637 1.76579)
(24.2329 0.25542 -0.372093)
(24.9335 0.543019 -2.74883)
(26.1174 0.280412 -3.38972)
(27.4919 0.223205 -3.35314)
(27.8639 0.221577 -2.70305)
(27.3674 0.00629546 -1.891)
(26.6966 0.0957237 -1.57644)
(24.9032 0.106674 -0.774332)
(24.7641 -0.129883 -0.342898)
(24.4927 -0.0587026 -0.565202)
(24.7721 -0.0124193 -1.04616)
(24.9991 0.0866881 -1.43429)
(24.9394 0.273598 -1.76824)
(24.8769 0.639501 -2.14645)
(24.5203 0.751707 -2.53855)
(24.3982 0.540114 -2.60791)
(22.7844 0.746638 -3.12712)
(21.7792 0.880421 -4.40268)
(20.5795 0.918181 -3.66099)
(24.7903 -0.075527 -0.152056)
(17.3022 0.477421 -2.47909)
(39.9999 0.000495814 0.0488106)
(39.9887 0.000625564 0.146285)
(39.971 0.00176307 0.245896)
(39.9415 0.00209989 0.345821)
(39.8896 0.00164908 0.447841)
(39.8176 0.00113617 0.553205)
(39.7313 0.000957094 0.662497)
(39.6323 0.00121542 0.776265)
(39.5183 0.00186258 0.894866)
(39.3858 0.00275385 1.01857)
(39.2311 0.00369922 1.14759)
(39.0516 0.00452438 1.28228)
(38.8455 0.00503121 1.42334)
(38.6124 0.00524706 1.57235)
(38.3527 0.00486035 1.73208)
(38.0738 0.00528571 1.90759)
(37.7738 0.00525619 2.09445)
(37.4919 0.0097735 2.30921)
(37.073 0.0136318 2.46838)
(36.6441 0.0118852 2.54876)
(36.1584 0.0116291 2.61366)
(35.5928 0.00633868 2.72525)
(34.9973 -0.00326245 2.96249)
(34.3873 -0.0104381 3.25697)
(33.6754 -0.0219325 3.58488)
(32.8006 -0.0239366 3.95823)
(31.6342 -0.00685418 4.41823)
(30.3384 0.0127561 5.14965)
(28.9907 0.0171355 5.93287)
(27.5236 0.0245484 6.21153)
(26.0634 0.0496066 5.59068)
(24.6273 0.109702 4.21596)
(22.9349 0.244329 2.2325)
(21.3678 0.631025 -0.58038)
(20.1903 1.19091 -2.18002)
(0.896238 0.0533565 1.40189)
(8.81299 -0.453973 1.17209)
(6.76332 -0.989689 0.673331)
(9.69349 -1.90598 3.42648)
(12.8517 -0.514818 -0.691609)
(16.1622 -0.106626 0.168884)
(16.3031 -0.579083 2.05486)
(17.0414 -0.430514 1.62653)
(17.6404 -0.202042 0.767106)
(18.0529 -0.00162 0.0622261)
(17.6501 -0.0247429 -0.318128)
(17.4124 0.330978 -0.582231)
(17.1844 0.520745 -1.15102)
(16.841 0.327585 -1.89594)
(15.4808 0.0331701 -2.61296)
(14.1678 -0.209954 -3.24454)
(14.189 0.096899 -4.81639)
(22.0352 0.17976 -5.40321)
(17.4391 -0.534866 -8.14324)
(40.0007 0.000495806 0.0487928)
(39.9896 0.000625592 0.146278)
(39.9713 0.00176305 0.245861)
(39.94 0.00210007 0.345804)
(39.8872 0.0016485 0.447889)
(39.8155 0.0011343 0.553321)
(39.7299 0.000954948 0.662649)
(39.6317 0.00121336 0.776401)
(39.5183 0.00186081 0.894924)
(39.3861 0.00275262 1.01848)
(39.2313 0.00369802 1.1473)
(39.0513 0.0045251 1.28177)
(38.8445 0.00503834 1.4227)
(38.6105 0.00524966 1.57158)
(38.3507 0.00489653 1.73178)
(38.0707 0.00509543 1.90674)
(37.7778 0.00579093 2.09659)
(37.4896 0.00877267 2.30356)
(37.1713 0.0129322 2.44131)
(36.7515 0.0111853 2.55258)
(36.2348 0.0147208 2.66744)
(35.6765 0.00846683 2.80366)
(35.0284 -0.00367554 2.99)
(34.3553 -0.0105127 3.24645)
(33.6019 -0.0226527 3.55568)
(32.6703 -0.0239524 3.96069)
(31.5588 -0.00661296 4.49715)
(30.3947 0.0114903 5.24275)
(29.1162 0.0148168 5.95008)
(27.7073 0.0216405 6.2255)
(26.3334 0.0462373 5.66981)
(25.0829 0.102512 4.43238)
(23.9267 0.228453 2.73624)
(23.0937 0.770811 0.438615)
(24.0362 2.81859 -2.19308)
(24.9883 3.8908 -3.77909)
(25.5744 3.31881 -3.3136)
(23.7763 2.8709 -2.28338)
(21.9476 2.55391 -1.03802)
(21.5348 2.25682 -0.0486779)
(19.7854 0.943651 0.627755)
(19.7585 0.891508 0.62883)
(19.5904 0.89983 0.256397)
(20.0198 1.0207 -0.291962)
(20.2809 1.15445 -0.790307)
(20.1532 1.15019 -1.18064)
(20.0565 1.49546 -1.63142)
(19.8614 1.68309 -1.94894)
(19.1305 1.64177 -1.72485)
(17.9018 1.49861 -1.34284)
(16.6585 1.49234 -1.23693)
(14.0649 1.90803 -2.70651)
(21.6365 1.90615 1.39719)
(12.7857 1.94522 -4.21115)
(39.9999 0.000490817 0.0562951)
(39.9893 0.000623888 0.168693)
(39.9729 0.00176409 0.283797)
(39.9455 0.00210952 0.399561)
(39.8968 0.00167947 0.517966)
(39.8288 0.00118554 0.64025)
(39.7471 0.00101119 0.766923)
(39.6532 0.00125227 0.898537)
(39.5447 0.00185632 1.0355)
(39.418 0.00267856 1.1782)
(39.2697 0.00353613 1.32707)
(39.0972 0.00426825 1.48272)
(38.8995 0.00474511 1.64609)
(38.6769 0.00494207 1.81887)
(38.4309 0.00486695 2.00287)
(38.1672 0.00507846 2.20199)
(37.8881 0.00540433 2.41302)
(37.6039 0.00719426 2.64023)
(37.3084 0.0114284 2.85156)
(36.9814 0.0153594 3.03657)
(36.5804 0.0141867 3.22453)
(36.0665 0.00932611 3.46565)
(35.4224 0.000140618 3.68792)
(34.6905 -0.0161565 3.99582)
(33.946 -0.0358435 4.47539)
(33.0505 -0.04396 5.08981)
(31.8545 -0.0103476 5.74719)
(30.4857 0.0339631 6.4819)
(29.1605 0.0393703 7.2536)
(27.7481 0.0388019 7.59084)
(26.2227 0.0723977 7.10259)
(24.5096 0.150205 5.93025)
(22.1062 0.361783 4.52493)
(20.2607 1.03594 3.23808)
(0.320595 0.606976 0.802938)
(-0.587462 0.0109261 1.36333)
(-0.346109 -0.495323 2.04032)
(-1.41817 -1.40026 -2.04928)
(1.18789 -2.15475 0.117818)
(-0.802515 -3.10018 -5.57108)
(8.01014 -1.46885 -2.37092)
(7.13053 -0.283998 -0.562649)
(6.54599 0.134767 0.0860396)
(7.07407 0.353573 -0.283214)
(8.38911 0.158644 -0.769175)
(9.28819 -0.43438 -1.59712)
(10.0632 -0.702479 -2.17142)
(12.422 -0.703086 -3.84087)
(14.2841 -0.789754 -5.04979)
(16.36 -0.9658 -6.14008)
(18.0647 -1.01665 -6.7049)
(18.7896 -0.573768 -7.59963)
(23.7123 0.477384 -8.63225)
(20.2116 0.141669 -11.275)
(40.0007 0.000490809 0.0562746)
(39.9902 0.000623913 0.168681)
(39.9732 0.00176407 0.283745)
(39.944 0.00210971 0.399519)
(39.8944 0.0016789 0.517984)
(39.8267 0.00118366 0.640325)
(39.7457 0.001009 0.767017)
(39.6525 0.00125011 0.898597)
(39.5446 0.00185448 1.03548)
(39.4181 0.00267668 1.17803)
(39.2697 0.00353633 1.32673)
(39.0968 0.00427058 1.48223)
(38.8985 0.00474822 1.64557)
(38.6753 0.00494576 1.81839)
(38.4293 0.00488169 2.00295)
(38.1655 0.00506778 2.20165)
(37.8894 0.00547676 2.41328)
(37.607 0.00726347 2.63527)
(37.32 0.0110003 2.85133)
(37.0013 0.0147957 3.05774)
(36.5985 0.0153065 3.26709)
(36.1384 0.00908441 3.5017)
(35.5134 -0.00057402 3.73685)
(34.7089 -0.0151825 4.04333)
(33.8795 -0.0367578 4.42119)
(32.902 -0.0443963 5.01606)
(31.6991 -0.00891176 5.67313)
(30.545 0.0290796 6.50592)
(29.345 0.0354091 7.30018)
(28.0085 0.0339086 7.63692)
(26.5852 0.0686181 7.12985)
(25.1468 0.142758 5.99901)
(23.6327 0.390909 4.6335)
(22.3341 1.65696 3.37862)
(24.5856 4.82315 2.94939)
(0.433324 0.00553733 1.39592)
(7.03447 -0.0931172 0.359572)
(5.30844 1.05542 1.80766)
(-1.84021 -0.468053 0.982658)
(0.363357 1.32796 -0.699821)
(3.67993 1.55694 0.224563)
(5.22311 1.79779 0.626921)
(6.19373 1.79016 0.967818)
(7.88202 1.94102 0.839264)
(9.28317 1.9423 0.582868)
(10.0511 1.73737 0.0583156)
(10.9103 1.69285 -0.779201)
(11.5209 1.70613 -1.09434)
(11.1664 1.80362 -0.827943)
(11.0237 1.85873 -0.839922)
(11.423 1.94239 -1.45115)
(12.4146 2.35148 -2.8642)
(18.1523 3.56453 -3.82073)
(16.6845 2.26399 -7.39114)
(40 0.00047632 0.0633782)
(39.9901 0.000618969 0.189875)
(39.9753 0.00171656 0.319553)
(39.9505 0.0020584 0.450108)
(39.9053 0.00165808 0.583774)
(39.8419 0.00119103 0.721882)
(39.7654 0.00102254 0.865011)
(39.6774 0.00124348 1.01385)
(39.5754 0.00180213 1.16897)
(39.4558 0.00255988 1.33089)
(39.3153 0.00334888 1.50023)
(39.1514 0.00402802 1.67773)
(38.9636 0.00450939 1.86431)
(38.7523 0.00477423 2.06115)
(38.5195 0.00488511 2.26937)
(38.2682 0.00502698 2.48999)
(38.0023 0.00550195 2.72145)
(37.7239 0.00630675 2.96152)
(37.4358 0.00701243 3.20479)
(37.1345 0.00757776 3.45179)
(36.8014 0.00645934 3.71854)
(36.4206 0.0046646 4.04337)
(35.9791 0.0109144 4.39981)
(35.3387 -0.005873 4.79969)
(34.5248 -0.0353977 5.40051)
(33.7654 -0.0512141 6.18194)
(32.8325 -0.0147099 6.9319)
(31.5632 0.0470895 7.6933)
(30.1294 0.0686875 8.54722)
(28.5465 0.0583412 9.02236)
(27.0363 0.0661432 8.5102)
(25.5106 0.100434 7.4909)
(23.7246 0.213689 6.90265)
(22.4459 0.839853 8.19153)
(18.7148 1.57606 12.5907)
(-0.8499 0.00240469 1.40419)
(0.985859 -0.357736 -0.361982)
(1.0763 -1.84956 0.333012)
(1.34989 -2.522 -1.3191)
(4.16226 -3.25919 -3.69264)
(4.41386 -3.21681 -4.70148)
(6.36736 -2.96611 -4.10367)
(8.03522 -2.51105 -2.94958)
(10.0937 -2.19023 -2.34639)
(12.4766 -2.07881 -2.80086)
(14.4427 -2.28365 -3.77431)
(16.2462 -2.22233 -4.82277)
(18.429 -1.82197 -6.03267)
(20.904 -1.35357 -7.2678)
(23.0278 -1.07999 -8.19777)
(24.2941 -1.0204 -8.69264)
(23.862 -0.766529 -8.8391)
(27.0246 -0.229449 -9.03192)
(21.6413 0.753689 -11.3966)
(40.0008 0.000476315 0.0633578)
(39.991 0.000618987 0.189862)
(39.9756 0.00171658 0.319498)
(39.949 0.00205843 0.450061)
(39.903 0.00165813 0.583781)
(39.8398 0.00119102 0.721937)
(39.764 0.00102278 0.865077)
(39.6767 0.00124274 1.01388)
(39.5752 0.00179986 1.1689)
(39.4558 0.00255704 1.3307)
(39.3152 0.00334778 1.49991)
(39.151 0.00402966 1.6773)
(38.9627 0.0045119 1.86387)
(38.751 0.00477736 2.0608)
(38.5181 0.00488721 2.26925)
(38.267 0.00503522 2.48981)
(38.0016 0.00549116 2.72103)
(37.7242 0.00635917 2.95941)
(37.4352 0.00707947 3.20041)
(37.1299 0.00749472 3.44529)
(36.7954 0.00643279 3.71867)
(36.4219 0.00440808 4.03798)
(36.0032 0.0115267 4.47178)
(35.4237 -0.00318222 4.83617)
(34.5302 -0.0422743 5.36091)
(33.6679 -0.0550217 6.0426)
(32.4913 -0.0205365 6.79024)
(31.2754 0.0318054 7.69574)
(30.1904 0.0549356 8.53251)
(28.9827 0.0403225 8.98757)
(27.4906 0.0579249 8.61419)
(25.9605 0.0977841 7.54057)
(24.5152 0.226445 6.6396)
(22.7836 1.1655 7.05127)
(25.0478 3.86808 10.6182)
(21.3164 3.18398 10.2427)
(18.4523 1.83428 7.71527)
(14.4934 1.30695 5.03446)
(10.7761 1.01677 2.36875)
(6.39271 -0.135346 -0.264116)
(-2.99789 0.209983 0.687838)
(-5.06351 2.58486 2.84614)
(-1.87456 2.39708 -0.594627)
(0.509155 2.75203 -0.644518)
(2.38066 2.84792 0.0624276)
(3.21955 1.6824 -0.438855)
(5.28061 0.943647 -1.0215)
(8.51337 1.16004 -2.08418)
(11.8697 1.59527 -3.31151)
(14.804 1.64735 -4.34946)
(16.8675 1.25114 -5.1461)
(18.1448 1.05788 -5.66358)
(23.1836 1.20289 -5.84537)
(21.2531 1.29122 -7.5237)
(40.0001 0.00047154 0.0699644)
(39.991 0.000616637 0.209551)
(39.978 0.00171506 0.352748)
(39.9562 0.00206226 0.497047)
(39.9152 0.0016774 0.644969)
(39.8569 0.00122122 0.797967)
(39.7866 0.00104813 0.956697)
(39.7054 0.00124504 1.12199)
(39.6109 0.00176149 1.29453)
(39.4996 0.00246456 1.47502)
(39.3681 0.0031961 1.66418)
(39.2142 0.00382964 1.86281)
(39.0371 0.00428973 2.07162)
(38.8374 0.00457595 2.29118)
(38.6164 0.00473018 2.52161)
(38.3762 0.00488123 2.76237)
(38.1196 0.00504368 3.01196)
(37.8487 0.00523754 3.2677)
(37.5663 0.00535937 3.52791)
(37.2763 0.00554379 3.79614)
(36.98 0.00533523 4.0868)
(36.6811 0.00709223 4.44036)
(36.3698 0.0055772 4.88393)
(36.0388 0.0258861 5.49159)
(35.3418 0.0155936 6.25761)
(34.7069 -0.00771058 7.05743)
(34.0484 -0.0187388 7.79633)
(32.9957 0.0093939 8.86409)
(31.8467 0.049112 9.90621)
(30.5348 0.0875816 10.5892)
(28.941 0.104013 10.0803)
(26.7709 0.130368 8.92062)
(24.85 0.158094 8.24807)
(22.9134 0.359899 9.0364)
(24.8751 1.09855 14.5646)
(20.7536 0.578148 12.642)
(16.472 -0.590814 7.82065)
(14.0215 -1.68611 3.82258)
(12.5062 -2.33905 0.767209)
(12.5433 -2.80238 -1.41149)
(14.0244 -3.14614 -2.61747)
(15.8018 -3.12146 -3.46635)
(17.2627 -2.74201 -3.82615)
(18.5834 -2.32625 -4.11426)
(20.0063 -1.95133 -4.81921)
(21.3422 -1.78258 -5.76521)
(22.6088 -1.62258 -6.64431)
(24.0383 -1.32791 -7.55386)
(25.6223 -0.946567 -8.47577)
(26.8241 -0.68362 -9.23584)
(27.3257 -0.487545 -9.69382)
(26.1118 -0.224295 -9.70325)
(28.2245 0.413995 -9.59189)
(22.3965 1.67885 -10.8292)
(40.0008 0.000471534 0.0699435)
(39.9918 0.000616652 0.209532)
(39.9784 0.00171507 0.352683)
(39.9548 0.00206229 0.496983)
(39.9129 0.00167746 0.644953)
(39.8549 0.00122125 0.797994)
(39.7852 0.00104849 0.95673)
(39.7046 0.00124447 1.12198)
(39.6106 0.00175931 1.29444)
(39.4995 0.00246203 1.47482)
(39.3679 0.00319407 1.66386)
(39.2137 0.00382596 1.86238)
(39.0363 0.00428773 2.07112)
(38.8362 0.00457737 2.29066)
(38.615 0.00472675 2.5211)
(38.3749 0.0048768 2.76175)
(38.1182 0.00504056 3.01079)
(37.8474 0.00524239 3.26565)
(37.5652 0.00540135 3.52493)
(37.2741 0.00549092 3.79201)
(36.9779 0.00548352 4.08515)
(36.6771 0.00616373 4.43224)
(36.3784 0.0085526 4.89255)
(36.074 0.0211838 5.4492)
(35.5625 0.00195664 6.14565)
(34.8426 -0.0190786 6.95966)
(33.825 -0.028648 7.93768)
(32.6177 -0.00447848 8.856)
(31.5171 0.0375789 9.63242)
(30.4591 0.0641824 10.2611)
(29.276 0.0944944 10.3086)
(27.6861 0.101522 9.31414)
(25.6881 0.160842 8.25711)
(23.8015 0.251628 8.66487)
(24.1658 1.4294 11.4903)
(26.2652 1.89589 12.4128)
(26.3891 1.7132 10.7968)
(24.8988 1.34747 8.32131)
(22.6313 0.95968 5.77219)
(19.717 0.502474 3.55461)
(17.3922 -0.0711406 1.4546)
(14.6618 -0.13657 0.506791)
(12.8464 0.279516 0.0941453)
(11.5877 0.816776 -0.453262)
(11.4754 1.33475 -1.15735)
(12.6953 1.26165 -1.83737)
(15.2438 0.960012 -2.8012)
(18.564 0.778473 -4.17208)
(21.6712 0.745852 -5.58662)
(23.7864 0.652117 -6.66783)
(24.8732 0.494119 -7.0454)
(25.1844 0.43894 -6.87011)
(28.1323 0.709975 -6.55282)
(26.834 1.54766 -8.89062)
(40.0002 0.000456791 0.0759622)
(39.992 0.000606256 0.22747)
(39.9812 0.0016576 0.382979)
(39.9627 0.00199528 0.539831)
(39.9264 0.00163436 0.700839)
(39.8741 0.0011995 0.867576)
(39.8106 0.0010273 1.04079)
(39.7372 0.00120093 1.22146)
(39.6513 0.00167461 1.41045)
(39.5495 0.00232377 1.60861)
(39.4283 0.0029997 1.81678)
(39.2855 0.00357726 2.03574)
(39.1199 0.00398992 2.26598)
(38.9316 0.00422834 2.50751)
(38.7212 0.00433378 2.75954)
(38.4902 0.00436356 3.02035)
(38.2404 0.00427144 3.28722)
(37.9751 0.00421129 3.55671)
(37.7006 0.00382664 3.82728)
(37.4262 0.00361504 4.09925)
(37.1736 0.00357333 4.38908)
(36.9481 0.00229587 4.72817)
(36.7925 -0.00184532 5.17329)
(36.6649 0.0102666 5.80171)
(36.4158 0.0526698 6.73927)
(35.901 0.0627555 7.68737)
(35.1156 0.0242243 8.69977)
(34.2562 -0.0109322 9.84195)
(33.3921 -0.0195532 10.8348)
(32.5251 0.0143235 11.6481)
(31.4724 0.0433677 11.9812)
(29.8085 0.0720852 11.6027)
(27.4466 0.138668 10.3984)
(24.9625 0.0887582 9.70741)
(24.7419 0.357332 11.3057)
(25.9388 0.399998 11.8162)
(25.401 -0.0543378 9.87667)
(23.7009 -0.685267 6.74811)
(22.3897 -1.22892 3.74183)