/*--------------------------------*- C++ -*----------------------------------*\
| =========                 |                                                 |
| \\      /  F ield         | OpenFOAM: The Open Source CFD Toolbox           |
|  \\    /   O peration     | Version:  4.1                                   |
|   \\  /    A nd           | Web:      www.OpenFOAM.org                      |
|    \\/     M anipulation  |                                                 |
\*---------------------------------------------------------------------------*/
FoamFile
{
    version     2.0;
    format      ascii;
    class       volScalarField;
    location    "14";
    object      p;
}
// * * * * * * * * * * * * * * * * * * * * * * * * * * * * * * * * * * * * * //

dimensions      [0 2 -2 0 0 0 0];

internalField   nonuniform List<scalar> 
4432
(
-1.80657e+10
-1.42697e+10
-3.54965e+09
2.23863e+10
-1.29777e+10
-3.71436e+10
-2.87662e+10
-2.55366e+10
-2.48406e+10
-2.47457e+10
-2.40303e+10
-2.33986e+10
-2.30515e+10
-2.26472e+10
-2.20457e+10
-2.11553e+10
-1.99334e+10
-1.89606e+10
-1.83602e+10
-1.79981e+10
-1.76852e+10
-1.74141e+10
-1.71661e+10
-1.69377e+10
-1.67274e+10
-1.65339e+10
-1.63566e+10
-1.61945e+10
-1.60464e+10
-1.59106e+10
-1.57849e+10
-1.5667e+10
-1.55554e+10
-1.54442e+10
-1.53275e+10
-1.52052e+10
-1.50761e+10
-1.49418e+10
-1.4806e+10
-1.46699e+10
-1.45355e+10
-1.44044e+10
-1.42721e+10
-1.41309e+10
-1.39858e+10
-1.38461e+10
-1.36762e+10
-1.34639e+10
-1.32581e+10
-1.31201e+10
-1.3141e+10
-1.35506e+10
-1.45481e+10
-1.17427e+10
-2.21645e+10
-1.6106e+10
-1.42587e+10
-1.41338e+10
-2.12602e+10
-4.12095e+10
-3.59752e+10
-2.98814e+10
-2.76526e+10
-2.65789e+10
-2.49471e+10
-2.36638e+10
-2.30712e+10
-2.27011e+10
-2.21066e+10
-2.11582e+10
-1.98966e+10
-1.89321e+10
-1.83719e+10
-1.80031e+10
-1.76828e+10
-1.74103e+10
-1.71597e+10
-1.69297e+10
-1.67177e+10
-1.65223e+10
-1.63429e+10
-1.61784e+10
-1.60277e+10
-1.58888e+10
-1.57597e+10
-1.56381e+10
-1.55219e+10
-1.54066e+10
-1.5287e+10
-1.51599e+10
-1.50239e+10
-1.48824e+10
-1.47393e+10
-1.45956e+10
-1.44524e+10
-1.43112e+10
-1.41668e+10
-1.40108e+10
-1.3843e+10
-1.36716e+10
-1.34718e+10
-1.32205e+10
-1.30205e+10
-1.29207e+10
-1.29926e+10
-1.367e+10
-1.46497e+10
-1.12814e+10
-2.80032e+10
-2.87605e+10
-3.21079e+10
-4.67102e+10
-3.90039e+10
-4.68368e+10
-4.60359e+10
-3.60544e+10
-3.01025e+10
-2.70607e+10
-2.44423e+10
-2.3092e+10
-2.2549e+10
-2.22125e+10
-2.18419e+10
-2.13213e+10
-2.03191e+10
-1.92015e+10
-1.84827e+10
-1.80238e+10
-1.76947e+10
-1.74134e+10
-1.71604e+10
-1.69272e+10
-1.67127e+10
-1.65156e+10
-1.63357e+10
-1.61722e+10
-1.60236e+10
-1.58881e+10
-1.57633e+10
-1.56468e+10
-1.55388e+10
-1.54315e+10
-1.53089e+10
-1.51778e+10
-1.50483e+10
-1.49202e+10
-1.47933e+10
-1.46641e+10
-1.45321e+10
-1.44028e+10
-1.42794e+10
-1.41538e+10
-1.40189e+10
-1.39178e+10
-1.38071e+10
-1.35836e+10
-1.33888e+10
-1.32996e+10
-1.33299e+10
-1.37897e+10
-1.37843e+10
-8.15117e+09
-2.91076e+10
-3.04272e+10
-3.13596e+10
-3.69396e+10
-4.07491e+10
-4.73791e+10
-4.55506e+10
-3.52988e+10
-3.00305e+10
-2.6785e+10
-2.42572e+10
-2.2905e+10
-2.23899e+10
-2.21352e+10
-2.18569e+10
-2.13784e+10
-2.02837e+10
-1.91129e+10
-1.8474e+10
-1.80316e+10
-1.77031e+10
-1.742e+10
-1.71658e+10
-1.69319e+10
-1.67169e+10
-1.65194e+10
-1.63391e+10
-1.6175e+10
-1.60256e+10
-1.5889e+10
-1.57625e+10
-1.56438e+10
-1.55313e+10
-1.542e+10
-1.53012e+10
-1.51738e+10
-1.50392e+10
-1.49042e+10
-1.47751e+10
-1.46441e+10
-1.45085e+10
-1.43739e+10
-1.42419e+10
-1.4105e+10
-1.39578e+10
-1.38221e+10
-1.36726e+10
-1.34632e+10
-1.32887e+10
-1.32201e+10
-1.33181e+10
-1.38678e+10
-1.40441e+10
-8.70719e+09
-3.33582e+10
-3.42478e+10
-3.35279e+10
-5.17086e+10
-4.40334e+10
-4.46909e+10
-4.34367e+10
-3.76905e+10
-3.19564e+10
-2.737e+10
-2.39672e+10
-2.24055e+10
-2.17284e+10
-2.1441e+10
-2.13679e+10
-2.10597e+10
-2.01921e+10
-1.91874e+10
-1.852e+10
-1.80408e+10
-1.76852e+10
-1.73842e+10
-1.71166e+10
-1.68723e+10
-1.66485e+10
-1.64439e+10
-1.62582e+10
-1.60901e+10
-1.59375e+10
-1.57979e+10
-1.56691e+10
-1.55469e+10
-1.54297e+10
-1.5325e+10
-1.52021e+10
-1.50547e+10
-1.4935e+10
-1.48162e+10
-1.46958e+10
-1.45638e+10
-1.44294e+10
-1.43092e+10
-1.42074e+10
-1.41108e+10
-1.40178e+10
-1.39389e+10
-1.38506e+10
-1.3742e+10
-1.36715e+10
-1.36354e+10
-1.36517e+10
-1.38369e+10
-1.34842e+10
-8.07029e+09
-3.06173e+10
-3.36858e+10
-3.37778e+10
-3.57837e+10
-4.27796e+10
-4.36095e+10
-3.96355e+10
-3.39791e+10
-3.01372e+10
-2.61914e+10
-2.33492e+10
-2.20651e+10
-2.16356e+10
-2.1485e+10
-2.13783e+10
-2.10926e+10
-2.01281e+10
-1.91113e+10
-1.8493e+10
-1.80378e+10
-1.769e+10
-1.73899e+10
-1.71224e+10
-1.6878e+10
-1.66542e+10
-1.64495e+10
-1.62633e+10
-1.60947e+10
-1.59416e+10
-1.58017e+10
-1.56714e+10
-1.55467e+10
-1.5427e+10
-1.53132e+10
-1.51926e+10
-1.50684e+10
-1.49462e+10
-1.48257e+10
-1.47038e+10
-1.45696e+10
-1.44315e+10
-1.43096e+10
-1.42057e+10
-1.41092e+10
-1.4014e+10
-1.39325e+10
-1.38593e+10
-1.37771e+10
-1.37287e+10
-1.37327e+10
-1.37881e+10
-1.39567e+10
-1.35956e+10
-8.35753e+09
-3.09173e+10
-3.42402e+10
-3.46573e+10
-3.56709e+10
-4.01197e+10
-3.90579e+10
-3.71574e+10
-3.35521e+10
-2.96777e+10
-2.58046e+10
-2.29431e+10
-2.17014e+10
-2.12171e+10
-2.10558e+10
-2.10004e+10
-2.0698e+10
-1.99257e+10
-1.90858e+10
-1.84931e+10
-1.8038e+10
-1.76759e+10
-1.73623e+10
-1.70834e+10
-1.68303e+10
-1.65997e+10
-1.639e+10
-1.61994e+10
-1.6026e+10
-1.58663e+10
-1.57165e+10
-1.5577e+10
-1.54416e+10
-1.53012e+10
-1.52555e+10
-1.52665e+10
-1.50383e+10
-1.48345e+10
-1.47138e+10
-1.459e+10
-1.44658e+10
-1.43368e+10
-1.42244e+10
-1.41334e+10
-1.4038e+10
-1.39428e+10
-1.38652e+10
-1.37795e+10
-1.37048e+10
-1.36643e+10
-1.36271e+10
-1.35943e+10
-1.36535e+10
-1.315e+10
-7.73019e+09
-2.8489e+10
-2.98825e+10
-3.19596e+10
-3.45369e+10
-4.03736e+10
-3.72334e+10
-3.19623e+10
-2.92082e+10
-2.75614e+10
-2.47642e+10
-2.26108e+10
-2.16072e+10
-2.12468e+10
-2.1148e+10
-2.10644e+10
-2.06947e+10
-1.98491e+10
-1.9033e+10
-1.84708e+10
-1.80337e+10
-1.76778e+10
-1.73662e+10
-1.70879e+10
-1.68346e+10
-1.66036e+10
-1.63934e+10
-1.62028e+10
-1.60303e+10
-1.58732e+10
-1.57277e+10
-1.55905e+10
-1.54596e+10
-1.53382e+10
-1.52366e+10
-1.51278e+10
-1.50084e+10
-1.48709e+10
-1.47209e+10
-1.45975e+10
-1.44743e+10
-1.43451e+10
-1.42321e+10
-1.41436e+10
-1.40563e+10
-1.39605e+10
-1.38852e+10
-1.38164e+10
-1.37597e+10
-1.37397e+10
-1.3732e+10
-1.37098e+10
-1.37435e+10
-1.32128e+10
-7.88984e+09
-2.79594e+10
-3.01437e+10
-3.13383e+10
-3.06972e+10
-3.37683e+10
-3.15465e+10
-2.98853e+10
-2.86019e+10
-2.70903e+10
-2.4832e+10
-2.25518e+10
-2.11653e+10
-2.08274e+10
-2.07454e+10
-2.06667e+10
-2.02799e+10
-1.96119e+10
-1.89507e+10
-1.84368e+10
-1.80147e+10
-1.76607e+10
-1.73479e+10
-1.7067e+10
-1.68107e+10
-1.65767e+10
-1.63635e+10
-1.61688e+10
-1.59916e+10
-1.58301e+10
-1.56745e+10
-1.55267e+10
-1.53899e+10
-1.52686e+10
-1.51963e+10
-1.51244e+10
-1.49693e+10
-1.48077e+10
-1.46771e+10
-1.45503e+10
-1.44264e+10
-1.43066e+10
-1.41929e+10
-1.40855e+10
-1.39802e+10
-1.38829e+10
-1.38026e+10
-1.37263e+10
-1.36497e+10
-1.35759e+10
-1.34858e+10
-1.33954e+10
-1.34264e+10
-1.29415e+10
-7.61468e+09
-2.62236e+10
-2.66648e+10
-2.83703e+10
-2.98747e+10
-3.27944e+10
-2.86104e+10
-2.54388e+10
-2.4815e+10
-2.45785e+10
-2.34417e+10
-2.21304e+10
-2.12149e+10
-2.08766e+10
-2.07671e+10
-2.06429e+10
-2.02365e+10
-1.95564e+10
-1.89177e+10
-1.84221e+10
-1.80108e+10
-1.76601e+10
-1.73484e+10
-1.7067e+10
-1.681e+10
-1.65754e+10
-1.63624e+10
-1.61693e+10
-1.59935e+10
-1.58317e+10
-1.56827e+10
-1.555e+10
-1.54266e+10
-1.52972e+10
-1.51813e+10
-1.50715e+10
-1.49471e+10
-1.48176e+10
-1.46872e+10
-1.45617e+10
-1.44379e+10
-1.43218e+10
-1.42131e+10
-1.41093e+10
-1.40114e+10
-1.39213e+10
-1.38433e+10
-1.37722e+10
-1.37048e+10
-1.36412e+10
-1.35605e+10
-1.34689e+10
-1.34775e+10
-1.29664e+10
-7.71747e+09
-2.58053e+10
-2.6646e+10
-2.67768e+10
-2.64849e+10
-2.73598e+10
-2.58514e+10
-2.48838e+10
-2.46444e+10
-2.42928e+10
-2.33713e+10
-2.21232e+10
-2.08803e+10
-2.04665e+10
-2.04112e+10
-2.02692e+10
-1.98724e+10
-1.93341e+10
-1.88144e+10
-1.83754e+10
-1.79936e+10
-1.76574e+10
-1.73535e+10
-1.70735e+10
-1.68135e+10
-1.65738e+10
-1.6357e+10
-1.6159e+10
-1.59701e+10
-1.57967e+10
-1.56439e+10
-1.55089e+10
-1.53899e+10
-1.52811e+10
-1.51753e+10
-1.50453e+10
-1.49052e+10
-1.47794e+10
-1.46605e+10
-1.45399e+10
-1.44199e+10
-1.43015e+10
-1.41851e+10
-1.40711e+10
-1.39617e+10
-1.3863e+10
-1.37742e+10
-1.36845e+10
-1.35865e+10
-1.34695e+10
-1.33115e+10
-1.31493e+10
-1.31495e+10
-1.27579e+10
-7.86278e+09
-2.47971e+10
-2.4354e+10
-2.46237e+10
-2.46836e+10
-2.65048e+10
-2.41691e+10
-2.26928e+10
-2.2882e+10
-2.29172e+10
-2.23497e+10
-2.14813e+10
-2.07156e+10
-2.04156e+10
-2.03554e+10
-2.02003e+10
-1.98117e+10
-1.92865e+10
-1.87887e+10
-1.83638e+10
-1.7989e+10
-1.76554e+10
-1.73515e+10
-1.70716e+10
-1.68127e+10
-1.65745e+10
-1.63571e+10
-1.61582e+10
-1.5975e+10
-1.58074e+10
-1.56528e+10
-1.55158e+10
-1.53933e+10
-1.52683e+10
-1.51484e+10
-1.50308e+10
-1.49067e+10
-1.47879e+10
-1.46717e+10
-1.45525e+10
-1.44338e+10
-1.43204e+10
-1.42088e+10
-1.41002e+10
-1.39964e+10
-1.39021e+10
-1.38163e+10
-1.37315e+10
-1.36362e+10
-1.35193e+10
-1.33624e+10
-1.3198e+10
-1.31811e+10
-1.27566e+10
-7.82679e+09
-2.36045e+10
-2.3959e+10
-2.32211e+10
-2.29113e+10
-2.24318e+10
-2.20937e+10
-2.22016e+10
-2.25427e+10
-2.26488e+10
-2.22664e+10
-2.12101e+10
-2.03442e+10
-2.01052e+10
-2.00459e+10
-1.98453e+10
-1.94984e+10
-1.90862e+10
-1.86827e+10
-1.83161e+10
-1.79794e+10
-1.76674e+10
-1.73725e+10
-1.70904e+10
-1.68228e+10
-1.65745e+10
-1.63472e+10
-1.61371e+10
-1.59456e+10
-1.57754e+10
-1.56224e+10
-1.54854e+10
-1.53658e+10
-1.52601e+10
-1.5151e+10
-1.50248e+10
-1.48993e+10
-1.47834e+10
-1.46718e+10
-1.45623e+10
-1.44531e+10
-1.43435e+10
-1.42365e+10
-1.41359e+10
-1.40453e+10
-1.39644e+10
-1.389e+10
-1.38145e+10
-1.37253e+10
-1.36001e+10
-1.34038e+10
-1.31252e+10
-1.28643e+10
-1.2464e+10
-9.6964e+09
-2.32917e+10
-2.25311e+10
-2.23069e+10
-2.09761e+10
-2.09168e+10
-2.08946e+10
-2.15387e+10
-2.21265e+10
-2.21708e+10
-2.16129e+10
-2.07906e+10
-2.02315e+10
-2.00579e+10
-1.99867e+10
-1.97882e+10
-1.94484e+10
-1.90492e+10
-1.86599e+10
-1.83025e+10
-1.79704e+10
-1.76609e+10
-1.73676e+10
-1.70888e+10
-1.68249e+10
-1.65774e+10
-1.63488e+10
-1.61417e+10
-1.59553e+10
-1.57878e+10
-1.56354e+10
-1.54952e+10
-1.53662e+10
-1.52523e+10
-1.51413e+10
-1.50234e+10
-1.49059e+10
-1.47935e+10
-1.46829e+10
-1.45738e+10
-1.44665e+10
-1.43602e+10
-1.42562e+10
-1.41585e+10
-1.40703e+10
-1.3993e+10
-1.39218e+10
-1.385e+10
-1.37642e+10
-1.36413e+10
-1.345e+10
-1.31805e+10
-1.29156e+10
-1.25024e+10
-9.84356e+09
-2.20856e+10
-2.18999e+10
-2.11388e+10
-2.03996e+10
-1.93255e+10
-1.89291e+10
-1.98048e+10
-2.08428e+10
-2.14682e+10
-2.13923e+10
-2.04924e+10
-1.98682e+10
-1.96942e+10
-1.95931e+10
-1.94058e+10
-1.91382e+10
-1.88364e+10
-1.85312e+10
-1.82362e+10
-1.79483e+10
-1.76645e+10
-1.73793e+10
-1.70968e+10
-1.68234e+10
-1.65646e+10
-1.63269e+10
-1.61127e+10
-1.59227e+10
-1.57561e+10
-1.56015e+10
-1.54658e+10
-1.53603e+10
-1.5248e+10
-1.51296e+10
-1.50157e+10
-1.49139e+10
-1.48188e+10
-1.47217e+10
-1.46239e+10
-1.45267e+10
-1.44325e+10
-1.43456e+10
-1.42691e+10
-1.42044e+10
-1.4153e+10
-1.41134e+10
-1.40793e+10
-1.40373e+10
-1.39613e+10
-1.3813e+10
-1.35918e+10
-1.33847e+10
-1.26114e+10
-7.224e+09
-2.19275e+10
-2.10223e+10
-2.06036e+10
-1.90446e+10
-1.74264e+10
-1.74972e+10
-1.924e+10
-2.04441e+10
-2.09023e+10
-2.07896e+10
-2.02507e+10
-1.98539e+10
-1.96927e+10
-1.95742e+10
-1.93771e+10
-1.91114e+10
-1.88157e+10
-1.85168e+10
-1.82255e+10
-1.79403e+10
-1.76588e+10
-1.73767e+10
-1.7096e+10
-1.68226e+10
-1.6562e+10
-1.63226e+10
-1.611e+10
-1.59216e+10
-1.57595e+10
-1.56158e+10
-1.54769e+10
-1.53551e+10
-1.52433e+10
-1.51328e+10
-1.50247e+10
-1.49259e+10
-1.48312e+10
-1.4733e+10
-1.46341e+10
-1.45374e+10
-1.44437e+10
-1.43585e+10
-1.42842e+10
-1.42217e+10
-1.41726e+10
-1.41353e+10
-1.41035e+10
-1.40643e+10
-1.39927e+10
-1.38514e+10
-1.36385e+10
-1.34391e+10
-1.26692e+10
-7.2246e+09
-2.10525e+10
-2.04735e+10
-2.00291e+10
-1.92497e+10
-1.82452e+10
-1.736e+10
-1.80625e+10
-1.93482e+10
-2.0131e+10
-2.0033e+10
-1.95322e+10
-1.92503e+10
-1.91582e+10
-1.90802e+10
-1.89529e+10
-1.87762e+10
-1.85711e+10
-1.83524e+10
-1.81261e+10
-1.78892e+10
-1.76374e+10
-1.73672e+10
-1.70837e+10
-1.6797e+10
-1.65212e+10
-1.62702e+10
-1.60485e+10
-1.58531e+10
-1.56879e+10
-1.55427e+10
-1.54031e+10
-1.52894e+10
-1.51872e+10
-1.50841e+10
-1.49884e+10
-1.48971e+10
-1.48071e+10
-1.47178e+10
-1.46307e+10
-1.45462e+10
-1.44657e+10
-1.43936e+10
-1.43342e+10
-1.429e+10
-1.42622e+10
-1.42495e+10
-1.4245e+10
-1.42355e+10
-1.4198e+10
-1.41054e+10
-1.39803e+10
-1.39763e+10
-1.3546e+10
-8.49009e+09
-2.07022e+10
-1.99263e+10
-1.96081e+10
-1.86062e+10
-1.67957e+10
-1.62658e+10
-1.76192e+10
-1.88451e+10
-1.94495e+10
-1.95786e+10
-1.94199e+10
-1.92738e+10
-1.91776e+10
-1.90855e+10
-1.89466e+10
-1.87679e+10
-1.85633e+10
-1.83452e+10
-1.81192e+10
-1.78835e+10
-1.76333e+10
-1.73639e+10
-1.70788e+10
-1.679e+10
-1.6512e+10
-1.6259e+10
-1.60359e+10
-1.584e+10
-1.56802e+10
-1.55484e+10
-1.54093e+10
-1.52899e+10
-1.51838e+10
-1.50831e+10
-1.49933e+10
-1.49044e+10
-1.4814e+10
-1.4724e+10
-1.46357e+10
-1.45511e+10
-1.44716e+10
-1.44008e+10
-1.43424e+10
-1.42995e+10
-1.42735e+10
-1.42624e+10
-1.42593e+10
-1.42513e+10
-1.42162e+10
-1.4127e+10
-1.40041e+10
-1.40274e+10
-1.37546e+10
-9.03681e+09
-2.00925e+10
-1.97536e+10
-1.9372e+10
-1.90958e+10
-1.86546e+10
-1.74963e+10
-1.7343e+10
-1.81012e+10
-1.85723e+10
-1.85511e+10
-1.85643e+10
-1.85862e+10
-1.85927e+10
-1.85761e+10
-1.85208e+10
-1.84273e+10
-1.83043e+10
-1.8161e+10
-1.80002e+10
-1.78175e+10
-1.76043e+10
-1.73536e+10
-1.70635e+10
-1.67507e+10
-1.64469e+10
-1.61735e+10
-1.59379e+10
-1.57359e+10
-1.55671e+10
-1.54294e+10
-1.53124e+10
-1.52083e+10
-1.51102e+10
-1.50155e+10
-1.49268e+10
-1.48399e+10
-1.47527e+10
-1.46676e+10
-1.45862e+10
-1.45084e+10
-1.44356e+10
-1.43718e+10
-1.43216e+10
-1.42886e+10
-1.42742e+10
-1.42767e+10
-1.42887e+10
-1.42969e+10
-1.42785e+10
-1.42084e+10
-1.4126e+10
-1.43149e+10
-1.44068e+10
-1.04761e+10
-1.98313e+10
-1.95857e+10
-1.95128e+10
-1.92691e+10
-1.81289e+10
-1.71618e+10
-1.68635e+10
-1.74634e+10
-1.80726e+10
-1.84183e+10
-1.85702e+10
-1.86134e+10
-1.86083e+10
-1.85843e+10
-1.85219e+10
-1.84261e+10
-1.83021e+10
-1.81572e+10
-1.79947e+10
-1.78113e+10
-1.7598e+10
-1.7346e+10
-1.70539e+10
-1.67404e+10
-1.64362e+10
-1.61627e+10
-1.59267e+10
-1.57255e+10
-1.55651e+10
-1.54362e+10
-1.53123e+10
-1.52022e+10
-1.51034e+10
-1.50098e+10
-1.49259e+10
-1.4843e+10
-1.47572e+10
-1.46718e+10
-1.45894e+10
-1.4511e+10
-1.44387e+10
-1.43762e+10
-1.43275e+10
-1.42959e+10
-1.42831e+10
-1.42868e+10
-1.42999e+10
-1.43087e+10
-1.4292e+10
-1.4226e+10
-1.41474e+10
-1.43251e+10
-1.45555e+10
-1.1377e+10
-1.92213e+10
-1.9269e+10
-1.89816e+10
-1.94544e+10
-1.91798e+10
-1.79959e+10
-1.72259e+10
-1.71595e+10
-1.73797e+10
-1.76672e+10
-1.78888e+10
-1.80146e+10
-1.80852e+10
-1.81247e+10
-1.81314e+10
-1.81051e+10
-1.80492e+10
-1.79702e+10
-1.78713e+10
-1.77457e+10
-1.758e+10
-1.73561e+10
-1.70525e+10
-1.66929e+10
-1.6339e+10
-1.60341e+10
-1.57887e+10
-1.55923e+10
-1.54371e+10
-1.53192e+10
-1.52217e+10
-1.51278e+10
-1.50344e+10
-1.49449e+10
-1.48609e+10
-1.47782e+10
-1.46946e+10
-1.46127e+10
-1.45344e+10
-1.44602e+10
-1.4392e+10
-1.43336e+10
-1.42897e+10
-1.42643e+10
-1.42589e+10
-1.42709e+10
-1.42925e+10
-1.43094e+10
-1.42991e+10
-1.42436e+10
-1.42014e+10
-1.43642e+10
-1.39853e+10
-9.0334e+09
-1.91794e+10
-1.95434e+10
-1.97257e+10
-1.9775e+10
-1.90834e+10
-1.75826e+10
-1.6579e+10
-1.68749e+10
-1.73339e+10
-1.76703e+10
-1.78971e+10
-1.80278e+10
-1.80952e+10
-1.81307e+10
-1.81341e+10
-1.81066e+10
-1.80506e+10
-1.79704e+10
-1.7869e+10
-1.7741e+10
-1.75739e+10
-1.73481e+10
-1.70429e+10
-1.66832e+10
-1.63305e+10
-1.60284e+10
-1.57839e+10
-1.55897e+10
-1.54398e+10
-1.53221e+10
-1.52192e+10
-1.51217e+10
-1.50292e+10
-1.49416e+10
-1.48604e+10
-1.478e+10
-1.46973e+10
-1.4615e+10
-1.45359e+10
-1.44612e+10
-1.4393e+10
-1.43352e+10
-1.42921e+10
-1.42671e+10
-1.4261e+10
-1.42719e+10
-1.42926e+10
-1.4309e+10
-1.42999e+10
-1.42481e+10
-1.42199e+10
-1.44113e+10
-1.38952e+10
-8.39002e+09
-1.84529e+10
-1.87715e+10
-1.89188e+10
-1.92437e+10
-1.86786e+10
-1.77922e+10
-1.71491e+10
-1.69337e+10
-1.70245e+10
-1.72214e+10
-1.74122e+10
-1.75664e+10
-1.76743e+10
-1.7749e+10
-1.77982e+10
-1.78204e+10
-1.78176e+10
-1.7792e+10
-1.77485e+10
-1.76817e+10
-1.75763e+10
-1.73965e+10
-1.70828e+10
-1.66367e+10
-1.61932e+10
-1.5845e+10
-1.5605e+10
-1.54346e+10
-1.53067e+10
-1.52087e+10
-1.5127e+10
-1.50463e+10
-1.49624e+10
-1.48788e+10
-1.47973e+10
-1.47171e+10
-1.46373e+10
-1.45593e+10
-1.44846e+10
-1.44143e+10
-1.43505e+10
-1.42969e+10
-1.42583e+10
-1.42392e+10
-1.42411e+10
-1.42603e+10
-1.42869e+10
-1.43042e+10
-1.42873e+10
-1.42143e+10
-1.41289e+10
-1.41396e+10
-1.34793e+10
-8.20644e+09
-1.8605e+10
-1.92981e+10
-1.95101e+10
-1.92472e+10
-1.83086e+10
-1.72249e+10
-1.68386e+10
-1.68928e+10
-1.70587e+10
-1.72508e+10
-1.74271e+10
-1.75736e+10
-1.76788e+10
-1.7751e+10
-1.77987e+10
-1.78209e+10
-1.78197e+10
-1.77953e+10
-1.77501e+10
-1.76807e+10
-1.75723e+10
-1.739e+10
-1.70726e+10
-1.6621e+10
-1.61807e+10
-1.58356e+10
-1.55975e+10
-1.54301e+10
-1.53076e+10
-1.52088e+10
-1.51221e+10
-1.50386e+10
-1.49543e+10
-1.4871e+10
-1.47899e+10
-1.471e+10
-1.46298e+10
-1.45505e+10
-1.44742e+10
-1.44021e+10
-1.43366e+10
-1.42816e+10
-1.42419e+10
-1.42211e+10
-1.42193e+10
-1.4234e+10
-1.42563e+10
-1.42687e+10
-1.42467e+10
-1.41673e+10
-1.40705e+10
-1.40578e+10
-1.33316e+10
-7.70941e+09
-1.76348e+10
-1.79783e+10
-1.84448e+10
-1.82716e+10
-1.76028e+10
-1.71139e+10
-1.68909e+10
-1.68365e+10
-1.68862e+10
-1.70002e+10
-1.71285e+10
-1.72518e+10
-1.73563e+10
-1.74411e+10
-1.75121e+10
-1.75655e+10
-1.76029e+10
-1.76252e+10
-1.76356e+10
-1.76339e+10
-1.76067e+10
-1.75186e+10
-1.72505e+10
-1.66467e+10
-1.60025e+10
-1.55582e+10
-1.5356e+10
-1.52442e+10
-1.51657e+10
-1.50953e+10
-1.50292e+10
-1.49608e+10
-1.48872e+10
-1.48098e+10
-1.47316e+10
-1.46546e+10
-1.45791e+10
-1.45057e+10
-1.44356e+10
-1.43697e+10
-1.43098e+10
-1.42596e+10
-1.42246e+10
-1.421e+10
-1.42175e+10
-1.42415e+10
-1.42689e+10
-1.42798e+10
-1.42468e+10
-1.41427e+10
-1.39962e+10
-1.39368e+10
-1.33352e+10
-8.5492e+09
-1.77283e+10
-1.83689e+10
-1.84037e+10
-1.79476e+10
-1.72092e+10
-1.68385e+10
-1.67767e+10
-1.6807e+10
-1.68933e+10
-1.70087e+10
-1.7132e+10
-1.72504e+10
-1.73535e+10
-1.74381e+10
-1.75096e+10
-1.7565e+10
-1.76062e+10
-1.76315e+10
-1.76406e+10
-1.76345e+10
-1.7603e+10
-1.7514e+10
-1.7245e+10
-1.66315e+10
-1.59878e+10
-1.55519e+10
-1.53523e+10
-1.52437e+10
-1.51693e+10
-1.5098e+10
-1.50281e+10
-1.4958e+10
-1.48839e+10
-1.48058e+10
-1.47272e+10
-1.46507e+10
-1.45754e+10
-1.45015e+10
-1.44305e+10
-1.43636e+10
-1.43029e+10
-1.42521e+10
-1.42169e+10
-1.42012e+10
-1.42051e+10
-1.42246e+10
-1.42475e+10
-1.42535e+10
-1.42166e+10
-1.4111e+10
-1.39692e+10
-1.39196e+10
-1.32773e+10
-8.29115e+09
-1.66509e+10
-1.68799e+10
-1.73048e+10
-1.70163e+10
-1.672e+10
-1.66021e+10
-1.66099e+10
-1.66543e+10
-1.67264e+10
-1.68181e+10
-1.69172e+10
-1.70184e+10
-1.7114e+10
-1.72011e+10
-1.72865e+10
-1.73666e+10
-1.74401e+10
-1.75073e+10
-1.75673e+10
-1.76296e+10
-1.76979e+10
-1.77623e+10
-1.7714e+10
-1.70584e+10
-1.59193e+10
-1.50389e+10
-1.50111e+10
-1.50278e+10
-1.50227e+10
-1.49877e+10
-1.49408e+10
-1.48838e+10
-1.48189e+10
-1.47481e+10
-1.46753e+10
-1.46032e+10
-1.45324e+10
-1.44636e+10
-1.43974e+10
-1.43346e+10
-1.42775e+10
-1.42303e+10
-1.41995e+10
-1.41903e+10
-1.42024e+10
-1.42283e+10
-1.4253e+10
-1.42533e+10
-1.41987e+10
-1.40582e+10
-1.38624e+10
-1.37237e+10
-1.29775e+10
-7.72978e+09
-1.66021e+10
-1.70426e+10
-1.70617e+10
-1.6736e+10
-1.64987e+10
-1.64989e+10
-1.65666e+10
-1.66435e+10
-1.67283e+10
-1.68218e+10
-1.69192e+10
-1.70172e+10
-1.71105e+10
-1.71963e+10
-1.72804e+10
-1.73601e+10
-1.74362e+10
-1.75096e+10
-1.75763e+10
-1.76401e+10
-1.77068e+10
-1.7766e+10
-1.7727e+10
-1.70645e+10
-1.58947e+10
-1.50357e+10
-1.50106e+10
-1.50271e+10
-1.50255e+10
-1.49899e+10
-1.49413e+10
-1.48829e+10
-1.48168e+10
-1.47449e+10
-1.46729e+10
-1.46028e+10
-1.45335e+10
-1.44653e+10
-1.43994e+10
-1.43369e+10
-1.42801e+10
-1.42338e+10
-1.42045e+10
-1.41954e+10
-1.42053e+10
-1.4228e+10
-1.42496e+10
-1.42479e+10
-1.41931e+10
-1.40564e+10
-1.38659e+10
-1.37697e+10
-1.31995e+10
-8.52802e+09
-1.60013e+10
-1.61129e+10
-1.63201e+10
-1.62189e+10
-1.62126e+10
-1.62915e+10
-1.63894e+10
-1.6482e+10
-1.65693e+10
-1.66542e+10
-1.6737e+10
-1.68202e+10
-1.69046e+10
-1.69897e+10
-1.70806e+10
-1.71748e+10
-1.72688e+10
-1.73671e+10
-1.7466e+10
-1.75691e+10
-1.76895e+10
-1.78306e+10
-1.79299e+10
-1.80028e+10
-1.62709e+10
-1.41047e+10
-1.46489e+10
-1.4835e+10
-1.48958e+10
-1.48905e+10
-1.48579e+10
-1.48077e+10
-1.47477e+10
-1.46824e+10
-1.46151e+10
-1.45466e+10
-1.44777e+10
-1.44098e+10
-1.43435e+10
-1.42801e+10
-1.42226e+10
-1.41765e+10
-1.4147e+10
-1.41374e+10
-1.41466e+10
-1.41677e+10
-1.41834e+10
-1.41671e+10
-1.40853e+10
-1.39011e+10
-1.36326e+10
-1.33989e+10
-1.25821e+10
-7.24846e+09
-1.60551e+10
-1.61182e+10
-1.61944e+10
-1.61062e+10
-1.61383e+10
-1.62545e+10
-1.63674e+10
-1.64712e+10
-1.65657e+10
-1.66548e+10
-1.67395e+10
-1.68223e+10
-1.69048e+10
-1.69874e+10
-1.70753e+10
-1.71667e+10
-1.72605e+10
-1.73631e+10
-1.74702e+10
-1.75822e+10
-1.77083e+10
-1.78506e+10
-1.7937e+10
-1.80368e+10
-1.61923e+10
-1.41309e+10
-1.46605e+10
-1.48409e+10
-1.49015e+10
-1.48969e+10
-1.48644e+10
-1.48139e+10
-1.4754e+10
-1.46906e+10
-1.46262e+10
-1.45602e+10
-1.44933e+10
-1.44273e+10
-1.43631e+10
-1.43024e+10
-1.42483e+10
-1.42064e+10
-1.41822e+10
-1.41775e+10
-1.41904e+10
-1.42128e+10
-1.42295e+10
-1.42172e+10
-1.41424e+10
-1.39733e+10
-1.37405e+10
-1.35633e+10
-1.27999e+10
-7.67482e+09
-1.59824e+10
-1.58855e+10
-1.59028e+10
-1.59224e+10
-1.60057e+10
-1.61136e+10
-1.62224e+10
-1.63302e+10
-1.64249e+10
-1.65045e+10
-1.6574e+10
-1.66417e+10
-1.67133e+10
-1.67918e+10
-1.68804e+10
-1.69754e+10
-1.70733e+10
-1.71821e+10
-1.73005e+10
-1.74194e+10
-1.75461e+10
-1.76932e+10
-1.7929e+10
-1.81903e+10
-1.34667e+10
-1.45649e+10
-1.47597e+10
-1.48242e+10
-1.48243e+10
-1.47928e+10
-1.47438e+10
-1.46865e+10
-1.46252e+10
-1.4561e+10
-1.44944e+10
-1.44263e+10
-1.43579e+10
-1.42905e+10
-1.42264e+10
-1.41698e+10
-1.41252e+10
-1.40957e+10
-1.40831e+10
-1.40886e+10
-1.41068e+10
-1.41163e+10
-1.40881e+10
-1.39877e+10
-1.37709e+10
-1.34429e+10
-1.31331e+10
-1.22569e+10
-7.72827e+09
-1.61314e+10
-1.58519e+10
-1.58799e+10
-1.58919e+10
-1.59855e+10
-1.61015e+10
-1.62132e+10
-1.63212e+10
-1.64169e+10
-1.65012e+10
-1.65754e+10
-1.66447e+10
-1.67138e+10
-1.67861e+10
-1.68675e+10
-1.69583e+10
-1.70556e+10
-1.71675e+10
-1.72938e+10
-1.74261e+10
-1.75681e+10
-1.77272e+10
-1.79452e+10
-1.81838e+10
-1.35232e+10
-1.45769e+10
-1.47682e+10
-1.48323e+10
-1.48359e+10
-1.48084e+10
-1.47623e+10
-1.47082e+10
-1.46495e+10
-1.45875e+10
-1.45237e+10
-1.44588e+10
-1.43941e+10
-1.43314e+10
-1.42732e+10
-1.42238e+10
-1.41879e+10
-1.41681e+10
-1.41656e+10
-1.41807e+10
-1.42056e+10
-1.42218e+10
-1.42038e+10
-1.41158e+10
-1.3922e+10
-1.36431e+10
-1.33833e+10
-1.24834e+10
-7.05462e+09
-1.59741e+10
-1.57705e+10
-1.57806e+10
-1.58263e+10
-1.59086e+10
-1.60042e+10
-1.61064e+10
-1.62088e+10
-1.6303e+10
-1.63839e+10
-1.64513e+10
-1.65112e+10
-1.65696e+10
-1.66323e+10
-1.67068e+10
-1.67937e+10
-1.68855e+10
-1.69808e+10
-1.70793e+10
-1.71734e+10
-1.72711e+10
-1.73801e+10
-1.73801e+10
-1.72e+10
-1.57311e+10
-1.47875e+10
-1.47869e+10
-1.48237e+10
-1.48339e+10
-1.48142e+10
-1.47758e+10
-1.47266e+10
-1.46723e+10
-1.46153e+10
-1.45557e+10
-1.44938e+10
-1.44306e+10
-1.43674e+10
-1.43065e+10
-1.42511e+10
-1.42054e+10
-1.4172e+10
-1.41524e+10
-1.41492e+10
-1.41664e+10
-1.41985e+10
-1.42207e+10
-1.42018e+10
-1.4107e+10
-1.38937e+10
-1.35686e+10
-1.32649e+10
-1.24103e+10
-7.28051e+09
-1.59871e+10
-1.57509e+10
-1.57729e+10
-1.58193e+10
-1.5906e+10
-1.60044e+10
-1.61084e+10
-1.62097e+10
-1.63008e+10
-1.63804e+10
-1.64487e+10
-1.651e+10
-1.65695e+10
-1.66311e+10
-1.66995e+10
-1.67778e+10
-1.68623e+10
-1.6957e+10
-1.70651e+10
-1.71769e+10
-1.72935e+10
-1.74113e+10
-1.73969e+10
-1.71942e+10
-1.57598e+10
-1.48043e+10
-1.47921e+10
-1.48282e+10
-1.48378e+10
-1.48225e+10
-1.47902e+10
-1.47435e+10
-1.469e+10
-1.46337e+10
-1.45751e+10
-1.45148e+10
-1.44537e+10
-1.43933e+10
-1.43361e+10
-1.42857e+10
-1.4246e+10
-1.42193e+10
-1.42066e+10
-1.42104e+10
-1.4234e+10
-1.42704e+10
-1.42967e+10
-1.42848e+10
-1.41985e+10
-1.40017e+10
-1.37125e+10
-1.3444e+10
-1.25788e+10
-7.31515e+09
-1.57447e+10
-1.5629e+10
-1.56687e+10
-1.57271e+10
-1.58096e+10
-1.59043e+10
-1.60047e+10
-1.6102e+10
-1.61922e+10
-1.6272e+10
-1.63398e+10
-1.63985e+10
-1.64537e+10
-1.65112e+10
-1.65771e+10
-1.6653e+10
-1.6731e+10
-1.68053e+10
-1.68725e+10
-1.69245e+10
-1.69545e+10
-1.69494e+10
-1.67875e+10
-1.62441e+10
-1.5602e+10
-1.51918e+10
-1.50311e+10
-1.4945e+10
-1.48921e+10
-1.48432e+10
-1.47934e+10
-1.47412e+10
-1.46877e+10
-1.46336e+10
-1.45784e+10
-1.45219e+10
-1.44652e+10
-1.44102e+10
-1.436e+10
-1.43182e+10
-1.42878e+10
-1.42701e+10
-1.4266e+10
-1.42788e+10
-1.4314e+10
-1.43675e+10
-1.44127e+10
-1.44162e+10
-1.43454e+10
-1.41651e+10
-1.3892e+10
-1.36389e+10
-1.27777e+10
-7.26592e+09
-1.57233e+10
-1.56294e+10
-1.5667e+10
-1.57271e+10
-1.58105e+10
-1.59062e+10
-1.60088e+10
-1.61079e+10
-1.61976e+10
-1.62758e+10
-1.63426e+10
-1.64011e+10
-1.64566e+10
-1.65136e+10
-1.65749e+10
-1.66413e+10
-1.67115e+10
-1.67851e+10
-1.68607e+10
-1.69267e+10
-1.69696e+10
-1.69696e+10
-1.67956e+10
-1.62559e+10
-1.56167e+10
-1.5199e+10
-1.50363e+10
-1.49514e+10
-1.48966e+10
-1.48482e+10
-1.48017e+10
-1.47501e+10
-1.46961e+10
-1.46417e+10
-1.45864e+10
-1.45302e+10
-1.44742e+10
-1.44205e+10
-1.43725e+10
-1.43336e+10
-1.43062e+10
-1.42914e+10
-1.42904e+10
-1.43062e+10
-1.43434e+10
-1.43973e+10
-1.44428e+10
-1.44491e+10
-1.43809e+10
-1.4206e+10
-1.39506e+10
-1.37575e+10
-1.30667e+10
-8.02455e+09
-1.55395e+10
-1.54887e+10
-1.55352e+10
-1.56004e+10
-1.56897e+10
-1.57871e+10
-1.58879e+10
-1.59856e+10
-1.60753e+10
-1.61548e+10
-1.62229e+10
-1.62807e+10
-1.63335e+10
-1.63892e+10
-1.64518e+10
-1.65195e+10
-1.65854e+10
-1.66418e+10
-1.6684e+10
-1.67055e+10
-1.66937e+10
-1.6619e+10
-1.64176e+10
-1.60486e+10
-1.56509e+10
-1.53569e+10
-1.51701e+10
-1.50419e+10
-1.49506e+10
-1.48783e+10
-1.48148e+10
-1.47559e+10
-1.46997e+10
-1.46452e+10
-1.45909e+10
-1.45364e+10
-1.44831e+10
-1.44339e+10
-1.43921e+10
-1.43606e+10
-1.43413e+10
-1.43347e+10
-1.43413e+10
-1.43647e+10
-1.44115e+10
-1.44801e+10
-1.45455e+10
-1.45731e+10
-1.45293e+10
-1.439e+10
-1.41898e+10
-1.40593e+10
-1.33424e+10
-7.92737e+09
-1.55491e+10
-1.54943e+10
-1.55391e+10
-1.56022e+10
-1.56901e+10
-1.5788e+10
-1.58907e+10
-1.59907e+10
-1.60817e+10
-1.61612e+10
-1.62293e+10
-1.62878e+10
-1.63416e+10
-1.6397e+10
-1.64558e+10
-1.65161e+10
-1.65753e+10
-1.66314e+10
-1.66797e+10
-1.67104e+10
-1.6706e+10
-1.66322e+10
-1.64286e+10
-1.60565e+10
-1.56571e+10
-1.53632e+10
-1.51805e+10
-1.50543e+10
-1.49591e+10
-1.48841e+10
-1.48203e+10
-1.47608e+10
-1.4704e+10
-1.46489e+10
-1.45942e+10
-1.45396e+10
-1.44867e+10
-1.44384e+10
-1.43981e+10
-1.43682e+10
-1.435e+10
-1.4344e+10
-1.43518e+10
-1.43766e+10
-1.44239e+10
-1.44919e+10
-1.45571e+10
-1.45859e+10
-1.454e+10
-1.43985e+10
-1.42069e+10
-1.41911e+10
-1.39094e+10
-9.41012e+09
-1.54221e+10
-1.53721e+10
-1.54223e+10
-1.54871e+10
-1.55735e+10
-1.5668e+10
-1.57667e+10
-1.58633e+10
-1.59527e+10
-1.60329e+10
-1.6103e+10
-1.61622e+10
-1.62143e+10
-1.62682e+10
-1.63287e+10
-1.63896e+10
-1.6444e+10
-1.64854e+10
-1.65086e+10
-1.65088e+10
-1.64733e+10
-1.63803e+10
-1.61991e+10
-1.59336e+10
-1.56554e+10
-1.5423e+10
-1.52436e+10
-1.5103e+10
-1.49937e+10
-1.49069e+10
-1.4832e+10
-1.47653e+10
-1.47046e+10
-1.4647e+10
-1.45905e+10
-1.45351e+10
-1.44826e+10
-1.44362e+10
-1.43992e+10
-1.43738e+10
-1.43603e+10
-1.43586e+10
-1.43697e+10
-1.43977e+10
-1.44506e+10
-1.45303e+10
-1.46132e+10
-1.46611e+10
-1.46381e+10
-1.45303e+10
-1.43872e+10
-1.43691e+10
-1.38256e+10
-8.62408e+09
-1.5426e+10
-1.53789e+10
-1.5427e+10
-1.54897e+10
-1.55742e+10
-1.56684e+10
-1.57686e+10
-1.58679e+10
-1.59594e+10
-1.604e+10
-1.61097e+10
-1.61688e+10
-1.62216e+10
-1.62747e+10
-1.63307e+10
-1.63856e+10
-1.64353e+10
-1.64773e+10
-1.65064e+10
-1.65122e+10
-1.64785e+10
-1.63837e+10
-1.61968e+10
-1.59287e+10
-1.56503e+10
-1.54223e+10
-1.52516e+10
-1.5115e+10
-1.50019e+10
-1.49114e+10
-1.48345e+10
-1.47659e+10
-1.4704e+10
-1.46455e+10
-1.45886e+10
-1.45331e+10
-1.44809e+10
-1.44353e+10
-1.43993e+10
-1.43744e+10
-1.43608e+10
-1.43588e+10
-1.43699e+10
-1.43982e+10
-1.44504e+10
-1.45284e+10
-1.46112e+10
-1.46608e+10
-1.46329e+10
-1.45195e+10
-1.43795e+10
-1.45302e+10
-1.47528e+10
-1.13582e+10
-1.53225e+10
-1.52847e+10
-1.53301e+10
-1.53887e+10
-1.54688e+10
-1.55582e+10
-1.56529e+10
-1.57472e+10
-1.58359e+10
-1.5916e+10
-1.59861e+10
-1.6045e+10
-1.60954e+10
-1.61453e+10
-1.62008e+10
-1.62576e+10
-1.63072e+10
-1.63415e+10
-1.63569e+10
-1.63473e+10
-1.63014e+10
-1.62057e+10
-1.60518e+10
-1.58515e+10
-1.56389e+10
-1.54456e+10
-1.52809e+10
-1.51406e+10
-1.50234e+10
-1.49274e+10
-1.4845e+10
-1.47718e+10
-1.47059e+10
-1.46442e+10
-1.45843e+10
-1.45264e+10
-1.44729e+10
-1.44269e+10
-1.43917e+10
-1.4369e+10
-1.4358e+10
-1.43573e+10
-1.43685e+10
-1.43971e+10
-1.44532e+10
-1.454e+10
-1.46351e+10
-1.46962e+10
-1.4681e+10
-1.45843e+10
-1.44589e+10
-1.44212e+10
-1.37578e+10
-8.2678e+09
-1.53281e+10
-1.52915e+10
-1.53361e+10
-1.53933e+10
-1.54717e+10
-1.55601e+10
-1.56553e+10
-1.57514e+10
-1.58418e+10
-1.59228e+10
-1.59933e+10
-1.60531e+10
-1.61046e+10
-1.61542e+10
-1.62055e+10
-1.62563e+10
-1.63011e+10
-1.63341e+10
-1.63505e+10
-1.63427e+10
-1.62982e+10
-1.62005e+10
-1.60441e+10
-1.58406e+10
-1.56283e+10
-1.54419e+10
-1.52867e+10
-1.51515e+10
-1.50323e+10
-1.49331e+10
-1.48482e+10
-1.47727e+10
-1.47054e+10
-1.46431e+10
-1.45834e+10
-1.45264e+10
-1.44742e+10
-1.44299e+10
-1.43958e+10
-1.43732e+10
-1.4362e+10
-1.43618e+10
-1.43736e+10
-1.44027e+10
-1.44581e+10
-1.45448e+10
-1.464e+10
-1.47042e+10
-1.46906e+10