/*--------------------------------*- C++ -*----------------------------------*\
| =========                 |                                                 |
| \\      /  F ield         | OpenFOAM: The Open Source CFD Toolbox           |
|  \\    /   O peration     | Version:  4.1                                   |
|   \\  /    A nd           | Web:      www.OpenFOAM.org                      |
|    \\/     M anipulation  |                                                 |
\*---------------------------------------------------------------------------*/
FoamFile
{
    version     2.0;
    format      ascii;
    class       volVectorField;
    location    "14";
    object      U;
}
// * * * * * * * * * * * * * * * * * * * * * * * * * * * * * * * * * * * * * //

dimensions      [0 1 -1 0 0 0 0];

internalField   nonuniform List<vector> 
4432
(
(-155516 576.547 11014.1)
(-97157.9 16792.9 21246.1)
(-113343 25626.3 67509.6)
(-187752 59570.2 52221.2)
(-288392 15317.9 -21666.6)
(-261405 7985.75 7702.13)
(-244266 3146.47 64620.6)
(-225743 3136.3 41142.3)
(-195590 1276.14 15758.8)
(-183677 -3303.69 -1023.99)
(-179300 -5757.89 -9940.49)
(-151140 -5504.66 -7852.89)
(-131742 -2518.32 -3733.39)
(-132089 1011.05 -1639.59)
(-134790 1439.97 -2582.92)
(-132775 133.186 -7811.46)
(-122148 -1225.1 -5641.21)
(-119927 -1447.44 2461.36)
(-122120 -1769.35 725.654)
(-118571 -1865.99 -2271.26)
(-117680 -1364.26 -1318.82)
(-116134 -1491.48 -1338.41)
(-114958 -1774.83 -1399.11)
(-113472 -1863.23 -1414.67)
(-111956 -1961.26 -1418.72)
(-110458 -2068.61 -1415.49)
(-108891 -2177.68 -1405.72)
(-107251 -2290.75 -1388.92)
(-105525 -2404.1 -1370.96)
(-103712 -2521.14 -1360.89)
(-101807 -2644.79 -1345.99)
(-99789.3 -2767.55 -1363.63)
(-97635.2 -2929.85 -1476.42)
(-95239 -3150.99 -1554.65)
(-92686.7 -3294.64 -1454.54)
(-90234.4 -3329.89 -1322.48)
(-87755.5 -3438.16 -1304.31)
(-85059.6 -3640.15 -1324.86)
(-82297.3 -3797.53 -1301.66)
(-79569.4 -3897.02 -1225.24)
(-76873.1 -3970.89 -1114.37)
(-74190 -4015.05 -929.657)
(-71506.8 -4071.24 -593.832)
(-68799.1 -4102.65 -521.277)
(-66022.1 -4139.6 -1163.09)
(-62673.6 -4332.56 -1402.4)
(-58902.4 -4175.7 -283.217)
(-56814.7 -3612.12 1612.9)
(-57772.8 -3568.12 3132.87)
(-59111.6 -2395.38 3603.77)
(-62409.8 417.792 3290.86)
(-65767.5 -959.185 6783.47)
(-92930.8 -11157.8 3441.14)
(43266.8 587.902 -19005.4)
(-151109 54503.2 158616)
(-131684 71738.1 182375)
(-179140 84815.4 253352)
(-110531 93723.7 178124)
(-170115 27217.6 -34006.7)
(-232349 3219.38 -42640.6)
(-224854 -6762.31 -45866.5)
(-202728 6343.87 -41836)
(-169280 14322.2 -13520.9)
(-167536 51.8414 -2772.39)
(-174376 -5325.15 -2532.63)
(-165101 -5465.95 -3514.82)
(-153112 -1947.65 -3265.33)
(-147503 2063.77 -1592.97)
(-145321 2783.77 -9623.63)
(-133166 1999.57 -14495.7)
(-122664 1981.71 19.113)
(-125965 1989.14 5103.15)
(-126734 1195.21 -2430.51)
(-125905 1435.08 -2904.15)
(-124730 2151.53 -2095.95)
(-122935 2191.48 -2100.29)
(-122318 2143.77 -2330.11)
(-121239 2280.58 -2389.56)
(-120216 2407.34 -2487.17)
(-119237 2534.38 -2577.1)
(-118243 2668.77 -2668.01)
(-117244 2808.46 -2763.3)
(-116231 2956.9 -2863.65)
(-115195 3111.21 -2973.26)
(-114150 3268.94 -3096)
(-113098 3437.95 -3248.49)
(-112047 3577.95 -3450.97)
(-111059 3672.22 -3653.02)
(-110125 3855.68 -3760.31)
(-109129 4154.5 -3800.81)
(-108079 4383.98 -3933.01)
(-107169 4523.28 -4200.15)
(-106452 4704.02 -4466.54)
(-105870 4929.09 -4669.58)
(-105408 5152.32 -4907.93)
(-104933 5364.76 -5199.16)
(-104420 5559.21 -5458.59)
(-103956 5825.49 -5892.34)
(-103413 6201.34 -6880.36)
(-102163 6433.14 -7774.69)
(-100431 7092.72 -8361.08)
(-97103 8806.71 -9870.51)
(-89950.9 9918.92 -11378.6)
(-80225.7 9117.74 -11592.1)
(-69361.5 5971.91 -10882.6)
(-64422.9 -1707.61 -3919.04)
(-130321 -14561.2 -7591.23)
(-15140.4 -3050.27 -8358.83)
(-128910 -33247.9 -112599)
(-127781 -20868.4 -91826.1)
(-160514 -33582.6 -55223.1)
(-244075 -18385.8 -106749)
(-318199 -10926.4 -65917.3)
(-341671 -26612.5 -43790.8)
(-300217 -20379.9 -53465.3)
(-246951 -13260.9 -96425.9)
(-218961 -13211.3 -67026.9)
(-196846 -3164.52 -1102.25)
(-196402 1462.11 -11083.9)
(-179426 -1216.68 -22952.6)
(-173807 -712.41 -4049.12)
(-169748 -650.497 5578.66)
(-164158 -391.667 -1193.06)
(-161318 420.738 -6980.2)
(-164057 -20.229 -2905.55)
(-161451 -547.677 109.361)
(-158508 -1149.83 -837.85)
(-156427 -1344.28 -493.652)
(-155188 -875.144 -135.227)
(-154644 -837.154 -116.015)
(-153930 -955.433 -134.162)
(-153244 -1005.38 -144.064)
(-152565 -1044.64 -158.975)
(-151935 -1082.32 -157.758)
(-151329 -1117.05 -153.557)
(-150766 -1151.26 -147.15)
(-150269 -1177.07 -133.277)
(-149844 -1193.43 -107.565)
(-149536 -1215.51 -73.1125)
(-149402 -1222.12 -83.5393)
(-149349 -1213.07 5.27303)
(-149300 -1265.86 391.715)
(-149467 -1318.88 709.293)
(-150157 -1241.27 714.391)
(-151244 -1155.5 899)
(-152563 -1187.43 1431.26)
(-154221 -1218.66 1976.84)
(-156215 -1186.63 2435.21)
(-158478 -1146.69 2779.31)
(-161090 -1106.73 3139.98)
(-164209 -1034.07 3590.41)
(-167486 -832.485 3984.58)
(-171755 -455.491 4321.37)
(-178190 -68.7707 4759.72)
(-184878 404.715 5006.51)
(-191015 1460.71 5171.39)
(-197790 2917.88 5168.29)
(-204625 4155.8 4304.12)
(-208733 4537.64 1444.38)
(-222963 -70.8814 -2936.34)
(-175755 -4194.55 -26302.8)
(-114822 1415.79 -27190.5)
(-118518 58151.4 95516.9)
(-69054.4 68082.7 106371)
(-75795 71974.2 -7923.59)
(-82740.1 155024 319319)
(-81187.5 104174 174415)
(-124028 74343.3 118065)
(-230239 39366.7 18476.3)
(-266087 18835.7 -45069.9)
(-234493 18253 -16660.7)
(-225020 10167.6 -2043.42)
(-211304 -3005.92 -21012.9)
(-190312 -5653.61 -32951.9)
(-182497 -1053.64 -15505.6)
(-176413 144.441 1768.32)
(-172629 1141.13 -2931.49)
(-173164 2487.62 -5017.83)
(-173312 1806.94 10.1934)
(-167819 1714.85 619.234)
(-165877 1671.57 -122.47)
(-166716 1420.32 -78.1509)
(-166257 1906.54 470.644)
(-166029 2064.23 650.286)
(-166019 2095.65 702.553)
(-166035 2195.51 788.511)
(-166063 2310.85 841.663)
(-166138 2435.6 902.513)
(-166192 2570.31 960.278)
(-166226 2712.43 1010.01)
(-166231 2870.37 1047.87)
(-166194 3045.53 1068.56)
(-166132 3224.38 1095.43)
(-166047 3432.36 1147.69)
(-165874 3670.5 1195.97)
(-165622 3857.12 1216.39)
(-165318 4047.2 1205.49)
(-164843 4376.92 1189.92)
(-164295 4744.29 1277.45)
(-163919 5023.09 1525.98)
(-163535 5317.89 1822.06)
(-162923 5691.58 2001.25)
(-162122 6084.68 2013.82)
(-161189 6488.05 2009.05)
(-160149 6931.54 2117.68)
(-158845 7500.71 2192.19)
(-157374 8199.34 1950.01)
(-156183 8890.56 1299.84)
(-154543 9733.61 101.51)
(-152381 10922.4 -1965.79)
(-150255 11764.9 -4989.05)
(-147374 10997.9 -9405.99)
(-144059 8287.76 -16990.6)
(-149474 1106.68 -19001.6)
(-153330 -3006.55 -21102.8)
(-72876.1 1477.34 -14107.2)
(-138788 -26965.2 -97941.7)
(-143094 -12350.7 -80265.6)
(-175057 -11811.4 -39343.2)
(-211415 -3073.39 18395.9)
(-216679 -8913.95 -22531.6)
(-238293 -36234 -42558)
(-224923 -34352.3 -56506.9)
(-215274 -18176.8 -67333.9)
(-210167 -8898.18 -32626.6)
(-200041 -605.978 -25558.6)
(-175018 -1495.49 -40256.7)
(-165352 -394.085 -25563.3)
(-167837 -653.605 -12442.4)
(-156443 -3111.42 -9118.27)
(-151038 -842.108 -9983.37)
(-158909 1167.19 -8628.73)
(-160425 -103.356 -4339.16)
(-155849 -756.003 -3982.46)
(-154278 -736.875 -4800.18)
(-152734 -769.75 -3827.38)
(-151115 -619.752 -3163.61)
(-150066 -637.626 -3031.6)
(-148829 -707.794 -3190.8)
(-147575 -748.557 -3295.32)
(-146295 -785.856 -3411.61)
(-145036 -817.714 -3506.41)
(-143799 -835.641 -3555.57)
(-142576 -841.282 -3533.44)
(-141345 -839.205 -3485.95)
(-140127 -838.148 -3441.77)
(-138948 -806.385 -3259.31)
(-137784 -668.487 -3134.45)
(-136601 -609.324 -3393.26)
(-135257 -791.638 -3409.68)
(-134075 -796.958 -2658.34)
(-133600 -442.085 -1837.76)
(-133244 -176.832 -1659.09)
(-132561 -80.0488 -1321.93)
(-131760 83.1348 -685.436)
(-130753 269.799 -78.2713)
(-129633 428.59 613.288)
(-128491 609.239 1517.75)
(-127277 899.251 2426.02)
(-126206 1316.63 3271.49)
(-125475 1736.37 4461.83)
(-125479 2143.57 5603.04)
(-125686 2758.59 5712.22)
(-126362 3492.58 5398.74)
(-127825 3847.91 5212.71)
(-127931 3987.64 3217.12)
(-130421 3630.74 -4140.11)
(-144375 1452.92 -21190.5)
(-172675 2860.13 -37631.4)
(-81088.5 3369.75 -15238.8)
(-35929.4 12566.8 281.665)
(-1348.12 51604.9 165632)
(-52299.9 80661.5 156093)
(-67162.9 106942 369403)
(-2545.24 64528.5 174942)
(3071.21 62088.4 157557)
(-116734 58137.9 133560)
(-214169 32905.5 23602.4)
(-207282 24435.8 -15705.7)
(-201769 8933.19 -10859.6)
(-183153 -4827.38 -41125.1)
(-174336 -1442.63 -38904.5)
(-173716 762.923 -20644.8)
(-169888 -1180.41 -12022.8)
(-169521 875.287 -8881.1)
(-172049 1927.46 -4238.07)
(-172324 742.092 -1461.8)
(-169850 966.193 -1529.88)
(-168944 1303.17 -1176.41)
(-169150 1155.11 -618.829)
(-168664 1301.78 192.056)
(-168431 1392.93 521.109)
(-168142 1438.71 585.188)
(-167772 1504.25 700.359)
(-167317 1572.88 774.798)
(-166797 1646.87 855.524)
(-166184 1732.78 944.436)
(-165483 1826.59 1043.91)
(-164705 1922.27 1167.57)
(-163821 2011.45 1326.85)
(-162788 2115.39 1507.95)
(-161575 2308.57 1645.67)
(-160192 2446.03 1699.05)
(-158819 2322 1689.35)
(-157624 2274.07 1770.48)
(-156632 2566.24 2261.42)
(-155571 2882.35 2972.09)
(-153881 3033.08 3277.66)
(-151337 3179.39 3260.71)
(-148195 3318.21 3457.24)
(-144737 3427.58 3751.42)
(-140949 3544.39 4010.68)
(-136677 3744.11 4326.2)
(-131780 4046.39 4541.47)
(-126251 4300.19 4606.05)
(-120481 4448.89 4485.28)
(-114504 4745.53 3973.68)
(-107984 5038.57 3018.81)
(-101694 4502.47 1622.79)
(-95892 3423.22 -851.171)
(-91210.9 2376.75 -8541.68)
(-102692 244.575 -18538.5)
(-120917 1968.78 -24309.9)
(-36219.9 2163.03 -11473.5)
(-157884 -21111.4 -117829)
(-174945 -16432.8 -114339)
(-192816 -13387.5 -103697)
(-199007 -23677.9 -67712.1)
(-198724 -32506.1 -65974.1)
(-190821 -51192.6 -49810.2)
(-188374 -45007.9 -56818.9)
(-186170 -23898.3 -89650.4)
(-182226 -10706.7 -76633.2)
(-158853 -4512.37 -56027.7)
(-145526 -1858.99 -40254.9)
(-153900 1550.18 -23845.8)
(-154706 201.102 -18046.7)
(-151604 -1058.66 -12668.4)
(-149257 -1046.55 -6626.65)
(-148271 -757.536 -5187.71)
(-147172 -796.776 -6772.89)
(-144393 -1027.12 -7426.16)
(-142667 -1223 -6308.06)
(-141348 -1218.13 -4942.82)
(-139950 -1202.9 -4277.68)
(-138705 -1263.7 -4064.85)
(-137306 -1333.46 -4164.42)
(-135852 -1382.77 -4295.28)
(-134341 -1420.04 -4439.37)
(-132815 -1444.67 -4534.79)
(-131263 -1467.76 -4644.83)
(-129675 -1509.6 -4813.73)
(-128037 -1528 -4953.62)
(-126486 -1518.6 -4980.01)
(-125051 -1581.61 -4995.95)
(-123185 -1410.35 -5279.71)
(-122177 -797.43 -5444.02)
(-124333 -874.161 -4567.06)
(-125727 -1791.66 -3654.26)
(-123397 -1830.53 -4021.28)
(-121977 -763.08 -4582.83)
(-122617 -548.349 -4517.98)
(-122715 -907.945 -4357.39)
(-122506 -817.447 -4250.95)
(-122684 -636.152 -4020.09)
(-123109 -599.234 -3646.48)
(-123382 -512.235 -3059.33)
(-123447 -309.873 -2144.37)
(-123786 -218.425 -992.765)
(-123896 -258.315 -58.5619)
(-123555 -156.629 446.383)
(-123714 -54.0763 609.531)
(-124177 -270.809 358.237)
(-123233 -453.78 -1150.96)
(-125018 -168.502 -6738.91)
(-140979 520.407 -16992.7)
(-185916 4311.53 -33328.3)
(-108814 2392.43 -11830.5)
(-60735.6 9580.4 10090.7)
(-34824.4 27413.2 118000)
(-39580.3 35702.2 206106)
(-35563.7 37852.6 264761)
(30632 30292.5 157453)
(-3995.63 39694.3 161647)
(-84390.1 40431 172756)
(-149284 20352.5 55897.2)
(-163602 17906.8 -10283.2)
(-169895 -2256.7 -28866.6)
(-162271 -4435.47 -48505.1)
(-161407 2090.27 -36482.9)
(-160703 1445.99 -21722.6)
(-159051 -946.42 -13031.9)
(-159816 -519.217 -6107.69)
(-159368 252.125 -2147.13)
(-158021 489.116 -2371.11)
(-156212 558.099 -3048.57)
(-155200 420.511 -1919.32)
(-154594 392.647 -764.399)
(-153766 428.263 17.9742)
(-152909 429.515 315.59)
(-151855 407.917 347.226)
(-150668 389.062 344.888)
(-149355 371.491 285.293)
(-147969 357.926 219.487)
(-146539 332.321 162.388)
(-145094 265.62 125.64)
(-143592 206.352 74.9998)
(-141922 196.571 -86.831)
(-140312 81.8682 -273.323)
(-139341 34.613 -229.079)
(-138597 428.652 -163.39)
(-137296 521.378 -349.3)
(-136989 -175.944 -171.095)
(-138057 -366.247 387.377)
(-137188 535.115 235.285)
(-134511 816.428 -519.436)
(-132799 386.709 -1014.54)
(-131467 314.714 -1276.24)
(-129767 394.572 -1576.65)
(-128333 325.553 -1950.43)
(-126942 292.531 -2274.32)
(-125000 365.629 -2335.27)
(-123024 324.084 -2134.48)
(-121770 145.067 -2088.01)
(-120615 88.005 -2452.52)
(-119267 51.4391 -2527.45)
(-118371 -263.718 -2543.15)
(-117200 -497.122 -3707.85)
(-116472 -64.3838 -8712.87)
(-127306 524.538 -14979.9)
(-141166 3482.06 -26406.6)
(-62281.8 1861.47 -11153)
(-157669 -23050.2 -92681.4)
(-168807 -24875.6 -73133.7)
(-186454 -26138 -56511.5)
(-192664 -34287.8 -49289)
(-182132 -48713.8 -40618.5)
(-161293 -54319 -19351.2)
(-157274 -45735.7 -26177.6)
(-144871 -30224.6 -61018)
(-141955 -18149.9 -73853.9)
(-137435 -11487.1 -62936.8)
(-142602 -857.737 -34266.2)
(-144361 1238.4 -23353.4)
(-143057 -1526.95 -19111.5)
(-145114 -1033.2 -12777.6)
(-142859 -1078.16 -9811.73)
(-140882 -1073.96 -8209.13)
(-139811 -1237.06 -8058.42)
(-138786 -1449.51 -8834.19)
(-138503 -1596.93 -7549.25)
(-138028 -1594.6 -5855.8)
(-137165 -1582.77 -5159.17)
(-136186 -1579.92 -5045.66)
(-134994 -1558.02 -5178.44)
(-133636 -1517.42 -5381.49)
(-132117 -1473.59 -5655.35)
(-130453 -1424.5 -5964.06)
(-128780 -1323.69 -6241.21)
(-127356 -1202.67 -6410.4)
(-126066 -1181.88 -6473.75)
(-124603 -1193.29 -6563.85)
(-123183 -990.589 -6833.96)
(-122464 -596.554 -6711.17)
(-123323 -419.773 -5087.37)
(-125081 -783.72 -3125.53)
(-125144 -1309.63 -3462.73)
(-123850 -1277.47 -4938.03)
(-123752 -799.9 -4644.59)
(-124497 -643.826 -3928.84)
(-124906 -752.592 -3815.25)
(-125294 -748.958 -3487.47)
(-125911 -675.991 -2871.22)
(-126667 -642.396 -2312.9)
(-127368 -684.95 -1898.19)
(-127777 -661.807 -1265.17)
(-128015 -546.935 -299.324)
(-128353 -536.975 293.033)
(-128919 -617.377 335.746)
(-129882 -756.802 313.888)
(-131343 -1012.52 -39.2906)
(-133019 -1226.84 -1601.6)
(-137764 -1085.92 -6844.57)
(-157373 47.4239 -15946.5)
(-216850 4127.48 -28320.8)
(-132594 1868.04 -5846.2)
(-81056 10094.6 6976.05)
(-57619.7 16137.6 103477)
(-31404.9 25384.8 162465)
(-9065.14 32244.5 202250)
(6470.34 39493.4 194240)
(-43886.8 37526.6 185369)
(-102355 23836.2 174326)
(-123113 14195.1 89834.8)
(-137370 8437.65 21359.8)
(-149251 -4566.64 -26610)
(-141473 -155.627 -50624.6)
(-138573 374.551 -38966.9)
(-143813 -550.863 -22782.8)
(-146653 -1007.51 -14346.6)
(-146864 -177.595 -8341.49)
(-144435 300.109 -5078.71)
(-142755 223.215 -4876.45)
(-141206 151.505 -5543.68)
(-140474 16.4074 -4479.08)
(-139785 -31.208 -3080.2)
(-138722 -47.1449 -2423.08)
(-137485 -78.6412 -2335.53)
(-136032 -112.893 -2474.96)
(-134436 -144.252 -2673.55)
(-132759 -187.34 -2911.81)
(-131091 -253.638 -3103.73)
(-129440 -294.096 -3241.92)
(-127726 -310.871 -3447.95)
(-126017 -419.468 -3736.38)
(-124761 -585.284 -3779.29)
(-124427 -577.341 -3211.86)
(-124618 -348.563 -2278.27)
(-124345 -130.201 -1700.14)
(-123754 -248.367 -1589.71)
(-123666 -627.261 -1546.13)
(-123739 -651.22 -1791.09)
(-123143 -257.781 -2422.19)
(-122503 -103.546 -2740.58)
(-122238 -209.426 -2705.37)
(-122019 -222.464 -2710.07)
(-121909 -157.234 -2539.21)
(-121820 -117.714 -2389.78)
(-121794 -153.923 -2527.42)
(-121906 -163.831 -2495.25)
(-121661 -96.6407 -1926.73)
(-121129 -98.8862 -1442.34)
(-121018 -194.87 -1696.42)
(-121371 -343.017 -2047.99)
(-121846 -557.197 -2531.45)
(-122302 -648.288 -3794.61)
(-123968 -321.43 -8157.18)
(-138674 707.867 -16276.2)
(-165764 3670.4 -26527.5)
(-81441.4 1538.78 -7526.07)
(-155996 -18087.3 -78082.8)
(-158566 -20991.5 -48494.8)
(-166212 -22586.3 -32257.7)
(-176345 -29374.1 -31320.4)
(-173219 -43911.5 -18824.6)
(-155544 -49941.2 -5001.35)
(-141585 -38661 -17266.2)
(-128611 -23720 -49532.8)
(-124273 -13105.3 -63883)
(-134045 -8338.1 -47218.3)
(-134653 -3170.5 -31586)
(-130408 -2945.18 -26376.7)
(-136284 -1321.72 -16966.5)
(-137792 -824.594 -12650.3)
(-137033 -1042.08 -10901)
(-136645 -1178.05 -8827.37)
(-136787 -1354.38 -7997.83)
(-137080 -1566.48 -7901.27)
(-137746 -1650.71 -6432.97)
(-137637 -1592.41 -5100.24)
(-136874 -1526.84 -4722.45)
(-135813 -1456.26 -4797.7)
(-134364 -1377.78 -5080.53)
(-132586 -1260.63 -5510.28)
(-130725 -1088 -5980.68)
(-129107 -936.284 -6244.31)
(-127712 -884.615 -6224.73)
(-126376 -850.181 -6140.73)
(-125304 -706.058 -6121.68)
(-124765 -432.899 -5998.71)
(-124938 -60.9113 -5520.92)
(-126073 186.677 -4342.64)
(-127576 -50.5048 -2680.27)
(-127525 -551.598 -2049.05)
(-126114 -660.759 -2989.82)
(-125860 -354.535 -3582.25)
(-126630 -130.715 -2975.9)
(-127135 -115.949 -2530.76)
(-127617 -158.315 -2504.69)
(-128148 -159.746 -2174.36)
(-128541 -78.5552 -1556)
(-128963 -24.3457 -984.315)
(-129388 -44.9874 -570.479)
(-129784 3.747 -121.758)
(-130207 89.3779 630.262)
(-130715 65.0024 1453.08)
(-131636 -3.42648 1952.14)
(-133406 -68.4574 2168.26)
(-136294 -218.457 2367.92)
(-140601 -421.103 2628.71)
(-148586 -447.465 509.789)
(-169255 365.65 90.3313)
(-223488 2274.38 -9614.53)
(-129258 -174.358 9925.94)
(-108405 8845.36 -12991.4)
(-90356.2 15994.4 73320.4)
(-68149.9 27857.1 129474)
(-45543.1 35531.5 177815)
(-41970.5 36170.5 187850)
(-85020.5 27007.7 180982)
(-131662 13993.6 154008)
(-131556 7389.67 81743.8)
(-126829 -1837.67 9860.89)
(-120859 -7728.2 -46758.2)
(-113294 -1870 -56204.5)
(-125972 -838.07 -32999.3)
(-134837 -430.39 -18975.9)
(-137255 -135.684 -13743.2)
(-137176 270.165 -10406.5)
(-135700 424.718 -7972.43)
(-134730 309.689 -7536.5)
(-134161 137.349 -7665.18)
(-134347 15.7832 -6478.89)
(-134108 -4.67598 -5262.27)
(-133306 -18.4788 -4868.18)
(-132284 -46.0808 -4895)
(-131062 -85.3482 -5060.07)
(-129703 -111.16 -5240.42)
(-128223 -117.865 -5392.19)
(-126634 -149.934 -5496.76)
(-125043 -255.655 -5569.07)
(-123687 -387.978 -5543.44)
(-122804 -437.858 -5148.41)
(-122704 -324.02 -3998.42)
(-123292 -82.534 -2307.75)
(-123412 77.3102 -1222.86)
(-122639 -33.6562 -1317.82)
(-122092 -296.528 -1638.2)
(-122158 -378.585 -1649.23)
(-122180 -174.833 -1632.45)
(-122244 40.27 -1561.96)
(-122515 78.8303 -1467.25)
(-122771 34.0889 -1443.58)
(-123105 31.1304 -1242.81)
(-123349 106.694 -800.31)
(-123303 158.934 -356.7)
(-123348 130.083 2.54193)
(-123578 159.133 270.3)
(-123594 230.569 580.066)
(-123407 204.988 1041.55)
(-123587 138.706 1388.78)
(-124538 98.1023 1501.93)
(-126356 -17.0244 1520.54)
(-129566 -182.193 1793.76)
(-135753 -173.136 407.995)
(-153594 553.635 1137.14)
(-189080 1959.39 -8487.88)
(-100022 -32.0382 6888.35)
(-157568 -11831.9 -75492.3)
(-154107 -15971.3 -36325.4)
(-149144 -18390.3 -9070.48)
(-151160 -21400.5 -4475.7)
(-146730 -29804.8 3594.36)
(-134489 -35414.3 8009.47)
(-119290 -27234.1 -9824.9)
(-107680 -18048.5 -40345.1)
(-101945 -11852.5 -56335.3)
(-114319 -7458.89 -45588.6)
(-120472 -3540.05 -28094.7)
(-125583 -2543.26 -18274.9)
(-130711 -1138.07 -14698.3)
(-132062 -656.603 -12979.4)
(-132878 -798.345 -10897.6)
(-134224 -887.319 -8467.84)
(-135085 -1000.95 -7508.7)
(-135723 -1122.19 -7108.78)
(-136123 -1119.1 -6163.46)
(-135611 -1025.14 -5594.11)
(-134414 -933.652 -5792.67)
(-132824 -838.01 -6339.8)
(-130897 -706.64 -7026.11)
(-129013 -508.662 -7600.1)
(-127468 -366.396 -7850.95)
(-126196 -379.608 -7823.78)
(-124944 -412.961 -7751.17)
(-123805 -302.337 -7599.11)
(-123064 -74.7641 -7157.76)
(-122820 133.11 -6588.14)
(-123116 167.796 -5981.02)
(-123764 -24.4375 -5017.05)
(-123758 -290.043 -4144.5)
(-122564 -405.421 -4262.36)
(-121479 -339.749 -4920.52)
(-121356 -221.672 -5118.68)
(-121371 -139.595 -4883.42)
(-121203 -104.224 -4716.83)
(-121268 -122.942 -4694.7)
(-121445 -145.975 -4722.99)
(-121481 -110.269 -4708.7)
(-121417 -37.7515 -4609.9)
(-121442 14.513 -4502.95)
(-121710 51.4933 -4390.46)
(-122178 106.79 -4181.26)
(-122888 164.213 -3968.01)
(-124340 199.447 -3825.3)
(-127276 205.372 -3512.14)
(-132426 200.252 -2685.4)
(-141806 277.468 -840.714)
(-154996 652.591 3331.76)
(-200335 1880.06 11875.5)
(-258659 3567.64 32048.2)
(-338629 4865.8 42174.8)
(-134271 6070.59 -21931.9)
(-126074 8134.74 57174.2)
(-116422 15295.1 105773)
(-90365.2 22450 158076)
(-74084.8 24535.3 196920)
(-97717.5 18395.2 184751)
(-109728 10707.3 146314)
(-83151.1 4246.9 74783.9)
(-65103.6 -5683.33 -3850.06)
(-56968.6 -5044.98 -61708.8)
(-95362.3 -1807.86 -42419.5)
(-119753 -1165.8 -23149.4)
(-128020 -14.281 -16332.8)
(-130004 529.594 -13976.9)
(-130935 639.226 -11482.6)
(-131260 644.816 -9440.39)
(-131309 560.096 -8939.63)
(-131670 419.332 -8709.95)
(-132266 346.714 -7717.27)
(-132220 348.743 -6948.38)
(-131623 337.28 -6831.66)
(-130759 305.259 -6983.31)
(-129677 275.846 -7195.99)
(-128351 289.646 -7398.63)
(-126764 274.781 -7595.27)
(-125143 148.057 -7724.35)
(-123862 -24.7144 -7644.54)
(-123001 -103.131 -7196.59)
(-122486 -10.1996 -6106.29)
(-122327 187.085 -4339.95)
(-121950 234.73 -2964.22)
(-120827 8.84979 -2974.2)
(-119811 -219.54 -3541.29)
(-119480 -207.913 -3674.84)
(-119223 -91.2134 -3616.2)
(-118837 -18.6689 -3634.15)
(-118470 31.6255 -3639.26)
(-118057 65.3113 -3632.31)
(-117776 53.9431 -3652.26)
(-117667 31.8002 -3730.34)
(-117423 58.4793 -3845.52)
(-116876 122.335 -3913.77)
(-116126 168.776 -3886.57)
(-115436 203.18 -3863.81)
(-114898 257.552 -3842.99)
(-114469 312.292 -3772.97)
(-114517 347.677 -3685.65)
(-115649 362.272 -3454.17)
(-118553 354.963 -2711.44)
(-125087 399.226 -945.677)
(-133293 718.575 3075.99)
(-168024 1903.7 11134.2)
(-211258 3420.02 32046.3)
(-276705 4582.69 43338.3)
(-156446 -9664.6 -76900.4)
(-155868 -13712.2 -38405)
(-143194 -17963.3 -5933.54)
(-137687 -22445.1 1054.26)
(-121576 -27323.3 10884.3)
(-100833 -29535.3 17634.8)
(-88662 -23720.3 -1396.1)
(-84117 -17893.1 -29380.4)
(-90860.7 -11919.5 -39560.2)
(-105400 -4047.18 -29293)
(-115401 -1737.38 -18203.4)
(-121568 -1372.41 -14278.8)
(-125936 -799.612 -12750.8)
(-128746 -571.13 -11708.2)
(-130902 -636.482 -9657.05)
(-132505 -697.069 -7810.47)
(-133082 -800.146 -7314.73)
(-133201 -887.874 -7160.09)
(-132889 -872.615 -6847.46)
(-131938 -815.605 -6874.94)
(-130648 -734.226 -7350.36)
(-129353 -608.826 -7906.59)
(-128335 -441.146 -8283.36)
(-127612 -323.465 -8356.06)
(-126874 -337.694 -8232.17)
(-125829 -377.157 -8060.68)
(-124622 -279.392 -7819.63)
(-123561 -147.666 -7472.35)
(-122617 -128.896 -7073.43)
(-122043 -65.4927 -6438.83)
(-122450 31.3771 -5260.91)
(-122911 -161.257 -4117.61)
(-122013 -509.763 -3864.76)
(-120528 -559.212 -4199)
(-119764 -426.799 -4298.29)
(-119664 -390.171 -4047.38)
(-119690 -381.669 -3781.46)
(-119561 -370.763 -3640.52)
(-119263 -396.229 -3514.25)
(-118916 -419.707 -3371.46)
(-118596 -429.182 -3245.51)
(-118257 -438.821 -3084.67)
(-117808 -449.341 -2846.38)
(-117207 -466.598 -2576.39)
(-116469 -486.083 -2324.05)
(-115657 -511.644 -2063.29)
(-114939 -552.338 -1710.8)
(-114477 -595.588 -986.923)
(-114187 -648.786 549.677)
(-114083 -688.532 3367.99)
(-114686 -639.28 10454.7)
(-124542 -114.578 23217.7)
(-149677 1982.3 52867.5)
(-71020.6 463.349 7038.27)
(-142589 1227.89 -29744.4)
(-142496 394.378 38735.7)
(-131532 2283.21 84187.3)
(-116991 5719.64 121271)
(-85818.5 7524.85 165865)
(-76100 5555.87 158740)
(-66381.9 -111.728 104404)
(-40604.1 -6523.72 44905.3)
(-47623.9 -12111.3 -10701.9)
(-84595.1 -5244.25 -34151.8)
(-107001 -495.741 -21139.6)
(-117794 -87.8658 -15556.3)
(-123211 396.776 -14123.3)
(-125583 660.43 -12885.9)
(-127746 650.414 -10882.9)
(-129007 623.982 -9532.59)
(-129767 531.386 -9148.36)
(-130598 405.315 -8856.88)
(-131295 341.804 -8228.08)
(-131420 302.659 -7876.06)
(-131115 266.213 -7949.91)
(-130578 239.621 -8163.27)
(-129802 239.336 -8397.29)
(-128747 222.855 -8647.7)
(-127519 120.121 -8843.51)
(-126480 -50.3279 -8768.08)
(-125795 -164.316 -8338.47)
(-125178 -164.731 -7611.78)
(-124712 -43.8515 -6307.25)
(-124360 145.81 -4715.99)
(-123405 125.301 -4067.19)
(-122123 -192.177 -4331.45)
(-121589 -414.169 -4314.74)
(-121553 -340.357 -4033.51)
(-121342 -250.267 -3936.44)
(-121289 -239.903 -3852.02)
(-121434 -218.869 -3750.42)
(-121395 -214.002 -3698.37)
(-121213 -237.384 -3595.06)
(-121019 -246.232 -3489.58)
(-120820 -242.161 -3446.34)
(-120660 -241.477 -3403.45)
(-120405 -241.134 -3260.49)
(-119956 -245.618 -3044.59)
(-119405 -252.446 -2859.14)
(-118802 -267.076 -2683.43)
(-118231 -298.728 -2412.48)
(-117819 -337.942 -1805.13)
(-117383 -397.159 -540.037)
(-116783 -458.975 1855.85)
(-115999 -439.836 8174.22)
(-123102 -78.4816 19087.1)
(-138079 1610.37 48214.8)
(-48343 653.116 10173.5)
(-147784 -8068.15 -71136.3)
(-158499 -10834.8 -42627.1)
(-143868 -15595.8 -8745.31)
(-135886 -21117.2 -974.474)
(-122238 -23898.7 1064.47)
(-97222.3 -24242.4 10186.4)
(-83822.6 -18422.2 1204.62)
(-84967.3 -12342.5 -15308.6)
(-95359.3 -6919.27 -18815.5)
(-106277 -2323.96 -14197)
(-114861 -828.282 -10667.7)
(-120410 -652.505 -9917.47)
(-123699 -626.141 -10318.6)
(-126425 -645.079 -9900.71)
(-128381 -733.711 -8660.4)
(-129240 -804.015 -7930.07)
(-129290 -902.305 -7979.23)
(-129139 -940.226 -8099.01)
(-128881 -893.657 -8042.51)
(-128548 -798.944 -8105.97)
(-128350 -646.33 -8263.12)
(-128497 -468.715 -8287.49)
(-128819 -340.205 -8189.25)
(-128736 -325.524 -8209.51)
(-127859 -328.393 -8372.01)
(-126523 -237.889 -8400.32)
(-125166 -138.038 -8219.26)
(-124083 -148.737 -7830.6)
(-123721 -167.403 -6856.39)
(-124138 -89.6383 -5159.51)
(-124584 -60.2015 -3617.9)
(-124287 -203.641 -3191.48)
(-123515 -354.814 -3446.07)
(-123078 -394.228 -3376.24)
(-123068 -363.377 -2868.09)
(-123121 -308.587 -2316.55)
(-123081 -284.091 -2031.7)
(-123016 -288.846 -1946.19)
(-122966 -298.889 -1815.88)
(-122839 -324.551 -1571.13)
(-122588 -340.923 -1250.35)
(-122239 -328.998 -909.8)
(-121761 -318.441 -579.904)
(-121082 -327.414 -211.242)
(-120217 -342.267 273.099)
(-119259 -359.532 907.491)
(-118294 -392.464 1747.19)
(-117388 -443.795 3007.83)
(-115836 -524.184 5002.72)
(-112853 -596.164 8195.07)
(-105916 -655.509 13779.6)
(-107055 -475.023 24419.7)
(-111744 4108.2 55090.5)
(-31991.6 3109.52 23660.3)
(-141308 -3082.95 -37349)
(-150150 -4552.84 13257.4)
(-135043 -7666.37 51158.4)
(-128701 -8336.2 72718.4)
(-104353 -7363.94 96084.5)
(-79326.5 -7788.49 88267.6)
(-69039.7 -9600.63 48060.9)
(-66911 -10782.5 14190.3)
(-80857.6 -8275.96 -8838.11)
(-100935 -1878.61 -16956.6)
(-110655 333.851 -13206.9)
(-116534 487.227 -11413.2)
(-120416 568.894 -11346.5)
(-123269 565.524 -10668.8)
(-125697 497.925 -9508.94)
(-127115 455.357 -8937.32)
(-128165 354.367 -8833.46)
(-129176 264.046 -8695.07)
(-129990 218.416 -8409.39)
(-130441 194.622 -8307.61)
(-130621 199.138 -8428.57)
(-130680 207.493 -8582.28)
(-130491 188.263 -8766.81)
(-130028 95.1339 -8990.9)
(-129391 -31.0596 -9037.83)
(-128831 -106.903 -8658.17)
(-128259 -130.399 -8012.66)
(-127778 -113.53 -7099.19)
(-127951 1.22707 -5415.23)
(-128176 119.488 -3650.56)
(-127576 75.0244 -3118.2)
(-126974 -59.0237 -3148.48)
(-127033 -127.081 -2740.61)
(-127343 -166.718 -2318.93)
(-127781 -166.95 -1973.11)
(-128157 -101.302 -1463.69)
(-128341 -61.8607 -1133.81)
(-128566 -58.2909 -1045.54)
(-128783 -57.823 -894.821)
(-128929 -72.7092 -635.999)
(-129025 -78.9326 -327.688)
(-129010 -57.1393 5.84935)
(-128797 -35.9755 343.917)
(-128353 -34.1424 721.472)
(-127713 -39.086 1196.3)
(-126939 -47.8339 1803.95)
(-126080 -73.7097 2619.97)
(-125235 -120.147 3840.43)
(-123706 -200.83 5706.36)
(-121110 -287.484 8521.87)
(-113581 -401.37 13444.8)
(-114530 -492.891 20324.5)
(-110518 2805.37 46439)
(-11103.3 2534.04 23041.5)
(-134548 -5888.81 -53421.4)
(-154427 -7568.41 -35104.6)
(-146068 -10400.8 -4663.77)
(-135151 -13359.9 9767.63)
(-127342 -14259 4611.37)
(-110446 -13780.3 8988.04)
(-98050 -8782.43 7816.41)
(-99031.9 -4711.68 16.1334)
(-104803 -2663.21 -4310.16)
(-110035 -1224.89 -5980.57)
(-114250 -580.905 -6936.58)
(-117460 -684.252 -7867.14)
(-120047 -842.16 -8532.13)
(-122196 -886.5 -8623.7)
(-123465 -926.166 -8359.48)
(-123934 -947.301 -8389.29)
(-124176 -944.103 -8636)
(-124591 -856.934 -8712.82)
(-125232 -723.555 -8550.07)
(-126060 -551.211 -8344.96)
(-127068 -372.298 -8126.85)
(-128213 -242.739 -7965.02)
(-128718 -218.926 -8254.94)
(-128051 -225.607 -9107.77)
(-126468 -168.176 -9895.06)
(-124664 -72.2847 -10054.5)
(-123142 -60.592 -9525.58)
(-122298 -110.77 -8174.12)
(-122307 -10.8572 -6308.77)
(-122500 168.527 -4925.83)
(-122084 136.127 -4418.22)
(-121367 -6.2212 -4177.23)
(-121135 13.5283 -3771.13)
(-121346 40.8306 -3294.53)
(-121408 -39.0161 -2914.16)
(-121206 -48.1317 -2645.64)
(-121036 19.0851 -2445.27)
(-120988 54.3276 -2295.27)
(-120942 55.4973 -2164.48)
(-120801 43.8588 -2044.67)
(-120475 31.9411 -1925.67)
(-119931 34.2436 -1800.83)
(-119166 47.1092 -1694.14)
(-118141 56.3185 -1583.2)
(-116786 53.4734 -1391.72)
(-115051 42.5772 -1070.65)
(-112891 27.1535 -588.048)
(-110232 7.7555 141.315)
(-106365 -39.3237 1284.01)
(-100914 -118.252 3070.68)
(-91039 -130.808 5997.34)
(-95102 -1665.96 8773.28)
(-75269.8 2559.15 10819.3)
(36490.5 3028.35 4496.32)
(-138567 -4299.13 -37657.3)
(-156546 -5439.81 -3118.55)
(-145648 -8925.66 24441)
(-137622 -10536.9 41712)
(-122930 -9855.03 47524.2)
(-103817 -8990.38 39905.4)
(-93295.4 -6628.69 25753.1)
(-92208.4 -4995.81 11298)
(-97280.4 -2821.69 -2708.26)
(-104707 -156.835 -9227.13)
(-109916 537.828 -9219.96)
(-113993 448.271 -8724.15)
(-117388 369.168 -8915.32)
(-120207 327.72 -8848.06)
(-122257 296.043 -8620.03)
(-123563 272.494 -8677.65)
(-124708 235.627 -8840.74)
(-125811 241.223 -8883.71)
(-126819 262.729 -8797.21)
(-127681 299.758 -8744.53)
(-128441 321.475 -8749.74)
(-129163 296.634 -8814.37)
(-129505 202.783 -9155.52)
(-129219 103.899 -9739.63)
(-128351 58.3484 -10059.8)
(-127159 58.0647 -9816.49)
(-125902 22.6578 -9210.05)
(-125233 -31.4264 -7879.22)
(-125371 88.9511 -5796.11)
(-124990 310.248 -4488.82)
(-123909 320.371 -4480.67)
(-123519 183.186 -4268.03)
(-123699 151.793 -3537.33)
(-123833 129.267 -3003.04)
(-124159 67.9855 -2691.43)
(-124479 95.5395 -2460.7)
(-124608 160.304 -2295.64)
(-124736 183.78 -2169.49)
(-124866 185.149 -2061.15)
(-124904 176.172 -1960.5)
(-124810 165.343 -1888.44)
(-124524 169.147 -1858.39)
(-123964 183.571 -1855.69)
(-123090 193.246 -1829.65)
(-121861 190.94 -1734.69)
(-120246 181.633 -1548.92)
(-118162 169.082 -1212.15)
(-115563 152.358 -629.538)
(-111726 105.694 437.17)