/*--------------------------------*- C++ -*----------------------------------*\
| =========                 |                                                 |
| \\      /  F ield         | OpenFOAM: The Open Source CFD Toolbox           |
|  \\    /   O peration     | Version:  4.1                                   |
|   \\  /    A nd           | Web:      www.OpenFOAM.org                      |
|    \\/     M anipulation  |                                                 |
\*---------------------------------------------------------------------------*/
FoamFile
{
    version     2.0;
    format      ascii;
    class       volScalarField;
    location    "8";
    object      epsilon;
}
// * * * * * * * * * * * * * * * * * * * * * * * * * * * * * * * * * * * * * //

dimensions      [0 2 -3 0 0 0 0];

internalField   nonuniform List<scalar> 
4432
(
0.000386714
0.000429291
0.000475983
0.000536026
0.000584941
0.000648157
0.000704575
0.000753034
0.000807295
0.000853924
0.000886297
0.000958971
0.0010209
0.00108517
0.00115771
0.00124776
0.00128792
0.00169432
0.00217377
0.00299025
0.00218032
0.00236912
0.00259998
0.00274013
0.00241908
0.00254157
0.00271243
0.00307688
0.00304273
0.00253616
0.00290263
0.00247012
0.00266658
0.00320263
0.0036487
0.00258132
0.00282294
0.00242014
0.00148437
0.00161932
0.0012936
0.00118462
0.00117295
0.00146333
0.00144166
0.0013546
0.00125271
0.00106888
0.000728957
0.000733735
0.000881541
0.00324499
9.70895e-05
0.024793
0.000388498
0.000427049
0.000476609
0.000523865
0.000587082
0.00063254
0.000693558
0.000742267
0.000796378
0.000833472
0.000896833
0.000952881
0.0010045
0.00104689
0.00111607
0.00114749
0.00135819
0.00150404
0.00181894
0.00229837
0.00175491
0.00189297
0.00201004
0.00207638
0.00188221
0.00222726
0.00262735
0.00265434
0.00266905
0.00213924
0.00258473
0.00191081
0.00259001
0.00306876
0.0036677
0.00251659
0.00287487
0.00244584
0.00138362
0.00151132
0.00122153
0.00108009
0.000951077
0.00105039
0.00115108
0.000988196
0.000554308
0.000620594
0.000593782
0.000651689
0.000848449
0.0033512
1.26947e-05
0.0244932
0.0577109
0.00129159
0.000520641
0.000171212
0.000235902
0.000166663
9.54176e-05
4.73948e-05
5.24309e-05
5.24563e-05
3.69994e-05
9.34344e-05
6.38944e-05
0.000216334
0.000282115
0.000356512
0.000378836
0.00141913
0.00491064
0.00898762
0.0103874
0.0158539
0.0263979
0.0313286
0.0196833
0.0067503
0.0129513
0.0131405
0.00971437
0.0152488
0.0191453
0.0168744
0.0230644
0.0236354
0.00463713
0.00128892
0.00215283
0.000767403
0.0013776
0.00133955
0.00077032
0.000761017
0.000810128
0.000926193
0.00101236
0.00110497
0.00045475
0.00377817
0.00737529
0.0220407
0.055396
0.12565
0.227822
0.211094
0.0577133
0.00127688
0.000515406
0.000167572
0.000237873
0.000136011
6.47769e-05
5.00724e-05
1.9688e-05
7.7355e-05
9.56227e-05
0.000117934
0.000151286
0.000196385
0.000149772
0.000409194
0.000635472
0.00154848
0.0053434
0.00903873
0.0083432
0.011953
0.01677
0.0163438
0.00805029
0.00311724
0.00520831
0.00580785
0.00230404
0.00437135
0.00491465
0.00477548
0.0054484
0.00441499
0.00108699
0.000343791
0.000358488
9.7546e-05
0.000144145
0.000146479
0.000155213
0.000193336
0.00024403
0.000332759
0.000456994
0.00049061
0.000707989
0.00262133
0.00747033
0.0216995
0.0598284
0.140644
0.255473
0.239012
0.0576422
0.000514986
2.93762e-06
1.61457e-07
1.59623e-07
1.61552e-07
1.61638e-07
1.62318e-07
1.70673e-07
1.86251e-07
2.2427e-07
3.68758e-07
6.97243e-07
2.06386e-06
8.10462e-06
2.31786e-05
8.37689e-05
0.000305204
0.000863716
0.00128128
0.00103229
0.00160184
0.00277816
0.00387028
0.00287956
0.000847649
0.00220322
0.00282167
0.00412323
0.0036175
0.00545088
0.0037938
0.00464082
0.00433144
0.00055937
6.20215e-05
0.000162453
0.00011392
3.38271e-05
5.14737e-05
4.03188e-05
8.39184e-05
0.000103929
5.21595e-05
4.56119e-05
2.89171e-05
1.70895e-05
3.98358e-05
1.20453e-05
8.65923e-06
0.000646439
0.00245414
0.00399991
0.00854992
0.057645
0.000514886
2.92777e-06
1.60997e-07
1.59677e-07
1.59497e-07
1.58682e-07
1.59529e-07
1.64834e-07
1.94554e-07
2.61344e-07
3.89623e-07
9.07968e-07
1.80559e-06
6.16737e-06
2.49252e-05
9.05395e-05
0.000346683
0.000905958
0.00138036
0.000945904
0.00159099
0.00245457
0.00322173
0.00216846
0.000966409
0.00138244
0.00225171
0.0031315
0.0034204
0.0054548
0.003143
0.00323025
0.00124186
0.000366339
6.89961e-05
5.58067e-05
2.37109e-05
3.19925e-06
9.64968e-07
4.48404e-07
3.48714e-07
1.70536e-07
2.03858e-07
1.04056e-06
1.27861e-06
3.62215e-06
2.67907e-05
3.70673e-06
1.29092e-05
0.000415995
0.00221941
0.00331737
0.00886726
0.0576396
0.000514909
2.5043e-06
1.50127e-07
1.48989e-07
1.49075e-07
1.49135e-07
1.49316e-07
1.492e-07
1.49193e-07
1.49434e-07
1.49243e-07
1.492e-07
1.49393e-07
1.50192e-07
1.56184e-07
2.25761e-07
1.31358e-06
2.56918e-05
0.000224569
0.000228989
0.000275569
0.000404948
0.000643879
0.000602603
0.000178172
0.000618002
0.000721963
0.00110732
0.00100792
0.00200475
0.00264173
0.00204158
0.00130695
0.00015175
1.91218e-05
1.44832e-05
4.69494e-06
1.90554e-06
1.44015e-06
8.78027e-07
1.13084e-06
5.95466e-07
3.67131e-07
5.08414e-07
2.16395e-07
2.19553e-07
1.39986e-06
2.25834e-07
6.00716e-06
1.22914e-05
1.36574e-05
0.000113404
0.00283881
0.0576425
0.000514826
2.49977e-06
1.50094e-07
1.48961e-07
1.48998e-07
1.49193e-07
1.49155e-07
1.49146e-07
1.49477e-07
1.49231e-07
1.49082e-07
1.49164e-07
1.4929e-07
1.50142e-07
1.55824e-07
2.34079e-07
1.55542e-06
2.76693e-05
0.000313503
0.00026049
0.000273345
0.00035536
0.0005327
0.000439711
0.000111708
0.000314329
0.000372207
0.000531904
0.000684027
0.00127701
0.000908245
0.00119275
0.000321735
6.14327e-05
5.27875e-06
1.83564e-06
1.08252e-06
1.50227e-07
1.5018e-07
1.50712e-07
1.5081e-07
1.5131e-07
1.51034e-07
1.50374e-07
1.50552e-07
1.50313e-07
1.51447e-07
1.39109e-06
1.90326e-06
2.57821e-06
7.95537e-06
0.00025333
0.00263871
0.0576366
0.000514872
2.50671e-06
1.50197e-07
1.49195e-07
1.49035e-07
1.49029e-07
1.49134e-07
1.49322e-07
1.49272e-07
1.49237e-07
1.49612e-07
1.49195e-07
1.49114e-07
1.49406e-07
1.49367e-07
1.49381e-07
1.49889e-07
1.67069e-07
6.4545e-07
1.44229e-06
3.73597e-06
1.13835e-05
9.77009e-05
0.000302091
8.82782e-06
0.000163188
0.000145667
0.000274313
0.000193116
0.000300056
0.000476052
0.000406742
0.000310832
3.54967e-05
1.21271e-06
2.30116e-07
1.73869e-07
1.54996e-07
1.51054e-07
1.50008e-07
1.50687e-07
1.50836e-07
1.52404e-07
1.51823e-07
1.51305e-07
1.50417e-07
1.57931e-07
1.51247e-07
1.49573e-07
1.5189e-07
1.58709e-07
2.05385e-06
6.08316e-06
0.0576393
0.000514801
2.52083e-06
1.5019e-07
1.49171e-07
1.49024e-07
1.49012e-07
1.49191e-07
1.49186e-07
1.49203e-07
1.49392e-07
1.49249e-07
1.49179e-07
1.4951e-07
1.49427e-07
1.49457e-07
1.49613e-07
1.49478e-07
1.58657e-07
4.71829e-07
2.8272e-06
5.02736e-06
1.23267e-05
9.63847e-05
0.000166375
2.82488e-05
0.000134855
8.14612e-05
0.000141618
0.000150896
0.000269955
0.000195224
0.000299894
5.78243e-05
3.76591e-05
7.79134e-08
1.50008e-07
1.49913e-07
1.49871e-07
1.50051e-07
1.50589e-07
1.50758e-07
1.50629e-07
1.50903e-07
1.50304e-07
1.50709e-07
1.50109e-07
1.51097e-07
1.52111e-07
1.49983e-07
1.76697e-07
8.77473e-07
2.41348e-06
6.74093e-06
0.0576316
0.000514934
2.56242e-06
1.50328e-07
1.49129e-07
1.492e-07
1.49201e-07
1.49273e-07
1.4953e-07
1.4926e-07
1.49211e-07
1.49617e-07
1.49201e-07
1.49133e-07
1.49363e-07
1.49355e-07
1.49415e-07
1.49364e-07
1.49387e-07
1.49655e-07
1.50429e-07
1.54103e-07
1.82812e-07
6.16106e-07
9.03463e-06
2.28873e-07
1.16359e-05
3.27795e-05
7.30821e-05
3.18076e-05
7.91362e-05
0.000158245
0.000128121
0.000104141
1.18402e-05
1.23473e-07
1.49422e-07
1.49391e-07
1.49484e-07
1.49411e-07
1.49422e-07
1.49504e-07
1.50123e-07
1.51441e-07
1.51833e-07
1.51183e-07
1.49981e-07
1.50085e-07
1.50324e-07
1.50328e-07
1.5201e-07
1.63425e-07
9.04807e-07
3.38173e-06
0.0576345
0.000514865
2.55804e-06
1.50292e-07
1.49036e-07
1.491e-07
1.49088e-07
1.49158e-07
1.49506e-07
1.49228e-07
1.49208e-07
1.4958e-07
1.49345e-07
1.49346e-07
1.49173e-07
1.49131e-07
1.4929e-07
1.49302e-07
1.49391e-07
1.4962e-07
1.51519e-07
1.52871e-07
1.68046e-07
6.54624e-07
2.91359e-06
4.99516e-07
1.16159e-05
1.18759e-05
2.6804e-05
1.39061e-05
9.47092e-05
9.26876e-05
0.000127853
5.00836e-05
2.485e-06
1.49585e-07
1.49446e-07
1.4926e-07
1.49485e-07
1.49601e-07
1.49586e-07
1.49724e-07
1.49842e-07
1.50268e-07
1.50017e-07
1.50209e-07
1.502e-07
1.50426e-07
1.50305e-07
1.50161e-07
1.50666e-07
1.64362e-07
1.10999e-06
3.79806e-06
0.0576274
0.000514904
2.56638e-06
1.50336e-07
1.49133e-07
1.49226e-07
1.49434e-07
1.49194e-07
1.49191e-07
1.49666e-07
1.49245e-07
1.4926e-07
1.49647e-07
1.49267e-07
1.49209e-07
1.49329e-07
1.49406e-07
1.49264e-07
1.49209e-07
1.4964e-07
1.49644e-07
1.49516e-07
1.49489e-07
1.50298e-07
1.62314e-07
1.50165e-07
1.67605e-07
3.52346e-07
1.50575e-06
4.97642e-07
9.69054e-07
5.70166e-06
1.25076e-05
6.49367e-06
2.48999e-07
1.50005e-07
1.49484e-07
1.4949e-07
1.49806e-07
1.49982e-07
1.49759e-07
1.50309e-07
1.50575e-07
1.50772e-07
1.50881e-07
1.50338e-07
1.50214e-07
1.49837e-07
1.49687e-07
1.49532e-07
1.50254e-07
1.51255e-07
1.63009e-07
4.85967e-07
0.05763
0.00051483
2.5618e-06
1.50301e-07
1.49038e-07
1.49101e-07
1.49107e-07
1.49165e-07
1.49237e-07
1.49429e-07
1.49205e-07
1.49223e-07
1.49592e-07
1.49236e-07
1.49175e-07
1.49282e-07
1.4937e-07
1.49246e-07
1.49197e-07
1.49548e-07
1.49225e-07
1.49232e-07
1.49487e-07
1.4972e-07
1.54342e-07
1.50362e-07
1.81199e-07
1.98435e-07
2.83443e-07
1.87587e-07
2.31081e-06
4.26004e-06
5.69968e-06
5.5018e-07
1.50126e-07
1.49913e-07
1.49479e-07
1.49459e-07
1.49925e-07
1.49954e-07
1.49549e-07
1.50089e-07
1.49756e-07
1.49932e-07
1.50424e-07
1.49933e-07
1.49883e-07
1.50253e-07
1.50192e-07
1.50013e-07
1.50166e-07
1.51071e-07
1.75304e-07
5.48189e-07
0.057621
0.000514968
2.52026e-06
1.50136e-07
1.48985e-07
1.49059e-07
1.49059e-07
1.49137e-07
1.49484e-07
1.49215e-07
1.49118e-07
1.49336e-07
1.49342e-07
1.49622e-07
1.49282e-07
1.493e-07
1.49703e-07
1.49704e-07
1.49272e-07
1.49304e-07
1.49495e-07
1.49495e-07
1.49491e-07
1.49647e-07
1.49391e-07
1.49392e-07
1.49497e-07
1.50341e-07
1.52167e-07
1.50323e-07
1.51496e-07
1.66665e-07
2.00575e-07
1.58681e-07
1.49926e-07
1.49716e-07
1.4985e-07
1.49633e-07
1.49703e-07
1.49654e-07
1.49644e-07
1.50257e-07
1.50218e-07
1.50689e-07
1.51091e-07
1.5024e-07
1.50119e-07
1.49962e-07
1.49658e-07
1.49338e-07
1.50002e-07
1.5122e-07
1.69799e-07
6.43918e-07
0.0576238
0.000514893
2.51555e-06
1.5011e-07
1.48965e-07
1.49103e-07
1.49165e-07
1.49182e-07
1.49451e-07
1.4918e-07
1.49083e-07
1.49302e-07
1.49306e-07
1.49617e-07
1.49203e-07
1.49202e-07
1.49581e-07
1.49599e-07
1.49231e-07
1.4926e-07
1.49335e-07
1.49276e-07
1.49604e-07
1.49497e-07
1.49392e-07
1.49702e-07
1.49845e-07
1.49486e-07
1.49619e-07
1.49922e-07
1.5136e-07
1.5644e-07
1.56022e-07
1.49657e-07
1.49626e-07
1.49827e-07
1.49567e-07
1.49513e-07
1.4964e-07
1.49606e-07
1.49483e-07
1.50249e-07
1.49866e-07
1.49838e-07
1.50011e-07
1.50105e-07
1.4972e-07
1.49935e-07
1.50223e-07
1.49732e-07
1.49883e-07
1.50565e-07
1.6665e-07
5.56236e-07
0.0576161
0.000514931
2.52418e-06
1.50141e-07
1.4898e-07
1.49045e-07
1.49386e-07
1.4926e-07
1.49242e-07
1.49744e-07
1.49205e-07
1.49178e-07
1.49655e-07
1.4923e-07
1.49171e-07
1.49295e-07
1.49357e-07
1.49371e-07
1.49293e-07
1.49511e-07
1.49343e-07
1.4959e-07
1.49591e-07
1.49913e-07
1.49333e-07
1.49293e-07
1.4948e-07
1.49495e-07
1.49637e-07
1.49591e-07
1.49845e-07
1.49546e-07
1.49411e-07
1.49509e-07
1.49859e-07
1.49784e-07
1.49918e-07
1.49716e-07
1.49631e-07
1.49806e-07
1.50114e-07
1.50085e-07
1.50282e-07
1.50453e-07
1.50808e-07
1.50386e-07
1.50351e-07
1.50333e-07
1.50106e-07
1.4942e-07
1.5e-07
1.51185e-07
1.79236e-07
9.50539e-07
0.0576187
0.000514853
2.51982e-06
1.50111e-07
1.48962e-07
1.49033e-07
1.49097e-07
1.49099e-07
1.49173e-07
1.49493e-07
1.49172e-07
1.49164e-07
1.49619e-07
1.49193e-07
1.49167e-07
1.49253e-07
1.49311e-07
1.49314e-07
1.49205e-07
1.49693e-07
1.49616e-07
1.49691e-07
1.49429e-07
1.49422e-07
1.49522e-07
1.495e-07
1.49732e-07
1.49244e-07
1.49305e-07
1.49587e-07
1.49591e-07
1.49954e-07
1.4974e-07
1.49499e-07
1.50164e-07
1.50138e-07
1.50133e-07
1.49653e-07
1.4951e-07
1.4972e-07
1.50235e-07
1.50144e-07
1.50066e-07
1.50599e-07
1.50043e-07
1.49829e-07
1.49499e-07
1.49609e-07
1.49753e-07
1.49625e-07
1.49773e-07
1.50197e-07
1.80537e-07
9.54741e-07
0.0576087
0.000515007
2.53096e-06
1.50146e-07
1.48977e-07
1.4904e-07
1.49378e-07
1.49235e-07
1.4921e-07
1.49712e-07
1.49684e-07
1.49163e-07
1.49136e-07
1.49585e-07
1.49203e-07
1.49233e-07
1.49346e-07
1.49403e-07
1.49689e-07
1.49331e-07
1.4922e-07
1.49616e-07
1.4962e-07
1.49758e-07
1.49468e-07
1.49353e-07
1.49623e-07
1.49425e-07
1.4946e-07
1.49663e-07
1.4978e-07
1.49609e-07
1.49695e-07
1.49798e-07
1.50105e-07
1.50228e-07
1.49946e-07
1.50364e-07
1.50338e-07
1.50381e-07
1.50048e-07
1.49851e-07
1.50151e-07
1.50321e-07
1.50761e-07
1.50265e-07
1.5027e-07
1.50961e-07
1.50265e-07
1.49743e-07
1.50293e-07
1.51058e-07
1.676e-07
9.0184e-07
0.0576115
0.000514942
2.52684e-06
1.50107e-07
1.48954e-07
1.49013e-07
1.49345e-07
1.4922e-07
1.49221e-07
1.49682e-07
1.49676e-07
1.49166e-07
1.49112e-07
1.4956e-07
1.49266e-07
1.49207e-07
1.4923e-07
1.49423e-07
1.49278e-07
1.49273e-07
1.49336e-07
1.49338e-07
1.49435e-07
1.49551e-07
1.49394e-07
1.4924e-07
1.49737e-07
1.49629e-07
1.49626e-07
1.49663e-07
1.50058e-07
1.49619e-07
1.49767e-07
1.49714e-07
1.49853e-07
1.49804e-07
1.49818e-07
1.50093e-07
1.50114e-07
1.4985e-07
1.49913e-07
1.49901e-07
1.50125e-07
1.50254e-07
1.50355e-07
1.50138e-07
1.49923e-07
1.5004e-07
1.50297e-07
1.50247e-07
1.50247e-07
1.51146e-07
1.68888e-07
1.03622e-06
0.0576037
0.000514965
2.53576e-06
1.50144e-07
1.48985e-07
1.49128e-07
1.49189e-07
1.49185e-07
1.49187e-07
1.49219e-07
1.49471e-07
1.49209e-07
1.49148e-07
1.49202e-07
1.49289e-07
1.49215e-07
1.49132e-07
1.49221e-07
1.49239e-07
1.49546e-07
1.49281e-07
1.49198e-07
1.49163e-07
1.49209e-07
1.4939e-07
1.49336e-07
1.49703e-07
1.49398e-07
1.49402e-07
1.49873e-07
1.49901e-07
1.49764e-07
1.49565e-07
1.50182e-07
1.50074e-07
1.501e-07
1.50293e-07
1.49941e-07
1.49906e-07
1.49957e-07
1.49869e-07
1.49967e-07
1.50246e-07
1.50341e-07
1.50519e-07
1.50436e-07
1.50241e-07
1.50677e-07
1.50592e-07
1.50743e-07
1.51066e-07
1.52386e-07
1.51397e-07
1.61307e-07
0.0576061
0.000514899
2.53131e-06
1.50118e-07
1.48959e-07
1.49026e-07
1.4903e-07
1.49096e-07
1.49164e-07
1.49192e-07
1.49441e-07
1.4918e-07
1.49118e-07
1.49167e-07
1.49249e-07
1.49208e-07
1.4917e-07
1.49602e-07
1.49586e-07
1.49185e-07
1.49077e-07
1.49251e-07
1.49311e-07
1.49433e-07
1.49397e-07
1.49481e-07
1.49853e-07
1.49508e-07
1.49584e-07
1.49719e-07
1.49493e-07
1.49408e-07
1.50039e-07
1.49769e-07
1.4957e-07
1.49687e-07
1.50413e-07
1.49905e-07
1.50025e-07
1.49825e-07
1.4977e-07
1.49995e-07
1.50186e-07
1.50311e-07
1.5089e-07
1.50286e-07
1.50089e-07
1.50452e-07
1.504e-07
1.51077e-07
1.50709e-07
1.51406e-07
1.50994e-07
1.6593e-07
0.0575958
0.000515021
2.54021e-06
1.5034e-07
1.49218e-07
1.49496e-07
1.49241e-07
1.49237e-07
1.49728e-07
1.49264e-07
1.49182e-07
1.49658e-07
1.49221e-07
1.49118e-07
1.49227e-07
1.49278e-07
1.49206e-07
1.49232e-07
1.4971e-07
1.49657e-07
1.49792e-07
1.49255e-07
1.49154e-07
1.49264e-07
1.49368e-07
1.49441e-07
1.49599e-07
1.50132e-07
1.49628e-07
1.49497e-07
1.49673e-07
1.49627e-07
1.49528e-07
1.49727e-07
1.49795e-07
1.50385e-07
1.49616e-07
1.49421e-07
1.50292e-07
1.49801e-07
1.4974e-07
1.49948e-07
1.50619e-07
1.50509e-07
1.50256e-07
1.50908e-07
1.509e-07
1.51892e-07
1.5124e-07
1.51138e-07
1.51942e-07
1.521e-07
1.51593e-07
1.52372e-07
0.0575985
0.000514969
2.53524e-06
1.50249e-07
1.49023e-07
1.49092e-07
1.49225e-07
1.49293e-07
1.49506e-07
1.49241e-07
1.49159e-07
1.49636e-07
1.49188e-07
1.49035e-07
1.49128e-07
1.49255e-07
1.49267e-07
1.49289e-07
1.495e-07
1.49458e-07
1.49769e-07
1.49219e-07
1.49127e-07
1.49835e-07
1.49481e-07
1.49528e-07
1.49365e-07
1.4925e-07
1.49656e-07
1.49616e-07
1.49524e-07
1.50034e-07
1.49784e-07
1.49887e-07
1.4975e-07
1.49902e-07
1.49708e-07
1.49405e-07
1.50258e-07
1.5012e-07
1.49999e-07
1.50113e-07
1.50878e-07
1.50871e-07
1.5124e-07
1.50534e-07
1.50426e-07
1.52036e-07
1.5128e-07
1.51208e-07
1.51693e-07
1.51575e-07
1.51338e-07
1.59018e-07
0.057591
0.000515186
2.61555e-06
1.50543e-07
1.49281e-07
1.49353e-07
1.49416e-07
1.49605e-07
1.49503e-07
1.49507e-07
1.49722e-07
1.49251e-07
1.49267e-07
1.49661e-07
1.49227e-07
1.49198e-07
1.49358e-07
1.4939e-07
1.49681e-07
1.49373e-07
1.49263e-07
1.49282e-07
1.49291e-07
1.4943e-07
1.4947e-07
1.49586e-07
1.49536e-07
1.49701e-07
1.49561e-07
1.49532e-07
1.50042e-07
1.50062e-07
1.49852e-07
1.4982e-07
1.50092e-07
1.49646e-07
1.49521e-07
1.49865e-07
1.49805e-07
1.50217e-07
1.50169e-07
1.50417e-07
1.50453e-07
1.51063e-07
1.50891e-07
1.50907e-07
1.50927e-07
1.51155e-07
1.51405e-07
1.52522e-07
1.52069e-07
1.52051e-07
1.52255e-07
1.53022e-07
0.0575933
0.000515153
2.61191e-06
1.50514e-07
1.49259e-07
1.49403e-07
1.49454e-07
1.49579e-07
1.49426e-07
1.49417e-07
1.49702e-07
1.4923e-07
1.49244e-07
1.49708e-07
1.49212e-07
1.491e-07
1.49269e-07
1.49319e-07
1.49594e-07
1.49423e-07
1.4927e-07
1.49287e-07
1.49317e-07
1.49429e-07
1.49678e-07
1.49496e-07
1.49254e-07
1.49572e-07
1.49437e-07
1.49649e-07
1.49745e-07
1.49953e-07
1.49684e-07
1.50138e-07
1.50018e-07
1.50162e-07
1.49693e-07
1.4964e-07
1.50001e-07
1.50026e-07
1.50296e-07
1.50491e-07
1.50507e-07
1.50714e-07
1.50763e-07
1.514e-07
1.51474e-07
1.52559e-07
1.51268e-07
1.50708e-07
1.52054e-07
1.5193e-07
1.51695e-07
1.52633e-07
0.0575853
0.000514944
2.58444e-06
1.50366e-07
1.49211e-07
1.49201e-07
1.49354e-07
1.49196e-07
1.49113e-07
1.49634e-07
1.49213e-07
1.49176e-07
1.49546e-07
1.49543e-07
1.49682e-07
1.49241e-07
1.49115e-07
1.49158e-07
1.4921e-07
1.49691e-07
1.49372e-07
1.49211e-07
1.49413e-07
1.51337e-07
1.49946e-07
8.65346e-08
1.50341e-07
1.49317e-07
1.49343e-07
1.4959e-07
1.49598e-07
1.49577e-07
1.4976e-07
1.49897e-07
1.49967e-07
1.49866e-07
1.50212e-07
1.49664e-07
1.49643e-07
1.49867e-07
1.50048e-07
1.50123e-07
1.5003e-07
1.51095e-07
1.50723e-07
1.50728e-07
1.51174e-07
1.51894e-07
1.52172e-07
1.52511e-07
1.52318e-07
1.52068e-07
1.52142e-07
1.54423e-07
0.0575856
0.000515417
2.60139e-06
1.50415e-07
1.49243e-07
1.49244e-07
1.49531e-07
1.49173e-07
1.49172e-07
1.49734e-07
1.49182e-07
1.49083e-07
1.49182e-07
1.49254e-07
1.49196e-07
1.49089e-07
1.4959e-07
1.49198e-07
1.49201e-07
1.497e-07
1.49356e-07
1.49302e-07
1.49492e-07
1.51147e-07
1.51697e-07
1.93618e-06
1.50158e-07
1.49265e-07
1.49429e-07
1.49512e-07
1.49521e-07
1.50072e-07
1.4959e-07
1.49648e-07
1.49545e-07
1.49478e-07
1.4955e-07
1.49792e-07
1.49938e-07
1.50028e-07
1.50742e-07
1.50412e-07
1.50416e-07
1.50404e-07
1.50121e-07
1.50495e-07
1.5099e-07
1.52235e-07
1.51953e-07
1.52093e-07
1.52118e-07
1.51998e-07
1.51992e-07
1.53335e-07
0.0575786
0.000515411
2.6263e-06
1.5069e-07
1.49136e-07
1.49251e-07
1.49764e-07
1.49194e-07
1.49123e-07
1.49627e-07
1.49497e-07
1.49363e-07
1.49441e-07
1.49642e-07
1.49204e-07
1.49028e-07
1.49119e-07
1.49123e-07
1.4923e-07
1.49433e-07
1.49281e-07
1.49165e-07
1.50594e-07
1.5455e-07
4.01314e-05
2.65917e-05
1.58833e-05
2.36232e-06
1.61557e-07
1.49898e-07
1.49879e-07
1.50134e-07
1.49384e-07
1.49296e-07
1.50082e-07
1.49987e-07
1.5016e-07
1.49825e-07
1.49824e-07
1.49962e-07
1.49949e-07
1.50475e-07
1.50426e-07
1.50321e-07
1.50766e-07
1.50849e-07
1.51248e-07
1.51303e-07
1.51736e-07
1.5225e-07
1.5234e-07
1.52535e-07
1.5317e-07
1.55627e-07
0.0574337
0.000513056
2.60579e-06
1.50368e-07
1.49185e-07
1.49525e-07
1.4918e-07
1.49156e-07
1.49498e-07
1.49245e-07
1.49244e-07
1.49506e-07
1.49372e-07
1.49357e-07
1.49515e-07
1.49518e-07
1.49596e-07
1.49191e-07
1.49189e-07
1.49721e-07
1.49241e-07
1.49119e-07
1.51535e-07
1.54312e-07
2.61033e-05
1.40059e-05
1.42228e-05
6.25284e-07
1.50094e-07
1.4962e-07
1.49402e-07
1.49448e-07
1.49735e-07
1.49732e-07
1.49791e-07
1.49764e-07
1.49806e-07
1.50327e-07
1.50333e-07
1.50401e-07
1.5012e-07
1.50159e-07
1.5032e-07
1.50066e-07
1.50488e-07
1.50654e-07
1.50775e-07
1.51387e-07
1.52083e-07
1.52327e-07
1.52218e-07
1.51819e-07
1.52456e-07
1.54531e-07
0.0574476
0.000511977
2.59011e-06
1.50359e-07
1.4913e-07
1.49147e-07
1.49437e-07
1.492e-07
1.49184e-07
1.49777e-07
1.49204e-07
1.49194e-07
1.49747e-07
1.49212e-07
1.49158e-07
1.49657e-07
1.49189e-07
1.49152e-07
1.49364e-07
1.49232e-07
1.49206e-07
1.49331e-07
1.57144e-07
8.77868e-06
0.00323657
0.00027721
4.30031e-05
4.42178e-07
1.49687e-07
1.49716e-07
1.4947e-07
1.49193e-07
1.49474e-07
1.49469e-07
1.49499e-07
1.50182e-07
1.49992e-07
1.50002e-07
1.50253e-07
1.50209e-07
1.50101e-07
1.50161e-07
1.50764e-07
1.50715e-07
1.51249e-07
1.50675e-07
1.50799e-07
1.51088e-07
1.51237e-07
1.53987e-07
1.53592e-07
1.53827e-07
1.56537e-07
0.0575993
0.000513996
2.66166e-06
1.5067e-07
1.49316e-07
1.49416e-07
1.49596e-07
1.49168e-07
1.49166e-07
1.49644e-07
1.49635e-07
1.49182e-07
1.49172e-07
1.49609e-07
1.49303e-07
1.49333e-07
1.4964e-07
1.49238e-07
1.49105e-07
1.49347e-07
1.49284e-07
1.49232e-07
1.51544e-07
9.20494e-06
0.00158661
0.000196818
1.10216e-05
1.79484e-07
1.49361e-07
1.4932e-07
1.49322e-07
1.49692e-07
1.49695e-07
1.4965e-07
1.49991e-07
1.50152e-07
1.5015e-07
1.50428e-07
1.49839e-07
1.49767e-07
1.50815e-07
1.50838e-07
1.51377e-07
1.51358e-07
1.51605e-07
1.51574e-07
1.5137e-07
1.51442e-07
1.52098e-07
1.53528e-07
1.52112e-07
1.52257e-07
1.56355e-07
0.0575694
0.000514279
2.62895e-06
1.50626e-07
1.49371e-07
1.4956e-07
1.49188e-07
1.49068e-07
1.49409e-07
1.49408e-07
1.49502e-07
1.49479e-07
1.49586e-07
1.49217e-07
1.49127e-07
1.49669e-07
1.49637e-07
1.49221e-07
1.49229e-07
1.49219e-07
1.49242e-07
1.493e-07
1.49067e-07
9.5291e-07
5.92895e-06
6.7287e-05
3.73546e-05
1.00052e-06
1.50404e-07
1.4963e-07
1.49557e-07
1.49883e-07
1.49383e-07
1.49277e-07
1.49544e-07
1.49484e-07
1.49556e-07
1.50072e-07
1.50073e-07
1.50111e-07
1.50037e-07
1.50108e-07
1.51266e-07
1.50437e-07
1.50095e-07
1.50324e-07
1.50402e-07
1.51875e-07
1.51389e-07
1.51464e-07
1.51579e-07
1.51455e-07
1.52204e-07
1.55054e-07
0.0575714
0.000514243
2.62493e-06
1.50594e-07
1.49344e-07
1.4954e-07
1.49176e-07
1.49045e-07
1.49465e-07
1.49451e-07
1.49475e-07
1.49435e-07
1.49546e-07
1.49181e-07
1.49152e-07
1.49725e-07
1.4921e-07
1.49161e-07
1.49562e-07
1.4943e-07
1.49296e-07
1.49345e-07
1.49485e-07
2.86444e-07
3.26176e-06
7.17402e-05
1.69097e-05
2.7102e-07
1.49343e-07
1.49343e-07
1.49362e-07
1.49944e-07
1.49719e-07
1.49604e-07
1.49577e-07
1.49692e-07
1.49681e-07
1.50158e-07
1.49888e-07
1.49751e-07
1.49827e-07
1.50039e-07
1.51117e-07
1.50719e-07
1.50718e-07
1.50846e-07
1.50937e-07
1.52479e-07
1.51463e-07
1.51634e-07
1.53779e-07
1.51954e-07
1.51822e-07
1.55974e-07
0.0575599
0.000515432
2.64551e-06
1.50579e-07
1.49274e-07
1.49415e-07
1.4949e-07
1.49635e-07
1.49187e-07
1.49044e-07
1.49502e-07
1.49195e-07
1.49152e-07
1.49603e-07
1.49192e-07
1.49077e-07
1.49344e-07
1.49363e-07
1.49597e-07
1.49205e-07
1.4919e-07
1.49619e-07
1.49422e-07
1.49406e-07
1.49317e-07
2.68278e-07
1.85233e-07
1.4951e-07
1.49761e-07
1.4947e-07
1.49368e-07
1.4985e-07
1.49708e-07
1.4974e-07
1.49963e-07
1.49662e-07
1.49647e-07
1.49817e-07
1.49838e-07
1.50557e-07
1.50009e-07
1.49748e-07
1.50066e-07
1.504e-07
1.50305e-07
1.50706e-07
1.51639e-07
1.51709e-07
1.52375e-07
1.51785e-07
1.51952e-07
1.53162e-07
1.53232e-07
1.55646e-07
0.0575622
0.000515403
2.64104e-06
1.50547e-07
1.49252e-07
1.49393e-07
1.49469e-07
1.49615e-07
1.49165e-07
1.49022e-07
1.49479e-07
1.49439e-07
1.49556e-07
1.49181e-07
1.49183e-07
1.49656e-07
1.49613e-07
1.49704e-07
1.49272e-07
1.49261e-07
1.49391e-07
1.49403e-07
1.49913e-07
1.4937e-07
1.49266e-07
2.27632e-07
1.58626e-07
1.49962e-07
1.49502e-07
1.49396e-07
1.49306e-07
1.49474e-07
1.49909e-07
1.49544e-07
1.49549e-07
1.50091e-07
1.49875e-07
1.49944e-07
1.49886e-07
1.4984e-07
1.49901e-07
1.50332e-07
1.50241e-07
1.50269e-07
1.506e-07
1.50836e-07
1.51063e-07
1.51233e-07
1.52305e-07
1.51724e-07
1.51955e-07
1.52351e-07
1.52465e-07
1.5538e-07
0.0575566
0.000515203
2.63415e-06
1.50401e-07
1.49041e-07
1.49149e-07
1.49444e-07
1.49131e-07
1.48983e-07
1.49136e-07
1.49136e-07
1.49282e-07
1.49163e-07
1.49159e-07
1.4926e-07
1.4958e-07
1.49213e-07
1.49224e-07
1.49719e-07
1.49234e-07
1.49224e-07
1.49711e-07
1.49755e-07
1.49835e-07
1.49748e-07
1.49779e-07
1.49537e-07
1.49532e-07
1.49882e-07
1.49315e-07
1.4925e-07
1.49968e-07
1.4978e-07
1.49567e-07
1.49686e-07
1.50118e-07
1.49924e-07
1.49922e-07
1.50314e-07
1.50366e-07
1.50378e-07
1.50337e-07
1.50302e-07
1.50644e-07
1.51526e-07
1.50683e-07
1.50268e-07
1.50864e-07
1.51952e-07
1.52259e-07
1.52384e-07
1.53445e-07
1.53673e-07
1.56007e-07
0.0575584
0.000515165
2.63015e-06
1.50376e-07
1.49021e-07
1.49129e-07
1.49423e-07
1.49111e-07
1.4896e-07
1.49331e-07
1.49185e-07
1.49173e-07
1.49433e-07
1.49177e-07
1.49186e-07
1.4917e-07
1.49241e-07
1.49205e-07
1.49167e-07
1.49717e-07
1.49617e-07
1.49665e-07
1.49358e-07
1.49201e-07
1.49485e-07
1.49375e-07
1.49304e-07
1.49458e-07
1.49688e-07
1.49381e-07
1.4936e-07
1.50071e-07
1.49482e-07
1.49416e-07
1.49483e-07
1.4949e-07
1.49588e-07
1.49594e-07
1.49924e-07
1.50161e-07
1.50398e-07
1.50559e-07
1.50791e-07
1.50894e-07
1.51591e-07
1.50636e-07
1.50241e-07
1.50942e-07
1.51869e-07
1.51784e-07
1.52086e-07
1.53281e-07
1.53405e-07
1.56073e-07
0.05755
0.0005153
2.63893e-06
1.50328e-07
1.49036e-07
1.49104e-07
1.49149e-07
1.49508e-07
1.49195e-07
1.49063e-07
1.49425e-07
1.49304e-07
1.49181e-07
1.49253e-07
1.49496e-07
1.49179e-07
1.49102e-07
1.49275e-07
1.49267e-07
1.49368e-07
1.4939e-07
1.49667e-07
1.49278e-07
1.49243e-07
1.49257e-07
1.49304e-07
1.49353e-07
1.49243e-07
1.49372e-07
1.49339e-07
1.4958e-07
1.49633e-07
1.49785e-07
1.49515e-07
1.49523e-07
1.49824e-07
1.49772e-07
1.4977e-07
1.49835e-07
1.50415e-07
1.50498e-07
1.50318e-07
1.50147e-07
1.50505e-07
1.51551e-07
1.5118e-07
1.50309e-07
1.50747e-07
1.52226e-07
1.51488e-07
1.51413e-07
1.52821e-07
1.52885e-07
1.5553e-07
0.0575521
0.000515287
2.6348e-06
1.50305e-07
1.49e-07
1.49068e-07
1.49114e-07
1.49472e-07
1.49176e-07
1.49044e-07
1.4939e-07
1.49155e-07
1.4915e-07
1.49228e-07
1.49378e-07
1.49182e-07
1.49112e-07
1.49216e-07
1.49258e-07
1.49229e-07
1.49189e-07
1.49398e-07
1.49431e-07
1.49699e-07
1.49359e-07
1.49343e-07
1.49843e-07
1.49631e-07
1.49248e-07
1.49255e-07
1.4932e-07
1.49471e-07
1.49718e-07
1.49357e-07
1.49351e-07
1.49993e-07
1.49577e-07
1.49511e-07
1.49753e-07
1.49963e-07
1.49953e-07
1.50161e-07
1.50332e-07
1.50364e-07
1.50507e-07
1.50987e-07
1.51176e-07
1.51221e-07
1.51235e-07
1.5147e-07
1.52158e-07
1.52176e-07
1.53084e-07
1.55583e-07
0.0575471
0.000515248
2.64051e-06
1.50484e-07
1.49189e-07
1.49153e-07
1.49232e-07
1.4947e-07
1.49519e-07
1.49268e-07
1.49261e-07
1.49431e-07
1.49452e-07
1.49688e-07
1.49551e-07
1.49085e-07
1.491e-07
1.49262e-07
1.49251e-07
1.49505e-07
1.49255e-07
1.49198e-07
1.49309e-07
1.49515e-07
1.49237e-07
1.49168e-07
1.49701e-07
1.49408e-07
1.49418e-07
1.49774e-07
1.49716e-07
1.49772e-07
1.4974e-07
1.49751e-07
1.50033e-07
1.4972e-07
1.49525e-07
1.49729e-07
1.4994e-07
1.49888e-07
1.49997e-07
1.5068e-07
1.50708e-07
1.51331e-07
1.51312e-07
1.51856e-07
1.51143e-07
1.51259e-07
1.53045e-07
1.5263e-07
1.52815e-07
1.52917e-07
1.52916e-07
1.546e-07
0.0575489
0.000515237
2.63676e-06
1.50462e-07
1.49171e-07
1.49278e-07
1.49352e-07
1.49381e-07
1.49407e-07
1.49351e-07
1.49239e-07
1.49311e-07
1.49412e-07
1.49623e-07
1.49247e-07
1.49176e-07
1.49441e-07
1.49443e-07
1.49603e-07
1.49251e-07
1.49102e-07
1.49116e-07
1.4918e-07
1.49596e-07
1.4924e-07
1.49106e-07
1.49489e-07
1.49289e-07
1.49275e-07
1.49409e-07
1.49392e-07
1.49524e-07
1.49594e-07
1.49766e-07
1.50035e-07
1.49917e-07
1.49933e-07
1.50066e-07
1.50157e-07
1.50325e-07
1.50104e-07
1.503e-07
1.50547e-07
1.50868e-07
1.50881e-07
1.51751e-07
1.51256e-07
1.50868e-07
1.51627e-07
1.5173e-07
1.52897e-07
1.52957e-07
1.5312e-07
1.55511e-07
0.0575412
0.000515328
2.64571e-06
1.50486e-07
1.49185e-07
1.49134e-07
1.49214e-07
1.49468e-07
1.49526e-07
1.49196e-07
1.49178e-07
1.49588e-07
1.49255e-07
1.49267e-07
1.49657e-07
1.49251e-07
1.49165e-07
1.49574e-07
1.49582e-07
1.49677e-07
1.49178e-07
1.49135e-07
1.4966e-07
1.49541e-07
1.49587e-07
1.49518e-07
1.49513e-07
1.49772e-07
1.49481e-07
1.49507e-07
1.49874e-07
1.49782e-07
1.4984e-07
1.49647e-07
1.49673e-07
1.50321e-07
1.49808e-07
1.49795e-07
1.49956e-07
1.50321e-07
1.50384e-07
1.50554e-07
1.51156e-07
1.51218e-07
1.513e-07
1.5126e-07
1.51356e-07
1.52379e-07
1.51305e-07
1.51093e-07
1.5365e-07
1.53146e-07
1.52963e-07
1.53973e-07
0.0575432
0.00051533
2.64177e-06
1.50465e-07
1.49169e-07
1.49277e-07
1.49352e-07
1.4938e-07
1.49418e-07
1.49352e-07
1.49353e-07
1.49546e-07
1.4923e-07
1.49251e-07
1.49663e-07
1.49353e-07
1.49089e-07
1.49169e-07
1.49192e-07
1.4944e-07
1.49215e-07
1.49117e-07
1.49707e-07
1.49437e-07
1.49438e-07
1.49814e-07
1.49304e-07
1.49317e-07
1.49823e-07
1.49718e-07
1.49815e-07
1.49394e-07
1.49376e-07
1.49451e-07
1.49481e-07
1.50273e-07
1.49846e-07
1.49485e-07
1.4971e-07
1.50934e-07
1.50198e-07
1.50859e-07
1.51234e-07
1.50384e-07
1.50478e-07
1.51005e-07
1.50857e-07
1.51748e-07
1.51994e-07
1.5259e-07
1.52594e-07
1.53498e-07
1.53125e-07
1.54252e-07
0.0575389
0.000515308
2.64931e-06
1.5056e-07
1.49256e-07
1.4933e-07
1.494e-07
1.49388e-07
1.49468e-07
1.49201e-07
1.49038e-07
1.49257e-07
1.49261e-07
1.49469e-07
1.49188e-07
1.49077e-07
1.49303e-07
1.49291e-07
1.49297e-07
1.49492e-07
1.49199e-07
1.49159e-07
1.4966e-07
1.49326e-07
1.4934e-07
1.49416e-07
1.49552e-07
1.49236e-07
1.49235e-07
1.49822e-07
1.49546e-07
1.49559e-07
1.49532e-07
1.49663e-07
1.49394e-07
1.4938e-07
1.49693e-07
1.49719e-07
1.49911e-07
1.83511e-07
1.7994e-07
1.6338e-07
1.52405e-07
1.51298e-07
1.51677e-07
1.51412e-07
1.51232e-07
1.51697e-07
1.51831e-07
1.51093e-07
1.51802e-07
1.51363e-07
1.51423e-07
1.53063e-07
0.0575405
0.000515299
2.64558e-06
1.50539e-07
1.49239e-07
1.49318e-07
1.49397e-07
1.49532e-07
1.49175e-07
1.49043e-07
1.49244e-07
1.49157e-07
1.49144e-07
1.49384e-07
1.49156e-07
1.49048e-07
1.49269e-07
1.49256e-07
1.4928e-07
1.49465e-07
1.49206e-07
1.4915e-07
1.49427e-07
1.49425e-07
1.49602e-07
1.49631e-07
1.49759e-07
1.4925e-07
1.49186e-07
1.49725e-07
1.49365e-07
1.49312e-07
1.4941e-07
1.49592e-07
1.49428e-07
1.49446e-07
1.49486e-07
1.49437e-07
1.47773e-07
1.04268e-06
3.90085e-07
3.93184e-07
1.56443e-07
1.50875e-07
1.50516e-07
1.50804e-07
1.50523e-07
1.50728e-07
1.51113e-07