/*--------------------------------*- C++ -*----------------------------------*\
| =========                 |                                                 |
| \\      /  F ield         | OpenFOAM: The Open Source CFD Toolbox           |
|  \\    /   O peration     | Version:  4.1                                   |
|   \\  /    A nd           | Web:      www.OpenFOAM.org                      |
|    \\/     M anipulation  |                                                 |
\*---------------------------------------------------------------------------*/
FoamFile
{
    version     2.0;
    format      ascii;
    class       volScalarField;
    location    "8";
    object      k;
}
// * * * * * * * * * * * * * * * * * * * * * * * * * * * * * * * * * * * * * //

dimensions      [0 2 -2 0 0 0 0];

internalField   nonuniform List<scalar> 
4432
(
0.386503
0.4168
0.444448
0.480478
0.510284
0.544809
0.57884
0.607571
0.636352
0.665253
0.684298
0.713739
0.746924
0.782567
0.842004
0.860958
1.37534
1.85015
1.71406
1.96143
1.89884
1.84596
3.36364
4.28931
1.46478
1.32545
1.53787
1.58701
1.60184
1.67643
1.69497
1.67222
1.58554
1.81869
1.79435
1.67525
1.5812
1.30274
1.28758
1.20015
1.0435
1.20867
1.2412
1.19657
1.02005
1.05404
0.93416
0.792257
0.57014
0.534381
0.650125
1.13151
1.31577
3.03061
0.388566
0.414457
0.445765
0.472377
0.509418
0.536941
0.570835
0.598256
0.629793
0.650143
0.679042
0.707236
0.737301
0.763374
0.794142
0.879472
1.17892
1.4494
1.34969
1.4454
1.37976
1.29313
1.74788
1.98924
1.5815
1.49611
1.80556
1.70633
2.00345
1.93515
1.88599
1.79672
1.58752
1.96825
2.06627
1.8927
1.75248
1.33948
1.34561
1.20503
0.863637
0.991382
1.06587
0.877672
0.981531
0.685579
0.621058
0.524091
0.435075
0.466901
0.625465
1.25169
1.52317
3.32145
0.00127766
2.91245e-05
0.000373614
0.00291327
0.00387731
0.0061891
0.00906747
0.0124523
0.0160102
0.0202098
0.0261731
0.0318804
0.0451892
0.0545078
0.0898427
0.115646
0.270463
1.18344
2.59622
5.28311
9.51276
16.8328
29.5598
33.6695
2.06174
5.42525
2.46731
3.32269
3.5689
5.99483
6.20223
6.20345
11.9424
12.9491
1.06675
1.0828
0.48862
0.541851
0.442108
0.112868
0.127252
0.13077
0.119991
0.162015
0.110742
0.0488816
0.0147922
0.0292272
0.0671638
0.155222
0.474966
1.44449
3.2374
3.2954
0.00127764
2.84058e-05
0.000373237
0.00277764
0.00368563
0.00608971
0.00926786
0.0119755
0.0161475
0.0196695
0.0245162
0.0340004
0.0388497
0.0701427
0.0812514
0.143605
0.26064
1.11105
2.50056
5.02893
8.57963
13.6945
21.2961
19.8749
2.2894
2.57517
1.93632
1.86893
1.45591
1.53316
1.51885
3.10882
3.61858
2.83116
0.311662
0.225656
0.0782563
0.0455233
0.019584
0.00128609
0.00502443
0.0052062
0.00613397
0.00715083
0.00764206
0.00950327
0.0102949
0.0232469
0.0552359
0.1561
0.520774
1.63749
3.73258
3.86871
0.00127347
4.69418e-06
8.72791e-08
1.30721e-06
2.5662e-06
6.2751e-06
1.46813e-05
3.16277e-05
6.62602e-05
0.000127943
0.000267692
0.000412943
0.000747846
0.000873858
0.000954734
0.00152872
0.00453321
0.0279332
0.282563
2.28426
4.47607
4.89655
5.34495
3.05201
1.87474
1.33602
0.500483
1.26248
1.93205
2.07876
3.41449
5.10281
5.95058
0.548007
0.269387
0.0695946
0.0695223
0.0453438
0.032416
0.0326102
0.054972
0.0633381
0.053881
0.0505498
0.00595301
0.00458099
0.000115863
0.000936906
0.00020342
0.013273
0.00349258
0.0211788
0.0478568
0.0808968
0.0012735
4.69123e-06
8.75904e-08
1.21953e-06
2.43591e-06
6.13093e-06
1.50512e-05
2.97637e-05
6.62051e-05
0.000128096
0.000197328
0.000459163
0.000446101
0.00105529
0.00106185
0.0016857
0.00345979
0.024595
0.237058
1.75662
3.70475
3.47268
3.41713
1.80359
1.37693
0.441552
0.496831
0.382644
0.728578
1.49253
3.46654
3.88064
4.2799
0.439327
0.0871273
0.0246725
0.00437086
0.00383772
0.00029105
1.62026e-05
4.02346e-06
5.72514e-06
3.87622e-07
2.45276e-06
1.46943e-05
1.36406e-05
0.000868706
0.00202776
0.000148214
0.0131858
0.00179597
0.0199089
0.0452295
0.0833277
0.00127348
4.69404e-06
6.37317e-08
5.08786e-09
4.56908e-09
5.41797e-09
8.00999e-09
1.34095e-08
2.68838e-08
4.95761e-08
1.27797e-07
2.2857e-07
5.53077e-07
9.98335e-07
1.67938e-06
5.45551e-06
4.16742e-05
0.000249723
0.00117695
0.00647747
0.0672556
0.132576
0.333753
0.388787
0.826219
0.71037
0.963084
1.05101
1.47543
1.31912
1.1651
1.86463
0.972228
0.254103
0.0778769
0.0129964
0.00697291
0.0044691
0.00114519
0.00281292
0.00458104
0.00527812
0.00449007
0.00421252
0.000496735
7.80712e-06
9.60435e-06
3.70435e-05
5.01348e-05
0.000357909
0.00106575
0.00427694
0.000990629
0.0179782
0.00127351
4.69112e-06
6.36035e-08
5.05205e-09
4.52331e-09
5.49426e-09
8.2627e-09
1.28943e-08
2.69661e-08
5.38335e-08
9.12701e-08
2.82384e-07
3.27858e-07
1.21995e-06
1.88065e-06
5.99388e-06
2.84425e-05
0.000194625
0.000906093
0.00357071
0.0494671
0.136081
0.287594
0.439139
0.865516
0.579467
0.474624
0.585711
1.09714
1.31478
1.54048
0.32836
0.493288
0.0989323
0.000478386
0.00151586
0.000420706
0.000167863
3.79491e-09
1.48826e-08
7.97364e-09
6.32526e-09
5.06759e-09
4.88106e-09
4.66105e-09
4.63031e-09
1.85922e-08
1.08627e-06
6.33389e-05
0.000184803
0.000416782
0.00156429
0.000218723
0.0178109
0.00127347
4.69426e-06
6.3756e-08
4.83377e-09
4.02924e-09
4.01833e-09
4.01059e-09
4.04347e-09
4.08359e-09
4.19831e-09
4.13953e-09
4.18912e-09
4.77176e-09
5.39925e-09
6.82077e-09
1.58072e-08
1.18881e-07
8.9705e-07
6.92646e-06
3.31545e-05
0.000900686
0.00177393
0.00566777
0.00294134
0.0112547
0.243537
0.0887108
0.391678
0.551601
0.505006
0.785414
1.7299
1.8815
0.180652
0.032242
0.0027248
0.000455955
4.37604e-05
6.91812e-05
5.76752e-06
1.51077e-08
2.89867e-08
3.01995e-08
2.92423e-09
3.61857e-09
3.87715e-08
3.16146e-07
3.17187e-06
2.40097e-07
2.54789e-09
2.1339e-08
5.17046e-07
7.21795e-06
1.54434e-05
0.0012735
4.69127e-06
6.39581e-08
4.8656e-09
4.03306e-09
4.09342e-09
4.00836e-09
3.99534e-09
4.02524e-09
4.07335e-09
4.08335e-09
4.21531e-09
4.50572e-09
5.69942e-09
7.18026e-09
1.70974e-08
8.27892e-08
7.14742e-07
5.6343e-06
2.38978e-05
0.00031982
0.00181636
0.00507043
0.00367048
0.0236888
0.0846224
0.0394507
0.211259
0.345364
0.33173
0.679646
0.894748
0.201322
0.0169869
0.00252204
0.000336791
3.64488e-06
1.43073e-05
1.78032e-07
1.04103e-08
4.57684e-09
4.77877e-09
4.80743e-09
4.89131e-09
4.65133e-09
4.99221e-09
4.9808e-09
1.73596e-09
9.37511e-09
4.56135e-08
9.25324e-07
3.08471e-06
6.68493e-06
1.4566e-05
0.00127345
4.69439e-06
6.4728e-08
4.94905e-09
4.05282e-09
4.06974e-09
4.12181e-09
4.10877e-09
4.10627e-09
4.2424e-09
4.05743e-09
3.99762e-09
4.11915e-09
4.13466e-09
4.27828e-09
4.13831e-09
4.40177e-09
7.44998e-09
3.76119e-08
1.89127e-07
7.14677e-06
2.14422e-05
0.000124302
6.9012e-05
0.0076787
0.0804514
0.00254582
0.0118252
0.0125886
0.0144377
0.0228023
0.0852606
0.303629
0.0254525
0.00180686
0.000150725
1.89563e-06
1.66378e-07
9.66426e-08
4.27226e-09
4.39771e-09
4.53478e-09
4.03351e-09
1.07568e-09
1.25981e-09
5.82021e-09
8.38754e-09
5.21428e-08
5.91213e-09
5.67746e-09
5.56476e-08
1.28288e-06
6.79713e-06
1.02954e-05
0.00127348
4.6915e-06
6.4588e-08
4.92351e-09
4.0349e-09
4.07952e-09
4.07503e-09
4.18009e-09
4.07204e-09
3.92357e-09
3.94743e-09
3.9947e-09
4.07327e-09
4.10182e-09
4.25309e-09
4.11762e-09
4.26311e-09
6.83285e-09
3.18415e-08
1.47375e-07
2.55965e-06
2.46967e-05
0.000132454
8.47429e-05
0.000340816
0.00922404
0.000544456
0.00890739
0.00964141
0.0116397
0.016926
0.050315
0.0181675
0.00152431
0.00012453
1.03789e-05
1.62865e-08
2.28784e-09
4.57489e-09
4.27671e-09
4.33244e-09
4.70343e-09
4.4785e-09
4.40746e-09
4.62437e-09
4.57075e-09
4.61846e-09
5.33435e-09
5.01899e-09
6.02503e-09
5.23494e-08
1.29824e-06
6.96127e-06
1.0909e-05
0.00127344
4.6946e-06
6.47576e-08
4.95637e-09
4.05725e-09
4.09377e-09
4.1883e-09
4.05196e-09
3.99677e-09
4.1896e-09
4.1062e-09
4.05089e-09
4.06803e-09
4.0748e-09
4.1031e-09
4.13625e-09
4.19639e-09
4.15279e-09
4.30379e-09
5.15351e-09
5.36486e-08
1.87246e-07
1.26552e-06
9.16472e-07
0.000112281
0.0013412
0.000107593
0.000599427
0.00023558
0.000394265
0.000722279
0.00150688
0.0072148
0.00060832
7.3676e-05
6.1416e-06
1.08619e-08
2.05042e-09
4.24661e-09
4.42261e-09
4.61756e-09
4.38467e-09
4.47319e-09
4.46719e-09
4.67309e-09
4.44177e-09
4.43167e-09
4.98661e-09
4.45023e-09
4.3541e-09
4.99855e-09
1.48702e-08
2.45472e-07
9.33819e-07
0.00127347
4.69167e-06
6.46297e-08
4.9321e-09
4.03932e-09
4.07475e-09
4.16501e-09
4.03445e-09
3.97974e-09
4.16521e-09
4.06586e-09
4.04033e-09
4.13707e-09
4.12924e-09
4.14299e-09
4.18098e-09
4.1788e-09
4.14626e-09
4.25858e-09
5.03354e-09
2.1538e-08
2.14257e-07
1.36099e-06
1.03748e-06
4.50163e-06
0.000179989
1.32967e-05
0.000521309
0.000494987
0.000481526
0.000247277
0.000803116
0.000416984
3.47986e-05
5.32829e-07
5.46354e-09
4.32949e-09
4.17841e-09
4.328e-09
4.38041e-09
4.59617e-09
4.48445e-09
4.38193e-09
4.34005e-09
4.7739e-09
4.49962e-09
4.17994e-09
4.42242e-09
4.79352e-09
4.55559e-09
5.67518e-09
3.7892e-08
6.60988e-07
1.00878e-06
0.0012734
4.69527e-06
6.38387e-08
4.84096e-09
4.02329e-09
4.04756e-09
4.09022e-09
4.08003e-09
4.07874e-09
4.15124e-09
4.05271e-09
4.02426e-09
4.23717e-09
4.07775e-09
4.06946e-09
4.21013e-09
4.11737e-09
4.08425e-09
4.10509e-09
4.27217e-09
4.4718e-09
5.59962e-09
1.58428e-08
1.39008e-08
1.29792e-06
1.54853e-05
1.59721e-06
8.70881e-06
3.71112e-06
4.72143e-06
1.02376e-05
3.07287e-05
0.000333438
1.17177e-05
5.7726e-07
1.1597e-08
4.38957e-09
4.25756e-09
4.23958e-09
4.37456e-09
4.40307e-09
4.58528e-09
4.98353e-09
4.84498e-09
4.88472e-09
4.33775e-09
4.24295e-09
4.13601e-09
4.10273e-09
4.13739e-09
4.95623e-09
2.52711e-08
5.3534e-07
1.31655e-06
0.00127344
4.69247e-06
6.37165e-08
4.82436e-09
4.00005e-09
4.05368e-09
4.00818e-09
3.99228e-09
4.0125e-09
4.05355e-09
4.03151e-09
4.00633e-09
4.11969e-09
4.12612e-09
4.13191e-09
4.05798e-09
4.08675e-09
4.09695e-09
4.14335e-09
4.16798e-09
4.33995e-09
7.41316e-09
1.66622e-08
1.46487e-08
6.22587e-08
2.10601e-06
1.67273e-07
7.28857e-06
5.83997e-06
5.34829e-06
3.49043e-06
1.14302e-05
9.06264e-06
8.67803e-08
1.36815e-08
4.49916e-09
4.25906e-09
4.23918e-09
4.26607e-09
4.36519e-09
4.33871e-09
4.4382e-09
4.67027e-09
4.35108e-09
4.93369e-09
4.4622e-09
4.16229e-09
4.37148e-09
4.65275e-09
4.43116e-09
5.27641e-09
2.31064e-08
3.90443e-07
1.11454e-06
0.00127338
4.69547e-06
6.38668e-08
4.84147e-09
4.02716e-09
4.05287e-09
4.0921e-09
4.08745e-09
4.08383e-09
4.16149e-09
4.0559e-09
3.98799e-09
4.1201e-09
4.10864e-09
4.13139e-09
4.12285e-09
4.24713e-09
4.12578e-09
4.0675e-09
4.11893e-09
4.18993e-09
4.20117e-09
4.25286e-09
4.54793e-09
1.6212e-09
1.67912e-07
2.41629e-08
1.04006e-07
4.62625e-08
5.17287e-08
1.02389e-07
2.85274e-07
3.44283e-06
2.14941e-07
1.70731e-08
4.43494e-09
4.54151e-09
4.34286e-09
4.24593e-09
4.56288e-09
4.4816e-09
4.67502e-09
4.75771e-09
4.63272e-09
5.01519e-09
4.4774e-09
4.33236e-09
4.30334e-09
4.34949e-09
4.28806e-09
5.03826e-09
2.43526e-08
4.36467e-07
1.15897e-06
0.00127341
4.69264e-06
6.37481e-08
4.82714e-09
3.97961e-09
3.99503e-09
4.03894e-09
4.02105e-09
4.04894e-09
4.13709e-09
4.03439e-09
3.97385e-09
4.1117e-09
4.09822e-09
4.101e-09
4.0967e-09
4.22511e-09
4.11839e-09
4.12604e-09
4.31911e-09
4.12067e-09
4.19971e-09
4.56788e-09
4.25179e-09
4.73714e-09
4.92253e-08
6.43072e-09
8.43996e-08
6.6479e-08
5.66348e-08
3.67973e-08
1.1168e-07
9.04756e-08
7.90351e-09
4.3763e-09
4.18569e-09
4.3636e-09
4.30217e-09
4.30013e-09
4.53968e-09
4.44579e-09
4.54003e-09
4.55698e-09
4.59753e-09
4.78692e-09
4.36717e-09
4.11499e-09
4.24592e-09
4.29673e-09
4.3646e-09
5.56958e-09
3.20735e-08
5.73579e-07
1.42217e-06
0.00127334
4.69606e-06
6.38918e-08
4.8447e-09
4.039e-09
3.95932e-09
3.96863e-09
3.93723e-09
3.91811e-09
3.95009e-09
3.94276e-09
3.99746e-09
3.9899e-09
3.99285e-09
4.0325e-09
4.02186e-09
4.08537e-09
4.25143e-09
4.11686e-09
4.09407e-09
4.24567e-09
4.28978e-09
4.25405e-09
4.29841e-09
4.33746e-09
7.56658e-09
4.94577e-09
5.21161e-09
4.60571e-09
4.66785e-09
5.21091e-09
6.28298e-09
3.37588e-08
6.94837e-09
4.3773e-09
4.49054e-09
4.43506e-09
4.71743e-09
4.51552e-09
4.55032e-09
4.48798e-09
4.60008e-09
4.65329e-09
4.61619e-09
5.07098e-09
4.57238e-09
4.35518e-09
4.40216e-09
4.64924e-09
4.54683e-09
4.96861e-09
1.61536e-08
2.14958e-07
7.65353e-07
0.00127337
4.69333e-06
6.37817e-08
4.78691e-09
3.95761e-09
4.00701e-09
3.96577e-09
3.95937e-09
4.07335e-09
4.06849e-09
4.07797e-09
4.06926e-09
4.13669e-09
4.06775e-09
4.0438e-09
4.07713e-09
4.09817e-09
4.26319e-09
4.1225e-09
4.11472e-09
4.22827e-09
4.24408e-09
4.24372e-09
4.2014e-09
4.20475e-09
5.13001e-09
4.32232e-09
6.04934e-09
5.7456e-09
5.43088e-09
5.12175e-09
5.21433e-09
4.91926e-09
4.48895e-09
4.37654e-09
4.53762e-09
4.43824e-09
4.69878e-09
4.49367e-09
4.54269e-09
4.57816e-09
4.51588e-09
4.45084e-09
4.50301e-09
4.4954e-09
4.46589e-09
4.24682e-09
4.64709e-09
4.69444e-09
4.79857e-09
5.26732e-09
1.90676e-08
2.6474e-07
1.04993e-06
0.00127331
4.69625e-06
6.39441e-08
4.80379e-09
3.96924e-09
4.02184e-09
3.95734e-09
3.93436e-09
4.06753e-09
3.99717e-09
3.99374e-09
4.04687e-09
4.19751e-09
4.17307e-09
4.07131e-09
4.13425e-09
4.12032e-09
4.12567e-09
4.12922e-09
4.32582e-09
4.13136e-09
4.11011e-09
4.29361e-09
4.28247e-09
4.23876e-09
4.31006e-09
4.43247e-09
4.27046e-09
4.26536e-09
4.39342e-09
4.3101e-09
4.45855e-09
4.85147e-09
4.61436e-09
4.54446e-09
4.55148e-09
4.41497e-09
4.52119e-09
4.44637e-09
4.57645e-09
4.75333e-09
4.7161e-09
4.59436e-09
4.61404e-09
4.81209e-09
5.13891e-09
4.69766e-09
4.53847e-09
5.12324e-09
5.14348e-09
5.55488e-09
5.71623e-09
7.701e-09
9.45916e-08
0.00127334
4.69348e-06
6.38237e-08
4.78812e-09
3.9572e-09
3.97531e-09
3.98475e-09
4.01389e-09
4.10012e-09
4.028e-09
4.01851e-09
4.05472e-09
4.20039e-09
4.10964e-09
4.0262e-09
4.08888e-09
4.10778e-09
4.11316e-09
4.1211e-09
4.29454e-09
4.14366e-09
4.12907e-09
4.32056e-09
4.23562e-09
4.29927e-09
4.34454e-09
4.32115e-09
4.34993e-09
4.35447e-09
4.46643e-09
4.32432e-09
4.29294e-09
4.2979e-09
4.28668e-09
4.50184e-09
4.42895e-09
4.30377e-09
4.50952e-09
4.47558e-09
4.59663e-09
4.53132e-09
4.64365e-09
4.74346e-09
4.66658e-09
4.64276e-09
4.99935e-09
4.90739e-09
4.89835e-09
4.75646e-09
4.84147e-09
4.85557e-09
5.16894e-09
1.02953e-08
1.54186e-07
0.00127326
4.69692e-06
6.3989e-08
4.76314e-09
3.90449e-09
3.92995e-09
3.95764e-09
3.9789e-09
4.03562e-09
4.0252e-09
4.02528e-09
4.04811e-09
4.19819e-09
4.0842e-09
4.06996e-09
4.32247e-09
4.07348e-09
4.04151e-09
4.11627e-09
4.13306e-09
4.08156e-09
4.05841e-09
4.17244e-09
4.18516e-09
4.43511e-09
4.24722e-09
4.27518e-09
4.4816e-09
4.36894e-09
4.21973e-09
4.11411e-09
4.4048e-09
4.38726e-09
4.37605e-09
4.4041e-09
4.69632e-09
4.43095e-09
4.25504e-09
4.34534e-09
4.3589e-09
4.62298e-09
4.66206e-09
4.69384e-09
4.83536e-09
5.04513e-09
5.10897e-09
5.30329e-09
5.12577e-09
5.11716e-09
5.17892e-09
5.38618e-09
5.47728e-09
5.48129e-09
7.86499e-09
0.0012733
4.69426e-06
6.38661e-08
4.79065e-09
3.95822e-09
4.01242e-09
3.97557e-09
3.97001e-09
4.09659e-09
4.09191e-09
4.11006e-09
4.08416e-09
4.09981e-09
4.23018e-09
4.08388e-09
4.0088e-09
4.08306e-09
4.08887e-09
4.1003e-09
4.11939e-09
4.15827e-09
4.17432e-09
4.18958e-09
4.30286e-09
4.24431e-09
4.25996e-09
4.35774e-09
4.40702e-09
4.55961e-09
4.28138e-09
4.11361e-09
4.36421e-09
4.29076e-09
4.27608e-09
4.3683e-09
4.71332e-09
4.43104e-09
4.24372e-09
4.40856e-09
4.39477e-09
4.64707e-09
4.58958e-09
4.73836e-09
5.13964e-09
5.16493e-09
5.29217e-09
5.04312e-09
4.97713e-09
4.9905e-09
5.10893e-09
5.1735e-09
5.20497e-09
5.10893e-09
1.14616e-08
0.00127323
4.69661e-06
6.53084e-08
5.03344e-09
4.11872e-09
4.14736e-09
4.22353e-09
4.1055e-09
3.9391e-09
4.05726e-09
3.99641e-09
3.99311e-09
4.05487e-09
4.03753e-09
4.0285e-09
4.01884e-09
4.04372e-09
4.08064e-09
4.24374e-09
4.09772e-09
4.07341e-09
4.09849e-09
4.07776e-09
4.08682e-09
6.38008e-09
4.61573e-09
4.28481e-09
4.12251e-09
4.50781e-09
4.2281e-09
4.13307e-09
4.26349e-09
4.28636e-09
4.29241e-09
4.25885e-09
4.25821e-09
4.30398e-09
4.36931e-09
4.37249e-09
4.47533e-09
4.51507e-09
4.76412e-09
4.91849e-09
4.97419e-09
4.83309e-09
4.71216e-09
5.1116e-09
5.14289e-09
5.65581e-09
5.65599e-09
5.68859e-09
5.92384e-09
5.88403e-09
6.53164e-09
0.00127326
4.69372e-06
6.51806e-08
5.01619e-09
4.10901e-09
4.13788e-09
4.21382e-09
4.08845e-09
3.95092e-09
4.07796e-09
4.0734e-09
4.10266e-09
4.09168e-09
4.10782e-09
4.22832e-09
4.09599e-09
4.02366e-09
4.18107e-09
4.17494e-09
4.29877e-09
4.10107e-09
4.05362e-09
4.06808e-09
4.14547e-09
4.41842e-09
4.31436e-09
4.03389e-09
4.22975e-09
4.26289e-09
4.32362e-09
4.29098e-09
4.39466e-09
4.32659e-09
4.39425e-09
4.21802e-09
4.22049e-09
4.33381e-09
4.66765e-09
4.49626e-09
4.27078e-09
5.053e-09
4.6782e-09
4.51876e-09
4.779e-09
4.75732e-09
5.11583e-09
5.1424e-09
5.9496e-09
5.51989e-09
5.1554e-09
5.8327e-09
5.49698e-09
5.24363e-09
6.0617e-09
0.00127314
4.70593e-06
6.48524e-08
4.95727e-09
4.1495e-09
4.17788e-09
4.28827e-09
4.09554e-09
4.0683e-09
4.3651e-09
4.09829e-09
4.02934e-09
4.1962e-09
4.18672e-09
4.186e-09
4.2168e-09
4.24015e-09
4.23865e-09
4.17252e-09
4.19914e-09
4.3778e-09
4.14454e-09
4.04022e-09
4.89382e-09
2.47029e-08
5.21059e-05
5.60616e-07
1.87054e-08
4.45332e-09
4.2628e-09
4.27249e-09
4.21889e-09
4.26842e-09
4.6167e-09
4.36557e-09
4.14397e-09
4.28576e-09
4.21118e-09
4.36406e-09
4.45465e-09
4.43142e-09
4.47993e-09
4.5682e-09
4.59139e-09
4.62028e-09
4.81487e-09
5.02994e-09
5.05455e-09
5.19088e-09
5.68497e-09
5.66821e-09
5.40195e-09
5.73975e-09
6.64487e-09
0.00127321
4.69471e-06
6.4888e-08
4.95016e-09
4.01928e-09
4.07098e-09
4.22197e-09
4.08046e-09
4.04809e-09
4.31316e-09
4.04303e-09
4.01763e-09
4.0469e-09
4.04593e-09
4.10276e-09
4.08928e-09
4.14889e-09
4.15499e-09
4.26326e-09
4.13327e-09
4.07512e-09
4.31961e-09
4.19527e-09
5.01784e-09
6.45805e-06
6.14754e-06
2.44358e-08
4.50959e-09
4.05674e-09
4.31255e-09
4.35113e-09
4.38131e-09
4.38486e-09
4.61212e-09
4.30024e-09
4.16988e-09
4.21625e-09
4.39006e-09
4.35332e-09
4.31645e-09
4.79621e-09
4.53499e-09
4.45916e-09
4.58348e-09
4.59167e-09
4.74568e-09
4.89521e-09
5.77015e-09
5.40827e-09
4.89608e-09
5.28749e-09
5.30032e-09
5.29217e-09
6.18678e-09
0.00127314
4.69742e-06
6.53694e-08
5.03588e-09
4.11766e-09
4.14607e-09
4.22584e-09
4.09788e-09
4.03309e-09
4.21452e-09
4.19437e-09
4.23567e-09
4.17179e-09
4.16788e-09
4.28163e-09
4.11546e-09
3.98943e-09
4.12562e-09
4.11078e-09
4.10866e-09
4.14499e-09
4.15583e-09
4.15296e-09
5.32891e-09
0.00182406
0.00223785
0.000639479
7.67517e-05
3.26945e-06
5.84609e-08
5.13212e-09
4.30833e-09
4.39303e-09
4.24926e-09
4.20872e-09
4.41786e-09
4.4014e-09
4.4094e-09
4.68712e-09
4.50111e-09
4.50351e-09
4.9526e-09
4.83024e-09
4.84878e-09
4.95446e-09
4.89374e-09
4.96014e-09
5.053e-09
5.60702e-09
5.87027e-09
6.19679e-09
6.06874e-09
6.19108e-09
7.88689e-09
0.00127562
4.72447e-06
6.54634e-08
5.00824e-09
4.18386e-09
4.03799e-09
4.05362e-09
4.31949e-09
4.07519e-09
4.05072e-09
4.2733e-09
4.03885e-09
4.01323e-09
4.19033e-09
4.15805e-09
4.14624e-09
4.17532e-09
4.12476e-09
4.09838e-09
4.30478e-09
4.14e-09
4.07258e-09
5.03972e-09
1.37885e-08
0.0026494
0.00107646
0.000611229
9.34739e-05
2.50674e-06
4.59778e-08
4.85748e-09
4.37083e-09
4.3726e-09
4.43077e-09
4.56812e-09
4.2871e-09
4.22901e-09
4.63101e-09
4.40846e-09
4.29725e-09
4.36091e-09
4.40768e-09
4.56e-09
5.21542e-09
5.26462e-09
4.93591e-09
4.922e-09
4.97445e-09
5.52317e-09
5.82584e-09
7.16431e-09
6.37661e-09
5.76501e-09
8.30027e-09
0.00127522
4.7344e-06
6.52352e-08
4.9227e-09
4.07216e-09
4.09548e-09
4.28989e-09
4.09342e-09
4.06138e-09
4.32883e-09
4.06316e-09
4.03082e-09
4.20711e-09
4.17914e-09
4.22081e-09
4.20246e-09
4.20426e-09
4.30579e-09
4.1171e-09
4.05475e-09
4.30762e-09
4.21958e-09
3.62784e-08
0.000657216
0.110017
0.009345
0.00027626
1.21774e-05
2.16688e-07
7.84404e-09
4.56868e-09
4.23521e-09
4.17327e-09
4.38023e-09
4.39174e-09
4.74894e-09
4.51459e-09
4.46649e-09
4.38939e-09
4.49368e-09
4.65448e-09
4.57693e-09
4.82265e-09
4.87749e-09
4.8633e-09
4.91745e-09
5.75666e-09
5.5425e-09
5.29535e-09
5.58067e-09
5.42044e-09
5.65321e-09
7.12692e-09
0.00127276
4.70996e-06
6.61653e-08
4.99206e-09
4.12679e-09
4.30692e-09
4.09423e-09
3.95017e-09
4.08268e-09
4.07526e-09
4.08119e-09
4.15066e-09
4.03583e-09
4.01931e-09
4.14523e-09
4.15532e-09
4.20197e-09
4.23525e-09
4.0849e-09
4.07279e-09
4.3304e-09
4.2968e-09
7.54431e-10
0.000855943
0.0769042
0.00754655
0.000324339
1.44119e-05
2.43533e-07
8.01942e-09
4.27881e-09
4.13298e-09
4.11993e-09
4.23012e-09
4.34237e-09
4.33968e-09
4.34549e-09
4.40488e-09
4.36564e-09
4.55749e-09
4.64143e-09
4.99189e-09
4.79466e-09
4.55867e-09
4.73861e-09
4.66943e-09
4.61118e-09
4.6386e-09
4.80487e-09
5.15002e-09
5.64688e-09
5.93238e-09
7.45268e-09
0.00127301
4.70642e-06
6.54037e-08
5.0171e-09
4.19751e-09
4.00811e-09
4.02638e-09
4.2454e-09
4.15421e-09
4.14916e-09
4.28622e-09
4.08577e-09
4.05605e-09
4.28822e-09
4.24088e-09
4.21096e-09
4.24112e-09
4.26255e-09
4.30285e-09
4.13103e-09
4.12406e-09
5.13529e-09
1.33709e-06
1.00768e-05
0.000392196
0.00149745
0.00036726
2.03746e-05
4.98883e-07
1.40462e-08
4.38025e-09
4.25637e-09
4.31071e-09
4.38643e-09
4.40388e-09
4.3637e-09
4.38986e-09
4.63135e-09
4.57727e-09
4.58616e-09
4.88019e-09
4.91346e-09
4.92659e-09
5.02884e-09
5.03247e-09
5.06643e-09
5.70416e-09
5.22253e-09
4.82124e-09
5.44638e-09
5.69198e-09
5.92749e-09
6.03529e-09
7.28538e-09
0.00127303
4.70382e-06
6.5308e-08
5.0032e-09
4.18554e-09
4.00167e-09
4.0145e-09
4.23163e-09
4.14514e-09
4.14115e-09
4.27153e-09
4.08675e-09
3.98556e-09
4.11723e-09
4.07552e-09
4.08651e-09
4.12718e-09
4.25727e-09
4.10961e-09
4.02715e-09
4.27525e-09
4.14245e-09
2.43277e-08
9.50771e-06
0.000509935
0.00177157
0.000334184
2.9718e-05
6.82442e-07
1.70991e-08
4.41733e-09
4.51369e-09
4.19215e-09
4.13609e-09
4.19978e-09
4.2128e-09
4.42498e-09
4.43083e-09
4.48625e-09
4.61761e-09
4.42224e-09
4.36926e-09
4.53385e-09
4.95884e-09
4.71969e-09
4.61107e-09
4.97366e-09
4.826e-09
5.16793e-09
5.41173e-09
5.77309e-09
6.11362e-09
6.54049e-09
7.64494e-09
0.00127299
4.69812e-06
6.54728e-08
5.07669e-09
4.1756e-09
4.20298e-09
4.19947e-09
4.303e-09
4.08705e-09
4.05823e-09
4.3199e-09
4.11243e-09
4.02639e-09
4.07995e-09
4.19627e-09
4.09493e-09
4.07886e-09
4.3674e-09
4.10148e-09
4.05964e-09
4.28825e-09
4.18346e-09
2.57956e-09
9.23416e-08
3.46341e-06
3.26691e-05
8.78019e-06
2.31708e-07
9.58491e-09
4.28034e-09
4.30919e-09
4.18737e-09
4.1656e-09
4.214e-09
4.15105e-09
4.24641e-09
4.28786e-09
4.53412e-09
4.32629e-09
4.27116e-09
4.70701e-09
4.70477e-09
4.7166e-09
4.75184e-09
5.11327e-09
4.86559e-09
4.81732e-09
4.93836e-09
4.82774e-09
4.96736e-09
5.42131e-09
5.79798e-09
6.12687e-09
7.73274e-09
0.00127302
4.6958e-06
6.5379e-08
5.06331e-09
4.16479e-09
4.19197e-09
4.18865e-09
4.29164e-09
4.07583e-09
4.0538e-09
4.30714e-09
4.1103e-09
4.0161e-09
4.04488e-09
4.04605e-09
4.12806e-09
4.1373e-09
4.25602e-09
4.09923e-09
4.06331e-09
4.232e-09
4.22996e-09
4.48279e-09
1.2144e-07
1.3136e-08
5.18755e-05
7.31171e-06
2.58375e-07
1.07052e-08
4.26947e-09
4.43051e-09
4.223e-09
4.14902e-09
4.25346e-09
4.25245e-09
4.25464e-09
4.30234e-09
4.6432e-09
4.71362e-09
4.73436e-09
4.95898e-09
4.58047e-09
4.43831e-09
4.56507e-09
4.90161e-09
4.85814e-09
4.84216e-09
5.63731e-09
5.5162e-09
5.5314e-09
6.25655e-09
5.86836e-09
5.63146e-09
7.50394e-09
0.00127295
4.69843e-06
6.51857e-08
5.02248e-09
4.12627e-09
4.15421e-09
4.13747e-09
4.18061e-09
4.2117e-09
4.13346e-09
4.14724e-09
4.28494e-09
4.09441e-09
3.99164e-09
4.16277e-09
4.16807e-09
4.29483e-09
4.10909e-09
4.02668e-09
4.07545e-09
4.06099e-09
4.08459e-09
4.15879e-09
4.8999e-09
4.18461e-09
1.18848e-07
3.87609e-08
5.44822e-09
4.08876e-09
4.12217e-09
4.47892e-09
4.14101e-09
4.09424e-09
4.17035e-09
4.17992e-09
4.58994e-09
4.28595e-09
4.18361e-09
4.5422e-09
4.52457e-09
4.55412e-09
4.54049e-09
4.53934e-09
4.60433e-09
4.90165e-09
4.75154e-09
4.75444e-09
5.07611e-09
5.09792e-09
5.14088e-09
5.15289e-09
5.87095e-09
5.87474e-09
7.39767e-09
0.00127298
4.69613e-06
6.5085e-08
5.0087e-09
4.11573e-09
4.14346e-09
4.12628e-09
4.16899e-09
4.2085e-09
4.17127e-09
4.17206e-09
4.27319e-09
4.07274e-09
3.98586e-09
4.10427e-09
4.11378e-09
4.26539e-09
4.09367e-09
4.03747e-09
4.12892e-09
4.14944e-09
4.29968e-09
4.22404e-09
4.5014e-09
1.56746e-09
1.93179e-07
3.50348e-08
5.99941e-09
4.29169e-09
4.20251e-09
4.21781e-09
4.47969e-09
4.21315e-09
4.14168e-09
4.21014e-09
4.3801e-09
4.26094e-09
4.18342e-09
4.35015e-09
4.39352e-09
4.35861e-09
4.35493e-09
4.5429e-09
4.6146e-09
5.34598e-09
4.93419e-09
4.77713e-09
6.15676e-09
5.41952e-09
5.166e-09
6.30489e-09
6.39041e-09
6.46038e-09
7.64352e-09
0.0012729
4.69903e-06
6.52086e-08
4.98157e-09
4.04161e-09
4.07009e-09
4.10623e-09
4.14418e-09
4.16498e-09
4.20246e-09
4.25713e-09
4.06743e-09
4.02583e-09
4.19666e-09
4.17946e-09
4.21321e-09
4.14469e-09
4.11614e-09
4.15211e-09
4.22323e-09
4.07741e-09
4.0809e-09
4.13249e-09
4.2011e-09
4.12062e-09
4.42606e-09
4.62203e-09
4.15975e-09
4.11186e-09
4.16845e-09
4.23878e-09
4.20376e-09
4.20986e-09
4.54605e-09
4.37998e-09
4.3902e-09
4.75493e-09
4.36605e-09
4.31242e-09
4.65974e-09
4.59545e-09
4.35317e-09
4.49597e-09
4.66161e-09
4.65218e-09
4.9692e-09
5.53767e-09
5.04615e-09
4.92915e-09
5.39716e-09
5.29065e-09
5.52946e-09
5.93253e-09
7.12792e-09
0.00127293
4.69684e-06
6.51101e-08
4.97089e-09
4.03245e-09
4.06055e-09
4.09924e-09
4.13083e-09
4.15561e-09
4.1933e-09
4.25407e-09
4.05868e-09
4.01638e-09
4.10857e-09
4.11785e-09
4.09564e-09
4.09808e-09
4.25782e-09
4.23694e-09
4.25567e-09
4.04598e-09
4.05654e-09
4.08214e-09
4.09719e-09
4.15459e-09
4.7569e-09
4.49445e-09
4.29165e-09
4.28606e-09
4.29811e-09
4.42326e-09
4.1658e-09
4.13628e-09
4.54417e-09
4.29394e-09
4.29738e-09
4.74735e-09
4.37528e-09
4.31041e-09
4.66221e-09
4.53006e-09
4.29983e-09
4.49968e-09
4.6136e-09
4.75296e-09
4.93534e-09
5.43225e-09
5.32113e-09
4.85877e-09
5.05964e-09
5.40683e-09
5.63531e-09
5.76455e-09
7.18439e-09
0.00127286
4.69901e-06
6.52223e-08
4.98395e-09
4.04473e-09
4.07114e-09
4.10962e-09
4.1482e-09
4.15882e-09
4.20084e-09
4.25385e-09
4.13066e-09
4.12637e-09
4.30823e-09
4.11314e-09
4.06644e-09
4.06553e-09
4.07468e-09
4.16665e-09
4.18029e-09
4.31656e-09
4.10228e-09
4.09858e-09
4.42655e-09
4.14594e-09
4.06995e-09
4.117e-09
4.14352e-09
4.10822e-09
4.11962e-09
4.17865e-09
4.22579e-09
4.20912e-09
4.21658e-09
4.6008e-09
4.557e-09
4.60156e-09
4.79477e-09
4.46427e-09
4.37774e-09
4.65724e-09
4.74468e-09
4.9317e-09
4.91124e-09
4.80377e-09
4.72661e-09
5.01317e-09
5.72368e-09
5.45208e-09
5.24683e-09
6.43227e-09
5.94998e-09
5.84152e-09
6.96781e-09
0.00127289
4.69685e-06
6.51246e-08
4.97297e-09
4.03597e-09
4.06319e-09
4.09919e-09
4.13272e-09
4.14484e-09
4.18185e-09
4.25088e-09
4.12166e-09
4.11788e-09
4.29959e-09
4.11275e-09
4.02622e-09
4.17003e-09
4.09082e-09
4.05285e-09
4.10893e-09
4.24901e-09
4.09002e-09
4.08802e-09
4.42005e-09
4.09692e-09
4.05012e-09
4.10702e-09
4.15222e-09
4.1223e-09
4.11438e-09
4.27559e-09
4.30608e-09
4.35972e-09
4.36924e-09
4.58795e-09
4.55915e-09
4.58412e-09
6.62961e-09
4.60077e-09
4.29203e-09
5.31671e-09
5.81039e-09
1.19942e-08
6.08215e-09
5.30829e-09
5.41703e-09
6.13527e-09
5.54343e-09
5.26157e-09
5.7887e-09
5.62501e-09
5.82864e-09
5.93187e-09
7.30505e-09
0.00127282
4.6994e-06
6.52493e-08
4.98615e-09
4.04366e-09
4.07117e-09
4.11105e-09
4.14741e-09
4.16307e-09
4.20479e-09
4.25805e-09
4.05744e-09
4.02257e-09
4.11827e-09
4.12231e-09
4.28803e-09
4.07566e-09
3.96221e-09
3.99458e-09
4.00341e-09
4.07485e-09
4.11553e-09
4.27333e-09
4.11858e-09
4.10724e-09
4.35292e-09
4.12888e-09
4.10109e-09
4.12392e-09
4.17921e-09
4.11354e-09
4.03932e-09
4.25245e-09
4.24472e-09
4.20501e-09
4.08664e-09
8.43985e-09
5.2189e-09
4.34173e-09
5.55245e-09
1.39936e-08
2.12745e-08
1.21103e-08
5.86374e-09
5.5317e-09
6.81848e-09
9.11828e-09
7.5266e-09
5.63267e-09
5.60247e-09
5.97967e-09
6.09121e-09
6.3242e-09
6.85976e-09
0.00127284
4.69731e-06
6.51532e-08
4.9728e-09
4.03063e-09
4.06182e-09
4.09732e-09
4.13405e-09
4.14598e-09
4.18354e-09
4.24844e-09
4.04975e-09
4.01396e-09
4.10968e-09
4.12021e-09
4.27584e-09
4.0698e-09
3.98511e-09
4.06647e-09
4.07177e-09
4.07617e-09
4.07175e-09
4.27754e-09
4.11303e-09
4.07809e-09
4.31177e-09
4.23834e-09
4.2311e-09
4.38572e-09
4.12425e-09
4.09921e-09
4.40801e-09
4.17101e-09
4.13755e-09
4.20053e-09
4.18684e-09
6.96775e-09
1.88117e-07
1.15559e-08
3.45439e-09
3.82082e-08
1.16776e-07
6.0702e-07
5.51154e-08
1.95396e-08
1.62782e-08
1.26487e-08
8.10802e-09
5.74136e-09
5.67821e-09
5.663e-09
5.75726e-09
5.68498e-09
6.90951e-09
0.00127278
4.69926e-06
6.52676e-08
4.98523e-09
4.08046e-09
4.10731e-09
4.10896e-09
4.15051e-09
4.16108e-09
4.28346e-09
4.09906e-09
3.99082e-09
4.12589e-09
4.12236e-09
4.12204e-09
4.13099e-09
4.24591e-09
4.04755e-09
3.98472e-09
4.18983e-09
4.14572e-09
4.1192e-09
4.18309e-09
4.18095e-09
4.26937e-09
4.1245e-09
4.06331e-09
4.2142e-09
4.20736e-09
4.15986e-09
4.15886e-09
4.33789e-09
4.26572e-09
4.25645e-09
4.64479e-09
3.56913e-08
4.19592e-07
1.06251e-07
9.44796e-09
1.35205e-07
7.54293e-07
1.22576e-06
4.46065e-07
8.49829e-08
2.23406e-08
1.23082e-07
2.19052e-07
4.28573e-08
6.43742e-09
5.50479e-09
6.4536e-09
6.21831e-09
5.50853e-09
1.17254e-08
0.0012728
4.69719e-06
6.51751e-08
4.97267e-09
4.06856e-09
4.09328e-09
4.09562e-09
4.14021e-09
4.15331e-09
4.27161e-09
4.08831e-09
3.98163e-09
4.11656e-09
4.07279e-09
4.07433e-09
4.16514e-09
4.06027e-09
3.99882e-09
4.03447e-09
4.03393e-09
4.05589e-09
4.05318e-09
4.09063e-09
4.15129e-09
4.35312e-09
4.1071e-09
4.05706e-09
4.25208e-09
4.11689e-09
4.1059e-09
4.15295e-09
4.12638e-09
4.27895e-09
4.34032e-09
4.31656e-09
2.58048e-08
2.59186e-07
2.97061e-05
6.59111e-07
3.99894e-07
2.93758e-06
8.44494e-06
4.07998e-05
2.33804e-06
4.46927e-07
3.2653e-07
3.8671e-07
6.8795e-08
7.96085e-09
5.95043e-09
5.71672e-09
6.6153e-09
6.22514e-09
9.34629e-09
0.00127274
4.69955e-06
6.52917e-08
4.98716e-09
4.04059e-09
4.06945e-09
4.11107e-09
4.19188e-09
4.13576e-09
4.12222e-09
4.10835e-09
4.12124e-09
4.28582e-09
4.07869e-09
4.05475e-09
4.1889e-09
4.19585e-09
4.37215e-09
4.0928e-09
4.00353e-09
4.05811e-09
4.0569e-09
4.30001e-09
4.10991e-09
4.08857e-09
4.37537e-09
4.14038e-09
4.12052e-09
4.37887e-09
4.11884e-09
4.02061e-09
4.18825e-09
4.17488e-09
3.16296e-09
3.50632e-08
6.5314e-06
7.83035e-05
1.0701e-05
4.37542e-07
8.46144e-06
4.18822e-05
6.21855e-05
2.14223e-05
4.39617e-06
9.09401e-07
5.64622e-06
8.17213e-06
1.00998e-06
3.31474e-08
6.78479e-09
5.2764e-09
5.88652e-09
2.73569e-08
3.71545e-07
0.00127276
4.69754e-06
6.52011e-08
4.97668e-09
4.03242e-09
4.06102e-09
4.10153e-09
4.14185e-09
4.13724e-09
4.17623e-09
4.09352e-09