/*--------------------------------*- C++ -*----------------------------------*\
| =========                 |                                                 |
| \\      /  F ield         | OpenFOAM: The Open Source CFD Toolbox           |
|  \\    /   O peration     | Version:  4.1                                   |
|   \\  /    A nd           | Web:      www.OpenFOAM.org                      |
|    \\/     M anipulation  |                                                 |
\*---------------------------------------------------------------------------*/
FoamFile
{
    version     2.0;
    format      ascii;
    class       volScalarField;
    location    "8";
    object      nut;
}
// * * * * * * * * * * * * * * * * * * * * * * * * * * * * * * * * * * * * * //

dimensions      [0 2 -1 0 0 0 0];

internalField   nonuniform List<scalar> 
4432
(
34.7663
36.4206
37.3502
38.7618
40.064
41.2145
42.7989
44.1187
45.1446
46.6441
47.5503
47.8097
49.1828
50.7913
55.1152
53.4658
132.182
181.828
121.641
115.792
148.834
129.449
391.644
604.293
79.8252
62.2114
78.4732
73.6697
75.8959
99.7326
89.0787
101.886
84.8477
92.9509
79.4183
97.8491
79.7105
63.1131
100.519
80.0531
75.7574
110.989
118.208
88.0592
64.9569
73.8147
62.695
52.8502
40.1333
35.0272
43.1513
35.5094
1604.83
33.3407
34.9771
36.2013
37.5226
38.3355
39.7825
41.0212
42.2845
43.3966
44.8249
45.6425
46.2726
47.2425
48.706
50.0975
50.8564
60.665
92.0983
125.708
90.1346
81.808
97.6323
79.5024
136.793
171.519
119.595
90.4474
111.673
98.7213
135.345
157.548
123.853
152.049
87.5747
113.616
104.767
128.113
96.1454
66.0215
117.778
86.4732
54.9544
81.896
107.508
66.0021
75.3259
42.8069
62.6263
39.8335
28.6909
30.1059
41.4976
42.0761
16448.2
40.537
2.54574e-06
5.91062e-08
2.41295e-05
0.00446139
0.00573552
0.0206852
0.0775508
0.29445
0.439995
0.700759
1.66632
0.979003
2.8764
1.23605
2.57503
3.37621
17.3783
88.8202
123.535
279.497
784.06
1608.49
2979.03
3256.68
19.4362
392.426
42.3035
75.6157
118.004
212.11
180.833
205.249
556.521
638.491
22.0863
81.8678
9.98103
34.4333
12.7696
0.855902
1.89191
2.0224
1.5995
2.55065
1.09027
0.194619
0.0433048
0.0203486
0.0550471
0.0983834
0.366514
1.49456
4.14037
4.63004
2.54554e-06
5.6873e-08
2.43255e-05
0.00414374
0.00513951
0.0245392
0.119339
0.257771
1.19193
0.450132
0.565702
0.882208
0.897884
2.25475
3.96711
4.5358
9.6212
71.7477
105.317
251.818
794.049
1412.08
2433.93
2175.19
58.5967
191.463
64.7887
54.1272
82.7981
48.395
42.2456
182.145
216.297
163.396
8.04238
13.3303
1.53747
1.91206
0.239468
0.00101627
0.0146382
0.0126174
0.0138766
0.0138301
0.0115015
0.0165673
0.013473
0.0185545
0.0367575
0.101065
0.407975
1.71584
4.90812
5.63579
2.53209e-06
3.85094e-09
2.33382e-10
9.52528e-07
3.71303e-06
2.19367e-05
0.000120013
0.000554641
0.00231518
0.00791004
0.0287568
0.0416179
0.0721909
0.0332999
0.0101222
0.00907426
0.0220786
0.230087
8.31962
366.511
1746.76
1347.12
925.493
216.607
109.85
189.519
10.2321
50.8379
81.4782
107.509
192.499
617.713
686.698
6.23997
11.676
7.02832
2.67771
1.62434
2.79573
1.85937
6.74554
4.30245
2.51408
4.40908
0.0699259
0.0653142
7.06977e-05
0.00198318
0.000309182
1.83105
0.00169827
0.0164492
0.0515324
0.068888
2.5321e-06
3.84685e-09
2.35841e-10
8.314e-07
3.34443e-06
2.12101e-05
0.000128486
0.000499777
0.0023932
0.00759059
0.0134093
0.0487003
0.019726
0.0555096
0.0164541
0.0102604
0.0118988
0.157037
5.58267
201.19
1305.91
682.186
428.144
90.8714
78.6885
18.1571
16.0699
5.8522
15.2561
58.6157
198.27
431.228
510.356
13.9877
1.86496
0.794041
0.0308098
0.055904
0.00238303
2.4485e-05
3.24916e-06
8.45949e-06
7.92949e-08
2.65597e-06
1.86754e-05
1.30971e-05
0.0187509
0.0138131
0.000533369
1.21215
0.000697832
0.016073
0.0554999
0.0704744
2.53223e-06
3.85128e-09
1.45971e-10
1.55186e-11
1.26108e-11
1.77219e-11
3.87192e-11
1.08382e-10
4.35968e-10
1.48266e-09
9.8364e-09
3.15056e-08
1.84521e-07
6.00435e-07
1.69002e-06
1.71505e-05
0.000692351
0.00427271
0.00485245
0.0168152
1.77781
5.74039
24.7567
21.1282
101.953
254.901
135.077
137.701
176.933
155.375
60.941
118.452
41.6689
4.44633
3.59693
0.794983
0.302138
0.382871
0.0619411
0.494481
2.15111
2.21717
3.04714
4.35016
0.0436793
2.53499e-05
3.78129e-05
8.82231e-05
0.00100169
0.00191919
0.00831671
0.120542
0.000778815
0.0102471
2.53223e-06
3.84712e-09
1.45648e-10
1.53044e-11
1.23618e-11
1.8234e-11
4.1185e-11
1.00323e-10
4.38801e-10
1.74491e-09
5.0239e-09
4.8139e-08
6.48562e-08
8.9722e-07
2.1201e-06
2.07504e-05
0.00031104
0.00219177
0.00267048
0.00366025
0.845441
6.09711
20.9475
32.581
153.329
270.531
64.4998
82.9515
203.673
227.444
167.248
10.6842
18.3608
2.73792
0.000335273
0.0391769
0.00867787
0.00234269
8.62778e-12
1.32736e-10
3.79671e-11
2.38765e-11
1.52749e-11
1.4197e-11
1.30029e-11
1.28167e-11
2.06969e-10
7.01228e-07
0.000259555
0.00161496
0.00606376
0.0276832
1.69958e-05
0.0108199
2.53235e-06
3.85192e-09
1.45942e-10
1.40008e-11
9.79343e-12
9.75088e-12
9.7138e-12
9.86674e-12
1.00509e-11
1.06271e-11
1.0334e-11
1.05566e-11
1.37356e-11
1.7595e-11
2.80247e-11
1.50555e-10
8.5148e-09
4.83178e-07
2.58445e-05
0.000153273
0.0506217
0.0758071
0.253975
0.00796959
0.0377374
604.67
4.34019
94.7851
99.8266
118.855
185.028
565.76
783.311
9.44938
2.63571
0.551005
0.0813092
0.000991252
0.00277906
1.98193e-05
1.36938e-10
5.01838e-10
5.44171e-10
5.04974e-12
7.76205e-12
8.94157e-10
5.98024e-08
5.73334e-06
3.43026e-08
3.90617e-12
2.69814e-10
1.516e-07
2.28298e-06
3.52859e-06
2.53235e-06
3.84756e-09
1.46046e-10
1.41865e-11
9.81354e-12
1.01195e-11
9.70413e-12
9.62954e-12
9.77455e-12
1.00085e-11
1.0045e-11
1.0715e-11
1.22479e-11
1.95539e-11
3.10524e-11
1.76031e-10
4.12307e-09
3.07584e-07
1.80079e-05
0.000108936
0.00325609
0.0590621
0.187708
0.01258
0.303558
22.8146
1.03869
49.3084
75.8018
65.6351
153.999
369.072
12.1635
0.44912
0.0152012
0.131024
7.97066e-06
0.00012289
1.90336e-08
6.50025e-11
1.25193e-11
1.36331e-11
1.38089e-11
1.42691e-11
1.29547e-11
1.4883e-11
1.48742e-11
1.79501e-12
5.20036e-11
1.24849e-09
4.36114e-07
9.75975e-07
1.66645e-06
2.83272e-06
2.53248e-06
3.85167e-09
1.47156e-10
1.46638e-11
9.91281e-12
9.99098e-12
1.02482e-11
1.01785e-11
1.01486e-11
1.08523e-11
9.92986e-12
9.6131e-12
1.0235e-11
1.03169e-11
1.1029e-11
1.03198e-11
1.16709e-11
3.34431e-11
8.52275e-10
2.15107e-08
3.05585e-05
0.000268516
0.00760661
0.000695724
0.587365
2545.16
0.0501301
0.383934
0.195159
0.589806
0.591321
4.13437
64.7605
0.559862
0.0248161
0.0165593
2.16437e-06
1.66767e-08
5.62322e-09
1.09945e-11
1.16487e-11
1.23795e-11
9.75355e-12
6.87652e-13
9.40777e-13
2.01659e-11
4.22159e-11
1.63039e-09
2.09268e-11
1.92979e-11
1.83342e-09
9.06349e-07
4.59555e-06
2.82091e-06
2.53248e-06
3.84744e-09
1.46771e-10
1.45163e-11
9.83147e-12
1.00458e-11
1.00245e-11
1.0543e-11
9.98177e-12
9.28442e-12
9.39894e-12
9.60144e-12
9.99859e-12
1.01392e-11
1.09134e-11
1.02322e-11
1.09563e-11
2.81436e-11
6.10808e-10
1.30647e-08
3.89168e-06
0.000359083
0.00939605
0.000987318
0.00358801
15.3298
0.00229676
0.601279
0.312122
0.876839
0.272246
2.45819
0.23234
0.00417535
0.000561644
6.48129e-05
1.59741e-10
3.15609e-12
1.26011e-11
1.10034e-11
1.12932e-11
1.32978e-11
1.20468e-11
1.16346e-11
1.28294e-11
1.25176e-11
1.2781e-11
1.70249e-11
1.50835e-11
2.17573e-11
1.637e-09
9.2289e-07
3.92916e-06
2.82002e-06
2.53261e-06
3.85223e-09
1.47063e-10
1.47064e-11
9.93415e-12
1.01075e-11
1.0565e-11
9.90424e-12
9.63646e-12
1.05551e-11
1.01677e-11
9.89466e-12
9.95274e-12
1.00114e-11
1.01548e-11
1.03113e-11
1.06078e-11
1.03985e-11
1.11725e-11
1.59735e-11
1.73101e-09
2.11048e-08
9.64207e-07
5.02953e-07
0.00699034
1.0781
0.00621622
0.0917794
0.00331716
0.0281127
0.0484512
0.0358426
0.374556
0.00512881
0.00196199
2.26308e-05
7.10327e-11
2.53114e-12
1.08342e-11
1.17371e-11
1.28138e-11
1.15115e-11
1.19599e-11
1.19122e-11
1.30261e-11
1.1811e-11
1.1767e-11
1.4936e-11
1.19075e-11
1.14105e-11
1.49659e-11
1.31573e-10
3.32687e-08
1.61496e-07
2.53261e-06
3.84799e-09
1.46744e-10
1.45661e-11
9.85287e-12
1.00222e-11
1.04707e-11
9.82075e-12
9.55157e-12
1.04491e-11
9.97157e-12
9.8456e-12
1.02972e-11
1.02828e-11
1.03556e-11
1.05388e-11
1.05216e-11
1.0367e-11
1.09399e-11
1.52478e-11
2.79776e-10
2.76853e-08
1.11518e-06
6.47025e-07
1.18167e-05
0.0193907
8.78162e-05
0.123258
0.0777973
0.111245
0.00238149
0.0136265
0.00274556
0.000198089
1.70202e-07
1.79206e-11
1.12859e-11
1.05134e-11
1.12446e-11
1.15163e-11
1.27131e-11
1.2059e-11
1.15395e-11
1.13067e-11
1.36356e-11
1.21534e-11
1.04913e-11
1.17149e-11
1.37691e-11
1.2451e-11
1.93033e-11
8.55375e-10
2.24304e-07
1.67073e-07
2.53276e-06
3.85286e-09
1.45534e-10
1.40483e-11
9.77832e-12
9.89169e-12
1.01013e-11
1.00458e-11
1.00161e-11
1.03941e-11
9.91298e-12
9.76e-12
1.08196e-11
1.0002e-11
9.9841e-12
1.0685e-11
1.01919e-11
1.00285e-11
1.01604e-11
1.10019e-11
1.20388e-11
1.8877e-11
1.51109e-10
1.16213e-10
1.01488e-06
0.000144462
1.53581e-06
4.54029e-05
8.14576e-06
1.33464e-05
6.22639e-05
0.000509901
0.049888
7.78763e-05
2.00037e-07
8.08474e-11
1.15725e-11
1.09028e-11
1.08058e-11
1.15086e-11
1.16599e-11
1.25933e-11
1.48797e-11
1.40198e-11
1.4213e-11
1.12716e-11
1.0793e-11
1.02666e-11
1.01225e-11
1.03163e-11
1.47384e-11
3.80087e-10
1.51903e-07
2.42262e-07
2.53276e-06
3.84882e-09
1.45249e-10
1.39544e-11
9.66697e-12
9.91869e-12
9.69325e-12
9.61541e-12
9.69559e-12
9.91294e-12
9.81182e-12
9.67543e-12
1.02304e-11
1.02411e-11
1.02983e-11
9.93318e-12
1.00489e-11
1.0098e-11
1.03535e-11
1.04749e-11
1.13515e-11
3.31328e-11
1.67018e-10
1.29184e-10
2.33516e-09
2.66645e-06
1.68055e-08
3.19835e-05
2.05153e-05
1.71715e-05
7.24418e-06
7.51624e-05
4.73769e-05
4.52885e-09
1.12591e-10
1.21595e-11
1.09152e-11
1.08175e-11
1.09459e-11
1.1463e-11
1.13337e-11
1.1799e-11
1.30986e-11
1.13714e-11
1.46038e-11
1.19384e-11
1.04142e-11
1.14709e-11
1.29696e-11
1.18022e-11
1.67174e-11
3.19141e-10
8.23289e-08
2.00992e-07
2.53289e-06
3.85347e-09
1.45436e-10
1.40507e-11
9.79742e-12
9.91864e-12
1.00884e-11
1.00741e-11
1.00574e-11
1.04085e-11
9.92277e-12
9.59501e-12
1.02087e-11
1.01809e-11
1.02979e-11
1.02469e-11
1.08695e-11
1.02562e-11
9.97374e-12
1.02127e-11
1.05797e-11
1.06189e-11
1.08817e-11
1.24174e-11
1.58402e-12
1.69968e-08
3.51528e-10
6.51224e-09
1.28725e-09
1.60991e-09
6.2966e-09
4.8977e-08
7.1399e-06
2.78107e-08
1.75059e-10
1.18182e-11
1.2382e-11
1.13378e-11
1.08434e-11
1.25081e-11
1.20417e-11
1.31061e-11
1.35559e-11
1.28385e-11
1.50104e-11
1.19973e-11
1.12353e-11
1.10867e-11
1.13429e-11
1.10753e-11
1.52305e-11
3.53041e-10
9.56578e-08
1.27179e-07
2.5329e-06
3.8494e-09
1.45147e-10
1.39705e-11
9.56858e-12
9.63831e-12
9.84709e-12
9.75995e-12
9.89089e-12
1.03042e-11
9.81997e-12
9.52801e-12
1.01695e-11
1.01318e-11
1.01473e-11
1.01201e-11
1.07604e-11
1.02234e-11
1.02689e-11
1.12158e-11
1.02141e-11
1.06044e-11
1.25671e-11
1.08886e-11
1.35073e-11
1.45874e-09
2.48569e-11
4.29561e-09
2.66402e-09
1.92981e-09
8.14645e-10
7.48573e-09
4.92002e-09
3.76048e-11
1.14786e-11
1.05023e-11
1.14144e-11
1.11309e-11
1.1131e-11
1.23884e-11
1.18405e-11
1.23552e-11
1.24542e-11
1.26319e-11
1.37448e-11
1.14564e-11
1.01939e-11
1.08449e-11
1.10954e-11
1.14585e-11
1.86403e-11
6.16415e-10
1.64007e-07
1.90661e-07
2.53305e-06
3.85387e-09
1.4516e-10
1.40689e-11
9.85531e-12
9.46631e-12
9.4894e-12
9.34872e-12
9.25974e-12
9.37993e-12
9.34692e-12
9.64162e-12
9.60692e-12
9.59225e-12
9.80875e-12
9.75514e-12
1.0058e-11
1.08881e-11
1.01903e-11
1.01019e-11
1.0872e-11
1.10697e-11
1.08857e-11
1.11037e-11
1.13283e-11
3.45007e-11
1.47134e-11
1.63593e-11
1.27735e-11
1.31027e-11
1.63161e-11
2.37474e-11
6.85188e-10
2.90069e-11
1.14884e-11
1.20806e-11
1.18061e-11
1.33202e-11
1.22065e-11
1.23918e-11
1.20813e-11
1.2709e-11
1.29788e-11
1.27583e-11
1.5351e-11
1.25218e-11
1.13601e-11
1.15534e-11
1.29464e-11
1.24255e-11
1.47834e-11
1.55466e-10
2.48128e-08
5.8457e-08
2.53305e-06
3.84987e-09
1.44896e-10
1.37389e-11
9.46364e-12
9.69744e-12
9.47779e-12
9.45514e-12
1.00073e-11
9.95271e-12
9.99948e-12
9.9909e-12
1.03285e-11
9.95721e-12
9.85963e-12
1.00268e-11
1.0129e-11
1.0947e-11
1.02463e-11
1.02081e-11
1.07747e-11
1.08553e-11
1.08463e-11
1.06229e-11
1.0651e-11
1.58706e-11
1.12291e-11
2.20111e-11
1.98567e-11
1.77364e-11
1.57333e-11
1.6355e-11
1.45421e-11
1.21136e-11
1.15037e-11
1.23702e-11
1.18332e-11
1.32389e-11
1.21066e-11
1.23941e-11
1.2583e-11
1.2244e-11
1.18761e-11
1.21457e-11
1.20966e-11
1.19555e-11
1.08268e-11
1.29538e-11
1.31965e-11
1.3793e-11
1.66194e-11
2.1649e-10
3.73493e-08
9.57439e-08
2.53316e-06
3.85449e-09
1.45123e-10
1.38326e-11
9.5173e-12
9.76182e-12
9.44738e-12
9.33825e-12
9.98102e-12
9.63656e-12
9.6038e-12
9.87835e-12
1.06319e-11
1.05046e-11
9.99266e-12
1.03092e-11
1.02455e-11
1.0266e-11
1.02824e-11
1.12617e-11
1.02902e-11
1.01903e-11
1.11231e-11
1.10621e-11
1.08243e-11
1.11955e-11
1.18115e-11
1.09862e-11
1.09596e-11
1.15911e-11
1.11535e-11
1.19459e-11
1.41632e-11
1.27599e-11
1.23852e-11
1.24213e-11
1.16724e-11
1.22695e-11
1.18695e-11
1.257e-11
1.35684e-11
1.33479e-11
1.26442e-11
1.27446e-11
1.38458e-11
1.57992e-11
1.32195e-11
1.23031e-11
1.56867e-11
1.5795e-11
1.83834e-11
1.92982e-11
3.52549e-11
4.99222e-09
2.53317e-06
3.85044e-09
1.44831e-10
1.37449e-11
9.46134e-12
9.54385e-12
9.58897e-12
9.72541e-12
1.01431e-11
9.78761e-12
9.72527e-12
9.9187e-12
1.06486e-11
1.019e-11
9.77511e-12
1.00846e-11
1.01806e-11
1.01779e-11
1.02183e-11
1.11263e-11
1.03657e-11
1.02809e-11
1.1252e-11
1.08051e-11
1.1135e-11
1.13643e-11
1.12144e-11
1.13905e-11
1.14085e-11
1.19919e-11
1.12579e-11
1.11014e-11
1.10803e-11
1.10424e-11
1.21949e-11
1.1794e-11
1.10829e-11
1.22091e-11
1.20165e-11
1.26922e-11
1.23387e-11
1.29385e-11
1.34835e-11
1.30391e-11
1.28568e-11
1.49675e-11
1.44409e-11
1.43531e-11
1.35382e-11
1.39637e-11
1.40794e-11
1.58819e-11
6.31779e-11
1.28945e-08
2.53331e-06
3.85517e-09
1.45072e-10
1.35817e-11
9.195e-12
9.29793e-12
9.44551e-12
9.54757e-12
9.78949e-12
9.76931e-12
9.77504e-12
9.85479e-12
1.06301e-11
1.00676e-11
9.99022e-12
1.12644e-11
1.0009e-11
9.85072e-12
1.01859e-11
1.02728e-11
1.00093e-11
9.93175e-12
1.05048e-11
1.05611e-11
1.1852e-11
1.08639e-11
1.09957e-11
1.20403e-11
1.14811e-11
1.07196e-11
1.01777e-11
1.16704e-11
1.15853e-11
1.15108e-11
1.16536e-11
1.31994e-11
1.18102e-11
1.09053e-11
1.13072e-11
1.14151e-11
1.28454e-11
1.30454e-11
1.31649e-11
1.39809e-11
1.52459e-11
1.55667e-11
1.67743e-11
1.55678e-11
1.55824e-11
1.59716e-11
1.71841e-11
1.77519e-11
1.78373e-11
3.6537e-11
2.53332e-06
3.8512e-09
1.44799e-10
1.37474e-11
9.46211e-12
9.71851e-12
9.53236e-12
9.50137e-12
1.01025e-11
1.00973e-11
1.01927e-11
1.00326e-11
1.014e-11
1.08062e-11
1.00653e-11
9.69043e-12
1.0052e-11
1.00791e-11
1.01212e-11
1.02185e-11
1.03907e-11
1.05097e-11
1.05932e-11
1.1121e-11
1.08461e-11
1.09228e-11
1.14424e-11
1.17116e-11
1.25027e-11
1.10263e-11
1.01854e-11
1.14253e-11
1.10623e-11
1.09792e-11
1.14684e-11
1.33379e-11
1.18035e-11
1.08485e-11
1.16412e-11
1.15792e-11
1.29573e-11
1.2629e-11
1.33929e-11
1.5758e-11
1.58747e-11
1.67447e-11
1.52166e-11
1.46641e-11
1.48166e-11
1.55357e-11
1.58799e-11
1.60861e-11
1.55223e-11
7.4351e-11
2.53339e-06
3.85343e-09
1.46763e-10
1.51465e-11
1.02273e-11
1.03651e-11
1.07448e-11
1.01398e-11
9.34085e-12
9.90941e-12
9.60057e-12
9.61493e-12
9.91364e-12
9.80314e-12
9.78772e-12
9.74274e-12
9.85314e-12
1.00318e-11
1.08286e-11
1.0117e-11
1.00048e-11
1.0127e-11
1.00243e-11
1.00595e-11
2.45099e-11
1.28183e-11
1.105e-11
1.02174e-11
1.2228e-11
1.07596e-11
1.02465e-11
1.0902e-11
1.10346e-11
1.10681e-11
1.0876e-11
1.09052e-11
1.11502e-11
1.14648e-11
1.14862e-11
1.19998e-11
1.22178e-11
1.35803e-11
1.44712e-11
1.4741e-11
1.39325e-11
1.32426e-11
1.55808e-11
1.57484e-11
1.90149e-11
1.88767e-11
1.91518e-11
2.07711e-11
2.04655e-11
2.50919e-11
2.5334e-06
3.84893e-09
1.46393e-10
1.50458e-11
1.01807e-11
1.03142e-11
1.06927e-11
1.00574e-11
9.40184e-12
1.00168e-11
9.97542e-12
1.01512e-11
1.0096e-11
1.01442e-11
1.07839e-11
1.01271e-11
9.76151e-12
1.05366e-11
1.04865e-11
1.11305e-11
1.01406e-11
9.90619e-12
9.97495e-12
1.03503e-11
1.17387e-11
1.12059e-11
9.81211e-12
1.07652e-11
1.09444e-11
1.12425e-11
1.10664e-11
1.15914e-11
1.12554e-11
1.1575e-11
1.06737e-11
1.0676e-11
1.12922e-11
1.31037e-11
1.21298e-11
1.09418e-11
1.52895e-11
1.30884e-11
1.22102e-11
1.36384e-11
1.35105e-11
1.55579e-11
1.57122e-11
2.08824e-11
1.81283e-11
1.5872e-11
2.01365e-11
1.78998e-11
1.6313e-11
2.16663e-11
2.53327e-06
3.87055e-09
1.46463e-10
1.47088e-11
1.03857e-11
1.05289e-11
1.10813e-11
1.01183e-11
9.9897e-12
1.14605e-11
1.01308e-11
9.79517e-12
1.05969e-11
1.05493e-11
1.05359e-11
1.07231e-11
1.08513e-11
1.08405e-11
1.05013e-11
1.06015e-11
1.15474e-11
1.03608e-11
9.83248e-12
1.42427e-11
3.66272e-10
0.00282375
1.88147e-07
2.10895e-10
1.19516e-11
1.09327e-11
1.0982e-11
1.07096e-11
1.09492e-11
1.27971e-11
1.14374e-11
1.03127e-11
1.10051e-11
1.06643e-11
1.14543e-11
1.19169e-11
1.17787e-11
1.2032e-11
1.25185e-11
1.25569e-11
1.27467e-11
1.38425e-11
1.50623e-11
1.5138e-11
1.59364e-11
1.90721e-11
1.89838e-11
1.72706e-11
1.94885e-11
2.57337e-11
2.53354e-06
3.84859e-09
1.45669e-10
1.46619e-11
9.74191e-12
9.99409e-12
1.07286e-11
1.00455e-11
9.88674e-12
1.11818e-11
9.86145e-12
9.74434e-12
9.88031e-12
9.87085e-12
1.0154e-11
1.00946e-11
1.03563e-11
1.0414e-11
1.09637e-11
1.02709e-11
1.0007e-11
1.12477e-11
1.05961e-11
1.49926e-11
2.47438e-05
1.75671e-06
3.5789e-10
1.22619e-11
9.91202e-12
1.11953e-11
1.13958e-11
1.1512e-11
1.15678e-11
1.2793e-11
1.1129e-11
1.04692e-11
1.06982e-11
1.15796e-11
1.13755e-11
1.11769e-11
1.37342e-11
1.23059e-11
1.18975e-11
1.25712e-11
1.26399e-11
1.34684e-11
1.42835e-11
1.96835e-11
1.7324e-11
1.4185e-11
1.6541e-11
1.66345e-11
1.65841e-11
2.24662e-11
2.53357e-06
3.85307e-09
1.46436e-10
1.51464e-11
1.0232e-11
1.03657e-11
1.07315e-11
1.013e-11
9.81692e-12
1.06839e-11
1.05912e-11
1.08104e-11
1.04814e-11
1.04477e-11
1.10581e-11
1.02285e-11
9.60575e-12
1.02725e-11
1.01915e-11
1.01671e-11
1.03583e-11
1.04205e-11
1.03074e-11
1.65368e-11
0.00746167
0.0169495
0.00231716
0.00022443
5.95479e-06
2.05201e-09
1.5816e-11
1.11271e-11
1.1627e-11
1.08848e-11
1.06221e-11
1.17115e-11
1.1611e-11
1.16793e-11
1.3197e-11
1.2159e-11
1.21731e-11
1.46705e-11
1.39591e-11
1.40763e-11
1.46532e-11
1.42883e-11
1.464e-11
1.51878e-11
1.86474e-11
2.03705e-11
2.26863e-11
2.17306e-11
2.25217e-11
3.59724e-11
2.54987e-06
3.91547e-09
1.48013e-10
1.50127e-11
1.05602e-11
9.8143e-12
9.91328e-12
1.12582e-11
9.99781e-12
9.8948e-12
1.10121e-11
9.8197e-12
9.70422e-12
1.05807e-11
1.04073e-11
1.0348e-11
1.04882e-11
1.02635e-11
1.01328e-11
1.11394e-11
1.03361e-11
1.00103e-11
1.50849e-11
1.10887e-10
0.0242014
0.00744614
0.0023641
0.00125761
3.76788e-06
1.2716e-09
1.42138e-11
1.15048e-11
1.1492e-11
1.18001e-11
1.25381e-11
1.10449e-11
1.07446e-11
1.28397e-11
1.16349e-11
1.10503e-11
1.14013e-11
1.16442e-11
1.24496e-11
1.63132e-11
1.65758e-11
1.45545e-11
1.44609e-11
1.47111e-11
1.80525e-11
2.00531e-11
3.03478e-11
2.41044e-11
1.96199e-11
4.01246e-11
2.54765e-06
3.94024e-09
1.47873e-10
1.45051e-11
1.00076e-11
1.01213e-11
1.10835e-11
1.01075e-11
9.95103e-12
1.126e-11
9.95842e-12
9.80122e-12
1.06378e-11
1.05345e-11
1.07495e-11
1.06207e-11
1.06632e-11
1.11871e-11
1.02136e-11
9.9154e-12
1.11926e-11
1.07307e-11
7.53777e-10
0.00442822
0.33657
0.0283526
0.000159727
3.01825e-05
2.82309e-08
3.69875e-11
1.25681e-11
1.08204e-11
1.04865e-11
1.15528e-11
1.16112e-11
1.35151e-11
1.22295e-11
1.19695e-11
1.15406e-11
1.20991e-11
1.29897e-11
1.25555e-11
1.38841e-11
1.42062e-11
1.40738e-11
1.44438e-11
1.97781e-11
1.82988e-11
1.66868e-11
1.82025e-11
1.72164e-11
1.86983e-11
2.92031e-11
2.53114e-06
3.88435e-09
1.4803e-10
1.48859e-11
1.02651e-11
1.11733e-11
1.00848e-11
9.41451e-12
1.00569e-11
9.98832e-12
1.0018e-11
1.03934e-11
9.82702e-12
9.71825e-12
1.03579e-11
1.04063e-11
1.06194e-11
1.08174e-11
1.00719e-11
9.9961e-12
1.13054e-11
1.11345e-11
3.38021e-13
0.00716328
0.335484
0.026042
0.000859003
0.000104149
3.57372e-08
3.87623e-11
1.10348e-11
1.027e-11
1.0205e-11
1.07615e-11
1.13144e-11
1.12883e-11
1.13187e-11
1.16087e-11
1.14476e-11
1.24819e-11
1.28559e-11
1.48683e-11
1.36677e-11
1.2357e-11
1.333e-11
1.29463e-11
1.26423e-11
1.27871e-11
1.3661e-11
1.55479e-11
1.88667e-11
2.08028e-11
3.19709e-11
2.53344e-06
3.87636e-09
1.46442e-10
1.504e-11
1.06159e-11
9.66735e-12
9.77998e-12
1.08817e-11
1.03954e-11
1.03702e-11
1.10597e-11
1.0051e-11
9.89825e-12
1.10912e-11
1.08543e-11
1.06629e-11
1.08184e-11
1.09585e-11
1.11661e-11
1.02928e-11
1.02565e-11
1.58969e-11
1.07941e-06
9.59045e-06
0.00233492
0.00299927
0.000324972
3.73418e-05
1.4893e-07
1.1867e-10
1.15461e-11
1.08785e-11
1.11953e-11
1.16004e-11
1.1672e-11
1.14646e-11
1.15969e-11
1.28634e-11
1.25647e-11
1.26104e-11
1.42862e-11
1.44748e-11
1.44409e-11
1.51294e-11
1.51858e-11
1.5368e-11
1.94702e-11
1.61628e-11
1.38187e-11
1.76258e-11
1.92367e-11
2.08785e-11
2.15384e-11
3.08081e-11
2.53346e-06
3.87236e-09
1.46237e-10
1.496e-11
1.05574e-11
9.6376e-12
9.72313e-12
1.08128e-11
1.03462e-11
1.03273e-11
1.09861e-11
1.00589e-11
9.55975e-12
1.02268e-11
1.00225e-11
1.00381e-11
1.02743e-11
1.09358e-11
1.01631e-11
9.76785e-12
1.10184e-11
1.03411e-11
3.56328e-10
2.84024e-05
0.00717499
0.0039373
0.000594399
0.000293279
2.80665e-07
1.76199e-10
1.17577e-11
1.22286e-11
1.05642e-11
1.02915e-11
1.06128e-11
1.06705e-11
1.17733e-11
1.17669e-11
1.20848e-11
1.28146e-11
1.17473e-11
1.14513e-11
1.22423e-11
1.46837e-11
1.33016e-11
1.26856e-11
1.47503e-11
1.37469e-11
1.58697e-11
1.73827e-11
1.95057e-11
2.21375e-11
2.53587e-11
3.37241e-11
2.53381e-06
3.85407e-09
1.45833e-10
1.54042e-11
1.05123e-11
1.06406e-11
1.06174e-11
1.11366e-11
1.0077e-11
9.94495e-12
1.12342e-11
1.0202e-11
9.78241e-12
1.00141e-11
1.06224e-11
1.01234e-11
1.00261e-11
1.14933e-11
1.01205e-11
9.94107e-12
1.10934e-11
1.05275e-11
4.00791e-12
5.13653e-09
7.23003e-06
0.000358041
3.74569e-05
3.23188e-08
5.52102e-11
1.10318e-11
1.11887e-11
1.0531e-11
1.04317e-11
1.06732e-11
1.03413e-11
1.08436e-11
1.10575e-11
1.235e-11
1.12422e-11
1.09052e-11
1.32927e-11
1.33033e-11
1.33419e-11
1.3512e-11
1.56555e-11
1.41378e-11
1.37734e-11
1.44676e-11
1.37663e-11
1.46307e-11
1.74078e-11
1.97535e-11
2.20481e-11
3.45757e-11
2.53382e-06
3.85048e-09
1.45661e-10
1.53263e-11
1.04595e-11
1.05864e-11
1.05642e-11
1.10794e-11
1.00232e-11
9.92468e-12
1.11697e-11
1.01748e-11
9.70617e-12
9.87054e-12
9.87613e-12
1.0248e-11
1.02969e-11
1.08897e-11
1.01314e-11
9.95535e-12
1.07897e-11
1.07785e-11
1.20643e-11
8.88588e-09
1.04042e-10
0.00106398
3.03323e-05
4.00646e-08
6.89892e-11
1.09812e-11
1.18324e-11
1.07379e-11
1.03349e-11
1.08882e-11
1.08827e-11
1.08546e-11
1.11154e-11
1.29404e-11
1.33411e-11
1.34628e-11
1.47647e-11
1.25606e-11
1.18002e-11
1.24816e-11
1.4358e-11
1.40824e-11
1.39689e-11
1.8912e-11
1.79807e-11
1.81492e-11
2.31845e-11
2.03438e-11
1.87204e-11
3.26156e-11
2.53379e-06
3.85629e-09
1.4518e-10
1.50949e-11
1.02814e-11
1.04136e-11
1.03094e-11
1.05476e-11
1.07157e-11
1.03107e-11
1.03795e-11
1.10694e-11
1.0115e-11
9.61382e-12
1.04487e-11
1.0453e-11
1.11257e-11
1.01834e-11
9.74676e-12
1.00167e-11
9.94645e-12
1.00297e-11
1.03943e-11
1.44212e-11
1.05243e-11
8.48741e-09
9.04235e-10
1.78656e-11
1.00387e-11
1.02421e-11
1.2097e-11
1.0291e-11
1.00724e-11
1.04653e-11
1.0505e-11
1.26306e-11
1.10272e-11
1.0507e-11
1.23531e-11
1.22531e-11
1.24127e-11
1.23419e-11
1.23385e-11
1.26655e-11
1.42705e-11
1.34849e-11
1.35386e-11
1.53715e-11
1.5393e-11
1.5622e-11
1.56821e-11
2.02166e-11
2.02126e-11
3.1571e-11
2.53381e-06
3.8528e-09
1.44952e-10
1.50146e-11
1.02303e-11
1.03611e-11
1.02551e-11
1.04905e-11
1.0701e-11
1.04865e-11
1.05007e-11
1.10169e-11
9.99011e-12
9.58482e-12
1.01622e-11
1.02104e-11
1.09717e-11
1.01084e-11
9.83532e-12
1.02481e-11
1.03572e-11
1.11172e-11
1.07515e-11
1.22226e-11
1.47922e-12
2.24846e-08
7.39895e-10
2.16741e-11
1.10741e-11
1.06406e-11
1.07197e-11
1.20348e-11
1.06873e-11
1.03324e-11
1.0672e-11
1.15505e-11
1.09234e-11
1.05291e-11
1.136e-11
1.15694e-11
1.13683e-11
1.1337e-11
1.23178e-11
1.2701e-11
1.69677e-11
1.45461e-11
1.36706e-11
2.26014e-11
1.74059e-11
1.58243e-11
2.35239e-11
2.3978e-11
2.44861e-11
3.36899e-11
2.53388e-06
3.85655e-09
1.45019e-10
1.48572e-11
9.86417e-12
9.99908e-12
1.01744e-11
1.03384e-11
1.04644e-11
1.0663e-11
1.09158e-11
9.97269e-12
9.77777e-12
1.062e-11
1.05161e-11
1.07093e-11
1.03691e-11
1.02149e-11
1.03948e-11
1.07466e-11
1.00159e-11
1.00145e-11
1.0296e-11
1.06432e-11
1.02384e-11
1.18088e-11
1.28734e-11
1.04347e-11
1.01871e-11
1.04717e-11
1.08106e-11
1.06289e-11
1.0649e-11
1.24401e-11
1.15472e-11
1.15779e-11
1.35862e-11
1.1455e-11
1.11704e-11
1.2992e-11
1.2629e-11
1.1346e-11
1.21163e-11
1.29946e-11
1.28528e-11
1.47001e-11
1.83617e-11
1.52025e-11
1.43648e-11
1.73059e-11
1.66378e-11
1.80063e-11
2.07185e-11
2.94005e-11
2.5339e-06
3.85305e-09
1.44808e-10
1.47958e-11
9.82184e-12
9.95468e-12
1.01422e-11
1.02744e-11
1.04186e-11
1.06179e-11
1.09026e-11
9.93975e-12
9.73395e-12
1.01806e-11
1.02164e-11
1.01197e-11
1.01366e-11
1.09346e-11
1.08245e-11
1.09226e-11
9.87534e-12
9.91311e-12
1.00364e-11
1.00924e-11
1.04008e-11
1.36366e-11
1.21327e-11
1.10782e-11
1.10777e-11
1.11395e-11
1.17926e-11
1.04492e-11
1.02846e-11
1.2443e-11
1.11109e-11
1.1081e-11
1.35607e-11
1.15234e-11
1.11662e-11
1.3045e-11
1.23167e-11
1.10812e-11
1.21214e-11
1.27402e-11
1.35087e-11
1.4519e-11
1.75679e-11
1.68515e-11
1.40489e-11
1.5211e-11
1.72915e-11
1.87815e-11
1.95364e-11
2.9858e-11
2.53385e-06
3.8569e-09
1.44993e-10
1.48559e-11
9.86925e-12
1.0001e-11
1.01856e-11
1.03611e-11
1.04109e-11
1.06402e-11
1.09109e-11
1.02764e-11
1.02536e-11
1.11598e-11
1.01812e-11
9.98248e-12
9.97703e-12
1.00111e-11
1.04689e-11
1.05196e-11
1.12354e-11
1.01515e-11
1.01257e-11
1.17948e-11
1.0366e-11
9.99413e-12
1.01901e-11
1.03421e-11
1.01659e-11
1.01981e-11
1.04966e-11
1.07307e-11
1.06485e-11
1.06855e-11
1.26976e-11
1.24831e-11
1.2745e-11
1.38189e-11
1.19626e-11
1.15073e-11
1.30142e-11
1.34462e-11
1.45244e-11
1.43448e-11
1.37257e-11
1.32407e-11
1.49651e-11
1.94928e-11
1.74802e-11
1.62329e-11
2.43672e-11
2.08362e-11
2.00835e-11
2.82634e-11
2.53388e-06
3.85343e-09
1.44764e-10
1.47927e-11
9.82774e-12
9.95366e-12
1.01258e-11
1.02901e-11
1.03487e-11
1.05383e-11
1.08973e-11
1.02399e-11
1.02142e-11
1.11199e-11
1.02e-11
9.77996e-12
1.04725e-11
1.00783e-11
9.8815e-12
1.01808e-11
1.08977e-11
1.00965e-11
1.00822e-11
1.17537e-11
1.01221e-11
9.90108e-12
1.01552e-11
1.03939e-11
1.02455e-11
1.01971e-11
1.1013e-11
1.11608e-11
1.14353e-11
1.1472e-11
1.26266e-11
1.24784e-11
1.26141e-11
2.63595e-11
1.2687e-11
1.10291e-11
1.69487e-11
2.0216e-11
8.60032e-11
2.20678e-11
1.68081e-11
1.74033e-11
2.23974e-11
1.83317e-11
1.64322e-11
1.98762e-11
1.86248e-11
1.99898e-11
2.0682e-11
3.08835e-11
2.53393e-06
3.85694e-09
1.44828e-10
1.48688e-11
9.86428e-12
1.00024e-11
1.01939e-11
1.03574e-11
1.04317e-11
1.06653e-11
1.09385e-11
9.90492e-12
9.75713e-12
1.02261e-11
1.02194e-11
1.10877e-11
1.00224e-11
9.44628e-12
9.60071e-12
9.6371e-12
1.00175e-11
1.02215e-11
1.09817e-11
1.02088e-11
1.01496e-11
1.14054e-11
1.02619e-11
1.01067e-11
1.02394e-11
1.0514e-11
1.01612e-11
9.8039e-12
1.08615e-11
1.08361e-11
1.06325e-11
9.99899e-12
4.27933e-11
1.63645e-11
1.13137e-11
1.84583e-11
1.17191e-10
2.70563e-10
8.73226e-11
2.04639e-11
1.82021e-11
2.76626e-11
4.94387e-11
3.34592e-11
1.8872e-11
1.86964e-11
2.09442e-11
2.18044e-11
2.35325e-11
2.75052e-11
2.53395e-06
3.85349e-09
1.44617e-10
1.47914e-11
9.80193e-12
9.947e-12
1.01165e-11
1.02968e-11
1.03537e-11
1.05467e-11
1.08764e-11
9.87012e-12
9.71701e-12
1.01845e-11
1.02086e-11
1.10172e-11
9.99865e-12
9.58175e-12
9.97542e-12
9.98484e-12
1.00215e-11
1.00064e-11
1.09999e-11
1.01884e-11
1.0016e-11
1.11687e-11
1.08284e-11
1.07904e-11
1.15544e-11
1.02249e-11
1.00946e-11
1.17056e-11
1.0482e-11
1.03093e-11
1.06234e-11
1.04987e-11
2.91596e-11
2.1306e-08
8.02788e-11
7.11539e-12
8.74765e-10
8.13544e-09
2.1928e-07
1.81797e-09
2.28349e-10
1.57929e-10
9.54483e-11
3.89897e-11
1.95184e-11
1.90169e-11
1.89147e-11
1.94344e-11
1.89957e-11
2.78551e-11
2.53388e-06
3.85687e-09
1.44712e-10
1.48561e-11
1.00399e-11
1.01674e-11
1.01708e-11
1.03784e-11
1.04257e-11
1.10678e-11
1.01464e-11
9.60358e-12
1.02644e-11
1.02325e-11
1.02502e-11
1.03025e-11
1.08671e-11
9.87627e-12
9.57166e-12
1.05686e-11
1.03676e-11
1.02381e-11
1.05228e-11
1.05355e-11
1.09849e-11
1.02468e-11
9.93594e-12
1.07103e-11
1.06755e-11
1.0395e-11
1.04092e-11
1.13237e-11
1.0952e-11
1.08949e-11
1.29969e-11
7.67494e-10
1.05851e-07
6.7863e-09
5.35901e-11
8.96529e-09
2.84574e-07
8.27667e-07
1.175e-07
4.29608e-09
2.96151e-10
9.00481e-09
2.85558e-08
1.08972e-09
2.45643e-11
1.80501e-11
2.46928e-11
2.29916e-11
1.80353e-11
8.0841e-11
2.53391e-06
3.85353e-09
1.44506e-10
1.47834e-11
9.98256e-12
1.00989e-11
1.01051e-11
1.0317e-11
1.04072e-11
1.10183e-11
1.00794e-11
9.56579e-12
1.0226e-11
9.99363e-12
1.00164e-11
1.04756e-11
9.93993e-12
9.64216e-12
9.81328e-12
9.79851e-12
9.92269e-12
9.91312e-12
1.00785e-11
1.03797e-11
1.14e-11
1.01459e-11
9.89172e-12
1.09026e-11
1.02247e-11
1.01336e-11
1.03922e-11
1.02633e-11
1.1029e-11
1.13339e-11
1.12224e-11
4.01015e-10
4.04451e-08
0.000531467
2.64584e-07
1.38032e-08
1.99097e-06
1.63245e-05
0.000957644
3.26085e-06
1.19436e-07
6.3632e-08
8.94149e-08
2.82594e-09
3.77451e-11
2.09931e-11
1.93527e-11
2.55051e-11
2.26154e-11
5.08071e-11
2.53394e-06
3.85684e-09
1.44578e-10
1.48674e-11
9.84306e-12
9.97062e-12
1.0201e-11
1.0616e-11
1.03088e-11
1.0256e-11
1.01875e-11
1.02465e-11
1.10704e-11
1.00319e-11
9.91539e-12
1.05494e-11
1.06132e-11
1.15226e-11
1.00708e-11
9.65974e-12
9.9249e-12
9.9203e-12
1.1137e-11
1.01813e-11
1.00754e-11
1.14965e-11
1.03389e-11
1.02407e-11
1.15191e-11
1.02282e-11
9.74676e-12
1.05572e-11
1.04946e-11
6.02474e-12
7.39926e-10
2.56786e-05
0.00350794
7.97554e-05
4.21046e-08
1.96902e-07
1.24337e-05
5.97675e-05
5.77746e-05
1.00484e-05
4.72006e-07
1.86007e-05
3.85786e-05
6.09157e-07
6.54147e-10
2.75111e-11
1.65812e-11
2.0536e-11
4.3856e-10
4.16834e-08
2.53395e-06
3.85355e-09
1.44388e-10
1.48069e-11
9.80433e-12
9.93022e-12
1.01551e-11
1.03649e-11
1.03172e-11
1.05279e-11
1.01154e-11
1.00645e-11
1.10358e-11
1.00052e-11
9.85969e-12
1.05452e-11
1.06055e-11
1.14936e-11
1.0042e-11
9.63412e-12
1.00954e-11
1.00809e-11
1.02779e-11
1.06937e-11
1.01883e-11
9.60696e-12
1.02424e-11
1.02704e-11
1.12987e-11
1.0276e-11
9.81712e-12
1.06996e-11
1.02921e-11
1.03091e-11
3.05358e-11
1.05995e-09