/*--------------------------------*- C++ -*----------------------------------*\
| =========                 |                                                 |
| \\      /  F ield         | OpenFOAM: The Open Source CFD Toolbox           |
|  \\    /   O peration     | Version:  4.1                                   |
|   \\  /    A nd           | Web:      www.OpenFOAM.org                      |
|    \\/     M anipulation  |                                                 |
\*---------------------------------------------------------------------------*/
FoamFile
{
    version     2.0;
    format      ascii;
    class       volScalarField;
    location    "8";
    object      omega;
}
// * * * * * * * * * * * * * * * * * * * * * * * * * * * * * * * * * * * * * //

dimensions      [0 0 -1 0 0 0 0];

internalField   nonuniform List<scalar> 
4432
(
0.0110792
0.0115039
0.0119223
0.0124038
0.0128179
0.0132457
0.0135645
0.0138407
0.0141142
0.0143556
0.0146029
0.0149205
0.0152794
0.0157144
0.0160058
0.0174897
0.0198831
0.023316
0.0208553
0.0223004
0.0230641
0.0215894
0.0225764
0.0237184
0.0238835
0.0239117
0.0238569
0.0233265
0.0229544
0.0214796
0.0240145
0.022671
0.0254743
0.024778
0.0239001
0.0208149
0.022164
0.0210762
0.0178252
0.018669
0.0176498
0.0169367
0.0157271
0.0147903
0.0147413
0.0135389
0.0129689
0.0115855
0.011589
0.0103933
0.0124124
0.0198523
0.00754416
0.0367303
0.0110936
0.0114871
0.0118929
0.0123405
0.0127605
0.0131428
0.0134861
0.013712
0.014005
0.0142073
0.014508
0.0148141
0.0151188
0.015412
0.0156205
0.0166687
0.0185903
0.0207317
0.0189881
0.0198646
0.0202606
0.0191431
0.0194036
0.0200826
0.0215171
0.0215988
0.0206723
0.0225479
0.0221678
0.0206007
0.0233354
0.0219021
0.0248965
0.0241777
0.0233009
0.0202444
0.0221186
0.0209774
0.0176159
0.0186036
0.0175547
0.0169717
0.0157936
0.0153226
0.0153292
0.0128777
0.0124861
0.0112519
0.0103073
0.0099716
0.0120463
0.0200973
0.00884608
0.0359844
19.995
2.37948
0.641123
0.27837
0.147952
0.160843
0.193497
0.192759
0.172449
0.147854
0.126527
0.109425
0.094067
0.0802922
0.0688034
0.0603685
0.100271
0.115904
0.0931292
0.120937
0.137852
0.134823
0.124397
0.145924
0.12763
0.137431
0.153003
0.144201
0.118671
0.130217
0.133557
0.135929
0.154125
0.18392
0.224539
0.279834
0.338615
0.407721
0.484395
0.565879
0.652917
0.742777
0.815876
0.839768
0.859258
0.847263
0.97703
1.00878
1.0933
1.23704
1.58828
2.11142
3.00172
3.31012
19.9958
2.37614
0.637225
0.277127
0.14061
0.151432
0.188393
0.186846
0.168204
0.146787
0.124641
0.10794
0.0918529
0.0786837
0.065173
0.0639997
0.103304
0.109711
0.0698171
0.0904775
0.0921491
0.102575
0.113764
0.125772
0.122652
0.118143
0.113254
0.104005
0.109618
0.106377
0.112496
0.123555
0.149611
0.183903
0.233016
0.298421
0.367491
0.44864
0.537088
0.626303
0.711647
0.786279
0.848636
0.863003
0.871747
0.855576
0.969174
1.03653
1.09456
1.27208
1.52565
2.22606
2.97032
3.25704
19.9933
2.38147
0.642913
0.280051
0.116493
0.122856
0.16685
0.182463
0.170955
0.148476
0.128891
0.111383
0.0970834
0.0868378
0.0787995
0.0709301
0.0864109
0.10245
0.0847629
0.0922361
0.104471
0.106316
0.107121
0.119794
0.110662
0.119954
0.124602
0.125034
0.130856
0.134263
0.141908
0.169718
0.211029
0.27335
0.32106
0.365606
0.410281
0.456926
0.514414
0.590898
0.683121
0.765067
0.824155
0.797114
0.653591
0.496457
0.54975
0.389408
0.496458
0.7054
1.16831
1.70046
2.60434
3.23553
19.9944
2.37675
0.637224
0.27576
0.0976723
0.128347
0.181399
0.183675
0.168485
0.14755
0.125567
0.1092
0.0945435
0.0840431
0.075154
0.068361
0.0886782
0.108393
0.124449
0.126496
0.135595
0.13275
0.122709
0.124762
0.122529
0.124353
0.142762
0.149529
0.154808
0.162894
0.169067
0.18746
0.22353
0.281838
0.334895
0.383185
0.440513
0.507791
0.559912
0.627145
0.694225
0.750372
0.796659
0.744166
0.635269
0.558061
0.382715
0.712851
0.612348
0.998001
1.2241
1.71923
2.55796
3.22598
19.9924
2.3791
0.646284
0.275357
0.118746
0.12715
0.169972
0.188272
0.174541
0.150772
0.13204
0.116046
0.101189
0.0900029
0.0810378
0.0742581
0.0791413
0.0935595
0.139159
0.146704
0.158238
0.163436
0.14792
0.165329
0.166584
0.169821
0.166774
0.169047
0.158005
0.161399
0.168776
0.194544
0.228656
0.285295
0.330659
0.389274
0.436059
0.494849
0.536636
0.57201
0.574473
0.53519
0.484239
0.528379
0.672644
0.771326
0.707055
0.722259
0.694019
0.63779
0.761119
0.909558
1.67579
2.37637
19.9933
2.37603
0.641093
0.260679
0.133875
0.122587
0.163847
0.182256
0.172593
0.154399
0.134063
0.118051
0.102262
0.0911146
0.0818422
0.0718099
0.0808474
0.12618
0.128503
0.129806
0.129344
0.126091
0.116912
0.133221
0.131679
0.160203
0.167486
0.162985
0.16616
0.167373
0.177098
0.209826
0.218488
0.284103
0.358122
0.421988
0.459334
0.486459
0.510844
0.506997
0.443136
0.370626
0.479193
0.463386
0.434227
0.535372
0.510278
0.570912
0.663712
0.666954
0.830382
1.09401
1.60822
2.37815
19.9913
2.37982
0.641105
0.283643
0.150587
0.135905
0.17914
0.187141
0.170138
0.149624
0.129385
0.113051
0.0997988
0.0886122
0.080285
0.0748503
0.0763239
0.0898915
0.0995016
0.104159
0.1188
0.143635
0.138422
0.144741
0.152792
0.160656
0.156418
0.183753
0.198298
0.213983
0.225175
0.238663
0.264389
0.301158
0.33727
0.383248
0.411133
0.436844
0.425013
0.400567
0.385021
0.443819
0.474121
0.438619
0.458327
0.638756
0.631754
0.801277
0.819415
0.549325
0.702433
0.79232
1.26979
1.66182
19.9922
2.37539
0.643702
0.271144
0.120084
0.1215
0.19239
0.187787
0.170702
0.149887
0.130934
0.115406
0.104064
0.0928381
0.0838099
0.0770963
0.0689879
0.111312
0.116199
0.122149
0.120307
0.131294
0.134488
0.142128
0.17433
0.149177
0.173958
0.185733
0.204282
0.187046
0.231251
0.241978
0.282727
0.319018
0.325996
0.388107
0.417622
0.412948
0.380806
0.271165
0.309373
0.36178
0.412339
0.450104
0.424767
0.439054
0.40445
0.613416
0.749637
0.699755
0.855285
1.08394
1.23261
1.5216
19.9888
2.38237
0.644121
0.273255
0.101722
0.145525
0.203429
0.198478
0.184433
0.160569
0.13938
0.120677
0.105612
0.0936226
0.0843562
0.0776518
0.0747682
0.0806132
0.0864081
0.0961798
0.0921241
0.108712
0.116899
0.141638
0.142084
0.157335
0.184801
0.189199
0.195476
0.204419
0.204809
0.204965
0.227188
0.259709
0.298773
0.335345
0.326747
0.312863
0.293619
0.334778
0.434267
0.471174
0.50813
0.499086
0.577962
0.630597
0.484386
0.6343
0.793208
0.533834
0.49859
0.620865
0.947821
1.60918
19.9897
2.38004
0.641283
0.28326
0.0781066
0.132001
0.200226
0.195623
0.181697
0.160898
0.138971
0.118803
0.104303
0.0922036
0.083147
0.0767582
0.0692464
0.0986048
0.0948463
0.099137
0.102889
0.106416
0.111317
0.131332
0.140731
0.15231
0.181011
0.179125
0.194286
0.19455
0.201486
0.19269
0.204033
0.258331
0.250749
0.27129
0.246625
0.287571
0.233003
0.249612
0.322192
0.382563
0.423304
0.458154
0.48406
0.461307
0.436737
0.495108
0.605479
0.574014
0.657898
0.803802
1.14413
1.56948
19.9874
2.38169
0.636842
0.305306
0.136921
0.173496
0.198354
0.197726
0.179864
0.161766
0.142096
0.126029
0.11259
0.101189
0.0918219
0.0835514
0.0774177
0.0750178
0.0746163
0.0867644
0.0813937
0.0875661
0.0922493
0.118011
0.118108
0.14063
0.160582
0.164366
0.164338
0.162558
0.173222
0.172309
0.173585
0.209913
0.229173
0.222287
0.223826
0.233989
0.253547
0.304106
0.376805
0.471948
0.524966
0.372278
0.158402
0.361673
0.371431
0.556692
0.746323
0.485841
0.543121
0.717503
0.546515
0.741039
19.9881
2.37835
0.634147
0.306798
0.131226
0.167622
0.194802
0.195508
0.179174
0.158713
0.140761
0.123722
0.109106
0.0966572
0.0865997
0.0794368
0.0717578
0.0834267
0.0804579
0.0815311
0.0906804
0.0894167
0.0906295
0.111424
0.112989
0.118119
0.147867
0.150512
0.159116
0.163076
0.17278
0.170498
0.165265
0.206101
0.208234
0.218006
0.224568
0.244667
0.236155
0.271253
0.29021
0.275962
0.250947
0.376585
0.438178
0.472981
0.379149
0.426517
0.524402
0.540918
0.706661
0.709653
0.781442
1.05307
19.9848
2.3792
0.6447
0.263627
0.187476
0.166979
0.195253
0.207509
0.188649
0.163508
0.139893
0.122095
0.108639
0.0979236
0.0887083
0.0821008
0.0769762
0.0716985
0.0731758
0.0768187
0.0744917
0.076638
0.079237
0.0957127
0.100338
0.107526
0.127338
0.138534
0.130998
0.134721
0.141047
0.128791
0.133927
0.126914
0.12899
0.137368
0.146615
0.159006
0.178002
0.185803
0.228259
0.221448
0.243815
0.206736
0.321769
0.348055
0.302522
0.531976
0.639901
0.407537
0.781297
0.782748
0.840103
0.870555
19.9856
2.37663
0.642584
0.259586
0.181592
0.16033
0.188822
0.205137
0.188622
0.162483
0.139594
0.121562
0.107228
0.095735
0.0860148
0.0791163
0.0721016
0.0754853
0.0735265
0.0721198
0.0808492
0.0789843
0.0778202
0.0863325
0.0889258
0.0966057
0.115132
0.118829
0.117534
0.122819
0.138695
0.135942
0.135766
0.133937
0.139977
0.140123
0.144555
0.152677
0.177311
0.17643
0.175402
0.170498
0.15403
0.315404
0.447165
0.421675
0.390264
0.388376
0.435551
0.38174
0.594773
0.645056
0.70552
0.550307
19.9831
2.37853
0.632234
0.323236
0.150142
0.172972
0.217998
0.217442
0.193933
0.166122
0.147428
0.129385
0.117578
0.103443
0.0910608
0.0849763
0.0771851
0.0724902
0.070191
0.0707027
0.0694744
0.0713404
0.0719643
0.0783994
0.0847737
0.0915013
0.0938271
0.0997176
0.11026
0.110835
0.115086
0.113822
0.103482
0.102105
0.0997319
0.103068
0.109038
0.119216
0.128353
0.134983
0.143608
0.147919
0.152699
0.171425
0.200105
0.243438
0.454836
0.382998
0.287205
0.488545
1.05803
1.10438
0.955256
1.06188
19.9838
2.37615
0.645477
0.283255
0.13671
0.163187
0.213685
0.216433
0.193943
0.16629
0.146225
0.129893
0.115081
0.104683
0.0917542
0.0832852
0.0739943
0.07222
0.0679468
0.0698717
0.0728358
0.0712691
0.07157
0.0743849
0.0773242
0.0817183
0.0889628
0.0962747
0.0958024
0.101582
0.111949
0.109125
0.10611
0.105834
0.107141
0.105201
0.108896
0.114887
0.118277
0.148455
0.13725
0.136073
0.142846
0.167652
0.207024
0.486329
0.474172
0.515788
0.521486
0.57653
0.855792
0.943645
0.929936
1.04408
19.9799
2.37862
0.645866
0.288602
0.165642
0.204781
0.215492
0.210307
0.188318
0.165484
0.145955
0.132671
0.117819
0.109369
0.0968329
0.0883156
0.0791548
0.0747402
0.0716097
0.0697834
0.0668769
0.0671887
0.0672628
0.0690397
0.0758429
0.0783734
0.0808436
0.0827613
0.0881084
0.0913345
0.0950259
0.0994284
0.0965227
0.091266
0.0907128
0.0906197
0.0904328
0.092089
0.0944617
0.102685
0.107874
0.121129
0.123933
0.137043
0.154615
0.194128
0.269051
0.344358
0.478441
0.690804
0.892733
0.90173
0.855014
0.795512
19.9806
2.37962
0.644851
0.275468
0.110093
0.160965
0.219175
0.222474
0.191081
0.166305
0.146422
0.130511
0.118498
0.108588
0.097153
0.0898828
0.0807247
0.0750281
0.0710821
0.0670434
0.0677005
0.0672695
0.0670059
0.0674347
0.0699479
0.0722108
0.0772337
0.0810358
0.0832172
0.0859622
0.0957113
0.0969418
0.0949352
0.0923881
0.089597
0.0902137
0.0925997
0.0932629
0.0940761
0.102385
0.103504
0.110699
0.121169
0.14796
0.174857
0.236602
0.332142
0.567802
0.678544
0.619059
0.663516
0.739619
0.793702
0.817169
19.9779
2.38152
0.64818
0.277344
0.130679
0.189974
0.216969
0.212193
0.189638
0.166794
0.146963
0.132754
0.11827
0.110137
0.0989031
0.0914675
0.0821474
0.0756525
0.0722549
0.0693928
0.0664214
0.0650198
0.0647177
0.0652111
0.0688565
0.0714175
0.0729655
0.0735797
0.0787508
0.0810482
0.0848851
0.0871738
0.0883152
0.0851147
0.082469
0.0824913
0.0815131
0.0856326
0.0812684
0.0824584
0.09122
0.100206
0.106742
0.114959
0.132981
0.159347
0.189958
0.254882
0.308311
0.480277
0.656348
0.905086
1.41887
0.861987
19.9786
2.37839
0.637733
0.295328
0.182513
0.19446
0.214795
0.212514
0.189877
0.166828
0.146729
0.131411
0.118434
0.108726
0.0981265
0.0911895
0.0821464
0.0756038
0.0712108
0.0677976
0.0639959
0.0643175
0.0635647
0.0632086
0.0653003
0.0686703
0.0710871
0.0732625
0.0747846
0.0789577
0.0825041
0.0847158
0.0856566
0.0844392
0.0833427
0.0816152
0.0840393
0.0822666
0.0813013
0.082064
0.0833145
0.0851134
0.0900582
0.114363
0.146693
0.186173
0.211222
0.333899
0.5111
0.863434
0.772187
0.857176
1.11468
0.855505
19.975
2.3766
0.647379
0.295086
0.15217
0.222339
0.249703
0.219785
0.19078
0.163977
0.141151
0.124427
0.110734
0.101053
0.0931783
0.086233
0.079603
0.0733238
0.0699244
0.0672229
0.0648768
0.0626753
0.0631392
0.0628749
0.0632726
0.0651501
0.067238
0.0684584
0.0705162
0.0727964
0.0771715
0.0823497
0.081953
0.0814935
0.0798003
0.076553
0.0759233
0.0769655
0.0750469
0.0896911
0.098155
0.11688
0.11556
0.108635
0.113546
0.136527
0.155028
0.190723
0.237783
0.291804
0.387476
0.499362
0.748577
0.826705
19.9759
2.37474
0.642372
0.303527
0.150222
0.226778
0.227054
0.220564
0.192604
0.163617
0.140545
0.12325
0.110495
0.101565
0.0929872
0.0872504
0.0806536
0.0757588
0.0702035
0.0664689
0.0630271
0.0609026
0.061208
0.0613256
0.0620995
0.0639851
0.0662895
0.0678876
0.0695722
0.0718422
0.0757796
0.0786039
0.0791834
0.0792663
0.077773
0.0785912
0.0761851
0.0754688
0.0755269
0.075068
0.0766315
0.0853977
0.0860008
0.0951524
0.112765
0.140119
0.164033
0.20787
0.241485
0.446393
0.589076
0.673514
0.979883
0.884595
19.9726
2.38041
0.64576
0.275498
0.137162
0.220827
0.25769
0.223677
0.196759
0.168625
0.143699
0.125091
0.110556
0.099589
0.0930073
0.0836721
0.0782431
0.072634
0.0688223
0.0654761
0.0639392
0.0627317
0.0627189
0.0637247
0.0624196
0.0622051
0.0624225
0.0624867
0.0632753
0.0640192
0.0659178
0.0668405
0.0686394
0.0699134
0.0702908
0.0704741
0.0695721
0.0687957
0.0716321
0.0695336
0.0870306
0.0735575
0.0775274
0.0931558
0.109127
0.127878
0.148793
0.167459
0.191595
0.223599
0.249792
0.311604
0.353563
0.483068
19.9733
2.37635
0.638442
0.276002
0.127054
0.228508
0.224962
0.227636
0.195559
0.167642
0.145222
0.127523
0.113811
0.104269
0.0933905
0.0866459
0.0797343
0.0759336
0.0702143
0.0660127
0.0636235
0.0610129
0.059575
0.0611319
0.0609289
0.0605484
0.0606475
0.0618579
0.0629241
0.0648748
0.0661796
0.0713859
0.0726737
0.0736687
0.0723454
0.0721973
0.0720869
0.0694912
0.0709045
0.0725405
0.0714741
0.075633
0.081559
0.0949293
0.103933
0.123445
0.142683
0.163801
0.192862
0.246407
0.297645
0.380432
0.423203
0.583392
19.9691
2.38041
0.643257
0.291974
0.164811
0.187547
0.224982
0.218346
0.193829
0.167487
0.147026
0.129354
0.114034
0.10164
0.0926657
0.0841454
0.079022
0.0727703
0.0685563
0.0655511
0.0636267
0.0613017
0.0653872
0.0645173
0.0672743
0.0651482
0.0632278
0.0614855
0.0632602
0.06222
0.0620442
0.0649036
0.0704002
0.0713572
0.069484
0.0689165
0.0687338
0.0681932
0.071317
0.0683516
0.0697241
0.0741197
0.106802
0.0895222
0.094936
0.10217
0.118342
0.13673
0.169281
0.203901
0.222483
0.255593
0.27057
0.298591
19.9699
2.37808
0.641466
0.291789
0.166401
0.186828
0.223645
0.217936
0.190667
0.161412
0.137907
0.119624
0.10699
0.0966397
0.087791
0.0817369
0.074031
0.0713604
0.0667579
0.0643887
0.0634362
0.0596959
0.0634778
0.0649582
0.0647408
0.0633923
0.0612653
0.0599629
0.0607244
0.0614054
0.0626752
0.06337
0.0652794
0.0680756
0.0705376
0.0687762
0.0696581
0.0734086
0.0695786
0.0795235
0.0782598
0.0884581
0.0793513
0.0828318
0.100606
0.115323
0.129004
0.140463
0.158667
0.192355
0.209607
0.265178
0.2888
0.327883
19.9674
2.37239
0.669984
0.219858
0.216915
0.222913
0.209983
0.195104
0.174846
0.158845
0.13862
0.124144
0.111401
0.100119
0.0934766
0.0846012
0.0782688
0.0730441
0.0685893
0.0641448
0.0627995
0.0627145
0.0665241
0.0848046
0.163875
0.15378
0.130488
0.0994127
0.0868756
0.0867577
0.0817109
0.0784304
0.0777396
0.0764598
0.0739805
0.0738212
0.0704021
0.0703898
0.0756052
0.0746722
0.0767643
0.0773092
0.0855142
0.100399
0.122444
0.136593
0.126957
0.132645
0.14489
0.177385
0.192057
0.211123
0.230052
0.249777
19.9674
2.378
0.645541
0.275274
0.159082
0.185207
0.222798
0.226969
0.194891
0.162874
0.138246
0.119004
0.106238
0.0949984
0.0861738
0.0792888
0.0725692
0.067944
0.0637329
0.0612343
0.0579836
0.0607139
0.0616356
0.0794921
0.173914
0.156877
0.123226
0.0958207
0.0828348
0.0772148
0.0753846
0.0706975
0.0698562
0.0692115
0.0688085
0.0688928
0.0670746
0.0676956
0.0681262
0.0689252
0.069335
0.0717178
0.075673
0.0824387
0.0940373
0.102586
0.116977
0.129592
0.138729
0.158975
0.165784
0.208425
0.224001
0.253871
19.9634
2.37987
0.639181
0.324742
0.244926
0.267093
0.270789
0.236175
0.200758
0.167975
0.141824
0.124644
0.110147
0.0997763
0.0923324
0.0862235
0.0787491
0.0723184
0.0685516
0.064458
0.0633484
0.0634745
0.0667664
0.139717
0.277787
0.226627
0.177384
0.139095
0.114993
0.102047
0.0938377
0.0874977
0.0853601
0.0791682
0.0776205
0.0758814
0.0781913
0.0831762
0.0896654
0.0987341
0.0899404
0.106749
0.105739
0.110816
0.120427
0.123089
0.141051
0.136542
0.143869
0.179481
0.179406
0.196253
0.208659
19.9639
2.3809
0.634371
0.343612
0.186351
0.194062
0.236017
0.22513
0.195377
0.16586
0.142651
0.124919
0.111537
0.0997824
0.0921238
0.0818704
0.0750739
0.0688975
0.0636852
0.0624292
0.0605918
0.0601291
0.0634644
0.136815
0.254214
0.227959
0.184882
0.136586
0.108858
0.0954279
0.0844682
0.0774663
0.0748145
0.0728368
0.0710201
0.0704252
0.0682255
0.0682688
0.0762397
0.0798186
0.0895101
0.100654
0.115555
0.122938
0.149053
0.135874
0.141112
0.152302
0.157941
0.17797
0.181638
0.194712
0.206402
19.9625
2.37691
0.635108
0.36282
0.207237
0.216224
0.242464
0.237643
0.208926
0.17539
0.149345
0.128582
0.11061
0.0981503
0.0893917
0.0830525
0.0791089
0.0717092
0.0677866
0.0642959
0.0635705
0.0641845
0.0672752
0.0738288
0.109521
0.141405
0.169496
0.161969
0.144564
0.129771
0.116456
0.106774
0.0996372
0.0927659
0.088364
0.0854413
0.0837145
0.0823135
0.0811293
0.0833177
0.0938291
0.0879827
0.0937543
0.103507
0.116671
0.125406
0.139603
0.153081
0.176876
0.19383
0.205883
0.227706
0.220794
0.22179
19.9628
2.37608
0.632822
0.326577
0.161255
0.240178
0.246
0.242861
0.211755
0.177222
0.149608
0.12853
0.111532
0.0986262
0.0901911
0.0820364
0.0766512
0.0703367
0.0667449
0.0646552
0.062562
0.0618958
0.0645053
0.070842
0.107785
0.142692
0.175984
0.169534
0.146014
0.126853
0.111911
0.103765
0.0968711
0.0899263
0.0856918
0.0828898
0.0798078
0.0787817
0.0783207
0.0780117
0.0800026
0.0822322
0.0891281
0.094468
0.107019
0.118737
0.133558
0.144708
0.150749
0.160983
0.180483
0.195797
0.190344
0.194761
19.9592
2.37546
0.637481
0.30034
0.189544
0.20487
0.257926
0.231501
0.200243
0.16917
0.145231
0.127616
0.110502
0.0987344
0.0888215
0.0821584
0.0764797
0.0703709
0.0664651
0.0630786
0.0604988
0.0622427
0.0641919
0.0643089
0.0640158
0.0711605
0.0860008
0.108523
0.11825
0.117273
0.111306
0.106334
0.0983548
0.0930376
0.089435
0.0875904
0.0846603
0.0836792
0.0832421
0.0903767
0.0954309
0.116953
0.131578
0.13581
0.149515
0.160744
0.183193
0.19708
0.200531
0.208174
0.227745
0.219975
0.244924
0.239158
19.96
2.37537
0.640919
0.297964
0.183053
0.211351
0.259044
0.233982
0.20334
0.173191
0.149318
0.130309
0.115129
0.101847
0.0918829
0.0832328
0.0781528
0.0723465
0.067481
0.064904
0.062047
0.0630847
0.0641454
0.0631651
0.0632077
0.0730764
0.0916417
0.104984
0.116164
0.112843
0.106266
0.102089
0.0939244
0.0892753
0.0862281
0.0844013
0.0816139
0.0818791
0.0822642
0.0834664
0.087875
0.111062
0.140228
0.142172
0.158863
0.173511
0.197927
0.197417
0.207637
0.220945
0.228752
0.228108
0.232124
0.233779
19.9574
2.37752
0.642768
0.302449
0.165738
0.238918
0.260543
0.238045
0.207893
0.179545
0.15649
0.138871
0.124694
0.11133
0.103541
0.0893403
0.0809023
0.0754565
0.0695621
0.0649538
0.0619904
0.0609684
0.0610366
0.0598007
0.0583743
0.0588325
0.063719
0.0728459
0.0773077
0.0822772
0.0874068
0.0863168
0.0842052
0.0799898
0.0779178
0.0756184
0.0753107
0.0772574
0.0808443
0.090457
0.101208
0.130759
0.122088
0.1364
0.163185
0.186551
0.202262
0.216213
0.230264
0.241148
0.246495
0.272534
0.261649
0.268507
19.9579
2.37784
0.64259
0.293677
0.160291
0.237248
0.260071
0.238267
0.208003
0.180236
0.157029
0.14004
0.125831
0.114355
0.103734
0.0938563
0.0868575
0.08098
0.0761914
0.0705165
0.0654983
0.0622576
0.060922
0.0613364
0.0599669
0.0640714
0.0692734
0.0768489
0.0813238
0.0817127
0.0853969
0.0851532
0.0826212
0.080079
0.0790833
0.0760167
0.0753805
0.0745691
0.0863383
0.0862254
0.103781
0.117621
0.157761
0.146753
0.157412
0.175372
0.182045
0.200019
0.221372
0.245425
0.253711
0.276961
0.271085
0.277017
19.9545
2.37813
0.641296
0.30536
0.196531
0.232036
0.242929
0.234702
0.206602
0.17988
0.158434
0.141177
0.127941
0.11562
0.106805
0.0975769
0.0901097
0.0844917
0.0783121
0.0725949
0.067365
0.063111
0.0608914
0.0591027
0.0577586
0.0564743
0.0559562
0.0573305
0.0590753
0.0620579
0.064857
0.0650357
0.0679674
0.0645237
0.0638868
0.0650792
0.0652838
0.0695451
0.0716556
0.0843602
0.0928974
0.106271
0.131766
0.152756
0.184557
0.202696
0.229051
0.257201
0.269135
0.279675
0.28697
0.303122
0.300258
0.30853
19.9552
2.37748
0.632288
0.346266
0.207929
0.236427
0.245408
0.236233
0.207196
0.180543
0.15803
0.142124
0.126745
0.117569
0.105801
0.0956724
0.088625
0.0807848
0.0761007
0.0708716
0.0668667
0.0632976
0.0617723
0.0592694
0.0564061
0.0555022
0.056068
0.0582208
0.061575
0.062713
0.0662266
0.0660533
0.0673002
0.0666538
0.0651398
0.063838
0.0626386
0.0656624
0.0723146
0.0780172
0.0903035
0.106232
0.127007
0.147682
0.167005
0.182058
0.196593
0.211225
0.230524
0.238953
0.250869
0.280103
0.284795
0.297208
19.9537
2.37403
0.643283
0.321993
0.199267
0.251474
0.271669
0.238703
0.201157
0.172193
0.146293
0.126515
0.112288
0.102605
0.0940527
0.0859726
0.0820079
0.0773083
0.0730334
0.069306
0.0656861
0.0627666
0.0610487
0.0596724
0.0570813
0.0552345
0.0535295
0.0535934
0.0531807
0.056073
0.0550357
0.0565211
0.0568306
0.0557662
0.0559112
0.0605246
0.0686817
0.0626123
0.067591
0.0956574
0.0991987
0.108813
0.130229
0.159011
0.189058
0.217921
0.237118
0.277311
0.287963
0.297706
0.305034
0.312265
0.345661
0.371115
19.9541
2.37481
0.640746
0.30972
0.181683
0.244119
0.270174
0.239321
0.202246
0.172897
0.146044
0.126305
0.111733
0.102401
0.0935243
0.0861544
0.080827
0.0742699
0.0697973
0.0659338
0.0640736
0.060476
0.0595517
0.0584147
0.0567296
0.0547171
0.0536202
0.05313
0.0529212
0.0527322
0.0535626
0.054152
0.0535459
0.0532387
0.0542986
0.0528252
0.0544978
0.0639016
0.0872735
0.0870818
0.10197
0.126469
0.127307
0.151911
0.183134
0.20937
0.250294
0.266154
0.276354
0.296201
0.307197
0.328452
0.364891
0.387195
19.9509
2.37511
0.63485
0.339548
0.240216
0.267381
0.269994
0.24378
0.204014
0.173126
0.147015
0.124836
0.107283
0.0963063
0.0862535
0.0783336
0.0722242
0.0686874
0.0644148
0.0626377
0.059605
0.0583145
0.0566286
0.0558076
0.0544108
0.0538302
0.0528383
0.0546764
0.0522435
0.0533379
0.0540224
0.0525535
0.0527044
0.0525411
0.0531334
0.053513
0.0548379
0.0693454
0.0723604
0.0930674
0.109745
0.129356
0.14394
0.16901
0.194536
0.225651
0.250268
0.302177
0.316744
0.339036
0.370831
0.365255
0.481299
0.528661
19.9512
2.37766
0.643654
0.306363
0.221114
0.254047
0.280257
0.270785
0.225856
0.185635
0.152254
0.126343
0.107662
0.0947036
0.086476
0.0789852
0.0722804
0.067681
0.0627273
0.0601866
0.057871
0.0567412
0.0554884
0.0545855
0.0537679
0.0527584
0.0515972
0.0503503
0.0499258
0.049561
0.048735
0.0485304
0.048345
0.0487997
0.0489526
0.0487695
0.0597699
0.0734977
0.0886293
0.10372
0.117501
0.117397
0.135075
0.15446
0.218634
0.253183
0.277278
0.303496
0.331714
0.349468
0.373767
0.394317
0.498503
0.536878
19.9496
2.37658
0.643444
0.316123
0.201429
0.221322
0.252127
0.256837
0.221098
0.186433
0.152202
0.128771
0.108802
0.0964686
0.0850221
0.0775688
0.0715518
0.0666896
0.0629918
0.059677
0.0580445
0.055471
0.0535468
0.0541881
0.0521846
0.052058
0.0525097
0.0520584
0.0523525
0.050864
0.0504785
0.0500886
0.0500669
0.0499177
0.0527848
0.054162
0.0575972
0.0661835
0.0703043
0.0845268
0.10027
0.113204
0.140506
0.163459
0.225357
0.294465
0.3436
0.382035
0.396416
0.492674
0.589042
0.648546
0.986924
0.787081
19.95
2.37631
0.642891
0.305105
0.197749
0.219095
0.249054
0.258611
0.224683
0.190915
0.154352
0.129788
0.109536
0.0962047
0.0842401
0.0776097
0.0717219
0.0666475
0.0623094
0.0588357
0.0570177
0.0544844
0.0526093
0.0522671
0.052325
0.0518842
0.0506148
0.0497726
0.0490594
0.0485222
0.0481053
0.0471466
0.0469792
0.0468962
0.0473982
0.0483115
0.0527425
0.0577781
0.0698569
0.0810048
0.103903
0.111727
0.13406
0.157297
0.229796
0.283411
0.337349
0.362087
0.403665
0.459524
0.515029
0.616155
0.90547
0.824664
19.9478
2.3742
0.643399
0.325715
0.202311
0.25138
0.256426
0.246404
0.21751
0.184378
0.155535
0.133571
0.117606
0.103214
0.0952554
0.0852576
0.0779861
0.0725526
0.0667693
0.0628917
0.059463
0.0566479
0.0542013
0.0526089
0.0522229
0.0511651
0.0502701
0.0489074
0.0488626
0.0472931
0.0470375
0.0470174
0.0470549
0.0480811
0.0490861
0.0534618
0.0578852
0.067141
0.0723839
0.0788855
0.0940569
0.120865
0.130326
0.192969
0.30051
0.38513
0.422736
0.50137
0.575987
0.699118
1.17219
1.28022
1.52053
1.99124
19.9481
2.37453
0.643772
0.324471
0.198529
0.249391
0.255174
0.246551
0.218983
0.186578
0.156502
0.132716
0.115387
0.100738
0.0923045
0.0824311
0.0763675
0.070914
0.066549
0.0622383
0.0589508
0.0559589
0.0539994
0.0514113
0.0509637
0.0492935
0.0487907
0.0483381
0.0482774
0.046979
0.0469937
0.0471435
0.0460892
0.0475414
0.0471544
0.0510829
0.0594046
0.0693669
0.0778638
0.0893355
0.0977215
0.120935
0.134988
0.195535
0.283175
0.371256
0.450809
0.478982
0.565835
0.694622
0.967481
1.46495
1.40921
1.87329
19.9469
2.37424
0.642875
0.309867
0.238922
0.239852
0.26126
0.245938
0.212628
0.176471
0.149848
0.129922
0.112487
0.100981
0.0903173
0.0820665
0.0768876
0.0693239
0.0655188
0.0623955
0.0594497
0.0572052
0.0540337
0.0530778
0.0541523
0.0514062
0.0507555
0.0505562
0.0482523
0.0477847
0.0471592
0.0482351
0.0470469
0.0479741
0.0498278
0.0583671
0.0597339
0.0654657
0.0779611
0.0804228
0.105295
0.130363
0.165981
0.303762
0.388749
0.465364
0.555706
0.610056
0.916968
1.12716
1.04749
1.25816
1.22226
1.21645
19.9473
2.37499
0.642316
0.324689
0.214638
0.241698
0.260128
0.247293
0.211821
0.177736
0.15032
0.129603
0.112065
0.101027
0.0881706
0.0803138
0.0742783
0.0691553
0.065065
0.0618399
0.0588857
0.0557426
0.0544411
0.0544791
0.0516511
0.0507184
0.0499532
0.0495979
0.0476551
0.0472736
0.0475941
0.0462462
0.046062
0.045927
0.0493676
0.0490946
0.0543937
0.0669976
0.0757354
0.086009
0.0993794
0.122039
0.180058
0.311617
0.395598
0.46221
0.553868
0.652684
0.872828
0.970548
0.988519
1.13485
1.29747
1.20557
19.9451
2.37552
0.644029
0.310247
0.231388
0.253268
0.265248
0.24277
0.207033
0.173594
0.146408
0.12739
0.110577
0.101766
0.0901128
0.0811335
0.0766148
0.0693862
0.0647587
0.0616641
0.0579425
0.0556309
0.0541011
0.0527971
0.0518701
0.0498432
0.0491972
0.048465
0.0479651
0.0509392
0.0475513
0.0495103
0.0477573
0.0489188
0.0505774
0.052323
0.0560654
0.0595624
0.0688476
0.0762286
0.119356
0.175896
0.271578
0.357595
0.433588
0.519644
0.638193
0.808158
0.994318
0.997766
1.17118
1.20873
1.30782
1.07109
19.9458
2.37383
0.641076
0.321924
0.212579
0.231277
0.259363
0.241245
0.206787
0.174759
0.148819
0.129098
0.113324
0.104373
0.09135
0.0845332
0.0754343
0.0704913
0.0659238
0.0636006
0.0608704
0.0586447
0.0570262
0.0547509
0.0531341
0.0512243
0.0493495
0.0486696
0.0479702
0.047431
0.0467891
0.0463243
0.0459828
0.0464097
0.0463247
0.0471984
0.0526696
0.0605985
0.0681642
0.0833345
0.10655
0.145591
0.2787
0.359051
0.407034
0.505232
0.65465
0.777697
0.913675
0.980057
1.11723
1.15043
1.28232
1.0696
19.9448
2.37443
0.643815
0.312209
0.229299
0.24445
0.263706
0.258189
0.224964
0.187842
0.156468
0.132554
0.115199
0.102068
0.0928318
0.0843704
0.0786585
0.0705462
0.065388
0.0627226
0.0587302
0.0560264
0.0548174
0.0543337
0.0529452
0.0512021
0.0492649
0.0479496
0.0469633
0.0454037
0.0449053
0.0444885
0.0448902
0.0450046
0.0460149
0.0500252
0.0544597
0.0588762
0.0660523
0.0770371
0.168199
0.224757
0.299283
0.368624
0.450786
0.539307
0.667231
0.751046
0.802858
0.912594
1.01273
1.20358
1.35885
1.12621
19.9452
2.37355
0.642015
0.321061
0.213942
0.232166
0.260754
0.259061
0.226201
0.189618
0.156876
0.134158
0.114699
0.103066
0.0919009
0.084315
0.0765099
0.0710556
0.0650426
0.0607779
0.0564417
0.0548285
0.053762
0.0530653
0.0515712
0.0495104
0.0480067
0.0467515
0.0458631
0.0450022
0.0443866
0.0438805
0.0442537
0.0441619
0.0451525
0.0479353
0.0541097
0.0585574
0.0666292
0.0790814
0.11197
0.193648
0.319417
0.34707
0.385199
0.424053
0.569705
0.664059
0.759021
0.921653
1.0889
1.22889
1.38816
1.16514
19.9435
2.3757
0.642342
0.326613
0.220579
0.233816
0.262997
0.245351
0.208535
0.175946
0.147584
0.126194
0.108102
0.0961539
0.0860591
0.0775886
0.0722972
0.0682875
0.0652248
0.0630013
0.0606916
0.0586877
0.055961
0.0539625
0.0515838
0.0504118
0.0495971
0.0485405
0.0482722
0.046629
0.0459589
0.0452878
0.0444302
0.0443723
0.0442707
0.0464067
0.0478015
0.0529584
0.0551194
0.0871923
0.235433
0.275677
0.302309
0.357855
0.445489
0.511548
0.545639
0.639291
0.762616
0.816462
1.24952
1.83542
2.30942
2.69766
19.9441
2.37434
0.641987
0.32688
0.216449
0.231613
0.263906
0.243684
0.207311
0.178061
0.150026
0.128458
0.112095
0.100234
0.0901298
0.080971
0.0751551
0.0706489
0.0666761
0.0642379
0.0614971
0.0593978
0.0563576
0.0539154
0.0526831
0.0517627
0.0494858
0.0486264
0.0483889
0.0475066
0.0469886
0.0463972
0.0456534
0.0449493
0.0443774
0.0454755
0.0456724
0.0480313
0.0536496
0.0683227
0.138672
0.221447
0.307377
0.319834
0.388741
0.427991
0.567664
0.588774
0.703743
0.912564
1.36925
1.96323
2.28582
2.69791
19.9442
2.36833
0.670354
0.225202
0.24552
0.261121
0.254707
0.224382
0.192743
0.16748
0.147063
0.131983
0.1182
0.108397
0.0983985
0.0911964
0.0835353
0.0770912
0.0710899
0.0673408
0.0645621
0.0619593
0.0594678
0.0577611
0.0563639
0.0546975
0.0534806
0.0518129
0.0497575
0.0488441
0.0480033
0.0479771
0.0473653
0.0458308
0.044534
0.0433997
0.0417632
0.0429902
0.0524724
0.109179
0.229677
0.205116
0.221487
0.318169
0.364724
0.468571
0.61275
0.669811
1.02376
1.22529
1.777
2.46721
2.60228
2.81014
19.9442
2.37361
0.642064
0.329542
0.223168
0.239768
0.26375
0.244386
0.212211
0.18307
0.160517
0.141954
0.124446
0.111649
0.0994203
0.0909113
0.0834067
0.0755851
0.0699232
0.0670216
0.0635198
0.0602942
0.0574426
0.0553255
0.0533778
0.0518713
0.0502946
0.0488013
0.0473942
0.0464492
0.0448188
0.0435982
0.0428228
0.0396287
0.0387549
0.038653
0.0372873
0.0378343
0.0468229
0.0833345
0.136182
0.115873
0.197815
0.261345
0.312976
0.439687
0.581333
0.60473
0.73928
1.15972
1.67903
2.4379
2.55927
2.80099
0.0111009
0.0114451
0.0118491
0.0122718
0.0126123
0.0129195
0.0131966
0.0134678
0.0136711
0.0138968
0.0139966
0.0141584
0.0142378
0.0143721
0.0145002
0.0146287
0.0147545
0.0149343
0.0151495