/*--------------------------------*- C++ -*----------------------------------*\
| =========                 |                                                 |
| \\      /  F ield         | OpenFOAM: The Open Source CFD Toolbox           |
|  \\    /   O peration     | Version:  4.1                                   |
|   \\  /    A nd           | Web:      www.OpenFOAM.org                      |
|    \\/     M anipulation  |                                                 |
\*---------------------------------------------------------------------------*/
FoamFile
{
    version     2.0;
    format      ascii;
    class       surfaceScalarField;
    location    "8";
    object      phi;
}
// * * * * * * * * * * * * * * * * * * * * * * * * * * * * * * * * * * * * * //

dimensions      [0 3 -1 0 0 0 0];

internalField   nonuniform List<scalar> 
11516
(
9.96917e+06
-4287.85
9353.84
9.73435e+06
-25326.9
70102.9
9.48477e+06
-28766.4
84132.1
9.22117e+06
-29342.2
95020.4
8.93953e+06
-29984.9
107999
8.63511e+06
-31155
123946
8.30222e+06
-32544.5
143338
7.93414e+06
-34141.1
166787
7.5238e+06
-36528.5
195097
7.06161e+06
-39283.2
229648
6.5331e+06
-43111.6
271367
5.91414e+06
-48864.3
322557
5.16199e+06
-59087.5
392287
4.21818e+06
-76988.7
482209
3.02267e+06
-102200
621564
1.45933e+06
-135948
802981
-558038
-209700
1.09029e+06
-3.21653e+06
-395311
1.44722e+06
-6.18637e+06
-830033
1.80289e+06
-7.75164e+06
-1.1315e+06
875653
-7.82955e+06
-940652
-38488.5
-7.74877e+06
-873076
220661
-6.99543e+06
-810258
-140707
-5.87386e+06
-624380
-493155
-4.98433e+06
-507136
-227656
-4.33541e+06
-502555
112210
-4.25162e+06
-395216
627284
-4.84802e+06
-194448
1.14821e+06
-5.86302e+06
-10883.4
1.44447e+06
-7.12169e+06
83572.3
1.65848e+06
-8.51771e+06
119577
1.79342e+06
-1.02782e+07
210674
2.08144e+06
-1.27537e+07
309353
2.69932e+06
-1.56829e+07
398318
3.09241e+06
-1.8203e+07
434550
2.73302e+06
-1.97913e+07
432244
1.93274e+06
-2.05217e+07
337739
1.28849e+06
-2.03774e+07
277004
622937
-1.93963e+07
191052
48038.7
-1.77503e+07
24230.5
-308944
-1.55775e+07
-174170
-554632
-1.32481e+07
-399952
-526869
-1.13195e+07
-657350
-42998.4
-1.04017e+07
-1.01497e+06
1.04263e+06
-9.97563e+06
-1.33965e+06
1.53108e+06
-8.3872e+06
-943943
-401818
-6.0688e+06
-380634
-2.06744e+06
-3.44703e+06
-876799
-2.29637e+06
2.5862e+06
-1.89453e+06
-4.77465e+06
1.7578e+07
-2.0752e+06
-1.33087e+07
4.81801e+07
-537912
-2.98473e+07
9.20723e+07
1.05468e+06
-4.375e+07
1.03862e+08
1.04901e+06
-1.23068e+07
564991
-7.65912e+07
9.96469e+06
9000.45
9.73674e+06
69163
9.48869e+06
82839.9
9.22623e+06
93595.3
8.94577e+06
106559
8.6421e+06
122540
8.30973e+06
141996
7.94231e+06
165545
7.53185e+06
194111
7.06858e+06
228956
6.53789e+06
271008
5.91305e+06
323562
5.15221e+06
393012
4.19583e+06
489324
2.96417e+06
626549
1.35915e+06
824369
-829618
1.1211e+06
-4.0135e+06
1.58943e+06
-8.51147e+06
2.07871e+06
-1.19485e+07
1.04144e+06
-1.36841e+07
44635
-1.52858e+07
368344
-1.63275e+07
96848.7
-1.67755e+07
-173615
-1.74126e+07
226105
-1.8482e+07
722942
-2.00009e+07
1.30891e+06
-2.18023e+07
1.82185e+06
-2.36502e+07
2.09498e+06
-2.55517e+07
2.28413e+06
-2.75701e+07
2.46121e+06
-2.9822e+07
2.79835e+06
-3.26135e+07
3.44513e+06
-3.56525e+07
3.81155e+06
-3.81491e+07
3.37702e+06
-3.96845e+07
2.49842e+06
-4.04651e+07
1.73441e+06
-4.04261e+07
969340
-3.95668e+07
173379
-3.80208e+07
-582517
-3.58287e+07
-1.38609e+06
-3.32595e+07
-2.03472e+06
-3.08531e+07
-2.25781e+06
-2.93293e+07
-1.91503e+06
-2.80975e+07
-2.15619e+06
-2.47591e+07
-4.10226e+06
-1.87651e+07
-6.44511e+06
-1.21936e+07
-7.67201e+06
-4.17861e+06
-1.01565e+07
1.19158e+07
-1.82846e+07
4.55562e+07
-3.38435e+07
9.43974e+07
-4.78021e+07
1.12274e+08
-1.68791e+07
-8.75833e+07
9.98721e+06
-4571.57
3430.62
9.79158e+06
-27285.1
90257.8
9.5827e+06
-31114.9
116543
9.3621e+06
-31899.9
135587
9.12701e+06
-32804.3
157565
8.87376e+06
-34045.1
184053
8.59811e+06
-35655.1
215993
8.2952e+06
-37739.8
254240
7.95909e+06
-40321.8
300736
7.58379e+06
-43504.5
356548
7.15808e+06
-47669.8
424335
6.66446e+06
-53217.9
509782
6.06022e+06
-65585.5
619504
5.31821e+06
-79639.1
774118
4.35347e+06
-109917
989769
3.13972e+06
-137581
1.31348e+06
1.48211e+06
-206608
1.79391e+06
-746638
-319370
2.56074e+06
-4.19379e+06
-637090
3.77698e+06
-9.08007e+06
-770505
4.47023e+06
-1.40591e+07
-588701
4.23067e+06
-1.85128e+07
-501536
4.49913e+06
-2.31972e+07
-372645
4.6264e+06
-2.70887e+07
-118423
3.43212e+06
-2.96104e+07
106680
2.23473e+06
-3.21548e+07
178959
2.61466e+06
-3.52009e+07
304829
3.55411e+06
-3.85002e+07
537647
4.14776e+06
-4.13333e+07
692222
3.88592e+06
-4.35088e+07
622400
3.57621e+06
-4.57984e+07
595426
3.88874e+06
-4.84586e+07
649283
4.50031e+06
-5.13364e+07
727521
5.26172e+06
-5.40893e+07
832509
5.45938e+06
-5.62016e+07
959874
4.42585e+06
-5.76631e+07
958514
3.09932e+06
-5.89359e+07
934694
2.41967e+06
-6.00986e+07
900683
1.83118e+06
-6.06692e+07
762082
964523
-6.03719e+07
505803
144475
-5.9119e+07
156069
-677642
-5.70305e+07
-207891
-1.25466e+06
-5.38436e+07
-557362
-1.75384e+06
-4.83403e+07
-942868
-2.82787e+06
-4.10617e+07
-1.77967e+06
-3.42432e+06
-3.63252e+07
-2.25575e+06
-2.3839e+06
-3.61866e+07
-2.03298e+06
159910
-3.58633e+07
-1.63158e+06
-854972
-3.46553e+07
-1.46092e+06
-4.63132e+06
-3.76655e+07
-1.26504e+06
-9.30352e+06
-4.90291e+07
-458223
-1.84096e+07
-6.4327e+07
586097
-2.96277e+07
-4.75216e+07
488829
-3.0147e+07
493541
-2.59672e+07
9.98224e+06
3393.06
9.79264e+06
90319.7
9.58426e+06
116911
9.36359e+06
136032
9.12822e+06
158031
8.87454e+06
184593
8.5983e+06
216612
8.29468e+06
255000
7.95764e+06
301736
7.58081e+06
357947
7.15249e+06
426594
6.65094e+06
512585
6.04219e+06
625853
5.27646e+06
782005
4.29877e+06
1.007e+06
3.01522e+06
1.33991e+06
1.26762e+06
1.85478e+06
-1.29442e+06
2.69147e+06
-5.45802e+06
4.14697e+06
-1.13061e+07
4.7119e+06
-1.69276e+07
4.26576e+06
-2.21084e+07
4.64408e+06
-2.74068e+07
4.86004e+06
-3.1476e+07
3.74528e+06
-3.3955e+07
2.8652e+06
-3.64834e+07
3.53557e+06
-3.92996e+07
4.56998e+06
-4.18658e+07
5.10401e+06
-4.35637e+07
4.71302e+06
-4.48582e+07
4.47252e+06
-4.6479e+07
4.96752e+06
-4.83631e+07
5.62702e+06
-5.03008e+07
6.41686e+06
-5.17699e+07
6.46065e+06
-5.23393e+07
5.32865e+06
-5.23879e+07
4.02323e+06
-5.24989e+07
3.40314e+06
-5.26028e+07
2.7062e+06
-5.2169e+07
1.36833e+06
-5.09928e+07
-276556
-4.89855e+07
-2.2646e+06
-4.64621e+07
-3.90184e+06
-4.35836e+07
-4.96602e+06
-4.07294e+07
-5.13259e+06
-3.84775e+07
-5.73907e+06
-3.75916e+07
-6.92091e+06
-3.79587e+07
-7.93553e+06
-3.80428e+07
-9.23861e+06
-3.78963e+07
-1.19294e+07
-4.10735e+07
-1.66265e+07
-5.31009e+07
-2.2626e+07
-6.89814e+07
-3.16758e+07
-5.37699e+07
-3.19227e+07
-2.77069e+07
9.97933e+06
-4633.18
3964.45
9.76725e+06
-27389.8
129958
9.54314e+06
-30851.8
168142
9.30717e+06
-31475.3
195712
9.05621e+06
-32294.7
227389
8.78622e+06
-33468
265583
8.49281e+06
-35004.1
311410
8.17029e+06
-36974.1
366817
7.81376e+06
-39439.5
432859
7.41671e+06
-42413.6
512380
6.97132e+06
-46013.2
607910
6.46169e+06
-51457.5
725654
5.86049e+06
-60604.2
874745
5.13702e+06
-74908.5
1.07897e+06
4.24109e+06
-99538.8
1.34938e+06
3.15728e+06
-125617
1.75185e+06
1.79791e+06
-178994
2.30675e+06
159967
-255450
3.18552e+06
-1.90676e+06
-427143
4.53795e+06
-4.9755e+06
-497356
6.32789e+06
-9.10719e+06
-473950
7.49621e+06
-1.30033e+07
-406133
8.1027e+06
-1.69e+07
-283949
8.42365e+06
-2.12188e+07
-41829.2
7.68425e+06
-2.55971e+07
99798.1
6.55064e+06
-2.96177e+07
192536
6.58372e+06
-3.35085e+07
346676
7.31201e+06
-3.69044e+07
503749
7.32813e+06
-3.92591e+07
545813
6.06203e+06
-4.08886e+07
488836
5.14331e+06
-4.27324e+07
517588
5.64767e+06
-4.48832e+07
664138
6.41669e+06
-4.70915e+07
832073
7.08391e+06
-4.91058e+07
992556
6.98583e+06
-5.07324e+07
1.02474e+06
5.64695e+06
-5.20323e+07
953000
4.22527e+06
-5.34147e+07
832714
3.91587e+06
-5.45529e+07
599588
3.52047e+06
-5.4451e+07
30037.3
2.28539e+06
-5.25982e+07
-900917
881680
-4.84477e+07
-2.11608e+06
-1.05909e+06
-4.25134e+07
-2.94872e+06
-2.85206e+06
-3.54414e+07
-2.91012e+06
-4.87491e+06
-2.46445e+07
-1.49147e+06
-1.13778e+07
-1.1511e+07
-1.81673e+06
-1.41235e+07
-1.01263e+06
-4.67233e+06
-7.80977e+06
4.09056e+06
-7.0081e+06
2.2823e+06
8.2075e+06
-5.86695e+06
768354
1.08033e+07
-3.89349e+06
-3.7711e+06
4.61529e+06
-3.3117e+06
-257904
-1.27835e+07
-2.25909e+06
547549
-3.87232e+07
105468
-4.61223e+06
-6.06717e+07
708536
-9.46576e+06
1.03918e+06
5.44147e+07
9.97461e+06
4028.27
9.76946e+06
131192
9.54623e+06
169097
9.31071e+06
196649
9.06e+06
228433
8.7901e+06
266797
8.49659e+06
312830
8.17375e+06
368497
7.81667e+06
434853
7.41863e+06
514890
6.97061e+06
611232
6.45589e+06
730425
5.84667e+06
883699
5.107e+06
1.08917e+06
4.19694e+06
1.37512e+06
3.06464e+06
1.78064e+06
1.65084e+06
2.37969e+06
-148650
3.29703e+06
-2.38128e+06
4.81476e+06
-5.89171e+06
6.55876e+06
-1.05362e+07
7.67678e+06
-1.50439e+07
8.29162e+06
-1.94068e+07
8.73132e+06
-2.38955e+07
8.12115e+06
-2.80356e+07
7.12758e+06
-3.1483e+07
7.26249e+06
-3.43388e+07
7.91508e+06
-3.62093e+07
7.67325e+06
-3.69544e+07
6.24663e+06
-3.72174e+07
5.4841e+06
-3.76904e+07
6.20894e+06
-3.81382e+07
6.98345e+06
-3.82722e+07
7.63792e+06
-3.79498e+07
7.42441e+06
-3.71868e+07
5.96355e+06
-3.60589e+07
4.31954e+06
-3.49257e+07
3.68421e+06
-3.3481e+07
2.62691e+06
-3.08494e+07
-229497
-2.69103e+07
-3.98347e+06
-2.10478e+07
-9.16873e+06
-1.46632e+07
-1.23296e+07
-9.35331e+06
-1.25086e+07
-6.50676e+06
-9.01882e+06
-4.55698e+06
-9.21473e+06
-2.71226e+06
-1.3261e+07
-1.88138e+06
-1.57721e+07
-513865
-1.66297e+07
702291
-1.72815e+07
-3.3748e+06
-1.61667e+07
-1.74995e+07
-1.10526e+07
-4.29224e+07
-6.63059e+06
-6.28401e+07
-1.14952e+07
5.34952e+07
9.98042e+06
-4551.63
5311.44
9.7726e+06
-26385.4
170003
9.55359e+06
-30143.7
218577
9.32355e+06
-30865.3
254083
9.0793e+06
-31664.1
295098
8.81706e+06
-32774.4
344427
8.53184e+06
-34243
404199
8.2192e+06
-36124.9
475599
7.87353e+06
-38500
560830
7.48977e+06
-41266.9
663015
7.06158e+06
-44447.9
785728
6.57577e+06
-48978.9
935380
6.0189e+06
-54675.2
1.1252e+06
5.34834e+06
-69073.2
1.36787e+06
4.56523e+06
-81164.8
1.69938e+06
3.60548e+06
-111535
2.14094e+06
2.52755e+06
-134632
2.75572e+06
1.29558e+06
-198195
3.59726e+06
226730
-255427
4.79278e+06
-809175
-328696
6.37359e+06
-2.42699e+06
-365111
8.44702e+06
-4.68604e+06
-385638
9.99508e+06
-7.07108e+06
-316604
1.07063e+07
-1.00886e+07
-187020
1.06831e+07
-1.35806e+07
-117178
1.01075e+07
-1.68616e+07
-35507.5
9.9687e+06
-1.97782e+07
139089
1.02641e+07
-2.22806e+07
299213
9.7893e+06
-2.41474e+07
340887
7.91365e+06
-2.53811e+07
407157
6.29938e+06
-2.64504e+07
596870
6.39086e+06
-2.76403e+07
904818
6.91504e+06
-2.89274e+07
1.22417e+06
7.33929e+06
-3.0177e+07
1.47447e+06
6.98503e+06
-3.12969e+07
1.5081e+06
5.5718e+06
-3.21918e+07
1.38391e+06
4.17411e+06
-3.32696e+07
1.2394e+06
4.37023e+06
-3.42842e+07
856181
4.65325e+06
-3.38319e+07
-518803
3.78655e+06
-3.11346e+07
-2.7229e+06
2.6712e+06
-2.34506e+07
-6.52027e+06
-402722
-1.22729e+07
-1.01143e+07
-2.4839e+06
-1.73496e+06
-1.24314e+07
-2.03278e+06
-261884
-1.28165e+07
577043
-6.43929e+06
-1.33249e+07
5.51367e+06
-4.10204e+06
-1.30392e+07
2.84053e+06
-6.54873e+06
-1.13373e+07
1.57938e+07
-2.00344e+07
-5.24636e+06
1.91879e+07
-2.74896e+07
-350588
3.83644e+06
-1.48653e+07
-357767
-1.25928e+07
-1.33788e+06
-1.5116e+06
-1.14491e+07
6.18215e+06
-503919
-1.17965e+07
1.09344e+06
21844.8
-4.60659e+06
-657401
-3.0566e+07
9.97576e+06
5204.07
9.7744e+06
170552
9.55654e+06
219825
9.32708e+06
255578
9.08319e+06
296751
8.82112e+06
346267
8.5359e+06
406280
8.22305e+06
477985
7.87707e+06
563645
7.49268e+06
666414
7.06258e+06
790061
6.57442e+06
941866
6.00701e+06
1.13325e+06
5.33431e+06
1.3834e+06
4.52435e+06
1.71848e+06
3.55772e+06
2.17605e+06
2.4201e+06
2.80757e+06
1.15346e+06
3.6933e+06
-37471.5
4.94099e+06
-1.2246e+06
6.60243e+06
-3.35924e+06
8.75393e+06
-6.16662e+06
1.02765e+07
-8.98865e+06
1.10069e+07
-1.22942e+07
1.11447e+07
-1.59568e+07
1.06751e+07
-1.91376e+07
1.04858e+07
-2.15277e+07
1.05847e+07
-2.31578e+07
9.79186e+06
-2.4144e+07
7.79519e+06
-2.4445e+07
6.41337e+06
-2.41333e+07
6.68161e+06
-2.33859e+07
7.30224e+06
-2.22156e+07
7.85529e+06
-2.08073e+07
7.69913e+06
-1.93659e+07
6.31416e+06
-1.75717e+07
4.32467e+06
-1.55748e+07
3.56972e+06
-1.3437e+07
2.31335e+06
-8.79922e+06
-4.01129e+06
-2.48159e+06
-1.12955e+07
9.78106e+06
-2.57816e+07
1.98871e+07
-3.09153e+07
2.04326e+07
-2.47623e+07
1.28909e+07
-1.408e+07
2.79586e+06
-1.24091e+07
-5.73984e+06
-1.78925e+07
-1.35954e+07
-1.94921e+07
-1.62372e+07
-1.94767e+07
-1.38852e+07
-2.01159e+07
-9.85963e+06
-2.05539e+07
-2.70067e+06
-1.97167e+07
4.41201e+06
-1.42358e+07
-1.39382e+06
-5.51771e+06
-3.90972e+07
9.98045e+06
-4534.15
5706.32
9.77956e+06
-26231.2
207560
9.56842e+06
-29487.6
267115
9.34718e+06
-30020.1
310097
9.11293e+06
-30750.7
359643
8.86198e+06
-31817.1
419247
8.59025e+06
-33239.1
491289
8.29336e+06
-35066.2
577082
7.96638e+06
-37326.9
679645
7.60547e+06
-39905.9
801984
7.20673e+06
-42722.7
948136
6.76416e+06
-45896.2
1.12538e+06
6.26453e+06
-51111.5
1.34471e+06
5.68807e+06
-59639.5
1.62168e+06
5.02292e+06
-71383.2
1.98833e+06
4.2411e+06
-93490.4
2.45109e+06
3.39138e+06
-111452
3.07965e+06
2.49377e+06
-154014
3.85999e+06
1.8013e+06
-183724
4.87329e+06
1.51803e+06
-230048
5.99846e+06
1.8248e+06
-246303
7.69006e+06
1.93933e+06
-323587
9.60802e+06
1.84174e+06
-272260
1.08332e+07
1.34592e+06
-172776
1.12329e+07
237114
-160075
1.13901e+07
-1.16155e+06
-153599
1.16109e+07
-2.41431e+06
-3440.62
1.17055e+07
-3.53553e+06
174426
1.1026e+07
-4.82636e+06
201323
9.4131e+06
-6.69224e+06
304571
8.3304e+06
-8.73683e+06
645563
8.22219e+06
-1.06739e+07
1.12002e+06
8.11924e+06
-1.22636e+07
1.61078e+06
7.7021e+06
-1.35523e+07
1.97106e+06
6.73833e+06
-1.46045e+07
1.99683e+06
5.18994e+06
-1.5066e+07
1.84079e+06
3.61431e+06
-1.50377e+07
1.8401e+06
3.64489e+06
-1.44265e+07
1.85305e+06
3.60566e+06
-1.13297e+07
1.30357e+06
1.20432e+06
-6.17998e+06
383521
-614457
2.56823e+06
-2.30807e+06
-4.10704e+06
1.45201e+07
-8.26972e+06
-4.18104e+06
2.5298e+07
-1.10599e+07
-937536
2.55508e+07
-1.32883e+07
1.37448e+07
9.41507e+06
-6.14199e+06
2.77144e+07
-8.39478e+06
3.85459e+06
1.6622e+07
-4.7079e+06
1.49031e+06
1.04253e+07
-1.12831e+06
2.26169e+06
1.32277e+07
-8.68855e+06
5.40384e+06
6.23903e+06
-1.96316e+07
5.1424e+06
-6.04405e+06
-2.3683e+07
2.9815e+06
-9.34102e+06
-2.78706e+07
1.58301e+06
-8.16264e+06
-3.37241e+07
157128
2.21182e+06
442919
-4.61268e+06
9.97578e+06
5808.79
9.78186e+06
209717
9.57161e+06
268989
9.35085e+06
312017
9.11692e+06
361778
8.86614e+06
421677
8.59441e+06
494078
8.29736e+06
580281
7.97016e+06
683375
7.60883e+06
806365
7.20917e+06
953669
6.76356e+06
1.13272e+06
6.2591e+06
1.35494e+06
5.67596e+06
1.63859e+06
4.99479e+06
2.00687e+06
4.20667e+06
2.49055e+06
3.31937e+06
3.12228e+06
2.40414e+06
3.9463e+06
1.63051e+06
4.96595e+06
1.32031e+06
6.15369e+06
1.40407e+06
7.94537e+06
1.09819e+06
9.97725e+06
511996
1.11721e+07
-217191
1.16628e+07
-1.60734e+06
1.19127e+07
-3.31573e+06
1.21001e+07
-4.65613e+06
1.204e+07
-5.56778e+06
1.10664e+07
-6.58931e+06
9.2784e+06
-7.82684e+06
8.25415e+06
-8.39858e+06
8.19267e+06
-7.81286e+06
8.12132e+06
-5.78808e+06
7.73621e+06
-2.59842e+06
6.81488e+06
984638
5.19595e+06
5.00579e+06
2.89094e+06
9.4072e+06
2.03608e+06
1.44208e+07
500714
2.4438e+07
-1.07296e+07
3.73785e+07
-2.10973e+07
4.93392e+07
-3.69209e+07
4.71467e+07
-3.49512e+07
3.00068e+07
-1.7999e+07
7.23426e+06
-4.44888e+06
-8.24391e+06
-3.22454e+06
-1.52118e+07
-7.29647e+06
-2.05185e+07
-1.28704e+07
-2.44603e+07
-1.32664e+07
-2.62458e+07
-1.26609e+07
-2.7965e+07
-1.3119e+07
-3.03164e+07
-1.35993e+07
-3.24404e+07
-9.50437e+06
-3.79921e+07
1.13875e+06
-6.84675e+06
9.98204e+06
-4382.95
7404.41
9.78922e+06
-24481.6
244809
9.58721e+06
-28095.7
313191
9.37631e+06
-28723.8
362822
9.15395e+06
-29378.5
420031
8.91643e+06
-30322.6
489109
8.6603e+06
-31599.6
571993
8.38138e+06
-33284.4
670541
8.07591e+06
-35343.1
787911
7.74121e+06
-37702.4
927138
7.37598e+06
-39961.8
1.09314e+06
6.97875e+06
-42188
1.2925e+06
6.54027e+06
-45740.3
1.53517e+06
6.05845e+06
-49197.3
1.84037e+06
5.49742e+06
-62611.6
2.21945e+06
4.89305e+06
-69180.6
2.70976e+06
4.20701e+06
-95800.8
3.31256e+06
3.56627e+06
-109511
4.06725e+06
2.99202e+06
-153647
4.9369e+06
2.75334e+06
-156539
5.87376e+06
3.06257e+06
-171298
7.03582e+06
3.91618e+06
-180429
8.67624e+06
4.72137e+06
-155690
1.00356e+07
5.22114e+06
-103283
1.07962e+07
5.27403e+06
-149374
1.14708e+07
4.9755e+06
-186385
1.21137e+07
4.52496e+06
-75973.1
1.2312e+07
3.68895e+06
109744
1.19177e+07
2.68878e+06
150851
1.05345e+07
1.88199e+06
119974
9.38636e+06
1.21627e+06
214881
9.09676e+06
446656
470640
8.86925e+06
-580290
825988
8.37439e+06
-2.15489e+06
1.09297e+06
7.75593e+06
-4.30984e+06
1.15728e+06
6.96339e+06
-6.87866e+06
1.51384e+06
5.94024e+06
-8.52813e+06
1.87873e+06
5.03715e+06
-8.35161e+06
1.43897e+06
3.65257e+06
-6.6279e+06
1.71188e+06
-614471
-5.26039e+06
2.69053e+06
-3.41159e+06
-1.08611e+07
5.37858e+06
-2.97411e+06
-1.99559e+07
6.15681e+06
-614321
-3.46784e+07
7.66814e+06
6.54134e+06
-4.00807e+07
2.78473e+06
1.6606e+07
-1.70044e+07
-1.14579e+07
1.61808e+07
-5.07117e+06
-1.72629e+06
6.47762e+06
-7.39128e+06
6.65315e+06
6.24877e+06
-8.4492e+06
6.37096e+06
8.60817e+06
-1.2859e+07
6.78109e+06
5.30132e+06
-2.19087e+07
4.26644e+06
488502
-2.39095e+07
3.1644e+06
-8.60108e+06
-2.13558e+07
1.86658e+06
-1.04926e+07
-1.68339e+07
-592999
160530
-454210
3.57807e+06
9.97751e+06
7232.8
9.79092e+06
245479
9.59018e+06
314802
9.37995e+06
364753
9.15799e+06
422150
8.92069e+06
491442
8.66461e+06
574582
8.38562e+06
673458
8.08001e+06
791239
7.74534e+06
931098
7.3797e+06
1.09802e+06
6.9805e+06
1.29891e+06
6.54074e+06
1.54486e+06
6.04726e+06
1.85175e+06
5.48914e+06
2.24047e+06
4.85852e+06
2.73318e+06
4.17533e+06
3.35408e+06
3.48287e+06
4.12046e+06
2.87715e+06
5.01869e+06
2.53619e+06
5.95317e+06
2.83964e+06
7.19112e+06
3.5406e+06
8.92357e+06
4.19086e+06
1.02979e+07
4.60119e+06
1.11361e+07
4.461e+06
1.19196e+07
3.84214e+06
1.25828e+07
3.21326e+06
1.26858e+07
2.51625e+06
1.20174e+07
1.77109e+06
1.03881e+07
1.1999e+06
9.21776e+06
985142
8.92713e+06
1.25984e+06
8.63918e+06
2.05665e+06
8.10304e+06
2.7803e+06
7.58469e+06
2.64772e+06
7.0804e+06
2.16904e+06
5.79528e+06
2.88227e+06
4.33437e+06
3.4525e+06
2.61786e+06
3.74844e+06
-7.93549e+06
3.49713e+06
-1.69349e+07
-7.69796e+06
-1.94787e+07
-1.72091e+07
-1.86655e+07
-1.25507e+07
-1.45785e+07
-5.21434e+06
-8.84738e+06
-1.34627e+07
-6.33677e+06
-1.95574e+07
-2.86723e+06
-2.22759e+07
-3.34252e+06
-2.44571e+07
-4.35324e+06
-2.55351e+07
-4.15984e+06
-2.70399e+07
-6.38577e+06
-2.51118e+07
-1.11165e+07
-2.1274e+07
-1.00038e+07
-2.15964e+07
1.89286e+06
3.28624e+06
9.98207e+06
-4366.38
7433.88
9.7991e+06
-24371.4
276927
9.60825e+06
-27338.5
354826
9.40963e+06
-27740.5
410409
9.20096e+06
-28341.3
474092
8.97894e+06
-29271.9
551056
8.74049e+06
-30554.6
642821
8.48194e+06
-32240.8
751746
8.20043e+06
-34292
880800
7.89429e+06
-36521
1.03371e+06
7.56524e+06
-38517.9
1.21418e+06
7.21447e+06
-40223.9
1.42916e+06
6.84144e+06
-41861.7
1.68824e+06
6.43838e+06
-45493.4
2.00517e+06
5.99521e+06
-52141.4
2.39461e+06
5.51725e+06
-60513.4
2.88447e+06
4.99518e+06
-79457.5
3.46506e+06
4.50752e+06
-90043.5
4.18423e+06
4.05928e+06
-123770
4.97693e+06
3.77759e+06
-130945
5.84701e+06
3.78687e+06
-144619
6.76396e+06
4.39275e+06
-130092
8.04288e+06
5.19749e+06
-125695
9.28116e+06
6.02032e+06
-84605.8
1.01689e+07
6.85929e+06
-105119
1.08755e+07
7.7212e+06
-111140
1.15336e+07
8.44747e+06
-33114.9
1.17938e+07
8.60945e+06
137462
1.18312e+07
8.2587e+06
239173
1.09396e+07
8.03651e+06
178178
9.80181e+06
8.01342e+06
99485.3
9.4283e+06
7.79823e+06
114486
9.38373e+06
7.17543e+06
231708
9.17234e+06
6.06579e+06
384134
8.88629e+06
4.87485e+06
485705
8.11729e+06
4.00771e+06
705768
6.68672e+06
3.20052e+06
1.0801e+06
5.51284e+06
1.20955e+06
1.49338e+06
4.94211e+06
-5.14451e+06
2.65204e+06
3.88682e+06
-1.4745e+07
4.33362e+06
2.65958e+06
-2.52969e+07
6.41836e+06
1.9493e+06
-3.74496e+07
8.62836e+06
3.69316e+06
-4.22322e+07
8.15174e+06
3.86422e+06
-4.26924e+07
3.87228e+06
1.35945e+07
-3.23236e+07
-8.68688e+06
1.48692e+07
-1.75964e+07
-9.09202e+06
1.28156e+06
-1.5465e+07
-633790
5.21343e+06
-1.22191e+07
1.21607e+06
4.77522e+06
-1.00089e+07
2.56777e+06
1.47613e+06
-1.34522e+07
2.68579e+06
2.7055e+06
-1.76958e+07
2.50324e+06
-5.36959e+06
-1.66107e+07
2.30992e+06
-1.23183e+07
3.96798e+06
280138
-1.951e+07
-46765.5
-5.30532e+06
9.97752e+06
7582.39
9.80145e+06
279802
9.61149e+06
357359
9.41339e+06
413000
9.20507e+06
476944
8.98323e+06
554265
8.7448e+06
646449
8.48618e+06
755872
8.20466e+06
885487
7.89869e+06
1.03919e+06
7.5696e+06
1.22069e+06
7.21825e+06
1.4375e+06
6.84218e+06
1.69916e+06
6.43497e+06
2.01966e+06
5.98714e+06
2.41634e+06
5.49514e+06
2.90656e+06
4.97331e+06
3.50779e+06
4.4492e+06
4.22521e+06
3.97336e+06
5.05083e+06
3.58422e+06
5.9053e+06
3.55764e+06
6.86983e+06
4.04595e+06
8.18341e+06
4.74376e+06
9.48095e+06
5.43383e+06
1.04309e+07
6.12036e+06
1.1249e+07
6.78745e+06
1.19315e+07
7.42453e+06
1.21451e+07
7.71384e+06
1.20154e+07
7.67003e+06
1.08644e+07
7.66568e+06
9.6369e+06
7.64512e+06
9.3074e+06
7.37746e+06
9.28869e+06
6.89544e+06
9.08324e+06
6.29743e+06
8.83556e+06
6.04574e+06
8.13317e+06
6.39786e+06
6.56919e+06
7.17623e+06
5.12807e+06
7.55448e+06
4.24953e+06
1.79757e+06
996677
-7.45558e+06
-2.8456e+06
-1.51173e+07
-4.93113e+06
-1.88814e+07
-5.82412e+06
-1.9051e+07
-5.92955e+06
-1.68861e+07
-6.83755e+06
-1.79531e+07
-1.36299e+07
-2.12095e+07
-8.38007e+06
-2.28864e+07
-1.96476e+06
-2.22957e+07
-3.25986e+06
-2.14147e+07
-1.84844e+06
-2.20459e+07
-2.24269e+06
-2.27986e+07
-6.82833e+06
-1.84581e+07
-1.09026e+07
1.46322e+06
-1.70044e+07
-4.3328e+06
9.98416e+06
-4159.06
9300.74
9.81165e+06
-22024.7
309148
9.63261e+06
-25422.4
393719
9.44723e+06
-25934.2
454285
9.25338e+06
-26439.3
523696
9.04832e+06
-27209.7
607318
8.82919e+06
-28318.9
706512
8.59246e+06
-29807.1
824264
8.33598e+06
-31665.4
962795
8.06026e+06
-33541.3
1.12586e+06
7.76772e+06
-35132.5
1.31753e+06
7.46387e+06
-35887.6
1.54377e+06
7.1516e+06
-36266.5
1.81284e+06
6.82479e+06
-38195.1
2.13562e+06
6.48803e+06
-39642.9
2.52991e+06
6.11027e+06
-52131.1
2.99971e+06
5.74562e+06
-55387.4
3.57328e+06
5.3634e+06
-78580.8
4.22965e+06
5.07382e+06
-88002.9
4.98619e+06
4.82801e+06
-120468
5.77686e+06
4.8148e+06
-117373
6.62422e+06
5.16106e+06
-130422
7.60914e+06
5.91377e+06
-106582
8.65505e+06
6.82096e+06
-74838.6
9.47617e+06
7.9042e+06
-64773.4
1.01016e+07
9.09275e+06
-58783.2
1.06462e+07
1.01848e+07
-16905.8
1.09243e+07
1.08966e+07
95660.7
1.12094e+07
1.09918e+07
198629
1.08684e+07
1.09157e+07
186476
9.98363e+06
1.109e+07
115916
9.48655e+06
1.13779e+07
80184.7
9.39084e+06
1.15464e+07
124136
9.25925e+06
1.13775e+07
230720
9.19473e+06
1.07327e+07
331514
8.8063e+06
9.80969e+06
464910
7.56059e+06
8.89059e+06
724065
6.15622e+06
7.43172e+06
1.13472e+06
5.68455e+06
3.55176e+06
1.73341e+06
6.33723e+06
-3.76459e+06
2.52552e+06
7.67376e+06
-1.39013e+07
4.07364e+06
8.31346e+06
-2.58839e+07
6.68922e+06
9.45285e+06
-4.52506e+07
1.20237e+07
1.17627e+07
-4.96085e+07
6.88528e+06
1.1649e+07
-3.45445e+07
-9.12001e+06
9.5506e+06
-2.76361e+07
-1.10932e+07
6.35081e+06
-2.0529e+07
-4.01078e+06
3.14315e+06
-1.61876e+07
10453.1
1.56045e+06
-1.28643e+07
1.23796e+06
-1.80505e+06
-1.11347e+07
2.91337e+06
-418187
-1.5298e+07
3.79498e+06
-3.21328e+06
-1.97415e+07
4.00102e+06
-1.01974e+07
-1.6973e+07
3.27249e+06
-2.41284e+07
497211
-9.17114e+06
9.97978e+06
9075.85
9.81326e+06
309836
9.63559e+06
395528
9.45094e+06
456447
9.25754e+06
526042
9.05272e+06
609858
8.83366e+06
709288
8.59689e+06
827319
8.3406e+06
966239
8.06523e+06
1.1298e+06
7.7734e+06
1.32232e+06
7.46945e+06
1.54983e+06
7.15519e+06
1.8209e+06
6.8277e+06
2.14747e+06
6.47896e+06
2.54289e+06
6.10732e+06
3.0226e+06
5.71819e+06
3.59598e+06
5.3382e+06
4.26884e+06
4.99041e+06
5.03192e+06
4.69295e+06
5.84167e+06
4.55928e+06
6.69059e+06
4.81101e+06
7.71553e+06
5.41719e+06
8.79131e+06
6.23448e+06
9.6644e+06
7.22256e+06
1.03801e+07
8.31058e+06
1.09683e+07
9.35203e+06
1.12465e+07
1.01363e+07
1.14749e+07
1.04239e+07
1.0952e+07
1.05325e+07
9.93347e+06
1.07744e+07
9.42903e+06
1.10383e+07
9.36518e+06
1.12349e+07
9.27052e+06
1.1291e+07
9.26184e+06
1.11439e+07
8.86949e+06
1.09886e+07
7.47504e+06
1.13027e+07
5.84323e+06
1.18646e+07
5.07296e+06
9.82707e+06
4.9321e+06
4.34091e+06
5.30209e+06
-1.40281e+06
5.09048e+06
-4.62503e+06
4.41545e+06
-1.28974e+06
3.20725e+06
1.59773e+06
-2.33454e+06
-1.05715e+07
-9.95088e+06
-2.32083e+07
-6.30066e+06
-2.59205e+07
-2.77669e+06
-2.34488e+07
-5.13543e+06
-2.20171e+07
-1.45845e+06
-2.11523e+07
570637
-2.20468e+07
-1.11863e+06
-2.06714e+07
-7.16973e+06
-1.25431e+07
-2.10587e+07
-7.90328e+06
9.98415e+06
-4146.79
8896.62
9.82367e+06
-22011
333988
9.65819e+06
-24654.4
426073
9.48759e+06
-24922.3
490750
9.31002e+06
-25395.9
564413
9.12311e+06
-26194.9
652785
8.92417e+06
-27358.1
757272
8.71067e+06
-28925.2
880703
8.48065e+06
-30827.6
1.02565e+06
8.23551e+06
-32714.9
1.19522e+06
7.98044e+06
-34097.3
1.39316e+06
7.72255e+06
-34443.6
1.62516e+06
7.46728e+06
-34174.5
1.89744e+06
7.21574e+06
-34040.6
2.21971e+06
6.9599e+06
-36553.4
2.60383e+06
6.69358e+06
-42444.3
3.05893e+06
6.43082e+06
-48884.6
3.60364e+06
6.17031e+06
-65232.6
4.21422e+06
5.98532e+06
-71336.1
4.92121e+06
5.85263e+06
-97007.9
5.65232e+06
5.88448e+06
-100748
6.43633e+06
6.17125e+06
-119915
7.2453e+06
6.84226e+06
-98096.3
8.10686e+06
7.74406e+06
-74539.7
8.81292e+06
8.84012e+06
-45545.7
9.37643e+06
1.00065e+07
-29428.1
9.84838e+06
1.11018e+07
-2350.33
1.01253e+07
1.20566e+07
63000.9
1.04404e+07
1.25887e+07
152022
1.04454e+07
1.28019e+07
184821
9.89533e+06
1.31123e+07
150467
9.38424e+06
1.36333e+07
102107
9.15788e+06
1.42189e+07
94770.6
8.9789e+06
1.46933e+07
148329
8.96108e+06
1.47289e+07
227366
8.92359e+06
1.41393e+07
317541
8.2335e+06
1.31642e+07
470981
7.0908e+06
1.20096e+07
719571
6.52754e+06
1.04826e+07
987996
7.20939e+06
8.38217e+06
1.21099e+06
8.84458e+06
4.81586e+06
1.83376e+06
1.03503e+07
-541870
3.41024e+06
1.17957e+07
-1.13348e+07
7.89577e+06
1.51322e+07
-1.98856e+07
7.2746e+06
1.3348e+07
-1.86205e+07
-428675
9.12991e+06
-1.52168e+07
-5.5274e+06
8.90567e+06
-1.46577e+07
-5.69727e+06
8.8898e+06
-1.54698e+07
-4.77013e+06
8.09121e+06
-1.79907e+07
-2.62286e+06
4.34812e+06
-2.13894e+07
1.19943e+06
2.62735e+06
-2.77149e+07
3.37556e+06
169360
-3.67551e+07
4.03399e+06
-4.25432e+06
-5.41734e+07
4.06298e+06
-9.95706e+06
1.40224e+06
1.34174e+07
9.97975e+06
9085.79
9.82604e+06
337395
9.66147e+06
429074
9.49141e+06
493797
9.31419e+06
567731
9.12744e+06
656470
8.92852e+06
761400
8.71498e+06
885337
8.48516e+06
1.03091e+06
8.24062e+06
1.20117e+06
7.98649e+06
1.40016e+06
7.72895e+06
1.63346e+06
7.47311e+06
1.90796e+06
7.21817e+06
2.23302e+06
6.95851e+06
2.62062e+06
6.68932e+06
3.08217e+06
6.41462e+06
3.62534e+06
6.15554e+06
4.25347e+06
5.93219e+06
4.95611e+06
5.76283e+06
5.7119e+06
5.69091e+06
6.48753e+06
5.88264e+06
7.33268e+06
6.4027e+06
8.19629e+06
7.19515e+06
8.94827e+06
8.17521e+06
9.5669e+06
9.251e+06
1.00824e+07
1.03017e+07
1.03798e+07
1.12978e+07
1.07062e+07
1.19489e+07
1.06269e+07
1.23191e+07
9.95211e+06
1.27491e+07
9.38469e+06
1.33098e+07
9.16178e+06
1.39174e+07
9.01646e+06
1.45069e+07
9.06927e+06
1.48147e+07
9.03414e+06
1.46598e+07
8.20698e+06
1.43771e+07
6.86028e+06
1.43241e+07
6.07364e+06
1.39977e+07
6.41712e+06
1.29957e+07
7.65486e+06
1.1336e+07
8.74731e+06
1.01538e+07
9.22539e+06
1.23304e+07
9.16312e+06
1.25669e+07
4.95945e+06
3.45223e+06
-1.00101e+06
-6.77838e+06
-1.25896e+06
-1.54376e+07
679952
-2.40935e+07
-681427
-2.72181e+07
-564943
-2.94326e+07
4.25349e+06
-3.12806e+07
4.47912e+06
-3.32699e+07
-593452
-3.9521e+07
-1.06301e+07
1.13766e+07
9.9866e+06
-3895.03
10796.3
9.83825e+06
-19206
359457
9.68637e+06
-22343.7
455699
9.53085e+06
-22746
523446
9.37006e+06
-23120
600527
9.20184e+06
-23752.7
692723
9.02384e+06
-24717.6
801298
8.83375e+06
-26080.4
928996
8.63051e+06
-27718.9
1.07831e+06
8.41597e+06
-29351.9
1.252e+06
8.19702e+06
-30179.7
1.45369e+06
7.98273e+06
-29949.7
1.68782e+06
7.78155e+06
-28506.1
1.95988e+06
7.59516e+06
-27131.9
2.27718e+06
7.41533e+06
-28348.3
2.64798e+06
7.24651e+06
-29539.8
3.08596e+06
7.06295e+06
-41824.8
3.5864e+06
6.92501e+06
-43558.2
4.168e+06
6.81197e+06
-61828.5
4.79683e+06
6.81394e+06
-67247.2
5.4782e+06
6.90813e+06
-90160.7
6.16029e+06
7.25447e+06
-92843.8
6.86358e+06
7.87021e+06
-95382.4
7.54683e+06
8.76461e+06
-70298.7
8.14967e+06
9.79721e+06
-46242.5
8.66333e+06
1.08412e+07
-30823.9
9.13818e+06
1.18063e+07
-13520.2
9.44308e+06
1.2765e+07
23286.5
9.68311e+06
1.35538e+07
89151.5
9.78585e+06
1.40652e+07
142825
9.49519e+06
1.45288e+07
150009
9.07549e+06
1.51334e+07
121840
8.7764e+06
1.58498e+07
96081.1
8.52998e+06
1.66249e+07
108205
8.43612e+06
1.72251e+07
157955
8.50961e+06
1.72982e+07
220547
8.28319e+06
1.6804e+07
308092
7.63052e+06
1.60551e+07
447925
7.17284e+06
1.53801e+07
616950
7.5695e+06
1.48128e+07
777937
8.8859e+06
1.3709e+07
1.10575e+06
1.05785e+07
1.14419e+07
1.97511e+06
1.23273e+07
7.51056e+06
4.47729e+06
1.48309e+07
1.81009e+06
5.19754e+06
1.4083e+07
-1.63098e+06
2.02379e+06
1.07437e+07
-990753
-1.42991e+06
9.91361e+06
589131
-2.90379e+06
1.04726e+07
820603
-4.03164e+06
1.21197e+07
-2.19247e+06
-5.56729e+06
1.2882e+07
-9.66013e+06
-2.71462e+06
1.19997e+07
-2.48187e+07
1.42885e+06
1.28858e+07
-4.58073e+07
2.94259e+06
1.31119e+07
-6.26455e+07
1.39325e+06
4.89971e+06
1.52307e+06
7.17833e+07
9.98242e+06
10529.9
9.83975e+06
360081
9.68931e+06
457561
9.53457e+06
525674
9.37425e+06
602918
9.20626e+06
695281
9.02831e+06
804055
8.83826e+06
932017
8.63526e+06
1.08164e+06
8.42167e+06
1.2558e+06
8.20385e+06
1.45805e+06
7.99074e+06
1.69317e+06
7.78912e+06
1.96667e+06
7.60002e+06
2.28611e+06
7.41917e+06
2.66069e+06
7.23881e+06
3.09913e+06
7.06269e+06
3.60861e+06
6.90355e+06
4.18798e+06
6.78962e+06
4.83024e+06
6.73887e+06
5.516e+06
6.78622e+06
6.21595e+06
7.02063e+06
6.92113e+06
7.5308e+06
7.62668e+06
8.29448e+06
8.24854e+06
9.21524e+06
8.80201e+06
1.01555e+07
9.31593e+06
1.10581e+07
9.64852e+06
1.20248e+07
9.92636e+06
1.2885e+07
1.00232e+07
1.35129e+07
9.66042e+06
1.40987e+07
9.17183e+06
1.47848e+07
8.84112e+06
1.55467e+07
8.60038e+06