/*--------------------------------*- C++ -*----------------------------------*\
| =========                 |                                                 |
| \\      /  F ield         | OpenFOAM: The Open Source CFD Toolbox           |
|  \\    /   O peration     | Version:  4.1                                   |
|   \\  /    A nd           | Web:      www.OpenFOAM.org                      |
|    \\/     M anipulation  |                                                 |
\*---------------------------------------------------------------------------*/
FoamFile
{
    version     2.0;
    format      ascii;
    class       volVectorField;
    location    "8";
    object      U;
}
// * * * * * * * * * * * * * * * * * * * * * * * * * * * * * * * * * * * * * //

dimensions      [0 1 -1 0 0 0 0];

internalField   nonuniform List<vector> 
4432
(
(40.0269 -0.003056 0.0508804)
(39.4416 -0.0523744 0.18606)
(38.4999 -0.0731449 0.219144)
(37.4546 -0.083396 0.242134)
(36.3535 -0.0915546 0.268655)
(35.1784 -0.0998291 0.301952)
(33.9057 -0.107766 0.341738)
(32.5055 -0.115632 0.389094)
(30.9527 -0.124976 0.446943)
(29.2194 -0.134865 0.515605)
(27.2423 -0.146933 0.599045)
(24.9677 -0.162241 0.702743)
(22.2527 -0.186179 0.842224)
(18.9112 -0.226722 1.02459)
(14.7504 -0.282891 1.30729)
(9.47764 -0.356996 1.67542)
(2.56717 -0.5231 2.28182)
(-5.38611 -0.907252 3.00732)
(-13.5914 -1.75018 3.70043)
(-35.3478 -3.14691 0.446276)
(-30.2035 -3.23454 -1.54515)
(-28.8265 -3.36407 -1.28076)
(-31.0393 -3.49671 -3.71638)
(-28.903 -3.38465 -5.97583)
(-20.9088 -3.42252 -5.23188)
(-18.7676 -3.67218 -4.71998)
(-16.5468 -3.6414 -4.4858)
(-18.8364 -3.32732 -4.67895)
(-22.1887 -3.09905 -4.68968)
(-25.2371 -3.22259 -4.09824)
(-31.3577 -3.42882 -4.18252)
(-37.4214 -3.47887 -4.09557)
(-45.3553 -3.47395 -3.0373)
(-56.7862 -3.47644 -3.04171)
(-68.4172 -3.60049 -5.04925)
(-76.3603 -3.84338 -8.15647)
(-81.5513 -4.21589 -10.4698)
(-83.014 -4.41863 -13.0795)
(-80.3842 -4.56981 -15.5142)
(-75.163 -4.79479 -17.5435)
(-67.6866 -4.99896 -20.0621)
(-58.6863 -5.14227 -22.2335)
(-49.7332 -5.22682 -22.7626)
(-43.7512 -5.43831 -21.2741)
(-41.3899 -5.49213 -23.8825)
(-38.5645 -3.24771 -39.5756)
(-32.8406 0.0236905 -57.6346)
(-16.4849 -0.101793 -56.1173)
(5.77771 -2.68071 -54.0445)
(63.7463 -2.58761 -75.3439)
(133.462 1.932 -122.855)
(170.14 4.80597 -173.124)
(407.594 6.34972 -60.9789)
(639.073 5.11799 -318.628)
(40.0255 -0.00305439 0.0503965)
(39.431 -0.0523845 0.184157)
(38.5099 -0.0729853 0.215752)
(37.4726 -0.083085 0.238028)
(36.3766 -0.0910251 0.264929)
(35.2061 -0.0990687 0.297415)
(33.9342 -0.106814 0.336805)
(32.5363 -0.114414 0.385207)
(30.9881 -0.12343 0.443007)
(29.2469 -0.133045 0.512019)
(27.2684 -0.144726 0.596009)
(24.9756 -0.159683 0.702167)
(22.2321 -0.183122 0.842927)
(18.8553 -0.222875 1.03829)
(14.6311 -0.278166 1.31235)
(9.08021 -0.35333 1.72302)
(2.08712 -0.510892 2.32642)
(-6.98364 -0.918983 3.30444)
(-17.0061 -1.88782 4.26926)
(-50.1961 -2.95489 -0.262353)
(-50.7085 -2.61509 -2.62175)
(-55.2783 -2.61281 -2.46197)
(-64.9933 -2.55916 -5.28554)
(-69.8296 -2.26946 -8.06187)
(-67.1392 -2.2219 -7.67704)
(-71.6887 -2.39558 -7.28352)
(-76.8345 -2.29731 -7.33065)
(-84.3969 -1.90114 -8.2725)
(-91.9477 -1.64538 -8.92182)
(-97.6944 -1.70792 -8.7268)
(-106.302 -1.81938 -8.94024)
(-114.647 -1.75966 -9.02708)
(-124.44 -1.67567 -8.20435)
(-136.663 -1.51862 -8.61304)
(-148.401 -1.43748 -10.937)
(-156.091 -1.45147 -14.2434)
(-161.079 -1.58038 -16.7972)
(-162.933 -1.5419 -19.3618)
(-160.816 -1.50963 -22.0416)
(-156.054 -1.60055 -24.9561)
(-148.845 -1.68984 -28.5999)
(-139.352 -1.74808 -32.1694)
(-128.986 -1.80964 -34.3576)
(-120.523 -2.12348 -35.3291)
(-115.407 -2.55908 -40.227)
(-110.3 -0.926889 -53.1782)
(-91.6343 1.75982 -66.3172)
(-57.0027 1.84356 -70.1025)
(-25.4753 -0.522108 -72.7874)
(39.7693 -1.36183 -91.248)
(110.018 1.83578 -135.542)
(169.616 5.03201 -189.468)
(433.885 6.66302 -77.5098)
(698.966 6.00018 -359.216)
(40.0478 -0.0031152 0.0133897)
(39.5765 -0.0563577 0.307609)
(38.809 -0.0789636 0.389122)
(37.9301 -0.0904654 0.449799)
(37.0066 -0.0999402 0.520895)
(36.0262 -0.109051 0.606776)
(34.9674 -0.118348 0.710852)
(33.8109 -0.128242 0.836229)
(32.5355 -0.138921 0.987258)
(31.1178 -0.150775 1.17071)
(29.5241 -0.164556 1.39168)
(27.6992 -0.181452 1.66785)
(25.5224 -0.212304 2.02982)
(22.8721 -0.24692 2.52054)
(19.5545 -0.316636 3.23163)
(15.3806 -0.386893 4.24082)
(9.99857 -0.552003 5.76794)
(3.15868 -0.818994 8.04435)
(-3.93172 -1.504 11.2438)
(-27.5313 -2.36219 10.887)
(-48.278 -2.52354 8.27297)
(-63.4527 -2.54424 9.67443)
(-82.3683 -2.47885 9.88653)
(-106.274 -2.18248 7.84386)
(-112.803 -2.05377 6.37802)
(-122.914 -2.12872 8.14422)
(-134.702 -1.98912 11.6807)
(-148.716 -1.49657 14.8754)
(-161.422 -1.23943 16.3156)
(-168.942 -1.64465 17.6209)
(-178.204 -1.98588 19.3126)
(-188.698 -2.05282 21.7758)
(-199.505 -2.03576 25.5021)
(-211.706 -1.937 28.1283)
(-221.103 -1.82925 26.735)
(-227.335 -1.95947 24.1303)
(-233.157 -2.04834 21.701)
(-238.725 -2.02292 19.0561)
(-242.175 -2.14908 16.3615)
(-243.003 -2.47483 13.866)
(-240.185 -2.90822 11.419)
(-233.668 -3.25535 9.19339)
(-224.223 -3.43823 6.86127)
(-208.582 -3.66862 4.4635)
(-181.1 -4.77666 1.79397)
(-148.296 -4.72666 -2.85169)
(-144.391 -2.81798 -2.33244)
(-146.66 -0.62115 -14.2849)
(-137.371 0.675642 -44.4455)
(-123.619 1.41821 -77.7357)
(-143.11 2.39115 -109.185)
(-262.787 4.18368 -129.192)
(-388.574 3.81219 -86.9361)
(-138.674 0.533418 -96.1925)
(40.0461 -0.00311293 0.0128401)
(39.5625 -0.0563656 0.30561)
(38.8112 -0.0787944 0.386751)
(37.937 -0.0900686 0.447152)
(37.0126 -0.099294 0.517885)
(36.0303 -0.108134 0.604161)
(34.9696 -0.117133 0.708476)
(33.8104 -0.126691 0.833828)
(32.5318 -0.136995 0.986068)
(31.1092 -0.148432 1.17092)
(29.5085 -0.161711 1.39448)
(27.6592 -0.17803 1.67487)
(25.4649 -0.208193 2.04176)
(22.7591 -0.242025 2.55026)
(19.3744 -0.310887 3.27837)
(15.052 -0.379437 4.33257)
(9.36117 -0.543953 5.97467)
(1.94705 -0.811469 8.58639)
(-5.71697 -1.5379 12.5494)
(-36.2183 -2.16468 11.9087)
(-58.2304 -1.91675 8.63184)
(-76.2154 -1.77906 10.4673)
(-98.6533 -1.4401 11.2031)
(-124.074 -0.644595 9.75289)
(-129.795 -0.0202874 9.68002)
(-140.53 0.184188 12.7392)
(-151.719 0.593553 16.9861)
(-164.685 1.33919 20.8044)
(-172.317 1.9086 22.5817)
(-175.559 1.74238 24.4031)
(-182.406 1.63663 26.5837)
(-189.923 1.79998 29.574)
(-197.581 2.03645 33.6972)
(-205.557 2.38949 36.4678)
(-208.734 2.80269 34.7112)
(-208.683 2.86091 31.7036)
(-209.623 2.9128 28.5393)
(-210.904 3.01934 24.8638)
(-210.082 2.91002 20.2405)
(-207.117 2.54692 14.967)
(-200.936 2.00335 8.85219)
(-191.872 1.45784 3.13065)
(-181.623 0.969822 -1.39581)
(-170.167 0.31547 -3.86838)
(-157.789 -1.54538 -7.11483)
(-150.583 -2.5182 -13.5039)
(-152.333 -1.23729 -21.0837)
(-152.113 0.801622 -32.1633)
(-148.59 2.2143 -55.0555)
(-137.394 2.70505 -89.7934)
(-158.252 2.90992 -118.638)
(-283.338 4.21863 -137.807)
(-419.163 3.94547 -96.9136)
(-169.084 0.761522 -107.101)
(40.0427 -0.00318344 0.0146541)
(39.5175 -0.0566382 0.441454)
(38.681 -0.0785793 0.571179)
(37.7412 -0.0896735 0.665426)
(36.756 -0.0988861 0.773501)
(35.7106 -0.107778 0.903574)
(34.5829 -0.116816 1.06013)
(33.3522 -0.126361 1.24828)
(31.9969 -0.136658 1.47444)
(30.4945 -0.147852 1.74627)
(28.8176 -0.160382 2.0754)
(26.9183 -0.176934 2.48547)
(24.713 -0.201231 3.00773)
(22.096 -0.236243 3.73408)
(18.9295 -0.29433 4.7189)
(15.1013 -0.360898 6.19975)
(10.4744 -0.494242 8.3143)
(5.08225 -0.688341 11.7203)
(0.0710608 -1.10072 17.0439)
(-12.0745 -1.66123 22.5382)
(-29.9021 -2.13119 23.5234)
(-42.2647 -2.17038 25.243)
(-59.0927 -2.12143 26.6149)
(-77.8546 -1.79809 22.3381)
(-94.5585 -1.62358 17.7638)
(-110.118 -1.48536 19.5762)
(-127.51 -1.16311 23.4922)
(-143.859 -0.767687 25.317)
(-154.21 -0.642388 23.0168)
(-158.586 -0.848356 21.3348)
(-166.896 -0.907107 23.727)
(-175.778 -0.695619 26.9751)
(-184.511 -0.41312 29.9875)
(-193.446 -0.157924 30.0555)
(-199.615 -0.133577 25.3144)
(-204.044 -0.32824 20.0451)
(-211.041 -0.573456 19.4941)
(-217.201 -1.00618 19.8034)
(-218.998 -2.13433 18.8336)
(-215.725 -4.0139 18.7336)
(-204.232 -6.44303 18.9584)
(-184.456 -8.0176 21.4662)
(-159.038 -7.74119 26.0118)
(-123.537 -4.69109 28.2415)
(-74.0803 -5.33922 25.2636)
(-24.0861 -11.504 18.5117)
(5.78389 -16.2017 11.2763)
(28.8019 -12.3184 -6.20434)
(43.0833 -6.98554 -27.9276)
(49.297 -3.82515 -45.196)
(25.9898 -0.241491 -85.2131)
(-125.362 4.62912 -116.676)
(-347.914 4.26738 -98.3954)
(-289.548 1.84171 -57.2043)
(40.0411 -0.00318149 0.0145361)
(39.5061 -0.0566423 0.444172)
(38.6886 -0.0784025 0.574213)
(37.7553 -0.0892699 0.66869)
(36.7712 -0.0982371 0.777148)
(35.7262 -0.10686 0.907754)
(34.5985 -0.115601 1.06499)
(33.3669 -0.124812 1.25407)
(32.0099 -0.134729 1.48134)
(30.5047 -0.145499 1.75503)
(28.8205 -0.157527 2.08748)
(26.9061 -0.173466 2.50146)
(24.6762 -0.197052 3.04)
(22.0147 -0.231186 3.77084)
(18.7918 -0.288166 4.80752)
(14.8468 -0.352788 6.31279)
(10.0196 -0.483653 8.59029)
(4.31697 -0.673692 12.2137)
(-0.835092 -1.08925 18.3584)
(-15.3821 -1.50199 23.4348)
(-34.2584 -1.56481 24.0091)
(-49.2556 -1.41127 26.1906)
(-68.5945 -1.06814 28.065)
(-88.7558 -0.318268 24.1934)
(-104.848 0.171469 20.688)
(-119.146 0.450399 23.3103)
(-133.599 0.884995 27.1088)
(-144.455 1.37415 27.9823)
(-147.756 1.5358 24.654)
(-146.286 1.27826 22.9266)
(-149.958 1.16858 25.9894)
(-152.485 1.38316 28.8522)
(-153.94 1.60419 31.5172)
(-153.636 1.78579 30.3488)
(-150.151 1.58894 25.2003)
(-145.031 1.1799 20.3923)
(-142.469 0.776111 21.1226)
(-138.295 0.194917 21.8327)
(-129.421 -1.08307 19.5962)
(-116.456 -3.07974 17.2365)
(-96.7507 -5.59504 13.7762)
(-71.7233 -7.26092 11.7836)
(-47.856 -7.01631 10.9618)
(-31.8565 -3.77015 11.2486)
(-21.6903 -3.81174 5.54725)
(-14.4884 -8.35478 -7.44591)
(-10.2418 -11.11 -23.3968)
(-6.39603 -7.10811 -39.7927)
(2.3139 -0.82089 -56.5742)
(12.5733 0.856186 -77.2168)
(-1.77436 1.89573 -99.9692)
(-142.954 4.82811 -123.363)
(-356.21 4.53876 -108.74)
(-297.194 2.16971 -60.0142)
(40.0414 -0.00314935 0.0184899)
(39.5327 -0.0545978 0.599972)
(38.712 -0.0769095 0.773541)
(37.794 -0.088198 0.899593)
(36.8342 -0.0973413 1.04491)
(35.8174 -0.106053 1.22037)
(34.7219 -0.114883 1.43172)
(33.5277 -0.124147 1.68527)
(32.2138 -0.134157 1.98907)
(30.7594 -0.144814 2.35306)
(29.1427 -0.156365 2.79163)
(27.3254 -0.170978 3.32891)
(25.2559 -0.188324 4.00982)
(22.8281 -0.22392 4.90801)
(19.9716 -0.255868 6.11817)
(16.5955 -0.33035 7.81041)
(12.6886 -0.400401 10.1603)
(8.50207 -0.566575 13.5849)
(4.98021 -0.747014 18.6298)
(-0.0577287 -1.12122 25.7126)
(-6.77867 -1.62538 33.2858)
(-12.7194 -1.8526 36.5861)
(-23.0722 -1.8619 38.4754)
(-34.124 -1.73644 37.4197)
(-47.8486 -1.67028 33.6422)
(-60.4314 -1.47378 33.158)
(-75.2346 -1.0526 35.5542)
(-88.7084 -0.618614 34.3356)
(-94.1118 -0.426292 27.7357)
(-96.7893 -0.225868 23.2256)
(-103.484 0.163355 25.5522)
(-108.982 0.77851 28.9512)
(-114.53 1.38879 31.4683)
(-119.48 1.80286 31.268)
(-121.996 1.67619 27.3653)
(-124.782 1.1119 24.2508)
(-130.995 0.454408 25.1985)
(-136.223 -0.650121 25.1895)
(-136.939 -3.60312 21.9746)
(-131.42 -8.00603 19.2004)
(-111.678 -15.1622 13.7295)
(-75.6006 -22.7425 -0.34318)
(-34.2744 -29.8419 -27.4694)
(0.715533 -36.1025 -77.437)
(-10.3433 -40.3547 -97.3032)
(-25.4687 -37.2972 -67.3445)
(-21.5813 -29.021 33.3437)
(-13.894 -15.4107 53.2298)
(-126.766 -4.12667 34.588)
(-82.986 -1.29506 33.2956)
(-5.61516 -2.06483 39.7362)
(-10.1804 2.31732 13.8012)
(-17.0806 4.10273 -35.0818)
(202.818 1.18669 128.012)
(40.0399 -0.00314794 0.0184271)
(39.5209 -0.0545974 0.603531)
(38.7184 -0.0767372 0.777943)
(37.8078 -0.0878035 0.904485)
(36.8496 -0.0967055 1.05035)
(35.8335 -0.105154 1.22651)
(34.7383 -0.113692 1.43875)
(33.5437 -0.12263 1.69343)
(32.2288 -0.132272 1.9987)
(30.7728 -0.142506 2.36486)
(29.151 -0.153561 2.80694)
(27.3255 -0.16758 3.3514)
(25.2308 -0.184208 4.04367)
(22.78 -0.218878 4.95926)
(19.8726 -0.249505 6.2067)
(16.4233 -0.322304 7.9388)
(12.4012 -0.388496 10.4027)
(8.07038 -0.549726 13.9911)
(4.43702 -0.718769 19.3951)
(-1.38947 -1.03901 26.82)
(-9.3475 -1.2551 34.4193)
(-17.4648 -1.25382 37.5528)
(-30.3624 -1.0095 39.9325)
(-42.4404 -0.546849 39.5219)
(-57.0179 -0.223543 36.0635)
(-70.1229 0.0540508 35.6825)
(-84.0131 0.525994 37.6094)
(-93.806 0.963176 35.2155)
(-95.353 1.04186 28.1068)
(-95.3784 1.01606 24.3857)
(-97.6511 1.25327 27.5774)
(-96.4376 1.78817 31.2618)
(-93.2466 2.32999 33.9918)
(-87.576 2.68908 34.0148)
(-78.9483 2.53111 30.1136)
(-71.7668 2.0158 25.9978)
(-67.4924 1.51104 24.6349)
(-60.0101 0.551613 21.2589)
(-45.2454 -2.53808 12.1673)
(-23.1205 -7.44477 1.48708)
(15.306 -15.7926 -13.1819)
(63.9476 -22.4742 -31.5125)
(82.7225 -23.7394 -49.5202)
(64.2597 -17.3887 -41.4166)
(36.8953 -14.3715 -45.8587)
(-6.46756 -16.4265 -69.0878)
(-41.8468 -18.4623 -76.808)
(-64.3529 -7.3185 -71.1533)
(-62.2553 3.9853 -66.9198)
(-38.5802 6.06833 -56.1409)
(-7.33984 4.32709 -30.5256)
(-11.9704 3.44026 6.33704)
(-27.4209 3.97411 -33.8237)
(206.656 1.8388 100.358)
(40.0399 -0.00313482 0.0218984)
(39.5466 -0.0543685 0.754889)
(38.754 -0.075621 0.971506)
(37.8697 -0.0863668 1.12878)
(36.9474 -0.0952453 1.31024)
(35.9734 -0.103757 1.52928)
(34.9272 -0.112379 1.79265)
(33.7904 -0.121419 2.10814)
(32.5447 -0.131082 2.485)
(31.1731 -0.141241 2.93525)
(29.6605 -0.151947 3.47525)
(27.9878 -0.163788 4.13109)
(26.1166 -0.180323 4.95294)
(23.9838 -0.204198 5.99587)
(21.5404 -0.235336 7.39607)
(18.7239 -0.292337 9.20346)
(15.5924 -0.348288 11.6878)
(12.4005 -0.468959 14.8992)
(9.90835 -0.582392 19.2449)
(7.1699 -0.816294 24.5003)
(5.57954 -1.12612 32.8174)
(9.47361 -1.49233 40.8145)
(7.68404 -1.51096 44.3604)
(6.61664 -1.38174 44.747)
(3.95856 -1.40668 43.9614)
(-1.09145 -1.36316 43.6546)
(-8.04242 -0.960704 43.8103)
(-19.7568 -0.46868 40.431)
(-17.6091 -0.331209 31.7322)
(-17.8327 -0.076557 24.9212)
(-30.2879 0.700759 24.3915)
(-40.374 1.75648 25.353)
(-49.1789 2.77688 25.9022)
(-54.3767 3.40382 23.4)
(-54.4803 3.09747 18.0772)
(-55.9066 2.20887 14.3434)
(-60.3915 1.52015 17.5869)
(-59.5417 0.624461 19.7658)
(-51.2121 -1.69909 13.6674)
(-36.2398 -4.36304 -6.53334)
(-8.82706 -8.99624 -50.9196)
(36.5858 -17.5596 -65.5963)
(78.8187 -25.3184 -42.1789)
(67.7928 -34.2797 30.7626)
(147.59 -10.9548 118.951)
(-39.3354 1.09907 103.897)
(-38.477 -5.51598 101.446)
(1.39135 -1.55093 108.251)
(0.869147 10.643 29.5588)
(-63.0525 14.207 -65.8977)
(-76.1945 8.49129 -62.6077)
(-118.32 5.31004 -65.1227)
(-220.979 2.05985 -11.903)
(-100.733 0.55677 -53.0123)
(40.0383 -0.00313342 0.0218302)
(39.5357 -0.0543686 0.760362)
(38.762 -0.0754476 0.977866)
(37.8843 -0.0859772 1.13573)
(36.9633 -0.0946221 1.31796)
(35.9899 -0.102879 1.538)
(34.944 -0.111219 1.80262)
(33.8069 -0.119944 2.11958)
(32.5605 -0.129251 2.49844)
(31.1878 -0.139 2.95122)
(29.6726 -0.149235 3.4955)
(27.9921 -0.160445 4.15941)
(26.1052 -0.176244 4.99012)
(23.9522 -0.199193 6.06195)
(21.4659 -0.229113 7.47183)
(18.6053 -0.284365 9.35555)
(15.3936 -0.33702 11.876)
(12.1218 -0.452644 15.2675)
(9.5337 -0.555613 19.7094)
(6.38558 -0.765355 25.2432)
(4.40548 -0.957261 34.0251)
(7.5525 -1.12551 42.1196)
(2.53082 -0.905724 45.3233)
(0.839428 -0.561468 46.203)
(-2.52699 -0.407083 45.8987)
(-8.82155 -0.272065 45.3211)
(-17.7094 0.213725 44.6682)
(-28.4968 0.72593 40.0972)
(-24.2998 0.788233 31.1054)
(-24.7515 0.914286 25.246)
(-32.9625 1.56764 25.204)
(-35.1819 2.53168 26.6941)
(-31.9043 3.54533 28.0151)
(-20.633 4.29006 26.7996)
(-0.671306 4.41971 22.27)
(16.4613 4.25601 17.1579)
(27.4905 4.35965 16.9816)
(46.0639 4.61517 10.8935)
(79.6137 4.36142 -27.6071)
(123.281 3.73407 -100.116)
(187.043 -1.6093 -253.5)
(222.577 -16.6068 -276.584)
(140.886 -19.3276 -173.597)
(41.2961 -19.9225 -77.751)
(13.778 -12.179 -46.0887)
(-50.2491 15.6119 -62.732)
(-72.2629 9.1219 -75.0524)
(-90.6706 9.68119 -76.2855)
(-101.137 13.8406 -75.7355)
(-101.957 12.0482 -77.646)
(-104.057 9.09976 -82.3372)
(-139.73 5.76101 -81.7547)
(-237.843 2.01435 -23.3693)
(-126.258 0.725248 -67.1901)
(40.0379 -0.00307462 0.0258416)
(39.571 -0.0508163 0.904785)
(38.8099 -0.0723476 1.1613)
(37.964 -0.0832053 1.34685)
(37.0861 -0.0918198 1.56096)
(36.1625 -0.0999351 1.8192)
(35.1743 -0.108098 2.12913)
(34.1047 -0.116664 2.49936)
(32.9379 -0.125714 2.94026)
(31.6606 -0.135245 3.46502)
(30.2659 -0.144605 4.0914)
(28.7494 -0.154243 4.84706)
(27.0887 -0.16742 5.77523)
(25.2636 -0.180763 6.94439)
(23.2075 -0.215773 8.43966)
(20.9264 -0.238918 10.3519)
(18.4535 -0.309931 12.8068)
(16.0044 -0.366234 15.8764)
(14.0939 -0.500212 19.5964)
(12.2651 -0.599971 23.6923)
(10.5513 -0.816035 29.3877)
(14.4875 -1.03368 37.0252)
(17.5574 -1.12198 42.4514)
(20.099 -1.1022 44.579)
(21.6736 -1.24168 46.3481)
(20.9013 -1.31161 48.5241)
(18.8599 -1.01726 49.3624)
(11.861 -0.51284 47.3575)
(11.08 -0.274787 40.9532)
(11.0284 -0.216041 35.4608)
(6.9291 0.0224284 33.5983)
(2.81788 0.592452 31.9442)
(-2.04039 1.3874 29.0185)
(-8.41329 1.95637 24.2409)
(-13.0663 1.96293 16.5755)
(-18.8692 2.30316 6.80193)
(-29.9015 2.54215 1.97903)
(-34.9378 1.04121 -3.97677)
(-30.3699 0.0448501 -24.146)
(-15.1397 0.470925 -22.4362)
(-27.9852 4.74228 -1.39749)
(-62.8053 6.36544 15.4276)
(-89.1514 10.3942 32.5378)
(-194.392 0.685879 64.2441)
(-145.196 -17.6879 57.2775)
(22.1972 -5.31452 -0.193181)
(-46.0758 13.0014 -10.7014)
(-24.999 13.6974 9.16092)
(-31.1405 18.6309 7.77062)
(-69.1519 11.4867 -10.7654)
(-86.9543 7.68066 -36.6916)
(-126.143 3.86016 -33.4922)
(-134.853 -2.357 15.877)
(-11.0064 -1.49418 -1.8406)
(40.0365 -0.00307388 0.0257482)
(39.5595 -0.0508109 0.910364)
(38.8162 -0.0721843 1.16819)
(37.978 -0.0828348 1.35447)
(37.102 -0.0912387 1.56939)
(36.1793 -0.0991178 1.82862)
(35.1917 -0.106999 2.13975)
(34.122 -0.115265 2.51142)
(32.9548 -0.123979 2.95415)
(31.6774 -0.133125 3.48142)
(30.2822 -0.142042 4.11186)
(28.7606 -0.151101 4.87411)
(27.0938 -0.163521 5.81448)
(25.2441 -0.175982 6.99952)
(23.1711 -0.209941 8.51742)
(20.8503 -0.231369 10.4718)
(18.3262 -0.299878 12.9732)
(15.8074 -0.351401 16.1369)
(13.834 -0.477903 19.9342)
(11.5581 -0.56181 24.1039)
(9.51332 -0.726675 30.1998)
(13.6936 -0.822291 38.2865)
(15.4328 -0.694968 43.7068)
(17.7396 -0.469957 46.1329)
(19.1469 -0.476637 48.2663)
(17.1296 -0.457153 50.3492)
(13.535 -0.0445485 50.5497)
(6.27653 0.561299 47.12)
(7.33849 0.810752 39.6115)
(7.86728 0.796762 34.3122)
(4.6672 0.97638 32.78)
(3.06823 1.534 31.0977)
(3.62138 2.35962 28.1077)
(6.14748 3.03969 23.3209)
(12.1995 3.33189 15.2274)
(11.8883 4.33682 0.350893)
(11.0291 5.25329 -9.72451)
(17.5738 4.50433 -19.4975)
(15.179 5.94152 -82.9244)
(34.8668 9.41877 -105.634)
(-17.6744 18.8123 -81.0838)
(-47.144 22.7371 -60.6276)
(-87.4393 27.8862 -46.1233)
(-34.9455 14.219 -23.1202)
(-23.6221 -32.5278 -29.7692)
(-62.9885 -0.821832 -28.7175)
(-85.5085 18.1855 -38.6217)
(-94.2753 14.219 -36.6817)
(-97.7286 12.5792 -33.9514)
(-99.7731 9.87143 -39.3426)
(-98.6735 8.31905 -45.4017)
(-120.793 4.49649 -29.5193)
(-147.051 -2.04957 19.3862)
(-34.3906 -1.35285 -6.30543)
(40.0358 -0.0030627 0.0293621)
(39.5904 -0.0506931 1.04335)
(38.8696 -0.0708501 1.33656)
(38.0712 -0.0810269 1.54732)
(37.2451 -0.0893539 1.79009)
(36.3797 -0.0972868 2.08218)
(35.4577 -0.105314 2.43183)
(34.464 -0.113735 2.84817)
(33.3852 -0.122641 3.34228)
(32.2125 -0.131788 3.92751)
(30.9465 -0.140489 4.62244)
(29.5932 -0.148939 5.45316)
(28.1545 -0.157935 6.45936)
(26.6156 -0.171809 7.70663)
(24.9415 -0.193078 9.2463)
(23.1371 -0.218645 11.208)
(21.2106 -0.272084 13.5682)
(19.3346 -0.315231 16.5075)
(17.8119 -0.421283 19.8051)
(16.5377 -0.497372 23.4012)
(14.877 -0.656595 27.5007)
(16.1699 -0.794439 33.4749)
(19.2095 -0.936123 38.9148)
(22.2699 -0.954503 42.2136)
(25.9564 -1.04529 44.8104)
(29.5353 -1.05993 47.4614)
(32.4262 -0.880267 48.5909)
(31.2917 -0.456827 48.4167)
(31.6736 -0.109767 44.096)
(33.0912 -0.101093 39.3175)
(32.9601 -0.202771 37.8675)
(31.8345 -0.110851 37.3704)
(29.7143 0.247759 35.8605)
(24.5632 0.704479 33.7816)
(20.1155 0.989812 29.8104)
(18.9719 1.40477 23.5537)
(16.4652 1.96694 18.5642)
(10.1084 2.32215 15.319)
(-2.50566 3.43973 6.35618)
(-32.1301 5.39491 -5.04082)
(-80.151 10.3329 -9.54306)
(-111.503 15.5114 -1.06248)
(-177.179 16.9552 17.648)
(-170.817 7.85193 62.4203)
(-229.901 -24.597 65.7341)
(-23.5827 -18.8958 10.7634)
(-69.1813 -0.623447 20.1584)
(-61.9403 1.88198 21.1485)
(-31.9623 5.93683 11.7088)
(-40.7287 6.70131 9.19476)
(-46.6554 6.12289 -24.8083)
(-106 4.60128 -33.8307)
(-94.4914 -2.51264 -24.1151)
(110.726 0.213384 4.10549)
(40.0342 -0.00306181 0.0292647)
(39.58 -0.0506896 1.05054)
(38.8779 -0.0706873 1.34496)
(38.0861 -0.0806642 1.55648)
(37.2614 -0.0887903 1.80016)
(36.3968 -0.096498 2.09344)
(35.4751 -0.104256 2.44448)
(34.4813 -0.112389 2.86255)
(33.4023 -0.120972 3.35867)
(32.2301 -0.129759 3.94688)
(30.9645 -0.137998 4.64582)
(29.6099 -0.1459 5.48349)
(28.1642 -0.154278 6.50173)
(26.6106 -0.167309 7.75964)
(24.9219 -0.187426 9.33375)
(23.0816 -0.211535 11.3005)
(21.1292 -0.262802 13.7408)
(19.1953 -0.302178 16.6961)
(17.6108 -0.402358 20.1239)
(16.0544 -0.468072 23.6748)
(13.8686 -0.59922 28.0203)
(15.1944 -0.657905 34.2574)
(17.5223 -0.638362 39.8601)
(20.1631 -0.464656 43.4089)
(23.5247 -0.413802 46.4417)
(26.1563 -0.343681 49.2143)
(28.2994 -0.0755108 50.1549)
(26.8555 0.449608 49.1473)
(28.8671 0.854372 43.7187)
(31.5336 0.836972 38.5496)
(31.6706 0.687014 37.0773)
(30.1463 0.762427 36.3559)
(27.8976 1.1361 34.5163)
(23.8729 1.65553 32.4438)
(22.639 2.10025 29.089)
(25.6558 2.77885 22.6441)
(28.8744 3.75005 16.3864)
(30.1898 4.88475 11.1886)
(27.2343 8.10526 -11.6731)
(-1.02117 13.9313 -38.8936)
(-50.7437 20.7225 -49.8055)
(-63.8201 26.3951 -51.2568)
(-82.0196 23.8877 -42.3463)
(-89.845 14.4496 -35.6914)
(-72.3513 -11.1605 -40.2257)
(-61.6941 -12.9045 -25.4195)
(-91.7379 0.580494 -9.54465)
(-92.8507 4.39129 -11.8291)
(-83.3223 6.89732 -9.06681)
(-80.5116 7.21511 -13.9332)
(-75.3583 6.84414 -33.6117)
(-117.538 5.12173 -32.8127)
(-95.6839 -1.20422 -18.5129)
(93.8048 0.201294 4.26747)
(40.0332 -0.00297737 0.0329693)
(39.622 -0.045924 1.17221)
(38.9421 -0.066347 1.49799)
(38.1933 -0.0766163 1.73068)
(37.4236 -0.0846029 1.99814)
(36.6217 -0.0920178 2.31911)
(35.7715 -0.0994637 2.7021)
(34.8597 -0.107225 3.15645)
(33.875 -0.115501 3.69337)
(32.8126 -0.123705 4.32635)
(31.679 -0.131365 5.07301)
(30.4909 -0.137553 5.95784)
(29.2666 -0.143485 7.01703)
(27.9984 -0.153822 8.29969)
(26.6856 -0.16352 9.8723)
(25.2826 -0.197812 11.7928)
(23.8453 -0.215423 14.1075)
(22.4472 -0.280447 16.8444)
(21.3288 -0.3283 19.9466)
(20.4874 -0.439314 23.2379)
(19.5989 -0.518309 26.7468)
(19.7875 -0.671381 31.2693)
(21.9743 -0.767106 36.0281)
(25.059 -0.815714 39.5702)
(29.3497 -0.861028 42.1617)
(34.2436 -0.862017 44.3669)
(38.66 -0.774535 45.2713)
(40.319 -0.513628 46.1629)
(42.1533 -0.207911 44.087)
(43.4741 -0.106591 40.0987)
(44.3758 -0.173985 38.2472)
(45.0673 -0.200772 38.0178)
(45.8608 -0.032915 37.5919)
(44.7994 0.310489 37.4359)
(43.0897 0.631885 35.4071)
(41.5662 0.964 29.4889)
(38.2306 1.43464 23.359)
(33.3495 2.02068 21.5025)
(25.9889 2.77485 22.9474)
(7.92828 3.60084 24.7002)
(-32.4625 6.43928 22.464)
(-78.9367 11.5401 25.4899)
(-91.1836 21.5748 29.6753)
(-287.463 8.53462 52.3823)
(-162.797 -14.1969 51.0012)
(-112.012 -19.7855 17.135)
(-86.5827 -9.0725 7.03372)
(-74.3297 0.628801 4.26434)
(-49.1007 3.29266 -6.11855)
(-36.5476 8.72781 9.63831)
(-29.7893 10.3849 -17.1561)
(-117.881 9.08739 -52.1844)
(-145.41 5.6159 -92.5053)
(20.4298 1.01561 -28.9451)
(40.0318 -0.00297729 0.0328572)
(39.6109 -0.0459142 1.17922)
(38.9483 -0.0661974 1.50658)
(38.2074 -0.0762825 1.7401)
(37.4399 -0.0840688 2.00843)
(36.6391 -0.091267 2.33046)
(35.7895 -0.0984718 2.71471)
(34.8778 -0.105992 3.17054)
(33.8932 -0.113984 3.70928)
(32.8321 -0.121832 4.34473)
(31.7006 -0.129068 5.095)
(30.5142 -0.13477 5.98583)
(29.2851 -0.140149 7.05394)
(28.012 -0.149761 8.35104)
(26.6749 -0.158546 9.93866)
(25.2613 -0.191557 11.8804)
(23.7915 -0.207359 14.2282)
(22.3571 -0.2697 17.0023)
(21.1555 -0.312958 20.167)
(20.155 -0.417292 23.4793)
(18.7404 -0.481146 27.0552)
(18.7035 -0.587081 31.7529)
(20.155 -0.572817 36.6981)
(22.8886 -0.46504 40.4619)
(26.8909 -0.371467 43.4576)
(31.3798 -0.276709 45.8037)
(35.3036 -0.110725 46.6316)
(36.72 0.24589 47.1432)
(39.5004 0.634961 44.1477)
(41.7666 0.749161 39.6323)
(43.1614 0.645386 37.8641)
(43.7888 0.588979 37.8062)
(44.3737 0.749414 37.5211)
(43.6495 1.11476 37.5656)
(43.5164 1.5164 35.5899)
(44.4866 1.97595 29.1327)
(44.8898 2.65057 22.1801)
(45.9815 3.63989 19.4402)
(48.2902 5.20777 17.2502)
(37.268 8.35102 14.4337)
(6.34019 14.0759 7.45893)
(-9.70293 21.3733 0.865039)
(-10.2978 32.8831 -4.89347)
(-23.1585 22.1786 -21.8461)
(-3.44014 -19.6914 -63.8085)
(-65.1849 -20.5918 -36.9573)
(-112.645 -2.24704 -13.7494)
(-93.916 3.07543 -24.1921)
(-87.107 5.07486 -9.90582)
(-79.1977 8.1798 -4.35856)
(-69.662 9.60448 -18.6499)
(-124.201 8.17346 -40.9409)
(-131.001 4.93706 -78.8255)
(35.4588 0.809796 -26.0693)
(40.0307 -0.00296734 0.0359745)
(39.6455 -0.0460039 1.28611)
(39.0147 -0.0648272 1.64026)
(38.3234 -0.0743341 1.89114)
(37.6158 -0.0820475 2.17848)
(36.8827 -0.0893468 2.52216)
(36.1093 -0.0967397 2.93081)
(35.2843 -0.104516 3.41363)
(34.3984 -0.112751 3.98162)
(33.45 -0.120886 4.64824)
(32.4514 -0.128017 5.42921)
(31.4286 -0.133109 6.34699)
(30.4084 -0.137485 7.43137)
(29.403 -0.143047 8.72325)
(28.4005 -0.154742 10.282)
(27.3721 -0.175061 12.1332)
(26.346 -0.196839 14.3692)
(25.361 -0.245338 16.8957)
(24.6007 -0.277771 19.8165)
(24.1603 -0.364856 22.8398)
(23.9002 -0.425153 26.0772)
(24.2035 -0.555025 29.6318)
(25.8643 -0.623596 33.566)
(28.7423 -0.688084 36.8052)
(32.9188 -0.709353 39.2383)
(37.691 -0.710774 41.1596)
(42.1373 -0.668907 42.1397)
(45.0368 -0.535078 43.335)
(48.084 -0.297374 42.9215)
(50.1607 -0.121442 40.1649)
(51.7757 -0.100406 38.0015)
(53.4014 -0.149362 37.2303)
(55.7587 -0.114614 36.5971)
(57.2362 0.0821773 36.6446)
(58.164 0.347962 36.1874)
(58.095 0.61571 32.3858)
(55.1087 0.952126 26.7836)
(50.5036 1.36407 24.1314)
(46.3739 1.67193 26.7939)
(41.2565 1.81139 33.1898)
(29.8196 3.10967 38.7533)
(6.92647 6.8977 45.2589)
(15.1957 15.6028 58.0252)
(-105.265 12.0877 50.306)
(-92.0537 -3.95582 40.1864)
(-63.603 -10.5295 43.0327)
(-52.5604 -9.15508 34.7456)
(-59.2108 -6.244 23.0358)
(-51.0003 -6.28058 5.34073)
(-74.2931 3.91165 6.8515)
(-97.3274 9.38426 3.05008)
(-153.617 8.46686 -23.064)
(-287.279 6.89609 -68.8999)
(-154.236 3.71322 -2.36821)
(40.029 -0.002967 0.0358575)
(39.6357 -0.045997 1.29444)
(39.0232 -0.0646789 1.64999)
(38.3385 -0.0740095 1.90168)
(37.6324 -0.0815327 2.18996)
(36.9 -0.0886263 2.53481)
(36.1269 -0.0957894 2.94488)
(35.3018 -0.103337 3.42934)
(34.4162 -0.111303 3.99946)
(33.4694 -0.119091 4.66854)
(32.474 -0.125835 5.4535)
(31.4541 -0.13056 6.37661)
(30.4333 -0.134373 7.46977)
(29.4203 -0.139177 8.77538)
(28.4027 -0.1502 10.3438)
(27.3636 -0.169456 12.2281)
(26.3095 -0.189697 14.4606)
(25.3083 -0.236085 17.0575)
(24.4914 -0.265201 19.9791)
(23.9409 -0.347572 23.0962)
(23.3523 -0.399239 26.3051)
(23.3073 -0.503858 30.0153)
(24.354 -0.505254 34.0145)
(26.7489 -0.459004 37.4562)
(30.4965 -0.361647 40.1647)
(34.8982 -0.263591 42.2661)
(38.9526 -0.140646 43.3021)
(41.6766 0.0812893 44.4477)
(45.2032 0.411139 43.5202)
(47.9628 0.633948 40.1942)
(50.2202 0.647711 37.8584)
(52.1157 0.574918 37.1679)
(54.4658 0.594083 36.71)
(56.0477 0.791507 37.0385)
(57.8099 1.09217 36.5344)
(59.1748 1.4253 32.1154)
(58.2661 1.8633 25.673)
(56.928 2.47338 22.0551)
(58.1439 3.17843 22.7417)
(58.3495 4.22183 26.406)
(51.3238 6.74222 29.4141)
(44.1035 11.4172 30.8964)
(49.8949 21.1216 30.6141)
(42.422 19.9555 11.8586)
(31.8226 3.8847 -10.3484)
(-3.676 -9.21226 -9.85338)
(-50.5877 -11.0595 -2.90388)
(-75.2684 -10.2924 -10.7653)
(-99.8361 -1.92888 7.49796)
(-110.545 5.89109 18.8845)
(-118.083 8.97546 15.0484)
(-155.024 7.80058 -11.1988)
(-230.024 5.73097 -61.3072)
(-96.9653 2.29243 -3.44118)
(40.0277 -0.00286166 0.0388105)
(39.6822 -0.0402965 1.38694)
(39.0987 -0.0593864 1.76455)
(38.4642 -0.0689997 2.02985)
(37.8206 -0.0763257 2.33263)
(37.1584 -0.083062 2.69358)
(36.4642 -0.0898016 3.12115)
(35.7279 -0.0969218 3.62421)
(34.9422 -0.104365 4.21357)
(34.1082 -0.111751 4.90174)
(33.2425 -0.117515 5.70346)
(32.378 -0.121185 6.63711)
(31.5504 -0.12267 7.72781)
(30.783 -0.124869 9.00942)
(30.0598 -0.133719 10.5218)
(29.3761 -0.142727 12.3124)
(28.6896 -0.17671 14.4019)
(28.0879 -0.19084 16.7928)
(27.6509 -0.243949 19.4491)
(27.5757 -0.279511 22.274)
(27.7924 -0.362895 25.1643)
(28.5818 -0.427637 28.1651)
(30.1871 -0.512252 31.279)
(32.9989 -0.555298 34.0505)
(36.785 -0.588188 36.341)
(41.0607 -0.610007 38.2253)
(45.0088 -0.606312 39.256)
(48.1859 -0.553838 40.2291)
(51.7057 -0.400751 40.5632)
(54.5959 -0.214556 39.0534)
(56.898 -0.108886 37.1634)
(59.1 -0.102353 35.9803)
(61.9426 -0.10991 35.049)
(64.5796 -0.024603 34.9033)
(67.1468 0.159128 35.368)
(69.2798 0.368619 33.9382)
(68.7455 0.606374 30.2641)
(65.8795 0.891634 27.6449)
(63.2859 1.1445 29.1859)
(61.9656 1.30153 34.8305)
(59.4746 1.88878 41.473)
(51.1344 3.86435 48.1132)
(54.7007 8.98367 59.469)
(9.61294 9.61027 54.7911)
(-12.9601 2.0341 40.5573)
(-8.87747 -4.08518 41.7535)
(-2.47226 -6.12636 44.801)
(8.06302 -6.91316 44.9143)
(8.13062 -9.27511 34.7884)
(-17.2351 -6.78747 21.0593)
(-57.942 4.85037 19.2641)
(-149.936 8.09059 17.324)
(-374.923 1.49192 -11.4886)
(-230.411 2.51521 71.8483)
(40.0262 -0.00286221 0.0386896)
(39.6716 -0.0402835 1.39484)
(39.1046 -0.0592535 1.77418)
(38.4783 -0.0687067 2.0403)
(37.837 -0.075858 2.34392)
(37.1759 -0.0824052 2.70588)
(36.4822 -0.0889374 3.13468)
(35.746 -0.0958275 3.63919)
(34.9609 -0.103012 4.23031)
(34.1291 -0.110109 4.92065)
(33.2678 -0.115519 5.72539)
(32.408 -0.118822 6.6634)
(31.5824 -0.119834 7.76108)
(30.8079 -0.121376 9.05221)
(30.078 -0.129642 10.5787)
(29.3691 -0.137932 12.3809)
(28.6781 -0.170664 14.4872)
(28.0477 -0.183178 16.8998)
(27.5855 -0.233916 19.5839)
(27.4066 -0.266295 22.4537)
(27.4571 -0.344635 25.3746)
(27.8914 -0.396409 28.4324)
(29.0745 -0.443974 31.6071)