/*--------------------------------*- C++ -*----------------------------------*\
| =========                 |                                                 |
| \\      /  F ield         | OpenFOAM: The Open Source CFD Toolbox           |
|  \\    /   O peration     | Version:  4.1                                   |
|   \\  /    A nd           | Web:      www.OpenFOAM.org                      |
|    \\/     M anipulation  |                                                 |
\*---------------------------------------------------------------------------*/
FoamFile
{
    version     2.0;
    format      ascii;
    class       volScalarField;
    location    "34";
    object      p;
}
// * * * * * * * * * * * * * * * * * * * * * * * * * * * * * * * * * * * * * //

dimensions      [0 2 -2 0 0 0 0];

internalField   nonuniform List<scalar> 
4432
(
100328
100328
100325
100323
100324
100329
100335
100343
100351
100357
100363
100368
100373
100379
100387
100399
100412
100426
100444
100459
100478
100493
100516
100567
100622
100663
100694
100724
100751
100771
100778
100770
100773
100760
100731
100649
100522
100586
100680
100749
100797
100802
100843
100873
100875
100993
100745
100455
100559
100957
101168
100831
98308.9
96776.1
100328
100328
100325
100323
100324
100329
100336
100343
100351
100357
100363
100368
100373
100379
100388
100399
100411
100426
100442
100456
100474
100500
100525
100563
100614
100666
100701
100720
100747
100776
100788
100771
100765
100722
100670
100641
100641
100639
100649
100701
100766
100827
100879
100860
100760
100923
100845
100553
100639
100921
101156
100929
98013.8
96296.3
100327
100326
100323
100320
100321
100326
100332
100341
100349
100356
100363
100369
100375
100382
100390
100403
100421
100444
100474
100490
100499
100521
100556
100594
100630
100662
100693
100722
100747
100763
100764
100745
100715
100669
100609
100555
100568
100600
100639
100699
100732
100746
100781
100825
100834
100827
100736
100522
100562
100793
101400
101267
96518.2
99070.9
100327
100325
100322
100320
100322
100326
100333
100341
100349
100356
100363
100369
100375
100382
100390
100403
100420
100443
100474
100490
100500
100520
100553
100591
100629
100663
100694
100724
100751
100770
100765
100738
100709
100678
100640
100598
100589
100592
100619
100657
100713
100753
100796
100862
100868
100876
100819
100639
100713
100932
101247
101363
96513.7
99043.5
100325
100325
100322
100320
100321
100325
100332
100340
100348
100356
100363
100369
100375
100381
100389
100397
100408
100417
100454
100474
100491
100518
100551
100583
100618
100655
100694
100729
100759
100783
100786
100759
100725
100672
100605
100554
100570
100611
100643
100655
100669
100706
100762
100798
100805
100738
100699
100595
100604
100502
100228
99214.7
98136.3
100431
100325
100324
100321
100320
100321
100326
100332
100340
100349
100356
100363
100369
100374
100381
100389
100398
100409
100417
100452
100474
100490
100518
100550
100582
100617
100656
100696
100733
100765
100785
100778
100749
100705
100652
100612
100591
100607
100631
100635
100626
100650
100699
100750
100818
100836
100802
100735
100664
100643
100517
100151
99569.6
98236.9
100461
100323
100322
100319
100317
100318
100322
100329
100337
100345
100353
100360
100366
100372
100378
100384
100389
100396
100404
100439
100461
100477
100501
100532
100564
100602
100647
100694
100742
100784
100811
100808
100788
100768
100701
100584
100499
100494
100547
100564
100565
100620
100669
100709
100752
100771
100756
100799
100727
100730
100770
100554
99875.3
98875.3
99056.7
100322
100322
100319
100317
100319
100323
100330
100338
100346
100353
100360
100366
100371
100377
100383
100390
100395
100404
100438
100460
100476
100500
100530
100563
100603
100649
100697
100745
100789
100812
100802
100780
100749
100676
100583
100553
100576
100599
100595
100542
100535
100674
100724
100751
100784
100780
100756
100744
100708
100798
100585
100279
98737.9
98943.6
100320
100319
100316
100314
100315
100320
100326
100334
100342
100350
100356
100362
100368
100373
100378
100383
100391
100401
100421
100445
100457
100475
100503
100539
100580
100628
100679
100736
100793
100818
100805
100792
100781
100751
100748
100546
100509
100526
100523
100534
100638
100652
100653
100703
100805
100904
100859
100743
100703
100770
100904
100232
98919.2
100472
100319
100319
100316
100314
100316
100320
100327
100335
100343
100350
100356
100362
100367
100372
100377
100383
100390
100399
100422
100445
100458
100475
100501
100537
100581
100628
100679
100737
100795
100821
100805
100787
100774
100730
100648
100590
100560
100564
100550
100501
100545
100682
100698
100718
100768
100801
100794
100774
100763
100855
100918
100757
98904.1
100043
100316
100316
100313
100311
100312
100316
100322
100330
100338
100345
100351
100356
100361
100366
100372
100378
100386
100396
100410
100431
100445
100454
100467
100503
100549
100596
100641
100689
100744
100779
100788
100801
100837
101067
101367
100609
100506
100520
100527
100498
100519
100549
100628
100677
100762
100922
100890
100798
100717
100720
100761
100067
98979.2
100257
100316
100315
100313
100311
100312
100316
100323
100331
100338
100345
100351
100356
100361
100366
100371
100377
100386
100396
100409
100429
100447
100454
100465
100501
100550
100596
100637
100683
100736
100774
100785
100781
100779
100825
100811
100628
100536
100537
100530
100491
100512
100609
100645
100704
100794
100854
100844
100805
100771
100782
100779
100111
99058.4
100640
100312
100311
100309
100307
100308
100312
100318
100325
100332
100339
100345
100350
100355
100360
100365
100372
100380
100390
100403
100417
100433
100444
100440
100455
100504
100557
100597
100624
100657
100703
100751
100802
100928
101429
100992
101068
100515
100498
100532
100521
100497
100578
100652
100685
100738
100857
100902
100875
100798
100721
100703
100253
99254.2
100155
100312
100311
100308
100307
100308
100312
100318
100325
100333
100339
100345
100350
100354
100359
100365
100372
100380
100390
100401
100416
100434
100447
100441
100452
100507
100557
100591
100616
100653
100697
100736
100761
100787
100880
100835
100591
100457
100489
100520
100506
100514
100584
100641
100692
100791
100894
100895
100852
100796
100712
100581
100012
99290.9
100045
100307
100307
100304
100302
100303
100306
100312
100319
100326
100332
100337
100342
100347
100352
100358
100364
100372
100381
100390
100401
100414
100429
100430
100418
100443
100505
100547
100565
100582
100602
100636
100674
100719
100825
100694
100481
100465
100515
100565
100581
100566
100593
100642
100660
100688
100802
100912
100947
100858
100691
100639
100300
99397.6
100354
100307
100306
100304
100302
100303
100307
100313
100320
100326
100332
100337
100342
100346
100351
100357
100364
100371
100380
100389
100400
100414
100428
100428
100423
100452
100505
100542
100552
100568
100601
100631
100654
100691
100691
100650
100516
100472
100522
100568
100566
100555
100573
100593
100624
100744
100885
100934
100897
100791
100683
100622
100189
99315
100314
100301
100301
100298
100296
100297
100301
100306
100313
100319
100324
100329
100333
100338
100343
100348
100355
100361
100368
100376
100384
100394
100403
100409
100400
100395
100446
100494
100510
100518
100529
100544
100559
100599
100617
100574
100506
100502
100566
100631
100652
100633
100594
100573
100585
100627
100741
100877
100949
100868
100665
100489
100122
99472.9
100576
100301
100301
100298
100296
100297
100301
100306
100313
100319
100324
100329
100333
100338
100342
100348
100354
100361
100368
100375
100383
100392
100401
100409
100409
100408
100443
100483
100492
100506
100532
100555
100574
100597
100598
100579
100538
100547
100591
100636
100647
100625
100588
100549
100564
100684
100830
100926
100915
100820
100686
100513
100003
99246.2
100372
100295
100295
100292
100290
100291
100294
100299
100305
100311
100316
100320
100324
100328
100332
100337
100343
100349
100354
100360
100365
100370
100374
100376
100376
100366
100387
100423
100448
100468
100484
100499
100523
100558
100582
100595
100584
100602
100645
100683
100698
100681
100608
100511
100479
100534
100664
100815
100925
100882
100680
100477
100236
100084
100742
100295
100295
100292
100290
100291
100294
100299
100305
100311
100316
100320
100323
100327
100332
100337
100342
100348
100353
100358
100364
100370
100374
100377
100377
100372
100384
100418
100445
100464
100481
100502
100526
100556
100585
100609
100608
100626
100655
100682
100687
100661
100602
100523
100499
100600
100763
100889
100958
100918
100721
100432
100020
99582.3
100296
100289
100289
100286
100284
100284
100287
100291
100296
100301
100306
100309
100313
100316
100320
100324
100329
100334
100338
100342
100346
100348
100347
100347
100345
100326
100325
100359
100410
100445
100464
100483
100515
100550
100590
100628
100642
100660
100694
100717
100713
100682
100626
100535
100462
100442
100551
100734
100879
100853
100677
100545
100425
100279
99603
100289
100288
100286
100284
100284
100287
100292
100297
100302
100306
100309
100312
100316
100319
100324
100328
100333
100337
100341
100345
100348
100349
100348
100340
100325
100325
100363
100414
100444
100462
100485
100517
100556
100598
100636
100652
100672
100696
100709
100698
100663
100610
100543
100478
100508
100656
100832
100949
100940
100787
100571
100339
99804.5
99237.3
100282
100282
100279
100277
100277
100279
100283
100287
100291
100295
100298
100300
100303
100306
100310
100314
100317
100321
100325
100328
100331
100332
100327
100307
100263
100251
100311
100388
100432
100451
100471
100507
100552
100601
100644
100672
100695
100721
100738
100732
100701
100656
100614
100566
100490
100504
100635
100785
100799
100664
100535
100477
100344
99759.2
100282
100281
100279
100277
100277
100279
100283
100287
100291
100295
100298
100300
100303
100306
100309
100313
100316
100320
100324
100327
100330
100331
100325
100303
100259
100253
100317
100392
100432
100452
100474
100511
100559
100607
100650
100678
100701
100725
100738
100726
100689
100640
100592
100540
100520
100590
100729
100849
100873
100783
100669
100596
100200
100183
100275
100274
100271
100269
100269
100270
100274
100277
100281
100283
100285
100287
100288
100291
100293
100296
100299
100303
100308
100314
100321
100325
100316
100279
100178
100169
100277
100381
100424
100438
100460
100499
100553
100610
100665
100709
100742
100765
100778
100773
100748
100716
100680
100645
100587
100552
100596
100690
100736
100665
100525
100343
100178
99508.7
100274
100274
100271
100269
100269
100271
100274
100277
100281
100283
100285
100287
100288
100290
100293
100295
100299
100302
100307
100313
100320
100323
100313
100265
100162
100171
100293
100392
100428
100441
100464
100503
100557
100615
100669
100712
100747
100771
100785
100777
100746
100706
100662
100618
100584
100594
100659
100738
100769
100709
100574
100375
100137
99374.1
100267
100266
100264
100261
100260
100261
100264
100267
100269
100271
100271
100272
100273
100274
100275
100277
100280
100283
100290
100301
100319
100341
100350
100287
100081
100041
100251
100373
100401
100408
100431
100476
100538
100610
100683
100750
100802
100835
100854
100845
100819
100787
100754
100716
100668
100624
100610
100623
100626
100564
100432
100218
100005
99403.7
100267
100266
100263
100261
100260
100262
100264
100267
100269
100270
100271
100272
100272
100273
100275
100276
100279
100283
100289
100300
100317
100339
100343
100274
100023
100090
100293
100388
100405
100407
100431
100477
100540
100612
100686
100754
100809
100839
100871
100861
100826
100786
100745
100702
100659
100632
100635
100653
100649
100583
100447
100221
99984.7
99367.4
100259
100258
100255
100253
100251
100252
100253
100255
100257
100257
100257
100256
100256
100255
100255
100256
100257
100260
100267
100280
100309
100375
100457
100466
100094
99635.1
100161
100353
100371
100359
100376
100427
100499
100587
100685
100789
100878
100920
100952
100937
100889
100844
100811
100777
100732
100682
100637
100600
100559
100483
100358
100167
99941.5
99447.4
100259
100258
100255
100253
100251
100252
100254
100255
100257
100257
100257
100256
100255
100255
100255
100255
100256
100259
100266
100279
100307
100368
100447
100405
99331.1
99893.5
100290
100397
100382
100362
100377
100427
100499
100587
100691
100811
100900
100907
100950
100937
100881
100835
100805
100773
100732
100687
100650
100618
100574
100495
100367
100175
99948.4
99445.5
100251
100250
100247
100244
100242
100242
100243
100244
100244
100243
100242
100240
100238
100236
100234
100232
100231
100232
100235
100243
100260
100292
100410
100671
99710.2
100166
100350
100345
100296
100297
100348
100429
100532
100656
100804
100957
101008
101029
101018
100945
100888
100867
100851
100820
100771
100711
100646
100573
100482
100366
100199
100003
99497.3
100251
100250
100247
100244
100242
100242
100243
100244
100244
100243
100242
100240
100237
100235
100234
100232
100231
100231
100234
100242
100258
100288
100407
100371
99658.3
100230
100357
100333
100286
100289
100343
100425
100527
100640
100822
100990
100952
100875
100980
100917
100865
100854
100847
100822
100777
100720
100654
100580
100484
100363
100194
99986.6
99499.6
100243
100242
100239
100235
100233
100232
100232
100232
100231
100229
100226
100223
100219
100215
100212
100208
100204
100200
100197
100194
100189
100172
100123
100064
99833.3
99981.8
100362
100438
100337
100243
100224
100265
100341
100444
100572
100733
100921
100960
100974
101060
100976
100920
100916
100926
100919
100881
100816
100729
100627
100512
100400
100252
100142
99564.3
100242
100241
100238
100235
100233
100232
100232
100232
100231
100229
100226
100223
100219
100215
100211
100207
100203
100200
100197
100194
100189
100171
100119
100025
99827
100041
100391
100440
100324
100227
100211
100256
100333
100428
100517
100737
100821
100971
100861
100898
100877
100868
100883
100903
100908
100879
100817
100731
100629
100514
100400
100248
100098
99562.9
100234
100234
100230
100226
100224
100222
100221
100220
100218
100214
100210
100206
100200
100195
100189
100183
100176
100168
100160
100151
100140
100127
100116
100085
100057
100110
100273
100302
100230
100174
100169
100205
100265
100353
100514
100698
100755
100948
101116
100922
100882
100905
100928
100959
100982
100969
100914
100817
100686
100540
100418
100277
100281
99647.3
100234
100233
100230
100226
100224
100222
100221
100220
100218
100214
100210
100206
100200
100195
100189
100183
100176
100168
100160
100152
100141
100129
100116
100084
100043
100103
100254
100275
100201
100148
100152
100196
100258
100328
100407
100638
100556
100652
100836
100236
100678
100872
100913
100935
100960
100960
100914
100822
100697
100559
100440
100297
100238
99605.3
100226
100225
100222
100218
100214
100212
100210
100208
100204
100200
100195
100189
100182
100175
100167
100158
100149
100139
100129
100118
100110
100103
100096
100078
100046
100045
100086
100104
100091
100087
100112
100154
100196
100248
100334
100508
101467
100217
99206.4
100019
100652
100960
100995
101021
101045
101052
101020
100928
100774
100592
100436
100276
100298
99529.8
100226
100225
100222
100218
100214
100212
100210
100208
100204
100200
100195
100189
100182
100175
100167
100158
100149
100139
100129
100119
100111
100104
100096
100075
100041
100044
100083
100097
100077
100070
100097
100148
100208
100196
100318
100578
101024
97850.3
98155.9
98495.1
99664.1
100770
100986
101003
101017
101030
101009
100927
100790
100626
100479
100306
100295
99586.3
100218
100217
100214
100209
100205
100202
100199
100196
100192
100186
100180
100172
100164
100155
100146
100135
100124
100112
100100
100088
100077
100066
100051
100025
99993
99975.1
99979
99988
99990.5
100005
100039
100089
100061
100207
100214
98831.4
96858.1
95307
96368.4
98258.9
99684.3
100871
101134
101159
101148
101154
101146
101067
100901
100706
100536
100385
100318
99367
100218
100217
100213
100209
100205
100202
100199
100196
100192
100186
100180
100172
100164
100155
100146
100135
100124
100112
100100
100089
100078
100067
100050
100023
99992.1
99976.2
99982.3
99991.1
99990.9
100001
100039
100102
100188
100295
100190
99478.7
98362.6
95310
96232.9
97692
99043.6
100461
101086
101159
101157
101137
101118
101048
100909
100738
100563
100363
100308
99472.7
100211
100210
100206
100201
100196
100193
100189
100185
100179
100173
100165
100156
100147
100137
100125
100113
100100
100086
100072
100057
100042
100024
100002
99972.8
99940.9
99915
99902.5
99899
99898.2
99913.3
99944.6
100018
99864.4
100130
99957.4
97459.7
93528.2
93896.5
96457.9
98592.5
100179
101459
101475
101388
101316
101303
101294
101204
101014
100814
100676
100601
100600
100592
100210
100209
100205
100201
100197
100193
100189
100185
100179
100173
100165
100156
100147
100137
100125
100113
100100
100087
100072
100058
100043
100024
100001
99972
99939.7
99915.5
99904.6
99901.8
99900
99910.7
99944.3
100054
100154
100260
100003
94215.2
93601.6
94041.9
96556.4
98554.2
100068
101317
101544
101438
101349
101302
101258
101165
101008
100837
100678
100628
100489
99576.8
100203
100202
100198
100193
100188
100184
100179
100174
100168
100160
100152
100142
100131
100119
100107
100093
100078
100062
100045
100027
100006
99983.2
99955.6
99922.3
99885.3
99849.8
99820.6
99798.9
99784.5
99789.9
99825.3
100022
99898.3
98959.3
97148
92413
92107.8
94694.5
97877.6
100245
101555
102093
101810
101606
101495
101477
101449
101320
101071
100780
100530
100356
100614
101133
100203
100202
100198
100193
100188
100184
100179
100174
100168
100160
100152
100142
100131
100119
100107
100093
100078
100062
100045
100027
100007
99983.5
99955.3
99921.6
99885.1
99850
99821.9
99800.6
99782.9
99772.6
99760.8
99833.9
100193
99288.2
91448.2
89132.8
91832.4
94632.7
97939.8
100344
101604
102007
101808
101625
101526
101486
101420
101284
101060
100806
100601
100591
100658
100883
100197
100195
100191
100186
100180
100175
100170
100164
100157
100149
100139
100128
100116
100103
100089
100074
100057
100039
100019
99996.8
99972.1
99943.6
99909.8
99870.2
99825
99776.9
99729.2
99683.7
99640.1
99615.5
99661.8
99829.4
99970.9
98416.4
90770.4
89900.7
92932.6
96458.6
99740.3
101732
102321
102252
102041
101802
101719
101703
101659
101519
101233
100770
100223
99677.8
99643.2
99929.6
100196
100195
100191
100186
100180
100175
100170
100164
100157
100149
100139
100128
100116
100103
100089
100074
100057
100039
100019
99997.2
99972.5
99943.7
99909.8
99870.1
99824.7
99777.4
99730.3
99684.9
99636.4
99592.9
99522.5
99618.2
99672.2
96903.9
90431.9
90572.1
93272
96674.5
99924.2
101882
102361
102214
102018
101807
101731
101709
101648
101498
101205
100735
100233
99961.3
100223
100915
100190
100189
100185
100179
100173
100168
100162
100155
100148
100138
100128
100116
100103
100089
100074
100057
100038
100017
99994.6
99968.9
99939.6
99905.5
99865.5
99817.9
99762.9
99700.8
99631.9
99551.4
99462.9
99316.8
99413.7
100296
99632.6
82149.3
84618.9
90578.4
94908.8
98562.2
101167
102280
102382
102257
102122
102028
102018
102012
101979
101866
101611
101139
100452
99559.1
98962.1
100157
100190
100189
100185
100179
100173
100168
100162
100155
100148
100138
100128
100116
100103
100089
100074
100057
100038
100018
99994.9
99969.3
99939.9
99905.9
99865.5
99817.8
99763
99701
99632.4
99554.5
99462.2
99340.9
99254.6
99164.4
95500.8
89938.7
89945.4
92242.2
95537.4
98906.6
101356
102365
102388
102254
102126
102031
102018
102007
101969
101846
101554
100973
100204
99565.6
99279.1
99449.3
100185
100184
100179
100173
100167
100161
100155
100148
100139
100129
100118
100105
100091
100076
100060
100041
100021
99998.3
99972.6
99943.5
99909.9
99870.4
99823.6
99768.1
99702.3
99624.7
99533
99418.6
99268.8
99026.9
98689
99758.1
98459.9
87796.7
91435.7
95547.5
99051.8
101422
102368
102360
102190
102162
102190
102296
102358
102352
102337
102228
102057
101737
100769
99325.1
98081.7
99558.1
100185
100183
100179
100173
100167
100161
100155
100148
100139
100129
100118
100105
100091
100076
100060
100042
100021
99998.5
99973
99943.8
99910.2
99870.6
99823.8
99768.3
99702.1
99624.8
99532.9
99425.7
99276.7
99075.5
98846.5
98595.9
93997.4
89197.9
92733.6
96234.9
99465.3
101698
102489
102353
102154
102166
102208
102270
102356
102346
102323
102210
101958
101498
100543
99392.8
98394.5
99896.1
100180
100179
100174
100168
100162
100155
100149
100141
100132
100121
100109
100096
100081
100065
100048
100028
100006
99981.5
99953.4
99921
99883.4
99839
99786.3
99722.8
99646.4
99554.1
99440.8
99298.2
99106.6
98835.8
98429.4
98315.9
101306
103393
100865
101840
103561
103995
103192
102170
101872
102058
102345
102587
102678
102697
102707
102552
102524
102126
100193
97861
96720.7
99171.2
100180
100179
100174
100168
100162
100156
100149
100141
100132
100121
100109
100096
100082
100066
100048
100028
100006
99981.8
99953.7
99921.3
99883.6
99839.4
99786.4
99722.7
99646
99552.9
99435.8
99300
99121.5
98893.3
98605.2
98108.8
98050
97659.3
99381.4
101842
103854
104196
103235
102118
101826
102066
102356
102558
102670
102683
102665
102500
102359
101869
100045
97865.7
96842.9
99078.6
100176
100175
100170
100164
100158
100151
100144
100136
100126
100115
100103
100089
100073
100057
100038
100017
99994.2
99967.8
99937.5
99902.5
99861.5
99812.9
99754.6
99684.2
99598.6
99493
99363.1
99198.2
98979.2
98689.2
98280.4
97741.6
98100.4
100582
101215
102820
104486
104562
103267
101796
101560
102045
102612
102915
102998
103087
103198
103098
103130
102294
100052
97923.3
95622.3
98378.6
100176
100175
100170
100164
100158
100151
100144
100136
100126
100115
100103
100089
100074
100057
100038
100018
99994.5
99968.1
99937.8
99902.8
99861.8
99813.1
99754.8
99684.1
99597.9
99488.3
99361.1
99196.1
98972.8
98696.4
98414.7
97460.9
97228
98887.8
100856
103151
104724
104598
103286
101829
101521
102032
102607
102923
103002
103023
103080
102949
102988
102258
100239
97974.3
95385.1
97705.6
100173
100172
100167
100161
100154
100147
100139
100131
100122
100110
100097
100083
100067
100050
100031
100009
99984.9
99957.1
99925.2
99888
99844.2
99792.3
99730
99654.2
99561.8
99448.1
99307.5
99126.8
98893.4
98587.6
98211.2
97667.7
97169.2
97954.5
98755.1
100985
102833
103576
103069
102027
101787
102352
102955
103308
103393
103523
103552
103397
103286
102376
101491
99864.8
94884.6
98239.4
100173
100172
100167
100161
100154
100147
100140
100131
100122
100110
100097
100083
100067
100050
100031
100009
99985.1
99957.4
99925.5
99888.3
99844.5
99792.6
99730.1
99654.1
99561.7
99447
99310.6
99127.2
98885
98581.2
98187.7
97598.8
97244.6
98151.9
99774.6
101456
102272
102956
102814
102138
101850
102308
102919
103311
103396
103397
103418
103284
103274
102494
101898
100459
95180.9
97870.8
100171
100170
100166
100159
100152
100145
100138
100129
100119
100107
100094
100080
100063
100046
100026
100004
99978.8
99950.2
99917
99878.3
99832.7
99778.4
99713.1
99633.6
99536.5
99416.8
99268.2
99080.3
98840.4
98535
98166.1
97698.5
97199.4
96696.8
96120.4
96785.8
96705.3
97348.2
98355
100311
101683
102749
103292
103634
103833
103967
103852
103488
103344
103201
104483
103954
95725.3
98031.6
100171
100170
100165
100159
100152
100145
100138
100129
100119
100107
100094
100080
100064
100046
100026
100004
99979.1
99950.5
99917.3
99878.6
99833
99778.6
99713.2
99633.6
99536.3
99416.7
99268.9
99083.4
98840
98522.9
98174.4
97703.2
97142.2
96965.9
96943.2
96638.6
96140.1
96796.4
98019.2
100096
101758
102747
103275
103598
103749
103797
103667
103456
103320
103193
104811
104360
96098
98021.9
100169
100168
100164
100158
100151
100144
100136
100127
100117
100105
100092
100078
100061
100043
100024
100001
99975.8
99946.7
99913
99873.5
99826.9
99771.3
99704.3
99622.8
99523
99400
99247.1
99055.3
98813.4
98511.5
98144.2
97691.9
97128.9
96522.8
95939.2
94977.6
93553.5
93297
94667.5
97484.1
100202
102023
102971
103418
103741
103906
103838
103495
103100
103359
104448
103155
96759.2
94327.5
100169
100168
100163
100157
100151
100144
100136
100127
100117
100106
100092
100078
100062
100044
100024
100001
99976.1
99947
99913.2
99873.8
99827.1
99771.5
99704.3
99622.7
99522.7
99399.5
99246.7
99055.3
98812.4
98510.3
98154.6
97734.3
97237.4
96584
95610.7
94393.2
93515.4
93396.2
94670.5
97284.2
100087
102073
102954
103376
103648
103777
103672
103430
103246
103442
104542
103314
96903.7
94253.5
100097
100415
99553.3
100912
100719
99692.6
99458.2
99844
99720.9
99542.1
99571.2
100367
99850.6
100714
100727
99884
99702
99813.6
99549.6
99536.4
100535
100033
100056
100013
99826.2
99899.1
99664.9
100049
99639.4
99851.2
99535.2
100657
99999.1
99736
99985.3
99610.3
99616.6
99582.3
99783.3
99565.7
99666.2
99805.9
100185
100280
100164
100336
100192
100310
100139
100011
100045
99981.1
99966.8
99864.7
99924.3
99878.2
100148
100250
100123
100297
100131
100271
100096
99971.5
100007
99985.2
99837.4
99825.8
99771.5
99796.9
100536
100453
100521
100502
100682
100502
100683
99771.6
100038
100015
100009
99680.8
99865.6
99711.2
99959.6
99589.8
99758.8
99562.8
99788.1
100502
100421
100471
100496
100666
100467
100626
99398.1
99565.9
99660.9
99667.1
99502.1
100091
99901.6
100109
99611.6
99892.3
99639.8
99932.9
100463
100407
100506
100231
100141
100229
100147
99442.5
100672
100197
100194
99506.9
99930.3
100119
99855.3
99647.6
99866.3
99726.4
99915.4
99690
99930.9
100500
100392
100485
100224
100136
100227
100156
99746.2
100512
100262
99660
100280
99640.4
99681.7
99929.2
99694.7
99969.6
99740.4
99995.9
99816.5
100057
100002
100055
99961.8
100063
99997.7
100065
99997.3
99609.8
99810.1
99653.3
99937.5
99942.5
99940.1
99970.5
99930.4
100021
99936.2
100064
100000
100069
100012
99778.9
99872.1
99893
99955.3
99990.2
99969.9
99997.7
100286
100232
100045
100203
100363
100331
99888.9
100095
100135
100208
100774
100858
100908
100854
100791
100506
100554
100818
100702
100876
100824
100652
100612
100423
99794.6
99889.9
99778.6
99963.3
99759.3
99598.2
99554.1
99580.5
99610.6
99688.5
99584.6
99574.3
99643
99639.8
99597.2
99518.8
99585.4
99527.1
99597.6
99955.6
100138
99839.4
100174
100329
100042
99865.9
100148
100134
99948.2
100749
100550
100767
100266
100847
101269
99613.4
100535
100950
100799
100709
100886
100224
100814
99576.1
99698.7
99739.8
99716
99892.5
99448.1
99451.9
99512.8
99578.9
99571.8
99666.9
99611.5
99620.7
99889.1
99664.3
99529.2
99574.6
99587.5
99742.7
99076.7
99145.2
99481.8
100666
100242
100221
99570.6
99197.8
99378.3
99355.2
100024
100031
100026
99424.5
99359.4
99949.2
99879.4
99440.9
99969.9
99970.1
99857.4
99867.9
99802.9
100111
99840.2
99640.2
99876.3
99737.4
99623.8
99687.9
99697.4
99833.1
99908.4
100029
99887.9
99948.1
99753.1
99963.1
99812.3
99654
99853.6
99440
99466.8
99535.2
100634
100292
100259
99405.4
99265.3
99012
99433.4
99801
99614
99476.2
99732.5
99252.2
99684.9
99725.1
99741.8
99163.1
99552.9
99596.6
99564.6
99674.3
99531.1
99177.7
100561
99495.5
99598.2
99505
99549.6
99487.5
99671.9
99787.9
99625.5
99640.8
99762.7
99412.5
99748
99847.1
99707.2
99486.1
100530
100363
100451
100638
100340
100626
100543
100595
100347
100365
100489
100284
100520
100494
100528
100428
100296
100549
100310
100602
100495
99735
99843.4
99716.5
99579.2
99859
99583
99715.4
99761.8
99777.8
99883.7
99601.9
99894.8
99564.5
99782.4
100398
100379
100231
100620
100261
100550
100325
99629.2
99812.8
99813.4
99781.2
99742.2
99786.9
99725.8
99817.4
99765.3
99810.2
99668.3
99743.6
99713.6
99874.1
99856.9
100034
100019
100022
100020
100021
99874.8
99821.9
100063
100023
99960.9
100035
99845.9
99997.9
99717.7
99688.9
99700.4
99584.6
99620.2
99654.2
99786.1
99597.4
99496.6
99537.3
99591
99523.5
99548.5
99603.8
100018
100081
99947.2
99973.7
99958.4
100040
99931
99825.5
100035
99976.5
99894.7
100014
99890.1
99826.9
99512.2
99478.9
99606.9
99682
99526
99500.9
99677
99432.7
99567.1
99742.6
99935
99542.9
99699.9
99426.8
99993.5
99968.8
99786.4
99698.3
99931.7
100008
99737
99954.9
100085
100074
100008
99955.3
99665.8
99953.8
99852.5
99946.4
99675.7
99894.8
99690.1
99930.7
99681.5
99932.7
99436.9
99572.6
99418.5
99314.1
99613.4
99485.2
99204.1
98718.4
98780.5
98419.6
98798.7
99210.5
99430.1
99634.4
98865.2
99102.5
99609.7
98891.7
99233.8
99336.5
99269.6
99373.7
100025
99637.4
99843.4
99477.5
99644.2
100014
99862.1
100292
100790
100773
100326
100306
100772
100770
100284
100013
99468.3
99636.1
99852.5
99614.5
99869
100017
99994.2
100107
100211
99365.6
99895.7
100252
99625.1
99961.3
100326
99643.2
100274
99322.6
99994.5
99823.9
100856
99777.7
99596.3
100174
99825.7
99849.1
99990.7
100109
99795.4
100189
99525.3
99615.6
99797.9
100190
99733
100302
100224
99690.5
99788.1
99843.4
99967.1
100014
99819.5
99786.5
99560.8
99873.3
99596.3
99811.5
100303
100239
99834.5
100231
99794.2
99842.7
99570.8
100172
99751.8
100356
99610.5
100168
99762.1
99592.1
100087
99197
100808
99318.2
99396.9
99457.1
99225.3
99847.9
100366
100257
97290.2
100228
99931.4
100608
101035
100825
101023
100766
100822
101026
101017
101081
100988
100990
101055
101072
100980
100981
101050
101035
100771
100831
101021
100825
101025
101006
100509
100512
100955
100828
100873
101029
100809
101013
100941
100797
100684
100638
100673
100890
100899
100735
101038
100773
100922
100733
100945
101011
101057
100880
100730
100769
99931.7
99984.9
99808.7
99813.1
100023
99970.5
99772
99381.7
99175.3
98885.8
99096
99654.3
99536.9
99814.3
99371.8
99818.9
99746.8
99842.8
99485.9
99567.3
99870.4
99658.6
99531.2
99503.2
99638.3
99635.7
99575.7
99564.9
99651.3
99571.2
99623.2
99812.4
100018
100025
99833.4
99753.1
99897.1
99727.6
99945
99678.3
99564.7
99645.8
99646.8
99657.3
99614.5
99687.3
99681.3
99664
99556.4
99613.3
99615.1
99550.9
99615.5
99566.9
99560.3
99592.9
99689.6
99590.7
99718.9
99540.2
99631.4
99619.3
99551.8
99611.3
99563.8
99559
99630
99813.7
99657
99767.6
99391.2
99817.2
99794.8
98476.3
100013
99204.3
98437.5
99373.2
99497.1
99105.3
100036
99593.3
100269
100385
100408
100255
100189
99526.4
99393.4
99301.2
99373.4
99239.2
99261.7
99889.1
99242.2
100044
99194.7
99956.6
99248.2
98905.6
98835.2
98733.7
99093.2
99030.9
99008.2
99114.9
98779.7
99301.2
99830.6
99938.5
99359.8
99907.5
99074.6
99527.2
101454
100934
100995
101034
100809
100377
101062
104948
100398
100101
100044
100795
100626
100753
102777
100606
100459
100264
101584
101953
100092
101476
101221
100426
102068
100690
101682
100811
100965
100768
101125
101096
100585
100913
101146
101026
101317
101181
101088
102159
101059
100522
101470
100429
101165
100862
100955
101219
99570.1
99750
99240.7
99723.3