/*--------------------------------*- C++ -*----------------------------------*\
| =========                 |                                                 |
| \\      /  F ield         | OpenFOAM: The Open Source CFD Toolbox           |
|  \\    /   O peration     | Version:  4.1                                   |
|   \\  /    A nd           | Web:      www.OpenFOAM.org                      |
|    \\/     M anipulation  |                                                 |
\*---------------------------------------------------------------------------*/
FoamFile
{
    version     2.0;
    format      ascii;
    class       surfaceScalarField;
    location    "34";
    object      phi;
}
// * * * * * * * * * * * * * * * * * * * * * * * * * * * * * * * * * * * * * //

dimensions      [0 3 -1 0 0 0 0];

internalField   nonuniform List<scalar> 
11516
(
9.98759e+06
1103.1
10495
9.97676e+06
1170.57
21408.8
9.95326e+06
1492.6
32174.8
9.91777e+06
1146.94
42453.7
9.87072e+06
848.662
52475.1
9.81287e+06
740.801
62221.1
9.74553e+06
761.931
71415.6
9.67018e+06
866.594
79739.7
9.58798e+06
982.978
87036.4
9.49913e+06
979.885
93610.4
9.40295e+06
704.458
99691.1
9.2982e+06
127.594
105437
9.18415e+06
-1035.08
111940
9.06212e+06
-1800.18
116444
8.93802e+06
-3524.45
120910
8.84009e+06
-1774.88
97520.9
8.77141e+06
665.416
72226.3
8.73976e+06
2205.61
45467.3
8.67229e+06
3151.44
87893.6
8.54561e+06
7608.31
148399
8.40385e+06
3292.92
165237
8.2606e+06
13.551
167022
8.11662e+06
-3645.7
172296
7.95549e+06
-8665.41
200645
7.76063e+06
-15693.8
244581
7.55846e+06
-22378.8
258520
7.37842e+06
-19099.5
239113
7.23709e+06
-11657.5
199386
7.1528e+06
-15413.5
152178
7.16233e+06
-24625.8
66453.4
7.34758e+06
-24567.3
-99845.4
7.7558e+06
-8116.6
-347197
8.30592e+06
28839.2
-533331
8.85421e+06
71882.4
-579687
9.39212e+06
99443
-575936
9.92985e+06
21529.6
-589989
1.02357e+07
50834.6
-414770
1.04281e+07
61278.9
-275170
1.04721e+07
70413.1
-134442
1.04032e+07
46214
60343
1.01548e+07
-9831.5
375632
9.74555e+06
-32133.1
618414
9.31158e+06
-13332.7
689048
8.93759e+06
67548.6
722425
8.61069e+06
68455.9
791371
8.41156e+06
33455.7
721411
8.05152e+06
69924.3
922205
7.43984e+06
8634.03
1.05994e+06
6.90273e+06
93703.1
1.05093e+06
6.80668e+06
122179
716910
6.0936e+06
497553
235553
9.80767e+06
-38503.6
-3.84616e+06
1.30818e+07
631295
-4.20816e+06
1.97362e+06
-1.28085e+07
9.98923e+06
10477.9
9.9767e+06
21378.1
9.95259e+06
32063.8
9.91656e+06
42212.6
9.86915e+06
52071.4
9.81134e+06
61666.2
9.74436e+06
70738.5
9.66953e+06
79027.9
9.58781e+06
86427.3
9.4992e+06
93277.9
9.40281e+06
99897.3
9.29747e+06
106364
9.18167e+06
113717
9.05748e+06
120311
8.93024e+06
123280
8.8204e+06
109802
8.75692e+06
71676.2
8.7343e+06
38216.7
8.66957e+06
85461.7
8.54499e+06
147606
8.40282e+06
159964
8.25908e+06
158384
8.10809e+06
164553
7.93519e+06
184434
7.72122e+06
220863
7.48978e+06
236548
7.27271e+06
228512
7.09656e+06
198362
6.97545e+06
140584
6.9239e+06
68133.2
6.98375e+06
-51003.5
7.2565e+06
-246883
7.74642e+06
-429101
8.33716e+06
-502938
8.88516e+06
-466292
9.29749e+06
-434131
9.57803e+06
-265678
9.73992e+06
-140391
9.79627e+06
24733.3
9.73334e+06
186447
9.37864e+06
430215
8.81579e+06
683192
8.32134e+06
752036
7.94451e+06
745357
7.56214e+06
866914
7.27968e+06
795783
6.90806e+06
899629
6.27345e+06
1.10402e+06
5.60269e+06
1.01456e+06
5.55965e+06
874864
4.80026e+06
697892
7.9052e+06
-3.10072e+06
1.25133e+07
-4.07554e+06
-5.31338e+06
1.00086e+07
1095.63
5867.69
1.00239e+07
1023.83
16108.5
1.00383e+07
1274.4
25640.9
1.00507e+07
870.998
35911.2
1.00607e+07
527.075
46378.4
1.00687e+07
389.873
56955.9
1.00749e+07
412.349
67709.5
1.00795e+07
574.812
78359
1.00818e+07
824.55
89466.4
1.00816e+07
1099.71
100316
1.00779e+07
1259.69
111428
1.00691e+07
1257.89
122776
1.00545e+07
1064.25
135724
1.0032e+07
764.934
147823
9.9893e+06
1614.11
171138
9.91484e+06
2504.77
178233
9.7917e+06
2980.74
202083
9.56403e+06
1579.36
276301
9.3213e+06
1801.05
332490
9.14136e+06
926.893
330091
8.99645e+06
1989.19
309868
8.86487e+06
2562.08
298404
8.73263e+06
2648.72
306450
8.59532e+06
3828.57
341113
8.45771e+06
4417.87
386968
8.31219e+06
3276.69
413243
8.15576e+06
1472.03
410623
7.99589e+06
-2043.06
380443
7.90589e+06
-12153.9
270383
7.99849e+06
-26461.4
9476.26
8.32908e+06
-26011.1
-405889
8.78499e+06
3016.29
-814857
9.22892e+06
26930.8
-1.02242e+06
9.64123e+06
25070.7
-1.05518e+06
9.99514e+06
-13909.9
-994172
1.01413e+07
-43499.4
-762892
1.01724e+07
-105206
-393688
1.0162e+07
-97401
-212300
1.01713e+07
-52823.7
-71499.6
1.02263e+07
-93786.1
166371
1.02414e+07
-149762
579186
1.02423e+07
-168795
945073
1.03282e+07
-156622
1.01801e+06
1.04682e+07
-158560
1.07495e+06
1.06723e+07
-132054
1.16514e+06
1.09008e+07
-115273
1.1163e+06
1.12093e+07
-101262
1.18828e+06
1.14678e+07
-67829
1.26797e+06
1.14567e+07
-136606
1.33398e+06
1.02314e+07
105807
1.71044e+06
5.73924e+06
-205482
4.78881e+06
-4.69953e+06
553805
5.68684e+06
-1.73621e+07
5.55325e+06
2.71744e+06
2.56785e+06
-2.31466e+06
1.00102e+07
5850.78
1.00237e+07
16077.7
1.00374e+07
25571
1.00489e+07
35804.8
1.00581e+07
46225.7
1.00655e+07
56738.2
1.00713e+07
67412.4
1.00757e+07
77980.2
1.00779e+07
89055.1
1.00778e+07
99906.4
1.00741e+07
111199
1.00658e+07
122919
1.00518e+07
135982
1.00299e+07
150354
9.99429e+06
169162
9.92921e+06
185507
9.8022e+06
208496
9.56597e+06
278722
9.3208e+06
334549
9.13897e+06
331864
8.99381e+06
307663
8.86049e+06
295304
8.7268e+06
304386
8.58428e+06
336811
8.44149e+06
376358
8.29041e+06
403027
8.11664e+06
420855
7.92952e+06
403171
7.77531e+06
299929
7.74696e+06
77356.4
7.97443e+06
-309462
8.4406e+06
-724451
8.94664e+06
-928724
9.39125e+06
-963686
9.76398e+06
-912614
9.98632e+06
-773501
1.01203e+07
-561210
1.02278e+07
-352261
1.03989e+07
-155444
1.06141e+07
-96502.5
1.06922e+07
289147
1.05934e+07
762400
1.05527e+07
843027
1.05742e+07
879244
1.06107e+07
1.04146e+06
1.06765e+07
958403
1.08433e+07
1.01019e+06
1.09372e+07
1.17954e+06
1.07427e+07
1.24025e+06
9.76321e+06
1.91538e+06
5.90661e+06
4.32003e+06
-2.38812e+06
5.66518e+06
-2.74247e+06
1.87164e+06
-1.18989e+06
1.00004e+07
1078.73
7620.63
1.00038e+07
997.331
22587.8
1.00008e+07
1232
36243.6
9.99139e+06
813.917
50808.9
9.97582e+06
458.504
65515.3
9.95484e+06
326.839
80205.8
9.92963e+06
386.904
94928.9
9.90056e+06
632.504
110327
9.86913e+06
1026.64
125665
9.83483e+06
1509.79
141849
9.7978e+06
1954.15
158273
9.75713e+06
2310.03
175728
9.71225e+06
2537.11
194986
9.65992e+06
2494.05
216672
9.60534e+06
2566.64
242586
9.52782e+06
2319.19
268126
9.4328e+06
912.159
302097
9.33125e+06
2.91268
377249
9.24608e+06
939.654
416495
9.1636e+06
1389.14
410548
9.0759e+06
1917.81
393926
8.97884e+06
2112.12
392344
8.86502e+06
2829.53
420141
8.7325e+06
4830.4
475157
8.58086e+06
5712.49
542906
8.40448e+06
6300.95
600217
8.18775e+06
4296.09
648232
7.95164e+06
-4987.99
650127
7.79306e+06
-23695.4
474363
7.82262e+06
-28045.7
14289.8
8.04077e+06
-6818.25
-625532
8.29924e+06
14223.9
-1.10679e+06
8.47691e+06
44723.6
-1.28092e+06
8.56921e+06
71636.2
-1.29169e+06
8.64672e+06
48401.4
-1.20133e+06
8.60119e+06
-25602.1
-756505
8.47375e+06
-152955
-180521
8.44609e+06
-191955
-26280.2
8.398e+06
-214260
200018
8.26799e+06
-243604
522753
8.10649e+06
-87852.2
852949
8.0075e+06
-111216
1.24248e+06
8.17085e+06
-141882
1.17451e+06
8.4237e+06
-140082
1.25387e+06
8.76403e+06
-110346
1.26464e+06
9.102e+06
-31818.5
1.17803e+06
9.6286e+06
41512.9
1.0436e+06
1.02211e+07
24914.2
979866
1.10028e+07
-64487.2
827734
1.23416e+07
-523828
1.0124e+06
1.54215e+07
-493459
2.23088e+06
1.85476e+07
-541141
3.11364e+06
1.81796e+07
46974.5
3.12903e+06
-1.3739e+06
-911901
1.0002e+07
7606.94
1.00036e+07
22602.2
9.9999e+06
36218.5
9.98977e+06
50753.2
9.9736e+06
65436.7
9.95234e+06
80109.9
9.92714e+06
94827
9.89827e+06
110239
9.86714e+06
125630
9.83313e+06
141912
9.79635e+06
158521
9.75589e+06
176230
9.7109e+06
195769
9.65949e+06
218084
9.6e+06
243509
9.52596e+06
271242
9.43313e+06
301246
9.33017e+06
380555
9.24258e+06
422771
9.16e+06
414821
9.07087e+06
397201
8.97272e+06
395746
8.85807e+06
424656
8.72078e+06
484861
8.5624e+06
550175
8.37505e+06
613773
8.13773e+06
686836
7.86117e+06
700165
7.61046e+06
545156
7.55465e+06
108193
7.78851e+06
-559906
8.12053e+06
-1.05891e+06
8.42044e+06
-1.21569e+06
8.66518e+06
-1.18989e+06
8.85255e+06
-1.12215e+06
8.84556e+06
-858220
8.75482e+06
-652283
8.75095e+06
-552495
8.80736e+06
-489290
8.95624e+06
-550312
8.79101e+06
391294
8.63319e+06
899940
8.70043e+06
825467
8.8563e+06
807157
8.95429e+06
1.06533e+06
9.18445e+06
996106
9.49784e+06
1.0075e+06
1.00052e+07
965761
1.07023e+07
675659
1.16558e+07
563231
1.42522e+07
1.30489e+06
1.7657e+07
1.65715e+06
1.82355e+07
1.31651e+06
-2.96921e+06
1.00001e+07
1061.98
9814.26
1.00037e+07
1021.88
28906.1
1.00012e+07
1240.27
46419.8
9.99233e+06
821.617
65288.4
9.97703e+06
461.355
84481.5
9.95599e+06
317.38
103641
9.92937e+06
364.997
123786
9.89856e+06
605.832
144461
9.86393e+06
1019.8
165830
9.82585e+06
1549.81
188441
9.78382e+06
2100.9
212073
9.73712e+06
2607.15
237321
9.6855e+06
2967.65
264156
9.62845e+06
3126.01
292481
9.56451e+06
2748.53
323320
9.48596e+06
2129.55
354998
9.3912e+06
-665.945
392514
9.29867e+06
607.138
464942
9.22971e+06
512.913
483765
9.16084e+06
1128.47
477033
9.08217e+06
2017.63
469131
8.98375e+06
2369.38
488324
8.85694e+06
3239.94
546861
8.70323e+06
4232.57
632405
8.52101e+06
2805.78
735993
8.29285e+06
2293.57
848588
7.9939e+06
-1220.86
977180
7.662e+06
-10464.2
1.01981e+06
7.40863e+06
-20071.9
768658
7.33149e+06
-14143.5
113524
7.34293e+06
4548.35
-643272
7.30066e+06
18061.4
-1.08878e+06
7.19681e+06
39083.5
-1.22702e+06
7.129e+06
65520.4
-1.30534e+06
7.14557e+06
54240
-1.28852e+06
7.10297e+06
-86299.3
-650546
6.9263e+06
-329540
287974
6.96677e+06
-345192
184673
6.93955e+06
-386517
530548
6.84129e+06
-213882
755381
6.77803e+06
2728.7
902264
6.70393e+06
12801.1
1.32056e+06
6.77318e+06
-1843.88
1.21096e+06
6.92388e+06
18614.3
1.21475e+06
7.10924e+06
46075.2
1.23626e+06
7.21744e+06
109363
1.2493e+06
7.45128e+06
21406.9
1.16874e+06
7.87408e+06
-6846.56
990264
8.4861e+06
-156271
817928
9.95327e+06
-311405
347419
1.25571e+07
-394202
408386
1.53366e+07
-713422
1.11624e+06
1.78125e+07
-1.00514e+06
1.37439e+06
-756208
-1.10203e+06
1.00016e+07
9804.51
1.00035e+07
28906.8
1.00003e+07
46381.2
9.99072e+06
65233.1
9.97482e+06
84438.7
9.95351e+06
103628
9.92692e+06
123817
9.89636e+06
144547
9.86211e+06
165979
9.82444e+06
188656
9.78279e+06
212365
9.7364e+06
237682
9.68492e+06
264613
9.62768e+06
293039
9.56216e+06
324204
9.48213e+06
355697
9.38403e+06
395944
9.29619e+06
467088
9.22761e+06
491195
9.15758e+06
485789
9.07528e+06
481476
8.97159e+06
503059
8.84098e+06
562316
8.68561e+06
650313
8.5026e+06
746606
8.26174e+06
873492
7.94197e+06
1.02354e+06
7.59166e+06
1.05576e+06
7.32631e+06
800808
7.26662e+06
156698
7.3185e+06
-609411
7.31763e+06
-1.04511e+06
7.25474e+06
-1.12472e+06
7.23211e+06
-1.12033e+06
7.3535e+06
-1.21243e+06
7.34868e+06
-965679
7.23764e+06
-924797
7.20177e+06
-965615
7.11812e+06
-968358
6.93315e+06
-690355
6.69638e+06
623886
6.53082e+06
1.11455e+06
6.65106e+06
812607
6.71036e+06
903268
6.77935e+06
1.19303e+06
6.90962e+06
1.17743e+06
7.06302e+06
1.14073e+06
7.43129e+06
931166
7.81303e+06
620467
8.61218e+06
-44586.9
9.69618e+06
-188944
1.09744e+07
-287113
1.18363e+07
-741956
-4.01312e+06
1.00002e+07
1049.93
11899.3
1.00038e+07
1035.93
35227.9
1.00015e+07
1267.8
56583.9
9.99272e+06
859.147
79812.8
9.97765e+06
506.189
103540
9.95679e+06
370.031
127386
9.93098e+06
429.85
152518
9.90128e+06
689.173
178359
9.86794e+06
1128.32
205711
9.83141e+06
1687.23
234544
9.79145e+06
2275.91
264762
9.74756e+06
2814.42
296796
9.6996e+06
3240.13
329902
9.64636e+06
3451.23
364488
9.58565e+06
3252.75
400112
9.51002e+06
2087.43
439602
9.42456e+06
1921.71
480439
9.34334e+06
-705.884
549950
9.25877e+06
3467.07
567087
9.17456e+06
203.761
565903
9.07848e+06
396.943
568268
8.95294e+06
824.354
617533
8.79805e+06
3378.25
702094
8.61431e+06
3643.03
818371
8.40079e+06
389.672
958617
8.13642e+06
125.822
1.12806e+06
7.80792e+06
175.754
1.32103e+06
7.45948e+06
-2199.87
1.38331e+06
7.16236e+06
-2699.69
1.07866e+06
6.91669e+06
1280.85
363370
6.64274e+06
7946.48
-375003
6.3143e+06
19712.7
-779781
5.9842e+06
38186.9
-938208
5.74794e+06
79180.3
-1.15119e+06
5.65703e+06
181315
-1.38252e+06
5.30795e+06
-146634
-170921
5.21839e+06
-194253
299296
5.62655e+06
25772.2
-466524
5.71073e+06
-28851.3
299509
5.78547e+06
9048.27
610870
5.94326e+06
23221.9
717368
6.01788e+06
-78763.8
1.34129e+06
5.96144e+06
-58420.6
1.38953e+06
5.89995e+06
63664
1.34906e+06
5.76966e+06
127968
1.41276e+06
5.78289e+06
130450
1.37688e+06
6.017e+06
34645.9
1.22843e+06
6.34736e+06
-79525.8
1.1038e+06
6.52165e+06
-48848
1.04925e+06
7.13681e+06
249777
298832
7.96965e+06
412575
-560352
1.00385e+07
-368915
-732462
1.22719e+07
-1.16757e+06
10133.3
-282508
-1.48522e+06
1.00017e+07
11874
1.00037e+07
35246.2
1.00006e+07
56567.1
9.99112e+06
79793.9
9.97547e+06
103552
9.95436e+06
127454
9.92859e+06
152661
9.89915e+06
178586
9.8662e+06
206022
9.83007e+06
234925
9.7905e+06
265183
9.74695e+06
297204
9.69922e+06
330258
9.64573e+06
364735
9.58407e+06
400728
9.51e+06
439884
9.42811e+06
483600
9.35183e+06
546818
9.26515e+06
587938
9.17295e+06
584317
9.06618e+06
593923
8.93004e+06
644304
8.76969e+06
728455
8.59085e+06
836320
8.37799e+06
965969
8.10897e+06
1.15053e+06
7.79687e+06
1.3429e+06
7.47571e+06
1.38136e+06
7.1982e+06
1.08135e+06
6.96756e+06
392591
6.71431e+06
-345966
6.42956e+06
-740017
6.18338e+06
-841343
6.09833e+06
-959440
6.27118e+06
-1.21894e+06
6.37778e+06
-1.29334e+06
6.23774e+06
-1.08603e+06
6.2798e+06
-1.13398e+06
6.16055e+06
-1.03822e+06
5.6081e+06
-217657
5.54226e+06
713580
5.64185e+06
960514
5.54191e+06
912486
5.42523e+06
1.16107e+06
5.40878e+06
1.47041e+06
5.38758e+06
1.53602e+06
5.57999e+06
1.28037e+06
5.85462e+06
987072
6.23314e+06
728050
6.43521e+06
157525
6.38928e+06
376320
4.75879e+06
746358
1.37278e+06
1.07802e+06
803922
1.00003e+07
1023.24
13941.3
1.00039e+07
1069.59
41574.4
1.00018e+07
1281.75
66713.5
9.99346e+06
891.539
94212.7
9.97919e+06
568.642
122317
9.95919e+06
464.312
151009
9.93462e+06
557.63
180983
9.90621e+06
847.671
212115
9.87463e+06
1309.39
245109
9.84029e+06
1874.76
279708
9.80252e+06
2446.69
316302
9.76101e+06
2943.36
354466
9.71479e+06
3288.57
393958
9.66276e+06
3498.96
435185
9.60435e+06
3384.92
477505
9.53898e+06
3174.73
523210
9.46879e+06
2527.58
568708
9.41076e+06
1759.75
627751
9.32965e+06
4887.12
665368
9.23059e+06
-2288.06
690576
9.11326e+06
-1819.06
709316
8.96527e+06
-4590.03
784891
8.79733e+06
735.058
871144
8.59735e+06
1886.6
1.01649e+06
8.36364e+06
-3259.13
1.19901e+06
8.08616e+06
-1000.66
1.41338e+06
7.76617e+06
5742.7
1.6445e+06
7.415e+06
10686.2
1.7339e+06
7.03076e+06
14225.4
1.45881e+06
6.58189e+06
15244.6
806440
6.05879e+06
17376.2
137406
5.48339e+06
36636.7
-238472
4.84831e+06
83645.5
-385519
4.00978e+06
280898
-598073
1.21414e+06
1.20413e+06
197308
245768
382953
192804
-561977
79881.5
473944
1.09259e+06
-47702
-2.3789e+06
2.94155e+06
-137190
-1.64568e+06
4.15613e+06
-190205
-522162
4.62525e+06
-56442.7
308666
4.97057e+06
-344728
1.35455e+06
5.19654e+06
-326996
1.53851e+06
5.24787e+06
-131748
1.5458e+06
5.15826e+06
-9820.97
1.69672e+06
5.2961e+06
49352
1.50923e+06
5.45858e+06
152359
1.30752e+06
5.57357e+06
-22943.7
1.38914e+06
5.63716e+06
34149.5
1.34139e+06
5.43489e+06
710508
-92757.3
5.49667e+06
1.42216e+06
-2.08392e+06
5.5837e+06
1.65172e+06
-2.60593e+06
5.63377e+06
436798
-972139
-562645
-1.16368e+06
1.00017e+07
13922.2
1.00037e+07
41564.4
1.00009e+07
66657.8
9.99191e+06
94147.7
9.97709e+06
122288
9.95686e+06
151047
9.93233e+06
181107
9.9042e+06
212335
9.87298e+06
245418
9.83902e+06
280084
9.80156e+06
316706
9.76032e+06
354837
9.71423e+06
394269
9.66227e+06
435329
9.60361e+06
477814
9.53739e+06
523170
9.46738e+06
571700
9.41009e+06
626905
9.34758e+06
678853
9.2409e+06
712831
9.11292e+06
737790
8.96709e+06
796647
8.77657e+06
925263
8.56585e+06
1.05084e+06
8.33312e+06
1.19883e+06
8.07001e+06
1.41708e+06
7.78909e+06
1.63543e+06
7.47355e+06
1.71404e+06
7.10541e+06
1.47139e+06
6.67101e+06
849634
6.18966e+06
158420
5.71211e+06
-222677
5.28948e+06
-336846
5.03366e+06
-431926
5.5995e+06
-665704
4.91966e+06
-319840
3.72682e+06
-43665.2
3.28284e+06
-933050
3.56362e+06
-1.62378e+06
3.85489e+06
-759378
4.45319e+06
50316.8
4.71128e+06
377589
4.51519e+06
840845
4.30974e+06
1.36212e+06
4.27975e+06
1.69707e+06
4.5595e+06
1.57309e+06
5.14831e+06
1.17588e+06
5.40717e+06
1.03287e+06
5.2992e+06
1.0701e+06
5.80735e+06
485873
7.29608e+06
220551
9.54906e+06
-160247
9.78794e+06
1.13409e+06
-182241
1.00003e+07
1001.69
15895.2
1.00042e+07
1076.88
47716.7
1.00024e+07
1314.42
76501.7
9.99483e+06
952.104
108134
9.98152e+06
656.074
140506
9.96277e+06
578.096
173957
9.93967e+06
696.151
208694
9.91296e+06
1005.39
245020
9.88341e+06
1474.44
283329
9.85059e+06
2031.36
324117
9.81487e+06
2576.74
366366
9.77504e+06
3031.22
410787
9.73004e+06
3345.49
456949
9.67959e+06
3592.7
504957
9.62344e+06
3701.63
554777
9.56371e+06
4076.45
607307
9.50039e+06
4332.22
662020
9.44373e+06
5712.01
719949
9.37885e+06
3606.34
776303
9.29459e+06
1811.72
829449
9.17507e+06
3607.69
887322
9.04592e+06
-10420.3
971497
8.89711e+06
-15530.7
1.05756e+06
8.68851e+06
3171.17
1.22807e+06
8.45062e+06
-7402.41
1.4477e+06
8.18544e+06
-6502.8
1.69101e+06
7.89988e+06
10416.1
1.93212e+06
7.5513e+06
24620
2.07203e+06
7.07123e+06
22496.3
1.93135e+06
6.44885e+06
22506
1.41919e+06
5.75901e+06
32021.7
803256
5.02074e+06
57658.4
447344
3.98969e+06
155873
488906
1.33914e+06
773872
1.2762e+06
-1.90735e+06
1.1237e+06
2.27327e+06
-1.94436e+06
8175.29
219929
-1.1993e+06
238172
-695788
-580336
-234506
-3.01519e+06
851053
-187664
-3.16949e+06
2.39949e+06
-223765
-1.98204e+06
3.17149e+06
-442524
-41693.8
3.71039e+06
-178560
1.08163e+06
3.78857e+06
42004.2
1.61372e+06
3.75779e+06
-28717.8
1.87731e+06
3.73245e+06
-237140
2.43737e+06
4.21198e+06
57481.9
1.715e+06
4.72835e+06
624366
1.14196e+06
5.14769e+06
485701
1.04727e+06
4.72658e+06
641721
1.5472e+06
2.14208e+06
1.49165e+06
1.30629e+06
-1.66176e+06
2.35292e+06
-178103
-4.68722e+06
2.12387e+06
-1.65173e+06
-5.24397e+06
-106719
-77238.1
260277
2.25219e+06
1.00017e+07
15868.1
1.0004e+07
47749.5
1.00016e+07
76494.5
9.99334e+06
108129
9.97951e+06
140544
9.96053e+06
174064
9.93751e+06
208885
9.91106e+06
245300
9.88186e+06
283688
9.84939e+06
324536
9.81393e+06
366825
9.7743e+06
411262
9.72947e+06
457461
9.67912e+06
505485
9.62305e+06
555571
9.56319e+06
608322
9.50114e+06
663782
9.44264e+06
722014
9.37996e+06
781770
9.29591e+06
839988
9.17436e+06
903880
9.01278e+06
984816
8.82546e+06
1.12144e+06
8.64796e+06
1.23799e+06
8.41388e+06
1.42868e+06
8.15534e+06
1.67398e+06
7.91053e+06
1.8974e+06
7.60427e+06
2.05321e+06
7.16221e+06
1.94635e+06
6.57575e+06
1.4689e+06
5.93673e+06
836847
5.34124e+06
432894
4.80138e+06
359623
4.26901e+06
832076
2.31946e+06
2.35308e+06
340911
1.52518e+06
-777562
1.01942e+06
-976680
-1.20687e+06
-53113.1
-2.92532e+06
727066
-1.84785e+06
1.62823e+06
-1.2768e+06
2.38785e+06
-461082
2.75072e+06
707763
2.68514e+06
1.69408e+06
2.65338e+06
1.94808e+06
3.31384e+06
1.67575e+06
4.09875e+06
1.54102e+06
4.74399e+06
1.30527e+06
5.29346e+06
1.51584e+06
5.84129e+06
1.72861e+06
7.11774e+06
1.51142e+06
8.26266e+06
1.06659e+06
7.6178e+06
1.92494e+06
1.04633e+06
1.00004e+07
972.669
17786.5
1.00046e+07
1130.24
53674.9
1.00035e+07
1347.05
85978.5
9.99677e+06
1007.6
121588
9.98458e+06
744.75
158183
9.96745e+06
695.313
196036
9.94636e+06
834.901
235269
9.92157e+06
1153.48
276909
9.89386e+06
1616.54
320574
9.86359e+06
2152.85
366762
9.82974e+06
2676.12
415309
9.79175e+06
3122.63
466170
9.74881e+06
3492.53
519336
9.70054e+06
3863.96
575007
9.64751e+06
4321.81
632981
9.59159e+06
5113.51
693818
9.5338e+06
6059.19
756861
9.47587e+06
7316.29
822420
9.41223e+06
6815.88
890622
9.33995e+06
6591.71
963967
9.2501e+06
5654.59
1.04437e+06
9.14425e+06
4099.35
1.14909e+06
9.00198e+06
-7379.67
1.26384e+06
8.83603e+06
-7613.28
1.42176e+06
8.6361e+06
-13042.7
1.66379e+06
8.4204e+06
-10723.5
1.92316e+06
8.20111e+06
7177.15
2.15653e+06
7.9136e+06
37358.3
2.3538e+06
7.40599e+06
52896.9
2.42272e+06
6.67713e+06
39023.3
2.14237e+06
5.91963e+06
30079.9
1.54896e+06
5.22363e+06
40037.7
1.10975e+06
4.55141e+06
79412.2
1.08225e+06
3.46723e+06
570758
1.76302e+06
1.33595e+06
950978
3.38904e+06
206407
11967.5
1.27866e+06
741637
-708623
-661646
2323.74
-556621
-1.90876e+06
-261730
-171175
-2.90841e+06
-423766
517577
-2.45402e+06
-549326
344744
-271712
-686387
-147389
1.48565e+06
-688929
-178473
2.02949e+06
-573446
-289070
2.46537e+06
632582
-406077
2.42376e+06
2.16565e+06
396971
1.6667e+06
2.98199e+06
771951
1.50528e+06
3.21387e+06
933425
914474
4.54828e+06
705509
461654
5.81274e+06
499793
494170
4.16941e+06
898468
1.23316e+06
678864
1.66492e+06
905494
2.98183e+06
-260686
-1.66269e+06
-163775
-1.24005e+06
1.00018e+07
17764.2
1.00044e+07
53667.4
1.00026e+07
85930.3
9.99532e+06
121536
9.98264e+06
158176
9.96532e+06
196106
9.9443e+06
235436
9.91975e+06
277176
9.89237e+06
320930
9.86241e+06
367183
9.8288e+06
415768
9.79101e+06
466642
9.74829e+06
519822
9.7003e+06
575515
9.6478e+06
633614
9.59234e+06
694565
9.53529e+06
758097
9.47648e+06
824474
9.41283e+06
894357
9.33848e+06
967730
9.24875e+06
1.05024e+06
9.13632e+06
1.1507e+06
8.99864e+06
1.28775e+06
8.82325e+06
1.41932e+06
8.59177e+06
1.65503e+06
8.34868e+06
1.91214e+06
8.13439e+06
2.13692e+06
7.88218e+06
2.35752e+06
7.49381e+06
2.40213e+06
6.87861e+06
2.14132e+06
6.12905e+06
1.6346e+06
5.45126e+06
1.15989e+06
4.86329e+06
1.01811e+06
4.82556e+06
1.40568e+06
5.41383e+06
2.65504e+06
4.30471e+06
2.56422e+06
2.86043e+06
1.61977e+06
1.08594e+06
-149632
257887
-2.41028e+06
898199
-2.04569e+06
1.29092e+06
-1.27397e+06
444797
341257
-331802
1.47179e+06
-762423
2.13573e+06
-280729
1.80615e+06
374819
2.35242e+06
856826
2.46786e+06
2.29555e+06
1.33892e+06
3.98559e+06
1.05396e+06
5.34973e+06
1.34222e+06
6.55917e+06
1.56735e+06
8.19382e+06
1.46977e+06
9.42491e+06
641378
-138143
1.00004e+07
949.951
19516.3
1.00051e+07
1141.08
59218.3
1.00048e+07
1389.72
94839.7
9.99918e+06
1081.03
134210
9.98847e+06
844.033
174813
9.97317e+06
815.823
216881
9.95399e+06
970.992
260645
9.93173e+06
1296.65
307044
9.90648e+06
1756.71
356132
9.8785e+06
2282.28
407850
9.84739e+06
2797.76
462249
9.81192e+06
3251.95
519865
9.77161e+06
3667.58
580183
9.72663e+06
4129.65
643321
9.67735e+06
4760.39
709707
9.62543e+06
5664.03
779032
9.57159e+06
6781.43
851055
9.51627e+06
8041.24
926009
9.45697e+06
8603.79
1.00321e+06
9.39241e+06
9065.05
1.08775e+06
9.31969e+06
8776
1.17887e+06
9.24638e+06
5920.51
1.28821e+06
9.13162e+06
2100.87
1.43605e+06
9.004e+06
-4983.02
1.59294e+06
8.85427e+06
-3625.09
1.83199e+06
8.67286e+06
-1963.78
2.11302e+06
8.53762e+06
-7568.37
2.32918e+06
8.41425e+06
-497.565
2.52692e+06
8.13265e+06
53642.4
2.70638e+06
7.48481e+06
93569.4
2.75279e+06
6.51497e+06
75221.1
2.47633e+06
5.52668e+06
39049.4
2.0683e+06
4.80692e+06
45304.5
1.75159e+06
4.63278e+06
232531
1.64953e+06
4.62181e+06
487638
2.84946e+06
3.61661e+06
14160.8
2.18717e+06
2.70708e+06
-548422
666605
1.98396e+06
-675197
-622498
944171
-623580
-1.4169e+06
-721790
184397
-1.23839e+06
-2.39493e+06
762072
382974
-3.12367e+06
280312
1.71298e+06
-3.63723e+06
247133
2.04598e+06
-3.97405e+06
182259
2.36809e+06
-3.4711e+06
-11136.1
1.98082e+06
-1.49847e+06
-594969
649228
1.89366e+06
-555928
-629809
4.87686e+06
218316
-1.17697e+06
6.754e+06
935676
-988843
7.8406e+06
819029
-388220
8.94655e+06
657678
208740
9.42871e+06
811466
149761
8.57306e+06
288033
-700565
655693
-1.82207e+06
1.00018e+07
19493
1.0005e+07
59270.7
1.0004e+07
94857.7
9.9978e+06
134237
9.98663e+06
174891
9.97114e+06
217035
9.95204e+06
260889
9.93002e+06
307380
9.90509e+06
356552
9.8774e+06
408346
9.84651e+06
462809
9.81125e+06
520499
9.7712e+06
580900
9.72664e+06
644139
9.67792e+06
710642
9.62665e+06
780048
9.57341e+06
852398
9.51798e+06
927184
9.45927e+06
1.00515e+06
9.39414e+06
1.08811e+06
9.32168e+06
1.17875e+06
9.23575e+06
1.28681e+06
9.13264e+06
1.42942e+06
8.97997e+06
1.59535e+06
8.82907e+06
1.82518e+06
8.65281e+06
2.1064e+06
8.45987e+06
2.34435e+06
8.23577e+06
2.59589e+06
7.99237e+06
2.71666e+06
7.58668e+06
2.66517e+06
6.8301e+06
2.4831e+06
5.85596e+06
2.17156e+06
5.03298e+06
1.86472e+06
4.95551e+06
1.66603e+06
5.77866e+06
2.2743e+06
5.80718e+06
2.50342e+06
4.86807e+06
1.95542e+06
2.88064e+06
1.07105e+06
-308070
16148.4
-2.08519e+06
-277489
-2.88507e+06
6393.88
-3.92459e+06
1.31337e+06
-4.83739e+06
2.20574e+06
-5.15449e+06
2.17684e+06
-5.05223e+06
1.17582e+06
-4.40634e+06
982559
-2.42859e+06
77140
-153689
-331035
2.13495e+06
145310
4.18513e+06
497333
6.16332e+06
577018
8.34842e+06
318765
9.40919e+06
-98948.6
-1.18691e+06
1.00005e+07
925.771
21169
1.00059e+07
1215.58
64433.2
1.00064e+07
1445.04
103160
1.00022e+07
1159.69
146036
9.99325e+06
955.65
190396
9.98009e+06
953.362
236435
9.96339e+06
1125.82
284472
9.94375e+06
1458.42
335512
9.92148e+06
1916.21
389665
9.89651e+06
2440.4
446923
9.86829e+06
2965.32
507414
9.83621e+06
3463.48
571647
9.79956e+06
3956.53
639321
9.75816e+06
4524.44
710522
9.71293e+06
5274.73
785142
9.66445e+06
6161.74
862907
9.61477e+06
7419.42
943234
9.56283e+06
8294
1.02502e+06
9.51087e+06
9340.28
1.10762e+06
9.45712e+06
9088.13
1.19324e+06
9.4057e+06
7148.37
1.28322e+06
9.36062e+06
2641.56
1.38608e+06
9.28939e+06
-4995.44
1.55814e+06
9.21662e+06
10663.8
1.70289e+06
9.10548e+06
18368.3
1.95648e+06
8.95435e+06
10749.3
2.26629e+06
8.8025e+06
-13239
2.49128e+06
8.63166e+06
-25262.4
2.70983e+06
8.44152e+06
287.869
2.88424e+06
8.12162e+06
36387.9
3.02599e+06
7.46536e+06
55057.6
3.06439e+06
6.48756e+06
65148.2
2.95877e+06
5.54106e+06
60536.4
2.59255e+06
5.00617e+06
25054.7
2.09452e+06
5.19623e+06
182819
2.4046e+06
4.85727e+06
114299
2.34021e+06
4.14196e+06
-133452
1.45098e+06
3.38124e+06
-300312
339687
2.48765e+06
-415576
-304448
1.49377e+06
-638975
-87215.3
971709
-487821
533492
1.23531e+06
-324754
830531
1.95661e+06
-103657
361793
2.65677e+06
744482
-158233
2.70539e+06
1.68713e+06
-886399
2.70189e+06
1.54473e+06
-1.55671e+06
2.64426e+06
1.16321e+06
-2.00268e+06
3.34306e+06
286594
-1.95225e+06
4.52277e+06
-116719
-1.60581e+06
5.85801e+06
115773
-1.38781e+06
7.3882e+06
266057
-1.27523e+06
8.83779e+06
370912
-1.32682e+06
9.3506e+06
10133.4
-1.26573e+06
680213
-2.37169e+06
1.00018e+07
21146.1
1.00057e+07
64431.6
1.00057e+07
103132
1.00009e+07
146014
9.9915e+06
190428
9.97817e+06
236551
9.96154e+06
284691
9.94213e+06
335833
9.92016e+06
390078
9.89547e+06
447408
9.86751e+06
507953
9.83566e+06
572229
9.79932e+06
639946
9.75839e+06
711202
9.7137e+06
785854
9.66609e+06
863715
9.6166e+06
943929
9.56542e+06
1.02584e+06
9.51263e+06
1.10845e+06
9.45806e+06
1.19311e+06
9.40199e+06
1.28169e+06
9.34295e+06
1.38418e+06
9.28525e+06
1.51627e+06
9.22429e+06
1.69549e+06
9.1294e+06
1.95613e+06
8.99007e+06
2.26426e+06
8.76574e+06
2.54603e+06
8.5353e+06
2.78565e+06
8.31958e+06
2.91682e+06
8.03799e+06
2.96727e+06
7.55932e+06
2.99745e+06
6.81902e+06
2.94769e+06
5.93838e+06
2.76102e+06
5.17115e+06
2.40834e+06
5.26839e+06
2.31539e+06
5.5245e+06
2.32177e+06
5.31233e+06
1.99299e+06
4.58099e+06
1.43601e+06
3.02561e+06
984833
869319
816058
-1.38946e+06
1.10084e+06
-3.01618e+06
1.74779e+06
-4.00917e+06
2.02183e+06
-3.9454e+06
1.41873e+06
-2.20458e+06
-199383
544456
-895980
2.92009e+06
-1.2818e+06
3.71417e+06
-558502
4.20247e+06
-104075
5.44496e+06
-371895
7.10451e+06
-634245
8.70363e+06
-874311
9.68619e+06
-885293
-2.55783e+06
1.00006e+07
905.419
22591
1.00067e+07
1230.47
69029.8
1.00084e+07
1496.14
110574
1.00057e+07
1241.45
156645
9.99877e+06
1060.51
204441
9.98807e+06
1074.67
254148
9.97399e+06
1256.12
306390
9.95746e+06
1589.26
361621
9.93877e+06
2040
420366
9.91738e+06
2553.81
483130
9.89276e+06
3073.68
549685
9.8646e+06
3579.45
620226
9.83203e+06
4090.11
695170
9.79515e+06
4680.88
773996
9.75377e+06
5393.23
857123
9.70895e+06
6260.51
943238
9.6614e+06
7228.83
1.03152e+06
9.61221e+06
7991.32
1.11922e+06
9.56295e+06
8943.68
1.20493e+06
9.51948e+06
6891.82
1.28296e+06
9.4857e+06
7124.68
1.35946e+06
9.48965e+06
-3980.6
1.41716e+06
9.51008e+06
-359.908
1.55903e+06
9.51137e+06
17077.7
1.69947e+06
9.44388e+06
26936.4
1.98834e+06
9.28151e+06
24920.2
2.37773e+06
9.01729e+06
-8650.56
2.71332e+06
8.7508e+06
-28017.3
2.94195e+06
8.50213e+06
-21713.5
3.08942e+06
8.25043e+06
271.668
3.21423e+06
7.89578e+06
18483.9
3.33754e+06
7.33375e+06
25689.1
3.42413e+06
6.51578e+06
5460.66
3.32825e+06
5.60009e+06
-49340.5
2.97734e+06
5.20892e+06
22555.3
2.69756e+06
4.93778e+06
77017.5
2.46048e+06
4.43455e+06
20343.9
1.86815e+06
3.72738e+06
-73681.5
1.05984e+06
3.00359e+06
-156019
430203
2.7408e+06
-315217
120022
3.25154e+06
-499201
-22034.4
4.22057e+06
-607535
-166778
5.07153e+06
-539509
-581590
5.66821e+06
-187340
-1.16522e+06
5.76804e+06
283855
-1.79442e+06
5.63902e+06
358347
-2.23183e+06
5.53033e+06
234537
-2.42091e+06
5.86848e+06
-14563.7
-2.37247e+06
6.65414e+06
-144635
-2.21887e+06
7.60658e+06
-114910
-2.12891e+06
8.77178e+06
-89429
-2.16474e+06
9.91506e+06
-75907.1
-2.2586e+06
1.16083e+07
-180376
-2.32008e+06
-149915
-2.5463e+06
1.00019e+07
22574.5
1.00065e+07
69099
1.00077e+07
110619
1.00044e+07
156704
9.99711e+06
204556
9.98625e+06
254341
9.97225e+06
306672
9.95595e+06
361989
9.93755e+06
420813
9.91643e+06
483642
9.89206e+06
550257
9.86415e+06
620847
9.8319e+06
695845
9.79545e+06
774705
9.75467e+06
857835
9.71045e+06
943902
9.66338e+06
1.03191e+06
9.61442e+06
1.11959e+06
9.56471e+06
1.20435e+06
9.5166e+06
1.28384e+06
9.47639e+06
1.35815e+06
9.4497e+06
1.43149e+06
9.44753e+06
1.52723e+06
9.47348e+06
1.68148e+06
9.45042e+06
2.00174e+06
9.28325e+06
2.41757e+06
9.01045e+06
2.76256e+06
8.73087e+06
2.98075e+06
8.45822e+06
3.11074e+06
8.17016e+06
3.19996e+06
7.83767e+06
3.29203e+06
7.37885e+06
3.37225e+06
6.70508e+06
3.38053e+06
5.83476e+06
3.17324e+06
5.28011e+06
2.83888e+06
5.10472e+06
2.52843e+06
4.95499e+06
2.12325e+06
4.65217e+06
1.6212e+06
4.23074e+06
1.15973e+06
3.68487e+06
863276
3.14013e+06
858383
2.80838e+06
1.1207e+06
2.71584e+06
1.20271e+06
2.89842e+06
690560
3.0266e+06
-401884
3.31156e+06
-1.13829e+06
3.52594e+06
-1.48616e+06
4.39255e+06
-1.5335e+06
5.73252e+06