/*--------------------------------*- C++ -*----------------------------------*\
| =========                 |                                                 |
| \\      /  F ield         | OpenFOAM: The Open Source CFD Toolbox           |
|  \\    /   O peration     | Version:  4.1                                   |
|   \\  /    A nd           | Web:      www.OpenFOAM.org                      |
|    \\/     M anipulation  |                                                 |
\*---------------------------------------------------------------------------*/
FoamFile
{
    version     2.0;
    format      ascii;
    class       volVectorField;
    location    "34";
    object      U;
}
// * * * * * * * * * * * * * * * * * * * * * * * * * * * * * * * * * * * * * //

dimensions      [0 1 -1 0 0 0 0];

internalField   nonuniform List<vector> 
4432
(
(39.9847 0.00162296 0.0520781)
(39.9213 0.0033634 0.0925746)
(39.8562 0.00760128 0.126959)
(39.7582 0.00924116 0.161638)
(39.6016 0.00882754 0.197241)
(39.3895 0.00740579 0.233518)
(39.1321 0.00556663 0.269641)
(38.839 0.00376451 0.303635)
(38.5172 0.00227265 0.33406)
(38.1713 0.00107877 0.35926)
(37.8008 -0.000121085 0.377078)
(37.4031 -0.0014653 0.389007)
(36.9676 -0.00416122 0.391904)
(36.5103 -0.00611007 0.39233)
(35.996 -0.0120473 0.377098)
(35.5708 -0.0162575 0.330583)
(35.2045 -0.0151941 0.403615)
(34.9688 -0.00943502 0.35713)
(34.8426 -0.00375114 0.40595)
(34.4315 0.0177116 0.703197)
(33.8768 0.0173819 0.824397)
(33.3298 0.0199001 0.927907)
(32.8137 -0.0138938 0.97116)
(32.1961 -0.0510605 0.919463)
(31.4183 -0.0517418 0.939406)
(30.5914 -0.0434891 0.895724)
(29.8529 -0.0491424 0.746538)
(29.1884 -0.0530134 0.523117)
(28.6837 -0.0467642 0.385262)
(28.5133 -0.0513205 0.280766)
(28.7612 -0.063035 0.0874347)
(30.0279 -0.0284042 -0.436255)
(32.1273 0.0958227 -1.12469)
(34.3571 0.282518 -1.57303)
(36.544 0.462405 -2.02242)
(38.3479 0.542622 -1.95844)
(40.6029 0.630363 -1.1032)
(41.9402 0.0731941 -1.02508)
(41.9422 -0.206255 -0.817966)
(41.8151 -0.109842 -0.140521)
(40.9475 0.0212869 0.65119)
(39.8302 0.142534 1.18175)
(38.3114 0.0761949 1.36575)
(36.3778 0.0445307 1.6782)
(35.2905 0.0556956 2.03176)
(33.6353 0.608714 2.00071)
(31.6887 1.22235 3.11762)
(32.1567 0.584288 3.39966)
(30.4532 0.126412 2.95046)
(29.4716 -0.625181 2.74335)
(13.1025 0.943101 1.05969)
(37.6332 -0.820526 -0.394856)
(51.6996 -1.03837 -4.75118)
(71.2178 3.28753 -12.8473)
(39.9874 0.00162284 0.0520446)
(39.924 0.00336384 0.092531)
(39.8569 0.00760432 0.126816)
(39.7544 0.00925048 0.161147)
(39.5952 0.00884265 0.196169)
(39.3826 0.00742404 0.231801)
(39.1262 0.00558494 0.267088)
(38.835 0.00378146 0.300292)
(38.5155 0.00228313 0.330185)
(38.1713 0.00108267 0.355149)
(37.8014 -0.000123645 0.373693)
(37.4014 -0.00147823 0.386778)
(36.9652 -0.00416797 0.393067)
(36.492 -0.0061877 0.394633)
(35.9896 -0.0118666 0.388479)
(35.501 -0.0165924 0.348794)
(35.1162 -0.0158677 0.358942)
(34.9479 -0.00944456 0.308729)
(34.8095 -0.00421238 0.416497)
(34.4271 0.016767 0.724136)
(33.902 0.0166893 0.810443)
(33.3331 0.0200665 0.822176)
(32.7601 -0.0102914 0.866045)
(32.1363 -0.0519178 0.855204)
(31.3506 -0.0575138 0.858931)
(30.4051 -0.0442241 0.755805)
(29.4496 -0.0445453 0.608744)
(28.6739 -0.056894 0.481725)
(28.1203 -0.0472345 0.297999)
(27.7117 -0.0457882 0.0842844)
(27.6382 -0.0651708 -0.154776)
(28.2266 -0.0793287 -0.356019)
(29.9264 0.0242861 -0.746351)
(32.056 0.127637 -0.710965)
(34.6058 0.385277 -0.73329)
(36.4577 0.500423 -0.875392)
(37.8699 0.689606 -0.426876)
(38.772 0.186257 0.0190136)
(39.2831 -0.164265 0.691573)
(39.4202 -0.118789 1.32267)
(38.2259 0.00172984 1.97141)
(36.4897 0.166749 2.49323)
(34.0927 0.0969531 2.83603)
(32.0753 0.0625087 3.13294)
(31.3711 0.103234 3.25711)
(30.0782 0.699349 2.25176)
(26.8016 1.38388 2.47947)
(27.0347 0.606476 2.95373)
(25.6984 -0.00198411 2.37977)
(23.2271 -0.533345 1.56042)
(11.7124 0.670514 -0.342921)
(31.7999 -0.430985 -0.807168)
(38.807 -0.0932588 -10.5814)
(66.6761 3.47724 -13.0979)
(40.0175 0.00161696 0.0207488)
(40.0435 0.00308948 0.0600829)
(40.1118 0.00716854 0.103149)
(40.1855 0.00864347 0.14772)
(40.2383 0.00799338 0.191654)
(40.2727 0.00623136 0.234782)
(40.2956 0.00396459 0.276656)
(40.3106 0.0017336 0.316309)
(40.3194 -0.00010186 0.353093)
(40.3215 -0.00127915 0.386689)
(40.3136 -0.00198567 0.417592)
(40.2911 -0.00217727 0.445682)
(40.248 -0.00236567 0.476786)
(40.1763 -0.00276657 0.491702)
(40.075 0.000643944 0.549258)
(39.8301 -0.000324946 0.467121)
(39.5343 0.00013291 0.424424)
(38.8457 0.00273381 0.522227)
(37.6496 0.00746085 0.863927)
(36.8301 0.00610434 0.96278)
(36.2492 0.00811365 0.967648)
(35.7299 0.00585073 0.935646)
(35.1988 0.0025666 0.907296)
(34.6401 0.00639954 1.02755)
(34.0934 0.0105564 1.20993)
(33.5358 0.00391049 1.28881)
(32.941 -0.00805293 1.22569)
(32.2881 -0.0186762 1.08519)
(31.6835 -0.0602748 0.832006)
(31.5576 -0.114646 0.219771)
(32.4248 -0.114129 -0.899732)
(34.1948 -0.00869463 -2.31511)
(36.1156 0.103359 -3.18492)
(37.7451 0.154681 -3.28773)
(39.3138 0.083633 -2.76706)
(40.3769 -0.101601 -2.23513)
(40.8512 -0.409668 -1.33912)
(40.7941 -0.516046 -0.945153)
(40.7224 -0.394327 -0.639466)
(40.727 -0.303662 -0.0105811)
(40.5972 -0.219293 1.41563)
(41.0387 -0.203373 2.78701)
(41.2119 -0.211819 3.2787)
(41.5689 -0.311967 3.41941)
(42.1643 -0.40616 3.80961)
(42.8964 -0.464528 3.47114)
(43.6515 -0.600463 4.71038)
(45.7001 -0.706429 5.6115)
(46.9169 -1.73455 5.95399)
(45.73 -1.3387 4.8084)
(34.264 -1.95024 13.2084)
(19.0807 -0.751341 -2.72002)
(-52.0813 11.8701 -18.9603)
(-109.022 8.79433 -65.9166)
(40.0202 0.00161678 0.0206859)
(40.046 0.00309086 0.059959)
(40.1118 0.00717038 0.10275)
(40.1802 0.00864542 0.146928)
(40.2287 0.00799482 0.190335)
(40.2605 0.00623175 0.232827)
(40.2815 0.00396491 0.274056)
(40.2953 0.00172891 0.313182)
(40.3039 -9.72171e-05 0.349813)
(40.3054 -0.00130044 0.383699)
(40.2986 -0.00196739 0.415899)
(40.2764 -0.00219429 0.446367)
(40.2359 -0.00245405 0.47812)
(40.1693 -0.0024856 0.508127)
(40.0666 -0.000592584 0.538697)
(39.8739 0.0041106 0.532521)
(39.5942 0.0016449 0.469353)
(38.8626 0.00336204 0.53937)
(37.6681 0.00693069 0.855813)
(36.8152 0.00571523 0.956496)
(36.2413 0.00797655 0.938475)
(35.7119 0.00598594 0.932227)
(35.1799 0.00286531 0.919349)
(34.6128 0.00726368 0.977851)
(34.0365 0.012837 1.09538)
(33.4592 0.0101619 1.17893)
(32.8335 0.00256245 1.20976)
(32.0857 -0.0108385 1.10664)
(31.3581 -0.0330158 0.783576)
(30.8497 -0.0767695 0.324764)
(31.1152 -0.106249 -0.39664)
(32.6369 -0.0292403 -1.62277)
(34.9387 0.0717143 -2.47237)
(36.7219 0.122374 -2.89635)
(38.3536 0.0486176 -2.69632)
(39.5725 -0.0760166 -2.37203)
(40.3466 -0.436903 -1.69398)
(40.753 -0.590422 -1.02774)
(41.2046 -0.445221 -0.382383)
(42.2203 -0.497663 0.0805448)
(42.4087 -0.448139 1.20837)
(42.6316 -0.327388 2.49587)
(42.4144 -0.269065 2.98872)
(42.2085 -0.277353 3.29393)
(42.2393 -0.324878 3.86985)
(42.4646 -0.347305 3.21006)
(42.5362 -0.435758 3.66976)
(43.7426 -0.730613 4.78055)
(44.8785 -0.984971 4.61688)
(41.2681 -1.13602 5.26321)
(35.9877 -1.94424 13.8862)
(22.9055 -0.229445 1.84309)
(-42.8594 7.40783 -23.5591)
(-3.24102 0.0318373 -24.1814)
(40.0065 0.0015933 0.0274664)
(39.9941 0.00301706 0.0779097)
(40.0013 0.00699683 0.120574)
(39.9956 0.0083617 0.16391)
(39.9534 0.00760927 0.206936)
(39.8785 0.00577956 0.249769)
(39.7796 0.00351529 0.293387)
(39.664 0.00139541 0.338136)
(39.5372 -0.000154225 0.384563)
(39.4025 -0.000858481 0.433404)
(39.2594 -0.000786123 0.485673)
(39.1058 4.64966e-05 0.542943)
(38.9353 0.00148382 0.607573)
(38.7493 0.00281962 0.680041)
(38.5145 0.00505204 0.776824)
(38.3113 0.00660882 0.86275)
(37.8676 -0.00146325 0.969429)
(37.6118 -0.000994846 1.37247)
(37.1233 0.00333103 1.5766)
(36.7914 0.00542929 1.54634)
(36.4843 0.00631102 1.44675)
(36.1186 0.00624226 1.38886)
(35.6929 0.0073693 1.44164)
(35.1923 0.0114026 1.60742)
(34.6289 0.0136805 1.81589)
(33.9892 0.013403 1.95589)
(33.2175 0.00404017 2.00496)
(32.2584 -0.0272088 1.91473)
(31.3322 -0.101323 1.31081)
(31.0575 -0.120925 -0.0581796)
(31.5502 -0.0495545 -2.1696)
(32.7367 0.0341748 -4.07078)
(33.7113 0.146245 -4.86199)
(34.1281 0.282933 -4.92703)
(34.3034 0.296338 -4.88934)
(34.5418 -0.0695167 -3.75025)
(34.351 -0.584818 -1.97101)
(33.9031 -0.850734 -1.03628)
(33.6769 -1.04254 -0.293918)
(33.3881 -0.801026 1.01629)
(32.4876 -0.173995 2.99306)
(32.1766 -0.0375646 4.62621)
(32.4421 -0.130229 4.83736)
(32.9741 -0.176837 5.13692)
(34.1375 -0.310745 5.16007)
(35.5805 -0.404871 5.25123)
(37.2295 -0.634419 5.24079)
(39.8802 -0.875034 5.17047)
(42.1101 -1.56311 4.50412)
(46.5739 -2.74351 6.93422)
(52.7332 -2.26458 16.2515)
(70.0393 -2.40721 23.9602)
(74.9575 -1.91389 24.5226)
(72.7435 -5.34149 9.93052)
(40.0092 0.00159313 0.0274099)
(39.9966 0.0030184 0.0778705)
(40.0014 0.0069985 0.120332)
(39.9907 0.00836346 0.163544)
(39.945 0.00761059 0.206509)
(39.8684 0.00578021 0.249328)
(39.7691 0.00351529 0.293001)
(39.654 0.00139524 0.337908)
(39.5284 -0.000155503 0.384692)
(39.395 -0.000861094 0.434088)
(39.2531 -0.000788584 0.487324)
(39.1005 4.43321e-05 0.546)
(38.9307 0.00145944 0.612214)
(38.744 0.00291067 0.688573)
(38.5153 0.00477505 0.781035)
(38.2753 0.00718552 0.873904)
(37.8755 -0.0014785 0.976464)
(37.616 -0.002153 1.3644)
(37.1092 0.00315535 1.59336)
(36.777 0.00537931 1.55942)
(36.4678 0.00645355 1.45288)
(36.0972 0.00659538 1.39155)
(35.6668 0.0082876 1.44148)
(35.1581 0.0141983 1.6167)
(34.5674 0.0174836 1.82406)
(33.9003 0.0196844 1.98359)
(33.0629 0.0129383 2.11045)
(32.0103 -0.0137627 2.07102)
(30.8757 -0.0644178 1.61164)
(30.0377 -0.104401 0.440269)
(30.4258 -0.051685 -1.79242)
(31.8959 0.0437836 -3.89584)
(33.1203 0.146669 -4.79896)
(34.2029 0.254679 -4.87297)
(35.0217 0.266554 -4.60381)
(35.579 0.169269 -3.67011)
(35.3186 -0.319072 -2.73086)
(34.9835 -0.677583 -2.17941)
(34.8646 -0.832032 -1.892)
(36.0964 -1.06476 -2.23234)
(34.8571 -0.448097 0.170357)
(35.0402 -0.36778 2.59557)
(34.8602 -0.364392 3.06633)
(34.9896 -0.231817 3.18351)
(35.3267 -0.23108 3.86297)
(36.0663 -0.137313 4.19926)
(37.2085 -0.330395 4.41455)
(39.1868 -0.640663 4.93139)
(41.1046 -1.31483 4.56025)
(44.5962 -2.86662 7.08232)
(48.9348 -2.02446 13.1738)
(65.9452 -1.6437 19.5752)
(76.1578 -0.813202 29.1518)
(70.9074 -4.13542 2.669)
(40.006 0.00156367 0.0349647)
(39.9935 0.00305009 0.102435)
(40.0016 0.00692144 0.164928)
(39.9981 0.00825115 0.23328)
(39.9578 0.00749636 0.3038)
(39.8834 0.00565926 0.37549)
(39.7823 0.00338008 0.449233)
(39.6611 0.00124275 0.525032)
(39.5246 -0.000289055 0.602977)
(39.3758 -0.000932947 0.683306)
(39.2145 -0.000647179 0.76651)
(39.0383 0.000546688 0.85381)
(38.8434 0.00242246 0.946855)
(38.6268 0.0048342 1.04949)
(38.3795 0.00673107 1.16565)
(38.1039 0.00846516 1.28479)
(37.7275 -0.000209618 1.4634)
(37.4521 0.00294107 1.69338)
(37.0229 0.00243747 1.79295)
(36.7529 0.00417743 1.75065)
(36.4956 0.00576564 1.70448)
(36.151 0.0060912 1.7445)
(35.6926 0.00877289 1.91313)
(35.1176 0.0115227 2.18578)
(34.4604 0.00682962 2.52583)
(33.6784 0.00216325 2.85937)
(32.6215 -0.0118294 3.21848)
(31.3026 -0.0410095 3.35602)
(30.0024 -0.0725223 2.57858)
(29.3023 -0.0577572 0.23603)
(29.3165 0.00938722 -2.83294)
(29.3985 0.0652219 -4.76576)
(29.0745 0.143302 -5.32633)
(28.4977 0.249222 -5.46456)
(28.4085 0.212818 -5.1593)
(28.5298 -0.240928 -2.87402)
(28.1279 -0.989383 -0.472535)
(27.9316 -1.33958 -0.181048)
(27.635 -1.70942 1.83721)
(27.6988 -1.01176 3.22523)
(27.1953 -0.0862073 4.03417)
(26.8642 0.120763 5.59635)
(27.032 0.135794 4.97987)
(27.3273 0.120481 5.40755)
(27.7865 0.18853 5.53004)
(28.7793 0.181224 5.0405)
(29.1882 -0.343408 4.10706)
(30.5598 -0.233672 3.48002)
(32.7393 -1.01063 2.46053)
(35.6205 -2.01928 1.50974)
(43.6477 -2.01391 3.21576)
(56.3284 -2.48547 6.07478)
(68.1589 -3.92388 4.35173)
(73.5228 -4.18242 -6.68382)
(40.0086 0.0015635 0.0349113)
(39.9959 0.00305138 0.102468)
(40.0016 0.00692313 0.164856)
(39.9932 0.00825298 0.233156)
(39.9495 0.00749776 0.303688)
(39.8734 0.00565997 0.375427)
(39.7719 0.00338021 0.449246)
(39.6514 0.00124244 0.525154)
(39.5163 -0.00028998 0.60327)
(39.3692 -0.000934354 0.683828)
(39.2095 -0.000650066 0.767436)
(39.0349 0.000544594 0.85524)
(38.841 0.00241855 0.948877)
(38.6242 0.0048316 1.05247)
(38.3767 0.0067286 1.16957)
(38.088 0.0085875 1.29332)
(37.7039 -0.000531889 1.46003)
(37.4365 0.00292765 1.74478)
(37.0135 0.00217411 1.82932)
(36.7427 0.0039256 1.77097)
(36.4766 0.0057253 1.72236)
(36.118 0.00621936 1.76482)
(35.631 0.00889645 1.94644)
(35.0447 0.0116658 2.25368)
(34.3958 0.00762909 2.58137)
(33.5929 0.00491105 2.94983)
(32.4544 -0.00889898 3.43211)
(31.0558 -0.0388361 3.6039)
(29.7069 -0.0648821 2.84588)
(28.9339 -0.0443784 0.499852)
(29.1506 0.0149967 -2.67761)
(29.3857 0.0646858 -4.56575)
(29.2313 0.132606 -4.86223)
(28.8138 0.231218 -4.60523)
(28.8176 0.261658 -4.74935)
(29.604 0.00502466 -3.85808)
(29.4446 -0.71745 -3.13035)
(28.8016 -1.36786 -2.90541)
(28.5403 -1.68582 -2.27216)
(28.2283 -1.51907 -2.03493)
(27.2358 -0.365239 3.06926)
(26.5395 0.0605473 5.02285)
(26.2779 0.0803305 3.81709)
(26.8127 -0.0310598 3.52089)
(26.6566 0.0516589 5.25915)
(27.2286 0.227867 4.92581)
(28.094 -0.294842 5.11312)
(28.8972 -0.470978 4.43004)
(30.9006 -1.09415 2.87112)
(31.751 -1.28212 0.439035)
(36.089 -1.15458 0.0305994)
(42.9658 -1.60777 0.0653221)
(49.0915 -3.87481 -8.40858)
(44.1437 -1.10541 -21.7591)
(40.0059 0.00154175 0.0433956)
(39.9941 0.00306142 0.128302)
(40.0026 0.00694007 0.206429)
(39.9993 0.008253 0.29094)
(39.9597 0.00750202 0.376566)
(39.8864 0.00569673 0.462479)
(39.7873 0.0034755 0.550667)
(39.6691 0.00142213 0.642034)
(39.537 -1.33531e-08 0.737511)
(39.3942 -0.000519272 0.838055)
(39.2408 -7.99108e-05 0.944602)
(39.0745 0.00124386 1.05808)
(38.8916 0.00330614 1.17912)
(38.6885 0.00596808 1.30807)
(38.4608 0.00861626 1.44568)
(38.1989 0.00956505 1.59588)
(37.8763 0.0106154 1.73845)
(37.5586 0.00469629 2.03499)
(37.2044 0.0146254 2.06955)
(36.8256 0.00370686 2.05858)
(36.5085 0.000184388 2.02057)
(36.0848 -0.00150111 2.14512)
(35.5238 0.00717386 2.49243)
(34.8181 0.0115197 2.90647)
(34.0383 0.00233439 3.38125)
(33.129 -0.00235019 3.94405)
(31.906 -0.00340849 4.60899)
(30.5228 -0.00958055 4.82065)
(29.1888 -0.00617211 3.61482)
(28.1105 0.0113296 0.681098)
(27.1571 0.0343983 -2.35535)
(25.9792 0.0759676 -4.00103)
(24.542 0.153118 -4.59706)
(23.2743 0.290319 -5.23051)
(22.9961 0.421648 -5.35262)
(21.4791 -0.121449 -2.23445)
(21.2942 -1.13059 3.36789)
(21.287 -1.11839 3.61819)
(22.5936 -1.65793 3.63313)
(23.3413 -1.15179 3.69019)
(23.429 -0.222633 3.73593)
(23.7653 -0.111716 5.60463)
(24.0994 -0.102347 5.47838)
(24.1501 -0.0148536 5.35644)
(23.4894 0.0821737 5.76971)
(22.6747 0.329814 5.57135)
(22.6767 0.975836 4.28461)
(25.0689 0.904182 3.19539)
(25.6844 0.00384842 3.64144)
(27.5591 -0.298864 1.93942)
(29.2415 0.652044 1.59795)
(32.6725 0.0455827 2.85724)
(51.274 -4.567 3.0645)
(47.947 -7.79934 -3.62145)
(40.0085 0.00154159 0.0433252)
(39.9965 0.00306271 0.128343)
(40.0026 0.00694173 0.206303)
(39.9945 0.00825484 0.290762)
(39.9514 0.00750352 0.376465)
(39.8765 0.00569761 0.462547)
(39.7771 0.00347583 0.550977)
(39.6596 0.00142203 0.642639)
(39.529 -6.99835e-07 0.738441)
(39.3879 -0.000520539 0.839298)
(39.2362 -8.2267e-05 0.94611)
(39.0714 0.00124166 1.05971)
(38.8896 0.00330728 1.18077)
(38.6874 0.00597009 1.30967)
(38.4563 0.00864796 1.44826)
(38.197 0.00960597 1.5958)
(37.8615 0.0103382 1.7572)
(37.6119 0.00846662 2.00095)
(37.2386 0.0161841 2.09974)
(36.8275 0.0040331 2.1166)
(36.4817 0.00150701 2.09592)
(36.0232 0.000880141 2.24366)
(35.4007 0.00636133 2.58699)
(34.7105 0.0100573 2.98115)
(33.9713 0.00200752 3.41128)
(33.0058 -0.00321555 4.05111)
(31.8095 -0.00528382 4.76089)
(30.5359 -0.0086745 4.85945)
(29.3032 -0.00513561 3.60873)
(28.2844 0.0102563 0.775348)
(27.3909 0.0317262 -2.22785)
(26.3098 0.0714053 -3.84257)
(25.1518 0.138027 -4.19949)
(24.3201 0.296932 -4.45492)
(24.4115 0.69808 -4.94437)
(25.3256 -0.047725 -4.05775)
(25.5366 0.242078 -4.045)
(25.0486 0.577948 -4.09779)
(24.7025 0.442267 -4.0837)
(23.6223 0.0125035 -1.52579)
(22.6417 -0.0334901 3.0805)
(21.949 -0.128657 5.26981)
(22.4822 -0.131032 4.08195)
(22.1541 -0.14256 4.65951)
(21.6587 0.0123581 5.31233)
(21.3383 0.191991 5.34565)
(21.7671 0.455316 4.82164)
(23.0611 0.55172 3.63378)
(24.373 0.671768 2.72176)
(26.2867 0.6643 -0.360799)
(23.873 -0.0329884 1.14884)
(31.8902 0.608689 2.52324)
(4.30737 -2.58897 -2.04233)
(-5.86084 3.2252 -8.77508)
(40.0059 0.00149579 0.0516529)
(39.9947 0.00310439 0.153712)
(40.0036 0.00681115 0.246744)
(40.0012 0.00808727 0.348138)
(39.9636 0.0073985 0.451849)
(39.8936 0.00570557 0.557148)
(39.7989 0.00363531 0.666684)
(39.6862 0.00175553 0.781548)
(39.5607 0.000510498 0.902644)
(39.4254 0.000141929 1.03064)
(39.2804 0.000665747 1.16589)
(39.1231 0.00197417 1.3084)
(38.9488 0.00379286 1.45736)
(38.7542 0.00624255 1.61236)
(38.5338 0.00832923 1.77008)
(38.2925 0.0112355 1.94161)
(38.0267 0.0118805 2.10631)
(37.7532 0.0102158 2.37686)
(37.5054 0.0155604 2.44983)
(37.1021 0.00444601 2.49852)
(36.6807 -0.000261885 2.53389)
(36.1097 -0.0170036 2.72341)
(35.5811 -0.005012 3.08643)
(34.8136 0.00568207 3.67586)
(33.918 -0.0051276 4.31899)
(32.9285 -0.00387607 5.08252)
(31.6986 0.0173519 5.93996)
(30.3752 0.0366832 6.20329)
(28.9501 0.0494133 4.96085)
(27.2792 0.0552739 2.18278)
(25.3295 0.065738 -0.660025)
(23.1195 0.12889 -2.24061)
(20.5764 0.28453 -2.90784)
(18.314 0.700232 -3.77576)
(16.127 1.29088 -3.06464)
(-9.01055 -0.011356 0.916752)
(3.0154 -1.42171 1.98582)
(1.82784 -2.05419 -7.14503)
(7.03069 -2.48486 -2.80046)
(15.1715 -1.78386 -0.843092)
(18.1728 -0.46638 1.32262)
(18.9687 -0.926443 4.81264)
(20.6431 -1.1152 5.861)
(21.1621 -0.591259 5.42626)
(21.3493 -0.154913 5.32402)
(20.4475 0.0486024 5.20051)
(20.6376 0.862943 4.69854)
(21.7777 0.985598 4.82325)
(23.074 1.14165 4.85602)
(23.9052 2.06266 1.99213)
(21.9646 3.57943 -3.41271)
(16.4503 3.11478 -7.78448)
(29.5747 0.908024 -2.45964)
(19.5978 -5.19787 -8.15477)
(40.0084 0.00149564 0.0515672)
(39.997 0.00310556 0.153723)
(40.0036 0.00681272 0.246594)
(39.9965 0.00808926 0.347963)
(39.9556 0.00739944 0.451806)
(39.8841 0.00570479 0.557352)
(39.7891 0.00363398 0.667219)
(39.6771 0.00175369 0.782464)
(39.5531 0.000508173 0.903942)
(39.4194 0.000138842 1.03226)
(39.2759 0.000662451 1.1677)
(39.1198 0.00196925 1.31015)
(38.9465 0.00380132 1.45892)
(38.7521 0.00621738 1.61299)
(38.532 0.00844495 1.77167)
(38.2897 0.0110344 1.93966)
(38.0193 0.0122817 2.11779)
(37.7518 0.00903415 2.36176)
(37.5312 0.0183422 2.56166)
(37.1845 -0.00393639 2.591)
(36.667 0.00217971 2.66947)
(36.1411 -0.0107696 2.82911)
(35.536 -0.00418104 3.18759)
(34.7092 0.00473635 3.75891)
(33.7928 -0.00610501 4.35211)
(32.7944 -0.00288933 5.15273)
(31.7026 0.0165438 5.96175)
(30.5582 0.0325634 6.14554)
(29.2278 0.0446236 4.96668)
(27.6031 0.0510922 2.30061)
(25.7378 0.0620743 -0.557423)
(23.7568 0.121026 -2.09378)
(21.8769 0.267939 -2.56114)
(20.586 0.879947 -3.08896)
(21.1513 3.62469 -3.99665)
(20.568 3.37445 -4.54439)
(18.4217 3.40354 -3.52813)
(13.7447 2.57186 -3.5894)
(12.2825 2.31069 -3.8945)
(14.9694 1.69209 -0.762717)
(16.8644 0.573057 1.9726)
(18.76 -0.3347 3.22519)
(18.608 -0.92402 4.12938)
(17.8081 -0.785142 5.57042)
(17.2873 -0.699281 6.77329)
(16.8702 -0.490785 6.44832)
(19.2646 1.13296 4.34645)
(21.5831 0.913007 3.28125)
(21.7347 0.184367 3.18508)
(21.4684 0.976616 2.54027)
(24.5037 3.22729 2.33328)
(32.3868 9.06638 -2.28862)
(45.8412 3.40962 8.04461)
(36.4522 0.0704738 6.43363)
(40.0057 0.00145898 0.0596325)
(39.9955 0.00308899 0.178665)
(40.0057 0.00680593 0.286624)
(40.005 0.00809034 0.405008)
(39.9704 0.00745705 0.526704)
(39.9048 0.00587034 0.650717)
(39.8155 0.00394356 0.780096)
(39.7093 0.00222861 0.91599)
(39.5911 0.00114438 1.05925)
(39.4635 0.000904645 1.21034)
(39.3263 0.00149445 1.36928)
(39.1764 0.00276226 1.53567)
(39.009 0.00445707 1.70856)
(38.8203 0.00665962 1.88762)
(38.608 0.00896356 2.07172)
(38.3777 0.0122459 2.26568)
(38.1337 0.014356 2.46775)
(37.887 0.0188071 2.68885)
(37.6377 0.0174744 2.91525)
(37.3319 0.0211853 3.05634)
(36.9533 0.0310366 3.21477)
(36.2913 -0.0169542 3.58304)
(35.9625 -0.0380442 3.78625)
(35.2598 -0.000181036 4.4096)
(34.2822 -0.0176282 5.2989)
(33.2612 -0.0198041 6.24231)
(32.1613 0.0290195 7.22653)
(30.9457 0.0822393 7.63155)
(29.3936 0.0833277 6.6167)
(27.1513 0.0806042 4.22634)
(24.4311 0.104404 1.80665)
(21.5641 0.18275 0.441751)
(18.2356 0.423201 0.181816)
(15.8429 1.14903 0.845348)
(-7.01046 0.443576 2.55315)
(-8.06953 -0.020036 0.773684)
(-7.72586 -0.401112 -1.13446)
(-2.35058 -1.50687 -14.0161)
(1.62384 -0.85282 -11.92)
(2.94673 -1.19504 -7.36101)
(12.7189 -1.97741 -2.38148)
(15.1239 -1.75826 2.37345)
(14.7159 -0.998014 3.66402)
(15.7362 -1.20215 4.70117)
(14.7843 -1.71419 7.36689)
(16.0537 -0.197618 7.5199)
(17.8963 1.31349 8.35914)
(17.2368 1.09614 7.71584)
(23.3948 1.65869 7.38463)
(17.2141 4.89817 0.207798)
(1.27054 6.32392 -13.0821)
(-18.0041 2.71571 -13.2571)
(-24.8526 -0.00121748 -1.66631)
(-23.008 -0.527784 8.94756)
(40.0081 0.00145882 0.0595396)
(39.9978 0.00309015 0.17871)
(40.0057 0.00680746 0.286488)
(40.0004 0.00809233 0.40485)
(39.9627 0.00745812 0.526704)
(39.8957 0.00586982 0.650991)
(39.8062 0.00394256 0.780722)
(39.7008 0.00222713 0.916994)
(39.5839 0.00114245 1.0606)
(39.4579 0.000902333 1.21195)
(39.3221 0.00149153 1.371)
(39.1732 0.00276031 1.53733)
(39.0065 0.00445982 1.71009)
(38.8183 0.00665636 1.88878)
(38.607 0.00899795 2.07361)
(38.376 0.012225 2.26792)
(38.133 0.014483 2.47483)
(37.8827 0.0186812 2.70122)
(37.638 0.0176331 2.93474)
(37.3553 0.0235377 3.12672)
(36.9102 0.0304825 3.31457)
(36.3593 0.0032905 3.61638)
(35.5195 -0.043903 4.11314)
(35.1727 -0.0041958 4.53908)
(34.137 -0.0169964 5.26582)
(33.0901 -0.0176207 6.21488)
(32.0731 0.0328116 7.11762)
(31.106 0.073421 7.52127)
(29.6877 0.0762331 6.74367)
(27.5854 0.0746396 4.45292)
(25.0161 0.101672 1.83824)
(22.4579 0.177415 0.381898)
(20.1696 0.460384 0.0143851)
(18.7946 1.9909 0.426475)
(20.3335 5.55862 2.46085)
(-7.28841 -0.106072 0.822522)
(2.76584 1.73101 0.787361)
(-1.98377 0.463125 -7.7314)
(-2.46181 0.487502 -12.547)
(-0.890662 1.69799 -9.33499)
(5.38533 1.426 -6.27435)
(8.50618 1.42721 -4.38526)
(10.6382 0.778917 -0.425442)
(11.5146 -0.250113 3.52596)
(11.0568 -1.32831 6.19982)
(11.1562 -0.998156 6.46019)
(14.4444 1.15099 4.73087)
(16.9024 1.30319 4.4108)
(20.4469 1.57531 4.76498)
(24.0732 3.99252 2.30829)
(23.4707 8.9 -0.686761)
(26.2156 11.278 1.60432)
(44.8422 3.715 6.29802)
(21.6786 3.69206 0.751569)
(40.0057 0.00140655 0.0672965)
(39.9968 0.00316747 0.202907)
(40.0087 0.00669164 0.325241)
(40.0106 0.00794292 0.459887)
(39.9799 0.00739475 0.598776)
(39.9198 0.00594698 0.740685)
(39.8373 0.00418926 0.889111)
(39.7389 0.00264422 1.0453)
(39.6292 0.00170075 1.21013)
(39.5105 0.00154193 1.38398)
(39.3821 0.00214708 1.5668)
(39.2406 0.00335659 1.75824)
(39.0814 0.00501283 1.95779)
(38.9011 0.00714721 2.16558)
(38.6992 0.00988667 2.38188)
(38.4802 0.0137064 2.60877)
(38.2508 0.0183365 2.8467)
(38.0151 0.0246251 3.09627)
(37.7646 0.0288664 3.35119)
(37.4949 0.0358639 3.61634)
(37.1568 0.0394771 3.91002)
(36.7579 0.0393576 4.30525)
(36.1286 0.0107392 4.73412)
(35.767 -0.00201023 5.27084)
(35.0406 -0.0410321 6.19991)
(34.0946 -0.0400048 7.26553)
(33.1961 0.0213328 8.21319)
(32.2873 0.114949 8.94732)
(30.9147 0.179198 8.8159)
(28.2595 0.15557 7.01468)
(25.1643 0.104836 4.47275)
(22.2019 0.1172 2.97989)
(19.4693 0.249492 3.24488)
(17.8699 0.922659 6.19596)
(12.6952 1.48281 13.0478)
(-5.80171 -0.0979077 0.664481)
(5.77258 -4.0086 -7.50153)
(1.86859 -2.44891 -10.3109)
(-0.183135 -0.763831 -11.8252)
(-2.15129 0.16973 -3.89241)
(-3.00309 -1.12699 4.02696)
(-2.17252 -2.73278 6.86634)
(-2.33562 -3.71016 8.57313)
(-2.25495 -4.80584 9.46623)
(-2.78997 -5.31749 9.54151)
(10.3122 0.591072 3.09362)
(11.0931 2.90996 1.18397)
(7.90847 2.01311 1.38019)
(15.99 1.19694 2.61004)
(19.4199 1.47643 2.51669)
(27.2507 2.60062 4.73068)
(11.306 3.37811 -1.68003)
(-12.0531 -1.63125 -8.19984)
(32.255 -1.18613 -0.512554)
(40.0079 0.00140641 0.0671999)
(39.999 0.00316847 0.202954)
(40.0086 0.0066932 0.325123)
(40.0061 0.00794493 0.459764)
(39.9725 0.00739684 0.598828)
(39.911 0.00594874 0.741028)
(39.8284 0.00419101 0.889814)
(39.7307 0.00264429 1.04638)
(39.6223 0.00169853 1.21154)
(39.5051 0.00153918 1.38563)
(39.378 0.00214399 1.56858)
(39.2374 0.0033534 1.76003)
(39.079 0.00501024 1.95961)
(38.8996 0.00714804 2.16745)
(38.6992 0.00988743 2.38436)
(38.482 0.01373 2.61234)
(38.2547 0.0183489 2.85292)
(38.0186 0.0246768 3.10577)
(37.7691 0.0288927 3.36805)
(37.4983 0.0364724 3.63317)
(37.1408 0.0395503 3.93735)
(36.7471 0.041184 4.32439)
(36.0847 0.0176759 4.92282)
(35.8278 0.0111545 5.29952)
(34.8891 -0.0237039 6.09695)
(33.8534 -0.0397762 7.17873)
(32.8774 0.0162982 8.11357)
(32.0213 0.109517 8.88838)
(30.9372 0.155836 8.74654)
(28.9969 0.125265 7.17884)
(26.0108 0.097401 4.69613)
(22.9985 0.121373 2.92095)
(20.7175 0.266312 2.70038)
(18.5201 1.75212 4.66257)
(22.2122 4.44523 10.5501)
(17.0742 1.95225 9.89282)
(15.8634 1.31746 6.63734)
(9.74583 -0.17499 -1.60497)
(2.58966 -0.0492418 -10.4322)
(-3.07795 2.29292 -6.84998)
(7.73857 2.27539 -7.16556)
(3.50702 1.2722 -1.86174)
(0.271864 0.31967 3.0578)
(-3.27225 -1.24301 6.92376)
(-0.742945 -1.27041 6.21352)
(2.65284 -1.26913 5.79734)
(-1.18465 -2.62594 7.95069)
(4.35722 0.531682 4.55203)
(13.201 1.60139 4.47351)
(19.4781 1.67509 6.76922)
(23.2174 3.31476 8.09948)
(28.2378 6.96905 6.09367)
(36.2189 3.73526 2.76899)
(41.568 4.29198 0.962738)
(40.0054 0.00136631 0.074528)
(39.9983 0.00315526 0.225914)
(40.0125 0.00670553 0.361968)
(40.0175 0.00797777 0.512132)
(39.9918 0.00749966 0.66751)
(39.9382 0.00617129 0.8267)
(39.8637 0.00456263 0.99362)
(39.7744 0.00317525 1.16962)
(39.6746 0.00237524 1.35563)
(39.5662 0.00232575 1.55209)
(39.4482 0.00300134 1.75909)
(39.3172 0.00424715 1.97651)
(39.1689 0.00594896 2.20438)
(39.0002 0.00815496 2.44313)
(38.8114 0.0111532 2.69336)
(38.6068 0.0154108 2.95607)
(38.392 0.0208933 3.23043)
(38.1708 0.0278574 3.51743)
(37.9376 0.0346661 3.8145)
(37.6868 0.0426761 4.13603)
(37.3976 0.0502294 4.48793)
(37.0672 0.0507685 4.92504)
(36.7251 0.0667386 5.47803)
(36.0886 0.041269 6.14639)
(35.8938 -0.0788192 7.0106)
(35.0611 -0.046212 8.05723)
(34.2993 0.0363179 9.01006)
(33.8502 0.0250882 9.6889)
(33.2357 0.193521 10.3292)
(31.5883 0.400779 9.96808)
(28.3657 0.275551 7.73463)
(23.8242 0.0838624 5.51917)
(20.5569 0.113451 5.22652)
(18.3844 0.717885 7.2216)
(19.7745 1.48861 14.3708)
(13.7439 -0.181089 8.99142)
(14.1831 -2.68443 3.29037)
(9.92394 -3.15164 -4.2139)
(6.89745 -2.10057 -9.40298)
(2.71618 -0.019971 -9.58233)
(-9.3956 0.662134 2.359)
(-12.2024 -1.47391 10.6263)
(-12.6508 -1.78361 12.1582)
(-15.036 -2.76492 13.9443)
(-16.6162 -4.39401 12.9848)
(-11.8317 -3.81106 9.48459)
(1.43687 -0.513929 3.62862)
(14.4439 1.5005 -0.544398)
(23.4404 2.64318 -2.05683)
(27.682 1.75553 1.16891)
(35.2997 0.706584 5.7662)
(36.7858 0.862532 7.53752)
(37.6123 -0.376401 1.85791)
(33.3018 2.65792 -4.67203)
(40.0075 0.00136617 0.0744352)
(40.0005 0.00315626 0.226006)
(40.0124 0.00670708 0.361908)
(40.0132 0.00797981 0.512079)
(39.9847 0.0075019 0.667653)
(39.9299 0.00617337 0.827156)
(39.8552 0.0045649 0.994456)
(39.7667 0.00317603 1.17085)
(39.6682 0.00237399 1.35721)
(39.5612 0.00232382 1.55396)
(39.4444 0.003 1.76117)
(39.3143 0.00424315 1.97878)
(39.1668 0.00594331 2.20688)
(38.9993 0.00815424 2.44594)
(38.8124 0.0111506 2.69678)
(38.6101 0.0154175 2.9601)
(38.3979 0.0209123 3.23608)
(38.1777 0.0279027 3.52374)
(37.9455 0.0347863 3.82517)
(37.696 0.0427455 4.14479)
(37.4011 0.0508176 4.49865)
(37.0714 0.053317 4.929)
(36.6613 0.0568029 5.49503)
(36.2537 0.044661 6.11977)
(35.6414 0.0502969 6.97204)
(34.9181 -0.0289617 8.00247)
(34.2592 -0.108916 8.83784)
(33.2802 0.0233553 9.84346)
(32.4136 0.26305 10.3641)
(31.3883 0.324386 9.86216)
(29.1923 0.256843 8.26516)
(25.5591 0.163488 6.11752)
(21.6198 0.115024 4.9145)
(18.8469 0.561749 5.83266)
(21.306 2.33624 10.6368)
(23.5909 2.51626 11.4618)
(22.1974 1.69927 8.35045)
(17.2104 0.611474 3.1858)
(7.85308 -0.703732 -4.1453)
(-9.32603 0.998708 -0.844473)
(-9.82239 2.1762 5.99465)
(-13.211 1.70299 9.67946)
(-18.1351 0.641845 12.4025)
(-21.3457 -1.37436 12.4574)
(-19.0582 -2.41077 9.02775)
(-19.11 -5.08604 10.329)
(-15.0007 -6.30343 9.37413)
(-6.55618 -3.90516 5.9494)
(4.03433 -0.679108 4.30638)
(12.6437 0.779051 4.42524)
(20.4849 1.30366 4.74756)
(27.3531 2.46687 5.37588)
(40.1361 2.69725 5.7587)
(40.5571 5.14415 2.38037)
(40.0053 0.00131832 0.0812677)
(40.0001 0.00327917 0.247469)
(40.0172 0.00664976 0.396409)
(40.0263 0.00790195 0.561154)
(40.0065 0.00752949 0.732121)
(39.9607 0.0063626 0.907739)
(39.8956 0.00494349 1.09234)
(39.817 0.00374373 1.28741)
(39.7287 0.00310472 1.49402)
(39.6325 0.0031857 1.71282)
(39.5269 0.00395949 1.94413)
(39.4088 0.00531778 2.18815)
(39.274 0.00716804 2.44519)
(39.1197 0.00958811 2.71572)
(38.9464 0.0129562 3.00014)
(38.7569 0.0174066 3.29811)
(38.5575 0.0237701 3.60786)
(38.3513 0.0306591 3.92837)
(38.1404 0.0391003 4.25696)
(37.9238 0.0462805 4.61093)
(37.696 0.0493836 4.9855)
(37.4593 0.0508559 5.43195)
(37.2643 0.0333059 6.041)
(36.9481 0.064016 6.71833)
(36.6335 0.0358183 7.67469)
(36.1065 -0.0210136 8.7799)
(35.4954 -0.0328534 9.44181)
(34.7904 -0.0110274 10.4013)
(34.1152 0.102733 11.2834)
(33.2111 0.253594 11.977)
(31.5941 0.302618 11.8883)
(28.257 0.236574 10.8854)
(24.0076 0.202428 8.68106)
(20.2833 0.223661 7.20585)
(20.5378 0.80271 10.3468)
(19.8424 0.436602 9.92434)
(18.3402 -0.828678 5.13621)
(15.2405 -1.75407 0.219323)
(11.7424 -1.79953 -2.99201)
(8.97042 -1.85634 -3.59636)
(4.23915 -1.37929 -1.17174)
(2.68015 -1.02625 4.0901)
(6.2707 -0.269295 4.57859)
(9.759 1.01068 4.72774)
(11.3324 1.65765 3.13139)
(11.483 0.757053 -0.383914)
(10.6862 -1.60294 -3.03293)
(10.814 -2.79263 -3.42109)
(14.36 -2.61375 -1.94131)
(20.0111 -2.34815 -1.19924)
(27.1086 -2.42544 -0.865199)
(32.0094 -1.78013 -2.2695)
(40.4301 -1.3363 -4.60573)