/*--------------------------------*- C++ -*----------------------------------*\
| =========                 |                                                 |
| \\      /  F ield         | OpenFOAM: The Open Source CFD Toolbox           |
|  \\    /   O peration     | Version:  4.1                                   |
|   \\  /    A nd           | Web:      www.OpenFOAM.org                      |
|    \\/     M anipulation  |                                                 |
\*---------------------------------------------------------------------------*/
FoamFile
{
    version     2.0;
    format      ascii;
    class       volScalarField;
    location    "84";
    object      p;
}
// * * * * * * * * * * * * * * * * * * * * * * * * * * * * * * * * * * * * * //

dimensions      [0 2 -2 0 0 0 0];

internalField   nonuniform List<scalar> 
4432
(
100974
100975
100976
100978
100980
100983
100987
100992
100997
101003
101010
101017
101025
101033
101042
101050
101056
101060
101065
101074
101089
101107
101125
101145
101168
101192
101214
101232
101246
101257
101267
101276
101288
101305
101320
101328
101332
101338
101345
101350
101354
101356
101358
101360
101360
101359
101356
101354
101352
101346
101338
101332
101328
101324
100974
100975
100976
100978
100980
100983
100987
100992
100997
101003
101010
101017
101025
101034
101042
101050
101056
101060
101064
101073
101090
101108
101126
101147
101169
101193
101215
101232
101246
101259
101270
101279
101290
101304
101318
101327
101332
101338
101345
101350
101354
101356
101357
101359
101360
101360
101356
101352
101351
101347
101339
101333
101326
101324
100973
100973
100974
100976
100978
100981
100985
100989
100995
101001
101007
101015
101023
101033
101044
101056
101072
101090
101104
101113
101124
101139
101155
101169
101184
101199
101215
101231
101247
101262
101274
101284
101292
101298
101305
101311
101319
101330
101342
101351
101353
101352
101355
101359
101360
101359
101357
101355
101352
101350
101345
101335
101314
101325
100973
100973
100974
100976
100978
100981
100985
100989
100995
101001
101007
101015
101023
101033
101043
101056
101072
101091
101104
101113
101124
101138
101153
101167
101181
101197
101213
101229
101245
101259
101270
101278
101286
101298
101308
101314
101322
101332
101343
101351
101354
101353
101356
101359
101361
101360
101358
101355
101354
101352
101345
101332
101310
101326
100971
100972
100973
100975
100977
100980
100984
100988
100994
101000
101006
101014
101022
101032
101042
101055
101068
101080
101091
101104
101120
101136
101151
101166
101180
101197
101215
101233
101251
101268
101279
101289
101300
101312
101315
101315
101323
101337
101351
101361
101360
101356
101360
101364
101365
101363
101360
101355
101350
101346
101344
101337
101329
101328
100971
100972
100973
100975
100977
100980
100984
100988
100994
101000
101006
101014
101022
101032
101042
101054
101068
101080
101091
101104
101119
101135
101150
101164
101179
101196
101214
101231
101249
101266
101278
101286
101295
101307
101316
101319
101326
101338
101349
101359
101361
101358
101360
101365
101365
101363
101360
101356
101351
101348
101345
101336
101329
101332
100969
100970
100971
100972
100975
100978
100981
100986
100991
100997
101003
101011
101019
101028
101039
101050
101062
101073
101084
101099
101116
101131
101146
101161
101177
101198
101219
101238
101259
101278
101291
101305
101324
101332
101327
101313
101317
101335
101351
101364
101362
101358
101364
101369
101369
101365
101361
101356
101350
101344
101343
101342
101335
101324
100969
100970
100971
100972
100975
100978
100981
100986
100991
100997
101003
101011
101019
101028
101039
101050
101062
101073
101084
101099
101115
101131
101146
101160
101177
101198
101218
101238
101259
101278
101291
101303
101320
101329
101329
101323
101327
101339
101352
101361
101360
101359
101364
101369
101369
101365
101360
101355
101349
101346
101347
101343
101333
101323
100966
100967
100968
100970
100972
100975
100978
100983
100988
100994
101000
101007
101015
101024
101034
101045
101057
101068
101079
101091
101105
101121
101137
101154
101173
101197
101223
101247
101271
101292
101308
101326
101346
101356
101380
101292
101302
101331
101357
101379
101375
101364
101372
101375
101374
101369
101363
101358
101354
101349
101345
101340
101336
101333
100966
100967
100968
100970
100972
100975
100978
100983
100988
100994
101000
101007
101015
101024
101034
101045
101057
101068
101079
101090
101105
101121
101137
101154
101174
101199
101223
101247
101273
101295
101310
101325
101343
101349
101348
101327
101324
101339
101361
101377
101375
101367
101371
101374
101374
101370
101364
101358
101353
101349
101347
101343
101333
101330
100963
100963
100964
100966
100969
100971
100975
100979
100984
100989
100996
101002
101010
101019
101028
101039
101049
101060
101071
101082
101096
101111
101127
101143
101163
101189
101217
101245
101272
101296
101314
101334
101359
101451
101619
101368
101288
101305
101337
101349
101358
101387
101389
101385
101379
101374
101368
101362
101358
101353
101346
101338
101334
101335
100963
100963
100964
100966
100969
100971
100975
100979
100984
100989
100996
101002
101010
101019
101028
101039
101049
101060
101071
101082
101096
101112
101127
101144
101165
101191
101217
101243
101272
101297
101314
101327
101343
101375
101404
101341
101306
101325
101358
101384
101393
101382
101382
101382
101379
101374
101369
101364
101358
101351
101345
101339
101336
101335
100959
100960
100961
100962
100964
100967
100970
100974
100979
100984
100990
100997
101004
101013
101022
101032
101042
101052
101063
101074
101087
101102
101117
101131
101147
101172
101201
101228
101252
101275
101299
101329
101384
101610
101538
101490
101326
101332
101355
101365
101376
101396
101399
101392
101386
101381
101375
101369
101364
101357
101349
101339
101329
101331
100959
100960
100961
100962
100964
100967
100970
100974
100979
100984
100990
100997
101004
101013
101022
101031
101042
101052
101063
101074
101087
101102
101118
101133
101150
101174
101200
101224
101250
101275
101296
101317
101345
101404
101470
101399
101303
101317
101353
101372
101383
101391
101393
101390
101384
101378
101372
101367
101362
101355
101346
101338
101333
101329
100955
100955
100956
100958
100960
100962
100965
100969
100973
100979
100984
100991
100998
101006
101014
101024
101034
101044
101054
101065
101077
101090
101104
101117
101128
101146
101173
101196
101215
101231
101252
101283
101314
101382
101430
101414
101343
101346
101365
101379
101388
101395
101397
101393
101386
101380
101374
101368
101363
101357
101349
101338
101325
101327
100955
100955
100956
100958
100960
100962
100965
100969
100973
100979
100984
100991
100998
101006
101014
101024
101034
101044
101054
101065
101077
101090
101104
101118
101131
101149
101172
101192
101211
101233
101251
101277
101316
101358
101399
101370
101332
101342
101366
101382
101391
101396
101396
101391
101385
101378
101371
101366
101362
101356
101347
101335
101326
101328
100950
100950
100951
100952
100954
100957
100960
100963
100967
100972
100977
100984
100990
100998
101006
101015
101025
101035
101045
101056
101066
101077
101087
101098
101106
101114
101132
101153
101176
101197
101220
101246
101286
101326
101365
101355
101344
101355
101373
101384
101391
101395
101398
101395
101388
101380
101374
101370
101366
101361
101352
101338
101326
101326
100950
100950
100951
100952
100954
100957
100960
100963
100967
100972
100977
100983
100990
100998
101006
101015
101025
101035
101045
101056
101066
101077
101087
101097
101106
101116
101133
101153
101173
101195
101218
101248
101288
101326
101357
101360
101357
101365
101380
101392
101398
101400
101399
101395
101389
101382
101375
101370
101366
101361
101351
101337
101327
101329
100944
100945
100945
100947
100949
100951
100953
100957
100960
100965
100970
100976
100982
100989
100997
101006
101016
101025
101036
101046
101055
101063
101070
101075
101078
101080
101091
101115
101144
101171
101199
101232
101274
101314
101352
101368
101377
101387
101399
101407
101412
101413
101412
101408
101400
101390
101382
101376
101372
101366
101357
101343
101330
101326
100944
100945
100945
100947
100949
100951
100953
100957
100960
100965
100970
100976
100982
100989
100997
101006
101016
101025
101036
101046
101055
101063
101069
101073
101076
101079
101093
101116
101143
101170
101199
101233
101274
101316
101351
101371
101382
101394
101408
101417
101420
101419
101415
101410
101403
101394
101384
101378
101373
101367
101357
101344
101331
101331
100939
100939
100939
100941
100942
100944
100947
100949
100953
100957
100962
100967
100973
100980
100987
100996
101005
101015
101026
101036
101045
101051
101053
101049
101040
101035
101050
101082
101118
101153
101187
101226
101268
101312
101353
101383
101405
101424
101440
101448
101449
101443
101434
101424
101414
101403
101392
101383
101376
101370
101361
101347
101329
101320
100939
100939
100939
100941
100942
100944
100947
100949
100953
100957
100962
100967
100973
100980
100987
100996
101005
101015
101026
101036
101045
101051
101053
101048
101039
101035
101052
101084
101118
101152
101188
101227
101270
101314
101353
101383
101405
101426
101443
101452
101453
101446
101437
101426
101416
101405
101394
101385
101378
101372
101362
101348
101326
101324
100932
100933
100933
100934
100936
100937
100939
100942
100945
100948
100953
100957
100963
100969
100977
100985
100994
101005
101016
101028
101038
101044
101042
101026
100992
100972
100994
101040
101087
101127
101167
101211
101258
101307
101353
101394
101428
101456
101476
101485
101481
101468
101453
101438
101425
101412
101400
101388
101378
101370
101362
101350
101331
101324
100932
100933
100933
100934
100936
100937
100939
100942
100945
100948
100953
100957
100963
100969
100977
100985
100994
101005
101016
101028
101038
101044
101042
101025
100990
100972
100996
101042
101086
101126
101167
101212
101259
101307
101353
101393
101428
101457
101477
101486
101483
101470
101455
101440
101427
101414
101401
101389
101380
101372
101362
101349
101326
101331
100926
100926
100926
100927
100928
100930
100931
100934
100936
100939
100943
100947
100952
100958
100965
100973
100982
100993
101006
101021
101035
101045
101042
101009
100927
100889
100923
100990
101048
101093
101137
101186
101240
101296
101352
101406
101453
101490
101515
101522
101512
101493
101472
101454
101437
101420
101404
101390
101378
101369
101360
101350
101331
101327
100926
100926
100926
100927
100928
100930
100931
100934
100936
100939
100943
100947
100952
100958
100965
100973
100982
100993
101006
101021
101035
101045
101041
101005
100919
100886
100930
100995
101050
101093
101137
101186
101240
101296
101352
101406
101454
101492
101517
101523
101512
101493
101474
101456
101439
101421
101404
101389
101378
101370
101360
101349
101328
101326
100919
100919
100919
100920
100921
100922
100923
100925
100927
100929
100932
100936
100940
100945
100951
100959
100968
100980
100995
101014
101040
101068
101082
101023
100840
100740
100827
100939
101009
101051
101097
101152
101213
101278
101347
101415
101478
101527
101564
101569
101548
101518
101491
101468
101446
101423
101404
101388
101375
101365
101356
101347
101330
101329
100919
100919
100919
100920
100921
100922
100923
100925
100927
100929
100932
100936
100940
100945
100951
100959
100968
100980
100995
101014
101039
101068
101083
101019
100818
100745
100839
100940
101008
101052
101098
101152
101213
101278
101347
101412
101479
101527
101580
101581
101553
101516
101487
101464
101442
101421
101402
101387
101374
101365
101357
101347
101332
101325
100912
100912
100912
100913
100913
100914
100915
100916
100917
100919
100921
100924
100927
100931
100936
100943
100951
100963
100978
101001
101038
101103
101169
101165
100608
100486
100662
100890
100978
101003
101045
101106
101175
101249
101331
101415
101498
101556
101623
101632
101589
101533
101495
101470
101445
101421
101400
101383
101370
101361
101353
101345
101333
101327
100912
100912
100912
100913
100913
100914
100915
100916
100917
100919
100921
100924
100927
100931
100936
100943
100951
100963
100978
101001
101037
101101
101166
101151
100524
100567
100724
100898
100974
101006
101049
101107
101174
101248
101334
101421
101510
101540
101620
101634
101583
101526
101492
101469
101445
101420
101399
101383
101370
101360
101353
101345
101335
101325
100905
100905
100905
100905
100905
100906
100906
100906
100907
100908
100909
100911
100913
100916
100920
100924
100931
100940
100953
100972
101002
101049
101166
101450
100444
100647
100862
100940
100946
100977
101037
101110
101194
101293
101400
101516
101558
101635
101689
101630
101546
101497
101468
101441
101414
101393
101376
101363
101352
101344
101338
101331
101322
100905
100905
100905
100905
100905
100906
100906
100906
100907
100908
100909
100911
100913
100916
100920
100924
100931
100940
100953
100972
101001
101048
101163
101437
100407
100665
100871
100943
100952
100984
101041
101112
101196
101285
101410
101526
101522
101516
101661
101617
101544
101498
101467
101437
101411
101391
101375
101363
101352
101345
101338
101332
101322
100898
100898
100897
100897
100897
100897
100897
100897
100897
100897
100897
100898
100898
100900
100901
100904
100908
100913
100919
100928
100936
100933
100895
100821
100533
100541
100820
100962
100959
100926
100929
100963
101018
101098
101202
101313
101440
101480
101549
101731
101670
101576
101508
101459
101421
101394
101374
101359
101347
101338
101332
101327
101325
101317
100898
100898
100897
100897
100897
100897
100897
100897
100897
100897
100897
100898
100898
100900
100901
100904
100908
100913
100919
100928
100935
100932
100892
100810
100526
100602
100857
100964
100949
100921
100931
100967
101020
101089
101145
101308
101324
101567
101507
101538
101568
101544
101502
101457
101420
101392
101373
101359
101348
101339
101333
101328
101325
101318
100890
100890
100890
100890
100889
100889
100888
100887
100886
100886
100885
100884
100883
100882
100882
100882
100882
100882
100882
100880
100874
100856
100822
100757
100688
100697
100839
100913
100915
100904
100899
100902
100920
100976
101135
101297
101279
101498
101787
101609
101570
101540
101482
101425
101384
101361
101347
101337
101329
101324
101321
101320
101321
101315
100890
100890
100890
100890
100889
100889
100888
100887
100886
100886
100885
100884
100883
100882
100882
100882
100882
100882
100882
100880
100874
100856
100822
100757
100685
100709
100842
100906
100905
100895
100893
100901
100917
100951
100997
101212
101029
101447
101902
100971
101380
101516
101485
101431
101388
101362
101347
101336
101329
101324
101322
101320
101321
101315
100883
100883
100883
100882
100881
100880
100879
100878
100876
100874
100872
100870
100867
100865
100862
100859
100856
100851
100846
100838
100825
100807
100780
100742
100696
100688
100732
100780
100811
100827
100834
100829
100816
100809
100906
101166
102195
101462
100634
100925
101396
101501
101446
101384
101344
101326
101317
101311
101308
101308
101310
101313
101318
101315
100883
100883
100883
100882
100881
100880
100879
100878
100876
100874
100872
100870
100867
100865
100862
100859
100856
100851
100846
100838
100825
100806
100780
100741
100695
100691
100733
100778
100805
100821
100829
100827
100818
100742
100877
101185
101702
99801.4
100265
99732.3
100441
101336
101442
101393
101349
101326
101317
101311
101308
101308
101310
101313
101319
101315
100876
100876
100876
100875
100874
100872
100870
100868
100866
100863
100860
100856
100852
100847
100842
100836
100830
100821
100811
100798
100782
100761
100733
100699
100663
100645
100654
100680
100702
100719
100728
100727
100633
100677
100741
99832.8
99342
99054
99098.7
99609.7
100465
101254
101367
101305
101281
101277
101278
101279
101283
101288
101295
101302
101311
101311
100876
100876
100876
100875
100874
100872
100870
100868
100866
100863
100860
100856
100852
100847
100842
100836
100830
100821
100811
100798
100782
100760
100733
100699
100664
100646
100656
100680
100701
100716
100729
100734
100741
100755
100687
100312
102425
99679.5
99271.7
99268.8
99871.5
100773
101287
101310
101277
101273
101276
101280
101284
101288
101295
101303
101314
101315
100870
100870
100869
100868
100866
100864
100862
100859
100856
100852
100847
100842
100837
100830
100823
100814
100804
100792
100778
100761
100741
100716
100686
100652
100620
100596
100587
100589
100591
100600
100608
100643
100406
100618
101087
100668
99034
98911.4
99282.4
99633.5
100109
100755
101127
101175
101203
101220
101234
101246
101259
101270
101281
101291
101304
101312
100870
100870
100869
100868
100866
100864
100862
100859
100856
100852
100847
100842
100837
100830
100823
100814
100804
100792
100778
100761
100741
100715
100686
100652
100620
100596
100588
100589
100590
100594
100600
100648
100606
100667
100981
100234
100454
99327.2
99477.8
99746.8
100263
100746
100990
101113
101190
101219
101234
101248
101260
101271
101281
101292
101304
101309
100864
100863
100862
100861
100859
100857
100854
100850
100846
100841
100836
100829
100822
100814
100804
100793
100780
100765
100747
100726
100701
100672
100639
100603
100566
100533
100505
100484
100466
100467
100494
100746
100541
99701.8
99932.2
100032
99163.5
99137.2
99485.8
99834.4
100110
100375
100909
101061
101138
101170
101193
101216
101237
101254
101269
101282
101301
101311
100864
100863
100862
100861
100859
100857
100854
100850
100846
100841
100836
100829
100822
100814
100804
100793
100780
100765
100747
100726
100701
100672
100639
100603
100566
100533
100505
100483
100461
100443
100416
100469
100706
99962.9
96785
97582.6
98820.3
99127.3
99558
99943.5
100309
100513
100784
101012
101131
101171
101195
101217
101238
101255
101269
101282
101298
101310
100858
100857
100856
100855
100853
100850
100846
100842
100837
100832
100825
100817
100808
100798
100786
100773
100757
100739
100718
100693
100664
100631
100593
100551
100505
100458
100410
100361
100314
100290
100372
100576
100852
99890.4
98810.5
98778.5
98970.9
99243.8
99445.3
99594.5
99864.7
100144
100610
100965
101088
101129
101158
101189
101217
101239
101257
101272
101293
101303
100858
100857
100856
100855
100853
100850
100846
100842
100837
100832
100825
100817
100808
100798
100786
100773
100757
100739
100718
100693
100664
100631
100593
100551
100505
100458
100410
100360
100305
100260
100183
100428
100615
99898.4
97807.5
98335.9
98927.6
99277.7
99471
99616.8
99952
100252
100584
100932
101078
101126
101158
101189
101217
101239
101257
101272
101293
101307
100853
100852
100851
100849
100847
100843
100839
100835
100829
100823
100815
100806
100796
100784
100770
100755
100736
100715
100691
100662
100629
100591
100547
100497
100441
100378
100307
100218
100124
99917.1
100153
100130
100552
93533.2
95428.5
97967.5
98999.4
99440.8
99403.7
99303.2
99574.1
100035
100524
100860
101005
101073
101120
101162
101200
101228
101251
101265
101285
101300
100853
100852
100851
100849
100847
100843
100839
100835
100829
100823
100815
100806
100796
100784
100770
100755
100736
100715
100691
100662
100629
100591
100547
100497
100441
100378
100307
100222
100119
99980.5
99879.8
99978.1
98402.6
98076.4
98082.2
98574
99214.2
99541.3
99417.7
99262.9
99585.5
100107
100553
100855
100999
101069
101120
101163
101199
101228
101251
101266
101283
101293
100848
100848
100846
100844
100841
100838
100833
100828
100822
100814
100806
100796
100784
100771
100756
100738
100718
100694
100667
100635
100597
100554
100504
100446
100378
100298
100204
100080
99921.5
99616.5
99166.7
100402
96499.4
94213
96406.3
98574
99774.3
100076
99666.2
99296.4
99512.9
99986.3
100435
100747
100912
101018
101086
101141
101187
101223
101251
101270
101288
101296
100848
100848
100846
100844
100841
100838
100833
100828
100822
100814
100806
100796
100784
100771
100756
100738
100718
100694
100667
100635
100597
100554
100504
100446
100378
100298
100203
100090
99931.2
99698
99405.3
99085.1
97215.4
95727.7
97559
99021.7
99991.9
100182
99675.9
99250.5
99503.5
100057
100498
100750
100908
101012
101084
101142
101186
101221
101250
101272
101290
101298
100844
100844
100842
100840
100837
100833
100828
100822
100816
100808
100798
100787
100775
100760
100743
100724
100702
100676
100645
100610
100569
100521
100465
100399
100320
100225
100109
99962.3
99763.3
99488.4
98976.8
98737.5
100216
100186
99829.8
100417
101073
100922
100065
99337.7
99425.4
99882.9
100319
100648
100848
100978
101063
101130
101180
101217
101247
101274
101303
101305
100844
100844
100842
100840
100837
100833
100828
100822
100816
100808
100798
100787
100775
100760
100743
100724
100702
100676
100645
100610
100569
100521
100465
100399
100319
100224
100103
99965.4
99791
99565.3
99279.4
98626
97667.6
98339.3
99484.9
100560
101262
101014
100068
99296
99406.4
99931.9
100368
100648
100840
100971
101058
101129
101179
101215
101244
101268
101305
101312
100841
100840
100839
100836
100833
100829
100824
100818
100810
100802
100792
100780
100767
100751
100733
100712
100688
100660
100628
100590
100546
100493
100432
100359
100271
100165
100034
99873.6
99656
99380
98942.9
98427.9
98761.1
99788.9
99791.2
100364
101159
101101
100250
99319.8
99316.5
99801.4
100298
100628
100818
100950
101052
101129
101180
101214
101240
101266
101297
101309
100841
100840
100839
100836
100833
100829
100824
100818
100810
100802
100792
100780
100767
100751
100733
100712
100688
100660
100628
100590
100546
100493
100432
100359
100271
100159
100032
99874.2
99661.7
99395.4
99157.5
98228.2
98021.2
98977.8
99774.4
100720
101318
101103
100264
99348.3
99291.4
99808.2
100321
100639
100819
100945
101044
101126
101180
101213
101236
101252
101284
101319
100839
100838
100836
100834
100830
100826
100821
100814
100806
100797
100787
100775
100761
100744
100725
100703
100678
100649
100614
100574
100527
100472
100406
100328
100235
100122
99984.5
99811.3
99586.8
99302.9
98961.2
98445.1
98195.1
98556.9
98136.9
99042.1
100057
100491
100279
99688.3
99569
99966.1
100409
100717
100853
100965
101068
101140
101187
101217
101239
101248
101253
101302
100839
100838
100836
100834
100830
100826
100821
100814
100806
100797
100787
100775
100761
100744
100725
100703
100678
100649
100614
100574
100527
100472
100406
100328
100235
100122
99990.8
99816.7
99580.1
99292.6
98929.1
98403.7
98235.5
98530.5
98996.2
99594.6
99719.1
100056
100097
99762.5
99612.9
99941.2
100401
100732
100877
100966
101060
101140
101188
101216
101238
101242
101233
101295
100837
100837
100835
100832
100829
100824
100819
100812
100804
100795
100784
100771
100757
100740
100720
100697
100671
100641
100605
100563
100514
100457
100389
100308
100210
100093
99949
99770.8
99547.5
99270.4
98951.3
98544.5
98191
97722.7
96995.2
97004.1
96443.5
96535.6
97037.6
98298.7
99246.7
100078
100534
100823
100982
101086
101158
101201
101229
101247
101261
101256
101228
101277
100837
100837
100835
100832
100829
100824
100819
100812
100804
100795
100784
100771
100757
100740
100720
100697
100671
100641
100605
100563
100515
100457
100389
100308
100210
100093
99951
99777.1
99548.5
99257.5
98960.2
98565.1
98195.6
97993.2
97562.5
96807.6
95918.1
96089.5
96755.4
98133
99317.4
100085
100531
100820
100980
101088
101157
101202
101227
101244
101266
101263
101224
101273
100836
100835
100834
100831
100827
100823
100817
100810
100802
100793
100782
100769
100754
100737
100717
100694
100667
100636
100600
100558
100508
100449
100380
100297
100197
100077
99930.7
99751
99530.2
99261.3
98944.2
98557.8
98092.2
97633.2
97123.5
96039.4
94128.5
93455.5
94118.3
96040.1
98094.9
99464.4
100203
100602
100893
101092
101183
101220
101241
101256
101259
101252
101234
101261
100836
100835
100834
100831
100827
100823
100817
100810
100802
100793
100782
100769
100754
100737
100717
100694
100667
100636
100600
100558
100508
100449
100380
100297
100197
100077
99931.3
99753.2
99532
99262.8
98957.4
98611
98241
97701.7
96652.5
95251
94130.2
93627.4
94200.6
95939.1
98013.6
99464.1
100210
100594
100865
101079
101188
101218
101238
101255
101261
101254
101245
101282
100700
101157
100639
101565
101572
100606
100544
100584
100486
100440
100620
101147
100572
101569
101531
100573
100443
100560
100422
100400
101453
100884
100577
100872
100504
100534
100450
100559
100390
100476
100381
101421
100868
100484
100867
100474
100420
100404
100447
100396
100439
100427
100944
101021
100937
101066
100940
101061
100931
100779
100829
100770
100743
100669
100720
100645
100928
101017
100923
101056
100900
101054
100881
100765
100813
100762
100676
100623
100652
100617
101234
101168
101232
101218
101366
101217
101368
100548
100680
100599
100688
100567
100571
100531
100613
100427
100441
100404
100443
101227
101165
101226
101216
101356
101212
101362
100426
100617
100483
100574
100450
100641
100576
100654
100393
100465
100417
100522
101257
101166
101258
101036
101020
101035
101016
100676
101462
101153
101151
100723
100453
100496
100469
100410
100469
100425
100496
100420
100505
101249
101161
101255
101032
101010
101031
101012
100650
101434
101139
100655
101137
100408
100405
100484
100425
100521
100447
100530
100481
100556
100681
100817
100674
100785
100689
100785
100690
100376
100530
100419
100598
100573
100601
100589
100663
100809
100662
100784
100690
100784
100692
100463
100527
100473
100606
100603
100608
100607
101027
100925
100687
100919
101063
101025
100673
100895
100911
101008
101398
101481
101578
101489
101411
101191
101229
101398
101490
101575
101488
101403
101190
101187
100520
100575
100636
100659
100462
100550
100566
100546
100484
100476
100478
100559
100528
100473
100530
100452
100450
100461
100474
100993
100870
100597
100858
101011
100994
100573
100848
100838
100987
101411
101489
101561
101409
101495
101225
101221
101409
101483
101548
101484
101382
101247
101176
100382
100459
100517
100550
100302
100447
100467
100457
100445
100398
100466
100430
100415
100358
100458
100432
100390
100422
100453
100344
100399
100670
101457
101147
101146
100661
100336
100318
100380
100664
100560
100660
100432
100373
100533
100632
100351
100646
100468
100515
100490
100461
100506
100430
100409
100442
100475
100404
100421
100413
100451
100533
100548
100530
100470
100438
100515
100477
100426
100510
100307
100314
100646
101432
101138
101141
100674
100302
100345
100335
100623
100467
100349
100613
100324
100466
100602
100609
100367
100408
100400
100387
100408
100386
100413
100405
100409
100397
100402
100390
100403
100408
100448
100424
100418
100428
100402
100424
100439
100426
100401
101232
101088
101163
101307
101084
101308
101239
101198
101054
101148
101292
101046
101194
101298
101228
101160
101071
101303
101079
101306
101223
100590
100642
100605
100490
100638
100493
100594
100566
100597
100595
100495
100618
100496
100523
101211
101156
101060
101318
101058
101310
101216
100523
100583
100563
100490
100567
100512
100482
100522
100559
100550
100478
100558
100482
100500
100789
100962
100798
100881
100956
100796
100796
100780
100949
100877
100782
100950
100775
100790
100408
100410
100435
100378
100389
100427
100423
100386
100375
100371
100423
100374
100384
100424
100759
100943
100777
100864
100766
100939
100771
100754
100949
100866
100763
100946
100767
100758
100384
100376
100418
100409
100383
100377
100409
100382
100395
100421
100405
100386
100397
100386
100538
100629
100427
100562
100641
100503
100471
100294
100187
100154
100306
100296
100119
100139
100260
100524
100562
100632
100473
100637
100480
100515
100313
100536
100441
100110
100549
100281
100156
100029
99939.8
100079
99910.9
100340
100443
100555
100223
100378
100545
100191
99978.8
99831
99872.2
99934.4
101124
100893
100925
100679
100892
101120
100930
101357
101597
101610
101366
101349
101593
101597
101344
101137
100679
100938
100935
100907
100935
101134
100467
100487
101123
100883
100643
100912
100879
101115
100902
101366
101605
101595
101343
101359
101599
101595
101326
101127
100645
100892
100912
101116
100884
100905
100403
100402
100565
100963
100597
101031
100968
100556
100604
100370
100231
100201
100393
100354
100165
100175
100346
100560
101032
100969
100644
100970
100602
100624
100536
100958
100590
101020
100549
100950
100575
100292
100031
100075
100266
100315
100141
100335
100110
100522
101013
100932
100534
100944
100557
100504
101622
101451
101603
101396
101451
101602
101620
101686
101675
101689
101673
101677
101671
101677
101672
101632
101407
101451
101612
101456
101617
101611
101189
101197
101623
101451
101403
101605
101453
101620
101608
101682
101687
101693
101674
101628
101405
101457
101630
101455
101610
101641
101677
101672
101673
101674
101190
101184
100428
100609
100370
100500
100466
100592
100324
100141
99968.3
100109
100011
100161
100079
100208
100040
100408
100472
100559
100264
100396
100565
100292
100557
100559
100510
100534
100518
100553
100540
100521
100506
100525
100554
100564
100523
100513
100531
100504
100550
100519
100554
100545
100534
100543
100527
100520
100506
100483
100489
100522
100510
100506
100510
100495
100496
100473
100469
100467
100479
100478
100490
100485
100474
100495
100485
100469
100480
100506
100488
100490
100458
100889
101000
100514
100907
100433
100518
100221
100005
99995.2
100230
100450
101001
100915
100555
100904
100465
100524
100220
99934.7
99971
100195
100379
100867
100518
100989
100388
100864
100516
100158
99969.3
99905.6
100217
100154
99919.2
100169
99897.4
100376
100949
100865
100520
100856
100485
100459
101687
101426
101450
101751
101452
101691
101692
101760
101703
101689
101715
101680
101428
101451
101708
101443
101675
101698
101744
101718
101693
101750
101223
101237
101647
101434
101720
101396
101426
101653
101709
101744
101639
101708
101655
101725
101693
101722
101704
101652
101384
101428
101686
101430
101769
101618
101238
101187
100245
100516
100044
100343
100252
100507
100007
99849.1
99868.8
99783.9
99922.2
99884.9
99814.1
99906.4
99784.4
100182
100302
100438
99972.2
100468
99969.3
100195
100456
100462
100428
100456
100456
100443
100459
100447
100426
100448
100461
100460
100447
100445
100457
100477
100464
100457
100469
100454
100429
100418
100422
100428
100379
100354
100431
100457
100441
100454
100467
100426
100441
100432
100413
100414
100437
100427
100411
100418
100415
100436
100444
100463
100451
100466
100443
100437
100349
100344
101122
100893
100920
100668
101117
100892
100922
101343
101593
101336
101590
101346
101593
101343
101594
101124
100666
100888
100920
101119
100886
100925