/*--------------------------------*- C++ -*----------------------------------*\
| =========                 |                                                 |
| \\      /  F ield         | OpenFOAM: The Open Source CFD Toolbox           |
|  \\    /   O peration     | Version:  4.1                                   |
|   \\  /    A nd           | Web:      www.OpenFOAM.org                      |
|    \\/     M anipulation  |                                                 |
\*---------------------------------------------------------------------------*/
FoamFile
{
    version     2.0;
    format      ascii;
    class       volVectorField;
    location    "83";
    object      U;
}
// * * * * * * * * * * * * * * * * * * * * * * * * * * * * * * * * * * * * * //

dimensions      [0 1 -1 0 0 0 0];

internalField   nonuniform List<vector> 
4432
(
(-143884 -2901.37 -1228.71)
(-148090 -3061.91 -1595.17)
(-149644 -3027.62 -1622.6)
(-151642 -3130.58 -1844.1)
(-153441 -3178.92 -1990.31)
(-155193 -3224.48 -2096.8)
(-156799 -3279.75 -2227.6)
(-158318 -3331.16 -2357.7)
(-159731 -3382.62 -2501.7)
(-161030 -3435.56 -2665.08)
(-162196 -3490.94 -2851.53)
(-163203 -3548.23 -3066.43)
(-164024 -3606.91 -3312.52)
(-164628 -3666.66 -3587.72)
(-164992 -3726.49 -3884.87)
(-165083 -3783.09 -4197.89)
(-164882 -3836.28 -4523.5)
(-164387 -3893.07 -4862.33)
(-163582 -3955.65 -5208.01)
(-162463 -4023.16 -5554.66)
(-161030 -4093.52 -5892.95)
(-159296 -4166.03 -6214.14)
(-157284 -4238.72 -6508.29)
(-155026 -4310.78 -6767.77)
(-152571 -4381.24 -6985.2)
(-149971 -4450.8 -7157.15)
(-147294 -4517.1 -7282.12)
(-144595 -4578.95 -7363.03)
(-141938 -4633.18 -7403.46)
(-139371 -4676.16 -7408.36)
(-136947 -4705.14 -7382.69)
(-134711 -4717.17 -7330.89)
(-132705 -4709.85 -7257.51)
(-130977 -4681.24 -7165.2)
(-129563 -4631.48 -7057.59)
(-128497 -4561.62 -6937.79)
(-127814 -4477.88 -6811.9)
(-127515 -4388.62 -6693.83)
(-127599 -4296.58 -6571.64)
(-128071 -4207 -6420.74)
(-128902 -4135.69 -6224.51)
(-130052 -4088.96 -5958.29)
(-131415 -4086.47 -5572.82)
(-132956 -4154.31 -4998.33)
(-135171 -4315.95 -4122.68)
(-139448 -4583.62 -2802.67)
(-146873 -4955.14 -863.321)
(-154823 -5431.04 1889.25)
(-156085 -5802.62 6225.59)
(-151707 -4953.47 13596.2)
(-169934 -1851.13 27822.1)
(-242219 6575.68 38171.5)
(-286902 916.394 52900.6)
(-214888 8126.41 31174.7)
(-180610 3758.36 -369.289)
(-182976 3702.39 -627.58)
(-184146 3774.61 -745.896)
(-185561 3740.77 -859.558)
(-186828 3747.6 -973.286)
(-188126 3759.19 -1053.01)
(-189357 3763.72 -1146.66)
(-190560 3772.48 -1241.81)
(-191730 3782.5 -1350.68)
(-192862 3792.31 -1475.62)
(-193937 3800.88 -1620.89)
(-194933 3808.34 -1791.01)
(-195830 3814.76 -1988.12)
(-196598 3820.02 -2210.02)
(-197214 3824.57 -2452.04)
(-197645 3831.01 -2710.02)
(-197863 3841.12 -2977.18)
(-197849 3852.96 -3247.48)
(-197600 3866.13 -3518.6)
(-197125 3882.61 -3785.93)
(-196426 3904.06 -4041)
(-195520 3930.67 -4275.11)
(-194435 3962.86 -4479.59)
(-193204 4000.4 -4647.21)
(-191881 4042.36 -4772.07)
(-190520 4091.03 -4852.06)
(-189185 4146.43 -4887.86)
(-187925 4210.62 -4883.71)
(-186793 4285.42 -4845.9)
(-185819 4372.18 -4781.81)
(-185031 4471.89 -4698.63)
(-184447 4585.94 -4602.9)
(-184072 4715.78 -4500.8)
(-183916 4861.74 -4397.43)
(-183972 5023.48 -4300.2)
(-184236 5200.57 -4213.65)
(-184701 5390.53 -4142.98)
(-185365 5591.71 -4087.47)
(-186229 5803.61 -4030.57)
(-187310 6027.29 -3963.08)
(-188658 6275.83 -3871.68)
(-190284 6552.16 -3740)
(-192186 6852.85 -3536.04)
(-194441 7174.84 -3211.14)
(-197475 7521.29 -2695.41)
(-202272 7902.27 -1904.74)
(-209644 8326.88 -724.279)
(-218163 8810.73 1052.68)
(-223294 9559.15 3953.65)
(-226635 11260 8042.38)
(-248087 14361.2 13883.2)
(-332072 18622.9 18384.7)
(-408779 10186.6 28505.1)
(-354027 -13334 66089.6)
(-264943 -1414.95 5454.51)
(-265786 -1415.85 5048.65)
(-266152 -1428.21 4957.63)
(-266625 -1400.88 4795.69)
(-266960 -1388.73 4670.19)
(-267319 -1373.07 4588.71)
(-267635 -1359.4 4504.5)
(-267912 -1345 4418.28)
(-268158 -1332.38 4317.81)
(-268369 -1320.88 4197.79)
(-268541 -1312.21 4052.64)
(-268669 -1306.35 3876.14)
(-268739 -1303.13 3664.98)
(-268741 -1302.64 3419.17)
(-268667 -1305.77 3143.75)
(-268506 -1312.3 2847.33)
(-268280 -1320.33 2545.68)
(-268006 -1327.95 2246.63)
(-267674 -1336.68 1947.57)
(-267286 -1344.9 1657.11)
(-266850 -1351.27 1387.53)
(-266376 -1354.92 1150.73)
(-265881 -1355.27 959.099)
(-265380 -1351.91 821.525)
(-264893 -1344.94 744.808)
(-264434 -1334.65 728.983)
(-264021 -1321.14 770.252)
(-263656 -1304.18 859.121)
(-263343 -1283.05 985.609)
(-263065 -1256.81 1137.61)
(-262811 -1224.18 1304.96)
(-262559 -1183.28 1478.42)
(-262286 -1131.74 1652.25)
(-261971 -1067.46 1823.68)
(-261584 -990.267 1990.67)
(-261098 -898.549 2151.82)
(-260473 -789.127 2307.59)
(-259684 -657.887 2464.07)
(-258710 -501.505 2621.46)
(-257494 -320.406 2769.5)
(-255976 -109.491 2903.5)
(-254161 134.272 3038.65)
(-251939 408.45 3167.21)
(-249199 711.835 3290.48)
(-246030 1045.75 3420.95)
(-242759 1413.42 3527.88)
(-239372 1812.29 3461.96)
(-234015 2261.66 3083.8)
(-223894 2845.55 2704.85)
(-209934 3435.38 3499.94)
(-207027 3610.67 4696.33)
(-201198 2991.06 2071.82)
(-210759 -1635.98 -3136.16)
(21033.1 -10595.9 8618.48)
(-312845 1823.68 4572.29)
(-313540 1728.54 4335.47)
(-313904 1683.54 4213.74)
(-314344 1662.12 4153.21)
(-314740 1635.17 4087.47)
(-315155 1613.44 4056.69)
(-315553 1593.14 4028.23)
(-315932 1576.53 3997.58)
(-316297 1561.58 3953.09)
(-316645 1549.18 3891.76)
(-316970 1538.42 3808.39)
(-317264 1529.92 3697.63)
(-317518 1524.31 3556.08)
(-317720 1522.48 3383.47)
(-317864 1524.14 3183.08)
(-317941 1530.49 2957.85)
(-317940 1542.38 2711.96)
(-317862 1558.39 2451.68)
(-317706 1576.62 2185.2)
(-317496 1596.8 1923.57)
(-317232 1620.22 1674.82)
(-316921 1647.63 1450.67)
(-316575 1679.5 1262.37)
(-316199 1716.23 1119.52)
(-315811 1757.5 1028.86)
(-315415 1803.06 990.895)
(-315028 1852.22 1002.2)
(-314646 1904.85 1054.53)
(-314273 1960.58 1138.47)
(-313893 2019.32 1243.17)
(-313497 2080.87 1359.18)
(-313063 2145.47 1477.53)
(-312572 2213.38 1591.44)
(-312001 2284.42 1696.84)
(-311325 2356.5 1791.95)
(-310569 2425.8 1880.46)
(-309704 2492.11 1957.62)
(-308710 2554.84 2017.38)
(-307555 2613.86 2049.3)
(-306175 2669.26 2045.07)
(-304500 2723.26 2003.47)
(-302438 2777.9 1920.53)
(-299857 2830.78 1791.54)
(-296633 2880.41 1623.82)
(-292807 2928.11 1430.83)
(-288623 2977.14 1191.09)
(-284001 3023.35 818.962)
(-277230 3116.74 302.208)
(-265436 3282.63 0.452252)
(-248621 3368.18 680.747)
(-241206 2595.1 2268.41)
(-231971 2754.01 -4140.3)
(-192948 -13042.3 -2221.06)
(-20066.3 -7620.82 3400.92)
(-233558 -2246.84 -49.1345)
(-232496 -2248.76 -567.513)
(-232158 -2316.65 -799.343)
(-231782 -2313.02 -983.898)
(-231478 -2327.5 -1174.1)
(-231234 -2343.16 -1345.73)
(-231041 -2360.21 -1501.82)
(-230886 -2376.24 -1660.88)
(-230763 -2395.22 -1831.84)
(-230673 -2416.04 -2020.42)
(-230611 -2440.01 -2235.1)
(-230576 -2466.81 -2481.96)
(-230558 -2496.87 -2765.79)
(-230547 -2530.31 -3089.31)
(-230531 -2567.78 -3451.19)
(-230500 -2612.78 -3843.18)
(-230389 -2667.71 -4268.02)
(-230091 -2723.24 -4735.18)
(-229594 -2770.06 -5233.49)
(-228882 -2807.05 -5745.05)
(-227950 -2834.36 -6250.46)
(-226808 -2847.65 -6727.14)
(-225471 -2843.74 -7152.96)
(-223970 -2818.79 -7507.14)
(-222345 -2771.4 -7775.11)
(-220646 -2701.29 -7952.15)
(-218928 -2609.3 -8041.05)
(-217234 -2497.06 -8052.91)
(-215600 -2366.77 -8001.03)
(-214052 -2220.83 -7901.56)
(-212605 -2061.94 -7768.79)
(-211264 -1893.18 -7615.62)
(-210033 -1718.38 -7450.69)
(-208902 -1541.38 -7281.86)
(-207857 -1363.44 -7115.53)
(-206890 -1188.73 -6954.32)
(-205984 -1025.26 -6797.38)
(-205119 -879.521 -6643.7)
(-204257 -759.326 -6497.81)
(-203358 -667.291 -6358.08)
(-202393 -608.726 -6220.29)
(-201196 -591.689 -6076.94)
(-199611 -615.806 -5918.41)
(-197547 -681.512 -5707.95)
(-195199 -788.063 -5413.63)
(-193259 -930.415 -5040.97)
(-192055 -1083.79 -4698.11)
(-189500 -1061.99 -4616.14)
(-180662 -579.581 -4810.99)
(-166914 1038.33 -4884.24)
(-164349 4175.38 -4197.78)
(-196108 8771.13 8616.26)
(-245712 -9898.62 38272.4)
(-171808 -2996.69 14774.3)
(-265743 2490.25 1187.97)
(-264848 2511.68 842.826)
(-264506 2466.49 700.087)
(-264090 2486.11 591.44)
(-263797 2489.64 483.593)
(-263541 2492.3 387.27)
(-263325 2494.32 307.399)
(-263140 2497.74 222.95)
(-262983 2498.92 126.56)
(-262852 2498.49 12.3964)
(-262746 2494.92 -126.965)
(-262665 2487.95 -297.437)
(-262600 2476.51 -504.454)
(-262549 2459.85 -751.94)
(-262506 2437.39 -1039.14)
(-262470 2405.66 -1360.66)
(-262438 2363.2 -1708.75)
(-262400 2318.21 -2075.14)
(-262327 2279.23 -2451.06)
(-262168 2248 -2826.44)
(-261927 2224.29 -3184.04)
(-261609 2212.03 -3503.5)
(-261226 2214.08 -3763.84)
(-260796 2233.99 -3946.95)
(-260343 2273.2 -4041.39)
(-259890 2332.15 -4045.38)
(-259462 2410.16 -3964.37)
(-259075 2505.93 -3811.41)
(-258739 2617.46 -3601.35)
(-258456 2742.5 -3350.93)
(-258225 2878.38 -3074.91)
(-258040 3022.07 -2787.32)
(-257897 3170.04 -2499.06)
(-257791 3320.3 -2218.76)
(-257717 3476.35 -1955.56)
(-257598 3640.48 -1723.41)
(-257413 3809.73 -1535.46)
(-257148 3979.79 -1395.91)
(-256791 4144.68 -1315.65)
(-256369 4302.69 -1300.74)
(-255897 4449.31 -1349.8)
(-255384 4580.13 -1459.88)
(-254806 4696.89 -1623.62)
(-254169 4804.08 -1825.39)
(-253737 4909.83 -2054.73)
(-254239 5026.93 -2335.51)
(-256194 5189.01 -2779.38)
(-257991 5537.99 -3549.3)
(-254610 6323.24 -4644.01)
(-248298 7994.72 -4627.02)
(-260711 10827.2 -1166.17)
(-332216 11646.8 10226.4)
(-418235 -9344.53 23373)
(-416204 -24674.4 17320.7)
(-257987 -3378.55 3690.89)
(-258692 -3424.13 3700.77)
(-259112 -3461.79 3683)
(-259671 -3481.54 3708.87)
(-260251 -3504.74 3729.53)
(-260858 -3530.47 3744.99)
(-261485 -3555.34 3755.22)
(-262129 -3581.25 3754.46)
(-262782 -3610.08 3734.38)
(-263433 -3641.29 3685.51)
(-264070 -3675.73 3597.46)
(-264675 -3712.85 3462.96)
(-265222 -3752.59 3272.83)
(-265683 -3795.17 3018.48)
(-266026 -3840.84 2693.76)
(-266224 -3890.51 2297.01)
(-266260 -3943.31 1830.13)
(-266162 -3999.63 1317.4)
(-265930 -4056.76 781.211)
(-265585 -4118.03 243.195)
(-265124 -4183.04 -278.07)
(-264551 -4250.5 -752.414)
(-263880 -4317.47 -1150.42)
(-263132 -4380.93 -1445.91)
(-262332 -4438.45 -1625.98)
(-261512 -4487.83 -1691.36)
(-260696 -4527.16 -1654.38)
(-259901 -4554.93 -1535.06)
(-259133 -4570.25 -1355.72)
(-258390 -4572.39 -1138.11)
(-257663 -4561.42 -901.251)
(-256939 -4538.28 -661.421)
(-256205 -4504.98 -431.719)
(-255447 -4463.1 -223.906)
(-254649 -4413.6 -47.7364)
(-253798 -4359.51 90.7356)
(-252873 -4302.3 184.872)
(-251840 -4241.43 228.245)
(-250671 -4178.75 220.277)
(-249337 -4117.99 164.64)
(-247786 -4062.88 58.3196)
(-245939 -4016.21 -95.1965)
(-243657 -3982.73 -272.397)
(-240799 -3971.18 -442.136)
(-237481 -3989.63 -569.873)
(-234238 -4049.16 -604.996)
(-231329 -4172.03 -502.322)
(-226753 -4269.76 -386.703)
(-217033 -4158.52 -614.839)
(-202057 -3421.6 -1293.62)
(-197578 -2615.26 -3055.1)
(-213613 -4887.72 -383.653)
(-181593 -15837.6 11187.3)
(66458.8 -9009.55 12246.6)
(-246718 2938.54 3149.15)
(-246678 2919.35 3103.56)
(-246728 2895.16 3136.16)
(-246798 2892.31 3147.53)
(-246949 2885.21 3172.61)
(-247116 2875.53 3193.04)
(-247301 2866.45 3209.92)
(-247508 2855.83 3214.13)
(-247726 2841.53 3202.04)
(-247947 2823.95 3163.74)
(-248163 2801.92 3090.18)
(-248361 2775.82 2974.65)
(-248522 2745.44 2810.27)
(-248626 2710.32 2589.84)
(-248652 2670 2309.13)
(-248582 2623.28 1971)
(-248403 2570.72 1582.47)
(-248129 2510.73 1158.44)
(-247770 2445.82 717.668)
(-247329 2375.97 281.467)
(-246808 2301.37 -126.449)
(-246214 2223.61 -476.612)
(-245564 2146.13 -736.948)
(-244879 2072.54 -881.859)
(-244188 2005.8 -898.237)
(-243519 1948.65 -787.869)
(-242891 1903.55 -565.146)
(-242315 1872.57 -252.575)
(-241787 1857.2 124.949)
(-241296 1858.82 542.652)
(-240826 1878.04 978.895)
(-240357 1914.42 1414.43)
(-239872 1966.46 1833.43)
(-239352 2032.75 2221.16)
(-238784 2113.19 2561.92)
(-238169 2206.66 2849.67)
(-237516 2309.64 3088.84)
(-236821 2422.73 3276.78)
(-236087 2543.73 3415.05)
(-235318 2666.8 3506.2)
(-234526 2785.45 3552.86)
(-233696 2893.24 3563.49)
(-232775 2981.07 3555.59)
(-231741 3030.99 3547.69)
(-230873 3020.13 3556.31)
(-230947 2915.92 3611.53)
(-232434 2666.88 3714.95)
(-233237 2332.02 3604.43)
(-228512 2022.11 2815.19)
(-219009 2420.52 465.301)
(-221460 1750.24 -1917.36)
(-233753 -3302.62 -4670.13)
(-199999 -30414.3 6121.88)
(-79756.7 -15990.1 3019.5)
(-246073 -2544.7 1578.09)
(-245998 -2510.83 1470.4)
(-245975 -2469.33 1446.23)
(-245969 -2418.27 1392.46)
(-246001 -2365.71 1362.88)
(-246047 -2312.02 1331.61)
(-246102 -2256.65 1294.28)
(-246162 -2200.51 1242.58)
(-246224 -2142.73 1169.9)
(-246282 -2082.78 1064.33)
(-246330 -2021.21 914.262)
(-246361 -1957.97 712.89)
(-246363 -1892.49 452.265)
(-246324 -1824.91 124.508)
(-246229 -1755.42 -274.662)
(-246067 -1685.07 -744.946)
(-245820 -1612.92 -1279.74)
(-245472 -1540.22 -1867.22)
(-245001 -1466.66 -2487.79)
(-244357 -1390.1 -3125.26)
(-243540 -1311.07 -3746.19)
(-242553 -1231.55 -4307.26)
(-241417 -1151.02 -4755.6)
(-240175 -1070.75 -5048.13)
(-238880 -991.627 -5163.95)
(-237590 -914.674 -5107.28)
(-236348 -840.525 -4901.47)
(-235180 -769.113 -4579.9)
(-234090 -699.926 -4177.32)
(-233066 -632.143 -3724.54)
(-232090 -564.94 -3246.07)
(-231133 -497.967 -2761.55)
(-230172 -431.402 -2286.38)
(-229182 -365.357 -1833.25)
(-228139 -300.57 -1412.42)
(-227017 -235.055 -1035.95)
(-225788 -164.707 -716.474)
(-224440 -87.566 -464.576)
(-222957 -3.19857 -289.165)
(-221315 89.0639 -202.062)
(-219476 190.939 -215.065)
(-217362 300.012 -337.86)
(-214851 412.073 -583.51)
(-211827 520.942 -971.428)
(-208451 615.798 -1517.55)
(-205363 675.955 -2226.13)
(-202969 667.772 -3160.21)
(-199435 615.17 -4448.19)
(-190288 626.584 -6453.21)
(-175860 696.946 -9344.14)
(-170761 -1061.62 -13856.8)
(-196917 -3036.9 -15486.4)
(-189819 -15143.9 -33906.9)
(18255.6 -9795.56 -18494.8)
(-224648 4295.42 841.003)
(-224353 4330.13 728.001)
(-224224 4361.62 703.746)
(-224107 4406.65 634.02)
(-224059 4450.89 590.246)
(-224033 4495.35 549.516)
(-224031 4540.49 502.582)
(-224047 4585.39 440.656)
(-224078 4631.03 359.401)
(-224120 4678.12 247.134)
(-224169 4726.2 93.9165)
(-224215 4775.47 -108.876)
(-224245 4826.84 -369.953)
(-224246 4880.48 -697.893)
(-224202 4936.39 -1098.2)
(-224096 4993.35 -1572.12)
(-223907 5051.62 -2115.27)
(-223591 5111.32 -2723.13)
(-223112 5171.96 -3385.8)
(-222408 5233.78 -4094.1)
(-221466 5296.48 -4814.33)
(-220284 5358.03 -5498.96)
(-218883 5419.29 -6091.47)
(-217316 5479.34 -6541.45)
(-215656 5537.75 -6819.49)
(-213989 5593.85 -6922)
(-212391 5647.15 -6865.68)
(-210922 5697.68 -6678.46)
(-209623 5745.73 -6391.34)
(-208518 5791.82 -6032.44)
(-207617 5836.49 -5624.74)
(-206926 5879.67 -5185.65)
(-206442 5920.85 -4728.3)
(-206166 5959.72 -4263.89)
(-206094 5995.81 -3806.24)
(-206223 6030.01 -3364.58)
(-206546 6067.33 -2944.88)
(-207043 6116.76 -2558.35)
(-207674 6183.06 -2223.25)
(-208437 6267.72 -1952.1)
(-209317 6371.51 -1762.8)
(-210278 6493.03 -1670.42)
(-211242 6636.76 -1680.27)
(-212167 6803.73 -1807.6)
(-213376 6982.93 -2067.8)
(-215802 7148.34 -2459.35)
(-220072 7251.54 -3019.1)
(-224152 7316.41 -3958.95)
(-222829 7483.14 -5948.6)
(-217007 7598.21 -9577.94)
(-222842 5704.73 -15309.2)
(-262337 -288.19 -19917.8)
(-243626 -28611.3 -41792.4)
(-130809 -17139.5 -13453.4)
(-246118 -2497.38 1890.42)
(-246397 -2518.81 1882.1)
(-246481 -2537.7 1883.1)
(-246664 -2550.37 1854.71)
(-246845 -2567.63 1828.22)
(-247048 -2583.51 1783.05)
(-247261 -2599.26 1716.86)
(-247481 -2616.71 1621.14)
(-247710 -2635.71 1487.78)
(-247943 -2654.63 1304.25)
(-248171 -2671.95 1057.51)
(-248379 -2687.92 734.993)
(-248552 -2701.99 324.523)
(-248665 -2713.93 -184.67)
(-248693 -2723.73 -798.23)
(-248600 -2728.76 -1512.99)
(-248360 -2727.4 -2315.1)
(-247948 -2718.69 -3185.57)
(-247343 -2703.99 -4100.16)
(-246524 -2681.55 -5030.3)
(-245469 -2649.84 -5936.3)
(-244169 -2605.53 -6762.01)
(-242646 -2547.51 -7427.58)
(-240965 -2474.91 -7863.96)
(-239224 -2387.96 -8040.08)
(-237522 -2288.09 -7969.28)
(-235944 -2177.27 -7696.5)
(-234546 -2057.24 -7279.24)
(-233361 -1929.7 -6773.64)
(-232398 -1795.92 -6225.57)
(-231656 -1656.72 -5667.8)
(-231130 -1512.3 -5121.21)
(-230811 -1361.99 -4596.52)
(-230692 -1204.77 -4096.25)
(-230767 -1043.17 -3615.5)
(-231030 -875.953 -3147.46)
(-231475 -697.014 -2683.24)
(-232099 -503.403 -2211.12)
(-232896 -292.564 -1715.8)
(-233862 -63.7576 -1184.28)
(-234986 182.486 -600.819)
(-236228 444.644 59.0882)
(-237501 717.671 821.994)
(-238747 996.362 1717.24)
(-240210 1279.41 2784.26)
(-242664 1564.02 4086.27)
(-246690 1862.63 5690)
(-250779 2250.05 7566.08)
(-250699 2898.23 9368.11)
(-246880 3964.45 10674.6)
(-250475 4664.46 9648.23)
(-280477 2927.78 3242.83)
(-232819 -10315.9 -46582)
(-106195 -4218.21 -19074.7)
(-238389 4033.03 4040.24)
(-238585 4097.44 4269.59)
(-238721 4127.84 4411.18)
(-238950 4170.99 4544.84)
(-239217 4209.9 4685.84)
(-239528 4250.39 4824.01)
(-239883 4291.45 4954.08)
(-240277 4331.02 5066.72)
(-240706 4369.16 5151.59)
(-241165 4407.37 5195.85)
(-241642 4446.98 5185.66)
(-242119 4487.41 5105.93)
(-242572 4528.79 4940.98)
(-242973 4570.82 4676.52)
(-243281 4612.75 4301.81)
(-243454 4654.57 3812.44)
(-243450 4696 3214.46)
(-243242 4738.47 2527.81)
(-242811 4780.49 1781.41)
(-242195 4819.98 1016.1)
(-241417 4857.43 277.13)
(-240469 4896.84 -379.649)
(-239381 4940.22 -876.279)
(-238215 4990.5 -1144.57)
(-237055 5050.23 -1156.26)
(-235979 5121.31 -929.395)
(-235035 5205.02 -511.795)
(-234238 5302.43 36.6187)
(-233576 5413.93 658.586)
(-233022 5539.43 1307.94)
(-232538 5678.51 1951.53)
(-232094 5830.58 2568.22)
(-231662 5995.28 3146.51)
(-231226 6171.85 3682.78)
(-230776 6355.86 4182.3)
(-230391 6549.18 4665.58)
(-230086 6756.51 5126.11)
(-229888 6981.49 5568.35)
(-229842 7223.22 6000.43)
(-229978 7481.67 6425.01)
(-230329 7755.69 6846.62)
(-230910 8042.67 7274.33)
(-231691 8336.25 7717.03)
(-232697 8628.37 8187.5)
(-234273 8910.79 8713.49)
(-237330 9170.97 9355.89)
(-242743 9403.32 10215)
(-249381 9646.79 11269.2)
(-253294 9990.28 12169.5)
(-255494 10420.6 12028.9)
(-273415 9919.21 9117.82)
(-347130 4954.32 -1127.03)
(-462649 -18360 -44133.5)
(-387250 -14183.4 -18341.9)
(-246430 -3939.71 396.307)
(-246730 -4046.41 290.218)
(-246825 -4114.8 201.016)
(-247031 -4184.92 124.517)
(-247235 -4255.63 42.8818)
(-247469 -4320.32 -43.4899)
(-247718 -4381.24 -140.899)
(-247985 -4439.38 -256.281)
(-248272 -4495.53 -401.58)
(-248583 -4547.95 -589.168)
(-248911 -4595.73 -831.611)
(-249249 -4638.56 -1146.02)
(-249584 -4675.44 -1550.05)
(-249896 -4705.71 -2059.6)
(-250155 -4728.19 -2688.96)
(-250323 -4740.81 -3449.87)
(-250366 -4744.87 -4349.12)
(-250250 -4741.12 -5372.54)
(-249946 -4728.66 -6494.85)
(-249428 -4706.8 -7684.79)
(-248660 -4680.66 -8905.29)
(-247606 -4653.56 -10081.7)
(-246280 -4627.53 -11091.9)
(-244781 -4603.74 -11808)
(-243259 -4582.87 -12169.6)
(-241859 -4566.4 -12203.4)
(-240682 -4554.5 -11983.4)
(-239775 -4547.55 -11597.9)
(-239144 -4546.09 -11126.2)
(-238773 -4551.28 -10628.8)
(-238634 -4564.54 -10147)
(-238700 -4587.92 -9706.05)
(-238952 -4623.55 -9318.94)
(-239376 -4673.07 -8990.55)
(-239967 -4735.95 -8720.25)
(-240730 -4816.11 -8505.95)
(-241674 -4925.19 -8346.05)
(-242807 -5072.91 -8239.05)
(-244138 -5266.7 -8183.59)
(-245682 -5517.64 -8177.86)
(-247459 -5838.21 -8218.84)
(-249466 -6242.32 -8300.05)
(-251673 -6746.07 -8409.11)
(-254089 -7367.8 -8523.22)
(-257019 -8127.6 -8584.61)
(-261303 -9056.1 -8478.02)
(-267770 -10173.3 -8015.83)
(-275507 -11457.9 -6956.54)
(-281399 -12763.6 -5031.06)
(-288066 -14080.8 -2278.4)
(-310767 -15595.1 94.9479)
(-387947 -17164.4 495.631)
(-483733 -12586.5 -12570.6)
(-434042 -16363.4 -39617.5)
(-230785 4287.23 2876.32)
(-230619 4400.59 3010.52)
(-230490 4439.38 3104.7)
(-230394 4495.99 3191.65)
(-230316 4545.55 3281.88)
(-230256 4597.29 3364.64)
(-230213 4647.98 3433.36)
(-230184 4695.32 3480.3)
(-230170 4737.24 3492.2)
(-230171 4774.08 3455)
(-230183 4805.3 3352.98)
(-230198 4829.55 3167.85)
(-230203 4846.17 2880.32)
(-230181 4854.4 2472.83)
(-230105 4853.87 1932.38)
(-229948 4845.81 1254.16)
(-229676 4831.63 444.934)
(-229260 4814.41 -476.963)
(-228659 4799.68 -1493.08)
(-227750 4795.41 -2580.09)
(-226390 4799.75 -3703.27)
(-224514 4810.78 -4785.93)
(-222103 4826.95 -5694.4)
(-219243 4846.23 -6281.52)
(-216110 4865.66 -6470.26)
(-212899 4881.21 -6277.83)
(-209777 4891.07 -5779.96)
(-206866 4894.39 -5072.91)
(-204237 4891.79 -4247.1)
(-201925 4884.61 -3373.98)
(-199936 4874.64 -2503.04)
(-198267 4863.91 -1664.96)
(-196899 4855.14 -875.098)
(-195816 4852.02 -137.867)
(-194995 4863.68 544.553)
(-194324 4888.89 1164.84)
(-193776 4919.79 1719.99)
(-193338 4947.94 2203.37)
(-192976 4964.34 2629.8)
(-192714 4955.18 3004.79)
(-192585 4905.23 3334.73)
(-192600 4794.11 3627.89)
(-192724 4594.52 3903.08)
(-192964 4271.4 4193.86)
(-193689 3782.05 4568.84)
(-195976 3067.27 5165.29)
(-201054 2067.76 6169.09)
(-207716 766.672 7714.71)
(-210931 -783.754 9932.84)
(-211435 -2637.37 12508.5)
(-238536 -3892.62 17954.2)
(-357826 225.268 29899.7)
(-567728 -1480.14 47387.6)
(-407101 -15880 8686.84)
(-241958 -5060.56 1273.84)
(-241908 -5085.7 1458.1)
(-241953 -5056.62 1528.37)
(-242050 -5054.39 1650.58)
(-242202 -5042.25 1762.01)
(-242408 -5024.99 1875.54)
(-242668 -5002.86 1978.29)
(-242989 -4976.53 2055.84)
(-243380 -4944.72 2088.26)
(-243846 -4905.06 2055.43)
(-244385 -4856.77 1933.21)
(-244995 -4799.05 1693.81)
(-245660 -4731.19 1308.44)
(-246358 -4653.8 750.264)
(-247050 -4569.07 -2.69432)
(-247681 -4481.08 -969.386)
(-248190 -4394.65 -2146.19)
(-248485 -4319.7 -3503.61)
(-248502 -4266.15 -4990.62)
(-248196 -4239.06 -6567.04)
(-247475 -4239.12 -8207.77)
(-246208 -4271.2 -9829.78)
(-244328 -4335.73 -11233.4)
(-241935 -4424.88 -12172)
(-239279 -4527.58 -12527.6)
(-236617 -4632.13 -12368.4)
(-234126 -4733.25 -11842.6)
(-231896 -4829.66 -11104.1)
(-229950 -4922.98 -10282.2)
(-228267 -5016.62 -9467.62)
(-226807 -5113.68 -8715.64)
(-225525 -5216.77 -8054.98)
(-224379 -5327.63 -7495.72)
(-223330 -5447.7 -7036.49)
(-222350 -5577.38 -6669.92)
(-221413 -5716.76 -6384.57)
(-220501 -5866.43 -6167.95)
(-219594 -6029.67 -6008.06)
(-218673 -6208.77 -5896.13)
(-217719 -6402.74 -5826.53)
(-216707 -6612.37 -5797.52)
(-215580 -6839.63 -5810.63)
(-214226 -7086.68 -5869.66)
(-212538 -7356.34 -5977.97)
(-210656 -7656.98 -6106.94)
(-209211 -8024.63 -6198.74)
(-208729 -8544.23 -6125.61)
(-207690 -9341.55 -5635.89)
(-201924 -10449.6 -4147.41)
(-191761 -12481 -882.809)
(-197149 -15086.8 8846.8)
(-250095 -18235.8 25860.2)
(-337017 -2090.62 75194.4)
(-321717 15161.8 35942.5)
(-238294 4286.98 3393.11)
(-239052 4249.79 3669)
(-239543 4220.93 3799.02)
(-240192 4168.68 3969.22)
(-240874 4111.51 4132.78)
(-241623 4048.09 4292.98)
(-242435 3976.84 4437.88)
(-243313 3896.75 4555.3)
(-244260 3808.72 4629.34)
(-245275 3715.33 4640.9)
(-246350 3618.21 4567.5)
(-247471 3519.7 4383.88)
(-248615 3423.11 4063.32)
(-249742 3331.64 3580.68)
(-250801 3248.23 2915.41)
(-251727 3174.84 2056.04)
(-252450 3112.33 1004.7)
(-252909 3062.08 -212.768)
(-253071 3021.06 -1561.82)
(-253019 2981.43 -3005.62)
(-252721 2944.4 -4517.93)
(-252077 2909.51 -6020.16)
(-251045 2878.25 -7319.69)
(-249713 2857.46 -8177.53)
(-248266 2853.53 -8471.45)
(-246867 2871.99 -8254.97)
(-245595 2912.68 -7661.71)
(-244463 2973.07 -6835.6)
(-243440 3049.66 -5901.12)
(-242475 3139.13 -4948.52)
(-241519 3239.4 -4035.02)
(-240523 3349.68 -3192.14)
(-239450 3470.26 -2433.62)
(-238263 3601.12 -1763.82)
(-236938 3743.06 -1183.23)
(-235459 3897.29 -682.256)
(-233806 4064.8 -246.142)
(-231960 4241.72 122.22)
(-229938 4423.75 434.645)
(-227723 4606.79 697.164)
(-225276 4783.23 906.421)
(-222541 4943.04 1070.24)
(-219414 5074.47 1203.33)
(-215803 5163.97 1330.97)
(-211830 5193.34 1513.97)
(-208039 5127.08 1878.04)
(-204951 4900.15 2604)
(-201170 4418.59 3957.54)
(-193070 3645.66 5956.53)
(-178335 1996.67 8717.5)
(-175876 -383.161 17458.6)
(-193763 -10807.5 37669.9)
(-205772 -876.263 92665.2)
(-126002 3033.68 24809.7)
(-241538 -3714.86 2288.93)
(-241693 -3591.82 2475.39)
(-241908 -3497.54 2503.36)
(-242198 -3406.19 2556.16)
(-242571 -3304.61 2577.86)
(-243022 -3195.05 2577.27)
(-243560 -3079.38 2544.01)
(-244196 -2956.64 2466.35)
(-244939 -2824.65 2333.6)
(-245793 -2682.49 2135.38)
(-246758 -2530.64 1855.6)
(-247826 -2370.32 1475.49)
(-248980 -2204.23 974.117)
(-250185 -2036.89 330.003)
(-251391 -1874.51 -477.014)
(-252535 -1724.01 -1464.11)
(-253544 -1587.93 -2644.84)
(-254405 -1465.25 -4011.84)
(-255157 -1359.52 -5546.19)
(-255778 -1281.14 -7229.67)
(-256176 -1237.43 -9074.92)
(-256136 -1237.24 -11037.3)
(-255488 -1289.19 -12857.7)
(-254353 -1396.34 -14111.9)
(-253088 -1544.96 -14551.3)
(-251992 -1711.65 -14290.9)
(-251185 -1877.13 -13574.9)
(-250665 -2032.34 -12630)
(-250372 -2174.85 -11628.9)
(-250230 -2307.86 -10672.7)
(-250165 -2436.88 -9811.29)
(-250118 -2567.7 -9060.28)
(-250042 -2705.52 -8415.68)
(-249902 -2855.17 -7864.18)
(-249669 -3020.99 -7387.81)
(-249323 -3207.13 -6967.43)
(-248844 -3418 -6585.51)
(-248213 -3657.85 -6225.3)
(-247411 -3929.74 -5871.75)
(-246415 -4234.13 -5511.27)
(-245197 -4570.32 -5130.15)
(-243696 -4936.09 -4712.23)
(-241798 -5324.23 -4240.39)
(-239383 -5720.14 -3691.64)
(-236529 -6108.15 -3031.55)
(-233692 -6469.24 -2155.98)
(-231251 -6779.44 -901.381)
(-227577 -6975.08 922.058)
(-218673 -7057.23 3713.48)
(-201874 -7232.79 8214.85)
(-190749 -7214.02 18123.7)
(-190051 -1950.11 43104.2)
(-203120 21837.4 120789)
(-129091 16050.4 49639.4)
(-235065 3441.61 3679.95)
(-234967 3314.47 4016.98)
(-234874 3227.99 4125.87)
(-234815 3118.67 4290.6)
(-234766 3010 4426.42)
(-234737 2899.58 4543.31)
(-234729 2786.09 4631.2)
(-234741 2671.3 4679.55)
(-234779 2558.97 4676.54)
(-234845 2452.38 4608.23)
(-234940 2354.37 4456.59)
(-235061 2267.93 4200.01)
(-235200 2195.84 3814)
(-235339 2139.92 3273.47)
(-235456 2100.78 2554.86)
(-235516 2078.12 1640.29)
(-235470 2074.02 525.944)
(-235277 2088.47 -762)
(-234948 2111.75 -2184.77)
(-234469 2138.07 -3741.75)
(-233769 2162.87 -5462.76)
(-232663 2178.69 -7305.42)
(-231027 2176.76 -9015.29)
(-229050 2150.12 -10179.6)
(-227165 2103.74 -10551)
(-225720 2052.36 -10233.7)
(-224828 2012.14 -9465.26)
(-224445 1991.82 -8471.29)
(-224445 1992.63 -7426.56)
(-224685 2010.05 -6434.89)
(-225043 2037.02 -5548.68)
(-225427 2066.17 -4785.45)
(-225779 2090.68 -4143.13)
(-226066 2103.99 -3611.82)
(-226274 2100.07 -3178.31)
(-226402 2073.05 -2823.54)
(-226456 2017.37 -2529.29)
(-226441 1929.75 -2274.03)
(-226360 1806.51 -2038.67)
(-226205 1639.5 -1814.35)
(-225964 1421.12 -1603.6)
(-225602 1146.42 -1388.51)
(-225029 814.63 -1134.91)
(-224166 433.909 -795.716)
(-223167 11.8879 -323.025)
(-222682 -419.697 443.397)
(-223266 -841.555 1751.01)
(-223365 -1195.52 3846.26)
(-218626 -1452.99 6662.26)
(-207492 -1709.08 10688.6)
(-202322 -1860.36 19370.2)
(-212504 -217.18 39503.6)
(-195700 13130.7 87146.4)
(-7286.64 10764.3 34475.8)
(-224530 -1572.27 879.157)
(-224451 -1464.53 1110.12)
(-224526 -1398.06 1165.59)
(-224643 -1319.81 1269.93)
(-224843 -1238.43 1378.57)
(-225120 -1152.06 1507.36)
(-225488 -1063.51 1655.85)
(-225959 -972.477 1823.77)
(-226545 -880.152 2007.94)
(-227260 -788.866 2198.6)
(-228119 -700.872 2374.6)
(-229130 -618.895 2500.16)
(-230295 -545.625 2523.25)
(-231602 -483.49 2379.56)
(-233025 -433.81 1998.64)
(-234514 -394.848 1311.39)
(-235985 -360.606 264.319)
(-237353 -325.314 -1149.87)
(-238547 -268.289 -2878.58)
(-239629 -189.379 -4863.34)
(-240540 -99.6914 -7124.9)
(-240910 -0.128534 -9697.51)
(-240341 95.7575 -12284.3)
(-239012 150.418 -14104.8)
(-237743 133.913 -14533.9)
(-237229 59.2039 -13798.8)
(-237633 -43.4653 -12517.4)
(-238862 -158.824 -11105)
(-240686 -282.344 -9794.24)
(-242875 -413.83 -8671.41)
(-245254 -557.147 -7757.15)
(-247699 -718.021 -7038.53)
(-250126 -901.841 -6489.89)
(-252478 -1112.62 -6083.72)
(-254714 -1353.73 -5796.28)
(-256800 -1630.19 -5609.58)
(-258703 -1947.44 -5511.86)
(-260383 -2308.36 -5496.09)
(-261789 -2714.13 -5560.51)
(-262862 -3160.93 -5706.65)
(-263530 -3645.06 -5933.32)
(-263682 -4163.99 -6226.9)
(-263153 -4708.88 -6564.11)
(-261776 -5272.59 -6908.21)
(-259564 -5849.52 -7219.8)
(-256827 -6425.24 -7426.29)
(-253637 -6932.8 -7362.32)
(-248290 -7266.23 -6713.38)
(-237179 -7515.03 -5357.46)
(-217967 -8003.5 -3053.23)
(-199990 -7137.77 1867.33)
(-193126 313.792 6873.05)
(-172459 5603.15 32083.6)
(45148.5 2760.03 28245.4)
(-224315 1873.65 2078.48)
(-223687 1737.66 2336.54)
(-223330 1660.18 2462.81)
(-222935 1568.57 2635.2)
(-222596 1481.78 2811.54)
(-222291 1396.73 3007.19)
(-222036 1313.32 3224.07)
(-221836 1233.04 3460.24)
(-221704 1156.9 3710.07)
(-221652 1085.03 3962.74)
(-221692 1018.08 4197.84)
(-221833 956.74 4381.72)
(-222074 902.033 4466.53)
(-222400 855.074 4393.68)
(-222778 817.587 4099.77)
(-223150 793.159 3523.9)
(-223421 786.766 2617.85)
(-223476 801.512 1369.01)
(-223237 842.636 -170.357)
(-222610 913.19 -1949.48)
(-221476 1002.74 -4009.43)
(-219406 1111.37 -6411.97)
(-215909 1228.54 -8897)
(-211084 1316.7 -10722.1)
(-205794 1338.84 -11207.5)
(-200931 1292.67 -10486.8)
(-196884 1192.15 -9131.74)
(-193729 1053.46 -7544.78)
(-191391 889.695 -5987.46)
(-189718 708.967 -4582.82)
(-188565 514.366 -3377.62)
(-187812 305.957 -2374.45)
(-187369 81.7797 -1555.51)
(-187172 -160.337 -896.279)
(-187181 -422.541 -373.882)
(-187367 -709.365 35.7536)
(-187708 -1027.03 357.528)
(-188185 -1382.72 609.133)
(-188776 -1780.86 801.849)
(-189478 -2221.75 931.239)
(-190210 -2708.7 985.404)
(-190886 -3242 977.254)
(-191342 -3813.09 920.526)
(-191400 -4414.01 837.499)
(-191198 -5036.94 755.753)
(-191471 -5660.28 726.541)
(-192660 -6182.82 902.142)
(-192181 -6492.52 1596.48)
(-184215 -6704.49 2951.23)
(-171013 -6535.64 4930.53)
(-173630 -4228.26 7208.01)
(-205377 2901.37 13231.3)
(-144398 6475.96 22116.4)
(99886.8 1523.27 6211.65)
(-221936 -1232.58 2581.77)
(-221561 -1280.44 3194.59)
(-221444 -1301.82 3495.7)
(-221340 -1336.3 3882.42)
(-221322 -1379.86 4281.22)
(-221389 -1430.36 4708.36)
(-221561 -1489.43 5152.32)
(-221855 -1557.92 5599.65)