/*--------------------------------*- C++ -*----------------------------------*\
| =========                 |                                                 |
| \\      /  F ield         | OpenFOAM: The Open Source CFD Toolbox           |
|  \\    /   O peration     | Version:  4.1                                   |
|   \\  /    A nd           | Web:      www.OpenFOAM.org                      |
|    \\/     M anipulation  |                                                 |
\*---------------------------------------------------------------------------*/
FoamFile
{
    version     2.0;
    format      ascii;
    class       volScalarField;
    location    "13";
    object      k;
}
// * * * * * * * * * * * * * * * * * * * * * * * * * * * * * * * * * * * * * //

dimensions      [0 2 -2 0 0 0 0];

internalField   nonuniform List<scalar> 
4432
(
0.386245
0.413503
0.437519
0.466296
0.494794
0.52435
0.55208
0.585644
0.606199
0.638257
0.65822
0.645509
0.791232
0.305996
1.92676
1.03203
9.7616
76.1597
163.308
472.323
667.342
713.307
1147.65
1193.01
1175.05
895.963
657.492
524.562
433.939
484.284
442.141
419.509
621.846
403.903
206.934
143.263
55.4486
6.04229
1.70882
1.69376
1.51706
1.40598
1.22145
1.07273
0.877405
0.533704
1.38323
1.65878
0.87348
2.57497
8.14512
19.277
4.70232
7.72645
0.389086
0.410822
0.441053
0.464054
0.494458
0.520493
0.551053
0.576634
0.604988
0.627176
0.655393
0.64043
0.761286
0.441399
1.44744
1.23653
13.1969
54.7573
146.254
371.057
598.005
648.347
939.391
958.054
868.186
637.131
462.605
387.297
356.664
306.451
242.707
115.861
61.5851
52.7263
24.8117
10.6421
5.91594
2.83975
0.618119
1.07745
1.11555
0.939486
0.724375
0.876728
0.416594
0.441169
0.945997
9.52756
11.991
30.0262
78.4645
25.7278
14.4598
12.7388
0.00194059
0.000364257
0.00455102
0.0113684
0.0203443
0.0290241
0.0397941
0.0491272
0.065467
0.0725879
0.107805
0.0906063
0.18814
0.0939327
0.336537
0.695773
1.22741
3.75842
146.646
788.101
1109.12
1570.24
2027.35
2128.28
2037.18
1822.35
1302.93
934.104
1042.62
1583.95
1474.38
2331.16
2671.06
610.501
599.633
37.2908
61.828
12.5104
9.18274
3.52027
8.90707
14.8265
16.0106
9.953
1.05415
0.0406403
0.684812
0.147572
3.89961
21.6798
113.951
30.503
1.42589
7.0903
0.00194077
0.000360726
0.00471859
0.0112439
0.0201825
0.0293469
0.0390983
0.0495551
0.0646533
0.070629
0.120624
0.121808
0.195085
0.177964
0.313347
0.193595
0.509767
12.6324
232.2
742.74
1017.22
1238.42
1596.53
1561.17
1631.26
723.716
350.985
429.954
624.17
270.676
96.2306
213.689
253.594
83.8884
27.4347
2.98257
2.06011
0.211152
0.296062
0.298391
1.08508
1.24795
0.612532
0.946877
0.361307
0.0494694
1.01719
11.472
4.44128
66.0012
99.3336
12.1837
4.16149
8.70681
0.00192995
8.42809e-06
3.11584e-06
6.74757e-05
0.000315874
0.000568217
0.00097741
0.00175001
0.0040229
0.00614058
0.0106307
0.0146082
0.0159488
0.0178405
0.0263942
0.077643
0.00389171
58.7842
845.635
961.11
1035.04
1197.41
1371.17
1369.16
1220.67
574.91
402.463
437.249
619.499
927.013
726.24
951.036
847.421
194.656
138.219
17.1245
22.3102
6.71058
14.3037
20.3118
40.329
19.9801
17.7982
30.0102
3.16735
0.369252
0.757485
7.67442
41.333
194.156
1237.58
533.442
20.3899
0.713171
0.00193008
8.42484e-06
3.33852e-06
6.08461e-05
0.000346934
0.000344209
0.00176765
0.00259262
0.00297442
0.00678184
0.0115997
0.012148
0.0148438
0.0463033
0.061853
0.356198
22.0184
277.612
751.132
844.5
886.929
946.7
955.243
498.403
482.845
114.187
108.666
179.029
179.309
81.8897
135.181
390.703
332.921
62.3882
23.2818
7.67507
3.19045
2.33411
1.28449
1.45536
3.77955
3.31905
1.28251
2.68262
0.42133
0.00476461
4.58193
12.8781
34.6488
142.248
1353.86
62.0317
7.90473
0.578741
0.00192981
8.41345e-06
5.76518e-08
2.95937e-07
5.58286e-06
6.51624e-06
2.66818e-05
0.000172689
0.000197323
0.000148699
0.00106282
0.00142623
0.00123992
0.00234392
0.000770842
0.0162185
0.443747
5.77539
542.186
718.735
704.901
725.265
831.254
851.931
840.596
305.067
231.722
333.085
509.906
554.283
847.274
1281.15
1168.64
319.694
130.096
12.1545
4.66043
3.84242
4.79664
11.9068
118.39
23.4141
0.495314
27.5513
12.2878
0.0315011
0.15413
3.50543
5.67154
27.0268
107.942
104.534
39.6631
6.12429
0.00192995
8.41198e-06
5.63356e-08
2.6616e-07
9.2471e-06
3.3191e-05
3.83204e-05
9.82311e-05
1.68417e-05
0.000387692
0.000694622
0.00177827
0.00225779
0.00923204
0.00272081
0.0226469
13.4372
202.656
483.565
612.74
560.699
506.122
515.051
788.436
687.874
316.506
325.287
394.936
484.502
383.807
557.005
825.295
470.299
134.336
19.6814
1.493
0.497179
0.357246
0.00398374
0.0297844
3.38352
0.38532
1.00008e-05
0.510393
0.298534
0.11613
41.3429
45.5371
0.20235
22.1712
133.806
7.88564
7.69498
1.44789
0.00192971
8.41372e-06
5.74595e-08
1.67065e-09
1.91009e-08
6.08967e-07
7.72305e-07
2.54754e-07
2.23149e-06
1.51441e-05
2.05442e-05
7.56881e-05
1.87456e-05
2.75614e-05
4.00453e-05
0.000883256
0.00178229
0.829098
24.213
294.273
431.839
345.034
494.571
428.453
601.076
384.689
322.757
787.995
871.483
928.58
1283.51
1282.51
1185
1157.65
1103.26
141.195
1.83131
0.472806
1.2844
10.6163
81.4325
22.9152
0.487464
0.131346
0.0164555
0.000899891
0.000290575
0.113434
0.00129622
8.78329e-07
0.00069453
7.57819e-07
3.30526
0.510358
0.00192984
8.41257e-06
5.78691e-08
1.5979e-09
2.07105e-08
3.62216e-08
4.13953e-07
5.32701e-08
2.44856e-06
1.02562e-05
1.01386e-05
5.85058e-05
2.17679e-05
0.000183966
1.86675e-05
0.0482331
0.555257
2.21131
12.8319
149.897
211.227
151.37
320.497
632.711
501.148
352.423
530.087
814.835
830.801
832.064
883.565
955.748
888.954
526.74
78.5598
9.74406
0.00416025
0.0301171
0.000331976
1.43614
6.58749
0.00428467
0.00033791
0.703607
0.000350392
2.66177e-07
0.000369538
0.000790183
3.14061e-07
0.000594374
0.116244
0.66683
0.641248
0.120658
0.00192951
8.41519e-06
5.88335e-08
1.72336e-09
4.61378e-11
6.9349e-11
7.82099e-10
5.04693e-10
5.17903e-09
2.31164e-08
1.28763e-07
3.67893e-07
4.09705e-08
2.95015e-08
6.753e-08
9.31968e-06
9.69859e-07
0.00147031
0.0240602
1.27116
3.70484
36.4525
88.4844
441.457
310.53
254.441
249.149
312.977
754.686
761.147
905.441
903.383
843.923
754.72
145.281
2.16777
0.00311775
1.31357e-09
1.09629e-10
1.00786
1.47811
2.03279
0.0406282
0.0138667
0.0350439
2.22418e-07
4.30891e-08
0.000960229
0.000188038
1.43688e-07
5.89334e-05
1.26708e-05
5.17614e-06
7.84809e-06
0.00192964
8.4143e-06
5.87984e-08
1.71896e-09
4.87711e-11
5.15648e-11
5.66173e-10
9.52601e-11
1.23937e-08
1.43454e-07
1.28761e-07
8.50779e-08
3.93734e-08
3.46445e-07
3.44972e-08
0.000167435
0.00199991
0.00123535
0.0121715
0.551463
0.419667
0.31301
34.5421
282.501
281.674
251.008
247.139
619.789
620.127
637.256
695.639
715.999
656.751
13.7742
8.82757
0.0497322
1.05068e-07
1.64156e-11
1.75703e-12
5.14609e-12
0.672136
0.00035758
6.26928e-06
1.05459e-05
0.000266883
2.22808e-05
8.5688e-10
2.81282e-08
1.56184e-10
8.45879e-07
0.00969329
7.41634e-05
7.30429e-06
8.31192e-06
0.00192937
8.41585e-06
5.89486e-08
1.73354e-09
2.31142e-11
3.95289e-12
5.48486e-12
2.35135e-12
1.40602e-11
6.29341e-14
4.1385e-10
1.24304e-09
2.56516e-10
1.72711e-10
4.61815e-10
2.17642e-08
9.9555e-11
2.32634e-07
3.19308e-06
0.000158976
0.000104782
0.0732241
0.877968
238.618
217.685
197.429
182.616
179.318
360.568
406.351
685.294
720.489
707.73
225.81
0.897069
0.0026834
3.81301e-11
2.35933e-12
1.98579e-12
7.21629e-11
2.07465e-06
1.88477e-06
7.17174e-05
8.3337e-07
3.94985e-05
3.31094e-06
1.07537e-08
1.18273e-06
1.57006e-09
4.8198e-11
7.21326e-08
7.84378e-07
1.33009e-06
1.68036e-06
0.00192949
8.41469e-06
5.89029e-08
1.72893e-09
2.29472e-11
3.83288e-12
5.24426e-12
4.47182e-12
3.36017e-11
3.80589e-10
3.44218e-10
2.61426e-10
2.52138e-10
2.50788e-09
3.01155e-10
6.42431e-10
2.62828e-07
1.84364e-07
2.58419e-06
8.93997e-05
1.07116e-05
0.000140096
0.429054
45.3362
190.304
184.706
162.751
430.236
344.912
412.259
378.386
510.6
379.607
1.00011
0.0112032
4.84015e-06
4.09625e-11
4.28031e-12
4.65887e-12
6.17421e-11
8.76599e-09
1.57796e-07
6.49893e-06
9.49475e-07
1.44378e-08
1.20418e-09
9.13984e-12
5.91444e-10
9.71314e-12
2.21335e-10
6.19017e-08
7.05083e-07
2.71212e-07
8.95215e-07
0.0019291
8.41669e-06
5.78427e-08
1.67403e-09
2.2329e-11
4.37638e-12
4.3287e-12
4.19163e-12
4.26264e-12
4.39574e-12
5.37057e-12
8.11615e-12
5.58177e-12
4.94265e-12
6.46905e-12
1.87525e-10
1.13469e-12
1.39614e-09
1.54554e-08
1.09344e-07
2.50172e-08
2.87677e-06
0.000335494
40.7211
148.668
152.889
150.274
20.8357
4.56425
4.81816
114.244
161.908
220.774
10.5921
0.000306402
3.26886e-08
5.40051e-12
4.6045e-12
4.46653e-12
1.43059e-12
1.7289e-07
1.57066e-07
5.97649e-06
8.66144e-08
2.05885e-07
1.71608e-08
4.38197e-11
2.05287e-09
1.56031e-11
3.14533e-09
8.11645e-08
4.26613e-07
7.52256e-07
7.63695e-07
0.00192923
8.41582e-06
5.77876e-08
1.67027e-09
2.2285e-11
4.42485e-12
4.12597e-12
4.12833e-12
4.09911e-12
5.17284e-12
5.16296e-12
4.61435e-12
2.46529e-12
1.50368e-11
1.89679e-12
9.50975e-12
1.03731e-10
1.23044e-09
1.60638e-08
7.91411e-08
2.52051e-08
4.69706e-08
0.00170876
0.453407
29.5427
133.802
8.60505
129.525
23.3862
55.0859
6.76375
39.0353
6.64678
0.000292065
9.30939e-07
1.82838e-09
2.949e-11
5.07278e-12
4.43666e-12
4.60587e-12
4.51585e-12
4.798e-12
8.14155e-12
8.39676e-11
3.53015e-10
3.40002e-12
4.52566e-12
8.55683e-12
5.5214e-11
2.69084e-09
3.75166e-08
2.82225e-07
3.24162e-07
5.75084e-07
0.00192892
8.41742e-06
5.79384e-08
1.68106e-09
2.2505e-11
4.3948e-12
4.34037e-12
4.23859e-12
4.23269e-12
4.46373e-12
4.26238e-12
4.15058e-12
4.33206e-12
4.37242e-12
4.43858e-12
5.55356e-12
8.95401e-13
1.32795e-11
1.28429e-10
9.14088e-10
4.21226e-11
2.56735e-08
4.78158e-08
0.00831403
66.4447
113.5
5.53192
0.0194145
0.000833605
0.000175486
0.670686
1.58449
6.12302
0.0489518
2.85232e-06
3.66487e-08
5.79503e-10
1.17509e-11
4.47537e-12
4.89034e-12
4.65352e-12
5.11186e-12
6.15514e-12
4.13133e-11
8.77502e-10
7.44699e-11
6.67646e-12
5.28447e-11
2.42097e-09
6.35896e-08
1.72486e-07
3.64881e-07
5.54931e-07
4.75755e-07
0.00192904
8.4164e-06
5.78943e-08
1.67787e-09
2.21224e-11
4.3346e-12
4.21149e-12
4.18055e-12
4.21307e-12
4.40629e-12
4.22505e-12
4.12202e-12
4.34378e-12
4.37891e-12
4.3183e-12
4.4715e-12
4.37575e-12
2.1671e-11
1.39036e-10
7.38335e-10
2.36555e-10
1.54749e-10
8.84908e-07
0.000184667
0.0192568
7.85936
0.0144146
0.865507
0.0901804
0.240975
0.006899
0.129009
0.00191868
6.5883e-07
1.45758e-08
2.60085e-10
1.36968e-11
4.78971e-12
4.49899e-12
4.96109e-12
4.67975e-12
4.74457e-12
4.7568e-12
4.95455e-12
2.56891e-12
4.64477e-12
4.57927e-12
1.38287e-11
9.42459e-10
3.26878e-08
1.08824e-07
2.51505e-07
3.61692e-07
4.59245e-07
0.0019286
8.41812e-06
5.80982e-08
1.69224e-09
2.25672e-11
4.29665e-12
4.22409e-12
4.08261e-12
4.0864e-12
4.22516e-12
4.22436e-12
4.28139e-12
4.2605e-12
4.27651e-12
4.338e-12
4.32834e-12
4.28496e-12
4.49506e-12
6.10559e-12
1.96076e-11
2.68387e-12
2.34689e-10
4.30515e-10
0.117729
1.40202
4.41795
0.0134432
8.71764e-08
6.57958e-08
1.64243e-08
0.000461511
0.00106793
0.00363924
7.76136e-06
5.77474e-08
1.23461e-09
2.99924e-11
6.09343e-12
4.96564e-12
4.95986e-12
4.76283e-12
4.90926e-12
4.83021e-12
4.90751e-12
5.83362e-12
4.81602e-12
4.87061e-12
8.91486e-12
2.70817e-10
7.33178e-09
3.32304e-08
1.18915e-07
2.06835e-07
3.50716e-07
0.00192873
8.41786e-06
5.80626e-08
1.68355e-09
2.23515e-11
4.38903e-12
4.11526e-12
4.1612e-12
4.27016e-12
4.2755e-12
4.31408e-12
4.30076e-12
4.36395e-12
4.26216e-12
4.22268e-12
4.34696e-12
4.36765e-12
4.63885e-12
6.26501e-12
1.08033e-11
8.77497e-12
6.13324e-12
3.46509e-09
2.35509e-08
1.35993e-06
0.00293567
3.15119e-07
0.000124626
3.91399e-05
8.34225e-05
1.6463e-06
1.84516e-05
3.53832e-07
8.69819e-09
2.27467e-10
1.54595e-11
5.27755e-12
5.15691e-12
4.85261e-12
4.88013e-12
5.02866e-12
4.83957e-12
4.72579e-12
4.88163e-12
4.74789e-12
4.7108e-12
4.60943e-12
5.24382e-12
3.10695e-11
1.88491e-09
3.54359e-08
1.85325e-07
3.49789e-07
5.80482e-07
0.0019284
8.41897e-06
5.82112e-08
1.69537e-09
2.26295e-11
4.41365e-12
4.04995e-12
4.07492e-12
4.36028e-12
4.15303e-12
4.15686e-12
4.23319e-12
4.31381e-12
4.43111e-12
4.42717e-12
4.41367e-12
4.46091e-12
4.38729e-12
4.35721e-12
4.91922e-12
4.3903e-12
7.28993e-12
1.28442e-11
0.000828575
0.00991756
0.0142491
0.000111625
9.77035e-11
4.74073e-10
1.4525e-08
9.71554e-08
1.09265e-07
3.4876e-07
2.13323e-08
6.33172e-10
3.72371e-11
6.30337e-12
5.05776e-12
4.90152e-12
4.99693e-12
5.07516e-12
5.11266e-12
4.97859e-12
4.92733e-12
5.17844e-12
5.57959e-12
5.04399e-12
4.94173e-12
8.17835e-12
1.04798e-10
1.29539e-09
4.63032e-09
9.50546e-10
2.21638e-08
0.00192852
8.4185e-06
5.81696e-08
1.69233e-09
2.23759e-11
4.27437e-12
4.12811e-12
4.15535e-12
4.25615e-12
4.22653e-12
4.23929e-12
4.26899e-12
4.40772e-12
4.31663e-12
4.24734e-12
4.4346e-12
4.34337e-12
4.32877e-12
4.39192e-12
4.77927e-12
4.5037e-12
4.39628e-12
6.75956e-11
3.90636e-10
7.84928e-09
6.61944e-08
3.67941e-10
1.62058e-08
5.46783e-08
7.07838e-08
1.10713e-08
2.09762e-08
2.43078e-09
9.06053e-11
1.00996e-11
4.99921e-12
4.66199e-12
5.13339e-12
5.1618e-12
5.3076e-12
5.15687e-12
5.16855e-12
5.43881e-12
5.15814e-12
5.11983e-12
5.84504e-12
5.45124e-12
5.06202e-12
5.31507e-12
2.16537e-11
1.06809e-09
5.36072e-09
8.58969e-10
5.07952e-08
0.00192805
8.41872e-06
5.82824e-08
1.69666e-09
2.21796e-11
4.22439e-12
4.07496e-12
4.08904e-12
4.17655e-12
4.2026e-12
4.20265e-12
4.22977e-12
4.46821e-12
4.36575e-12
4.38681e-12
4.67894e-12
4.30845e-12
4.27692e-12
4.36392e-12
4.37348e-12
4.41516e-12
4.43375e-12
5.42241e-12
1.41163e-05
0.000168717
0.000178631
7.75943e-06
7.66079e-11
1.18018e-11
8.4959e-11
4.90508e-10
5.33188e-10
1.2336e-09
1.05279e-10
1.07915e-11
5.37888e-12
4.76553e-12
4.60686e-12
4.69136e-12
4.70946e-12
5.08684e-12
5.15353e-12
5.20842e-12
5.2249e-12
5.36585e-12
5.47216e-12
6.02756e-12
5.83099e-12
5.76414e-12
6.88749e-12
1.86996e-11
1.39951e-11
2.65592e-11
3.02681e-09
0.00192817
8.4188e-06
5.82236e-08
1.69875e-09
2.274e-11
4.3873e-12
4.10225e-12
4.1405e-12
4.2931e-12
4.29158e-12
4.4202e-12
4.38043e-12
4.40526e-12
4.55897e-12
4.29986e-12
4.2767e-12
4.40735e-12
4.38651e-12
4.39322e-12
4.38339e-12
4.35236e-12
4.39417e-12
5.57414e-12
7.88587e-12
1.05115e-08
1.65681e-05
2.68369e-11
1.27674e-10
8.53984e-10
5.12736e-10
7.89393e-11
1.21986e-10
2.043e-11
5.13899e-12
4.74907e-12
5.30912e-12
4.87134e-12
4.60446e-12
4.86067e-12
5.0062e-12
5.3061e-12
5.21771e-12
5.34528e-12
5.4506e-12
5.57208e-12
6.43076e-12
5.8717e-12
5.76509e-12
6.34067e-12
6.25291e-12
9.82712e-12
8.46139e-12
6.05686e-10
2.14589e-09
0.00192784
8.42363e-06
6.01923e-08
1.82154e-09
2.49742e-11
4.52312e-12
4.481e-12
4.29003e-12
4.09582e-12
4.33178e-12
4.20214e-12
4.20264e-12
4.40793e-12
4.22584e-12
4.2175e-12
4.33675e-12
4.28185e-12
4.35194e-12
4.65644e-12
4.41218e-12
4.44032e-12
1.04032e-11
4.31766e-12
4.12985e-05
4.95006e-05
1.33596e-06
1.75471e-08
1.57786e-05
5.48261e-06
4.28111e-12
4.12067e-12
6.98568e-12
9.12782e-12
5.11512e-12
4.63195e-12
4.66882e-12
4.71967e-12
4.61075e-12
4.72763e-12
4.88142e-12
4.88785e-12
5.06326e-12
5.22188e-12
5.85632e-12
5.56302e-12
5.50044e-12
5.91775e-12
5.95503e-12
6.93165e-12
7.08406e-12
7.47973e-12
7.90508e-12
8.03949e-12
1.02969e-10
0.00192795
8.42389e-06
6.0174e-08
1.81901e-09
2.49536e-11
4.51695e-12
4.46784e-12
4.28331e-12
4.13591e-12
4.37839e-12
4.37228e-12
4.40798e-12
4.41851e-12
4.40811e-12
4.56397e-12
4.33274e-12
4.28839e-12
4.63483e-12
4.58269e-12
4.8324e-12
4.44436e-12
4.46494e-12
3.82059e-12
0.0107173
0.010547
2.01539e-05
1.10327e-07
0.00072894
8.58666e-12
1.27141e-11
5.59885e-12
2.21898e-08
1.01246e-09
4.83766e-12
4.60882e-12
4.74626e-12
4.87384e-12
5.15657e-12
3.69019e-12
2.77026e-11
6.18293e-12
5.31611e-12
5.06861e-12
5.49217e-12
5.51775e-12
5.73891e-12
5.96273e-12
7.98423e-12
7.16427e-12
6.49197e-12
8.48232e-12
7.64973e-12
6.52633e-12
1.00869e-10
0.00192747
8.41382e-06
5.90882e-08
1.76784e-09
2.46456e-11
4.5695e-12
4.56907e-12
4.29643e-12
4.2585e-12
4.69953e-12
4.28981e-12
4.23336e-12
4.56705e-12
4.44399e-12
4.3876e-12
4.54598e-12
4.53888e-12
4.62839e-12
4.60201e-12
4.65329e-12
4.8778e-12
4.06731e-05
0.000487494
1.74937e-06
0.000742388
0.0011151
0.000355702
0.000188998
6.5692e-05
2.387e-05
2.48989e-07
8.96978e-09
1.8219e-10
1.36048e-11
5.24617e-12
4.49429e-12
4.93168e-12
4.81972e-12
4.75188e-12
5.12985e-12
5.17092e-12
5.01615e-12
4.97554e-12
5.2559e-12
5.2805e-12
5.23394e-12
5.21259e-12
5.51093e-12
5.83973e-12
6.4174e-12
6.97284e-12
7.57095e-12
8.29626e-12
1.2532e-11
0.0019276
8.42746e-06
5.99746e-08
1.80608e-09
2.43586e-11
4.43919e-12
4.48429e-12
4.2771e-12
4.20589e-12
4.6541e-12
4.23302e-12
4.23601e-12
4.26188e-12
4.26505e-12
4.47377e-12
4.39175e-12
4.41377e-12
4.44851e-12
4.6304e-12
4.51165e-12
4.25128e-12
2.21016e-11
1.08208
0.153135
0.0256085
0.3739
0.0302524
0.00873205
0.00282195
0.000994844
4.99076e-05
2.65954e-07
1.21086e-08
3.15662e-10
1.99287e-11
4.86697e-12
5.71769e-12
1.30854e-12
3.1269e-10
3.74415e-09
5.09952e-11
8.67867e-12
5.05191e-12
5.28264e-12
5.31556e-12
5.29e-12
5.49694e-12
7.58301e-12
7.08359e-12
6.37593e-12
7.29046e-12
7.28051e-12
7.33201e-12
1.0819e-11
0.00192728
8.42763e-06
6.04787e-08
1.8422e-09
2.54319e-11
4.53639e-12
4.52121e-12
4.29762e-12
4.22552e-12
4.56081e-12
4.52126e-12
4.6038e-12
4.47525e-12
4.47586e-12
4.6508e-12
4.41699e-12
4.28126e-12
4.59281e-12
4.4482e-12
4.47979e-12
4.63351e-12
4.54582e-07
1.67877e-07
0.00257381
0.00435569
0.00423196
0.00886071
0.00222141
0.000718623
0.000112585
1.7328e-05
1.03069e-06
9.17823e-10
3.05493e-11
5.21207e-12
5.01044e-12
4.89785e-12
5.91332e-12
2.34278e-11
1.78229e-11
6.08801e-12
6.1405e-12
5.73999e-12
5.71758e-12
5.8591e-12
5.74362e-12
5.77921e-12
6.84686e-12
6.83987e-12
6.77693e-12
7.60751e-12
8.05142e-12
9.14348e-12
1.37344e-11
0.00192807
8.405e-06
5.89604e-08
1.77366e-09
2.4875e-11
4.39944e-12
4.29861e-12
4.60105e-12
4.26729e-12
4.29721e-12
4.62791e-12
4.26314e-12
4.19419e-12
4.57817e-12
4.41348e-12
4.35856e-12
4.53662e-12
4.36623e-12
4.35464e-12
4.82454e-12
3.94896e-11
8.7135e-05
9.57485e-05
7.12138
0.512525
0.22215
0.202377
0.0286527
0.00937457
0.00342561
0.000206612
1.46579e-06
5.74958e-09
1.77237e-10
1.01578e-11
1.7448e-12
1.16603e-10
1.02084e-11
2.70828e-07
5.09993e-07
3.75478e-09
3.45235e-10
2.01458e-11
6.39255e-12
6.16892e-12
6.09096e-12
5.36276e-12
1.20622e-11
8.13868e-12
7.05367e-12
1.03854e-11
9.78441e-12
8.29515e-12
1.42352e-11
0.00192753
8.37481e-06
5.77728e-08
1.71537e-09
2.3761e-11
4.46652e-12
4.60888e-12
4.29817e-12
4.24011e-12
4.68457e-12
4.30062e-12
4.25679e-12
4.58977e-12
4.55405e-12
4.62806e-12
4.64053e-12
4.64568e-12
4.80763e-12
4.42746e-12
4.31786e-12
4.87176e-12
4.66671e-06
1.46925e-05
7.34349e-05
0.695156
0.0912438
0.0300008
0.0101867
0.00121179
1.11802e-05
2.4736e-08
2.50237e-10
1.04649e-11
4.96769e-12
4.71373e-12
1.31347e-11
1.49618e-10
2.23293e-09
1.29821e-09
5.80777e-11
8.97725e-12
5.14393e-12
5.10818e-12
5.25742e-12
5.64081e-12
4.01704e-12
8.03036e-11
4.82295e-11
9.99387e-12
8.9065e-12
7.70942e-12
8.53768e-12
1.24963e-11
0.00192695
8.39052e-06
6.03049e-08
1.83852e-09
2.57853e-11
4.78296e-12
4.23991e-12
4.13475e-12
4.25268e-12
4.26505e-12
4.34221e-12
4.43671e-12
4.27357e-12
4.2671e-12
4.482e-12
4.45541e-12
4.45789e-12
4.52902e-12
4.39047e-12
4.40136e-12
5.40839e-12
4.58741e-08
0.3074
1.97796
0.95384
0.263474
0.0583275
0.0225396
0.00867248
0.00136394
3.11453e-05
3.75952e-08
1.2328e-10
1.04111e-11
4.63306e-12
6.33445e-08
2.3357e-07
2.73974e-06
0.000120847
4.51303e-07
4.91131e-08
1.67849e-09
1.17121e-10
9.32617e-12
7.70423e-12
5.22048e-11
6.09366e-10
2.41314e-10
1.94541e-11
7.64044e-12
6.47323e-12
7.1243e-12
1.2091e-11
0.00192675
8.40249e-06
5.97672e-08
1.81626e-09
2.55116e-11
4.38008e-12
4.26847e-12
4.48129e-12
4.34596e-12
4.33069e-12
4.6148e-12
4.28533e-12
4.25053e-12
4.65861e-12
4.45783e-12
4.45075e-12
4.57673e-12
4.58871e-12
4.75126e-12
4.6137e-12
7.66644e-12
3.91014e-07
0.00537933
0.000598582
0.0376446
0.105075
0.056035
0.0319527
0.00641275
6.94308e-05
1.47153e-07
1.20196e-09
2.9537e-11
5.47317e-12
3.69364e-12
1.17653e-10
1.40377e-09
5.5635e-08
5.07865e-07
2.47472e-07
8.2787e-09
3.97256e-10
1.66973e-11
5.80772e-12
5.78408e-12
8.54537e-12
2.71851e-10
3.24964e-09
1.94794e-09
3.35689e-10
1.09152e-10
1.98321e-11
9.54183e-12
1.19647e-11
0.00192684
8.40305e-06
5.97428e-08
1.81527e-09
2.54479e-11
4.39317e-12
4.26443e-12
4.47634e-12
4.32688e-12
4.31708e-12
4.59977e-12
4.33108e-12
4.21428e-12
4.50553e-12
4.37526e-12
4.36295e-12
4.3985e-12
4.57248e-12
4.44231e-12
4.28305e-12
4.65778e-12
3.15816e-10
0.0641446
0.0972847
0.763753
0.734163
0.244519
0.0926721
0.0347698
0.00251438
4.38189e-05
5.74873e-08
3.0874e-10
1.15093e-11
5.98136e-12
7.57414e-07
9.09124e-06
5.37426e-05
0.000635849
0.0148744
5.64553e-06
6.74995e-08
2.78138e-11
2.51173e-10
2.71609e-11
7.64981e-11
5.7634e-09
6.90843e-08
2.53067e-08
1.51861e-09
2.56772e-10
2.36768e-11
9.10942e-12
1.19788e-11
0.00192644
8.4252e-06
6.07826e-08
1.87309e-09
2.63604e-11
4.6165e-12
4.45195e-12
4.5914e-12
4.30067e-12
4.22835e-12
4.65092e-12
4.30791e-12
4.21343e-12
4.28255e-12
4.38594e-12
4.38939e-12
4.41596e-12
4.87094e-12
4.39208e-12
4.39599e-12
7.08843e-12
1.182e-06
1.41622e-05
0.000199691
0.00140358
0.00279447
0.00916425
0.00346774
0.000233863
3.57221e-06
5.26665e-09
4.12102e-11
5.19314e-12
4.78372e-12
1.08556e-12
3.67482e-08
3.7305e-07
2.50171e-05
7.02226e-05
6.97579e-07
6.4889e-07
7.27162e-09
9.65659e-12
6.01692e-12
9.42046e-12
3.16368e-11
1.71248e-08
2.05467e-07
1.35076e-07
2.07407e-08
3.40213e-09
5.06849e-10
7.63469e-11
2.51274e-11
0.00192654
8.42643e-06
6.07344e-08
1.86957e-09
2.62518e-11
4.60358e-12
4.44024e-12
4.57894e-12
4.28778e-12
4.25653e-12
4.63867e-12
4.34661e-12
4.21977e-12
4.24104e-12
4.24678e-12
4.38263e-12
4.39507e-12
4.67764e-12
4.40312e-12
4.32277e-12
1.42673e-11
0.000249896
0.00299413
0.000250145
0.0202252
0.0515665
0.0565926
0.0217477
0.00135633
2.26501e-05
3.16629e-08
1.20468e-10
7.54986e-12
4.64677e-12
4.541e-12
0.000114477
0.00137404
0.0568616
0.41704
0.886413
0.00810425
5.21089e-05
1.53547e-09
1.75972e-08
1.77045e-09
2.72652e-09
4.02899e-07
4.36842e-06
1.29062e-06
7.31667e-08
1.58878e-08
1.32456e-09
1.18005e-10
3.53875e-11
0.00192628
8.42269e-06
6.0411e-08
1.85289e-09
2.58598e-11
4.54998e-12
4.35443e-12
4.34484e-12
4.45976e-12
4.47945e-12
4.48966e-12
4.63816e-12
4.34546e-12
4.1869e-12
4.35949e-12
4.38383e-12
4.75313e-12
4.40277e-12
4.2674e-12
4.40406e-12
4.54831e-12
1.18123e-07
1.41501e-06
6.56052e-06
5.29813e-05
5.97983e-05
0.00106545
0.000257093
3.84618e-06
6.6022e-08
1.9736e-09
4.31778e-11
5.10977e-12
6.64001e-12
5.66651e-09
6.80039e-08
0.00010446
0.0175152
0.0475443
0.000485922
0.00372319
3.72099e-06
2.40641e-10
3.28653e-11
7.99074e-11
1.15447e-09
1.15648e-06
5.53451e-06
3.55744e-06
8.29126e-07
1.50321e-07
2.71104e-08
3.60211e-09
5.77893e-10
0.00192637
8.42335e-06
6.03691e-08
1.8495e-09
2.57541e-11
4.53691e-12
4.3423e-12
4.33435e-12
4.40735e-12
4.45344e-12
4.46999e-12
4.59619e-12
4.29658e-12
4.17898e-12
4.31695e-12
4.32748e-12
4.69713e-12
4.41675e-12
4.31313e-12
4.3287e-12
5.09129e-12
1.46943e-05
0.000176025
2.41121e-05
0.00108655
0.00182545
0.0100162
0.00158718
6.86809e-06
1.03196e-08
1.13378e-10
8.1062e-12
4.54156e-12
4.4224e-12
5.27807e-12
0.0442094
0.5306
0.263927
20.0059
10.7439
3.20632
0.0180392
8.33915e-07
1.64577e-07
5.58437e-08
1.85784e-07
4.63649e-07
0.000636087
7.79373e-05
1.13872e-06
2.97541e-07
3.48464e-08
3.78045e-09
6.86705e-10
0.001926
8.42217e-06
6.04705e-08
1.85297e-09
2.5393e-11
4.39837e-12
4.21844e-12
4.25737e-12
4.30251e-12
4.33228e-12
4.51387e-12
4.3014e-12
4.25191e-12
4.43772e-12
4.45987e-12
4.58755e-12
4.39763e-12
4.34949e-12
4.44718e-12
4.55482e-12
4.53856e-12
3.87452e-12
4.99133e-08
6.98639e-07
1.41766e-06
3.81434e-06
3.832e-05
2.95768e-06
1.76267e-08
6.69706e-10
2.31506e-11
4.94004e-12
1.49321e-10
1.77322e-09
6.59521e-05
0.000791589
0.168924
5.25256
10.7157
0.652369
2.95437
0.00640701
1.84952e-07
5.41161e-10
4.28737e-11
6.12509e-07
7.87841e-06
0.000148998
3.15076e-05
6.9018e-06
2.20856e-06
6.39925e-07
1.13856e-07
1.46551e-08
0.00192609
8.42353e-06
6.04272e-08
1.84983e-09
2.52884e-11
4.38714e-12
4.20591e-12
4.24365e-12
4.28351e-12
4.31404e-12
4.51239e-12
4.29261e-12
4.24109e-12
4.35278e-12
4.32062e-12
4.29729e-12
4.37663e-12
4.61977e-12
4.62367e-12
4.70359e-12
4.46382e-12
1.65798e-07
1.98657e-06
6.91109e-06
1.07043e-05
0.000347857
0.000604886
5.12085e-05
8.86651e-08
3.53299e-10
1.67607e-11
4.74056e-12
4.5703e-12
1.6681e-10
2.1932e-10
1.61807e-05
15.4429
36.8781
177.48
68.0399
101.009
2.02604
0.000442592
2.31068e-06
2.11991e-06
8.26286e-05
0.00105473
0.0265476
0.00251395
0.000113443
5.89573e-06
2.99974e-07
5.66592e-08
8.23942e-09
0.00192586
8.42299e-06
6.04675e-08
1.85473e-09
2.54892e-11
4.40987e-12
4.22812e-12
4.28251e-12
4.31491e-12
4.33572e-12
4.4874e-12
4.35443e-12
4.35439e-12
4.68412e-12
4.36028e-12
4.27536e-12
4.28264e-12
4.23097e-12
4.2975e-12
4.40973e-12
4.79175e-12
6.0818e-13
2.4115e-10
1.45161e-08
2.02329e-08
1.72305e-07
1.55995e-07
1.44072e-08
5.33039e-10
1.67772e-11
4.68667e-12
4.60455e-12
4.5926e-12
1.48174e-10
0.0696791
0.836265
22.9791
117.272
144.546
59.1168
97.6711
0.988897
6.56027e-05
1.9023e-08
8.0105e-10
0.000308849
0.000762108
0.00106724
0.000136566
3.30234e-05
8.01258e-06
1.59548e-06
4.68508e-07
8.58608e-08
0.00192595
8.42416e-06
6.04354e-08
1.8523e-09
2.53918e-11
4.40455e-12
4.22378e-12
4.26117e-12
4.27561e-12
4.29749e-12
4.46222e-12
4.34437e-12
4.3455e-12
4.67684e-12
4.36897e-12
4.26223e-12
4.61526e-12
4.34728e-12
4.35012e-12
4.41812e-12
4.6472e-12
7.9309e-10
9.49609e-09
1.53647e-07
2.00926e-07
1.18596e-05
1.74062e-06
4.37588e-08
8.06938e-10
2.14405e-11
5.44788e-12
4.7791e-12
5.46569e-10
1.84581e-06
2.21536e-05
0.100594
98.7641
235.44
254.217
254.031
194.966
25.2169
0.0366743
0.000666787
0.00100819
0.0354651
0.180699
0.204083
0.0151247
0.00226078
0.000177318
2.76609e-06
1.11723e-07
1.76559e-08
0.00192563
8.42225e-06
6.05474e-08
1.86117e-09
2.55748e-11
4.40861e-12
4.22671e-12
4.2787e-12
4.31091e-12
4.33373e-12
4.49827e-12
4.25193e-12
4.23947e-12
4.39967e-12
4.38873e-12
4.72518e-12
4.35458e-12
4.20154e-12
4.20449e-12
4.225e-12
4.47584e-12
4.48702e-12
7.05522e-12
6.77217e-11
9.07253e-11
1.12983e-09
8.33256e-10
6.68253e-11
6.86055e-12
4.68343e-12
4.41457e-12
4.29931e-12
9.34425e-11
7.78662e-12
3.04534
28.5892
230.4
288.385
295.541
273.136
136.005
0.204277
4.04509e-05
5.037e-07
9.31693e-09
0.0164172
0.01333
0.00442168
0.000306266
5.19082e-05
8.52455e-06
9.29008e-07
7.93041e-08
1.21745e-08
0.00192572
8.42398e-06
6.05108e-08
1.85786e-09
2.5437e-11
4.4013e-12
4.21997e-12
4.25696e-12
4.28391e-12
4.30645e-12
4.45488e-12
4.24265e-12
4.22999e-12
4.32722e-12
4.34087e-12
4.69204e-12
4.32393e-12
4.20818e-12
4.43774e-12
4.36302e-12
4.36467e-12
4.24115e-12
9.467e-11
7.10097e-10
8.86867e-10
1.51492e-07
2.04135e-08
6.22559e-10
2.02259e-11
4.69917e-12
4.3801e-12
7.70942e-08
9.2526e-07
0.0212736
0.255321
127.191
260.302
296.492
299.679
291.008
183.967
1.60507
10.6853
2.79412
0.926272
3.78228
2.99074
0.662368
0.0843263
0.0108678
0.00103604
1.63115e-05
9.4323e-08
1.19465e-09
0.00192553
8.42341e-06
6.06128e-08
1.86543e-09
2.58368e-11
4.45239e-12
4.27753e-12
4.26187e-12
4.32561e-12
4.61559e-12
4.31253e-12
4.16569e-12
4.46195e-12
4.4651e-12
4.45486e-12
4.46266e-12
4.61473e-12
4.31226e-12
4.21168e-12
4.66345e-12
4.46221e-12
4.39056e-12
4.58412e-12
4.49252e-12
5.51138e-12
8.25503e-12
6.87914e-12
5.19945e-12
4.66074e-12
4.47717e-12
1.53998e-11
6.55176e-06
7.86293e-05
0.641848
7.70283
230.318
265.062
355.175
377.754
315.057
185.112
7.52479
0.302499
0.000609788
0.00603289
0.160454
0.0262572
0.00644746
8.99323e-05
8.5961e-06
3.35412e-07
1.05923e-07
6.65604e-09
2.3697e-08
0.00192562
8.42469e-06
6.05777e-08
1.86213e-09
2.57162e-11
4.43173e-12
4.25249e-12
4.24242e-12
4.30253e-12
4.59887e-12
4.29875e-12
4.15636e-12
4.4514e-12
4.44714e-12
4.4522e-12
4.5583e-12
4.28981e-12
4.25173e-12
4.39859e-12
4.42217e-12
4.38821e-12
4.37854e-12
5.23247e-12
7.31344e-12
1.18056e-11
5.22684e-10
7.40984e-11
9.10397e-12
4.63657e-12
4.39362e-12
4.67888e-12
4.30564e-12
6.63027e-06
9.20848
110.512
270.472
342.945
374.89
395.27
304.979
202.495
162.121
239.491
130.944
62.0929
25.2325
6.29108
1.21578
0.0382288
0.00410217
0.000120888
1.15259e-05
1.79603e-07
4.59945e-09
0.00192536
8.4228e-06
6.06833e-08
1.87029e-09
2.55996e-11
4.39672e-12
4.24914e-12
4.4269e-12
4.31443e-12
4.25919e-12
4.28821e-12
4.31268e-12
4.58779e-12
4.31677e-12
4.28525e-12
4.42354e-12
4.44078e-12
4.82382e-12
4.3626e-12
4.2811e-12
4.45801e-12
4.44661e-12
4.83811e-12
4.44675e-12
4.40291e-12
4.96903e-12
4.48208e-12
4.4092e-12
4.92481e-12
4.43939e-12
4.31333e-12
1.07189e-12
6.55224e-06
4.84771
58.1765
289.081
397.341
477.88
526.3
471.503
397.805
220.09
121.778
1.53135
0.175725
0.210882
0.0212335
0.00106608
0.000193918
1.70528e-05
1.20485e-06
1.92726e-07
1.76838e-07
2.15819e-07
0.00192544
8.42447e-06
6.06425e-08
1.8675e-09
2.5506e-11
4.43064e-12
4.2608e-12
4.2975e-12
4.35066e-12
4.45125e-12
4.28492e-12
4.28794e-12
4.6322e-12
4.30266e-12
4.26175e-12
4.37099e-12
4.41017e-12
4.8086e-12
4.38151e-12
4.25718e-12
4.4691e-12
4.45896e-12
4.45027e-12
4.58821e-12
4.48809e-12
5.71964e-12
4.80856e-12
4.40076e-12
4.87806e-12
4.4631e-12
4.30491e-12
4.99132e-12
4.16851e-13
26.0607
270.856
312.901
431.837
509.48
572.657
520.157
273.561
274.247
574.365
307.487
147.784
32.6015
3.30484
0.106839
0.0609433
0.00507864
1.05024e-05
9.31025e-07
2.10777e-07
1.89682e-07
0.0019253
8.42387e-06
6.07978e-08
1.87627e-09
2.56372e-11
4.43552e-12
4.37962e-12
4.23394e-12
4.22022e-12
4.26945e-12
4.38094e-12
4.28e-12
4.26126e-12
4.66929e-12
4.45979e-12
4.38566e-12
4.45359e-12
4.58082e-12
4.45177e-12
4.44961e-12
4.74661e-12
4.5815e-12
4.53954e-12
4.84507e-12
4.44005e-12
4.31392e-12
4.80608e-12
4.35611e-12
4.30543e-12
4.31011e-12
4.12136e-12
2.71051e-09
0.0135083
26.4952
276.058
435.786
536.14
622.722
686.804
649.06
606.202
478.361
294.736
33.1482
0.358483
0.420549
0.0176624
0.00615155
0.000534461
9.14262e-07
2.39442e-05
8.88634e-06
2.82838e-07
5.61181e-07
0.00192538
8.42517e-06
6.076e-08
1.8728e-09
2.55345e-11
4.43084e-12
4.3717e-12
4.25627e-12
4.25209e-12
4.25362e-12
4.38346e-12
4.27105e-12
4.25259e-12
4.65878e-12
4.45003e-12
4.36826e-12
4.48022e-12
4.46811e-12
4.48091e-12
4.48697e-12
4.56811e-12
4.66213e-12
4.70456e-12
4.82954e-12
4.44748e-12
4.23199e-12
4.6102e-12
4.30702e-12
4.23308e-12
4.40087e-12
4.22088e-12
2.77344e-07
4.27493
41.8924
282.535
447.267
564.789