/*--------------------------------*- C++ -*----------------------------------*\
| =========                 |                                                 |
| \\      /  F ield         | OpenFOAM: The Open Source CFD Toolbox           |
|  \\    /   O peration     | Version:  4.1                                   |
|   \\  /    A nd           | Web:      www.OpenFOAM.org                      |
|    \\/     M anipulation  |                                                 |
\*---------------------------------------------------------------------------*/
FoamFile
{
    version     2.0;
    format      ascii;
    class       volScalarField;
    location    "13";
    object      nut;
}
// * * * * * * * * * * * * * * * * * * * * * * * * * * * * * * * * * * * * * //

dimensions      [0 2 -1 0 0 0 0];

internalField   nonuniform List<scalar> 
4432
(
34.8912
36.1014
37.135
38.3368
39.4909
40.6534
41.7142
42.9637
43.7114
44.8527
45.5491
45.1073
49.9406
31.0574
77.9344
57.0388
175.428
490.017
717.573
1220.39
1450.67
1499.84
1902.48
1939.73
1925.07
1680.97
1439.96
1286.15
1169.75
1235.7
1180.67
1150.03
1400.12
1128.38
807.649
672
418.063
138.005
73.3903
73.0656
69.1491
66.5692
62.0473
58.1472
52.5877
41.0142
66.0286
72.3067
52.47
90.0888
160.226
246.493
121.742
156.054
35.0193
35.9842
37.2846
38.2445
39.4775
40.5036
41.6754
42.6319
43.6677
44.4617
45.4512
44.9295
48.9864
37.3012
67.5486
62.4346
203.974
415.498
679.074
1081.68
1373.24
1429.91
1721.22
1738.26
1654.72
1417.52
1207.84
1105.13
1060.5
982.977
874.763
604.373
440.617
407.689
279.663
183.154
136.555
94.6095
44.1395
58.2754
59.2966
54.4162
47.7824
52.5675
36.2361
37.2895
54.6046
173.291
194.407
307.634
497.303
284.764
213.484
200.377
1.51658e-05
2.62351e-05
0.00702195
0.0579701
0.685111
0.338127
0.700743
0.992572
1.5752
1.69028
2.68197
1.72071
5.60082
1.51075
13.2848
42.0617
14.9108
21.819
1789.43
10581.3
10144.6
14030.3
16620.3
15832.5
13246
11060.3
6425.98
4356.85
5803.17
11283.2
7276.71
14531.9
26108.2
2570.84
2429.77
224.807
415.375
78.7142
32.5984
26.9015
31.3982
58.171
54.8197
37.2253
1.55125
0.0315409
1.01779
0.0202463
3.42295
19.1147
104.384
29.9956
0.310773
5.99368
1.51679e-05
2.57454e-05
0.00746796
0.0559858
0.543197
0.373823
0.534307
1.01433
1.31077
1.50561
4.37422
3.09143
5.98526
4.63262
10.5948
4.51293
0.911338
62.346
3559.56
9407.88
9523.22
10402.2
12244.2
9900.08
9959.52
2211.16
964.721
1591.82
2807.47
758.267
192.653
461.739
662.188
188.815
11.9421
3.30198
4.48318
0.210881
0.14993
0.51964
4.99554
4.89359
1.40201
2.2281
0.453215
0.0616006
1.02601
74.6043
4.82899
261.013
151.733
11.3756
2.95223
7.69217
1.50402e-05
1.02299e-07
1.31132e-07
9.4094e-05
0.00155174
0.00472018
0.00714657
0.018829
0.0556817
0.0987039
0.189901
0.270542
0.258582
0.218099
0.418491
2.75631
0.00146167
364.955
17578.4
16642.7
13641.6
14312.3
15059.1
12613.6
9094.85
2952.79
1996.19
1945.21
2341.44
3622.66
2020.88
4164.33
5962.68
810.521
896.879
122.855
465.906
46.9714
126.316
248.787
571.265
139.308
98.2787
185.143
2.9775
0.253863
0.338977
5.53296
34.7151
244.925
10342.4
1257.18
5.93222
0.824999
1.50418e-05
1.02192e-07
1.43591e-07
7.51897e-05
0.00171519
0.00191797
0.0226907
0.0345041
0.0325257
0.122432
0.305352
0.245054
0.223013
1.48019
2.20452
5.89696
197.981
2625.63
14992.9
13934.5
11445.3
10733
8962.18
2478.55
2531.38
439.819
253.17
486.13
421.912
145.074
271.178
1683.16
1646.87
170.699
16.2471
19.9335
19.9411
25.1903
3.71741
9.5546
38.4542
52.832
2.85001
6.19393
0.306074
0.00131956
18.2434
30.3377
70.4516
351.767
26210.6
61.5569
5.34885
0.339847
1.50384e-05
1.0207e-07
3.65314e-10
1.34389e-08
4.95033e-06
7.43788e-06
0.000143743
0.0016018
0.00171652
0.00222033
0.0164365
0.0212074
0.0112578
0.0160846
0.00215358
0.141185
5.23041
14.4662
9193.94
14615.2
12526
10662.9
10010.6
8608.25
9026.06
1879.46
1126.93
1413.38
2443.91
2526.98
8330.16
23474.4
29595.9
4611.84
1731.47
44.2447
56.0633
202.338
1210.55
326.914
23262.2
1105.37
17.7265
310.65
33.5773
0.0108621
0.0471243
3.06526
4.99585
42.5605
116.545
96.0143
20.3549
2.00533
1.50402e-05
1.01982e-07
3.56378e-10
1.11842e-08
1.23973e-05
0.000180951
0.00021019
0.000963893
3.82966e-05
0.00486238
0.00818111
0.0248239
0.0415868
0.0775941
0.00729557
0.0532805
80.6889
1532.21
8154.35
11862.1
9019.55
6294.7
4479.54
9145.89
8270.2
2947.34
2975.57
3661.16
4944
3397.75
6906.24
14771.9
6849.71
1485.91
42.2667
1.72044
2.77914
0.963094
0.000128426
0.0157605
39.0021
1.61756
4.51778e-07
0.580421
0.661988
0.0276439
121.785
148.076
0.0114568
90.9641
254.399
5.2492
8.74299
0.936589
1.50373e-05
1.02077e-07
3.61196e-10
4.61394e-12
5.06984e-10
4.97232e-07
9.25447e-07
2.25085e-07
5.35057e-06
0.000217035
0.00037199
0.000565664
3.11496e-05
1.88922e-05
3.97892e-05
0.00212334
0.00105413
5.37263
76.1006
4085.78
9191.25
5460.77
4653.47
3272.11
8344.94
4657.49
2864.92
12424.9
13647.3
14808.1
35359.1
45127
51901.3
67088.1
79752.8
2152.1
42.062
8.24885
19.185
447.617
28452.9
2063.56
1.92227
0.156625
0.00191065
9.54823e-05
4.17017e-06
0.00728341
0.000142946
3.40107e-12
2.57693e-06
4.32247e-10
9.23886
0.342081
1.50389e-05
1.01992e-07
3.61667e-10
4.35515e-12
5.89963e-10
1.96202e-09
2.14529e-07
1.31051e-08
1.27225e-05
0.000169855
2.10847e-05
0.000282416
0.000155122
0.000202857
3.92614e-06
0.354641
2.2871
3.0586
38.4131
1383.07
3000.15
1834.45
2232.22
7781.54
6627.07
4704.19
10013.2
19643
17928.4
17821.1
22564.8
31371.5
35355.8
16882.4
618.743
58.7997
0.000411913
0.0658542
7.52643e-05
16.5933
447.892
0.000983042
9.44714e-06
4.34903
8.43883e-06
3.40672e-10
1.99603e-06
4.25718e-05
4.55448e-10
1.32856e-05
0.920959
0.437115
1.25073
0.0794632
1.50343e-05
1.0212e-07
3.65188e-10
4.33748e-12
4.7464e-13
5.81412e-12
9.38721e-11
6.96613e-11
6.16146e-10
6.00663e-09
3.81848e-07
4.0357e-07
8.8788e-09
2.11508e-09
1.04393e-08
3.68421e-06
7.80426e-08
0.00146997
0.00277395
1.24941
7.57393
1092.32
293.067
7314.33
4825.74
4265.56
3256.62
3320.64
17968.3
18758.8
32511.2
41849.8
45346.1
38534.7
1381.49
2.28487
0.000301469
2.11018e-13
3.44192e-15
205.989
18.923
23.7531
0.124353
0.0147606
0.0413863
2.74116e-10
1.30834e-10
5.2265e-05
2.98638e-05
6.44945e-09
2.1332e-05
1.57987e-07
1.36109e-08
6.34757e-09
1.50361e-05
1.0204e-07
3.64516e-10
4.3131e-12
5.04687e-13
4.28144e-12
4.96157e-11
1.39649e-11
1.13326e-08
3.97319e-07
1.32604e-07
1.66398e-07
2.54357e-08
2.62034e-08
2.37753e-09
3.63932e-05
0.000431843
0.000123378
0.00212519
0.768517
0.34565
0.0675306
87.3429
3099.73
3954.7
4336.32
3535.73
17900.4
15686.7
16382.2
22449.2
29667.9
30691.5
21.4512
27.3407
0.02558
1.45011e-12
6.44608e-17
2.7835e-15
1.11309e-16
25.4809
0.000540983
1.00164e-08
1.00205e-08
9.48954e-06
1.03335e-05
9.42537e-14
1.72194e-11
2.30306e-14
7.32952e-08
0.0116125
3.39946e-07
5.06858e-08
2.33641e-08
1.50327e-05
1.02126e-07
3.65837e-10
4.36312e-12
2.43861e-13
5.51529e-13
1.32e-12
3.00524e-13
2.18411e-12
2.1856e-16
1.30957e-10
1.57671e-10
5.46193e-11
7.46336e-12
7.84463e-11
5.17849e-10
2.21928e-13
4.0527e-10
8.08435e-09
6.093e-06
3.14614e-06
0.601511
0.558421
4724.38
5485.74
6253.94
4364.46
2155.49
7252.92
9922.69
33379.5
45419.1
51626.8
5367.54
1.18637
0.000716477
1.30319e-12
3.40511e-13
1.54393e-14
6.04067e-15
5.58228e-08
1.2779e-08
5.97913e-06
4.89901e-10
8.11098e-07
6.33561e-08
7.87917e-11
1.84362e-07
1.10382e-11
1.85016e-13
4.62055e-10
7.27018e-09
1.08017e-08
3.49935e-09
1.50343e-05
1.02044e-07
3.65191e-10
4.3407e-12
2.41865e-13
5.28494e-13
1.26158e-12
1.15879e-12
1.93183e-11
2.52303e-10
8.24346e-11
1.06155e-10
6.0547e-11
2.04537e-10
1.51221e-11
1.51692e-12
6.17168e-09
9.80848e-11
5.52192e-09
4.28587e-06
3.35234e-08
1.12573e-05
0.300433
159.324
3727.29
4905.65
2935.32
14739.7
8008.28
11262.1
11108.2
24431.8
16643
0.739495
0.0156438
6.53359e-08
6.58368e-12
4.81113e-15
1.25541e-13
4.39035e-14
4.44651e-13
1.8599e-10
7.13897e-08
4.16061e-10
1.10987e-12
7.5873e-14
1.0167e-14
7.95018e-14
8.83144e-16
4.75448e-11
6.69367e-12
3.68752e-10
8.34056e-10
1.03545e-08
1.50288e-05
1.02172e-07
3.63483e-10
4.32588e-12
2.47748e-13
6.8016e-13
1.11616e-12
1.04515e-12
1.074e-12
1.14795e-12
1.53711e-12
1.55261e-12
1.57449e-12
9.5433e-13
1.3972e-12
1.81402e-12
9.82258e-18
1.2735e-12
7.2747e-13
1.00995e-11
5.61081e-13
7.00918e-09
1.8736e-05
344.502
5800.62
8904.92
8043.09
101.67
5.56182
5.74268
1291.76
3132.47
7049.18
28.7625
3.28937e-05
1.685e-09
7.74504e-14
9.88858e-13
1.46309e-13
2.84888e-17
4.0262e-09
7.33907e-10
3.085e-07
3.70011e-11
7.36651e-11
6.141e-12
2.18835e-13
1.96274e-12
9.95745e-14
9.14083e-10
2.94219e-08
1.00616e-07
4.32929e-07
9.99361e-08
1.50307e-05
1.02093e-07
3.62777e-10
4.30787e-12
2.47911e-13
6.82565e-13
1.01948e-12
1.01937e-12
1.00062e-12
1.54586e-12
1.39329e-12
1.19404e-12
3.4334e-13
1.14453e-12
1.53507e-13
2.64487e-13
2.18784e-15
2.69318e-14
7.42155e-13
1.11842e-11
5.93588e-13
3.79426e-10
0.00147686
0.3561
222.249
5681.32
23.6767
1912.37
62.2267
293.171
10.8856
199.813
12.4548
1.30584e-05
3.90493e-10
2.9984e-13
9.89571e-14
1.04089e-12
8.96025e-13
9.71635e-14
9.78401e-16
4.53158e-16
1.29776e-13
3.5585e-15
3.55691e-14
3.95968e-17
2.39419e-14
8.24566e-14
8.61415e-12
1.00386e-09
1.38698e-08
2.06922e-07
1.20686e-07
3.03391e-07
1.50269e-05
1.02169e-07
3.63984e-10
4.34417e-12
2.47117e-13
6.79195e-13
1.12451e-12
1.07858e-12
1.07226e-12
1.17553e-12
1.0849e-12
1.02748e-12
1.11053e-12
1.13927e-12
1.17338e-12
3.74541e-13
7.08462e-15
1.03741e-13
2.08496e-15
5.31994e-15
2.50817e-16
2.78072e-12
7.58983e-12
0.00115732
3349.24
10710.1
27.2322
0.00234039
4.59065e-05
4.31469e-06
0.740723
2.79757
16.3733
0.0266146
4.66163e-08
5.04663e-11
1.37328e-12
4.19335e-13
1.83447e-12
1.38935e-12
1.24668e-13
8.6767e-16
1.62769e-15
2.08943e-15
8.11807e-15
7.01622e-16
5.42645e-13
1.1676e-13
7.88583e-10
8.55381e-08
3.62705e-07
8.15108e-07
7.87133e-07
2.58184e-07
1.50285e-05
1.0209e-07
3.6345e-10
4.33107e-12
2.42696e-13
6.68549e-13
1.06329e-12
1.04593e-12
1.05844e-12
1.15402e-12
1.06535e-12
1.01634e-12
1.11298e-12
1.11892e-12
1.11159e-12
1.12402e-12
7.32186e-15
2.11818e-15
2.08214e-15
1.28623e-14
2.06913e-15
8.85747e-14
1.59085e-08
9.93358e-06
0.00510175
46.5373
0.00374925
0.927318
0.0197011
0.101523
0.000578918
0.0618058
0.000126789
3.03022e-10
2.22955e-13
2.59552e-15
4.76597e-15
3.65121e-13
1.21425e-12
1.58773e-12
1.24113e-14
1.80322e-13
1.87993e-13
1.40713e-14
7.87599e-16
2.99118e-14
9.97678e-13
2.7177e-12
3.62991e-10
4.16616e-08
1.58749e-07
3.67956e-07
3.57943e-07
3.6399e-07
1.50223e-05
1.02208e-07
3.65086e-10
4.3719e-12
2.45756e-13
6.51638e-13
1.06544e-12
1.00215e-12
9.98907e-13
1.05426e-12
1.05509e-12
1.08743e-12
1.07923e-12
1.07907e-12
1.12217e-12
1.10612e-12
1.0704e-12
9.06637e-13
4.9553e-15
5.87641e-16
2.82063e-15
9.16606e-15
1.28596e-14
0.287034
3.81722
33.6438
0.00350391
9.05027e-11
7.34918e-12
4.1285e-13
4.0797e-05
0.000120263
0.000375188
1.13914e-07
1.6638e-11
4.05955e-14
5.52539e-15
1.07418e-13
1.32102e-12
1.4527e-12
1.33606e-12
1.40806e-12
2.36947e-13
2.27618e-14
2.10938e-16
1.70775e-15
4.53221e-13
7.71106e-13
6.53608e-11
6.43973e-09
2.73357e-08
2.31622e-07
3.55385e-07
3.41567e-07
1.50242e-05
1.02141e-07
3.64503e-10
4.33317e-12
2.44858e-13
6.78554e-13
1.01216e-12
1.03283e-12
1.08615e-12
1.09349e-12
1.10641e-12
1.09996e-12
1.13088e-12
1.07209e-12
1.0606e-12
1.12724e-12
7.5953e-13
7.88785e-14
3.34284e-15
2.34597e-15
2.8973e-15
7.55372e-14
1.97333e-12
9.97952e-12
1.49903e-08
0.000317353
1.74227e-09
4.40426e-06
1.51233e-06
4.42843e-06
3.15758e-09
4.11093e-07
2.85739e-10
1.09389e-13
8.57364e-16
1.17958e-15
6.28718e-14
1.37622e-12
1.40198e-12
1.40356e-12
1.48398e-12
1.37086e-12
1.27376e-12
8.95393e-13
9.77923e-14
9.71406e-13
1.24091e-12
1.60764e-12
5.99313e-12
9.96606e-10
3.69391e-08
4.05863e-07
7.81506e-07
5.28973e-07
1.50202e-05
1.02201e-07
3.65857e-10
4.37208e-12
2.47282e-13
6.69722e-13
9.81605e-13
9.93228e-13
1.13477e-12
1.03e-12
1.02454e-12
1.06808e-12
1.11131e-12
1.17112e-12
1.17082e-12
1.15145e-12
1.18075e-12
1.13646e-12
4.41334e-13
3.17165e-14
5.19589e-13
8.86778e-15
8.27323e-15
0.000175746
0.00370144
0.00592673
2.76582e-06
1.31724e-15
1.17962e-14
1.25172e-12
8.62062e-11
5.58024e-11
4.37335e-10
2.57517e-12
1.55197e-14
3.18556e-15
5.10195e-14
1.06682e-12
1.41059e-12
1.45471e-12
1.51298e-12
1.55537e-12
1.46705e-12
7.69423e-13
7.36879e-14
1.30803e-13
1.24923e-12
1.37847e-12
2.61215e-12
1.92732e-11
5.66335e-10
7.6218e-09
6.67349e-10
1.73056e-08
1.50218e-05
1.0213e-07
3.65254e-10
4.35517e-12
2.42191e-13
6.46682e-13
1.01549e-12
1.02679e-12
1.07752e-12
1.06682e-12
1.07155e-12
1.08231e-12
1.15449e-12
1.11316e-12
1.07694e-12
1.17096e-12
1.1243e-12
1.05096e-12
3.60602e-13
1.86263e-13
2.21131e-13
9.5949e-13
9.6953e-14
6.37472e-14
2.49307e-11
2.53715e-10
3.95828e-14
3.86889e-12
1.62044e-11
1.92673e-11
7.70924e-13
1.36127e-12
2.93198e-14
7.2835e-16
1.99116e-15
1.27241e-13
1.18877e-12
1.5508e-12
1.55859e-12
1.66135e-12
1.57202e-12
1.57301e-12
1.7408e-12
1.54757e-12
1.42593e-12
1.95492e-12
1.73871e-12
1.4656e-12
1.4777e-12
6.11562e-12
7.21398e-10
1.21995e-08
1.92439e-10
3.99605e-08
1.50152e-05
1.02233e-07
3.67002e-10
4.38538e-12
2.42017e-13
6.27738e-13
9.87299e-13
9.92796e-13
1.03045e-12
1.05349e-12
1.05553e-12
1.05514e-12
1.19075e-12
1.1383e-12
1.14169e-12
1.29272e-12
1.1049e-12
1.09382e-12
1.11948e-12
9.46364e-13
1.75408e-12
3.47295e-18
4.33663e-19
2.45674e-07
1.58413e-05
1.67264e-05
3.32872e-08
3.10554e-14
3.93853e-15
5.95223e-15
2.41274e-14
3.98403e-14
9.202e-14
6.37304e-15
8.8541e-15
2.3755e-13
1.25753e-12
1.25298e-12
1.27218e-12
1.30583e-12
1.5222e-12
1.55959e-12
1.58902e-12
1.57142e-12
1.4808e-12
1.49526e-12
2.08913e-12
1.91279e-12
1.86583e-12
2.19052e-12
5.71399e-12
2.82485e-12
4.83597e-12
2.17075e-09
1.50171e-05
1.02167e-07
3.66288e-10
4.39386e-12
2.47082e-13
6.70817e-13
1.00253e-12
1.02186e-12
1.09432e-12
1.09896e-12
1.16734e-12
1.13083e-12
1.15566e-12
1.24125e-12
1.09312e-12
1.08417e-12
1.1501e-12
1.1385e-12
1.13625e-12
1.11895e-12
1.09939e-12
1.13983e-12
2.65333e-14
1.05024e-14
1.84189e-11
1.99993e-05
5.77452e-14
1.7652e-14
3.58957e-14
1.82398e-14
1.79154e-15
2.58955e-15
1.28951e-15
3.81297e-15
2.82045e-13
1.5985e-12
1.41888e-12
1.25662e-12
1.37126e-12
1.42067e-12
1.64354e-12
1.60135e-12
1.68738e-12
1.74145e-12
1.77817e-12
2.3902e-12
1.99933e-12
1.85182e-12
2.28999e-12
2.21198e-12
3.67139e-12
3.70608e-12
2.75602e-10
1.35194e-09
1.5013e-05
1.02241e-07
3.72169e-10
4.56147e-12
2.48277e-13
6.51833e-13
1.19184e-12
1.0891e-12
9.93331e-13
1.11113e-12
1.04204e-12
1.05309e-12
1.16034e-12
1.05139e-12
1.05988e-12
1.12017e-12
1.08838e-12
1.12882e-12
1.27304e-12
3.01968e-12
1.23758e-14
5.32359e-20
7.65445e-22
3.19564e-06
3.79081e-06
2.12395e-09
5.37931e-13
6.07454e-07
1.00382e-07
1.03999e-15
1.66213e-15
5.85995e-15
5.16894e-15
3.28385e-14
7.13639e-13
1.29148e-12
1.3147e-12
1.2278e-12
1.29109e-12
1.37693e-12
1.37612e-12
1.49309e-12
1.59539e-12
1.98326e-12
1.77948e-12
1.71005e-12
2.00372e-12
2.07328e-12
2.74543e-12
2.71104e-12
2.90188e-12
3.22746e-12
2.69998e-12
3.79451e-11
1.50146e-05
1.02171e-07
3.71388e-10
4.54245e-12
2.49951e-13
6.43807e-13
1.18408e-12
1.08562e-12
1.02088e-12
1.14363e-12
1.12668e-12
1.15012e-12
1.1549e-12
1.14427e-12
1.23734e-12
1.12014e-12
1.09224e-12
1.27613e-12
1.2305e-12
1.38347e-12
1.17648e-12
3.20443e-16
4.02067e-17
0.0012124
0.0156317
5.64805e-07
6.0388e-11
0.000675389
1.44074e-15
4.80185e-15
1.11436e-14
3.1591e-10
1.87535e-12
4.76468e-16
3.75885e-14
7.55335e-13
1.35745e-12
1.5443e-12
6.38676e-13
3.50708e-12
6.70481e-13
1.6152e-12
1.50257e-12
1.73763e-12
1.77694e-12
1.92823e-12
2.04809e-12
3.48883e-12
2.89144e-12
2.39932e-12
3.7724e-12
3.30935e-12
1.38883e-12
2.25555e-11
1.50079e-05
1.0226e-07
3.71875e-10
4.59956e-12
2.60097e-13
6.83765e-13
1.24562e-12
1.10961e-12
1.08451e-12
1.30601e-12
1.09662e-12
1.07061e-12
1.23979e-12
1.17376e-12
1.13508e-12
1.22956e-12
1.22373e-12
1.27017e-12
1.25528e-12
1.26841e-12
5.99097e-17
0.000483571
8.1375e-07
1.00826e-08
8.9224e-05
0.000627842
0.000418979
0.000251904
3.79902e-05
8.54299e-06
1.94464e-09
5.60855e-12
5.23882e-14
6.8892e-14
5.20884e-13
1.15622e-12
1.39378e-12
1.33787e-12
1.19185e-12
1.23412e-12
1.4534e-12
1.46526e-12
1.44875e-12
1.56951e-12
1.61033e-12
1.57983e-12
1.52859e-12
1.69357e-12
1.91157e-12
2.2722e-12
2.59753e-12
3.14104e-12
3.86654e-12
6.82156e-12
1.50097e-05
1.02227e-07
3.71398e-10
4.53167e-12
2.4521e-13
6.43206e-13
1.19876e-12
1.09214e-12
1.05025e-12
1.27654e-12
1.06794e-12
1.07248e-12
1.08139e-12
1.08606e-12
1.19466e-12
1.14875e-12
1.14827e-12
1.17386e-12
1.27249e-12
1.19173e-12
1.16918e-15
1.27762e-15
0.309358
0.0458661
0.00851702
1.2694
0.0410106
0.00865161
0.00280441
0.00103699
2.5919e-05
5.43603e-09
2.3593e-11
1.71309e-13
1.1121e-13
4.00396e-13
1.47257e-12
8.53259e-14
4.54757e-11
3.27687e-10
7.23418e-13
6.27783e-13
1.22296e-12
1.5457e-12
1.60913e-12
1.5908e-12
1.71528e-12
3.05203e-12
2.62623e-12
2.24056e-12
2.95065e-12
2.82016e-12
2.81713e-12
4.83594e-12
1.50057e-05
1.02266e-07
3.73896e-10
4.61348e-12
2.51523e-13
6.39828e-13
1.21608e-12
1.11031e-12
1.06783e-12
1.22925e-12
1.21537e-12
1.26033e-12
1.18952e-12
1.18745e-12
1.28814e-12
1.16041e-12
1.08068e-12
1.24163e-12
1.1618e-12
1.91671e-16
1.70346e-17
3.73002e-11
1.6002e-12
0.0008872
0.000959189
0.00297242
0.0126557
0.00295577
0.000723369
0.000103727
1.50594e-05
7.18755e-08
1.18439e-11
9.98828e-13
8.59744e-13
1.449e-12
4.1212e-13
5.93539e-13
8.16028e-13
6.38364e-13
5.50255e-13
1.89392e-12
1.94437e-12
1.89602e-12
1.93848e-12
1.85887e-12
1.75191e-12
1.14737e-12
1.46522e-12
2.33828e-12
2.96965e-12
3.63738e-12
4.46468e-12
9.15123e-12
1.50087e-05
1.02507e-07
3.76409e-10
4.75859e-12
2.71983e-13
6.41173e-13
1.10504e-12
1.26534e-12
1.07622e-12
1.09274e-12
1.26757e-12
1.07224e-12
1.0463e-12
1.24673e-12
1.15181e-12
1.12523e-12
1.2145e-12
1.13157e-12
1.12937e-12
1.33871e-12
1.08981e-14
2.0774e-08
5.12571e-09
5.97583
0.139802
0.279434
0.319928
0.034864
0.00909441
0.00256513
4.18483e-05
9.96631e-08
1.74674e-10
7.34561e-12
9.89413e-13
1.70463e-13
6.31081e-12
2.1884e-14
2.03898e-07
2.27635e-07
1.52564e-10
3.30661e-11
1.15453e-12
3.82831e-13
1.2026e-12
1.75861e-12
5.88903e-13
5.46007e-13
3.70987e-13
1.0766e-12
4.52717e-12
5.13081e-12
3.86273e-12
9.8414e-12
1.50021e-05
1.02408e-07
3.76998e-10
4.80843e-12
2.76788e-13
6.97828e-13
1.26781e-12
1.10951e-12
1.07511e-12
1.29258e-12
1.09484e-12
1.07225e-12
1.23826e-12
1.23231e-12
1.27704e-12
1.2634e-12
1.2801e-12
1.3703e-12
1.15636e-12
2.78036e-14
4.69121e-15
9.10592e-08
2.26168e-06
3.95429e-06
0.792878
0.172441
0.0701124
0.0201686
0.00108913
1.20205e-06
7.75229e-10
1.79165e-12
3.91914e-13
1.17531e-12
7.12672e-13
6.80583e-15
1.90403e-12
1.24238e-11
5.89632e-12
1.03191e-12
4.22261e-13
9.761e-13
1.48283e-12
1.58633e-12
1.80109e-12
5.01645e-14
1.63871e-12
3.7065e-12
5.05359e-13
3.62727e-13
2.65612e-12
3.52306e-12
7.38006e-12
1.50024e-05
1.02047e-07
3.77528e-10
4.70938e-12
2.6134e-13
7.07608e-13
1.07101e-12
1.01978e-12
1.07245e-12
1.07412e-12
1.11417e-12
1.16467e-12
1.08017e-12
1.07321e-12
1.19281e-12
1.18042e-12
1.16953e-12
1.21561e-12
1.14432e-12
1.14364e-12
2.00241e-14
7.17536e-14
0.085606
0.636881
0.767099
0.288623
0.085545
0.0345102
0.0109156
0.000596494
5.88918e-06
1.05598e-09
2.50997e-12
1.78609e-13
1.50367e-14
1.30389e-08
1.08248e-08
7.88505e-07
0.000238367
1.67494e-08
6.3255e-09
1.35951e-10
7.39552e-12
4.97156e-14
1.33118e-13
3.67539e-13
4.19457e-12
4.20802e-12
6.82664e-13
3.90467e-13
1.07499e-12
2.44976e-12
6.67004e-12
1.49986e-05
1.02144e-07
3.75611e-10
4.72944e-12
2.66324e-13
6.19044e-13
1.09061e-12
1.19993e-12
1.11698e-12
1.1098e-12
1.25832e-12
1.08428e-12
1.06646e-12
1.29004e-12
1.18442e-12
1.17408e-12
1.23832e-12
1.23712e-12
1.32619e-12
9.80203e-13
7.4319e-13
4.89929e-08
0.00737649
0.000768705
0.0155961
0.1172
0.0822172
0.0584426
0.00642587
8.13026e-06
6.45431e-09
2.60509e-12
2.52406e-13
5.94278e-13
2.00073e-12
1.03727e-12
3.40657e-12
2.25923e-09
3.15602e-08
9.84905e-09
1.66681e-10
1.5605e-11
1.09513e-12
1.04601e-12
1.79694e-12
2.02754e-12
2.27127e-12
2.70486e-11
8.64874e-11
1.98029e-11
9.03101e-13
1.34457e-12
8.19681e-13
3.85653e-12
1.50002e-05
1.02083e-07
3.7496e-10
4.71054e-12
2.63372e-13
6.20334e-13
1.08746e-12
1.19733e-12
1.10656e-12
1.10193e-12
1.24736e-12
1.10879e-12
1.04916e-12
1.20719e-12
1.13928e-12
1.11841e-12
1.14066e-12
1.23166e-12
1.15649e-12
1.08184e-12
8.0224e-17
3.02371e-14
0.0961688
0.0638101
0.149745
0.732238
0.269314
0.0970714
0.0305659
0.00120885
6.95224e-06
2.08331e-09
1.49985e-12
4.2147e-13
6.7585e-17
9.05639e-08
4.78076e-06
4.37972e-05
0.000736999
0.29037
2.77357e-07
2.7658e-09
2.93282e-13
7.26296e-13
7.17676e-16
2.5501e-14
1.26459e-10
2.80162e-09
1.14043e-09
2.23197e-11
1.23731e-11
1.34627e-12
6.56875e-13
2.56489e-12
1.4994e-05
1.02242e-07
3.76444e-10
4.74027e-12
2.60102e-13
6.56496e-13
1.17649e-12
1.24497e-12
1.10526e-12
1.06978e-12
1.27735e-12
1.10567e-12
1.05981e-12
1.07973e-12
1.13862e-12
1.13999e-12
1.157e-12
1.40691e-12
1.13584e-12
1.13294e-12
6.29932e-13
4.21499e-08
5.09032e-07
0.000102466
0.00264784
0.00109646
0.0102961
0.00194352
9.31735e-05
1.11579e-07
4.7076e-11
7.47505e-13
6.74513e-13
1.3364e-12
8.23986e-15
8.33172e-10
1.351e-08
1.09461e-05
3.38005e-05
6.32944e-09
4.61581e-08
7.50976e-11
2.41813e-15
5.37206e-14
5.4086e-13
5.35908e-13
5.67473e-10
1.36127e-08
2.04798e-08
1.0768e-09
3.51101e-11
3.59166e-11
2.65866e-12
2.14128e-12
1.49959e-05
1.02194e-07
3.75801e-10
4.72022e-12
2.58882e-13
6.54763e-13
1.17055e-12
1.23846e-12
1.09884e-12
1.08353e-12
1.26856e-12
1.11682e-12
1.05178e-12
1.07007e-12
1.07502e-12
1.13899e-12
1.14397e-12
1.28169e-12
1.15163e-12
1.10808e-12
2.55672e-14
3.03578e-05
0.000363782
1.59022e-05
0.0132265
0.045119
0.0583421
0.0117662
0.000411952
8.92743e-07
4.72841e-10
2.54445e-12
5.75966e-13
2.00179e-13
3.62734e-14
0.000161528
0.00195477
44.9504
33.7862
213.898
0.0410897
5.93587e-06
4.61721e-12
1.07805e-11
9.10561e-15
3.13082e-13
8.93227e-08
2.70177e-07
1.04866e-07
4.65612e-09
1.40585e-09
5.89026e-11
5.89805e-12
2.37791e-12
1.49922e-05
1.02199e-07
3.75849e-10
4.72903e-12
2.58429e-13
6.52138e-13
1.13144e-12
1.13436e-12
1.19052e-12
1.19732e-12
1.20278e-12
1.27022e-12
1.12366e-12
1.04441e-12
1.12485e-12
1.13119e-12
1.33824e-12
1.14935e-12
1.07073e-12
1.13849e-12
1.21303e-12
1.37932e-06
1.43388e-07
1.21108e-06
0.00012491
1.17109e-05
0.00126177
0.000103645
4.88254e-07
2.72708e-10
4.98329e-13
2.26373e-14
1.02725e-13
1.41075e-12
3.23332e-11
2.21067e-10
0.000120139
0.195062
0.401046
0.000124255
0.00800607
6.17992e-08
3.42073e-14
3.45095e-15
1.64787e-13
8.70289e-12
4.35557e-07
1.41646e-06
6.48281e-07
7.13668e-08
2.05279e-09
1.63643e-09
1.6078e-10
8.08774e-11
1.49938e-05
1.02144e-07
3.75222e-10
4.71221e-12
2.56997e-13
6.50042e-13
1.12539e-12
1.12904e-12
1.16297e-12
1.17238e-12
1.19099e-12
1.25889e-12
1.08948e-12
1.03985e-12
1.11098e-12
1.11518e-12
1.30863e-12
1.15739e-12
1.1077e-12
1.09574e-12
5.75608e-13
1.08121e-06
1.29521e-05
1.10037e-06
0.00034152
0.000328933
0.0090281
0.000459612
5.51421e-07
1.50814e-10
2.68943e-12
6.2704e-13
1.16141e-12
1.74673e-16
2.07437e-17
3.85405
48.0244
10.4939
57708.7
17186.7
1895.54
0.155583
2.90924e-08
1.3049e-10
1.26221e-12
1.96063e-10
1.12182e-08
0.000113518
5.36209e-06
2.15336e-08
1.49579e-08
4.27627e-09
2.11218e-10
1.66548e-11
1.49881e-05
1.022e-07
3.76606e-10
4.73118e-12
2.54324e-13
6.24729e-13
1.05916e-12
1.07301e-12
1.1064e-12
1.12135e-12
1.20281e-12
1.10228e-12
1.07802e-12
1.17218e-12
1.18366e-12
1.25369e-12
1.15069e-12
1.11265e-12
1.17463e-12
1.22919e-12
1.21444e-12
1.9595e-13
1.66323e-09
8.33308e-08
1.19801e-06
1.51946e-06
3.3334e-05
8.42393e-07
1.44824e-09
2.36758e-12
9.21122e-14
1.43016e-13
3.60087e-10
2.25233e-10
0.000173482
0.000441312
4.73166
2351.55
13357.4
52.5984
1251
0.0154766
2.63365e-09
1.12777e-14
8.14088e-16
3.11085e-08
1.11681e-06
0.000125684
6.95727e-06
1.31177e-06
1.27104e-07
1.1856e-07
1.32982e-08
3.17683e-09
1.49899e-05
1.02157e-07
3.75935e-10
4.71495e-12
2.53204e-13
6.23354e-13
1.05284e-12
1.0662e-12
1.09683e-12
1.11196e-12
1.20243e-12
1.09783e-12
1.07234e-12
1.12467e-12
1.105e-12
1.10116e-12
1.14224e-12
1.25931e-12
1.2602e-12
1.30133e-12
1.10104e-12
2.68612e-09
3.21845e-08
6.48562e-07
7.75217e-07
7.14086e-05
0.000281749
1.40142e-05
2.49729e-09
4.26857e-12
3.39011e-13
8.62559e-13
1.23141e-12
9.76227e-12
1.35588e-12
1.29649e-06
23223.1
155694
4.23066e+06
630570
1.73641e+06
993.86
9.43214e-05
2.9378e-09
4.2826e-10
3.78557e-06
0.000191477
0.0312132
0.000519406
2.75946e-06
1.24181e-07
2.15283e-08
9.5417e-09
4.183e-10
1.49867e-05
1.02176e-07
3.76934e-10
4.75502e-12
2.55895e-13
6.27561e-13
1.06479e-12
1.0949e-12
1.11098e-12
1.1216e-12
1.20225e-12
1.12996e-12
1.13045e-12
1.2915e-12
1.13145e-12
1.09077e-12
1.0905e-12
1.06545e-12
1.09741e-12
1.14948e-12
1.367e-12
2.21472e-14
1.07629e-12
6.53204e-10
5.66714e-09
1.34271e-07
4.93392e-08
9.02638e-10
1.03714e-11
7.09079e-13
7.41559e-13
1.22809e-12
5.08095e-16
4.40675e-14
19.7494
52.6158
40656.4
1.14624e+06
1.67798e+06
273793
917534
146.707
1.49446e-05
1.32284e-12
2.74732e-14
5.41432e-05
0.000307038
0.00116706
6.15583e-05
3.4399e-05
6.56073e-07
1.07138e-06
7.90075e-07
1.07642e-07
1.49883e-05
1.02128e-07
3.76309e-10
4.74093e-12
2.55725e-13
6.19257e-13
1.06578e-12
1.08462e-12
1.08429e-12
1.10232e-12
1.18809e-12
1.12514e-12
1.12826e-12
1.29096e-12
1.13546e-12
1.08254e-12
1.25394e-12
1.11494e-12
1.11192e-12
1.16078e-12
1.28107e-12
3.78178e-12
4.52372e-11
8.91966e-09
8.65204e-08
1.6489e-06
2.82417e-07
2.6145e-09
2.29233e-11
1.38555e-12
1.34204e-12
1.35012e-12
4.17031e-12
5.82928e-07
3.85552e-06
0.871505
898981
5.33196e+06
6.14473e+06
6.09138e+06
4.16329e+06
74339
0.0348593
3.54534e-05
2.49545e-05
0.00972396
0.17716
0.350123
0.00516874
0.000282392
9.89982e-06
1.60592e-07
1.2924e-08
1.75473e-09
1.49833e-05
1.02169e-07
3.77654e-10
4.77525e-12
2.5662e-13
6.27124e-13
1.06402e-12
1.09317e-12
1.10824e-12
1.12135e-12
1.21053e-12
1.06802e-12
1.06381e-12
1.14524e-12
1.1369e-12
1.32643e-12
1.12844e-12
1.03983e-12
1.04076e-12
1.04946e-12
1.19224e-12
1.20041e-12
2.42245e-13
6.83551e-13
5.41339e-12
2.16429e-10
6.88484e-11
4.05688e-12
5.39026e-13
1.19704e-12
1.13381e-12
5.45079e-13
3.49463e-16
8.807e-19
473.301
51471.8
3.65802e+06
5.29992e+06
4.79154e+06
3.58317e+06
854681
2.55361
9.89258e-07
3.02112e-10
1.12996e-12
0.0227784
0.0112456
0.00706065
0.000810742
0.000121554
1.47249e-06
6.01896e-07
1.04242e-07
2.36403e-08
1.49851e-05
1.0213e-07
3.76975e-10
4.75778e-12
2.56078e-13
6.18718e-13
1.06431e-12
1.08279e-12
1.08806e-12
1.09986e-12
1.17708e-12
1.0654e-12
1.05935e-12
1.10782e-12
1.1113e-12
1.30858e-12
1.11303e-12
1.05337e-12
1.17117e-12
1.12143e-12
1.12228e-12
1.07452e-12
2.83233e-13
3.35159e-11
2.35363e-11
7.57309e-09
7.65169e-10
3.04943e-12
5.25957e-13
8.6601e-13
1.12672e-12
3.20772e-05
2.30766e-08
0.224917
4.54548
1.1871e+06
5.03653e+06
6.13448e+06
5.4848e+06
4.62512e+06
1.60996e+06
65.4883
182.948
5.87212
0.692081
12.1202
15.5232
1.31863
0.0709956
0.00359303
0.000226403
7.10051e-06
2.59593e-08
2.7986e-10
1.49824e-05
1.02145e-07
3.77839e-10
4.78752e-12
2.59638e-13
6.35178e-13
1.09353e-12
1.08465e-12
1.11006e-12
1.27148e-12
1.11294e-12
1.0366e-12
1.18844e-12
1.17711e-12
1.18291e-12
1.18664e-12
1.25625e-12
1.09662e-12
1.0463e-12
1.27916e-12
1.1848e-12
1.14859e-12
1.20585e-12
6.71321e-13
1.45936e-12
1.94107e-12
1.07418e-12
1.36255e-12
1.27453e-12
1.17811e-12
1.36036e-11
2.25378e-06
6.28102e-05
33.8775
3188.61
2.72708e+06
3.37576e+06
5.18654e+06
4.68359e+06
2.43813e+06
520791
445.818
0.229814
2.29686e-05
0.000390402
0.343557
0.0276408
0.0100737
5.60557e-05
4.81707e-06
7.948e-08
7.45022e-09
3.91594e-11
4.8723e-09
1.4984e-05
1.021e-07
3.77213e-10
4.77066e-12
2.58447e-13
6.3185e-13
1.07517e-12
1.06584e-12
1.10614e-12
1.26382e-12
1.09515e-12
1.03137e-12
1.18233e-12
1.16679e-12
1.18246e-12
1.23995e-12
1.08507e-12
1.07317e-12
1.14983e-12
1.15131e-12
1.14326e-12
1.14097e-12
3.09864e-13
8.39335e-13
1.2074e-12
4.08879e-11
2.91027e-12
4.36442e-13
1.08471e-12
1.14406e-12
1.29517e-12
5.90902e-14
1.91333e-07
4406.22
689307
4.17062e+06
5.9918e+06
6.17151e+06
5.46028e+06
2.39138e+06
570639
81231.7
38875.8
4151.38
811.819
233.215
36.1675
3.23075
0.0213635
0.000619298
4.36295e-06
1.80372e-06
2.14494e-09
2.31305e-09
1.498e-05
1.02129e-07
3.78377e-10
4.80982e-12
2.58918e-13
6.1847e-13
1.08137e-12
1.17309e-12
1.10342e-12
1.08429e-12
1.09928e-12
1.10984e-12
1.25175e-12
1.11068e-12
1.09572e-12
1.15082e-12
1.16413e-12
1.37349e-12
1.12222e-12
1.09002e-12
1.18379e-12
1.17409e-12
1.38606e-12
1.15944e-12
1.13824e-12
1.43966e-12
1.1899e-12
1.15566e-12
1.41144e-12
1.16975e-12
1.10608e-12
9.30426e-17
9.17074e-08
936.399
117715
2.78366e+06
4.58199e+06
5.56367e+06
5.11524e+06
2.71533e+06
1.02436e+06
131117
9387.33
1.65548
0.104494
0.332302
0.0185706
0.000212197
7.54883e-05
6.162e-06
6.44196e-07
1.90183e-08
7.89151e-09
1.00533e-07
1.49817e-05
1.02092e-07
3.77705e-10
4.79659e-12
2.58015e-13
6.2713e-13
1.08762e-12
1.10589e-12
1.12135e-12
1.18419e-12
1.0976e-12
1.08685e-12
1.27909e-12
1.11163e-12
1.08579e-12
1.13738e-12
1.16232e-12
1.37815e-12
1.1333e-12
1.07575e-12
1.18701e-12
1.16466e-12
1.15652e-12
1.23292e-12
1.17565e-12
1.0528e-12
1.12078e-12
1.12854e-12
1.39314e-12
1.18249e-12
1.10144e-12
3.14428e-12
4.87869e-20
30325.6
3.25591e+06
3.68406e+06
5.82412e+06
6.69314e+06
6.40416e+06
3.45976e+06
460412
110341
123756
16372.4
3615.73
287.272
7.5344
0.0503384
0.0594418
0.0012375
2.27662e-07
2.68346e-08
8.13854e-10
1.5212e-09
1.49797e-05
1.02102e-07
3.78519e-10
4.81346e-12
2.56696e-13
6.34225e-13
1.14345e-12
1.0722e-12
1.06541e-12
1.08798e-12
1.14185e-12
1.08645e-12
1.07624e-12
1.28441e-12
1.18266e-12
1.14477e-12
1.16705e-12
1.23846e-12
1.16966e-12
1.16717e-12
1.32681e-12
1.24475e-12
1.22549e-12
1.37659e-12
1.17144e-12
1.10757e-12
1.35085e-12
1.11146e-12
1.06332e-12
1.09271e-12
9.60889e-13
2.55419e-14
0.0267455
18697
2.02221e+06
4.19723e+06
5.1873e+06
5.58726e+06
5.00868e+06
2.82397e+06
1.2371e+06
308925
37572.6
174.269
0.177466
0.419623
0.00657675
0.00341448
0.000182452
8.34109e-09
1.96645e-05
4.7842e-06
1.22547e-08
1.384e-07
1.49814e-05
1.02061e-07
3.77904e-10
4.79658e-12
2.55623e-13
6.34235e-13
1.13971e-12
1.08446e-12
1.08753e-12
1.08356e-12
1.13952e-12
1.08947e-12
1.08031e-12
1.27875e-12
1.17092e-12
1.1282e-12
1.18049e-12
1.18669e-12
1.19494e-12
1.1819e-12
1.23714e-12
1.29016e-12
1.30784e-12
1.37329e-12
1.17763e-12