/*--------------------------------*- C++ -*----------------------------------*\
| =========                 |                                                 |
| \\      /  F ield         | OpenFOAM: The Open Source CFD Toolbox           |
|  \\    /   O peration     | Version:  4.1                                   |
|   \\  /    A nd           | Web:      www.OpenFOAM.org                      |
|    \\/     M anipulation  |                                                 |
\*---------------------------------------------------------------------------*/
FoamFile
{
    version     2.0;
    format      ascii;
    class       surfaceScalarField;
    location    "64";
    object      phi;
}
// * * * * * * * * * * * * * * * * * * * * * * * * * * * * * * * * * * * * * //

dimensions      [0 3 -1 0 0 0 0];

internalField   nonuniform List<scalar> 
11516
(
-3.85975e+10
1.18111e+08
7.70872e+08
-3.92262e+10
7.56319e+07
5.49001e+08
-3.97692e+10
5.20449e+07
4.87827e+08
-4.01489e+10
6.78397e+06
3.71178e+08
-4.05118e+10
2.68384e+07
3.35809e+08
-4.08457e+10
2.25135e+07
3.12868e+08
-4.11359e+10
1.23642e+07
2.8095e+08
-4.14014e+10
7.94253e+06
2.62187e+08
-4.16373e+10
1.96749e+06
2.40094e+08
-4.18409e+10
-3.60726e+06
2.14856e+08
-4.20077e+10
-8.97982e+06
1.84992e+08
-4.21333e+10
-1.4496e+07
1.51028e+08
-4.22082e+10
-2.06608e+07
1.08603e+08
-4.22269e+10
-2.75899e+07
6.16315e+07
-4.21803e+10
-3.54422e+07
6.83278e+06
-4.20611e+10
-4.37482e+07
-5.50123e+07
-4.18644e+10
-5.19498e+07
-1.21411e+08
-4.15839e+10
-6.03408e+07
-1.93816e+08
-4.1218e+10
-6.91576e+07
-2.67502e+08
-4.07643e+10
-7.84724e+07
-3.43789e+08
-4.02229e+10
-8.8726e+07
-4.20939e+08
-3.95986e+10
-9.96809e+07
-4.92099e+08
-3.88943e+10
-1.11395e+08
-5.59472e+08
-3.81221e+10
-1.23557e+08
-6.13401e+08
-3.72903e+10
-1.36111e+08
-6.58306e+08
-3.64144e+10
-1.48693e+08
-6.86969e+08
-3.55039e+10
-1.61079e+08
-7.05921e+08
-3.4574e+10
-1.72805e+08
-7.09787e+08
-3.36336e+10
-1.83462e+08
-7.05242e+08
-3.26935e+10
-1.9248e+08
-6.91022e+08
-3.17635e+10
-1.99269e+08
-6.68963e+08
-3.08498e+10
-2.03154e+08
-6.4336e+08
-2.99628e+10
-2.03291e+08
-6.10987e+08
-2.91109e+10
-1.98538e+08
-5.75345e+08
-2.83034e+10
-1.87528e+08
-5.36189e+08
-2.75516e+10
-1.68775e+08
-4.92429e+08
-2.68637e+10
-1.41315e+08
-4.47234e+08
-2.62494e+10
-1.05383e+08
-3.97392e+08
-2.57057e+10
-6.62012e+07
-3.49567e+08
-2.52233e+10
-2.44617e+07
-3.08927e+08
-2.47991e+10
2.25828e+07
-2.72018e+08
-2.44302e+10
7.56351e+07
-2.39471e+08
-2.41174e+10
1.37248e+08
-2.09331e+08
-2.38641e+10
2.10691e+08
-1.79594e+08
-2.36803e+10
2.97224e+08
-1.45161e+08
-2.3585e+10
3.96591e+08
-1.09589e+08
-2.35696e+10
5.05533e+08
-1.18008e+08
-2.35749e+10
6.07582e+08
-2.27928e+08
-2.3566e+10
6.7536e+08
-3.8557e+08
-2.36924e+10
6.63534e+08
-1.1229e+08
-2.50139e+10
9.65018e+08
8.04152e+08
-2.93548e+10
3.45233e+09
1.61373e+09
-3.04211e+10
9.63261e+09
-8.24079e+09
4.15561e+09
-1.3824e+10
-5.01345e+10
5.54165e+08
-5.04437e+10
3.8314e+08
-5.07066e+10
3.13807e+08
-5.09586e+10
2.58239e+08
-5.11391e+10
2.07706e+08
-5.13026e+10
1.87339e+08
-5.14499e+10
1.62005e+08
-5.15827e+10
1.43898e+08
-5.1699e+10
1.22261e+08
-5.17957e+10
9.78648e+07
-5.18678e+10
6.86867e+07
-5.19118e+10
3.61494e+07
-5.19196e+10
-5.16206e+06
-5.18882e+10
-5.00371e+07
-5.18117e+10
-1.01675e+08
-5.16847e+10
-1.59401e+08
-5.15026e+10
-2.21211e+08
-5.12594e+10
-2.89254e+08
-5.09557e+10
-3.57168e+08
-5.05908e+10
-4.27256e+08
-5.01656e+10
-4.97512e+08
-4.96876e+10
-5.61117e+08
-4.91604e+10
-6.21407e+08
-4.8598e+10
-6.68145e+08
-4.80081e+10
-7.07262e+08
-4.74065e+10
-7.30597e+08
-4.68005e+10
-7.46063e+08
-4.62038e+10
-7.47147e+08
-4.56218e+10
-7.4149e+08
-4.50618e+10
-7.27019e+08
-4.45285e+10
-7.05385e+08
-4.40213e+10
-6.81666e+08
-4.35424e+10
-6.52093e+08
-4.30884e+10
-6.21188e+08
-4.26547e+10
-5.88396e+08
-4.22358e+10
-5.53045e+08
-4.18202e+10
-5.19362e+08
-4.13992e+10
-4.84197e+08
-4.09625e+10
-4.5405e+08
-4.05025e+10
-4.26839e+08
-4.00076e+10
-4.03594e+08
-3.9462e+10
-3.88172e+08
-3.88465e+10
-3.80222e+08
-3.81398e+10
-3.77679e+08
-3.73224e+10
-3.77947e+08
-3.63751e+10
-3.89424e+08
-3.52545e+10
-4.49031e+08
-3.39165e+10
-5.86129e+08
-3.24694e+10
-6.56105e+08
-3.17755e+10
1.21604e+08
-3.29979e+10
2.44898e+09
-3.19371e+10
2.62435e+09
-1.06636e+10
-1.15313e+10
-1.12028e+10
-6.78906e+10
5.04201e+07
8.82203e+08
-6.80227e+10
3.19047e+07
6.50012e+08
-6.81412e+10
2.29051e+07
5.84058e+08
-6.82664e+10
2.55463e+07
4.72039e+08
-6.8348e+10
2.03111e+07
3.99356e+08
-6.84224e+10
2.36151e+07
3.67037e+08
-6.84937e+10
2.58068e+07
3.30531e+08
-6.85541e+10
2.89799e+07
2.98598e+08
-6.86034e+10
3.15321e+07
2.6342e+08
-6.86436e+10
3.51969e+07
2.26189e+08
-6.86722e+10
3.87942e+07
1.81647e+08
-6.8686e+10
4.25452e+07
1.2977e+08
-6.86843e+10
4.62781e+07
6.88695e+07
-6.86648e+10
5.02427e+07
801196
-6.86267e+10
5.43401e+07
-7.61731e+07
-6.85732e+10
5.78241e+07
-1.56494e+08
-6.85034e+10
6.09355e+07
-2.41573e+08
-6.8419e+10
6.3952e+07
-3.30873e+08
-6.8319e+10
6.71426e+07
-4.22311e+08
-6.82063e+10
7.03172e+07
-5.14547e+08
-6.80845e+10
7.3543e+07
-6.04096e+08
-6.79565e+10
7.67304e+07
-6.85111e+08
-6.78298e+10
8.00052e+07
-7.54581e+08
-6.77065e+10
8.33426e+07
-8.08763e+08
-6.75991e+10
8.66847e+07
-8.41657e+08
-6.75081e+10
8.99646e+07
-8.58091e+08
-6.74436e+10
9.30268e+07
-8.54373e+08
-6.74056e+10
9.56805e+07
-8.35217e+08
-6.74013e+10
9.77432e+07
-8.00025e+08
-6.743e+10
9.89681e+07
-7.55002e+08
-6.74952e+10
9.91731e+07
-6.97763e+08
-6.75997e+10
9.80579e+07
-6.33247e+08
-6.77431e+10
9.55052e+07
-5.60855e+08
-6.79298e+10
9.14736e+07
-4.79824e+08
-6.81608e+10
8.61051e+07
-3.929e+08
-6.84395e+10
7.95219e+07
-2.96717e+08
-6.87696e+10
7.20189e+07
-1.93169e+08
-6.91523e+10
6.30104e+07
-8.12312e+07
-6.95987e+10
5.411e+07
4.21839e+07
-7.0134e+10
4.67406e+07
1.84221e+08
-7.07821e+10
4.08133e+07
3.47847e+08
-7.15711e+10
3.65754e+07
5.35441e+08
-7.25196e+10
3.43224e+07
7.40566e+08
-7.36617e+10
3.75364e+07
9.77489e+08
-7.50395e+10
5.25344e+07
1.25425e+09
-7.67053e+10
8.15767e+07
1.56718e+09
-7.87662e+10
1.26802e+08
1.90704e+09
-8.13426e+10
1.89113e+08
2.21454e+09
-8.44143e+10
2.77827e+08
2.41597e+09
-8.74297e+10
4.8181e+08
2.39718e+09
-9.06337e+10
1.67466e+09
2.43266e+09
-9.42482e+10
4.36474e+09
9.30732e+08
-1.13595e+11
1.01563e+10
9.92541e+08
-1.96228e+06
3.07965e+09
-7.81545e+10
7.29429e+08
-7.82649e+10
5.25606e+08
-7.83775e+10
4.49733e+08
-7.84845e+10
3.91768e+08
-7.85826e+10
3.27741e+08
-7.86659e+10
2.96408e+08
-7.87439e+10
2.68472e+08
-7.8809e+10
2.41039e+08
-7.88603e+10
2.08643e+08
-7.88982e+10
1.74986e+08
-7.89204e+10
1.33977e+08
-7.89223e+10
8.53205e+07
-7.8903e+10
2.69987e+07
-7.88582e+10
-3.91146e+07
-7.87849e+10
-1.14902e+08
-7.86866e+10
-1.93976e+08
-7.85624e+10
-2.78285e+08
-7.84138e+10
-3.67151e+08
-7.82392e+10
-4.57579e+08
-7.80405e+10
-5.48624e+08
-7.78202e+10
-6.37388e+08
-7.75794e+10
-7.18264e+08
-7.73253e+10
-7.88657e+08
-7.70584e+10
-8.45182e+08
-7.67916e+10
-8.8119e+08
-7.65246e+10
-9.02059e+08
-7.62694e+10
-9.03281e+08
-7.60272e+10
-8.8945e+08
-7.58082e+10
-8.59303e+08
-7.56146e+10
-8.18975e+08
-7.54541e+10
-7.65127e+08
-7.53341e+10
-7.02968e+08
-7.52598e+10
-6.31649e+08
-7.52421e+10
-5.49619e+08
-7.52888e+10
-4.59411e+08
-7.54096e+10
-3.5775e+08
-7.56159e+10
-2.46821e+08
-7.59182e+10
-1.24426e+08
-7.63306e+10
8.44533e+06
-7.68663e+10
1.54755e+08
-7.75412e+10
3.15893e+08
-7.83788e+10
4.96026e+08
-7.93971e+10
6.90463e+08
-8.06101e+10
9.02146e+08
-8.20234e+10
1.12995e+09
-8.36466e+10
1.36632e+09
-8.55337e+10
1.60969e+09
-8.77211e+10
1.80967e+09
-8.99824e+10
1.87361e+09
-9.08913e+10
1.51782e+09
-8.69583e+10
2.07393e+08
-7.71975e+10
-2.73614e+09
-8.07195e+10
2.04987e+09
7.86884e+09
-5.78977e+10
2.25608e+08
4.15259e+08
-5.77323e+10
2.38319e+08
2.47647e+08
-5.76074e+10
2.34087e+08
2.26819e+08
-5.75733e+10
2.4481e+08
1.95454e+08
-5.75413e+10
2.31708e+08
1.38637e+08
-5.75151e+10
2.33215e+08
1.11087e+08
-5.75088e+10
2.34817e+08
9.34545e+07
-5.75097e+10
2.35748e+08
6.8393e+07
-5.7517e+10
2.34738e+08
4.11742e+07
-5.75254e+10
2.34148e+08
6.35966e+06
-5.75355e+10
2.32615e+08
-3.44932e+07
-5.75439e+10
2.30054e+08
-8.50473e+07
-5.7545e+10
2.25789e+08
-1.48627e+08
-5.75321e+10
2.19917e+08
-2.24814e+08
-5.75031e+10
2.13212e+08
-3.11557e+08
-5.74458e+10
2.06025e+08
-4.13299e+08
-5.7353e+10
1.98449e+08
-5.26527e+08
-5.72217e+10
1.90356e+08
-6.45779e+08
-5.70462e+10
1.82649e+08
-7.73556e+08
-5.68272e+10
1.75334e+08
-9.02356e+08
-5.65669e+10
1.68054e+08
-1.02579e+09
-5.62656e+10
1.60775e+08
-1.14085e+09
-5.59325e+10
1.5397e+08
-1.23524e+09
-5.55785e+10
1.47615e+08
-1.3055e+09
-5.52125e+10
1.42146e+08
-1.34693e+09
-5.48483e+10
1.37669e+08
-1.3596e+09
-5.44952e+10
1.34381e+08
-1.34452e+09
-5.41611e+10
1.32319e+08
-1.3074e+09
-5.38512e+10
1.31462e+08
-1.25063e+09
-5.35723e+10
1.31704e+08
-1.17852e+09
-5.33231e+10
1.33068e+08
-1.09698e+09
-5.31083e+10
1.35496e+08
-1.00483e+09
-5.29255e+10
1.38907e+08
-9.08906e+08
-5.27722e+10
1.43123e+08
-8.0812e+08
-5.26504e+10
1.48446e+08
-7.00972e+08
-5.25534e+10
1.54905e+08
-5.92514e+08
-5.24769e+10
1.62214e+08
-4.81159e+08
-5.24156e+10
1.70489e+08
-3.66581e+08
-5.23602e+10
1.81361e+08
-2.5057e+08
-5.22874e+10
1.94449e+08
-1.39276e+08
-5.21657e+10
2.08263e+08
-3.63808e+07
-5.19586e+10
2.25444e+08
5.20034e+07
-5.16517e+10
2.52315e+08
1.3572e+08
-5.1213e+10
2.89763e+08
2.10716e+08
-5.05953e+10
3.39107e+08
2.68367e+08
-4.97476e+10
4.03628e+08
2.91055e+08
-4.86161e+10
4.92601e+08
2.44199e+08
-4.7217e+10
6.20732e+08
1.13771e+08
-4.57427e+10
8.25869e+08
-5.46514e+07
-4.46311e+10
1.18332e+09
-1.66798e+08
-4.32676e+10
2.11325e+09
-1.52989e+09
-4.18232e+10
3.92507e+09
-5.02209e+09
-3.71803e+10
1.02905e+10
-1.45169e+10
4.80463e+09
-3.41436e+09
-6.41181e+10
8.49066e+08
-6.40515e+10
6.98192e+08
-6.40322e+10
6.6556e+08
-6.40295e+10
6.35213e+08
-6.40631e+10
5.94584e+08
-6.40999e+10
5.68132e+08
-6.41456e+10
5.51156e+08
-6.41909e+10
5.24483e+08
-6.4241e+10
4.96356e+08
-6.42884e+10
4.59855e+08
-6.4336e+10
4.17819e+08
-6.43828e+10
3.66118e+08
-6.44276e+10
3.01738e+08
-6.44675e+10
2.2479e+08
-6.45031e+10
1.37604e+08
-6.45229e+10
3.53485e+07
-6.45211e+10
-7.82509e+07
-6.44958e+10
-1.98793e+08
-6.44361e+10
-3.31445e+08
-6.43387e+10
-4.67689e+08
-6.42053e+10
-5.99959e+08
-6.40349e+10
-7.25169e+08
-6.38358e+10
-8.31615e+08
-6.36162e+10
-9.16025e+08
-6.33817e+10
-9.73994e+08
-6.31432e+10
-1.00538e+09
-6.29061e+10
-1.01081e+09
-6.26748e+10
-9.95609e+08
-6.24509e+10
-9.61517e+08
-6.22387e+10
-9.12147e+08
-6.20334e+10
-8.53117e+08
-6.1838e+10
-7.82173e+08
-6.16478e+10
-7.06126e+08
-6.14585e+10
-6.23234e+08
-6.127e+10
-5.31679e+08
-6.10736e+10
-4.36197e+08
-6.08655e+10
-3.34165e+08
-6.06403e+10
-2.24522e+08
-6.03892e+10
-1.09461e+08
-6.00968e+10
6.73209e+06
-5.97484e+10
1.24968e+08
-5.93138e+10
2.35974e+08
-5.87683e+10
3.47272e+08
-5.80796e+10
4.55263e+08
-5.72151e+10
5.58663e+08
-5.61435e+10
6.49248e+08
-5.48084e+10
7.01788e+08
-5.31662e+10
6.86914e+08
-5.12847e+10
6.5514e+08
-4.9646e+10
7.97395e+08
-4.80569e+10
3.84362e+08
-4.53205e+10
-2.03667e+09
-2.15094e+10
-1.18502e+10
-5.06907e+09
-6.45407e+10
5.9221e+07
3.71997e+08
-6.46314e+10
4.01143e+07
2.99482e+08
-6.46814e+10
3.57022e+07
2.42351e+08
-6.47438e+10
2.63228e+07
2.32611e+08
-6.48216e+10
1.40138e+07
2.0325e+08
-6.48969e+10
8.80515e+06
1.78515e+08
-6.49678e+10
7.7073e+06
1.57802e+08
-6.50404e+10
5.45517e+06
1.37163e+08
-6.5112e+10
2.32382e+06
1.12707e+08
-6.51806e+10
-347782
7.81005e+07
-6.52413e+10
-3.12434e+06
3.27633e+07
-6.52915e+10
-5.32816e+06
-2.57863e+07
-6.53305e+10
-7.09636e+06
-9.86149e+07
-6.53582e+10
-8.60155e+06
-1.8503e+08
-6.53673e+10
-9.91877e+06
-2.89885e+08
-6.53588e+10
-1.09058e+07
-4.09232e+08
-6.53319e+10
-1.14356e+07
-5.41149e+08
-6.52819e+10
-1.22719e+07
-6.83275e+08
-6.52109e+10
-1.44635e+07
-8.30687e+08
-6.51168e+10
-1.68059e+07
-9.80559e+08
-6.50018e+10
-1.8125e+07
-1.12414e+09
-6.48707e+10
-1.78019e+07
-1.25545e+09
-6.47307e+10
-1.59359e+07
-1.36166e+09
-6.45929e+10
-1.24102e+07
-1.43529e+09
-6.44667e+10
-7.44746e+06
-1.47368e+09
-6.43631e+10
-1.33255e+06
-1.47439e+09
-6.42872e+10
5.51382e+06
-1.44322e+09
-6.42424e+10
1.25526e+07
-1.38706e+09
-6.42301e+10
1.90797e+07
-1.31013e+09
-6.42457e+10
2.45408e+07
-1.22147e+09
-6.42885e+10
2.85775e+07
-1.12338e+09
-6.43515e+10
3.13083e+07
-1.02105e+09
-6.44335e+10
3.29423e+07
-9.16076e+08
-6.45296e+10
3.35328e+07
-8.10833e+08
-6.46334e+10
3.29855e+07
-7.05634e+08
-6.47456e+10
3.15295e+07
-5.9796e+08
-6.48617e+10
2.99205e+07
-4.92476e+08
-6.49787e+10
2.88263e+07
-3.86802e+08
-6.50969e+10
2.90417e+07
-2.80331e+08
-6.52216e+10
3.28093e+07
-1.7574e+08
-6.53694e+10
4.16712e+07
-6.76651e+07
-6.55624e+10
5.63345e+07
4.23035e+07
-6.5812e+10
7.68669e+07
1.5245e+08
-6.61385e+10
1.06954e+08
2.64795e+08
-6.6564e+10
1.48698e+08
3.67989e+08
-6.71352e+10
2.07646e+08
4.5806e+08
-6.7959e+10
2.90999e+08
5.38252e+08
-6.91692e+10
3.85211e+08
6.01025e+08
-7.08731e+10
5.15335e+08
6.07329e+08
-7.30076e+10
8.2314e+08
2.97261e+08
-7.73916e+10
2.41328e+09
-7.18383e+08
-8.62767e+10
4.99836e+09
-2.60752e+09
-1.08758e+11
1.25245e+10
-5.83431e+09
3.81813e+09
-1.12564e+08
-6.609e+10
9.13566e+08
-6.62003e+10
8.49364e+08
-6.63062e+10
8.08072e+08
-6.6417e+10
7.73259e+08
-6.65466e+10
7.39001e+08
-6.66801e+10
7.11273e+08
-6.68056e+10
6.85612e+08
-6.6931e+10
6.56891e+08
-6.70538e+10
6.23387e+08
-6.71702e+10
5.7823e+08
-6.72751e+10
5.22303e+08
-6.7363e+10
4.51577e+08
-6.74303e+10
3.64877e+08
-6.74741e+10
2.62549e+08
-6.74845e+10
1.40052e+08
-6.74613e+10
2.46224e+06
-6.74039e+10
-1.46397e+08
-6.73124e+10
-3.02334e+08
-6.71992e+10
-4.59375e+08
-6.70679e+10
-6.16409e+08
-6.692e+10
-7.66518e+08
-6.67592e+10
-9.04461e+08
-6.65896e+10
-1.01835e+09
-6.64195e+10
-1.1011e+09
-6.62551e+10
-1.15087e+09
-6.61046e+10
-1.16512e+09
-6.59716e+10
-1.14938e+09
-6.58593e+10
-1.10998e+09
-6.57695e+10
-1.05051e+09
-6.57003e+10
-9.79212e+08
-6.56539e+10
-8.97795e+08
-6.56258e+10
-8.10939e+08
-6.56168e+10
-7.19667e+08
-6.56246e+10
-6.25723e+08
-6.5645e+10
-5.28876e+08
-6.56814e+10
-4.26343e+08
-6.57286e+10
-3.22392e+08
-6.57821e+10
-2.14808e+08
-6.58386e+10
-1.0311e+08
-6.58942e+10
9.71082e+06
-6.59458e+10
1.27328e+08
-6.59997e+10
2.49668e+08
-6.60509e+10
3.73451e+08
-6.60923e+10
4.96477e+08
-6.61062e+10
6.07375e+08
-6.60772e+10
7.00317e+08
-6.60086e+10
7.65003e+08
-6.5941e+10
7.73669e+08
-6.58215e+10
6.83832e+08
-6.50145e+10
2.70629e+08
-6.1921e+10
-1.0917e+09
-5.55419e+10
-4.27869e+09
-4.73227e+10
-8.05359e+09
2.30794e+08
-6.09471e+10
-7.46258e+07
4.24315e+08
-6.09366e+10
-1.05148e+08
3.96433e+08
-6.09483e+10
-1.1873e+08
3.75364e+08
-6.09547e+10
-1.25073e+08
3.66736e+08
-6.09791e+10
-1.31625e+08
3.62106e+08
-6.10183e+10
-1.33856e+08
3.545e+08
-6.10649e+10
-1.35054e+08
3.42845e+08
-6.11175e+10
-1.36152e+08
3.2975e+08
-6.11723e+10
-1.36657e+08
3.08645e+08
-6.12285e+10
-1.36617e+08
2.75923e+08
-6.12842e+10
-1.36565e+08
2.3049e+08
-6.13363e+10
-1.36098e+08
1.68349e+08
-6.13832e+10
-1.34763e+08
8.91735e+07
-6.14164e+10
-1.32847e+08
-1.33163e+07
-6.14329e+10
-1.30197e+08
-1.38509e+08
-6.14275e+10
-1.26239e+08
-2.8496e+08
-6.1394e+10
-1.19975e+08
-4.52196e+08
-6.13294e+10
-1.11557e+08
-6.34831e+08
-6.123e+10
-1.01987e+08
-8.26736e+08
-6.10931e+10
-9.25338e+07
-1.02353e+09
-6.09156e+10
-8.36974e+07
-1.2156e+09
-6.06977e+10
-7.54468e+07
-1.39323e+09
-6.04472e+10
-6.8303e+07
-1.53897e+09
-6.01762e+10
-6.173e+07
-1.63958e+09
-5.99038e+10
-5.57107e+07
-1.68824e+09
-5.96444e+10
-4.9248e+07
-1.6855e+09
-5.94124e+10
-4.16286e+07
-1.63785e+09
-5.92184e+10
-3.2264e+07
-1.55659e+09
-5.90697e+10
-2.09936e+07
-1.4497e+09
-5.89702e+10
-7.91361e+06
-1.32908e+09
-5.89214e+10
6.80535e+06
-1.19982e+09
-5.8923e+10
2.29989e+07
-1.06848e+09
-5.89733e+10
4.02675e+07
-9.38104e+08
-5.90719e+10
5.81391e+07
-8.0922e+08
-5.92168e+10
7.6203e+07
-6.83453e+08
-5.94036e+10
9.40239e+07
-5.59587e+08
-5.96339e+10
1.11356e+08
-4.36005e+08
-5.99031e+10
1.28351e+08
-3.15568e+08
-6.02102e+10
1.45611e+08
-1.94466e+08
-6.05559e+10
1.64939e+08
-7.48884e+07
-6.09366e+10
1.87618e+08
4.26904e+07
-6.13516e+10
2.16852e+08
1.56317e+08
-6.18027e+10
2.54684e+08
2.64596e+08
-6.22934e+10
3.01139e+08
3.71527e+08
-6.28345e+10
3.56648e+08
4.71671e+08
-6.34567e+10
4.24911e+08
5.7281e+08
-6.42266e+10
5.08075e+08
6.964e+08
-6.52684e+10
6.0373e+08
8.66424e+08
-6.68772e+10
7.21703e+08
1.16053e+09
-6.96756e+10
9.01231e+08
1.64028e+09
-7.78171e+10
2.40214e+09
4.21541e+09
-9.39947e+10
4.17873e+09
8.4953e+09
-1.28953e+11
9.89718e+09
1.88538e+10
-1.00156e+09
3.47173e+09
-5.78093e+10
6.97535e+08
-5.7729e+10
6.66134e+08
-5.76878e+10
6.50462e+08
-5.76619e+10
6.24723e+08
-5.76609e+10
6.08924e+08
-5.76755e+10
5.94823e+08
-5.76957e+10
5.73881e+08
-5.77221e+10
5.50605e+08
-5.77519e+10
5.2034e+08
-5.77851e+10
4.78981e+08
-5.78201e+10
4.25377e+08
-5.78549e+10
3.55124e+08
-5.78891e+10
2.69142e+08
-5.79161e+10
1.61206e+08
-5.79341e+10
3.17477e+07
-5.79372e+10
-1.17613e+08
-5.79122e+10
-2.88955e+08
-5.78463e+10
-4.77773e+08
-5.77273e+10
-6.78544e+08
-5.75469e+10
-8.87063e+08
-5.7302e+10
-1.09181e+09
-5.69937e+10
-1.28356e+09
-5.66304e+10
-1.44393e+09
-5.62272e+10
-1.56032e+09
-5.58041e+10
-1.62498e+09
-5.53772e+10
-1.6381e+09
-5.4961e+10
-1.60549e+09
-5.45653e+10
-1.53792e+09
-5.41958e+10
-1.44286e+09
-5.3855e+10
-1.33193e+09
-5.35424e+10
-1.20997e+09
-5.32565e+10
-1.08326e+09
-5.29944e+10
-9.54145e+08
-5.27553e+10
-8.23097e+08
-5.2537e+10
-6.91643e+08
-5.23367e+10
-5.5769e+08
-5.21577e+10
-4.19098e+08
-5.19968e+10
-2.79609e+08
-5.1852e+10
-1.36743e+08
-5.17202e+10
7.62953e+06
-5.15948e+10
1.55166e+08
-5.14649e+10
3.0427e+08
-5.13074e+10
4.42256e+08
-5.11043e+10
5.71897e+08
-5.08424e+10
6.85928e+08
-5.05138e+10
7.83308e+08
-5.01316e+10
8.65703e+08
-4.9753e+10
9.27445e+08
-4.94703e+10
9.61462e+08
-4.96224e+10
1.02427e+09
-5.08769e+10
2.21196e+09
-5.64222e+10
5.1705e+09
-7.00732e+10
1.54921e+10
7.33128e+09
-5.86021e+10
2.47467e+08
1.3481e+08
-5.85961e+10
2.37406e+08
1.58115e+08
-5.86122e+10
2.42246e+08
1.54561e+08
-5.86419e+10
2.47779e+08
1.54631e+08
-5.86844e+10
2.53568e+08
1.57346e+08
-5.87408e+10
2.61469e+08
1.56204e+08
-5.88106e+10
2.70428e+08
1.49332e+08
-5.88904e+10
2.80412e+08
1.3666e+08
-5.89775e+10
2.9156e+08
1.12227e+08
-5.90705e+10
3.03494e+08
7.39132e+07
-5.9164e+10
3.16303e+08
1.67911e+07
-5.92561e+10
3.29746e+08
-5.97202e+07
-5.93439e+10
3.44291e+08
-1.57402e+08
-5.94254e+10
3.59521e+08
-2.81539e+08
-5.94986e+10
3.74702e+08
-4.3115e+08
-5.95584e+10
3.88995e+08
-6.06272e+08
-5.96032e+10
4.01529e+08
-8.02141e+08
-5.96292e+10
4.12598e+08
-1.01494e+09
-5.96354e+10
4.22032e+08
-1.23594e+09
-5.96211e+10
4.2994e+08
-1.46044e+09
-5.95819e+10
4.36829e+08
-1.6806e+09
-5.95168e+10
4.41327e+08
-1.88479e+09
-5.943e+10
4.42882e+08
-2.04863e+09
-5.93342e+10
4.40166e+08
-2.15285e+09
-5.92436e+10
4.32935e+08
-2.18765e+09
-5.91662e+10
4.21513e+08
-2.15938e+09
-5.91054e+10
4.06808e+08
-2.07915e+09
-5.90609e+10
3.89861e+08
-1.96334e+09
-5.90266e+10
3.71802e+08
-1.82689e+09
-5.89995e+10
3.53584e+08
-1.67988e+09
-5.89724e+10
3.36114e+08
-1.53228e+09
-5.89398e+10
3.19895e+08
-1.38955e+09
-5.88981e+10
3.05275e+08
-1.25322e+09
-5.88416e+10
2.92281e+08
-1.12596e+09
-5.87679e+10
2.80947e+08
-1.00597e+09
-5.86724e+10
2.71124e+08
-8.9365e+08
-5.8551e+10
2.62843e+08
-7.86073e+08
-5.84e+10
2.55381e+08
-6.84755e+08
-5.82095e+10
2.47739e+08
-5.89491e+08
-5.79731e+10
2.39579e+08
-4.98695e+08
-5.76818e+10
2.3163e+08
-4.1532e+08
-5.73283e+10
2.24137e+08
-3.39633e+08
-5.69029e+10
2.16381e+08
-2.73974e+08
-5.63902e+10
2.07951e+08
-2.19241e+08
-5.57824e+10
2.01231e+08
-1.75026e+08
-5.50652e+10
1.9529e+08
-1.40729e+08
-5.421e+10
1.86254e+08
-1.09605e+08
-5.31369e+10
1.58657e+08
-1.0601e+08
-5.16801e+10
9.46029e+07
-1.29524e+08
-5.00283e+10
6.0335e+07
1.33873e+08
-4.72627e+10
8.82052e+07
1.61068e+09
-4.44808e+10
8.90297e+08
5.29146e+09
-5.22488e+10
6.99856e+09
1.99523e+10
4.89895e+09
9.2335e+09
-6.0799e+10
9.78425e+08
-6.09222e+10
1.03012e+09
-6.1054e+10
1.02805e+09
-6.12067e+10
1.02905e+09
-6.13777e+10
1.03768e+09
-6.15633e+10
1.04626e+09
-6.17629e+10
1.04853e+09
-6.1972e+10
1.045e+09
-6.21849e+10
1.02994e+09
-6.23987e+10
1.00169e+09
-6.26056e+10
9.54289e+08
-6.28014e+10
8.86591e+08
-6.29769e+10
7.94964e+08
-6.31242e+10
6.73748e+08
-6.32365e+10
5.23904e+08
-6.33059e+10
3.45284e+08
-6.3332e+10
1.42697e+08
-6.33142e+10
-7.93797e+07
-6.32568e+10
-3.10225e+08
-6.31638e+10
-5.45504e+08
-6.30322e+10
-7.80153e+08
-6.28623e+10
-1.00261e+09
-6.26619e+10
-1.18905e+09
-6.24476e+10
-1.32026e+09
-6.22395e+10
-1.38494e+09
-6.20519e+10
-1.38816e+09
-6.18944e+10
-1.33918e+09
-6.17713e+10
-1.25316e+09
-6.16793e+10
-1.14432e+09
-6.16157e+10
-1.02247e+09
-6.1572e+10
-8.97721e+08
-6.15398e+10
-7.75369e+08
-6.15115e+10
-6.56968e+08
-6.14763e+10
-5.45686e+08
-6.14268e+10
-4.39817e+08
-6.1353e+10
-3.3967e+08
-6.12451e+10
-2.42277e+08
-6.10952e+10
-1.49745e+08
-6.08934e+10
-6.22326e+07
-6.06329e+10
2.18368e+07
-6.02999e+10
9.75829e+07
-5.98816e+10
1.65517e+08
-5.93737e+10
2.20586e+08
-5.8764e+10
2.57756e+08
-5.80378e+10
2.69295e+08
-5.71717e+10
2.43177e+08
-5.61406e+10
1.71197e+08
-5.49269e+10
3.0428e+07
-5.35185e+10
-2.12016e+08
-5.19503e+10
-3.38612e+08
-4.97446e+10
2.77119e+08
-4.53121e+10
1.84449e+09
-2.694e+10
4.34516e+09
6.39322e+09
-5.47621e+10
2.97506e+08
-2.91329e+08
-5.46539e+10
3.06944e+08
-2.51566e+08
-5.45782e+10
3.16737e+08
-2.3209e+08
-5.45297e+10
3.2608e+08
-2.14e+08
-5.45034e+10
3.3337e+08
-1.95856e+08
-5.44968e+10
3.39045e+08
-1.82645e+08
-5.451e+10
3.43811e+08
-1.74266e+08
-5.45405e+10
3.48947e+08
-1.745e+08
-5.45868e+10
3.53853e+08
-1.87997e+08
-5.46433e+10
3.57882e+08
-2.20063e+08
-5.47099e+10
3.60289e+08
-2.69257e+08
-5.4777e+10
3.61206e+08
-3.46137e+08
-5.48335e+10
3.60447e+08
-4.53513e+08
-5.48705e+10
3.58e+08
-5.95302e+08
-5.48768e+10
3.54317e+08
-7.72827e+08
-5.4842e+10
3.49657e+08
-9.85592e+08
-5.47545e+10
3.44577e+08
-1.23031e+09
-5.46086e+10
3.40533e+08
-1.49793e+09
-5.4401e+10
3.39896e+08
-1.78155e+09
-5.41297e+10
3.4403e+08
-2.07269e+09
-5.37892e+10
3.51969e+08
-2.36773e+09
-5.338e+10
3.64097e+08
-2.64781e+09
-5.29145e+10
3.80773e+08
-2.87778e+09
-5.24325e+10
4.01051e+08
-3.01513e+09
-5.19771e+10
4.24171e+08
-3.04283e+09
-5.15875e+10
4.47983e+08
-2.9702e+09
-5.12831e+10
4.70676e+08
-2.82424e+09
-5.10698e+10
4.90502e+08
-2.6341e+09
-5.09443e+10
5.06458e+08
-2.42315e+09
-5.08933e+10
5.18102e+08
-2.2113e+09
-5.09045e+10
5.25546e+08
-2.00708e+09
-5.09627e+10
5.29029e+08
-1.81923e+09
-5.10545e+10
5.29208e+08
-1.64785e+09
-5.117e+10
5.27009e+08
-1.49335e+09
-5.12996e+10
5.23494e+08
-1.35387e+09
-5.14368e+10
5.19693e+08
-1.22759e+09
-5.15737e+10
5.16694e+08
-1.1133e+09
-5.17048e+10
5.16001e+08
-1.01078e+09
-5.18269e+10
5.19469e+08
-9.18389e+08
-5.19298e+10
5.27471e+08
-8.41277e+08
-5.20097e+10
5.40202e+08
-7.75969e+08
-5.20574e+10
5.58125e+08
-7.28176e+08
-5.2062e+10
5.82751e+08
-7.03322e+08
-5.20134e+10
6.14857e+08
-7.0283e+08
-5.18969e+10
6.56498e+08
-7.34233e+08
-5.1693e+10
7.08299e+08
-8.03365e+08
-5.13772e+10
7.67234e+08
-9.12301e+08
-5.09273e+10
8.32926e+08
-1.08401e+09
-5.02507e+10
8.69132e+08
-1.36276e+09
-4.89087e+10
8.31039e+08
-1.60832e+09
-4.57306e+10
7.36178e+08
-1.66335e+09
-3.99206e+10
2.92073e+08
-1.23628e+08
-3.18989e+10
2.6806e+09
9.8666e+09
3.07352e+09
5.81404e+09
-5.99814e+10
1.22102e+09
-5.99236e+10
1.28287e+09
-5.98818e+10
1.30654e+09
-5.98535e+10
1.33047e+09
-5.98372e+10
1.35849e+09
-5.98294e+10
1.38142e+09
-5.98315e+10
1.39844e+09
-5.98408e+10
1.40726e+09
-5.98559e+10
1.40281e+09
-5.98712e+10
1.37882e+09
-5.98894e+10
1.3367e+09
-5.99042e+10
1.26649e+09
-5.99105e+10
1.1654e+09
-5.99052e+10
1.02988e+09
-5.98824e+10
8.58088e+08
-5.98359e+10
6.50405e+08
-5.97569e+10
4.09479e+08
-5.96395e+10
1.44428e+08
-5.94725e+10
-1.37214e+08
-5.92466e+10
-4.27424e+08
-5.89512e+10
-7.22027e+08
-5.85832e+10
-1.00154e+09
-5.81504e+10
-1.23271e+09
-5.76834e+10
-1.37464e+09
-5.72166e+10
-1.41362e+09
-5.67807e+10
-1.35978e+09
-5.63899e+10
-1.24042e+09
-5.60478e+10
-1.0834e+09
-5.5752e+10
-9.10197e+08
-5.54922e+10
-7.39184e+08
-5.52604e+10
-5.77438e+08
-5.50462e+10
-4.32865e+08
-5.484e+10
-3.04959e+08
-5.46351e+10
-1.93326e+08
-5.44251e+10
-9.46464e+07
-5.42051e+10
-6.06527e+06
-5.39661e+10
7.25148e+07
-5.36975e+10
1.39757e+08
-5.33872e+10
1.96026e+08
-5.30157e+10
2.36605e+08
-5.25716e+10
2.64775e+08
-5.20362e+10
2.74715e+08
-5.13873e+10
2.59391e+08
-5.0598e+10
2.09049e+08
-4.96387e+10
1.14948e+08
-4.84773e+10
-3.91435e+07
-4.70798e+10
-2.68567e+08
-4.54196e+10
-5.88848e+08
-4.35216e+10
-9.82851e+08
-4.15212e+10
-1.15446e+09
-3.90945e+10
-9.07053e+08
-3.69593e+10
6.7484e+08
-2.85e+10
-9.9999e+08
1.45313e+09
-5.95283e+10
-1.72513e+08
-1.64768e+08
-5.94901e+10
-1.74666e+08
-1.10209e+08
-5.94723e+10
-1.72136e+08
-7.32669e+07
-5.94768e+10
-1.7113e+08
-3.40968e+07
-5.95001e+10
-1.71746e+08
3.38623e+06
-5.95412e+10
-1.74322e+08
3.70992e+07
-5.96014e+10
-1.77215e+08
6.73817e+07
-5.96768e+10
-1.79231e+08
8.41268e+07
-5.97668e+10
-1.80851e+08
8.64213e+07
-5.98692e+10
-1.82278e+08
6.7836e+07
-5.99749e+10
-1.83636e+08
2.27967e+07
-6.00783e+10
-1.84349e+08
-5.59109e+07
-6.01703e+10
-1.84232e+08
-1.75256e+08
-6.02388e+10
-1.83145e+08
-3.42048e+08
-6.02721e+10
-1.80564e+08
-5.58258e+08
-6.02554e+10
-1.76116e+08
-8.26717e+08
-6.01756e+10
-1.69442e+08
-1.14209e+09
-6.00198e+10
-1.60253e+08
-1.49719e+09
-5.97809e+10
-1.4829e+08
-1.87802e+09
-5.94549e+10
-1.35458e+08
-2.27167e+09
-5.90316e+10
-1.21875e+08
-2.67831e+09
-5.84943e+10
-1.06051e+08
-3.08359e+09
-5.78507e+10
-8.75143e+07
-3.43254e+09
-5.71483e+10
-6.50753e+07
-3.64375e+09
-5.64643e+10
-3.89855e+07
-3.67423e+09
-5.58594e+10
-1.03021e+07
-3.54598e+09
-5.53693e+10
1.91361e+07
-3.30933e+09
-5.50084e+10
4.78298e+07
-3.0135e+09
-5.47746e+10
7.4905e+07
-2.69843e+09
-5.46568e+10
1.001e+08
-2.39266e+09
-5.46379e+10
1.23344e+08
-2.11002e+09
-5.4702e+10
1.4446e+08
-1.8579e+09
-5.48318e+10
1.63052e+08
-1.63697e+09
-5.50116e+10
1.79501e+08
-1.44623e+09
-5.52265e+10
1.95089e+08
-1.28443e+09
-5.54636e+10
2.09325e+08
-1.1462e+09
-5.57065e+10
2.19939e+08
-1.03147e+09
-5.5942e+10
2.26639e+08
-9.35248e+08
-5.61537e+10
2.29582e+08
-8.59374e+08
-5.63295e+10
2.28188e+08
-8.02953e+08
-5.64509e+10
2.21835e+08
-7.68832e+08
-5.65022e+10
2.10129e+08
-7.59282e+08
-5.64674e+10
1.92591e+08
-7.80326e+08
-5.63211e+10
1.65237e+08
-8.42024e+08
-5.60259e+10
1.24983e+08
-9.61188e+08
-5.55382e+10
7.09762e+07
-1.15018e+09
-5.47758e+10
1.69697e+06
-1.44081e+09
-5.36418e+10
-6.74502e+07
-1.87254e+09
-5.21611e+10
-1.30984e+08
-2.31772e+09
-5.04275e+10
-1.81101e+08
-2.55283e+09
-4.81786e+10
-1.36334e+08
-2.9275e+09
-4.24762e+10
-4.98329e+08
-4.32889e+09
-8.34808e+09
-6.24034e+09
-1.72723e+10
-2.57663e+09
-9.33127e+09
-5.90335e+10
1.06907e+09
-5.90586e+10
1.13607e+09
-5.91046e+10
1.18306e+09
-5.91737e+10
1.23115e+09
-5.92625e+10
1.2782e+09
-5.93726e+10
1.32002e+09
-5.95078e+10
1.3591e+09
-5.96634e+10
1.38624e+09
-5.98392e+10
1.40013e+09
-6.00335e+10
1.393e+09
-6.02386e+10
1.36001e+09
-6.04491e+10
1.29443e+09
-6.06561e+10
1.18961e+09
-6.08476e+10
1.03938e+09
-6.10116e+10
8.42031e+08
-6.11322e+10
5.94526e+08
-6.11936e+10
3.00147e+08
-6.1174e+10
-3.79936e+07
-6.10561e+10
-4.08423e+08
-6.08296e+10
-7.96525e+08
-6.04796e+10
-1.20098e+09
-5.99828e+10
-1.60907e+09
-5.93382e+10
-1.96549e+09
-5.85884e+10
-2.18513e+09
-5.78113e+10
-2.22129e+09
-5.70741e+10
-2.09513e+09
-5.64203e+10
-1.85948e+09
-5.58703e+10
-1.56673e+09
-5.54254e+10
-1.25889e+09
-5.5076e+10
-9.65296e+08
-5.48062e+10
-6.99114e+08
-5.46014e+10
-4.66981e+08
-5.44467e+10
-2.68869e+08
-5.43277e+10
-1.03453e+08
-5.42281e+10
3.20704e+07
-5.41357e+10
1.44746e+08
-5.40409e+10
2.35164e+08
-5.39403e+10
3.08627e+08
-5.38268e+10
3.62227e+08
-5.36982e+10
3.95752e+08
-5.35452e+10
4.05058e+08
-5.33612e+10
3.86115e+08
-5.31399e+10
3.31282e+08
-5.28712e+10
2.2122e+08
-5.25421e+10
4.00521e+07
-5.21245e+10
-2.43957e+08
-5.15507e+10
-6.80169e+08
-5.06862e+10
-1.31591e+09
-4.9383e+10
-2.1149e+09
-4.71993e+10
-3.01755e+09
-4.29666e+10
-4.55877e+09
-3.48981e+10
-7.1502e+09
-2.06138e+10
-2.10934e+10
-9.88286e+09
-6.17308e+10
-2.25338e+08
7.54456e+07
-6.17616e+10
-2.19738e+08
1.42959e+08
-6.18075e+10
-2.09495e+08
1.84851e+08
-6.18714e+10
-2.01299e+08
2.33884e+08
-6.19533e+10
-1.91251e+08
2.79578e+08
-6.20532e+10
-1.80581e+08
3.20884e+08
-6.2172e+10
-1.68448e+08
3.58145e+08
-6.23113e+10
-1.54536e+08
3.81507e+08
-6.24687e+10
-1.39377e+08
3.86755e+08
-6.26432e+10
-1.23512e+08
3.69165e+08
-6.28304e+10
-1.07168e+08
3.20372e+08
-6.30212e+10
-9.08838e+07
2.2885e+08
-6.32079e+10
-7.54456e+07
8.97651e+07
-6.33804e+10
-6.17837e+07
-1.04989e+08
-6.35217e+10
-5.10278e+07
-3.64128e+08
-6.36148e+10
-4.41342e+07
-6.88842e+08
-6.36384e+10
-4.26242e+07
-1.07702e+09
-6.35771e+10
-4.83496e+07
-1.51551e+09
-6.34211e+10
-6.00105e+07
-1.98429e+09
-6.31648e+10
-7.45719e+07
-2.47265e+09
-6.27934e+10
-8.90202e+07
-2.98398e+09
-6.22735e+10
-1.01367e+08
-3.52423e+09
-6.15867e+10
-1.06848e+08
-4.02885e+09
-6.0794e+10
-9.67297e+07
-4.34729e+09
-6.00254e+10
-6.54256e+07
-4.37859e+09
-5.93802e+10
-1.48704e+07
-4.17277e+09
-5.88986e+10
4.74185e+07
-3.83041e+09
-5.85898e+10
1.14018e+08
-3.42462e+09
-5.84407e+10
1.79572e+08
-3.013e+09
-5.84327e+10
2.41404e+08
-2.62633e+09
-5.85459e+10
2.98851e+08
-2.27882e+09
-5.87669e+10
3.52117e+08
-1.97154e+09
-5.90842e+10
4.01592e+08
-1.70314e+09
-5.94917e+10
4.48095e+08
-1.46815e+09
-5.99906e+10
4.92291e+08
-1.25844e+09
-6.05799e+10
5.35119e+08
-1.07166e+09
-6.12652e+10
5.77063e+08
-9.01071e+08
-6.20476e+10
6.17815e+08
-7.45749e+08
-6.29347e+10
6.56093e+08
-5.99197e+08
-6.39303e+10
6.90496e+08
-4.628e+08
-6.50406e+10
7.19457e+08
-3.36109e+08
-6.62726e+10
7.41097e+08
-2.1949e+08
-6.76354e+10
7.53301e+08
-1.17363e+08
-6.91534e+10
7.60222e+08
-3.40874e+07
-7.08569e+10
7.59497e+08
1.88383e+07
-7.27451e+10
7.43442e+08
2.2835e+06
-7.47878e+10
7.09024e+08
-1.31283e+08
-7.68626e+10
6.57163e+08
-4.9601e+08
-7.8455e+10
5.53729e+08
-1.27113e+09
-7.81782e+10
3.09703e+08
-3.0474e+09
-7.32266e+10
-5.38437e+08
-7.11583e+09
-5.86568e+10
-3.01556e+09
-1.55318e+10
-3.9116e+10
-9.06505e+09
-2.76461e+10
-3.78343e+09
-6.49444e+09
-6.18004e+10
9.35341e+08
-6.19311e+10
1.04792e+09
-6.20622e+10
1.10546e+09
-6.22156e+10
1.18426e+09
-6.23853e+10
1.25787e+09