/*--------------------------------*- C++ -*----------------------------------*\
| =========                 |                                                 |
| \\      /  F ield         | OpenFOAM: The Open Source CFD Toolbox           |
|  \\    /   O peration     | Version:  4.1                                   |
|   \\  /    A nd           | Web:      www.OpenFOAM.org                      |
|    \\/     M anipulation  |                                                 |
\*---------------------------------------------------------------------------*/
FoamFile
{
    version     2.0;
    format      ascii;
    class       volVectorField;
    location    "64";
    object      U;
}
// * * * * * * * * * * * * * * * * * * * * * * * * * * * * * * * * * * * * * //

dimensions      [0 1 -1 0 0 0 0];

internalField   nonuniform List<vector> 
4432
(
(-150619 -3957.65 -1214.14)
(-157335 -3987.27 -1647.68)
(-158128 -3649.19 -1319.31)
(-159575 -4045.48 -2031.62)
(-161336 -4066.18 -2244.38)
(-162842 -4094.68 -2285.99)
(-163990 -4167.8 -2466.11)
(-165095 -4213.69 -2587.29)
(-166093 -4263.92 -2717.06)
(-166984 -4321.19 -2860.44)
(-167741 -4384.96 -3020.22)
(-168336 -4449.11 -3206.51)
(-168739 -4511.91 -3420.47)
(-168923 -4575.88 -3656.47)
(-168874 -4643.13 -3906.76)
(-168546 -4712.35 -4171.7)
(-167913 -4783.01 -4455.09)
(-166957 -4857.4 -4753.11)
(-165662 -4937.51 -5063.2)
(-164016 -5023.54 -5376.71)
(-162019 -5116.35 -5687.74)
(-159677 -5214.98 -5984.74)
(-157010 -5318.72 -6257.68)
(-154043 -5426.13 -6497.19)
(-150822 -5535.48 -6696.4)
(-147392 -5644.68 -6853.12)
(-143809 -5750.87 -6966.58)
(-140120 -5851.4 -7039.53)
(-136377 -5942.8 -7074.84)
(-132617 -6022.11 -7077.24)
(-128882 -6086.08 -7051.49)
(-125206 -6131.42 -7002.61)
(-121615 -6155 -6937.55)
(-118146 -6153.38 -6860.91)
(-114825 -6124.15 -6777.22)
(-111688 -6064.66 -6689.08)
(-108773 -5973.22 -6597.73)
(-106112 -5852 -6501.82)
(-103785 -5716.67 -6400.08)
(-101701 -5580.43 -6346.47)
(-99890 -5441.99 -6336.8)
(-98336.1 -5303.07 -6364.14)
(-96983.6 -5150.36 -6393.35)
(-95802.2 -4967.2 -6374.67)
(-94950.8 -4742.28 -6246.85)
(-94875.3 -4452.64 -5932.29)
(-95577.8 -4052 -5370.35)
(-95154.1 -3438.31 -4300.34)
(-90435.5 -2269.21 -2256.64)
(-83927.6 -266.269 2107.9)
(-93697.1 3209.68 7936.17)
(-133285 9286.65 16621.5)
(-171541 24160.1 -1488.05)
(-41695.7 11379 -7203.69)
(-198817 3959.17 8.40949)
(-201638 4064.83 -558.879)
(-202502 4387.11 -716.276)
(-203351 4139.1 -920.04)
(-204123 4172.1 -1126.41)
(-204957 4205.38 -1171.62)
(-205533 4199.39 -1293.85)
(-206067 4212.28 -1380.39)
(-206567 4220.29 -1477.42)
(-207008 4219.86 -1577.6)
(-207359 4211.3 -1691.4)
(-207595 4198.76 -1826.75)
(-207698 4183.37 -1983.48)
(-207648 4162.76 -2153.5)
(-207434 4135.6 -2332.35)
(-207030 4103.82 -2526.74)
(-206409 4070.18 -2735.38)
(-205555 4035.01 -2949.29)
(-204456 3996.96 -3165.03)
(-203109 3955.54 -3375.34)
(-201519 3910.1 -3573.39)
(-199699 3861.51 -3750.06)
(-197676 3809.45 -3896.32)
(-195483 3755.2 -4005.35)
(-193165 3698.42 -4072.88)
(-190770 3639.75 -4098.9)
(-188347 3579.07 -4085.59)
(-185937 3517.22 -4037.9)
(-183581 3454.15 -3961.89)
(-181304 3390.49 -3864.82)
(-179127 3326.17 -3754.3)
(-177062 3261.25 -3637.73)
(-175106 3195.78 -3522.1)
(-173257 3129.22 -3414.05)
(-171494 3060.65 -3319.6)
(-169792 2988.42 -3242.09)
(-168116 2909.11 -3181.8)
(-166425 2817.09 -3140.25)
(-164692 2701.43 -3118.08)
(-162891 2559.77 -3107.6)
(-160997 2398.39 -3108.04)
(-158953 2223.99 -3113.46)
(-156661 2046.82 -3100.4)
(-154010 1879.82 -3032.89)
(-151011 1737.77 -2866.94)
(-147851 1639.8 -2574.52)
(-144454 1621.03 -2159.64)
(-139404 1745.36 -1476.3)
(-130311 2150.87 -157.627)
(-118587 2989.76 2627.01)
(-120748 4534.15 5901.06)
(-157784 6923.52 7317.63)
(-147214 15518.9 -10888.8)
(60145.9 7323.07 -15797.2)
(-270940 -1677.94 5669.91)
(-271887 -1786.16 4779.8)
(-272446 -1851.35 4908.78)
(-272917 -1773.23 4408.12)
(-273147 -1779.44 4185.13)
(-273563 -1768.07 4156.65)
(-273867 -1759.38 4100.5)
(-274094 -1743.5 4066.67)
(-274313 -1733.21 4022.48)
(-274499 -1722.06 3967.18)
(-274644 -1716.29 3893.61)
(-274737 -1712.54 3791.85)
(-274759 -1709.21 3662.05)
(-274703 -1706.1 3508.19)
(-274583 -1705.85 3334.17)
(-274387 -1712.33 3140.37)
(-274135 -1720.94 2933.73)
(-273818 -1728.82 2719.68)
(-273438 -1736.45 2502.42)
(-273001 -1744.36 2292.54)
(-272517 -1751.95 2101.67)
(-272003 -1759.32 1946.95)
(-271479 -1765.66 1843.97)
(-270968 -1770.95 1806.9)
(-270500 -1775.27 1844.49)
(-270098 -1779.09 1959.03)
(-269789 -1782.82 2149.42)
(-269588 -1787.3 2409.84)
(-269513 -1793.27 2733.84)
(-269569 -1802.19 3112.19)
(-269771 -1815.28 3536.53)
(-270123 -1833.97 3998.89)
(-270632 -1858.91 4492.68)
(-271305 -1891.22 5011.73)
(-272145 -1932.52 5548.98)
(-273162 -1983.65 6098.59)
(-274368 -2045.14 6653.6)
(-275781 -2120.54 7204.27)
(-277394 -2210.84 7749.85)
(-279321 -2306.71 8312.96)
(-281663 -2405.57 8920)
(-284535 -2504.85 9590.46)
(-288001 -2604.5 10331.8)
(-292102 -2698.41 11178.7)
(-297141 -2768.44 12179.4)
(-303517 -2805.26 13325.5)
(-311478 -2788.78 14555.8)
(-320400 -2658.33 15737.5)
(-327872 -2329.31 16878.8)
(-335514 -1687.52 18040.2)
(-351660 -736.457 19864.7)
(-409860 1180.44 14098.4)
(-422629 12689.7 -15674.8)
(-458357 13563.5 -32767.8)
(-312087 2128.94 3762.07)
(-312959 1978.71 2902.51)
(-313355 1904.35 2656.35)
(-313748 1955.11 2482.79)
(-314093 1941.64 2260.26)
(-314523 1944.27 2197.27)
(-314851 1945.48 2129.89)
(-315105 1955.06 2071.21)
(-315340 1960.61 1993.51)
(-315527 1968.45 1906.21)
(-315655 1973.34 1799.25)
(-315710 1978.91 1662.72)
(-315672 1986.7 1494.11)
(-315533 1997.5 1298.27)
(-315294 2008.31 1080.84)
(-314936 2015.67 843.967)
(-314484 2021.09 591.185)
(-313929 2025.81 324.645)
(-313271 2029.3 50.549)
(-312513 2030.92 -222.551)
(-311660 2031.06 -484.563)
(-310724 2029.6 -721.047)
(-309720 2027.09 -917.086)
(-308667 2023.65 -1060.73)
(-307594 2019.1 -1143.36)
(-306521 2013.4 -1162.24)
(-305479 2006.04 -1117.42)
(-304487 1996.66 -1012.56)
(-303572 1984.52 -851.876)
(-302752 1968.79 -641.324)
(-302054 1948.39 -386.159)
(-301501 1922.39 -91.4902)
(-301119 1890.61 238.24)
(-300941 1852.73 599.635)
(-300998 1808.1 990.297)
(-301325 1756.28 1407.84)
(-301962 1697.72 1847.74)
(-302951 1630.85 2304.56)
(-304354 1558.99 2773.71)
(-306223 1480.36 3259.93)
(-308626 1391.88 3776.44)
(-311648 1292.54 4328.66)
(-315343 1180.46 4924.65)
(-319773 1059.5 5583.54)
(-325060 938.066 6318.32)
(-331461 819.469 7111.2)
(-339057 719.39 7931.21)
(-346974 678.577 8725.88)
(-351941 821.839 9705.84)
(-353287 792.228 11828.9)
(-359867 1624.25 15108.6)
(-378009 2749.3 6350.88)
(-339327 13337.1 -23006)
(-295999 -8848.21 -6920.31)
(-232504 -1662.77 1411.58)
(-230814 -1736.67 214.024)
(-230675 -1955.84 -191.866)
(-230460 -1840.32 -373.223)
(-230188 -1870.28 -695.767)
(-230092 -1911.49 -909.608)
(-230042 -1955.08 -1048.75)
(-230028 -1991.9 -1195.07)
(-230043 -2040.94 -1355.02)
(-230075 -2091.22 -1529.35)
(-230120 -2147.33 -1733.86)
(-230171 -2206.6 -1975.96)
(-230187 -2271.04 -2261.09)
(-230158 -2340.4 -2592.56)
(-230069 -2412.62 -2972.36)
(-229911 -2487.12 -3391.52)
(-229611 -2561.76 -3848.27)
(-229156 -2635.91 -4341.03)
(-228533 -2707.09 -4861.83)
(-227734 -2776 -5399.24)
(-226758 -2843.07 -5933.91)
(-225618 -2908.01 -6444.58)
(-224334 -2969.04 -6905.77)
(-222944 -3026.26 -7298.23)
(-221491 -3078.82 -7609.51)
(-220024 -3126.82 -7837.72)
(-218585 -3169.85 -7986.47)
(-217212 -3207.66 -8065.47)
(-215932 -3239.69 -8084.86)
(-214765 -3265.3 -8057.04)
(-213725 -3283.53 -7991.23)
(-212813 -3294.59 -7891.81)
(-212031 -3299.31 -7756.12)
(-211373 -3297.83 -7583.96)
(-210831 -3288.55 -7375.25)
(-210395 -3271.69 -7122.07)
(-210045 -3249.32 -6819.76)
(-209760 -3222.21 -6466.93)
(-209515 -3187.26 -6052.73)
(-209278 -3147.67 -5569.51)
(-208948 -3110.91 -5025.47)
(-208330 -3075.08 -4449.38)
(-207305 -3025.83 -3839)
(-205834 -2965.31 -3162.91)
(-203795 -2886.99 -2462.68)
(-201348 -2761.13 -1838.13)
(-198308 -2490.42 -1469.3)
(-192936 -1894.1 -1611.74)
(-182744 -542.081 -2265.86)
(-169805 1892.88 -3064.37)
(-173711 6253.2 -6099.73)
(-200072 9775.71 -16983.1)
(-197037 28462.2 -32485.5)
(-88699.9 12920.7 -9244.88)
(-256777 3634.34 2109.83)
(-256276 3660.96 1228.94)
(-256138 3513.24 989.754)
(-256078 3676.29 845.782)
(-256189 3706.27 613.954)
(-256335 3724.1 437.303)
(-256487 3740.32 341.948)
(-256663 3762.78 228.07)
(-256859 3773.98 98.9973)
(-257052 3783.14 -47.3321)
(-257249 3785.67 -221.493)
(-257444 3783.21 -431.466)
(-257620 3772.91 -684.302)
(-257779 3754.14 -985.828)
(-257926 3728.12 -1334.55)
(-258050 3694.87 -1718.93)
(-258081 3658.01 -2136.44)
(-258021 3617.77 -2586.31)
(-257849 3576.13 -3060.36)
(-257523 3533.42 -3546.6)
(-257044 3489.4 -4023.68)
(-256420 3444.68 -4469.22)
(-255666 3401.02 -4859.66)
(-254814 3358.63 -5176.42)
(-253897 3318.49 -5408.32)
(-252949 3280.74 -5554)
(-251998 3245.71 -5617.73)
(-251067 3213.4 -5609.28)
(-250170 3183.73 -5538.78)
(-249312 3156.57 -5417.29)
(-248496 3131.67 -5253.64)
(-247712 3107.71 -5053.51)
(-246955 3082.46 -4817.53)
(-246213 3054.43 -4544.42)
(-245468 3023.56 -4234.09)
(-244701 2987.53 -3884.41)
(-243891 2942.21 -3492.45)
(-243018 2884.7 -3057.26)
(-242058 2815.12 -2580.39)
(-240975 2727.69 -2064.14)
(-239730 2613.36 -1511.7)
(-238202 2472.54 -944.045)
(-236275 2313.49 -370.545)
(-233809 2139.77 196.163)
(-230776 1959.28 723.642)
(-227300 1796.13 1142.81)
(-223359 1703.5 1379.36)
(-217208 1815.98 1255.28)
(-206370 2395.7 868.893)
(-192088 3704.94 542.028)
(-192658 5472.33 -1053.65)
(-205090 5324.61 -9723.2)
(-201851 7624.87 -20658.8)
(24990.3 9388.53 -2553.75)
(-258001 -3250.31 2484.89)
(-258458 -3375.17 2280.69)
(-258538 -3393.44 2011.08)
(-258847 -3387.7 2022.43)
(-259163 -3414.42 1928.15)
(-259446 -3457.54 1840.72)
(-259726 -3484.27 1755.68)
(-260013 -3508.89 1665.42)
(-260306 -3536.25 1555.8)
(-260587 -3560.2 1416.16)
(-260849 -3583.8 1238.31)
(-261076 -3604.1 1023.79)
(-261255 -3622.8 762.42)
(-261380 -3641.87 448.583)
(-261448 -3662.14 82.156)
(-261448 -3682.51 -328.307)
(-261368 -3701.46 -771.553)
(-261203 -3719.71 -1233.59)
(-260947 -3737.37 -1697.72)
(-260596 -3750.33 -2145.4)
(-260157 -3755.59 -2550.96)
(-259642 -3751 -2884.22)
(-259077 -3736.1 -3110.68)
(-258502 -3710.31 -3205.57)
(-257964 -3674.43 -3156.14)
(-257503 -3629.77 -2966.82)
(-257150 -3578.31 -2652.92)
(-256923 -3522.1 -2236.96)
(-256826 -3462.93 -1743)
(-256857 -3402.48 -1194.16)
(-257000 -3342.11 -608.97)
(-257234 -3283.51 -1.40948)
(-257544 -3228.64 620.54)
(-257915 -3176.66 1250.86)
(-258326 -3126.51 1885.96)
(-258761 -3080.76 2524.54)
(-259209 -3040.31 3164.59)
(-259665 -3007.04 3803.98)
(-260128 -2985.41 4439.77)
(-260607 -2980.58 5063.56)
(-261121 -3002.71 5678.9)
(-261806 -3064.19 6330.83)
(-262668 -3182.18 7043.51)
(-263762 -3367.42 7825.62)
(-265269 -3632.98 8676.34)
(-267592 -3974.37 9593.7)
(-271066 -4352.6 10555.9)
(-274991 -4707.31 11531.4)
(-276857 -4810.96 12491.8)
(-278779 -4472.41 13455.8)
(-291018 -2873.88 10660.4)
(-361592 -1008.89 3880.17)
(-459103 13444.7 -22740.8)
(-367164 15311.3 -16601.5)
(-264229 3448.46 4757.32)
(-264653 3397.46 4515.9)
(-264922 3399.86 4426.57)
(-265395 3433.24 4335.39)
(-265974 3431.49 4234.72)
(-266479 3407.17 4136.29)
(-266964 3394.25 4035.33)
(-267470 3379.5 3914.61)
(-267974 3357.69 3780.66)
(-268452 3334.97 3614.51)
(-268900 3309.31 3408.01)
(-269293 3284.21 3159.31)
(-269607 3258.55 2861.95)
(-269824 3230.16 2507.03)
(-269930 3198.43 2092.61)
(-269904 3164.57 1627.89)
(-269732 3129.86 1123.7)
(-269414 3093.58 592.767)
(-268975 3055.49 48.118)
(-268467 3019.49 -489.936)
(-267889 2987.3 -998.826)
(-267250 2960.27 -1450.69)
(-266569 2938.05 -1816.12)
(-265874 2920.42 -2070.9)
(-265198 2905.94 -2203.56)
(-264570 2892.91 -2215.48)
(-264011 2879.42 -2117.83)
(-263535 2863.82 -1927.27)
(-263147 2844.85 -1661.41)
(-262849 2823.1 -1336.77)
(-262640 2799.13 -966.462)
(-262512 2772.26 -559.741)
(-262458 2741.23 -120.321)
(-262466 2707.64 350.165)
(-262530 2673.17 852.416)
(-262646 2635.45 1389.37)
(-262805 2593.97 1961.51)
(-262997 2547.58 2568.56)
(-263212 2493 3207.43)
(-263442 2427.93 3872.08)
(-263655 2342.29 4561.97)
(-263869 2224.1 5283.61)
(-264081 2055.54 6059.25)
(-264245 1825.43 6886.59)
(-264406 1521.74 7751.59)
(-264791 1146.73 8622.07)
(-265421 734.115 9383.83)
(-264979 333.313 9858.48)
(-260582 185.822 9880.17)
(-252828 34.9131 8959.4)
(-253302 1099.93 2266.38)
(-272284 -3427.57 -9984.3)
(-235152 11168.6 -39969.5)
(-135261 4354.38 -17357.2)
(-243815 -3389.14 286.477)
(-243817 -3567.57 36.6945)
(-243720 -3560.69 -96.5589)
(-243765 -3559.56 -223.344)
(-243874 -3581.62 -303.607)
(-244005 -3607.92 -368.619)
(-244165 -3632.38 -434.969)
(-244352 -3656.1 -519.157)
(-244569 -3673.1 -626.05)
(-244799 -3682.54 -778.617)
(-245030 -3689.31 -989.5)
(-245250 -3694.06 -1253.42)
(-245447 -3694.6 -1582.17)
(-245602 -3692.91 -1989.82)
(-245701 -3689.52 -2481.78)
(-245719 -3683.19 -3057.44)
(-245633 -3672.16 -3713.64)
(-245429 -3657.97 -4434.73)
(-245089 -3644.32 -5201.46)
(-244599 -3633.85 -5992.2)
(-243947 -3627.44 -6779.62)
(-243127 -3624.57 -7520.92)
(-242160 -3625.14 -8167.8)
(-241092 -3626.34 -8674.01)
(-239988 -3626.19 -9016.44)
(-238918 -3620.78 -9195.16)
(-237939 -3607.09 -9228.52)
(-237099 -3582.54 -9143.67)
(-236431 -3545.59 -8969.84)
(-235956 -3495.32 -8732.16)
(-235682 -3432.12 -8449.93)
(-235608 -3358.42 -8137.84)
(-235731 -3277.65 -7806.61)
(-236045 -3191.31 -7457.93)
(-236541 -3100.37 -7088.31)
(-237207 -3008.68 -6698.78)
(-238036 -2920.19 -6290.59)
(-239020 -2837.75 -5864.65)
(-240157 -2764.71 -5425.94)
(-241455 -2705.85 -4981.14)
(-242926 -2673.73 -4548.47)
(-244531 -2671.17 -4175.19)
(-246253 -2702.71 -3882.03)
(-248084 -2780.64 -3699.18)
(-250153 -2919.06 -3679.59)
(-252850 -3123.53 -3851.48)
(-256485 -3386.86 -4177.84)
(-260065 -3663.93 -4615.51)
(-261324 -3911.5 -5053.91)
(-262806 -4596.78 -6067.4)
(-279359 -4100.44 -2740.75)
(-376916 -8612.57 6179.73)
(-528763 2448.02 23576.4)
(-431998 3576.61 16249.4)
(-231700 2434.65 2411.31)
(-230976 2293.05 2117.95)
(-230768 2307.39 1927.94)
(-230632 2329.55 1717.83)
(-230667 2324.82 1581.84)
(-230689 2313.87 1490.65)
(-230743 2303.73 1382.55)
(-230824 2293.96 1247.89)
(-230935 2290.74 1092.46)
(-231067 2295.24 891.753)
(-231213 2303.13 638.315)
(-231357 2314.26 329.176)
(-231490 2331.57 -44.5284)
(-231607 2353.71 -493.377)
(-231695 2381.48 -1020.54)
(-231735 2417.15 -1621.68)
(-231697 2461.63 -2289.59)
(-231516 2509.89 -3007.3)
(-231146 2556.89 -3757.19)
(-230531 2599.22 -4524.3)
(-229658 2635.7 -5279.78)
(-228522 2666.77 -5983.25)
(-227148 2692.38 -6584.59)
(-225588 2715.46 -7039.47)
(-223917 2737.82 -7325.35)
(-222210 2763.12 -7443.73)
(-220528 2793.88 -7414.26)
(-218917 2832.36 -7265.67)
(-217405 2879.93 -7028.33)
(-216006 2937.23 -6728.89)
(-214722 3003.56 -6387.31)
(-213547 3076.38 -6017.76)
(-212470 3151.93 -5627.65)
(-211483 3228.29 -5219.19)
(-210576 3304.79 -4790.01)
(-209738 3378.46 -4335.41)
(-208970 3445.92 -3852.62)
(-208272 3504.79 -3341.54)
(-207644 3552.62 -2804.01)
(-207087 3590.67 -2239.35)
(-206586 3619.33 -1648.05)
(-206117 3631.16 -1043.89)
(-205558 3615.8 -477.039)
(-204796 3558.22 34.4752)
(-203904 3445.73 461.981)
(-203190 3274.84 781.872)
(-202768 3050.23 960.328)
(-201138 2840.74 872.569)
(-195318 2709.49 379.721)
(-186341 1988.44 -528.923)
(-196216 1858.49 1469.38)
(-245035 -2036.97 6084.32)
(-307789 7679.86 25495.8)
(-227588 -5353.08 26259.9)
(-234529 -1782.48 2942.25)
(-234365 -1852.42 2930.75)
(-234389 -1846.53 2913.21)
(-234470 -1836.54 2893.08)
(-234646 -1833.98 2887.18)
(-234852 -1817.58 2871.77)
(-235101 -1795.39 2843.18)
(-235387 -1776.34 2792.61)
(-235722 -1755.35 2712.4)
(-236095 -1726.64 2580.7)
(-236476 -1688.34 2381.74)
(-236846 -1647.15 2104.74)
(-237198 -1603.4 1740.76)
(-237537 -1558.42 1283.61)
(-237844 -1514.3 733.086)
(-238103 -1473.33 93.0626)
(-238300 -1436.04 -621.757)
(-238426 -1401.88 -1388.46)
(-238474 -1370.78 -2180.06)
(-238437 -1342.94 -2971.83)
(-238299 -1318.18 -3733)
(-238051 -1300.15 -4414.87)
(-237708 -1290.18 -4951.83)
(-237315 -1291.1 -5282.82)
(-236933 -1302.99 -5384.2)
(-236606 -1324.34 -5270.2)
(-236355 -1351.92 -4982.64)
(-236176 -1382.32 -4572.99)
(-236055 -1412.12 -4091.53)
(-235969 -1438.71 -3579.2)
(-235892 -1460.62 -3065.77)
(-235801 -1477.69 -2572.02)
(-235675 -1489.97 -2111.48)
(-235495 -1498.61 -1689.27)
(-235244 -1505.54 -1304.53)
(-234907 -1512.9 -955.742)
(-234470 -1522.35 -641.191)
(-233916 -1537.7 -359.378)
(-233227 -1563.46 -111.34)
(-232376 -1601.56 96.9889)
(-231331 -1649.91 258.252)
(-230063 -1706.23 351.174)
(-228510 -1765.09 364.281)
(-226602 -1815.06 281.114)
(-224383 -1835.37 88.4866)
(-222084 -1812.04 -211.481)
(-219726 -1724.21 -609.58)
(-216027 -1552.98 -1217.05)
(-208215 -1246.12 -2094.14)
(-194935 -599.173 -2993.86)
(-195026 -25.4304 1189.65)
(-204752 1090.56 10435.7)
(-230055 16398.9 64730.1)
(-178521 14950.7 20684.7)
(-243011 3603.58 3196.24)
(-243458 3597.53 3278.42)
(-243901 3647.46 3223.25)
(-244483 3704.07 3151.55)
(-245165 3754.14 3127.18)
(-245875 3818.02 3116.28)
(-246648 3888.45 3096.25)
(-247462 3956.7 3051.85)
(-248307 4027.17 2970.37)
(-249170 4105.08 2836.96)
(-250020 4191.84 2639.43)
(-250830 4280.63 2364.13)
(-251574 4370.53 1997.78)
(-252224 4458.77 1529.45)
(-252745 4541.74 956.061)
(-253103 4615.92 280.982)
(-253276 4679.91 -488.208)
(-253275 4735.94 -1325.22)
(-253095 4783.13 -2196.63)
(-252773 4821.25 -3081.56)
(-252291 4851.4 -3949.66)
(-251646 4869.95 -4750.26)
(-250862 4875.37 -5414.79)
(-249999 4864.85 -5880.37)
(-249138 4838.07 -6117.2)
(-248350 4796.47 -6135.42)
(-247680 4743.14 -5972.29)
(-247148 4681.36 -5677.29)
(-246753 4614.37 -5300.43)
(-246480 4544.69 -4884.53)
(-246301 4473.55 -4461.58)
(-246182 4400.84 -4053.61)
(-246088 4326.2 -3674.03)
(-245983 4248.34 -3329.81)
(-245829 4165.32 -3023.64)
(-245590 4075.13 -2755.19)
(-245230 3976.11 -2523.36)
(-244708 3865.28 -2330.15)
(-243996 3738.63 -2180.29)
(-243079 3593.32 -2079.97)
(-241912 3430.74 -2035.62)
(-240436 3253.89 -2052.24)
(-238576 3063.33 -2154)
(-236316 2862.13 -2353.79)
(-233685 2663.44 -2669.09)
(-230846 2479.52 -3092.15)
(-227801 2328.45 -3589.02)
(-223346 2230.19 -4181.85)
(-215167 2193.06 -4970.95)
(-203046 2286.44 -5660.1)
(-201087 2058.28 -2759.42)
(-209759 883.825 3237.17)
(-194422 9762.61 34935.4)
(-35011.4 9626.51 20628.5)
(-219518 -2679.02 -1667.07)
(-218691 -2577.67 -1511.09)
(-218448 -2538.24 -1488.14)
(-218175 -2497.74 -1459.06)
(-218051 -2453.09 -1440.67)
(-217994 -2394.99 -1434.47)
(-218002 -2336.69 -1444.24)
(-218076 -2287 -1480.42)
(-218232 -2245.35 -1561.98)
(-218453 -2203.75 -1700)
(-218709 -2163.47 -1898.21)
(-218978 -2127.8 -2178.3)
(-219235 -2097.56 -2555.68)
(-219429 -2072.57 -3047.59)
(-219521 -2051.12 -3660.76)
(-219464 -2031.88 -4394.31)
(-219212 -2012.78 -5236.52)
(-218733 -1990.25 -6164.63)
(-218010 -1959.48 -7149.48)
(-217033 -1920.17 -8165.57)
(-215777 -1874.01 -9184.45)
(-214219 -1818.69 -10147.6)
(-212393 -1753.73 -10945.4)
(-210431 -1681.81 -11463.3)
(-208518 -1605.79 -11643.8)
(-206825 -1530.4 -11514.1)
(-205459 -1458.7 -11146.2)
(-204465 -1393.3 -10624.9)
(-203835 -1335.21 -10026.2)
(-203529 -1284.74 -9407.79)
(-203492 -1241.54 -8808.68)
(-203667 -1204.33 -8253.25)
(-203998 -1170.64 -7753.91)
(-204436 -1137.42 -7315.34)
(-204940 -1102.78 -6937.15)
(-205476 -1065.78 -6617.81)
(-206019 -1024.1 -6354.93)
(-206544 -973.196 -6146.47)
(-207036 -908.541 -5989.12)
(-207482 -828.584 -5878.7)
(-207861 -731.162 -5808.93)
(-208139 -611.251 -5773.14)
(-208248 -458.377 -5760.1)
(-208127 -258.909 -5751.41)
(-207821 7.62754 -5742.42)
(-207579 366.51 -5683.06)
(-207446 849.513 -5497.43)
(-205974 1519.3 -5186.32)
(-199843 2401.66 -4729.34)
(-188153 3813.61 -2827.27)
(-185354 6680.97 1669.9)
(-197479 7415.06 10686.6)
(-195130 11945.1 61200.3)
(-62837 6272.41 33505)
(-240129 4977.69 4693.75)
(-239747 5010.67 4992.23)
(-239607 5007.57 5052.83)
(-239453 5002.89 5110.69)
(-239373 4998.4 5178.52)
(-239325 5004.19 5239.43)
(-239316 5007.3 5278.93)
(-239337 4999.03 5292.09)
(-239385 4978.97 5259.78)
(-239453 4953.89 5168.18)
(-239527 4922.64 5005.13)
(-239592 4881.76 4752.13)
(-239635 4830.84 4392.25)
(-239640 4771.14 3912.89)
(-239583 4705.4 3308.04)
(-239438 4636.85 2579.47)
(-239177 4569.99 1737.17)
(-238770 4511.85 802.459)
(-238199 4471.11 -195.658)
(-237394 4455.53 -1231.65)
(-236318 4468.23 -2281.47)
(-234935 4511.76 -3287.75)
(-233264 4586.77 -4149.26)
(-231407 4687.75 -4757.47)
(-229512 4806.07 -5058.43)
(-227713 4930.21 -5073.6)
(-226089 5050.42 -4866.21)
(-224667 5158.95 -4509.14)
(-223438 5251.21 -4068.25)
(-222372 5324.75 -3593.77)
(-221429 5379.2 -3119)
(-220569 5415.51 -2663.35)
(-219755 5436.29 -2239.83)
(-218954 5444.07 -1853.64)
(-218136 5440.29 -1499.23)
(-217279 5428.52 -1175.74)
(-216358 5411.01 -888.664)
(-215343 5388.81 -648.068)
(-214184 5364.53 -463.329)
(-212824 5338.93 -338.358)
(-211215 5312.02 -286.824)
(-209288 5285.39 -323.52)
(-206941 5266 -463.827)
(-204052 5262.5 -743.261)
(-200600 5288.92 -1210.7)
(-196756 5363.17 -1902.17)
(-192517 5510.99 -2842.5)
(-186598 5787.27 -4081.42)
(-175741 6229.27 -5590.84)
(-159647 7016.87 -5769.2)
(-153750 8487.26 -3057.2)
(-171260 7074.01 -922.605)
(-209947 14295.8 -17149.9)
(-15474.9 4674.66 17493.9)
(-238304 -2984.91 -1037.15)
(-237956 -2876.43 -801.329)
(-237895 -2815.11 -655.086)
(-237879 -2764.66 -514.417)
(-237947 -2699.99 -391.531)
(-238073 -2623.46 -272.075)
(-238263 -2550.53 -168.85)
(-238527 -2483.53 -108.358)
(-238872 -2417.66 -114.146)
(-239268 -2348.41 -198.369)
(-239688 -2280.13 -382.023)
(-240113 -2214.01 -691.473)
(-240512 -2150.04 -1149.8)
(-240844 -2087.69 -1774.92)
(-241057 -2025 -2576.76)
(-241095 -1959.96 -3555.48)
(-240895 -1890.58 -4694.85)
(-240406 -1814.35 -5959.25)
(-239601 -1728.8 -7299.77)
(-238458 -1634.15 -8672.56)
(-236927 -1528.28 -10046.7)
(-234928 -1407.84 -11347.4)
(-232450 -1272.69 -12401.3)
(-229651 -1124.07 -12990.6)
(-226822 -967.639 -13006.1)
(-224243 -809.264 -12519)
(-222091 -653.434 -11681.3)
(-220446 -500.549 -10647.3)
(-219317 -348.319 -9545.14)
(-218670 -193.36 -8462.4)
(-218447 -32.131 -7450.67)
(-218581 138.61 -6534.89)
(-219004 320.262 -5721.29)
(-219649 513.961 -5006.18)
(-220457 721.867 -4384.59)
(-221373 944.101 -3849.16)
(-222337 1176.88 -3394.59)
(-223292 1419.33 -3020.02)
(-224186 1670.99 -2726.26)
(-224968 1928.17 -2516.8)
(-225582 2185.15 -2399.14)
(-225957 2433.98 -2385.4)
(-225998 2663.73 -2492.67)
(-225649 2856.49 -2730.21)
(-224806 2974.59 -3178.36)
(-223613 2984.94 -3837.72)
(-221959 2853.44 -4763.66)
(-218327 2588.54 -6057.26)
(-209616 2110.22 -7573.87)
(-196639 1537.32 -8484.2)
(-189282 1991.41 -8390.36)
(-194889 3761.59 -5639.52)
(-183434 -3910.52 -12281.9)
(82486 -8265.16 -5697.76)
(-236085 1744.16 4853.7)
(-236131 1691.77 5129.07)
(-236308 1625.04 5311.66)
(-236549 1537.42 5480.68)
(-236851 1454.89 5642.75)
(-237246 1378.39 5794.28)
(-237734 1292.98 5920.02)
(-238313 1196.54 6006.5)
(-238984 1094.71 6037.16)
(-239732 994.3 5991.56)
(-240536 893.943 5847.32)
(-241374 794.988 5580.04)
(-242217 700.516 5166.33)
(-243025 613.903 4586.58)
(-243746 539.832 3827.71)
(-244320 482.571 2886.75)
(-244680 445.134 1775.15)
(-244757 428.702 524.184)
(-244477 428.95 -812.759)
(-243773 436.126 -2184.2)
(-242593 450.174 -3556.01)
(-240827 476.034 -4856.5)
(-238435 515.16 -5914.66)
(-235544 569.749 -6511.18)
(-232434 637.761 -6540.42)
(-229401 715.495 -6081.49)
(-226652 798.009 -5297.72)
(-224298 882.119 -4347.64)
(-222367 966.375 -3358.42)
(-220834 1050.59 -2411.88)
(-219645 1135.75 -1552.45)
(-218737 1223.08 -798.095)
(-218048 1313.47 -147.793)
(-217525 1410.5 410.445)
(-217112 1519.13 888.241)
(-216736 1635.29 1301.14)
(-216354 1753.18 1661.18)
(-215952 1876.08 1974.52)
(-215514 2006.63 2241.51)
(-215025 2143.66 2460.35)
(-214470 2284.5 2621.66)
(-213815 2424.08 2704.85)
(-213007 2553.52 2670.72)
(-211991 2646.86 2454.2)
(-210818 2679.48 1966.88)
(-209705 2613.21 1083.65)
(-208654 2397.99 -411.45)
(-206151 2032.83 -2728.02)
(-198078 1528.49 -5790.28)
(-183757 906.312 -9187.31)
(-173229 711.173 -14343.9)
(-180080 816.698 -12597.1)
(-168460 -13843.9 -29394.1)
(1717.64 -5890.03 -6076.98)
(-246876 -2159.21 224.86)
(-246962 -2126.96 432.478)
(-247097 -2098.74 571.161)
(-247345 -2084.41 734.948)
(-247644 -2052.11 880.071)
(-247996 -2016.62 1013.59)
(-248422 -1991.77 1115.59)
(-248938 -1972.82 1158.51)
(-249541 -1952.99 1130.06)
(-250214 -1934.15 1016.54)
(-250941 -1920.44 783.261)
(-251704 -1914.49 399.923)
(-252472 -1917.04 -162.463)
(-253204 -1929.16 -931.91)
(-253847 -1952.18 -1927.88)
(-254327 -1983.62 -3154.27)
(-254558 -2020.71 -4596.31)
(-254463 -2059.59 -6214.08)
(-254006 -2089.67 -7940.9)
(-253176 -2098.34 -9722.61)
(-251904 -2073.16 -11538.9)
(-250023 -2002.51 -13333)
(-247420 -1869.27 -14866.9)
(-244281 -1654.94 -15740.3)
(-241082 -1358.46 -15707.7)
(-238278 -1003.88 -14895.7)
(-236101 -625.352 -13590.6)
(-234613 -249.683 -12041.7)
(-233784 106.518 -10441.1)
(-233538 436.919 -8898.77)
(-233801 742.513 -7466.69)
(-234507 1027.92 -6158.06)
(-235609 1298.97 -4964.15)
(-237075 1562.55 -3864.75)
(-238892 1825.02 -2841.12)
(-241063 2093.86 -1872.99)
(-243597 2378.09 -944.518)
(-246511 2684.5 -48.5047)
(-249831 3017.16 813.274)
(-253582 3379.74 1629.46)
(-257792 3774.91 2376.84)
(-262480 4202.01 3015)
(-267662 4655.52 3475.19)
(-273322 5143.32 3710.67)
(-279763 5651.27 3605.58)
(-287331 6134.04 2978.15)
(-296096 6536.98 1536.68)
(-304592 6794.55 -1155.32)
(-308698 6842.47 -5175.02)
(-305074 6708.42 -11471.9)
(-299020 5174.49 -23704.3)
(-312009 1420.78 -42422.6)
(-222555 -11989.5 -89506.1)
(-92842.1 -8216.08 -40051.7)
(-246861 541.792 4178.22)
(-247492 588.651 4437.63)
(-247945 627.089 4602.6)
(-248551 655.112 4820.53)
(-249183 704.027 5011.98)
(-249896 761.389 5174.69)
(-250685 814.27 5305.69)
(-251541 867.5 5383.39)
(-252464 928.682 5391.59)
(-253441 997.175 5309.13)
(-254455 1069.48 5106.98)
(-255480 1142.72 4756.89)
(-256489 1213.82 4232.13)
(-257443 1279.11 3510.36)
(-258295 1334.23 2577.54)
(-258989 1373.4 1432.2)
(-259466 1390.24 87.2927)
(-259690 1381.21 -1420.78)
(-259731 1352.96 -3033.23)
(-259643 1316.82 -4700.99)
(-259353 1279.83 -6408.58)
(-258683 1248.03 -8105.14)
(-257474 1232.75 -9561.47)
(-255794 1252.01 -10390)
(-253927 1316.67 -10340.9)
(-252131 1420.35 -9526.99)
(-250524 1546.4 -8228.58)
(-249147 1680.75 -6698.23)
(-248004 1814.88 -5134.7)
(-247082 1945.58 -3655.84)
(-246361 2073.38 -2319.67)
(-245821 2200.33 -1144.21)
(-245444 2329.26 -124.211)
(-245221 2465.16 756.161)
(-245138 2613.27 1524.03)
(-245206 2780.99 2216.97)
(-245427 2973.06 2856.99)
(-245801 3193.45 3459.31)
(-246355 3446.02 4033.75)
(-247125 3735.49 4585.41)
(-248161 4066.75 5113.84)
(-249518 4443.83 5610.49)
(-251258 4869.04 6054.18)
(-253478 5346.88 6398.66)
(-256398 5862.63 6561.18)
(-260467 6375.06 6396.27)
(-265982 6832.51 5644.15)
(-271897 7192.38 3976.54)
(-274589 7295.15 922.512)
(-272528 6886.73 -5076.58)
(-273420 5044.49 -18189.8)
(-306171 83.535 -42614.2)
(-287753 -15270.4 -97274)
(-196878 -10670.7 -31370.4)
(-246568 -1896.76 26.2369)
(-247210 -1897.46 315.763)
(-247707 -1950.47 470.831)
(-248359 -1988.12 683.881)
(-249082 -2031.02 899.227)
(-249878 -2089.32 1112.49)
(-250770 -2162.47 1300.54)
(-251765 -2247.64 1446.35)
(-252854 -2345.41 1531.76)
(-254028 -2460.05 1527.06)
(-255275 -2591.6 1394.39)
(-256571 -2740.2 1094.22)
(-257880 -2903.87 583.596)
(-259153 -3078.46 -179.545)
(-260326 -3256.92 -1233.95)
(-261313 -3434.81 -2606.31)
(-262002 -3606.21 -4288.02)
(-262290 -3763.43 -6225.4)
(-262150 -3907.67 -8325.76)
(-261594 -4041.22 -10513.2)
(-260550 -4165.25 -12805.3)
(-258692 -4276.19 -15252.6)
(-255613 -4363.25 -17628.6)
(-251359 -4404.56 -19246)
(-246620 -4363.59 -19497.3)
(-242153 -4217.69 -18562.6)
(-238279 -3975.94 -17048.2)
(-235045 -3663.27 -15358.4)
(-232373 -3307.87 -13741)
(-230136 -2932.03 -12300)
(-228224 -2549.08 -11065)
(-226551 -2164.92 -10024.3)
(-225054 -1780.98 -9145.07)
(-223692 -1398.74 -8383.66)
(-222437 -1023.34 -7702.41)
(-221276 -649.524 -7064.31)
(-220212 -269.837 -6435.08)
(-219259 118.615 -5780.14)
(-218431 517.202 -5062.57)
(-217750 927.823 -4243.59)
(-217234 1351.7 -3282.41)
(-216896 1790.4 -2139.2)
(-216743 2244.8 -784.468)
(-216813 2721.91 791.748)
(-217286 3232.52 2567.98)
(-218671 3795.61 4467.86)
(-221446 4423.22 6378.49)
(-224522 5139.49 7978.41)
(-225164 6055.88 8545.51)
(-223966 7335.74 6125.02)
(-235317 8044.08 -3543.68)
(-285648 9894.6 -31685.9)
(-299326 -2848.32 -91247.9)
(-173760 2576.68 -13881.9)
(-228620 1968.79 2919.15)
(-228228 2132.95 3437.62)
(-228063 2211.89 3701.63)
(-227898 2316.72 4093.66)
(-227783 2429.26 4467.41)
(-227691 2537.03 4848.26)
(-227636 2640.9 5230.27)
(-227629 2743.31 5587.58)
(-227678 2842.94 5895.64)
(-227797 2933.7 6126.23)
(-227993 3012.79 6242.55)
(-228278 3076.09 6202.62)
(-228659 3120.48 5960.79)
(-229135 3144.24 5472.61)
(-229690 3147.17 4700.05)
(-230291 3130.45 3620.04)
(-230876 3099.16 2228.26)
(-231379 3063.05 563.786)
(-231754 3026.99 -1272.88)
(-232059 2989.4 -3204.3)
(-232267 2948.38 -5257.02)
(-232109 2904.83 -7468.24)
(-231289 2863.42 -9606.97)
(-230009 2842.54 -10992.3)
(-229038 2881.32 -11022.5)
(-228955 3006.28 -9886.02)
(-229720 3209.21 -8189.39)
(-231047 3467.32 -6317.95)
(-232595 3756.47 -4506.56)
(-234105 4057.58 -2849.2)
(-235421 4359.99 -1373)
(-236464 4659.44 -69.3731)
(-237207 4954.59 1086.26)
(-237646 5244.45 2133.63)
(-237886 5538.51 3114.6)
(-238007 5849.74 4046.17)
(-238058 6187.55 4927.42)
(-238058 6556.39 5778.99)
(-238037 6957.12 6614.46)
(-238035 7391.29 7439.42)
(-238109 7859.85 8263.74)
(-238334 8364.06 9096.45)
(-238801 8906.84 9947.35)
(-239670 9497.52 10825.6)
(-241278 10147.6 11728.3)
(-244264 10880 12631.9)
(-249263 11717.9 13477.2)
(-255757 12712.5 14159.8)
(-261332 13920.9 14402.4)
(-267145 15519.8 12954.7)
(-286459 17044.4 6084.74)
(-368536 18608.4 -16376)
(-499071 5532.96 -62247.9)
(-422791 -13622.4 -50565.5)
(-251071 -2312.37 1577.65)
(-251722 -2429.02 2162.76)
(-252109 -2578.19 2387.04)
(-252648 -2704.95 2693.96)
(-253229 -2854.28 2982.59)
(-253875 -3012.07 3257.67)
(-254593 -3175.97 3494.1)
(-255391 -3348.33 3675.9)