/*--------------------------------*- C++ -*----------------------------------*\
| =========                 |                                                 |
| \\      /  F ield         | OpenFOAM: The Open Source CFD Toolbox           |
|  \\    /   O peration     | Version:  4.1                                   |
|   \\  /    A nd           | Web:      www.OpenFOAM.org                      |
|    \\/     M anipulation  |                                                 |
\*---------------------------------------------------------------------------*/
FoamFile
{
    version     2.0;
    format      ascii;
    class       volVectorField;
    location    "35";
    object      U;
}
// * * * * * * * * * * * * * * * * * * * * * * * * * * * * * * * * * * * * * //

dimensions      [0 1 -1 0 0 0 0];

internalField   nonuniform List<vector> 
4432
(
(39.9835 0.0015638 0.0520911)
(39.9167 0.00267513 0.0929443)
(39.8447 0.00648518 0.126378)
(39.7406 0.00807796 0.160516)
(39.5799 0.00763013 0.19587)
(39.3654 0.0062435 0.231794)
(39.1074 0.00453494 0.267498)
(38.8145 0.00290747 0.301197)
(38.4924 0.00160299 0.331668)
(38.1439 0.000593253 0.357537)
(37.7673 -0.000396227 0.376958)
(37.359 -0.00148835 0.391788)
(36.9105 -0.00361117 0.39834)
(36.4364 -0.00567458 0.402631)
(35.9193 -0.01057 0.391943)
(35.4931 -0.0133228 0.345749)
(35.1406 -0.00987488 0.413412)
(34.9276 -0.00422512 0.370647)
(34.8322 0.000221472 0.41381)
(34.4461 0.0186567 0.694998)
(33.8856 0.0181067 0.826084)
(33.3039 0.0184773 0.941373)
(32.7218 -0.0119932 0.986626)
(32.0482 -0.0441401 0.938343)
(31.2326 -0.0472257 0.957598)
(30.3623 -0.0451261 0.910398)
(29.5546 -0.0517193 0.765442)
(28.799 -0.0518559 0.556752)
(28.1842 -0.0460368 0.427907)
(27.8673 -0.0616133 0.335789)
(27.9416 -0.085746 0.19725)
(28.832 -0.0561178 -0.21069)
(30.4704 0.0660352 -0.831705)
(32.3132 0.245123 -1.31617)
(34.218 0.417741 -1.82859)
(35.811 0.490634 -1.83849)
(37.883 0.552959 -1.06779)
(39.1047 0.0154839 -1.04094)
(39.1113 -0.233868 -0.94358)
(39.3349 -0.122832 -0.364051)
(38.8692 0.00780675 0.461604)
(38.0425 0.10255 1.10523)
(36.6541 0.012669 1.41092)
(34.7276 -0.0254187 1.76533)
(33.5554 -0.00797374 2.08993)
(31.7777 0.522778 2.02093)
(29.7775 1.08492 3.05214)
(30.3766 0.420736 3.20574)
(28.2912 -0.00153593 2.66189)
(26.7615 -0.612083 2.51209)
(14.2814 0.905886 1.40691)
(27.3428 -1.21568 -1.02245)
(31.9143 -3.8973 -1.71109)
(51.6616 -2.88794 0.481137)
(39.9861 0.00156371 0.0520654)
(39.9195 0.00267488 0.0929324)
(39.8454 0.00648608 0.126259)
(39.737 0.00808492 0.160067)
(39.5739 0.00764431 0.194891)
(39.359 0.00626311 0.230243)
(39.1019 0.00455619 0.26521)
(38.8108 0.00292865 0.298261)
(38.4907 0.00161715 0.328371)
(38.1436 0.000599321 0.35419)
(37.767 -0.000399201 0.374516)
(37.3562 -0.0015038 0.390563)
(36.9064 -0.00361885 0.400802)
(36.4186 -0.0057459 0.406755)
(35.9086 -0.0104994 0.4034)
(35.4195 -0.0136836 0.362082)
(35.0539 -0.010389 0.368024)
(34.9117 -0.00413062 0.32027)
(34.8084 -7.35404e-05 0.417005)
(34.4522 0.0178593 0.713732)
(33.9126 0.0174885 0.814467)
(33.3111 0.0185955 0.841503)
(32.6868 -0.0090416 0.881756)
(32.0101 -0.045064 0.866134)
(31.1774 -0.0523069 0.870337)
(30.1913 -0.0462051 0.771469)
(29.1863 -0.0484945 0.63167)
(28.3311 -0.0556166 0.516756)
(27.6619 -0.0478478 0.348327)
(27.1252 -0.0560314 0.130571)
(26.9409 -0.0822384 -0.116432)
(27.3194 -0.0986851 -0.321623)
(28.6568 -0.00238624 -0.661426)
(30.4177 0.0991916 -0.630133)
(32.5912 0.343023 -0.69511)
(34.2163 0.453187 -0.837093)
(35.4207 0.604227 -0.430348)
(36.2518 0.130883 -0.0858852)
(36.9977 -0.196322 0.433755)
(37.5517 -0.149681 0.969361)
(36.8166 -0.0282625 1.67338)
(35.469 0.11359 2.27744)
(33.2323 0.0234801 2.71274)
(31.1546 -0.0145751 3.03565)
(30.2264 0.0298351 3.13117)
(28.6922 0.594781 2.09073)
(25.0668 1.23459 2.29746)
(25.1606 0.376929 2.70043)
(23.1741 -0.263699 2.04138)
(20.13 -0.688864 1.2343)
(9.638 0.744215 -0.765396)
(26.8085 -0.879458 -2.19538)
(29.1349 -1.34353 -8.96084)
(49.6538 -1.27246 -16.0054)
(40.0145 0.00157613 0.020185)
(40.0396 0.00242931 0.0613445)
(40.0998 0.00606066 0.104808)
(40.1652 0.0075219 0.148619)
(40.2134 0.00689564 0.192427)
(40.2457 0.00523437 0.235754)
(40.2687 0.00317458 0.277939)
(40.2857 0.00121476 0.318299)
(40.2975 -0.000318267 0.356459)
(40.3024 -0.00119599 0.39241)
(40.2971 -0.00158405 0.426916)
(40.2762 -0.00154455 0.459901)
(40.2364 -0.000979577 0.496709)
(40.1659 -0.000991798 0.52049)
(40.0726 0.0017444 0.573162)
(39.8344 0.00224772 0.515999)
(39.5502 0.00534728 0.443018)
(38.8805 0.00485889 0.519202)
(37.715 0.0064946 0.871756)
(36.8405 0.00564382 1.01382)
(36.1561 0.00793619 1.03816)
(35.5304 0.00666692 1.00838)
(34.9333 0.00496901 0.982039)
(34.3356 0.00914237 1.09352)
(33.762 0.012609 1.265)
(33.1797 0.00751461 1.34389)
(32.555 -0.000858289 1.3014)
(31.855 -0.00704059 1.1953)
(31.1396 -0.0365909 0.995898)
(30.7489 -0.0818637 0.502223)
(31.1387 -0.0897662 -0.431424)
(32.3899 -0.00623408 -1.67991)
(33.9375 0.0899479 -2.55682)
(35.3777 0.138859 -2.79354)
(36.8618 0.0823766 -2.44132)
(37.9377 -0.0686031 -2.02379)
(38.4164 -0.355712 -1.24277)
(38.3841 -0.480073 -0.939687)
(38.3323 -0.358266 -0.802562)
(38.3448 -0.266101 -0.2816)
(38.5817 -0.270599 1.10616)
(39.4956 -0.351106 2.55122)
(40.1408 -0.40127 3.22913)
(40.8634 -0.489287 3.47349)
(41.5857 -0.548954 3.89725)
(42.2645 -0.554277 3.57279)
(42.7159 -0.644835 4.6125)
(44.3948 -0.754305 5.26508)
(44.6167 -1.70468 5.56747)
(43.8444 -1.41151 4.3174)
(34.7158 -1.77161 10.9572)
(23.7788 -0.944765 -1.88684)
(-30.6837 -0.596706 -25.1569)
(26.6106 -3.06187 -6.71648)
(40.017 0.00157587 0.0201294)
(40.0421 0.00242995 0.0612716)
(40.0998 0.00606186 0.104472)
(40.1602 0.00752335 0.147914)
(40.2045 0.00689688 0.191261)
(40.2343 0.00523491 0.234045)
(40.2559 0.00317551 0.275707)
(40.2721 0.00121071 0.31569)
(40.2839 -0.00031294 0.353874)
(40.2887 -0.00121621 0.390282)
(40.2848 -0.00156824 0.426267)
(40.2651 -0.00154589 0.461808)
(40.2275 -0.00107305 0.499364)
(40.1647 -0.000740404 0.534295)
(40.0716 0.000573957 0.566067)
(39.8858 0.00599789 0.562958)
(39.6113 0.00659783 0.481606)
(38.8977 0.00576516 0.533152)
(37.7307 0.00626548 0.857052)
(36.8241 0.00543956 1.00645)
(36.1522 0.00783804 1.01116)
(35.522 0.00679354 1.00109)
(34.9243 0.00524198 0.98281)
(34.3229 0.00988888 1.03993)
(33.7283 0.0144886 1.15815)
(33.1382 0.0125828 1.23904)
(32.4961 0.00862657 1.27515)
(31.7279 0.000936244 1.208)
(30.9377 -0.0145122 0.939879)
(30.2781 -0.0434168 0.515734)
(30.1835 -0.0693448 -0.116388)
(31.1696 -0.0113053 -1.1758)
(32.9631 0.068731 -1.98277)
(34.4956 0.113677 -2.43709)
(35.9974 0.049023 -2.31158)
(37.1742 -0.0312013 -1.98514)
(37.9644 -0.368556 -1.40458)
(38.4161 -0.543214 -0.919274)
(38.7191 -0.404117 -0.534896)
(39.6604 -0.444058 -0.351099)
(40.0302 -0.431357 0.707404)
(40.6944 -0.398104 2.12268)
(40.929 -0.387767 2.89613)
(41.0485 -0.399945 3.39884)
(41.2114 -0.428127 3.99547)
(41.4167 -0.41396 3.39503)
(41.3131 -0.460833 3.78848)
(42.1421 -0.737043 4.77581)
(42.3706 -0.99177 4.75001)
(38.7363 -1.2106 4.99906)
(33.387 -1.58727 12.4448)
(21.7454 1.13579 0.190614)
(-42.2263 -1.99559 -23.6653)
(-32.5735 -6.18235 -39.9556)
(40.0041 0.0015521 0.0260581)
(39.9905 0.00237988 0.0797342)
(39.9901 0.00593117 0.125481)
(39.9774 0.00729034 0.167892)
(39.9313 0.00658052 0.2108)
(39.8546 0.00487881 0.254383)
(39.7561 0.00285388 0.298933)
(39.6424 0.0010362 0.345027)
(39.5182 -0.000184714 0.393365)
(39.3854 -0.000572748 0.444829)
(39.2431 -0.000214092 0.500542)
(39.0883 0.000825424 0.561797)
(38.9148 0.00247512 0.630964)
(38.7246 0.0043648 0.705409)
(38.4873 0.00601318 0.799231)
(38.2762 0.00870208 0.897032)
(37.8378 0.00163287 0.952242)
(37.557 0.000603035 1.35091)
(37.0625 0.00283737 1.62611)
(36.6832 0.00447329 1.67168)
(36.3073 0.00588803 1.60837)
(35.8777 0.00673385 1.54964)
(35.408 0.00895561 1.57756)
(34.881 0.0142904 1.70801)
(34.3002 0.0173605 1.88668)
(33.6525 0.0193836 2.00828)
(32.8765 0.0161572 2.06193)
(31.8987 -0.00475658 2.03659)
(30.8485 -0.0639688 1.59913)
(30.2519 -0.0865135 0.521356)
(30.3274 -0.0356841 -1.26376)
(31.1796 0.035439 -3.07321)
(32.0493 0.136717 -4.04053)
(32.5567 0.268132 -4.38129)
(32.9792 0.299152 -4.58305)
(33.4539 -0.0545044 -3.62896)
(33.3676 -0.539693 -1.8533)
(32.8272 -0.848989 -0.864392)
(32.4731 -1.05322 -0.368335)
(32.5319 -0.895629 0.45443)
(32.04 -0.365012 2.32227)
(31.9814 -0.250243 4.0384)
(32.5472 -0.327416 4.32334)
(33.3744 -0.377683 4.68551)
(34.819 -0.506002 4.78252)
(36.3308 -0.54843 4.90972)
(37.8297 -0.679064 4.97448)
(40.0729 -0.76093 4.98883)
(41.2271 -1.13732 4.14539)
(44.8138 -2.04571 5.76731)
(50.2791 -1.75045 13.9659)
(63.1865 -1.67821 21.2225)
(56.4298 -1.09914 15.7586)
(54.5845 -3.00146 -3.81105)
(40.0066 0.00155184 0.0259992)
(39.993 0.00238053 0.079733)
(39.9903 0.00593231 0.125317)
(39.9728 0.00729169 0.167608)
(39.9235 0.00658161 0.210471)
(39.8453 0.00487943 0.254066)
(39.7466 0.00285386 0.2987)
(39.6336 0.00103596 0.344976)
(39.5106 -0.00018631 0.393685)
(39.3791 -0.000575798 0.445714)
(39.2379 -0.000217294 0.50234)
(39.0841 0.00082464 0.564934)
(38.9117 0.00244378 0.634974)
(38.7208 0.00442822 0.712452)
(38.4902 0.00585198 0.803653)
(38.243 0.00917396 0.903994)
(37.8464 0.00168119 0.969138)
(37.5625 -0.000421912 1.32981)
(37.0506 0.00272168 1.62995)
(36.6732 0.00447737 1.67567)
(36.2982 0.00600703 1.60821)
(35.8675 0.00699956 1.54641)
(35.3983 0.00966796 1.5696)
(34.8686 0.0167635 1.71171)
(34.2647 0.0208159 1.89048)
(33.5977 0.0251028 2.02586)
(32.7772 0.0251237 2.1503)
(31.7361 0.00841943 2.17121)
(30.5482 -0.030708 1.85036)
(29.4918 -0.0673304 0.938131)
(29.4036 -0.0330003 -0.933792)
(30.443 0.0474996 -2.90781)
(31.5116 0.144087 -3.94492)
(32.6064 0.241929 -4.22312)
(33.5722 0.251438 -4.07898)
(34.3163 0.19169 -3.18294)
(34.1556 -0.252591 -2.32758)
(33.744 -0.682393 -1.88662)
(33.4777 -0.888891 -1.77566)
(34.779 -1.1218 -2.53021)
(33.9773 -0.625848 -0.508444)
(34.4666 -0.585686 1.64088)
(34.484 -0.58897 2.27339)
(34.9623 -0.444556 2.61604)
(35.6351 -0.464789 3.3621)
(36.5954 -0.400767 3.77598)
(37.8507 -0.540809 4.17733)
(39.7474 -0.642086 4.83535)
(41.0264 -0.878773 4.34057)
(44.1799 -2.12643 6.435)
(47.5876 -1.6134 12.297)
(61.4459 -0.896857 18.188)
(60.2532 -1.03072 22.1943)
(55.3833 -2.65833 0.133439)
(40.0037 0.00152044 0.0329715)
(39.9898 0.00243229 0.104823)
(39.9906 0.00589478 0.171468)
(39.9802 0.0072126 0.238155)
(39.9364 0.0065005 0.30825)
(39.8603 0.00479547 0.380666)
(39.7599 0.00276038 0.455195)
(39.641 0.000931988 0.532127)
(39.5075 -0.000264452 0.611671)
(39.361 -0.00058702 0.69417)
(39.2005 -3.14627e-05 0.780171)
(39.0227 0.00133679 0.870668)
(38.823 0.00325604 0.96679)
(38.5982 0.00571293 1.07081)
(38.3371 0.00730804 1.18874)
(38.0481 0.00925046 1.31711)
(37.6614 0.00101035 1.4686)
(37.3303 0.00417654 1.69335)
(36.894 0.00214154 1.87555)
(36.6114 0.00323949 1.92224)
(36.321 0.00512797 1.92208)
(35.9431 0.00588222 1.95734)
(35.4644 0.00844698 2.08411)
(34.8728 0.0128987 2.30192)
(34.2015 0.0103054 2.59204)
(33.4235 0.0089613 2.87752)
(32.3904 0.00245897 3.21839)
(31.0677 -0.0206672 3.47676)
(29.6483 -0.0525776 3.01982)
(28.6643 -0.0454653 1.16217)
(28.4387 0.0102639 -1.61026)
(28.4972 0.0601253 -3.67075)
(28.3176 0.132459 -4.60614)
(27.979 0.233429 -5.1578)
(28.1494 0.20345 -5.19787)
(28.4485 -0.227504 -3.07833)
(28.0809 -0.927824 -0.700989)
(27.4282 -1.2767 -0.124861)
(27.1726 -1.54216 1.11785)
(27.2796 -0.834337 2.04796)
(26.8582 -0.107141 3.2012)
(26.6668 0.0238782 5.04574)
(27.2591 -0.0107063 4.49125)
(27.8516 -0.0392158 4.79406)
(28.6771 -0.0128545 4.98489)
(30.0002 0.0112796 4.70314)
(30.605 -0.323256 3.71864)
(31.9053 0.0166624 3.12169)
(33.8071 -0.197662 2.24879)
(35.42 -0.907408 0.899063)
(41.9235 -1.45026 2.18094)
(53.8756 -2.01724 5.9891)
(64.4073 -3.7385 3.70787)
(69.7746 -4.82356 -5.15216)
(40.0061 0.00152019 0.0329203)
(39.9923 0.00243294 0.10488)
(39.9907 0.00589593 0.171449)
(39.9756 0.007214 0.238093)
(39.9287 0.00650169 0.308207)
(39.8511 0.00479619 0.380678)
(39.7505 0.00276057 0.455288)
(39.6324 0.000931614 0.532329)
(39.5003 -0.000265616 0.612041)
(39.3556 -0.00058881 0.694757)
(39.1966 -3.47769e-05 0.781118)
(39.02 0.00133437 0.872067)
(38.8213 0.00325336 0.96865)
(38.5959 0.00571493 1.0731)
(38.3352 0.00728739 1.19067)
(38.0333 0.00937217 1.32213)
(37.6416 0.000708132 1.46764)
(37.3164 0.00404664 1.73142)
(36.8834 0.00192074 1.89887)
(36.6024 0.00303767 1.93398)
(36.3073 0.00503623 1.93257)
(35.9205 0.00589178 1.96885)
(35.4204 0.00838838 2.10341)
(34.8145 0.0131897 2.36574)
(34.1527 0.0110843 2.64602)
(33.3623 0.0113681 2.95914)
(32.2658 0.00640326 3.4251)
(30.8727 -0.01721 3.73157)
(29.4103 -0.0453192 3.29669)
(28.3557 -0.033908 1.43995)
(28.2928 0.0154734 -1.43806)
(28.4752 0.0601549 -3.45548)
(28.431 0.125201 -4.13398)
(28.2315 0.229456 -4.25186)
(28.5273 0.260097 -4.59441)
(29.4754 0.0351586 -3.58339)
(29.2828 -0.581687 -2.73163)
(28.4272 -1.24404 -2.62666)
(27.9579 -1.46683 -2.52789)
(27.9107 -1.18725 -3.35418)
(27.2472 -0.331549 1.39639)
(26.8725 -0.0338216 3.57743)
(27.0663 -0.0129164 2.47161)
(27.6723 -0.0930114 2.29403)
(27.817 -0.128261 3.85288)
(28.7864 -0.0429954 3.81807)
(29.9191 -0.219575 4.05452)
(31.3389 -0.00515961 3.92437)
(33.5895 -0.333734 3.38548)
(34.7445 -0.815603 1.63286)
(38.8645 -1.13822 0.945032)
(44.9641 -1.15076 3.55723)
(54.2648 -5.31614 -3.83598)
(46.9024 -2.52899 -28.0384)
(40.0037 0.00150215 0.0407793)
(39.9905 0.00245094 0.131299)
(39.992 0.00592886 0.215003)
(39.9821 0.00724046 0.297353)
(39.9392 0.00653706 0.382521)
(39.8646 0.00486458 0.469535)
(39.7665 0.00288627 0.558878)
(39.651 0.00113777 0.651763)
(39.5224 4.3819e-05 0.749178)
(39.3824 -0.00016428 0.852102)
(39.2302 0.000526363 0.961438)
(39.0624 0.00199356 1.07799)
(38.8744 0.00405173 1.20212)
(38.6618 0.00659265 1.3338)
(38.4177 0.00897424 1.47274)
(38.1397 0.00971845 1.62924)
(37.8033 0.0103653 1.77565)
(37.4248 0.0046476 2.04843)
(37.0473 0.0125174 2.15562)
(36.6767 0.00403478 2.23491)
(36.3527 0.00157678 2.26335)
(35.9228 0.000343982 2.39017)
(35.3579 0.00448394 2.69166)
(34.64 0.00849335 3.04177)
(33.8386 0.00223442 3.44755)
(32.9234 -2.43832e-05 3.92916)
(31.7066 0.00253299 4.57817)
(30.3055 -0.00276198 4.99745)
(28.896 -0.00406912 4.24102)
(27.734 0.0103999 1.77459)
(26.8113 0.033677 -1.15702)
(25.7916 0.0747656 -3.08289)
(24.5617 0.150651 -4.10593)
(23.4805 0.2872 -5.13589)
(23.3488 0.420498 -5.54532)
(21.8345 -0.127267 -2.56725)
(21.6205 -1.0584 3.31579)
(19.1416 -1.1404 3.98641)
(20.4109 -1.4792 3.24056)
(22.3894 -0.760244 2.34124)
(22.5452 -0.0795478 2.88343)
(23.1429 -0.0471061 5.11804)
(24.502 -0.0178803 4.64431)
(25.1476 -0.00277911 4.41043)
(24.6641 0.0140571 4.99909)
(24.231 0.194513 5.02953)
(24.4177 0.856555 3.81407)
(26.856 1.23479 2.95249)
(26.9426 0.344165 2.46826)
(29.9202 0.114357 2.73441)
(28.7573 1.02514 1.44239)
(30.8707 0.37891 0.851881)
(53.903 -6.18207 3.0679)
(51.2789 -13.7408 -1.49646)
(40.0061 0.0015019 0.040708)
(39.993 0.00245158 0.131374)
(39.9921 0.00593003 0.214957)
(39.9776 0.00724191 0.297264)
(39.9315 0.00653835 0.38252)
(39.8555 0.00486545 0.469709)
(39.7573 0.00288662 0.559292)
(39.6427 0.00113754 0.652462)
(39.5155 4.28183e-05 0.750182)
(39.3772 -0.000165976 0.853389)
(39.2266 0.000523616 0.962952)
(39.0601 0.00199079 1.07956)
(38.8729 0.00405188 1.20363)
(38.6609 0.00659253 1.33491)
(38.4139 0.00898042 1.4752)
(38.1374 0.00983462 1.62969)
(37.7866 0.010152 1.79413)
(37.4836 0.00804022 2.01962)
(37.0746 0.0137435 2.16819)
(36.6733 0.00466299 2.27223)
(36.3289 0.00292329 2.3175)
(35.8777 0.00263118 2.45982)
(35.2535 0.00315062 2.7589)
(34.5324 0.00750151 3.11471)
(33.7746 0.00206853 3.47567)
(32.8057 -0.000546636 4.03369)
(31.6091 0.00181249 4.76522)
(30.3085 -0.00150606 5.09744)
(28.9976 -0.00287681 4.2754)
(27.8991 0.00943733 1.88201)
(27.0318 0.0309955 -1.01201)
(26.1016 0.0703439 -2.89653)
(25.1348 0.13633 -3.67923)
(24.4757 0.293867 -4.32378)
(24.7134 0.684145 -5.09708)
(25.6142 -0.00541179 -3.80161)
(25.7107 0.289247 -3.28673)
(24.3854 0.710013 -3.03889)
(22.8873 0.950804 -3.58305)
(22.629 0.770237 -2.82545)
(22.0884 0.250303 1.36546)
(21.8598 0.00844267 4.01704)
(23.4772 0.0469542 2.52922)
(23.6594 -0.143477 3.17164)
(23.4776 -0.127215 3.90889)
(23.4585 0.211411 3.93741)
(24.013 0.762236 3.70806)
(25.5538 0.889913 3.39296)
(27.7534 0.656578 3.50048)
(30.9736 0.436873 1.23939)
(27.1108 -0.748382 -0.12209)
(29.2357 -1.17044 2.65737)
(17.6493 -11.6881 10.9862)
(-27.5208 4.37274 -29.0636)
(40.0037 0.0014509 0.048452)
(39.9913 0.00252441 0.15721)
(39.9936 0.00586668 0.257264)
(39.9849 0.00713637 0.355979)
(39.9442 0.00649728 0.459082)
(39.8732 0.00494171 0.565647)
(39.7799 0.00311256 0.676384)
(39.6702 0.00153162 0.792729)
(39.5484 0.000604134 0.915605)
(39.4162 0.000532491 1.04569)
(39.2726 0.001291 1.18332)
(39.1138 0.00272775 1.32849)
(38.9346 0.00455869 1.48047)
(38.7306 0.00681257 1.63885)
(38.4962 0.00886868 1.80073)
(38.2347 0.011003 1.97805)
(37.9518 0.0118569 2.15584)
(37.6368 0.00884435 2.43207)
(37.36 0.0143947 2.53387)
(36.9353 0.00599318 2.64698)
(36.5182 0.0012745 2.73973)
(35.9533 -0.0138719 2.93722)
(35.3907 -0.0074874 3.32179)
(34.6281 0.000358264 3.85203)
(33.7319 -0.00953185 4.41125)
(32.7306 -0.00706768 5.07661)
(31.481 0.0141966 5.90291)
(30.1542 0.0334841 6.38413)
(28.7702 0.0444308 5.57173)
(27.2065 0.0522951 3.17046)
(25.4351 0.0662353 0.359174)
(23.4287 0.12947 -1.52293)
(21.0533 0.284507 -2.58825)
(18.8983 0.705653 -3.79567)
(16.7859 1.29219 -3.30084)
(-8.13221 -0.0075419 0.897273)
(5.24609 -2.01073 6.65027)
(-1.5137 -1.93979 -2.97568)
(1.24796 -2.43746 -6.38869)
(12.4291 -1.29961 -4.24207)
(16.5003 -0.267996 0.0779056)
(18.0438 -0.156164 3.43933)
(19.8102 -0.798032 5.09115)
(19.7744 -0.614632 5.68323)
(20.0032 -0.261784 5.63471)
(19.5931 -0.261681 5.39335)
(20.1704 0.459128 4.77597)
(23.0279 0.740567 3.99751)
(25.2651 0.494012 3.73788)
(26.4947 0.610103 3.17402)
(27.3294 3.148 -0.815748)
(23.5313 3.83511 -5.79503)
(32.925 0.951491 2.28058)
(22.0265 -2.18636 -3.64353)
(40.0059 0.00145066 0.0483685)
(39.9937 0.00252503 0.157264)
(39.9936 0.00586781 0.257197)
(39.9804 0.00713803 0.3559)
(39.9369 0.00649789 0.459146)
(39.8646 0.00494066 0.565958)
(39.7711 0.00311112 0.677017)
(39.6623 0.00152961 0.79372)
(39.5419 0.000601441 0.916944)
(39.4113 0.000528957 1.04731)
(39.2691 0.00128732 1.18508)
(39.1113 0.00272207 1.33014)
(38.9328 0.00456564 1.48188)
(38.7289 0.00679291 1.63946)
(38.494 0.0089301 1.80243)
(38.2334 0.0109686 1.9776)
(37.9436 0.0120867 2.16489)
(37.6423 0.00813643 2.41251)
(37.3657 0.0162212 2.63027)
(36.9878 0.00028128 2.7288)
(36.4945 0.00425306 2.85105)
(35.9724 -0.00878327 3.02349)
(35.3563 -0.00769509 3.39314)
(34.5281 -0.000585268 3.92031)
(33.6075 -0.0105668 4.43734)
(32.5866 -0.00615043 5.14944)
(31.4626 0.0138488 5.97004)
(30.3138 0.0299303 6.3794)
(29.0235 0.0399045 5.59389)
(27.5095 0.0481281 3.29363)
(25.8237 0.0624862 0.485898)
(24.0416 0.121717 -1.34121)
(22.3238 0.268878 -2.19988)
(21.1312 0.889018 -3.05792)
(21.8886 3.55237 -4.24927)
(22.2866 3.27711 -4.02358)
(21.7795 3.30304 -2.01919)
(14.6648 2.33433 -0.372807)
(9.88472 1.45301 -3.40523)
(9.88462 1.64196 -4.42885)
(14.0109 0.681548 -0.363514)
(17.0778 0.130816 1.33805)
(18.2974 -0.810454 2.89119)
(18.3822 -0.697112 4.48813)
(17.8935 -0.457113 5.39239)
(17.5758 -0.549276 5.2347)
(18.6796 0.435162 3.94733)
(21.7425 0.993093 2.64651)
(24.5939 0.575008 2.33446)
(25.4935 0.1212 2.03665)
(24.8663 0.432749 2.17107)
(30.9163 2.93499 3.18397)
(50.4892 1.424 13.0355)
(42.229 -0.347267 15.9092)
(40.0036 0.00142064 0.0558895)
(39.9923 0.00252276 0.182562)
(39.9961 0.00588158 0.298923)
(39.9896 0.00717278 0.414079)
(39.9523 0.00659422 0.534938)
(39.886 0.00514123 0.660254)
(39.7983 0.00344638 0.790731)
(39.6953 0.00201515 0.927908)
(39.5808 0.00122891 1.07265)
(39.4565 0.00126376 1.22547)
(39.3208 0.0020666 1.3864)
(39.1697 0.00345165 1.55519)
(38.9978 0.00514634 1.73113)
(38.8007 0.00718647 1.91412)
(38.5761 0.00932382 2.10377)
(38.3288 0.0121023 2.30524)
(38.0654 0.0141946 2.5195)
(37.7954 0.0179055 2.75401)
(37.5137 0.0162963 2.99837)
(37.1701 0.0191475 3.18361)
(36.769 0.0261812 3.38054)
(36.0918 -0.0166141 3.74504)
(35.7403 -0.0335559 3.98413)
(35.0046 -0.00736814 4.5995)
(34.0423 -0.0243818 5.41863)
(33.0271 -0.0268312 6.27569)
(31.9011 0.0197042 7.19997)
(30.6923 0.0743437 7.74792)
(29.2649 0.0780239 7.09616)
(27.2566 0.0776855 5.02434)
(24.7849 0.104985 2.61319)
(22.1105 0.184232 0.988458)
(18.8884 0.423965 0.408451)
(16.5359 1.15758 0.798713)
(-6.28557 0.46969 2.45157)
(-7.43926 -0.0166944 0.820602)
(-7.1903 -0.431332 -0.827037)
(0.749885 -2.23131 -6.50497)
(1.17536 -1.6893 -12.1388)
(2.62831 -0.523905 -14.1823)
(9.25278 -0.641375 -5.21191)
(13.1454 -1.15821 -1.16787)
(13.9493 -0.716269 1.06131)
(15.3078 0.147654 2.39599)
(15.7625 -0.064347 4.47399)
(15.3303 -0.655388 5.95487)
(17.0825 -0.399871 6.24781)
(18.5753 -0.0939584 5.26766)
(22.7585 -0.206955 5.2401)
(25.6327 1.46916 4.8296)
(19.2569 4.73928 -3.39814)
(-7.32725 2.85971 -5.96251)
(-29.206 -2.00122 4.91206)
(12.1347 1.04535 -1.23809)
(40.0058 0.00142041 0.0557971)
(39.9947 0.00252336 0.182649)
(39.9962 0.00588272 0.298877)
(39.9853 0.00717449 0.414021)
(39.9452 0.00659497 0.535042)
(39.8776 0.00514041 0.66063)
(39.7899 0.00344524 0.791441)
(39.6878 0.00201348 0.928967)
(39.5747 0.00122656 1.07402)
(39.4519 0.00126085 1.22705)
(39.3174 0.00206333 1.38807)
(39.1672 0.00344904 1.55676)
(38.9958 0.00514814 1.73257)
(38.7989 0.00718373 1.91528)
(38.5751 0.00934788 2.1055)
(38.3277 0.0120974 2.30777)
(38.065 0.0142725 2.5259)
(37.7903 0.0178254 2.76504)
(37.5114 0.0165423 3.01932)
(37.1959 0.021694 3.24495)
(36.7349 0.0266417 3.46593)
(36.1725 -0.000945674 3.77199)
(35.3628 -0.0324751 4.21652)
(34.9171 -0.0102228 4.71481)
(33.9029 -0.0247733 5.37856)
(32.8472 -0.0254108 6.24378)
(31.7942 0.0233651 7.12476)
(30.8368 0.0665198 7.687)
(29.5417 0.0713817 7.22173)
(27.6616 0.0719075 5.24476)
(25.341 0.101676 2.67342)
(22.9771 0.178162 0.969782)
(20.7929 0.461412 0.287253)
(19.4139 1.98588 0.380116)
(21.7607 5.61296 1.71019)
(-6.63072 -0.0777463 0.878632)
(4.61233 -0.854545 1.79676)
(-0.744385 0.0904071 -2.65061)
(1.9396 -0.224656 -8.69611)
(-3.48622 0.450082 -11.3229)
(1.6659 0.735317 -6.52991)
(3.15792 1.3627 -6.004)
(4.42015 1.27321 -2.7832)
(7.5969 0.958037 1.82443)
(9.39891 0.143582 5.76497)
(10.2472 -0.758844 6.17282)
(13.0471 -0.348728 3.79236)
(17.7253 0.25591 1.50817)
(21.2086 0.197878 1.60731)
(24.9846 0.96146 3.05679)
(30.0443 4.52361 1.92114)
(28.9062 10.0336 -0.448968)
(47.548 8.44654 3.42904)
(43.8996 5.57932 -0.160853)
(40.0035 0.00136083 0.0630445)
(39.9937 0.00263182 0.207066)
(39.9997 0.00584198 0.339128)
(39.996 0.00709046 0.469989)
(39.963 0.00659405 0.607755)
(39.9023 0.00527867 0.750941)
(39.8216 0.0037436 0.900303)
(39.7264 0.00246892 1.05755)
(39.6206 0.00180912 1.22357)
(39.5052 0.00191283 1.39882)
(39.3785 0.00272624 1.58336)
(39.2362 0.00405772 1.777)
(39.0731 0.00572922 1.97954)
(38.8854 0.00775622 2.19138)
(38.6727 0.0102682 2.41321)
(38.4394 0.013782 2.64721)
(38.1925 0.0179129 2.89483)
(37.9372 0.0234558 3.15673)
(37.6632 0.0268093 3.42871)
(37.366 0.0323423 3.7162)
(37.0015 0.0334471 4.02914)
(36.5692 0.0317656 4.42089)
(35.9194 0.0101779 4.86457)
(35.5178 -0.00602398 5.41687)
(34.7108 -0.0440163 6.34447)
(33.7734 -0.0468075 7.34901)
(32.8697 0.00515024 8.23558)
(31.9519 0.0978027 8.98248)
(30.6828 0.163154 9.06554)
(28.3358 0.146149 7.55667)
(25.5566 0.107223 5.088)
(22.8074 0.123452 3.40889)
(20.1561 0.2568 3.43055)
(18.4952 0.966502 6.18326)
(14.1136 1.49929 12.9093)
(-5.44483 -0.0926303 0.826091)
(6.47082 -2.88941 -0.658168)
(6.76545 -2.94218 -2.65661)
(5.55429 -2.76146 -10.6835)
(5.49092 -0.837218 -14.4647)
(10.5052 1.29401 -13.0216)
(13.8281 0.339807 -4.52571)
(13.0009 -0.188418 0.44884)
(11.987 -0.859261 2.87051)
(10.5595 -1.00898 5.79981)
(12.203 -0.589569 7.85161)
(13.5951 -0.994691 6.86333)
(13.1695 -0.836681 3.96264)
(17.7022 -0.326701 2.56981)
(22.5352 0.492446 3.81395)
(26.6571 1.28841 7.38353)
(26.6398 3.00857 9.50064)
(14.8087 3.14499 -7.73263)
(14.3247 2.53602 -5.48471)
(40.0056 0.00136063 0.0629518)
(39.996 0.00263238 0.207153)
(39.9997 0.00584314 0.339093)
(39.9919 0.00709209 0.469958)
(39.9562 0.00659584 0.607901)
(39.8944 0.00528029 0.751369)
(39.8136 0.00374525 0.901067)
(39.7193 0.00246856 1.05865)
(39.6147 0.00180615 1.22496)
(39.5008 0.00190946 1.40041)
(39.3752 0.00272295 1.58504)
(39.2336 0.00405435 1.77868)
(39.0712 0.00572603 1.98123)
(38.8842 0.00775618 2.19312)
(38.6728 0.010268 2.41549)
(38.4412 0.0137979 2.65069)
(38.1961 0.0179365 2.90073)
(37.9397 0.0235117 3.16528)
(37.6656 0.026809 3.4432)
(37.3687 0.0329968 3.73011)
(36.9882 0.033724 4.05481)
(36.5635 0.0326923 4.44072)
(35.8846 0.0163981 5.01658)
(35.5794 0.00583788 5.45077)
(34.6094 -0.0341458 6.22065)
(33.5404 -0.0484875 7.25336)
(32.5575 -0.00311825 8.13393)
(31.694 0.0930429 8.97217)
(30.7133 0.140737 9.01664)
(29.0059 0.11807 7.71078)
(26.3302 0.0998002 5.33386)
(23.5583 0.124654 3.39526)
(21.3621 0.27874 2.91378)
(19.145 1.70809 4.48067)
(22.6319 4.5748 9.9832)
(18.1182 1.60232 9.09464)
(14.8671 2.10658 7.58523)
(10.723 1.12183 2.74884)
(8.94861 -0.639855 -5.61632)
(-2.23015 0.222565 -8.80648)
(-0.0659208 2.46461 -6.22812)
(7.21889 3.36504 -6.33674)
(9.07601 3.33558 0.403517)
(5.17379 0.713097 7.79753)
(7.45495 0.695623 10.3698)
(11.8803 0.734817 8.597)
(14.216 0.871188 4.99656)
(17.0924 0.896875 1.48315)
(21.6061 1.75342 -0.14423)
(27.0049 2.19236 2.12692)
(30.092 2.77661 5.79621)
(36.8129 6.58331 7.10263)
(46.6385 7.4637 4.15957)
(45.1256 6.59247 2.63854)
(40.0034 0.00133029 0.0698256)
(39.9952 0.00263176 0.230206)
(40.0039 0.00586835 0.377188)
(40.0038 0.00715194 0.523019)
(39.976 0.0067284 0.676957)
(39.9221 0.00552368 0.837325)
(39.8493 0.00412311 1.00494)
(39.7633 0.00298613 1.18168)
(39.6674 0.00244655 1.36851)
(39.5623 0.00263562 1.56596)
(39.4461 0.00349643 1.77424)
(39.3146 0.00484574 1.99344)
(39.1631 0.00654422 2.22382)
(38.9879 0.00862036 2.46602)
(38.7894 0.011374 2.72082)
(38.5718 0.015232 2.98933)
(38.3411 0.0201405 3.27067)
(38.1014 0.0262897 3.56609)
(37.8472 0.0319525 3.87304)
(37.5741 0.0383887 4.20487)
(37.2629 0.0444093 4.56674)
(36.8971 0.0435815 5.00439)
(36.5095 0.048943 5.54148)
(35.8809 0.0439441 6.25525)
(35.5657 -0.0544172 7.15392)
(34.6789 -0.0374265 8.17932)
(33.9249 0.031545 9.06936)
(33.5047 0.00653215 9.70416)
(32.9423 0.128543 10.3843)
(31.6013 0.323013 10.139)
(28.7366 0.263865 8.07976)
(24.4859 0.143919 5.85592)
(21.2055 0.148907 5.4188)
(18.8166 0.603201 7.13735)
(20.8654 1.36729 14.1092)
(16.3262 0.115965 8.93228)
(14.429 -1.71206 4.39092)
(12.5778 -2.85516 -0.453906)
(11.004 -3.24735 -5.32529)
(9.51701 -2.12034 -10.6641)
(-3.34443 -2.01557 1.23799)
(-5.56991 -1.21307 7.36065)
(-8.32729 -1.92117 11.1885)
(-12.0696 -4.41012 12.8484)
(-13.4587 -6.08139 11.9483)
(-6.16214 -3.21861 7.26004)
(4.22034 -0.00510671 2.01694)
(4.00431 -1.90457 2.73017)
(10.8688 -1.48838 1.17594)
(17.758 -0.164017 -0.392656)
(24.8952 -0.0108385 1.53021)
(33.5854 0.462469 6.43561)
(44.3628 0.397098 6.24584)
(35.4497 3.11119 -4.05311)
(40.0054 0.00133009 0.0697352)
(39.9976 0.00263229 0.230328)
(40.004 0.00586952 0.377203)
(39.9999 0.00715365 0.523047)
(39.9695 0.00673038 0.677177)
(39.9145 0.00552564 0.837843)
(39.8418 0.00412527 1.00581)
(39.7566 0.00298642 1.1829)
(39.6619 0.00244446 1.37003)
(39.5581 0.00263312 1.56771)
(39.443 0.0034948 1.77615)
(39.3123 0.00484117 1.99549)
(39.1614 0.00653836 2.22603)
(38.9872 0.00861929 2.46847)
(38.7903 0.0113708 2.72378)
(38.5748 0.0152362 2.99274)
(38.3463 0.0201603 3.27554)
(38.1072 0.0263273 3.57128)
(37.8529 0.0320487 3.88182)
(37.5795 0.0384414 4.21199)
(37.262 0.0441599 4.57688)
(36.9032 0.0459699 5.00882)
(36.473 0.0488929 5.56129)
(36.0355 0.0343559 6.20951)
(35.5013 0.0639684 7.04971)
(34.6344 -0.0233495 8.09623)
(34.043 -0.104482 8.82521)
(33.0248 -0.00484924 9.83966)
(32.1679 0.19334 10.4345)
(31.2414 0.267364 10.0679)
(29.3835 0.251956 8.5703)
(26.1979 0.195129 6.4078)
(22.4804 0.207571 5.16095)
(19.6477 0.442838 6.01591)
(21.3481 1.92058 9.82376)
(23.991 2.02502 10.7001)
(23.1008 1.57209 8.40512)
(19.9197 0.658347 4.32311)
(13.6513 -1.1558 -0.961772)
(-1.90163 -0.784601 -3.13925)
(-4.98515 0.447158 2.95109)
(-8.06728 1.19168 5.80894)
(-12.8252 0.134554 9.66967)
(-13.6901 -2.41515 10.614)
(-11.0651 -3.71155 8.73869)
(-5.022 -3.49245 6.26493)
(6.05094 0.493343 0.885728)
(19.6693 4.71012 -2.93066)
(23.8783 2.02332 -0.237982)
(25.3533 2.21763 0.0827222)
(28.392 1.65211 2.00225)
(34.2009 2.31726 4.92585)
(46.5589 2.87518 6.80377)
(45.4824 5.62064 2.07161)
(40.0033 0.00127317 0.076163)
(39.9971 0.00277679 0.251729)
(40.0091 0.00588004 0.412674)
(40.0134 0.00712966 0.57255)
(39.9916 0.0068028 0.741714)
(39.9456 0.00575183 0.918338)
(39.8822 0.00452374 1.10331)
(39.8068 0.00355273 1.2987)
(39.7222 0.00315059 1.50564)
(39.6292 0.00344768 1.72484)
(39.5255 0.00438535 1.95678)
(39.4071 0.0058246 2.20181)
(39.2694 0.00764288 2.46043)
(39.1092 0.00990081 2.73321)
(38.9266 0.0129567 3.0206)
(38.7246 0.0169267 3.32216)
(38.5097 0.022631 3.6358)
(38.2853 0.0285711 3.96056)
(38.0525 0.0355411 4.29261)
(37.812 0.0416611 4.64624)
(37.5606 0.044363 5.02677)
(37.2887 0.0422901 5.47787)
(37.0647 0.0189531 6.04992)
(36.7327 0.0480882 6.7252)
(36.4705 0.0585867 7.75784)
(35.7969 0.00905885 8.882)
(35.2263 -0.0158264 9.48911)
(34.481 -0.0297961 10.3978)
(33.8934 0.0189858 11.2121)
(33.2102 0.153851 11.8495)
(31.8837 0.246982 11.7845)
(29.0423 0.266879 10.8418)
(24.9256 0.257298 8.87386)
(21.2232 0.206394 7.49714)
(21.2885 0.648612 9.53467)
(21.6069 0.434366 9.31083)
(20.1023 -0.496185 6.01179)
(17.6843 -1.33725 1.94609)
(14.7011 -1.83676 -1.11764)
(12.8807 -2.70496 -3.28351)
(6.76714 -2.53447 -5.52886)
(0.00987214 -1.95836 1.04126)
(-0.79807 -0.548131 5.94121)
(-0.334942 0.590547 9.5754)
(1.8478 0.0968166 8.93221)
(5.86666 -0.355066 3.51503)
(9.04231 -1.40152 -1.40467)
(12.449 -1.94851 -4.31548)
(16.4451 -2.6427 -4.93843)
(21.1249 -2.56592 -5.27024)