/*--------------------------------*- C++ -*----------------------------------*\
| =========                 |                                                 |
| \\      /  F ield         | OpenFOAM: The Open Source CFD Toolbox           |
|  \\    /   O peration     | Version:  4.1                                   |
|   \\  /    A nd           | Web:      www.OpenFOAM.org                      |
|    \\/     M anipulation  |                                                 |
\*---------------------------------------------------------------------------*/
FoamFile
{
    version     2.0;
    format      ascii;
    class       volScalarField;
    location    "87";
    object      p;
}
// * * * * * * * * * * * * * * * * * * * * * * * * * * * * * * * * * * * * * //

dimensions      [0 2 -2 0 0 0 0];

internalField   nonuniform List<scalar> 
4432
(
100970
100970
100972
100973
100976
100979
100983
100988
100993
100999
101006
101013
101021
101029
101037
101045
101051
101055
101059
101069
101084
101101
101119
101139
101161
101185
101207
101225
101239
101250
101260
101270
101283
101301
101318
101327
101332
101339
101346
101351
101356
101358
101360
101362
101362
101362
101359
101357
101355
101349
101341
101335
101331
101326
100970
100970
100972
100973
100976
100979
100983
100988
100993
100999
101006
101013
101021
101029
101037
101045
101051
101055
101059
101068
101084
101102
101120
101140
101163
101187
101208
101225
101239
101252
101263
101273
101286
101301
101316
101326
101332
101339
101346
101352
101355
101358
101360
101361
101362
101362
101359
101355
101353
101349
101342
101336
101329
101326
100969
100969
100970
100971
100974
100977
100981
100985
100990
100996
101003
101011
101019
101028
101039
101051
101067
101085
101098
101107
101118
101133
101148
101163
101177
101192
101207
101223
101240
101255
101267
101278
101287
101295
101303
101310
101320
101332
101344
101353
101356
101355
101357
101361
101363
101362
101360
101358
101355
101352
101347
101337
101320
101326
100969
100969
100970
100971
100974
100977
100981
100985
100990
100996
101003
101011
101019
101028
101039
101051
101067
101085
101099
101108
101118
101132
101146
101160
101175
101190
101206
101222
101238
101252
101263
101272
101281
101295
101305
101313
101322
101333
101344
101353
101356
101356
101358
101362
101363
101362
101360
101358
101357
101355
101348
101335
101316
101327
100967
100967
100968
100970
100973
100976
100980
100984
100989
100995
101002
101010
101018
101027
101038
101050
101063
101075
101086
101099
101114
101130
101145
101159
101174
101190
101208
101226
101244
101260
101272
101282
101295
101307
101312
101315
101324
101338
101353
101363
101363
101359
101362
101367
101367
101365
101362
101358
101354
101350
101346
101339
101330
101328
100967
100967
100968
100970
100973
100976
100980
100984
100989
100995
101002
101010
101018
101027
101038
101050
101063
101075
101086
101099
101114
101129
101144
101157
101172
101189
101206
101224
101242
101259
101271
101279
101289
101303
101313
101318
101327
101339
101351
101361
101363
101360
101363
101367
101367
101365
101362
101359
101354
101351
101347
101338
101330
101331
100965
100965
100966
100968
100971
100974
100977
100982
100987
100993
100999
101006
101015
101024
101034
101045
101057
101068
101079
101094
101110
101126
101140
101154
101171
101191
101211
101231
101251
101270
101283
101297
101317
101327
101324
101313
101320
101337
101353
101366
101365
101361
101367
101372
101371
101368
101364
101359
101354
101349
101346
101343
101336
101326
100965
100965
100966
100968
100971
100974
100977
100982
100987
100993
100999
101006
101015
101024
101034
101045
101057
101068
101079
101093
101110
101125
101140
101154
101170
101191
101211
101230
101251
101270
101283
101296
101313
101324
101326
101322
101328
101340
101354
101363
101363
101362
101367
101371
101371
101368
101363
101359
101354
101351
101349
101344
101334
101325
100962
100963
100964
100965
100968
100971
100974
100979
100984
100989
100996
101003
101011
101020
101030
101040
101052
101063
101074
101085
101100
101116
101131
101147
101166
101190
101215
101239
101263
101283
101299
101318
101339
101350
101375
101294
101305
101334
101360
101381
101378
101368
101375
101378
101376
101372
101366
101362
101358
101353
101348
101343
101337
101332
100962
100963
100964
100965
100968
100971
100974
100979
100984
100989
100996
101003
101011
101020
101030
101040
101052
101063
101074
101085
101099
101115
101131
101147
101168
101192
101216
101239
101265
101286
101302
101317
101336
101344
101345
101327
101326
101342
101363
101379
101377
101371
101374
101377
101376
101372
101367
101362
101357
101353
101351
101345
101335
101330
100959
100959
100960
100962
100964
100967
100971
100975
100980
100985
100991
100998
101006
101015
101024
101034
101045
101055
101066
101077
101091
101106
101121
101137
101157
101182
101210
101237
101264
101288
101305
101325
101350
101438
101597
101364
101290
101309
101341
101353
101363
101390
101392
101387
101382
101377
101371
101366
101362
101356
101350
101342
101337
101335
100959
100959
100960
100962
100964
100967
100971
100975
100980
100985
100991
100998
101006
101015
101024
101034
101045
101055
101066
101077
101091
101106
101122
101138
101159
101184
101210
101236
101264
101289
101305
101319
101335
101368
101396
101339
101308
101329
101362
101387
101396
101385
101385
101384
101381
101377
101372
101367
101362
101355
101349
101343
101338
101334
100955
100955
100956
100958
100960
100963
100966
100970
100975
100980
100986
100993
101000
101008
101017
101027
101037
101047
101058
101069
101082
101096
101112
101125
101141
101165
101195
101220
101244
101267
101291
101320
101372
101585
101521
101478
101327
101335
101359
101369
101381
101400
101402
101394
101388
101383
101378
101373
101367
101361
101353
101343
101334
101332
100955
100955
100956
100958
100960
100963
100966
100970
100975
100980
100986
100993
101000
101008
101017
101027
101037
101047
101058
101069
101082
101097
101112
101127
101144
101168
101194
101217
101242
101267
101288
101309
101337
101394
101458
101395
101305
101320
101358
101377
101388
101395
101396
101392
101386
101381
101375
101371
101366
101359
101350
101342
101336
101330
100951
100951
100952
100953
100956
100958
100961
100965
100969
100974
100980
100986
100994
101001
101010
101019
101029
101039
101049
101060
101072
101085
101099
101111
101122
101139
101166
101189
101208
101224
101245
101276
101307
101373
101422
101414
101344
101349
101370
101384
101393
101400
101401
101396
101389
101383
101378
101373
101367
101361
101353
101341
101330
101329
100951
100951
100952
100953
100956
100958
100961
100965
100969
100974
100980
100986
100994
101001
101010
101019
101029
101039
101050
101060
101072
101085
101098
101112
101125
101143
101165
101185
101205
101226
101245
101271
101309
101352
101393
101368
101334
101346
101371
101387
101396
101400
101399
101394
101388
101381
101375
101371
101366
101359
101350
101340
101330
101329
100946
100946
100947
100948
100950
100953
100956
100959
100963
100968
100973
100979
100986
100994
101002
101011
101020
101030
101040
101051
101061
101072
101082
101093
101100
101108
101126
101147
101169
101191
101214
101241
101281
101322
101362
101355
101346
101359
101379
101391
101397
101401
101402
101398
101391
101384
101379
101375
101370
101364
101354
101341
101329
101328
100946
100946
100947
100948
100950
100953
100956
100959
100963
100968
100973
100979
100986
100994
101002
101011
101020
101030
101040
101051
101061
101072
101082
101091
101100
101110
101127
101147
101167
101189
101213
101243
101283
101323
101354
101360
101359
101369
101386
101398
101404
101404
101402
101398
101393
101386
101379
101374
101370
101364
101353
101341
101331
101330
100940
100941
100941
100943
100945
100947
100949
100953
100956
100961
100966
100972
100978
100985
100993
101002
101011
101021
101031
101041
101050
101058
101064
101070
101072
101074
101086
101110
101138
101166
101194
101228
101270
101311
101350
101368
101379
101391
101404
101413
101418
101418
101416
101411
101403
101394
101387
101381
101376
101369
101358
101344
101332
101328
100940
100941
100941
100943
100945
100947
100949
100953
100956
100961
100966
100972
100978
100985
100993
101002
101011
101021
101031
101041
101050
101058
101064
101068
101070
101074
101087
101111
101138
101165
101194
101229
101270
101313
101349
101371
101384
101398
101412
101422
101425
101423
101419
101414
101407
101398
101389
101383
101377
101369
101358
101345
101333
101331
100935
100935
100936
100937
100938
100940
100943
100945
100949
100953
100958
100963
100969
100976
100983
100992
101001
101011
101021
101031
101040
101046
101048
101044
101035
101030
101045
101077
101113
101148
101183
101222
101264
101309
101350
101382
101406
101426
101442
101451
101451
101446
101437
101427
101417
101407
101397
101387
101379
101372
101361
101347
101330
101323
100935
100935
100936
100937
100938
100940
100943
100945
100949
100953
100958
100963
100969
100976
100983
100992
101001
101011
101021
101031
101040
101046
101048
101043
101034
101030
101047
101078
101113
101147
101183
101223
101266
101311
101350
101382
101406
101427
101445
101454
101455
101449
101439
101429
101420
101409
101398
101389
101381
101373
101362
101348
101328
101327
100928
100929
100929
100930
100932
100933
100935
100938
100941
100944
100949
100953
100959
100965
100973
100981
100990
101001
101012
101023
101033
101039
101038
101021
100987
100967
100989
101036
101082
101122
101162
101207
101254
101304
101351
101392
101427
101456
101477
101486
101482
101470
101455
101441
101428
101416
101404
101392
101381
101372
101362
101349
101331
101326
100928
100929
100929
100930
100932
100933
100935
100938
100941
100944
100949
100953
100959
100965
100973
100981
100990
101001
101012
101023
101033
101039
101037
101020
100985
100967
100991
101037
101082
101122
101163
101207
101255
101304
101351
101392
101428
101457
101478
101487
101484
101472
101457
101443
101430
101418
101405
101393
101383
101374
101362
101348
101326
101332
100922
100922
100923
100923
100924
100926
100928
100930
100932
100935
100939
100943
100948
100954
100961
100969
100978
100989
101002
101017
101031
101041
101037
101004
100922
100884
100919
100986
101044
101089
101133
101182
101236
101293
101350
101403
101451
101489
101515
101522
101513
101495
101475
101457
101440
101423
101408
101393
101381
101371
101361
101349
101331
101328
100922
100922
100923
100923
100924
100926
100928
100930
100932
100935
100939
100943
100948
100954
100961
100969
100978
100989
101002
101017
101031
101041
101036
101000
100915
100882
100925
100991
101045
101089
101133
101182
101236
101293
101350
101404
101452
101491
101517
101523
101513
101495
101476
101459
101442
101424
101407
101393
101382
101372
101361
101348
101328
101327
100915
100915
100916
100916
100917
100918
100919
100921
100923
100926
100928
100932
100936
100941
100947
100955
100964
100976
100991
101010
101035
101063
101078
101018
100835
100736
100823
100935
101005
101047
101093
101148
101209
101275
101344
101412
101475
101525
101563
101569
101549
101519
101492
101470
101448
101426
101407
101392
101379
101368
101358
101348
101330
101330
100915
100915
100916
100916
100917
100918
100919
100921
100923
100926
100928
100932
100936
100941
100947
100955
100964
100976
100991
101010
101035
101063
101078
101014
100814
100740
100834
100936
101003
101048
101093
101148
101209
101275
101344
101409
101476
101526
101579
101581
101553
101518
101488
101466
101444
101424
101406
101391
101379
101369
101358
101347
101331
101327
100908
100908
100908
100909
100909
100910
100911
100912
100913
100915
100917
100920
100923
100927
100932
100939
100947
100959
100974
100997
101034
101099
101165
101159
100600
100486
100659
100886
100975
100999
101041
101102
101171
101245
101327
101411
101495
101553
101621
101631
101588
101533
101496
101471
101447
101423
101403
101387
101375
101364
101355
101346
101333
101329
100908
100908
100908
100909
100909
100910
100911
100912
100913
100915
100917
100920
100923
100927
100932
100939
100947
100959
100974
100997
101033
101098
101162
101146
100521
100562
100717
100893
100970
101002
101044
101103
101171
101245
101330
101416
101507
101538
101618
101632
101583
101526
101493
101470
101447
101423
101403
101387
101374
101364
101355
101346
101335
101326
100901
100901
100901
100901
100902
100902
100902
100903
100903
100904
100906
100907
100909
100912
100916
100921
100927
100936
100949
100968
100998
101046
101163
101447
100444
100639
100858
100938
100943
100972
101033
101105
101189
101288
101395
101511
101554
101632
101687
101629
101547
101498
101470
101443
101417
101395
101379
101366
101355
101347
101339
101332
101324
100901
100901
100901
100901
100902
100902
100902
100903
100903
100904
100906
100907
100909
100912
100916
100921
100927
100936
100949
100968
100998
101044
101160
101434
100406
100656
100866
100940
100948
100979
101037
101108
101191
101280
101404
101521
101518
101513
101659
101616
101545
101499
101468
101439
101414
101394
101378
101366
101355
101347
101340
101333
101324
100894
100894
100894
100894
100894
100893
100893
100893
100893
100893
100894
100894
100895
100896
100898
100900
100904
100909
100916
100924
100932
100930
100892
100819
100530
100538
100815
100959
100956
100922
100924
100959
101013
101092
101195
101306
101434
101475
101545
101729
101669
101577
101509
101461
101424
101396
101376
101361
101350
101341
101334
101330
101327
101320
100894
100894
100894
100894
100894
100893
100893
100893
100893
100893
100894
100894
100895
100896
100898
100900
100904
100909
100916
100924
100932
100929
100889
100808
100524
100596
100848
100960
100947
100919
100927
100963
101015
101083
101138
101301
101318
101562
101502
101538
101569
101546
101504
101459
101422
101395
101376
101361
101350
101341
101335
101330
101327
101320
100887
100887
100886
100886
100886
100885
100884
100884
100883
100882
100881
100880
100880
100879
100879
100878
100879
100879
100879
100877
100871
100853
100819
100754
100684
100693
100834
100909
100911
100900
100894
100897
100914
100969
101125
101287
101271
101492
101784
101611
101573
101543
101484
101427
101387
101363
101349
101338
101331
101326
101323
101322
101322
101317
100887
100887
100886
100886
100886
100885
100884
100884
100883
100882
100881
100880
100880
100879
100879
100878
100879
100879
100879
100877
100870
100852
100819
100753
100681
100703
100836
100901
100903
100893
100890
100897
100911
100944
100988
101202
101023
101447
101903
100976
101384
101519
101487
101434
101390
101364
101349
101338
101331
101326
101323
101322
101322
101317
100880
100879
100879
100878
100878
100877
100875
100874
100872
100871
100869
100866
100864
100861
100859
100856
100852
100848
100842
100834
100822
100803
100777
100738
100692
100684
100728
100777
100807
100824
100830
100824
100809
100799
100895
101155
102184
101467
100647
100935
101403
101505
101450
101387
101346
101328
101318
101312
101309
101309
101311
101314
101319
101317
100880
100879
100879
100878
100878
100877
100875
100874
100872
100871
100869
100866
100864
100861
100859
100856
100852
100848
100842
100834
100822
100803
100777
100738
100692
100686
100729
100775
100803
100818
100826
100822
100812
100733
100865
101171
101696
99825.7
100290
99749.6
100451
101340
101445
101396
101351
101328
101319
101313
101309
101309
101311
101315
101319
101317
100873
100873
100872
100871
100870
100869
100867
100865
100862
100859
100856
100853
100849
100844
100839
100833
100826
100818
100808
100795
100779
100757
100730
100696
100660
100642
100651
100677
100699
100716
100724
100721
100624
100665
100730
99838.3
99376.8
99107.2
99139.4
99632.7
100478
101259
101371
101308
101284
101279
101279
101280
101284
101290
101297
101304
101313
101314
100873
100873
100872
100871
100870
100868
100867
100865
100862
100859
100856
100853
100849
100844
100839
100833
100826
100818
100808
100795
100779
100757
100730
100696
100661
100643
100653
100678
100698
100713
100724
100727
100732
100742
100675
100308
102456
99736.2
99315.2
99294.2
99885.9
100778
101291
101313
101280
101275
101278
101281
101284
101290
101297
101305
101315
101317
100866
100866
100865
100864
100863
100861
100858
100855
100852
100848
100844
100839
100833
100827
100819
100811
100801
100789
100775
100758
100738
100713
100683
100650
100617
100594
100585
100587
100589
100596
100603
100634
100397
100606
101077
100698
99111.7
98984.7
99325.6
99653.4
100115
100754
101128
101178
101205
101222
101234
101247
101259
101271
101282
101293
101307
101314
100866
100866
100865
100864
100863
100861
100858
100855
100852
100848
100844
100839
100833
100827
100819
100811
100801
100789
100775
100758
100738
100713
100683
100650
100617
100594
100586
100587
100588
100591
100594
100639
100595
100654
100973
100299
100543
99402.6
99520.5
99765.7
100268
100745
100990
101115
101193
101221
101235
101248
101260
101271
101282
101294
101306
101312
100860
100860
100859
100857
100856
100853
100850
100847
100843
100838
100832
100826
100819
100810
100801
100790
100777
100762
100744
100723
100699
100670
100637
100601
100565
100531
100504
100482
100463
100463
100486
100734
100530
99701.5
99956.5
100135
99270.3
99207.4
99514.5
99836.6
100103
100370
100909
101064
101141
101172
101193
101215
101236
101254
101269
101284
101303
101313
100860
100860
100859
100857
100856
100853
100850
100847
100843
100838
100832
100826
100819
100810
100801
100790
100777
100762
100744
100723
100699
100670
100637
100601
100565
100531
100504
100481
100458
100439
100409
100459
100694
99966.9
96883.6
97723.9
98932.1
99198.1
99584.7
99942.5
100300
100508
100784
101014
101133
101172
101195
101217
101237
101254
101269
101283
101300
101312
100854
100854
100853
100851
100849
100846
100843
100839
100834
100828
100822
100814
100805
100795
100783
100770
100754
100736
100715
100690
100662
100629
100591
100549
100504
100457
100409
100360
100311
100285
100361
100563
100844
99902.2
98915.7
98916.8
99070.3
99294.4
99453.9
99583.3
99854.4
100141
100612
100968
101090
101130
101157
101187
101215
101237
101256
101273
101295
101307
100854
100854
100853
100851
100849
100846
100843
100839
100834
100828
100822
100814
100805
100795
100783
100770
100754
100736
100715
100690
100662
100629
100591
100549
100504
100457
100409
100359
100302
100255
100176
100418
100609
99932.5
97935.6
98468.7
99023.4
99325.5
99476.4
99602.6
99940.5
100249
100585
100935
101080
101127
101158
101188
101215
101238
101256
101273
101295
101309
100849
100849
100848
100846
100843
100840
100836
100831
100826
100819
100812
100803
100793
100781
100767
100752
100734
100713
100688
100660
100627
100589
100546
100496
100440
100377
100306
100217
100122
99915.6
100143
100117
100560
93756.5
95631.1
98099.3
99072.5
99465.3
99398
99290.8
99567.9
100035
100527
100863
101007
101074
101119
101160
101196
101224
101247
101264
101286
101302
100849
100849
100848
100846
100843
100840
100836
100831
100826
100819
100812
100803
100793
100781
100767
100752
100734
100713
100688
100660
100627
100589
100546
100496
100440
100378
100306
100221
100118
99978.5
99876.6
99974.9
98459.6
98204.1
98227.1
98687.2
99279.8
99561.4
99409.3
99249.2
99579.3
100106
100555
100857
101000
101069
101119
101161
101196
101224
101247
101265
101285
101298
100845
100844
100843
100841
100838
100834
100830
100825
100818
100811
100803
100793
100781
100768
100753
100735
100715
100691
100664
100632
100595
100552
100503
100445
100378
100298
100204
100080
99923.3
99621.3
99180.1
100403
96573.8
94400.1
96532.4
98639.9
99789.3
100061
99646.7
99286.1
99511.6
99988.6
100437
100748
100913
101018
101084
101139
101183
101217
101244
101265
101285
101298
100845
100844
100843
100841
100838
100834
100830
100825
100818
100811
100803
100793
100781
100768
100753
100735
100715
100691
100664
100632
100595
100552
100503
100445
100378
100298
100203
100091
99932.7
99701.4
99412.1
99097.3
97306.1
95901.7
97674.6
99079.3
100001
100163
99654.5
99240.4
99502.9
100059
100500
100751
100908
101012
101083
101139
101183
101216
101244
101267
101287
101299
100841
100840
100839
100837
100833
100830
100825
100819
100812
100804
100795
100784
100772
100757
100741
100721
100699
100673
100643
100608
100567
100520
100464
100398
100320
100226
100111
99965.5
99768.8
99497
98996.1
98764.2
100244
100195
99834.6
100394
101022
100871
100035
99331.9
99429.9
99888.2
100323
100650
100849
100977
101061
101128
101177
101212
101240
101266
101296
101302
100841
100840
100839
100837
100833
100830
100825
100819
100812
100804
100795
100784
100772
100757
100741
100721
100699
100673
100643
100608
100567
100520
100464
100398
100320
100225
100104
99968.5
99795.9
99572.7
99289.5
98646.5
97758.9
98419.8
99505.2
100532
101205
100960
100038
99290.9
99411.6
99936.9
100371
100649
100840
100969
101056
101126
101175
101209
101238
101263
101298
101308
100838
100837
100836
100833
100830
100826
100821
100814
100807
100799
100789
100777
100764
100748
100730
100710
100686
100658
100626
100588
100544
100492
100431
100359
100272
100167
100038
99878.9
99664.5
99392.2
98964.7
98463.2
98808.3
99802.6
99778.6
100321
101090
101042
100223
99323
99328.5
99810
100302
100629
100818
100948
101050
101126
101175
101208
101233
101259
101291
101304
100838
100837
100836
100833
100830
100826
100821
100814
100807
100799
100789
100777
100764
100748
100730
100710
100686
100658
100626
100588
100544
100492
100431
100359
100271
100161
100035
99879.5
99669.7
99406.3
99173.4
98274.8
98098.9
99011.2
99753.7
100661
101244
101045
100237
99351.4
99303.8
99816.8
100325
100640
100819
100943
101042
101123
101175
101207
101229
101248
101282
101314
100835
100835
100833
100830
100827
100822
100817
100811
100803
100794
100784
100772
100758
100741
100722
100701
100675
100646
100612
100572
100525
100471
100406
100329
100236
100125
99989
99818.4
99597.6
99318.8
98984
98484.3
98246.4
98582.5
98164.5
99029.8
100016
100452
100262
99695
99583.1
99975.3
100414
100719
100853
100963
101066
101137
101182
101210
101229
101239
101253
101298
100835
100835
100833
100830
100827
100823
100817
100811
100803
100794
100784
100772
100758
100741
100722
100701
100675
100646
100612
100572
100525
100471
100406
100328
100236
100124
99995.1
99823.7
99590.9
99308.4
98953.9
98444.8
98292.6
98550.9
98976.3
99556.9
99687.7
100030
100085
99767.9
99626
99950.9
100406
100734
100877
100964
101057
101137
101182
101208
101227
101234
101239
101295
100834
100833
100832
100829
100825
100821
100815
100809
100801
100791
100781
100768
100754
100737
100717
100695
100669
100638
100603
100561
100513
100456
100388
100308
100212
100096
99954.4
99779.2
99560.1
99288.8
98977.2
98583.4
98244.1
97795.4
97081.3
97069.5
96517.4
96603.3
97090.9
98326.7
99260.3
100082
100536
100824
100982
101085
101156
101198
101223
101237
101245
101239
101223
101276
100834
100833
100832
100829
100825
100821
100815
100809
100801
100791
100781
100768
100754
100737
100717
100695
100669
100638
100603
100561
100513
100456
100388
100308
100212
100096
99956.4
99785.5
99561.1
99275.6
98985.6
98604.6
98244.4
98033.6
97610.4
96877.5
96009
96169.2
96815.1
98164.1
99330.2
100090
100533
100821
100980
101087
101155
101198
101220
101233
101249
101245
101221
101273
100832
100832
100830
100828
100824
100819
100814
100807
100799
100790
100779
100766
100751
100734
100714
100691
100665
100634
100598
100556
100506
100448
100379
100297
100199
100081
99936.6
99760.2
99543.8
99281.1
98972.5
98599.5
98151.8
97704.5
97202.9
96143.1
94273.4
93599.2
94228.7
96101.6
98120.3
99472.9
100206
100603
100893
101091
101181
101215
101233
101244
101243
101234
101219
101252
100832
100832
100830
100828
100824
100819
100814
100807
100799
100790
100779
100766
100751
100734
100714
100691
100665
100634
100598
100556
100506
100448
100379
100297
100199
100081
99937.3
99762.4
99545.6
99282.3
98984.8
98651
98296
97775.2
96756.3
95384.7
94278
93769.1
94310.8
96003.4
98040.2
99472.4
100213
100595
100865
101078
101185
101214
101229
101243
101245
101236
101228
101268
100690
101151
100635
101561
101568
100602
100539
100580
100479
100437
100617
101143
100571
101565
101528
100570
100445
100557
100422
100398
101450
100882
100574
100870
100502
100531
100448
100553
100394
100474
100384
101418
100866
100482
100865
100473
100421
100404
100446
100396
100437
100423
100939
101016
100932
101060
100934
101056
100925
100773
100824
100765
100736
100662
100714
100640
100923
101013
100919
101051
100896
101050
100878
100761
100809
100758
100673
100620
100651
100615
101229
101164
101227
101214
101362
101213
101364
100542
100674
100592
100683
100561
100571
100529
100610
100423
100438
100401
100440
101223
101161
101221
101212
101352
101208
101358
100434
100612
100484
100576
100449
100635
100570
100648
100393
100461
100415
100515
101254
101162
101255
101033
101018
101032
101014
100675
101459
101150
101149
100722
100453
100494
100468
100411
100468
100430
100496
100423
100503
101246
101158
101252
101029
101008
101028
101010
100652
101431
101137
100658
101136
100406
100403
100481
100422
100514
100448
100526
100478
100549
100679
100814
100671
100782
100687
100782
100688
100378
100527
100419
100595
100571
100598
100586
100661
100807
100660
100781
100688
100782
100689
100460
100525
100469
100603
100599
100605
100602
101016
100917
100678
100910
101053
101014
100665
100890
100904
100999
101390
101477
101574
101484
101404
101181
101219
101390
101486
101571
101483
101396
101181
101178
100515
100568
100630
100654
100458
100544
100559
100540
100478
100470
100472
100552
100522
100470
100524
100448
100445
100455
100473
100987
100866
100595
100853
101000
100987
100573
100844
100834
100981
101405
101485
101557
101403
101491
101218
101215
101404
101478
101544
101479
101376
101241
101169
100393
100462
100521
100553
100312
100449
100465
100454
100443
100400
100465
100429
100422
100365
100455
100431
100392
100421
100452
100344
100398
100669
101455
101145
101144
100662
100336
100320
100379
100663
100557
100659
100432
100373
100530
100630
100353
100645
100468
100511
100490
100462
100506
100429
100408
100441
100471
100404
100421
100412
100449
100528
100542
100525
100469
100436
100511
100474
100424
100506
100311
100318
100646
101430
101136
101139
100674
100304
100346
100338
100621
100465
100351
100611
100326
100464
100601
100607
100368
100407
100402
100387
100406
100386
100411
100404
100408
100398
100400
100389
100402
100406
100446
100423
100417
100428
100398
100422
100435
100424
100396
101225
101081
101158
101301
101077
101303
101231
101192
101049
101143
101287
101041
101187
101293
101221
101155
101065
101297
101072
101301
101216
100586
100638
100600
100486
100634
100489
100589
100560
100592
100590
100490
100613
100492
100518
101206
101151
101056
101313
101054
101306
101211
100517
100579
100560
100486
100565
100509
100476
100518
100555
100549
100472
100556
100476
100497
100788
100960
100796
100879
100954
100795
100795
100778
100947
100874
100781
100948
100775
100788
100410
100414
100436
100383
100393
100428
100425
100387
100376
100375
100422
100376
100384
100424
100760
100942
100775
100863
100767
100938
100769
100753
100947
100865
100762
100944
100766
100757
100382
100376
100417
100408
100382
100378
100408
100378
100391
100418
100398
100385
100394
100380
100529
100624
100417
100556
100638
100494
100459
100279
100170
100137
100293
100282
100104
100123
100247
100514
100556
100627
100461
100633
100468
100506
100321
100539
100445
100130
100549
100294
100171
100034
99942.7
100080
99913.7
100342
100445
100550
100227
100375
100544
100201
99991.2
99842.6
99879.3
99952.2
101123
100893
100923
100678
100892
101119
100928
101356
101595
101607
101365
101348
101590
101594
101343
101135
100678
100938
100934
100907
100933
101132
100466
100486
101120
100885
100647
100911
100881
101115
100904
101360
101601
101594
101341
101354
101595
101593
101327
101124
100650
100893
100912
101115
100886
100906
100402
100401
100550
100952
100582
101020
100958
100542
100589
100353
100212
100183
100376
100338
100149
100158
100332
100544
101020
100959
100629
100959
100586
100609
100525
100948
100576
101010
100536
100941
100563
100283
100031
100069
100259
100304
100127
100322
100099
100512
101004
100924
100526
100936
100546
100493
101617
101445
101596
101388
101445
101595
101615
101681
101671
101685
101668
101672
101667
101674
101667
101626
101399
101445
101605
101450
101610
101606
101179
101187
101618
101445
101395
101599
101447
101614
101602
101677
101682
101689
101670
101623
101398
101450
101624
101449
101603
101635
101672
101668
101668
101670
101180
101175
100423
100604
100363
100495
100459
100587
100320
100136
99969.5
100108
100007
100155
100067
100199
100031
100403
100468
100553
100264
100390
100560
100290
100550
100552
100501
100527
100510
100546
100533
100512
100498
100515
100546
100555
100514
100503
100523
100495
100542
100509
100547
100538
100524
100536
100517
100511
100500
100479
100483
100516
100506
100500
100505
100488
100490
100468
100465
100463
100474
100474
100487
100482
100471
100492
100481
100466
100473
100498
100480
100483
100451
100883
100995
100510
100901
100427
100514
100219
100007
99995.2
100228
100446
100994
100908
100543
100898
100460
100518
100216
99939.3
99971.9
100192
100377
100862
100513
100983
100385
100859
100512
100159
99975.3
99911.8
100218
100155
99925.5
100169
99903.8
100374
100944
100861
100516
100851
100481
100456
101682
101419
101444
101744
101447
101685
101686
101749
101699
101689
101713
101677
101420
101444
101699
101438
101670
101693
101738
101711
101692
101745
101214
101228
101640
101428
101714
101389
101422
101648
101703
101739
101635
101704
101650
101720
101689
101717
101700
101646
101377
101423
101680
101426
101763
101613
101230
101180
100257
100520
100066
100353
100266
100511
100028
99866.4
99879
99795.4
99938
99901.6
99826.1
99924
99796.1
100196
100312
100444
99994.2
100473
99990.8
100208
100457
100462
100429
100455
100453
100442
100458
100447
100426
100446
100459
100458
100446
100444
100457
100476
100463
100455
100467
100453
100430
100420
100424
100431
100386
100361
100429
100453
100439
100454
100464
100425
100439
100430
100412
100414
100435
100426
100414
100419
100416
100434
100445
100460
100447
100464
100440
100435
100349
100344
101120
100893
100919
100668
101116
100892
100920
101342
101590
101336
101587
101345
101591
101342
101592
101122
100666
100888