/*--------------------------------*- C++ -*----------------------------------*\
| =========                 |                                                 |
| \\      /  F ield         | OpenFOAM: The Open Source CFD Toolbox           |
|  \\    /   O peration     | Version:  4.1                                   |
|   \\  /    A nd           | Web:      www.OpenFOAM.org                      |
|    \\/     M anipulation  |                                                 |
\*---------------------------------------------------------------------------*/
FoamFile
{
    version     2.0;
    format      ascii;
    class       surfaceScalarField;
    location    "87";
    object      phi;
}
// * * * * * * * * * * * * * * * * * * * * * * * * * * * * * * * * * * * * * //

dimensions      [0 3 -1 0 0 0 0];

internalField   nonuniform List<scalar> 
11516
(
9.98774e+06
17.1615
9159.48
9.96818e+06
43.7321
19881.9
9.93944e+06
57.2193
29072.6
9.90195e+06
60.0229
37811.5
9.85566e+06
61.0536
46626
9.80032e+06
63.6081
55696.6
9.73562e+06
63.4737
65072.6
9.66132e+06
62.3383
74695
9.57728e+06
66.9375
84454.9
9.48328e+06
67.8071
94442.3
9.37947e+06
70.9445
104286
9.26674e+06
81.2378
113212
9.14699e+06
-14.2696
120372
9.02499e+06
-139.396
122813
8.91124e+06
-1500.97
116025
8.82059e+06
-2409.04
93882.9
8.76997e+06
-889.001
52399.8
8.76792e+06
-416.206
3177.22
8.77016e+06
67.1914
-1726.62
8.73242e+06
1217.2
37003.3
8.66231e+06
-1050.77
71608.6
8.56147e+06
-4747.42
105997
8.43632e+06
-7798.27
133324
8.2939e+06
-10364.1
153131
8.13544e+06
-12404
171157
7.97991e+06
-14062.8
169857
7.83941e+06
-12003.2
152735
7.71945e+06
-7166.27
127268
7.61778e+06
-6995.59
108711
7.52937e+06
-12016.8
100406
7.4358e+06
-20396.6
113996
7.30336e+06
-28892.5
161424
7.13385e+06
-28496.6
198193
6.97139e+06
-15106.1
177887
6.85917e+06
341.684
112322
6.7637e+06
5832.67
90129.2
6.65927e+06
4902.95
99741.6
6.56021e+06
2279.41
96612.6
6.48096e+06
911.013
77867.6
6.43076e+06
2035.05
47655.2
6.40178e+06
4176.69
24210.1
6.38239e+06
6127.25
12773.6
6.36705e+06
6701.5
8187.49
6.36207e+06
7502.86
-3179.53
6.37022e+06
8848.96
-17794.7
6.39005e+06
9700.11
-30326.6
6.41737e+06
12106.9
-40001.4
6.45572e+06
13542.6
-52082.6
6.50127e+06
13325.1
-59061.6
6.56051e+06
16762.1
-75818.3
6.63205e+06
12136.4
-83541.9
6.69253e+06
6060.43
-66335.3
6.75182e+06
3766.86
-62765.1
5601.31
-62133.2
9.98776e+06
9159.46
9.96818e+06
19885.2
9.93942e+06
29083.5
9.90194e+06
37819.3
9.85566e+06
46625.7
9.80032e+06
55697.9
9.73562e+06
65062.8
9.66134e+06
74675.3
9.57731e+06
84432.6
9.48334e+06
94404.5
9.37952e+06
104269
9.26681e+06
113200
9.14666e+06
120565
9.0234e+06
123607
8.90441e+06
118050
8.80844e+06
94184.1
8.76004e+06
48139.9
8.76429e+06
-4204.58
8.77158e+06
-6858.28
8.73611e+06
36999
8.66665e+06
68709.6
8.56763e+06
94547.3
8.44335e+06
116741
8.29815e+06
135059
8.13242e+06
153527
7.96707e+06
151466
7.81548e+06
139743
7.6805e+06
127909
7.56152e+06
112018
7.46235e+06
87196.3
7.37449e+06
67511.8
7.26622e+06
79507.8
7.12108e+06
116801
6.95676e+06
149411
6.81749e+06
139818
6.6953e+06
128209
6.56919e+06
131042
6.45475e+06
116562
6.36023e+06
95131
6.29268e+06
69047.5
6.24704e+06
49489
6.21361e+06
39191.5
6.18619e+06
33694.2
6.17396e+06
19235.8
6.17945e+06
2810.11
6.20321e+06
-14580.2
6.23831e+06
-23306.1
6.28343e+06
-31788.4
6.33891e+06
-42105
6.42308e+06
-67444.2
6.52355e+06
-88226.9
6.60321e+06
-73364.8
6.67221e+06
-65107.3
-69284.2
1.0006e+07
16.6768
5282.56
1.00119e+07
43.9818
14261.2
1.0018e+07
54.9615
23328.3
1.00238e+07
57.7306
32409.9
1.00291e+07
61.2207
41688.2
1.00339e+07
63.6327
51298.4
1.0038e+07
65.6025
61324.7
1.00415e+07
69.5103
71624.9
1.00435e+07
73.251
82847.6
1.00441e+07
83.6099
94282.9
1.00426e+07
87.841
106272
1.00379e+07
80.8191
118420
1.00279e+07
161.142
130748
1.00091e+07
294.972
142014
9.96816e+06
1828.93
155870
9.89472e+06
2067.79
165959
9.76962e+06
2116.29
176213
9.57678e+06
1257.01
195100
9.36393e+06
-995.335
212272
9.17829e+06
-1357.07
224142
9.01714e+06
229.709
232664
8.87867e+06
1893.55
242704
8.75233e+06
3232.29
256566
8.62862e+06
4381.36
272568
8.50898e+06
5025.32
285874
8.3879e+06
5742.67
285299
8.26167e+06
6308.72
272781
8.1184e+06
7818.35
262834
7.96549e+06
11646.7
250050
7.81376e+06
14601.5
237581
7.66307e+06
17830.5
246868
7.52675e+06
21080.2
276673
7.41975e+06
17571.5
287606
7.33526e+06
6599.3
255756
7.26353e+06
-7279.51
191292
7.19338e+06
-20919.4
181242
7.11963e+06
-29526.5
202994
7.04521e+06
-31158.5
202083
6.96196e+06
-27839.7
188780
6.89275e+06
-22417.7
138897
6.83828e+06
-23093
101525
6.78795e+06
-29970
92653
6.75134e+06
-33467.1
77669.6
6.73229e+06
-35139.1
50305.2
6.72873e+06
-36927.5
21856.6
6.73746e+06
-37518.6
-2408.12
6.75606e+06
-39580.1
-19748.9
6.77925e+06
-41619.1
-34014.1
6.79857e+06
-46004.6
-32604.4
6.83269e+06
-57357.4
-52709.8
6.87033e+06
-38472.6
-82702.1
6.92031e+06
-22014.8
-94025.3
6.98299e+06
-14487.8
-110761
-10552.9
-120632
1.0006e+07
5282.75
1.00119e+07
14262.6
1.0018e+07
23328.8
1.00238e+07
32408.4
1.00291e+07
41684.3
1.00338e+07
51294.6
1.0038e+07
61321
1.00414e+07
71618.9
1.00434e+07
82844.7
1.0044e+07
94271.6
1.00425e+07
106260
1.00377e+07
118448
1.00282e+07
130664
1.00105e+07
142145
9.97774e+06
153144
9.91105e+06
163547
9.78108e+06
180732
9.58337e+06
194950
9.365e+06
210622
9.17946e+06
221267
9.02106e+06
227430
8.88301e+06
234591
8.75806e+06
245014
8.63687e+06
260713
8.52171e+06
273788
8.40535e+06
273664
8.28198e+06
269537
8.14928e+06
268530
8.01465e+06
258381
7.87995e+06
236577
7.72865e+06
236715
7.56695e+06
262277
7.43186e+06
269465
7.34841e+06
239412
7.29338e+06
187541
7.24756e+06
153005
7.20281e+06
146162
7.15239e+06
135696
7.10115e+06
118249
7.0724e+06
75281.5
7.04959e+06
48930.9
7.02267e+06
35719.9
7.00349e+06
18846.4
6.99349e+06
-6526.54
6.99226e+06
-33507.8
6.99708e+06
-57475.7
7.00734e+06
-73569.1
7.01558e+06
-81868.2
7.01779e+06
-90556.9
6.99772e+06
-104794
6.99219e+06
-121117
7.02897e+06
-132031
7.07836e+06
-128815
-158476
9.99931e+06
16.5478
6665.67
9.99427e+06
45.431
19640
9.98517e+06
56.6826
32757.8
9.97204e+06
59.8035
45874.9
9.95493e+06
62.6725
59145.8
9.93388e+06
64.6732
72697.7
9.90915e+06
64.8078
86430
9.88017e+06
65.7927
101001
9.84777e+06
70.0648
115661
9.81127e+06
77.8635
131226
9.77111e+06
84.8903
146899
9.72694e+06
101.92
163065
9.67825e+06
134.116
179934
9.62318e+06
280.246
197492
9.56372e+06
364.577
215755
9.4916e+06
872.981
238080
9.40796e+06
692.668
259873
9.32209e+06
1185.6
279939
9.22739e+06
511.914
306549
9.1211e+06
542.838
329984
9.00618e+06
959.08
346742
8.89018e+06
1630.61
357203
8.77515e+06
2594.15
369127
8.65922e+06
4181.56
384437
8.53985e+06
4917.47
400443
8.41333e+06
6259.31
405711
8.27187e+06
8841.41
405590
8.10698e+06
12030.9
415874
7.92428e+06
14272.4
418662
7.72936e+06
13031.4
419611
7.52074e+06
11286.5
444302
7.32173e+06
14117.6
461585
7.14295e+06
23428.3
442931
6.99143e+06
32897.3
374229
6.90025e+06
25460.3
256825
6.82282e+06
-214.539
258666
6.72864e+06
-17543.2
314608
6.6255e+06
-19382.5
324675
6.53038e+06
-12643.6
296554
6.48614e+06
-2784.56
186047
6.46361e+06
-11027.1
134992
6.43485e+06
-23546.7
144598
6.41462e+06
-28735.8
125898
6.41244e+06
-29394
81065.5
6.42237e+06
-29170.6
40206
6.44062e+06
-28483.3
6845.26
6.47142e+06
-29191.2
-22254.5
6.51464e+06
-30225.6
-47800.4
6.57996e+06
-32401.7
-65955.8
6.6566e+06
-28391.3
-101138
6.71117e+06
-14591.4
-122688
6.75591e+06
-8685.45
-130060
6.79297e+06
-10619.7
-137123
-12081.3
-162016
9.99933e+06
6665.17
9.99426e+06
19637.7
9.98516e+06
32756.1
9.97203e+06
45873.1
9.95492e+06
59143.4
9.93387e+06
72695.1
9.90914e+06
86427.2
9.88015e+06
100997
9.84775e+06
115656
9.81124e+06
131220
9.77108e+06
146891
9.72698e+06
163055
9.67832e+06
179904
9.62381e+06
197434
9.56216e+06
215713
9.48985e+06
237340
9.41022e+06
261502
9.32295e+06
283536
9.22806e+06
306093
9.12342e+06
326519
9.01028e+06
341623
8.89619e+06
350412
8.78288e+06
361028
8.66598e+06
381895
8.5458e+06
398996
8.41942e+06
406447
8.28057e+06
417396
8.12625e+06
435064
7.95594e+06
443153
7.76294e+06
442795
7.55103e+06
459987
7.35181e+06
475636
7.1865e+06
458158
7.06739e+06
391243
6.9968e+06
283265
6.92041e+06
228749
6.83965e+06
209146
6.75493e+06
201184
6.6719e+06
189228
6.62601e+06
118728
6.59426e+06
69585.9
6.55347e+06
52478
6.52865e+06
14102.1
6.51972e+06
-27765.2
6.52178e+06
-65400.1
6.5331e+06
-97959
6.55604e+06
-126270
6.59169e+06
-148228
6.63746e+06
-169075
6.69654e+06
-192376
6.74641e+06
-185589
6.78707e+06
-181327
6.82611e+06
-178433
-216739
9.99893e+06
15.9755
8500.42
9.99388e+06
43.1927
25024.7
9.98497e+06
55.1939
41989
9.97209e+06
58.3502
59079.8
9.95512e+06
60.8127
76454.2
9.93411e+06
62.7714
94053.8
9.90831e+06
62.9518
112591
9.87816e+06
64.3634
131542
9.84323e+06
69.565
150996
9.80349e+06
77.9354
171402
9.75841e+06
86.5184
192429
9.70741e+06
99.4762
214549
9.65016e+06
110.34
237702
9.58629e+06
175.361
261880
9.51433e+06
209.353
288282
9.43497e+06
693.607
317586
9.34414e+06
382.995
350994
9.24744e+06
309.552
376638
9.15816e+06
430.32
395517
9.07102e+06
863.572
416383
8.97806e+06
1232.99
438621
8.87755e+06
1281.83
456626
8.76481e+06
1180.13
480894
8.64062e+06
1555.83
507251
8.5056e+06
1153.42
534488
8.35541e+06
1095.36
555008
8.18238e+06
2905.06
575954
7.97878e+06
4532.17
615176
7.73893e+06
3280.2
655475
7.47271e+06
2996.26
683025
7.21545e+06
3963.11
697700
6.9911e+06
6576.4
679391
6.8082e+06
12732.2
613079
6.70257e+06
22388.2
457389
6.69195e+06
20215.5
247110
6.65756e+06
-18508.6
311356
6.55465e+06
-43334.6
460713
6.42739e+06
-48874.8
501302
6.29917e+06
-45369.1
470809
6.24346e+06
-17613.5
259734
6.21635e+06
-11604.8
173727
6.18905e+06
-19978.8
191611
6.16953e+06
-21202.8
165646
6.17135e+06
-19426.1
97621.8
6.18626e+06
-17700
41945.8
6.2109e+06
-15847.1
-3210.83
6.24486e+06
-14974
-42525.9
6.29106e+06
-13723.9
-81278.1
6.35798e+06
-12311
-121210
6.43447e+06
-22965.8
-154908
6.51915e+06
-24042.3
-183323
6.59895e+06
-19249.2
-190642
6.67943e+06
-18301.5
-199215
-9596.48
-202433
9.99895e+06
8500.68
9.99387e+06
25025
9.98496e+06
41986.6
9.97208e+06
59076.6
9.95511e+06
76450.8
9.9341e+06
94049.8
9.9083e+06
112586
9.87814e+06
131537
9.84321e+06
150990
9.80347e+06
171396
9.7584e+06
192424
9.70742e+06
214541
9.65018e+06
237697
9.58645e+06
261828
9.51472e+06
288199
9.43611e+06
317221
9.34749e+06
350989
9.24963e+06
381947
9.15995e+06
396310
9.07329e+06
414154
8.98059e+06
435690
8.87842e+06
454042
8.76319e+06
477601
8.6386e+06
508171
8.50412e+06
534751
8.35092e+06
560899
8.17327e+06
598111
7.96875e+06
644265
7.73419e+06
681149
7.47751e+06
702594
7.23432e+06
707195
7.02338e+06
693168
6.8445e+06
649728
6.7251e+06
532921
6.69731e+06
331051
6.64921e+06
257948
6.5751e+06
239954
6.47467e+06
253499
6.37487e+06
244622
6.31906e+06
157561
6.27809e+06
98928.1
6.23791e+06
72295.4
6.21038e+06
19603.1
6.20409e+06
-41653.1
6.21346e+06
-93185.1
6.23702e+06
-138136
6.27347e+06
-178374
6.32608e+06
-215187
6.38592e+06
-241672
6.46359e+06
-293171
6.5397e+06
-285773
6.61419e+06
-275051
6.69856e+06
-281116
-292560
9.99894e+06
15.9728
10315.2
9.99397e+06
43.6707
30322.5
9.98525e+06
54.3499
51018.7
9.97266e+06
56.8949
71985.3
9.95609e+06
59.1309
93342
9.93543e+06
61.1252
115044
9.91055e+06
61.4011
137819
9.88149e+06
62.6296
160979
9.84765e+06
67.3281
185229
9.80898e+06
74.4926
210478
9.76522e+06
82.4051
236632
9.71603e+06
89.4027
264217
9.6614e+06
102.906
292848
9.60042e+06
115.504
323419
9.53295e+06
204.123
356326
9.45902e+06
229.699
392163
9.37683e+06
971.87
433192
9.27641e+06
1171.45
476672
9.16998e+06
987.16
501260
9.06793e+06
1159.96
517573
8.96852e+06
1990.81
536319
8.8622e+06
1646.93
561655
8.73965e+06
322.239
603403
8.59761e+06
-468.25
649979
8.43728e+06
-2825.22
697820
8.24899e+06
-3891.21
747404
8.03136e+06
-1539.08
795336
7.78831e+06
493.484
857909
7.52432e+06
-991.307
920620
7.25765e+06
-1745.08
951584
7.0151e+06
187.545
940164
6.8038e+06
4752.79
886012
6.63688e+06
10975
769079
6.54944e+06
23322.5
521533
6.59193e+06
50123.4
154496
6.49639e+06
-46896.7
453576
6.37147e+06
-143593
728923
6.22291e+06
-162516
812908
6.07278e+06
-165571
787167
6.01631e+06
-107482
424041
5.99217e+06
-46430.3
244317
5.96433e+06
-40754.2
259948
5.97066e+06
-31363.6
189827
5.97937e+06
-30625.3
118505
5.99831e+06
-31820.9
53768.2
6.03026e+06
-31215.4
-5064.16
6.07432e+06
-30461.3
-57167.4
6.13004e+06
-31352.6
-106560
6.18543e+06
-27434.2
-149585
6.247e+06
-37121.8
-179770
6.31622e+06
-38429.1
-214530
6.38983e+06
-28950.2
-235420
6.4618e+06
-27235.7
-244200
-17585.5
-228079
9.99897e+06
10314.3
9.99396e+06
30318.5
9.98524e+06
51015.5
9.97265e+06
71982.3
9.95608e+06
93338.7
9.93542e+06
115040
9.91054e+06
137814
9.88147e+06
160974
9.84762e+06
185224
9.80896e+06
210474
9.76521e+06
236627
9.71602e+06
264212
9.66141e+06
292841
9.60044e+06
323400
9.53311e+06
356290
9.45906e+06
392127
9.37864e+06
433045
9.28488e+06
477418
9.17932e+06
503259
9.07471e+06
520288
8.9716e+06
541109
8.85727e+06
570329
8.72839e+06
607015
8.58676e+06
649478
8.42355e+06
695274
8.23046e+06
750240
8.01864e+06
808503
7.78677e+06
876751
7.53548e+06
931568
7.2794e+06
957038
7.04347e+06
943406
6.84214e+06
899329
6.69338e+06
809513
6.63071e+06
618930
6.65799e+06
353870
6.63687e+06
231952
6.52793e+06
205166
6.38581e+06
233305
6.24275e+06
222602
6.17134e+06
121661
6.12887e+06
94912.1
6.09451e+06
65597.7
6.08753e+06
-5408.55
6.10003e+06
-85454.3
6.12687e+06
-152506
6.16652e+06
-209656
6.21549e+06
-258446
6.26638e+06
-298016
6.31859e+06
-321797
6.34768e+06
-359814
6.38011e+06
-356815
6.43809e+06
-362280
6.49444e+06
-364934
-349525
9.99897e+06
15.0376
12073.7
9.9941e+06
39.7272
35499.8
9.98562e+06
51.0525
59794.3
9.97344e+06
54.0046
84468.4
9.95755e+06
56.3346
109540
9.93753e+06
58.2812
135382
9.91354e+06
58.4671
162145
9.88531e+06
59.536
189570
9.85263e+06
63.9035
218288
9.81547e+06
70.8086
248041
9.7732e+06
78.206
279323
9.72598e+06
85.3101
311907
9.6734e+06
95.7191
345949
9.61532e+06
106.798
382085
9.55202e+06
152.995
420279
9.48364e+06
232.501
461270
9.41238e+06
689.832
504930
9.33396e+06
1575.44
554781
9.23841e+06
2216.81
595599
9.12667e+06
1772.27
628508
9.00413e+06
2174.13
657553
8.8721e+06
521.596
693966
8.73868e+06
-1549.47
738707
8.59135e+06
-2899
800467
8.41246e+06
-6176.56
883132
8.18977e+06
-6153.55
976541
7.93188e+06
-2402.36
1.0559e+06
7.66789e+06
1990.61
1.12015e+06
7.40615e+06
2093.88
1.18048e+06
7.15042e+06
1348.85
1.20618e+06
6.90818e+06
3135.31
1.17948e+06
6.68057e+06
9714.94
1.10411e+06
6.45603e+06
22298.1
971464
6.21296e+06
82106.5
682575
5.77332e+06
346917
247320
5.28702e+06
229477
710047
5.03362e+06
52900.3
928530
5.08968e+06
-55624.3
811507
5.25728e+06
-157560
776850
5.39331e+06
-198949
486885
5.45415e+06
-115671
299041
5.52372e+06
-91297.8
281244
5.5632e+06
-54943.4
204496
5.60686e+06
-55288.6
129247
5.65602e+06
-56258
59998
5.70624e+06
-53613.6
-2541.93
5.75575e+06
-47626
-60007.8
5.80838e+06
-43529.1
-116622
5.85716e+06
-34758.6
-164610
5.8964e+06
-15366.3
-204760
5.92503e+06
-2288.79
-241683
5.95314e+06
10249.1
-274741
5.97173e+06
23111.3
-286460
40937.4
-305863
9.99899e+06
12074
9.9941e+06
35500.4
9.98561e+06
59791.2
9.97343e+06
84464.3
9.95754e+06
109536
9.93753e+06
135378
9.91353e+06
162139
9.88529e+06
189564
9.85261e+06
218282
9.81545e+06
248035
9.77319e+06
279318
9.72597e+06
311902
9.6734e+06
345942
9.61533e+06
382075
9.55207e+06
420273
9.48395e+06
461165
9.4136e+06
504918
9.34133e+06
552229
9.25235e+06
595464
9.14179e+06
633535
9.01645e+06
669350
8.88048e+06
707450
8.73641e+06
749998
8.57704e+06
806120
8.38987e+06
876458
8.1679e+06
966236
7.93065e+06
1.04351e+06
7.68448e+06
1.12507e+06
7.42974e+06
1.18856e+06
7.17795e+06
1.21035e+06
6.946e+06
1.17864e+06
6.74366e+06
1.11151e+06
6.57283e+06
1.00272e+06
6.46419e+06
809804
6.70792e+06
457226
6.86141e+06
307489
6.80045e+06
318243
6.68502e+06
292637
6.54446e+06
205290
6.29541e+06
171464
6.09876e+06
175636
6.02195e+06
50597.3
6.01799e+06
-57025.6
6.00233e+06
-125723
5.97396e+06
-181024
5.94034e+06
-230292
5.90554e+06
-271991
5.86853e+06
-305326
5.83896e+06
-327819
5.81553e+06
-352478
5.8125e+06
-356810
5.81016e+06
-350317
5.79972e+06
-331779
-301912
9.99902e+06
14.9703
13767.4
9.99433e+06
40.6487
40477.2
9.98622e+06
50.3832
68194.8
9.97458e+06
52.6808
96395.9
9.9594e+06
54.7034
125014
9.94024e+06
56.5371
154839
9.91726e+06
56.7941
185448
9.89016e+06
57.9458
217009
9.85894e+06
62.2835
249867
9.8228e+06
68.9882
284567
9.78229e+06
76.0466
320245
9.73683e+06
83.3679
357811
9.6862e+06
91.8012
397086
9.63067e+06
106.635
438195
9.57036e+06
131.184
481257
9.50592e+06
216.087
526452
9.438e+06
360.38
573664
9.36973e+06
889.686
623584
9.29408e+06
871.674
672016
9.20455e+06
8.13181
719825
9.09493e+06
14.3293
769066
8.9586e+06
-512.537
832444
8.80702e+06
-1862.05
893105
8.64927e+06
-5650.79
964232
8.46507e+06
-9860.37
1.07748e+06
8.23324e+06
-10559.3
1.21922e+06
7.95722e+06
-1649.63
1.33392e+06
7.66576e+06
6470.8
1.40546e+06
7.382e+06
5777.56
1.45876e+06
7.10939e+06
3497.58
1.47554e+06
6.85511e+06
6801.28
1.42717e+06
6.60301e+06
14525.7
1.34183e+06
6.25909e+06
39138.9
1.27632e+06
5.36015e+06
225732
1.35581e+06
4.32558e+06
316157
965767
4.30239e+06
10782
722429
4.28739e+06
46215.6
896420
4.09547e+06
140653
861255
4.1344e+06
69907.1
666440
4.2635e+06
-52015.2
408240
4.46982e+06
-53841.9
145226
4.61072e+06
35578.3
103126
4.67253e+06
74899
66109.9
4.71984e+06
79843.2
442.009
4.7554e+06
88462.3
-65647
4.77279e+06
105052
-126650
4.77367e+06
124269
-186856
4.76158e+06
142950
-249164
4.74945e+06
160261
-314488
4.74763e+06
175256
-379697
4.76499e+06
181293
-441989
4.81406e+06
180913
-506051
4.89329e+06
180803
-547467
158807
-634371
9.99904e+06
13766.1
9.99433e+06
40471.7
9.98621e+06
68190.2
9.97457e+06
96391.5
9.95939e+06
125009
9.94023e+06
154834
9.91725e+06
185441
9.89014e+06
217001
9.85892e+06
249860
9.82278e+06
284560
9.78227e+06
320238
9.73682e+06
357803
9.6862e+06
397078
9.63068e+06
438183
9.57041e+06
481250
9.5061e+06
526378
9.43864e+06
573594
9.37021e+06
622565
9.29586e+06
671858
9.20898e+06
721694
9.10497e+06
774700
8.97734e+06
835875
8.81744e+06
908959
8.64246e+06
975770
8.44047e+06
1.06883e+06
8.20134e+06
1.19501e+06
7.94476e+06
1.29867e+06
7.68276e+06
1.39372e+06
7.4138e+06
1.46349e+06
7.14752e+06
1.4803e+06
6.90184e+06
1.43127e+06
6.68382e+06
1.34411e+06
6.46984e+06
1.25585e+06
6.28023e+06
1.22518e+06
5.61219e+06
1.44083e+06
4.67419e+06
1.2557e+06
4.19908e+06
838412
4.11059e+06
520431
4.04273e+06
341635
3.97065e+06
190068
3.97418e+06
116809
3.98293e+06
75958
3.99792e+06
1428.32
4.02102e+06
-70383.5
4.05346e+06
-126386
4.09486e+06
-168058
4.14474e+06
-199071
4.20312e+06
-222221
4.27384e+06
-239647
4.35103e+06
-255763
4.4429e+06
-268676
4.55053e+06
-278215
4.67788e+06
-279085
-281221
9.99907e+06
13.5952
15359.8
9.99464e+06
35.31
45173.2
9.98698e+06
45.7017
76127.7
9.97598e+06
48.4256
107660
9.96154e+06
50.5292
139733
9.9435e+06
52.2796
173154
9.92192e+06
52.4372
207332
9.89609e+06
53.39
243157
9.86609e+06
57.4343
280205
9.83199e+06
63.5907
319022
9.79307e+06
70.3439
359556
9.74942e+06
77.0796
401884
9.70093e+06
85.9151
446062
9.6475e+06
100.163
492196
9.58948e+06
121.46
539948
9.52721e+06
170.865
589515
9.46149e+06
221.571
640319
9.39356e+06
341.399
692566
9.32155e+06
63.8161
745562
9.2435e+06
-487.28
800124
9.15576e+06
-897.911
859524
9.0568e+06
-234.215
933563
8.9292e+06
685.1
1.02167e+06
8.7713e+06
-4025.19
1.12702e+06
8.59377e+06
-11076
1.26639e+06
8.39328e+06
-13355.5
1.43333e+06
8.15092e+06
-2965.56
1.57967e+06
7.83871e+06
10357.9
1.70806e+06
7.48883e+06
13740.5
1.79562e+06
7.15585e+06
4987.85
1.80412e+06
6.88355e+06
4829.75
1.6949e+06
6.65334e+06
8709.28
1.56339e+06
6.43498e+06
8817.13
1.48578e+06
6.20205e+06
75618.5
1.51253e+06
4.9433e+06
283466
1.9396e+06
3.76643e+06
325354
1.57303e+06
3.19343e+06
282681
1.18453e+06
3.00695e+06
238439
806283
2.88982e+06
216788
563097
2.7555e+06
186359
352131
2.61658e+06
154451
125469
2.60147e+06
152946
-38813.9
2.64157e+06
159821
-137622
2.71419e+06
159996
-235794
2.83418e+06
155048
-344123
3.00675e+06
147658
-450175
3.22826e+06
138049
-549531
3.49078e+06
126770
-641297
3.78391e+06
113436
-723543
4.09701e+06
99349.3
-794466
4.42377e+06
84123.6
-854951
4.75513e+06
68633
-907981
5.10495e+06
51706.1
-950287
30785.3
-1.00327e+06
9.99909e+06
15360.2
9.99464e+06
45174
9.98697e+06
76124
9.97597e+06
107655
9.96153e+06
139728
9.9435e+06
173148
9.92191e+06
207326
9.89607e+06
243150
9.86607e+06
280199
9.83197e+06
319016
9.79305e+06
359550
9.74941e+06
401877
9.70093e+06
446054
9.64751e+06
492185
9.58952e+06
539935
9.52728e+06
589478
9.46166e+06
640267
9.39317e+06
692373
9.32071e+06
745481
9.24276e+06
800353
9.15686e+06
860965
9.06122e+06
932566
8.94156e+06
1.03047e+06
8.78147e+06
1.13249e+06
8.5813e+06
1.2584e+06
8.35144e+06
1.41178e+06
8.08095e+06
1.56673e+06
7.80064e+06
1.68478e+06
7.51901e+06
1.75915e+06
7.22182e+06
1.78278e+06
6.93207e+06
1.72605e+06
6.68752e+06
1.5974e+06
6.45464e+06
1.49725e+06
6.22995e+06
1.52456e+06
6.20989e+06
1.74329e+06
5.94633e+06
1.84365e+06
5.46115e+06
1.60509e+06
4.99364e+06
1.22487e+06
4.63586e+06
914444
4.34475e+06
665666
4.14458e+06
469596
4.05114e+06
320536
4.01655e+06
194049
4.01831e+06
86089.8
4.05217e+06
-6993.05
4.11826e+06
-88295.6
4.21409e+06
-158626
4.33629e+06
-219308
4.48013e+06
-271564
4.64067e+06
-318352
4.81447e+06
-359684
5.00358e+06
-399791
5.20164e+06
-426061
-466385
9.99914e+06
13.4795
16846.8
9.99502e+06
36.5924
49550.8
9.98789e+06
45.2093
83508.5
9.97766e+06
47.3063
118143
9.96421e+06
49.1533
153444
9.94738e+06
50.7898
190248
9.92699e+06
50.9637
227999
9.90295e+06
51.9874
267504
9.8747e+06
56.0028
308775
9.84227e+06
62.1532
351792
9.80552e+06
68.7837
396672
9.76382e+06
75.5042
443993
9.71718e+06
84.5415
493164
9.66584e+06
97.729
544085
9.6096e+06
116.968
596856
9.54907e+06
145.182
650823
9.48458e+06
174.415
705734
9.41726e+06
207.153
760956
9.34781e+06
159.484
816270
9.27639e+06
63.0597
873056
9.20316e+06
-60.0385
934450
9.12881e+06
386.623
1.00925e+06
9.04418e+06
1319.52
1.10669e+06
8.92539e+06
7100.89
1.24002e+06
8.77014e+06
3382.01
1.41885e+06
8.60607e+06
-4293.5
1.60199e+06
8.41979e+06
-5669.27
1.7727e+06
8.17346e+06
-936.297
1.95714e+06
7.85529e+06
12618.2
2.10294e+06
7.46287e+06
20848.7
2.17703e+06
7.03153e+06
17561.3
2.10934e+06
6.63938e+06
4046.71
1.95165e+06
6.32801e+06
417.266
1.79634e+06
6.11407e+06
5819.64
1.71954e+06
6.01052e+06
105036
1.93706e+06
5.49301e+06
123864
1.96565e+06
4.85373e+06
91585.1
1.73104e+06
4.26163e+06
77729.3
1.3189e+06
3.82159e+06
76487.9
924286
3.54195e+06
65569.7
563459
3.39386e+06
39329.8
231331
3.38103e+06
16849.5
-45613.7
3.49972e+06
4345.35
-263220
3.71148e+06
-7785.66
-442150
3.98257e+06
-21157.8
-596324
4.28786e+06
-33044.6
-724589
4.60516e+06
-42248.5
-826513
4.91907e+06
-51049.8
-905739
5.22036e+06
-60592.3
-965421
5.50372e+06
-70693.2
-1.00807e+06
5.7649e+06
-80489.4
-1.03652e+06
6.005e+06
-91865.3
-1.05697e+06
6.22369e+06
-100753
-1.06866e+06
-117892
-1.07817e+06
9.99916e+06
16845.3
9.99502e+06
49544.1
9.98788e+06
83502.6
9.97765e+06
118138
9.9642e+06
153438
9.94737e+06
190241
9.92698e+06
227992
9.90293e+06
267496
9.87468e+06
308767
9.84225e+06
351783
9.80551e+06
396663
9.76381e+06
443983
9.71718e+06
493152
9.66585e+06
544071
9.60961e+06
596841
9.54909e+06
650802
9.4846e+06
705707
9.41717e+06
760894
9.34758e+06
816216
9.27603e+06
873030
9.20328e+06
934789
9.12914e+06
1.00826e+06
9.05491e+06
1.10712e+06
8.95976e+06
1.23575e+06
8.81267e+06
1.40958e+06
8.62212e+06
1.59872e+06
8.37197e+06
1.81234e+06
8.0726e+06
1.9841e+06
7.76488e+06
2.08021e+06
7.44823e+06
2.12094e+06
7.09113e+06
2.10112e+06
6.70031e+06
1.99214e+06
6.32159e+06
1.87588e+06
6.02309e+06
1.82825e+06
5.99364e+06
1.87718e+06
6.03739e+06
1.92316e+06
5.94916e+06
1.78413e+06
5.7481e+06
1.50261e+06
5.53378e+06
1.20395e+06
5.34513e+06
918439
5.20205e+06
650529
5.12131e+06
416665
5.09832e+06
219931
5.1219e+06
53288.7
5.18157e+06
-89248.1
5.27003e+06
-211147
5.383e+06
-315005
5.51413e+06
-402352
5.65521e+06
-473815
5.79925e+06
-533489
5.93895e+06
-580214
6.0776e+06
-630604
6.19862e+06
-647918
-736594
9.99921e+06
11.7931
18193.4
9.99546e+06
30.0625
53532.5
9.98896e+06
39.3155
90238.7
9.97961e+06
41.814
127716
9.9673e+06
43.6698
165989
9.95186e+06
45.1393
205934
9.93309e+06
45.1186
247020
9.91077e+06
45.9338
290100
9.88461e+06
49.5882
335225
9.85433e+06
55.4443
382391
9.81959e+06
61.3683
431743
9.78019e+06
67.8023
483760
9.73577e+06
75.7543
538014
9.68603e+06
88.5966
594335
9.63126e+06
106.646
652254
9.57155e+06
129.409
711281
9.50779e+06
155.745
770369
9.44105e+06
178.381
828656
9.37353e+06
198.839
884867
9.30841e+06
145.57
939381
9.2502e+06
151.952
993991
9.20175e+06
-268.242
1.05944e+06
9.16069e+06
146.101
1.14877e+06
9.10998e+06
7984.92
1.28396e+06
9.00887e+06
16209.6
1.50464e+06
8.85029e+06
11780.8
1.74958e+06
8.63558e+06
635.117
1.98838e+06
8.39655e+06
-4392.59
2.20226e+06
8.13647e+06
1240.86
2.36324e+06
7.83378e+06
8982.29
2.47189e+06
7.4329e+06
7088.93
2.50389e+06
6.93221e+06
1703.73
2.45091e+06
6.43215e+06
5149.91
2.29128e+06
6.00999e+06
-4029.51
2.14557e+06
5.8636e+06
11990.9
2.07108e+06
5.77207e+06
20550.2
2.03623e+06
5.60082e+06
28642.8
1.87298e+06
5.33894e+06
23804.3
1.5558e+06
5.08878e+06
5521.42
1.16725e+06
4.91665e+06
-26280.4
759797
4.84319e+06
-64393.6
366948
4.86643e+06
-96433.8
25341.5
4.97029e+06
-118049
-251025
5.1273e+06
-134740
-466234
5.31153e+06
-146892
-635315
5.50456e+06
-153693
-765305
5.69298e+06
-155953
-859939
5.86822e+06
-156519
-924879
6.02678e+06
-157623
-966295
6.16977e+06
-160787
-989949
6.29511e+06
-164049
-997469
6.41221e+06
-173534
-1.00038e+06
6.50154e+06
-171426
-986511
-198889
-999572
9.99923e+06
18193.9
9.99546e+06
53533.6
9.98895e+06
90234.7
9.9796e+06
127711
9.9673e+06
165983
9.95185e+06
205928
9.93309e+06
247014
9.91076e+06
290094
9.8846e+06
335219
9.85431e+06
382385
9.81958e+06
431736
9.78019e+06
483752
9.73577e+06
538005
9.68604e+06
594325
9.63127e+06
652242
9.57156e+06
711267
9.5078e+06
770351
9.44105e+06
828620
9.37349e+06
884847
9.3083e+06
939313
9.24964e+06
994580
9.20027e+06
1.05836e+06
9.162e+06
1.14648e+06
9.12671e+06
1.27976e+06
9.06076e+06
1.49253e+06
8.91431e+06
1.75787e+06
8.69845e+06
2.02994e+06
8.43115e+06
2.24806e+06
8.12458e+06
2.38891e+06
7.78833e+06
2.46684e+06
7.4065e+06
2.49037e+06
6.95373e+06
2.44672e+06
6.47554e+06
2.3592e+06
6.04078e+06
2.25881e+06
5.76856e+06
2.16113e+06
5.67152e+06
2.04038e+06
5.64776e+06
1.83593e+06
5.62464e+06
1.54862e+06
5.60648e+06
1.22648e+06
5.60082e+06
896528
5.6083e+06
577329
5.63514e+06
292098
5.68409e+06
51690.9
5.75009e+06
-148610
5.82869e+06
-315786
5.9144e+06
-451402
6.0006e+06
-557703
6.08085e+06
-639297
6.15147e+06
-701957
6.21343e+06
-755996
6.27154e+06
-802186
6.34387e+06
-876330
6.42091e+06
-896323
-1.13527e+06
9.9993e+06
11.6829
19399.4
9.99597e+06
31.6721
57088.5
9.99018e+06
39.0358
96235.9
9.98185e+06
40.9333
136260
9.97084e+06
42.603
177212
9.95699e+06
44.0388
220009
9.93988e+06
44.1459
264371
9.91964e+06
45.1309
310600
9.89598e+06
48.9614
359159
9.86814e+06
54.817
410528
9.83573e+06
60.7626
464474
9.79872e+06
66.8026
521120
9.7564e+06
74.2314
580736
9.70868e+06
86.4961
642537
9.6549e+06
103.69
706626
9.59543e+06
125.128
771463
9.53067e+06
147.409
835946
9.46238e+06
163.325
897828
9.3937e+06
180.486
954472
9.33083e+06
169.861
1.00328e+06
9.28284e+06
237.556
1.04306e+06
9.26105e+06
444.736
1.08186e+06
9.26884e+06
1189.62
1.1406e+06
9.30594e+06
3085.45
1.24467e+06
9.28577e+06
10209.9
1.51533e+06
9.1325e+06
10805.3
1.89319e+06
8.88018e+06
2399.52
2.23958e+06
8.59426e+06
-2559.11
2.49201e+06
8.29968e+06
-1974.55
2.66079e+06
7.99315e+06
296.225
2.77876e+06
7.64484e+06
-1237.48
2.85382e+06
7.22815e+06
-5101.21
2.87303e+06
6.72818e+06
-13538.4
2.80505e+06
6.21398e+06
-17939
2.67783e+06
5.80362e+06
-15652.3
2.49705e+06
5.56832e+06
-6551.27
2.27788e+06
5.44274e+06
3198.81
1.99496e+06
5.35561e+06
4062.36
1.63816e+06
5.29998e+06
-6725.75
1.22857e+06
5.29039e+06
-28812
796874
5.32862e+06
-55912
383105
5.40598e+06
-80724
27151.1
5.5087e+06
-99625.1
-255594
5.62562e+06
-112415
-472114
5.74623e+06
-119573
-637556
5.86213e+06
-123665
-758462
5.96821e+06
-126896
-839657
6.06373e+06
-132034
-888456
6.15112e+06
-140481
-912894
6.23713e+06
-153221
-922200
6.32511e+06
-164415
-920497
6.43306e+06
-182501
-925349
6.52396e+06
-166788
-910304
-207987
-961126
9.99932e+06
19397.6
9.99596e+06
57080.9
9.99017e+06
96229.1
9.98184e+06
136254
9.97084e+06
177205
9.95699e+06
220002
9.93988e+06
264363
9.91963e+06
310591
9.89597e+06
359149
9.86813e+06
410518
9.83572e+06
464464
9.79871e+06
521108
9.7564e+06
580722
9.70869e+06
642520
9.65491e+06
706608
9.59544e+06
771443
9.53067e+06
835926
9.46237e+06
897799
9.3937e+06
954466
9.3308e+06
1.00321e+06
9.28284e+06
1.04372e+06
9.26186e+06
1.08071e+06
9.27547e+06
1.13468e+06
9.31443e+06
1.24442e+06
9.30143e+06
1.51625e+06
9.16026e+06
1.91051e+06
8.92908e+06
2.26431e+06
8.65785e+06
2.51748e+06
8.35925e+06
2.68609e+06
8.0267e+06
2.80005e+06
7.65061e+06
2.86545e+06
7.21711e+06
2.87531e+06
6.73505e+06
2.82787e+06
6.24855e+06
2.72743e+06
5.82256e+06
2.57146e+06
5.51049e+06
2.34577e+06
5.31298e+06
2.03637e+06
5.20919e+06
1.65605e+06
5.18733e+06
1.241e+06
5.23298e+06
821283
5.31791e+06
435573
5.41857e+06
109745
5.52187e+06
-152204
5.62051e+06
-360584
5.70801e+06
-523637
5.77916e+06
-646766
5.8375e+06
-743192
5.89772e+06
-831498
5.9839e+06
-928341
6.1227e+06
-1.04762e+06
6.34777e+06
-1.19124e+06
6.67036e+06
-1.38107e+06
7.13339e+06
-1.5259e+06
-1.92546e+06
9.9994e+06
9.77945
20425.9
9.99654e+06
24.2881
60133.9
9.99157e+06
32.2556
101394
9.98438e+06
34.5227
143628
9.97466e+06
36.1563
187128
9.9628e+06
37.3664
232064
9.948e+06
37.2275
279384
9.93016e+06
37.8775
328661
9.90875e+06
41.3156
380818
9.88375e+06
46.4886
435786
9.85447e+06
51.9122
494033
9.82016e+06
56.5383
555729
9.7805e+06
63.0383
620741
9.73444e+06
73.0832
689018
9.68171e+06
89.3601
759881
9.62166e+06
109.942
832161
9.55414e+06
129.402
904200
9.48035e+06
148.573
972421
9.40385e+06
150.721
1.03183e+06
9.33327e+06
230.773
1.07475e+06
9.28511e+06
325.815
1.09209e+06
9.28166e+06
1645.12
1.08505e+06
9.36485e+06
3762.94
1.05447e+06
9.55908e+06
4875.29
1.04611e+06
9.61874e+06
11145.5
1.44521e+06
9.44382e+06
10269.7
2.05829e+06
9.13996e+06
1622.34
2.54269e+06
8.79383e+06