/*--------------------------------*- C++ -*----------------------------------*\
| =========                 |                                                 |
| \\      /  F ield         | OpenFOAM: The Open Source CFD Toolbox           |
|  \\    /   O peration     | Version:  4.1                                   |
|   \\  /    A nd           | Web:      www.OpenFOAM.org                      |
|    \\/     M anipulation  |                                                 |
\*---------------------------------------------------------------------------*/
FoamFile
{
    version     2.0;
    format      ascii;
    class       volScalarField;
    location    "30";
    object      p;
}
// * * * * * * * * * * * * * * * * * * * * * * * * * * * * * * * * * * * * * //

dimensions      [0 2 -2 0 0 0 0];

internalField   nonuniform List<scalar> 
4432
(
101193
101192
101188
101182
101180
101180
101184
101190
101198
101205
101211
101215
101218
101221
101224
101232
101241
101258
101286
101315
101347
101347
101329
101361
101412
101437
101439
101435
101426
101402
101348
101258
101195
101127
101060
100920
100695
100736
100822
100901
100985
101019
101113
101200
101256
101513
101211
100735
100729
101191
101545
100757
96044
93431.2
101193
101192
101187
101182
101180
101180
101184
101191
101198
101205
101211
101215
101219
101222
101225
101233
101242
101258
101284
101312
101337
101359
101354
101357
101388
101434
101450
101425
101412
101406
101369
101268
101194
101063
100935
100870
100851
100821
100798
100844
100933
101044
101161
101190
101086
101376
101311
100858
100872
101186
101591
100983
95691.7
92736.7
101192
101190
101185
101179
101176
101177
101181
101187
101195
101203
101211
101218
101223
101228
101234
101242
101257
101277
101319
101353
101356
101354
101364
101387
101407
101419
101428
101431
101423
101392
101318
101191
101043
100913
100809
100735
100753
100782
100808
100876
100926
100958
101027
101128
101190
101240
101149
100801
100723
100898
101624
100950
93655.8
97762.4
101191
101189
101184
101179
101176
101177
101181
101188
101196
101204
101212
101218
101224
101229
101234
101243
101257
101276
101320
101354
101356
101352
101359
101380
101405
101423
101434
101438
101431
101404
101323
101186
101039
100925
100857
100801
100787
100777
100790
100814
100876
100939
101018
101155
101222
101299
101270
101008
101044
101268
101587
101201
93791.1
97911.5
101190
101189
101184
101179
101176
101177
101181
101187
101196
101204
101212
101220
101227
101233
101239
101244
101250
101246
101297
101331
101335
101341
101357
101378
101402
101431
101458
101470
101455
101411
101307
101152
101005
100893
100806
100758
100799
100858
100896
100899
100884
100906
100976
101049
101102
101038
100998
100832
100800
100546
99963
98245.3
96546.5
99979
101189
101188
101183
101179
101176
101177
101181
101188
101196
101205
101213
101220
101227
101233
101239
101245
101251
101245
101294
101330
101334
101340
101357
101378
101404
101435
101463
101476
101462
101411
101294
101128
100963
100854
100813
100811
100851
100888
100888
100848
100837
100870
100930
101049
101123
101118
101056
100960
100934
100770
100095
99038.3
96821.9
100008
101188
101187
101182
101177
101174
101174
101178
101185
101193
101202
101211
101219
101226
101233
101238
101240
101240
101235
101283
101325
101329
101333
101347
101368
101399
101440
101484
101510
101501
101449
101335
101199
101089
100952
100785
100718
100741
100808
100821
100767
100744
100786
100836
100903
100955
100959
101048
100958
100981
101078
100798
99607.4
97614.1
97753
101187
101186
101181
101177
101174
101175
101179
101186
101194
101203
101211
101219
101226
101233
101238
101241
101240
101235
101280
101324
101330
101333
101347
101369
101402
101447
101491
101515
101507
101444
101317
101172
101038
100899
100782
100791
100846
100886
100877
100767
100653
100804
100852
100897
100967
100988
100973
100972
100942
101177
100980
100285
97411.1
97535.5
101185
101184
101179
101174
101171
101172
101176
101183
101192
101201
101209
101218
101225
101231
101235
101238
101241
101245
101266
101312
101325
101323
101329
101347
101379
101426
101481
101531
101544
101482
101358
101246
101165
101072
101018
100859
100775
100768
100740
100672
100709
100721
100709
100772
100925
101105
101093
100962
100907
101005
101223
100168
97893.2
100014
101185
101183
101179
101174
101172
101173
101177
101184
101192
101201
101210
101218
101225
101231
101235
101238
101240
101242
101267
101311
101326
101325
101328
101345
101382
101431
101485
101530
101542
101480
101354
101238
101152
101037
100905
100866
100837
100838
100803
100685
100612
100775
100779
100805
100881
100949
100965
100965
100981
101167
101350
100895
97801.5
99361.7
101182
101181
101176
101171
101169
101170
101174
101181
101189
101198
101206
101214
101221
101227
101232
101236
101241
101249
101264
101296
101317
101318
101305
101311
101342
101386
101429
101473
101502
101473
101386
101300
101255
101396
101644
100882
100757
100754
100744
100665
100632
100590
100674
100725
100840
101098
101105
101016
100894
100865
100920
99907.5
98124
99784.7
101181
101180
101176
101171
101169
101170
101174
101181
101189
101198
101207
101214
101221
101227
101232
101236
101241
101250
101264
101293
101318
101318
101303
101309
101343
101384
101424
101462
101487
101467
101386
101279
101188
101141
101088
100903
100800
100781
100750
100654
100599
100680
100699
100766
100894
101002
101023
101005
100976
100998
101010
99991.4
98165.8
100269
101178
101177
101173
101168
101165
101166
101170
101177
101185
101194
101202
101210
101217
101223
101229
101235
101241
101251
101265
101283
101303
101314
101294
101270
101288
101330
101360
101375
101401
101412
101377
101316
101329
101669
101231
101354
100753
100722
100750
100712
100621
100656
100719
100743
100807
100986
101079
101090
100988
100857
100827
100153
98601.2
99606.2
101178
101176
101172
101168
101166
101167
101171
101178
101186
101194
101202
101210
101217
101223
101229
101234
101241
101251
101262
101281
101304
101316
101292
101270
101292
101328
101351
101367
101394
101409
101370
101281
101192
101198
101087
100830
100682
100719
100739
100687
100642
100684
100721
100761
100889
101048
101087
101069
101009
100881
100712
99845.5
98540.5
99392.5
101174
101173
101169
101164
101162
101163
101167
101173
101181
101189
101197
101204
101211
101218
101225
101232
101239
101247
101257
101268
101282
101298
101290
101246
101224
101261
101290
101299
101305
101300
101276
101201
101123
101127
100941
100698
100697
100764
100806
100797
100719
100697
100708
100685
100699
100862
101040
101143
101079
100887
100821
100263
98793.4
99913.1
101174
101172
101168
101164
101162
101163
101167
101174
101181
101190
101197
101205
101212
101218
101225
101231
101238
101246
101255
101266
101281
101295
101284
101249
101237
101263
101286
101283
101288
101301
101271
101188
101092
101018
100906
100744
100700
100764
100804
100771
100706
100680
100658
100657
100798
100999
101101
101109
101007
100886
100829
100151
98621.2
99846.4
101169
101168
101164
101160
101158
101158
101162
101168
101176
101184
101191
101198
101205
101212
101219
101226
101233
101240
101246
101253
101259
101266
101262
101228
101181
101198
101232
101232
101222
101201
101159
101087
101020
100960
100849
100757
100754
100839
100907
100900
100822
100707
100613
100557
100560
100696
100905
101062
101025
100806
100578
99992.1
98819.7
100248
101169
101168
101164
101160
101158
101159
101163
101169
101176
101184
101191
101199
101205
101212
101219
101226
101232
101239
101245
101251
101257
101261
101259
101236
101198
101200
101219
101207
101202
101199
101168
101101
101021
100946
100864
100788
100799
100854
100894
100874
100798
100694
100581
100541
100660
100849
101012
101059
100999
100877
100670
99882.8
98495.8
99893.5
101164
101163
101159
101155
101153
101154
101157
101163
101170
101177
101184
101191
101198
101205
101212
101218
101224
101229
101232
101234
101233
101228
101218
101195
101149
101134
101145
101150
101149
101132
101094
101047
100997
100949
100903
100864
100888
100946
100989
100988
100927
100771
100563
100422
100398
100502
100687
100875
100886
100661
100377
99958
99561.7
100442
101164
101163
101159
101155
101153
101154
101158
101163
101170
101177
101185
101191
101198
101205
101211
101218
101224
101228
101231
101232
101231
101227
101216
101194
101156
101132
101141
101146
101138
101120
101090
101046
100995
100955
100925
100893
100910
100948
100974
100950
100870
100731
100549
100433
100495
100673
100846
100993
101026
100835
100459
99798.3
98911.6
99740.2
101159
101158
101154
101150
101148
101148
101151
101157
101163
101170
101176
101183
101189
101195
101202
101208
101213
101216
101216
101213
101207
101194
101177
101148
101095
101057
101065
101096
101109
101093
101063
101032
100998
100975
100964
100952
100971
101018
101047
101028
100959
100838
100641
100438
100287
100324
100510
100715
100730
100530
100344
100129
99847.5
98764.2
101159
101157
101154
101150
101148
101148
101152
101157
101164
101170
101177
101183
101189
101195
101202
101207
101212
101214
101214
101212
101206
101194
101175
101141
101094
101058
101070
101099
101104
101085
101058
101029
101000
100983
100977
100969
100987
101019
101030
100995
100910
100777
100603
100412
100345
100462
100669
100861
100926
100795
100531
100178
99298.4
98254.8
101153
101152
101148
101144
101142
101142
101145
101150
101155
101161
101167
101173
101178
101184
101190
101195
101198
101200
101199
101194
101185
101170
101142
101093
101009
100962
101002
101066
101091
101076
101050
101028
101014
101008
101010
101013
101029
101056
101070
101046
100978
100876
100762
100623
100422
100332
100426
100604
100645
100483
100298
100186
99951.9
98989.5
101153
101152
101148
101144
101142
101143
101145
101150
101156
101162
101167
101173
101178
101184
101189
101194
101197
101198
101197
101192
101183
101169
101140
101088
101004
100961
101006
101067
101087
101073
101048
101029
101018
101015
101019
101023
101038
101061
101067
101032
100949
100831
100694
100534
100404
100402
100533
100695
100773
100703
100579
100493
99865.8
99709.6
101147
101146
101142
101138
101136
101136
101138
101142
101147
101152
101157
101161
101166
101170
101175
101179
101181
101182
101180
101177
101171
101156
101121
101043
100885
100843
100957
101063
101095
101082
101059
101045
101045
101054
101069
101084
101098
101106
101100
101066
101002
100920
100828
100734
100598
100478
100467
100552
100607
100512
100302
99990.9
99679.4
98563.2
101147
101146
101142
101138
101136
101136
101138
101142
101147
101152
101157
101161
101166
101170
101174
101178
101180
101180
101178
101175
101169
101154
101117
101026
100868
100842
100968
101071
101099
101083
101060
101047
101047
101058
101075
101091
101105
101112
101105
101067
100993
100897
100787
100670
100558
100502
100533
100613
100659
100590
100401
100084
99668.9
98389
101141
101140
101136
101132
101129
101129
101131
101134
101138
101141
101145
101148
101151
101154
101157
101159
101160
101160
101160
101161
101165
101169
101152
101045
100732
100695
100951
101086
101108
101087
101065
101058
101069
101095
101132
101167
101189
101189
101170
101118
101047
100973
100899
100822
100731
100636
100574
100550
100519
100401
100169
99779.5
99352.6
98328.6
101141
101139
101136
101132
101129
101129
101131
101134
101138
101141
101145
101148
101151
101154
101157
101159
101159
101159
101158
101158
101162
101165
101144
101031
100682
100726
100983
101100
101113
101088
101066
101059
101071
101099
101136
101174
101199
101197
101186
101132
101053
100971
100888
100801
100710
100634
100595
100581
100545
100424
100188
99784.2
99319.6
98273.4
101134
101133
101130
101125
101122
101121
101122
101125
101127
101130
101132
101133
101135
101136
101137
101137
101136
101133
101132
101134
101149
101201
101274
101244
100513
100332
100940
101135
101141
101094
101059
101050
101067
101110
101173
101247
101304
101308
101285
101210
101113
101032
100968
100907
100834
100749
100662
100574
100469
100304
100050
99674.6
99206.4
98367.8
101134
101133
101129
101125
101122
101122
101123
101125
101127
101130
101132
101133
101135
101136
101136
101136
101134
101132
101129
101131
101144
101191
101260
101164
99814.3
100541
101058
101184
101159
101100
101060
101049
101067
101111
101182
101276
101330
101304
101288
101207
101103
101020
100959
100897
100824
100743
100663
100581
100475
100307
100050
99675.9
99209.1
98365.2
101128
101127
101123
101118
101115
101114
101114
101115
101116
101117
101118
101118
101117
101116
101114
101111
101106
101100
101093
101088
101088
101100
101208
101437
100386
100962
101164
101154
101073
101019
101006
101028
101083
101173
101298
101428
101455
101412
101310
101175
101078
101025
100983
100930
100856
100760
100642
100496
100301
100048
99702.3
99284
98452.7
101127
101126
101122
101118
101115
101114
101114
101115
101116
101117
101118
101118
101117
101116
101114
101110
101105
101099
101091
101086
101082
101092
101195
100933
100364
101038
101189
101157
101070
101011
100997
101019
101075
101159
101327
101477
101411
101282
101257
101133
101042
100999
100966
100918
100848
100755
100639
100491
100293
100036
99690.7
99259
98456.6
101121
101120
101116
101111
101108
101106
101105
101105
101105
101104
101103
101101
101098
101094
101090
101083
101074
101063
101048
101029
101002
100954
100857
100730
100479
100756
101181
101270
101158
101029
100954
100933
100953
101011
101108
101257
101444
101476
101412
101352
101192
101085
101043
101028
101003
100949
100858
100728
100552
100327
100074
99751.2
99472
98550.2
101121
101119
101116
101111
101108
101106
101105
101105
101105
101104
101103
101101
101098
101094
101089
101082
101073
101061
101046
101027
100999
100950
100849
100683
100452
100834
101226
101288
101158
101019
100939
100917
100936
100987
101055
101271
101397
101461
101323
101206
101092
101024
100999
100993
100980
100936
100851
100722
100548
100326
100075
99756.9
99422.8
98559.5
101114
101113
101109
101104
101100
101097
101096
101094
101093
101091
101087
101083
101078
101072
101064
101054
101041
101024
101003
100977
100944
100905
100867
100824
100800
100888
101086
101125
101037
100940
100880
100861
100875
100928
101055
101222
101320
101535
101546
101213
101084
101040
101019
101022
101030
101008
100940
100810
100609
100346
100076
99758.9
99648.2
98651.4
101114
101113
101109
101104
101100
101097
101096
101094
101093
101091
101087
101083
101078
101072
101064
101053
101040
101023
101002
100976
100943
100905
100868
100824
100792
100889
101072
101101
101009
100913
100856
100841
100856
100893
100960
101183
101238
101134
101086
100558
100884
101000
101001
100994
101001
100991
100932
100808
100617
100371
100119
99812.2
99618.4
98614.7
101107
101106
101102
101097
101092
101089
101086
101084
101081
101077
101072
101065
101058
101049
101039
101026
101009
100989
100965
100939
100912
100887
100868
100846
100817
100831
100888
100906
100869
100823
100799
100797
100810
100850
100923
101051
101875
100613
99503.4
100279
100828
101073
101072
101067
101069
101067
101033
100922
100705
100402
100091
99757.3
99685.2
98504.3
101107
101106
101102
101097
101092
101089
101086
101084
101081
101077
101072
101065
101058
101049
101038
101025
101009
100988
100965
100939
100912
100888
100868
100844
100813
100831
100885
100897
100854
100802
100777
100780
100809
100792
100903
101145
101646
98151.7
98050.3
98624.4
99761.4
100862
101066
101050
101038
101039
101012
100911
100715
100448
100164
99827.6
99714.3
98583
101101
101099
101095
101090
101085
101081
101077
101073
101069
101063
101056
101048
101038
101027
101014
100998
100979
100957
100933
100907
100881
100858
100835
100806
100776
100762
100768
100768
100745
100721
100714
100732
100702
100857
100870
99488.2
97129.5
94965.6
96058.2
98244.6
99672.1
100940
101217
101208
101166
101158
101154
101071
100849
100540
100218
99914.6
99757.5
98351.2
101100
101099
101095
101090
101085
101081
101077
101073
101069
101063
101056
101048
101038
101027
101014
100998
100979
100957
100932
100907
100881
100858
100834
100804
100774
100762
100770
100769
100744
100716
100711
100740
100809
100924
100826
100096
97835.1
94698.3
95701.7
97501.4
98956
100482
101168
101216
101181
101140
101118
101036
100846
100579
100266
99918.2
99767.5
98465.9
101094
101093
101089
101083
101077
101072
101068
101063
101057
101050
101041
101031
101019
101006
100990
100972
100952
100928
100902
100875
100848
100820
100791
100760
100726
100698
100680
100664
100640
100624
100622
100667
100540
100806
100508
97442.2
92801.6
92968.9
95818
98324.5
100119
101506
101567
101448
101336
101306
101308
101220
100978
100674
100397
100196
100112
100175
101094
101093
101088
101083
101077
101072
101068
101063
101057
101050
101041
101031
101019
101006
100990
100972
100951
100928
100902
100875
100848
100820
100791
100759
100725
100698
100681
100666
100642
100622
100624
100705
100812
100921
100560
93608.4
92320
92976.5
95839.8
98211.3
99956.5
101365
101626
101497
101379
101315
101267
101164
100960
100699
100405
100266
100033
98703
101088
101087
101082
101076
101070
101065
101059
101053
101045
101037
101027
101015
101001
100986
100968
100948
100926
100900
100873
100844
100813
100782
100749
100712
100672
100632
100595
100560
100527
100507
100510
100646
100547
99688.4
97490.2
90935.7
90666.3
93621.7
97226.3
99995.7
101572
102183
101934
101675
101518
101488
101476
101352
101061
100666
100252
99888.3
100073
100911
101088
101086
101082
101076
101070
101064
101059
101053
101045
101037
101027
101015
101001
100986
100968
100948
100925
100900
100873
100844
100814
100782
100749
100711
100671
100632
100596
100562
100527
100494
100460
100502
100845
99981.2
91109.6
87594.3
90388.9
93501.2
97220.8
100038
101587
102097
101893
101681
101557
101512
101449
101311
101047
100694
100325
100214
100230
100649
101082
101081
101076
101070
101064
101057
101051
101043
101035
101025
101013
101000
100984
100967
100948
100926
100902
100875
100845
100813
100780
100744
100705
100662
100614
100561
100507
100452
100395
100350
100355
100467
100547
98964.5
89465.6
87955.5
91542.1
95576.2
99343.3
101705
102443
102363
102151
101866
101748
101732
101710
101594
101306
100760
100030
99189
98846.5
99194.9
101082
101080
101076
101070
101063
101057
101051
101043
101035
101025
101013
101000
100984
100967
100948
100926
100902
100874
100845
100814
100780
100744
100705
100662
100613
100562
100508
100454
100394
100333
100250
100280
100271
96927
89197.8
89023.9
91997.2
95807.6
99517.9
101830
102452
102313
102083
101847
101763
101750
101712
101584
101285
100701
99966.5
99496.1
99685.4
100719
101077
101076
101071
101064
101057
101050
101043
101035
101025
101014
101001
100986
100969
100951
100930
100906
100880
100851
100819
100785
100748
100708
100663
100612
100555
100490
100418
100335
100242
100107
100131
101087
100198
80256.6
82181.8
88901.7
93879.1
98084.2
101159
102501
102580
102342
102145
102056
102036
102052
102057
101990
101808
101361
100623
99450.5
98164.6
99706.1
101077
101075
101071
101064
101057
101050
101043
101035
101025
101014
101001
100986
100969
100950
100930
100906
100880
100851
100819
100785
100748
100708
100663
100612
100555
100491
100419
100338
100243
100121
100027
99879.2
95844.2
88722.6
88228.7
90914.2
94630.1
98485.4
101368
102576
102569
102334
102141
102037
102036
102057
102065
101995
101770
101148
100185
99308.2
98627.2
98702.3
101072
101071
101066
101059
101052
101044
101036
101027
101017
101004
100990
100974
100956
100936
100913
100888
100861
100830
100796
100759
100719
100674
100623
100565
100499
100421
100331
100221
100079
99868.2
99581.7
100434
100124
86812.4
90443.8
94954.5
98833.3
101537
102699
102709
102393
102200
102151
102259
102326
102370
102404
102346
102314
102141
101189
99343
97162.5
98905.1
101072
101070
101066
101059
101052
101044
101036
101027
101017
101004
100990
100974
100956
100936
100913
100888
100861
100830
100796
100759
100719
100674
100623
100566
100499
100422
100331
100227
100086
99903.9
99706.6
99479
94474.5
88080.6
91867.1
95745.6
99297.9
101848
102838
102707
102343
102200
102161
102217
102319
102371
102412
102365
102255
101888
100802
99363.3
97678.2
99517.6
101068
101067
101062
101055
101047
101039
101030
101021
101009
100996
100981
100964
100945
100923
100900
100873
100844
100812
100776
100736
100692
100643
100588
100523
100447
100358
100251
100118
99943.8
99702.2
99374
99324.2
102714
105168
101609
102432
104174
104564
103667
102492
101980
101988
102195
102442
102565
102671
102719
102600
102727
102385
100058
97111.3
95357.3
98538.4
101068
101066
101061
101054
101047
101039
101030
101020
101009
100996
100981
100964
100945
100923
100899
100873
100844
100812
100776
100736
100693
100644
100588
100523
100448
100358
100247
100119
99954.6
99746.6
99486.4
99087.6
99542.6
98363.3
99850.3
102403
104482
104779
103710
102423
101921
101994
102204
102412
102553
102665
102701
102582
102618
102095
99699
97047.2
95654.1
98625.3
101065
101063
101058
101051
101043
101035
101025
101015
101003
100989
100973
100955
100935
100913
100888
100861
100830
100797
100759
100717
100671
100618
100558
100487
100404
100305
100184
100033
99836.3
99574
99224.6
98744.8
99082
101564
102020
103629
105260
105171
103655
101955
101495
101822
102317
102642
102790
102999
103180
103165
103325
102247
99176.1
96587.3
93963.1
98233.9
101064
101063
101058
101051
101043
101034
101025
101015
101003
100989
100973
100955
100935
100913
100888
100861
100830
100797
100759
100718
100671
100619
100558
100488
100404
100301
100183
100032
99828.2
99574
99312.2
98477.6
98263.6
99637
101562
103957
105506
105180
103637
101958
101448
101815
102321
102651
102791
102946
103097
103049
103249
102170
99164.1
96430.2
93507.7
96659.1
101062
101060
101055
101048
101040
101031
101021
101011
100998
100984
100967
100949
100928
100905
100880
100851
100820
100785
100746
100703
100654
100598
100535
100460
100372
100266
100137
99973.7
99763.8
99486.9
99144.8
98663.5
98112.5
98667.1
99488.9
101681
103495
104085
103320
102013
101556
101988
102533
102891
103024
103263
103386
103431
103483
102333
100965
98594.8
92290.8
97052.5
101062
101060
101055
101048
101040
101031
101021
101011
100998
100984
100967
100949
100928
100905
100880
100851
100820
100785
100746
100703
100654
100599
100535
100461
100372
100266
100140
99975.1
99757
99481
99127.5
98585.7
98153.1
98746.4
100367
102161
102937
103400
103001
102077
101609
101961
102512
102904
103042
103193
103356
103400
103547
102460
101375
99120.3
92303.4
95623.6
101060
101058
101053
101046
101038
101029
101019
101008
100995
100981
100964
100945
100924
100900
100874
100845
100813
100777
100738
100693
100643
100586
100520
100442
100350
100240
100105
99935.4
99719.2
99441.9
99100.7
98667.5
98160
97627.4
97010.1
97509.9
97230.2
97616.4
98288.2
99981.8
101231
102217
102733
103076
103264
103438
103514
103552
103744
103842
105664
104484
92966
96518.9
101060
101058
101053
101046
101038
101029
101019
101008
100995
100981
100964
100945
100923
100900
100874
100845
100813
100778
100738
100694
100643
100586
100520
100443
100351
100240
100106
99939.2
99719.7
99430.7
99108.7
98675.4
98069.9
97753.5
97690
97371.8
96815.5
97150.7
98009.8
99804.2
101309
102219
102729
103066
103247
103419
103496
103591
103747
103784
105985
104836
93163.4
96176.8
101058
101056
101052
101045
101036
101028
101018
101007
100994
100979
100961
100942
100921
100897
100871
100842
100809
100774
100733
100688
100638
100580
100512
100434
100340
100227
100088
99915.8
99697.4
99422
99080.9
98654
98099.3
97443.3
96770.8
95733.3
94220.2
93694.6
94708.9
97169.8
99667.3
101450
102418
102854
103162
103369
103514
103598
103605
104364
106346
104347
94776.5
90539.9
101058
101056
101051
101044
101036
101027
101018
101006
100993
100978
100961
100942
100921
100897
100871
100842
100810
100774
100734
100689
100638
100580
100513
100434
100340
100227
100089
99916.6
99697
99420.8
99090.3
98693
98191.3
97507.2
96508.2
95211.5
94157.7
93766.9
94687.4
96969.4
99550.7
101545
102404
102828
103131
103356
103479
103569
103707
104384
106438
104615
94902.9
90272.2
100589
101183
100106
101719
101421
100290
99908.2
100413
100284
100152
100165
101094
100469
101368
101408
100415
100277
100399
100165
100180
101203
100679
100658
100672
100431
100485
100296
100659
100319
100464
100203
101371
100644
100341
100639
100112
100255
100258
100404
100242
100213
100536
100896
101037
100877
101084
100855
101058
100806
100631
100698
100604
100526
100417
100491
100424
100862
101001
100828
101045
100820
101005
100771
100592
100656
100601
100431
100372
100357
100345
101347
101268
101329
101315
101491
101315
101490
100209
100456
100478
100484
100103
100613
100402
100689
100256
100490
100232
100524
101304
101222
101255
101302
101461
101261
101397
99839.7
99968.3
100214
100173
99836
100795
100559
100807
100293
100636
100334
100671
101240
101202
101292
101000
100865
100995
100874
99902.5
101425
100893
100879
99962
100613
100853
100602
100342
100624
100454
100681
100414
100698
101267
101170
101235
100984
100849
100984
100871
100124
101156
100872
100065
100926
100218
100304
100691
100418
100731
100475
100777
100572
100846
100646
100722
100598
100762
100681
100765
100678
100311
100440
100330
100627
100661
100626
100686
100552
100680
100556
100759
100676
100764
100691
100473
100512
100624
100644
100719
100667
100741
100985
100857
100547
100821
101053
101064
100401
100763
100767
100862
101559
101675
101705
101661
101582
101254
101290
101601
101433
101646
101611
101361
101379
101069
100252
100346
100210
100461
100190
100049
100019
100067
100190
100265
100174
100048
100106
100103
100089
100116
100187
100124
100103
100628
100837
100434
100829
100923
100655
100450
100781
100757
100354
101485
101248
101478
100875
101627
102552
100002
101251
101842
101512
101413
101819
100992
101509
100069
100245
100258
100232
100352
99878.5
99808.7
99970.6
100183
100179
100144
100191
100073
100405
100122
100135
100199
100184
100232
99445.7
99482.2
99937.2
101402
100901
100909
99921.3
99600.4
99709.5
99749.2
100603
100653
100610
99810.6
99772.5
100561
100460
99856
100549
100602
100459
100477
100419
100742
100497
100265
100490
100356
100257
100312
100309
100454
100523
100656
100496
100570
100347
100586
100403
100229
100450
99746.7
99856.1
99976.8
101343
101007
100942
99945.9
99672.8
99372.3
99919.8
100391
100175
99958.6
100305
99695.8
100196
100264
100274
99598.5
100120
100226
100205
100271
100172
99489.9
102311
100048
100242
100172
100216
99936.8
100288
100387
100204
100213
100374
99919.8
100308
100522
100309
100026
101287
101094
101224
101438
101063
101418
101305
101366
101085
101102
101224
100987
101243
101208
101292
101197
101025
101313
101035
101386
101242
100256
100340
100319
100170
100369
100177
100226
100277
100372
100372
100200
100412
100157
100291
101072
101105
100872
101410
100925
101280
100978
100093
100259
100350
100349
100234
100227
100261
100334
100326
100349
100260
100268
100288
100395
100377
100678
100602
100664
100657
100600
100396
100345
100716
100674
100558
100685
100370
100585
100328
100338
100345
100257
100266
100287
100400
100193
100143
100208
100209
100168
100140
100228
100624
100715
100555
100617
100534
100681
100544
100407
100699
100618
100503
100657
100480
100444
100139
100136
100236
100385
100132
100166
100340
100040
100255
100478
100686
100238
100380
100002
100432
100469
100150
100122
100408
100460
100082
100248
100315
100331
100271
100280
99903.9
100188
100176
100333
100092
100324
100035
100379
100010
100296
99940.2
100045
99830.4
99771.6
100058
99997.9
99660.4
99173.7
99388.7
98806.1
99327.3
99587.1
99784.7
99937.6
99104
99377.8
99951
99248.5
99792.9
99818.5
99790.3
99916.7
100613
100144
100397
99929.2
100142
100600
100408
100939
101525
101495
100990
100967
101500
101502
100936
100585
99901.5
100113
100411
100071
100413
100604
100699
100832
100541
99452.1
100308
100823
99781.9
100302
100865
99787.3
100571
99503.9
100275
100018
101557
100110
99835.9
100489
100251
100133
100491
100495
100058
100673
100037
100185
100277
100842
100311
100981
100862
100192
100327
100165
100190
100249
100154
100095
99801.9
100074
99945
100281
100971
100889
100380
100867
100310
100339
100169
100851
100392
101109
100156
100863
100458
100188
100906
99662.3
101672
99756.7
99677.7
99846.9
99525.4
100522
101112
100957
96373.7
100945
100644
101375
101850
101619
101824
101551
101620
101835
101820
101894
101780
101776
101867
101881
101758
101766
101847
101847
101549
101638
101822
101625
101825
101822
101246
101229
101698
101616
101652
101793
101583
101792
101639
101423
101181
101193
101232
101598
101669
101464
101846
101523
101599
101403
101654
101755
101821
101558
101524
101560
100412
100509
100207
100283
100508
100502
100170
99660.9
99757.8
99228.3
99412.1
99956.2
99787.9
100135
99623.4
100251
100209
100251
99764.3
99892.9
100365
100008
99979
99955.9
100181
100167
100123
100050
100180
100118
100169
100386
100596
100628
100388
100341
100511
100318
100559
100210
100047
100154
100172
100174
100152
100204
100153
100135
100123
100150
100107
100111
100149
100130
100121
100205
100332
100210
100354
100111
100126
100165
100110
100144
100125
100138
100238
100437
100262
100395
99783.7
100302
100342
98729.1
100588
99476.1
98534.5
99938.3
100272
99669.7
100805
100175
100868
101077
101017
100923
100892
99935.5
99726.8
99623.1
99776.8
99449.4
99730.3
100396
99710.6
100684
99552.7
100520
99787.9
99231.2
99231.4
99049.6
99532.8
99417
99305.5
99403.3
99107
99754
100338
100393
99932.5
100415
99544.3
100038
102484
101716
101809
101780
101621
100781
101834
107719
100779
100811
100371
101528
101256
101458
104570
101344
101023
100723
102620
103210
100708
102502
102206
100940
103398
101394
102828
101659
101945
101469
101813
101758
100736
101372
102118
101734
102276
102045
101820
103610
101940
101158
102101
101135
101613
101963
101938
102250
99968.2
100256
99679.9
100187
99974.4
100501
99574
99268.4
99152.7
99156
99539.3
99223.5
99398.5
99576
99050.3
100051
100385
100434
99686.1
100586
99792.4
100077
99835.3
99735.1
100195
99952.5
100112
100062
100157
100100
100128
100254
100298
100224
100295
100234
100043
100238
100175
100193
100260
100138
100243
100302
100217
100299
100150
100273
100140
100167
100130
100221
100195
100142
100203
100266
100342
100376
100237
100248
100306
100228
100334
100139
100183
100164
100241
100174
100214
100120
99491.2