/*--------------------------------*- C++ -*----------------------------------*\
| =========                 |                                                 |
| \\      /  F ield         | OpenFOAM: The Open Source CFD Toolbox           |
|  \\    /   O peration     | Version:  4.1                                   |
|   \\  /    A nd           | Web:      www.OpenFOAM.org                      |
|    \\/     M anipulation  |                                                 |
\*---------------------------------------------------------------------------*/
FoamFile
{
    version     2.0;
    format      ascii;
    class       surfaceScalarField;
    location    "30";
    object      phi;
}
// * * * * * * * * * * * * * * * * * * * * * * * * * * * * * * * * * * * * * //

dimensions      [0 3 -1 0 0 0 0];

internalField   nonuniform List<scalar> 
11516
(
9.98824e+06
1807.34
10892.9
9.99033e+06
2767
19664.8
9.98006e+06
3410.62
29646.3
9.9579e+06
3053.4
39177.7
9.92359e+06
2641.75
48719.6
9.87747e+06
2329.91
58102.2
9.82093e+06
2117.21
66811.7
9.7561e+06
2032.55
74204.3
9.68556e+06
2048.78
79620.9
9.61142e+06
2046.32
82786.4
9.53525e+06
1791.42
83316.6
9.45717e+06
1115.81
80860.6
9.37572e+06
-711.55
77205.3
9.28671e+06
-2939.71
69907.7
9.18206e+06
-8564.2
71431.8
9.09791e+06
-7508.53
34161.9
9.00762e+06
-9620.76
25578.9
8.9874e+06
-7908.96
-25590.2
8.99758e+06
-5915.39
-35298.4
8.98294e+06
2256.56
20284.7
8.94391e+06
-826.207
66091.8
8.87523e+06
-164.084
99722.2
8.79548e+06
-652.5
117577
8.69942e+06
-1530.32
148979
8.57858e+06
-8133.71
182761
8.47439e+06
-17593.6
161628
8.44157e+06
-14413.6
78623.2
8.49935e+06
-6472.58
-36806.7
8.70288e+06
-3473.09
-197685
9.17342e+06
8874.08
-485861
1.00082e+07
33563.6
-848912
1.11069e+07
74545.6
-1.14234e+06
1.21875e+07
110981
-1.13635e+06
1.30317e+07
113545
-874341
1.36851e+07
102078
-626099
1.41794e+07
-2400.31
-488837
1.42071e+07
25856.8
-139670
1.39191e+07
29827.8
129231
1.34274e+07
74992.6
248029
1.29839e+07
108558
189160
1.27915e+07
92954.8
53342.6
1.26407e+07
72954.9
74313
1.23409e+07
55952.3
265978
1.18677e+07
148027
537249
1.13113e+07
167545
833361
1.09637e+07
48316.6
865769
1.05656e+07
54098
1.10323e+06
9.89975e+06
-7958.84
1.20946e+06
9.06242e+06
2362.68
1.38002e+06
8.81403e+06
121696
883344
7.31726e+06
857114
648608
1.12188e+07
1.00277e+06
-6.25912e+06
1.6504e+07
668211
-5.43282e+06
-320764
-1.14744e+07
9.99089e+06
10858.5
9.99046e+06
19534.2
9.97937e+06
29348.2
9.95657e+06
38631.1
9.92193e+06
47851.1
9.87601e+06
56875.7
9.82016e+06
65210.4
9.75644e+06
72264.6
9.68725e+06
77438
9.61448e+06
80556.8
9.53934e+06
81287.7
9.46169e+06
79511.6
9.37884e+06
76803.7
9.28714e+06
72979.2
9.18164e+06
70240.3
9.07808e+06
56389.1
8.98716e+06
34626.2
8.97589e+06
-25283.3
8.99123e+06
-29818.6
8.98098e+06
19103.4
8.94244e+06
54593.6
8.87539e+06
89291.6
8.78791e+06
115521
8.68607e+06
132121
8.56136e+06
145356
8.44324e+06
125578
8.37592e+06
64724
8.40991e+06
-37059.1
8.59397e+06
-189789
8.973e+06
-363703
9.63516e+06
-628974
1.06275e+07
-897894
1.17477e+07
-965988
1.27076e+07
-805440
1.33771e+07
-567562
1.36738e+07
-340540
1.36348e+07
-15325.1
1.3307e+07
218723
1.2907e+07
308356
1.25912e+07
323885
1.24988e+07
113473
1.24975e+07
14580.1
1.25179e+07
99788.4
1.24825e+07
303798
1.23253e+07
609118
1.21758e+07
607306
1.1924e+07
709300
1.14403e+07
951074
1.06618e+07
1.06862e+06
1.03558e+07
964524
9.21607e+06
1.08757e+06
1.2562e+07
-1.82848e+06
1.7626e+07
-4.46538e+06
-1.06331e+07
1.00101e+07
1784.86
5753.2
1.00368e+07
2521.34
13684.3
1.00616e+07
2989.04
22278.3
1.0084e+07
2441
31025.1
1.01034e+07
1836.12
39907.6
1.012e+07
1336.15
48742.9
1.01341e+07
957.602
57353.2
1.01461e+07
744.099
65350.2
1.01557e+07
710.851
73024.6
1.01629e+07
801.668
79301
1.01665e+07
882.611
84290.8
1.01646e+07
839.818
87624
1.01548e+07
228.46
90641.6
1.01308e+07
101.134
92616.6
1.00845e+07
-2812.17
107805
1.00051e+07
-3838.02
93860.7
9.83221e+06
-562.991
158163
9.64446e+06
-579.954
143508
9.49141e+06
-1244.91
114960
9.42619e+06
-1296.07
90682.8
9.40549e+06
2458.89
91752.6
9.38532e+06
2379.26
125657
9.33373e+06
1508.37
176725
9.25731e+06
3197.99
231152
9.18242e+06
3962.98
261178
9.12281e+06
-1445.81
228491
9.10027e+06
-8795.25
112685
9.19534e+06
-20918.8
-109829
9.54843e+06
-40869.5
-509513
1.02303e+07
-49940.5
-1.12419e+06
1.11368e+07
-28553.9
-1.74476e+06
1.19742e+07
13171.1
-2.01209e+06
1.25995e+07
36287.8
-1.82293e+06
1.30883e+07
27980.1
-1.4331e+06
1.34535e+07
-15673
-1.06025e+06
1.3553e+07
-45330.2
-614035
1.3479e+07
-158017
1420.64
1.33169e+07
-191848
343662
1.3174e+07
-157421
380447
1.30713e+07
-48442.3
240509
1.3106e+07
-62356.8
-8358.66
1.32641e+07
-192666
30896
1.35329e+07
-284500
277510
1.38379e+07
-300817
615225
1.41719e+07
-279144
1.00358e+06
1.4471e+07
-329087
1.25091e+06
1.47264e+07
-396856
1.60149e+06
1.47108e+07
-313354
1.88264e+06
1.42473e+07
-353641
2.15183e+06
1.18526e+07
292096
2.55456e+06
5.65591e+06
-212312
6.50362e+06
-5.50539e+06
68900.8
4.83499e+06
-1.13921e+07
1.06056e+06
-402455
-976813
-2.89538e+06
1.00127e+07
5736.26
1.00365e+07
13598.1
1.00602e+07
22089.6
1.00812e+07
30748.2
1.00992e+07
39528
1.01145e+07
48226.9
1.01274e+07
56657.6
1.01384e+07
64448.6
1.01471e+07
71898.6
1.01533e+07
77987
1.01559e+07
82896.1
1.01532e+07
86400.5
1.01426e+07
89632.3
1.01199e+07
93339
1.00746e+07
103585
9.98772e+06
118730
9.83675e+06
162619
9.64644e+06
154502
9.49005e+06
124444
9.41885e+06
92974.2
9.3967e+06
84270.6
9.37808e+06
115220
9.33141e+06
169700
9.25152e+06
222183
9.16246e+06
244428
9.07371e+06
216915
9.01027e+06
124181
9.04053e+06
-81525.1
9.24022e+06
-429482
9.77969e+06
-968230
1.07008e+07
-1.60136e+06
1.17125e+07
-1.9233e+06
1.25106e+07
-1.75495e+06
1.30941e+07
-1.40966e+06
1.35282e+07
-1.07161e+06
1.36731e+07
-604895
1.36288e+07
-221980
1.34639e+07
88833
1.33297e+07
218173
1.30061e+07
514237
1.29899e+07
-4088.46
1.29523e+07
-204069
1.296e+07
-237982
1.31574e+07
-102565
1.34707e+07
200201
1.37797e+07
175961
1.42779e+07
137470
1.46392e+07
445016
1.46537e+07
788502
1.40747e+07
1.65956e+06
1.02003e+07
4.7677e+06
-623866
9.03227e+06
-5.76799e+06
1.87567e+06
-4.64885e+06
1.00018e+07
1756.69
7010.99
1.00166e+07
2444.84
18766.1
1.00247e+07
2869.2
30839.3
1.0026e+07
2276.26
42772.1
1.00205e+07
1617.52
54729.7
1.00084e+07
1068.25
66429.7
9.99096e+06
659.409
77562.2
9.9687e+06
459.487
88699.6
9.94369e+06
500.884
98887.5
9.91609e+06
755.525
108781
9.88673e+06
1137.91
117498
9.85519e+06
1552.64
125719
9.82078e+06
1814.18
134186
9.77885e+06
1545.92
145238
9.73416e+06
324.312
159723
9.64427e+06
-3850.48
180654
9.55122e+06
-2356.48
232478
9.4996e+06
-2753.54
190398
9.47714e+06
1172.6
135456
9.47216e+06
2572.21
98022.3
9.46895e+06
2527.4
99529.2
9.45225e+06
1655.88
147241
9.40853e+06
406.188
227366
9.33306e+06
649.893
314429
9.23285e+06
83.6045
369894
9.11518e+06
-5255.21
361689
9.00745e+06
-19650.1
253782
9.02829e+06
-42454.4
-74209.1
9.30963e+06
-64620.1
-725305
9.82798e+06
-39772.2
-1.61897e+06
1.03469e+07
10884.3
-2.30027e+06
1.06433e+07
40713.8
-2.38313e+06
1.06969e+07
96471.3
-2.02386e+06
1.05844e+07
154817
-1.57128e+06
1.03178e+07
220752
-1.09022e+06
9.96209e+06
135500
-446539
9.68364e+06
-20992.7
279496
9.3399e+06
-144021
877872
9.21549e+06
-176182
720830
9.27427e+06
-253657
419070
9.54834e+06
-178949
-142587
9.79705e+06
-301263
-10255.9
1.005e+07
-514654
363544
1.04324e+07
-631119
815189
1.10482e+07
-794395
1.20441e+06
1.1766e+07
-962821
1.57452e+06
1.2734e+07
-977932
1.83593e+06
1.36175e+07
-890844
2.03636e+06
1.42061e+07
-499424
2.20179e+06
1.46822e+07
-282703
2.41867e+06
1.8049e+07
-590487
3.77684e+06
2.09954e+07
-1.57202e+06
3.59396e+06
1.97011e+07
-2.30174e+06
3.31367e+06
-3.19306e+06
-1.71177e+06
1.00043e+07
6979.52
1.00164e+07
18721.8
1.00234e+07
30730.8
1.00237e+07
42608.3
1.00173e+07
54508
1.00046e+07
66147.3
9.98676e+06
77218.9
9.96443e+06
88305.2
9.93951e+06
98466.2
9.91208e+06
108391
9.8829e+06
117246
9.85147e+06
125747
9.81658e+06
134820
9.77451e+06
146630
9.72057e+06
162320
9.6421e+06
188827
9.55498e+06
231498
9.48865e+06
211710
9.46658e+06
148372
9.46362e+06
102179
9.45869e+06
96667.3
9.44092e+06
140179
9.39749e+06
220368
9.31685e+06
310984
9.20063e+06
369293
9.04937e+06
376277
8.88642e+06
284732
8.80685e+06
-33453.7
8.9519e+06
-644604
9.45884e+06
-1.53763e+06
1.01201e+07
-2.28022e+06
1.05893e+07
-2.38041e+06
1.08737e+07
-1.98916e+06
1.10794e+07
-1.51516e+06
1.12341e+07
-1.05457e+06
1.10688e+07
-303856
1.0758e+07
146133
1.05982e+07
252500
1.01747e+07
595241
8.9768e+06
1.53409e+06
8.53769e+06
214535
8.52895e+06
-648191
8.20467e+06
-609897
7.76147e+06
-440442
7.1432e+06
-63594.5
6.66187e+06
-244032
6.61025e+06
-668990
7.38457e+06
-928687
9.16209e+06
-1.2251e+06
1.24057e+07
-1.66015e+06
1.70943e+07
-409492
2.29442e+07
1.53226e+06
2.16197e+07
1.07688e+06
-7.48335e+06
1.00014e+07
1715.69
8737.05
1.00161e+07
2414.94
23681
1.00244e+07
2813.96
39010.2
1.0026e+07
2219.87
54145.9
1.00206e+07
1552.36
69383.6
1.00082e+07
982.536
84269.1
9.98905e+06
544.839
99393.2
9.96467e+06
317.572
114270
9.93595e+06
347.376
128919
9.90403e+06
638.245
143755
9.86937e+06
1143.6
158441
9.83231e+06
1829.21
173586
9.79393e+06
2591.39
189363
9.75323e+06
3060.73
206356
9.70733e+06
2727.24
225870
9.64233e+06
882.99
251064
9.57476e+06
-3441.72
285219
9.46534e+06
-3477.48
291867
9.4095e+06
2247.27
189506
9.38785e+06
2724.11
124261
9.38161e+06
1784.5
114380
9.37143e+06
1279.88
167684
9.3353e+06
1167.9
275148
9.25456e+06
64.7464
409809
9.11777e+06
-4085.07
529769
8.91239e+06
-13461.4
606227
8.67849e+06
-29472.5
542734
8.52777e+06
-35934.9
125397
8.53599e+06
-33430.2
-703202
8.61026e+06
-8220.46
-1.6998e+06
8.50394e+06
21838.1
-2.23193e+06
8.15104e+06
41218.7
-2.08604e+06
7.6549e+06
80980.1
-1.62927e+06
7.18611e+06
141903
-1.26305e+06
6.90744e+06
142788
-960536
6.75194e+06
-5336.72
-250039
6.7368e+06
-361700
851434
7.13828e+06
-434543
1.29357e+06
7.59864e+06
-723653
1.17558e+06
7.92571e+06
-547393
714453
8.27265e+06
-127569
-379519
8.46919e+06
-78880.4
-261470
8.29716e+06
-299524
421387
8.24969e+06
-637936
1.03675e+06
8.45242e+06
-834436
1.52753e+06
8.80349e+06
-900558
1.96578e+06
9.42148e+06
-537887
1.87287e+06
1.054e+07
-287554
1.59751e+06
1.19794e+07
-148617
1.45847e+06
1.35287e+07
272472
1.43939e+06
1.60668e+07
147895
1.63613e+06
1.93497e+07
-1.34925e+06
1.59415e+06
2.31371e+07
-2.28727e+06
1.85568e+06
-2.26347e+06
-932974
1.00038e+07
8726.45
1.00159e+07
23647.2
1.00232e+07
38880.6
1.00238e+07
53958.4
1.00174e+07
69173.1
1.00044e+07
84052.9
9.98494e+06
99184.9
9.96056e+06
114081
9.93207e+06
128760
9.90053e+06
143632
9.86639e+06
158375
9.82992e+06
173611
9.79171e+06
189501
9.75081e+06
206732
9.70222e+06
226748
9.63811e+06
251037
9.56087e+06
292048
9.46324e+06
301039
9.40376e+06
212147
9.38014e+06
135005
9.36963e+06
117731
9.3548e+06
167175
9.3162e+06
270950
9.23196e+06
405952
9.07994e+06
531611
8.84048e+06
621122
8.56989e+06
541334
8.39705e+06
110400
8.41253e+06
-696787
8.53762e+06
-1.68087e+06
8.51142e+06
-2.24142e+06
8.25262e+06
-2.09156e+06
7.90278e+06
-1.57243e+06
7.63703e+06
-1.11987e+06
7.65417e+06
-900832
7.61374e+06
-108163
7.63301e+06
108263
7.76054e+06
86442.8
7.00223e+06
931010
6.29495e+06
1.79495e+06
6.6792e+06
-334966
6.84705e+06
-1.0745e+06
6.11003e+06
-621442
4.85709e+06
-267452
3.77175e+06
-137557
3.04123e+06
-555341
3.15787e+06
-1.09797e+06
4.04242e+06
-1.53537e+06
5.13858e+06
-1.47004e+06
6.99852e+06
-2.51762e+06
9.29609e+06
-2.57143e+06
1.44948e+07
-4.70865e+06
1.1191e+07
1.67672e+06
-1.25839e+07
1.00015e+07
1692.09
10388.8
1.00158e+07
2405.21
28747.4
1.00237e+07
2810.98
47338.5
1.00249e+07
2228.16
65763
1.0019e+07
1567.61
84389.8
1.00061e+07
1002.08
102788
9.98682e+06
571.298
121632
9.96245e+06
355.996
140363
9.93372e+06
405.789
159694
9.9019e+06
726.554
179527
9.86784e+06
1284.85
199720
9.83252e+06
2062.35
220739
9.79715e+06
2993.98
241910
9.76159e+06
3759
263540
9.72208e+06
3985.09
286055
9.66899e+06
1330.95
311032
9.60672e+06
1439.39
344655
9.49104e+06
1200.88
403378
9.36337e+06
11243.1
313148
9.2823e+06
971.688
220260
9.23729e+06
-1615.08
180971
9.21175e+06
7.86463
218355
9.17101e+06
3393.66
330829
9.08665e+06
2483.75
511565
8.93054e+06
-4942.75
712523
8.67481e+06
-11488.6
901670
8.33999e+06
-15572.9
917524
8.00849e+06
-7003.61
480270
7.69476e+06
4978.66
-384953
7.28788e+06
10005
-1.30032e+06
6.71589e+06
13153.9
-1.67312e+06
6.05068e+06
23633.1
-1.44692e+06
5.41913e+06
45462.4
-1.04985e+06
4.95702e+06
91052.1
-893919
4.75235e+06
209220
-956320
4.70378e+06
-223394
117720
5.05925e+06
-400019
1.42398e+06
5.71616e+06
-234513
1.40817e+06
6.14634e+06
-673144
1.65207e+06
6.8299e+06
-596624
659130
7.39106e+06
-44018.4
-925255
7.40803e+06
35963.2
-546087
7.05077e+06
-10983.7
139066
6.94798e+06
-286115
848533
7.01187e+06
-405992
1.46787e+06
7.14646e+06
-203794
1.97379e+06
7.36468e+06
204991
1.71375e+06
7.68543e+06
537686
1.32438e+06
8.42397e+06
581683
851624
1.02947e+07
279962
502078
1.09166e+07
220346
1.13575e+06
1.41421e+07
-2.81543e+06
1.47763e+06
1.92945e+07
-4.53766e+06
806639
920314
-1.82104e+06
1.00039e+07
10327.8
1.00156e+07
28681.9
1.00224e+07
47198.5
1.00226e+07
65586.5
1.00158e+07
84206.1
1.00023e+07
102627
9.98276e+06
121520
9.95839e+06
140317
9.9299e+06
159727
9.89847e+06
179633
9.86495e+06
199886
9.83024e+06
220924
9.79545e+06
242004
9.75949e+06
263722
9.71782e+06
286213
9.66462e+06
312734
9.60849e+06
350097
9.52269e+06
392618
9.38985e+06
369947
9.29027e+06
255643
9.2307e+06
196909
9.18814e+06
230642
9.14381e+06
334902
9.05907e+06
506548
8.89065e+06
711291
8.62156e+06
895552
8.30849e+06
851969
8.01015e+06
411762
7.72595e+06
-399982
7.34934e+06
-1.28946e+06
6.8119e+06
-1.68927e+06
6.20433e+06
-1.46033e+06
5.68325e+06
-1.00684e+06
5.41068e+06
-751621
5.53124e+06
-744075
5.87734e+06
-383465
6.18925e+06
-143370
6.33819e+06
70272
5.94209e+06
841025
5.73775e+06
1.36793e+06
5.73475e+06
-448801
5.10502e+06
-727618
4.2449e+06
-346240
3.6784e+06
-513131
3.70763e+06
-866772
4.04334e+06
-1.08408e+06
4.69396e+06
-1.21741e+06
5.69763e+06
-1.32614e+06
6.86092e+06
-1.16439e+06
6.52443e+06
-1.39749e+06
5.42593e+06
-910653
-5.48342e+06
3.02323e+06
-1.57306e+07
6.36893e+06
-2.42049e+06
1.00016e+07
1623.54
11827
1.00153e+07
2363.15
33899.8
1.00228e+07
2723.54
55735.9
1.00238e+07
2148.14
77416.9
1.00179e+07
1509.18
99321.2
1.0005e+07
972.018
121483
9.98611e+06
574.834
144046
9.96201e+06
391.881
166945
9.9339e+06
469.579
190840
9.90307e+06
802.013
215424
9.87004e+06
1359.69
241070
9.83602e+06
2113.24
267316
9.80133e+06
2940.87
293880
9.76621e+06
3904.67
321249
9.72764e+06
3882.89
348443
9.68524e+06
4390.4
378927
9.6423e+06
3352.59
407319
9.60134e+06
11774.7
462494
9.48193e+06
18436.4
452241
9.34647e+06
338.718
410308
9.2298e+06
-6872.61
369232
9.1493e+06
-5431.35
369738
9.06224e+06
1723.86
446789
8.9562e+06
5476.7
636019
8.79964e+06
-2860.29
899622
8.54623e+06
-2048.28
1.19003e+06
8.15076e+06
7382.25
1.33975e+06
7.63808e+06
19336.2
1.00037e+06
7.02658e+06
29202.2
219385
6.29175e+06
21798.8
-571616
5.4734e+06
17071
-863465
4.64992e+06
37432.5
-660578
3.85272e+06
91411.6
-341905
2.94366e+06
300186
-282075
250633
1.24185e+06
530183
153113
357011
163478
2.28613e+06
237361
19995.2
4.33971e+06
116631
-309954
4.90078e+06
-192486
1.40085e+06
5.7015e+06
63246.6
-373653
6.20466e+06
86679
-1.68216e+06
5.64768e+06
598753
-1.19929e+06
5.28316e+06
301791
-627225
5.0807e+06
51024.7
223305
5.13121e+06
-28794.4
1.11347e+06
5.62071e+06
76786.2
1.58117e+06
6.23338e+06
465755
1.41821e+06
6.82907e+06
685798
1.26909e+06
7.05366e+06
745600
1.12617e+06
7.36603e+06
646047
378569
7.59364e+06
659747
747218
9.35456e+06
147468
-537273
1.06781e+07
221793
-1.07881e+06
578531
-2.32454e+06
1.00039e+07
11802.3
1.00151e+07
33836.9
1.00216e+07
55554.1
1.00215e+07
77167.6
1.00148e+07
99060.7
1.00014e+07
121249
9.98218e+06
143871
9.9581e+06
166849
9.93022e+06
190830
9.89976e+06
215489
9.86719e+06
241174
9.83368e+06
267390
9.7995e+06
293891
9.76399e+06
320939
9.72522e+06
348483
9.68144e+06
378033
9.64252e+06
411633
9.62999e+06
449090
9.59637e+06
469324
9.4556e+06
453795
9.28199e+06
418177
9.15756e+06
404352
9.04133e+06
493925
8.92261e+06
649476
8.76228e+06
888004
8.51394e+06
1.16174e+06
8.1598e+06
1.23099e+06
7.70085e+06
905803
7.11651e+06
228513
6.40406e+06
-544748
5.63627e+06
-898595
4.92601e+06
-710286
4.37915e+06
-367450
4.18287e+06
-222857
5.33188e+06
-465513
5.81327e+06
-204676
6.19575e+06
111241
6.24269e+06
324119
5.72801e+06
1.14876e+06
5.28787e+06
1.65398e+06
4.40898e+06
253836
3.84034e+06
-16451.3
3.81825e+06
-470237
4.11559e+06
-1.03851e+06
4.35549e+06
-1.19763e+06
4.58568e+06
-1.07071e+06
5.16856e+06
-933178
5.99263e+06
-863442
6.8532e+06
-612995
7.29624e+06
-695903
7.9652e+06
-717673
1.09213e+07
151354
1.59978e+07
1.56752e+06
-1.33452e+06
1.00016e+07
1583.12
13261.2
1.0015e+07
2333.91
39038.5
1.00222e+07
2713.96
64012.6
1.00232e+07
2170.74
88831.7
1.00175e+07
1564.78
113955
1.00051e+07
1063.06
139872
9.98677e+06
704.021
166188
9.96343e+06
557.702
193298
9.93635e+06
661.317
221573
9.90595e+06
1006.1
251468
9.87382e+06
1556.22
281914
9.84019e+06
2267.65
313534
9.80544e+06
3108.34
345826
9.76975e+06
3987.97
378882
9.73227e+06
4594.31
412511
9.69489e+06
5717.59
449068
9.65803e+06
6148.68
485456
9.64808e+06
12137
526812
9.62749e+06
7506.23
552029
9.58322e+06
6886.74
569270
9.50613e+06
8611.97
594277
9.36422e+06
13655.7
662014
9.19404e+06
-3452.79
718471
9.0099e+06
3951.92
859164
8.8247e+06
-7942.87
1.12313e+06
8.60152e+06
-3689.69
1.45358e+06
8.24462e+06
18461.9
1.71829e+06
7.63602e+06
28707.7
1.6193e+06
6.79534e+06
28700.2
1.06246e+06
5.83314e+06
26208.6
384055
4.90005e+06
31088.9
46639.5
4.02526e+06
56139.4
162436
2.98072e+06
157247
544102
517328
761475
1.42958e+06
-2.49431e+06
1.20337e+06
2.40525e+06
-2.52282e+06
7299.12
190224
-1.29715e+06
493544
-1.28492e+06
293684
1.33664e+06
-2.50062e+06
1.63353e+06
584435
-418281
2.53063e+06
202524
-1.63466e+06
2.88029e+06
209725
-2.55895e+06
2.31983e+06
551099
-1.73363e+06
1.3303e+06
464741
-870212
423372
255337
137270
584146
133497
614454
1.48435e+06
331389
633638
2.30123e+06
612354
796383
3.09064e+06
578653
975905
3.76348e+06
580614
984121
3.89665e+06
449298
676099
3.27587e+06
452993
1.461e+06
-2.07363e+06
2.00647e+06
3.04465e+06
-7.29908e+06
2.23152e+06
2.22887e+06
3.22274e+06
1.43492e+06
1.00038e+07
13191
1.00148e+07
38986.1
1.0021e+07
63871.1
1.0021e+07
88657.5
1.00145e+07
113790
1.00015e+07
139752
9.98299e+06
166142
9.95968e+06
193342
9.93283e+06
221705
9.90278e+06
251680
9.87105e+06
282186
9.83788e+06
313856
9.80348e+06
346226
9.76791e+06
379322
9.73048e+06
413546
9.69318e+06
449827
9.66081e+06
488201
9.64484e+06
527078
9.63056e+06
559406
9.59676e+06
583952
9.52147e+06
615596
9.39091e+06
675788
9.1884e+06
797130
8.99558e+06
881516
8.79616e+06
1.10818e+06
8.5647e+06
1.41336e+06
8.22268e+06
1.61873e+06
7.68427e+06
1.4945e+06
6.91606e+06
1.04554e+06
6.00391e+06
408895
5.1245e+06
20943.3
4.40577e+06
67676.6
3.87801e+06
325050
3.53059e+06
948396
1.81448e+06
2.58558e+06
255535
1.54726e+06
1.39003e+06
-235498
3.62957e+06
-467767
4.40269e+06
944390
4.42736e+06
1.72302e+06
3.77851e+06
938770
4.17112e+06
-37144
4.73045e+06
-721202
4.91985e+06
-1.0923e+06
4.80637e+06
-980417
4.90311e+06
-668879
5.45928e+06
-489605
6.18723e+06
-425677
6.86491e+06
-129013
7.23748e+06
-21666.1
7.33294e+06
143956
8.25313e+06
1.66346e+06
1.04905e+07
1.92024e+06
7038.79
1.00018e+07
1502.91
14478.7
1.00148e+07
2313.95
44107.5
1.0022e+07
2640.8
72165.8
1.00231e+07
2111.41
100089
1.00178e+07
1537.45
128481
1.00062e+07
1072.36
157913
9.98904e+06
747.199
187857
9.96674e+06
622.17
219453
9.94053e+06
724.288
252301
9.91159e+06
1047.58
286879
9.88009e+06
1562.53
322971
9.84688e+06
2259.39
360465
9.81254e+06
3163.86
399321
9.77724e+06
4192.89
439706
9.742e+06
5537.61
481801
9.70705e+06
6737.97
525899
9.67727e+06
9095.15
572084
9.65452e+06
11558.8
619265
9.63178e+06
12340.4
665932
9.60128e+06
14301.7
718312
9.56187e+06
17107.5
784900
9.52762e+06
22555.6
881616
9.43789e+06
12248.5
1.00416e+06
9.25314e+06
8367.28
1.14574e+06
9.03799e+06
-7742.1
1.39065e+06
8.84314e+06
-7853.8
1.69405e+06
8.64056e+06
10049
1.97444e+06
8.19399e+06
44497.2
2.13583e+06
7.2849e+06
75674.4
2.00611e+06
6.11464e+06
59053.4
1.58465e+06
5.10858e+06
42756
1.05309e+06
4.34215e+06
43183.3
902216
3.73578e+06
88826.9
1.06884e+06
2.77787e+06
600599
1.82513e+06
870275
1.06011e+06
3.34319e+06
202221
-4519.85
1.00895e+06
530431
-216755
-663039
358183
-72741.8
-1.39046e+06
2.04785e+06
-104044
-1.57289e+06
3.26935e+06
-493167
-2.10432e+06
3.8578e+06
-562163
-2.37615e+06
4.36086e+06
-108025
-2.00519e+06
4.48508e+06
303184
-1.32413e+06
4.526e+06
537842
-600550
4.78856e+06
495477
-313020
5.2187e+06
455877
-191089
5.66649e+06
584527
139828
6.26976e+06
661073
427068
6.97087e+06
575622
686568
7.23516e+06
592668
964285
7.45041e+06
712877
1.52513e+06
7.58273e+06
1.19562e+06
2.71875e+06
6.91949e+06
1.02447e+06
2.70104e+06
1.13731e+06
708622
1.00038e+07
14449.2
1.00146e+07
44045.4
1.00208e+07
71990.6
1.0021e+07
99849.8
1.00149e+07
128244
1.00028e+07
157724
9.98543e+06
187752
9.96315e+06
219452
9.93715e+06
252410
9.90851e+06
287085
9.87738e+06
323257
9.84459e+06
360810
9.81066e+06
399720
9.77586e+06
440242
9.74076e+06
482420
9.70733e+06
527012
9.67824e+06
573693
9.65533e+06
622065
9.6317e+06
671659
9.60266e+06
723718
9.56514e+06
792709
9.52623e+06
885224
9.44354e+06
1.03165e+06
9.26959e+06
1.15404e+06
9.03811e+06
1.39913e+06
8.81268e+06
1.67289e+06
8.5548e+06
1.97343e+06
8.09828e+06
2.05611e+06
7.38809e+06
1.87767e+06
6.42551e+06
1.4809e+06
5.4383e+06
1.09963e+06
4.69878e+06
881138
4.15657e+06
982991
4.27417e+06
1.50348e+06
5.41994e+06
2.5812e+06
4.76394e+06
2.31719e+06
3.54935e+06
918980
3.34288e+06
-176409
3.95134e+06
381392
4.46725e+06
870179
4.74293e+06
236430
5.27352e+06
-581000
5.79362e+06
-917462
6.03641e+06
-843037
6.08299e+06
-539630
6.23866e+06
-248867
6.70478e+06
-32324
7.27709e+06
188456
7.89703e+06
506028
8.41627e+06
784447
8.9278e+06
1.02363e+06
1.05382e+07
1.89166e+06
1.14065e+07
2.40776e+06
1.13171e+06
1.00018e+07
1460.28
15667.9
1.00147e+07
2289.59
48985.2
1.0022e+07
2651.6
79993.7
1.00235e+07
2166.24
110855
1.0019e+07
1633.91
142392
1.00085e+07
1209.29
175265
9.99246e+06
923.559
209020
9.97185e+06
831.114
244730
9.94715e+06
955.888
282449
9.9194e+06
1291.22
322111
9.88934e+06
1824.49
363734
9.85719e+06
2565.13
407803
9.82391e+06
3558.7
453804
9.79069e+06
4849.08
501932
9.75789e+06
6381.15
552941
9.72704e+06
8218.49
606732
9.69963e+06
10596
664129
9.67602e+06
13257.8
724031
9.65439e+06
16202.4
788496
9.63301e+06
19277
860900
9.61567e+06
22816.2
949465
9.61418e+06
26319.4
1.06461e+06
9.60012e+06
19681.7
1.22601e+06
9.52433e+06
23625.6
1.40693e+06
9.34122e+06
15927.7
1.6653e+06
9.11528e+06
5107.3
1.97026e+06
9.04958e+06
5865.41
2.21877e+06
9.01073e+06
32393.3
2.43166e+06
8.59532e+06
103832
2.6071e+06
7.58626e+06
158937
2.69609e+06
6.24789e+06
128457
2.43507e+06
5.11939e+06
47906.5
2.08335e+06
4.37917e+06
70200.6
1.80467e+06
4.23505e+06
288098
1.7955e+06
4.64172e+06
467416
2.61715e+06
4.14585e+06
-23919.6
1.71294e+06
3.88083e+06
-526419
420680
4.02066e+06
-641010
-475382
4.57696e+06
-608980
-1.04249e+06
5.25746e+06
-696477
-1.56806e+06
5.83405e+06
-590305
-1.82522e+06
6.3228e+06
-284604
-1.71772e+06
6.7618e+06
-39439.4
-1.42047e+06
7.24301e+06
30809.4
-1.08022e+06
7.67943e+06
11158.9
-869053
8.01734e+06
46756.1
-692735
8.39415e+06
232543
-419994
8.88294e+06
332755
-136306
9.45504e+06
387809
149395
9.89699e+06
412826
543736
1.06126e+07
458362
909566
1.22186e+07
425966
1.15984e+06
1.26242e+07
339046
2.28331e+06
610682
1.35732e+06
1.00038e+07
15600.2
1.00146e+07
48976.8
1.00209e+07
79901.2
1.00216e+07
110744
1.00163e+07
142312
1.00053e+07
175256
9.98903e+06
209115
9.96844e+06
244946
9.94394e+06
282794
9.9165e+06
322587
9.88681e+06
364353
9.8551e+06
408599
9.82233e+06
454823
9.78964e+06
503264
9.75752e+06
554640
9.72767e+06
609014
9.70127e+06
666695
9.67898e+06
727369
9.65842e+06
792244
9.63854e+06
864327
9.62312e+06
951735
9.612e+06
1.06356e+06
9.60027e+06
1.22193e+06
9.53966e+06
1.402e+06
9.4393e+06
1.66306e+06
9.2798e+06
1.96661e+06
9.18964e+06
2.2535e+06
8.93507e+06
2.48619e+06
8.50593e+06
2.53804e+06
7.80998e+06
2.47899e+06
6.77917e+06
2.3933e+06
5.63059e+06
2.17753e+06
4.78453e+06
2.00681e+06
4.83034e+06
1.87116e+06
5.96595e+06
2.01337e+06
6.47254e+06
1.89671e+06
5.87776e+06
1.16044e+06
4.99037e+06
332263
4.93547e+06
172580
5.501e+06
30882.1
6.13335e+06
-559044
6.6187e+06
-988560
6.95412e+06
-1.08477e+06
7.12835e+06
-930522
7.23958e+06
-695590
7.41455e+06
-429921
7.77163e+06
-128198
8.19157e+06
253519
8.79379e+06
528185
9.49682e+06
752543
1.04164e+07
838336
1.18343e+07
1.01477e+06
1.23948e+07
2.06046e+06
1.82106e+06
1.00019e+07
1383.63
16673.9
1.00149e+07
2317.2
53722.7
1.00226e+07
2625.59
87559.8
1.00248e+07
2159.17
121290
1.00213e+07
1667.79
155878
1.00122e+07
1288.81
192121
9.99798e+06
1046.14
229635
9.97924e+06
986.158
269568
9.95668e+06
1131.47
312066
9.93095e+06
1482.68
357157
9.90266e+06
2053.66
404996
9.87263e+06
2884.58
456099
9.84178e+06
4048.8
510228
9.81114e+06
5612.02
567629
9.78187e+06
7489.89
628472
9.75495e+06
9776.16
693186
9.73099e+06
12140.2
761287
9.71212e+06
15196.9
833007
9.69876e+06
18204.9
908113
9.69336e+06
21139.3
988256
9.70373e+06
23357.4
1.08105e+06
9.73891e+06
23286.6
1.19221e+06
9.75687e+06
12605.7
1.38711e+06
9.80588e+06
30246.2
1.56655e+06
9.75608e+06
49211.5
1.86789e+06
9.60335e+06
47236.9
2.24102e+06
9.5085e+06
58490.4
2.5073e+06
9.42079e+06
47536.1
2.72616e+06
9.32449e+06
51083.3
2.90256e+06
9.06092e+06
85600.2
3.1225e+06
8.33277e+06
119623
3.28601e+06
7.20758e+06
159459
3.26232e+06
6.09864e+06
187088
2.90675e+06
5.46735e+06
174189
2.47029e+06
5.77041e+06
185755
2.32099e+06
5.85215e+06
48483
1.81755e+06
5.78499e+06
-138682
1.00083e+06
5.86695e+06
-231986
227670
6.17898e+06
-269582
-379508
6.59772e+06
-300305
-861492
7.04008e+06
-210911
-1.18963e+06
7.49794e+06
-68790
-1.34172e+06
7.92686e+06
-16008.8
-1.37061e+06
8.34076e+06
-64411.7
-1.31645e+06
8.69758e+06
-142163
-1.28343e+06
9.02123e+06
-163008
-1.22607e+06
9.38977e+06
-90615.3
-1.12031e+06
9.84223e+06
-23341.9
-930865
1.03444e+07
40025.8
-690908
1.09228e+07
83158.2
-370611
1.15462e+07
102070
-125210
1.24659e+07
177217
-97672.6
1.34357e+07
-26034.5
887334
520552
1.31736e+06
1.00038e+07
16642.4
1.00147e+07
53674
1.00215e+07
87425.3
1.00229e+07
121108
1.00187e+07
155718
1.00092e+07
192033
9.99475e+06
229659
9.97603e+06
269729
9.95367e+06
312373
9.92824e+06
357611
9.90035e+06
405596
9.87083e+06
456860
9.84059e+06
511181
9.81064e+06
568828
9.78223e+06
630016
9.75611e+06
695037
9.73368e+06
763672
9.71578e+06
835667
9.70361e+06
911080
9.69879e+06
991657
9.70606e+06
1.08413e+06
9.729e+06
1.19718e+06
9.7619e+06
1.35374e+06
9.80509e+06
1.5611e+06
9.82605e+06
1.86335e+06
9.78702e+06
2.23029e+06
9.71105e+06
2.5604e+06
9.60115e+06
2.8049e+06
9.41495e+06
2.93014e+06
9.10935e+06
3.02269e+06
8.62578e+06
3.14089e+06
7.93108e+06
3.16502e+06
7.21275e+06
3.03563e+06
6.66771e+06
2.71139e+06
6.69997e+06
2.28855e+06
6.94341e+06
1.85149e+06
6.9163e+06
1.2784e+06
6.71005e+06
654604
6.86996e+06
218897
7.33923e+06
-176720
7.77266e+06
-657262
8.14009e+06
-998236
8.42179e+06
-1.14046e+06
8.60094e+06
-1.1447e+06
8.69496e+06
-1.07241e+06
8.76643e+06
-907724
8.9544e+06
-661747
9.31572e+06
-333095
9.88132e+06
-157410
1.06435e+07
-116705
1.15256e+07
-166713
1.2577e+07
-209760
1.37084e+07
921520
1.4226e+06
1.00019e+07
1345.43
17611.4
1.00153e+07
2305.43
58054
1.00235e+07
2664.74
94530.2
1.00267e+07
2251.04
130895
1.00247e+07
1806.96
168341
1.00175e+07
1472.43
207800
1.00053e+07
1271.73
249190
9.98903e+06
1248.56
293129
9.96937e+06
1423.4
340226
9.94643e+06
1804.66
391061
9.92085e+06
2417.22
445493
9.89386e+06
3324.17
503781
9.86628e+06
4605.67
566463
9.83965e+06
6327.48
633242
9.81449e+06
8425.22
704856
9.79168e+06
10773.4
780631
9.77188e+06
13291.1
860275
9.75708e+06
16094.3
942310
9.75134e+06
18733.4
1.02451e+06
9.75817e+06
22079.2
1.1064e+06
9.79382e+06
22576.7
1.18753e+06
9.83318e+06
25957.4
1.27891e+06
9.89514e+06
23192.9
1.42781e+06
1.00399e+07
34420.2
1.58351e+06
1.01185e+07
48743.3
1.94716e+06
1.00755e+07
66697.4
2.42512e+06
9.92135e+06
55289.4
2.80059e+06
9.7581e+06
43913.3
3.01576e+06
9.63775e+06
41997.3
3.13573e+06
9.59363e+06
48315.4
3.26638e+06
9.50117e+06
57846.9
3.46003e+06
9.15574e+06
95358.4
3.642e+06
8.4712e+06
122893
3.59678e+06
7.69089e+06
117626
3.2666e+06
7.27782e+06
128594
2.76103e+06
7.06496e+06
96946.5
2.13996e+06
6.94637e+06
45700.9
1.39663e+06
6.9702e+06
7314.83
684386
7.17262e+06
-7170.31
80435.9
7.50427e+06
-17425.3
-434452
7.9023e+06
12566.4
-846671
8.32412e+06
31268.1
-1.16211e+06
8.76873e+06
22939.1
-1.40015e+06
9.25615e+06
-45772
-1.5805e+06
9.69655e+06
-102488
-1.70458e+06
1.00789e+07
-168478
-1.73373e+06
1.04412e+07
-199854
-1.67837e+06
1.08982e+07
-196878
-1.59504e+06
1.13893e+07
-116867
-1.50992e+06
1.18584e+07
-16285.5
-1.32211e+06
1.24403e+07
12101.8
-1.1211e+06
1.28701e+07
60935.4
-1.03832e+06
1.50759e+07
-199308
-810025
-122337
-396448
1.00038e+07
17554.1
1.00151e+07
58102.9
1.00225e+07
94511.1
1.0025e+07
130877
1.00223e+07
168376
1.00146e+07
207931
1.00022e+07
249450
9.98603e+06
293539
9.96657e+06
340797
9.94395e+06
391802
9.9188e+06
446419
9.89236e+06
504919
9.86547e+06
567865
9.83961e+06
634937
9.81528e+06
706916
9.79346e+06
783046
9.77479e+06
863018
9.76112e+06
945091
9.75547e+06
1.02741e+06
9.7641e+06
1.10944e+06
9.7926e+06
1.19253e+06
9.85483e+06
1.28435e+06
9.95072e+06
1.40699e+06
1.00792e+07
1.58791e+06
1.01715e+07
1.97614e+06
1.01292e+07
2.46594e+06
1.00221e+07
2.83947e+06
9.92322e+06
3.04487e+06
9.82149e+06
3.16141e+06
9.71207e+06
3.26204e+06
9.59469e+06
3.39105e+06
9.40999e+06
3.51327e+06
9.10925e+06
3.52719e+06
8.68446e+06
3.33021e+06
8.30885e+06
2.88405e+06
8.09318e+06
2.29704e+06
7.97083e+06
1.64865e+06
7.93627e+06
998739
8.12733e+06
428144
8.48248e+06
-83056.9
8.8217e+06
-543583
9.14463e+06
-927031
9.46643e+06
-1.20091e+06
9.74573e+06
-1.37676e+06
9.98376e+06
-1.47588e+06
1.01477e+07
-1.43643e+06
1.03048e+07
-1.28715e+06
1.06519e+07
-1.1684e+06
1.1197e+07
-1.14276e+06
1.18476e+07
-1.1072e+06
1.24393e+07
-1.0749e+06
1.34672e+07
-1.06533e+06
1.5294e+07
-1.05355e+06
-573116