/*--------------------------------*- C++ -*----------------------------------*\
| =========                 |                                                 |
| \\      /  F ield         | OpenFOAM: The Open Source CFD Toolbox           |
|  \\    /   O peration     | Version:  4.1                                   |
|   \\  /    A nd           | Web:      www.OpenFOAM.org                      |
|    \\/     M anipulation  |                                                 |
\*---------------------------------------------------------------------------*/
FoamFile
{
    version     2.0;
    format      ascii;
    class       volVectorField;
    location    "30";
    object      U;
}
// * * * * * * * * * * * * * * * * * * * * * * * * * * * * * * * * * * * * * //

dimensions      [0 1 -1 0 0 0 0];

internalField   nonuniform List<vector> 
4432
(
(39.9845 0.00260968 0.0530481)
(39.9415 0.00707839 0.0895627)
(39.9273 0.0136368 0.123688)
(39.8859 0.0170398 0.159783)
(39.7855 0.0180072 0.198157)
(39.6273 0.0174277 0.238266)
(39.4185 0.0158482 0.27893)
(39.1688 0.0138382 0.317472)
(38.8891 0.0118228 0.351187)
(38.5914 0.00996002 0.376671)
(38.284 0.00798078 0.38944)
(37.9734 0.00572294 0.388539)
(37.6498 0.00132107 0.370298)
(37.3294 -0.00347784 0.338197)
(36.9192 -0.0187754 0.29806)
(36.5941 -0.0258292 0.22963)
(36.2057 -0.0388535 0.286326)
(36.0091 -0.0389896 0.205452)
(36.0021 -0.0371284 0.135415)
(35.9083 -0.00731409 0.399827)
(35.7436 -0.00248547 0.482448)
(35.5463 0.0285967 0.626515)
(35.4302 -0.0135682 0.744049)
(35.1243 -0.0777464 0.712634)
(34.5349 -0.064032 0.700679)
(33.9759 -0.0119958 0.604412)
(33.7519 -0.00388552 0.35998)
(33.8329 -0.0274344 0.0371232)
(34.2374 0.00228222 -0.309799)
(35.4779 0.0689346 -0.947106)
(37.95 0.100803 -1.80579)
(42.1273 0.124864 -2.80669)
(46.7738 0.19893 -3.34004)
(50.5213 0.280605 -3.08279)
(53.49 0.409523 -2.82001)
(55.5473 0.574119 -2.13417)
(57.2559 0.83718 -0.515138)
(57.0372 0.292709 0.0549249)
(54.9121 -0.0152166 0.366635)
(52.7287 0.12108 0.641628)
(51.4075 0.324875 0.411998)
(50.8733 0.506628 0.443226)
(50.3518 0.368604 0.955743)
(48.5897 0.34772 1.88142)
(46.7452 0.367334 2.78622)
(44.0386 0.794635 2.85541)
(40.7708 1.70095 4.15655)
(42.0644 1.15886 4.49483)
(38.6239 0.387654 4.14051)
(40.3901 -0.672654 3.65351)
(17.1307 1.83344 3.29733)
(45.9241 -1.62522 -3.70118)
(55.5342 -3.94869 -13.7112)
(90.9381 -3.65964 -23.3818)
(39.9878 0.00260943 0.0530019)
(39.9472 0.0070789 0.0893224)
(39.9289 0.0136433 0.123125)
(39.8817 0.0170588 0.158609)
(39.7787 0.0180413 0.196061)
(39.6202 0.0174745 0.235042)
(39.4133 0.0159082 0.274238)
(39.1673 0.013907 0.311107)
(38.8927 0.0118983 0.343237)
(38.6006 0.0100381 0.367159)
(38.2987 0.00805921 0.379303)
(37.9905 0.00579623 0.378315)
(37.6703 0.00140176 0.36231)
(37.3319 -0.00345277 0.334352)
(36.9422 -0.0184669 0.301312)
(36.5413 -0.0265464 0.239248)
(36.1135 -0.0397712 0.253125)
(35.9476 -0.0392956 0.180712)
(35.9463 -0.0380664 0.179165)
(35.8858 -0.00864696 0.417427)
(35.7799 -0.00287149 0.449569)
(35.5844 0.0288816 0.474811)
(35.3357 -0.00483828 0.61313)
(35.0331 -0.0752698 0.674906)
(34.5648 -0.0764944 0.643453)
(33.9516 -0.0187011 0.429176)
(33.4869 0.00905193 0.195861)
(33.4547 -0.0242422 0.0130653)
(33.9719 0.00544432 -0.378933)
(34.9717 0.078572 -0.848598)
(36.8692 0.111763 -1.38844)
(40.2356 0.145329 -1.86223)
(44.7567 0.247249 -2.33456)
(48.9379 0.199976 -1.82452)
(52.3184 0.332057 -1.22236)
(54.4643 0.496916 -0.836332)
(54.9737 0.872047 0.0303261)
(53.9513 0.38142 0.782616)
(52.685 0.0503524 1.33977)
(51.0642 0.153286 1.74922)
(50.2174 0.345079 1.53646)
(50.0093 0.581245 1.35374)
(50.0276 0.482431 1.87587)
(49.6699 0.468024 2.88644)
(49.9951 0.451371 3.69677)
(49.6247 0.795705 2.86356)
(46.2598 1.68974 2.95661)
(47.2596 1.2203 3.19379)
(45.3279 0.440313 2.55649)
(44.4956 -0.241147 1.74927)
(30.8509 0.933671 0.0980825)
(43.4038 2.6055 1.24438)
(65.2849 0.0642441 -8.74538)
(91.4907 -1.96419 -21.502)
(40.0205 0.00260519 0.0213744)
(40.0644 0.00660871 0.0521434)
(40.1756 0.012746 0.0921696)
(40.2927 0.0157062 0.133212)
(40.3883 0.0161334 0.174248)
(40.4632 0.0148525 0.214618)
(40.5227 0.0124051 0.253055)
(40.57 0.00937137 0.287816)
(40.6074 0.00628928 0.316682)
(40.6365 0.00351479 0.337216)
(40.6548 0.00105829 0.347378)
(40.6581 -0.000895969 0.343968)
(40.6318 -0.00359228 0.332739)
(40.5802 -0.00351898 0.294814)
(40.4136 -0.0110017 0.325142)
(40.2609 -0.0202214 0.0792421)
(39.7243 -0.0143618 0.168428)
(39.0824 -0.00895247 0.0844995)
(38.177 -0.00542578 0.115109)
(37.6862 -0.00439548 0.0734482)
(37.5895 0.00617277 0.176037)
(37.6002 0.00239503 0.354933)
(37.4843 -0.00629149 0.487217)
(37.1915 0.000239628 0.682053)
(36.8542 0.0111727 0.850859)
(36.5736 -0.00435605 0.769222)
(36.3942 -0.0349928 0.348785)
(36.4016 -0.0722295 -0.33904)
(37.1833 -0.143037 -1.42429)
(39.2446 -0.177122 -3.21136)
(42.6095 -0.116015 -5.30514)
(46.4156 0.0167139 -6.66414)
(49.3324 0.115272 -6.25172)
(51.4072 0.129466 -4.69368)
(53.1191 0.0318393 -2.83501)
(54.0982 -0.163479 -1.27078)
(54.2267 -0.59234 0.454918)
(53.6107 -0.838227 1.46384)
(53.1368 -0.802774 1.50263)
(52.7625 -0.429325 1.06643)
(52.221 -0.22563 0.166323)
(52.5107 -0.376284 0.00336796)
(53.5554 -0.540501 0.751517)
(54.8888 -0.606656 1.8522)
(55.9556 -0.574922 3.33527)
(57.1957 -0.660307 3.84705)
(57.6263 -0.943835 5.79444)
(59.4629 -0.851232 7.00166)
(58.2907 -1.92661 8.55525)
(55.9607 -1.03109 6.81319)
(40.8087 -2.26592 17.8901)
(9.49783 -6.23953 -17.7381)
(-60.2494 -4.71081 -34.3317)
(-52.8035 -3.9256 -53.6645)
(40.0237 0.00260482 0.0212933)
(40.0693 0.00661014 0.0517133)
(40.1753 0.0127502 0.0911452)
(40.2845 0.0157145 0.131432)
(40.3738 0.0161447 0.171465)
(40.4435 0.0148651 0.210572)
(40.4981 0.0124165 0.247521)
(40.541 0.00938102 0.280727)
(40.5743 0.00629974 0.308009)
(40.5994 0.00350713 0.327518)
(40.6146 0.00108571 0.337048)
(40.6131 -0.000939616 0.335086)
(40.5868 -0.00359102 0.324246)
(40.5252 -0.00365188 0.302902)
(40.3919 -0.0107704 0.289737)
(40.1707 -0.0147461 0.250836)
(39.6957 -0.0144295 0.243847)
(39.1186 -0.0114818 0.099784)
(38.1944 -0.00692419 0.123959)
(37.6555 -0.00510796 0.0578126)
(37.5611 0.00620814 0.111232)
(37.5573 0.00304253 0.340149)
(37.4626 -0.00566431 0.534997)
(37.1912 0.0011569 0.648847)
(36.8191 0.0135004 0.692749)
(36.4529 0.00252853 0.624276)
(36.1066 -0.0229672 0.348581)
(35.9708 -0.0686598 -0.286902)
(36.4083 -0.127024 -1.27527)
(37.6132 -0.170028 -2.47196)
(40.6213 -0.141779 -4.17868)
(44.885 -0.00773027 -5.74292)
(48.7395 0.100364 -5.56209)
(51.3193 0.129453 -4.53956)
(53.2108 0.0429256 -3.1986)
(54.5953 -0.0893263 -1.71807)
(54.7228 -0.587245 -0.320052)
(54.1966 -0.889909 0.878319)
(53.6957 -0.862498 1.3524)
(53.0712 -0.546634 1.42152)
(52.1853 -0.291774 0.0958375)
(51.7751 -0.378816 -0.690496)
(51.7077 -0.517753 -0.39742)
(51.9941 -0.469689 0.551265)
(53.1525 -0.557519 1.75067)
(54.4815 -0.833791 1.381)
(55.2438 -1.10054 2.09103)
(58.2324 -1.33458 3.8182)
(59.2671 -1.79315 5.11332)
(58.6148 -1.48005 6.26729)
(53.6777 -3.58741 15.6769)
(38.676 -1.32963 15.6285)
(-41.9556 0.659025 -27.6736)
(-33.6455 -2.57989 -49.3816)
(40.0081 0.00257447 0.0258572)
(40.0145 0.00642973 0.0655732)
(40.066 0.0123717 0.102632)
(40.1065 0.0151042 0.136283)
(40.11 0.0152707 0.168852)
(40.0777 0.013721 0.200024)
(40.016 0.0110216 0.229557)
(39.931 0.00780909 0.257508)
(39.8298 0.00466656 0.283535)
(39.7188 0.00202447 0.307277)
(39.6013 6.62217e-05 0.328511)
(39.4784 -0.00107917 0.348217)
(39.343 -0.00155831 0.36848)
(39.1996 -0.00192181 0.398018)
(38.9884 -0.00348879 0.446155)
(38.8236 -0.012065 0.510184)
(38.1944 -0.0204831 0.74822)
(38.2894 -0.0181754 0.648786)
(37.9365 -0.00122319 0.532138)
(37.8178 0.00721323 0.419634)
(37.8645 0.00677708 0.427547)
(37.8621 0.00412003 0.580042)
(37.746 0.000256463 0.830062)
(37.4955 -0.000525217 1.09093)
(37.1374 -0.0028795 1.21627)
(36.6997 -0.0192014 1.07258)
(36.2131 -0.0619948 0.585067)
(35.855 -0.132096 -0.516668)
(36.352 -0.209404 -2.63748)
(38.225 -0.148525 -5.68275)
(40.4107 0.00036892 -8.51621)
(42.2375 0.111438 -9.39392)
(42.891 0.272971 -8.2808)
(42.6279 0.457102 -6.55663)
(41.9048 0.699387 -5.10549)
(40.1615 0.253638 -3.36114)
(39.4106 -0.324454 -0.321673)
(38.2159 -0.835434 1.04)
(36.7874 -1.13777 1.58576)
(36.6841 -1.20471 0.368418)
(38.0923 -1.1393 -0.758036)
(38.6393 -1.03213 -0.0129425)
(39.7161 -1.18886 1.42317)
(40.767 -1.18527 2.89932)
(42.6953 -1.46205 4.29619)
(45.36 -1.88964 6.01452)
(48.6684 -2.67134 7.69218)
(52.8769 -3.04227 8.95534)
(56.0251 -2.83043 9.26315)
(57.8181 -2.01336 11.2276)
(61.8634 -3.31955 22.208)
(79.8225 -6.52614 26.6021)
(84.1496 -9.62685 25.9476)
(82.5028 -14.3207 4.58301)
(40.0113 0.00257409 0.0257614)
(40.0195 0.00643112 0.0653001)
(40.0661 0.0123757 0.101967)
(40.0995 0.0151123 0.135328)
(40.0983 0.0152821 0.167648)
(40.063 0.0137343 0.19859)
(39.9994 0.0110358 0.227915)
(39.9136 0.00782396 0.255733)
(39.8125 0.00468153 0.281743)
(39.7022 0.00203937 0.305713)
(39.5854 8.26405e-05 0.327664)
(39.463 -0.0010659 0.348722)
(39.3276 -0.00154778 0.371853)
(39.1812 -0.00190216 0.403724)
(38.9696 -0.00359751 0.455047)
(38.7637 -0.0112996 0.54062)
(38.2401 -0.0192875 0.72132)
(38.2441 -0.0176139 0.71091)
(37.8934 -0.00225579 0.578171)
(37.7821 0.00706258 0.441189)
(37.826 0.00740863 0.415781)
(37.8187 0.00505919 0.549002)
(37.7024 0.00141052 0.792597)
(37.4457 0.0014702 1.06055)
(37.0535 0.000243661 1.19842)
(36.5252 -0.0148011 1.11525)
(35.8581 -0.0606314 0.695014)
(35.2498 -0.132715 -0.324777)
(35.2384 -0.206603 -2.13274)
(36.4742 -0.159777 -5.092)
(39.1862 -0.000123114 -8.33708)
(41.7025 0.11857 -9.44673)
(42.9579 0.292932 -8.45649)
(43.8567 0.490053 -6.95239)
(44.4832 0.727627 -5.28549)
(44.9456 0.795396 -2.81771)
(43.7389 0.295138 -1.17603)
(42.2353 -0.325224 -0.427135)
(42.1717 -0.576027 -0.389341)
(38.229 -0.866889 1.69018)
(35.9612 -0.469934 -0.118157)
(33.7814 -0.738469 -1.54676)
(33.5927 -1.24654 -1.78757)
(32.1543 -1.51945 -1.48358)
(29.6431 -2.09943 0.0966608)
(27.4531 -2.67503 1.72767)
(25.5455 -2.37545 1.80029)
(27.882 -2.10722 3.11742)
(32.1144 -1.72261 2.74824)
(41.3075 -2.02582 2.78861)
(56.0254 -2.36467 12.2495)
(82.0933 -4.56037 25.8903)
(103.062 -8.20377 35.2128)
(75.9322 -7.55021 -9.21264)
(40.0075 0.00251385 0.0316267)
(40.0131 0.00634041 0.0842883)
(40.0642 0.0120781 0.139302)
(40.1057 0.0147136 0.195229)
(40.1102 0.0148271 0.252885)
(40.0776 0.013219 0.310811)
(40.0127 0.0104388 0.368286)
(39.9208 0.00712807 0.425011)
(39.8083 0.00388541 0.480242)
(39.6813 0.00120504 0.5333)
(39.5439 -0.000628758 0.583822)
(39.3988 -0.00135032 0.632879)
(39.2455 -0.000928854 0.682509)
(39.0863 0.00037915 0.742175)
(38.9008 0.00105374 0.814128)
(38.6932 0.000119426 0.927217)
(38.3609 -0.015116 1.10358)
(38.2289 -0.0135855 0.884283)
(37.7265 0.00269536 0.588455)
(37.4973 0.0077846 0.406315)
(37.5004 0.00508646 0.402017)
(37.5175 0.00272971 0.617348)
(37.4358 0.00160416 1.0085)
(37.2053 -0.00177488 1.44402)
(36.7876 -0.0152343 1.76671)
(36.1208 -0.0446517 1.86753)
(35.1613 -0.0975213 1.5469)
(34.2938 -0.122084 0.0769982)
(33.9709 -0.111504 -2.94584)
(34.3658 -0.0369065 -7.08613)
(34.4159 0.0598158 -9.77156)
(33.5162 0.128381 -9.518)
(31.7642 0.247364 -7.64782)
(29.4887 0.372579 -5.84057)
(27.7666 0.265478 -4.104)
(27.2236 -0.220182 -1.23147)
(26.688 -1.23175 0.901678)
(27.8319 -2.01755 3.97229)
(29.1163 -3.49554 2.99954)
(31.0729 -3.07588 2.16452)
(33.0004 -1.26941 -0.59849)
(33.387 -0.438458 -0.0276639)
(33.9432 -0.347218 1.94541)
(33.1588 -0.968745 4.37115)
(33.0251 -1.59318 6.356)
(34.3927 -2.20728 7.74003)
(35.9145 -2.80685 7.64378)
(39.4016 -2.42719 7.36616)
(45.4225 -2.72285 7.68459)
(50.8031 -1.81744 7.68555)
(56.6602 -0.819763 9.81318)
(69.8325 -4.40213 9.25634)
(88.3325 -8.62554 4.00746)
(96.6569 -9.59642 -9.66894)
(40.0106 0.00251349 0.0315282)
(40.0178 0.00634171 0.0841388)
(40.0642 0.0120819 0.138916)
(40.0989 0.0147213 0.194692)
(40.0988 0.014838 0.252257)
(40.0631 0.0132316 0.310119)
(39.9963 0.0104521 0.367548)
(39.9039 0.00714164 0.424251)
(39.7918 0.00389946 0.4795)
(39.6662 0.00121953 0.532668)
(39.5306 -0.000615113 0.583545)
(39.3877 -0.00133512 0.633261)
(39.2363 -0.00091407 0.684282)
(39.0772 0.000381987 0.745591)
(38.8888 0.00108579 0.82309)
(38.6703 0.000113148 0.939351)
(38.3242 -0.0145628 1.13255)
(38.2002 -0.0139267 1.02783)
(37.7135 0.00206044 0.65174)
(37.4715 0.00814581 0.421141)
(37.4587 0.00608443 0.39109)
(37.4619 0.00415368 0.588806)
(37.3597 0.0024893 0.982255)
(37.1263 -0.00271599 1.43714)
(36.6848 -0.0150178 1.77964)
(35.9255 -0.0437939 1.95627)
(34.7864 -0.102259 1.68692)
(33.789 -0.126806 0.19264)
(33.4711 -0.106076 -2.80023)
(33.8696 -0.0285772 -6.98301)
(34.3025 0.0613217 -9.7962)
(33.722 0.124752 -9.47178)
(32.3442 0.227205 -7.24323)
(30.8886 0.44076 -4.98494)
(29.6086 0.571239 -3.65347)
(30.8413 0.423493 -0.944734)
(30.5859 -0.527203 0.61793)
(30.7701 -1.31574 0.538353)
(30.2513 -2.0029 2.87967)
(23.7928 -1.98867 7.9392)
(28.9784 -0.738278 0.135345)
(27.3685 -0.215859 -3.35862)
(26.1745 -0.935028 -2.7966)
(22.9539 -2.32927 -1.6097)
(16.5795 -2.53666 0.278463)
(13.1709 -1.13067 -2.06963)
(11.3696 2.27246 -5.8082)
(14.3533 4.12542 -9.10388)
(20.1638 3.6533 -10.1216)
(21.4638 2.95394 -12.154)
(28.7819 0.719666 -10.3094)
(48.1608 -3.84162 -8.96081)
(70.5075 -9.19751 -21.3225)
(35.4457 -1.5316 -43.4531)
(40.0077 0.00247838 0.0382145)
(40.0129 0.00629401 0.10501)
(40.0626 0.0120043 0.173337)
(40.1021 0.0145844 0.240921)
(40.1048 0.0146521 0.308596)
(40.0706 0.0130202 0.375181)
(40.0043 0.0102433 0.440741)
(39.9114 0.00696358 0.506116)
(39.7985 0.00378346 0.571714)
(39.6721 0.00119446 0.638067)
(39.5369 -0.000486806 0.705845)
(39.3962 -0.00100963 0.776214)
(39.2523 -0.000225722 0.850814)
(39.105 0.00156999 0.931589)
(38.9537 0.00414869 1.02412)
(38.7664 0.00158605 1.13209)
(38.5704 0.00175125 1.26996)
(38.2789 0.0018945 1.47138)
(37.7373 0.0273763 0.901218)
(37.1941 0.00337812 0.603473)
(36.939 -0.00215813 0.507366)
(36.8751 -0.000861022 0.684184)
(36.7852 0.0066913 1.18756)
(36.5473 0.00574422 1.84997)
(36.1036 -0.0154912 2.47725)
(35.2965 -0.0391844 2.97418)
(34.0552 -0.0562164 2.78467)
(32.6989 -0.0311706 0.973318)
(31.4544 0.0155532 -2.61119)
(30.0669 0.0364568 -6.54459)
(28.1041 0.0468297 -8.18539)
(25.5915 0.0840688 -7.258)
(22.8452 0.169089 -5.50299)
(20.4674 0.307251 -4.47512)
(19.3557 0.460935 -3.68274)
(18.1228 -0.121731 -0.181945)
(19.5301 -1.49926 6.30312)
(21.3903 -1.60804 6.74815)
(22.6433 -4.22948 5.63043)
(26.6951 -4.63021 3.50462)
(29.6128 -1.26508 -2.04429)
(29.5212 0.18139 -1.65742)
(29.1268 0.532347 1.43047)
(28.3403 -0.501537 4.37665)
(27.956 -1.42836 6.40395)
(28.2908 -1.82575 7.75281)
(27.7261 -0.621672 5.75689)
(31.2316 0.870272 3.95044)
(29.3037 0.990572 3.42058)
(39.0624 0.481284 4.02308)
(40.1318 1.84003 5.21747)
(45.2276 -4.00679 4.16752)
(75.3016 -8.98608 5.71767)
(76.3806 -8.67996 -2.16294)
(40.0107 0.00247802 0.0380722)
(40.0177 0.00629529 0.104812)
(40.0626 0.012008 0.172763)
(40.0953 0.0145919 0.240126)
(40.0934 0.0146627 0.307715)
(40.0562 0.0130325 0.37431)
(39.9881 0.0102563 0.439968)
(39.8947 0.00697682 0.505509)
(39.7823 0.00379712 0.571334)
(39.6572 0.00120865 0.637931)
(39.5239 -0.00047458 0.705968)
(39.3856 -0.000995829 0.776599)
(39.2437 -0.000213645 0.851121)
(39.0989 0.00160022 0.932752)
(38.9396 0.00413684 1.02512)
(38.7615 0.00159444 1.13548)
(38.5242 0.00184143 1.28863)
(38.3886 0.00400368 1.3996)
(37.8766 0.0372234 1.01684)
(37.2447 0.00445133 0.6911)
(36.9327 -0.00183436 0.541351)
(36.8115 0.00161986 0.691428)
(36.6649 0.00626359 1.17038)
(36.4566 0.002711 1.8181)
(35.9908 -0.0165357 2.4793)
(35.0859 -0.0431256 2.99161)
(33.8561 -0.0589077 2.6087)
(32.624 -0.0291374 0.70015)
(31.5312 0.0151521 -2.74273)
(30.2525 0.0345997 -6.51548)
(28.4166 0.0452378 -8.21127)
(26.0426 0.0809264 -7.30313)
(23.6419 0.156031 -5.31367)
(21.8518 0.327518 -3.90372)
(21.1089 0.769219 -3.53133)
(22.6642 -0.533324 -0.0872967)
(24.5202 -0.456026 0.649467)
(25.2516 -0.911092 0.411784)
(24.1011 -2.44313 4.31182)
(22.0862 -2.08771 6.52493)
(25.8411 -0.317507 -2.34387)
(22.6337 0.138414 -5.12467)
(17.966 -0.0346319 -1.98538)
(15.855 -0.820019 -0.683939)
(14.4336 -0.697721 -2.13232)
(14.8449 1.82953 -4.63895)
(16.8805 5.19205 -6.11374)
(20.9139 6.48857 -6.85737)
(25.3704 5.38378 -4.95351)
(30.3679 1.82366 -7.3025)
(20.2538 -1.47919 -5.64381)
(32.5391 -8.1217 -8.59952)
(-96.7508 -8.92025 31.015)
(-59.7115 7.70464 -46.4534)
(40.0077 0.00237447 0.0444112)
(40.0128 0.00615862 0.125514)
(40.0606 0.0115256 0.206401)
(40.0982 0.0139368 0.286554)
(40.0999 0.0139559 0.367659)
(40.0658 0.0123405 0.448937)
(40.0004 0.00963031 0.530906)
(39.9091 0.00645 0.61481)
(39.7985 0.00339283 0.701291)
(39.6749 0.000909936 0.790841)
(39.5433 -0.000690015 0.883771)
(39.407 -0.00120746 0.980286)
(39.2676 -0.000806447 1.08002)
(39.1263 0.00112296 1.18253)
(38.9782 0.00175311 1.28649)
(38.8246 0.00565988 1.40143)
(38.6554 0.00174169 1.50692)
(38.5744 0.0222678 1.79343)
(38.1889 0.0212691 1.55281)
(37.6837 0.000904276 1.21795)
(37.0058 -0.00906918 1.0537)
(36.6744 -0.0165142 1.05234)
(36.4014 0.00384635 1.38322)
(36.0761 0.0170033 2.22057)
(35.5694 -0.00605846 3.22154)
(34.7977 -0.0116511 4.19927)
(33.493 0.016604 4.45008)
(31.6897 0.0587437 2.72217)
(29.4673 0.0912241 -0.614615)
(26.7166 0.0744681 -3.93983)
(23.5353 0.0639137 -5.20641)
(20.2091 0.127956 -4.30813)
(16.8497 0.296735 -2.89458)
(14.0453 0.719295 -2.47634)
(11.7647 1.32062 -1.33846)
(-12.2557 -0.012172 0.853345)
(7.62538 -1.1128 3.86239)
(16.025 -2.12339 5.04119)
(18.2178 -3.54588 9.34832)
(20.6278 -3.70225 2.70124)
(26.6931 -0.913682 -5.69882)
(23.5245 1.51658 -3.15585)
(21.5768 1.3134 0.0169633)
(20.8275 0.135857 1.96816)
(20.9335 -0.944816 4.47242)
(21.1594 -0.848053 6.96718)
(22.8492 1.07049 6.01231)
(26.3174 2.36212 3.9028)
(27.7058 3.02599 2.0489)
(28.7712 2.47925 0.14295)
(26.5653 0.823655 2.80239)
(31.4828 -0.116485 4.99764)
(50.4374 1.53612 3.09776)
(37.8962 1.72848 -13.2522)
(40.0106 0.00237416 0.0442451)
(40.0172 0.00615974 0.125252)
(40.0604 0.011529 0.20576)
(40.0915 0.0139437 0.285712)
(40.0889 0.0139649 0.36678)
(40.0519 0.0123501 0.448157)
(39.9848 0.00964041 0.530344)
(39.893 0.00646016 0.614556)
(39.7829 0.00340319 0.701395)
(39.6606 0.000920587 0.791296)
(39.5307 -0.000681668 0.884496)
(39.3964 -0.00119778 0.981098)
(39.2592 -0.000791974 1.08059)
(39.1184 0.001123 1.18249)
(38.9704 0.00185118 1.28672)
(38.8136 0.00503099 1.39907)
(38.6576 0.00406167 1.53067)
(38.5653 0.0129997 1.72281)
(38.5204 0.0463173 1.82292)
(38.2154 -0.00672184 1.43228)
(37.3209 -0.0108061 1.20211)
(36.7494 -0.0137538 1.17108)
(36.3557 0.000199983 1.42094)
(35.9772 0.0153894 2.21324)
(35.432 -0.00759135 3.1993)
(34.6201 -0.0137485 4.11785)
(33.4188 0.0123801 4.0954)
(31.8304 0.0518545 2.43722)
(29.8032 0.0855046 -0.634186)
(27.128 0.0714656 -3.89957)
(24.0477 0.0620076 -5.30896)
(20.9963 0.121718 -4.39598)
(18.3746 0.284483 -2.81663)
(16.6993 0.925372 -2.15266)
(17.7501 3.60829 -2.20757)
(21.7137 3.52797 -2.26754)
(25.198 3.65391 -1.30061)
(25.4386 1.59343 1.10222)
(24.1405 -0.517568 4.53446)
(20.2253 0.691669 7.05135)
(23.481 0.426595 -1.28426)
(15.4091 1.98036 -0.783414)
(14.1707 1.04816 -0.647607)
(16.291 1.23023 -3.17393)
(17.3079 1.50337 -4.8511)
(17.3081 1.59511 -4.80267)
(18.7872 3.26951 -4.54358)
(22.3376 4.17724 -4.70166)
(25.939 3.59536 -4.42267)
(28.9611 1.69477 -4.88953)
(24.1614 1.15956 -5.63572)
(35.2711 -2.42542 7.70577)
(63.4488 -1.83142 18.3065)
(61.8043 -0.541549 5.9509)
(40.0077 0.00231531 0.0501474)
(40.0127 0.00605107 0.146062)
(40.0593 0.0113853 0.239784)
(40.0958 0.013759 0.332908)
(40.0977 0.0137782 0.427708)
(40.0647 0.0122203 0.523553)
(40.0013 0.00962504 0.621184)
(39.9128 0.00660723 0.722066)
(39.8054 0.00373374 0.826932)
(39.6853 0.00143441 0.93613)
(39.5571 -1.87801e-05 1.0496)
(39.4236 -0.00052833 1.16684)
(39.2862 -8.5113e-05 1.28662)
(39.1455 0.00127812 1.40892)
(38.999 0.00277245 1.53041)
(38.8552 0.00634554 1.66185)
(38.7103 0.00624405 1.79363)
(38.6228 0.0196121 1.9586)
(38.5492 0.00984873 2.09744)
(38.4311 0.0198486 2.0293)
(38.1302 0.0254056 1.95822)
(37.7833 0.032148 2.12634)
(36.978 0.00890297 2.23009)
(36.4269 0.0153132 2.80003)
(35.7123 -0.0178902 3.96528)
(34.9174 -0.0168348 5.31507)
(33.8357 0.0471922 6.22744)
(31.9761 0.101556 5.12149)
(29.0946 0.109189 2.18654)
(25.2872 0.0987206 -0.690263)
(21.3451 0.107103 -1.65675)
(17.7492 0.178829 -0.869689)
(14.1397 0.414826 0.492292)
(11.6465 1.08071 1.86454)
(-9.29208 0.464652 3.45119)
(-10.4082 -0.0192368 0.649832)
(-10.038 -0.410405 -2.18159)
(-2.00489 1.67514 -7.15507)
(6.95719 -0.338218 3.46853)
(4.34177 -1.02853 -4.90629)
(15.2634 -0.349406 -8.61057)
(10.9214 0.751993 -5.42073)
(7.84206 0.578351 -2.62542)
(2.53355 -0.417604 2.73253)
(2.52387 -1.36856 6.1529)
(4.06146 -0.472095 6.96708)
(7.44122 0.0126764 7.71758)
(9.03369 -0.87611 8.52551)
(13.1695 -0.649194 7.21784)
(15.1473 -1.23745 2.9251)
(12.5501 -2.03126 6.08786)
(15.9571 3.10034 2.4262)
(-42.574 5.93248 -3.96338)
(-29.7623 3.29617 -5.09115)
(40.0105 0.00231499 0.0499576)
(40.0171 0.00605212 0.145829)
(40.0592 0.0113885 0.239111)
(40.0894 0.0137656 0.332011)
(40.0869 0.0137869 0.426791)
(40.0512 0.0122297 0.522775)
(39.9862 0.00963514 0.620669)
(39.8973 0.0066175 0.721895)
(39.7905 0.00374431 0.827112)
(39.6717 0.001445 0.936619)
(39.5451 -9.66918e-06 1.05027)
(39.4134 -0.000516874 1.16748)
(39.2777 -7.26056e-05 1.28728)
(39.1379 0.00128159 1.40873)
(38.9933 0.00279388 1.53222)
(38.8473 0.00629076 1.66188)
(38.7132 0.00654198 1.8027)
(38.6122 0.0189137 1.95798)
(38.5544 0.01093 2.08515)
(38.469 0.0242422 2.12617)
(38.1942 0.0329047 2.11979)
(37.768 0.0437233 2.24284)
(37.069 -0.0128546 2.59893)
(36.4684 0.0156798 2.90759)
(35.6104 -0.0155613 3.89727)
(34.7671 -0.0153321 5.18326)
(33.6511 0.0508485 5.70439)
(32.0162 0.0878927 4.71118)
(29.449 0.0987456 2.36952)
(25.9069 0.0910497 -0.499157)
(22.1093 0.105885 -1.8572)
(18.8337 0.175224 -1.21454)
(16.2886 0.453572 0.0147867)
(15.1755 2.00578 1.16084)
(18.3998 5.59735 3.2096)
(-9.63255 -0.111384 0.743912)
(4.47182 2.68611 -2.01536)
(12.8802 3.65851 0.0927014)
(17.2405 1.70566 4.89647)
(17.2719 0.983387 6.74539)
(16.8001 1.27789 3.97389)
(15.8564 1.99869 0.536952)
(17.8006 2.11982 -3.16877)
(20.1019 2.59846 -5.46469)
(20.159 2.50954 -4.98147)
(19.0384 1.54606 -3.42811)
(19.7619 1.3055 -2.62054)
(23.1965 1.49049 -2.51469)
(25.536 1.53152 -1.73711)
(28.6747 0.88704 -2.2026)
(25.8346 -0.418444 -1.06536)
(30.8753 3.33006 3.6295)
(41.3477 7.67972 0.551734)
(45.9625 12.7082 -8.88275)
(40.0076 0.002188 0.0554308)
(40.0133 0.00594831 0.166484)
(40.0591 0.0108781 0.272662)
(40.0951 0.0130588 0.378255)
(40.0977 0.0130437 0.486191)
(40.067 0.0115399 0.596109)
(40.007 0.00905441 0.709002)
(39.9227 0.00617054 0.826526)
(39.8202 0.00341089 0.949485)
(39.7049 0.00117803 1.07818)
(39.581 -0.000292079 1.21238)
(39.4509 -0.000893444 1.35141)
(39.3163 -0.000529774 1.49455)
(39.1775 0.000557457 1.64162)
(39.0369 0.00305812 1.793)
(38.8969 0.00568169 1.95328)
(38.7675 0.0113413 2.11951)
(38.6598 0.0184683 2.30015)
(38.5627 0.0240235 2.45375)
(38.4586 0.0376878 2.61367)
(38.308 0.0497303 2.80851)
(38.1023 0.068605 3.15313)
(37.8286 0.0600212 3.59274)
(37.39 0.0632003 4.0121)
(36.6898 -0.00705212 4.91681)
(35.7574 -0.0312755 6.25879)
(34.9369 0.023712 7.45536)
(34.0045 0.129198 7.78383)
(31.4934 0.249988 6.2534)
(26.7802 0.238306 3.62205)
(22.1652 0.161506 1.9084)
(18.6284 0.147677 1.99252)
(15.9892 0.27243 3.34096)
(14.6905 0.842196 6.49565)
(10.4949 1.48424 13.1035)
(-7.35871 -0.117108 0.553709)
(8.31552 -2.61255 -9.32659)
(-0.456592 -2.47769 -11.504)
(3.18405 -2.09104 -8.60991)
(9.92043 -2.70502 -9.89736)
(14.7022 -2.68483 -11.3553)
(17.2736 -1.46808 -9.64884)
(18.3938 0.104906 -6.39971)
(18.1752 1.29204 -2.91954)
(18.7246 1.25202 -1.41612)
(20.9799 0.413335 -1.17457)
(21.7314 -0.570477 -0.0117968)
(22.8625 -1.00611 0.870252)
(25.2447 -0.927629 1.54789)
(28.2929 -0.26764 1.47759)
(29.621 -0.340245 2.6407)
(27.5283 1.04234 9.65134)
(34.1581 2.04311 9.13504)
(25.6912 3.67074 8.82415)
(40.0102 0.00218773 0.0552367)
(40.0173 0.0059492 0.166251)
(40.0588 0.010881 0.272024)
(40.0888 0.0130648 0.377429)
(40.0874 0.0130522 0.485389)
(40.0541 0.0115497 0.595493)
(39.9925 0.00906508 0.708701)
(39.9079 0.00617985 0.826612)
(39.8059 0.00341857 0.949964)
(39.6918 0.00118603 1.079)
(39.5694 -0.000285014 1.21344)
(39.4409 -0.000888501 1.35264)
(39.3078 -0.000525462 1.49593)
(39.171 0.00056147 1.64327)
(39.0317 0.00305304 1.79577)
(38.8945 0.00568656 1.95673)
(38.7693 0.0112991 2.12824)
(38.6619 0.0185974 2.30657)
(38.5683 0.0238644 2.47606)
(38.4608 0.0377554 2.63257)
(38.3157 0.0503408 2.84456)
(38.0782 0.0697259 3.16957)
(37.84 0.0648855 3.81202)
(37.5053 0.071801 4.11086)
(36.7065 0.0152219 4.86474)
(35.6931 -0.0291184 6.08335)
(34.8079 0.0248529 7.24766)
(33.4059 0.125748 7.21218)
(31.2908 0.215707 5.88019)
(27.8927 0.195545 3.62154)
(23.522 0.147155 1.86533)
(19.8988 0.144905 1.5857)
(17.6553 0.289547 2.34337)
(15.9278 1.97475 4.93857)
(20.1024 4.89406 11.2749)
(19.1337 1.8918 10.2389)
(18.4493 1.7633 3.73394)
(12.7566 2.37018 -1.54516)
(14.2257 2.01763 3.10942)
(16.5776 0.666157 6.52525)
(18.0543 0.458071 3.62327)
(20.1602 1.48758 -0.972245)
(22.4902 2.35484 -3.23366)
(24.6379 3.22355 -3.36752)
(25.1467 3.26979 -2.29579)
(24.6036 2.26003 -1.19904)
(25.3271 1.48344 -0.520238)
(27.339 0.976789 -0.347166)
(29.4769 0.67773 0.876745)
(32.7438 1.1087 1.92705)
(33.8947 1.20427 1.6388)
(33.2655 2.15875 5.64656)
(53.8175 2.91639 8.07896)
(42.9643 5.07914 3.06342)
(40.0074 0.00212443 0.0602428)
(40.0138 0.005842 0.186356)
(40.0596 0.0107731 0.304642)
(40.0961 0.0129495 0.422352)
(40.1007 0.0129718 0.543128)
(40.0733 0.0115679 0.666982)
(40.018 0.00924181 0.795174)
(39.9395 0.00655582 0.929529)
(39.8433 0.00401142 1.07096)
(39.7343 0.0019822 1.21986)
(39.6162 0.000701597 1.37615)
(39.4915 0.000288886 1.5394)
(39.362 0.000812196 1.70951)
(39.2296 0.00235366 1.88672)
(39.0968 0.004986 2.07334)
(38.9672 0.00907233 2.26962)
(38.8478 0.0153744 2.48009)
(38.7432 0.0235742 2.69932)
(38.6495 0.034401 2.927)
(38.5582 0.0487498 3.18028)
(38.4692 0.0667979 3.49141)
(38.3737 0.0906597 3.92047)
(38.3016 0.0938083 4.52897)
(38.1494 0.140016 5.27591)
(37.9552 0.0237348 6.18084)
(36.8999 -0.0111825 7.26009)
(36.085 0.035104 8.38563)
(36.1082 0.064393 9.16213)
(35.5764 0.301909 9.55578)
(33.1064 0.593474 8.88895)
(27.9064 0.487138 6.28196)
(21.9429 0.277408 4.78478)
(19.0834 0.256596 5.00499)
(16.6158 0.755745 7.44592)
(18.0035 1.27126 14.0579)
(16.1305 -0.247068 7.77699)
(17.3318 -1.97992 3.51431)
(16.2574 -2.95637 -1.67896)
(16.2441 -2.8671 -4.78708)
(18.7959 -2.47592 -7.24452)
(21.8812 -1.93769 -8.43108)
(24.3859 -1.01546 -7.90403)
(26.5463 -0.095918 -6.62218)
(28.4153 0.483877 -4.56267)
(30.5833 0.631979 -2.80804)
(32.297 0.0732888 -1.71549)
(32.9681 -0.634534 -0.193098)
(34.0396 -1.09818 1.51665)
(35.4044 -0.757271 3.23093)
(38.1473 -0.490294 5.11216)
(40.7152 -0.814352 6.89255)
(40.7945 -1.21536 10.3996)
(60.5869 -0.531353 14.2807)
(43.1272 0.711213 6.56029)
(40.01 0.00212415 0.0600452)
(40.0178 0.00584282 0.186215)
(40.0595 0.010776 0.304101)
(40.0901 0.0129554 0.421634)
(40.0908 0.0129803 0.542469)
(40.061 0.0115778 0.666564)
(40.0043 0.00925293 0.795137)
(39.9254 0.00656585 0.929953)
(39.8297 0.00401986 1.07187)
(39.7219 0.0019911 1.22124)
(39.6053 0.000710855 1.37798)
(39.4822 0.000291006 1.54172)
(39.3545 0.000807831 1.71239)
(39.2242 0.00235485 1.89067)
(39.0937 0.00497682 2.07818)
(38.9675 0.00905553 2.27722)
(38.8518 0.0153479 2.48889)
(38.7516 0.0235885 2.71141)
(38.6632 0.0344386 2.94586)
(38.5776 0.0486702 3.19909)
(38.4917 0.0670552 3.51343)
(38.3873 0.0882326 3.93287)
(38.3214 0.104445 4.55708)
(38.1754 0.116772 5.23575)
(38.129 0.129639 6.20955)
(37.3628 0.01484 7.20731)
(36.9946 -0.0572638 8.3285)
(36.267 0.114748 9.09314)
(34.98 0.389812 9.05656)
(33.0196 0.509054 8.13169)
(29.4905 0.464489 6.76777)
(24.7712 0.215704 5.1656)
(20.4354 0.257771 4.92694)
(18.0802 0.846378 6.39099)
(20.8776 2.27428 9.56669)
(25.6636 1.97049 9.56069)
(26.2985 0.863593 5.23526)
(21.608 0.275434 0.65906)
(18.676 0.100553 0.444181)
(20.0281 -0.337451 0.513652)
(22.8248 0.100488 -2.29729)
(25.4719 1.00999 -4.37929)
(27.5777 1.56596 -4.92209)
(29.2108 1.79028 -3.88626)
(29.6952 1.64845 -2.30707)
(29.6236 0.946749 -0.99798)
(30.2242 0.350543 0.228696)
(31.1075 -0.492395 1.94163)
(32.9727 -0.742993 3.18667)
(36.2299 -0.465896 3.77143)
(38.8495 -0.709602 4.41137)
(39.7699 -1.2365 7.27453)
(58.4544 -0.979729 12.2442)
(46.0339 4.0402 7.98787)
(40.0073 0.00199385 0.0646083)
(40.0152 0.00583463 0.205593)
(40.0617 0.0103654 0.335455)
(40.0995 0.01236 0.464778)
(40.1071 0.0123834 0.597955)
(40.0846 0.0110865 0.735447)
(40.0357 0.00893645 0.87881)
(39.9648 0.00645778 1.03007)
(39.877 0.00412298 1.19039)
(39.7766 0.00228643 1.36045)
(39.667 0.00119967 1.54056)
(39.5507 0.00102269 1.73076)
(39.4299 0.0018801 1.93142)
(39.3076 0.00397623 2.14342)
(39.1866 0.00734145 2.36833)
(39.0712 0.0127578 2.60769)
(38.9652 0.0197709 2.86241)
(38.8755 0.030174 3.13098)
(38.8071 0.0427099 3.41877)
(38.7629 0.0576544 3.73249)
(38.7531 0.0742365 4.11514)
(38.7974 0.0914676 4.58399)
(38.8824 0.0739212 5.26981)
(38.9806 0.115396 6.07772)
(39.2469 0.166306 7.21896)
(38.7169 0.0861113 8.48751)
(38.1885 0.120247 9.18162)
(37.7296 0.144968 10.1919)
(37.3948 0.188988 11.223)
(36.9849 0.354574 12.3798)
(35.3475 0.511628 12.7215)
(31.4124 0.614859 11.7192)
(26.5258 0.595378 9.34728)
(22.3146 0.637695 8.22091)
(22.0898 0.76102 8.99085)
(23.3373 0.20072 6.80977)
(23.6312 -0.720684 2.84188)
(23.3727 -1.34228 -0.537492)
(23.6574 -1.46754 -3.10719)
(24.9926 -1.2637 -5.07462)
(26.7652 -0.703548 -6.09295)
(28.6623 0.0849427 -6.15539)
(30.9329 0.599982 -5.87047)
(33.1068 0.729938 -5.27091)
(34.9558 0.573977 -4.51031)
(36.1994 -0.0034684 -3.4433)
(37.042 -0.771051 -2.28253)
(38.1357 -1.40366 -0.979976)
(39.36 -1.7766 0.675423)
(41.5095 -2.47867 2.99447)
(44.9631 -3.67139 5.08379)
(45.9064 -3.65441 5.71305)
(58.2017 -2.66801 10.7672)