/*--------------------------------*- C++ -*----------------------------------*\
| =========                 |                                                 |
| \\      /  F ield         | OpenFOAM: The Open Source CFD Toolbox           |
|  \\    /   O peration     | Version:  4.1                                   |
|   \\  /    A nd           | Web:      www.OpenFOAM.org                      |
|    \\/     M anipulation  |                                                 |
\*---------------------------------------------------------------------------*/
FoamFile
{
    version     2.0;
    format      ascii;
    class       surfaceScalarField;
    location    "0";
    object      phi;
}
// * * * * * * * * * * * * * * * * * * * * * * * * * * * * * * * * * * * * * //

dimensions      [0 3 -1 0 0 0 0];

internalField   nonuniform List<scalar> 
11516
(
1.00005e+07
1.94466
-462.957
1.00009e+07
1.08988
-481.845
1.00014e+07
0.970333
-519.187
1.0002e+07
0.974174
-576.362
1.00027e+07
1.0004
-654.952
1.00034e+07
1.03235
-756.888
1.00043e+07
1.06871
-884.282
1.00053e+07
1.11263
-1039.4
1.00067e+07
1.16909
-1324.21
1.00082e+07
1.24368
-1539.79
1.00099e+07
1.34069
-1685.79
1.0012e+07
1.46087
-2159.93
1.00143e+07
1.59855
-2255.53
1.0017e+07
1.74043
-2762.52
1.00201e+07
1.86738
-3063.18
1.00234e+07
1.95886
-3333.61
1.00271e+07
1.9994
-3742.78
1.00308e+07
1.98363
-3651.5
1.00346e+07
1.91656
-3821.68
1.00382e+07
1.81167
-3614.74
1.00412e+07
1.68749
-3005.74
1.00438e+07
1.56257
-2593.49
1.00451e+07
1.44798
-1399.5
1.00458e+07
1.34174
-684.517
1.00451e+07
1.2335
677.075
1.00437e+07
1.11443
1391.8
1.00411e+07
0.98657
2585.28
1.00381e+07
0.858442
2996.79
1.00345e+07
0.740784
3604.79
1.00307e+07
0.64004
3810.47
1.00271e+07
0.557935
3638.78
1.00233e+07
0.493438
3728.23
1.002e+07
0.444546
3316.89
1.0017e+07
0.408943
3043.86
1.00142e+07
0.384274
2740.1
1.0012e+07
0.367874
2229.39
1.00099e+07
0.356625
2129.33
1.00082e+07
0.347148
1649.8
1.00067e+07
0.335858
1497.24
1.00054e+07
0.3195
1273.64
1.00045e+07
0.295565
978.987
1.00036e+07
0.262369
811.779
1.0003e+07
0.219493
669.519
1.00024e+07
0.167963
549.324
1.0002e+07
0.110543
448.324
1.00016e+07
0.0516802
363.69
1.00013e+07
-0.00288086
292.818
1.00011e+07
-0.0468696
233.351
1.00009e+07
-0.0746216
183.193
1.00008e+07
-0.0824899
140.488
1.00006e+07
-0.0702223
103.589
1.00006e+07
-0.0420576
71.0251
1.00005e+07
-0.0080124
41.4556
0.0111553
13.632
1.00005e+07
-463.815
1.00009e+07
-482.523
1.00014e+07
-519.847
1.0002e+07
-577.034
1.00027e+07
-655.638
1.00034e+07
-757.59
1.00043e+07
-885.003
1.00053e+07
-1040.14
1.00067e+07
-1324.97
1.00082e+07
-1540.59
1.00099e+07
-1686.64
1.0012e+07
-2160.83
1.00143e+07
-2256.5
1.0017e+07
-2763.58
1.00201e+07
-3064.33
1.00234e+07
-3334.85
1.00271e+07
-3744.1
1.00308e+07
-3652.86
1.00346e+07
-3823.07
1.00382e+07
-3616.13
1.00412e+07
-3007.08
1.00438e+07
-2594.75
1.00451e+07
-1400.68
1.00458e+07
-685.597
1.00451e+07
676.092
1.00437e+07
1390.91
1.00411e+07
2584.47
1.00381e+07
2996.05
1.00345e+07
3604.13
1.00307e+07
3809.88
1.00271e+07
3638.26
1.00233e+07
3727.77
1.002e+07
3316.48
1.0017e+07
3043.49
1.00142e+07
2739.76
1.0012e+07
2229.08
1.00099e+07
2129.04
1.00082e+07
1649.52
1.00067e+07
1496.97
1.00054e+07
1273.37
1.00045e+07
978.736
1.00036e+07
811.542
1.0003e+07
669.302
1.00024e+07
549.132
1.0002e+07
448.162
1.00016e+07
363.563
1.00013e+07
292.728
1.00011e+07
233.299
1.00009e+07
183.174
1.00008e+07
140.495
1.00006e+07
103.612
1.00006e+07
71.0517
1.00005e+07
41.4754
13.637
1.00004e+07
1.08709
-911.798
1.00009e+07
0.41236
-948.08
1.00014e+07
0.310732
-1021.59
1.00019e+07
0.302526
-1134.46
1.00026e+07
0.314053
-1289.82
1.00033e+07
0.33003
-1491.62
1.00041e+07
0.34845
-1744.32
1.00053e+07
0.371311
-2252.85
1.00064e+07
0.401727
-2421.29
1.00078e+07
0.442698
-2952.87
1.00096e+07
0.495783
-3447.95
1.00115e+07
0.558954
-4102.45
1.0014e+07
0.625247
-4705.32
1.00167e+07
0.682911
-5536.62
1.00198e+07
0.718302
-6162.46
1.00234e+07
0.720602
-6935.67
1.0027e+07
0.685355
-7391.02
1.0031e+07
0.616644
-7650.01
1.00349e+07
0.525421
-7726.24
1.00386e+07
0.429794
-7336.99
1.0042e+07
0.348217
-6423
1.00446e+07
0.294894
-5171.25
1.00465e+07
0.269764
-3329.55
1.00468e+07
0.261451
-1016.4
1.00465e+07
0.249768
992.05
1.00445e+07
0.221304
3304.73
1.00421e+07
0.175963
5045.07
1.00385e+07
0.124907
6496.2
1.00349e+07
0.0812756
7207.61
1.00309e+07
0.0515638
7795.17
1.0027e+07
0.0356534
7616.07
1.00233e+07
0.0305167
7353.83
1.00197e+07
0.032682
6894.68
1.00167e+07
0.0392013
6116.92
1.00139e+07
0.0477632
5485.56
1.00115e+07
0.0563076
4647.52
1.00096e+07
0.0630948
4036.38
1.00079e+07
0.0664255
3371.72
1.00065e+07
0.064913
2864.13
1.00054e+07
0.0577492
2317.11
1.00043e+07
0.0445485
2129.65
1.00035e+07
0.0256391
1597.67
1.00028e+07
0.002001
1316.08
1.00023e+07
-0.0245884
1078.76
1.00019e+07
-0.0514359
879.729
1.00015e+07
-0.0751885
713.245
1.00013e+07
-0.0921893
574.033
1.0001e+07
-0.0990957
457.36
1.00009e+07
-0.0936941
359.031
1.00007e+07
-0.0757737
275.347
1.00006e+07
-0.0478179
203.044
1.00005e+07
-0.0154244
139.219
1.00005e+07
0.0117819
81.247
0.0161059
26.7044
1.00004e+07
-911.93
1.00009e+07
-948.194
1.00014e+07
-1021.69
1.00019e+07
-1134.56
1.00026e+07
-1289.91
1.00033e+07
-1491.71
1.00041e+07
-1744.41
1.00053e+07
-2252.95
1.00064e+07
-2421.4
1.00078e+07
-2952.98
1.00096e+07
-3448.07
1.00115e+07
-4102.58
1.0014e+07
-4705.48
1.00167e+07
-5536.79
1.00198e+07
-6162.65
1.00234e+07
-6935.88
1.0027e+07
-7391.26
1.0031e+07
-7650.26
1.00349e+07
-7726.51
1.00386e+07
-7337.26
1.0042e+07
-6423.25
1.00446e+07
-5171.47
1.00465e+07
-3329.72
1.00468e+07
-1016.52
1.00465e+07
991.975
1.00445e+07
3304.67
1.00421e+07
5045.02
1.00385e+07
6496.14
1.00349e+07
7207.55
1.00309e+07
7795.12
1.0027e+07
7616.02
1.00233e+07
7353.79
1.00197e+07
6894.64
1.00167e+07
6116.88
1.00139e+07
5485.52
1.00115e+07
4647.49
1.00096e+07
4036.35
1.00079e+07
3371.69
1.00065e+07
2864.09
1.00054e+07
2317.08
1.00043e+07
2129.61
1.00035e+07
1597.63
1.00028e+07
1316.05
1.00023e+07
1078.72
1.00019e+07
879.702
1.00015e+07
713.224
1.00013e+07
574.018
1.0001e+07
457.35
1.00009e+07
359.026
1.00007e+07
275.346
1.00006e+07
203.047
1.00005e+07
139.223
1.00005e+07
81.2511
26.7069
1.00004e+07
0.955382
-1323.21
1.00008e+07
0.298685
-1376.22
1.00013e+07
0.209303
-1483.83
1.00018e+07
0.208001
-1649.3
1.00024e+07
0.220814
-1877.52
1.0003e+07
0.235837
-2174.55
1.0004e+07
0.252152
-2747.91
1.00048e+07
0.271614
-3005.29
1.00061e+07
0.296953
-3754.51
1.00073e+07
0.330669
-4201.67
1.0009e+07
0.373632
-5149.82
1.00111e+07
0.423355
-6195.76
1.00135e+07
0.472601
-7126.04
1.00161e+07
0.510039
-8114.21
1.00194e+07
0.523205
-9514.09
1.00229e+07
0.502652
-10453.6
1.00268e+07
0.446067
-11234.1
1.00312e+07
0.358931
-12130.6
1.00356e+07
0.256475
-12094.7
1.00398e+07
0.160554
-11582.1
1.00438e+07
0.0955341
-10477.9
1.00468e+07
0.0759708
-8136.44
1.00488e+07
0.0999194
-5327.88
1.00496e+07
0.143972
-1845.87
1.00488e+07
0.175046
1807.29
1.00468e+07
0.169662
5288.57
1.00437e+07
0.129298
8095.72
1.00399e+07
0.0744474
10334.7
1.00354e+07
0.0277879
11636.9
1.00312e+07
-0.000212202
12045.9
1.00267e+07
-0.0111879
12077.8
1.00229e+07
-0.0106569
11176.8
1.00194e+07
-0.00380455
10390.9
1.0016e+07
0.00564715
9444.96
1.00135e+07
0.0153278
8037.25
1.00111e+07
0.0235387
7039.5
1.0009e+07
0.0290206
6097.42
1.00074e+07
0.0306366
5036.93
1.00061e+07
0.0276246
4070.81
1.00049e+07
0.0195363
3601.46
1.00042e+07
0.00636797
2824.83
1.00032e+07
-0.011458
2533.62
1.00026e+07
-0.0328618
1918.57
1.00021e+07
-0.0560067
1570.18
1.00017e+07
-0.0783523
1278.8
1.00014e+07
-0.096778
1035.7
1.00011e+07
-0.108001
832.843
1.00009e+07
-0.109135
663.12
1.00008e+07
-0.098481
520.28
1.00006e+07
-0.0763004
398.851
1.00006e+07
-0.0453848
294.029
1.00005e+07
-0.0114331
201.559
1.00005e+07
0.0157979
117.61
0.0186923
38.6534
1.00004e+07
-1323.25
1.00008e+07
-1376.26
1.00013e+07
-1483.87
1.00018e+07
-1649.35
1.00024e+07
-1877.57
1.0003e+07
-2174.61
1.0004e+07
-2747.96
1.00048e+07
-3005.35
1.00061e+07
-3754.57
1.00073e+07
-4201.73
1.0009e+07
-5149.88
1.00111e+07
-6195.84
1.00135e+07
-7126.12
1.00161e+07
-8114.3
1.00194e+07
-9514.2
1.00229e+07
-10453.7
1.00268e+07
-11234.2
1.00312e+07
-12130.8
1.00356e+07
-12094.9
1.00398e+07
-11582.3
1.00438e+07
-10478.1
1.00468e+07
-8136.57
1.00488e+07
-5327.95
1.00496e+07
-1845.89
1.00488e+07
1807.31
1.00468e+07
5288.61
1.00437e+07
8095.74
1.00399e+07
10334.7
1.00354e+07
11636.9
1.00312e+07
12045.8
1.00267e+07
12077.8
1.00229e+07
11176.7
1.00194e+07
10390.9
1.0016e+07
9444.92
1.00135e+07
8037.21
1.00111e+07
7039.46
1.0009e+07
6097.38
1.00074e+07
5036.89
1.00061e+07
4070.77
1.00049e+07
3601.42
1.00042e+07
2824.79
1.00032e+07
2533.59
1.00026e+07
1918.54
1.00021e+07
1570.15
1.00017e+07
1278.77
1.00014e+07
1035.67
1.00011e+07
832.818
1.00009e+07
663.099
1.00008e+07
520.264
1.00006e+07
398.841
1.00006e+07
294.024
1.00005e+07
201.558
1.00005e+07
117.611
38.6546
1.00004e+07
0.91304
-1681.51
1.00007e+07
0.261625
-1749.61
1.00011e+07
0.168681
-1888.04
1.00016e+07
0.159303
-2101.31
1.00021e+07
0.168342
-2396.16
1.00029e+07
0.181302
-2981.26
1.00034e+07
0.195853
-3267.24
1.00042e+07
0.213398
-3865.85
1.00053e+07
0.236444
-4789.72
1.00067e+07
0.267162
-5649.74
1.00084e+07
0.305968
-6854.28
1.00102e+07
0.349732
-8004.1
1.00123e+07
0.390761
-9289.07
1.00153e+07
0.417497
-11081.3
1.00184e+07
0.417203
-12625.1
1.00222e+07
0.380869
-14230.7
1.00267e+07
0.306548
-15763.6
1.00314e+07
0.201539
-16841.9
1.00366e+07
0.0844615
-17341.3
1.00417e+07
-0.0162043
-16720.2
1.00464e+07
-0.0682815
-15167.5
1.00503e+07
-0.0522174
-12070.6
1.00529e+07
0.0260524
-7899.06
1.00539e+07
0.128308
-2846.53
1.00529e+07
0.201351
2794.3
1.00503e+07
0.2058
7845.88
1.00464e+07
0.148319
12015.6
1.00416e+07
0.0641457
15109.6
1.00365e+07
-0.00514901
16658.7
1.00313e+07
-0.0437391
17275.5
1.00266e+07
-0.0565659
16771.1
1.00221e+07
-0.0542618
15687.1
1.00183e+07
-0.0450986
14147.5
1.00152e+07
-0.0340483
12533.7
1.00123e+07
-0.0237229
10980.4
1.00101e+07
-0.0155117
9176.08
1.00084e+07
-0.0103457
7876.35
1.00067e+07
-0.00895882
6708.28
1.00053e+07
-0.0119343
5481.15
1.00043e+07
-0.0196329
4593.18
1.00035e+07
-0.0321419
3634.75
1.0003e+07
-0.0490224
2993.43
1.00023e+07
-0.0691447
2654.75
1.00018e+07
-0.0905703
2004.66
1.00015e+07
-0.110603
1629.79
1.00012e+07
-0.126023
1318.07
1.0001e+07
-0.133454
1058.68
1.00008e+07
-0.130032
842.145
1.00006e+07
-0.114248
660.256
1.00005e+07
-0.0867539
505.87
1.00005e+07
-0.0508764
372.765
1.00004e+07
-0.0128965
255.457
1.00004e+07
0.0169002
149.031
0.019942
48.9756
1.00004e+07
-1681.55
1.00007e+07
-1749.64
1.00011e+07
-1888.06
1.00016e+07
-2101.32
1.00021e+07
-2396.17
1.00029e+07
-2981.27
1.00034e+07
-3267.25
1.00042e+07
-3865.86
1.00053e+07
-4789.73
1.00067e+07
-5649.75
1.00084e+07
-6854.3
1.00102e+07
-8004.13
1.00123e+07
-9289.1
1.00153e+07
-11081.3
1.00184e+07
-12625.1
1.00222e+07
-14230.8
1.00267e+07
-15763.6
1.00314e+07
-16842
1.00366e+07
-17341.4
1.00417e+07
-16720.3
1.00464e+07
-15167.6
1.00503e+07
-12070.7
1.00529e+07
-7899.11
1.00539e+07
-2846.49
1.00529e+07
2794.4
1.00503e+07
7845.99
1.00464e+07
12015.6
1.00416e+07
15109.6
1.00365e+07
16658.7
1.00313e+07
17275.5
1.00266e+07
16771.1
1.00221e+07
15687.1
1.00183e+07
14147.5
1.00152e+07
12533.7
1.00123e+07
10980.4
1.00101e+07
9176.08
1.00084e+07
7876.35
1.00067e+07
6708.27
1.00053e+07
5481.15
1.00043e+07
4593.18
1.00035e+07
3634.74
1.0003e+07
2993.43
1.00023e+07
2654.75
1.00018e+07
2004.66
1.00015e+07
1629.79
1.00012e+07
1318.07
1.0001e+07
1058.67
1.00008e+07
842.145
1.00006e+07
660.258
1.00005e+07
505.875
1.00005e+07
372.772
1.00004e+07
255.465
1.00004e+07
149.039
48.9802
1.00003e+07
0.875054
-1971.74
1.00006e+07
0.230342
-2052.74
1.00009e+07
0.147016
-2217.53
1.00013e+07
0.147803
-2471.96
1.00017e+07
0.160105
-2824.59
1.00022e+07
0.173637
-3487.18
1.00028e+07
0.187804
-3874
1.00037e+07
0.204361
-4801.76
1.00046e+07
0.225623
-5688.76
1.00057e+07
0.253489
-6753.78
1.0007e+07
0.287933
-8213.18
1.00087e+07
0.325513
-9677.58
1.00111e+07
0.358427
-11746.2
1.00139e+07
0.374887
-13796.5
1.00172e+07
0.362084
-15975.4
1.00213e+07
0.310313
-18381.3
1.00261e+07
0.216513
-20548.4
1.00316e+07
0.0887947
-22332.2
1.00376e+07
-0.0516218
-23408.6
1.0044e+07
-0.167101
-23090.9
1.00501e+07
-0.214204
-21300.8
1.00553e+07
-0.161383
-17280.7
1.00588e+07
-0.0158836
-11451.8
1.006e+07
0.168077
-4033.59
1.00588e+07
0.300972
3968.27
1.00553e+07
0.318006
11385.2
1.00501e+07
0.232559
17211.6
1.00439e+07
0.104539
21228.5
1.00376e+07
0.00609054
23013.9
1.00315e+07
-0.0433905
23326.3
1.0026e+07
-0.0564792
22244
1.00212e+07
-0.0517291
20453.5
1.00171e+07
-0.0410081
18278.6
1.00138e+07
-0.0300275
15863.5
1.00111e+07
-0.0210232
13673.3
1.00086e+07
-0.0147197
11609.2
1.0007e+07
-0.0114857
9523.62
1.00057e+07
-0.0117218
8038.15
1.00046e+07
-0.0159141
6552.59
1.00037e+07
-0.0245102
5455.17
1.00028e+07
-0.0376757
4528.02
1.00023e+07
-0.0549886
3550.57
1.00018e+07
-0.0753099
3102.35
1.00015e+07
-0.0966169
2363.95
1.00012e+07
-0.116124
1917.82
1.00009e+07
-0.13051
1548.25
1.00007e+07
-0.136317
1241.77
1.00006e+07
-0.13072
986.659
1.00005e+07
-0.112393
772.853
1.00004e+07
-0.0823227
591.721
1.00003e+07
-0.0442762
435.795
1.00003e+07
-0.00502971
298.539
1.00003e+07
0.0245847
174.123
0.0244765
57.2158
1.00003e+07
-1971.77
1.00006e+07
-2052.76
1.00009e+07
-2217.55
1.00013e+07
-2471.99
1.00017e+07
-2824.62
1.00022e+07
-3487.22
1.00028e+07
-3874.03
1.00037e+07
-4801.8
1.00046e+07
-5688.79
1.00057e+07
-6753.81
1.0007e+07
-8213.22
1.00087e+07
-9677.61
1.00111e+07
-11746.2
1.00139e+07
-13796.6
1.00172e+07
-15975.5
1.00213e+07
-18381.3
1.00261e+07
-20548.5
1.00316e+07
-22332.3
1.00376e+07
-23408.7
1.0044e+07
-23091.1
1.00501e+07
-21301
1.00553e+07
-17280.8
1.00588e+07
-11451.8
1.006e+07
-4033.52
1.00588e+07
3968.4
1.00553e+07
11385.4
1.00501e+07
17211.6
1.00439e+07
21228.5
1.00376e+07
23013.8
1.00315e+07
23326.2
1.0026e+07
22244
1.00212e+07
20453.4
1.00171e+07
18278.5
1.00138e+07
15863.4
1.00111e+07
13673.3
1.00086e+07
11609.2
1.0007e+07
9523.57
1.00057e+07
8038.1
1.00046e+07
6552.56
1.00037e+07
5455.13
1.00028e+07
4527.99
1.00023e+07
3550.54
1.00018e+07
3102.33
1.00015e+07
2363.93
1.00012e+07
1917.81
1.00009e+07
1548.24
1.00007e+07
1241.77
1.00006e+07
986.653
1.00005e+07
772.851
1.00004e+07
591.722
1.00003e+07
435.798
1.00003e+07
298.543
1.00003e+07
174.127
57.2179
1.00002e+07
0.848681
-2180.82
1.00004e+07
0.21652
-2271.77
1.00006e+07
0.127599
-2457.1
1.00009e+07
0.11784
-2743.95
1.00013e+07
0.126869
-3242.88
1.00016e+07
0.140032
-3768.68
1.00021e+07
0.154623
-4339.57
1.00026e+07
0.171691
-5378
1.00033e+07
0.193244
-6409.68
1.00044e+07
0.220952
-7863.31
1.00056e+07
0.254546
-9366.96
1.00072e+07
0.290588
-11347.6
1.00093e+07
0.321218
-13821
1.00119e+07
0.334626
-16384.3
1.00153e+07
0.317213
-19399.3
1.00195e+07
0.256998
-22571.1
1.00248e+07
0.148639
-25916.7
1.00312e+07
-0.00160785
-28732.7
1.00385e+07
-0.169376
-30770.1
1.00467e+07
-0.308088
-31235.4
1.00548e+07
-0.357381
-29464.6
1.0062e+07
-0.26895
-24500.8
1.00671e+07
-0.0454978
-16493.4
1.00688e+07
0.235657
-5803.98
1.00671e+07
0.436162
5727.57
1.0062e+07
0.447018
16415.3
1.00548e+07
0.29682
24419.4
1.00467e+07
0.0826885
29278.7
1.00385e+07
-0.0719013
31244.5
1.00311e+07
-0.1383
30672.3
1.00247e+07
-0.147133
28628.7
1.00194e+07
-0.131474
25805
1.00152e+07
-0.110135
22450.9
1.00118e+07
-0.0907529
19269
1.00092e+07
-0.0753361
16241.9
1.00072e+07
-0.0639407
13663.7
1.00055e+07
-0.0562781
11171.9
1.00044e+07
-0.0524056
9168.39
1.00033e+07
-0.0526931
7636.28
1.00026e+07
-0.0575864
6147.27
1.0002e+07
-0.0672423
5071.67
1.00016e+07
-0.0812395
3978.79
1.00015e+07
-0.0983324
3240.47
1.0001e+07
-0.116461
2831.35
1.00008e+07
-0.132742
2129.46
1.00006e+07
-0.143746
1715.63
1.00005e+07
-0.146008
1373.76
1.00004e+07
-0.136786
1090.09
1.00003e+07
-0.114984
852.978
1.00002e+07
-0.0819065
652.535
1.00002e+07
-0.0416269
480.288
1.00002e+07
-0.00111497
328.873
1.00002e+07
0.0285623
191.761
0.0265478
63.0029
1.00002e+07
-2180.87
1.00004e+07
-2271.8
1.00006e+07
-2457.12
1.00009e+07
-2743.95
1.00013e+07
-3242.88
1.00016e+07
-3768.67
1.00021e+07
-4339.56
1.00026e+07
-5377.99
1.00033e+07
-6409.66
1.00044e+07
-7863.3
1.00056e+07
-9366.94
1.00072e+07
-11347.6
1.00093e+07
-13820.9
1.00119e+07
-16384.3
1.00153e+07
-19399.2
1.00195e+07
-22571.1
1.00248e+07
-25916.7
1.00312e+07
-28732.7
1.00385e+07
-30770.1
1.00467e+07
-31235.5
1.00548e+07
-29464.8
1.0062e+07
-24500.9
1.00671e+07
-16493.4
1.00688e+07
-5803.89
1.00671e+07
5727.76
1.0062e+07
16415.5
1.00548e+07
24419.5
1.00467e+07
29278.7
1.00385e+07
31244.5
1.00311e+07
30672.2
1.00247e+07
28628.6
1.00194e+07
25805
1.00152e+07
22450.9
1.00118e+07
19269
1.00092e+07
16241.9
1.00072e+07
13663.7
1.00055e+07
11171.9
1.00044e+07
9168.39
1.00033e+07
7636.27
1.00026e+07
6147.27
1.0002e+07
5071.67
1.00016e+07
3978.79
1.00015e+07
3240.47
1.0001e+07
2831.36
1.00008e+07
2129.47
1.00006e+07
1715.63
1.00005e+07
1373.77
1.00004e+07
1090.1
1.00003e+07
852.989
1.00002e+07
652.547
1.00002e+07
480.3
1.00002e+07
328.884
1.00002e+07
191.77
63.0078
1.00001e+07
0.798621
-2298.95
1.00002e+07
0.184113
-2396.44
1.00004e+07
0.108902
-2595.3
1.00005e+07
0.114377
-2903.83
1.00008e+07
0.129977
-3534.52
1.00009e+07
0.14665
-3905.02
1.00012e+07
0.164108
-4637.77
1.00016e+07
0.183969
-5761.22
1.00023e+07
0.208197
-7109.34
1.00027e+07
0.238255
-8322.32
1.00038e+07
0.27392
-10445
1.00052e+07
0.311767
-12724.9
1.00068e+07
0.344116
-15506.4
1.00093e+07
0.359142
-18820.9
1.00125e+07
0.341781
-22668.4
1.00169e+07
0.276724
-26989
1.00225e+07
0.153501
-31515.9
1.00299e+07
-0.0267658
-36114.5
1.00389e+07
-0.23977
-39805.5
1.00495e+07
-0.429506
-41819.8
1.00605e+07
-0.510439
-40523.7
1.0071e+07
-0.402849
-34967
1.00785e+07
-0.0930529
-24017.4
1.00814e+07
0.321812
-8718.87
1.00785e+07
0.625262
8633.58
1.00709e+07
0.631869
23929.7
1.00606e+07
0.400966
34774.3
1.00493e+07
0.0768032
40525.7
1.00389e+07
-0.135373
41614.5
1.00298e+07
-0.205313
39794
1.00225e+07
-0.197904
35894.6
1.00168e+07
-0.164974
31488.4
1.00124e+07
-0.131277
26852.5
1.00092e+07
-0.104207
22521.6
1.00067e+07
-0.0841894
18661.6
1.00051e+07
-0.0698562
15332.2
1.00037e+07
-0.0600922
12531.7
1.00026e+07
-0.0545454
10228.3
1.00022e+07
-0.05341
8076.16
1.00015e+07
-0.0570933
6826.5
1.00012e+07
-0.0657191
5432.72
1.00009e+07
-0.0787937
4252.53
1.00007e+07
-0.0950329
3449.38
1.00005e+07
-0.112292
2991.68
1.00004e+07
-0.127596
2253.08
1.00003e+07
-0.137422
1811.2
1.00002e+07
-0.13829
1447.69
1.00002e+07
-0.127577
1147.09
1.00001e+07
-0.104426
896.548
1.00001e+07
-0.0704337
685.252
1.00001e+07
-0.0299417
504.027
1e+07
0.00988593
344.961
1e+07
0.0377787
201.079
0.0314303
66.0548
1.00001e+07
-2298.98
1.00002e+07
-2396.45
1.00004e+07
-2595.31
1.00005e+07
-2903.86
1.00008e+07
-3534.55
1.00009e+07
-3905.05
1.00012e+07
-4637.79
1.00016e+07
-5761.24
1.00023e+07
-7109.36
1.00027e+07
-8322.33
1.00038e+07
-10445
1.00052e+07
-12724.8
1.00068e+07
-15506.3
1.00093e+07
-18820.8
1.00125e+07
-22668.3
1.00169e+07
-26988.9
1.00225e+07
-31515.8
1.00299e+07
-36114.5
1.00389e+07
-39805.5
1.00495e+07
-41819.9
1.00605e+07
-40523.8
1.0071e+07
-34967
1.00785e+07
-24017.4
1.00814e+07
-8718.71
1.00785e+07
8633.82
1.00709e+07
23929.9
1.00606e+07
34774.3
1.00493e+07
40525.6
1.00389e+07
41614.2
1.00298e+07
39793.7
1.00225e+07
35894.4
1.00168e+07
31488.2
1.00124e+07
26852.4
1.00092e+07
22521.5
1.00067e+07
18661.5
1.00051e+07
15332.1
1.00037e+07
12531.6
1.00026e+07
10228.2
1.00022e+07
8076.12
1.00015e+07
6826.46
1.00012e+07
5432.68
1.00009e+07
4252.5
1.00007e+07
3449.36
1.00005e+07
2991.66
1.00004e+07
2253.06
1.00003e+07
1811.19
1.00002e+07
1447.68
1.00002e+07
1147.09
1.00001e+07
896.548
1.00001e+07
685.254
1.00001e+07
504.03
1e+07
344.964
1e+07
201.082
66.0562
1e+07
0.765925
-2319.29
1e+07
0.17372
-2419.19
1.00001e+07
0.0933639
-2623.33
1.00001e+07
0.0862105
-2940.92
1.00001e+07
0.0987248
-3586.04
1.00002e+07
0.116458
-3978.6
1.00005e+07
0.136594
-4944.96
1.00005e+07
0.159997
-5819.18
1.00007e+07
0.188571
-7243.87
1.00012e+07
0.223922
-8871.46
1.00017e+07
0.26613
-10965.9
1.00026e+07
0.312286
-13601.1
1.00039e+07
0.355261
-16859.5
1.00058e+07
0.383093
-20724.9
1.00087e+07
0.379167
-25565.7
1.00128e+07
0.324455
-31102.6
1.00188e+07
0.20134
-37547.7
1.0027e+07
0.00347996
-44306.2
1.00378e+07
-0.249044
-50625.2
1.00514e+07
-0.490606
-55419.2
1.00671e+07
-0.606807
-56251.1
1.00827e+07
-0.478169
-50531.3
1.00947e+07
-0.0737085
-36096.9
1.00993e+07
0.47306
-13285.9
1.00947e+07
0.860854
13196.5
1.00826e+07
0.804119
36003.4
1.0067e+07
0.43564
50430.9
1.00513e+07
-0.0695289
56142.3
1.00377e+07
-0.374336
55201.3
1.00269e+07
-0.442034
50599.6
1.00186e+07
-0.396305
44172.3
1.00127e+07
-0.323412
37405.8
1.00086e+07
-0.257991
30952.1
1.00058e+07
-0.207451
25305.3
1.00038e+07
-0.169942
20652.6
1.00026e+07
-0.142035
16572.6
1.00016e+07
-0.121294
13495.8
1.00011e+07
-0.106568
10737.6
1.00005e+07
-0.0976564
8614.2
1.00005e+07
-0.0946443
6850.37
1.00004e+07
-0.0974523
5580.4
1.00001e+07
-0.105418
4549.73
1e+07
-0.117095
3513.15
9.99997e+06
-0.130174
3033.4
9.99994e+06
-0.141516
2280.18
9.99992e+06
-0.147477
1828.73
9.99991e+06
-0.144592
1458.95
9.9999e+06
-0.130392
1154.26
9.9999e+06
-0.104271
901.063
9.9999e+06
-0.0680906
688.052
9.9999e+06
-0.0263469
505.724
9.9999e+06
0.013826
345.943
9.9999e+06
0.0411351
201.584
0.0328746
66.2097
1e+07
-2319.37
1e+07
-2419.23
1.00001e+07
-2623.35
1.00001e+07
-2940.92
1.00001e+07
-3586.03
1.00002e+07
-3978.59
1.00005e+07
-4944.94
1.00005e+07
-5819.16
1.00007e+07
-7243.84
1.00012e+07
-8871.42
1.00017e+07
-10965.9
1.00026e+07
-13601
1.00039e+07
-16859.5
1.00058e+07
-20724.8
1.00087e+07
-25565.6
1.00128e+07
-31102.5
1.00188e+07
-37547.6
1.0027e+07
-44306.1
1.00378e+07
-50625.1
1.00514e+07
-55419.2
1.00671e+07
-56251.2
1.00827e+07
-50531.3
1.00947e+07
-36096.8
1.00993e+07
-13285.7
1.00947e+07
13196.7
1.00826e+07
36003.4
1.0067e+07
50430.8
1.00513e+07
56142.1
1.00377e+07
55201.1
1.00269e+07
50599.4
1.00186e+07
44172.2
1.00127e+07
37405.8
1.00086e+07
30952.1
1.00058e+07
25305.2
1.00038e+07
20652.6
1.00026e+07
16572.6
1.00016e+07
13495.8
1.00011e+07
10737.6
1.00005e+07
8614.21
1.00005e+07
6850.38
1.00004e+07
5580.41
1.00001e+07
4549.74
1e+07
3513.16
9.99997e+06
3033.41
9.99994e+06
2280.19
9.99992e+06
1828.74
9.99991e+06
1458.96
9.9999e+06
1154.27
9.9999e+06
901.075
9.9999e+06
688.065
9.9999e+06
505.736
9.9999e+06
345.954
9.9999e+06
201.593
66.2141
9.99992e+06
0.692624
-2239.71
9.99983e+06
0.131741
-2337.66
9.99973e+06
0.0694323
-2538.01
9.99964e+06
0.0817196
-2850.49
9.99953e+06
0.10288
-3490.12
9.99943e+06
0.125825
-3878.44
9.99932e+06
0.150895
-4844.6
9.99932e+06
0.17988
-5826.89
9.99914e+06
0.214987
-7075.47
9.99911e+06
0.258135
-8854.76
9.99938e+06
0.309865
-11246.5
9.99963e+06
0.368072
-13854.7
1.00002e+07
0.426618
-17407
1.00015e+07
0.474133
-22055.5
1.00036e+07
0.493154
-27670.1
1.00072e+07
0.460703
-34710.9
1.00127e+07
0.350774
-43071.5
1.00212e+07
0.144247
-52844.8
1.00339e+07
-0.150458
-63380.9
1.00513e+07
-0.462885
-72791.9
1.00733e+07
-0.641911
-78246.2
1.00975e+07
-0.514421
-74727.8
1.01177e+07
-0.0333716
-56366.9
1.01259e+07
0.647276
-21429.7
1.01177e+07
1.05725
21342
1.00974e+07
0.890435
56271.4
1.00732e+07
0.355501
74620
1.00512e+07
-0.297919
78127
1.00338e+07
-0.636313
72660.5
1.00212e+07
-0.63825
63141.1
1.00126e+07
-0.519602
52796.1
1.00071e+07
-0.395827
42916
1.00036e+07
-0.300006
34447.3
1.00013e+07
-0.232129
27597.5
1.00001e+07
-0.184438
21772.6
9.99939e+06
-0.15009
17311
9.99924e+06
-0.124897
13641.8
9.99897e+06
-0.106944
11012.3
9.99898e+06
-0.0956355
8593.54
9.99905e+06
-0.0908473
6780.24
9.99914e+06
-0.0923306
5488.92
9.99924e+06
-0.099315
4453.11
9.99933e+06
-0.110243
3420.15
9.99941e+06
-0.122624
2948.62
9.99949e+06
-0.133157
2205.59
9.99955e+06
-0.138147
1764.75
9.9996e+06
-0.134181
1405.22
9.99965e+06
-0.118953
1110.04
9.99969e+06
-0.0921029
865.478
9.99971e+06
-0.055742
660.242
9.99974e+06
-0.0145178
484.927
9.99975e+06
0.0243857
331.542
9.99976e+06
0.0496237
193.127
0.0372679
63.4217
9.99991e+06
-2239.75
9.99983e+06
-2337.67
9.99973e+06
-2538.02
9.99964e+06
-2850.52
9.99953e+06
-3490.15
9.99943e+06
-3878.47
9.99932e+06
-4844.63
9.99932e+06
-5826.92
9.99914e+06
-7075.49
9.99911e+06
-8854.77
9.99938e+06
-11246.5
9.99963e+06
-13854.7
1.00002e+07
-17407
1.00015e+07
-22055.4
1.00036e+07
-27670
1.00072e+07
-34710.8
1.00127e+07
-43071.3
1.00212e+07
-52844.5
1.00339e+07
-63380.6
1.00513e+07
-72791.7
1.00733e+07
-78245.9
1.00975e+07
-74727.4
1.01177e+07
-56366.4
1.01259e+07
-21429.2
1.01177e+07
21342.2
1.00974e+07
56271.2
1.00732e+07
74619.4
1.00512e+07
78126.3
1.00338e+07
72659.8
1.00212e+07
63140.6
1.00126e+07
52795.8
1.00071e+07
42915.8
1.00036e+07
34447.2
1.00013e+07
27597.4
1.00001e+07
21772.5
9.99939e+06
17310.9
9.99924e+06
13641.7
9.99897e+06
11012.2
9.99898e+06
8593.49
9.99905e+06
6780.21
9.99914e+06
5488.89
9.99924e+06
4453.09
9.99933e+06
3420.13
9.99941e+06
2948.61
9.99949e+06
2205.58
9.99955e+06
1764.74
9.9996e+06
1405.21
9.99965e+06
1110.04
9.99969e+06
865.478
9.99971e+06
660.244
9.99974e+06
484.93
9.99975e+06
331.545
9.99976e+06
193.128
63.4222
9.99982e+06
0.650839
-2061.72
9.99963e+06
0.123168
-2152.94
9.99942e+06
0.0560384
-2339.85
9.9992e+06
0.0530298
-2632.12
9.99894e+06
0.0701143
-3244.81
9.99866e+06
0.0939026
-3599.92
9.99833e+06
0.121756
-4527.35
9.99797e+06
0.154859
-5467.89
9.99756e+06
0.195608
-6676.26
9.99712e+06
0.246433
-8424.99
9.99668e+06
0.308826
-10811.1
9.99638e+06
0.382149
-13564.9
9.99622e+06
0.461925
-17259.2
9.99627e+06
0.538555
-22122.6
9.99714e+06
0.595726
-28550.1
9.99922e+06
0.609219
-36805.6
1.00036e+07
0.547606
-47490.8
1.00115e+07
0.380464
-60731.4
1.00249e+07
0.104972
-76780
1.00462e+07
-0.202668
-94147.2
1.00771e+07
-0.347808
-109149
1.01155e+07
-0.112033
-113108
1.01521e+07
0.500131
-92957.4
1.01681e+07
1.12563
-37429.7
1.01521e+07
1.22554
37353.8
1.01154e+07
0.616731
92866.2
1.0077e+07
-0.201413
112995
1.00462e+07
-0.968428
108919
1.00249e+07
-1.29837
94002.4
1.00113e+07
-1.14158
76725.3
1.00035e+07
-0.866042
60569
9.9991e+06
-0.631086
47321.8
9.99691e+06
-0.464984
36631.2
9.99614e+06
-0.353835
28368.6
9.99598e+06
-0.278607
21932.6
9.99623e+06
-0.225481
17058.2
9.99652e+06
-0.186543
13349.7
9.99695e+06
-0.157973
10577.6
9.99737e+06
-0.138151
8167.92
9.99776e+06
-0.126372
6389.11
9.99811e+06
-0.122008
5142.6
9.9984e+06
-0.124026
4153.99
9.99866e+06
-0.130575
3166.27
9.99887e+06
-0.138918
2735.74
9.99905e+06
-0.145603
2029.11
9.99919e+06
-0.146891
1619.81
9.99931e+06
-0.139444
1287.4
9.9994e+06
-0.121144
1015.43
9.99948e+06
-0.0918823
790.747
9.99954e+06
-0.0539641
602.654
9.99958e+06
-0.012062
442.304
9.99961e+06
0.0268187
302.239
9.99963e+06
0.0514469
175.996
0.0378201
57.7857
9.99982e+06
-2061.82
9.99963e+06
-2152.99
9.99942e+06
-2339.88
9.9992e+06
-2632.13
9.99894e+06
-3244.8
9.99866e+06
-3599.92
9.99833e+06
-4527.34
9.99797e+06
-5467.88
9.99756e+06
-6676.24
9.99712e+06
-8424.96
9.99668e+06
-10811.1
9.99638e+06
-13564.8
9.99622e+06
-17259.1
9.99627e+06
-22122.5
9.99714e+06
-28549.9
9.99922e+06
-36805.3
1.00036e+07
-47490.4
1.00115e+07
-60731
1.00249e+07
-76779.6
1.00462e+07
-94146.6
1.00771e+07
-109149
1.01155e+07
-113107
1.01521e+07
-92956.3
1.01681e+07
-37428.7
1.01521e+07
37353.6
1.01154e+07
92865.3
1.0077e+07
112993
1.00462e+07
108918
1.00249e+07
94001.7
1.00113e+07
76724.9
1.00035e+07
60568.9
9.9991e+06
47321.7
9.99691e+06
36631.2
9.99614e+06
28368.6
9.99598e+06
21932.6
9.99623e+06
17058.2
9.99652e+06
13349.8
9.99695e+06
10577.6
9.99737e+06
8167.94
9.99776e+06
6389.12
9.99811e+06
5142.61
9.9984e+06
4154
9.99866e+06
3166.28
9.99887e+06
2735.76
9.99905e+06
2029.12
9.99919e+06
1619.82
9.99931e+06
1287.41
9.9994e+06
1015.44
9.99948e+06
790.76
9.99954e+06
602.666
9.99958e+06
442.316
9.99961e+06
302.249
9.99963e+06
176.003
57.7896
9.99973e+06
0.555428
-1792.44
9.99944e+06
0.072514
-1872.43
9.99913e+06
0.0265497
-2036.39
9.99878e+06
0.0456286
-2293.35
9.99839e+06
0.0717949
-2857.23
9.99793e+06
0.100464
-3148.9
9.99719e+06
0.132817
-3797.15
9.99656e+06
0.171281
-4841.7
9.99601e+06
0.21875
-6136.8
9.99514e+06
0.278316
-7558.12
9.99392e+06
0.352459
-9609.1
9.99278e+06
0.442223
-12435.7
9.99146e+06
0.545703
-15944.1
9.99035e+06
0.656779
-21027.7
9.98929e+06
0.762958
-27507.2
9.98915e+06
0.842977
-36678.2
9.99071e+06
0.864152
-49064.7
9.99599e+06
0.786807
-66028.6
1.00079e+07
0.593045
-88692
1.00314e+07
0.362297
-117717
1.00725e+07
0.350128
-150174
1.01346e+07
0.838998
-175209
1.02056e+07
1.60589
-164059
1.02402e+07
2.11302
-71952.7
1.02056e+07
0.972377
71899.7
1.01346e+07
-0.384854
163875
1.00725e+07
-1.71781
175091
1.00312e+07
-2.12482
150130
1.00078e+07
-2.07641
117455
9.99587e+06
-1.54331
88619.6
9.99059e+06
-1.0376
65850.2
9.98902e+06
-0.688553
48883.5
9.98916e+06
-0.473231
36493
9.99021e+06
-0.343792
27317.8
9.99141e+06
-0.263118
20732.8
9.99262e+06
-0.209127
15841.3
9.99375e+06
-0.170673
12222.4
9.99494e+06
-0.14282
9381.52
9.99579e+06
-0.123684
7311.63
9.99632e+06
-0.112542
5865.72
9.99692e+06
-0.108817
4538.99
9.99762e+06
-0.111427
3454.19
9.99803e+06
-0.118414
2755.04
9.99836e+06
-0.126959
2399.34
9.99864e+06
-0.133593
1755.27
9.99886e+06
-0.134595
1398.14
9.99904e+06
-0.126739
1109.22
9.99918e+06
-0.108126
873.61
9.99929e+06
-0.0788956
679.496
9.99938e+06
-0.0415223
517.372
9.99944e+06
-0.000726189
379.433
9.99949e+06
0.0365271
259.138
9.99951e+06
0.0590391
150.845
0.0417389
49.5194
9.99973e+06
-1792.49
9.99944e+06
-1872.43
9.99913e+06
-2036.4
9.99878e+06
-2293.38
9.99839e+06
-2857.26
9.99793e+06
-3148.94
9.99719e+06
-3797.19
9.99656e+06
-4841.74
9.99601e+06
-6136.84
9.99514e+06
-7558.16
9.99392e+06
-9609.13
9.99278e+06
-12435.7
9.99146e+06
-15944.1
9.99035e+06
-21027.7
9.98929e+06
-27507.2
9.98915e+06
-36678.1
9.99071e+06
-49064.5
9.99599e+06
-66028.2
1.00079e+07
-88691.4
1.00314e+07
-117717
1.00725e+07
-150173
1.01346e+07
-175208
1.02056e+07
-164057
1.02402e+07
-71951.2
1.02056e+07
71898.6
1.01346e+07
163873
1.00725e+07
175089
1.00312e+07
150128
1.00078e+07
117454
9.99587e+06
88619
9.99059e+06
65849.9
9.98902e+06
48883.3
9.98916e+06
36492.9
9.99021e+06
27317.7
9.99141e+06
20732.8
9.99262e+06
15841.2
9.99375e+06
12222.3
9.99494e+06
9381.49
9.99579e+06