/*--------------------------------*- C++ -*----------------------------------*\
| =========                 |                                                 |
| \\      /  F ield         | OpenFOAM: The Open Source CFD Toolbox           |
|  \\    /   O peration     | Version:  4.1                                   |
|   \\  /    A nd           | Web:      www.OpenFOAM.org                      |
|    \\/     M anipulation  |                                                 |
\*---------------------------------------------------------------------------*/
FoamFile
{
    version     2.0;
    format      ascii;
    class       volVectorField;
    location    "0";
    object      U;
}
// * * * * * * * * * * * * * * * * * * * * * * * * * * * * * * * * * * * * * //

dimensions      [0 1 -1 0 0 0 0];

internalField   nonuniform List<vector> 
4432
(
(40.0009 3.88932e-06 -0.000925915)
(40.0028 2.17977e-06 -0.000963691)
(40.0048 1.94067e-06 -0.00103837)
(40.0069 1.94835e-06 -0.00115272)
(40.0094 2.0008e-06 -0.0013099)
(40.0122 2.06467e-06 -0.00151378)
(40.0154 2.1374e-06 -0.00176853)
(40.0193 2.22526e-06 -0.0020788)
(40.0238 2.32593e-06 -0.0024483)
(40.0291 2.47287e-06 -0.00287938)
(40.0353 2.6813e-06 -0.00337158)
(40.0426 2.92163e-06 -0.00391936)
(40.051 3.19691e-06 -0.00451097)
(40.0606 3.50618e-06 -0.00512439)
(40.0714 3.7059e-06 -0.0057256)
(40.0833 3.91728e-06 -0.00626627)
(40.0962 3.99829e-06 -0.00668364)
(40.1098 3.96662e-06 -0.00690176)
(40.1235 3.83243e-06 -0.0068409)
(40.1367 3.62262e-06 -0.00642688)
(40.1487 3.37421e-06 -0.00561011)
(40.1586 3.12437e-06 -0.00438392)
(40.1658 2.89519e-06 -0.0027991)
(40.1695 2.68275e-06 -0.000967376)
(40.1695 2.46633e-06 0.000952491)
(40.1657 2.22968e-06 0.0027837)
(40.1585 1.97046e-06 0.00436752)
(40.1485 1.71649e-06 0.0055922)
(40.1365 1.48127e-06 0.00640697)
(40.1233 1.27985e-06 0.00681848)
(40.1096 1.15012e-06 0.0068764)
(40.096 9.53433e-07 0.00665448)
(40.0831 8.88994e-07 0.00623283)
(40.0712 8.46281e-07 0.00568696)
(40.0604 7.43074e-07 0.00507954)
(40.0508 7.35705e-07 0.0044587)
(40.0425 7.13221e-07 0.00385817)
(40.0353 6.94274e-07 0.00329961)
(40.0292 6.85663e-07 0.00279428)
(40.0241 6.50733e-07 0.00234715)
(40.0198 5.9113e-07 0.00195797)
(40.0162 5.24733e-07 0.00162353)
(40.0132 4.38981e-07 0.00133904)
(40.0108 3.35926e-07 0.00109865)
(40.0088 2.21086e-07 0.000896648)
(40.0071 1.0336e-07 0.00072738)
(40.0058 -5.76171e-09 0.000585635)
(40.0048 -9.37391e-08 0.000466702)
(40.0039 -1.49243e-07 0.000366386)
(40.0033 -1.6498e-07 0.000280976)
(40.0028 -1.40445e-07 0.000207179)
(40.0025 -8.41152e-08 0.00014205)
(40.0022 -1.60248e-08 8.29111e-05)
(40.0021 2.23106e-08 2.7264e-05)
(40.0009 3.88932e-06 -0.00092763)
(40.0028 2.17977e-06 -0.000965046)
(40.0048 1.94067e-06 -0.00103969)
(40.0069 1.94835e-06 -0.00115407)
(40.0094 2.0008e-06 -0.00131128)
(40.0122 2.06467e-06 -0.00151518)
(40.0154 2.1374e-06 -0.00176997)
(40.0193 2.22526e-06 -0.00208028)
(40.0238 2.35042e-06 -0.00244983)
(40.0291 2.50167e-06 -0.00288098)
(40.0353 2.6813e-06 -0.00337327)
(40.0426 2.92163e-06 -0.00392116)
(40.051 3.19691e-06 -0.00451291)
(40.0606 3.45511e-06 -0.0051265)
(40.0714 3.76297e-06 -0.00572789)
(40.0833 3.91728e-06 -0.00626874)
(40.0962 3.99829e-06 -0.00668627)
(40.1098 3.96662e-06 -0.00690449)
(40.1235 3.83243e-06 -0.00684368)
(40.1367 3.62262e-06 -0.00642965)
(40.1487 3.37421e-06 -0.00561279)
(40.1586 3.12437e-06 -0.00438646)
(40.1658 2.89519e-06 -0.00280146)
(40.1695 2.68276e-06 -0.000969536)
(40.1695 2.46633e-06 0.000950524)
(40.1657 2.22688e-06 0.00278192)
(40.1585 1.97484e-06 0.0043659)
(40.1485 1.71649e-06 0.00559073)
(40.1365 1.48127e-06 0.00640565)
(40.1233 1.27985e-06 0.0068173)
(40.1095 1.08127e-06 0.00687536)
(40.096 1.02005e-06 0.00665356)
(40.0831 8.88994e-07 0.006232)
(40.0712 7.89351e-07 0.00568622)
(40.0604 7.93924e-07 0.00507887)
(40.0508 7.35705e-07 0.00445807)
(40.0425 7.13221e-07 0.00385758)
(40.0353 6.94274e-07 0.00329904)
(40.0292 6.57723e-07 0.00279374)
(40.0241 6.27264e-07 0.00234663)
(40.0198 5.9113e-07 0.00195747)
(40.0162 5.24733e-07 0.00162305)
(40.0132 4.38981e-07 0.0013386)
(40.0108 3.35926e-07 0.00109826)
(40.0088 2.21086e-07 0.000896324)
(40.0071 1.0336e-07 0.000727127)
(40.0058 -5.76171e-09 0.000585456)
(40.0048 -9.37391e-08 0.000466597)
(40.0039 -1.49243e-07 0.000366348)
(40.0033 -1.6498e-07 0.000280989)
(40.0028 -1.40445e-07 0.000207224)
(40.0025 -8.41152e-08 0.000142103)
(40.0022 -1.60248e-08 8.29507e-05)
(40.0021 2.23106e-08 2.72739e-05)
(40.0009 2.17419e-06 -0.00274951)
(40.0027 8.24721e-07 -0.00285985)
(40.0046 6.21464e-07 -0.00308155)
(40.0067 6.05052e-07 -0.00342165)
(40.009 6.28105e-07 -0.00388954)
(40.0117 6.60046e-07 -0.00449692)
(40.0149 6.969e-07 -0.0052572)
(40.0186 7.42615e-07 -0.0061843)
(40.023 8.15405e-07 -0.00729084)
(40.0281 8.85379e-07 -0.00858493)
(40.0343 9.74911e-07 -0.0100671)
(40.0414 1.11787e-06 -0.0117238)
(40.0498 1.25043e-06 -0.0135209)
(40.0593 1.36571e-06 -0.0153961)
(40.0702 1.43648e-06 -0.0172488)
(40.0824 1.44103e-06 -0.0189349)
(40.0956 1.37051e-06 -0.0202624)
(40.1096 1.26888e-06 -0.0209986)
(40.1239 1.01461e-06 -0.020889)
(40.1379 7.91179e-07 -0.0196962)
(40.1507 6.96273e-07 -0.0172519)
(40.1614 5.91999e-07 -0.0135219)
(40.1692 5.37869e-07 -0.00865512)
(40.1732 5.22757e-07 -0.00300025)
(40.1732 4.99397e-07 0.00293667)
(40.1691 4.44012e-07 0.00859007)
(40.1613 3.73051e-07 0.0134539)
(40.1506 2.79725e-07 0.0171796)
(40.1377 1.9662e-07 0.0196182)
(40.1237 6.71965e-08 0.0208039)
(40.1094 7.12948e-08 0.0209052)
(40.0954 6.10243e-08 0.0201589)
(40.0821 6.53561e-08 0.0188195)
(40.07 7.83955e-08 0.0171191)
(40.0592 9.55188e-08 0.0152491)
(40.0496 1.1261e-07 0.0133531)
(40.0414 1.26186e-07 0.0115305)
(40.0343 1.49064e-07 0.00984268)
(40.0283 1.29823e-07 0.00832234)
(40.0233 1.04061e-07 0.00698134)
(40.0191 8.90962e-08 0.00581707)
(40.0156 5.12781e-08 0.00481889)
(40.0127 4.00192e-09 0.00397113)
(40.0103 -4.91768e-08 0.00325616)
(40.0084 -1.02872e-07 0.00265611)
(40.0068 -1.50377e-07 0.00215387)
(40.0056 -1.84379e-07 0.0017337)
(40.0046 -1.98191e-07 0.00138142)
(40.0038 -1.87388e-07 0.00108445)
(40.0031 -1.51547e-07 0.000831669)
(40.0027 -9.56358e-08 0.000613267)
(40.0023 -3.08488e-08 0.000420489)
(40.0021 2.35637e-08 0.000245405)
(40.002 3.22117e-08 8.06727e-05)
(40.0009 2.17419e-06 -0.00275149)
(40.0027 8.24721e-07 -0.00286143)
(40.0046 6.21464e-07 -0.00308307)
(40.0067 6.05052e-07 -0.00342318)
(40.009 6.28105e-07 -0.0038911)
(40.0117 6.60046e-07 -0.00449851)
(40.0149 6.969e-07 -0.00525883)
(40.0186 7.42615e-07 -0.00618599)
(40.023 7.9147e-07 -0.00729258)
(40.0281 8.85379e-07 -0.00858675)
(40.0343 1.00814e-06 -0.010069)
(40.0414 1.11787e-06 -0.0117259)
(40.0498 1.25043e-06 -0.0135232)
(40.0593 1.36571e-06 -0.0153986)
(40.0702 1.43648e-06 -0.0172515)
(40.0824 1.44103e-06 -0.0189378)
(40.0956 1.37051e-06 -0.0202655)
(40.1096 1.19729e-06 -0.0210018)
(40.1239 1.08665e-06 -0.0208923)
(40.1379 9.27624e-07 -0.0196995)
(40.1507 6.96273e-07 -0.0172551)
(40.1614 5.87279e-07 -0.0135249)
(40.1692 5.40894e-07 -0.00865781)
(40.1732 5.22761e-07 -0.00300265)
(40.1732 4.994e-07 0.00293455)
(40.1691 4.40965e-07 0.00858818)
(40.1613 3.3061e-07 0.0134522)
(40.1506 2.19777e-07 0.0171781)
(40.1377 1.28413e-07 0.0196168)
(40.1237 1.39018e-07 0.0208027)
(40.1094 7.12948e-08 0.0209041)
(40.0954 6.10243e-08 0.0201579)
(40.0821 6.53561e-08 0.0188186)
(40.07 7.83955e-08 0.0171183)
(40.0592 9.55188e-08 0.0152484)
(40.0496 1.1261e-07 0.0133524)
(40.0414 1.26186e-07 0.0115299)
(40.0343 1.16626e-07 0.00984205)
(40.0283 1.29823e-07 0.00832172)
(40.0233 1.26932e-07 0.00698074)
(40.0191 8.90962e-08 0.0058165)
(40.0156 5.12781e-08 0.00481834)
(40.0127 4.00192e-09 0.00397062)
(40.0103 -4.91768e-08 0.00325571)
(40.0084 -1.02872e-07 0.00265573)
(40.0068 -1.50377e-07 0.00215357)
(40.0056 -1.84379e-07 0.00173349)
(40.0046 -1.98191e-07 0.0013813)
(40.0038 -1.87388e-07 0.0010844)
(40.0031 -1.51547e-07 0.000831681)
(40.0027 -9.56358e-08 0.000613317)
(40.0023 -3.08488e-08 0.00042055)
(40.0021 2.35637e-08 0.000245453)
(40.002 3.22117e-08 8.06878e-05)
(40.0008 1.91076e-06 -0.00447002)
(40.0025 5.97369e-07 -0.0046486)
(40.0042 4.18606e-07 -0.00501082)
(40.0061 4.16001e-07 -0.00556753)
(40.0083 4.41623e-07 -0.00633462)
(40.0108 4.7167e-07 -0.00733225)
(40.0138 5.04299e-07 -0.00858431)
(40.0172 5.43217e-07 -0.010116)
(40.0214 5.93894e-07 -0.0119513)
(40.0263 6.74809e-07 -0.0141088)
(40.0322 7.63255e-07 -0.0165947)
(40.0391 8.4666e-07 -0.0193947)
(40.0473 9.45137e-07 -0.0224609)
(40.0568 1.01998e-06 -0.0256983)
(40.0678 1.0463e-06 -0.0289482)
(40.0803 1.00516e-06 -0.031972)
(40.0942 8.92001e-07 -0.0344429)
(40.1092 7.56349e-07 -0.0359509)
(40.1248 5.12823e-07 -0.0360307)
(40.1403 2.82762e-07 -0.0342261)
(40.1549 1.91017e-07 -0.0301891)
(40.1672 1.57394e-07 -0.0238049)
(40.1763 1.96213e-07 -0.0153071)
(40.1811 2.87852e-07 -0.00532313)
(40.1811 3.50607e-07 0.00519725)
(40.1762 3.37428e-07 0.0151788)
(40.1671 2.3103e-07 0.0236719)
(40.1547 1.48855e-07 0.0300491)
(40.1401 1.70446e-07 0.0340769)
(40.1246 -4.94857e-10 0.0358705)
(40.1089 -2.23715e-08 0.0357773)
(40.0939 -2.13106e-08 0.0342539)
(40.0801 -7.60804e-09 0.0317647)
(40.0676 1.12931e-08 0.0287189)
(40.0566 3.06524e-08 0.0254423)
(40.0471 4.7074e-08 0.0221722)
(40.039 5.80377e-08 0.0190659)
(40.0321 4.562e-08 0.0162165)
(40.0264 4.21814e-08 0.0136696)
(40.0216 3.90718e-08 0.0114368)
(40.0176 1.27357e-08 0.00950869)
(40.0143 -2.29157e-08 0.00786244)
(40.0117 -6.5723e-08 0.00646924)
(40.0095 -1.12012e-07 0.00529783)
(40.0077 -1.56705e-07 0.00431706)
(40.0062 -1.93556e-07 0.00349789)
(40.0051 -2.16002e-07 0.00281375)
(40.0041 -2.18271e-07 0.00224096)
(40.0034 -1.96962e-07 0.00175862)
(40.0028 -1.52601e-07 0.0013484)
(40.0024 -9.07696e-08 0.000994147)
(40.0021 -2.28663e-08 0.000681557)
(40.0019 3.15957e-08 0.000397715)
(40.0018 3.73846e-08 0.000130715)
(40.0008 1.91076e-06 -0.00447037)
(40.0025 5.97369e-07 -0.0046489)
(40.0042 4.18606e-07 -0.00501111)
(40.0061 4.16001e-07 -0.00556782)
(40.0083 4.41623e-07 -0.00633491)
(40.0108 4.7167e-07 -0.00733255)
(40.0138 5.04299e-07 -0.00858461)
(40.0172 5.43217e-07 -0.0101163)
(40.0214 5.93894e-07 -0.0119516)
(40.0263 6.47834e-07 -0.0141092)
(40.0322 7.3122e-07 -0.0165951)
(40.0391 8.4666e-07 -0.0193951)
(40.0473 9.45137e-07 -0.0224613)
(40.0568 1.01998e-06 -0.0256989)
(40.0678 1.0463e-06 -0.0289488)
(40.0803 1.00516e-06 -0.0319727)
(40.0942 8.92001e-07 -0.0344436)
(40.1092 6.79111e-07 -0.0359517)
(40.1248 5.12852e-07 -0.0360316)
(40.1403 3.59296e-07 -0.034227)
(40.1549 1.91017e-07 -0.0301899)
(40.1672 1.46399e-07 -0.0238056)
(40.1763 2.03345e-07 -0.0153075)
(40.1811 2.87857e-07 -0.0053234)
(40.1811 3.49358e-07 0.00519715)
(40.1762 3.41018e-07 0.0151788)
(40.1671 2.86009e-07 0.0236718)
(40.1547 1.48855e-07 0.030049)
(40.1401 -5.93214e-08 0.0340768)
(40.1246 -3.54024e-10 0.0358703)
(40.1089 -2.23715e-08 0.0357771)
(40.0939 -2.13106e-08 0.0342537)
(40.0801 -7.60804e-09 0.0317646)
(40.0676 1.12931e-08 0.0287187)
(40.0566 3.06524e-08 0.0254422)
(40.0471 4.7074e-08 0.022172)
(40.039 5.80377e-08 0.0190658)
(40.0321 7.6922e-08 0.0162163)
(40.0264 6.83141e-08 0.0136695)
(40.0216 3.90718e-08 0.0114366)
(40.0176 1.27357e-08 0.00950854)
(40.0143 -2.29157e-08 0.00786229)
(40.0117 -6.5723e-08 0.0064691)
(40.0095 -1.12012e-07 0.0052977)
(40.0077 -1.56705e-07 0.00431694)
(40.0062 -1.93556e-07 0.00349779)
(40.0051 -2.16002e-07 0.00281367)
(40.0041 -2.18271e-07 0.0022409)
(40.0034 -1.96962e-07 0.00175858)
(40.0028 -1.52601e-07 0.00134837)
(40.0024 -9.07696e-08 0.000994141)
(40.0021 -2.28663e-08 0.000681562)
(40.0019 3.15957e-08 0.000397725)
(40.0018 3.73846e-08 0.000130723)
(40.0007 1.82608e-06 -0.00600944)
(40.0021 5.23249e-07 -0.00625166)
(40.0037 3.37361e-07 -0.00674373)
(40.0053 3.18607e-07 -0.00750123)
(40.0073 3.36677e-07 -0.00854719)
(40.0095 3.62601e-07 -0.00991153)
(40.0121 3.91697e-07 -0.0116301)
(40.0152 4.26792e-07 -0.0137421)
(40.019 4.72884e-07 -0.0162879)
(40.0235 5.34308e-07 -0.0193022)
(40.029 6.119e-07 -0.0228067)
(40.0356 6.99407e-07 -0.0267972)
(40.0434 7.81468e-07 -0.0312276)
(40.0529 8.60445e-07 -0.0359862)
(40.064 7.74226e-07 -0.0408711)
(40.0769 7.26865e-07 -0.0455591)
(40.0916 6.12986e-07 -0.0495837)
(40.108 4.02984e-07 -0.0523283)
(40.1257 2.14305e-07 -0.0530539)
(40.1438 -3.2399e-08 -0.0509855)
(40.1612 -1.78377e-07 -0.0454696)
(40.1763 -1.3188e-07 -0.0361985)
(40.1877 2.48845e-08 -0.0234421)
(40.1938 2.56516e-07 -0.00817991)
(40.1937 4.03346e-07 0.00799825)
(40.1876 4.34003e-07 0.0232571)
(40.1762 3.27279e-07 0.0360068)
(40.161 1.28239e-07 0.0452682)
(40.1436 -5.54748e-08 0.0507714)
(40.1254 -1.32712e-07 0.0528246)
(40.1078 -1.13106e-07 0.0520814)
(40.0914 -1.08504e-07 0.0493163)
(40.0766 -5.56341e-08 0.0452674)
(40.0637 -3.82035e-08 0.0405503)
(40.0526 -4.74405e-08 0.0356304)
(40.0432 -3.10213e-08 0.0308285)
(40.0354 -2.06897e-08 0.0263451)
(40.0289 -1.79166e-08 0.0222889)
(40.0235 -2.38679e-08 0.0187033)
(40.0191 -3.92654e-08 0.0155888)
(40.0155 -6.42832e-08 0.012919)
(40.0125 -9.80428e-08 0.0106539)
(40.0101 -1.38288e-07 0.00874655)
(40.0082 -1.81137e-07 0.00714955)
(40.0066 -2.21206e-07 0.00581719)
(40.0053 -2.52047e-07 0.00470755)
(40.0043 -2.66908e-07 0.00378304)
(40.0035 -2.60063e-07 0.00301053)
(40.0029 -2.28496e-07 0.00236107)
(40.0024 -1.73508e-07 0.00180944)
(40.002 -1.01753e-07 0.00133359)
(40.0017 -2.5793e-08 0.000914032)
(40.0016 3.38003e-08 0.000533282)
(40.0015 3.9884e-08 0.000175258)
(40.0007 1.82608e-06 -0.0060096)
(40.0021 5.23249e-07 -0.0062518)
(40.0037 3.37361e-07 -0.00674386)
(40.0053 3.18607e-07 -0.00750135)
(40.0073 3.36677e-07 -0.00854731)
(40.0095 3.62601e-07 -0.00991165)
(40.0121 3.91697e-07 -0.0116302)
(40.0152 4.26792e-07 -0.0137423)
(40.019 4.72884e-07 -0.0162881)
(40.0235 5.34308e-07 -0.0193023)
(40.029 6.119e-07 -0.0228068)
(40.0356 6.99407e-07 -0.0267974)
(40.0435 7.81468e-07 -0.0312278)
(40.0529 8.09366e-07 -0.0359865)
(40.064 8.94369e-07 -0.0408714)
(40.0769 7.96373e-07 -0.0455595)
(40.0916 6.12986e-07 -0.0495842)
(40.108 4.02984e-07 -0.0523289)
(40.1257 1.23455e-07 -0.0530545)
(40.1438 -3.2399e-08 -0.0509861)
(40.1612 -9.46604e-08 -0.0454702)
(40.1763 -7.69184e-08 -0.0361989)
(40.1877 7.9287e-08 -0.0234424)
(40.1938 2.56524e-07 -0.00817986)
(40.1937 4.01756e-07 0.0079985)
(40.1876 3.88899e-07 0.0232574)
(40.1762 2.65794e-07 0.036007)
(40.161 1.28261e-07 0.0452682)
(40.1436 3.48853e-08 0.0507714)
(40.1254 -4.21987e-08 0.0528245)
(40.1078 -1.13106e-07 0.0520813)
(40.0914 -1.08504e-07 0.0493162)
(40.0766 -1.24733e-07 0.0452673)
(40.0637 -9.7973e-08 0.0405502)
(40.0526 -4.74405e-08 0.0356303)
(40.0432 -3.10213e-08 0.0308285)
(40.0354 -2.06897e-08 0.026345)
(40.0289 -1.79166e-08 0.0222888)
(40.0235 -2.38679e-08 0.0187032)
(40.0191 -3.92654e-08 0.0155887)
(40.0155 -6.42832e-08 0.0129189)
(40.0125 -9.80428e-08 0.0106538)
(40.0101 -1.38288e-07 0.00874646)
(40.0082 -1.81137e-07 0.00714946)
(40.0066 -2.21206e-07 0.00581711)
(40.0053 -2.52047e-07 0.00470748)
(40.0043 -2.66908e-07 0.00378298)
(40.0035 -2.60063e-07 0.00301049)
(40.0029 -2.28496e-07 0.00236104)
(40.0024 -1.73508e-07 0.00180943)
(40.002 -1.01753e-07 0.00133359)
(40.0017 -2.5793e-08 0.000914045)
(40.0016 3.38003e-08 0.0005333)
(40.0015 3.9884e-08 0.00017527)
(40.0006 1.75011e-06 -0.0073065)
(40.0017 4.60684e-07 -0.0076047)
(40.003 2.94033e-07 -0.00821114)
(40.0043 2.95604e-07 -0.00914646)
(40.0059 3.20207e-07 -0.0104414)
(40.0077 3.47274e-07 -0.0121367)
(40.0099 3.75601e-07 -0.0142822)
(40.0126 4.08714e-07 -0.0169349)
(40.0158 4.51229e-07 -0.0201562)
(40.0198 5.06954e-07 -0.0240059)
(40.0247 5.75831e-07 -0.0285328)
(40.0307 6.67609e-07 -0.0337606)
(40.0381 6.96339e-07 -0.0396661)
(40.0472 7.747e-07 -0.0461489)
(40.0583 7.24179e-07 -0.0529915)
(40.0716 6.5699e-07 -0.0598102)
(40.0874 3.90092e-07 -0.0660057)
(40.1057 7.97915e-08 -0.0707253)
(40.1261 -1.56831e-07 -0.072872)
(40.1479 -3.34103e-07 -0.0711926)
(40.1697 -3.75068e-07 -0.0645056)
(40.1893 -3.13512e-07 -0.0520774)
(40.2043 -4.29252e-09 -0.0340832)
(40.2125 3.24059e-07 -0.0119527)
(40.2125 6.13483e-07 0.0117175)
(40.2042 6.08418e-07 0.0338437)
(40.1891 4.11008e-07 0.0518291)
(40.1695 2.08975e-07 0.0642449)
(40.1477 1.21989e-08 0.0709156)
(40.1259 -3.32986e-08 0.072576)
(40.1054 -1.55276e-08 0.0704075)
(40.0871 -6.07897e-08 0.0656631)
(40.0713 -1.18296e-07 0.0594384)
(40.058 -9.03262e-08 0.0525852)
(40.0469 -4.2041e-08 0.0457005)
(40.0378 -9.07526e-09 0.0391663)
(40.0305 -3.94774e-08 0.0331972)
(40.0245 -2.34421e-08 0.0278907)
(40.0197 -3.18266e-08 0.0232664)
(40.0158 -4.90184e-08 0.019296)
(40.0127 -7.53499e-08 0.0159253)
(40.0102 -1.09975e-07 0.0130877)
(40.0082 -1.5062e-07 0.010714)
(40.0065 -1.93232e-07 0.00873713)
(40.0052 -2.32246e-07 0.00709517)
(40.0042 -2.61019e-07 0.00573265)
(40.0034 -2.72634e-07 0.0046009)
(40.0027 -2.6144e-07 0.00365761)
(40.0022 -2.24785e-07 0.00286622)
(40.0018 -1.64645e-07 0.00219518)
(40.0015 -8.85524e-08 0.00161712)
(40.0013 -1.00594e-08 0.00110799)
(40.0012 4.91695e-08 0.000646308)
(40.0011 4.89531e-08 0.000212383)
(40.0006 1.75011e-06 -0.00730663)
(40.0017 4.60684e-07 -0.00760479)
(40.003 2.94033e-07 -0.00821122)
(40.0043 2.95604e-07 -0.00914654)
(40.0059 3.20207e-07 -0.0104415)
(40.0077 3.47274e-07 -0.0121368)
(40.0099 3.75601e-07 -0.0142823)
(40.0126 4.08714e-07 -0.016935)
(40.0158 4.51229e-07 -0.0201563)
(40.0198 5.06954e-07 -0.024006)
(40.0247 5.75831e-07 -0.0285329)
(40.0307 6.34358e-07 -0.0337608)
(40.0381 7.37231e-07 -0.0396663)
(40.0472 7.24662e-07 -0.0461491)
(40.0583 7.23924e-07 -0.0529917)
(40.0716 5.84007e-07 -0.0598104)
(40.0874 4.75747e-07 -0.0660061)
(40.1057 2.75288e-07 -0.0707257)
(40.1261 -4.95912e-08 -0.0728725)
(40.1479 -3.34059e-07 -0.0711932)
(40.1697 -4.8142e-07 -0.0645062)
(40.1893 -3.31749e-07 -0.0520778)
(40.2043 -5.92136e-08 -0.0340834)
(40.2125 3.47943e-07 -0.0119525)
(40.2125 5.89859e-07 0.011718)
(40.2042 6.63045e-07 0.0338442)
(40.1891 5.18841e-07 0.0518294)
(40.1695 2.09016e-07 0.0642449)
(40.1477 1.21545e-08 0.0709154)
(40.1259 -1.40208e-07 0.0725758)
(40.1054 -2.10324e-07 0.0704073)
(40.0871 -1.46075e-07 0.0656629)
(40.0713 -4.57037e-08 0.0594383)
(40.058 -2.97659e-08 0.0525851)
(40.0469 -4.2041e-08 0.0457004)
(40.0378 -4.9798e-08 0.0391662)
(40.0305 -6.46237e-09 0.0331972)
(40.0245 -2.34421e-08 0.0278907)
(40.0197 -3.18266e-08 0.0232663)
(40.0158 -4.90184e-08 0.0192959)
(40.0127 -7.53499e-08 0.0159252)
(40.0102 -1.09975e-07 0.0130877)
(40.0082 -1.5062e-07 0.010714)
(40.0065 -1.93232e-07 0.00873708)
(40.0052 -2.32246e-07 0.00709512)
(40.0042 -2.61019e-07 0.00573261)
(40.0034 -2.72634e-07 0.00460088)
(40.0027 -2.6144e-07 0.0036576)
(40.0022 -2.24785e-07 0.00286622)
(40.0018 -1.64645e-07 0.00219519)
(40.0015 -8.85524e-08 0.00161714)
(40.0013 -1.00594e-08 0.00110801)
(40.0012 4.91695e-08 0.000646331)
(40.0011 4.89531e-08 0.000212396)
(40.0004 1.69736e-06 -0.00830512)
(40.0012 4.33039e-07 -0.00864903)
(40.0021 2.55198e-07 -0.00934926)
(40.0031 2.35676e-07 -0.0104316)
(40.0043 2.50554e-07 -0.0119349)
(40.0056 2.76245e-07 -0.0139115)
(40.0073 3.0924e-07 -0.0164268)
(40.0093 3.43375e-07 -0.019559)
(40.0119 3.86481e-07 -0.0233962)
(40.0151 4.41878e-07 -0.0280323)
(40.0192 5.09062e-07 -0.0335582)
(40.0244 5.95709e-07 -0.0400465)
(40.0311 6.42353e-07 -0.0475278)
(40.0395 6.45406e-07 -0.0559527)
(40.0503 6.34305e-07 -0.0651366)
(40.0639 5.13872e-07 -0.0746861)
(40.0807 3.90348e-07 -0.0839043)
(40.1012 1.08727e-07 -0.0916982)
(40.1252 -2.74008e-07 -0.0965176)
(40.1522 -6.15776e-07 -0.0964087)
(40.1803 -5.73437e-07 -0.0892851)
(40.2068 -5.87251e-07 -0.073523)
(40.2278 -1.34318e-07 -0.0488612)
(40.2396 4.6793e-07 -0.0172651)
(40.2396 8.73409e-07 0.0169816)
(40.2277 9.4116e-07 0.048572)
(40.2066 6.43045e-07 0.0732225)
(40.1801 9.46813e-08 0.0889685)
(40.1519 -7.33779e-08 0.0960721)
(40.125 -4.05435e-07 0.0961579)
(40.1009 -3.49901e-07 0.0913135)
(40.0804 -3.55901e-07 0.0834911)
(40.0635 -2.20218e-07 0.0742403)
(40.05 -1.81471e-07 0.0646522)
(40.0392 -1.26935e-07 0.0554216)
(40.0307 -1.27865e-07 0.0469394)
(40.0241 -1.27056e-07 0.0393873)
(40.019 -1.04805e-07 0.032811)
(40.0149 -1.0538e-07 0.027176)
(40.0118 -1.1517e-07 0.0224042)
(40.0093 -1.34482e-07 0.0183988)
(40.0073 -1.62476e-07 0.0150584)
(40.0058 -1.96661e-07 0.0122855)
(40.0046 -2.32919e-07 0.00999056)
(40.0036 -2.6548e-07 0.00809441)
(40.0028 -2.87493e-07 0.00652775)
(40.0022 -2.92016e-07 0.00523108)
(40.0018 -2.73572e-07 0.0041535)
(40.0014 -2.29968e-07 0.00325166)
(40.0011 -1.63813e-07 0.00248851)
(40.0009 -8.32539e-08 0.00183217)
(40.0008 -2.22994e-09 0.00125482)
(40.0007 5.71246e-08 0.000731769)
(40.0006 5.30956e-08 0.000240437)
(40.0004 1.69736e-06 -0.00830527)
(40.0012 4.33039e-07 -0.00864912)
(40.0021 2.55198e-07 -0.00934934)
(40.0031 2.35676e-07 -0.0104317)
(40.0043 2.56919e-07 -0.011935)
(40.0056 2.83874e-07 -0.0139116)
(40.0073 3.0924e-07 -0.0164269)
(40.0093 3.43375e-07 -0.019559)
(40.0119 3.86481e-07 -0.0233962)
(40.0151 4.41878e-07 -0.0280324)
(40.0192 5.09062e-07 -0.0335582)
(40.0244 5.66532e-07 -0.0400466)
(40.0311 6.42353e-07 -0.0475278)
(40.0395 6.92888e-07 -0.0559528)
(40.0503 6.34305e-07 -0.0651366)
(40.0639 5.13872e-07 -0.0746861)
(40.0807 2.04037e-07 -0.0839044)
(40.1012 -1.15155e-07 -0.0916984)
(40.1252 -4.03233e-07 -0.0965179)
(40.1522 -6.16046e-07 -0.0964092)
(40.1803 -8.55432e-07 -0.0892857)
(40.2068 -4.88005e-07 -0.0735235)
(40.2278 -4.7577e-08 -0.0488613)
(40.2396 4.7418e-07 -0.0172648)
(40.2396 8.70292e-07 0.0169823)
(40.2277 8.45969e-07 0.0485726)
(40.2066 5.43643e-07 0.0732228)
(40.1801 2.35915e-07 0.0889685)
(40.1519 -2.14101e-07 0.0960719)
(40.125 -1.47555e-07 0.0961576)
(40.1009 -2.38435e-07 0.0913132)
(40.0804 -1.69844e-07 0.0834909)
(40.0635 -2.20218e-07 0.0742401)
(40.05 -1.81471e-07 0.064652)
(40.0392 -1.74362e-07 0.0554215)
(40.0307 -1.27865e-07 0.0469393)
(40.0241 -9.80347e-08 0.0393872)
(40.019 -1.04805e-07 0.0328109)
(40.0149 -1.0538e-07 0.0271759)
(40.0118 -1.1517e-07 0.0224041)
(40.0093 -1.34482e-07 0.0183988)
(40.0073 -1.62476e-07 0.0150584)
(40.0058 -1.96661e-07 0.0122854)
(40.0046 -2.32919e-07 0.00999053)
(40.0036 -2.6548e-07 0.00809438)
(40.0028 -2.87493e-07 0.00652774)
(40.0022 -2.92016e-07 0.00523107)
(40.0018 -2.73572e-07 0.00415351)
(40.0014 -2.29968e-07 0.00325168)
(40.0011 -1.63813e-07 0.00248854)
(40.0009 -8.32539e-08 0.0018322)
(40.0008 -2.22994e-09 0.00125485)
(40.0007 5.71246e-08 0.000731795)
(40.0006 5.30956e-08 0.000240451)
(40.0002 1.59724e-06 -0.00895954)
(40.0007 3.68226e-07 -0.00933642)
(40.0012 2.17803e-07 -0.0101048)
(40.0017 2.28749e-07 -0.0112953)
(40.0024 2.61869e-07 -0.0129548)
(40.0032 2.95657e-07 -0.0151471)
(40.0043 3.2821e-07 -0.0179543)
(40.0056 3.67926e-07 -0.0214777)
(40.0073 4.16378e-07 -0.025837)
(40.0096 4.76476e-07 -0.0311691)
(40.0126 5.56481e-07 -0.0376213)
(40.0167 6.118e-07 -0.0453398)
(40.0222 6.88012e-07 -0.0544466)
(40.0296 6.96795e-07 -0.064998)
(40.0395 6.83416e-07 -0.0769183)
(40.0529 5.15281e-07 -0.0898952)
(40.0704 3.56693e-07 -0.103231)
(40.0931 -5.35547e-08 -0.115649)
(40.1215 -4.79386e-07 -0.125096)
(40.1552 -1.04e-06 -0.128646)
(40.1926 -1.21327e-06 -0.12271)
(40.2298 -8.67904e-07 -0.103873)
(40.2607 -1.99032e-07 -0.0705768)
(40.2785 6.16664e-07 -0.0252289)
(40.2784 1.27612e-06 0.0249053)
(40.2606 1.27604e-06 0.0702452)
(40.2296 8.64203e-07 0.103526)
(40.1924 1.53447e-07 0.122342)
(40.1549 -8.92872e-08 0.128254)
(40.1211 -4.88745e-07 0.124678)
(40.0928 -2.68366e-07 0.115202)
(40.0701 -3.29874e-07 0.102752)
(40.0525 -2.24439e-07 0.089382)
(40.0392 -2.08377e-07 0.0763644)
(40.0292 -1.25936e-07 0.0643951)
(40.0218 -1.55446e-07 0.0537837)
(40.0163 -1.08541e-07 0.0446022)
(40.0123 -1.17711e-07 0.0367907)
(40.0093 -1.06813e-07 0.0302228)
(40.007 -1.14182e-07 0.0247466)
(40.0053 -1.31434e-07 0.0202081)
(40.0041 -1.57584e-07 0.0164623)
(40.0031 -1.90062e-07 0.0133794)
(40.0023 -2.24585e-07 0.010846)
(40.0018 -2.55187e-07 0.00876489)
(40.0013 -2.74844e-07 0.00705365)
(40.001 -2.7658e-07 0.0056429)
(40.0007 -2.55154e-07 0.00447436)
(40.0005 -2.08851e-07 0.00349905)
(40.0004 -1.40867e-07 0.00267557)
(40.0003 -5.98834e-08 0.00196863)
(40.0002 1.97719e-08 0.00134767)
(40.0001 7.55575e-08 0.00078568)
(40.0001 6.28605e-08 0.000258115)
(40.0002 1.59724e-06 -0.00895971)
(40.0007 3.68226e-07 -0.00933651)
(40.0012 2.17803e-07 -0.0101049)
(40.0017 2.28749e-07 -0.0112954)
(40.0024 2.58036e-07 -0.0129548)
(40.0032 2.90929e-07 -0.0151471)
(40.0043 3.2821e-07 -0.0179544)
(40.0056 3.67926e-07 -0.0214777)
(40.0073 4.16378e-07 -0.025837)
(40.0096 4.76476e-07 -0.0311691)
(40.0126 5.39127e-07 -0.0376213)
(40.0167 6.35125e-07 -0.0453398)
(40.0222 6.88246e-07 -0.0544466)
(40.0296 7.39494e-07 -0.0649979)
(40.0395 6.83395e-07 -0.0769182)
(40.0529 5.91287e-07 -0.0898951)
(40.0704 2.571e-07 -0.103231)
(40.0931 -5.34655e-08 -0.115649)
(40.1214 -4.79261e-07 -0.125097)
(40.1552 -6.77149e-07 -0.128647)
(40.1926 -8.27364e-07 -0.12271)
(40.2298 -7.42545e-07 -0.103874)
(40.2607 -1.79459e-07 -0.0705768)
(40.2785 6.72128e-07 -0.0252284)
(40.2784 1.22331e-06 0.0249062)
(40.2606 1.2499e-06 0.0702459)
(40.2296 7.38711e-07 0.103527)
(40.1924 1.53597e-07 0.122341)
(40.1549 -4.51926e-07 0.128253)
(40.1211 -3.32134e-07 0.124677)
(40.0928 -5.22925e-07 0.115201)
(40.0701 -3.2979e-07 0.102752)
(40.0525 -3.00513e-07 0.0893817)
(40.0392 -2.08356e-07 0.0763642)
(40.0292 -2.10757e-07 0.0643949)
(40.0218 -1.23935e-07 0.0537835)
(40.0163 -1.318e-07 0.0446021)
(40.0123 -1.00456e-07 0.0367906)
(40.0093 -1.06813e-07 0.0302227)
(40.007 -1.14182e-07 0.0247465)
(40.0053 -1.31434e-07 0.020208)
(40.0041 -1.57584e-07 0.0164623)
(40.0031 -1.90062e-07 0.0133794)
(40.0023 -2.24585e-07 0.010846)
(40.0018 -2.55187e-07 0.00876488)
(40.0013 -2.74844e-07 0.00705364)
(40.001 -2.7658e-07 0.0056429)
(40.0007 -2.55154e-07 0.00447438)
(40.0005 -2.08851e-07 0.00349907)
(40.0004 -1.40867e-07 0.0026756)
(40.0003 -5.98834e-08 0.00196866)
(40.0002 1.97719e-08 0.0013477)
(40.0001 7.55575e-08 0.000785705)
(40.0001 6.28605e-08 0.000258128)
(40 1.53185e-06 -0.00923649)
(40.0001 3.47439e-07 -0.00963126)
(40.0002 1.86728e-07 -0.0104372)
(40.0003 1.72418e-07 -0.0116893)
(40.0004 1.97448e-07 -0.013441)
(40.0006 2.32912e-07 -0.0157669)
(40.001 2.73181e-07 -0.0187651)
(40.0015 3.18396e-07 -0.0225599)
(40.0022 3.74777e-07 -0.027305)
(40.0033 4.47812e-07 -0.0331855)
(40.005 5.37312e-07 -0.0404182)
(40.0076 6.16732e-07 -0.0492459)
(40.0114 7.10396e-07 -0.0599221)
(40.0171 7.66011e-07 -0.0726764)
(40.0254 7.08209e-07 -0.087646)
(40.0376 6.12599e-07 -0.104751)
(40.055 3.51274e-07 -0.123483)
(40.0794 -1.34519e-07 -0.142581)
(40.1123 -4.03821e-07 -0.159587)
(40.1546 -1.09843e-06 -0.170386)
(40.2052 -1.21285e-06 -0.169051)
(40.259 -1.04979e-06 -0.148701)
(40.3066 -2.71703e-07 -0.104357)
(40.3352 9.41324e-07 -0.037981)
(40.3352 1.72825e-06 0.0376314)
(40.3065 1.73148e-06 0.103995)
(40.2589 1.08563e-06 0.148316)
(40.2049 1.31167e-07 0.168637)
(40.1543 -6.30318e-07 0.169942)
(40.1119 -1.07159e-06 0.159111)
(40.079 -7.21554e-07 0.142074)
(40.0546 -6.46566e-07 0.122944)
(40.0372 -4.79856e-07 0.104177)
(40.025 -3.89954e-07 0.087032)
(40.0166 -3.39765e-07 0.0720139)
(40.011 -3.06845e-07 0.0591998)
(40.0071 -2.42554e-07 0.048449)
(40.0046 -2.1823e-07 0.0395281)
(40.0029 -1.95299e-07 0.0321787)
(40.0017 -1.89277e-07 0.0261524)
(40.001 -1.94893e-07 0.0212254)
(40.0005 -2.10829e-07 0.0172042)
(40.0002 -2.34185e-07 0.0139248)
(39.9999 -2.60345e-07 0.01125)
(39.9998 -2.83026e-07 0.00906633)
(39.9997 -2.94954e-07 0.00727986)
(39.9997 -2.89185e-07 0.00581327)
(39.9996 -2.60785e-07 0.0046027)
(39.9996 -2.08541e-07 0.00359522)
(39.9996 -1.36181e-07 0.00274661)
(39.9996 -5.26938e-08 0.0020195)
(39.9996 2.7652e-08 0.00138181)
(39.9996 8.22702e-08 0.000805326)
(39.9996 6.57492e-08 0.000264529)
(40 1.53185e-06 -0.0092367)
(40.0001 3.47439e-07 -0.00963136)
(40.0002 1.86728e-07 -0.0104373)
(40.0003 1.72418e-07 -0.0116893)
(40.0004 1.97448e-07 -0.013441)
(40.0006 2.32912e-07 -0.015767)
(40.001 2.73181e-07 -0.0187651)
(40.0015 3.21555e-07 -0.0225599)
(40.0022 3.79464e-07 -0.027305)
(40.0033 4.47812e-07 -0.0331854)
(40.005 5.27095e-07 -0.0404181)
(40.0076 6.32245e-07 -0.0492457)
(40.0114 7.10391e-07 -0.0599219)
(40.0171 7.66011e-07 -0.0726762)
(40.0254 8.08031e-07 -0.0876457)
(40.0376 6.84774e-07 -0.10475)
(40.055 4.53757e-07 -0.123482)
(40.0794 1.4843e-07 -0.142581)
(40.1123 -5.91832e-07 -0.159587)
(40.1546 -8.62842e-07 -0.170387)
(40.2052 -1.21285e-06 -0.169051)
(40.259 -8.61614e-07 -0.148702)
(40.3066 -3.32782e-08 -0.104357)
(40.3352 9.53308e-07 -0.0379804)
(40.3352 1.7125e-06 0.0376323)
(40.3065 1.48275e-06 0.103995)
(40.2589 6.5577e-07 0.148316)
(40.2049 -4.09108e-07 0.168637)
(40.1543 -8.66147e-07 0.169941)
(40.1119 -6.95609e-07 0.159111)
(40.079 -8.62915e-07 0.142073)
(40.0546 -6.46566e-07 0.122944)
(40.0372 -5.51753e-07 0.104177)
(40.025 -4.39616e-07 0.0870317)
(40.0166 -3.39845e-07 0.0720137)
(40.011 -2.61187e-07 0.0591996)
(40.0071 -2.42554e-07 0.0484489)
(40.0046 -2.07995e-07 0.039528)
(40.0029 -1.95299e-07 0.0321786)
(40.0017 -1.89277e-07 0.0261523)
(40.001 -1.94893e-07 0.0212253)
(40.0005 -2.10829e-07 0.0172041)
(40.0002 -2.34185e-07 0.0139248)
(39.9999 -2.60345e-07 0.01125)
(39.9998 -2.83026e-07 0.00906632)
(39.9997 -2.94954e-07 0.00727985)
(39.9997 -2.89185e-07 0.00581328)
(39.9996 -2.60785e-07 0.00460272)
(39.9996 -2.08541e-07 0.00359525)
(39.9996 -1.36181e-07 0.00274664)
(39.9996 -5.26938e-08 0.00201953)
(39.9996 2.7652e-08 0.00138184)
(39.9996 8.22702e-08 0.00080535)
(39.9996 6.57492e-08 0.000264541)
(39.9998 1.38525e-06 -0.00911801)
(39.9995 2.63481e-07 -0.0095137)
(39.9991 1.38865e-07 -0.0103227)
(39.9987 1.63436e-07 -0.0115826)
(39.9983 2.05756e-07 -0.0133521)
(39.9979 2.51644e-07 -0.0157138)
(39.9975 3.01781e-07 -0.0187786)
(39.9971 3.58821e-07 -0.0226913)
(39.9967 4.29262e-07 -0.0276371)
(39.9965 5.16228e-07 -0.0338499)
(39.9966 6.19655e-07 -0.0416206)
(39.9972 7.38448e-07 -0.0513045)
(39.9988 8.58414e-07 -0.0633216)
(40.0019 9.37977e-07 -0.0781432)
(40.0075 1.02188e-06 -0.0962443)
(40.017 9.21059e-07 -0.117987)
(40.0326 7.97374e-07 -0.143382)
(40.057 2.14377e-07 -0.171624)
(40.0937 -8.21869e-08 -0.200313)
(40.1458 -1.22822e-06 -0.224297)