/*--------------------------------*- C++ -*----------------------------------*\
| =========                 |                                                 |
| \\      /  F ield         | OpenFOAM: The Open Source CFD Toolbox           |
|  \\    /   O peration     | Version:  4.1                                   |
|   \\  /    A nd           | Web:      www.OpenFOAM.org                      |
|    \\/     M anipulation  |                                                 |
\*---------------------------------------------------------------------------*/
FoamFile
{
    version     2.0;
    format      ascii;
    class       volScalarField;
    location    "100";
    object      p;
}
// * * * * * * * * * * * * * * * * * * * * * * * * * * * * * * * * * * * * * //

dimensions      [0 2 -2 0 0 0 0];

internalField   nonuniform List<scalar> 
4432
(
100959
100960
100961
100963
100965
100968
100972
100977
100982
100988
100994
101001
101009
101017
101024
101032
101038
101042
101046
101055
101070
101086
101104
101124
101146
101170
101192
101210
101223
101235
101246
101257
101274
101295
101316
101328
101336
101344
101351
101357
101361
101365
101367
101369
101369
101368
101366
101362
101358
101353
101347
101341
101334
101329
100959
100960
100961
100963
100965
100968
100972
100977
100982
100988
100994
101001
101009
101017
101025
101032
101038
101042
101046
101055
101070
101087
101105
101125
101147
101171
101192
101210
101224
101237
101249
101261
101276
101295
101314
101327
101336
101344
101351
101357
101361
101364
101367
101369
101369
101368
101365
101361
101358
101352
101346
101341
101334
101329
100958
100958
100959
100961
100963
100966
100970
100974
100979
100985
100992
100999
101007
101016
101026
101038
101054
101071
101084
101093
101104
101119
101134
101148
101162
101176
101191
101207
101224
101239
101253
101266
101277
101287
101299
101311
101324
101338
101350
101360
101362
101362
101365
101368
101370
101369
101367
101364
101360
101357
101351
101341
101331
101328
100958
100958
100959
100961
100963
100966
100970
100974
100979
100985
100992
100999
101007
101016
101026
101038
101054
101071
101085
101094
101104
101118
101132
101145
101159
101174
101190
101206
101222
101237
101249
101259
101271
101288
101302
101314
101327
101339
101350
101359
101363
101363
101366
101369
101370
101369
101367
101364
101362
101359
101352
101340
101329
101328
100956
100957
100958
100960
100962
100965
100969
100973
100978
100984
100991
100998
101006
101015
101025
101037
101049
101061
101072
101085
101100
101115
101130
101144
101158
101174
101192
101210
101227
101244
101256
101268
101282
101298
101309
101317
101330
101345
101359
101369
101369
101367
101370
101374
101374
101372
101369
101365
101360
101355
101348
101341
101333
101329
100956
100957
100958
100960
100962
100965
100969
100973
100978
100984
100991
100998
101006
101015
101025
101037
101049
101061
101072
101085
101099
101114
101129
101142
101156
101173
101190
101208
101225
101242
101255
101265
101278
101294
101310
101320
101332
101346
101358
101367
101370
101368
101370
101374
101374
101372
101369
101366
101361
101356
101350
101341
101333
101329
100954
100955
100956
100958
100960
100963
100966
100971
100976
100981
100988
100995
101003
101012
101022
101032
101044
101055
101066
101080
101096
101111
101125
101139
101155
101174
101195
101214
101233
101252
101265
101280
101301
101316
101321
101320
101331
101347
101361
101372
101372
101371
101376
101379
101378
101375
101372
101368
101362
101354
101348
101344
101336
101329
100954
100955
100956
100958
100960
100963
100966
100971
100976
100981
100988
100995
101003
101012
101022
101032
101044
101055
101066
101080
101095
101110
101125
101138
101155
101174
101194
101213
101233
101252
101265
101279
101298
101313
101322
101326
101336
101348
101361
101370
101371
101371
101375
101378
101378
101375
101371
101367
101362
101356
101351
101345
101336
101328
100952
100952
100953
100955
100957
100960
100964
100968
100973
100978
100984
100991
100999
101008
101017
101028
101039
101050
101060
101072
101086
101101
101116
101132
101151
101174
101198
101221
101244
101264
101280
101299
101321
101337
101362
101309
101322
101348
101370
101386
101384
101378
101384
101385
101383
101380
101376
101371
101366
101359
101352
101346
101338
101330
100952
100952
100953
100955
100957
100960
100964
100968
100973
100978
100984
100991
100999
101008
101017
101028
101039
101050
101060
101071
101085
101101
101116
101132
101152
101175
101198
101221
101246
101267
101283
101299
101320
101333
101340
101334
101337
101353
101371
101383
101383
101380
101383
101385
101383
101380
101376
101371
101365
101360
101354
101346
101337
101330
100949
100949
100950
100952
100954
100957
100960
100964
100969
100974
100980
100987
100994
101003
101012
101021
101032
101042
101052
101064
101077
101092
101106
101122
101141
101166
101193
101219
101245
101269
101286
101305
101329
101399
101525
101358
101307
101328
101359
101369
101377
101397
101398
101394
101390
101385
101381
101375
101369
101362
101354
101346
101338
101331
100949
100949
100950
100952
100954
100957
100960
100964
100969
100974
100980
100987
100994
101003
101012
101021
101032
101042
101052
101064
101077
101092
101107
101122
101143
101167
101193
101218
101245
101270
101287
101301
101318
101349
101376
101343
101325
101346
101375
101395
101402
101393
101393
101392
101390
101386
101381
101376
101369
101361
101354
101347
101339
101331
100945
100945
100946
100948
100950
100952
100956
100960
100964
100969
100975
100982
100989
100997
101005
101015
101024
101035
101045
101055
101068
101083
101097
101111
101126
101149
101178
101203
101226
101249
101273
101300
101342
101504
101465
101441
101340
101352
101376
101385
101394
101409
101409
101402
101397
101393
101388
101381
101374
101366
101357
101348
101338
101332
100945
100945
100946
100948
100950
100952
100956
100960
100964
100969
100975
100982
100989
100997
101005
101015
101024
101034
101045
101056
101068
101083
101098
101112
101128
101151
101177
101200
101225
101250
101270
101291
101317
101366
101422
101387
101321
101340
101376
101393
101400
101403
101403
101400
101395
101391
101386
101380
101373
101364
101356
101347
101339
101331
100941
100941
100942
100943
100945
100948
100951
100955
100959
100964
100969
100975
100982
100990
100998
101007
101017
101027
101037
101047
101059
101072
101085
101097
101107
101124
101150
101173
101192
101209
101231
101263
101294
101350
101399
101413
101356
101365
101389
101402
101408
101411
101411
101406
101401
101396
101391
101384
101375
101366
101357
101347
101336
101331
100941
100941
100942
100943
100945
100948
100951
100955
100959
100964
100969
100975
100982
100990
100998
101007
101017
101026
101037
101047
101059
101071
101085
101098
101110
101127
101149
101169
101189
101211
101231
101257
101296
101338
101377
101367
101348
101364
101390
101404
101409
101411
101408
101404
101399
101394
101389
101382
101374
101365
101356
101346
101337
101331
100936
100936
100937
100938
100940
100943
100945
100949
100953
100957
100963
100969
100975
100983
100991
100999
101008
101018
101028
101038
101048
101059
101069
101079
101086
101094
101111
101133
101156
101178
101203
101231
101272
101317
101357
101360
101361
101379
101400
101412
101415
101416
101415
101411
101405
101399
101393
101386
101378
101368
101357
101347
101336
101331
100936
100936
100937
100938
100940
100943
100945
100949
100953
100957
100963
100969
100975
100983
100991
100999
101008
101018
101028
101038
101049
101059
101069
101078
101086
101096
101112
101132
101153
101176
101201
101233
101275
101317
101350
101364
101371
101387
101405
101416
101419
101418
101416
101411
101406
101400
101394
101387
101378
101368
101358
101347
101338
101332
100931
100931
100932
100933
100935
100937
100939
100942
100946
100951
100955
100961
100967
100974
100982
100990
100999
101009
101019
101029
101038
101046
101052
101057
101059
101061
101073
101097
101126
101155
101184
101220
101264
101308
101348
101372
101390
101408
101423
101432
101435
101433
101430
101424
101417
101409
101401
101392
101382
101371
101360
101348
101337
101331
100931
100931
100932
100933
100935
100937
100939
100942
100946
100951
100955
100961
100967
100974
100982
100990
100999
101009
101019
101029
101038
101046
101052
101055
101057
101061
101074
101098
101126
101154
101185
101221
101264
101309
101347
101374
101393
101411
101427
101437
101439
101437
101433
101427
101420
101411
101402
101393
101383
101372
101360
101349
101338
101334
100925
100925
100926
100927
100928
100930
100933
100936
100939
100943
100947
100953
100958
100965
100973
100981
100990
101000
101010
101020
101028
101035
101036
101032
101023
101018
101033
101065
101102
101138
101174
101215
101259
101306
101349
101384
101412
101435
101453
101462
101463
101458
101450
101440
101430
101419
101408
101396
101385
101374
101361
101349
101336
101330
100925
100925
100926
100927
100928
100930
100933
100936
100939
100943
100947
100953
100958
100965
100973
100981
100990
101000
101010
101020
101028
101034
101036
101031
101021
101018
101034
101067
101102
101138
101175
101216
101261
101307
101349
101384
101412
101435
101454
101464
101465
101460
101452
101442
101432
101420
101409
101398
101387
101375
101362
101350
101334
101334
100919
100919
100920
100921
100922
100924
100926
100928
100931
100935
100939
100943
100949
100955
100962
100970
100979
100990
101001
101012
101022
101028
101026
101009
100975
100956
100978
101025
101072
101113
101154
101200
101249
101301
101350
101393
101430
101461
101482
101492
101491
101481
101468
101454
101441
101427
101414
101400
101387
101375
101362
101349
101334
101331
100919
100919
100920
100921
100922
100924
100926
100928
100931
100935
100939
100943
100949
100955
100962
100970
100979
100990
101001
101012
101022
101028
101025
101009
100973
100955
100980
101026
101072
101113
101154
101201
101250
101301
101350
101393
101430
101461
101483
101494
101492
101482
101469
101455
101442
101429
101415
101402
101389
101376
101362
101350
101331
101336
100913
100913
100913
100914
100915
100916
100918
100920
100923
100926
100929
100933
100938
100944
100951
100959
100968
100979
100992
101006
101020
101030
101026
100993
100911
100874
100910
100976
101035
101080
101125
101175
101231
101290
101348
101402
101451
101491
101518
101528
101521
101504
101485
101468
101450
101433
101417
101402
101388
101375
101361
101349
101332
101332
100913
100913
100913
100914
100915
100916
100918
100920
100923
100926
100929
100933
100938
100944
100951
100959
100968
100979
100992
101006
101020
101030
101025
100990
100905
100872
100914
100980
101036
101080
101125
101176
101231
101290
101347
101402
101452
101492
101520
101528
101521
101505
101487
101470
101452
101434
101417
101402
101389
101375
101361
101348
101329
101332
100906
100906
100906
100907
100908
100909
100910
100912
100914
100916
100919
100923
100927
100932
100938
100945
100954
100966
100981
101000
101025
101053
101066
101006
100822
100727
100814
100925
100996
101038
101085
101141
101204
101270
101339
101408
101473
101524
101564
101572
101555
101528
101502
101479
101458
101437
101418
101402
101388
101374
101359
101347
101329
101333
100906
100906
100906
100907
100908
100909
100910
100912
100914
100916
100919
100923
100927
100932
100938
100945
100954
100966
100981
101000
101025
101053
101068
101004
100804
100730
100822
100925
100994
101039
101085
101141
101204
101270
101339
101405
101473
101525
101579
101583
101559
101526
101498
101475
101455
101435
101417
101401
101387
101373
101360
101346
101331
101330
100899
100899
100899
100900
100900
100901
100902
100903
100904
100906
100908
100911
100914
100918
100923
100930
100938
100949
100965
100988
101024
101090
101154
101144
100586
100490
100650
100877
100967
100990
101032
101095
101164
101238
101319
101404
101488
101549
101619
101630
101591
101540
101505
101481
101458
101435
101415
101398
101384
101371
101358
101346
101332
101331
100899
100899
100899
100900
100900
100901
100902
100903
100904
100906
100908
100911
100914
100918
100923
100930
100938
100949
100965
100988
101024
101088
101152
101134
100513
100549
100698
100883
100964
100993
101035
101096
101165
101238
101322
101409
101499
101534
101615
101631
101586
101533
101502
101480
101457
101434
101414
101397
101383
101370
101357
101346
101334
101329
100892
100892
100892
100892
100893
100893
100893
100894
100895
100896
100897
100899
100901
100903
100907
100912
100918
100927
100940
100960
100990
101038
101155
101441
100434
100620
100851
100935
100935
100963
101023
101097
101180
101277
101384
101500
101545
101625
101683
101630
101552
101507
101480
101453
101428
101406
101389
101375
101362
101352
101343
101334
101327
100892
100892
100892
100892
100893
100893
100893
100894
100895
100896
100897
100899
100901
100903
100907
100912
100918
100927
100940
100960
100989
101037
101153
101429
100403
100636
100856
100937
100941
100969
101028
101099
101182
101270
101393
101510
101510
101510
101655
101618
101552
101509
101479
101450
101425
101405
101388
101374
101362
101352
101343
101335
101327
100885
100885
100885
100885
100885
100885
100885
100885
100885
100885
100885
100886
100886
100888
100889
100892
100896
100901
100908
100916
100925
100923
100885
100813
100525
100531
100803
100953
100952
100914
100914
100948
101002
101079
101181
101292
101420
101463
101536
101726
101673
101586
101520
101472
101435
101407
101387
101371
101358
101349
101341
101335
101331
101325
100885
100885
100885
100885
100885
100885
100885
100885
100885
100885
100885
100886
100886
100888
100889
100892
100896
100901
100908
100916
100925
100922
100883
100803
100520
100574
100828
100955
100947
100914
100918
100953
101003
101070
101126
101286
101309
101551
101491
101541
101577
101557
101515
101470
101433
101406
101386
101371
101359
101349
101342
101335
101331
101325
100878
100878
100878
100878
100877
100877
100876
100875
100875
100874
100873
100872
100871
100871
100871
100870
100871
100871
100871
100870
100863
100846
100813
100747
100674
100683
100825
100901
100904
100891
100884
100885
100901
100952
101104
101266
101256
101479
101778
101621
101588
101558
101498
101440
101398
101374
101359
101348
101339
101333
101330
101327
101327
101323
100878
100878
100878
100878
100877
100877
100876
100875
100875
100874
100873
100872
100871
100871
100871
100870
100871
100871
100871
100870
100863
100846
100812
100746
100671
100689
100825
100896
100900
100888
100883
100886
100897
100926
100968
101182
101016
101456
101911
100999
101403
101534
101501
101446
101401
101375
101359
101348
101339
101334
101330
101327
101326
101323
100871
100871
100871
100870
100869
100868
100867
100866
100864
100863
100861
100859
100856
100854
100851
100848
100845
100841
100835
100827
100816
100797
100771
100731
100685
100677
100721
100769
100799
100814
100818
100810
100792
100780
100873
101136
102159
101494
100702
100973
101429
101523
101465
101400
101358
101339
101329
101322
101318
101317
101318
101320
101322
101322
100871
100871
100871
100870
100869
100868
100867
100866
100864
100863
100861
100859
100856
100854
100851
100848
100845
100841
100835
100827
100815
100797
100770
100731
100684
100678
100721
100768
100797
100811
100816
100809
100794
100714
100839
101144
101686
99922.3
100380
99811.1
100487
101359
101461
101410
101363
101339
101329
101322
101318
101317
101318
101320
101322
101322
100865
100864
100864
100863
100862
100861
100859
100857
100854
100852
100849
100845
100841
100837
100832
100826
100819
100811
100802
100789
100773
100752
100724
100690
100655
100636
100646
100671
100692
100705
100710
100703
100608
100642
100712
99884.6
99519.8
99305.2
99280.3
99709.9
100522
101279
101387
101321
101296
101290
101289
101290
101294
101299
101305
101311
101317
101320
100865
100864
100864
100863
100862
100861
100859
100857
100854
100852
100849
100845
100841
100837
100832
100826
100819
100811
100802
100789
100773
100751
100724
100690
100655
100638
100648
100672
100691
100703
100710
100709
100710
100714
100653
100321
102577
99939.7
99463.2
99378.3
99931.8
100796
101306
101327
101291
101285
101287
101290
101294
101299
101306
101311
101318
101321
100858
100858
100857
100856
100855
100853
100851
100848
100845
100841
100837
100832
100826
100820
100813
100804
100795
100783
100769
100753
100732
100708
100678
100645
100613
100590
100581
100581
100581
100583
100584
100610
100384
100588
101077
100835
99396.2
99237.8
99466.5
99715.8
100134
100746
101133
101187
101216
101232
101243
101256
101269
101281
101292
101302
101312
101319
100858
100858
100857
100856
100855
100853
100851
100848
100845
100841
100837
100832
100826
100820
100813
100804
100795
100783
100769
100753
100732
100708
100678
100645
100613
100590
100581
100581
100579
100577
100574
100614
100572
100631
100968
100562
100866
99661.4
99659.6
99825.8
100287
100739
100989
101121
101203
101231
101244
101257
101269
101281
101292
101303
101312
101318
100852
100852
100851
100850
100848
100846
100843
100839
100835
100831
100825
100819
100812
100804
100794
100784
100771
100756
100739
100718
100694
100666
100634
100598
100562
100528
100500
100476
100453
100448
100464
100700
100513
99737.1
100084
100517
99635.5
99435.3
99602.1
99840.6
100079
100348
100910
101073
101152
101181
101201
101224
101245
101263
101279
101293
101309
101317
100852
100852
100851
100850
100848
100846
100843
100839
100835
100831
100825
100819
100812
100804
100794
100784
100771
100756
100739
100718
100694
100666
100634
100598
100562
100529
100500
100475
100448
100425
100392
100437
100672
100010
97279.8
98246.7
99318.3
99429.5
99666.6
99937.6
100273
100489
100782
101021
101143
101182
101204
101225
101246
101263
101279
101293
101308
101317
100847
100846
100845
100844
100842
100839
100835
100831
100827
100821
100815
100807
100799
100789
100777
100764
100749
100731
100710
100686
100658
100626
100589
100548
100503
100456
100407
100356
100304
100273
100330
100529
100837
99974
99320.8
99398.1
99394.3
99451
99476.9
99546.8
99820.4
100126
100613
100979
101101
101139
101165
101194
101222
101246
101266
101284
101304
101314
100847
100846
100845
100844
100842
100839
100835
100831
100827
100821
100815
100807
100799
100789
100777
100764
100749
100731
100710
100686
100658
100626
100589
100548
100503
100456
100406
100355
100296
100246
100167
100396
100604
100069
98401.2
98925.7
99334.8
99473.1
99489.7
99557
99903.6
100235
100584
100943
101090
101136
101166
101195
101223
101246
101266
101284
101304
101315
100842
100841
100840
100838
100836
100833
100829
100824
100819
100812
100805
100796
100786
100775
100762
100746
100729
100708
100684
100657
100624
100587
100545
100496
100441
100378
100308
100219
100123
99921.4
100115
100089
100612
94636
96388.7
98555.1
99310
99543.1
99386.1
99260.9
99553.5
100033
100532
100873
101017
101083
101126
101167
101202
101230
101254
101275
101298
101311
100842
100841
100840
100838
100836
100833
100829
100824
100819
100812
100805
100796
100786
100775
100762
100746
100729
100708
100684
100657
100624
100587
100545
100496
100441
100379
100307
100223
100120
99982.2
99879.1
99977.4
98696.2
98689.6
98744.1
99069.6
99490.7
99625
99388.6
99215.1
99564.4
100104
100559
100866
101010
101078
101126
101168
101202
101231
101254
101275
101297
101310
100837
100837
100835
100833
100831
100827
100823
100818
100812
100805
100796
100787
100775
100763
100748
100730
100711
100687
100661
100630
100594
100552
100503
100447
100381
100303
100211
100090
99937.6
99650.5
99246.6
100407
96897.6
95126.8
96997.8
98869.1
99840.8
100025
99605.2
99277.6
99523.9
100003
100450
100757
100921
101026
101092
101145
101188
101220
101247
101269
101293
101307
100837
100837
100835
100833
100831
100827
100823
100818
100812
100805
100796
100787
100775
100763
100748
100730
100711
100688
100661
100630
100594
100552
100503
100447
100381
100303
100210
100101
99946.3
99724.4
99450.2
99154.6
97670.5
96576.7
98100.3
99279.4
100032
100113
99607.5
99232.6
99517
100074
100511
100761
100915
101019
101090
101146
101188
101220
101247
101270
101294
101306
100833
100833
100832
100829
100826
100823
100818
100812
100806
100798
100789
100778
100766
100752
100736
100717
100695
100670
100640
100606
100566
100520
100466
100402
100326
100235
100123
99983.5
99795.7
99536.1
99080.7
98877.2
100349
100222
99842.5
100311
100854
100720
99970.9
99349.6
99470.2
99917.8
100339
100658
100856
100984
101069
101135
101183
101216
101244
101268
101294
101304
100833
100833
100832
100829
100826
100823
100818
100812
100806
100798
100789
100778
100766
100752
100736
100717
100695
100670
100640
100606
100566
100520
100466
100402
100325
100234
100117
99986.4
99819.9
99606.3
99331.6
98730.4
98142.6
98740.2
99581.6
100435
101015
100798
99972.3
99311.1
99453.7
99966
100386
100658
100847
100976
101063
101134
101182
101215
101243
101268
101297
101307
100830
100830
100828
100826
100823
100819
100814
100808
100801
100792
100783
100771
100758
100743
100726
100705
100682
100655
100623
100587
100544
100494
100435
100365
100281
100179
100055
99903.8
99700.7
99441.7
99053.4
98605.1
98992.5
99845.4
99722.3
100168
100857
100858
100162
99369.3
99392.4
99848.1
100316
100634
100823
100954
101056
101133
101182
101214
101241
101264
101293
101302
100830
100830
100828
100826
100823
100819
100814
100808
100801
100792
100783
100771
100758
100743
100726
100705
100682
100655
100623
100587
100544
100494
100435
100364
100280
100174
100053
99904.1
99703.7
99449.9
99234.9
98462.2
98416.2
99141.9
99672
100442
100984
100858
100175
99394.2
99368.4
99855.6
100339
100645
100824
100949
101049
101130
101181
101213
101239
101262
101293
101309
100828
100827
100826
100823
100820
100816
100810
100804
100797
100788
100778
100766
100752
100736
100718
100697
100672
100643
100610
100571
100526
100473
100410
100336
100247
100140
100011
99849.1
99641.1
99380.4
99071.3
98638.1
98444.2
98670.1
98260.6
98980.5
99866
100320
100214
99731.2
99638.1
100004
100422
100718
100855
100967
101071
101143
101189
101218
101238
101252
101277
101299
100828
100827
100826
100823
100820
100816
100810
100804
100797
100788
100778
100766
100752
100736
100718
100697
100672
100643
100610
100571
100526
100473
100410
100336
100247
100140
100017
99853.8
99634.3
99369.5
99049.2
98604.8
98514.9
98620.9
98885.9
99408.6
99575.8
99941.3
100051
99795.4
99676.6
99982.5
100415
100733
100878
100968
101063
101143
101189
101214
101236
101252
101275
101302
100827
100826
100825
100822
100818
100814
100809
100802
100794
100785
100775
100763
100748
100732
100713
100691
100665
100636
100601
100561
100514
100459
100394
100317
100225
100114
99979.4
99814.2
99609.2
99358.5
99074.3
98732.3
98449.2
98083.5
97424.3
97332.5
96827.7
96889.1
97311.7
98434.5
99302.2
100085
100530
100817
100978
101085
101161
101205
101231
101246
101251
101247
101251
101288
100827
100826
100825
100822
100818
100814
100809
100802
100794
100785
100775
100763
100748
100732
100713
100691
100665
100636
100601
100561
100514
100459
100394
100317
100225
100114
99981.2
99820.1
99609.8
99343.7
99079.8
98754.5
98428.8
98181.7
97796.5
97164.9
96389.9
96503.6
97061.8
98284.7
99368.5
100092
100527
100814
100976
101086
101159
101205
101228
101241
101252
101251
101254
101289
100825
100825
100823
100821
100817
100813
100807
100801
100793
100784
100773
100761
100746
100729
100710
100688
100662
100632
100597
100556
100508
100452
100385
100307
100213
100100
99963.3
99797.5
99596
99355.3
99078.9
98758.7
98383.8
97982.8
97516.9
96567.3
94880.3
94200.3
94686.2
96348.5
98212.3
99492.6
100204
100596
100887
101090
101185
101222
101242
101253
101253
101247
101236
101272
100825
100825
100823
100821
100817
100813
100807
100801
100793
100784
100773
100761
100746
100729
100710
100688
100662
100632
100597
100556
100508
100452
100385
100307
100213
100100
99963.9
99799.4
99597.2
99355.1
99086.4
98802.3
98507.6
98064.3
97178.2
95939
94895.1
94360.6
94766.6
96262.3
98136.8
99491.5
100210
100588
100860
101076
101189
101220
101238
101252
101253
101247
101241
101272
100670
101138
100626
101551
101559
100595
100529
100572
100460
100427
100610
101133
100572
101555
101519
100564
100452
100550
100420
100403
101446
100876
100554
100867
100496
100512
100440
100527
100394
100465
100388
101414
100864
100480
100863
100473
100422
100409
100443
100396
100437
100411
100925
101004
100920
101046
100920
101044
100913
100762
100813
100755
100722
100650
100702
100630
100913
101002
100909
101041
100887
101041
100871
100752
100801
100750
100667
100613
100650
100610
101217
101154
101215
101204
101351
101204
101353
100537
100668
100580
100677
100558
100573
100524
100605
100412
100431
100393
100435
101212
101151
101211
101203
101343
101200
101349
100448
100601
100489
100580
100451
100624
100555
100633
100391
100452
100410
100493
101247
101155
101249
101026
101012
101026
101009
100678
101454
101147
101146
100724
100438
100466
100461
100408
100461
100431
100486
100424
100491
101240
101151
101246
101023
101005
101022
101006
100664
101427
101136
100671
101135
100400
100406
100472
100415
100495
100440
100512
100462
100529
100671
100809
100665
100776
100681
100776
100682
100387
100522
100419
100590
100567
100592
100578
100657
100802
100656
100775
100682
100775
100683
100450
100520
100458
100595
100587
100597
100589
100986
100896
100660
100891
101023
100985
100647
100876
100885
100973
101367
101463
101565
101471
101381
101152
101191
101368
101473
101562
101470
101376
101153
101153
100507
100555
100616
100645
100453
100539
100558
100535
100465
100452
100460
100548
100514
100465
100518
100437
100431
100443
100467
100972
100855
100593
100843
100972
100969
100573
100837
100826
100967
101388
101474
101548
101387
101478
101198
101195
101387
101466
101535
101467
101359
101223
101151
100414
100468
100528
100559
100333
100456
100465
100449
100436
100408
100462
100427
100433
100382
100450
100432
100403
100423
100452
100347
100401
100674
101449
101144
101142
100672
100343
100333
100378
100653
100538
100650
100430
100374
100517
100625
100360
100638
100452
100493
100472
100446
100477
100422
100408
100433
100457
100402
100414
100412
100430
100503
100518
100503
100439
100424
100493
100464
100421
100488
100326
100334
100655
101425
101135
101139
100681
100318
100358
100348
100617
100466
100358
100609
100337
100464
100601
100606
100379
100405
100409
100389
100409
100389
100406
100413
100407
100407
100393
100389
100403
100404
100442
100426
100416
100431
100395
100425
100431
100429
100381
101204
101062
101142
101286
101058
101287
101210
101177
101036
101132
101274
101030
101169
101281
101201
101140
101050
101283
101055
101286
101198
100582
100631
100590
100480
100627
100484
100586
100550
100581
100581
100476
100604
100484
100508
101192
101140
101046
101301
101043
101293
101198
100503
100572
100553
100472
100560
100501
100461
100507
100547
100546
100462
100551
100465
100489
100784
100956
100790
100873
100951
100789
100791
100777
100946
100870
100777
100946
100775
100783
100395
100402
100425
100387
100387
100419
100405
100381
100374
100381
100416
100375
100381
100416
100764
100942
100772
100861
100771
100939
100767
100756
100947
100862
100761
100944
100764
100760
100380
100373
100410
100402
100380
100377
100407
100371
100383
100408
100384
100380
100392
100368
100521
100621
100405
100553
100638
100485
100448
100262
100143
100110
100277
100263
100081
100096
100229
100508
100553
100627
100451
100635
100457
100499
100342
100540
100454
100182
100547
100323
100211
100054
99953.2
100085
99927.6
100352
100454
100543
100245
100370
100544
100230
100029
99880.4
99906
100001
101124
100901
100922
100681
100899
101121
100926
101358
101591
101604
101366
101350
101588
101592
101346
101137
100681
100944
100933
100914
100931
101134
100447
100461
101123
100898
100666
100914
100897
101120
100914
101351
101595
101594
101344
101346
101591
101591
101335
101125
100668
100905
100919
101122
100902
100915
100402
100404
100515
100927
100545
100989
100931
100509
100550
100317
100176
100149
100339
100306
100121
100127
100302
100507
100989
100932
100589
100932
100546
100573
100498
100923
100541
100985
100504
100919
100533
100267
100037
100062
100247
100281
100103
100294
100081
100489
100981
100905
100503
100916
100519
100471
101602
101427
101577
101365
101427
101575
101600
101670
101663
101677
101657
101660
101659
101666
101655
101612
101375
101426
101587
101431
101591
101591
101149
101157
101604
101427
101374
101580
101431
101600
101584
101664
101673
101678
101663
101609
101377
101431
101608
101433
101587
101621
101660
101660
101656
101662
101154
101150
100417
100596
100353
100485
100450
100576
100313
100131
99976.5
100109
100002
100150
100050
100187
100021
100395
100460
100541
100270
100381
100550
100289
100549
100552
100489
100519
100503
100543
100524
100505
100487
100496
100525
100533
100496
100485
100504
100479
100521
100497
100544
100529
100516
100527
100510
100499
100490
100470
100472
100507
100498
100493
100496
100477
100483
100456
100456
100452
100462
100463
100480
100473
100463
100482
100473
100456
100461
100481
100466
100469
100436
100870
100982
100499
100886
100416
100504
100216
100018
100001
100228
100438
100975
100889
100514
100884
100450
100503
100210
99961.4
99983.6
100194
100376
100851
100500
100968
100384
100848
100503
100167
99996.6
99934.2
100226
100164
99948.6
100178
99926.3
100371
100930
100851
100508
100841
100474
100454
101668
101398
101427
101727
101434
101671
101672
101726
101689
101690
101707
101667
101398
101423
101678
101425
101657
101680
101724
101698
101691
101733
101190
101203
101623
101412
101697
101372
101409
101635
101687
101728
101628
101697
101639
101709
101681
101706
101693
101631
101359
101408
101663
101413
101746
101600
101210
101161
100286
100523
100118
100373
100295
100516
100078
99912.7
99909.3
99829.5
99978.9
99946.5
99861.6
99969.9
99830.4
100228
100333
100454
100045
100479
100042
100238
100463
100466
100432
100454
100447
100442
100453
100446
100427
100443
100453
100450
100445
100441
100457
100467
100456
100448
100460
100450
100434
100429
100428
100437
100400
100375
100428
100446
100436
100452
100458
100423
100436
100429
100421
100420
100433
100427
100424
100423
100423
100431
100444
100458
100443
100459
100436
100432
100352
100347
101123
100901
100918
100675
101119
100901
100921
101345
101587
101341
101585
101348
101588
101345
101589
101125
100674
100898
100923