/*--------------------------------*- C++ -*----------------------------------*\
| =========                 |                                                 |
| \\      /  F ield         | OpenFOAM: The Open Source CFD Toolbox           |
|  \\    /   O peration     | Version:  4.1                                   |
|   \\  /    A nd           | Web:      www.OpenFOAM.org                      |
|    \\/     M anipulation  |                                                 |
\*---------------------------------------------------------------------------*/
FoamFile
{
    version     2.0;
    format      ascii;
    class       volScalarField;
    location    "73";
    object      p;
}
// * * * * * * * * * * * * * * * * * * * * * * * * * * * * * * * * * * * * * //

dimensions      [0 2 -2 0 0 0 0];

internalField   nonuniform List<scalar> 
4432
(
-3.71345e+10
-3.73656e+10
-3.77845e+10
-3.7737e+10
-3.77901e+10
-3.79428e+10
-3.80412e+10
-3.8124e+10
-3.81955e+10
-3.82625e+10
-3.83258e+10
-3.83818e+10
-3.84238e+10
-3.84471e+10
-3.84514e+10
-3.84363e+10
-3.83975e+10
-3.83331e+10
-3.82434e+10
-3.81301e+10
-3.79952e+10
-3.78425e+10
-3.76768e+10
-3.75033e+10
-3.73271e+10
-3.7153e+10
-3.69853e+10
-3.68288e+10
-3.66876e+10
-3.65669e+10
-3.64711e+10
-3.64041e+10
-3.6368e+10
-3.63602e+10
-3.63737e+10
-3.63961e+10
-3.64132e+10
-3.64121e+10
-3.63862e+10
-3.63395e+10
-3.62864e+10
-3.62488e+10
-3.62497e+10
-3.63185e+10
-3.65131e+10
-3.69032e+10
-3.73915e+10
-3.73984e+10
-3.60537e+10
-3.40028e+10
-3.59166e+10
-4.69944e+10
-5.74516e+10
-2.8352e+10
-3.73473e+10
-3.73919e+10
-3.76382e+10
-3.77876e+10
-3.7819e+10
-3.79408e+10
-3.80488e+10
-3.81289e+10
-3.81982e+10
-3.82677e+10
-3.83351e+10
-3.83939e+10
-3.84376e+10
-3.84625e+10
-3.84686e+10
-3.84546e+10
-3.84162e+10
-3.83521e+10
-3.82632e+10
-3.81507e+10
-3.80166e+10
-3.78647e+10
-3.76994e+10
-3.75261e+10
-3.73497e+10
-3.7175e+10
-3.70062e+10
-3.6848e+10
-3.67044e+10
-3.65805e+10
-3.64806e+10
-3.64085e+10
-3.63662e+10
-3.63515e+10
-3.63576e+10
-3.6373e+10
-3.6383e+10
-3.63753e+10
-3.63429e+10
-3.62897e+10
-3.62307e+10
-3.6188e+10
-3.61848e+10
-3.62503e+10
-3.64421e+10
-3.68282e+10
-3.72982e+10
-3.7215e+10
-3.55421e+10
-3.26516e+10
-3.33387e+10
-4.50073e+10
-5.97475e+10
-3.54119e+10
-3.75305e+10
-3.75222e+10
-3.76582e+10
-3.78599e+10
-3.79043e+10
-3.79828e+10
-3.80996e+10
-3.81852e+10
-3.82589e+10
-3.83329e+10
-3.84035e+10
-3.84703e+10
-3.85247e+10
-3.85577e+10
-3.85675e+10
-3.85559e+10
-3.8521e+10
-3.84588e+10
-3.83695e+10
-3.82533e+10
-3.81123e+10
-3.79501e+10
-3.77716e+10
-3.75833e+10
-3.73912e+10
-3.72017e+10
-3.70194e+10
-3.68496e+10
-3.66964e+10
-3.65648e+10
-3.64588e+10
-3.63822e+10
-3.63372e+10
-3.63219e+10
-3.63295e+10
-3.6349e+10
-3.6367e+10
-3.63713e+10
-3.63551e+10
-3.63216e+10
-3.62848e+10
-3.62646e+10
-3.62802e+10
-3.63574e+10
-3.65554e+10
-3.69449e+10
-3.73849e+10
-3.71349e+10
-3.51107e+10
-3.2103e+10
-3.37774e+10
-4.67373e+10
-6.09418e+10
-3.76639e+10
-3.75304e+10
-3.75765e+10
-3.77273e+10
-3.78536e+10
-3.79125e+10
-3.79971e+10
-3.81134e+10
-3.81947e+10
-3.82688e+10
-3.83427e+10
-3.84152e+10
-3.8483e+10
-3.85368e+10
-3.85681e+10
-3.85767e+10
-3.8565e+10
-3.85293e+10
-3.84658e+10
-3.83758e+10
-3.82591e+10
-3.81175e+10
-3.79546e+10
-3.77753e+10
-3.7586e+10
-3.73928e+10
-3.7202e+10
-3.70181e+10
-3.68466e+10
-3.66913e+10
-3.65573e+10
-3.64485e+10
-3.63686e+10
-3.63193e+10
-3.62986e+10
-3.63002e+10
-3.63132e+10
-3.6324e+10
-3.63208e+10
-3.6297e+10
-3.62558e+10
-3.62108e+10
-3.61816e+10
-3.6187e+10
-3.62529e+10
-3.64386e+10
-3.68138e+10
-3.72268e+10
-3.68869e+10
-3.46121e+10
-3.13608e+10
-3.39643e+10
-4.97245e+10
-6.21001e+10
-3.02758e+10
-3.77976e+10
-3.78009e+10
-3.77379e+10
-3.79037e+10
-3.79783e+10
-3.80397e+10
-3.81239e+10
-3.82059e+10
-3.82837e+10
-3.8359e+10
-3.84313e+10
-3.85017e+10
-3.85601e+10
-3.85963e+10
-3.86096e+10
-3.86022e+10
-3.85726e+10
-3.85171e+10
-3.84347e+10
-3.83237e+10
-3.81842e+10
-3.80186e+10
-3.78321e+10
-3.76315e+10
-3.74243e+10
-3.72182e+10
-3.70191e+10
-3.68324e+10
-3.6663e+10
-3.65159e+10
-3.63954e+10
-3.6304e+10
-3.62421e+10
-3.62079e+10
-3.61959e+10
-3.61959e+10
-3.61965e+10
-3.61879e+10
-3.61663e+10
-3.61371e+10
-3.61139e+10
-3.61133e+10
-3.61514e+10
-3.6257e+10
-3.65064e+10
-3.69999e+10
-3.76014e+10
-3.74823e+10
-3.54031e+10
-3.22305e+10
-3.40676e+10
-4.73684e+10
-5.97593e+10
-3.00617e+10
-3.77221e+10
-3.78027e+10
-3.78447e+10
-3.78762e+10
-3.79548e+10
-3.80391e+10
-3.81247e+10
-3.82007e+10
-3.82791e+10
-3.8354e+10
-3.84267e+10
-3.84965e+10
-3.85547e+10
-3.85912e+10
-3.86055e+10
-3.86007e+10
-3.85726e+10
-3.85174e+10
-3.84344e+10
-3.83222e+10
-3.81811e+10
-3.80136e+10
-3.78249e+10
-3.76223e+10
-3.74136e+10
-3.72065e+10
-3.70072e+10
-3.68212e+10
-3.66532e+10
-3.65079e+10
-3.63891e+10
-3.62996e+10
-3.624e+10
-3.62077e+10
-3.61965e+10
-3.61963e+10
-3.61951e+10
-3.61825e+10
-3.61545e+10
-3.61165e+10
-3.60829e+10
-3.60706e+10
-3.60966e+10
-3.61895e+10
-3.64221e+10
-3.68846e+10
-3.74109e+10
-3.70912e+10
-3.45426e+10
-3.06116e+10
-3.19829e+10
-4.62431e+10
-6.12518e+10
-3.47693e+10
-3.77946e+10
-3.78612e+10
-3.78828e+10
-3.79182e+10
-3.80104e+10
-3.80996e+10
-3.81841e+10
-3.82662e+10
-3.83517e+10
-3.84387e+10
-3.85259e+10
-3.86124e+10
-3.86887e+10
-3.87453e+10
-3.8779e+10
-3.87878e+10
-3.87671e+10
-3.87146e+10
-3.86287e+10
-3.8508e+10
-3.83515e+10
-3.81617e+10
-3.79447e+10
-3.77102e+10
-3.74695e+10
-3.72329e+10
-3.70089e+10
-3.68038e+10
-3.66234e+10
-3.64726e+10
-3.63553e+10
-3.62719e+10
-3.62201e+10
-3.6198e+10
-3.61998e+10
-3.62132e+10
-3.62259e+10
-3.62269e+10
-3.62103e+10
-3.61795e+10
-3.61453e+10
-3.61199e+10
-3.61149e+10
-3.61559e+10
-3.6323e+10
-3.673e+10
-3.72653e+10
-3.7122e+10
-3.50071e+10
-3.15381e+10
-3.27181e+10
-4.642e+10
-6.3544e+10
-4.01354e+10
-3.78392e+10
-3.7897e+10
-3.79061e+10
-3.79074e+10
-3.79972e+10
-3.81024e+10
-3.81847e+10
-3.8263e+10
-3.83485e+10
-3.8434e+10
-3.852e+10
-3.86045e+10
-3.86786e+10
-3.8734e+10
-3.87677e+10
-3.87769e+10
-3.87565e+10
-3.87035e+10
-3.86166e+10
-3.84939e+10
-3.83351e+10
-3.81427e+10
-3.7923e+10
-3.76861e+10
-3.74435e+10
-3.7206e+10
-3.69824e+10
-3.67791e+10
-3.66011e+10
-3.6453e+10
-3.63376e+10
-3.62564e+10
-3.62078e+10
-3.61873e+10
-3.61868e+10
-3.61952e+10
-3.61993e+10
-3.61873e+10
-3.61545e+10
-3.61053e+10
-3.60523e+10
-3.60111e+10
-3.59973e+10
-3.60422e+10
-3.62297e+10
-3.66731e+10
-3.72392e+10
-3.70484e+10
-3.47431e+10
-3.13112e+10
-3.39427e+10
-5.01155e+10
-6.31669e+10
-3.07601e+10
-3.78627e+10
-3.78978e+10
-3.79365e+10
-3.79473e+10
-3.80123e+10
-3.80956e+10
-3.8181e+10
-3.82652e+10
-3.83549e+10
-3.84519e+10
-3.85521e+10
-3.86493e+10
-3.87369e+10
-3.88077e+10
-3.8858e+10
-3.88828e+10
-3.88768e+10
-3.88361e+10
-3.87565e+10
-3.86348e+10
-3.84678e+10
-3.82564e+10
-3.80074e+10
-3.77338e+10
-3.74511e+10
-3.71739e+10
-3.69139e+10
-3.66793e+10
-3.64762e+10
-3.6309e+10
-3.61802e+10
-3.60895e+10
-3.60339e+10
-3.60093e+10
-3.60084e+10
-3.60193e+10
-3.60288e+10
-3.60257e+10
-3.60039e+10
-3.59655e+10
-3.59199e+10
-3.58792e+10
-3.5856e+10
-3.58804e+10
-3.60365e+10
-3.6445e+10
-3.70164e+10
-3.69866e+10
-3.50445e+10
-3.15271e+10
-3.18482e+10
-4.43321e+10
-6.27269e+10
-4.11229e+10
-3.79063e+10
-3.79404e+10
-3.7931e+10
-3.79312e+10
-3.80004e+10
-3.80905e+10
-3.81771e+10
-3.82628e+10
-3.83517e+10
-3.84458e+10
-3.85438e+10
-3.86392e+10
-3.87242e+10
-3.87923e+10
-3.88401e+10
-3.88629e+10
-3.8856e+10
-3.88155e+10
-3.87376e+10
-3.86186e+10
-3.84556e+10
-3.8249e+10
-3.80054e+10
-3.77373e+10
-3.74598e+10
-3.71874e+10
-3.69317e+10
-3.67009e+10
-3.65006e+10
-3.63348e+10
-3.6206e+10
-3.61144e+10
-3.60573e+10
-3.60294e+10
-3.6022e+10
-3.60233e+10
-3.60204e+10
-3.6002e+10
-3.59622e+10
-3.59039e+10
-3.58386e+10
-3.57805e+10
-3.57446e+10
-3.57643e+10
-3.5928e+10
-3.63594e+10
-3.6958e+10
-3.6914e+10
-3.49142e+10
-3.17154e+10
-3.37118e+10
-4.82367e+10
-6.23671e+10
-3.23998e+10
-3.79271e+10
-3.79447e+10
-3.79655e+10
-3.79912e+10
-3.80476e+10
-3.81265e+10
-3.82147e+10
-3.83055e+10
-3.8403e+10
-3.85147e+10
-3.86373e+10
-3.8758e+10
-3.88704e+10
-3.89689e+10
-3.90471e+10
-3.90962e+10
-3.91086e+10
-3.90787e+10
-3.90028e+10
-3.88762e+10
-3.86935e+10
-3.84525e+10
-3.81607e+10
-3.78366e+10
-3.75035e+10
-3.71827e+10
-3.689e+10
-3.66349e+10
-3.64224e+10
-3.62543e+10
-3.61301e+10
-3.60472e+10
-3.60015e+10
-3.59861e+10
-3.59909e+10
-3.60031e+10
-3.60085e+10
-3.59947e+10
-3.59552e+10
-3.58928e+10
-3.58189e+10
-3.57488e+10
-3.57005e+10
-3.57106e+10
-3.58704e+10
-3.63108e+10
-3.69672e+10
-3.71175e+10
-3.54879e+10
-3.25077e+10
-3.38378e+10
-4.66097e+10
-5.97412e+10
-3.1669e+10
-3.79393e+10
-3.79573e+10
-3.79699e+10
-3.79903e+10
-3.80502e+10
-3.81251e+10
-3.82095e+10
-3.83023e+10
-3.84017e+10
-3.85117e+10
-3.86302e+10
-3.87488e+10
-3.88602e+10
-3.89587e+10
-3.90377e+10
-3.90886e+10
-3.91027e+10
-3.90741e+10
-3.89989e+10
-3.8873e+10
-3.86912e+10
-3.84511e+10
-3.81605e+10
-3.78373e+10
-3.75048e+10
-3.71839e+10
-3.68901e+10
-3.66329e+10
-3.64173e+10
-3.62449e+10
-3.61155e+10
-3.6027e+10
-3.59749e+10
-3.59526e+10
-3.59502e+10
-3.59553e+10
-3.5954e+10
-3.59349e+10
-3.58926e+10
-3.58305e+10
-3.57604e+10
-3.5698e+10
-3.56605e+10
-3.5682e+10
-3.585e+10
-3.62876e+10
-3.69102e+10
-3.69534e+10
-3.50857e+10
-3.1687e+10
-3.24932e+10
-4.526e+10
-5.93717e+10
-3.09666e+10
-3.79053e+10
-3.79193e+10
-3.79315e+10
-3.79688e+10
-3.80292e+10
-3.81122e+10
-3.82064e+10
-3.83054e+10
-3.84146e+10
-3.8541e+10
-3.86789e+10
-3.88186e+10
-3.89533e+10
-3.90764e+10
-3.91792e+10
-3.92511e+10
-3.92821e+10
-3.92648e+10
-3.91957e+10
-3.907e+10
-3.88781e+10
-3.86103e+10
-3.82711e+10
-3.78854e+10
-3.74877e+10
-3.71084e+10
-3.6768e+10
-3.64772e+10
-3.62392e+10
-3.60526e+10
-3.59136e+10
-3.58175e+10
-3.57587e+10
-3.57294e+10
-3.57188e+10
-3.57138e+10
-3.57006e+10
-3.56676e+10
-3.56081e+10
-3.55238e+10
-3.54256e+10
-3.5329e+10
-3.5253e+10
-3.52346e+10
-3.53638e+10
-3.57684e+10
-3.63817e+10
-3.64641e+10
-3.46436e+10
-3.113e+10
-3.16121e+10
-4.44189e+10
-6.00488e+10
-3.32722e+10
-3.79033e+10
-3.79122e+10
-3.79399e+10
-3.79835e+10
-3.80446e+10
-3.81205e+10
-3.82112e+10
-3.83137e+10
-3.84285e+10
-3.85571e+10
-3.86961e+10
-3.88383e+10
-3.89763e+10
-3.91025e+10
-3.92077e+10
-3.92809e+10
-3.93116e+10
-3.92932e+10
-3.92227e+10
-3.90954e+10
-3.89007e+10
-3.86285e+10
-3.82837e+10
-3.78921e+10
-3.7489e+10
-3.71055e+10
-3.67623e+10
-3.64699e+10
-3.6231e+10
-3.60441e+10
-3.59051e+10
-3.58087e+10
-3.57489e+10
-3.57175e+10
-3.57043e+10
-3.56965e+10
-3.56811e+10
-3.56464e+10
-3.55864e+10
-3.55035e+10
-3.54085e+10
-3.53172e+10
-3.5248e+10
-3.52364e+10
-3.53688e+10
-3.57661e+10
-3.63486e+10
-3.63554e+10
-3.43461e+10
-3.0243e+10
-2.92145e+10
-4.06585e+10
-5.92989e+10
-3.44542e+10
-3.79424e+10
-3.7945e+10
-3.79556e+10
-3.79981e+10
-3.80649e+10
-3.81477e+10
-3.82404e+10
-3.83431e+10
-3.84652e+10
-3.86098e+10
-3.87679e+10
-3.89333e+10
-3.90998e+10
-3.9259e+10
-3.93999e+10
-3.95098e+10
-3.95747e+10
-3.95849e+10
-3.95363e+10
-3.94259e+10
-3.92369e+10
-3.89437e+10
-3.85408e+10
-3.80655e+10
-3.75783e+10
-3.71276e+10
-3.67394e+10
-3.64224e+10
-3.61745e+10
-3.59881e+10
-3.58547e+10
-3.57663e+10
-3.5715e+10
-3.56924e+10
-3.56882e+10
-3.56901e+10
-3.56856e+10
-3.56639e+10
-3.56194e+10
-3.55546e+10
-3.54799e+10
-3.54102e+10
-3.53635e+10
-3.53755e+10
-3.55328e+10
-3.59587e+10
-3.65821e+10
-3.66473e+10
-3.46941e+10
-3.06758e+10
-2.99781e+10
-4.17744e+10
-5.93543e+10
-3.73945e+10
-3.79505e+10
-3.79413e+10
-3.79649e+10
-3.80173e+10
-3.80795e+10
-3.81512e+10
-3.82397e+10
-3.83427e+10
-3.84631e+10
-3.86022e+10
-3.87554e+10
-3.89168e+10
-3.90797e+10
-3.9236e+10
-3.93749e+10
-3.94835e+10
-3.9548e+10
-3.95588e+10
-3.95132e+10
-3.94076e+10
-3.92246e+10
-3.89375e+10
-3.854e+10
-3.80682e+10
-3.75818e+10
-3.71296e+10
-3.67389e+10
-3.64191e+10
-3.61689e+10
-3.59814e+10
-3.58481e+10
-3.57606e+10
-3.5711e+10
-3.56905e+10
-3.56887e+10
-3.56935e+10
-3.56916e+10
-3.56711e+10
-3.56256e+10
-3.55571e+10
-3.54751e+10
-3.53946e+10
-3.53343e+10
-3.5333e+10
-3.54838e+10
-3.59221e+10
-3.65971e+10
-3.67793e+10
-3.50128e+10
-3.11743e+10
-3.05631e+10
-4.22603e+10
-5.88532e+10
-3.2881e+10
-3.78598e+10
-3.78616e+10
-3.78734e+10
-3.79143e+10
-3.79835e+10
-3.80654e+10
-3.81583e+10
-3.82704e+10
-3.84098e+10
-3.85759e+10
-3.87641e+10
-3.89696e+10
-3.91856e+10
-3.94021e+10
-3.96061e+10
-3.97802e+10
-3.99037e+10
-3.99597e+10
-3.99428e+10
-3.98546e+10
-3.96723e+10
-3.93394e+10
-3.88205e+10
-3.81729e+10
-3.75162e+10
-3.69372e+10
-3.64695e+10
-3.61166e+10
-3.5865e+10
-3.56957e+10
-3.5591e+10
-3.55365e+10
-3.55208e+10
-3.55334e+10
-3.55635e+10
-3.55995e+10
-3.56297e+10
-3.56443e+10
-3.56386e+10
-3.56157e+10
-3.55865e+10
-3.55671e+10
-3.55771e+10
-3.56562e+10
-3.59005e+10
-3.6452e+10
-3.72685e+10
-3.76233e+10
-3.60934e+10
-3.27634e+10
-3.32304e+10
-4.54358e+10
-5.92638e+10
-2.98339e+10
-3.78743e+10
-3.78629e+10
-3.78782e+10
-3.7921e+10
-3.7979e+10
-3.80494e+10
-3.81394e+10
-3.82492e+10
-3.8382e+10
-3.85406e+10
-3.8723e+10
-3.89247e+10
-3.91389e+10
-3.93562e+10
-3.95638e+10
-3.97447e+10
-3.98779e+10
-3.99453e+10
-3.99401e+10
-3.98616e+10
-3.96874e+10
-3.93603e+10
-3.88441e+10
-3.81964e+10
-3.75371e+10
-3.69541e+10
-3.64811e+10
-3.61219e+10
-3.58636e+10
-3.56883e+10
-3.55791e+10
-3.55223e+10
-3.55066e+10
-3.55216e+10
-3.55562e+10
-3.55981e+10
-3.56348e+10
-3.56553e+10
-3.56532e+10
-3.56287e+10
-3.55897e+10
-3.55486e+10
-3.55221e+10
-3.55484e+10
-3.57251e+10
-3.62014e+10
-3.69513e+10
-3.72722e+10
-3.57483e+10
-3.24316e+10
-3.29799e+10
-4.57198e+10
-6.01412e+10
-3.35796e+10
-3.7853e+10
-3.78697e+10
-3.78842e+10
-3.79158e+10
-3.79732e+10
-3.80447e+10
-3.81316e+10
-3.82444e+10
-3.8388e+10
-3.85639e+10
-3.8774e+10
-3.90162e+10
-3.92839e+10
-3.95667e+10
-3.98487e+10
-4.01077e+10
-4.03144e+10
-4.044e+10
-4.0476e+10
-4.04343e+10
-4.03014e+10
-3.99774e+10
-3.93498e+10
-3.84806e+10
-3.75949e+10
-3.6856e+10
-3.63007e+10
-3.59192e+10
-3.56754e+10
-3.55332e+10
-3.5464e+10
-3.54479e+10
-3.54705e+10
-3.55207e+10
-3.55875e+10
-3.5659e+10
-3.57231e+10
-3.57693e+10
-3.57919e+10
-3.57917e+10
-3.57753e+10
-3.57528e+10
-3.57383e+10
-3.57677e+10
-3.5938e+10
-3.63969e+10
-3.71072e+10
-3.73345e+10
-3.56229e+10
-3.20287e+10
-3.22993e+10
-4.52438e+10
-6.17361e+10
-3.57654e+10
-3.78508e+10
-3.78613e+10
-3.7874e+10
-3.79045e+10
-3.7957e+10
-3.80297e+10
-3.81202e+10
-3.82354e+10
-3.83808e+10
-3.85605e+10
-3.87759e+10
-3.90243e+10
-3.92991e+10
-3.95889e+10
-3.98771e+10
-4.01403e+10
-4.03486e+10
-4.04744e+10
-4.05098e+10
-4.04674e+10
-4.03318e+10
-4.00013e+10
-3.93621e+10
-3.84755e+10
-3.75737e+10
-3.68261e+10
-3.62693e+10
-3.58903e+10
-3.56502e+10
-3.55105e+10
-3.54417e+10
-3.5423e+10
-3.54401e+10
-3.54816e+10
-3.55368e+10
-3.55939e+10
-3.5641e+10
-3.56679e+10
-3.56686e+10
-3.56436e+10
-3.55995e+10
-3.55463e+10
-3.54971e+10
-3.54866e+10
-3.56103e+10
-3.60148e+10
-3.66623e+10
-3.68125e+10
-3.49616e+10
-3.09358e+10
-3.01655e+10
-4.27909e+10
-6.36001e+10
-4.28057e+10
-3.77164e+10
-3.77283e+10
-3.77367e+10
-3.77552e+10
-3.77919e+10
-3.78462e+10
-3.79231e+10
-3.80321e+10
-3.81829e+10
-3.83843e+10
-3.86422e+10
-3.89578e+10
-3.93249e+10
-3.97293e+10
-4.01472e+10
-4.0544e+10
-4.08746e+10
-4.10919e+10
-4.11775e+10
-4.11677e+10
-4.10943e+10
-4.08235e+10
-4.00665e+10
-3.88047e+10
-3.74823e+10
-3.6505e+10
-3.5879e+10
-3.55176e+10
-3.53293e+10
-3.52505e+10
-3.52408e+10
-3.52761e+10
-3.53419e+10
-3.5429e+10
-3.55288e+10
-3.56319e+10
-3.57279e+10
-3.58074e+10
-3.5865e+10
-3.59008e+10
-3.59192e+10
-3.59264e+10
-3.59305e+10
-3.59603e+10
-3.6105e+10
-3.64997e+10
-3.70821e+10
-3.70738e+10
-3.494e+10
-3.05455e+10
-2.95318e+10
-4.22786e+10
-6.2866e+10
-3.95681e+10
-3.77148e+10
-3.77217e+10
-3.77313e+10
-3.77516e+10
-3.77933e+10
-3.78532e+10
-3.79326e+10
-3.80441e+10
-3.81966e+10
-3.83979e+10
-3.86538e+10
-3.89647e+10
-3.93243e+10
-3.97182e+10
-4.01229e+10
-4.05048e+10
-4.08195e+10
-4.10217e+10
-4.10954e+10
-4.10796e+10
-4.1007e+10
-4.07484e+10
-4.00217e+10
-3.8796e+10
-3.74964e+10
-3.65286e+10
-3.59023e+10
-3.55369e+10
-3.53442e+10
-3.52608e+10
-3.52452e+10
-3.52719e+10
-3.5325e+10
-3.53939e+10
-3.54697e+10
-3.55425e+10
-3.56019e+10
-3.56395e+10
-3.56514e+10
-3.5641e+10
-3.56174e+10
-3.55927e+10
-3.55826e+10
-3.56251e+10
-3.58204e+10
-3.63164e+10
-3.70613e+10
-3.72787e+10
-3.54065e+10
-3.12023e+10
-3.00752e+10
-4.22554e+10
-6.23184e+10
-3.94165e+10
-3.76503e+10
-3.76607e+10
-3.76787e+10
-3.77092e+10
-3.77536e+10
-3.78176e+10
-3.79095e+10
-3.80405e+10
-3.82246e+10
-3.84744e+10
-3.87982e+10
-3.9197e+10
-3.96611e+10
-4.01695e+10
-4.06894e+10
-4.11765e+10
-4.15746e+10
-4.18255e+10
-4.19035e+10
-4.18803e+10
-4.18951e+10
-4.18415e+10
-4.10678e+10
-3.91177e+10
-3.68998e+10
-3.56327e+10
-3.50447e+10
-3.48014e+10
-3.47525e+10
-3.47995e+10
-3.48888e+10
-3.49936e+10
-3.51027e+10
-3.52119e+10
-3.53175e+10
-3.54147e+10
-3.5497e+10
-3.55595e+10
-3.56013e+10
-3.56275e+10
-3.56485e+10
-3.5676e+10
-3.57245e+10
-3.58315e+10
-3.6095e+10
-3.66488e+10
-3.74047e+10
-3.7556e+10
-3.56409e+10
-3.17926e+10
-3.16543e+10
-4.39854e+10
-6.05656e+10
-3.46259e+10
-3.76523e+10
-3.76565e+10
-3.76826e+10
-3.77201e+10
-3.77734e+10
-3.78441e+10
-3.79416e+10
-3.80778e+10
-3.82655e+10
-3.8517e+10
-3.88402e+10
-3.92359e+10
-3.96953e+10
-4.01981e+10
-4.07122e+10
-4.1193e+10
-4.15836e+10
-4.18205e+10
-4.18766e+10
-4.18276e+10
-4.18113e+10
-4.17255e+10
-4.09674e+10
-3.90863e+10
-3.69319e+10
-3.56937e+10
-3.51006e+10
-3.48504e+10
-3.4798e+10
-3.48457e+10
-3.49389e+10
-3.50488e+10
-3.51624e+10
-3.52733e+10
-3.53756e+10
-3.54619e+10
-3.55243e+10
-3.55561e+10
-3.5555e+10
-3.55259e+10
-3.54798e+10
-3.54316e+10
-3.54014e+10
-3.54361e+10
-3.56483e+10
-3.61939e+10
-3.70138e+10
-3.73302e+10
-3.56924e+10
-3.22542e+10
-3.28419e+10
-4.58153e+10
-5.97004e+10
-3.0265e+10
-3.75823e+10
-3.75846e+10
-3.76024e+10
-3.76289e+10
-3.76615e+10
-3.77033e+10
-3.77638e+10
-3.78572e+10
-3.80018e+10
-3.82168e+10
-3.85175e+10
-3.89126e+10
-3.94008e+10
-3.99694e+10
-4.05897e+10
-4.12153e+10
-4.17805e+10
-4.2202e+10
-4.24242e+10
-4.25411e+10
-4.28437e+10
-4.33707e+10
-4.29639e+10
-3.99234e+10
-3.60706e+10
-3.44384e+10
-3.38888e+10
-3.38102e+10
-3.39835e+10
-3.42269e+10
-3.44657e+10
-3.46762e+10
-3.48561e+10
-3.5008e+10
-3.51328e+10
-3.52274e+10
-3.52866e+10
-3.5306e+10
-3.52853e+10
-3.5231e+10
-3.51563e+10
-3.50786e+10
-3.50218e+10
-3.50374e+10
-3.52397e+10
-3.57721e+10
-3.65374e+10
-3.67382e+10
-3.50805e+10
-3.21316e+10
-3.37401e+10
-4.69399e+10
-5.97233e+10
-2.97004e+10
-3.7577e+10
-3.75809e+10
-3.76062e+10
-3.76417e+10
-3.7684e+10
-3.77356e+10
-3.78061e+10
-3.79089e+10
-3.8062e+10
-3.82839e+10
-3.85893e+10
-3.89856e+10
-3.94707e+10
-4.00311e+10
-4.06386e+10
-4.12465e+10
-4.17889e+10
-4.21805e+10
-4.23522e+10
-4.23971e+10
-4.26064e+10
-4.30456e+10
-4.2696e+10
-3.99368e+10
-3.61883e+10
-3.45569e+10
-3.39619e+10
-3.38579e+10
-3.40092e+10
-3.42353e+10
-3.44623e+10
-3.46653e+10
-3.48407e+10
-3.499e+10
-3.51126e+10
-3.52041e+10
-3.52581e+10
-3.52682e+10
-3.52321e+10
-3.51543e+10
-3.50459e+10
-3.49231e+10
-3.48093e+10
-3.4757e+10
-3.48832e+10
-3.53361e+10
-3.60223e+10
-3.61352e+10
-3.43165e+10
-3.09012e+10
-3.13859e+10
-4.37503e+10
-5.97157e+10
-3.38818e+10
-3.74435e+10
-3.74521e+10
-3.74638e+10
-3.74763e+10
-3.7487e+10
-3.74963e+10
-3.75154e+10
-3.75665e+10
-3.76819e+10
-3.7899e+10
-3.82535e+10
-3.87721e+10
-3.94661e+10
-4.03236e+10
-4.12975e+10
-4.23151e+10
-4.32816e+10
-4.40749e+10
-4.45916e+10
-4.49603e+10
-4.56014e+10
-4.66833e+10
-4.69903e+10
-4.32231e+10
-3.74577e+10
-3.3208e+10
-3.27765e+10
-3.31346e+10
-3.36117e+10
-3.40308e+10
-3.43751e+10
-3.46554e+10
-3.48873e+10
-3.50803e+10
-3.52375e+10
-3.53573e+10
-3.54352e+10
-3.54663e+10
-3.54498e+10
-3.5392e+10
-3.53065e+10
-3.52116e+10
-3.5132e+10
-3.51193e+10
-3.5284e+10
-3.57557e+10
-3.64134e+10
-3.64483e+10
-3.4621e+10
-3.15789e+10
-3.29146e+10
-4.53167e+10
-5.85116e+10
-2.95562e+10
-3.74461e+10
-3.7456e+10
-3.74717e+10
-3.74878e+10
-3.75026e+10
-3.75167e+10
-3.75407e+10
-3.7596e+10
-3.77146e+10
-3.79326e+10
-3.82839e+10
-3.87927e+10
-3.94683e+10
-4.03002e+10
-4.12525e+10
-4.22487e+10
-4.31822e+10
-4.39271e+10
-4.43135e+10
-4.44755e+10
-4.49232e+10
-4.59396e+10
-4.64368e+10
-4.35025e+10
-3.80192e+10
-3.31564e+10
-3.27178e+10
-3.30933e+10
-3.35783e+10
-3.39947e+10
-3.43301e+10
-3.45991e+10
-3.48196e+10
-3.50018e+10
-3.51496e+10
-3.52617e+10
-3.53343e+10
-3.53635e+10
-3.53493e+10
-3.52986e+10
-3.52249e+10
-3.51457e+10
-3.50846e+10
-3.50906e+10
-3.52697e+10
-3.57431e+10
-3.63666e+10
-3.62641e+10
-3.40507e+10
-3.0141e+10
-3.00329e+10
-4.17435e+10
-5.83076e+10
-3.36542e+10
-3.74083e+10
-3.74324e+10
-3.74355e+10
-3.7436e+10
-3.74261e+10
-3.74083e+10
-3.73966e+10
-3.74221e+10
-3.75298e+10
-3.77691e+10
-3.81826e+10
-3.87956e+10
-3.96012e+10
-4.05545e+10
-4.15845e+10
-4.26204e+10
-4.35829e+10
-4.43659e+10
-4.48966e+10
-4.53369e+10
-4.60368e+10
-4.71395e+10
-4.80074e+10
-4.67432e+10
-4.16171e+10
-2.6897e+10
-2.96239e+10
-3.17532e+10
-3.29507e+10
-3.36757e+10
-3.41601e+10
-3.45073e+10
-3.47713e+10
-3.49787e+10
-3.5142e+10
-3.52644e+10
-3.53446e+10
-3.53809e+10
-3.53756e+10
-3.53379e+10
-3.52836e+10
-3.5232e+10
-3.52071e+10
-3.52552e+10
-3.5474e+10
-3.59744e+10
-3.66151e+10
-3.65631e+10
-3.45328e+10
-3.11309e+10
-3.21912e+10
-4.52466e+10
-6.07378e+10
-3.67164e+10
-3.73919e+10
-3.74182e+10
-3.74213e+10
-3.74242e+10
-3.74193e+10
-3.74086e+10
-3.7405e+10
-3.74374e+10
-3.75489e+10
-3.77881e+10
-3.81978e+10
-3.8803e+10
-3.95981e+10
-4.05496e+10
-4.16011e+10
-4.26551e+10
-4.3607e+10
-4.43606e+10
-4.47536e+10
-4.49411e+10
-4.55627e+10
-4.70537e+10
-4.80649e+10
-4.71477e+10
-4.43284e+10
-2.69788e+10
-2.95076e+10
-3.16448e+10
-3.2869e+10
-3.36104e+10
-3.40993e+10
-3.44429e+10
-3.46979e+10
-3.48938e+10
-3.50444e+10
-3.51539e+10
-3.52217e+10
-3.52475e+10
-3.52346e+10
-3.51936e+10
-3.51415e+10
-3.50989e+10
-3.50897e+10
-3.5159e+10
-3.54019e+10
-3.59222e+10
-3.65538e+10
-3.63847e+10
-3.40334e+10
-3.04069e+10
-3.25782e+10
-4.80116e+10
-6.04498e+10
-2.98435e+10
-3.73645e+10
-3.73753e+10
-3.73746e+10
-3.73687e+10
-3.73534e+10
-3.73312e+10
-3.73174e+10
-3.73451e+10
-3.74623e+10
-3.77171e+10
-3.81483e+10
-3.87769e+10
-3.95836e+10
-4.05318e+10
-4.15743e+10
-4.26293e+10
-4.36007e+10
-4.43912e+10
-4.49562e+10
-4.54853e+10
-4.63019e+10
-4.73639e+10
-4.73674e+10
-4.27289e+10
-2.01404e+10
-2.909e+10
-3.13857e+10
-3.27191e+10
-3.35236e+10
-3.40432e+10
-3.43978e+10
-3.46522e+10
-3.48397e+10
-3.49762e+10
-3.50675e+10
-3.51141e+10
-3.51164e+10
-3.50789e+10
-3.50132e+10
-3.49372e+10
-3.48722e+10
-3.48421e+10
-3.48896e+10
-3.51056e+10
-3.55983e+10
-3.62474e+10
-3.62633e+10
-3.436e+10
-3.09813e+10
-3.1582e+10
-4.39064e+10
-6.10317e+10
-3.9548e+10
-3.7347e+10
-3.73667e+10
-3.73646e+10
-3.73634e+10
-3.73543e+10
-3.73405e+10
-3.73353e+10
-3.73691e+10
-3.74865e+10
-3.77368e+10
-3.81624e+10
-3.87837e+10
-3.95879e+10
-4.05397e+10
-4.15829e+10
-4.26372e+10
-4.35938e+10
-4.4326e+10
-4.47751e+10
-4.50411e+10
-4.56464e+10
-4.70092e+10
-4.84496e+10
-4.75694e+10
-2.11872e+10
-2.90551e+10
-3.13036e+10
-3.26452e+10
-3.34657e+10
-3.39978e+10
-3.4362e+10
-3.4624e+10
-3.48185e+10
-3.49619e+10
-3.50601e+10
-3.51135e+10
-3.5122e+10
-3.50893e+10
-3.50261e+10
-3.49501e+10
-3.4882e+10
-3.48455e+10
-3.48831e+10
-3.5086e+10
-3.55632e+10
-3.61849e+10
-3.61274e+10
-3.40997e+10
-3.09017e+10
-3.29892e+10
-4.73696e+10
-6.06269e+10
-3.08796e+10
-3.74064e+10
-3.74082e+10
-3.74168e+10
-3.74201e+10
-3.74186e+10
-3.74128e+10
-3.74159e+10
-3.74565e+10
-3.75773e+10
-3.78221e+10
-3.82257e+10
-3.8812e+10
-3.95749e+10
-4.04878e+10
-4.15067e+10
-4.2535e+10
-4.34636e+10
-4.42223e+10
-4.47497e+10
-4.5113e+10
-4.56238e+10
-4.64713e+10
-4.72089e+10
-4.57222e+10
-3.54755e+10
-3.15619e+10
-3.16682e+10
-3.24802e+10
-3.32474e+10
-3.38188e+10
-3.42284e+10
-3.45268e+10
-3.47514e+10
-3.49242e+10
-3.5056e+10
-3.51497e+10
-3.52039e+10
-3.52174e+10
-3.51929e+10
-3.51396e+10
-3.50729e+10
-3.50106e+10
-3.49723e+10
-3.49941e+10
-3.51592e+10
-3.55773e+10
-3.61588e+10
-3.61927e+10
-3.44866e+10
-3.15614e+10
-3.3025e+10
-4.57198e+10
-5.82603e+10
-3.06373e+10
-3.74041e+10
-3.74131e+10
-3.74204e+10
-3.74293e+10
-3.74364e+10
-3.74433e+10
-3.74609e+10
-3.75144e+10
-3.76413e+10
-3.78835e+10
-3.82771e+10
-3.88426e+10
-3.95731e+10
-4.04402e+10
-4.13971e+10
-4.23629e+10
-4.32324e+10
-4.38837e+10
-4.42958e+10
-4.4631e+10
-4.5271e+10
-4.62723e+10
-4.66011e+10
-4.51999e+10
-3.63869e+10
-3.13237e+10
-3.14224e+10
-3.22937e+10
-3.31137e+10
-3.37198e+10
-3.41506e+10
-3.4463e+10
-3.46985e+10
-3.4881e+10
-3.50221e+10
-3.51246e+10
-3.51871e+10
-3.52076e+10
-3.51876e+10
-3.51354e+10
-3.50652e+10
-3.49942e+10
-3.49416e+10
-3.49435e+10
-3.50829e+10
-3.54664e+10
-3.59964e+10
-3.59411e+10
-3.40419e+10
-3.06056e+10
-3.10309e+10
-4.31938e+10
-5.8067e+10
-3.11863e+10
-3.75664e+10
-3.75734e+10
-3.75931e+10
-3.76184e+10
-3.76493e+10
-3.76873e+10
-3.77405e+10
-3.78258e+10
-3.79678e+10
-3.81925e+10
-3.8521e+10
-3.89645e+10
-3.95179e+10
-4.01611e+10
-4.08578e+10
-4.15437e+10
-4.21335e+10
-4.25413e+10
-4.27094e+10
-4.27037e+10
-4.27902e+10
-4.31137e+10
-4.28054e+10
-3.98056e+10
-3.62852e+10
-3.45405e+10
-3.39166e+10
-3.38161e+10
-3.39765e+10
-3.41959e+10
-3.44083e+10
-3.45936e+10
-3.47518e+10
-3.48852e+10
-3.49938e+10
-3.5075e+10
-3.51247e+10
-3.51395e+10
-3.51199e+10
-3.50725e+10
-3.50096e+10
-3.4945e+10
-3.48929e+10
-3.48828e+10
-3.49902e+10
-3.53217e+10
-3.58049e+10
-3.57771e+10
-3.40679e+10
-3.10202e+10
-3.18999e+10
-4.41931e+10
-5.8764e+10
-3.08031e+10
-3.75524e+10
-3.75567e+10
-3.75743e+10
-3.75984e+10
-3.76297e+10
-3.76699e+10
-3.77272e+10
-3.78179e+10
-3.79653e+10
-3.81943e+10
-3.85249e+10
-3.89655e+10
-3.9508e+10
-4.01284e+10
-4.0787e+10
-4.14241e+10
-4.19625e+10
-4.23202e+10
-4.24697e+10
-4.25262e+10
-4.2756e+10
-4.31764e+10
-4.27681e+10
-3.98843e+10
-3.6232e+10
-3.43459e+10
-3.37041e+10
-3.36399e+10
-3.38442e+10
-3.40979e+10
-3.43331e+10
-3.4532e+10
-3.46973e+10
-3.48334e+10
-3.49415e+10
-3.50191e+10
-3.50619e+10
-3.50662e+10
-3.50322e+10
-3.49667e+10
-3.48824e+10
-3.47945e+10
-3.47193e+10
-3.46878e+10
-3.47754e+10
-3.50839e+10
-3.55328e+10
-3.54385e+10
-3.35071e+10
-2.95934e+10
-2.82252e+10
-3.84676e+10
-5.71388e+10
-3.8668e+10
-3.76671e+10
-3.76721e+10
-3.76901e+10
-3.77194e+10
-3.77614e+10
-3.78195e+10
-3.7901e+10
-3.80176e+10
-3.81836e+10
-3.84133e+10
-3.87173e+10
-3.90982e+10
-3.95466e+10
-4.00407e+10
-4.05451e+10
-4.10116e+10
-4.13842e+10
-4.16094e+10
-4.16558e+10
-4.15695e+10
-4.14754e+10
-4.13123e+10
-4.05149e+10
-3.86681e+10
-3.66709e+10
-3.54762e+10
-3.48677e+10
-3.46013e+10
-3.45535e+10
-3.46143e+10
-3.4722e+10
-3.48426e+10
-3.49609e+10
-3.50693e+10
-3.51621e+10
-3.52331e+10
-3.5276e+10
-3.52864e+10
-3.52649e+10
-3.52185e+10
-3.51599e+10
-3.51045e+10
-3.50685e+10
-3.50844e+10
-3.52311e+10
-3.56214e+10
-3.61953e+10
-3.63118e+10
-3.48288e+10
-3.20875e+10
-3.3189e+10
-4.51394e+10
-5.88209e+10
-3.1098e+10
-3.7652e+10
-3.76558e+10
-3.76746e+10
-3.77033e+10
-3.77451e+10
-3.78034e+10
-3.78862e+10
-3.80057e+10
-3.81771e+10
-3.84152e+10
-3.8731e+10
-3.91266e+10
-3.95921e+10
-4.01042e+10
-4.06258e+10
-4.11068e+10
-4.14874e+10
-4.17124e+10
-4.17633e+10
-4.1702e+10
-4.16446e+10
-4.14806e+10
-4.06133e+10
-3.86447e+10
-3.65156e+10
-3.52722e+10
-3.46867e+10
-3.44644e+10
-3.44598e+10
-3.4554e+10
-3.46845e+10
-3.48199e+10
-3.49474e+10
-3.50607e+10
-3.51547e+10
-3.52231e+10
-3.52597e+10
-3.52597e+10
-3.52235e+10
-3.51582e+10
-3.50771e+10
-3.49961e+10
-3.49329e+10
-3.49197e+10
-3.50337e+10
-3.53817e+10
-3.58943e+10
-3.59018e+10
-3.41382e+10
-3.06363e+10
-3.03699e+10
-4.18517e+10
-5.82552e+10
-3.23648e+10
-3.77816e+10
-3.77869e+10
-3.78042e+10
-3.78316e+10
-3.78722e+10
-3.79297e+10
-3.80107e+10
-3.81237e+10
-3.82783e+10
-3.8483e+10
-3.87435e+10
-3.90594e+10
-3.94224e+10
-3.98147e+10
-4.0209e+10
-4.05695e+10
-4.08554e+10
-4.10296e+10
-4.10752e+10
-4.10186e+10
-4.08835e+10
-4.05401e+10
-3.97056e+10
-3.83828e+10
-3.70432e+10
-3.60773e+10
-3.54855e+10
-3.51682e+10
-3.50319e+10
-3.50038e+10
-3.50366e+10
-3.51002e+10
-3.51763e+10
-3.5253e+10
-3.53209e+10
-3.53706e+10
-3.53939e+10
-3.53854e+10
-3.53457e+10
-3.52831e+10
-3.52124e+10
-3.5152e+10
-3.51232e+10
-3.51645e+10
-3.53634e+10
-3.58389e+10
-3.65231e+10
-3.67362e+10
-3.52827e+10
-3.25015e+10
-3.36243e+10
-4.63236e+10
-6.23741e+10
-3.77044e+10
-3.7786e+10
-3.77896e+10
-3.78098e+10
-3.78379e+10
-3.78788e+10
-3.79359e+10
-3.80157e+10
-3.81271e+10
-3.82799e+10
-3.84832e+10
-3.87428e+10
-3.90591e+10
-3.94245e+10
-3.98226e+10
-4.02271e+10
-4.06025e+10
-4.09052e+10
-4.10938e+10
-4.11525e+10
-4.11126e+10
-4.09927e+10
-4.06457e+10
-3.9778e+10
-3.84001e+10
-3.7014e+10
-3.60415e+10
-3.54675e+10
-3.517e+10
-3.50486e+10
-3.50299e+10
-3.50678e+10
-3.5134e+10
-3.52117e+10
-3.52896e+10
-3.53583e+10
-3.54084e+10
-3.54316e+10
-3.54228e+10
-3.53824e+10
-3.53181e+10
-3.52443e+10
-3.51779e+10
-3.51374e+10
-3.51563e+10
-3.5315e+10
-3.57224e+10
-3.62961e+10
-3.63173e+10
-3.45367e+10
-3.15125e+10
-3.34472e+10
-4.80197e+10
-6.20769e+10
-3.14358e+10
-3.7875e+10
-3.78866e+10
-3.79083e+10
-3.79419e+10
-3.79889e+10
-3.80523e+10
-3.81367e+10
-3.82476e+10
-3.83902e+10
-3.85687e+10
-3.87841e+10
-3.90334e+10
-3.93081e+10
-3.95946e+10
-3.98735e+10
-4.01201e+10
-4.03047e+10
-4.0402e+10
-4.04055e+10
-4.03295e+10
-4.01609e+10
-3.97983e+10
-3.91252e+10
-3.82075e+10
-3.72839e+10
-3.65323e+10
-3.59933e+10
-3.56445e+10
-3.54391e+10
-3.53324e+10
-3.52912e+10
-3.52917e+10
-3.53172e+10
-3.53545e+10
-3.53917e+10
-3.54173e+10
-3.54206e+10
-3.53946e+10
-3.53387e+10
-3.526e+10
-3.51733e+10
-3.50965e+10
-3.50509e+10
-3.50768e+10
-3.52637e+10
-3.57279e+10
-3.63774e+10
-3.64593e+10
-3.46414e+10
-3.1086e+10
-3.11542e+10
-4.43083e+10
-6.60084e+10
-4.97402e+10
-3.78959e+10
-3.79071e+10
-3.79315e+10
-3.79663e+10
-3.80139e+10
-3.80769e+10
-3.81597e+10
-3.82674e+10
-3.84054e+10
-3.85773e+10
-3.87843e+10
-3.90235e+10
-3.92874e+10
-3.95632e+10
-3.98328e+10
-4.00721e+10
-4.02516e+10
-4.03465e+10
-4.03511e+10
-4.02802e+10
-4.0121e+10
-3.97726e+10
-3.91209e+10
-3.82263e+10
-3.7323e+10
-3.65871e+10
-3.60567e+10
-3.57085e+10
-3.54973e+10
-3.53815e+10
-3.53295e+10
-3.5319e+10
-3.53342e+10
-3.53624e+10
-3.5392e+10
-3.54117e+10
-3.54115e+10
-3.53848e+10
-3.53317e+10
-3.52595e+10
-3.5182e+10
-3.51157e+10
-3.50782e+10
-3.51032e+10
-3.52719e+10
-3.56902e+10
-3.62451e+10
-3.61326e+10