/*--------------------------------*- C++ -*----------------------------------*\
| =========                 |                                                 |
| \\      /  F ield         | OpenFOAM: The Open Source CFD Toolbox           |
|  \\    /   O peration     | Version:  4.1                                   |
|   \\  /    A nd           | Web:      www.OpenFOAM.org                      |
|    \\/     M anipulation  |                                                 |
\*---------------------------------------------------------------------------*/
FoamFile
{
    version     2.0;
    format      ascii;
    class       surfaceScalarField;
    location    "73";
    object      phi;
}
// * * * * * * * * * * * * * * * * * * * * * * * * * * * * * * * * * * * * * //

dimensions      [0 3 -1 0 0 0 0];

internalField   nonuniform List<scalar> 
11516
(
-3.43709e+10
1.03241e+08
8.89376e+08
-3.51663e+10
6.33641e+07
7.18252e+08
-3.58825e+10
5.05353e+07
6.50547e+08
-3.6483e+10
2.26687e+07
5.61286e+08
-3.70425e+10
2.84514e+07
5.13052e+08
-3.75635e+10
2.52224e+07
4.76563e+08
-3.80417e+10
1.94785e+07
4.38234e+08
-3.84862e+10
1.63245e+07
4.06551e+08
-3.88944e+10
1.25863e+07
3.73006e+08
-3.92626e+10
9.06659e+06
3.35487e+08
-3.95857e+10
5.7474e+06
2.92178e+08
-3.98593e+10
2.45212e+06
2.43412e+08
-4.00755e+10
-1.31449e+06
1.84545e+08
-4.02308e+10
-5.70349e+06
1.19589e+08
-4.03185e+10
-1.10879e+07
4.62435e+07
-4.03308e+10
-1.80197e+07
-3.46874e+07
-4.02622e+10
-2.54887e+07
-1.17309e+08
-4.01083e+10
-3.3506e+07
-2.02532e+08
-3.9869e+10
-4.17026e+07
-2.85647e+08
-3.95434e+10
-5.01987e+07
-3.6983e+08
-3.91288e+10
-5.81501e+07
-4.51084e+08
-3.86309e+10
-6.60002e+07
-5.24332e+08
-3.80516e+10
-7.31248e+07
-5.91889e+08
-3.74053e+10
-7.99409e+07
-6.4574e+08
-3.67037e+10
-8.64375e+07
-6.9032e+08
-3.59672e+10
-9.25089e+07
-7.18232e+08
-3.52101e+10
-9.78884e+07
-7.35253e+08
-3.44521e+10
-1.0209e+08
-7.35404e+08
-3.37065e+10
-1.04774e+08
-7.24519e+08
-3.29882e+10
-1.05641e+08
-7.00674e+08
-3.23107e+10
-1.04506e+08
-6.64859e+08
-3.1683e+10
-1.01468e+08
-6.21096e+08
-3.11174e+10
-9.66431e+07
-5.6568e+08
-3.06221e+10
-9.06288e+07
-5.02077e+08
-3.02044e+10
-8.45536e+07
-4.2967e+08
-2.98689e+10
-8.10147e+07
-3.48179e+08
-2.961e+10
-8.32321e+07
-2.63327e+08
-2.94209e+10
-9.19088e+07
-1.75051e+08
-2.92935e+10
-1.0631e+08
-8.33664e+07
-2.9224e+10
-1.27179e+08
1.74667e+07
-2.92091e+10
-1.55701e+08
1.30426e+08
-2.92474e+10
-1.94252e+08
2.58702e+08
-2.93451e+10
-2.45232e+08
4.1086e+08
-2.95269e+10
-3.1048e+08
6.00609e+08
-2.9858e+10
-3.87733e+08
8.54595e+08
-3.04726e+10
-4.66451e+08
1.20879e+09
-3.15583e+10
-5.36014e+08
1.67487e+09
-3.3205e+10
-6.41436e+08
2.1693e+09
-3.52142e+10
-9.71533e+08
2.59294e+09
-3.73224e+10
-1.80419e+09
3.13912e+09
-4.11568e+10
-2.75921e+09
5.41117e+09
-4.92152e+10
-1.5255e+09
8.65086e+09
-6.2077e+10
-4.48654e+09
1.67807e+10
-2.48801e+09
1.20695e+10
-4.91952e+10
6.62917e+08
-4.96854e+10
5.45866e+08
-5.0115e+10
4.71671e+08
-5.05194e+10
4.17697e+08
-5.08701e+10
3.69031e+08
-5.11944e+10
3.38689e+08
-5.14955e+10
3.08978e+08
-5.17751e+10
2.8372e+08
-5.20325e+10
2.5709e+08
-5.22643e+10
2.27332e+08
-5.24657e+10
1.92669e+08
-5.26339e+10
1.54275e+08
-5.27611e+10
1.06447e+08
-5.28452e+10
5.40962e+07
-5.28805e+10
-6.01485e+06
-5.28643e+10
-7.02992e+07
-5.2796e+10
-1.34459e+08
-5.26716e+10
-2.02505e+08
-5.24921e+10
-2.69239e+08
-5.22553e+10
-3.36797e+08
-5.19606e+10
-4.02978e+08
-5.1613e+10
-4.61386e+08
-5.12143e+10
-5.1653e+08
-5.07767e+10
-5.58907e+08
-5.03073e+10
-5.95072e+08
-4.98216e+10
-6.16663e+08
-4.93266e+10
-6.31675e+08
-4.88352e+10
-6.33112e+08
-4.8352e+10
-6.28708e+08
-4.78833e+10
-6.16037e+08
-4.74334e+10
-5.96577e+08
-4.70017e+10
-5.75437e+08
-4.65917e+10
-5.48568e+08
-4.62025e+10
-5.20609e+08
-4.5834e+10
-4.92049e+08
-4.5489e+10
-4.62326e+08
-4.51699e+10
-4.34521e+08
-4.4885e+10
-4.03186e+08
-4.46357e+10
-3.73638e+08
-4.44268e+10
-3.42676e+08
-4.42658e+10
-3.08757e+08
-4.41635e+10
-2.70848e+08
-4.41391e+10
-2.24369e+08
-4.42239e+10
-1.61402e+08
-4.44693e+10
-6.61135e+07
-4.49497e+10
8.48121e+07
-4.57594e+10
3.04043e+08
-4.70025e+10
5.53123e+08
-4.90033e+10
8.31485e+08
-5.26706e+10
1.47481e+09
-5.98355e+10
3.97997e+09
-6.96152e+10
7.7747e+09
-9.0501e+10
1.60705e+10
1.55363e+10
-6.64477e+10
4.18454e+07
1.04997e+09
-6.66246e+10
3.71394e+07
8.48995e+08
-6.67612e+10
2.51038e+07
7.52225e+08
-6.6887e+10
2.46723e+07
6.51644e+08
-6.69779e+10
2.04137e+07
5.7206e+08
-6.7053e+10
2.0989e+07
5.18414e+08
-6.71167e+10
2.12641e+07
4.67544e+08
-6.71675e+10
2.19974e+07
4.2155e+08
-6.7204e+10
2.21839e+07
3.72781e+08
-6.72287e+10
2.24166e+07
3.22496e+08
-6.72405e+10
2.21508e+07
2.65428e+08
-6.7237e+10
2.13233e+07
2.00688e+08
-6.72189e+10
1.95355e+07
1.25934e+08
-6.71846e+10
1.6714e+07
4.37902e+07
-6.71381e+10
1.25418e+07
-4.44329e+07
-6.70892e+10
9.2431e+06
-1.30263e+08
-6.70408e+10
7.00657e+06
-2.16678e+08
-6.69887e+10
4.36957e+06
-3.0616e+08
-6.69296e+10
389760
-3.97016e+08
-6.6864e+10
-3.33575e+06
-4.85442e+08
-6.67956e+10
-7.10306e+06
-5.67165e+08
-6.67245e+10
-1.05535e+07
-6.38144e+08
-6.66558e+10
-1.36729e+07
-6.96537e+08
-6.65891e+10
-1.6424e+07
-7.41134e+08
-6.65346e+10
-1.89011e+07
-7.66886e+08
-6.64906e+10
-2.11089e+07
-7.79341e+08
-6.64644e+10
-2.29949e+07
-7.75189e+08
-6.64521e+10
-2.43252e+07
-7.59453e+08
-6.64553e+10
-2.49816e+07
-7.32103e+08
-6.64666e+10
-2.47131e+07
-6.99782e+08
-6.64815e+10
-2.33839e+07
-6.60722e+08
-6.64936e+10
-2.07433e+07
-6.20584e+08
-6.64929e+10
-1.66842e+07
-5.79717e+08
-6.64725e+10
-1.1077e+07
-5.37934e+08
-6.64213e+10
-4.82013e+06
-4.98421e+08
-6.6329e+10
1.30076e+06
-4.58213e+08
-6.61914e+10
8.05579e+06
-4.1829e+08
-6.60106e+10
1.78501e+07
-3.7305e+08
-6.5788e+10
3.08065e+07
-3.23648e+08
-6.55117e+10
4.6579e+07
-2.75643e+08
-6.51659e+10
6.68443e+07
-2.31973e+08
-6.47356e+10
9.25541e+07
-1.88805e+08
-6.41971e+10
1.23648e+08
-1.47761e+08
-6.35268e+10
1.61231e+08
-9.73634e+07
-6.26995e+10
2.07019e+08
-1.96977e+07
-6.16792e+10
2.65137e+08
9.76099e+07
-6.03979e+10
3.37691e+08
2.2133e+08
-5.8793e+10
4.07335e+08
2.81603e+08
-5.69256e+10
4.30987e+08
3.40269e+08
-5.52005e+10
4.80183e+08
8.94284e+08
-5.24925e+10
9.53744e+08
1.6649e+09
-4.76664e+10
2.24218e+09
1.44834e+09
-2.08506e+10
-3.58597e+09
-6.44722e+09
-4.6788e+09
-4.76132e+09
-7.7546e+10
7.7533e+08
-7.75851e+10
6.16088e+08
-7.76329e+10
5.38176e+08
-7.76766e+10
4.79248e+08
-7.7718e+10
4.23587e+08
-7.7754e+10
3.87889e+08
-7.77898e+10
3.57833e+08
-7.78237e+10
3.3087e+08
-7.78538e+10
3.00209e+08
-7.78826e+10
2.68938e+08
-7.79097e+10
2.3148e+08
-7.79329e+10
1.87277e+08
-7.79541e+10
1.33888e+08
-7.79729e+10
7.35092e+07
-7.79923e+10
6.49954e+06
-7.80154e+10
-6.10161e+07
-7.80368e+10
-1.32354e+08
-7.80572e+10
-2.06574e+08
-7.80756e+10
-2.81109e+08
-7.80938e+10
-3.54102e+08
-7.8114e+10
-4.2219e+08
-7.8137e+10
-4.80541e+08
-7.81685e+10
-5.28298e+08
-7.82074e+10
-5.63625e+08
-7.82649e+10
-5.81228e+08
-7.83384e+10
-5.87407e+08
-7.84369e+10
-5.78446e+08
-7.85561e+10
-5.59866e+08
-7.86997e+10
-5.31324e+08
-7.88609e+10
-5.00139e+08
-7.90367e+10
-4.63871e+08
-7.92221e+10
-4.29117e+08
-7.94074e+10
-3.96511e+08
-7.95876e+10
-3.65675e+08
-7.97567e+10
-3.38843e+08
-7.99128e+10
-3.11949e+08
-8.00518e+10
-2.89497e+08
-8.01611e+10
-2.71382e+08
-8.02313e+10
-2.5952e+08
-8.0249e+10
-2.54298e+08
-8.01918e+10
-2.61585e+08
-8.00386e+10
-2.7777e+08
-7.97603e+10
-3.07096e+08
-7.93261e+10
-3.43676e+08
-7.87003e+10
-3.78281e+08
-7.78279e+10
-4.08662e+08
-7.66066e+10
-4.73805e+08
-7.49342e+10
-6.38122e+08
-7.27757e+10
-8.69654e+08
-6.98999e+10
-9.39361e+08
-6.33532e+10
-1.69047e+09
-4.86484e+10
-4.66794e+09
-2.76176e+10
-8.41669e+09
-7.20826e+09
-5.78672e+10
5.18579e+07
6.81558e+08
-5.75772e+10
5.64542e+07
4.93986e+08
-5.73522e+10
5.47925e+07
4.63774e+08
-5.71871e+10
5.80238e+07
4.19457e+08
-5.70471e+10
5.10157e+07
3.71451e+08
-5.69267e+10
4.99039e+07
3.37991e+08
-5.68329e+10
4.96499e+07
3.13284e+08
-5.67579e+10
4.95736e+07
2.8573e+08
-5.67041e+10
4.8825e+07
2.58377e+08
-5.66668e+10
4.82933e+07
2.24514e+08
-5.66478e+10
4.72989e+07
1.85951e+08
-5.66459e+10
4.5782e+07
1.38551e+08
-5.66583e+10
4.32488e+07
7.88191e+07
-5.66774e+10
3.88744e+07
4.87607e+06
-5.66922e+10
3.18584e+07
-8.51581e+07
-5.66769e+10
2.19639e+07
-1.95573e+08
-5.66177e+10
9.54563e+06
-3.1955e+08
-5.65109e+10
-2.86968e+06
-4.47059e+08
-5.6353e+10
-1.51611e+07
-5.80612e+08
-5.61422e+10
-2.7148e+07
-7.10301e+08
-5.58829e+10
-3.95009e+07
-8.31526e+08
-5.55744e+10
-5.04534e+07
-9.3931e+08
-5.52285e+10
-6.0107e+07
-1.02411e+09
-5.48563e+10
-6.73106e+07
-1.08273e+09
-5.44706e+10
-7.21511e+07
-1.11196e+09
-5.40906e+10
-7.44789e+07
-1.11201e+09
-5.37312e+10
-7.44979e+07
-1.08414e+09
-5.34058e+10
-7.23422e+07
-1.03427e+09
-5.31239e+10
-6.83889e+07
-9.65361e+08
-5.28957e+10
-6.30406e+07
-8.82198e+08
-5.27222e+10
-5.6881e+07
-7.91388e+08
-5.26098e+10
-5.0439e+07
-6.92491e+08
-5.2556e+10
-4.45009e+07
-5.93567e+08
-5.25569e+10
-3.99639e+07
-4.94653e+08
-5.26123e+10
-3.64422e+07
-3.95866e+08
-5.27127e+10
-3.26437e+07
-3.03895e+08
-5.28479e+10
-2.96998e+07
-2.19295e+08
-5.29897e+10
-3.2972e+07
-1.47729e+08
-5.30996e+10
-4.55322e+07
-9.74561e+07
-5.31493e+10
-6.53069e+07
-6.42023e+07
-5.31204e+10
-9.21448e+07
-4.06325e+07
-5.29832e+10
-1.26766e+08
-3.24365e+07
-5.27138e+10
-1.69328e+08
-3.58674e+07
-5.22732e+10
-2.20473e+08
-5.54403e+07
-5.16087e+10
-2.80447e+08
-9.38738e+07
-5.06629e+10
-3.4763e+08
-1.56919e+08
-4.94307e+10
-4.24914e+08
-2.39415e+08
-4.79899e+10
-5.34708e+08
-3.1696e+08
-4.62944e+10
-7.25649e+08
-3.83089e+08
-4.36051e+10
-9.06357e+08
-6.86666e+08
-4.03972e+10
-7.65627e+08
-5.28689e+08
-4.05875e+10
-2.69823e+08
2.49282e+09
-5.30505e+10
-7.62269e+09
1.41847e+10
-9.20908e+09
1.14626e+10
-6.51017e+10
6.38683e+08
-6.49236e+10
4.89362e+08
-6.47956e+10
4.59774e+08
-6.46879e+10
4.24138e+08
-6.46115e+10
3.92458e+08
-6.45488e+10
3.69073e+08
-6.45015e+10
3.53852e+08
-6.44621e+10
3.34426e+08
-6.44356e+10
3.15575e+08
-6.44155e+10
2.89983e+08
-6.44048e+10
2.60299e+08
-6.44023e+10
2.22065e+08
-6.44069e+10
1.71959e+08
-6.44151e+10
1.09002e+08
-6.44241e+10
3.34709e+07
-6.44203e+10
-5.96763e+07
-6.43989e+10
-1.63557e+08
-6.43593e+10
-2.70522e+08
-6.42957e+10
-3.82581e+08
-6.42095e+10
-4.91464e+08
-6.41042e+10
-5.91309e+08
-6.39799e+10
-6.79748e+08
-6.38445e+10
-7.46307e+08
-6.37063e+10
-7.89101e+08
-6.35718e+10
-8.04767e+08
-6.34541e+10
-7.93825e+08
-6.33618e+10
-7.57435e+08
-6.3303e+10
-7.01624e+08
-6.32826e+10
-6.28963e+08
-6.33087e+10
-5.44083e+08
-6.33804e+10
-4.53549e+08
-6.35049e+10
-3.56408e+08
-6.36821e+10
-2.61095e+08
-6.39127e+10
-1.67419e+08
-6.41975e+10
-7.67669e+07
-6.45193e+10
-1.89153e+06
-6.48629e+10
5.4355e+07
-6.52214e+10
9.50611e+07
-6.55931e+10
1.21579e+08
-6.59712e+10
1.30605e+08
-6.63562e+10
1.24806e+08
-6.67379e+10
9.63265e+07
-6.71132e+10
4.78734e+07
-6.74687e+10
-2.74494e+07
-6.77844e+10
-1.32013e+08
-6.80401e+10
-2.70514e+08
-6.82685e+10
-4.43096e+08
-6.85979e+10
-6.3973e+08
-6.92091e+10
-8.04413e+08
-7.01918e+10
-6.80503e+08
-7.30703e+10
8.20993e+08
-8.16026e+10
4.1488e+09
-1.10604e+11
1.35962e+10
1.43441e+10
-6.4431e+10
3.03153e+07
7.19671e+08
-6.46004e+10
2.58834e+07
6.32729e+08
-6.47328e+10
1.65129e+07
5.75128e+08
-6.48727e+10
8.60321e+06
5.46246e+08
-6.50198e+10
-1.48974e+06
5.15581e+08
-6.51665e+10
-9.05838e+06
4.88967e+08
-6.53076e+10
-1.43748e+07
4.63895e+08
-6.54464e+10
-2.00418e+07
4.3957e+08
-6.55792e+10
-2.6327e+07
4.12501e+08
-6.57034e+10
-3.2808e+07
3.76394e+08
-6.5813e+10
-3.999e+07
3.30109e+08
-6.5902e+10
-4.78338e+07
2.69234e+08
-6.59658e+10
-5.64878e+07
1.92523e+08
-6.60037e+10
-6.60462e+07
1.00955e+08
-6.60129e+10
-7.60926e+07
-8.04748e+06
-6.60031e+10
-8.7189e+07
-1.29701e+08
-6.5974e+10
-9.90676e+07
-2.62753e+08
-6.59194e+10
-1.12261e+08
-4.05902e+08
-6.58373e+10
-1.25962e+08
-5.52961e+08
-6.57249e+10
-1.40995e+08
-7.00137e+08
-6.55812e+10
-1.56337e+08
-8.37521e+08
-6.54099e+10
-1.72284e+08
-9.58597e+08
-6.52131e+10
-1.87867e+08
-1.05223e+09
-6.49976e+10
-2.02562e+08
-1.11152e+09
-6.47692e+10
-2.15913e+08
-1.13568e+09
-6.45377e+10
-2.27551e+08
-1.12251e+09
-6.43088e+10
-2.37103e+08
-1.07838e+09
-6.40874e+10
-2.44211e+08
-1.01062e+09
-6.38758e+10
-2.4862e+08
-9.23863e+08
-6.36716e+10
-2.50285e+08
-8.27665e+08
-6.34756e+10
-2.49193e+08
-7.24874e+08
-6.32818e+10
-2.45492e+08
-6.21495e+08
-6.30893e+10
-2.39354e+08
-5.19868e+08
-6.28934e+10
-2.31349e+08
-4.23574e+08
-6.26864e+10
-2.2226e+08
-3.3407e+08
-6.24675e+10
-2.14426e+08
-2.49535e+08
-6.2228e+10
-2.10077e+08
-1.74644e+08
-6.19687e+10
-2.09237e+08
-1.06181e+08
-6.16989e+10
-2.09168e+08
-4.47668e+07
-6.14158e+10
-2.12239e+08
3.94218e+06
-6.11025e+10
-2.21545e+08
3.81053e+07
-6.07425e+10
-2.38789e+08
5.36138e+07
-6.03114e+10
-2.65508e+08
4.80168e+07
-5.97925e+10
-3.02807e+08
2.25667e+07
-5.917e+10
-3.50605e+08
-3.0497e+07
-5.84408e+10
-4.07437e+08
-1.16423e+08
-5.75916e+10
-4.80317e+08
-2.41715e+08
-5.65538e+10
-5.88797e+08
-4.12747e+08
-5.51812e+10
-7.11051e+08
-6.90147e+08
-5.38777e+10
-4.3108e+08
-1.10718e+09
-5.2332e+10
2.2037e+08
-1.66386e+09
-4.70865e+10
-2.22232e+08
-1.84512e+09
-1.86957e+10
-1.09493e+10
-2.61118e+09
-7.95773e+09
7.80256e+08
-6.48407e+10
5.9738e+08
-6.48259e+10
4.96654e+08
-6.4811e+10
4.57823e+08
-6.48022e+10
4.20381e+08
-6.48054e+10
3.90543e+08
-6.48162e+10
3.67022e+08
-6.48262e+10
3.45638e+08
-6.48406e+10
3.24869e+08
-6.48576e+10
3.02294e+08
-6.48761e+10
2.71621e+08
-6.48927e+10
2.32657e+08
-6.49039e+10
1.80637e+08
-6.49081e+10
1.14454e+08
-6.49063e+10
3.55978e+07
-6.48965e+10
-5.89727e+07
-6.4886e+10
-1.64992e+08
-6.4876e+10
-2.82115e+08
-6.48605e+10
-4.08976e+08
-6.48419e+10
-5.38847e+08
-6.48188e+10
-6.67592e+08
-6.47941e+10
-7.85739e+08
-6.47726e+10
-8.87571e+08
-6.47587e+10
-9.61603e+08
-6.47598e+10
-1.00212e+09
-6.4781e+10
-1.00821e+09
-6.48296e+10
-9.78574e+08
-6.49076e+10
-9.19917e+08
-6.50146e+10
-8.3993e+08
-6.51474e+10
-7.43582e+08
-6.52972e+10
-6.4051e+08
-6.54588e+10
-5.33786e+08
-6.56197e+10
-4.29479e+08
-6.57734e+10
-3.30068e+08
-6.59103e+10
-2.3904e+08
-6.60213e+10
-1.57895e+08
-6.61163e+10
-8.25071e+07
-6.62092e+10
-1.39438e+07
-6.63091e+10
4.68137e+07
-6.6414e+10
9.3017e+07
-6.65189e+10
1.16905e+08
-6.6618e+10
1.17518e+08
-6.6709e+10
8.91898e+07
-6.67859e+10
2.86981e+07
-6.68517e+10
-6.48271e+07
-6.69033e+10
-2.04976e+08
-6.69328e+10
-4.0695e+08
-6.69196e+10
-6.94956e+08
-6.68202e+10
-1.09036e+09
-6.64516e+10
-1.62485e+09
-6.48019e+10
-2.37594e+09
-5.93684e+10
-3.88079e+09
-4.95639e+10
-5.21573e+09
-4.58106e+10
-7.81336e+08
2.3322e+09
-6.03833e+10
7.45888e+07
5.60079e+08
-6.03162e+10
6.55151e+07
4.94777e+08
-6.02805e+10
6.31497e+07
4.71384e+08
-6.02501e+10
6.19229e+07
4.4905e+08
-6.02365e+10
6.07493e+07
4.36399e+08
-6.0238e+10
6.07221e+07
4.24774e+08
-6.02515e+10
6.11839e+07
4.11311e+08
-6.02766e+10
6.16294e+07
3.98307e+08
-6.03102e+10
6.22331e+07
3.79372e+08
-6.03527e+10
6.2994e+07
3.51498e+08
-6.04034e+10
6.36968e+07
3.12661e+08
-6.04611e+10
6.45243e+07
2.57834e+08
-6.05263e+10
6.59933e+07
1.87086e+08
-6.05913e+10
6.89385e+07
9.30759e+07
-6.06509e+10
7.39904e+07
-2.55054e+07
-6.06959e+10
7.98667e+07
-1.68406e+08
-6.07158e+10
8.51749e+07
-3.32469e+08
-6.07081e+10
8.91073e+07
-5.10553e+08
-6.06678e+10
9.27724e+07
-6.93931e+08
-6.05944e+10
9.48145e+07
-8.79257e+08
-6.04849e+10
9.53523e+07
-1.05363e+09
-6.03438e+10
9.25321e+07
-1.20923e+09
-6.01746e+10
8.72379e+07
-1.32605e+09
-5.99876e+10
7.8231e+07
-1.39433e+09
-5.97956e+10
6.58738e+07
-1.40791e+09
-5.96095e+10
4.9801e+07
-1.36978e+09
-5.9439e+10
3.03247e+07
-1.28784e+09
-5.92895e+10
7.91435e+06
-1.17456e+09
-5.91624e+10
-1.68585e+07
-1.03851e+09
-5.90565e+10
-4.35445e+07
-8.92015e+08
-5.8968e+10
-7.17018e+07
-7.40456e+08
-5.88922e+10
-1.00986e+08
-5.90992e+08
-5.88228e+10
-1.31103e+08
-4.47289e+08
-5.87554e+10
-1.62095e+08
-3.11423e+08
-5.86828e+10
-1.94179e+08
-1.86888e+08
-5.85964e+10
-2.25622e+08
-7.52703e+07
-5.84921e+10
-2.53145e+08
2.049e+07
-5.83535e+10
-2.78745e+08
9.33325e+07
-5.81601e+10
-3.06647e+08
1.43927e+08
-5.78923e+10
-3.38314e+08
1.6913e+08
-5.75303e+10
-3.73259e+08
1.6802e+08
-5.70554e+10
-4.12001e+08
1.37713e+08
-5.64426e+10
-4.54604e+08
6.95676e+07
-5.56667e+10
-5.00614e+08
-3.96416e+07
-5.47033e+10
-5.50032e+08
-2.03315e+08
-5.3533e+10
-6.04978e+08
-4.32321e+08
-5.21169e+10
-6.81223e+08
-7.44059e+08
-5.03589e+10
-8.13833e+08
-1.16155e+09
-4.81561e+10
-9.90369e+08
-1.7133e+09
-4.64643e+10
-7.03525e+08
-1.90277e+09
-4.59557e+10
-1.1224e+06
-1.95714e+09
-4.07673e+10
-1.69155e+09
-4.92628e+09
-1.31542e+10
-1.24836e+10
-1.75772e+10
-5.84941e+09
-8.16095e+09
-5.73028e+10
5.47284e+08
-5.72328e+10
4.88365e+08
-5.72007e+10
4.85175e+08
-5.71904e+10
4.68226e+08
-5.72054e+10
4.62579e+08
-5.72419e+10
4.6069e+08
-5.72949e+10
4.56262e+08
-5.73638e+10
4.52155e+08
-5.7445e+10
4.42721e+08
-5.75379e+10
4.2468e+08
-5.76401e+10
3.95801e+08
-5.77481e+10
3.50445e+08
-5.78588e+10
2.88645e+08
-5.79589e+10
2.02691e+08
-5.80351e+10
8.98508e+07
-5.80719e+10
-4.99111e+07
-5.8058e+10
-2.13567e+08
-5.79887e+10
-3.92977e+08
-5.78585e+10
-5.81213e+08
-5.76642e+10
-7.73121e+08
-5.74056e+10
-9.57736e+08
-5.70867e+10
-1.12466e+09
-5.67182e+10
-1.2553e+09
-5.63165e+10
-1.33752e+09
-5.59049e+10
-1.36474e+09
-5.55043e+10
-1.33883e+09
-5.5135e+10
-1.26746e+09
-5.48116e+10
-1.16321e+09
-5.45439e+10
-1.03522e+09
-5.43373e+10
-8.96578e+08
-5.41935e+10
-7.53706e+08
-5.41115e+10
-6.14513e+08
-5.40883e+10
-4.83488e+08
-5.4121e+10
-3.63548e+08
-5.42039e+10
-2.59572e+08
-5.43209e+10
-1.75825e+08
-5.44481e+10
-1.18077e+08
-5.45573e+10
-9.27792e+07
-5.46361e+10
-9.50543e+07
-5.46777e+10
-1.27783e+08
-5.46723e+10
-1.94125e+08
-5.46122e+10
-2.97716e+08
-5.44865e+10
-4.46089e+08
-5.42855e+10
-6.41164e+08
-5.40042e+10
-8.98706e+08
-5.36472e+10
-1.23446e+09
-5.32416e+10
-1.67069e+09
-5.28248e+10
-2.24194e+09
-5.23243e+10
-3.04466e+09
-5.1034e+10
-4.31003e+09
-4.8043e+10
-6.77064e+09
-4.46134e+10
-1.02973e+10
-3.7515e+10
-2.03973e+10
-5.77927e+09
-5.85589e+10
1.40989e+08
3.66567e+08
-5.85337e+10
1.33734e+08
3.3062e+08
-5.85339e+10
1.41381e+08
3.24816e+08
-5.85511e+10
1.4392e+08
3.17129e+08
-5.85835e+10
1.47153e+08
3.16784e+08
-5.86314e+10
1.50811e+08
3.17226e+08
-5.86954e+10
1.5491e+08
3.16364e+08
-5.87738e+10
1.59571e+08
3.13612e+08
-5.88647e+10
1.64962e+08
3.02591e+08
-5.89672e+10
1.70948e+08
2.81079e+08
-5.90762e+10
1.77525e+08
2.42647e+08
-5.91891e+10
1.84489e+08
1.85335e+08
-5.92994e+10
1.91983e+08
1.0511e+08
-5.94005e+10
2.00147e+08
-4.35582e+06
-5.9488e+10
2.08531e+08
-1.43472e+08
-5.9554e+10
2.15948e+08
-3.12718e+08
-5.95961e+10
2.20763e+08
-5.07285e+08
-5.96061e+10
2.23556e+08
-7.20791e+08
-5.95816e+10
2.24236e+08
-9.43087e+08
-5.95194e+10
2.24296e+08
-1.16655e+09
-5.94209e+10
2.22321e+08
-1.38116e+09
-5.92885e+10
2.19316e+08
-1.57147e+09
-5.91346e+10
2.14718e+08
-1.71062e+09
-5.89771e+10
2.0917e+08
-1.77909e+09
-5.88387e+10
2.02468e+08
-1.76803e+09
-5.87353e+10
1.9434e+08
-1.68755e+09
-5.86766e+10
1.84571e+08
-1.55251e+09
-5.86645e+10
1.7321e+08
-1.38292e+09
-5.8692e+10
1.60463e+08
-1.1963e+09
-5.87531e+10
1.46735e+08
-1.00432e+09
-5.88361e+10
1.32461e+08
-8.17917e+08
-5.89313e+10
1.1811e+08
-6.4293e+08
-5.90308e+10
1.0397e+08
-4.81136e+08
-5.9126e+10
9.02091e+07
-3.35758e+08
-5.92128e+10
7.63607e+07
-2.05497e+08
-5.92868e+10
6.13123e+07
-9.09816e+07
-5.93476e+10
4.38433e+07
9.53274e+06
-5.9401e+10
2.58669e+07
9.39755e+07
-5.94543e+10
8.44171e+06
1.63151e+08
-5.95139e+10
-9.10358e+06
2.15049e+08
-5.95805e+10
-2.75163e+07
2.43438e+08
-5.96578e+10
-4.7053e+07
2.49958e+08
-5.9756e+10
-6.87344e+07
2.31608e+08
-5.98855e+10
-9.33668e+07
1.83344e+08
-6.00763e+10
-1.21257e+08
1.01946e+08
-6.03724e+10
-1.54669e+08
-2.00196e+07
-6.08349e+10
-2.02397e+08
-1.91092e+08
-6.14903e+10
-2.8131e+08
-4.56873e+08
-6.23059e+10
-3.8153e+08
-9.2242e+08
-6.21027e+10
-7.01634e+08
-2.00821e+09
-5.84925e+10
-1.66639e+09
-4.60887e+09
-5.21167e+10
-3.83822e+09
-8.28314e+09
-3.96665e+10
-1.14565e+10
-1.89655e+10
-4.14434e+09
-3.00825e+09
-6.1863e+10
7.46805e+08
-6.1994e+10
7.49622e+08
-6.21186e+10
7.47765e+08
-6.22572e+10
7.47577e+08
-6.24054e+10
7.54951e+08
-6.25614e+10
7.64865e+08
-6.27255e+10
7.72925e+08
-6.28945e+10
7.78818e+08
-6.30642e+10
7.76079e+08
-6.32322e+10
7.6272e+08
-6.3391e+10
7.31698e+08
-6.3537e+10
6.80732e+08
-6.36608e+10
6.04861e+08
-6.37538e+10
4.97244e+08
-6.38106e+10
3.57828e+08
-6.38276e+10
1.86346e+08
-6.38062e+10
-1.11228e+07
-6.37447e+10
-2.29174e+08
-6.36413e+10
-4.59762e+08
-6.34936e+10
-6.98072e+08
-6.32986e+10
-9.34374e+08
-6.30569e+10
-1.15421e+09
-6.27754e+10
-1.3318e+09
-6.24682e+10
-1.44658e+09
-6.21541e+10
-1.48804e+09
-6.18477e+10
-1.46328e+09
-6.15595e+10
-1.38444e+09
-6.12946e+10
-1.26946e+09
-6.10502e+10
-1.13476e+09
-6.08252e+10
-9.91631e+08
-6.06128e+10
-8.51306e+08
-6.04075e+10
-7.19991e+08
-6.02055e+10
-6.00082e+08
-6.00015e+10
-4.95895e+08
-5.97963e+10
-4.06861e+08
-5.95957e+10
-3.33484e+08
-5.9416e+10
-2.71838e+08
-5.92727e+10
-2.27692e+08
-5.91691e+10
-2.06722e+08
-5.91112e+10
-2.09499e+08
-5.91045e+10
-2.40005e+08
-5.91589e+10
-2.97641e+08
-5.92896e+10
-3.86745e+08
-5.95146e+10
-5.1029e+08
-5.98728e+10
-6.70238e+08
-6.0423e+10
-8.75113e+08
-6.12536e+10
-1.13483e+09
-6.2434e+10
-1.52215e+09
-6.39582e+10
-2.20388e+09
-6.58121e+10
-3.61446e+09
-6.83033e+10
-6.51488e+09
-7.18628e+10
-1.102e+10
-8.72884e+10
-1.68345e+10
3.1559e+09
-5.58015e+10
3.11486e+08
5.40317e+07
-5.58538e+10
3.15248e+08
6.4412e+07
-5.59279e+10
3.18363e+08
7.74291e+07
-5.60301e+10
3.20795e+08
9.55228e+07
-5.61547e+10
3.22402e+08
1.16437e+08
-5.63003e+10
3.23526e+08
1.37419e+08
-5.64675e+10
3.23859e+08
1.58608e+08
-5.66549e+10
3.24143e+08
1.76677e+08
-5.68618e+10
3.24033e+08
1.86442e+08
-5.70832e+10
3.22987e+08
1.81403e+08
-5.73201e+10
3.20275e+08
1.61957e+08
-5.75632e+10
3.15523e+08
1.16206e+08
-5.78006e+10
3.08187e+08
3.84202e+07
-5.80198e+10
2.97978e+08
-7.75506e+07
-5.82046e+10
2.85513e+08
-2.36083e+08
-5.83399e+10
2.71547e+08
-4.38334e+08
-5.84114e+10
2.57044e+08
-6.82275e+08
-5.84086e+10
2.43791e+08
-9.573e+08
-5.83215e+10
2.3137e+08
-1.25494e+09
-5.81405e+10
2.20689e+08
-1.56308e+09
-5.78558e+10
2.11043e+08
-1.87674e+09
-5.74618e+10
2.04016e+08
-2.172e+09
-5.69678e+10
1.9985e+08
-2.41253e+09
-5.64077e+10
2.01076e+08
-2.55009e+09
-5.58279e+10
2.07993e+08
-2.56776e+09
-5.52757e+10
2.20793e+08
-2.47403e+09
-5.47845e+10
2.38537e+08
-2.29795e+09
-5.43741e+10
2.59864e+08
-2.07121e+09
-5.40542e+10
2.83169e+08
-1.81976e+09
-5.38221e+10
3.07e+08
-1.56635e+09
-5.36739e+10
3.30271e+08
-1.32163e+09
-5.36001e+10
3.52277e+08
-1.09635e+09
-5.35912e+10
3.72625e+08
-8.9192e+08
-5.36391e+10
3.9116e+08
-7.10053e+08
-5.37353e+10
4.07835e+08
-5.50015e+08
-5.38729e+10
4.22351e+08
-4.10379e+08
-5.4045e+10
4.3565e+08
-2.9082e+08
-5.42472e+10
4.47951e+08
-1.90626e+08
-5.4477e+10
4.58529e+08
-1.06229e+08
-5.47298e+10
4.67954e+08
-4.14616e+07
-5.50115e+10
4.77135e+08
7.7303e+06
-5.53249e+10
4.86755e+08
3.96369e+07
-5.56792e+10
4.97636e+08
5.585e+07
-5.60934e+10
5.10162e+08
5.6937e+07
-5.66049e+10
5.26005e+08
4.75825e+07
-5.72752e+10
5.48563e+08
2.61317e+07
-5.82014e+10
5.88685e+08
-7.28722e+06
-5.95386e+10
6.54182e+08
-6.226e+07
-6.15266e+10
7.00227e+08
-1.38177e+08
-6.43941e+10
5.3717e+08
-4.56536e+08
-6.86102e+10
-3.43307e+08
-1.1147e+09
-7.3956e+10
-1.3721e+09
-2.57261e+09
-8.41187e+10
-5.12674e+09
-4.55249e+09
-9.29125e+08
2.80463e+10
-5.88136e+10
1.04878e+09
-5.88179e+10
1.06821e+09
-5.88322e+10
1.07948e+09
-5.88589e+10
1.09427e+09
-5.88956e+10
1.11361e+09
-5.89387e+10
1.13163e+09
-5.89895e+10
1.14844e+09
-5.90462e+10
1.1612e+09
-5.91081e+10
1.16449e+09
-5.91705e+10
1.15127e+09
-5.92364e+10
1.12174e+09
-5.93008e+10
1.06483e+09
-5.93587e+10
9.75902e+08
-5.9407e+10
8.49529e+08
-5.94382e+10
6.82269e+08
-5.94445e+10
4.73168e+08
-5.94128e+10
2.23563e+08
-5.93314e+10
-5.84362e+07
-5.91881e+10
-3.64652e+08
-5.89775e+10
-6.82871e+08
-5.86913e+10
-1.00631e+09
-5.83277e+10
-1.31357e+09
-5.78929e+10
-1.56796e+09
-5.7416e+10
-1.72486e+09
-5.69313e+10
-1.76788e+09
-5.64728e+10
-1.70523e+09
-5.606e+10
-1.56415e+09
-5.57022e+10
-1.37436e+09
-5.54018e+10
-1.16033e+09
-5.51524e+10
-9.44029e+08
-5.49491e+10
-7.35866e+08
-5.47834e+10
-5.46503e+08
-5.46477e+10
-3.77689e+08
-5.45366e+10
-2.3191e+08
-5.44446e+10
-1.08446e+08
-5.43679e+10
-6.84991e+06
-5.42987e+10
7.39073e+07
-5.4235e+10
1.34327e+08
-5.41849e+10
1.78213e+08
-5.41529e+10
2.02476e+08
-5.41516e+10
2.1301e+08
-5.41923e+10
2.0946e+08
-5.42922e+10
1.93419e+08
-5.44776e+10
1.68269e+08
-5.47918e+10
1.4299e+08
-5.53006e+10
1.2449e+08
-5.60907e+10
1.22926e+08
-5.73248e+10
1.32924e+08
-5.94336e+10
1.9453e+08
-6.33641e+10
2.46443e+08
-7.16079e+10
6.68988e+08
-8.57339e+10
9.06699e+08
-1.14661e+11
6.42246e+09
2.65679e+09
-5.92002e+10
6.06886e+07
2.05074e+07
-5.92823e+10
4.92804e+07
9.94396e+07
-5.93849e+10
4.57899e+07
1.363e+08
-5.95134e+10
3.86189e+07
1.87898e+08
-5.96651e+10
3.13138e+07
2.40036e+08
-5.98392e+10
2.2791e+07
2.93017e+08
-6.00365e+10
1.36878e+07
3.47792e+08
-6.02534e+10
4.7303e+06
3.95824e+08
-6.049e+10
-4.13604e+06
4.35696e+08
-6.07455e+10
-1.29201e+07
4.59637e+08
-6.10124e+10
-2.15093e+07
4.61176e+08
-6.12871e+10
-2.91527e+07
4.31584e+08
-6.15636e+10
-3.49545e+07
3.61952e+08
-6.18332e+10
-3.83982e+07
2.43671e+08
-6.2087e+10
-3.89388e+07
7.24782e+07
-6.23139e+10
-3.672e+07
-1.57029e+08
-6.25023e+10
-3.12509e+07
-4.42203e+08
-6.26419e+10
-2.26728e+07
-7.76321e+08
-6.27244e+10
-1.11387e+07
-1.14282e+09
-6.27448e+10
-1.58466e+06
-1.52599e+09
-6.26878e+10
5.62152e+06
-1.92418e+09
-6.25309e+10
8.297e+06
-2.32543e+09
-6.22617e+10
5.06074e+06
-2.67494e+09
-6.19022e+10
-6.2265e+06
-2.89181e+09
-6.14993e+10
-2.48315e+07
-2.93524e+09
-6.10922e+10
-4.72957e+07
-2.82449e+09
-6.07076e+10
-6.93692e+07
-2.60557e+09
-6.0362e+10
-8.76858e+07
-2.32336e+09
-6.0063e+10
-1.00364e+08
-2.01457e+09
-5.98138e+10
-1.06816e+08
-1.70696e+09
-5.9614e+10
-1.07161e+08
-1.41478e+09
-5.94645e+10
-1.01918e+08
-1.14681e+09
-5.93645e+10
-9.16878e+07
-9.05373e+08
-5.93137e+10
-7.69436e+07
-6.91413e+08
-5.9312e+10
-5.77568e+07
-5.03903e+08
-5.93624e+10
-3.42795e+07
-3.38133e+08
-5.94665e+10
-6.17464e+06
-1.95408e+08
-5.96304e+10
2.64819e+07
-7.05319e+07
-5.98528e+10
6.42046e+07
3.33104e+07
-6.01403e+10
1.05461e+08
1.2167e+08
-6.04955e+10
1.49659e+08
1.97093e+08
-6.0927e+10
1.96331e+08
2.64129e+08
-6.14427e+10
2.44179e+08
3.25296e+08
-6.20501e+10
2.91805e+08
3.78333e+08
-6.27706e+10
3.3819e+08
4.35541e+08
-6.36574e+10
3.84292e+08
5.12283e+08
-6.48297e+10
4.3537e+08
6.52396e+08
-6.64785e+10
4.80897e+08
9.06295e+08
-6.89163e+10
5.06917e+08
1.40337e+09
-7.27607e+10
3.62707e+08
2.39389e+09
-7.91864e+10
-2.47809e+07
4.44192e+09
-8.95321e+10
-6.58289e+08
7.47123e+09
-1.14555e+11
1.52552e+09
1.80681e+10
-1.9531e+10
1.09243e+10
-5.77085e+10
1.14902e+09
-5.7788e+10
1.19829e+09
-5.7881e+10
1.21977e+09
-5.79948e+10
1.24848e+09
-5.81256e+10
1.27803e+09
-5.82731e+10
1.30493e+09
-5.84392e+10
1.33209e+09
-5.862e+10
1.35143e+09
-5.88158e+10
1.36179e+09
-5.90261e+10
1.35505e+09
-5.92444e+10
1.32545e+09
-5.94664e+10
1.26494e+09
-5.9683e+10
1.16523e+09
-5.98814e+10
1.01816e+09
-6.0048e+10
8.19908e+08
-6.01655e+10
5.65684e+08
-6.02195e+10
2.58652e+08
-6.01938e+10
-9.43378e+07
-6.00781e+10
-4.80253e+08
-5.98657e+10
-8.86271e+08
-5.95462e+10
-1.31091e+09
-5.91003e+10
-1.74266e+09
-5.85256e+10
-2.12899e+09
-5.78573e+10
-2.3903e+09
-5.71574e+10
-2.48356e+09
-5.64756e+10
-2.4262e+09
-5.58401e+10
-2.26208e+09
-5.52609e+10
-2.03548e+09
-5.47341e+10
-1.78299e+09
-5.42497e+10
-1.53202e+09
-5.37945e+10
-1.2965e+09
-5.3358e+10
-1.08445e+09
-5.29305e+10
-8.97859e+08
-5.25037e+10
-7.38028e+08
-5.20694e+10
-6.04253e+08
-5.16229e+10
-4.92717e+08
-5.11588e+10
-4.02769e+08
-5.06764e+10
-3.29021e+08
-5.01688e+10
-2.72887e+08
-4.96339e+10
-2.33692e+08
-4.9065e+10
-2.09965e+08
-4.84604e+10
-1.97221e+08
-4.78211e+10
-1.93336e+08
-4.71465e+10
-2.00647e+08
-4.64425e+10
-2.11221e+08
-4.57267e+10
-2.15002e+08
-4.50303e+10
-1.95781e+08
-4.44409e+10
-1.24537e+08
-4.40511e+10
3.23215e+07
-4.43261e+10
4.45768e+08
-4.6322e+10
2.08847e+09
-5.24959e+10
5.9008e+09
-6.24195e+10
1.76664e+10
5.42906e+09
-5.81926e+10
4.77352e+07
-8.76445e+07
-5.81573e+10
4.3402e+07
2.4123e+07
-5.81537e+10
5.23042e+07
8.38108e+07
-5.81714e+10
5.36344e+07
1.55564e+08
-5.82133e+10
5.72669e+07
2.28351e+08
-5.82784e+10
6.07105e+07
3.01483e+08
-5.83679e+10
6.52109e+07
3.76558e+08
-5.84837e+10
7.11273e+07
4.45554e+08
-5.86254e+10
7.8622e+07
5.043e+08
-5.87947e+10
8.77572e+07
5.47124e+08
-5.89908e+10
9.88419e+07
5.64421e+08
-5.92078e+10
1.12144e+08
5.42228e+08
-5.94403e+10
1.27825e+08
4.72128e+08
-5.968e+10
1.45975e+08
3.43164e+08
-5.99119e+10
1.66321e+08
1.45535e+08
-6.01249e+10
1.88594e+08
-1.22143e+08
-6.03053e+10
2.12558e+08
-4.61201e+08
-6.04449e+10
2.37983e+08
-8.60297e+08
-6.05435e+10
2.65678e+08
-1.2937e+09
-6.06104e+10
2.96776e+08
-1.74062e+09
-6.06515e+10
3.32972e+08
-2.19947e+09
-6.06524e+10
3.72398e+08
-2.67963e+09
-6.0602e+10
4.1219e+08
-3.11464e+09
-6.05535e+10
4.44574e+08
-3.35969e+09
-6.05931e+10
4.63588e+08
-3.33091e+09
-6.07569e+10
4.66587e+08
-3.09927e+09
-6.10215e+10
4.56886e+08
-2.77003e+09
-6.13489e+10
4.39075e+08
-2.40704e+09
-6.16974e+10
4.17789e+08
-2.05552e+09
-6.20351e+10
3.96779e+08
-1.73703e+09
-6.23374e+10
3.78573e+08
-1.4613e+09
-6.25899e+10
3.64551e+08
-1.2279e+09
-6.27819e+10
3.55178e+08
-1.03612e+09
-6.29064e+10
3.50232e+08
-8.82593e+08
-6.29621e+10
3.49291e+08
-7.60339e+08
-6.29438e+10
3.52563e+08
-6.68646e+08
-6.28524e+10
3.59963e+08
-6.02209e+08
-6.2684e+10
3.71799e+08
-5.60747e+08
-6.24439e+10
3.89849e+08
-5.39448e+08
-6.21334e+10
4.13342e+08
-5.34584e+08
-6.17466e+10
4.40367e+08
-5.48365e+08
-6.12709e+10
4.69126e+08
-5.79771e+08
-6.06928e+10
4.97904e+08
-6.26056e+08
-5.99989e+10
5.24622e+08
-6.8875e+08
-5.91759e+10
5.47222e+08
-7.58988e+08
-5.82106e+10
5.63797e+08
-8.29879e+08
-5.70756e+10
5.67763e+08
-8.79179e+08
-5.57414e+10
5.45029e+08
-8.51954e+08
-5.40909e+10
4.73629e+08
-6.71403e+08
-5.16883e+10
3.81446e+08
-3.98521e+08
-4.77437e+10
2.69112e+08
2.93623e+08
-4.46911e+10
4.77432e+08
4.13074e+09
-4.9709e+10
4.85732e+09
1.85724e+10
4.292e+09
9.37323e+09
-6.07057e+10
1.23259e+09
-6.07747e+10
1.31334e+09
-6.08496e+10
1.3494e+09
-6.0943e+10