/*--------------------------------*- C++ -*----------------------------------*\
| =========                 |                                                 |
| \\      /  F ield         | OpenFOAM: The Open Source CFD Toolbox           |
|  \\    /   O peration     | Version:  4.1                                   |
|   \\  /    A nd           | Web:      www.OpenFOAM.org                      |
|    \\/     M anipulation  |                                                 |
\*---------------------------------------------------------------------------*/
FoamFile
{
    version     2.0;
    format      ascii;
    class       volVectorField;
    location    "73";
    object      U;
}
// * * * * * * * * * * * * * * * * * * * * * * * * * * * * * * * * * * * * * //

dimensions      [0 1 -1 0 0 0 0];

internalField   nonuniform List<vector> 
4432
(
(-133742 -3835.75 -133.571)
(-140209 -4068.68 -667.372)
(-142167 -3918.97 -590.51)
(-144686 -4152.35 -1025.75)
(-147062 -4213.29 -1234.1)
(-149294 -4271.02 -1342.48)
(-151250 -4346.38 -1508.3)
(-153092 -4406.27 -1652.3)
(-154791 -4464.41 -1808.32)
(-156349 -4523.85 -1984.09)
(-157742 -4585.84 -2184.74)
(-158945 -4648.1 -2419.42)
(-159931 -4709.55 -2691.61)
(-160676 -4770.49 -2997.57)
(-161167 -4831.34 -3329.52)
(-161373 -4891.72 -3689.08)
(-161251 -4950.23 -4066.68)
(-160800 -5014.49 -4461.37)
(-160007 -5084.72 -4869.13)
(-158868 -5160.11 -5289.32)
(-157380 -5238.87 -5711.45)
(-155543 -5321.7 -6128.04)
(-153378 -5406.24 -6529.43)
(-150913 -5492.91 -6910.41)
(-148206 -5579.88 -7264.41)
(-145317 -5665.62 -7588.19)
(-142319 -5746.81 -7878.82)
(-139274 -5820.33 -8136.05)
(-136254 -5882.01 -8359)
(-133310 -5928.36 -8547.76)
(-130503 -5955.34 -8701.05)
(-127883 -5959.39 -8817.63)
(-125493 -5937.22 -8896.79)
(-123380 -5886.92 -8937.56)
(-121570 -5809.81 -8940.14)
(-120085 -5713.57 -8908.9)
(-118930 -5610.72 -8863.5)
(-118042 -5522.04 -8826.6)
(-117398 -5448.11 -8791.3)
(-116973 -5393.11 -8738.26)
(-116763 -5364.79 -8654.79)
(-116756 -5377.02 -8520.32)
(-116911 -5445.48 -8286.43)
(-117261 -5585.29 -7872.32)
(-118264 -5801.36 -7141.51)
(-121036 -6069.49 -5902.67)
(-126391 -6320.96 -3890.79)
(-132060 -6458.02 -775.761)
(-131976 -6336.71 4199.51)
(-127606 -5298.1 12236)
(-146164 -1823.26 27502.3)
(-221780 7712.14 39855.9)
(-274856 -160.227 62575.5)
(-203910 6209.34 39982.1)
(-194753 4283.48 860.799)
(-198200 4304.64 432.005)
(-199658 4505.59 221.103)
(-201341 4439.82 28.3718)
(-202757 4488.19 -160.47)
(-204177 4539.29 -267.673)
(-205411 4574.41 -403.739)
(-206560 4617.03 -527.723)
(-207631 4657.86 -663.355)
(-208615 4693.8 -810.802)
(-209490 4723.35 -976.81)
(-210235 4747.47 -1168.16)
(-210830 4766.06 -1387.09)
(-211254 4777.95 -1629.48)
(-211496 4781.97 -1889.98)
(-211528 4778.31 -2163.25)
(-211350 4772.98 -2443.38)
(-210957 4769.48 -2729.8)
(-210342 4767.66 -3022.17)
(-209499 4766.83 -3314.59)
(-208426 4768.98 -3600.52)
(-207130 4773.75 -3872.58)
(-205626 4782.13 -4124.83)
(-203943 4793.66 -4352.94)
(-202121 4807.87 -4553.81)
(-200204 4825.31 -4726.89)
(-198239 4846.26 -4872.94)
(-196263 4872.28 -4994.63)
(-194312 4904.07 -5095.29)
(-192407 4943.2 -5178.48)
(-190569 4990.8 -5247.62)
(-188810 5048.06 -5305.24)
(-187134 5116.59 -5353.93)
(-185548 5196.71 -5395.53)
(-184049 5287.65 -5434.64)
(-182633 5385.6 -5474.52)
(-181309 5487.49 -5519.63)
(-180100 5607.81 -5570.78)
(-179019 5753.71 -5630.96)
(-178078 5929.09 -5691.92)
(-177306 6135.91 -5740.75)
(-176735 6375.36 -5760.75)
(-176396 6651.19 -5722.42)
(-176373 6970.17 -5575.38)
(-177002 7346.45 -5241.56)
(-179010 7809.42 -4610.11)
(-182956 8413.4 -3515.81)
(-187552 9229.82 -1705.67)
(-188900 10407.9 1399.2)
(-189069 12396.7 6364.5)
(-210605 16143.7 14204.4)
(-295300 21797.2 20182.1)
(-367633 8388.51 39386.4)
(-343310 -22723.7 64846.3)
(-265052 -1715.74 6732.13)
(-266285 -1730.43 5943.28)
(-266803 -1773.55 5797.2)
(-267379 -1727.31 5427.44)
(-267704 -1718.91 5171.37)
(-268080 -1702.14 5024.15)
(-268366 -1687.88 4877.43)
(-268578 -1671.27 4743.33)
(-268749 -1658.51 4600.72)
(-268873 -1647.91 4444.16)
(-268948 -1643.15 4266.44)
(-268970 -1643.76 4058.71)
(-268927 -1649.79 3817.79)
(-268815 -1661.88 3547.8)
(-268641 -1681.9 3260.74)
(-268425 -1704.84 2970.3)
(-268227 -1727.16 2685.65)
(-268024 -1749.36 2405.32)
(-267788 -1775.12 2127.57)
(-267526 -1800.52 1863.4)
(-267246 -1825.8 1628.93)
(-266954 -1850.38 1432.86)
(-266662 -1874.23 1286.71)
(-266384 -1897.47 1195.59)
(-266141 -1920.28 1164.41)
(-265944 -1942.88 1192.44)
(-265812 -1964.68 1277.38)
(-265743 -1984.78 1412.36)
(-265737 -2002.03 1590.34)
(-265775 -2015.11 1801.93)
(-265842 -2022.59 2039.61)
(-265910 -2022.49 2295.69)
(-265951 -2012.51 2564.63)
(-265932 -1990.24 2841.29)
(-265813 -1956.15 3119.63)
(-265549 -1910.01 3394.63)
(-265104 -1846.87 3664.35)
(-264451 -1758.07 3927.66)
(-263651 -1641.81 4194.31)
(-262651 -1498.55 4443.14)
(-261406 -1321.98 4659.99)
(-259863 -1106.72 4836.17)
(-257910 -850.643 4967.42)
(-255448 -548.042 5067.27)
(-252507 -192.404 5162.32)
(-249259 229.225 5253.6)
(-245574 741.043 5249.51)
(-239880 1363.16 5041.48)
(-230013 2162.27 4905.86)
(-216818 3231.51 5980.48)
(-214985 4838.52 7597.96)
(-208935 7319.1 4293.36)
(-217454 1664.1 -5367.19)
(43318 -13237.9 8681.6)
(-309927 2070.82 4359.24)
(-310300 1960.53 3705.61)
(-310460 1886.54 3400.78)
(-310638 1883.22 3189.8)
(-310768 1857.41 2973.75)
(-310952 1842.05 2847.9)
(-311101 1827.85 2734.84)
(-311225 1819.46 2632.93)
(-311349 1810.94 2523.11)
(-311469 1804.52 2405.26)
(-311584 1797.69 2272.11)
(-311687 1791.8 2115.84)
(-311774 1787.65 1932.46)
(-311844 1786.24 1724.44)
(-311907 1786.79 1500.91)
(-311985 1793.6 1270.62)
(-312068 1805.66 1036.05)
(-312139 1816.74 793.873)
(-312203 1824.78 547.199)
(-312264 1833.89 305.858)
(-312326 1843.88 80.4263)
(-312398 1855.57 -117.928)
(-312494 1869.34 -279.92)
(-312626 1885.6 -398.611)
(-312818 1904.39 -469.525)
(-313080 1926.28 -492.554)
(-313432 1951.71 -470.305)
(-313876 1981.76 -408.858)
(-314414 2017.08 -315.093)
(-315033 2058.76 -197.547)
(-315723 2107.6 -63.8946)
(-316461 2165.01 78.201)
(-317221 2232.46 221.801)
(-317976 2311.35 361.023)
(-318687 2400.96 490.376)
(-319352 2500.3 609.874)
(-319962 2610.24 719.543)
(-320470 2733.65 812.577)
(-320834 2870.73 876.474)
(-321013 3023.83 895.279)
(-320947 3200.1 853.975)
(-320542 3403.98 742.599)
(-319675 3637.95 557.417)
(-318225 3907.62 306.941)
(-316165 4218.25 13.0125)
(-313596 4582.86 -316.07)
(-310307 5021.22 -730.838)
(-304688 5573.71 -1244.5)
(-294301 6250.29 -1423.46)
(-279165 7266.89 -533.606)
(-269937 8887.41 -85.9347)
(-253163 12325.5 -6560.21)
(-189930 -11739.9 1004.56)
(-7480.71 -10481.6 6704.42)
(-232648 -2579.29 1459.61)
(-230488 -2637.02 374.569)
(-229850 -2770.73 -68.9675)
(-229088 -2755.21 -393.493)
(-228438 -2784.08 -738.545)
(-227921 -2815.76 -1016.59)
(-227501 -2845.06 -1242.07)
(-227163 -2867.22 -1456.49)
(-226903 -2890.96 -1672.66)
(-226718 -2912.12 -1897.43)
(-226609 -2932.94 -2143.48)
(-226572 -2952.02 -2419.09)
(-226591 -2970.37 -2730.55)
(-226657 -2989.98 -3083.05)
(-226739 -3013.62 -3481.17)
(-226762 -3044.33 -3916.6)
(-226613 -3081.2 -4388.03)
(-226267 -3115.67 -4891.76)
(-225728 -3145.52 -5418.14)
(-224981 -3170.64 -5943.97)
(-224024 -3191.9 -6452.43)
(-222871 -3205.49 -6920.36)
(-221546 -3211.33 -7329.34)
(-220091 -3207.31 -7663.97)
(-218561 -3193.96 -7914.83)
(-217021 -3171.33 -8080.31)
(-215535 -3140.56 -8163.73)
(-214161 -3102.76 -8174.85)
(-212946 -3059.26 -8124.79)
(-211926 -3011.08 -8026.91)
(-211127 -2959.38 -7892.4)
(-210560 -2905.4 -7729.61)
(-210235 -2851.07 -7542.05)
(-210145 -2798.6 -7332.94)
(-210275 -2747.75 -7105.78)
(-210605 -2695.51 -6859.32)
(-211097 -2644.01 -6595)
(-211708 -2602.34 -6327.62)
(-212234 -2575.16 -6089.15)
(-212552 -2555.67 -5893.46)
(-212602 -2542.9 -5730.73)
(-212270 -2536.35 -5604.08)
(-211415 -2534.25 -5506.02)
(-209905 -2536.2 -5411.69)
(-207766 -2536.08 -5296.09)
(-205308 -2506.55 -5166.12)
(-202450 -2388.02 -5120.28)
(-197202 -2025.13 -5277.34)
(-185380 -1152.59 -5426.17)
(-168491 914.175 -4892.18)
(-161620 4441.91 -2468.29)
(-193355 10147.7 9310.5)
(-235858 -6792.12 31722.1)
(-161470 1996.96 16592.6)
(-261069 3039.24 1640.96)
(-259887 3076.9 898.526)
(-259433 3006.64 643.155)
(-258920 3074.94 445.034)
(-258587 3100.08 248.889)
(-258313 3120.71 90.7847)
(-258091 3142.25 -16.4362)
(-257915 3168.58 -121.462)
(-257784 3191.72 -231.966)
(-257688 3214.68 -354.996)
(-257629 3234.98 -500.722)
(-257605 3252.95 -677.507)
(-257606 3266.73 -893.211)
(-257626 3273.57 -1154.42)
(-257666 3270.46 -1461.23)
(-257684 3256.34 -1808.03)
(-257627 3235.3 -2187.09)
(-257494 3214.25 -2587.77)
(-257275 3193.94 -2999.03)
(-256962 3174.45 -3406.25)
(-256561 3155.48 -3790.91)
(-256085 3142.2 -4133.71)
(-255551 3134.95 -4417.33)
(-254990 3136.31 -4628.9)
(-254437 3146.12 -4761.58)
(-253930 3163.94 -4816.44)
(-253509 3188.68 -4799.53)
(-253209 3219.33 -4722.79)
(-253056 3254.56 -4598.56)
(-253072 3293.24 -4440.66)
(-253274 3334.07 -4260.28)
(-253673 3375.85 -4067.14)
(-254281 3416.86 -3867.72)
(-255105 3456.79 -3665.4)
(-256159 3499.8 -3464.06)
(-257402 3553.19 -3276.53)
(-258759 3620.03 -3122.28)
(-260168 3692.75 -3010.15)
(-261621 3769.93 -2931.47)
(-263113 3861.94 -2887.8)
(-264626 3974.64 -2893.41)
(-266145 4112.7 -2958.22)
(-267607 4284.64 -3089.95)
(-268969 4500.84 -3290.73)
(-270350 4781.06 -3559.23)
(-272162 5167.78 -3918.69)
(-274510 5742.38 -4483.47)
(-275772 6649.46 -5371.94)
(-272035 8189.11 -6332.54)
(-265588 10785 -5655.16)
(-277372 14112.1 -1457.76)
(-347185 16389.5 6275.13)
(-400710 -2416.12 16148.6)
(-471664 -46349.4 21373.4)
(-257368 -2970.59 4187.76)
(-258174 -3033.03 3902.66)
(-258616 -3075.73 3723.93)
(-259200 -3088.11 3665.85)
(-259796 -3105.7 3596.13)
(-260378 -3130.22 3535.72)
(-260950 -3146.65 3482.46)
(-261513 -3161.28 3426.69)
(-262059 -3177.33 3354.96)
(-262573 -3192.48 3254.1)
(-263043 -3208.3 3111.57)
(-263448 -3223.71 2921.15)
(-263761 -3239.4 2671.86)
(-263958 -3256.54 2351.73)
(-264036 -3275.24 1956.55)
(-264025 -3296.9 1500.97)
(-263939 -3320.54 1006.39)
(-263762 -3346.7 495.214)
(-263475 -3373.33 -15.7874)
(-263069 -3401.5 -503.349)
(-262539 -3428.57 -943.692)
(-261889 -3454.67 -1302.57)
(-261134 -3477.49 -1555.43)
(-260296 -3495.74 -1680.16)
(-259402 -3508.55 -1671.68)
(-258485 -3515.47 -1536.39)
(-257572 -3516.42 -1292.62)
(-256683 -3511.39 -965.586)
(-255829 -3500.29 -583.109)
(-255013 -3482.81 -172.659)
(-254229 -3458.35 241.444)
(-253464 -3427.45 638.442)
(-252708 -3390.94 1002.03)
(-251945 -3347.97 1318.26)
(-251158 -3296.31 1575.29)
(-250324 -3239.34 1765.08)
(-249417 -3179.31 1881.01)
(-248412 -3112.24 1919.61)
(-247342 -3024.96 1880.08)
(-246245 -2919.23 1789.95)
(-245056 -2801.66 1648.57)
(-243710 -2679.01 1461.8)
(-242092 -2562.63 1238.95)
(-240102 -2466 994.204)
(-237827 -2402.15 742.078)
(-235621 -2374.83 498.449)
(-233587 -2380.27 290.303)
(-230034 -2383.41 113.954)
(-221831 -2184.24 -241.629)
(-208681 -935.211 -1680.42)
(-207794 341.18 -2564.37)
(-217897 -86.1338 -1551.12)
(-208607 -10329.8 3584.69)
(46687.8 -13776.6 17366)
(-259534 3111.88 3467.16)
(-259351 3071.46 3085.93)
(-259233 3040.15 2990.33)
(-259188 3038.32 2875.67)
(-259224 3029.98 2789.56)
(-259251 3013.13 2713.84)
(-259279 3003.23 2645.64)
(-259331 2994.46 2570.57)
(-259396 2984.38 2486.37)
(-259464 2975.26 2378.39)
(-259534 2965.61 2236.07)
(-259594 2956.73 2053.43)
(-259629 2948.19 1823.72)
(-259626 2939.22 1540.22)
(-259590 2929.59 1202.97)
(-259540 2916.98 821.969)
(-259491 2901.8 408.644)
(-259427 2884.03 -24.7236)
(-259342 2865.93 -458.941)
(-259239 2846.27 -872.995)
(-259123 2827.66 -1242.74)
(-259009 2809.93 -1541.37)
(-258918 2795.35 -1742.35)
(-258878 2785.23 -1827.4)
(-258917 2780.53 -1790.01)
(-259063 2781.91 -1637.06)
(-259328 2789.95 -1385.78)
(-259715 2805.16 -1060.31)
(-260213 2828.39 -686.533)
(-260799 2860.83 -289.922)
(-261444 2903.74 107.435)
(-262112 2957.13 486.59)
(-262765 3020.62 833.585)
(-263365 3095.36 1137.45)
(-263880 3183.49 1387.58)
(-264288 3283.47 1573.29)
(-264647 3394.89 1694.98)
(-265033 3522.68 1766.39)
(-265450 3675.5 1783.19)
(-265865 3851.12 1736.59)
(-266265 4043.94 1624.32)
(-266626 4250.53 1445.16)
(-266904 4464.99 1198.54)
(-267081 4677.15 881.735)
(-267318 4876.21 476.087)
(-268019 5058.51 -65.5473)
(-269244 5220.63 -820.851)
(-269162 5404.27 -1957.07)
(-264018 5720.44 -3787.1)
(-254232 6924.42 -7101.89)
(-250400 7012.52 -11872)
(-254343 4258.31 -17842.4)
(-224972 -30818 9377.66)
(-110216 -22640.2 8656.96)
(-241791 -2808.06 1435.8)
(-241350 -2882.06 1048.88)
(-241186 -2875.32 872.287)
(-241022 -2866.25 702.436)
(-240963 -2861.75 586.244)
(-240945 -2860.78 491.881)
(-240972 -2859.97 408.38)
(-241042 -2860.37 321.751)
(-241158 -2859.03 223.197)
(-241313 -2854.62 93.8797)
(-241503 -2848.3 -81.6103)
(-241724 -2839.83 -308.106)
(-241968 -2827.19 -595.799)
(-242223 -2808.76 -954.041)
(-242477 -2783.4 -1385.83)
(-242689 -2755.42 -1897.87)
(-242810 -2730.6 -2487.84)
(-242822 -2711.81 -3138.74)
(-242714 -2697.59 -3818.91)
(-242469 -2691.97 -4504.41)
(-242079 -2696.48 -5156.63)
(-241549 -2715.91 -5734.38)
(-240900 -2749.02 -6185.9)
(-240167 -2797.98 -6472.6)
(-239399 -2861.01 -6575.91)
(-238644 -2937.26 -6500.92)
(-237941 -3024.21 -6270.18)
(-237317 -3118.88 -5915.13)
(-236783 -3217.72 -5468.84)
(-236336 -3317.07 -4960.97)
(-235966 -3413.54 -4415.07)
(-235656 -3504.7 -3850.63)
(-235384 -3588.37 -3282.58)
(-235132 -3661.65 -2721.4)
(-234872 -3720.73 -2172.73)
(-234577 -3760.1 -1644.52)
(-234212 -3769.87 -1145.54)
(-233748 -3749.12 -683.325)
(-233100 -3702.03 -283.929)
(-232180 -3630.51 34.3485)
(-230930 -3530.25 258.282)
(-229260 -3401.31 368.021)
(-227044 -3245.72 330.735)
(-224169 -3066.01 105.461)
(-220695 -2869.06 -354.834)
(-216960 -2664.66 -1104.3)
(-213017 -2475.87 -2215.2)
(-207088 -2314.1 -3832.12)
(-195583 -2134.34 -6389.99)
(-178417 -1044.58 -8693.72)
(-174625 -506.979 -9745.66)
(-199031 -3776.87 -13030.8)
(-182503 -19020.1 -31408)
(59466.2 -8979.32 -12660.6)
(-229609 3350.75 1323.47)
(-228974 3296.51 911.348)
(-228840 3318.46 786.21)
(-228724 3343.97 619.301)
(-228779 3364.73 518.981)
(-228887 3381.9 459.086)
(-229063 3399.28 409.413)
(-229301 3415.67 356.871)
(-229599 3434.16 297.06)
(-229951 3456.16 210.48)
(-230348 3480.4 84.0708)
(-230775 3507.07 -92.172)
(-231213 3538.24 -329.692)
(-231639 3575.84 -639.634)
(-232004 3621.53 -1030.86)
(-232238 3671.91 -1509.35)
(-232274 3722.33 -2070.17)
(-232098 3770.46 -2691.11)
(-231690 3818.36 -3343.36)
(-231025 3862.41 -3998.09)
(-230095 3901.8 -4621.26)
(-228909 3932.08 -5167.21)
(-227500 3954.8 -5584.75)
(-225931 3967.24 -5832.23)
(-224284 3970.09 -5890.07)
(-222650 3962.26 -5763.71)
(-221110 3943.76 -5477.32)
(-219731 3914.86 -5064.92)
(-218559 3876.58 -4562.99)
(-217622 3830.29 -4005.11)
(-216934 3777.47 -3419.32)
(-216497 3718.89 -2828.44)
(-216304 3655.39 -2250.26)
(-216342 3588.94 -1699.84)
(-216591 3522.74 -1190.27)
(-217030 3467.51 -733.618)
(-217568 3437.18 -343.278)
(-218057 3432.83 -46.1988)
(-218429 3449.1 135.497)
(-218661 3485.64 186.019)
(-218731 3543.42 81.9823)
(-218586 3620.51 -203.184)
(-218145 3715.65 -695.517)
(-217353 3825.6 -1431.2)
(-216367 3938.78 -2466.41)
(-215719 4036.04 -3874.74)
(-215620 4079.97 -5783.38)
(-214229 4010.62 -8377.71)
(-206944 3831.93 -12017)
(-195204 4318.84 -16866.1)
(-193858 3588.61 -24819.2)
(-222008 -3862.76 -29401.9)
(-204758 -34930 -31089.4)
(-83632.7 -15762.8 -6131.13)
(-234383 -2303.27 3083.29)
(-234145 -2344.54 2944.54)
(-234119 -2328.95 2939.07)
(-234140 -2326.04 2909.45)
(-234250 -2324.03 2905.92)
(-234419 -2316.48 2900.23)
(-234644 -2305.26 2889.07)
(-234923 -2295.19 2861.49)
(-235261 -2284.76 2807.78)
(-235654 -2270.89 2709.74)
(-236083 -2251.86 2550.49)
(-236531 -2230.6 2315.18)
(-236979 -2207.7 1989.93)
(-237404 -2183.89 1559.9)
(-237778 -2160.88 1019.63)
(-238080 -2141.63 377.547)
(-238288 -2128.47 -341.756)
(-238378 -2118.66 -1105.46)
(-238333 -2110.93 -1879.94)
(-238138 -2102.28 -2636.91)
(-237783 -2096.19 -3335.71)
(-237277 -2091.1 -3926.25)
(-236658 -2089.18 -4336.32)
(-236000 -2090.53 -4514.31)
(-235393 -2097.13 -4441.93)
(-234913 -2110.78 -4146.95)
(-234610 -2132.32 -3681.59)
(-234497 -2161.05 -3106.44)
(-234562 -2194.85 -2476.8)
(-234773 -2230.38 -1835.74)
(-235090 -2264.25 -1212.62)
(-235473 -2293.06 -626.001)
(-235887 -2313.64 -85.8971)
(-236298 -2323.33 404.555)
(-236682 -2321.41 847.97)
(-237020 -2309.26 1246.86)
(-237299 -2290.57 1598.22)
(-237517 -2260 1907.09)
(-237718 -2217.27 2184.32)
(-237934 -2165.53 2432.81)
(-238169 -2108.79 2643.94)
(-238424 -2050.23 2810.43)
(-238688 -1994.43 2919.84)
(-238992 -1944.27 2940.03)
(-239569 -1894.82 2825.94)
(-241015 -1838.11 2527.41)
(-243744 -1759.47 1948.44)
(-246504 -1604.42 877.145)
(-244989 -1114.47 -997.388)
(-240578 -508.454 -3375.14)
(-239083 -521.626 -10756.2)
(-252935 -1724.4 -26852.9)
(-218202 -13003.9 -70787.8)
(-104989 -6547.74 -25467.8)
(-247164 3332.38 3014.38)
(-247777 3328.06 3011.72)
(-248192 3361.24 3037.52)
(-248733 3385.12 3031.94)
(-249315 3408.07 3056.2)
(-249926 3436.06 3089.03)
(-250571 3467.36 3118.19)
(-251237 3497.31 3129.51)
(-251916 3527.24 3108.83)
(-252596 3559.92 3039.56)
(-253257 3596.85 2905.57)
(-253873 3635.12 2689.81)
(-254416 3674.02 2374.99)
(-254855 3712.78 1945.12)
(-255151 3749.37 1389.76)
(-255286 3779.87 714.6)
(-255264 3800.04 -50.902)
(-255075 3810.71 -870.67)
(-254730 3812.18 -1713.19)
(-254207 3807.68 -2550.32)
(-253489 3794.52 -3343.75)
(-252575 3775.2 -4038.16)
(-251487 3749.65 -4564.92)
(-250279 3720.7 -4865.01)
(-249024 3689.72 -4917.03)
(-247787 3658.01 -4740.66)
(-246618 3626.81 -4382.37)
(-245539 3597.68 -3898.61)
(-244550 3572.3 -3343.49)
(-243642 3552.47 -2761.34)
(-242792 3539.34 -2184.41)
(-241981 3533.78 -1633.94)
(-241187 3536.23 -1122.98)
(-240394 3546.71 -658.815)
(-239591 3563.56 -245.013)
(-238780 3584.52 115.081)
(-238004 3607.63 419.488)
(-237354 3634.29 667.876)
(-236853 3665.32 858.007)
(-236516 3698.74 988.467)
(-236363 3731.75 1051.93)
(-236422 3762.38 1041.44)
(-236703 3787.67 951.89)
(-237257 3808.27 774.398)
(-238359 3829.66 490.386)
(-240640 3860.61 93.4947)
(-244615 3915.39 -404.368)
(-249142 4041.49 -1095.32)
(-250441 4430.14 -2371.26)
(-249174 4802.71 -5031.49)
(-260757 4370.9 -10814.6)
(-317113 1388.83 -20123.4)
(-377208 -21341.4 -65797.4)
(-297898 -14502.1 -15840.4)
(-223165 -1731.21 96.748)
(-223278 -1782.27 -33.6241)
(-223535 -1821.95 -58.0217)
(-223886 -1873.06 -83.4783)
(-224345 -1925.68 -98.5245)
(-224894 -1970.77 -108.721)
(-225520 -2015.11 -120.305)
(-226223 -2063.29 -143.044)
(-227010 -2117.08 -193.744)
(-227875 -2173.66 -286.851)
(-228801 -2233.59 -434.641)
(-229766 -2299.02 -659.539)
(-230739 -2370.89 -984.067)
(-231665 -2448.24 -1428.89)
(-232480 -2527.91 -2009.5)
(-233121 -2606.13 -2729.19)
(-233529 -2678.09 -3577.46)
(-233657 -2738.97 -4519.98)
(-233465 -2789.41 -5518.9)
(-232914 -2826.9 -6533.87)
(-231954 -2849.33 -7526.67)
(-230543 -2849.78 -8417.65)
(-228698 -2824.47 -9087.41)
(-226525 -2766.22 -9406.87)
(-224206 -2675.06 -9320.31)
(-221930 -2553.42 -8862.67)
(-219852 -2407.94 -8120.5)
(-218074 -2246.58 -7191.91)
(-216644 -2077.51 -6163.39)
(-215572 -1907.96 -5099.72)
(-214841 -1743.3 -4044.21)
(-214423 -1586.9 -3022.89)
(-214284 -1440.11 -2049.02)
(-214389 -1303.25 -1127.92)
(-214702 -1176.66 -260.743)
(-215191 -1060.22 553.834)
(-215828 -952.665 1311.49)
(-216584 -853.129 2007.2)
(-217445 -762.328 2646.8)
(-218392 -679.527 3220.8)
(-219442 -603.576 3718.21)
(-220595 -531.749 4146.49)
(-221835 -457.913 4532.64)
(-223198 -377.404 4887.62)
(-224964 -277.459 5229.59)
(-227852 -130.609 5611.93)
(-232464 125.292 6109.11)
(-237628 570.655 6791.98)
(-239689 1335.9 7793.09)
(-240144 2625.05 7891.55)
(-256422 3808.56 6916.71)
(-322215 5559.9 4136.87)
(-379304 -2089.21 -35191.6)
(-318401 -1952.42 4259.42)
(-235270 4144.89 3281.25)
(-235247 4236.64 3283.36)
(-235291 4278.98 3276.81)
(-235369 4319.36 3268.63)
(-235500 4357.53 3272.91)
(-235660 4401.28 3279.35)
(-235852 4444.53 3277.19)
(-236066 4481.93 3259.14)
(-236302 4511.03 3208.58)
(-236555 4533.62 3110.11)
(-236818 4548.25 2947.82)
(-237079 4551.76 2702.27)
(-237326 4541.72 2353.86)
(-237541 4516.8 1887.13)
(-237699 4478.7 1294.67)
(-237768 4430.32 577.851)
(-237713 4375.26 -254.749)
(-237481 4317.9 -1182.85)
(-237017 4257.67 -2183.73)
(-236290 4195.84 -3234.54)
(-235265 4130.19 -4297.2)
(-233911 4063.41 -5303.65)
(-232248 3996.28 -6143.3)
(-230369 3934.23 -6697.95)
(-228420 3877.93 -6911.01)
(-226536 3827.93 -6807.31)
(-224816 3782.23 -6459.18)
(-223309 3738.07 -5950.93)
(-222029 3692.47 -5358.65)
(-220964 3642.77 -4740.68)
(-220089 3587.03 -4136.46)
(-219376 3524.61 -3569.78)
(-218797 3455.86 -3054.01)
(-218326 3381.5 -2595.69)
(-217941 3301.84 -2194.18)
(-217621 3215.91 -1847.63)
(-217352 3125.97 -1556.42)
(-217086 3026.61 -1332.48)
(-216841 2912.3 -1181.18)
(-216654 2779.45 -1107.79)
(-216562 2625.58 -1113.62)
(-216596 2446.63 -1200.37)
(-216776 2236.19 -1371.61)
(-217165 1989.36 -1631.48)
(-218071 1709.46 -1981.57)
(-220242 1411.99 -2412.54)
(-224390 1149.92 -2934.29)
(-229394 1004.25 -3752.02)
(-231411 1008.18 -4929.8)
(-231977 1302.95 -7003.05)
(-252845 1899.35 -11556.3)
(-349757 6639.84 -23437.8)
(-528098 -3676.13 -22542)
(-326915 -3728.06 13584.2)
(-236684 -3138.23 -45.6474)
(-236931 -3274.61 184.169)
(-237307 -3353.63 306.31)
(-237768 -3458.17 472.541)
(-238339 -3554.34 630.965)
(-238991 -3641.32 798.766)
(-239727 -3725.63 962.55)
(-240550 -3808.27 1103.34)
(-241465 -3886.66 1198.09)
(-242458 -3957.13 1227.31)
(-243508 -4019.79 1165.43)
(-244598 -4074.28 981.256)
(-245705 -4119.77 643.102)
(-246804 -4156.3 127.155)
(-247852 -4183.86 -584.053)
(-248813 -4205.24 -1499.36)
(-249632 -4220.43 -2611.47)
(-250267 -4231.03 -3888.4)
(-250694 -4240.16 -5279.18)
(-250888 -4255.99 -6732.29)
(-250786 -4281.56 -8212.37)
(-250290 -4323.32 -9640.96)
(-249343 -4384.64 -10844.7)
(-248011 -4468.48 -11597.5)
(-246461 -4569.96 -11791)
(-244858 -4678.41 -11484.3)
(-243316 -4782.48 -10821)
(-241903 -4874.05 -9947.86)
(-240657 -4949.49 -8989.57)
(-239596 -5009.01 -8034.26)
(-238727 -5054.73 -7136.48)
(-238051 -5089.63 -6324.99)
(-237570 -5116.61 -5610.75)
(-237283 -5138.27 -4994.6)
(-237192 -5156.35 -4472.73)
(-237300 -5170.44 -4040.13)
(-237616 -5180.08 -3695.17)
(-238152 -5184.47 -3436.81)
(-238920 -5180.44 -3268.8)
(-239925 -5167.97 -3198.38)
(-241180 -5145.66 -3232.27)
(-242718 -5115.84 -3376.11)
(-244535 -5083.13 -3645.85)
(-246629 -5053.45 -4053.86)
(-249219 -5042 -4596.61)
(-252922 -5076.97 -5252.25)
(-258377 -5204.97 -5941.59)
(-264774 -5558.68 -6586.18)
(-268930 -6228.46 -6932.1)
(-271032 -7964.88 -6524.58)
(-292783 -9789.7 -4996.73)
(-364641 -10397.6 -4836.47)
(-425486 -5197.67 21458.3)
(-364736 -68380.8 150745)
(-230669 3462.75 4604.72)
(-230982 3528.88 4775.46)
(-231317 3561.03 4867.78)
(-231739 3580.81 4988.59)
(-232225 3605.7 5116.29)
(-232780 3637.08 5249.92)
(-233405 3668.9 5377.37)
(-234097 3699.02 5484.93)
(-234855 3729.43 5554.95)
(-235673 3763.56 5565.1)
(-236535 3801.06 5488.86)
(-237425 3843.76 5296.43)
(-238310 3894.5 4956.67)
(-239151 3954.45 4441.12)
(-239890 4023.8 3727.82)
(-240461 4101.8 2804.66)
(-240796 4188.27 1675.22)
(-240838 4281.51 370.327)
(-240542 4374.46 -1059.31)
(-239874 4440.75 -2543.37)
(-238782 4478.03 -4039.72)
(-237181 4481.4 -5473.36)
(-235037 4446.97 -6665.67)
(-232462 4373.05 -7393.83)
(-229688 4267.84 -7547.38)
(-226936 4146.06 -7190.51)
(-224345 4022.25 -6469.22)
(-221971 3906.98 -5533.24)
(-219813 3805.75 -4509.8)
(-217836 3719.72 -3489.68)
(-215995 3648.01 -2529.57)
(-214243 3588.81 -1659.94)
(-212539 3540.14 -894.38)
(-210851 3500.94 -238.71)
(-209149 3471.12 308.532)
(-207408 3445.69 743.811)
(-205600 3423.02 1076.96)
(-203712 3402.52 1312.55)
(-201735 3385.52 1450.7)
(-199642 3363.81 1494.83)
(-197416 3335.28 1452.04)
(-195041 3303.48 1331.73)
(-192475 3266.55 1140.2)
(-189695 3219.48 880.813)
(-186877 3152.19 559.547)
(-184570 3046.34 188.21)
(-183276 2858.95 -236.009)
(-181582 2460.85 -650.2)
(-176017 1765.61 -1038.47)
(-165191 678.002 -2104.07)
(-169623 -1876.38 -1167.6)
(-223665 -9949.44 6814.67)
(-290445 -5955.04 46966.4)
(-227228 -9795.36 23945.1)
(-232980 -4008.33 507.965)
(-232610 -4131.54 886.202)
(-232607 -4163.38 1054.27)
(-232622 -4230.17 1281.95)
(-232754 -4273.94 1501.73)
(-232962 -4308.43 1729.52)
(-233264 -4337.37 1950.9)
(-233670 -4358.89 2146.62)
(-234188 -4368.09 2301.42)
(-234816 -4364.15 2397.4)
(-235550 -4347.91 2402.31)
(-236382 -4320.2 2281.58)
(-237292 -4282.24 1998.91)
(-238245 -4235.82 1519.08)
(-239200 -4183.13 812.86)
(-240089 -4124.63 -137.192)
(-240865 -4061.69 -1335.77)
(-241476 -3994.56 -2752.04)
(-241919 -3924.83 -4309.26)
(-242236 -3851.32 -5934.5)
(-242426 -3768.96 -7596.77)
(-242394 -3680.89 -9251.64)
(-242094 -3593.08 -10669)
(-241740 -3522.43 -11485.6)
(-241707 -3481.82 -11502.8)
(-242205 -3476.61 -10853.2)
(-243191 -3497.6 -9789.57)
(-244499 -3531.36 -8525.34)
(-245949 -3563.77 -7224.66)
(-247392 -3584.24 -5984.44)
(-248720 -3586.45 -4857)
(-249861 -3567.34 -3864.15)
(-250772 -3526.07 -3010.6)
(-251425 -3463.69 -2292.03)
(-251803 -3381.69 -1699.51)
(-251891 -3279.44 -1222.98)
(-251680 -3156.06 -854.075)
(-251164 -3009.57 -585.089)
(-250334 -2828.91 -411.774)
(-249224 -2605.56 -302.134)
(-247828 -2337.32 -248.05)
(-246093 -2018.7 -243.334)
(-243934 -1639.01 -290.582)
(-241282 -1188.9 -398.843)
(-238217 -663.117 -575.286)
(-235071 -62.8476 -823.054)
(-232056 585.887 -1144.04)
(-227745 1202.98 -1511.99)
(-219001 1585.33 -1659.22)
(-204708 2544.61 -1790.51)
(-196523 4254.65 -327.284)
(-201794 2933.39 8779.75)
(-235462 10885.2 56941)
(-146333 12091 14639.5)
(-242674 4307.41 4896.89)
(-242973 4439.43 5121.01)
(-243221 4536.25 5201.45)
(-243576 4629.33 5328.44)
(-243973 4739.69 5445.28)
(-244437 4861.84 5550.08)
(-244966 4990.56 5638.14)
(-245561 5127.04 5692.99)
(-246224 5275.22 5698.22)
(-246954 5435.42 5631.95)
(-247745 5605.86 5464.67)
(-248579 5784.31 5163.21)
(-249431 5967.82 4693.14)
(-250260 6152.18 4022.32)
(-251010 6330.93 3124.75)
(-251611 6497.6 1984.33)
(-251980 6647.13 603.299)
(-252042 6776.58 -982.412)
(-251757 6893.63 -2707.7)
(-251164 7017.15 -4531.18)
(-250216 7153.57 -6433.4)
(-248757 7299.39 -8367.93)
(-246669 7450.17 -10116)
(-244100 7589.09 -11302.5)
(-241436 7700.93 -11691.6)
(-239015 7777.17 -11376.4)
(-236977 7824.05 -10597.7)
(-235337 7851.54 -9571.6)
(-234047 7869.62 -8471.94)
(-233035 7885.54 -7406.26)
(-232225 7902.85 -6434.55)
(-231553 7921.93 -5582.42)
(-230963 7940.5 -4856.68)
(-230412 7954.97 -4258.13)
(-229862 7962.15 -3780.79)
(-229280 7960.35 -3406.55)
(-228643 7947.97 -3119.32)
(-227925 7927.09 -2914.25)
(-227078 7900.07 -2781.82)
(-226084 7870.41 -2720.28)
(-224923 7843.95 -2720.98)
(-223547 7827.48 -2763.29)
(-221891 7828.08 -2828.64)
(-219909 7853.42 -2894.03)
(-217738 7910.23 -2924.48)
(-215824 7993.67 -2853.85)
(-214512 8048.28 -2635.73)
(-212420 8000.94 -2208.49)
(-206325 7776.23 -1634.46)
(-195132 6895.72 -629.413)
(-191792 4883.55 3208.82)
(-204711 2156.74 12044.9)
(-191548 8631.32 49828.8)
(-46609.8 8499.65 22837.6)
(-229319 -4840.11 -1701.25)
(-228648 -4819.9 -1260.64)
(-228427 -4769.48 -980.29)
(-228188 -4738.7 -650.236)
(-228075 -4693.33 -289.258)
(-228035 -4652.4 101.307)
(-228091 -4611.67 510.811)
(-228253 -4571.36 925.977)
(-228527 -4531.74 1328.53)
(-228922 -4495.98 1687.33)
(-229440 -4465.58 1956.43)
(-230072 -4442.52 2077.54)
(-230792 -4428.26 1982.79)
(-231552 -4423.28 1603.17)
(-232279 -4425.86 878.911)
(-232863 -4431.75 -234.39)
(-233117 -4435.03 -1755.74)
(-232887 -4433.55 -3640.84)
(-232076 -4427.1 -5765.43)
(-230688 -4417.53 -7981.77)
(-228682 -4410.52 -10244.5)
(-225766 -4402.95 -12588.5)
(-221580 -4392.24 -14765.7)
(-216331 -4368.3 -16065.3)
(-211002 -4321.89 -15924.6)
(-206631 -4259.92 -14613.4)
(-203615 -4199.21 -12847.8)
(-201887 -4154.5 -11063.7)
(-201180 -4131.4 -9491.23)
(-201173 -4129.37 -8201.67)
(-201588 -4145.1 -7203.35)
(-202205 -4172.92 -6472.67)
(-202863 -4207.05 -5977.69)
(-203447 -4243.37 -5687.16)
(-203875 -4277.19 -5574.97)
(-204090 -4299.71 -5621.01)
(-204049 -4301.82 -5809.26)
(-203726 -4279.97 -6126.48)
(-203097 -4223.8 -6579.37)
(-202090 -4120.9 -7136.23)
(-200698 -3958.21 -7783.44)
(-198909 -3733.61 -8490.28)
(-196676 -3436.46 -9202.95)
(-193996 -3053.45 -9852.56)
(-191089 -2566.53 -10347.7)
(-188588 -1946.98 -10554.2)
(-187103 -1160.84 -10250.8)
(-185407 -198.435 -9082.9)
(-179468 1033.62 -7012.24)
(-167940 2868 -5059.8)
(-164596 6943.27 -3022.23)
(-185277 9731.82 9020.36)
(-188457 14145 53694.4)
(-46769.4 5357.3 28004.2)
(-248410 5438.48 4661.15)
(-248047 5516.19 4998.06)
(-247825 5558.33 5192.49)
(-247644 5598.17 5444.87)
(-247511 5639.15 5707.52)
(-247435 5670.92 5990.79)
(-247423 5693.78 6294.42)
(-247490 5706.57 6604.76)
(-247651 5707.9 6903.23)
(-247920 5694.03 7162.87)
(-248307 5662.77 7344.46)
(-248816 5612.27 7396.86)
(-249433 5542.46 7259.98)
(-250128 5455.55 6871.72)
(-250850 5355.42 6174.71)
(-251522 5247.45 5122.7)
(-252032 5143.24 3694.61)
(-252257 5059.73 1920.27)
(-252105 5019.04 -93.1859)
(-251567 5038.54 -2183.65)
(-250625 5109.83 -4333.14)
(-249029 5238.65 -6611.51)
(-246462 5436.87 -8820.03)
(-243108 5715.96 -10328.3)
(-239765 6062.83 -10594.5)
(-237179 6441.15 -9805.54)
(-235543 6813.61 -8562.61)
(-234727 7159.28 -7231.47)
(-234505 7465.83 -6017.36)
(-234649 7731.47 -4990.96)
(-234986 7962.11 -4166.23)
(-235393 8166.35 -3525.69)
(-235786 8351.18 -3041.03)
(-236108 8522.79 -2685.87)
(-236341 8691.45 -2445.5)
(-236483 8868.69 -2306.39)
(-236496 9059.9 -2261.34)
(-236335 9268.82 -2321.6)
(-235972 9495.09 -2472.99)
(-235356 9744.76 -2716.22)
(-234429 10024.1 -3057.5)
(-233115 10334 -3502.29)
(-231313 10678.8 -4056.35)
(-228936 11066 -4720.53)
(-226061 11506.7 -5486.47)
(-223051 12021 -6314.13)
(-220090 12636.4 -7098.56)
(-215807 13380.2 -7637.89)
(-206854 14274.6 -8046.16)
(-191630 15171.2 -8059.53)
(-182784 16668.6 -6097.7)
(-197230 16128 720.492)
(-200182 16155.5 -25136.5)
(5356.12 573.849 15180.6)
(-241164 -4563.85 187.433)
(-241057 -4543.94 827.745)
(-240986 -4501.11 1237.35)
(-240969 -4472.84 1691.39)
(-241010 -4441.04 2159.82)