/*--------------------------------*- C++ -*----------------------------------*\
| =========                 |                                                 |
| \\      /  F ield         | OpenFOAM: The Open Source CFD Toolbox           |
|  \\    /   O peration     | Version:  4.1                                   |
|   \\  /    A nd           | Web:      www.OpenFOAM.org                      |
|    \\/     M anipulation  |                                                 |
\*---------------------------------------------------------------------------*/
FoamFile
{
    version     2.0;
    format      ascii;
    class       surfaceScalarField;
    location    "41";
    object      phi;
}
// * * * * * * * * * * * * * * * * * * * * * * * * * * * * * * * * * * * * * //

dimensions      [0 3 -1 0 0 0 0];

internalField   nonuniform List<scalar> 
11516
(
-4.6908e+10
-1.92926e+08
-2.09474e+09
-4.56207e+10
-5.7505e+07
-1.31086e+09
-4.48263e+10
-2.79744e+07
-8.26722e+08
-4.36515e+10
-2.08884e+08
-1.0066e+09
-4.30413e+10
3.46035e+07
-6.73034e+08
-4.25555e+10
-2.22068e+07
-4.81935e+08
-4.20407e+10
-7.1489e+07
-4.56942e+08
-4.16422e+10
-5.92146e+07
-3.50907e+08
-4.12868e+10
-6.20409e+07
-3.04534e+08
-4.09752e+10
-5.98768e+07
-2.63175e+08
-4.06973e+10
-5.82565e+07
-2.3208e+08
-4.04386e+10
-5.87789e+07
-2.14071e+08
-4.01864e+10
-6.26865e+07
-2.07559e+08
-3.99334e+10
-6.7847e+07
-2.092e+08
-3.9673e+10
-7.23676e+07
-2.19664e+08
-3.94006e+10
-7.7175e+07
-2.34746e+08
-3.91107e+10
-8.23523e+07
-2.51578e+08
-3.8798e+10
-8.82157e+07
-2.7219e+08
-3.84574e+10
-9.46526e+07
-2.96381e+08
-3.8086e+10
-1.01105e+08
-3.23711e+08
-3.76791e+10
-1.08059e+08
-3.53652e+08
-3.72371e+10
-1.15164e+08
-3.80249e+08
-3.67593e+10
-1.22589e+08
-4.06899e+08
-3.62527e+10
-1.30274e+08
-4.26156e+08
-3.57223e+10
-1.3837e+08
-4.4217e+08
-3.51797e+10
-1.46754e+08
-4.4821e+08
-3.46316e+10
-1.55254e+08
-4.49276e+08
-3.40891e+10
-1.63575e+08
-4.40039e+08
-3.35575e+10
-1.71478e+08
-4.25944e+08
-3.3043e+10
-1.78829e+08
-4.05664e+08
-3.25502e+10
-1.85641e+08
-3.80392e+08
-3.20809e+10
-1.92196e+08
-3.52635e+08
-3.16409e+10
-1.98647e+08
-3.18234e+08
-3.12315e+10
-2.04997e+08
-2.8181e+08
-3.08537e+10
-2.1131e+08
-2.43918e+08
-3.05116e+10
-2.17717e+08
-2.01624e+08
-3.02077e+10
-2.24248e+08
-1.5627e+08
-2.99489e+10
-2.315e+08
-1.03063e+08
-2.97393e+10
-2.39592e+08
-4.35892e+07
-2.95865e+10
-2.47881e+08
2.5382e+07
-2.95017e+10
-2.5664e+08
1.08869e+08
-2.94986e+10
-2.66279e+08
2.1055e+08
-2.95939e+10
-2.7738e+08
3.35489e+08
-2.98096e+10
-2.92296e+08
4.89082e+08
-3.01831e+10
-3.15122e+08
6.80984e+08
-3.07855e+10
-3.52791e+08
9.23845e+08
-3.17315e+10
-4.13698e+08
1.23008e+09
-3.31456e+10
-5.2713e+08
1.59167e+09
-3.51027e+10
-7.65839e+08
2.05203e+09
-3.75271e+10
-1.25006e+09
2.55437e+09
-4.12242e+10
-1.89043e+09
4.09165e+09
-4.68501e+10
-1.90257e+09
6.20776e+09
-5.66447e+10
-4.11486e+09
1.30308e+10
-1.45149e+09
9.83635e+09
-5.10751e+10
-1.60913e+09
-5.0067e+10
-1.1054e+09
-4.92522e+10
-8.72905e+08
-4.87809e+10
-7.02034e+08
-4.80856e+10
-6.74876e+08
-4.76237e+10
-4.94057e+08
-4.72452e+10
-4.5825e+08
-4.69341e+10
-3.7812e+08
-4.66576e+10
-3.46222e+08
-4.64165e+10
-3.08791e+08
-4.62007e+10
-2.82211e+08
-4.60029e+10
-2.65831e+08
-4.58135e+10
-2.63316e+08
-4.56274e+10
-2.68716e+08
-4.54374e+10
-2.81462e+08
-4.52385e+10
-2.98878e+08
-4.50284e+10
-3.17879e+08
-4.48023e+10
-3.41728e+08
-4.45575e+10
-3.6844e+08
-4.42907e+10
-3.98219e+08
-4.39983e+10
-4.30648e+08
-4.36828e+10
-4.60107e+08
-4.33429e+10
-4.90514e+08
-4.29866e+10
-5.13956e+08
-4.26171e+10
-5.35357e+08
-4.22451e+10
-5.47367e+08
-4.1875e+10
-5.55831e+08
-4.15166e+10
-5.54608e+08
-4.11732e+10
-5.49697e+08
-4.08493e+10
-5.39179e+08
-4.05483e+10
-5.24298e+08
-4.02699e+10
-5.08944e+08
-4.00173e+10
-4.89709e+08
-3.97897e+10
-4.70787e+08
-3.95865e+10
-4.52147e+08
-3.94088e+10
-4.32502e+08
-3.92553e+10
-4.14077e+08
-3.91301e+10
-3.91936e+08
-3.90347e+10
-3.68423e+08
-3.89737e+10
-3.3962e+08
-3.89536e+10
-3.03262e+08
-3.89825e+10
-2.57572e+08
-3.90726e+10
-1.99059e+08
-3.92443e+10
-1.23519e+08
-3.9538e+10
-2.23853e+07
-4.00272e+10
1.16084e+08
-4.08354e+10
3.09567e+08
-4.21329e+10
5.70344e+08
-4.42222e+10
9.39372e+08
-4.75983e+10
1.52817e+09
-5.34434e+10
3.28798e+09
-6.16048e+10
5.51468e+09
-7.74178e+10
1.1209e+10
1.14179e+10
-5.53472e+10
1.49585e+08
-2.71816e+09
-5.52579e+10
8.37414e+07
-1.50233e+09
-5.51282e+10
5.78211e+07
-1.03585e+09
-5.51762e+10
1.30676e+08
-1.10632e+09
-5.50012e+10
8.54285e+07
-9.45066e+08
-5.49598e+10
1.08052e+08
-6.41164e+08
-5.49823e+10
1.11553e+08
-5.55885e+08
-5.49901e+10
1.19202e+08
-4.72325e+08
-5.50188e+10
1.15607e+08
-4.00841e+08
-5.50715e+10
1.21434e+08
-3.40279e+08
-5.5133e+10
1.22098e+08
-2.99723e+08
-5.52011e+10
1.22655e+08
-2.74969e+08
-5.52731e+10
1.21664e+08
-2.64343e+08
-5.53473e+10
1.21083e+08
-2.65123e+08
-5.54241e+10
1.20635e+08
-2.77192e+08
-5.55016e+10
1.19982e+08
-2.94852e+08
-5.55735e+10
1.19494e+08
-3.19929e+08
-5.56369e+10
1.1886e+08
-3.49874e+08
-5.56899e+10
1.1746e+08
-3.8365e+08
-5.57333e+10
1.16519e+08
-4.20361e+08
-5.57666e+10
1.15556e+08
-4.58404e+08
-5.57889e+10
1.14464e+08
-4.93998e+08
-5.58026e+10
1.13275e+08
-5.26222e+08
-5.58053e+10
1.1188e+08
-5.53241e+08
-5.58036e+10
1.10213e+08
-5.70796e+08
-5.5794e+10
1.08273e+08
-5.82312e+08
-5.57819e+10
1.06061e+08
-5.84287e+08
-5.57635e+10
1.03699e+08
-5.80001e+08
-5.57407e+10
1.01286e+08
-5.68918e+08
-5.57084e+10
9.8903e+07
-5.56154e+08
-5.56641e+10
9.64804e+07
-5.40208e+08
-5.5604e+10
9.36821e+07
-5.24513e+08
-5.5521e+10
9.02054e+07
-5.07717e+08
-5.54112e+10
8.62301e+07
-4.91946e+08
-5.52659e+10
8.13243e+07
-4.81971e+08
-5.50796e+10
7.49471e+07
-4.71441e+08
-5.48459e+10
6.77088e+07
-4.63176e+08
-5.45551e+10
5.99158e+07
-4.55656e+08
-5.42011e+10
5.19404e+07
-4.47109e+08
-5.37787e+10
4.50651e+07
-4.34151e+08
-5.32789e+10
4.01174e+07
-4.16053e+08
-5.2692e+10
3.74181e+07
-3.89397e+08
-5.20026e+10
3.7504e+07
-3.55151e+08
-5.11964e+10
4.14972e+07
-3.08783e+08
-5.02612e+10
5.06629e+07
-2.44197e+08
-4.91845e+10
6.53228e+07
-1.59829e+08
-4.7948e+10
8.6499e+07
-6.53797e+07
-4.65529e+10
1.13313e+08
4.0277e+07
-4.4931e+10
1.24535e+08
1.4461e+08
-4.35135e+10
2.69148e+08
5.86809e+08
-4.15624e+10
5.9551e+08
1.15052e+09
-3.822e+10
1.24287e+09
1.12021e+09
-1.91346e+10
-2.10855e+09
-4.15612e+09
-2.86721e+09
-3.28141e+09
-6.0722e+10
-2.0477e+09
-6.05558e+10
-1.19992e+09
-6.0467e+10
-9.14669e+08
-6.04092e+10
-6.37159e+08
-6.03647e+10
-6.40448e+08
-6.03365e+10
-4.20702e+08
-6.03725e+10
-3.17087e+08
-6.03882e+10
-2.49482e+08
-6.04359e+10
-1.88587e+08
-6.05001e+10
-1.28013e+08
-6.05761e+10
-8.82815e+07
-6.06577e+10
-6.53836e+07
-6.07478e+10
-5.60143e+07
-6.08455e+10
-5.61659e+07
-6.0948e+10
-6.68647e+07
-6.10545e+10
-8.33484e+07
-6.11586e+10
-1.06871e+08
-6.12595e+10
-1.35478e+08
-6.13574e+10
-1.67138e+08
-6.14509e+10
-2.01898e+08
-6.15409e+10
-2.38392e+08
-6.16259e+10
-2.73139e+08
-6.17093e+10
-3.05411e+08
-6.17883e+10
-3.33602e+08
-6.18703e+10
-3.52866e+08
-6.19516e+10
-3.67215e+08
-6.20384e+10
-3.72694e+08
-6.21266e+10
-3.72715e+08
-6.22191e+10
-3.66361e+08
-6.23107e+10
-3.59134e+08
-6.23995e+10
-3.49126e+08
-6.24822e+10
-3.41614e+08
-6.25522e+10
-3.37142e+08
-6.26078e+10
-3.34866e+08
-6.26456e+10
-3.3685e+08
-6.26622e+10
-3.42606e+08
-6.2652e+10
-3.55744e+08
-6.26061e+10
-3.74428e+08
-6.25155e+10
-4.00278e+08
-6.23676e+10
-4.31692e+08
-6.21447e+10
-4.69995e+08
-6.1832e+10
-5.10453e+08
-6.14086e+10
-5.54465e+08
-6.08534e+10
-5.98159e+08
-6.01409e+10
-6.39409e+08
-5.9242e+10
-6.77211e+08
-5.81081e+10
-7.21427e+08
-5.66845e+10
-7.76412e+08
-5.49199e+10
-8.09193e+08
-5.26038e+10
-7.09508e+08
-4.80215e+10
-1.00337e+09
-3.88372e+10
-2.60005e+09
-2.27132e+10
-7.027e+09
-9.26611e+09
-4.86766e+10
-4.02055e+07
-3.91026e+09
-4.77571e+10
1.3707e+08
-2.5541e+09
-4.68139e+10
6.79299e+07
-2.04633e+09
-4.65483e+10
1.61569e+08
-1.53635e+09
-4.60817e+10
6.00648e+07
-1.4768e+09
-4.56881e+10
1.23553e+08
-1.16527e+09
-4.54717e+10
1.44396e+08
-9.23328e+08
-4.53007e+10
1.51168e+08
-8.00066e+08
-4.51306e+10
1.43778e+08
-7.18564e+08
-4.49674e+10
1.48004e+08
-6.53544e+08
-4.48064e+10
1.48125e+08
-6.09304e+08
-4.46541e+10
1.49782e+08
-5.76289e+08
-4.45065e+10
1.49739e+08
-5.60616e+08
-4.43599e+10
1.50001e+08
-5.61918e+08
-4.42152e+10
1.52359e+08
-5.77394e+08
-4.40669e+10
1.53291e+08
-6.02177e+08
-4.39135e+10
1.54165e+08
-6.36514e+08
-4.37477e+10
1.53771e+08
-6.78795e+08
-4.35639e+10
1.52927e+08
-7.29829e+08
-4.33604e+10
1.52578e+08
-7.84347e+08
-4.31383e+10
1.52102e+08
-8.38876e+08
-4.28968e+10
1.5136e+08
-8.92433e+08
-4.26405e+10
1.50692e+08
-9.36691e+08
-4.23754e+10
1.49915e+08
-9.6979e+08
-4.21062e+10
1.49346e+08
-9.87873e+08
-4.18432e+10
1.48791e+08
-9.90264e+08
-4.15935e+10
1.48292e+08
-9.76906e+08
-4.1363e+10
1.47821e+08
-9.51761e+08
-4.11545e+10
1.4738e+08
-9.16842e+08
-4.09714e+10
1.46991e+08
-8.75817e+08
-4.08104e+10
1.47165e+08
-8.34113e+08
-4.06724e+10
1.48721e+08
-7.91825e+08
-4.05519e+10
1.51038e+08
-7.53112e+08
-4.04465e+10
1.52867e+08
-7.16171e+08
-4.03592e+10
1.5421e+08
-6.80729e+08
-4.02841e+10
1.54924e+08
-6.48889e+08
-4.02196e+10
1.54606e+08
-6.1943e+08
-4.01637e+10
1.52604e+08
-5.89941e+08
-4.01117e+10
1.48029e+08
-5.60464e+08
-4.00485e+10
1.38754e+08
-5.35124e+08
-3.99613e+10
1.24128e+08
-5.09803e+08
-3.98312e+10
1.04308e+08
-4.85809e+08
-3.96425e+10
7.84156e+07
-4.59566e+08
-3.93736e+10
4.60498e+07
-4.32082e+08
-3.90034e+10
4.84548e+06
-4.01033e+08
-3.85242e+10
-4.72444e+07
-3.63182e+08
-3.79689e+10
-1.15449e+08
-3.03585e+08
-3.74051e+10
-2.10781e+08
-1.94509e+08
-3.69332e+10
-3.32848e+08
1.34418e+07
-3.64451e+10
-4.49553e+08
4.10358e+08
-3.63455e+10
-5.59088e+08
1.37681e+09
-3.804e+10
-6.5289e+08
3.60845e+09
-4.73078e+10
-7.17763e+09
1.25789e+10
-6.04352e+09
7.38949e+09
-5.2649e+10
-3.0662e+09
-5.18369e+10
-1.86952e+09
-5.12414e+10
-1.44108e+09
-5.07432e+10
-9.75915e+08
-5.05035e+10
-8.24351e+08
-5.0234e+10
-5.71201e+08
-5.00616e+10
-3.48713e+08
-4.99188e+10
-2.43435e+08
-4.98091e+10
-1.55607e+08
-4.97046e+10
-8.44897e+07
-4.96139e+10
-2.99934e+07
-4.95359e+10
7.7042e+06
-4.94672e+10
2.6259e+07
-4.94009e+10
2.7848e+07
-4.93351e+10
1.84727e+07
-4.92686e+10
727249
-4.91979e+10
-2.72538e+07
-4.91201e+10
-6.37674e+07
-4.903e+10
-1.08181e+08
-4.89255e+10
-1.56684e+08
-4.88081e+10
-2.05692e+08
-4.86761e+10
-2.54471e+08
-4.85353e+10
-2.95086e+08
-4.8391e+10
-3.25572e+08
-4.82481e+10
-3.42155e+08
-4.81164e+10
-3.4388e+08
-4.80026e+10
-3.30426e+08
-4.79124e+10
-3.05706e+08
-4.78491e+10
-2.71289e+08
-4.78169e+10
-2.30831e+08
-4.78118e+10
-1.90097e+08
-4.78334e+10
-1.50016e+08
-4.78774e+10
-1.15632e+08
-4.79414e+10
-8.54817e+07
-4.80252e+10
-5.96112e+07
-4.81245e+10
-4.1884e+07
-4.82409e+10
-3.05336e+07
-4.8375e+10
-2.51074e+07
-4.85286e+10
-2.67651e+07
-4.87021e+10
-3.72079e+07
-4.89012e+10
-5.2414e+07
-4.91229e+10
-7.58404e+07
-4.93698e+10
-1.03229e+08
-4.96392e+10
-1.37694e+08
-4.99329e+10
-1.79438e+08
-5.02679e+10
-2.24205e+08
-5.07098e+10
-2.51788e+08
-5.13856e+10
-2.17608e+08
-5.24886e+10
-1.57354e+07
-5.42609e+10
5.62492e+08
-5.78918e+10
2.17021e+09
-6.62594e+10
5.36188e+09
-9.41143e+10
1.40666e+10
7.481e+09
-5.17686e+10
-2.86674e+08
-4.09494e+09
-5.14358e+10
-1.51178e+08
-2.71526e+09
-5.09488e+10
-1.16454e+08
-2.40784e+09
-5.05844e+10
-1.25486e+08
-1.77424e+09
-5.03934e+10
-1.18257e+08
-1.55277e+09
-5.01649e+10
-7.08853e+07
-1.32553e+09
-4.99501e+10
-2.72388e+07
-1.11092e+09
-4.97785e+10
-1.96868e+07
-9.49065e+08
-4.9641e+10
-2.38788e+07
-8.27269e+08
-4.95236e+10
-2.36067e+07
-7.40997e+08
-4.94125e+10
-2.60565e+07
-6.86773e+08
-4.9306e+10
-2.63129e+07
-6.48303e+08
-4.9198e+10
-2.70322e+07
-6.32663e+08
-4.90861e+10
-2.81722e+07
-6.37074e+08
-4.89653e+10
-2.97476e+07
-6.59676e+08
-4.88368e+10
-3.23529e+07
-6.91484e+08
-4.86977e+10
-3.53658e+07
-7.34455e+08
-4.85422e+10
-4.0033e+07
-7.89267e+08
-4.83691e+10
-4.55248e+07
-8.51735e+08
-4.81721e+10
-5.17498e+07
-9.20954e+08
-4.79503e+10
-5.89266e+07
-9.91299e+08
-4.77039e+10
-6.6738e+07
-1.05892e+09
-4.74356e+10
-7.53385e+07
-1.11443e+09
-4.71512e+10
-8.42382e+07
-1.15154e+09
-4.68568e+10
-9.3191e+07
-1.16589e+09
-4.6563e+10
-1.0215e+08
-1.1538e+09
-4.62777e+10
-1.11134e+08
-1.11799e+09
-4.60078e+10
-1.2042e+08
-1.06349e+09
-4.57569e+10
-1.30292e+08
-9.94234e+08
-4.55236e+10
-1.4091e+08
-9.18344e+08
-4.53086e+10
-1.52045e+08
-8.38605e+08
-4.5109e+10
-1.63062e+08
-7.59614e+08
-4.49226e+10
-1.74398e+08
-6.83954e+08
-4.47428e+10
-1.856e+08
-6.15224e+08
-4.45644e+10
-1.94935e+08
-5.53599e+08
-4.43839e+10
-2.05398e+08
-4.96834e+08
-4.41967e+10
-2.14833e+08
-4.47006e+08
-4.39977e+10
-2.22939e+08
-4.02937e+08
-4.37811e+10
-2.30987e+08
-3.63606e+08
-4.35425e+10
-2.3955e+08
-3.31139e+08
-4.32732e+10
-2.49269e+08
-3.03708e+08
-4.29651e+10
-2.60207e+08
-2.81731e+08
-4.26067e+10
-2.72468e+08
-2.63133e+08
-4.21905e+10
-2.87591e+08
-2.44861e+08
-4.17067e+10
-3.06795e+08
-2.29679e+08
-4.11553e+10
-3.31879e+08
-2.13898e+08
-4.05379e+10
-3.6244e+08
-1.92622e+08
-3.98337e+10
-3.96694e+08
-1.6233e+08
-3.89789e+10
-4.08918e+08
-1.31511e+08
-3.79717e+10
-2.38471e+08
-6.06626e+07
-3.67787e+10
3.01198e+08
2.79325e+08
-3.40604e+10
4.55695e+08
9.48354e+08
-2.02008e+10
-5.91799e+09
5.11323e+09
-4.53113e+09
5.48972e+09
-5.52798e+10
-3.43738e+09
-5.52468e+10
-2.04356e+09
-5.51727e+10
-1.62716e+09
-5.50496e+10
-1.22465e+09
-5.5024e+10
-9.70084e+08
-5.49473e+10
-7.20194e+08
-5.48213e+10
-5.01771e+08
-5.47307e+10
-3.52137e+08
-5.4673e+10
-2.34277e+08
-5.46221e+10
-1.5515e+08
-5.45753e+10
-9.83806e+07
-5.45276e+10
-6.15753e+07
-5.44761e+10
-4.72714e+07
-5.44182e+10
-5.33702e+07
-5.43477e+10
-7.74691e+07
-5.4267e+10
-1.0881e+08
-5.4174e+10
-1.53067e+08
-5.40651e+10
-2.10646e+08
-5.39403e+10
-2.75965e+08
-5.37959e+10
-3.49064e+08
-5.36311e+10
-4.23919e+08
-5.34477e+10
-4.97766e+08
-5.32481e+10
-5.61688e+08
-5.30381e+10
-6.09197e+08
-5.28232e+10
-6.36737e+08
-5.26129e+10
-6.39572e+08
-5.24139e+10
-6.20615e+08
-5.22324e+10
-5.8468e+08
-5.20724e+10
-5.35236e+08
-5.19337e+10
-4.79863e+08
-5.18196e+10
-4.20348e+08
-5.17292e+10
-3.61233e+08
-5.16643e+10
-3.0498e+08
-5.16218e+10
-2.55067e+08
-5.15958e+10
-2.12549e+08
-5.1589e+10
-1.76035e+08
-5.15968e+10
-1.4896e+08
-5.16155e+10
-1.29454e+08
-5.1645e+10
-1.16739e+08
-5.16844e+10
-1.13124e+08
-5.17308e+10
-1.16847e+08
-5.17826e+10
-1.29639e+08
-5.18334e+10
-1.51634e+08
-5.18837e+10
-1.81266e+08
-5.19333e+10
-2.24656e+08
-5.19866e+10
-2.81562e+08
-5.20336e+10
-3.51654e+08
-5.20256e+10
-4.25977e+08
-5.17863e+10
-4.84284e+08
-5.08381e+10
-4.09356e+08
-4.7978e+10
-8.728e+07
-4.38954e+10
2.19898e+09
-4.6796e+10
1.13561e+10
5.24134e+09
-5.0561e+10
-1.27932e+08
-3.83492e+09
-5.04723e+10
-1.80802e+08
-2.60583e+09
-5.0438e+10
-2.1391e+08
-2.21832e+09
-5.02251e+10
-1.90195e+08
-1.79474e+09
-5.01336e+10
-1.60821e+08
-1.48502e+09
-5.00654e+10
-1.24706e+08
-1.27071e+09
-4.99907e+10
-1.03581e+08
-1.08181e+09
-4.99141e+10
-9.59963e+07
-9.27131e+08
-4.9842e+10
-9.00731e+07
-8.0467e+08
-4.97719e+10
-8.50031e+07
-7.20042e+08
-4.97083e+10
-8.35587e+07
-6.5995e+08
-4.9649e+10
-8.23931e+07
-6.18197e+08
-4.95933e+10
-7.98376e+07
-6.01658e+08
-4.95314e+10
-7.84786e+07
-6.13727e+08
-4.94622e+10
-7.77765e+07
-6.4478e+08
-4.93814e+10
-7.89688e+07
-6.88747e+08
-4.92842e+10
-8.11347e+07
-7.47254e+08
-4.91698e+10
-8.48046e+07
-8.19283e+08
-4.90328e+10
-8.8677e+07
-8.99816e+08
-4.88697e+10
-9.34137e+07
-9.89692e+08
-4.86756e+10
-9.85584e+07
-1.08333e+09
-4.84481e+10
-1.04354e+08
-1.17606e+09
-4.81893e+10
-1.10898e+08
-1.25576e+09
-4.79021e+10
-1.17181e+08
-1.31085e+09
-4.75966e+10
-1.23685e+08
-1.3332e+09
-4.72808e+10
-1.29986e+08
-1.31948e+09
-4.69645e+10
-1.36831e+08
-1.27284e+09
-4.66527e+10
-1.44582e+08
-1.20182e+09
-4.63466e+10
-1.53776e+08
-1.1133e+09
-4.60443e+10
-1.64793e+08
-1.01723e+09
-4.57421e+10
-1.77433e+08
-9.17773e+08
-4.54351e+10
-1.90861e+08
-8.21197e+08
-4.51167e+10
-2.05303e+08
-7.31712e+08
-4.47827e+10
-2.22388e+08
-6.49031e+08
-4.44289e+10
-2.42262e+08
-5.73453e+08
-4.40471e+10
-2.64042e+08
-5.07888e+08
-4.36345e+10
-2.87141e+08
-4.49835e+08
-4.31856e+10
-3.11895e+08
-4.00922e+08
-4.26955e+10
-3.38735e+08
-3.58478e+08
-4.21597e+10
-3.67742e+08
-3.24297e+08
-4.1571e+10
-3.99099e+08
-2.97928e+08
-4.09224e+10
-4.32827e+08
-2.78726e+08
-4.02015e+10
-4.69054e+08
-2.68893e+08
-3.93949e+10
-5.09505e+08
-2.66031e+08
-3.849e+10
-5.55506e+08
-2.75417e+08
-3.74795e+10
-6.0938e+08
-2.96522e+08
-3.63533e+10
-6.75354e+08
-3.3181e+08
-3.50872e+10
-7.53935e+08
-3.91715e+08
-3.36337e+10
-8.20477e+08
-5.08104e+08
-3.2101e+10
-6.78829e+08
-6.53652e+08
-3.02391e+10
-1.93876e+08
-1.01856e+09
-2.89399e+10
1.01746e+09
-8.63386e+08
-1.39181e+10
-5.74279e+09
-3.80146e+09
-5.54368e+09
-3.26094e+08
-5.05932e+10
-3.32297e+09
-5.07002e+10
-2.10597e+09
-5.08007e+10
-1.73502e+09
-5.08405e+10
-1.37394e+09
-5.09251e+10
-1.04741e+09
-5.09819e+10
-7.89431e+08
-5.09842e+10
-6.03288e+08
-5.09746e+10
-4.56384e+08
-5.09631e+10
-3.33232e+08
-5.09492e+10
-2.50409e+08
-5.0932e+10
-1.95196e+08
-5.09073e+10
-1.64861e+08
-5.08728e+10
-1.5799e+08
-5.08241e+10
-1.77555e+08
-5.07618e+10
-2.1512e+08
-5.06833e+10
-2.65062e+08
-5.05864e+10
-3.31666e+08
-5.04721e+10
-4.11699e+08
-5.03379e+10
-5.01479e+08
-5.01818e+10
-6.00731e+08
-5.00009e+10
-7.04375e+08
-4.97949e+10
-8.08405e+08
-4.95655e+10
-9.00384e+08
-4.93175e+10
-9.70575e+08
-4.90599e+10
-1.01038e+09
-4.88009e+10
-1.01745e+09
-4.85494e+10
-9.94637e+08
-4.83116e+10
-9.50033e+08
-4.80908e+10
-8.89979e+08
-4.7888e+10
-8.24024e+08
-4.77018e+10
-7.55883e+08
-4.75297e+10
-6.90272e+08
-4.73686e+10
-6.30388e+08
-4.7219e+10
-5.77631e+08
-4.70808e+10
-5.34264e+08
-4.69525e+10
-4.99571e+08
-4.68368e+10
-4.72348e+08
-4.67323e+10
-4.55067e+08
-4.66402e+10
-4.4476e+08
-4.65615e+10
-4.43802e+08
-4.64947e+10
-4.52332e+08
-4.64396e+10
-4.69879e+08
-4.63924e+10
-5.00447e+08
-4.6349e+10
-5.4546e+08
-4.63088e+10
-6.13698e+08
-4.6275e+10
-7.10745e+08
-4.62504e+10
-8.47798e+08
-4.62074e+10
-1.04109e+09
-4.603e+10
-1.31191e+09
-4.51902e+10
-1.71784e+09
-4.26402e+10
-2.49164e+09
-3.52014e+10
-3.80016e+09
-2.4921e+10
-4.35507e+09
-1.47817e+09
-4.95766e+10
1.8969e+07
-3.52701e+09
-4.96253e+10
-1.80881e+06
-2.54007e+09
-4.96691e+10
-3.40417e+07
-2.13256e+09
-4.9656e+10
-3.13831e+07
-1.77435e+09
-4.96331e+10
-4.25533e+07
-1.46728e+09
-4.96202e+10
-4.51824e+07
-1.24132e+09
-4.96026e+10
-4.8211e+07
-1.05305e+09
-4.95822e+10
-5.12649e+07
-8.95943e+08
-4.95627e+10
-5.28386e+07
-7.69025e+08
-4.95457e+10
-5.62627e+07
-6.77281e+08
-4.95299e+10
-5.72726e+07
-6.14637e+08
-4.95078e+10
-5.71608e+07
-5.79925e+08
-4.94846e+10
-5.30572e+07
-5.69956e+08
-4.94596e+10
-4.84896e+07
-5.89461e+08
-4.94306e+10
-4.38658e+07
-6.30714e+08
-4.93903e+10
-3.92003e+07
-6.91673e+08
-4.93389e+10
-3.46827e+07
-7.70393e+08
-4.92729e+10
-2.98e+07
-8.65342e+08
-4.91902e+10
-2.47812e+07
-9.71157e+08
-4.90879e+10
-1.91635e+07
-1.08794e+09
-4.89597e+10
-1.28968e+07
-1.21202e+09
-4.88031e+10
-6.66742e+06
-1.33883e+09
-4.86177e+10
86211
-1.45079e+09
-4.84119e+10
6.62791e+06
-1.52893e+09
-4.81999e+10
1.32174e+07
-1.55881e+09
-4.79962e+10
1.9425e+07
-1.53777e+09
-4.78138e+10
2.49039e+07
-1.47193e+09
-4.76604e+10
2.93601e+07
-1.37413e+09
-4.75357e+10
3.25446e+07
-1.2582e+09
-4.74385e+10
3.46682e+07
-1.13408e+09
-4.73614e+10
3.59448e+07
-1.01173e+09
-4.72966e+10
3.66249e+07
-8.97701e+08
-4.72375e+10
3.63423e+07
-7.9459e+08
-4.71761e+10
3.45366e+07
-7.03251e+08
-4.71063e+10
3.045e+07
-6.2143e+08
-4.70228e+10
2.38707e+07
-5.51549e+08
-4.69206e+10
1.51621e+07
-4.91634e+08
-4.67954e+10
4.32681e+06
-4.42291e+08
-4.66407e+10
-9.35296e+06
-4.02849e+08
-4.64528e+10
-2.626e+07
-3.70935e+08
-4.62247e+10
-4.67201e+07
-3.48856e+08
-4.5949e+10
-6.99608e+07
-3.35504e+08
-4.56174e+10
-9.58322e+07
-3.34582e+08
-4.5215e+10
-1.26505e+08
-3.49025e+08
-4.47378e+10
-1.61627e+08
-3.79796e+08
-4.41809e+10
-2.02494e+08
-4.34636e+08
-4.35301e+10
-2.51303e+08
-5.32869e+08
-4.2747e+10
-3.06876e+08
-7.05484e+08
-4.17532e+10
-3.51567e+08
-1.00618e+09
-4.0423e+10
-2.86488e+08
-1.51427e+09
-3.84631e+10
-1.35784e+08
-2.6073e+09
-3.446e+10
-2.78381e+08
-4.22504e+09
-1.60307e+10
-8.29433e+09
-1.35903e+10
-5.21722e+09
-6.56087e+09
-4.83611e+10
-3.20781e+09
-4.81936e+10
-2.26771e+09
-4.80473e+10
-1.91147e+09
-4.7883e+10
-1.5692e+09
-4.77472e+10
-1.22713e+09
-4.76184e+10
-9.65037e+08
-4.75001e+10
-7.704e+08
-4.73937e+10
-6.13321e+08
-4.72908e+10
-4.87237e+08
-4.72011e+10
-3.94005e+08
-4.71211e+10
-3.30159e+08
-4.70472e+10
-2.9422e+08
-4.69724e+10
-2.85071e+08
-4.68936e+10
-3.05055e+08
-4.6807e+10
-3.46869e+08
-4.67049e+10
-4.09359e+08
-4.6585e+10
-4.9154e+08
-4.64433e+10
-5.91667e+08
-4.62755e+10
-7.04832e+08
-4.60771e+10
-8.29882e+08
-4.58417e+10
-9.64173e+08
-4.55648e+10
-1.10206e+09
-4.52471e+10
-1.22589e+09
-4.48983e+10
-1.31663e+09
-4.45373e+10
-1.35777e+09
-4.41841e+10
-1.34735e+09
-4.38573e+10
-1.29044e+09
-4.35705e+10
-1.20044e+09
-4.33282e+10
-1.09164e+09
-4.31334e+10
-9.74673e+08
-4.29822e+10
-8.5894e+08
-4.28702e+10
-7.49624e+08
-4.27936e+10
-6.49405e+08
-4.27479e+10
-5.61375e+08
-4.27322e+10
-4.84766e+08
-4.27454e+10
-4.20125e+08
-4.27871e+10
-3.65008e+08
-4.28591e+10
-3.199e+08
-4.29616e+10
-2.83828e+08
-4.30987e+10
-2.55343e+08
-4.32709e+10
-2.38001e+08
-4.34772e+10
-2.31329e+08
-4.37179e+10
-2.3788e+08
-4.39946e+10
-2.62067e+08
-4.43221e+10
-3.03862e+08
-4.47193e+10
-3.74569e+08
-4.52011e+10
-4.9489e+08
-4.57353e+10
-7.1911e+08
-4.61554e+10
-1.15872e+09
-4.59945e+10
-2.05766e+09
-4.43718e+10
-4.06689e+09
-4.00121e+10
-8.14565e+09
-3.47413e+10
-1.78213e+10
-6.36715e+09
-4.79515e+10
1.34353e+08
-3.30339e+09
-4.80988e+10
1.51627e+08
-2.53887e+09
-4.81807e+10
1.76462e+08
-2.22383e+09
-4.82591e+10
1.93876e+08
-1.88902e+09
-4.82976e+10
1.84761e+08
-1.61367e+09
-4.83237e+10
1.74707e+08
-1.39019e+09
-4.83325e+10
1.69503e+08
-1.21328e+09
-4.83297e+10
1.75275e+08
-1.07239e+09
-4.83175e+10
1.81453e+08
-9.60006e+08
-4.83042e+10
1.84407e+08
-8.71587e+08
-4.82928e+10
1.82785e+08
-8.05596e+08
-4.82749e+10
1.81798e+08
-7.77277e+08
-4.82495e+10
1.83494e+08
-7.78325e+08
-4.82185e+10
1.8522e+08
-8.07007e+08
-4.81782e+10
1.86174e+08
-8.60405e+08
-4.81243e+10
1.86425e+08
-9.37011e+08
-4.80539e+10
1.85788e+08
-1.03598e+09
-4.79663e+10
1.84508e+08
-1.15057e+09
-4.7861e+10
1.81859e+08
-1.27966e+09
-4.77333e+10
1.79305e+08
-1.41834e+09
-4.75765e+10
1.75719e+08
-1.57e+09
-4.73843e+10
1.71521e+08
-1.72714e+09
-4.71512e+10
1.66768e+08
-1.86829e+09
-4.68935e+10
1.60455e+08
-1.96088e+09
-4.66313e+10
1.54207e+08
-1.98005e+09
-4.6394e+10
1.46439e+08
-1.92426e+09
-4.61984e+10
1.38004e+08
-1.80781e+09
-4.60533e+10
1.28794e+08
-1.65289e+09
-4.59605e+10
1.19386e+08
-1.47877e+09
-4.59133e+10
1.10093e+08
-1.30247e+09
-4.59071e+10
1.00866e+08
-1.13146e+09
-4.59347e+10
9.13303e+07
-9.74009e+08
-4.59913e+10
8.11025e+07
-8.30325e+08
-4.60738e+10
7.01896e+07
-6.99634e+08
-4.61791e+10
5.82883e+07
-5.79956e+08
-4.63083e+10
4.46364e+07
-4.69054e+08
-4.64623e+10
2.85551e+07
-3.65121e+08
-4.66437e+10
9.87135e+06
-2.66687e+08
-4.68567e+10
-1.17536e+07
-1.70937e+08
-4.71004e+10
-3.70018e+07
-7.96539e+07
-4.738e+10
-6.67374e+07
1.29167e+07
-4.7697e+10
-1.02044e+08
1.06301e+08
-4.80549e+10
-1.44058e+08
1.99883e+08
-4.84605e+10
-1.93675e+08
2.93156e+08
-4.89274e+10
-2.52111e+08
3.87399e+08
-4.94792e+10
-3.22036e+08
4.77355e+08
-5.01516e+10
-4.08563e+08
5.49712e+08
-5.09716e+10
-5.17245e+08
5.72901e+08
-5.18659e+10
-6.686e+08
4.17431e+08
-5.23522e+10
-9.62529e+08
-3.20612e+08
-5.11973e+10
-1.66212e+09
-2.41656e+09
-4.45443e+10
-4.08669e+09
-7.13291e+09
-3.28843e+10
-1.00974e+10
-1.54813e+10
-3.51369e+09
-3.5569e+09
-4.91377e+10
-2.62501e+09
-4.9385e+10
-1.86554e+09
-4.95266e+10
-1.59191e+09
-4.96224e+10
-1.27882e+09
-4.9685e+10
-9.7949e+08
-4.9728e+10
-7.46657e+08
-4.97563e+10
-5.71513e+08
-4.97655e+10
-4.27067e+08
-4.97587e+10
-3.10284e+08
-4.97445e+10
-2.21333e+08
-4.97325e+10
-1.57186e+08
-4.97171e+10
-1.26514e+08
-4.96928e+10
-1.2597e+08
-4.96601e+10
-1.54129e+08
-4.96151e+10
-2.08709e+08
-4.95538e+10
-2.89024e+08
-4.94726e+10
-3.94348e+08
-4.93711e+10
-5.20075e+08
-4.92457e+10
-6.6332e+08
-4.90932e+10
-8.21484e+08
-4.89048e+10
-9.96761e+08
-4.86728e+10
-1.1815e+09
-4.83922e+10
-1.35571e+09
-4.80752e+10
-1.48277e+09
-4.77455e+10
-1.53889e+09
-4.74311e+10
-1.51823e+09
-4.71518e+10
-1.43541e+09
-4.69179e+10
-1.31207e+09
-4.67317e+10
-1.16838e+09
-4.65864e+10
-1.0229e+09
-4.64765e+10
-8.83555e+08
-4.63931e+10
-7.58677e+08
-4.63299e+10
-6.49127e+08
-4.62828e+10
-5.56162e+08
-4.62481e+10
-4.78906e+08
-4.6226e+10
-4.15326e+08
-4.62167e+10
-3.63784e+08
-4.6222e+10
-3.2325e+08
-4.62448e+10
-2.91918e+08
-4.62835e+10
-2.73004e+08
-4.63451e+10
-2.61662e+08
-4.64362e+10
-2.5832e+08
-4.65677e+10
-2.62518e+08
-4.67555e+10
-2.767e+08
-4.70223e+10
-3.00378e+08
-4.74035e+10
-3.42823e+08
-4.7953e+10
-4.19972e+08
-4.87433e+10
-5.75821e+08
-4.98654e+10
-9.31584e+08
-5.13793e+10
-1.85131e+09
-5.31444e+10
-4.39939e+09
-5.63502e+10
-9.56863e+09
-6.61642e+10
-1.8644e+10
-2.34737e+09
-4.71447e+10
1.06127e+08
-3.13108e+09
-4.72121e+10
1.43457e+08
-2.6135e+09
-4.72465e+10
1.82416e+08
-2.37038e+09
-4.72609e+10
2.0843e+08
-2.08052e+09
-4.72416e+10
2.1278e+08
-1.84246e+09
-4.72123e+10
2.12905e+08
-1.62856e+09
-4.71889e+10
2.20229e+08
-1.45279e+09
-4.71731e+10
2.36516e+08
-1.32021e+09
-4.71622e+10
2.49093e+08
-1.21519e+09
-4.71558e+10
2.55783e+08
-1.12885e+09
-4.71425e+10
2.56835e+08
-1.07121e+09
-4.7128e+10
2.57136e+08
-1.04581e+09
-4.71112e+10
2.56769e+08
-1.0512e+09
-4.70868e+10
2.54182e+08
-1.08775e+09
-4.70476e+10
2.49642e+08
-1.15337e+09
-4.69858e+10
2.43105e+08
-1.24912e+09
-4.68944e+10
2.35139e+08
-1.37131e+09
-4.67686e+10
2.24512e+08
-1.51754e+09
-4.66029e+10
2.12982e+08
-1.68202e+09
-4.63933e+10
2.00024e+08
-1.86075e+09
-4.61278e+10
1.86489e+08
-2.06122e+09
-4.57803e+10
1.7387e+08
-2.28475e+09
-4.53372e+10
1.62457e+08
-2.50633e+09
-4.48097e+10
1.55866e+08
-2.6625e+09
-4.42501e+10
1.53485e+08
-2.70387e+09
-4.37103e+10
1.55882e+08
-2.62737e+09
-4.32301e+10
1.61202e+08
-2.46203e+09
-4.28289e+10
1.67746e+08
-2.2449e+09
-4.25085e+10
1.74202e+08
-2.00798e+09
-4.22609e+10
1.79498e+08
-1.77521e+09
-4.20731e+10
1.83227e+08
-1.55814e+09
-4.19343e+10
1.85258e+08
-1.36242e+09
-4.1835e+10
1.85512e+08
-1.18739e+09
-4.17676e+10
1.84226e+08
-1.03093e+09
-4.17258e+10
1.81576e+08
-8.90615e+08
-4.17071e+10
1.77957e+08
-7.6145e+08
-4.17081e+10
1.73541e+08
-6.42624e+08
-4.17287e+10
1.67908e+08
-5.29318e+08
-4.17657e+10
1.61245e+08
-4.21177e+08
-4.1821e+10
1.53965e+08
-3.15173e+08
-4.18902e+10
1.46229e+08
-2.10305e+08
-4.1971e+10
1.3775e+08
-1.04197e+08
-4.20633e+10
1.28125e+08
5.19651e+06
-4.21678e+10
1.17143e+08
1.15417e+08
-4.22959e+10
1.03355e+08
2.32555e+08
-4.24777e+10
8.33881e+07
3.57138e+08
-4.27743e+10
5.12348e+07
4.92232e+08
-4.33018e+10
-158629
6.38558e+08
-4.43045e+10
-9.18618e+07
7.95146e+08
-4.61763e+10
-3.33465e+08
8.20425e+08
-4.9123e+10
-1.34449e+09
4.21989e+08
-5.35904e+10
-3.375e+09
-7.8541e+08
-5.54063e+10
-8.14546e+09
-6.64973e+09
-1.04585e+09
-1.07263e+09
-4.62022e+10
-2.06278e+09
-4.64784e+10
-1.44483e+09
-4.66868e+10
-1.19931e+09
-4.68426e+10
-9.12224e+08
-4.69361e+10
-6.7022e+08
-4.70005e+10
-4.66237e+08
-4.706e+10
-2.88647e+08
-4.70994e+10
-1.47832e+08
-4.71209e+10
-3.62751e+07
-4.71297e+10
4.65501e+07
-4.71271e+10
9.99118e+07
-4.71169e+10
1.21969e+08
-4.7098e+10
1.11782e+08
-4.70685e+10
6.84777e+07
-4.70252e+10
-6.15787e+06
-4.69629e+10
-1.1336e+08
-4.68799e+10
-2.5004e+08
-4.67728e+10
-4.14184e+08
-4.66405e+10
-6.00224e+08
-4.648e+10
-8.05354e+08
-4.62806e+10
-1.03559e+09
-4.60199e+10
-1.29426e+09
-4.5679e+10
-1.55322e+09
-4.52675e+10
-1.74888e+09
-4.48265e+10
-1.82989e+09
-4.43985e+10
-1.7913e+09
-4.40158e+10
-1.66243e+09
-4.36943e+10
-1.47915e+09
-4.34366e+10
-1.27376e+09
-4.32387e+10
-1.07091e+09
-4.3093e+10
-8.82332e+08
-4.29945e+10
-7.13927e+08
-4.29394e+10
-5.65721e+08
-4.29264e+10
-4.36613e+08
-4.29567e+10
-3.23673e+08
-4.30353e+10
-2.20797e+08
-4.31672e+10
-1.26379e+08
-4.33632e+10
-3.38972e+07
-4.36336e+10
5.81913e+07
-4.39945e+10
1.53876e+08
-4.44593e+10
2.56021e+08
-4.50466e+10
3.69511e+08
-4.57798e+10
4.98989e+08
-4.66891e+10
6.46057e+08
-4.78236e+10
8.21872e+08
-4.92667e+10
1.03558e+09
-5.11625e+10
1.3086e+09
-5.37536e+10
1.66497e+09
-5.74481e+10
2.11751e+09
-6.2984e+10
2.5388e+09
-7.31135e+10
3.35693e+09
-9.12975e+10
4.18259e+09
-1.2591e+11
7.23611e+09
-7.36607e+08
-4.80127e+10
1.99021e+07
-2.80916e+09
-4.82499e+10
4.72761e+07
-2.42003e+09
-4.84373e+10
3.42232e+07
-2.2119e+09
-4.85837e+10
3.00026e+07
-1.95783e+09
-4.8704e+10
2.13471e+07
-1.73699e+09
-4.88016e+10
1.13042e+07
-1.53588e+09
-4.88916e+10
3.92169e+06
-1.36079e+09
-4.89835e+10
395163
-1.22275e+09
-4.90767e+10
-4.67676e+06
-1.11112e+09
-4.91672e+10
-1.14386e+07
-1.02057e+09
-4.92547e+10
-1.66731e+07
-9.61051e+08
-4.93405e+10
-2.04958e+07
-9.34675e+08
-4.94248e+10
-2.42649e+07
-9.39964e+08
-4.95046e+10
-2.87102e+07
-9.79002e+08
-4.95719e+10
-3.33982e+07
-1.05439e+09
-4.96204e+10
-3.81141e+07
-1.16493e+09
-4.96414e+10
-4.28769e+07
-1.31004e+09
-4.96318e+10
-4.83377e+07
-1.48593e+09
-4.95878e+10
-5.51135e+07
-1.68295e+09
-4.9508e+10
-6.52245e+07
-1.89926e+09
-4.9381e+10
-7.68831e+07
-2.14049e+09
-4.91717e+10
-9.10396e+07
-2.43388e+09
-4.88296e+10
-1.0715e+08
-2.76082e+09
-4.83533e+10
-1.26565e+08
-3.01122e+09
-4.7816e+10
-1.51142e+08
-3.0745e+09
-4.72934e+10
-1.7673e+08
-2.95131e+09
-4.6832e+10
-2.01095e+08
-2.70811e+09
-4.64499e+10
-2.21439e+08
-2.40452e+09
-4.61435e+10
-2.36935e+08
-2.08996e+09
-4.59018e+10
-2.48322e+08
-1.79245e+09
-4.57112e+10
-2.56867e+08
-1.52447e+09
-4.55624e+10
-2.63841e+08
-1.28645e+09
-4.5447e+10
-2.69671e+08
-1.07705e+09
-4.53605e+10
-2.74235e+08
-8.91435e+08
-4.53045e+10
-2.77305e+08
-7.21562e+08
-4.52792e+10
-2.78842e+08
-5.64575e+08
-4.52911e+10
-2.7881e+08
-4.13771e+08
-4.53437e+10
-2.77062e+08
-2.67059e+08
-4.54477e+10
-2.73217e+08
-1.17239e+08
-4.56117e+10
-2.66722e+08
3.70152e+07
-4.58459e+10
-2.57213e+08
1.99185e+08
-4.61616e+10
-2.44759e+08
3.73952e+08
-4.6572e+10
-2.29844e+08
5.66547e+08
-4.70906e+10
-2.1259e+08
7.74113e+08
-4.77415e+10
-1.95901e+08
1.01066e+09
-4.857e+10
-1.84804e+08
1.29117e+09
-4.96687e+10
-1.83762e+08
1.6482e+09
-5.12219e+10
-1.87749e+08