/*--------------------------------*- C++ -*----------------------------------*\
| =========                 |                                                 |
| \\      /  F ield         | OpenFOAM: The Open Source CFD Toolbox           |
|  \\    /   O peration     | Version:  4.1                                   |
|   \\  /    A nd           | Web:      www.OpenFOAM.org                      |
|    \\/     M anipulation  |                                                 |
\*---------------------------------------------------------------------------*/
FoamFile
{
    version     2.0;
    format      ascii;
    class       volVectorField;
    location    "41";
    object      U;
}
// * * * * * * * * * * * * * * * * * * * * * * * * * * * * * * * * * * * * * //

dimensions      [0 1 -1 0 0 0 0];

internalField   nonuniform List<vector> 
4432
(
(-191397 -4489.89 -11787.4)
(-189861 -1349.12 -4599.69)
(-180054 490.257 -1081.06)
(-173043 -2230.94 -4572.92)
(-173994 -1511.93 -3775.61)
(-171878 -1276.18 -2587.2)
(-168871 -1428.85 -3030.43)
(-167231 -1382.2 -2973.03)
(-165806 -1418.28 -3023.78)
(-164572 -1490.48 -3097.43)
(-163382 -1565.81 -3170.36)
(-162273 -1610.42 -3273.29)
(-161199 -1639.73 -3385.3)
(-160186 -1679.13 -3484.95)
(-159221 -1727.28 -3569.34)
(-158184 -1773.53 -3688.51)
(-157038 -1811.61 -3853.89)
(-155817 -1847.96 -4029.48)
(-154510 -1889.82 -4219.04)
(-153083 -1931.96 -4409.94)
(-151521 -1974.57 -4606.49)
(-149817 -2017.03 -4800.17)
(-147970 -2059.21 -4988.18)
(-145992 -2101.16 -5165.8)
(-143910 -2142.98 -5329.17)
(-141755 -2184.27 -5475.23)
(-139568 -2224.24 -5601.53)
(-137382 -2262.04 -5707.69)
(-135233 -2296.6 -5794.65)
(-133140 -2327.16 -5865.08)
(-131127 -2352.92 -5922.2)
(-129208 -2373.16 -5969.34)
(-127398 -2386.8 -6011.72)
(-125713 -2393.23 -6051.18)
(-124157 -2393.01 -6081.09)
(-122737 -2385.43 -6094.69)
(-121466 -2369.41 -6089.38)
(-120357 -2346.18 -6064.13)
(-119422 -2315.13 -6017.8)
(-118673 -2272.93 -5942.18)
(-118141 -2218.63 -5814.26)
(-117867 -2151.79 -5604.15)
(-117902 -2072.77 -5269.88)
(-118347 -1985.3 -4749.58)
(-119436 -1889.7 -3945.4)
(-121603 -1779.54 -2735.77)
(-125244 -1630.09 -937.029)
(-129937 -1414.05 1717.4)
(-133806 -1100.47 5847.15)
(-137806 -639.189 10902.3)
(-153519 218.325 18851.8)
(-206013 3300.73 26488.8)
(-251056 -2352.7 43902.6)
(-184971 3684.11 34482.1)
(-207567 -1935.8 -7718.64)
(-203228 1049.75 -5186.65)
(-199462 2754.53 -3900.19)
(-194412 313.423 -3621.28)
(-193012 1006.53 -3688.63)
(-191986 1243.41 -2848.78)
(-189607 1135.03 -3130.43)
(-188191 1207.29 -3078.37)
(-187159 1203.47 -3141.67)
(-186225 1168.58 -3161.41)
(-185276 1130.61 -3210.52)
(-184386 1120.13 -3300.92)
(-183570 1123.86 -3405.41)
(-182835 1119.76 -3490.95)
(-182139 1109.06 -3573.37)
(-181378 1101.23 -3704.64)
(-180533 1101.85 -3874.96)
(-179649 1105.29 -4046.62)
(-178708 1105.37 -4234.11)
(-177678 1106.76 -4423.02)
(-176553 1109.34 -4617.74)
(-175329 1113.9 -4810.47)
(-174010 1120.5 -4998.17)
(-172609 1129.39 -5176.68)
(-171150 1140.38 -5342.32)
(-169660 1154.05 -5492.56)
(-168173 1171.01 -5625.64)
(-166715 1192.36 -5741.61)
(-165312 1219.1 -5841.81)
(-163981 1252.42 -5928.92)
(-162735 1293.53 -6006.09)
(-161584 1343.93 -6075.83)
(-160532 1405.75 -6140.91)
(-159586 1480.34 -6202.65)
(-158742 1568.54 -6261.75)
(-157999 1672.59 -6315.62)
(-157354 1795.35 -6361.27)
(-156810 1938.53 -6399.67)
(-156370 2105.67 -6431.58)
(-156040 2302.79 -6454.76)
(-155836 2534.23 -6462.22)
(-155783 2804.01 -6439.91)
(-155917 3116.67 -6371.1)
(-156315 3475.49 -6226.85)
(-157181 3885.48 -5947.33)
(-158885 4357.1 -5457.58)
(-161839 4922.31 -4631.4)
(-166006 5624.65 -3286.1)
(-170508 6495.18 -1075.42)
(-177221 7636.3 2057.83)
(-195851 8925.74 6961.87)
(-253694 10053.9 10366.2)
(-312478 2891.64 23171.9)
(-293236 -13464.5 45865.5)
(-222404 -518.197 -11475.9)
(-221020 -1157.83 -5698.24)
(-221748 -1363.31 -1332.57)
(-220408 -449.632 -3410.27)
(-219255 -601.093 -2303.8)
(-220194 -578.316 -527.884)
(-220050 -574.427 53.8093)
(-219804 -513.254 559.903)
(-220015 -530.869 803.678)
(-220239 -518.98 968.675)
(-220447 -534.152 1069.12)
(-220692 -536.913 1103.29)
(-220917 -531.818 1117.11)
(-221171 -525.596 1133.11)
(-221509 -532.675 1144.65)
(-221862 -551.592 1133.85)
(-222148 -561.38 1090.24)
(-222396 -562.199 1030.03)
(-222618 -568.273 950.925)
(-222802 -573.222 869.043)
(-222947 -577.972 787.406)
(-223049 -581.846 717.125)
(-223112 -584.522 664.79)
(-223139 -586.097 637.446)
(-223140 -586.521 640.243)
(-223117 -585.719 676.825)
(-223081 -583.542 748.868)
(-223027 -579.702 854.446)
(-222956 -573.963 989.855)
(-222855 -566.031 1148.26)
(-222715 -555.451 1323.68)
(-222520 -541.135 1513.01)
(-222254 -520.659 1715.39)
(-221888 -492.873 1926.15)
(-221394 -461.141 2141)
(-220753 -425.474 2357.78)
(-219933 -382.203 2569.93)
(-218900 -330.562 2775.4)
(-217620 -270.079 2970.71)
(-216058 -198.176 3153.3)
(-214204 -113.541 3329.84)
(-212011 -15.4168 3495.42)
(-209425 97.648 3645.72)
(-206395 229.441 3777.62)
(-202922 387.157 3894.17)
(-199056 582.008 3996.85)
(-194743 833.292 4091.26)
(-189380 1159.75 4226.14)
(-182538 1553.34 4479.07)
(-172627 2535.77 5056.63)
(-171540 4152.58 5951.05)
(-164653 4877.96 3249.24)
(-171790 1056.57 -62.2888)
(16098.7 -7526.82 4233.03)
(-244052 1698.84 -7471.35)
(-243005 995.627 -4874.9)
(-242417 796.478 -3248.49)
(-241202 1603.42 -1945.47)
(-240905 1431.42 -1895.19)
(-241648 1439.61 -655.532)
(-241540 1431.93 -166.514)
(-241371 1478.07 212.228)
(-241660 1454.71 368.353)
(-241924 1460.96 528.939)
(-242196 1445.04 631.949)
(-242480 1442.49 671.171)
(-242767 1448.91 675.917)
(-243112 1457.87 683.188)
(-243559 1455.9 689.76)
(-244016 1444 660.93)
(-244409 1441.22 602.732)
(-244798 1447.19 529.493)
(-245190 1448.63 439.727)
(-245562 1451.08 345.451)
(-245919 1453.46 248.267)
(-246259 1456.04 157.953)
(-246586 1458.72 80.7981)
(-246904 1461.03 22.8867)
(-247225 1462.53 -10.2973)
(-247551 1462.92 -15.7583)
(-247894 1461.75 8.02584)
(-248252 1458.86 59.0198)
(-248625 1453.88 133.307)
(-249003 1446.59 224.145)
(-249379 1436.81 325.88)
(-249736 1425.05 434.527)
(-250058 1413.07 545.974)
(-250326 1401.46 656.152)
(-250525 1386.6 762.685)
(-250654 1367.77 862.168)
(-250685 1348.09 948.077)
(-250588 1328.4 1014.75)
(-250329 1308.83 1056.24)
(-249855 1291.38 1068.92)
(-249111 1278.31 1050.02)
(-248031 1270.46 998.068)
(-246535 1269.06 916.681)
(-244559 1278.38 813.142)
(-242057 1306.92 698.075)
(-238990 1368.15 587.626)
(-235251 1481.13 504.487)
(-230154 1665.22 514.108)
(-222775 1915.88 766.784)
(-212384 2687.81 1276.83)
(-204573 3208.04 1916.72)
(-190606 5476.59 -2790.31)
(-159998 -6202.28 -1439.57)
(885.666 -6230.69 4147.72)
(-199619 -1523.79 -12094.4)
(-190575 -1383.09 -9739.16)
(-189552 -2352.52 -9013.11)
(-187411 -708.746 -6431.17)
(-184394 -1016.36 -6484.41)
(-183243 -1186.69 -5656.34)
(-182275 -1269.08 -4677.08)
(-181537 -1217.66 -4121.56)
(-180922 -1238.52 -3739.29)
(-180261 -1203.44 -3406.39)
(-179606 -1178.15 -3194.9)
(-178968 -1136.73 -3084.91)
(-178285 -1107.75 -3054.3)
(-177652 -1090.78 -3098.11)
(-177115 -1079.04 -3206.93)
(-176578 -1086.13 -3332.86)
(-175969 -1084.51 -3473.87)
(-175313 -1079.66 -3647.89)
(-174605 -1076.4 -3852.79)
(-173820 -1072.72 -4080.64)
(-172958 -1069.63 -4318.74)
(-172019 -1066.05 -4554.48)
(-171012 -1060.98 -4772.72)
(-169957 -1054.32 -4962.87)
(-168880 -1045.01 -5115.41)
(-167810 -1033.15 -5226.51)
(-166782 -1018.05 -5296.27)
(-165823 -999.293 -5331.98)
(-164954 -976.425 -5343.73)
(-164183 -948.969 -5344.65)
(-163507 -915.628 -5343.84)
(-162916 -876.521 -5337.41)
(-162409 -834.418 -5312.19)
(-161978 -786.983 -5286.96)
(-161611 -731.998 -5284.62)
(-161302 -675.029 -5268.79)
(-161040 -617.364 -5239.36)
(-160812 -561.02 -5194.98)
(-160604 -508.225 -5126.61)
(-160381 -463.158 -5039.55)
(-160051 -426.237 -4933.34)
(-159576 -394.341 -4813.89)
(-158880 -362.71 -4694.28)
(-157905 -319.269 -4582.27)
(-156662 -246.968 -4474.08)
(-155228 -110.319 -4368.96)
(-153601 132.198 -4260.16)
(-151249 543.503 -4070.5)
(-146555 1225.14 -3725.9)
(-141111 2308.19 -1643.83)
(-143301 3277.32 2950.01)
(-172250 5389.56 13540.5)
(-211401 -8735.57 25509.2)
(-142872 997.683 9784.98)
(-213825 2530.96 -10547.7)
(-208816 2433.76 -6831.04)
(-205829 1475.38 -5480.5)
(-203503 2951.21 -3792.04)
(-202483 2615.53 -3888.31)
(-201362 2418.37 -3365.77)
(-200443 2312.69 -2431.96)
(-199894 2331.02 -1949.49)
(-199525 2285.21 -1577.55)
(-199072 2293.6 -1253.14)
(-198682 2295.29 -1022.61)
(-198326 2313.44 -886.386)
(-197970 2321.59 -838.899)
(-197659 2319.89 -875.401)
(-197443 2314.53 -967.684)
(-197222 2292.96 -1066.31)
(-196927 2279.94 -1183.14)
(-196614 2270.33 -1342.96)
(-196273 2259.76 -1526.22)
(-195872 2250.35 -1733.57)
(-195416 2241.45 -1951.94)
(-194904 2234.18 -2169.53)
(-194347 2229.63 -2372.77)
(-193765 2228.09 -2550.05)
(-193182 2230.6 -2691.55)
(-192629 2237.15 -2792.68)
(-192136 2248.25 -2852.67)
(-191730 2264.2 -2877.63)
(-191432 2285.26 -2876.04)
(-191252 2311.82 -2859.74)
(-191191 2344.88 -2838.5)
(-191239 2385.01 -2822.65)
(-191377 2431.22 -2815.57)
(-191610 2485.75 -2816.28)
(-191926 2551.27 -2827.47)
(-192304 2624.28 -2854.85)
(-192748 2704.94 -2898.47)
(-193260 2793.07 -2954.82)
(-193834 2889.21 -3026.18)
(-194474 2990.86 -3109.08)
(-195185 3100.87 -3199.36)
(-195978 3225.68 -3296.61)
(-196852 3374.51 -3402.61)
(-197823 3564.77 -3517.29)
(-198958 3822.69 -3636.05)
(-200436 4191.86 -3735.08)
(-202358 4726.88 -3765.51)
(-204390 5495.21 -3588.52)
(-205294 6595.57 -2808.4)
(-207025 8028.85 -339.963)
(-220449 9636.95 4848.13)
(-274645 10402.2 14763.5)
(-323322 -5696.86 25019.7)
(-405527 -28314.9 -12575.1)
(-208614 -3959.6 -15235.3)
(-206581 -2981.97 -8830.62)
(-204456 -2491.2 -8249.38)
(-202997 -2212.45 -5332.95)
(-202039 -2394.03 -4779.69)
(-200934 -2625.46 -4098.11)
(-200070 -2592.41 -3568.85)
(-199388 -2542.43 -3099.49)
(-198881 -2526.3 -2711.32)
(-198372 -2482.86 -2392.1)
(-197915 -2455.73 -2149.88)
(-197472 -2420.81 -1939.15)
(-196988 -2396.23 -1831.15)
(-196520 -2388.32 -1832.35)
(-196086 -2392.04 -1919.27)
(-195613 -2398.59 -2041.16)
(-195064 -2397.86 -2197.33)
(-194462 -2398.43 -2388.92)
(-193798 -2398.35 -2601.5)
(-193045 -2397.87 -2828.42)
(-192194 -2396.27 -3056.34)
(-191242 -2392.56 -3265.24)
(-190197 -2386.63 -3432.72)
(-189077 -2377.42 -3540.07)
(-187909 -2364.75 -3573.09)
(-186729 -2348.68 -3531.07)
(-185571 -2329.52 -3421.91)
(-184467 -2307.64 -3264.28)
(-183439 -2283.04 -3080.29)
(-182493 -2256.15 -2890.79)
(-181615 -2229.42 -2712.47)
(-180786 -2211 -2555.65)
(-180018 -2207.36 -2425.59)
(-179326 -2196.86 -2332.53)
(-178639 -2159.54 -2284.14)
(-177926 -2128.95 -2271.42)
(-177205 -2099.81 -2284.46)
(-176449 -2063.76 -2317.03)
(-175625 -2026.13 -2358.41)
(-174703 -1986.92 -2403.69)
(-173659 -1945.23 -2444.24)
(-172457 -1896.51 -2465.11)
(-171065 -1833.78 -2451.1)
(-169470 -1748.6 -2387.69)
(-167701 -1624.69 -2263.35)
(-165836 -1444.57 -2052.08)
(-163886 -1174.08 -1710.46)
(-161202 -767.603 -1221.79)
(-156473 -122.598 -531.952)
(-149487 1031.72 250.623)
(-147661 2667.66 2512.04)
(-156479 4114.86 4729.32)
(-153535 -6614.23 34423)
(-14281.3 -8547.01 21164.4)
(-221459 1183.75 -12649.4)
(-221277 2098.01 -6362.78)
(-220350 2485.75 -4618.23)
(-220442 2691.82 -3146.44)
(-220590 2470.15 -2466.38)
(-219897 2211.9 -1762.32)
(-219277 2198.97 -1194.53)
(-219022 2199.16 -766.306)
(-218857 2170.3 -309.252)
(-218630 2169.52 49.439)
(-218440 2155.61 313.043)
(-218232 2150.74 506.277)
(-217990 2136.85 610.443)
(-217751 2107.17 614.706)
(-217524 2065.72 542.06)
(-217237 2020.12 449.748)
(-216871 1979.55 320.149)
(-216455 1935.94 153.304)
(-215977 1890.55 -31.459)
(-215423 1842.79 -230.564)
(-214790 1793.38 -429.055)
(-214076 1743.53 -610.132)
(-213294 1693.86 -753.373)
(-212460 1646.58 -839.835)
(-211602 1603.47 -857.704)
(-210750 1566.1 -804.571)
(-209933 1536.06 -688.734)
(-209181 1514.63 -526.363)
(-208510 1503.05 -336.882)
(-207930 1501.98 -140.542)
(-207439 1509.34 44.647)
(-207037 1518.02 201.781)
(-206743 1521.01 327.442)
(-206543 1537.6 415.08)
(-206425 1586.74 457.687)
(-206379 1638.03 456.847)
(-206390 1696.07 415.362)
(-206452 1768.73 336.768)
(-206554 1852.04 225.986)
(-206679 1947.04 87.2479)
(-206820 2056.29 -77.5341)
(-206973 2186.59 -264.466)
(-207126 2346.74 -472.802)
(-207284 2545.43 -707.141)
(-207502 2800.01 -984.902)
(-207893 3131.7 -1309.91)
(-208467 3566.82 -1671.34)
(-208476 4149.13 -2053.03)
(-206384 4890.27 -2363.7)
(-201386 5861.92 -2292.72)
(-200240 6857.02 -1081.89)
(-205122 6922.17 5313.2)
(-217897 -11789.8 37639.1)
(-135831 -14161.2 13534.4)
(-201874 -3355 -17497.2)
(-202493 -3444.29 -11646)
(-201647 -3126.2 -9639.74)
(-201263 -3100.97 -7875.97)
(-200906 -3310.98 -6539.96)
(-200347 -3499.15 -5511.16)
(-199983 -3589.64 -4685.73)
(-199721 -3636.72 -4083.72)
(-199542 -3625.38 -3593.7)
(-199294 -3587.88 -3271.19)
(-198994 -3577.63 -3086.76)
(-198717 -3591.55 -2919.88)
(-198462 -3605.63 -2830.83)
(-198222 -3627.12 -2843.69)
(-197985 -3650.09 -2935.36)
(-197688 -3673.78 -3075.05)
(-197319 -3693.01 -3271.18)
(-196886 -3711.4 -3520.49)
(-196375 -3726.12 -3802.13)
(-195762 -3738.4 -4109.9)
(-195031 -3745.99 -4427.83)
(-194167 -3749.15 -4731.12)
(-193173 -3746.56 -4986.63)
(-192063 -3735.91 -5156.07)
(-190868 -3717.36 -5214.46)
(-189623 -3689.49 -5154.2)
(-188366 -3653.53 -4985.88)
(-187125 -3609.29 -4731.19)
(-185911 -3556.98 -4417.31)
(-184720 -3499 -4070.88)
(-183532 -3440.93 -3714.88)
(-182324 -3389.41 -3375.62)
(-181086 -3347.61 -3076.43)
(-179812 -3309.99 -2807.74)
(-178465 -3270.47 -2552.1)
(-177013 -3236.33 -2339.16)
(-175442 -3211.49 -2164.79)
(-173730 -3195.87 -2020.69)
(-171851 -3191.3 -1904.76)
(-169784 -3197.72 -1814.97)
(-167506 -3215.06 -1751.33)
(-164988 -3241.34 -1708.07)
(-162193 -3275.2 -1674.02)
(-159094 -3318.17 -1646.85)
(-155707 -3369.87 -1631.98)
(-152077 -3433.5 -1632.68)
(-148186 -3522.21 -1646.92)
(-143413 -3630.44 -1693.98)
(-136291 -3708.65 -1872.49)
(-126410 -3567.48 -1883.36)
(-121414 -3364.76 -1923.1)
(-122313 365.469 -2028.33)
(-159664 -7351.78 -10788.1)
(37268.5 -11865.2 10815.2)
(-201857 1843.65 -14219.7)
(-202638 2141 -9055.61)
(-202624 2584.81 -7471.23)
(-203426 2760.83 -5838.57)
(-203935 2666.15 -4349.94)
(-203809 2581.88 -3075.02)
(-203792 2578.37 -2278.55)
(-203829 2604.44 -1763.05)
(-203883 2677.68 -1313.94)
(-203880 2765.84 -1031.65)
(-203817 2818.66 -848.396)
(-203700 2842.19 -721.019)
(-203547 2861.34 -670.598)
(-203377 2869.01 -712.289)
(-203176 2872.09 -823.151)
(-202893 2871.57 -980.753)
(-202525 2872.95 -1203.77)
(-202092 2872.98 -1480.5)
(-201585 2874.67 -1793.1)
(-200989 2876.77 -2134.09)
(-200297 2881.41 -2489.18)
(-199500 2888.07 -2836.6)
(-198606 2897.62 -3144.25)
(-197634 2911.87 -3378.52)
(-196613 2930.02 -3514.7)
(-195580 2953.13 -3545.2)
(-194567 2979.93 -3479.5)
(-193602 3010.96 -3338.7)
(-192701 3046.7 -3148.59)
(-191873 3085.77 -2933.09)
(-191115 3123.85 -2712.49)
(-190414 3155.29 -2503.62)
(-189762 3178.11 -2322.21)
(-189156 3197.59 -2177.98)
(-188599 3219.23 -2076.3)
(-188087 3237.42 -2018.99)
(-187613 3249.27 -2007.44)
(-187177 3254.95 -2042.85)
(-186778 3253.21 -2120.94)
(-186417 3245.06 -2242.58)
(-186091 3231.83 -2412.38)
(-185796 3217.3 -2632.28)
(-185527 3206.27 -2905.81)
(-185289 3198.88 -3250.06)
(-185136 3195.03 -3694.64)
(-185192 3189.09 -4279.49)
(-185460 3162.6 -5049.68)
(-185265 3113.33 -6017.56)
(-182604 2970.82 -7145.44)
(-177232 2763.7 -8196.3)
(-173974 2075.53 -9500.88)
(-188092 3524.78 -9237.65)
(-148488 -19308.5 11568.4)
(-44990.5 -13560.4 7879.69)
(-197467 -1459.61 -14062.2)
(-198624 -1688.23 -10006.4)
(-198455 -1773.53 -8300.46)
(-198735 -1807.95 -6851.85)
(-198737 -1962.35 -5576.3)
(-198527 -2037.93 -4689.42)
(-198366 -2109.44 -3962.17)
(-198273 -2213.66 -3372.25)
(-198279 -2288.77 -2863.9)
(-198295 -2317.97 -2494.34)
(-198203 -2311.73 -2252.07)
(-198059 -2324.89 -2121.98)
(-197957 -2338.55 -2094.17)
(-197874 -2352.53 -2175.92)
(-197779 -2363.3 -2329.76)
(-197636 -2370.25 -2549.25)
(-197440 -2373.91 -2835.66)
(-197192 -2374.83 -3180.24)
(-196883 -2373.85 -3565.2)
(-196498 -2369.44 -3986.9)
(-196014 -2361.61 -4428.43)
(-195415 -2350.54 -4865.08)
(-194697 -2334.74 -5246.03)
(-193886 -2314.4 -5510.48)
(-193036 -2286.44 -5618.97)
(-192205 -2248.66 -5557.43)
(-191447 -2199.09 -5346.3)
(-190796 -2137.78 -5019.6)
(-190268 -2064.67 -4617.02)
(-189852 -1979.23 -4172.88)
(-189528 -1883.55 -3714.7)
(-189267 -1779.06 -3268.85)
(-189045 -1666.31 -2858.91)
(-188829 -1546.55 -2486.34)
(-188588 -1426.13 -2144.17)
(-188304 -1306.84 -1839.46)
(-187952 -1188.62 -1576.41)
(-187508 -1072.2 -1356.88)
(-186949 -958.467 -1185.15)
(-186250 -847.133 -1065)
(-185388 -737.054 -1002.32)
(-184333 -625.697 -1004.67)
(-183064 -512.27 -1081.4)
(-181558 -397.706 -1245.51)
(-179817 -280.074 -1514.74)
(-177936 -162.03 -1906.08)
(-175888 -51.101 -2484.74)
(-173100 56.4742 -3355.2)
(-167995 130.547 -4717.16)
(-160071 240.672 -6662.6)
(-153637 220.619 -10109.4)
(-156309 1467.15 -9351.54)
(-159511 -9887.28 -25321.9)
(19616.8 -7393.79 -10036.9)
(-193444 1717.09 -12867.2)
(-193116 1669.08 -8806.84)
(-192271 1682.02 -7534.18)
(-191953 1751.18 -6086.36)
(-191460 1684.97 -4513.62)
(-190685 1693.98 -3319.25)
(-190151 1701.79 -2458.99)
(-189718 1669.6 -1837.49)
(-189351 1662.14 -1368.42)
(-189023 1696.61 -1028.5)
(-188675 1763.12 -789.211)
(-188328 1804.96 -660.434)
(-188016 1843.38 -644.271)
(-187723 1878.99 -739.664)
(-187405 1916.52 -912.902)
(-187025 1957.19 -1156.54)
(-186570 2001.03 -1478.74)
(-186037 2048.07 -1866.49)
(-185409 2098.02 -2305.41)
(-184664 2152.99 -2787.21)
(-183777 2213.52 -3299.25)
(-182723 2279.78 -3814.49)
(-181500 2353.6 -4282.71)
(-180137 2434.27 -4643.77)
(-178697 2523.91 -4851.04)
(-177263 2623.01 -4892.34)
(-175910 2731.43 -4784.31)
(-174698 2846.86 -4563.01)
(-173660 2967.31 -4269.16)
(-172808 3091.82 -3937.04)
(-172138 3217.08 -3589.28)
(-171633 3341.05 -3241.85)
(-171275 3466.64 -2914.45)
(-171051 3593.24 -2616.45)
(-170947 3714.83 -2348.59)
(-170962 3829.37 -2110.1)
(-171089 3937.02 -1900.43)
(-171323 4036.86 -1718.98)
(-171664 4126.71 -1567.21)
(-172119 4205.52 -1448.88)
(-172693 4272.79 -1369.6)
(-173387 4332.82 -1334.26)
(-174201 4388.23 -1353.63)
(-175160 4431.65 -1455.51)
(-176367 4461.49 -1661.8)
(-178017 4465.05 -2010.06)
(-180190 4422.45 -2594.68)
(-182246 4311.07 -3615.55)
(-182126 4093.48 -5394.17)
(-179157 3747.89 -8413.16)
(-178349 2771.56 -13599.7)
(-199073 1368.92 -21459.1)
(-184742 -22061.6 -40368.5)
(-83464.8 -16279.9 -15379)
(-190782 -665.339 -13404)
(-192277 -686.037 -9867.24)
(-192494 -830.429 -8545.74)
(-193022 -832.238 -7209.96)
(-193215 -802.167 -6044.84)
(-193289 -723.702 -5081.39)
(-193261 -714.142 -4283.41)
(-193247 -758.67 -3636.08)
(-193299 -808.215 -3150.44)
(-193310 -812.202 -2793.34)
(-193223 -808.186 -2493.45)
(-193124 -817.688 -2333.18)
(-193038 -829.163 -2296.97)
(-192936 -842.504 -2369.21)
(-192796 -857.652 -2530.49)
(-192600 -873.041 -2775.73)
(-192340 -889.65 -3099.9)
(-192011 -907.549 -3483.16)
(-191612 -927.741 -3910.71)
(-191129 -946.524 -4368.26)
(-190536 -965.838 -4847.34)
(-189796 -983.825 -5318.88)
(-188893 -1001.63 -5711.97)
(-187866 -1020.19 -5935.99)
(-186804 -1035.4 -5918.15)
(-185809 -1048.74 -5652.8)
(-184965 -1057.24 -5180.15)
(-184318 -1060.99 -4567.42)
(-183877 -1058.94 -3880.19)
(-183627 -1051.57 -3166.62)
(-183545 -1039.19 -2459.66)
(-183611 -1020.22 -1780.56)
(-183805 -992.349 -1135.19)
(-184105 -954.865 -522.798)
(-184497 -910.997 54.9627)
(-184980 -863.094 600.127)
(-185559 -812.171 1115.58)
(-186236 -757.771 1603.01)
(-187017 -699.153 2063.11)
(-187906 -636.098 2496.85)
(-188913 -567.407 2905.99)
(-190046 -492.627 3292.55)
(-191324 -411.681 3654.65)
(-192786 -321.304 3986.14)
(-194528 -220.202 4273.48)
(-196733 -108.556 4494.85)
(-199551 10.2161 4541.57)
(-202597 141.801 4233.25)
(-204392 259.641 3162.5)
(-204472 243.027 280.475)
(-204665 -81.9391 -6705.45)
(-224223 -2196.04 -20968.1)
(-182514 -12332.4 -57693.3)
(-78254.5 -6390.09 -25467.9)
(-195042 2246.27 -11984.8)
(-197504 2180.92 -8622)
(-197847 2048.95 -7519.42)
(-198406 2052.15 -6407.17)
(-198646 2094.26 -5188.61)
(-198819 2184.8 -4193.03)
(-198958 2210.64 -3423.62)
(-199032 2187.45 -2775.58)
(-199065 2162.26 -2276.42)
(-199039 2183.43 -1900.43)
(-198971 2213.12 -1620.77)
(-198895 2229.98 -1463.87)
(-198814 2244.84 -1426.39)
(-198708 2257.22 -1495.1)
(-198555 2266.71 -1654.74)
(-198334 2274.37 -1902.98)
(-198038 2278.77 -2235.19)
(-197661 2279.39 -2634.9)
(-197193 2274.89 -3084.11)
(-196621 2268.46 -3571.02)
(-195915 2257.89 -4083.94)
(-195034 2244.58 -4591.7)
(-193958 2227.19 -5023.92)
(-192719 2204.94 -5282.4)
(-191403 2182.47 -5296.13)
(-190116 2159.22 -5055.75)
(-188949 2138.97 -4603.06)
(-187956 2122.26 -4005.18)
(-187151 2110.32 -3330.61)
(-186520 2102.77 -2632.91)
(-186038 2099.29 -1943.3)
(-185675 2101.3 -1279.59)
(-185407 2110.53 -651.013)
(-185209 2127.15 -57.7862)
(-185064 2147.7 503.44)
(-184966 2169.6 1035.71)
(-184915 2192.05 1543.56)
(-184916 2216.05 2031.91)
(-184965 2242.67 2501.86)
(-185066 2272.43 2951.97)
(-185224 2306.39 3380.65)
(-185462 2347.93 3795.64)
(-185827 2401.76 4217.24)
(-186393 2470.18 4654.91)
(-187291 2557.72 5121.95)
(-188744 2665.66 5623.65)
(-190958 2795.17 6114.89)
(-193653 2941.28 6411.1)
(-195754 3051.88 6029.93)
(-197833 2936.98 3891.08)
(-206757 2224.94 -3222.61)
(-241247 -1644.35 -18210.8)
(-296626 -18123.7 -59562.1)
(-214859 -10930.1 -13974.8)
(-187810 -1023.43 -13003.1)
(-188762 -924.43 -10458.5)
(-188944 -1007.7 -9445.64)
(-189211 -1044.48 -8280.46)
(-189083 -971.593 -7358.02)
(-188884 -869.717 -6457.37)
(-188709 -854.885 -5680.37)
(-188649 -872.287 -5082.44)
(-188705 -871.436 -4652.25)
(-188693 -838.526 -4312.59)
(-188598 -826.081 -4083.65)
(-188529 -831.881 -3993.62)
(-188476 -845.055 -4024.52)
(-188405 -865.076 -4171.48)
(-188283 -889.459 -4432.87)
(-188079 -918.257 -4804.05)
(-187763 -950.447 -5275.52)
(-187315 -988.27 -5826.42)
(-186723 -1027.96 -6437.44)
(-185967 -1069.48 -7091.33)
(-184998 -1108.69 -7795.47)
(-183724 -1142.25 -8533.83)
(-182066 -1167.19 -9221.01)
(-180048 -1174.93 -9684.72)
(-177831 -1165.37 -9777.06)
(-175629 -1136.38 -9486.72)
(-173616 -1092.91 -8892.69)
(-171896 -1039.58 -8111.57)
(-170496 -982.268 -7249.83)
(-169397 -927.123 -6383.31)
(-168559 -873.626 -5554)
(-167937 -817.589 -4780.61)
(-167486 -757.782 -4059.76)
(-167175 -692.962 -3378.77)
(-166978 -621.769 -2727.86)
(-166877 -541.376 -2095.39)
(-166857 -449.74 -1469.31)
(-166909 -346.518 -839.913)
(-167021 -228.995 -196.343)
(-167184 -93.2454 475.147)
(-167391 64.0252 1186.84)
(-167635 246.308 1954.23)
(-167914 458.366 2795.27)
(-168248 707.622 3731.96)
(-168722 1000.99 4798.72)
(-169534 1345.94 6043.27)
(-170906 1753.84 7523.58)
(-172643 2256.54 9261.85)
(-173762 2884.33 11022.1)
(-175719 3614.11 11749.7)
(-186644 3427.8 9172.17)
(-228554 3379.48 74.3398)
(-274943 -4842.79 -33407)
(-155267 4984.35 -2098.75)
(-183279 2480.59 -8876.09)
(-185606 2574.72 -6060.37)
(-186518 2500.44 -5004.85)
(-187264 2477.59 -3918.34)
(-187530 2569.66 -3009.13)
(-187832 2685.36 -2184.6)
(-188115 2709.27 -1498.96)
(-188311 2699.8 -926.991)
(-188476 2706.17 -462.2)
(-188541 2741.86 -117.356)
(-188525 2757.39 101.78)
(-188488 2755.49 189.752)
(-188433 2746.01 155.446)
(-188342 2728.93 1.68865)
(-188198 2706.46 -270.617)
(-187981 2678.32 -661.498)
(-187678 2645.28 -1163.71)
(-187280 2605.23 -1762.41)
(-186790 2565.11 -2435.67)
(-186196 2524.89 -3172.82)
(-185455 2488.63 -3975.31)
(-184485 2459.44 -4832.92)
(-183208 2439.56 -5658.71)
(-181637 2435.64 -6282.45)
(-179901 2445.02 -6558.92)
(-178170 2466.91 -6462.99)
(-176580 2494.63 -6068.92)
(-175214 2522.82 -5483.01)
(-174098 2545.63 -4810.33)
(-173221 2557.47 -4129.98)
(-172561 2559.37 -3486.08)
(-172096 2556.06 -2900.2)
(-171808 2549.45 -2373.81)
(-171687 2541.47 -1904.61)
(-171735 2533.54 -1488.03)
(-171966 2527.94 -1112.68)
(-172395 2527.46 -768.25)
(-173047 2534.01 -445.079)
(-173964 2550.91 -135.366)
(-175190 2582.58 170.212)
(-176781 2633.87 484.028)
(-178805 2710.7 822.307)
(-181348 2821.07 1202.37)
(-184534 2976.93 1645.87)
(-188588 3193.91 2193.58)
(-193902 3491.31 2896.35)
(-200986 3897.64 3825.36)
(-210023 4455.95 5028.31)
(-220427 5205.03 6463.38)
(-234405 6112.43 7100.86)
(-262399 6032.2 4603.86)
(-348810 5551.88 -5115.56)
(-505798 -4290.18 -19570.8)
(-437564 -8170.06 -11377.3)
(-190975 -1230.49 -12052.4)
(-192636 -1133.76 -10392.7)
(-193368 -1211.34 -9451.87)
(-194233 -1277.27 -8266.62)
(-194677 -1244.21 -7331.68)
(-194966 -1230.4 -6525.34)
(-195308 -1297.5 -5877.67)
(-195733 -1349.16 -5422.66)
(-196161 -1344.27 -5051.9)
(-196515 -1319.66 -4714.1)
(-196842 -1300.63 -4514.74)
(-197186 -1286.46 -4451.23)
(-197535 -1273.11 -4511.8)
(-197872 -1261.26 -4698.71)
(-198170 -1250.13 -5013.01)
(-198399 -1241.47 -5454.4)
(-198527 -1237.07 -6014.17)
(-198534 -1239.2 -6679.64)
(-198411 -1248.92 -7422.64)
(-198160 -1270.39 -8233.19)
(-197740 -1301.85 -9125.99)
(-197012 -1348.33 -10137.1)
(-195789 -1411.85 -11183.2)
(-194033 -1497.32 -11972.5)
(-191956 -1602.24 -12217.8)
(-189857 -1710.27 -11892.7)
(-187946 -1809.83 -11170.5)
(-186326 -1891.53 -10243.3)
(-185009 -1955.41 -9268.44)
(-183958 -2007.31 -8344.64)
(-183128 -2051.19 -7519.65)
(-182477 -2089.96 -6805.45)
(-181969 -2125.21 -6198.21)
(-181584 -2158.94 -5683.23)
(-181316 -2193.98 -5242.66)
(-181166 -2233.16 -4858.12)
(-181146 -2278.99 -4513.61)
(-181274 -2333.66 -4196.34)
(-181574 -2398.87 -3895.21)
(-182077 -2476.37 -3600.82)
(-182822 -2569.01 -3305.52)
(-183851 -2681.07 -3003.4)
(-185222 -2818.55 -2689.34)
(-187009 -2987.82 -2363.46)
(-189350 -3202.73 -2006.99)
(-192504 -3483.97 -1583.43)
(-196783 -3848.83 -1017.27)
(-202137 -4270.63 -101.673)
(-208008 -4618.21 1664.77)
(-216325 -5241.12 4581.48)
(-234742 -5831.84 11302.8)
(-303210 -9925.77 22157)
(-395169 -1503.65 33841.3)
(-399644 -16595.9 33585.2)
(-179477 1550.78 -7981.49)
(-179705 1658.96 -5843.48)
(-179882 1549.17 -4629)
(-179922 1460.66 -3237.93)
(-179689 1472.43 -2214.02)
(-179617 1456.14 -1447.76)
(-179678 1343.61 -757.117)
(-179761 1244.51 -216.536)
(-179905 1205.81 222.592)
(-180096 1184.92 559.112)
(-180304 1151.26 752.953)
(-180533 1107.02 805.837)
(-180777 1058.94 721.24)
(-181022 1008.7 495.977)
(-181244 959.835 128.609)
(-181412 913.399 -379.488)
(-181498 870.351 -1020.25)
(-181480 829.182 -1785.41)
(-181342 784.524 -2649.33)
(-181096 732.535 -3598.24)
(-180710 675.995 -4654.84)
(-180051 609.985 -5856.8)
(-178934 532.305 -7116.67)
(-177338 435.723 -8131.07)
(-175512 318.161 -8583.31)
(-173787 192.05 -8440.77)
(-172375 65.5389 -7880.8)
(-171344 -53.1044 -7105.35)
(-170666 -164.451 -6278.71)
(-170256 -274.504 -5503.93)
(-170030 -386.145 -4830.45)
(-169923 -501.06 -4273.89)
(-169886 -620.26 -3832.8)
(-169886 -744.622 -3498.19)
(-169895 -873.317 -3253.8)
(-169891 -1005.35 -3078.35)
(-169858 -1140.59 -2957.06)
(-169781 -1278.54 -2877.63)
(-169641 -1418.56 -2830.87)
(-169420 -1559.67 -2811.18)
(-169090 -1702.1 -2815.34)
(-168625 -1847.96 -2843.47)
(-167998 -2001.4 -2902.05)
(-167192 -2166.81 -3003.42)
(-166239 -2356.36 -3152.61)
(-165256 -2591.29 -3345.46)
(-164359 -2891.3 -3537.58)
(-163195 -3222.5 -3587.96)
(-160881 -3459 -3366.48)
(-156923 -3948.45 -2658.35)
(-160412 -4290.34 3272.2)
(-198441 -4297.25 15406)
(-276564 -554.953 55009.3)
(-198639 -10113.4 13116)
(-185827 -808.437 -10789.8)
(-187018 -648.648 -9434.89)
(-187754 -632.663 -8555.45)
(-188748 -665.144 -7445.96)
(-189532 -652.367 -6472.76)
(-190157 -714.912 -5680.91)
(-190823 -761.632 -5046.1)
(-191498 -766.096 -4514.34)
(-192093 -745.723 -4038.72)
(-192652 -737.582 -3654.11)
(-193215 -725.507 -3396.77)
(-193781 -709.697 -3264.95)
(-194356 -688.179 -3267.98)
(-194930 -661.546 -3419.92)
(-195484 -628.954 -3730.34)
(-195988 -591.239 -4204.31)
(-196416 -550.961 -4840.72)
(-196743 -507.241 -5627.11)
(-196976 -462.779 -6532.63)
(-197157 -414.763 -7520.5)
(-197301 -365.074 -8597.97)
(-197247 -308.669 -9870.94)
(-196645 -251.989 -11317.9)
(-195388 -221.355 -12448.4)
(-193924 -240.456 -12643.8)
(-192837 -312.362 -11850.4)
(-192368 -420.685 -10556)
(-192480 -548.237 -9112.61)
(-193013 -680.997 -7733.51)
(-193790 -811.027 -6514.29)
(-194673 -932.535 -5480.75)
(-195571 -1046.66 -4619.79)
(-196423 -1157.42 -3905.87)
(-197192 -1267.32 -3310.73)
(-197854 -1377.86 -2807.26)
(-198393 -1490.42 -2373.1)
(-198794 -1606.8 -1989.77)
(-199040 -1728.37 -1642.8)
(-199111 -1855.03 -1320.81)
(-198980 -1985.69 -1016.39)
(-198617 -2118.75 -727.371)
(-197985 -2252.79 -456.484)
(-197046 -2387.07 -208.308)
(-195756 -2518.9 -11.7687)
(-194131 -2649.18 129.972)
(-192196 -2779.02 231.936)
(-189964 -2911.02 336.32)
(-186899 -3014.52 534.456)
(-181857 -3202.62 1122.9)
(-172821 -3639.49 2311.69)
(-168870 -5098.31 7560.9)
(-164912 -1287.66 18134)
(-192171 15155.6 66283.2)
(-114310 8956.76 15154.5)
(-187224 904.414 -7482.28)
(-187941 1121.93 -6000.02)
(-188089 1142.04 -5021.43)
(-188420 1124.59 -3843.04)
(-188513 1137.63 -2938.37)
(-188502 1066.32 -2178.59)
(-188440 1002.24 -1435.34)
(-188407 975.699 -822.475)
(-188381 970.605 -326.025)
(-188392 948.981 53.3176)
(-188456 931.315 299.333)
(-188570 919.034 410.997)
(-188717 915.038 376.785)
(-188869 919.572 184.033)
(-188987 934.178 -177.483)
(-189026 958.189 -711.595)
(-188942 988.727 -1418.17)
(-188718 1025.73 -2298.63)
(-188355 1069.04 -3326.37)
(-187883 1121.7 -4465.72)
(-187308 1182.36 -5733.95)
(-186444 1257.3 -7245.18)
(-184897 1341.71 -8991.74)
(-182490 1410.24 -10471.8)
(-179663 1439.53 -11013.5)
(-177105 1425.88 -10505.2)
(-175201 1385.18 -9434.01)
(-174025 1335.69 -8165.49)
(-173484 1291.61 -6931.55)
(-173420 1259.73 -5848.14)
(-173681 1245.64 -4954.55)
(-174144 1248.53 -4236.9)
(-174718 1264.08 -3664.13)
(-175354 1291.24 -3205.29)
(-176015 1328.46 -2833.71)
(-176669 1372.86 -2523.99)
(-177289 1422.3 -2250.67)
(-177853 1473.88 -1992.93)
(-178335 1525.75 -1732.09)
(-178709 1576.67 -1452.24)
(-178947 1625.25 -1140.52)
(-179015 1668.85 -787.832)
(-178883 1702.35 -388.493)
(-178530 1723.56 60.3582)
(-177980 1724.84 562.51)
(-177312 1697.31 1127.02)
(-176560 1630.03 1796.84)
(-175307 1536.14 2695.56)
(-172299 1257.66 3878.68)
(-167174 657.491 5507.8)
(-167491 -656.385 9170)