/*--------------------------------*- C++ -*----------------------------------*\
| =========                 |                                                 |
| \\      /  F ield         | OpenFOAM: The Open Source CFD Toolbox           |
|  \\    /   O peration     | Version:  4.1                                   |
|   \\  /    A nd           | Web:      www.OpenFOAM.org                      |
|    \\/     M anipulation  |                                                 |
\*---------------------------------------------------------------------------*/
FoamFile
{
    version     2.0;
    format      ascii;
    class       volVectorField;
    location    "86";
    object      U;
}
// * * * * * * * * * * * * * * * * * * * * * * * * * * * * * * * * * * * * * //

dimensions      [0 1 -1 0 0 0 0];

internalField   nonuniform List<vector> 
4432
(
(-148534 -3403.27 -682.145)
(-151513 -3601.79 -853.799)
(-152631 -3567.54 -817.078)
(-154068 -3654.82 -909.84)
(-155369 -3698.7 -954.942)
(-156652 -3738.62 -970.307)
(-157837 -3784.06 -1005.75)
(-158966 -3824.69 -1043.84)
(-160022 -3863.15 -1096.25)
(-160994 -3900.53 -1168.2)
(-161865 -3937.84 -1263.14)
(-162608 -3974.91 -1385.72)
(-163199 -4011.5 -1538.87)
(-163605 -4047.83 -1723.13)
(-163804 -4084.29 -1934)
(-163765 -4121.58 -2162.4)
(-163475 -4161.77 -2403.41)
(-162914 -4208.46 -2656.12)
(-162061 -4264.45 -2914.94)
(-160899 -4331.02 -3172.86)
(-159421 -4406.48 -3421.69)
(-157633 -4488.71 -3651.58)
(-155555 -4575.82 -3851.43)
(-153209 -4668.35 -4013.74)
(-150643 -4763.75 -4132.5)
(-147900 -4860.17 -4206.44)
(-145039 -4954.59 -4235.98)
(-142109 -5044.72 -4225.42)
(-139170 -5127.25 -4179.73)
(-136265 -5199 -4105.57)
(-133445 -5256.65 -4009.5)
(-130749 -5297.5 -3897.8)
(-128208 -5319.87 -3777.61)
(-125857 -5322.36 -3654.25)
(-123712 -5304.55 -3534.67)
(-121793 -5269.73 -3425.68)
(-120077 -5228.5 -3350.06)
(-118504 -5184.57 -3330.08)
(-117036 -5132.66 -3364.91)
(-115620 -5068.75 -3443.6)
(-114197 -4989.89 -3557.09)
(-112664 -4890.93 -3707.08)
(-110842 -4766.11 -3888.87)
(-108601 -4609.3 -4075.77)
(-106237 -4414.82 -4221.48)
(-104676 -4174.33 -4294.66)
(-104419 -3856.49 -4315.81)
(-103160 -3391.14 -4066.21)
(-96402.9 -2510.31 -3067.31)
(-86443.3 -573.033 217.844)
(-93869.9 4122.44 6006.33)
(-134326 11239.1 15784.2)
(-175302 28720.8 -3009.97)
(-39951.8 12551.4 -8572.7)
(-178351 3996.22 49.4459)
(-180798 3943.95 -16.6749)
(-182166 4023.13 -60.1894)
(-183784 4009.24 -86.9015)
(-185289 4025.37 -116.423)
(-186828 4043.29 -121.904)
(-188318 4053.69 -139.523)
(-189783 4065.23 -161.032)
(-191215 4075.61 -196.519)
(-192601 4083.49 -248.534)
(-193922 4087.7 -320.685)
(-195152 4088.01 -416.597)
(-196269 4084.23 -538.006)
(-197241 4075.82 -682.935)
(-198046 4062.41 -847.771)
(-198653 4044.13 -1029.34)
(-199036 4021.06 -1222.95)
(-199175 3991.63 -1421.14)
(-199056 3954.52 -1616.97)
(-198690 3909.74 -1807.16)
(-198089 3859.68 -1986.78)
(-197267 3805.54 -2145.73)
(-196249 3747.53 -2275.68)
(-195071 3687.23 -2370.73)
(-193779 3625.43 -2427.7)
(-192412 3562.98 -2447.26)
(-191021 3499.95 -2431.94)
(-189639 3437.23 -2387.21)
(-188303 3375.22 -2319.42)
(-187031 3314.52 -2235.87)
(-185838 3254.88 -2143.67)
(-184727 3195.87 -2049.19)
(-183689 3137.18 -1958.26)
(-182720 3078.53 -1875.35)
(-181797 3018.93 -1803.86)
(-180903 2955.06 -1746.65)
(-180018 2886.32 -1714.75)
(-179104 2814.66 -1713.64)
(-178114 2743.23 -1746.13)
(-176987 2671.73 -1810.01)
(-175651 2599.38 -1900.45)
(-173997 2528.72 -2014.85)
(-171850 2460.7 -2143.41)
(-169054 2393.91 -2257.47)
(-165742 2327.04 -2314.78)
(-162466 2265.08 -2298.35)
(-159415 2227.91 -2257.67)
(-154559 2256.89 -2070.07)
(-144248 2504.93 -1159.04)
(-129952 3427.35 1421.75)
(-131006 5697.02 4638.2)
(-159820 7691.41 7514.2)
(-162793 14457.7 -6751.48)
(69385.7 8568.37 -19245.1)
(-263133 -1208.43 4224.82)
(-263524 -1190.94 3928.19)
(-263775 -1181.92 3875.93)
(-264076 -1150.76 3769.29)
(-264312 -1128.11 3686.76)
(-264587 -1104.46 3637.56)
(-264857 -1082.07 3586.02)
(-265121 -1059.43 3532.54)
(-265385 -1038.47 3467.39)
(-265644 -1018.9 3386.59)
(-265895 -1002.42 3286.36)
(-266131 -989.343 3163.13)
(-266341 -979.609 3016.6)
(-266517 -972.375 2852.8)
(-266676 -967.576 2680.05)
(-266837 -967.767 2495.7)
(-266969 -972.88 2296.87)
(-267067 -979.326 2092.04)
(-267126 -987.063 1890.54)
(-267148 -998.172 1700.96)
(-267136 -1012.01 1534.67)
(-267100 -1026.25 1404.73)
(-267055 -1041.21 1326.08)
(-267019 -1057.41 1308.4)
(-267017 -1075.36 1359.19)
(-267062 -1096.19 1479.09)
(-267176 -1120.72 1666.14)
(-267366 -1150.12 1913.43)
(-267645 -1185.13 2213.2)
(-268011 -1226.61 2555.32)
(-268471 -1275.08 2930.24)
(-269020 -1331.23 3328.7)
(-269661 -1395.48 3742.74)
(-270399 -1467.71 4165.36)
(-271239 -1547.52 4588.56)
(-272191 -1634.57 5008.72)
(-273284 -1724.78 5428.73)
(-274572 -1815.11 5855.14)
(-276113 -1906.96 6296.99)
(-277966 -2004.89 6758.86)
(-280168 -2112.09 7241.01)
(-282751 -2225.98 7745.63)
(-285723 -2342.11 8283.55)
(-289131 -2455.86 8879.54)
(-293278 -2561.94 9558.3)
(-298866 -2655.23 10300.4)
(-306403 -2728.39 11008.5)
(-314741 -2723.53 11521.7)
(-319933 -2379.16 11925.4)
(-323563 -1193.21 12932.5)
(-339741 851.426 15451.8)
(-399958 4555.32 10649.8)
(-403532 18661 -18965.1)
(-482079 31717.7 -35965.5)
(-310958 2224.51 3957.7)
(-311339 2193.53 3822.5)
(-311501 2183.25 3724.19)
(-311711 2185.02 3679.39)
(-311876 2183.52 3624.71)
(-312052 2182.81 3593.47)
(-312210 2181.57 3561.05)
(-312346 2180.96 3523.51)
(-312464 2179.42 3471.32)
(-312559 2177.42 3401.86)
(-312628 2174.02 3311.26)
(-312663 2169.53 3196.04)
(-312655 2164.49 3054.34)
(-312595 2160.51 2887.31)
(-312479 2157.1 2697.3)
(-312302 2151.43 2484.01)
(-312054 2143.13 2249.02)
(-311731 2134.25 1998.56)
(-311328 2124.4 1742.19)
(-310841 2110.25 1493.33)
(-310312 2090.59 1263.87)
(-309747 2067.61 1063.88)
(-309164 2041.26 906.874)
(-308582 2011.66 803.854)
(-308031 1978.77 762.057)
(-307531 1942.68 783.775)
(-307112 1903.18 868.21)
(-306794 1860.37 1010.44)
(-306602 1814.19 1204.42)
(-306551 1764.86 1442.69)
(-306665 1712.38 1718.88)
(-306959 1656.83 2027.34)
(-307454 1598.25 2363.21)
(-308177 1537.01 2720.86)
(-309147 1473.56 3094.09)
(-310396 1407.37 3481.59)
(-311953 1338.62 3879.92)
(-313849 1266.31 4285.97)
(-316136 1186.9 4704.06)
(-318895 1095.19 5134.35)
(-322192 987.441 5574.82)
(-326081 863.001 6024.85)
(-330579 722.492 6488.33)
(-335711 564.567 6982.67)
(-341701 384.204 7532.91)
(-349138 169.437 8128.68)
(-358386 -95.8005 8685.32)
(-368103 -382.463 9156.46)
(-373912 -428.422 9873.82)
(-375174 -101.477 11999.8)
(-380565 830.733 15365.9)
(-403893 1427.78 7876.77)
(-344260 14707.4 -29595)
(-304445 -5572.14 -16439.9)
(-229278 -2472.67 -1034.92)
(-228291 -2467.18 -1339.16)
(-228007 -2522.44 -1440.81)
(-227654 -2528.16 -1520.64)
(-227380 -2545.35 -1601.18)
(-227162 -2565.05 -1671.06)
(-226998 -2586.84 -1729.89)
(-226878 -2609.26 -1792.72)
(-226797 -2635.78 -1867.43)
(-226752 -2665.93 -1959.33)
(-226738 -2701.23 -2075.98)
(-226750 -2742.02 -2222.71)
(-226773 -2789.97 -2403.9)
(-226794 -2849.55 -2623.36)
(-226749 -2922.55 -2890.94)
(-226571 -3001.96 -3214.11)
(-226253 -3081.24 -3585.95)
(-225771 -3159.52 -3994.52)
(-225100 -3235.14 -4429.51)
(-224224 -3302.84 -4877.28)
(-223136 -3362.38 -5319.9)
(-221839 -3412.94 -5732.85)
(-220349 -3452.81 -6092.57)
(-218700 -3478.83 -6379.2)
(-216932 -3490.68 -6579.81)
(-215092 -3488.06 -6690.1)
(-213224 -3472.17 -6711.51)
(-211369 -3444.9 -6652.82)
(-209559 -3408.89 -6524.63)
(-207814 -3367.37 -6340.27)
(-206146 -3322.13 -6111.88)
(-204560 -3273.64 -5850.07)
(-203061 -3222.95 -5561.78)
(-201646 -3173.34 -5252.75)
(-200313 -3128.28 -4928.72)
(-199060 -3089.42 -4593.42)
(-197874 -3058.61 -4250.77)
(-196741 -3040.16 -3905.17)
(-195633 -3036.26 -3561.9)
(-194503 -3047.67 -3231.21)
(-193290 -3073.2 -2923.8)
(-191855 -3106.3 -2648.21)
(-190020 -3146.64 -2395.04)
(-187632 -3193.71 -2139.01)
(-184835 -3235.2 -1868.28)
(-182315 -3238.52 -1639.87)
(-180313 -3140.36 -1646.94)
(-176272 -2747.03 -2230.07)
(-165601 -1444.64 -3202.2)
(-151495 1463.34 -3742.08)
(-158971 7062.03 -6373.6)
(-196326 12644.2 -15499.7)
(-202284 32443.6 -24936.9)
(-102581 13903.3 -7447.19)
(-267601 2628.92 1346.77)
(-266528 2703.73 1175.26)
(-265953 2701.61 1107.04)
(-265266 2746.96 1065.59)
(-264651 2782.81 1020.45)
(-264045 2817.31 977.524)
(-263453 2851.06 940.992)
(-262867 2885.15 894.556)
(-262290 2916.46 831.391)
(-261721 2944.93 746.161)
(-261161 2968.79 632.546)
(-260611 2987.11 485.586)
(-260069 2997.66 300.518)
(-259535 2995.63 72.8366)
(-259015 2978.85 -198.861)
(-258512 2953.34 -512.376)
(-258019 2923.72 -862.306)
(-257529 2889.97 -1240.95)
(-257028 2855.3 -1638.77)
(-256486 2826 -2039.73)
(-255846 2802.76 -2428.47)
(-255113 2785.78 -2786.16)
(-254294 2776.06 -3090.13)
(-253410 2775.71 -3322.3)
(-252485 2784.33 -3470.79)
(-251544 2801.55 -3531.75)
(-250615 2825.73 -3507.18)
(-249715 2854.92 -3405.53)
(-248862 2887.16 -3236.63)
(-248066 2921.7 -3011.89)
(-247330 2958.33 -2741.82)
(-246650 2996.32 -2436.29)
(-246018 3034.22 -2103.8)
(-245419 3068.82 -1750.93)
(-244846 3096.66 -1383.1)
(-244285 3115.53 -1005.76)
(-243699 3125.1 -626.259)
(-243058 3121.52 -245.115)
(-242337 3099.62 143.842)
(-241471 3058.11 531.51)
(-240411 2995.13 909.353)
(-239063 2906.7 1279.19)
(-237266 2792 1643.49)
(-234867 2649.46 2013.52)
(-231968 2483.6 2401.08)
(-229052 2313.07 2763.98)
(-226133 2174.76 2968.48)
(-220747 2199.38 2845.72)
(-208905 2747.19 2557.24)
(-192651 4171.67 2045.52)
(-192648 6656.71 328.778)
(-202093 6244.18 -4908.52)
(-218224 2672.59 -5883.02)
(11883.5 10156.1 -5037.55)
(-258746 -3497.41 2673.99)
(-259204 -3531.01 2699.99)
(-259407 -3556.43 2680.57)
(-259701 -3565.95 2701.55)
(-259995 -3577.05 2716.55)
(-260301 -3590.18 2725.58)
(-260614 -3602.72 2728.1)
(-260933 -3616.5 2719.14)
(-261253 -3633.44 2692.13)
(-261567 -3653.55 2639.32)
(-261864 -3677.98 2552.2)
(-262134 -3706.82 2424.95)
(-262359 -3740.55 2249.2)
(-262518 -3779.29 2013.13)
(-262619 -3824.18 1713.93)
(-262661 -3877.18 1364.35)
(-262639 -3939.15 977.493)
(-262561 -4013.75 561.083)
(-262414 -4100.99 121.565)
(-262187 -4198.72 -321.236)
(-261880 -4304.54 -741.916)
(-261498 -4418.65 -1107.23)
(-261060 -4538.54 -1387.76)
(-260594 -4661.62 -1555.89)
(-260133 -4784.83 -1600.19)
(-259707 -4905.54 -1518.19)
(-259340 -5022.01 -1319.14)
(-259049 -5133.15 -1018.79)
(-258844 -5238.72 -635.722)
(-258725 -5338.74 -188.47)
(-258689 -5433.83 307.758)
(-258726 -5525.5 840.081)
(-258832 -5616.46 1398.83)
(-259002 -5708.42 1975.17)
(-259237 -5802.66 2561.69)
(-259544 -5903.84 3152.38)
(-259930 -6016.3 3741.36)
(-260422 -6141.33 4328.06)
(-261070 -6280.74 4913.53)
(-261909 -6438.33 5496.74)
(-262994 -6619.29 6082.61)
(-264405 -6830.4 6670.62)
(-266103 -7079.53 7265.28)
(-268087 -7378.36 7880.04)
(-270635 -7740.19 8538.32)
(-274589 -8178.57 9263.48)
(-280698 -8705.39 10050.7)
(-287661 -9268.47 10775.7)
(-291415 -9683.29 11340)
(-293664 -9923.71 11916.6)
(-308285 -8502.11 10774)
(-390320 -6855.67 520.293)
(-495397 2648.7 -10895.7)
(-425340 12305.4 -13443)
(-244461 2625.85 2629.01)
(-244317 2600.78 2588.11)
(-244307 2574.31 2609.58)
(-244311 2567.59 2623.46)
(-244390 2558.01 2643.1)
(-244505 2546.07 2657.67)
(-244660 2534.28 2666.54)
(-244861 2520.73 2661.91)
(-245107 2503.42 2640.45)
(-245391 2482.36 2593.81)
(-245712 2456.39 2514.28)
(-246062 2425.54 2396.06)
(-246429 2389.42 2232.67)
(-246799 2348.41 2016.34)
(-247158 2302.27 1742.77)
(-247489 2249.69 1415.11)
(-247773 2191.9 1038.95)
(-248007 2127.3 624.227)
(-248182 2054.99 180.482)
(-248312 1975.59 -273.072)
(-248390 1892.88 -708.912)
(-248423 1806.91 -1094.5)
(-248431 1720.44 -1397.98)
(-248440 1636.11 -1594.42)
(-248481 1556.66 -1669.95)
(-248582 1484.19 -1624.39)
(-248762 1419.57 -1467.92)
(-249032 1362.98 -1217.85)
(-249393 1313.72 -893.822)
(-249838 1270.97 -515.736)
(-250354 1233.53 -100.121)
(-250923 1199.43 339.276)
(-251531 1165.54 792.605)
(-252167 1130.49 1252.93)
(-252815 1094.05 1716.25)
(-253457 1050.55 2180.4)
(-254098 993.115 2641.26)
(-254738 919.637 3098.6)
(-255371 826.191 3552.32)
(-256000 708.196 4009.14)
(-256631 566.114 4480.36)
(-257229 395.301 4968.15)
(-257691 185.516 5477.91)
(-257921 -75.3177 6022.97)
(-258095 -400.98 6615.56)
(-258859 -808.39 7247.55)
(-260593 -1307.96 7847.48)
(-261488 -1860.99 8226.63)
(-257197 -2342.99 7965.5)
(-248669 -2912.67 6128.93)
(-250555 -2470.28 92.3546)
(-281903 -8427.66 -526.523)
(-253950 9190.05 -13497.7)
(-190576 1430.57 -15798.7)
(-242202 -1739.62 286.886)
(-241720 -1708.48 181.821)
(-241466 -1674.24 136.665)
(-241188 -1633.6 100.153)
(-240965 -1595.65 76.2709)
(-240774 -1559.51 55.0255)
(-240618 -1525.31 30.001)
(-240498 -1494.23 -6.30737)
(-240416 -1466.08 -60.0329)
(-240368 -1440.71 -141.824)
(-240354 -1418.91 -262.357)
(-240367 -1401.23 -428.942)
(-240398 -1387.52 -650.276)
(-240437 -1377.48 -933.769)
(-240468 -1370.95 -1284.13)
(-240474 -1370.69 -1702.99)
(-240417 -1377.64 -2187.18)
(-240247 -1389.52 -2733)
(-239946 -1406.1 -3325.55)
(-239495 -1430.17 -3944.41)
(-238869 -1462.2 -4554.76)
(-238066 -1507.62 -5114.8)
(-237107 -1567.49 -5572.76)
(-236037 -1645.39 -5890.27)
(-234916 -1739.94 -6047.76)
(-233804 -1852.28 -6048.93)
(-232756 -1981.08 -5914.91)
(-231815 -2124.63 -5675.66)
(-231010 -2280.41 -5363.33)
(-230357 -2445.39 -5006.32)
(-229858 -2616.27 -4625.91)
(-229511 -2789.86 -4237.34)
(-229311 -2963.87 -3851.04)
(-229250 -3135.92 -3474.67)
(-229320 -3301.61 -3113.65)
(-229512 -3457.77 -2769.61)
(-229816 -3607.34 -2442.9)
(-230208 -3752.36 -2139.24)
(-230642 -3887.63 -1880.93)
(-231091 -4010.97 -1666.09)
(-231534 -4116.69 -1497.26)
(-231914 -4198.86 -1385.43)
(-232112 -4252.15 -1348.11)
(-232030 -4276.76 -1397.24)
(-231865 -4278.61 -1564.13)
(-232324 -4263.58 -1876.32)
(-233913 -4236.67 -2320.6)
(-234781 -4171.85 -3003.15)
(-230650 -3866.72 -4144.99)
(-222448 -3528.92 -6603.54)
(-228181 -2377.16 -5950.7)
(-290613 -3701.71 -107.716)
(-374959 16260.2 29867.3)
(-379553 36275.7 59097)
(-223496 4177.42 301.149)
(-223311 4184.27 233.922)
(-223324 4210.15 240.699)
(-223339 4242.55 229.654)
(-223437 4273.8 232.631)
(-223582 4305.2 241.196)
(-223777 4336.57 244.233)
(-224019 4366.85 233.307)
(-224306 4396.37 203.721)
(-224634 4425.29 144.368)
(-224998 4452.82 45.2094)
(-225386 4478.44 -103.164)
(-225786 4501.97 -310.597)
(-226183 4523.34 -587.051)
(-226557 4542.75 -940.604)
(-226885 4558.09 -1374.79)
(-227149 4566.35 -1889.32)
(-227315 4568.48 -2480.45)
(-227360 4565.72 -3133.15)
(-227255 4555.79 -3830.69)
(-226953 4537.87 -4551.91)
(-226439 4507.36 -5253.27)
(-225737 4465.56 -5880.92)
(-224897 4411.88 -6386.01)
(-223985 4351.21 -6743.22)
(-223072 4285.61 -6950.58)
(-222220 4218.98 -7024.62)
(-221478 4154.67 -6992.6)
(-220874 4095.92 -6885.03)
(-220421 4045.62 -6730.73)
(-220113 4006.11 -6551.79)
(-219936 3979.18 -6360.8)
(-219868 3965.13 -6162.16)
(-219883 3964.16 -5961.39)
(-219954 3976.35 -5769.24)
(-220010 4000.38 -5598.97)
(-220018 4031.53 -5446.28)
(-219958 4069.48 -5305.94)
(-219806 4118.01 -5179.65)
(-219526 4180.59 -5077.4)
(-219065 4266.72 -5008.96)
(-218334 4382.3 -4986.44)
(-217180 4525.73 -5036.39)
(-215464 4698.16 -5186.73)
(-213343 4902.48 -5462.46)
(-211480 5133.7 -5869.6)
(-210261 5372.95 -6392.84)
(-207585 5630.4 -7197.94)
(-199216 5964.06 -8856.49)
(-184986 5910.77 -11985.2)
(-185791 5304.08 -13128.3)
(-206410 -1716.55 -7202.17)
(-213876 11302.1 38633.9)
(-92903 5403.94 26127.9)
(-243102 -2373.51 -892.839)
(-243013 -2409.59 -953.532)
(-243055 -2422.06 -952.071)
(-243124 -2439.49 -960.42)
(-243247 -2458.48 -965.429)
(-243424 -2475.83 -976.176)
(-243648 -2491.75 -996.948)
(-243920 -2507.37 -1035.12)
(-244240 -2522.17 -1098.22)
(-244607 -2534.28 -1197.28)
(-245012 -2541.87 -1344.27)
(-245442 -2544.11 -1551.47)
(-245886 -2539.82 -1831.28)
(-246325 -2528.77 -2194.67)
(-246738 -2510.72 -2648.55)
(-247095 -2484.93 -3196.2)
(-247369 -2450.68 -3832.59)
(-247535 -2404.32 -4541.48)
(-247572 -2343.91 -5298.16)
(-247449 -2266.28 -6079.25)
(-247138 -2171.53 -6843.77)
(-246626 -2057.36 -7535.7)
(-245935 -1924.85 -8076.98)
(-245123 -1772.13 -8408.84)
(-244259 -1603.69 -8498.05)
(-243410 -1425.37 -8358.48)
(-242622 -1243.77 -8028.49)
(-241919 -1065.36 -7561.5)
(-241308 -895.388 -7011.09)
(-240777 -738.99 -6422.61)
(-240307 -599.387 -5830.06)
(-239874 -476.498 -5259.91)
(-239458 -366.841 -4733.25)
(-239040 -268.408 -4264.83)
(-238604 -181.265 -3863.88)
(-238131 -103.169 -3534.63)
(-237607 -27.3106 -3277.18)
(-237018 50.6559 -3091.6)
(-236354 124.739 -2992.34)
(-235610 207.717 -2969.69)
(-234754 301.595 -3019.87)
(-233719 406.804 -3141.15)
(-232375 522.973 -3332.71)
(-230607 652.967 -3580.9)
(-228576 797.404 -3880.99)
(-226917 962.546 -4249.94)
(-226129 1168.69 -4697.16)
(-224532 1454.82 -5286.85)
(-218084 1827.89 -6237.77)
(-204913 2612.16 -8231.03)
(-202165 4459.3 -9693.37)
(-209417 7053.84 -8134.02)
(-203501 33294.6 33791.2)
(-111667 23484.8 22745.2)
(-235007 5077.22 4399.09)
(-235151 5141.92 4677.32)
(-235340 5184.63 4829.87)
(-235578 5232.61 5008.27)
(-235880 5276.59 5185.8)
(-236239 5322.3 5365.29)
(-236657 5368.67 5539.43)
(-237132 5414.14 5699.64)
(-237663 5458.79 5836.5)
(-238246 5503.76 5937.76)
(-238871 5550.09 5990.06)
(-239527 5597.41 5978.42)
(-240195 5645.84 5886.9)
(-240853 5694.67 5700.64)
(-241474 5742.37 5408.22)
(-242021 5787.9 5004.95)
(-242458 5829.62 4494.89)
(-242754 5868.84 3892.03)
(-242879 5905.79 3213.99)
(-242802 5941.79 2483.36)
(-242529 5976.21 1746.87)
(-242068 6011.37 1069.87)
(-241494 6045.27 520.862)
(-240855 6082.29 161.527)
(-240210 6122.01 22.2437)
(-239607 6164.02 96.5233)
(-239073 6207.4 350.338)
(-238613 6251.03 737.897)
(-238220 6294.25 1214.05)
(-237875 6335.35 1744.43)
(-237598 6372.64 2308.45)
(-237414 6407.47 2884.17)
(-237308 6444.6 3445.69)
(-237243 6486.13 3975.98)
(-237191 6527.74 4459.63)
(-237166 6574.74 4915.49)
(-237149 6632.6 5352.92)
(-237103 6703.27 5771.47)
(-236989 6786.56 6168)
(-236772 6881.34 6541.83)
(-236396 6984.39 6889.5)
(-235767 7089.21 7200.01)
(-234730 7186.77 7453.54)
(-233138 7263.43 7617.42)
(-231115 7302.07 7658.06)
(-229231 7295.42 7557.78)
(-227831 7244.1 7260.76)
(-225193 7156.78 6557.12)
(-217412 6974.3 5033.87)
(-204746 6814.55 3116.41)
(-202484 7210.92 2726.71)
(-206383 5777.27 488.534)
(-205124 14994 11627.4)
(29073.1 9151.69 9824.64)
(-243254 -5133.75 -2243.61)
(-243104 -5185.75 -2286.27)
(-243087 -5208.58 -2243.07)
(-243097 -5237.56 -2210.74)
(-243160 -5263.34 -2163.66)
(-243275 -5284.73 -2108.79)
(-243436 -5302.17 -2050.38)
(-243644 -5317.3 -1995.33)
(-243898 -5331.29 -1955.57)
(-244198 -5343.59 -1944.69)
(-244536 -5354.42 -1977.82)
(-244899 -5364.46 -2074.84)
(-245272 -5373.93 -2257.19)
(-245634 -5382.89 -2545.77)
(-245955 -5390.89 -2958.59)
(-246202 -5396.69 -3508.4)
(-246338 -5397.78 -4199.01)
(-246331 -5391.43 -5014.51)
(-246155 -5377.88 -5931.08)
(-245779 -5352.93 -6916.24)
(-245165 -5313.76 -7934.95)
(-244293 -5255.57 -8910.43)
(-243201 -5181.04 -9733.62)
(-241994 -5086.41 -10287.8)
(-240803 -4972.94 -10525.8)
(-239747 -4838.84 -10473.3)
(-238889 -4686.33 -10201.6)
(-238248 -4514.71 -9791.48)
(-237803 -4322.93 -9313.42)
(-237508 -4108.16 -8820.22)
(-237314 -3864.55 -8347.73)
(-237177 -3595.06 -7917.58)
(-237057 -3310.25 -7541.07)
(-236916 -3017.23 -7223.46)
(-236718 -2720.08 -6967.31)
(-236433 -2421.35 -6775.81)
(-236033 -2123.03 -6652.27)
(-235492 -1829.75 -6602.17)
(-234780 -1547.09 -6632.68)
(-233869 -1282.59 -6749.6)
(-232723 -1046.89 -6961.72)
(-231271 -854.851 -7282.05)
(-229380 -727.149 -7729.32)
(-226913 -687.583 -8325.76)
(-223980 -757.754 -9090.29)
(-221166 -953.959 -10054)
(-218964 -1321.02 -11310.3)
(-215716 -1933.83 -12996.3)
(-207209 -2764.2 -15196.5)
(-192846 -3018.06 -17129.3)
(-191529 -2461.22 -19287.1)
(-207166 -4624.58 -23527.1)
(-203103 -8462.44 -50903.3)
(414.552 757.413 8827.77)
(-224592 4824.26 3637.1)
(-224005 4863.81 3857.58)
(-223743 4867.2 4019.25)
(-223442 4884.15 4192.3)
(-223200 4896.22 4377.14)
(-222996 4912.85 4568.95)
(-222835 4932.11 4762.78)
(-222718 4952.82 4951.62)
(-222646 4973.82 5123.6)
(-222621 4996.03 5264.76)
(-222641 5019.74 5358.54)
(-222699 5044.46 5384.84)
(-222785 5070.23 5321.67)
(-222885 5096.96 5147.11)
(-222975 5124.96 4842.03)
(-223023 5155.05 4392.69)
(-222996 5188.91 3797.35)
(-222857 5228.21 3070.35)
(-222573 5270 2236.17)
(-222095 5317.07 1325.2)
(-221330 5373.13 381.274)
(-220193 5444.97 -514.089)
(-218653 5524.38 -1233.05)
(-216843 5608.11 -1645.49)
(-214964 5685.08 -1688.71)
(-213217 5751.73 -1388.1)
(-211757 5801.9 -823.67)
(-210674 5832.61 -88.0766)
(-209986 5843.43 737.908)
(-209667 5838.07 1597.08)
(-209620 5828.59 2459.5)
(-209654 5824.13 3284.21)
(-209692 5818.79 4063.83)
(-209703 5806.45 4794.09)
(-209674 5783.45 5473.54)
(-209589 5749.27 6105.59)
(-209426 5704.44 6688.32)
(-209157 5647.32 7218.81)
(-208755 5575.04 7695.75)
(-208182 5481.85 8116.21)
(-207385 5358.09 8473.21)
(-206266 5187.94 8752.33)
(-204652 4946.11 8926.71)
(-202380 4600.57 8957.85)
(-199576 4114.39 8796)
(-196885 3450.25 8381.55)
(-194746 2533.13 7567.61)
(-191191 1271.72 6069.49)
(-181035 -181.4 3808.31)
(-163142 -1084.99 1244.55)
(-156106 -1324.51 -3988.93)
(-174105 -3356.21 -6536.14)
(-216158 -4207.9 5140.7)
(-21487.6 3699.76 -15535.5)
(-243036 -4203.13 -1056.27)
(-243166 -4141.65 -884.138)
(-243315 -4119.74 -716.311)
(-243509 -4106.16 -529.228)
(-243752 -4093.38 -329.9)
(-244041 -4085.3 -117.577)
(-244375 -4082.56 96.73)
(-244756 -4087.68 298.555)
(-245189 -4100.78 467.351)
(-245672 -4121.3 581.132)
(-246197 -4149.72 614.046)
(-246755 -4186.14 536.935)
(-247326 -4230.7 319.201)
(-247879 -4284.37 -67.7753)
(-248365 -4348.57 -644.462)
(-248719 -4423.68 -1419.16)
(-248873 -4508.68 -2382.96)
(-248769 -4605.27 -3506.92)
(-248349 -4714.38 -4749.14)
(-247562 -4841.76 -6065.84)
(-246326 -4985.09 -7420.03)
(-244547 -5140.96 -8719.06)
(-242216 -5296.43 -9778.3)
(-239487 -5441.28 -10367.7)
(-236632 -5561.16 -10396)
(-233911 -5651.81 -9934.1)
(-231494 -5714.25 -9138.53)
(-229461 -5751.69 -8165.46)
(-227819 -5767.56 -7142.91)
(-226530 -5764.87 -6160.1)
(-225535 -5747.29 -5272.19)
(-224768 -5711.11 -4505.73)
(-224169 -5648.93 -3868.05)
(-223687 -5556.94 -3357.1)
(-223276 -5435 -2967.19)
(-222899 -5283.25 -2692.46)
(-222521 -5099.9 -2527.79)
(-222115 -4881.38 -2471.67)
(-221658 -4624.65 -2531.61)
(-221132 -4329.18 -2711.9)
(-220524 -3996.42 -3030.67)
(-219790 -3630.44 -3525.06)
(-218826 -3239.87 -4241.17)
(-217531 -2842.91 -5261.1)
(-216038 -2461.35 -6694.07)
(-214951 -2107.64 -8665.84)
(-214799 -1815.52 -11389.6)
(-213965 -1700.48 -15180.7)
(-207305 -1793.38 -20498.2)
(-193166 -2295.75 -27083)
(-184512 -5228.91 -37700.2)
(-200614 -8005.49 -50325)
(-199326 -18103.4 -65143.3)
(-42144.2 -4663.54 -12801.1)
(-240270 3188.42 3043.26)
(-240623 3130.12 3389.38)
(-240823 3091.79 3630.09)
(-241130 3035.39 3914.45)
(-241462 2978.5 4209.76)
(-241855 2917.84 4518.89)
(-242304 2852.64 4829.26)
(-242817 2780.83 5128.62)
(-243396 2702.46 5399.69)
(-244042 2618.62 5621.31)
(-244750 2529.7 5768.49)
(-245510 2436.46 5813.05)
(-246302 2340.19 5724.91)
(-247098 2242.06 5474.9)
(-247855 2144.3 5037.67)
(-248513 2050.7 4397.48)
(-249005 1965.34 3558.17)
(-249268 1889.18 2546.04)
(-249250 1825.06 1399.38)
(-248912 1770.61 164.505)
(-248234 1728.97 -1098.22)
(-247146 1700.03 -2298.87)
(-245600 1694.68 -3238.43)
(-243680 1715.64 -3681.88)
(-241572 1764.11 -3522.37)
(-239460 1828.57 -2835.93)
(-237475 1892.97 -1787.86)
(-235688 1942.11 -550.553)
(-234136 1964.62 731.805)
(-232832 1952.83 1953.72)
(-231788 1903.69 3062.24)
(-231057 1810.96 4033.8)
(-230625 1681.19 4875.34)
(-230432 1520.58 5614.53)
(-230417 1331.4 6267.72)
(-230535 1114.68 6842.84)
(-230755 872.97 7347.32)
(-231054 611.513 7786.92)
(-231408 336.492 8165.24)
(-231795 51.018 8483.75)
(-232188 -243.336 8738.39)
(-232532 -545.852 8921.7)
(-232726 -858.754 9022.5)
(-232704 -1188.49 9023.49)
(-232681 -1545.52 8891.67)
(-233363 -1938.09 8549.88)
(-235297 -2390.91 7829.66)
(-236968 -2978.26 6496.47)
(-233983 -3842.6 4172.89)
(-224210 -5184.01 -492.937)
(-216219 -8355.73 -11354.2)
(-250855 -11618.9 -24146.1)
(-219764 -22813.8 -81273.8)
(-133912 -9685.66 -30198.6)
(-249820 -1785.83 -474.187)
(-250418 -1649.15 -324.542)
(-250784 -1650.34 -197.475)
(-251256 -1624.74 -60.8376)
(-251759 -1612.15 64.9292)
(-252307 -1605.67 181.681)
(-252905 -1608.49 277.296)
(-253562 -1620.24 339.425)
(-254284 -1639.32 355.31)
(-255069 -1664.39 311.974)
(-255915 -1694.45 191.846)
(-256810 -1728.14 -24.5801)
(-257734 -1764.21 -359.517)
(-258659 -1801.31 -839.158)
(-259550 -1838.58 -1492.22)
(-260350 -1878.07 -2345.77)
(-260973 -1927.51 -3408)
(-261332 -1991.95 -4667.8)
(-261364 -2074.27 -6088.08)
(-261024 -2181.68 -7639.29)
(-260200 -2318.66 -9307.93)
(-258693 -2495.77 -11049.9)
(-256365 -2713.97 -12613.9)
(-253363 -2967.1 -13608.8)
(-250084 -3229.34 -13818.4)
(-246876 -3480.88 -13355.2)
(-243901 -3707.54 -12466.2)
(-241200 -3902.32 -11370.5)
(-238760 -4062.08 -10229.3)
(-236546 -4187.01 -9137.19)
(-234521 -4278.69 -8138.77)
(-232653 -4336.89 -7246.33)
(-230922 -4362.26 -6453.63)
(-229320 -4356.63 -5742.79)
(-227840 -4322.42 -5091.13)
(-226486 -4261.2 -4476.41)
(-225264 -4172.99 -3880.52)
(-224186 -4061.71 -3297.72)
(-223265 -3942.84 -2746.63)
(-222477 -3824.63 -2204.9)
(-221820 -3703.95 -1635.51)
(-221277 -3580.34 -1019.69)
(-220780 -3454.18 -341.45)
(-220299 -3328.85 394.18)
(-220115 -3196.27 1161.1)
(-221155 -3044.23 1889.21)
(-224336 -2886.45 2490.73)
(-228262 -2824.9 2850.56)
(-227896 -2811.17 2348.72)
(-223695 -2585.84 -105.425)
(-227276 -2495.13 -7049.24)
(-264744 -3410.09 -19283)
(-255165 -9611.51 -54716.6)
(-144171 -1795.96 -7703)
(-231946 2058.4 3450.09)
(-231534 1980.59 3788.43)
(-231312 1897.6 3953.43)
(-231074 1813.79 4183.43)
(-230871 1727.4 4393.37)
(-230704 1638.43 4594.57)
(-230582 1544.64 4772.12)
(-230512 1446.08 4914.23)
(-230504 1344.81 5005.95)
(-230569 1242.62 5030.29)
(-230716 1141.03 4966.6)
(-230949 1042.08 4791.27)
(-231272 948.213 4477.79)
(-231677 862.047 3997.75)
(-232146 785.219 3322.4)
(-232642 716.438 2427.57)
(-233109 652.383 1306.62)
(-233491 592.435 -24.6609)
(-233757 535.996 -1532.77)
(-233892 472.987 -3177.27)
(-233827 392.208 -4945.53)
(-233402 284.294 -6786.2)
(-232526 148.482 -8439.78)
(-231400 -9.98295 -9477.36)
(-230428 -162.926 -9650.09)
(-229907 -289.048 -9064.88)
(-229891 -376.778 -7987.75)
(-230276 -426.402 -6662.46)
(-230905 -443.923 -5270.41)
(-231632 -437.592 -3919.36)
(-232349 -415.542 -2663.02)
(-232984 -382.549 -1527.04)
(-233488 -343.229 -513.533)
(-233868 -306.173 367.368)
(-234149 -277.608 1119.79)
(-234372 -260.732 1769.35)
(-234578 -253.7 2344.36)
(-234754 -253.928 2851.54)
(-234906 -265.4 3303.77)
(-235042 -288.051 3715.08)
(-235167 -318.208 4093.95)
(-235264 -355.074 4448.51)
(-235276 -396.556 4790.11)
(-235201 -436.221 5135.22)
(-235371 -457.042 5492.17)
(-236778 -433.589 5824.5)
(-240600 -356.267 6057.34)
(-246040 -314.516 6232.27)
(-249240 -281.004 6127.2)
(-250341 -117.7 4464.17)
(-265837 126.13 -1905.76)
(-331255 -830.617 -13339.2)
(-436928 -15342.8 -58236.6)
(-358211 -7833.07 -28838.4)
(-238031 -833.973 -1048.74)
(-239056 -728.158 -873.489)
(-239781 -751.554 -749.441)
(-240644 -736.904 -579.628)
(-241562 -729.713 -396.494)
(-242544 -723.675 -186.353)
(-243598 -720.458 45.5824)
(-244728 -719.431 297.586)
(-245937 -720.172 564.024)
(-247228 -722.774 833.27)
(-248602 -726.707 1084)
(-250055 -731.362 1283.13)
(-251578 -735.825 1383.18)
(-253151 -738.834 1322.92)
(-254741 -739.163 1029.5)
(-256288 -735.978 422.692)
(-257706 -725.787 -548.106)
(-258905 -701.599 -1892.45)
(-259833 -659.713 -3552.45)
(-260460 -597.339 -5452.67)
(-260689 -515.846 -7564.18)
(-260191 -420.228 -9884.65)
(-258599 -337.268 -12096.4)
(-256092 -289.049 -13459.7)
(-253460 -267.302 -13474.4)
(-251449 -252.162 -12397.9)
(-250261 -240.251 -10862.1)
(-249760 -237.397 -9268.63)
(-249730 -240.734 -7812.68)
(-249977 -250.121 -6571.17)
(-250365 -269.132 -5559.17)
(-250813 -302.311 -4763.61)
(-251285 -353.962 -4160.11)
(-251770 -428.529 -3721.14)
(-252284 -533.371 -3420.92)
(-252851 -679.961 -3239.57)
(-253500 -882.666 -3166.03)
(-254268 -1152.74 -3201.82)
(-255202 -1491.24 -3341.88)
(-256419 -1905.78 -3583.12)
(-258020 -2412.5 -3949.29)
(-260073 -3028.99 -4457.8)
(-262600 -3778.4 -5110.06)
(-265654 -4681.94 -5890.74)
(-269601 -5754.41 -6766.36)
(-275437 -7019.14 -7683.55)
(-284235 -8516.67 -8531.98)
(-295071 -10219 -9019.39)
(-303959 -11901 -8813.02)
(-312823 -13755 -8188.28)
(-336308 -16103.2 -8796.07)
(-412720 -17195.5 -6717.9)
(-531492 -11682.5 -7250.29)
(-434216 -11353.6 -26160.8)
(-214940 1066.46 2038.75)
(-214275 1078.61 2285.37)
(-213988 1046.32 2445.25)
(-213665 1033.6 2648.19)
(-213443 1026.4 2863.22)
(-213295 1024.14 3098.96)
(-213243 1027 3355.54)
(-213296 1035.66 3630.12)
(-213470 1051.06 3916.17)
(-213777 1073.3 4201.78)
(-214229 1102.99 4465.84)
(-214830 1140.46 4674.78)
(-215578 1185.98 4779.56)
(-216454 1239.59 4715.38)
(-217416 1300.56 4404.67)
(-218389 1367.11 3767.03)
(-219255 1437.71 2743.82)
(-219888 1513.29 1323.65)
(-220204 1592.85 -457.873)
(-220149 1686.28 -2551.47)
(-219458 1796.54 -4911.94)
(-217732 1914.88 -7574.85)
(-214470 2003.92 -10270.8)
(-209763 2024.59 -12199.8)
(-204485 1971 -12690.7)
(-199621 1863.57 -11902.5)
(-195668 1723.8 -10493.7)
(-192717 1567.33 -8929.64)
(-190659 1408.84 -7466.41)
(-189308 1256.36 -6212.4)
(-188482 1112.01 -5196.74)
(-188030 974.157 -4411.17)
(-187836 841.197 -3826.13)
(-187810 713.649 -3403.5)
(-187876 588.752 -3124.92)
(-187932 451.254 -2981.3)
(-187926 278.298 -2971.1)
(-187886 51.6071 -3090.07)
(-187850 -242.764 -3327.65)
(-187870 -618.195 -3678.9)
(-188011 -1091.98 -4139.42)
(-188320 -1687.15 -4705.17)
(-188802 -2430 -5362.04)
(-189518 -3344.28 -6079.56)
(-190959 -4447.84 -6818.68)
(-194516 -5779.35 -7578.66)
(-201984 -7417.69 -8344.67)
(-212777 -9389.62 -8802.58)
(-221029 -11650.8 -8482.45)
(-225808 -14524.1 -8125.48)
(-261227 -16495.7 -6921.52)
(-410851 -14020 -2671.64)
(-609905 -8630.39 19302.3)
(-440742 -11693 11308.6)
(-229102 -1738.13 591.003)
(-229852 -1775.27 1101.27)
(-230463 -1837.61 1367.44)
(-231177 -1902.36 1746.39)