/*--------------------------------*- C++ -*----------------------------------*\
| =========                 |                                                 |
| \\      /  F ield         | OpenFOAM: The Open Source CFD Toolbox           |
|  \\    /   O peration     | Version:  4.1                                   |
|   \\  /    A nd           | Web:      www.OpenFOAM.org                      |
|    \\/     M anipulation  |                                                 |
\*---------------------------------------------------------------------------*/
FoamFile
{
    version     2.0;
    format      ascii;
    class       volScalarField;
    location    "95";
    object      p;
}
// * * * * * * * * * * * * * * * * * * * * * * * * * * * * * * * * * * * * * //

dimensions      [0 2 -2 0 0 0 0];

internalField   nonuniform List<scalar> 
4432
(
100961
100961
100962
100964
100967
100970
100974
100978
100984
100990
100996
101003
101011
101019
101027
101035
101041
101045
101049
101058
101073
101090
101108
101128
101151
101175
101197
101215
101229
101241
101252
101263
101279
101300
101319
101330
101337
101345
101352
101358
101362
101365
101367
101369
101369
101368
101366
101363
101359
101353
101346
101340
101334
101328
100961
100961
100962
100964
100967
100970
100974
100978
100984
100990
100996
101003
101011
101019
101027
101035
101041
101045
101049
101058
101074
101091
101110
101130
101152
101176
101198
101215
101230
101243
101255
101267
101281
101299
101317
101329
101337
101345
101352
101358
101362
101365
101367
101369
101369
101369
101365
101362
101358
101353
101346
101340
101333
101328
100960
100960
100961
100962
100965
100968
100971
100976
100981
100987
100994
101001
101009
101018
101029
101041
101057
101074
101087
101096
101108
101123
101138
101152
101167
101182
101197
101213
101230
101246
101259
101271
101282
101292
101302
101313
101325
101338
101351
101360
101363
101362
101365
101368
101370
101369
101367
101364
101361
101357
101351
101341
101328
101328
100960
100960
100961
100962
100965
100968
100971
100976
100981
100987
100994
101001
101009
101018
101028
101041
101056
101074
101088
101097
101108
101121
101136
101150
101164
101179
101195
101212
101228
101243
101255
101265
101277
101292
101306
101316
101328
101339
101351
101360
101363
101363
101366
101369
101370
101369
101367
101365
101362
101359
101352
101339
101326
101328
100958
100958
100959
100961
100964
100967
100971
100975
100980
100986
100993
101000
101008
101017
101028
101039
101052
101064
101075
101088
101103
101119
101134
101148
101163
101180
101198
101216
101234
101250
101263
101274
101288
101303
101312
101319
101330
101346
101360
101370
101370
101367
101370
101373
101374
101372
101369
101365
101360
101355
101349
101341
101333
101329
100958
100958
100959
100961
100964
100967
100971
100975
100980
100986
100993
101000
101008
101017
101028
101039
101052
101064
101075
101088
101103
101118
101133
101147
101161
101178
101196
101214
101232
101249
101262
101271
101283
101300
101313
101322
101333
101346
101358
101368
101370
101368
101370
101374
101374
101372
101369
101366
101361
101357
101350
101340
101333
101330
100956
100956
100957
100959
100962
100964
100968
100972
100977
100983
100990
100997
101005
101014
101024
101035
101046
101057
101069
101083
101099
101115
101129
101143
101160
101180
101200
101220
101240
101259
101273
101287
101308
101322
101325
101320
101330
101346
101361
101373
101373
101370
101375
101379
101378
101375
101371
101367
101362
101355
101349
101344
101336
101328
100956
100956
100957
100959
100962
100964
100968
100972
100977
100983
100990
100997
101005
101014
101024
101035
101046
101057
101068
101083
101099
101114
101129
101143
101160
101180
101200
101219
101240
101259
101272
101286
101305
101319
101326
101328
101336
101348
101361
101370
101371
101371
101375
101378
101378
101375
101371
101367
101362
101356
101351
101345
101336
101327
100953
100954
100955
100956
100959
100962
100965
100969
100974
100980
100986
100993
101001
101010
101020
101030
101041
101052
101063
101075
101089
101105
101120
101136
101155
101179
101204
101227
101251
101271
101288
101307
101329
101344
101369
101307
101319
101346
101370
101388
101385
101377
101383
101385
101383
101379
101375
101371
101366
101359
101352
101346
101338
101331
100953
100954
100955
100956
100959
100962
100965
100969
100974
100980
100986
100993
101001
101010
101020
101030
101041
101052
101063
101074
101089
101105
101120
101136
101157
101180
101204
101227
101253
101275
101290
101307
101327
101339
101344
101334
101336
101352
101372
101385
101384
101379
101382
101384
101383
101379
101375
101370
101365
101360
101355
101347
101336
101330
100950
100950
100951
100953
100955
100958
100962
100966
100970
100976
100982
100989
100996
101005
101014
101024
101034
101045
101055
101067
101080
101095
101110
101126
101146
101171
101198
101225
101252
101276
101294
101313
101338
101415
101552
101363
101304
101324
101356
101367
101376
101398
101399
101394
101389
101385
101380
101374
101369
101362
101354
101346
101339
101332
100950
100950
100951
100953
100955
100958
100962
100966
100970
100976
100982
100989
100996
101005
101014
101024
101034
101045
101055
101066
101080
101095
101111
101127
101147
101172
101199
101224
101252
101277
101294
101308
101326
101358
101385
101344
101321
101343
101374
101396
101403
101393
101393
101392
101389
101385
101380
101375
101369
101361
101354
101347
101339
101332
100946
100947
100948
100949
100951
100954
100957
100961
100966
100971
100977
100983
100991
100999
101008
101017
101027
101037
101047
101058
101071
101086
101101
101114
101130
101154
101183
101209
101233
101256
101280
101308
101354
101534
101487
101456
101338
101349
101373
101383
101393
101409
101409
101402
101396
101392
101387
101381
101374
101366
101357
101348
101338
101332
100946
100947
100948
100949
100951
100954
100957
100961
100966
100971
100977
100983
100991
100999
101008
101017
101027
101037
101047
101058
101071
101086
101101
101116
101133
101156
101182
101206
101231
101257
101277
101299
101326
101378
101437
101393
101318
101336
101373
101391
101399
101404
101403
101399
101394
101390
101385
101379
101373
101365
101356
101347
101339
101331
100942
100942
100943
100945
100947
100949
100952
100956
100960
100965
100971
100977
100984
100992
101001
101010
101019
101029
101039
101050
101062
101075
101088
101101
101111
101129
101156
101178
101198
101215
101237
101269
101300
101360
101410
101417
101355
101362
101386
101400
101406
101411
101410
101405
101399
101394
101389
101383
101375
101367
101357
101346
101335
101331
100942
100942
100943
100945
100947
100949
100952
100956
100960
100965
100971
100977
100984
100992
101000
101010
101019
101029
101039
101050
101062
101075
101088
101101
101114
101132
101154
101174
101195
101217
101237
101263
101303
101345
101385
101370
101346
101361
101387
101402
101408
101410
101408
101403
101397
101392
101387
101381
101374
101365
101355
101345
101336
101331
100937
100938
100938
100940
100942
100944
100947
100950
100954
100959
100964
100970
100977
100985
100993
101001
101011
101020
101030
101041
101051
101062
101072
101082
101090
101098
101116
101138
101161
101184
101208
101236
101277
101321
101362
101361
101359
101375
101396
101408
101413
101414
101413
101409
101402
101397
101391
101385
101377
101368
101357
101346
101335
101330
100937
100938
100938
100940
100942
100944
100947
100950
100954
100959
100964
100970
100977
100985
100993
101001
101011
101020
101030
101041
101051
101062
101072
101081
101090
101100
101117
101137
101158
101181
101206
101238
101280
101321
101354
101365
101370
101384
101402
101413
101417
101417
101413
101409
101404
101398
101391
101385
101378
101369
101357
101346
101336
101332
100932
100932
100933
100934
100936
100938
100941
100944
100948
100952
100957
100963
100969
100976
100984
100992
101002
101011
101021
101031
101040
101048
101055
101060
101063
101065
101077
101101
101131
101159
101189
101224
101268
101311
101351
101373
101390
101406
101421
101430
101432
101431
101428
101422
101414
101406
101399
101391
101382
101372
101359
101347
101336
101330
100932
100932
100933
100934
100936
100938
100941
100944
100948
100952
100957
100963
100969
100976
100984
100992
101002
101011
101021
101031
101040
101049
101055
101058
101061
101064
101078
101102
101130
101158
101189
101225
101268
101312
101350
101375
101393
101410
101425
101435
101437
101435
101431
101425
101418
101409
101400
101392
101383
101373
101360
101348
101337
101333
100926
100926
100927
100928
100930
100932
100934
100937
100940
100944
100949
100954
100960
100967
100974
100983
100992
101002
101012
101022
101031
101037
101039
101035
101026
101021
101037
101069
101107
101142
101178
101218
101262
101309
101352
101386
101413
101435
101452
101461
101462
101456
101448
101438
101428
101418
101407
101396
101385
101374
101362
101348
101334
101328
100926
100926
100927
100928
100930
100932
100934
100937
100940
100944
100949
100954
100960
100967
100974
100983
100992
101002
101012
101022
101031
101037
101039
101034
101025
101021
101038
101071
101107
101142
101179
101220
101265
101311
101352
101386
101413
101435
101454
101464
101464
101459
101450
101440
101430
101419
101408
101397
101387
101376
101362
101349
101332
101332
100920
100920
100921
100922
100923
100925
100927
100930
100933
100936
100940
100945
100950
100957
100964
100972
100981
100992
101003
101014
101024
101030
101028
101012
100978
100959
100982
101029
101076
101117
101158
101204
101253
101304
101353
101396
101432
101462
101483
101493
101490
101480
101466
101453
101440
101426
101413
101400
101388
101376
101362
101349
101333
101329
100920
100920
100921
100922
100923
100925
100927
100930
100933
100936
100940
100945
100950
100957
100964
100972
100981
100992
101003
101014
101024
101030
101028
101011
100976
100959
100983
101030
101076
101117
101158
101204
101254
101305
101353
101395
101432
101462
101484
101494
101492
101482
101468
101454
101441
101428
101414
101401
101389
101377
101363
101349
101329
101335
100914
100914
100914
100915
100916
100918
100919
100922
100924
100927
100931
100935
100940
100946
100952
100960
100970
100981
100994
101008
101022
101032
101028
100995
100914
100876
100913
100979
101039
101084
101129
101179
101235
101293
101351
101405
101454
101493
101519
101528
101521
101504
101485
101467
101450
101433
101417
101402
101388
101375
101362
101349
101331
101331
100914
100914
100914
100915
100916
100918
100919
100922
100924
100927
100931
100935
100940
100946
100952
100960
100970
100981
100994
101008
101022
101032
101028
100992
100907
100874
100918
100983
101040
101084
101129
101179
101235
101293
101351
101405
101455
101494
101522
101529
101521
101504
101486
101469
101451
101434
101417
101402
101389
101376
101362
101348
101328
101331
100907
100907
100908
100908
100909
100910
100911
100913
100915
100918
100920
100924
100928
100933
100939
100947
100956
100968
100983
101002
101027
101055
101069
101008
100824
100729
100817
100929
100999
101042
101089
101145
101208
101274
101343
101411
101476
101527
101566
101573
101556
101528
101501
101479
101457
101436
101417
101402
101388
101374
101360
101347
101329
101332
100907
100907
100908
100908
100909
100910
100911
100913
100915
100918
100920
100924
100928
100933
100939
100947
100956
100968
100983
101002
101027
101055
101070
101006
100806
100733
100826
100929
100998
101043
101089
101145
101207
101274
101343
101409
101476
101528
101582
101585
101560
101526
101497
101475
101454
101434
101416
101401
101387
101374
101360
101347
101331
101329
100900
100900
100901
100901
100902
100902
100903
100904
100906
100907
100910
100912
100916
100920
100925
100931
100940
100951
100966
100989
101026
101091
101157
101147
100586
100488
100653
100881
100970
100994
101036
101099
101168
101243
101324
101408
101492
101552
101622
101633
101593
101541
101504
101480
101457
101434
101414
101397
101384
101371
101359
101347
101333
101331
100900
100900
100901
100901
100902
100902
100903
100904
100906
100907
100910
100912
100916
100920
100925
100931
100940
100951
100966
100989
101026
101090
101154
101136
100514
100552
100705
100887
100967
100997
101039
101100
101169
101243
101327
101413
101504
101537
101618
101633
101587
101533
101501
101479
101456
101433
101413
101397
101382
101370
101358
101347
101335
101329
100893
100893
100893
100894
100894
100894
100895
100895
100896
100897
100898
100900
100902
100905
100908
100913
100920
100929
100942
100961
100991
101039
101156
101442
100433
100628
100855
100937
100939
100967
101028
101101
101185
101283
101390
101505
101550
101630
101687
101632
101553
101506
101479
101452
101427
101405
101388
101374
101362
101352
101343
101334
101327
100893
100893
100893
100894
100894
100894
100895
100895
100896
100897
100898
100900
100902
100905
100908
100913
100920
100929
100942
100961
100991
101038
101154
101429
100403
100643
100861
100939
100945
100974
101033
101104
101187
101275
101398
101516
101515
101513
101659
101620
101552
101508
101478
101449
101424
101403
101387
101374
101362
101352
101343
101335
101327
100886
100886
100886
100886
100886
100886
100886
100886
100886
100886
100886
100887
100888
100889
100891
100893
100897
100902
100909
100918
100926
100924
100886
100814
100525
100532
100808
100956
100955
100918
100919
100953
101007
101085
101187
101298
101427
101469
101541
101729
101674
101585
101518
101470
101433
101405
101385
101370
101357
101348
101341
101335
101330
101324
100886
100886
100886
100886
100886
100886
100886
100886
100886
100886
100886
100887
100888
100889
100891
100893
100897
100902
100909
100917
100926
100923
100884
100803
100520
100580
100835
100957
100948
100917
100923
100959
101009
101076
101131
101293
101314
101557
101497
101542
101577
101555
101514
101469
101431
101404
101385
101370
101358
101348
101341
101335
101330
101324
100879
100879
100879
100879
100878
100878
100877
100876
100876
100875
100874
100873
100873
100872
100872
100872
100872
100872
100872
100871
100865
100847
100814
100748
100677
100686
100829
100905
100908
100895
100889
100891
100906
100959
101112
101274
101262
101486
101782
101620
101585
101555
101495
101437
101396
101372
101357
101346
101338
101332
101329
101327
101326
101321
100879
100879
100879
100879
100878
100878
100877
100876
100876
100875
100874
100873
100873
100872
100872
100872
100872
100872
100872
100871
100864
100847
100813
100748
100673
100693
100829
100899
100902
100892
100887
100892
100903
100933
100976
101190
101020
101454
101910
100993
101398
101531
101498
101444
101399
101372
101357
101346
101338
101332
101329
101327
101326
101322
100872
100872
100872
100871
100870
100869
100868
100867
100865
100864
100862
100860
100857
100855
100852
100849
100846
100842
100836
100828
100817
100798
100772
100733
100686
100679
100724
100773
100803
100819
100824
100816
100798
100787
100881
101143
102170
101486
100684
100962
101422
101518
101461
101397
101355
101336
101326
101320
101316
101316
101317
101319
101322
101320
100872
100872
100872
100871
100870
100869
100868
100867
100865
100864
100862
100860
100857
100855
100852
100849
100846
100842
100836
100828
100816
100798
100771
100732
100686
100681
100724
100771
100801
100816
100821
100815
100801
100721
100849
101154
101693
99889.4
100349
99789.6
100476
101354
101457
101406
101360
101336
101326
101320
101316
101316
101317
101319
101322
101321
100866
100865
100865
100864
100863
100861
100860
100858
100855
100853
100850
100846
100842
100838
100833
100827
100820
100812
100802
100790
100774
100753
100725
100691
100656
100638
100648
100674
100696
100711
100716
100710
100614
100650
100718
99869.1
99470
99235.3
99229.6
99682.1
100506
101272
101382
101317
101292
101287
101286
101287
101291
101297
101304
101310
101317
101319
100866
100865
100865
100864
100863
100861
100860
100858
100855
100853
100850
100846
100842
100838
100833
100827
100820
100812
100802
100790
100774
100752
100725
100691
100656
100640
100650
100675
100695
100708
100716
100716
100718
100724
100661
100317
102538
99867.7
99409.1
99346
99912.7
100788
101302
101323
101288
101282
101284
101287
101291
101297
101304
101311
101318
101320
100859
100859
100858
100857
100856
100854
100851
100849
100846
100842
100838
100833
100827
100821
100814
100805
100795
100784
100770
100753
100733
100708
100679
100646
100614
100591
100583
100584
100585
100589
100591
100619
100387
100593
101075
100792
99298.2
99147.9
99414.1
99689.8
100122
100747
101131
101184
101212
101228
101240
101253
101266
101279
101290
101301
101312
101318
100859
100859
100858
100857
100856
100854
100851
100849
100846
100842
100838
100833
100827
100821
100814
100805
100795
100784
100770
100753
100733
100708
100679
100646
100615
100592
100584
100584
100583
100583
100581
100623
100580
100639
100971
100470
100753
99568.4
99607.2
99800.1
100275
100737
100988
101119
101199
101228
101241
101254
101267
101279
101290
101301
101312
101317
100853
100853
100852
100851
100849
100846
100844
100840
100836
100832
100826
100820
100813
100805
100795
100784
100772
100757
100739
100719
100695
100666
100634
100599
100563
100530
100502
100479
100457
100453
100472
100712
100518
99722
100038
100388
99508.5
99352.8
99566.5
99832.7
100080
100352
100908
101069
101147
101177
101198
101221
101242
101261
101277
101292
101308
101316
100853
100853
100852
100851
100849
100846
100844
100840
100836
100832
100826
100820
100813
100805
100795
100784
100772
100757
100739
100719
100695
100666
100634
100599
100563
100530
100502
100478
100452
100430
100397
100444
100680
99994.4
97140.2
98062.9
99181.1
99344.6
99632.4
99932.7
100276
100491
100780
101017
101138
101178
101200
101222
101243
101261
101277
101292
101307
101316
100847
100847
100846
100845
100842
100840
100836
100832
100827
100822
100815
100808
100799
100789
100778
100765
100749
100732
100711
100687
100658
100626
100589
100548
100503
100456
100407
100357
100306
100277
100341
100541
100839
99947.7
99179
99230.2
99279.1
99392
99462.4
99551.6
99824.3
100125
100610
100974
101096
101135
101162
101192
101220
101243
101264
101282
101303
101313
100847
100847
100846
100845
100842
100840
100836
100832
100827
100822
100815
100808
100799
100789
100778
100765
100749
100732
100711
100687
100658
100626
100589
100548
100503
100456
100407
100356
100298
100249
100170
100404
100606
100023
98237.4
98763.9
99222.4
99416.4
99478.2
99564.8
99908.9
100233
100580
100938
101085
101132
101163
101192
101220
101244
101264
101282
101303
101314
100842
100842
100841
100839
100837
100833
100830
100825
100819
100813
100806
100797
100787
100775
100762
100747
100729
100708
100684
100657
100624
100587
100545
100496
100441
100378
100307
100218
100122
99918.4
100125
100099
100592
94317.7
96117.4
98392.6
99223.9
99511.7
99384
99263.6
99550.8
100027
100525
100867
101011
101078
101123
101164
101200
101228
101252
101272
101296
101309
100842
100842
100841
100839
100837
100833
100830
100825
100819
100813
100806
100797
100787
100775
100762
100747
100729
100708
100684
100657
100624
100587
100545
100496
100441
100378
100307
100222
100118
99980.1
99877.4
99976.5
98610.9
98516.7
98558.8
98931.8
99413
99597.9
99389.2
99219.1
99562
100098
100553
100860
101004
101074
101123
101165
101200
101229
101253
101273
101295
101307
100838
100837
100836
100834
100831
100828
100824
100818
100812
100805
100797
100787
100776
100763
100748
100731
100711
100688
100661
100630
100593
100551
100503
100446
100380
100301
100208
100087
99932.1
99639.4
99221.6
100408
96777.4
94860.6
96827.6
98784.9
99820.2
100034
99614.8
99274.2
99513.3
99992.7
100441
100751
100915
101022
101088
101143
101186
101219
101247
101269
101292
101304
100838
100837
100836
100834
100831
100828
100824
100818
100812
100805
100797
100787
100776
100763
100748
100731
100711
100688
100661
100630
100593
100551
100503
100446
100379
100301
100207
100097
99941
99715.6
99436.1
99134.4
97538
96328.4
97943.4
99204.7
100018
100128
99618.9
99228.9
99505.8
100063
100503
100754
100910
101015
101087
101143
101186
101219
101247
101270
101293
101304
100834
100834
100832
100830
100827
100823
100818
100813
100806
100798
100789
100779
100766
100752
100736
100717
100695
100670
100640
100606
100566
100519
100465
100400
100324
100232
100119
99977
99785.9
99521.9
99049.5
98835.5
100308
100206
99834.8
100337
100911
100770
99988.8
99337.4
99450.2
99902.3
100329
100651
100850
100980
101065
101132
101181
101216
101245
101270
101297
101304
100834
100834
100832
100830
100827
100823
100819
100813
100806
100798
100789
100779
100766
100752
100736
100717
100695
100670
100640
100606
100566
100519
100465
100400
100323
100231
100113
99979.9
99811.2
99594.2
99316.7
98699.8
97997.5
98616.8
99548.7
100466
101080
100852
99990.7
99297.9
99433
99950.9
100377
100651
100842
100972
101060
101131
101180
101215
101244
101270
101299
101308
100831
100831
100829
100827
100823
100819
100814
100808
100801
100793
100783
100772
100759
100744
100726
100706
100682
100655
100623
100586
100543
100493
100433
100362
100278
100175
100049
99895.1
99687.9
99424.1
99020.9
98552.5
98922.6
99823.9
99734.8
100214
100934
100918
100177
99345.7
99363.1
99828.8
100306
100628
100818
100950
101053
101130
101180
101214
101242
101268
101297
101305
100831
100831
100829
100827
100823
100819
100814
100808
100801
100793
100783
100772
100759
100744
100726
100706
100682
100655
100623
100586
100543
100493
100433
100362
100277
100169
100047
99895.5
99691.8
99434.5
99212.8
98392
98294.3
99087.1
99695
100515
101072
100919
100191
99372.2
99339
99836.3
100329
100639
100818
100945
101045
101127
101180
101213
101240
101264
101296
101312
100829
100828
100826
100824
100821
100816
100811
100805
100797
100789
100778
100766
100753
100737
100718
100697
100672
100643
100610
100571
100525
100472
100408
100333
100243
100135
100003
99838.6
99625.9
99358.4
99039.5
98581
98370.2
98635.1
98216.8
98987.2
99911.3
100360
100224
99711.4
99611.9
99987.9
100413
100713
100850
100963
101067
101140
101186
101218
101241
101257
101279
101302
100829
100828
100826
100824
100821
100816
100811
100805
100797
100789
100778
100766
100753
100737
100718
100697
100672
100643
100610
100571
100525
100472
100408
100333
100243
100134
100009
99843.6
99619.2
99347.7
99014.3
98545
98429.9
98589.4
98912.4
99455.7
99608.4
99965
100056
99778.8
99652.2
99965.2
100406
100728
100873
100963
101059
101139
101187
101215
101239
101255
101274
101304
100827
100827
100825
100822
100819
100815
100809
100803
100795
100786
100775
100763
100749
100732
100713
100691
100665
100635
100601
100560
100513
100457
100392
100313
100220
100108
99970.9
99802.3
99592.2
99333.6
99039
98677.2
98372.9
97975.6
97294.3
97229.2
96703.5
96772.6
97219.2
98385.1
99278.5
100077
100526
100814
100974
101081
101156
101200
101228
101246
101256
101258
101258
101291
100827
100827
100825
100822
100819
100815
100809
100803
100795
100786
100775
100763
100749
100732
100713
100691
100665
100635
100601
100560
100513
100457
100392
100313
100220
100108
99972.8
99808.3
99592.8
99319.4
99045.5
98698.8
98359.9
98125.9
97724.2
97051.6
96239.2
96368.9
96959.6
98230.4
99346.1
100084
100523
100810
100972
101082
101155
101201
101226
101243
101259
101262
101260
101291
100826
100825
100824
100821
100818
100813
100808
100801
100793
100784
100773
100761
100746
100730
100710
100688
100662
100631
100596
100555
100507
100450
100383
100303
100208
100093
99954.3
99784.8
99577.8
99328.8
99040
98699.8
98297.3
97878.5
97397.6
96403.8
94644.3
93965.1
94504.6
96246.4
98169.3
99477.4
100197
100592
100883
101086
101180
101218
101240
101254
101258
101257
101248
101274
100826
100826
100824
100821
100818
100813
100808
100801
100793
100784
100773
100761
100746
100730
100710
100688
100662
100631
100596
100555
100507
100450
100383
100303
100208
100094
99954.9
99786.8
99579.2
99329.1
99049.2
98746.1
98428.4
97955.2
97016.9
95725.1
94655.5
94129.3
94585.7
96155.8
98091.9
99476.5
100204
100584
100856
101072
101184
101217
101236
101254
101260
101260
101257
101291
100673
101141
100627
101553
101561
100594
100529
100572
100463
100429
100611
101135
100570
101557
101520
100563
100449
100549
100419
100398
101446
100877
100559
100867
100495
100514
100441
100535
100391
100465
100384
101414
100863
100478
100862
100471
100420
100406
100442
100393
100435
100412
100928
101006
100922
101049
100922
101046
100915
100764
100815
100757
100724
100651
100703
100632
100915
101004
100911
101042
100888
101042
100872
100754
100803
100752
100667
100613
100648
100610
101219
101156
101218
101206
101353
101206
101355
100531
100665
100579
100674
100551
100572
100524
100606
100412
100430
100393
100435
101214
101153
101213
101205
101344
101201
101350
100439
100601
100486
100576
100443
100627
100558
100637
100390
100454
100410
100500
101248
101156
101249
101027
101013
101026
101009
100675
101454
101147
101145
100721
100443
100475
100459
100406
100460
100425
100485
100420
100492
101241
101152
101246
101024
101005
101023
101006
100659
101427
101135
100666
101134
100400
100403
100473
100416
100501
100440
100514
100466
100536
100673
100809
100666
100777
100682
100777
100683
100381
100522
100417
100590
100566
100593
100579
100657
100803
100656
100776
100683
100776
100684
100452
100520
100460
100597
100590
100599
100593
100994
100900
100663
100895
101030
100993
100650
100878
100889
100979
101373
101466
101567
101473
101387
101159
101198
101374
101476
101563
101473
101381
101160
101159
100503
100555
100617
100644
100448
100535
100551
100532
100465
100455
100461
100544
100511
100461
100517
100439
100435
100446
100466
100976
100857
100592
100844
100979
100974
100572
100838
100827
100970
101392
101476
101550
101391
101481
101203
101201
101391
101468
101537
101470
101363
101227
101156
100403
100465
100523
100555
100322
100448
100458
100444
100435
100403
100458
100424
100425
100371
100445
100429
100396
100418
100448
100344
100398
100671
101450
101143
101141
100667
100339
100328
100377
100655
100542
100651
100429
100372
100519
100625
100356
100638
100458
100496
100476
100450
100488
100423
100406
100436
100461
100400
100415
100410
100438
100512
100524
100510
100452
100427
100497
100464
100419
100492
100320
100328
100651
101425
101134
101138
100677
100312
100352
100344
100616
100463
100355
100608
100332
100462
100600
100605
100374
100403
100405
100386
100406
100386
100406
100410
100406
100401
100395
100388
100402
100402
100441
100423
100414
100429
100395
100422
100430
100426
100384
101208
101066
101145
101289
101062
101291
101215
101181
101038
101134
101277
101032
101173
101284
101206
101143
101053
101286
101058
101289
101202
100579
100630
100590
100480
100625
100484
100583
100549
100582
100580
100478
100603
100484
100507
101195
101142
101048
101304
101045
101296
101201
100502
100570
100551
100473
100558
100499
100461
100505
100546
100544
100461
100550
100463
100487
100784
100956
100791
100874
100950
100789
100791
100776
100945
100870
100777
100945
100774
100783
100400
100403
100427
100382
100386
100420
100412
100381
100372
100376
100415
100372
100379
100416
100762
100941
100772
100860
100768
100938
100767
100754
100945
100862
100760
100943
100764
100757
100378
100371
100409
100401
100378
100375
100405
100373
100383
100409
100385
100380
100390
100371
100515
100616
100400
100546
100631
100480
100441
100258
100144
100111
100274
100261
100082
100098
100228
100501
100547
100620
100444
100627
100450
100493
100331
100535
100445
100161
100542
100311
100192
100043
99947.2
100079
99919.9
100344
100445
100539
100232
100366
100538
100214
100014
99866.2
99894.5
99983.5
101122
100897
100921
100679
100895
101119
100925
101356
101591
101604
101364
101348
101587
101591
101344
101135
100678
100940
100931
100910
100930
101132
100453
100468
101120
100892
100659
100912
100890
101117
100909
101352
101595
101593
101342
101346
101591
101590
101331
101122
100661
100900
100916
101119
100896
100911
100399
100400
100522
100932
100554
100996
100937
100516
100559
100323
100181
100154
100346
100312
100124
100131
100307
100515
100997
100938
100599
100938
100555
100581
100504
100928
100549
100991
100511
100924
100540
100269
100032
100061
100247
100284
100106
100299
100082
100494
100987
100909
100508
100920
100525
100475
101605
101432
101582
101371
101431
101580
101603
101672
101664
101678
101659
101662
101661
101667
101658
101615
101381
101431
101591
101436
101596
101594
101157
101165
101607
101431
101379
101585
101435
101603
101589
101667
101674
101680
101664
101612
101382
101436
101612
101437
101591
101624
101663
101661
101659
101663
101161
101156
100414
100593
100348
100481
100446
100574
100308
100128
99971.3
100104
99999.2
100146
100050
100184
100019
100392
100456
100539
100261
100378
100548
100282
100543
100545
100489
100519
100502
100539
100523
100502
100488
100495
100525
100533
100495
100485
100506
100480
100521
100496
100539
100527
100512
100526
100505
100497
100489
100468
100475
100508
100498
100493
100497
100479
100484
100459
100457
100453
100465
100465
100480
100474
100463
100484
100474
100456
100464
100485
100469
100472
100439
100872
100985
100501
100889
100418
100506
100215
100013
99996.7
100226
100439
100980
100893
100521
100887
100451
100507
100209
99951.8
99976.8
100191
100374
100853
100502
100971
100382
100850
100504
100163
99988.5
99925.5
100222
100160
99939.6
100173
99917.7
100370
100933
100853
100510
100843
100475
100453
101671
101403
101431
101732
101437
101674
101676
101731
101690
101689
101708
101669
101404
101428
101683
101428
101660
101683
101727
101700
101691
101735
101196
101209
101627
101415
101701
101377
101412
101638
101691
101730
101629
101698
101641
101712
101682
101709
101694
101634
101364
101412
101667
101416
101750
101603
101215
101166
100275
100518
100099
100363
100283
100511
100059
99896.3
99898.3
99817.1
99964.5
99930.7
99848.8
99953.8
99818
100216
100322
100447
100026
100474
100023
100227
100454
100458
100425
100447
100442
100436
100449
100440
100421
100440
100452
100449
100442
100437
100451
100466
100454
100447
100457
100446
100429
100422
100422
100431
100392
100366
100424
100442
100431
100448
100455
100418
100433
100425
100414
100413
100430
100422
100416
100416
100416
100428
100440
100455
100440
100457
100433
100429
100349
100345
101120
100897
100917
100671
101117
100896
100919
101342
101586
101338
101584
101345
101587
101342
101588
101122
100670
100893
100920
101120