/*--------------------------------*- C++ -*----------------------------------*\
| =========                 |                                                 |
| \\      /  F ield         | OpenFOAM: The Open Source CFD Toolbox           |
|  \\    /   O peration     | Version:  4.1                                   |
|   \\  /    A nd           | Web:      www.OpenFOAM.org                      |
|    \\/     M anipulation  |                                                 |
\*---------------------------------------------------------------------------*/
FoamFile
{
    version     2.0;
    format      ascii;
    class       volVectorField;
    location    "95";
    object      U;
}
// * * * * * * * * * * * * * * * * * * * * * * * * * * * * * * * * * * * * * //

dimensions      [0 1 -1 0 0 0 0];

internalField   nonuniform List<vector> 
4432
(
(39.9819 1.92399e-05 0.0497621)
(39.9198 4.91581e-05 0.0880964)
(39.8253 0.000106849 0.115072)
(39.6953 0.000131472 0.14101)
(39.53 0.000137029 0.168186)
(39.33 0.000154777 0.196841)
(39.0942 0.000173316 0.227215)
(38.8216 0.000172405 0.258749)
(38.5106 0.000165222 0.291396)
(38.1607 0.000150365 0.324577)
(37.7721 0.000137448 0.356465)
(37.3464 0.000177159 0.387609)
(36.8872 -1.26106e-05 0.411807)
(36.411 -0.000105377 0.429233)
(35.9219 -0.0028705 0.4212)
(35.532 -0.00686125 0.367655)
(35.2055 -0.0059379 0.413595)
(35.0866 -0.00351113 0.333948)
(35.1685 -0.00173532 0.254268)
(35.1391 0.00198362 0.397354)
(34.9054 -0.00132321 0.49888)
(34.5507 -0.0112467 0.621085)
(34.0907 -0.021733 0.695044)
(33.5632 -0.0307571 0.684239)
(32.9699 -0.0378073 0.667245)
(32.3338 -0.0435842 0.546938)
(31.7361 -0.0403926 0.356805)
(31.1992 -0.0273767 0.160381)
(30.7535 -0.0210303 0.0984894)
(30.377 -0.0297354 0.148966)
(29.9971 -0.0531197 0.328458)
(29.5178 -0.0801785 0.655358)
(28.8448 -0.0902459 0.847279)
(28.039 -0.0658747 0.562058)
(27.3461 -0.0238128 -0.139278)
(26.7754 0.005363 -0.521728)
(26.291 0.016176 -0.46414)
(25.809 0.0145002 -0.386045)
(25.3791 0.00777427 -0.317545)
(25.0761 0.00244709 -0.249784)
(24.9129 0.00342307 -0.265392)
(24.7986 0.0106952 -0.380658)
(24.7166 0.0167343 -0.384464)
(24.6719 0.0228998 -0.369257)
(24.6761 0.0298003 -0.381659)
(24.7367 0.0325018 -0.391375)
(24.8544 0.0339089 -0.394363)
(25.0055 0.0391693 -0.38867)
(25.2086 0.0453207 -0.373716)
(25.4226 0.0623249 -0.405906)
(25.7274 0.0581811 -0.311427)
(26.0246 0.037557 -0.187754)
(26.235 0.02338 -0.217653)
(26.6351 0.0237922 -0.200259)
(39.982 1.92403e-05 0.0497654)
(39.9198 4.915e-05 0.0881206)
(39.8252 0.00010685 0.115182)
(39.6952 0.000131528 0.141093)
(39.5299 0.000137105 0.16818)
(39.3299 0.000154834 0.196845)
(39.0941 0.00017339 0.227124)
(38.8215 0.000172614 0.258586)
(38.5105 0.000165031 0.291236)
(38.1607 0.000149467 0.324286)
(37.7721 0.000136396 0.356421)
(37.3463 0.000175904 0.387427)
(36.8873 -1.33519e-05 0.412819)
(36.4058 -0.000108574 0.429589)
(35.9195 -0.00285506 0.428153)
(35.482 -0.00692426 0.377792)
(35.1499 -0.00601413 0.363963)
(35.0694 -0.00354273 0.289614)
(35.1563 -0.00172631 0.246405)
(35.1555 0.0018862 0.408633)
(34.9242 -0.00143258 0.485096)
(34.5676 -0.0113204 0.538842)
(34.1184 -0.0218518 0.577453)
(33.588 -0.0311669 0.568751)
(32.9767 -0.03862 0.558157)
(32.306 -0.0453403 0.428078)
(31.6522 -0.0438547 0.251771)
(31.0717 -0.0316119 0.135521)
(30.5679 -0.0257667 0.0726331)
(30.1048 -0.0365346 -0.00589871)
(29.7128 -0.0612708 -0.0982088)
(29.2822 -0.0942366 -0.0754206)
(28.7332 -0.108945 0.168709)
(27.9586 -0.0876466 0.394875)
(27.2048 -0.041273 0.203388)
(26.4991 -0.00912098 -0.0681813)
(25.9101 0.00496409 -0.0355959)
(25.3489 0.00582811 -0.0793084)
(24.8596 0.00170625 -0.0848261)
(24.4616 -0.000447739 -0.0572411)
(24.2174 0.00241472 -0.056782)
(24.0288 0.0104212 -0.110761)
(23.881 0.0181892 -0.107441)
(23.7865 0.0258925 -0.124696)
(23.7753 0.0337657 -0.149431)
(23.8406 0.0378835 -0.197215)
(23.9749 0.0392337 -0.168969)
(24.1751 0.0435797 -0.118545)
(24.4183 0.0520117 -0.0780586)
(24.6418 0.0702316 -0.132584)
(25.1874 0.0503205 -0.221571)
(25.5734 0.0293122 -0.194386)
(25.8375 0.0152437 -0.224785)
(26.3154 0.0175041 -0.155411)
(40.0073 1.87006e-05 0.0168259)
(40.0323 4.71489e-05 0.051987)
(40.0585 9.96369e-05 0.0887002)
(40.0816 0.000118778 0.125747)
(40.1021 0.000127754 0.16335)
(40.1211 0.000151927 0.202008)
(40.1386 0.000181201 0.241973)
(40.1532 0.000197621 0.283339)
(40.1637 0.000192427 0.326157)
(40.169 0.000189345 0.370278)
(40.1676 0.000195068 0.415178)
(40.1558 0.000154833 0.459133)
(40.1299 0.000324917 0.499821)
(40.073 0.000237265 0.527542)
(39.9858 0.00362548 0.547734)
(39.7338 0.00562254 0.521633)
(39.441 0.00738882 0.405297)
(38.7802 0.00729547 0.328144)
(37.8639 -0.000691962 0.368238)
(37.0919 -0.00275992 0.425695)
(36.4293 6.64834e-05 0.495407)
(35.8417 0.00356535 0.583868)
(35.3324 0.00681674 0.675403)
(34.8415 0.00960777 0.775687)
(34.3665 0.0110588 0.855593)
(33.8974 0.0124497 0.876558)
(33.4173 0.0141461 0.851318)
(32.9003 0.0203262 0.820262)
(32.2955 0.0330831 0.784513)
(31.6772 0.0395216 0.740777)
(31.0661 0.0412996 0.746614)
(30.4541 0.0386744 0.866755)
(29.9307 0.0309292 0.960654)
(29.5318 0.0145962 0.943539)
(29.1845 -0.013159 0.911819)
(28.8475 -0.0519969 0.994564)
(28.5369 -0.0888965 1.05379)
(28.2287 -0.109715 1.0277)
(27.8911 -0.104606 0.905927)
(27.5402 -0.0813456 0.686923)
(27.2177 -0.0759427 0.490798)
(27.0491 -0.094167 0.403649)
(26.9036 -0.109739 0.34272)
(26.7718 -0.123003 0.260434)
(26.7193 -0.13301 0.169332)
(26.7459 -0.138915 0.0852547)
(26.8204 -0.146022 0.0153262)
(26.9296 -0.148113 -0.0476849)
(26.9914 -0.147274 -0.0958586)
(27.1599 -0.197208 -0.113067)
(27.2429 -0.160531 -0.293594)
(27.4465 -0.121447 -0.380676)
(27.6847 -0.0897047 -0.406791)
(28.0178 -0.0570169 -0.404372)
(40.0073 1.87005e-05 0.0168245)
(40.0323 4.71489e-05 0.0519873)
(40.0585 9.96374e-05 0.0886959)
(40.0816 0.00011878 0.125737)
(40.1021 0.000127756 0.163343)
(40.1212 0.000151935 0.202005)
(40.1386 0.000181186 0.241977)
(40.1531 0.000197715 0.283339)
(40.1636 0.000192085 0.326166)
(40.1687 0.000188437 0.370261)
(40.1675 0.000192394 0.41513)
(40.1557 0.000157885 0.459288)
(40.1295 0.000302624 0.499642)
(40.0775 0.000323233 0.530485)
(39.9861 0.00325216 0.540797)
(39.804 0.00542109 0.511346)
(39.496 0.00794782 0.422897)
(38.8184 0.00750639 0.31825)
(37.881 -0.000695523 0.352222)
(37.0861 -0.0025879 0.416606)
(36.4415 0.000167904 0.476029)
(35.8587 0.00370539 0.553776)
(35.3495 0.00709214 0.631173)
(34.8672 0.010253 0.715995)
(34.4031 0.0120781 0.788475)
(33.9567 0.0144215 0.807571)
(33.4931 0.0180743 0.814697)
(32.9835 0.0239414 0.822788)
(32.4476 0.0335438 0.784459)
(31.9227 0.0449108 0.70215)
(31.3443 0.0572795 0.670856)
(30.6679 0.0672916 0.767618)
(30.0167 0.0551945 0.842068)
(29.5625 0.0300026 0.858095)
(29.2284 -0.00843791 0.846018)
(28.9981 -0.0532076 0.888513)
(28.7903 -0.0926451 0.924366)
(28.5865 -0.114126 0.905448)
(28.3548 -0.115032 0.817595)
(28.1855 -0.103187 0.659474)
(28.0068 -0.0954675 0.480125)
(27.9331 -0.104666 0.376277)
(27.8557 -0.117226 0.305571)
(27.7848 -0.125861 0.221479)
(27.7479 -0.132822 0.12661)
(27.7689 -0.1364 0.0394254)
(27.8301 -0.141235 -0.0320489)
(27.8772 -0.14533 -0.107342)
(27.9175 -0.159363 -0.183955)
(27.9894 -0.188979 -0.229351)
(27.6721 -0.117683 -0.403439)
(27.8373 -0.0950657 -0.515508)
(28.0661 -0.0697202 -0.520634)
(28.334 -0.0384752 -0.524784)
(39.9994 1.82453e-05 0.0237913)
(39.9897 4.74461e-05 0.0678175)
(39.9633 0.000101471 0.10937)
(39.919 0.000121648 0.14931)
(39.8583 0.00012946 0.188989)
(39.7827 0.000152358 0.229318)
(39.6922 0.000177853 0.270833)
(39.5864 0.000185262 0.313887)
(39.4652 0.000174504 0.358778)
(39.3289 0.000163377 0.405634)
(39.1776 0.000159162 0.454392)
(39.0111 0.00019029 0.50475)
(38.8271 0.000246244 0.556398)
(38.6253 0.000581859 0.60873)
(38.3902 0.000800227 0.664816)
(38.1627 0.00217845 0.734193)
(37.8312 0.00266876 0.776897)
(37.4942 0.00438086 0.888981)
(37.1511 0.00215466 1.05098)
(36.7602 0.00166872 1.15787)
(36.3181 0.00276866 1.20459)
(35.8555 0.00478759 1.22398)
(35.4039 0.00752764 1.25402)
(34.95 0.0116321 1.29754)
(34.4914 0.0139634 1.34041)
(34.0203 0.0175952 1.33954)
(33.4998 0.0245225 1.30186)
(32.9039 0.0345473 1.28669)
(32.2116 0.0432109 1.23515)
(31.4722 0.0395119 1.20626)
(30.6599 0.0349241 1.31857)
(29.8249 0.0400807 1.48891)
(29.105 0.0586723 1.55859)
(28.4193 0.0873704 1.48578)
(27.7838 0.101751 1.20174)
(27.4654 0.023402 1.11679)
(27.0919 -0.0566365 1.1436)
(26.6947 -0.0830437 1.03867)
(26.2438 -0.0739261 0.930015)
(25.9493 -0.0356225 0.65256)
(25.7969 -0.0472856 0.509224)
(25.7408 -0.0861955 0.500871)
(25.6796 -0.108212 0.384971)
(25.6081 -0.114211 0.210844)
(25.6088 -0.116412 0.0466274)
(25.6825 -0.115285 -0.0917737)
(25.7981 -0.116786 -0.201911)
(25.9587 -0.115147 -0.294931)
(26.1406 -0.123163 -0.317566)
(26.4797 -0.102746 -0.492073)
(26.7391 -0.0516502 -0.537998)
(26.9176 -0.0366689 -0.488697)
(27.0624 -0.0366926 -0.482495)
(27.3926 -0.040265 -0.547722)
(39.9994 1.82452e-05 0.0237904)
(39.9897 4.74462e-05 0.0678145)
(39.9633 0.000101471 0.109367)
(39.919 0.000121648 0.149308)
(39.8583 0.000129461 0.188985)
(39.7827 0.00015236 0.229312)
(39.6922 0.000177858 0.270824)
(39.5863 0.000185261 0.313869)
(39.4651 0.000174532 0.358759)
(39.3288 0.000163259 0.405609)
(39.1776 0.000158674 0.45437)
(39.011 0.000189979 0.504773)
(38.8277 0.00024513 0.556325)
(38.6249 0.000582707 0.608631)
(38.3962 0.000799702 0.662468)
(38.1419 0.00214322 0.72679)
(37.8416 0.00235209 0.795184)
(37.5 0.00462559 0.893856)
(37.1494 0.00227362 1.04472)
(36.7657 0.00173539 1.14464)
(36.3305 0.00287174 1.18624)
(35.8749 0.0049693 1.1981)
(35.4309 0.00791355 1.21807)
(34.9786 0.0126566 1.27215)
(34.5139 0.0155163 1.321)
(34.0415 0.0197726 1.32613)
(33.5216 0.0277252 1.3196)
(32.9451 0.0386455 1.32743)
(32.3193 0.0483415 1.30223)
(31.6237 0.0504165 1.25484)
(30.7747 0.0448543 1.35883)
(29.9331 0.0469398 1.52579)
(29.2082 0.0694399 1.54481)
(28.6171 0.0933132 1.36555)
(28.1489 0.0850492 1.11552)
(27.7835 0.0319601 0.900459)
(27.4507 -0.0204747 0.74291)
(27.0932 -0.0471383 0.604701)
(26.733 -0.0439898 0.464282)
(26.4816 -0.0165629 0.233614)
(26.2519 -0.0263216 0.165369)
(26.1749 -0.0563707 0.114619)
(26.0945 -0.0752496 -0.018908)
(26.0034 -0.0845101 -0.182946)
(25.9755 -0.0888656 -0.337282)
(26.0264 -0.0886916 -0.466927)
(26.116 -0.0887595 -0.572763)
(26.2406 -0.0879198 -0.625522)
(26.3965 -0.0918866 -0.694412)
(26.6468 -0.0730062 -0.788046)
(26.8629 -0.0449439 -0.684157)
(27.0364 -0.0348051 -0.58574)
(27.2094 -0.0323015 -0.540299)
(27.5003 -0.0343344 -0.686855)
(39.9991 1.78164e-05 0.0299735)
(39.9882 4.42232e-05 0.0877973)
(39.9618 9.67646e-05 0.146165)
(39.9185 0.000116609 0.205579)
(39.8589 0.000123541 0.266616)
(39.7836 0.000145611 0.329589)
(39.6918 0.000170521 0.394687)
(39.5823 0.000178277 0.462039)
(39.4543 0.00016962 0.531766)
(39.3071 0.000160417 0.603906)
(39.1397 0.000160571 0.67845)
(38.9509 0.00018908 0.755459)
(38.7386 0.000216813 0.835153)
(38.5012 0.000382729 0.918781)
(38.2336 0.000400431 1.00897)
(37.9434 0.00149174 1.10953)
(37.6128 0.00165205 1.24468)
(37.2125 0.00153104 1.31278)
(36.8546 0.00178024 1.37389)
(36.5206 0.0026943 1.45798)
(36.1659 0.00375678 1.54417)
(35.7849 0.00412588 1.60246)
(35.3679 0.00424563 1.66035)
(34.8967 0.00525606 1.7326)
(34.394 0.00426978 1.81695)
(33.8541 0.00400519 1.86684)
(33.22 0.00854489 1.90989)
(32.4923 0.0144702 2.00606)
(31.6575 0.0131994 2.10085)
(30.641 0.0115584 2.18706)
(29.5731 0.0133241 2.33768)
(28.6588 0.0210745 2.40229)
(27.8681 0.0384654 2.32144)
(27.1853 0.0637078 1.98)
(26.9337 0.0652208 1.41386)
(26.8745 -0.0160345 1.50184)
(26.5977 -0.0801621 1.70012)
(26.1275 -0.0976286 1.64598)
(25.5166 -0.0779517 1.37658)
(25.1354 -0.0242527 0.839814)
(24.9267 -0.0346015 0.642524)
(24.8963 -0.0626026 0.67041)
(24.8157 -0.0782991 0.593262)
(24.7538 -0.0737567 0.383648)
(24.7841 -0.0660953 0.189771)
(24.895 -0.0598953 0.0277546)
(25.0359 -0.0570278 -0.110894)
(25.2201 -0.0469962 -0.217805)
(25.4252 -0.0480829 -0.349692)
(25.6838 -0.0643586 -0.484376)
(26.0775 -0.0631709 -0.580972)
(26.3865 -0.0568259 -0.632493)
(26.6166 -0.0526698 -0.694506)
(27.0679 -0.0395372 -0.768365)
(39.9991 1.78164e-05 0.0299728)
(39.9883 4.42233e-05 0.0877946)
(39.9618 9.67648e-05 0.14616)
(39.9184 0.00011661 0.205572)
(39.8589 0.000123542 0.266607)
(39.7835 0.000145613 0.329578)
(39.6917 0.000170524 0.394675)
(39.5822 0.00017828 0.462027)
(39.4542 0.000169624 0.531756)
(39.307 0.000160428 0.603897)
(39.1396 0.000160563 0.678446)
(38.9509 0.00018917 0.755437)
(38.7388 0.0002164 0.835102)
(38.5011 0.000384509 0.918455)
(38.2355 0.000401286 1.0084)
(37.9417 0.00151409 1.10875)
(37.626 0.00153477 1.23994)
(37.2228 0.00147585 1.34)
(36.8595 0.00173826 1.37837)
(36.5284 0.00273113 1.44655)
(36.1754 0.00391901 1.52507)
(35.795 0.004414 1.57777)
(35.3641 0.00443705 1.63672)
(34.884 0.00504294 1.74174)
(34.3915 0.00411874 1.82767)
(33.8451 0.00385671 1.8913)
(33.1901 0.00960629 1.99326)
(32.4507 0.0164773 2.12807)
(31.6306 0.0150155 2.23709)
(30.6336 0.0130921 2.31563)
(29.6166 0.0138708 2.40349)
(28.7566 0.0203088 2.46321)
(28.0108 0.0364194 2.45103)
(27.3239 0.0713621 2.2201)
(26.9685 0.0834785 1.66422)
(26.8099 -0.00432075 1.37227)
(26.545 -0.0818276 1.25575)
(26.1711 -0.135773 1.12678)
(25.7493 -0.141844 1.00169)
(25.3748 -0.0706401 0.610703)
(25.1627 -0.0358733 0.404361)
(25.0674 -0.0525264 0.352873)
(24.9611 -0.0587616 0.184931)
(24.8715 -0.0549333 -0.0243947)
(24.8741 -0.0479778 -0.206258)
(24.9681 -0.0430276 -0.369018)
(25.1053 -0.0396112 -0.505166)
(25.2915 -0.0345414 -0.620472)
(25.5054 -0.0256554 -0.713818)
(25.8021 -0.0383431 -0.81817)
(26.1349 -0.056289 -0.859878)
(26.4412 -0.0625363 -0.880183)
(26.6769 -0.0695794 -0.945222)
(27.1761 -0.0589631 -1.01498)
(39.9991 1.76292e-05 0.0369988)
(39.9884 4.47939e-05 0.109208)
(39.9624 9.66799e-05 0.182735)
(39.92 0.000114995 0.257314)
(39.8618 0.000120569 0.333172)
(39.7883 0.000141706 0.410705)
(39.6989 0.000166112 0.490363)
(39.5925 0.000173463 0.57257)
(39.4683 0.000164579 0.657736)
(39.3256 0.000153508 0.74624)
(39.1637 0.000154079 0.838458)
(38.9813 0.000166534 0.93488)
(38.777 0.000207387 1.03623)
(38.5488 0.000236804 1.14402)
(38.2971 0.000451275 1.26036)
(38.0149 0.000464553 1.38976)
(37.7257 0.0019752 1.53441)
(37.3537 0.00384868 1.67784)
(36.9293 0.0036405 1.75239)
(36.5245 0.00398182 1.81341)
(36.1376 0.00550211 1.8955)
(35.7362 0.00456449 1.98075)
(35.2905 0.00209472 2.12174)
(34.764 -0.000761528 2.26248)
(34.1857 -0.00717415 2.39622)
(33.5277 -0.0110388 2.51926)
(32.7191 -0.00560497 2.65317)
(31.8308 0.0014792 2.8747)
(30.8586 -0.000323443 3.11345)
(29.7928 -0.00202075 3.26737)
(28.8013 0.00278103 3.29969)
(27.9478 0.0155008 3.19666)
(27.1944 0.0360422 2.88993)
(26.6302 0.071836 2.18173)
(26.603 0.106278 1.26648)
(26.4384 -0.0416023 1.37947)
(26.2373 -0.251143 2.21567)
(25.5952 -0.380037 2.69166)
(24.9067 -0.374122 2.64015)
(24.4102 -0.171929 1.59422)
(24.1427 -0.10373 0.948121)
(24.1906 -0.118305 0.818921)
(24.1359 -0.128992 0.606631)
(24.1248 -0.119696 0.294234)
(24.1946 -0.11231 0.0335532)
(24.3291 -0.108609 -0.186577)
(24.4912 -0.109637 -0.367705)
(24.7311 -0.101458 -0.563434)
(24.8835 -0.0807948 -0.7162)
(25.1588 -0.116649 -0.80585)
(25.4503 -0.132304 -0.941618)
(25.7525 -0.139307 -1.00087)
(25.9958 -0.153022 -1.01633)
(26.414 -0.132231 -1.02365)
(39.9991 1.76292e-05 0.0369979)
(39.9884 4.47939e-05 0.109203)
(39.9624 9.66802e-05 0.182727)
(39.9199 0.000114996 0.257304)
(39.8618 0.00012057 0.333161)
(39.7883 0.000141711 0.410693)
(39.6988 0.000166123 0.490349)
(39.5925 0.000173486 0.572556)
(39.4682 0.000164594 0.657722)
(39.3255 0.000153605 0.746224)
(39.1636 0.000153877 0.838442)
(38.9813 0.000167685 0.934851)
(38.777 0.000210776 1.0362)
(38.549 0.000240493 1.14388)
(38.2968 0.000465802 1.26021)
(38.0178 0.00044095 1.3891)
(37.7199 0.00211416 1.53463)
(37.3789 0.00350144 1.69191)
(36.9698 0.00331043 1.75656)
(36.5537 0.00402163 1.80755)
(36.1564 0.00610973 1.88813)
(35.7412 0.00592999 1.98207)
(35.2456 0.00217688 2.11927)
(34.7163 -0.00108522 2.25828)
(34.1537 -0.00740785 2.38993)
(33.4526 -0.0116146 2.54222)
(32.6468 -0.00481048 2.7361)
(31.8056 0.00273149 2.97458)
(30.8778 0.000557791 3.17757)
(29.8605 -0.00198543 3.30079)
(28.8944 0.00186604 3.31264)
(28.0549 0.0140394 3.2335)
(27.3602 0.0318796 3.0153)
(26.8693 0.0702555 2.48017)
(26.8167 0.144902 1.64028)
(26.7837 -0.014363 1.33688)
(26.5736 -0.321918 1.38905)
(26.0892 -0.511746 1.49647)
(25.4731 -0.606787 1.40824)
(24.9301 -0.509827 1.01133)
(24.6485 -0.193372 0.603004)
(24.6077 -0.120304 0.356735)
(24.5396 -0.101975 0.061158)
(24.5086 -0.0889998 -0.241301)
(24.581 -0.0843099 -0.499044)
(24.738 -0.0864642 -0.724985)
(24.9362 -0.090053 -0.920801)
(25.1695 -0.095844 -1.10247)
(25.3672 -0.0982483 -1.19732)
(25.6357 -0.115716 -1.42146)
(25.6861 -0.0842746 -1.40881)
(25.9248 -0.0866478 -1.37816)
(26.1575 -0.0959498 -1.39225)
(26.5114 -0.0546706 -1.43968)
(39.9991 1.69078e-05 0.0440187)
(39.9887 3.97462e-05 0.129961)
(39.9633 8.83444e-05 0.217644)
(39.9221 0.000106398 0.306818)
(39.8658 0.000112898 0.39785)
(39.7949 0.000134321 0.4913)
(39.7087 0.000158018 0.587747)
(39.6061 0.000164805 0.687691)
(39.4861 0.000155841 0.791592)
(39.3482 0.0001452 0.899888)
(39.1917 0.000145465 1.01301)
(39.0156 0.000158268 1.13146)
(38.8189 0.000189813 1.25599)
(38.6006 0.000218733 1.38765)
(38.361 0.000325677 1.52823)
(38.0995 0.000442292 1.68051)
(37.8232 0.00122408 1.84536)
(37.531 0.00334617 2.04079)
(37.1895 0.00597917 2.17809)
(36.7809 0.00664181 2.26548)
(36.3311 0.00720004 2.33754)
(35.8096 0.00332378 2.44369)
(35.2825 -0.00262247 2.61643)
(34.7536 -0.00792979 2.83771)
(34.1358 -0.0170925 3.08169)
(33.3793 -0.0197196 3.34513)
(32.402 -0.00942119 3.57947)
(31.3733 0.00487576 3.84558)
(30.3749 0.00734243 4.11258)
(29.3633 0.00545669 4.24196)
(28.4102 0.0101903 4.18104)
(27.5442 0.0280165 3.95648)
(26.6839 0.0639089 3.50525)
(25.9456 0.175599 2.58261)
(25.7059 0.38277 1.61192)
(21.9275 0.0228985 2.9154)
(22.1786 -0.364158 2.75679)
(22.087 -0.740266 2.49323)
(21.6936 -1.16254 2.56497)
(22.0207 -0.901991 1.23049)
(22.5541 -0.338437 0.997074)
(22.617 -0.471539 1.31344)
(22.6961 -0.395093 0.943038)
(22.8927 -0.327858 0.536292)
(23.1127 -0.306607 0.204072)
(23.316 -0.308157 -0.0787215)
(23.5334 -0.308203 -0.329995)
(23.741 -0.319835 -0.542611)
(24.0049 -0.301038 -0.709194)
(24.2101 -0.281514 -0.861629)
(24.3823 -0.256569 -0.980695)
(24.554 -0.237035 -1.04865)
(24.6822 -0.228255 -1.07213)
(24.8443 -0.201019 -1.0529)
(39.9991 1.69064e-05 0.0440176)
(39.9887 3.97534e-05 0.129957)
(39.9633 8.83153e-05 0.217636)
(39.9221 0.000106522 0.306809)
(39.8658 0.000112368 0.397839)
(39.7949 0.00013268 0.491288)
(39.7086 0.000156107 0.587733)
(39.606 0.000162858 0.687676)
(39.486 0.0001539 0.791578)
(39.3481 0.000143349 0.899875)
(39.1916 0.000143447 1.013)
(39.0156 0.000157156 1.13145)
(38.8189 0.000192768 1.25597)
(38.6007 0.000223195 1.38759)
(38.3609 0.000337474 1.52818)
(38.1007 0.000425812 1.68002)
(37.8236 0.0013239 1.84617)
(37.5394 0.00301432 2.02893)
(37.2283 0.00554993 2.18368)
(36.8401 0.0068259 2.29406)
(36.3765 0.00838508 2.38969)
(35.8622 0.00473503 2.51931)
(35.2942 -0.0027715 2.65401)
(34.7181 -0.00809171 2.83926)
(34.0687 -0.0178052 3.06656)
(33.2677 -0.0196938 3.33468)
(32.3436 -0.00875716 3.59329)
(31.4182 0.00429605 3.88532)
(30.4606 0.00605139 4.12252)
(29.4569 0.004186 4.23695)
(28.5177 0.00901633 4.18072)
(27.6961 0.0258132 3.997)
(26.9884 0.0586466 3.63614)
(26.4547 0.214218 2.93531)
(26.4814 0.734772 1.9456)
(27.0195 1.21377 0.843696)
(27.5389 1.14655 0.651891)
(27.1868 0.818956 0.850847)
(26.3764 0.49438 0.928047)
(25.9015 0.000270613 0.696555)
(24.5058 -0.285919 0.689092)
(24.3835 -0.329521 0.453692)
(24.3765 -0.240111 0.0744248)
(24.338 -0.16713 -0.280746)
(24.3028 -0.133927 -0.576752)
(24.265 -0.1133 -0.831128)
(24.2211 -0.0860649 -1.05593)
(24.167 -0.0561784 -1.24598)
(24.1345 -0.0266293 -1.40499)
(24.0716 0.0300746 -1.539)
(24.1348 0.10316 -1.57928)
(24.1549 0.169437 -1.61317)
(24.1634 0.217254 -1.60983)
(24.2027 0.316563 -1.6046)
(39.9992 1.65522e-05 0.0507989)
(39.9891 4.05799e-05 0.149997)
(39.9648 8.86344e-05 0.251385)
(39.9253 0.000105297 0.35476)
(39.8715 0.000110389 0.460507)
(39.8037 0.000130334 0.569184)
(39.7211 0.000152857 0.681405)
(39.6227 0.00015932 0.797736)
(39.5074 0.000150748 0.918722)
(39.3747 0.000141034 1.04487)
(39.2239 0.000140403 1.17667)
(39.0542 0.000153559 1.31459)
(38.8648 0.000179091 1.45923)
(38.6551 0.000218238 1.61127)
(38.4254 0.000262974 1.77168)
(38.1775 0.000422161 1.94172)
(37.9126 0.0006484 2.1217)
(37.6395 0.00179194 2.3159)
(37.3521 0.00269591 2.50042)
(37.0301 0.00133145 2.67875)
(36.6489 -1.69286e-05 2.84249)
(36.1836 -0.00138879 3.04932)
(35.5774 -0.00536158 3.22177)
(34.9665 -0.0148337 3.45042)
(34.342 -0.0270782 3.82738)
(33.574 -0.0325154 4.29336)
(32.5544 -0.0101281 4.67994)
(31.4016 0.0170696 4.89923)
(30.3004 0.019007 5.08906)
(29.223 0.0128956 5.18947)
(28.2246 0.01938 5.11445)
(27.312 0.0386567 4.85079)
(26.2898 0.0884758 4.46781)
(25.5579 0.285348 3.86633)
(19.4036 0.263023 0.475544)
(19.0944 0.0202488 2.9374)
(19.1881 -0.192601 5.51784)
(18.8363 -0.0783956 5.1541)
(18.5428 -0.164601 4.25902)
(18.1015 -0.468217 3.30898)
(19.499 -0.493079 1.78302)
(19.6414 -0.410198 1.09829)
(19.8025 -0.275434 0.745717)
(20.1067 -0.190784 0.458577)
(20.3549 -0.144584 0.190803)
(20.4996 -0.102348 -0.0515636)
(20.5903 -0.0547133 -0.275382)
(20.6324 -0.00614473 -0.482749)
(20.6683 0.0306002 -0.669081)
(20.6988 0.0581396 -0.834874)
(20.741 0.0731395 -0.975986)
(20.8706 0.0694405 -1.1145)
(20.9666 0.0616115 -1.18591)
(21.3778 -0.0226367 -1.33602)
(39.9992 1.65507e-05 0.0507974)
(39.9892 4.05872e-05 0.149991)
(39.9648 8.86047e-05 0.251373)
(39.9253 0.000105423 0.354746)
(39.8715 0.000109858 0.460492)
(39.8036 0.000128668 0.569167)
(39.7211 0.000150888 0.681387)
(39.6226 0.000157253 0.797717)
(39.5073 0.000148716 0.918704)
(39.3746 0.000138734 1.04485)
(39.2239 0.000139225 1.17665)
(39.0542 0.000154133 1.31457)
(38.8648 0.000180243 1.4592)
(38.6551 0.000220989 1.61123)
(38.4256 0.000270691 1.77165)
(38.1777 0.000430553 1.94139)
(37.914 0.00066514 2.12133)
(37.6404 0.0018093 2.31088)
(37.3552 0.00266392 2.50161)
(37.0434 0.00133664 2.69225)
(36.6638 0.000642234 2.8805)
(36.2464 -0.00146298 3.07415)
(35.6468 -0.00618686 3.2864)
(34.9741 -0.0145093 3.5012)
(34.284 -0.0282029 3.79599)
(33.4466 -0.0330904 4.22678)
(32.421 -0.0084124 4.56102)
(31.4279 0.0141072 4.88663)
(30.4126 0.0167751 5.14404)
(29.3551 0.0109429 5.22476)
(28.3628 0.0180325 5.09852)
(27.5021 0.0367449 4.85151)
(26.7286 0.096364 4.49867)
(25.9898 0.446842 4.01454)
(26.3707 1.28353 3.56089)
(19.5302 0.0296777 2.90636)
(19.4809 0.132385 2.08642)
(19.2171 0.495465 1.41321)
(18.3654 0.641972 0.88673)
(17.7748 0.503471 0.536053)
(17.889 0.262679 0.402472)
(17.8782 0.281412 0.0862374)
(17.8813 0.415046 -0.314338)
(17.9838 0.520565 -0.652162)
(18.1448 0.592961 -0.910491)
(18.3248 0.665312 -1.11144)
(18.5279 0.750315 -1.26344)
(18.7651 0.832926 -1.37094)
(19.0305 0.90863 -1.43924)
(19.334 0.980249 -1.49191)
(19.6586 1.04244 -1.51431)
(20.0651 1.09128 -1.49792)
(20.3732 1.12685 -1.43981)
(21.0587 1.12893 -1.3292)
(39.9992 1.54135e-05 0.0572549)
(39.9897 3.34671e-05 0.169095)
(39.9667 7.65598e-05 0.283509)
(39.9294 9.24072e-05 0.400328)
(39.8785 9.76359e-05 0.519989)
(39.8143 0.000116853 0.643121)
(39.7361 0.000138513 0.770448)
(39.6426 0.000145052 0.902643)
(39.533 0.000137277 1.04035)
(39.4065 0.000127404 1.18413)
(39.2623 0.000125982 1.33446)
(39.0998 0.000137114 1.49172)
(38.918 0.000160311 1.65622)
(38.7165 0.000195936 1.8282)
(38.4955 0.000235512 2.00774)
(38.2562 0.000327267 2.19492)
(38.0003 0.000413504 2.38892)
(37.7314 0.000731074 2.5898)
(37.4506 0.000416267 2.79247)
(37.1525 -0.00093261 2.99973)
(36.8238 -0.0028066 3.22307)
(36.4606 -0.00271544 3.49776)
(36.047 4.5391e-05 3.79892)
(35.4423 -0.0105492 4.1314)
(34.7708 -0.0259026 4.59583)
(34.1076 -0.0363935 5.21102)
(33.2745 -0.0129064 5.73201)
(32.1695 0.0288946 6.05897)
(30.8421 0.0447098 6.23907)
(29.4384 0.0260152 6.22995)
(28.3053 0.0172438 5.96317)
(27.3933 0.0203799 5.62401)
(26.5313 0.0283549 5.44078)
(25.9346 0.149686 5.703)
(25.201 0.507754 6.70737)
(16.6985 0.0722414 2.98989)
(15.9524 0.0901015 2.05532)
(15.3451 0.123118 1.74143)
(14.4595 0.137722 1.45972)
(13.922 0.059656 0.953166)
(13.6768 -0.0520467 0.261804)
(13.5101 -0.0947234 -0.0912885)
(13.5713 -0.0796255 -0.262837)
(13.7881 -0.0489269 -0.49711)
(14.1084 -0.0378124 -0.792834)
(14.5015 -0.0572258 -1.0876)
(14.9891 -0.0941258 -1.36598)
(15.6184 -0.141487 -1.6418)
(16.3579 -0.20749 -1.91679)
(17.2025 -0.284939 -2.17492)
(18.1012 -0.362299 -2.40401)
(19.1474 -0.431718 -2.61317)
(19.9682 -0.496104 -2.74618)
(21.5524 -0.596716 -2.97702)
(39.9992 1.54135e-05 0.0572532)
(39.9897 3.34671e-05 0.169089)
(39.9667 7.65601e-05 0.283497)
(39.9293 9.24064e-05 0.400314)
(39.8785 9.76459e-05 0.519974)
(39.8143 0.000116792 0.643105)
(39.736 0.000138643 0.77043)
(39.6426 0.000144187 0.902625)
(39.5329 0.000134824 1.04033)
(39.4064 0.000124282 1.18412)
(39.2623 0.000123856 1.33444)
(39.0998 0.000136818 1.4917)
(38.918 0.000160679 1.6562)
(38.7165 0.000196974 1.82816)
(38.4955 0.000236832 2.0077)
(38.2563 0.000331428 2.19475)
(38.0007 0.000419666 2.3886)
(37.7313 0.000741923 2.58824)
(37.4485 0.000439718 2.79049)
(37.1491 -0.000933611 2.99899)
(36.8224 -0.00271687 3.22829)
(36.4655 -0.00288187 3.49446)
(36.067 0.000807804 3.85428)
(35.5201 -0.00848584 4.17299)
(34.7747 -0.0307859 4.58193)
(34.0219 -0.0393046 5.10677)
(33.0097 -0.0198544 5.58206)
(31.8762 0.0180091 5.95549)
(30.8352 0.0362091 6.20799)
(29.7047 0.018665 6.25209)
(28.5094 0.0134909 6.01653)
(27.505 0.0210426 5.64444)
(26.692 0.0291345 5.37441)
(25.826 0.175713 5.40426)
(25.5193 0.720815 6.16265)
(24.4286 1.47686 6.43632)
(23.5576 1.58745 5.30049)
(22.112 1.52838 3.76256)
(20.4751 1.45058 2.56035)
(19.2876 1.35638 1.67024)
(18.5708 1.24024 0.982824)
(18.1585 1.17337 0.46464)
(18.0205 1.16297 0.0822662)
(18.0687 1.17738 -0.218226)
(18.2328 1.19283 -0.471469)
(18.4876 1.20021 -0.68464)
(18.8302 1.20561 -0.856968)
(19.2501 1.20878 -0.997747)
(19.7283 1.19972 -1.11362)
(20.2672 1.17721 -1.2137)
(20.8397 1.1464 -1.2919)
(21.501 1.11044 -1.35258)
(22.0245 1.07105 -1.37632)
(22.973 0.979851 -1.40402)
(39.9993 1.49376e-05 0.063308)
(39.9904 3.44267e-05 0.187011)
(39.969 7.70668e-05 0.313636)
(39.9343 9.15452e-05 0.443072)
(39.8869 9.54786e-05 0.575851)
(39.827 0.000113382 0.712702)
(39.7538 0.000133957 0.85446)
(39.6662 0.000140116 1.0019)
(39.563 0.000132535 1.15576)
(39.4436 0.000122884 1.31664)
(39.307 0.000121707 1.48501)
(39.1522 0.000133898 1.66117)
(38.9784 0.000156474 1.84517)
(38.7847 0.000187148 2.0368)
(38.5713 0.000225336 2.23548)
(38.3388 0.000275291 2.4403)
(38.0891 0.000319674 2.64981)
(37.8249 0.000389417 2.86299)
(37.5493 0.000294303 3.07836)
(37.2645 2.13544e-05 3.30074)
(36.972 -0.000613177 3.54286)
(36.6703 0.000116985 3.83825)
(36.3666 0.000571078 4.20728)
(36.0113 0.0176841 4.7066)
(35.3873 0.013968 5.32446)
(34.8087 -0.00463142 5.95859)
(34.1686 -0.0126803 6.52126)
(33.345 -0.00289725 7.15573)
(32.2334 0.0330615 7.64868)
(30.8302 0.0625554 7.75449)
(29.1721 0.0548915 7.16485)
(27.4838 0.0222564 6.4377)
(26.2786 0.00580545 6.10901)
(25.1322 0.0265821 6.09239)
(24.9628 0.280904 7.38951)
(23.3507 0.30226 7.89348)
(21.5684 0.122769 6.50868)
(19.5496 -0.0741624 4.64322)
(17.641 -0.198409 3.0851)
(16.3337 -0.288191 1.82208)
(15.6339 -0.402528 0.763752)
(15.3575 -0.518962 -0.051078)
(15.4457 -0.600245 -0.702615)
(15.8844 -0.649247 -1.27855)
(16.5985 -0.70054 -1.80279)
(17.478 -0.763458 -2.26266)
(18.4419 -0.815079 -2.6485)
(19.4522 -0.844718 -2.96887)
(20.4764 -0.858999 -3.23457)
(21.4923 -0.864349 -3.44913)
(22.4568 -0.860545 -3.6103)
(23.4233 -0.850628 -3.71978)
(24.159 -0.84359 -3.78209)
(25.2946 -0.840188 -3.81067)
(39.9993 1.49376e-05 0.063306)
(39.9904 3.44266e-05 0.187003)
(39.969 7.70676e-05 0.313621)
(39.9342 9.15428e-05 0.443054)
(39.8868 9.549e-05 0.575832)
(39.8269 0.000113344 0.712682)
(39.7538 0.000134153 0.854438)
(39.6661 0.000139369 1.00188)
(39.563 0.000130153 1.15573)
(39.4435 0.000119941 1.31662)
(39.3069 0.000119066 1.48499)
(39.1522 0.000129359 1.66114)
(38.9783 0.000152456 1.84514)
(38.7847 0.000185805 2.03676)
(38.5713 0.000221137 2.23544)
(38.3388 0.000269735 2.4402)
(38.0892 0.000318787 2.64966)
(37.8248 0.000390639 2.86258)
(37.5488 0.000306819 3.07835)
(37.2634 2.10763e-05 3.30145)
(36.9711 -0.000553526 3.54615)
(36.6722 -0.000182601 3.8353)
(36.3709 0.00169249 4.21882)
(36.065 0.0131094 4.68074)
(35.5978 0.0110442 5.28134)
(34.9151 -0.00719 5.90002)
(34.1584 -0.0202424 6.59858)
(32.9968 -0.00916133 7.12056)
(31.7766 0.0260054 7.40613)
(30.5855 0.0531431 7.50282)
(29.2704 0.0548306 7.30865)
(27.8119 0.0235954 6.70992)
(26.3925 0.00128643 6.19247)
(24.9453 -0.0113572 6.2548)
(24.0323 0.178331 6.83627)
(24.0213 0.550017 7.21925)
(24.0333 0.755803 6.61224)
(23.5353 0.843154 5.46424)
(22.7208 0.892638 4.33495)
(21.9914 0.909756 3.30934)
(21.4904 0.884194 2.39277)
(21.209 0.845988 1.63022)
(21.1307 0.821772 0.995728)
(21.2288 0.81059 0.451293)
(21.4628 0.789544 -0.0253236)
(21.7983 0.74405 -0.440885)
(22.2109 0.685387 -0.797124)
(22.6739 0.623086 -1.1035)
(23.1621 0.554793 -1.37006)
(23.6708 0.4778 -1.60582)
(24.171 0.39824 -1.79777)
(24.6976 0.313508 -1.96672)
(25.082 0.241819 -2.04709)
(25.6818 0.0958563 -2.1955)
(39.9993 1.35202e-05 0.068881)
(39.9912 2.5575e-05 0.203519)
(39.9717 6.19191e-05 0.341411)
(39.9399 7.48166e-05 0.482521)
(39.8966 7.89043e-05 0.627494)
(39.8416 9.63845e-05 0.777178)
(39.7743 0.000116258 0.932529)
(39.6934 0.000121455 1.09445)
(39.5978 0.000112805 1.26379)
(39.4864 0.000102878 1.44125)
(39.3583 0.000100342 1.62734)
(39.2122 0.000110065 1.82229)
(39.0467 0.000129687 2.02599)
(38.8609 0.000157385 2.23785)
(38.6542 0.000191517 2.45665)
(38.427 0.000230391 2.68047)
(38.1809 0.000270735 2.9067)
(37.9193 0.000309256 3.13257)
(37.6485 0.000356692 3.35621)