/*--------------------------------*- C++ -*----------------------------------*\
| =========                 |                                                 |
| \\      /  F ield         | OpenFOAM: The Open Source CFD Toolbox           |
|  \\    /   O peration     | Version:  4.1                                   |
|   \\  /    A nd           | Web:      www.OpenFOAM.org                      |
|    \\/     M anipulation  |                                                 |
\*---------------------------------------------------------------------------*/
FoamFile
{
    version     2.0;
    format      ascii;
    class       volScalarField;
    location    "58";
    object      omega;
}
// * * * * * * * * * * * * * * * * * * * * * * * * * * * * * * * * * * * * * //

dimensions      [0 0 -1 0 0 0 0];

internalField   nonuniform List<scalar> 
4432
(
0.0110955
0.0114464
0.0118142
0.0121537
0.012514
0.0128394
0.0131943
0.0135043
0.0138524
0.014145
0.014484
0.0147617
0.0150868
0.0153532
0.0156607
0.0159179
0.0162081
0.0164551
0.0167315
0.0169654
0.0172324
0.017459
0.0177207
0.0179383
0.0181877
0.018391
0.0186347
0.0188266
0.0190765
0.0192634
0.0195264
0.0197107
0.0199751
0.0201489
0.0203964
0.0205481
0.0207553
0.02089
0.0210648
0.0212018
0.0213454
0.0214792
0.0215901
0.0217481
0.0218385
0.0219933
0.0220842
0.0222284
0.0224101
0.0226072
0.0228126
0.0232149
0.023262
0.0234704
0.0110938
0.0114475
0.0118187
0.0121501
0.0125219
0.0128318
0.0132046
0.013493
0.0138649
0.0141301
0.0144991
0.0147444
0.0151048
0.0153355
0.0156807
0.0159024
0.0162282
0.016444
0.0167501
0.0169585
0.0172474
0.0174529
0.0177327
0.0179329
0.0182017
0.0183931
0.0186558
0.0188379
0.0191003
0.0192789
0.0195481
0.0197266
0.0199911
0.0201636
0.0204087
0.0205636
0.0207711
0.0209279
0.0210971
0.021272
0.021402
0.0215899
0.0217104
0.0218594
0.0219771
0.0220764
0.022202
0.0223119
0.0224382
0.0225445
0.0228052
0.022934
0.0231045
0.0231859
21.7968
3.38053
1.22897
0.663574
0.43651
0.320443
0.251595
0.206501
0.174852
0.151486
0.133567
0.119401
0.107939
0.0984738
0.0905376
0.0837856
0.07798
0.0729326
0.0685052
0.0645966
0.0611129
0.0580065
0.0551944
0.0526684
0.0503454
0.0482516
0.0463019
0.0445469
0.0428947
0.041417
0.0400012
0.038743
0.0375001
0.0364035
0.0352722
0.0342799
0.0332399
0.0323584
0.0314243
0.0306632
0.0298365
0.0291609
0.0284259
0.0278347
0.0271941
0.0266515
0.0260909
0.0256131
0.0251246
0.0247485
0.0243768
0.0239938
0.0238031
0.0231161
21.7968
3.38054
1.22898
0.663578
0.43651
0.320442
0.251592
0.206499
0.174849
0.151483
0.133564
0.119399
0.107937
0.0984709
0.0905369
0.0837819
0.0779795
0.0729265
0.0685046
0.0645888
0.0611123
0.0579971
0.055194
0.0526607
0.0503487
0.0482527
0.0463108
0.0445591
0.0429063
0.0414317
0.0400031
0.0387472
0.0374847
0.0363923
0.0352461
0.0342634
0.0332204
0.0323643
0.0314307
0.0306858
0.0298547
0.0292035
0.0284617
0.0278849
0.0272233
0.0267043
0.0261285
0.0256712
0.0251736
0.0248055
0.0243996
0.024031
0.0238533
0.023036
21.7963
3.38062
1.2291
0.663754
0.436717
0.320654
0.251785
0.206681
0.175029
0.151669
0.133751
0.119595
0.108132
0.098677
0.0907383
0.0839955
0.0781842
0.0731434
0.0687111
0.0648064
0.0613231
0.0582207
0.0554154
0.0528889
0.0505736
0.0484731
0.0465291
0.0447629
0.0431148
0.0416169
0.0402033
0.03892
0.0376836
0.0365659
0.0354598
0.0344726
0.03347
0.0326019
0.0316956
0.0309245
0.0301084
0.0294184
0.0286933
0.0280669
0.0274226
0.02686
0.0262994
0.0257875
0.0253088
0.024893
0.0244769
0.0242416
0.0235694
0.0232572
21.7963
3.38063
1.2291
0.663757
0.436717
0.320652
0.251783
0.206679
0.175028
0.151665
0.13375
0.11959
0.108133
0.098671
0.0907407
0.0839885
0.0781868
0.0731352
0.0687119
0.0648002
0.0613239
0.0582181
0.0554131
0.0528888
0.0505686
0.0484781
0.0465269
0.0447757
0.0431149
0.0416323
0.0401993
0.0389271
0.0376702
0.0365653
0.0354432
0.0344732
0.0334614
0.0326074
0.0316915
0.0309413
0.0301166
0.0294536
0.0287077
0.0281138
0.0274413
0.0269136
0.0263101
0.0258567
0.0253372
0.0249542
0.024533
0.0241676
0.0238566
0.0233616
21.7964
3.38054
1.22902
0.663693
0.436664
0.320607
0.251741
0.20664
0.174989
0.15163
0.133712
0.119556
0.108095
0.0986396
0.0907021
0.0839573
0.0781472
0.0731033
0.0686751
0.0647751
0.0613022
0.0582045
0.0554086
0.0528807
0.050571
0.048465
0.0465261
0.0447532
0.0431068
0.0416
0.040183
0.0388913
0.0376605
0.0365432
0.0354574
0.03447
0.0334983
0.0326129
0.0317435
0.0309471
0.0301787
0.0294379
0.0287507
0.0280487
0.0274489
0.026796
0.0262849
0.0257278
0.025279
0.0248566
0.0243814
0.0239535
0.0237111
0.0233423
21.7964
3.38055
1.22903
0.663695
0.436663
0.320605
0.251739
0.206638
0.174987
0.151628
0.13371
0.119555
0.108093
0.0986392
0.0906992
0.0839576
0.0781431
0.0731043
0.0686716
0.064777
0.0612954
0.0582033
0.0553937
0.0528782
0.0505543
0.0484715
0.046515
0.0447709
0.0431007
0.0416238
0.0401796
0.0389163
0.0376545
0.0365592
0.0354424
0.034476
0.0334794
0.0326141
0.0317314
0.0309466
0.0301674
0.0294341
0.0287504
0.0280556
0.0274644
0.0268301
0.0263152
0.0257988
0.0252965
0.0249377
0.0244464
0.0240689
0.0238459
0.0231761
21.7964
3.38052
1.229
0.663669
0.436643
0.320587
0.251722
0.206619
0.17497
0.151606
0.133692
0.11953
0.108073
0.0986092
0.0906782
0.0839223
0.0781201
0.0730659
0.0686512
0.0647393
0.0612783
0.0581683
0.0553817
0.0528498
0.0505507
0.0484494
0.0465156
0.0447503
0.0431012
0.0416035
0.0401775
0.038896
0.0376496
0.0365428
0.0354414
0.0344702
0.0334861
0.0326154
0.0317371
0.0309502
0.0301643
0.0294333
0.0287277
0.028039
0.0274229
0.0267849
0.0262957
0.0257153
0.025339
0.0247993
0.0245112
0.0239412
0.0238364
0.0232222
21.7964
3.38052
1.229
0.663669
0.436642
0.320585
0.25172
0.206616
0.174969
0.151604
0.133691
0.119528
0.108072
0.0986075
0.0906768
0.083921
0.0781189
0.0730659
0.0686502
0.0647386
0.0612738
0.0581623
0.0553744
0.0528411
0.0505465
0.0484441
0.0465191
0.0447502
0.0431102
0.0416087
0.0401902
0.0389037
0.0376587
0.0365458
0.0354408
0.0344675
0.0334771
0.0326158
0.0317218
0.0309516
0.0301372
0.0294445
0.0286928
0.0280779
0.0273908
0.0268662
0.0262637
0.0258042
0.0253075
0.0248445
0.0244665
0.023968
0.0237798
0.0232599
21.7964
3.38049
1.22896
0.663636
0.436618
0.320565
0.2517
0.206597
0.174945
0.151581
0.133662
0.119501
0.108038
0.0985757
0.0906366
0.0838853
0.0780761
0.0730284
0.0686077
0.0647
0.0612342
0.0581223
0.0553434
0.052811
0.0505356
0.0484272
0.0465227
0.0447333
0.0431188
0.0415851
0.0402025
0.0388717
0.0376739
0.0365072
0.0354653
0.0344343
0.0335159
0.032584
0.0317619
0.0309076
0.0301704
0.0293859
0.0287288
0.0280086
0.0274373
0.0268026
0.0263296
0.0257783
0.0253616
0.0248597
0.0244475
0.0240231
0.0237207
0.0229541
21.7964
3.3805
1.22896
0.663637
0.436617
0.320563
0.251698
0.206595
0.174944
0.15158
0.133662
0.119499
0.108038
0.0985731
0.0906386
0.083882
0.0780787
0.0730252
0.0686086
0.0646954
0.0612313
0.0581185
0.0553374
0.0528051
0.0505271
0.0484205
0.0465191
0.0447337
0.0431257
0.0415909
0.0402147
0.0388776
0.0376871
0.0365109
0.035476
0.0344284
0.0335222
0.0325676
0.0317698
0.0308862
0.0301887
0.0293629
0.0287581
0.0279948
0.0274782
0.0267919
0.0263624
0.0257503
0.0253678
0.0247929
0.024474
0.0239237
0.0237114
0.0229187
21.7964
3.38048
1.22893
0.663613
0.436596
0.320545
0.251676
0.206574
0.174917
0.151556
0.133628
0.119472
0.107996
0.0985427
0.0905887
0.0838474
0.0780219
0.0729863
0.0685488
0.0646548
0.0611725
0.0580775
0.0552875
0.0527754
0.0504975
0.0484106
0.0465042
0.0447333
0.0431098
0.0415914
0.0401948
0.0388782
0.0376676
0.0365133
0.0354627
0.034433
0.0335182
0.0325749
0.031766
0.0308846
0.0301755
0.0293521
0.0287382
0.027981
0.0274609
0.0267807
0.0263532
0.0257443
0.025355
0.0247755
0.0244263
0.02385
0.0235918
0.022666
21.7964
3.38048
1.22894
0.663614
0.436596
0.320543
0.251675
0.206572
0.174916
0.151553
0.133629
0.119468
0.108
0.0985371
0.0905941
0.0838404
0.0780289
0.0729773
0.0685553
0.0646434
0.0611769
0.0580665
0.0552895
0.0527661
0.0504973
0.048401
0.046508
0.0447257
0.0431221
0.0415834
0.0402128
0.0388695
0.0376879
0.0365057
0.0354774
0.0344265
0.0335196
0.0325682
0.0317627
0.0308868
0.0301767
0.0293626
0.0287527
0.0279957
0.0274842
0.0267938
0.0263721
0.0257283
0.0253522
0.0247639
0.0243963
0.02387
0.0234206
0.0228421
21.7964
3.38045
1.22889
0.663577
0.43657
0.32052
0.251655
0.206546
0.174893
0.15152
0.133601
0.119428
0.107965
0.0984896
0.0905503
0.0837856
0.0779747
0.0729156
0.0684925
0.0645801
0.0611129
0.0580081
0.0552322
0.0527264
0.0504639
0.0483927
0.0464923
0.0447366
0.0431009
0.0416003
0.04018
0.0388942
0.0376537
0.036541
0.0354457
0.0344683
0.0334913
0.0326147
0.0317356
0.0309338
0.0301427
0.0294024
0.0287183
0.0280261
0.0274603
0.0268067
0.0263438
0.025715
0.0253096
0.0247034
0.0243348
0.0237405
0.0234642
0.0225476
21.7964
3.38046
1.22889
0.663578
0.436569
0.32052
0.251652
0.206548
0.174889
0.151524
0.133596
0.119434
0.107959
0.0984963
0.0905444
0.0837925
0.0779686
0.0729228
0.0684852
0.0645846
0.0611034
0.0580114
0.0552232
0.0527263
0.0504507
0.0483862
0.0464832
0.0447299
0.0431108
0.041597
0.0402082
0.0388895
0.0376883
0.0365292
0.0354781
0.034449
0.033517
0.0325911
0.0317564
0.030908
0.0301678
0.0293828
0.0287479
0.0280128
0.027489
0.0267935
0.0263603
0.0256959
0.0253101
0.0246785
0.0243358
0.0237151
0.0234826
0.022596
21.7964
3.38043
1.22886
0.663553
0.436549
0.320499
0.251632
0.206522
0.174864
0.151492
0.133564
0.119393
0.107919
0.0984459
0.090495
0.0837313
0.0779086
0.0728491
0.0684155
0.0645025
0.0610271
0.0579243
0.0551498
0.0526568
0.0504121
0.0483623
0.0464882
0.0447408
0.0431309
0.04162
0.040225
0.038916
0.0376997
0.0365544
0.0354842
0.0344706
0.0335188
0.0326166
0.0317536
0.0309436
0.0301509
0.0294223
0.0287188
0.0280513
0.0274603
0.0268196
0.0263215
0.0257132
0.0252507
0.0247037
0.0242842
0.023708
0.0234653
0.0225584
21.7964
3.38044
1.22886
0.663553
0.436548
0.320499
0.25163
0.206523
0.174862
0.151493
0.133563
0.119395
0.107918
0.0984483
0.0904937
0.0837334
0.0779072
0.0728509
0.0684122
0.0645015
0.0610214
0.0579233
0.0551465
0.0526559
0.0504065
0.048358
0.0464811
0.0447384
0.043134
0.0416229
0.0402387
0.0389175
0.0377162
0.0365532
0.0354995
0.0344674
0.0335311
0.0326086
0.0317651
0.0309321
0.0301688
0.0294153
0.0287382
0.0280533
0.0274664
0.0268213
0.0263225
0.0256949
0.025277
0.024673
0.0243095
0.0237117
0.0234743
0.0226258
21.7964
3.3804
1.22881
0.663513
0.436521
0.320476
0.251608
0.206497
0.174837
0.15146
0.13353
0.119352
0.107876
0.0983939
0.0904413
0.0836649
0.077841
0.0727653
0.0683294
0.0643974
0.0609248
0.0578122
0.0550535
0.0525741
0.0503613
0.0483525
0.0465008
0.0447896
0.0431793
0.0416921
0.0402821
0.0389812
0.0377473
0.0366057
0.0355253
0.0345117
0.0335584
0.0326519
0.0317957
0.0309799
0.0301952
0.0294648
0.028756
0.0281013
0.0274887
0.0268598
0.0263293
0.0257596
0.0251972
0.0248719
0.0242049
0.0236867
0.0231975
0.0226652
21.7964
3.38041
1.22881
0.663513
0.436522
0.320475
0.251609
0.206496
0.174839
0.151458
0.133535
0.119349
0.107883
0.0983895
0.0904492
0.0836589
0.0778495
0.0727578
0.0683375
0.0643893
0.0609296
0.0578086
0.0550592
0.0525719
0.0503597
0.0483399
0.0464987
0.0447756
0.043185
0.0416834
0.0402978
0.0389794
0.037769
0.036607
0.0355425
0.0345153
0.0335663
0.0326563
0.0317923
0.0309855
0.0301857
0.0294762
0.0287416
0.0281228
0.0274473
0.0268909
0.0262818
0.0257566
0.0252477
0.0247224
0.0243256
0.0238173
0.0232786
0.0227669
21.7964
3.38038
1.22878
0.663487
0.4365
0.320458
0.251586
0.206477
0.174806
0.151437
0.13349
0.119323
0.107824
0.0983552
0.0903734
0.0836123
0.0777541
0.0726921
0.0682191
0.064301
0.0607969
0.0576995
0.05493
0.0524828
0.0503203
0.0483535
0.0465754
0.0448779
0.0433304
0.0418249
0.0404548
0.0391117
0.0378957
0.036721
0.0356302
0.0346275
0.0336234
0.0327691
0.0318471
0.031085
0.03027
0.0295701
0.0288205
0.0282826
0.0275077
0.0270845
0.0263452
0.0259244
0.0251133
0.0249107
0.0238305
0.0235746
0.0237849
0.0230238
21.7963
3.38039
1.22878
0.663487
0.4365
0.320457
0.251586
0.206477
0.174808
0.151436
0.133492
0.119323
0.107827
0.0983555
0.0903763
0.0836116
0.0777576
0.0726894
0.0682253
0.0642926
0.0608091
0.0576882
0.0549519
0.0524739
0.0503369
0.0483541
0.0465751
0.0448778
0.04332
0.0418255
0.0404426
0.0391145
0.0378911
0.0367154
0.0356411
0.0345998
0.0336479
0.0327204
0.0318706
0.0310311
0.0302829
0.0294996
0.0288704
0.028137
0.0275495
0.0269572
0.0263638
0.0258779
0.0253088
0.0247849
0.0244347
0.0234405
0.0231423
0.0228
21.7963
3.38035
1.22872
0.663445
0.436472
0.32044
0.251561
0.206464
0.174771
0.151425
0.133439
0.119313
0.107751
0.0983466
0.0902704
0.0836024
0.0776109
0.0726733
0.0680303
0.0642589
0.0605721
0.0576318
0.0547225
0.052472
0.0503595
0.0486303
0.047001
0.0454777
0.0439701
0.0425745
0.0411801
0.0399208
0.0386393
0.0375196
0.0363955
0.0353719
0.0344269
0.0334859
0.0326226
0.0318896
0.0310826
0.0304029
0.0296118
0.0290408
0.0282039
0.0276964
0.0270616
0.0268141
0.0263278
0.0261299
0.0260106
0.0271172
0.0264618
0.0268646
21.7963
3.38036
1.22872
0.663445
0.436472
0.320441
0.251562
0.206466
0.174772
0.151428
0.133439
0.119319
0.107748
0.0983556
0.0902648
0.0836137
0.0776032
0.0726858
0.0680213
0.0642718
0.060563
0.0576381
0.0547338
0.0524642
0.050404
0.0486117
0.0469662
0.0453776
0.0438732
0.0424205
0.0410541
0.0397352
0.038514
0.0373266
0.0362552
0.0351828
0.0342404
0.0332874
0.0324115
0.0316545
0.0307606
0.0301868
0.0294342
0.0285846
0.027992
0.0275119
0.0263605
0.0259703
0.0256786
0.0253811
0.0251644
0.0250074
0.0254041
0.0249565
21.7963
3.38033
1.22869
0.663422
0.436455
0.320426
0.251546
0.206448
0.174751
0.151406
0.133407
0.119295
0.107699
0.0983334
0.0901839
0.0835993
0.0774707
0.0726844
0.0678056
0.0642983
0.0602213
0.0577833
0.0542994
0.053288
0.0507308
0.0515156
0.0512853
0.0507102
0.0492955
0.0468533
0.0454707
0.0444675
0.0433898
0.0424249
0.0415404
0.0405773
0.0398616
0.0385728
0.0381473
0.0364805
0.0361254
0.0358596
0.0357608
0.0362603
0.0370109
0.0373335
0.0400319
0.0391826
0.039483
0.0406943
0.0414248
0.0411202
0.0414982
0.0408837
21.7963
3.38034
1.22869
0.663423
0.436454
0.320429
0.251542
0.206456
0.174744
0.15142
0.133396
0.119313
0.107685
0.0983532
0.0901706
0.0836152
0.0774632
0.072693
0.067808
0.0642931
0.0602449
0.0577435
0.0543967
0.0531115
0.0511259
0.0509573
0.0502453
0.0491617
0.0475178
0.0460021
0.0444135
0.0430353
0.0416616
0.0404171
0.0393149
0.0381957
0.0372071
0.0364061
0.0352796
0.0347578
0.0340572
0.0338752
0.0332255
0.0334338
0.0335636
0.0342113
0.0349844
0.0358843
0.0364023
0.0368613
0.0370227
0.0371761
0.0373731
0.0374611
21.7962
3.3803
1.22863
0.66338
0.436443
0.320395
0.251563
0.206392
0.174798
0.151307
0.133495
0.119137
0.10784
0.098097
0.090391
0.0832599
0.0777533
0.0722118
0.0681655
0.0636356
0.0606653
0.0569295
0.0551976
0.0546809
0.0605281
0.116847
0.120239
0.119052
0.11729
0.113802
0.11017
0.106622
0.103546
0.100899
0.0986279
0.0965737
0.0947543
0.0930878
0.0917088
0.0900962
0.088637
0.086764
0.0849479
0.0826919
0.0804483
0.0776857
0.074795
0.0715117
0.0677706
0.0641401
0.0591312
0.055977
0.049303
0.0475078
21.7962
3.38031
1.22863
0.663381
0.436443
0.320399
0.251561
0.206399
0.174794
0.151318
0.133489
0.119151
0.107831
0.0981146
0.0903794
0.0832791
0.0777432
0.0722269
0.0681652
0.0636458
0.0606555
0.0569661
0.0550992
0.0548208
0.0602646
0.0938275
0.0968922
0.0985692
0.0993884
0.0995282
0.0967657
0.095305
0.0953207
0.0940631
0.0925233
0.0908636
0.0893233
0.0877755
0.0865312
0.0850754
0.0837436
0.0819923
0.0804098
0.078481
0.0766073
0.0743735
0.071933
0.0693231
0.0660444
0.0632078
0.058902
0.056089
0.0509577
0.0484389
21.7962
3.38028
1.22861
0.663362
0.436435
0.320387
0.251561
0.206379
0.174801
0.151284
0.133506
0.119096
0.107861
0.098034
0.0904239
0.0831672
0.0778032
0.0720497
0.068309
0.0631935
0.0612448
0.0556094
0.0568312
0.0615916
0.261191
0.341263
0.177815
0.122832
0.108186
0.101227
0.0963864
0.092014
0.0876087
0.0830493
0.0784025
0.0737546
0.0692582
0.064905
0.0606787
0.0566514
0.0527586
0.0493466
0.0465536
0.0439405
0.0421562
0.0405261
0.0391927
0.0382241
0.0374038
0.0367834
0.0361417
0.0354052
0.03442
0.0332359
21.7962
3.38029
1.22861
0.663362
0.436436
0.320388
0.251563
0.206381
0.174803
0.151287
0.133509
0.1191
0.107866
0.0980339
0.0904372
0.0831505
0.0778444
0.0720001
0.0683723
0.0631905
0.0611393
0.0558189
0.0562199
0.0598743
0.19461
0.311124
0.184458
0.119613
0.0993501
0.0933702
0.0899624
0.0865581
0.0829166
0.0789454
0.0749081
0.0708827
0.0670396
0.0632708
0.0598032
0.0562895
0.0531744
0.0502312
0.0477346
0.04544
0.0436192
0.0420223
0.0406528
0.0395262
0.0382403
0.0374918
0.0360894
0.0353616
0.0339463
0.0327571
21.7961
3.38025
1.22855
0.663329
0.436422
0.320381
0.251561
0.206375
0.174804
0.151277
0.13351
0.119085
0.107869
0.0980152
0.0904385
0.0831324
0.0778306
0.0720155
0.0682571
0.0634619
0.0603463
0.0567139
0.0557902
0.111657
0.171325
0.185641
0.142356
0.120196
0.109074
0.102408
0.0973438
0.09304
0.0893306
0.0863228
0.0838179
0.0816848
0.0798432
0.0782619
0.076768
0.0754398
0.073918
0.0723332
0.0702105
0.0677927
0.0649048
0.0617304
0.0583851
0.0545393
0.0510728
0.0462533
0.0432907
0.0367482
0.0356646
21.7961
3.38026
1.22855
0.66333
0.436423
0.320383
0.251563
0.206379
0.174807
0.15128
0.133516
0.119086
0.107879
0.0980121
0.0904523
0.0831271
0.0778535
0.0719796
0.068387
0.0631226
0.0612794
0.0554828
0.058594
0.120403
0.180407
0.199546
0.146791
0.12563
0.11354
0.106508
0.101626
0.0975018
0.0938195
0.0905518
0.0876203
0.0849871
0.0825556
0.0803603
0.0781883
0.0760635
0.0736204
0.0712457
0.0685379
0.0658401
0.0627061
0.0595423
0.0561403
0.0525114
0.0492081
0.0448882
0.0420808
0.0366847
0.0349393
21.7961
3.38024
1.22853
0.66332
0.436416
0.320392
0.251553
0.2064
0.174784
0.151319
0.133475
0.119147
0.107815
0.0981026
0.0903618
0.0832572
0.0777228
0.0721954
0.0681398
0.0636061
0.0606237
0.0568903
0.0552342
0.0580586
0.0994197
0.109333
0.112092
0.113337
0.110905
0.108581
0.104643
0.100328
0.0956029
0.0906006
0.0854759
0.0803655
0.0753467
0.0703176
0.0653443
0.0602789
0.0554272
0.0506823
0.0464384
0.0424816
0.0391229
0.035948
0.0333757
0.0309322
0.0290614
0.0272249
0.0259156
0.0245463
0.0236265
0.022751
21.7961
3.38025
1.22853
0.66332
0.436418
0.320394
0.251556
0.206403
0.174787
0.151324
0.133476
0.119155
0.107813
0.0981144
0.0903572
0.0832744
0.0777121
0.0722242
0.0681162
0.063653
0.0605961
0.0569416
0.0551993
0.0579708
0.091282
0.0868948
0.0886865
0.0885373
0.0875021
0.0855447
0.0826905
0.0797338
0.0765034
0.0730409
0.069431
0.0657793
0.0620796
0.0583061
0.0545224
0.050754
0.0472677
0.0439206
0.0409644
0.0380759
0.0356419
0.0332125
0.031302
0.0293484
0.0279455
0.026421
0.0254482
0.0242644
0.0235716
0.0227149
21.796
3.38021
1.22848
0.663296
0.436402
0.320411
0.251535
0.206451
0.174737
0.151413
0.133382
0.119303
0.107661
0.0983377
0.0901362
0.0835894
0.0774177
0.0726532
0.0677462
0.0642387
0.0601571
0.0576791
0.0542795
0.0530707
0.0507153
0.0506285
0.050126
0.0488522
0.0470682
0.0452751
0.0435421
0.041903
0.0403574
0.0388918
0.037525
0.0362138
0.0350111
0.0338289
0.0327794
0.0317111
0.0308077
0.0298443
0.0290775
0.0282044
0.0275516
0.0267464
0.026192
0.0254365
0.0249671
0.02423
0.0238115
0.0230716
0.0227379
0.0219282
21.796
3.38022
1.22848
0.663298
0.436405
0.320413
0.25154
0.206453
0.174744
0.151414
0.133393
0.1193
0.107678
0.0983293
0.0901584
0.0835778
0.0774445
0.0726404
0.0677784
0.0642261
0.0601932
0.0576691
0.0543286
0.0529991
0.0509522
0.0504153
0.0491524
0.047621
0.0458701
0.0441572
0.0425211
0.0409749
0.0395268
0.0381724
0.0369013
0.0357059
0.034591
0.0335216
0.0325479
0.031577
0.0307323
0.0298436
0.0291148
0.0282892
0.027656
0.0268786
0.0263259
0.0255886
0.0251045
0.0243812
0.0239687
0.0232152
0.0229131
0.0221518
21.796
3.3802
1.22847
0.663292
0.436411
0.320418
0.251558
0.206455
0.174773
0.15141
0.133436
0.11929
0.107739
0.0983141
0.0902448
0.0835579
0.0775687
0.0726147
0.0679661
0.0641853
0.0604785
0.0575415
0.0546302
0.052362
0.05025
0.0484136
0.0467104
0.0450626
0.043513
0.0420486
0.0406706
0.0393466
0.0381022
0.0368976
0.0357759
0.0346776
0.0336746
0.0326724
0.031783
0.0308631
0.0300771
0.0292283
0.0285354
0.0277469
0.0271324
0.0263922
0.0258489
0.025145
0.0246695
0.0239735
0.0235884
0.0228552
0.0225852
0.0217746
21.796
3.38021
1.22847
0.663293
0.436413
0.320421
0.25156
0.20646
0.174776
0.151415
0.133441
0.119294
0.107747
0.0983144
0.0902582
0.0835544
0.0775877
0.0726089
0.0679912
0.0641791
0.0605109
0.0575376
0.0546605
0.0523573
0.0502704
0.0484273
0.0466984
0.0450323
0.043474
0.0419992
0.0406154
0.0392924
0.0380405
0.0368464
0.035717
0.0346383
0.0336311
0.0326494
0.031758
0.030855
0.0300693
0.0292349
0.0285396
0.027765
0.0271462
0.026423
0.0258725
0.0251945
0.0247022
0.0240631
0.0236248
0.0229874
0.0227188
0.0218752
21.7959
3.38018
1.22843
0.663274
0.436413
0.320427
0.251577
0.206469
0.174802
0.151423
0.133479
0.119298
0.107803
0.0983176
0.0903361
0.0835583
0.0776965
0.0726192
0.0681403
0.0642058
0.0606969
0.0575847
0.054815
0.0523464
0.0501626
0.048161
0.0463386
0.0446263
0.0430561
0.0415682
0.0401913
0.0388654
0.0376351
0.0364407
0.0353426
0.0342712
0.0333002
0.0323338
0.0314748
0.0305919
0.0298315
0.0290165
0.0283394
0.0275809
0.026972
0.0262609
0.0257127
0.0250418
0.0245496
0.0239442
0.0235022
0.0229482
0.0226118
0.0219721
21.7959
3.38019
1.22843
0.663276
0.436416
0.320431
0.251581
0.206474
0.174807
0.151429
0.133484
0.119307
0.107807
0.0983274
0.0903395
0.0835703
0.0776995
0.0726346
0.0681427
0.0642255
0.0606975
0.0576078
0.0548131
0.0523602
0.050162
0.0481709
0.0463498
0.0446432
0.0430703
0.0415843
0.040199
0.0388818
0.0376386
0.0364647
0.0353514
0.0343042
0.033316
0.0323694
0.0314975
0.0306281
0.0298603
0.0290536
0.028373
0.0276215
0.0270137
0.0263084
0.0257695
0.0250992
0.0246353
0.0239923
0.023612
0.0230064
0.0227011
0.0220074
21.7959
3.38017
1.22842
0.663278
0.436426
0.320444
0.251596
0.206492
0.174828
0.15145
0.133512
0.119331
0.107846
0.0983571
0.0903937
0.0836073
0.0777728
0.0726832
0.0682373
0.0642897
0.0608094
0.0576799
0.0549117
0.0524003
0.050167
0.0481134
0.0462542
0.0445131
0.042925
0.0414204
0.0400389
0.0387117
0.0374871
0.0363031
0.0352124
0.0341551
0.0331854
0.0322338
0.0313736
0.030506
0.0297433
0.0289396
0.028263
0.0275096
0.0269112
0.0261997
0.0256749
0.0249922
0.0245481
0.0239037
0.0235263
0.022948
0.0226624
0.0217715
21.7959
3.38018
1.22842
0.663279
0.436429
0.320448
0.251601
0.206496
0.174833
0.151456
0.133518
0.119338
0.107851
0.0983654
0.0903979
0.0836182
0.0777769
0.0726972
0.0682428
0.064306
0.0608177
0.0576957
0.0549219
0.0524126
0.0501753
0.0481259
0.0462696
0.0445332
0.0429418
0.0414414
0.0400475
0.0387344
0.0374911
0.0363351
0.0352192
0.0341961
0.0331962
0.0322795
0.0313894
0.0305533
0.0297636
0.0289885
0.0282866
0.0275622
0.0269399
0.0262571
0.0257142
0.0250573
0.024599
0.0239557
0.0235953
0.0229686
0.0226152
0.0219717
21.7958
3.38015
1.22839
0.663266
0.436432
0.320459
0.251618
0.206514
0.174855
0.151477
0.133547
0.119363
0.107889
0.0983968
0.0904468
0.0836587
0.0778374
0.0727501
0.0683136
0.0643719
0.0608912
0.057766
0.0549795
0.0524586
0.0501893
0.0481154
0.0462229
0.0444701
0.042854
0.0413447
0.0399383
0.038619
0.0373761
0.0362103
0.0350998
0.0340613
0.0330679
0.0321403
0.0312525
0.0304168
0.0296192
0.0288554
0.0281389
0.027432
0.0268012
0.026134
0.0255981
0.0249437
0.0245053
0.0238361
0.0234814
0.022797
0.0225328
0.0217413
21.7958
3.38017
1.22839
0.663268
0.436435
0.320464
0.251622
0.20652
0.17486
0.151485
0.133551
0.119373
0.107893
0.0984074
0.0904518
0.0836698
0.0778447
0.0727613
0.0683248
0.0643827
0.0609065
0.0577766
0.0549972
0.0524672
0.0502093
0.0481252
0.0462455
0.0444867
0.0428779
0.041366
0.0399598
0.0386443
0.0373941
0.0362421
0.0351166
0.0341041
0.0330864
0.0321924
0.031272
0.0304728
0.0296391
0.0289139
0.0281612
0.0274918
0.0268279
0.0261875
0.0256262
0.0249853
0.0245227
0.0238784
0.0234779
0.02284
0.0224911
0.0218889
21.7958
3.38015
1.22839
0.663272
0.436447
0.320478
0.251641
0.206537
0.174884
0.151504
0.133582
0.119396
0.107932
0.0984368
0.0904979
0.0837074
0.0778978
0.0728083
0.0683827
0.0644373
0.0609633
0.0578292
0.0550389
0.0525042
0.0502181
0.0481284
0.0462157
0.0444525
0.0428197
0.0412983
0.039887
0.0385486
0.0373223
0.0361249
0.0350532
0.0339683
0.0330289
0.0320432
0.0312161
0.0303189
0.0295808
0.0287633
0.0280952
0.0273529
0.0267408
0.0260684
0.0255129
0.0248821
0.0243917
0.0237657
0.0233525
0.0227087
0.0224219
0.0216051
21.7958
3.38016
1.22839
0.663274
0.43645
0.320483
0.251645
0.206544
0.174888
0.151513
0.133585
0.119407
0.107934
0.0984496
0.0904991
0.0837222
0.0778999
0.0728248
0.0683869
0.0644545
0.0609708
0.0578461
0.0550507
0.0525211
0.0502312
0.0481458
0.0462309
0.0444713
0.0428366
0.0413212
0.0399019
0.0385787
0.0373319
0.0361648
0.0350584
0.0340209
0.033033
0.0321065
0.03122
0.0303876
0.0295877
0.0288326
0.0281115
0.0274144
0.0267735
0.0261096
0.0255594
0.024904
0.0244401
0.0237941
0.0233787
0.0227646
0.0224811
0.0216088
21.7957
3.38014
1.22837
0.663266
0.436456
0.320495
0.25166
0.206562
0.174907
0.151535
0.133608
0.119434
0.107961
0.0984828
0.0905322
0.0837611
0.0779379
0.0728683
0.068428
0.0644994
0.0610091
0.0578866
0.0550772
0.0525441
0.0502346
0.0481437
0.0462028
0.0444428
0.0427798
0.0412694
0.039826
0.0385069
0.0372485
0.0360762
0.034977
0.0339156
0.0329548
0.0319835
0.0311452
0.0302506
0.0295168
0.0286867
0.0280396
0.0272608
0.0266867
0.0259536
0.0254397
0.0247532
0.0243071
0.0236548
0.0232604
0.0226839
0.0223018
0.0216972
21.7957
3.38015
1.22837
0.663269
0.436459
0.320501
0.251665
0.206569
0.174912
0.151545
0.133612
0.119446
0.107964
0.0984967
0.0905343
0.0837776
0.0779405
0.072887
0.0684323
0.0645196
0.0610168
0.0579072
0.0550892
0.0525619
0.0502546
0.0481565
0.0462302
0.0444539
0.0428135
0.0412824
0.0398638
0.0385257
0.0372869
0.0361019
0.0350146
0.0339475
0.0329961
0.0320192
0.031193
0.0302865
0.0295696
0.0287227
0.0280931
0.0273028
0.0267403
0.0260024
0.0255004
0.0248103
0.024363
0.0237167
0.0233282
0.0227298
0.0224746
0.0215934
21.7957
3.38014
1.22837
0.663276
0.436471
0.320515
0.251682
0.206585
0.174933
0.151562
0.133637
0.119466
0.107994
0.0985202
0.0905691
0.0838043
0.0779786
0.0729155
0.0684711
0.064547
0.0610513
0.057928
0.0551103
0.0525726
0.0502524
0.0481511
0.0462021
0.044432
0.0427623
0.0412455
0.0397954
0.0384739
0.037209
0.0360363
0.0349333
0.0338717
0.0329095
0.0319388
0.0310948
0.0302087
0.0294583
0.028649
0.0279813
0.0272281
0.0266398
0.0259186
0.025402
0.0247271
0.0242693
0.0236089
0.0232557
0.0226131
0.0223553
0.0214563
21.7957
3.38015
1.22837
0.663279
0.436474
0.32052
0.251686
0.206592
0.174936
0.151571
0.133641
0.119477
0.107997
0.0985318
0.0905731
0.083817
0.077984
0.0729299
0.0684782
0.0645638
0.0610602
0.057947
0.0551219
0.0525943
0.050265
0.0481748
0.0462181
0.044454
0.0427845
0.0412657
0.0398256
0.0384939
0.0372453
0.0360581
0.0349727
0.0338966
0.0329542
0.0319647
0.0311494
0.0302296
0.0295229
0.0286667
0.0280462
0.0272572
0.026689
0.0259755
0.0254367
0.024794
0.0243016
0.0236874
0.0232921
0.0226691
0.0223592
0.0214601
21.7956
3.38013
1.22836
0.663277
0.436483
0.320533
0.251702
0.206608
0.174956
0.151589
0.133664
0.119496
0.108025
0.0985529
0.090604
0.0838393
0.0780164
0.072952
0.0685092
0.0645828
0.0610852
0.0579597
0.0551364
0.0525941
0.0502633
0.0481598
0.0461948
0.0444269
0.0427397
0.0412299
0.039762
0.0384504
0.0371681
0.0360067
0.0348872
0.0338417
0.0328552
0.0319183
0.0310213
0.030206
0.0293589
0.0286644
0.0278744
0.0272419
0.0265476
0.0259058
0.0253325
0.0246805
0.0241702
0.0236011
0.0230926
0.0224995
0.0222542
0.0214139
21.7956
3.38014
1.22836
0.663279
0.436487
0.320538
0.251707
0.206616
0.174961
0.151598
0.133669
0.119507
0.108028
0.098566
0.0906065
0.0838552
0.0780188
0.0729712
0.0685122
0.0646059
0.0610893
0.0579872
0.0551412
0.0526243
0.0502721
0.0481902
0.0462094
0.0444565
0.0427628
0.0412564
0.0397965
0.038473
0.0372149
0.0360247
0.0349443
0.0338551
0.0329227
0.0319255
0.0311021
0.0302026
0.0294537
0.0286558
0.0279601
0.0272526
0.0265878
0.0259722
0.0253128
0.0247908
0.024159
0.0236542
0.0231415
0.0225325
0.0221407
0.0212814
21.7956
3.38015
1.22837
0.663292
0.436501
0.320551
0.251722
0.206628
0.174977
0.15161
0.133687
0.119519
0.108049
0.0985777
0.0906295
0.0838661
0.0780435
0.0729798
0.0685366
0.0646093
0.0611115
0.0579808
0.0551576
0.0526062
0.0502778
0.0481588
0.0462026
0.0444159
0.0427416
0.041212
0.0397592
0.0384268
0.0371635
0.0359747
0.0348852
0.0337983
0.0328581
0.031864
0.0310228
0.0301435
0.0293539
0.02859
0.0278501
0.0271548
0.0265027
0.0258071
0.0252896
0.0245903
0.0241431
0.0235654
0.0228723
0.0224368
0.0222522
0.0214552
21.7955
3.38016
1.22837
0.663296
0.436505
0.320556
0.251727
0.206635
0.174983
0.151618
0.133692
0.119528
0.108053
0.0985884
0.0906334
0.0838791
0.0780476
0.0729958
0.0685419
0.0646285
0.0611185
0.0580031
0.0551672
0.0526317
0.0502891
0.0481878
0.0462176
0.0444451
0.0427619
0.0412394
0.0397871
0.038452
0.0371988
0.0360004
0.0349226
0.0338295
0.0328926
0.0319024
0.0310576
0.0301818
0.0293957
0.0286231
0.0278901
0.0272008
0.0265164
0.0258842
0.0252789
0.0247075
0.0240683
0.023668
0.0230607
0.0224087
0.0222763
0.0215066
21.7954
3.38021
1.22842
0.663341
0.436549
0.320597
0.251764
0.206668
0.175015
0.151646
0.133722
0.119551
0.108083
0.098607
0.0906639
0.0838925
0.0780796
0.0730024
0.0685746
0.0646261
0.0611498
0.0579905
0.0551945
0.0526066
0.0503084
0.0481525
0.046223
0.0444043
0.0427489
0.0411985
0.0397508
0.0384124
0.0371377
0.0359568
0.0348435
0.0337741
0.0328052
0.031837
0.0309657
0.0301209
0.0293086
0.0285759
0.0278225
0.0272053
0.0264877
0.0259252
0.0253782
0.0248055
0.0242365
0.0241506
0.0236189
0.0235568
0.0236774
0.0237966
21.7954
3.38022
1.22843
0.663344
0.436552
0.320601
0.251769
0.206674
0.175019
0.151653
0.133726
0.11956
0.108086
0.0986198
0.0906667
0.0839091
0.078082
0.0730231
0.0685772
0.0646507
0.061154
0.0580185
0.0552004
0.0526364
0.0503187
0.0481829
0.0462369
0.0444344
0.0427654
0.0412284
0.0397711
0.0384424
0.0371632
0.0359869
0.0348739
0.0338055
0.0328383
0.0318711
0.0310021
0.0301566
0.0293491
0.0286212
0.0278532
0.0272866
0.0264913
0.0260588
0.0253879
0.0248978
0.0243681
0.0241928
0.0242805
0.023721
0.0238522
0.0239172
21.7955
3.37993
1.22801
0.662973
0.436238
0.320315
0.251506
0.206423
0.174798
0.151445
0.13353
0.119363
0.107896
0.0984216
0.0904763