/*--------------------------------*- C++ -*----------------------------------*\
| =========                 |                                                 |
| \\      /  F ield         | OpenFOAM: The Open Source CFD Toolbox           |
|  \\    /   O peration     | Version:  4.1                                   |
|   \\  /    A nd           | Web:      www.OpenFOAM.org                      |
|    \\/     M anipulation  |                                                 |
\*---------------------------------------------------------------------------*/
FoamFile
{
    version     2.0;
    format      ascii;
    class       volScalarField;
    location    "58";
    object      p;
}
// * * * * * * * * * * * * * * * * * * * * * * * * * * * * * * * * * * * * * //

dimensions      [0 2 -2 0 0 0 0];

internalField   nonuniform List<scalar> 
4432
(
100847
100848
100848
100850
100853
100856
100860
100864
100869
100875
100882
100890
100899
100907
100915
100922
100928
100932
100938
100950
100968
100988
101008
101030
101054
101079
101102
101120
101133
101142
101148
101151
101155
101161
101165
101157
101147
101151
101156
101155
101156
101160
101169
101180
101189
101202
101191
101198
101233
101238
101177
101110
101064
101093
100847
100848
100848
100850
100853
100856
100860
100864
100869
100875
100882
100890
100899
100907
100915
100922
100928
100932
100938
100950
100969
100989
101009
101031
101056
101081
101103
101120
101133
101143
101150
101154
101157
101159
101161
101157
101151
101147
101149
101155
101161
101165
101170
101173
101181
101209
101209
101198
101219
101226
101174
101129
101045
101072
100846
100846
100847
100848
100851
100854
100857
100861
100866
100872
100879
100888
100897
100906
100917
100929
100945
100963
100978
100990
101004
101021
101038
101054
101071
101087
101103
101119
101135
101148
101156
101160
101160
101156
101151
101140
101135
101137
101143
101151
101155
101156
101163
101175
101185
101193
101200
101209
101229
101233
101223
101194
100925
101187
100846
100846
100846
100848
100851
100854
100857
100861
100866
100872
100879
100888
100897
100906
100917
100929
100944
100963
100979
100991
101003
101019
101036
101052
101068
101084
101101
101117
101132
101145
101152
101154
101154
101156
101153
101144
101137
101137
101144
101153
101158
101159
101164
101176
101183
101193
101201
101206
101228
101236
101215
101203
100910
101182
100844
100845
100845
100847
100850
100853
100856
100860
100865
100871
100878
100886
100896
100905
100916
100928
100940
100952
100965
100982
100999
101017
101034
101051
101067
101086
101105
101123
101141
101156
101165
101171
101179
101180
101163
101140
101132
101141
101153
101165
101164
101155
101160
101173
101183
101191
101208
101216
101223
101214
101206
101188
101182
101302
100844
100845
100845
100847
100850
100853
100856
100860
100865
100871
100878
100886
100896
100905
100916
100928
100940
100952
100965
100981
100999
101016
101033
101049
101066
101084
101103
101121
101139
101155
101164
101167
101169
101171
101165
101148
101140
101143
101150
101159
101162
101158
101163
101175
101183
101189
101202
101217
101225
101220
101207
101177
101148
101323
100842
100842
100843
100845
100847
100850
100854
100857
100862
100868
100875
100883
100892
100902
100912
100923
100934
100945
100957
100976
100995
101013
101029
101046
101065
101087
101110
101131
101152
101172
101185
101199
101217
101210
101174
101124
101109
101126
101148
101173
101163
101144
101155
101169
101181
101192
101212
101222
101231
101225
101212
101207
101217
101206
100842
100842
100843
100845
100847
100850
100853
100857
100862
100868
100875
100883
100892
100902
100913
100923
100934
100945
100957
100975
100994
101012
101029
101045
101065
101087
101110
101130
101152
101172
101184
101196
101210
101205
101180
101145
101133
101139
101152
101162
101160
101150
101156
101167
101180
101193
101209
101225
101229
101229
101217
101211
101178
101185
100839
100840
100840
100842
100844
100847
100850
100854
100859
100864
100872
100880
100889
100898
100908
100918
100930
100940
100951
100966
100984
101002
101020
101039
101061
101088
101116
101142
101169
101191
101209
101231
101250
101248
101275
101095
101093
101113
101134
101173
101168
101140
101157
101172
101186
101197
101198
101209
101240
101255
101262
101214
101188
101310
100839
100839
100840
100842
100844
100847
100850
100854
100859
100864
100872
100880
100889
100898
100908
100918
100929
100940
100951
100965
100983
101002
101020
101039
101062
101089
101116
101142
101171
101194
101211
101228
101243
101235
101211
101148
101119
101125
101147
101173
101176
101151
101157
101166
101179
101192
101207
101224
101238
101248
101245
101240
101162
101270
100836
100836
100837
100838
100840
100843
100846
100850
100854
100860
100867
100875
100884
100893
100902
100912
100923
100933
100943
100956
100973
100991
101009
101028
101051
101080
101111
101142
101174
101201
101222
101247
101281
101449
101740
101223
101101
101100
101115
101123
101121
101165
101176
101178
101184
101196
101195
101206
101236
101265
101276
101221
101188
101299
100836
100836
100837
100838
100840
100843
100846
100850
100854
100860
100867
100875
100884
100893
100902
100912
100922
100933
100943
100956
100973
100991
101009
101029
101053
101081
101111
101141
101173
101202
101220
101233
101248
101294
101328
101188
101109
101108
101127
101150
101162
101161
101167
101172
101180
101187
101196
101210
101233
101253
101262
101221
101203
101333
100832
100832
100832
100834
100836
100839
100842
100845
100849
100855
100862
100869
100878
100886
100896
100905
100915
100925
100936
100948
100963
100980
100997
101015
101034
101062
101095
101126
101155
101181
101206
101244
101337
101746
101556
101472
101121
101108
101118
101123
101130
101169
101185
101184
101187
101197
101199
101203
101222
101251
101282
101260
101199
101275
100832
100832
100832
100834
100836
100839
100842
100845
100849
100855
100862
100869
100878
100887
100896
100905
100915
100925
100936
100948
100963
100981
100998
101016
101037
101064
101094
101122
101152
101181
101201
101222
101257
101349
101420
101234
101097
101098
101118
101130
101140
101159
101175
101183
101189
101192
101189
101196
101218
101244
101260
101239
101231
101278
100827
100827
100828
100829
100831
100834
100836
100840
100844
100849
100855
100863
100871
100879
100888
100897
100907
100917
100928
100940
100953
100968
100984
100999
101013
101034
101065
101093
101115
101132
101149
101175
101206
101314
101320
101176
101113
101108
101119
101131
101142
101158
101175
101182
101188
101198
101201
101197
101201
101225
101269
101272
101225
101285
100827
100827
100828
100829
100831
100834
100836
100840
100844
100849
100855
100863
100871
100879
100888
100897
100907
100917
100928
100940
100953
100968
100983
101000
101016
101037
101064
101087
101110
101133
101149
101168
101202
101240
101277
101183
101109
101109
101128
101144
101149
101155
101167
101177
101192
101199
101192
101188
101200
101231
101268
101263
101229
101297
100822
100822
100822
100823
100825
100828
100830
100833
100837
100842
100848
100855
100863
100871
100879
100888
100898
100908
100919
100930
100942
100955
100967
100978
100989
101000
101021
101044
101067
101087
101106
101125
101155
101180
101199
101144
101113
101117
101129
101135
101143
101151
101167
101184
101196
101203
101201
101188
101183
101203
101248
101264
101248
101308
100822
100822
100822
100823
100826
100828
100830
100833
100837
100842
100848
100855
100863
100871
100879
100888
100898
100908
100919
100930
100942
100954
100967
100978
100989
101002
101022
101043
101064
101085
101103
101125
101155
101180
101197
101170
101140
101133
101140
101151
101161
101161
101162
101174
101194
101203
101196
101184
101188
101216
101255
101259
101246
101326
100816
100816
100816
100817
100819
100822
100824
100827
100830
100835
100840
100847
100854
100862
100870
100879
100888
100898
100909
100920
100931
100940
100948
100954
100957
100962
100974
100998
101026
101052
101075
101102
101134
101161
101189
101181
101165
101158
101157
101161
101166
101169
101178
101196
101214
101222
101213
101194
101179
101190
101230
101261
101280
101308
100816
100816
100816
100817
100819
100822
100824
100827
100830
100835
100840
100847
100854
100862
100870
100879
100888
100898
100909
100920
100931
100940
100947
100952
100955
100961
100976
101000
101026
101050
101075
101101
101133
101165
101191
101191
101179
101172
101173
101178
101181
101178
101177
101189
101211
101222
101210
101190
101181
101193
101226
101252
101269
101324
100810
100810
100810
100811
100813
100815
100817
100819
100822
100826
100832
100838
100844
100852
100859
100868
100877
100888
100899
100910
100920
100927
100930
100927
100917
100913
100928
100960
100995
101026
101057
101091
101125
101160
101192
101204
101207
101211
101217
101221
101222
101221
101219
101222
101229
101238
101234
101211
101183
101181
101216
101248
101250
101190
100810
100810
100810
100811
100813
100815
100817
100819
100822
100826
100832
100838
100844
100852
100860
100868
100877
100888
100899
100910
100920
100927
100929
100925
100915
100912
100930
100962
100995
101025
101057
101092
101128
101163
101191
101204
101209
101217
101226
101233
101235
101232
101225
101222
101232
101241
101231
101205
101182
101183
101209
101239
101220
101193
100803
100803
100803
100804
100805
100807
100809
100811
100814
100817
100822
100827
100834
100841
100848
100856
100866
100877
100889
100901
100912
100920
100919
100902
100866
100846
100868
100914
100956
100993
101032
101074
101114
101154
101189
101217
101240
101262
101279
101286
101282
101270
101257
101246
101237
101240
101241
101226
101197
101181
101199
101230
101234
101205
100803
100803
100803
100804
100806
100807
100809
100811
100814
100817
100822
100828
100834
100841
100848
100856
100866
100877
100889
100901
100912
100919
100917
100900
100863
100845
100871
100915
100955
100992
101032
101074
101116
101154
101188
101217
101241
101265
101284
101292
101288
101277
101261
101246
101241
101244
101239
101217
101192
101183
101200
101227
101218
101250
100796
100796
100796
100797
100798
100799
100801
100802
100805
100808
100812
100816
100822
100828
100835
100843
100853
100865
100878
100893
100909
100921
100919
100887
100802
100759
100790
100855
100909
100953
101000
101049
101097
101144
101192
101238
101281
101316
101341
101345
101330
101304
101278
101258
101245
101242
101243
101236
101215
101194
101191
101203
101212
101190
100796
100796
100796
100797
100798
100799
100801
100802
100805
100808
100812
100817
100822
100828
100835
100843
100853
100865
100878
100893
100909
100920
100916
100879
100790
100755
100799
100861
100910
100954
101001
101050
101098
101145
101192
101239
101284
101320
101345
101348
101331
101305
101278
101258
101247
101245
101242
101228
101208
101192
101191
101201
101210
101181
100789
100789
100789
100789
100790
100791
100792
100793
100795
100797
100801
100805
100809
100815
100821
100829
100838
100850
100866
100886
100912
100942
100960
100906
100729
100599
100686
100793
100859
100910
100965
101021
101076
101133
101196
101262
101325
101373
101407
101405
101373
101328
101289
101264
101250
101244
101244
101239
101225
101205
101193
101193
101203
101186
100789
100789
100789
100789
100790
100791
100792
100793
100795
100797
100801
100805
100809
100815
100821
100829
100838
100850
100865
100886
100912
100941
100957
100896
100689
100611
100702
100792
100856
100911
100968
101023
101077
101134
101197
101261
101327
101374
101425
101420
101378
101326
101284
101258
101246
101243
101243
101237
101221
101203
101193
101193
101207
101182
100781
100781
100781
100781
100782
100782
100783
100784
100785
100786
100789
100792
100796
100800
100805
100812
100820
100831
100847
100871
100909
100977
101047
101054
100560
100273
100518
100734
100815
100859
100919
100983
101044
101111
101190
101277
101363
101417
101479
101478
101418
101343
101290
101261
101245
101238
101237
101236
101229
101214
101201
101195
101204
101186
100781
100781
100781
100781
100782
100782
100783
100784
100785
100786
100789
100792
100796
100800
100805
100812
100820
100831
100847
100871
100908
100974
101042
101030
100337
100426
100604
100743
100813
100869
100929
100989
101047
101112
101195
101286
101377
101400
101477
101482
101412
101335
101287
101261
101246
101239
101238
101235
101226
101212
101201
101197
101207
101186
100774
100774
100773
100773
100773
100774
100774
100774
100774
100775
100776
100778
100781
100784
100787
100792
100798
100807
100820
100840
100870
100918
101039
101317
100292
100517
100716
100782
100807
100859
100921
100984
101060
101159
101273
101395
101435
101499
101539
101463
101362
101299
101264
101240
101226
101222
101224
101223
101216
101207
101199
101205
101182
100774
100774
100773
100773
100773
100774
100774
100774
100774
100775
100776
100778
100781
100784
100787
100792
100798
100807
100820
100840
100869
100916
101034
101293
100239
100547
100714
100784
100823
100877
100934
100991
101063
101150
101284
101405
101388
101368
101511
101447
101356
101300
101266
101241
101226
101221
101222
101220
101214
101206
101199
101206
101186
100766
100766
100765
100765
100765
100765
100764
100764
100763
100763
100763
100764
100765
100766
100768
100770
100774
100778
100785
100794
100802
100799
100762
100691
100351
100402
100692
100808
100802
100793
100818
100854
100895
100965
101070
101191
101326
101355
101410
101577
101496
101390
101315
101265
101228
101205
101196
101198
101204
101208
101209
101205
101213
101181
100766
100766
100765
100765
100765
100765
100764
100764
100763
100763
100763
100764
100765
100766
100768
100770
100774
100778
100785
100793
100801
100797
100756
100672
100374
100458
100726
100818
100805
100803
100832
100866
100901
100956
101009
101185
101196
101430
101364
101373
101384
101349
101304
101262
101229
101207
101197
101197
101202
101206
101207
101203
101210
101185
100758
100758
100758
100757
100756
100756
100755
100753
100752
100751
100750
100749
100749
100748
100748
100747
100747
100747
100746
100744
100738
100719
100683
100608
100538
100550
100695
100767
100779
100787
100793
100791
100794
100842
101009
101186
101166
101366
101636
101428
101375
101341
101285
101234
101198
101175
101164
101166
101176
101190
101204
101210
101231
101197
100758
100758
100758
100757
100756
100756
100755
100753
100752
100751
100750
100749
100749
100748
100748
100747
100747
100747
100746
100744
100737
100718
100681
100606
100527
100558
100702
100770
100779
100787
100796
100796
100794
100816
100864
101099
100902
101257
101698
100755
101177
101312
101284
101237
101200
101179
101168
101168
101176
101188
101201
101208
101224
101191
100751
100751
100750
100749
100748
100747
100745
100743
100741
100739
100737
100734
100732
100729
100726
100723
100719
100714
100708
100699
100686
100665
100635
100592
100545
100542
100597
100660
100704
100730
100734
100713
100680
100672
100778
101042
102092
101175
100288
100669
101174
101299
101252
101197
101161
101142
101134
101136
101146
101163
101180
101191
101222
101186
100751
100751
100750
100749
100748
100747
100745
100743
100741
100739
100737
100734
100732
100729
100726
100723
100719
100714
100708
100699
100686
100664
100634
100591
100546
100551
100608
100665
100701
100722
100727
100711
100687
100601
100741
101070
101582
99322.5
99792
99382.8
100205
101123
101244
101200
101160
101141
101136
101139
101148
101162
101178
101190
101222
101197
100744
100743
100742
100741
100740
100738
100736
100733
100730
100727
100723
100720
100716
100711
100705
100699
100691
100683
100672
100658
100640
100617
100587
100554
100522
100513
100536
100573
100603
100621
100620
100601
100482
100538
100588
99539
98674
98157.6
98425.9
99201.7
100174
101051
101187
101129
101102
101094
101096
101104
101119
101140
101157
101163
101176
101130
100744
100743
100742
100741
100740
100738
100736
100733
100730
100727
100723
100720
100716
100711
100705
100699
100691
100683
100672
100658
100640
100617
100587
100555
100525
100519
100542
100576
100600
100611
100613
100604
100603
100626
100549
100088
101698
98734.6
98553.9
98794.4
99527.7
100541
101107
101136
101102
101088
101092
101105
101122
101140
101152
101153
101185
101167
100737
100736
100735
100734
100732
100730
100727
100723
100719
100715
100710
100705
100699
100692
100685
100675
100665
100652
100637
100619
100598
100572
100543
100513
100486
100470
100470
100476
100478
100481
100480
100505
100238
100441
100806
100040
97808.9
97755.4
98553.2
99209.4
99852.8
100678
101008
101024
101027
101035
101050
101068
101096
101133
101167
101180
101192
101203
100737
100736
100735
100734
100732
100730
100727
100723
100719
100715
100710
100705
100699
100693
100685
100675
100665
100652
100637
100620
100598
100572
100544
100514
100488
100472
100471
100475
100473
100470
100468
100515
100487
100552
100746
98918.5
99002.9
98134.9
98738.4
99297.9
99959.6
100600
100883
100981
101026
101035
101046
101068
101100
101134
101157
101168
101163
101122
100730
100730
100728
100726
100724
100722
100718
100714
100709
100704
100698
100691
100684
100675
100665
100653
100639
100624
100605
100584
100559
100530
100499
100466
100434
100404
100379
100356
100334
100330
100356
100609
100385
99428.7
99242.1
98434
97583.5
98063.4
98960.3
99645.7
100052
100443
100855
100924
100954
100975
100996
101021
101061
101117
101175
101212
101261
101278
100730
100730
100728
100726
100724
100722
100718
100714
100709
100704
100698
100691
100684
100675
100665
100653
100640
100624
100605
100584
100559
100531
100500
100467
100434
100404
100378
100354
100326
100302
100271
100337
100602
99740.2
95410.4
95597.1
97207
98042
99041.1
99769.2
100245
100484
100698
100873
100951
100979
100996
101023
101065
101121
101175
101206
101209
101223
100724
100723
100722
100720
100717
100714
100710
100705
100700
100693
100686
100678
100669
100659
100646
100632
100616
100597
100576
100551
100522
100489
100453
100412
100368
100322
100272
100220
100169
100145
100249
100463
100669
99485.1
97039
96764.6
97529.2
98458.6
99234.8
99668.6
99937.9
100145
100571
100830
100896
100921
100939
100966
101010
101066
101130
101184
101233
101215
100724
100723
100722
100720
100717
100714
100710
100705
100700
100693
100686
100678
100669
100659
100646
100632
100616
100597
100576
100551
100522
100490
100453
100413
100368
100322
100271
100218
100158
100111
100034
100284
100429
99231.3
96018.4
96482.8
97550.7
98532.1
99300.2
99727.6
100031
100225
100489
100777
100884
100921
100942
100969
101013
101070
101139
101195
101244
101262
100718
100718
100716
100714
100711
100708
100703
100697
100691
100684
100675
100666
100656
100643
100629
100613
100594
100573
100548
100520
100487
100449
100406
100356
100299
100234
100159
100066
99968.3
99764.6
100033
100201
100283
90515.8
92700.6
96129.7
97903.7
98982.8
99390
99431
99620.8
99973.5
100388
100699
100805
100857
100881
100910
100952
101003
101083
101150
101209
101248
100718
100718
100716
100714
100711
100708
100703
100697
100691
100684
100675
100666
100656
100644
100629
100613
100595
100573
100548
100520
100487
100449
100406
100356
100299
100234
100158
100069
99961.9
99822.3
99731
99805
97531.3
96126
96065.9
96980
98212.8
99138.1
99442.4
99416
99633.5
100035
100406
100670
100793
100853
100885
100914
100954
101002
101079
101155
101190
101155
100713
100713
100711
100709
100705
100702
100697
100690
100683
100675
100666
100656
100644
100630
100614
100596
100575
100551
100524
100492
100454
100411
100360
100301
100230
100146
100046
99914.6
99747.4
99428.8
98942.2
100264
96155.5
92083.8
94871.5
97627.6
99371.2
100036
99759.6
99338.6
99441.8
99836.8
100243
100543
100699
100787
100827
100857
100891
100936
101009
101086
101156
101235
100713
100713
100711
100709
100706
100702
100697
100690
100683
100675
100666
100656
100644
100630
100614
100596
100575
100551
100524
100492
100454
100411
100360
100301
100230
100146
100045
99924.9
99758.2
99515.7
99213.8
98870.7
96082.8
93678.2
96095.8
98150.1
99646.8
100185
99791.5
99295.1
99424.5
99898.3
100296
100531
100682
100779
100827
100864
100894
100927
100994
101067
101124
101225
100709
100709
100707
100704
100701
100696
100691
100684
100677
100668
100658
100647
100634
100619
100601
100582
100559
100533
100502
100467
100425
100376
100319
100250
100167
100066
99941
99782.9
99567.8
99268.3
98699.7
98432.8
100060
100379
99758.1
100506
101398
101244
100197
99253.1
99224
99650.5
100088
100422
100617
100729
100791
100816
100839
100850
100832
100854
101017
101244
100709
100709
100707
100704
100701
100696
100691
100684
100677
100668
100658
100647
100634
100619
100602
100582
100559
100533
100502
100467
100425
100376
100319
100249
100166
100064
99933.9
99785.9
99597.9
99354.6
99051.4
98350.3
97014.3
97556.4
99156.3
100660
101638
101368
100207
99205
99197.6
99693.5
100129
100414
100600
100720
100786
100822
100846
100853
100832
100782
100929
101194
100706
100705
100703
100700
100697
100692
100687
100679
100671
100662
100651
100639
100625
100609
100591
100570
100545
100517
100484
100446
100401
100347
100283
100206
100113
99998
99856.2
99679.7
99439.6
99134.6
98632.9
98017.1
98249
99645.3
99841.5
100663
101669
101496
100329
99104.8
99004.6
99507.7
100039
100382
100566
100684
100782
100821
100844
100817
100746
100716
100754
101133
100706
100705
100703
100700
100697
100692
100687
100679
100671
100662
100651
100639
100625
100609
100591
100570
100545
100517
100484
100446
100401
100347
100283
100206
100112
99992
99854
99680.4
99446.9
99160.2
98883.1
97727.6
97245.8
98564.8
99839.3
101144
101885
101503
100342
99137
98976.4
99510.5
100058
100392
100566
100678
100769
100819
100864
100873
100821
100691
100577
101048
100703
100703
100700
100697
100694
100689
100683
100676
100667
100657
100646
100633
100619
100602
100583
100560
100535
100505
100470
100429
100381
100324
100255
100172
100072
99949
99797.7
99605
99353.8
99031
98633.8
97995.2
97609.3
98164.4
97792.8
99059.9
100334
100726
100283
99449.3
99238.3
99661.4
100135
100456
100587
100690
100790
100829
100854
100831
100838
100770
100403
100960
100703
100703
100700
100697
100694
100689
100683
100676
100667
100657
100646
100633
100619
100602
100583
100561
100535
100505
100470
100430
100381
100324
100255
100172
100072
99948.1
99804
99610.4
99347.5
99023.9
98591.2
97935.3
97605.5
98189.8
99030.9
99820.2
99914.9
100191
100060
99537.6
99291.9
99631.1
100122
100469
100610
100686
100773
100830
100875
100891
100964
100912
100349
100828
100702
100701
100699
100696
100692
100687
100681
100673
100664
100654
100643
100630
100615
100597
100577
100554
100528
100497
100461
100418
100368
100308
100236
100149
100044
99914.8
99755.5
99555.3
99301.2
98979.2
98598.7
98085.1
97596.7
96960.6
96118.4
96319.2
95672.2
95802.2
96399.1
97859.8
98915.5
99809
100272
100553
100700
100790
100845
100859
100868
100880
100993
100954
100278
100662
100702
100701
100699
100696
100692
100687
100681
100673
100664
100654
100643
100630
100615
100597
100578
100555
100528
100497
100461
100418
100368
100308
100236
100149
100044
99915.1
99757.5
99561.9
99302.8
98970.1
98613.8
98100.5
97620.4
97462
96979
96059.9
95001.8
95253.6
96061.7
97666.3
98992.7
99815.9
100268
100549
100697
100790
100842
100863
100872
100903
101097
101168
100403
100673
100700
100700
100698
100694
100690
100685
100679
100672
100663
100652
100641
100628
100612
100595
100575
100551
100524
100493
100456
100412
100361
100300
100226
100137
100029
99896.5
99733.2
99530
99275.8
98958.7
98571.9
98074.8
97451.5
96857
96245.6
94962.6
92744.6
92052
92963.4
95289.4
97648.2
99160.2
99934.2
100329
100606
100782
100847
100857
100852
100863
100869
100725
100414
100637
100700
100700
100698
100694
100690
100685
100679
100672
100663
100652
100641
100628
100612
100595
100575
100551
100524
100493
100456
100412
100361
100300
100226
100137
100029
99896.5
99733.7
99532.2
99278.1
98962.5
98593.2
98140.5
97632.8
96920.1
95616.7
93970
92713.8
92229.5
93040.5
95156.1
97552
99158.1
99937.4
100318
100577
100769
100852
100859
100855
100876
100903
100783
100474
100626
100654
101038
100468
101447
101445
100462
100391
100460
100357
100241
100429
101024
100411
101452
101405
100453
100249
100405
100219
100245
101311
100769
100430
100736
100333
100419
100260
100417
100220
100309
100192
101287
100724
100317
100722
100295
100228
100250
100282
100226
100260
100292
100829
100901
100817
100955
100839
100944
100817
100659
100709
100641
100649
100562
100619
100535
100802
100891
100793
100932
100773
100927
100746
100631
100681
100629
100541
100493
100495
100471
101115
101046
101110
101095
101248
101095
101250
100482
100601
100536
100596
100510
100375
100343
100449
100246
100267
100208
100266
101101
101038
101100
101092
101234
101086
101237
100064
100502
100286
100359
100295
100504
100451
100536
100212
100321
100270
100401
101124
101037
101129
100902
100888
100900
100880
100554
101329
101015
101011
100614
100295
100373
100314
100228
100313
100260
100350
100243
100362
101122
101030
101122
100895
100868
100894
100869
100496
101294
101017
100499
101006
100232
100238
100355
100285
100417
100290
100400
100346
100443
100525
100682
100518
100643
100534
100644
100538
100152
100357
100235
100433
100410
100441
100438
100520
100669
100517
100644
100543
100644
100545
100310
100374
100329
100449
100444
100450
100441
100927
100849
100631
100840
100974
100916
100603
100776
100822
100917
101285
101368
101458
101374
101304
101078
101125
101287
101368
101456
101374
101276
101075
101063
100427
100506
100552
100562
100352
100472
100491
100456
100343
100324
100325
100473
100435
100342
100430
100280
100264
100290
100336
100826
100736
100447
100744
100977
100881
100416
100721
100716
100859
101291
101338
101429
101228
101373
101139
101002
101266
101365
101422
101359
101272
101077
101061
100024
100247
100301
100309
100003
100124
100303
100257
100270
100221
100325
100274
100075
100058
100237
100246
100226
100264
100203
100248
100313
100538
101325
101013
101005
100522
100219
100174
100299
100531
100405
100521
100352
100275
100370
100475
100190
100505
100338
100378
100399
100340
100404
100244
100229
100284
100305
100227
100260
100235
100295
100394
100396
100375
100341
100263
100357
100316
100263
100347
100137
100148
100508
101293
100987
100995
100525
100169
100209
100113
100459
100299
100153
100442
100147
100308
100439
100452
100211
100224
100226
100209
100241
100206
100191
100254
100225
100237
100239
100227
100252
100241
100298
100251
100260
100278
100212
100261
100284
100260
100256
101122
100985
101050
101192
100979
101192
101130
101082
100940
101021
101166
100924
101103
101167
101114
101043
100954
101183
100967
101189
101112
100514
100554
100465
100354
100537
100342
100526
100467
100458
100501
100342
100506
100330
100413
101091
101031
100938
101196
100938
101187
101088
100349
100484
100425
100366
100406
100401
100358
100312
100409
100366
100312
100368
100335
100287
100697
100844
100695
100762
100834
100689
100708
100671
100815
100752
100646
100823
100638
100675
100273
100298
100279
100182
100234
100245
100323
100206
100185
100170
100255
100184
100203
100236
100592
100804
100624
100715
100603
100787
100610
100606
100800
100720
100620
100794
100620
100618
100207
100191
100271
100264
100209
100199
100268
100211
100241
100281
100281
100224
100257
100232
100543
100562
100450
100508
100579
100498
100505
100358
100275
100243
100356
100345
100159
100211
100294
100540
100514
100574
100519
100584
100524
100516
100012
100235
100143
99651.4
100315
99897.6
99779.7
99786.9
99636.8
99789.2
99694.8
100151
100224
100482
99984.4
100236
100408
99902.5
99680.2
99606.5
99676.9
99577.9
100987
100743
100803
100570
100753
100974
100820
101198
101461
101470
101209
101189
101448
101454
101175
101000
100572
100798
100819
100772
100826
100995
100338
100372
101082
100708
100496
100801
100782
100975
100798
101291
101480
101328
101221
101287
101490
101389
101104
101110
100498
100791
100768
101008
100792
100810
100226
100236
100531
100872
100520
100941
100889
100501
100546
100400
100318
100284
100417
100373
100194
100240
100338
100533
100944
100887
100582
100891
100549
100585
100436
100859
100489
100899
100475
100839
100451
100215
99908.7
99967.6
100316
100260
100162
100316
100107
100442
100893
100849
100332
100832
100459
100558
101511
101338
101495
101286
101337
101495
101508
101571
101548
101559
101555
101563
101543
101548
101557
101519
101298
101340
101503
101343
101506
101498
101085
101096
101511
101338
101299
101499
101338
101509
101495
101568
101555
101543
101539
101515
101306
101357
101505
101340
101495
101510
101561
101552
101563
101544
101080
101082
100358
100510
100371
100389
100430
100475
100284
100063
99732.6
99880.1
99908.4
100141
100102
100219
100039
100332
100343
100497
100138
100308
100445
100221
100486
100487
100382
100435
100390
100465
100451
100395
100373
100383
100425
100430
100387
100360
100378
100346
100405
100398
100470
100457
100410
100460
100410
100400
100398
100358
100344
100408
100400
100368
100395
100345
100361
100291
100273
100295
100287
100338
100366
100354
100332
100373
100350
100335
100302
100332
100310
100309
100367
100762
100805
100292
100782
100356
100277
100065
99765.1
99817.3
100111
100301
100904
100857
100605
100800
100410
100400
100167
99830.4
99882.8
100143
100251
100753
100402
100854
100270
100750
100358
100017
99799.3
99741.2
100067
100014
99764
100051
99725.8
100258
100791
100752
100351
100743
100296
100334
101573
101329
101354
101643
101301
101525
101575
101932
101554
101394
101485
101496
101323
101366
101689
101286
101500
101488
101669
101692
101428
101655
101188
101156
101608
101322
101630
101266
101291
101509
101587
101622
101512
101583
101532
101602
101584
101604
101579
101590
101276
101303
101594
101262
101659
101473
101131
101081
99942.2
100215
99605.6
100020
99890.2
100242
99625.1
99575.6
99660.8
99573.3
99656.6
99589.5
99570.7
99564.8
99552
99894
100009
100173
99615.3
100205
99617.1
99904.8
100191
100256
100265
100264
100302
100265
100306
100281
100258
100285
100259
100286
100260
100299
100289
100338
100323
100315
100328
100303
100262
100244
100252
100250
100053
100067
100233
100292
100246
100205
100264
100257
100219
100246
100253
100250
100265
100245
100238
100250
100241
100221
100200
100249
100232
100246
100221
100235
100259
100259
100979
100749
100788
100540
100966
100763
100796
101182
101453
101175
101443
101184
101454
101175
101453
100990
100540
100772