/*--------------------------------*- C++ -*----------------------------------*\
| =========                 |                                                 |
| \\      /  F ield         | OpenFOAM: The Open Source CFD Toolbox           |
|  \\    /   O peration     | Version:  4.1                                   |
|   \\  /    A nd           | Web:      www.OpenFOAM.org                      |
|    \\/     M anipulation  |                                                 |
\*---------------------------------------------------------------------------*/
FoamFile
{
    version     2.0;
    format      ascii;
    class       surfaceScalarField;
    location    "58";
    object      phi;
}
// * * * * * * * * * * * * * * * * * * * * * * * * * * * * * * * * * * * * * //

dimensions      [0 3 -1 0 0 0 0];

internalField   nonuniform List<scalar> 
11516
(
9.98753e+06
152.371
9543.05
9.96901e+06
256.427
20701.3
9.94078e+06
351.89
30422.6
9.90334e+06
372.476
39668.3
9.85659e+06
389.305
48918.9
9.8002e+06
396.292
58403.2
9.73378e+06
365.136
68255.4
9.65701e+06
311.161
78487.8
9.56971e+06
275.9
89002.2
9.47173e+06
275.601
99817.9
9.36344e+06
333.115
110441
9.24602e+06
436.085
119961
9.12162e+06
442.262
127446
8.99494e+06
329.647
129888
8.87568e+06
-1295.49
123233
8.77879e+06
-2508.61
100864
8.72108e+06
-879.341
58993.6
8.71203e+06
-251.605
9174.39
8.71099e+06
244.937
727.049
8.67277e+06
1372.51
37114.3
8.6022e+06
-1169.58
72250.5
8.50085e+06
-5047.08
107146
8.37632e+06
-8249.45
133728
8.2365e+06
-10905.7
151842
8.08373e+06
-12911.6
166938
7.93819e+06
-14357.9
161359
7.81331e+06
-11774.2
138486
7.71607e+06
-6289.36
105652
7.6466e+06
-4926.44
76568.2
7.60363e+06
-7825.4
52983.3
7.57225e+06
-13084.3
46871.3
7.52115e+06
-18709
71747.6
7.45488e+06
-17837.3
85253.3
7.41613e+06
-4307.52
43272
7.44575e+06
11054.7
-38827.1
7.48935e+06
14877.4
-59986.5
7.49836e+06
12601.5
-23802.9
7.48343e+06
4758.66
7566.55
7.45292e+06
1300.76
19222.7
7.43331e+06
5373.56
243.055
7.43196e+06
9092.84
-26930.5
7.4038e+06
11127.3
-16067.7
7.33979e+06
9518.74
18339.8
7.26016e+06
8988.42
45367.4
7.18428e+06
601.41
56096.8
7.13459e+06
-3864.55
36718.2
7.0937e+06
7301.82
40233.7
7.10339e+06
12308.5
-10643.6
7.11144e+06
22353
-32106.8
7.1717e+06
9532.37
-92321.8
7.29882e+06
7766.52
-136843
7.4507e+06
-3346.25
-204801
7.64215e+06
42151.1
-169399
88845.2
-359210
9.98775e+06
9545.16
9.96899e+06
20712.3
9.94066e+06
30435.5
9.90314e+06
39671.8
9.85636e+06
48921.1
9.79997e+06
58427.9
9.73357e+06
68298.2
9.65677e+06
78545.4
9.56943e+06
89064.7
9.47142e+06
99840
9.36312e+06
110425
9.24576e+06
119862
9.12101e+06
127447
8.993e+06
130408
8.86853e+06
124706
8.76624e+06
100614
8.71058e+06
55142.7
8.70902e+06
1483.23
8.71395e+06
-4479.73
8.67813e+06
37498.7
8.60785e+06
69566.7
8.50759e+06
95788.9
8.38291e+06
117087
8.23919e+06
133569
8.07809e+06
149064
7.92211e+06
142688
7.78637e+06
125299
7.67547e+06
106117
7.59143e+06
80813.9
7.54182e+06
43838
7.52278e+06
7952.3
7.50648e+06
-795.942
7.47835e+06
11558.1
7.4535e+06
20814.2
7.47119e+06
-6614.23
7.50376e+06
-17185.9
7.51302e+06
3012.81
7.49876e+06
13118.9
7.47723e+06
12256.2
7.46232e+06
4735.64
7.45022e+06
2434.29
7.41428e+06
24210.2
7.35075e+06
55880.8
7.26524e+06
73892.2
7.17e+06
85445.2
7.10196e+06
60878
7.05824e+06
55468.4
7.03693e+06
42414.8
7.04419e+06
-12656.2
7.17337e+06
-85226
7.26608e+06
-156245
7.48669e+06
-186790
7.64932e+06
-86279.9
-280692
1.00064e+07
155.436
5572.27
1.00141e+07
254.309
15185.1
1.0022e+07
353.151
24771.7
1.00296e+07
384.234
34414.9
1.00365e+07
415.922
44259.5
1.00427e+07
435.481
54437.3
1.00479e+07
419.402
65042.1
1.00525e+07
379.139
75947.4
1.00555e+07
341.886
87810.4
1.00573e+07
332.176
99908.4
1.00571e+07
350.336
112549
1.00538e+07
377.969
125258
1.00453e+07
496.927
137993
1.00276e+07
619.019
149440
9.98792e+06
1778.36
163360
9.91445e+06
2059.04
173885
9.78405e+06
2731.47
188449
9.58578e+06
1492.91
206618
9.36591e+06
-910.799
221768
9.17201e+06
-1260.95
232489
9.00409e+06
226.505
240181
8.86059e+06
1778.82
249118
8.73043e+06
3040.38
261100
8.60415e+06
4154.57
274241
8.48329e+06
4731.79
283396
8.36287e+06
5373.01
276904
8.24011e+06
6075.77
255935
8.10521e+06
7732.87
233854
7.96767e+06
11784.7
203446
7.83842e+06
15079.9
168345
7.71445e+06
19187.9
152783
7.60555e+06
23908.4
157556
7.53161e+06
22050.6
137912
7.49943e+06
13186.3
63178.8
7.51257e+06
2352.77
-53725.8
7.51793e+06
-11903.9
-51859.7
7.49122e+06
-24461.4
25604.8
7.44457e+06
-32892.6
74860.1
7.38187e+06
-31188
99426.3
7.33607e+06
-21333
54110.2
7.30478e+06
-24418.2
17068.5
7.24408e+06
-35409.3
64920.1
7.17673e+06
-42151.3
110695
7.12011e+06
-45761.8
127170
7.07626e+06
-47519.9
130537
7.03916e+06
-46719.3
112214
7.01457e+06
-45392.8
107874
6.97126e+06
-33564.4
74237
6.93411e+06
-46506.4
53409.7
6.93476e+06
-71787.3
-27916.9
6.84993e+06
-26006.3
-27322.7
6.85437e+06
28211.8
-199425
7.33632e+06
102911
-684726
30180.3
-934213
1.00066e+07
5570.52
1.00141e+07
15182.5
1.00219e+07
24767.1
1.00294e+07
34405.8
1.00363e+07
44246
1.00425e+07
54425.2
1.00479e+07
65037.8
1.00524e+07
75957.1
1.00555e+07
87842.6
1.00573e+07
99952
1.0057e+07
112590
1.00535e+07
125330
1.00453e+07
137907
1.00284e+07
149558
9.99564e+06
160743
9.92782e+06
171958
9.7949e+06
192114
9.59232e+06
206013
9.36653e+06
220595
9.17309e+06
229795
9.00807e+06
234957
8.8648e+06
241018
8.7356e+06
249536
8.61102e+06
262520
8.49347e+06
271625
8.37623e+06
265779
8.25514e+06
253195
8.12953e+06
240411
8.00804e+06
215328
7.89642e+06
172092
7.77657e+06
148369
7.65076e+06
149966
7.55545e+06
129804
7.52763e+06
63263.1
7.54448e+06
-20521.9
7.56014e+06
-45074.3
7.55439e+06
-20592.5
7.51915e+06
4107.15
7.47227e+06
11530.8
7.45581e+06
-14490
7.45808e+06
-35673.4
7.43049e+06
1738.21
7.38838e+06
38257.2
7.35437e+06
50290
7.32682e+06
52456.6
7.30284e+06
26298.8
7.29138e+06
21652.7
7.27731e+06
24330.7
7.25029e+06
-28213.6
7.17289e+06
-89832.9
7.09529e+06
-98069.5
7.22538e+06
-241618
7.58239e+06
-317975
-918806
9.99935e+06
154.042
7142.95
9.99566e+06
251.798
21048.9
9.98766e+06
348.233
34954.4
9.97544e+06
379.366
48871
9.95899e+06
414.908
62938.8
9.93829e+06
441.92
77280.6
9.9136e+06
429.841
91791.5
9.8844e+06
385.291
107125
9.85161e+06
334.263
122521
9.81463e+06
296.686
138781
9.77397e+06
281.689
155082
9.72937e+06
304.326
171767
9.68035e+06
356.125
188992
9.62505e+06
525.722
206724
9.5656e+06
560.266
225085
9.49355e+06
1100.43
247933
9.41353e+06
836.307
270545
9.33123e+06
1171.04
288269
9.23527e+06
909.608
316997
9.12546e+06
702.156
341666
9.00602e+06
1020.29
358766
8.88518e+06
1618.97
368594
8.76519e+06
2507.26
378888
8.64439e+06
4064.5
391278
8.52053e+06
4723.11
402866
8.39077e+06
5951.86
401210
8.24935e+06
8623.22
389484
8.08891e+06
12086.3
383237
7.91315e+06
14702.2
365775
7.7202e+06
14089
348659
7.49831e+06
13285.4
362926
7.27539e+06
19796.3
362172
7.081e+06
39098.6
294841
6.95599e+06
61247.3
127501
6.9654e+06
52325
-115620
6.99329e+06
3374.68
-85065.3
6.95152e+06
-35443
93438.4
6.86905e+06
-47470.8
186218
6.77323e+06
-34890.2
215908
6.75615e+06
-3253.38
67676.2
6.76617e+06
-11645
14727.3
6.73212e+06
-37283.6
126956
6.6667e+06
-47436.8
204082
6.60555e+06
-47139.3
216389
6.5429e+06
-43947.1
209578
6.47558e+06
-37322.5
188588
6.46035e+06
-41033.5
152411
6.46435e+06
-37930.4
110435
6.47935e+06
-51598.2
108917
6.50512e+06
-45798.8
7712.82
6.6059e+06
-16666
-104892
6.6396e+06
15330.2
-221443
6.29006e+06
21782.1
-327754
12570.4
-747587
9.99958e+06
7140.72
9.99564e+06
21041.3
9.98756e+06
34942.6
9.97527e+06
48854.8
9.95879e+06
62920.2
9.93814e+06
77262.4
9.9135e+06
91776.5
9.88431e+06
107116
9.85149e+06
122518
9.81443e+06
138786
9.7737e+06
155087
9.72911e+06
171766
9.68005e+06
188962
9.62527e+06
206675
9.56353e+06
225090
9.49172e+06
247331
9.41455e+06
272096
9.3299e+06
292309
9.23493e+06
316536
9.12723e+06
338247
9.00958e+06
353754
8.89048e+06
361946
8.77174e+06
371042
8.64924e+06
389356
8.52376e+06
402122
8.39337e+06
402573
8.25379e+06
402026
8.10303e+06
404125
7.94012e+06
394233
7.75247e+06
375511
7.53323e+06
382347
7.32135e+06
383141
7.16641e+06
325793
7.10575e+06
185064
7.14994e+06
-14179.8
7.17335e+06
-71381.8
7.15563e+06
-52888.6
7.10613e+06
-14304.9
7.04041e+06
26991.5
7.01344e+06
-702.333
7.00233e+06
-42292.2
6.93708e+06
16806.6
6.85501e+06
51634.9
6.78188e+06
48756.7
6.71197e+06
51395.7
6.65041e+06
30704.5
6.60849e+06
15472.9
6.5968e+06
6337.96
6.56276e+06
-29287.5
6.57381e+06
-132873
6.6657e+06
-192346
6.7167e+06
-274855
6.53283e+06
-75845.6
-742491
9.999e+06
151.443
9132.15
9.99532e+06
244.801
26852.5
9.98755e+06
339.189
44841.6
9.9756e+06
367.838
62977
9.95927e+06
400.398
81410.8
9.93854e+06
425.214
100082
9.91261e+06
411.779
119688
9.88193e+06
366.83
139686
9.84614e+06
316.09
160139
9.80525e+06
280.425
181475
9.75882e+06
268.978
203341
9.70633e+06
295.064
226172
9.6476e+06
342.962
249845
9.58253e+06
496.106
274302
9.51008e+06
567.774
300533
9.43203e+06
1103.79
329177
9.34517e+06
421.494
360177
9.25035e+06
240.568
383920
9.16116e+06
756.857
405517
9.0725e+06
1066.03
429287
8.97646e+06
1334.87
453659
8.87142e+06
1304.08
472690
8.75254e+06
1173.29
497053
8.62107e+06
1495.42
521710
8.47813e+06
910.145
545282
8.31993e+06
634.714
559243
8.14052e+06
2700.16
566749
7.93015e+06
5054.32
589268
7.67429e+06
4183.35
618592
7.3705e+06
5063.01
648856
7.05439e+06
7597.52
672809
6.76874e+06
12748.8
636272
6.549e+06
24778.7
490298
6.47318e+06
43984.8
159875
6.56862e+06
37266.5
-249513
6.63649e+06
-49756.1
-106729
6.55476e+06
-126337
288316
6.42551e+06
-175431
466229
6.31394e+06
-166010
483439
6.33472e+06
-81243.5
124541
6.35381e+06
-30216.7
24380.4
6.31055e+06
-49185
212044
6.22491e+06
-52512.4
312666
6.13966e+06
-47432.7
301152
6.06048e+06
-46815.2
287557
5.97324e+06
-51220.2
279529
5.91785e+06
-56209.1
246437
5.9228e+06
-28600.2
147473
5.91895e+06
-27320.9
178338
5.97464e+06
-44675.1
53274.1
6.10284e+06
-34475.2
-125103
6.14099e+06
-15935.5
-207159
6.14237e+06
-21813.1
-293065
179020
-372401
9.99922e+06
9132.03
9.9953e+06
26848.9
9.98744e+06
44829.9
9.97543e+06
62963.1
9.95908e+06
81398
9.93838e+06
100068
9.9125e+06
119669
9.88183e+06
139658
9.84601e+06
160103
9.80506e+06
181432
9.75855e+06
203294
9.70603e+06
226118
9.64729e+06
249802
9.58232e+06
274217
9.51012e+06
300514
9.4326e+06
328982
9.3464e+06
360843
9.25026e+06
389378
9.16175e+06
405935
9.07371e+06
427406
8.97783e+06
451155
8.87086e+06
470543
8.74921e+06
494196
8.61724e+06
523094
8.47451e+06
546076
8.31277e+06
565317
8.1283e+06
589616
7.9168e+06
621264
7.66743e+06
648691
7.37717e+06
671890
7.08233e+06
685800
6.81736e+06
661833
6.60519e+06
562965
6.52161e+06
312490
6.63245e+06
-88958.4
6.70022e+06
-199301
6.68535e+06
-182767
6.59389e+06
-115421
6.49564e+06
-53735.9
6.51391e+06
-106220
6.51444e+06
-75316.8
6.45087e+06
20052.5
6.34961e+06
70793.5
6.25238e+06
64670.5
6.16088e+06
62915.8
6.06667e+06
48484.8
5.99017e+06
32079.6
5.99191e+06
-6804.33
6.00231e+06
-26565.7
6.04113e+06
-157613
6.07003e+06
-251632
6.10577e+06
-280016
6.26629e+06
-248094
-506997
9.99902e+06
150.253
11087.3
9.9954e+06
242.355
32567.6
9.98778e+06
334.559
54531.7
9.97608e+06
361.234
76794
9.96012e+06
391.801
99462.7
9.93971e+06
415.036
122491
9.91469e+06
400.979
146587
9.8851e+06
356.538
171037
9.85039e+06
307.669
196525
9.81058e+06
274.946
222941
9.76543e+06
268.226
250174
9.71469e+06
292.077
278737
9.65845e+06
357.45
308188
9.59602e+06
465.173
339338
9.52744e+06
665.01
372310
9.45295e+06
831.728
407557
9.36943e+06
1567.72
446530
9.2682e+06
1078.54
486831
9.16388e+06
535.747
509834
9.05995e+06
1628.96
531808
8.95672e+06
2361.03
554694
8.84497e+06
1797.62
582990
8.71518e+06
563.848
626760
8.56411e+06
-276.069
673641
8.39311e+06
-3048.27
719994
8.19185e+06
-4280.55
765559
7.95961e+06
-1533.85
801378
7.69674e+06
1186.01
851750
7.39798e+06
-19.9425
918268
7.07471e+06
-117.304
973214
6.75995e+06
3506.16
984982
6.47357e+06
11872.2
911603
6.24875e+06
24715.2
692068
6.14914e+06
51651.1
208696
6.2536e+06
111107
-463917
6.11376e+06
-62675
92502.8
6.08655e+06
-185987
490303
6.0134e+06
-208496
729968
5.8295e+06
-232930
889472
5.83007e+06
-77590.4
198685
5.82814e+06
-29642.9
55562.7
5.75227e+06
-80197
362870
5.69384e+06
-79233.5
423860
5.60238e+06
-74118.8
426314
5.51212e+06
-77671.1
396065
5.44427e+06
-78074.4
365102
5.39319e+06
-70176.7
321015
5.27655e+06
-17508.2
269143
5.21448e+06
-19095.2
287943
5.33957e+06
-39585
93523.1
5.32721e+06
2786.01
-50346.5
5.2975e+06
56480.3
-177588
5.29221e+06
-1459.16
-248354
69177.3
-330003
9.99924e+06
11084.1
9.99537e+06
32557.8
9.98767e+06
54519.9
9.97591e+06
76782.2
9.95993e+06
99451.2
9.93955e+06
122476
9.91458e+06
146565
9.885e+06
171004
9.85026e+06
196481
9.81039e+06
222888
9.76517e+06
250119
9.71438e+06
278683
9.65816e+06
308147
9.59576e+06
339294
9.52745e+06
372325
9.45284e+06
407527
9.37171e+06
446436
9.27678e+06
487069
9.1706e+06
513355
9.06323e+06
536798
8.95605e+06
560942
8.83628e+06
592304
8.70094e+06
630417
8.5512e+06
672968
8.37744e+06
717321
8.17196e+06
767142
7.94685e+06
813735
7.69626e+06
873610
7.4132e+06
932384
7.10627e+06
979443
6.80644e+06
989888
6.54337e+06
937302
6.35943e+06
772590
6.32973e+06
395541
6.50279e+06
-145726
6.6689e+06
-422814
6.71095e+06
-414266
6.64967e+06
-270944
6.48444e+06
-126272
6.3846e+06
-86520
6.2813e+06
-2328.71
6.15578e+06
61357.9
6.05176e+06
81215.9
5.94436e+06
69914.1
5.83724e+06
59362.9
5.72991e+06
47634.9
5.65022e+06
21220.8
5.62177e+06
5635.66
5.60575e+06
6045
5.50536e+06
-78780
5.4115e+06
-122814
5.49283e+06
-277768
5.50974e+06
-294211
-461310
9.99905e+06
146.752
12979.4
9.9955e+06
233.497
38152.2
9.98811e+06
324.66
63948.9
9.97683e+06
351.437
90149.9
9.96157e+06
380.509
116762
9.94182e+06
400.394
144161
9.91771e+06
382.197
172478
9.88896e+06
333.948
201436
9.85539e+06
282.643
231647
9.81702e+06
250.122
262846
9.77327e+06
247.155
295526
9.72433e+06
276.035
329456
9.66987e+06
348.502
364758
9.60982e+06
444.436
401962
9.54458e+06
659.472
440908
9.47411e+06
770.579
481945
9.39965e+06
1303.19
524971
9.31783e+06
683.367
572133
9.21952e+06
185.077
610069
9.10357e+06
1805.29
646914
8.97472e+06
2806.37
681001
8.83511e+06
787.434
721976
8.69508e+06
-1141.03
768394
8.53963e+06
-2497.3
832501
8.34888e+06
-6180.79
918169
8.10887e+06
-5989.12
1.01323e+06
7.82806e+06
-1882.89
1.08554e+06
7.53572e+06
3140.65
1.14217e+06
7.23335e+06
3580.23
1.21818e+06
6.91751e+06
3480.8
1.28661e+06
6.59272e+06
8061.44
1.30278e+06
6.25709e+06
21692.7
1.22757e+06
5.88662e+06
50337.4
1.01462e+06
5.41281e+06
181029
504733
4.10945e+06
741659
105871
3.16958e+06
525002
516001
2.86349e+06
236252
566812
3.36628e+06
116987
102031
3.83992e+06
10495.2
388279
4.28093e+06
103455
-355983
4.41418e+06
16551.9
-94968.4
4.51244e+06
-38010.5
304189
4.53949e+06
1928.22
385311
4.54766e+06
766.195
372410
4.5323e+06
17050.7
322203
4.51066e+06
36141.1
261490
4.4514e+06
66690.3
221574
4.42805e+06
97091.1
141782
4.47071e+06
140584
101027
4.40399e+06
173189
-7816.94
4.31457e+06
167170
-92749.2
4.20345e+06
169175
-164348
4.0406e+06
121401
-275180
102313
-660626
9.99926e+06
12979
9.99548e+06
38147.8
9.98801e+06
63934.6
9.97666e+06
90134.4
9.96138e+06
116750
9.94166e+06
144148
9.91759e+06
172459
9.88885e+06
201407
9.85525e+06
231606
9.81682e+06
262796
9.77301e+06
295472
9.72403e+06
329405
9.66958e+06
364711
9.60962e+06
401935
9.54452e+06
440859
9.47425e+06
481863
9.4003e+06
524959
9.32034e+06
570481
9.22301e+06
612709
9.10926e+06
653176
8.98045e+06
692697
8.8391e+06
734820
8.68907e+06
779988
8.52226e+06
837933
8.32422e+06
910139
8.08666e+06
999661
7.82995e+06
1.06945e+06
7.55769e+06
1.14977e+06
7.26501e+06
1.22945e+06
6.95987e+06
1.28891e+06
6.66046e+06
1.29809e+06
6.38237e+06
1.2384e+06
6.13509e+06
1.07238e+06
5.99688e+06
723429
6.53459e+06
88351.2
6.7166e+06
-71067.5
6.68249e+06
-141441
6.57062e+06
-46917
6.38258e+06
61182.8
6.1115e+06
282316
5.77223e+06
350705
5.56458e+06
227451
5.47908e+06
152248
5.40195e+06
118182
5.31926e+06
113025
5.22435e+06
121258
5.13989e+06
121609
5.07327e+06
139308
5.04011e+06
165425
4.98011e+06
164430
4.91548e+06
129128
4.80918e+06
-30970.1
4.63315e+06
22616
-231878
9.99909e+06
144.936
14803.8
9.99571e+06
230.596
43517.1
9.98868e+06
320.134
72957.3
9.97793e+06
345.667
102909
9.96338e+06
372.305
133295
9.94448e+06
389.058
164911
9.92135e+06
368.596
197316
9.89369e+06
320.047
230665
9.86154e+06
271.02
265294
9.82413e+06
243.61
301751
9.78206e+06
247.688
339182
9.73478e+06
284.501
378506
9.68207e+06
353.972
419525
9.62426e+06
459.034
462275
9.56145e+06
600.078
506744
9.49401e+06
742.625
552866
9.42208e+06
856.884
600610
9.34708e+06
980.88
650541
9.2616e+06
315.008
698632
9.16299e+06
-386.249
747899
9.04488e+06
-92.7104
800337
8.9022e+06
-1143.58
866997
8.7442e+06
-1499.9
929291
8.57936e+06
-5531.84
1.00404e+06
8.38379e+06
-10029.2
1.12518e+06
8.1329e+06
-10395
1.27632e+06
7.82885e+06
-678.086
1.3927e+06
7.50301e+06
8567.97
1.4616e+06
7.17819e+06
8718.75
1.53605e+06
6.84976e+06
6668.08
1.6098e+06
6.51197e+06
13231
1.62876e+06
6.12517e+06
30708.9
1.58542e+06
5.504e+06
90068.9
1.54787e+06
3.72895e+06
482857
1.80001e+06
1.62969e+06
693907
1.52644e+06
1.58732e+06
17658.1
540665
1.6957e+06
97694.5
334310
1.13885e+06
447001
112412
700285
265669
452690
1.1652e+06
-194448
-700135
1.85286e+06
-228239
-601456
1.99563e+06
73827.4
17308.4
1.995e+06
204338
88390.5
2.0261e+06
216595
23557.6
1.99515e+06
265203
-28866.5
1.9023e+06
354991
-144637
1.81241e+06
447960
-265545
1.78215e+06
497491
-423037
1.83363e+06
470734
-492093
1.97653e+06
397539
-597212
2.2977e+06
308517
-711659
2.70528e+06
199452
-845374
3.28957e+06
210046
-1.02068e+06
61618.4
-1.31698e+06
9.9993e+06
14799.6
9.99569e+06
43503
9.98858e+06
72939.1
9.97777e+06
102891
9.96318e+06
133279
9.94432e+06
164894
9.92123e+06
197295
9.89358e+06
230638
9.86139e+06
265260
9.82393e+06
301714
9.7818e+06
339145
9.73449e+06
378471
9.68181e+06
419491
9.62407e+06
462237
9.56136e+06
506690
9.49404e+06
552780
9.42234e+06
600516
9.34695e+06
649622
9.26273e+06
699339
9.16597e+06
750887
9.0528e+06
806828
8.91679e+06
871125
8.74982e+06
947193
8.56831e+06
1.01497e+06
8.35609e+06
1.11355e+06
8.09937e+06
1.2474e+06
7.81975e+06
1.35e+06
7.52823e+06
1.45114e+06
7.22134e+06
1.54628e+06
6.9069e+06
1.61106e+06
6.59717e+06
1.62214e+06
6.29464e+06
1.5729e+06
5.96846e+06
1.49059e+06
5.65973e+06
1.5337e+06
4.33694e+06
2.10847e+06
2.70932e+06
1.57247e+06
1.79642e+06
845973
1.73324e+06
425563
1.75629e+06
264711
2.04059e+06
-244296
2.30253e+06
-197393
2.27431e+06
275437
2.2886e+06
283106
2.32608e+06
217970
2.38804e+06
211206
2.48196e+06
270715
2.56248e+06
380375
2.55603e+06
536297
2.5749e+06
498253
2.6267e+06
444653
2.66502e+06
343151
2.61668e+06
243738
2.69333e+06
182080
-130009
9.99915e+06
140.305
16507.1
9.996e+06
217.783
48569.6
9.9894e+06
304.659
81455.6
9.97929e+06
329.169
114953
9.96546e+06
354.3
149016
9.94769e+06
369.714
184461
9.92595e+06
349.797
220685
9.89957e+06
304.2
258569
9.86865e+06
260.242
297687
9.83332e+06
238.796
338593
9.79286e+06
248.184
381255
9.74739e+06
285.76
425757
9.69676e+06
345.045
472141
9.64085e+06
426.319
520452
9.57993e+06
512.986
570244
9.51419e+06
628.595
621623
9.44403e+06
657.232
673953
9.37025e+06
669.684
727564
9.2903e+06
97.9298
781960
9.20315e+06
-679.921
838708
9.1057e+06
-1172.33
901278
8.99671e+06
-648.189
979134
8.85824e+06
378.152
1.07084e+06
8.6902e+06
-4671.84
1.17905e+06
8.50222e+06
-12431.2
1.32732e+06
8.28499e+06
-14437.8
1.51021e+06
8.01573e+06
-3007.76
1.66852e+06
7.66637e+06
14180.7
1.80335e+06
7.27387e+06
19570
1.91517e+06
6.89888e+06
10145.7
1.97924e+06
6.57658e+06
11017.7
1.94242e+06
6.27233e+06
18636.5
1.87231e+06
5.92846e+06
35357.4
1.85646e+06
5.40876e+06
234235
2.08705e+06
3.33444e+06
587366
3.00262e+06
1.52272e+06
387514
1.93177e+06
181127
431745
1.11367e+06
-496246
271048
317348
-211533
-154548
140578
-413670
-580197
-81669.3
-553917
-403052
-247509
-145887
-71534.6
-545079
326711
92611.9
-688836
703742
157145
-683333
1.14674e+06
157354
-779828
1.7284e+06
95017.9
-949347
2.41554e+06
19381.7
-1.09062e+06
3.04681e+06
25151
-1.20083e+06
3.55218e+06
111950
-1.25088e+06
3.9767e+06
144229
-1.25894e+06
4.36417e+06
86415.6
-1.26279e+06
4.76358e+06
28696.3
-1.25608e+06
5.06251e+06
7374.1
-1.30624e+06
-55244
-1.38181e+06
9.99935e+06
16506.8
9.99598e+06
48564.2
9.9893e+06
81438.1
9.97913e+06
114933
9.96527e+06
148999
9.94752e+06
184444
9.92583e+06
220664
9.89946e+06
258541
9.86851e+06
297651
9.83312e+06
338554
9.79261e+06
381217
9.74711e+06
425724
9.69649e+06
472111
9.64063e+06
520416
9.57983e+06
570200
9.51414e+06
621520
9.44406e+06
673834
9.36957e+06
727326
9.28927e+06
782029
9.20225e+06
839090
9.10674e+06
902937
9.0009e+06
978406
8.87011e+06
1.08091e+06
8.69786e+06
1.18503e+06
8.48492e+06
1.31681e+06
8.23595e+06
1.4841e+06
7.94214e+06
1.64549e+06
7.63312e+06
1.77741e+06
7.31935e+06
1.88198e+06
6.98809e+06
1.95515e+06
6.6568e+06
1.96705e+06
6.35782e+06
1.8921e+06
6.05406e+06
1.83308e+06
5.85426e+06
1.96555e+06
5.95867e+06
2.58151e+06
5.15891e+06
2.74278e+06
4.14796e+06
2.26644e+06
3.1818e+06
1.63531e+06
2.07898e+06
1.16777e+06
419798
750726
-688960
398761
-780039
201581
-515191
2855.17
-128149
-148708
153038
-60918.7
188163
178085
58881.6
371783
55273.6
360578
335320
120843
761614
30290.6
1.17107e+06
-23181
1.56676e+06
-113443
1.98609e+06
-216753
-332764
9.99922e+06
138.248
18100.3
9.99636e+06
214.093
53281.9
9.99028e+06
298.582
89364.9
9.98093e+06
321.598
126166
9.9681e+06
345.057
163670
9.95154e+06
359.463
202723
9.93104e+06
340.576
242763
9.90649e+06
298.301
284594
9.87738e+06
259.082
328234
9.84378e+06
242.486
373678
9.80557e+06
254.891
421063
9.76208e+06
290.925
470979
9.71327e+06
341.301
522821
9.65931e+06
398.443
576446
9.59994e+06
462.178
631888
9.53567e+06
523.043
688412
9.46666e+06
549.39
745754
9.39386e+06
549.306
803403
9.31763e+06
394.583
861285
9.2382e+06
200.073
921235
9.15602e+06
43.1564
986374
9.07239e+06
472.537
1.06596e+06
8.97704e+06
1455.1
1.16833e+06
8.84673e+06
7543.5
1.30712e+06
8.68022e+06
2890.45
1.49425e+06
8.50244e+06
-6019.12
1.69592e+06
8.30122e+06
-6384.97
1.8841e+06
8.02399e+06
1728.55
2.092e+06
7.65983e+06
19701.9
2.27363e+06
7.22348e+06
31024
2.39808e+06
6.75823e+06
29191.7
2.3876e+06
6.33325e+06
18586
2.28298e+06
5.98674e+06
21205.6
2.18209e+06
5.88229e+06
34651.7
2.1517e+06
5.78571e+06
230680
2.85653e+06
4.62955e+06
207282
2.86244e+06
3.36378e+06
131218
2.2258e+06
2.20858e+06
29804.8
1.41009e+06
1.6812e+06
-92228.1
709994
1.6716e+06
-332672
189806
2.00539e+06
-479893
-174576
2.35737e+06
-466911
-498067
2.6959e+06
-342027
-754656
3.08194e+06
-169771
-965330
3.50973e+06
-92708.2
-1.15264e+06
3.97613e+06
-147524
-1.28589e+06
4.4532e+06
-217228
-1.36442e+06
4.87091e+06
-231197
-1.4193e+06
5.1838e+06
-164815
-1.45725e+06
5.42618e+06
-119307
-1.45468e+06
5.62749e+06
-106077
-1.40888e+06
5.80052e+06
-110696
-1.34036e+06
5.87718e+06
-103785
-1.2765e+06
-149728
-1.17614e+06
9.99942e+06
18095.8
9.99634e+06
53266.1
9.99018e+06
89344.6
9.98077e+06
126145
9.96791e+06
163651
9.95138e+06
202704
9.93091e+06
242741
9.90637e+06
284567
9.87724e+06
328201
9.8436e+06
373641
9.80533e+06
421024
9.76181e+06
470939
9.713e+06
522778
9.65909e+06
576397
9.59978e+06
631826
9.53556e+06
688333
9.46655e+06
745679
9.39356e+06
803271
9.31717e+06
861200
9.23763e+06
921133
9.15607e+06
986761
9.07225e+06
1.06505e+06
8.9883e+06
1.16952e+06
8.88118e+06
1.30413e+06
8.71924e+06
1.486e+06
8.51084e+06
1.69118e+06
8.23659e+06
1.91999e+06
7.9062e+06
2.11535e+06
7.56993e+06
2.24415e+06
7.23131e+06
2.33239e+06
6.86093e+06
2.37399e+06
6.45908e+06
2.317e+06
6.07921e+06
2.2345e+06
5.8467e+06
2.23081e+06
6.12787e+06
2.52622e+06
6.29466e+06
2.77859e+06
6.04584e+06
2.64067e+06
5.47559e+06
2.22657e+06
4.77417e+06
1.76184e+06
3.83556e+06
1.33401e+06
2.76814e+06
952073
1.85652e+06
592316
1.18948e+06
253223
853386
-49831.5
921465
-259939
1.28721e+06
-348149
1.77185e+06
-341933
2.25306e+06
-383084
2.67703e+06
-524419
3.14576e+06
-626803
3.62399e+06
-657700
4.04215e+06
-671976
4.35065e+06
-649276
-681877
9.9993e+06
133.33
19531.8
9.99678e+06
199.563
57562
9.99132e+06
280.962
96572.1
9.98287e+06
302.944
136402
9.9712e+06
325.547
177077
9.95606e+06
339.869
219487
9.93724e+06
322.721
263099
9.91449e+06
283.657
308767
9.88757e+06
247.405
356552
9.85622e+06
231.829
406469
9.82011e+06
240.671
458686
9.779e+06
268.443
513697
9.73242e+06
304.016
571072
9.68001e+06
342.206
630621
9.622e+06
385.502
691834
9.55845e+06
431.036
754175
9.49026e+06
493.242
816587
9.41835e+06
525.377
878224
9.34489e+06
558.872
937951
9.2728e+06
445.032
996426
9.20697e+06
431.029
1.05535e+06
9.14908e+06
-211.178
1.12715e+06
9.10019e+06
1146.65
1.21978e+06
9.04087e+06
9804.54
1.36179e+06
8.92945e+06
18649.9
1.59062e+06
8.76075e+06
13383
1.85479e+06
8.53622e+06
1830.99
2.11232e+06
8.28403e+06
-3780.9
2.35638e+06
8.00873e+06
2739.95
2.55832e+06
7.68725e+06
14780.7
2.71877e+06
7.26669e+06
18751.1
2.80209e+06
6.75051e+06
19977
2.78916e+06
6.24588e+06
30832
2.66061e+06
5.88808e+06
-746.778
2.51358e+06
6.06416e+06
46792.3
2.64054e+06
6.09323e+06
67546.7
2.77577e+06
5.74788e+06
37606.9
2.53947e+06
5.20905e+06
-36101.4
1.98281e+06
4.75286e+06
-133504
1.2877e+06
4.527e+06
-231725
626882
4.55004e+06
-303090
71194.1
4.70576e+06
-315814
-382649
4.92229e+06
-266413
-746418
5.16239e+06
-210454
-1.01217e+06
5.40881e+06
-191965
-1.19771e+06
5.66856e+06
-209074
-1.30796e+06
5.92922e+06
-238111
-1.35912e+06
6.14114e+06
-247691
-1.38129e+06
6.26461e+06
-232342
-1.38781e+06
6.32363e+06
-220355
-1.36692e+06
6.35152e+06
-214247
-1.29766e+06
6.38243e+06
-221582
-1.19615e+06
6.34689e+06
-221933
-1.05445e+06
-189080
-910774
9.9995e+06
19531.7
9.99676e+06
57556.9
9.99123e+06
96554.9
9.98271e+06
136382
9.97101e+06
177060
9.9559e+06
219471
9.93711e+06
263078
9.91438e+06
308740
9.88743e+06
356520
9.85603e+06
406434
9.81988e+06
458650
9.77872e+06
513663
9.73214e+06
571038
9.67977e+06
630582
9.62181e+06
691782
9.55832e+06
754107
9.49013e+06
816490
9.41823e+06
878116
9.34464e+06
937880
9.27241e+06
996289
9.20585e+06
1.05606e+06
9.14771e+06
1.12541e+06
9.1018e+06
1.21959e+06
9.05904e+06
1.36008e+06
8.98303e+06
1.58416e+06
8.82475e+06
1.86611e+06
8.59005e+06
2.16029e+06
8.3009e+06
2.40713e+06
7.97433e+06
2.58239e+06
7.62664e+06
2.70427e+06
7.25112e+06
2.77645e+06
6.82091e+06
2.77251e+06
6.37497e+06
2.71438e+06
5.97508e+06
2.6328e+06
5.9319e+06
2.62117e+06
6.16367e+06
2.6185e+06
6.3686e+06
2.47376e+06
6.39297e+06
2.16139e+06
6.26778e+06
1.74481e+06
6.05978e+06
1.29587e+06
5.82765e+06
859526
5.62722e+06
451067
5.51728e+06
76259.2
5.49658e+06
-246469
5.55252e+06
-496486
5.6751e+06
-657147
5.85925e+06
-747263
6.04322e+06
-821375
6.15348e+06
-902987
6.2123e+06
-961414
6.26592e+06
-978792
6.33618e+06
-1.00421e+06
6.41023e+06
-950752
-1.19307e+06
9.9994e+06
131.475
20817
9.99728e+06
196.161
61388.3
9.99254e+06
275.226
102999
9.98511e+06
295.922
145544
9.97478e+06
317.343
189080
9.9613e+06
331.33
234541
9.94421e+06
315.701
281648
9.92365e+06
279.678
330710
9.89936e+06
246.745
382206
9.87059e+06
233.019
436641
9.83694e+06
241.091
493803
9.79832e+06
264.697
553838
9.75393e+06
293.016
617020
9.7036e+06
322.335
682560
9.64661e+06
354.937
750547
9.58339e+06
401.58
819418
9.51434e+06
465.951
888050
9.44125e+06
527.631
954194
9.36713e+06
621.559
1.01528e+06
9.29824e+06
537.715
1.06863e+06
9.24356e+06
737.731
1.11299e+06
9.21819e+06
-145.568
1.15568e+06
9.22216e+06
1507.15
1.21718e+06
9.25204e+06
6413.7
1.3283e+06
9.22751e+06
16109.7
1.60448e+06
9.07148e+06
17392.3
1.99385e+06
8.80962e+06
6127.09
2.36971e+06
8.51624e+06
-1133.81
2.65712e+06
8.22134e+06
-674.349
2.86376e+06
7.92073e+06
2558.22
3.0266e+06
7.58265e+06
2882.37
3.14533e+06
7.17768e+06
2241.45
3.19728e+06
6.68491e+06
1770.53
3.15461e+06
6.18276e+06
-5094.29
3.02461e+06
5.97067e+06
608.36
2.85838e+06
6.04147e+06
11192.8
2.69893e+06
6.13636e+06
5437.76
2.43817e+06
6.12754e+06
-29568.9
2.01255e+06
6.04486e+06
-92476.6
1.44756e+06
5.98286e+06
-160709
825869
5.99067e+06
-213538
247807
6.05515e+06
-242388
-233221
6.14501e+06
-250002
-602882
6.24313e+06
-248521
-863519
6.33317e+06
-240562
-1.03066e+06
6.41917e+06
-237032
-1.12608e+06
6.49996e+06
-235320
-1.17255e+06
6.55847e+06
-233810
-1.19186e+06
6.57107e+06
-231695
-1.19093e+06
6.55025e+06
-231243
-1.16497e+06
6.53937e+06
-233385
-1.11304e+06
6.59072e+06
-238827
-1.0559e+06
6.7127e+06
-210972
-960295
-172169
-943282
9.99959e+06
20812.8
9.99726e+06
61372.5
9.99245e+06
102980
9.98496e+06
145524
9.9746e+06
189062
9.96114e+06
234523
9.94409e+06
281626
9.92354e+06
330684
9.89923e+06
382174
9.87041e+06
436604
9.83671e+06
493764
9.79805e+06
553798
9.75365e+06
616981
9.70334e+06
682522
9.64641e+06
750509
9.58324e+06
819375
9.51424e+06
888009
9.44114e+06
954171
9.36699e+06
1.0153e+06
9.29782e+06
1.06873e+06
9.24311e+06
1.11414e+06
9.21491e+06
1.15601e+06
9.22218e+06
1.216e+06
9.25785e+06
1.33323e+06
9.24251e+06
1.61691e+06
9.09604e+06
2.03017e+06
8.85581e+06
2.40927e+06
8.5766e+06
2.69067e+06
8.27108e+06
2.89409e+06
7.93613e+06
3.04817e+06
7.57069e+06
3.14931e+06
7.16213e+06
3.18593e+06
6.71958e+06
3.15986e+06
6.2794e+06
3.06947e+06
5.97968e+06
2.92275e+06
5.89984e+06
2.70829e+06
5.97536e+06
2.39774e+06
6.10269e+06
1.99343e+06
6.2182e+06
1.5212e+06
6.31803e+06
1.01674e+06
6.40758e+06
536862
6.47898e+06
121697
6.52369e+06
-224645
6.54288e+06
-507414
6.54321e+06
-719979
6.53185e+06
-860789
6.52406e+06
-955737
6.52232e+06
-1.04815e+06
6.53119e+06
-1.1606e+06
6.59585e+06
-1.29157e+06
6.79109e+06
-1.44469e+06
7.1697e+06
-1.63203e+06
7.80191e+06
-1.80115e+06
-2.25511e+06
9.9995e+06
126.92
21901.6
9.99785e+06
181.541
64660.8
9.99393e+06
257.769
108524
9.98769e+06
277.628
153426
9.97869e+06
298.621
199672
9.96729e+06
312.962
247450
9.95262e+06
299.077
297716
9.93461e+06
265.257
350052
9.91272e+06
233.423
405402
9.88696e+06
217.697
463721
9.85661e+06
221.017
525515
9.82085e+06
236.219
590976
9.77928e+06
257.362
659994
9.73076e+06
280.399
732528
9.675e+06
312.166
807904
9.61139e+06
363.492
884956
9.53982e+06
436.494
962019
9.46153e+06
547.82
1.03551e+06
9.37977e+06
646.252
1.10041e+06
9.30306e+06
833.298
1.14884e+06
9.24748e+06
1157.32
1.17128e+06
9.23678e+06
3043.01
1.16771e+06
9.31258e+06
6208.18
1.13695e+06
9.5089e+06
11928.3
1.12562e+06
9.57738e+06
23895.4
1.50992e+06
9.41379e+06
24947.1