/*--------------------------------*- C++ -*----------------------------------*\
| =========                 |                                                 |
| \\      /  F ield         | OpenFOAM: The Open Source CFD Toolbox           |
|  \\    /   O peration     | Version:  4.1                                   |
|   \\  /    A nd           | Web:      www.OpenFOAM.org                      |
|    \\/     M anipulation  |                                                 |
\*---------------------------------------------------------------------------*/
FoamFile
{
    version     2.0;
    format      ascii;
    class       volVectorField;
    location    "58";
    object      U;
}
// * * * * * * * * * * * * * * * * * * * * * * * * * * * * * * * * * * * * * //

dimensions      [0 1 -1 0 0 0 0];

internalField   nonuniform List<vector> 
4432
(
(39.9817 0.000214625 0.0505892)
(39.9191 0.000625541 0.0905243)
(39.8274 0.00130687 0.119671)
(39.6995 0.00150664 0.147991)
(39.5301 0.00136693 0.177405)
(39.3214 0.00129349 0.208108)
(39.0757 0.00139443 0.240433)
(38.7918 0.00158609 0.273974)
(38.466 0.00178518 0.308854)
(38.096 0.00191784 0.344602)
(37.6821 0.00199227 0.379368)
(37.2277 0.00208144 0.413537)
(36.7383 0.00197142 0.440643)
(36.2328 0.001951 0.460452)
(35.713 -0.00112819 0.454256)
(35.2955 -0.00580823 0.400943)
(34.9331 -0.00439389 0.444257)
(34.7944 -0.00113176 0.353643)
(34.8598 0.000205674 0.254087)
(34.8239 0.00320809 0.383181)
(34.5798 -0.00129761 0.48258)
(34.22 -0.0120779 0.611175)
(33.7576 -0.0232604 0.690406)
(33.2314 -0.032469 0.681219)
(32.6468 -0.0392943 0.66036)
(32.0323 -0.0445895 0.528846)
(31.4776 -0.0401269 0.319636)
(31.0144 -0.025051 0.0979887)
(30.683 -0.0144464 0.00107896)
(30.4742 -0.015811 -0.00250425)
(30.3417 -0.0279077 0.107293)
(30.1984 -0.0434981 0.33667)
(29.9517 -0.0490584 0.408425)
(29.721 -0.0241995 0.00814211)
(29.689 0.0165852 -0.782875)
(29.794 0.0427007 -1.18876)
(30.0045 0.044412 -1.1056)
(30.0363 0.00199823 -0.996931)
(29.8662 0.0161665 -0.83204)
(29.751 0.0671325 -0.637392)
(29.7407 0.0699463 -0.557861)
(29.6954 0.0405323 -0.587116)
(29.5379 -0.00382821 -0.51796)
(29.2102 -0.0171267 -0.435567)
(28.8963 0.00609441 -0.389003)
(28.5862 0.0626117 -0.402113)
(28.387 0.0463007 -0.325112)
(28.5565 -0.0817301 -0.415831)
(28.4485 -0.0819244 -0.494819)
(28.2541 -0.027988 -0.581016)
(28.5358 0.0677394 -0.403122)
(29.6698 0.077059 -0.968594)
(30.5093 0.0202799 -1.53077)
(31.2267 0.278431 -0.282179)
(39.982 0.000214623 0.0505937)
(39.9196 0.000625535 0.0905664)
(39.8274 0.00130679 0.119799)
(39.6987 0.00150719 0.148066)
(39.529 0.00136764 0.177371)
(39.3205 0.00129365 0.208097)
(39.075 0.001394 0.240389)
(38.7911 0.00158514 0.273965)
(38.465 0.00178437 0.308973)
(38.0948 0.0019172 0.344682)
(37.6807 0.00199289 0.379703)
(37.2262 0.00208335 0.413608)
(36.7373 0.00197405 0.441651)
(36.2265 0.00195308 0.460468)
(35.71 -0.00111497 0.46038)
(35.2433 -0.00585843 0.410099)
(34.8736 -0.00445682 0.393575)
(34.7777 -0.00117692 0.30841)
(34.8521 0.000221106 0.244954)
(34.8474 0.00313151 0.395022)
(34.606 -0.00139855 0.470404)
(34.2415 -0.0121413 0.530004)
(33.7872 -0.0234021 0.573545)
(33.254 -0.0329664 0.565785)
(32.6472 -0.0401722 0.550659)
(31.994 -0.0463778 0.409166)
(31.3826 -0.043632 0.214984)
(30.8807 -0.0293316 0.0741302)
(30.4996 -0.0192515 -0.0227233)
(30.223 -0.0227773 -0.143058)
(30.0997 -0.0369885 -0.288844)
(30.0512 -0.056896 -0.330184)
(29.983 -0.0635772 -0.197265)
(29.8495 -0.0385437 -0.0815013)
(29.8411 0.00717536 -0.368037)
(29.8847 0.040068 -0.659907)
(30.0519 0.0460688 -0.608603)
(30.0451 -0.001223 -0.582637)
(29.99 -0.00138431 -0.509272)
(29.889 0.0593435 -0.414452)
(29.8236 0.0834645 -0.341824)
(29.7353 0.0644741 -0.305874)
(29.5463 0.0168958 -0.215023)
(29.2474 0.000248215 -0.153271)
(28.9512 0.025069 -0.146433)
(28.553 0.0811352 -0.24128)
(28.1511 0.0741952 -0.111575)
(28.2266 -0.0692126 0.0122776)
(28.254 -0.0650058 -0.0371879)
(28.1989 0.0151771 -0.15972)
(28.6006 0.0800675 -0.310199)
(29.5254 0.0757701 -0.798435)
(30.3957 0.00757235 -1.30687)
(31.6149 0.269307 -0.142625)
(40.008 0.00021871 0.0184368)
(40.0363 0.00062238 0.0564946)
(40.0718 0.00132145 0.0964652)
(40.1059 0.00153438 0.136699)
(40.1336 0.0014047 0.177211)
(40.1571 0.00134916 0.21862)
(40.1798 0.00150692 0.261414)
(40.2011 0.0018077 0.305952)
(40.2184 0.00213858 0.352493)
(40.2295 0.00240561 0.400935)
(40.2326 0.00256433 0.450585)
(40.2243 0.00252083 0.49929)
(40.2016 0.00259124 0.544203)
(40.1483 0.0023495 0.574799)
(40.0598 0.0049195 0.59784)
(39.8163 0.00649007 0.57149)
(39.4962 0.00909239 0.460069)
(38.8176 0.00869819 0.383464)
(37.8582 -8.40281e-05 0.410516)
(37.0302 -0.00242224 0.4582)
(36.3219 0.00013917 0.525462)
(35.7011 0.00326633 0.612147)
(35.165 0.00627768 0.698008)
(34.6521 0.00904752 0.788026)
(34.1608 0.0104085 0.851035)
(33.6817 0.0117086 0.846966)
(33.2022 0.0139739 0.788086)
(32.6995 0.0210014 0.711242)
(32.1377 0.0350659 0.605757)
(31.5958 0.0435583 0.459076)
(31.0964 0.0490764 0.324236)
(30.6087 0.0525222 0.294996)
(30.2259 0.0509928 0.264071)
(30.0191 0.0425226 0.155492)
(29.9971 0.0252222 0.109928)
(30.0235 -0.0072574 0.270573)
(30.0632 -0.0544409 0.515115)
(29.8961 -0.0914375 0.658735)
(29.6974 -0.0886835 0.665427)
(29.461 -0.0769235 0.500989)
(29.2198 -0.0911914 0.289791)
(29.089 -0.132413 0.332378)
(28.8745 -0.166338 0.449067)
(28.6016 -0.185462 0.542389)
(28.3869 -0.197053 0.590178)
(28.2265 -0.18848 0.50647)
(28.1008 -0.185171 0.568016)
(28.1406 -0.162315 0.330115)
(27.6223 -0.14086 0.231367)
(27.748 -0.21731 0.0127244)
(27.6645 -0.161656 -0.0980182)
(26.6231 -0.00404867 -0.642855)
(28.8967 0.184455 -1.08771)
(30.6563 0.155126 -2.98289)
(40.0083 0.000218706 0.0184348)
(40.0368 0.000622397 0.056507)
(40.0719 0.0013215 0.0964613)
(40.1052 0.00153447 0.136663)
(40.1325 0.00140485 0.177173)
(40.1564 0.00134944 0.218628)
(40.1794 0.0015071 0.261528)
(40.201 0.00180882 0.306199)
(40.2184 0.00213757 0.352889)
(40.2294 0.0024076 0.401384)
(40.2323 0.00255979 0.450936)
(40.2239 0.00252604 0.499667)
(40.2004 0.0025713 0.543852)
(40.1507 0.00242365 0.577304)
(40.0592 0.00462146 0.589188)
(39.8735 0.00626858 0.559742)
(39.5496 0.00963994 0.477477)
(38.857 0.00886579 0.36927)
(37.8716 -0.000100942 0.395213)
(37.0231 -0.0022637 0.450288)
(36.3347 0.000238317 0.505524)
(35.7185 0.00340417 0.581262)
(35.1819 0.00655209 0.652373)
(34.6755 0.00968212 0.72637)
(34.1924 0.0114304 0.782426)
(33.7316 0.0136595 0.777507)
(33.2621 0.017686 0.751736)
(32.7641 0.0243278 0.714912)
(32.2642 0.0352915 0.618058)
(31.8071 0.0480951 0.45114)
(31.349 0.0633218 0.296633)
(30.8251 0.0800845 0.231352)
(30.3611 0.0758241 0.165711)
(30.1202 0.0600812 0.079019)
(30.1122 0.032044 0.0140596)
(30.1593 -0.00697546 0.118755)
(30.2554 -0.0590255 0.274015)
(30.1939 -0.0985949 0.398519)
(30.0332 -0.0978941 0.421852)
(29.8581 -0.0729859 0.357747)
(29.7734 -0.0830921 0.260709)
(29.7548 -0.119969 0.342674)
(29.6748 -0.163164 0.469006)
(29.4967 -0.183006 0.53875)
(29.363 -0.197049 0.536166)
(29.2681 -0.187035 0.39584)
(29.1868 -0.181451 0.444193)
(29.1616 -0.162694 0.460874)
(29.1335 -0.180046 0.233723)
(28.8116 -0.20956 -0.163338)
(28.4077 -0.0905115 -0.392105)
(28.0233 0.014261 -0.876302)
(30.1581 0.145654 -0.961452)
(31.7748 0.118643 -2.58833)
(39.9996 0.000216511 0.0257256)
(39.991 0.000616026 0.0731829)
(39.9705 0.00130343 0.11819)
(39.9326 0.00150977 0.161435)
(39.8737 0.00138664 0.204433)
(39.7967 0.0013549 0.248213)
(39.7051 0.00154471 0.29337)
(39.5991 0.00187425 0.340295)
(39.4772 0.00221631 0.389248)
(39.3383 0.00246131 0.440198)
(39.1823 0.00253598 0.492831)
(39.0099 0.00245806 0.546438)
(38.82 0.00224171 0.600345)
(38.6134 0.00223422 0.653674)
(38.3738 0.00193848 0.70961)
(38.1452 0.00313864 0.780227)
(37.8026 0.00280817 0.833451)
(37.4947 0.00463988 0.939281)
(37.1428 0.00313425 1.11013)
(36.7268 0.00223138 1.22066)
(36.258 0.0030469 1.26566)
(35.7679 0.00482716 1.27956)
(35.288 0.00736021 1.30117)
(34.8048 0.0114562 1.33247)
(34.3184 0.0136825 1.35748)
(33.8226 0.0171734 1.32819)
(33.2857 0.0246143 1.24528)
(32.6874 0.0359214 1.163)
(32.0115 0.0461406 1.01194)
(31.2916 0.0439386 0.864897)
(30.4464 0.0426076 0.862674)
(29.5123 0.0601819 0.915327)
(28.7106 0.109491 0.806449)
(28.0019 0.192712 0.438036)
(27.6021 0.248903 -0.343617)
(27.9407 0.0821112 -0.372051)
(27.9581 -0.104423 0.0619305)
(27.748 -0.195952 0.353834)
(27.2949 -0.207483 0.510315)
(27.0073 -0.0807659 0.136636)
(26.956 -0.0590675 -0.0489797)
(27.009 -0.140153 0.282272)
(26.8713 -0.194617 0.512029)
(26.5774 -0.220239 0.603393)
(26.2833 -0.22886 0.618555)
(26.0519 -0.207015 0.579038)
(25.8919 -0.204712 0.485233)
(25.83 -0.14662 0.281377)
(25.7892 -0.173653 0.129921)
(25.912 -0.158757 -0.348873)
(26.1688 -0.0749099 -0.425388)
(26.6056 -0.0149911 -0.627422)
(26.0645 0.179741 -2.47216)
(24.5664 0.27754 -4.6937)
(39.9999 0.000216507 0.0257198)
(39.9915 0.000616044 0.0731608)
(39.9705 0.00130348 0.118142)
(39.9318 0.00150985 0.161376)
(39.8727 0.00138679 0.204378)
(39.7959 0.00135514 0.248174)
(39.7047 0.00154509 0.29335)
(39.5989 0.0018747 0.340291)
(39.4769 0.00221707 0.389251)
(39.3377 0.00246208 0.440184)
(39.1814 0.00253619 0.492761)
(39.0087 0.00245874 0.546335)
(38.8192 0.0022417 0.600013)
(38.6114 0.00223399 0.653264)
(38.3784 0.00194686 0.707325)
(38.1217 0.00306561 0.773438)
(37.8131 0.00262949 0.849021)
(37.4906 0.00485167 0.945904)
(37.1378 0.00325672 1.10466)
(36.7299 0.0023108 1.20728)
(36.2689 0.00315718 1.2468)
(35.7858 0.00501554 1.25303)
(35.3129 0.00775704 1.26462)
(34.8291 0.0125049 1.30831)
(34.3342 0.0152389 1.34024)
(33.8343 0.019221 1.31705)
(33.2945 0.0275642 1.26545)
(32.713 0.0398037 1.20968)
(32.1002 0.0510371 1.09945)
(31.433 0.0553224 0.931556)
(30.5679 0.0533904 0.916604)
(29.6556 0.0675737 0.976023)
(28.9056 0.124675 0.826814)
(28.4819 0.192997 0.409384)
(28.4077 0.193948 -0.0432782)
(28.5872 0.0919228 -0.223002)
(28.7302 -0.0334571 -0.185119)
(28.596 -0.135443 -0.138242)
(28.3308 -0.152976 -0.182757)
(28.1379 -0.0701249 -0.348162)
(27.9259 -0.0446878 -0.387243)
(27.862 -0.0918617 -0.170895)
(27.6593 -0.126365 -0.0366961)
(27.2972 -0.142523 -0.000717857)
(26.9668 -0.164592 0.0368578)
(26.74 -0.150384 -0.00839444)
(26.5675 -0.149572 -0.116112)
(26.3813 -0.0923101 -0.179225)
(26.3031 -0.123104 -0.504556)
(26.1355 -0.117128 -0.77691)
(26.4221 -0.0606959 -0.676071)
(26.8264 0.0181497 -0.808154)
(27.4013 -0.134133 -0.0449269)
(24.9446 0.341992 -4.31767)
(39.9993 0.000213283 0.0326475)
(39.9897 0.000600887 0.0953672)
(39.9692 0.00127464 0.159073)
(39.9325 0.00147306 0.223874)
(39.8748 0.00134251 0.290335)
(39.7978 0.00129911 0.358746)
(39.7043 0.00147353 0.429221)
(39.5935 0.00178869 0.5018)
(39.4629 0.00212119 0.576492)
(39.3103 0.0023655 0.653212)
(39.1346 0.00244777 0.73183)
(38.9352 0.00238255 0.812287)
(38.7114 0.00215438 0.894675)
(38.4632 0.00208482 0.98029)
(38.1865 0.0017374 1.0718)
(37.8913 0.00272016 1.17518)
(37.5576 0.00165356 1.30964)
(37.1752 0.00161633 1.37104)
(36.8185 0.00254306 1.44274)
(36.4655 0.0032965 1.53727)
(36.0923 0.00417261 1.62871)
(35.6907 0.00429286 1.68626)
(35.245 0.00420678 1.73943)
(34.7368 0.00512901 1.80228)
(34.193 0.00370874 1.87115)
(33.6092 0.00291524 1.89153)
(32.9294 0.00831979 1.87948)
(32.159 0.0167286 1.8999)
(31.2678 0.016903 1.91231)
(30.1224 0.018951 1.93519)
(28.8054 0.0271535 2.06083)
(27.6113 0.0457846 2.02126)
(26.5863 0.0874297 1.6286)
(25.8111 0.152812 0.603444)
(25.9447 0.150969 -0.764978)
(26.4491 -0.0728963 -0.370736)
(26.5526 -0.306396 0.470365)
(26.0176 -0.510172 1.01049)
(25.4459 -0.45534 1.11958)
(25.2544 -0.1673 0.363715)
(25.274 -0.0780826 0.0946829)
(25.401 -0.163745 0.638048)
(25.1529 -0.231933 1.04916)
(24.7472 -0.231507 1.11093)
(24.3791 -0.210902 1.09406)
(24.1158 -0.202021 1.01916)
(23.7842 -0.245423 0.829199)
(23.694 -0.143521 0.644941)
(23.6072 -0.186339 0.613905)
(23.5226 -0.211375 0.178231)
(24.1648 -0.145356 -0.672155)
(24.6243 -0.116988 -1.07184)
(24.8876 -0.0290153 -1.25685)
(23.1817 0.685658 -1.62865)
(39.9996 0.000213279 0.0326425)
(39.9902 0.000600904 0.0953452)
(39.9693 0.00127468 0.159032)
(39.9317 0.00147314 0.22382)
(39.8738 0.00134265 0.29027)
(39.7971 0.00129933 0.358665)
(39.7039 0.00147386 0.429118)
(39.5932 0.00178914 0.501673)
(39.4626 0.00212177 0.576348)
(39.3097 0.00236617 0.653064)
(39.1337 0.00244857 0.731698)
(38.934 0.00238354 0.812159)
(38.7102 0.00215488 0.894577)
(38.4616 0.00208786 0.980041)
(38.187 0.00173908 1.07167)
(37.8876 0.00274168 1.17489)
(37.5671 0.00162222 1.30765)
(37.1748 0.00153756 1.40133)
(36.8197 0.0025497 1.44624)
(36.4697 0.00337849 1.52592)
(36.0979 0.00435477 1.61003)
(35.6966 0.00458261 1.66158)
(35.2352 0.00435632 1.71579)
(34.7171 0.00489176 1.81412)
(34.1841 0.0035688 1.88493)
(33.591 0.00267283 1.91967)
(32.8863 0.00940285 1.9704)
(32.1021 0.0190736 2.03666)
(31.2273 0.0192526 2.07319)
(30.107 0.021059 2.08968)
(28.8715 0.0275414 2.15258)
(27.7692 0.0439773 2.13991)
(26.8152 0.0834397 1.91977)
(26.0437 0.168185 1.21235)
(26.1161 0.186767 -0.105609)
(26.6713 -0.0629473 -0.437441)
(26.8976 -0.335894 -0.206392)
(26.7042 -0.649278 0.081503)
(26.2286 -0.808508 0.397811)
(25.9327 -0.615236 0.126046)
(25.9532 -0.190684 -0.148366)
(25.9839 -0.167027 0.120017)
(25.6678 -0.18301 0.341029)
(25.2245 -0.195457 0.377399)
(24.8442 -0.169824 0.469146)
(24.4841 -0.163325 0.412872)
(24.129 -0.185589 0.314685)
(23.909 -0.112228 0.145626)
(23.9136 -0.113283 2.6242e-05)
(23.9856 -0.123482 -0.473378)
(24.2028 -0.110091 -0.972165)
(24.4373 -0.0252512 -1.25448)
(24.7912 -0.355767 -1.33709)
(24.8806 0.668763 -2.07928)
(39.9993 0.000211671 0.0403933)
(39.9899 0.000595527 0.118823)
(39.9698 0.00126332 0.198994)
(39.9338 0.00145473 0.28007)
(39.8773 0.00131922 0.36232)
(39.8021 0.00127069 0.446262)
(39.711 0.00143867 0.532362)
(39.6034 0.00174721 0.62101)
(39.4768 0.00207523 0.712555)
(39.3289 0.00231733 0.807317)
(39.1587 0.00240525 0.905611)
(38.9658 0.002326 1.00785)
(38.7499 0.00214365 1.11455)
(38.5103 0.00195424 1.22701)
(38.2486 0.00197309 1.3465)
(37.9573 0.00202041 1.47714)
(37.6602 0.00362044 1.61772)
(37.265 0.00431216 1.74976)
(36.8649 0.00324933 1.82038)
(36.435 0.00460442 1.89762)
(36.0234 0.00642196 1.99894)
(35.597 0.00522544 2.096)
(35.1188 0.002546 2.24241)
(34.5482 -0.000501499 2.37962)
(33.9189 -0.00802154 2.50287)
(33.1967 -0.0124662 2.60277)
(32.3091 -0.00554899 2.68348)
(31.33 0.00433178 2.84992)
(30.2265 0.00414363 3.07445)
(28.9342 0.00551992 3.27306)
(27.6328 0.0173732 3.33539)
(26.4424 0.0455735 3.08564)
(25.3553 0.0970056 2.27916)
(24.5811 0.192151 0.529894)
(24.8699 0.282617 -1.46692)
(24.4655 -0.0662738 -0.955616)
(24.6519 -0.598638 1.63524)
(24.222 -0.92266 2.79363)
(23.7647 -1.01215 2.87958)
(23.3613 -0.313265 0.993971)
(23.0308 -0.108836 0.250347)
(23.2834 -0.310746 0.932529)
(23.0073 -0.426769 1.32323)
(22.5792 -0.417804 1.28722)
(22.2208 -0.364002 1.20413)
(21.8855 -0.293933 1.13559)
(21.5988 -0.237634 0.994502)
(21.8261 -0.137869 0.670568)
(20.3523 -0.260381 1.18294)
(21.2092 -0.291211 0.448026)
(21.2436 -0.233066 -0.345787)
(20.9232 0.209319 -1.11683)
(22.328 -0.197496 -1.53636)
(20.1863 0.15995 -0.783976)
(39.9996 0.000211667 0.0403869)
(39.9904 0.000595544 0.118797)
(39.9698 0.00126336 0.198945)
(39.933 0.00145481 0.280016)
(39.8763 0.00131936 0.362272)
(39.8014 0.00127091 0.44621)
(39.7106 0.001439 0.532289)
(39.6031 0.00174766 0.620903)
(39.4764 0.0020758 0.712407)
(39.3283 0.00231807 0.807131)
(39.1578 0.00240579 0.905402)
(38.9646 0.00232814 1.00762)
(38.7486 0.00214834 1.11435)
(38.5093 0.00195997 1.22672)
(38.2472 0.00198741 1.34651)
(37.9597 0.00200728 1.47689)
(37.6522 0.00367615 1.61932)
(37.2995 0.00446415 1.76401)
(36.8954 0.0031132 1.82474)
(36.4546 0.00477246 1.89141)
(36.0303 0.00717174 1.9932)
(35.588 0.00669986 2.09942)
(35.0587 0.00254148 2.24014)
(34.4908 -0.000964219 2.3754)
(33.8793 -0.00829157 2.49711)
(33.1106 -0.013055 2.62448)
(32.2302 -0.0045364 2.77009)
(31.3045 0.00570855 2.96659)
(30.2538 0.00491298 3.1586)
(29.0321 0.00510669 3.32073)
(27.7879 0.0156295 3.36559)
(26.6527 0.0424342 3.18332)
(25.7122 0.0870108 2.59141)
(25.1496 0.189198 1.23381)
(25.5527 0.393713 -0.714414)
(26.147 0.108228 -1.36776)
(26.9306 -0.227282 -1.31866)
(27.0076 -0.328396 -0.940771)
(26.4278 -0.499105 -0.512584)
(25.8469 -0.324037 -0.405705)
(24.9734 -0.0905024 -0.211244)
(24.8845 -0.191028 0.0550375)
(24.5052 -0.257801 0.190768)
(24.015 -0.260661 0.139593)
(23.5864 -0.226765 0.106239)
(23.1542 -0.166304 0.0984457)
(22.7656 -0.0897344 0.0946419)
(22.5837 -0.0623888 0.00837872)
(22.3533 -0.137733 0.0476579)
(22.3636 -0.233028 -0.586089)
(21.5342 0.0393916 -0.840426)
(21.6205 0.202485 -1.17966)
(22.5953 -0.118051 -1.23017)
(21.7451 0.312114 -1.80619)
(39.9994 0.000207186 0.0480801)
(39.9901 0.000575929 0.141525)
(39.9705 0.00122732 0.237171)
(39.9358 0.00141925 0.334186)
(39.8813 0.0012925 0.433049)
(39.8089 0.00124507 0.534468)
(39.7212 0.00140015 0.63899)
(39.6175 0.00168373 0.747018)
(39.4952 0.00197925 0.858903)
(39.3521 0.00218711 0.975005)
(39.1871 0.00224703 1.09571)
(39.0002 0.00214587 1.22146)
(38.7913 0.00196656 1.35285)
(38.5604 0.00174972 1.49062)
(38.309 0.00185872 1.63591)
(38.0345 0.00186845 1.7904)
(37.748 0.00338834 1.95424)
(37.425 0.00291324 2.14328)
(37.0888 0.0033878 2.2697)
(36.6458 0.00605879 2.36661)
(36.164 0.00839912 2.4527)
(35.5963 0.00425973 2.5786)
(35.0311 -0.00208634 2.77588)
(34.4615 -0.00741584 3.01021)
(33.7922 -0.0178639 3.25916)
(32.9602 -0.0202237 3.51884)
(31.8714 -0.00778605 3.71602)
(30.7113 0.00972808 3.95402)
(29.5488 0.0142199 4.27234)
(28.2954 0.0155838 4.52563)
(27.0099 0.0312467 4.54943)
(25.7139 0.0765272 4.19772)
(24.2255 0.175914 3.22705)
(22.8509 0.470984 1.19559)
(22.1913 0.953543 -0.532672)
(8.94811 0.0764003 2.08749)
(12.5585 -0.678585 1.40958)
(13.5123 -1.19696 1.32206)
(14.5046 -1.83384 2.96521)
(16.1171 -0.524072 -0.55342)
(17.8204 -0.232218 -0.0925563)
(17.9402 -0.947434 2.34388)
(17.9656 -0.895277 2.44986)
(18.1407 -0.774844 2.1049)
(18.2508 -0.651803 1.79644)
(18.0721 -0.545587 1.64216)
(17.9526 -0.35121 1.5684)
(17.8806 -0.283904 1.52536)
(17.9097 -0.192288 1.38202)
(17.7797 -0.0683764 0.964181)
(17.0953 0.0926302 0.586809)
(16.5366 0.312283 0.302927)
(17.8983 0.238896 0.0563223)
(15.7619 -0.238133 -1.04358)
(39.9996 0.000207181 0.0480727)
(39.9906 0.000575953 0.141496)
(39.9706 0.00122732 0.23712)
(39.935 0.00141946 0.334136)
(39.8803 0.00129206 0.433011)
(39.8081 0.00124351 0.534428)
(39.7208 0.00139838 0.638924)
(39.6172 0.00168202 0.746907)
(39.4948 0.00197765 0.858737)
(39.3514 0.0021857 0.974787)
(39.1862 0.00224552 1.09545)
(38.999 0.00214556 1.22119)
(38.79 0.00197025 1.3526)
(38.5595 0.00175806 1.4904)
(38.3079 0.00186265 1.63582)
(38.0357 0.00189728 1.79005)
(37.7446 0.00326046 1.95519)
(37.4363 0.00340998 2.13178)
(37.0945 0.00175991 2.28588)
(36.6695 0.00635396 2.40981)
(36.1826 0.00955386 2.51016)
(35.631 0.00570953 2.65378)
(35.0267 -0.00217358 2.81207)
(34.4127 -0.00765973 3.00903)
(33.7133 -0.0186426 3.23975)
(32.8373 -0.0201307 3.4993)
(31.8159 -0.00714359 3.72615)
(30.7758 0.00875997 4.00893)
(29.6645 0.0122415 4.29288)
(28.4387 0.0135076 4.51691)
(27.21 0.0290077 4.5515)
(26.0525 0.0712256 4.29281)
(24.9658 0.163159 3.54547)
(24.1581 0.573404 1.971)
(24.7296 1.93622 -0.214296)
(25.9993 3.37307 -2.19577)
(27.2235 3.17136 -2.21523)
(26.9584 2.89817 -1.68223)
(25.9146 2.68543 -1.09757)
(25.6386 2.37721 -0.611565)
(23.0047 0.851476 0.17004)
(22.6793 0.460243 0.59819)
(22.125 0.489269 0.51013)
(21.7537 0.561676 0.273573)
(21.4353 0.636263 0.0616694)
(21.0989 0.681663 -0.0384819)
(20.7911 0.823858 -0.010575)
(20.4935 0.867801 0.232616)
(20.2843 0.863724 0.439544)
(19.8925 0.922621 0.373678)
(19.7004 0.960326 0.03271)
(18.9801 1.13184 -0.646924)
(20.503 1.09348 -0.000818249)
(17.1143 0.926411 -1.18496)
(39.9994 0.000204588 0.055494)
(39.9905 0.000568814 0.163448)
(39.9719 0.00121417 0.274099)
(39.9389 0.00140416 0.386601)
(39.8869 0.00127874 0.50144)
(39.8177 0.00122767 0.619305)
(39.7337 0.00137059 0.740768)
(39.6342 0.00163568 0.866312)
(39.5165 0.00191091 0.996429)
(39.3785 0.00210267 1.13164)
(39.2192 0.00215352 1.27248)
(39.0384 0.00205948 1.4195)
(38.8365 0.00188193 1.57326)
(38.6137 0.00173062 1.73416)
(38.3708 0.00175923 1.90282)
(38.1087 0.00198972 2.07943)
(37.828 0.00248446 2.26446)
(37.5322 0.00347353 2.46048)
(37.213 0.00353103 2.64342)
(36.8473 0.00282614 2.83504)
(36.4239 0.00197549 3.01509)
(35.8992 -0.00173158 3.23491)
(35.2645 -0.00580884 3.41017)
(34.6048 -0.0157033 3.66521)
(33.9291 -0.0290284 4.07669)
(33.0868 -0.0340351 4.57632)
(31.9437 -0.00789513 4.96117)
(30.6325 0.025343 5.1688)
(29.3506 0.0311636 5.4478)
(28.0402 0.0279495 5.74775)
(26.7212 0.0469958 5.87382)
(25.3169 0.101981 5.65676)
(23.3996 0.254289 5.09354)
(21.9367 0.764122 4.13986)
(6.88778 0.529042 0.0998246)
(6.18124 0.0248747 2.08595)
(6.38221 -0.40812 4.23575)
(5.58285 0.648854 2.29266)
(5.86017 0.341936 2.16138)
(-0.254776 -2.0009 -1.88531)
(8.29062 -1.43922 -0.774165)
(8.08678 -0.794277 0.084844)
(7.46217 -0.170818 0.867559)
(7.86813 0.0936169 1.13881)
(8.32284 0.180567 1.20276)
(7.85324 0.23124 1.08513)
(7.2766 0.45052 0.909419)
(7.28416 0.563913 0.168841)
(7.46665 0.52393 -0.153734)
(7.64957 0.282237 -0.776152)
(8.0011 -0.00468444 -1.23332)
(9.17705 -0.0871681 -1.80714)
(12.5235 0.00455555 -2.94768)
(14.8637 -1.07116 -4.93509)
(39.9997 0.000204582 0.0554853)
(39.991 0.000568837 0.163411)
(39.972 0.00121417 0.274032)
(39.9381 0.00140437 0.38653)
(39.8859 0.0012783 0.501379)
(39.817 0.00122607 0.619242)
(39.7333 0.00136874 0.740681)
(39.6338 0.00163381 0.866189)
(39.5161 0.00190918 0.996269)
(39.3778 0.0021007 1.13145)
(39.2182 0.00215301 1.27229)
(39.0373 0.00206119 1.41933)
(38.8353 0.00188409 1.5731)
(38.6127 0.00173534 1.73407)
(38.3702 0.00176654 1.90268)
(38.1085 0.00200708 2.07916)
(37.8284 0.0024823 2.26404)
(37.5321 0.00353218 2.4566)
(37.2141 0.00353571 2.65202)
(36.8588 0.00315477 2.85416)
(36.4302 0.0029137 3.0579)
(35.9622 -0.000966118 3.26372)
(35.3173 -0.00553167 3.47724)
(34.5945 -0.0153219 3.7163)
(33.8559 -0.0299897 4.03518)
(32.9436 -0.0343337 4.49076)
(31.8074 -0.00556355 4.81694)
(30.6862 0.0217689 5.16621)
(29.5088 0.0280629 5.51999)
(28.2413 0.0245468 5.7761)
(26.9762 0.0446763 5.82785)
(25.7694 0.0966117 5.63171)
(24.5144 0.275027 5.11325)
(23.3488 1.2064 4.30694)
(24.7573 3.49305 3.66623)
(7.05695 0.029445 2.10913)
(9.39963 0.204068 0.402529)
(8.84068 1.17851 0.369179)
(6.9031 1.4419 0.827848)
(7.09463 1.27965 0.912557)
(8.734 0.515738 1.05419)
(9.47314 0.672907 0.908921)
(9.15615 1.10103 1.03771)
(9.11197 1.35009 1.13842)
(9.38082 1.44502 1.01331)
(9.59325 1.50111 0.634313)
(10.1583 1.7284 0.151188)
(10.4562 2.08488 0.116114)
(10.4938 2.15561 0.5657)
(10.3813 2.02207 1.08456)
(10.3761 1.9482 1.18086)
(10.0333 2.07234 0.694132)
(11.856 2.7591 0.0931929)
(9.92531 1.64518 -1.1184)
(39.9995 0.000198819 0.0625327)
(39.9911 0.000540926 0.184312)
(39.9737 0.00116229 0.309189)
(39.9428 0.0013481 0.436313)
(39.8938 0.00122831 0.56624)
(39.8284 0.00117638 0.699762)
(39.7489 0.00130875 0.837593)
(39.6544 0.00155834 0.980374)
(39.5425 0.00181911 1.12875)
(39.4108 0.0020016 1.28335)
(39.2585 0.00205289 1.44475)
(39.0853 0.00196863 1.61343)
(38.8912 0.00179801 1.78966)
(38.6765 0.00165521 1.97348)
(38.4415 0.00162136 2.16458)
(38.1872 0.00184861 2.36234)
(37.9137 0.00216571 2.56591)
(37.6231 0.00279091 2.77514)
(37.313 0.00246834 2.98647)
(36.9774 0.000949858 3.20696)
(36.6045 -0.00153072 3.44662)
(36.1903 -0.00251392 3.73983)
(35.7214 0.000395119 4.05863)
(35.0602 -0.0122826 4.39977)
(34.3219 -0.0314589 4.91721)
(33.5956 -0.0420847 5.60228)
(32.6618 -0.0148926 6.16831)
(31.4029 0.0404756 6.51678)
(29.8771 0.0673018 6.79822)
(28.2546 0.0511199 7.04222)
(26.9012 0.0463811 7.06199)
(25.6999 0.0648207 6.91822)
(24.3561 0.131467 6.96037)
(23.4682 0.564994 8.13439)
(20.8959 1.15918 10.9956)
(4.38195 0.0372009 2.15011)
(3.89434 0.482245 -0.723742)
(-1.56973 -0.00678144 -2.25195)
(-0.130484 -1.44998 0.194544)
(0.12727 -2.77012 -2.07219)
(-4.4837 -2.36474 -2.22867)
(-0.382218 -2.42843 -1.05857)
(0.512907 -1.84987 -1.63611)
(1.66655 -1.18558 -1.68607)
(3.59779 -1.15712 -2.02891)
(5.65858 -1.6313 -2.85841)
(8.14593 -1.78545 -3.6525)
(11.0037 -1.51207 -4.23988)
(13.4884 -1.23151 -4.526)
(15.3436 -1.16377 -4.58772)
(16.6847 -1.30971 -4.61239)
(17.8324 -1.38061 -4.66997)
(19.9874 -1.29203 -4.91497)
(20.702 -1.28716 -5.64971)
(39.9997 0.000198816 0.0625237)
(39.9915 0.00054094 0.184273)
(39.9738 0.00116233 0.309118)
(39.942 0.00134817 0.436236)
(39.8928 0.00122844 0.566174)
(39.8276 0.0011765 0.699695)
(39.7484 0.00130915 0.837507)
(39.6541 0.00155777 0.980261)
(39.5421 0.00181693 1.12862)
(39.4102 0.00199873 1.2832)
(39.2576 0.00205132 1.44461)
(39.0841 0.00196939 1.61331)
(38.89 0.00179962 1.78957)
(38.6754 0.0016576 1.97338)
(38.4408 0.00162457 2.16443)
(38.1868 0.00185344 2.36205)
(37.9137 0.00217944 2.56543)
(37.6223 0.00278979 2.77368)
(37.3102 0.00251216 2.98554)
(36.9737 0.00101405 3.20623)
(36.6016 -0.00136363 3.45217)
(36.1963 -0.00254295 3.73728)
(35.7422 0.00136258 4.12224)
(35.138 -0.0092668 4.44468)
(34.3112 -0.0360933 4.89079)
(33.4837 -0.04498 5.47544)
(32.363 -0.0211109 5.97957)
(31.0966 0.0290488 6.4124)
(29.9167 0.0547211 6.78882)
(28.6232 0.0376551 7.03987)
(27.2279 0.0394297 7.06485)
(25.9891 0.0622099 6.86291)
(24.8788 0.139296 6.69441)
(23.5007 0.704863 7.17547)
(24.7918 2.62161 9.77859)
(21.4306 2.74925 9.9924)
(18.7822 2.01141 7.1868)
(14.9807 1.55853 4.2358)
(10.874 1.23878 2.43298)
(6.98423 0.175473 0.0564515)
(-4.19603 1.17283 -0.422117)
(-2.57963 2.14261 0.983576)
(-2.87789 1.83442 0.342417)
(-1.3681 1.64466 -0.343725)
(0.402346 2.21548 0.437556)
(1.05524 2.5029 2.41792)
(0.378838 2.04738 4.14682)
(-0.709075 1.6127 4.6169)
(1.63972 1.72652 3.0805)
(2.57129 1.72329 2.19056)
(3.62176 1.4475 1.4931)
(4.5284 1.28073 0.736851)
(7.76093 1.43291 0.294454)
(8.31776 0.889561 -0.416359)
(39.9995 0.000195941 0.06911)
(39.9917 0.000532126 0.203868)
(39.9759 0.00114557 0.342069)
(39.9475 0.00132785 0.482921)
(39.9021 0.00120878 0.627108)
(39.8412 0.00115437 0.77555)
(39.767 0.00127869 0.929098)
(39.6787 0.00151789 1.08853)
(39.5735 0.0017702 1.2546)
(39.4494 0.00194952 1.42802)
(39.305 0.00200536 1.60938)
(39.1401 0.00193195 1.79903)
(38.9543 0.00177148 1.99702)
(38.7476 0.001612 2.20297)
(38.52 0.00156499 2.41594)
(38.272 0.00169919 2.63466)
(38.0042 0.00192356 2.85747)
(37.7184 0.00223443 3.08369)
(37.4157 0.002241 3.31279)
(37.0976 0.00190435 3.55134)
(36.7652 0.00122791 3.81267)
(36.4198 0.00173697 4.13213)
(36.0699 0.00268105 4.52984)
(35.6614 0.0203351 5.05771)
(34.9631 0.0101746 5.72697)
(34.3236 -0.00968819 6.44723)
(33.6227 -0.0131947 7.0945)
(32.709 0.00366782 7.78002)
(31.4365 0.0603617 8.40104)
(29.81 0.106089 8.71542)
(27.9358 0.104904 8.38322)
(26.0515 0.0942911 7.9141)
(24.6831 0.0940859 7.88141)
(23.1751 0.220422 8.63505)
(24.6881 0.811509 13.034)
(20.622 0.521451 12.2469)
(16.0757 -0.0405508 7.96593)
(11.0313 -0.74553 3.7119)
(7.06822 -1.45712 0.656103)
(6.20222 -2.23178 -0.795903)
(7.20427 -2.89628 -1.90949)
(8.81318 -3.11549 -2.76959)
(10.1872 -2.83923 -3.14228)
(11.4588 -2.31181 -3.54376)
(13.1171 -1.89852 -4.18362)
(14.9106 -1.75869 -4.87691)
(16.7903 -1.70037 -5.32222)
(18.6793 -1.56927 -5.53557)
(20.3189 -1.38554 -5.63859)
(21.5052 -1.29178 -5.66416)
(22.2286 -1.24348 -5.62085)
(22.589 -1.16397 -5.41926)
(23.6728 -0.981018 -5.3053)
(23.2267 -0.91413 -5.23641)
(39.9998 0.000195938 0.0691007)
(39.9922 0.00053214 0.203825)
(39.976 0.0011456 0.341993)
(39.9468 0.00132792 0.482838)
(39.9011 0.0012089 0.627033)
(39.8405 0.00115451 0.775475)
(39.7665 0.00127916 0.929008)
(39.6783 0.00151745 1.08842)
(39.5731 0.00176807 1.25447)
(39.4488 0.00194686 1.42787)
(39.3042 0.00200309 1.60923)
(39.139 0.00192779 1.79888)
(38.9532 0.00176804 1.99688)
(38.7465 0.0016115 2.2028)
(38.5192 0.00156198 2.41572)
(38.2714 0.00169436 2.63427)
(38.0039 0.00192555 2.85695)
(37.7177 0.00223686 3.08283)
(37.4144 0.00225398 3.31245)
(37.0955 0.00191893 3.55173)
(36.7634 0.00126654 3.81639)
(36.4217 0.00151784 4.12962)
(36.0738 0.00363511 4.54361)
(35.7217 0.0158529 5.03643)
(35.1932 0.00913778 5.66192)
(34.4085 -0.0133872 6.37451)
(33.5771 -0.0282983 7.11021)
(32.2736 -0.00568967 7.72575)
(30.9175 0.0439613 8.16206)
(29.607 0.0819676 8.45486)
(28.1872 0.0938242 8.52074)
(26.6469 0.0722537 8.12839)
(25.1051 0.0899466 7.79184)
(23.5606 0.108572 8.35502)
(23.6135 0.906266 10.7099)
(25.008 1.53022 11.9889)
(25.0341 1.61167 10.88)
(23.3431 1.41213 8.63772)
(20.5804 1.19573 6.44024)
(17.7824 0.62855 4.50506)
(13.0331 0.245148 2.71378)
(8.94632 0.113878 1.19906)
(5.76252 0.218061 0.130188)
(3.77719 0.726362 -0.604259)
(3.1972 1.28038 -1.04758)
(4.21371 1.14851 -1.38586)
(6.00989 0.825847 -1.28423)
(7.91183 0.618727 -1.18601)
(10.0467 0.712745 -1.49102)
(11.9724 0.648504 -1.78827)
(13.563 0.39898 -1.7819)
(15.0432 0.174086 -1.5779)
(17.156 0.159141 -1.43048)
(17.8374 -0.0983104 -1.90977)
(39.9996 0.000189937 0.0751445)
(39.9925 0.000500768 0.221876)
(39.9785 0.00108804 0.372361)
(39.9531 0.00126444 0.525913)
(39.9119 0.00115081 0.683361)
(39.8563 0.00109691 0.845767)
(39.7883 0.001213 1.01413)
(39.707 0.00143847 1.18937)
(39.6098 0.00167615 1.37239)
(39.4944 0.00184487 1.56402)
(39.3592 0.0018918 1.76487)
(39.2036 0.00181024 1.97528)
(39.0269 0.00163562 2.19511)
(38.8284 0.00144926 2.42367)
(38.6077 0.00135763 2.65952)
(38.3648 0.00141193 2.90047)
(38.1008 0.00162626 3.14379)
(37.8182 0.0018764 3.3871)
(37.5226 0.00210561 3.62903)
(37.2212 0.00202456 3.87389)
(36.9315 0.00213652 4.13438)
(36.6565 0.000773608 4.44217)
(36.4377 0.000558954 4.85184)
(36.241 0.0181543 5.41822)
(35.9076 0.0553369 6.26106)
(35.3112 0.0484305 7.13332)
(34.5984 0.0165105 7.91891)
(33.6655 -0.00793359 8.85731)
(32.6023 -0.00282737 9.70185)
(31.4226 0.0374644 10.372)
(29.9914 0.0705682 10.6276)
(28.0992 0.0823877 10.355)
(26.0077 0.11954 9.57509)
(23.8648 0.0579468 9.20854)
(23.6609 0.251184 10.7064)
(24.5916 0.331134 11.8155)
(23.9433 0.0336643 10.6286)