/*--------------------------------*- C++ -*----------------------------------*\
| =========                 |                                                 |
| \\      /  F ield         | OpenFOAM: The Open Source CFD Toolbox           |
|  \\    /   O peration     | Version:  4.1                                   |
|   \\  /    A nd           | Web:      www.OpenFOAM.org                      |
|    \\/     M anipulation  |                                                 |
\*---------------------------------------------------------------------------*/
FoamFile
{
    version     2.0;
    format      ascii;
    class       volScalarField;
    location    "84";
    object      p;
}
// * * * * * * * * * * * * * * * * * * * * * * * * * * * * * * * * * * * * * //

dimensions      [0 2 -2 0 0 0 0];

internalField   nonuniform List<scalar> 
4432
(
-4.02786e+10
-4.02949e+10
-4.04878e+10
-4.05045e+10
-4.05482e+10
-4.06303e+10
-4.07023e+10
-4.07716e+10
-4.08371e+10
-4.09003e+10
-4.09618e+10
-4.10205e+10
-4.10729e+10
-4.1115e+10
-4.11444e+10
-4.11582e+10
-4.11523e+10
-4.11239e+10
-4.10721e+10
-4.09973e+10
-4.0901e+10
-4.07867e+10
-4.06593e+10
-4.05246e+10
-4.0388e+10
-4.02545e+10
-4.01268e+10
-4.00067e+10
-3.98935e+10
-3.97862e+10
-3.96836e+10
-3.95862e+10
-3.94967e+10
-3.94195e+10
-3.93595e+10
-3.93195e+10
-3.92976e+10
-3.92866e+10
-3.92724e+10
-3.9237e+10
-3.91601e+10
-3.9023e+10
-3.88154e+10
-3.8567e+10
-3.8406e+10
-3.85524e+10
-3.90493e+10
-3.92386e+10
-3.78406e+10
-3.51341e+10
-3.61266e+10
-4.68493e+10
-5.76393e+10
-2.96505e+10
-4.03783e+10
-4.03372e+10
-4.04431e+10
-4.05258e+10
-4.05676e+10
-4.06398e+10
-4.07154e+10
-4.07839e+10
-4.08479e+10
-4.09112e+10
-4.09739e+10
-4.10337e+10
-4.10869e+10
-4.11302e+10
-4.11609e+10
-4.11755e+10
-4.117e+10
-4.11416e+10
-4.10895e+10
-4.10139e+10
-4.09164e+10
-4.08007e+10
-4.06714e+10
-4.05346e+10
-4.03955e+10
-4.02592e+10
-4.01287e+10
-4.00056e+10
-3.98893e+10
-3.97789e+10
-3.96733e+10
-3.95728e+10
-3.94802e+10
-3.93998e+10
-3.93367e+10
-3.92939e+10
-3.92695e+10
-3.9256e+10
-3.92388e+10
-3.91996e+10
-3.91188e+10
-3.89781e+10
-3.87684e+10
-3.8521e+10
-3.83673e+10
-3.8534e+10
-3.90659e+10
-3.92544e+10
-3.76183e+10
-3.40708e+10
-3.37153e+10
-4.49802e+10
-6.03421e+10
-3.60432e+10
-4.04358e+10
-4.04017e+10
-4.04602e+10
-4.05572e+10
-4.06047e+10
-4.06625e+10
-4.07417e+10
-4.08154e+10
-4.08865e+10
-4.09578e+10
-4.10282e+10
-4.10978e+10
-4.11621e+10
-4.12144e+10
-4.12501e+10
-4.12668e+10
-4.12617e+10
-4.12318e+10
-4.11764e+10
-4.10948e+10
-4.09883e+10
-4.08605e+10
-4.07165e+10
-4.05637e+10
-4.04088e+10
-4.02583e+10
-4.01159e+10
-3.99842e+10
-3.98629e+10
-3.9751e+10
-3.96469e+10
-3.95506e+10
-3.94643e+10
-3.93917e+10
-3.9337e+10
-3.93023e+10
-3.92855e+10
-3.9278e+10
-3.92644e+10
-3.92257e+10
-3.91406e+10
-3.89882e+10
-3.87557e+10
-3.84728e+10
-3.82786e+10
-3.8413e+10
-3.88917e+10
-3.88748e+10
-3.67901e+10
-3.29886e+10
-3.34285e+10
-4.56867e+10
-5.90764e+10
-3.25909e+10
-4.04288e+10
-4.04234e+10
-4.04902e+10
-4.05591e+10
-4.06093e+10
-4.06698e+10
-4.07496e+10
-4.08224e+10
-4.08939e+10
-4.09655e+10
-4.10374e+10
-4.11086e+10
-4.11737e+10
-4.12264e+10
-4.12627e+10
-4.12809e+10
-4.12773e+10
-4.12481e+10
-4.1193e+10
-4.11113e+10
-4.10041e+10
-4.08751e+10
-4.07295e+10
-4.05748e+10
-4.04177e+10
-4.0265e+10
-4.01202e+10
-3.99863e+10
-3.98626e+10
-3.97484e+10
-3.96421e+10
-3.95437e+10
-3.94552e+10
-3.93802e+10
-3.93229e+10
-3.92856e+10
-3.92661e+10
-3.9256e+10
-3.924e+10
-3.91994e+10
-3.91137e+10
-3.8962e+10
-3.87318e+10
-3.84536e+10
-3.82701e+10
-3.84277e+10
-3.89379e+10
-3.88971e+10
-3.65884e+10
-3.24888e+10
-3.37954e+10
-4.88789e+10
-6.11332e+10
-2.93e+10
-4.05102e+10
-4.05296e+10
-4.04999e+10
-4.0573e+10
-4.06265e+10
-4.06794e+10
-4.07463e+10
-4.08181e+10
-4.08915e+10
-4.09653e+10
-4.10387e+10
-4.11121e+10
-4.11799e+10
-4.12344e+10
-4.1271e+10
-4.12886e+10
-4.12863e+10
-4.12612e+10
-4.12104e+10
-4.11317e+10
-4.1025e+10
-4.08926e+10
-4.07399e+10
-4.05748e+10
-4.04055e+10
-4.02398e+10
-4.00827e+10
-3.99372e+10
-3.98038e+10
-3.96818e+10
-3.95701e+10
-3.94682e+10
-3.93772e+10
-3.93e+10
-3.92403e+10
-3.91997e+10
-3.91758e+10
-3.91607e+10
-3.91409e+10
-3.90988e+10
-3.90144e+10
-3.8864e+10
-3.86303e+10
-3.83437e+10
-3.81645e+10
-3.83805e+10
-3.903e+10
-3.91639e+10
-3.69829e+10
-3.2847e+10
-3.32637e+10
-4.56562e+10
-5.78363e+10
-2.89206e+10
-4.04666e+10
-4.0517e+10
-4.05404e+10
-4.05676e+10
-4.06176e+10
-4.06786e+10
-4.07479e+10
-4.08192e+10
-4.08947e+10
-4.09708e+10
-4.10473e+10
-4.11238e+10
-4.11952e+10
-4.12534e+10
-4.12939e+10
-4.13152e+10
-4.13148e+10
-4.12901e+10
-4.1239e+10
-4.11591e+10
-4.10497e+10
-4.09131e+10
-4.07551e+10
-4.05836e+10
-4.04074e+10
-4.02348e+10
-4.00713e+10
-3.992e+10
-3.97817e+10
-3.96556e+10
-3.95406e+10
-3.94365e+10
-3.93449e+10
-3.92691e+10
-3.92132e+10
-3.91792e+10
-3.91645e+10
-3.91609e+10
-3.91548e+10
-3.9128e+10
-3.90595e+10
-3.89265e+10
-3.87123e+10
-3.84483e+10
-3.8295e+10
-3.85366e+10
-3.91896e+10
-3.92124e+10
-3.66148e+10
-3.1702e+10
-3.16569e+10
-4.52873e+10
-6.08256e+10
-3.45502e+10
-4.04947e+10
-4.05334e+10
-4.05595e+10
-4.05876e+10
-4.06442e+10
-4.0709e+10
-4.07786e+10
-4.08525e+10
-4.09314e+10
-4.10137e+10
-4.10985e+10
-4.11856e+10
-4.12694e+10
-4.13427e+10
-4.13995e+10
-4.14347e+10
-4.14435e+10
-4.14231e+10
-4.13714e+10
-4.12864e+10
-4.11668e+10
-4.10144e+10
-4.08355e+10
-4.06403e+10
-4.04402e+10
-4.02454e+10
-4.00631e+10
-3.98969e+10
-3.97477e+10
-3.96148e+10
-3.94972e+10
-3.93936e+10
-3.93039e+10
-3.92308e+10
-3.9178e+10
-3.91458e+10
-3.91315e+10
-3.91266e+10
-3.91167e+10
-3.90836e+10
-3.90055e+10
-3.8855e+10
-3.86078e+10
-3.82853e+10
-3.80455e+10
-3.81882e+10
-3.87826e+10
-3.8909e+10
-3.67052e+10
-3.22318e+10
-3.17844e+10
-4.42581e+10
-6.02419e+10
-3.61535e+10
-4.04988e+10
-4.05467e+10
-4.05703e+10
-4.05861e+10
-4.06385e+10
-4.0709e+10
-4.07798e+10
-4.08546e+10
-4.09362e+10
-4.10212e+10
-4.11092e+10
-4.11991e+10
-4.12856e+10
-4.13615e+10
-4.1421e+10
-4.14588e+10
-4.14699e+10
-4.14509e+10
-4.13997e+10
-4.1314e+10
-4.11923e+10
-4.10362e+10
-4.08523e+10
-4.06509e+10
-4.04437e+10
-4.02415e+10
-4.00519e+10
-3.98793e+10
-3.97244e+10
-3.95869e+10
-3.94654e+10
-3.93598e+10
-3.92707e+10
-3.92008e+10
-3.91528e+10
-3.91279e+10
-3.91231e+10
-3.91292e+10
-3.91318e+10
-3.91119e+10
-3.9047e+10
-3.89103e+10
-3.86791e+10
-3.83797e+10
-3.81767e+10
-3.83755e+10
-3.90294e+10
-3.9138e+10
-3.67574e+10
-3.2357e+10
-3.35624e+10
-4.88159e+10
-6.1521e+10
-2.94336e+10
-4.04925e+10
-4.05194e+10
-4.05532e+10
-4.05763e+10
-4.06218e+10
-4.06829e+10
-4.07525e+10
-4.08269e+10
-4.09072e+10
-4.0994e+10
-4.10861e+10
-4.11806e+10
-4.12731e+10
-4.13574e+10
-4.14279e+10
-4.14785e+10
-4.15037e+10
-4.14994e+10
-4.14616e+10
-4.13857e+10
-4.12668e+10
-4.11043e+10
-4.09045e+10
-4.06801e+10
-4.04468e+10
-4.02186e+10
-4.00052e+10
-3.98117e+10
-3.96394e+10
-3.94876e+10
-3.93546e+10
-3.92393e+10
-3.91418e+10
-3.90652e+10
-3.90134e+10
-3.89888e+10
-3.89897e+10
-3.90089e+10
-3.90331e+10
-3.90436e+10
-3.90174e+10
-3.89248e+10
-3.87381e+10
-3.84763e+10
-3.82934e+10
-3.8489e+10
-3.91595e+10
-3.94622e+10
-3.75818e+10
-3.33556e+10
-3.24929e+10
-4.38861e+10
-5.98742e+10
-3.28813e+10
-4.05018e+10
-4.05387e+10
-4.05554e+10
-4.05733e+10
-4.06187e+10
-4.06821e+10
-4.0753e+10
-4.08295e+10
-4.09112e+10
-4.09987e+10
-4.10916e+10
-4.11867e+10
-4.1279e+10
-4.13625e+10
-4.14317e+10
-4.14809e+10
-4.1505e+10
-4.14999e+10
-4.14616e+10
-4.13852e+10
-4.12661e+10
-4.11036e+10
-4.09038e+10
-4.06792e+10
-4.04452e+10
-4.02157e+10
-4.00006e+10
-3.98054e+10
-3.96315e+10
-3.94779e+10
-3.93433e+10
-3.9227e+10
-3.91298e+10
-3.90544e+10
-3.90041e+10
-3.89809e+10
-3.89831e+10
-3.90028e+10
-3.90255e+10
-3.90322e+10
-3.89996e+10
-3.88984e+10
-3.87017e+10
-3.84312e+10
-3.82467e+10
-3.84548e+10
-3.91446e+10
-3.9423e+10
-3.746e+10
-3.34986e+10
-3.42668e+10
-4.79014e+10
-6.14792e+10
-3.06748e+10
-4.05128e+10
-4.05303e+10
-4.05592e+10
-4.05908e+10
-4.06365e+10
-4.06974e+10
-4.07697e+10
-4.08487e+10
-4.09347e+10
-4.10312e+10
-4.11385e+10
-4.12515e+10
-4.13655e+10
-4.14752e+10
-4.15738e+10
-4.16527e+10
-4.17032e+10
-4.17188e+10
-4.16944e+10
-4.16237e+10
-4.14985e+10
-4.13142e+10
-4.10776e+10
-4.08073e+10
-4.05267e+10
-4.02564e+10
-4.00106e+10
-3.97956e+10
-3.96123e+10
-3.94579e+10
-3.93285e+10
-3.92213e+10
-3.91357e+10
-3.90736e+10
-3.90379e+10
-3.90307e+10
-3.90507e+10
-3.90907e+10
-3.91374e+10
-3.91717e+10
-3.91692e+10
-3.90992e+10
-3.8933e+10
-3.86896e+10
-3.85221e+10
-3.87352e+10
-3.94576e+10
-3.99149e+10
-3.83568e+10
-3.47033e+10
-3.49872e+10
-4.74238e+10
-6.08375e+10
-3.1289e+10
-4.05236e+10
-4.05465e+10
-4.05734e+10
-4.0604e+10
-4.0652e+10
-4.07123e+10
-4.07832e+10
-4.08632e+10
-4.09507e+10
-4.10474e+10
-4.11535e+10
-4.12656e+10
-4.13791e+10
-4.14887e+10
-4.1588e+10
-4.16684e+10
-4.1721e+10
-4.17383e+10
-4.17147e+10
-4.16439e+10
-4.15182e+10
-4.13332e+10
-4.10956e+10
-4.08242e+10
-4.05425e+10
-4.02714e+10
-4.00251e+10
-3.98101e+10
-3.96272e+10
-3.94733e+10
-3.93446e+10
-3.92381e+10
-3.9153e+10
-3.90909e+10
-3.90543e+10
-3.90451e+10
-3.90619e+10
-3.9098e+10
-3.9141e+10
-3.9173e+10
-3.91712e+10
-3.9107e+10
-3.89548e+10
-3.87358e+10
-3.86054e+10
-3.88683e+10
-3.96422e+10
-4.01157e+10
-3.84557e+10
-3.44284e+10
-3.3967e+10
-4.63889e+10
-6.31262e+10
-3.84343e+10
-4.04725e+10
-4.04862e+10
-4.05093e+10
-4.05436e+10
-4.05918e+10
-4.06559e+10
-4.07321e+10
-4.08165e+10
-4.09106e+10
-4.10186e+10
-4.11402e+10
-4.12718e+10
-4.1409e+10
-4.15461e+10
-4.16747e+10
-4.1784e+10
-4.18621e+10
-4.18998e+10
-4.18909e+10
-4.18272e+10
-4.16952e+10
-4.14817e+10
-4.11911e+10
-4.08506e+10
-4.04975e+10
-4.01639e+10
-3.98699e+10
-3.96236e+10
-3.94238e+10
-3.92645e+10
-3.91382e+10
-3.90388e+10
-3.89638e+10
-3.89131e+10
-3.88884e+10
-3.8891e+10
-3.89189e+10
-3.8965e+10
-3.90152e+10
-3.90494e+10
-3.90417e+10
-3.89598e+10
-3.87743e+10
-3.85022e+10
-3.82937e+10
-3.84541e+10
-3.91254e+10
-3.95396e+10
-3.78382e+10
-3.36207e+10
-3.28926e+10
-4.60038e+10
-6.55654e+10
-4.20553e+10
-4.04672e+10
-4.04805e+10
-4.05045e+10
-4.05412e+10
-4.059e+10
-4.06506e+10
-4.07233e+10
-4.08069e+10
-4.09019e+10
-4.10099e+10
-4.11311e+10
-4.12628e+10
-4.14008e+10
-4.1539e+10
-4.16688e+10
-4.17791e+10
-4.18576e+10
-4.18958e+10
-4.18885e+10
-4.1828e+10
-4.16996e+10
-4.149e+10
-4.12029e+10
-4.0865e+10
-4.05133e+10
-4.01801e+10
-3.98855e+10
-3.96376e+10
-3.94356e+10
-3.92737e+10
-3.91446e+10
-3.90427e+10
-3.89651e+10
-3.89122e+10
-3.88861e+10
-3.88884e+10
-3.89177e+10
-3.89677e+10
-3.90255e+10
-3.90726e+10
-3.90856e+10
-3.90358e+10
-3.88977e+10
-3.86933e+10
-3.85778e+10
-3.88609e+10
-3.9689e+10
-4.02914e+10
-3.8739e+10
-3.43252e+10
-3.24475e+10
-4.40303e+10
-6.43495e+10
-4.25374e+10
-4.04791e+10
-4.04855e+10
-4.04992e+10
-4.05282e+10
-4.05737e+10
-4.06339e+10
-4.07062e+10
-4.07899e+10
-4.08899e+10
-4.10103e+10
-4.11503e+10
-4.1308e+10
-4.14799e+10
-4.16592e+10
-4.18355e+10
-4.19943e+10
-4.21192e+10
-4.21968e+10
-4.22198e+10
-4.21807e+10
-4.20577e+10
-4.18201e+10
-4.14613e+10
-4.10226e+10
-4.05705e+10
-4.01579e+10
-3.98122e+10
-3.95401e+10
-3.93352e+10
-3.91852e+10
-3.90771e+10
-3.90006e+10
-3.89497e+10
-3.89221e+10
-3.89183e+10
-3.89389e+10
-3.8982e+10
-3.90411e+10
-3.91039e+10
-3.91526e+10
-3.91637e+10
-3.91079e+10
-3.89595e+10
-3.87393e+10
-3.86016e+10
-3.88606e+10
-3.96784e+10
-4.0299e+10
-3.88086e+10
-3.4625e+10
-3.33587e+10
-4.49674e+10
-6.24306e+10
-3.67822e+10
-4.04738e+10
-4.04732e+10
-4.04927e+10
-4.05293e+10
-4.05778e+10
-4.06373e+10
-4.07107e+10
-4.07977e+10
-4.09005e+10
-4.10217e+10
-4.11615e+10
-4.13183e+10
-4.14881e+10
-4.16643e+10
-4.18367e+10
-4.19911e+10
-4.21111e+10
-4.21839e+10
-4.22027e+10
-4.21599e+10
-4.20351e+10
-4.1798e+10
-4.14412e+10
-4.10047e+10
-4.05539e+10
-4.01416e+10
-3.97954e+10
-3.95223e+10
-3.93157e+10
-3.91633e+10
-3.90519e+10
-3.89711e+10
-3.89147e+10
-3.88807e+10
-3.88694e+10
-3.88821e+10
-3.89172e+10
-3.89688e+10
-3.90252e+10
-3.90691e+10
-3.90776e+10
-3.90217e+10
-3.88757e+10
-3.86614e+10
-3.85356e+10
-3.882e+10
-3.96957e+10
-4.04399e+10
-3.91615e+10
-3.52628e+10
-3.44268e+10
-4.61408e+10
-6.07846e+10
-3.19576e+10
-4.0355e+10
-4.03596e+10
-4.03722e+10
-4.04021e+10
-4.04528e+10
-4.05198e+10
-4.06014e+10
-4.07006e+10
-4.08226e+10
-4.09701e+10
-4.11435e+10
-4.13416e+10
-4.15603e+10
-4.17914e+10
-4.20223e+10
-4.22346e+10
-4.24059e+10
-4.25173e+10
-4.2563e+10
-4.25422e+10
-4.24256e+10
-4.21473e+10
-4.16673e+10
-4.10492e+10
-4.04214e+10
-3.98757e+10
-3.94452e+10
-3.91306e+10
-3.89138e+10
-3.87702e+10
-3.8677e+10
-3.86169e+10
-3.85793e+10
-3.85585e+10
-3.85532e+10
-3.85629e+10
-3.85856e+10
-3.86154e+10
-3.86416e+10
-3.86482e+10
-3.8615e+10
-3.85161e+10
-3.83301e+10
-3.80832e+10
-3.79398e+10
-3.82349e+10
-3.91643e+10
-4.0003e+10
-3.88635e+10
-3.52871e+10
-3.51135e+10
-4.71063e+10
-6.04115e+10
-3.08785e+10
-4.03614e+10
-4.0366e+10
-4.03843e+10
-4.04208e+10
-4.04727e+10
-4.05392e+10
-4.06228e+10
-4.0724e+10
-4.08451e+10
-4.09892e+10
-4.11575e+10
-4.13489e+10
-4.15594e+10
-4.17816e+10
-4.20038e+10
-4.22087e+10
-4.23747e+10
-4.24834e+10
-4.25291e+10
-4.25107e+10
-4.24003e+10
-4.21319e+10
-4.16639e+10
-4.1055e+10
-4.0431e+10
-3.98842e+10
-3.94502e+10
-3.91314e+10
-3.89105e+10
-3.87632e+10
-3.8667e+10
-3.86045e+10
-3.8565e+10
-3.85436e+10
-3.85392e+10
-3.85521e+10
-3.85809e+10
-3.86203e+10
-3.86598e+10
-3.86832e+10
-3.86686e+10
-3.85871e+10
-3.84121e+10
-3.81624e+10
-3.79928e+10
-3.82286e+10
-3.90613e+10
-3.97695e+10
-3.84455e+10
-3.44967e+10
-3.36046e+10
-4.52506e+10
-6.02099e+10
-3.26257e+10
-4.03506e+10
-4.0374e+10
-4.04e+10
-4.04418e+10
-4.05025e+10
-4.05782e+10
-4.06675e+10
-4.07733e+10
-4.0898e+10
-4.10441e+10
-4.1215e+10
-4.14126e+10
-4.16356e+10
-4.18794e+10
-4.21339e+10
-4.23815e+10
-4.25963e+10
-4.27527e+10
-4.28439e+10
-4.28785e+10
-4.28306e+10
-4.25829e+10
-4.2012e+10
-4.1183e+10
-4.03321e+10
-3.96259e+10
-3.91045e+10
-3.87563e+10
-3.85403e+10
-3.8413e+10
-3.8339e+10
-3.82937e+10
-3.82627e+10
-3.82391e+10
-3.82207e+10
-3.82073e+10
-3.81976e+10
-3.81864e+10
-3.8164e+10
-3.81153e+10
-3.80196e+10
-3.78495e+10
-3.758e+10
-3.72328e+10
-3.69692e+10
-3.71263e+10
-3.79029e+10
-3.85598e+10
-3.71204e+10
-3.29118e+10
-3.17195e+10
-4.38303e+10
-6.17213e+10
-3.8246e+10
-4.03493e+10
-4.03752e+10
-4.04004e+10
-4.04418e+10
-4.04997e+10
-4.05743e+10
-4.06633e+10
-4.07683e+10
-4.08915e+10
-4.10365e+10
-4.12066e+10
-4.14038e+10
-4.16273e+10
-4.18723e+10
-4.21286e+10
-4.23781e+10
-4.2594e+10
-4.27508e+10
-4.2843e+10
-4.28826e+10
-4.28443e+10
-4.26122e+10
-4.20609e+10
-4.1247e+10
-4.04016e+10
-3.96941e+10
-3.91688e+10
-3.88175e+10
-3.86005e+10
-3.84755e+10
-3.84074e+10
-3.83717e+10
-3.83538e+10
-3.83468e+10
-3.83489e+10
-3.83599e+10
-3.83786e+10
-3.83991e+10
-3.84107e+10
-3.83979e+10
-3.83394e+10
-3.82063e+10
-3.7971e+10
-3.76512e+10
-3.7402e+10
-3.75519e+10
-3.82937e+10
-3.88817e+10
-3.72748e+10
-3.25263e+10
-3.00254e+10
-4.1069e+10
-6.10427e+10
-4.0868e+10
-4.02451e+10
-4.02645e+10
-4.02851e+10
-4.03173e+10
-4.03618e+10
-4.04178e+10
-4.04851e+10
-4.0566e+10
-4.06653e+10
-4.07907e+10
-4.09524e+10
-4.11607e+10
-4.14226e+10
-4.17383e+10
-4.20984e+10
-4.2479e+10
-4.28376e+10
-4.31239e+10
-4.33143e+10
-4.34362e+10
-4.35054e+10
-4.33645e+10
-4.27082e+10
-4.1516e+10
-4.02361e+10
-3.92803e+10
-3.86722e+10
-3.83288e+10
-3.81561e+10
-3.8084e+10
-3.80653e+10
-3.80705e+10
-3.8084e+10
-3.80998e+10
-3.81183e+10
-3.81415e+10
-3.81702e+10
-3.82012e+10
-3.82272e+10
-3.82354e+10
-3.8207e+10
-3.81158e+10
-3.79358e+10
-3.76868e+10
-3.75273e+10
-3.77861e+10
-3.86418e+10
-3.93176e+10
-3.77578e+10
-3.31109e+10
-3.09299e+10
-4.20099e+10
-6.09734e+10
-4.11883e+10
-4.02606e+10
-4.02783e+10
-4.02988e+10
-4.03305e+10
-4.03759e+10
-4.04335e+10
-4.05016e+10
-4.05835e+10
-4.06836e+10
-4.08092e+10
-4.09699e+10
-4.11757e+10
-4.14328e+10
-4.17413e+10
-4.20918e+10
-4.2461e+10
-4.28076e+10
-4.30832e+10
-4.32661e+10
-4.33871e+10
-4.34635e+10
-4.3345e+10
-4.27315e+10
-4.15797e+10
-4.03168e+10
-3.93556e+10
-3.87289e+10
-3.83675e+10
-3.81826e+10
-3.81053e+10
-3.80878e+10
-3.81003e+10
-3.81262e+10
-3.81591e+10
-3.81979e+10
-3.82436e+10
-3.82952e+10
-3.83478e+10
-3.83913e+10
-3.84114e+10
-3.83876e+10
-3.82931e+10
-3.81025e+10
-3.78381e+10
-3.7664e+10
-3.79204e+10
-3.88081e+10
-3.95764e+10
-3.81758e+10
-3.37215e+10
-3.18212e+10
-4.31896e+10
-6.00745e+10
-3.2773e+10
-4.01658e+10
-4.01826e+10
-4.02042e+10
-4.02394e+10
-4.02877e+10
-4.03502e+10
-4.04283e+10
-4.05248e+10
-4.06466e+10
-4.08051e+10
-4.10156e+10
-4.12935e+10
-4.16483e+10
-4.20776e+10
-4.2564e+10
-4.3071e+10
-4.35371e+10
-4.38899e+10
-4.40961e+10
-4.42256e+10
-4.44135e+10
-4.45354e+10
-4.38978e+10
-4.19947e+10
-3.9757e+10
-3.84514e+10
-3.78483e+10
-3.76112e+10
-3.75791e+10
-3.76433e+10
-3.77421e+10
-3.78428e+10
-3.79327e+10
-3.80109e+10
-3.80822e+10
-3.81525e+10
-3.8225e+10
-3.82982e+10
-3.83661e+10
-3.84179e+10
-3.84367e+10
-3.83976e+10
-3.82784e+10
-3.81069e+10
-3.80535e+10
-3.84513e+10
-3.9459e+10
-4.02802e+10
-3.89759e+10
-3.50657e+10
-3.44054e+10
-4.62478e+10
-6.06004e+10
-3.05281e+10
-4.01966e+10
-4.02031e+10
-4.02251e+10
-4.02579e+10
-4.03043e+10
-4.03638e+10
-4.04378e+10
-4.05292e+10
-4.06447e+10
-4.07951e+10
-4.09954e+10
-4.12611e+10
-4.16027e+10
-4.202e+10
-4.24981e+10
-4.30035e+10
-4.34771e+10
-4.38432e+10
-4.40641e+10
-4.42103e+10
-4.44117e+10
-4.45415e+10
-4.3953e+10
-4.21441e+10
-3.997e+10
-3.86707e+10
-3.80221e+10
-3.77365e+10
-3.76621e+10
-3.76934e+10
-3.77695e+10
-3.78575e+10
-3.79443e+10
-3.80281e+10
-3.81125e+10
-3.82019e+10
-3.82981e+10
-3.83976e+10
-3.84907e+10
-3.85618e+10
-3.85883e+10
-3.85395e+10
-3.83874e+10
-3.81554e+10
-3.80138e+10
-3.83033e+10
-3.92019e+10
-3.99409e+10
-3.86015e+10
-3.47375e+10
-3.43174e+10
-4.65723e+10
-6.11044e+10
-3.38429e+10
-4.01082e+10
-4.01192e+10
-4.01378e+10
-4.01709e+10
-4.02172e+10
-4.02758e+10
-4.03449e+10
-4.04238e+10
-4.05165e+10
-4.06345e+10
-4.07987e+10
-4.10366e+10
-4.13732e+10
-4.18203e+10
-4.2369e+10
-4.2986e+10
-4.36018e+10
-4.4115e+10
-4.4475e+10
-4.48011e+10
-4.54126e+10
-4.63193e+10
-4.62005e+10
-4.31597e+10
-3.92342e+10
-3.74816e+10
-3.68589e+10
-3.67377e+10
-3.68803e+10
-3.70979e+10
-3.73102e+10
-3.74897e+10
-3.76353e+10
-3.77561e+10
-3.78626e+10
-3.79635e+10
-3.80631e+10
-3.81595e+10
-3.82442e+10
-3.83017e+10
-3.83095e+10
-3.8237e+10
-3.80582e+10
-3.78027e+10
-3.76476e+10
-3.79222e+10
-3.87515e+10
-3.93178e+10
-3.78496e+10
-3.43444e+10
-3.49276e+10
-4.80577e+10
-6.31918e+10
-3.57816e+10
-4.01209e+10
-4.01198e+10
-4.01369e+10
-4.01657e+10
-4.02081e+10
-4.02626e+10
-4.03277e+10
-4.0403e+10
-4.04925e+10
-4.06081e+10
-4.07707e+10
-4.10075e+10
-4.13436e+10
-4.17919e+10
-4.23455e+10
-4.2972e+10
-4.36022e+10
-4.41311e+10
-4.44908e+10
-4.47915e+10
-4.53389e+10
-4.61374e+10
-4.60352e+10
-4.32931e+10
-3.93785e+10
-3.76413e+10
-3.70082e+10
-3.68751e+10
-3.69967e+10
-3.7192e+10
-3.73866e+10
-3.75551e+10
-3.7696e+10
-3.78173e+10
-3.79296e+10
-3.80413e+10
-3.81563e+10
-3.82722e+10
-3.83789e+10
-3.84588e+10
-3.84858e+10
-3.84248e+10
-3.82443e+10
-3.79677e+10
-3.77653e+10
-3.79622e+10
-3.86791e+10
-3.90807e+10
-3.7298e+10
-3.29819e+10
-3.17593e+10
-4.35465e+10
-6.39096e+10
-4.54966e+10
-3.99832e+10
-3.99978e+10
-4.00099e+10
-4.00358e+10
-4.00737e+10
-4.01191e+10
-4.01652e+10
-4.02078e+10
-4.02517e+10
-4.03178e+10
-4.04497e+10
-4.07108e+10
-4.11654e+10
-4.18457e+10
-4.27356e+10
-4.37776e+10
-4.48528e+10
-4.58011e+10
-4.65864e+10
-4.74045e+10
-4.86704e+10
-5.03939e+10
-5.09414e+10
-4.65871e+10
-4.03406e+10
-3.60651e+10
-3.56579e+10
-3.60207e+10
-3.64826e+10
-3.68709e+10
-3.71713e+10
-3.74e+10
-3.75782e+10
-3.77243e+10
-3.78546e+10
-3.79816e+10
-3.81117e+10
-3.82437e+10
-3.83684e+10
-3.84687e+10
-3.85192e+10
-3.84863e+10
-3.83413e+10
-3.81117e+10
-3.79711e+10
-3.8234e+10
-3.89884e+10
-3.9378e+10
-3.76684e+10
-3.39817e+10
-3.43206e+10
-4.65896e+10
-6.04482e+10
-3.13269e+10
-3.9965e+10
-3.99763e+10
-3.99866e+10
-4.00105e+10
-4.00475e+10
-4.00934e+10
-4.0142e+10
-4.01892e+10
-4.02404e+10
-4.03168e+10
-4.04608e+10
-4.07323e+10
-4.11904e+10
-4.18666e+10
-4.27498e+10
-4.37787e+10
-4.48314e+10
-4.57343e+10
-4.63806e+10
-4.694e+10
-4.79289e+10
-4.94416e+10
-5.00838e+10
-4.69918e+10
-4.09157e+10
-3.57581e+10
-3.54839e+10
-3.59497e+10
-3.6469e+10
-3.68871e+10
-3.7204e+10
-3.74431e+10
-3.76288e+10
-3.77808e+10
-3.79154e+10
-3.8045e+10
-3.8176e+10
-3.83076e+10
-3.84312e+10
-3.85306e+10
-3.85818e+10
-3.85528e+10
-3.8416e+10
-3.81999e+10
-3.80778e+10
-3.83621e+10
-3.91234e+10
-3.9433e+10
-3.73657e+10
-3.27218e+10
-3.15084e+10
-4.36459e+10
-6.2722e+10
-4.09352e+10
-3.99622e+10
-3.99906e+10
-4.00005e+10
-4.00252e+10
-4.00581e+10
-4.00932e+10
-4.01212e+10
-4.01376e+10
-4.01517e+10
-4.01949e+10
-4.03288e+10
-4.06411e+10
-4.1208e+10
-4.20345e+10
-4.30589e+10
-4.41779e+10
-4.52568e+10
-4.6178e+10
-4.69775e+10
-4.79555e+10
-4.93088e+10
-5.09161e+10
-5.19152e+10
-5.01445e+10
-4.39573e+10
-3.00388e+10
-3.24672e+10
-3.45726e+10
-3.57591e+10
-3.64685e+10
-3.69214e+10
-3.72255e+10
-3.74404e+10
-3.76028e+10
-3.77376e+10
-3.78611e+10
-3.79818e+10
-3.80996e+10
-3.82066e+10
-3.82879e+10
-3.8321e+10
-3.82766e+10
-3.81305e+10
-3.79128e+10
-3.77939e+10
-3.8077e+10
-3.88276e+10
-3.91498e+10
-3.72403e+10
-3.31325e+10
-3.28325e+10
-4.4917e+10
-6.0444e+10
-3.41543e+10
-3.99363e+10
-3.99705e+10
-3.99738e+10
-3.99968e+10
-4.00298e+10
-4.00683e+10
-4.01029e+10
-4.01293e+10
-4.01564e+10
-4.02158e+10
-4.03676e+10
-4.06914e+10
-4.1254e+10
-4.20701e+10
-4.30929e+10
-4.42176e+10
-4.53014e+10
-4.61608e+10
-4.67613e+10
-4.74032e+10
-4.86686e+10
-5.07414e+10
-5.18309e+10
-5.04676e+10
-4.71463e+10
-2.97139e+10
-3.22351e+10
-3.44378e+10
-3.56971e+10
-3.64518e+10
-3.69358e+10
-3.72618e+10
-3.74926e+10
-3.76667e+10
-3.78092e+10
-3.79359e+10
-3.80543e+10
-3.81637e+10
-3.82559e+10
-3.83162e+10
-3.83234e+10
-3.82504e+10
-3.80762e+10
-3.78352e+10
-3.7703e+10
-3.79877e+10
-3.87406e+10
-3.89815e+10
-3.67928e+10
-3.25962e+10
-3.40125e+10
-4.96707e+10
-6.28978e+10
-3.1434e+10
-3.99491e+10
-3.99628e+10
-3.99729e+10
-3.9993e+10
-4.0022e+10
-4.00529e+10
-4.00765e+10
-4.00887e+10
-4.00998e+10
-4.01417e+10
-4.02767e+10
-4.05968e+10
-4.11742e+10
-4.20056e+10
-4.30349e+10
-4.41609e+10
-4.52612e+10
-4.622e+10
-4.70564e+10
-4.80698e+10
-4.95561e+10
-5.10778e+10
-5.05866e+10
-4.54512e+10
-2.35327e+10
-3.20002e+10
-3.42367e+10
-3.55437e+10
-3.63406e+10
-3.68505e+10
-3.7191e+10
-3.74281e+10
-3.76021e+10
-3.7739e+10
-3.7855e+10
-3.79575e+10
-3.80459e+10
-3.81117e+10
-3.81408e+10
-3.81131e+10
-3.80038e+10
-3.77941e+10
-3.75174e+10
-3.73405e+10
-3.75608e+10
-3.82577e+10
-3.85828e+10
-3.67651e+10
-3.27406e+10
-3.22034e+10
-4.35993e+10
-5.94874e+10
-3.39854e+10
-3.99445e+10
-3.99652e+10
-3.99724e+10
-3.99927e+10
-4.00234e+10
-4.00583e+10
-4.00881e+10
-4.01082e+10
-4.01274e+10
-4.0178e+10
-4.03222e+10
-4.06443e+10
-4.12136e+10
-4.20404e+10
-4.30723e+10
-4.4211e+10
-4.53163e+10
-4.61876e+10
-4.68179e+10
-4.75033e+10
-4.86887e+10
-5.06212e+10
-5.2209e+10
-5.11593e+10
-2.41376e+10
-3.19346e+10
-3.41679e+10
-3.54976e+10
-3.63135e+10
-3.68361e+10
-3.71848e+10
-3.74271e+10
-3.7605e+10
-3.77452e+10
-3.78644e+10
-3.79705e+10
-3.80628e+10
-3.81325e+10
-3.81654e+10
-3.81414e+10
-3.80357e+10
-3.78294e+10
-3.75562e+10
-3.73844e+10
-3.76145e+10
-3.83183e+10
-3.85981e+10
-3.66519e+10
-3.28204e+10
-3.40117e+10
-4.81375e+10
-6.15668e+10
-3.10493e+10
-3.99958e+10
-3.99956e+10
-4.00138e+10
-4.00373e+10
-4.00718e+10
-4.01095e+10
-4.01424e+10
-4.01658e+10
-4.01883e+10
-4.02363e+10
-4.03622e+10
-4.06474e+10
-4.11688e+10
-4.19412e+10
-4.292e+10
-4.40041e+10
-4.50644e+10
-4.59928e+10
-4.67497e+10
-4.75001e+10
-4.85017e+10
-4.97997e+10
-5.07866e+10
-4.92009e+10
-3.86197e+10
-3.46092e+10
-3.46068e+10
-3.53383e+10
-3.60624e+10
-3.66121e+10
-3.70065e+10
-3.72886e+10
-3.74949e+10
-3.76524e+10
-3.77812e+10
-3.78945e+10
-3.79986e+10
-3.80925e+10
-3.81687e+10
-3.82141e+10
-3.82107e+10
-3.81359e+10
-3.79721e+10
-3.77484e+10
-3.76181e+10
-3.78636e+10
-3.85776e+10
-3.89869e+10
-3.74388e+10
-3.39944e+10
-3.45518e+10
-4.67517e+10
-5.91226e+10
-3.0378e+10
-4.00174e+10
-4.00256e+10
-4.00392e+10
-4.00641e+10
-4.01009e+10
-4.01442e+10
-4.01858e+10
-4.02209e+10
-4.02556e+10
-4.03149e+10
-4.04491e+10
-4.07287e+10
-4.1217e+10
-4.19333e+10
-4.28441e+10
-4.386e+10
-4.48434e+10
-4.56355e+10
-4.62716e+10
-4.70443e+10
-4.81676e+10
-4.9625e+10
-5.00756e+10
-4.85638e+10
-3.96566e+10
-3.43956e+10
-3.43889e+10
-3.51854e+10
-3.59626e+10
-3.65422e+10
-3.69495e+10
-3.72344e+10
-3.74384e+10
-3.75914e+10
-3.77152e+10
-3.78245e+10
-3.79263e+10
-3.80206e+10
-3.81001e+10
-3.81518e+10
-3.81575e+10
-3.80943e+10
-3.79443e+10
-3.77365e+10
-3.76233e+10
-3.78848e+10
-3.86098e+10
-3.90115e+10
-3.73611e+10
-3.34655e+10
-3.30193e+10
-4.49523e+10
-6.09374e+10
-3.62976e+10
-4.01163e+10
-4.01218e+10
-4.01411e+10
-4.01727e+10
-4.02189e+10
-4.02768e+10
-4.03415e+10
-4.04099e+10
-4.04857e+10
-4.05835e+10
-4.07324e+10
-4.09741e+10
-4.13472e+10
-4.18658e+10
-4.25103e+10
-4.32222e+10
-4.39089e+10
-4.44647e+10
-4.48198e+10
-4.50411e+10
-4.53664e+10
-4.59399e+10
-4.58564e+10
-4.28477e+10
-3.9276e+10
-3.74497e+10
-3.67425e+10
-3.65945e+10
-3.67325e+10
-3.69437e+10
-3.71481e+10
-3.73182e+10
-3.74534e+10
-3.7561e+10
-3.76511e+10
-3.77326e+10
-3.78102e+10
-3.78834e+10
-3.79454e+10
-3.79848e+10
-3.7985e+10
-3.79242e+10
-3.77837e+10
-3.75858e+10
-3.74686e+10
-3.76944e+10
-3.83546e+10
-3.87178e+10
-3.71666e+10
-3.36294e+10
-3.37149e+10
-4.56822e+10
-6.0639e+10
-3.3278e+10
-4.01268e+10
-4.01331e+10
-4.01506e+10
-4.01813e+10
-4.02265e+10
-4.0284e+10
-4.03495e+10
-4.04204e+10
-4.05009e+10
-4.0606e+10
-4.07641e+10
-4.10136e+10
-4.13876e+10
-4.18966e+10
-4.25188e+10
-4.31955e+10
-4.38309e+10
-4.43163e+10
-4.46281e+10
-4.49108e+10
-4.54077e+10
-4.61105e+10
-4.58908e+10
-4.29958e+10
-3.92606e+10
-3.73105e+10
-3.6586e+10
-3.64635e+10
-3.66322e+10
-3.68643e+10
-3.70797e+10
-3.72537e+10
-3.73886e+10
-3.74942e+10
-3.7582e+10
-3.76616e+10
-3.77383e+10
-3.78121e+10
-3.78765e+10
-3.79197e+10
-3.79252e+10
-3.78718e+10
-3.77422e+10
-3.75609e+10
-3.74673e+10
-3.77243e+10
-3.84283e+10
-3.88532e+10
-3.72716e+10
-3.3073e+10
-3.10661e+10
-4.12191e+10
-6.07285e+10
-4.04429e+10
-4.0201e+10
-4.02074e+10
-4.02282e+10
-4.02624e+10
-4.03124e+10
-4.03782e+10
-4.04601e+10
-4.05595e+10
-4.06813e+10
-4.08364e+10
-4.10418e+10
-4.13172e+10
-4.16763e+10
-4.21178e+10
-4.26201e+10
-4.31386e+10
-4.36085e+10
-4.39593e+10
-4.41504e+10
-4.42122e+10
-4.42409e+10
-4.41595e+10
-4.33776e+10
-4.14554e+10
-3.93472e+10
-3.80936e+10
-3.74803e+10
-3.72363e+10
-3.72199e+10
-3.73083e+10
-3.7431e+10
-3.75513e+10
-3.76564e+10
-3.77464e+10
-3.78263e+10
-3.79012e+10
-3.79735e+10
-3.80403e+10
-3.80931e+10
-3.81185e+10
-3.80982e+10
-3.80094e+10
-3.78324e+10
-3.75883e+10
-3.74133e+10
-3.75695e+10
-3.81554e+10
-3.84565e+10
-3.68769e+10
-3.33711e+10
-3.35683e+10
-4.5516e+10
-5.91859e+10
-3.07999e+10
-4.02129e+10
-4.02183e+10
-4.0239e+10
-4.02719e+10
-4.03199e+10
-4.03828e+10
-4.04611e+10
-4.05566e+10
-4.06751e+10
-4.08287e+10
-4.10354e+10
-4.13155e+10
-4.16835e+10
-4.21383e+10
-4.26578e+10
-4.31954e+10
-4.36813e+10
-4.40414e+10
-4.42456e+10
-4.43468e+10
-4.44419e+10
-4.44001e+10
-4.35849e+10
-4.15688e+10
-3.93414e+10
-3.80336e+10
-3.74169e+10
-3.71821e+10
-3.71739e+10
-3.72652e+10
-3.73862e+10
-3.75022e+10
-3.76021e+10
-3.76871e+10
-3.77628e+10
-3.7835e+10
-3.79066e+10
-3.79748e+10
-3.80318e+10
-3.80643e+10
-3.8055e+10
-3.79815e+10
-3.78253e+10
-3.76085e+10
-3.74669e+10
-3.76612e+10
-3.82897e+10
-3.8622e+10
-3.69507e+10
-3.29893e+10
-3.25161e+10
-4.5045e+10
-6.10869e+10
-3.35757e+10
-4.03035e+10
-4.0307e+10
-4.03287e+10
-4.03603e+10
-4.04047e+10
-4.04624e+10
-4.05348e+10
-4.0625e+10
-4.07386e+10
-4.08845e+10
-4.10742e+10
-4.13191e+10
-4.16252e+10
-4.19882e+10
-4.23904e+10
-4.27985e+10
-4.31659e+10
-4.34443e+10
-4.36089e+10
-4.36758e+10
-4.36494e+10
-4.33731e+10
-4.25417e+10
-4.11767e+10
-3.97871e+10
-3.87926e+10
-3.81962e+10
-3.78854e+10
-3.77571e+10
-3.77317e+10
-3.77574e+10
-3.7803e+10
-3.78535e+10
-3.79047e+10
-3.79571e+10
-3.80118e+10
-3.80672e+10
-3.81164e+10
-3.81473e+10
-3.8142e+10
-3.80783e+10
-3.79292e+10
-3.76729e+10
-3.73333e+10
-3.70561e+10
-3.71172e+10
-3.76146e+10
-3.77836e+10
-3.59148e+10
-3.1817e+10
-3.1098e+10
-4.29914e+10
-6.0563e+10
-3.89338e+10
-4.0309e+10
-4.03152e+10
-4.03358e+10
-4.03672e+10
-4.04108e+10
-4.04669e+10
-4.05365e+10
-4.06223e+10
-4.07296e+10
-4.08674e+10
-4.10471e+10
-4.12803e+10
-4.15742e+10
-4.19267e+10
-4.23226e+10
-4.27315e+10
-4.31068e+10
-4.33979e+10
-4.35812e+10
-4.36772e+10
-4.36873e+10
-4.34419e+10
-4.26289e+10
-4.1259e+10
-3.98483e+10
-3.88423e+10
-3.82433e+10
-3.79296e+10
-3.77955e+10
-3.77621e+10
-3.77787e+10
-3.78157e+10
-3.78592e+10
-3.79052e+10
-3.79548e+10
-3.80096e+10
-3.80688e+10
-3.81269e+10
-3.8173e+10
-3.81917e+10
-3.81628e+10
-3.80616e+10
-3.78673e+10
-3.76017e+10
-3.74053e+10
-3.75452e+10
-3.80986e+10
-3.82348e+10
-3.61604e+10
-3.20187e+10
-3.28353e+10
-4.77357e+10
-6.2423e+10
-3.1254e+10
-4.03946e+10
-4.03992e+10
-4.04225e+10
-4.04564e+10
-4.05027e+10
-4.05615e+10
-4.0634e+10
-4.07226e+10
-4.08312e+10
-4.09654e+10
-4.1131e+10
-4.13326e+10
-4.15706e+10
-4.18389e+10
-4.21238e+10
-4.24017e+10
-4.2641e+10
-4.28118e+10
-4.29029e+10
-4.29223e+10
-4.28473e+10
-4.25613e+10
-4.19355e+10
-4.10418e+10
-4.01312e+10
-3.93881e+10
-3.88571e+10
-3.85157e+10
-3.8314e+10
-3.82038e+10
-3.8149e+10
-3.81258e+10
-3.81215e+10
-3.81309e+10
-3.81535e+10
-3.81889e+10
-3.82344e+10
-3.8282e+10
-3.83181e+10
-3.83236e+10
-3.82743e+10
-3.81415e+10
-3.79026e+10
-3.75851e+10
-3.73451e+10
-3.7471e+10
-3.80518e+10
-3.82559e+10
-3.62184e+10
-3.15013e+10
-2.96255e+10
-4.06855e+10
-5.98766e+10
-4.02969e+10
-4.03812e+10
-4.03926e+10
-4.04143e+10
-4.04495e+10
-4.04971e+10
-4.05578e+10
-4.06321e+10
-4.07222e+10
-4.08313e+10
-4.09642e+10
-4.11261e+10
-4.13208e+10
-4.15484e+10
-4.18033e+10
-4.20726e+10
-4.23342e+10
-4.25585e+10
-4.27176e+10
-4.28014e+10
-4.28182e+10
-4.2746e+10
-4.24727e+10
-4.18756e+10
-4.10163e+10
-4.01314e+10
-3.94023e+10
-3.88752e+10
-3.85302e+10
-3.83209e+10
-3.82017e+10
-3.81381e+10
-3.81071e+10
-3.80962e+10
-3.81004e+10
-3.81191e+10
-3.81524e+10
-3.81978e+10
-3.82482e+10
-3.82919e+10
-3.83122e+10
-3.82878e+10
-3.8193e+10
-3.80067e+10
-3.7754e+10
-3.75865e+10
-3.77846e+10
-3.84059e+10
-3.85233e+10