/*--------------------------------*- C++ -*----------------------------------*\
| =========                 |                                                 |
| \\      /  F ield         | OpenFOAM: The Open Source CFD Toolbox           |
|  \\    /   O peration     | Version:  4.1                                   |
|   \\  /    A nd           | Web:      www.OpenFOAM.org                      |
|    \\/     M anipulation  |                                                 |
\*---------------------------------------------------------------------------*/
FoamFile
{
    version     2.0;
    format      ascii;
    class       volScalarField;
    location    "94";
    object      p;
}
// * * * * * * * * * * * * * * * * * * * * * * * * * * * * * * * * * * * * * //

dimensions      [0 2 -2 0 0 0 0];

internalField   nonuniform List<scalar> 
4432
(
-3.73792e+10
-3.73536e+10
-3.74391e+10
-3.74549e+10
-3.74801e+10
-3.75216e+10
-3.75635e+10
-3.76068e+10
-3.76498e+10
-3.76915e+10
-3.77318e+10
-3.777e+10
-3.78041e+10
-3.78322e+10
-3.7852e+10
-3.78606e+10
-3.78544e+10
-3.78296e+10
-3.77842e+10
-3.77169e+10
-3.76278e+10
-3.75189e+10
-3.73935e+10
-3.72575e+10
-3.71169e+10
-3.69786e+10
-3.68485e+10
-3.67315e+10
-3.66298e+10
-3.6543e+10
-3.64678e+10
-3.63993e+10
-3.63326e+10
-3.62643e+10
-3.61944e+10
-3.61266e+10
-3.60682e+10
-3.60279e+10
-3.60118e+10
-3.60181e+10
-3.60294e+10
-3.60067e+10
-3.5893e+10
-3.56636e+10
-3.54359e+10
-3.55175e+10
-3.61113e+10
-3.66346e+10
-3.56535e+10
-3.31981e+10
-3.42808e+10
-4.51075e+10
-5.58528e+10
-2.74952e+10
-3.74228e+10
-3.73765e+10
-3.74209e+10
-3.74599e+10
-3.74857e+10
-3.75236e+10
-3.75669e+10
-3.76098e+10
-3.76516e+10
-3.76926e+10
-3.77325e+10
-3.77702e+10
-3.78038e+10
-3.78315e+10
-3.78511e+10
-3.78599e+10
-3.78541e+10
-3.78297e+10
-3.77846e+10
-3.77172e+10
-3.76276e+10
-3.7518e+10
-3.73918e+10
-3.72546e+10
-3.71126e+10
-3.69728e+10
-3.68413e+10
-3.6723e+10
-3.662e+10
-3.65323e+10
-3.64567e+10
-3.63885e+10
-3.63227e+10
-3.62559e+10
-3.61882e+10
-3.61234e+10
-3.60686e+10
-3.6032e+10
-3.60186e+10
-3.60261e+10
-3.60374e+10
-3.60135e+10
-3.58978e+10
-3.56671e+10
-3.54429e+10
-3.55451e+10
-3.61931e+10
-3.67737e+10
-3.56439e+10
-3.24129e+10
-3.21366e+10
-4.34827e+10
-5.87401e+10
-3.38607e+10
-3.74259e+10
-3.74024e+10
-3.74266e+10
-3.74727e+10
-3.75034e+10
-3.75386e+10
-3.75859e+10
-3.76347e+10
-3.76843e+10
-3.77345e+10
-3.77844e+10
-3.7834e+10
-3.7881e+10
-3.79215e+10
-3.79511e+10
-3.79663e+10
-3.7964e+10
-3.7941e+10
-3.78951e+10
-3.7824e+10
-3.77272e+10
-3.76064e+10
-3.74655e+10
-3.7311e+10
-3.71502e+10
-3.69914e+10
-3.68414e+10
-3.67062e+10
-3.65881e+10
-3.64873e+10
-3.64004e+10
-3.63227e+10
-3.62493e+10
-3.61766e+10
-3.61043e+10
-3.60357e+10
-3.59772e+10
-3.5936e+10
-3.59158e+10
-3.59135e+10
-3.59102e+10
-3.58628e+10
-3.5708e+10
-3.54173e+10
-3.51216e+10
-3.51654e+10
-3.57524e+10
-3.6133e+10
-3.45523e+10
-3.10471e+10
-3.15603e+10
-4.3974e+10
-5.78563e+10
-3.46456e+10
-3.74151e+10
-3.74037e+10
-3.74336e+10
-3.74679e+10
-3.74981e+10
-3.75334e+10
-3.758e+10
-3.76273e+10
-3.76757e+10
-3.77245e+10
-3.77734e+10
-3.7822e+10
-3.78678e+10
-3.79069e+10
-3.79357e+10
-3.79512e+10
-3.79501e+10
-3.79284e+10
-3.78838e+10
-3.78135e+10
-3.77172e+10
-3.75967e+10
-3.74561e+10
-3.73018e+10
-3.71413e+10
-3.6983e+10
-3.68337e+10
-3.66995e+10
-3.65825e+10
-3.64832e+10
-3.63982e+10
-3.63226e+10
-3.62515e+10
-3.61808e+10
-3.61103e+10
-3.60432e+10
-3.59857e+10
-3.59448e+10
-3.5924e+10
-3.59199e+10
-3.59141e+10
-3.58633e+10
-3.57043e+10
-3.54095e+10
-3.51151e+10
-3.51781e+10
-3.58099e+10
-3.6203e+10
-3.44391e+10
-3.06454e+10
-3.19778e+10
-4.7098e+10
-5.96649e+10
-2.91031e+10
-3.73919e+10
-3.74135e+10
-3.74018e+10
-3.74376e+10
-3.74707e+10
-3.75059e+10
-3.75495e+10
-3.75984e+10
-3.76499e+10
-3.77024e+10
-3.7755e+10
-3.78077e+10
-3.78581e+10
-3.79015e+10
-3.79342e+10
-3.79538e+10
-3.79581e+10
-3.79428e+10
-3.7904e+10
-3.78384e+10
-3.77442e+10
-3.76216e+10
-3.74747e+10
-3.73099e+10
-3.71361e+10
-3.69628e+10
-3.67983e+10
-3.66488e+10
-3.65176e+10
-3.6405e+10
-3.63082e+10
-3.62225e+10
-3.61426e+10
-3.60648e+10
-3.59881e+10
-3.59154e+10
-3.58522e+10
-3.58049e+10
-3.57777e+10
-3.57689e+10
-3.57611e+10
-3.57075e+10
-3.55363e+10
-3.5213e+10
-3.48868e+10
-3.49611e+10
-3.56901e+10
-3.62326e+10
-3.45783e+10
-3.07263e+10
-3.11697e+10
-4.36924e+10
-5.60427e+10
-2.84846e+10
-3.73668e+10
-3.74045e+10
-3.74178e+10
-3.74372e+10
-3.74669e+10
-3.75043e+10
-3.75485e+10
-3.75965e+10
-3.76483e+10
-3.77014e+10
-3.77553e+10
-3.781e+10
-3.78629e+10
-3.79096e+10
-3.79455e+10
-3.79674e+10
-3.79719e+10
-3.79557e+10
-3.79162e+10
-3.78506e+10
-3.77564e+10
-3.76337e+10
-3.74859e+10
-3.73201e+10
-3.71451e+10
-3.69709e+10
-3.68057e+10
-3.66559e+10
-3.65246e+10
-3.64117e+10
-3.63141e+10
-3.62268e+10
-3.61445e+10
-3.60633e+10
-3.59831e+10
-3.59068e+10
-3.58404e+10
-3.57907e+10
-3.57623e+10
-3.57523e+10
-3.57429e+10
-3.56884e+10
-3.55187e+10
-3.52012e+10
-3.48885e+10
-3.49881e+10
-3.57426e+10
-3.622e+10
-3.41988e+10
-2.95986e+10
-2.96163e+10
-4.33827e+10
-5.89763e+10
-3.36104e+10
-3.73791e+10
-3.7405e+10
-3.74261e+10
-3.74469e+10
-3.74817e+10
-3.75237e+10
-3.75714e+10
-3.76241e+10
-3.76814e+10
-3.7742e+10
-3.78052e+10
-3.7871e+10
-3.7937e+10
-3.79987e+10
-3.80511e+10
-3.80887e+10
-3.81057e+10
-3.80977e+10
-3.80607e+10
-3.79914e+10
-3.78868e+10
-3.77473e+10
-3.75772e+10
-3.73859e+10
-3.71852e+10
-3.69873e+10
-3.68027e+10
-3.66385e+10
-3.64978e+10
-3.63804e+10
-3.6283e+10
-3.61998e+10
-3.61243e+10
-3.60517e+10
-3.59808e+10
-3.59129e+10
-3.58528e+10
-3.58063e+10
-3.57774e+10
-3.57639e+10
-3.57484e+10
-3.56835e+10
-3.54913e+10
-3.51261e+10
-3.47294e+10
-3.47139e+10
-3.53691e+10
-3.5895e+10
-3.42279e+10
-3.00583e+10
-2.96043e+10
-4.19652e+10
-5.81359e+10
-3.30442e+10
-3.7378e+10
-3.7411e+10
-3.74324e+10
-3.74483e+10
-3.74791e+10
-3.75213e+10
-3.75675e+10
-3.76184e+10
-3.76745e+10
-3.77341e+10
-3.77966e+10
-3.7862e+10
-3.79278e+10
-3.79898e+10
-3.80431e+10
-3.80821e+10
-3.81011e+10
-3.80953e+10
-3.80608e+10
-3.79942e+10
-3.78927e+10
-3.7756e+10
-3.75885e+10
-3.7399e+10
-3.71995e+10
-3.70022e+10
-3.68176e+10
-3.66528e+10
-3.65111e+10
-3.6392e+10
-3.62917e+10
-3.62048e+10
-3.61252e+10
-3.60483e+10
-3.59727e+10
-3.59008e+10
-3.58379e+10
-3.57904e+10
-3.5763e+10
-3.5754e+10
-3.57459e+10
-3.56911e+10
-3.55128e+10
-3.51684e+10
-3.4806e+10
-3.48464e+10
-3.55649e+10
-3.60701e+10
-3.41961e+10
-3.0036e+10
-3.11807e+10
-4.64186e+10
-5.95692e+10
-2.86602e+10
-3.73421e+10
-3.73622e+10
-3.73861e+10
-3.74078e+10
-3.74399e+10
-3.74825e+10
-3.75331e+10
-3.75896e+10
-3.76515e+10
-3.77186e+10
-3.77904e+10
-3.78656e+10
-3.79419e+10
-3.80151e+10
-3.80803e+10
-3.81315e+10
-3.81624e+10
-3.81679e+10
-3.81424e+10
-3.80801e+10
-3.79743e+10
-3.78233e+10
-3.76313e+10
-3.74107e+10
-3.71779e+10
-3.69494e+10
-3.67386e+10
-3.65541e+10
-3.63992e+10
-3.6273e+10
-3.61707e+10
-3.60855e+10
-3.60096e+10
-3.59376e+10
-3.58673e+10
-3.58006e+10
-3.57428e+10
-3.5701e+10
-3.56809e+10
-3.56829e+10
-3.56915e+10
-3.56605e+10
-3.55112e+10
-3.51935e+10
-3.48382e+10
-3.48482e+10
-3.55391e+10
-3.62057e+10
-3.48748e+10
-3.11011e+10
-3.06698e+10
-4.25846e+10
-5.81503e+10
-2.97961e+10
-3.7351e+10
-3.73739e+10
-3.73926e+10
-3.74111e+10
-3.74413e+10
-3.74829e+10
-3.75323e+10
-3.7588e+10
-3.76491e+10
-3.77154e+10
-3.77866e+10
-3.78616e+10
-3.79377e+10
-3.80108e+10
-3.80762e+10
-3.8128e+10
-3.81602e+10
-3.81673e+10
-3.81438e+10
-3.80834e+10
-3.79809e+10
-3.78336e+10
-3.76459e+10
-3.74294e+10
-3.72003e+10
-3.69749e+10
-3.67667e+10
-3.65844e+10
-3.64314e+10
-3.63068e+10
-3.62061e+10
-3.61227e+10
-3.60496e+10
-3.59814e+10
-3.5916e+10
-3.58553e+10
-3.58044e+10
-3.57698e+10
-3.57564e+10
-3.57632e+10
-3.57731e+10
-3.57376e+10
-3.55754e+10
-3.52347e+10
-3.48467e+10
-3.48163e+10
-3.54434e+10
-3.59567e+10
-3.43376e+10
-3.04826e+10
-3.11999e+10
-4.52223e+10
-5.97433e+10
-3.14512e+10
-3.73429e+10
-3.73564e+10
-3.73767e+10
-3.74022e+10
-3.74365e+10
-3.74823e+10
-3.75386e+10
-3.76032e+10
-3.7675e+10
-3.7755e+10
-3.78434e+10
-3.7938e+10
-3.80361e+10
-3.81337e+10
-3.82254e+10
-3.83036e+10
-3.83603e+10
-3.83878e+10
-3.838e+10
-3.83281e+10
-3.82221e+10
-3.80551e+10
-3.78321e+10
-3.75705e+10
-3.72944e+10
-3.7027e+10
-3.67858e+10
-3.65808e+10
-3.64151e+10
-3.6286e+10
-3.61866e+10
-3.61082e+10
-3.60417e+10
-3.59801e+10
-3.59198e+10
-3.58618e+10
-3.58113e+10
-3.57756e+10
-3.57615e+10
-3.57701e+10
-3.57865e+10
-3.57642e+10
-3.56225e+10
-3.53056e+10
-3.49304e+10
-3.4886e+10
-3.5505e+10
-3.61498e+10
-3.49041e+10
-3.13377e+10
-3.15392e+10
-4.43625e+10
-5.86861e+10
-3.12767e+10
-3.73616e+10
-3.73732e+10
-3.73954e+10
-3.7421e+10
-3.74571e+10
-3.75032e+10
-3.75594e+10
-3.76248e+10
-3.76978e+10
-3.77787e+10
-3.78672e+10
-3.7962e+10
-3.80602e+10
-3.81581e+10
-3.82505e+10
-3.83302e+10
-3.83887e+10
-3.84185e+10
-3.84123e+10
-3.83617e+10
-3.82561e+10
-3.80891e+10
-3.78659e+10
-3.76043e+10
-3.7329e+10
-3.70635e+10
-3.68256e+10
-3.66252e+10
-3.64652e+10
-3.63424e+10
-3.62503e+10
-3.61798e+10
-3.61215e+10
-3.60681e+10
-3.60154e+10
-3.59634e+10
-3.59162e+10
-3.58797e+10
-3.58596e+10
-3.58558e+10
-3.58525e+10
-3.58025e+10
-3.56253e+10
-3.52657e+10
-3.4843e+10
-3.47505e+10
-3.53203e+10
-3.58934e+10
-3.44679e+10
-3.03748e+10
-2.94302e+10
-4.19196e+10
-6.12727e+10
-3.98982e+10
-3.73006e+10
-3.73155e+10
-3.73357e+10
-3.73667e+10
-3.74084e+10
-3.74628e+10
-3.75286e+10
-3.76032e+10
-3.7686e+10
-3.77781e+10
-3.78796e+10
-3.79892e+10
-3.81048e+10
-3.82232e+10
-3.8339e+10
-3.84438e+10
-3.85271e+10
-3.85793e+10
-3.85928e+10
-3.85565e+10
-3.8454e+10
-3.82684e+10
-3.80014e+10
-3.76776e+10
-3.73346e+10
-3.70066e+10
-3.67174e+10
-3.64786e+10
-3.62918e+10
-3.61515e+10
-3.60479e+10
-3.59696e+10
-3.59058e+10
-3.58479e+10
-3.57912e+10
-3.57359e+10
-3.56863e+10
-3.56495e+10
-3.56321e+10
-3.56344e+10
-3.56407e+10
-3.56031e+10
-3.54384e+10
-3.50854e+10
-3.46499e+10
-3.4514e+10
-3.50249e+10
-3.55631e+10
-3.41078e+10
-2.98453e+10
-2.86441e+10
-4.12906e+10
-6.07844e+10
-3.86659e+10
-3.73003e+10
-3.73117e+10
-3.73323e+10
-3.73641e+10
-3.74063e+10
-3.74592e+10
-3.75227e+10
-3.7596e+10
-3.76782e+10
-3.77695e+10
-3.787e+10
-3.79787e+10
-3.80936e+10
-3.82114e+10
-3.83267e+10
-3.84305e+10
-3.85122e+10
-3.85624e+10
-3.85737e+10
-3.8536e+10
-3.84324e+10
-3.82469e+10
-3.79804e+10
-3.76575e+10
-3.73149e+10
-3.69868e+10
-3.66968e+10
-3.64568e+10
-3.62686e+10
-3.6127e+10
-3.60227e+10
-3.59442e+10
-3.58804e+10
-3.58223e+10
-3.57648e+10
-3.5707e+10
-3.56524e+10
-3.56073e+10
-3.55778e+10
-3.55644e+10
-3.55526e+10
-3.54971e+10
-3.53196e+10
-3.49658e+10
-3.45538e+10
-3.4486e+10
-3.51428e+10
-3.59442e+10
-3.48427e+10
-3.07874e+10
-2.9139e+10
-4.07953e+10
-6.04871e+10
-3.86051e+10
-3.73148e+10
-3.73318e+10
-3.73509e+10
-3.73808e+10
-3.74215e+10
-3.74731e+10
-3.75341e+10
-3.76033e+10
-3.76823e+10
-3.77733e+10
-3.78772e+10
-3.79948e+10
-3.81263e+10
-3.82696e+10
-3.84195e+10
-3.85655e+10
-3.8693e+10
-3.87883e+10
-3.88418e+10
-3.88426e+10
-3.87638e+10
-3.8569e+10
-3.8245e+10
-3.7829e+10
-3.7386e+10
-3.69716e+10
-3.66178e+10
-3.6336e+10
-3.61234e+10
-3.59693e+10
-3.58594e+10
-3.5779e+10
-3.57151e+10
-3.56583e+10
-3.56032e+10
-3.555e+10
-3.55032e+10
-3.54705e+10
-3.54592e+10
-3.54711e+10
-3.54919e+10
-3.54759e+10
-3.53425e+10
-3.50321e+10
-3.46541e+10
-3.46063e+10
-3.52764e+10
-3.6094e+10
-3.5034e+10
-3.12273e+10
-3.02453e+10
-4.17677e+10
-5.74642e+10
-3.03721e+10
-3.72981e+10
-3.73044e+10
-3.73236e+10
-3.73544e+10
-3.73951e+10
-3.74453e+10
-3.75061e+10
-3.75771e+10
-3.76589e+10
-3.77532e+10
-3.78612e+10
-3.79837e+10
-3.81205e+10
-3.82695e+10
-3.84252e+10
-3.85768e+10
-3.87096e+10
-3.88095e+10
-3.88672e+10
-3.88706e+10
-3.87927e+10
-3.85966e+10
-3.82698e+10
-3.78505e+10
-3.74051e+10
-3.69897e+10
-3.66361e+10
-3.63553e+10
-3.6144e+10
-3.5991e+10
-3.58819e+10
-3.58019e+10
-3.57381e+10
-3.56804e+10
-3.56228e+10
-3.55646e+10
-3.55097e+10
-3.5465e+10
-3.54378e+10
-3.543e+10
-3.54276e+10
-3.53855e+10
-3.52241e+10
-3.48851e+10
-3.44812e+10
-3.44191e+10
-3.51096e+10
-3.60223e+10
-3.51708e+10
-3.16904e+10
-3.12362e+10
-4.32936e+10
-5.72425e+10
-2.92543e+10
-3.7216e+10
-3.72269e+10
-3.724e+10
-3.72629e+10
-3.72982e+10
-3.73457e+10
-3.74052e+10
-3.7478e+10
-3.75671e+10
-3.76753e+10
-3.78045e+10
-3.79567e+10
-3.81321e+10
-3.83282e+10
-3.8538e+10
-3.87474e+10
-3.89354e+10
-3.90825e+10
-3.91797e+10
-3.92227e+10
-3.91763e+10
-3.89668e+10
-3.8546e+10
-3.79706e+10
-3.73666e+10
-3.68282e+10
-3.63939e+10
-3.60697e+10
-3.58429e+10
-3.5692e+10
-3.5595e+10
-3.5532e+10
-3.54873e+10
-3.54498e+10
-3.54134e+10
-3.53771e+10
-3.53442e+10
-3.53208e+10
-3.53128e+10
-3.53198e+10
-3.53252e+10
-3.52802e+10
-3.51006e+10
-3.47225e+10
-3.42541e+10
-3.41023e+10
-3.46806e+10
-3.54514e+10
-3.44226e+10
-3.07985e+10
-3.03419e+10
-4.23346e+10
-5.65557e+10
-2.93854e+10
-3.72073e+10
-3.72149e+10
-3.72291e+10
-3.72554e+10
-3.72928e+10
-3.73424e+10
-3.74062e+10
-3.74851e+10
-3.75805e+10
-3.76951e+10
-3.7831e+10
-3.79896e+10
-3.81708e+10
-3.83719e+10
-3.85858e+10
-3.87983e+10
-3.89882e+10
-3.91354e+10
-3.92311e+10
-3.92699e+10
-3.92176e+10
-3.90003e+10
-3.85707e+10
-3.79852e+10
-3.7371e+10
-3.68235e+10
-3.63824e+10
-3.60538e+10
-3.58235e+10
-3.56693e+10
-3.55671e+10
-3.54962e+10
-3.54405e+10
-3.53889e+10
-3.53353e+10
-3.52789e+10
-3.52241e+10
-3.51781e+10
-3.51484e+10
-3.51368e+10
-3.51291e+10
-3.50784e+10
-3.49009e+10
-3.45299e+10
-3.40667e+10
-3.39092e+10
-3.44631e+10
-3.51824e+10
-3.40265e+10
-3.00063e+10
-2.86535e+10
-4.03614e+10
-5.82611e+10
-3.38132e+10
-3.71789e+10
-3.71918e+10
-3.72096e+10
-3.72362e+10
-3.72769e+10
-3.73324e+10
-3.74033e+10
-3.74917e+10
-3.75987e+10
-3.77257e+10
-3.7875e+10
-3.8049e+10
-3.82497e+10
-3.84771e+10
-3.87271e+10
-3.89873e+10
-3.92343e+10
-3.94416e+10
-3.95996e+10
-3.97122e+10
-3.97448e+10
-3.95652e+10
-3.9041e+10
-3.82392e+10
-3.74026e+10
-3.67025e+10
-3.6182e+10
-3.5833e+10
-3.56194e+10
-3.55019e+10
-3.54465e+10
-3.54271e+10
-3.54249e+10
-3.54278e+10
-3.54293e+10
-3.54284e+10
-3.5428e+10
-3.54336e+10
-3.54496e+10
-3.54744e+10
-3.54887e+10
-3.54398e+10
-3.52372e+10
-3.48084e+10
-3.42527e+10
-3.39708e+10
-3.43768e+10
-3.49263e+10
-3.3534e+10
-2.91035e+10
-2.71859e+10
-3.87634e+10
-5.75595e+10
-3.30646e+10
-3.71769e+10
-3.7194e+10
-3.72115e+10
-3.72402e+10
-3.72816e+10
-3.73384e+10
-3.7411e+10
-3.75009e+10
-3.76089e+10
-3.77365e+10
-3.78861e+10
-3.80598e+10
-3.82597e+10
-3.84857e+10
-3.87337e+10
-3.89906e+10
-3.9232e+10
-3.94313e+10
-3.95793e+10
-3.96847e+10
-3.97174e+10
-3.9554e+10
-3.90625e+10
-3.82954e+10
-3.74806e+10
-3.67872e+10
-3.62623e+10
-3.59014e+10
-3.56714e+10
-3.55343e+10
-3.54573e+10
-3.54146e+10
-3.53869e+10
-3.53624e+10
-3.53353e+10
-3.53058e+10
-3.52784e+10
-3.52603e+10
-3.52587e+10
-3.52753e+10
-3.52955e+10
-3.52716e+10
-3.51184e+10
-3.47664e+10
-3.43156e+10
-3.41677e+10
-3.47414e+10
-3.54926e+10
-3.42743e+10
-2.97633e+10
-2.71989e+10
-3.80268e+10
-5.78742e+10
-3.65927e+10
-3.70611e+10
-3.70688e+10
-3.70801e+10
-3.70983e+10
-3.7128e+10
-3.71717e+10
-3.72314e+10
-3.73087e+10
-3.74055e+10
-3.75247e+10
-3.76722e+10
-3.78564e+10
-3.80869e+10
-3.83716e+10
-3.87117e+10
-3.90944e+10
-3.94856e+10
-3.98359e+10
-4.01133e+10
-4.03314e+10
-4.04886e+10
-4.0411e+10
-3.9791e+10
-3.86194e+10
-3.7352e+10
-3.6401e+10
-3.57903e+10
-3.54414e+10
-3.52678e+10
-3.52025e+10
-3.51986e+10
-3.52243e+10
-3.52597e+10
-3.52931e+10
-3.53204e+10
-3.53431e+10
-3.53671e+10
-3.5401e+10
-3.54533e+10
-3.55269e+10
-3.56087e+10
-3.56527e+10
-3.5576e+10
-3.53155e+10
-3.49811e+10
-3.49832e+10
-3.57367e+10
-3.66842e+10
-3.57075e+10
-3.16218e+10
-2.97157e+10
-4.0372e+10
-5.67541e+10
-2.97361e+10
-3.70686e+10
-3.70771e+10
-3.70909e+10
-3.71117e+10
-3.71447e+10
-3.71924e+10
-3.7256e+10
-3.73373e+10
-3.74377e+10
-3.75598e+10
-3.77084e+10
-3.78911e+10
-3.81166e+10
-3.83918e+10
-3.87179e+10
-3.90823e+10
-3.94517e+10
-3.97779e+10
-4.00303e+10
-4.02269e+10
-4.03746e+10
-4.03159e+10
-3.97507e+10
-3.86409e+10
-3.74185e+10
-3.64898e+10
-3.58842e+10
-3.55323e+10
-3.53517e+10
-3.52764e+10
-3.52599e+10
-3.52708e+10
-3.52895e+10
-3.53052e+10
-3.5314e+10
-3.53185e+10
-3.53258e+10
-3.53449e+10
-3.53846e+10
-3.54485e+10
-3.5524e+10
-3.55658e+10
-3.54911e+10
-3.52364e+10
-3.49126e+10
-3.49378e+10
-3.57486e+10
-3.68161e+10
-3.60444e+10
-3.22927e+10
-3.11138e+10
-4.26971e+10
-5.73598e+10
-2.89045e+10
-3.69929e+10
-3.70001e+10
-3.70069e+10
-3.70217e+10
-3.70483e+10
-3.70924e+10
-3.71585e+10
-3.72496e+10
-3.73681e+10
-3.75176e+10
-3.77048e+10
-3.79409e+10
-3.82387e+10
-3.8608e+10
-3.90485e+10
-3.95405e+10
-4.0034e+10
-4.04539e+10
-4.07483e+10
-4.09721e+10
-4.12584e+10
-4.1491e+10
-4.09879e+10
-3.92361e+10
-3.7115e+10
-3.5841e+10
-3.52224e+10
-3.49548e+10
-3.48985e+10
-3.49482e+10
-3.50413e+10
-3.51408e+10
-3.52276e+10
-3.52932e+10
-3.53367e+10
-3.53626e+10
-3.53792e+10
-3.53971e+10
-3.54269e+10
-3.54746e+10
-3.55307e+10
-3.55529e+10
-3.54647e+10
-3.5216e+10
-3.49376e+10
-3.50543e+10
-3.59631e+10
-3.70795e+10
-3.64018e+10
-3.31437e+10
-3.29094e+10
-4.47449e+10
-5.85972e+10
-2.95539e+10
-3.70026e+10
-3.70108e+10
-3.7023e+10
-3.7043e+10
-3.70759e+10
-3.71263e+10
-3.71983e+10
-3.72944e+10
-3.74162e+10
-3.75659e+10
-3.7749e+10
-3.79749e+10
-3.82555e+10
-3.86007e+10
-3.90121e+10
-3.94736e+10
-3.99397e+10
-4.0337e+10
-4.06132e+10
-4.0826e+10
-4.11106e+10
-4.13574e+10
-4.09277e+10
-3.92952e+10
-3.72578e+10
-3.60018e+10
-3.53512e+10
-3.50527e+10
-3.49707e+10
-3.49992e+10
-3.50742e+10
-3.51578e+10
-3.52304e+10
-3.52837e+10
-3.53176e+10
-3.53377e+10
-3.5354e+10
-3.53785e+10
-3.5423e+10
-3.54934e+10
-3.55784e+10
-3.56326e+10
-3.5573e+10
-3.53397e+10
-3.50526e+10
-3.51286e+10
-3.59642e+10
-3.69764e+10
-3.61524e+10
-3.26773e+10
-3.21658e+10
-4.43032e+10
-6.06966e+10
-3.66071e+10
-3.69245e+10
-3.69225e+10
-3.692e+10
-3.6923e+10
-3.69389e+10
-3.69753e+10
-3.70375e+10
-3.71259e+10
-3.72373e+10
-3.73677e+10
-3.75184e+10
-3.77022e+10
-3.79437e+10
-3.82728e+10
-3.87086e+10
-3.92437e+10
-3.98288e+10
-4.03742e+10
-4.08162e+10
-4.12679e+10
-4.20748e+10
-4.32561e+10
-4.34186e+10
-4.06457e+10
-3.68938e+10
-3.51445e+10
-3.45193e+10
-3.43844e+10
-3.45112e+10
-3.47171e+10
-3.49261e+10
-3.5106e+10
-3.52476e+10
-3.53505e+10
-3.54192e+10
-3.54615e+10
-3.54879e+10
-3.55109e+10
-3.55418e+10
-3.55854e+10
-3.5629e+10
-3.56259e+10
-3.54945e+10
-3.5184e+10
-3.48293e+10
-3.48458e+10
-3.5576e+10
-3.63612e+10
-3.52806e+10
-3.19329e+10
-3.22396e+10
-4.51649e+10
-6.11883e+10
-3.46967e+10
-3.6941e+10
-3.69389e+10
-3.69411e+10
-3.69475e+10
-3.69665e+10
-3.70052e+10
-3.70682e+10
-3.71558e+10
-3.72642e+10
-3.73892e+10
-3.75316e+10
-3.77036e+10
-3.79294e+10
-3.82394e+10
-3.86561e+10
-3.91786e+10
-3.97624e+10
-4.03151e+10
-4.07541e+10
-4.11697e+10
-4.18951e+10
-4.29718e+10
-4.32113e+10
-4.08363e+10
-3.71643e+10
-3.53954e+10
-3.46948e+10
-3.45133e+10
-3.46017e+10
-3.47765e+10
-3.49616e+10
-3.51238e+10
-3.52524e+10
-3.53461e+10
-3.54093e+10
-3.54508e+10
-3.54826e+10
-3.55191e+10
-3.55736e+10
-3.56529e+10
-3.57457e+10
-3.58054e+10
-3.57492e+10
-3.5522e+10
-3.52519e+10
-3.53479e+10
-3.61478e+10
-3.69671e+10
-3.57362e+10
-3.15959e+10
-2.99319e+10
-4.16214e+10
-6.28424e+10
-4.35785e+10
-3.67997e+10
-3.6801e+10
-3.67888e+10
-3.67817e+10
-3.67895e+10
-3.68222e+10
-3.6884e+10
-3.69711e+10
-3.70733e+10
-3.71806e+10
-3.72981e+10
-3.746e+10
-3.77343e+10
-3.82003e+10
-3.89042e+10
-3.98221e+10
-4.08614e+10
-4.19101e+10
-4.29294e+10
-4.40927e+10
-4.57964e+10
-4.79718e+10
-4.86277e+10
-4.41575e+10
-3.75173e+10
-3.29997e+10
-3.28277e+10
-3.33531e+10
-3.39171e+10
-3.43726e+10
-3.47203e+10
-3.49807e+10
-3.51721e+10
-3.53076e+10
-3.53991e+10
-3.54598e+10
-3.55046e+10
-3.55493e+10
-3.56081e+10
-3.56879e+10
-3.57766e+10
-3.58271e+10
-3.57578e+10
-3.55194e+10
-3.52486e+10
-3.53492e+10
-3.61171e+10
-3.68205e+10
-3.55237e+10
-3.19836e+10
-3.22876e+10
-4.48698e+10
-5.85447e+10
-3.00292e+10
-3.68038e+10
-3.68029e+10
-3.67902e+10
-3.67809e+10
-3.67859e+10
-3.68151e+10
-3.68728e+10
-3.69556e+10
-3.70542e+10
-3.71601e+10
-3.7279e+10
-3.74447e+10
-3.77203e+10
-3.81803e+10
-3.88734e+10
-3.97871e+10
-4.08288e+10
-4.18497e+10
-4.27179e+10
-4.35344e+10
-4.48117e+10
-4.67184e+10
-4.76071e+10
-4.46849e+10
-3.85394e+10
-3.29904e+10
-3.2783e+10
-3.33259e+10
-3.39061e+10
-3.43662e+10
-3.47129e+10
-3.4971e+10
-3.51607e+10
-3.52961e+10
-3.53897e+10
-3.54545e+10
-3.55054e+10
-3.55584e+10
-3.56282e+10
-3.57224e+10
-3.58306e+10
-3.59081e+10
-3.58763e+10
-3.56892e+10
-3.5488e+10
-3.5683e+10
-3.65673e+10
-3.73481e+10
-3.5879e+10
-3.15585e+10
-3.05863e+10
-4.33601e+10
-6.11217e+10
-3.53964e+10
-3.67531e+10
-3.67636e+10
-3.67442e+10
-3.67321e+10
-3.67353e+10
-3.67654e+10
-3.68251e+10
-3.69078e+10
-3.69996e+10
-3.70897e+10
-3.71901e+10
-3.73559e+10
-3.76837e+10
-3.82695e+10
-3.91363e+10
-4.01879e+10
-4.12879e+10
-4.23603e+10
-4.34321e+10
-4.47187e+10
-4.64677e+10
-4.8507e+10
-4.97162e+10
-4.76189e+10
-4.10833e+10
-2.67423e+10
-2.96313e+10
-3.18255e+10
-3.30916e+10
-3.38639e+10
-3.43648e+10
-3.47013e+10
-3.49292e+10
-3.50798e+10
-3.51741e+10
-3.52299e+10
-3.5264e+10
-3.52932e+10
-3.53317e+10
-3.53866e+10
-3.54464e+10
-3.54664e+10
-3.53702e+10
-3.51161e+10
-3.48467e+10
-3.49649e+10
-3.57495e+10
-3.64271e+10
-3.49861e+10
-3.10392e+10
-3.05276e+10
-4.27859e+10
-5.9853e+10
-3.53092e+10
-3.67287e+10
-3.67386e+10
-3.67147e+10
-3.66981e+10
-3.66973e+10
-3.67241e+10
-3.67822e+10
-3.68661e+10
-3.69637e+10
-3.70664e+10
-3.71873e+10
-3.73766e+10
-3.77183e+10
-3.82984e+10
-3.91487e+10
-4.02026e+10
-4.13246e+10
-4.23653e+10
-4.32469e+10
-4.41601e+10
-4.57373e+10
-4.82653e+10
-4.95397e+10
-4.79289e+10
-4.48997e+10
-2.70312e+10
-2.94787e+10
-3.1711e+10
-3.30138e+10
-3.3809e+10
-3.43248e+10
-3.46726e+10
-3.49114e+10
-3.50747e+10
-3.51846e+10
-3.52589e+10
-3.53139e+10
-3.53651e+10
-3.54254e+10
-3.55e+10
-3.55759e+10
-3.56072e+10
-3.55172e+10
-3.52648e+10
-3.49966e+10
-3.51235e+10
-3.5917e+10
-3.65182e+10
-3.47963e+10
-3.08226e+10
-3.23118e+10
-4.82801e+10
-6.20621e+10
-3.0375e+10
-3.67469e+10
-3.67401e+10
-3.67197e+10
-3.67019e+10
-3.67006e+10
-3.67269e+10
-3.6784e+10
-3.68644e+10
-3.69537e+10
-3.70409e+10
-3.71377e+10
-3.73011e+10
-3.76288e+10
-3.82191e+10
-3.90883e+10
-4.01414e+10
-4.12671e+10
-4.23765e+10
-4.34784e+10
-4.48232e+10
-4.67057e+10
-4.86224e+10
-4.81717e+10
-4.29199e+10
-2.09894e+10
-2.93769e+10
-3.16155e+10
-3.29447e+10
-3.37748e+10
-3.43216e+10
-3.46971e+10
-3.49611e+10
-3.51476e+10
-3.5279e+10
-3.53727e+10
-3.54444e+10
-3.55078e+10
-3.55732e+10
-3.56433e+10
-3.57028e+10
-3.57058e+10
-3.55782e+10
-3.52802e+10
-3.4951e+10
-3.49852e+10
-3.56694e+10
-3.62803e+10
-3.48779e+10
-3.1068e+10
-3.05494e+10
-4.227e+10
-5.92413e+10
-3.75443e+10
-3.6733e+10
-3.67337e+10
-3.67087e+10
-3.6689e+10
-3.66861e+10
-3.67116e+10
-3.67693e+10
-3.6853e+10
-3.69492e+10
-3.70481e+10
-3.71622e+10
-3.73434e+10
-3.76818e+10
-3.82691e+10
-3.91314e+10
-4.01918e+10
-4.13231e+10
-4.23682e+10
-4.32768e+10
-4.42622e+10
-4.57879e+10
-4.81247e+10
-4.99679e+10
-4.88959e+10
-2.16624e+10
-2.9324e+10
-3.15519e+10
-3.29019e+10
-3.37518e+10
-3.43124e+10
-3.4698e+10
-3.49707e+10
-3.5166e+10
-3.5307e+10
-3.54116e+10
-3.54958e+10
-3.55737e+10
-3.56551e+10
-3.57421e+10
-3.58186e+10
-3.58375e+10
-3.57227e+10
-3.54328e+10
-3.51068e+10
-3.51422e+10
-3.58174e+10
-3.63499e+10
-3.47544e+10
-3.10691e+10
-3.23177e+10
-4.68784e+10
-6.09187e+10
-3.01318e+10
-3.68071e+10
-3.67902e+10
-3.67844e+10
-3.67747e+10
-3.67814e+10
-3.68127e+10
-3.68728e+10
-3.69558e+10
-3.70491e+10
-3.71407e+10
-3.72365e+10
-3.73827e+10
-3.76673e+10
-3.81861e+10
-3.89806e+10
-3.99856e+10
-4.10698e+10
-4.21029e+10
-4.30509e+10
-4.40777e+10
-4.54194e+10
-4.71367e+10
-4.85317e+10
-4.7048e+10
-3.62525e+10
-3.2068e+10
-3.20419e+10
-3.27628e+10
-3.34888e+10
-3.40576e+10
-3.4483e+10
-3.48004e+10
-3.50381e+10
-3.5216e+10
-3.53498e+10
-3.54531e+10
-3.55394e+10
-3.5621e+10
-3.57072e+10
-3.57994e+10
-3.5883e+10
-3.59153e+10
-3.58271e+10
-3.55811e+10
-3.53074e+10
-3.53819e+10
-3.60952e+10
-3.68e+10
-3.57047e+10
-3.2601e+10
-3.3469e+10
-4.6328e+10
-5.94428e+10
-2.97071e+10
-3.68091e+10
-3.68035e+10
-3.67928e+10
-3.67844e+10
-3.67924e+10
-3.68269e+10
-3.68921e+10
-3.69829e+10
-3.7087e+10
-3.71925e+10
-3.73047e+10
-3.74622e+10
-3.77387e+10
-3.82185e+10
-3.89424e+10
-3.98619e+10
-4.08527e+10
-4.17939e+10
-4.26876e+10
-4.37606e+10
-4.52099e+10
-4.70111e+10
-4.7689e+10
-4.62349e+10
-3.72594e+10
-3.1891e+10
-3.18641e+10
-3.26604e+10
-3.34558e+10
-3.40713e+10
-3.45261e+10
-3.48625e+10
-3.51128e+10
-3.52993e+10
-3.5439e+10
-3.55459e+10
-3.56338e+10
-3.57154e+10
-3.57999e+10
-3.5889e+10
-3.59679e+10
-3.59934e+10
-3.58956e+10
-3.56365e+10
-3.53453e+10
-3.53975e+10
-3.60857e+10
-3.67578e+10
-3.55461e+10
-3.19523e+10
-3.16437e+10
-4.40157e+10
-6.13415e+10
-3.74456e+10
-3.69147e+10
-3.69077e+10
-3.69024e+10
-3.69017e+10
-3.69161e+10
-3.69543e+10
-3.7021e+10
-3.71146e+10
-3.72281e+10
-3.73533e+10
-3.74905e+10
-3.76596e+10
-3.79027e+10
-3.82696e+10
-3.87886e+10
-3.94367e+10
-4.01371e+10
-4.07779e+10
-4.12702e+10
-4.16574e+10
-4.21726e+10
-4.29925e+10
-4.31723e+10
-4.02636e+10
-3.67473e+10
-3.48872e+10
-3.41571e+10
-3.40038e+10
-3.41547e+10
-3.43965e+10
-3.46438e+10
-3.48603e+10
-3.50368e+10
-3.51732e+10
-3.52748e+10
-3.53502e+10
-3.54103e+10
-3.54667e+10
-3.55289e+10
-3.56004e+10
-3.56697e+10
-3.56985e+10
-3.56233e+10
-3.54088e+10
-3.51755e+10
-3.52771e+10
-3.59927e+10
-3.67052e+10
-3.56538e+10
-3.25055e+10
-3.28786e+10
-4.51695e+10
-6.03807e+10
-3.29816e+10
-3.69341e+10
-3.69294e+10
-3.69263e+10
-3.69277e+10
-3.69439e+10
-3.69834e+10
-3.7051e+10
-3.71457e+10
-3.7261e+10
-3.73896e+10
-3.75327e+10
-3.77087e+10
-3.79548e+10
-3.83149e+10
-3.88122e+10
-3.94225e+10
-4.0065e+10
-4.06332e+10
-4.10781e+10
-4.15186e+10
-4.22132e+10
-4.31685e+10
-4.31912e+10
-4.04295e+10
-3.6777e+10
-3.48353e+10
-3.40975e+10
-3.39746e+10
-3.41612e+10
-3.44311e+10
-3.46985e+10
-3.49298e+10
-3.51173e+10
-3.52618e+10
-3.53689e+10
-3.54474e+10
-3.55077e+10
-3.55612e+10
-3.56173e+10
-3.56786e+10
-3.57332e+10
-3.57428e+10
-3.56446e+10
-3.54045e+10
-3.51452e+10
-3.52255e+10
-3.59427e+10
-3.67083e+10
-3.56725e+10
-3.19734e+10
-3.04577e+10
-4.1139e+10
-6.06353e+10
-4.05213e+10
-3.7001e+10
-3.69996e+10
-3.70009e+10
-3.70084e+10
-3.70287e+10
-3.70685e+10
-3.71331e+10
-3.72255e+10
-3.73461e+10
-3.74955e+10
-3.76788e+10
-3.79081e+10
-3.82022e+10
-3.85784e+10
-3.90399e+10
-3.95633e+10
-4.00934e+10
-4.05535e+10
-4.08865e+10
-4.11048e+10
-4.12876e+10
-4.13433e+10
-4.06482e+10
-3.87336e+10
-3.65976e+10
-3.53347e+10
-3.47497e+10
-3.45471e+10
-3.45797e+10
-3.47217e+10
-3.48997e+10
-3.50729e+10
-3.52226e+10
-3.53431e+10
-3.5436e+10
-3.55081e+10
-3.55691e+10
-3.56296e+10
-3.56986e+10
-3.57791e+10
-3.5859e+10
-3.58997e+10
-3.58366e+10
-3.56314e+10
-3.53991e+10
-3.54852e+10
-3.61585e+10
-3.67844e+10
-3.5571e+10
-3.2164e+10
-3.22555e+10
-4.4334e+10
-5.85292e+10
-3.09623e+10
-3.70186e+10
-3.70156e+10
-3.70202e+10
-3.703e+10
-3.70525e+10
-3.70938e+10
-3.71586e+10
-3.72494e+10
-3.73665e+10
-3.75107e+10
-3.76876e+10
-3.79101e+10
-3.81979e+10
-3.85694e+10
-3.9029e+10
-3.95537e+10
-4.00867e+10
-4.05505e+10
-4.08927e+10
-4.11436e+10
-4.13938e+10
-4.15094e+10
-4.08276e+10
-3.88884e+10
-3.66962e+10
-3.54093e+10
-3.48205e+10
-3.46208e+10
-3.46557e+10
-3.47979e+10
-3.49746e+10
-3.51456e+10
-3.52928e+10
-3.54101e+10
-3.54986e+10
-3.55642e+10
-3.56157e+10
-3.56632e+10
-3.57149e+10
-3.57733e+10
-3.58266e+10
-3.58365e+10
-3.57401e+10
-3.55017e+10
-3.52399e+10
-3.53068e+10
-3.59849e+10
-3.66394e+10
-3.5395e+10
-3.17854e+10
-3.18768e+10
-4.51533e+10
-6.03168e+10
-3.19275e+10
-3.71043e+10
-3.71066e+10
-3.71164e+10
-3.71311e+10
-3.71554e+10
-3.71926e+10
-3.72458e+10
-3.73176e+10
-3.74101e+10
-3.75271e+10
-3.76757e+10
-3.78667e+10
-3.81128e+10
-3.8423e+10
-3.87961e+10
-3.92133e+10
-3.96354e+10
-4.00118e+10
-4.03089e+10
-4.05311e+10
-4.0667e+10
-4.05321e+10
-3.9789e+10
-3.84628e+10
-3.70879e+10
-3.61057e+10
-3.55268e+10
-3.52332e+10
-3.51217e+10
-3.51135e+10
-3.51564e+10
-3.52164e+10
-3.52739e+10
-3.53193e+10
-3.53507e+10
-3.5372e+10
-3.5391e+10
-3.54169e+10
-3.54571e+10
-3.55124e+10
-3.55675e+10
-3.55786e+10
-3.54755e+10
-3.52167e+10
-3.49221e+10
-3.49511e+10
-3.55757e+10
-3.6104e+10
-3.45737e+10
-3.03314e+10
-2.89115e+10
-4.03126e+10
-5.94098e+10
-4.03393e+10
-3.71036e+10
-3.71088e+10
-3.71198e+10
-3.7137e+10
-3.71638e+10
-3.72032e+10
-3.72582e+10
-3.73306e+10
-3.7422e+10
-3.75352e+10
-3.76764e+10
-3.78557e+10
-3.80854e+10
-3.83756e+10
-3.87276e+10
-3.9126e+10
-3.95343e+10
-3.99037e+10
-4.02033e+10
-4.04414e+10
-4.06059e+10
-4.05099e+10
-3.9823e+10
-3.85456e+10
-3.71928e+10
-3.62165e+10
-3.56362e+10
-3.53376e+10
-3.52195e+10
-3.52049e+10
-3.52423e+10
-3.5298e+10
-3.53517e+10
-3.5393e+10
-3.54191e+10
-3.54331e+10
-3.5442e+10
-3.54548e+10
-3.54794e+10
-3.55178e+10
-3.55574e+10
-3.5559e+10
-3.54576e+10
-3.52174e+10
-3.49637e+10
-3.50628e+10
-3.57793e+10
-3.63512e+10
-3.47333e+10
-3.073e+10
-3.14566e+10
-4.64024e+10
-6.13444e+10
-3.07887e+10
-3.72111e+10
-3.72221e+10
-3.72412e+10
-3.72687e+10
-3.73066e+10
-3.73567e+10
-3.74203e+10
-3.74982e+10
-3.75913e+10
-3.77014e+10
-3.78319e+10
-3.7988e+10
-3.81747e+10
-3.83945e+10
-3.86438e+10
-3.89086e+10
-3.91632e+10
-3.93794e+10
-3.95448e+10
-3.96643e+10
-3.9708e+10
-3.95449e+10
-3.90284e+10
-3.82223e+10
-3.73752e+10
-3.66743e+10
-3.61721e+10
-3.5852e+10
-3.56698e+10
-3.55803e+10
-3.55465e+10
-3.55407e+10
-3.55442e+10
-3.55458e+10
-3.55421e+10
-3.55356e+10
-3.55333e+10
-3.55444e+10
-3.55769e+10
-3.5632e+10
-3.56948e+10
-3.57213e+10
-3.56413e+10
-3.54188e+10
-3.51916e+10
-3.53501e+10
-3.6192e+10
-3.70028e+10
-3.57004e+10
-3.14027e+10
-2.94223e+10
-3.98557e+10
-5.79442e+10
-3.66459e+10
-3.72069e+10
-3.7222e+10
-3.72377e+10
-3.7264e+10
-3.73008e+10
-3.73505e+10
-3.74145e+10
-3.74934e+10
-3.7588e+10
-3.76997e+10
-3.78313e+10
-3.7987e+10
-3.81709e+10
-3.83849e+10
-3.86252e+10
-3.88783e+10
-3.91207e+10
-3.93262e+10
-3.94831e+10
-3.95961e+10
-3.96361e+10
-3.94793e+10
-3.89891e+10
-3.82193e+10
-3.74013e+10
-3.67176e+10
-3.62229e+10
-3.5905e+10
-3.57227e+10
-3.56327e+10
-3.55986e+10
-3.55925e+10
-3.55948e+10
-3.55939e+10
-3.55855e+10
-3.55711e+10
-3.55572e+10
-3.55526e+10
-3.55659e+10
-3.56e+10
-3.5643e+10
-3.56558e+10
-3.55733e+10
-3.53643e+10
-3.51706e+10
-3.5387e+10
-3.62885e+10
-3.7054e+10
-3.55189e+10