/*--------------------------------*- C++ -*----------------------------------*\
| =========                 |                                                 |
| \\      /  F ield         | OpenFOAM: The Open Source CFD Toolbox           |
|  \\    /   O peration     | Version:  4.1                                   |
|   \\  /    A nd           | Web:      www.OpenFOAM.org                      |
|    \\/     M anipulation  |                                                 |
\*---------------------------------------------------------------------------*/
FoamFile
{
    version     2.0;
    format      ascii;
    class       surfaceScalarField;
    location    "94";
    object      phi;
}
// * * * * * * * * * * * * * * * * * * * * * * * * * * * * * * * * * * * * * //

dimensions      [0 3 -1 0 0 0 0];

internalField   nonuniform List<scalar> 
11516
(
-3.78253e+10
3.33404e+07
2.32986e+08
-3.80834e+10
2.38304e+07
2.32157e+08
-3.83443e+10
2.51305e+07
2.33913e+08
-3.86001e+10
2.07543e+07
2.33368e+08
-3.88591e+10
2.21549e+07
2.35619e+08
-3.91199e+10
2.23049e+07
2.3788e+08
-3.93789e+10
2.19879e+07
2.37228e+08
-3.96337e+10
2.17099e+07
2.34186e+08
-3.98801e+10
2.11402e+07
2.27482e+08
-4.0112e+10
2.03276e+07
2.15045e+08
-4.03225e+10
1.92905e+07
1.96003e+08
-4.05065e+10
1.80563e+07
1.71865e+08
-4.0655e+10
1.64316e+07
1.3832e+08
-4.07623e+10
1.46326e+07
9.92077e+07
-4.08187e+10
1.2702e+07
5.15125e+07
-4.0816e+10
1.06416e+07
-4.38337e+06
-4.0749e+10
8.35588e+06
-6.43083e+07
-4.06118e+10
4.85147e+06
-1.31116e+08
-4.04013e+10
883169
-1.98999e+08
-4.01134e+10
-3.52979e+06
-2.70936e+08
-3.97434e+10
-7.8198e+06
-3.43746e+08
-3.92965e+10
-1.26863e+07
-4.12109e+08
-3.87749e+10
-1.74384e+07
-4.77371e+08
-3.81917e+10
-2.21728e+07
-5.30357e+08
-3.7555e+10
-2.6541e+07
-5.75259e+08
-3.68806e+10
-3.02596e+07
-6.04706e+08
-3.61779e+10
-3.30783e+07
-6.24958e+08
-3.54626e+10
-3.46704e+07
-6.30389e+08
-3.47443e+10
-3.47987e+07
-6.27541e+08
-3.40343e+10
-3.3159e+07
-6.15038e+08
-3.33423e+10
-2.94548e+07
-5.94801e+08
-3.26734e+10
-2.3425e+07
-5.71828e+08
-3.20352e+10
-1.47961e+07
-5.43774e+08
-3.14303e+10
-3.37881e+06
-5.1517e+08
-3.08608e+10
1.09895e+07
-4.86611e+08
-3.03281e+10
2.84575e+07
-4.58323e+08
-2.98283e+10
4.87388e+07
-4.34983e+08
-2.9357e+10
7.02545e+07
-4.15135e+08
-2.89017e+10
9.18983e+07
-4.05226e+08
-2.84526e+10
1.14889e+08
-4.03316e+08
-2.8e+10
1.40509e+08
-4.10016e+08
-2.75305e+10
1.69423e+08
-4.28674e+08
-2.70295e+10
2.03176e+08
-4.60765e+08
-2.64903e+10
2.44751e+08
-5.00444e+08
-2.59285e+10
2.97329e+08
-5.31328e+08
-2.53899e+10
3.68986e+08
-5.44358e+08
-2.49199e+10
4.80995e+08
-5.81513e+08
-2.45153e+10
6.42524e+08
-7.06997e+08
-2.41546e+10
7.87978e+08
-8.96456e+08
-2.39294e+10
8.22646e+08
-6.78605e+08
-2.49726e+10
1.27063e+09
1.72728e+08
-2.93508e+10
3.83366e+09
1.20807e+09
-3.20728e+10
1.07227e+10
-7.70184e+09
4.77303e+09
-1.25385e+10
-4.71267e+10
2.30552e+08
-4.73472e+10
2.42577e+08
-4.75629e+10
2.39173e+08
-4.77858e+10
2.42121e+08
-4.80076e+10
2.42706e+08
-4.82305e+10
2.44407e+08
-4.84528e+10
2.43916e+08
-4.86722e+10
2.41291e+08
-4.8886e+10
2.35569e+08
-4.90888e+10
2.24613e+08
-4.9275e+10
2.07602e+08
-4.94409e+10
1.86456e+08
-4.95778e+10
1.56078e+08
-4.96815e+10
1.21316e+08
-4.97439e+10
7.84837e+07
-4.97587e+10
2.97915e+07
-4.97233e+10
-2.2376e+07
-4.96323e+10
-8.11122e+07
-4.9486e+10
-1.402e+08
-4.9281e+10
-2.01762e+08
-4.90161e+10
-2.64189e+08
-4.86968e+10
-3.20967e+08
-4.8326e+10
-3.75307e+08
-4.79161e+10
-4.16997e+08
-4.74738e+10
-4.51818e+08
-4.70134e+10
-4.71421e+08
-4.65414e+10
-4.83446e+08
-4.60706e+10
-4.81218e+08
-4.56063e+10
-4.72333e+08
-4.51554e+10
-4.54714e+08
-4.47229e+10
-4.30186e+08
-4.43081e+10
-4.04154e+08
-4.3913e+10
-3.7327e+08
-4.35346e+10
-3.42604e+08
-4.31692e+10
-3.1227e+08
-4.28126e+10
-2.82239e+08
-4.24566e+10
-2.56799e+08
-4.2098e+10
-2.32289e+08
-4.17279e+10
-2.1518e+08
-4.13373e+10
-2.04263e+08
-4.09143e+10
-2.00728e+08
-4.04422e+10
-2.08394e+08
-3.9901e+10
-2.28068e+08
-3.92731e+10
-2.54691e+08
-3.85536e+10
-2.7406e+08
-3.77453e+10
-2.79166e+08
-3.67957e+10
-3.09692e+08
-3.5595e+10
-4.27129e+08
-3.42031e+10
-5.07215e+08
-3.35097e+10
2.57199e+08
-3.45075e+10
2.47591e+09
-3.374e+10
3.23663e+09
-1.18601e+10
-1.10864e+10
-1.32394e+10
-6.72947e+10
7.54122e+07
1.98612e+08
-6.73488e+10
7.63313e+07
2.06145e+08
-6.74001e+10
7.31053e+07
2.08347e+08
-6.74552e+10
7.14355e+07
2.13434e+08
-6.7509e+10
6.92127e+07
2.16886e+08
-6.75626e+10
6.73102e+07
2.21283e+08
-6.76162e+10
6.53843e+07
2.22766e+08
-6.76695e+10
6.34196e+07
2.21847e+08
-6.77185e+10
6.12964e+07
2.13397e+08
-6.77644e+10
5.90977e+07
2.00568e+08
-6.78056e+10
5.67973e+07
1.79612e+08
-6.7839e+10
5.44568e+07
1.50655e+08
-6.78648e+10
5.19291e+07
1.11629e+08
-6.78799e+10
4.96154e+07
6.44286e+07
-6.7885e+10
4.74835e+07
7.79394e+06
-6.78833e+10
4.63245e+07
-5.22471e+07
-6.78738e+10
4.42972e+07
-1.18569e+08
-6.78548e+10
4.06687e+07
-1.90308e+08
-6.78252e+10
3.61336e+07
-2.65692e+08
-6.77836e+10
3.23003e+07
-3.44149e+08
-6.77316e+10
2.82745e+07
-4.22086e+08
-6.76691e+10
2.40252e+07
-4.94247e+08
-6.7602e+10
1.95491e+07
-5.57364e+08
-6.75309e+10
1.48758e+07
-6.08353e+08
-6.7466e+10
9.99637e+06
-6.40667e+08
-6.74059e+10
4.91333e+06
-6.58892e+08
-6.7359e+10
-429236
-6.58908e+08
-6.73241e+10
-6.10264e+06
-6.45107e+08
-6.7307e+10
-1.2223e+07
-6.16831e+08
-6.73062e+10
-1.8891e+07
-5.80198e+08
-6.73241e+10
-2.62258e+07
-5.32941e+08
-6.73627e+10
-3.43857e+07
-4.80414e+08
-6.74216e+10
-4.35139e+07
-4.22606e+08
-6.7505e+10
-5.37265e+07
-3.59061e+08
-6.76143e+10
-6.49814e+07
-2.92916e+08
-6.77532e+10
-7.73243e+07
-2.22059e+08
-6.79266e+10
-9.06789e+07
-1.49307e+08
-6.81407e+10
-1.0515e+08
-7.21789e+07
-6.84093e+10
-1.20975e+08
1.14239e+07
-6.87482e+10
-1.38969e+08
1.05805e+08
-6.917e+10
-1.59413e+08
2.08772e+08
-6.96929e+10
-1.82987e+08
3.22828e+08
-7.03315e+10
-2.09115e+08
4.44171e+08
-7.1101e+10
-2.36086e+08
5.77945e+08
-7.20132e+10
-2.60552e+08
7.33933e+08
-7.30968e+10
-2.76341e+08
9.22935e+08
-7.44574e+10
-2.73369e+08
1.15377e+09
-7.62081e+10
-2.54346e+08
1.35642e+09
-7.83247e+10
-2.31694e+08
1.44965e+09
-8.03868e+10
-6.73725e+07
1.38041e+09
-8.3061e+10
1.24062e+09
1.56731e+09
-8.6534e+10
4.35738e+09
2.80733e+08
-1.06187e+11
1.05131e+10
1.36542e+09
2.1678e+09
2.82078e+09
-7.73878e+10
3.20995e+08
-7.74003e+10
3.29048e+08
-7.74095e+10
3.19286e+08
-7.74184e+10
3.20475e+08
-7.7426e+10
3.17618e+08
-7.74315e+10
3.15583e+08
-7.74351e+10
3.11434e+08
-7.7437e+10
3.05455e+08
-7.74332e+10
2.92104e+08
-7.74254e+10
2.75387e+08
-7.74126e+10
2.51348e+08
-7.73921e+10
2.20349e+08
-7.73645e+10
1.80369e+08
-7.7327e+10
1.33069e+08
-7.72774e+10
7.61584e+07
-7.72152e+10
1.37286e+07
-7.71384e+10
-5.47549e+07
-7.70539e+10
-1.25106e+08
-7.69604e+10
-1.97532e+08
-7.68562e+10
-2.73356e+08
-7.67418e+10
-3.48753e+08
-7.6618e+10
-4.17727e+08
-7.64913e+10
-4.78269e+08
-7.63614e+10
-5.26894e+08
-7.62404e+10
-5.56916e+08
-7.61268e+10
-5.73201e+08
-7.60318e+10
-5.71021e+08
-7.59555e+10
-5.54768e+08
-7.5907e+10
-5.23273e+08
-7.58873e+10
-4.82837e+08
-7.59022e+10
-4.30406e+08
-7.59577e+10
-3.71654e+08
-7.60564e+10
-3.06384e+08
-7.62071e+10
-2.33864e+08
-7.64149e+10
-1.57268e+08
-7.66877e+10
-7.40136e+07
-7.70344e+10
1.29479e+07
-7.74626e+10
1.0616e+08
-7.79877e+10
2.06428e+08
-7.86263e+10
3.16084e+08
-7.93951e+10
4.33441e+08
-8.03194e+10
5.63609e+08
-8.142e+10
7.02056e+08
-8.27131e+10
8.52033e+08
-8.4207e+10
1.02092e+09
-8.59091e+10
1.21591e+09
-8.78732e+10
1.44147e+09
-9.01636e+10
1.64164e+09
-9.26279e+10
1.71848e+09
-9.38123e+10
1.3428e+09
-9.01527e+10
1.62426e+07
-7.94802e+10
-3.11184e+09
-8.20959e+10
1.93661e+09
7.81729e+09
-5.59114e+10
1.43282e+07
1.0802e+08
-5.58596e+10
2.88614e+07
1.218e+08
-5.58144e+10
2.34962e+07
1.3628e+08
-5.57812e+10
2.55652e+07
1.51631e+08
-5.57543e+10
2.44657e+07
1.6285e+08
-5.57326e+10
2.40565e+07
1.73156e+08
-5.57183e+10
2.34387e+07
1.82931e+08
-5.57077e+10
2.25851e+07
1.86925e+08
-5.57058e+10
2.11975e+07
1.88825e+08
-5.57085e+10
1.93646e+07
1.82839e+08
-5.57185e+10
1.68944e+07
1.72172e+08
-5.5735e+10
1.36685e+07
1.53397e+08
-5.57572e+10
9.44649e+06
1.24161e+08
-5.57821e+10
3.94568e+06
8.47355e+07
-5.58078e+10
-3.44653e+06
3.54226e+07
-5.58169e+10
-1.30598e+07
-3.08672e+07
-5.57995e+10
-2.31694e+07
-1.14102e+08
-5.57523e+10
-3.06595e+07
-2.07209e+08
-5.56695e+10
-3.73459e+07
-3.13204e+08
-5.5547e+10
-4.35487e+07
-4.23165e+08
-5.53867e+10
-4.9113e+07
-5.3303e+08
-5.51862e+10
-5.24523e+07
-6.38021e+08
-5.49563e+10
-5.40821e+07
-7.27643e+08
-5.47067e+10
-5.30013e+07
-7.97325e+08
-5.44471e+10
-4.92169e+07
-8.42635e+08
-5.4191e+10
-4.23645e+07
-8.62734e+08
-5.39479e+10
-3.26272e+07
-8.5809e+08
-5.37261e+10
-2.02963e+07
-8.3391e+08
-5.35304e+10
-5.86099e+06
-7.92587e+08
-5.33674e+10
1.01286e+07
-7.38487e+08
-5.32344e+10
2.70973e+07
-6.77721e+08
-5.31342e+10
4.44421e+07
-6.09689e+08
-5.30614e+10
6.15757e+07
-5.41942e+08
-5.30097e+10
7.79672e+07
-4.74162e+08
-5.29766e+10
9.34301e+07
-4.05311e+08
-5.29515e+10
1.07765e+08
-3.40969e+08
-5.29274e+10
1.21028e+08
-2.7978e+08
-5.28958e+10
1.33221e+08
-2.21216e+08
-5.28421e+10
1.44218e+08
-1.6816e+08
-5.27414e+10
1.53668e+08
-1.27124e+08
-5.25734e+10
1.62613e+08
-9.52754e+07
-5.23132e+10
1.7359e+08
-7.78376e+07
-5.19414e+10
1.88227e+08
-7.25723e+07
-5.14317e+10
2.0792e+08
-8.32606e+07
-5.07528e+10
2.36811e+08
-1.10454e+08
-4.98605e+10
2.82546e+08
-1.72387e+08
-4.86731e+10
3.51433e+08
-3.18697e+08
-4.71522e+10
4.45471e+08
-5.8869e+08
-4.5493e+10
5.97861e+08
-8.86279e+08
-4.42144e+10
9.20794e+08
-1.03149e+09
-4.28131e+10
1.91388e+09
-2.149e+09
-4.13846e+10
3.71167e+09
-5.40071e+09
-3.7838e+10
9.69797e+09
-1.23477e+10
4.48213e+09
-3.06268e+09
-6.4486e+10
1.74859e+08
-6.43004e+10
1.70419e+08
-6.41399e+10
1.80545e+08
-6.39826e+10
1.87285e+08
-6.38346e+10
1.928e+08
-6.36929e+10
1.96779e+08
-6.35596e+10
2.00696e+08
-6.34312e+10
1.98935e+08
-6.33141e+10
1.95631e+08
-6.32043e+10
1.84749e+08
-6.31059e+10
1.6985e+08
-6.3019e+10
1.47417e+08
-6.29441e+10
1.15154e+08
-6.28805e+10
7.3388e+07
-6.28317e+10
2.38022e+07
-6.27915e+10
-3.97873e+07
-6.27539e+10
-1.15327e+08
-6.27107e+10
-1.99318e+08
-6.26517e+10
-2.93894e+08
-6.25777e+10
-3.90913e+08
-6.24885e+10
-4.85331e+08
-6.23811e+10
-5.74673e+08
-6.22616e+10
-6.47605e+08
-6.21357e+10
-7.00918e+08
-6.20062e+10
-7.30131e+08
-6.18807e+10
-7.34781e+08
-6.17618e+10
-7.15371e+08
-6.16517e+10
-6.77083e+08
-6.155e+10
-6.22065e+08
-6.1459e+10
-5.54448e+08
-6.13726e+10
-4.80191e+08
-6.1292e+10
-3.98195e+08
-6.12113e+10
-3.15937e+08
-6.11251e+10
-2.3271e+08
-6.1032e+10
-1.4755e+08
-6.09222e+10
-6.64106e+07
-6.07896e+10
1.18122e+07
-6.06268e+10
8.82201e+07
-6.04234e+10
1.60835e+08
-6.01637e+10
2.26302e+08
-5.98366e+10
2.88766e+08
-5.94164e+10
3.42053e+08
-5.88833e+10
3.89228e+08
-5.82098e+10
4.27512e+08
-5.73616e+10
4.59515e+08
-5.62877e+10
4.76399e+08
-5.48924e+10
4.37334e+08
-5.3107e+10
3.06544e+08
-5.10044e+10
1.55157e+08
-4.90156e+10
1.17537e+08
-4.69407e+10
-3.88815e+08
-4.47823e+10
-1.89112e+09
-2.29862e+10
-1.04378e+10
-5.2577e+09
-6.29918e+10
-9.09105e+07
1.95371e+08
-6.30123e+10
-8.40752e+07
2.25027e+08
-6.30275e+10
-8.52547e+07
2.35664e+08
-6.30486e+10
-8.30496e+07
2.54956e+08
-6.30756e+10
-8.17142e+07
2.7109e+08
-6.31082e+10
-8.04243e+07
2.85989e+08
-6.31418e+10
-7.88621e+07
2.95319e+08
-6.31789e+10
-7.74069e+07
3.01491e+08
-6.32167e+10
-7.61465e+07
3.03025e+08
-6.32541e+10
-7.49809e+07
2.95667e+08
-6.32867e+10
-7.39738e+07
2.7978e+08
-6.33099e+10
-7.31067e+07
2.51175e+08
-6.33206e+10
-7.24353e+07
2.0928e+08
-6.33169e+10
-7.23928e+07
1.54674e+08
-6.32889e+10
-7.28834e+07
8.21541e+07
-6.32386e+10
-7.45402e+07
-5.86359e+06
-6.31675e+10
-7.64733e+07
-1.06435e+08
-6.30756e+10
-7.94704e+07
-2.18758e+08
-6.29624e+10
-8.35628e+07
-3.40809e+08
-6.28241e+10
-9.00259e+07
-4.70312e+08
-6.26576e+10
-9.82447e+07
-5.97591e+08
-6.2466e+10
-1.09101e+08
-7.15494e+08
-6.22532e+10
-1.22416e+08
-8.11387e+08
-6.20284e+10
-1.38135e+08
-8.76369e+08
-6.17992e+10
-1.55684e+08
-9.07915e+08
-6.15758e+10
-1.7428e+08
-9.02277e+08
-6.13648e+10
-1.93225e+08
-8.64783e+08
-6.11724e+10
-2.11801e+08
-8.01911e+08
-6.10037e+10
-2.29496e+08
-7.17891e+08
-6.08597e+10
-2.45864e+08
-6.21702e+08
-6.0745e+10
-2.60688e+08
-5.15977e+08
-6.06585e+10
-2.73794e+08
-4.06173e+08
-6.06047e+10
-2.85035e+08
-2.94072e+08
-6.05853e+10
-2.94249e+08
-1.82322e+08
-6.06001e+10
-3.0123e+08
-7.17075e+07
-6.06566e+10
-3.05701e+08
3.99638e+07
-6.07572e+10
-3.07532e+08
1.48705e+08
-6.09069e+10
-3.05759e+08
2.57321e+08
-6.11163e+10
-3.00086e+08
3.6776e+08
-6.14018e+10
-2.89624e+08
4.79302e+08
-6.17814e+10
-2.74175e+08
5.95596e+08
-6.22745e+10
-2.53485e+08
7.14207e+08
-6.28984e+10
-2.27166e+08
8.34666e+08
-6.36769e+10
-1.94655e+08
9.59748e+08
-6.46333e+10
-1.55105e+08
1.08315e+09
-6.58233e+10
-1.06967e+08
1.20896e+09
-6.73837e+10
-5.15097e+07
1.35337e+09
-6.94814e+10
-2.38663e+07
1.50945e+09
-7.21793e+10
-4.52475e+07
1.66581e+09
-7.53894e+10
1.58961e+07
1.71087e+09
-8.19127e+10
1.36661e+09
2.26124e+09
-9.46136e+10
3.77928e+09
2.61917e+09
-1.25288e+11
1.05598e+10
6.99966e+09
2.10702e+09
-9.18459e+08
-5.99992e+10
1.38192e+07
-5.99364e+10
2.24696e+07
-5.98838e+10
4.18494e+07
-5.98368e+10
5.66906e+07
-5.97982e+10
7.20934e+07
-5.97688e+10
8.67936e+07
-5.97444e+10
9.7284e+07
-5.97284e+10
1.05561e+08
-5.97191e+10
1.10401e+08
-5.97166e+10
1.07626e+08
-5.97177e+10
9.78497e+07
-5.97191e+10
7.6977e+07
-5.97193e+10
4.43483e+07
-5.97172e+10
402000
-5.97044e+10
-6.07671e+07
-5.96797e+10
-1.37433e+08
-5.9641e+10
-2.29144e+08
-5.95819e+10
-3.36267e+08
-5.95025e+10
-4.55596e+08
-5.93971e+10
-5.84276e+08
-5.9264e+10
-7.13685e+08
-5.91053e+10
-8.38037e+08
-5.89262e+10
-9.43898e+08
-5.87368e+10
-1.02269e+09
-5.85455e+10
-1.07049e+09
-5.83633e+10
-1.08348e+09
-5.81969e+10
-1.06601e+09
-5.80514e+10
-1.024e+09
-5.79302e+10
-9.61183e+08
-5.78319e+10
-8.8609e+08
-5.77581e+10
-8.01355e+08
-5.77036e+10
-7.12365e+08
-5.7669e+10
-6.20866e+08
-5.76512e+10
-5.29203e+08
-5.76454e+10
-4.38049e+08
-5.76537e+10
-3.45951e+08
-5.76721e+10
-2.57321e+08
-5.76977e+10
-1.69459e+08
-5.77298e+10
-8.13843e+07
-5.77684e+10
5.26072e+06
-5.78106e+10
9.21185e+07
-5.78554e+10
1.7559e+08
-5.78953e+10
2.53273e+08
-5.79243e+10
3.23305e+08
-5.79242e+10
3.73746e+08
-5.78877e+10
4.01101e+08
-5.78606e+10
4.04574e+08
-5.79522e+10
3.59774e+08
-5.81713e+10
1.93074e+08
-5.80669e+10
-2.56365e+08
-5.67134e+10
-8.17874e+08
-5.49618e+10
-3.8194e+08
-6.27969e+10
7.69912e+09
5.18699e+09
-5.88283e+10
5.11876e+08
-3.68888e+08
-5.87724e+10
5.21542e+08
-3.53521e+08
-5.87264e+10
5.31716e+08
-3.42885e+08
-5.86823e+10
5.4098e+08
-3.30872e+08
-5.86419e+10
5.50815e+08
-3.20616e+08
-5.86054e+10
5.60775e+08
-3.1169e+08
-5.85726e+10
5.71323e+08
-3.0899e+08
-5.85445e+10
5.8227e+08
-3.08884e+08
-5.85185e+10
5.93719e+08
-3.16447e+08
-5.84953e+10
6.05706e+08
-3.32564e+08
-5.84739e+10
6.18224e+08
-3.58224e+08
-5.84533e+10
6.31273e+08
-3.9798e+08
-5.84345e+10
6.44843e+08
-4.50665e+08
-5.84121e+10
6.58765e+08
-5.22098e+08
-5.83854e+10
6.73035e+08
-6.12804e+08
-5.83509e+10
6.8732e+08
-7.2316e+08
-5.82982e+10
7.01303e+08
-8.54634e+08
-5.822e+10
7.14545e+08
-1.00654e+09
-5.81087e+10
7.28293e+08
-1.17373e+09
-5.79609e+10
7.41834e+08
-1.35395e+09
-5.77702e+10
7.55794e+08
-1.53431e+09
-5.75393e+10
7.68278e+08
-1.70487e+09
-5.72738e+10
7.79919e+08
-1.84333e+09
-5.69883e+10
7.89396e+08
-1.9373e+09
-5.66986e+10
7.97384e+08
-1.97772e+09
-5.64179e+10
8.03424e+08
-1.96588e+09
-5.61575e+10
8.07843e+08
-1.90852e+09
-5.59241e+10
8.10888e+08
-1.81773e+09
-5.57204e+10
8.12909e+08
-1.70216e+09
-5.5546e+10
8.1424e+08
-1.57402e+09
-5.53984e+10
8.15235e+08
-1.43881e+09
-5.52736e+10
8.16248e+08
-1.30324e+09
-5.51673e+10
8.17706e+08
-1.17014e+09
-5.50765e+10
8.19971e+08
-1.04045e+09
-5.49974e+10
8.23371e+08
-9.16316e+08
-5.49248e+10
8.28349e+08
-7.96783e+08
-5.48588e+10
8.34963e+08
-6.8068e+08
-5.47935e+10
8.43498e+08
-5.71099e+08
-5.47246e+10
8.54269e+08
-4.64955e+08
-5.46464e+10
8.67756e+08
-3.64321e+08
-5.4551e+10
8.8485e+08
-2.68503e+08
-5.44331e+10
9.06534e+08
-1.77324e+08
-5.42816e+10
9.32885e+08
-9.75326e+07
-5.40837e+10
9.65136e+08
-3.06903e+07
-5.38298e+10
1.00605e+09
1.22321e+07
-5.35134e+10
1.05752e+09
2.62255e+07
-5.31147e+10
1.10979e+09
1.05527e+07
-5.25943e+10
1.13686e+09
-5.17459e+07
-5.18951e+10
1.13584e+09
-2.01785e+08
-5.11918e+10
1.20418e+09
-3.7246e+08
-5.12191e+10
1.76133e+09
3.00065e+08
-5.4755e+10
3.12384e+09
2.84763e+09
-7.27364e+10
1.09452e+10
1.40734e+10
5.69964e+09
6.35412e+09
-5.86461e+10
5.27349e+08
-5.86703e+10
5.67307e+08
-5.86973e+10
5.99758e+08
-5.87321e+10
6.31643e+08
-5.87738e+10
6.63912e+08
-5.88235e+10
6.96641e+08
-5.88802e+10
7.24824e+08
-5.89446e+10
7.51948e+08
-5.90134e+10
7.72932e+08
-5.90863e+10
7.8674e+08
-5.91612e+10
7.92157e+08
-5.92351e+10
7.84229e+08
-5.93069e+10
7.63896e+08
-5.93691e+10
7.2484e+08
-5.94189e+10
6.65844e+08
-5.94512e+10
5.86527e+08
-5.9459e+10
4.84335e+08
-5.94366e+10
3.6081e+08
-5.93772e+10
2.18312e+08
-5.92721e+10
5.8778e+07
-5.91148e+10
-1.07868e+08
-5.89046e+10
-2.70664e+08
-5.86491e+10
-4.09417e+08
-5.83613e+10
-5.09197e+08
-5.80591e+10
-5.61347e+08
-5.77569e+10
-5.65487e+08
-5.7468e+10
-5.27156e+08
-5.72009e+10
-4.57098e+08
-5.69599e+10
-3.62856e+08
-5.6746e+10
-2.56148e+08
-5.65569e+10
-1.42339e+08
-5.63881e+10
-2.84643e+07
-5.6234e+10
8.30868e+07
-5.60901e+10
1.91477e+08
-5.59485e+10
2.93251e+08
-5.57998e+10
3.88774e+08
-5.56399e+10
4.79553e+08
-5.5459e+10
5.62323e+08
-5.52485e+10
6.40343e+08
-5.49991e+10
7.11294e+08
-5.46988e+10
7.75836e+08
-5.43381e+10
8.3379e+08
-5.39036e+10
8.78931e+08
-5.33822e+10
9.08999e+08
-5.27592e+10
9.08805e+08
-5.20216e+10
8.71785e+08
-5.11775e+10
7.99723e+08
-5.02679e+10
6.63564e+08
-4.92409e+10
3.12208e+08
-4.79753e+10
-3.64254e+08
-4.62683e+10
-7.95637e+08
-4.39466e+10
5.03023e+08
-3.04652e+10
5.34136e+09
6.65448e+09
-5.79401e+10
5.32568e+08
-9.1606e+08
-5.79376e+10
5.35267e+08
-8.93027e+08
-5.79503e+10
5.41139e+08
-8.73166e+08
-5.79713e+10
5.41929e+08
-8.53769e+08
-5.80022e+10
5.43265e+08
-8.34735e+08
-5.80412e+10
5.43485e+08
-8.17844e+08
-5.80901e+10
5.43308e+08
-8.04768e+08
-5.81479e+10
5.4255e+08
-7.94615e+08
-5.82136e+10
5.41335e+08
-7.92429e+08
-5.82868e+10
5.39727e+08
-7.98511e+08
-5.83627e+10
5.37756e+08
-8.18109e+08
-5.844e+10
5.35491e+08
-8.52285e+08
-5.85131e+10
5.3299e+08
-9.04575e+08
-5.85764e+10
5.30315e+08
-9.80999e+08
-5.86253e+10
5.27392e+08
-1.0829e+09
-5.8649e+10
5.24713e+08
-1.2139e+09
-5.86414e+10
5.21709e+08
-1.37441e+09
-5.85902e+10
5.19119e+08
-1.5653e+09
-5.84871e+10
5.16335e+08
-1.78233e+09
-5.83194e+10
5.14732e+08
-2.02217e+09
-5.80776e+10
5.14551e+08
-2.2757e+09
-5.77551e+10
5.17445e+08
-2.52602e+09
-5.736e+10
5.23477e+08
-2.74156e+09
-5.69102e+10
5.34442e+08
-2.89763e+09
-5.64319e+10
5.50216e+08
-2.97752e+09
-5.59477e+10
5.70293e+08
-2.98538e+09
-5.54769e+10
5.93989e+08
-2.93132e+09
-5.50326e+10
6.2036e+08
-2.83318e+09
-5.46188e+10
6.48586e+08
-2.70777e+09
-5.42392e+10
6.77859e+08
-2.56709e+09
-5.38898e+10
7.07236e+08
-2.42267e+09
-5.35662e+10
7.35527e+08
-2.28088e+09
-5.32639e+10
7.63477e+08
-2.14454e+09
-5.29763e+10
7.9197e+08
-2.0179e+09
-5.26992e+10
8.21644e+08
-1.9005e+09
-5.24276e+10
8.5316e+08
-1.79335e+09
-5.21571e+10
8.87037e+08
-1.69411e+09
-5.1885e+10
9.23364e+08
-1.60494e+09
-5.16051e+10
9.62699e+08
-1.52599e+09
-5.13158e+10
1.00538e+09
-1.45556e+09
-5.10111e+10
1.05231e+09
-1.39707e+09
-5.06854e+10
1.10404e+09
-1.35061e+09
-5.03349e+10
1.16107e+09
-1.3225e+09
-4.99535e+10
1.22374e+09
-1.32026e+09
-4.95468e+10
1.29301e+09
-1.35194e+09
-4.91256e+10
1.37223e+09
-1.42793e+09
-4.87144e+10
1.47076e+09
-1.54967e+09
-4.83337e+10
1.60162e+09
-1.74683e+09
-4.78555e+10
1.716e+09
-2.11261e+09
-4.69464e+10
1.74817e+09
-2.71521e+09
-4.47422e+10
1.94374e+09
-3.34547e+09
-4.14575e+10
3.39581e+09
-3.20797e+09
-3.77178e+10
9.61762e+09
1.36122e+09
6.01843e+09
5.48534e+09
-6.08977e+10
1.10803e+09
-6.09651e+10
1.16852e+09
-6.10272e+10
1.20154e+09
-6.10969e+10
1.24187e+09
-6.11713e+10
1.28038e+09
-6.12501e+10
1.3178e+09
-6.13343e+10
1.35151e+09
-6.14228e+10
1.38253e+09
-6.15143e+10
1.40577e+09
-6.16084e+10
1.42115e+09
-6.17e+10
1.42322e+09
-6.17887e+10
1.4113e+09
-6.18692e+10
1.3817e+09
-6.19372e+10
1.32843e+09
-6.19883e+10
1.25052e+09
-6.20146e+10
1.14401e+09
-6.20105e+10
1.00883e+09
-6.19675e+10
8.43771e+08
-6.18783e+10
6.53244e+08
-6.1737e+10
4.40812e+08
-6.15377e+10
2.17769e+08
-6.12825e+10
3.08415e+06
-6.09814e+10
-1.74044e+08
-6.06505e+10
-2.90746e+08
-6.03101e+10
-3.33493e+08
-5.9977e+10
-3.06182e+08
-5.96638e+10
-2.19811e+08
-5.93775e+10
-9.19474e+07
-5.91168e+10
6.09699e+07
-5.88811e+10
2.2694e+08
-5.86646e+10
3.94607e+08
-5.84655e+10
5.59717e+08
-5.82809e+10
7.19906e+08
-5.81025e+10
8.69812e+08
-5.79259e+10
1.01064e+09
-5.77448e+10
1.14185e+09
-5.75532e+10
1.26562e+09
-5.73449e+10
1.37892e+09
-5.71095e+10
1.48126e+09
-5.68387e+10
1.57311e+09
-5.65179e+10
1.64974e+09
-5.61301e+10
1.70944e+09
-5.56569e+10
1.74381e+09
-5.5076e+10
1.74403e+09
-5.43785e+10
1.70458e+09
-5.35555e+10
1.6172e+09
-5.25781e+10
1.47075e+09
-5.13811e+10
1.22816e+09
-5.00397e+10
8.3345e+08
-4.88734e+10
4.17676e+08
-4.73738e+10
-6.74155e+07
-4.15626e+10
-1.56505e+09
-1.99046e+10
-6.47099e+09
1.96164e+07
-5.84847e+10
1.06352e+08
-9.84175e+08
-5.85556e+10
9.92251e+07
-9.24004e+08
-5.86339e+10
9.22792e+07
-8.89667e+08
-5.87244e+10
8.19006e+07
-8.47493e+08
-5.88271e+10
7.15525e+07
-8.05579e+08
-5.89397e+10
5.94792e+07
-7.66353e+08
-5.90637e+10
4.64005e+07
-7.28317e+08
-5.91978e+10
3.22605e+07
-6.93267e+08
-5.93425e+10
1.72028e+07
-6.64909e+08
-5.94928e+10
1.28968e+06
-6.48565e+08
-5.96514e+10
-1.54114e+07
-6.41842e+08
-5.98131e+10
-3.27578e+07
-6.53755e+08
-5.99735e+10
-5.05389e+07
-6.87313e+08
-6.01302e+10
-6.85592e+07
-7.47682e+08
-6.02772e+10
-8.64782e+07
-8.40337e+08
-6.04079e+10
-1.03871e+08
-9.70019e+08
-6.05129e+10
-1.20384e+08
-1.14101e+09
-6.05836e+10
-1.35171e+08
-1.35085e+09
-6.06098e+10
-1.48542e+08
-1.60071e+09
-6.05775e+10
-1.59301e+08
-1.88574e+09
-6.04723e+10
-1.67051e+08
-2.20584e+09
-6.02832e+10
-1.69594e+08
-2.53435e+09
-6.0014e+10
-1.71989e+08
-2.83032e+09
-5.96852e+10
-1.75491e+08
-3.03892e+09
-5.93269e+10
-1.81564e+08
-3.14063e+09
-5.89666e+10
-1.88443e+08
-3.13829e+09
-5.86207e+10
-1.95831e+08
-3.0575e+09
-5.8296e+10
-2.02668e+08
-2.92619e+09
-5.79941e+10
-2.08109e+08
-2.76741e+09
-5.77081e+10
-2.11459e+08
-2.60222e+09
-5.74337e+10
-2.12004e+08
-2.44043e+09
-5.71626e+10
-2.09434e+08
-2.29251e+09
-5.68871e+10
-2.04263e+08
-2.16003e+09
-5.66009e+10
-1.96559e+08
-2.04551e+09
-5.62974e+10
-1.85657e+08
-1.94936e+09
-5.59713e+10
-1.7116e+08
-1.87155e+09
-5.56146e+10
-1.53545e+08
-1.81147e+09
-5.52211e+10
-1.33806e+08
-1.76896e+09
-5.47851e+10
-1.12509e+08
-1.74249e+09
-5.42933e+10
-9.03138e+07
-1.73757e+09
-5.37382e+10
-6.76226e+07
-1.75061e+09
-5.31069e+10
-4.51564e+07
-1.78728e+09
-5.23865e+10
-2.40991e+07
-1.85436e+09
-5.15686e+10
-5.97221e+06
-1.95891e+09
-5.06546e+10
8.90495e+06
-2.10734e+09
-4.96499e+10
2.30772e+07
-2.3154e+09
-4.85257e+10
3.77826e+07
-2.62554e+09
-4.71942e+10
5.91141e+07
-3.11158e+09
-4.56746e+10
9.54501e+07
-3.76185e+09
-4.45361e+10
2.67122e+08
-4.08424e+09
-4.33402e+10
2.88378e+08
-4.73487e+09
-3.85498e+10
1.57642e+07
-7.73998e+09
-1.9453e+10
-2.26426e+09
-1.53694e+10
1.72811e+09
-7.94692e+09
-5.96696e+10
1.22395e+09
-5.96722e+10
1.26817e+09
-5.96759e+10
1.29546e+09
-5.96843e+10
1.33029e+09
-5.9696e+10
1.3621e+09
-5.97105e+10
1.39051e+09
-5.97297e+10
1.41636e+09
-5.97538e+10
1.43852e+09
-5.9784e+10
1.45345e+09
-5.9817e+10
1.45627e+09
-5.98573e+10
1.44991e+09
-5.99015e+10
1.42589e+09
-5.99476e+10
1.38189e+09
-5.99954e+10
1.31341e+09
-6.0041e+10
1.21589e+09
-6.00798e+10
1.08513e+09
-6.01037e+10
9.18152e+08
-6.01069e+10
7.16771e+08
-6.00783e+10
4.81299e+08
-6.00058e+10
2.13757e+08
-5.98614e+10
-8.82677e+07
-5.96177e+10
-4.05743e+08
-5.92668e+10
-6.92332e+08
-5.88376e+10
-8.91093e+08
-5.83693e+10
-9.77343e+08
-5.79029e+10
-9.52882e+08
-5.74662e+10
-8.41892e+08
-5.70756e+10
-6.72366e+08
-5.67402e+10
-4.67236e+08
-5.64588e+10
-2.482e+08
-5.62294e+10
-2.66928e+07
-5.60411e+10
1.84447e+08
-5.58829e+10
3.82326e+08
-5.57476e+10
5.65457e+08
-5.5628e+10
7.35684e+08
-5.55172e+10
8.93523e+08
-5.54081e+10
1.0402e+09
-5.52979e+10
1.17637e+09
-5.51859e+10
1.30297e+09
-5.50642e+10
1.41261e+09
-5.49314e+10
1.50695e+09
-5.47802e+10
1.57695e+09
-5.46042e+10
1.61176e+09
-5.43987e+10
1.59828e+09
-5.41599e+10
1.5259e+09
-5.38715e+10
1.37003e+09
-5.3464e+10
1.07146e+09
-5.27946e+10
5.28214e+08
-5.16369e+10
-3.40298e+08
-4.97812e+10
-1.26801e+09
-4.67299e+10
-2.85033e+09
-4.23739e+10
-5.89304e+09
-2.94594e+10
-2.17382e+10
-1.08769e+10
-5.85247e+10
-7.84478e+07
-9.22991e+08
-5.85281e+10
-8.76241e+07
-8.36779e+08
-5.85415e+10
-8.27289e+07
-7.97067e+08
-5.85658e+10
-8.25148e+07
-7.43648e+08
-5.86007e+10
-8.10985e+07
-6.91835e+08
-5.8646e+10
-8.03431e+07
-6.422e+08
-5.87034e+10
-7.95824e+07
-5.92151e+08
-5.87701e+10
-7.88315e+07
-5.47758e+08
-5.88483e+10
-7.79749e+07
-5.08158e+08
-5.89397e+10
-7.69482e+07
-4.78874e+08
-5.90408e+10
-7.56651e+07
-4.62755e+08
-5.91518e+10
-7.3977e+07
-4.64781e+08
-5.92703e+10
-7.1685e+07
-4.91012e+08
-5.93922e+10
-6.86631e+07
-5.49152e+08
-5.95134e+10
-6.4757e+07
-6.45284e+08
-5.96266e+10
-6.00749e+07
-7.89297e+08
-5.97219e+10
-5.40043e+07
-9.84859e+08
-5.97875e+10
-4.72891e+07
-1.23526e+09
-5.98096e+10
-3.92225e+07
-1.53685e+09
-5.97786e+10
-3.20172e+07
-1.88636e+09
-5.96729e+10
-2.79737e+07
-2.28435e+09
-5.94732e+10
-3.11225e+07
-2.70967e+09
-5.91788e+10
-3.83602e+07
-3.09415e+09
-5.88325e+10
-4.88313e+07
-3.34879e+09
-5.84957e+10
-6.13211e+07
-3.42816e+09
-5.82151e+10
-7.66522e+07
-3.35441e+09
-5.80112e+10
-9.51227e+07
-3.1787e+09
-5.78855e+10
-1.16695e+08
-2.94831e+09
-5.78268e+10
-1.4096e+08
-2.69941e+09
-5.78195e+10
-1.67377e+08
-2.45765e+09
-5.78475e+10
-1.95458e+08
-2.23459e+09
-5.78993e+10
-2.24722e+08
-2.03623e+09
-5.79651e+10
-2.54947e+08
-1.86294e+09
-5.80382e+10
-2.86242e+08
-1.71407e+09
-5.81135e+10
-3.18852e+08
-1.58776e+09
-5.81904e+10
-3.53182e+08
-1.47925e+09
-5.82671e+10
-3.89448e+08
-1.38895e+09
-5.83461e+10
-4.28363e+08
-1.31146e+09
-5.84272e+10
-4.70457e+08
-1.24778e+09
-5.85172e+10
-5.16186e+08
-1.19615e+09
-5.86174e+10
-5.66006e+08
-1.15798e+09
-5.87359e+10
-6.20261e+08
-1.13365e+09
-5.88882e+10
-6.79383e+08
-1.12542e+09
-5.90955e+10
-7.44187e+08
-1.14216e+09
-5.9387e+10
-8.1525e+08
-1.19041e+09
-5.97862e+10
-8.95964e+08
-1.29897e+09
-6.03054e+10
-9.89282e+08
-1.51996e+09
-6.094e+10
-1.08111e+09
-1.95599e+09
-6.15004e+10
-1.15806e+09
-2.71868e+09
-6.0729e+10
-1.40116e+09
-4.22178e+09
-5.69248e+10
-2.02204e+09
-7.26102e+09
-5.06095e+10
-2.58952e+09
-1.21872e+10
-3.95669e+10
-5.04857e+09
-2.18754e+10
-2.72869e+09
-4.36458e+09
-5.9732e+10
1.24197e+09
-5.9886e+10
1.33185e+09
-6.00473e+10
1.37185e+09
-6.02274e+10
1.42613e+09
-6.04252e+10
1.47754e+09
-6.06423e+10
1.52655e+09
-6.08814e+10
1.57563e+09
-6.11405e+10
1.61917e+09
-6.14226e+10
1.6583e+09
-6.17296e+10
1.68755e+09
-6.20578e+10
1.70442e+09
-6.24067e+10
1.70404e+09
-6.27723e+10
1.68044e+09
-6.31477e+10
1.62599e+09
-6.3525e+10
1.53461e+09
-6.38906e+10
1.39642e+09
-6.42295e+10
1.20717e+09
-6.45208e+10
9.63517e+08
-6.47459e+10
6.67713e+08
-6.48869e+10
3.22224e+08
-6.49285e+10
-7.70908e+07
-6.48566e+10
-5.13251e+08
-6.4673e+10
-9.21381e+08
-6.44103e+10
-1.21131e+09
-6.41255e+10
-1.33213e+09
-6.38641e+10
-1.29957e+09
-6.36496e+10
-1.16006e+09
-6.34885e+10
-9.5934e+08
-6.33741e+10
-7.32543e+08
-6.32959e+10
-5.04985e+08
-6.32408e+10
-2.89931e+08
-6.31985e+10
-9.73271e+07
-6.31598e+10
7.13584e+07
-6.31185e+10
2.17709e+08
-6.30703e+10
3.45181e+08
-6.3016e+10
4.58987e+08
-6.29556e+10
5.59525e+08
-6.28925e+10
6.49926e+08
-6.2827e+10
7.27419e+08
-6.27677e+10
7.92315e+08
-6.27186e+10
8.41241e+08
-6.26926e+10
8.72106e+08
-6.27127e+10
8.80712e+08
-6.28084e+10
8.54878e+08
-6.30225e+10
7.8981e+08
-6.34097e+10
6.65425e+08
-6.40542e+10
4.46697e+08
-6.50139e+10
3.62744e+07
-6.6209e+10
-7.52017e+08
-6.69348e+10
-2.42861e+09
-6.60077e+10
-6.31515e+09
-6.11321e+10
-1.38661e+10
-6.42271e+10
-2.41453e+10
2.10944e+09
-5.89222e+10
-1.07552e+08
-8.81787e+08
-5.88578e+10
-1.0532e+08
-7.98253e+08
-5.88091e+10
-9.03714e+07
-7.57185e+08
-5.87694e+10
-8.07577e+07
-7.03603e+08
-5.87411e+10
-7.01077e+07
-6.50407e+08
-5.87247e+10
-6.03801e+07
-5.97804e+08
-5.87222e+10
-5.09664e+07
-5.42614e+08
-5.87362e+10
-4.1976e+07
-4.90178e+08
-5.87668e+10
-3.34196e+07
-4.4211e+08
-5.88169e+10
-2.52579e+07
-4.01018e+08
-5.88872e+10
-1.74099e+07
-3.71626e+08
-5.89739e+10
-9.76419e+06
-3.63125e+08
-5.9075e+10
-2.30828e+06
-3.80005e+08
-5.91866e+10
4.8078e+06
-4.32182e+08
-5.92987e+10
1.11827e+07
-5.32899e+08
-5.9401e+10
1.61025e+07
-6.92127e+08
-5.94752e+10
1.87405e+07
-9.20807e+08
-5.95034e+10
1.82088e+07
-1.22138e+09
-5.94644e+10
1.44492e+07
-1.58907e+09
-5.93346e+10
5.8148e+06
-2.02605e+09
-5.90778e+10
-7.98487e+06
-2.53909e+09
-5.86436e+10
-2.61724e+07
-3.12884e+09
-5.79997e+10
-4.03859e+07
-3.71139e+09
-5.72045e+10
-4.71165e+07
-4.1134e+09
-5.63861e+10
-4.31979e+07
-4.21879e+09
-5.5643e+10
-3.06036e+07
-4.08225e+09
-5.50106e+10
-1.2574e+07
-3.81487e+09
-5.44935e+10
6.7166e+06
-3.49093e+09
-5.40762e+10
2.41485e+07
-3.16325e+09
-5.37372e+10
3.84165e+07
-2.86136e+09
-5.34545e+10
4.95671e+07
-2.59793e+09
-5.32116e+10
5.77172e+07
-2.37338e+09
-5.29943e+10
6.31499e+07
-2.18647e+09
-5.27917e+10
6.60288e+07
-2.03293e+09
-5.25999e+10
6.71144e+07
-1.90516e+09
-5.24115e+10
6.67808e+07
-1.80152e+09
-5.22262e+10
6.5478e+07
-1.71609e+09
-5.20397e+10
6.40824e+07
-1.64846e+09
-5.18542e+10
6.24734e+07
-1.59285e+09
-5.16693e+10
6.08869e+07
-1.55065e+09
-5.14874e+10
5.96078e+07
-1.52158e+09
-5.13143e+10
5.92148e+07
-1.50485e+09
-5.11634e+10
6.04511e+07
-1.5008e+09
-5.10588e+10
6.36979e+07
-1.51692e+09
-5.10398e+10
7.12987e+07
-1.55638e+09
-5.1169e+10
8.93002e+07
-1.63935e+09
-5.15542e+10
1.28141e+08
-1.78596e+09
-5.23608e+10
2.05762e+08
-2.03931e+09
-5.37853e+10
3.29487e+08
-2.50835e+09
-5.5954e+10
4.42603e+08
-3.61442e+09
-5.85251e+10
3.98454e+08
-6.43736e+09
-6.13406e+10
7.18814e+08
-1.15914e+10
-6.11819e+10
-2.78069e+09
-2.05135e+10
3.49162e+09
1.6595e+09
-5.92395e+10
1.20295e+09
-5.93513e+10
1.33726e+09
-5.94682e+10