/*--------------------------------*- C++ -*----------------------------------*\
| =========                 |                                                 |
| \\      /  F ield         | OpenFOAM: The Open Source CFD Toolbox           |
|  \\    /   O peration     | Version:  4.1                                   |
|   \\  /    A nd           | Web:      www.OpenFOAM.org                      |
|    \\/     M anipulation  |                                                 |
\*---------------------------------------------------------------------------*/
FoamFile
{
    version     2.0;
    format      ascii;
    class       volVectorField;
    location    "33";
    object      U;
}
// * * * * * * * * * * * * * * * * * * * * * * * * * * * * * * * * * * * * * //

dimensions      [0 1 -1 0 0 0 0];

internalField   nonuniform List<vector> 
4432
(
(39.9817 0.00185083 0.0523353)
(39.9206 0.00430219 0.0930954)
(39.8626 0.00852555 0.127802)
(39.7709 0.0103802 0.162427)
(39.621 0.0102078 0.198179)
(39.4146 0.00887399 0.235032)
(39.1615 0.00701549 0.271886)
(38.8712 0.00510081 0.306636)
(38.5516 0.00343937 0.337639)
(38.2083 0.00204961 0.362938)
(37.8424 0.000653347 0.379996)
(37.4522 -0.000849985 0.389873)
(37.0266 -0.00368266 0.389691)
(36.5835 -0.00546827 0.384171)
(36.0698 -0.0144837 0.362703)
(35.6601 -0.0196515 0.316486)
(35.2836 -0.0183058 0.389056)
(35.0257 -0.012639 0.337384)
(34.8841 -0.00672428 0.393926)
(34.4782 0.0166273 0.698227)
(33.9581 0.0144722 0.798904)
(33.4576 0.0194411 0.894765)
(33.0186 -0.0183879 0.941795)
(32.4576 -0.0623391 0.889745)
(31.7136 -0.059957 0.905207)
(30.9315 -0.0430622 0.857207)
(30.2707 -0.045558 0.694486)
(29.7118 -0.0521001 0.454918)
(29.3364 -0.0430917 0.31817)
(29.2969 -0.0311742 0.176091)
(29.8323 -0.0311475 -0.120474)
(31.6094 -0.0022192 -0.783961)
(34.2947 0.116822 -1.54463)
(36.9887 0.311645 -1.95825)
(39.5068 0.504194 -2.30942)
(41.4762 0.610926 -2.13691)
(43.8507 0.731266 -1.17216)
(45.2589 0.149139 -0.971551)
(44.9996 -0.164836 -0.639005)
(44.4176 -0.0763412 0.0450299)
(43.2451 0.0860802 0.673498)
(42.1732 0.257597 0.997341)
(40.9214 0.20911 1.06641)
(39.3169 0.162762 1.41752)
(38.4502 0.158618 1.86246)
(36.7438 0.721732 1.91168)
(34.3215 1.35685 3.15758)
(34.0507 0.745839 3.63559)
(31.5852 0.387695 3.2592)
(28.6032 -0.0920398 3.06739)
(11.9639 1.73902 1.40919)
(32.9632 -2.06018 -3.1687)
(39.283 -4.65313 -5.3073)
(64.2415 -2.38426 -3.64337)
(39.9844 0.00185126 0.052301)
(39.9238 0.00430246 0.0930899)
(39.8641 0.00852788 0.12769)
(39.7671 0.0103816 0.161913)
(39.6143 0.0102092 0.197022)
(39.4072 0.0088757 0.233147)
(39.155 0.00701864 0.269047)
(38.8667 0.00510777 0.302837)
(38.5495 0.00344898 0.333096)
(38.2086 0.0020635 0.357904)
(37.8439 0.000672152 0.375375)
(37.4525 -0.000831093 0.386089)
(37.0278 -0.00364432 0.388714)
(36.5688 -0.00546845 0.3855)
(36.076 -0.0141468 0.375576)
(35.5965 -0.0202443 0.332712)
(35.193 -0.0193939 0.341359)
(34.9967 -0.0128261 0.293286)
(34.8384 -0.0072922 0.414365)
(34.4632 0.0155048 0.719823)
(33.9831 0.0137311 0.781033)
(33.4556 0.0195748 0.781192)
(32.9396 -0.0145086 0.834277)
(32.3646 -0.0628766 0.832004)
(31.6281 -0.06583 0.830173)
(30.7298 -0.0441738 0.711836)
(29.8315 -0.0415296 0.548731)
(29.1493 -0.0566467 0.414224)
(28.7477 -0.0416141 0.224506)
(28.4854 -0.0288779 0.00714907)
(28.579 -0.041644 -0.23191)
(29.4881 -0.0565599 -0.429598)
(31.6589 0.0488797 -0.899185)
(34.2452 0.160065 -0.910007)
(37.2348 0.434805 -0.906444)
(39.34 0.56558 -0.979299)
(40.9321 0.791586 -0.434212)
(41.6915 0.253861 0.167917)
(41.8228 -0.110684 0.928485)
(41.489 -0.0616398 1.52633)
(39.9666 0.0881852 2.0226)
(38.323 0.299659 2.3741)
(36.3544 0.246294 2.60072)
(34.923 0.198804 2.91046)
(34.6155 0.229522 3.1367)
(33.5712 0.825889 2.26256)
(30.4037 1.50925 2.57003)
(30.2845 0.854051 3.19302)
(28.8329 0.417953 2.66588)
(25.4772 0.079898 1.87561)
(14.5791 0.971941 0.0875797)
(33.6942 -1.86705 -2.4532)
(38.9145 -3.86623 -13.3178)
(65.2548 -2.4396 -16.3498)
(40.0103 0.00184981 0.020965)
(40.0417 0.004104 0.0577782)
(40.1237 0.0081108 0.103102)
(40.2042 0.00970211 0.148672)
(40.2619 0.00921135 0.192446)
(40.299 0.00746228 0.235657)
(40.3223 0.00509895 0.277414)
(40.3358 0.00266196 0.316592)
(40.3416 0.000547626 0.352324)
(40.3402 -0.000959705 0.384005)
(40.3289 -0.0020541 0.411792)
(40.3042 -0.00261211 0.435105)
(40.2576 -0.00347721 0.459463)
(40.1893 -0.00270866 0.464958)
(40.075 0.000291059 0.529887)
(39.8405 -0.00554921 0.410823)
(39.5396 -0.00431156 0.408874)
(38.7964 0.00415973 0.520816)
(37.6042 0.0086251 0.795678)
(36.882 0.005791 0.833731)
(36.4341 0.00795008 0.838136)
(36.0516 0.00447914 0.827646)
(35.606 -0.000932524 0.814881)
(35.0965 0.00238671 0.949157)
(34.5791 0.00715747 1.13645)
(34.0431 -0.00220219 1.20397)
(33.4766 -0.0179332 1.10391)
(32.8667 -0.0328849 0.910689)
(32.4066 -0.090994 0.569036)
(32.6717 -0.150069 -0.233146)
(34.1024 -0.130979 -1.6007)
(36.4468 -0.00268598 -3.17846)
(38.76 0.12088 -3.96962)
(40.5733 0.171246 -3.83775)
(42.2098 0.0880631 -3.04813)
(43.265 -0.108206 -2.28548)
(43.7452 -0.414717 -1.24954)
(43.6676 -0.514288 -0.695933)
(43.6765 -0.436648 -0.228901)
(43.4883 -0.311012 0.435395)
(42.7529 -0.0795547 1.66031)
(42.5758 0.0174666 2.6542)
(42.2685 -0.00257788 2.84439)
(42.5013 -0.161138 2.9041)
(43.1667 -0.321307 3.37049)
(44.1047 -0.435666 3.16247)
(45.1538 -0.578123 4.65783)
(47.4069 -0.630622 5.78887)
(49.1292 -1.66353 6.1705)
(45.8103 -1.05261 5.54277)
(35.1851 -2.12285 14.1855)
(13.0455 -2.51845 -8.20298)
(-34.4884 -2.87763 -27.6518)
(10.5982 -1.78797 -14.4945)
(40.0129 0.00185005 0.0209058)
(40.0445 0.00410482 0.0576681)
(40.1244 0.00811163 0.102711)
(40.1989 0.00970309 0.147814)
(40.2521 0.00921194 0.190973)
(40.2861 0.00746219 0.23345)
(40.3071 0.00509897 0.274428)
(40.319 0.00265779 0.312913)
(40.324 0.000553516 0.34828)
(40.3214 -0.000980177 0.380011)
(40.3106 -0.00203224 0.408852)
(40.2847 -0.00263148 0.434488)
(40.2404 -0.00350667 0.460164)
(40.1709 -0.00242778 0.483104)
(40.0634 -0.00099397 0.506692)
(39.8803 -0.000521848 0.495379)
(39.5839 -0.00224141 0.471829)
(38.8098 0.00409563 0.543101)
(37.626 0.00759497 0.792986)
(36.8676 0.00525008 0.827221)
(36.4217 0.0078087 0.804898)
(36.0226 0.00457834 0.82677)
(35.5773 -0.000581792 0.83789)
(35.0542 0.00347617 0.902509)
(34.497 0.00984799 1.01128)
(33.9211 0.00483972 1.08642)
(33.2917 -0.00731432 1.09962)
(32.5521 -0.0255558 0.943884)
(31.9185 -0.0581962 0.544113)
(31.6401 -0.119937 0.0326117)
(32.3622 -0.143308 -0.833647)
(34.5307 -0.040332 -2.27018)
(37.3953 0.08177 -3.14755)
(39.4594 0.137137 -3.44426)
(41.201 0.0548574 -3.07952)
(42.4601 -0.097141 -2.5868)
(43.2098 -0.450668 -1.72537)
(43.745 -0.589313 -0.79337)
(44.4472 -0.488738 0.0467512)
(45.3472 -0.531481 0.698043)
(45.0608 -0.37492 1.68667)
(44.7574 -0.169929 2.46531)
(44.1927 -0.117363 2.49898)
(43.7974 -0.163525 2.70676)
(43.7462 -0.248785 3.39227)
(44.019 -0.317817 2.73557)
(44.2777 -0.446593 3.2838)
(45.9441 -0.710939 4.42559)
(47.6561 -0.880367 4.33126)
(42.8873 -0.835919 6.10632)
(38.8583 -2.40898 14.2188)
(24.221 -2.32474 -1.74182)
(-50.1783 -3.78687 -30.6771)
(-30.6174 -2.63568 -38.2949)
(40.0008 0.00182749 0.0275916)
(39.992 0.00400785 0.0706419)
(40.0108 0.00791986 0.118431)
(40.011 0.00938413 0.164671)
(39.9741 0.00876338 0.207464)
(39.9027 0.00691679 0.250026)
(39.8054 0.00452068 0.292807)
(39.6892 0.0021622 0.336075)
(39.5604 0.000300949 0.380246)
(39.423 -0.000746214 0.42597)
(39.2777 -0.00102321 0.474195)
(39.1233 -0.00048455 0.526621)
(38.9534 0.000626526 0.585523)
(38.7707 0.00199623 0.654021)
(38.5423 0.00538819 0.743428)
(38.3614 0.00379308 0.819117)
(37.9065 -0.00485125 1.01765)
(37.6806 -0.00205587 1.35826)
(37.2256 0.00369271 1.43485)
(36.9569 0.00663318 1.33645)
(36.7354 0.00679111 1.22424)
(36.451 0.00535691 1.18835)
(36.0824 0.00472519 1.27944)
(35.616 0.00667826 1.48301)
(35.0735 0.00746609 1.71231)
(34.4361 0.00351941 1.85696)
(33.6597 -0.0139605 1.88204)
(32.7284 -0.057825 1.68264)
(31.9861 -0.14948 0.839887)
(32.1399 -0.158789 -0.896747)
(33.1045 -0.0577251 -3.33286)
(34.5913 0.0412523 -5.23867)
(35.6145 0.166698 -5.74545)
(35.8923 0.316054 -5.42974)
(35.7948 0.342877 -5.03651)
(35.7702 -0.000520205 -3.78123)
(35.5443 -0.476029 -2.03045)
(35.3175 -0.717686 -0.935753)
(34.9598 -0.951208 0.314036)
(34.0946 -0.639034 1.89971)
(32.9519 0.0111314 3.40957)
(32.44 0.119127 4.70033)
(32.4265 0.00531224 4.75211)
(32.6085 -0.0222475 4.98116)
(33.6597 -0.200455 5.03722)
(35.0495 -0.429011 5.1253)
(36.9797 -0.870638 5.19592)
(40.1455 -1.41099 5.42968)
(43.1905 -2.39444 5.7281)
(47.2594 -3.38859 9.04053)
(54.1632 -2.5828 17.6396)
(67.4578 -2.92431 21.5532)
(68.779 -3.34854 17.458)
(63.9932 -5.85003 -2.6508)
(40.0034 0.00182773 0.0275291)
(39.9948 0.0040086 0.0705361)
(40.0114 0.0079206 0.118148)
(40.006 0.00938511 0.164244)
(39.9653 0.00876419 0.206936)
(39.8919 0.00691748 0.249453)
(39.7939 0.00452131 0.292259)
(39.678 0.00216319 0.335665)
(39.5502 0.000301484 0.380175)
(39.414 -0.00074658 0.426454)
(39.2698 -0.00102249 0.475734)
(39.1162 -0.000483864 0.52973)
(38.9471 0.00061145 0.590811)
(38.7642 0.00205755 0.662163)
(38.5405 0.00497657 0.746235)
(38.3188 0.00476006 0.837691)
(37.9153 -0.00478314 1.01538)
(37.6841 -0.00288229 1.37318)
(37.2067 0.00347932 1.46632)
(36.9367 0.00654385 1.35762)
(36.7101 0.00697628 1.23465)
(36.4167 0.00583762 1.19429)
(36.037 0.00587551 1.28457)
(35.5524 0.00955645 1.49529)
(34.9771 0.0112731 1.72343)
(34.296 0.00969756 1.89791)
(33.4232 -0.00621644 2.00787)
(32.3631 -0.0441432 1.86359)
(31.3302 -0.110831 1.21022)
(30.8189 -0.154302 -0.287124)
(31.7644 -0.070608 -2.89884)
(33.6668 0.0457684 -5.05488)
(35.007 0.158221 -5.70846)
(36.0225 0.293257 -5.48101)
(36.679 0.32031 -4.98909)
(37.1066 0.189965 -3.91958)
(37.0121 -0.214953 -2.92233)
(36.8928 -0.446327 -2.20592)
(36.9331 -0.632036 -1.68425)
(37.749 -0.88266 -1.30802)
(35.967 -0.197852 1.30111)
(35.7146 -0.14986 3.55506)
(34.7621 -0.205778 3.50071)
(34.2329 -0.0340749 3.38527)
(34.0801 0.0112074 4.01608)
(34.3658 0.0115455 4.09834)
(35.1612 -0.527012 4.05665)
(37.1508 -1.29355 4.93414)
(39.4358 -2.26419 5.58582)
(42.9404 -3.52953 7.93646)
(48.8477 -2.18646 12.6176)
(66.5844 -2.29704 17.3413)
(72.0702 -2.89238 23.3525)
(64.9002 -4.09523 -2.48557)
(40.0003 0.00178772 0.0352855)
(39.9915 0.00399788 0.0917719)
(40.0108 0.00783 0.162021)
(40.013 0.00925845 0.234679)
(39.9779 0.00862058 0.305051)
(39.9068 0.00675913 0.376851)
(39.807 0.00434061 0.450134)
(39.685 0.00195824 0.524816)
(39.5464 0.000108144 0.600875)
(39.3948 -0.000883036 0.678502)
(39.2311 -0.000925471 0.758171)
(39.0544 1.6786e-05 0.841274)
(38.8615 0.00176362 0.929386)
(38.6513 0.0042411 1.02644)
(38.4166 0.00662063 1.1334)
(38.1545 0.00807803 1.25321)
(37.811 -0.000795713 1.48575)
(37.6065 0.00148215 1.66377)
(37.172 0.00254595 1.61944)
(36.9167 0.00562421 1.4879)
(36.7079 0.00652017 1.41244)
(36.4171 0.00605532 1.47289)
(35.9978 0.00851978 1.69576)
(35.4554 0.00800908 2.02905)
(34.823 -0.000163399 2.41507)
(34.0304 -0.0103011 2.78932)
(32.9415 -0.0345972 3.13521)
(31.6533 -0.0684891 3.06521)
(30.5273 -0.0970188 1.87091)
(30.1485 -0.0715484 -0.997557)
(30.3561 0.0107765 -4.27431)
(30.3758 0.0744823 -5.94013)
(29.8298 0.160924 -6.01783)
(28.9575 0.279661 -5.68597)
(28.5815 0.238255 -5.00713)
(28.5716 -0.218963 -2.53089)
(28.2799 -1.00839 -0.157146)
(28.3406 -1.37198 0.30017)
(28.0131 -1.98059 3.05484)
(28.1086 -1.25367 4.28636)
(27.76 -0.122563 4.27129)
(27.4107 0.166309 5.40968)
(27.5697 0.238814 5.06932)
(27.4425 0.266985 5.42823)
(27.3529 0.324095 5.55871)
(27.9046 0.00567118 5.26813)
(28.3459 -0.919771 4.6494)
(30.2654 -1.15651 4.21548)
(33.5738 -2.24991 3.76791)
(37.9932 -2.92915 3.72709)
(45.8522 -1.96751 5.10122)
(58.0115 -2.64465 5.00615)
(70.7389 -5.27639 1.91998)
(79.1138 -5.4435 -7.22433)
(40.0029 0.00178791 0.0352203)
(39.9942 0.00399864 0.0917511)
(40.0114 0.00783084 0.161895)
(40.008 0.00925951 0.234493)
(39.9692 0.0086215 0.304866)
(39.8961 0.00675992 0.376706)
(39.7956 0.00434143 0.450061)
(39.6741 0.00195922 0.52485)
(39.5367 0.000109075 0.601082)
(39.3867 -0.000881918 0.678949)
(39.2248 -0.00092512 0.759064)
(39.0497 1.84556e-05 0.842739)
(38.8581 0.00176472 0.931785)
(38.6484 0.00424906 1.03034)
(38.4125 0.00664839 1.13852)
(38.1381 0.00813738 1.26081)
(37.7851 -0.0010235 1.48007)
(37.5902 0.00170039 1.7388)
(37.1638 0.0021869 1.67068)
(36.9049 0.00535842 1.51443)
(36.6824 0.00662921 1.43448)
(36.3719 0.00643189 1.49832)
(35.914 0.00895777 1.74055)
(35.3691 0.00787122 2.09424)
(34.7411 0.000539258 2.46784)
(33.9101 -0.0076462 2.89009)
(32.7204 -0.0334556 3.34873)
(31.3446 -0.0678469 3.29571)
(30.1676 -0.0888736 2.12208)
(29.7225 -0.0571238 -0.751968)
(30.1763 0.0160909 -4.14163)
(30.3868 0.0728488 -5.75942)
(30.0518 0.145388 -5.55552)
(29.3869 0.247511 -4.83367)
(29.1206 0.282456 -4.72805)
(29.8382 -0.0260113 -3.86754)
(30.007 -0.745386 -3.09308)
(29.471 -1.28882 -2.2288)
(29.1381 -1.72061 -1.04333)
(28.0216 -1.42458 0.324343)
(27.1198 -0.27948 4.75873)
(26.2815 0.153304 6.16658)
(25.7381 0.10475 5.0989)
(25.6103 0.0337523 4.25123)
(24.6132 0.219643 6.1011)
(24.6929 -0.12724 5.10217)
(24.7932 -1.48922 4.81035)
(24.6093 -1.63973 3.4241)
(26.612 -1.45739 1.4683)
(26.9752 -0.350567 -0.399703)
(30.4411 -0.175359 -1.86807)
(38.5583 -0.436379 -5.22349)
(57.1823 -5.2375 -14.1394)
(52.558 -2.69384 -31.2482)
(40.0004 0.00176239 0.0437911)
(39.9921 0.00399528 0.114129)
(40.0116 0.00781384 0.202599)
(40.0137 0.00922093 0.29275)
(39.9789 0.008593 0.377997)
(39.9086 0.0067653 0.463845)
(39.8104 0.00440753 0.551195)
(39.691 0.00211282 0.640919)
(39.5563 0.000376701 0.73392)
(39.4102 -0.000482813 0.83122)
(39.2541 -0.000358269 0.933844)
(39.087 0.000729561 1.04289)
(38.9064 0.00270356 1.15916)
(38.7104 0.00547222 1.2831)
(38.4954 0.00852575 1.41462)
(38.2463 0.0099665 1.55417)
(37.9641 0.0114925 1.70442)
(37.7354 0.00452358 2.01726)
(37.367 0.01692 1.9259)
(36.9662 0.00345297 1.79441)
(36.6614 -0.000832537 1.69552)
(36.2645 -0.00301451 1.82297)
(35.7362 0.0103205 2.22044)
(35.0697 0.0137373 2.7054)
(34.3378 -0.000604478 3.25163)
(33.4338 -0.00909842 3.8971)
(32.2046 -0.0152929 4.52592)
(30.8485 -0.0200013 4.42734)
(29.5908 -0.00873158 2.69584)
(28.5596 0.0126039 -0.677755)
(27.5017 0.0357759 -3.68617)
(26.0951 0.0784548 -4.91376)
(24.4039 0.158407 -5.00076)
(22.9268 0.296036 -5.20894)
(22.4897 0.423494 -5.04422)
(21.0666 -0.130298 -1.7934)
(21.5694 -1.19244 3.35433)
(22.8957 -1.27707 3.33098)
(22.9289 -2.01324 4.46575)
(23.9636 -1.7379 4.75142)
(24.4446 -0.436375 3.76631)
(24.7123 -0.155038 5.17683)
(24.6047 -0.0427023 5.64068)
(24.7461 0.208884 5.68747)
(23.4928 0.265836 6.17541)
(22.0628 0.303219 6.29197)
(22.1451 0.525642 4.92723)
(25.0313 0.150564 3.80905)
(26.2925 -0.600253 5.14269)
(30.5204 -1.2772 2.11038)
(31.1765 1.49629 1.60897)
(30.0402 1.01253 0.247188)
(54.8347 -9.78646 0.712069)
(46.1905 -15.8702 -5.78683)
(40.0029 0.00176262 0.0437051)
(39.9948 0.003996 0.114087)
(40.0121 0.00781462 0.202402)
(40.0088 0.00922205 0.292491)
(39.9703 0.00859407 0.377795)
(39.8981 0.00676634 0.463798)
(39.7993 0.00440868 0.551385)
(39.6804 0.0021142 0.641405)
(39.5469 0.000378042 0.734738)
(39.4025 -0.000481381 0.832369)
(39.2482 -0.000357158 0.935286)
(39.0827 0.00073175 1.0445)
(38.9034 0.00270768 1.16078)
(38.7091 0.005475 1.28448)
(38.4907 0.00854987 1.416)
(38.2464 0.00989347 1.55413)
(37.9457 0.0114113 1.72793)
(37.7746 0.00835967 1.98257)
(37.417 0.0183052 1.97375)
(36.9772 0.00320446 1.87305)
(36.6322 0.000535183 1.78766)
(36.1812 -0.000619699 1.9443)
(35.5899 0.0104048 2.33515)
(34.9732 0.0117605 2.76764)
(34.2661 -0.00110843 3.28248)
(33.3024 -0.0102703 3.99924)
(32.1137 -0.0176507 4.61319)
(30.8738 -0.0187362 4.38262)
(29.718 -0.00756544 2.64164)
(28.7438 0.0114468 -0.600411)
(27.7538 0.0330294 -3.58333)
(26.4528 0.0737286 -4.79022)
(25.0586 0.142488 -4.63654)
(24.0477 0.302526 -4.4711)
(24.0062 0.707936 -4.68652)
(25.1708 -0.214813 -3.98568)
(26.2291 -0.14627 -4.3203)
(26.2309 -0.178448 -3.76814)
(25.4821 -0.518483 -2.85918)
(23.6095 -0.776841 1.42614)
(22.987 -0.372302 4.65866)
(22.2815 -0.316962 5.78064)
(22.4249 -0.165714 5.13308)
(21.8574 0.0631597 5.58908)
(20.9903 -0.00726669 6.18594)
(20.6605 -0.364663 5.54009)
(21.0276 -0.386112 3.9498)
(20.7593 0.447527 1.90894)
(20.7194 1.43276 1.22913)
(23.0533 1.95981 -1.38346)
(18.9809 1.82567 -0.0751434)
(28.515 0.810463 -6.60769)
(11.4624 -7.15728 -9.32865)
(-56.1718 -2.71017 -18.3639)
(40.0006 0.00170205 0.0521176)
(39.9925 0.00396529 0.136041)
(40.0123 0.00765402 0.241958)
(40.015 0.00902396 0.35038)
(39.9818 0.00843369 0.453584)
(39.9144 0.00670625 0.558835)
(39.8203 0.00449118 0.667452)
(39.7061 0.00236595 0.780533)
(39.5776 0.00080779 0.899)
(39.4388 0.000103406 1.02364)
(39.2909 0.000317325 1.15492)
(39.1326 0.00139176 1.29292)
(38.9605 0.00309323 1.43695)
(38.7728 0.005633 1.58647)
(38.5645 0.00781959 1.73699)
(38.3416 0.0117194 1.89912)
(38.0974 0.0114941 2.04817)
(37.8856 0.0115237 2.31788)
(37.669 0.0169976 2.3487)
(37.2715 0.0042983 2.28422)
(36.8259 0.000346865 2.25429)
(36.2626 -0.0189092 2.42816)
(35.795 -0.00257828 2.7573)
(35.0511 0.0123648 3.40533)
(34.1824 -0.00116138 4.14656)
(33.2172 -0.00228235 5.02174)
(32.0065 0.0185065 5.8734)
(30.6659 0.0388782 5.82323)
(29.1557 0.0547274 4.09641)
(27.318 0.0576488 0.990324)
(25.1323 0.0643695 -1.75238)
(22.6797 0.128247 -2.9074)
(19.956 0.28655 -3.11528)
(17.5921 0.697091 -3.63119)
(15.3695 1.28878 -2.76461)
(-9.79224 -0.0401045 0.730568)
(6.00037 -1.63705 -4.26216)
(6.98846 -1.98236 -3.04827)
(11.6699 -2.39401 2.74618)
(17.462 -2.42266 0.250257)
(19.9115 -0.834191 1.57869)
(21.7152 -0.83386 4.98374)
(23.789 -0.757427 5.22494)
(24.0045 -0.0613653 4.94211)
(22.9624 0.376906 5.79475)
(20.9052 0.571067 6.29791)
(19.0292 0.856969 6.83692)
(20.1099 1.10969 6.90803)
(22.9449 1.56278 4.99502)
(22.7638 2.39019 -0.24367)
(19.1556 3.13093 -5.85786)
(7.31511 2.68633 -10.5366)
(28.4474 -5.41162 1.83561)
(43.562 -10.8303 -4.91375)
(40.003 0.00170218 0.0520124)
(39.9951 0.00396599 0.135972)
(40.0126 0.00765484 0.241725)
(40.0101 0.00902542 0.350104)
(39.9734 0.00843459 0.45342)
(39.9042 0.0067057 0.558907)
(39.8096 0.00449047 0.667855)
(39.6959 0.00236555 0.781327)
(39.5686 0.000807555 0.900199)
(39.4315 0.000103093 1.0252)
(39.2852 0.0003176 1.1567)
(39.1282 0.00139139 1.29469)
(38.9573 0.00310396 1.43846)
(38.77 0.00560443 1.58675)
(38.5624 0.00795973 1.73843)
(38.3364 0.0112775 1.89706)
(38.0926 0.0124364 2.06701)
(37.8807 0.00946931 2.29855)
(37.726 0.0208398 2.45513)
(37.396 -0.00623665 2.38528)
(36.8354 0.00306916 2.41805)
(36.3112 -0.0116904 2.55693)
(35.7368 -0.00114343 2.88568)
(34.9465 0.0113424 3.49482)
(34.0587 -0.00188288 4.18176)
(33.0977 -0.00116581 5.07287)
(32.0371 0.0175084 5.819)
(30.8705 0.0343968 5.69884)
(29.4566 0.0496587 4.08429)
(27.6633 0.0533154 1.0966)
(25.5628 0.0606429 -1.68466)
(23.347 0.120152 -2.80617)
(21.2962 0.268782 -2.82061)
(19.9404 0.875188 -3.02258)
(20.5387 3.7587 -4.16997)
(21.3513 3.40622 -6.37166)
(21.7626 2.76646 -5.39867)
(20.0196 2.72055 -2.80097)
(21.032 2.47635 -0.407679)
(22.2856 1.41555 2.32135)
(20.5556 0.111287 3.24678)
(22.7283 -0.575276 3.06156)
(20.9484 -1.11699 4.68535)
(19.7476 -0.911129 7.36228)
(19.3552 -0.356569 8.07244)
(19.6484 0.949436 5.67078)
(22.7876 2.45916 2.41084)
(18.5862 -0.227878 2.87497)
(14.8436 1.15784 1.70346)
(16.8638 3.63984 0.164946)
(19.1004 8.68506 -8.4532)
(18.8965 11.5891 -16.0561)
(44.3183 -3.57974 18.3547)
(0.448389 0.837522 -1.06407)
(40.0006 0.0016586 0.0601565)
(39.9935 0.0039357 0.157622)
(40.0138 0.00760097 0.280934)
(40.0178 0.00896709 0.407746)
(39.9874 0.00843884 0.528894)
(39.9241 0.00682141 0.652991)
(39.8352 0.00475796 0.781516)
(39.7272 0.00281017 0.915646)
(39.6059 0.0014298 1.05628)
(39.4747 0.000873664 1.20401)
(39.3346 0.00117244 1.35892)
(39.1836 0.00221514 1.52066)
(39.0179 0.00378988 1.68821)
(38.8351 0.00600585 1.8611)
(38.6331 0.0083123 2.03714)
(38.4189 0.0120083 2.22099)
(38.1944 0.0139828 2.4091)
(37.9796 0.020447 2.61387)
(37.7772 0.0195553 2.80905)
(37.5118 0.0244854 2.88341)
(37.1425 0.0370855 2.9871)
(36.4933 -0.0205115 3.33233)
(36.1914 -0.0424993 3.5114)
(35.5573 0.00958277 4.12556)
(34.5885 -0.0113507 5.08491)
(33.5759 -0.0138309 6.1291)
(32.5068 0.0378738 7.16052)
(31.2534 0.0883165 7.35501)
(29.51 0.0871583 5.92753)
(26.966 0.0811373 3.26401)
(23.958 0.101217 0.955306)
(20.8866 0.178569 -0.0430909)
(17.4685 0.420527 0.0559043)
(15.0486 1.13852 0.977559)
(-7.5666 0.463556 2.75479)
(-8.6823 -0.0207714 0.759362)
(-8.53365 -0.38869 -1.49165)
(-7.72515 -0.843982 -15.2323)
(0.0770846 -0.485326 -8.8621)
(2.40472 -0.357825 -5.46841)
(11.8523 -1.71755 0.381057)
(2.48681 -1.49904 7.5019)
(4.12059 -3.66192 9.55669)
(5.87857 -3.85505 9.95109)
(8.1749 -2.06777 9.49932)
(13.5804 1.73425 6.54035)
(12.473 0.875408 8.31677)
(15.9238 0.706339 5.58501)
(23.8031 1.74875 3.16133)
(0.152075 4.55478 -4.58531)
(-15.492 4.09418 -9.78512)
(-28.7718 -0.409282 -8.70619)
(-23.106 -1.78019 -4.20925)
(12.1482 1.79977 -2.52399)
(40.0029 0.00165879 0.0600421)
(39.9961 0.00393635 0.157573)
(40.0143 0.00760168 0.280712)
(40.0131 0.00896858 0.407487)
(39.9793 0.0084399 0.528769)
(39.9143 0.00682113 0.653133)
(39.825 0.00475762 0.782012)
(39.7176 0.00281022 0.916537)
(39.5974 0.00143018 1.05754)
(39.4678 0.000874322 1.20556)
(39.3291 0.001173 1.36063)
(39.1792 0.00221775 1.52232)
(39.0145 0.00379676 1.68973)
(38.8322 0.00600516 1.86211)
(38.6315 0.00835214 2.03886)
(38.4162 0.0119547 2.22245)
(38.1953 0.0141361 2.41657)
(37.9782 0.0200922 2.62539)
(37.7761 0.0196997 2.82401)
(37.5255 0.0267147 2.96372)
(37.0983 0.0374257 3.10013)
(36.5573 0.00685381 3.3808)
(35.6952 -0.0585374 3.91405)
(35.4728 0.00378211 4.26147)
(34.4434 -0.00934047 5.05249)
(33.42 -0.0109446 6.093)
(32.4386 0.0417305 6.98923)
(31.4224 0.0788265 7.18051)
(29.8179 0.0789739 6.05792)
(27.4313 0.0743673 3.48959)
(24.5715 0.0985755 0.944753)
(21.807 0.173337 -0.158962)
(19.4349 0.456284 -0.165203)
(18.0915 1.97448 0.48418)
(19.4326 5.87621 1.24905)
(-7.95497 -0.0770428 0.806249)
(3.23762 4.01002 -3.38999)
(-2.0889 2.96948 -9.87702)
(-3.38079 2.54544 -10.1708)
(7.66983 2.80057 -6.75039)
(16.5242 1.33331 -1.2169)
(15.9302 0.489055 3.24018)
(14.1314 -1.32008 5.41498)
(10.898 -2.17405 6.54516)
(9.40627 -1.16722 6.69432)
(10.7485 1.65641 5.07494)
(15.6333 4.031 2.69982)
(17.2799 2.89909 2.65705)
(23.4338 5.05847 0.708984)
(15.0917 8.18275 -1.97261)
(10.8489 10.9274 1.58424)
(14.8333 6.17542 0.857889)
(34.1996 -2.58748 12.8459)
(31.3331 8.03085 4.98572)
(40.0009 0.00158882 0.06789)
(39.9946 0.00392654 0.178659)
(40.0164 0.0074545 0.31873)
(40.0226 0.00879045 0.463209)
(39.9958 0.0083204 0.601538)
(39.9377 0.00683178 0.743692)
(39.8554 0.00493259 0.89135)
(39.7551 0.00315587 1.04581)
(39.6422 0.00192048 1.20798)
(39.5199 0.00145055 1.37838)
(39.3885 0.00176659 1.55701)
(39.2456 0.00274315 1.74352)
(39.0878 0.00424975 1.9373)
(38.9123 0.00633695 2.13831)
(38.7192 0.0090852 2.34634)
(38.5132 0.0130471 2.56318)
(38.3015 0.0180458 2.78775)
(38.0886 0.0251769 3.02057)
(37.8665 0.029999 3.25088)
(37.6235 0.0387815 3.4845)
(37.3089 0.0450945 3.75727)
(36.9382 0.0444038 4.13869)
(36.3248 0.0125075 4.50016)
(36.03 0.00293003 5.02019)
(35.4379 -0.0409002 5.96653)
(34.5009 -0.0349826 7.09742)
(33.6128 0.0358619 8.09498)
(32.7048 0.132281 8.79422)
(31.1678 0.196012 8.40506)
(28.1213 0.159517 6.33122)
(24.6707 0.0974479 3.80852)
(21.4932 0.106934 2.59784)
(18.7268 0.243369 3.12425)
(17.1944 0.906451 6.22197)
(9.37575 1.76117 12.5737)
(-6.38182 -0.0195963 0.653204)
(-6.35008 -2.72587 -17.5305)
(-7.04837 -2.13565 -16.6433)
(-7.03085 -0.602913 -12.6538)
(-8.64119 0.0175366 -3.7696)
(-15.3699 0.505385 8.66538)
(-17.2083 -1.20489 13.2735)
(-16.6229 -2.96082 12.6002)
(-13.3683 -3.80393 11.4929)
(-9.97404 -3.69822 7.48972)
(-4.98076 -2.64986 2.59875)
(6.77069 1.49833 -6.6242)
(21.9396 -0.244168 0.538227)
(20.7753 -0.921817 3.94186)
(31.6302 1.8249 4.37425)
(33.0474 4.24758 5.30359)
(-5.78006 6.54568 -5.76689)
(-37.106 1.50873 -13.5682)
(-57.5022 5.03059 -14.3043)
(40.0031 0.00158889 0.067769)
(39.9972 0.00392716 0.178622)
(40.0166 0.00745551 0.318524)
(40.018 0.00879202 0.462978)
(39.988 0.00832233 0.601464)
(39.9284 0.00683384 0.743906)
(39.8456 0.00493549 0.891932)
(39.7459 0.003158 1.04678)
(39.6341 0.0019205 1.20932)
(39.5132 0.00145016 1.38)
(39.3831 0.00176682 1.55881)
(39.2413 0.00274444 1.74536)
(39.0843 0.00425159 1.93919)
(38.9099 0.00634072 2.14019)
(38.7186 0.00908637 2.3488)
(38.5146 0.0130674 2.56655)
(38.3055 0.0180264 2.79423)
(38.093 0.0252416 3.0302)
(37.8723 0.0300395 3.26744)
(37.6256 0.0392292 3.49988)
(37.2918 0.045347 3.78077)
(36.9294 0.0469804 4.16331)
(36.2696 0.0185358 4.72921)
(36.0757 0.0189601 5.02785)
(35.227 -0.0170377 5.87884)
(34.261 -0.035304 7.00171)
(33.2899 0.035644 7.98151)
(32.4128 0.128497 8.67094)
(31.1784 0.170565 8.31048)
(28.942 0.126274 6.48471)
(25.5882 0.0886718 3.97755)
(22.3125 0.11296 2.44981)
(20.0086 0.258413 2.53582)
(18.0567 1.93464 4.56831)
(21.4197 4.95929 10.453)
(15.0949 3.6835 7.99788)
(13.3366 1.79114 1.7324)
(1.74129 -0.286292 -6.47514)
(-2.89451 1.06032 -5.7285)
(-2.51422 1.98875 0.763389)
(-3.5821 1.8344 5.75471)
(-5.13069 1.48469 10.2077)
(-7.25946 0.924664 10.509)
(-7.2199 0.0790433 10.052)
(-3.84499 0.347296 8.41625)
(2.41141 1.82032 5.47941)
(10.5435 3.71324 2.86091)
(16.7687 4.46187 2.48984)
(25.2551 3.95881 5.55166)
(24.6619 5.01059 6.6041)
(29.2081 8.29269 5.16548)
(33.9678 11.7955 1.32109)
(45.1859 10.0136 -2.07515)
(43.6869 18.0801 -2.00748)
(40.0009 0.00154006 0.0751842)
(39.9964 0.00390912 0.198759)
(40.0196 0.00741581 0.354748)
(40.0286 0.00875731 0.516075)
(40.0064 0.00836906 0.670925)
(39.9547 0.00700802 0.830565)
(39.8802 0.00527143 0.996862)
(39.789 0.00367026 1.17122)
(39.686 0.00260014 1.35463)
(39.574 0.00226305 1.54765)
(39.4529 0.00267091 1.75042)
(39.3203 0.00370009 1.96281)
(39.1729 0.00526333 2.1848)
(39.0083 0.00740972 2.41672)
(38.827 0.0104048 2.6589)
(38.6335 0.0147866 2.91224)
(38.4337 0.0205259 3.17554)
(38.2309 0.0281246 3.44919)
(38.0191 0.035725 3.73001)
(37.7879 0.0451751 4.03395)
(37.5221 0.0550493 4.37123)
(37.2292 0.0625373 4.8064)
(36.9036 0.0878254 5.34293)
(36.2465 0.0148169 5.88891)
(36.2435 -0.112067 6.77425)
(35.5439 -0.0568069 7.87061)
(34.8234 0.0321506 8.87174)
(34.2995 0.0853548 9.61306)
(33.4329 0.34266 10.2296)
(31.3052 0.464465 9.75262)
(27.7588 0.218798 7.34112)
(22.9747 -0.0501202 5.17873)
(19.8946 0.0887394 5.01965)
(17.8417 0.915123 7.26361)
(17.2558 1.6362 15.2262)
(10.1771 -0.246943 9.65004)
(7.95672 -3.6597 -5.20421)
(0.945963 -2.40988 -9.48415)
(-1.18875 -1.49959 -11.1405)
(-0.990875 -0.153635 -8.32864)
(-3.24786 0.889629 -0.607394)
(-11.1376 -0.621065 7.7846)
(-9.22843 -0.333702 6.9707)
(-8.76873 0.632282 8.56987)
(-9.39194 0.8187 8.15636)
(-9.60512 -1.53909 7.33436)
(-10.3619 -4.35494 9.90221)
(-8.22335 -5.43918 12.5297)
(-1.0488 -5.34481 13.9285)
(10.27 -4.40392 12.6479)
(19.7749 -3.80634 12.75)
(25.0708 -3.4686 13.6783)
(43.823 -2.30066 13.9981)
(38.7249 1.96921 12.3489)
(40.003 0.00154021 0.0750681)
(39.9989 0.00390968 0.198766)
(40.0199 0.0074167 0.354606)
(40.0242 0.00875887 0.515925)
(39.999 0.00837111 0.670954)
(39.9458 0.00701039 0.830908)
(39.871 0.00527491 0.9976)
(39.7803 0.00367322 1.17238)
(39.6785 0.00260123 1.35619)
(39.5678 0.00226346 1.54955)
(39.4479 0.00267336 1.75259)
(39.3163 0.00370113 1.96523)
(39.1699 0.00526114 2.18751)
(39.0065 0.00741149 2.41976)
(38.8273 0.0104038 2.66261)
(38.6364 0.0147922 2.91657)
(38.4396 0.0205347 3.18149)
(38.2385 0.0281574 3.45567)
(38.0284 0.0358104 3.74092)
(37.7991 0.0451479 4.04162)
(37.5262 0.0555074 4.38057)
(37.2273 0.0607519 4.81012)
(36.8369 0.0736811 5.36266)
(36.472 0.0601896 5.9039)
(35.7349 0.0147251 6.7356)
(35.2682 -0.0680706 7.81102)
(34.5321 -0.121544 8.78001)
(33.4995 0.109376 9.76665)
(32.7021 0.371669 10.1902)
(31.5468 0.364328 9.57015)
(28.7927 0.205288 7.9286)
(24.6187 0.0568051 5.73047)
(20.4397 0.0223321 4.29224)
(17.2297 1.06255 6.05699)
(19.9601 3.17735 12.536)
(21.2396 3.01775 12.4166)
(18.2097 2.10214 7.7305)
(11.187 0.823868 1.48948)
(4.34566 -0.896466 -5.2504)
(-9.39018 -0.39295 -2.86554)
(-11.4574 0.0825415 7.43983)
(-12.1548 0.512591 11.9388)
(-13.9195 1.2155 11.0412)
(-12.4508 2.24566 5.74429)
(-6.34074 3.28813 -1.79716)
(2.4167 4.69554 -5.32959)
(9.48356 4.46028 -3.26421)
(16.5247 4.60127 -0.999479)
(24.6369 4.65004 1.06287)
(28.0009 4.42901 2.04323)
(32.9981 4.4564 2.78312)
(37.4473 4.45577 4.39107)
(55.4829 4.1949 7.9152)
(53.1336 7.07577 3.70041)
(40.0013 0.00147477 0.0820078)
(39.9981 0.00394361 0.217741)
(40.0238 0.00733457 0.388624)
(40.0367 0.00866441 0.565804)
(40.0202 0.00835696 0.736317)
(39.9762 0.00715222 0.912635)
(39.911 0.00560739 1.09682)
(39.8305 0.00420302 1.29043)
(39.7392 0.00330805 1.49462)
(39.6393 0.00311856 1.71013)
(39.5307 0.0036445 1.93738)
(39.4108 0.00480804 2.17657)
(39.2766 0.00653453 2.42803)
(39.1259 0.0089034 2.69218)
(38.9594 0.0123106 2.96939)
(38.78 0.0168566 3.25943)
(38.5939 0.0235153 3.56053)
(38.4045 0.0309986 3.87145)
(38.214 0.0402996 4.19123)
(38.0158 0.0481984 4.53501)
(37.8114 0.0552096 4.89271)
(37.6071 0.0646481 5.35691)
(37.4217 0.0471016 6.01426)
(37.0987 0.0621691 6.60038)
(36.7152 -0.0145181 7.40807)
(36.5285 -0.0613652 8.57375)
(35.9453 -0.00687178 9.36723)
(35.0257 0.106303 10.4797)
(34.0693 0.249139 11.4379)
(32.843 0.320347 12.1561)
(30.9165 0.28138 12.0202)
(26.9701 0.131124 10.8661)
(22.6354 0.0973214 8.21905)
(18.2867 0.2779 7.3803)
(18.0551 0.944003 12.1325)
(16.5313 0.148746 10.102)
(13.8388 -1.94337 2.73517)
(10.3098 -2.39819 -4.56056)
(7.81102 -1.98145 -6.18645)
(5.99362 -1.96848 -2.93864)
(5.96479 -1.73819 -0.0834671)
(10.1526 -0.495209 -0.908792)
(14.769 0.342894 -2.26732)
(15.4023 0.983213 -1.55142)
(14.4206 1.40629 -1.57722)
(12.3566 0.753996 -1.69101)
(10.6259 -0.725247 -1.44565)
(10.8916 -1.89193 -0.401273)
(13.9508 -2.74814 0.6246)
(19.4211 -3.53619 0.554764)
(26.0456 -4.01753 -0.0356596)
(29.9683 -3.54738 -2.41431)
(40.0463 -3.14781 -2.84912)