/*--------------------------------*- C++ -*----------------------------------*\
| =========                 |                                                 |
| \\      /  F ield         | OpenFOAM: The Open Source CFD Toolbox           |
|  \\    /   O peration     | Version:  4.1                                   |
|   \\  /    A nd           | Web:      www.OpenFOAM.org                      |
|    \\/     M anipulation  |                                                 |
\*---------------------------------------------------------------------------*/
FoamFile
{
    version     2.0;
    format      ascii;
    class       volScalarField;
    location    "49";
    object      omega;
}
// * * * * * * * * * * * * * * * * * * * * * * * * * * * * * * * * * * * * * //

dimensions      [0 0 -1 0 0 0 0];

internalField   nonuniform List<scalar> 
4432
(
0.0110923
0.011449
0.011812
0.0121549
0.0125096
0.0128409
0.0131836
0.0135032
0.0138327
0.0141412
0.0144586
0.0147544
0.0150618
0.0153412
0.0156413
0.0159006
0.0161952
0.0164338
0.0167193
0.0169409
0.0172104
0.0174314
0.0176903
0.0179124
0.0181519
0.0183553
0.0185786
0.0187556
0.0189613
0.0191265
0.0193217
0.0194879
0.0196824
0.0198442
0.0200536
0.02021
0.0204308
0.0205746
0.0208031
0.0209505
0.0212041
0.0213893
0.0217883
0.0220697
0.0225505
0.0229478
0.0233935
0.0238016
0.0242198
0.0244752
0.0245247
0.0247384
0.0248156
0.024797
0.0110785
0.0114622
0.0117978
0.0121664
0.0124987
0.012849
0.0131794
0.0135081
0.013836
0.014144
0.0144677
0.0147562
0.0150752
0.0153416
0.0156585
0.015899
0.0162161
0.0164307
0.0167468
0.0169364
0.0172423
0.0174233
0.0177216
0.017904
0.0181826
0.0183616
0.0186192
0.0187848
0.0190196
0.0191762
0.0194041
0.0195631
0.0197873
0.0199386
0.0201678
0.02031
0.0205383
0.0206673
0.0209004
0.0210359
0.0213012
0.0214677
0.0218042
0.0220126
0.0224361
0.0228149
0.0232137
0.023726
0.0238928
0.0238844
0.0239702
0.0239312
0.0239042
0.0237601
21.7954
3.37981
1.22809
0.663078
0.436349
0.32045
0.251643
0.206563
0.174924
0.151569
0.133664
0.119512
0.108071
0.0986148
0.0907068
0.0839575
0.0781861
0.0731323
0.0687447
0.0648191
0.0613791
0.0582474
0.055483
0.0529271
0.0506506
0.0485185
0.0465949
0.0447866
0.0431205
0.0415773
0.0401221
0.0388042
0.0375292
0.0363963
0.0352807
0.0342985
0.0333261
0.0324836
0.031641
0.0309288
0.0301746
0.029582
0.0289079
0.0284401
0.0278626
0.0274801
0.0269945
0.0266707
0.0262612
0.0260539
0.0256861
0.0254256
0.0251543
0.0248738
21.7954
3.3798
1.22805
0.66305
0.436335
0.320442
0.251639
0.20656
0.174922
0.151568
0.133663
0.119514
0.108069
0.0986211
0.090704
0.0839676
0.0781822
0.0731457
0.0687413
0.0648353
0.061378
0.0582625
0.0554836
0.0529375
0.0506539
0.0485258
0.0466071
0.0447957
0.0431551
0.0415986
0.0401839
0.0388445
0.0376136
0.0364564
0.0353775
0.0343803
0.0334253
0.0325821
0.031729
0.0310288
0.0302585
0.0296868
0.0290037
0.0285499
0.0279481
0.0275884
0.0270661
0.0267986
0.0263627
0.0261318
0.0257373
0.0255417
0.0253387
0.0251179
21.795
3.37996
1.22833
0.663309
0.43655
0.320627
0.251822
0.206744
0.175115
0.151763
0.133867
0.119716
0.108278
0.0988275
0.0909126
0.0841771
0.0783864
0.073355
0.0689368
0.0650392
0.0615611
0.0584632
0.0556637
0.0531463
0.0508404
0.0487475
0.0468053
0.0450315
0.0433682
0.0418458
0.0404062
0.0390923
0.0378388
0.036699
0.0356022
0.0346104
0.0336516
0.0327959
0.0319687
0.031233
0.0305211
0.0299004
0.0292876
0.0287818
0.028228
0.0278453
0.0273368
0.0270134
0.0265364
0.0262899
0.0258062
0.025613
0.0253318
0.024954
21.795
3.37996
1.22829
0.663282
0.436535
0.32062
0.251816
0.206743
0.175111
0.151764
0.133865
0.119717
0.108278
0.098829
0.0909168
0.0841775
0.0783942
0.0733538
0.0689463
0.0650374
0.0615759
0.0584625
0.055685
0.0531431
0.0508662
0.0487416
0.0468355
0.0450329
0.0434058
0.0418669
0.0404532
0.0391365
0.0378904
0.0367639
0.0356586
0.0346949
0.0337196
0.0328975
0.0320456
0.0313473
0.030612
0.0300326
0.0293912
0.0289166
0.0283402
0.0279569
0.0274176
0.0270847
0.0265858
0.0263167
0.0257723
0.0255113
0.0253076
0.0248725
21.7952
3.37989
1.22827
0.663259
0.436503
0.320582
0.251781
0.206703
0.175076
0.151723
0.133826
0.119677
0.108234
0.0987901
0.0908663
0.0841389
0.0783372
0.0733129
0.0688821
0.0649961
0.0615122
0.0584327
0.0556308
0.0531354
0.0508232
0.0487526
0.0468014
0.0450484
0.0433802
0.0418674
0.0404295
0.0391045
0.0378611
0.0367022
0.0356253
0.0346192
0.0336822
0.0328206
0.0320074
0.0312802
0.030586
0.0299744
0.0293706
0.0288563
0.0282942
0.0278642
0.0273093
0.0268816
0.0263275
0.0258283
0.0252971
0.0246919
0.0245833
0.0243299
21.7951
3.37989
1.22824
0.663233
0.436488
0.320575
0.251774
0.206702
0.17507
0.151724
0.133823
0.119678
0.108236
0.0987896
0.0908733
0.0841372
0.0783479
0.073311
0.0688964
0.0650003
0.0615284
0.0584427
0.0556437
0.0531446
0.050832
0.0487609
0.0468104
0.0450599
0.0433923
0.0418894
0.0404483
0.0391482
0.0378903
0.0367702
0.0356609
0.0347067
0.0337219
0.0329192
0.0320492
0.0313881
0.0306273
0.030082
0.0294115
0.0289427
0.0283299
0.0278972
0.0273107
0.0268692
0.0262971
0.0258233
0.0252577
0.0247774
0.0247581
0.0244957
21.7952
3.37986
1.22825
0.663236
0.436479
0.320559
0.251752
0.206679
0.175044
0.151697
0.133792
0.119648
0.1082
0.0987531
0.0908321
0.0840914
0.0783019
0.0732555
0.0688509
0.0649372
0.061483
0.0583718
0.0556006
0.0530738
0.0508007
0.0486978
0.0467928
0.0450049
0.0433827
0.0418395
0.0404394
0.0390966
0.0378759
0.0367106
0.0356397
0.0346399
0.0336954
0.0328489
0.0320134
0.0313141
0.0305687
0.0299915
0.0293207
0.0288048
0.0281743
0.0276725
0.0270584
0.0265668
0.0259684
0.0254808
0.0250404
0.0245397
0.0241694
0.0242031
21.7952
3.37986
1.22822
0.663212
0.436467
0.320549
0.251751
0.20667
0.175049
0.151687
0.133802
0.119635
0.108213
0.0987419
0.0908466
0.0840839
0.0783158
0.0732538
0.0688646
0.0649422
0.0614996
0.0583811
0.0556182
0.0530835
0.0508163
0.0487088
0.0468074
0.0450205
0.0433996
0.0418622
0.0404651
0.0391288
0.037915
0.0367473
0.0356875
0.0346729
0.0337424
0.0328758
0.0320524
0.0313216
0.0305811
0.0299666
0.0292752
0.0287345
0.0280577
0.0275694
0.0269181
0.0264529
0.025844
0.0253969
0.0248613
0.0244792
0.0241282
0.024248
21.7953
3.37986
1.22826
0.66323
0.436462
0.32054
0.251724
0.206655
0.175009
0.151671
0.133752
0.119616
0.108154
0.0987126
0.0907796
0.0840412
0.0782437
0.0732008
0.0687925
0.0648836
0.0614251
0.0583142
0.0555368
0.0530187
0.0507463
0.0486644
0.0467611
0.0449921
0.0433683
0.0418378
0.0404429
0.0390989
0.0378926
0.0367027
0.0356613
0.0346157
0.0337234
0.0328119
0.0320486
0.0312595
0.0306032
0.0299138
0.0293277
0.0286908
0.0281384
0.027529
0.027011
0.0264458
0.0259605
0.0254388
0.0251041
0.0245755
0.0245325
0.0240474
21.7952
3.37987
1.22823
0.663208
0.436451
0.320529
0.251726
0.206644
0.175017
0.151658
0.133762
0.119605
0.108163
0.0987076
0.0907862
0.084045
0.0782481
0.0732124
0.0687973
0.0648981
0.0614363
0.0583316
0.0555607
0.0530345
0.0507738
0.0486741
0.046784
0.0450051
0.0433897
0.0418633
0.0404642
0.0391366
0.0379194
0.0367504
0.0356994
0.0346651
0.0337652
0.0328487
0.0320794
0.0312656
0.0305994
0.0298683
0.0292616
0.0285936
0.0280257
0.0273999
0.0268906
0.0262804
0.0258412
0.025223
0.0249396
0.0244595
0.0242023
0.0238419
21.7953
3.37986
1.22826
0.663221
0.436446
0.320515
0.251702
0.20662
0.174983
0.151628
0.133719
0.119567
0.108111
0.0986607
0.0907232
0.0839888
0.0781709
0.0731512
0.0687058
0.0648403
0.0613301
0.058276
0.055442
0.0529865
0.0506648
0.0486451
0.0467002
0.0449863
0.043326
0.0418404
0.0404105
0.039103
0.0378668
0.0367053
0.0356417
0.0346142
0.0337018
0.0328095
0.0320173
0.0312496
0.0305452
0.029878
0.0292382
0.028616
0.0280459
0.0274327
0.0269456
0.0263542
0.0259339
0.0253218
0.0249677
0.0243649
0.0239915
0.0235345
21.7952
3.37987
1.22823
0.663201
0.436434
0.32051
0.251694
0.206622
0.174973
0.151634
0.133708
0.119576
0.108101
0.0986707
0.0907183
0.0839984
0.0781754
0.0731575
0.0687206
0.0648405
0.0613563
0.0582745
0.0554815
0.0529858
0.0507116
0.0486407
0.0467484
0.0449846
0.0433751
0.0418494
0.0404559
0.0391283
0.0379092
0.0367468
0.0356857
0.0346596
0.0337522
0.0328346
0.0320704
0.0312389
0.0305902
0.0298246
0.0292472
0.0285422
0.0279986
0.0273512
0.0268389
0.026227
0.0257463
0.0251453
0.0247665
0.0240961
0.0239098
0.0232575
21.7953
3.37988
1.22828
0.663225
0.436435
0.320493
0.251676
0.206588
0.17495
0.151585
0.133681
0.119512
0.10807
0.0985912
0.0906788
0.0839014
0.0781239
0.0730451
0.068657
0.0647221
0.061283
0.0581553
0.0553967
0.0528779
0.0506328
0.0485709
0.0466878
0.0449503
0.0433283
0.0418253
0.0404174
0.0390948
0.0378774
0.0367031
0.0356499
0.0346194
0.0336964
0.0328175
0.0319871
0.0312583
0.0304869
0.0298709
0.0291616
0.0286005
0.0279424
0.0274138
0.0267904
0.0262996
0.0256951
0.0252246
0.0246986
0.024219
0.0237959
0.0233608
21.7953
3.37988
1.22825
0.663208
0.436423
0.320489
0.251668
0.206591
0.174939
0.151595
0.133666
0.11953
0.108049
0.0986166
0.0906562
0.0839345
0.0781031
0.0730838
0.0686404
0.0647608
0.0612733
0.0581987
0.0554019
0.0529273
0.0506466
0.0486099
0.0467052
0.0449814
0.0433511
0.0418628
0.0404422
0.0391476
0.0378995
0.0367689
0.0356751
0.0346811
0.0337347
0.0328508
0.0320368
0.0312372
0.0305339
0.0297937
0.0291699
0.0284823
0.027891
0.0272531
0.0266763
0.0260927
0.0255256
0.0249716
0.0244648
0.0239135
0.0235533
0.0230599
21.7954
3.37988
1.22829
0.663223
0.43642
0.320471
0.251649
0.206557
0.174915
0.151546
0.133637
0.119464
0.108015
0.0985332
0.0906112
0.0838348
0.078041
0.0729713
0.0685605
0.0646463
0.0611824
0.0580812
0.0552992
0.0528087
0.0505558
0.0485192
0.0466429
0.0449331
0.0433118
0.041834
0.0404184
0.0391134
0.0378903
0.0367219
0.0356676
0.0346249
0.0337085
0.0328019
0.0319873
0.0312162
0.0304753
0.0297936
0.0291246
0.0284708
0.0278798
0.0272375
0.0266999
0.0261589
0.0256044
0.02526
0.0247907
0.0246445
0.0243718
0.0243939
21.7953
3.37989
1.22827
0.663207
0.436409
0.320467
0.251641
0.206559
0.174906
0.151553
0.133625
0.119476
0.108001
0.098551
0.0905976
0.0838576
0.0780318
0.0729976
0.0685564
0.0646702
0.0611814
0.0581079
0.0553115
0.0528475
0.0505747
0.0485657
0.0466705
0.0449765
0.043353
0.0418786
0.040465
0.0391691
0.0379278
0.036788
0.0356981
0.0346888
0.0337413
0.0328409
0.03202
0.0312095
0.0304993
0.0297547
0.0291273
0.0284274
0.0278311
0.0271805
0.0266246
0.0260187
0.025498
0.0249549
0.0244947
0.0241138
0.0238652
0.0235497
21.7954
3.37991
1.22832
0.663236
0.436413
0.320452
0.251622
0.206527
0.174877
0.151508
0.133589
0.119417
0.107955
0.0984747
0.0905396
0.0837613
0.0779576
0.0728806
0.0684649
0.0645381
0.0610763
0.0579648
0.0551966
0.052703
0.0504888
0.048473
0.0466532
0.0449398
0.0433798
0.0418806
0.0405062
0.0391873
0.0379647
0.0368061
0.0357211
0.0347042
0.033739
0.0328592
0.0319879
0.0312367
0.0304349
0.0297733
0.029051
0.0284515
0.0278551
0.0273237
0.0270214
0.0264177
0.0264257
0.0266634
0.0269912
0.0276088
0.0283465
0.029552
21.7954
3.37992
1.22831
0.663224
0.436405
0.320447
0.251619
0.206524
0.174877
0.151505
0.133592
0.119412
0.107962
0.0984696
0.0905518
0.0837568
0.0779761
0.0728766
0.0684886
0.064531
0.0611023
0.0579594
0.0552405
0.0527175
0.0505548
0.0485027
0.0467177
0.0449776
0.0434345
0.04192
0.0405543
0.0392257
0.0380101
0.0368436
0.0357642
0.034735
0.033784
0.0328762
0.0320403
0.0312286
0.0304871
0.029733
0.0290789
0.0283794
0.0278106
0.0271796
0.0266719
0.0261459
0.0258297
0.0253766
0.0253532
0.0256876
0.0260291
0.0264385
21.7955
3.37992
1.22834
0.663239
0.436402
0.320433
0.251598
0.206498
0.174843
0.151472
0.133541
0.119376
0.107888
0.0984296
0.090448
0.0837099
0.0778387
0.0728155
0.06832
0.0644517
0.0609248
0.0578651
0.0550687
0.0526373
0.0504675
0.0485134
0.0467537
0.0450844
0.0435787
0.0420885
0.0407524
0.0394133
0.0382149
0.03703
0.0359541
0.034915
0.0339687
0.0330499
0.0322597
0.0314358
0.0308127
0.0301049
0.0298238
0.0290724
0.029211
0.0293487
0.0297625
0.0304499
0.0320559
0.0338573
0.03584
0.036769
0.037108
0.0365785
21.7954
3.37993
1.22833
0.663227
0.436396
0.320427
0.251597
0.206492
0.174845
0.151466
0.133547
0.119368
0.107899
0.0984211
0.0904633
0.0837028
0.0778586
0.0728116
0.0683413
0.0644493
0.0609375
0.0578706
0.0550916
0.0526625
0.0505115
0.0485393
0.0468145
0.0451031
0.043628
0.0420886
0.0407876
0.0393988
0.0382401
0.0370022
0.0359665
0.0348799
0.0339432
0.0330044
0.0321507
0.0313478
0.0306024
0.0298956
0.0293032
0.0287225
0.0284359
0.0278376
0.027829
0.0280314
0.0283108
0.0291334
0.0299719
0.0317224
0.0332272
0.0338591
21.7956
3.37996
1.22839
0.663263
0.4364
0.32042
0.251572
0.206476
0.174804
0.151445
0.133488
0.119345
0.107814
0.0983971
0.090345
0.0836765
0.0776951
0.0727764
0.068129
0.0643974
0.0606977
0.0578026
0.0548723
0.0526528
0.0505821
0.048915
0.0474526
0.0459975
0.0446377
0.043209
0.0419367
0.0405721
0.0393997
0.0382059
0.0371389
0.0362359
0.0353524
0.0346661
0.0343776
0.0333613
0.0337183
0.0339409
0.0349675
0.0368642
0.03908
0.0406687
0.0428635
0.0436784
0.0439291
0.0434655
0.0429623
0.0411138
0.0402731
0.0373164
21.7955
3.37997
1.22838
0.663255
0.436395
0.320417
0.25157
0.206474
0.174804
0.151444
0.13349
0.119343
0.107821
0.098393
0.0903579
0.0836702
0.077715
0.0727694
0.0681498
0.0643918
0.0607074
0.0578001
0.0548891
0.0526759
0.0505875
0.0489327
0.0473477
0.0458442
0.0443658
0.042926
0.0415589
0.0401969
0.0389861
0.0377344
0.0366877
0.0355997
0.0346738
0.0338767
0.0331278
0.0326873
0.0323861
0.0316766
0.032019
0.0323318
0.0329399
0.0342882
0.0359842
0.0372182
0.0389227
0.0399397
0.039983
0.039548
0.0392266
0.0373583
21.7956
3.37997
1.22842
0.663275
0.436398
0.320406
0.251557
0.206449
0.174784
0.151408
0.133461
0.119297
0.107777
0.0983371
0.0902879
0.0836049
0.077604
0.072694
0.0679755
0.064312
0.060452
0.0578154
0.0546317
0.0532013
0.0518061
0.0526048
0.0560206
0.0546038
0.0542637
0.05312
0.0520083
0.0505109
0.049868
0.0470616
0.0469101
0.0476145
0.0489939
0.0504437
0.0525823
0.0540017
0.0567186
0.0570429
0.057188
0.0573092
0.0567828
0.0553346
0.0533944
0.0503545
0.0476946
0.0443239
0.0417576
0.0384283
0.037253
0.033743
21.7956
3.37999
1.22841
0.663268
0.436392
0.320406
0.25155
0.206454
0.174774
0.15142
0.133446
0.119317
0.107756
0.0983676
0.0902602
0.08365
0.0775662
0.0727603
0.0679203
0.0644108
0.060357
0.0579313
0.0545125
0.0534216
0.0514149
0.0522006
0.0517494
0.051266
0.0499914
0.0482489
0.0467105
0.0452101
0.0437096
0.0424734
0.0422173
0.0402536
0.0408909
0.0420524
0.0435296
0.0451129
0.0466511
0.0483459
0.0495047
0.0511956
0.0510383
0.0510163
0.0503094
0.0487605
0.0475742
0.0449916
0.0434241
0.0405048
0.0391974
0.036036
21.7957
3.38002
1.22849
0.66331
0.436414
0.320387
0.251565
0.206397
0.174812
0.151313
0.133526
0.119139
0.107898
0.0980923
0.0904843
0.083246
0.0778863
0.0721965
0.0683293
0.0636573
0.060842
0.0570092
0.055432
0.0552214
0.0660011
0.134686
0.142374
0.139717
0.13567
0.131823
0.128774
0.1254
0.122059
0.118355
0.114363
0.109958
0.105047
0.0994254
0.0934373
0.0868671
0.0802923
0.0732417
0.0665678
0.0602849
0.0551306
0.049598
0.0461102
0.0428005
0.0406892
0.0381105
0.0367348
0.0344459
0.033446
0.0296603
21.7957
3.38004
1.22848
0.663305
0.43641
0.320387
0.251561
0.206401
0.174805
0.151325
0.133513
0.119162
0.107874
0.0981302
0.0904467
0.0833023
0.0778342
0.0722688
0.0682716
0.0637232
0.0607942
0.0570609
0.0553709
0.054783
0.060706
0.106971
0.106387
0.110775
0.110035
0.109372
0.108256
0.108232
0.107517
0.105986
0.103931
0.101485
0.0985842
0.0952967
0.0914644
0.0871185
0.0822071
0.0768573
0.0713069
0.0654332
0.0602853
0.0552054
0.0512999
0.0466962
0.0438168
0.040245
0.0382578
0.0353442
0.0333996
0.0300437
21.7958
3.38005
1.22853
0.663332
0.43642
0.320384
0.251558
0.206386
0.174797
0.151299
0.133503
0.119124
0.107866
0.0980709
0.0904437
0.0832114
0.0778373
0.0721358
0.0682829
0.0634766
0.0609628
0.0565045
0.0561875
0.068652
0.249408
0.32289
0.126169
0.117121
0.0984036
0.0913988
0.0814556
0.0747312
0.0694211
0.0663111
0.0631477
0.060398
0.0583495
0.0568865
0.0555806
0.0545841
0.053512
0.0524251
0.0514044
0.0494966
0.0481583
0.0457891
0.0441993
0.0412584
0.0385477
0.0349267
0.0322856
0.0289031
0.0268748
0.0243771
21.7958
3.38006
1.22852
0.663328
0.436418
0.32038
0.251559
0.206381
0.174803
0.151293
0.133512
0.119117
0.107878
0.0980638
0.0904606
0.0831995
0.077875
0.0720824
0.0684113
0.0632792
0.0612934
0.0559188
0.0567176
0.0676222
0.216973
0.321219
0.176682
0.129966
0.10008
0.0879749
0.0810019
0.0761609
0.0724927
0.0689847
0.0654774
0.062108
0.0591643
0.0567557
0.0547605
0.0533294
0.0519926
0.0506444
0.0493636
0.0476576
0.0461437
0.0436623
0.041809
0.0389412
0.0370704
0.0338986
0.0316077
0.0284064
0.0266359
0.0244012
21.7959
3.3801
1.22861
0.663381
0.43644
0.320387
0.251557
0.206378
0.174793
0.151286
0.133497
0.119104
0.10786
0.0980421
0.0904451
0.083161
0.0778686
0.0720247
0.0684029
0.0632398
0.0612237
0.0559815
0.0586373
0.0951273
0.170019
0.17206
0.137788
0.125857
0.120148
0.117879
0.114388
0.110501
0.105968
0.10046
0.0944942
0.0883568
0.082214
0.0759982
0.0700308
0.0639821
0.0584386
0.0529598
0.0477646
0.0426849
0.0380946
0.0339228
0.0302605
0.0278408
0.025913
0.0247792
0.023682
0.0231899
0.0223634
21.7959
3.38012
1.22861
0.663379
0.43644
0.320384
0.251561
0.206372
0.174802
0.151277
0.133512
0.119096
0.107872
0.0980471
0.0904369
0.0832005
0.0778222
0.0721112
0.0682945
0.0634902
0.0606074
0.056728
0.0564366
0.119855
0.158423
0.191643
0.156845
0.133031
0.119598
0.112295
0.107667
0.103725
0.0993199
0.0945511
0.0895955
0.084506
0.0793186
0.073993
0.0687059
0.0633592
0.0580775
0.0531355
0.048289
0.0436646
0.0392059
0.0354046
0.0318072
0.0291181
0.0267774
0.0255212
0.0241354
0.0235587
0.0227294
21.796
3.38013
1.22865
0.663414
0.43645
0.320403
0.251545
0.206401
0.174764
0.151325
0.133447
0.119167
0.107783
0.098137
0.0903321
0.0833047
0.0777043
0.0722544
0.0681407
0.0636786
0.0606706
0.0569666
0.0553077
0.0575876
0.103444
0.121621
0.12007
0.113908
0.105573
0.0962468
0.0869379
0.0782978
0.0698156
0.0620581
0.0555077
0.0500574
0.0454659
0.0416523
0.0384515
0.0357981
0.0335574
0.0317391
0.0301623
0.028878
0.0277541
0.0267608
0.025937
0.0251089
0.0245306
0.0238593
0.0234962
0.0228776
0.022681
0.0219368
21.7959
3.38015
1.22865
0.663413
0.436449
0.320402
0.251545
0.206399
0.174768
0.151321
0.133458
0.119157
0.107803
0.0981224
0.0903582
0.0832916
0.0777276
0.0722537
0.0681517
0.0636939
0.0606579
0.0570117
0.0552163
0.0569032
0.085314
0.09354
0.0899537
0.089006
0.0853754
0.0805894
0.075201
0.0693714
0.0631567
0.0574384
0.0524006
0.0479518
0.0441703
0.0408485
0.0380588
0.0356564
0.0336006
0.0319152
0.0303929
0.029223
0.0281071
0.0272039
0.0263789
0.0255821
0.0249792
0.0242236
0.0238293
0.023107
0.0228088
0.0222069
21.7961
3.38019
1.22874
0.663472
0.436475
0.320422
0.251544
0.206421
0.174749
0.151362
0.133413
0.119231
0.107717
0.0982499
0.0902144
0.0834997
0.0775065
0.0725826
0.0678278
0.064214
0.060207
0.0577316
0.0543022
0.0530359
0.0510389
0.0515397
0.0505031
0.0484087
0.0463543
0.0443908
0.0425573
0.0408573
0.0392859
0.0378532
0.0364967
0.0352775
0.0340953
0.0330366
0.0319993
0.031053
0.0301097
0.0292527
0.0283849
0.0276011
0.0268089
0.0260594
0.0253978
0.0247077
0.0242065
0.0236158
0.023287
0.0227203
0.0224304
0.0218826
21.796
3.38021
1.22875
0.663474
0.436476
0.320422
0.251545
0.206424
0.174749
0.151369
0.13341
0.119245
0.10771
0.0982719
0.0902042
0.0835252
0.0775014
0.0726009
0.0678412
0.0642095
0.0602567
0.057675
0.0543988
0.0529754
0.0512086
0.0499964
0.0492818
0.0476236
0.0457619
0.0440424
0.0422807
0.0407252
0.0392082
0.0378334
0.0365505
0.0353284
0.0342292
0.0331497
0.0321753
0.0312181
0.0303077
0.0294717
0.0286109
0.0278875
0.027098
0.0264247
0.0257188
0.0250898
0.0244855
0.0238923
0.023489
0.0228547
0.0225189
0.0220467
21.7961
3.38022
1.22879
0.66351
0.436498
0.320437
0.251557
0.206435
0.174762
0.151375
0.133433
0.119242
0.107752
0.0982531
0.0902765
0.0834886
0.0776181
0.0725479
0.0680245
0.0641383
0.0605324
0.0575339
0.0546603
0.0523907
0.0502748
0.0485729
0.0468841
0.045251
0.0436878
0.0421674
0.0407435
0.0393556
0.0380682
0.0368261
0.0356505
0.0345359
0.0334663
0.0324647
0.0315043
0.0306072
0.0297348
0.0289137
0.0281202
0.0273622
0.0266254
0.0259228
0.0253056
0.0246486
0.0241646
0.0235978
0.0232875
0.0227045
0.0224232
0.0218789
21.7961
3.38025
1.2288
0.663512
0.436498
0.320439
0.251555
0.20644
0.174758
0.151386
0.133424
0.119261
0.107738
0.0982811
0.0902576
0.0835243
0.0775974
0.0725864
0.0680089
0.0641722
0.0605294
0.0575562
0.0546716
0.0524077
0.0502831
0.0485626
0.0468217
0.0452487
0.0436265
0.0421919
0.0407049
0.0393936
0.0380673
0.0368556
0.0356915
0.0345692
0.0335444
0.0325274
0.0316104
0.0307065
0.0298635
0.0290745
0.0282885
0.0275937
0.0268751
0.0262106
0.0255725
0.0249543
0.0243734
0.0238454
0.0234337
0.0228388
0.0226021
0.022075
21.7962
3.38029
1.22888
0.663573
0.436531
0.320461
0.251569
0.206456
0.17477
0.151403
0.133442
0.119276
0.107766
0.0982926
0.0903051
0.0835311
0.0776743
0.0725922
0.0681248
0.0641845
0.0606838
0.0575805
0.0548003
0.0523527
0.0501615
0.0481985
0.0464139
0.0447278
0.043177
0.0416611
0.0402851
0.0389263
0.0376918
0.0364783
0.0353609
0.0342727
0.0332636
0.0322814
0.0313794
0.0304877
0.0296633
0.0288478
0.028088
0.0273256
0.0266197
0.0259269
0.0253156
0.0246949
0.0241941
0.0236859
0.0232961
0.022834
0.0226897
0.0223075
21.7962
3.38031
1.22889
0.663576
0.436535
0.320459
0.251577
0.20645
0.174785
0.151393
0.133461
0.119266
0.107787
0.0982867
0.0903248
0.0835329
0.0776895
0.0726043
0.0681353
0.0642066
0.0606919
0.0576079
0.0548031
0.0523848
0.0501627
0.0482402
0.0464207
0.0447829
0.0431763
0.0417266
0.0402905
0.038993
0.0377182
0.0365335
0.035416
0.0343239
0.0333417
0.0323501
0.0314679
0.0305855
0.0297704
0.0289953
0.0282274
0.0275379
0.026828
0.0261623
0.0255529
0.0249052
0.0244093
0.0238526
0.0234978
0.0230627
0.0228218
0.0223933
21.7963
3.38031
1.22894
0.663613
0.436559
0.320481
0.251589
0.206474
0.174795
0.151423
0.13347
0.119302
0.107799
0.0983289
0.0903444
0.0835822
0.077723
0.0726619
0.0681886
0.0642717
0.0607673
0.0576631
0.0548825
0.0523848
0.0501512
0.0481069
0.0462777
0.0445348
0.0429758
0.0414509
0.040091
0.0387449
0.0375336
0.0363347
0.0352444
0.0341652
0.0331857
0.0322083
0.0313381
0.0304362
0.0296411
0.0288206
0.0280984
0.0273496
0.0267003
0.026007
0.0254568
0.024758
0.0243502
0.0237159
0.0233901
0.0230158
0.0228244
0.0227578
21.7963
3.38034
1.22894
0.663617
0.43656
0.320482
0.25159
0.206476
0.174797
0.151427
0.133475
0.119307
0.107807
0.0983334
0.0903556
0.0835871
0.0777378
0.0726687
0.0682058
0.064283
0.0607835
0.0576801
0.0548982
0.0524019
0.0501667
0.0481407
0.0462971
0.044584
0.0429993
0.0415058
0.0401173
0.0387963
0.0375678
0.0363787
0.035295
0.0342063
0.0332507
0.0322606
0.0313989
0.0305202
0.0297112
0.028945
0.0281678
0.0274973
0.0267618
0.0261374
0.0255187
0.024888
0.0244221
0.0238615
0.0235958
0.023217
0.0228783
0.0224958
21.7964
3.38037
1.22902
0.663672
0.436594
0.320504
0.251611
0.206492
0.174818
0.151443
0.1335
0.119326
0.107836
0.0983579
0.0903907
0.0836186
0.0777816
0.0727059
0.0682637
0.0643189
0.0608552
0.0577064
0.0549593
0.0523918
0.0501798
0.0480552
0.0462217
0.0444387
0.042864
0.0413382
0.0399498
0.0386237
0.0373904
0.0362139
0.0351175
0.0340491
0.0330751
0.0321072
0.0312313
0.0303631
0.0295564
0.0287951
0.0280337
0.0273651
0.0266449
0.0260744
0.0253782
0.0249185
0.0243204
0.0239377
0.0236179
0.0231934
0.0226829
0.0228701
21.7963
3.3804
1.22903
0.663677
0.436597
0.320506
0.251613
0.206496
0.174821
0.151451
0.133502
0.119338
0.107837
0.0983752
0.0903908
0.0836398
0.0777827
0.0727313
0.0682655
0.0643503
0.0608565
0.0577433
0.0549555
0.0524361
0.0501815
0.0480969
0.0462454
0.044476
0.0429075
0.041367
0.0400096
0.0386472
0.0374558
0.036242
0.035181
0.0340915
0.0331416
0.0321598
0.0313015
0.0304257
0.029624
0.0288663
0.0280891
0.0274481
0.0266993
0.02615
0.0254905
0.0249906
0.0244724
0.0240499
0.0236313
0.0230866
0.0223915
0.022414
21.7964
3.3804
1.22907
0.663708
0.436621
0.320525
0.251635
0.206512
0.174846
0.151465
0.133533
0.119352
0.107876
0.0983872
0.0904399
0.0836509
0.0778422
0.0727416
0.0683327
0.0643595
0.0609232
0.0577432
0.0550099
0.0524153
0.050191
0.0480392
0.0461949
0.0443771
0.042807
0.0412437
0.0398736
0.0385163
0.0372982
0.0361182
0.0350137
0.0339777
0.0329731
0.0320467
0.0311478
0.0302988
0.0295032
0.0287114
0.0280124
0.0272705
0.0266731
0.0259756
0.0254789
0.0248988
0.024524
0.0238236
0.0232372
0.023179
0.0227815
0.0236988
21.7964
3.38042
1.22907
0.663712
0.436624
0.320527
0.251636
0.206515
0.174849
0.151469
0.133538
0.119358
0.107882
0.0983962
0.090447
0.0836647
0.077848
0.0727631
0.0683353
0.0643913
0.0609206
0.0577837
0.0550075
0.0524564
0.0501929
0.0480881
0.0462018
0.0444315
0.0428213
0.0413019
0.0398964
0.0385744
0.037331
0.036167
0.0350591
0.0340187
0.0330293
0.0320899
0.0312006
0.0303535
0.0295436
0.028787
0.0280451
0.0273756
0.0266891
0.0261199
0.0255135
0.0250301
0.024467
0.0241166
0.0232521
0.0228438
0.0226692
0.0231412
21.7965
3.38044
1.22914
0.663759
0.436654
0.320549
0.251655
0.206533
0.174867
0.15149
0.133557
0.119381
0.107904
0.0984223
0.0904703
0.0836944
0.0778721
0.0727952
0.0683578
0.0644217
0.0609374
0.0578093
0.0550058
0.0524631
0.0501663
0.0480576
0.0461407
0.04436
0.0427325
0.0411973
0.0397878
0.0384495
0.0372043
0.0360373
0.0349143
0.033897
0.0328662
0.0319769
0.0310318
0.0302371
0.0293932
0.0286612
0.0279303
0.0272464
0.0266331
0.0259864
0.0255053
0.0249457
0.0244484
0.0241113
0.0231868
0.0229893
0.0237243
0.0265639
21.7964
3.38047
1.22915
0.663765
0.436657
0.320552
0.251658
0.206537
0.174872
0.151495
0.133564
0.119388
0.10791
0.098435
0.090475
0.0837141
0.0778745
0.0728226
0.068359
0.064456
0.0609386
0.0578488
0.0550032
0.0525122
0.0501641
0.0481115
0.0461459
0.0444191
0.0427436
0.0412577
0.0398096
0.0385063
0.0372437
0.036083
0.0349752
0.0339269
0.0329499
0.031998
0.0311256
0.0302734
0.0294763
0.0287295
0.0279971
0.0273309
0.0266818
0.0260624
0.0255368
0.0248864
0.0244644
0.0239239
0.0230961
0.0228803
0.0231604
0.025036
21.7965
3.38046
1.22917
0.663791
0.436678
0.32057
0.251677
0.206553
0.174893
0.151509
0.133589
0.1194
0.107941
0.0984435
0.0905119
0.0837191
0.077915
0.0728242
0.0683984
0.0644536
0.0609708
0.0578361
0.0550261
0.0524831
0.050163
0.0480587
0.0461148
0.044338
0.042684
0.0411549
0.0397261
0.0383905
0.0371389
0.0359646
0.0348501
0.0338185
0.0328028
0.0319054
0.0309636
0.0301852
0.0293238
0.0286341
0.0278828
0.027231
0.0266219
0.0259328
0.0255331
0.0247778
0.0244256
0.0236124
0.0236468
0.0240149
0.0293958
0.0319773
21.7965
3.38049
1.22918
0.663795
0.43668
0.320573
0.251678
0.206559
0.174893
0.15152
0.133586
0.119418
0.107935
0.0984678
0.0905039
0.0837495
0.0779063
0.0728597
0.068392
0.064492
0.0609688
0.0578737
0.0550329
0.0525146
0.0501784
0.048093
0.0461353
0.0443769
0.0427072
0.0412021
0.0397488
0.0384488
0.0371611
0.0360302
0.0348755
0.0338802
0.0328447
0.0319498
0.0310328
0.0302222
0.0294077
0.0286742
0.0279437
0.0272762
0.026631
0.0259994
0.0254317
0.0247481
0.0244016
0.0234926
0.0237713
0.023496
0.0265185
0.0308144
21.7965
3.3805
1.22923
0.663834
0.436707
0.320593
0.251697
0.206575
0.174912
0.151535
0.133607
0.119431
0.107959
0.0984801
0.0905297
0.0837592
0.0779335
0.0728639
0.0684183
0.0644874
0.0609911
0.057861
0.0550426
0.0524879
0.0501707
0.048044
0.0461031
0.0443057
0.0426533
0.0411101
0.0396787
0.0383377
0.0370783
0.0359051
0.034779
0.0337558
0.032721
0.0318496
0.0308658
0.0301444
0.0292145
0.028575
0.0277811
0.027111
0.0265372
0.0257935
0.0255094
0.0245874
0.0244181
0.0250931
0.0249588
0.0303251
0.0301418
0.0328107
21.7965
3.38053
1.22924
0.663839
0.436711
0.320596
0.2517
0.20658
0.174915
0.151543
0.133611
0.119443
0.107964
0.0984945
0.0905356
0.0837773
0.07794
0.0728875
0.068425
0.064518
0.0609969
0.0578978
0.0550436
0.052533
0.0501726
0.0480926
0.046112
0.0443588
0.0426662
0.0411694
0.0396926
0.0384069
0.0370924
0.0359839
0.0347952
0.0338384
0.0327487
0.031919
0.0309237
0.0301939
0.0292967
0.0286072
0.0278525
0.0271085
0.0265612
0.0257965
0.0253548
0.0246608
0.0246846
0.0245264
0.0257082
0.0262955
0.0339799
0.0328245
21.7965
3.38054
1.22927
0.663865
0.436731
0.320613
0.251715
0.206594
0.174929
0.151556
0.133625
0.119454
0.107978
0.0985048
0.0905505
0.0837841
0.0779558
0.0728874
0.0684407
0.0645076
0.0610111
0.0578738
0.0550549
0.0524951
0.0501686
0.0480403
0.0460875
0.04429
0.0426234
0.0410821
0.0396395
0.038297
0.0370365
0.0358486
0.0347395
0.033678
0.0326808
0.0317537
0.0307962
0.030045
0.0290851
0.0284615
0.0276528
0.0269437
0.0265851
0.0256695
0.0258581
0.0257516
0.0271008
0.0288621
0.0309483
0.0331516
0.0373121
0.0368081
21.7965
3.38056
1.22928
0.663869
0.436733
0.320615
0.251718
0.206598
0.174934
0.151561
0.133632
0.119461
0.107987
0.0985135
0.0905607
0.083796
0.0779668
0.0729045
0.0684521
0.0645315
0.0610212
0.0579029
0.055065
0.0525268
0.0501793
0.0480792
0.0460997
0.044335
0.0426384
0.0411328
0.0396577
0.0383542
0.0370574
0.0359142
0.0347605
0.0337538
0.0327011
0.0318338
0.030833
0.0300992
0.0291742
0.0284566
0.0277728
0.0269408
0.0266406
0.0257807
0.0258576
0.0259893
0.0268406
0.0284875
0.0328773
0.0328386
0.0337957
0.0347787
21.7964
3.38063
1.22936
0.663939
0.436788
0.32066
0.251757
0.206633
0.174966
0.151591
0.13366
0.119487
0.108012
0.0985368
0.0905822
0.0838152
0.0779853
0.0729168
0.0684673
0.0645334
0.0610339
0.0578939
0.055073
0.0525002
0.0501817
0.0480278
0.0460938
0.0442559
0.0426257
0.0410227
0.0396366
0.0382109
0.0370234
0.0357385
0.0347104
0.0335486
0.032636
0.0316103
0.0307221
0.0299338
0.0289276
0.0284292
0.0274719
0.0272774
0.0274345
0.0280003
0.0303919
0.0319676
0.0383639
0.039769
0.0421124
0.0456458
0.0460866
0.0457026
21.7964
3.38065
1.22937
0.663943
0.436792
0.320663
0.251761
0.206636
0.174971
0.151595
0.133667
0.119493
0.10802
0.0985445
0.0905925
0.083826
0.0779967
0.0729329
0.068479
0.0645566
0.0610436
0.0579243
0.0550763
0.0525402
0.0501816
0.0480775
0.0460942
0.0443151
0.0426275
0.0410881
0.0396429
0.0382785
0.0370394
0.0358038
0.0347393
0.0336129
0.0326675
0.0316884
0.0307418
0.0300147
0.028982
0.0284304
0.0275437
0.0273255
0.0274016
0.0280564
0.0298841
0.0324409
0.0363484
0.041692
0.044521
0.046322
0.0468699
0.046227
21.7971
3.38063
1.22943
0.663852
0.436568
0.32037
0.251443
0.206308
0.174653
0.151286
0.133373
0.119218
0.107771
0.0983028
0.09037
0.0835984
0.07779
0.07271