/*--------------------------------*- C++ -*----------------------------------*\
| =========                 |                                                 |
| \\      /  F ield         | OpenFOAM: The Open Source CFD Toolbox           |
|  \\    /   O peration     | Version:  4.1                                   |
|   \\  /    A nd           | Web:      www.OpenFOAM.org                      |
|    \\/     M anipulation  |                                                 |
\*---------------------------------------------------------------------------*/
FoamFile
{
    version     2.0;
    format      ascii;
    class       volScalarField;
    location    "49";
    object      p;
}
// * * * * * * * * * * * * * * * * * * * * * * * * * * * * * * * * * * * * * //

dimensions      [0 2 -2 0 0 0 0];

internalField   nonuniform List<scalar> 
4432
(
100751
100752
100752
100754
100757
100761
100765
100769
100773
100777
100784
100792
100801
100810
100819
100828
100833
100835
100836
100844
100859
100877
100895
100914
100935
100958
100979
100996
101008
101016
101020
101019
101016
101012
101005
100983
100955
100960
100960
100941
100916
100899
100899
100902
100900
100917
100869
100860
100952
101032
100966
100817
100562
100536
100751
100752
100752
100754
100757
100761
100765
100768
100772
100777
100784
100792
100801
100810
100820
100828
100833
100834
100836
100844
100860
100878
100896
100915
100936
100960
100980
100996
101008
101017
101022
101021
101017
101010
101000
100986
100970
100954
100940
100932
100921
100912
100905
100891
100876
100922
100911
100878
100942
101005
100954
100867
100539
100493
100750
100750
100750
100751
100755
100758
100762
100766
100770
100775
100781
100789
100798
100808
100820
100833
100850
100867
100879
100885
100896
100910
100924
100938
100952
100966
100981
100997
101013
101025
101032
101032
101023
101009
100991
100966
100952
100947
100939
100927
100909
100896
100898
100905
100904
100902
100895
100891
100950
101003
101051
101019
100231
100882
100750
100750
100750
100751
100755
100759
100762
100766
100770
100775
100781
100789
100798
100808
100820
100833
100849
100867
100879
100886
100895
100909
100922
100935
100949
100963
100979
100995
101009
101022
101028
101025
101017
101008
100993
100971
100953
100941
100935
100929
100919
100907
100904
100911
100904
100903
100900
100891
100948
101003
101022
101065
100231
100870
100748
100749
100749
100750
100754
100758
100761
100765
100769
100774
100779
100787
100796
100807
100819
100832
100846
100859
100867
100877
100891
100907
100921
100935
100949
100966
100983
101001
101019
101035
101045
101047
101047
101035
101002
100963
100946
100948
100948
100945
100927
100907
100908
100912
100908
100896
100905
100909
100932
100930
100936
100893
100843
101237
100748
100748
100749
100750
100754
100758
100761
100765
100769
100773
100779
100787
100796
100807
100819
100832
100846
100859
100867
100876
100891
100906
100920
100933
100947
100964
100981
100998
101016
101034
101044
101043
101037
101027
101005
100974
100958
100952
100944
100937
100926
100911
100912
100919
100910
100897
100895
100908
100927
100933
100962
100885
100759
101249
100746
100746
100746
100748
100751
100755
100759
100762
100766
100770
100776
100784
100793
100803
100815
100827
100840
100852
100859
100870
100887
100903
100917
100931
100947
100968
100988
101007
101030
101053
101067
101078
101087
101063
101005
100935
100906
100923
100941
100960
100934
100905
100910
100916
100912
100903
100918
100917
100940
100959
100963
100964
100975
100983
100746
100746
100746
100748
100751
100755
100758
100762
100766
100770
100776
100783
100793
100803
100815
100827
100840
100852
100860
100870
100886
100903
100917
100931
100947
100967
100986
101006
101030
101053
101067
101076
101082
101060
101014
100961
100942
100941
100944
100943
100938
100916
100915
100912
100909
100904
100907
100924
100938
100967
100981
100992
100872
100930
100743
100743
100743
100745
100748
100752
100755
100759
100762
100767
100772
100780
100788
100799
100810
100822
100835
100847
100856
100863
100876
100892
100908
100925
100945
100970
100995
101020
101047
101072
101090
101107
101116
101102
101121
100896
100891
100908
100923
100958
100938
100918
100926
100930
100937
100935
100903
100885
100930
100995
101058
100980
100889
101236
100743
100743
100743
100745
100748
100752
100755
100759
100762
100767
100772
100780
100788
100799
100810
100822
100835
100847
100856
100863
100875
100892
100909
100925
100946
100971
100995
101019
101049
101075
101092
101104
101109
101085
101040
100959
100920
100921
100934
100951
100960
100934
100928
100920
100918
100912
100909
100919
100946
100989
101024
101059
100842
101142
100739
100740
100740
100741
100744
100748
100751
100754
100758
100762
100767
100774
100783
100793
100804
100815
100827
100838
100848
100856
100868
100882
100897
100914
100935
100963
100994
101022
101051
101078
101095
101116
101149
101349
101663
101013
100901
100899
100908
100912
100917
100952
100959
100950
100945
100947
100908
100887
100915
100980
101041
100954
100872
101178
100739
100740
100740
100741
100744
100748
100751
100754
100758
100762
100767
100774
100783
100793
100804
100816
100827
100838
100847
100856
100868
100882
100898
100915
100938
100965
100993
101020
101051
101077
101091
101099
101105
101149
101177
101000
100909
100904
100915
100928
100944
100952
100948
100942
100937
100923
100905
100905
100933
100980
101024
100953
100894
101267
100735
100735
100735
100737
100740
100743
100746
100749
100753
100757
100762
100769
100777
100787
100797
100808
100818
100829
100838
100848
100859
100873
100886
100901
100919
100946
100979
101008
101030
101046
101067
101107
101220
101711
101432
101346
100909
100893
100905
100905
100913
100959
100974
100962
100951
100950
100926
100901
100907
100953
101036
101027
100901
101135
100735
100735
100735
100737
100740
100743
100746
100749
100752
100756
100762
100769
100777
100787
100797
100808
100818
100829
100838
100848
100860
100873
100886
100903
100922
100948
100977
101002
101026
101046
101058
101076
101114
101215
101270
101026
100886
100886
100902
100909
100921
100946
100959
100958
100956
100946
100913
100895
100911
100949
100992
100964
100955
101140
100730
100731
100731
100732
100734
100738
100741
100744
100747
100750
100755
100762
100770
100779
100789
100799
100809
100819
100828
100838
100849
100861
100873
100884
100897
100916
100945
100968
100982
100987
100995
101018
101058
101183
101155
100943
100892
100894
100906
100910
100920
100939
100955
100956
100954
100963
100956
100925
100898
100909
100991
101018
100943
101168
100730
100730
100731
100732
100734
100738
100741
100743
100746
100750
100755
100762
100770
100779
100789
100799
100809
100819
100828
100838
100849
100861
100872
100886
100901
100920
100943
100962
100978
100989
100992
101005
101043
101081
101102
100979
100896
100899
100915
100921
100925
100933
100942
100949
100967
100970
100937
100898
100885
100920
100993
100998
100949
101195
100725
100725
100725
100726
100729
100732
100734
100737
100740
100743
100748
100754
100762
100770
100780
100789
100799
100808
100818
100827
100837
100847
100856
100864
100872
100879
100896
100912
100925
100936
100947
100962
100991
101013
101016
100939
100902
100914
100926
100925
100923
100922
100933
100952
100968
100985
100982
100949
100902
100888
100943
100979
100973
101219
100725
100725
100725
100726
100729
100732
100734
100737
100740
100743
100748
100754
100762
100770
100780
100789
100799
100808
100818
100827
100837
100847
100856
100864
100871
100882
100896
100910
100923
100934
100944
100960
100987
101008
101017
100977
100943
100937
100939
100941
100941
100933
100927
100941
100973
100989
100967
100918
100884
100897
100951
100961
100958
101244
100719
100719
100719
100720
100722
100725
100728
100730
100732
100736
100740
100746
100753
100761
100769
100779
100788
100797
100807
100816
100825
100832
100837
100840
100839
100839
100845
100861
100881
100899
100915
100937
100968
100991
101014
100996
100976
100969
100966
100963
100959
100945
100940
100958
100988
101017
101020
100989
100934
100900
100933
100986
101064
101221
100719
100719
100719
100720
100722
100725
100728
100730
100732
100735
100740
100746
100753
100761
100770
100779
100788
100797
100807
100816
100825
100832
100837
100838
100836
100836
100847
100864
100882
100898
100915
100936
100964
100995
101019
101011
100994
100984
100979
100978
100973
100958
100944
100953
100991
101023
101013
100971
100922
100890
100904
100939
100999
101214
100713
100713
100713
100714
100715
100718
100720
100722
100724
100727
100731
100736
100743
100750
100758
100767
100776
100786
100796
100805
100814
100819
100820
100813
100798
100787
100796
100822
100849
100872
100897
100929
100961
100994
101024
101028
101024
101023
101023
101019
101013
101002
100988
100985
100997
101033
101056
101034
100971
100923
100947
100998
101034
100936
100713
100713
100713
100714
100716
100718
100720
100722
100724
100727
100731
100736
100743
100750
100759
100767
100776
100786
100796
100806
100814
100820
100819
100811
100795
100786
100799
100826
100849
100871
100898
100929
100964
100998
101023
101029
101026
101026
101028
101028
101026
101016
100997
100983
101003
101041
101051
101019
100960
100914
100915
100953
100931
100898
100706
100706
100706
100706
100708
100710
100712
100714
100716
100718
100721
100726
100732
100739
100747
100755
100764
100774
100785
100796
100806
100812
100809
100788
100745
100718
100737
100776
100807
100834
100868
100910
100951
100990
101022
101042
101056
101071
101083
101084
101076
101061
101045
101029
101015
101030
101059
101060
101014
100962
100962
101006
101031
100976
100706
100706
100706
100707
100708
100710
100712
100714
100716
100718
100721
100726
100732
100739
100747
100755
100764
100774
100785
100796
100806
100811
100807
100785
100742
100719
100741
100778
100806
100833
100868
100910
100952
100990
101020
101041
101057
101073
101086
101089
101082
101068
101049
101027
101023
101044
101061
101045
101000
100957
100956
100992
100978
101068
100699
100699
100699
100699
100701
100702
100704
100705
100706
100708
100711
100715
100720
100726
100733
100741
100751
100761
100774
100788
100803
100813
100808
100773
100680
100633
100662
100716
100753
100786
100830
100881
100933
100981
101025
101064
101101
101131
101153
101156
101141
101115
101085
101057
101035
101033
101051
101065
101050
101014
100992
100995
101016
100948
100699
100699
100699
100699
100701
100702
100704
100705
100706
100708
100711
100715
100720
100726
100733
100742
100751
100761
100774
100788
100803
100812
100805
100764
100668
100632
100673
100722
100754
100785
100830
100881
100932
100980
101024
101064
101102
101134
101158
101160
101143
101116
101085
101057
101040
101043
101056
101057
101036
101005
100986
100984
100998
100917
100692
100692
100691
100691
100692
100694
100695
100696
100697
100698
100700
100703
100707
100713
100719
100726
100735
100747
100761
100780
100805
100833
100849
100792
100609
100471
100564
100650
100691
100731
100787
100850
100911
100971
101032
101094
101154
101201
101237
101237
101207
101161
101114
101075
101048
101038
101046
101061
101063
101047
101027
101014
101024
100953
100692
100692
100691
100691
100693
100694
100695
100696
100697
100698
100700
100703
100707
100713
100719
100726
100735
100747
100761
100780
100805
100832
100845
100782
100568
100497
100584
100646
100684
100727
100786
100850
100911
100971
101032
101093
101157
101203
101255
101253
101215
101161
101111
101070
101044
101039
101050
101062
101060
101043
101025
101010
101020
100942
100684
100684
100684
100683
100684
100685
100686
100686
100686
100687
100688
100690
100694
100698
100703
100709
100717
100728
100742
100765
100801
100869
100939
100942
100448
100100
100412
100593
100639
100672
100737
100813
100885
100956
101035
101122
101208
101264
101328
101329
101271
101195
101132
101085
101053
101038
101042
101058
101072
101072
101062
101045
101044
100971
100684
100684
100684
100684
100684
100685
100686
100686
100686
100687
100688
100690
100694
100698
100703
100709
100717
100728
100742
100764
100800
100866
100934
100917
100132
100300
100506
100598
100629
100673
100742
100817
100887
100958
101041
101132
101224
101249
101328
101335
101268
101188
101130
101087
101057
101045
101050
101064
101074
101071
101061
101045
101044
100968
100677
100677
100676
100675
100676
100676
100677
100676
100676
100676
100676
100677
100679
100682
100685
100689
100695
100703
100715
100733
100761
100806
100925
101198
100137
100403
100576
100606
100620
100682
100762
100839
100920
101019
101135
101262
101305
101368
101404
101327
101227
101159
101112
101075
101053
101050
101062
101080
101091
101090
101074
101064
100976
100677
100676
100676
100675
100676
100676
100677
100676
100676
100676
100676
100677
100679
100682
100685
100690
100695
100703
100715
100732
100760
100804
100922
101151
100101
100443
100561
100592
100624
100693
100772
100846
100925
101012
101150
101277
101258
101235
101377
101310
101219
101160
101118
101083
101061
101056
101067
101081
101089
101087
101072
101061
100980
100669
100669
100668
100667
100667
100667
100667
100666
100665
100664
100663
100663
100663
100664
100666
100668
100670
100674
100679
100686
100693
100689
100654
100599
100238
100283
100575
100656
100616
100603
100648
100710
100771
100845
100949
101072
101214
101242
101292
101447
101364
101262
101194
101147
101107
101077
101062
101066
101082
101099
101112
101103
101100
100988
100669
100669
100668
100667
100667
100667
100667
100666
100665
100664
100663
100663
100663
100664
100666
100668
100670
100674
100679
100686
100692
100686
100646
100566
100267
100335
100595
100656
100615
100611
100661
100724
100779
100840
100893
101076
101092
101313
101258
101247
101249
101215
101177
101143
101110
101083
101068
101069
101082
101097
101106
101096
101088
100991
100661
100661
100660
100659
100659
100659
100658
100656
100654
100652
100650
100649
100647
100646
100645
100644
100643
100642
100640
100637
100629
100611
100576
100496
100415
100415
100544
100591
100585
100599
100631
100662
100687
100741
100903
101081
101071
101270
101517
101294
101242
101220
101180
101146
101118
101092
101073
101067
101077
101095
101118
101120
101144
101019
100661
100661
100660
100659
100659
100659
100658
100656
100654
100652
100650
100649
100647
100646
100645
100644
100643
100642
100640
100637
100629
100609
100572
100491
100398
100412
100537
100584
100581
100601
100641
100676
100695
100721
100766
101003
100831
101128
101557
100611
101041
101188
101174
101142
101117
101096
101079
101073
101080
101095
101114
101114
101126
101005
100654
100654
100652
100651
100650
100650
100648
100646
100643
100640
100637
100634
100631
100628
100624
100620
100615
100609
100601
100591
100576
100553
100518
100466
100405
100386
100426
100478
100520
100561
100592
100598
100583
100584
100684
100936
101976
100953
100050
100504
101038
101200
101175
101141
101119
101101
101086
101076
101077
101089
101106
101103
101132
100982
100654
100653
100652
100651
100650
100650
100648
100646
100643
100640
100637
100634
100631
100628
100624
100620
100615
100609
100601
100591
100576
100552
100516
100462
100402
100391
100434
100482
100519
100557
100592
100607
100603
100521
100647
100967
101475
99014.8
99495.4
99209.4
100099
101027
101163
101136
101111
101098
101088
101082
101083
101092
101105
101099
101126
101005
100647
100646
100645
100643
100642
100641
100639
100636
100633
100628
100624
100619
100615
100609
100603
100595
100587
100576
100563
100547
100526
100498
100460
100415
100372
100352
100368
100406
100446
100482
100502
100499
100388
100455
100487
99336.9
98205.3
97528
98023.6
99020.1
100081
101002
101162
101128
101106
101097
101094
101089
101091
101106
101120
101106
101083
100881
100646
100646
100645
100643
100642
100641
100639
100636
100632
100628
100624
100619
100614
100609
100603
100595
100587
100576
100563
100547
100525
100497
100459
100415
100373
100357
100375
100411
100446
100476
100500
100510
100521
100550
100454
99920.4
101007
98031.5
98116.3
98596.6
99446.4
100524
101092
101132
101109
101090
101087
101091
101099
101111
101113
101082
101084
100944
100640
100639
100638
100636
100634
100633
100630
100627
100622
100617
100611
100605
100598
100591
100582
100571
100559
100544
100526
100505
100479
100447
100409
100370
100335
100314
100314
100328
100342
100361
100374
100405
100136
100333
100565
99495.6
96872.8
96931.8
98134.4
99081.6
99900.3
100883
101124
101111
101092
101091
101095
101096
101106
101143
101190
101205
101183
101133
100640
100639
100638
100636
100634
100633
100630
100627
100622
100617
100611
100605
100598
100591
100582
100571
100559
100544
100526
100505
100478
100446
100409
100370
100336
100317
100317
100329
100340
100352
100365
100423
100413
100471
100539
97803.6
97812.1
97262.9
98301.3
99135.8
99938.4
100735
101049
101098
101103
101090
101086
101093
101114
101150
101176
101180
101111
100902
100633
100633
100631
100629
100627
100625
100622
100618
100612
100606
100599
100591
100583
100573
100561
100548
100532
100513
100491
100466
100435
100401
100362
100323
100286
100255
100234
100220
100208
100215
100246
100486
100261
99255.9
98691.7
97165.4
96405
97357.6
98762.6
99779.3
100353
100903
101108
101093
101078
101082
101085
101081
101091
101137
101210
101264
101342
101337
100633
100633
100631
100629
100627
100625
100622
100617
100612
100606
100599
100591
100583
100573
100561
100548
100532
100513
100491
100465
100435
100401
100362
100323
100286
100256
100235
100219
100202
100188
100164
100232
100508
99600.7
94461.6
94171
96036.4
97329.6
98843.2
99898.2
100505
100833
100973
101058
101078
101085
101080
101081
101101
101153
101226
101281
101255
101206
100627
100626
100625
100622
100620
100618
100614
100609
100603
100596
100587
100578
100568
100556
100542
100526
100507
100484
100459
100429
100395
100357
100315
100270
100224
100179
100134
100090
100047
100029
100128
100335
100510
99194.5
95655.3
95281
96540.4
98058.3
99387.4
100138
100456
100637
100961
101070
101079
101085
101080
101070
101067
101074
101113
101162
101238
101149
100627
100626
100625
100622
100620
100618
100614
100609
100603
100596
100587
100578
100568
100556
100542
100525
100506
100484
100459
100429
100395
100357
100315
100271
100225
100179
100134
100089
100037
99995.4
99922.2
100146
100267
98749.1
94808.7
95199
96631.6
98167.9
99485.7
100226
100542
100674
100850
101018
101066
101084
101081
101072
101072
101087
101144
101216
101294
101286
100621
100621
100619
100616
100614
100611
100607
100601
100594
100586
100577
100566
100554
100540
100524
100505
100483
100458
100429
100396
100358
100315
100268
100215
100158
100095
100025
99938.7
99848.4
99662.5
99908.3
100279
100130
88506.9
90865.6
94904
97260.2
98912.6
99789.5
100048
100211
100471
100774
101010
101071
101102
101099
101087
101068
101036
101059
101081
101129
101206
100621
100621
100619
100616
100614
100611
100607
100601
100594
100586
100577
100566
100554
100540
100524
100505
100483
100458
100429
100396
100358
100315
100268
100215
100158
100095
100025
99942.4
99843
99711.4
99627.6
99675.3
97011.9
94749.5
94698.9
95933.2
97640.8
99110.9
99874.9
100061
100230
100515
100778
100965
101055
101096
101101
101090
101071
101032
101047
101084
101082
100950
100617
100616
100614
100611
100608
100605
100600
100594
100587
100578
100567
100555
100542
100526
100508
100487
100463
100434
100402
100366
100324
100276
100222
100161
100091
100010
99914.1
99789.8
99630.4
99331.7
98886.1
100244
96548.8
91013.7
94067.9
97164.8
99312.3
100337
100295
99941.3
99988.9
100310
100648
100918
101059
101122
101134
101122
101093
101046
101019
100945
100895
101081
100617
100616
100614
100611
100608
100605
100600
100594
100587
100577
100567
100555
100542
100526
100508
100487
100462
100434
100402
100366
100324
100276
100223
100161
100091
100010
99913.5
99800
99641.1
99411.7
99132.7
98841.7
95530.7
92621.1
95309.2
97723.9
99621
100514
100346
99907
99971
100357
100685
100891
101034
101113
101133
101131
101098
101032
100992
100885
100771
101001
100612
100612
100610
100607
100604
100600
100595
100588
100580
100570
100559
100546
100531
100514
100494
100471
100445
100414
100379
100339
100294
100241
100181
100111
100029
99931.2
99810.8
99659.1
99452.7
99162
98627.7
98405.7
100360
101028
100009
100816
101892
101837
100792
99798.1
99719.4
100121
100551
100880
101059
101148
101195
101178
101162
101084
100834
100488
100447
100985
100612
100612
100610
100607
100604
100600
100595
100588
100580
100570
100559
100546
100531
100514
100494
100471
100444
100414
100379
100339
100294
100241
100181
100112
100029
99930.1
99804.4
99662.2
99481.2
99247.1
98957.5
98301.3
97154.6
97497.8
99191.1
100941
102150
101980
100810
99751.7
99691.2
100154
100578
100859
101037
101140
101188
101188
101171
101100
100877
100389
100289
100865
100609
100609
100606
100603
100600
100596
100590
100583
100575
100564
100552
100538
100522
100504
100483
100458
100430
100397
100360
100317
100268
100212
100146
100069
99976.6
99864.5
99727
99556
99324.2
99025.8
98540.4
97933.2
98201
99856.2
100145
101140
102307
102165
100917
99601.4
99477.9
100002
100562
100909
101077
101186
101294
101315
101340
101213
100884
100459
100024
100771
100609
100608
100606
100603
100600
100596
100590
100583
100574
100564
100552
100538
100522
100504
100483
100458
100430
100397
100360
100317
100268
100212
100146
100069
99976.1
99859.1
99724.9
99556.8
99331.3
99051.9
98780.8
97633.2
97138.5
98583.9
100069
101617
102542
102183
100936
99639.3
99449.9
100001
100574
100917
101079
101176
101272
101304
101368
101337
101132
100590
99852.1
100780
100607
100606
100603
100600
100597
100592
100587
100579
100570
100559
100547
100532
100515
100496
100474
100448
100418
100384
100345
100300
100249
100189
100119
100036
99936.6
99816.4
99669.4
99482.3
99238.2
98921.1
98527.2
97894.2
97473.5
98108.2
97932.6
99425.5
100869
101339
100861
99964.6
99743.6
100203
100709
101041
101164
101269
101381
101411
101443
101334
101284
100990
99683.4
100587
100607
100606
100603
100600
100597
100592
100587
100579
100570
100559
100547
100532
100515
100496
100474
100448
100418
100384
100345
100300
100249
100189
100119
100036
99936.8
99816
99675.8
99488
99233.2
98916.7
98489.7
97833.3
97477.3
98147.8
99197.7
100188
100421
100775
100628
100063
99802.9
100169
100691
101054
101188
101257
101353
101402
101477
101456
101583
101379
99742.3
100527
100605
100605
100602
100599
100595
100590
100584
100577
100567
100556
100543
100528
100511
100491
100468
100441
100411
100375
100335
100289
100235
100173
100100
100013
99909.5
99783.5
99628.5
99433.9
99185.5
98868.1
98488
97970.8
97460.8
96823.2
96005.2
96336.2
95777.8
96022.1
96727.5
98325.7
99461.7
100403
100884
101174
101325
101417
101469
101467
101482
101493
101787
101697
99749.1
100046
100605
100605
100602
100599
100595
100590
100584
100577
100567
100556
100543
100528
100511
100491
100468
100441
100411
100375
100335
100289
100235
100173
100100
100014
99909.9
99784.3
99631.1
99440.9
99188.3
98860.5
98505.2
97985.6
97474.4
97327.5
96913.7
96071.6
95082.4
95444.7
96372.7
98119.2
99539.4
100408
100878
101168
101319
101414
101461
101473
101488
101531
101960
102099
100069
100205
100604
100603
100601
100597
100594
100589
100583
100575
100566
100554
100541
100526
100508
100488
100465
100438
100406
100371
100330
100283
100228
100165
100091
100002
99895.6
99766.5
99607.7
99409.7
99160.5
98847
98460.2
97958
97320.3
96693
96059.4
94794.5
92672.6
92065.9
93124.2
95640.4
98140.6
99736.2
100544
100947
101231
101409
101469
101473
101461
101505
101560
101134
99899.6
99756
100604
100603
100601
100597
100594
100589
100583
100575
100565
100554
100541
100526
100508
100488
100464
100437
100406
100371
100330
100283
100229
100165
100091
100002
99896
99767.1
99608.8
99412.4
99163.3
98851.2
98481.6
98022.2
97493.7
96757.4
95461.7
93846
92637.8
92232.1
93188.6
95487.3
98036.2
99736.1
100542
100933
101199
101394
101470
101473
101470
101517
101613
101258
100089
99813.9
100550
100922
100284
101345
101326
100286
100198
100332
100187
100049
100252
100911
100315
101344
101291
100346
100144
100258
100045
100090
101183
100671
100399
100625
100229
100293
100096
100378
100083
100187
100033
101174
100608
100191
100599
100170
100070
100117
100153
100082
100129
100210
100712
100787
100697
100841
100721
100827
100693
100535
100587
100515
100522
100426
100498
100416
100683
100774
100672
100816
100655
100810
100628
100508
100561
100514
100415
100374
100363
100347
101007
100937
101000
100988
101143
100988
101146
100314
100460
100407
100439
100302
100237
100186
100327
100065
100121
100026
100129
100991
100927
100988
100985
101131
100975
101129
99798.5
100335
100157
100197
100080
100396
100323
100428
100061
100211
100141
100294
101003
100924
101015
100784
100763
100782
100755
100416
101209
100875
100873
100485
100215
100300
100182
100072
100188
100120
100225
100100
100243
101011
100917
101009
100776
100743
100776
100744
100418
101159
100914
100414
100891
100085
100084
100256
100167
100326
100162
100299
100239
100358
100441
100585
100421
100544
100435
100544
100437
100000
100236
100089
100322
100286
100330
100322
100418
100561
100417
100543
100443
100542
100445
100195
100274
100234
100341
100329
100341
100321
100797
100735
100519
100724
100853
100790
100483
100649
100699
100791
101179
101270
101353
101274
101198
100958
101008
101191
101252
101351
101272
101154
100972
100928
100255
100386
100403
100417
100153
100286
100263
100270
100148
100145
100128
100263
100253
100127
100254
100092
100071
100092
100152
100648
100623
100342
100650
100903
100744
100329
100628
100628
100722
101183
101198
101307
101041
101271
101099
100719
101117
101271
101312
101245
101173
100881
100971
99797
100134
100171
100152
99835.9
99843
100060
100035
100112
100074
100159
100134
99825.2
99856.3
100010
100077
100089
100112
100026
100141
100218
100401
101207
100891
100871
100421
100117
100104
100246
100492
100355
100477
100305
100208
100296
100384
100113
100444
100264
100238
100294
100217
100360
100123
100061
100179
100147
100077
100119
100082
100223
100324
100332
100284
100307
100155
100261
100181
100125
100225
100079
100101
100384
101172
100856
100864
100355
100078
100071
99995.7
100339
100155
100067
100305
100030
100192
100326
100336
100088
100071
100082
100056
100087
100058
100011
100213
100078
100109
100104
100093
100166
100110
100173
100107
100129
100165
100059
100144
100180
100136
100194
101003
100867
100936
101084
100859
101082
101013
100983
100836
100903
101047
100811
101013
101045
100997
100928
100832
101067
100844
101077
100996
100369
100417
100293
100172
100396
100166
100363
100329
100299
100389
100177
100375
100155
100275
100971
100918
100828
101087
100829
101073
100955
100164
100371
100293
100238
100259
100274
100214
100118
100254
100215
100140
100198
100167
100105
100621
100730
100634
100663
100720
100628
100637
100580
100702
100650
100555
100708
100543
100603
100179
100186
100171
100029
100099
100117
100264
100068
100021
100007
100098
100023
100047
100077
100504
100696
100520
100593
100520
100665
100496
100491
100668
100598
100509
100664
100508
100500
100074
100033
100142
100157
100059
100056
100179
100080
100127
100185
100232
100095
100173
100129
100335
100408
100210
100333
100419
100299
100265
100184
100208
100156
100209
100159
100027
100098
100117
100337
100317
100399
100274
100418
100290
100323
99821.1
100001
99899.2
99418.9
100111
99697.5
99533.7
99553.3
99389
99444.2
99505
99944.3
100007
100321
99674.7
99980.3
100246
99624.7
99544.7
99578.7
99610.4
99476
100840
100580
100673
100447
100599
100823
100700
101037
101339
101342
101052
101030
101322
101327
101013
100852
100452
100634
100692
100618
100707
100846
100272
100307
101036
100558
100465
100742
100712
100853
100774
101085
101323
100966
101074
101122
101395
101116
100870
101064
100460
100720
100679
100922
100716
100789
100057
100076
100411
100742
100372
100818
100767
100361
100413
100318
100269
100232
100328
100279
100081
100163
100216
100417
100821
100765
100448
100769
100420
100462
100264
100724
100334
100775
100318
100702
100289
100099
99917.1
99818.4
100450
100099
100053
100181
99981.6
100328
100773
100752
99944.9
100709
100341
100627
101416
101235
101402
101179
101233
101401
101411
101473
101437
101446
101456
101468
101434
101436
101460
101421
101190
101237
101405
101237
101409
101399
100968
100980
101409
101237
101213
101413
101234
101416
101399
101437
101427
101393
101403
101402
101223
101253
101407
101232
101396
101376
101451
101454
101473
101427
100993
101002
100181
100352
100135
100207
100243
100310
100053
99891.9
99547.4
99592.1
99737.8
100013
99989.8
100075
99931.3
100148
100138
100335
99895.2
100092
100267
99990.6
100284
100259
100159
100255
100168
100260
100261
100150
100162
100145
100238
100230
100165
100136
100194
100131
100214
100163
100253
100263
100158
100266
100150
100178
100209
100154
100147
100233
100225
100156
100228
100137
100163
100092
100087
100108
100096
100151
100186
100193
100147
100207
100162
100162
100092
100140
100093
100114
100239
100614
100604
99989.3
100652
100234
99972.6
99939.3
99653.8
99678.6
100096
100178
100810
100805
100633
100716
100411
100269
100110
99836.3
99863.4
100102
100119
100633
100239
100702
100150
100632
100168
99887.8
99696.6
99644.2
99940.1
99908.3
99723.9
99982.6
99640
100131
100613
100645
100156
100623
100068
100220
101504
101245
101278
101531
101181
101331
101468
102322
101378
101081
101248
101343
101207
101283
101773
101149
101328
101250
101620
101710
101133
101587
101182
101046
101638
101213
101580
101146
101186
101366
101483
101525
101404
101482
101427
101494
101507
101507
101480
101608
101197
101172
101548
101088
101577
101310
101041
101029
99832.2
100011
99408.3
99839.4
99724.3
100099
99476.2
99502.9
99577.8
99500.5
99594.9
99495.1
99516.3
99468.2
99466.8
99815.1
99850.2
100035
99490.8
100076
99496
99813
99925.7
100006
100128
100061
100132
100065
100158
100104
100103
100139
100078
100115
100098
100164
100111
100193
100154
100158
100193
100137
100132
100109
100117
100107
99839
99874
100041
100099
100031
99996.7
100074
100083
100009
100059
100104
100095
100081
100075
100105
100104
100096
100023
100011
100080
100045
100066
100025
100046
100168
100172
100837
100618
100650
100419
100818
100653
100667
101021
101323
101023
101306
101031
101343