/*--------------------------------*- C++ -*----------------------------------*\
| =========                 |                                                 |
| \\      /  F ield         | OpenFOAM: The Open Source CFD Toolbox           |
|  \\    /   O peration     | Version:  4.1                                   |
|   \\  /    A nd           | Web:      www.OpenFOAM.org                      |
|    \\/     M anipulation  |                                                 |
\*---------------------------------------------------------------------------*/
FoamFile
{
    version     2.0;
    format      ascii;
    class       volVectorField;
    location    "51";
    object      U;
}
// * * * * * * * * * * * * * * * * * * * * * * * * * * * * * * * * * * * * * //

dimensions      [0 1 -1 0 0 0 0];

internalField   nonuniform List<vector> 
4432
(
(39.9813 0.000311566 0.050875)
(39.9192 0.00082308 0.0913923)
(39.8285 0.00178163 0.12142)
(39.7033 0.00206082 0.150716)
(39.535 0.00180432 0.180986)
(39.3264 0.00159632 0.212305)
(39.082 0.00165464 0.244916)
(38.8014 0.00192858 0.278402)
(38.4801 0.00231459 0.31301)
(38.1142 0.00269036 0.348507)
(37.7019 0.0030243 0.383381)
(37.2451 0.00337276 0.418342)
(36.7508 0.00364224 0.447055)
(36.2383 0.00393616 0.469305)
(35.7212 0.00221173 0.464244)
(35.3124 -0.00254535 0.411217)
(34.9762 0.000203143 0.455157)
(34.8708 0.00434457 0.359195)
(34.9831 0.00534255 0.256113)
(34.9976 0.00732272 0.371633)
(34.7907 0.00147858 0.462211)
(34.4556 -0.00972086 0.590183)
(34.0129 -0.0215089 0.674739)
(33.4951 -0.0304087 0.676272)
(32.9015 -0.0364116 0.671161)
(32.2587 -0.041732 0.556379)
(31.6578 -0.0384285 0.361806)
(31.1359 -0.0237346 0.150242)
(30.7401 -0.0105554 0.0590773)
(30.46 -0.0107004 0.0590212)
(30.2621 -0.0222712 0.165514)
(30.0611 -0.0390116 0.379635)
(29.8019 -0.047865 0.406487)
(29.6703 -0.0232715 -0.04948)
(29.803 0.0197684 -0.884578)
(30.1316 0.0472955 -1.31134)
(30.6667 0.0506701 -1.20842)
(30.9822 -0.0466618 -1.13705)
(30.9934 -0.0325657 -0.962016)
(31.0448 0.0781609 -0.702593)
(31.2979 0.126115 -0.607694)
(31.4498 0.107941 -0.643067)
(31.4862 0.0344054 -0.584189)
(31.3301 -0.00782195 -0.528821)
(31.1861 0.011282 -0.502716)
(30.9072 0.109585 -0.576476)
(30.7114 0.117619 -0.436916)
(31.0755 -0.120198 -0.568892)
(30.9973 -0.174996 -0.745795)
(30.6221 -0.218601 -0.917748)
(30.8542 -0.01961 -0.639085)
(32.4523 -0.00441913 -1.67629)
(34.2906 -0.100787 -2.77835)
(36.949 0.174729 -1.32826)
(39.9819 0.000311565 0.050875)
(39.9198 0.000823096 0.0914363)
(39.8287 0.00178139 0.121531)
(39.7023 0.00206066 0.150741)
(39.5335 0.00180466 0.180859)
(39.3253 0.0015977 0.212162)
(39.0813 0.00165596 0.244732)
(38.8008 0.00192956 0.278309)
(38.4794 0.00231428 0.313185)
(38.113 0.00268809 0.348879)
(37.7 0.00302113 0.3843)
(37.2427 0.00336976 0.419314)
(36.7481 0.0036395 0.449214)
(36.2312 0.00393585 0.470421)
(35.7151 0.00221087 0.472183)
(35.2585 -0.00254018 0.422316)
(34.92 0.000216908 0.402613)
(34.8593 0.00430142 0.311014)
(34.9774 0.00546365 0.243843)
(35.0213 0.00726896 0.380794)
(34.8176 0.00136167 0.447868)
(34.478 -0.00973496 0.507615)
(34.0455 -0.021592 0.557389)
(33.5268 -0.0309184 0.559403)
(32.9182 -0.0372184 0.557778)
(32.2447 -0.0431892 0.431365)
(31.5968 -0.0415354 0.250901)
(31.0453 -0.0279141 0.121433)
(30.6043 -0.0156176 0.0310555)
(30.2735 -0.0174281 -0.0963851)
(30.1208 -0.0303264 -0.262621)
(30.0888 -0.0505013 -0.331507)
(30.0562 -0.0609116 -0.232387)
(30.0311 -0.0376171 -0.15351)
(30.1783 0.0127146 -0.471885)
(30.4541 0.0529738 -0.786055)
(30.8827 0.0622371 -0.72235)
(31.1442 -0.037413 -0.671901)
(31.3607 -0.0569274 -0.562107)
(31.4359 0.0477926 -0.449213)
(31.5737 0.129319 -0.375461)
(31.646 0.138173 -0.369751)
(31.7174 0.0655034 -0.295349)
(31.6506 0.0224154 -0.255986)
(31.661 0.0450516 -0.30298)
(31.3781 0.140541 -0.527295)
(30.8252 0.166333 -0.376531)
(31.1642 -0.0927918 -0.220878)
(31.2333 -0.150468 -0.301229)
(31.0359 -0.152888 -0.404188)
(31.3931 0.0187042 -0.632052)
(32.648 0.018202 -1.37216)
(34.4205 -0.08468 -2.58094)
(37.7942 0.175032 -1.23408)
(40.0082 0.000314164 0.0188915)
(40.0381 0.000810252 0.0580883)
(40.077 0.00177856 0.0991838)
(40.1171 0.00207036 0.140471)
(40.1499 0.00181892 0.181809)
(40.1778 0.00161495 0.223779)
(40.2054 0.00171949 0.266876)
(40.2329 0.00212561 0.311598)
(40.2574 0.00272903 0.358512)
(40.2764 0.00340902 0.407923)
(40.2877 0.00406571 0.459522)
(40.2881 0.00455887 0.511458)
(40.2762 0.00524096 0.560573)
(40.2324 0.00521034 0.59647)
(40.1695 0.00996389 0.619788)
(39.9064 0.0115864 0.609045)
(39.6432 0.0120332 0.480248)
(38.9616 0.0118959 0.390943)
(37.9988 0.00172583 0.402218)
(37.1691 -0.00166542 0.440185)
(36.4498 0.000709069 0.501783)
(35.8189 0.00391328 0.58972)
(35.2813 0.00718293 0.685574)
(34.7693 0.0105051 0.794189)
(34.2753 0.0124707 0.883298)
(33.7905 0.0147015 0.905526)
(33.3014 0.0182216 0.869981)
(32.7846 0.0281578 0.812293)
(32.1743 0.048319 0.722457)
(31.5369 0.058754 0.588507)
(30.9095 0.0617352 0.441567)
(30.2842 0.0602763 0.36789)
(29.842 0.054632 0.258821)
(29.6812 0.0469005 0.0704107)
(29.8251 0.0342517 -0.022481)
(30.0924 0.00439741 0.0849652)
(30.4068 -0.0470659 0.335516)
(30.5138 -0.0788392 0.449654)
(30.554 -0.0569655 0.487429)
(30.6215 -0.0352572 0.37335)
(30.7057 -0.065444 0.108368)
(30.7219 -0.139763 0.0412119)
(30.6221 -0.211615 0.0915113)
(30.3072 -0.249505 0.149936)
(29.9847 -0.289849 0.189753)
(29.7153 -0.302114 0.0459453)
(29.365 -0.318214 0.238108)
(29.5129 -0.316468 -0.0564762)
(28.8519 -0.299632 -0.406483)
(29.205 -0.394184 -0.771812)
(28.7224 -0.275984 -0.617514)
(27.3262 0.0792209 -1.83015)
(31.9312 0.285136 -3.12459)
(34.6735 0.0933366 -6.15582)
(40.0087 0.000314159 0.018882)
(40.0387 0.000810282 0.0581018)
(40.0773 0.00177861 0.0991578)
(40.1161 0.00207047 0.140376)
(40.1483 0.0018191 0.181674)
(40.1765 0.00161526 0.223667)
(40.2047 0.00171991 0.266896)
(40.2328 0.00212657 0.311855)
(40.2579 0.00272818 0.35913)
(40.2773 0.00341228 0.408874)
(40.2889 0.00405846 0.460762)
(40.2897 0.00456796 0.513004)
(40.2769 0.00520905 0.561699)
(40.2398 0.00535045 0.599785)
(40.1662 0.00937886 0.614296)
(39.9996 0.0117329 0.584395)
(39.7065 0.0129746 0.493305)
(38.9986 0.0123008 0.37381)
(38.015 0.00182401 0.383592)
(37.1633 -0.00146169 0.429614)
(36.4639 0.000835525 0.481371)
(35.8391 0.00407293 0.559128)
(35.3031 0.00747355 0.639352)
(34.8015 0.0111466 0.730043)
(34.3209 0.0134161 0.810696)
(33.8644 0.0163875 0.830388)
(33.4017 0.0219124 0.824633)
(32.9037 0.0318493 0.807924)
(32.3805 0.0471505 0.725712)
(31.8866 0.0630007 0.552001)
(31.3427 0.077791 0.373018)
(30.6821 0.0920855 0.263922)
(30.1322 0.0843452 0.133693)
(29.9274 0.0698285 -0.0231946)
(30.0754 0.0458144 -0.13651)
(30.3512 0.0178305 -0.0901691)
(30.7626 -0.0431946 0.0625588)
(30.9752 -0.0832455 0.18899)
(31.0456 -0.0743255 0.216909)
(30.9934 -0.0439939 0.142099)
(31.1575 -0.0233805 0.0192917)
(31.2582 -0.075257 0.0354191)
(31.2563 -0.155273 0.156786)
(31.0218 -0.202237 0.222812)
(30.7808 -0.258328 0.179604)
(30.599 -0.277007 -0.107601)
(30.311 -0.289894 -0.0163827)
(30.3693 -0.292215 0.0188182)
(30.3045 -0.292335 -0.245093)
(30.0524 -0.366172 -1.00101)
(29.2395 -0.158056 -0.876471)
(29.1826 0.0961372 -2.01513)
(33.2611 0.22068 -2.56676)
(35.9736 0.0066282 -5.192)
(39.9995 0.00030921 0.0261319)
(39.9919 0.000801789 0.0750484)
(39.9735 0.00175327 0.121019)
(39.9399 0.00203276 0.165132)
(39.8843 0.00178915 0.209022)
(39.8099 0.00162397 0.253812)
(39.7219 0.00179611 0.300181)
(39.6214 0.00229044 0.348637)
(39.5066 0.00298543 0.399608)
(39.3756 0.00373594 0.453214)
(39.2273 0.00439948 0.509186)
(39.0622 0.00491734 0.566677)
(38.8793 0.0051934 0.624715)
(38.6799 0.00562828 0.681239)
(38.4516 0.00571057 0.739856)
(38.2331 0.00753812 0.809336)
(37.9367 0.00805931 0.848923)
(37.5616 0.00773335 0.94592)
(37.2186 0.00348385 1.11382)
(36.803 0.00215263 1.2245)
(36.3193 0.00319211 1.26463)
(35.8149 0.00512175 1.27366)
(35.3269 0.00792419 1.29785)
(34.8402 0.0126682 1.34175)
(34.3523 0.0157226 1.38784)
(33.8597 0.0209211 1.38002)
(33.3285 0.0320377 1.32081)
(32.7199 0.0488607 1.28297)
(31.9743 0.0647184 1.19283)
(31.1022 0.0591123 1.1155)
(30.0517 0.0510857 1.151)
(28.93 0.0689809 1.13011)
(28.0676 0.125543 0.83624)
(27.4136 0.223893 0.220273)
(27.2618 0.279889 -0.847451)
(27.9633 0.0696498 -0.848329)
(28.2629 -0.174147 -0.344797)
(28.3162 -0.299486 0.0697889)
(28.109 -0.348283 0.338253)
(28.1166 -0.184311 -0.112448)
(28.2873 -0.12382 -0.444551)
(28.429 -0.197821 -0.23282)
(28.3459 -0.259599 -0.00751657)
(28.1244 -0.298778 0.0158359)
(27.8389 -0.325249 0.0586006)
(27.6326 -0.305138 0.0419722)
(27.253 -0.315221 0.0841013)
(27.1328 -0.254428 -0.137757)
(26.9662 -0.279074 -0.490756)
(27.0934 -0.278226 -1.16734)
(27.8534 -0.148458 -1.26935)
(29.0262 -0.106458 -1.56088)
(28.2871 0.349882 -5.15408)
(24.5768 0.679647 -8.92723)
(40 0.000309205 0.0261222)
(39.9925 0.00080182 0.0750283)
(39.9737 0.00175332 0.120962)
(39.9389 0.00203286 0.165054)
(39.8828 0.0017893 0.208948)
(39.8088 0.00162421 0.253764)
(39.7215 0.00179648 0.300176)
(39.6215 0.00229102 0.348689)
(39.5069 0.00298645 0.399726)
(39.3759 0.00373722 0.453375)
(39.2274 0.00440032 0.509357)
(39.0619 0.0049194 0.566812)
(38.8793 0.00519466 0.624529)
(38.6788 0.00563453 0.680801)
(38.4568 0.00570086 0.736339)
(38.2121 0.00752465 0.799172)
(37.9379 0.00722778 0.869103)
(37.5742 0.00811402 0.953094)
(37.2203 0.00374246 1.10578)
(36.8115 0.00226881 1.20903)
(36.3353 0.00331839 1.24424)
(35.8385 0.005311 1.24535)
(35.36 0.00827868 1.25798)
(34.8763 0.0135968 1.3115)
(34.3837 0.0171649 1.36146)
(33.8936 0.0229319 1.35663)
(33.3697 0.0353799 1.32916)
(32.7919 0.0533764 1.31926)
(32.1417 0.069934 1.26756)
(31.3629 0.073547 1.15772)
(30.2684 0.0646802 1.20016)
(29.1403 0.0778707 1.20956)
(28.3249 0.14452 0.884822)
(28.0015 0.222123 0.277882)
(28.1418 0.209746 -0.333449)
(28.6483 0.0820131 -0.584569)
(29.1027 -0.0901517 -0.489925)
(29.217 -0.241632 -0.389242)
(29.1759 -0.313952 -0.396749)
(29.0698 -0.229409 -0.570171)
(29.257 -0.142419 -0.74475)
(29.2402 -0.151257 -0.619905)
(29.1369 -0.210769 -0.473267)
(28.7736 -0.229286 -0.450835)
(28.4569 -0.274242 -0.417739)
(28.2622 -0.263369 -0.467833)
(27.9926 -0.282297 -0.550346)
(27.8527 -0.223916 -0.653054)
(27.4583 -0.268808 -1.17638)
(27.4061 -0.206945 -1.72286)
(28.0519 -0.135106 -1.72637)
(29.2071 -0.0697545 -1.93008)
(30.7369 -0.0682664 -1.40252)
(25.7886 0.767579 -8.37955)
(39.9992 0.000304886 0.0331996)
(39.9907 0.000790941 0.0979459)
(39.9726 0.00172204 0.163214)
(39.9404 0.00198911 0.229597)
(39.8862 0.00173552 0.297747)
(39.812 0.00155357 0.368027)
(39.7221 0.00170192 0.440584)
(39.6168 0.00217019 0.515474)
(39.4931 0.00284309 0.592712)
(39.348 0.00357482 0.672188)
(39.1792 0.0042288 0.753684)
(38.9856 0.00471843 0.83697)
(38.7664 0.00496476 0.922028)
(38.5223 0.00516426 1.0098)
(38.2507 0.00496351 1.10367)
(37.9657 0.00643749 1.20635)
(37.6502 0.00559948 1.35005)
(37.2305 0.00430575 1.41514)
(36.8838 0.00299692 1.46883)
(36.5327 0.00329571 1.55254)
(36.1423 0.00437844 1.63809)
(35.7242 0.00453491 1.69026)
(35.27 0.00453883 1.7426)
(34.7575 0.00608024 1.81313)
(34.2128 0.00562835 1.89803)
(33.6356 0.0073018 1.93298)
(32.9639 0.0172176 1.94973)
(32.1658 0.0283112 2.0648)
(31.1641 0.0281129 2.23424)
(29.7801 0.0277538 2.42961)
(28.1892 0.0330628 2.59522)
(26.8442 0.0519083 2.35263)
(25.8121 0.0988437 1.59777)
(25.1658 0.174453 0.129531)
(25.5639 0.168373 -1.54849)
(26.3007 -0.108004 -1.03151)
(26.5441 -0.411636 0.058693)
(26.3103 -0.697142 0.532244)
(25.9217 -0.620936 0.880808)
(26.0012 -0.234122 0.00434365)
(26.1344 -0.12572 -0.338677)
(26.344 -0.229089 0.165116)
(26.1573 -0.31098 0.705175)
(25.8121 -0.321479 0.719687)
(25.5248 -0.278412 0.625986)
(25.169 -0.266869 0.653404)
(24.6897 -0.347948 0.36766)
(24.2982 -0.218834 0.232079)
(24.1297 -0.262581 0.057263)
(23.698 -0.31064 -0.727306)
(24.4404 -0.235661 -2.10059)
(25.1858 -0.243546 -2.89692)
(25.5051 0.0480726 -3.05114)
(20.3458 1.39411 -3.66908)
(39.9997 0.000304881 0.0331935)
(39.9913 0.000790971 0.0979278)
(39.9728 0.0017221 0.163174)
(39.9394 0.00198921 0.229541)
(39.8847 0.00173568 0.297681)
(39.8109 0.00155381 0.367944)
(39.7216 0.00170228 0.440472)
(39.6168 0.00217074 0.515323)
(39.4934 0.00284394 0.592521)
(39.3482 0.00357592 0.671956)
(39.1792 0.00423035 0.753421)
(38.9851 0.00472036 0.836661)
(38.7657 0.00496616 0.921673)
(38.5208 0.00516978 1.00919)
(38.2518 0.0049598 1.10275)
(37.9617 0.00649987 1.20548)
(37.6658 0.00553485 1.34439)
(37.2472 0.00439946 1.44385)
(36.8916 0.00304761 1.47238)
(36.5444 0.00335651 1.53912)
(36.1565 0.00457463 1.6165)
(35.739 0.00486005 1.66214)
(35.2705 0.00477881 1.71361)
(34.7492 0.00582536 1.8196)
(34.2165 0.00534953 1.90471)
(33.6347 0.00697915 1.95241)
(32.9431 0.0188262 2.04207)
(32.1305 0.0314151 2.2147)
(31.1468 0.0306463 2.41443)
(29.7917 0.0299943 2.60814)
(28.2792 0.0335244 2.71486)
(27.0236 0.0500679 2.51546)
(26.046 0.0955456 1.97238)
(25.3797 0.193299 0.890559)
(25.7417 0.203025 -0.764467)
(26.6455 -0.101953 -1.20293)
(27.2265 -0.41665 -0.975275)
(27.3423 -0.811053 -0.656803)
(27.0271 -1.05025 -0.168749)
(26.8983 -0.841084 -0.461981)
(27.0158 -0.261494 -0.795312)
(27.0888 -0.229363 -0.583818)
(26.818 -0.246273 -0.199334)
(26.3761 -0.279743 -0.203172)
(26.2507 -0.232457 -0.305729)
(25.7336 -0.21856 -0.295773)
(25.4612 -0.230841 -0.531701)
(25.1063 -0.137453 -0.781148)
(24.8685 -0.169137 -1.01319)
(24.5553 -0.203869 -1.81888)
(24.4373 -0.186729 -2.72067)
(24.9251 -0.0363161 -3.1748)
(26.0329 -0.545993 -3.35876)
(24.2752 1.48962 -4.94044)
(39.9993 0.000303362 0.0410708)
(39.9909 0.000786008 0.121995)
(39.9733 0.0017149 0.204007)
(39.9419 0.00197502 0.286824)
(39.889 0.00171681 0.370845)
(39.8167 0.00153022 0.456745)
(39.7295 0.00167105 0.545084)
(39.6276 0.00212875 0.636299)
(39.5082 0.00278878 0.730753)
(39.3682 0.00350499 0.828743)
(39.2053 0.00414286 0.930524)
(39.0184 0.00461489 1.03639)
(38.8073 0.00485638 1.14689)
(38.572 0.00498997 1.2633)
(38.3157 0.0050088 1.38784)
(38.0357 0.00555329 1.52331)
(37.7583 0.00643717 1.67332)
(37.4009 0.00882918 1.80256)
(36.9609 0.00524702 1.87984)
(36.5472 0.00538943 1.935)
(36.1291 0.00685419 2.01869)
(35.684 0.00568111 2.10841)
(35.192 0.00242443 2.25688)
(34.6073 -0.000881976 2.39962)
(33.964 -0.00788533 2.53444)
(33.2334 -0.0104698 2.64393)
(32.3271 -0.000485499 2.77764)
(31.2853 0.00993251 3.11711)
(30.0379 0.00757999 3.61321)
(28.5233 0.00886408 4.03074)
(27.0257 0.0227927 4.03987)
(25.7348 0.0552803 3.45468)
(24.6226 0.116101 2.15578)
(23.8886 0.230002 -0.129809)
(24.2957 0.334229 -2.41801)
(23.6861 -0.076445 -1.60623)
(23.9953 -0.666569 1.49733)
(23.9476 -0.99935 2.54782)
(23.8326 -1.16344 2.74672)
(23.492 -0.341288 0.56733)
(23.151 -0.102132 -0.235381)
(23.5028 -0.328173 0.496887)
(23.1735 -0.439239 0.971597)
(22.9121 -0.425792 0.880769)
(22.6741 -0.343057 0.642016)
(22.2298 -0.230808 0.504499)
(21.9888 -0.0619595 0.165741)
(21.8488 0.0026012 -0.114834)
(20.9651 -0.340019 -0.0649316)
(21.249 -0.274759 -0.319321)
(20.0104 -0.229187 -0.926985)
(18.3555 0.833798 -2.05686)
(20.9299 -0.0162067 -1.81158)
(15.3116 -0.119646 -0.684591)
(39.9998 0.000303357 0.0410626)
(39.9915 0.000786038 0.121976)
(39.9735 0.00171495 0.203963)
(39.9409 0.00197512 0.286778)
(39.8875 0.00171696 0.37082)
(39.8156 0.00153045 0.456733)
(39.729 0.00167141 0.545061)
(39.6276 0.00212931 0.636236)
(39.5085 0.00278959 0.730622)
(39.3685 0.00350617 0.82852)
(39.2053 0.00414404 0.930195)
(39.0179 0.00461795 1.03596)
(38.8065 0.00486259 1.1464)
(38.5711 0.00499573 1.26275)
(38.3149 0.00503053 1.38734)
(38.0368 0.00551323 1.52275)
(37.7514 0.00646573 1.67324)
(37.4102 0.00822914 1.8247)
(37.0003 0.00468976 1.88447)
(36.5828 0.00564175 1.9277)
(36.1564 0.00762009 2.0091)
(35.6958 0.0072114 2.10858)
(35.1488 0.002728 2.2504)
(34.5616 -0.001123 2.39148)
(33.9341 -0.00814935 2.52133)
(33.1551 -0.0110468 2.66567)
(32.2471 0.00049002 2.89429)
(31.2525 0.0111671 3.27389)
(30.0617 0.00832153 3.7205)
(28.6354 0.00828554 4.09053)
(27.2066 0.0206338 4.09375)
(25.9793 0.0514821 3.60174)
(25.0343 0.104465 2.56134)
(24.5505 0.228088 0.722517)
(25.1277 0.475614 -1.59343)
(26.0536 0.233104 -2.42276)
(27.2791 0.117 -2.53506)
(27.6689 0.110695 -2.16421)
(27.3142 -0.0705048 -1.50634)
(26.7178 0.0163137 -1.33068)
(25.366 0.0381804 -0.976169)
(25.2165 -0.170691 -0.624893)
(24.7309 -0.22256 -0.353479)
(24.474 -0.213 -0.549005)
(24.2179 -0.133168 -0.770515)
(23.7893 0.0107154 -0.964293)
(23.3962 0.243949 -1.15686)
(22.9802 0.322984 -1.22876)
(22.4986 0.244091 -0.965373)
(21.733 0.0860795 -1.56068)
(19.5598 0.311539 -2.27434)
(19.481 0.668758 -2.30081)
(21.738 0.102411 -1.39122)
(17.3266 0.569953 -1.86884)
(39.9993 0.000296914 0.0488497)
(39.9912 0.000775124 0.145223)
(39.9742 0.00168023 0.24298)
(39.9442 0.00194276 0.34201)
(39.8935 0.00170479 0.442992)
(39.8244 0.00153229 0.546827)
(39.741 0.00166833 0.65415)
(39.6434 0.00209918 0.765365)
(39.5289 0.00270992 0.880779)
(39.3941 0.00335761 1.00068)
(39.2367 0.0039134 1.12535)
(39.056 0.00430429 1.25521)
(38.8523 0.00449759 1.39091)
(38.6266 0.00457675 1.53355)
(38.3811 0.00460995 1.68479)
(38.1197 0.00505599 1.84652)
(37.8451 0.00595184 2.018)
(37.5708 0.00785055 2.20587)
(37.2202 0.0100144 2.35075)
(36.8143 0.0112104 2.44088)
(36.3622 0.0119914 2.50579)
(35.7977 0.00672352 2.61826)
(35.2197 -0.00100978 2.81407)
(34.6135 -0.00862449 3.05774)
(33.9047 -0.0202747 3.31716)
(33.0337 -0.0222544 3.59081)
(31.8933 -0.00704655 3.86198)
(30.6586 0.0125789 4.33091)
(29.3899 0.0161468 4.97039)
(27.9935 0.0192784 5.4411)
(26.5662 0.0401201 5.37015)
(25.1463 0.0945058 4.63209)
(23.5074 0.214489 3.13843)
(22.004 0.564213 0.573931)
(21.11 1.10027 -1.27888)
(4.52391 0.0739102 1.68852)
(10.0561 -0.449421 0.954004)
(9.45461 -0.771164 0.657836)
(11.5123 -1.68591 2.7538)
(14.0187 -0.593212 -1.13782)
(16.8827 -0.14552 -0.362063)
(16.8643 -0.655565 1.97586)
(17.1905 -0.626684 2.00805)
(17.6251 -0.527583 1.47637)
(17.8999 -0.394655 0.961103)
(17.5591 -0.373556 0.712574)
(17.2608 -0.128957 0.725672)
(16.8466 0.112795 0.657454)
(16.462 0.2203 0.520352)
(14.9561 0.256958 0.171437)
(12.7322 0.261234 -0.208635)
(11.8201 0.45197 -0.768342)
(15.7541 -0.0492936 -1.35507)
(13.6906 -0.681376 -4.94233)
(39.9998 0.000296908 0.0488397)
(39.9918 0.00077516 0.145202)
(39.9744 0.00168026 0.242936)
(39.9432 0.00194299 0.341974)
(39.8921 0.00170434 0.44299)
(39.8233 0.00153068 0.546846)
(39.7405 0.00166654 0.654154)
(39.6434 0.00209753 0.765313)
(39.5291 0.00270853 0.880632)
(39.3941 0.00335658 1.0004)
(39.2365 0.00391251 1.12494)
(39.0555 0.00430432 1.25467)
(38.8514 0.00450372 1.39033)
(38.6256 0.0045824 1.53294)
(38.3806 0.00463823 1.6844)
(38.1189 0.00498706 1.84596)
(37.8459 0.00604115 2.01821)
(37.568 0.00770384 2.20002)
(37.258 0.00703875 2.33937)
(36.8661 0.0115643 2.46731)
(36.4066 0.0146277 2.56529)
(35.867 0.00887353 2.69408)
(35.2397 -0.000764668 2.84986)
(34.5791 -0.0086314 3.05517)
(33.8331 -0.0209215 3.29225)
(32.9105 -0.022007 3.5787)
(31.8312 -0.00635517 3.91159)
(30.7203 0.0114872 4.42109)
(29.5084 0.0139886 4.99484)
(28.1557 0.016809 5.43112)
(26.8037 0.0373008 5.39524)
(25.5512 0.0880977 4.78173)
(24.3912 0.199744 3.55844)
(23.5527 0.686941 1.50615)
(24.331 2.42956 -1.07852)
(25.4778 3.83962 -3.04387)
(26.3938 3.44139 -2.80589)
(25.5248 3.02475 -2.13222)
(24.4665 2.72361 -1.31941)
(23.8302 2.29257 -0.678018)
(21.1165 0.878186 -0.043395)
(20.7373 0.648972 0.332783)
(20.2764 0.663879 0.226162)
(20.1138 0.746761 -0.19454)
(19.7812 0.865077 -0.610725)
(19.1498 0.902641 -0.909368)
(18.5402 1.17947 -1.17096)
(17.8393 1.42253 -1.06606)
(17.017 1.5361 -0.577597)
(15.4991 1.531 -0.111633)
(14.7363 1.39335 -0.191453)
(12.5603 1.74241 -1.58703)
(17.7651 1.41954 1.57313)
(8.87966 1.16166 -1.91957)
(39.9993 0.000293752 0.056335)
(39.9917 0.000768372 0.167607)
(39.9758 0.00167323 0.280616)
(39.9477 0.00193854 0.395367)
(39.8998 0.00170876 0.512566)
(39.8342 0.00153858 0.633086)
(39.7549 0.00166301 0.757556)
(39.6618 0.00206638 0.886422)
(39.5522 0.00263598 1.02011)
(39.4227 0.00323334 1.15907)
(39.2712 0.00373749 1.30384)
(39.097 0.00408729 1.45504)
(38.9008 0.00427669 1.61342)
(38.684 0.00438674 1.7799)
(38.4488 0.00454077 1.95541)
(38.1987 0.0049515 2.14093)
(37.9345 0.00573029 2.33439)
(37.662 0.00722866 2.53909)
(37.3725 0.0103232 2.72599)
(37.0465 0.0125945 2.9126)
(36.6597 0.0119506 3.09206)
(36.1641 0.00494545 3.31768)
(35.5705 -0.000762709 3.493)
(34.8764 -0.0126756 3.76281)
(34.1457 -0.0317914 4.19547)
(33.2422 -0.0394311 4.72079)
(32.0251 -0.00978214 5.18544)
(30.6426 0.0317026 5.63125)
(29.3142 0.0381138 6.24749)
(27.9424 0.0336807 6.77503)
(26.515 0.0587506 6.82161)
(24.9414 0.127252 6.25194)
(22.7456 0.31434 5.25769)
(21.0651 0.921137 4.01146)
(3.21477 0.587175 0.410398)
(2.39176 0.0196994 1.66504)
(2.62035 -0.463953 3.08631)
(-0.880508 0.0565471 -2.71321)
(3.76044 -0.783169 0.148324)
(-1.17162 -2.33587 -3.30862)
(7.7074 -1.21171 -1.71394)
(6.06755 -0.362026 -0.382927)
(5.32825 0.173362 0.4404)
(5.92302 0.31597 0.392528)
(6.68423 0.279329 0.155033)
(6.1974 -0.125947 -0.256666)
(5.69051 -0.565139 -0.279586)
(7.933 -0.575837 -1.96763)
(9.46722 -0.496483 -2.62259)
(11.0495 -0.546061 -3.31553)
(12.4671 -0.63306 -3.72981)
(13.9988 -0.492796 -4.29607)
(18.6738 0.0428091 -5.85681)
(19.3842 -0.637238 -8.36975)
(39.9998 0.000293746 0.0563235)
(39.9923 0.000768408 0.167581)
(39.976 0.00167325 0.280556)
(39.9467 0.00193878 0.395308)
(39.8984 0.00170832 0.512534)
(39.8331 0.00153694 0.633069)
(39.7543 0.00166114 0.757517)
(39.6617 0.00206458 0.886326)
(39.5523 0.00263446 1.01993)
(39.4227 0.00323169 1.15879)
(39.2709 0.00373763 1.30347)
(39.0965 0.00408956 1.4546)
(38.9 0.00427985 1.61298)
(38.6831 0.00439176 1.77952)
(38.4483 0.00455187 1.9552)
(38.1985 0.00495827 2.1405)
(37.9359 0.0057436 2.33417)
(37.6641 0.00731484 2.53499)
(37.3799 0.0101251 2.73282)
(37.063 0.0125065 2.93158)
(36.6697 0.0127149 3.13359)
(36.2276 0.00602577 3.34875)
(35.6051 -0.00294924 3.57192)
(34.8835 -0.0119802 3.81301)
(34.0769 -0.0323675 4.14693)
(33.0957 -0.0395014 4.63672)
(31.8812 -0.00738941 5.07688)
(30.7071 0.0277231 5.66044)
(29.4904 0.0348406 6.31102)
(28.1729 0.0295235 6.79533)
(26.8228 0.0556331 6.79207)
(25.4948 0.12058 6.26268)
(24.0926 0.339666 5.32266)
(22.8414 1.46008 4.19494)
(24.6391 4.23496 3.56192)
(3.36963 0.0196831 1.70166)
(7.79282 0.272217 0.441618)
(6.73383 1.09288 0.0642387)
(1.95129 0.687136 0.19893)
(1.52642 0.00858953 -0.644169)
(4.43017 0.280272 -0.0172093)
(4.64281 1.26045 0.663705)
(4.72174 1.72707 1.14927)
(4.93091 1.85501 1.19925)
(5.50954 1.90357 0.924571)
(5.48692 1.73862 0.42071)
(5.15907 1.57667 0.475954)
(4.2524 1.47064 1.84279)
(1.14091 1.67055 3.92333)
(0.229884 1.91377 3.2565)
(1.43305 2.1498 1.77155)
(4.07771 2.74636 0.0789136)
(9.56449 3.75413 -1.19376)
(10.3215 1.65294 -4.23146)
(39.9994 0.000285807 0.0634188)
(39.9923 0.000752004 0.188841)
(39.9779 0.00162309 0.316239)
(39.952 0.00188351 0.445737)
(39.9074 0.00166726 0.57813)
(39.8459 0.00150249 0.71439)
(39.7714 0.00161448 0.85528)
(39.6837 0.00198898 1.0014)
(39.5801 0.00251924 1.15336)
(39.4573 0.00307338 1.31176)
(39.3131 0.00354125 1.47726)
(39.147 0.00386763 1.6505)
(38.9595 0.00405949 1.83207)
(38.7521 0.00419734 2.02237)
(38.5265 0.00435119 2.22146)
(38.285 0.00473262 2.42888)
(38.0289 0.00529312 2.64302)
(37.7597 0.00633753 2.86274)
(37.4783 0.00705744 3.08454)
(37.1796 0.00721805 3.31107)
(36.8477 0.00565479 3.55382)
(36.4719 0.00420146 3.85046)
(36.0337 0.0075124 4.17184)
(35.412 -0.00734953 4.53703)
(34.6539 -0.0324782 5.09303)
(33.8813 -0.0467038 5.82473)
(32.8928 -0.0159147 6.45615)
(31.5492 0.046952 6.96475)
(30.0092 0.0744785 7.57717)
(28.4079 0.0574173 8.132)
(27.0147 0.057206 8.12684)
(25.6892 0.083845 7.67731)
(24.135 0.176286 7.4138)
(23.0598 0.722145 8.59639)
(19.8458 1.35422 12.1183)
(1.37239 0.0145434 1.72312)
(2.12486 -0.126925 -0.124934)
(0.432602 -0.708027 -1.62705)
(-0.839022 -1.07035 0.186075)
(2.95871 -2.85929 -2.1012)
(-0.215174 -2.68743 -3.21049)
(1.75097 -2.84222 -2.60141)
(3.28133 -2.41197 -1.69479)
(5.20844 -1.80456 -0.998437)
(7.58618 -1.66099 -1.47276)
(9.65156 -1.93817 -2.5651)
(11.9406 -1.90427 -3.62551)
(14.8432 -1.62524 -4.75788)
(17.6833 -1.29442 -5.78892)
(19.9715 -1.07291 -6.51236)
(21.3601 -1.03173 -6.90986)
(22.0084 -0.90765 -7.10205)
(24.5535 -0.557476 -7.59219)
(23.1402 -0.280474 -8.83325)
(39.9999 0.000285803 0.0634072)
(39.9929 0.00075203 0.188812)
(39.9781 0.00162314 0.316175)
(39.9511 0.0018836 0.445672)
(39.906 0.00166742 0.578089)
(39.8448 0.00150264 0.71436)
(39.7708 0.00161495 0.855228)
(39.6836 0.00198853 1.0013)
(39.5801 0.00251726 1.15318)
(39.4572 0.0030708 1.31151)
(39.3128 0.00354019 1.47694)
(39.1464 0.00386909 1.65015)
(38.9587 0.00406169 1.83171)
(38.7512 0.00420054 2.02205)
(38.526 0.00435442 2.22116)
(38.2848 0.00474004 2.42844)
(38.0293 0.00529848 2.64226)
(37.7605 0.00635478 2.86056)
(37.4776 0.00712199 3.08094)
(37.1767 0.00725306 3.30642)
(36.8436 0.0057281 3.5562)
(36.4758 0.00414691 3.84685)
(36.0495 0.008331 4.24481)
(35.4929 -0.00386739 4.56985)
(34.6356 -0.0365633 5.06004)
(33.7706 -0.0493612 5.68849)
(32.5596 -0.0228048 6.27362)
(31.2537 0.0332082 6.93739)
(30.078 0.0589856 7.59957)
(28.8152 0.040816 8.09975)
(27.4039 0.0488642 8.14268)
(26.0624 0.0805841 7.65383)
(24.8022 0.187107 7.13804)
(23.2477 0.946084 7.54553)
(25.0878 3.30967 10.5984)
(21.3121 2.93609 10.4555)
(18.2279 1.85587 7.52152)
(14.114 1.33369 4.53468)
(8.97037 0.934171 2.38371)
(4.46521 -0.117008 -0.220502)
(-8.04659 1.9275 2.08737)
(-4.04806 2.55825 2.11308)
(-3.95172 1.53508 0.144925)
(-1.57214 0.541269 -1.94431)
(0.0514495 1.16348 -1.23397)
(0.446543 1.00776 -0.394054)
(3.79308 0.670998 -1.33384)
(7.19356 1.15414 -2.29792)
(9.85912 1.51812 -3.19636)
(11.9901 1.64653 -3.68478)
(13.3953 1.35069 -3.90287)
(15.0452 1.07811 -4.16096)
(18.9511 1.1133 -4.6708)
(19.4903 0.697182 -5.20935)
(39.9995 0.000282675 0.0700054)
(39.9931 0.00074342 0.208658)
(39.9803 0.00161278 0.349465)
(39.9572 0.00187329 0.492729)
(39.9164 0.00166178 0.639393)
(39.8597 0.00149598 0.790563)
(39.7908 0.00159525 0.947137)
(39.7095 0.00194667 1.10986)
(39.613 0.00244805 1.27948)
(39.4981 0.00297334 1.45673)
(39.3625 0.00341786 1.64233)
(39.2055 0.00373083 1.83688)
(39.0274 0.00392063 2.04067)
(38.8293 0.00405095 2.25361)
(38.6125 0.0042154 2.47488)
(38.3784 0.00449953 2.70322)
(38.1284 0.00484008 2.93657)
(37.864 0.0053474 3.17355)
(37.5875 0.00575037 3.41291)
(37.3017 0.00613804 3.65969)
(37.0064 0.00622079 3.92638)
(36.703 0.00716017 4.25128)
(36.39 0.00860077 4.6588)
(36.0229 0.0193826 5.20624)
(35.3763 0.00756578 5.92524)
(34.7496 -0.0107624 6.70352)
(34.0397 -0.0139108 7.41181)
(32.9695 0.0131213 8.25615)
(31.6427 0.0663938 9.09155)
(30.0885 0.107295 9.68494)
(28.383 0.111181 9.47207)
(26.4853 0.119132 8.82898)
(24.9309 0.132149 8.5278)
(23.2571 0.289574 9.29824)
(25.088 0.964025 14.2868)
(20.7329 0.547157 12.7038)
(15.9702 -0.36677 7.9625)
(12.0714 -1.38355 3.64587)
(9.04849 -1.95762 0.578576)
(8.87481 -2.46871 -1.34895)
(10.4489 -3.00359 -2.37591)
(12.3668 -3.08568 -3.03684)
(13.8556 -2.80028 -3.41262)
(15.4308 -2.32936 -3.85954)
(17.1114 -1.87036 -4.61816)
(18.8599 -1.66309 -5.54033)
(20.6821 -1.43893 -6.3026)
(22.5243 -1.16838 -6.99844)
(24.1992 -0.901065 -7.57316)
(25.3558 -0.730551 -7.99603)
(25.8396 -0.643195 -8.20295)
(25.4688 -0.520109 -8.13143)
(26.7387 -0.149422 -8.18685)
(24.2307 0.348293 -8.43494)
(39.9999 0.00028267 0.0699935)
(39.9937 0.000743446 0.208628)
(39.9805 0.00161284 0.349395)
(39.9563 0.00187338 0.492654)
(39.915 0.00166193 0.639339)
(39.8586 0.00149616 0.790518)
(39.7902 0.0015958 0.947072)
(39.7093 0.00194635 1.10975)
(39.613 0.00244612 1.2793)
(39.498 0.00297098 1.45648)
(39.3622 0.00341598 1.64203)
(39.2049 0.00372721 1.83652)
(39.0267 0.00391772 2.04027)
(38.8285 0.00405146 2.25315)
(38.6118 0.00421316 2.47437)
(38.3779 0.00449549 2.70248)
(38.1281 0.00483985 2.93551)
(37.8638 0.00534786 3.17167)
(37.5872 0.00577319 3.41062)
(37.3008 0.00616264 3.65677)
(37.0053 0.0062466 3.92667)
(36.7037 0.0070629 4.24546)
(36.3896 0.00887687 4.66973)
(36.0732 0.0192554 5.17737)
(35.5125 -0.00255708 5.85018)
(34.8199 -0.0154448 6.61679)
(33.8184 -0.0226205 7.46973)
(32.4976 -0.00134452 8.22828)
(31.2045 0.0433645 8.87077)
(29.9763 0.0753654 9.41161)
(28.6954 0.0948584 9.62518)
(27.2298 0.0869181 9.09189)
(25.571 0.125647 8.45999)
(23.9223 0.178641 8.94367)
(24.1952 1.21103 11.5617)
(25.9756 1.76783 12.644)
(25.9533 1.65602 11.2102)
(24.1609 1.28694 8.74059)
(21.2311 1.05233 6.28203)
(18.541 0.542909 4.17754)
(14.2189 0.0686112 2.50004)
(11.3986 -0.131494 0.793784)
(8.65927 0.254487 -0.172492)
(8.67433 1.18342 -0.779031)
(9.62318 1.63743 -1.53138)
(11.4459 1.37604 -2.24377)
(14.4256 1.1043 -3.07443)
(17.6144 0.949271 -3.97671)
(20.2545 0.860815 -4.70363)
(22.0783 0.689931 -5.3049)
(23.0973 0.427658 -5.52295)
(23.8109 0.218336 -5.5288)
(25.616 0.313415 -5.43272)
(25.3491 0.473512 -6.28567)
(39.9996 0.000274541 0.0760103)
(39.994 0.000725349 0.226825)
(39.9832 0.00155685 0.379919)
(39.9633 0.00180849 0.535835)
(39.9269 0.00160804 0.695683)
(39.8757 0.00144699 0.860715)
(39.8133 0.00153521 1.03198)
(39.7394 0.00186119 1.21037)
(39.6512 0.00232897 1.3968)
(39.5454 0.00281979 1.59215)
(39.4197 0.00322987 1.79722)
(39.2729 0.00350577 2.01254)
(39.1049 0.00365094 2.2382)
(38.9162 0.00372073 2.47364)
(38.7074 0.00380591 2.71741)
(38.4793 0.00393901 2.96722)
(38.2333 0.00415789 3.22008)
(37.9722 0.00437625 3.47318)
(37.7017 0.00466303 3.72479)
(37.4307 0.00480503 3.9778)
(37.1775 0.00528878 4.24582)
(36.9451 0.00405344 4.56127)
(36.7723 0.00275211 4.98058)
(36.6209 0.0183604 5.55972)
(36.3121 0.0472691 6.43732)
(35.8279 0.050556 7.36525)
(35.0095 0.0230355 8.29977)
(34.0801 -0.00600657 9.37324)
(33.0629 -0.00691473 10.3316)
(31.9714 0.0348313 11.1162)
(30.6929 0.0715901 11.4734)
(28.9682 0.0934857 11.2264)
(26.8506 0.142993 10.326)
(24.6312 0.0775644 9.82759)
(24.5789 0.313576 11.457)
(25.7032 0.373341 12.2592)
(25.0844 -0.0629507 10.5775)
(23.3329 -0.720378 7.58538)