/*--------------------------------*- C++ -*----------------------------------*\
| =========                 |                                                 |
| \\      /  F ield         | OpenFOAM: The Open Source CFD Toolbox           |
|  \\    /   O peration     | Version:  4.1                                   |
|   \\  /    A nd           | Web:      www.OpenFOAM.org                      |
|    \\/     M anipulation  |                                                 |
\*---------------------------------------------------------------------------*/
FoamFile
{
    version     2.0;
    format      ascii;
    class       volScalarField;
    location    "100";
    object      p;
}
// * * * * * * * * * * * * * * * * * * * * * * * * * * * * * * * * * * * * * //

dimensions      [0 2 -2 0 0 0 0];

internalField   nonuniform List<scalar> 
4432
(
-3.87976e+10
-3.87713e+10
-3.88198e+10
-3.88288e+10
-3.88417e+10
-3.88636e+10
-3.88868e+10
-3.89116e+10
-3.89364e+10
-3.89602e+10
-3.89822e+10
-3.90012e+10
-3.90157e+10
-3.90241e+10
-3.90245e+10
-3.9015e+10
-3.89925e+10
-3.89543e+10
-3.88992e+10
-3.88262e+10
-3.87351e+10
-3.86271e+10
-3.85042e+10
-3.83702e+10
-3.82292e+10
-3.80865e+10
-3.79475e+10
-3.78178e+10
-3.77016e+10
-3.76019e+10
-3.75186e+10
-3.7449e+10
-3.73883e+10
-3.73304e+10
-3.72705e+10
-3.72068e+10
-3.71426e+10
-3.70874e+10
-3.70538e+10
-3.70524e+10
-3.70797e+10
-3.71007e+10
-3.7042e+10
-3.68414e+10
-3.65805e+10
-3.65732e+10
-3.70804e+10
-3.7571e+10
-3.65726e+10
-3.40053e+10
-3.47997e+10
-4.51538e+10
-5.54918e+10
-2.76342e+10
-3.88206e+10
-3.87849e+10
-3.88077e+10
-3.88291e+10
-3.88432e+10
-3.88638e+10
-3.88885e+10
-3.89139e+10
-3.89389e+10
-3.8963e+10
-3.89855e+10
-3.90052e+10
-3.90202e+10
-3.90291e+10
-3.90302e+10
-3.90218e+10
-3.90007e+10
-3.89639e+10
-3.89099e+10
-3.88377e+10
-3.87471e+10
-3.86392e+10
-3.8516e+10
-3.83813e+10
-3.82391e+10
-3.8095e+10
-3.79541e+10
-3.78224e+10
-3.7704e+10
-3.7602e+10
-3.75165e+10
-3.7445e+10
-3.73827e+10
-3.73237e+10
-3.72632e+10
-3.71997e+10
-3.71362e+10
-3.70819e+10
-3.70486e+10
-3.70465e+10
-3.70718e+10
-3.70894e+10
-3.70256e+10
-3.68187e+10
-3.6554e+10
-3.65587e+10
-3.71178e+10
-3.76825e+10
-3.65792e+10
-3.32927e+10
-3.27627e+10
-4.35694e+10
-5.81173e+10
-3.34991e+10
-3.88088e+10
-3.87923e+10
-3.88027e+10
-3.8828e+10
-3.88452e+10
-3.88646e+10
-3.88917e+10
-3.89209e+10
-3.89514e+10
-3.89823e+10
-3.90125e+10
-3.90416e+10
-3.90675e+10
-3.90875e+10
-3.90977e+10
-3.90954e+10
-3.90777e+10
-3.90424e+10
-3.89879e+10
-3.89125e+10
-3.88153e+10
-3.86973e+10
-3.85609e+10
-3.84108e+10
-3.82523e+10
-3.8092e+10
-3.79359e+10
-3.77909e+10
-3.76611e+10
-3.75499e+10
-3.74571e+10
-3.738e+10
-3.7314e+10
-3.72528e+10
-3.71918e+10
-3.7129e+10
-3.7067e+10
-3.7014e+10
-3.69805e+10
-3.69763e+10
-3.69962e+10
-3.70009e+10
-3.69078e+10
-3.66464e+10
-3.63089e+10
-3.62498e+10
-3.67454e+10
-3.7112e+10
-3.55487e+10
-3.1943e+10
-3.21149e+10
-4.39281e+10
-5.72031e+10
-3.31069e+10
-3.8806e+10
-3.87979e+10
-3.88132e+10
-3.88327e+10
-3.88503e+10
-3.88708e+10
-3.88988e+10
-3.89283e+10
-3.89591e+10
-3.899e+10
-3.90204e+10
-3.90497e+10
-3.90754e+10
-3.90949e+10
-3.91048e+10
-3.91027e+10
-3.90859e+10
-3.90514e+10
-3.89977e+10
-3.89225e+10
-3.8825e+10
-3.87063e+10
-3.85688e+10
-3.84174e+10
-3.82573e+10
-3.80955e+10
-3.79381e+10
-3.77918e+10
-3.76611e+10
-3.75494e+10
-3.74566e+10
-3.73801e+10
-3.73152e+10
-3.72554e+10
-3.7196e+10
-3.71351e+10
-3.70749e+10
-3.70232e+10
-3.69903e+10
-3.69857e+10
-3.70039e+10
-3.70049e+10
-3.69057e+10
-3.6636e+10
-3.62927e+10
-3.62456e+10
-3.67857e+10
-3.71773e+10
-3.54492e+10
-3.15566e+10
-3.25021e+10
-4.70025e+10
-5.91245e+10
-2.85134e+10
-3.87782e+10
-3.87951e+10
-3.87873e+10
-3.88079e+10
-3.88281e+10
-3.88499e+10
-3.88772e+10
-3.89086e+10
-3.89422e+10
-3.89765e+10
-3.90103e+10
-3.90431e+10
-3.90728e+10
-3.90958e+10
-3.91087e+10
-3.91097e+10
-3.90976e+10
-3.90698e+10
-3.90223e+10
-3.89521e+10
-3.88567e+10
-3.8736e+10
-3.85924e+10
-3.84309e+10
-3.8258e+10
-3.80817e+10
-3.79095e+10
-3.77485e+10
-3.7604e+10
-3.74792e+10
-3.73745e+10
-3.72874e+10
-3.7213e+10
-3.71455e+10
-3.70798e+10
-3.70139e+10
-3.69505e+10
-3.68973e+10
-3.68661e+10
-3.68678e+10
-3.68989e+10
-3.69167e+10
-3.68291e+10
-3.65549e+10
-3.6199e+10
-3.61759e+10
-3.68232e+10
-3.73773e+10
-3.57803e+10
-3.18643e+10
-3.1991e+10
-4.39896e+10
-5.58589e+10
-2.81296e+10
-3.87619e+10
-3.87885e+10
-3.87964e+10
-3.88091e+10
-3.88274e+10
-3.88508e+10
-3.8879e+10
-3.89104e+10
-3.89445e+10
-3.89794e+10
-3.90143e+10
-3.90486e+10
-3.90804e+10
-3.91061e+10
-3.9122e+10
-3.91253e+10
-3.91139e+10
-3.90853e+10
-3.90367e+10
-3.89651e+10
-3.88683e+10
-3.87457e+10
-3.85998e+10
-3.8436e+10
-3.82611e+10
-3.80836e+10
-3.79111e+10
-3.77511e+10
-3.76085e+10
-3.74864e+10
-3.73847e+10
-3.73007e+10
-3.72289e+10
-3.71632e+10
-3.70988e+10
-3.70334e+10
-3.69697e+10
-3.69153e+10
-3.68818e+10
-3.68792e+10
-3.69035e+10
-3.69127e+10
-3.68158e+10
-3.65336e+10
-3.61759e+10
-3.61661e+10
-3.68381e+10
-3.73404e+10
-3.53951e+10
-3.07447e+10
-3.04654e+10
-4.36876e+10
-5.86809e+10
-3.29391e+10
-3.87782e+10
-3.87973e+10
-3.88111e+10
-3.88249e+10
-3.88466e+10
-3.88735e+10
-3.89047e+10
-3.894e+10
-3.8979e+10
-3.90205e+10
-3.9064e+10
-3.91089e+10
-3.91537e+10
-3.9195e+10
-3.92286e+10
-3.92499e+10
-3.92544e+10
-3.92381e+10
-3.91973e+10
-3.91282e+10
-3.90273e+10
-3.88934e+10
-3.87297e+10
-3.85431e+10
-3.83435e+10
-3.81413e+10
-3.79465e+10
-3.7767e+10
-3.76085e+10
-3.74738e+10
-3.73631e+10
-3.72731e+10
-3.7198e+10
-3.71315e+10
-3.70682e+10
-3.70049e+10
-3.69434e+10
-3.68903e+10
-3.68571e+10
-3.68557e+10
-3.68846e+10
-3.69023e+10
-3.68121e+10
-3.65213e+10
-3.61243e+10
-3.6042e+10
-3.6649e+10
-3.72293e+10
-3.56771e+10
-3.15186e+10
-3.08603e+10
-4.27968e+10
-5.84077e+10
-3.56258e+10
-3.878e+10
-3.88037e+10
-3.88197e+10
-3.88323e+10
-3.88528e+10
-3.88806e+10
-3.89118e+10
-3.89467e+10
-3.89853e+10
-3.90262e+10
-3.9069e+10
-3.91131e+10
-3.91571e+10
-3.91976e+10
-3.92307e+10
-3.9252e+10
-3.9257e+10
-3.92415e+10
-3.92018e+10
-3.91341e+10
-3.9035e+10
-3.89034e+10
-3.8742e+10
-3.85576e+10
-3.83601e+10
-3.81601e+10
-3.79677e+10
-3.77909e+10
-3.76353e+10
-3.75035e+10
-3.73951e+10
-3.73067e+10
-3.72325e+10
-3.71659e+10
-3.71014e+10
-3.70363e+10
-3.69725e+10
-3.69177e+10
-3.6884e+10
-3.68839e+10
-3.69159e+10
-3.69389e+10
-3.68569e+10
-3.658e+10
-3.62097e+10
-3.61767e+10
-3.68421e+10
-3.73923e+10
-3.56038e+10
-3.13901e+10
-3.21984e+10
-4.6767e+10
-5.93984e+10
-2.86528e+10
-3.87389e+10
-3.87549e+10
-3.87712e+10
-3.87867e+10
-3.88072e+10
-3.88343e+10
-3.8867e+10
-3.89043e+10
-3.89458e+10
-3.89915e+10
-3.9041e+10
-3.90937e+10
-3.91478e+10
-3.92004e+10
-3.92476e+10
-3.9284e+10
-3.93045e+10
-3.93039e+10
-3.9277e+10
-3.9217e+10
-3.91169e+10
-3.89731e+10
-3.87884e+10
-3.85729e+10
-3.83407e+10
-3.81068e+10
-3.78844e+10
-3.76831e+10
-3.75087e+10
-3.73638e+10
-3.72474e+10
-3.71551e+10
-3.70804e+10
-3.70159e+10
-3.69555e+10
-3.68958e+10
-3.68387e+10
-3.67912e+10
-3.67665e+10
-3.67787e+10
-3.68298e+10
-3.68823e+10
-3.68418e+10
-3.66127e+10
-3.62767e+10
-3.62385e+10
-3.68909e+10
-3.76115e+10
-3.64033e+10
-3.2725e+10
-3.23537e+10
-4.41189e+10
-5.85297e+10
-2.97352e+10
-3.87517e+10
-3.8769e+10
-3.87843e+10
-3.87987e+10
-3.88188e+10
-3.88458e+10
-3.88782e+10
-3.89153e+10
-3.89567e+10
-3.90021e+10
-3.90514e+10
-3.91041e+10
-3.91583e+10
-3.92111e+10
-3.92585e+10
-3.92956e+10
-3.93171e+10
-3.93177e+10
-3.92917e+10
-3.92325e+10
-3.91335e+10
-3.89911e+10
-3.88079e+10
-3.85936e+10
-3.83624e+10
-3.81291e+10
-3.79069e+10
-3.77055e+10
-3.75311e+10
-3.7386e+10
-3.72693e+10
-3.71772e+10
-3.71036e+10
-3.70417e+10
-3.69857e+10
-3.69327e+10
-3.68847e+10
-3.68492e+10
-3.68388e+10
-3.68669e+10
-3.69341e+10
-3.70002e+10
-3.69671e+10
-3.67353e+10
-3.63834e+10
-3.63135e+10
-3.68959e+10
-3.74286e+10
-3.5834e+10
-3.18249e+10
-3.21166e+10
-4.56966e+10
-6.01904e+10
-3.24997e+10
-3.87745e+10
-3.87861e+10
-3.87983e+10
-3.88133e+10
-3.88322e+10
-3.88579e+10
-3.8891e+10
-3.89304e+10
-3.89759e+10
-3.90283e+10
-3.90882e+10
-3.91545e+10
-3.92253e+10
-3.92979e+10
-3.93676e+10
-3.94283e+10
-3.94726e+10
-3.94939e+10
-3.94854e+10
-3.94382e+10
-3.93409e+10
-3.91852e+10
-3.89735e+10
-3.87202e+10
-3.84469e+10
-3.81747e+10
-3.79207e+10
-3.76961e+10
-3.75067e+10
-3.73539e+10
-3.72349e+10
-3.71442e+10
-3.70742e+10
-3.70167e+10
-3.69645e+10
-3.69138e+10
-3.6866e+10
-3.68286e+10
-3.68155e+10
-3.68424e+10
-3.69127e+10
-3.69908e+10
-3.69825e+10
-3.67873e+10
-3.64697e+10
-3.64114e+10
-3.70095e+10
-3.76995e+10
-3.65295e+10
-3.29229e+10
-3.28743e+10
-4.53716e+10
-5.96014e+10
-3.18799e+10
-3.87889e+10
-3.87988e+10
-3.88125e+10
-3.88274e+10
-3.88476e+10
-3.88737e+10
-3.89069e+10
-3.89471e+10
-3.89938e+10
-3.90474e+10
-3.91083e+10
-3.91754e+10
-3.92472e+10
-3.93207e+10
-3.93916e+10
-3.94538e+10
-3.94998e+10
-3.95225e+10
-3.95147e+10
-3.94671e+10
-3.93682e+10
-3.92102e+10
-3.89957e+10
-3.87395e+10
-3.84635e+10
-3.81897e+10
-3.79353e+10
-3.7712e+10
-3.75255e+10
-3.73769e+10
-3.72638e+10
-3.71807e+10
-3.71202e+10
-3.70743e+10
-3.7036e+10
-3.70011e+10
-3.69702e+10
-3.69499e+10
-3.69526e+10
-3.6992e+10
-3.70695e+10
-3.71467e+10
-3.71269e+10
-3.69065e+10
-3.65483e+10
-3.64349e+10
-3.6964e+10
-3.75546e+10
-3.61623e+10
-3.1927e+10
-3.04975e+10
-4.25255e+10
-6.18741e+10
-3.92148e+10
-3.87356e+10
-3.87437e+10
-3.87546e+10
-3.87703e+10
-3.87918e+10
-3.88215e+10
-3.88596e+10
-3.89051e+10
-3.89577e+10
-3.90184e+10
-3.90877e+10
-3.91651e+10
-3.92492e+10
-3.9338e+10
-3.94272e+10
-3.95098e+10
-3.95767e+10
-3.96188e+10
-3.96282e+10
-3.95938e+10
-3.94975e+10
-3.93212e+10
-3.90642e+10
-3.87488e+10
-3.84101e+10
-3.80805e+10
-3.77829e+10
-3.75299e+10
-3.73253e+10
-3.71674e+10
-3.70505e+10
-3.69664e+10
-3.69056e+10
-3.68587e+10
-3.68176e+10
-3.67779e+10
-3.67404e+10
-3.67127e+10
-3.67086e+10
-3.6744e+10
-3.68223e+10
-3.69076e+10
-3.69053e+10
-3.67087e+10
-3.63674e+10
-3.62496e+10
-3.67637e+10
-3.73691e+10
-3.60255e+10
-3.17844e+10
-3.03293e+10
-4.23766e+10
-6.11817e+10
-3.86282e+10
-3.87323e+10
-3.87412e+10
-3.87519e+10
-3.87687e+10
-3.87913e+10
-3.88208e+10
-3.8858e+10
-3.8903e+10
-3.89555e+10
-3.90161e+10
-3.90851e+10
-3.91622e+10
-3.92462e+10
-3.93352e+10
-3.94248e+10
-3.95079e+10
-3.9575e+10
-3.96172e+10
-3.96268e+10
-3.95931e+10
-3.94982e+10
-3.9325e+10
-3.9072e+10
-3.87603e+10
-3.8424e+10
-3.8095e+10
-3.77965e+10
-3.75415e+10
-3.73347e+10
-3.71748e+10
-3.70569e+10
-3.69732e+10
-3.69142e+10
-3.687e+10
-3.68328e+10
-3.67972e+10
-3.6763e+10
-3.67361e+10
-3.67289e+10
-3.67557e+10
-3.68192e+10
-3.68832e+10
-3.6854e+10
-3.66286e+10
-3.62658e+10
-3.61538e+10
-3.67411e+10
-3.7546e+10
-3.65353e+10
-3.25764e+10
-3.09462e+10
-4.23191e+10
-6.02833e+10
-3.47733e+10
-3.87313e+10
-3.87433e+10
-3.87549e+10
-3.87719e+10
-3.87947e+10
-3.88246e+10
-3.88612e+10
-3.89041e+10
-3.89543e+10
-3.90139e+10
-3.9084e+10
-3.91662e+10
-3.92614e+10
-3.93694e+10
-3.94868e+10
-3.96055e+10
-3.97122e+10
-3.97937e+10
-3.98402e+10
-3.98396e+10
-3.97639e+10
-3.95744e+10
-3.92566e+10
-3.88456e+10
-3.84047e+10
-3.79884e+10
-3.76284e+10
-3.73369e+10
-3.71132e+10
-3.6949e+10
-3.6833e+10
-3.67527e+10
-3.66959e+10
-3.66513e+10
-3.66104e+10
-3.65686e+10
-3.65269e+10
-3.64937e+10
-3.64838e+10
-3.65144e+10
-3.65908e+10
-3.66792e+10
-3.66857e+10
-3.6503e+10
-3.618e+10
-3.60952e+10
-3.66981e+10
-3.75092e+10
-3.65163e+10
-3.27901e+10
-3.19514e+10
-4.35609e+10
-5.83674e+10
-3.05605e+10
-3.87373e+10
-3.87409e+10
-3.87525e+10
-3.87679e+10
-3.87886e+10
-3.88145e+10
-3.88471e+10
-3.88865e+10
-3.89337e+10
-3.89903e+10
-3.90578e+10
-3.9138e+10
-3.92318e+10
-3.93392e+10
-3.9457e+10
-3.9577e+10
-3.96862e+10
-3.97714e+10
-3.98231e+10
-3.98287e+10
-3.97594e+10
-3.95756e+10
-3.92625e+10
-3.88556e+10
-3.84188e+10
-3.80064e+10
-3.76499e+10
-3.73615e+10
-3.71403e+10
-3.69786e+10
-3.68651e+10
-3.67878e+10
-3.67349e+10
-3.66948e+10
-3.66582e+10
-3.66197e+10
-3.65794e+10
-3.65441e+10
-3.65272e+10
-3.65445e+10
-3.66003e+10
-3.66597e+10
-3.66284e+10
-3.63979e+10
-3.60168e+10
-3.58688e+10
-3.64223e+10
-3.72386e+10
-3.63488e+10
-3.28136e+10
-3.22402e+10
-4.40729e+10
-5.79301e+10
-2.94208e+10
-3.86665e+10
-3.86758e+10
-3.86814e+10
-3.86912e+10
-3.87066e+10
-3.87285e+10
-3.87574e+10
-3.87949e+10
-3.88435e+10
-3.89062e+10
-3.8986e+10
-3.90858e+10
-3.92081e+10
-3.93533e+10
-3.95182e+10
-3.9692e+10
-3.98566e+10
-3.99928e+10
-4.00915e+10
-4.01465e+10
-4.01214e+10
-3.99393e+10
-3.95476e+10
-3.8997e+10
-3.84086e+10
-3.78753e+10
-3.74371e+10
-3.71024e+10
-3.6861e+10
-3.66951e+10
-3.65854e+10
-3.65147e+10
-3.6468e+10
-3.64331e+10
-3.64009e+10
-3.63667e+10
-3.63314e+10
-3.63025e+10
-3.62941e+10
-3.63219e+10
-3.63891e+10
-3.64584e+10
-3.64295e+10
-3.61852e+10
-3.5762e+10
-3.55336e+10
-3.59598e+10
-3.65789e+10
-3.53857e+10
-3.14597e+10
-3.05307e+10
-4.23858e+10
-5.76368e+10
-3.09361e+10
-3.86638e+10
-3.86676e+10
-3.86733e+10
-3.86824e+10
-3.86962e+10
-3.87157e+10
-3.87433e+10
-3.87804e+10
-3.88291e+10
-3.88922e+10
-3.89728e+10
-3.90738e+10
-3.91974e+10
-3.93442e+10
-3.95106e+10
-3.96858e+10
-3.98512e+10
-3.99872e+10
-4.00841e+10
-4.01355e+10
-4.01054e+10
-3.9917e+10
-3.95183e+10
-3.89614e+10
-3.83696e+10
-3.78371e+10
-3.74038e+10
-3.70773e+10
-3.68458e+10
-3.66901e+10
-3.65893e+10
-3.65253e+10
-3.64825e+10
-3.64479e+10
-3.64114e+10
-3.63677e+10
-3.63171e+10
-3.62668e+10
-3.62307e+10
-3.62254e+10
-3.62558e+10
-3.62867e+10
-3.62202e+10
-3.59381e+10
-3.54729e+10
-3.51908e+10
-3.55465e+10
-3.60755e+10
-3.47254e+10
-3.03439e+10
-2.83613e+10
-3.97805e+10
-5.91897e+10
-3.92839e+10
-3.86637e+10
-3.86684e+10
-3.86755e+10
-3.86838e+10
-3.86975e+10
-3.8718e+10
-3.87469e+10
-3.87866e+10
-3.88392e+10
-3.89072e+10
-3.8994e+10
-3.91039e+10
-3.92417e+10
-3.94113e+10
-3.96135e+10
-3.98406e+10
-4.00731e+10
-4.02855e+10
-4.0466e+10
-4.06142e+10
-4.06879e+10
-4.05467e+10
-4.00528e+10
-3.9273e+10
-3.84503e+10
-3.77565e+10
-3.72351e+10
-3.68777e+10
-3.66499e+10
-3.65152e+10
-3.64432e+10
-3.64105e+10
-3.63997e+10
-3.63978e+10
-3.63958e+10
-3.63894e+10
-3.63796e+10
-3.63737e+10
-3.6385e+10
-3.6428e+10
-3.65038e+10
-3.65715e+10
-3.65253e+10
-3.6238e+10
-3.57338e+10
-3.53758e+10
-3.56236e+10
-3.60167e+10
-3.44699e+10
-2.97377e+10
-2.72597e+10
-3.84329e+10
-5.7593e+10
-3.45945e+10
-3.86428e+10
-3.86482e+10
-3.86547e+10
-3.86628e+10
-3.86756e+10
-3.86955e+10
-3.87242e+10
-3.87639e+10
-3.88165e+10
-3.88846e+10
-3.89717e+10
-3.90819e+10
-3.92199e+10
-3.93898e+10
-3.95919e+10
-3.98178e+10
-4.00465e+10
-4.02514e+10
-4.042e+10
-4.05552e+10
-4.06189e+10
-4.04797e+10
-4.00028e+10
-3.92444e+10
-3.84383e+10
-3.77565e+10
-3.72443e+10
-3.68937e+10
-3.66711e+10
-3.65403e+10
-3.64708e+10
-3.64387e+10
-3.64256e+10
-3.64175e+10
-3.64046e+10
-3.63819e+10
-3.63505e+10
-3.63175e+10
-3.62972e+10
-3.63066e+10
-3.63509e+10
-3.63954e+10
-3.63417e+10
-3.60698e+10
-3.56105e+10
-3.53346e+10
-3.57163e+10
-3.631e+10
-3.49863e+10
-3.03104e+10
-2.75226e+10
-3.83152e+10
-5.76699e+10
-3.44798e+10
-3.85753e+10
-3.85733e+10
-3.85757e+10
-3.85769e+10
-3.85807e+10
-3.85894e+10
-3.86057e+10
-3.86324e+10
-3.86726e+10
-3.87303e+10
-3.88123e+10
-3.89286e+10
-3.90919e+10
-3.93146e+10
-3.96044e+10
-3.99557e+10
-4.03407e+10
-4.07108e+10
-4.10262e+10
-4.12857e+10
-4.14697e+10
-4.13912e+10
-4.07487e+10
-3.95554e+10
-3.82824e+10
-3.73386e+10
-3.67396e+10
-3.63996e+10
-3.62309e+10
-3.61673e+10
-3.6164e+10
-3.61911e+10
-3.6229e+10
-3.6265e+10
-3.62912e+10
-3.63045e+10
-3.63076e+10
-3.63093e+10
-3.63251e+10
-3.63728e+10
-3.6458e+10
-3.6546e+10
-3.65395e+10
-3.63239e+10
-3.59421e+10
-3.57784e+10
-3.6311e+10
-3.70992e+10
-3.6081e+10
-3.20354e+10
-3.02285e+10
-4.08855e+10
-5.67587e+10
-2.97161e+10
-3.85638e+10
-3.85592e+10
-3.85617e+10
-3.85625e+10
-3.8567e+10
-3.85776e+10
-3.8597e+10
-3.86283e+10
-3.86745e+10
-3.87396e+10
-3.88296e+10
-3.89539e+10
-3.91238e+10
-3.93505e+10
-3.96404e+10
-3.99869e+10
-4.0361e+10
-4.0713e+10
-4.10034e+10
-4.12343e+10
-4.1394e+10
-4.13122e+10
-4.06945e+10
-3.95286e+10
-3.82758e+10
-3.73495e+10
-3.67666e+10
-3.64415e+10
-3.6287e+10
-3.62364e+10
-3.62443e+10
-3.62804e+10
-3.63249e+10
-3.6365e+10
-3.63925e+10
-3.6404e+10
-3.6402e+10
-3.63957e+10
-3.64004e+10
-3.64343e+10
-3.65037e+10
-3.65749e+10
-3.65513e+10
-3.63181e+10
-3.5918e+10
-3.57405e+10
-3.62827e+10
-3.71299e+10
-3.62441e+10
-3.24889e+10
-3.14261e+10
-4.28906e+10
-5.70099e+10
-2.98746e+10
-3.85776e+10
-3.8581e+10
-3.85827e+10
-3.85834e+10
-3.85851e+10
-3.85923e+10
-3.86103e+10
-3.86442e+10
-3.86989e+10
-3.87794e+10
-3.88928e+10
-3.90507e+10
-3.92686e+10
-3.95615e+10
-3.99368e+10
-4.03837e+10
-4.08605e+10
-4.12901e+10
-4.16043e+10
-4.18373e+10
-4.21086e+10
-4.23014e+10
-4.17617e+10
-4.00145e+10
-3.79328e+10
-3.66779e+10
-3.60641e+10
-3.57987e+10
-3.57468e+10
-3.58035e+10
-3.5908e+10
-3.60245e+10
-3.61333e+10
-3.62233e+10
-3.62887e+10
-3.63274e+10
-3.63422e+10
-3.63416e+10
-3.63406e+10
-3.63568e+10
-3.63964e+10
-3.64257e+10
-3.63517e+10
-3.60732e+10
-3.56584e+10
-3.55141e+10
-3.61084e+10
-3.6976e+10
-3.61697e+10
-3.2869e+10
-3.26621e+10
-4.45325e+10
-5.84696e+10
-2.98417e+10
-3.85601e+10
-3.85626e+10
-3.8565e+10
-3.85682e+10
-3.85744e+10
-3.8588e+10
-3.86142e+10
-3.86584e+10
-3.87247e+10
-3.88173e+10
-3.89419e+10
-3.91081e+10
-3.9329e+10
-3.96179e+10
-3.99816e+10
-4.04106e+10
-4.08654e+10
-4.12702e+10
-4.15581e+10
-4.17661e+10
-4.20167e+10
-4.22042e+10
-4.17166e+10
-4.00572e+10
-3.80286e+10
-3.6783e+10
-3.61499e+10
-3.58713e+10
-3.58119e+10
-3.58649e+10
-3.5967e+10
-3.60807e+10
-3.61852e+10
-3.62691e+10
-3.63266e+10
-3.6356e+10
-3.63612e+10
-3.63523e+10
-3.6346e+10
-3.63615e+10
-3.64057e+10
-3.64445e+10
-3.63813e+10
-3.61074e+10
-3.56791e+10
-3.54919e+10
-3.60067e+10
-3.67489e+10
-3.57374e+10
-3.20462e+10
-3.11013e+10
-4.26558e+10
-5.96741e+10
-3.67483e+10
-3.85596e+10
-3.85575e+10
-3.85502e+10
-3.85373e+10
-3.85227e+10
-3.85129e+10
-3.85152e+10
-3.85354e+10
-3.8575e+10
-3.86321e+10
-3.87054e+10
-3.88028e+10
-3.89475e+10
-3.9174e+10
-3.95116e+10
-3.99655e+10
-4.05006e+10
-4.10343e+10
-4.14958e+10
-4.19809e+10
-4.28225e+10
-4.40259e+10
-4.41822e+10
-4.14565e+10
-3.77853e+10
-3.6008e+10
-3.53333e+10
-3.51619e+10
-3.52602e+10
-3.54461e+10
-3.56476e+10
-3.58341e+10
-3.59952e+10
-3.61269e+10
-3.62275e+10
-3.62969e+10
-3.63393e+10
-3.63637e+10
-3.63852e+10
-3.64201e+10
-3.64716e+10
-3.65011e+10
-3.64101e+10
-3.60969e+10
-3.56363e+10
-3.54304e+10
-3.58901e+10
-3.645e+10
-3.51831e+10
-3.1562e+10
-3.14188e+10
-4.37359e+10
-5.97641e+10
-3.41784e+10
-3.85573e+10
-3.85565e+10
-3.85531e+10
-3.85455e+10
-3.85369e+10
-3.85339e+10
-3.85435e+10
-3.8571e+10
-3.86174e+10
-3.868e+10
-3.87569e+10
-3.88544e+10
-3.89937e+10
-3.92077e+10
-3.9527e+10
-3.99633e+10
-4.04877e+10
-4.10172e+10
-4.14627e+10
-4.1892e+10
-4.26183e+10
-4.36871e+10
-4.39385e+10
-4.1652e+10
-3.80969e+10
-3.62935e+10
-3.55474e+10
-3.53319e+10
-3.53933e+10
-3.55501e+10
-3.57285e+10
-3.58952e+10
-3.60374e+10
-3.61489e+10
-3.62273e+10
-3.62731e+10
-3.62908e+10
-3.62916e+10
-3.62932e+10
-3.63151e+10
-3.63643e+10
-3.64063e+10
-3.63457e+10
-3.60821e+10
-3.56892e+10
-3.55693e+10
-3.61368e+10
-3.68067e+10
-3.54991e+10
-3.11982e+10
-2.91124e+10
-3.97008e+10
-5.91025e+10
-3.92816e+10
-3.84996e+10
-3.84979e+10
-3.84845e+10
-3.84588e+10
-3.84286e+10
-3.84033e+10
-3.83927e+10
-3.84014e+10
-3.8426e+10
-3.84565e+10
-3.84872e+10
-3.85374e+10
-3.86701e+10
-3.8981e+10
-3.95433e+10
-4.03563e+10
-4.13533e+10
-4.24435e+10
-4.35983e+10
-4.49692e+10
-4.68979e+10
-4.92179e+10
-4.97333e+10
-4.50862e+10
-3.84426e+10
-3.36307e+10
-3.34838e+10
-3.4036e+10
-3.46107e+10
-3.50665e+10
-3.54153e+10
-3.5684e+10
-3.58931e+10
-3.60533e+10
-3.61711e+10
-3.62518e+10
-3.63032e+10
-3.63382e+10
-3.63751e+10
-3.64332e+10
-3.65177e+10
-3.6591e+10
-3.6556e+10
-3.63157e+10
-3.5952e+10
-3.5864e+10
-3.64202e+10
-3.69649e+10
-3.55156e+10
-3.16892e+10
-3.15719e+10
-4.38363e+10
-5.75713e+10
-2.95663e+10
-3.85079e+10
-3.851e+10
-3.84954e+10
-3.84706e+10
-3.84408e+10
-3.84156e+10
-3.84041e+10
-3.84111e+10
-3.84335e+10
-3.84625e+10
-3.84938e+10
-3.85471e+10
-3.86803e+10
-3.89793e+10
-3.95154e+10
-4.03027e+10
-4.12811e+10
-4.23278e+10
-4.33186e+10
-4.43136e+10
-4.57541e+10
-4.77411e+10
-4.85645e+10
-4.55725e+10
-3.94364e+10
-3.36982e+10
-3.34881e+10
-3.40485e+10
-3.46341e+10
-3.50911e+10
-3.54341e+10
-3.56931e+10
-3.58898e+10
-3.60356e+10
-3.61371e+10
-3.61997e+10
-3.62315e+10
-3.62453e+10
-3.62598e+10
-3.62957e+10
-3.63601e+10
-3.64186e+10
-3.63789e+10
-3.61502e+10
-3.58245e+10
-3.58169e+10
-3.65087e+10
-3.72011e+10
-3.57104e+10
-3.13112e+10
-3.02325e+10
-4.27917e+10
-5.93543e+10
-3.31098e+10
-3.84961e+10
-3.85055e+10
-3.84816e+10
-3.84473e+10
-3.84057e+10
-3.8368e+10
-3.83441e+10
-3.83374e+10
-3.83413e+10
-3.83428e+10
-3.83376e+10
-3.83588e+10
-3.85026e+10
-3.89049e+10
-3.96344e+10
-4.06179e+10
-4.17358e+10
-4.29049e+10
-4.41326e+10
-4.56049e+10
-4.75486e+10
-4.97616e+10
-5.08931e+10
-4.8317e+10
-4.19926e+10
-2.7241e+10
-3.03837e+10
-3.25971e+10
-3.38664e+10
-3.46365e+10
-3.51364e+10
-3.54778e+10
-3.57174e+10
-3.58837e+10
-3.59923e+10
-3.60535e+10
-3.6078e+10
-3.60801e+10
-3.60786e+10
-3.60933e+10
-3.61292e+10
-3.61497e+10
-3.60621e+10
-3.57768e+10
-3.53844e+10
-3.52864e+10
-3.5837e+10
-3.63381e+10
-3.47306e+10
-3.0467e+10
-2.94391e+10
-4.14631e+10
-5.95874e+10
-3.88037e+10
-3.84717e+10
-3.84843e+10
-3.84558e+10
-3.8416e+10
-3.83688e+10
-3.83256e+10
-3.82969e+10
-3.8287e+10
-3.82911e+10
-3.82988e+10
-3.83088e+10
-3.83538e+10
-3.85183e+10
-3.89181e+10
-3.96228e+10
-4.05991e+10
-4.1734e+10
-4.2879e+10
-4.39385e+10
-4.50566e+10
-4.67947e+10
-4.94461e+10
-5.06782e+10
-4.88035e+10
-4.57456e+10
-2.79281e+10
-3.02999e+10
-3.25176e+10
-3.38132e+10
-3.46023e+10
-3.51108e+10
-3.54548e+10
-3.56945e+10
-3.58611e+10
-3.59714e+10
-3.60367e+10
-3.60683e+10
-3.60805e+10
-3.60915e+10
-3.61198e+10
-3.61693e+10
-3.62022e+10
-3.6124e+10
-3.58449e+10
-3.54586e+10
-3.53776e+10
-3.59539e+10
-3.64057e+10
-3.4555e+10
-3.0359e+10
-3.1559e+10
-4.72552e+10
-6.10688e+10
-2.96414e+10
-3.84823e+10
-3.84775e+10
-3.84518e+10
-3.84112e+10
-3.83629e+10
-3.83187e+10
-3.8289e+10
-3.82773e+10
-3.82773e+10
-3.8276e+10
-3.8268e+10
-3.82852e+10
-3.8424e+10
-3.88295e+10
-3.95598e+10
-4.05349e+10
-4.16618e+10
-4.2857e+10
-4.41367e+10
-4.57333e+10
-4.78323e+10
-4.98985e+10
-4.93823e+10
-4.35742e+10
-2.15215e+10
-3.02484e+10
-3.24636e+10
-3.37613e+10
-3.45631e+10
-3.50889e+10
-3.54517e+10
-3.57108e+10
-3.58977e+10
-3.603e+10
-3.61199e+10
-3.61788e+10
-3.62202e+10
-3.62608e+10
-3.63159e+10
-3.63856e+10
-3.64298e+10
-3.63545e+10
-3.60699e+10
-3.56595e+10
-3.55111e+10
-3.59766e+10
-3.64038e+10
-3.48227e+10
-3.07268e+10
-2.98323e+10
-4.12735e+10
-5.80064e+10
-3.49225e+10
-3.848e+10
-3.84835e+10
-3.84508e+10
-3.84066e+10
-3.83543e+10
-3.83064e+10
-3.82737e+10
-3.82607e+10
-3.82623e+10
-3.82668e+10
-3.82711e+10
-3.83064e+10
-3.84623e+10
-3.88657e+10
-3.95803e+10
-4.05553e+10
-4.16828e+10
-4.28237e+10
-4.395e+10
-4.51918e+10
-4.69283e+10
-4.93661e+10
-5.11879e+10
-5.00132e+10
-2.2725e+10
-3.02124e+10
-3.23914e+10
-3.37058e+10
-3.45257e+10
-3.50609e+10
-3.54277e+10
-3.56881e+10
-3.58754e+10
-3.60088e+10
-3.61011e+10
-3.61648e+10
-3.62142e+10
-3.62663e+10
-3.63364e+10
-3.64243e+10
-3.6489e+10
-3.64346e+10
-3.61682e+10
-3.57726e+10
-3.56373e+10
-3.61052e+10
-3.646e+10
-3.46782e+10
-3.06928e+10
-3.15446e+10
-4.58064e+10
-5.97181e+10
-2.9708e+10
-3.8499e+10
-3.84797e+10
-3.84689e+10
-3.84369e+10
-3.84e+10
-3.83662e+10
-3.83462e+10
-3.83439e+10
-3.8354e+10
-3.8363e+10
-3.83621e+10
-3.83749e+10
-3.84833e+10
-3.8818e+10
-3.94679e+10
-4.03824e+10
-4.14461e+10
-4.25434e+10
-4.3647e+10
-4.48818e+10
-4.64174e+10
-4.83584e+10
-4.99802e+10
-4.84277e+10
-3.70872e+10
-3.30055e+10
-3.29823e+10
-3.3662e+10
-3.43403e+10
-3.48668e+10
-3.52585e+10
-3.55509e+10
-3.57716e+10
-3.59382e+10
-3.60623e+10
-3.61528e+10
-3.62202e+10
-3.62772e+10
-3.63394e+10
-3.64206e+10
-3.65201e+10
-3.65991e+10
-3.65684e+10
-3.63419e+10
-3.59963e+10
-3.58992e+10
-3.64013e+10
-3.69245e+10
-3.56619e+10
-3.23337e+10
-3.29323e+10
-4.55893e+10
-5.85498e+10
-2.93193e+10
-3.84991e+10
-3.84943e+10
-3.8475e+10
-3.84428e+10
-3.84054e+10
-3.8373e+10
-3.83563e+10
-3.836e+10
-3.83796e+10
-3.84027e+10
-3.84217e+10
-3.8456e+10
-3.85737e+10
-3.88814e+10
-3.94544e+10
-4.02741e+10
-4.12466e+10
-4.22673e+10
-4.33254e+10
-4.45605e+10
-4.61818e+10
-4.81418e+10
-4.89027e+10
-4.73246e+10
-3.8151e+10
-3.27914e+10
-3.27487e+10
-3.34986e+10
-3.42425e+10
-3.48102e+10
-3.52249e+10
-3.55307e+10
-3.576e+10
-3.5933e+10
-3.60624e+10
-3.61583e+10
-3.62311e+10
-3.62938e+10
-3.63622e+10
-3.64499e+10
-3.65558e+10
-3.66401e+10
-3.66122e+10
-3.63834e+10
-3.60277e+10
-3.59099e+10
-3.63823e+10
-3.68648e+10
-3.54741e+10
-3.16134e+10
-3.09169e+10
-4.30908e+10
-6.08316e+10
-3.76101e+10
-3.85415e+10
-3.8535e+10
-3.85249e+10
-3.85063e+10
-3.84853e+10
-3.84701e+10
-3.84696e+10
-3.84893e+10
-3.85286e+10
-3.85805e+10
-3.86389e+10
-3.87129e+10
-3.88401e+10
-3.90818e+10
-3.94876e+10
-4.00529e+10
-4.07168e+10
-4.13755e+10
-4.19332e+10
-4.24031e+10
-4.29981e+10
-4.39139e+10
-4.41765e+10
-4.12222e+10
-3.77033e+10
-3.58244e+10
-3.50782e+10
-3.48967e+10
-3.50155e+10
-3.52262e+10
-3.5447e+10
-3.56442e+10
-3.58089e+10
-3.59392e+10
-3.60363e+10
-3.6104e+10
-3.61494e+10
-3.61836e+10
-3.62216e+10
-3.62777e+10
-3.63529e+10
-3.64132e+10
-3.63768e+10
-3.61644e+10
-3.58499e+10
-3.57842e+10
-3.63083e+10
-3.68708e+10
-3.56894e+10
-3.23549e+10
-3.24752e+10
-4.44558e+10
-5.90634e+10
-3.16253e+10
-3.85349e+10
-3.85324e+10
-3.85222e+10
-3.85054e+10
-3.84865e+10
-3.84738e+10
-3.84763e+10
-3.84998e+10
-3.8544e+10
-3.86031e+10
-3.86723e+10
-3.87605e+10
-3.89008e+10
-3.91459e+10
-3.95371e+10
-4.00695e+10
-4.06796e+10
-4.12679e+10
-4.17716e+10
-4.22763e+10
-4.30398e+10
-4.40764e+10
-4.41608e+10
-4.13865e+10
-3.77179e+10
-3.57529e+10
-3.4989e+10
-3.48287e+10
-3.49731e+10
-3.52034e+10
-3.54385e+10
-3.56475e+10
-3.58231e+10
-3.59647e+10
-3.60742e+10
-3.61557e+10
-3.62161e+10
-3.62663e+10
-3.63204e+10
-3.63911e+10
-3.64779e+10
-3.6545e+10
-3.65093e+10
-3.6289e+10
-3.59562e+10
-3.58647e+10
-3.63773e+10
-3.69811e+10
-3.58129e+10
-3.19456e+10
-3.02738e+10
-4.10314e+10
-6.03601e+10
-3.94906e+10
-3.85639e+10
-3.8563e+10
-3.85587e+10
-3.85516e+10
-3.85445e+10
-3.85427e+10
-3.85532e+10
-3.8582e+10
-3.86332e+10
-3.87092e+10
-3.88139e+10
-3.8958e+10
-3.91618e+10
-3.94496e+10
-3.98359e+10
-4.03094e+10
-4.0825e+10
-4.13073e+10
-4.16856e+10
-4.19559e+10
-4.21874e+10
-4.22791e+10
-4.15858e+10
-3.96344e+10
-3.74727e+10
-3.61972e+10
-3.56044e+10
-3.53854e+10
-3.53947e+10
-3.55108e+10
-3.56653e+10
-3.58206e+10
-3.59592e+10
-3.60735e+10
-3.61617e+10
-3.62257e+10
-3.62711e+10
-3.63081e+10
-3.63508e+10
-3.6413e+10
-3.64956e+10
-3.65651e+10
-3.65409e+10
-3.6344e+10
-3.60476e+10
-3.59991e+10
-3.65302e+10
-3.70611e+10
-3.5746e+10
-3.20863e+10
-3.17097e+10
-4.31313e+10
-5.64663e+10
-2.93276e+10
-3.85682e+10
-3.85669e+10
-3.85652e+10
-3.85603e+10
-3.85562e+10
-3.85577e+10
-3.85714e+10
-3.86026e+10
-3.86551e+10
-3.8731e+10
-3.88342e+10
-3.89758e+10
-3.91762e+10
-3.94602e+10
-3.98434e+10
-4.03159e+10
-4.08319e+10
-4.13149e+10
-4.16958e+10
-4.19837e+10
-4.22619e+10
-4.23952e+10
-4.17112e+10
-3.97465e+10
-3.75329e+10
-3.62354e+10
-3.56367e+10
-3.54182e+10
-3.54276e+10
-3.55427e+10
-3.56966e+10
-3.58529e+10
-3.59948e+10
-3.6115e+10
-3.62108e+10
-3.62831e+10
-3.63366e+10
-3.63801e+10
-3.64261e+10
-3.64868e+10
-3.65613e+10
-3.66141e+10
-3.65633e+10
-3.63295e+10
-3.59866e+10
-3.58883e+10
-3.63831e+10
-3.68976e+10
-3.55205e+10
-3.1725e+10
-3.16624e+10
-4.46559e+10
-5.87807e+10
-3.09244e+10
-3.85864e+10
-3.85874e+10
-3.85894e+10
-3.85908e+10
-3.85936e+10
-3.86003e+10
-3.86142e+10
-3.86385e+10
-3.86764e+10
-3.87317e+10
-3.88112e+10
-3.89265e+10
-3.9093e+10
-3.93257e+10
-3.9631e+10
-3.99989e+10
-4.03972e+10
-4.07775e+10
-4.11005e+10
-4.13625e+10
-4.15438e+10
-4.1446e+10
-4.07162e+10
-3.93838e+10
-3.79979e+10
-3.70033e+10
-3.64102e+10
-3.60976e+10
-3.59643e+10
-3.59352e+10
-3.59616e+10
-3.60121e+10
-3.60668e+10
-3.61139e+10
-3.61469e+10
-3.61642e+10
-3.61695e+10
-3.61717e+10
-3.61837e+10
-3.62178e+10
-3.62727e+10
-3.63109e+10
-3.62465e+10
-3.5997e+10
-3.56411e+10
-3.55456e+10
-3.60594e+10
-3.65614e+10
-3.50227e+10
-3.05656e+10
-2.85562e+10
-3.90453e+10
-5.69443e+10
-3.31025e+10
-3.85898e+10
-3.85939e+10
-3.85962e+10
-3.85995e+10
-3.86044e+10
-3.86138e+10
-3.86305e+10
-3.86574e+10
-3.86969e+10
-3.87519e+10
-3.88277e+10
-3.89342e+10
-3.90856e+10
-3.92968e+10
-3.9576e+10
-3.99165e+10
-4.029e+10
-4.06509e+10
-4.09629e+10
-4.12248e+10
-4.14173e+10
-4.13465e+10
-4.06769e+10
-3.94088e+10
-3.80578e+10
-3.70739e+10
-3.64776e+10
-3.6156e+10
-3.60122e+10
-3.59741e+10
-3.59947e+10
-3.60429e+10
-3.60988e+10
-3.61495e+10
-3.61874e+10
-3.62096e+10
-3.62183e+10
-3.62207e+10
-3.62283e+10
-3.62526e+10
-3.62926e+10
-3.63127e+10
-3.62303e+10
-3.59675e+10
-3.56096e+10
-3.55357e+10
-3.60929e+10
-3.65892e+10
-3.49175e+10
-3.07195e+10
-3.0987e+10
-4.51731e+10
-5.95813e+10
-2.94112e+10
-3.86433e+10
-3.8649e+10
-3.86585e+10
-3.86715e+10
-3.86893e+10
-3.87138e+10
-3.87467e+10
-3.87893e+10
-3.88427e+10
-3.89085e+10
-3.89897e+10
-3.90918e+10
-3.92214e+10
-3.9384e+10
-3.95801e+10
-3.97998e+10
-4.00207e+10
-4.02155e+10
-4.037e+10
-4.04872e+10
-4.05345e+10
-4.0376e+10
-3.98593e+10
-3.90483e+10
-3.81947e+10
-3.74859e+10
-3.69741e+10
-3.66433e+10
-3.64512e+10
-3.63555e+10
-3.63219e+10
-3.63247e+10
-3.63447e+10
-3.63679e+10
-3.63853e+10
-3.63932e+10
-3.63935e+10
-3.6394e+10
-3.64075e+10
-3.64463e+10
-3.6509e+10
-3.65566e+10
-3.65014e+10
-3.62646e+10
-3.59425e+10
-3.59418e+10
-3.66599e+10
-3.74962e+10
-3.63585e+10
-3.22003e+10
-3.01619e+10
-4.01403e+10
-5.66656e+10
-3.16099e+10
-3.86486e+10
-3.86592e+10
-3.86666e+10
-3.86796e+10
-3.86972e+10
-3.8722e+10
-3.87555e+10
-3.87993e+10
-3.88543e+10
-3.89221e+10
-3.90053e+10
-3.91083e+10
-3.92366e+10
-3.93947e+10
-3.95821e+10
-3.97891e+10
-3.99945e+10
-4.01731e+10
-4.03127e+10
-4.04161e+10
-4.04507e+10
-4.02883e+10
-3.97887e+10
-3.90064e+10
-3.81744e+10
-3.74758e+10
-3.69662e+10
-3.66347e+10
-3.64424e+10
-3.63483e+10
-3.63186e+10
-3.63271e+10
-3.63538e+10
-3.63839e+10
-3.64075e+10
-3.64193e+10
-3.64198e+10
-3.64153e+10
-3.64174e+10
-3.6438e+10
-3.64766e+10
-3.6497e+10
-3.64155e+10
-3.61575e+10
-3.58264e+10
-3.58385e+10
-3.65751e+10
-3.73274e+10
-3.59026e+10