/*--------------------------------*- C++ -*----------------------------------*\
| =========                 |                                                 |
| \\      /  F ield         | OpenFOAM: The Open Source CFD Toolbox           |
|  \\    /   O peration     | Version:  4.1                                   |
|   \\  /    A nd           | Web:      www.OpenFOAM.org                      |
|    \\/     M anipulation  |                                                 |
\*---------------------------------------------------------------------------*/
FoamFile
{
    version     2.0;
    format      ascii;
    class       surfaceScalarField;
    location    "100";
    object      phi;
}
// * * * * * * * * * * * * * * * * * * * * * * * * * * * * * * * * * * * * * //

dimensions      [0 3 -1 0 0 0 0];

internalField   nonuniform List<scalar> 
11516
(
-3.83403e+10
2.3144e+07
1.62352e+08
-3.85049e+10
1.46087e+07
1.71087e+08
-3.86747e+10
1.49639e+07
1.76451e+08
-3.88464e+10
1.18791e+07
1.82036e+08
-3.90233e+10
1.19467e+07
1.88073e+08
-3.92046e+10
1.16984e+07
1.93547e+08
-3.93872e+10
1.11111e+07
1.96469e+08
-3.95689e+10
1.05966e+07
1.97021e+08
-3.97465e+10
9.91882e+06
1.94553e+08
-3.99151e+10
9.06989e+06
1.87172e+08
-4.00685e+10
8.095e+06
1.74128e+08
-4.02017e+10
7.02126e+06
1.56816e+08
-4.03037e+10
5.99822e+06
1.30503e+08
-4.03669e+10
5.02087e+06
9.88239e+07
-4.03803e+10
4.12264e+06
5.75643e+07
-4.03343e+10
3.30952e+06
8.32507e+06
-4.02232e+10
1.43685e+06
-4.83434e+07
-4.00377e+10
-1.20442e+06
-1.13261e+08
-3.97775e+10
-5.00844e+06
-1.81978e+08
-3.94365e+10
-9.23906e+06
-2.55248e+08
-3.90139e+10
-1.44485e+07
-3.31904e+08
-3.8514e+10
-1.97625e+07
-4.03961e+08
-3.79441e+10
-2.61176e+07
-4.73496e+08
-3.73187e+10
-3.25085e+07
-5.29944e+08
-3.66468e+10
-3.87574e+07
-5.77543e+08
-3.59428e+10
-4.40969e+07
-6.09098e+08
-3.52147e+10
-4.82275e+07
-6.30964e+08
-3.44772e+10
-5.08108e+07
-6.37511e+08
-3.37399e+10
-5.17435e+07
-6.35106e+08
-3.30149e+10
-5.07601e+07
-6.22151e+08
-3.2313e+10
-4.76484e+07
-6.00465e+08
-3.16407e+10
-4.21111e+07
-5.74903e+08
-3.10071e+10
-3.38478e+07
-5.43381e+08
-3.04164e+10
-2.26522e+07
-5.10481e+08
-2.9872e+10
-8.31682e+06
-4.7709e+08
-2.93761e+10
9.43852e+06
-4.43689e+08
-2.89255e+10
3.06876e+07
-4.15351e+08
-2.85172e+10
5.46196e+07
-3.89928e+08
-2.8142e+10
8.12632e+07
-3.73094e+08
-2.77946e+10
1.12672e+08
-3.61949e+08
-2.74703e+10
1.50318e+08
-3.5687e+08
-2.7161e+10
1.95276e+08
-3.61571e+08
-2.68568e+10
2.47939e+08
-3.77321e+08
-2.65562e+10
3.09211e+08
-3.9742e+08
-2.62887e+10
3.83123e+08
-3.99958e+08
-2.61352e+10
4.81427e+08
-3.61884e+08
-2.61807e+10
6.19841e+08
-3.22863e+08
-2.64079e+10
7.84887e+08
-3.81054e+08
-2.68026e+10
8.91996e+08
-4.72812e+08
-2.77219e+10
9.33739e+08
-1.43132e+07
-2.99214e+10
1.69034e+09
5.32292e+08
-3.32707e+10
3.54285e+09
2.92124e+08
-3.14971e+10
7.26414e+09
-8.77758e+09
4.09693e+09
-1.12258e+10
-4.65383e+10
1.65238e+08
-4.6691e+10
1.79396e+08
-4.68444e+10
1.80905e+08
-4.70064e+10
1.86815e+08
-4.71715e+10
1.90538e+08
-4.734e+10
1.94178e+08
-4.75101e+10
1.95766e+08
-4.76796e+10
1.95247e+08
-4.78462e+10
1.92203e+08
-4.80056e+10
1.84673e+08
-4.81526e+10
1.71978e+08
-4.82833e+10
1.55948e+08
-4.83879e+10
1.3128e+08
-4.84607e+10
1.02203e+08
-4.84921e+10
6.44467e+07
-4.84745e+10
1.91918e+07
-4.84042e+10
-3.08567e+07
-4.82763e+10
-8.834e+07
-4.80911e+10
-1.47583e+08
-4.78456e+10
-2.11242e+08
-4.7539e+10
-2.76973e+08
-4.71784e+10
-3.37922e+08
-4.67687e+10
-3.96535e+08
-4.63243e+10
-4.42322e+08
-4.58519e+10
-4.80813e+08
-4.53647e+10
-5.03837e+08
-4.48679e+10
-5.19009e+08
-4.43734e+10
-5.19679e+08
-4.38861e+10
-5.13212e+08
-4.34133e+10
-4.97419e+08
-4.29606e+10
-4.73893e+08
-4.25284e+10
-4.47871e+08
-4.21199e+10
-4.15903e+08
-4.17333e+10
-3.82935e+08
-4.13663e+10
-3.48913e+08
-4.1016e+10
-3.14007e+08
-4.06734e+10
-2.83271e+08
-4.03345e+10
-2.52985e+08
-3.99903e+10
-2.269e+08
-3.96321e+10
-2.02949e+08
-3.92491e+10
-1.80859e+08
-3.88272e+10
-1.63173e+08
-3.83504e+10
-1.50448e+08
-3.78084e+10
-1.37524e+08
-3.72092e+10
-1.05201e+08
-3.65797e+10
-3.3999e+07
-3.59085e+10
4.53032e+07
-3.51394e+10
5.62756e+07
-3.43779e+10
1.01811e+08
-3.42471e+10
7.45951e+08
-3.45224e+10
1.97486e+09
-3.43029e+10
3.34702e+09
-2.03099e+10
-6.63203e+09
-1.12763e+10
-6.67795e+10
-1.34157e+06
2.07311e+08
-6.68177e+10
-2.00274e+06
2.25112e+08
-6.68596e+10
-2.87715e+06
2.35488e+08
-6.69064e+10
-3.33337e+06
2.46908e+08
-6.69555e+10
-4.02826e+06
2.56449e+08
-6.70071e+10
-4.51727e+06
2.65437e+08
-6.70609e+10
-5.09049e+06
2.71793e+08
-6.71173e+10
-5.72588e+06
2.76105e+08
-6.71723e+10
-6.53381e+06
2.73642e+08
-6.72273e+10
-7.49592e+06
2.67842e+08
-6.7281e+10
-8.61671e+06
2.55148e+08
-6.73302e+10
-9.84536e+06
2.35526e+08
-6.73731e+10
-1.10667e+07
2.0666e+08
-6.74056e+10
-1.23757e+07
1.68872e+08
-6.74232e+10
-1.35557e+07
1.19731e+08
-6.74264e+10
-1.52845e+07
6.30088e+07
-6.74141e+10
-1.69613e+07
-946413
-6.7391e+10
-1.93362e+07
-7.06782e+07
-6.73542e+10
-2.23252e+07
-1.47201e+08
-6.73052e+10
-2.62667e+07
-2.28348e+08
-6.72443e+10
-3.04914e+07
-3.11668e+08
-6.71732e+10
-3.53749e+07
-3.90232e+08
-6.70992e+10
-4.07663e+07
-4.61393e+08
-6.70243e+10
-4.65702e+07
-5.19818e+08
-6.6959e+10
-5.2525e+07
-5.59611e+08
-6.69004e+10
-5.81672e+07
-5.85034e+08
-6.68552e+10
-6.32832e+07
-5.92232e+08
-6.68212e+10
-6.77601e+07
-5.85575e+08
-6.68037e+10
-7.15212e+07
-5.64294e+08
-6.68015e+10
-7.45274e+07
-5.34432e+08
-6.68173e+10
-7.66379e+07
-4.93703e+08
-6.68543e+10
-7.77888e+07
-4.47621e+08
-6.69128e+10
-7.77554e+07
-3.96503e+08
-6.69984e+10
-7.64699e+07
-3.40223e+08
-6.71141e+10
-7.36478e+07
-2.81935e+08
-6.72658e+10
-6.9374e+07
-2.19302e+08
-6.74613e+10
-6.37141e+07
-1.54561e+08
-6.77093e+10
-5.58416e+07
-8.5529e+07
-6.80231e+10
-4.5217e+07
-1.29467e+07
-6.84145e+10
-3.22018e+07
6.46545e+07
-6.88962e+10
-1.61372e+07
1.48326e+08
-6.94956e+10
3.99466e+06
2.47268e+08
-7.02381e+10
2.87765e+07
3.5944e+08
-7.11497e+10
5.81095e+07
4.91066e+08
-7.22602e+10
9.65359e+07
6.6262e+08
-7.36285e+10
1.56137e+08
9.01481e+08
-7.53931e+10
2.48552e+08
1.21696e+09
-7.77546e+10
3.46502e+08
1.56759e+09
-8.07988e+10
4.15819e+08
1.94723e+09
-8.41262e+10
5.67504e+08
2.3459e+09
-8.89342e+10
1.49851e+09
3.48833e+09
-9.65699e+10
3.35514e+09
4.16345e+09
-1.20202e+11
7.7105e+09
7.14345e+09
3.71545e+09
2.13134e+09
-7.62539e+10
1.87078e+08
-7.62697e+10
2.01981e+08
-7.62905e+10
2.07803e+08
-7.63145e+10
2.16699e+08
-7.63415e+10
2.23182e+08
-7.63709e+10
2.29028e+08
-7.64028e+10
2.32974e+08
-7.6438e+10
2.35561e+08
-7.64728e+10
2.31676e+08
-7.65096e+10
2.25516e+08
-7.65475e+10
2.1334e+08
-7.6584e+10
1.95485e+08
-7.6619e+10
1.69593e+08
-7.66489e+10
1.36595e+08
-7.66715e+10
9.34306e+07
-7.66877e+10
4.41631e+07
-7.66954e+10
-1.25294e+07
-7.66966e+10
-7.5927e+07
-7.66894e+10
-1.45391e+08
-7.66744e+10
-2.19582e+08
-7.66533e+10
-2.95422e+08
-7.66267e+10
-3.67335e+08
-7.66019e+10
-4.3225e+08
-7.65789e+10
-4.86479e+08
-7.65683e+10
-5.23145e+08
-7.65659e+10
-5.47456e+08
-7.65787e+10
-5.54889e+08
-7.66029e+10
-5.50115e+08
-7.66433e+10
-5.32085e+08
-7.66965e+10
-5.07366e+08
-7.67634e+10
-4.73012e+08
-7.68445e+10
-4.34921e+08
-7.69366e+10
-3.93197e+08
-7.70416e+10
-3.47408e+08
-7.71578e+10
-3.0093e+08
-7.72862e+10
-2.50808e+08
-7.74301e+10
-1.99934e+08
-7.75886e+10
-1.47535e+08
-7.77624e+10
-9.51098e+07
-7.79528e+10
-4.0087e+07
-7.81597e+10
1.71892e+07
-7.83912e+10
8.38493e+07
-7.86538e+10
1.58015e+08
-7.89558e+10
2.47293e+08
-7.93001e+10
3.66916e+08
-7.96828e+10
5.35203e+08
-8.01444e+10
7.63013e+08
-8.08299e+10
1.04574e+09
-8.18205e+10
1.37875e+09
-8.21882e+10
1.46005e+09
-8.00343e+10
1.08371e+09
-7.39795e+10
5.78348e+08
-8.07165e+10
7.67816e+09
8.74241e+09
-5.60806e+10
3.04101e+07
1.70138e+08
-5.60632e+10
3.24713e+07
1.90809e+08
-5.60452e+10
3.08468e+07
2.02542e+08
-5.60327e+10
3.10073e+07
2.19791e+08
-5.6022e+10
2.96605e+07
2.33059e+08
-5.60128e+10
2.85668e+07
2.45484e+08
-5.60071e+10
2.72522e+07
2.57321e+08
-5.60016e+10
2.5734e+07
2.64133e+08
-5.60014e+10
2.3776e+07
2.69767e+08
-5.6003e+10
2.13838e+07
2.6883e+08
-5.60093e+10
1.84178e+07
2.64745e+08
-5.60198e+10
1.48771e+07
2.54244e+08
-5.60331e+10
1.07198e+07
2.34865e+08
-5.60466e+10
5.92279e+06
2.05981e+08
-5.60591e+10
483702
1.68156e+08
-5.60601e+10
-5.82577e+06
1.12959e+08
-5.6037e+10
-1.2378e+07
4.22483e+07
-5.59851e+10
-2.05103e+07
-4.36203e+07
-5.58946e+10
-2.8662e+07
-1.44243e+08
-5.57657e+10
-3.75905e+07
-2.55094e+08
-5.55945e+10
-4.51104e+07
-3.68152e+08
-5.53822e+10
-5.24726e+07
-4.82616e+08
-5.5136e+10
-5.79802e+07
-5.8407e+08
-5.48681e+10
-6.26028e+07
-6.69391e+08
-5.45843e+10
-6.5125e+07
-7.32601e+08
-5.42939e+10
-6.52894e+07
-7.73084e+08
-5.40006e+10
-6.29053e+07
-7.91231e+08
-5.37077e+10
-5.8252e+07
-7.92169e+08
-5.34161e+10
-5.17495e+07
-7.78046e+08
-5.31288e+10
-4.397e+07
-7.53149e+08
-5.28409e+10
-3.53129e+07
-7.23272e+08
-5.25536e+10
-2.61212e+07
-6.87754e+08
-5.2261e+10
-1.65219e+07
-6.53802e+08
-5.19571e+10
-6.77393e+06
-6.21494e+08
-5.16397e+10
3.05385e+06
-5.89509e+08
-5.12987e+10
1.28665e+07
-5.63373e+08
-5.09268e+10
2.31151e+07
-5.42318e+08
-5.05143e+10
3.35587e+07
-5.26104e+08
-5.0052e+10
4.48676e+07
-5.14851e+08
-4.95316e+10
5.85962e+07
-5.07905e+08
-4.89513e+10
7.63531e+07
-4.98183e+08
-4.82968e+10
9.82909e+07
-4.89443e+08
-4.75615e+10
1.25953e+08
-4.76287e+08
-4.67386e+10
1.62119e+08
-4.55469e+08
-4.58215e+10
2.12971e+08
-4.14436e+08
-4.48068e+10
2.92808e+08
-3.47466e+08
-4.37025e+10
4.15912e+08
-2.68539e+08
-4.25671e+10
5.61897e+08
-1.71444e+08
-4.14852e+10
6.85007e+08
-1.87427e+07
-4.07345e+10
8.61352e+08
3.47491e+08
-4.09901e+10
1.89525e+09
1.13508e+09
-4.34543e+10
4.1493e+09
1.85913e+09
-4.05577e+10
9.32616e+09
-5.68196e+09
4.04316e+09
-8.95348e+09
-6.31274e+10
1.99132e+08
-6.30925e+10
2.09584e+08
-6.30631e+10
2.19701e+08
-6.3036e+10
2.31447e+08
-6.3013e+10
2.41055e+08
-6.29929e+10
2.49385e+08
-6.29779e+10
2.57559e+08
-6.29643e+10
2.60755e+08
-6.29584e+10
2.63232e+08
-6.29565e+10
2.59274e+08
-6.29622e+10
2.52648e+08
-6.29753e+10
2.39882e+08
-6.2995e+10
2.18388e+08
-6.30189e+10
1.87782e+08
-6.30478e+10
1.4858e+08
-6.30719e+10
9.38721e+07
-6.30848e+10
2.45337e+07
-6.30845e+10
-5.50938e+07
-6.30669e+10
-1.47694e+08
-6.30311e+10
-2.46478e+08
-6.29771e+10
-3.46971e+08
-6.29021e+10
-4.46099e+08
-6.28143e+10
-5.32599e+08
-6.27201e+10
-6.02723e+08
-6.26218e+10
-6.5185e+08
-6.25248e+10
-6.79654e+08
-6.24285e+10
-6.86891e+08
-6.23324e+10
-6.78974e+08
-6.22333e+10
-6.58234e+08
-6.21316e+10
-6.28977e+08
-6.20191e+10
-5.97346e+08
-6.1895e+10
-5.62354e+08
-6.17512e+10
-5.31896e+08
-6.15796e+10
-5.05451e+08
-6.13763e+10
-4.82254e+08
-6.11272e+10
-4.69332e+08
-6.08216e+10
-4.65668e+08
-6.04499e+10
-4.69064e+08
-6.00039e+10
-4.79104e+08
-5.94699e+10
-4.96345e+08
-5.88396e+10
-5.14423e+08
-5.80939e+10
-5.36038e+08
-5.72217e+10
-5.53476e+08
-5.62046e+10
-5.6328e+08
-5.5018e+10
-5.52803e+08
-5.36225e+10
-5.11091e+08
-5.19665e+10
-4.35278e+08
-5.00478e+10
-3.16483e+08
-4.79807e+10
-9.66677e+07
-4.63666e+10
4.98611e+08
-4.54711e+10
1.78656e+09
-4.3881e+10
2.72623e+09
-2.24239e+10
-4.79971e+09
-5.11021e+09
-6.02451e+10
-6.5035e+07
2.52508e+08
-6.02591e+10
-7.32303e+07
2.93295e+08
-6.02813e+10
-7.34953e+07
3.13983e+08
-6.03104e+10
-7.70106e+07
3.42355e+08
-6.0348e+10
-8.03812e+07
3.68237e+08
-6.0394e+10
-8.41099e+07
3.93779e+08
-6.04445e+10
-8.77761e+07
4.14859e+08
-6.05026e+10
-9.15375e+07
4.34176e+08
-6.05665e+10
-9.54415e+07
4.50765e+08
-6.06362e+10
-9.94072e+07
4.60952e+08
-6.07089e+10
-1.03428e+08
4.65488e+08
-6.0781e+10
-1.07386e+08
4.60415e+08
-6.08503e+10
-1.11215e+08
4.44769e+08
-6.09139e+10
-1.14646e+08
4.1865e+08
-6.09632e+10
-1.17948e+08
3.74937e+08
-6.09935e+10
-1.20405e+08
3.14497e+08
-6.1004e+10
-1.23951e+08
2.35971e+08
-6.09882e+10
-1.28071e+08
1.39175e+08
-6.09516e+10
-1.34104e+08
2.77127e+07
-6.08878e+10
-1.40821e+08
-9.69789e+07
-6.07963e+10
-1.49657e+08
-2.26388e+08
-6.06764e+10
-1.59349e+08
-3.54989e+08
-6.05353e+10
-1.71067e+08
-4.68187e+08
-6.03833e+10
-1.84149e+08
-5.58139e+08
-6.02283e+10
-1.97756e+08
-6.19529e+08
-6.00792e+10
-2.10859e+08
-6.48532e+08
-5.99407e+10
-2.22645e+08
-6.49189e+08
-5.9817e+10
-2.32662e+08
-6.27366e+08
-5.9712e+10
-2.4088e+08
-5.86965e+08
-5.96257e+10
-2.47274e+08
-5.36915e+08
-5.95616e+10
-2.52042e+08
-4.80117e+08
-5.95164e+10
-2.55227e+08
-4.22306e+08
-5.94929e+10
-2.5687e+08
-3.65712e+08
-5.949e+10
-2.56609e+08
-3.13612e+08
-5.95051e+10
-2.5403e+08
-2.67232e+08
-5.95412e+10
-2.49237e+08
-2.255e+08
-5.95952e+10
-2.4224e+08
-1.93833e+08
-5.96661e+10
-2.3226e+08
-1.69552e+08
-5.97565e+10
-2.18997e+08
-1.49674e+08
-5.98678e+10
-2.02081e+08
-1.34029e+08
-5.99987e+10
-1.81537e+08
-1.18324e+08
-6.0151e+10
-1.56872e+08
-1.01967e+08
-6.03248e+10
-1.27883e+08
-8.14228e+07
-6.05244e+10
-9.38867e+07
-4.81394e+07
-6.07483e+10
-5.42386e+07
854705
-6.10112e+10
-5.24834e+06
7.70402e+07
-6.14e+10
5.48948e+07
2.16865e+08
-6.20358e+10
8.76229e+07
4.65522e+08
-6.31092e+10
8.64428e+07
8.89608e+08
-6.46866e+10
1.00995e+08
1.44607e+09
-6.78313e+10
8.15575e+08
2.75714e+09
-7.45594e+10
2.35459e+09
5.24221e+09
-1.05928e+11
1.01917e+10
1.44267e+10
8.83266e+08
-2.67855e+09
-5.90191e+10
1.81501e+08
-5.90756e+10
2.03914e+08
-5.91322e+10
2.14081e+08
-5.91954e+10
2.29291e+08
-5.92644e+10
2.42117e+08
-5.93409e+10
2.54783e+08
-5.94205e+10
2.63204e+08
-5.95065e+10
2.6996e+08
-5.95974e+10
2.74294e+08
-5.96934e+10
2.72558e+08
-5.9792e+10
2.658e+08
-5.98901e+10
2.50112e+08
-5.99859e+10
2.24733e+08
-6.00774e+10
1.8967e+08
-6.01547e+10
1.38072e+08
-6.02149e+10
6.97906e+07
-6.02543e+10
-1.62874e+07
-6.02675e+10
-1.20577e+08
-6.02551e+10
-2.40444e+08
-6.02116e+10
-3.7428e+08
-6.01342e+10
-5.1374e+08
-6.00252e+10
-6.52768e+08
-5.98906e+10
-7.78206e+08
-5.97416e+10
-8.80154e+08
-5.95868e+10
-9.54204e+08
-5.94357e+10
-9.95725e+08
-5.92932e+10
-1.00879e+09
-5.91633e+10
-9.99319e+08
-5.90489e+10
-9.71364e+08
-5.89485e+10
-9.34177e+08
-5.8864e+10
-8.91006e+08
-5.87908e+10
-8.4785e+08
-5.87292e+10
-8.07258e+08
-5.8676e+10
-7.72427e+08
-5.86243e+10
-7.45178e+08
-5.85753e+10
-7.2473e+08
-5.85245e+10
-7.15202e+08
-5.84676e+10
-7.13367e+08
-5.84018e+10
-7.16302e+08
-5.83245e+10
-7.24128e+08
-5.82309e+10
-7.31827e+08
-5.81191e+10
-7.38484e+08
-5.79825e+10
-7.39982e+08
-5.78179e+10
-7.28942e+08
-5.76095e+10
-7.06845e+08
-5.73439e+10
-6.63887e+08
-5.70445e+10
-5.71915e+08
-5.68045e+10
-4.12285e+08
-5.66333e+10
-2.44342e+08
-5.60804e+10
-2.00654e+08
-5.43657e+10
4.36454e+08
-5.34149e+10
3.53808e+09
-6.39011e+10
1.56414e+10
7.45814e+09
-5.62207e+10
4.37959e+08
-1.61849e+08
-5.62433e+10
4.36505e+08
-1.03647e+08
-5.62773e+10
4.39484e+08
-7.39897e+07
-5.63181e+10
4.40588e+08
-3.91917e+07
-5.63667e+10
4.42201e+08
-6.21436e+06
-5.64226e+10
4.43889e+08
2.60684e+07
-5.64858e+10
4.45958e+08
5.36444e+07
-5.65573e+10
4.4829e+08
8.02344e+07
-5.66344e+10
4.50931e+08
1.01498e+08
-5.67182e+10
4.53844e+08
1.17165e+08
-5.68081e+10
4.56935e+08
1.26743e+08
-5.69033e+10
4.6011e+08
1.26105e+08
-5.70043e+10
4.63326e+08
1.1629e+08
-5.7105e+10
4.66393e+08
9.11607e+07
-5.7203e+10
4.69214e+08
4.83097e+07
-5.72919e+10
4.71791e+08
-1.2763e+07
-5.73663e+10
4.73054e+08
-9.76989e+07
-5.742e+10
4.73924e+08
-2.02317e+08
-5.7453e+10
4.71703e+08
-3.28035e+08
-5.74572e+10
4.67907e+08
-4.68718e+08
-5.74319e+10
4.60698e+08
-6.1871e+08
-5.7373e+10
4.52504e+08
-7.63751e+08
-5.72928e+10
4.40948e+08
-8.89696e+08
-5.72011e+10
4.28195e+08
-9.81334e+08
-5.71128e+10
4.13746e+08
-1.0329e+09
-5.70332e+10
3.99197e+08
-1.04454e+09
-5.69658e+10
3.85346e+08
-1.0225e+09
-5.69096e+10
3.72965e+08
-9.776e+08
-5.68613e+10
3.62469e+08
-9.1763e+08
-5.68164e+10
3.54235e+08
-8.53806e+08
-5.67695e+10
3.48532e+08
-7.91142e+08
-5.67151e+10
3.45671e+08
-7.35498e+08
-5.66481e+10
3.45803e+08
-6.89463e+08
-5.6565e+10
3.48792e+08
-6.53954e+08
-5.64613e+10
3.54758e+08
-6.31645e+08
-5.63324e+10
3.64658e+08
-6.21616e+08
-5.61809e+10
3.78813e+08
-6.22363e+08
-5.60024e+10
3.97274e+08
-6.37248e+08
-5.57925e+10
4.19988e+08
-6.63374e+08
-5.55453e+10
4.47351e+08
-7.01334e+08
-5.5253e+10
4.79494e+08
-7.48566e+08
-5.49101e+10
5.17226e+08
-8.01603e+08
-5.45071e+10
5.61411e+08
-8.61243e+08
-5.40325e+10
6.13106e+08
-9.21268e+08
-5.34769e+10
6.73235e+08
-9.80546e+08
-5.28389e+10
7.46057e+08
-1.03322e+09
-5.21144e+10
8.30595e+08
-1.06305e+09
-5.12662e+10
9.07815e+08
-1.06207e+09
-5.01533e+10
9.12116e+08
-1.02325e+09
-4.8741e+10
8.22805e+08
-8.33334e+08
-4.76661e+10
1.24456e+09
3.6923e+08
-4.95451e+10
3.22008e+09
3.89033e+09
-6.33027e+10
1.1967e+10
1.65596e+10
5.5897e+09
6.70594e+09
-5.82088e+10
6.72081e+08
-5.82791e+10
7.22473e+08
-5.83523e+10
7.38893e+08
-5.84336e+10
7.6395e+08
-5.85217e+10
7.85916e+08
-5.8617e+10
8.08256e+08
-5.87188e+10
8.26111e+08
-5.88276e+10
8.4338e+08
-5.89405e+10
8.55689e+08
-5.90579e+10
8.62685e+08
-5.91784e+10
8.63744e+08
-5.93e+10
8.54399e+08
-5.94226e+10
8.35483e+08
-5.95384e+10
8.00263e+08
-5.9644e+10
7.46256e+08
-5.97337e+10
6.71208e+08
-5.98001e+10
5.71307e+08
-5.98392e+10
4.46402e+08
-5.98466e+10
2.98051e+08
-5.98178e+10
1.28023e+08
-5.97488e+10
-5.39753e+07
-5.96414e+10
-2.37682e+08
-5.95037e+10
-4.04291e+08
-5.93476e+10
-5.40202e+08
-5.91874e+10
-6.3619e+08
-5.90313e+10
-6.90512e+08
-5.88862e+10
-7.06954e+08
-5.87552e+10
-6.9477e+08
-5.86391e+10
-6.60597e+08
-5.85368e+10
-6.15599e+08
-5.84455e+10
-5.64619e+08
-5.83621e+10
-5.14063e+08
-5.82828e+10
-4.66659e+08
-5.82063e+10
-4.23366e+08
-5.81301e+10
-3.86774e+08
-5.80497e+10
-3.56897e+08
-5.79649e+10
-3.32722e+08
-5.78692e+10
-3.17122e+08
-5.7757e+10
-3.05849e+08
-5.76217e+10
-2.99579e+08
-5.74533e+10
-2.95385e+08
-5.7243e+10
-2.90446e+08
-5.69741e+10
-2.86573e+08
-5.66261e+10
-2.7978e+08
-5.61758e+10
-2.76527e+08
-5.55998e+10
-2.69817e+08
-5.4872e+10
-2.46546e+08
-5.39786e+10
-2.10113e+08
-5.29066e+10
-2.7503e+08
-5.1551e+10
-6.44569e+08
-4.8926e+10
-8.49482e+08
-4.38401e+10
1.97318e+09
-2.76693e+10
1.18468e+10
5.70859e+09
-5.63821e+10
4.57202e+08
-6.41872e+08
-5.63422e+10
4.64059e+08
-5.893e+08
-5.63129e+10
4.66773e+08
-5.50887e+08
-5.62901e+10
4.69564e+08
-5.11605e+08
-5.62742e+10
4.72003e+08
-4.72918e+08
-5.62638e+10
4.74203e+08
-4.3605e+08
-5.62608e+10
4.76111e+08
-4.01458e+08
-5.62647e+10
4.77692e+08
-3.67768e+08
-5.6275e+10
4.78971e+08
-3.39085e+08
-5.62924e+10
4.79912e+08
-3.14817e+08
-5.63133e+10
4.80423e+08
-2.9941e+08
-5.6338e+10
4.80432e+08
-2.93266e+08
-5.63618e+10
4.7987e+08
-2.99752e+08
-5.63798e+10
4.78496e+08
-3.25504e+08
-5.63842e+10
4.76665e+08
-3.72377e+08
-5.6366e+10
4.73363e+08
-4.46838e+08
-5.63124e+10
4.69847e+08
-5.49782e+08
-5.62153e+10
4.63836e+08
-6.84885e+08
-5.60621e+10
4.56675e+08
-8.48554e+08
-5.58475e+10
4.46695e+08
-1.03844e+09
-5.55562e+10
4.37331e+08
-1.24553e+09
-5.51888e+10
4.28196e+08
-1.4542e+09
-5.47538e+10
4.21308e+08
-1.63508e+09
-5.42787e+10
4.1643e+08
-1.76219e+09
-5.37955e+10
4.14263e+08
-1.82113e+09
-5.33311e+10
4.1495e+08
-1.81469e+09
-5.29068e+10
4.17959e+08
-1.75334e+09
-5.25359e+10
4.22118e+08
-1.65491e+09
-5.22214e+10
4.26084e+08
-1.5368e+09
-5.19641e+10
4.28297e+08
-1.4116e+09
-5.1757e+10
4.27816e+08
-1.29131e+09
-5.15925e+10
4.24541e+08
-1.18277e+09
-5.14633e+10
4.18959e+08
-1.08818e+09
-5.136e+10
4.1145e+08
-1.01112e+09
-5.12759e+10
4.02438e+08
-9.50898e+08
-5.1202e+10
3.91109e+08
-9.08567e+08
-5.11298e+10
3.7749e+08
-8.80545e+08
-5.10549e+10
3.62262e+08
-8.67186e+08
-5.09713e+10
3.46823e+08
-8.66847e+08
-5.0879e+10
3.32464e+08
-8.75918e+08
-5.07739e+10
3.20885e+08
-8.95439e+08
-5.06525e+10
3.13459e+08
-9.22809e+08
-5.05102e+10
3.11839e+08
-9.59351e+08
-5.03341e+10
3.17795e+08
-1.01063e+09
-5.01116e+10
3.323e+08
-1.08007e+09
-4.98293e+10
3.59166e+08
-1.1763e+09
-4.94875e+10
4.17516e+08
-1.29693e+09
-4.90917e+10
5.17211e+08
-1.43771e+09
-4.84845e+10
6.04205e+08
-1.66821e+09
-4.69561e+10
4.54094e+08
-2.11552e+09
-4.32491e+10
2.47878e+08
-2.6768e+09
-3.91951e+10
2.61376e+09
-1.4136e+09
-3.94213e+10
1.13232e+10
6.71775e+09
5.44839e+09
4.63607e+09
-5.78956e+10
1.11414e+09
-5.78702e+10
1.17354e+09
-5.78506e+10
1.19903e+09
-5.7835e+10
1.23145e+09
-5.78239e+10
1.26116e+09
-5.78153e+10
1.28915e+09
-5.7811e+10
1.31431e+09
-5.78103e+10
1.33809e+09
-5.78129e+10
1.35649e+09
-5.78194e+10
1.37015e+09
-5.78269e+10
1.37453e+09
-5.78365e+10
1.36933e+09
-5.78447e+10
1.35094e+09
-5.78483e+10
1.31279e+09
-5.78433e+10
1.25217e+09
-5.78213e+10
1.16314e+09
-5.77768e+10
1.04313e+09
-5.77022e+10
8.88573e+08
-5.75922e+10
7.02122e+08
-5.7441e+10
4.85618e+08
-5.72397e+10
2.47743e+08
-5.69868e+10
7.42408e+06
-5.66928e+10
-2.0499e+08
-5.63779e+10
-3.66568e+08
-5.60646e+10
-4.63408e+08
-5.57689e+10
-4.98712e+08
-5.55014e+10
-4.81947e+08
-5.52668e+10
-4.29595e+08
-5.50622e+10
-3.57716e+08
-5.48874e+10
-2.76888e+08
-5.47386e+10
-1.96361e+08
-5.46109e+10
-1.23602e+08
-5.44991e+10
-6.15629e+07
-5.43946e+10
-1.32512e+07
-5.42922e+10
2.2148e+07
-5.41842e+10
4.21362e+07
-5.40646e+10
4.96271e+07
-5.39284e+10
4.3953e+07
-5.37661e+10
2.65016e+07
-5.35705e+10
696980
-5.3328e+10
-3.43346e+07
-5.30228e+10
-7.61694e+07
-5.26353e+10
-1.28135e+08
-5.21381e+10
-1.93905e+08
-5.15111e+10
-2.75497e+08
-5.07214e+10
-3.81372e+08
-4.9698e+10
-5.22153e+08
-4.83443e+10
-7.09617e+08
-4.66726e+10
-9.81394e+08
-4.53063e+10
-1.10463e+09
-4.42747e+10
-9.70809e+08
-3.74321e+10
-1.48836e+09
-7.90996e+09
-5.81841e+09
-3.83427e+09
-5.87307e+10
5.74342e+07
-6.51413e+08
-5.8787e+10
5.57407e+07
-5.72359e+08
-5.88453e+10
4.78817e+07
-5.2349e+08
-5.89116e+10
4.1312e+07
-4.68785e+08
-5.8985e+10
3.40973e+07
-4.14819e+08
-5.90645e+10
2.66752e+07
-3.63303e+08
-5.91519e+10
1.88822e+07
-3.11725e+08
-5.92468e+10
1.09404e+07
-2.61057e+08
-5.93502e+10
2.97541e+06
-2.14027e+08
-5.94586e+10
-4.90897e+06
-1.74991e+08
-5.95762e+10
-1.25882e+07
-1.40773e+08
-5.96996e+10
-1.99514e+07
-1.19625e+08
-5.98262e+10
-2.67988e+07
-1.14432e+08
-5.99542e+10
-3.28654e+07
-1.30974e+08
-6.00768e+10
-3.78852e+07
-1.75777e+08
-6.01862e+10
-4.16367e+07
-2.56541e+08
-6.02684e+10
-4.35428e+07
-3.78019e+08
-6.03161e+10
-4.48383e+07
-5.43705e+08
-6.03135e+10
-4.45201e+07
-7.5182e+08
-6.025e+10
-4.45676e+07
-1.00275e+09
-6.0102e+10
-4.32518e+07
-1.29047e+09
-5.98589e+10
-4.16652e+07
-1.59577e+09
-5.95139e+10
-4.12178e+07
-1.87258e+09
-5.90915e+10
-4.67905e+07
-2.0721e+09
-5.86191e+10
-5.68393e+07
-2.16947e+09
-5.81292e+10
-7.03372e+07
-2.16626e+09
-5.76437e+10
-8.51171e+07
-2.08312e+09
-5.71787e+10
-9.96337e+07
-1.94646e+09
-5.67456e+10
-1.12737e+08
-1.77991e+09
-5.63464e+10
-1.23649e+08
-1.60622e+09
-5.59839e+10
-1.32422e+08
-1.43708e+09
-5.56546e+10
-1.39824e+08
-1.28464e+09
-5.53544e+10
-1.45512e+08
-1.15185e+09
-5.50794e+10
-1.49018e+08
-1.04262e+09
-5.48233e+10
-1.5059e+08
-9.57857e+08
-5.45796e+10
-1.51492e+08
-8.97212e+08
-5.43385e+10
-1.52007e+08
-8.59681e+08
-5.40909e+10
-1.52053e+08
-8.44579e+08
-5.38281e+10
-1.5154e+08
-8.49298e+08
-5.35338e+10
-1.50488e+08
-8.77624e+08
-5.31974e+10
-1.49247e+08
-9.23495e+08
-5.28001e+10
-1.49151e+08
-9.9055e+08
-5.23194e+10
-1.52894e+08
-1.08144e+09
-5.17296e+10
-1.62464e+08
-1.2053e+09
-5.10081e+10
-1.81134e+08
-1.3666e+09
-5.0128e+10
-2.13484e+08
-1.58271e+09
-4.90417e+10
-2.57175e+08
-1.88235e+09
-4.76824e+10
-2.92326e+08
-2.29681e+09
-4.59402e+10
-3.42002e+08
-2.87526e+09
-4.40602e+10
-3.98797e+08
-3.36447e+09
-4.2373e+10
-4.58929e+08
-3.36562e+09
-3.80675e+10
-4.5558e+08
-4.56738e+09
-1.16243e+10
-3.98508e+09
-1.532e+10
-2.05056e+09
-8.97216e+09
-5.72656e+10
1.12788e+09
-5.72061e+10
1.17999e+09
-5.71557e+10
1.20719e+09
-5.71088e+10
1.23697e+09
-5.70673e+10
1.26557e+09
-5.70289e+10
1.28986e+09
-5.69955e+10
1.3131e+09
-5.69665e+10
1.33433e+09
-5.69426e+10
1.35113e+09
-5.69202e+10
1.35951e+09
-5.69034e+10
1.36295e+09
-5.68888e+10
1.35359e+09
-5.68739e+10
1.32891e+09
-5.6857e+10
1.2834e+09
-5.68314e+10
1.21055e+09
-5.67892e+10
1.10339e+09
-5.6719e+10
9.55512e+08
-5.6612e+10
7.65819e+08
-5.64569e+10
5.32514e+08
-5.62412e+10
2.56706e+08
-5.59431e+10
-6.1814e+07
-5.55453e+10
-3.97825e+08
-5.50436e+10
-7.13338e+08
-5.44672e+10
-9.5473e+08
-5.38566e+10
-1.09583e+09
-5.32542e+10
-1.13556e+09
-5.26896e+10
-1.09427e+09
-5.21813e+10
-9.98348e+08
-5.17389e+10
-8.71921e+08
-5.13597e+10
-7.37576e+08
-5.10386e+10
-6.06614e+08
-5.07665e+10
-4.91447e+08
-5.05373e+10
-3.91639e+08
-5.0345e+10
-3.09326e+08
-5.0185e+10
-2.42457e+08
-5.0056e+10
-1.90859e+08
-4.99572e+10
-1.51404e+08
-4.98904e+10
-1.2151e+08
-4.98594e+10
-9.74067e+07
-4.98611e+10
-8.19545e+07
-4.98991e+10
-6.92073e+07
-4.9972e+10
-6.24613e+07
-5.00786e+10
-6.81049e+07
-5.02164e+10
-9.63345e+07
-5.03826e+10
-1.58717e+08
-5.05638e+10
-2.87354e+08
-5.07026e+10
-5.38379e+08
-5.06296e+10
-1.00802e+09
-5.00426e+10
-1.84384e+09
-4.85887e+10
-2.79044e+09
-4.60408e+10
-3.69201e+09
-4.08181e+10
-6.7674e+09
-2.80805e+10
-2.243e+10
-1.11986e+10
-5.73734e+10
1.32607e+07
-6.32089e+08
-5.74269e+10
2.62703e+07
-5.33736e+08
-5.74866e+10
3.23028e+07
-4.84184e+08
-5.7555e+10
3.92123e+07
-4.27281e+08
-5.76322e+10
4.76263e+07
-3.72441e+08
-5.77182e+10
5.66065e+07
-3.20487e+08
-5.78146e+10
6.67183e+07
-2.67967e+08
-5.79187e+10
7.78987e+07
-2.198e+08
-5.8033e+10
9.02883e+07
-1.74091e+08
-5.81601e+10
1.03911e+08
-1.35094e+08
-5.8298e+10
1.18801e+08
-1.04425e+08
-5.84496e+10
1.34935e+08
-8.59515e+07
-5.86154e+10
1.52347e+08
-8.50609e+07
-5.87936e+10
1.71093e+08
-1.09477e+08
-5.89827e+10
1.91002e+08
-1.66549e+08
-5.91742e+10
2.12686e+08
-2.66935e+08
-5.93633e+10
2.34965e+08
-4.18078e+08
-5.95355e+10
2.59114e+08
-6.23752e+08
-5.96861e+10
2.83077e+08
-8.82799e+08
-5.98049e+10
3.07699e+08
-1.19035e+09
-5.98829e+10
3.30518e+08
-1.54876e+09
-5.98992e+10
3.53306e+08
-1.93712e+09
-5.98591e+10
3.71958e+08
-2.29152e+09
-5.97954e+10
3.85509e+08
-2.52733e+09
-5.97561e+10
3.91361e+08
-2.60594e+09
-5.97678e+10
3.88959e+08
-2.54804e+09
-5.98369e+10
3.78584e+08
-2.39604e+09
-5.99566e+10
3.61619e+08
-2.19141e+09
-6.01126e+10
3.39927e+08
-1.96784e+09
-6.0291e+10
3.15587e+08
-1.7496e+09
-6.048e+10
2.90303e+08
-1.54802e+09
-6.0675e+10
2.6544e+08
-1.36937e+09
-6.08749e+10
2.42745e+08
-1.21474e+09
-6.10817e+10
2.20842e+08
-1.08347e+09
-6.12999e+10
1.99227e+08
-9.73436e+08
-6.15387e+10
1.78227e+08
-8.79241e+08
-6.18067e+10
1.57359e+08
-8.00207e+08
-6.21171e+10
1.35968e+08
-7.29687e+08
-6.24805e+10
1.13202e+08
-6.66869e+08
-6.29144e+10
8.83848e+07
-6.07279e+08
-6.34313e+10
6.07327e+07
-5.49295e+08
-6.40496e+10
2.99384e+07
-4.89955e+08
-6.47948e+10
-3.85524e+06
-4.27252e+08
-6.56929e+10
-4.32069e+07
-3.73091e+08
-6.67722e+10
-9.08424e+07
-3.3692e+08
-6.8069e+10
-1.48203e+08
-3.4049e+08
-6.96159e+10
-2.14353e+08
-4.29705e+08
-7.13135e+10
-2.95458e+08
-7.60722e+08
-7.28056e+10
-4.13246e+08
-1.59056e+09
-7.26805e+10
-7.03759e+08
-3.41098e+09
-6.8333e+10
-1.42015e+09
-7.00269e+09
-5.71624e+10
-3.43409e+09
-1.29342e+10
-4.19835e+10
-8.79898e+09
-2.19651e+10
-3.22635e+09
-4.94527e+09
-6.00243e+10
1.1382e+09
-6.00242e+10
1.21334e+09
-6.00269e+10
1.24976e+09
-6.00364e+10
1.29347e+09
-6.00517e+10
1.33667e+09
-6.00743e+10
1.37754e+09
-6.01058e+10
1.4204e+09
-6.01445e+10
1.46048e+09
-6.01931e+10
1.50024e+09
-6.02546e+10
1.53563e+09
-6.03274e+10
1.56547e+09
-6.04144e+10
1.58604e+09
-6.05153e+10
1.59198e+09
-6.06276e+10
1.57524e+09
-6.07469e+10
1.52809e+09
-6.08634e+10
1.43784e+09
-6.09649e+10
1.29612e+09
-6.10334e+10
1.09563e+09
-6.10529e+10
8.354e+08
-6.10065e+10
5.15715e+08
-6.08708e+10
1.29053e+08
-6.06233e+10
-2.97917e+08
-6.02618e+10
-7.09481e+08
-5.98177e+10
-1.01968e+09
-5.93476e+10
-1.17992e+09
-5.8897e+10
-1.20107e+09
-5.84953e+10
-1.12016e+09
-5.81573e+10
-9.77406e+08
-5.78848e+10
-8.07928e+08
-5.76738e+10
-6.38298e+08
-5.75158e+10
-4.8232e+08
-5.74029e+10
-3.50454e+08
-5.73291e+10
-2.3848e+08
-5.729e+10
-1.48143e+08
-5.72841e+10
-7.51362e+07
-5.73124e+10
-1.60049e+07
-5.73728e+10
2.91327e+07
-5.74681e+10
6.67969e+07
-5.75974e+10
9.7081e+07
-5.77666e+10
1.23026e+08
-5.79758e+10
1.44269e+08
-5.82295e+10
1.61447e+08
-5.85377e+10
1.71627e+08
-5.89146e+10
1.61921e+08
-5.93901e+10
1.26092e+08
-6.00148e+10
4.27106e+07
-6.08525e+10
-1.36138e+08
-6.19343e+10
-5.36558e+08
-6.31684e+10
-1.4193e+09
-6.38349e+10
-3.28883e+09
-6.23988e+10
-7.00313e+09
-5.88691e+10
-1.41034e+10
-6.57936e+10
-2.46892e+10
-6.42255e+09
-5.66649e+10
3.84653e+07
-7.2047e+08
-5.65968e+10
5.76041e+07
-6.50487e+08
-5.65363e+10
6.68506e+07
-6.02318e+08
-5.6479e+10
7.87468e+07
-5.54077e+08
-5.64279e+10
9.08377e+07
-5.05059e+08
-5.63833e+10
1.02485e+08
-4.58096e+08
-5.6347e+10
1.13954e+08
-4.08531e+08
-5.63211e+10
1.2492e+08
-3.60538e+08
-5.63059e+10
1.35243e+08
-3.14208e+08
-5.63049e+10
1.44726e+08
-2.70394e+08
-5.63203e+10
1.53217e+08
-2.32107e+08
-5.6351e+10
1.60573e+08
-2.06812e+08
-5.63976e+10
1.66689e+08
-1.98144e+08
-5.6458e+10
1.71538e+08
-2.16525e+08
-5.65221e+10
1.7517e+08
-2.77183e+08
-5.65778e+10
1.7764e+08
-3.93124e+08
-5.66044e+10
1.78954e+08
-5.79869e+08
-5.65786e+10
1.80031e+08
-8.42805e+08
-5.64796e+10
1.81204e+08
-1.18195e+09
-5.62827e+10
1.84752e+08
-1.5951e+09
-5.59589e+10
1.90401e+08
-2.0925e+09
-5.54567e+10
1.99082e+08
-2.67015e+09
-5.47527e+10
2.11456e+08
-3.24178e+09
-5.39157e+10
2.31514e+08
-3.62757e+09
-5.30873e+10
2.60171e+08
-3.72176e+09
-5.23737e+10
2.96012e+08
-3.5804e+09
-5.18183e+10
3.34851e+08
-3.30595e+09
-5.14258e+10
3.72067e+08
-2.97499e+09
-5.11738e+10
4.04309e+08
-2.64525e+09
-5.10324e+10
4.29228e+08
-2.34533e+09
-5.0971e+10
4.45852e+08
-2.08602e+09
-5.09669e+10
4.55678e+08
-1.86702e+09
-5.10021e+10
4.60396e+08
-1.68622e+09
-5.10643e+10
4.60669e+08
-1.53786e+09
-5.11485e+10
4.56444e+08
-1.41228e+09
-5.12479e+10
4.47388e+08
-1.30538e+09
-5.13625e+10
4.33021e+08
-1.20883e+09
-5.14879e+10
4.12756e+08
-1.1194e+09
-5.16263e+10
3.85529e+08
-1.02863e+09
-5.17762e+10
3.50906e+08
-9.34746e+08
-5.1938e+10
3.08648e+08
-8.34305e+08
-5.21123e+10
2.58007e+08
-7.24078e+08
-5.23007e+10
1.98346e+08
-6.0376e+08
-5.25137e+10
1.28602e+08
-4.84041e+08
-5.27761e+10
4.85801e+07
-3.71737e+08
-5.31347e+10
-4.1671e+07
-2.82822e+08
-5.36769e+10
-1.40361e+08
-2.31749e+08
-5.45918e+10
-2.40858e+08
-2.87053e+08
-5.61073e+10
-3.28603e+08
-6.3596e+08
-5.86578e+10
-4.48085e+08
-1.64776e+09
-6.28467e+10
-1.01825e+09
-3.26332e+09
-6.78272e+10
-1.73197e+09
-7.58067e+09
-6.72955e+10
-2.78519e+09
-2.07746e+10
1.70705e+10
-1.06744e+10
-5.98944e+10
1.11392e+09
-5.98104e+10