/*--------------------------------*- C++ -*----------------------------------*\
| =========                 |                                                 |
| \\      /  F ield         | OpenFOAM: The Open Source CFD Toolbox           |
|  \\    /   O peration     | Version:  4.1                                   |
|   \\  /    A nd           | Web:      www.OpenFOAM.org                      |
|    \\/     M anipulation  |                                                 |
\*---------------------------------------------------------------------------*/
FoamFile
{
    version     2.0;
    format      ascii;
    class       volVectorField;
    location    "100";
    object      U;
}
// * * * * * * * * * * * * * * * * * * * * * * * * * * * * * * * * * * * * * //

dimensions      [0 1 -1 0 0 0 0];

internalField   nonuniform List<vector> 
4432
(
(-152769 -3102.98 -1747.11)
(-153785 -3155.84 -1768.6)
(-154357 -3133.98 -1737.14)
(-155035 -3148.62 -1740.38)
(-155731 -3152.22 -1740.99)
(-156454 -3155.85 -1739.71)
(-157184 -3162.11 -1751.88)
(-157917 -3168.4 -1775.18)
(-158639 -3174.93 -1814.79)
(-159335 -3181.87 -1874.66)
(-159984 -3189.34 -1958.12)
(-160562 -3197.17 -2069.49)
(-161040 -3204.77 -2212.78)
(-161376 -3212.19 -2389.23)
(-161537 -3219.37 -2598.41)
(-161477 -3226.84 -2835.41)
(-161164 -3239.13 -3099.9)
(-160572 -3257.92 -3385.97)
(-159680 -3283.61 -3690.43)
(-158475 -3314.45 -4005.43)
(-156944 -3351.95 -4325.7)
(-155089 -3394.17 -4636.67)
(-152940 -3442.83 -4927.24)
(-150535 -3495.36 -5185.14)
(-147929 -3550.04 -5402.57)
(-145163 -3604.55 -5576.56)
(-142288 -3656.83 -5705.47)
(-139346 -3705.39 -5790.56)
(-136392 -3748.65 -5833.64)
(-133465 -3785.37 -5837.98)
(-130613 -3814.37 -5807.4)
(-127871 -3834.55 -5745.65)
(-125263 -3845.17 -5658.01)
(-122818 -3845.38 -5548.35)
(-120543 -3835.39 -5422.44)
(-118447 -3815.61 -5286.4)
(-116533 -3785.45 -5147.52)
(-114806 -3744.92 -5007.09)
(-113239 -3693.29 -4875.15)
(-111830 -3624.97 -4744.97)
(-110594 -3532.91 -4608.98)
(-109458 -3410.11 -4460.02)
(-108191 -3251.17 -4277.46)
(-106542 -3049.87 -4009.54)
(-104820 -2796.31 -3573.35)
(-104349 -2483.99 -2901.83)
(-106219 -2138.17 -2076.44)
(-107956 -1806.66 -1103.57)
(-103792 -1287.3 784.059)
(-96766.3 533.073 6317.67)
(-109692 6503.39 12647)
(-153174 13111.2 16904.3)
(-177657 23015.3 -2755.83)
(-53814.5 9764.25 -7347.53)
(-185682 3315.77 -285.057)
(-186513 3289.78 -283.471)
(-187060 3310.42 -298.497)
(-187703 3304.59 -303.756)
(-188347 3305.88 -318.918)
(-189021 3306.79 -332.799)
(-189701 3304.76 -357.035)
(-190383 3301.87 -390.866)
(-191057 3297.85 -438.814)
(-191712 3292.39 -503.549)
(-192329 3285.18 -587.836)
(-192888 3276.17 -695.014)
(-193364 3265.59 -828.082)
(-193723 3253.14 -987.88)
(-193937 3238.59 -1173.61)
(-193968 3221.56 -1383.01)
(-193787 3200.26 -1609.69)
(-193389 3177.71 -1849.63)
(-192760 3153.6 -2099.29)
(-191892 3129.74 -2353.46)
(-190781 3106.01 -2603.51)
(-189436 3084.45 -2839.22)
(-187885 3063.74 -3048.96)
(-186164 3046.19 -3223.87)
(-184319 3032.02 -3357.81)
(-182389 3023 -3448.9)
(-180415 3019.48 -3497.11)
(-178427 3022.17 -3504.87)
(-176464 3030.6 -3475.51)
(-174547 3044.82 -3413.43)
(-172704 3064.16 -3323.29)
(-170945 3088.03 -3209.71)
(-169273 3115.74 -3077.1)
(-167691 3145.86 -2929.57)
(-166186 3177.38 -2771.04)
(-164747 3209.2 -2606.55)
(-163353 3239.49 -2440.47)
(-161982 3265.84 -2271.89)
(-160620 3287.63 -2092.79)
(-159250 3311.32 -1901.49)
(-157856 3339.8 -1689.75)
(-156350 3374.93 -1447.6)
(-154529 3416.5 -1156.78)
(-152172 3463.76 -777.912)
(-149461 3517.19 -244.436)
(-147303 3573.74 497.198)
(-146402 3609.71 1389.78)
(-144724 3592.25 2405.51)
(-137625 3653.52 4105.1)
(-126728 4501.86 7771.91)
(-131643 7779.14 10329.8)
(-156288 9421 11548)
(-177080 7890.66 5720.05)
(22038.5 7901.09 -21174.1)
(-267012 -1393.67 3005.6)
(-267191 -1389.87 3062.03)
(-267353 -1392.13 3127.39)
(-267533 -1387.69 3185.43)
(-267719 -1384.94 3240.23)
(-267922 -1382.29 3295.82)
(-268135 -1380.55 3342.6)
(-268354 -1379.26 3378.82)
(-268576 -1378.97 3400.28)
(-268799 -1379.6 3404.28)
(-269017 -1381.64 3387.99)
(-269224 -1385.22 3348.07)
(-269409 -1390.11 3281.75)
(-269558 -1396.81 3186.87)
(-269655 -1405.37 3064.51)
(-269688 -1417.84 2919.3)
(-269656 -1432.14 2755.41)
(-269581 -1448.11 2579.25)
(-269451 -1466.12 2387.38)
(-269271 -1486.43 2192.32)
(-269040 -1507.09 2002.18)
(-268765 -1528.77 1835.96)
(-268462 -1551.1 1707.99)
(-268155 -1574.04 1635.5)
(-267872 -1597.11 1626.54)
(-267620 -1619.74 1683.4)
(-267418 -1641.67 1804.55)
(-267264 -1663.14 1984.1)
(-267170 -1684.27 2215.45)
(-267139 -1705.55 2489.68)
(-267179 -1727.07 2798.39)
(-267295 -1749.19 3132.55)
(-267494 -1771.77 3484.24)
(-267789 -1794.89 3846.82)
(-268189 -1818.15 4214.18)
(-268716 -1841.89 4583.29)
(-269396 -1865.97 4951.18)
(-270257 -1888.39 5317.15)
(-271368 -1905.7 5685.95)
(-272783 -1916.67 6060.25)
(-274570 -1917.68 6446.62)
(-276776 -1903.63 6858.61)
(-279409 -1869.21 7316.8)
(-282432 -1810.57 7860.32)
(-286104 -1716.22 8557.65)
(-291293 -1568.3 9423.25)
(-298856 -1359.52 10306.5)
(-307887 -1106.2 11053.1)
(-314637 -651.661 12264)
(-321155 420.735 14601.3)
(-336628 2590.27 16951.4)
(-407109 4430.65 12550.4)
(-459368 8238.41 -4330.41)
(-473576 19397.9 -25985.5)
(-304967 1395.43 1550.6)
(-305042 1374.91 1621.65)
(-305121 1359.06 1654.04)
(-305208 1346.26 1706.15)
(-305308 1332.12 1748.63)
(-305422 1317.27 1791.12)
(-305546 1301.32 1826.5)
(-305678 1284.83 1852.58)
(-305817 1267.64 1865.08)
(-305962 1250.09 1861.75)
(-306111 1232.26 1839.85)
(-306260 1214.54 1796.24)
(-306402 1197.57 1727.87)
(-306528 1181.75 1632.77)
(-306628 1167.5 1512.05)
(-306694 1153.25 1369.88)
(-306732 1139.02 1211.56)
(-306744 1121.04 1037.68)
(-306721 1099.99 848.596)
(-306666 1075.7 652.471)
(-306582 1049.73 460.219)
(-306474 1021.7 285.619)
(-306358 992.156 145.039)
(-306254 961.585 51.0239)
(-306184 930.719 12.1227)
(-306156 900.805 30.2464)
(-306183 872.389 103.84)
(-306264 845.973 227.37)
(-306405 821.675 394.378)
(-306603 799.577 596.583)
(-306859 779.682 826.529)
(-307169 761.934 1076.94)
(-307529 746.477 1341.87)
(-307935 733.168 1616.59)
(-308381 722.221 1897.48)
(-308869 712.907 2182.89)
(-309404 704.656 2471.95)
(-310002 699.539 2761.69)
(-310664 698.05 3052.55)
(-311405 698.111 3350.25)
(-312245 700.637 3664.26)
(-313180 707.369 4005.52)
(-314134 718.297 4391.13)
(-315031 730.594 4859.92)
(-316036 744.468 5473.27)
(-317766 760.937 6248.6)
(-320677 763.4 7103.81)
(-323617 683.818 8066.22)
(-323297 644.777 9737.96)
(-320600 967.86 12300.6)
(-321495 1593.84 14585.7)
(-351027 -2700.27 16159.8)
(-327426 5543.42 -1754.68)
(-305108 -1306.6 -211.884)
(-224397 -2324.98 -1191.93)
(-224270 -2316.87 -1148.99)
(-224211 -2336.25 -1143.95)
(-224157 -2340.43 -1112.97)
(-224108 -2348.96 -1099)
(-224066 -2358.62 -1093.14)
(-224036 -2370.18 -1096.89)
(-224014 -2382.63 -1114.72)
(-224002 -2397.02 -1150.28)
(-224004 -2413.3 -1206.22)
(-224019 -2432.12 -1286.92)
(-224051 -2453.71 -1396.28)
(-224095 -2478.55 -1538.65)
(-224147 -2506.93 -1720.38)
(-224197 -2538.62 -1945.09)
(-224226 -2572.72 -2218.67)
(-224197 -2606.07 -2537.33)
(-224043 -2641.3 -2910.05)
(-223751 -2675.55 -3328.66)
(-223306 -2710.41 -3785.65)
(-222694 -2740.74 -4261.27)
(-221914 -2768.49 -4735.92)
(-220985 -2789.55 -5180.18)
(-219943 -2806.05 -5570.78)
(-218830 -2816.02 -5891.44)
(-217678 -2819.88 -6136.39)
(-216511 -2818.44 -6306.39)
(-215343 -2813.84 -6408.44)
(-214185 -2808.36 -6450.36)
(-213040 -2804.54 -6442.64)
(-211906 -2804.26 -6393.93)
(-210772 -2808.57 -6313.14)
(-209626 -2817.38 -6206.01)
(-208446 -2830.79 -6078.71)
(-207211 -2848.52 -5936.21)
(-205896 -2870.15 -5781.68)
(-204472 -2894.59 -5618.34)
(-202903 -2921.54 -5450.4)
(-201153 -2947.57 -5281.87)
(-199214 -2965.31 -5108.49)
(-197092 -2967.9 -4915.94)
(-194738 -2953.19 -4691.87)
(-191933 -2916.2 -4432.92)
(-188477 -2850.02 -4105.51)
(-184545 -2744.24 -3637.54)
(-181053 -2577.91 -2983.4)
(-178774 -2312.28 -2218.57)
(-175494 -1862.06 -1510.04)
(-166323 -889.321 -923.495)
(-152541 1235.38 283.267)
(-156111 6335 5823.83)
(-196358 11468.4 13248.7)
(-219385 24916.8 4127.76)
(-85984.8 10445.8 -882.382)
(-252610 2621.39 118.346)
(-252419 2630.81 143.61)
(-252315 2617.8 158.74)
(-252191 2617.94 182.735)
(-252096 2615.18 197.307)
(-252008 2611.68 203.969)
(-251936 2606.85 204.443)
(-251879 2601.34 193.737)
(-251839 2594.02 168.766)
(-251821 2584.49 126.824)
(-251828 2571.91 64.1043)
(-251863 2555.57 -23.1033)
(-251924 2534.48 -139.476)
(-252010 2507.72 -290.839)
(-252112 2474.83 -481.583)
(-252218 2436.25 -712.91)
(-252297 2396 -985.869)
(-252313 2353.93 -1301.58)
(-252266 2313.22 -1654.54)
(-252151 2272.71 -2034.07)
(-251958 2237.27 -2427.34)
(-251687 2204.7 -2814.4)
(-251351 2178.15 -3172.41)
(-250976 2155.17 -3481.6)
(-250586 2137.18 -3728.92)
(-250196 2123.46 -3910.95)
(-249815 2112.92 -4030.11)
(-249440 2103.45 -4094.52)
(-249066 2092.76 -4113.22)
(-248681 2078.53 -4096.69)
(-248273 2059.52 -4053.35)
(-247820 2035.03 -3990.57)
(-247299 2004.56 -3913.68)
(-246684 1967.86 -3826.28)
(-245945 1924.93 -3730.78)
(-245049 1875.82 -3629.17)
(-243945 1824.19 -3525.29)
(-242591 1770.73 -3422.56)
(-240957 1717.41 -3320.63)
(-239029 1667.86 -3215.8)
(-236775 1625.99 -3104.63)
(-234117 1592.49 -2985.56)
(-230869 1568.91 -2854.3)
(-226818 1556.68 -2690.39)
(-222067 1559.71 -2458.15)
(-217289 1589.94 -2152.25)
(-212909 1667.82 -1824.41)
(-206761 1845.33 -1522.24)
(-194648 2350.66 -1018.05)
(-177887 3547.39 30.4189)
(-177740 5834.94 2368.55)
(-197598 5730.56 3454.6)
(-200401 7126.03 6734.25)
(19840.4 8636.53 -2024.04)
(-240963 -2666.3 2363.37)
(-240996 -2673.72 2532.3)
(-241079 -2676.48 2610.47)
(-241171 -2684.28 2721.58)
(-241310 -2691.63 2820.89)
(-241474 -2701.69 2916.09)
(-241668 -2712.48 3003.62)
(-241889 -2724.22 3081.9)
(-242134 -2737.03 3147.38)
(-242400 -2750.63 3195.56)
(-242682 -2765.02 3220.33)
(-242973 -2779.87 3215.85)
(-243261 -2795.08 3173.95)
(-243527 -2810.39 3084.5)
(-243751 -2826.55 2935.96)
(-243910 -2842.67 2718.73)
(-243982 -2863.78 2433.22)
(-243962 -2889.15 2083.27)
(-243845 -2922.07 1687.72)
(-243631 -2961.51 1257.31)
(-243306 -3011.11 821.001)
(-242866 -3068.6 403.454)
(-242326 -3136.09 47.9867)
(-241724 -3211.95 -219.509)
(-241100 -3294.11 -377.956)
(-240491 -3380.05 -427.057)
(-239920 -3467.71 -377.879)
(-239405 -3556.06 -250.612)
(-238960 -3645.08 -68.4862)
(-238593 -3734.51 144.744)
(-238309 -3824.32 369.073)
(-238108 -3913.96 588.092)
(-237986 -4003.13 791.004)
(-237940 -4090.69 969.256)
(-237969 -4176.45 1125.36)
(-238070 -4260.81 1260.51)
(-238239 -4343.5 1373.36)
(-238474 -4423.62 1468.31)
(-238789 -4503 1559.49)
(-239215 -4583.66 1662.46)
(-239770 -4667.36 1784.32)
(-240430 -4755.36 1927.88)
(-241056 -4849.99 2097.09)
(-241482 -4955.97 2307.18)
(-241878 -5087.58 2596.53)
(-243142 -5260.89 3040.29)
(-246096 -5468.63 3755.54)
(-249414 -5668.2 4849.99)
(-248353 -5559.67 6351.81)
(-245231 -5403.67 8424.26)
(-257111 -5918.73 13036.7)
(-318362 -7820.65 21649.6)
(-346078 9525.02 26079)
(-438067 16711.7 -46494.9)
(-235925 2196.83 1272.82)
(-236213 2139.54 1367.39)
(-236409 2118.96 1421.68)
(-236645 2086.65 1487.92)
(-236914 2057.68 1545.45)
(-237203 2027.19 1597.66)
(-237515 1997.45 1642.98)
(-237850 1968.31 1678.48)
(-238204 1939.73 1702.27)
(-238576 1912.04 1710.11)
(-238962 1885.38 1696.84)
(-239357 1860.16 1657.2)
(-239749 1836.55 1584.3)
(-240124 1814.98 1468.98)
(-240461 1794.77 1300.17)
(-240735 1776.46 1067.91)
(-240927 1754.66 768.651)
(-241024 1728.28 413.563)
(-241017 1694.3 13.7727)
(-240891 1655.11 -417.109)
(-240636 1607.03 -857.572)
(-240245 1552.32 -1275.14)
(-239739 1488.88 -1634.3)
(-239155 1418.28 -1903.52)
(-238537 1342.52 -2065.85)
(-237923 1264 -2119.68)
(-237340 1184.57 -2076.48)
(-236806 1104.93 -1956.22)
(-236331 1024.81 -1782.26)
(-235918 944.074 -1578.24)
(-235567 862.354 -1364.61)
(-235271 779.833 -1158.53)
(-235018 696.48 -972.835)
(-234798 613.589 -816.945)
(-234598 532.893 -698.198)
(-234394 452.94 -624.408)
(-234185 371.594 -596.897)
(-233960 287.712 -608.953)
(-233713 198.961 -651.695)
(-233451 103.353 -719.292)
(-233183 -2.93577 -804.978)
(-232868 -123.346 -898.906)
(-232351 -262.052 -985.915)
(-231431 -425.061 -1039.19)
(-230263 -627.104 -1009.42)
(-229681 -893.882 -795.231)
(-230358 -1237.83 -242.628)
(-230325 -1639.75 698.211)
(-224864 -1790.98 1673.35)
(-214831 -2107.08 2601.24)
(-217523 -3362.18 5414.74)
(-250580 -9529.33 16203.1)
(-266037 6749.78 26743.4)
(-224864 -11168.1 3304.99)
(-224846 -883.639 -62.0958)
(-224911 -883.476 99.5834)
(-225043 -879.048 176.167)
(-225179 -878.66 271.629)
(-225362 -877.094 360.786)
(-225571 -876.474 445.315)
(-225810 -875.501 521.465)
(-226077 -874.75 585.501)
(-226372 -874.008 633.672)
(-226694 -873.202 659.75)
(-227043 -872.66 656.366)
(-227415 -872.627 616.391)
(-227806 -873.201 531.236)
(-228207 -874.901 391.597)
(-228604 -878.272 185.146)
(-228974 -883.941 -95.0994)
(-229294 -893.868 -463.39)
(-229543 -906.342 -913.943)
(-229709 -927.185 -1445.28)
(-229770 -952.789 -2036.83)
(-229707 -987.387 -2670.09)
(-229512 -1026.28 -3297.92)
(-229206 -1075.22 -3876.72)
(-228841 -1130.72 -4359.13)
(-228470 -1194.39 -4720.13)
(-228137 -1263.15 -4955.84)
(-227857 -1335.18 -5079.29)
(-227630 -1408.65 -5113.39)
(-227445 -1482.37 -5084.89)
(-227284 -1555.22 -5018.39)
(-227125 -1626.43 -4934.66)
(-226945 -1695.52 -4848.57)
(-226722 -1763.18 -4770.99)
(-226438 -1832.28 -4711.29)
(-226073 -1903.67 -4682.35)
(-225607 -1978.01 -4693.67)
(-225038 -2058.51 -4756.28)
(-224365 -2148.88 -4878.46)
(-223581 -2252.59 -5065.33)
(-222688 -2371.02 -5317.1)
(-221689 -2503.61 -5632.88)
(-220528 -2644.44 -6011.6)
(-219034 -2782.52 -6455.02)
(-216982 -2900.67 -6966.29)
(-214478 -2976.75 -7539.34)
(-212322 -2986.46 -8145.99)
(-211284 -2876.06 -8704.85)
(-209386 -2526.29 -9190.23)
(-202045 -1887.57 -9573.71)
(-188196 -1290.79 -10249.4)
(-187460 -62.4929 -8897.46)
(-218918 3056.94 -953.72)
(-272389 24838.9 46506.5)
(-223767 17082.6 7921.11)
(-232659 4438.33 443.279)
(-232996 4425.57 526.443)
(-233256 4428.73 540.275)
(-233562 4428.06 575.822)
(-233903 4429.89 602.239)
(-234270 4432.75 626.761)
(-234666 4437.27 643.443)
(-235085 4442.82 648.048)
(-235527 4449.39 636.927)
(-235988 4456.68 603.586)
(-236466 4464.02 540.936)
(-236953 4470.75 441.256)
(-237441 4476.21 295.635)
(-237916 4479.38 93.8696)
(-238359 4479.07 -175.596)
(-238745 4474.29 -524.3)
(-239052 4461.94 -959.47)
(-239256 4443.98 -1483.95)
(-239340 4414.67 -2089.67)
(-239284 4376.08 -2760.2)
(-239066 4323.6 -3467.52)
(-238685 4261.73 -4173.03)
(-238167 4186.56 -4830.38)
(-237558 4103.88 -5390.29)
(-236913 4014.07 -5822.66)
(-236280 3922.23 -6119.86)
(-235688 3831.91 -6292.63)
(-235153 3746.07 -6363.8)
(-234681 3666.57 -6361.54)
(-234266 3594.84 -6314.07)
(-233901 3531.58 -6246.91)
(-233572 3477 -6179.46)
(-233265 3429.79 -6125.06)
(-232967 3387.89 -6093.92)
(-232667 3348.02 -6095.13)
(-232358 3308.98 -6142.33)
(-232023 3268.84 -6242.3)
(-231649 3224.61 -6398.08)
(-231228 3172.68 -6609.26)
(-230757 3110.42 -6870.58)
(-230231 3036.03 -7174.83)
(-229588 2951.8 -7514.65)
(-228636 2864.14 -7881.85)
(-227123 2781.87 -8266.92)
(-225121 2712.89 -8657.59)
(-223369 2682.63 -8991.76)
(-222446 2721.5 -9148.14)
(-220258 2903.03 -9117.19)
(-212411 3224.55 -9270.88)
(-199248 3298.44 -10247.4)
(-197846 3004.41 -8539.32)
(-208427 311.565 1338.01)
(-194154 13269.3 44487.4)
(-32140.1 10855.6 26230)
(-225664 -2643.66 -1647.59)
(-225415 -2582.76 -1387.91)
(-225314 -2538.1 -1219.24)
(-225197 -2494.64 -1034.34)
(-225120 -2450.61 -854.536)
(-225067 -2406.74 -680.966)
(-225042 -2362.42 -517.259)
(-225044 -2318.51 -368.74)
(-225072 -2275.34 -240.719)
(-225126 -2232.82 -140.071)
(-225203 -2190.63 -74.6389)
(-225296 -2148.93 -52.9634)
(-225394 -2107.75 -84.8575)
(-225481 -2067.7 -181.964)
(-225529 -2028.42 -356.486)
(-225503 -1992.53 -619.112)
(-225357 -1957.82 -978.151)
(-225050 -1929.06 -1426.47)
(-224545 -1903.14 -1960.29)
(-223800 -1883 -2553.81)
(-222766 -1860.7 -3179.86)
(-221412 -1837.32 -3771.32)
(-219762 -1809.74 -4258.8)
(-217900 -1779.36 -4562.73)
(-215954 -1743.79 -4653.71)
(-214048 -1703.42 -4540.43)
(-212277 -1660.82 -4266.6)
(-210704 -1620.49 -3889.95)
(-209358 -1587.64 -3468.87)
(-208244 -1568.15 -3052.37)
(-207344 -1567.77 -2677.56)
(-206630 -1590.53 -2369.16)
(-206066 -1637.18 -2141.13)
(-205619 -1709.05 -1999.82)
(-205255 -1807.14 -1945.76)
(-204945 -1936.39 -1978.09)
(-204649 -2098.91 -2086.78)
(-204340 -2294.33 -2263.56)
(-204012 -2518.81 -2503.33)
(-203680 -2765.06 -2796.91)
(-203364 -3022.91 -3134.25)
(-203028 -3279.86 -3501.71)
(-202505 -3518.92 -3883.73)
(-201556 -3717.97 -4270.45)
(-200277 -3849.69 -4642.31)
(-199487 -3892.57 -4966.35)
(-200006 -3779.03 -5124.82)
(-199870 -3430.86 -5018.92)
(-193876 -2792.58 -4680.85)
(-180517 -2013.69 -4003.34)
(-175956 -6.2961 -1347.57)
(-189951 6978.14 5866.67)
(-206670 29471.5 49995.9)
(-102469 15318.5 26197.2)
(-231672 6378.59 4568.45)
(-231510 6377.98 4873.17)
(-231445 6357.76 5013.06)
(-231365 6340.26 5195.48)
(-231312 6316.39 5363.45)
(-231272 6289.29 5528.45)
(-231248 6258.11 5683.58)
(-231238 6221.95 5824.22)
(-231242 6180.15 5944.55)
(-231259 6132.43 6037.31)
(-231286 6078.68 6094.37)
(-231321 6018.52 6106.13)
(-231356 5951.61 6060.93)
(-231380 5877.38 5945.14)
(-231377 5796.28 5743.19)
(-231321 5706.31 5440.58)
(-231182 5610.49 5027.26)
(-230934 5505.37 4499.67)
(-230554 5395.46 3862.53)
(-230017 5279.44 3128.53)
(-229288 5166.65 2331.08)
(-228344 5058.41 1534.85)
(-227204 4961.12 826.556)
(-225953 4876.86 276.004)
(-224679 4802.21 -81.7374)
(-223462 4733.1 -249.034)
(-222353 4664.08 -256.915)
(-221374 4588.65 -151.349)
(-220526 4500.5 19.4363)
(-219796 4393.63 215.652)
(-219172 4265.88 411.127)
(-218647 4118.41 581.253)
(-218189 3948.7 710.717)
(-217774 3754.3 792.801)
(-217372 3532.52 824.75)
(-216954 3279.12 808.904)
(-216495 2991.81 749.965)
(-215973 2670.98 655.418)
(-215374 2320.87 533.914)
(-214686 1948.05 397.341)
(-213895 1562.48 257.557)
(-212923 1177.02 123.572)
(-211556 808.83 -2.99366)
(-209516 476.626 -138.261)
(-206838 193.967 -311.34)
(-204244 -10.0523 -523.364)
(-202300 -88.6073 -810.697)
(-198882 2.86282 -1280.38)
(-189314 304.249 -2226.28)
(-173439 610.595 -3479.67)
(-168030 1497.22 -3827.26)
(-192666 5081.33 691.616)
(-159020 16879.8 13096.3)
(77839.4 7614.91 5781.2)
(-234791 -3538.9 -3285.89)
(-235050 -3454.23 -3073.54)
(-235255 -3396.15 -2930.92)
(-235507 -3330.2 -2787.26)
(-235783 -3261.73 -2655.34)
(-236090 -3188.34 -2533.62)
(-236425 -3110.44 -2423.02)
(-236789 -3028.26 -2324.97)
(-237183 -2942.97 -2242.88)
(-237607 -2854.65 -2181.11)
(-238060 -2763.43 -2145.78)
(-238540 -2669.81 -2146.65)
(-239041 -2574.39 -2198.25)
(-239552 -2477.93 -2320.29)
(-240055 -2381.48 -2535.17)
(-240517 -2286.25 -2870.7)
(-240896 -2192.9 -3342.46)
(-241149 -2105.88 -3966.46)
(-241232 -2025.71 -4732.22)
(-241090 -1959.11 -5633.99)
(-240646 -1904.66 -6632.99)
(-239820 -1865.88 -7662.82)
(-238586 -1843.63 -8587.06)
(-237002 -1846.31 -9271.29)
(-235188 -1868.32 -9636.33)
(-233265 -1903.55 -9687.98)
(-231333 -1943.73 -9483.99)
(-229461 -1983.1 -9103.93)
(-227696 -2017.98 -8626.13)
(-226062 -2046.21 -8114.03)
(-224567 -2067.55 -7613.21)
(-223209 -2084.61 -7152.22)
(-221972 -2099.17 -6746.9)
(-220839 -2111.91 -6405.76)
(-219789 -2124.91 -6131.51)
(-218793 -2141.79 -5923.33)
(-217821 -2162.63 -5777.68)
(-216838 -2185.01 -5690.61)
(-215814 -2204.51 -5657.12)
(-214726 -2215.36 -5673.08)
(-213550 -2212.43 -5737.51)
(-212207 -2191.76 -5856.64)
(-210490 -2152.23 -6039.22)
(-208097 -2097.61 -6335.05)
(-205048 -2043.99 -6787.19)
(-202033 -2031.79 -7462.98)
(-199691 -2127.87 -8464.09)
(-196154 -2407.04 -9803.26)
(-186663 -3037.73 -11623)
(-170095 -3918.54 -13373.3)
(-162144 -5176.85 -13428)
(-182572 -2856.14 -9652.58)
(-172738 -5326.3 -15372.4)
(62855.2 -3405.95 -10409.4)
(-229253 4057.97 4585.72)
(-228903 3925.89 4754.49)
(-228729 3810.54 4817)
(-228521 3686.72 4886.05)
(-228347 3554.18 4937.48)
(-228186 3415.11 4973.5)
(-228044 3270.14 4994.34)
(-227919 3119.84 4998.75)
(-227811 2965.15 4984.49)
(-227719 2807.34 4947.7)
(-227641 2647.83 4882.53)
(-227576 2488.15 4779.65)
(-227518 2330.18 4625.33)
(-227456 2176.2 4400.8)
(-227373 2028.93 4083.47)
(-227236 1891.51 3649.3)
(-227007 1768.29 3078.61)
(-226645 1659.95 2363.18)
(-226113 1571.19 1507.27)
(-225363 1499.32 522.165)
(-224318 1447.25 -563.163)
(-222895 1406.22 -1669.16)
(-221035 1359.45 -2674.84)
(-218821 1294.25 -3442.12)
(-216412 1218.65 -3888.92)
(-213978 1138.29 -4018.59)
(-211657 1060.85 -3889.3)
(-209538 991.673 -3580.35)
(-207667 934.054 -3170.18)
(-206060 888.437 -2719.21)
(-204695 848.861 -2268.15)
(-203533 808.82 -1851.93)
(-202554 769.004 -1486.02)
(-201730 729.589 -1173.31)
(-201034 687.281 -915.462)
(-200450 638.433 -721.903)
(-199981 585.11 -585.433)
(-199631 531.692 -500.56)
(-199416 484.498 -463.491)
(-199372 451.365 -473.931)
(-199533 440.536 -534.299)
(-199879 457.844 -654.678)
(-200255 505.387 -861.878)
(-200414 580.654 -1203.65)
(-200443 660.661 -1756.3)
(-201282 688.03 -2659.91)
(-203893 573.487 -4142.79)
(-206117 198.924 -6524.45)
(-200930 -737.201 -10386.5)
(-185063 -2062.43 -14646)
(-177057 -2606.47 -18883.5)
(-208376 -2002.9 -25633.7)
(-192326 -11525.6 -57939.6)
(-33883.1 -4662.97 -27851.7)
(-229396 -2676.88 -1952.92)
(-229598 -2611.55 -1549.13)
(-229819 -2560.63 -1317.83)
(-230072 -2506.15 -1048.84)
(-230365 -2442.74 -786.727)
(-230691 -2372.59 -517.762)
(-231054 -2294.34 -245.276)
(-231452 -2209.07 27.8706)
(-231890 -2116.93 294.429)
(-232370 -2018.55 544.237)
(-232896 -1915 762.948)
(-233474 -1807.14 931.598)
(-234107 -1695.7 1026.14)
(-234796 -1581.34 1018.04)
(-235533 -1465.01 876.072)
(-236294 -1345.85 570.652)
(-237046 -1226.4 82.2569)
(-237751 -1103.89 -594.8)
(-238382 -982.309 -1442.84)
(-238911 -858.814 -2450.39)
(-239272 -737.283 -3589.69)
(-239379 -614.994 -4783.06)
(-239220 -502.026 -5829.2)
(-238929 -404.116 -6497.59)
(-238704 -332.796 -6663.61)
(-238686 -293.993 -6371.14)
(-238916 -289.324 -5736.55)
(-239368 -315.687 -4888.9)
(-239986 -367.43 -3942.4)
(-240707 -438.051 -2978.52)
(-241481 -522.59 -2048.14)
(-242278 -617.009 -1177.3)
(-243083 -717.003 -377.374)
(-243901 -823.067 349.689)
(-244748 -935.982 1006.96)
(-245649 -1053.58 1599.95)
(-246641 -1173.98 2135.32)
(-247769 -1294.55 2618.16)
(-249090 -1411.27 3052.06)
(-250682 -1518.7 3439.27)
(-252631 -1610.96 3777.05)
(-254994 -1680.45 4056.11)
(-257716 -1717.64 4269.09)
(-260724 -1715.39 4369.53)
(-264181 -1664.58 4282.54)
(-269001 -1556.99 3896.7)
(-276243 -1404.62 2992.96)
(-284585 -1297.66 1081.19)
(-287475 -1412.48 -2727.46)
(-281956 -2150.66 -9280.49)
(-277367 -2600.53 -19794.2)
(-292088 -3550 -34201.2)
(-228965 -12020.3 -75029.8)
(-110891 -6863.98 -33632.6)
(-240121 2688.5 4269.53)
(-240097 2712.16 4529.8)
(-240092 2712.89 4662.93)
(-240123 2720.42 4823.33)
(-240168 2734.67 4983.5)
(-240244 2754.71 5148.49)
(-240349 2782.88 5318.22)
(-240487 2818.73 5489.51)
(-240661 2862.89 5657.04)
(-240879 2916.21 5812.14)
(-241143 2979.35 5942.08)
(-241461 3052.35 6029.27)
(-241835 3134.92 6050.46)
(-242263 3226.34 5977.02)
(-242731 3324.83 5776.01)
(-243206 3429.25 5413.57)
(-243638 3534.39 4862.25)
(-243966 3638.99 4111.04)
(-244137 3733.97 3163.31)
(-244083 3815.97 2022.24)
(-243701 3876.38 694.069)
(-242850 3921.44 -709.653)
(-241532 3947.06 -2006.24)
(-239836 3950.56 -2946.14)
(-237976 3930.15 -3386.45)
(-236152 3889.75 -3352.49)
(-234494 3834.6 -2957.87)
(-233070 3770.94 -2336.62)
(-231902 3704.61 -1611.53)
(-230980 3640.73 -873.892)
(-230280 3582.75 -180.027)
(-229771 3532.35 445.734)
(-229421 3491.06 1009.75)
(-229204 3450.83 1519.25)
(-229117 3411.72 2002.29)
(-229160 3375.16 2466.39)
(-229326 3339.9 2924.8)
(-229618 3306.1 3391.64)
(-230052 3275.19 3878.9)
(-230660 3249.85 4395.21)
(-231480 3234.27 4946.1)
(-232516 3235.43 5532.37)
(-233657 3259.44 6144.6)
(-234743 3307.26 6762.59)
(-235927 3381.89 7368.4)
(-238163 3484.94 7916.13)
(-242586 3595.29 8276.13)
(-248026 3604.71 8143.85)
(-249141 3346.2 6820.67)
(-244598 2563.46 3465.8)
(-247842 406.607 -3848.8)
(-278355 -4244.13 -20557)
(-289637 -16739 -80414.6)
(-216784 -9137.28 -12718)
(-226879 -3648.06 -2801.98)
(-226484 -3595.86 -2448.14)
(-226270 -3554.57 -2244.82)
(-226022 -3510.32 -2025.34)
(-225808 -3459.9 -1815.37)
(-225614 -3408.26 -1609.98)
(-225450 -3354.88 -1413.89)
(-225322 -3302 -1233.74)
(-225237 -3250.41 -1077.53)
(-225203 -3201.13 -953.948)
(-225227 -3154.96 -873.958)
(-225317 -3112.52 -851.208)
(-225475 -3074.04 -904.082)
(-225696 -3039.42 -1058.08)
(-225958 -3008.11 -1347.02)
(-226212 -2979.05 -1807.9)
(-226381 -2950.21 -2481.56)
(-226374 -2916.57 -3387.73)
(-226122 -2873.72 -4538.66)
(-225558 -2813.72 -5937.66)
(-224536 -2734.72 -7608.17)
(-222802 -2634.21 -9475.04)
(-220195 -2509.97 -11238.3)
(-216918 -2355.09 -12420.1)
(-213501 -2173.66 -12762.6)
(-210438 -1977.65 -12390.7)
(-207977 -1785.84 -11569.8)
(-206175 -1615.81 -10536.9)
(-204975 -1479.36 -9468.63)
(-204260 -1384.18 -8462.18)
(-203909 -1332.7 -7561.1)
(-203817 -1318.36 -6778.03)
(-203905 -1334.47 -6109.5)
(-204118 -1374.04 -5541.96)
(-204418 -1429.48 -5057.3)
(-204782 -1493.63 -4635.4)
(-205196 -1558.79 -4255.1)
(-205657 -1617.32 -3895.22)
(-206171 -1662.8 -3533.2)
(-206764 -1687.63 -3141.81)
(-207470 -1685.1 -2688.49)
(-208279 -1653.21 -2137.23)
(-209044 -1592.22 -1453.37)
(-209551 -1500.68 -607.652)
(-209941 -1366.02 440.135)
(-211263 -1163.9 1754.5)
(-214841 -868.814 3346.9)
(-219491 -464.657 4869.89)
(-220328 197.605 5741.18)
(-216808 1660.84 4763.69)
(-229943 3817.15 874.602)
(-294726 8554.66 -16607.9)
(-330967 6418.81 -61545.2)
(-222458 18488.7 -9202.47)
(-239835 3861.57 5116.39)
(-239361 3966.51 5440.84)
(-239101 4007.64 5637.39)
(-238819 4068.04 5851.15)
(-238555 4128.29 6059.83)
(-238321 4190.79 6268.17)
(-238121 4254.82 6472.37)
(-237966 4318.94 6668.24)
(-237867 4382.73 6849.73)
(-237836 4445.6 7009.69)
(-237886 4506.68 7138.88)
(-238033 4565.26 7225.13)
(-238286 4620.74 7250.8)
(-238652 4672.6 7190.34)
(-239123 4720.51 7009.1)
(-239668 4764.2 6664.85)
(-240229 4803.63 6115.06)
(-240739 4841.1 5329.01)
(-241144 4878.85 4291.76)
(-241395 4924.51 2981.8)
(-241377 4979.16 1355.45)
(-240870 5047.54 -501.958)
(-239753 5138.78 -2337.72)
(-238205 5259.48 -3712.63)
(-236645 5405.01 -4348.54)
(-235407 5566.45 -4317.01)
(-234599 5731.22 -3834.92)
(-234195 5888.23 -3107.41)
(-234116 6030.37 -2296.21)
(-234269 6154.2 -1492.29)
(-234607 6261.84 -744.043)
(-235131 6361.14 -90.6046)
(-235795 6462.25 494.369)
(-236579 6573.32 1004.06)
(-237454 6696.96 1451.09)
(-238406 6835.37 1850.58)
(-239437 6992.24 2222.18)
(-240556 7171.68 2583.94)
(-241789 7377.03 2951.65)
(-243180 7612.07 3339.95)
(-244786 7879.46 3761.4)
(-246631 8177.75 4226.4)
(-248648 8504.4 4738.17)
(-250738 8859.81 5290.44)
(-253116 9254.76 5886.66)
(-256763 9709.99 6558.82)
(-262966 10256.4 7294.4)
(-271098 10938.8 7879.54)
(-277177 11884 7799.62)
(-280862 13482 6441.48)
(-299847 15474.3 3610.1)
(-374077 17601.7 -15546.2)
(-458047 11955.4 -57826.2)
(-289751 52544 -204550)
(-237692 -4106.07 -3373.68)
(-237862 -4097.8 -3137.45)
(-237901 -4104.74 -2972.05)
(-237986 -4110.87 -2802.26)
(-238062 -4116.13 -2624.77)
(-238154 -4123.82 -2438.38)
(-238263 -4132.89 -2241.26)
(-238396 -4144.15 -2032.54)
(-238559 -4157.59 -1811.96)
(-238756 -4173.65 -1583.28)
(-238998 -4192.52 -1354.51)
(-239295 -4214.35 -1141.9)
(-239660 -4239.16 -977.212)
(-240105 -4266.72 -914.521)
(-240625 -4296.23 -1030.46)
(-241190 -4326.45 -1416.86)
(-241732 -4352.4 -2166.51)
(-242162 -4368.29 -3351.38)
(-242410 -4362.23 -4995.78)
(-242417 -4329.16 -7085.05)
(-241989 -4267.3 -9616.98)
(-240653 -4188.5 -12521.3)
(-237917 -4108.09 -15368.2)
(-233877 -4042.5 -17285.4)
(-229353 -3987.02 -17657)
(-225190 -3930.38 -16730.1)
(-221776 -3868.75 -15167.2)
(-219219 -3802.16 -13418.7)
(-217484 -3726.72 -11755.7)
(-216462 -3639.65 -10293.9)
(-216054 -3539.54 -9059.87)
(-216179 -3424.57 -8040.65)
(-216785 -3297.75 -7203.06)
(-217838 -3159.63 -6507.67)
(-219322 -3003.42 -5917.44)
(-221234 -2818.79 -5400.5)
(-223587 -2595.69 -4929.58)
(-226404 -2323.7 -4482.42)
(-229731 -1993.96 -4041.27)
(-233635 -1599.64 -3592.07)
(-238201 -1137 -3126.44)
(-243475 -608.637 -2639.19)
(-249407 -30.9103 -2133.37)
(-255900 566.317 -1632.11)
(-263239 1144.22 -1170.06)
(-272663 1652.31 -777.813)
(-285763 2019.09 -414.046)
(-301938 2139.02 -59.5469)
(-316447 2023.6 -12.0156)
(-328634 1655.94 -674.133)
(-365143 1395.59 220.729)
(-464090 6512.68 1243.78)
(-591608 21705.5 -11605.8)
(-659202 -15139.3 -68726.4)
(-235879 1882.57 3525.03)
(-235804 1906.11 3819.1)
(-235670 1916.64 4075.9)
(-235577 1930.49 4326.74)
(-235470 1944.13 4592.99)
(-235384 1957.61 4875.72)
(-235317 1971.3 5177)
(-235278 1984.84 5499.21)
(-235275 1998.55 5842.63)
(-235314 2012.29 6205.75)
(-235406 2026.18 6582.24)
(-235563 2040.3 6956.57)
(-235798 2054.9 7297.41)
(-236123 2070.28 7550.98)
(-236535 2087.34 7640.46)
(-237006 2106.94 7471.88)
(-237469 2133.09 6947.15)
(-237835 2170.77 5988.36)
(-238040 2231.17 4573.19)
(-238042 2321.8 2728.42)
(-237681 2445.23 454.193)
(-236485 2605.72 -2161.69)
(-233926 2785.52 -4741.45)
(-230107 2967.76 -6462.91)
(-225880 3146.6 -6701.98)
(-222166 3311.23 -5708.99)
(-219424 3448.3 -4169.82)
(-217736 3552.16 -2546.15)
(-216971 3622.4 -1094)
(-216914 3665 98.7168)
(-217329 3687.49 1026.43)
(-217998 3692.52 1710.18)
(-218800 3683.63 2187.84)
(-219670 3660.04 2487.96)
(-220585 3623.82 2642.52)
(-221532 3581.83 2668.68)
(-222503 3540.46 2581.03)
(-223491 3505.02 2389.2)
(-224502 3478.46 2098.22)
(-225554 3460.93 1711.19)
(-226680 3448.69 1229.33)
(-227863 3429.92 649.458)
(-228984 3382.26 -37.9289)
(-229877 3274.38 -860.304)
(-230719 3062.14 -1871.63)
(-232487 2686.67 -3147.47)
(-236444 2068.71 -4751.48)
(-241746 1090.63 -6851.01)
(-244041 -207.618 -9635.68)
(-242407 -1834.06 -12952.8)
(-259453 -3489.39 -17194.5)
(-332416 -1302.89 -27845.7)
(-417338 7770.52 -2015.8)
(-463246 -430.692 -11871.6)
(-236323 -3676.55 592.413)
(-236703 -3728.22 942.993)
(-236782 -3762.16 1126.32)
(-236939 -3805.83 1368.47)
(-237041 -3849.36 1606.6)
(-237134 -3896.67 1858.7)