/*--------------------------------*- C++ -*----------------------------------*\
| =========                 |                                                 |
| \\      /  F ield         | OpenFOAM: The Open Source CFD Toolbox           |
|  \\    /   O peration     | Version:  4.1                                   |
|   \\  /    A nd           | Web:      www.OpenFOAM.org                      |
|    \\/     M anipulation  |                                                 |
\*---------------------------------------------------------------------------*/
FoamFile
{
    version     2.0;
    format      ascii;
    class       surfaceScalarField;
    location    "85";
    object      phi;
}
// * * * * * * * * * * * * * * * * * * * * * * * * * * * * * * * * * * * * * //

dimensions      [0 3 -1 0 0 0 0];

internalField   nonuniform List<scalar> 
11516
(
9.98772e+06
17.3512
9184.3
9.96804e+06
54.287
20056.3
9.93917e+06
69.7941
29250.7
9.90156e+06
73.7292
38008.1
9.8551e+06
75.3545
46863.3
9.79953e+06
79.0814
55981.8
9.73457e+06
80.5961
65410.8
9.65996e+06
80.0388
75091.7
9.57552e+06
82.3319
84912.5
9.48102e+06
78.1696
94961.3
9.37662e+06
75.8829
104866
9.26324e+06
82.5414
113851
9.14278e+06
-16.5986
121065
9.02002e+06
-156.871
123538
8.9054e+06
-1551.47
116790
8.8139e+06
-2456.44
94504.9
8.76245e+06
-922.642
52990.1
8.75971e+06
-455.247
3606.81
8.76159e+06
38.002
-1597.92
8.7238e+06
1188.94
36925
8.65353e+06
-1098.34
71697.2
8.55236e+06
-4801.2
106315
8.42673e+06
-7840.8
133818
8.28375e+06
-10395.5
153742
8.1248e+06
-12418.2
171761
7.96903e+06
-14054.9
170275
7.82876e+06
-11964.7
152763
7.7098e+06
-7037.96
126639
7.61001e+06
-6669.24
107203
7.52444e+06
-11501.8
97868.4
7.43468e+06
-19519.1
110058
7.30696e+06
-27849.2
156068
7.14332e+06
-27954.5
191621
6.98828e+06
-15326.5
169868
6.88447e+06
261.741
103047
6.79713e+06
6079.17
81213.8
6.70016e+06
5310.27
92423.3
6.60736e+06
2863.52
90757.3
6.53322e+06
1659.72
72484.8
6.48751e+06
2781.34
42984.1
6.46274e+06
4593.39
20698
6.44579e+06
6416.01
10872.4
6.43109e+06
7071.17
7670.6
6.42565e+06
7872.3
-3185.76
6.4326e+06
8537.7
-17920.5
6.45079e+06
9016.42
-30494.6
6.47633e+06
11609.6
-38873.5
6.51364e+06
13418.1
-50534.4
6.55691e+06
13719.3
-56576.4
6.61457e+06
15751.3
-71997.5
6.68875e+06
12080.1
-80627.4
6.74892e+06
5567.17
-62948.5
6.80881e+06
5490.45
-56376.5
7092.75
-57223
9.98774e+06
9184.32
9.96804e+06
20053.6
9.93916e+06
29254.5
9.90154e+06
38008.1
9.85509e+06
46854.7
9.79953e+06
55974.2
9.73458e+06
65391.1
9.65996e+06
75060.5
9.57553e+06
84877.5
9.48105e+06
94910
9.37665e+06
104837
9.26328e+06
113829
9.14241e+06
121247
9.01836e+06
124322
8.89848e+06
118771
8.80163e+06
94906.7
8.75233e+06
48893.2
8.75596e+06
-3739.75
8.76304e+06
-6759.26
8.72755e+06
36935.3
8.65792e+06
68787.7
8.55853e+06
94844.9
8.43374e+06
117202
8.288e+06
135621
8.1218e+06
154081
7.95628e+06
151823
7.80508e+06
139683
7.67134e+06
127213
7.55477e+06
110503
7.45963e+06
84333.8
7.37759e+06
63152.4
7.27604e+06
73987.3
7.13699e+06
110991
6.97809e+06
143111
6.84579e+06
132277
6.73111e+06
121014
6.61298e+06
123883
6.5056e+06
110129
6.41769e+06
89175.6
6.35645e+06
63806.4
6.31541e+06
45669
6.28433e+06
37666.4
6.25807e+06
33144.4
6.24585e+06
18553
6.25042e+06
2332.82
6.27262e+06
-14717.6
6.30614e+06
-22391.9
6.35001e+06
-30146
6.40206e+06
-38647.3
6.48551e+06
-63215
6.58302e+06
-86280.7
6.66374e+06
-68899.8
6.73059e+06
-57595.7
-64547.2
1.0006e+07
16.7084
5306.38
1.00118e+07
48.9609
14563.1
1.00178e+07
61.3906
23657.7
1.00234e+07
64.752
32737.3
1.00286e+07
68.0568
42036.1
1.00333e+07
70.4511
51680.4
1.00373e+07
72.4723
61744.8
1.00407e+07
74.978
72088.3
1.00426e+07
74.9835
83360.1
1.00431e+07
79.6468
94850.1
1.00414e+07
79.6193
106899
1.00366e+07
72.0908
119113
1.00266e+07
149.063
131506
1.00077e+07
270.662
142828
9.96676e+06
1740.44
156703
9.89304e+06
2091.09
166982
9.7674e+06
2235.39
177503
9.57429e+06
1263.98
195899
9.36088e+06
-1024.14
213050
9.17416e+06
-1367.3
225178
9.01189e+06
215.026
233921
8.87233e+06
1881.17
244141
8.74493e+06
3224.59
258138
8.62023e+06
4383.9
274212
8.49965e+06
5040.33
287472
8.37773e+06
5782.62
286635
8.25083e+06
6389.3
273605
8.10702e+06
7970.39
262885
7.9537e+06
11912.4
249007
7.80199e+06
14875.4
235101
7.65199e+06
18004.4
242395
7.5171e+06
21190
269961
7.41263e+06
17655.9
278540
7.33154e+06
6802.22
244261
7.26375e+06
-6645.31
177049
7.19653e+06
-20255.3
168584
7.12395e+06
-29474
194063
7.05004e+06
-31319.3
194614
6.96857e+06
-28003.8
180693
6.90265e+06
-23034.8
131235
6.85171e+06
-23980.3
95188.9
6.80281e+06
-30439.4
89801.6
6.76641e+06
-34118.6
77207.5
6.74769e+06
-36260
50095.6
6.74389e+06
-38213.1
22000.6
6.7518e+06
-38677.6
-1506.2
6.76988e+06
-40682.1
-17147.4
6.79298e+06
-42383.7
-30433.6
6.81185e+06
-46069.4
-28270.6
6.84641e+06
-56616.2
-49174.8
6.88336e+06
-38679.4
-78594
6.93461e+06
-21837.4
-89089.9
7.00268e+06
-12636
-106928
-9657.24
-119770
1.0006e+07
5306.81
1.00118e+07
14561.5
1.00178e+07
23654.9
1.00234e+07
32732
1.00286e+07
42028
1.00333e+07
51671.9
1.00373e+07
61735.8
1.00407e+07
72076.8
1.00426e+07
83351.7
1.0043e+07
94833.6
1.00414e+07
106884
1.00365e+07
119137
1.00269e+07
131423
1.0009e+07
142968
9.97602e+06
154048
9.90909e+06
164662
9.77893e+06
181970
9.58101e+06
195714
9.36196e+06
211410
9.17537e+06
222268
9.01585e+06
228639
8.87671e+06
235970
8.75073e+06
246519
8.62856e+06
262299
8.51249e+06
275337
8.39539e+06
274940
8.2715e+06
270287
8.13857e+06
268514
8.00429e+06
257174
7.87055e+06
233504
7.72014e+06
231956
7.55948e+06
256090
7.42666e+06
261587
7.34709e+06
229713
7.29599e+06
176482
7.25199e+06
144205
7.20724e+06
138510
7.15681e+06
128257
7.10722e+06
110139
7.08203e+06
65695.6
7.0626e+06
40921.2
7.03646e+06
32850.5
7.01603e+06
18231.8
7.00449e+06
-7504.84
7.00195e+06
-34931.9
7.00578e+06
-58294.4
7.01569e+06
-72812.3
7.02346e+06
-79507.6
7.02644e+06
-87033.3
7.00985e+06
-103932
7.00535e+06
-119667
7.04574e+06
-128163
7.09798e+06
-123011
-160127
9.9993e+06
16.67
6693.91
9.99415e+06
47.4342
20056.3
9.98493e+06
59.7461
33214.2
9.97168e+06
62.9597
46325.6
9.95443e+06
65.0938
59621.3
9.93323e+06
66.3604
73216.1
9.90833e+06
65.5651
86995.5
9.87916e+06
64.1586
101620
9.84654e+06
63.8796
116341
9.80976e+06
66.306
131977
9.76929e+06
69.9846
147729
9.72481e+06
87.3321
163982
9.67582e+06
120.886
180939
9.62046e+06
268.379
198584
9.56071e+06
343.742
216952
9.48842e+06
882.949
239509
9.40502e+06
735.998
261201
9.3192e+06
1186.01
280791
9.224e+06
532.796
307869
9.11693e+06
553.895
331836
9.00105e+06
967.952
348990
8.884e+06
1640.82
359706
8.76793e+06
2610.19
371776
8.65097e+06
4211.1
387134
8.53063e+06
4961.35
403062
8.40321e+06
6341.12
408044
8.2609e+06
8995
407387
8.09512e+06
12285.9
416941
7.91153e+06
14641.7
418572
7.71607e+06
13359.4
417774
7.50746e+06
11440.8
440043
7.30909e+06
14469.5
454306
7.1323e+06
24143.2
431662
6.98434e+06
34103
357526
6.8973e+06
27319.4
235362
6.82427e+06
111.262
240089
6.7319e+06
-18801.6
303518
6.62895e+06
-20815.3
317108
6.53498e+06
-13175.9
288393
6.49276e+06
-3090.91
176903
6.47314e+06
-11566.3
126277
6.44592e+06
-24292.5
140443
6.42543e+06
-30172.1
125763
6.42354e+06
-31048.3
81074.3
6.43405e+06
-30948.5
40365.8
6.45271e+06
-30001.2
8204.4
6.48438e+06
-30496.3
-19154
6.52713e+06
-31489.5
-43345
6.59139e+06
-33328.1
-60914.5
6.66596e+06
-29214.4
-96155.2
6.71905e+06
-15215.1
-116693
6.76275e+06
-8777.37
-122739
6.79637e+06
-11807.9
-130184
-13242.2
-158295
9.99932e+06
6693.57
9.99415e+06
20054.7
9.98492e+06
33212.2
9.97167e+06
46322.9
9.95441e+06
59618
9.93322e+06
73212.6
9.90832e+06
86992.2
9.87914e+06
101616
9.84651e+06
116337
9.80973e+06
131972
9.76927e+06
147722
9.72486e+06
163970
9.6759e+06
180909
9.62109e+06
198525
9.55918e+06
216920
9.48673e+06
238755
9.40725e+06
262851
9.31995e+06
284433
9.22464e+06
307360
9.11925e+06
328315
9.00516e+06
343811
8.89004e+06
352858
8.77567e+06
363646
8.65774e+06
384597
8.53661e+06
401627
8.40939e+06
408802
8.26985e+06
419252
8.11499e+06
436198
7.94432e+06
443120
7.75091e+06
440921
7.53882e+06
455960
7.34097e+06
468851
7.17917e+06
448091
7.06534e+06
377123
7.0009e+06
266636
6.92725e+06
214348
6.84649e+06
197289
6.76251e+06
191202
6.68151e+06
180029
6.63827e+06
108213
6.60909e+06
58786.9
6.56887e+06
47552.5
6.54226e+06
12534
6.532e+06
-30221.5
6.53336e+06
-68435.6
6.54415e+06
-99726.4
6.56698e+06
-126843
6.60214e+06
-147673
6.64755e+06
-168564
6.7051e+06
-192225
6.7535e+06
-182995
6.7927e+06
-177317
6.83083e+06
-172085
-216678
9.99892e+06
16.1481
8539.26
9.99377e+06
45.9673
25552.7
9.98475e+06
58.0393
42564
9.97176e+06
60.7167
59646.3
9.95465e+06
62.2049
77053
9.93349e+06
63.5113
94708.6
9.90753e+06
63.0732
113308
9.87719e+06
62.5591
132331
9.84203e+06
63.7103
151866
9.80199e+06
67.0719
172366
9.75659e+06
72.1947
193499
9.70523e+06
84.7097
215733
9.64761e+06
97.7588
239005
9.58336e+06
163.384
263303
9.51108e+06
197.426
289829
9.43162e+06
688.23
319248
9.34077e+06
389.488
352579
9.24373e+06
309.744
377995
9.15407e+06
454.9
397254
9.06641e+06
887.38
418780
8.97274e+06
1257.4
441597
8.87131e+06
1309.36
460060
8.75753e+06
1220.09
484594
8.63225e+06
1577.54
511101
8.49608e+06
1167.1
538336
8.34465e+06
1124.65
558748
8.17021e+06
2965.35
579360
7.965e+06
4633.82
618074
7.72331e+06
3437.2
657464
7.45522e+06
3230.57
683247
7.19637e+06
4201.23
695199
6.97102e+06
6974.38
673098
6.78793e+06
13552.1
601186
6.68451e+06
23692.1
437101
6.6795e+06
21243.1
218349
6.64967e+06
-21012.2
288606
6.54851e+06
-49206.7
451019
6.42235e+06
-55609.6
499679
6.29568e+06
-50792.1
468179
6.24441e+06
-20292.4
250615
6.22032e+06
-12920
163553
6.19401e+06
-21446.7
187384
6.17525e+06
-23717.3
165515
6.17796e+06
-22305.5
98079
6.19412e+06
-20177.2
42889.3
6.21955e+06
-18060.7
-995.879
6.25391e+06
-16839.7
-39888.7
6.29848e+06
-15565.5
-77535.1
6.36358e+06
-13911.1
-117936
6.43657e+06
-24679.4
-149025
6.52017e+06
-25820.2
-173418
6.59771e+06
-20830.4
-180690
6.67879e+06
-19568
-191159
-9273.1
-193023
9.99895e+06
8539.45
9.99376e+06
25552.6
9.98474e+06
42561.9
9.97174e+06
59643.6
9.95464e+06
77050.2
9.93349e+06
94705.1
9.90753e+06
113303
9.87717e+06
132326
9.842e+06
151862
9.80197e+06
172362
9.75657e+06
193496
9.70524e+06
215726
9.64763e+06
239002
9.58353e+06
263255
9.51147e+06
289754
9.43273e+06
318904
9.34403e+06
352601
9.24584e+06
383276
9.15582e+06
397976
9.06865e+06
416520
8.97525e+06
438636
8.87214e+06
457489
8.75586e+06
481360
8.63021e+06
512008
8.49459e+06
538635
8.34011e+06
564710
8.16102e+06
601644
7.95487e+06
647347
7.71852e+06
683347
7.46002e+06
703056
7.21551e+06
705032
7.00412e+06
687554
6.82616e+06
639516
6.71067e+06
515889
6.69126e+06
305702
6.64952e+06
232254
6.57726e+06
219647
6.4771e+06
238343
6.37843e+06
232729
6.32471e+06
144974
6.28511e+06
85353.2
6.24679e+06
63423.1
6.21974e+06
14069.1
6.21305e+06
-46998.2
6.22204e+06
-98566.6
6.24581e+06
-142923
6.28267e+06
-182819
6.33439e+06
-218925
6.39138e+06
-244209
6.46595e+06
-292824
6.53941e+06
-283107
6.61285e+06
-270190
6.69884e+06
-278591
-289301
9.99894e+06
16.0863
10363
9.99387e+06
46.0396
30957.9
9.98504e+06
57.6618
51710.5
9.97234e+06
59.9459
72667.1
9.95565e+06
61.1671
94062.9
9.93485e+06
62.4644
115833
9.90982e+06
62.2299
138684
9.88057e+06
61.8374
161932
9.84651e+06
62.8842
186284
9.80757e+06
65.2592
211651
9.76349e+06
69.6323
237935
9.71396e+06
76.0702
265664
9.65896e+06
91.2125
294450
9.59761e+06
107.029
325185
9.52976e+06
200.773
358250
9.45552e+06
240.383
394220
9.37298e+06
987.236
435293
9.27212e+06
1142.85
478648
9.1655e+06
957.133
503273
9.063e+06
1215.74
520410
8.963e+06
2036.41
539918
8.85573e+06
1672.67
566094
8.73221e+06
417.812
608085
8.58907e+06
-425.848
655005
8.42748e+06
-2832.59
703100
8.23758e+06
-3910.22
752941
8.01802e+06
-1556.47
800854
7.77281e+06
513.406
863112
7.50646e+06
-932.381
925130
7.23738e+06
-1624.81
954341
6.99257e+06
395.905
939964
6.77917e+06
5163.87
881596
6.6109e+06
11770.6
758319
6.52381e+06
24782.4
499709
6.57099e+06
52764.4
118727
6.4755e+06
-51684.6
434968
6.3536e+06
-154915
727288
6.20629e+06
-173925
822711
6.05559e+06
-176589
800260
6.00471e+06
-114863
417995
5.98436e+06
-49006.7
233000
5.95659e+06
-43260.3
258262
5.96549e+06
-34632.6
190667
5.97631e+06
-34325.5
121589
5.99585e+06
-35472.2
58476.4
6.02803e+06
-34764.5
725.606
6.07201e+06
-33759.9
-51578.4
6.12745e+06
-34430.3
-100315
6.18038e+06
-29079.6
-144774
6.23685e+06
-38467.7
-170568
6.30511e+06
-41794.8
-204460
6.37969e+06
-29903.2
-225116
6.44994e+06
-26293
-235515
-15895.6
-217458
9.99896e+06
10362
9.99386e+06
30955.5
9.98503e+06
51708.3
9.97233e+06
72664.7
9.95564e+06
94059.9
9.93485e+06
115829
9.90981e+06
138679
9.88056e+06
161927
9.84648e+06
186279
9.80755e+06
211646
9.76348e+06
237931
9.71395e+06
265659
9.65898e+06
294444
9.59764e+06
325164
9.52994e+06
358212
9.4556e+06
394164
9.37486e+06
435068
9.28062e+06
479274
9.17468e+06
505314
9.06958e+06
523259
8.96579e+06
544840
8.85057e+06
574797
8.72079e+06
611862
8.57816e+06
654453
8.41363e+06
700587
8.21891e+06
755772
8.00525e+06
813953
7.77134e+06
881985
7.51785e+06
936164
7.25959e+06
959977
7.02176e+06
943550
6.81892e+06
895725
6.66975e+06
800801
6.60949e+06
601706
6.64877e+06
323125
6.63729e+06
197929
6.52799e+06
176763
6.3834e+06
210929
6.23724e+06
204620
6.16681e+06
101102
6.12666e+06
76705.3
6.09459e+06
52644.4
6.09158e+06
-17012.4
6.10624e+06
-96018.7
6.13335e+06
-161374
6.17257e+06
-217154
6.22044e+06
-265010
6.26864e+06
-303009
6.31783e+06
-324514
6.34293e+06
-359230
6.3711e+06
-353449
6.4261e+06
-356601
6.4801e+06
-361242
-342609
9.99897e+06
15.1745
12130.4
9.99401e+06
43.7643
36240.5
9.98544e+06
55.1468
60597.5
9.97316e+06
57.4207
85258.2
9.95715e+06
58.455
110374
9.937e+06
59.5077
136294
9.91287e+06
59.1206
163146
9.88446e+06
58.5985
190675
9.85157e+06
59.3484
219513
9.81415e+06
61.2705
249404
9.77158e+06
64.8627
280843
9.72402e+06
71.0326
313600
9.67108e+06
83.3509
347830
9.61263e+06
96.7396
384165
9.54891e+06
146.284
422558
9.48007e+06
223.733
463734
9.40829e+06
664.774
507533
9.32938e+06
1440.37
557389
9.23341e+06
2096.75
598213
9.12116e+06
1871.39
631896
8.99801e+06
2279.04
661839
8.86515e+06
573.07
699460
8.73109e+06
-1411.45
744068
8.58289e+06
-2806.44
806469
8.40279e+06
-6150.41
889785
8.1784e+06
-6144.95
983944
7.91828e+06
-2389.67
1.06379e+06
7.65185e+06
2023.57
1.12788e+06
7.38754e+06
2188.96
1.18765e+06
7.12888e+06
1522.13
1.21189e+06
6.8832e+06
3466.2
1.18264e+06
6.65143e+06
10408.9
1.10387e+06
6.42107e+06
23786.6
965960
6.16909e+06
87206.8
666167
5.69651e+06
367059
229338
5.19311e+06
238308
704289
4.94111e+06
55025.8
927029
5.01045e+06
-53917.3
805307
5.19562e+06
-158330
770568
5.34669e+06
-197298
465134
5.41271e+06
-113100
280543
5.48887e+06
-90975.2
275641
5.53273e+06
-54501.4
204107
5.57812e+06
-54746.4
131904
5.62728e+06
-54811.1
65025.4
5.67711e+06
-51111.5
4614.79
5.72559e+06
-44056.1
-52528.5
5.77773e+06
-39064.7
-110937
5.82286e+06
-29748.8
-161262
5.85713e+06
-9259.55
-202263
5.88173e+06
4555.83
-239176
5.90823e+06
18036.3
-272211
5.9208e+06
31165.6
-285254
49048.9
-308168
9.99899e+06
12130.7
9.994e+06
36239.9
9.98543e+06
60594.3
9.97314e+06
85254.3
9.95714e+06
110370
9.937e+06
136290
9.91286e+06
163140
9.88445e+06
190668
9.85155e+06
219507
9.81413e+06
249398
9.77156e+06
280836
9.72402e+06
313594
9.67109e+06
347822
9.61264e+06
384154
9.54898e+06
422549
9.48039e+06
463621
9.40943e+06
507501
9.33623e+06
554881
9.24636e+06
598359
9.13554e+06
636996
9.01005e+06
673516
8.87359e+06
712697
8.72856e+06
756159
8.5684e+06
812112
8.38002e+06
883139
8.15638e+06
973543
7.9171e+06
1.05109e+06
7.66876e+06
1.1326e+06
7.41162e+06
1.19579e+06
7.1572e+06
1.21625e+06
6.92247e+06
1.18205e+06
6.71742e+06
1.11175e+06
6.54431e+06
998871
6.44026e+06
798173
6.71897e+06
427350
6.87924e+06
280895
6.81326e+06
297246
6.69509e+06
273007
6.55264e+06
186932
6.29563e+06
160165
6.09028e+06
169378
6.0103e+06
42891.9
6.00314e+06
-63640
5.98174e+06
-128865
5.94674e+06
-180473
5.90673e+06
-227024
5.86623e+06
-266971
5.82402e+06
-299191
5.78903e+06
-321334
5.76305e+06
-345809
5.75817e+06
-347937
5.75401e+06
-339347
5.74169e+06
-318236
-284556
9.99901e+06
15.0019
13831.2
9.99425e+06
43.5359
41310.3
9.98605e+06
54.5033
69099.4
9.97432e+06
56.4575
97285
9.95904e+06
57.1575
125952
9.93976e+06
57.9521
155865
9.91665e+06
57.4984
186574
9.88939e+06
56.9633
218251
9.85798e+06
57.5456
251246
9.82158e+06
59.0406
286104
9.78078e+06
61.8598
321961
9.735e+06
67.8834
359727
9.68402e+06
78.1368
399225
9.62812e+06
95.0575
440575
9.56738e+06
120.813
483891
9.50242e+06
202.299
529341
9.43385e+06
337.573
576808
9.36474e+06
840.148
626990
9.28806e+06
804.759
675776
9.19769e+06
21.6053
724235
9.08747e+06
85.8139
774275
8.95124e+06
-591.642
838442
8.79935e+06
-1904.95
899173
8.64092e+06
-5507.15
970993
8.45592e+06
-9754.59
1.08504e+06
8.22282e+06
-10484.6
1.22806e+06
7.9447e+06
-1482.78
1.34401e+06
7.65045e+06
6486.28
1.41626e+06
7.36369e+06
5829.92
1.46917e+06
7.08754e+06
3700.72
1.48488e+06
6.82896e+06
7278.93
1.43458e+06
6.57073e+06
15461.6
1.34746e+06
6.21433e+06
41816.3
1.28165e+06
5.27391e+06
238772
1.36961e+06
4.18945e+06
337691
984129
4.16518e+06
11222.2
717424
4.16266e+06
43342.8
882719
3.97241e+06
141534
845051
4.01484e+06
69621.4
650235
4.14842e+06
-56562.9
377498
4.36988e+06
-53162.8
106603
4.52137e+06
43305
77417
4.5842e+06
85213.3
52629.1
4.62795e+06
90395.7
-4996.31
4.65807e+06
99381.6
-66221.7
4.66941e+06
116637
-124821
4.66509e+06
136632
-185445
4.64909e+06
155746
-251505
4.63409e+06
173010
-322454
4.63146e+06
187217
-393108
4.6516e+06
191912
-458459
4.70463e+06
188925
-526265
4.79584e+06
188795
-568112
160809
-665976
9.99903e+06
13829.9
9.99425e+06
41306.7
9.98604e+06
69095.6
9.97431e+06
97281.2
9.95903e+06
125948
9.93976e+06
155860
9.91664e+06
186568
9.88938e+06
218244
9.85795e+06
251239
9.82156e+06
286097
9.78076e+06
321953
9.735e+06
359718
9.68403e+06
399214
9.62814e+06
440559
9.56744e+06
483875
9.5026e+06
529257
9.43445e+06
576728
9.36515e+06
625980
9.28983e+06
675682
9.20214e+06
726125
9.09747e+06
779873
8.96936e+06
841950
8.80907e+06
915870
8.6339e+06
982277
8.43104e+06
1.07667e+06
8.19066e+06
1.20382e+06
7.93197e+06
1.30873e+06
7.66777e+06
1.40364e+06
7.39622e+06
1.47357e+06
7.12681e+06
1.48978e+06
6.87762e+06
1.43903e+06
6.65586e+06
1.34968e+06
6.43768e+06
1.25992e+06
6.25183e+06
1.23245e+06
5.55816e+06
1.46345e+06
4.58262e+06
1.26712e+06
4.08603e+06
832718
3.98635e+06
507595
3.90634e+06
328693
3.82483e+06
178037
3.82711e+06
109223
3.83497e+06
74784.8
3.84938e+06
4450.36
3.87132e+06
-62881.6
3.90249e+06
-114442
3.94335e+06
-152589
3.99358e+06
-181550
4.05296e+06
-204588
4.12473e+06
-223712
4.20273e+06
-242120
4.29519e+06
-256255
4.40518e+06
-265860
4.53564e+06
-265425
-268317
9.99907e+06
13.6809
15430.9
9.99457e+06
40.0764
46094.8
9.98684e+06
50.5426
77125.4
9.97576e+06
52.5494
108640
9.96123e+06
53.2715
140766
9.94309e+06
54.0114
174283
9.92139e+06
53.4353
208571
9.89541e+06
52.5569
244523
9.86523e+06
52.4824
281720
9.8309e+06
52.9712
320709
9.7917e+06
54.6886
361441
9.74775e+06
59.4914
403992
9.69893e+06
68.9069
448420
9.64514e+06
84.1589
494832
9.5867e+06
103.137
542886
9.5239e+06
148.062
592779
9.45752e+06
189.739
643933
9.38883e+06
304.546
696580
9.31602e+06
27.588
750068
9.23733e+06
-495.434
805256
9.14915e+06
-873.753
865385
9.04993e+06
-241.531
940212
8.92179e+06
654.003
1.02891e+06
8.76328e+06
-3938.89
1.13478e+06
8.58542e+06
-10860.8
1.27437e+06
8.38452e+06
-13187.6
1.44273e+06
8.14096e+06
-2625.84
1.59114e+06
7.82615e+06
10462
1.72236e+06
7.47292e+06
13853.6
1.81035e+06
7.13596e+06
5217.31
1.81832e+06
6.85973e+06
5254.21
1.70665e+06
6.62547e+06
9350.96
1.57308e+06
6.40161e+06
10207.7
1.49555e+06
6.16476e+06
80759
1.52775e+06
4.86686e+06
301904
1.98126e+06
3.65751e+06
332319
1.5905e+06
3.06944e+06
284200
1.17677e+06
2.86652e+06
243152
789142
2.73028e+06
221394
542025
2.56634e+06
189375
328039
2.39533e+06
156845
99795.7
2.3649e+06
155100
-64264
2.40306e+06
160893
-158679
2.4844e+06
158433
-254711
2.6225e+06
150363
-364298
2.8215e+06
140590
-472623
3.0741e+06
129944
-574971
3.36828e+06
118756
-670763
3.69093e+06
106128
-757186
4.02942e+06
92789.9
-831459
4.37634e+06
77658.1
-894254
4.72621e+06
62672.7
-948009
5.09388e+06
45857.7
-991305
25849.5
-1.04929e+06
9.99908e+06
15431.2
9.99457e+06
46094
9.98683e+06
77121.2
9.97575e+06
108635
9.96122e+06
140761
9.94308e+06
174277
9.92138e+06
208564
9.8954e+06
244516
9.86521e+06
281713
9.83088e+06
320702
9.79169e+06
361433
9.74774e+06
403983
9.69894e+06
448410
9.64515e+06
494818
9.58673e+06
542869
9.52395e+06
592737
9.45767e+06
643880
9.38842e+06
696390
9.3152e+06
749997
9.2366e+06
805489
9.15022e+06
866817
9.0543e+06
939253
8.93443e+06
1.03799e+06
8.77365e+06
1.14023e+06
8.57265e+06
1.26777e+06
8.34233e+06
1.42157e+06
8.06995e+06
1.57972e+06
7.78745e+06
1.69745e+06
7.50371e+06
1.77192e+06
7.20361e+06
1.79611e+06
6.91033e+06
1.73879e+06
6.66253e+06
1.60775e+06
6.43103e+06
1.50409e+06
6.21361e+06
1.53246e+06
6.20938e+06
1.76788e+06
5.93104e+06
1.87472e+06
5.41627e+06
1.62668e+06
4.92222e+06
1.23696e+06
4.54184e+06
920654
4.23075e+06
668994
4.01539e+06
473648
3.91218e+06
327104
3.87008e+06
202460
3.86519e+06
95931
3.89348e+06
3654.37
3.95583e+06
-78140.4
4.0506e+06
-150263
4.17452e+06
-213834
4.32185e+06
-269416
4.48594e+06
-319141
4.66312e+06
-362217
4.85631e+06
-403519
5.06039e+06
-428959
-472276
9.99913e+06
13.4335
16923.1
9.99496e+06
39.6707
50543.4
9.98778e+06
49.6922
84585
9.97748e+06
51.4866
119200
9.96395e+06
52.0027
154558
9.94703e+06
52.5065
191465
9.92654e+06
51.7303
229333
9.90237e+06
50.6387
268974
9.87396e+06
50.2485
310405
9.84132e+06
50.3899
353606
9.80431e+06
51.691
398700
9.76232e+06
56.1302
446266
9.71538e+06
65.4432
495715
9.66371e+06
79.3418
546951
9.60706e+06
96.1492
600073
9.54602e+06
118.82
654429
9.48091e+06
141.405
709766
9.41292e+06
175.652
765469
9.34282e+06
134.833
821320
9.27086e+06
59.3307
878728
9.19723e+06
-46.221
940807
9.12267e+06
402.694
1.01632e+06
9.03805e+06
1450.68
1.11441e+06
8.91887e+06
7318.71
1.2489e+06
8.76295e+06
3691.55
1.42793e+06
8.59895e+06
-4070.83
1.61147e+06
8.41318e+06
-6087
1.78531e+06
8.16764e+06
-1301.52
1.973e+06
7.84866e+06
13235.8
2.12043e+06
7.45318e+06
22638.6
2.19563e+06
7.01647e+06
19815.5
2.12703e+06
6.61879e+06
6372.36
1.96664e+06
6.30726e+06
1352.4
1.80656e+06
6.10427e+06
5153.37
1.72535e+06
6.01001e+06
109577
1.96138e+06
5.47025e+06
129459
1.99631e+06
4.79748e+06
94534.5
1.74798e+06
4.17361e+06
79995.6
1.32098e+06
3.70796e+06
77358.9
913538
3.41326e+06
63981.2
541576
3.26197e+06
34824.2
201524
3.25614e+06
10069
-78789.5
3.39146e+06
-3872.02
-297309
3.62457e+06
-17047.2
-476771
3.91758e+06
-30841.6
-631644
4.24264e+06
-42283.5
-760937
4.57614e+06
-50145.4
-864260
4.90283e+06
-57356.6
-945166
5.21443e+06
-65533.8
-1.00644e+06
5.50619e+06
-74733.9
-1.05019e+06
5.77383e+06
-84165.1
-1.07923e+06
6.01823e+06
-95833.4
-1.09971e+06
6.23856e+06
-104309
-1.11008e+06
-121056
-1.11724e+06
9.99915e+06
16921.5
9.99496e+06
50538.9
9.98777e+06
84580.3
9.97747e+06
119195
9.96394e+06
154552
9.94703e+06
191458
9.92654e+06
229326
9.90236e+06
268966
9.87394e+06
310397
9.84129e+06
353598
9.8043e+06
398692
9.76232e+06
446257
9.71539e+06
495705
9.66372e+06
546937
9.60707e+06
600056
9.54603e+06
654403
9.48092e+06
709735
9.41283e+06
765397
9.3426e+06
821261
9.2705e+06
878691
9.19734e+06
941119
9.12303e+06
1.01535e+06
9.04904e+06
1.11505e+06
8.95376e+06
1.24479e+06
8.80662e+06
1.42039e+06
8.61587e+06
1.60975e+06
8.36507e+06
1.82654e+06
8.06371e+06
1.9992e+06
7.7552e+06
2.09542e+06
7.43948e+06
2.13691e+06
7.08336e+06
2.1176e+06
6.69377e+06
2.00613e+06
6.31689e+06
1.88316e+06
6.02096e+06
1.83279e+06
6.00403e+06
1.89229e+06
6.05642e+06
1.94895e+06
5.96234e+06
1.81081e+06
5.74725e+06
1.52509e+06
5.5158e+06
1.2213e+06
5.31019e+06
931063
5.15253e+06
659973
5.06034e+06
424548
5.02846e+06
226770
5.04529e+06
59190
5.09994e+06
-84741.2
5.18503e+06
-208929
5.29703e+06
-316068
5.43013e+06
-407182
5.57607e+06
-482171
5.72688e+06
-544759
5.87446e+06
-593794
6.02052e+06
-646075
6.14982e+06
-662845
-752307
9.99921e+06
11.8258
18275.3
9.99542e+06
35.485
54592.4
9.98887e+06
44.7504
91385.1
9.97948e+06
46.4537
128840
9.9671e+06
46.8283
167172
9.95158e+06
47.104
207226
9.93273e+06
46.08
248435
9.9103e+06
44.7324
291659
9.884e+06
44.0477
336953
9.85352e+06
43.9825
384316
9.81855e+06
44.9838
433897
9.7789e+06
49.1602
486178
9.7342e+06
57.7139
540734
9.68416e+06
70.3446
597400
9.62902e+06
84.984
655707
9.56883e+06
99.2654
715166
9.5045e+06
119.375
774730
9.43715e+06
137.156
833529
9.36907e+06
167.226
890293
9.30347e+06
125.266
945411
9.24485e+06
127.862
1.00069e+06
9.19619e+06
-241.754
1.06688e+06
9.15606e+06
460.974
1.15574e+06
9.10594e+06
8408.76
1.29316e+06
9.0045e+06
16603.8
1.51508e+06
8.84578e+06
11643.9
1.76014e+06
8.63143e+06
-261.601
2.00201e+06
8.3929e+06
-4590.38
2.21838e+06
8.13371e+06
1818.61
2.38045e+06
7.83276e+06
10057.1
2.48959e+06
7.43349e+06
8524.05
2.52131e+06
6.93261e+06
4107.39
2.46685e+06
6.43191e+06
6652.71
2.30249e+06
6.01048e+06
-4753.39
2.15036e+06
5.87592e+06
12644.5
2.08103e+06
5.7915e+06
22492.3
2.05449e+06
5.61238e+06
29740.8
1.89045e+06
5.33465e+06
22711.4
1.56515e+06
5.06863e+06
1825.99
1.16525e+06
4.88574e+06
-32841.5
745953
4.80847e+06
-73410.2
343346
4.83403e+06
-106535
-4238.19
4.94421e+06
-128479
-283428
5.10951e+06
-145308
-499821
5.30158e+06
-157408
-669706
5.5008e+06
-163784
-800531
5.69375e+06
-165206
-895693
5.8726e+06
-164748
-960620
6.03476e+06
-164923
-1.00166e+06
6.18186e+06
-167386
-1.02498e+06
6.31166e+06
-170227
-1.03225e+06
6.43228e+06
-179793
-1.03501e+06
6.5225e+06
-178147
-1.01998e+06
-204308
-1.0259e+06
9.99923e+06
18275.7
9.99541e+06
54591.5
9.98886e+06
91380.3
9.97947e+06
128834
9.96709e+06
167166
9.95158e+06
207219
9.93272e+06
248428
9.91029e+06
291651
9.88398e+06
336945
9.8535e+06
384308
9.81854e+06
433889
9.77889e+06
486169
9.73421e+06
540724
9.68417e+06
597387
9.62902e+06
655692
9.56883e+06
715148
9.5045e+06
774705
9.43715e+06
833490
9.36903e+06
890275
9.30335e+06
945337
9.24434e+06
1.00124e+06
9.19486e+06
1.06574e+06
9.15728e+06
1.15465e+06
9.1231e+06
1.28915e+06
9.05823e+06
1.50348e+06
8.91107e+06
1.77031e+06
8.69421e+06
2.04443e+06
8.42644e+06
2.2638e+06
8.12059e+06
2.40488e+06
7.78672e+06
2.48291e+06
7.40889e+06
2.50638e+06
6.96026e+06
2.46096e+06
6.48175e+06
2.36936e+06
6.04321e+06
2.26583e+06
5.77624e+06
2.17013e+06
5.69171e+06
2.053e+06
5.67805e+06
1.8492e+06
5.65932e+06
1.56007e+06
5.64087e+06
1.2349e+06
5.63172e+06
901501
5.63441e+06
579437
5.65678e+06
292528
5.7018e+06
50958.7
5.76406e+06
-150740
5.83912e+06
-320049
5.9218e+06
-458512
6.00627e+06
-568117
6.08694e+06
-652925
6.1605e+06
-718467
6.2273e+06
-775063
6.29083e+06
-823412
6.36651e+06
-898493
6.44387e+06
-915669
-1.14882e+06
9.9993e+06
11.5579
19484.5
9.99594e+06
35.0847
58194.7
9.99013e+06
43.9299
97434.8
9.98176e+06
45.4592
137435
9.9707e+06
45.6445
178448
9.95679e+06
45.6887
221358
9.93961e+06
44.5195
265847
9.91928e+06
43.0991
312225
9.8955e+06
42.4151
360960
9.86749e+06
42.3507
412536
9.83487e+06
43.3835
466722
9.79764e+06
47.3037
523648
9.75508e+06
55.3475
583586
9.7071e+06
67.1249
645756
9.65299e+06
80.097
710265
9.59308e+06
92.4897
775571
9.52779e+06
105.857
840570
9.45893e+06
118.179
902999
9.38972e+06
145.23
960216
9.32644e+06
136.151
1.00959e+06
9.27828e+06
213.133
1.04993e+06
9.25699e+06
328.708
1.08895e+06
9.2654e+06
1378.11
1.1474e+06
9.30402e+06
3702.36
1.2535e+06
9.28525e+06
10613.9
1.52563e+06
9.13101e+06
10726.1
1.90546e+06
8.87693e+06
2022.96
2.25495e+06
8.59041e+06
-2742.13
2.50864e+06
8.29684e+06
-1885.95
2.67738e+06
7.99277e+06
577.206
2.79488e+06
7.64781e+06
-731.577
2.86941e+06
7.23444e+06
-4312.43
2.88746e+06
6.73499e+06
-12808.5
2.81661e+06
6.21788e+06
-17966.9
2.68538e+06
5.81087e+06
-15789.5
2.50191e+06
5.58583e+06
-6476.66
2.28233e+06
5.4694e+06
2995.35
1.99868e+06
5.38676e+06
3045.45
1.63915e+06
5.33163e+06
-9242.51
1.22433e+06
5.32101e+06
-33439.7
785825
5.35895e+06
-62695.3
365289
5.43651e+06
-89079.9
4705.25
5.53866e+06
-109102
-279916
5.65411e+06
-122842
-497390
5.77243e+06
-130284
-663361
5.88573e+06
-134166
-784642
5.98968e+06
-136761
-866022
6.08419e+06
-140927
-914675
6.17172e+06
-148256
-938782
6.25932e+06
-159852
-947793
6.35022e+06
-170274
-946458
6.46154e+06
-187822
-951547
6.55584e+06
-171515
-935225
-211405
-976882
9.99932e+06
19482.7
9.99594e+06
58189.8
9.99012e+06
97429.5
9.98175e+06
137429
9.9707e+06
178442
9.95679e+06
221351
9.93961e+06
265839
9.91927e+06
312217
9.89548e+06
360952
9.86747e+06
412527
9.83486e+06
466714
9.79764e+06
523639
9.75509e+06
583575
9.70711e+06
645741
9.65299e+06
710246
9.59308e+06
775547
9.52778e+06
840542
9.45892e+06
902964
9.38971e+06
960204
9.32639e+06
1.00952e+06
9.27816e+06
1.0506e+06
9.25727e+06
1.08816e+06
9.27173e+06
1.14266e+06
9.31234e+06
1.25336e+06
9.30108e+06
1.52728e+06
9.15896e+06
1.92364e+06
8.92597e+06
2.28005e+06
8.65384e+06
2.53376e+06
8.35575e+06
2.70184e+06
8.02528e+06
2.8151e+06
7.65277e+06
2.87983e+06
7.22287e+06
2.88837e+06
6.74164e+06
2.83861e+06
6.25348e+06
2.73562e+06
5.82848e+06
2.57773e+06
5.52241e+06
2.35011e+06
5.33397e+06
2.03805e+06
5.23979e+06
1.65471e+06
5.22651e+06
1.23694e+06
5.2786e+06
814838
5.36749e+06
426979
5.46953e+06
99646.1
5.57114e+06
-163014
5.66541e+06
-372329
5.74728e+06
-537108
5.81304e+06
-662534
5.86761e+06
-761473
5.92616e+06
-852136
6.0121e+06
-950693
6.15111e+06
-1.07062e+06
6.37562e+06
-1.21376e+06
6.69607e+06
-1.40117e+06
7.1547e+06
-1.54181e+06
-1.93324e+06
9.9994e+06
9.74791
20514.8
9.99653e+06
30.4156
61283.9
9.99154e+06
38.3401
102637
9.98434e+06
39.7106
144844
9.97458e+06
39.7165
188406
9.96268e+06
39.5254
233457
9.94782e+06
38.1447
280909
9.92992e+06
36.5238
330340
9.9084e+06
35.665
382679
9.88326e+06
35.3809
437861
9.85381e+06
36.1825
496359
9.81931e+06
39.3083
558346
9.77946e+06
46.0681
623694
9.73318e+06
55.4533
692355
9.68016e+06
65.4111
763654
9.61971e+06
74.5968
836425
9.55169e+06
80.3356
909007
9.47735e+06
96.0751
977814
9.40029e+06
103.663
1.03783e+06
9.32925e+06
205.462
1.08133e+06
9.28072e+06
340.178
1.09916e+06
9.27741e+06
1817.56
1.09247e+06
9.36128e+06
4028.09
1.06135e+06
9.55852e+06
5656.26
1.05293e+06
9.62091e+06
12212.2
1.45401e+06
9.44513e+06
10357
2.07222e+06
9.13684e+06