/*--------------------------------*- C++ -*----------------------------------*\
| =========                 |                                                 |
| \\      /  F ield         | OpenFOAM: The Open Source CFD Toolbox           |
|  \\    /   O peration     | Version:  4.1                                   |
|   \\  /    A nd           | Web:      www.OpenFOAM.org                      |
|    \\/     M anipulation  |                                                 |
\*---------------------------------------------------------------------------*/
FoamFile
{
    version     2.0;
    format      ascii;
    class       volScalarField;
    location    "52";
    object      omega;
}
// * * * * * * * * * * * * * * * * * * * * * * * * * * * * * * * * * * * * * //

dimensions      [0 0 -1 0 0 0 0];

internalField   nonuniform List<scalar> 
4432
(
0.0110944
0.0114473
0.0118134
0.0121556
0.012511
0.0128437
0.0131874
0.0135077
0.0138393
0.014145
0.0144675
0.014756
0.0150715
0.0153409
0.0156495
0.0159013
0.0161997
0.0164385
0.0167211
0.0169507
0.0172157
0.0174454
0.0177042
0.0179275
0.0181753
0.0183793
0.0186115
0.018801
0.0190163
0.0191976
0.0194119
0.0195858
0.0198077
0.0199648
0.0201907
0.0203374
0.0205606
0.0206928
0.0209135
0.0210204
0.0212041
0.0213132
0.0215315
0.0217124
0.0220012
0.0222994
0.0226164
0.0229677
0.0232786
0.0237499
0.0240249
0.0241495
0.0242048
0.024266
0.011081
0.0114597
0.0118037
0.0121624
0.0125061
0.0128447
0.0131876
0.013505
0.0138444
0.0141408
0.0144773
0.0147512
0.0150863
0.0153349
0.015669
0.0158933
0.0162231
0.0164286
0.0167487
0.0169403
0.0172429
0.017435
0.0177258
0.01792
0.0181948
0.0183831
0.0186413
0.0188187
0.0190593
0.0192285
0.0194671
0.0196323
0.0198735
0.0200243
0.020266
0.0204088
0.0206398
0.0207586
0.0209783
0.0210949
0.0213057
0.0214421
0.0216709
0.0218658
0.022014
0.0223103
0.0225022
0.0228749
0.0232173
0.0234359
0.0234582
0.0234624
0.0235344
0.0232968
21.797
3.38075
1.22918
0.663727
0.436614
0.320534
0.251656
0.206545
0.174893
0.151526
0.133615
0.119452
0.108004
0.0985402
0.090624
0.0838728
0.078093
0.0730428
0.0686449
0.0647294
0.0612804
0.058166
0.05539
0.0528529
0.0505537
0.0484415
0.0464916
0.0447096
0.0430382
0.0415319
0.0400998
0.0388215
0.0375843
0.0364754
0.0353737
0.0343889
0.0333883
0.0325188
0.031603
0.0308487
0.0300177
0.0293737
0.0286481
0.0281243
0.0275089
0.0270701
0.0265339
0.0261927
0.0257416
0.0255089
0.0252189
0.0248222
0.0247693
0.0241411
21.797
3.38079
1.22922
0.66375
0.436621
0.320535
0.251653
0.206542
0.174888
0.151524
0.133609
0.119451
0.107997
0.0985407
0.0906174
0.0838746
0.0780861
0.0730441
0.0686391
0.0647303
0.0612757
0.0581621
0.0553847
0.0528423
0.0505537
0.0484328
0.0465073
0.044715
0.0430761
0.0415547
0.040148
0.0388499
0.03762
0.036498
0.0353932
0.0344128
0.0334037
0.0325556
0.0316328
0.0308993
0.0300671
0.0294508
0.0287249
0.0282274
0.0275819
0.0271772
0.0266188
0.0263052
0.0258406
0.0255958
0.0252858
0.0248177
0.0248124
0.0242357
21.7967
3.3809
1.22935
0.663914
0.436808
0.32071
0.25183
0.206723
0.175077
0.151719
0.133811
0.119658
0.108207
0.098756
0.0908294
0.0840948
0.0782952
0.0732641
0.0688409
0.0649456
0.0614715
0.0583809
0.0555871
0.0530716
0.0507631
0.0486639
0.0467146
0.0449369
0.0432743
0.0417604
0.0403365
0.0390416
0.0378098
0.0366852
0.0356001
0.0346045
0.0336347
0.0327564
0.0318862
0.0311174
0.0303379
0.0296913
0.0289945
0.0284619
0.0278323
0.0274072
0.026845
0.0264784
0.0259913
0.0256896
0.0253784
0.0249166
0.0248381
0.0243253
21.7967
3.38094
1.22939
0.663934
0.436814
0.32071
0.251828
0.206721
0.175074
0.151716
0.133808
0.119653
0.108205
0.0987505
0.0908302
0.0840877
0.0782984
0.0732544
0.068846
0.0649356
0.0614815
0.0583701
0.0555968
0.053058
0.0507703
0.0486546
0.0467262
0.044945
0.0432955
0.0417894
0.0403618
0.0390784
0.0378272
0.0367202
0.0356093
0.0346404
0.0336482
0.0327984
0.0319093
0.0311774
0.0303859
0.0297733
0.0290655
0.0285538
0.0279215
0.0274937
0.0269193
0.0265641
0.0260622
0.0257837
0.0253333
0.025128
0.0247815
0.0244395
21.7968
3.38084
1.22929
0.663859
0.436759
0.320665
0.251788
0.206683
0.175036
0.15168
0.133769
0.11962
0.108164
0.0987185
0.0907862
0.0840547
0.0782491
0.0732188
0.0687917
0.0649068
0.0614338
0.0583595
0.0555659
0.0530654
0.0507552
0.0486644
0.0467183
0.0449404
0.0432849
0.0417581
0.040338
0.0390222
0.0377964
0.0366613
0.0355881
0.034596
0.033642
0.0327705
0.0319203
0.0311735
0.0304206
0.0297785
0.0290914
0.0285251
0.027906
0.0273862
0.0268589
0.0263774
0.025958
0.0254819
0.0250946
0.0246565
0.024449
0.0242777
21.7968
3.38087
1.22932
0.663876
0.436763
0.320664
0.251784
0.20668
0.175033
0.151677
0.133767
0.119615
0.108164
0.0987129
0.0907872
0.0840502
0.0782496
0.0732172
0.0687945
0.0649095
0.0614367
0.0583593
0.0555614
0.0530587
0.0507454
0.0486622
0.0467128
0.0449526
0.0432884
0.0417889
0.0403503
0.0390703
0.0378109
0.0367146
0.0355944
0.0346481
0.0336413
0.032822
0.0319243
0.0312215
0.0304237
0.0298129
0.0291012
0.0285601
0.0279235
0.0274374
0.0269033
0.0264349
0.0260051
0.0255024
0.0251727
0.0246095
0.0245838
0.0242277
21.7969
3.38082
1.22926
0.663834
0.436735
0.320643
0.251764
0.206659
0.175012
0.151654
0.133743
0.119589
0.108137
0.0986809
0.0907578
0.084009
0.0782162
0.0731679
0.0687627
0.064856
0.0614069
0.0583043
0.0555373
0.0530114
0.0507357
0.0486258
0.0467117
0.0449185
0.0432852
0.0417479
0.0403387
0.0390186
0.0377903
0.0366589
0.0355732
0.034602
0.0336283
0.0327892
0.0319171
0.0311971
0.0304177
0.0297837
0.0290775
0.0285021
0.0278541
0.0273255
0.0267725
0.0262811
0.0258037
0.0253527
0.0249423
0.0244963
0.0242319
0.0240128
21.7969
3.38085
1.22929
0.663848
0.436739
0.32064
0.251763
0.206653
0.175013
0.151646
0.133746
0.11958
0.10814
0.0986731
0.0907599
0.0840035
0.0782191
0.0731666
0.0687676
0.0648576
0.0614105
0.0583034
0.0555363
0.0530072
0.0507318
0.0486244
0.0467137
0.044926
0.0432985
0.041766
0.0403666
0.0390445
0.0378267
0.0366818
0.0356079
0.0346172
0.0336558
0.0328022
0.0319333
0.0312005
0.030408
0.0297702
0.0290426
0.0284684
0.027808
0.0272954
0.0267127
0.0262613
0.0257125
0.0253474
0.0247682
0.0245392
0.0240238
0.0239814
21.7969
3.38079
1.22922
0.663798
0.436705
0.320619
0.251738
0.206636
0.174983
0.151627
0.133709
0.119556
0.108097
0.0986404
0.0907098
0.0839621
0.078163
0.0731201
0.0687081
0.0648087
0.0613478
0.058251
0.0554764
0.0529665
0.0506957
0.0486059
0.0466995
0.0449127
0.0432882
0.0417418
0.0403503
0.0390021
0.037804
0.0366242
0.0355916
0.0345614
0.0336617
0.0327512
0.0319545
0.0311412
0.0304375
0.0297047
0.0290816
0.0284089
0.0278617
0.0272669
0.0268062
0.026275
0.0258616
0.0253601
0.0249841
0.024537
0.0243756
0.023795
21.7969
3.38082
1.22925
0.663811
0.43671
0.320616
0.251738
0.20663
0.174983
0.151621
0.133709
0.119552
0.108095
0.0986391
0.0907079
0.0839631
0.0781641
0.0731223
0.0687129
0.0648088
0.0613564
0.0582514
0.0554858
0.0529638
0.0506976
0.0486015
0.0466983
0.0449194
0.043297
0.0417651
0.0403714
0.0390359
0.0378353
0.0366609
0.0356266
0.0345885
0.0336909
0.0327636
0.0319719
0.0311418
0.0304383
0.029686
0.0290632
0.0283686
0.0278365
0.027185
0.0267695
0.0261442
0.0257904
0.0251927
0.0248952
0.0243569
0.0241876
0.0234913
21.7969
3.38078
1.22919
0.66377
0.436682
0.320594
0.251715
0.206607
0.174954
0.151594
0.133673
0.119519
0.108051
0.0986009
0.0906512
0.0839198
0.0780925
0.0730762
0.0686288
0.0647644
0.0612635
0.0582059
0.0553948
0.0529273
0.0506329
0.048586
0.0466625
0.0449112
0.043268
0.0417455
0.0403331
0.0390024
0.0377846
0.0366243
0.0355704
0.0345614
0.0336387
0.0327533
0.0319264
0.0311321
0.0303996
0.0296686
0.0290367
0.0283566
0.0278308
0.0272035
0.0267958
0.0261969
0.0258523
0.0252173
0.0249232
0.0242217
0.0240255
0.0231834
21.7969
3.38081
1.22922
0.663784
0.436685
0.320595
0.25171
0.206608
0.174948
0.151595
0.133667
0.119519
0.108046
0.0985995
0.0906514
0.0839166
0.0781001
0.0730699
0.0686434
0.064753
0.0612838
0.0581929
0.0554186
0.052914
0.0506527
0.0485721
0.0466797
0.0449082
0.0432883
0.041759
0.0403602
0.0390274
0.037822
0.0366491
0.0356162
0.0345724
0.0336852
0.0327422
0.0319701
0.0311152
0.0304269
0.0296594
0.0290418
0.0283541
0.0278101
0.0271946
0.0267403
0.0261371
0.025749
0.0251183
0.0247635
0.0241051
0.0237575
0.0232141
21.7968
3.38074
1.22914
0.663729
0.436652
0.320567
0.251689
0.206576
0.174927
0.151553
0.133642
0.119466
0.108016
0.0985343
0.090612
0.0838385
0.0780475
0.0729798
0.0685777
0.0646593
0.0612091
0.0581022
0.0553382
0.0528441
0.0505946
0.0485435
0.0466548
0.0449008
0.0432746
0.0417412
0.040334
0.0389972
0.0377785
0.0366253
0.0355537
0.0345692
0.03361
0.0327671
0.0318955
0.0311539
0.0303572
0.029693
0.0289811
0.0283985
0.0277612
0.0272592
0.0266764
0.026192
0.0256705
0.0250787
0.0246939
0.0240041
0.0238064
0.0230305
21.7968
3.38077
1.22917
0.663741
0.436654
0.320568
0.251684
0.20658
0.174917
0.151561
0.133629
0.119478
0.108
0.0985498
0.0905957
0.0838572
0.0780336
0.0730022
0.0685659
0.0646808
0.0611999
0.0581247
0.0553382
0.0528627
0.0505934
0.0485516
0.0466476
0.044913
0.0432737
0.041774
0.0403496
0.0390452
0.0378111
0.036668
0.0356029
0.0345897
0.0336687
0.0327582
0.03195
0.0311217
0.0303991
0.0296563
0.0290061
0.0283484
0.0277641
0.0271734
0.0266448
0.0260653
0.025585
0.0249375
0.0245757
0.0238616
0.0236136
0.0229965
21.7968
3.38072
1.22911
0.663697
0.436625
0.320542
0.251663
0.206548
0.174895
0.151519
0.133601
0.119424
0.107964
0.0984845
0.0905469
0.0837799
0.077968
0.0729112
0.0684857
0.0645812
0.0611101
0.0580154
0.0552413
0.0527635
0.0505229
0.048501
0.046628
0.0449053
0.0432857
0.0417675
0.0403618
0.0390236
0.0378071
0.0366367
0.0355759
0.0345601
0.0336238
0.0327413
0.031909
0.0311154
0.0303739
0.0296455
0.028994
0.0283501
0.0277453
0.0272013
0.0265806
0.0261297
0.025524
0.0250513
0.0246867
0.0241341
0.0239383
0.0233903
21.7968
3.38075
1.22913
0.663708
0.436627
0.320543
0.251659
0.20655
0.174888
0.151523
0.133593
0.119431
0.107954
0.0984928
0.0905386
0.0837895
0.0779638
0.0729225
0.0684836
0.064591
0.0611074
0.0580288
0.0552463
0.0527817
0.0505296
0.0485115
0.0466332
0.0449174
0.0432972
0.0417999
0.0403848
0.0390716
0.0378405
0.0366854
0.035619
0.0345952
0.0336706
0.0327542
0.031943
0.0311096
0.0303867
0.0296339
0.0289904
0.028327
0.0277427
0.0271361
0.0265898
0.0260243
0.025498
0.0249612
0.0245297
0.0239394
0.0237248
0.0231485
21.7968
3.38068
1.22904
0.663648
0.436592
0.320515
0.251636
0.20652
0.174861
0.151484
0.133559
0.11938
0.107912
0.0984276
0.0904835
0.0837079
0.0778912
0.0728219
0.0683913
0.0644696
0.0610004
0.0578896
0.0551358
0.0526508
0.0504612
0.0484558
0.0466482
0.0449419
0.0433584
0.0418539
0.0404419
0.0391152
0.0378645
0.0367107
0.0356087
0.0346138
0.0336409
0.0327798
0.0319208
0.0311456
0.0303908
0.029658
0.0290069
0.0283287
0.0277623
0.0272065
0.0266089
0.026285
0.0256557
0.0256527
0.0257739
0.0260231
0.0268455
0.0268485
21.7968
3.3807
1.22906
0.663657
0.436594
0.320514
0.251636
0.206518
0.174863
0.151481
0.133563
0.119375
0.107918
0.098421
0.0904931
0.0837006
0.0779055
0.0728138
0.0684103
0.0644593
0.0610208
0.057886
0.0551667
0.0526611
0.050492
0.0484662
0.0466669
0.0449485
0.0433753
0.0418663
0.0404696
0.0391411
0.0379111
0.0367442
0.0356686
0.0346424
0.0337041
0.0327909
0.0319692
0.0311387
0.0304085
0.0296498
0.0289918
0.0283191
0.0277142
0.0271291
0.0265694
0.0260821
0.0255759
0.0252923
0.0247803
0.0246113
0.0245874
0.0246335
21.7967
3.38065
1.229
0.663612
0.436564
0.320493
0.251611
0.206497
0.174827
0.151457
0.133511
0.119349
0.107847
0.0983899
0.0903988
0.0836576
0.0777861
0.0727498
0.0682641
0.0643729
0.06086
0.0577789
0.0550035
0.0525642
0.0504211
0.0484703
0.0467433
0.045082
0.0435648
0.042068
0.0406862
0.0393366
0.038103
0.0369025
0.0358369
0.0347654
0.0338706
0.0328927
0.0321508
0.0312532
0.0306052
0.0299429
0.0289279
0.0284306
0.02827
0.0273439
0.0277807
0.0284179
0.0288854
0.0300558
0.0312508
0.0340514
0.0339359
0.0341997
21.7967
3.38068
1.22901
0.66362
0.436567
0.320491
0.251611
0.206493
0.17483
0.151452
0.133516
0.119343
0.107853
0.0983838
0.0904069
0.083653
0.0777951
0.0727488
0.0682724
0.0643719
0.0608679
0.0577813
0.0550285
0.0525756
0.050454
0.0484745
0.0467714
0.045071
0.0435786
0.0420492
0.0407014
0.0393307
0.0381192
0.0369164
0.0358385
0.0347928
0.0338376
0.0329112
0.0320758
0.031224
0.0305057
0.0297421
0.0291114
0.0285103
0.0279945
0.0275342
0.0269459
0.0270408
0.0270108
0.0272357
0.0279531
0.0282739
0.030409
0.030387
21.7967
3.3806
1.22892
0.663556
0.436529
0.32047
0.251584
0.206477
0.174791
0.151437
0.133459
0.119328
0.107772
0.0983691
0.0902946
0.0836338
0.0776437
0.0727148
0.0680777
0.0643175
0.0606322
0.0577142
0.0547879
0.0525545
0.0504974
0.0488016
0.0473844
0.0459618
0.0445915
0.0431462
0.0417859
0.0404481
0.039177
0.037993
0.0368796
0.035842
0.0348826
0.0342845
0.0327656
0.0322443
0.0322138
0.0308292
0.0313826
0.0321183
0.0333077
0.0356387
0.0370113
0.0403321
0.0401686
0.0404088
0.040353
0.0405639
0.0397478
0.0385737
21.7966
3.38062
1.22893
0.663563
0.436531
0.320469
0.251584
0.206477
0.174792
0.151435
0.133463
0.119326
0.107778
0.0983663
0.0903007
0.0836338
0.0776472
0.0727225
0.0680729
0.0643348
0.0606166
0.0577374
0.0547831
0.052593
0.050504
0.0488214
0.0472802
0.0457611
0.0443222
0.042849
0.0414902
0.0401176
0.0388788
0.0376645
0.0365444
0.0354903
0.0345129
0.0335531
0.0328588
0.0319054
0.031842
0.0304056
0.030571
0.030606
0.0309793
0.0307918
0.0318003
0.0328967
0.0353754
0.036011
0.0362164
0.0364525
0.036435
0.0360523
21.7966
3.38057
1.22887
0.663521
0.436506
0.320449
0.251567
0.206454
0.174772
0.151406
0.133435
0.119288
0.107737
0.0983187
0.0902395
0.0835749
0.0775499
0.0726551
0.0679075
0.0642758
0.0603452
0.0577914
0.0544084
0.0533255
0.0512527
0.0525205
0.0542641
0.054678
0.0532261
0.0515687
0.0497811
0.0485889
0.0473257
0.045866
0.045217
0.0420032
0.0432529
0.0437316
0.0455858
0.0464859
0.0502657
0.0475459
0.047913
0.0484225
0.0487695
0.0512537
0.0488243
0.0497584
0.0496673
0.0474796
0.0457109
0.0422576
0.0397952
0.0368274
21.7966
3.38059
1.22888
0.663527
0.436506
0.320452
0.251563
0.206461
0.174764
0.151419
0.13342
0.11931
0.107713
0.0983532
0.0902026
0.0836257
0.0775002
0.0727207
0.0678531
0.0643463
0.0602843
0.0578631
0.0544027
0.0532883
0.0512813
0.0518103
0.0514962
0.0504844
0.0493811
0.0477552
0.0460232
0.0445951
0.0431076
0.0418346
0.040569
0.0394681
0.0370015
0.0375103
0.0384443
0.0393245
0.041679
0.0399583
0.040433
0.0424368
0.0439996
0.0452427
0.0449219
0.0445978
0.0442761
0.0444326
0.0440491
0.0422311
0.0410299
0.0383658
21.7965
3.38051
1.22879
0.663462
0.436484
0.320415
0.251578
0.206397
0.174812
0.151304
0.133516
0.119124
0.107873
0.0980756
0.0904373
0.083236
0.0778109
0.0721966
0.0682256
0.063658
0.0607135
0.0569684
0.0553573
0.0548497
0.0614067
0.134852
0.126752
0.131145
0.131231
0.127664
0.123718
0.120365
0.11733
0.114599
0.111983
0.109371
0.106339
0.102783
0.0987739
0.0940274
0.0890281
0.0832911
0.0776942
0.0711974
0.0653613
0.0592584
0.0539168
0.0483144
0.0444906
0.0405893
0.0381368
0.0353367
0.0338361
0.0316784
21.7965
3.38053
1.2288
0.663468
0.436485
0.320419
0.251575
0.206405
0.174805
0.151319
0.133502
0.119147
0.107851
0.098107
0.0904082
0.083275
0.0777774
0.0722432
0.0681903
0.0637015
0.060691
0.0570132
0.0552228
0.0549234
0.0610352
0.103681
0.104903
0.108702
0.107891
0.107972
0.106721
0.104776
0.102301
0.10029
0.0989211
0.0974945
0.0960058
0.0941054
0.0918998
0.0893169
0.0863889
0.0825442
0.0786037
0.073749
0.0691225
0.0635041
0.0589013
0.0536932
0.0495997
0.0447652
0.0414206
0.0375625
0.0355767
0.0321153
21.7965
3.38048
1.22874
0.66343
0.436466
0.320405
0.251568
0.206389
0.1748
0.151293
0.133502
0.119105
0.107859
0.0980384
0.0904323
0.0831657
0.0778208
0.072084
0.0682276
0.0634962
0.0608146
0.0558771
0.0570859
0.0613959
0.25138
0.31744
0.142561
0.10536
0.0992564
0.0936947
0.0884459
0.0832934
0.0781
0.0726369
0.0672478
0.0623101
0.0580745
0.0545534
0.0520498
0.0503801
0.0491869
0.048352
0.0475169
0.0466945
0.0463175
0.0447626
0.043847
0.042372
0.0411836
0.0385335
0.0360741
0.0326811
0.0299224
0.0270478
21.7964
3.3805
1.22875
0.663434
0.436469
0.320405
0.251571
0.206388
0.174805
0.15129
0.133509
0.119101
0.107868
0.098035
0.0904398
0.0831701
0.0778179
0.072103
0.0682345
0.0634503
0.0609389
0.0561707
0.0561484
0.0602626
0.198966
0.317952
0.182806
0.110764
0.0930252
0.0881466
0.0845826
0.0808904
0.0768081
0.0725993
0.0685076
0.064551
0.060834
0.0574179
0.0544297
0.0517412
0.0497479
0.0480581
0.0468347
0.0455467
0.0446846
0.0432027
0.0419793
0.0398324
0.0384018
0.0362728
0.0343214
0.031681
0.0291772
0.0269457
21.7964
3.38041
1.22865
0.663377
0.436443
0.320394
0.251564
0.206382
0.174799
0.151281
0.133503
0.119085
0.107865
0.0980093
0.0904413
0.0831307
0.077825
0.0720463
0.0682532
0.0633796
0.0609318
0.0562829
0.0555313
0.119396
0.160424
0.169428
0.134071
0.122535
0.115041
0.110363
0.107147
0.104264
0.101496
0.0987192
0.0957764
0.091928
0.0876118
0.0827547
0.0777001
0.0723968
0.067067
0.0617731
0.0566019
0.0515652
0.0462722
0.041426
0.0364922
0.0323297
0.0288994
0.0267072
0.024761
0.0238416
0.0225779
21.7963
3.38044
1.22866
0.66338
0.436445
0.320394
0.251568
0.206382
0.174803
0.151285
0.133502
0.119097
0.107855
0.0980311
0.0904282
0.0831458
0.0778404
0.0720133
0.0683414
0.0632722
0.0610763
0.0559734
0.058533
0.115066
0.172072
0.197605
0.150796
0.130114
0.118209
0.111117
0.105755
0.101107
0.0971546
0.0937393
0.0901883
0.0864506
0.0825991
0.0785663
0.0743915
0.0699949
0.0653706
0.0607165
0.05606
0.0515239
0.046854
0.0423229
0.0377844
0.033971
0.0301914
0.0277242
0.0255331
0.0243609
0.0230514
21.7963
3.38039
1.22861
0.663352
0.436429
0.320401
0.251552
0.206405
0.174773
0.151324
0.133455
0.119155
0.107789
0.0981113
0.0903371
0.0832651
0.0777057
0.0722059
0.0681299
0.0636301
0.060642
0.0568952
0.055259
0.0578864
0.095877
0.1199
0.117773
0.117294
0.112291
0.105622
0.0984519
0.0908462
0.0828437
0.0747536
0.0668033
0.059505
0.0533632
0.0482175
0.043833
0.0401642
0.0370559
0.0344565
0.0322979
0.0304469
0.0289763
0.0276208
0.0266258
0.0255848
0.024906
0.0240805
0.0236161
0.0229854
0.0225542
0.0219901
21.7963
3.38041
1.22862
0.663355
0.436431
0.320401
0.251556
0.206404
0.17478
0.151321
0.133465
0.11915
0.1078
0.0981095
0.0903439
0.0832719
0.0777054
0.072223
0.0681248
0.0636548
0.0606201
0.0569522
0.0552155
0.0579562
0.08995
0.089631
0.0901925
0.088558
0.0866372
0.082915
0.078838
0.0743758
0.069469
0.0640916
0.0586412
0.0536636
0.0492527
0.0453538
0.0418825
0.038899
0.0362449
0.0340161
0.0320616
0.0304211
0.0290421
0.0278134
0.0268696
0.0258921
0.0252645
0.0244142
0.0239849
0.0232392
0.0229145
0.0222236
21.7962
3.38032
1.22853
0.663306
0.436408
0.320407
0.251543
0.206433
0.17475
0.151379
0.133402
0.119255
0.107686
0.0982838
0.0901581
0.0835451
0.0774263
0.0726315
0.0677412
0.0642387
0.0601418
0.0577122
0.0542242
0.0532031
0.050379
0.050959
0.0504777
0.0487917
0.0468543
0.0449061
0.0430367
0.0412988
0.0396655
0.038178
0.0367779
0.035512
0.0343153
0.0332297
0.0321945
0.0312389
0.0303252
0.0294598
0.0286543
0.0278434
0.02714
0.0263528
0.0257421
0.0249881
0.0244856
0.0237768
0.0233608
0.0227453
0.0224272
0.0216313
21.7961
3.38034
1.22853
0.66331
0.43641
0.32041
0.251545
0.20644
0.17475
0.151389
0.1334
0.119265
0.107686
0.0982915
0.0901661
0.083543
0.0774516
0.0726129
0.0677898
0.0642013
0.0602152
0.0576512
0.0543362
0.0530315
0.0508505
0.0505831
0.0493162
0.0475497
0.0457508
0.0440558
0.042397
0.0408341
0.0393683
0.0379714
0.0366881
0.0354664
0.0343402
0.0332851
0.0322777
0.0313549
0.0304378
0.029611
0.0287881
0.0280208
0.0272962
0.0265739
0.0259472
0.0252439
0.0247314
0.0240085
0.0236127
0.0228983
0.0226459
0.0218802
21.7961
3.3803
1.22849
0.663286
0.436407
0.320412
0.251557
0.206443
0.174772
0.151386
0.133437
0.119253
0.107745
0.0982661
0.0902554
0.0835059
0.0775795
0.0725703
0.0679714
0.0641581
0.0604757
0.0575323
0.0546202
0.0523769
0.0502272
0.048471
0.0468208
0.0451843
0.0436475
0.0421604
0.0407569
0.0394048
0.0381239
0.0368991
0.0357314
0.0346188
0.0335643
0.0325614
0.031616
0.0307122
0.0298702
0.0290483
0.0282997
0.0275346
0.0268711
0.0261346
0.0255533
0.0248547
0.024364
0.0236964
0.0233094
0.0226786
0.0224169
0.0216244
21.7961
3.38032
1.2285
0.663289
0.436408
0.320417
0.251557
0.206451
0.174769
0.151398
0.133431
0.119269
0.107736
0.0982853
0.0902471
0.0835243
0.077578
0.0725829
0.0679827
0.0641611
0.060503
0.0575302
0.0546493
0.0523757
0.0502479
0.0484969
0.0467506
0.0451462
0.0435645
0.0421168
0.0407048
0.0393701
0.0381031
0.036873
0.0357308
0.034617
0.0335837
0.0325929
0.031653
0.030777
0.0299246
0.0291386
0.0283807
0.0276485
0.0269878
0.0262924
0.025712
0.0250439
0.0245439
0.0238958
0.0234831
0.0228622
0.0226295
0.0218044
21.796
3.38024
1.22842
0.663248
0.436398
0.32042
0.251568
0.206462
0.174787
0.151409
0.133459
0.119278
0.10778
0.0982907
0.0903127
0.0835269
0.0776731
0.0725885
0.0681153
0.0641813
0.060669
0.0575698
0.0547896
0.0523315
0.0501473
0.0481541
0.0463658
0.0446652
0.0431178
0.0416239
0.0402498
0.0389169
0.0376794
0.0364762
0.0353617
0.0342768
0.033281
0.0323028
0.03141
0.0305294
0.0297299
0.028925
0.0282056
0.0274541
0.0268111
0.0260984
0.0255242
0.024842
0.0243337
0.023743
0.0233344
0.0228275
0.0225294
0.0220168
21.7959
3.38026
1.22842
0.66325
0.436401
0.320421
0.251575
0.206463
0.174797
0.151409
0.133469
0.11928
0.107789
0.098296
0.0903193
0.083538
0.077678
0.0726055
0.0681201
0.0642031
0.0606732
0.0575985
0.0547836
0.0523624
0.0501386
0.0481922
0.0463673
0.0447064
0.0431237
0.0416571
0.0402663
0.0389415
0.0377082
0.0365028
0.0354021
0.0343195
0.033326
0.032366
0.0314589
0.0306107
0.0297845
0.0290202
0.0282826
0.0275613
0.026922
0.0262225
0.0256582
0.0249928
0.0244987
0.0238941
0.0234832
0.0230001
0.0227101
0.0219921
21.7959
3.38022
1.22839
0.663237
0.436402
0.320433
0.251585
0.206482
0.17481
0.151435
0.133487
0.119311
0.107813
0.0983336
0.0903554
0.0835823
0.0777316
0.0726578
0.0681968
0.0642637
0.0607737
0.057651
0.0548824
0.0523694
0.0501422
0.0480836
0.0462475
0.0445044
0.0429352
0.0414269
0.0400563
0.0387264
0.0375085
0.0363158
0.0352273
0.0341518
0.0331801
0.0322072
0.0313343
0.0304597
0.0296696
0.0288697
0.028156
0.0274096
0.026783
0.0260731
0.0255393
0.0248721
0.0244017
0.0238052
0.0234284
0.0229169
0.0227781
0.0219751
21.7959
3.38024
1.22839
0.66324
0.436405
0.320436
0.251589
0.206486
0.174816
0.151439
0.133493
0.119315
0.107821
0.0983373
0.0903645
0.083588
0.0777416
0.0726676
0.0682066
0.064279
0.0607825
0.0576696
0.0548926
0.0523877
0.0501494
0.0481132
0.0462637
0.0445406
0.0429593
0.0414598
0.0400838
0.038753
0.0375413
0.0363449
0.0352662
0.0341946
0.0332164
0.0322703
0.031367
0.0305394
0.0297016
0.0289668
0.0282
0.0275168
0.0268429
0.0261781
0.0256011
0.0249721
0.0244727
0.0238902
0.0235172
0.022983
0.0228677
0.0220926
21.7958
3.38018
1.22833
0.663206
0.436399
0.320443
0.251604
0.206501
0.174835
0.151458
0.133518
0.119339
0.107853
0.0983668
0.0904071
0.0836223
0.0777981
0.072706
0.0682791
0.0643202
0.0608619
0.0577116
0.0549532
0.052401
0.0501591
0.0480628
0.0461899
0.044433
0.042829
0.0413205
0.0399229
0.0385999
0.0373715
0.0361907
0.0350959
0.0340347
0.0330457
0.0321005
0.0312006
0.0303645
0.0295388
0.0287958
0.0280377
0.0273757
0.0266832
0.0260911
0.0254733
0.024923
0.0243748
0.023869
0.0234173
0.02293
0.0226523
0.0218531
21.7958
3.3802
1.22833
0.663208
0.436402
0.320448
0.251608
0.206508
0.174839
0.151467
0.133521
0.11935
0.107854
0.0983809
0.0904079
0.08364
0.0777993
0.0727279
0.0682811
0.0643454
0.0608663
0.0577388
0.0549577
0.0524267
0.0501764
0.048082
0.0462257
0.0444531
0.0428762
0.0413415
0.0399729
0.0386247
0.0374176
0.0362213
0.0351419
0.0340759
0.0330984
0.0321572
0.031256
0.0304364
0.0295914
0.0288767
0.0280882
0.0274516
0.0267349
0.0261554
0.0255128
0.0249941
0.0244093
0.0239565
0.0234418
0.0230116
0.0226033
0.0218878
21.7957
3.38016
1.2283
0.663199
0.436408
0.320458
0.251625
0.206522
0.174863
0.151482
0.133553
0.119366
0.107896
0.0983991
0.0904594
0.083661
0.0778596
0.0727529
0.0683467
0.0643737
0.0609306
0.0577588
0.0550061
0.0524318
0.0501806
0.048054
0.0461773
0.0443874
0.0427807
0.0412483
0.039841
0.0385154
0.0372666
0.0361049
0.0349896
0.033949
0.032959
0.0320102
0.0311416
0.0302652
0.029506
0.0286883
0.0280246
0.0272612
0.0266767
0.0259762
0.0254681
0.0248262
0.0243678
0.0238578
0.0233747
0.0228585
0.0222562
0.021457
21.7957
3.38018
1.22831
0.663202
0.436411
0.320462
0.25163
0.206528
0.174868
0.151489
0.133557
0.119375
0.1079
0.0984104
0.0904609
0.0836779
0.0778588
0.0727768
0.0683438
0.0644038
0.0609274
0.0577908
0.0550101
0.0524629
0.0501871
0.0480921
0.046188
0.0444273
0.042799
0.0412874
0.0398697
0.038551
0.0373046
0.0361384
0.0350327
0.0339915
0.0330018
0.0320707
0.0311772
0.0303435
0.0295302
0.0287822
0.0280382
0.0273682
0.0266861
0.0260922
0.025457
0.0249626
0.0243535
0.0239399
0.0233695
0.0228877
0.022386
0.0215129
21.7956
3.38012
1.22826
0.663179
0.43641
0.320472
0.251643
0.206544
0.174885
0.151509
0.133578
0.1194
0.107924
0.0984409
0.090489
0.0837131
0.0778895
0.0728147
0.0683746
0.0644407
0.0609522
0.057824
0.0550199
0.052473
0.0501769
0.0480658
0.046144
0.0443639
0.0427221
0.0411966
0.0397625
0.0384446
0.0371716
0.0360276
0.0348839
0.0338777
0.0328484
0.0319446
0.0310322
0.0301998
0.0294043
0.0286231
0.0279377
0.0271952
0.0266036
0.0259139
0.0253912
0.0247456
0.0243615
0.0236827
0.023422
0.0224455
0.022132
0.0219445
21.7956
3.38014
1.22826
0.663182
0.436414
0.320477
0.251649
0.206551
0.174891
0.151517
0.133583
0.119411
0.107927
0.0984555
0.0904899
0.0837326
0.0778896
0.0728397
0.068375
0.0644711
0.0609531
0.0578605
0.0550174
0.0525157
0.0501802
0.0481071
0.0461571
0.0444054
0.0427466
0.0412346
0.0398033
0.0384772
0.0372304
0.036054
0.0349558
0.0339048
0.032924
0.0319861
0.0311004
0.0302602
0.0294648
0.0286936
0.0279993
0.0272673
0.026678
0.0259705
0.0254703
0.024814
0.0243651
0.023731
0.0234023
0.0226445
0.0224586
0.0218105
21.7956
3.38011
1.22825
0.663179
0.436421
0.320488
0.251665
0.206564
0.174912
0.151531
0.133609
0.119425
0.107959
0.0984703
0.0905276
0.0837481
0.0779296
0.0728548
0.0684133
0.0644824
0.0609865
0.057859
0.0550405
0.0524999
0.0501791
0.0480698
0.0461284
0.0443446
0.0426887
0.0411555
0.0397162
0.0383866
0.0371153
0.0359603
0.0348188
0.0338116
0.0327775
0.031886
0.030961
0.0301437
0.0293441
0.0285623
0.0279
0.0271439
0.026588
0.0258688
0.0253683
0.0247045
0.0242828
0.0235382
0.0231388
0.0224777
0.0226784
0.022333
21.7955
3.38013
1.22825
0.663183
0.436424
0.320494
0.251668
0.206573
0.174914
0.151544
0.133608
0.11944
0.107956
0.0984894
0.0905233
0.0837703
0.0779268
0.0728792
0.0684145
0.0645082
0.0609929
0.0578841
0.0550553
0.0525245
0.050195
0.0481023
0.0461439
0.0443832
0.0427042
0.0412013
0.0397359
0.0384378
0.0371456
0.0360091
0.0348654
0.033852
0.0328405
0.0319235
0.0310286
0.0301894
0.0294039
0.0286246
0.0279533
0.0272061
0.0266487
0.0258987
0.0254525
0.0246863
0.0242805
0.0235619
0.0231279
0.0225546
0.0231626
0.0227749
21.7955
3.38008
1.22821
0.663169
0.436428
0.320504
0.251683
0.206587
0.174932
0.151558
0.13363
0.119456
0.107982
0.0985058
0.0905537
0.0837853
0.077959
0.0728903
0.0684447
0.0645127
0.0610154
0.057883
0.0550655
0.0525081
0.05019
0.0480634
0.0461157
0.0443204
0.0426552
0.041118
0.0396667
0.0383404
0.0370527
0.0359098
0.0347447
0.0337628
0.0326952
0.0318369
0.0308796
0.0300813
0.0292731
0.0284906
0.0278249
0.027091
0.0264474
0.0258741
0.0251571
0.0247214
0.0240234
0.0236304
0.0231464
0.0234221
0.0246717
0.0248611
21.7955
3.3801
1.22822
0.663172
0.436431
0.320509
0.251688
0.206595
0.174937
0.151568
0.133635
0.119467
0.107986
0.098519
0.090557
0.0838023
0.0779618
0.0729128
0.0684479
0.0645414
0.0610196
0.0579182
0.055067
0.0525486
0.0501953
0.0481062
0.0461257
0.0443709
0.0426678
0.0411767
0.0396839
0.0384061
0.0370795
0.0359762
0.0347872
0.0338199
0.0327589
0.0318808
0.0309608
0.0301164
0.0293637
0.0285224
0.0279152
0.0271023
0.0265346
0.0258246
0.0252709
0.0244939
0.0242031
0.0233552
0.023571
0.0237394
0.0246343
0.0245978
21.7954
3.38009
1.22821
0.663177
0.436441
0.320521
0.251701
0.206607
0.174951
0.15158
0.133651
0.119479
0.108005
0.09853
0.0905778
0.0838101
0.0779843
0.0729148
0.0684694
0.0645351
0.0610372
0.0579004
0.0550778
0.0525213
0.0501909
0.0480632
0.0461075
0.0443067
0.0426394
0.0410902
0.0396482
0.0382999
0.0370332
0.0358586
0.0347199
0.0337077
0.0326562
0.0317811
0.0308252
0.0299991
0.0292254
0.0283436
0.0277772
0.0269128
0.0263918
0.0257278
0.0251735
0.0246993
0.024588
0.0252824
0.026305
0.0278607
0.0306705
0.0309436
21.7954
3.38011
1.22822
0.663182
0.436446
0.320526
0.251707
0.206613
0.174958
0.151587
0.133657
0.119487
0.108011
0.0985391
0.0905836
0.0838227
0.07799
0.0729325
0.0684756
0.0645589
0.0610449
0.0579279
0.0550888
0.0525513
0.0502019
0.0481005
0.0461203
0.0443494
0.0426547
0.0411391
0.0396669
0.0383561
0.0370574
0.0359202
0.0347537
0.0337646
0.0327099
0.0318201
0.0309033
0.0300289
0.0292995
0.0284021
0.0278032
0.0270007
0.0264025
0.0257641
0.0253291
0.0244916
0.0244135
0.0251122
0.0262699
0.0269359
0.0294187
0.0297086
21.7952
3.38014
1.22825
0.663219
0.436486
0.320565
0.251743
0.206647
0.174989
0.151616
0.133686
0.119513
0.108037
0.098562
0.0906089
0.0838406
0.0780143
0.0729425
0.068498
0.0645577
0.0610644
0.0579157
0.0551056
0.0525207
0.050216
0.048046
0.0461265
0.0442694
0.042652
0.0410345
0.0396512
0.0382289
0.0370216
0.035778
0.0346879
0.0336298
0.0325971
0.0317237
0.030745
0.029952
0.0291751
0.0282775
0.027702
0.0270483
0.0261025
0.0259595
0.0266184
0.0274994
0.0285594
0.03247
0.035062
0.0385695
0.0426376
0.0427318
21.7952
3.38016
1.22826
0.663224
0.436491
0.32057
0.251748
0.206652
0.174995
0.151622
0.133692
0.119519
0.108043
0.0985707
0.090615
0.0838535
0.0780202
0.0729616
0.0685038
0.0645849
0.0610692
0.057951
0.0551053
0.0525624
0.0502159
0.048092
0.0461307
0.0443202
0.0426625
0.0410878
0.0396706
0.0382841
0.0370501
0.0358371
0.0347217
0.033694
0.0326366
0.0317837
0.0308022
0.0299993
0.0292412
0.0283419
0.0277517
0.027108
0.0261481
0.0260948
0.0263529
0.0275755
0.0289174
0.032005
0.0351764
0.0396425
0.0424018
0.0421306
21.7953
3.37984
1.22776
0.662782
0.436126
0.320241
0.25144
0.206352
0.174715
0.151353
0.133446
0.119284
0.107826
0.0983502
0.0904115
0.0836379
0.077824
0.0727463
0.06831
0.0643685
0.060875
0.057733
0.0549107