/*--------------------------------*- C++ -*----------------------------------*\
| =========                 |                                                 |
| \\      /  F ield         | OpenFOAM: The Open Source CFD Toolbox           |
|  \\    /   O peration     | Version:  4.1                                   |
|   \\  /    A nd           | Web:      www.OpenFOAM.org                      |
|    \\/     M anipulation  |                                                 |
\*---------------------------------------------------------------------------*/
FoamFile
{
    version     2.0;
    format      ascii;
    class       surfaceScalarField;
    location    "52";
    object      phi;
}
// * * * * * * * * * * * * * * * * * * * * * * * * * * * * * * * * * * * * * //

dimensions      [0 3 -1 0 0 0 0];

internalField   nonuniform List<scalar> 
11516
(
9.98744e+06
199.008
9693.72
9.9692e+06
316.833
21043.6
9.94117e+06
455.75
30996.8
9.90395e+06
514.032
40438.1
9.85752e+06
583.739
49814.6
9.80154e+06
647.962
59342.6
9.73561e+06
652.789
69180.1
9.65933e+06
601.824
79416.2
9.57237e+06
542.005
90059.4
9.47444e+06
510.108
101224
9.36581e+06
563.736
112450
9.24779e+06
725.078
122784
9.12284e+06
904.405
131084
8.99645e+06
1014.74
134166
8.88017e+06
-108.054
126615
8.78707e+06
-1421.45
104980
8.7365e+06
440.569
61161.2
8.73457e+06
911.055
9428.29
8.74066e+06
1175.69
-774.806
8.71041e+06
2026.22
32665.5
8.64747e+06
-817.265
66731.2
8.55222e+06
-4708.6
102271
8.4316e+06
-7830.23
130592
8.29303e+06
-10365.4
151260
8.13813e+06
-12309.4
169745
7.98691e+06
-13748.3
167924
7.85339e+06
-11235
148639
7.74522e+06
-5868.7
118617
7.66325e+06
-4233.05
91151.4
7.60686e+06
-6866.8
68635.6
7.56375e+06
-11611.5
61243.4
7.50667e+06
-17453.3
81051.9
7.44771e+06
-17656.6
83070.3
7.43204e+06
-3719.05
26933.6
7.50391e+06
11968.5
-67616.8
7.60488e+06
15202.5
-97688.9
7.66712e+06
15663.5
-56652.3
7.7038e+06
5890.63
-18561.6
7.71213e+06
-2319.18
5237.08
7.72445e+06
37.5768
-5128.26
7.76413e+06
9608.61
-52550.3
7.78325e+06
19907.3
-66242.4
7.756e+06
21527.8
-42677.2
7.70484e+06
22031.6
-20692.8
7.64333e+06
6980.38
-3045.46
7.60565e+06
-8060.94
-26249.8
7.5449e+06
5105.79
6557.83
7.53904e+06
7696.42
-42296.5
7.54642e+06
27458.6
-89386
7.61942e+06
-11540.4
-161217
7.8154e+06
-1275.82
-226485
8.08018e+06
-23749.1
-362946
8.53541e+06
59600
-390644
107706
-757541
9.98773e+06
9693.91
9.96918e+06
21056.1
9.94103e+06
31004
9.90372e+06
40426.9
9.85723e+06
49796.8
9.80129e+06
59352.7
9.73541e+06
69230.3
9.65913e+06
79521.5
9.57211e+06
90224.8
9.47408e+06
101403
9.36535e+06
112638
9.24728e+06
122889
9.12198e+06
131258
8.99432e+06
134677
8.87235e+06
128612
8.77493e+06
103468
8.72672e+06
56062.8
8.73214e+06
934.116
8.74403e+06
-6599.3
8.71603e+06
32673.8
8.65324e+06
63858.7
8.55913e+06
90898.3
8.43886e+06
113815
8.29748e+06
132497
8.13582e+06
151079
7.97609e+06
148266
7.83362e+06
134170
7.71328e+06
118008
7.61857e+06
94680.2
7.5607e+06
56476.8
7.53919e+06
15990.6
7.52814e+06
239.294
7.5153e+06
2666.7
7.51838e+06
849.899
7.57678e+06
-35358.2
7.66308e+06
-52041.6
7.7277e+06
-28339.2
7.76422e+06
-15179.6
7.78181e+06
-11140.8
7.7968e+06
-16263.9
7.82453e+06
-27856.1
7.8427e+06
-23391.9
7.8361e+06
1887.64
7.79511e+06
17896.8
7.72482e+06
36242.9
7.67e+06
6731.6
7.62438e+06
17126.2
7.59822e+06
10191.4
7.57947e+06
-45309
7.74354e+06
-144007
7.85807e+06
-262088
8.23254e+06
-339733
8.63339e+06
-283208
-620479
1.00066e+07
200.836
5630.22
1.00149e+07
311.003
15517.1
1.00236e+07
453.885
25310
1.00322e+07
527.46
35156.7
1.00403e+07
618.069
45199.6
1.00477e+07
703.186
55572.3
1.00542e+07
736.708
66375
1.00598e+07
721.9
77495.5
1.0064e+07
690.304
89618.7
1.00671e+07
680.102
102053
1.00686e+07
712.526
115129
1.00677e+07
788.736
128367
1.00622e+07
1021.75
141657
1.00485e+07
1220.65
153569
1.00118e+07
3097.27
167714
9.94182e+06
3372.85
179369
9.8186e+06
3395.01
191066
9.62247e+06
2240.75
207819
9.40228e+06
-525.021
221990
9.20606e+06
-1087.77
231243
9.03594e+06
334.177
237373
8.89132e+06
1919.24
245510
8.76115e+06
3233.25
258002
8.63523e+06
4431.68
273272
8.51433e+06
5102.11
286272
8.39343e+06
5931.36
284109
8.26933e+06
7032.54
267682
8.12953e+06
9434.76
251847
7.97976e+06
14628.3
229467
7.82975e+06
18437.8
203600
7.67979e+06
22296.1
192228
7.55066e+06
26303.5
186567
7.47231e+06
23832.8
140349
7.45714e+06
15893.6
30961.7
7.51276e+06
6632.49
-118917
7.56533e+06
-5421.35
-121729
7.59106e+06
-18205
-36523.6
7.6016e+06
-28963
17899.3
7.5932e+06
-32559.8
52837.1
7.60425e+06
-22638.8
2030.43
7.61913e+06
-16818.7
-57638.9
7.58845e+06
-27313.6
-25088.3
7.52012e+06
-37373.7
36022.9
7.43583e+06
-42431.5
59825.6
7.35388e+06
-50826.9
73726.5
7.27329e+06
-56878.8
54825.3
7.21501e+06
-61422.8
69611.6
7.15118e+06
-49940.4
30409.5
7.0904e+06
-56188.9
-23885.7
7.11446e+06
-98975.4
-148223
7.00567e+06
-34748
-110934
7.06239e+06
66254
-426938
7.9428e+06
170445
-1.33103e+06
26772.7
-1.69022e+06
1.00068e+07
5627.01
1.00149e+07
15513.2
1.00235e+07
25303.6
1.0032e+07
35143.5
1.004e+07
45178.3
1.00475e+07
55548
1.00541e+07
66357.2
1.00599e+07
77497.6
1.00642e+07
89661.9
1.00674e+07
102138
1.00689e+07
115255
1.00679e+07
128558
1.00627e+07
141719
1.00498e+07
153784
1.00221e+07
165064
9.95992e+06
175777
9.83053e+06
195193
9.62942e+06
206933
9.4034e+06
220183
9.20768e+06
228057
9.0404e+06
231938
8.89632e+06
237241
8.76757e+06
246125
8.64406e+06
260856
8.52759e+06
273293
8.41174e+06
271234
8.29208e+06
262833
8.16547e+06
256734
8.0387e+06
239634
7.91581e+06
202430
7.77535e+06
182958
7.62862e+06
176481
7.52583e+06
132512
7.51224e+06
36546.8
7.56507e+06
-70055.6
7.63746e+06
-108682
7.68842e+06
-79415.6
7.70107e+06
-45298.7
7.6861e+06
-29434.3
7.69556e+06
-50340.4
7.73724e+06
-96072.6
7.74223e+06
-72749.7
7.69232e+06
-15486.4
7.6291e+06
8901.13
7.56638e+06
7117.22
7.50099e+06
-34127.8
7.45688e+06
-36644.6
7.4143e+06
-38525.7
7.38564e+06
-112342
7.33542e+06
-242380
7.25618e+06
-214533
7.51831e+06
-462099
8.20669e+06
-740698
-1.66878e+06
9.99939e+06
198.111
7245.52
9.99612e+06
307.517
21552.6
9.98861e+06
447.984
35757.6
9.97704e+06
521.438
49948.9
9.96138e+06
617.752
64291.2
9.94158e+06
716.583
78919.9
9.91784e+06
765.801
93742.8
9.88966e+06
761.903
109424
9.85794e+06
730.647
125211
9.82216e+06
700.676
141915
9.78293e+06
694.591
158708
9.74007e+06
738.081
175903
9.69317e+06
827.774
193628
9.64052e+06
1090.7
211688
9.58442e+06
1334.76
230268
9.51848e+06
2221.07
252816
9.4417e+06
2226.97
275406
9.35676e+06
2083.72
293217
9.25878e+06
970.225
320291
9.1464e+06
703.664
343746
9.02398e+06
1043.68
359269
8.90068e+06
1647.52
367573
8.77913e+06
2567.72
377438
8.65766e+06
4218.75
391073
8.53407e+06
5047.17
405596
8.40564e+06
6725.11
407139
8.26499e+06
10414.6
400159
8.09813e+06
15213.3
406620
7.90231e+06
18922.9
410185
7.67402e+06
17572
418452
7.41025e+06
15329.6
444528
7.1572e+06
22299
420468
6.95599e+06
44667.3
300473
6.85846e+06
69784.8
64608.3
6.93148e+06
55895.1
-239359
7.0208e+06
-1507.05
-197431
7.03012e+06
-52177.9
20013.2
7.01053e+06
-73724.2
116700
6.96544e+06
-72413.2
167321
7.0026e+06
-28337
-7594.07
7.04741e+06
-21929
-83720.1
7.03328e+06
-41267.2
20844.7
6.96892e+06
-59843
136457
6.90833e+06
-61418.5
152434
6.83732e+06
-58682.8
148843
6.72601e+06
-48122.8
141632
6.67645e+06
-54922.9
107747
6.65561e+06
-61714.3
57674
6.67261e+06
-83076.4
12351.6
6.72962e+06
-75967.2
-139875
6.96941e+06
-39838.2
-306313
7.09232e+06
4414.75
-511263
6.44617e+06
92207.8
-690140
53307.1
-1.33021e+06
9.99968e+06
7243.05
9.99611e+06
21544.8
9.98848e+06
35742.5
9.97681e+06
49926.3
9.96111e+06
64264.2
9.94138e+06
78891.9
9.91777e+06
93718.4
9.88967e+06
109407
9.85799e+06
125207
9.82218e+06
141925
9.78288e+06
158725
9.73999e+06
175916
9.69303e+06
193601
9.64089e+06
211618
9.58271e+06
230190
9.51599e+06
251895
9.44304e+06
276987
9.35746e+06
297091
9.25994e+06
319506
9.14921e+06
340001
9.02863e+06
353917
8.90729e+06
360540
8.78732e+06
369053
8.66458e+06
388295
8.54014e+06
403476
8.41253e+06
406768
8.27597e+06
411707
8.12304e+06
427640
7.94629e+06
439273
7.72552e+06
445341
7.46123e+06
465965
7.2164e+06
446565
7.05784e+06
339776
7.02492e+06
142800
7.12472e+06
-106370
7.20964e+06
-185237
7.24837e+06
-163328
7.24737e+06
-118429
7.20854e+06
-60779.5
7.21873e+06
-90630.4
7.25626e+06
-159546
7.23113e+06
-100249
7.14626e+06
-11438.2
7.06005e+06
-4919.54
6.9874e+06
-28846.9
6.9025e+06
-49363.9
6.8422e+06
-79590.3
6.80825e+06
-105986
6.75321e+06
-170894
6.78952e+06
-355524
7.01917e+06
-462777
7.17518e+06
-599782
6.89074e+06
-277185
-1.37761e+06
9.99904e+06
195.198
9266.88
9.99582e+06
300.823
27485.7
9.98859e+06
436.869
45844.3
9.97732e+06
504.988
64317.9
9.96181e+06
595.104
83101.5
9.94198e+06
688.438
102157
9.91701e+06
733.738
122197
9.88732e+06
727.367
142683
9.85254e+06
694.442
163678
9.81269e+06
661.828
185596
9.7674e+06
651.302
208064
9.71619e+06
681.93
231484
9.6589e+06
749.857
255710
9.59547e+06
946.643
280596
9.52535e+06
1153.4
307295
9.4508e+06
2139.36
335945
9.36712e+06
1739.21
368016
9.27408e+06
1119.83
390662
9.18297e+06
783.626
412234
9.09144e+06
1088.69
435107
8.99225e+06
1442.39
457723
8.88431e+06
1380.83
474817
8.76319e+06
1269.51
498095
8.63056e+06
1662.13
522843
8.48793e+06
1237.66
547775
8.33177e+06
1637.82
562842
8.15222e+06
4903
576509
7.92911e+06
7842.37
624213
7.63841e+06
6717.64
697409
7.28144e+06
7088.85
771724
6.91814e+06
8973.89
801342
6.61062e+06
14011.7
715747
6.4e+06
27100.7
484998
6.36353e+06
48324.6
53619.9
6.51001e+06
38472.4
-424198
6.62006e+06
-62804.8
-243668
6.569e+06
-154181
224494
6.50364e+06
-218664
394576
6.44051e+06
-217762
447053
6.50565e+06
-112930
41440.3
6.54464e+06
-43480.8
-79961.4
6.5169e+06
-64575.6
109841
6.43488e+06
-67698.1
265897
6.34529e+06
-63863.5
252118
6.25311e+06
-56585.4
228088
6.11912e+06
-66423.3
248044
6.02011e+06
-79605.5
204295
5.95536e+06
-60074.6
113808
5.9357e+06
-48340.6
51673.9
5.96812e+06
-79127.5
-86513
6.14543e+06
-71694.6
-317426
6.18468e+06
-35482.6
-441908
6.01111e+06
7081.14
-470046
368568
-607493
9.99933e+06
9266.55
9.9958e+06
27481.1
9.98845e+06
45831.6
9.97709e+06
64303.9
9.96154e+06
83091.5
9.94178e+06
102149
9.91692e+06
122185
9.88733e+06
142663
9.85258e+06
163644
9.8127e+06
185547
9.76733e+06
208000
9.71602e+06
231402
9.65863e+06
255620
9.59529e+06
280474
9.52547e+06
307163
9.45183e+06
335659
9.37061e+06
367982
9.27592e+06
396701
9.18525e+06
412272
9.09425e+06
432877
8.99531e+06
454914
8.88557e+06
472405
8.76186e+06
494687
8.62902e+06
523385
8.48714e+06
547210
8.32851e+06
567954
8.14427e+06
602133
7.92015e+06
661361
7.6367e+06
731723
7.29345e+06
797907
6.95112e+06
818947
6.66231e+06
750706
6.45342e+06
576167
6.40815e+06
237210
6.58287e+06
-240795
6.71472e+06
-378857
6.76764e+06
-371681
6.73111e+06
-302597
6.65535e+06
-204860
6.70816e+06
-257547
6.73798e+06
-233393
6.69e+06
-124156
6.58284e+06
246.572
6.49107e+06
-18825.4
6.40236e+06
-52936.5
6.28572e+06
-69644.7
6.18869e+06
-127665
6.14217e+06
-172878
6.08325e+06
-175235
6.06048e+06
-356909
6.09327e+06
-564757
6.14551e+06
-587501
6.359e+06
-433210
-818177
9.99907e+06
194.11
11240.8
9.99591e+06
297.475
33323.8
9.98884e+06
432.269
55729.6
9.97783e+06
497.882
78397.2
9.9627e+06
584.748
101487
9.94322e+06
675.018
124979
9.9192e+06
718.09
149599
9.89066e+06
710.447
174635
9.85704e+06
677.093
200760
9.81834e+06
644.936
227850
9.77437e+06
636.249
255773
9.72489e+06
667.83
285017
9.67001e+06
747.263
315140
9.60913e+06
918.757
346976
9.54274e+06
1220.42
380709
9.47207e+06
1824.79
416523
9.39575e+06
2724.5
455847
9.30081e+06
2541.87
494365
9.19527e+06
620.225
520683
9.09004e+06
1641.77
541421
8.98429e+06
2575.75
562825
8.86884e+06
1968.43
590502
8.73504e+06
628.845
632664
8.58046e+06
-297.209
678961
8.40674e+06
-3079.06
725658
8.20303e+06
-3768.58
771751
7.96399e+06
-265.309
817675
7.68046e+06
2430.95
907101
7.34355e+06
595.836
1.03552e+06
6.97518e+06
453.519
1.14131e+06
6.62633e+06
4584.82
1.14693e+06
6.32327e+06
13950.8
1.00589e+06
6.09781e+06
28716.8
683433
6.00858e+06
60587.9
83325.4
6.12201e+06
130058
-666405
5.94534e+06
-50171
-16966.5
5.97619e+06
-138692
324035
5.99818e+06
-151939
513611
5.83577e+06
-205264
807064
5.85537e+06
-49755.7
68250.3
5.8527e+06
-21653.8
-55230.1
5.7737e+06
-86054.2
273389
5.73111e+06
-79873.6
373705
5.64345e+06
-65259.8
375219
5.54043e+06
-64012.1
315667
5.46485e+06
-73157.9
270525
5.37923e+06
-67377
200874
5.25451e+06
-7926.36
130443
5.12576e+06
17080.4
130454
5.09903e+06
21885.3
13232.4
4.91165e+06
40243.7
-108051
4.69637e+06
187842
-295554
4.55403e+06
112898
-317671
129021
-635925
9.99936e+06
11237.2
9.9959e+06
33315.8
9.98871e+06
55718.2
9.9776e+06
78386.8
9.96243e+06
101480
9.94302e+06
124972
9.91912e+06
149584
9.89067e+06
174605
9.85708e+06
200708
9.81834e+06
227773
9.77429e+06
255670
9.72471e+06
284893
9.66977e+06
315014
9.60888e+06
346833
9.5428e+06
380619
9.47205e+06
416377
9.39638e+06
455464
9.3066e+06
496160
9.20362e+06
520301
9.09672e+06
544770
8.98704e+06
569624
8.86336e+06
599971
8.72374e+06
636416
8.56989e+06
677754
8.39309e+06
721810
8.18452e+06
773842
7.95076e+06
836702
7.67898e+06
936690
7.36003e+06
1.05244e+06
7.01104e+06
1.14849e+06
6.67929e+06
1.15625e+06
6.40234e+06
1.04221e+06
6.22371e+06
784552
6.21908e+06
303849
6.44595e+06
-332354
6.68091e+06
-657170
6.80195e+06
-637940
6.8176e+06
-480069
6.6631e+06
-259949
6.51575e+06
-159313
6.36361e+06
-103063
6.20367e+06
-48784.9
6.12073e+06
-910.948
6.03392e+06
-27277.9
5.92292e+06
-68133.4
5.80235e+06
-115930
5.69242e+06
-185781
5.61232e+06
-169011
5.47417e+06
-44970.5
5.21074e+06
-98340.2
4.93071e+06
-198079
5.04311e+06
-446630
4.94906e+06
-250396
-620614
9.9991e+06
190.144
13152.3
9.99603e+06
290.753
39022.6
9.98921e+06
422.899
65321
9.97865e+06
488.042
91979.5
9.96427e+06
572.846
119063
9.94553e+06
658.135
146978
9.9225e+06
693.8
175873
9.89489e+06
677.063
205468
9.86249e+06
633.637
236364
9.82529e+06
592.455
268285
9.78275e+06
577.419
301713
9.73508e+06
608.357
336418
9.68201e+06
699.556
372537
9.62353e+06
858.657
410644
9.56058e+06
1172.82
450588
9.49333e+06
1584.73
492687
9.42481e+06
2323.23
536253
9.34889e+06
2165.65
582941
9.2565e+06
1268.81
622931
9.14704e+06
2657.94
658164
9.02258e+06
4093.72
691464
8.88268e+06
1558.08
735561
8.73723e+06
-854.111
781862
8.57358e+06
-2641.94
847139
8.37394e+06
-6721.68
933915
8.12388e+06
-6333.33
1.03073e+06
7.83044e+06
-1565.84
1.11504e+06
7.51923e+06
3827.8
1.21631e+06
7.19006e+06
3804.75
1.36242e+06
6.84347e+06
4103.57
1.48514e+06
6.48895e+06
10017.7
1.49271e+06
6.12443e+06
25930.4
1.34664e+06
5.71787e+06
59797.4
1.03252e+06
5.17825e+06
212451
413138
3.56084e+06
870930
86057.5
2.53892e+06
578985
427043
1.98892e+06
354075
510350
2.60643e+06
241285
-380724
3.21159e+06
52549.6
131028
3.88104e+06
64829.7
-658837
4.12435e+06
26187.9
-322125
4.26458e+06
1484.24
166031
4.33165e+06
33384.7
323273
4.36359e+06
27554.3
311253
4.32449e+06
43247.8
219820
4.26883e+06
27365.5
113016
4.10696e+06
47326.4
93836
4.0027e+06
169908
-72834.4
3.79107e+06
352738
-116919
3.41897e+06
398530
-123281
3.21667e+06
320139
-225739
3.15141e+06
273619
-385401
3.30626e+06
84857
-635614
37892.6
-1.32802e+06
9.99938e+06
13151.2
9.99601e+06
39017.3
9.98908e+06
65306.5
9.97843e+06
91966.3
9.96401e+06
119059
9.94533e+06
146979
9.9224e+06
175870
9.89487e+06
205451
9.86249e+06
236327
9.82527e+06
268223
9.78265e+06
301627
9.73489e+06
336314
9.68174e+06
372428
9.62335e+06
410557
9.56041e+06
450515
9.49358e+06
492610
9.42485e+06
536267
9.35188e+06
582145
9.26069e+06
623377
9.15452e+06
662610
9.03273e+06
702032
8.89253e+06
747477
8.73492e+06
796783
8.55841e+06
853076
8.35039e+06
924569
8.10174e+06
1.01766e+06
7.83191e+06
1.10629e+06
7.54105e+06
1.23247e+06
7.22395e+06
1.37441e+06
6.89161e+06
1.48594e+06
6.56736e+06
1.49134e+06
6.2701e+06
1.36673e+06
6.00819e+06
1.10805e+06
5.86527e+06
665836
6.46383e+06
-37577.6
6.54802e+06
-166371
6.41724e+06
-166364
6.28071e+06
-111389
6.04262e+06
25288.6
5.72309e+06
227453
5.31921e+06
340689
5.12391e+06
173950
5.05645e+06
114948
4.97075e+06
68117.4
4.80586e+06
66005.2
4.6017e+06
-8837.16
4.43696e+06
-111601
4.33252e+06
-70748
3.99718e+06
424263
3.78941e+06
373076
3.61365e+06
269484
3.53325e+06
-151227
3.30154e+06
110812
-564450
9.99914e+06
188.183
14988.1
9.99626e+06
287.121
44483.3
9.98983e+06
419.736
74474.7
9.97985e+06
484.264
104925
9.96623e+06
565.825
135823
9.94839e+06
645.769
167993
9.9264e+06
675.711
201012
9.89995e+06
654.165
235031
9.86901e+06
608.212
270379
9.83282e+06
567.754
307600
9.79199e+06
558.109
345844
9.74602e+06
600.069
386051
9.69477e+06
703.377
428053
9.63871e+06
886.184
471940
9.57819e+06
1160
517700
9.51381e+06
1530.07
565220
9.44581e+06
1987.16
614297
9.37517e+06
2406.04
665314
9.29627e+06
2689.21
715319
9.20408e+06
2359.9
765115
9.09401e+06
2477.46
816842
8.96369e+06
-495.359
882100
8.80958e+06
-1500.46
945820
8.63649e+06
-4307.92
1.02801e+06
8.42861e+06
-10669.6
1.15487e+06
8.16203e+06
-11521.9
1.31136e+06
7.84125e+06
-836.96
1.43928e+06
7.503e+06
10822.9
1.54556e+06
7.16677e+06
10705.1
1.68936e+06
6.81994e+06
7640.79
1.82556e+06
6.45304e+06
15825.2
1.84515e+06
6.02181e+06
36973.8
1.7425e+06
5.31321e+06
108012
1.63511e+06
3.27178e+06
567143
1.88965e+06
835646
816057
1.71776e+06
788295
18691
455613
640131
127881
500168
-22841.9
398945
-155462
126123
-195039
153141
703186
-458242
-809028
1.38663e+06
-210110
-795628
1.38269e+06
250453
-56001.6
1.32253e+06
295038
101141
1.34511e+06
200892
55715.8
1.25763e+06
231189
-42539.9
1.1571e+06
220488
-207698
1.30483e+06
75522
-329944
1.71775e+06
-43655.8
-695804
2.1064e+06
114836
-933849
2.45735e+06
401084
-1.1309e+06
3.0205e+06
350261
-1.23929e+06
3.65919e+06
205007
-1.36836e+06
4.37792e+06
298395
-1.59713e+06
57163.7
-1.9771e+06
9.99942e+06
14983.5
9.99625e+06
44471.9
9.9897e+06
74456.8
9.97963e+06
104907
9.96596e+06
135808
9.94819e+06
167980
9.9263e+06
200994
9.89992e+06
235002
9.869e+06
270336
9.83277e+06
307540
9.79187e+06
345769
9.74583e+06
385961
9.69455e+06
427953
9.63853e+06
471826
9.57811e+06
517565
9.51397e+06
565051
9.44634e+06
614053
9.37622e+06
664347
9.298e+06
715045
9.20754e+06
766935
9.10126e+06
822776
8.97299e+06
886892
8.81117e+06
965769
8.62669e+06
1.03601e+06
8.40105e+06
1.14175e+06
8.12757e+06
1.28129e+06
7.83408e+06
1.40029e+06
7.53104e+06
1.54727e+06
7.21404e+06
1.70293e+06
6.88566e+06
1.82261e+06
6.55338e+06
1.84024e+06
6.22243e+06
1.73563e+06
5.86238e+06
1.57761e+06
5.50502e+06
1.60429e+06
3.99389e+06
2.28679e+06
2.23473e+06
1.60386e+06
1.21108e+06
966165
943268
539794
619993
141243
917683
-537739
1.10889e+06
-67370.5
1.0741e+06
459386
1.08507e+06
394500
1.10467e+06
203091
995764
314015
778911
305432
315077
218466
-438425
300892
-825949
433032
-131215
-304018
718883
-456044
1.2769e+06
-505676
2.31281e+06
-603595
-1.02072e+06
9.99921e+06
183.113
16699.7
9.99658e+06
277.551
49612.4
9.99061e+06
404.768
83077.6
9.98131e+06
465.962
117092
9.96846e+06
543.113
151682
9.95179e+06
617.652
187695
9.93126e+06
643.632
224546
9.90614e+06
620.982
263116
9.8765e+06
577.684
302974
9.84246e+06
543.112
344679
9.80333e+06
541.565
388212
9.75929e+06
588.888
433684
9.7103e+06
689.775
481162
9.65638e+06
851.559
530726
9.59784e+06
1044.61
581913
9.53516e+06
1343.94
634858
9.46846e+06
1563.5
688806
9.39895e+06
1862.29
744123
9.32476e+06
1660.3
800408
9.24495e+06
1281.27
858570
9.15572e+06
825
921447
9.05578e+06
957.809
998923
8.92719e+06
1515.48
1.08995e+06
8.76425e+06
-4353.55
1.2031e+06
8.57158e+06
-13330.9
1.36396e+06
8.34189e+06
-15403.5
1.55842e+06
8.05582e+06
-2188.08
1.72911e+06
7.69339e+06
16656.2
1.89331e+06
7.30182e+06
21050.8
2.06146e+06
6.92645e+06
10850.7
2.19103e+06
6.58813e+06
13316.6
2.17087e+06
6.24977e+06
23169.1
2.05837e+06
5.84894e+06
47079.9
1.98842e+06
5.19934e+06
300100
2.23878e+06
2.93892e+06
692355
3.2761e+06
1.05595e+06
378750
1.94575e+06
59180.1
314089
1.1553e+06
-542579
87600.5
334496
-153818
-409654
110346
-103165
-769930
-165701
-326726
-287084
-382262
26392.8
80317
-577712
576775
64087.4
-549994
1.12823e+06
33652.9
-554612
1.693e+06
99880.5
-726249
2.32409e+06
94349.7
-939094
3.04348e+06
31421.1
-1.11748e+06
3.71032e+06
-102731
-1.34729e+06
4.33618e+06
-153543
-1.54853e+06
4.78955e+06
-24222.2
-1.70975e+06
5.16409e+06
18696.9
-1.79713e+06
5.5559e+06
25031.8
-1.81212e+06
5.80101e+06
49754.7
-1.89262e+06
8233.69
-2.03207e+06
9.99947e+06
16698.8
9.99656e+06
49606.3
9.99049e+06
83060.1
9.98109e+06
117074
9.9682e+06
151672
9.95159e+06
187690
9.93115e+06
224537
9.9061e+06
263095
9.87648e+06
302937
9.8424e+06
344625
9.8032e+06
388144
9.7591e+06
433606
9.71009e+06
481082
9.65617e+06
530638
9.59779e+06
581835
9.53516e+06
634704
9.46876e+06
688636
9.39878e+06
743764
9.32418e+06
800082
9.24403e+06
858180
9.15645e+06
922428
9.05891e+06
997667
8.93708e+06
1.09988e+06
8.76979e+06
1.20562e+06
8.55103e+06
1.35151e+06
8.28879e+06
1.52976e+06
7.98051e+06
1.70827e+06
7.66573e+06
1.87938e+06
7.3545e+06
2.0357e+06
7.02617e+06
2.16246e+06
6.68269e+06
2.19784e+06
6.35617e+06
2.08585e+06
6.0106e+06
1.97154e+06
5.81042e+06
2.0999e+06
5.99087e+06
2.79198e+06
5.07297e+06
2.89298e+06
4.00318e+06
2.34909e+06
2.9278e+06
1.7034e+06
1.46782e+06
1.18063e+06
-555192
686416
-1.53891e+06
594984
-1.39225e+06
372202
-1.10958e+06
141387
-788138
-120043
-241069
-136260
367337
-213081
960228
-387712
1.56704e+06
-522019
2.28849e+06
-585982
2.68473e+06
-864574
3.16996e+06
-1.008e+06
3.76828e+06
-1.09809e+06
4.41868e+06
-1.2039e+06
-1.33396e+06
9.99928e+06
181.093
18289.3
9.99696e+06
273.25
54381.5
9.99155e+06
400.051
91061.4
9.98305e+06
459.565
128388
9.97124e+06
533.131
166423
9.95584e+06
603.772
206046
9.93659e+06
627.916
246711
9.91336e+06
606.702
289225
9.88562e+06
568.067
333608
9.85343e+06
540.583
379863
9.81669e+06
545.755
428152
9.77481e+06
595.788
479095
9.72785e+06
691.847
532110
9.67606e+06
825.726
587064
9.61926e+06
990.998
643978
9.55801e+06
1173.13
702103
9.49244e+06
1322.68
761119
9.42375e+06
1502.17
820605
9.35268e+06
1558.97
880335
9.27991e+06
1676.79
942022
9.20543e+06
1707.31
1.00825e+06
9.13035e+06
2134.56
1.08893e+06
9.04276e+06
2381.74
1.19132e+06
8.92563e+06
5102.09
1.33011e+06
8.77032e+06
-1957.89
1.52729e+06
8.59166e+06
-6353.91
1.7447e+06
8.36591e+06
-1839.68
1.95859e+06
8.05327e+06
8141.21
2.19919e+06
7.68549e+06
20354.7
2.41101e+06
7.28057e+06
27446.3
2.57244e+06
6.83807e+06
28395.3
2.5889e+06
6.39832e+06
22152.8
2.4773e+06
6.01176e+06
29845.4
2.34374e+06
5.90203e+06
48433.1
2.29268e+06
5.82912e+06
270915
3.07549e+06
4.57071e+06
215425
2.99322e+06
3.41497e+06
89825.2
2.2454e+06
2.47384e+06
-67509.6
1.37576e+06
2.11031e+06
-187302
686165
2.21003e+06
-400339
144617
2.59236e+06
-510761
-263269
2.964e+06
-404093
-568620
3.36765e+06
-201777
-796613
3.78825e+06
7044.29
-1.02477e+06
4.2483e+06
61061
-1.25263e+06
4.74306e+06
43297
-1.44687e+06
5.22956e+06
29755
-1.5963e+06
5.63122e+06
-23593.3
-1.7338e+06
5.94384e+06
-87187.7
-1.84631e+06
6.13163e+06
-93967.4
-1.91424e+06
6.24394e+06
-81099.2
-1.90848e+06
6.33726e+06
-81358.4
-1.86992e+06
6.32393e+06
-53641.5
-1.81942e+06
-36585.3
-1.85453e+06
9.99955e+06
18284.5
9.99695e+06
54369.6
9.99143e+06
91042
9.98283e+06
128367
9.97098e+06
166406
9.95563e+06
206029
9.93648e+06
246691
9.91332e+06
289196
9.88559e+06
333566
9.85337e+06
379806
9.81657e+06
428079
9.77463e+06
479003
9.72763e+06
531996
9.67587e+06
586922
9.61911e+06
643804
9.55791e+06
701880
9.49243e+06
760899
9.42363e+06
820221
9.35255e+06
879890
9.27955e+06
941244
9.20562e+06
1.00785e+06
9.12934e+06
1.0869e+06
9.05101e+06
1.1921e+06
8.94362e+06
1.32865e+06
8.78166e+06
1.51775e+06
8.56641e+06
1.74097e+06
8.27451e+06
1.99885e+06
7.94536e+06
2.21684e+06
7.62218e+06
2.38032e+06
7.30449e+06
2.51012e+06
6.95415e+06
2.57987e+06
6.54562e+06
2.51794e+06
6.1399e+06
2.40516e+06
5.90755e+06
2.37932e+06
6.27706e+06
2.69571e+06
6.47696e+06
2.91991e+06
6.2157e+06
2.71715e+06
5.61721e+06
2.25133e+06
4.87833e+06
1.74494e+06
3.88387e+06
1.28804e+06
3.03565e+06
933058
2.46873e+06
512175
2.28463e+06
81352
2.4203e+06
-279863
2.88737e+06
-541583
3.49153e+06
-742430
4.09308e+06
-936184
4.64704e+06
-1.11285e+06
5.16142e+06
-1.23631e+06
5.48039e+06
-1.34831e+06
5.73229e+06
-1.39681e+06
5.96798e+06
-1.44946e+06
6.14563e+06
-1.45649e+06
-1.73539e+06
9.99937e+06
175.838
19713.4
9.99741e+06
263.197
58702.3
9.99265e+06
383.302
98305
9.98508e+06
438.721
138647
9.97448e+06
508.231
179836
9.96055e+06
575.329
222797
9.94304e+06
598.576
267014
9.92169e+06
579.782
313348
9.89623e+06
545.719
361861
9.86642e+06
522.393
412578
9.83197e+06
526.238
465688
9.79266e+06
564.607
521711
9.74811e+06
634.155
580234
9.69802e+06
726.108
641065
9.64267e+06
838.975
703686
9.58211e+06
946.323
767523
9.51742e+06
1105.38
831558
9.44949e+06
1212.56
894859
9.3811e+06
1440.36
956385
9.31533e+06
1522.52
1.0165e+06
9.2574e+06
1710.5
1.07711e+06
9.20792e+06
900.725
1.15089e+06
9.16674e+06
1905.23
1.24424e+06
9.11581e+06
9399.43
1.38569e+06
9.01526e+06
13929.4
1.62077e+06
8.84669e+06
12890.2
1.90262e+06
8.60705e+06
5478.88
2.1914e+06
8.35222e+06
-3365.45
2.4565e+06
8.08595e+06
632.518
2.67958e+06
7.7884e+06
13457.5
2.86312e+06
7.40015e+06
19101.7
2.96487e+06
6.90107e+06
21965.2
2.96064e+06
6.38863e+06
35320.5
2.82368e+06
6.02889e+06
-1144.06
2.66046e+06
6.26254e+06
56005.5
2.80491e+06
6.30631e+06
79562.1
2.90618e+06
5.97657e+06
35177.4
2.58447e+06
5.51102e+06
-63614.7
1.95018e+06
5.1823e+06
-172908
1.22902e+06
5.06399e+06
-266972
562673
5.13884e+06
-323508
-7303.24
5.30684e+06
-298044
-470317
5.51697e+06
-225426
-837830
5.73696e+06
-167349
-1.12239e+06
5.96123e+06
-139830
-1.34839e+06
6.19566e+06
-133159
-1.51372e+06
6.41998e+06
-132594
-1.62927e+06
6.58583e+06
-144099
-1.7158e+06
6.67148e+06
-163236
-1.77838e+06
6.68393e+06
-171561
-1.81419e+06
6.65589e+06
-162702
-1.79324e+06
6.65553e+06
-158117
-1.74548e+06
6.5498e+06
-134724
-1.61352e+06
-12156.8
-1.69825e+06
9.99962e+06
19712.8
9.9974e+06
58696.9
9.99254e+06
98288.7
9.98488e+06
138630
9.97423e+06
179826
9.96035e+06
222791
9.94292e+06
267004
9.92163e+06
313328
9.8962e+06
361827
9.86635e+06
412530
9.83183e+06
465628
9.79245e+06
521641
9.74787e+06
580153
9.69778e+06
640971
9.64245e+06
703569
9.58198e+06
767395
9.51724e+06
831367
9.44943e+06
894644
9.38093e+06
956076
9.31506e+06
1.01599e+06
9.25604e+06
1.07706e+06
9.20573e+06
1.14769e+06
9.16679e+06
1.24311e+06
9.12725e+06
1.3862e+06
9.04595e+06
1.61834e+06
8.88354e+06
1.91702e+06
8.65051e+06
2.23553e+06
8.36178e+06
2.50236e+06
8.04588e+06
2.70067e+06
7.72637e+06
2.84886e+06
7.3897e+06
2.94142e+06
6.98819e+06
2.94532e+06
6.54996e+06
2.88193e+06
6.14765e+06
2.78754e+06
6.14502e+06
2.77039e+06
6.4217e+06
2.74564e+06
6.65089e+06
2.54817e+06
6.68742e+06
2.17381e+06
6.57322e+06
1.70579e+06
6.39688e+06
1.20995e+06
6.27164e+06
729556
6.18888e+06
271612
6.15101e+06
-140450
6.17503e+06
-495567
6.2866e+06
-788962
6.45117e+06
-1.00905e+06
6.60439e+06
-1.18513e+06
6.7003e+06
-1.33531e+06
6.7415e+06
-1.45773e+06
6.73978e+06
-1.56451e+06
6.78665e+06
-1.65421e+06
6.93105e+06
-1.78757e+06
7.20915e+06
-1.8576e+06
-2.45109e+06
9.99946e+06
174.185
20978.9
9.99794e+06
259.499
62552.4
9.99393e+06
379.548
104745
9.98743e+06
433.473
147781
9.9782e+06
499.961
191805
9.96597e+06
564.391
237788
9.95025e+06
587.498
285468
9.93117e+06
571.698
335161
9.90845e+06
542.884
387348
9.88137e+06
524.836
442547
9.84953e+06
530.865
500568
9.81289e+06
564.357
561577
9.77068e+06
620.421
625862
9.72276e+06
692.756
692627
9.66848e+06
777.061
761944
9.60829e+06
882.627
832224
9.54273e+06
1008.26
902337
9.47366e+06
1155.98
969995
9.40457e+06
1364.83
1.03262e+06
9.34196e+06
1488.84
1.08735e+06
9.29644e+06
1581.4
1.13252e+06
9.28353e+06
-22.484
1.17512e+06
9.29608e+06
2120.13
1.23876e+06
9.32938e+06
8947.66
1.35431e+06
9.30831e+06
16663.3
1.63691e+06
9.15257e+06
16796.6
2.04161e+06
8.89748e+06
5546.22
2.43818e+06
8.61779e+06
-3057.21
2.74067e+06
8.34332e+06
-3386.6
2.96504e+06
8.0692e+06
292.536
3.14672e+06
7.76297e+06
1833.33
3.27856e+06
7.38969e+06
2612.8
3.33806e+06
6.91713e+06
3515.79
3.29817e+06
6.42729e+06
-3681.17
3.16414e+06
6.25228e+06
4926.7
2.9952e+06
6.35082e+06
18169.6
2.81665e+06
6.4505e+06
11636.9
2.50099e+06
6.44523e+06
-29164.1
2.00773e+06
6.39106e+06
-96512.6
1.39707e+06
6.36805e+06
-162412
752187
6.39847e+06
-206724
153608
6.46504e+06
-223013
-349868
6.54821e+06
-217764
-744303
6.63934e+06
-208484
-1.03894e+06
6.71882e+06
-191457
-1.24664e+06
6.78947e+06
-178076
-1.38665e+06
6.84771e+06
-163274
-1.48158e+06
6.88307e+06
-153901
-1.55307e+06
6.87863e+06
-152497
-1.60732e+06
6.84528e+06
-150519
-1.64358e+06
6.84984e+06
-148130
-1.66636e+06
6.94746e+06
-142320
-1.70439e+06
7.19667e+06
-108140
-1.68603e+06
-6077.78
-1.97364e+06
9.99972e+06
20974.5
9.99793e+06
62542.6
9.99382e+06
104728
9.98722e+06
147763
9.97795e+06
191791
9.96577e+06
237775
9.95013e+06
285451
9.93111e+06
335137
9.90841e+06
387311
9.88129e+06
442496
9.84939e+06
500502
9.81268e+06
561493
9.77042e+06
625760
9.72249e+06
692505
9.66824e+06
761801
9.60809e+06
832060
9.54254e+06
902153
9.47352e+06
969834
9.40432e+06
1.03246e+06
9.34146e+06
1.0873e+06
9.29438e+06
1.13373e+06
9.27471e+06
1.17652e+06
9.29061e+06
1.23802e+06
9.33557e+06
1.35934e+06
9.32359e+06
1.65062e+06
9.17854e+06
2.07818e+06
8.94622e+06
2.47333e+06
8.67938e+06
2.76965e+06
8.39093e+06
2.99265e+06
8.08108e+06
3.16743e+06
7.7488e+06
3.28298e+06
7.37547e+06
3.32699e+06
6.96231e+06
3.30388e+06
6.54313e+06
3.21155e+06
6.2724e+06
3.05871e+06
6.22303e+06
2.82812e+06
6.31464e+06
2.48102e+06
6.44188e+06
2.02594e+06
6.55038e+06
1.50244e+06
6.64125e+06
948857
6.72164e+06
422104
6.78162e+06
-40591.4
6.82115e+06
-425332
6.84028e+06
-737337
6.84328e+06
-980010
6.83307e+06
-1.15745e+06
6.82306e+06
-1.30806e+06
6.84031e+06
-1.47858e+06
6.92593e+06
-1.68488e+06
7.13658e+06
-1.92849e+06
7.54787e+06
-2.21883e+06
8.19653e+06
-2.54468e+06
9.13165e+06
-2.87806e+06
-3.53401e+06
9.99958e+06
169.453
22041.9
9.99855e+06
251.433
65840.6
9.99539e+06
364.569
110256
9.9901e+06
414.576
155611
9.98225e+06
478.02
202305
9.97214e+06
540.616
250562
9.95891e+06
564.645
301356
9.94245e+06
552.272
354275
9.92224e+06
527.414
410264
9.89831e+06
510.685
469288
9.86994e+06
512.13
531868
9.83631e+06
531.554
598215
9.79704e+06
565.662
668228
9.751e+06
611.257
741864
9.69797e+06
673.008
818436
9.63743e+06
766.764
896768