/*--------------------------------*- C++ -*----------------------------------*\
| =========                 |                                                 |
| \\      /  F ield         | OpenFOAM: The Open Source CFD Toolbox           |
|  \\    /   O peration     | Version:  4.1                                   |
|   \\  /    A nd           | Web:      www.OpenFOAM.org                      |
|    \\/     M anipulation  |                                                 |
\*---------------------------------------------------------------------------*/
FoamFile
{
    version     2.0;
    format      ascii;
    class       volVectorField;
    location    "52";
    object      U;
}
// * * * * * * * * * * * * * * * * * * * * * * * * * * * * * * * * * * * * * //

dimensions      [0 1 -1 0 0 0 0];

internalField   nonuniform List<vector> 
4432
(
(39.9814 0.000288859 0.0508331)
(39.919 0.00077929 0.0912828)
(39.8284 0.00172174 0.12118)
(39.7029 0.00200166 0.150316)
(39.5344 0.00175463 0.180434)
(39.3254 0.00154466 0.211635)
(39.0799 0.00159218 0.244188)
(38.7976 0.00186089 0.277685)
(38.4745 0.00225747 0.312356)
(38.1074 0.00265914 0.347932)
(37.695 0.00302728 0.382827)
(37.2397 0.00339665 0.417676)
(36.748 0.00364988 0.446067)
(36.239 0.00387848 0.467847)
(35.7235 0.00184114 0.462587)
(35.3149 -0.00290893 0.409755)
(34.9723 -0.00029012 0.454983)
(34.86 0.00378651 0.362395)
(34.9584 0.00489439 0.259438)
(34.9672 0.00685135 0.372314)
(34.7549 0.000920018 0.46336)
(34.4161 -0.0103886 0.591716)
(33.973 -0.0219746 0.675288)
(33.4571 -0.0308193 0.67384)
(32.8719 -0.036974 0.663454)
(32.2427 -0.0422401 0.543585)
(31.6583 -0.0385406 0.345222)
(31.1545 -0.0238893 0.132055)
(30.7757 -0.0116392 0.0405521)
(30.5145 -0.0120257 0.0400285)
(30.3307 -0.0236554 0.148089)
(30.1441 -0.0398931 0.366438)
(29.8854 -0.0475723 0.402375)
(29.7333 -0.022714 -0.0433773)
(29.8289 0.0183574 -0.871595)
(30.1059 0.0441956 -1.29605)
(30.5839 0.0468272 -1.19817)
(30.8324 -0.0389024 -1.11731)
(30.8035 -0.0230691 -0.940071)
(30.8124 0.0772835 -0.692363)
(31.0262 0.117534 -0.607496)
(31.1347 0.0985173 -0.64002)
(31.1304 0.0314929 -0.571805)
(30.928 -0.00625919 -0.50936)
(30.73 0.013089 -0.476426)
(30.4222 0.104043 -0.535641)
(30.2072 0.107527 -0.400449)
(30.5056 -0.111167 -0.52234)
(30.3522 -0.156947 -0.67731)
(29.9039 -0.186518 -0.831225)
(30.1037 -0.0157077 -0.586806)
(31.7795 0.0117445 -1.54881)
(33.587 -0.059137 -2.531)
(35.9702 0.229207 -1.1046)
(39.9819 0.000288853 0.0508338)
(39.9197 0.000779309 0.0913266)
(39.8286 0.0017218 0.121295)
(39.7019 0.00200254 0.150352)
(39.5329 0.001755 0.180325)
(39.3242 0.00154419 0.211519)
(39.0791 0.00159035 0.244037)
(38.797 0.00185826 0.277619)
(38.4738 0.00225461 0.312539)
(38.1063 0.00265625 0.348272)
(37.6933 0.00302586 0.383663)
(37.2375 0.00339723 0.418497)
(36.7457 0.00365155 0.448023)
(36.232 0.00388169 0.468695)
(35.718 0.00184339 0.470069)
(35.2613 -0.00291801 0.42056)
(34.9154 -0.000296765 0.403117)
(34.8471 0.00373414 0.315151)
(34.9532 0.00500928 0.247312)
(34.9913 0.00680643 0.381911)
(34.7823 0.000818813 0.449315)
(34.4373 -0.0104263 0.509423)
(34.0034 -0.0220924 0.557966)
(33.4844 -0.0313641 0.557077)
(32.8828 -0.0378197 0.550467)
(32.2209 -0.0437765 0.419321)
(31.588 -0.0417009 0.235832)
(31.0533 -0.0280756 0.104569)
(30.6294 -0.0167219 0.013437)
(30.3111 -0.0189895 -0.11082)
(30.1629 -0.0323042 -0.271092)
(30.1222 -0.0521637 -0.33497)
(30.0831 -0.0603046 -0.234788)
(30.0474 -0.0353556 -0.152871)
(30.1801 0.0117614 -0.464177)
(30.3974 0.0490499 -0.772586)
(30.7918 0.0569867 -0.71067)
(30.9808 -0.0332982 -0.662207)
(31.1372 -0.0476794 -0.557402)
(31.1599 0.0526549 -0.444403)
(31.2782 0.125984 -0.376083)
(31.3226 0.130223 -0.364082)
(31.3621 0.0611693 -0.28157)
(31.2492 0.0213943 -0.234077)
(31.1828 0.0433768 -0.269955)
(30.8622 0.132208 -0.46712)
(30.3279 0.152922 -0.315327)
(30.608 -0.0870736 -0.159951)
(30.602 -0.134954 -0.221709)
(30.3434 -0.125992 -0.323136)
(30.66 0.0178654 -0.556125)
(31.975 0.0307542 -1.26359)
(33.7261 -0.0470662 -2.31115)
(36.774 0.224299 -0.999866)
(40.0082 0.000291389 0.0188259)
(40.0377 0.000767787 0.0578944)
(40.0764 0.00172618 0.0988371)
(40.1158 0.00201969 0.139957)
(40.1478 0.00177431 0.181152)
(40.1745 0.00156596 0.22301)
(40.2004 0.00166083 0.266035)
(40.2258 0.002063 0.31071)
(40.2485 0.00267324 0.357548)
(40.2661 0.00335974 0.406774)
(40.2769 0.00401922 0.457987)
(40.2775 0.00447856 0.509235)
(40.2661 0.00510315 0.557335)
(40.223 0.0049533 0.591933)
(40.1584 0.00923891 0.614831)
(39.9025 0.0110328 0.60186)
(39.6289 0.0121586 0.479392)
(38.9551 0.011802 0.392837)
(38.0036 0.00163102 0.402271)
(37.1748 -0.00165847 0.441033)
(36.4552 0.000587037 0.503873)
(35.8249 0.00377305 0.590953)
(35.2865 0.00697999 0.682816)
(34.7759 0.0101277 0.784689)
(34.2856 0.0118652 0.865931)
(33.8055 0.013837 0.881824)
(33.3228 0.0172487 0.841682)
(32.8123 0.0265875 0.7805)
(32.2203 0.0454653 0.687102)
(31.6113 0.0560669 0.550898)
(31.0136 0.0601214 0.408717)
(30.415 0.0596206 0.348597)
(29.9779 0.054467 0.259094)
(29.7973 0.046371 0.0865481)
(29.9 0.0328949 0.00202978)
(30.103 0.00332185 0.118331)
(30.3602 -0.0468307 0.367373)
(30.3938 -0.0816674 0.495051)
(30.3952 -0.064208 0.526643)
(30.4255 -0.0425614 0.397632)
(30.4529 -0.0683052 0.123785)
(30.4218 -0.134008 0.081262)
(30.282 -0.197201 0.168387)
(29.9197 -0.229758 0.263446)
(29.5569 -0.265093 0.326054)
(29.2584 -0.273012 0.214613)
(28.9121 -0.286762 0.398784)
(29.0353 -0.279626 0.11428)
(28.3233 -0.255423 -0.182496)
(28.4751 -0.350594 -0.482892)
(28.1996 -0.258571 -0.42407)
(26.7043 0.063631 -1.50594)
(31.1549 0.301457 -2.62651)
(33.8859 0.118393 -5.60095)
(40.0087 0.000291382 0.0188176)
(40.0384 0.000767819 0.057906)
(40.0766 0.00172624 0.0988153)
(40.1148 0.0020198 0.139873)
(40.1462 0.00177448 0.181035)
(40.1733 0.00156624 0.222922)
(40.1998 0.00166117 0.266079)
(40.2258 0.00206409 0.310978)
(40.249 0.00267228 0.358145)
(40.267 0.00336331 0.40766)
(40.2779 0.00401214 0.459087)
(40.2788 0.00448916 0.51058)
(40.2664 0.00507263 0.558187)
(40.2294 0.00508968 0.595059)
(40.155 0.00867964 0.608784)
(39.9874 0.0110406 0.579532)
(39.6912 0.0130569 0.493227)
(38.9943 0.0121648 0.374734)
(38.0192 0.00171277 0.384411)
(37.17 -0.00145854 0.431102)
(36.4695 0.000709579 0.483714)
(35.8447 0.00392336 0.560468)
(35.3074 0.00725982 0.636925)
(34.8056 0.010751 0.721412)
(34.3267 0.012793 0.794609)
(33.8706 0.0154717 0.808458)
(33.4073 0.0208047 0.798622)
(32.9136 0.0300431 0.777802)
(32.4021 0.0441164 0.693581)
(31.9166 0.0595957 0.52415)
(31.398 0.0753639 0.350774)
(30.768 0.0906728 0.249787)
(30.2379 0.083685 0.132982)
(30.0091 0.0687603 -0.0106824)
(30.121 0.0440199 -0.115519)
(30.3225 0.0150349 -0.0572674)
(30.6755 -0.0437282 0.0963535)
(30.8113 -0.0856573 0.226889)
(30.8269 -0.0787971 0.256949)
(30.7341 -0.0410277 0.193925)
(30.8891 -0.0233484 0.0583373)
(30.9566 -0.0732272 0.0945482)
(30.9233 -0.148398 0.248878)
(30.6455 -0.191198 0.339416)
(30.3807 -0.241154 0.314682)
(30.1639 -0.254334 0.0676046)
(29.8755 -0.264643 0.162232)
(29.8767 -0.260836 0.208512)
(29.7342 -0.257242 -0.0224136)
(29.3798 -0.329443 -0.716861)
(28.8385 -0.145916 -0.749605)
(28.5099 0.0855362 -1.75574)
(32.4981 0.252528 -2.16358)
(35.1321 0.0482932 -4.72386)
(39.9995 0.000286863 0.026073)
(39.9916 0.000757831 0.074825)
(39.9731 0.00170092 0.120689)
(39.9391 0.00198369 0.164671)
(39.8829 0.00174594 0.208419)
(39.8076 0.00157316 0.25302)
(39.718 0.00172849 0.299141)
(39.6155 0.00220779 0.347273)
(39.4985 0.00289544 0.397802)
(39.3658 0.00363841 0.450801)
(39.2168 0.00428461 0.505972)
(39.0518 0.00476166 0.562426)
(38.8697 0.00498195 0.619226)
(38.6714 0.00530784 0.674356)
(38.4443 0.00532096 0.731599)
(38.2275 0.00697155 0.801085)
(37.9314 0.0074729 0.844257)
(37.5791 0.00751713 0.941691)
(37.2386 0.0037475 1.11159)
(36.8207 0.00223117 1.22319)
(36.337 0.00315037 1.2639)
(35.8333 0.00501849 1.27217)
(35.3455 0.00770819 1.2929)
(34.8587 0.0121971 1.33063)
(34.3716 0.0149984 1.36912)
(33.8787 0.0198078 1.35495)
(33.3481 0.0302115 1.28926)
(32.7476 0.0460082 1.23938)
(32.0255 0.0610374 1.13531)
(31.1921 0.056794 1.0473)
(30.1773 0.0505115 1.08607)
(29.0784 0.068252 1.09315)
(28.2085 0.123934 0.843385)
(27.5195 0.22017 0.274901)
(27.2955 0.275309 -0.748873)
(27.9468 0.0731099 -0.762642)
(28.1729 -0.161629 -0.274244)
(28.1744 -0.284558 0.118861)
(27.9363 -0.325802 0.361802)
(27.9163 -0.16664 -0.0940697)
(28.0602 -0.11195 -0.419074)
(28.1787 -0.185881 -0.173777)
(28.0649 -0.245985 0.115372)
(27.7954 -0.282203 0.18497)
(27.4505 -0.304784 0.266923)
(27.1947 -0.282842 0.27687)
(26.8182 -0.290918 0.321774)
(26.6981 -0.228006 0.106922)
(26.5349 -0.254082 -0.219015)
(26.6376 -0.254898 -0.875393)
(27.2916 -0.13867 -1.02776)
(28.3291 -0.0857749 -1.33223)
(27.6509 0.336113 -4.64369)
(24.465 0.618514 -8.16408)
(40 0.000286856 0.0260637)
(39.9923 0.000757863 0.0748003)
(39.9733 0.00170098 0.12063)
(39.938 0.0019838 0.164593)
(39.8814 0.00174611 0.208344)
(39.8065 0.00157344 0.252969)
(39.7176 0.00172893 0.299129)
(39.6155 0.00220846 0.347311)
(39.4988 0.00289659 0.397895)
(39.3662 0.00363979 0.450929)
(39.2169 0.00428548 0.506092)
(39.0514 0.00476379 0.56251)
(38.8696 0.00498295 0.618981)
(38.6701 0.00531433 0.673972)
(38.4493 0.00531176 0.728439)
(38.2063 0.00695497 0.791501)
(37.933 0.00675195 0.863135)
(37.587 0.00782533 0.948911)
(37.2395 0.00400422 1.10404)
(36.8285 0.00234795 1.20811)
(36.3521 0.00326879 1.24403)
(35.8558 0.0051987 1.24466)
(35.3762 0.00805442 1.25454)
(34.8904 0.0130984 1.3027)
(34.3972 0.0163809 1.34548)
(33.9036 0.0216873 1.33508)
(33.3775 0.0332859 1.30028)
(32.8039 0.0501209 1.27794)
(32.1682 0.065562 1.21394)
(31.4176 0.0701294 1.09494)
(30.3716 0.0636636 1.13413)
(29.276 0.0768014 1.16663)
(28.4499 0.142312 0.882204)
(28.0883 0.219152 0.30872)
(28.1687 0.207802 -0.279125)
(28.5978 0.0868122 -0.520894)
(28.9945 -0.0769046 -0.437724)
(29.0464 -0.226607 -0.340693)
(28.9514 -0.287874 -0.346281)
(28.8062 -0.191097 -0.500307)
(29.0066 -0.11647 -0.699266)
(28.9393 -0.131845 -0.52443)
(28.8207 -0.190596 -0.312269)
(28.4137 -0.209443 -0.253006)
(28.0538 -0.25168 -0.203167)
(27.8178 -0.240389 -0.234678)
(27.5462 -0.256727 -0.312357)
(27.3798 -0.196409 -0.406742)
(27.0171 -0.243622 -0.884068)
(26.9232 -0.19481 -1.42622)
(27.4909 -0.12551 -1.45655)
(28.4983 -0.0481584 -1.66643)
(29.8711 -0.0806784 -0.996319)
(25.4671 0.705692 -7.64976)
(39.9992 0.000282571 0.0331154)
(39.9904 0.000743715 0.0976329)
(39.9721 0.00166748 0.162723)
(39.9394 0.00193834 0.228863)
(39.8846 0.00169082 0.296734)
(39.8094 0.00150188 0.366666)
(39.7179 0.00163443 0.438805)
(39.6105 0.00208917 0.513206)
(39.4847 0.00275645 0.589874)
(39.3379 0.00348412 0.668685)
(39.1682 0.00412197 0.749416)
(38.9748 0.004578 0.831827)
(38.7565 0.00476186 0.915848)
(38.5139 0.00492247 1.0023)
(38.2441 0.00464643 1.0945)
(37.9615 0.0060653 1.19513)
(37.6494 0.0052193 1.33528)
(37.2481 0.00425285 1.40244)
(36.9063 0.00320241 1.46269)
(36.5532 0.00341071 1.54984)
(36.1637 0.00440734 1.6366)
(35.7463 0.00453167 1.68829)
(35.2907 0.00451734 1.73773)
(34.7763 0.00574287 1.8023)
(34.2308 0.0049443 1.8794)
(33.6513 0.00611101 1.90773)
(32.9807 0.0152486 1.91307)
(32.1962 0.0261395 2.00232)
(31.2224 0.0261877 2.14041)
(29.8845 0.0265586 2.31442)
(28.3329 0.0325845 2.4973)
(26.9955 0.051313 2.3152)
(25.9448 0.0973089 1.6369)
(25.2602 0.171618 0.242676)
(25.6083 0.166172 -1.39868)
(26.3067 -0.101999 -0.916902)
(26.53 -0.392944 0.122809)
(26.2087 -0.666804 0.62148)
(25.8488 -0.591721 0.880605)
(25.885 -0.22601 0.0244807)
(26.0058 -0.118192 -0.318871)
(26.2008 -0.219205 0.202751)
(25.9689 -0.301831 0.832581)
(25.5604 -0.309667 0.904652)
(25.1954 -0.268275 0.867622)
(24.7915 -0.2584 0.925866)
(24.3298 -0.333112 0.662186)
(23.9882 -0.207495 0.510278)
(23.8125 -0.240842 0.369972)
(23.4232 -0.304126 -0.325729)
(24.1594 -0.246112 -1.66987)
(24.8492 -0.243115 -2.40367)
(25.3369 0.023289 -2.60791)
(20.9988 1.33025 -3.16498)
(39.9997 0.000282565 0.0331095)
(39.991 0.000743745 0.0976094)
(39.9723 0.00166754 0.162677)
(39.9383 0.00193844 0.228802)
(39.8831 0.00169099 0.296663)
(39.8083 0.00150215 0.366579)
(39.7174 0.00163486 0.438689)
(39.6105 0.00208983 0.513054)
(39.485 0.0027574 0.589685)
(39.3381 0.00348532 0.668463)
(39.1682 0.00412354 0.749171)
(38.9743 0.00457987 0.831541)
(38.7558 0.00476346 0.915525)
(38.5124 0.00492823 1.00177)
(38.2451 0.00464265 1.09371)
(37.9576 0.00611963 1.19453)
(37.6631 0.00514865 1.32997)
(37.2596 0.0043102 1.43035)
(36.913 0.00326601 1.46558)
(36.5637 0.00347875 1.5369)
(36.1763 0.00459576 1.61596)
(35.7592 0.00484512 1.66155)
(35.2881 0.00475166 1.71117)
(34.7657 0.00549559 1.81049)
(34.2316 0.00467648 1.88788)
(33.6457 0.0057484 1.92941)
(32.9552 0.0167206 2.00453)
(32.1564 0.0290968 2.14923)
(31.2007 0.028678 2.31693)
(29.8908 0.0286761 2.48776)
(28.4201 0.0329853 2.61037)
(27.1732 0.0494073 2.46921)
(26.1797 0.0936357 1.99731)
(25.471 0.189353 0.979456)
(25.7734 0.200646 -0.632133)
(26.5938 -0.0954637 -1.05989)
(27.0945 -0.401635 -0.832732)
(27.1492 -0.78789 -0.520968)
(26.8144 -1.01826 -0.0638206)
(26.6574 -0.78596 -0.332504)
(26.8528 -0.243746 -0.724557)
(26.897 -0.218501 -0.48317)
(26.5832 -0.240879 0.00762894)
(26.0913 -0.271179 0.0548576)
(25.8967 -0.223294 -0.0245737)
(25.3418 -0.214037 0.0153817)
(25.0472 -0.236058 -0.214504)
(24.683 -0.152656 -0.432655)
(24.4369 -0.163556 -0.59519)
(24.1678 -0.202353 -1.37187)
(24.1687 -0.194673 -2.27019)
(24.5085 -0.0652582 -2.65664)
(25.6278 -0.548736 -2.83192)
(24.4667 1.37543 -4.359)
(39.9993 0.000281097 0.0409655)
(39.9906 0.000736479 0.121612)
(39.9727 0.00165708 0.203425)
(39.9408 0.0019213 0.285981)
(39.8872 0.00166966 0.369716)
(39.8139 0.00147675 0.455252)
(39.725 0.00160274 0.543143)
(39.6209 0.00204832 0.633828)
(39.4994 0.00270481 0.72766)
(39.3576 0.00342022 0.82493)
(39.1937 0.00404574 0.925878)
(39.0068 0.00448132 1.03078)
(38.7962 0.00467214 1.14009)
(38.5619 0.00474636 1.25489)
(38.3065 0.00475668 1.37683)
(38.0269 0.00531351 1.50859)
(37.7482 0.00630027 1.65154)
(37.3892 0.00806148 1.77853)
(36.976 0.00468261 1.86386)
(36.5621 0.00554521 1.927)
(36.1451 0.00701174 2.01571)
(35.6998 0.00566932 2.10733)
(35.2063 0.00272761 2.25349)
(34.6202 -0.000619044 2.38974)
(33.9788 -0.00804299 2.51527)
(33.2475 -0.0109681 2.61649)
(32.3474 -0.00156317 2.73001)
(31.3223 0.00890898 3.02865)
(30.1036 0.00705332 3.47818)
(28.6244 0.00833209 3.87819)
(27.1485 0.0219523 3.92988)
(25.8589 0.053824 3.42922)
(24.7365 0.113191 2.22415)
(23.9868 0.224348 0.0192549)
(24.3752 0.326711 -2.24284)
(23.8041 -0.0730768 -1.49752)
(24.0751 -0.652226 1.5197)
(23.9343 -0.98378 2.53553)
(23.7926 -1.12784 2.71129)
(23.4548 -0.330806 0.583301)
(23.1223 -0.103157 -0.229722)
(23.4499 -0.330708 0.526039)
(23.0521 -0.452078 1.12637)
(22.6902 -0.436379 1.13173)
(22.3832 -0.35415 0.942369)
(21.9147 -0.253365 0.826579)
(21.6503 -0.111129 0.515324)
(21.6216 -0.00333967 0.248785)
(20.5664 -0.328535 0.335247)
(20.6974 -0.28921 0.0903519)
(19.8326 -0.283764 -0.565597)
(18.398 0.648919 -1.64253)
(20.9844 -0.0122719 -1.69847)
(16.1186 0.0566255 -0.38271)
(39.9997 0.00028109 0.0409576)
(39.9912 0.000736509 0.121588)
(39.9729 0.00165714 0.203374)
(39.9397 0.0019214 0.285929)
(39.8857 0.00166982 0.369682)
(39.8128 0.00147702 0.45523)
(39.7245 0.00160317 0.543108)
(39.621 0.00204898 0.633754)
(39.4996 0.00270573 0.727522)
(39.3578 0.00342148 0.824708)
(39.1937 0.00404698 0.925561)
(39.0063 0.0044845 1.03037)
(38.7954 0.0046784 1.13962)
(38.5609 0.00475208 1.25432)
(38.3056 0.00477852 1.3764)
(38.0283 0.00528085 1.50803)
(37.7413 0.00633445 1.652)
(37.4029 0.00770689 1.8002)
(37.0097 0.00395073 1.86684)
(36.5931 0.00579493 1.91977)
(36.1669 0.00781801 2.00784)
(35.7048 0.00720008 2.11045)
(35.158 0.00307243 2.25038)
(34.5743 -0.000915666 2.38249)
(33.947 -0.00830996 2.50414)
(33.169 -0.0115406 2.63754)
(32.2705 -0.000517753 2.83921)
(31.2923 0.010227 3.17824)
(30.1285 0.00782103 3.58226)
(28.7343 0.0077882 3.93528)
(27.3257 0.0198596 3.97771)
(26.0986 0.0501142 3.56645)
(25.1408 0.101722 2.61423)
(24.6351 0.221899 0.849748)
(25.1837 0.461829 -1.42257)
(26.021 0.217613 -2.22427)
(27.1721 0.0672306 -2.31628)
(27.5156 0.0785109 -1.98636)
(27.1438 -0.0868146 -1.38032)
(26.6056 0.0180542 -1.19979)
(25.3477 0.0354645 -0.901461)
(25.1723 -0.175278 -0.548257)
(24.6276 -0.247479 -0.156698)
(24.2884 -0.232918 -0.288438)
(23.9515 -0.156146 -0.455009)
(23.4804 -0.0302569 -0.62931)
(23.0714 0.163481 -0.807389)
(22.7146 0.243398 -0.83817)
(22.2285 0.210022 -0.486768)
(21.5829 0.0193485 -1.13173)
(19.851 0.246823 -1.91057)
(19.4261 0.574784 -2.01292)
(21.7359 0.084156 -1.37954)
(18.3398 0.557649 -1.85447)
(39.9993 0.00027484 0.0487291)
(39.9908 0.000721276 0.144784)
(39.9735 0.00161917 0.24232)
(39.9429 0.00188516 0.341055)
(39.8915 0.00165194 0.441698)
(39.8213 0.00147136 0.545093)
(39.7361 0.00159153 0.651873)
(39.6363 0.00201055 0.762457)
(39.5194 0.00261973 0.877159)
(39.3827 0.00327066 0.996266)
(39.2243 0.00381946 1.12007)
(39.0434 0.00417559 1.24892)
(38.8399 0.00431758 1.38338)
(38.6144 0.0043156 1.52427)
(38.3687 0.00437367 1.6728)
(38.1054 0.00465113 1.83037)
(37.8288 0.00566312 1.99586)
(37.5418 0.00590628 2.17614)
(37.2104 0.00807642 2.32245)
(36.8039 0.0108979 2.42075)
(36.3566 0.0124445 2.49386)
(35.7896 0.0067713 2.61383)
(35.2203 -0.000719962 2.80702)
(34.6157 -0.00783692 3.04538)
(33.9107 -0.0195946 3.29618)
(33.0428 -0.0216239 3.55907)
(31.91 -0.00712432 3.80429)
(30.6892 0.012062 4.22182)
(29.4377 0.0158048 4.81054)
(28.0616 0.0184951 5.26978)
(26.6503 0.0385108 5.25183)
(25.2416 0.0915874 4.60698)
(23.6182 0.208378 3.20904)
(22.1293 0.549814 0.720341)
(21.2751 1.07949 -1.13563)
(5.20075 0.0760226 1.74887)
(10.3678 -0.474121 1.0719)
(9.95256 -0.775133 0.908859)
(11.5866 -1.60095 2.88565)
(13.9822 -0.577258 -1.20527)
(16.8669 -0.16058 -0.430009)
(16.7845 -0.722959 2.06217)
(16.9763 -0.685141 2.21733)
(17.3272 -0.576419 1.74355)
(17.514 -0.434882 1.28796)
(17.1145 -0.411542 1.07714)
(16.8053 -0.199385 1.06509)
(16.4687 0.0610458 1.02152)
(16.0981 0.272453 0.998805)
(14.6114 0.273995 0.80228)
(12.4879 0.250986 0.495998)
(11.6088 0.435474 -0.0575407)
(15.201 3.90643e-05 -0.655733)
(13.2861 -0.7312 -3.92932)
(39.9997 0.000274832 0.0487196)
(39.9914 0.000721314 0.144756)
(39.9737 0.00161919 0.242269)
(39.9419 0.0018854 0.341011)
(39.89 0.00165151 0.441686)
(39.8202 0.00146979 0.545099)
(39.7356 0.00158981 0.651864)
(39.6363 0.002009 0.762395)
(39.5196 0.00261843 0.877008)
(39.3829 0.0032697 0.996)
(39.2242 0.00381863 1.11968)
(39.0428 0.00417597 1.24841)
(38.8389 0.00432336 1.38281)
(38.6133 0.00432016 1.52366)
(38.368 0.00440235 1.67236)
(38.105 0.00460904 1.82973)
(37.8279 0.00567465 1.99592)
(37.5409 0.00607782 2.17028)
(37.2236 0.00423263 2.31132)
(36.8319 0.0113269 2.44889)
(36.3868 0.0151387 2.55371)
(35.8528 0.00891381 2.68849)
(35.234 -0.00039194 2.84413)
(34.5792 -0.00784319 3.04436)
(33.8381 -0.0202649 3.27268)
(32.9218 -0.0214581 3.54409)
(31.8521 -0.00645508 3.84522)
(30.7526 0.0110284 4.30708)
(29.5557 0.0136773 4.83521)
(28.2201 0.0160901 5.25832)
(26.8813 0.0357831 5.27017)
(25.6358 0.0853136 4.74539)
(24.4796 0.193706 3.61176)
(23.6414 0.66832 1.63026)
(24.3534 2.34838 -0.88146)
(25.4695 3.775 -2.89057)
(26.5176 3.44146 -2.6743)
(25.7229 3.06859 -2.00014)
(24.6056 2.76432 -1.23958)
(24.1972 2.28556 -0.598644)
(21.4106 0.874231 -0.0280757)
(20.863 0.598802 0.411179)
(20.3096 0.627186 0.320339)
(20.0406 0.719874 -0.0317174)
(19.5934 0.840472 -0.376181)
(18.8438 0.869925 -0.645597)
(18.185 1.12599 -0.924839)
(17.6284 1.38488 -0.826948)
(16.9058 1.55314 -0.35207)
(15.3714 1.47766 0.187729)
(14.8432 1.32703 0.211898)
(12.8838 1.64964 -1.19226)
(17.7439 1.3452 1.23502)
(10.1582 0.958218 -1.67571)
(39.9993 0.000271919 0.0562031)
(39.9913 0.000712 0.167126)
(39.975 0.00160821 0.279895)
(39.9462 0.00187678 0.394325)
(39.8975 0.00165192 0.511156)
(39.8308 0.0014746 0.631205)
(39.7496 0.00158517 0.755108)
(39.6543 0.00197983 0.883342)
(39.5422 0.00255213 1.01635)
(39.4108 0.00315788 1.15458)
(39.2581 0.00365986 1.29854)
(39.0835 0.00397904 1.4488)
(38.8871 0.00410627 1.60595)
(38.6698 0.00414184 1.77065)
(38.4333 0.00423958 1.94356)
(38.1802 0.00455733 2.12505)
(37.9113 0.00528809 2.31372)
(37.6305 0.0064406 2.51191)
(37.3312 0.00929859 2.6947)
(36.9954 0.0114491 2.88604)
(36.6057 0.0110576 3.07042)
(36.1092 0.00287238 3.29957)
(35.5434 -0.00171826 3.4743)
(34.8613 -0.0117568 3.7412)
(34.1364 -0.0306916 4.16761)
(33.238 -0.0379385 4.68084)
(32.0278 -0.00912381 5.11849)
(30.6529 0.0307624 5.51087)
(29.328 0.0370592 6.07375)
(27.9642 0.0326095 6.58941)
(26.5539 0.0565216 6.68771)
(25.0054 0.122944 6.20649)
(22.8501 0.304636 5.29353)
(21.2012 0.896884 4.08605)
(3.76405 0.579122 0.355152)
(2.96281 0.0206306 1.72754)
(3.18709 -0.455652 3.27325)
(-0.63158 0.297349 -1.89689)
(2.68592 -0.500024 -0.180044)
(-1.78718 -2.19353 -3.16712)
(7.47079 -1.23045 -1.58574)
(5.59278 -0.438706 -0.0786862)
(4.58205 0.0951501 0.793438)
(4.99513 0.260017 0.76542)
(5.60045 0.282559 0.555347)
(4.8218 -0.0734758 0.260333)
(4.10604 -0.507193 0.290753)
(6.45678 -0.51368 -1.45801)
(7.9361 -0.412332 -2.1286)
(9.32486 -0.520556 -2.69824)
(10.6383 -0.645832 -3.05836)
(12.4704 -0.542738 -3.6324)
(17.266 -0.0736798 -5.14154)
(18.687 -0.837108 -7.5964)
(39.9998 0.000271911 0.056192)
(39.9919 0.000712037 0.167093)
(39.9752 0.00160823 0.279828)
(39.9452 0.00187702 0.394258)
(39.8961 0.00165149 0.511116)
(39.8297 0.00147301 0.631178)
(39.7491 0.00158337 0.755063)
(39.6542 0.00197811 0.883245)
(39.5423 0.0025507 1.01617)
(39.4108 0.00315631 1.15431)
(39.2579 0.00366013 1.2982)
(39.0829 0.00398152 1.44838)
(38.8862 0.00410936 1.60552)
(38.6688 0.00414674 1.77026)
(38.4326 0.00425201 1.94322)
(38.1799 0.00456897 2.12459)
(37.9123 0.00528916 2.31337)
(37.6323 0.0065334 2.50892)
(37.3369 0.0091433 2.70398)
(37.0094 0.0114611 2.90432)
(36.6112 0.0118119 3.10984)
(36.1697 0.00414032 3.32787)
(35.5522 -0.00408678 3.55607)
(34.8646 -0.0111264 3.79152)
(34.0651 -0.0312386 4.11992)
(33.0927 -0.0380629 4.59529)
(31.8879 -0.00680852 5.0019)
(30.7176 0.0268818 5.53653)
(29.5012 0.0338383 6.1401)
(28.189 0.0285599 6.60884)
(26.8515 0.0535151 6.65166)
(25.542 0.11638 6.20825)
(24.1602 0.328838 5.34947)
(22.9147 1.41893 4.27479)
(24.5181 4.10073 3.69543)
(3.92292 0.0202198 1.76563)
(7.66168 0.340773 0.59697)
(6.96986 1.22576 0.307307)
(2.67376 0.795788 0.268942)
(1.74337 0.230559 -0.351736)
(4.70393 0.163427 0.296589)
(4.82015 0.899544 0.899695)
(4.31107 1.57529 1.51893)
(4.03704 1.84438 1.70355)
(4.12723 1.96505 1.47457)
(3.55044 1.77473 1.03236)
(2.56434 1.56831 1.04634)
(1.3901 1.42892 2.5006)
(-3.93472 1.77845 5.45698)
(-2.13913 2.26767 2.15039)
(0.588959 2.3013 1.01326)
(3.43539 2.74757 -0.452487)
(9.05552 3.70367 -1.34141)
(9.35972 1.42977 -4.09713)
(39.9994 0.000264153 0.0632801)
(39.9919 0.000690876 0.188339)
(39.977 0.0015547 0.315492)
(39.9503 0.00181822 0.444665)
(39.9049 0.00160611 0.576693)
(39.8421 0.00143437 0.712491)
(39.7657 0.00153423 0.852836)
(39.6757 0.00190323 0.998368)
(39.5697 0.00244036 1.1497)
(39.4449 0.00300681 1.30743)
(39.2995 0.00347457 1.47218)
(39.1326 0.00376815 1.6445)
(38.9445 0.00388522 1.82481)
(38.7359 0.00392972 2.01334)
(38.5081 0.00397981 2.20987)
(38.2628 0.00433151 2.41376)
(38.0013 0.0047946 2.62374)
(37.7251 0.00584471 2.83911)
(37.4349 0.00648014 3.0581)
(37.1269 0.00656921 3.28381)
(36.7875 0.00487663 3.52597)
(36.4071 0.0033228 3.8185)
(35.9667 0.00610229 4.13525)
(35.3643 -0.0083666 4.50387)
(34.6252 -0.0324131 5.05539)
(33.8548 -0.045352 5.77632)
(32.8663 -0.0149366 6.38841)
(31.5212 0.0478397 6.85774)
(29.9758 0.0739466 7.41159)
(28.3719 0.0562404 7.93591)
(26.9933 0.0552032 7.9741)
(25.6937 0.0805489 7.60649)
(24.1761 0.168363 7.40659)
(23.1344 0.697192 8.59118)
(19.8679 1.31937 12.0222)
(1.80536 0.0185786 1.78826)
(2.05708 0.039494 0.4234)
(-0.549347 -0.741431 -1.44099)
(-1.54862 -1.50279 -0.0390289)
(1.45862 -3.18297 -2.21763)
(-2.29469 -2.94915 -3.40282)
(-0.21019 -2.73573 -1.7663)
(1.11029 -2.32138 -0.956392)
(3.06086 -1.64751 -0.503209)
(5.65667 -1.5103 -1.0799)
(8.01731 -1.81737 -2.21296)
(10.4589 -1.81697 -3.26322)
(13.5202 -1.57996 -4.42121)
(16.4131 -1.31314 -5.43614)
(18.678 -1.05903 -6.14224)
(20.0945 -1.05094 -6.48353)
(20.9812 -0.958638 -6.63155)
(23.6352 -0.684199 -7.03186)
(22.8363 -0.509384 -8.13284)
(39.9998 0.000264147 0.063269)
(39.9925 0.000690903 0.188304)
(39.9772 0.00155475 0.315422)
(39.9494 0.00181831 0.444594)
(39.9035 0.00160627 0.576645)
(39.841 0.00143455 0.712454)
(39.7652 0.00153475 0.852782)
(39.6756 0.00190286 0.998267)
(39.5697 0.00243846 1.14953)
(39.4449 0.0030043 1.3072)
(39.2992 0.00347366 1.47189)
(39.132 0.00376987 1.64417)
(38.9436 0.00388773 1.82447)
(38.7349 0.00393308 2.01299)
(38.5074 0.00398333 2.20951)
(38.2626 0.00434013 2.4133)
(38.0017 0.0048033 2.623)
(37.7258 0.00585425 2.83731)
(37.4343 0.00654936 3.055)
(37.1244 0.00662729 3.27962)
(36.7835 0.00496541 3.52854)
(36.4113 0.00328551 3.8157)
(35.9774 0.00702414 4.20677)
(35.4403 -0.00486721 4.53355)
(34.5959 -0.036765 5.02297)
(33.7417 -0.0479015 5.64127)
(32.5319 -0.0214491 6.2027)
(31.2323 0.0335815 6.81935)
(30.0464 0.0588453 7.43247)
(28.7729 0.040104 7.9066)
(27.3678 0.0467343 7.98134)
(26.0499 0.0771105 7.573)
(24.8174 0.177796 7.13069)
(23.2268 0.909079 7.6008)
(24.9422 3.19212 10.6003)
(21.1925 2.96449 10.5278)
(18.279 1.93051 7.59639)
(14.4323 1.40673 4.67722)
(9.45958 0.799955 2.41411)
(3.20244 -0.1033 -0.186866)
(-8.42653 2.11178 1.7418)
(-4.69093 2.41038 2.07305)
(-5.39698 1.48846 0.463472)
(-3.54824 0.649861 -1.24524)
(-2.21502 1.38273 0.0684092)
(-0.936037 1.15363 0.419735)
(2.38516 1.00499 -0.583254)
(6.02065 1.27873 -1.67209)
(8.10238 1.45851 -2.0098)
(10.2886 1.72483 -2.75264)
(11.5678 1.43867 -3.08253)
(13.3268 1.15462 -3.34354)
(17.2611 1.16407 -3.8505)
(18.1191 0.64082 -4.37439)
(39.9995 0.000261309 0.0698668)
(39.9926 0.000680295 0.208162)
(39.9793 0.00154093 0.348733)
(39.9553 0.00180474 0.491688)
(39.9136 0.00159842 0.638013)
(39.8556 0.00142792 0.788757)
(39.7848 0.00151842 0.94484)
(39.7011 0.0018684 1.10704)
(39.6022 0.00238076 1.27611)
(39.4852 0.00292198 1.45278)
(39.3482 0.00336878 1.63769)
(39.1903 0.00364932 1.83134)
(39.0111 0.00376255 2.0339)
(38.8112 0.0037861 2.24512)
(38.5914 0.00385634 2.46405)
(38.3531 0.00408717 2.68943)
(38.0975 0.00440466 2.91924)
(37.8267 0.00496286 3.15289)
(37.543 0.00536105 3.38953)
(37.2492 0.00577878 3.6347)
(36.9457 0.00576396 3.89969)
(36.6337 0.00653594 4.22128)
(36.3129 0.00752493 4.61949)
(35.9364 0.0158539 5.1574)
(35.322 0.00605547 5.87925)
(34.702 -0.0103984 6.6523)
(33.9748 -0.0108747 7.35136)
(32.8694 0.0205115 8.16018)
(31.5248 0.0682454 8.95145)
(29.9389 0.102521 9.50192)
(28.2348 0.105921 9.29946)
(26.3732 0.112316 8.72308)
(24.8914 0.125728 8.48543)
(23.1885 0.280356 9.30435)
(24.917 0.939998 14.2268)
(20.5364 0.549834 12.7783)
(15.7485 -0.276075 8.15726)
(11.7299 -1.27607 3.84476)
(8.50209 -1.94426 0.745373)
(8.15695 -2.57721 -1.1364)
(9.49053 -3.02959 -2.26609)
(11.2496 -2.97926 -2.92916)
(12.7584 -2.68003 -3.31423)
(14.288 -2.22185 -3.77492)
(16.0273 -1.823 -4.51367)
(17.8855 -1.6415 -5.3863)
(19.7897 -1.42863 -6.09906)
(21.6821 -1.18139 -6.73771)
(23.3917 -0.958067 -7.29105)
(24.5567 -0.78834 -7.71184)
(25.0638 -0.704432 -7.87097)
(24.8612 -0.607614 -7.73477)
(26.1517 -0.316932 -7.69811)
(24.1745 0.049002 -7.85716)
(39.9999 0.000261304 0.0698555)
(39.9932 0.000680322 0.208126)
(39.9795 0.00154099 0.348658)
(39.9544 0.00180483 0.491608)
(39.9122 0.00159859 0.637955)
(39.8545 0.00142813 0.788711)
(39.7842 0.00151902 0.944778)
(39.701 0.00186815 1.10694)
(39.6022 0.00237891 1.27595)
(39.4852 0.00291968 1.45255)
(39.3479 0.00336696 1.63741)
(39.1896 0.00364586 1.83101)
(39.0102 0.00376004 2.03353)
(38.8103 0.00378675 2.24467)
(38.5907 0.00385423 2.46355)
(38.3526 0.00408415 2.68867)
(38.0973 0.00440686 2.9183)
(37.8266 0.00496315 3.15117)
(37.5427 0.00537876 3.38757)
(37.2483 0.00580872 3.63216)
(36.9446 0.00580336 3.90038)
(36.6343 0.00644625 4.21549)
(36.3089 0.00775056 4.63081)
(35.9804 0.0153533 5.12832)
(35.4046 -0.00704457 5.79945)
(34.7485 -0.0144881 6.56707)
(33.7123 -0.0134256 7.39563)
(32.4128 0.00473685 8.1245)
(31.1112 0.0446474 8.73334)
(29.8432 0.0737207 9.23754)
(28.5161 0.08832 9.44818)
(27.0443 0.0770697 8.97503)
(25.4105 0.11694 8.44509)
(23.7393 0.166142 8.98891)
(24.0025 1.16934 11.5694)
(25.7333 1.76353 12.6728)
(25.7376 1.6909 11.2811)
(23.9755 1.31051 8.87296)
(21.066 1.02099 6.47549)
(18.1277 0.517051 4.35472)
(13.2454 0.231649 2.76005)
(10.5895 0.169944 1.2857)
(9.06133 0.330564 0.147069)
(9.36328 1.00529 -0.596123)
(10.5791 1.3802 -1.43354)
(12.3046 1.22682 -2.19433)
(14.8467 1.01259 -2.94892)
(17.6041 0.877701 -3.69495)
(20.0394 0.770252 -4.38108)
(21.7054 0.637168 -5.09549)
(22.543 0.400001 -5.26817)
(23.2094 0.184171 -5.16103)
(24.8922 0.223315 -4.9585)
(24.7629 0.250881 -5.63222)
(39.9996 0.000253368 0.0758799)
(39.9935 0.000658344 0.226366)
(39.9821 0.00148298 0.379246)
(39.9612 0.00173844 0.534889)
(39.9239 0.00154331 0.694448)
(39.8713 0.00137863 0.859118)
(39.807 0.0014603 1.02997)
(39.7308 0.00178776 1.20794)
(39.6401 0.00226914 1.39393)
(39.5322 0.00277752 1.5888)
(39.4048 0.00318954 1.79328)
(39.2568 0.00343161 2.00779)
(39.0874 0.00349811 2.23234)
(38.8964 0.00345915 2.46625)
(38.6842 0.00345085 2.70804)
(38.4514 0.00352504 2.95541)
(38.1999 0.00379984 3.20551)
(37.9326 0.00404676 3.45588)
(37.6556 0.00447092 3.70505)
(37.3774 0.0045893 3.95659)
(37.1159 0.00499254 4.22306)
(36.8718 0.00327726 4.53787)
(36.6874 0.00236569 4.94933)
(36.5177 0.0172184 5.51295)
(36.2005 0.0447883 6.38385)
(35.746 0.0500536 7.31977)
(34.8744 0.0272126 8.2447)
(33.9343 -0.00287129 9.29446)
(32.8951 -0.00528004 10.2316)
(31.7716 0.0345098 10.9964)
(30.4512 0.0702361 11.3406)
(28.6861 0.0886678 11.1088)
(26.6148 0.13865 10.2718)
(24.3813 0.0735039 9.84476)
(24.3386 0.3032 11.4809)
(25.4489 0.373621 12.3638)
(24.7772 -0.0192015 10.7648)
(22.9664 -0.661536 7.78005)
(21.1539 -1.26347 4.72844)