/*--------------------------------*- C++ -*----------------------------------*\
| =========                 |                                                 |
| \\      /  F ield         | OpenFOAM: The Open Source CFD Toolbox           |
|  \\    /   O peration     | Version:  4.1                                   |
|   \\  /    A nd           | Web:      www.OpenFOAM.org                      |
|    \\/     M anipulation  |                                                 |
\*---------------------------------------------------------------------------*/
FoamFile
{
    version     2.0;
    format      ascii;
    class       volScalarField;
    location    "29";
    object      p;
}
// * * * * * * * * * * * * * * * * * * * * * * * * * * * * * * * * * * * * * //

dimensions      [0 2 -2 0 0 0 0];

internalField   nonuniform List<scalar> 
4432
(
-2.54772e+10
-2.8169e+10
-2.3554e+10
-8.80143e+09
-1.14896e+10
-1.64887e+10
-1.5128e+10
-1.44891e+10
-1.43021e+10
-1.42574e+10
-1.4047e+10
-1.37908e+10
-1.36076e+10
-1.35247e+10
-1.35439e+10
-1.35592e+10
-1.3434e+10
-1.32579e+10
-1.30985e+10
-1.29654e+10
-1.28296e+10
-1.26956e+10
-1.25625e+10
-1.24312e+10
-1.23034e+10
-1.21804e+10
-1.20635e+10
-1.19532e+10
-1.18495e+10
-1.17519e+10
-1.16601e+10
-1.15747e+10
-1.14969e+10
-1.14272e+10
-1.13666e+10
-1.13187e+10
-1.12861e+10
-1.12723e+10
-1.12814e+10
-1.13159e+10
-1.13768e+10
-1.14598e+10
-1.15501e+10
-1.16225e+10
-1.16465e+10
-1.15797e+10
-1.1349e+10
-1.08718e+10
-1.01206e+10
-9.33753e+09
-9.40422e+09
-1.14657e+10
-1.38507e+10
-7.18668e+09
-2.32138e+10
-2.2713e+10
-1.97051e+10
-1.45384e+10
-1.16649e+10
-1.5615e+10
-1.55246e+10
-1.47528e+10
-1.45345e+10
-1.45038e+10
-1.42217e+10
-1.38556e+10
-1.36138e+10
-1.35402e+10
-1.35725e+10
-1.35778e+10
-1.34359e+10
-1.32567e+10
-1.31093e+10
-1.29783e+10
-1.28428e+10
-1.27097e+10
-1.25769e+10
-1.2446e+10
-1.23179e+10
-1.21943e+10
-1.20761e+10
-1.1964e+10
-1.18579e+10
-1.17575e+10
-1.16625e+10
-1.15735e+10
-1.14923e+10
-1.142e+10
-1.13583e+10
-1.13093e+10
-1.12752e+10
-1.12601e+10
-1.1268e+10
-1.13018e+10
-1.1362e+10
-1.14439e+10
-1.15321e+10
-1.16e+10
-1.16135e+10
-1.15265e+10
-1.12626e+10
-1.07277e+10
-9.89783e+09
-9.01584e+09
-9.05052e+09
-1.14115e+10
-1.42244e+10
-7.91589e+09
-1.92091e+10
-1.78529e+10
-1.59234e+10
-1.65875e+10
-1.29563e+10
-1.46398e+10
-1.62616e+10
-1.553e+10
-1.50306e+10
-1.48142e+10
-1.43704e+10
-1.39712e+10
-1.3672e+10
-1.34889e+10
-1.34569e+10
-1.35214e+10
-1.34742e+10
-1.33026e+10
-1.31369e+10
-1.29885e+10
-1.28514e+10
-1.27167e+10
-1.25831e+10
-1.24507e+10
-1.23207e+10
-1.21949e+10
-1.20748e+10
-1.19614e+10
-1.18552e+10
-1.17564e+10
-1.16646e+10
-1.15809e+10
-1.15089e+10
-1.14465e+10
-1.13885e+10
-1.13416e+10
-1.13124e+10
-1.13042e+10
-1.13198e+10
-1.13585e+10
-1.1417e+10
-1.14888e+10
-1.1559e+10
-1.15992e+10
-1.15734e+10
-1.14502e+10
-1.11541e+10
-1.05726e+10
-9.71875e+09
-8.95152e+09
-9.39108e+09
-1.22338e+10
-1.4713e+10
-8.28683e+09
-1.94348e+10
-1.8412e+10
-1.61075e+10
-1.43666e+10
-1.30336e+10
-1.48218e+10
-1.62821e+10
-1.54284e+10
-1.50806e+10
-1.48338e+10
-1.44069e+10
-1.39819e+10
-1.36625e+10
-1.34857e+10
-1.34826e+10
-1.35701e+10
-1.34988e+10
-1.33034e+10
-1.31517e+10
-1.30081e+10
-1.28727e+10
-1.27386e+10
-1.26054e+10
-1.24733e+10
-1.23435e+10
-1.22178e+10
-1.20974e+10
-1.19835e+10
-1.18767e+10
-1.17767e+10
-1.1683e+10
-1.15963e+10
-1.15188e+10
-1.14516e+10
-1.13947e+10
-1.13499e+10
-1.13201e+10
-1.13112e+10
-1.13274e+10
-1.13667e+10
-1.1425e+10
-1.14952e+10
-1.15612e+10
-1.15939e+10
-1.15558e+10
-1.14052e+10
-1.10691e+10
-1.04541e+10
-9.56285e+09
-8.76323e+09
-9.28644e+09
-1.24348e+10
-1.48758e+10
-7.27714e+09
-1.80411e+10
-1.5344e+10
-1.20672e+10
-1.55526e+10
-1.30648e+10
-1.32864e+10
-1.45741e+10
-1.50868e+10
-1.52005e+10
-1.50224e+10
-1.45631e+10
-1.41425e+10
-1.3767e+10
-1.35052e+10
-1.34504e+10
-1.3499e+10
-1.34509e+10
-1.3301e+10
-1.31567e+10
-1.30137e+10
-1.28768e+10
-1.27411e+10
-1.26053e+10
-1.24693e+10
-1.23345e+10
-1.22027e+10
-1.20758e+10
-1.19555e+10
-1.18424e+10
-1.17366e+10
-1.16364e+10
-1.15399e+10
-1.14517e+10
-1.13834e+10
-1.133e+10
-1.12848e+10
-1.12622e+10
-1.1263e+10
-1.12895e+10
-1.13368e+10
-1.14006e+10
-1.14761e+10
-1.15479e+10
-1.15841e+10
-1.15461e+10
-1.13895e+10
-1.10463e+10
-1.04455e+10
-9.60821e+09
-8.89701e+09
-9.38748e+09
-1.21512e+10
-1.47208e+10
-7.37361e+09
-1.74019e+10
-1.65639e+10
-1.43042e+10
-1.26771e+10
-1.35392e+10
-1.42754e+10
-1.479e+10
-1.48834e+10
-1.51215e+10
-1.49189e+10
-1.44847e+10
-1.40709e+10
-1.37342e+10
-1.35124e+10
-1.34683e+10
-1.35374e+10
-1.34653e+10
-1.33012e+10
-1.31615e+10
-1.30227e+10
-1.28879e+10
-1.27526e+10
-1.2617e+10
-1.24811e+10
-1.23462e+10
-1.22142e+10
-1.2087e+10
-1.19661e+10
-1.18527e+10
-1.17467e+10
-1.16465e+10
-1.15508e+10
-1.14634e+10
-1.13899e+10
-1.13308e+10
-1.12886e+10
-1.12662e+10
-1.12671e+10
-1.12931e+10
-1.13385e+10
-1.1398e+10
-1.14662e+10
-1.15261e+10
-1.1545e+10
-1.14807e+10
-1.12863e+10
-1.08979e+10
-1.02442e+10
-9.34782e+09
-8.60521e+09
-9.16432e+09
-1.21606e+10
-1.483e+10
-8.01312e+09
-1.63223e+10
-1.606e+10
-1.45003e+10
-1.35135e+10
-1.40343e+10
-1.39789e+10
-1.43327e+10
-1.46516e+10
-1.48841e+10
-1.47773e+10
-1.44261e+10
-1.40992e+10
-1.37979e+10
-1.35845e+10
-1.3525e+10
-1.35297e+10
-1.3451e+10
-1.33105e+10
-1.31772e+10
-1.30431e+10
-1.29096e+10
-1.27736e+10
-1.26355e+10
-1.2496e+10
-1.2357e+10
-1.22209e+10
-1.209e+10
-1.19664e+10
-1.18501e+10
-1.17394e+10
-1.16307e+10
-1.15172e+10
-1.14042e+10
-1.1343e+10
-1.13338e+10
-1.12853e+10
-1.12525e+10
-1.12636e+10
-1.13042e+10
-1.13721e+10
-1.14594e+10
-1.15603e+10
-1.16556e+10
-1.17047e+10
-1.16636e+10
-1.14825e+10
-1.10963e+10
-1.04606e+10
-9.60853e+09
-8.88637e+09
-9.33482e+09
-1.21484e+10
-1.54156e+10
-9.44947e+09
-1.59478e+10
-1.52277e+10
-1.42307e+10
-1.3758e+10
-1.51861e+10
-1.4983e+10
-1.43343e+10
-1.43569e+10
-1.47108e+10
-1.46346e+10
-1.4354e+10
-1.40539e+10
-1.37853e+10
-1.36084e+10
-1.3565e+10
-1.35638e+10
-1.3463e+10
-1.33203e+10
-1.31898e+10
-1.30591e+10
-1.29271e+10
-1.27918e+10
-1.26537e+10
-1.25135e+10
-1.23733e+10
-1.22354e+10
-1.21024e+10
-1.19764e+10
-1.18581e+10
-1.17466e+10
-1.16396e+10
-1.15355e+10
-1.14398e+10
-1.1363e+10
-1.13043e+10
-1.1267e+10
-1.1247e+10
-1.1247e+10
-1.12812e+10
-1.13415e+10
-1.14189e+10
-1.15071e+10
-1.15881e+10
-1.16222e+10
-1.15605e+10
-1.13561e+10
-1.09493e+10
-1.02942e+10
-9.43642e+09
-8.79261e+09
-9.5494e+09
-1.27823e+10
-1.53178e+10
-7.59422e+09
-1.47447e+10
-1.49595e+10
-1.48403e+10
-1.40182e+10
-1.46359e+10
-1.43232e+10
-1.41796e+10
-1.43074e+10
-1.45654e+10
-1.46028e+10
-1.4342e+10
-1.39888e+10
-1.37549e+10
-1.36139e+10
-1.35743e+10
-1.35351e+10
-1.34359e+10
-1.33068e+10
-1.31788e+10
-1.30478e+10
-1.29138e+10
-1.27745e+10
-1.26307e+10
-1.24835e+10
-1.23361e+10
-1.21918e+10
-1.20536e+10
-1.19232e+10
-1.18003e+10
-1.16812e+10
-1.15628e+10
-1.14435e+10
-1.13328e+10
-1.12584e+10
-1.12173e+10
-1.1179e+10
-1.11578e+10
-1.11714e+10
-1.12194e+10
-1.13018e+10
-1.14132e+10
-1.15406e+10
-1.16585e+10
-1.17262e+10
-1.16945e+10
-1.15078e+10
-1.1103e+10
-1.04282e+10
-9.4996e+09
-8.63301e+09
-8.8834e+09
-1.17289e+10
-1.55633e+10
-1.04688e+10
-1.49859e+10
-1.46162e+10
-1.44043e+10
-1.4458e+10
-1.54272e+10
-1.47743e+10
-1.41461e+10
-1.41051e+10
-1.43064e+10
-1.4371e+10
-1.42337e+10
-1.39845e+10
-1.37712e+10
-1.36421e+10
-1.36025e+10
-1.35601e+10
-1.34547e+10
-1.33278e+10
-1.32035e+10
-1.30762e+10
-1.29445e+10
-1.28069e+10
-1.26639e+10
-1.25169e+10
-1.23691e+10
-1.2224e+10
-1.20845e+10
-1.19519e+10
-1.18257e+10
-1.17057e+10
-1.15928e+10
-1.14852e+10
-1.13818e+10
-1.12946e+10
-1.12289e+10
-1.11829e+10
-1.11594e+10
-1.11625e+10
-1.11979e+10
-1.12652e+10
-1.1361e+10
-1.14724e+10
-1.15747e+10
-1.16306e+10
-1.15918e+10
-1.14041e+10
-1.10099e+10
-1.03622e+10
-9.49244e+09
-8.78514e+09
-9.4099e+09
-1.257e+10
-1.54139e+10
-8.07124e+09
-1.43804e+10
-1.45314e+10
-1.45701e+10
-1.44699e+10
-1.47222e+10
-1.4408e+10
-1.41046e+10
-1.40499e+10
-1.41845e+10
-1.43034e+10
-1.42272e+10
-1.39305e+10
-1.37235e+10
-1.36346e+10
-1.35954e+10
-1.35324e+10
-1.34323e+10
-1.33152e+10
-1.31945e+10
-1.30685e+10
-1.29359e+10
-1.27954e+10
-1.26464e+10
-1.24913e+10
-1.23352e+10
-1.21839e+10
-1.20398e+10
-1.1901e+10
-1.17685e+10
-1.16431e+10
-1.15243e+10
-1.14141e+10
-1.1318e+10
-1.12386e+10
-1.11696e+10
-1.11181e+10
-1.10945e+10
-1.1103e+10
-1.11462e+10
-1.12257e+10
-1.13366e+10
-1.14644e+10
-1.15819e+10
-1.165e+10
-1.16205e+10
-1.14365e+10
-1.10396e+10
-1.03794e+10
-9.45478e+09
-8.53251e+09
-8.6198e+09
-1.13206e+10
-1.53972e+10
-1.08371e+10
-1.47985e+10
-1.47171e+10
-1.4621e+10
-1.449e+10
-1.49502e+10
-1.44744e+10
-1.40949e+10
-1.40858e+10
-1.41645e+10
-1.42114e+10
-1.41132e+10
-1.3902e+10
-1.37315e+10
-1.3648e+10
-1.3605e+10
-1.35395e+10
-1.34383e+10
-1.33243e+10
-1.32072e+10
-1.30843e+10
-1.29542e+10
-1.28153e+10
-1.26678e+10
-1.25146e+10
-1.23604e+10
-1.221e+10
-1.20663e+10
-1.19302e+10
-1.18014e+10
-1.16785e+10
-1.15631e+10
-1.1456e+10
-1.13554e+10
-1.12669e+10
-1.11942e+10
-1.1139e+10
-1.11089e+10
-1.11087e+10
-1.11406e+10
-1.12068e+10
-1.13047e+10
-1.14199e+10
-1.15271e+10
-1.15897e+10
-1.15618e+10
-1.139e+10
-1.10196e+10
-1.04014e+10
-9.54734e+09
-8.77585e+09
-9.16545e+09
-1.20941e+10
-1.547e+10
-9.43116e+09
-1.41792e+10
-1.44566e+10
-1.45165e+10
-1.46407e+10
-1.4519e+10
-1.42614e+10
-1.40255e+10
-1.3936e+10
-1.40213e+10
-1.41362e+10
-1.40328e+10
-1.38236e+10
-1.37001e+10
-1.36466e+10
-1.35969e+10
-1.35253e+10
-1.34309e+10
-1.33239e+10
-1.32108e+10
-1.30911e+10
-1.29617e+10
-1.28189e+10
-1.26614e+10
-1.24945e+10
-1.23265e+10
-1.21647e+10
-1.20117e+10
-1.18692e+10
-1.17369e+10
-1.16125e+10
-1.14964e+10
-1.13928e+10
-1.1305e+10
-1.12284e+10
-1.11581e+10
-1.11032e+10
-1.10731e+10
-1.10728e+10
-1.11064e+10
-1.11744e+10
-1.12712e+10
-1.13836e+10
-1.14874e+10
-1.15478e+10
-1.15201e+10
-1.13558e+10
-1.10096e+10
-1.0443e+10
-9.66065e+09
-8.92747e+09
-9.19724e+09
-1.17595e+10
-1.48028e+10
-8.27509e+09
-1.45589e+10
-1.47117e+10
-1.4865e+10
-1.45224e+10
-1.42826e+10
-1.40495e+10
-1.4033e+10
-1.40719e+10
-1.41146e+10
-1.40941e+10
-1.39643e+10
-1.38075e+10
-1.37039e+10
-1.36492e+10
-1.35972e+10
-1.35226e+10
-1.34275e+10
-1.33218e+10
-1.321e+10
-1.30908e+10
-1.29616e+10
-1.28187e+10
-1.26622e+10
-1.24967e+10
-1.23296e+10
-1.21675e+10
-1.20157e+10
-1.18761e+10
-1.1748e+10
-1.16287e+10
-1.15168e+10
-1.14134e+10
-1.13224e+10
-1.12424e+10
-1.11723e+10
-1.11179e+10
-1.10866e+10
-1.10834e+10
-1.11125e+10
-1.11749e+10
-1.12657e+10
-1.13713e+10
-1.14684e+10
-1.15231e+10
-1.14925e+10
-1.13294e+10
-1.09898e+10
-1.04352e+10
-9.67483e+09
-8.98774e+09
-9.34779e+09
-1.2015e+10
-1.48621e+10
-7.80681e+09
-1.406e+10
-1.43093e+10
-1.45248e+10
-1.46764e+10
-1.4396e+10
-1.39627e+10
-1.37504e+10
-1.3748e+10
-1.39184e+10
-1.40572e+10
-1.39403e+10
-1.37863e+10
-1.37074e+10
-1.36608e+10
-1.36077e+10
-1.35355e+10
-1.34463e+10
-1.33456e+10
-1.32385e+10
-1.31246e+10
-1.2999e+10
-1.28524e+10
-1.26832e+10
-1.24985e+10
-1.23116e+10
-1.21332e+10
-1.19692e+10
-1.18218e+10
-1.16894e+10
-1.15659e+10
-1.14523e+10
-1.13538e+10
-1.12625e+10
-1.11774e+10
-1.11026e+10
-1.10457e+10
-1.10122e+10
-1.10055e+10
-1.10299e+10
-1.10859e+10
-1.11686e+10
-1.12649e+10
-1.13516e+10
-1.13949e+10
-1.13533e+10
-1.1184e+10
-1.08499e+10
-1.03252e+10
-9.63324e+09
-9.05604e+09
-9.53179e+09
-1.21354e+10
-1.46567e+10
-7.90482e+09
-1.42914e+10
-1.44889e+10
-1.48613e+10
-1.47493e+10
-1.41664e+10
-1.37472e+10
-1.37849e+10
-1.38516e+10
-1.39297e+10
-1.39695e+10
-1.38847e+10
-1.37783e+10
-1.37093e+10
-1.36619e+10
-1.36065e+10
-1.35337e+10
-1.34453e+10
-1.33461e+10
-1.324e+10
-1.31267e+10
-1.30013e+10
-1.28556e+10
-1.26867e+10
-1.2502e+10
-1.23136e+10
-1.2133e+10
-1.19667e+10
-1.18169e+10
-1.16843e+10
-1.15647e+10
-1.1452e+10
-1.13487e+10
-1.12552e+10
-1.11703e+10
-1.10967e+10
-1.10412e+10
-1.10084e+10
-1.10018e+10
-1.10255e+10
-1.10803e+10
-1.11604e+10
-1.1253e+10
-1.13343e+10
-1.13699e+10
-1.13186e+10
-1.11376e+10
-1.07899e+10
-1.02478e+10
-9.53104e+09
-8.90852e+09
-9.28824e+09
-1.18453e+10
-1.46765e+10
-8.22591e+09
-1.39239e+10
-1.39993e+10
-1.42447e+10
-1.44138e+10
-1.42806e+10
-1.38315e+10
-1.36167e+10
-1.36933e+10
-1.38646e+10
-1.39063e+10
-1.38154e+10
-1.37313e+10
-1.36812e+10
-1.36396e+10
-1.35885e+10
-1.35202e+10
-1.3436e+10
-1.33411e+10
-1.3241e+10
-1.31373e+10
-1.3022e+10
-1.2879e+10
-1.26976e+10
-1.24866e+10
-1.22698e+10
-1.2067e+10
-1.18861e+10
-1.17276e+10
-1.15901e+10
-1.14665e+10
-1.13506e+10
-1.1247e+10
-1.1153e+10
-1.10663e+10
-1.09925e+10
-1.09369e+10
-1.0905e+10
-1.09023e+10
-1.09329e+10
-1.09969e+10
-1.10875e+10
-1.11899e+10
-1.12786e+10
-1.13169e+10
-1.126e+10
-1.10613e+10
-1.06795e+10
-1.0085e+10
-9.29958e+09
-8.59594e+09
-8.90592e+09
-1.15284e+10
-1.47628e+10
-9.01753e+09
-1.39444e+10
-1.40292e+10
-1.43852e+10
-1.45495e+10
-1.4167e+10
-1.37553e+10
-1.37259e+10
-1.37686e+10
-1.38039e+10
-1.382e+10
-1.37812e+10
-1.37325e+10
-1.36889e+10
-1.36483e+10
-1.35965e+10
-1.3529e+10
-1.34463e+10
-1.33527e+10
-1.32535e+10
-1.31504e+10
-1.30361e+10
-1.28944e+10
-1.27141e+10
-1.25041e+10
-1.22876e+10
-1.20841e+10
-1.19011e+10
-1.17395e+10
-1.16012e+10
-1.14812e+10
-1.13662e+10
-1.12606e+10
-1.11636e+10
-1.10756e+10
-1.10022e+10
-1.09467e+10
-1.09144e+10
-1.09108e+10
-1.09399e+10
-1.10019e+10
-1.10901e+10
-1.11896e+10
-1.12745e+10
-1.13083e+10
-1.12463e+10
-1.10416e+10
-1.06521e+10
-1.00448e+10
-9.23431e+09
-8.47386e+09
-8.66832e+09
-1.1205e+10
-1.46447e+10
-9.42555e+09
-1.36472e+10
-1.35951e+10
-1.36473e+10
-1.3863e+10
-1.40582e+10
-1.38612e+10
-1.3698e+10
-1.37504e+10
-1.3801e+10
-1.37543e+10
-1.37178e+10
-1.36898e+10
-1.36627e+10
-1.36325e+10
-1.35911e+10
-1.35338e+10
-1.34612e+10
-1.33787e+10
-1.3294e+10
-1.32117e+10
-1.3123e+10
-1.29986e+10
-1.2805e+10
-1.25497e+10
-1.22828e+10
-1.20448e+10
-1.18445e+10
-1.16764e+10
-1.15332e+10
-1.14091e+10
-1.12984e+10
-1.11972e+10
-1.11038e+10
-1.10201e+10
-1.09518e+10
-1.09044e+10
-1.08841e+10
-1.08983e+10
-1.09519e+10
-1.10451e+10
-1.11703e+10
-1.13109e+10
-1.14381e+10
-1.15113e+10
-1.14804e+10
-1.12921e+10
-1.08963e+10
-1.02516e+10
-9.36884e+09
-8.52796e+09
-8.69892e+09
-1.12667e+10
-1.47141e+10
-9.74458e+09
-1.35232e+10
-1.34916e+10
-1.36886e+10
-1.40181e+10
-1.41017e+10
-1.39766e+10
-1.37749e+10
-1.37195e+10
-1.37192e+10
-1.37216e+10
-1.37128e+10
-1.36934e+10
-1.36663e+10
-1.36352e+10
-1.35918e+10
-1.35336e+10
-1.34607e+10
-1.33778e+10
-1.32923e+10
-1.32093e+10
-1.31212e+10
-1.29991e+10
-1.281e+10
-1.25606e+10
-1.22991e+10
-1.2064e+10
-1.18638e+10
-1.16948e+10
-1.15533e+10
-1.14321e+10
-1.13199e+10
-1.12159e+10
-1.11197e+10
-1.1033e+10
-1.09625e+10
-1.0913e+10
-1.08901e+10
-1.09009e+10
-1.09506e+10
-1.10399e+10
-1.1162e+10
-1.13009e+10
-1.14287e+10
-1.15059e+10
-1.14831e+10
-1.13077e+10
-1.09291e+10
-1.03033e+10
-9.43803e+09
-8.61325e+09
-8.81234e+09
-1.13821e+10
-1.45149e+10
-8.23782e+09
-1.32974e+10
-1.31942e+10
-1.31197e+10
-1.34645e+10
-1.381e+10
-1.3841e+10
-1.37558e+10
-1.36995e+10
-1.36698e+10
-1.36604e+10
-1.36591e+10
-1.36543e+10
-1.36454e+10
-1.36308e+10
-1.36047e+10
-1.35632e+10
-1.35064e+10
-1.34391e+10
-1.33707e+10
-1.33114e+10
-1.32589e+10
-1.3169e+10
-1.29619e+10
-1.26264e+10
-1.22662e+10
-1.19771e+10
-1.17596e+10
-1.15913e+10
-1.14545e+10
-1.13393e+10
-1.12372e+10
-1.11407e+10
-1.10481e+10
-1.09636e+10
-1.08941e+10
-1.08464e+10
-1.08282e+10
-1.08482e+10
-1.09127e+10
-1.10228e+10
-1.11718e+10
-1.13428e+10
-1.15062e+10
-1.16203e+10
-1.16336e+10
-1.14913e+10
-1.11418e+10
-1.05422e+10
-9.71462e+09
-9.00506e+09
-9.48465e+09
-1.2237e+10
-1.46006e+10
-6.95041e+09
-1.3106e+10
-1.30844e+10
-1.32441e+10
-1.36228e+10
-1.39472e+10
-1.38976e+10
-1.36864e+10
-1.36527e+10
-1.36556e+10
-1.36556e+10
-1.36566e+10
-1.36537e+10
-1.36439e+10
-1.36273e+10
-1.35992e+10
-1.35568e+10
-1.35003e+10
-1.34337e+10
-1.33657e+10
-1.33066e+10
-1.32548e+10
-1.31667e+10
-1.29615e+10
-1.26282e+10
-1.22696e+10
-1.19808e+10
-1.17612e+10
-1.15917e+10
-1.14559e+10
-1.1341e+10
-1.1237e+10
-1.11376e+10
-1.10422e+10
-1.09546e+10
-1.0882e+10
-1.0831e+10
-1.0809e+10
-1.08244e+10
-1.08839e+10
-1.09888e+10
-1.11328e+10
-1.12998e+10
-1.14611e+10
-1.15754e+10
-1.15917e+10
-1.14558e+10
-1.11154e+10
-1.05255e+10
-9.7063e+09
-9.00746e+09
-9.52413e+09
-1.23325e+10
-1.47506e+10
-7.96543e+09
-1.30646e+10
-1.30203e+10
-1.30928e+10
-1.34085e+10
-1.36261e+10
-1.37055e+10
-1.3699e+10
-1.36679e+10
-1.36492e+10
-1.36466e+10
-1.36534e+10
-1.3664e+10
-1.36689e+10
-1.3663e+10
-1.36419e+10
-1.36028e+10
-1.35471e+10
-1.34795e+10
-1.34113e+10
-1.33622e+10
-1.33497e+10
-1.33328e+10
-1.31578e+10
-1.27192e+10
-1.22104e+10
-1.18645e+10
-1.16439e+10
-1.14896e+10
-1.13753e+10
-1.12809e+10
-1.1195e+10
-1.11096e+10
-1.10236e+10
-1.09415e+10
-1.08703e+10
-1.08184e+10
-1.07945e+10
-1.08075e+10
-1.08642e+10
-1.09659e+10
-1.11061e+10
-1.12676e+10
-1.14211e+10
-1.15259e+10
-1.15325e+10
-1.1389e+10
-1.10484e+10
-1.04764e+10
-9.71558e+09
-9.13992e+09
-9.78951e+09
-1.2588e+10
-1.51676e+10
-9.55562e+09
-1.29406e+10
-1.30549e+10
-1.32829e+10
-1.3545e+10
-1.36767e+10
-1.3644e+10
-1.36316e+10
-1.36394e+10
-1.36411e+10
-1.36438e+10
-1.36505e+10
-1.36602e+10
-1.36647e+10
-1.36582e+10
-1.36369e+10
-1.35988e+10
-1.35461e+10
-1.34827e+10
-1.34179e+10
-1.33702e+10
-1.33578e+10
-1.33433e+10
-1.31737e+10
-1.2735e+10
-1.22274e+10
-1.18798e+10
-1.16537e+10
-1.14957e+10
-1.13804e+10
-1.12847e+10
-1.11965e+10
-1.11092e+10
-1.1022e+10
-1.09392e+10
-1.08679e+10
-1.08162e+10
-1.07928e+10
-1.08065e+10
-1.0864e+10
-1.09666e+10
-1.11078e+10
-1.12707e+10
-1.14262e+10
-1.1533e+10
-1.15404e+10
-1.13959e+10
-1.105e+10
-1.0464e+10
-9.67381e+09
-9.04075e+09
-9.57739e+09
-1.23244e+10
-1.52241e+10
-9.69324e+09
-1.30145e+10
-1.304e+10
-1.32806e+10
-1.34525e+10
-1.34929e+10
-1.35165e+10
-1.35463e+10
-1.35649e+10
-1.35741e+10
-1.35839e+10
-1.35953e+10
-1.3608e+10
-1.36148e+10
-1.36081e+10
-1.35834e+10
-1.35407e+10
-1.34886e+10
-1.34371e+10
-1.33961e+10
-1.33879e+10
-1.34551e+10
-1.36007e+10
-1.35864e+10
-1.29937e+10
-1.21504e+10
-1.16631e+10
-1.14269e+10
-1.13099e+10
-1.1251e+10
-1.12026e+10
-1.11499e+10
-1.10885e+10
-1.10204e+10
-1.09511e+10
-1.08886e+10
-1.08426e+10
-1.08226e+10
-1.08375e+10
-1.08936e+10
-1.09914e+10
-1.11231e+10
-1.12702e+10
-1.14029e+10
-1.14813e+10
-1.14585e+10
-1.12864e+10
-1.09232e+10
-1.03428e+10
-9.59908e+09
-9.07747e+09
-9.82478e+09
-1.28046e+10
-1.50474e+10
-7.53138e+09
-1.2996e+10
-1.31816e+10
-1.33882e+10
-1.34934e+10
-1.34756e+10
-1.34775e+10
-1.3517e+10
-1.35465e+10
-1.35653e+10
-1.35786e+10
-1.35906e+10
-1.36022e+10
-1.36076e+10
-1.35989e+10
-1.35717e+10
-1.35267e+10
-1.3474e+10
-1.34249e+10
-1.33872e+10
-1.33797e+10
-1.34409e+10
-1.35825e+10
-1.35903e+10
-1.30121e+10
-1.21716e+10
-1.16856e+10
-1.1443e+10
-1.13195e+10
-1.12562e+10
-1.12037e+10
-1.11469e+10
-1.10823e+10
-1.1012e+10
-1.09411e+10
-1.08778e+10
-1.08321e+10
-1.08134e+10
-1.08305e+10
-1.08896e+10
-1.09913e+10
-1.11277e+10
-1.12802e+10
-1.14191e+10
-1.15031e+10
-1.1483e+10
-1.13092e+10
-1.09366e+10
-1.03339e+10
-9.55099e+09
-8.97844e+09
-9.7064e+09
-1.27483e+10
-1.49966e+10
-7.56948e+09
-1.30939e+10
-1.31293e+10
-1.33364e+10
-1.33829e+10
-1.33812e+10
-1.33883e+10
-1.34142e+10
-1.34424e+10
-1.3471e+10
-1.3501e+10
-1.35332e+10
-1.35677e+10
-1.35985e+10
-1.36164e+10
-1.36166e+10
-1.36057e+10
-1.3606e+10
-1.3636e+10
-1.36925e+10
-1.37808e+10
-1.39465e+10
-1.4278e+10
-1.45929e+10
-1.39135e+10
-1.24687e+10
-1.11649e+10
-1.10073e+10
-1.10474e+10
-1.1095e+10
-1.11053e+10
-1.10835e+10
-1.10384e+10
-1.09798e+10
-1.09166e+10
-1.08592e+10
-1.08183e+10
-1.08047e+10
-1.08277e+10
-1.08937e+10
-1.10028e+10
-1.11466e+10
-1.13061e+10
-1.14519e+10
-1.15447e+10
-1.15387e+10
-1.13884e+10
-1.1056e+10
-1.0518e+10
-9.82546e+09
-9.34106e+09
-1.00526e+10
-1.28333e+10
-1.50626e+10
-7.93472e+09
-1.30996e+10
-1.32367e+10
-1.33539e+10
-1.33615e+10
-1.33403e+10
-1.33547e+10
-1.33857e+10
-1.34186e+10
-1.34511e+10
-1.34842e+10
-1.35182e+10
-1.35518e+10
-1.35792e+10
-1.35921e+10
-1.35861e+10
-1.35674e+10
-1.35614e+10
-1.35961e+10
-1.36646e+10
-1.37655e+10
-1.3923e+10
-1.42138e+10
-1.463e+10
-1.40308e+10
-1.25917e+10
-1.11785e+10
-1.10301e+10
-1.1064e+10
-1.11065e+10
-1.1113e+10
-1.10891e+10
-1.10432e+10
-1.0984e+10
-1.09201e+10
-1.08624e+10
-1.08217e+10
-1.08083e+10
-1.08311e+10
-1.08963e+10
-1.10036e+10
-1.11445e+10
-1.13e+10
-1.14403e+10
-1.15249e+10
-1.15059e+10
-1.13356e+10
-1.09716e+10
-1.03841e+10
-9.6171e+09
-9.03293e+09
-9.64753e+09
-1.24839e+10
-1.50239e+10
-7.75835e+09
-1.3224e+10
-1.32628e+10
-1.33416e+10
-1.33395e+10
-1.33354e+10
-1.33445e+10
-1.33622e+10
-1.33854e+10
-1.3414e+10
-1.34489e+10
-1.34907e+10
-1.35376e+10
-1.35833e+10
-1.36152e+10
-1.36246e+10
-1.36231e+10
-1.36384e+10
-1.36951e+10
-1.3787e+10
-1.39029e+10
-1.40879e+10
-1.44908e+10
-1.4948e+10
-1.4786e+10
-1.38802e+10
-9.74612e+09
-1.03205e+10
-1.07432e+10
-1.09408e+10
-1.10122e+10
-1.10154e+10
-1.09787e+10
-1.09207e+10
-1.08556e+10
-1.07962e+10
-1.07547e+10
-1.07427e+10
-1.07702e+10
-1.08437e+10
-1.0963e+10
-1.11197e+10
-1.12947e+10
-1.14575e+10
-1.15673e+10
-1.15768e+10
-1.14394e+10
-1.11146e+10
-1.05747e+10
-9.85414e+09
-9.26729e+09
-9.76005e+09
-1.25179e+10
-1.5716e+10
-9.89494e+09
-1.32623e+10
-1.3314e+10
-1.33593e+10
-1.33465e+10
-1.33397e+10
-1.33507e+10
-1.3367e+10
-1.33882e+10
-1.34142e+10
-1.34458e+10
-1.34832e+10
-1.35251e+10
-1.3565e+10
-1.35921e+10
-1.35992e+10
-1.35933e+10
-1.36052e+10
-1.3668e+10
-1.37655e+10
-1.38922e+10
-1.40766e+10
-1.44097e+10
-1.48545e+10
-1.5084e+10
-1.43112e+10
-9.67013e+09
-1.03307e+10
-1.07616e+10
-1.09608e+10
-1.1033e+10
-1.10382e+10
-1.10034e+10
-1.0947e+10
-1.08835e+10
-1.08251e+10
-1.07835e+10
-1.07697e+10
-1.07936e+10
-1.08612e+10
-1.09721e+10
-1.11179e+10
-1.12801e+10
-1.14293e+10
-1.1525e+10
-1.152e+10
-1.13671e+10
-1.10256e+10
-1.04667e+10
-9.73238e+09
-9.19887e+09
-9.97014e+09
-1.30574e+10
-1.53653e+10
-8.02354e+09
-1.33323e+10
-1.33482e+10
-1.33537e+10
-1.33469e+10
-1.33436e+10
-1.33448e+10
-1.33509e+10
-1.3366e+10
-1.33897e+10
-1.34219e+10
-1.34624e+10
-1.35099e+10
-1.35575e+10
-1.3591e+10
-1.35998e+10
-1.35958e+10
-1.36079e+10
-1.36712e+10
-1.37708e+10
-1.38864e+10
-1.40947e+10
-1.45114e+10
-1.50369e+10
-1.43634e+10
-8.27735e+09
-1.02266e+10
-1.06722e+10
-1.08871e+10
-1.09699e+10
-1.09786e+10
-1.09439e+10
-1.08864e+10
-1.08221e+10
-1.07645e+10
-1.07263e+10
-1.07194e+10
-1.07537e+10
-1.08355e+10
-1.09645e+10
-1.11323e+10
-1.13191e+10
-1.14925e+10
-1.16095e+10
-1.16217e+10
-1.14807e+10
-1.11419e+10
-1.05723e+10
-9.79137e+09
-9.06616e+09
-9.31314e+09
-1.20024e+10
-1.60009e+10
-1.12321e+10
-1.33837e+10
-1.33572e+10
-1.33616e+10
-1.33498e+10
-1.33472e+10
-1.33501e+10
-1.33564e+10
-1.33696e+10
-1.33906e+10
-1.34207e+10
-1.34597e+10
-1.35056e+10
-1.35514e+10
-1.35854e+10
-1.35981e+10
-1.35982e+10
-1.36114e+10
-1.36639e+10
-1.37553e+10
-1.38706e+10
-1.40562e+10
-1.44691e+10
-1.50463e+10
-1.49001e+10
-8.27657e+09
-1.02685e+10
-1.0714e+10
-1.09275e+10
-1.10108e+10
-1.10213e+10
-1.0988e+10
-1.09312e+10
-1.08658e+10
-1.08047e+10
-1.07605e+10
-1.07444e+10
-1.0766e+10
-1.08312e+10
-1.09401e+10
-1.10845e+10
-1.12459e+10
-1.13937e+10
-1.14875e+10
-1.14817e+10
-1.13306e+10
-1.09942e+10
-1.04449e+10
-9.71818e+09
-9.16074e+09
-9.83131e+09
-1.28611e+10
-1.57173e+10
-8.97755e+09
-1.33573e+10
-1.33388e+10
-1.33409e+10
-1.33385e+10
-1.33365e+10
-1.33344e+10
-1.33356e+10
-1.3344e+10
-1.33624e+10
-1.33916e+10
-1.3431e+10
-1.34783e+10
-1.35271e+10
-1.35664e+10
-1.35857e+10
-1.35878e+10
-1.35951e+10
-1.3632e+10
-1.36953e+10
-1.37799e+10
-1.39393e+10
-1.42853e+10
-1.46612e+10
-1.45296e+10
-1.20124e+10
-1.0834e+10
-1.07813e+10
-1.08889e+10
-1.09765e+10
-1.10068e+10
-1.09899e+10
-1.0941e+10
-1.08748e+10
-1.08047e+10
-1.07429e+10
-1.07016e+10
-1.06923e+10
-1.07243e+10
-1.08037e+10
-1.0931e+10
-1.1098e+10
-1.12851e+10
-1.14593e+10
-1.15787e+10
-1.15986e+10
-1.14746e+10
-1.11657e+10
-1.06432e+10
-9.93241e+09
-9.32558e+09
-9.78787e+09
-1.2551e+10
-1.54846e+10
-8.84447e+09
-1.33737e+10
-1.33366e+10
-1.33319e+10
-1.33254e+10
-1.33211e+10
-1.33176e+10
-1.33174e+10
-1.33235e+10
-1.3338e+10
-1.3363e+10
-1.33986e+10
-1.34428e+10
-1.34899e+10
-1.35303e+10
-1.35553e+10
-1.35677e+10
-1.35819e+10
-1.36149e+10
-1.36673e+10
-1.37365e+10
-1.38866e+10
-1.42262e+10
-1.45172e+10
-1.43652e+10
-1.23126e+10
-1.08952e+10
-1.08271e+10
-1.09281e+10
-1.10134e+10
-1.1045e+10
-1.10313e+10
-1.09847e+10
-1.09194e+10
-1.08483e+10
-1.07834e+10
-1.07363e+10
-1.07178e+10
-1.0737e+10
-1.07996e+10
-1.09061e+10
-1.10486e+10
-1.12077e+10
-1.13521e+10
-1.14419e+10
-1.14348e+10
-1.12897e+10
-1.09719e+10
-1.04596e+10
-9.79099e+09
-9.29494e+09
-9.97131e+09
-1.28291e+10
-1.52096e+10
-7.84212e+09
-1.33376e+10
-1.3313e+10
-1.33091e+10
-1.33029e+10
-1.32956e+10
-1.3288e+10
-1.32826e+10
-1.32814e+10
-1.32878e+10
-1.33037e+10
-1.33288e+10
-1.33603e+10
-1.3393e+10
-1.34191e+10
-1.34326e+10
-1.3433e+10
-1.3425e+10
-1.34136e+10
-1.34002e+10
-1.33989e+10
-1.34557e+10
-1.35875e+10
-1.35574e+10
-1.29057e+10
-1.20225e+10
-1.15037e+10
-1.12838e+10
-1.11845e+10
-1.11367e+10
-1.10889e+10
-1.10275e+10
-1.09516e+10
-1.08673e+10
-1.07835e+10
-1.07103e+10
-1.06579e+10
-1.06368e+10
-1.06558e+10
-1.0721e+10
-1.08335e+10
-1.09858e+10
-1.11583e+10
-1.13194e+10
-1.14296e+10
-1.14485e+10
-1.13386e+10
-1.10668e+10
-1.0613e+10
-1.00132e+10
-9.56314e+09
-1.01557e+10
-1.27673e+10
-1.52492e+10
-8.32753e+09
-1.33403e+10
-1.33176e+10
-1.33093e+10
-1.33003e+10
-1.32902e+10
-1.328e+10
-1.32726e+10
-1.32699e+10
-1.32741e+10
-1.32874e+10
-1.33099e+10
-1.33399e+10
-1.33729e+10
-1.34019e+10
-1.34203e+10
-1.34261e+10
-1.34229e+10
-1.34152e+10
-1.34058e+10
-1.34088e+10
-1.34718e+10
-1.36067e+10
-1.35652e+10
-1.2934e+10
-1.2021e+10
-1.14936e+10
-1.12727e+10
-1.11755e+10
-1.11314e+10
-1.10882e+10
-1.10318e+10
-1.09597e+10
-1.08782e+10
-1.07962e+10
-1.07238e+10
-1.06711e+10
-1.06483e+10
-1.0664e+10
-1.07244e+10
-1.08302e+10
-1.09731e+10
-1.11335e+10
-1.12796e+10
-1.13719e+10
-1.13703e+10
-1.12376e+10
-1.09427e+10
-1.04664e+10
-9.84187e+09
-9.3568e+09
-9.90767e+09
-1.25417e+10
-1.5065e+10
-7.87883e+09
-1.33231e+10
-1.33049e+10
-1.32968e+10
-1.32869e+10
-1.3277e+10
-1.32663e+10
-1.32568e+10
-1.32507e+10
-1.32504e+10
-1.32578e+10
-1.3273e+10
-1.32936e+10
-1.33153e+10
-1.33338e+10
-1.3345e+10
-1.3346e+10
-1.33352e+10
-1.33109e+10
-1.32745e+10
-1.32394e+10
-1.32249e+10
-1.31992e+10
-1.30202e+10
-1.25842e+10
-1.20867e+10
-1.17428e+10
-1.15268e+10
-1.13786e+10
-1.12695e+10
-1.11741e+10
-1.10796e+10
-1.09816e+10
-1.08825e+10
-1.0788e+10
-1.07061e+10
-1.06456e+10
-1.0616e+10
-1.06256e+10
-1.06808e+10
-1.07823e+10
-1.09225e+10
-1.10817e+10
-1.12276e+10
-1.13204e+10
-1.13204e+10
-1.11933e+10
-1.09101e+10
-1.04532e+10
-9.85727e+09
-9.40642e+09
-9.96947e+09
-1.24939e+10
-1.48204e+10
-7.90847e+09
-1.33301e+10
-1.33105e+10
-1.3302e+10
-1.32906e+10
-1.32788e+10
-1.3266e+10
-1.32548e+10
-1.32471e+10
-1.32453e+10
-1.32509e+10
-1.32646e+10
-1.32845e+10
-1.33071e+10
-1.3328e+10
-1.33424e+10
-1.33465e+10
-1.33386e+10
-1.33187e+10
-1.32891e+10
-1.3263e+10
-1.32575e+10
-1.32351e+10
-1.30494e+10
-1.25942e+10
-1.20674e+10
-1.17094e+10
-1.14919e+10
-1.13462e+10
-1.1239e+10
-1.11453e+10
-1.10524e+10
-1.09558e+10
-1.08581e+10
-1.07656e+10
-1.06865e+10
-1.06299e+10
-1.06052e+10
-1.06213e+10
-1.06843e+10
-1.07947e+10
-1.09436e+10
-1.11103e+10
-1.12613e+10
-1.13546e+10
-1.13477e+10
-1.12026e+10
-1.08864e+10
-1.03754e+10
-9.68842e+09
-9.06474e+09
-9.33069e+09
-1.17351e+10
-1.47595e+10
-8.54069e+09
-1.33033e+10
-1.32844e+10
-1.32757e+10
-1.32638e+10
-1.32508e+10
-1.32362e+10
-1.32221e+10
-1.32105e+10
-1.32036e+10
-1.32035e+10
-1.32105e+10
-1.32222e+10
-1.32349e+10
-1.32459e+10
-1.32528e+10
-1.32515e+10
-1.32387e+10
-1.32119e+10
-1.31724e+10
-1.31275e+10
-1.30776e+10
-1.29878e+10
-1.27909e+10
-1.24767e+10
-1.21405e+10
-1.1866e+10
-1.16575e+10
-1.14946e+10
-1.13598e+10
-1.12389e+10
-1.11227e+10
-1.10078e+10
-1.08961e+10
-1.07923e+10
-1.07033e+10
-1.06371e+10
-1.06029e+10
-1.06093e+10
-1.06629e+10
-1.07651e+10
-1.09077e+10
-1.10702e+10
-1.1219e+10
-1.13121e+10
-1.13079e+10
-1.1172e+10
-1.08754e+10
-1.03962e+10
-9.76185e+09
-9.24903e+09
-9.72777e+09
-1.2233e+10
-1.48189e+10
-7.94223e+09
-1.33109e+10
-1.32927e+10
-1.32848e+10
-1.32728e+10
-1.32593e+10
-1.32438e+10
-1.32291e+10
-1.32172e+10
-1.32101e+10
-1.32094e+10
-1.32157e+10
-1.32272e+10
-1.32406e+10
-1.32529e+10
-1.32606e+10
-1.32596e+10
-1.32467e+10
-1.32211e+10
-1.31849e+10
-1.31444e+10
-1.30978e+10
-1.3007e+10
-1.28015e+10
-1.24716e+10
-1.21156e+10
-1.18285e+10
-1.16142e+10
-1.14482e+10
-1.13097e+10
-1.11853e+10
-1.10662e+10
-1.09492e+10
-1.08367e+10
-1.07338e+10
-1.06477e+10
-1.05871e+10
-1.05615e+10
-1.05801e+10
-1.06494e+10
-1.077e+10
-1.0933e+10
-1.11165e+10
-1.12848e+10
-1.13931e+10
-1.13948e+10
-1.12487e+10
-1.09176e+10
-1.03675e+10
-9.60103e+09
-8.83848e+09
-8.88025e+09
-1.11503e+10
-1.49314e+10
-1.15757e+10
-1.32826e+10
-1.32668e+10
-1.32588e+10
-1.32468e+10
-1.32333e+10
-1.32178e+10
-1.3202e+10
-1.31878e+10
-1.31775e+10
-1.3173e+10
-1.3175e+10
-1.31811e+10
-1.31877e+10
-1.31925e+10
-1.31938e+10
-1.31886e+10
-1.31729e+10
-1.31435e+10
-1.31011e+10
-1.30472e+10
-1.29743e+10
-1.28575e+10
-1.26695e+10
-1.24205e+10
-1.21594e+10
-1.19261e+10
-1.17295e+10
-1.15628e+10
-1.14161e+10
-1.12807e+10
-1.11503e+10
-1.10227e+10
-1.09e+10
-1.0787e+10
-1.06904e+10
-1.06184e+10
-1.05803e+10
-1.05853e+10
-1.06406e+10
-1.0748e+10
-1.08993e+10
-1.1073e+10
-1.12342e+10
-1.134e+10
-1.13489e+10
-1.12267e+10
-1.0945e+10
-1.04791e+10
-9.85324e+09
-9.36973e+09
-9.95468e+09
-1.26143e+10
-1.51672e+10
-8.29982e+09
-1.32895e+10
-1.32726e+10
-1.32663e+10
-1.32547e+10
-1.32413e+10
-1.32253e+10
-1.32092e+10
-1.3195e+10
-1.31848e+10
-1.31802e+10
-1.31819e+10
-1.31882e+10
-1.31959e+10
-1.32021e+10
-1.3204e+10
-1.31983e+10
-1.31817e+10
-1.31521e+10
-1.31101e+10
-1.30569e+10
-1.29838e+10
-1.2863e+10
-1.26658e+10
-1.2403e+10
-1.21286e+10
-1.18862e+10
-1.16854e+10
-1.15164e+10
-1.13667e+10
-1.12282e+10
-1.10948e+10
-1.09645e+10
-1.08401e+10
-1.07266e+10
-1.0631e+10
-1.05623e+10
-1.053e+10
-1.05437e+10
-1.06104e+10
-1.07312e+10
-1.08975e+10
-1.10867e+10
-1.12621e+10
-1.13777e+10
-1.13869e+10
-1.12498e+10
-1.09291e+10
-1.03903e+10
-9.64341e+09
-8.982e+09
-9.41903e+09
-1.22422e+10