/*--------------------------------*- C++ -*----------------------------------*\
| =========                 |                                                 |
| \\      /  F ield         | OpenFOAM: The Open Source CFD Toolbox           |
|  \\    /   O peration     | Version:  4.1                                   |
|   \\  /    A nd           | Web:      www.OpenFOAM.org                      |
|    \\/     M anipulation  |                                                 |
\*---------------------------------------------------------------------------*/
FoamFile
{
    version     2.0;
    format      ascii;
    class       surfaceScalarField;
    location    "29";
    object      phi;
}
// * * * * * * * * * * * * * * * * * * * * * * * * * * * * * * * * * * * * * //

dimensions      [0 3 -1 0 0 0 0];

internalField   nonuniform List<scalar> 
11516
(
-3.7988e+10
-1.23955e+09
-8.3205e+09
-3.36216e+10
-6.60581e+08
-3.63187e+09
-3.17879e+10
-1.73849e+08
-1.5173e+09
-2.85545e+10
-7.50117e+08
-2.29269e+09
-2.75083e+10
2.15939e+08
-1.05173e+09
-2.67768e+10
-6.79126e+07
-4.53726e+08
-2.58516e+10
-1.67013e+08
-5.72012e+08
-2.54593e+10
-1.94204e+07
-2.16411e+08
-2.51875e+10
-1.49774e+06
-1.47471e+08
-2.50522e+10
2.86125e+07
-7.20118e+07
-2.49803e+10
3.88272e+07
-4.29443e+07
-2.4906e+10
3.20273e+07
-5.45495e+07
-2.4804e+10
1.66065e+07
-7.53487e+07
-2.46678e+10
4.45798e+06
-1.00001e+08
-2.45081e+10
2.79487e+06
-1.23407e+08
-2.43375e+10
3.92326e+06
-1.34223e+08
-2.41603e+10
3.19656e+06
-1.40257e+08
-2.39758e+10
932870
-1.42516e+08
-2.37702e+10
-2.99517e+06
-1.609e+08
-2.3544e+10
-4.38535e+06
-1.80217e+08
-2.32931e+10
-8.22354e+06
-2.06746e+08
-2.30188e+10
-1.24401e+07
-2.29339e+08
-2.27241e+10
-1.78837e+07
-2.52098e+08
-2.24149e+10
-2.38569e+07
-2.68568e+08
-2.20951e+10
-3.05324e+07
-2.81435e+08
-2.17728e+10
-3.76842e+07
-2.85931e+08
-2.14534e+10
-4.53405e+07
-2.84879e+08
-2.11462e+10
-5.3398e+07
-2.74325e+08
-2.08577e+10
-6.19493e+07
-2.57401e+08
-2.0595e+10
-7.1098e+07
-2.33039e+08
-2.03644e+10
-8.10174e+07
-2.02219e+08
-2.01718e+10
-9.1728e+07
-1.64896e+08
-2.00258e+10
-1.03202e+08
-1.17438e+08
-1.99266e+10
-1.14673e+08
-6.94922e+07
-1.98691e+10
-1.25926e+08
-2.54403e+07
-1.9854e+10
-1.38051e+08
2.28124e+07
-1.98785e+10
-1.51241e+08
7.28285e+07
-1.99407e+10
-1.65053e+08
1.26869e+08
-2.00374e+10
-1.78767e+08
1.83622e+08
-2.01682e+10
-1.91815e+08
2.45215e+08
-2.03364e+10
-2.03517e+08
3.13705e+08
-2.05493e+10
-2.13962e+08
3.91128e+08
-2.08187e+10
-2.23009e+08
4.80633e+08
-2.11648e+10
-2.30792e+08
5.85954e+08
-2.16206e+10
-2.38196e+08
7.15127e+08
-2.22403e+10
-2.52026e+08
8.7826e+08
-2.3093e+10
-2.8548e+08
1.08092e+09
-2.42465e+10
-3.57043e+08
1.31791e+09
-2.57317e+10
-5.17823e+08
1.60689e+09
-2.75782e+10
-7.47313e+08
1.93136e+09
-3.06634e+10
-1.02376e+09
3.21249e+09
-3.50696e+10
-1.26827e+09
4.77396e+09
-4.29705e+10
-2.22274e+09
9.34396e+09
-9.33947e+08
6.95649e+09
-4.1538e+10
-6.0444e+09
-3.91541e+10
-2.96942e+09
-3.7145e+10
-2.08877e+09
-3.62079e+10
-1.58977e+09
-3.43749e+10
-1.51722e+09
-3.35038e+10
-8.49433e+08
-3.28302e+10
-7.66353e+08
-3.23173e+10
-4.7184e+08
-3.18684e+10
-4.02194e+08
-3.1501e+10
-3.00356e+08
-3.11847e+10
-2.46344e+08
-3.08994e+10
-2.26546e+08
-3.06274e+10
-2.30514e+08
-3.03565e+10
-2.42611e+08
-3.00795e+10
-2.50496e+08
-2.97984e+10
-2.54093e+08
-2.95178e+10
-2.53464e+08
-2.92376e+10
-2.5479e+08
-2.89487e+10
-2.67019e+08
-2.86486e+10
-2.81023e+08
-2.8334e+10
-3.00538e+08
-2.80095e+10
-3.17731e+08
-2.76757e+10
-3.3601e+08
-2.73393e+10
-3.49284e+08
-2.70029e+10
-3.60676e+08
-2.66741e+10
-3.65139e+08
-2.6357e+10
-3.66118e+08
-2.606e+10
-3.59385e+08
-2.57878e+10
-3.48585e+08
-2.55462e+10
-3.33006e+08
-2.53394e+10
-3.13826e+08
-2.51706e+10
-2.92515e+08
-2.50456e+10
-2.65873e+08
-2.49658e+10
-2.3722e+08
-2.4932e+10
-2.06645e+08
-2.49457e+10
-1.73946e+08
-2.50062e+10
-1.40751e+08
-2.51155e+10
-1.02965e+08
-2.52734e+10
-6.18245e+07
-2.54826e+10
-1.40803e+07
-2.57481e+10
4.2716e+07
-2.60782e+10
1.10765e+08
-2.64862e+10
1.93719e+08
-2.69925e+10
2.96419e+08
-2.76317e+10
4.25978e+08
-2.84634e+10
5.89668e+08
-2.95849e+10
7.94391e+08
-3.11127e+10
1.03677e+09
-3.32681e+10
1.35208e+09
-3.62831e+10
1.80772e+09
-4.10457e+10
3.15957e+09
-4.79007e+10
4.9143e+09
-5.98711e+10
9.35074e+09
5.26919e+09
-3.94477e+10
-2.25766e+08
-7.86925e+09
-3.92067e+10
-3.61682e+08
-3.38099e+09
-3.86808e+10
-3.20082e+08
-1.64012e+09
-3.85151e+10
4.21069e+07
-2.4381e+09
-3.74942e+10
-1.16322e+08
-1.90629e+09
-3.70347e+10
1.92015e+07
-8.97574e+08
-3.67849e+10
6.47355e+07
-8.63648e+08
-3.63757e+10
1.15741e+08
-7.19986e+08
-3.60719e+10
1.20635e+08
-5.47953e+08
-3.5876e+10
1.6035e+08
-3.99944e+08
-3.5731e+10
1.64252e+08
-3.20651e+08
-3.56466e+10
1.69962e+08
-2.75709e+08
-3.56035e+10
1.70872e+08
-2.54177e+08
-3.55961e+10
1.74607e+08
-2.47529e+08
-3.56148e+10
1.80458e+08
-2.4969e+08
-3.56476e+10
1.8407e+08
-2.51831e+08
-3.56776e+10
1.89187e+08
-2.63187e+08
-3.56985e+10
1.93666e+08
-2.78466e+08
-3.57151e+10
1.9617e+08
-2.99854e+08
-3.57331e+10
2.01598e+08
-3.24318e+08
-3.57515e+10
2.07127e+08
-3.55496e+08
-3.57698e+10
2.12712e+08
-3.86844e+08
-3.57899e+10
2.18436e+08
-4.17943e+08
-3.58103e+10
2.24498e+08
-4.45555e+08
-3.58345e+10
2.3095e+08
-4.66681e+08
-3.58593e+10
2.37762e+08
-4.82798e+08
-3.58869e+10
2.44816e+08
-4.90964e+08
-3.59146e+10
2.51905e+08
-4.9267e+08
-3.59433e+10
2.58876e+08
-4.86709e+08
-3.59702e+10
2.64986e+08
-4.75572e+08
-3.59935e+10
2.69786e+08
-4.58138e+08
-3.60101e+10
2.73125e+08
-4.35564e+08
-3.60159e+10
2.75103e+08
-4.05228e+08
-3.60065e+10
2.77614e+08
-3.78526e+08
-3.59727e+10
2.8157e+08
-3.65007e+08
-3.59164e+10
2.83949e+08
-3.42147e+08
-3.58343e+10
2.85389e+08
-3.17272e+08
-3.57183e+10
2.87056e+08
-2.92969e+08
-3.55627e+10
2.88456e+08
-2.67654e+08
-3.53628e+10
2.90368e+08
-2.38901e+08
-3.51151e+10
2.93068e+08
-2.04522e+08
-3.48177e+10
2.96004e+08
-1.61447e+08
-3.44653e+10
2.98531e+08
-1.10446e+08
-3.40545e+10
2.99764e+08
-4.71579e+07
-3.35747e+10
2.97082e+08
2.87685e+07
-3.30059e+10
2.86871e+08
1.1296e+08
-3.23216e+10
2.66138e+08
1.98917e+08
-3.15011e+10
2.29889e+08
2.8275e+08
-3.04872e+10
1.7254e+08
3.52531e+08
-2.94036e+10
8.9768e+07
6.07629e+08
-2.73384e+10
-1.79379e+08
1.09755e+09
-2.37992e+10
-3.81926e+08
1.23488e+09
-1.28777e+10
-1.36694e+09
-4.07261e+08
-1.02977e+09
-4.42688e+08
-4.21826e+10
-6.65823e+09
-4.18868e+10
-3.54605e+09
-4.17922e+10
-2.44708e+09
-4.15449e+10
-1.75313e+09
-4.1253e+10
-1.89775e+09
-4.09635e+10
-1.10277e+09
-4.08312e+10
-8.21312e+08
-4.05444e+10
-6.30065e+08
-4.03848e+10
-4.25996e+08
-4.02816e+10
-2.25674e+08
-4.02307e+10
-1.13587e+08
-4.02124e+10
-5.41907e+07
-4.02301e+10
-2.07919e+07
-4.02771e+10
664795
-4.0337e+10
1.09884e+07
-4.04027e+10
1.73913e+07
-4.04608e+10
1.64363e+07
-4.0507e+10
9.45641e+06
-4.0552e+10
-732420
-4.05893e+10
-1.61127e+07
-4.06203e+10
-3.69823e+07
-4.06425e+10
-5.90924e+07
-4.06578e+10
-8.11722e+07
-4.06636e+10
-1.01202e+08
-4.06635e+10
-1.15384e+08
-4.06533e+10
-1.26124e+08
-4.06358e+10
-1.30411e+08
-4.06077e+10
-1.30157e+08
-4.05708e+10
-1.24142e+08
-4.05243e+10
-1.15151e+08
-4.04698e+10
-1.01986e+08
-4.04061e+10
-8.92026e+07
-4.03285e+10
-7.6863e+07
-4.02339e+10
-6.46948e+07
-4.01165e+10
-5.40726e+07
-3.99722e+10
-4.57683e+07
-3.97961e+10
-4.10758e+07
-3.9581e+10
-3.66861e+07
-3.9319e+10
-3.4736e+07
-3.9e+10
-3.35148e+07
-3.86123e+10
-3.23432e+07
-3.81471e+10
-2.714e+07
-3.75922e+10
-1.93324e+07
-3.69357e+10
-5.63003e+06
-3.61647e+10
1.41732e+07
-3.52628e+10
3.53492e+07
-3.42077e+10
4.87067e+07
-3.29913e+10
5.39185e+07
-3.16175e+10
1.01344e+08
-3.02243e+10
3.85775e+08
-2.83942e+10
9.27919e+08
-2.53861e+10
1.36367e+09
-1.53284e+10
-2.10425e+09
-8.63415e+09
-3.46274e+10
8.30917e+07
-7.32805e+09
-3.38136e+10
4.41561e+08
-4.52687e+09
-3.20491e+10
2.73296e+07
-3.3681e+09
-3.25585e+10
3.6697e+08
-2.27112e+09
-3.19267e+10
-1.82152e+07
-2.5197e+09
-3.14554e+10
2.23371e+08
-1.60631e+09
-3.14825e+10
2.09011e+08
-1.05845e+09
-3.1449e+10
1.63741e+08
-9.22797e+08
-3.12404e+10
9.23492e+07
-8.44125e+08
-3.09817e+10
8.83273e+07
-7.32792e+08
-3.07007e+10
7.27903e+07
-6.52557e+08
-3.04544e+10
7.02526e+07
-5.64248e+08
-3.0239e+10
6.48592e+07
-5.01762e+08
-3.00499e+10
6.27562e+07
-4.63102e+08
-2.98825e+10
6.93612e+07
-4.46724e+08
-2.97289e+10
6.83615e+07
-4.32492e+08
-2.95807e+10
6.90485e+07
-4.33412e+08
-2.94173e+10
6.38398e+07
-4.56067e+08
-2.92347e+10
5.93763e+07
-4.85654e+08
-2.90349e+10
5.60791e+07
-5.23064e+08
-2.88191e+10
5.38668e+07
-5.63e+08
-2.859e+10
5.06862e+07
-6.08241e+08
-2.83495e+10
4.82347e+07
-6.49946e+08
-2.81033e+10
4.58536e+07
-6.86955e+08
-2.78531e+10
4.4636e+07
-7.15001e+08
-2.7605e+10
4.4498e+07
-7.32999e+08
-2.73629e+10
4.55273e+07
-7.3973e+08
-2.71312e+10
4.7522e+07
-7.36843e+08
-2.69125e+10
5.04499e+07
-7.24718e+08
-2.67108e+10
5.45311e+07
-7.04961e+08
-2.65251e+10
6.05124e+07
-6.81612e+08
-2.63539e+10
6.83149e+07
-6.56885e+08
-2.61907e+10
7.61741e+07
-6.30352e+08
-2.60409e+10
8.08473e+07
-5.98514e+08
-2.59139e+10
8.2043e+07
-5.65387e+08
-2.57993e+10
8.30135e+07
-5.30296e+08
-2.56916e+10
8.56446e+07
-4.96425e+08
-2.55871e+10
8.64708e+07
-4.59912e+08
-2.54821e+10
8.55548e+07
-4.18134e+08
-2.53667e+10
8.1703e+07
-3.73313e+08
-2.52301e+10
7.33455e+07
-3.235e+08
-2.5056e+10
5.95022e+07
-2.70376e+08
-2.48323e+10
3.93843e+07
-2.11361e+08
-2.45414e+10
1.14028e+07
-1.48494e+08
-2.41664e+10
-2.85586e+07
-8.35702e+07
-2.37061e+10
-8.91545e+07
-9.61001e+06
-2.31858e+10
-1.83505e+08
8.84741e+07
-2.26348e+10
-3.20411e+08
2.10162e+08
-2.20768e+10
-4.77038e+08
3.4194e+08
-2.15473e+10
-5.39459e+08
5.76242e+08
-2.14578e+10
-4.54835e+08
1.29598e+09
-2.29184e+10
-1.59658e+08
2.94737e+09
-2.62484e+10
-5.4703e+09
8.56198e+09
-8.12142e+09
4.71013e+09
-3.75818e+10
-6.29138e+09
-3.67613e+10
-3.86123e+09
-3.62573e+10
-2.88628e+09
-3.57306e+10
-1.89775e+09
-3.58463e+10
-1.80001e+09
-3.55936e+10
-1.13673e+09
-3.55933e+10
-6.15981e+08
-3.55484e+10
-5.10679e+08
-3.5507e+10
-3.69644e+08
-3.54087e+10
-2.256e+08
-3.53229e+10
-1.12319e+08
-3.52648e+10
-2.42618e+07
-3.52328e+10
3.30664e+07
-3.52134e+10
6.74924e+07
-3.51951e+10
8.7635e+07
-3.51883e+10
1.07106e+08
-3.51769e+10
1.04379e+08
-3.51512e+10
8.09372e+07
-3.51116e+10
5.45247e+07
-3.50547e+10
2.14541e+07
-3.49843e+10
-1.47353e+07
-3.4899e+10
-5.45461e+07
-3.48034e+10
-9.15877e+07
-3.47e+10
-1.23872e+08
-3.45895e+10
-1.48475e+08
-3.44758e+10
-1.64112e+08
-3.43611e+10
-1.69827e+08
-3.4248e+10
-1.67567e+08
-3.41374e+10
-1.57961e+08
-3.403e+10
-1.43481e+08
-3.39199e+10
-1.29172e+08
-3.38059e+10
-1.14421e+08
-3.36878e+10
-1.00313e+08
-3.35684e+10
-8.6353e+07
-3.34522e+10
-7.16091e+07
-3.33414e+10
-5.54836e+07
-3.32369e+10
-3.79807e+07
-3.31404e+10
-1.76349e+07
-3.30569e+10
7.41557e+06
-3.29917e+10
3.76112e+07
-3.29532e+10
7.56594e+07
-3.29456e+10
1.19568e+08
-3.29795e+10
1.72802e+08
-3.30615e+10
2.3117e+08
-3.32022e+10
2.90407e+08
-3.34383e+10
3.54427e+08
-3.38572e+10
4.41683e+08
-3.45849e+10
5.83531e+08
-3.57303e+10
8.33692e+08
-3.72339e+10
1.35163e+09
-3.9326e+10
2.6511e+09
-4.28035e+10
4.85189e+09
-5.96899e+10
9.5905e+09
6.90511e+09
-3.44143e+10
-6.43427e+08
-6.31002e+09
-3.42562e+10
-2.15137e+08
-4.39491e+09
-3.34384e+10
-1.36847e+08
-4.0138e+09
-3.29568e+10
-1.66322e+08
-2.57996e+09
-3.29786e+10
-9.11893e+07
-2.4175e+09
-3.26947e+10
6.79796e+07
-1.97075e+09
-3.24084e+10
1.46005e+08
-1.4995e+09
-3.22182e+10
7.82237e+07
-1.1941e+09
-3.20919e+10
1.91515e+06
-9.69595e+08
-3.19905e+10
-2.43043e+07
-8.00475e+08
-3.18856e+10
-4.67393e+07
-6.94054e+08
-3.1793e+10
-4.82872e+07
-5.84735e+08
-3.17024e+10
-4.75005e+07
-5.14457e+08
-3.16109e+10
-4.55376e+07
-4.71252e+08
-3.1526e+10
-4.52233e+07
-4.44153e+08
-3.14467e+10
-4.67534e+07
-4.15865e+08
-3.13693e+10
-4.91536e+07
-4.09529e+08
-3.12828e+10
-5.5032e+07
-4.27954e+08
-3.1188e+10
-6.17637e+07
-4.56314e+08
-3.10754e+10
-6.76786e+07
-4.96579e+08
-3.09476e+10
-7.48089e+07
-5.42555e+08
-3.08039e+10
-8.25391e+07
-5.92106e+08
-3.06488e+10
-9.18574e+07
-6.3687e+08
-3.04868e+10
-1.01859e+08
-6.72483e+08
-3.03213e+10
-1.12158e+08
-6.94622e+08
-3.01576e+10
-1.22419e+08
-7.00578e+08
-3e+10
-1.32617e+08
-6.91082e+08
-2.98526e+10
-1.42932e+08
-6.67719e+08
-2.97186e+10
-1.53599e+08
-6.32419e+08
-2.95982e+10
-1.63984e+08
-5.90079e+08
-2.94968e+10
-1.72036e+08
-5.41887e+08
-2.94216e+10
-1.75786e+08
-4.89551e+08
-2.93717e+10
-1.80345e+08
-4.35911e+08
-2.93353e+10
-1.87084e+08
-3.8586e+08
-2.93129e+10
-1.89353e+08
-3.36531e+08
-2.9293e+10
-1.9967e+08
-2.85605e+08
-2.92782e+10
-2.07622e+08
-2.31316e+08
-2.92636e+10
-2.12779e+08
-1.76636e+08
-2.92384e+10
-2.19489e+08
-1.19493e+08
-2.91961e+10
-2.25605e+08
-5.99147e+07
-2.91281e+10
-2.32041e+08
2.75792e+06
-2.90265e+10
-2.39384e+08
6.7064e+07
-2.88825e+10
-2.47557e+08
1.32691e+08
-2.86951e+10
-2.58919e+08
2.04527e+08
-2.84685e+10
-2.78666e+08
2.83617e+08
-2.82103e+10
-3.11823e+08
3.76584e+08
-2.7922e+10
-3.61893e+08
4.88246e+08
-2.75905e+10
-4.23645e+08
6.02299e+08
-2.72006e+10
-4.5512e+08
6.67681e+08
-2.67357e+10
-3.06709e+08
6.76647e+08
-2.6138e+10
1.86581e+08
8.49371e+08
-2.40782e+10
6.63595e+08
6.23957e+08
-1.19628e+10
-5.74498e+09
2.56095e+09
-4.40498e+09
1.20885e+09
-3.67181e+10
-5.77544e+09
-3.7093e+10
-3.66261e+09
-3.72378e+10
-2.86264e+09
-3.70143e+10
-2.2882e+09
-3.70445e+10
-1.8674e+09
-3.67984e+10
-1.32076e+09
-3.64152e+10
-8.55804e+08
-3.62205e+10
-6.26085e+08
-3.61499e+10
-4.33349e+08
-3.60794e+10
-3.11381e+08
-3.60197e+10
-2.05944e+08
-3.59615e+10
-1.1442e+08
-3.59003e+10
-5.56864e+07
-3.58294e+10
-2.58347e+07
-3.57494e+10
-1.11822e+07
-3.56707e+10
1.06275e+07
-3.55873e+10
4.24184e+06
-3.54977e+10
-2.84734e+07
-3.5396e+10
-6.9823e+07
-3.52772e+10
-1.22864e+08
-3.51402e+10
-1.81156e+08
-3.49881e+10
-2.42595e+08
-3.48251e+10
-3.00211e+08
-3.46562e+10
-3.49061e+08
-3.44855e+10
-3.86114e+08
-3.43192e+10
-4.07524e+08
-3.41614e+10
-4.14565e+08
-3.40164e+10
-4.1007e+08
-3.3887e+10
-3.96056e+08
-3.37742e+10
-3.76267e+08
-3.36813e+10
-3.51439e+08
-3.36054e+10
-3.24884e+08
-3.35484e+10
-2.97852e+08
-3.35122e+10
-2.70621e+08
-3.34911e+10
-2.42361e+08
-3.34917e+10
-2.12145e+08
-3.35091e+10
-1.80148e+08
-3.35388e+10
-1.4361e+08
-3.35801e+10
-1.00524e+08
-3.36289e+10
-5.15622e+07
-3.36812e+10
4.87402e+06
-3.37359e+10
6.83175e+07
-3.37904e+10
1.39991e+08
-3.38538e+10
2.224e+08
-3.39468e+10
3.13388e+08
-3.41003e+10
4.14432e+08
-3.43317e+10
5.23946e+08
-3.46148e+10
6.35094e+08
-3.48e+10
7.42836e+08
-3.44558e+10
8.97032e+08
-3.25122e+10
1.14441e+09
-2.82702e+10
1.66432e+09
-2.86862e+10
4.62937e+09
2.10019e+09
-3.36595e+10
-2.0819e+08
-5.33863e+09
-3.37272e+10
-4.1877e+08
-3.89537e+09
-3.38885e+10
-4.96384e+08
-3.35739e+09
-3.33115e+10
-3.23268e+08
-2.84604e+09
-3.31774e+10
-1.93079e+08
-2.36899e+09
-3.30201e+10
-8.36548e+07
-2.048e+09
-3.28056e+10
-6.08518e+07
-1.64876e+09
-3.25823e+10
-8.33883e+07
-1.32443e+09
-3.23821e+10
-9.37477e+07
-1.06246e+09
-3.21884e+10
-9.17619e+07
-8.86408e+08
-3.20277e+10
-9.31441e+07
-7.43724e+08
-3.18954e+10
-8.64903e+07
-6.10386e+08
-3.17895e+10
-7.12945e+07
-5.2581e+08
-3.16878e+10
-6.21659e+07
-4.83629e+08
-3.15938e+10
-5.47381e+07
-4.52312e+08
-3.14972e+10
-5.26797e+07
-4.23529e+08
-3.13967e+10
-5.24072e+07
-4.1849e+08
-3.12898e+10
-5.39009e+07
-4.36057e+08
-3.11735e+10
-5.61038e+07
-4.68335e+08
-3.10417e+10
-5.81715e+07
-5.14417e+08
-3.08938e+10
-6.13658e+07
-5.7145e+08
-3.07263e+10
-6.38362e+07
-6.31768e+08
-3.05469e+10
-6.73662e+07
-6.87659e+08
-3.03588e+10
-7.0069e+07
-7.28236e+08
-3.01712e+10
-7.28455e+07
-7.48086e+08
-2.99899e+10
-7.5168e+07
-7.44092e+08
-2.98217e+10
-7.79086e+07
-7.17929e+08
-2.96696e+10
-8.14403e+07
-6.74691e+08
-2.95343e+10
-8.61932e+07
-6.18755e+08
-2.94158e+10
-9.23388e+07
-5.55023e+08
-2.93158e+10
-9.86214e+07
-4.84351e+08
-2.92345e+10
-1.03462e+08
-4.10911e+08
-2.91672e+10
-1.09e+08
-3.40517e+08
-2.91145e+10
-1.1899e+08
-2.67443e+08
-2.90797e+10
-1.32662e+08
-1.86654e+08
-2.90509e+10
-1.46742e+08
-1.1263e+08
-2.90257e+10
-1.58652e+08
-3.60751e+07
-2.90039e+10
-1.69757e+08
4.50644e+07
-2.89808e+10
-1.81329e+08
1.30879e+08
-2.89512e+10
-1.9266e+08
2.20146e+08
-2.89067e+10
-2.04296e+08
3.11129e+08
-2.88387e+10
-2.17452e+08
4.02689e+08
-2.87365e+10
-2.30672e+08
4.89177e+08
-2.85995e+10
-2.44161e+08
5.80433e+08
-2.84234e+10
-2.64097e+08
6.72838e+08
-2.81794e+10
-3.00886e+08
7.47453e+08
-2.78152e+10
-3.62686e+08
7.87879e+08
-2.72647e+10
-4.52514e+08
7.66667e+08
-2.65316e+10
-4.91963e+08
6.63116e+08
-2.58775e+10
-2.54812e+08
4.97583e+08
-2.50187e+10
3.80475e+08
-8.45461e+07
-2.29997e+10
1.25392e+09
-2.19507e+09
-1.11044e+10
-4.56596e+09
-4.28718e+09
-5.12239e+09
-1.5283e+09
-3.36704e+10
-5.04721e+09
-3.39845e+10
-3.77736e+09
-3.41599e+10
-3.19747e+09
-3.40331e+10
-2.75029e+09
-3.40453e+10
-2.05537e+09
-3.39295e+10
-1.52068e+09
-3.36871e+10
-1.15396e+09
-3.35138e+10
-8.73621e+08
-3.34191e+10
-6.10724e+08
-3.33634e+10
-4.47153e+08
-3.33258e+10
-3.2477e+08
-3.32836e+10
-2.30421e+08
-3.32284e+10
-1.67965e+08
-3.3163e+10
-1.37231e+08
-3.30944e+10
-1.157e+08
-3.30162e+10
-9.91432e+07
-3.2928e+10
-1.12452e+08
-3.28352e+10
-1.49062e+08
-3.27321e+10
-1.99451e+08
-3.26162e+10
-2.64791e+08
-3.2484e+10
-3.39029e+08
-3.23357e+10
-4.18784e+08
-3.21728e+10
-4.9374e+08
-3.19999e+10
-5.5581e+08
-3.18236e+10
-5.98293e+08
-3.16493e+10
-6.19201e+08
-3.14831e+10
-6.20033e+08
-3.13304e+10
-6.05611e+08
-3.11947e+10
-5.79846e+08
-3.10778e+10
-5.48476e+08
-3.09799e+10
-5.12467e+08
-3.09003e+10
-4.74183e+08
-3.08387e+10
-4.35956e+08
-3.07993e+10
-3.97204e+08
-3.07842e+10
-3.57607e+08
-3.07947e+10
-3.13228e+08
-3.08316e+10
-2.61153e+08
-3.08937e+10
-2.01602e+08
-3.0984e+10
-1.28638e+08
-3.11051e+10
-4.27391e+07
-3.12592e+10
5.67201e+07
-3.1449e+10
1.68004e+08
-3.16737e+10
2.89001e+08
-3.19344e+10
4.20945e+08
-3.22385e+10
5.55579e+08
-3.25988e+10
6.83146e+08
-3.30168e+10
7.775e+08
-3.3458e+10
8.03787e+08
-3.37935e+10
7.48389e+08
-3.35246e+10
5.61277e+08
-3.1624e+10
-6.16933e+07
-2.69075e+10
-1.26471e+09
-2.75226e+10
1.07962e+09
2.04582e+09
-3.33068e+10
6.30776e+07
-4.70607e+09
-3.3504e+10
-5.98117e+07
-3.69356e+09
-3.36857e+10
-1.36043e+08
-3.0794e+09
-3.3685e+10
-1.04039e+08
-2.76298e+09
-3.36258e+10
-1.45067e+08
-2.28826e+09
-3.35466e+10
-1.55998e+08
-1.96277e+09
-3.34058e+10
-1.67833e+08
-1.6047e+09
-3.32554e+10
-1.82832e+08
-1.2708e+09
-3.31243e+10
-1.96206e+08
-9.76996e+08
-3.30114e+10
-2.16948e+08
-7.65169e+08
-3.29141e+10
-2.23977e+08
-6.03077e+08
-3.27985e+10
-2.26501e+08
-4.87694e+08
-3.26996e+10
-2.17487e+08
-3.96003e+08
-3.26175e+10
-2.13921e+08
-3.40202e+08
-3.25423e+10
-2.13443e+08
-2.993e+08
-3.24595e+10
-2.15371e+08
-2.75599e+08
-3.23661e+10
-2.1632e+08
-2.76538e+08
-3.2262e+10
-2.18455e+08
-3.03e+08
-3.2138e+10
-2.20099e+08
-3.48583e+08
-3.19913e+10
-2.23306e+08
-4.14583e+08
-3.18099e+10
-2.26563e+08
-4.96466e+08
-3.15921e+10
-2.31657e+08
-5.88418e+08
-3.13359e+10
-2.36787e+08
-6.7505e+08
-3.10494e+10
-2.42324e+08
-7.40114e+08
-3.07434e+10
-2.47417e+08
-7.72719e+08
-3.04289e+10
-2.51835e+08
-7.70796e+08
-3.01167e+10
-2.55224e+08
-7.37354e+08
-2.98159e+10
-2.58025e+08
-6.79812e+08
-2.95307e+10
-2.6028e+08
-6.06995e+08
-2.92644e+10
-2.61367e+08
-5.2569e+08
-2.90133e+10
-2.6084e+08
-4.42881e+08
-2.87696e+10
-2.59965e+08
-3.65899e+08
-2.85277e+10
-2.60531e+08
-2.95645e+08
-2.82841e+10
-2.62301e+08
-2.24338e+08
-2.80342e+10
-2.65431e+08
-1.46879e+08
-2.77781e+10
-2.70742e+08
-7.16451e+07
-2.75093e+10
-2.76768e+08
3.73594e+06
-2.72215e+10
-2.83101e+08
8.24257e+07
-2.69088e+10
-2.90214e+08
1.66142e+08
-2.65675e+10
-2.97924e+08
2.56423e+08
-2.61939e+10
-3.06125e+08
3.51222e+08
-2.57868e+10
-3.15106e+08
4.51835e+08
-2.53484e+10
-3.23867e+08
5.52305e+08
-2.4872e+10
-3.32977e+08
6.49815e+08
-2.43496e+10
-3.48269e+08
7.35562e+08
-2.37644e+10
-3.78533e+08
7.80602e+08
-2.30679e+10
-4.49377e+08
7.53308e+08
-2.21218e+10
-5.98168e+08
5.88482e+08
-2.07226e+10
-8.01079e+08
1.96472e+08
-1.86769e+10
-9.59145e+08
-4.08692e+08
-1.60404e+10
-8.49274e+08
-1.59024e+09
-1.70583e+10
6.81799e+08
-1.30941e+09
-1.72107e+10
7.95518e+06
-3.64591e+09
-1.11722e+09
-5.15067e+09
-3.30664e+10
-4.67546e+09
-3.31681e+10
-3.77252e+09
-3.32438e+10
-3.28279e+09
-3.32215e+10
-2.8896e+09
-3.32044e+10
-2.21896e+09
-3.30918e+10
-1.78199e+09
-3.29404e+10
-1.46037e+09
-3.28058e+10
-1.17636e+09
-3.26746e+10
-9.24415e+08
-3.25884e+10
-7.38518e+08
-3.25309e+10
-5.9656e+08
-3.24829e+10
-4.96651e+08
-3.24355e+10
-4.25092e+08
-3.23942e+10
-3.84263e+08
-3.23562e+10
-3.58213e+08
-3.23096e+10
-3.50635e+08
-3.2255e+10
-3.72175e+08
-3.21907e+10
-4.19314e+08
-3.21104e+10
-4.86205e+08
-3.20094e+10
-5.73083e+08
-3.18816e+10
-6.76191e+08
-3.17241e+10
-7.89262e+08
-3.15387e+10
-8.96453e+08
-3.13334e+10
-9.82923e+08
-3.11202e+10
-1.03688e+09
-3.09106e+10
-1.05724e+09
-3.07147e+10
-1.04689e+09
-3.05406e+10
-1.01387e+09
-3.03903e+10
-9.67819e+08
-3.02633e+10
-9.1603e+08
-3.01545e+10
-8.63567e+08
-3.00584e+10
-8.13741e+08
-2.99715e+10
-7.68617e+08
-2.98895e+10
-7.27686e+08
-2.98096e+10
-6.89051e+08
-2.97252e+10
-6.52614e+08
-2.96285e+10
-6.1465e+08
-2.95121e+10
-5.73865e+08
-2.93664e+10
-5.26562e+08
-2.91845e+10
-4.70297e+08
-2.89587e+10
-4.05094e+08
-2.86806e+10
-3.34743e+08
-2.83417e+10
-2.62424e+08
-2.79341e+10
-1.90706e+08
-2.74613e+10
-1.28046e+08
-2.6935e+10
-9.11349e+07
-2.63861e+10
-1.13049e+08
-2.58679e+10
-2.36543e+08
-2.53449e+10
-5.14423e+08
-2.47284e+10
-9.22318e+08
-2.38361e+10
-1.56807e+09
-2.228e+10
-1.80128e+09
-1.43125e+10
-6.65103e+09
-4.97817e+09
-3.18811e+10
1.56201e+08
-4.37066e+09
-3.23415e+10
1.04167e+08
-3.40725e+09
-3.2625e+10
7.85194e+07
-2.91639e+09
-3.29854e+10
6.91086e+07
-2.48864e+09
-3.31883e+10
-2.66482e+07
-2.05425e+09
-3.33468e+10
-7.65592e+07
-1.71026e+09
-3.34279e+10
-9.16883e+07
-1.40806e+09
-3.34695e+10
-6.82899e+07
-1.13622e+09
-3.34832e+10
-5.70641e+07
-8.83858e+08
-3.35155e+10
-6.16586e+07
-6.5315e+08
-3.35624e+10
-7.92767e+07
-4.63429e+08
-3.36017e+10
-8.78226e+07
-3.51266e+08
-3.36368e+10
-8.44619e+07
-2.70159e+08
-3.36766e+10
-8.24651e+07
-2.13443e+08
-3.37148e+10
-8.29028e+07
-1.74441e+08
-3.37458e+10
-8.3687e+07
-1.57642e+08
-3.37673e+10
-8.39653e+07
-1.6716e+08
-3.37809e+10
-8.45802e+07
-2.01825e+08
-3.37818e+10
-8.50355e+07
-2.58894e+08
-3.37674e+10
-8.65654e+07
-3.39625e+08
-3.37272e+10
-8.87113e+07
-4.42417e+08
-3.36577e+10
-9.27214e+07
-5.61211e+08
-3.35534e+10
-9.66107e+07
-6.73597e+08
-3.34275e+10
-1.01646e+08
-7.5579e+08
-3.32916e+10
-1.0563e+08
-7.91067e+08
-3.3162e+10
-1.08998e+08
-7.78894e+08
-3.30478e+10
-1.11079e+08
-7.27981e+08
-3.29541e+10
-1.11777e+08
-6.51339e+08
-3.28826e+10
-1.10657e+08
-5.61358e+08
-3.2829e+10
-1.08232e+08
-4.69401e+08
-3.279e+10
-1.05868e+08
-3.79476e+08
-3.27598e+10
-1.05127e+08
-2.99316e+08
-3.27342e+10
-1.06068e+08
-2.2796e+08
-3.27056e+10
-1.07037e+08
-1.6246e+08
-3.26616e+10
-1.07845e+08
-1.02089e+08
-3.25978e+10
-1.10205e+08
-4.53262e+07
-3.25081e+10
-1.15003e+08
1.04849e+07
-3.23848e+10
-1.22458e+08
6.77155e+07
-3.22203e+10
-1.33707e+08
1.29874e+08
-3.20041e+10
-1.49699e+08
1.96427e+08
-3.17314e+10
-1.71621e+08
2.71893e+08
-3.13966e+10
-2.00857e+08
3.56599e+08
-3.09989e+10
-2.39126e+08
4.47746e+08
-3.05407e+10
-2.87216e+08
5.4161e+08
-3.0031e+10
-3.4895e+08
6.30321e+08
-2.94889e+10
-4.29972e+08
6.92766e+08
-2.89412e+10
-5.40064e+08
7.08474e+08
-2.84299e+10
-6.852e+08
6.4168e+08
-2.79471e+10
-8.48821e+08
3.62873e+08
-2.72284e+10
-1.05916e+09
-3.45353e+08
-2.62789e+10
-1.09858e+09
-1.63842e+09
-2.34931e+10
-8.04425e+08
-3.33013e+09
-1.84572e+10
-1.59672e+09
-7.1189e+09
-1.78794e+09
-3.25769e+09
-3.20977e+10
-4.40037e+09
-3.23752e+10
-3.44249e+09
-3.25994e+10
-3.01223e+09
-3.28176e+10
-2.61435e+09
-3.29992e+10
-2.06112e+09
-3.31327e+10
-1.71273e+09
-3.32023e+10
-1.46629e+09
-3.32009e+10
-1.2299e+09
-3.31572e+10
-1.01138e+09
-3.31233e+10
-8.2362e+08
-3.31162e+10
-6.75863e+08
-3.31142e+10
-5.82477e+08
-3.31015e+10
-5.20551e+08
-3.30856e+10
-4.82277e+08
-3.30649e+10
-4.62323e+08
-3.30347e+10
-4.65315e+08
-3.2996e+10
-4.96278e+08
-3.29496e+10
-5.51539e+08
-3.2893e+10
-6.29934e+08
-3.28231e+10
-7.3143e+08
-3.27337e+10
-8.57145e+08
-3.2619e+10
-9.98212e+08
-3.24777e+10
-1.13567e+09
-3.23193e+10
-1.24222e+09
-3.2158e+10
-1.30229e+09
-3.20089e+10
-1.31325e+09
-3.18824e+10
-1.28372e+09
-3.17845e+10
-1.22547e+09
-3.1718e+10
-1.151e+09
-3.16803e+10
-1.07247e+09
-3.1672e+10
-9.93096e+08
-3.16903e+10
-9.20537e+08
-3.17326e+10
-8.56506e+08
-3.1796e+10
-7.99254e+08
-3.1877e+10
-7.46558e+08
-3.19752e+10
-6.9695e+08
-3.20891e+10
-6.47917e+08
-3.22184e+10
-5.96939e+08
-3.23639e+10
-5.40027e+08
-3.25243e+10
-4.77865e+08
-3.27052e+10
-4.05502e+08
-3.29146e+10
-3.27127e+08
-3.31652e+10
-2.45641e+08
-3.34697e+10
-1.69881e+08
-3.38476e+10
-1.1154e+08
-3.43298e+10
-8.90298e+07
-3.49578e+10
-1.36018e+08
-3.57523e+10
-3.15728e+08
-3.66045e+10
-7.806e+08
-3.71932e+10
-1.69953e+09
-3.6697e+10
-3.46879e+09
-3.32693e+10
-6.28069e+09
-3.10184e+10
-1.06794e+10
-2.96077e+09
-3.02634e+10
2.0773e+08
-4.39293e+09
-3.05598e+10
2.24086e+08
-3.41668e+09
-3.07784e+10
2.46874e+08
-2.99212e+09
-3.10214e+10
2.29361e+08
-2.48861e+09
-3.11406e+10
1.57722e+08
-2.08331e+09
-3.12337e+10
1.14097e+08
-1.70953e+09
-3.13324e+10
1.18842e+08
-1.40267e+09
-3.14343e+10
1.57056e+08
-1.16764e+09
-3.1519e+10
1.7274e+08
-9.52819e+08
-3.15905e+10
1.70718e+08
-7.38849e+08
-3.16245e+10
1.5873e+08
-5.80538e+08
-3.1657e+10
1.55472e+08
-4.71971e+08
-3.16961e+10
1.57229e+08
-3.91102e+08
-3.17375e+10
1.56394e+08
-3.34888e+08
-3.17752e+10
1.54506e+08
-3.01256e+08
-3.18031e+10
1.5235e+08
-2.93042e+08
-3.18219e+10
1.49979e+08
-3.12054e+08
-3.18278e+10
1.47735e+08
-3.58e+08
-3.18196e+10
1.44462e+08
-4.30502e+08
-3.17899e+10
1.40636e+08
-5.30049e+08
-3.17311e+10
1.34871e+08
-6.62592e+08
-3.16222e+10
1.28765e+08
-8.22682e+08
-3.14584e+10
1.20196e+08
-9.82304e+08
-3.12498e+10
1.10171e+08
-1.09499e+09
-3.10262e+10
9.8128e+07
-1.13243e+09
-3.08111e+10
8.5288e+07
-1.09977e+09
-3.06201e+10
7.24083e+07
-1.01629e+09
-3.04609e+10
6.06956e+07
-9.03291e+08
-3.03351e+10
5.11534e+07
-7.79778e+08
-3.02379e+10
4.36759e+07
-6.61946e+08
-3.01604e+10
3.8114e+07
-5.574e+08
-3.0098e+10
3.37696e+07
-4.68153e+08
-3.00466e+10
2.90094e+07
-3.91006e+08
-3.00021e+10
2.46898e+07
-3.2369e+08
-2.99588e+10
2.11463e+07
-2.67119e+08
-2.99127e+10
1.82037e+07
-2.17726e+08
-2.98579e+10
1.53691e+07
-1.73588e+08
-2.97897e+10
1.23952e+07
-1.30206e+08
-2.9702e+10
9.18059e+06
-8.55564e+07
-2.95922e+10
5.55485e+06
-3.68799e+07
-2.9455e+10
1.52827e+06
1.66926e+07
-2.92906e+10
-2.53333e+06
7.74232e+07
-2.91074e+10
-7.12149e+06
1.47153e+08
-2.89239e+10
-1.37742e+07
2.24203e+08
-2.87741e+10
-2.43647e+07
3.08805e+08
-2.87146e+10
-4.30645e+07
3.91434e+08
-2.88191e+10
-7.17334e+07
4.65143e+08
-2.91643e+10
-1.24227e+08
5.09737e+08
-2.97968e+10
-2.29511e+08
3.97231e+08
-3.05462e+10
-4.69773e+08
-1.31229e+08
-3.12763e+10
-8.23774e+08
-1.26421e+09
-3.14034e+10
-1.57536e+09
-2.902e+09
-2.72211e+10
-3.68285e+09
-8.27674e+09
-5.26354e+08
-1.78548e+09
-2.97794e+10
-4.09667e+09
-3.00204e+10
-3.02388e+09
-3.01987e+10
-2.61061e+09
-3.03562e+10
-2.23177e+09
-3.03864e+10
-1.86481e+09
-3.04062e+10
-1.56427e+09
-3.04707e+10
-1.26714e+09
-3.0503e+10
-1.02594e+09
-3.05073e+10
-8.2245e+08
-3.04939e+10
-6.57792e+08
-3.04676e+10
-5.38721e+08
-3.04385e+10
-4.54974e+08
-3.04066e+10
-3.9726e+08
-3.03734e+10
-3.63941e+08
-3.03351e+10
-3.52698e+08
-3.02883e+10
-3.67897e+08
-3.02326e+10
-4.10753e+08
-3.01652e+10
-4.81347e+08
-3.00833e+10
-5.79269e+08
-2.99827e+10
-7.06526e+08
-2.98529e+10
-8.68791e+08
-2.96774e+10
-1.06271e+09
-2.94491e+10
-1.25986e+09
-2.91826e+10
-1.41211e+09
-2.89093e+10
-1.48995e+09
-2.86552e+10
-1.49543e+09
-2.84372e+10
-1.44646e+09
-2.82622e+10
-1.36282e+09
-2.81286e+10
-1.26356e+09
-2.80316e+10
-1.16367e+09
-2.7963e+10
-1.06904e+09
-2.79176e+10
-9.85193e+08
-2.78932e+10
-9.12021e+08
-2.78881e+10
-8.46554e+08
-2.78991e+10
-7.87565e+08
-2.79249e+10
-7.31368e+08
-2.7964e+10
-6.76071e+08
-2.80166e+10
-6.16956e+08
-2.80812e+10
-5.52316e+08
-2.81598e+10
-4.79653e+08
-2.82515e+10
-3.98067e+08
-2.8362e+10
-3.0707e+08
-2.85043e+10
-2.07152e+08
-2.86985e+10
-1.07891e+08
-2.89777e+10
-1.94726e+07
-2.93913e+10
4.44444e+07
-3.00087e+10
6.24401e+07
-3.09187e+10
-2.17455e+07
-3.22529e+10
-3.26912e+08
-3.41556e+10
-1.08699e+09
-3.68789e+10
-2.49067e+09
-4.07526e+10
-4.70768e+09
-4.55924e+10
-1.00427e+10
5.08585e+09
-2.97211e+10
4.90827e+07
-4.19324e+09
-2.99479e+10
8.64073e+07
-3.31165e+09
-3.01472e+10
1.17365e+08
-2.92493e+09
-3.02771e+10
1.26745e+08
-2.48401e+09
-3.03668e+10
1.34415e+08
-2.11624e+09
-3.0411e+10
1.38293e+08
-1.78589e+09
-3.04524e+10
1.49313e+08
-1.49062e+09
-3.05033e+10
1.65253e+08
-1.26139e+09
-3.05535e+10
1.69395e+08
-1.05253e+09
-3.05859e+10
1.65956e+08
-8.55499e+08
-3.06089e+10
1.68193e+08
-7.12949e+08
-3.06422e+10
1.76068e+08
-6.06611e+08
-3.06882e+10
1.83779e+08
-5.25757e+08
-3.07425e+10
1.88205e+08
-4.69902e+08
-3.07992e+10
1.91497e+08
-4.40372e+08
-3.08544e+10
1.94275e+08
-4.38315e+08
-3.0904e+10
1.97258e+08
-4.66661e+08
-3.09445e+10
2.00592e+08
-5.25941e+08
-3.09727e+10
2.03916e+08
-6.17737e+08
-3.09806e+10
2.07659e+08
-7.46612e+08
-3.09543e+10
2.1212e+08
-9.23908e+08
-3.08622e+10
2.18978e+08
-1.15631e+09
-3.06813e+10
2.27069e+08
-1.41046e+09
-3.04285e+10
2.36574e+08
-1.59447e+09
-3.0166e+10
2.43723e+08
-1.6464e+09
-2.99419e+10
2.48792e+08
-1.57992e+09
-2.97799e+10
2.50669e+08
-1.44187e+09
-2.96846e+10
2.50531e+08
-1.27079e+09
-2.96466e+10
2.49722e+08
-1.09942e+09
-2.96538e+10
2.48378e+08
-9.45997e+08
-2.96945e+10
2.46594e+08
-8.16984e+08
-2.97621e+10
2.43687e+08
-7.0863e+08
-2.98489e+10
2.40578e+08
-6.19187e+08
-2.99492e+10
2.37403e+08
-5.44915e+08
-3.00618e+10
2.33639e+08
-4.81244e+08
-3.01834e+10
2.29536e+08
-4.26627e+08
-3.03133e+10
2.24833e+08
-3.75727e+08
-3.04478e+10
2.19163e+08
-3.25928e+08
-3.05868e+10
2.12603e+08
-2.7172e+08
-3.07287e+10
2.05189e+08
-2.12082e+08
-3.08747e+10
1.97065e+08
-1.45028e+08
-3.10292e+10
1.88795e+08
-6.80807e+07
-3.12025e+10
1.81065e+08
2.07611e+07
-3.14144e+10
1.75005e+08
1.20192e+08
-3.16998e+10
1.71322e+08
2.34385e+08
-3.21159e+10
1.70033e+08
3.64003e+08
-3.27478e+10
1.70661e+08
5.22449e+08
-3.37048e+10
1.5917e+08
7.19876e+08
-3.51774e+10
1.03533e+08
9.67473e+08
-3.75926e+10