/*--------------------------------*- C++ -*----------------------------------*\
| =========                 |                                                 |
| \\      /  F ield         | OpenFOAM: The Open Source CFD Toolbox           |
|  \\    /   O peration     | Version:  4.1                                   |
|   \\  /    A nd           | Web:      www.OpenFOAM.org                      |
|    \\/     M anipulation  |                                                 |
\*---------------------------------------------------------------------------*/
FoamFile
{
    version     2.0;
    format      ascii;
    class       volVectorField;
    location    "29";
    object      U;
}
// * * * * * * * * * * * * * * * * * * * * * * * * * * * * * * * * * * * * * //

dimensions      [0 1 -1 0 0 0 0];

internalField   nonuniform List<vector> 
4432
(
(-177272 -7187.69 -25077.2)
(-153898 4993.57 14264.7)
(-122202 9914.07 22612.8)
(-103647 -2448.32 4415.19)
(-118606 1291.56 6104.83)
(-112832 1788.46 8959.7)
(-103555 399.667 3536.72)
(-102320 158.234 2026.44)
(-101334 -479.468 484.604)
(-100702 -1012.52 -436.599)
(-100031 -1397.92 -950.235)
(-99598.6 -1550.63 -1278.2)
(-99202.3 -1607.89 -1420.21)
(-98876.1 -1690.96 -1411.23)
(-98565.2 -1769.97 -1327.6)
(-97903.4 -1812.04 -1389.93)
(-97015.4 -1821.66 -1610.04)
(-96223.7 -1836.34 -1782.18)
(-95471.3 -1884.16 -1963.65)
(-94625.4 -1927.81 -2107.61)
(-93668.1 -1979.11 -2274.25)
(-92615.9 -2033.22 -2436.68)
(-91472.5 -2091.1 -2601.62)
(-90257.3 -2151.17 -2759.79)
(-88993.1 -2212.71 -2908.45)
(-87703.1 -2273.93 -3043.27)
(-86416.5 -2333.45 -3161.49)
(-85160.7 -2389.79 -3262.21)
(-83968 -2441.38 -3347.83)
(-82862 -2486.91 -3423.95)
(-81868 -2525.29 -3499.38)
(-81014.6 -2554.52 -3581.45)
(-80330.5 -2573.37 -3680.39)
(-79833.4 -2582.45 -3802.59)
(-79511 -2585.2 -3931.63)
(-79352.9 -2582.96 -4050.8)
(-79358.6 -2574.17 -4168.05)
(-79518.5 -2557.8 -4285.26)
(-79826.5 -2532.82 -4394.99)
(-80281 -2500.12 -4490.08)
(-80904.8 -2457.21 -4541.74)
(-81727 -2402.28 -4508.91)
(-82777.2 -2331.61 -4342.26)
(-84123.1 -2236.4 -3975.39)
(-85926 -2096.09 -3317.38)
(-88393.1 -1891.64 -2315.02)
(-91637.4 -1593.46 -866.461)
(-95233.1 -1139.39 1260.78)
(-97856.7 -558.445 4327.05)
(-99959.7 293.364 7761.3)
(-111301 1078.05 13381.6)
(-151829 1151.69 18731)
(-190836 -2092.6 30272.6)
(-141051 -1820.59 24284.9)
(-180449 -5042.76 -19423.7)
(-162737 5440.1 -1410.24)
(-152402 10545.3 2725.53)
(-139481 638.167 2507.63)
(-140048 3747.03 974.612)
(-139407 4346.18 2783.71)
(-132267 3461.14 37.8705)
(-129882 3357.13 -705.673)
(-128487 2924.08 -1566.32)
(-126997 2540.47 -1889.44)
(-125288 2281.26 -2096.38)
(-123903 2189.79 -2264.57)
(-122817 2169.94 -2344.94)
(-121925 2127.26 -2300.57)
(-121049 2081.58 -2248.23)
(-119904 2062.03 -2376.22)
(-118614 2067.15 -2602.67)
(-117461 2068.31 -2759.91)
(-116354 2041.09 -2937.6)
(-115177 2013.99 -3089.85)
(-113943 1978.56 -3260.54)
(-112662 1937.36 -3429.82)
(-111340 1889.33 -3601.77)
(-109994 1835.58 -3770.13)
(-108642 1776.44 -3932.59)
(-107308 1713.18 -4086.61)
(-106014 1646.94 -4230.52)
(-104785 1579.38 -4364.77)
(-103646 1511.59 -4491.81)
(-102618 1444.65 -4618.16)
(-101717 1379.58 -4751.51)
(-100962 1317.18 -4895.09)
(-100368 1256.72 -5051.05)
(-99952.3 1196.43 -5221.62)
(-99717.1 1132.94 -5404.42)
(-99665 1064.58 -5595.73)
(-99798.1 991.726 -5793.33)
(-100123 915.323 -5998.8)
(-100645 836.677 -6214.5)
(-101377 757.118 -6427.53)
(-102346 678.697 -6608.87)
(-103585 603.436 -6719.06)
(-105135 537.35 -6713.6)
(-107070 492.931 -6533.15)
(-109548 491.959 -6100.77)
(-112798 556.721 -5345.98)
(-116993 720.252 -4176.09)
(-121898 1059.46 -2515.3)
(-126331 1593.99 -135.526)
(-131684 2506.11 2800.27)
(-148535 3073.02 6657.84)
(-197751 2379.08 8814.07)
(-254960 -271.363 18229)
(-207056 -3677.31 21857.6)
(-158939 -2742.8 -46191.9)
(-156527 -4867.4 -18350.9)
(-157520 -4371.55 130.7)
(-152850 -553.646 -9235.47)
(-148295 -1463.45 -4137.74)
(-151565 -1349.15 2156.62)
(-148828 -1254.23 2236.2)
(-145888 -1032.08 2228.41)
(-144991 -1104.81 1584.22)
(-144025 -1034.2 1103.19)
(-143075 -1100.98 743.684)
(-142574 -1095.52 506.897)
(-142251 -1079.99 466.212)
(-142187 -1078.99 584.927)
(-142457 -1127.22 733.043)
(-142708 -1207.08 824.434)
(-142706 -1233.45 816.857)
(-142705 -1230.72 800.917)
(-142777 -1258.95 743.528)
(-142850 -1283.23 705.258)
(-142927 -1308.6 652.676)
(-142997 -1331.79 612.61)
(-143069 -1352.64 583.943)
(-143147 -1370.03 579.081)
(-143236 -1383.33 602.29)
(-143335 -1392.1 658.625)
(-143446 -1396 750.452)
(-143562 -1394.79 877.281)
(-143684 -1388.1 1036.45)
(-143800 -1376.6 1221.73)
(-143904 -1359.79 1425.79)
(-143991 -1334.58 1646.59)
(-144052 -1296.19 1883.59)
(-144048 -1243.62 2121.43)
(-143952 -1185.06 2354.94)
(-143773 -1125.9 2587.71)
(-143496 -1059.26 2803.79)
(-143102 -982.688 3008.18)
(-142567 -898.839 3198.01)
(-141861 -803.728 3388.31)
(-140983 -694.129 3597.43)
(-139933 -568.057 3838.17)
(-138684 -422.527 4114.67)
(-137210 -254.176 4432.41)
(-135525 -60.1465 4798.73)
(-133608 172.55 5206.94)
(-131261 447.261 5636.87)
(-127995 738.693 6091.47)
(-123386 1042.5 6534.5)
(-116501 1453.66 6851.34)
(-114897 1393.52 7221.34)
(-108191 584.905 2847.8)
(-103956 -1849.86 -305.318)
(1467.28 -2610.35 4500.07)
(-170923 784.096 -33980.2)
(-169260 -1043.59 -18354.1)
(-166585 -907.714 -10476.9)
(-164187 2813.65 -6003.09)
(-163896 2074.23 -5806.42)
(-166723 2145.98 -1251.49)
(-164463 2242.15 -480.163)
(-162326 2522.71 21.3374)
(-162054 2454.29 -209.184)
(-161428 2537.31 -117.52)
(-160940 2509.87 -67.694)
(-160700 2540.14 -51.3944)
(-160636 2585.83 15.6296)
(-160829 2622.05 193.1)
(-161304 2618.35 397.426)
(-161665 2587.85 486.301)
(-161740 2605.44 508.105)
(-161879 2649.11 524.835)
(-162083 2664.69 514.159)
(-162242 2681.89 507.786)
(-162381 2696.11 485.443)
(-162483 2709.43 466.016)
(-162554 2721.17 451.457)
(-162593 2731.28 449.774)
(-162605 2739.38 465.895)
(-162586 2745.09 503.291)
(-162537 2747.82 563.961)
(-162452 2746.92 646.877)
(-162331 2741.66 749.188)
(-162166 2730.31 865.579)
(-161968 2712.32 992.382)
(-161738 2689.24 1127.32)
(-161462 2663.81 1268.5)
(-161124 2635.95 1411.22)
(-160702 2597.04 1552.89)
(-160180 2540.95 1686.59)
(-159539 2472.68 1805.74)
(-158761 2392.58 1910.33)
(-157818 2297.26 2003.68)
(-156670 2187.65 2096.73)
(-155280 2064.97 2203.72)
(-153617 1929.45 2338.05)
(-151631 1783.04 2512.08)
(-149271 1628.47 2741.24)
(-146510 1468.15 3042.42)
(-143314 1314.9 3417.3)
(-139552 1173.94 3843.35)
(-134793 1018.9 4317.15)
(-128546 847.541 4890.2)
(-120454 465.035 5564.7)
(-117232 -943.504 7080.87)
(-116258 -1424.93 6715.51)
(-112775 -3433.93 6877.27)
(3073.27 -1840.59 1021.49)
(-142225 1726.48 -28404.7)
(-131500 374.974 -25630.1)
(-132232 -3690.2 -23208.2)
(-131215 1791.48 -14115.5)
(-125355 -788.046 -14380.4)
(-127094 -1936.83 -10731.9)
(-126770 -2272.1 -6884.97)
(-126549 -1969.41 -5206.9)
(-125926 -2004.21 -4223.98)
(-124625 -1823.52 -3386.46)
(-123286 -1749.86 -2999.11)
(-122158 -1663 -2859.02)
(-121055 -1669.72 -2830.3)
(-120297 -1735.72 -2874.79)
(-119888 -1801.82 -2971.68)
(-119403 -1918.35 -3000.01)
(-118686 -1974.84 -3010.47)
(-117981 -2024.64 -3108.5)
(-117283 -2082.89 -3266.37)
(-116509 -2145.14 -3475.17)
(-115680 -2207.2 -3712.15)
(-114786 -2269.62 -3967.45)
(-113843 -2327.52 -4223.44)
(-112862 -2381.52 -4469.15)
(-111864 -2428.43 -4693.58)
(-110865 -2467.9 -4890.27)
(-109884 -2498.96 -5054.41)
(-108939 -2521.82 -5186.31)
(-108046 -2537.03 -5286.8)
(-107214 -2544.18 -5358.77)
(-106441 -2541.68 -5403.46)
(-105713 -2532.68 -5406.54)
(-105039 -2520.24 -5342.11)
(-104426 -2497.22 -5296.59)
(-103864 -2463.24 -5349.29)
(-103366 -2428.65 -5348.95)
(-102916 -2384.22 -5329.31)
(-102493 -2338.61 -5312.62)
(-102080 -2288.01 -5280.49)
(-101657 -2232.66 -5227.95)
(-101186 -2170.57 -5142.1)
(-100633 -2096.58 -5024.05)
(-99937.9 -2001.24 -4874.32)
(-99034.7 -1870.13 -4681.79)
(-97888.1 -1682.96 -4446.38)
(-96483.6 -1424.69 -4138.95)
(-94725.6 -1096.04 -3747.66)
(-92088.3 -678.467 -3381.59)
(-87163.8 -110.528 -3170.51)
(-80995.8 846.556 -2017.5)
(-83446 2040.91 1923.08)
(-104323 4095.17 11592.6)
(-129453 -6775.47 26795)
(-60486.6 -2512.6 10020.2)
(-151989 4666.88 -24927.6)
(-149312 3163.92 -17142.9)
(-143327 -369.531 -13939.8)
(-142509 4948.07 -9960.17)
(-143589 2578.97 -11055.8)
(-143192 1708.9 -8672.07)
(-142539 1486.18 -4820.79)
(-142650 1823.91 -3297.17)
(-142687 1853.71 -2205.21)
(-141948 2075.82 -1311.68)
(-141385 2204.74 -789.632)
(-141012 2346.64 -528.851)
(-140733 2405.59 -430.85)
(-140662 2414.28 -438.376)
(-140872 2424.59 -468.002)
(-140946 2392.94 -394.708)
(-140757 2414.48 -328.433)
(-140628 2441.94 -373.909)
(-140503 2462.12 -441.56)
(-140300 2478.51 -554.329)
(-140044 2494.28 -686.965)
(-139726 2508.19 -831.303)
(-139360 2523.37 -972.541)
(-138956 2538.51 -1099.85)
(-138525 2555.45 -1204.45)
(-138077 2574.11 -1281.66)
(-137622 2594.9 -1329.33)
(-137171 2617.53 -1350.02)
(-136733 2641.56 -1347.7)
(-136311 2667.19 -1327.41)
(-135883 2695.6 -1296.08)
(-135429 2724.54 -1258.35)
(-134961 2751.2 -1214.86)
(-134485 2780.17 -1176)
(-134007 2809.48 -1146.17)
(-133543 2829.92 -1132.94)
(-133102 2851.69 -1133.03)
(-132696 2868.22 -1132.28)
(-132333 2881.92 -1135.99)
(-132033 2894.21 -1133.26)
(-131835 2908.62 -1109.37)
(-131780 2932.15 -1059.33)
(-131895 2978.09 -983.822)
(-132217 3060.87 -874.357)
(-132788 3201.55 -731.455)
(-133715 3422.11 -543.485)
(-135124 3729.07 -269.678)
(-136868 4124.56 164.598)
(-138131 4617.38 1050.33)
(-139995 5337.93 3513.92)
(-150378 6233.1 9041.31)
(-188443 6554.68 18821.8)
(-201658 -7050.6 20185.8)
(-274973 -32491.2 -9534.34)
(-138188 -2900.92 -19237)
(-138300 -57.4884 -10191)
(-133372 431.692 -12303.2)
(-132336 -163.466 -6127.93)
(-131975 -1974.45 -7881.37)
(-130937 -3108.93 -7039.12)
(-130276 -2744.46 -6103.03)
(-129636 -2365.99 -4929.3)
(-129159 -2213.01 -3866.02)
(-128341 -2003.82 -2930.87)
(-127728 -1942.76 -2225.08)
(-127249 -1886.78 -1572.74)
(-126749 -1901.3 -1246.05)
(-126436 -1977.53 -1145.87)
(-126307 -2078.59 -1149.15)
(-126063 -2164.43 -1105.21)
(-125656 -2213.44 -1091.8)
(-125283 -2272.86 -1157.53)
(-124919 -2340.8 -1241.39)
(-124494 -2414.61 -1367.14)
(-124010 -2495.15 -1510.83)
(-123459 -2579.48 -1665.65)
(-122853 -2668.17 -1804.68)
(-122210 -2757.41 -1915.8)
(-121550 -2844.57 -1982.9)
(-120891 -2926.84 -2003.11)
(-120251 -3002.54 -1977.31)
(-119649 -3070.5 -1914.18)
(-119099 -3130.62 -1822.73)
(-118608 -3183.3 -1705.46)
(-118164 -3229.88 -1564)
(-117752 -3283.32 -1399.66)
(-117474 -3360.19 -1214.39)
(-117403 -3387.59 -1037.79)
(-117300 -3310.46 -894.951)
(-117137 -3282.98 -759.05)
(-117070 -3261.11 -616.545)
(-117028 -3204.23 -483.925)
(-116962 -3135.19 -358.489)
(-116844 -3044.07 -256.827)
(-116653 -2928.91 -193.961)
(-116379 -2785.86 -174.499)
(-115972 -2612.78 -193.481)
(-115390 -2410.79 -234.755)
(-114671 -2176.05 -270.026)
(-113819 -1918.06 -262.864)
(-112809 -1658.64 -137.896)
(-111239 -1380.89 105.39)
(-108160 -995.323 335.178)
(-103967 -259.353 509.498)
(-103801 1091.9 1459.33)
(-109581 3095.33 2025.6)
(-108508 -4303.55 12557.1)
(8066.66 -7717.07 11441.1)
(-145008 1120.45 -18874.4)
(-148093 3679.37 -8439.33)
(-146685 3960.26 -6492.78)
(-148783 3331.88 -5902.75)
(-149639 1658.04 -6100.54)
(-147240 645.816 -4796.03)
(-145683 998.252 -3537.54)
(-145487 1360.46 -2528.59)
(-145268 1507.76 -1255.28)
(-144617 1707.84 -368.156)
(-144208 1790.25 206.492)
(-143859 1878.5 605.899)
(-143533 1909.23 797.106)
(-143328 1886.57 811.375)
(-143212 1843.2 737.768)
(-142935 1813.11 744.152)
(-142518 1815.75 679.943)
(-142147 1810.76 530.542)
(-141764 1800.05 363.665)
(-141313 1785.76 158.405)
(-140795 1767.39 -66.1525)
(-140205 1747.42 -297.656)
(-139566 1725.24 -516.364)
(-138893 1703.37 -705.381)
(-138208 1682.9 -853.142)
(-137533 1664.43 -953.27)
(-136888 1648 -1006.94)
(-136291 1633.44 -1020.57)
(-135752 1619.57 -1002.58)
(-135279 1605.47 -962.203)
(-134870 1589.88 -912.546)
(-134523 1560.97 -859.947)
(-134255 1504.19 -798.503)
(-134068 1485.34 -733.253)
(-133955 1555.91 -670.584)
(-133914 1581.26 -603.721)
(-133932 1601.55 -528.616)
(-134023 1655.3 -440.645)
(-134181 1725.16 -340.326)
(-134373 1822.59 -236.939)
(-134598 1952.2 -146.485)
(-134861 2119.75 -74.5648)
(-135156 2331.9 -21.0015)
(-135462 2585.57 6.75415)
(-135844 2874.63 2.10341)
(-136435 3195.16 -16.3957)
(-137274 3537.52 -21.3435)
(-137950 3915.45 -13.1984)
(-137328 4374.79 -11.6868)
(-135112 5109.69 120.725)
(-135321 6022.6 1462.92)
(-141731 7037.16 4452.98)
(-132883 -13597.7 21253.1)
(-77248.2 -13046.3 6139.86)
(-132720 -2480.68 -25819.9)
(-136122 -2528.38 -16730.2)
(-134446 -1964.74 -13301.8)
(-134178 -2400.54 -11795.1)
(-133518 -3385.29 -9999.61)
(-131944 -3774.45 -8452.96)
(-131332 -3564.95 -6852.38)
(-130857 -3186.19 -5665.8)
(-130387 -2690.68 -4571.02)
(-129442 -2246.8 -3892.61)
(-128384 -2044.47 -3519.04)
(-127660 -1996.71 -2991.94)
(-127194 -1964.97 -2613.73)
(-126866 -1970.07 -2421.42)
(-126616 -1977.21 -2311.7)
(-126239 -1991.6 -2192.83)
(-125788 -2002.14 -2172.16)
(-125350 -2025.79 -2245.16)
(-124900 -2060.27 -2359.43)
(-124395 -2103.93 -2513.97)
(-123827 -2156.63 -2698.08)
(-123183 -2213.78 -2889.44)
(-122476 -2277.92 -3062.54)
(-121729 -2345.32 -3183.88)
(-120971 -2418.21 -3232.45)
(-120233 -2495.57 -3200.88)
(-119542 -2579.24 -3091.8)
(-118917 -2668.41 -2908.94)
(-118360 -2762.02 -2666.56)
(-117867 -2865.6 -2382.23)
(-117428 -2987.81 -2071.93)
(-117033 -3133.38 -1763.68)
(-116723 -3291.75 -1486.25)
(-116524 -3427.53 -1168.43)
(-116361 -3519.68 -744.662)
(-116202 -3595.55 -357.135)
(-116081 -3654.89 20.3378)
(-115986 -3683.72 413.509)
(-115900 -3679.43 817.158)
(-115814 -3634.22 1229.65)
(-115709 -3548.66 1633.41)
(-115559 -3422.16 2022.93)
(-115308 -3251.24 2398.3)
(-114914 -3046.68 2781.42)
(-114422 -2807.38 3160.89)
(-113747 -2548.39 3529.32)
(-112681 -2293.45 3879.02)
(-110610 -2058.82 4208.98)
(-106292 -1746.92 4509.75)
(-100193 -928.651 5054.02)
(-99466.7 265.301 6093.05)
(-103204 3058.73 1335.5)
(-108201 -1032.77 1816.11)
(12478.9 -5230.2 -825.458)
(-132732 1552.14 -23151.1)
(-135328 1663.16 -16995.6)
(-135274 2240.48 -14043.9)
(-137195 1824.17 -11562)
(-137333 818.44 -8352.47)
(-135304 406.668 -5696.32)
(-134618 575.266 -4417.56)
(-134349 890.166 -3688.8)
(-134181 1315.66 -2737.38)
(-133830 1675.2 -2177.61)
(-133444 1796.38 -1739.54)
(-133119 1781.63 -1305.48)
(-132877 1764.05 -989.194)
(-132718 1713.24 -822.121)
(-132575 1665.27 -716.032)
(-132276 1616.01 -623.877)
(-131881 1576.87 -666.185)
(-131502 1530.45 -802.853)
(-131106 1478.86 -980.843)
(-130658 1423.86 -1202.76)
(-130152 1366.04 -1451.8)
(-129580 1310.98 -1715.55)
(-128944 1257.2 -1967.31)
(-128262 1209.42 -2179.66)
(-127558 1166.96 -2332.26)
(-126859 1132.11 -2416.78)
(-126186 1103.88 -2434.76)
(-125559 1083.35 -2394.77)
(-124992 1070.37 -2308.81)
(-124497 1058.16 -2185.51)
(-124077 1036.45 -2037.24)
(-123713 998.188 -1877.33)
(-123418 951.464 -1705.63)
(-123216 928.954 -1514.07)
(-123105 946.862 -1299.92)
(-123087 976.209 -1052.48)
(-123169 1019.38 -776.451)
(-123355 1092.78 -476.51)
(-123656 1198.94 -130.56)
(-124087 1345.98 257.753)
(-124668 1536.81 673.596)
(-125413 1766.77 1113.12)
(-126325 2037.29 1583.36)
(-127397 2345.06 2075.09)
(-128635 2654.94 2564.67)
(-130094 2924.37 3029.28)
(-131768 3105.72 3429.84)
(-133101 3138.94 3737.15)
(-132597 3124.87 4017.39)
(-130118 3210.31 4460.22)
(-130189 3218.76 4040.39)
(-141338 4445.38 1682.39)
(-127139 -14199.6 11676.7)
(-83001.4 -16759.3 11518.6)
(-130984 -818.797 -19627.1)
(-134270 -1820.29 -15935.5)
(-134131 -2092.05 -12950)
(-135088 -2179.46 -11342.3)
(-135034 -2706.53 -9027.87)
(-134085 -2863.48 -7726.79)
(-133555 -2963.68 -6405.48)
(-133179 -3133.8 -5188.29)
(-132969 -3157.28 -3953.22)
(-132630 -3051.8 -3005.55)
(-131925 -2896.24 -2305.63)
(-131229 -2889.37 -1801.95)
(-130860 -2906.95 -1432.19)
(-130614 -2939.67 -1220.87)
(-130365 -2968.15 -1036.11)
(-130032 -2996.05 -909.692)
(-129648 -3021.51 -895.442)
(-129238 -3057.38 -978.519)
(-128776 -3100.43 -1132.03)
(-128227 -3154.06 -1351.28)
(-127561 -3214.15 -1623.07)
(-126748 -3283.08 -1916.55)
(-125781 -3357.3 -2190.96)
(-124679 -3437.99 -2391.62)
(-123486 -3522.51 -2491.39)
(-122250 -3608.14 -2479.26)
(-121007 -3693.99 -2365.54)
(-119792 -3785.86 -2168.88)
(-118634 -3884.68 -1915.43)
(-117543 -3986.89 -1630.73)
(-116513 -4094.26 -1335.38)
(-115529 -4208.31 -1057.95)
(-114571 -4319.05 -820.6)
(-113601 -4420.01 -587.233)
(-112598 -4521.38 -319.912)
(-111578 -4621.5 -35.2493)
(-110524 -4710.76 270.332)
(-109406 -4782.85 605.968)
(-108207 -4831.83 971.609)
(-106917 -4852 1369.79)
(-105528 -4841.01 1796.28)
(-104032 -4794.78 2240.73)
(-102418 -4711.29 2667.27)
(-100716 -4597.84 3082.81)
(-98869.1 -4476.89 3448.59)
(-96828.3 -4377.48 3630.25)
(-94490.6 -4370.27 3473.23)
(-91110.1 -4558.82 2671.47)
(-84591.1 -4965.7 920.429)
(-74339.7 -5413.62 -1696.19)
(-67430.8 -5492.01 -6843.13)
(-65309.2 -2461.07 -10452.3)
(-122169 -7327.55 -16866.3)
(-11037.5 -3583.84 -14531)
(-131431 1668.11 -18901.6)
(-132634 1082.39 -15600.9)
(-132388 1024.7 -13521.4)
(-133379 1155.86 -11056.7)
(-133455 813.172 -7297.99)
(-132105 812.898 -5183.1)
(-131747 842.94 -3980.32)
(-131450 771.533 -3191.61)
(-131118 824.618 -2459.73)
(-130745 980.688 -1804.28)
(-130280 1172.94 -1199.08)
(-129905 1205.44 -744.38)
(-129727 1210.36 -434.335)
(-129645 1194.34 -263.714)
(-129543 1181.4 -129.803)
(-129355 1168.68 -55.0011)
(-129122 1159.65 -107.63)
(-128873 1142.5 -258.991)
(-128576 1121.31 -481.488)
(-128204 1092.61 -771.853)
(-127734 1060.65 -1111.12)
(-127145 1022.8 -1474.54)
(-126439 981.779 -1819.11)
(-125641 934.658 -2100.98)
(-124795 882.779 -2289.48)
(-123952 828.19 -2379.73)
(-123152 771.636 -2385.31)
(-122428 708.091 -2331.04)
(-121794 637.726 -2245.7)
(-121253 564.413 -2152.01)
(-120796 486.144 -2057.67)
(-120391 402.834 -1972.94)
(-120023 326.932 -1922.28)
(-119687 265.408 -1896.41)
(-119360 206.107 -1872.89)
(-119025 148.615 -1838.84)
(-118662 101.506 -1779.13)
(-118235 69.5407 -1683.63)
(-117716 56.4443 -1541.58)
(-117083 65.7868 -1343.32)
(-116311 97.6713 -1076.22)
(-115369 144.232 -756.987)
(-114221 197.484 -399.13)
(-112829 250.629 -14.321)
(-111182 276.654 351.486)
(-109299 231.102 624.745)
(-107221 26.6229 656.258)
(-104656 -460.077 278.868)
(-100814 -1206.98 -531.733)
(-95578.2 -2439.16 -1707.3)
(-94415.7 -4158.6 -3398.56)
(-102293 -1511.58 -5014.68)
(-106009 -3296.45 -9859.72)
(-9379.57 -892.349 -6050.93)
(-125416 298.33 -17530.3)
(-128953 -546.226 -14075.7)
(-130056 -1201.42 -12317.6)
(-131639 -1037.72 -10848)
(-132449 -900.336 -8751.66)
(-132917 -716.296 -7096.21)
(-133273 -875.361 -5653.53)
(-133654 -1142.88 -4463.6)
(-134114 -1318.77 -3550.76)
(-134271 -1286.57 -2834.55)
(-134153 -1262.27 -2073.8)
(-134204 -1309.23 -1609.91)
(-134426 -1355.49 -1304.66)
(-134641 -1399.77 -1096.02)
(-134812 -1442.45 -940.732)
(-134934 -1478.85 -872.178)
(-135016 -1513.59 -909.088)
(-135071 -1552.08 -1043.49)
(-135088 -1593.88 -1256.2)
(-135050 -1640.93 -1548.79)
(-134924 -1692.34 -1903.07)
(-134678 -1750.53 -2291.58)
(-134297 -1813.11 -2645.49)
(-133812 -1881.6 -2896.12)
(-133283 -1947.94 -2993.67)
(-132763 -2009.68 -2935.55)
(-132296 -2066.06 -2748.91)
(-131907 -2118.98 -2482.05)
(-131600 -2168.8 -2179.75)
(-131364 -2217.94 -1869.42)
(-131189 -2267.49 -1573.32)
(-131064 -2314.45 -1314.64)
(-130971 -2352.75 -1083.07)
(-130867 -2379.99 -863.48)
(-130713 -2404.27 -659.685)
(-130493 -2429.29 -464.03)
(-130184 -2453.75 -253.851)
(-129761 -2475.67 -9.49165)
(-129194 -2495.96 288.178)
(-128452 -2518.51 652.89)
(-127512 -2545.78 1096.87)
(-126352 -2577.93 1631.6)
(-124953 -2622.74 2238.07)
(-123319 -2685.63 2876.4)
(-121470 -2774.19 3485.52)
(-119448 -2907.61 3943.45)
(-117339 -3116.06 4126.43)
(-114970 -3416.22 3833.21)
(-111528 -3745.15 2672.92)
(-107372 -4235.46 150.044)
(-102556 -4572.64 -5434.66)
(-114603 -4332.4 -8541.22)
(-105269 -4259.32 -24744.9)
(-44366.4 -3780.4 -16042.7)
(-127211 1100.04 -18199.4)
(-129623 294.102 -14804.5)
(-130274 -263.33 -13539)
(-130793 -8.77813 -12357.5)
(-131477 242.526 -9653.13)
(-132047 529.567 -7748.62)
(-132652 480.581 -6428)
(-132870 325.346 -5271.43)
(-132875 255.056 -4390.95)
(-132675 382.918 -3708.18)
(-132462 497.42 -3126.89)
(-132387 537.917 -2749.89)
(-132397 576.474 -2511.29)
(-132392 613.813 -2356.63)
(-132330 650.904 -2259.6)
(-132210 692.802 -2252.14)
(-132051 735.637 -2354.88)
(-131867 774.795 -2547.49)
(-131649 811.794 -2814.81)
(-131382 845.367 -3153.75)
(-131046 877.06 -3552.44)
(-130610 904.653 -3977.62)
(-130067 930.168 -4364.14)
(-129444 950.348 -4636.62)
(-128797 970.742 -4745.13)
(-128185 990.587 -4686.28)
(-127653 1007.73 -4488.79)
(-127230 1017.86 -4196.2)
(-126925 1018.68 -3856.91)
(-126731 1006.14 -3511.58)
(-126645 979.124 -3178.25)
(-126672 942.746 -2870.27)
(-126803 903.122 -2597.58)
(-127014 861.91 -2352.25)
(-127292 810.857 -2126.39)
(-127639 745.229 -1918.79)
(-128054 666.294 -1713.76)
(-128535 575.521 -1492.84)
(-129082 471.995 -1235.49)
(-129705 355.737 -931.338)
(-130414 223.874 -565.526)
(-131237 68.7714 -158.423)
(-132219 -113.811 280.127)
(-133410 -326.529 734.504)
(-134858 -589.918 1153.58)
(-136669 -930.88 1454.12)
(-138951 -1388.23 1453.84)
(-141534 -1984.89 872.855)
(-143370 -2759.2 -866.234)
(-143782 -3948.19 -4007.16)
(-145346 -5013.5 -9760.05)
(-160971 -4712.11 -14886.4)
(-147238 -4846.23 -33803.8)
(-98953.1 -6082.6 -18606)
(-119654 274.217 -17586.8)
(-121899 -6.3714 -13551.5)
(-123143 -525.895 -11992.7)
(-124154 -625.23 -10208.9)
(-124231 -324.72 -8631.17)
(-124345 -45.3132 -6837.84)
(-124782 -135.255 -5248.35)
(-125446 -239.17 -4072.08)
(-126218 -206.289 -3205.86)
(-126463 -57.1104 -2391.43)
(-126372 -18.17 -1763.73)
(-126480 -41.6798 -1370.75)
(-126693 -68.4628 -1069.92)
(-126891 -99.7645 -844.453)
(-127053 -129.06 -705.757)
(-127171 -158.96 -662.159)
(-127245 -191.624 -720.536)
(-127277 -227.637 -874.895)
(-127262 -268.412 -1116.7)
(-127182 -312.645 -1448.83)
(-126989 -362.697 -1869.51)
(-126616 -416.418 -2357.8)
(-126020 -477.463 -2827.33)
(-125236 -542.083 -3160.1)
(-124362 -607.909 -3266.09)
(-123500 -668.766 -3151.03)
(-122718 -721.827 -2862.95)
(-122055 -763.587 -2465.59)
(-121514 -797.138 -2024.65)
(-121083 -829.774 -1587.09)
(-120753 -853.383 -1170.53)
(-120491 -859.466 -788.381)
(-120266 -858.061 -428.054)
(-120067 -852.653 -81.0642)
(-119883 -845.052 240.792)
(-119699 -836.051 543.597)
(-119491 -826.334 841.959)
(-119242 -815.823 1148.96)
(-118936 -804.124 1479.42)
(-118559 -791.325 1847.08)
(-118100 -775.74 2262.35)
(-117553 -753.796 2736.84)
(-116929 -722.303 3280.97)
(-116271 -676.708 3901.49)
(-115672 -611.939 4578.62)
(-115319 -527.986 5258.91)
(-115434 -416.134 5853.85)
(-116052 -301.685 6201.13)
(-116478 -273.803 5579.3)
(-116691 -534.534 2988.76)
(-119807 -527.834 -1497.44)
(-139842 -370.863 -8569.45)
(-143973 -4573.5 -22026.5)
(-77734.7 -314.872 -10918.6)
(-117796 1820.59 -16786.1)
(-120160 1314.91 -12445.9)
(-121337 734.309 -10773.5)
(-121372 578.314 -9747.36)
(-120921 852.628 -8402.84)
(-121192 1109.91 -6980.86)
(-121730 1005.16 -5677.69)
(-121974 898.482 -4521.17)
(-122199 941.557 -3536.12)
(-122134 1113.72 -2803.78)
(-121903 1182.19 -2320.04)
(-121767 1191.32 -2026.71)
(-121685 1200.51 -1827.66)
(-121585 1207.72 -1708.71)
(-121443 1218.76 -1675.7)
(-121260 1230.43 -1747.32)
(-121038 1239.96 -1929.12)
(-120776 1246.33 -2211.91)
(-120468 1247.82 -2589.07)
(-120099 1245.64 -3064.1)
(-119623 1237.45 -3641.02)
(-118976 1225.09 -4295.42)
(-118117 1204.25 -4941.6)
(-117087 1178.05 -5448.85)
(-115993 1147.49 -5727.33)
(-114951 1117.51 -5770.67)
(-114034 1090.09 -5620.85)
(-113282 1068.38 -5333.66)
(-112701 1049.13 -4975.28)
(-112261 1024.4 -4594.87)
(-111941 1001.62 -4205.96)
(-111723 988.837 -3834.82)
(-111585 975.443 -3481.39)
(-111517 958.743 -3134.12)
(-111518 937.781 -2791.9)
(-111581 912.119 -2447.24)
(-111699 882.121 -2086.78)
(-111873 849.692 -1693.26)
(-112108 817.148 -1247.89)
(-112409 786.917 -732.683)
(-112784 763.988 -130.757)
(-113247 755.485 571.348)
(-113831 767.889 1383.69)
(-114595 804.172 2270.78)
(-115631 866.774 3191.06)
(-117103 951.94 4100.83)
(-119216 1059.34 4890.24)
(-121918 1148.72 5305.24)
(-124686 1124.82 4711.35)
(-127949 814.541 2258.83)
(-137931 635.685 -2743.79)
(-168602 542.625 -11601.6)
(-206626 -4981.34 -29229.5)
(-162493 -1835.92 -2481.19)
(-117651 -593.252 -18235.2)
(-119427 -481.809 -14185.4)
(-120553 -669.115 -12156.3)
(-121449 -849.083 -9796.57)
(-121338 -584.608 -8304.05)
(-121069 -450.508 -7091.67)
(-121401 -611.968 -6052.32)
(-121966 -637.262 -5326.91)
(-122348 -448.173 -4505.95)
(-122362 -269.258 -3507.03)
(-122338 -191.287 -2829.61)
(-122464 -163.664 -2359.57)
(-122661 -147.204 -1991.32)
(-122883 -140.702 -1722.57)
(-123107 -136.405 -1555.31)
(-123320 -136.746 -1496.96)
(-123512 -140.735 -1552.64)
(-123676 -147.81 -1722.5)
(-123805 -157.242 -2009.51)
(-123883 -168.215 -2421.41)
(-123846 -181.526 -2979.62)
(-123566 -195.71 -3668.23)
(-122931 -214.548 -4362.9)
(-121981 -239.105 -4812.84)
(-120924 -274.458 -4853.7)
(-119976 -314.556 -4515.8)
(-119250 -355.903 -3934.04)
(-118790 -391.925 -3234.13)
(-118572 -424.372 -2518.99)
(-118535 -460.676 -1859.41)
(-118647 -494.605 -1281.51)
(-118879 -522.544 -773.616)
(-119188 -541.992 -333.105)
(-119555 -556.778 49.1386)
(-119971 -570.547 379.15)
(-120429 -580.978 669.032)
(-120920 -587.435 931.244)
(-121443 -590.077 1174.56)
(-121995 -587.217 1411.49)
(-122575 -577.912 1651.12)
(-123187 -561.054 1904.21)
(-123846 -534.083 2186.7)
(-124577 -493.247 2518.64)
(-125430 -432.965 2923.99)
(-126503 -345.641 3438.7)
(-127975 -223.015 4114.85)
(-130092 -55.1066 5060.57)
(-132960 147.594 6390.08)
(-136200 323.814 8027.37)
(-140399 349.579 9516.83)
(-153173 794.707 10527.5)
(-190280 283.937 13934.9)
(-241056 -4722.06 -2281.5)
(-242584 8311.73 6261.11)
(-113838 1552.37 -16663.4)
(-116020 1560.07 -11848.1)
(-117312 1320.39 -9490.17)
(-117750 1096.34 -7362.13)
(-117316 1334.07 -6268.8)
(-117495 1423.92 -5652.2)
(-117963 1212 -4682.55)
(-118092 1145.59 -3863.52)
(-118138 1308.43 -3056.01)
(-118088 1466.54 -2307.73)
(-118015 1526.22 -1789.95)
(-117991 1537.69 -1430.92)
(-117988 1541.07 -1172.32)
(-117984 1537.68 -1010.1)
(-117957 1535.29 -946.377)
(-117904 1530.72 -988.979)
(-117815 1524.45 -1143.17)
(-117687 1516.86 -1412.92)
(-117515 1508.6 -1804.79)
(-117279 1501.24 -2334.66)
(-116911 1496.2 -3022.61)
(-116272 1498.32 -3864.22)
(-115237 1506.36 -4738.83)
(-113847 1518.92 -5402.9)
(-112323 1526.9 -5673.44)
(-110902 1529.95 -5566.55)
(-109729 1525.96 -5199.37)
(-108876 1517.63 -4692.5)
(-108347 1500.44 -4150.35)
(-108072 1465.78 -3636.59)
(-108003 1421.21 -3176.26)
(-108118 1372.38 -2776.69)
(-108382 1322.87 -2432.1)
(-108784 1267.46 -2130.9)
(-109316 1200.18 -1869.83)
(-109971 1122.11 -1630.4)
(-110758 1033.48 -1396.6)
(-111687 933.715 -1161.11)
(-112774 824.052 -915.713)
(-114036 704.811 -655.019)
(-115495 576.828 -374.927)
(-117182 443.085 -72.8669)
(-119138 308.013 252.524)
(-121429 177.987 598.312)
(-124184 58.6831 943.417)
(-127619 -41.0774 1309.81)
(-132020 -110.266 1763.91)
(-137558 -180.343 2326.85)
(-144261 -324.351 2953.39)
(-153164 -466.057 3235.44)
(-176304 -400.047 3093.2)
(-226664 -2359.68 5007.26)
(-293333 -8212.39 3653.87)
(-307092 48925.1 9992.93)
(-113998 -594.454 -16804.6)
(-116578 -258.079 -13389.8)
(-117849 -397.585 -11347.9)
(-119748 -668.107 -9306.04)
(-120680 -675.363 -7861.09)
(-121056 -902.558 -7018.17)
(-121749 -966.791 -6330.17)
(-122401 -844.139 -5598.13)
(-122665 -669.718 -4733.94)
(-122824 -602.465 -3971.24)
(-123056 -549.565 -3424.14)
(-123309 -509.049 -3003.33)
(-123598 -467.551 -2685.31)
(-123908 -427.008 -2478.43)
(-124227 -383.003 -2392.16)
(-124546 -337.988 -2439.69)
(-124857 -292.232 -2635.58)
(-125152 -246.862 -2996.15)
(-125428 -201.419 -3537.38)
(-125674 -157.863 -4281.7)
(-125814 -115.983 -5273.94)
(-125617 -79.4333 -6551.79)
(-124787 -51.1918 -7975.41)
(-123287 -44.1505 -9107.48)
(-121464 -57.4546 -9548.54)
(-119727 -86.021 -9328.96)
(-118301 -121.547 -8761.29)
(-117256 -164.221 -8067.01)
(-116576 -218.464 -7391.03)
(-116192 -282.409 -6810.21)
(-116036 -342.8 -6357.43)
(-116041 -400.212 -6017.39)
(-116147 -456.977 -5773.14)
(-116315 -511.927 -5607.06)
(-116518 -566.885 -5500.82)
(-116730 -622.472 -5447.73)
(-116932 -678.904 -5435.63)
(-117107 -736.113 -5454.66)
(-117234 -794.433 -5502.22)
(-117290 -855.994 -5579.57)
(-117255 -925.204 -5690.34)
(-117111 -1007.68 -5838.26)
(-116852 -1110.7 -6026.58)
(-116490 -1241.32 -6254.98)
(-116080 -1406.53 -6508.73)
(-115758 -1614.3 -6760.01)
(-115687 -1876.89 -6918.44)
(-115724 -2192.26 -6842.85)
(-115339 -2641.76 -6206.8)
(-114930 -3358.04 -4696.32)
(-121821 -3993.27 -659.263)
(-151323 -5802.38 4962.86)
(-160812 -1165.17 29341.5)
(-172637 -21999.1 100218)
(-112878 995.441 -14921.7)
(-115100 1409.86 -11120.3)
(-116286 1258.12 -9166.91)
(-117578 990.691 -7164.23)
(-118088 968.33 -6233.21)
(-118264 698.005 -5588.56)
(-118416 587.745 -4554.07)
(-118676 663.447 -3722.51)
(-118853 788.669 -2994.63)
(-119014 795.428 -2365.56)
(-119174 784.484 -1871.75)
(-119350 759.585 -1476)
(-119555 737.027 -1189.03)
(-119781 714.582 -1016.42)
(-120006 697.694 -969.808)
(-120220 684.941 -1055.72)
(-120408 677.481 -1285.34)
(-120558 675.598 -1669.88)
(-120668 681.001 -2226.64)
(-120730 691.229 -2986.04)
(-120662 706.382 -3997.31)
(-120232 723.877 -5306.19)
(-119133 743.324 -6775.64)
(-117311 754.555 -7960.5)
(-115113 757.538 -8446.65)
(-112967 751.302 -8253.02)
(-111124 740.386 -7684.56)
(-109688 725.151 -6960.97)
(-108665 698.241 -6236.03)
(-107977 658.096 -5582.29)
(-107551 616.104 -5040.98)
(-107325 571.276 -4603.84)
(-107242 521.714 -4250.66)
(-107280 469.921 -3955.91)
(-107413 415.547 -3704.3)
(-107609 357.564 -3484.33)
(-107848 295.777 -3282.91)
(-108115 230.915 -3093.28)
(-108393 163.444 -2913.55)
(-108666 92.2695 -2746.37)
(-108915 14.0849 -2598.79)
(-109131 -75.4465 -2480.8)
(-109310 -181.586 -2403.22)
(-109463 -308.279 -2374.64)
(-109635 -458.66 -2390.6)
(-109957 -639.795 -2452.65)
(-110504 -855.593 -2502.35)
(-111032 -1095.81 -2417.52)
(-110717 -1433.43 -1764.33)
(-109995 -2024.13 149.078)