/*--------------------------------*- C++ -*----------------------------------*\
| =========                 |                                                 |
| \\      /  F ield         | OpenFOAM: The Open Source CFD Toolbox           |
|  \\    /   O peration     | Version:  4.1                                   |
|   \\  /    A nd           | Web:      www.OpenFOAM.org                      |
|    \\/     M anipulation  |                                                 |
\*---------------------------------------------------------------------------*/
FoamFile
{
    version     2.0;
    format      ascii;
    class       volScalarField;
    location    "96";
    object      nut;
}
// * * * * * * * * * * * * * * * * * * * * * * * * * * * * * * * * * * * * * //

dimensions      [0 2 -1 0 0 0 0];

internalField   nonuniform List<scalar> 
4432
(
34.9368
36.0261
37.0285
38.1534
39.2178
40.3936
41.2977
42.5771
43.1977
44.4594
44.5078
44.5724
44.9244
43.2028
47.2378
47.4926
90.0756
298.941
370.572
724.453
1005.74
1228.3
1517.64
1640.36
1735.67
1716.82
1534.7
1347.49
1176.44
1180.73
1159.68
1375.72
1520
1465.24
817.816
291.167
263.087
204.631
216.931
222.805
266.104
126.693
74.6466
87.4039
62.341
64.5449
57.5423
74.8009
91.424
104.486
134.53
300.208
253.105
207.573
35.044
35.9301
37.1775
38.1409
39.3019
40.2939
41.3861
42.3518
43.2307
44.2247
44.4563
44.5904
44.9535
43.878
46.4481
48.1918
75.7739
242.363
380.597
719.279
1028.23
1168.28
1411.11
1468.51
1551.69
1470
1294.06
1139.4
1040.37
946.001
862.448
734.193
720.059
704.827
659.293
168.209
230.438
89.1368
92.8856
78.0658
161.599
78.7008
83.2278
63.4617
61.7031
48.2951
42.3783
121.568
146.478
216.237
198.013
292.613
208.798
198.053
2.71683e-06
2.85884e-06
0.00174241
0.0578531
0.19579
0.49626
0.993128
1.58553
2.05817
3.59162
5.87335
7.26125
8.16089
9.15575
19.0031
490.395
54.3462
887.443
3702.9
5333.28
6200.07
7781.93
7955.87
8700.04
8822.75
7410.93
5872.06
4039.83
4279.8
5275.87
6046.95
8215.79
8225.43
4418.86
2008.18
575.415
328.307
132.769
312.019
717.492
1002.71
520.297
346.503
145.859
70.9936
17.7327
13.6804
106.632
474.346
61.7491
868.088
33.6838
20.9382
3.95761
2.71718e-06
2.87851e-06
0.00193155
0.0576339
0.191615
0.481451
0.95777
1.81029
1.60844
4.76119
3.40627
9.40731
9.42998
12.3822
11.5557
10.5542
70.8322
1238.95
3617.74
6081.07
6434.63
7574.83
7798.65
7911.69
7439.3
5174.11
3248.83
2666.04
2537.61
1841.5
2205.85
2871.56
4359.11
2396.73
1185.99
155.214
107.613
20.8826
41.8154
54.0453
260.534
125.426
52.9278
22.6485
16.6463
2.18727
8.05115
92.562
38.4245
36.2693
3183.07
65.2254
5.58637
6.66392
2.68653e-06
8.86018e-09
8.32456e-08
6.91887e-05
0.00116665
0.00578203
0.0125495
0.0387541
0.0771803
0.148175
0.274837
0.469175
0.514689
0.722867
0.860439
1.87859
30.6949
4193.35
9626.93
11052
10856.9
11024.5
10938.2
10349.5
9100.66
6192.67
4091.44
3399.04
3682.34
5344.01
5762.77
7326
5883.88
2442.04
834.917
1462.01
353.765
312.683
522.274
1560.16
3444.54
1504.58
435.676
371.343
174.344
97.7087
10.9759
57.1355
182.209
778.564
9841.93
5005.72
746.29
0.860917
2.68658e-06
8.86457e-09
1.01445e-07
3.59318e-05
0.00259371
0.0100911
0.0297393
0.023573
0.16749
0.183119
0.267581
0.727606
1.26328
1.19164
2.39886
1.79967
99.1071
2570.09
9204.44
10573.7
10190.4
10046.9
9358.47
7826.8
6698.19
4208.43
2888.19
2346.54
2069.26
2010.01
3231.38
4916.03
3240.6
1704.78
583.547
123.461
76.811
24.0493
8.09552
7.12467
903.446
146.481
27.7374
17.509
29.2239
15.5812
11.868
77.7526
109.946
2203.35
8819.17
2626.34
9.43746
0.378171
2.68653e-06
8.85308e-09
4.2077e-10
9.35343e-09
0.000419468
0.000746019
0.000636344
0.000525766
0.00852664
0.0129744
0.00844504
0.101456
0.122944
0.16461
0.195948
6.82891
232.169
2593.75
8412.56
10482.4
10117.5
9503.81
8519.35
8265.1
7893.58
5711.41
4559.2
4910.46
4680.47
5907.66
9925.5
13731.5
13742.3
12654.6
12886.8
6529.96
2895.94
112.778
2410.07
4378.44
11175.4
5003.91
247.61
184.701
109.761
0.36303
1.44799
11.4487
103.635
477.437
1584.54
1164.38
488.636
154.606
2.68657e-06
8.86318e-09
4.11357e-10
3.62367e-09
1.30869e-05
0.000127778
0.00112504
0.00359464
0.00763304
0.00442868
0.0260642
0.0286236
0.169639
0.252544
0.366461
0.248751
167.739
1736.54
7809.64
9626.57
9001.83
8080.7
6938
8181.83
7462.67
4988.6
4356.09
4694.34
4650.51
5263.2
9746.51
12360.3
10172.2
3837.11
2220.89
312.738
27.2017
6.43473
2.61007
0.612913
3962.85
1229.32
4.06424
1.82467
126.562
7.74307
85.9998
95.4862
118.213
313.685
2200.48
430.876
37.2018
22.6182
2.68652e-06
8.85283e-09
4.25793e-10
4.7977e-12
1.83476e-09
4.67576e-07
2.46911e-05
0.000100546
0.000268017
0.0100789
0.00103536
0.00744318
0.0186024
0.00749886
0.0873467
0.239713
19.1077
229.205
3942.15
5798.31
6836.26
5668.15
5588.81
5844.26
7256.22
5931.8
6492.7
8415.78
9778.7
13306
20389.1
25210.1
26893.4
29438.4
27322.1
10651.8
398.662
37.4047
204.405
2177.53
13057.7
3950.46
166.712
9.75741
16.1742
0.0863647
0.249037
6.11653
1639.18
1.13932e-10
0.0299996
0.000331481
16.2299
0.00427316
2.68656e-06
8.86377e-09
4.32386e-10
4.82826e-12
1.47118e-06
4.61049e-07
2.63404e-05
0.000181997
0.000513351
0.000638937
0.0085372
0.00634888
0.00876268
0.0282926
0.0880929
6.82835
50.2375
433.253
2394.06
4106.22
4643.91
3423.94
4132.53
7085.37
6935.44
6494.19
9215.71
10948.2
11783.7
14406
19345.5
22870.2
24057.6
20469.7
11622.8
120.167
8.74539
0.515708
2.6641
240.312
4092.84
1842.09
15.5745
1.77098
0.0958102
0.00400902
2.61483
0.7192
0.00098872
0.000301532
2079.95
126.402
4.52695
0.00104513
2.68651e-06
8.85227e-09
4.42586e-10
4.0075e-12
1.7102e-12
4.50841e-08
8.6271e-07
5.78108e-06
1.11942e-05
7.92695e-05
3.08467e-06
0.000601963
0.00112476
0.00741384
0.0112213
0.00379237
0.000530539
0.206687
831.052
1059.48
1678.54
1539.65
4792.25
5228.68
5730.25
5293.64
6183.88
10566.7
14184.1
18469
24923.3
29980.8
31883.9
29969.6
13432.6
101.348
0.00145915
2.68199e-09
0.00897922
188.892
12480.7
212.805
33.1014
6.27966
6.66442
0.000545782
7.27691e-05
1.04746
0.262624
6.37083e-10
0.000212539
0.000338255
0.00628666
8.38693e-10
2.68653e-06
8.86308e-09
4.43494e-10
3.98726e-12
4.30074e-13
1.07253e-08
6.14889e-07
5.38871e-06
3.40975e-06
2.30199e-05
9.5007e-05
9.24319e-05
3.28128e-05
0.00232679
0.0103026
7.84076
5.69503
20.1939
88.4046
274.726
968.114
1494.13
3256.89
5070.89
5736.76
6620.62
9458.64
13090.3
14470.6
17081.3
22301.6
26143
25735
15432.9
215.345
26.6015
1.43271e-08
6.20198e-17
5.2672e-06
1.81038e-06
1019.28
80.6909
14.9383
1.16682e-09
8.48297e-06
0.00169605
0.00207629
0.00192845
1.12641e-11
1.99164e-08
0.000770838
1.29282e-07
4.95368e-07
6.93003e-09
2.68644e-06
8.85354e-09
4.43672e-10
4.01157e-12
6.04312e-13
3.29175e-11
3.15023e-08
3.37515e-07
3.31102e-06
4.39907e-07
2.6661e-08
6.58556e-05
3.97843e-05
0.000771064
0.000642049
0.000239901
2.19859e-06
0.00266821
11.3894
13.1904
6.58467
2.59204
1614.57
4104.87
5195.63
4911.14
5264.04
8380.56
12742.7
17309.8
23597
27711.7
27171.9
16266.8
852.532
955606
61.6837
3.85557e-07
4.00816e-07
2.65995e-05
0.549984
0.0280562
4.42442
0.0037932
8.23265
1.2224
9.57993e-07
35.7253
3.04932e-19
1.59868e-05
3.28166e-06
3.72414e-05
3.68671e-05
5.41325e-09
2.68646e-06
8.86372e-09
4.4437e-10
3.99282e-12
6.2205e-13
6.97704e-12
2.17268e-08
3.626e-07
1.51353e-05
1.86833e-06
0.000260929
3.31181e-07
1.04637e-07
0.000274084
0.00130465
0.478247
0.494388
0.0112603
0.961935
2.36622
0.987945
0.0770468
99.9868
4060.77
4528.13
5287.09
7633.27
11352.1
12018.2
15068.3
19147.1
23191.8
18960.9
5499.46
0.33551
426.814
5.21917e-11
7.1582e-16
3.83963e-09
3.9647e-11
0.00170603
6.53124e-09
7.519e-09
4.13799e-11
1.68247e-12
3.23868e-08
2.29907e-05
0.000150387
8.98265e-17
1.36589e-16
1.03462e-12
4.98087e-11
1.02711e-08
2.95484e-09
2.68634e-06
8.84939e-09
4.28986e-10
4.19894e-12
6.77837e-13
1.40176e-12
9.2429e-10
5.73177e-09
3.46871e-08
7.18282e-08
1.81577e-10
2.99632e-06
9.91207e-07
0.000123651
2.87252e-05
2.11286e-06
3.02708e-15
1.62743e-06
7.97935e-07
3.74106e-05
6.66194e-07
0.0343348
25.5062
1012.25
4935.07
5364.61
4196.04
2579.37
3846.62
7151.52
16657.3
21644.6
17571.4
7519.23
0.998964
2.41195e-08
2.83094e-11
1.54322e-11
2.23826e-08
2.272e-06
0.0418323
0.000967509
0.651713
1.81625e-07
0.000614375
5.12008e-05
7.57533e-08
8.09849e-13
2.35659e-08
1.8139e-08
5.42268e-07
8.99593e-08
1.07931e-05
1.7351e-07
2.68634e-06
8.85999e-09
4.29593e-10
4.18405e-12
6.83879e-13
5.41992e-14
7.27655e-11
9.76798e-10
1.28219e-07
2.47009e-07
2.76108e-05
3.162e-08
1.42923e-09
2.92232e-05
9.43209e-05
1.73789e-06
4.67833e-09
1.81889e-10
6.07966e-08
1.67816e-05
1.02438e-08
1.72922e-06
0.00447846
908.287
2212.9
4596
2575.39
6555.13
7634.07
7528.81
9207.54
13812.6
10582.8
46.024
2.59148e-05
3.50863e-15
1.75576e-15
1.47413e-08
2.30003e-06
9.97205e-09
1.32731e-12
2.84877e-14
7.60537e-06
8.2965e-16
3.62015e-15
6.32975e-15
4.27818e-09
1.46641e-17
4.08956e-13
1.76842e-12
8.30221e-09
1.03189e-05
1.52518e-07
2.04826e-07
2.68617e-06
8.8522e-09
4.30035e-10
4.19878e-12
6.8242e-13
2.04108e-13
1.10365e-11
7.9502e-11
3.57375e-10
6.0745e-10
6.89331e-09
3.0494e-07
1.03747e-07
1.58062e-06
1.49737e-05
7.08805e-07
2.20448e-10
6.94252e-08
6.42904e-14
9.19422e-14
3.64425e-14
1.97915e-08
0.000259921
35.4371
2409.61
6434.19
2367.38
79.0063
13.3967
9.46726
534.945
1852.78
6040.75
265.756
0.0589569
4.18026e-07
3.49395e-10
1.69839e-11
5.24033e-08
9.65641e-09
1.72526e-09
3.56564e-10
0.001299
5.90408e-13
3.19334e-11
2.84551e-12
9.36163e-09
9.24793e-13
2.2574e-07
4.31343e-07
5.92908e-07
7.13449e-07
7.57147e-07
2.89172e-07
2.68617e-06
8.86209e-09
4.30591e-10
4.19082e-12
6.74975e-13
3.22185e-13
7.84683e-13
1.43041e-11
7.36845e-10
5.56417e-09
1.52579e-07
4.93696e-08
1.01457e-07
8.47108e-06
2.59111e-05
2.42502e-07
4.69838e-08
3.58321e-15
5.37739e-15
6.24539e-13
9.48437e-16
3.41639e-10
1.1714e-06
35.1536
32.4519
1674.28
17.977
360.929
961.603
599.78
307.497
396.165
232.878
0.00226832
5.15909e-14
2.59536e-16
8.91358e-16
8.69473e-08
4.71237e-05
1.29068e-05
2.17667e-11
2.27523e-09
3.13225e-09
4.88332e-12
1.13888e-14
4.10002e-15
4.20687e-13
9.65792e-11
1.44244e-08
1.92587e-07
3.58197e-07
3.39297e-07
4.2846e-07
3.93932e-07
2.68597e-06
8.84827e-09
4.31104e-10
4.19252e-12
6.77974e-13
2.88017e-13
2.23487e-12
1.38489e-12
4.33392e-12
1.57845e-11
2.28207e-11
6.21155e-09
9.77828e-09
4.79062e-08
4.67406e-07
4.36496e-07
7.68096e-08
2.92215e-08
1.71019e-14
6.478e-17
8.84921e-16
2.09121e-14
9.91291e-13
0.405851
160.753
2057.79
22.0416
0.0368844
0.000726546
9.68791e-06
1.24458
5.77584
206.083
2.74785
2.39988e-05
1.54748e-12
1.29399e-15
3.41087e-11
7.69651e-08
6.81061e-08
3.08174e-05
0.000203237
0.000178264
1.52491e-07
2.45846e-15
6.96315e-14
5.61028e-10
5.44877e-13
1.56629e-08
8.34037e-08
5.34954e-07
2.34372e-07
3.2651e-07
3.72917e-07
2.68595e-06
8.85914e-09
4.31859e-10
4.16581e-12
6.73004e-13
3.27436e-13
6.09891e-13
8.10904e-13
1.76568e-11
1.32763e-10
3.10032e-09
3.41929e-09
2.25506e-09
1.79525e-07
1.93122e-06
3.08014e-08
1.65985e-10
2.57789e-11
3.5357e-16
8.10805e-16
2.66433e-16
1.33498e-11
0.00151252
0.0223778
0.0258727
22.9812
0.00720435
0.736686
6.12416
1.40362
2.4617
1.2567
0.353805
1.93424e-10
9.3871e-17
1.14822e-16
1.17577e-10
8.9533e-07
0.000367655
6.69515e-05
3.65034e-10
3.91699e-06
3.66491e-05
7.78984e-07
5.12808e-10
1.40609e-10
1.2449e-10
8.52978e-12
5.64232e-10
2.68185e-08
1.14845e-07
2.98737e-07
5.08622e-07
5.53285e-07
2.68571e-06
8.85162e-09
4.32146e-10
4.17728e-12
6.76099e-13
3.38962e-13
5.63225e-13
6.50333e-13
7.84815e-13
9.72745e-13
6.32959e-13
1.48425e-10
3.03977e-10
6.2857e-09
1.73623e-08
6.18077e-08
3.12232e-08
1.22798e-08
2.8588e-11
8.9493e-15
2.55269e-14
7.85895e-11
1802.18
0.183666
44.9944
28.0782
2.07828
3.24735e-05
1.37747e-10
5.46111e-05
0.00598415
0.00704887
0.842709
6.57024e-06
9.78895e-13
4.25567e-16
2.94784e-11
7.97188e-09
4.8611e-06
1.58775e-07
1.71566e-09
1.05036e-08
6.71897e-06
6.1965e-09
5.98277e-15
6.9959e-15
2.9357e-10
3.42348e-11
3.33199e-09
3.32648e-08
4.95818e-08
6.86845e-09
1.12988e-09
6.35687e-08
2.6857e-06
8.86248e-09
4.32848e-10
4.1611e-12
6.68305e-13
3.24173e-13
5.68795e-13
9.76903e-13
7.06435e-13
1.39538e-12
2.20019e-11
1.88972e-10
1.59939e-10
1.65481e-09
1.48182e-07
2.94871e-09
2.06248e-10
4.95077e-11
1.8066e-13
3.00798e-15
3.32208e-14
1.29973e-10
1.87696e-05
5.48644e-05
0.00489339
0.0138962
3.85135e-06
0.000404572
0.000348247
0.000129149
4.23134e-07
8.24336e-07
3.73115e-10
4.49904e-16
2.33518e-16
2.71277e-10
4.10635e-07
1.63508e-05
0.00217957
0.000367732
1.19302e-08
4.62677e-10
5.01848e-07
1.32632e-08
6.17045e-10
3.73536e-10
1.69807e-10
6.25052e-11
6.75121e-11
8.71653e-10
3.72305e-10
6.88293e-10
5.5024e-10
9.26875e-08
2.68543e-06
8.84461e-09
4.31659e-10
4.19125e-12
6.72438e-13
3.3254e-13
5.62487e-13
5.4187e-13
1.64976e-12
3.71558e-12
7.74864e-13
1.66469e-12
9.78503e-12
2.51098e-10
1.44301e-09
3.41206e-09
2.21768e-09
2.03051e-09
4.34096e-10
1.48026e-11
4.13995e-18
3.47302e-19
4.93023e-21
0.00717167
8.1707
0.878294
0.0657985
9.89149e-05
6.01418e-09
5.51303e-16
1.13759e-09
5.08837e-09
2.09026e-07
6.35911e-12
5.41031e-14
3.53411e-09
3.69035e-06
1.11596e-06
4.90821e-05
2.64155e-06
2.6946e-08
3.73444e-11
5.86236e-10
2.31243e-12
8.54459e-15
2.34856e-13
4.73826e-11
1.96044e-14
7.68654e-10
1.32508e-08
8.10452e-09
2.20033e-09
7.71535e-11
4.72081e-09
2.68539e-06
8.85662e-09
4.32244e-10
4.19693e-12
6.79562e-13
3.31596e-13
5.83707e-13
8.17342e-13
3.79256e-13
6.07037e-13
2.27875e-12
8.9456e-12
9.71819e-12
8.69222e-11
1.39296e-09
1.35532e-10
2.50163e-11
1.49001e-11
3.26158e-12
2.28374e-13
3.1593e-11
5.62847e-09
2.16623e-06
2.81245e-05
0.00465968
0.00754731
2.00322e-06
6.27237e-09
5.01183e-11
2.19019e-11
6.23414e-14
8.95645e-14
3.34311e-15
4.36856e-16
1.01337e-14
2.52068e-07
7.91637e-05
6.81404e-06
0.0556276
0.000876131
2.2615e-07
5.48248e-08
9.08192e-09
1.60172e-10
9.98458e-12
5.08454e-12
4.16913e-12
9.80982e-12
4.01797e-12
3.27623e-11
5.67224e-11
5.95576e-11
2.31921e-09
2.32254e-09
2.68513e-06
8.86242e-09
4.56044e-10
3.97213e-12
6.27135e-13
3.17639e-13
3.50936e-13
1.94738e-12
3.95248e-13
5.62932e-13
5.40947e-13
7.3425e-13
1.53772e-12
6.37082e-13
7.00553e-11
2.12071e-10
2.07921e-10
2.36608e-10
1.64783e-10
9.99662e-11
4.03101e-15
5.32295e-21
7.65445e-23
0.0343934
1.61231
0.00327064
4.66858e-09
4.99506e-06
3.61946e-11
0.000233781
9.58127e-13
5.0052e-08
1.23764e-10
5.74462e-12
2.46982e-12
7.16623e-08
1.40647e-05
8.18394e-05
0.00910113
0.000111392
9.27449e-07
1.39e-08
3.07808e-11
1.47854e-13
3.6165e-12
7.79599e-13
6.66107e-12
9.49692e-12
3.30979e-11
7.6582e-10
1.20992e-09
4.71425e-10
7.47321e-11
3.01199e-10
2.6851e-06
8.87615e-09
4.57447e-10
3.95351e-12
6.27196e-13
3.22568e-13
3.9072e-13
1.60459e-12
3.09494e-13
4.43993e-13
5.97754e-13
2.19002e-12
1.9109e-12
6.15046e-12
5.17274e-11
3.79236e-11
4.27024e-12
9.57499e-13
2.17767e-13
6.68824e-14
2.20206e-13
3.28869e-17
1.52822e-19
1.86407
0.0474256
95.3206
46.8735
0.157822
0.0493466
181.395
3.48604e-11
0.00609794
4.94741e-06
6.84805e-17
3.2888e-15
7.82808e-05
0.0349279
0.00018203
0.145607
0.00572186
1.05354e-06
1.1114e-06
1.10638e-08
2.44568e-10
1.39253e-11
4.7035e-11
1.63475e-11
1.54838e-09
8.50336e-11
1.39479e-10
2.47933e-11
3.87738e-11
2.4598e-10
1.58338e-10
2.68477e-06
8.81552e-09
4.37244e-10
4.23533e-12
6.90847e-13
3.41071e-13
5.95325e-13
3.15491e-12
6.96775e-13
8.06567e-13
3.02926e-12
7.90873e-13
9.20865e-13
2.82578e-12
8.00373e-12
1.71993e-11
2.69494e-11
3.98587e-11
4.24755e-11
3.2504e-11
6.01604e-18
1.96621e-06
0.00107599
1.90277e-07
0.0038664
0.024286
0.000567416
8.77887e-05
3.51893e-05
1.9881e-05
1.61227e-06
2.6592e-10
5.7101e-06
1.02041e-07
2.67943e-08
1.42498e-06
0.000396035
0.0164096
4.76327
0.00209711
1.90298e-05
1.22248e-06
8.75752e-10
6.65338e-11
2.24193e-11
1.8214e-12
1.58307e-09
5.27659e-11
4.65626e-11
4.84431e-11
3.58699e-11
2.95503e-11
3.80346e-11
4.87474e-11
2.68479e-06
8.88115e-09
4.54684e-10
3.97925e-12
6.27801e-13
2.86088e-13
1.04183e-12
3.19546e-12
6.85691e-13
6.38451e-13
6.68846e-13
6.60918e-13
3.02954e-12
9.67274e-13
3.96218e-12
3.7362e-12
5.59311e-12
2.85495e-12
1.00203e-12
2.51284e-12
1.18443e-16
2.04057e-05
159.383
25.0299
0.392943
5.7245
4.95165
1.91015
0.603438
0.170763
0.0987415
0.063844
6.26653e-05
1.48298e-08
3.76268e-09
0.00821035
2.47588
0.00166373
6.86174
0.51426
0.000245589
4.72018e-05
1.79098e-07
9.47775e-08
2.20158e-09
1.02345e-10
3.38052e-09
2.18562e-07
1.81833e-08
2.90798e-09
9.13501e-10
7.59154e-12
3.07853e-11
2.52603e-11
2.68454e-06
8.87315e-09
4.59073e-10
3.96488e-12
6.25477e-13
3.16782e-13
5.26636e-13
3.02868e-12
6.74274e-13
7.9983e-13
8.74856e-13
9.51097e-13
9.86738e-13
1.02546e-12
1.05662e-12
3.60365e-12
5.06178e-12
7.98559e-12
7.82361e-12
1.93993e-17
1.70358e-18
3.03713e-12
1.19526e-13
0.00166124
0.00768495
0.00750897
0.00923743
0.00510614
0.00304374
0.000964744
0.000277218
0.000415583
3.10059e-05
4.09229e-06
4.59528e-06
3.64352e-05
0.00199596
0.123048
1.20029
0.0295852
0.000398088
6.4357e-05
1.77264e-08
9.16911e-09
1.87469e-08
3.72033e-07
3.28143e-07
1.23947e-08
2.18539e-09
1.991e-09
2.606e-10
4.13892e-12
1.35424e-11
5.62867e-12
2.68794e-06
8.73695e-09
4.25754e-10
4.45976e-12
7.41687e-13
3.63811e-13
6.13973e-13
7.7292e-13
7.39767e-13
7.57079e-13
6.00661e-13
2.33897e-12
6.45821e-13
8.66159e-13
2.70265e-12
1.29968e-12
1.28553e-12
3.29953e-12
1.10421e-12
1.04406e-12
1.09156e-15
0.00270854
0.000141344
987.166
8.71096
0.653935
2.25507
0.262118
0.106602
0.0482867
0.0897097
0.0212534
0.000647205
2.69634e-05
4.95541e-06
18.8995
77.6036
0.033187
100.823
15.5084
0.00983664
0.00180423
5.98052e-06
1.43824e-05
1.59751e-07
6.51298e-09
2.45153e-07
5.0425e-06
1.23872e-06
1.15596e-07
2.15891e-08
2.89064e-12
5.09621e-12
1.17759e-11
2.68717e-06
8.6249e-09
4.01441e-10
4.77444e-12
8.08495e-13
3.57564e-13
1.26384e-12
3.63929e-12
7.96951e-13
8.44548e-13
2.53935e-12
7.05874e-13
8.24261e-13
8.74795e-13
2.37018e-12
3.84952e-12
1.71384e-12
2.22142e-12
5.3597e-12
2.96649e-15
4.6374e-16
1.49815e-08
1.50275e-07
0.0036715
0.714925
0.175538
0.071966
0.0338016
0.0157563
0.00322853
6.16197e-05
8.83538e-06
6.37052e-07
0.000489643
0.000212445
7.74578e-05
38.8706
15.6201
2.22509
0.22401
0.0140006
5.81164e-07
2.04771e-07
2.62595e-06
3.29531e-05
2.96592e-06
1.47801e-07
8.81233e-08
5.83658e-08
9.44075e-09
1.24398e-11
6.19227e-11
3.86829e-12
2.68363e-06
8.75032e-09
4.46569e-10
4.09689e-12
6.58065e-13
2.97566e-13
2.1496e-12
4.4797e-13
2.41708e-12
3.18561e-13
2.0242e-12
5.32273e-13
2.22306e-12
6.68005e-13
8.786e-13
1.05175e-12
9.24875e-13
8.9765e-13
6.18939e-13
6.43152e-13
2.51467e-15
0.000779591
1.28091
4.6394
0.269311
1.08285
0.258986
0.0969732
0.0532277
0.0577966
0.0210129
0.000443332
1.25674e-06
0.0665404
5328.6
1289.58
4.28258
10373.9
1134.53
7.40015
0.856511
0.000944778
0.000644139
2.1761e-06
2.44355e-08
5.95293e-06
6.77689e-05
3.2685e-05
2.56165e-06
2.13515e-07
3.1947e-12
2.45053e-12
7.1278e-11
2.68386e-06
8.78387e-09
4.42129e-10
4.22224e-12
6.87149e-13
3.37609e-13
6.3195e-13
8.17426e-13
2.60755e-12
6.06445e-13
6.39855e-13
3.18444e-12
7.78832e-13
6.56345e-13
3.46765e-12
1.05253e-12
4.11423e-12
1.54908e-12
1.46555e-12
4.03286e-13
1.05156e-13
4.91658e-07
0.0209049
0.005518
1.24093
0.626616
0.1468
0.122267
0.0857917
0.0581432
0.00188397
1.79055e-05
2.87087e-06
5.95449e-07
1.75513e-06
0.362893
1.23788
2985.99
3468.35
481.596
26.9802
5.84652
1.91884e-06
1.53611e-07
9.33467e-06
0.00114345
7.96557e-05
1.48491e-06
2.33194e-06
7.41403e-07
2.43431e-08
2.2338e-09
4.53893e-09
4.38618e-11
2.6838e-06
8.79734e-09
4.43256e-10
4.19484e-12
6.79145e-13
3.36281e-13
5.7379e-13
6.8776e-13
2.41857e-12
4.75135e-13
5.82474e-13
2.07187e-12
5.90428e-13
7.61478e-13
3.85118e-12
9.43322e-13
1.7239e-12
6.79989e-13
2.41842e-12
5.51095e-13
7.4848e-18
2.37203e-08
0.283024
0.376615
0.0135689
2.2654
0.580985
0.536875
0.486769
0.366102
0.138723
0.0018978
0.000153865
1.35494e-05
2.23152e-13
3565.27
12982.4
707.125
87878.6
19758.7
639.627
71.8451
8.91443e-05
1.45333e-06
6.4994e-16
1.45884e-12
0.000400605
0.00370533
0.000300572
5.16865e-05
7.05385e-06
1.33949e-10
6.44839e-11
6.68801e-10
2.68358e-06
8.8638e-09
4.60577e-10
4.02496e-12
6.36345e-13
3.16566e-13
5.86866e-13
7.51222e-13
2.73021e-12
6.58352e-13
6.96029e-13
2.86427e-12
6.89745e-13
1.96174e-12
4.35495e-12
1.2945e-12
5.06728e-13
7.21379e-13
9.34743e-13
6.98176e-13
6.6259e-09
0.000173125
0.00193546
0.00138142
0.000236836
0.0324433
0.0544252
0.0664305
0.0223001
0.0158428
0.00208942
0.000197772
2.48739e-06
0.0177119
0.000133717
632.974
2774.92
17448.9
39192.8
5906.17
506.723
293.259
8.29727e-06
6.83026e-08
0.00042119
0.0123013
0.00760223
4.42216e-05
1.87465e-05
8.30408e-06
2.87804e-07
1.94633e-07
6.39939e-08
1.29263e-09
2.68348e-06
8.87715e-09
4.61305e-10
4.00837e-12
6.33035e-13
3.14998e-13
5.77033e-13
7.34508e-13
2.67735e-12
6.64581e-13
6.86469e-13
2.47651e-12
6.14721e-13
3.16821e-12
8.23082e-13
2.84067e-12
8.36376e-13
7.09722e-13
3.40667e-12
8.30695e-13
1.17211e-10
0.00380287
0.0335334
0.0374682
0.0888329
0.0910795
0.175456
0.259624
0.363218
0.270542
0.0272263
0.000284946
8.48706e-06
0.000336963
0.00191054
5793.25
69593.9
30342.2
405093
483093
42666
17918.2
11.0115
0.000131651
7.07212e-14
7.71021e-09
0.00662389
0.0271537
0.00381534
0.000354861
0.000271826
2.54514e-08
2.99935e-09
1.77102e-08
2.68331e-06
8.85901e-09
4.55465e-10
4.07424e-12
6.45856e-13
2.78122e-13
2.49679e-12
4.68443e-13
1.52495e-12
4.53075e-12
7.71621e-13
6.44317e-13
2.58549e-12
7.23187e-13
2.96052e-12
6.91186e-13
6.22092e-13
3.66987e-12
9.30461e-13
2.03731e-12
4.42655e-18
7.21812e-06
0.000339937
0.00030582
8.0171e-05
0.0116189
0.0117589
0.0175178
0.00516473
0.00010588
9.79499e-10
2.66288e-11
1.93825e-10
0.00917925
112.625
931.214
20417.3
546333
1.38768e+06
229291
109428
18893.2
0.682305
1.76156e-06
0.00631383
0.13672
0.0283336
0.000223195
0.000156413
2.67512e-05
1.23711e-06
1.25591e-05
1.05312e-06
2.35999e-08
2.6832e-06
8.87128e-09
4.56212e-10
4.06247e-12
6.42805e-13
2.76909e-13
2.48303e-12
4.65118e-13
1.47418e-12
3.73804e-12
5.95334e-13
4.29436e-13
2.11602e-12
6.12744e-13
3.19016e-12
9.02328e-13
6.73031e-13
2.51354e-12
8.47629e-13
6.99452e-13
1.71534e-19
0.000268366
0.00287709
0.00244704
1.09352e-05
0.0539248
0.069192
0.105638
0.0238993
0.00149085
6.31578e-05
2.29251e-06
8.20603e-07
5.25863e-08
0.0126937
48231.6
523532
1.52199e+06
2.71028e+06
1.8833e+06
1.73182e+06
394207
2007.27
0.213172
6.87161e-10
0.0104736
0.0036062
0.293779
0.0994016
0.0572951
0.0195482
1.73868e-06
1.86897e-07
3.73554e-07
2.68301e-06
8.85582e-09
4.55449e-10
4.0696e-12
6.41046e-13
3.13706e-13
5.43844e-13
1.41744e-12
3.22859e-12
5.36819e-13
2.79313e-13
2.13892e-12
6.42119e-13
3.25926e-12
9.56619e-13
4.51808e-13
3.10092e-12
7.98536e-13
2.50212e-12
8.59154e-13
1.74515e-12
3.89913e-06
1.04148e-05
2.87269e-05
4.33397e-05
0.00157639
0.0019471
0.00150407
3.66882e-05
1.60203e-06
9.13121e-09
7.48578e-10
0.0869258
1.52723
23884
789253
1.19e+06
2.30883e+06
2.85997e+06
2.26743e+06
1.72922e+06
614663
1288.4
0.000269756
1.59435e-09
1.96908
0.0983465
0.00376696
0.00047816
6.56117e-05
1.18423e-05
0.000118953
4.88471e-06
1.74148e-07
2.68289e-06
8.86884e-09
4.56242e-10
4.05835e-12
6.38563e-13
3.1259e-13
5.40779e-13
1.35715e-12
3.44337e-12
5.66141e-13
2.04927e-13
1.98229e-12
5.65386e-13
6.70189e-13
2.79773e-12
6.1697e-13
8.6615e-13
3.36221e-12
1.06416e-12
7.66082e-13
2.39868e-18
3.95481e-06
4.60624e-05
0.000342702
0.00232698
0.000405082
0.0256946
0.0554414
0.00809693
0.000794278
0.000263743
0.00011067
0.00014303
11.282
6.56612
55648.2
2.17699e+06
3.14667e+06
3.49602e+06
2.78402e+06
2.2121e+06
1.91675e+06
662461
323.718
0.00530172
17.0128
1.70979
1.61829
0.393469
0.455097
0.204384
0.000393586
1.14861e-05
4.7341e-06
2.68274e-06
8.86221e-09
4.55407e-10
4.09805e-12
6.46028e-13
3.15582e-13
5.76126e-13
1.71809e-12
3.88588e-12
5.46218e-13
3.01232e-13
2.12236e-12
5.24762e-13
6.78169e-13
2.64862e-12
7.28727e-13
7.3769e-13
6.89686e-13
2.45981e-12
3.28612e-12
1.74466e-12
9.7553e-16
1.46165e-08
1.03541e-06
3.95126e-11
0.000284606
6.62241e-05
9.37452e-05
2.85155e-05
4.31291e-06
6.31362e-07
5.80411e-07
1.21771e-15
6.49737e-05
309434
1.13378e+06
2.79632e+06
3.34689e+06
3.45741e+06
2.76761e+06
2.05232e+06
1.59051e+06
34015.4
0.262545
0.0046004
28.5746
0.867767
0.0441789
0.00188682
7.46255e-05
9.38396e-06
0.000157879
1.16312e-05
1.17555e-07
2.68262e-06
8.87543e-09
4.56346e-10
4.08768e-12
6.45012e-13
3.21653e-13
5.639e-13
1.43978e-12
3.44225e-12
4.16581e-13
2.52844e-13
3.85634e-13
5.19698e-13
6.36636e-13
2.73433e-12
7.10765e-13
7.23891e-13
8.10917e-13
6.79875e-13
2.36766e-12
1.5961e-16
1.13855e-08
1.35783e-07
1.69744e-06
0.000244047
0.000411418
0.00256707
0.00131399
0.000410624
3.25566e-05
4.71435e-06
1.45141e-05
2.01867e-05
1084.17
13016.2
2.4811e+06
3.19881e+06
4.21302e+06
4.21796e+06
3.67067e+06
2.62361e+06
1.8643e+06
293576
6060.32
1990.74
270.11
32.0015
11.0915
2.55751
1.45668
0.459768
0.00685187
0.000441591
3.36645e-05
2.68247e-06
8.85976e-09
4.55779e-10
4.09658e-12
6.45167e-13
3.15052e-13
5.77672e-13
1.84582e-12
3.59249e-12
4.99715e-13
3.13018e-13
2.28662e-12
5.08498e-13
6.37108e-13
7.45682e-13
7.85146e-13
3.34611e-12
7.8358e-13
9.11402e-13
4.76852e-13
4.42875e-12
5.69211e-14
1.14223e-09
8.50548e-09
1.44469e-06
1.58398e-05
4.92823e-06
2.64048e-06
1.63042e-06
2.0065e-06
1.4633e-06
2.94403e-07
0.00072337
1.4246e-07
348253
2.61709e+06
3.59849e+06
4.16728e+06
3.88738e+06
2.99122e+06
1.75733e+06
1.1174e+06
8376.32
21.0594
2.48378
65.8939
2.71769
0.188784
0.00154951
6.31172e-05
4.6583e-05
0.000118771
0.00219321
2.99206e-08
2.68232e-06
8.87348e-09
4.56706e-10
4.08492e-12
6.43734e-13
3.21135e-13
5.62887e-13
1.49369e-12
3.6338e-12
4.90214e-13
2.46701e-13
2.16741e-12
4.78344e-13
2.30136e-12
6.54757e-13
7.17251e-13
3.35601e-12
8.18258e-13
9.03399e-13
9.036e-13
9.68641e-13
3.67924e-12
4.04458e-11
1.72642e-06
1.93285e-05
1.967e-05
0.000257838
8.08542e-06
1.04429e-05
4.4522e-06
6.50219e-06
11014.4
6890.63
251289
2.19108e+06
2.96159e+06
4.21374e+06
4.75412e+06
4.32804e+06
3.27392e+06
1.74188e+06
805078
74427.8
11239.8
7608.11
1140.76
267.679
38.9242
6.93778
2.6662
0.64514
0.0113353
0.0208225
1.22561e-09
2.6822e-06
8.86756e-09
4.56983e-10
4.09759e-12
6.47381e-13
2.81206e-13
2.14235e-12
3.50104e-13
4.80562e-13
2.51818e-13
2.48754e-12
5.35569e-13
3.25172e-12
7.08242e-13
7.40835e-13
7.15506e-13
7.17998e-13
3.26114e-12
7.23425e-13
7.54463e-13
4.09285e-12
1.11281e-12
9.73598e-11
9.68976e-10
6.89693e-08
5.52647e-07
1.36055e-07
1.08408e-07
1.63334e-07
1.08222e-06
2.57098e-07
0.000915198
0.00060443
12728.2
2.23943e+06
3.11671e+06
3.90108e+06
4.31355e+06
3.79446e+06
2.51235e+06
1.17434e+06
414741
106453
1084.89
893.847
231.267
10.0163
0.533077
0.00825365
6.97658e-05
9.80205e-07
0.660942
0.00107124
6.1865e-09
2.68206e-06
8.88071e-09
4.57867e-10
4.08667e-12
6.44971e-13
2.78157e-13
2.22047e-12
3.44497e-13
4.56351e-13
2.43068e-13
2.18459e-12
4.48014e-13
5.57502e-13
5.95161e-13
7.09413e-13
6.79599e-13
2.45461e-12
7.0338e-13
3.4749e-12
9.02109e-13
6.95776e-12
2.69625e-18
2.30702e-09
1.95492e-07
2.58305e-06
1.46189e-06
2.05117e-05
2.75446e-06
2.90123e-06
5.25331e-06
3.7421e-06
3.47448e-20
66462
1.14935e+06
2.37162e+06
3.60163e+06
4.56292e+06
4.78963e+06
4.15119e+06
2.61172e+06
1.05207e+06
264214
91253.6
32305.6
7826.5
1777.98
287.883
48.6464
4.94284
2.53484
0.781514
0.418484
0.0213323
2.01729e-10
2.68192e-06
8.86706e-09
4.57507e-10
4.11098e-12
6.48881e-13
3.22796e-13
5.56768e-13
6.92638e-13
2.50123e-12
5.52858e-13
2.69239e-12
5.70781e-13
4.85746e-13
2.49641e-12
6.71848e-13
3.05018e-12
6.99625e-13
7.41543e-13
3.082e-12
8.61401e-13
1.00988e-12
9.54681e-13
5.18002e-12
2.45954e-11
1.99249e-11
2.9759e-08
1.67961e-08
4.82709e-08
6.01655e-08
2.7621e-07
2.5605e-05
1.07145e+06
4264.63
806517
2.29099e+06
3.35176e+06
4.15247e+06
4.34439e+06
3.71914e+06
2.37237e+06
1.12876e+06
429269
129636
43962.1
2243.93
1076.56
49.2371
0.219502
0.317401
0.00101773
8.52649e-06
1.35991e-05
1.85846e-08
1.22155e-07
2.68176e-06
8.88033e-09
4.5834e-10
4.10415e-12
6.47214e-13
3.2342e-13
5.55842e-13
1.44245e-12
3.46571e-12
4.72445e-13
5.32218e-13
5.64234e-13
6.83927e-13
2.83411e-12
6.93462e-13
3.48299e-12
7.53172e-13
4.61052e-13
2.76382e-12
7.74402e-13
1.00173e-12
2.05133e-12
3.36563e-12
1.8217e-08
2.02427e-07
6.70985e-08
1.25304e-06
2.55742e-06
3.364e-06
0.294372
40.1883
5.07216e-06
0.108471
1.96777e+06
2.81308e+06
3.71386e+06
4.63559e+06
4.80673e+06
4.09154e+06
2.55309e+06
1.05427e+06
293277
133252
70560.5
18218.8
3387.66
263.153
44.8568
17.8444
6.90949
2.18029
0.874891
0.000610134
3.92094e-06
2.68164e-06
8.87536e-09
4.59524e-10
4.09269e-12
6.4139e-13
3.12468e-13
6.04262e-13
2.86098e-12
4.29957e-13
1.94423e-12
5.58565e-13
2.86865e-12
6.40024e-13
7.25405e-13
2.99651e-12
7.49958e-13
2.63578e-12
7.13966e-13
3.12397e-12
8.428e-13
8.30532e-13
3.46573e-12
1.39949e-12
2.16233e-12
9.26495e-12
3.2851e-10
1.01385e-09
4.80013e-10
7.70514e-10
2.38686e-09
1.47566e-07
622296
1.54645e+07
1.83166e+06
2.61858e+06
3.51736e+06
4.04892e+06
4.0749e+06
3.43432e+06
2.18251e+06
1.05422e+06
437232
171301
39345.3
2289.4
2011.92
3.39996
0.00021105
0.126421
0.000178215
0.000115132
6.19433e-05
6.30661e-08
1.39861e-07
2.68149e-06
8.88796e-09
4.6032e-10
4.08237e-12
6.39206e-13
2.97244e-13
1.1229e-12
3.77478e-12
5.30425e-13
5.81977e-13
6.46374e-13
2.57594e-12
6.32133e-13
7.08738e-13
2.71008e-12
6.6085e-13
6.85461e-13
7.69185e-13
3.23163e-12
7.70681e-13
4.31691e-13
2.03221e-11
5.76635e-12
4.17602e-10
1.18468e-10
6.2248e-09
4.14607e-08
1.14725e-08
1.73841e-07
4.42663e-08
18890.9
605.739
473542
1.82749e+06
2.83132e+06
3.79604e+06
4.41042e+06
4.4349e+06
3.67822e+06
2.20292e+06
982446
368466
164940
72897.6
18852.4
4723.46
593.65
77.7745
47.5111
0.056463
0.000232167
0.00339394
7.59916e-08
7.90686e-09
2.68136e-06
8.87674e-09
4.6012e-10
4.09818e-12
6.43124e-13
2.98496e-13
1.1304e-12
3.38294e-12
4.49529e-13
2.86069e-12
5.44779e-13
1.31956e-12
4.04475e-13
2.52423e-12
5.74846e-13
1.70237e-12
3.53637e-12
5.79318e-13
6.7417e-13
4.14666e-13
2.90254e-12
9.16458e-13
2.88982e-12
8.80237e-13
2.0371e-12
9.5596e-12
3.60668e-05
9.49745e-10
3.02246e-05
1.52973e-05
0.215692
130916
1.74466e+06
1.86254e+06
2.56026e+06
2.96297e+06
3.29033e+06
3.27455e+06
2.75369e+06
1.77353e+06
865580
352781
137311
23912.6
5742.39
4237.59
11.5879
0.00780828
0.013292
6.5263e-05
0.000623304
0.000352252
7.90767e-05
5.10272e-05
2.68119e-06
8.88992e-09
4.61149e-10
4.08099e-12