/*--------------------------------*- C++ -*----------------------------------*\
| =========                 |                                                 |
| \\      /  F ield         | OpenFOAM: The Open Source CFD Toolbox           |
|  \\    /   O peration     | Version:  4.1                                   |
|   \\  /    A nd           | Web:      www.OpenFOAM.org                      |
|    \\/     M anipulation  |                                                 |
\*---------------------------------------------------------------------------*/
FoamFile
{
    version     2.0;
    format      ascii;
    class       volScalarField;
    location    "96";
    object      p;
}
// * * * * * * * * * * * * * * * * * * * * * * * * * * * * * * * * * * * * * //

dimensions      [0 2 -2 0 0 0 0];

internalField   nonuniform List<scalar> 
4432
(
100961
100962
100963
100965
100967
100970
100974
100979
100984
100990
100996
101004
101011
101019
101027
101035
101041
101045
101049
101058
101073
101090
101109
101129
101151
101175
101197
101215
101229
101241
101252
101263
101279
101300
101320
101331
101338
101346
101353
101359
101363
101366
101368
101370
101371
101369
101367
101364
101360
101354
101347
101340
101334
101328
100961
100962
100963
100965
100967
100970
100974
100979
100984
100990
100996
101004
101011
101019
101027
101035
101041
101045
101049
101058
101074
101091
101110
101130
101152
101176
101198
101215
101230
101243
101255
101267
101281
101299
101318
101330
101338
101346
101353
101359
101363
101366
101368
101370
101370
101370
101366
101362
101359
101353
101347
101341
101334
101329
100960
100960
100961
100963
100965
100968
100972
100976
100981
100987
100994
101001
101009
101019
101029
101041
101057
101074
101088
101097
101108
101123
101138
101152
101167
101182
101197
101213
101230
101246
101259
101271
101283
101292
101303
101314
101326
101340
101352
101361
101364
101363
101366
101369
101371
101370
101367
101365
101361
101358
101351
101341
101329
101328
100960
100960
100961
100963
100965
100968
100972
100976
100981
100987
100994
101001
101009
101018
101029
101041
101057
101075
101088
101097
101108
101122
101136
101150
101164
101179
101195
101212
101228
101243
101255
101265
101277
101293
101306
101317
101329
101341
101352
101361
101364
101364
101367
101370
101371
101370
101368
101365
101363
101360
101353
101339
101327
101328
100959
100959
100960
100962
100964
100967
100971
100975
100981
100986
100993
101000
101008
101018
101028
101040
101052
101064
101075
101088
101103
101119
101134
101148
101163
101180
101198
101215
101233
101250
101263
101274
101288
101303
101313
101320
101332
101347
101361
101371
101371
101368
101371
101375
101375
101373
101370
101366
101361
101356
101349
101341
101333
101329
100959
100959
100960
100962
100964
100967
100971
100975
100981
100986
100993
101000
101008
101018
101028
101040
101052
101064
101075
101088
101103
101118
101133
101147
101161
101178
101196
101213
101231
101249
101262
101271
101284
101300
101314
101323
101334
101347
101360
101369
101371
101369
101371
101375
101375
101373
101370
101367
101362
101357
101351
101340
101333
101330
100956
100957
100958
100960
100962
100965
100968
100973
100978
100984
100990
100997
101005
101014
101024
101035
101047
101058
101069
101083
101099
101115
101129
101143
101160
101180
101200
101220
101240
101258
101272
101287
101308
101322
101325
101322
101331
101348
101362
101374
101374
101371
101376
101380
101379
101376
101373
101368
101363
101355
101349
101344
101336
101328
100956
100957
100958
100960
100962
100965
100968
100973
100978
100984
100990
100997
101005
101014
101024
101035
101047
101058
101069
101083
101099
101115
101129
101143
101160
101180
101200
101219
101240
101259
101272
101286
101305
101319
101326
101329
101337
101350
101363
101372
101372
101372
101376
101380
101379
101376
101372
101368
101362
101357
101352
101345
101336
101328
100954
100954
100955
100957
100959
100962
100966
100970
100975
100980
100987
100994
101002
101010
101020
101030
101042
101053
101063
101075
101089
101105
101121
101136
101155
101179
101204
101227
101251
101271
101288
101307
101329
101344
101369
101309
101321
101348
101371
101389
101386
101379
101385
101386
101384
101380
101376
101372
101367
101360
101353
101346
101338
101331
100954
100954
100955
100957
100959
100962
100966
100970
100975
100980
100987
100994
101002
101010
101020
101030
101042
101053
101063
101075
101089
101105
101121
101137
101157
101180
101204
101227
101253
101274
101290
101307
101327
101339
101345
101335
101338
101354
101373
101386
101385
101381
101384
101386
101384
101380
101376
101371
101366
101360
101355
101347
101337
101330
100951
100951
100952
100954
100956
100959
100962
100966
100971
100976
100982
100989
100997
101005
101014
101024
101035
101045
101056
101067
101081
101095
101110
101126
101146
101171
101198
101225
101252
101276
101293
101313
101337
101413
101548
101363
101306
101327
101358
101369
101378
101399
101400
101395
101390
101386
101381
101375
101369
101363
101355
101346
101339
101332
100951
100951
100952
100954
100956
100959
100962
100966
100971
100976
100982
100989
100997
101005
101014
101024
101035
101045
101055
101067
101080
101096
101111
101127
101148
101172
101198
101224
101252
101277
101294
101308
101325
101357
101385
101345
101324
101345
101376
101397
101405
101395
101394
101393
101390
101386
101382
101376
101370
101362
101354
101347
101339
101331
100947
100947
100948
100950
100952
100954
100958
100962
100966
100971
100977
100984
100991
100999
101008
101017
101027
101037
101048
101059
101071
101086
101101
101115
101130
101154
101183
101209
101232
101256
101280
101308
101353
101529
101484
101454
101339
101351
101375
101385
101395
101411
101410
101403
101397
101393
101388
101382
101375
101367
101358
101348
101338
101332
100947
100947
100948
100950
100952
100954
100958
100962
100966
100971
100977
100984
100991
100999
101008
101017
101027
101037
101048
101059
101071
101086
101102
101116
101133
101156
101182
101205
101231
101256
101277
101298
101325
101377
101435
101393
101320
101338
101375
101393
101401
101405
101405
101401
101396
101391
101386
101380
101374
101365
101356
101347
101339
101331
100942
100943
100944
100945
100947
100950
100953
100957
100961
100966
100971
100978
100985
100993
101001
101010
101019
101029
101040
101050
101062
101075
101088
101101
101111
101129
101156
101178
101198
101214
101236
101269
101300
101359
101409
101418
101356
101364
101388
101402
101408
101412
101411
101406
101401
101396
101390
101384
101376
101367
101357
101347
101336
101331
100942
100943
100944
100945
100947
100950
100953
100957
100961
100966
100971
100978
100985
100993
101001
101010
101019
101029
101040
101051
101062
101075
101088
101102
101114
101132
101154
101174
101195
101217
101237
101263
101303
101345
101385
101371
101348
101363
101389
101404
101410
101412
101409
101404
101399
101394
101388
101382
101375
101366
101356
101346
101336
101331
100938
100938
100939
100940
100942
100944
100947
100951
100955
100960
100965
100971
100978
100985
100993
101002
101011
101021
101031
101041
101052
101062
101073
101083
101090
101098
101116
101138
101161
101184
101208
101236
101278
101322
101362
101363
101360
101377
101398
101410
101415
101416
101415
101411
101404
101398
101393
101386
101378
101369
101358
101346
101335
101330
100938
100938
100939
100940
100942
100944
100947
100951
100955
100960
100965
100971
100978
100985
100993
101002
101011
101021
101031
101041
101052
101062
101072
101082
101090
101100
101117
101138
101159
101181
101206
101238
101280
101322
101355
101366
101372
101386
101404
101415
101419
101418
101415
101411
101406
101399
101393
101386
101379
101369
101358
101347
101337
101332
100932
100933
100933
100935
100936
100939
100941
100944
100948
100953
100958
100963
100970
100977
100984
100993
101002
101012
101022
101032
101041
101049
101055
101060
101063
101065
101077
101102
101131
101160
101189
101224
101268
101312
101352
101374
101391
101408
101423
101432
101434
101433
101429
101424
101416
101408
101400
101392
101383
101372
101360
101348
101336
101331
100932
100933
100933
100935
100936
100939
100941
100944
100948
100953
100958
100963
100970
100977
100984
100993
101002
101012
101022
101032
101041
101049
101055
101059
101061
101065
101079
101103
101130
101159
101190
101225
101268
101313
101351
101376
101394
101411
101427
101437
101439
101437
101433
101427
101419
101411
101402
101393
101384
101373
101361
101349
101337
101333
100927
100927
100928
100929
100930
100932
100935
100938
100941
100945
100950
100955
100961
100967
100975
100983
100992
101002
101012
101023
101031
101038
101039
101035
101026
101022
101037
101070
101107
101142
101179
101219
101263
101310
101353
101387
101414
101437
101454
101463
101463
101458
101449
101440
101430
101419
101408
101397
101386
101375
101362
101349
101335
101329
100927
100927
100928
100929
100930
100932
100935
100938
100941
100945
100950
100955
100961
100967
100975
100983
100992
101002
101012
101023
101031
101038
101039
101034
101025
101022
101039
101071
101107
101142
101179
101220
101265
101311
101353
101387
101414
101437
101455
101465
101466
101460
101452
101442
101432
101421
101409
101398
101388
101376
101363
101350
101333
101333
100921
100921
100921
100922
100924
100925
100928
100930
100933
100937
100941
100945
100951
100957
100965
100973
100982
100992
101003
101015
101025
101031
101029
101012
100978
100959
100982
101029
101076
101117
101159
101204
101253
101305
101353
101396
101433
101463
101484
101494
101492
101482
101468
101454
101441
101428
101415
101401
101389
101376
101363
101350
101333
101330
100921
100921
100921
100922
100924
100925
100928
100930
100933
100937
100941
100945
100951
100957
100965
100973
100982
100992
101003
101015
101025
101031
101028
101012
100977
100959
100984
101030
101076
101117
101159
101205
101255
101305
101353
101396
101433
101463
101485
101495
101494
101483
101470
101456
101443
101429
101416
101403
101390
101377
101363
101349
101330
101335
100914
100914
100915
100916
100917
100918
100920
100922
100925
100928
100931
100935
100940
100946
100953
100961
100970
100981
100994
101009
101023
101033
101029
100996
100914
100877
100913
100980
101039
101085
101129
101180
101235
101293
101351
101406
101454
101493
101520
101529
101522
101505
101486
101469
101452
101435
101418
101403
101390
101376
101363
101349
101331
101331
100914
100914
100915
100916
100917
100918
100920
100922
100925
100928
100931
100935
100940
100946
100953
100961
100970
100981
100994
101009
101023
101033
101028
100992
100907
100875
100918
100984
101040
101084
101129
101180
101235
101293
101351
101406
101455
101495
101523
101530
101522
101506
101488
101471
101453
101435
101418
101403
101390
101377
101363
101348
101329
101331
100908
100908
100908
100909
100910
100911
100912
100914
100916
100918
100921
100925
100929
100934
100940
100947
100957
100968
100983
101003
101028
101056
101069
101009
100824
100729
100818
100930
101000
101043
101089
101146
101208
101274
101343
101412
101476
101528
101567
101574
101557
101529
101503
101481
101459
101438
101419
101403
101389
101375
101361
101348
101329
101332
100908
100908
100908
100909
100910
100911
100912
100914
100916
100918
100921
100925
100929
100934
100940
100947
100957
100968
100983
101003
101028
101056
101071
101006
100807
100733
100826
100929
100998
101043
101089
101145
101208
101274
101343
101409
101477
101528
101582
101586
101561
101527
101499
101477
101456
101436
101418
101402
101388
101375
101361
101348
101331
101330
100901
100901
100901
100902
100902
100903
100904
100905
100906
100908
100910
100913
100916
100920
100925
100932
100940
100952
100967
100990
101027
101092
101157
101147
100586
100489
100655
100882
100971
100995
101036
101099
101169
101243
101324
101408
101493
101553
101622
101633
101594
101542
101506
101482
101459
101436
101416
101399
101385
101372
101360
101348
101333
101331
100901
100901
100901
100902
100902
100903
100904
100905
100906
100908
100910
100913
100916
100920
100925
100932
100940
100952
100967
100990
101026
101091
101154
101137
100514
100552
100705
100888
100968
100997
101040
101100
101169
101243
101327
101413
101504
101538
101619
101634
101589
101535
101503
101481
101458
101435
101415
101399
101384
101371
101359
101348
101335
101329
100894
100894
100894
100894
100894
100895
100895
100896
100897
100898
100899
100900
100903
100905
100909
100914
100921
100930
100943
100962
100992
101040
101157
101443
100438
100628
100855
100938
100939
100967
101028
101101
101185
101283
101389
101505
101550
101630
101687
101633
101554
101508
101481
101455
101429
101408
101391
101376
101364
101353
101344
101335
101327
100894
100894
100894
100894
100894
100895
100895
100896
100897
100898
100899
100900
100903
100905
100909
100914
100921
100930
100943
100962
100991
101039
101155
101431
100406
100644
100861
100940
100945
100974
101033
101104
101187
101274
101398
101515
101515
101513
101659
101621
101553
101510
101480
101452
101426
101406
101390
101376
101364
101354
101344
101335
101327
100887
100887
100887
100887
100887
100887
100886
100886
100886
100887
100887
100887
100888
100889
100891
100894
100898
100903
100910
100918
100927
100925
100887
100815
100527
100534
100808
100957
100955
100918
100919
100953
101007
101084
101187
101297
101426
101468
101541
101729
101675
101587
101521
101473
101436
101408
101388
101372
101360
101350
101342
101336
101331
101324
100887
100887
100887
100887
100887
100887
100886
100886
100886
100887
100887
100887
100888
100889
100891
100894
100898
100903
100910
100918
100927
100924
100885
100805
100522
100581
100835
100958
100949
100918
100923
100958
101008
101075
101131
101292
101313
101557
101496
101543
101578
101557
101516
101471
101434
101407
101388
101373
101360
101350
101343
101336
101331
101324
100880
100880
100880
100879
100879
100878
100878
100877
100876
100876
100875
100874
100873
100873
100872
100872
100873
100873
100873
100872
100866
100848
100815
100749
100678
100687
100830
100906
100908
100895
100889
100890
100906
100958
101111
101273
101262
101485
101782
101621
101587
101557
101498
101440
101399
101375
101360
101349
101341
101335
101331
101328
101327
101322
100880
100880
100880
100879
100879
100878
100878
100877
100876
100876
100875
100874
100873
100873
100872
100872
100873
100873
100873
100872
100865
100848
100814
100749
100674
100694
100830
100899
100903
100892
100887
100891
100903
100932
100975
101188
101019
101455
101911
100995
101401
101533
101501
101447
101402
101376
101360
101349
101341
101335
101331
101328
101327
101322
100873
100873
100872
100872
100871
100870
100869
100868
100866
100864
100862
100860
100858
100856
100853
100850
100847
100843
100837
100829
100818
100799
100773
100734
100688
100680
100724
100773
100803
100819
100824
100815
100798
100786
100880
101142
102168
101488
100689
100966
101425
101521
101465
101401
101359
101340
101330
101324
101320
101319
101320
101321
101323
101321
100873
100873
100872
100872
100871
100870
100869
100868
100866
100864
100862
100860
100858
100856
100853
100850
100847
100843
100837
100829
100817
100799
100772
100734
100687
100682
100725
100772
100801
100816
100821
100815
100800
100720
100847
101152
101691
99896.8
100357
99795.3
100480
101357
101461
101410
101364
101341
101330
101324
101320
101319
101320
101321
101323
101321
100866
100866
100866
100865
100864
100862
100860
100858
100856
100853
100850
100847
100843
100838
100833
100828
100821
100813
100803
100791
100775
100754
100726
100693
100657
100639
100649
100674
100696
100711
100715
100709
100613
100649
100717
99872.4
99480.6
99250.6
99241.7
99689.8
100512
101277
101386
101322
101297
101292
101291
101292
101296
101301
101307
101313
101318
101320
100866
100866
100866
100865
100864
100862
100860
100858
100856
100853
100850
100847
100843
100838
100833
100828
100821
100813
100803
100791
100775
100754
100726
100692
100658
100641
100651
100675
100695
100708
100716
100715
100717
100722
100659
100318
102546
99883.4
99421.9
99354.9
99919.3
100793
101306
101327
101292
101287
101290
101292
101296
101301
101307
101313
101319
101321
100860
100860
100859
100858
100856
100854
100852
100849
100846
100843
100838
100833
100828
100822
100814
100806
100796
100785
100771
100754
100734
100709
100680
100648
100616
100592
100584
100585
100585
100588
100590
100617
100387
100592
101075
100801
99319.1
99168.3
99427.9
99698.9
100129
100751
101136
101189
101218
101234
101246
101259
101272
101284
101295
101304
101314
101319
100860
100860
100859
100858
100856
100854
100852
100849
100846
100843
100838
100833
100828
100822
100814
100806
100796
100785
100771
100754
100734
100709
100680
100648
100616
100593
100584
100585
100583
100582
100580
100621
100578
100637
100970
100489
100777
99589.4
99620.9
99809.3
100282
100742
100993
101124
101205
101234
101247
101260
101272
101284
101295
101304
101314
101318
100854
100853
100853
100851
100849
100847
100844
100841
100837
100832
100827
100821
100814
100805
100796
100785
100773
100758
100740
100720
100696
100668
100635
100600
100564
100531
100503
100479
100457
100453
100471
100710
100517
99725
100048
100415
99536.4
99372.9
99578.2
99839.5
100085
100356
100914
101075
101154
101184
101205
101228
101249
101267
101282
101296
101310
101317
100854
100853
100853
100851
100849
100847
100844
100841
100837
100832
100827
100821
100814
100805
100796
100785
100773
100758
100740
100720
100696
100668
100635
100600
100564
100531
100503
100478
100452
100429
100397
100443
100678
99997.5
97168.9
98101.2
99210.9
99365.1
99643.9
99939.1
100281
100496
100786
101024
101145
101185
101208
101229
101250
101267
101282
101296
101310
101317
100848
100848
100847
100845
100843
100840
100837
100833
100828
100823
100816
100809
100800
100790
100779
100766
100750
100733
100712
100688
100660
100627
100590
100549
100505
100457
100409
100358
100307
100277
100339
100539
100839
99953.3
99208.9
99266.6
99305.8
99408.6
99471.2
99557.3
99830.2
100132
100617
100981
101104
101143
101170
101200
101228
101251
101270
101287
101306
101314
100848
100848
100847
100845
100843
100840
100837
100833
100828
100823
100816
100809
100800
100790
100779
100766
100750
100733
100712
100688
100660
100627
100590
100549
100505
100457
100408
100357
100298
100249
100170
100403
100606
100032
98271.5
98798.6
99248.3
99432.5
99486.3
99569.9
99914.8
100240
100587
100946
101094
101140
101171
101201
101228
101251
101270
101287
101306
101315
100843
100843
100842
100840
100837
100834
100830
100826
100820
100814
100806
100798
100788
100776
100763
100748
100730
100710
100686
100658
100626
100589
100546
100497
100442
100379
100308
100219
100124
99920
100124
100097
100597
94384.1
96175.3
98429.2
99246.1
99524.2
99391.9
99271.4
99560
100036
100535
100876
101021
101088
101133
101174
101209
101237
101260
101278
101300
101311
100843
100843
100842
100840
100837
100834
100830
100826
100820
100814
100806
100798
100788
100776
100763
100748
100730
100710
100686
100658
100626
100589
100546
100497
100442
100380
100308
100223
100120
99981.5
99878.6
99977.5
98629.3
98553.3
98598.5
98962.9
99433.2
99609.4
99396.5
99226.7
99571.3
100108
100563
100869
101014
101084
101133
101175
101210
101238
101260
101279
101299
101309
100839
100838
100837
100835
100832
100829
100824
100819
100813
100806
100798
100788
100777
100764
100749
100732
100712
100689
100662
100631
100595
100553
100504
100447
100381
100303
100210
100089
99934.4
99642.8
99227.8
100409
96802.5
94916.9
96865.5
98806.6
99830.5
100040
99622.2
99285.4
99526.6
100006
100454
100764
100928
101034
101101
101155
101198
101230
101256
101276
101296
101306
100839
100838
100837
100835
100832
100829
100824
100819
100813
100806
100798
100788
100777
100764
100749
100732
100712
100689
100662
100631
100595
100553
100504
100447
100381
100303
100209
100099
99943.3
99718.6
99440
99139.5
97566.1
96380.8
97978.2
99224.2
100027
100132
99625.9
99240.1
99519.2
100077
100516
100767
100923
101027
101099
101155
101198
101230
101256
101277
101298
101306
100835
100834
100833
100831
100828
100824
100819
100814
100807
100799
100790
100780
100767
100753
100737
100718
100696
100671
100641
100607
100567
100521
100466
100402
100326
100234
100121
99979.7
99789.3
99526.1
99057.2
98845.2
100317
100211
99840.1
100337
100907
100769
99995.9
99352.2
99467.5
99919.1
100344
100666
100865
100995
101080
101147
101195
101229
101256
101278
101302
101306
100835
100834
100833
100831
100828
100824
100819
100814
100807
100799
100790
100780
100767
100753
100737
100718
100696
100671
100641
100607
100567
100521
100466
100402
100325
100233
100115
99982.6
99814.4
99598
99321
98707.1
98027.9
98644.1
99559.2
100465
101074
100850
99997.7
99312.8
99450.5
99967.7
100392
100666
100856
100987
101075
101145
101194
101228
101255
101278
101304
101309
100832
100831
100830
100827
100824
100820
100815
100809
100802
100794
100784
100773
100760
100744
100727
100707
100683
100656
100624
100587
100544
100494
100435
100364
100280
100177
100052
99898.4
99692
99429.2
99029
98564.6
98938.2
99830.7
99736.5
100211
100927
100915
100185
99363.6
99383.6
99848.1
100324
100645
100835
100967
101070
101147
101197
101230
101257
101278
101304
101306
100832
100831
100830
100827
100824
100820
100815
100809
100802
100794
100784
100773
100760
100745
100727
100707
100683
100656
100624
100587
100544
100494
100435
100364
100279
100171
100050
99898.8
99695.7
99439.1
99218.7
98407.6
98320.6
99101.1
99694.9
100507
101062
100917
100199
99390
99359.6
99855.7
100347
100656
100835
100962
101062
101144
101197
101229
101254
101275
101302
101314
100830
100829
100827
100825
100821
100817
100812
100806
100798
100789
100779
100767
100754
100738
100719
100698
100673
100644
100611
100572
100527
100473
100410
100335
100246
100138
100006
99842.4
99630.6
99364.5
99047.6
98594.3
98387.2
98645.3
98230.3
98992.4
99910.3
100362
100234
99729.2
99632.7
100008
100432
100732
100869
100982
101087
101160
101207
101238
101260
101272
101289
101305
100830
100829
100827
100825
100821
100817
100812
100806
100798
100789
100779
100767
100754
100738
100719
100698
100673
100644
100611
100572
100527
100473
100410
100335
100246
100137
100012
99847.3
99623.9
99353.8
99023
98558.7
98448.8
98598.9
98911.8
99452.5
99609.9
99970.4
100067
99796
99672.7
99985.6
100425
100747
100892
100983
101078
101160
101207
101235
101257
101270
101284
101307
100828
100828
100826
100823
100820
100815
100810
100803
100796
100787
100776
100764
100750
100733
100714
100692
100666
100637
100602
100562
100515
100459
100393
100316
100223
100110
99974.3
99806.4
99597.4
99340.4
99047.9
98690.3
98390.8
98000.7
97324.7
97255
96735.7
96805.7
97250.3
98410.3
99300.6
100097
100546
100834
100995
101103
101178
101223
101252
101270
101279
101276
101270
101296
100828
100828
100826
100823
100820
100815
100810
100803
100796
100787
100776
100764
100750
100733
100714
100692
100666
100637
100602
100562
100515
100459
100393
100316
100223
100111
99976.2
99812.4
99598
99326
99054.2
98711.9
98376.2
98140.2
97742.9
97080
96277
96405.7
96992.6
98256.5
99367.9
100104
100543
100831
100993
101104
101177
101224
101249
101266
101280
101279
101272
101296
100827
100826
100825
100822
100818
100814
100809
100802
100794
100785
100774
100762
100747
100731
100711
100689
100663
100633
100597
100556
100508
100452
100385
100305
100210
100096
99957.8
99789.1
99583.3
99336
99049.8
98713.8
98317.4
97902.8
97425.6
96441.8
94699.2
94022.3
94553.8
96282.4
98195.4
99499.1
100218
100613
100905
101108
101203
101242
101266
101280
101284
101278
101263
101281
100827
100826
100825
100822
100818
100814
100809
100802
100794
100785
100774
100762
100747
100731
100711
100689
100663
100633
100597
100556
100508
100452
100385
100305
100211
100096
99958.4
99791
99584.6
99336.1
99058.6
98759.5
98446.9
97980.3
97053.6
95773.8
94711.3
94185.7
94634.7
96192.5
98118.3
99498.2
100224
100605
100877
101095
101208
101241
101261
101279
101284
101279
101270
101296
100673
101141
100627
101554
101561
100595
100530
100573
100464
100430
100612
101135
100572
101558
101521
100564
100450
100550
100420
100400
101447
100878
100559
100868
100497
100518
100443
100535
100397
100467
100389
101415
100865
100480
100864
100473
100422
100409
100444
100398
100437
100416
100928
101007
100923
101049
100922
101046
100915
100765
100816
100758
100724
100652
100704
100632
100915
101005
100912
101043
100889
101043
100873
100755
100803
100753
100668
100614
100650
100611
101220
101156
101218
101207
101354
101206
101356
100532
100666
100580
100675
100552
100574
100525
100608
100415
100435
100396
100438
101215
101153
101214
101205
101345
101202
101351
100442
100602
100487
100577
100445
100627
100558
100637
100392
100456
100412
100500
101249
101157
101250
101028
101014
101027
101011
100677
101455
101148
101147
100723
100445
100478
100465
100411
100467
100434
100492
100428
100499
101242
101153
101248
101025
101006
101024
101008
100662
101428
101136
100668
101136
100402
100405
100478
100419
100504
100446
100519
100470
100539
100674
100811
100667
100778
100683
100778
100684
100385
100524
100420
100592
100568
100594
100581
100658
100804
100657
100777
100684
100778
100686
100454
100522
100462
100598
100591
100600
100594
100993
100900
100663
100894
101029
100992
100650
100879
100889
100979
101373
101467
101567
101474
101386
101159
101197
101373
101476
101564
101473
101381
101159
101159
100503
100556
100617
100644
100448
100535
100552
100533
100467
100456
100462
100545
100511
100461
100517
100440
100435
100446
100467
100976
100858
100593
100845
100979
100974
100573
100839
100828
100970
101392
101477
101550
101391
101482
101203
101201
101391
101469
101538
101470
101363
101227
101156
100406
100467
100525
100557
100325
100450
100460
100446
100436
100405
100460
100425
100428
100374
100447
100431
100398
100420
100450
100347
100401
100673
101451
101144
101143
100670
100341
100331
100379
100656
100543
100652
100431
100374
100521
100627
100359
100640
100461
100499
100480
100454
100492
100425
100408
100438
100463
100404
100419
100413
100439
100512
100525
100511
100454
100429
100498
100467
100422
100494
100323
100331
100653
101427
101136
101139
100679
100314
100355
100346
100618
100465
100357
100610
100335
100464
100601
100606
100377
100406
100408
100390
100409
100390
100409
100413
100409
100404
100398
100391
100405
100405
100444
100425
100417
100431
100398
100424
100432
100429
100386
101208
101066
101146
101289
101062
101291
101215
101181
101039
101135
101277
101032
101173
101284
101206
101143
101054
101287
101058
101289
101202
100579
100630
100591
100481
100626
100484
100583
100549
100582
100581
100479
100604
100485
100507
101195
101143
101048
101304
101046
101296
101201
100503
100571
100552
100473
100559
100500
100462
100507
100547
100545
100463
100551
100464
100488
100785
100957
100792
100875
100952
100791
100792
100777
100946
100871
100779
100947
100776
100785
100404
100409
100430
100388
100392
100423
100416
100386
100378
100381
100419
100378
100384
100420
100764
100943
100774
100862
100770
100939
100768
100756
100947
100863
100762
100945
100765
100759
100382
100377
100413
100406
100382
100381
100409
100376
100388
100413
100388
100385
100394
100374
100516
100617
100400
100547
100632
100480
100441
100258
100143
100110
100274
100261
100081
100097
100227
100502
100548
100621
100444
100628
100450
100494
100334
100537
100447
100166
100544
100314
100196
100046
99949.1
100080
99922.1
100346
100447
100540
100234
100366
100540
100217
100018
99870.1
99897.6
99988
101124
100899
100922
100681
100897
101121
100927
101358
101592
101605
101366
101350
101589
101592
101345
101137
100680
100942
100933
100912
100932
101133
100456
100471
101122
100895
100662
100914
100893
101119
100912
101353
101596
101594
101343
101348
101592
101592
101333
101124
100664
100903
100918
101121
100899
100913
100402
100403
100521
100932
100552
100995
100937
100515
100558
100322
100180
100153
100345
100311
100124
100130
100306
100514
100996
100937
100597
100938
100554
100580
100503
100928
100548
100990
100510
100924
100539
100269
100034
100061
100248
100284
100105
100298
100082
100494
100986
100909
100508
100920
100525
100475
101606
101432
101582
101370
101431
101580
101604
101673
101665
101679
101660
101663
101661
101668
101658
101615
101381
101431
101592
101436
101596
101595
101156
101164
101608
101431
101379
101585
101435
101604
101589
101667
101675
101681
101665
101612
101382
101436
101612
101437
101591
101624
101663
101662
101659
101664
101160
101156
100414
100593
100348
100481
100446
100574
100308
100128
99972.8
100105
99999.9
100147
100050
100184
100020
100393
100456
100539
100262
100378
100548
100283
100544
100546
100489
100519
100502
100540
100524
100503
100488
100496
100527
100534
100496
100486
100507
100481
100523
100496
100540
100528
100513
100526
100506
100498
100489
100468
100475
100508
100499
100493
100498
100479
100484
100459
100458
100454
100465
100465
100480
100474
100464
100484
100474
100457
100463
100485
100469
100472
100439
100873
100986
100501
100889
100418
100507
100216
100015
99998.4
100227
100440
100980
100893
100520
100887
100451
100507
100210
99954.7
99979
100192
100376
100853
100503
100972
100384
100851
100505
100165
99991.3
99928.4
100224
100161
99942.5
100175
99920.5
100371
100934
100853
100510
100843
100476
100454
101672
101403
101431
101732
101437
101675
101676
101731
101691
101691
101709
101670
101403
101428
101683
101428
101661
101684
101727
101701
101692
101736
101196
101209
101628
101416
101701
101377
101412
101639
101691
101731
101630
101699
101642
101712
101683
101709
101695
101635
101364
101412
101668
101417
101751
101603
101215
101166
100278
100520
100103
100366
100286
100513
100064
99900.7
99901.6
99820.7
99968.4
99934.9
99852.5
99958
99821.6
100219
100325
100449
100031
100476
100027
100230
100456
100460
100427
100449
100444
100438
100450
100443
100423
100441
100453
100450
100444
100438
100453
100467
100455
100448
100458
100447
100430
100424
100424
100433
100394
100369
100426
100444
100433
100450
100457
100419
100435
100427
100416
100416
100432
100424
100418
100418
100419
100430
100442
100457
100442
100458
100435
100431
100351
100347
101122
100899
100919
100673
101119
100898
100921
101344
101588
101340
101586
101347
101589
101344
101590
101124
100673
100896
100922
101122
100892