/*--------------------------------*- C++ -*----------------------------------*\
| =========                 |                                                 |
| \\      /  F ield         | OpenFOAM: The Open Source CFD Toolbox           |
|  \\    /   O peration     | Version:  4.1                                   |
|   \\  /    A nd           | Web:      www.OpenFOAM.org                      |
|    \\/     M anipulation  |                                                 |
\*---------------------------------------------------------------------------*/
FoamFile
{
    version     2.0;
    format      ascii;
    class       volVectorField;
    location    "96";
    object      U;
}
// * * * * * * * * * * * * * * * * * * * * * * * * * * * * * * * * * * * * * //

dimensions      [0 1 -1 0 0 0 0];

internalField   nonuniform List<vector> 
4432
(
(39.982 1.58038e-05 0.0497401)
(39.9197 2.72801e-05 0.0880274)
(39.8251 7.97203e-05 0.114918)
(39.6952 0.000101236 0.140774)
(39.53 0.000105126 0.167873)
(39.3302 0.000120203 0.196447)
(39.0948 0.000135263 0.226735)
(38.8226 0.000131662 0.258177)
(38.5122 0.0001232 0.290726)
(38.163 0.000108432 0.323806)
(37.7753 9.65056e-05 0.35559)
(37.3507 0.000137243 0.386629)
(36.8926 -5.2795e-05 0.410736)
(36.4176 -0.000146139 0.428081)
(35.93 -0.0029104 0.42005)
(35.5413 -0.00689063 0.36656)
(35.216 -0.00596463 0.412701)
(35.0976 -0.00355638 0.333541)
(35.1798 -0.0017855 0.25445)
(35.1502 0.0019473 0.397888)
(34.9168 -0.00133497 0.499241)
(34.5626 -0.0112412 0.621119)
(34.1031 -0.0217241 0.694819)
(33.5763 -0.0307467 0.683833)
(32.9836 -0.0377952 0.666802)
(32.348 -0.0435792 0.546564)
(31.7507 -0.0404221 0.356636)
(31.2139 -0.0274382 0.160542)
(30.7676 -0.0211323 0.0992342)
(30.3893 -0.0299747 0.150789)
(30.0061 -0.0535585 0.331782)
(29.5209 -0.0808328 0.660966)
(28.8396 -0.091052 0.855779)
(28.0225 -0.0667709 0.573081)
(27.3166 -0.0245983 -0.126358)
(26.7323 0.00477876 -0.508308)
(26.2348 0.0157314 -0.451423)
(25.744 0.0141885 -0.374905)
(25.3089 0.00751597 -0.30861)
(25.0031 0.00212397 -0.242986)
(24.8386 0.00303035 -0.260616)
(24.7227 0.0103139 -0.377525)
(24.6413 0.0164452 -0.382537)
(24.5983 0.0226759 -0.368204)
(24.6047 0.0295636 -0.38126)
(24.6685 0.0323845 -0.391386)
(24.7898 0.0342539 -0.394696)
(24.9451 0.0398797 -0.389356)
(25.1549 0.0459297 -0.375436)
(25.3736 0.0626858 -0.408282)
(25.6843 0.0586224 -0.315699)
(25.9895 0.0381592 -0.191801)
(26.2061 0.0242647 -0.219755)
(26.6132 0.0234021 -0.20798)
(39.982 1.58054e-05 0.0497434)
(39.9197 2.72727e-05 0.0880504)
(39.8251 7.9714e-05 0.115029)
(39.6951 0.000101278 0.140858)
(39.5299 0.000105208 0.167867)
(39.3301 0.000120281 0.196452)
(39.0947 0.000135366 0.226645)
(38.8225 0.0001319 0.258016)
(38.5121 0.000123036 0.290569)
(38.1631 0.000107557 0.323518)
(37.7753 9.54777e-05 0.35555)
(37.3505 0.000136014 0.386454)
(36.8927 -5.35154e-05 0.411752)
(36.4124 -0.000149212 0.428449)
(35.9275 -0.0028951 0.426987)
(35.4914 -0.00695442 0.376668)
(35.1605 -0.00604075 0.363032)
(35.0806 -0.00358871 0.289178)
(35.1675 -0.0017775 0.246643)
(35.1665 0.00185011 0.409152)
(34.9355 -0.0014439 0.485431)
(34.5796 -0.0113136 0.538852)
(34.1309 -0.0218416 0.577219)
(33.6014 -0.0311548 0.568366)
(32.9906 -0.038606 0.557774)
(32.3205 -0.0453322 0.427795)
(31.6671 -0.043884 0.251653)
(31.0865 -0.0316759 0.135713)
(30.5818 -0.0258621 0.073447)
(30.1169 -0.0367445 -0.00421772)
(29.7212 -0.0616558 -0.0953845)
(29.2848 -0.0948435 -0.0710822)
(28.7267 -0.109797 0.175724)
(27.9395 -0.0887366 0.404419)
(27.1703 -0.0422579 0.214779)
(26.4508 -0.00988017 -0.0564707)
(25.8477 0.00435377 -0.0247553)
(25.2772 0.005401 -0.0699125)
(24.7809 0.00137282 -0.0770936)
(24.3784 -0.00084908 -0.0509392)
(24.132 0.00191283 -0.0523968)
(23.9411 0.00988477 -0.107938)
(23.7931 0.0176744 -0.105842)
(23.7002 0.0254842 -0.124234)
(23.6926 0.0333271 -0.149772)
(23.7616 0.0375481 -0.198071)
(23.9002 0.0393589 -0.170745)
(24.1053 0.0440726 -0.121289)
(24.3546 0.0523004 -0.080617)
(24.5839 0.0702926 -0.1358)
(25.1399 0.0507671 -0.227826)
(25.5327 0.0298563 -0.201438)
(25.8021 0.0161338 -0.229839)
(26.2877 0.0170624 -0.165585)
(40.0072 1.5184e-05 0.0167676)
(40.032 2.33252e-05 0.0518555)
(40.0579 7.1164e-05 0.0884752)
(40.0807 8.78379e-05 0.125397)
(40.1009 9.55585e-05 0.162882)
(40.1197 0.000117221 0.201423)
(40.1368 0.000142976 0.24126)
(40.1512 0.000156505 0.282489)
(40.1614 0.000150043 0.325157)
(40.1666 0.000147155 0.369115)
(40.1651 0.000154169 0.41384)
(40.1533 0.000116391 0.457611)
(40.1275 0.000283311 0.498108)
(40.0708 0.000202059 0.525672)
(39.9839 0.00356742 0.545743)
(39.7328 0.00554779 0.519681)
(39.4407 0.00731003 0.403243)
(38.7809 0.00724457 0.326436)
(37.8664 -0.000709411 0.366692)
(37.0965 -0.00276833 0.424191)
(36.4357 6.17811e-05 0.493939)
(35.8497 0.00356058 0.582436)
(35.3417 0.00681356 0.674003)
(34.8518 0.00960204 0.774383)
(34.3776 0.0110544 0.854453)
(33.9094 0.012445 0.875717)
(33.43 0.0141172 0.850966)
(32.9138 0.0202764 0.820637)
(32.3093 0.0330166 0.786203)
(31.6906 0.0394025 0.744548)
(31.0787 0.0411373 0.753457)
(30.4648 0.0384271 0.877102)
(29.9388 0.0305677 0.97392)
(29.5366 0.0140673 0.958672)
(29.1844 -0.013864 0.92703)
(28.8426 -0.0527716 1.00819)
(28.5264 -0.089541 1.06402)
(28.2145 -0.110104 1.03479)
(27.8746 -0.10445 0.909532)
(27.5233 -0.0809026 0.689191)
(27.2005 -0.0755173 0.492165)
(27.0309 -0.0935312 0.403159)
(26.8851 -0.108929 0.340785)
(26.7539 -0.122149 0.25706)
(26.7035 -0.132167 0.164598)
(26.7328 -0.13798 0.0794138)
(26.8103 -0.145194 0.00812539)
(26.9251 -0.147334 -0.0553013)
(26.9918 -0.145728 -0.10596)
(27.1614 -0.19527 -0.125195)
(27.2549 -0.159889 -0.305526)
(27.4562 -0.121485 -0.393566)
(27.6956 -0.0894911 -0.415064)
(28.0305 -0.0578422 -0.408365)
(40.0072 1.5184e-05 0.0167665)
(40.0321 2.33252e-05 0.0518546)
(40.0579 7.11643e-05 0.0884697)
(40.0807 8.78391e-05 0.125387)
(40.1009 9.55597e-05 0.162875)
(40.1197 0.000117228 0.20142)
(40.1368 0.00014296 0.241265)
(40.1511 0.000156602 0.282489)
(40.1614 0.000149698 0.325167)
(40.1663 0.000146254 0.3691)
(40.165 0.000151472 0.413796)
(40.1532 0.000119537 0.45777)
(40.1271 0.00026126 0.497938)
(40.0754 0.000286515 0.528611)
(39.9843 0.00319761 0.538784)
(39.8028 0.00535407 0.50925)
(39.4954 0.00786328 0.420853)
(38.819 0.00745131 0.316658)
(37.8835 -0.000714016 0.350691)
(37.0907 -0.00259677 0.415148)
(36.448 0.000162727 0.474608)
(35.8667 0.00370056 0.552385)
(35.3587 0.00708899 0.629828)
(34.8774 0.0102483 0.714748)
(34.4142 0.012077 0.787384)
(33.9688 0.0144262 0.806745)
(33.5062 0.0180485 0.814299)
(32.9973 0.0238913 0.823105)
(32.4618 0.0335066 0.785871)
(31.9374 0.0448361 0.705181)
(31.358 0.0571361 0.67658)
(30.6794 0.0670431 0.777195)
(30.0242 0.0548093 0.854875)
(29.5665 0.029411 0.873058)
(29.2267 -0.00919877 0.861829)
(28.9923 -0.0538857 0.903934)
(28.7778 -0.0933209 0.936899)
(28.5697 -0.114644 0.91502)
(28.3347 -0.115068 0.824235)
(28.1637 -0.102768 0.664184)
(27.9848 -0.0949292 0.481911)
(27.9102 -0.104 0.376152)
(27.8329 -0.116444 0.304392)
(27.7626 -0.125189 0.218854)
(27.7271 -0.132254 0.122627)
(27.7505 -0.135774 0.0343601)
(27.8153 -0.140708 -0.0389638)
(27.8668 -0.14488 -0.115239)
(27.9091 -0.157991 -0.192478)
(27.9892 -0.187689 -0.238026)
(27.6792 -0.117456 -0.412079)
(27.8376 -0.0950504 -0.5268)
(28.0669 -0.0692629 -0.527867)
(28.3384 -0.0390772 -0.526876)
(39.9994 1.50766e-05 0.02371)
(39.9895 2.35566e-05 0.0676509)
(39.963 7.23058e-05 0.109155)
(39.9185 9.02384e-05 0.14897)
(39.8577 9.6813e-05 0.188522)
(39.782 0.00011708 0.228727)
(39.6915 0.000139018 0.270104)
(39.5857 0.000143671 0.313009)
(39.4646 0.000131874 0.357736)
(39.3284 0.000121358 0.404408)
(39.1773 0.000118901 0.452959)
(39.011 0.000151917 0.503084)
(38.8274 0.000207212 0.554473)
(38.626 0.000542077 0.606548)
(38.3913 0.000754702 0.662332)
(38.1644 0.00212703 0.731444)
(37.8332 0.00257264 0.774076)
(37.497 0.0043197 0.886365)
(37.1551 0.00212599 1.04797)
(36.7655 0.00165601 1.15483)
(36.3247 0.00275681 1.20167)
(35.8635 0.00477676 1.22128)
(35.4131 0.00752075 1.25153)
(34.9604 0.0116275 1.29527)
(34.5029 0.0139603 1.33838)
(34.0329 0.0175878 1.33785)
(33.5134 0.024497 1.30071)
(32.9185 0.034504 1.28642)
(32.2271 0.0431742 1.23647)
(31.4886 0.0394636 1.20984)
(30.6781 0.034825 1.32502)
(29.8447 0.0397994 1.49905)
(29.1255 0.0578784 1.57308)
(28.4398 0.0856559 1.50579)
(27.7997 0.0993197 1.23)
(27.4692 0.0220951 1.1427)
(27.0902 -0.0565671 1.16356)
(26.6905 -0.0825269 1.05169)
(26.2422 -0.0728434 0.935995)
(25.9509 -0.0351739 0.656676)
(25.7994 -0.0466161 0.512761)
(25.742 -0.0847308 0.500953)
(25.6806 -0.106285 0.383402)
(25.6105 -0.112168 0.207573)
(25.6124 -0.114329 0.0415509)
(25.6879 -0.113272 -0.0987085)
(25.8062 -0.114907 -0.210958)
(25.971 -0.113442 -0.305382)
(26.158 -0.120949 -0.330581)
(26.504 -0.100991 -0.502709)
(26.7636 -0.0511921 -0.544218)
(26.9399 -0.0362707 -0.494548)
(27.0838 -0.0359945 -0.48723)
(27.4167 -0.0394387 -0.548241)
(39.9994 1.50766e-05 0.0237094)
(39.9895 2.35567e-05 0.067648)
(39.963 7.23061e-05 0.109152)
(39.9184 9.02388e-05 0.148967)
(39.8577 9.6814e-05 0.188518)
(39.782 0.000117081 0.228721)
(39.6914 0.000139022 0.270095)
(39.5856 0.000143668 0.31299)
(39.4645 0.000131902 0.357717)
(39.3283 0.000121239 0.404382)
(39.1772 0.000118412 0.452936)
(39.011 0.000151595 0.503107)
(38.8279 0.000206101 0.554404)
(38.6256 0.000542718 0.606444)
(38.3973 0.000754434 0.659998)
(38.1435 0.00209287 0.724068)
(37.8437 0.00226065 0.792366)
(37.5028 0.00456155 0.891165)
(37.1533 0.00224238 1.04172)
(36.7709 0.00172189 1.14161)
(36.3371 0.00285962 1.18335)
(35.8828 0.00495842 1.19541)
(35.4401 0.00790748 1.21559)
(34.989 0.0126554 1.26982)
(34.5255 0.0155173 1.31891)
(34.0543 0.0197704 1.32431)
(33.5356 0.0277026 1.31828)
(32.9601 0.0386076 1.32692)
(32.3356 0.0483321 1.30291)
(31.6413 0.0503824 1.25761)
(30.7935 0.0447297 1.36466)
(29.9529 0.0466496 1.53531)
(29.2282 0.0685788 1.55872)
(28.6339 0.0917414 1.38388)
(28.159 0.083543 1.13765)
(27.7848 0.0314006 0.922961)
(27.4436 -0.0204746 0.761228)
(27.0819 -0.0470559 0.618898)
(26.7202 -0.0434005 0.475445)
(26.4692 -0.0162932 0.24196)
(26.2447 -0.0259087 0.169067)
(26.1659 -0.0552586 0.117066)
(26.0876 -0.0739686 -0.0169354)
(25.999 -0.0831945 -0.182585)
(25.974 -0.0875618 -0.339452)
(26.0276 -0.0874272 -0.471163)
(26.1209 -0.0876125 -0.579076)
(26.2498 -0.0868217 -0.633996)
(26.4112 -0.0904681 -0.705257)
(26.6701 -0.0719383 -0.795838)
(26.8852 -0.0446565 -0.68864)
(27.0573 -0.0345122 -0.590442)
(27.2271 -0.0314755 -0.550563)
(27.5268 -0.0333813 -0.686285)
(39.999 1.45901e-05 0.0298699)
(39.988 2.04161e-05 0.0875607)
(39.9614 6.78952e-05 0.145836)
(39.9179 8.54566e-05 0.205062)
(39.8583 9.10975e-05 0.265909)
(39.7829 0.000110531 0.328694)
(39.691 0.000131821 0.393587)
(39.5816 0.000136648 0.460722)
(39.4537 0.000126649 0.530215)
(39.3066 0.000117674 0.602098)
(39.1395 0.000119423 0.676358)
(38.9512 0.000150002 0.753052)
(38.7393 0.000179986 0.832403)
(38.5025 0.000343095 0.915666)
(38.2355 0.000362227 1.00548)
(37.946 0.0014398 1.10582)
(37.616 0.00158316 1.24074)
(37.2164 0.00147637 1.30873)
(36.8593 0.00174612 1.36969)
(36.5264 0.00267255 1.45383)
(36.1728 0.00373565 1.54007)
(35.7931 0.00410602 1.59852)
(35.3774 0.00423401 1.6566)
(34.9076 0.00526106 1.72907)
(34.4062 0.00428727 1.81366)
(33.8678 0.00402333 1.86387)
(33.2353 0.0085441 1.9075)
(32.5093 0.0144428 2.0043)
(31.6772 0.0131925 2.09984)
(30.6646 0.0115064 2.18766)
(29.6011 0.0131479 2.34106)
(28.6905 0.0207418 2.41023)
(27.9022 0.0377702 2.33633)
(27.2193 0.0623334 2.00657)
(26.96 0.0638389 1.45269)
(26.8912 -0.0153797 1.53248)
(26.61 -0.0771558 1.7166)
(26.142 -0.093203 1.65603)
(25.535 -0.0732174 1.37609)
(25.1549 -0.021739 0.843105)
(24.946 -0.0331612 0.645978)
(24.9137 -0.060717 0.668319)
(24.8322 -0.0757858 0.588255)
(24.7719 -0.0711748 0.375786)
(24.804 -0.0636226 0.179337)
(24.917 -0.0575597 0.0140289)
(25.062 -0.0548315 -0.127698)
(25.251 -0.0455867 -0.238269)
(25.4618 -0.0469869 -0.373972)
(25.7278 -0.0627535 -0.505616)
(26.1237 -0.0620761 -0.593549)
(26.4315 -0.0558162 -0.642234)
(26.6612 -0.0513518 -0.704422)
(27.1167 -0.0397245 -0.777334)
(39.9991 1.45901e-05 0.0298693)
(39.9881 2.04162e-05 0.0875584)
(39.9614 6.78954e-05 0.145832)
(39.9179 8.54571e-05 0.205056)
(39.8582 9.10983e-05 0.2659)
(39.7828 0.000110532 0.328683)
(39.691 0.000131823 0.393575)
(39.5815 0.00013665 0.460711)
(39.4536 0.000126652 0.530204)
(39.3066 0.000117683 0.602087)
(39.1395 0.000119412 0.676352)
(38.9511 0.000150084 0.753029)
(38.7395 0.000179609 0.832356)
(38.5023 0.000344913 0.915346)
(38.2374 0.000362768 1.00492)
(37.9442 0.00146202 1.105)
(37.6291 0.00146859 1.23601)
(37.2267 0.00141949 1.33584)
(36.8641 0.00170193 1.37415)
(36.5341 0.00270898 1.44239)
(36.1823 0.00389696 1.52098)
(35.8031 0.00439177 1.57382)
(35.3736 0.00442267 1.63292)
(34.8948 0.00504785 1.73817)
(34.4037 0.00413753 1.82432)
(33.8589 0.00387835 1.88817)
(33.2055 0.0096 1.99058)
(32.468 0.0164389 2.12583)
(31.6506 0.014995 2.2354)
(30.6574 0.0130269 2.31549)
(29.6444 0.0136932 2.40622)
(28.7876 0.0199919 2.46999)
(28.0441 0.0357627 2.46315)
(27.3577 0.069959 2.24064)
(26.9936 0.0821054 1.69638)
(26.8246 -0.00321783 1.40482)
(26.5515 -0.0787169 1.28136)
(26.1748 -0.130458 1.14467)
(25.7543 -0.134989 1.01252)
(25.3829 -0.0644462 0.619723)
(25.1748 -0.0331311 0.409611)
(25.0779 -0.0503623 0.356054)
(24.9706 -0.0564199 0.187536)
(24.885 -0.0526514 -0.0258866)
(24.8921 -0.0458276 -0.211679)
(24.9887 -0.0409329 -0.377348)
(25.1306 -0.0376563 -0.516645)
(25.3204 -0.0331628 -0.634656)
(25.5376 -0.0246793 -0.730961)
(25.8403 -0.0369292 -0.832785)
(26.1799 -0.0553611 -0.867761)
(26.4833 -0.0616661 -0.8871)
(26.7215 -0.0674356 -0.95397)
(27.2245 -0.0586372 -1.02398)
(39.9991 1.44457e-05 0.0368704)
(39.9882 2.13069e-05 0.108911)
(39.962 6.79854e-05 0.182318)
(39.9194 8.40458e-05 0.256665)
(39.8611 8.83914e-05 0.332289)
(39.7876 0.000106905 0.409592)
(39.6981 0.000127654 0.489)
(39.5918 0.00013198 0.570941)
(39.4676 0.000121625 0.655819)
(39.3251 0.000110718 0.744007)
(39.1634 0.00011303 0.835875)
(38.9813 0.000128384 0.931909)
(38.7774 0.000172101 1.03284)
(38.5498 0.00020187 1.14018)
(38.2988 0.000414088 1.25604)
(38.0171 0.000413396 1.38503)
(37.7287 0.00190884 1.52948)
(37.3573 0.00376084 1.67272)
(36.9335 0.00359613 1.74713)
(36.5298 0.00394176 1.80814)
(36.1442 0.00547157 1.89032)
(35.7443 0.00454681 1.97559)
(35.3001 0.00206672 2.11649)
(34.7752 -0.000764191 2.25732)
(34.1985 -0.00713619 2.39131)
(33.5426 -0.0110005 2.51453)
(32.7363 -0.00558684 2.64875)
(31.8508 0.00145569 2.86997)
(30.8825 -0.000369888 3.1083)
(29.8217 -0.00212041 3.26306)
(28.8352 0.00257129 3.29853)
(27.9863 0.0150738 3.20147)
(27.2371 0.0351769 2.90499)
(26.6746 0.0700824 2.21413)
(26.6403 0.103827 1.31593)
(26.476 -0.0403174 1.4204)
(26.2709 -0.244218 2.22761)
(25.6338 -0.368944 2.68499)
(24.951 -0.360311 2.62181)
(24.4536 -0.163503 1.58488)
(24.1841 -0.100255 0.947635)
(24.2282 -0.115034 0.814507)
(24.1698 -0.125337 0.601923)
(24.159 -0.116094 0.287028)
(24.2318 -0.108942 0.0221995)
(24.3702 -0.105382 -0.2017)
(24.5351 -0.107197 -0.386819)
(24.7816 -0.0991334 -0.585694)
(24.9452 -0.0777523 -0.735228)
(25.2099 -0.112024 -0.827443)
(25.5086 -0.130753 -0.956291)
(25.8203 -0.140431 -1.01138)
(26.073 -0.151631 -1.0305)
(26.5049 -0.132139 -1.0414)
(39.9991 1.44457e-05 0.0368694)
(39.9882 2.1307e-05 0.108907)
(39.962 6.79856e-05 0.18231)
(39.9194 8.4046e-05 0.256656)
(39.8611 8.83923e-05 0.332279)
(39.7875 0.00010691 0.409581)
(39.6981 0.000127664 0.488987)
(39.5917 0.000132001 0.570928)
(39.4675 0.000121639 0.655805)
(39.325 0.000110813 0.743991)
(39.1633 0.000112827 0.835859)
(38.9813 0.000129542 0.931881)
(38.7774 0.000175467 1.03281)
(38.55 0.000205522 1.14004)
(38.2984 0.000428588 1.2559)
(38.0201 0.000390212 1.38442)
(37.7228 0.00204734 1.52977)
(37.3826 0.00341479 1.68681)
(36.974 0.00327053 1.75123)
(36.5589 0.00398097 1.80221)
(36.1629 0.00607725 1.88284)
(35.7493 0.00590798 1.97666)
(35.2554 0.00213571 2.11386)
(34.7274 -0.00108571 2.25321)
(34.1667 -0.00737043 2.38497)
(33.4676 -0.0115742 2.53746)
(32.664 -0.00480128 2.73144)
(31.8257 0.00269754 2.9694)
(30.9015 0.000506358 3.17203)
(29.8887 -0.00208054 3.29612)
(28.9274 0.00167049 3.31097)
(28.0919 0.0136401 3.23711)
(27.4001 0.0311052 3.0272)
(26.9092 0.0685418 2.5058)
(26.8481 0.141563 1.68248)
(26.8079 -0.0144146 1.38251)
(26.5912 -0.315167 1.4251)
(26.1073 -0.499795 1.51909)
(25.4972 -0.590796 1.42119)
(24.9596 -0.49343 1.01554)
(24.6787 -0.186971 0.606116)
(24.634 -0.116841 0.360978)
(24.5625 -0.0989656 0.0672934)
(24.535 -0.0861769 -0.240127)
(24.6104 -0.0817849 -0.502122)
(24.7706 -0.0840078 -0.732092)
(24.9715 -0.0881063 -0.93134)
(25.2072 -0.0944191 -1.11537)
(25.4081 -0.0952143 -1.21401)
(25.6826 -0.112397 -1.43291)
(25.7548 -0.0848017 -1.41544)
(25.99 -0.0885587 -1.3855)
(26.2283 -0.095986 -1.40465)
(26.5962 -0.057021 -1.45418)
(39.9991 1.36183e-05 0.0438672)
(39.9885 1.63878e-05 0.12961)
(39.9629 6.02282e-05 0.217146)
(39.9215 7.59843e-05 0.306045)
(39.8651 8.11795e-05 0.396797)
(39.7941 9.99878e-05 0.489972)
(39.7079 0.000120025 0.586121)
(39.6052 0.000123709 0.685749)
(39.4853 0.000113075 0.78931)
(39.3475 0.000102343 0.897235)
(39.1912 0.000104203 1.00995)
(39.0154 0.000120456 1.12795)
(38.8191 0.000155965 1.25198)
(38.6013 0.000189714 1.38312)
(38.3623 0.000292567 1.52316)
(38.1015 0.000401154 1.67493)
(37.8259 0.00117248 1.83948)
(37.5345 0.00333048 2.03475)
(37.1934 0.0059456 2.17185)
(36.7855 0.00655817 2.25876)
(36.3368 0.00712042 2.33081)
(35.8172 0.00327893 2.43675)
(35.2914 -0.00264898 2.60959)
(34.7645 -0.00794236 2.83059)
(34.1488 -0.0170567 3.07451)
(33.3949 -0.019688 3.33781)
(32.4206 -0.00942984 3.57198)
(31.3952 0.00480715 3.83717)
(30.4009 0.00722754 4.10298)
(29.3942 0.00528534 4.23265)
(28.4468 0.00986969 4.17477)
(27.5874 0.0273175 3.95648)
(26.7363 0.0623069 3.51631)
(26.0069 0.171192 2.613)
(25.7698 0.373744 1.65726)
(22.1101 0.022657 2.92439)
(22.3379 -0.35577 2.76721)
(22.2294 -0.72454 2.49779)
(21.8251 -1.13713 2.55134)
(22.1232 -0.886415 1.23764)
(22.6382 -0.332857 1.00024)
(22.6919 -0.460887 1.30042)
(22.7655 -0.386221 0.929172)
(22.9606 -0.321028 0.518114)
(23.1797 -0.300935 0.181424)
(23.3844 -0.302763 -0.104773)
(23.6036 -0.303074 -0.358695)
(23.8144 -0.314448 -0.573188)
(24.0828 -0.295144 -0.737742)
(24.2947 -0.276226 -0.887288)
(24.4773 -0.253491 -1.00425)
(24.6623 -0.235814 -1.07099)
(24.8036 -0.227439 -1.09661)
(24.9881 -0.200868 -1.08272)
(39.9991 1.36168e-05 0.0438661)
(39.9885 1.63949e-05 0.129606)
(39.9629 6.01993e-05 0.217139)
(39.9215 7.61092e-05 0.306036)
(39.8651 8.065e-05 0.396787)
(39.7941 9.83485e-05 0.489961)
(39.7078 0.000118119 0.586107)
(39.6052 0.000121766 0.685734)
(39.4852 0.000111139 0.789296)
(39.3474 0.000100496 0.897222)
(39.1911 0.00010219 1.00994)
(39.0153 0.000119375 1.12794)
(38.819 0.00015889 1.25196)
(38.6014 0.000194041 1.38307)
(38.3623 0.000304687 1.52313)
(38.1027 0.000385246 1.67449)
(37.8263 0.00126721 1.84029)
(37.5429 0.00299609 2.02284)
(37.2327 0.0055859 2.17731)
(36.8452 0.00674363 2.28721)
(36.3822 0.00827623 2.3827)
(35.8694 0.00467197 2.51209)
(35.3031 -0.00281063 2.64692)
(34.729 -0.00810805 2.8321)
(34.0819 -0.0177695 3.05942)
(33.2834 -0.0196558 3.32746)
(32.3621 -0.00876323 3.58568)
(31.4399 0.00423059 3.87658)
(30.4861 0.00594806 4.11276)
(29.487 0.00403017 4.22754)
(28.5529 0.00871551 4.17411)
(27.7366 0.0251647 3.99584)
(27.0344 0.0571646 3.64387)
(26.5043 0.208865 2.95809)
(26.5223 0.717381 1.99009)
(27.0365 1.1816 0.910635)
(27.5332 1.11073 0.714993)
(27.1739 0.785937 0.903852)
(26.3702 0.466631 0.969265)
(25.8966 -0.0194681 0.729225)
(24.5363 -0.289429 0.700805)
(24.4088 -0.329309 0.464056)
(24.4044 -0.241149 0.0807767)
(24.37 -0.169532 -0.279938)
(24.339 -0.137092 -0.580978)
(24.3075 -0.116848 -0.840256)
(24.2717 -0.0901535 -1.0699)
(24.2281 -0.0605361 -1.26403)
(24.2069 -0.030435 -1.42628)
(24.1587 0.025022 -1.5626)
(24.2371 0.0952576 -1.59964)
(24.2748 0.159208 -1.63217)
(24.2994 0.206151 -1.63595)
(24.3639 0.304663 -1.63698)
(39.9991 1.33524e-05 0.0506259)
(39.9889 1.76324e-05 0.149597)
(39.9644 6.07293e-05 0.250813)
(39.9247 7.51373e-05 0.353871)
(39.8708 7.90015e-05 0.459297)
(39.8029 9.63658e-05 0.567659)
(39.7202 0.00011524 0.67954)
(39.6218 0.000118526 0.795511)
(39.5065 0.000108123 0.91611)
(39.3739 9.81279e-05 1.04184)
(39.2232 9.90644e-05 1.17317)
(39.0538 0.000116023 1.31059)
(38.8647 0.00014698 1.45467)
(38.6555 0.000190925 1.60612)
(38.4265 0.000236118 1.76593)
(38.1792 0.000390134 1.93539)
(37.9152 0.000610072 2.11488)
(37.6429 0.00176839 2.30875)
(37.3565 0.00264685 2.49295)
(37.0354 0.00124282 2.67067)
(36.6554 -6.94494e-05 2.83396)
(36.1916 -0.00132856 3.04045)
(35.5852 -0.00539099 3.21291)
(34.9761 -0.0149238 3.44111)
(34.3541 -0.0270184 3.81752)
(33.5889 -0.0324674 4.28294)
(32.5726 -0.010162 4.66885)
(31.4234 0.0169112 4.88697)
(30.3261 0.0188064 5.07521)
(29.2536 0.0126624 5.17502)
(28.2614 0.018954 5.10154)
(27.3573 0.0377386 4.84185)
(26.3495 0.0861033 4.46507)
(25.6288 0.277859 3.8721)
(19.6174 0.256852 0.515415)
(19.3151 0.0198964 2.94584)
(19.4065 -0.187877 5.4942)
(19.0545 -0.0768095 5.14899)
(18.7557 -0.159289 4.2595)
(18.3197 -0.454803 3.3182)
(19.6647 -0.482671 1.79522)
(19.7932 -0.403042 1.113)
(19.9514 -0.270889 0.750877)
(20.2511 -0.187037 0.454315)
(20.4965 -0.140848 0.178178)
(20.6408 -0.0991769 -0.072191)
(20.7347 -0.0531544 -0.304196)
(20.785 -0.00676184 -0.518457)
(20.8313 0.0284279 -0.708468)
(20.8771 0.0548112 -0.876601)
(20.9357 0.0690412 -1.01798)
(21.0782 0.0654132 -1.15423)
(21.1863 0.0585916 -1.22517)
(21.5969 -0.0189412 -1.36979)
(39.9991 1.3351e-05 0.0506244)
(39.9889 1.76397e-05 0.149591)
(39.9644 6.06999e-05 0.250802)
(39.9247 7.52635e-05 0.353858)
(39.8708 7.84712e-05 0.459282)
(39.8029 9.47028e-05 0.567643)
(39.7202 0.000113276 0.679522)
(39.6217 0.000116463 0.795493)
(39.5064 0.000106096 0.916092)
(39.3738 9.58347e-05 1.04182)
(39.2232 9.79058e-05 1.17315)
(39.0537 0.000116618 1.31057)
(38.8647 0.000148139 1.45464)
(38.6555 0.000193664 1.60609)
(38.4266 0.000243963 1.76591)
(38.1794 0.000398602 1.93508)
(37.9166 0.000625348 2.11454)
(37.6438 0.00178571 2.3037)
(37.3596 0.00262674 2.49404)
(37.0488 0.00125608 2.6842)
(36.6704 0.000574869 2.87194)
(36.2545 -0.00138594 3.06509)
(35.6565 -0.00608892 3.27692)
(34.9834 -0.0146214 3.49186)
(34.2963 -0.028148 3.78626)
(33.4617 -0.033036 4.21658)
(32.4392 -0.00844027 4.55013)
(31.4493 0.0139648 4.87414)
(30.4376 0.0165934 5.12994)
(29.3846 0.0107392 5.21021)
(28.3977 0.0176308 5.08575)
(27.5434 0.0358862 4.84261)
(26.7778 0.0938029 4.49565)
(26.048 0.435066 4.01891)
(26.407 1.24715 3.57975)
(19.7408 0.0292317 2.91625)
(19.6721 0.130643 2.11857)
(19.407 0.48352 1.44836)
(18.5693 0.625623 0.919683)
(17.9883 0.489905 0.558093)
(18.0924 0.254379 0.410202)
(18.0797 0.271883 0.0911237)
(18.0872 0.403192 -0.314047)
(18.1928 0.508208 -0.65824)
(18.3564 0.581016 -0.923538)
(18.5406 0.65339 -1.13199)
(18.7493 0.737243 -1.29188)
(18.9935 0.818369 -1.40723)
(19.2675 0.892715 -1.48278)
(19.5795 0.962771 -1.54053)
(19.9128 1.02304 -1.56527)
(20.3274 1.07007 -1.55109)
(20.645 1.10484 -1.49766)
(21.3365 1.10967 -1.39309)
(39.9992 1.21261e-05 0.0570625)
(39.9895 1.06949e-05 0.168652)
(39.9663 4.93551e-05 0.282872)
(39.9288 6.29439e-05 0.399335)
(39.8778 6.68538e-05 0.518637)
(39.8135 8.34804e-05 0.641418)
(39.7352 0.000101452 0.768364)
(39.6416 0.000104684 0.900158)
(39.532 9.48376e-05 1.03744)
(39.4055 8.44171e-05 1.18075)
(39.2615 8.44924e-05 1.33057)
(39.0991 9.97839e-05 1.48727)
(38.9176 0.000129825 1.65117)
(38.7165 0.000172067 1.82249)
(38.4962 0.000217437 2.00137)
(38.2577 0.000303772 2.18788)
(38.0026 0.000389002 2.38126)
(37.7346 0.000697261 2.58159)
(37.4548 0.00037884 2.78369)
(37.1577 -0.000989488 2.99031)
(36.8301 -0.0028455 3.2131)
(36.4684 -0.00269336 3.48763)
(36.0565 2.25556e-05 3.78887)
(35.4516 -0.010541 4.11998)
(34.7809 -0.0257987 4.5832)
(34.1205 -0.0363339 5.19741)
(33.2904 -0.0129731 5.71758)
(32.1897 0.0285146 6.04322)
(30.8656 0.0443884 6.22104)
(29.466 0.0256814 6.20999)
(28.3375 0.0168365 5.94387)
(27.4316 0.0198209 5.6069)
(26.578 0.0272244 5.42386)
(25.9875 0.144437 5.67396)
(25.2677 0.492234 6.65083)
(16.9468 0.0708189 2.99819)
(16.1929 0.0881072 2.09177)
(15.6048 0.118826 1.77638)
(14.7417 0.132558 1.49097)
(14.2179 0.0585091 0.987287)
(13.9862 -0.0491692 0.302187)
(13.8324 -0.0894829 -0.0599317)
(13.8983 -0.0734649 -0.248718)
(14.113 -0.0429244 -0.496789)
(14.4295 -0.0316614 -0.802195)
(14.8169 -0.0492036 -1.10524)
(15.2959 -0.0838144 -1.39055)
(15.9107 -0.129216 -1.66973)
(16.6311 -0.192701 -1.94428)
(17.4529 -0.267398 -2.1995)
(18.3269 -0.34243 -2.42362)
(19.3439 -0.410322 -2.62667)
(20.1417 -0.473071 -2.75467)
(21.6853 -0.571466 -2.97229)
(39.9992 1.21261e-05 0.0570609)
(39.9895 1.0695e-05 0.168646)
(39.9663 4.93554e-05 0.282861)
(39.9288 6.29429e-05 0.399322)
(39.8777 6.68633e-05 0.518623)
(39.8135 8.34197e-05 0.641403)
(39.7351 0.000101582 0.768347)
(39.6416 0.000103821 0.90014)
(39.5319 9.2389e-05 1.03742)
(39.4054 8.13034e-05 1.18073)
(39.2614 8.23923e-05 1.33055)
(39.0991 9.9529e-05 1.48725)
(38.9176 0.000130238 1.65115)
(38.7166 0.00017313 1.82247)
(38.4962 0.00021877 2.00134)
(38.2578 0.000308047 2.18773)
(38.003 0.000395204 2.38095)
(37.7345 0.000707512 2.58002)
(37.4527 0.000402673 2.7817)
(37.1544 -0.000988339 2.9896)
(36.8289 -0.00275737 3.21832)
(36.4733 -0.00285213 3.48421)
(36.0769 0.000805388 3.84407)
(35.5295 -0.00848277 4.16195)
(34.786 -0.0306164 4.5693)
(34.0348 -0.0392412 5.09354)
(33.0271 -0.0199772 5.5679)
(31.8954 0.0177796 5.93931)
(30.8573 0.0359299 6.18972)
(29.7305 0.0184308 6.23249)
(28.5399 0.0131723 5.99739)
(27.5409 0.02054 5.6279)
(26.7339 0.0280022 5.3601)
(25.8815 0.169093 5.38699)
(25.5565 0.693981 6.12238)
(24.4876 1.44177 6.38661)
(23.6328 1.56059 5.27279)
(22.2166 1.50479 3.75899)
(20.614 1.42868 2.56938)
(19.4541 1.33688 1.68286)
(18.7584 1.22389 0.994238)
(18.3629 1.16005 0.472065)
(18.2363 1.15159 0.0818535)
(18.2927 1.16695 -0.228701)
(18.465 1.1825 -0.491123)
(18.7272 1.19006 -0.712577)
(19.0759 1.19498 -0.892699)
(19.5009 1.19666 -1.04052)
(19.9833 1.18602 -1.16243)
(20.5246 1.16215 -1.26692)
(21.0976 1.1301 -1.3473)
(21.7556 1.09288 -1.40859)
(22.2768 1.05294 -1.43372)
(23.2153 0.962722 -1.45798)
(39.9992 1.17439e-05 0.0630984)
(39.9902 1.2085e-05 0.18653)
(39.9686 5.00716e-05 0.312941)
(39.9337 6.2344e-05 0.441987)
(39.8861 6.50424e-05 0.574372)
(39.8261 8.03748e-05 0.710839)
(39.7528 9.72611e-05 0.852181)
(39.6651 0.000100044 0.999186)
(39.5619 9.02611e-05 1.15257)
(39.4424 7.99478e-05 1.31295)
(39.3059 8.02682e-05 1.48077)
(39.1513 9.69182e-05 1.65633)
(38.9776 0.000126976 1.83967)
(38.7844 0.000166163 2.0306)
(38.5716 0.00021013 2.22854)
(38.3399 0.000259444 2.43259)
(38.091 0.000298888 2.64134)
(37.8277 0.000356145 2.85374)
(37.5531 0.000256832 3.06834)
(37.2694 -3.10995e-05 3.28992)
(36.9782 -0.00065686 3.53129)
(36.6782 9.20011e-05 3.82624)
(36.3766 0.000647253 4.19543)
(36.023 0.0180842 4.69432)
(35.3963 0.0139923 5.30953)
(34.8184 -0.00469271 5.94221)
(34.1822 -0.0129499 6.50354)
(33.3704 -0.00421426 7.1359)
(32.2639 0.0327286 7.62807)
(30.8645 0.0632588 7.73257)
(29.2038 0.0549524 7.14252)
(27.5182 0.0215745 6.41579)
(26.3144 0.00469462 6.08687)
(25.1841 0.0241291 6.06443)
(24.9898 0.271131 7.31833)
(23.4102 0.293351 7.81536)
(21.6669 0.119168 6.46895)
(19.6918 -0.0737371 4.6381)
(17.8248 -0.195105 3.10057)
(16.5479 -0.28139 1.84919)
(15.8653 -0.390168 0.795396)
(15.5956 -0.500704 -0.0210458)
(15.6818 -0.577604 -0.677195)
(16.1072 -0.624576 -1.25816)
(16.7992 -0.674114 -1.78639)
(17.6517 -0.735322 -2.24884)
(18.5889 -0.786267 -2.63652)
(19.5744 -0.816479 -2.95834)
(20.5769 -0.831938 -3.22502)
(21.5751 -0.83857 -3.44047)
(22.5255 -0.836204 -3.60245)
(23.481 -0.827842 -3.71297)
(24.2087 -0.822131 -3.77575)
(25.3435 -0.819698 -3.79949)
(39.9993 1.1744e-05 0.0630965)
(39.9902 1.20849e-05 0.186523)
(39.9686 5.00724e-05 0.312927)
(39.9336 6.23415e-05 0.441971)
(39.8861 6.50534e-05 0.574355)
(39.8261 8.03373e-05 0.71082)
(39.7528 9.74578e-05 0.85216)
(39.665 9.92973e-05 0.999164)
(39.5618 8.78819e-05 1.15255)
(39.4424 7.70114e-05 1.31292)
(39.3058 7.76411e-05 1.48075)
(39.1512 9.24183e-05 1.6563)
(38.9777 0.000123024 1.83965)
(38.7844 0.00016486 2.03057)
(38.5716 0.000205971 2.22851)
(38.3399 0.000253985 2.43251)
(38.0911 0.00029808 2.6412)
(37.8276 0.000357138 2.85334)
(37.5526 0.000268975 3.06833)
(37.2683 -3.08205e-05 3.29064)
(36.9774 -0.000590402 3.53461)
(36.6802 -0.000188143 3.82329)
(36.3813 0.00172978 4.20679)
(36.0779 0.013504 4.6684)
(35.6148 0.0118218 5.267)
(34.927 -0.00726907 5.88356)
(34.1824 -0.0216148 6.58002)
(33.0197 -0.0101376 7.10172)
(31.7995 0.0257755 7.3851)
(30.6133 0.0534175 7.48008)
(29.3036 0.0552988 7.28555)
(27.8476 0.0236694 6.68816)
(26.433 -0.000182942 6.17071)
(24.9918 -0.0134577 6.22986)
(24.0676 0.169501 6.78924)
(24.031 0.531432 7.15337)
(24.0272 0.733261 6.55191)
(23.5331 0.819428 5.41889)
(22.7353 0.869295 4.30189)
(22.0261 0.888108 3.28462)
(21.5449 0.865192 2.37168)
(21.2806 0.829298 1.60839)
(21.2151 0.806163 0.970842)
(21.3233 0.794444 0.422366)
(21.5632 0.771736 -0.0594435)
(21.9025 0.725713 -0.479478)
(22.3166 0.667001 -0.839359)
(22.7796 0.604616 -1.14868)
(23.2674 0.536572 -1.41734)
(23.7753 0.460583 -1.65406)
(24.2745 0.382553 -1.84617)
(24.7986 0.2999 -2.01413)
(25.1828 0.230223 -2.09405)
(25.7823 0.089513 -2.23098)
(39.9993 1.02376e-05 0.0686567)
(39.991 3.48266e-06 0.203007)
(39.9713 3.57471e-05 0.340667)
(39.9393 4.6444e-05 0.481358)
(39.8958 4.91972e-05 0.625906)
(39.8407 6.40993e-05 0.775176)
(39.7733 8.02549e-05 0.93008)
(39.6923 8.19719e-05 1.09153)
(39.5965 7.09174e-05 1.26037)
(39.4851 6.00792e-05 1.43729)
(39.357 5.88373e-05 1.62279)
(39.2109 7.30673e-05 1.81711)
(39.0457 0.000100543 2.02011)
(38.8602 0.000137993 2.23122)
(38.6541 0.000179372 2.4492)
(38.4276 0.000222118 2.67216)
(38.1823 0.000254382 2.89748)
(37.9215 0.000287678 3.12239)
(37.6517 0.000320632 3.34503)