/*--------------------------------*- C++ -*----------------------------------*\
| =========                 |                                                 |
| \\      /  F ield         | OpenFOAM: The Open Source CFD Toolbox           |
|  \\    /   O peration     | Version:  4.1                                   |
|   \\  /    A nd           | Web:      www.OpenFOAM.org                      |
|    \\/     M anipulation  |                                                 |
\*---------------------------------------------------------------------------*/
FoamFile
{
    version     2.0;
    format      ascii;
    class       volScalarField;
    location    "10";
    object      epsilon;
}
// * * * * * * * * * * * * * * * * * * * * * * * * * * * * * * * * * * * * * //

dimensions      [0 2 -3 0 0 0 0];

internalField   nonuniform List<scalar> 
4432
(
0.00038385
0.000431629
0.000473387
0.000529078
0.000580209
0.000636416
0.000697735
0.000754212
0.000807105
0.000865228
0.000905435
0.000950506
0.00100956
0.00108282
0.00117161
0.00141414
0.00131735
0.00388122
0.0257001
0.275372
0.104955
2.4538
1.18394
1.89388
0.479764
0.521599
0.214683
0.0612715
0.0470771
0.0225847
0.0256269
0.0200985
0.0118007
0.00497868
0.00347866
0.00351892
0.00303326
0.00278341
0.00238825
0.00230091
0.00233065
0.00220508
0.00210826
0.00187424
0.00161023
0.00152106
0.00127418
0.000845378
0.000668132
0.000798417
0.00119459
0.00291612
0.00623256
0.0136701
0.000387989
0.000427078
0.000476779
0.000517046
0.000576118
0.000624326
0.00068382
0.000733236
0.000793853
0.000835428
0.000884299
0.000932451
0.000988829
0.00104812
0.00109343
0.00131021
0.000731707
0.00638042
0.0933334
0.570493
0.327841
1.88717
1.22466
0.984346
0.681471
0.0932954
0.0286945
0.0226859
0.0159213
0.00582396
0.00695398
0.00559033
0.0060083
0.00528781
0.0053621
0.00412982
0.00374986
0.00330391
0.00284474
0.00196451
0.00181021
0.0014624
0.00131149
0.00114262
0.00108362
0.000912675
0.000705868
0.000439706
0.00037237
0.000661451
0.00130164
0.00412256
0.00820177
0.0175997
0.0642968
0.000890525
0.000293588
0.00029969
0.000206599
0.000119066
0.000150715
0.000159872
0.000174223
0.000172164
0.000199272
0.000206455
0.000312286
0.000360127
0.000452018
0.000509613
0.000388459
0.028473
0.245952
1.75
3.62038
3.32211
5.31467
5.97887
3.16616
3.19969
1.86787
2.76322
4.2847
6.53744
4.23648
1.00493
1.23742
0.10961
0.0916913
0.0963446
0.079042
0.069147
0.00742154
0.0349845
0.0387271
0.0659876
0.0692022
0.0476417
0.0218467
0.00377829
0.00656619
0.0183959
0.0380565
0.0589578
0.241813
0.496167
0.398776
0.50088
0.0643017
0.000880506
0.00029113
0.000295906
0.000196805
0.000110317
0.000143175
0.000152063
0.000167204
0.000188319
0.000211312
0.000244834
0.000285279
0.000324096
0.000448205
0.000456929
0.000784987
0.00882795
0.147133
0.960556
1.55366
1.86427
2.13391
1.59885
0.867813
0.762952
0.398645
0.290394
0.120092
0.155814
0.0725328
0.0367612
0.0261238
0.0191563
0.0240171
0.0205709
0.00555371
0.00526832
0.000248552
0.00115968
0.000399778
0.000401929
0.000305986
0.00030534
0.000334432
0.000122279
0.00135867
0.00459709
0.0134078
0.0596911
0.210966
0.655599
0.50393
0.586737
0.0641671
0.000154439
4.52801e-06
9.62927e-06
1.08699e-05
1.21808e-05
7.78974e-06
9.44148e-06
1.24378e-05
1.40792e-05
1.94803e-05
2.70181e-05
2.30855e-05
5.74848e-05
7.66325e-05
0.00016236
0.00299622
0.0349598
1.00011
1.26986
1.30248
1.692
2.1897
1.85898
1.20126
1.22201
1.35929
1.50023
2.22435
2.0717
1.30975
0.233591
0.35158
0.0668749
0.0164424
0.0549447
0.0553244
0.0687204
0.0726643
0.0947797
0.123484
0.0951265
0.05927
0.0560087
0.00662482
0.000653805
0.000124413
0.000368806
0.001441
0.0390523
0.00158402
0.00160279
0.0120495
0.0127248
0.0641719
0.000154255
4.60003e-06
9.97683e-06
1.06927e-05
1.17461e-05
9.25841e-06
1.06548e-05
8.09366e-06
1.66606e-05
2.24773e-05
3.04782e-05
3.9546e-05
3.99496e-05
6.37619e-05
6.87865e-05
0.000436414
0.139072
0.534219
0.654726
0.633043
0.780471
0.776413
0.370162
0.0938779
0.0633971
0.0610941
0.0633534
0.103986
0.189884
0.234484
0.0490014
0.178673
0.0286184
0.00718235
0.0162012
0.0131413
0.00665228
0.00167983
0.00179849
0.000703302
0.000509377
0.000112436
0.000204707
5.66e-05
7.71627e-06
0.000403217
0.00186913
0.00658003
0.0186193
0.0065966
0.0176545
0.0101968
0.0142866
0.0641583
0.000154413
6.70746e-07
1.14374e-08
1.31392e-08
7.33845e-08
8.24619e-08
1.5109e-07
5.42504e-07
1.15165e-06
6.45517e-07
2.76588e-06
2.72612e-06
2.01695e-06
9.70218e-06
4.93851e-06
6.37258e-06
0.00654255
0.0434177
0.247162
0.439321
0.446101
0.293735
0.277758
0.279242
0.209357
0.205724
0.216045
0.375829
0.253198
0.315665
0.0878609
0.117349
0.0301433
0.00944904
0.0230815
0.0117996
0.0262589
0.0102726
0.00197348
0.00298066
0.000471269
0.00567428
0.00834634
0.000932299
6.45191e-05
1.02382e-05
0.000180741
0.00131818
0.0111279
0.000161542
0.000437105
0.00619568
0.00519147
0.0641633
0.000154233
6.70413e-07
1.1787e-08
1.24239e-08
7.5823e-08
5.50467e-08
3.03703e-07
4.86215e-07
1.83504e-07
2.28415e-06
1.00816e-06
5.97156e-06
4.05296e-06
7.16643e-06
1.64806e-06
4.3562e-05
0.000125583
0.0585417
0.113977
0.13574
0.0998609
0.0460007
0.113918
0.0925778
0.0657057
0.0593124
0.0426634
0.0899256
0.10426
0.177552
0.0596312
0.0949046
0.0321971
0.00090911
0.00730355
0.00429537
0.0140566
0.00843293
0.00271356
0.00155702
0.000635718
4.03011e-06
0.00132512
0.000450744
3.9295e-05
1.76291e-05
5.73657e-05
3.5324e-05
0.00258754
0.00126758
0.00608974
0.00634704
0.00495674
0.0641508
0.000154405
6.69653e-07
2.46787e-09
1.49358e-09
1.49493e-09
1.49754e-09
1.51547e-09
1.55891e-09
2.41835e-09
2.4049e-09
1.88014e-08
4.30489e-08
2.3265e-08
7.81126e-07
7.85059e-07
2.61834e-07
1.96892e-06
0.00015592
0.000791101
0.0621416
0.0752423
0.0800916
0.0313974
0.0361064
0.0308115
0.107308
0.162332
0.281347
0.294452
0.434524
0.568264
0.53975
0.282316
0.0428138
0.027801
0.0189405
0.00763421
0.00376954
0.0013758
0.000674341
0.000281091
2.45377e-05
1.12551e-05
8.77142e-07
4.16135e-07
7.63256e-07
1.11954e-06
4.38604e-07
9.298e-08
1.55724e-05
5.68999e-05
0.000428991
1.67213e-06
0.0641554
0.000154213
6.64908e-07
2.46795e-09
1.49334e-09
1.49508e-09
1.49683e-09
1.52803e-09
1.58896e-09
1.28286e-08
9.1123e-09
2.48357e-08
2.50678e-07
1.51827e-07
5.75522e-07
2.9798e-07
7.90216e-06
2.82114e-06
0.000160134
0.00179964
0.0132989
0.0266725
0.0217647
0.0467018
0.0678484
0.068238
0.0682372
0.0606632
0.107992
0.118426
0.152256
0.192768
0.171501
0.061498
0.00173798
0.00746821
0.0120384
0.00417851
0.00073492
0.000170386
0.000144876
7.03622e-05
2.10746e-06
2.67975e-09
1.88286e-09
1.99408e-09
3.36618e-09
1.93801e-09
2.578e-08
3.74062e-07
1.30391e-06
1.51559e-05
0.000580042
1.73709e-06
0.0641379
0.000154379
6.57802e-07
2.47316e-09
1.49347e-09
1.49445e-09
1.49443e-09
1.495e-09
1.49751e-09
1.49464e-09
1.49387e-09
1.50119e-09
1.50112e-09
1.49784e-09
2.12062e-09
2.77517e-09
2.5747e-09
3.02702e-08
1.98487e-07
2.68902e-06
0.000125916
0.000644893
0.0100791
0.00592188
0.00989824
0.00925744
0.00763262
0.0387219
0.0660292
0.107378
0.182456
0.331203
0.237378
0.257505
0.021433
0.00420991
0.00119718
0.000735947
0.000314128
1.50926e-09
6.96973e-09
1.56242e-09
1.5063e-09
9.38425e-07
1.52815e-09
2.26218e-09
4.32466e-09
2.37399e-08
1.98261e-09
1.62994e-09
3.45536e-08
1.47697e-07
6.18071e-07
1.13309e-06
0.0641428
0.000154201
6.5726e-07
2.46708e-09
1.49265e-09
1.49417e-09
1.49408e-09
1.4942e-09
1.49781e-09
1.49494e-09
1.49448e-09
1.50516e-09
1.57296e-09
1.55055e-09
1.88314e-09
1.97007e-09
9.52379e-08
9.37871e-09
2.56138e-07
5.26431e-06
5.0398e-05
0.0029687
0.00220843
0.0009635
0.00829133
0.00898388
0.0189011
0.0183175
0.0376499
0.0502776
0.0873701
0.122723
0.0534643
0.000616251
0.000761735
0.0029603
1.22702e-05
1.07465e-08
1.5144e-09
1.49963e-09
1.2074e-05
1.45039e-09
1.022e-09
1.50708e-09
1.50669e-09
1.50862e-09
1.50848e-09
1.5242e-09
1.50869e-09
3.15585e-08
1.11666e-07
1.27731e-06
4.85394e-05
1.56175e-06
0.0641279
0.000154352
6.57742e-07
2.4787e-09
1.49363e-09
1.49416e-09
1.49626e-09
1.49441e-09
1.49457e-09
1.50014e-09
1.49587e-09
1.49579e-09
1.49973e-09
1.49447e-09
1.4941e-09
1.4952e-09
1.49704e-09
1.5111e-09
1.68395e-09
5.0178e-09
6.3617e-07
1.31991e-06
2.79215e-05
9.10789e-06
0.00535623
0.00599562
0.00477861
0.0104594
0.0113204
0.0152804
0.0492006
0.0475354
0.0291885
0.0200854
0.00200964
0.000659652
1.03659e-07
1.50455e-09
1.56032e-09
1.50502e-09
1.50002e-09
1.50415e-09
1.50734e-09
1.50916e-09
1.51371e-09
1.50933e-09
1.51458e-09
1.55915e-09
1.50017e-09
1.49644e-09
1.50157e-09
6.62205e-09
2.52423e-08
5.44063e-08
0.0641323
0.000154167
6.57433e-07
2.47341e-09
1.49272e-09
1.4935e-09
1.49349e-09
1.49325e-09
1.49357e-09
1.49694e-09
1.49525e-09
1.4954e-09
1.49901e-09
1.49416e-09
1.49388e-09
1.49579e-09
1.53264e-09
1.49897e-09
1.7487e-09
3.78099e-08
1.14489e-07
3.15756e-05
1.01053e-05
4.25147e-06
0.00101848
0.00427117
0.00244521
0.00472671
0.0102807
0.0158964
0.0246262
0.0366364
0.00387349
0.00393323
3.37832e-06
6.5104e-05
2.16861e-08
1.51156e-09
1.50163e-09
1.50237e-09
1.50008e-09
1.50293e-09
1.49953e-09
1.50208e-09
1.50866e-09
1.50398e-09
1.50231e-09
1.50536e-09
1.50636e-09
1.50141e-09
1.52731e-09
2.42085e-08
2.50738e-07
6.9038e-08
0.0641112
0.000154342
6.69451e-07
2.47952e-09
1.49207e-09
1.49243e-09
1.49242e-09
1.4937e-09
1.49757e-09
1.49437e-09
1.49334e-09
1.49556e-09
1.49572e-09
1.49942e-09
1.49594e-09
1.49562e-09
1.50005e-09
1.50048e-09
1.4966e-09
1.50059e-09
2.07251e-09
4.67597e-09
8.82895e-08
3.03776e-08
0.00131547
0.00248486
0.00022286
0.00121932
2.88925e-05
4.168e-05
0.000314604
0.000634877
0.00851872
0.00076251
2.47678e-06
5.51788e-05
1.48679e-09
1.4979e-09
1.49912e-09
1.49955e-09
1.50053e-09
1.50671e-09
1.50582e-09
1.50932e-09
1.51734e-09
1.50758e-09
1.50438e-09
1.50266e-09
1.49959e-09
1.49577e-09
1.6501e-09
2.33284e-08
7.41769e-08
1.50425e-07
0.064116
0.000154179
6.69207e-07
2.4757e-09
1.49183e-09
1.49363e-09
1.49357e-09
1.49402e-09
1.49751e-09
1.49393e-09
1.49295e-09
1.49521e-09
1.49532e-09
1.49981e-09
1.49491e-09
1.49542e-09
1.49854e-09
1.49937e-09
1.49537e-09
1.51489e-09
1.64991e-09
2.26055e-06
6.20446e-08
2.5811e-08
8.84854e-05
0.000304739
3.31819e-05
0.000278258
6.77334e-05
0.000193264
4.00795e-05
0.000596871
2.39156e-05
7.57805e-07
1.77814e-08
9.71674e-09
1.50096e-09
1.49666e-09
1.4987e-09
1.49812e-09
1.4983e-09
1.50612e-09
1.49999e-09
1.50139e-09
1.50371e-09
1.50598e-09
1.49998e-09
1.50242e-09
1.50875e-09
1.50111e-09
1.74419e-09
2.21465e-08
5.92273e-08
1.06095e-07
0.0640995
0.000154308
6.69753e-07
2.48549e-09
1.49198e-09
1.49286e-09
1.49663e-09
1.49471e-09
1.49424e-09
1.50115e-09
1.49421e-09
1.49357e-09
1.50033e-09
1.49491e-09
1.4945e-09
1.49504e-09
1.4957e-09
1.49792e-09
1.49748e-09
1.50072e-09
1.49695e-09
1.50087e-09
1.6034e-09
2.59619e-05
0.000311133
0.000664141
0.000162572
3.47912e-05
1.35126e-07
2.07218e-07
6.89482e-07
1.32622e-06
8.3381e-05
1.58941e-06
1.74414e-08
1.82944e-09
1.5001e-09
1.49842e-09
1.49807e-09
1.50068e-09
1.50646e-09
1.5038e-09
1.50405e-09
1.50714e-09
1.51325e-09
1.5066e-09
1.50544e-09
1.50542e-09
1.50648e-09
1.50135e-09
2.19169e-09
4.48269e-08
9.24379e-08
1.24307e-07
0.0641036
0.000154135
6.69499e-07
2.48256e-09
1.49168e-09
1.49216e-09
1.49214e-09
1.49288e-09
1.49363e-09
1.49731e-09
1.49383e-09
1.49388e-09
1.49998e-09
1.49454e-09
1.49443e-09
1.49626e-09
1.4956e-09
1.4975e-09
1.496e-09
1.50269e-09
1.49985e-09
6.52279e-09
1.57339e-09
1.51794e-09
3.09786e-06
1.94773e-05
3.89144e-06
6.87951e-06
2.29719e-07
8.11771e-07
9.61981e-08
1.53766e-06
1.57599e-07
3.09425e-09
1.51299e-09
1.50661e-09
1.50418e-09
1.49893e-09
1.49773e-09
1.50013e-09
1.50489e-09
1.50437e-09
1.50399e-09
1.51087e-09
1.50296e-09
1.50277e-09
1.49941e-09
1.50102e-09
1.50626e-09
1.50848e-09
2.44353e-09
5.718e-08
1.23128e-07
1.90713e-07
0.0640802
0.000154292
6.69606e-07
2.49208e-09
1.49207e-09
1.49286e-09
1.49649e-09
1.4943e-09
1.49374e-09
1.50068e-09
1.5002e-09
1.4941e-09
1.49457e-09
1.49984e-09
1.49488e-09
1.49435e-09
1.4961e-09
1.49706e-09
1.50141e-09
1.49753e-09
1.49542e-09
1.49931e-09
1.49877e-09
1.70884e-09
6.16545e-05
0.000158966
2.85585e-05
2.25991e-06
1.07876e-08
1.78668e-09
2.97756e-09
4.84254e-09
4.15395e-07
1.47983e-08
1.52635e-09
1.50732e-09
1.50566e-09
1.51015e-09
1.50922e-09
1.50899e-09
1.50411e-09
1.5009e-09
1.50346e-09
1.50716e-09
1.51552e-09
1.50878e-09
1.5089e-09
1.51493e-09
1.50717e-09
1.50266e-09
1.5497e-09
1.08162e-08
9.41394e-08
1.26333e-07
0.0640847
0.000154137
6.69232e-07
2.48011e-09
1.49178e-09
1.49277e-09
1.49617e-09
1.49569e-09
1.49584e-09
1.49936e-09
1.49962e-09
1.49396e-09
1.49371e-09
1.49967e-09
1.49552e-09
1.49442e-09
1.49461e-09
1.49833e-09
1.49582e-09
1.49571e-09
1.49571e-09
1.50154e-09
1.49741e-09
1.49866e-09
6.68618e-09
3.8508e-07
8.79655e-09
9.24614e-08
2.3889e-09
3.69038e-09
1.63471e-09
5.59329e-09
1.69869e-09
1.50454e-09
1.50464e-09
1.5049e-09
1.50475e-09
1.50407e-09
1.50476e-09
1.50526e-09
1.50568e-09
1.50535e-09
1.50449e-09
1.50424e-09
1.50514e-09
1.50404e-09
1.5014e-09
1.50435e-09
1.50958e-09
1.50957e-09
1.54408e-09
1.29679e-08
1.19241e-07
1.82873e-07
0.0640678
0.000154253
6.699e-07
2.49068e-09
1.4922e-09
1.49321e-09
1.49314e-09
1.49377e-09
1.49455e-09
1.49522e-09
1.49773e-09
1.49445e-09
1.49391e-09
1.49437e-09
1.49539e-09
1.49452e-09
1.4948e-09
1.49594e-09
1.49625e-09
1.50034e-09
1.4969e-09
1.4956e-09
1.4956e-09
1.06249e-09
5.94499e-07
1.76337e-06
3.47343e-08
2.88541e-09
1.50677e-09
1.50246e-09
1.50356e-09
1.50411e-09
1.79289e-09
1.51121e-09
1.50497e-09
1.50656e-09
1.50998e-09
1.50337e-09
1.50314e-09
1.50679e-09
1.50572e-09
1.50453e-09
1.50436e-09
1.50546e-09
1.50709e-09
1.50833e-09
1.50738e-09
1.51313e-09
1.51035e-09
1.51202e-09
1.51836e-09
1.53951e-09
1.54266e-09
6.35651e-08
0.0640715
0.000154085
6.69662e-07
2.4871e-09
1.49197e-09
1.4922e-09
1.49221e-09
1.49297e-09
1.493e-09
1.49421e-09
1.49719e-09
1.49414e-09
1.49373e-09
1.4942e-09
1.49558e-09
1.49552e-09
1.49484e-09
1.49941e-09
1.50037e-09
1.49492e-09
1.49395e-09
1.49506e-09
1.49458e-09
1.49806e-09
1.50997e-09
1.75825e-09
1.51345e-09
1.55295e-09
1.50171e-09
1.50242e-09
1.49929e-09
1.49924e-09
1.50708e-09
1.50101e-09
1.4996e-09
1.50245e-09
1.51013e-09
1.50667e-09
1.50797e-09
1.50277e-09
1.50219e-09
1.50474e-09
1.50526e-09
1.50848e-09
1.51487e-09
1.50784e-09
1.50524e-09
1.51268e-09
1.51149e-09
1.51534e-09
1.51193e-09
1.51972e-09
1.57557e-09
9.96118e-08
0.0640473
0.000154251
6.71037e-07
2.49073e-09
1.49436e-09
1.49832e-09
1.49504e-09
1.49522e-09
1.501e-09
1.49472e-09
1.4938e-09
1.50049e-09
1.49416e-09
1.49338e-09
1.49497e-09
1.49627e-09
1.49634e-09
1.49682e-09
1.50261e-09
1.50155e-09
1.50392e-09
1.49586e-09
1.49506e-09
1.49775e-09
2.02212e-09
2.46186e-09
1.51516e-09
1.5094e-09
1.5016e-09
1.49897e-09
1.50392e-09
1.50083e-09
1.49942e-09
1.50144e-09
1.50181e-09
1.51169e-09
1.50023e-09
1.49808e-09
1.51096e-09
1.50219e-09
1.50214e-09
1.50557e-09
1.51265e-09
1.51127e-09
1.50877e-09
1.52048e-09
1.52091e-09
1.53113e-09
1.51812e-09
1.51885e-09
1.52677e-09
1.53146e-09
1.52743e-09
1.67131e-09
0.0640514
0.000154105
6.70899e-07
2.49605e-09
1.49254e-09
1.4928e-09
1.49253e-09
1.49383e-09
1.49792e-09
1.49454e-09
1.49361e-09
1.50042e-09
1.49397e-09
1.49265e-09
1.49409e-09
1.49476e-09
1.49559e-09
1.49654e-09
1.49979e-09
1.50074e-09
1.50417e-09
1.49553e-09
1.49471e-09
1.50573e-09
1.50133e-09
1.50219e-09
1.49846e-09
1.49665e-09
1.50496e-09
1.50081e-09
1.49968e-09
1.50825e-09
1.50452e-09
1.50561e-09
1.50483e-09
1.50711e-09
1.50118e-09
1.49816e-09
1.51091e-09
1.50583e-09
1.50501e-09
1.50865e-09
1.51552e-09
1.51647e-09
1.52315e-09
1.51281e-09
1.51158e-09
1.53429e-09
1.52271e-09
1.521e-09
1.5276e-09
1.52253e-09
1.53353e-09
3.38489e-09
0.0640351
0.000154094
6.54574e-07
2.52583e-09
1.49519e-09
1.49537e-09
1.49536e-09
1.49919e-09
1.49843e-09
1.49853e-09
1.50119e-09
1.49612e-09
1.49605e-09
1.501e-09
1.49585e-09
1.49593e-09
1.49594e-09
1.49659e-09
1.50232e-09
1.49792e-09
1.49591e-09
1.49608e-09
1.49735e-09
1.49552e-09
1.49473e-09
1.49962e-09
1.49876e-09
1.5026e-09
1.5003e-09
1.49922e-09
1.5052e-09
1.50542e-09
1.50309e-09
1.50242e-09
1.50871e-09
1.50069e-09
1.49919e-09
1.50688e-09
1.50654e-09
1.51139e-09
1.5115e-09
1.51001e-09
1.51054e-09
1.52221e-09
1.52211e-09
1.51671e-09
1.51777e-09
1.52141e-09
1.5213e-09
1.54289e-09
1.53551e-09
1.53582e-09
1.53293e-09
1.54612e-09
0.0640384
0.000153923
6.53985e-07
2.52124e-09
1.49507e-09
1.49683e-09
1.49635e-09
1.49867e-09
1.49622e-09
1.49594e-09
1.50108e-09
1.49602e-09
1.49624e-09
1.50158e-09
1.49535e-09
1.49331e-09
1.49527e-09
1.49633e-09
1.50121e-09
1.49867e-09
1.49607e-09
1.49438e-09
1.51963e-09
1.48163e-09
1.45672e-09
1.50162e-09
1.50012e-09
1.50392e-09
1.50135e-09
1.50316e-09
1.50221e-09
1.50631e-09
1.50356e-09
1.50886e-09
1.50746e-09
1.50901e-09
1.50081e-09
1.50096e-09
1.50443e-09
1.50436e-09
1.50736e-09
1.50722e-09
1.50987e-09
1.51042e-09
1.51406e-09
1.52107e-09
1.52319e-09
1.54527e-09
1.52505e-09
1.52068e-09
1.54291e-09
1.52994e-09
1.52431e-09
1.54952e-09
0.0640165
0.000154482
6.67677e-07
2.54152e-09
1.49374e-09
1.49424e-09
1.49673e-09
1.49388e-09
1.49309e-09
1.49995e-09
1.49469e-09
1.49387e-09
1.49881e-09
1.49911e-09
1.5016e-09
1.49585e-09
1.49438e-09
1.49538e-09
1.49643e-09
1.50287e-09
1.49853e-09
1.49571e-09
2.30154e-09
1.52553e-09
4.75609e-09
4.00184e-07
2.96749e-07
9.18019e-09
1.51698e-09
1.49927e-09
1.50052e-09
1.50222e-09
1.50381e-09
1.50358e-09
1.50407e-09
1.50384e-09
1.50968e-09
1.50085e-09
1.50082e-09
1.50571e-09
1.50569e-09
1.50688e-09
1.50803e-09
1.52198e-09
1.52117e-09
1.51929e-09
1.51933e-09
1.52401e-09
1.52611e-09
1.54185e-09
1.54193e-09
1.54085e-09
1.54403e-09
1.56855e-09
0.064018
0.000153852
6.57138e-07
2.51972e-09
1.49483e-09
1.49559e-09
1.49835e-09
1.49447e-09
1.49454e-09
1.50121e-09
1.49436e-09
1.49295e-09
1.4946e-09
1.49551e-09
1.49536e-09
1.49371e-09
1.50078e-09
1.49692e-09
1.49712e-09
1.50218e-09
1.49788e-09
1.49653e-09
1.26985e-05
1.11954e-06
1.31551e-07
1.47139e-07
4.71346e-06
1.14248e-06
1.4598e-09
1.49889e-09
1.50053e-09
1.50822e-09
1.50346e-09
1.50505e-09
1.49973e-09
1.49884e-09
1.5002e-09
1.49878e-09
1.50048e-09
1.50436e-09
1.51575e-09
1.5123e-09
1.51254e-09
1.51579e-09
1.51416e-09
1.51317e-09
1.51505e-09
1.534e-09
1.53664e-09
1.53269e-09
1.53478e-09
1.53942e-09
1.53925e-09
1.56151e-09
0.0640031
0.000153942
6.54539e-07
2.53991e-09
1.49367e-09
1.49531e-09
1.50051e-09
1.49388e-09
1.49335e-09
1.50023e-09
1.49761e-09
1.49644e-09
1.49751e-09
1.49971e-09
1.49464e-09
1.49367e-09
1.49513e-09
1.4951e-09
1.49596e-09
1.4976e-09
1.49633e-09
1.49447e-09
1.516e-09
9.98316e-08
3.18685e-05
3.70941e-05
6.54214e-05
1.37222e-05
5.1819e-06
2.15999e-06
3.59102e-07
3.20709e-09
1.50176e-09
1.49735e-09
1.50867e-09
1.508e-09
1.51005e-09
1.50483e-09
1.50523e-09
1.50665e-09
1.5071e-09
1.51708e-09
1.51119e-09
1.51086e-09
1.51933e-09
1.51989e-09
1.51987e-09
1.51868e-09
1.52403e-09
1.52467e-09
1.53121e-09
1.53555e-09
1.54295e-09
1.58531e-09
0.0638599
0.000155348
6.74025e-07
2.57438e-09
1.49438e-09
1.49888e-09
1.49398e-09
1.49361e-09
1.49893e-09
1.49574e-09
1.4959e-09
1.49936e-09
1.49649e-09
1.49626e-09
1.49833e-09
1.49841e-09
1.50086e-09
1.49485e-09
1.49427e-09
1.50277e-09
1.49687e-09
1.49508e-09
1.82764e-09
8.31408e-07
5.63175e-05
2.07568e-05
5.58157e-05
1.36523e-05
3.68227e-06
1.33592e-06
1.24554e-07
1.8901e-09
1.5044e-09
1.50175e-09
1.50429e-09
1.50536e-09
1.50537e-09
1.50718e-09
1.50734e-09
1.51259e-09
1.50869e-09
1.50854e-09
1.5104e-09
1.51077e-09
1.51596e-09
1.51509e-09
1.51487e-09
1.51676e-09
1.52186e-09
1.53015e-09
1.54434e-09
1.54814e-09
1.54823e-09
1.57884e-09
0.0638594
0.000156329
6.87007e-07
2.58735e-09
1.49384e-09
1.49453e-09
1.49738e-09
1.49427e-09
1.49383e-09
1.50213e-09
1.49462e-09
1.49462e-09
1.5022e-09
1.49519e-09
1.49387e-09
1.50123e-09
1.49525e-09
1.49473e-09
1.49944e-09
1.49624e-09
1.49607e-09
1.49353e-09
1.65891e-09
5.99139e-06
0.00781016
0.00113307
0.000298469
5.23158e-05
2.55605e-06
2.50866e-07
2.5662e-09
1.49726e-09
1.50067e-09
1.49891e-09
1.50082e-09
1.51062e-09
1.50872e-09
1.50869e-09
1.51207e-09
1.50799e-09
1.50821e-09
1.51163e-09
1.51547e-09
1.51815e-09
1.52835e-09
1.52091e-09
1.51501e-09
1.51791e-09
1.52768e-09
1.56478e-09
1.56558e-09
1.5682e-09
1.60587e-09
0.0640108
0.000154993
6.57578e-07
2.54698e-09
1.49559e-09
1.49638e-09
1.49815e-09
1.49471e-09
1.49489e-09
1.50056e-09
1.50044e-09
1.49452e-09
1.49454e-09
1.5004e-09
1.49746e-09
1.49812e-09
1.5014e-09
1.49621e-09
1.49437e-09
1.49927e-09
1.49701e-09
1.49706e-09
3.30747e-09
2.74633e-05
0.0117339
0.000850326
0.000225114
1.88458e-05
4.30937e-07
2.20955e-08
1.54881e-09
1.50291e-09
1.50255e-09
1.50218e-09
1.50191e-09
1.50371e-09
1.50593e-09
1.51143e-09
1.50363e-09
1.50306e-09
1.51434e-09
1.51497e-09
1.52346e-09
1.52372e-09
1.53124e-09
1.52729e-09
1.52593e-09
1.52787e-09
1.52951e-09
1.55171e-09
1.55021e-09
1.55426e-09
1.6077e-09
0.0639755
0.0001547
6.63275e-07
2.56557e-09
1.49641e-09
1.49924e-09
1.49376e-09
1.49305e-09
1.49804e-09
1.49792e-09
1.49929e-09
1.49925e-09
1.50009e-09
1.49528e-09
1.49425e-09
1.50138e-09
1.50168e-09
1.49648e-09
1.49865e-09
1.4978e-09
1.4977e-09
1.49933e-09
2.01574e-06
1.66207e-06
2.6784e-05
0.000150465
0.000138104
7.16602e-05
2.02112e-06
3.20009e-07
4.02106e-09
1.51235e-09
1.49772e-09
1.49677e-09
1.50306e-09
1.50267e-09
1.50292e-09
1.50453e-09
1.50476e-09
1.50825e-09
1.50979e-09
1.51313e-09
1.52613e-09
1.51241e-09
1.50943e-09
1.51363e-09
1.51577e-09
1.53812e-09
1.52998e-09
1.5278e-09
1.53241e-09
1.53313e-09
1.54151e-09
1.58874e-09
0.063978
0.000154557
6.62905e-07
2.56169e-09
1.4959e-09
1.49904e-09
1.49393e-09
1.49283e-09
1.49874e-09
1.49841e-09
1.49927e-09
1.49834e-09
1.49947e-09
1.49483e-09
1.49406e-09
1.50254e-09
1.49564e-09
1.49548e-09
1.50169e-09
1.49774e-09
1.49693e-09
1.49774e-09
2.31883e-05
9.93863e-07
1.12998e-05
0.000358627
0.000129209
7.35519e-05
1.5663e-06
9.18033e-08
1.94202e-09
1.50557e-09
1.50053e-09
1.49783e-09
1.49943e-09
1.50095e-09
1.503e-09
1.50975e-09
1.50377e-09
1.50282e-09
1.50376e-09
1.50593e-09
1.5226e-09
1.519e-09
1.5165e-09
1.51383e-09
1.51807e-09
1.54346e-09
1.53703e-09
1.53791e-09
1.56239e-09
1.536e-09
1.53655e-09
1.60759e-09
0.0639545
0.000153901
6.54364e-07
2.56605e-09
1.49526e-09
1.49606e-09
1.49612e-09
1.49962e-09
1.49391e-09
1.49251e-09
1.49935e-09
1.49466e-09
1.49395e-09
1.50083e-09
1.4945e-09
1.4941e-09
1.49618e-09
1.496e-09
1.50095e-09
1.49684e-09
1.49749e-09
1.50239e-09
2.88499e-09
1.29063e-07
1.70503e-07
9.44607e-07
1.53874e-05
9.65117e-06
4.51263e-06
6.7313e-08
1.59963e-09
1.5055e-09
1.50359e-09
1.50374e-09
1.50604e-09
1.50233e-09
1.50259e-09
1.50329e-09
1.50363e-09
1.51531e-09
1.5062e-09
1.50547e-09
1.50921e-09
1.50979e-09
1.51269e-09
1.51709e-09
1.52246e-09
1.52507e-09
1.54321e-09
1.54252e-09
1.5411e-09
1.54151e-09
1.54874e-09
1.6024e-09
0.0639576
0.000153787
6.54263e-07
2.56291e-09
1.49505e-09
1.49584e-09
1.4959e-09
1.49939e-09
1.49369e-09
1.49236e-09
1.49937e-09
1.49844e-09
1.49963e-09
1.49564e-09
1.49528e-09
1.50172e-09
1.50175e-09
1.50313e-09
1.49696e-09
1.49682e-09
1.49662e-09
1.49733e-09
3.93989e-09
2.64614e-07
5.3097e-07
1.70465e-06
1.61188e-05
1.01514e-05
4.71015e-06
6.82032e-08
1.60236e-09
1.49916e-09
1.50309e-09
1.50223e-09
1.50236e-09
1.50831e-09
1.50686e-09
1.50832e-09
1.50488e-09
1.50418e-09
1.5076e-09
1.51001e-09
1.50988e-09
1.51294e-09
1.51633e-09
1.51788e-09
1.51708e-09
1.52139e-09
1.54184e-09
1.53837e-09
1.52913e-09
1.53338e-09
1.54607e-09
1.59559e-09
0.0639463
0.000153956
6.57964e-07
2.56601e-09
1.49281e-09
1.49352e-09
1.49684e-09
1.49362e-09
1.49192e-09
1.49384e-09
1.49393e-09
1.4973e-09
1.49497e-09
1.49504e-09
1.49514e-09
1.49995e-09
1.49684e-09
1.49722e-09
1.50198e-09
1.49699e-09
1.49756e-09
1.50235e-09
1.50017e-09
4.61497e-09
2.09995e-09
2.99818e-07
5.80406e-07
8.21247e-07
1.46686e-08
1.5221e-09
1.49643e-09
1.5065e-09
1.5012e-09
1.49923e-09
1.50163e-09
1.5066e-09
1.50518e-09
1.50589e-09
1.51098e-09
1.51024e-09
1.50945e-09
1.50805e-09
1.51214e-09
1.51733e-09
1.52683e-09
1.51669e-09
1.51393e-09
1.5213e-09
1.52148e-09
1.52658e-09
1.53192e-09
1.54436e-09
1.55407e-09
1.60233e-09
0.0639485
0.000153833
6.57816e-07
2.56271e-09
1.49251e-09
1.49332e-09
1.49664e-09
1.49342e-09
1.4917e-09
1.49761e-09
1.49449e-09
1.49412e-09
1.49865e-09
1.49546e-09
1.49531e-09
1.49607e-09
1.49708e-09
1.49562e-09
1.49465e-09
1.50351e-09
1.50229e-09
1.5037e-09
1.49862e-09
3.94493e-09
2.07639e-09
3.54725e-07
6.182e-07
9.16745e-07
2.36236e-08
1.53452e-09
1.49754e-09
1.50809e-09
1.49839e-09
1.49767e-09
1.49853e-09
1.49857e-09
1.49891e-09
1.9101e-09
2.46137e-09
1.5277e-09
1.50689e-09
1.50775e-09
1.51009e-09
2.48577e-09
1.65048e-09
1.69023e-09
1.5101e-09
1.53095e-09
1.52749e-09
1.5337e-09
1.54023e-09
1.54588e-09
1.55128e-09
1.60728e-09
0.0639294
0.000153927
6.5818e-07
2.56364e-09
1.49288e-09
1.49287e-09
1.49328e-09
1.4987e-09
1.49401e-09
1.49312e-09
1.49877e-09
1.49543e-09
1.49407e-09
1.49565e-09
1.49762e-09
1.49452e-09
1.49375e-09
1.49849e-09
1.49689e-09
1.49643e-09
1.49864e-09
1.50299e-09
1.49722e-09
1.4997e-09
1.49902e-09
4.88169e-09
6.89342e-09
1.92412e-09
1.50217e-09
1.50059e-09
1.50127e-09
1.50069e-09
1.50367e-09
1.50299e-09
1.50309e-09
1.50616e-09
1.50629e-09
1.89071e-09
1.63548e-09
1.50018e-09
1.51128e-09
1.51023e-09
1.5091e-09
1.51557e-09
1.5269e-09
1.58674e-09
1.62806e-09
1.55829e-09
1.54078e-09
1.53427e-09
1.53078e-09
1.54512e-09
1.5478e-09
1.59421e-09
0.0639321
0.000153824
6.58015e-07
2.56078e-09
1.49241e-09
1.49251e-09
1.49292e-09
1.49833e-09
1.49383e-09
1.49295e-09
1.49842e-09
1.49473e-09
1.49485e-09
1.49499e-09
1.49684e-09
1.4944e-09
1.49391e-09
1.49573e-09
1.4961e-09
1.49735e-09
1.49628e-09
1.49745e-09
1.49806e-09
1.50634e-09
1.49742e-09
9.52095e-09
1.03548e-08
2.08563e-09
1.50019e-09
1.49967e-09
1.49895e-09
1.49859e-09
1.50226e-09
1.49768e-09
1.49771e-09
1.50805e-09
1.44338e-09
2.86702e-07
2.79358e-07
2.13797e-08
1.50912e-09
1.50702e-09
4.43118e-09
4.98652e-07
5.03585e-08
1.3962e-07
1.21151e-08
2.62334e-09
1.63363e-09
1.52413e-09
1.52845e-09
1.53306e-09
1.54637e-09
1.58556e-09
0.0639225
0.000153898
6.58825e-07
2.56966e-09
1.49369e-09
1.49372e-09
1.49401e-09
1.49523e-09
1.49696e-09
1.49513e-09
1.4949e-09
1.4965e-09
1.49689e-09
1.50139e-09
1.49812e-09
1.49389e-09
1.49525e-09
1.49738e-09
1.4979e-09
1.50012e-09
1.496e-09
1.4954e-09
1.49706e-09
1.49923e-09
1.49617e-09
1.49636e-09
1.50622e-09
1.49954e-09
1.49944e-09
1.50458e-09
1.50383e-09
1.50466e-09
1.50435e-09
1.50447e-09
1.50793e-09
1.50064e-09
2.97917e-09
2.85312e-07
8.99185e-08
1.64187e-07
1.578e-09
1.93946e-09
1.59678e-09
1.52444e-09
2.27534e-09
5.51304e-08
3.37926e-08
1.63032e-08
1.9149e-09
1.5543e-09
1.54924e-09
1.55378e-09
1.55567e-09
1.57853e-09
0.0639244
0.000153778
6.58592e-07
2.56709e-09
1.49431e-09
1.49567e-09
1.49559e-09
1.4953e-09
1.49621e-09
1.49575e-09
1.49513e-09
1.49537e-09
1.49577e-09
1.50011e-09
1.49548e-09
1.49459e-09
1.49774e-09
1.49775e-09
1.50153e-09
1.49615e-09
1.49441e-09
1.49481e-09
1.49593e-09
1.50234e-09
1.49594e-09
1.49772e-09
1.50357e-09
1.49683e-09
1.49666e-09
1.49925e-09
1.49931e-09
1.49892e-09
1.49817e-09
1.50043e-09
1.50323e-09
1.50704e-09
5.34457e-07
3.97925e-06
3.57024e-06
1.87721e-06
4.38148e-09
6.03835e-09
1.2125e-06
0.000105329
1.80048e-05
7.99562e-06
6.8565e-07
1.98386e-07
4.25758e-08
1.63881e-09
1.55082e-09
1.54595e-09
1.55325e-09
1.59417e-09
0.0639078
0.000153868
6.58532e-07
2.57398e-09
1.49363e-09
1.49376e-09
1.49408e-09
1.49519e-09
1.49716e-09
1.49438e-09
1.49372e-09
1.49995e-09
1.49694e-09
1.49736e-09
1.50112e-09
1.49572e-09
1.49466e-09
1.49891e-09
1.49902e-09
1.50192e-09
1.49484e-09
1.49458e-09
1.50336e-09
1.5018e-09
1.50289e-09
1.49965e-09
1.49922e-09
1.50443e-09
1.50165e-09
1.50169e-09
1.50498e-09
1.50434e-09
1.50534e-09
1.50351e-09
1.50793e-09
1.21734e-08
1.24308e-07
5.47071e-06
3.36692e-06
1.60127e-06
3.66303e-08
1.61551e-07
3.5459e-08
2.1636e-09
3.7116e-07
7.08894e-07
6.60874e-07
3.48412e-07
3.59576e-08
1.6377e-09
1.5697e-09
1.55358e-09
1.54893e-09
1.59255e-09
0.0639102
0.000153767
6.58318e-07
2.57041e-09
1.49427e-09
1.49564e-09
1.49557e-09
1.49538e-09
1.49578e-09
1.49558e-09
1.49677e-09
1.49929e-09
1.49669e-09
1.49707e-09
1.50137e-09
1.49674e-09
1.49411e-09
1.4949e-09
1.49507e-09
1.49947e-09
1.4958e-09
1.49476e-09
1.50414e-09
1.50044e-09
1.50072e-09
1.50524e-09
1.49986e-09
1.50008e-09
1.50535e-09
1.50363e-09
1.50473e-09
1.49766e-09
1.49718e-09
1.49806e-09
1.49589e-09
3.94317e-09
3.56823e-06
4.19856e-05
3.34785e-05
1.58115e-05
3.16579e-07
3.76622e-06
7.88249e-05
0.000699889
0.000148472
4.15633e-05
3.61556e-06
1.16253e-06
1.42122e-06
1.73486e-08
1.56141e-09
1.56318e-09
1.55992e-09
1.58036e-09
0.0639026
0.000153825
6.58088e-07
2.57668e-09
1.495e-09
1.49514e-09
1.49521e-09
1.49598e-09
1.49764e-09
1.49446e-09
1.49254e-09
1.49473e-09
1.49489e-09
1.49934e-09
1.49475e-09
1.49382e-09
1.49696e-09
1.49603e-09
1.49726e-09
1.50047e-09
1.49537e-09
1.49521e-09
1.50302e-09
1.49826e-09
1.49698e-09
1.49789e-09
1.50081e-09
1.49761e-09
1.49772e-09
1.50492e-09
1.50207e-09
1.50245e-09
1.50199e-09
1.50307e-09
1.23163e-09
1.4106e-07
5.99505e-07
5.52755e-05
3.26237e-05
1.01239e-05
5.21613e-06
3.136e-05
9.46773e-06
3.20083e-07
2.21093e-05
2.96596e-06
3.96312e-06
1.6006e-06
3.33647e-07
6.98975e-09
1.59506e-09
1.53724e-09
1.61055e-09
6.18076e-09
0.0639043
0.000153715
6.57899e-07
2.57305e-09
1.49482e-09
1.49511e-09
1.49521e-09
1.49841e-09
1.49403e-09
1.4929e-09
1.49649e-09
1.49402e-09
1.49362e-09
1.49863e-09
1.49406e-09
1.49357e-09
1.49784e-09
1.49782e-09
1.49772e-09
1.49951e-09
1.49564e-09
1.49511e-09
1.49893e-09
1.49884e-09
1.5005e-09
1.50069e-09
1.50364e-09
1.49643e-09
1.49554e-09
1.5037e-09
1.49714e-09
1.49645e-09
1.49757e-09
1.52212e-09
4.27675e-08
5.09005e-07
3.79469e-05
0.000403964
0.000312873
8.36472e-05
2.84852e-06
0.000178723
0.00899292
0.00408036
0.000726278
0.000193559
1.71091e-05
7.78706e-06
3.99963e-06
2.84608e-07
3.98766e-09
1.59719e-09
1.62351e-09
3.93972e-09
0.0638908
0.00015379
6.57665e-07
2.57979e-09
1.49519e-09
1.49831e-09
1.49316e-09
1.49187e-09
1.49707e-09
1.49345e-09
1.49341e-09
1.4943e-09
1.4964e-09
1.4951e-09
1.49488e-09
1.50218e-09
1.49813e-09
1.49869e-09
1.5024e-09
1.49746e-09
1.49742e-09
1.49723e-09
1.49913e-09
1.49785e-09
1.49779e-09
1.50586e-09
1.49608e-09
1.49562e-09
1.50527e-09
1.49641e-09
1.49599e-09
1.50197e-09
1.49575e-09
3.93907e-09
9.98339e-08
1.19291e-06
7.80689e-05
0.000504047