/*--------------------------------*- C++ -*----------------------------------*\
| =========                 |                                                 |
| \\      /  F ield         | OpenFOAM: The Open Source CFD Toolbox           |
|  \\    /   O peration     | Version:  4.1                                   |
|   \\  /    A nd           | Web:      www.OpenFOAM.org                      |
|    \\/     M anipulation  |                                                 |
\*---------------------------------------------------------------------------*/
FoamFile
{
    version     2.0;
    format      ascii;
    class       volScalarField;
    location    "10";
    object      k;
}
// * * * * * * * * * * * * * * * * * * * * * * * * * * * * * * * * * * * * * //

dimensions      [0 2 -2 0 0 0 0];

internalField   nonuniform List<scalar> 
4432
(
0.385543
0.414663
0.439739
0.470883
0.500616
0.530454
0.562202
0.59279
0.618702
0.646432
0.666456
0.682166
0.701178
0.728081
0.759232
0.796619
0.812414
10.4342
101.654
233.904
448.183
532.764
611.446
707.595
681.267
558.129
386.426
187.931
73.1887
81.0709
70.6612
43.694
28.2172
22.3004
3.67571
1.94379
1.63411
1.5885
1.55278
1.56876
1.52681
1.28604
1.28344
1.14625
1.05614
0.692427
0.837341
0.590722
0.865933
1.00854
1.21951
2.29116
2.32665
5.16727
0.388431
0.411882
0.442942
0.466354
0.498891
0.525662
0.557709
0.583233
0.613801
0.636015
0.657104
0.676813
0.696389
0.724675
0.740489
0.766528
0.956376
22.738
146.366
239.247
383.068
451.502
499.473
512.949
495.742
409.27
219.145
105.786
66.6186
27.8297
5.77112
4.19065
3.85111
2.35762
2.08595
1.82657
1.63742
1.36165
1.11868
0.887277
0.920433
0.734858
0.664658
0.572845
0.556412
0.457185
0.286043
0.26047
0.552644
3.48854
4.44696
3.3361
3.14152
6.34256
0.00106085
6.83327e-05
0.00260723
0.00709321
0.0147271
0.02125
0.0285249
0.0361957
0.0460535
0.05725
0.0694295
0.0837765
0.110637
0.144158
0.145326
0.338271
0.503933
1.51823
13.0971
414.304
1119.6
957.806
1775.38
1754.64
1655.08
879.268
474.243
388.909
328.091
775.578
392.857
286.126
379.726
31.4822
41.328
23.0244
15.5636
12.2385
2.40531
3.18998
3.52273
6.06762
6.49605
5.24163
0.205025
0.0965738
0.242235
0.402677
0.53332
0.796414
3.10748
4.42041
4.75122
5.98084
0.00106088
6.72224e-05
0.00273574
0.00673584
0.0148667
0.0213265
0.0281339
0.0364126
0.0451408
0.0583194
0.0624478
0.105228
0.115832
0.172777
0.214061
0.235537
0.272022
0.584889
35.8185
271.387
608.47
543.092
881.437
637.83
554.744
122.511
44.4736
52.6816
59.9965
42.9745
2.35737
9.85792
9.39098
4.53354
2.89543
0.712292
0.858449
0.303023
0.0618857
0.0317761
0.101647
0.0628433
0.0332672
0.0683639
0.0184363
0.00462609
0.0781157
0.182544
0.276849
4.25281
6.66336
4.93666
6.37603
7.21752
0.00105601
2.33923e-06
3.27003e-07
1.2751e-05
6.91456e-05
0.000316241
0.000542128
0.000751255
0.00152412
0.0014655
0.0052539
0.00514887
0.00803152
0.0120297
0.0232822
0.0331887
0.00326362
4.03235
294.486
720.549
742.625
804.318
959.657
571.863
224.374
80.2983
114.038
131.241
164.191
231.779
68.8254
118.578
142.238
24.5928
14.8062
12.3798
6.58661
5.23484
2.63068
4.68886
8.69153
5.26535
5.17255
9.15075
0.846844
0.0271603
0.0152828
0.182507
0.364967
1.94195
6.78235
1.24229
0.0686094
0.108403
0.00105606
2.33805e-06
3.4261e-07
1.18098e-05
6.87908e-05
0.000314671
0.000490947
0.000363886
0.00249062
0.00327897
0.00293587
0.00719855
0.0137141
0.0206353
0.0302627
0.034493
1.43659
16.9287
334.938
470.927
521.661
404.619
255.476
22.9979
38.6487
15.4138
14.7975
13.9857
20.4662
21.5302
38.2579
75.8281
106.552
7.9237
3.40712
3.43009
1.78261
1.24094
0.185595
0.120024
0.174833
0.113738
0.041928
0.107747
0.012402
0.00159771
0.122573
0.731361
3.28679
12.305
26.4377
0.0594779
0.0939649
0.122399
0.00105597
2.33794e-06
1.38162e-08
1.42086e-08
1.45431e-07
7.93358e-07
1.80448e-06
3.95801e-06
7.6777e-06
0.000144331
0.000212092
0.0001432
0.000411031
0.000424858
0.00116836
0.00267535
0.00198359
0.0178635
32.0468
222.854
473.911
339.537
306.268
192.564
264.821
20.6223
62.8054
71.451
120.694
123.168
125.169
172.196
134.151
1.685
1.74784
5.30727
0.417178
0.939214
0.060564
0.0891192
4.06417
1.34468
0.160246
6.17406
0.766842
0.00015226
0.000208564
0.00472379
0.00388229
0.0548078
0.616949
0.566238
0.193701
0.0892249
0.00105602
2.33687e-06
1.38075e-08
1.31392e-08
1.46032e-07
8.47943e-07
2.00183e-06
1.05349e-06
2.45394e-05
4.67023e-05
2.00155e-05
0.00038648
0.000949833
0.00110701
0.00175885
0.00420108
0.22626
2.71078
19.0779
138.482
190.034
84.3493
28.7567
98.4997
125.619
20.9918
48.8081
54.3976
76.5197
76.7787
83.4095
98.8947
57.1082
5.57917
0.549976
0.661934
0.00949492
0.0238118
2.44259e-05
4.2983e-05
0.00435734
7.03892e-05
6.95416e-07
0.00017964
0.000161596
0.000235698
0.228733
0.368325
0.0228605
1.03189
2.20866
0.0659432
0.045323
0.0306815
0.00105593
2.33805e-06
1.38352e-08
3.59801e-10
1.47788e-10
7.3528e-10
1.96598e-09
5.8522e-09
1.12765e-08
1.9846e-07
1.44426e-06
1.18409e-06
3.84326e-06
3.71616e-06
5.60115e-06
3.67395e-05
3.06162e-06
0.0275311
0.295259
7.06104
18.8479
23.7523
51.0536
7.50819
164.218
185.658
86.3485
109.546
180.319
170.45
345.111
685.933
1183.59
424.252
58.5029
4.50133
0.00567646
0.168531
0.00215327
0.00235901
8.89045
0.0424364
0.0184092
0.018228
0.000683969
2.14714e-07
1.79675e-06
0.000333986
6.2548e-06
3.09442e-10
1.66551e-08
6.21838e-07
0.000149601
8.47332e-06
0.00105598
2.33699e-06
1.38634e-08
3.61321e-10
1.49833e-10
8.28731e-10
2.10163e-09
1.00365e-09
8.78606e-08
9.25976e-07
2.69384e-07
3.80972e-06
6.60303e-06
7.05843e-06
8.89793e-06
8.61666e-05
0.00144271
0.0172255
0.201122
2.45409
8.17655
13.1555
29.441
46.3156
114.045
100.356
77.8426
94.3682
163.31
169.939
149.106
272.707
139.45
5.74488
1.23196
0.0305889
7.11182e-05
0.00052642
6.20594e-07
2.84727e-07
0.00225613
5.64841e-06
2.62215e-09
0.00153438
4.90404e-06
3.52936e-08
3.04872e-07
1.54764e-05
2.57803e-06
4.58614e-05
0.000263107
1.82084e-05
0.000329379
9.68096e-06
0.00105585
2.33849e-06
1.39722e-08
3.57261e-10
4.49391e-11
4.24567e-11
4.4867e-11
4.95829e-11
5.88463e-11
2.27937e-11
2.79482e-09
2.79907e-09
1.23467e-08
1.2183e-08
3.07309e-08
1.27161e-06
1.05965e-07
0.000155646
0.00164922
0.0146816
0.0793353
0.347569
0.510379
42.8795
178.137
204.352
176.15
56.6936
103.135
144.445
330.707
519.923
732.487
132.278
1.40484
0.00149531
8.0475e-05
1.3307e-08
9.3225e-09
0.000228716
0.000385584
4.75709e-05
1.3472e-06
1.92539e-09
5.69983e-05
2.33511e-09
3.6013e-08
3.23381e-05
9.62835e-08
4.85641e-08
1.00117e-06
3.56613e-06
5.61563e-06
7.19631e-06
0.0010559
2.33748e-06
1.39568e-08
3.55647e-10
4.50875e-11
4.32121e-11
4.476e-11
4.48509e-11
1.59594e-10
1.52567e-09
5.1595e-10
9.44244e-09
3.54532e-08
3.43842e-08
5.84761e-08
1.53766e-06
1.83251e-05
0.000218355
0.00135653
0.0127718
0.0237379
0.144285
1.05264
4.21905
138.645
184.227
55.1459
62.2321
84.5854
128.698
138.464
236.309
118.857
0.0560898
0.126966
3.63978e-05
9.72595e-10
4.70024e-11
1.30701e-10
4.50375e-11
3.52581e-11
4.43498e-06
1.12495e-07
2.67602e-11
4.0868e-07
3.15593e-09
1.95793e-10
2.51985e-07
1.55974e-09
3.82597e-06
2.22932e-05
3.4003e-06
4.49955e-06
8.06542e-06
0.0010558
2.33863e-06
1.39889e-08
3.58892e-10
4.4992e-11
4.20285e-11
4.33815e-11
4.15781e-11
4.09587e-11
4.34069e-11
5.47199e-11
4.8606e-11
7.77885e-11
8.32136e-11
1.08538e-10
7.73786e-09
6.44793e-10
1.7727e-06
1.96014e-05
0.000127014
3.55346e-05
0.00178464
0.00369054
0.995816
163.383
186.925
100.909
9.52317
4.60945
4.54636
40.7173
45.8205
73.3833
2.56572
0.0133164
6.53861e-06
2.07135e-09
2.33525e-11
1.81961e-11
3.70732e-09
7.37844e-11
4.53077e-11
1.12287e-07
6.93082e-11
5.26393e-11
7.09738e-11
1.05521e-07
1.22975e-06
1.50319e-08
3.4625e-10
7.28564e-10
2.07983e-07
5.86551e-07
5.21809e-07
0.00105584
2.33759e-06
1.39753e-08
3.57396e-10
4.47685e-11
4.17429e-11
4.31128e-11
4.12459e-11
4.09328e-11
4.94125e-11
4.25826e-11
6.54342e-11
1.50175e-10
1.63088e-10
2.84143e-10
8.1643e-09
1.39777e-07
1.66914e-06
1.94716e-05
8.05726e-05
3.0762e-05
0.000324826
0.0196211
0.0729149
5.73666
104.635
1.77957
23.0571
7.85724
26.348
4.09412
30.9597
5.3898
0.0880194
0.00100037
1.87099e-08
4.69823e-11
4.26851e-11
4.40551e-11
4.53395e-11
4.75101e-11
4.92702e-11
8.09826e-11
4.47423e-11
5.46834e-11
4.66507e-11
6.30717e-11
5.91438e-09
9.70864e-11
1.22509e-10
1.03087e-08
2.13705e-07
2.35358e-06
1.60193e-06
0.00105569
2.33928e-06
1.38898e-08
3.5128e-10
4.45921e-11
4.15237e-11
4.23392e-11
4.1752e-11
4.17125e-11
4.32233e-11
4.18067e-11
4.1052e-11
4.45232e-11
4.22365e-11
4.19964e-11
1.27423e-10
1.13456e-11
1.39017e-08
1.54506e-07
1.08859e-06
2.49462e-07
2.917e-05
3.54585e-05
0.0159766
32.3556
87.7189
4.42008
0.187482
0.0463979
0.0166276
0.768337
0.857875
5.48198
0.0429882
0.000294609
1.04748e-08
4.38883e-11
4.43325e-11
4.40631e-11
4.5275e-11
4.54207e-11
4.77029e-11
5.25101e-11
5.11528e-11
5.2635e-11
5.36849e-11
3.57887e-10
1.98833e-08
1.49754e-10
3.30116e-10
2.53427e-08
2.30748e-07
7.2353e-07
8.29758e-07
0.00105574
2.33829e-06
1.38753e-08
3.50155e-10
4.4585e-11
4.23063e-11
4.11383e-11
4.08148e-11
4.10776e-11
4.17351e-11
4.13586e-11
4.09065e-11
4.28442e-11
4.28822e-11
4.367e-11
8.89528e-11
1.0359e-09
1.23032e-08
1.60599e-07
7.87302e-07
2.51979e-07
2.89921e-07
0.000281189
0.00179627
0.0127155
2.66351
0.0159105
0.690041
0.193209
0.496024
0.0625531
0.395639
0.041981
8.46477e-05
7.76137e-06
1.80423e-08
2.94349e-10
4.98758e-11
4.42678e-11
4.51082e-11
4.45058e-11
4.6095e-11
4.90914e-11
4.58064e-11
5.14485e-11
4.59728e-11
4.34795e-11
8.28339e-11
6.55953e-11
1.27126e-09
5.51911e-08
2.89793e-07
5.73037e-07
5.66535e-07
0.00105562
2.33938e-06
1.39067e-08
3.52474e-10
4.46537e-11
4.15972e-11
4.23819e-11
4.18594e-11
4.18141e-11
4.35634e-11
4.1837e-11
4.08374e-11
4.25055e-11
4.25013e-11
4.34098e-11
4.40719e-11
8.7276e-12
1.29433e-10
1.28421e-09
9.14066e-09
4.21171e-10
2.56633e-07
4.62764e-07
1.40848e-08
0.116161
0.385092
0.00125897
0.000249292
0.00021559
1.99678e-05
0.00713602
0.00893003
0.0534236
0.000891011
2.51358e-05
3.6568e-07
5.78987e-09
1.11966e-10
4.40773e-11
4.76333e-11
4.59333e-11
4.90169e-11
5.03992e-11
4.92204e-11
5.2982e-11
4.77788e-11
6.06171e-11
5.22142e-10
9.78452e-11
2.13429e-09
4.81657e-08
2.37513e-07
5.32478e-07
6.34283e-07
0.00105566
2.33838e-06
1.38943e-08
3.51733e-10
4.39469e-11
4.10587e-11
4.15226e-11
4.1626e-11
4.17781e-11
4.30522e-11
4.15495e-11
4.06766e-11
4.27712e-11
4.25067e-11
4.25171e-11
4.36203e-11
3.88796e-11
2.16676e-10
1.39028e-09
7.38288e-09
2.36548e-09
1.53884e-09
4.01675e-06
2.35226e-05
7.60745e-06
0.00571023
1.47533e-05
0.00341826
0.00278125
0.00413266
0.000705224
0.00247495
0.000159103
5.42529e-06
1.45751e-07
2.60079e-09
1.36936e-10
4.74053e-11
4.43962e-11
4.81686e-11
4.62303e-11
4.70119e-11
4.67915e-11
4.84904e-11
4.98955e-11
4.58456e-11
4.38577e-11
4.68973e-11
7.64434e-11
1.30886e-09
3.36938e-08
1.75444e-07
6.88288e-07
8.47088e-07
0.0010555
2.3401e-06
1.39305e-08
3.54331e-10
4.43954e-11
4.064e-11
4.13241e-11
4.03174e-11
4.02695e-11
4.13448e-11
4.13115e-11
4.17117e-11
4.16207e-11
4.17297e-11
4.22713e-11
4.21429e-11
4.23325e-11
4.35492e-11
6.10225e-11
1.96066e-10
2.68019e-11
2.34654e-09
4.2894e-09
2.91319e-06
3.46639e-05
8.79036e-05
7.96098e-08
5.88517e-08
6.31677e-07
1.62994e-07
0.000133251
0.000161398
0.000266703
1.95891e-05
5.76223e-07
1.23452e-08
2.99819e-10
6.06834e-11
4.90206e-11
4.8576e-11
4.6881e-11
4.76331e-11
4.72697e-11
4.87747e-11
5.40073e-11
4.84139e-11
4.65117e-11
5.13052e-11
5.92942e-11
2.6281e-10
7.36694e-09
7.73414e-08
2.66274e-07
4.43141e-07
0.00105554
2.33923e-06
1.39183e-08
3.51251e-10
4.41361e-11
4.19013e-11
4.06508e-11
4.06509e-11
4.18484e-11
4.18053e-11
4.24962e-11
4.26945e-11
4.30366e-11
4.19857e-11
4.15997e-11
4.24054e-11
4.22927e-11
4.62223e-11
6.26271e-11
1.07977e-10
8.77202e-11
5.98933e-11
3.44714e-08
2.16124e-07
3.27538e-08
6.74855e-06
1.6274e-07
1.50626e-05
6.64744e-05
8.63914e-05
1.30598e-05
3.37682e-05
3.08438e-06
8.69733e-08
2.27465e-09
1.54583e-10
5.26907e-11
5.12302e-11
4.80725e-11
4.76144e-11
4.87895e-11
4.75046e-11
4.63385e-11
4.78425e-11
4.68802e-11
4.63424e-11
4.48222e-11
4.82686e-11
4.90473e-11
1.14313e-10
5.01046e-09
8.12422e-08
3.77609e-07
6.99734e-07
0.00105541
2.34017e-06
1.39526e-08
3.53686e-10
4.43155e-11
4.20898e-11
4.04655e-11
4.02661e-11
4.25669e-11
4.10854e-11
4.10236e-11
4.14792e-11
4.28388e-11
4.34481e-11
4.29242e-11
4.2945e-11
4.34556e-11
4.32229e-11
4.31105e-11
4.91274e-11
4.25964e-11
7.27968e-11
1.22583e-10
1.82585e-09
1.78357e-08
1.67766e-08
2.24297e-10
3.4447e-10
4.74022e-09
1.4525e-07
8.74826e-07
9.76486e-07
2.708e-06
2.13084e-07
6.33119e-09
3.72329e-10
6.28126e-11
5.01372e-11
4.87373e-11
4.86217e-11
4.94808e-11
5.01567e-11
4.88931e-11
4.86564e-11
5.04378e-11
5.39957e-11
4.90443e-11
4.79249e-11
5.44988e-11
6.1717e-11
2.08957e-10
1.12409e-09
1.0535e-09
9.37725e-08
0.00105546
2.33929e-06
1.39404e-08
3.52666e-10
4.38574e-11
4.04246e-11
4.05779e-11
4.1172e-11
4.20964e-11
4.13096e-11
4.1429e-11
4.21004e-11
4.34426e-11
4.23897e-11
4.1632e-11
4.29812e-11
4.2003e-11
4.22482e-11
4.35726e-11
4.72562e-11
4.44505e-11
4.32382e-11
6.74193e-10
3.9054e-09
3.3645e-10
6.64557e-08
3.65332e-09
1.52042e-07
5.42862e-07
7.00649e-07
1.10673e-07
2.09445e-07
2.43064e-08
9.06023e-10
1.00977e-10
4.98315e-11
4.55836e-11
4.92546e-11
4.92043e-11
5.07185e-11
5.03571e-11
5.03392e-11
5.1769e-11
5.00647e-11
4.97685e-11
5.56113e-11
5.26837e-11
5.04741e-11
5.04445e-11
5.22745e-11
1.21596e-10
7.21325e-10
2.8374e-09
1.89977e-07
0.00105528
2.34094e-06
1.39802e-08
3.53099e-10
4.33016e-11
3.99628e-11
4.01739e-11
4.06893e-11
4.12359e-11
4.10786e-11
4.13236e-11
4.17193e-11
4.37649e-11
4.25128e-11
4.26381e-11
4.54838e-11
4.22541e-11
4.18591e-11
4.28654e-11
4.31708e-11
4.27385e-11
4.30235e-11
5.28252e-11
4.31589e-11
1.94208e-10
1.76582e-10
5.02545e-11
5.15752e-11
1.17921e-10
8.49096e-10
4.90389e-09
5.33003e-09
1.2331e-08
1.05247e-09
1.07798e-10
5.3442e-11
4.73622e-11
4.48321e-11
4.56116e-11
4.57452e-11
4.9628e-11
5.00457e-11
4.94464e-11
4.94613e-11
5.20282e-11
5.37738e-11
5.82059e-11
5.65951e-11
5.63078e-11
5.56966e-11
6.32969e-11
6.93333e-11
6.18788e-11
3.00328e-09
0.00105532
2.34009e-06
1.39655e-08
3.54371e-10
4.43228e-11
4.18952e-11
4.08407e-11
4.08022e-11
4.24034e-11
4.25595e-11
4.32173e-11
4.2738e-11
4.28055e-11
4.4342e-11
4.21974e-11
4.1811e-11
4.26265e-11
4.23716e-11
4.26401e-11
4.25939e-11
4.22551e-11
4.24941e-11
5.40257e-11
7.85898e-11
4.86615e-11
6.15011e-10
3.7646e-10
1.27593e-09
8.53908e-09
5.12655e-09
7.89315e-10
1.21974e-09
2.04256e-10
5.13699e-11
4.70281e-11
5.06685e-11
4.72478e-11
4.47496e-11
4.73904e-11
4.75579e-11
5.17468e-11
5.20486e-11
5.21738e-11
5.32433e-11
5.43147e-11
6.01941e-11
5.56546e-11
5.49384e-11
5.81911e-11
5.75314e-11
5.67854e-11
5.55843e-11
2.59188e-10
2.76865e-09
0.00105519
2.3412e-06
1.41705e-08
3.74206e-10
4.59496e-11
4.25849e-11
4.37803e-11
4.22532e-11
4.0421e-11
4.23176e-11
4.12811e-11
4.12697e-11
4.28025e-11
4.15749e-11
4.13812e-11
4.19487e-11
4.16288e-11
4.25238e-11
4.52137e-11
4.26976e-11
4.27097e-11
4.32755e-11
4.08597e-11
1.92317e-10
1.42741e-06
1.4687e-11
7.68831e-12
4.20678e-11
6.81295e-11
4.28121e-11
9.3875e-11
7.12244e-11
9.11672e-11
5.09874e-11
4.60739e-11
4.55239e-11
4.59533e-11
4.60816e-11
4.61694e-11
4.74069e-11
4.86209e-11
5.0467e-11
5.05165e-11
5.49031e-11
5.33311e-11
5.25071e-11
5.63779e-11
5.67821e-11
6.3211e-11
6.29472e-11
6.71745e-11
7.40754e-11
7.68684e-11
1.28785e-10
0.00105523
2.34028e-06
1.41568e-08
3.73029e-10
4.59494e-11
4.252e-11
4.36656e-11
4.21361e-11
4.06973e-11
4.28145e-11
4.26495e-11
4.29811e-11
4.28685e-11
4.29694e-11
4.43787e-11
4.2556e-11
4.18728e-11
4.47727e-11
4.44085e-11
4.64516e-11
4.25902e-11
4.28127e-11
3.81762e-11
3.31045e-10
0.000237961
5.11508e-11
3.13478e-11
1.2064e-10
1.29837e-10
1.27063e-10
5.59052e-11
5.98534e-11
4.94129e-11
4.82796e-11
4.63363e-11
4.62607e-11
4.65074e-11
5.05502e-11
4.80293e-11
4.53264e-11
5.63186e-11
5.10193e-11
4.89263e-11
5.32776e-11
5.3705e-11
5.5874e-11
5.7158e-11
7.27986e-11
6.53979e-11
5.98488e-11
7.36898e-11
6.69477e-11
6.04201e-11
1.28096e-10
0.00105502
2.34285e-06
1.41265e-08
3.70055e-10
4.62795e-11
4.30258e-11
4.46035e-11
4.22433e-11
4.1907e-11
4.5847e-11
4.22132e-11
4.15911e-11
4.43325e-11
4.35023e-11
4.31696e-11
4.39593e-11
4.38113e-11
4.47771e-11
4.45294e-11
4.4993e-11
4.70787e-11
4.54414e-11
2.67337e-06
1.06126e-11
5.21358e-06
0.000173973
0.000298009
8.50552e-05
1.66204e-05
1.38775e-06
3.56101e-11
4.47633e-11
4.52318e-11
5.02791e-11
4.65742e-11
4.36353e-11
4.69763e-11
4.66821e-11
4.62985e-11
4.6188e-11
4.85207e-11
4.81446e-11
4.78097e-11
4.90937e-11
4.8954e-11
5.0109e-11
5.20096e-11
5.48426e-11
5.67267e-11
6.22415e-11
6.97052e-11
7.40079e-11
7.54903e-11
9.05342e-11
0.0010551
2.34147e-06
1.41454e-08
3.70525e-10
4.4961e-11
4.18242e-11
4.38023e-11
4.20649e-11
4.15044e-11
4.53421e-11
4.16474e-11
4.15707e-11
4.19653e-11
4.19968e-11
4.35417e-11
4.2901e-11
4.29239e-11
4.35565e-11
4.52634e-11
4.37975e-11
4.25114e-11
2.19646e-10
0.000124529
0.000167294
0.000619737
0.00614957
0.00105182
0.000291251
7.15226e-05
5.67201e-06
1.21669e-07
3.7286e-11
4.52376e-11
4.96902e-11
4.5737e-11
4.38498e-11
4.47733e-11
4.70714e-11
4.61206e-11
4.59306e-11
5.37515e-11
4.91261e-11
4.79839e-11
4.93019e-11
4.92763e-11
5.07909e-11
5.31877e-11
6.95908e-11
6.48589e-11
5.84957e-11
6.31811e-11
6.14088e-11
6.43592e-11
8.24512e-11
0.00105496
2.34226e-06
1.42203e-08
3.77808e-10
4.60607e-11
4.26236e-11
4.40386e-11
4.22588e-11
4.15702e-11
4.43717e-11
4.40453e-11
4.47041e-11
4.33347e-11
4.33359e-11
4.52001e-11
4.30855e-11
4.17815e-11
4.42899e-11
4.33275e-11
4.33296e-11
4.44623e-11
4.34166e-11
2.39653e-12
5.0817e-05
0.00244523
0.00325478
0.00355696
0.00101728
0.000198987
1.66261e-05
2.29776e-07
9.93656e-09
3.21745e-10
5.06505e-11
4.45817e-11
4.85762e-11
4.88136e-11
4.88658e-11
5.22921e-11
5.10292e-11
5.11641e-11
5.66386e-11
5.4617e-11
5.44478e-11
5.58393e-11
5.68514e-11
5.80757e-11
5.87693e-11
6.23583e-11
6.38655e-11
7.27949e-11
7.34289e-11
8.15072e-11
1.1457e-10
0.00105676
2.3494e-06
1.4227e-08
3.76511e-10
4.64944e-11
4.13992e-11
4.22553e-11
4.51111e-11
4.17209e-11
4.18248e-11
4.50249e-11
4.18126e-11
4.13022e-11
4.44027e-11
4.33495e-11
4.30601e-11
4.40581e-11
4.28219e-11
4.26741e-11
4.65326e-11
3.94863e-10
3.23099e-07
6.20137e-09
0.00115206
0.00550916
0.0192136
0.0125542
0.00348342
0.000856299
6.79541e-05
1.4582e-06
6.9371e-08
1.78937e-09
8.65351e-11
5.13299e-11
4.54971e-11
4.45797e-11
5.11173e-11
4.76883e-11
4.57916e-11
4.79998e-11
4.77699e-11
4.90253e-11
5.3302e-11
5.81089e-11
5.51145e-11
5.54284e-11
5.79413e-11
5.82728e-11
6.4302e-11
9.21847e-11
8.45856e-11
7.27552e-11
1.18052e-10
0.00105634
2.34935e-06
1.4188e-08
3.71565e-10
4.55066e-11
4.21823e-11
4.49052e-11
4.22481e-11
4.17569e-11
4.55792e-11
4.21464e-11
4.17535e-11
4.45277e-11
4.4242e-11
4.48454e-11
4.47811e-11
4.48415e-11
4.63153e-11
4.33214e-11
4.23077e-11
4.67817e-11
2.37025e-07
3.66206e-06
0.000542786
0.405581
0.0632601
0.0206039
0.00324116
0.000146169
2.14654e-06
1.02102e-07
2.36788e-09
9.41018e-11
4.8246e-11
4.61938e-11
5.22181e-11
4.83154e-11
4.65448e-11
4.70199e-11
4.69777e-11
4.85286e-11
4.98173e-11
5.07738e-11
5.17879e-11
5.45113e-11
5.71965e-11
7.09189e-11
6.57899e-11
6.25913e-11
7.39993e-11
7.59875e-11
7.79346e-11
1.03609e-10
0.0010546
2.34139e-06
1.43022e-08
3.79034e-10
4.67327e-11
4.52386e-11
4.22432e-11
4.06955e-11
4.21025e-11
4.21864e-11
4.27857e-11
4.35833e-11
4.18856e-11
4.1781e-11
4.33801e-11
4.32513e-11
4.32885e-11
4.3966e-11
4.25052e-11
4.25412e-11
4.98064e-11
1.88442e-07
3.56454e-06
0.000846391
0.0681076
0.0686068
0.0205657
0.00493065
0.000509743
3.56972e-05
1.51452e-06
3.19229e-08
7.14522e-10
7.40204e-11
4.52046e-11
4.6652e-11
5.57895e-11
1.67053e-10
8.35465e-11
9.4908e-11
5.85465e-11
5.81598e-11
5.34932e-11
5.01075e-11
5.63924e-11
5.28757e-11
5.18344e-11
5.6643e-11
5.72837e-11
5.76126e-11
5.89995e-11
6.55632e-11
1.03634e-10
0.00105471
2.34236e-06
1.42318e-08
3.78753e-10
4.66403e-11
4.11307e-11
4.19203e-11
4.41041e-11
4.27736e-11
4.2667e-11
4.49981e-11
4.21434e-11
4.18178e-11
4.53212e-11
4.38857e-11
4.36702e-11
4.47188e-11
4.47891e-11
4.57809e-11
4.42741e-11
4.43872e-11
5.24591e-11
6.46759e-06
5.68826e-05
0.000528162
0.014937
0.0170507
0.00623785
0.000530885
1.10385e-05
5.30121e-07
1.18241e-08
2.88311e-10
5.01668e-11
4.63974e-11
4.60584e-11
4.41744e-11
6.07591e-11
7.44671e-11
5.88344e-11
6.75465e-11
5.80269e-11
5.37705e-11
5.2401e-11
5.39736e-11
6.33375e-11
7.22757e-11
6.40708e-11
5.69562e-11
6.55421e-11
6.64391e-11
6.64777e-11
6.89261e-11
9.96358e-11
0.00105475
2.34155e-06
1.42213e-08
3.78173e-10
4.6508e-11
4.11886e-11
4.18445e-11
4.40093e-11
4.26555e-11
4.25653e-11
4.48502e-11
4.24329e-11
4.13284e-11
4.36742e-11
4.29146e-11
4.26421e-11
4.27214e-11
4.46164e-11
4.32581e-11
4.19584e-11
4.59465e-11
1.95009e-11
0.000193127
0.000429441
0.0574542
0.0766897
0.0455691
0.0146321
0.00153783
7.86764e-05
5.68119e-06
1.38435e-07
2.89206e-09
1.00924e-10
4.62822e-11
4.41338e-11
1.46646e-10
1.62508e-09
1.71563e-08
6.65512e-09
4.20889e-09
7.1964e-10
1.29889e-10
6.33543e-11
5.26091e-11
5.13755e-11
6.8075e-11
8.82562e-11
8.7366e-11
6.86184e-11
6.40591e-11
6.14585e-11
6.83285e-11
1.01241e-10
0.00105461
2.34327e-06
1.42849e-08
3.84774e-10
4.68734e-11
4.31989e-11
4.36534e-11
4.51099e-11
4.22502e-11
4.16904e-11
4.53541e-11
4.23815e-11
4.14811e-11
4.21216e-11
4.32825e-11
4.25856e-11
4.26345e-11
4.69516e-11
4.29027e-11
4.27777e-11
4.56612e-11
5.68811e-11
1.13673e-06
1.3568e-05
5.28695e-05
0.000894754
0.00132573
0.000140801
8.78756e-07
1.25579e-08
1.63339e-09
8.85112e-11
4.45868e-11
4.58164e-11
4.53022e-11
5.87364e-11
2.72391e-10
3.16633e-09
2.4861e-09
6.1767e-10
1.95221e-09
3.14763e-10
9.58947e-11
6.00329e-11
5.53348e-11
3.03575e-10
1.64921e-10
1.3664e-10
1.01366e-10
6.69459e-11
6.32246e-11
6.12172e-11
6.83699e-11
1.02326e-10
0.00105464
2.34265e-06
1.42743e-08
3.84089e-10
4.6749e-11
4.30871e-11
4.35405e-11
4.49892e-11
4.21293e-11
4.18487e-11
4.52277e-11
4.2614e-11
4.14352e-11
4.17099e-11
4.1746e-11
4.29255e-11
4.30667e-11
4.5401e-11
4.30038e-11
4.23411e-11
4.2761e-11
1.35724e-10
1.16619e-05
0.000139196
0.000398434
0.00444959
0.00421825
0.000335029
2.10917e-06
6.21141e-08
1.66096e-08
5.57564e-10
5.75674e-11
4.58515e-11
4.44311e-11
5.25864e-11
4.2537e-08
5.10479e-07
3.67302e-06
1.01754e-06
2.82848e-07
3.64816e-08
2.4363e-09
2.37255e-10
6.4875e-11
5.09307e-11
4.36419e-10
3.16188e-09
1.46386e-09
3.4222e-10
1.33982e-10
8.46574e-11
7.21921e-11
1.0665e-10
0.00105452
2.34296e-06
1.42586e-08
3.82241e-10
4.62714e-11
4.26625e-11
4.29411e-11
4.33482e-11
4.38833e-11
4.35526e-11
4.36542e-11
4.51001e-11
4.25561e-11
4.11794e-11
4.28932e-11
4.30263e-11
4.59258e-11
4.30443e-11
4.18552e-11
4.30989e-11
4.35291e-11
4.62838e-11
8.55777e-08
1.0235e-06
4.19519e-06
6.26935e-05
9.04896e-05
1.54456e-06
3.33774e-08
1.00077e-09
7.11791e-11
4.32476e-11
4.27883e-11
4.37094e-11
3.7432e-11
5.03723e-10
2.94293e-08
3.52699e-07
4.12426e-07
7.86954e-08
1.0471e-07
1.62252e-08
2.10969e-09
3.28593e-10
7.99142e-10
8.63369e-09
6.90863e-09
4.71144e-09
1.36142e-09
2.83479e-10
1.18249e-10
8.1559e-11
7.51402e-11
1.04636e-10
0.00105456
2.3423e-06
1.42478e-08
3.81321e-10
4.61469e-11
4.25502e-11
4.28226e-11
4.32385e-11
4.33682e-11
4.33121e-11
4.38706e-11
4.50864e-11
4.21296e-11
4.11123e-11
4.23125e-11
4.26224e-11
4.55306e-11
4.30207e-11
4.22141e-11
4.26126e-11
4.26669e-11
4.66834e-11
9.04694e-07
1.08205e-05
1.11656e-05
0.000321732
0.000348321
7.54626e-06
1.48569e-07
4.06801e-09
1.50741e-10
5.4022e-11
4.46459e-11
4.33856e-11
4.52296e-11
2.29027e-11
1.08353e-05
0.000130042
0.000594916
0.000124365
1.26565e-05
1.26456e-06
1.18813e-07
2.70458e-09
1.43431e-10
1.00125e-09
2.67875e-08
1.98119e-07
3.769e-08
3.60406e-09
8.11629e-10
2.17741e-10
1.09824e-10
1.14001e-10
0.0010544
2.34363e-06
1.42774e-08
3.8146e-10
4.53719e-11
4.12895e-11
4.16354e-11
4.20315e-11
4.19065e-11
4.24623e-11
4.4184e-11
4.21856e-11
4.17178e-11
4.36997e-11
4.38021e-11
4.45519e-11
4.30678e-11
4.28077e-11
4.34576e-11
4.44998e-11
4.35601e-11
4.36606e-11
6.14778e-10
7.27444e-09
2.35228e-08
2.47225e-06
2.74501e-06
1.95773e-07
4.51052e-09
1.37132e-10
4.83367e-11
4.41202e-11
4.49515e-11
4.96803e-11
1.37401e-08
1.64438e-07
6.16708e-06
7.38499e-05
5.9904e-05
7.40598e-06
1.04281e-05
4.75069e-07
4.10945e-08
5.4078e-09
4.28704e-10
2.17959e-07
2.97099e-07
2.1151e-07
4.4677e-08
9.26454e-09
1.89486e-09
4.03939e-10
1.31097e-10
1.08021e-10
0.00105444
2.34308e-06
1.42655e-08
3.80663e-10
4.52635e-11
4.11948e-11
4.1512e-11
4.18968e-11
4.18119e-11
4.23854e-11
4.41711e-11
4.21007e-11
4.16177e-11
4.23142e-11
4.18119e-11
4.23864e-11
4.31332e-11
4.55406e-11
4.57806e-11
4.58695e-11
4.28404e-11
4.86001e-11
6.13978e-09
7.34209e-08
3.09839e-08
1.39706e-05
1.25436e-05
7.96511e-07
1.89863e-08
4.59895e-10
6.63287e-11
4.47628e-11
4.3304e-11
4.8172e-11
3.89785e-10
1.37387e-08
0.00129172
0.0155026
0.0316119
0.00869115
0.00104736
2.99461e-05
3.3794e-06
1.6802e-09
1.61306e-10
4.53391e-08
1.39567e-06
8.19983e-06
6.44906e-07
6.60519e-08
6.40555e-09
1.12217e-09
2.0287e-10
1.25923e-10
0.00105433
2.34353e-06
1.4289e-08
3.82468e-10
4.55312e-11
4.13514e-11
4.16685e-11
4.2203e-11
4.20413e-11
4.25428e-11
4.39644e-11
4.2762e-11
4.2742e-11
4.55299e-11
4.27559e-11
4.18187e-11
4.20637e-11
4.21824e-11
4.24363e-11
4.33385e-11
4.6411e-11
4.30584e-11
4.25457e-11
8.41992e-11
1.41512e-10
9.60825e-09
8.96242e-09
7.0039e-10
7.90964e-11
4.52968e-11
4.33547e-11
4.41945e-11
4.37881e-11
5.51576e-11
2.26398e-06
2.70814e-05
0.000647415
0.00774267
0.00404356
0.000473123
0.000893639
1.72481e-05
9.57695e-07
1.86696e-07
8.00989e-09
1.06811e-05
5.4438e-06
4.36802e-06
1.32566e-06
1.46872e-07
2.58657e-08
3.73867e-09
6.12342e-10
2.13963e-10
0.00105436
2.34297e-06
1.42788e-08
3.81794e-10
4.54241e-11
4.13146e-11
4.16252e-11
4.19935e-11
4.1749e-11
4.22329e-11
4.37883e-11
4.26674e-11
4.26558e-11
4.54377e-11
4.27224e-11
4.18643e-11
4.46069e-11
4.25689e-11
4.24615e-11
4.30751e-11
4.50566e-11
4.30661e-11
3.92611e-11
4.15203e-10
3.01657e-10
6.54923e-08
4.45908e-08
2.90682e-09
1.37998e-10
4.56468e-11
4.5718e-11
4.50696e-11
7.02062e-11
7.57671e-09
9.07652e-08
2.26454e-06
0.12638
1.42309
2.46712
0.47198
0.0635209
0.000466122
0.000121298
4.08972e-08
2.54097e-08
1.26099e-05
9.36754e-05
0.000130281
3.43273e-06
8.34079e-07
9.92234e-08
9.15052e-09
1.53066e-09
3.76713e-10
0.00105422
2.34407e-06
1.43087e-08
3.83662e-10
4.55394e-11
4.13374e-11
4.16649e-11
4.21769e-11
4.20148e-11
4.24999e-11
4.40499e-11
4.18496e-11
4.16341e-11
4.26488e-11
4.26087e-11
4.56887e-11
4.25674e-11
4.12304e-11
4.14163e-11
4.14753e-11
4.31123e-11
4.30649e-11
4.60405e-11
4.35351e-11
4.34796e-11
7.78719e-11
6.75696e-11
4.48282e-11
4.34582e-11
4.40264e-11
4.31259e-11
4.2242e-11
4.84811e-11
8.63721e-12
0.00165218
0.0196034
0.0976829
1.05905
0.341525
0.292298
0.028761
3.5165e-05
3.2934e-06
4.65177e-06
9.34265e-09
0.000238294
9.39393e-05
4.78571e-05
6.65689e-06
1.65793e-06
1.34055e-07
7.70468e-09
1.05774e-09
1.11582e-09
0.00105425
2.34358e-06
1.42972e-08
3.82728e-10
4.53808e-11
4.12866e-11
4.15982e-11
4.19639e-11
4.17589e-11
4.22577e-11
4.376e-11
4.17646e-11
4.15467e-11
4.24694e-11
4.26085e-11
4.54538e-11
4.23354e-11
4.13096e-11
4.29771e-11
4.21756e-11
4.25904e-11
4.27229e-11
4.58926e-11
4.45891e-11
4.36636e-11
2.52411e-10
1.69153e-10
5.92116e-11
4.87567e-11
4.36019e-11
4.28461e-11
4.77588e-11
5.61357e-10
3.96815e-07
4.76195e-06
0.00943443
0.0936139
19.3431
24.9188
21.9053
0.478389
0.00022744
0.0382892
0.000281704
8.20168e-05
0.00338296
0.00574905
0.00334595
7.50765e-05
7.66871e-06
1.02639e-06
6.73324e-08
8.46337e-09
1.18956e-09
0.00105415
2.34391e-06
1.43205e-08
3.84566e-10
4.5956e-11
4.17345e-11
4.2168e-11
4.25425e-11
4.26914e-11
4.50152e-11
4.2435e-11
4.10646e-11
4.34679e-11
4.32727e-11
4.32824e-11
4.33467e-11
4.46918e-11
4.21671e-11
4.13178e-11
4.49962e-11
4.3489e-11
4.29671e-11
4.45725e-11
4.46556e-11
4.64987e-11
4.35326e-11
4.26408e-11
4.57987e-11
4.51749e-11
4.37998e-11
4.41984e-11
4.69102e-11
3.9299e-09
1.83565e-05
0.000220295
0.0853988
3.25508
24.6553
23.4678
19.7176
0.526782
0.00373807
0.000729809
9.19769e-05
9.33959e-08
0.000988835
0.000340759
0.000183486
2.09802e-05
1.97188e-06
1.45887e-07
7.04052e-09
4.17917e-09
2.36053e-08
0.00105418
2.3434e-06
1.43105e-08
3.83628e-10
4.58129e-11
4.15948e-11
4.19756e-11
4.23614e-11
4.24314e-11
4.48245e-11
4.23091e-11
4.09704e-11
4.33699e-11
4.3112e-11
4.3149e-11
4.42208e-11
4.20896e-11
4.16345e-11
4.32105e-11
4.32118e-11
4.29933e-11
4.28944e-11
4.36478e-11
4.36353e-11
4.67635e-11
4.36651e-11
4.27839e-11
4.60859e-11
4.33687e-11
4.29882e-11
4.50235e-11
4.47921e-11
1.53509e-10
0.000224248
0.00269123
0.733429
8.71362
177.651
173.299
105.991
47.7676
0.528893
4.59487
0.491462
0.0595291
0.104123
0.0435038
0.0102385
0.00159801
5.36596e-05
4.37595e-06
1.31268e-07
2.57261e-08
5.89455e-09
0.00105406
2.34432e-06
1.43384e-08
3.85768e-10
4.54543e-11
4.12515e-11
4.16995e-11
4.34837e-11
4.25268e-11
4.1947e-11
4.23232e-11
4.25521e-11
4.47713e-11
4.23242e-11
4.2036e-11
4.33948e-11
4.35071e-11
4.66608e-11
4.26561e-11
4.18205e-11
4.29846e-11
4.29452e-11
4.65308e-11
4.3305e-11
4.29177e-11
4.7518e-11
4.35724e-11
4.3121e-11
4.74286e-11
4.33418e-11
4.20552e-11
2.60848e-11
9.95555e-10
0.000814417
0.00977366
0.475216
5.60769
209.685
134.324
105.703
12.5814
2.31826
0.352921
0.00987419
9.93517e-06
0.00238586
0.00013712
0.000206906
1.9692e-05
1.80793e-06
2.24738e-08
1.54147e-07
2.34266e-07
2.28632e-07
0.00105409
2.34386e-06
1.43273e-08
3.85134e-10
4.53526e-11
4.16222e-11
4.20938e-11
4.24469e-11
4.24296e-11
4.34146e-11
4.22437e-11
4.21998e-11
4.51081e-11
4.21842e-11
4.18214e-11
4.31122e-11
4.34577e-11
4.66045e-11
4.27451e-11
4.16282e-11
4.33017e-11
4.32794e-11
4.31315e-11
4.39816e-11
4.33188e-11
4.15704e-11
4.29554e-11
4.3059e-11
4.69257e-11
4.34817e-11
4.21332e-11
4.54201e-11
4.2751e-11
0.00485627
0.0581806
17.1839
187.088
456.913
594.527
287.262
141.777
26.5358
72.2684
31.1405
5.09391
0.964373
0.0546518
0.00524377
0.00384682
0.000325043
4.01844e-07
2.18121e-07
1.58907e-07
1.01839e-07
0.001054
2.34408e-06
1.43515e-08
3.8651e-10
4.53707e-11
4.16465e-11
4.27545e-11
4.17521e-11
4.16441e-11
4.2101e-11
4.31148e-11
4.21262e-11
4.19081e-11
4.53608e-11
4.3722e-11
4.30485e-11
4.3676e-11
4.48991e-11
4.36353e-11
4.36247e-11
4.57542e-11
4.47428e-11
4.44571e-11
4.66175e-11
4.3286e-11