/*--------------------------------*- C++ -*----------------------------------*\
| =========                 |                                                 |
| \\      /  F ield         | OpenFOAM: The Open Source CFD Toolbox           |
|  \\    /   O peration     | Version:  4.1                                   |
|   \\  /    A nd           | Web:      www.OpenFOAM.org                      |
|    \\/     M anipulation  |                                                 |
\*---------------------------------------------------------------------------*/
FoamFile
{
    version     2.0;
    format      ascii;
    class       volScalarField;
    location    "10";
    object      nut;
}
// * * * * * * * * * * * * * * * * * * * * * * * * * * * * * * * * * * * * * //

dimensions      [0 2 -1 0 0 0 0];

internalField   nonuniform List<scalar> 
4432
(
34.8518
35.8528
36.7635
37.718
38.8747
39.792
40.7697
41.9325
42.685
43.4669
44.1498
44.0624
43.8297
44.0602
44.2801
40.388
45.0918
2524.61
36187.1
17881.3
172247
10410.5
28420.2
23793.5
87066.1
53749.6
62600.5
51877.7
10240.5
26191.4
17535.1
8549.15
6072.41
8989.89
349.553
96.6343
79.2311
81.5909
90.8627
96.2623
90.0189
67.504
70.3181
63.0917
62.3442
28.3691
49.524
37.1499
101.006
114.656
112.046
162.013
78.1698
175.79
34.9986
35.7504
37.0355
37.8569
38.8814
39.8331
40.9371
41.7525
42.7128
43.5781
43.9451
44.2133
44.1393
45.0939
45.1325
40.3605
112.503
7292.86
20657.8
9029.96
40283.9
9721.88
18333.8
24057.1
32456.9
161585
150628
44396.1
25087.3
11968.5
431.051
282.728
222.159
94.6047
73.0326
72.7083
64.3501
50.5062
39.5923
36.0668
42.121
33.2339
30.3161
25.8473
25.7133
20.6115
10.4324
13.8866
73.8173
1655.89
1367.35
242.971
108.297
205.716
1.5753e-06
4.71903e-07
0.00208383
0.0151097
0.0944821
0.34133
0.485884
0.737537
1.09562
1.71337
2.17713
3.05958
3.52772
5.19352
4.2051
20.2084
58.836
7.28595
62.7689
8827.61
31161.5
24853.2
53376.5
46344.6
77866.2
21745.9
10836.7
4926.33
2261.05
8281.06
3278.74
7331.96
10487.3
813.809
1676.5
495.212
275.807
194.951
70.1604
26.1785
28.8393
50.2131
54.8809
51.9024
0.17317
0.22216
0.804274
0.793297
0.672651
0.968231
3.59402
3.54437
5.09477
6.42738
1.57526e-06
4.6189e-07
0.0023137
0.0137998
0.101073
0.371057
0.497549
0.784737
1.09682
1.62545
1.66093
4.07033
4.2328
8.28976
9.20117
10.9273
8.48377
3.48763
784.78
6900.75
21446.9
14239
32767.9
22900.5
31915.5
1770.5
446.54
860.146
2697.62
1066.74
6.89546
237.916
303.828
96.562
31.4159
2.21976
11.9423
1.56864
1.38678
0.0783621
2.32601
0.884324
0.325516
1.37756
0.0914703
0.0157514
0.404208
0.652371
0.514483
27.27
18.9415
3.34557
7.2606
7.99053
1.56411e-06
3.18884e-09
2.12539e-09
1.51962e-06
3.95864e-05
0.000738929
0.00339565
0.00537993
0.0168088
0.013729
0.127529
0.0883103
0.251478
0.22657
0.636617
0.610583
0.000319939
41.8592
7804.15
36797.1
38107.4
34411.1
37852
15832.6
3771.81
474.877
861.057
1033.3
1090.78
2333.8
325.501
5417.47
5179.07
813.945
1199.95
251.039
70.5747
35.8891
8.5715
20.8767
55.0585
26.2298
40.6273
134.555
9.74262
0.101546
0.168959
8.12834
8.31929
8.69108
2613.61
86.6584
0.0351595
0.0831132
1.56413e-06
3.1894e-09
2.29658e-09
1.25815e-06
3.98305e-05
0.000758688
0.00234302
0.00111849
0.0689782
0.0580798
0.0345122
0.153018
0.428032
0.959292
1.29269
1.55669
425.606
185.46
18899.6
30485.3
38688.9
18879
7565.71
128.596
1432.02
337.283
322.567
277.87
362.532
219.709
561.787
10560.8
5718.85
197.448
145.463
65.3592
21.7628
20.8341
1.84548
0.720898
3.91155
2.28569
1.40717
5.10412
0.244574
0.0297737
3.35347
25.7552
147.76
731.884
9536.11
0.0180342
0.0779311
0.0943771
1.5642e-06
3.18585e-09
2.5613e-11
1.58861e-09
1.44874e-07
7.71928e-07
3.55379e-06
9.33172e-06
9.77915e-06
0.00162795
0.0062717
0.000667263
0.0055776
0.00805444
0.0126626
0.130439
0.0555688
0.00438963
2128.84
18084.2
46010.2
23258.6
28740.3
12015
22603
182.823
1725.64
2126.74
3488.36
5392.36
4466.92
30373.5
13802.3
8.47719
29.0977
109.83
1.32745
3.0234
0.0321358
0.362202
498.738
345.311
0.40729
411.044
56.7674
3.23388e-05
0.00038238
0.0111114
0.00102907
0.0242948
212.059
66.0168
0.545028
0.138014
1.56423e-06
3.18663e-09
2.55936e-11
1.31819e-09
1.54484e-07
8.53444e-07
6.55191e-06
3.28893e-07
0.000111466
0.00106973
1.57853e-05
0.0133341
0.0135972
0.0272129
0.0388505
0.963808
105.767
5266.22
559.552
15143
23944.1
6412.25
1617.92
7665.14
15340.8
603.585
3614.77
6242.33
5860.1
5088.71
3526.54
14761
3092.8
87.0093
29.9442
5.39931
0.00188897
0.00363034
6.36743e-09
6.12768e-08
0.00109747
7.01439e-07
1.07998e-08
2.19176e-06
5.21405e-06
0.000127238
267.099
212.84
1.33151
37.036
346.357
0.0642664
0.0291278
0.0170923
1.56427e-06
3.1863e-09
2.57254e-11
4.72113e-12
1.31611e-12
3.25482e-11
2.32287e-10
2.03391e-09
7.3412e-09
1.46578e-06
7.80611e-05
6.71151e-06
3.08802e-05
5.34232e-05
3.61473e-06
0.000154741
3.22195e-06
34.6467
50.3209
5672.15
514.503
674.827
2928.93
161.592
67220.3
100684
6253.44
6653.26
10401.1
8880.2
24668.7
74517.1
233590
57379.4
7194.71
65.5941
0.000153111
0.334841
0.000110701
0.000364036
10549
0.576597
1.24302
2.65687
0.0480005
9.97077e-09
3.80669e-07
0.00896721
8.0278e-06
9.26855e-14
1.60319e-12
6.11624e-10
4.6953e-06
3.86438e-06
1.56429e-06
3.18738e-09
2.6015e-11
4.76093e-12
1.35299e-12
4.13433e-11
2.65574e-10
5.93298e-11
4.37238e-07
6.01536e-06
7.16733e-07
5.25958e-05
1.56535e-05
2.95332e-05
1.23811e-05
0.0022425
0.0237058
9.46593
22.7342
301.187
452.448
583.971
3584.22
4133.93
17252.5
13283.3
7992.02
13212
22226.7
21947.3
13141.9
34721.6
10204.9
48.2995
78.5939
0.0112759
3.78126e-08
5.96879e-06
4.71647e-11
4.28219e-11
0.00316208
4.0809e-08
2.93629e-13
79.0705
0.00114956
5.62203e-08
2.48508e-06
0.0111231
2.32026e-05
0.000506051
0.00477816
1.96882e-06
1.68335e-05
4.85574e-06
1.56435e-06
3.18806e-09
2.67103e-11
4.64473e-12
1.21701e-13
1.08556e-13
1.21233e-13
1.48001e-13
2.08119e-13
3.12849e-14
4.70585e-10
4.69712e-10
9.13956e-09
8.91839e-09
4.00804e-08
5.24397e-05
3.92498e-07
0.0720286
1.2333
7.21436
4.49876
16.8592
2.32599
27943.6
288532
405984
365878
7470.58
14498.4
17487.6
53947.3
73455.8
203424
6115.49
8.28728
4.78004e-05
4.86861e-07
2.16548e-14
2.49e-14
3.11941
1.91983
0.130355
0.000108441
3.55532e-13
0.191337
2.16936e-10
2.69904e-08
0.00396453
4.20833e-07
1.30227e-07
2.61073e-06
7.74937e-06
4.59199e-06
4.11338e-06
1.56438e-06
3.18898e-09
2.66735e-11
4.61423e-12
1.22574e-13
1.12474e-13
1.20684e-13
1.21164e-13
1.53045e-12
1.40134e-10
1.60313e-11
5.33126e-09
7.19178e-08
6.86239e-08
1.63425e-07
0.000108015
0.000317341
0.457535
0.646589
2.78874
1.00627
0.631128
45.1561
1662.73
208654
340006
14480.4
19028.5
17102.9
29649.3
19749.5
40952.3
23780.8
0.459466
1.90465
4.02769e-08
6.93835e-15
1.85018e-14
1.01522e-12
1.21733e-13
9.26637e-18
0.00122051
1.11444e-06
4.27647e-14
9.97667e-06
5.94179e-10
2.28716e-12
3.74929e-06
1.45126e-10
4.17455e-05
0.000400561
8.14664e-07
3.75394e-08
3.74873e-06
1.56443e-06
3.18901e-09
2.67765e-11
4.67679e-12
1.21974e-13
1.06398e-13
1.132e-13
1.04112e-13
1.01023e-13
1.13039e-13
1.80152e-13
1.42151e-13
3.63129e-13
4.17007e-13
7.09622e-13
3.604e-09
2.49948e-11
0.000187164
0.0205346
0.289354
0.000178637
0.217169
0.0439019
9799.03
448538
524495
191778
780.371
168.919
121.741
3032.7
3975.07
16604.5
29.4973
0.00794141
5.83308e-09
3.72514e-12
3.26215e-14
1.90978e-14
8.21898e-10
3.26645e-13
1.22828e-13
7.52826e-07
2.86467e-13
1.64748e-13
3.00369e-13
6.61653e-07
8.7295e-05
1.35559e-08
7.21045e-12
3.1815e-11
5.87904e-07
1.22666e-06
4.50419e-07
1.56445e-06
3.18997e-09
2.67371e-11
4.64779e-12
1.2084e-13
1.05003e-13
1.12009e-13
1.02535e-13
1.00962e-13
1.46795e-13
1.09142e-13
2.57688e-13
1.35405e-12
1.6021e-12
4.86409e-12
4.01062e-09
1.14729e-06
0.000167276
0.0195133
0.015453
0.000743889
0.00030074
3.42876
112.547
2908.09
230701
116.562
10122.6
540.457
3930.43
61.2585
2354.64
674.971
0.177276
0.02666
4.83926e-13
9.16074e-15
1.08485e-13
1.16325e-13
1.23146e-13
1.35425e-13
1.45369e-13
3.93614e-13
1.19946e-13
1.78386e-13
1.30231e-13
2.38315e-13
2.09132e-09
5.63157e-13
8.99656e-13
6.26213e-09
1.69787e-07
1.98829e-06
3.34536e-06
1.56453e-06
3.19096e-09
2.59367e-11
4.479e-12
1.19942e-13
1.03978e-13
1.08102e-13
1.05035e-13
1.04566e-13
1.12518e-13
1.05336e-13
1.01416e-13
1.19279e-13
1.07077e-13
1.06109e-13
9.77047e-13
7.72306e-15
1.15917e-08
1.43557e-06
7.10738e-05
2.70242e-06
0.0163774
0.00128166
756.235
71624.5
278693
7889.9
2.59445
6.70586
0.596998
168.881
104.328
317.499
0.21812
0.0031539
1.78963e-13
1.16598e-13
1.18087e-13
1.16562e-13
1.23026e-13
1.23739e-13
1.35925e-13
1.64799e-13
1.56027e-13
1.64327e-13
1.72055e-13
7.66259e-12
2.36787e-08
1.34595e-12
6.55706e-12
3.50297e-08
2.05416e-07
6.35165e-07
4.11932e-07
1.56455e-06
3.19164e-09
2.58922e-11
4.45722e-12
1.19922e-13
1.07847e-13
1.01979e-13
1.00351e-13
1.0141e-13
1.04933e-13
1.03117e-13
1.00722e-13
1.10483e-13
1.10347e-13
1.14814e-13
4.7621e-13
6.44475e-11
9.08596e-09
1.55232e-06
3.68252e-05
3.46348e-06
3.34648e-09
0.114693
11.2508
0.164453
2095.19
0.686605
154.008
49.6015
114.577
8.78654
23.6027
6.63234
0.000850973
0.000304897
3.01512e-09
5.19515e-12
1.49589e-13
1.1768e-13
1.22238e-13
1.18981e-13
1.26967e-13
1.44599e-13
1.25777e-13
1.58425e-13
1.26306e-13
1.13429e-13
4.11025e-13
2.56667e-13
9.68949e-11
1.57176e-07
3.41282e-07
4.98983e-07
2.7227e-07
1.5646e-06
3.19195e-09
2.59883e-11
4.49868e-12
1.2028e-13
1.04316e-13
1.08016e-13
1.05505e-13
1.0531e-13
1.13779e-13
1.05427e-13
1.00493e-13
1.08379e-13
1.08751e-13
1.13481e-13
1.16926e-13
4.5834e-15
1.00656e-12
9.91191e-11
5.01069e-09
1.06648e-11
3.94933e-06
1.20204e-05
6.87709e-13
3.90313
20.0961
0.000877459
0.000160765
0.0309572
0.000173172
6.64709
5.4117
3.08064
0.0449544
0.00326021
6.57851e-06
2.01122e-09
7.52979e-13
1.16719e-13
1.36074e-13
1.26049e-13
1.43795e-13
1.51995e-13
1.44671e-13
1.66951e-13
1.36369e-13
2.19669e-13
1.62991e-11
5.7195e-13
2.73065e-10
9.52661e-08
1.1326e-07
2.76055e-07
2.91282e-07
1.56463e-06
3.19279e-09
2.59518e-11
4.48507e-12
1.16526e-13
1.0168e-13
1.03993e-13
1.04459e-13
1.05171e-13
1.11409e-13
1.04009e-13
9.9682e-14
1.09764e-13
1.08805e-13
1.08866e-13
1.14449e-13
9.09643e-14
2.8216e-12
1.16283e-10
3.26455e-09
3.35762e-10
3.26737e-11
0.000922905
0.0328062
1.68135e-06
0.150668
5.03399e-06
0.152861
3.03058
1.89351
0.465298
0.358522
0.0144559
0.000856116
1.26366e-06
4.04066e-10
1.12196e-12
1.34932e-13
1.1844e-13
1.39201e-13
1.27818e-13
1.32222e-13
1.31018e-13
1.40064e-13
1.49079e-13
1.25877e-13
1.15455e-13
1.31872e-13
3.49158e-13
1.0221e-10
4.18143e-08
4.84481e-08
3.46277e-07
3.38625e-07
1.56471e-06
3.19424e-09
2.60831e-11
4.53418e-12
1.18886e-13
9.95704e-14
1.02701e-13
9.7902e-14
9.77055e-14
1.02517e-13
1.02385e-13
1.04804e-13
1.04315e-13
1.04493e-13
1.07579e-13
1.06964e-13
1.07803e-13
1.14016e-13
2.23214e-13
2.31033e-12
4.32324e-14
3.30525e-10
1.10485e-09
0.000446969
1.75401e-06
4.37472e-06
1.99729e-11
1.37933e-10
3.32893e-06
1.33826e-06
0.536692
0.484137
0.0154112
0.00233378
1.9578e-05
9.09978e-09
5.37322e-12
2.19463e-13
1.43301e-13
1.40734e-13
1.31509e-13
1.36053e-13
1.33758e-13
1.4206e-13
1.73216e-13
1.39816e-13
1.29035e-13
1.56377e-13
2.09944e-13
4.1368e-12
3.15187e-09
4.97726e-08
6.77844e-08
1.39898e-07
1.56473e-06
3.19509e-09
2.60517e-11
4.47719e-12
1.17523e-13
1.05854e-13
9.9403e-14
9.94358e-14
1.0537e-13
1.04906e-13
1.08383e-13
1.09811e-13
1.11597e-13
1.05791e-13
1.04143e-13
1.08296e-13
1.07707e-13
1.28332e-13
2.35986e-13
7.01546e-13
4.63014e-13
2.15012e-13
7.14201e-08
2.80508e-06
1.44407e-08
1.06442e-05
2.70967e-07
0.000220841
0.166476
0.182017
0.00939023
0.0183481
0.000504037
4.52493e-07
3.09483e-10
1.42909e-12
1.66053e-13
1.57046e-13
1.38219e-13
1.35552e-13
1.42287e-13
1.34919e-13
1.28451e-13
1.36947e-13
1.31415e-13
1.28511e-13
1.2043e-13
1.39387e-13
1.43422e-13
7.79082e-13
1.46328e-09
4.58076e-08
1.07622e-07
2.40968e-07
1.56476e-06
3.19526e-09
2.61542e-11
4.52022e-12
1.18447e-13
1.06776e-13
9.86991e-14
9.76877e-14
1.09113e-13
1.01604e-13
1.0113e-13
1.03615e-13
1.10558e-13
1.13692e-13
1.1089e-13
1.11062e-13
1.13697e-13
1.12397e-13
1.1179e-13
1.44777e-13
1.09093e-13
3.18898e-13
9.04253e-13
2.82389e-10
4.81584e-11
1.4365e-11
1.30356e-13
3.70115e-12
1.34212e-09
1.26378e-06
4.58104e-05
5.70553e-05
0.000368118
2.70407e-06
2.39709e-09
8.2815e-12
2.35161e-13
1.50487e-13
1.42222e-13
1.41205e-13
1.46343e-13
1.50487e-13
1.43017e-13
1.41532e-13
1.5192e-13
1.73966e-13
1.43614e-13
1.36612e-13
1.76986e-13
2.26723e-13
2.58811e-12
7.38694e-11
6.47504e-11
1.24502e-08
1.56479e-06
3.19632e-09
2.61179e-11
4.50067e-12
1.16029e-13
9.85617e-14
9.93097e-14
1.02187e-13
1.06825e-13
1.02785e-13
1.03175e-13
1.06764e-13
1.13711e-13
1.08232e-13
1.04301e-13
1.11175e-13
1.0622e-13
1.07137e-13
1.13887e-13
1.34444e-13
1.19031e-13
1.12544e-13
2.73712e-11
9.16311e-10
6.74706e-12
2.26062e-07
7.93689e-10
1.33973e-06
1.76618e-05
2.94071e-05
7.35259e-07
2.63337e-06
3.52815e-08
4.92197e-11
6.11948e-13
1.48747e-13
1.23835e-13
1.44917e-13
1.44497e-13
1.54058e-13
1.51928e-13
1.51563e-13
1.6024e-13
1.49543e-13
1.47155e-13
1.84592e-13
1.65955e-13
1.51577e-13
1.51518e-13
1.62297e-13
8.80136e-13
3.08135e-11
4.59882e-10
3.26086e-08
1.56487e-06
3.1974e-09
2.62134e-11
4.50516e-12
1.12926e-13
9.59289e-14
9.71576e-14
9.96543e-14
1.01956e-13
1.01605e-13
1.02884e-13
1.04396e-13
1.15372e-13
1.08921e-13
1.09447e-13
1.24436e-13
1.07387e-13
1.05354e-13
1.10055e-13
1.11707e-13
1.09309e-13
1.11369e-13
1.67984e-13
1.11929e-13
1.67868e-12
1.13991e-12
1.50015e-13
1.58605e-13
8.33435e-13
4.32875e-11
1.43912e-09
1.70361e-09
9.12669e-09
6.63978e-11
6.96381e-13
1.70038e-13
1.3457e-13
1.2075e-13
1.2392e-13
1.25374e-13
1.47566e-13
1.49718e-13
1.4547e-13
1.4569e-13
1.61472e-13
1.71161e-13
2.00481e-13
1.88273e-13
1.87964e-13
1.83817e-13
2.36174e-13
2.82502e-13
2.25613e-13
4.8571e-10
1.5649e-06
3.19808e-09
2.61636e-11
4.528e-12
1.1846e-13
1.05821e-13
1.00579e-13
1.00302e-13
1.08033e-13
1.09076e-13
1.12543e-13
1.09562e-13
1.10383e-13
1.18554e-13
1.0726e-13
1.05257e-13
1.09342e-13
1.0797e-13
1.09106e-13
1.08801e-13
1.06833e-13
1.08669e-13
1.75746e-13
3.69173e-13
1.41951e-13
2.26613e-11
8.51209e-12
9.78987e-11
4.36052e-09
1.57604e-09
3.73889e-11
8.87784e-11
2.49572e-12
1.57742e-13
1.32272e-13
1.53311e-13
1.33836e-13
1.20299e-13
1.33778e-13
1.35179e-13
1.60129e-13
1.61611e-13
1.61654e-13
1.68243e-13
1.74315e-13
2.15559e-13
1.84423e-13
1.77046e-13
2.00143e-13
1.9585e-13
1.8998e-13
1.82634e-13
3.94258e-12
2.03814e-10
1.5649e-06
3.20136e-09
2.76094e-11
4.98952e-12
1.2709e-13
1.09145e-13
1.1536e-13
1.07178e-13
9.81341e-14
1.07552e-13
1.02167e-13
1.02457e-13
1.10214e-13
1.03639e-13
1.03029e-13
1.05869e-13
1.04259e-13
1.08744e-13
1.22468e-13
1.09537e-13
1.09746e-13
1.1266e-13
1.00349e-13
2.2258e-12
0.000122682
1.29458e-14
3.54953e-15
1.05998e-13
2.78442e-13
1.1003e-13
5.26923e-13
3.0328e-13
4.97663e-13
1.55731e-13
1.26633e-13
1.24289e-13
1.26771e-13
1.26829e-13
1.27342e-13
1.33829e-13
1.4076e-13
1.51802e-13
1.52047e-13
1.78222e-13
1.68174e-13
1.63598e-13
1.88476e-13
1.90731e-13
2.36382e-13
2.31133e-13
2.64483e-13
3.21551e-13
3.46909e-13
9.65456e-13
1.56494e-06
3.2024e-09
2.75805e-11
4.96724e-12
1.27099e-13
1.08706e-13
1.14681e-13
1.06622e-13
9.96275e-14
1.10283e-13
1.0906e-13
1.11138e-13
1.1054e-13
1.10666e-13
1.18536e-13
1.09148e-13
1.05532e-13
1.20571e-13
1.18232e-13
1.2958e-13
1.09121e-13
1.10389e-13
8.63156e-14
6.65697e-12
3.49846
1.56815e-13
5.89565e-14
8.7096e-13
1.01055e-12
9.66671e-13
1.87248e-13
2.14045e-13
1.46151e-13
1.39034e-13
1.28185e-13
1.27636e-13
1.29706e-13
1.53221e-13
1.38001e-13
1.22912e-13
1.89379e-13
1.5543e-13
1.42688e-13
1.69135e-13
1.71447e-13
1.8472e-13
1.93039e-13
3.08663e-13
2.52397e-13
2.1199e-13
3.16749e-13
2.63657e-13
2.15542e-13
9.53044e-13
1.56486e-06
3.19781e-09
2.68996e-11
4.84933e-12
1.29046e-13
1.11501e-13
1.19629e-13
1.07509e-13
1.0586e-13
1.26121e-13
1.07297e-13
1.04215e-13
1.18016e-13
1.13615e-13
1.11697e-13
1.16267e-13
1.15599e-13
1.20672e-13
1.19256e-13
1.2123e-13
1.33115e-13
1.2425e-13
0.000279475
6.64454e-15
0.000514356
0.00680683
0.0269347
0.0709239
0.0163888
0.000115608
7.60586e-14
1.20047e-13
1.22444e-13
1.51318e-13
1.29797e-13
1.13951e-13
1.31557e-13
1.30679e-13
1.28543e-13
1.27514e-13
1.40721e-13
1.38439e-13
1.36416e-13
1.42523e-13
1.41789e-13
1.48742e-13
1.60235e-13
1.7762e-13
1.89772e-13
2.26131e-13
2.83601e-13
3.19918e-13
3.32176e-13
4.70295e-13
1.56503e-06
3.20713e-09
2.74043e-11
4.90373e-12
1.21708e-13
1.05265e-13
1.15245e-13
1.0656e-13
1.03735e-13
1.23255e-13
1.04463e-13
1.04177e-13
1.06047e-13
1.06141e-13
1.14105e-13
1.10894e-13
1.1049e-13
1.14064e-13
1.23163e-13
1.14926e-13
1.08587e-13
2.90139e-12
0.000109908
0.00224991
0.262762
23.1316
0.0211243
0.00668231
0.315381
0.00193173
8.87884e-07
8.29602e-14
1.22504e-13
1.4765e-13
1.25535e-13
1.15458e-13
1.20263e-13
1.33051e-13
1.27585e-13
1.2621e-13
1.71552e-13
1.43625e-13
1.37002e-13
1.44322e-13
1.44327e-13
1.53436e-13
1.6805e-13
2.84132e-13
2.46382e-13
2.00926e-13
2.34084e-13
2.20468e-13
2.4219e-13
3.91825e-13
1.56501e-06
3.20741e-09
2.78051e-11
5.05784e-12
1.27835e-13
1.09348e-13
1.16324e-13
1.07587e-13
1.04146e-13
1.18113e-13
1.16585e-13
1.20192e-13
1.12861e-13
1.12701e-13
1.23022e-13
1.11854e-13
1.05083e-13
1.18082e-13
1.12941e-13
1.12827e-13
1.18905e-13
1.13519e-13
3.40965e-16
0.00232805
0.0168857
0.0257028
0.0174053
0.00678734
0.000687705
1.15178e-05
1.32323e-08
2.77078e-09
6.20392e-12
1.54201e-13
1.18567e-13
1.40828e-13
1.42014e-13
1.42812e-13
1.63498e-13
1.55549e-13
1.56326e-13
1.90308e-13
1.77656e-13
1.76595e-13
1.84701e-13
1.91386e-13
1.99722e-13
2.04681e-13
2.29635e-13
2.40767e-13
3.11465e-13
3.16018e-13
3.8751e-13
7.45193e-13
1.57387e-06
3.19781e-09
2.70267e-11
4.95592e-12
1.30191e-13
1.02911e-13
1.07562e-13
1.22624e-13
1.04513e-13
1.05257e-13
1.21968e-13
1.04943e-13
1.02592e-13
1.18592e-13
1.12876e-13
1.11369e-13
1.164e-13
1.10402e-13
1.09684e-13
1.29678e-13
9.37455e-12
6.28418e-06
1.89377e-09
0.143674
0.0485031
1.60066
0.254134
0.0799927
0.0179216
0.000311095
1.53645e-06
2.29147e-07
1.91548e-10
4.48775e-13
1.57634e-13
1.23757e-13
1.18816e-13
1.56032e-13
1.35786e-13
1.24765e-13
1.37442e-13
1.36142e-13
1.43216e-13
1.6925e-13
2.00465e-13
1.80441e-13
1.82529e-13
1.99206e-13
2.00816e-13
2.43196e-13
4.9524e-13
4.15935e-13
3.07705e-13
7.9442e-13
1.57262e-06
3.17759e-09
2.63707e-11
4.80238e-12
1.24763e-13
1.07151e-13
1.21201e-13
1.07505e-13
1.05051e-13
1.24472e-13
1.06963e-13
1.04978e-13
1.18788e-13
1.17819e-13
1.21162e-13
1.20222e-13
1.21029e-13
1.2916e-13
1.12647e-13
1.07667e-13
1.31656e-13
3.38545e-06
0.000727562
0.00442561
1.89556
0.317868
0.128009
0.0180722
0.000752293
1.65302e-06
3.65609e-07
3.37026e-10
5.31071e-13
1.39762e-13
1.27962e-13
1.62454e-13
1.39253e-13
1.29237e-13
1.31594e-13
1.31712e-13
1.40532e-13
1.4776e-13
1.531e-13
1.58995e-13
1.74981e-13
1.93588e-13
2.9878e-13
2.56635e-13
2.30801e-13
3.14952e-13
3.31935e-13
3.48579e-13
6.01627e-13
1.56373e-06
3.18332e-09
2.79962e-11
5.07659e-12
1.31423e-13
1.23089e-13
1.07201e-13
9.97196e-14
1.06721e-13
1.06742e-13
1.09805e-13
1.14388e-13
1.05648e-13
1.04711e-13
1.13101e-13
1.12381e-13
1.12329e-13
1.16274e-13
1.0881e-13
1.08638e-13
1.49138e-13
2.1348e-06
0.000345743
0.00234765
0.0355787
0.498186
0.169093
0.116101
0.0542665
0.00519047
0.000133289
6.10259e-08
3.05805e-11
3.28264e-13
1.22451e-13
1.30262e-13
1.86013e-13
1.66174e-12
4.17791e-13
5.3935e-13
2.03714e-13
2.00948e-13
1.69047e-13
1.483e-13
1.86914e-13
1.64753e-13
1.58469e-13
1.88993e-13
1.93087e-13
1.92516e-13
2.02091e-13
2.48909e-13
6.01236e-13
1.56493e-06
3.19199e-09
2.74832e-11
5.03236e-12
1.30832e-13
1.01556e-13
1.05879e-13
1.17253e-13
1.09919e-13
1.0938e-13
1.21547e-13
1.06618e-13
1.04917e-13
1.23629e-13
1.16002e-13
1.1432e-13
1.19852e-13
1.20647e-13
1.25867e-13
1.17784e-13
1.18394e-13
1.65191e-13
1.86764e-06
0.000175207
0.000937346
0.133454
0.189461
0.0488691
0.0125502
3.42692e-05
6.29002e-06
8.32006e-09
4.99498e-12
1.51328e-13
1.289e-13
1.27057e-13
1.16855e-13
2.20833e-13
3.31668e-13
2.06553e-13
2.71977e-13
2.00275e-13
1.70506e-13
1.634e-13
1.73697e-13
2.38531e-13
3.10165e-13
2.402e-13
1.90826e-13
2.53055e-13
2.59248e-13
2.59428e-13
2.77372e-13
5.62369e-13
1.56497e-06
3.19272e-09
2.74582e-11
5.02453e-12
1.30135e-13
1.01855e-13
1.05485e-13
1.16768e-13
1.09261e-13
1.08824e-13
1.20751e-13
1.08153e-13
1.02518e-13
1.14842e-13
1.1094e-13
1.08917e-13
1.09827e-13
1.19799e-13
1.1215e-13
1.0579e-13
1.26925e-13
2.28515e-14
0.000144764
0.0167002
26.2915
1.47596
1.4464
0.261977
0.135889
0.00606838
0.00149578
1.14561e-06
5.01661e-10
6.12021e-13
1.28572e-13
1.16793e-13
1.28772e-12
1.5743e-10
1.76161e-08
2.65246e-09
1.06023e-09
3.09505e-11
9.9724e-13
2.37814e-13
1.64256e-13
1.56919e-13
2.74742e-13
4.5419e-13
4.46935e-13
2.75544e-13
2.36382e-13
2.21318e-13
2.73464e-13
5.73823e-13
1.56514e-06
3.21105e-09
2.80657e-11
5.19266e-12
1.32245e-13
1.12263e-13
1.14634e-13
1.22125e-13
1.07542e-13
1.04809e-13
1.23473e-13
1.08156e-13
1.03659e-13
1.06395e-13
1.12816e-13
1.09242e-13
1.0934e-13
1.32621e-13
1.10368e-13
1.10028e-13
1.25306e-13
1.93819e-13
4.03102e-05
0.000128372
0.00147544
0.0762779
0.0102799
0.000184873
1.5401e-08
2.1085e-10
1.50108e-10
4.68336e-13
1.18994e-13
1.25635e-13
1.22643e-13
2.06677e-13
4.44414e-12
6.00221e-10
3.69944e-10
2.26597e-11
2.27726e-10
5.92296e-12
5.48381e-13
2.14835e-13
1.82175e-13
5.46718e-12
1.60787e-12
1.10181e-12
5.99245e-13
2.61493e-13
2.33444e-13
2.18799e-13
2.7164e-13
5.88091e-13
1.56517e-06
3.21173e-09
2.80283e-11
5.18053e-12
1.31562e-13
1.117e-13
1.14059e-13
1.21491e-13
1.06942e-13
1.05617e-13
1.22784e-13
1.09071e-13
1.03038e-13
1.04688e-13
1.04894e-13
1.10429e-13
1.11155e-13
1.23418e-13
1.11185e-13
1.07795e-13
1.09958e-13
1.10723e-12
0.00310668
0.00659
0.0269083
1.04531
0.0993515
0.000995128
8.50028e-08
5.09118e-09
1.54954e-08
1.86631e-11
1.98432e-13
1.25954e-13
1.18262e-13
1.65006e-13
1.08069e-07
1.55491e-05
0.000806837
6.19511e-05
4.77599e-06
7.93251e-08
3.53802e-10
3.34851e-12
2.49806e-13
1.53803e-13
1.1299e-11
5.91415e-10
1.25085e-10
6.85161e-12
1.05655e-12
4.20651e-13
3.03384e-13
6.41574e-13
1.56509e-06
3.20904e-09
2.78094e-11
5.12458e-12
1.29082e-13
1.0968e-13
1.1087e-13
1.13226e-13
1.1617e-13
1.14279e-13
1.14806e-13
1.22261e-13
1.09027e-13
1.02082e-13
1.10748e-13
1.1108e-13
1.26818e-13
1.11375e-13
1.04973e-13
1.11675e-13
1.13872e-13
1.2833e-13
4.39362e-07
2.0429e-05
0.000754287
0.00117986
0.00126972
2.61442e-07
6.8353e-09
5.92199e-11
3.04713e-13
1.11737e-13
1.09763e-13
1.1469e-13
8.3978e-14
1.51574e-11
5.17863e-08
7.43458e-06
1.01315e-05
3.69057e-07
6.53734e-07
1.57112e-08
2.64904e-10
6.4044e-12
3.76445e-11
4.42322e-09
2.8374e-09
1.31321e-09
1.09637e-10
4.73766e-12
8.21484e-13
3.87649e-13
3.26976e-13
6.14969e-13
1.56513e-06
3.20979e-09
2.77736e-11
5.10652e-12
1.28414e-13
1.09117e-13
1.10273e-13
1.12668e-13
1.13476e-13
1.12735e-13
1.15904e-13
1.22447e-13
1.0659e-13
1.01721e-13
1.07758e-13
1.09287e-13
1.24625e-13
1.11372e-13
1.07305e-13
1.08695e-13
1.09061e-13
1.30439e-13
4.91534e-05
0.00267113
0.00540376
0.0262628
0.0176633
5.59059e-06
8.40913e-08
9.70587e-10
1.36562e-12
1.74162e-13
1.19724e-13
1.13115e-13
1.22864e-13
3.15021e-14
0.00704933
0.796808
12.9413
0.911175
0.00956731
9.54531e-05
8.41331e-07
2.64839e-10
1.12181e-12
5.3381e-11
4.27661e-08
2.30746e-06
8.3698e-08
7.62231e-10
3.84921e-11
2.76024e-12
6.99758e-13
7.2773e-13
1.56514e-06
3.21148e-09
2.78739e-11
5.10838e-12
1.24106e-13
1.02778e-13
1.04479e-13
1.06091e-13
1.05792e-13
1.08681e-13
1.1723e-13
1.07104e-13
1.04837e-13
1.14913e-13
1.153e-13
1.19529e-13
1.11756e-13
1.10061e-13
1.13549e-13
1.19097e-13
1.13952e-13
1.14147e-13
2.27193e-11
3.17568e-09
3.32209e-08
0.000112683
9.83775e-05
1.79272e-06
1.21893e-09
1.12787e-12
1.40068e-13
1.16742e-13
1.20942e-13
1.47794e-13
1.13041e-08
1.61576e-06
0.00227243
0.259608
0.197474
0.00329052
0.00647604
1.34497e-05
1.00714e-07
1.73663e-09
1.0833e-11
2.69457e-06
4.87948e-06
2.58378e-06
1.16592e-07
5.03487e-09
2.11099e-10
9.50413e-12
9.99335e-13
6.58737e-13
1.56518e-06
3.21212e-09
2.78345e-11
5.09273e-12
1.23552e-13
1.02331e-13
1.03885e-13
1.05438e-13
1.05327e-13
1.08301e-13
1.17189e-13
1.06723e-13
1.0428e-13
1.0779e-13
1.05116e-13
1.08201e-13
1.12084e-13
1.24792e-13
1.2608e-13
1.26464e-13
1.10392e-13
1.4196e-13
2.26475e-09
3.22077e-07
5.76994e-08
0.00184497
0.00136756
2.73773e-05
2.16262e-08
1.2693e-11
2.64154e-13
1.20336e-13
1.12345e-13
1.39448e-13
9.12989e-12
1.12647e-08
104.04
75.4439
321.946
317.977
65.4203
0.0535558
0.000231954
5.09525e-13
4.65018e-14
1.32508e-09
1.44704e-05
0.00230674
2.29129e-05
2.57627e-07
2.41604e-09
7.39265e-11
2.39532e-12
9.00063e-13
1.56509e-06
3.2118e-09
2.78919e-11
5.12338e-12
1.24911e-13
1.03027e-13
1.04593e-13
1.07207e-13
1.06264e-13
1.08947e-13
1.16368e-13
1.09972e-13
1.0984e-13
1.24264e-13
1.09821e-13
1.05357e-13
1.06498e-13
1.06948e-13
1.08202e-13
1.12685e-13
1.29585e-13
1.11584e-13
1.08821e-13
4.25588e-13
1.20461e-12
5.55257e-09
4.7996e-09
2.94417e-11
3.75514e-13
1.22733e-13
1.1249e-13
1.16826e-13
1.14711e-13
1.82e-13
0.000305919
0.0439854
12.6623
18.9105
16.3652
0.122702
45.547
0.0138053
5.16953e-05
2.05778e-06
2.53775e-09
0.000186245
7.89268e-05
0.000105327
8.25966e-05
1.24906e-06
3.88661e-08
8.09629e-10
2.16926e-11
2.61015e-12
1.56514e-06
3.21278e-09
2.78618e-11
5.11047e-12
1.24273e-13
1.02711e-13
1.04266e-13
1.06139e-13
1.04844e-13
1.07321e-13
1.1542e-13
1.09569e-13
1.0948e-13
1.23866e-13
1.09844e-13
1.05538e-13
1.19567e-13
1.0889e-13
1.08069e-13
1.11615e-13
1.22262e-13
1.11668e-13
9.27376e-14
1.03275e-11
5.47463e-12
2.57747e-07
1.19017e-07
5.08052e-10
1.14515e-12
1.25081e-13
1.25465e-13
1.21964e-13
2.96096e-13
3.4434e-09
4.93238e-07
0.000306251
2689.61
45804.3
153435
10680.1
82881
3.23835
0.00109212
1.42916e-12
3.22741e-12
1.78982e-06
0.00115184
0.00770006
2.49092e-05
3.82057e-05
5.7136e-07
4.87458e-09
1.35756e-10
8.01179e-12
1.56513e-06
3.21392e-09
2.79811e-11
5.14677e-12
1.2496e-13
1.02956e-13
1.04571e-13
1.07077e-13
1.06115e-13
1.08782e-13
1.16913e-13
1.05087e-13
1.04216e-13
1.09327e-13
1.08849e-13
1.25606e-13
1.09107e-13
1.0207e-13
1.02986e-13
1.0308e-13
1.11905e-13
1.11678e-13
1.269e-13
1.13582e-13
1.1321e-13
3.63927e-13
2.74082e-13
1.20219e-13
1.13193e-13
1.16168e-13
1.11222e-13
1.06754e-13
1.40524e-13
4.46562e-15
162.92
2841.14
6908.46
18451.5
3117.84
4802.09
2032.41
0.000688897
2.75299e-05
0.000900123
2.11651e-11
0.00720921
0.00120176
0.000591619
0.000110916
0.000151057
1.03037e-06
3.43889e-09
6.50088e-11
7.0362e-11
1.56517e-06
3.21469e-09
2.79454e-11
5.12884e-12
1.24039e-13
1.02573e-13
1.04132e-13
1.05985e-13
1.04923e-13
1.07459e-13
1.15144e-13
1.04706e-13
1.03797e-13
1.08431e-13
1.08829e-13
1.24233e-13
1.07961e-13
1.02739e-13
1.11188e-13
1.06764e-13
1.09142e-13
1.09899e-13
1.2602e-13
1.19256e-13
1.14336e-13
3.80939e-12
1.71691e-12
2.1035e-13
1.42126e-13
1.13792e-13
1.09801e-13
1.37068e-13
1.89429e-11
9.45994e-06
0.0013643
2031.55
221.04
802035
1.66929e+06
2.7313e+06
65061.4
0.00123615
1.67391
1.02047e-05
4.07758e-06
0.0247814
0.822735
0.86672
0.000356934
0.000305085
6.07224e-05
2.61025e-07
4.13264e-09
8.05852e-11
1.56506e-06
3.21438e-09
2.80461e-11
5.16564e-12
1.27141e-13
1.04846e-13
1.0703e-13
1.08884e-13
1.09526e-13
1.22033e-13
1.08584e-13
1.01535e-13
1.13755e-13
1.12401e-13
1.12796e-13
1.13202e-13
1.20085e-13
1.06967e-13
1.02617e-13
1.21441e-13
1.13829e-13
1.11125e-13
1.18963e-13
1.19787e-13
1.29989e-13
1.13865e-13
1.09036e-13
1.26053e-13
1.22633e-13
1.14729e-13
1.17048e-13
1.31819e-13
9.25422e-10
0.0201763
3.54626
4653.11
1.59065e+06
989766
1.51933e+06
3.45621e+06
4788.03
0.0401015
0.00506308
0.00237869
3.55078e-11
0.0296705
0.00263694
0.00189307
0.000118734
5.00657e-05
1.20088e-06
2.90209e-09
9.75993e-10
8.11371e-09
1.56511e-06
3.21526e-09
2.80151e-11
5.14772e-12
1.26366e-13
1.04147e-13
1.06056e-13
1.07783e-13
1.08457e-13
1.21127e-13
1.07656e-13
1.01118e-13
1.13339e-13
1.1162e-13
1.12154e-13
1.17834e-13
1.06445e-13
1.04157e-13
1.122e-13
1.12072e-13
1.11229e-13
1.10757e-13
1.14389e-13
1.14331e-13
1.31166e-13
1.14346e-13
1.09562e-13
1.27739e-13
1.13187e-13
1.10606e-13
1.21859e-13
1.20665e-13
1.41619e-12
2.97339
15.2416
95112.1
180079
7.03131e+06
8.63906e+06
1.20872e+07
7.20926e+07
140.863
211.295
5.32751
0.439136
5.04105
9.95569
1.21155
0.0574623
0.000910521
0.000432184
9.70968e-07
3.66889e-08
7.93739e-10
1.56508e-06
3.21624e-09
2.81344e-11
5.1917e-12
1.24365e-13
1.02216e-13
1.04809e-13
1.14068e-13
1.08724e-13
1.06036e-13
1.07949e-13
1.09055e-13
1.20558e-13
1.07833e-13
1.06384e-13
1.12822e-13
1.13713e-13
1.30748e-13
1.08998e-13
1.05115e-13
1.11051e-13
1.10862e-13
1.29982e-13
1.12681e-13
1.10679e-13
1.3495e-13
1.14212e-13
1.11892e-13
1.34496e-13
1.12981e-13
1.06403e-13
4.07716e-14
5.96365e-11
15.1545
86.1151
17037.9
36252
7.85066e+06
8.50629e+06
6.65242e+06
10653.6
158.184
8.93602
0.330436
3.26472e-08
0.058706
0.000134105
0.000873049
4.70688e-05
3.32239e-05
1.39298e-08
4.01309e-07
9.96961e-08
7.35934e-08
1.56512e-06
3.21689e-09
2.80975e-11
5.18047e-12
1.23821e-13
1.04064e-13
1.06826e-13
1.08701e-13
1.08216e-13
1.13608e-13
1.07569e-13
1.0692e-13
1.22529e-13
1.07166e-13
1.05391e-13
1.12039e-13
1.13739e-13
1.30624e-13
1.09521e-13
1.04094e-13
1.12634e-13
1.12157e-13
1.11711e-13
1.16134e-13
1.12442e-13
1.03786e-13
1.10838e-13
1.11256e-13
1.31907e-13
1.13688e-13
1.06771e-13
1.2365e-13
1.09574e-13
391.788
401.661
3.0188e+06
7.30915e+06
1.74436e+07
2.09628e+07
2.59826e+07
400675
1323.6
9604.7
5286.25
772.952
108.316
3.95887
0.0840406
0.240259
0.0359961
3.99485e-06
8.03258e-07
8.17393e-08
5.1478e-08
1.56498e-06
3.21647e-09
2.82392e-11
5.21381e-12
1.24118e-13
1.04571e-13
1.10206e-13
1.05012e-13
1.04411e-13
1.067e-13
1.11712e-13
1.06825e-13
1.05713e-13
1.23363e-13
1.14913e-13
1.11392e-13
1.14295e-13
1.21277e-13
1.14544e-13
1.14186e-13
1.25575e-13
1.20124e-13
1.1859e-13
1.3002e-13
1.12694e-13
1.06872e-13
1.23163e-13
1.08636e-13
1.06296e-13
1.07213e-13
1.07318e-13
1.02511e-13
0.000374008
100.269
2717.24
309126
1.56845e+06
1.46605e+07
2.81002e+07
2.61911e+06
129849
3214.73
268.481
1.23618
1.75657e-06
0.0633091
0.00162166
3.71105e-06
3.28677e-07
4.42455e-11
4.95125e-08
2.01572e-06
2.31899e-06
5.34093e-07
1.56503e-06
3.21727e-09
2.82072e-11
5.19676e-12
1.23529e-13
1.0429e-13
1.0997e-13
1.04017e-13
1.04111e-13
1.06151e-13
1.11489e-13
1.0643e-13
1.05388e-13
1.22876e-13
1.14457e-13