/*--------------------------------*- C++ -*----------------------------------*\
| =========                 |                                                 |
| \\      /  F ield         | OpenFOAM: The Open Source CFD Toolbox           |
|  \\    /   O peration     | Version:  4.1                                   |
|   \\  /    A nd           | Web:      www.OpenFOAM.org                      |
|    \\/     M anipulation  |                                                 |
\*---------------------------------------------------------------------------*/
FoamFile
{
    version     2.0;
    format      ascii;
    class       volScalarField;
    location    "10";
    object      p;
}
// * * * * * * * * * * * * * * * * * * * * * * * * * * * * * * * * * * * * * //

dimensions      [0 2 -2 0 0 0 0];

internalField   nonuniform List<scalar> 
4432
(
113793
113797
113812
113836
113864
113894
113927
113961
113996
114033
114070
114109
114148
114188
114229
114272
114310
114316
114223
113752
112776
112189
108503
104333
103090
105805
107431
107554
107337
106829
106150
105460
104642
103541
102220
100812
99358.8
98114.7
97278.7
96919.9
97156.4
98040.4
99560.3
101715
104666
108782
112545
117297
123367
127705
122901
90167.6
19871.2
-13216.8
113794
113798
113813
113837
113864
113895
113927
113961
113996
114032
114070
114108
114147
114188
114230
114274
114315
114324
114217
113495
111698
111345
110493
108340
106924
107706
107930
107879
107578
106975
106224
105399
104439
103299
102064
100792
99489
98398.6
97692.4
97443.8
97763.9
98718.3
100315
102528
105425
109090
113509
118824
124915
129115
124076
89758.9
19613.6
-12760.4
113786
113791
113807
113830
113857
113887
113919
113952
113987
114022
114059
114097
114136
114177
114220
114264
114310
114336
114282
114026
113212
112402
110850
108895
107955
108057
108121
107965
107634
107163
106633
105983
105202
104230
103016
101766
100643
99797.5
99240.2
98982.4
99126.8
99774.2
100822
102259
104263
107219
110528
113623
117532
121509
119165
88456.5
24009.6
36878.9
113787
113792
113808
113830
113858
113887
113919
113952
113987
114022
114059
114097
114136
114176
114220
114266
114316
114340
114262
113867
112819
112244
111407
109997
109101
108653
108335
108061
107664
107123
106491
105747
104848
103769
102584
101382
100337
99593.1
99147.5
99002
99272
100085
101419
103183
105457
108294
111554
115155
119348
123503
120990
88707.6
22651
35903.3
113778
113783
113798
113821
113848
113877
113908
113940
113973
114007
114043
114079
114116
114156
114198
114246
114297
114331
114289
114047
113338
112725
111888
110892
109936
109325
108888
108503
108065
107601
107138
106599
105927
105029
104039
103162
102484
101994
101661
101524
101621
101981
102571
103274
103756
104063
104777
106063
108007
109472
104671
79668.4
39164.8
60231.7
113779
113784
113800
113822
113848
113877
113908
113940
113973
114007
114042
114078
114116
114156
114199
114248
114305
114337
114280
113978
113312
112678
111922
110970
110067
109384
108858
108381
107866
107321
106735
106037
105220
104287
103320
102445
101809
101376
101110
101039
101281
101855
102636
103370
104151
105023
105907
107264
109118
110495
105648
79484.7
38105
58928
113767
113772
113787
113809
113835
113863
113892
113922
113954
113986
114019
114054
114089
114126
114166
114208
114252
114264
114170
113913
113467
112864
112166
111351
110459
109707
109079
108368
107703
107104
106533
105939
105255
104449
103658
103113
102709
102406
102150
101974
101823
101795
101845
101830
101764
101302
100736
100649
101307
102245
98847.1
80078.9
47495.3
46755.1
113768
113773
113788
113809
113835
113863
113892
113922
113954
113986
114019
114053
114088
114126
114166
114211
114260
114270
114165
113892
113433
112836
112154
111354
110484
109694
108999
108269
107564
106931
106294
105628
104850
104074
103360
102814
102402
102105
101946
101846
101812
101919
102156
102120
101960
101617
101035
100836
101195
101951
98716.6
79113.1
46218.3
45032.3
113752
113757
113771
113792
113817
113843
113871
113899
113928
113958
113988
114020
114051
114083
114116
114149
114175
114162
114032
113738
113315
112778
112125
111371
110615
109914
109099
108157
107288
106546
105836
105103
104504
104015
103431
103028
102752
102536
102368
102140
101854
101431
100955
100462
100350
100282
99465.1
98950.1
98709.6
98603.6
96803.5
84886.6
62991.8
73124.4
113753
113758
113772
113793
113817
113844
113871
113899
113928
113958
113988
114019
114051
114083
114116
114151
114181
114167
114029
113738
113311
112766
112121
111401
110620
109808
109015
108110
107247
106509
105799
105138
104550
103926
103355
102953
102670
102446
102300
102171
101757
101285
101219
100928
100408
99824.7
99112.4
98579.3
98355.4
98382.8
96547.9
84398.2
62169.5
72773.6
113734
113738
113752
113772
113795
113820
113845
113870
113896
113923
113949
113976
114002
114027
114050
114068
114073
114038
113897
113605
113188
112677
112087
111410
110737
110004
109003
108074
107165
106368
105624
104937
104363
103878
103308
102914
102703
102575
102442
102262
101996
101548
101014
100217
99350
99510.7
99389.4
98703.7
97855.4
96806.4
94966.7
85309
69361.6
77436.3
113735
113739
113753
113773
113795
113820
113845
113870
113896
113922
113949
113975
114001
114026
114050
114069
114077
114043
113895
113600
113184
112671
112069
111395
110666
109797
108942
108039
107147
106374
105673
104981
104469
103862
103289
102890
102671
102542
102462
102429
102050
101289
100816
100417
99889.4
99341.2
98749.2
98147
97473.8
96865
94866.9
84765.9
68927.6
78418.6
113712
113716
113729
113748
113769
113791
113814
113836
113858
113880
113902
113923
113942
113957
113967
113968
113950
113894
113749
113475
113079
112591
112025
111418
110737
109807
108926
108047
107149
106354
105668
105025
104472
103872
103255
102827
102649
102594
102584
102609
102538
102225
101627
100565
99260.2
98906.2
98598.2
98045.8
97249.6
96288.2
94179.2
86794
74162.5
76966.1
113713
113717
113730
113748
113769
113791
113814
113836
113858
113880
113902
113922
113941
113957
113967
113968
113953
113899
113752
113473
113077
112584
112006
111363
110651
109807
108913
108019
107134
106358
105673
105031
104432
103833
103254
102838
102634
102585
102614
102660
102543
102101
101457
100516
99601.2
98974.9
98295.9
97718.2
97048.9
96267.7
94204.8
86206.4
73413.1
77413.9
113688
113691
113703
113720
113740
113759
113778
113797
113815
113832
113848
113862
113872
113877
113873
113855
113816
113737
113589
113333
112965
112499
111950
111341
110632
109801
108925
108063
107196
106405
105717
105091
104496
103916
103361
102959
102762
102720
102811
102959
102938
102730
102339
101067
99412.4
98650.2
98043.6
97586.2
97030.7
96041.7
93651.1
87783.2
78555.3
85644.4
113688
113692
113704
113721
113740
113759
113778
113797
113814
113831
113847
113861
113871
113876
113871
113854
113816
113741
113593
113336
112965
112495
111936
111306
110599
109788
108918
108046
107182
106401
105718
105090
104484
103889
103333
102928
102729
102715
102845
102955
102872
102566
101935
100790
99641.2
98972.7
98120.8
97482
96956
95982.7
93546.3
87286
77690.8
84367.1
113660
113663
113674
113690
113706
113723
113739
113753
113766
113778
113787
113793
113795
113787
113768
113733
113673
113577
113422
113180
112839
112400
111873
111269
110577
109794
108958
108124
107296
106523
105839
105222
104637
104065
103532
103137
102938
102918
103059
103200
103211
103006
102650
101584
99990.5
98808.7
98022
97554.6
97043.6
96014.8
93352.9
87884.3
80117.3
86106.3
113661
113664
113675
113690
113707
113723
113739
113753
113766
113777
113787
113793
113793
113786
113767
113732
113673
113579
113425
113184
112841
112399
111864
111248
110556
109780
108950
108113
107285
106517
105838
105223
104635
104062
103527
103126
102918
102887
102986
103120
103166
102982
102404
101303
100044
99131.4
98293.4
97668.4
97160.5
95957.8
93139.9
87460.3
79775.1
87068.4
113630
113633
113643
113656
113670
113684
113696
113706
113713
113719
113721
113720
113711
113692
113659
113607
113529
113417
113255
113024
112707
112300
111801
111217
110549
109803
109013
108222
107442
106703
106034
105433
104872
104334
103830
103426
103186
103110
103172
103300
103383
103234
102826
101919
100604
99295.8
98125.5
97308.6
96638.4
95468
92867.4
88093
80825.9
81603.5
113630
113634
113643
113657
113671
113684
113695
113705
113713
113718
113721
113719
113710
113690
113657
113605
113529
113418
113257
113027
112710
112300
111796
111204
110533
109790
109004
108213
107433
106695
106031
105432
104873
104337
103832
103426
103181
103093
103121
103210
103272
103145
102663
101735
100589
99465
98394.3
97645.9
97025.8
95683.4
92853
87854.2
80420.4
81031.7
113597
113600
113609
113620
113632
113642
113650
113655
113657
113656
113652
113641
113623
113593
113547
113480
113388
113263
113095
112872
112578
112204
111740
111186
110542
109827
109082
108342
107620
106928
106289
105709
105177
104676
104209
103809
103524
103368
103321
103339
103351
103225
102837
102041
100916
99647.6
98279.1
97023.8
95887.4
94332.1
91578.1
87126.6
81034.9
72401.9
113598
113601
113609
113621
113632
113642
113649
113654
113657
113656
113651
113641
113622
113591
113545
113478
113386
113262
113096
112873
112580
112204
111738
111179
110532
109817
109072
108333
107611
106920
106283
105706
105176
104678
104211
103811
103526
103364
103300
103288
103263
103106
102673
101864
100792
99628.2
98423.9
97368.4
96421.4
94821.5
91735.1
87098.2
80833.5
72381.8
113563
113565
113573
113582
113591
113598
113601
113602
113598
113591
113579
113561
113533
113493
113435
113356
113251
113116
112946
112730
112460
112121
111702
111182
110554
109849
109147
108472
107816
107182
106585
106035
105530
105063
104629
104242
103930
103704
103552
103442
103322
103104
102681
101942
100899
99654.4
98220.7
96675.6
95075.5
93104.8
90328.6
86432.5
81779.8
73451.8
113564
113566
113573
113583
113591
113598
113601
113601
113598
113591
113579
113560
113532
113491
113433
113354
113249
113115
112946
112731
112461
112121
111701
111178
110549
109843
109140
108465
107809
107175
106578
106030
105527
105062
104629
104243
103931
103703
103545
103421
103277
103028
102571
101814
100777
99552.4
98196.4
96791
95420.6
93642.7
90894.6
87090.2
82100.7
75986.6
113527
113529
113536
113543
113549
113552
113551
113547
113538
113525
113506
113479
113443
113392
113324
113235
113120
112979
112808
112603
112358
112065
111704
111216
110570
109839
109202
108612
108032
107460
106911
106398
105923
105482
105075
104702
104375
104098
103862
103641
103395
103061
102560
101812
100786
99507.6
97996.3
96280
94389.5
92171.7
89431
85800.6
82100.6
73519.9
113528
113530
113536
113543
113549
113552
113551
113546
113538
113524
113505
113478
113441
113391
113322
113232
113118
112978
112807
112603
112358
112065
111703
111214
110568
109837
109197
108606
108025
107453
106905
106392
105917
105479
105072
104701
104374
104098
103860
103635
103378
103028
102508
101746
100713
99435.9
97947.5
96286.7
94515
92475.9
89882.6
86349
82576.9
73843.4
113491
113492
113497
113503
113506
113505
113501
113491
113477
113457
113432
113398
113353
113294
113217
113118
112996
112850
112680
112486
112274
112041
111804
111459
110741
109671
109216
108754
108260
107751
107252
106779
106335
105922
105536
105176
104843
104534
104239
103936
103590
103153
102566
101767
100709
99378.9
97776.9
95914.9
93810.6
91387.3
88549.1
84886.7
81008.1
72693.1
113491
113493
113498
113503
113506
113505
113500
113491
113477
113457
113431
113397
113352
113292
113215
113116
112994
112849
112679
112487
112275
112042
111806
111453
110735
109669
109212
108750
108255
107746
107247
106774
106330
105917
105532
105173
104840
104532
104237
103933
103583
103140
102545
101736
100671
99336.5
97738.6
95894.9
93835.3
91496
88761.3
85181.4
81467.4
72948.3
113453
113454
113459
113462
113462
113458
113450
113436
113416
113390
113358
113317
113265
113198
113113
113007
112879
112729
112559
112377
112191
112032
111942
111827
110726
109537
109289
108953
108531
108069
107615
107179
106767
106379
106013
105666
105332
105005
104673
104315
103897
103380
102712
101839
100713
99302.7
97593.5
95584.7
93283.3
90642.8
87595
83803
79465.3
71915
113454
113455
113459
113462
113462
113458
113449
113435
113415
113390
113357
113316
113264
113197
113111
113005
112877
112727
112559
112377
112193
112034
111942
111834
110704
109547
109281
108946
108527
108066
107610
107174
106762
106374
106008
105661
105328
105002
104670
104311
103893
103374
102703
101826
100696
99282
97572.6
95570
93284.2
90673.1
87668.4
83916.8
79699.7
72036.4
113416
113417
113420
113421
113419
113412
113399
113380
113356
113325
113286
113239
113180
113106
113014
112901
112768
112613
112443
112261
112076
111913
111872
112058
109490
109378
109124
108771
108370
107964
107571
107196
106839
106497
106166
105839
105508
105160
104773
104314
103745
103016
102072
100862
99348.3
97510.6
95340.7
92835.1
89957.8
86650.2
82683.5
78014.8
71237.9
113416
113417
113420
113421
113419
113411
113398
113380
113355
113324
113286
113238
113179
113104
113012
112899
112766
112612
112442
112262
112077
111914
111873
112059
109515
109370
109123
108772
108371
107965
107570
107194
106837
106494
106163
105836
105505
105157
104769
104311
103740
103010
102063
100852
99337
97500.2
95334.8
92837.2
89970.6
86676.1
82716.4
78079.1
71266.7
113379
113379
113381
113381
113376
113365
113349
113326
113297
113261
113216
113163
113098
113018
112920
112801
112662
112504
112328
112137
111927
111677
111312
110814
109871
109630
109463
109219
108913
108576
108233
107897
107571
107256
106949
106645
106339
106023
105680
105289
104817
104227
103464
102469
101183
99565.3
97594.4
95263.5
92560.8
89447.6
85871.9
81694.3
76782.3
70592.1
113379
113380
113381
113381
113375
113365
113348
113326
113296
113260
113216
113162
113097
113016
112918
112799
112660
112502
112327
112137
111927
111676
111308
110800
109886
109632
109464
109222
108916
108579
108236
107899
107572
107257
106948
106644
106338
106021
105678
105286
104815
104223
103459
102464
101178
99560.6
97592.9
95267.6
92572
89465.7
85894.3
81714
76802.9
70605.7
113343
113343
113344
113341
113334
113321
113301
113274
113240
113199
113150
113091
113020
112935
112831
112708
112564
112401
112218
112016
111785
111501
111135
110650
110152
109770
109514
109254
108986
108709
108429
108152
107880
107613
107348
107083
106812
106525
106205
105831
105372
104787
104017
102993
101648
99936.3
97843.6
95370.4
92502.8
89196.8
85398
81027.4
75950
70108.8
113343
113343
113344
113341
113334
113320
113300
113273
113239
113198
113149
113090
113019
112933
112829
112705
112562
112399
112218
112016
111785
111500
111133
110649
110150
109770
109513
109255
108988
108711
108431
108154
107882
107615
107349
107084
106812
106524
106205
105830
105370
104782
104010
102984
101639
99930.5
97842.8
95376.5
92516.7
89217.2
85422.5
81048.9
75970.2
70123.2
113307
113307
113307
113303
113293
113277
113254
113224
113186
113140
113086
113023
112947
112856
112748
112620
112473
112306
112119
111910
111673
111396
111069
110684
110286
109932
109640
109376
109125
108878
108638
108405
108177
107952
107730
107508
107276
107025
106738
106393
105959
105394
104628
103578
102170
100366
98165.6
95576.8
92583.9
89131.1
85168.2
80656
75614.7
69948.9
113307
113307
113307
113303
113293
113277
113253
113223
113185
113139
113085
113022
112945
112854
112746
112618
112471
112304
112118
111910
111672
111395
111068
110684
110286
109931
109639
109376
109125
108879
108639
108406
108178
107953
107731
107508
107276
107025
106738
106391
105954
105382
104611
103558
102152
100355
98161
95580.5
92595.7
89149.6
85189.6
80676.2
75633.4
69964
113274
113273
113272
113267
113255
113236
113210
113176
113134
113085
113027
112959
112879
112784
112672
112541
112390
112221
112032
111823
111589
111326
111031
110708
110375
110063
109787
109539
109306
109086
108877
108679
108489
108306
108127
107950
107764
107554
107300
106980
106572
106032
105277
104198
102718
100812
98500.6
95805
92699.1
89096.1
84952.9
80266.7
75390.7
69858.4
113274
113273
113272
113266
113254
113235
113209
113175
113134
113084
113026
112958
112877
112782
112670
112539
112389
112220
112031
111822
111588
111325
111030
110709
110376
110065
109789
109539
109307
109087
108879
108681
108491
108307
108128
107952
107766
107557
107303
106979
106561
106006
105238
104156
102682
100785
98481.9
95794.3
92698.1
89105.2
84973.2
80293.2
75417.2
69898.4
113242
113241
113239
113232
113218
113197
113168
113131
113086
113033
112971
112899
112816
112717
112602
112469
112317
112147
111959
111752
111525
111277
111009
110727
110442
110171
109921
109694
109486
109293
109116
108952
108800
108658
108527
108398
108258
108085
107852
107545
107157
106645
105905
104808
103269
101273
98857.6
96053.8
92804
88962.6
84465.4
79316.4
74429.6
69299.7
113242
113241
113239
113232
113218
113197
113168
113131
113086
113033
112971
112898
112814
112716
112600
112467
112315
112146
111958
111751
111524
111277
111010
110727
110444
110172
109923
109695
109487
109294
109117
108953
108801
108659
108528
108400
108263
108093
107857
107538
107126
106586
105826
104726
103198
101216
98813
96021.6
92789.3
88976.2
84517.4
79407.5
74493
69350.4
113212
113211
113208
113200
113184
113161
113130
113090
113042
112986
112921
112846
112758
112657
112540
112405
112253
112084
111898
111695
111476
111243
110997
110746
110496
110256
110033
109830
109645
109478
109330
109198
109082
108983
108899
108819
108726
108583
108353
108043
107668
107189
106476
105395
103857
101837
99376.9
96506
93110.9
88905.7
83708.4
77445
71864.4
68040.7
113212
113211
113208
113199
113184
113160
113129
113089
113041
112985
112920
112845
112757
112656
112538
112404
112252
112083
111897
111694
111476
111242
110998
110747
110497
110258
110035
109831
109646
109479
109331
109200
109084
108985
108902
108825
108738
108598
108364
108023
107602
107079
106340
105260
103734
101729
99286.7
96436.7
93073
88930.1
83865.2
77743.2
72046.1
67933
113185
113183
113180
113170
113153
113128
113094
113052
113002
112943
112875
112797
112707
112604
112485
112350
112198
112031
111847
111649
111439
111219
110993
110765
110541
110328
110128
109947
109784
109641
109518
109415
109333
109275
109237
109209
109164
109047
108798
108466
108099
107657
106977
105973
104527
102575
100135
97314.2
94008.6
89647
83901.8
76383.4
68380.1
65889.2
113184
113183
113180
113170
113153
113127
113094
113052
113001
112942
112874
112796
112706
112602
112483
112348
112197
112029
111846
111649
111439
111219
110993
110765
110543
110329
110130
109948
109785
109642
109520
109417
109335
109277
109242
109220
109185
109065
108797
108427
107984
107483
106785
105787
104346
102397
99986.2
97200.5
93914.8
89593.8
84101.5
77029.8
69077.6
65646.9
113160
113159
113154
113144
113125
113098
113063
113019
112966
112905
112834
112754
112662
112557
112437
112302
112152
111986
111806
111614
111411
111203
110992
110783
110580
110387
110208
110045
109901
109778
109678
109599
109546
109524
109530
109553
109558
109490
109197
108814
108447
108005
107337
106442
105143
103336
101003
98361.1
95565.2
92093.6
86762.4
78226.1
65900.5
64765.5
113160
113158
113154
113143
113125
113098
113062
113018
112965
112904
112833
112753
112661
112556
112436
112301
112150
111985
111805
111613
111411
111203
110993
110784
110581
110389
110210
110047
109903
109780
109680
109601
109549
109528
109539
109572
109598
109572
109202
108764
108299
107812
107154
106275
104952
103099
100789
98171.1
95335.2
91722.1
86755.5
78649.5
65489.7
61420.6
113138
113136
113132
113120
113100
113072
113035
112989
112934
112871
112799
112717
112623
112517
112397
112262
112113
111950
111773
111586
111391
111192
110995
110801
110614
110438
110275
110128
110000
109894
109810
109750
109719
109723
109763
109830
109880
109885
109579
109107
108682
108123
107384
106561
105403
103792
101722
99473.4
97276.1
95209.5
91148.4
80385.6
61785.1
60642.4
113138
113136
113131
113120
113100
113071
113034
112988
112934
112870
112798
112716
112622
112516
112395
112261
112112
111949
111772
111585
111391
111193
110996
110802
110616
110439
110276
110129
110001
109895
109811
109752
109722
109728
109781
109871
109983
110505
109865
109112
108584
108008
107305
106502
105295
103538
101411
99154.8
96893.2
94713.7
90744.2
80210
62026.9
61252.7
113120
113118
113112
113100
113079
113050
113011
112964
112908
112843
112769
112685
112590
112484
112363
112229
112082
111921
111748
111565
111377
111187
110999
110817
110644
110480
110330
110195
110080
109985
109913
109865
109844
109857
109911
110000
110070
109797
109412
109204
108681
107882
107036
106259
105372
104162
102650
101166
99772.4
98107.5
93483.7
78428.9
59233
73416.1
113119
113118
113112
113099
113079
113049
113010
112963
112907
112842
112768
112684
112589
112482
112362
112228
112080
111920
111747
111565
111377
111187
111000
110819
110645
110482
110331
110197
110081
109987
109915
109866
109846
109858
109943
110101
110362
110872
120720
109049
108657
107923
107066
106285
105357
103907
102198
100725
99329.2
97624
93067.1
78358
58901.4
70832.4
113104
113102
113097
113083
113062
113031
112992
112943
112886
112820
112744
112659
112564
112456
112336
112203
112057
111898
111728
111550
111367
111184
111005
110832
110668
110515
110374
110249
110142
110056
109990
109946
109925
109926
109950
109983
109928
109676
109405
109017
108404
107429
106498
105707
105118
104674
104404
104295
103946
102429
96042.4
78069.2
57135.2
73560.1
113104
113102
113096
113083
113061
113031
112991
112943
112885
112819
112744
112659
112563
112455
112335
112202
112056
111897
111727
111549
111367
111184
111006
110833
110670
110516
110376
110250
110144
110057
109991
109948
109925
109923
109951
110043
110014
109672
109240
108878
108322
107489
106544
105755
105245
104612
104025
103864
103465
101856
95571.2
77640.3
56811.8
73765.1
113093
113091
113085
113071
113049
113017
112977
112928
112869
112802
112726
112640
112544
112436
112316
112184
112039
111882
111714
111539
111360
111183
111010
110845
110688
110542
110408
110289
110189
110107
110045
110002
109977
109965
109955
109925
109824
109652
109286
108668
107971
106889
105792
104732
103976
103818
104473
105860
107212
107224
100860
79448.6
46364.6
61816.4
113092
113090
113084
113070
113048
113017
112976
112927
112869
112801
112725
112639
112543
112435
112315
112182
112037
111880
111713
111539
111361
111184
111012
110846
110689
110543
110409
110291
110190
110108
110046
110003
109977
109960
109937
109891
109744
109559
109199
108637
107848
106732
105852
104891
104269
104153
104728
106065
107406
107254
101014
79410.6
46516.3
63401.7
113085
113083
113076
113062
113039
113007
112966
112916
112857
112790
112713
112626
112530
112422
112302
112170
112026
111870
111705
111533
111358
111184
111016
110855
110703
110561
110433
110319
110222
110143
110083
110041
110014
109998
109978
109934
109805
109567
109115
108389
107676
106710
105587
104412
103472
103592
105300
108505
112544
116353
114845
90454.9
30998.4
27183.5
113084
113082
113076
113061
113038
113006
112966
112916
112857
112789
112712
112626
112529
112421
112301
112169
112025
111870
111704
111533
111358
111185
111017
110856
110704
110563
110434
110320
110223
110144
110084
110042
110014
109994
109963
109902
109746
109495
109100
108286
107594
106688
105622
104757
103983
104071
105819
108916
112946
116703
115211
90825.4
30975.6
30600.4
113080
113079
113072
113057
113034
113001
112960
112910
112850
112782
112705
112618
112521
112413
112293
112162
112018
111863
111699
111529
111357
111186
111020
110861
110712
110573
110447
110336
110244
110170
110115
110076
110048
110023
109990
109938
109782
109468
108831
108174
107869
107105
106230
105246
104981
105942
108713
113260
119571
125664
124073
95992.8
34330.4
-1969.07
113080
113078
113071
113056
113033
113001
112959
112909
112850
112782
112704
112618
112520
112412
112292
112161
112017
111863
111699
111529
111357
111187
111022
110863
110714
110575
110449
110338
110245
110172
110116
110077
110048
110020
109975
109902
109723
109396
108872
107726
107624
107112
106218
105561
105113
106086
108765
113240
119482
125260
123061
94717.2
33656.9
-986.178
111202
111833
111178
112207
112209
109708
110708
109726
109240
109240
111177
111860
111132
112214
112118
109728
110676
109728
109257
109323
112071
111124
109800
111111
109796
109245
109258
109521
109495
109544
109518
111982
111110
109791
111101
109825
109250
109376
109558
109517
109607
109561
111185
111458
111184
111587
111271
111588
111272
110313
110741
110310
110717
110130
110720
110144
111185
111461
111182
111590
111268
111591
111265
110313
110738
110308
110717
110140
110714
110131
111938
111943
111941
111966
112022
111965
112026
109167
110305
110732
110291
109273
109494
109536
109497
109454
109449
109447
109448
111946
111950
111958
111968
112031
111975
112043
109164
110297
110701
110283
109176
109497
109538
109484
109457
109446
109474
109451
111891
111876
111895
111686
111572
111685
111570
111093
112081
111771
111767
111159
109058
109011
109509
109478
109514
109563
109566
109562
109564
111893
111880
111898
111683
111566
111685
111567
111051
112056
111763
111124
111745
109406
109222
109504
109525
109524
109567
109558
109588
109568
110292
110808
110288
110783
110434
110779
110432
109676
109874
109681
110070
109865
110072
109864
110286
110805
110294
110776
110432
110779
110432
109687
109889
109682
110072
109867
110068
109860
112016
111520
111196
111533
111990
112024
111195
111524
111534
112021
112271
112167
112232
112181
112259
112230
112222
112274
112175
112225
112180
112279
112241
112239
109158
110715
110295
110285
109168
108826
108868
108971
109296
109236
109277
108984
108817
108809
108977
109291
109207
109267
108961
112007
111524
111176
111522
112017
111980
111152
111461
111501
112048
112271
112180
112218
112279
112184
112226
112235
112275
112175
112206
112195
114253
112202
130674
109113
110689
110277
110269
109215
108816
108833
108981
109301
109243
108964
109295
108768
108800
108933
109339
109300
109304
108980
110598
110671
111100
112082
111772
111770
111132
110616
110629
110345
110220
109753
110194
110414
110363
109766
110210
110368
110196
109121
109258
109302
109280
109129
109047
109119
109127
109236
109296
109282
109048
109049
109463
109512
109474
109067
109084
109517
109502
109140
109478
110563
110612
111016
112042
111720
111729
111011
110511
110550
110324
110207
109785
110355
110192
110282
109782
110204
110182
110329
109255
109278
109304
109087
109341
109349
110301
109393
109357
109440
109407
109485
109183
109515
109569
109158
109539
109325
109587
109581
109564
109561
112025
111764
111834
112007
111771
112019
112023
112030
111772
111843
112020
111774
112033
112030
112029
111838
111771
112019
111774
112022
112033
109377
109844
109696
109432
109831
109418
109373
109374
109708
109865
109438
109843
109413
109387
112041
111854
111778
112130
111776
112057
112078
109395
109861
109717
109445
109842
109382
109431
109369
109705
109852
109450
109833
109425
109368
110942
111377
110778
111117
111370
110758
110970
110946
111370
111113
110760
111370
110958
110756
109244
109364
109419
109495
109358
109434
109225
109252
109371
109495
109452
109350
109241
109428
110919
111367
110756
111101
110951
111352
110741
110890
111342
111097
110744
111340
110731
110900
109277
109370
109450
109510
109249
109369
109460
109377
109504
109505
109512
109424
109460
109463
109839
109614
109208
109164
109617
109801
109217
110131
110505
110464
110199
110151
110467
110449
110140
109830
109165
109664
109347
109619
109216
109873
109813
109616
109186
109186
109632
109780
109222
110114
110428
110117
110419
109814
109181
109631
109221
109810
109633
109218
110102
110405
110407
110090
111748
111513
111394
111092
111514
111746
111400
112067
112271
112309
112066
112077
112299
112315
112075
111764
111116
111562
111425
111540
111417
111757
109106
109051
111729
111473
111084
111360
111507
111709
111385
112060
112287
112286
112074
112047
112263
112279
112035
111756
111111
111547
111419
111769
111529
111410
109406
109275
111542
111820
111767
112002
111815
111551
111746
111249
110937
110904
111256
111205
110885
110863
111222
111557
112011
111802
111771
111819
111763
111581
111554
111825
111775
112022
111553
111826
111767
111211
110864
110864
111212
111215
110883
111223
110865
111552
112024
111821
111774
111826
111778
111550
112378
112233
112438
112273
112241
112442
112377
112448
112408
112451
112418
112438
112432
112450
112437
112397
112288
112224
112441
112246
112472
112366
112215
112227
112372
112234
112282
112443
112242
112379
112447
112422
112419
112428
112426
112381
112288
112238
112448
112247
112456
112383
112427
112430
112437
112431
112237
112239
109806
109608
109194
109171
109794
109616
109216
110111
110430
110116
110428
110114
110450
110119
110429
109804
109173
109625
109206
109807
109627
109208
108874
108832
109074
109152
109009
108926
109128
108980
109090
109102
109203
109246
109140
109195
109353
109223
109293
108998
108905
109126
108893
109094
108927
109013
108896
108846
109081
109141
108944
108976
109122
109066
108970
109156
109285
109157
109230
109056
108950
109144
109027
109127
109001
109049
109163
109263
109178
109212
111535
111807
112011
111738
111817
111519
111745
111201
110863
110853
111208
111544
112016
111821
111769
111822
111548
111767
111188
110835
110838
111180
111449
111782
111687
111961
111481
111758
111659
111113
110788
110778
111107
111097
110803
111140
110758
111429
111979
111534
111719
111652
111691
111414
112367
112278
112234
112436
112241
112439
112372
112418
112422
112423
112429
112377
112284
112241
112447
112246
112385
112449
112416
112408
112418
112421
112226
112231
112382
112246
112439
112296
112258
112380
112596
112445
107115
112624
103553
112429
112394
112417
112439
112298
112334
107367
179143
109305
118189
105197
112241
113289
109766
109579
109124
109096
109744
109574
109115
110032
110391
110358
110107
110062
110384
110063
110355
109747
109087
109620
109236
109566
109108
109788
108889
108837
109102
108953
109163
108985
109144
108952
109093
109185
109287
109177
109271
109073
108944
109146
109053
109080
109135
109004
109208
109353
109229
109279
108806
108796
109112
109152
108973
108903
109148
109106
108956
109179
109272
109313
109215
109235
109391
109254
109338
109056
108875
109156
108923
109125
108944
109076
110576