/*--------------------------------*- C++ -*----------------------------------*\
| =========                 |                                                 |
| \\      /  F ield         | OpenFOAM: The Open Source CFD Toolbox           |
|  \\    /   O peration     | Version:  4.1                                   |
|   \\  /    A nd           | Web:      www.OpenFOAM.org                      |
|    \\/     M anipulation  |                                                 |
\*---------------------------------------------------------------------------*/
FoamFile
{
    version     2.0;
    format      ascii;
    class       volVectorField;
    location    "10";
    object      U;
}
// * * * * * * * * * * * * * * * * * * * * * * * * * * * * * * * * * * * * * //

dimensions      [0 1 -1 0 0 0 0];

internalField   nonuniform List<vector> 
4432
(
(40.0135 -0.00121642 0.066026)
(39.9238 0.0166566 0.355391)
(39.2681 -0.000851122 0.468733)
(38.4744 -0.0105819 0.550683)
(37.5823 -0.0157866 0.631165)
(36.5812 -0.0181914 0.718253)
(35.4557 -0.0187014 0.814741)
(34.197 -0.0173572 0.920336)
(32.8016 -0.013781 1.03458)
(31.2877 -0.00591229 1.1527)
(29.6964 0.00595037 1.26058)
(28.0947 0.0302749 1.33583)
(26.4256 0.0533212 1.35211)
(24.6511 0.115794 1.23066)
(22.4288 0.305316 0.973296)
(19.0819 0.38586 1.24907)
(16.5253 -0.0182249 1.18025)
(12.3749 -3.82816 -1.64797)
(27.3032 -9.80934 -4.53949)
(30.7703 -5.24843 -8.45341)
(68.8931 -21.0435 6.24631)
(73.9797 -3.04906 -5.41684)
(75.7412 3.82435 -10.5721)
(79.4726 -5.40881 -2.58907)
(106.786 -7.74985 -3.80231)
(137.897 3.09946 -1.33219)
(146.048 16.8076 -5.07408)
(145.394 17.8923 -3.91606)
(143.645 15.1798 2.4478)
(128.687 11.9352 4.77559)
(118.509 9.52658 4.2256)
(103.389 9.50354 1.13605)
(77.28 7.873 -9.44749)
(16.3022 -2.51757 6.60711)
(-16.8768 -11.335 23.2903)
(-51.0614 -17.5801 32.3592)
(-78.7423 -22.154 38.678)
(-99.5207 -25.4583 44.5704)
(-113.502 -27.5054 49.8136)
(-121.647 -28.6994 53.9633)
(-124.041 -29.326 57.5789)
(-119.067 -29.5432 57.8119)
(-103.15 -29.4983 57.0247)
(-80.0406 -27.9746 58.6834)
(-62.5427 -25.104 55.5689)
(-20.2438 -21.417 54.5806)
(33.8475 -38.8309 43.7742)
(58.3477 -55.272 23.8247)
(108.431 -47.5332 16.6773)
(144.014 -15.822 14.2936)
(52.8189 -6.05776 -27.4159)
(105.309 0.28503 -95.861)
(251.75 6.44909 -105.626)
(401.847 3.97792 -174.958)
(40.0107 -0.00123087 0.0658104)
(39.9118 0.0167483 0.356037)
(39.2785 -0.00069925 0.467758)
(38.501 -0.0102485 0.548206)
(37.6172 -0.0152718 0.628461)
(36.6227 -0.0174877 0.715956)
(35.5039 -0.0177484 0.812485)
(34.2511 -0.0161015 0.91921)
(32.8617 -0.0122977 1.03466)
(31.3573 -0.00410259 1.15273)
(29.7811 0.0081898 1.26216)
(28.1762 0.0328281 1.33949)
(26.5497 0.0568221 1.35342)
(24.9285 0.12278 1.25848)
(23.0161 0.3261 1.04788)
(21.3166 0.514538 0.944701)
(25.1108 -0.0669777 0.0620446)
(18.3201 -9.31366 -9.4663)
(15.3831 -12.1904 -14.9719)
(14.7841 -5.57734 -9.30932)
(27.8897 -16.2994 -16.8522)
(32.9311 -2.58701 -5.53393)
(30.7071 2.9625 0.738489)
(32.8225 -2.68291 3.27459)
(34.9821 2.04869 8.23111)
(53.0795 18.0643 16.0112)
(50.1277 4.06019 -1.15878)
(48.5397 -6.87155 -0.863188)
(29.9929 -10.2789 5.15437)
(-2.75035 -12.6571 9.10581)
(-21.745 -9.8541 14.5724)
(-45.7704 -5.56359 22.7906)
(-63.9182 -2.2464 29.536)
(-80.5052 -2.90666 35.8044)
(-93.9262 -6.8169 38.331)
(-107.717 -11.4074 39.0298)
(-119.217 -15.6596 39.3928)
(-125.759 -19.2065 39.909)
(-126.38 -21.5971 40.6717)
(-122.841 -23.0146 42.9109)
(-117.174 -23.3508 47.3286)
(-108.52 -23.0939 51.8069)
(-94.669 -22.4301 55.9629)
(-76.1707 -20.0628 61.8448)
(-57.7153 -15.228 67.4032)
(-33.6199 0.658844 65.557)
(4.0608 -26.2694 44.3144)
(13.3946 -38.8085 10.1995)
(-7.1579 -18.0988 -1.67105)
(27.9932 -0.517352 -14.6875)
(41.7877 1.52783 -49.1837)
(36.7745 1.74072 -117.295)
(219.612 8.64516 -116.036)
(389.331 5.45167 -187.086)
(40.0249 -0.00126111 0.0354952)
(40.3031 0.0186684 0.656857)
(40.2272 -0.00174887 0.919461)
(40.0577 -0.0137038 1.11112)
(39.8343 -0.0209571 1.30489)
(39.5552 -0.0258485 1.51551)
(39.2081 -0.0291459 1.74759)
(38.7834 -0.0311199 2.00378)
(38.2642 -0.0324502 2.2827)
(37.6552 -0.0315414 2.58035)
(36.9367 -0.0285221 2.87328)
(36.1012 -0.0158874 3.1407)
(34.9681 -0.0155279 3.32252)
(33.346 0.0355708 3.38535)
(31.2579 0.166404 3.30756)
(25.491 -0.0139893 3.37922)
(29.3026 -0.704248 1.59943)
(34.4901 -2.65875 -4.47202)
(30.4147 -1.11791 -9.58404)
(7.84551 -1.42575 -14.1253)
(-7.44281 -3.23613 -9.92821)
(17.8311 -2.75279 0.53823)
(-13.5374 -0.88231 3.52528)
(2.90684 -3.75436 -0.154623)
(26.4093 -6.92711 -12.5157)
(57.7366 -4.92159 -24.6004)
(45.4228 0.994479 -2.90432)
(39.7494 2.80967 22.603)
(23.8506 2.11337 37.2214)
(9.77788 1.89662 49.4884)
(-17.3185 0.471133 60.3003)
(-50.2073 -1.92163 73.1)
(-80.8646 -5.43302 81.7171)
(-118.798 -9.07095 91.5595)
(-145.357 -12.7502 96.7866)
(-166.076 -16.1083 96.7076)
(-182.233 -19.424 94.5041)
(-192.688 -22.8374 91.3893)
(-196.904 -25.8562 85.8068)
(-195.367 -27.9521 79.8087)
(-188.935 -29.0344 71.8601)
(-174.278 -28.9104 62.809)
(-147.418 -30.2912 49.4897)
(-118.198 -34.3797 33.2881)
(-106.871 -40.2367 20.4396)
(-43.0838 -43.3026 -127.14)
(-72.9713 -41.0924 29.2763)
(-111.24 -43.7271 80.6187)
(-173.282 -47.8911 41.8229)
(-193.437 -51.194 61.7642)
(-39.6382 -14.8631 -60.1919)
(-147.048 1.21703 -107.712)
(-345.572 2.92971 -120.603)
(-108.398 0.172418 -62.2578)
(40.0218 -0.00127974 0.0351185)
(40.2863 0.0187666 0.658248)
(40.2323 -0.00154595 0.920392)
(40.0764 -0.0133057 1.11167)
(39.8583 -0.0203178 1.30535)
(39.5831 -0.0249243 1.51615)
(39.2403 -0.0278838 1.74898)
(38.8161 -0.0295494 2.00572)
(38.3084 -0.0303036 2.28654)
(37.7023 -0.029046 2.58319)
(36.9935 -0.0255331 2.87985)
(36.1631 -0.0121888 3.14573)
(35.0212 -0.0113565 3.329)
(33.6233 0.043869 3.3775)
(31.5033 0.188097 3.14345)
(29.3489 0.12578 2.52663)
(34.2577 -0.831106 -1.29273)
(32.791 -4.81449 -6.53086)
(21.3071 -4.23737 -5.86999)
(10.5337 -2.73135 -9.51407)
(-3.54952 -2.43407 -18.7709)
(1.99815 -2.27396 -3.19818)
(-16.7977 -0.0448278 3.20877)
(2.88009 -9.91678 -13.0093)
(-6.40409 -9.58329 -18.3569)
(-30.1898 -9.30666 -14.9911)
(-45.5084 -1.87238 2.188)
(-58.3392 -1.07447 12.6379)
(-69.955 -1.17143 18.4209)
(-84.071 -0.978252 20.7646)
(-97.7642 0.45317 21.684)
(-106.412 1.42937 21.5207)
(-105.933 2.77193 16.1668)
(-97.726 4.22815 4.13937)
(-85.8271 3.63404 -11.6326)
(-74.1757 2.8634 -28.7647)
(-63.9045 1.6006 -46.6717)
(-54.1899 -0.391769 -62.6312)
(-45.9044 -2.63158 -72.185)
(-37.1978 -4.11167 -75.7596)
(-24.1668 -3.87834 -75.618)
(-9.82911 -1.86711 -77.3393)
(7.4289 -3.05959 -85.2647)
(20.8383 -7.62487 -82.641)
(20.5645 -15.9072 -65.9196)
(18.9129 -17.9858 -43.7542)
(-12.645 -20.9837 -128.047)
(-72.3521 -15.8728 -67.0169)
(-91.195 -6.30431 -24.8373)
(-61.7882 -3.80769 -13.2323)
(-3.80065 -7.38821 -61.9422)
(-152.621 2.30031 -102.472)
(-351.896 3.01728 -115.193)
(-113.425 0.199713 -67.128)
(40.0221 -0.00131004 0.0351048)
(40.1311 0.018823 0.88143)
(39.8222 -0.0001553 1.26256)
(39.4227 -0.0108988 1.53897)
(38.9715 -0.0172593 1.81949)
(38.4702 -0.0213221 2.12331)
(37.9157 -0.0237346 2.45842)
(37.306 -0.0249657 2.82927)
(36.6432 -0.0253794 3.23903)
(35.9386 -0.0237517 3.68693)
(35.2156 -0.017642 4.15914)
(34.4713 -0.00900276 4.64499)
(33.6146 -0.00300965 5.08447)
(32.4615 0.00183033 5.53976)
(30.6512 -0.0370407 5.88505)
(27.5996 -0.181916 5.87472)
(26.0723 -1.19821 5.36824)
(16.7586 -2.90771 5.7303)
(-20.2834 -2.48018 11.0038)
(-40.0826 -1.61899 8.32045)
(-46.7328 -1.06523 5.5741)
(-43.2907 -0.138856 3.38992)
(-49.9384 0.354569 1.05876)
(-39.413 0.0020151 -15.5574)
(-47.4625 -2.69234 -26.1476)
(-71.037 -1.72419 -4.27995)
(-83.9779 0.638723 20.5295)
(-97.2921 1.30852 33.4868)
(-108.177 1.3791 43.8338)
(-120.996 1.52229 52.8596)
(-135.727 1.88921 60.2113)
(-146.362 1.60535 61.8746)
(-152.973 0.463254 60.1812)
(-160.173 -1.00196 59.6341)
(-166.982 -1.31015 61.4464)
(-170.506 -2.2899 55.6119)
(-172.283 -4.64907 51.4735)
(-170.577 -7.76855 47.8909)
(-165.804 -9.67743 45.2314)
(-157.709 -8.63283 40.2284)
(-146.226 -4.97221 28.9554)
(-124.29 2.85433 -6.46595)
(-82.5106 -1.50147 -36.9458)
(-61.8055 -12.3543 -10.2377)
(-56.0801 -26.2167 20.0269)
(-41.4033 -38.1355 39.3061)
(-59.7699 -28.5053 122.487)
(-40.9344 -26.2943 177.184)
(-32.9145 -25.3836 192.353)
(-11.5242 -29.9621 138.918)
(20.5848 -18.5061 43.0152)
(169.686 -7.75311 123.586)
(-381.782 12.3316 19.0663)
(-320.709 3.80658 -28.5911)
(40.0189 -0.00132903 0.0346794)
(40.1157 0.018917 0.885796)
(39.8316 2.49749e-05 1.26787)
(39.4469 -0.0105433 1.54376)
(39.0021 -0.0166824 1.82382)
(38.5055 -0.0204795 2.12742)
(37.9545 -0.0225994 2.46223)
(37.3479 -0.0234767 2.83266)
(36.6895 -0.0234663 3.24201)
(35.9923 -0.0213966 3.68868)
(35.2746 -0.014876 4.16132)
(34.5338 -0.00559319 4.64063)
(33.6676 0.00109852 5.09236)
(32.5136 0.00826735 5.47407)
(30.6425 -0.0248162 5.66064)
(27.0517 -0.164043 5.51447)
(26.2663 -1.297 4.20421)
(0.405092 -2.89876 4.74247)
(-30.5174 -1.53875 7.91542)
(-44.8985 -0.509838 5.84443)
(-53.8574 -0.157284 1.20996)
(-51.3907 1.6453 -2.06939)
(-45.4526 1.76194 -10.3889)
(-46.9419 -0.350677 -31.086)
(-68.7108 -1.3225 -16.3173)
(-86.326 1.16076 -1.94635)
(-96.3985 3.46 8.17564)
(-102.011 5.12566 17.1828)
(-104.849 6.49968 25.4764)
(-105.091 8.13268 29.9754)
(-102.065 10.3231 29.5088)
(-93.5242 12.2139 21.0705)
(-78.5368 13.8417 5.16368)
(-66.8485 20.773 -1.33117)
(-49.5618 22.8367 -17.9564)
(-44.6922 26.6947 -29.7531)
(-46.9655 27.8655 -33.2119)
(-48.4807 25.9084 -37.756)
(-48.0633 26.6966 -46.4541)
(-48.1033 34.4207 -64.2048)
(-8.73899 31.0677 -77.7791)
(34.2705 19.3477 -80.9686)
(65.4308 12.2773 -100.808)
(67.8252 11.4851 -105.351)
(48.6052 7.23094 -117.49)
(40.2301 -9.35357 -82.4458)
(1.97557 9.80741 -51.1651)
(-42.3442 15.3431 -68.0294)
(-60.3578 15.8791 -85.0797)
(-62.6619 12.0893 -102.649)
(-2.2427 -0.593659 -39.3144)
(43.0547 -2.45801 99.5764)
(-464.868 12.7719 16.4024)
(-339.072 3.74879 -25.9529)
(40.0193 -0.00140544 0.049347)
(40.1468 0.0215041 1.21804)
(39.8408 0.00207798 1.74089)
(39.4391 -0.00933785 2.11467)
(38.9756 -0.0160196 2.48896)
(38.4448 -0.0203146 2.89009)
(37.8365 -0.0229839 3.3273)
(37.142 -0.0246284 3.80623)
(36.3536 -0.0256142 4.33111)
(35.4702 -0.0250523 4.90443)
(34.5072 -0.020035 5.52286)
(33.4538 -0.0144272 6.17947)
(32.2805 -0.00128551 6.88482)
(30.7358 -0.0323878 7.69921)
(28.7638 -0.0668688 8.7295)
(25.8555 -0.30523 10.3786)
(25.3153 -1.19993 13.5442)
(23.8456 -2.41956 18.9742)
(12.1134 -1.52643 31.094)
(-1.85557 0.258654 22.8146)
(-31.6875 0.190087 6.92828)
(-35.7251 0.939884 3.7928)
(-49.0003 0.832113 1.51457)
(-50.2883 -0.132172 -10.737)
(-76.923 0.175536 9.11966)
(-88.7917 0.861149 11.1404)
(-98.7652 2.39867 16.2459)
(-99.7633 2.29955 27.6698)
(-99.8609 2.85281 36.4519)
(-103.174 3.73097 47.7707)
(-98.9215 4.33896 50.9412)
(-92.7993 5.19863 52.6045)
(-78.2149 6.63168 44.9641)
(-62.0434 4.86112 33.0851)
(-39.0651 1.25441 22.9653)
(-19.4981 2.79761 12.0531)
(-10.3911 6.57083 7.73258)
(-9.87699 12.513 12.2758)
(0.365919 11.8982 -2.30378)
(31.6483 9.58171 -40.5697)
(28.2115 11.9859 -65.9043)
(27.9869 8.64722 -85.8576)
(38.1575 4.6296 -81.151)
(37.7678 3.01331 -64.1258)
(-15.4839 -2.75606 -32.811)
(-48.0093 -14.2465 51.2834)
(-87.71 -12.4078 57.5191)
(-131.87 -7.90572 83.4516)
(-126.97 -1.51346 45.9562)
(-35.1516 -0.418282 -8.90997)
(3.47925 6.30991 -73.4114)
(41.0237 5.77908 -13.2955)
(242.409 6.24069 54.7466)
(297.301 4.74081 62.1337)
(40.0164 -0.00142411 0.048921)
(40.1308 0.0215768 1.22156)
(39.8471 0.00223474 1.74631)
(39.461 -0.00902046 2.11988)
(39.0046 -0.0154962 2.49379)
(38.4788 -0.0195489 2.89463)
(37.8746 -0.0219347 3.33165)
(37.1834 -0.023243 3.81035)
(36.3992 -0.0238291 4.33495)
(35.5233 -0.0228247 4.90721)
(34.5656 -0.0173673 5.52355)
(33.5208 -0.0112246 6.18099)
(32.3081 0.00242958 6.88707)
(30.7592 -0.0265785 7.69413)
(28.5791 -0.0588727 8.71807)
(25.1215 -0.29294 10.3799)
(24.8812 -1.24354 13.9683)
(10.2039 -2.29723 19.367)
(-5.65618 -0.218094 25.7899)
(-14.159 1.57962 17.2096)
(-38.1352 2.22844 2.62759)
(-40.2627 3.39506 -2.56835)
(-52.5973 2.79683 -2.49609)
(-65.1908 2.44614 -0.72068)
(-78.349 2.85358 10.5542)
(-81.6803 4.03339 9.4762)
(-81.6655 5.70278 14.3183)
(-81.2933 6.56583 19.3905)
(-73.431 7.35032 25.5277)
(-67.5466 9.02176 31.2311)
(-56.3589 11.1716 32.7716)
(-42.1684 13.9221 29.5951)
(-22.4366 17.7582 16.4559)
(-5.29296 19.9557 9.36496)
(5.13266 15.7581 11.4115)
(-22.9605 22.258 40.3926)
(-11.6276 26.7641 21.7424)
(30.0779 21.9067 -15.4904)
(48.297 16.1132 -34.5783)
(57.9458 17.4041 -47.9898)
(66.7859 17.5951 -51.3461)
(80.728 15.5112 -59.2726)
(85.9252 11.0213 -61.4104)
(65.057 10.3811 -39.0481)
(16.5019 19.4068 -68.907)
(-21.1883 34.9292 -96.2082)
(0.700141 33.5519 -24.4644)
(-17.3031 28.4026 -29.2476)
(-24.2613 21.1679 -47.7669)
(-26.1516 15.1375 -93.6402)
(-53.1459 9.3872 -120.942)
(-14.9276 8.86494 -35.6168)
(251.851 10.0098 44.4587)
(293.725 6.75854 36.1763)
(40.0161 -0.00134961 0.0630425)
(40.1564 0.0203564 1.55028)
(39.8794 0.00261437 2.2107)
(39.5141 -0.00777034 2.68289)
(39.0888 -0.014102 3.15574)
(38.5956 -0.0183427 3.66254)
(38.0219 -0.0211629 4.2152)
(37.354 -0.023151 4.82161)
(36.5772 -0.0246284 5.48943)
(35.6798 -0.0247224 6.2264)
(34.6614 -0.0210635 7.04002)
(33.5201 -0.0126457 7.93664)
(32.2033 -0.00621899 8.96711)
(30.5814 -0.0217216 10.1954)
(28.5566 -0.06783 11.9365)
(26.1013 -0.258328 14.471)
(25.6644 -0.812623 18.6943)
(26.3908 -1.52778 23.7749)
(20.707 -1.79911 31.4375)
(27.897 -1.66344 34.6755)
(31.0166 -0.387552 25.6545)
(19.6796 1.16368 12.0726)
(0.621665 0.334596 5.22698)
(3.31217 -3.03018 -1.43187)
(-19.7164 1.18229 33.2143)
(-32.2985 -0.367332 33.0538)
(-58.4364 3.89709 21.0431)
(-58.6854 1.93338 29.8164)
(-53.2539 1.60205 34.6694)
(-48.9704 1.83345 37.2212)
(-38.4745 1.72487 34.2923)
(-21.3812 0.558504 20.1434)
(1.62731 0.422317 2.62202)
(32.1032 0.666798 -3.62339)
(8.77296 0.226853 40.1564)
(35.0908 2.60187 17.6654)
(-1.91807 5.62454 18.0282)
(31.8735 2.82091 -14.9348)
(40.7953 1.5993 -27.042)
(49.1909 -5.85924 -37.0931)
(55.633 -3.34513 -29.7795)
(11.1722 1.92657 -19.1289)
(-38.9058 -4.01097 -84.5092)
(2.26078 -10.5162 -17.4413)
(20.677 -7.65903 -4.82286)
(-9.60528 -13.188 31.5624)
(-43.1421 -22.9624 49.9661)
(-43.3319 -4.12908 47.3491)
(-67.9764 8.98129 -33.9955)
(-42.809 3.10809 -71.9294)
(-82.5115 4.92923 -104.696)
(-162.19 3.41651 -80.3413)
(-150.87 -3.87837 0.991772)
(-53.5009 -0.558481 -55.2631)
(40.0129 -0.00136818 0.0624448)
(40.1412 0.0204326 1.55601)
(39.8881 0.0027535 2.21822)
(39.537 -0.00748561 2.6899)
(39.1177 -0.0136286 3.16236)
(38.629 -0.0176459 3.66896)
(38.0587 -0.0202032 4.22157)
(37.3937 -0.0218783 4.82796)
(36.6205 -0.0229859 5.49577)
(35.7296 -0.0226675 6.23213)
(34.7195 -0.0186098 7.04366)
(33.5778 -0.00988515 7.94329)
(32.2405 -0.00285378 8.97029)
(30.5655 -0.0174064 10.2382)
(28.396 -0.0614142 11.9681)
(25.515 -0.247683 14.6605)
(25.3032 -0.818577 19.3084)
(19.3181 -1.51382 25.1696)
(13.0831 -0.4817 32.0428)
(14.7543 0.120642 32.1374)
(6.90858 1.44175 22.0583)
(-4.84769 3.14685 12.6645)
(-13.8002 2.47413 6.81156)
(-19.6323 -0.404265 -0.956662)
(-39.781 2.13513 8.75527)
(-47.6054 6.92573 14.5294)
(-53.1632 7.20179 18.0785)
(-47.6104 5.17438 23.6032)
(-40.1071 4.60213 28.1141)
(-33.4766 5.22886 29.5267)
(-25.3518 5.65161 28.9386)
(-0.30908 4.22502 16.7459)
(-7.77439 -0.0744052 17.4055)
(12.2662 8.71085 16.669)
(-30.8791 5.39241 46.9194)
(-29.6585 7.32455 47.1832)
(-2.56307 9.48062 13.1804)
(21.5677 9.60277 -15.3026)
(51.4389 7.94305 -28.373)
(56.6221 5.5192 -34.1164)
(47.3349 10.5424 -34.2473)
(48.1498 16.3851 -38.7862)
(30.3481 9.73554 -44.061)
(-0.973795 0.876073 20.7076)
(12.6372 23.6974 9.47774)
(9.94318 35.2513 -25.7549)
(8.28693 28.5998 -10.3308)
(8.61967 21.1824 -6.44311)
(4.33409 13.2609 -33.5682)
(-17.4327 4.95032 -71.2436)
(-48.285 6.09865 -106.485)
(-137.469 4.05794 -91.324)
(-148.416 -3.0301 -12.0585)
(-78.8446 -0.466515 -63.7603)
(40.0117 -0.00149404 0.0766096)
(40.1761 0.024758 1.87278)
(39.937 0.00680596 2.66339)
(39.6146 -0.00423033 3.22724)
(39.2371 -0.0107467 3.79254)
(38.7954 -0.0150957 4.39928)
(38.276 -0.0181167 5.06266)
(37.6645 -0.020495 5.79416)
(36.9446 -0.0225428 6.6065)
(36.103 -0.0236611 7.51506)
(35.1368 -0.0215771 8.5388)
(34.058 -0.0131953 9.70362)
(32.8331 -0.00818933 11.0612)
(31.4439 -0.00196586 12.7313)
(29.7684 -0.0573764 14.9254)
(28.0755 -0.15648 17.9498)
(27.4267 -0.559715 22.1772)
(28.978 -1.16407 26.5982)
(25.2101 -1.49819 30.5922)
(25.2454 -1.32489 31.2982)
(27.2206 -0.726118 28.5922)
(23.0802 0.0682456 24.0545)
(19.1969 1.73719 14.0611)
(-14.4487 0.662336 45.6693)
(-14.9364 2.41926 46.708)
(-24.6844 -0.638289 35.6534)
(-19.3147 -9.32947 9.52637)
(-26.5261 2.21364 28.4689)
(-28.6641 2.00897 28.7238)
(-28.3172 0.854113 30.8456)
(-4.23764 0.121642 28.0114)
(0.902791 -0.440441 17.9867)
(25.8805 -1.05561 5.78933)
(37.2052 -0.230454 -1.46714)
(-30.7797 2.47279 30.2283)
(-22.1746 5.61704 21.6613)
(-39.686 6.94447 7.95978)
(-29.1366 -0.151558 -20.4626)
(-25.1854 -8.37119 -32.1796)
(19.4846 -9.59288 -37.8853)
(33.4457 -12.4867 -39.9685)
(61.6136 -7.62654 -36.6208)
(46.2131 -9.44142 -49.1727)
(29.7774 -19.8733 -34.6895)
(47.7579 -15.2301 -22.3801)
(40.1561 -12.1507 47.8381)
(-4.06429 -19.1626 78.473)
(2.70953 -11.9514 91.4055)
(-20.4104 -8.47031 40.6172)
(18.9687 -5.83729 5.2922)
(-12.4598 2.66047 -25.5305)
(-107.504 2.99723 0.687087)
(-147.245 -5.37928 -3.70553)
(-13.3875 -1.83654 -20.1817)
(40.0089 -0.00151174 0.0760227)
(40.1603 0.024802 1.87722)
(39.9414 0.00690922 2.67051)
(39.6342 -0.00400006 3.23416)
(39.2636 -0.0103753 3.79896)
(38.8264 -0.0145444 4.40531)
(38.3104 -0.0173112 5.06841)
(37.7015 -0.0193982 5.79972)
(36.9848 -0.0211045 6.61177)
(36.1492 -0.0218315 7.51949)
(35.1929 -0.019367 8.54118)
(34.1154 -0.0107114 9.70436)
(32.8881 -0.00530598 11.068)
(31.4301 0.00141628 12.755)
(29.6857 -0.0519258 14.9874)
(27.6049 -0.148598 18.1064)
(26.9716 -0.556933 22.6327)
(24.503 -1.18795 27.6047)
(17.3903 -0.813103 32.2428)
(18.1716 0.140602 33.566)
(20.4491 1.11539 29.8293)
(17.5336 2.28025 24.1521)
(12.6991 3.98094 16.5533)
(5.16206 2.54766 13.1484)
(-10.1211 -0.0126388 36.4691)
(-20.4507 1.14326 34.735)
(-21.7996 6.78342 20.1744)
(-20.5232 5.36987 23.7611)
(-23.78 4.72192 24.4543)
(-6.5439 3.10781 29.3983)
(-23.7618 0.178296 22.9641)
(11.7925 2.21925 19.6099)
(-10.7091 -5.56722 18.2268)
(-30.3492 4.74463 37.4252)
(-66.035 5.64198 54.8919)
(-1.17222 8.2613 22.3614)
(28.8369 8.84068 -6.59929)
(32.4831 5.9405 -24.3751)
(20.7825 -1.19093 -31.4011)
(9.61209 1.20022 -36.033)
(1.26737 12.5061 -20.4051)
(38.2126 10.5955 -24.0895)
(31.4584 -7.85178 -26.5033)
(12.3843 -12.2629 -20.4096)
(9.68613 7.04526 -16.589)
(9.61216 19.7313 -7.04593)
(0.622096 16.4414 -1.26501)
(5.69482 13.0381 13.1255)
(21.7886 9.10677 4.8913)
(10.2258 0.891572 -24.4269)
(-4.98311 3.79155 -29.8426)
(-81.3494 3.33094 -3.78622)
(-151.941 -8.04261 -3.90821)
(-56.1414 -2.20691 -18.252)
(40.0073 -0.00141109 0.089254)
(40.1891 0.0227122 2.17488)
(39.9948 0.00689204 3.08757)
(39.7296 -0.0028018 3.73625)
(39.4136 -0.00885178 4.38622)
(39.0382 -0.0131123 5.08394)
(38.5911 -0.0162881 5.84773)
(38.0586 -0.0190172 6.6923)
(37.4264 -0.0216479 7.63505)
(36.6846 -0.0235581 8.69769)
(35.8382 -0.0223454 9.90764)
(34.9116 -0.0154484 11.3015)
(33.9284 -0.0048934 12.93)
(32.887 0.000155804 14.9106)
(31.7983 -0.0267067 17.3645)
(30.8078 -0.0897538 20.5603)
(30.4957 -0.360593 24.5132)
(31.9623 -0.831371 28.7528)
(31.3755 -1.31185 31.8253)
(30.7293 -1.3804 32.18)
(30.8563 -1.11085 30.6021)
(27.9024 -0.413999 28.9395)
(20.1892 1.02336 26.5633)
(10.5202 3.85852 37.6067)
(-3.76774 1.81541 39.8599)
(-12.0468 -0.175061 34.8783)
(-2.56004 -3.63581 18.9633)
(-9.26689 0.222834 27.1946)
(-10.8665 0.670903 27.5413)
(-16.4822 0.219739 23.8883)
(-22.5341 0.475997 14.8113)
(-45.6763 0.38982 7.96633)
(-26.6951 3.28772 12.2364)
(-115.073 9.6202 48.7482)
(-156.374 -4.84879 56.1467)
(-47.3678 -4.65062 0.917284)
(-5.92014 0.0938257 -21.8331)
(18.3507 -3.05981 -34.4324)
(27.7049 -7.32309 -36.473)
(33.1524 -4.98504 -40.4131)
(18.9069 -1.77579 -39.2905)
(-6.66853 -6.10033 -26.2683)
(8.26551 -13.3388 -18.8849)
(8.13149 -13.1424 -18.7192)
(-25.5588 -10.7035 -26.8277)
(45.431 -12.6139 30.8941)
(27.6466 -9.25615 69.7123)
(28.9797 -4.87851 77.6683)
(16.7906 -4.87728 61.2205)
(-6.89638 -8.84388 59.0506)
(48.9475 5.06955 -5.76947)
(39.9487 12.1963 11.1156)
(2.73204 6.28565 -33.1124)
(67.6125 0.321254 -29.044)
(40.0041 -0.00142866 0.0885002)
(40.1741 0.022768 2.18162)
(40.0025 0.00698266 3.09644)
(39.7505 -0.0025973 3.74454)
(39.4401 -0.00852227 4.39404)
(39.0686 -0.0126227 5.09154)
(38.6243 -0.0155649 5.85529)
(38.0941 -0.018023 6.70002)
(37.4647 -0.0203292 7.64281)
(36.7286 -0.0218753 8.70511)
(35.8917 -0.0203477 9.91344)
(34.9735 -0.0131231 11.3043)
(33.9842 -0.00236877 12.9385)
(32.9092 0.00310284 14.9234)
(31.7454 -0.0227943 17.4322)
(30.5191 -0.083828 20.6638)
(30.0206 -0.354636 24.8775)
(29.3645 -0.852674 29.4361)
(25.305 -1.02564 32.8653)
(22.8927 -0.521703 33.8973)
(22.4144 0.281289 32.3075)
(18.7689 1.49861 30.3789)
(15.1758 3.20991 27.6762)
(13.1005 6.46251 27.769)
(17.0117 6.59085 35.3489)
(7.37066 -0.494555 32.0709)
(6.97039 0.389973 28.3131)
(1.54529 3.20833 29.1131)
(-1.09949 3.11538 27.9771)
(-4.95788 2.05513 25.5818)
(-10.069 3.02104 21.8699)
(-16.7898 2.72177 19.1813)
(-15.9211 8.6746 31.3544)
(11.7023 9.8222 34.9915)
(21.6088 2.77788 30.1917)
(14.4117 -2.57622 17.5349)
(29.0472 1.6435 -0.372955)
(35.1972 -0.578208 -12.5713)
(17.2908 -3.6051 -23.1463)
(4.2701 0.12534 -42.0939)
(-10.8499 6.18655 -55.573)
(-1.96213 6.57197 -57.8429)
(-1.32308 4.701 -60.4982)
(-8.31792 4.44072 -42.6508)
(1.47934 2.88649 -19.2484)
(-8.47391 10.4083 -2.51159)
(-9.33204 14.3426 5.44071)
(-14.7182 13.3006 4.58367)
(-14.0475 10.9353 -2.38638)
(-12.5865 7.75719 -22.0194)
(-3.13993 6.92151 -32.5302)
(-0.180625 10.9559 -9.17205)
(45.4902 8.17439 -17.7)
(64.5999 1.34275 -14.9689)
(40.0016 -0.00159034 0.10157)
(40.2161 0.0287596 2.45878)
(40.0756 0.0128601 3.48247)
(39.8724 0.00249575 4.20692)
(39.6269 -0.00365167 4.93252)
(39.3301 -0.00785356 5.71094)
(38.9706 -0.0109988 6.56301)
(38.5374 -0.0137366 7.50583)
(38.0192 -0.0165802 8.55982)
(37.412 -0.0187819 9.75053)
(36.7302 -0.0181685 11.1089)
(36.0132 -0.0117961 12.6723)
(35.3212 0.0015758 14.4875)
(34.6797 0.00895121 16.6243)
(34.1717 0.0114523 19.1908)
(33.8097 -0.0460456 22.2835)
(33.9978 -0.183524 25.9306)
(35.2161 -0.527688 29.8039)
(36.3645 -0.978898 32.8528)
(36.448 -1.2877 33.8178)
(36.8493 -1.26701 33.0623)
(35.5713 -0.802423 32.2958)
(32.3489 0.116506 32.0229)
(30.9611 1.83969 39.1573)
(28.2842 1.96232 43.1075)
(22.647 0.0861629 34.6566)
(22.6488 -2.08757 25.9416)
(19.0615 -0.867601 28.3149)
(17.8775 -0.173437 28.8869)
(15.9955 0.146498 28.2138)
(12.7563 0.211474 26.0766)
(9.70221 0.523371 24.4874)
(6.96667 1.02968 29.7341)
(21.4663 1.86638 29.5768)
(38.9988 1.78123 15.4798)
(22.1959 2.37014 0.757269)
(-27.1653 1.78597 -15.2448)
(-56.9947 -9.59588 -37.7735)
(6.41663 -11.2381 -37.7971)
(18.165 -5.28038 -34.9709)
(31.8511 -2.68874 -25.1746)
(24.9894 -6.28171 -17.3468)
(34.0163 -13.6437 -14.9652)
(45.4122 -10.243 -14.288)
(-23.6011 3.80574 -28.9367)
(-157.506 -5.71478 -23.7422)
(-32.5776 -12.5847 49.534)
(-55.9418 -8.51729 61.3658)
(-44.1742 -1.31879 0.632317)
(-27.206 6.36367 -21.6932)
(-51.9933 6.04009 -35.1326)
(-88.7056 4.75653 -32.8162)
(-102.103 7.73576 -44.9408)
(-20.5572 1.41693 -21.1642)
(39.9989 -0.00160634 0.100916)
(40.2007 0.0287745 2.46346)
(40.078 0.0129106 3.49033)
(39.8893 0.0026284 4.21468)
(39.6506 -0.00340038 4.93973)
(39.3579 -0.00745634 5.71771)
(39.0013 -0.010412 6.5695)
(38.5702 -0.0129584 7.51217)
(38.0547 -0.0155487 8.566)
(37.4529 -0.0174003 9.75595)
(36.7807 -0.0164817 11.1122)
(36.0752 -0.0099128 12.6718)
(35.3809 0.00358176 14.4853)
(34.7279 0.0112291 16.6312)
(34.1409 0.0140467 19.2207)
(33.6706 -0.0416876 22.3695)
(33.6072 -0.1784 26.1713)
(33.8567 -0.538804 30.34)
(32.4444 -0.870716 33.7096)
(30.1688 -0.847722 35.0573)
(28.5638 -0.369074 34.4208)
(26.301 0.631084 33.4771)
(25.0258 1.94465 32.8098)
(25.581 3.88493 33.9606)
(30.5589 2.62785 39.6286)
(29.3597 0.777223 37.3287)
(27.4394 0.196605 33.8262)
(25.0563 1.72375 32.9683)
(24.014 2.24767 31.6035)
(22.2728 2.12932 29.5199)
(21.6864 2.29082 27.0617)
(20.494 2.46148 26.1417)
(25.7651 3.47842 27.7262)
(39.7219 4.64369 28.7002)
(52.5023 4.42177 23.0176)
(55.7594 4.58822 11.4483)
(51.3616 4.31726 -1.47526)
(42.7848 -0.0146489 -9.87084)
(23.7004 -6.94796 -15.9144)
(-48.0481 -1.34301 -30.1447)
(-19.4009 9.1102 -37.1703)
(-2.99087 10.7801 -37.0902)
(-8.41447 6.98996 -32.3817)
(-35.4847 9.1457 -17.9404)
(-28.4541 7.1372 -3.07956)
(-28.9306 3.63151 8.85388)
(-24.8234 5.71924 11.6464)
(-24.1955 8.08809 9.51732)
(-35.876 8.78837 -6.37869)
(-55.0098 8.30458 -14.4577)
(-75.6386 5.60985 -22.557)
(-103.916 3.05211 -22.7786)
(-113.618 5.21673 -33.2169)
(-14.1363 0.291963 -9.41788)
(39.9963 -0.00148109 0.112615)
(40.2336 0.025756 2.71235)
(40.1521 0.0123041 3.83534)
(40.0247 0.00352657 4.62602)
(39.8622 -0.00206779 5.41594)
(39.6567 -0.00614524 6.26162)
(39.3996 -0.00939468 7.18573)
(39.0829 -0.0124431 8.20667)
(38.6999 -0.0157356 9.34622)
(38.2522 -0.0186052 10.6311)
(37.7628 -0.0188852 12.0916)
(37.2839 -0.0131698 13.7604)
(36.8909 -0.000182442 15.6727)
(36.6469 0.0141363 17.8618)
(36.6046 0.0208856 20.3982)
(36.8133 -0.00654123 23.2935)
(37.39 -0.0760795 26.5912)
(38.6493 -0.296726 30.017)
(40.3425 -0.619986 33.0593)
(41.596 -0.983456 34.6822)
(42.7334 -1.13663 34.8455)
(43.003 -0.978362 34.4687)
(42.551 -0.483653 34.3824)
(43.1505 0.420463 37.9444)
(43.6559 0.681656 39.341)
(42.4142 0.093024 36.6269)
(41.5546 -1.00933 31.3211)
(40.1836 -0.880453 30.0458)
(39.7186 -0.496495 29.1744)
(39.4286 -0.143368 27.919)
(38.9491 -0.0100695 25.8375)
(39.3358 0.106628 24.0894)
(41.301 0.114363 23.5136)
(48.323 -0.0570656 22.7292)
(56.7443 -0.151302 18.6431)
(59.0338 0.336604 12.0299)
(53.5231 0.836599 3.09733)
(32.4649 0.784302 -9.84195)
(-1.69119 3.22868 -23.8652)
(-70.2864 4.60717 -36.5727)
(-71.5152 -3.8138 -47.4789)
(-54.7285 -9.02219 -36.587)
(-29.7181 -9.41639 -27.2341)
(-49.3876 -9.21072 -9.63798)
(-47.2958 -6.26297 8.29083)
(-70.7301 -2.97985 11.2177)
(-75.8506 3.84358 13.3331)
(-86.9924 6.60673 20.7749)
(-93.4412 4.86611 25.1959)
(-118.761 3.71636 19.3236)
(-172.506 -0.681542 9.85105)
(-234.798 -5.41141 2.68768)
(-290.616 0.980008 -36.3143)
(-244.024 -9.83518 -48.9245)
(39.9931 -0.00149712 0.11178)
(40.2191 0.0257914 2.71924)
(40.1583 0.0123486 3.84447)
(40.0431 0.00364244 4.63469)
(39.8857 -0.00184545 5.4242)
(39.6836 -0.00578919 6.26972)
(39.429 -0.008862 7.19392)
(39.1141 -0.0117359 8.21511)
(38.7335 -0.0148039 9.35503)
(38.2911 -0.0173505 10.6395)
(37.8114 -0.017282 12.0982)
(37.3451 -0.0114647 13.763)
(36.9585 0.00147665 15.6702)
(36.703 0.0160719 17.8645)
(36.6222 0.0231456 20.4088)
(36.7467 -0.00360308 23.3591)
(37.1726 -0.0724273 26.7311)
(37.9495 -0.300389 30.4035)
(38.2321 -0.583082 33.7268)
(37.5453 -0.785814 35.7244)
(36.4929 -0.645179 36.022)
(35.1431 -0.0754794 35.5078)
(34.6566 0.829344 35.171)
(36.0143 2.04054 36.0557)
(40.1703 1.75117 38.7491)
(42.0683 1.00173 38.1287)
(42.6469 0.501169 35.5434)
(42.5101 1.06392 33.9187)
(42.7223 1.59167 32.2996)
(42.8686 1.84318 29.9875)
(43.463 1.94434 27.2839)
(44.6347 1.98725 25.2969)
(48.3828 2.09568 24.2621)
(55.1356 2.06519 23.4713)
(62.0991 2.00924 20.5556)
(65.9584 2.41696 14.578)
(63.3721 2.84882 6.55247)
(55.4623 2.89323 -1.28348)
(51.2906 4.8041 -4.9806)
(47.1846 5.89128 -10.3258)
(35.7665 4.01113 -16.9741)
(-6.24338 -1.04277 -22.9907)
(-60.8738 1.68678 -26.5573)
(-94.8384 5.149 -12.7133)
(-76.6567 0.061304 -1.41403)
(-85.5402 -3.53536 -1.30811)
(-86.3091 2.96985 0.783884)
(-81.3768 6.76421 12.9212)
(-92.4198 6.56127 20.5786)
(-102.644 4.98112 18.6841)
(-129.951 0.983085 9.85563)
(-176.861 -4.31331 -2.86293)
(-246.737 1.36001 -28.2293)
(-173.822 -5.20117 9.31468)
(39.9897 -0.00169256 0.12244)
(40.2664 0.0330674 2.93865)
(40.2511 0.0196125 4.14641)
(40.2003 0.0101111 4.99168)
(40.1252 0.00448868 5.83412)
(40.018 0.000577868 6.73357)
(39.8723 -0.00247159 7.71356)
(39.6827 -0.00540079 8.79264)
(39.4472 -0.00854885 9.99238)
(39.1723 -0.0114956 11.3382)
(38.8872 -0.0118667 12.8575)
(38.6518 -0.00657766 14.5749)
(38.5456 0.00587637 16.5092)
(38.6478 0.0234306 18.6734)
(38.9952 0.0321572 21.0863)
(39.6389 0.0308927 23.7566)
(40.5437 -0.021271 26.6578)
(41.9485 -0.132217 29.6653)
(43.7255 -0.348116 32.4732)
(45.7365 -0.635482 34.4459)
(47.6299 -0.860662 35.3091)
(49.3654 -0.908598 35.2603)
(50.5964 -0.715994 35.0247)
(52.3892 -0.26459 36.2895)
(54.2979 0.00402016 37.0138)
(55.051 -0.106751 35.8417)
(55.3975 -0.546784 32.846)
(55.2989 -0.67167 30.6529)
(55.4794 -0.569315 28.8951)
(56.0045 -0.357173 27.1298)
(56.6057 -0.188097 24.8191)
(57.5994 -0.0792227 22.3639)
(59.5477 -0.0915085 19.9882)
(63.1033 -0.26902 17.2856)
(67.5656 -0.407564 14.0456)
(71.0652 -0.29735 10.8258)
(71.6682 -0.054521 7.06154)
(67.4175 0.259079 2.33746)
(60.7904 1.46907 -0.317064)
(48.7162 3.66286 -3.55293)
(19.6196 5.51335 -8.79503)
(-45.5847 4.07089 -11.2417)
(-74.5506 -3.7726 -7.88651)
(-96.3495 -13.7376 4.02398)
(-66.8718 -13.8581 18.7227)
(-62.0352 -10.1608 31.2705)
(-57.0138 -7.70276 32.0609)
(-58.5719 -4.04747 37.0439)
(-61.9305 -0.0673376 41.1351)
(-69.2833 1.89058 43.0403)
(-97.2786 -3.90754 36.9051)
(-140.981 -11.6978 23.8463)
(-230.861 -3.07885 12.3717)
(-371.696 7.12155 146.978)
(39.9871 -0.0017062 0.121798)
(40.2516 0.0330561 2.9428)
(40.2513 0.0196173 4.15403)
(40.2142 0.0101621 4.9995)
(40.1456 0.00461683 5.84149)
(40.0422 0.000809923 6.74057)
(39.8989 -0.00210398 7.72038)
(39.7111 -0.00485958 8.79947)
(39.4777 -0.0077944 9.99927)
(39.2077 -0.0104869 11.3446)
(38.9316 -0.0106255 12.8615)
(38.7081 -0.00522863 14.5742)
(38.6109 0.00718912 16.5021)
(38.7046 0.0250334 18.6641)
(39.0331 0.033916 21.0862)
(39.6025 0.032797 23.7818)
(40.4489 -0.0182585 26.7463)
(41.5761 -0.132411 29.8995)
(42.7419 -0.336956 32.9369)
(43.4829 -0.55666 35.2383)
(43.8132 -0.627397 36.2846)