/*--------------------------------*- C++ -*----------------------------------*\
| =========                 |                                                 |
| \\      /  F ield         | OpenFOAM: The Open Source CFD Toolbox           |
|  \\    /   O peration     | Version:  4.1                                   |
|   \\  /    A nd           | Web:      www.OpenFOAM.org                      |
|    \\/     M anipulation  |                                                 |
\*---------------------------------------------------------------------------*/
FoamFile
{
    version     2.0;
    format      ascii;
    class       volScalarField;
    location    "19";
    object      omega;
}
// * * * * * * * * * * * * * * * * * * * * * * * * * * * * * * * * * * * * * //

dimensions      [0 0 -1 0 0 0 0];

internalField   nonuniform List<scalar> 
4432
(
0.0111161
0.0114177
0.0117321
0.0119913
0.0122911
0.0125972
0.0128909
0.013219
0.013508
0.0137671
0.0140742
0.0142973
0.0146138
0.0147786
0.0152116
0.0153766
0.0155504
0.0156379
0.0153604
0.015431
0.0169679
0.0186621
0.0235724
0.0293982
0.0340426
0.0376453
0.0405522
0.042432
0.0440321
0.0452675
0.0461665
0.0466222
0.0471225
0.0473863
0.0475693
0.0478492
0.0480125
0.0489961
0.0496298
0.0492105
0.0462004
0.0416517
0.0392231
0.033852
0.0289471
0.0218411
0.0199499
0.0194551
0.0185686
0.0184491
0.0147968
0.0116486
0.0115634
0.0123303
0.0111244
0.0114104
0.0117524
0.0120152
0.0123407
0.0126562
0.0129611
0.0133058
0.0135616
0.0138913
0.014084
0.0144202
0.0145676
0.0150248
0.0151991
0.0153643
0.0155148
0.0156433
0.0157263
0.0164917
0.0191245
0.020804
0.0262656
0.030881
0.0344192
0.0363119
0.0386003
0.0411134
0.042608
0.0434126
0.0433719
0.0426005
0.0409215
0.0385195
0.038248
0.0375054
0.0374159
0.0375485
0.037345
0.0373037
0.0370106
0.0344811
0.0336683
0.0304215
0.0263088
0.0215254
0.0180844
0.016916
0.0173489
0.0171819
0.0134879
0.00763206
0.00615748
0.00899135
21.8873
3.4809
1.41023
0.769052
0.48024
0.337683
0.259562
0.212204
0.180215
0.15818
0.141316
0.128868
0.117659
0.108554
0.0996993
0.0919741
0.0848032
0.0772672
0.0715505
0.0662348
0.0625474
0.0614127
0.0586799
0.0578574
0.0586094
0.056448
0.0585875
0.0559228
0.0560021
0.0570292
0.0577875
0.061343
0.0617246
0.0642879
0.0843552
0.0739384
0.0830517
0.101045
0.166891
0.134563
0.154924
0.161153
0.304984
0.270846
0.265718
0.337724
0.166551
0.122
0.186358
0.272651
0.320458
0.770273
0.929031
1.05799
21.8863
3.48284
1.4123
0.770211
0.480571
0.337617
0.259886
0.212215
0.180868
0.158139
0.141478
0.127746
0.116691
0.106487
0.0979748
0.0899713
0.0825513
0.0765026
0.0706058
0.0674172
0.0631446
0.0623754
0.0588823
0.0580079
0.0583863
0.0559888
0.058978
0.0558952
0.0556254
0.0564354
0.0602679
0.0557782
0.0563333
0.0572726
0.0579609
0.0604151
0.0618025
0.0710732
0.0826941
0.079856
0.092077
0.119647
0.174831
0.150878
0.177071
0.153596
0.194912
0.161933
0.194974
0.27327
0.394371
0.674864
0.883501
1.22578
21.8863
3.4838
1.41278
0.768299
0.478696
0.336226
0.258994
0.211503
0.18
0.156694
0.139785
0.126285
0.11595
0.107494
0.100076
0.0938597
0.0875065
0.0816589
0.0761423
0.0713601
0.0678234
0.0654398
0.0631352
0.0629918
0.0607708
0.0619299
0.0629775
0.0638758
0.0649788
0.0730178
0.0788235
0.0931753
0.119285
0.136242
0.164141
0.204183
0.172351
0.194126
0.20891
0.233641
0.265598
0.359704
0.324467
0.35708
0.268901
0.268172
0.265177
0.193346
0.249694
0.300664
0.400827
0.49736
0.667597
0.697498
21.8855
3.48454
1.41283
0.769212
0.479735
0.337177
0.259231
0.211804
0.180375
0.157937
0.141262
0.128015
0.11784
0.108196
0.101186
0.0935618
0.0871933
0.0809108
0.0750743
0.0703654
0.0664465
0.0644113
0.061856
0.0606219
0.0598367
0.0603665
0.0611901
0.062001
0.0615429
0.0624095
0.0607773
0.0615468
0.0636551
0.0680502
0.0836218
0.0992416
0.0854958
0.100986
0.132057
0.176112
0.13885
0.142987
0.192948
0.238612
0.29719
0.225297
0.218055
0.256382
0.320753
0.327682
0.348896
0.418206
0.677963
1.01269
21.8866
3.48244
1.41213
0.767299
0.478998
0.336181
0.259548
0.212658
0.18127
0.157895
0.140957
0.126952
0.116856
0.107674
0.100428
0.0937729
0.0875007
0.0812791
0.0758477
0.0708506
0.0684867
0.0646931
0.063638
0.0685368
0.069577
0.0776755
0.08352
0.0931783
0.11548
0.129055
0.121984
0.127246
0.145871
0.152581
0.241461
0.184774
0.213416
0.279434
0.311421
0.334963
0.325178
0.321096
0.35582
0.352248
0.379693
0.298564
0.325516
0.33313
0.325966
0.339811
0.383565
0.799631
0.721436
0.767089
21.8854
3.47963
1.41584
0.77069
0.480205
0.337245
0.258779
0.212402
0.182873
0.162837
0.147112
0.134697
0.123563
0.113897
0.105481
0.0970606
0.0903874
0.0826387
0.0774377
0.070934
0.0687032
0.064303
0.0638068
0.0645881
0.0659317
0.06758
0.0697791
0.0704104
0.0727042
0.0754575
0.0806965
0.0863576
0.0886336
0.0954819
0.1171
0.157781
0.194921
0.245095
0.258141
0.329334
0.261905
0.265992
0.332103
0.29459
0.288133
0.283666
0.301629
0.266393
0.271583
0.334302
0.360996
0.659394
0.842539
0.690155
21.8873
3.47132
1.42114
0.772113
0.479102
0.336615
0.264448
0.220517
0.189965
0.166409
0.148636
0.133791
0.122712
0.112193
0.104246
0.0959492
0.0894122
0.0816354
0.0760137
0.0715535
0.0669878
0.0656866
0.0688381
0.0748998
0.0822411
0.0979121
0.109306
0.129073
0.153539
0.139403
0.145868
0.15852
0.216358
0.183127
0.196734
0.237969
0.315207
0.303174
0.336855
0.332269
0.325084
0.377685
0.403556
0.351558
0.363397
0.45608
0.418232
0.407808
0.371677
0.363213
0.449605
0.549926
0.79318
0.628637
21.886
3.48537
1.41686
0.768597
0.477283
0.335592
0.258519
0.211473
0.180661
0.158206
0.141252
0.127449
0.116694
0.107392
0.0997037
0.0927039
0.0858369
0.0804576
0.076239
0.0698089
0.0691204
0.0656882
0.0665845
0.0692624
0.0738048
0.07688
0.0821319
0.0877711
0.0949942
0.102175
0.107508
0.120313
0.141601
0.177951
0.207176
0.243856
0.253328
0.32599
0.25642
0.270908
0.308142
0.311085
0.3561
0.305022
0.298268
0.31891
0.36735
0.365555
0.354989
0.418316
0.349869
0.585183
0.962869
0.780156
21.8875
3.48015
1.41234
0.769198
0.477804
0.335591
0.25812
0.211752
0.181202
0.159953
0.143546
0.130915
0.119942
0.110681
0.101983
0.0944637
0.0872347
0.0801903
0.0751858
0.0690781
0.0693524
0.0702142
0.0763726
0.0807683
0.0998546
0.115961
0.14007
0.154782
0.176713
0.186722
0.228363
0.190666
0.219703
0.276533
0.244235
0.281233
0.323722
0.350943
0.347089
0.347024
0.33705
0.341515
0.340547
0.313175
0.330473
0.395506
0.357951
0.340994
0.427278
0.412847
0.457675
0.607525
0.598046
0.623403
21.8865
3.48411
1.41128
0.76602
0.47939
0.336402
0.258666
0.211009
0.178996
0.155768
0.138307
0.124682
0.113999
0.105173
0.0977767
0.0914406
0.0848637
0.0794078
0.0748999
0.0683814
0.0671824
0.0699862
0.0775235
0.0827587
0.0919466
0.09889
0.103301
0.111892
0.120382
0.13023
0.150629
0.18212
0.215661
0.238872
0.193633
0.205458
0.254315
0.277621
0.338524
0.322493
0.355504
0.336115
0.33055
0.319022
0.304836
0.309731
0.327971
0.353387
0.3185
0.333153
0.304334
0.308408
0.637289
0.553669
21.888
3.48142
1.40911
0.765311
0.476776
0.335403
0.257574
0.210187
0.17884
0.156993
0.140799
0.12827
0.117882
0.109143
0.100725
0.0939456
0.0861601
0.0808185
0.074227
0.0683687
0.0726731
0.0826423
0.102815
0.115127
0.143259
0.145755
0.163291
0.173419
0.20508
0.243733
0.201885
0.223198
0.279
0.308415
0.317613
0.305078
0.318936
0.335081
0.342471
0.369798
0.347559
0.330386
0.285719
0.261581
0.288548
0.327449
0.328794
0.297364
0.263465
0.203819
0.356426
0.301968
0.307238
0.511425
21.8871
3.48393
1.41528
0.764821
0.474663
0.334611
0.257508
0.21017
0.178526
0.155979
0.139095
0.126011
0.115319
0.106346
0.0985637
0.0916663
0.0848827
0.0789885
0.0740418
0.0678455
0.0672924
0.0745597
0.0846634
0.0939973
0.108016
0.114938
0.124743
0.14449
0.16589
0.192724
0.205828
0.24435
0.197336
0.205425
0.245426
0.306745
0.268526
0.281631
0.292258
0.297176
0.292735
0.304666
0.289546
0.301928
0.283345
0.290438
0.281931
0.299787
0.303176
0.261718
0.280538
0.292432
0.546852
0.733378
21.8877
3.47737
1.41457
0.768331
0.478838
0.335428
0.257112
0.210402
0.180756
0.159721
0.144049
0.13037
0.119711
0.109326
0.101247
0.0928452
0.0858008
0.0796985
0.0718487
0.0709415
0.0745977
0.10247
0.11414
0.136007
0.140873
0.147721
0.159762
0.186345
0.234244
0.229425
0.263818
0.298712
0.264971
0.293035
0.314773
0.336924
0.34957
0.34011
0.344104
0.316319
0.271267
0.290309
0.304657
0.268266
0.233016
0.247012
0.266636
0.264067
0.2501
0.216521
0.214721
0.219665
0.362372
0.479669
21.8868
3.47868
1.41511
0.769526
0.479275
0.335189
0.256723
0.20927
0.178188
0.156253
0.139611
0.126488
0.115497
0.106509
0.0981679
0.0916044
0.0843066
0.078899
0.0720884
0.0665434
0.069029
0.0815925
0.0926074
0.106009
0.117671
0.132837
0.158346
0.186825
0.199774
0.207497
0.211758
0.219042
0.25497
0.257256
0.282278
0.252173
0.263732
0.269865
0.291924
0.301381
0.289796
0.267546
0.298492
0.256526
0.24959
0.293421
0.246237
0.282494
0.293954
0.258044
0.279092
0.254705
0.344538
0.338422
21.8887
3.47985
1.41125
0.761973
0.472812
0.331655
0.255484
0.209877
0.179755
0.157727
0.140464
0.126435
0.115297
0.105536
0.0978498
0.0899432
0.0842115
0.078325
0.0696953
0.0734022
0.0826969
0.110741
0.109624
0.136214
0.158788
0.158268
0.199487
0.217544
0.236995
0.243522
0.272925
0.288089
0.285775
0.295591
0.324006
0.32129
0.343668
0.317762
0.285825
0.266052
0.275894
0.291459
0.286449
0.295786
0.277306
0.225063
0.223788
0.238212
0.239826
0.213063
0.20849
0.309252
0.525381
0.619214
21.8868
3.48657
1.4164
0.763154
0.476394
0.334235
0.256831
0.20924
0.176918
0.153585
0.135894
0.122204
0.111366
0.102438
0.0950144
0.0883335
0.0821276
0.0777912
0.0700338
0.0684418
0.0722765
0.087393
0.0995536
0.110514
0.135507
0.159459
0.178085
0.196187
0.170339
0.176558
0.181143
0.218676
0.233811
0.257704
0.233018
0.238914
0.243901
0.242833
0.236601
0.234371
0.239563
0.2466
0.251732
0.254971
0.275138
0.238598
0.267693
0.25937
0.277717
0.276116
0.261214
0.254328
0.380981
0.368741
21.8876
3.48293
1.41626
0.768356
0.477763
0.33534
0.256634
0.208656
0.176261
0.153145
0.135835
0.122514
0.112308
0.103172
0.0965671
0.088792
0.0837801
0.0774798
0.0692414
0.0703275
0.0899137
0.109788
0.114752
0.144311
0.177758
0.153955
0.192287
0.208282
0.212018
0.23903
0.248267
0.268635
0.282325
0.29701
0.300804
0.299241
0.267633
0.255061
0.246259
0.232894
0.249029
0.242603
0.252817
0.245958
0.250462
0.270481
0.183827
0.186502
0.188756
0.189038
0.209546
0.233636
0.365536
0.351439
21.8874
3.48364
1.41703
0.763829
0.474961
0.333226
0.255854
0.208374
0.17618
0.152976
0.135624
0.122177
0.111508
0.102247
0.0947285
0.087868
0.0816688
0.0775731
0.0696636
0.069852
0.0722102
0.0886253
0.103117
0.119736
0.16337
0.178781
0.162683
0.166021
0.18954
0.198594
0.168182
0.193903
0.214494
0.200949
0.210974
0.215926
0.225527
0.234099
0.212583
0.229735
0.21733
0.220414
0.23072
0.25665
0.258491
0.240266
0.254448
0.25201
0.24593
0.243365
0.241856
0.311845
0.48908
0.468486
21.8891
3.47387
1.41179
0.768961
0.4771
0.333464
0.254521
0.207071
0.176254
0.155092
0.139088
0.126149
0.115601
0.105582
0.098563
0.0894583
0.0841375
0.0773912
0.0697486
0.071534
0.0981057
0.110793
0.125777
0.140994
0.155677
0.164116
0.189123
0.17597
0.200478
0.215426
0.244785
0.266664
0.275167
0.280685
0.262573
0.246139
0.244725
0.218943
0.187777
0.185746
0.186005
0.185897
0.202164
0.155915
0.156121
0.090611
0.0907257
0.120364
0.134012
0.183703
0.213386
0.273672
0.394927
0.485481
21.8879
3.48089
1.41509
0.769751
0.477889
0.334911
0.256851
0.208576
0.176123
0.15289
0.135709
0.122124
0.111674
0.102143
0.0947843
0.0876077
0.0812848
0.0774794
0.0696528
0.0700215
0.0732747
0.0855629
0.105858
0.137506
0.188942
0.172018
0.165023
0.172198
0.192778
0.187294
0.16819
0.172193
0.176009
0.190741
0.212546
0.20659
0.196534
0.18633
0.179777
0.17829
0.197156
0.201613
0.224721
0.188659
0.220605
0.167498
0.176216
0.180632
0.202432
0.220669
0.251139
0.546139
0.668033
0.788019
21.8884
3.47488
1.4074
0.76429
0.475768
0.334306
0.255618
0.208125
0.17757
0.156234
0.140024
0.126728
0.115719
0.105603
0.0980912
0.0890504
0.0841863
0.0749425
0.0714237
0.0678092
0.113189
0.10298
0.119096
0.152022
0.180893
0.139586
0.132589
0.148887
0.185202
0.221638
0.242236
0.252788
0.262528
0.253931
0.246246
0.237111
0.232318
0.200739
0.197105
0.200103
0.184197
0.185275
0.176602
0.159211
0.121914
0.109014
0.0789908
0.086829
0.109422
0.128115
0.161566
0.182531
0.356452
0.345528
21.8874
3.4832
1.40744
0.76489
0.475725
0.332685
0.255239
0.207474
0.175131
0.151675
0.13443
0.120561
0.110389
0.100773
0.093876
0.0868122
0.080373
0.0770904
0.0686717
0.0654728
0.0812364
0.0869199
0.108681
0.152049
0.197565
0.198703
0.171015
0.179046
0.2131
0.154656
0.146647
0.163361
0.18474
0.200965
0.197691
0.202359
0.175162
0.173558
0.175771
0.180147
0.174431
0.173519
0.183467
0.15297
0.171176
0.122437
0.122576
0.159863
0.162845
0.168636
0.181198
0.332167
0.491285
0.709715
21.8883
3.4741
1.41353
0.768618
0.476439
0.332464
0.254774
0.208049
0.177397
0.156014
0.139609
0.125867
0.114963
0.104429
0.0969097
0.0883582
0.0837437
0.0736958
0.0711476
0.066258
0.091264
0.10589
0.120011
0.151065
0.183581
0.148851
0.145968
0.167677
0.208622
0.219795
0.232595
0.2454
0.24731
0.251245
0.234582
0.236481
0.202812
0.196177
0.19245
0.178447
0.171512
0.163209
0.148469
0.115713
0.087374
0.0881504
0.0998839
0.108786
0.121305
0.144441
0.160718
0.148243
0.175803
0.192018
21.8875
3.48464
1.41176
0.766697
0.477028
0.332864
0.254791
0.20697
0.174723
0.151196
0.133557
0.11969
0.109097
0.10011
0.0933883
0.0868751
0.0807414
0.0767347
0.0688323
0.0665058
0.0773122
0.0928104
0.111521
0.173259
0.249116
0.18766
0.148317
0.157372
0.166393
0.177594
0.177782
0.190038
0.200487
0.204273
0.18815
0.190055
0.174642
0.178565
0.187709
0.180401
0.18105
0.177665
0.163864
0.153488
0.0980074
0.0822983
0.0775503
0.0858702
0.130224
0.131606
0.194438
0.212556
0.347558
0.3667
21.8872
3.48244
1.41503
0.76349
0.474639
0.332395
0.254328
0.206507
0.174232
0.150554
0.133095
0.118963
0.108509
0.0993581
0.0920871
0.0867272
0.0790174
0.0753463
0.0650692
0.0706127
0.118887
0.152624
0.143629
0.186333
0.208691
0.156495
0.164712
0.188367
0.206113
0.210766
0.223424
0.234744
0.231242
0.239945
0.221908
0.200231
0.190947
0.187212
0.185857
0.175862
0.169016
0.153365
0.126164
0.0958429
0.0895589
0.0944135
0.0954922
0.102628
0.105492
0.137278
0.126556
0.130037
0.147677
0.175098
21.8871
3.4802
1.41254
0.767966
0.476926
0.333371
0.255082
0.206958
0.174581
0.151284
0.133741
0.120326
0.109279
0.100812
0.0929395
0.0873193
0.0808019
0.0756071
0.0693929
0.0664771
0.0755201
0.100935
0.113075
0.173301
0.228822
0.30653
0.1684
0.130413
0.188186
0.17495
0.1772
0.199938
0.187361
0.196172
0.16868
0.17241
0.182022
0.18554
0.189447
0.177908
0.172104
0.166321
0.154104
0.140104
0.112133
0.0972211
0.0864674
0.105399
0.140409
0.162701
0.188084
0.16736
0.230347
0.223536
21.8872
3.48171
1.41573
0.76847
0.478564
0.334781
0.25566
0.206764
0.173872
0.149974
0.132246
0.118439
0.107582
0.0989178
0.0916635
0.0854383
0.0789836
0.0765948
0.064885
0.0679515
0.116509
0.120526
0.185989
0.245514
0.195431
0.147301
0.15228
0.169366
0.193042
0.202821
0.218066
0.221613
0.216787
0.222812
0.200288
0.189724
0.174817
0.172362
0.162951
0.154066
0.150991
0.138728
0.107375
0.0917398
0.0875406
0.0869548
0.0835861
0.0882754
0.0974292
0.10991
0.127494
0.159353
0.189297
0.267343
21.8874
3.48115
1.40935
0.766186
0.476519
0.333487
0.254867
0.206608
0.174058
0.150633
0.133066
0.119931
0.108811
0.10066
0.0930523
0.0876249
0.0808438
0.0771985
0.0689603
0.0653774
0.0809303
0.0934704
0.0856214
0.289121
0.338688
0.231565
0.246977
0.122734
0.132983
0.16629
0.185258
0.190265
0.193808
0.183101
0.17641
0.184059
0.179211
0.184451
0.166145
0.160581
0.156106
0.153417
0.130806
0.116626
0.107602
0.109698
0.105117
0.105598
0.100489
0.126142
0.146991
0.186027
0.312379
0.355351
21.8858
3.4855
1.4138
0.764795
0.474124
0.331538
0.254143
0.206278
0.173674
0.149974
0.131805
0.118115
0.106504
0.0979329
0.0910742
0.0812469
0.0761723
0.0730125
0.0638074
0.0638013
0.0876333
0.141152
0.273661
0.166446
0.191092
0.155959
0.159783
0.192165
0.199817
0.213037
0.212984
0.214481
0.19114
0.174397
0.177221
0.170946
0.165873
0.151626
0.160015
0.152186
0.154012
0.0922958
0.081316
0.0746898
0.0739768
0.0677311
0.0805325
0.0919863
0.111879
0.16744
0.229268
0.28499
0.456292
21.8862
3.48122
1.41521
0.769345
0.478199
0.333817
0.255102
0.206632
0.173971
0.150666
0.133253
0.12017
0.109554
0.101424
0.0938851
0.088102
0.0818513
0.0762606
0.0722056
0.0631397
0.0730221
0.0968585
0.150564
0.555482
0.24777
0.2529
0.174779
0.15783
0.1649
0.179312
0.177277
0.187623
0.160784
0.166237
0.172637
0.174247
0.160257
0.165043
0.161951
0.154268
0.120873
0.0908053
0.0829111
0.0840167
0.0824138
0.076985
0.0831098
0.0855649
0.124044
0.258034
0.43121
0.857546
0.722381
21.8862
3.48043
1.41351
0.768623
0.475564
0.331837
0.253671
0.205746
0.173264
0.149558
0.131425
0.117504
0.106283
0.0976316
0.0904102
0.0847431
0.0793943
0.0741855
0.0706685
0.0648123
0.0859452
0.162702
0.231799
0.309073
0.356721
0.18671
0.160782
0.156625
0.177765
0.19919
0.206862
0.198963
0.170054
0.135117
0.157567
0.175071
0.16032
0.13718
0.138383
0.155244
0.16389
0.109169
0.0829803
0.0728362
0.0649868
0.0643941
0.0603056
0.0842853
0.0852912
0.128476
0.268529
0.345122
0.549581
0.638613
21.8864
3.47888
1.41401
0.765689
0.477254
0.332984
0.255173
0.207818
0.175799
0.152604
0.134832
0.12137
0.11068
0.102067
0.0949585
0.088267
0.0832899
0.0764425
0.0742274
0.0656829
0.0649233
0.0962247
0.116141
0.184991
0.52217
0.298928
0.215297
0.169934
0.156486
0.158227
0.167182
0.161665
0.16787
0.144682
0.144349
0.151694
0.17177
0.134569
0.139873
0.132761
0.111403
0.0929191
0.0874178
0.0798208
0.073193
0.0677239
0.0681231
0.0770919
0.0807251
0.218108
0.619177
0.783227
0.729718
0.638022
21.8851
3.48218
1.4083
0.767052
0.476725
0.332862
0.254293
0.20595
0.173336
0.149624
0.131611
0.11754
0.106425
0.0977484
0.0908421
0.0849966
0.0803659
0.0749435
0.0730716
0.065904
0.0675974
0.124652
0.193115
0.250075
0.173953
0.155278
0.162866
0.152012
0.165694
0.162812
0.159884
0.153545
0.153696
0.179821
0.191519
0.177781
0.135441
0.0836062
0.128708
0.171067
0.118871
0.082995
0.0675975
0.0591328
0.054544
0.0548293
0.0555575
0.081859
0.0830861
0.175493
0.287401
0.370109
0.491237
0.631363
21.8869
3.46215
1.41849
0.770892
0.478082
0.333693
0.259964
0.217806
0.1879
0.164166
0.144762
0.12901
0.116091
0.105668
0.097099
0.0898129
0.0840914
0.0780626
0.0737303
0.0676046
0.0653101
0.0744541
0.101082
0.11957
0.151327
0.180523
0.182524
0.180914
0.17447
0.167198
0.16228
0.157362
0.157187
0.160363
0.158891
0.166611
0.140695
0.139848
0.133172
0.110702
0.0961665
0.084268
0.0767465
0.0646142
0.0612713
0.0568207
0.0634719
0.0705739
0.0944898
0.359117
0.519619
0.590978
0.695701
0.620313
21.8856
3.47924
1.408
0.766578
0.47805
0.334633
0.255541
0.206469
0.173562
0.149776
0.131983
0.118225
0.107281
0.0986553
0.0914934
0.0857192
0.0809052
0.0762875
0.0724981
0.0669047
0.0658884
0.0777273
0.134849
0.152417
0.163203
0.175875
0.18088
0.16807
0.177607
0.172675
0.169577
0.168436
0.18602
0.20402
0.197057
0.177191
0.144218
0.154532
0.150957
0.0996437
0.0723053
0.0597027
0.0520717
0.0484674
0.0493488
0.0519722
0.0533974
0.0815726
0.080584
0.158242
0.200993
0.325659
0.353322
0.498092
21.8861
3.47356
1.41033
0.764695
0.476428
0.333707
0.254812
0.207217
0.176096
0.154131
0.137414
0.124138
0.112934
0.103979
0.0959489
0.0896995
0.0834623
0.0791171
0.0735473
0.0713503
0.0642469
0.0656705
0.0822764
0.0870473
0.0993222
0.101448
0.114889
0.126064
0.14181
0.149084
0.164938
0.163251
0.162645
0.16578
0.159954
0.174697
0.158312
0.134585
0.111217
0.0918463
0.0779219
0.0661548
0.0569285
0.0515003
0.0515699
0.0512165
0.0610539
0.0671928
0.0845979
0.186031
0.0929434
0.398121
0.77591
0.615326
21.8843
3.48043
1.4113
0.766541
0.476048
0.332664
0.254412
0.205997
0.173194
0.149458
0.13141
0.117658
0.106615
0.0981465
0.0909159
0.0855476
0.080396
0.077056
0.0726663
0.0713294
0.0648001
0.0673351
0.0861139
0.103841
0.111604
0.125275
0.124426
0.147325
0.14512
0.150783
0.169498
0.180798
0.179665
0.178364
0.216111
0.187722
0.14357
0.108004
0.0789486
0.0630454
0.0534187
0.0493367
0.0468505
0.0466798
0.0477863
0.0489302
0.0540009
0.0847313
0.0806104
0.142138
0.172978
0.269137
0.18812
0.434708
21.8843
3.47964
1.41151
0.769683
0.477162
0.333944
0.255038
0.2066
0.173716
0.149815
0.131688
0.117727
0.106715
0.0982563
0.0913142
0.0859529
0.081286
0.0773011
0.0737035
0.0705591
0.0683177
0.063151
0.0670071
0.0719105
0.0729306
0.0825535
0.0870283
0.0868336
0.0893229
0.0958157
0.104704
0.120643
0.129916
0.125997
0.121686
0.114703
0.101453
0.0877744
0.0746716
0.0640258
0.0560949
0.0512455
0.0483042
0.0482465
0.0501063
0.0498567
0.0600066
0.072548
0.0753527
0.208492
0.152438
0.216719
0.307539
0.604057
21.8844
3.47746
1.40995
0.768801
0.47826
0.333782
0.254896
0.206372
0.173657
0.150054
0.132315
0.118673
0.107754
0.0991536
0.0919178
0.0862118
0.0811583
0.0771605
0.0735754
0.0703848
0.0683875
0.0642649
0.0677543
0.0744096
0.0766704
0.0823045
0.0793622
0.100236
0.0972235
0.108804
0.115724
0.120567
0.108471
0.0971745
0.0890283
0.0762514
0.0649706
0.05653
0.0510813
0.0484396
0.0456618
0.0451641
0.0447226
0.045948
0.0455752
0.0496952
0.0564227
0.0773883
0.0790734
0.105344
0.145201
0.263873
0.319709
0.268763
21.8841
3.47753
1.41082
0.769871
0.478657
0.334282
0.255078
0.206473
0.173781
0.150186
0.132548
0.118922
0.108055
0.0994392
0.092082
0.0862488
0.0811749
0.0772036
0.0737157
0.0707534
0.0684944
0.0652079
0.0649816
0.0644027
0.0646758
0.0659519
0.0677292
0.067625
0.0681656
0.0695175
0.0726092
0.0736386
0.0786467
0.0777156
0.0752445
0.0707538
0.0647842
0.0591902
0.0541513
0.0507639
0.0483128
0.0472755
0.0465134
0.0473931
0.0472673
0.0482945
0.0539027
0.0686666
0.0721837
0.099307
0.146374
0.306108
0.515881
0.682637
21.8832
3.48072
1.4098
0.769188
0.477999
0.333951
0.254937
0.206385
0.173473
0.149613
0.131617
0.117774
0.106886
0.0983217
0.0913167
0.0857678
0.0809825
0.0770847
0.0735351
0.0705963
0.0678619
0.0659195
0.0647939
0.0655081
0.0660229
0.066151
0.0655144
0.0656053
0.0659356
0.0624252
0.0704891
0.0666274
0.0629337
0.0592979
0.0558195
0.0524042
0.0501991
0.0482817
0.0471582
0.0461459
0.0450698
0.0451498
0.0447742
0.0446723
0.045597
0.0502655
0.053625
0.0714464
0.0705224
0.114914
0.167607
0.2516
0.480261
0.399205
21.8832
3.48046
1.41032
0.769309
0.47828
0.334366
0.255283
0.206649
0.173866
0.150256
0.132734
0.119085
0.108456
0.0997409
0.0926029
0.08669
0.081598
0.0774937
0.073833
0.0707427
0.0682471
0.0656476
0.0641432
0.0635455
0.0626387
0.0617591
0.0609946
0.0603506
0.0599249
0.059869
0.060465
0.0601289
0.0595584
0.0584676
0.0567541
0.0548135
0.0526754
0.0507356
0.0489588
0.047701
0.0468603
0.0467499
0.0463317
0.0464564
0.0471564
0.0491326
0.0566556
0.0720765
0.0620652
0.123586
0.160898
0.225145
0.461482
0.564191
21.883
3.48048
1.41236
0.768827
0.478721
0.334599
0.255486
0.206873
0.173896
0.149904
0.131685
0.117488
0.106332
0.0974785
0.0904338
0.0847422
0.0801436
0.0762285
0.0729531
0.070012
0.0673432
0.065344
0.0634678
0.0623469
0.0616071
0.0608777
0.0599712
0.0588933
0.0576758
0.0562121
0.0553715
0.0540614
0.0528248
0.051214
0.0500607
0.0486324
0.0478578
0.0468425
0.0462605
0.0454707
0.0444763
0.0442136
0.0432854
0.0429444
0.0430458
0.0462608
0.0464114
0.0587998
0.0583102
0.104524
0.157342
0.2829
0.395525
0.463341
21.8832
3.47954
1.40918
0.769445
0.478456
0.33424
0.255215
0.206713
0.173836
0.149876
0.131902
0.117936
0.107089
0.0984196
0.091434
0.0859382
0.0809907
0.0771816
0.0733269
0.0705676
0.0679102
0.0655903
0.0636341
0.0620683
0.0608139
0.0595297
0.0581169
0.056811
0.0556306
0.0548224
0.0542026
0.0537355
0.0530471
0.0523685
0.0513926
0.050377
0.0491954
0.0481182
0.0470642
0.0463948
0.0454155
0.0453857
0.0438816
0.045222
0.0448996
0.0474284
0.0549811
0.0656762
0.0560197
0.155397
0.240098
0.296299
0.448752
0.534561
21.8823
3.47852
1.4111
0.770123
0.479237
0.334772
0.255487
0.20673
0.173804
0.14982
0.131822
0.117688
0.106833
0.0979087
0.0910786
0.0852723
0.0807513
0.0768148
0.0735591
0.0705612
0.06774
0.0653777
0.063273
0.0611891
0.0597132
0.0582724
0.0570479
0.0557106
0.0544876
0.0531124
0.0519158
0.0506708
0.0495778
0.0484096
0.047452
0.0464752
0.0456325
0.0448662
0.044201
0.0434341
0.0427496
0.0423629
0.0409982
0.0412761
0.0424226
0.0452507
0.0457727
0.0546593
0.0593948
0.0937797
0.226915
0.495338
0.64176
0.711426
21.8823
3.48087
1.40987
0.76938
0.479136
0.335084
0.255832
0.20704
0.173986
0.149928
0.131752
0.117678
0.106752
0.098071
0.0911751
0.0857002
0.081002
0.0770394
0.0738456
0.070525
0.0679425
0.0655752
0.0631534
0.0612806
0.0594633
0.0578313
0.0563711
0.0548831
0.0534417
0.0521968
0.0509585
0.0500749
0.0490356
0.0482213
0.0473275
0.0464769
0.045674
0.0447853
0.0440356
0.0433093
0.0424439
0.0421549
0.0408527
0.0421297
0.0415522
0.0459895
0.0441021
0.0541918
0.0521072
0.191014
0.509534
1.00175
0.875014
0.748745
21.8824
3.47957
1.41102
0.770028
0.479422
0.335085
0.255865
0.207114
0.174069
0.150008
0.131876
0.117729
0.106784
0.0980293
0.0911822
0.0855341
0.0810052
0.0770877
0.0736912
0.0707621
0.0679516
0.0653954
0.0631131
0.0610762
0.0589476
0.0573828
0.0557547
0.0543831
0.0528707
0.0516676
0.0502772
0.0492239
0.048034
0.0471276
0.0460601
0.0453017
0.0443318
0.0437618
0.0429255
0.0424565
0.0415069
0.0408845
0.0398349
0.0396106
0.0385641
0.0398578
0.0375344
0.0456997
0.0494987
0.0852426
0.3658
0.495018
0.752527
0.83597
21.8824
3.47866
1.41066
0.770217
0.479309
0.334958
0.255851
0.207189
0.17415
0.150061
0.131794
0.117643
0.106626
0.0979406
0.0910685
0.0855716
0.0809636
0.0770814
0.073791
0.070682
0.0679535
0.0654845
0.0631572
0.0608384
0.0589382
0.0570614
0.055401
0.0538811
0.0523837
0.051083
0.0497571
0.0486551
0.0475525
0.046599
0.0457042
0.0448581
0.0440791
0.0433097
0.0426567
0.0419404
0.0413325
0.0409218
0.0399373
0.040728
0.0402153
0.0399016
0.0400771
0.0457717
0.0484241
0.310302
0.870056
0.925197
0.932651
0.957709
21.8822
3.47817
1.41072
0.769941
0.479311
0.334918
0.255744
0.207169
0.174249
0.150219
0.132047
0.117861
0.106838
0.0980633
0.0911757
0.0855295
0.0810157
0.0770908
0.0737611
0.0707165
0.0680043
0.0654386
0.0629855
0.0606407
0.0586171
0.056719
0.0549693
0.0533264
0.051816
0.0503693
0.0491023
0.0478334
0.0467152
0.0456283
0.0446773
0.0437334
0.0430396
0.0422151
0.0416537
0.040939
0.0402104
0.0394792
0.0384643
0.0377337
0.036268
0.0368111
0.0366838
0.0463204
0.0483137
0.0630138
0.0967163
0.259131
0.366929
0.461858
21.8823
3.47874
1.41038
0.770167
0.4794
0.335027
0.255855
0.207232
0.174173
0.150137
0.131823
0.1177
0.106555
0.0978551
0.0908525
0.0852573
0.080642
0.0767186
0.0734535
0.0704075
0.0677511
0.0652151
0.0628236
0.0605754
0.0584773
0.056619
0.05486
0.0533653
0.0518354
0.0505819
0.0492374
0.0481276
0.0469576
0.0459785
0.044984
0.0441404
0.0431704
0.0425232
0.041576
0.0410481
0.0403061
0.0396313
0.0389602
0.0374017
0.0369558
0.0368155
0.0364902
0.0451717
0.057448
0.0335597
0.194915
0.440347
0.666782
0.7081
21.8822
3.47905
1.41005
0.769916
0.479478
0.335083
0.255863
0.20717
0.174259
0.150227
0.13201
0.117712
0.106437
0.0974739
0.0904362
0.0847682
0.0803178
0.0765682
0.0734611
0.07051
0.0678917
0.0652637
0.0629731
0.060697
0.0586118
0.0565844
0.0547645
0.0529493
0.0513479
0.0497627
0.0484391
0.0470681
0.0459541
0.0447449
0.0437911
0.0427536
0.0418943
0.0410397
0.0403737
0.0395406
0.0387534
0.0380023
0.0363904
0.0365174
0.035745
0.0366676
0.0366731
0.06887
0.089857
0.110051
0.13404
0.316987
0.552198
0.591003
21.8824
3.47834
1.41052
0.770228
0.479692
0.335294
0.256008
0.20734
0.1743
0.150321
0.132122
0.11802
0.106962
0.0982048
0.091255
0.085617
0.0809809
0.0770911
0.0736992
0.0706961
0.0679949
0.0654114
0.0631037
0.0607412
0.0585884
0.0566089
0.0546727
0.0530167
0.0513247
0.0499705
0.048519
0.0473416
0.04607
0.0449853
0.0438926
0.0428879
0.0420074
0.0411294
0.0404611
0.0396914
0.0391125
0.0380635
0.0367972
0.0364164
0.036262
0.0373591
0.0343818
0.0632703
0.0603345
0.0748992
0.126304
0.557304
0.647139
0.852771
21.882
3.47822
1.40995
0.769844
0.479508
0.335194
0.255963
0.207316
0.174389
0.150479
0.132344
0.118269
0.107149
0.0983005
0.0912079
0.0854207
0.0807038
0.0767062
0.0732846
0.0701977
0.0674275
0.0648504
0.0624844
0.0602231
0.0581151
0.0561241
0.0541614
0.0524178
0.0506894
0.0491887
0.0477189
0.0464151
0.0451889
0.0440275
0.0430397
0.0420088
0.0411864
0.0402836
0.0394836
0.0389055
0.0377467
0.0377485
0.0356475
0.0386206
0.0374206
0.0420265
0.0346253
0.165118
0.265718
0.298254
0.436647
0.427203
0.760747
0.909173
21.8821
3.4786
1.40955
0.769627
0.479467
0.335263
0.256068
0.207421
0.174425
0.150499
0.132348
0.118292
0.107224
0.0984258
0.0914063
0.0856848
0.0810094
0.0770435
0.0736548
0.0705873
0.067873
0.0653375
0.0629555
0.0607089
0.0585279
0.0564959
0.0545083
0.052725
0.0509923
0.049456
0.0480076
0.0466795
0.0454394
0.0443007
0.0432313
0.0422597
0.0414059
0.0405061
0.0398851
0.0389845
0.0379954
0.0371497
0.0359637
0.0376395
0.0407835
0.0411057
0.041597
0.113803
0.100836
0.110196
0.168121
0.301564
0.836629
0.799797
21.8825
3.48014
1.41317
0.770684
0.479487
0.334871
0.255656
0.207904
0.176515
0.154205
0.13715
0.123532
0.112362
0.10316
0.0955037
0.0891197
0.0837047
0.0790989
0.075073
0.0715791
0.068423
0.0656947
0.0631043
0.0608698
0.0586609
0.0566602
0.0547832
0.0530114
0.051448
0.0498832
0.0485796
0.0471994
0.0461446
0.0447355
0.0435597
0.0420882
0.0409214
0.0398206
0.0388011
0.0385489
0.0372252
0.0396267
0.0388392
0.0444066
0.0488543
0.0474746
0.101844
0.349732
0.276912
0.244521
0.490713
0.871014
1.08656
1.20132
21.8838
3.47862
1.40851
0.768218
0.478746
0.335
0.256021
0.207444
0.174513
0.150769
0.132912
0.119236
0.108484
0.0999648
0.092982
0.0872456
0.0823467
0.0782155
0.0745591
0.0713791
0.0685289
0.0659156
0.063596
0.0612838
0.0592404
0.0571329
0.0553102
0.0534601
0.0517737
0.0502256
0.0486408
0.0473548
0.0459414
0.0446011
0.0431522
0.0417074
0.0404082
0.0392234
0.0381737
0.0374844
0.036257
0.0385423
0.0389636
0.0409577
0.0524208
0.0469165
0.0992099
0.191553
0.165149
0.123797
0.221361
0.305528
0.613036
0.839813
0.0110744
0.0114622
0.0117883
0.0121806
0.0125014
0.0128273
0.0131038
0.0133592
0.0136191
0.0138557
0.0141219
0.0143506
0.0146067
0.0148047
0.0150386
0.0151902
0.015398
0.0154933
0.0156717
0.0157577
0.0159299
0.0160322
0.016216
0.0163989
0.0165754