/*--------------------------------*- C++ -*----------------------------------*\
| =========                 |                                                 |
| \\      /  F ield         | OpenFOAM: The Open Source CFD Toolbox           |
|  \\    /   O peration     | Version:  4.1                                   |
|   \\  /    A nd           | Web:      www.OpenFOAM.org                      |
|    \\/     M anipulation  |                                                 |
\*---------------------------------------------------------------------------*/
FoamFile
{
    version     2.0;
    format      ascii;
    class       volScalarField;
    location    "19";
    object      p;
}
// * * * * * * * * * * * * * * * * * * * * * * * * * * * * * * * * * * * * * //

dimensions      [0 2 -2 0 0 0 0];

internalField   nonuniform List<scalar> 
4432
(
104907
104906
104903
104897
104889
104880
104871
104865
104861
104859
104859
104858
104855
104848
104835
104816
104782
104723
104661
104604
104737
104824
104507
104297
104328
104334
104099
103724
103352
103039
102813
102608
102851
103390
104073
104080
103407
103345
103332
103326
103411
103281
103297
103470
103802
104415
104266
103793
104236
106290
108440
101796
77779.2
65866.8
104906
104905
104902
104896
104888
104879
104870
104864
104860
104859
104858
104857
104854
104847
104835
104816
104780
104721
104646
104563
104585
104824
104816
104554
104281
104268
104134
103621
103158
102908
102837
102739
103057
103235
103348
103438
103489
103398
103228
103180
103267
103416
103601
103777
103970
104246
104348
103797
104258
106012
109164
103446
78107.1
64941.7
104902
104899
104895
104888
104878
104868
104858
104850
104845
104843
104844
104846
104848
104849
104851
104850
104841
104794
104704
104666
104695
104747
104653
104508
104268
103923
103485
103115
102851
102757
102864
102906
102879
102997
103074
103122
103172
103051
102863
102853
102955
103000
102998
103039
103198
103557
103658
103098
103166
104528
107071
101044
75290.2
85709.5
104901
104898
104894
104887
104877
104867
104857
104850
104845
104843
104844
104845
104847
104849
104850
104851
104843
104789
104699
104658
104698
104750
104663
104474
104197
103841
103471
103102
102824
102793
102860
102898
102944
103104
103267
103201
103114
102946
102820
102809
102950
103073
103130
103297
103540
103869
103943
103501
103973
105392
108031
102784
75864
85825.5
104897
104895
104891
104883
104873
104862
104851
104842
104835
104831
104829
104830
104835
104843
104857
104870
104889
104829
104716
104674
104719
104697
104564
104366
104114
103799
103416
103074
102866
102831
102830
102725
102734
103024
103072
103037
103039
102997
102931
102971
102996
103105
103114
103011
102744
102334
102119
101641
101727
101515
99458.2
96155.5
85654.8
95269.1
104896
104894
104889
104882
104872
104861
104850
104841
104834
104830
104829
104830
104835
104843
104857
104874
104896
104825
104691
104679
104714
104690
104580
104398
104129
103778
103377
103024
102830
102817
102782
102649
102631
102879
103091
103088
103035
102956
102915
102905
102993
103008
102960
102938
102869
102753
102333
101927
101988
102028
100410
98657.1
85500.6
93630.6
104890
104888
104884
104876
104865
104853
104841
104831
104823
104818
104816
104817
104822
104830
104844
104856
104864
104790
104649
104606
104651
104661
104608
104463
104260
103954
103556
103139
102866
102766
102695
102580
102605
102811
102846
102891
102807
102770
102732
102730
102631
102607
102530
102456
102206
101801
101731
101267
101503
102549
102724
98530
88627.3
88698.8
104889
104887
104883
104875
104864
104852
104841
104830
104823
104818
104816
104817
104822
104831
104845
104860
104862
104783
104633
104613
104647
104658
104611
104490
104272
103951
103533
103125
102871
102752
102653
102534
102494
102723
102857
102923
102895
102858
102864
102811
102673
102594
102583
102432
102176
101803
101329
101005
100892
102221
103113
99433.9
87701.6
87382.4
104881
104879
104875
104867
104856
104843
104830
104819
104810
104804
104801
104801
104803
104808
104814
104813
104799
104740
104590
104538
104582
104663
104661
104587
104457
104192
103871
103475
103138
102936
102844
102811
102778
102884
103065
102894
102663
102617
102527
102350
102347
101903
101786
101734
101803
102013
101826
101242
101105
102056
103375
100151
91519.8
97146.8
104881
104878
104874
104866
104855
104842
104829
104818
104810
104804
104801
104801
104803
104809
104815
104815
104798
104724
104597
104546
104602
104678
104671
104597
104461
104206
103854
103438
103127
102917
102818
102785
102775
102793
102828
102765
102718
102716
102664
102520
102172
101905
101964
101851
101648
101428
101132
100897
100950
102061
103627
100988
90964
95642.5
104871
104869
104865
104856
104844
104831
104818
104806
104796
104789
104784
104781
104780
104779
104777
104766
104739
104690
104604
104558
104588
104677
104712
104641
104587
104437
104223
103941
103585
103324
103134
103049
103062
103280
103311
102601
102470
102422
102348
102064
101608
101260
101431
101382
101358
101818
101716
101336
101134
101620
102270
98997.6
91635.3
95538.3
104871
104868
104864
104855
104843
104830
104817
104805
104796
104788
104784
104781
104780
104780
104777
104767
104741
104688
104607
104562
104599
104676
104702
104686
104590
104437
104217
103899
103581
103317
103124
103021
103032
102958
102788
102618
102501
102497
102454
102266
101780
101531
101511
101537
101531
101506
101336
101179
101229
101875
102575
99181.2
91573
96206.2
104860
104858
104853
104844
104832
104818
104804
104792
104781
104772
104765
104760
104755
104749
104741
104725
104698
104660
104616
104585
104611
104681
104709
104675
104590
104551
104483
104318
103977
103626
103342
103168
103158
103248
102680
102992
102175
102204
102280
102184
101835
101647
101662
101547
101336
101414
101409
101344
101276
101448
101479
98791.7
93169.5
93618.2
104860
104857
104852
104843
104831
104818
104804
104791
104780
104772
104765
104760
104755
104750
104742
104726
104699
104660
104610
104583
104616
104691
104698
104662
104620
104569
104471
104239
103947
103656
103364
103148
103042
102894
102619
102381
102196
102289
102369
102275
101990
101808
101740
101663
101612
101700
101589
101513
101610
101786
101696
98653
93022.3
94079.4
104848
104846
104841
104832
104819
104805
104790
104777
104765
104755
104746
104738
104730
104722
104710
104694
104670
104640
104607
104582
104595
104664
104725
104687
104491
104535
104540
104364
104080
103749
103456
103170
102933
102735
102414
102094
102090
102267
102452
102512
102314
102136
102103
101909
101502
101302
101326
101461
101529
101599
101580
99478.4
94328.7
96939.8
104847
104845
104840
104831
104818
104804
104790
104777
104765
104755
104746
104738
104731
104722
104711
104695
104671
104641
104605
104580
104593
104657
104701
104668
104584
104564
104484
104319
104065
103770
103470
103176
102915
102688
102401
102165
102120
102281
102487
102531
102365
102172
101986
101768
101667
101758
101758
101780
101805
101857
101777
99376.4
94010.2
97088.5
104835
104833
104828
104819
104806
104791
104776
104762
104750
104739
104728
104718
104708
104698
104686
104671
104652
104629
104605
104586
104585
104620
104674
104650
104499
104459
104400
104237
104012
103731
103447
103170
102908
102646
102367
102193
102214
102437
102712
102887
102907
102769
102636
102410
101901
101421
101300
101430
101603
101683
101264
99087.6
94497.8
97259
104835
104832
104827
104818
104805
104791
104776
104762
104750
104739
104728
104719
104709
104699
104687
104672
104654
104630
104605
104584
104582
104609
104657
104658
104552
104473
104376
104201
103985
103728
103454
103175
102908
102660
102388
102205
102244
102422
102667
102843
102870
102720
102407
102045
101775
101624
101629
101692
101815
101868
101546
99316.1
94116.3
96775.4
104822
104820
104815
104805
104792
104778
104763
104748
104735
104723
104712
104701
104690
104679
104668
104656
104642
104626
104610
104595
104587
104589
104602
104586
104458
104320
104212
104098
103944
103721
103463
103203
102954
102714
102486
102358
102399
102602
102869
103152
103397
103466
103321
103016
102441
101677
101115
100990
101136
101126
100550
98939.7
96113.3
98000.5
104822
104819
104814
104804
104792
104777
104762
104748
104735
104723
104712
104701
104690
104680
104669
104657
104644
104628
104611
104595
104586
104586
104592
104578
104483
104349
104243
104112
103932
103706
103458
103203
102954
102731
102518
102378
102426
102603
102856
103095
103264
103270
102999
102547
102095
101644
101312
101392
101696
101747
101290
99506.5
95268.3
96472.8
104809
104807
104801
104792
104779
104764
104749
104735
104721
104709
104697
104686
104674
104664
104654
104646
104637
104628
104619
104609
104598
104581
104567
104528
104394
104215
104086
103996
103883
103708
103488
103255
103027
102821
102646
102542
102574
102739
102978
103254
103542
103821
103875
103629
102927
102011
101162
100666
100484
100276
99737.5
98520.6
96355.2
92408.2
104808
104806
104800
104791
104778
104764
104749
104735
104721
104709
104697
104686
104675
104665
104656
104647
104639
104630
104620
104609
104598
104586
104566
104514
104397
104240
104121
104028
103896
103708
103486
103254
103031
102838
102676
102573
102611
102767
102988
103222
103430
103576
103514
103068
102416
101730
101158
100949
101064
101116
100743
99714.3
96398.4
91898.7
104796
104793
104788
104779
104766
104751
104736
104722
104709
104696
104684
104673
104662
104652
104645
104639
104636
104633
104631
104627
104623
104611
104581
104497
104317
104113
103996
103934
103852
103718
103540
103344
103150
102977
102839
102757
102768
102879
103055
103269
103510
103752
103977
103983
103403
102493
101557
100826
100324
99864.3
99219
98457.7
97012.9
93311.6
104795
104793
104787
104778
104765
104751
104736
104722
104709
104696
104685
104673
104663
104653
104646
104641
104637
104634
104632
104628
104623
104613
104582
104492
104315
104122
104013
103951
103864
103723
103541
103344
103153
102988
102858
102780
102793
102900
103064
103252
103439
103591
103647
103411
102807
102031
101294
100768
100517
100351
100102
100038
97893.4
96628
104783
104780
104775
104766
104753
104739
104725
104711
104698
104685
104673
104662
104652
104643
104637
104634
104635
104638
104642
104649
104658
104662
104637
104507
104201
103939
103902
103910
103876
103787
103655
103504
103353
103217
103111
103045
103037
103086
103178
103293
103425
103563
103664
103677
103342
102664
101882
101187
100630
100087
99358.3
98194.7
96813.7
92471.4
104782
104780
104774
104765
104753
104739
104724
104710
104697
104685
104674
104663
104652
104644
104639
104636
104636
104639
104643
104650
104660
104665
104642
104498
104186
103931
103900
103912
103877
103786
103653
103499
103347
103213
103111
103047
103039
103088
103176
103279
103385
103473
103484
103332
102914
102282
101596
100999
100544
100127
99548
98606.6
97231.6
92540.1
104770
104768
104762
104753
104741
104727
104713
104700
104687
104675
104664
104653
104643
104635
104630
104629
104632
104639
104650
104668
104699
104743
104786
104624
104070
103605
103780
103898
103929
103892
103815
103716
103611
103517
103444
103393
103366
103356
103351
103342
103338
103337
103308
103200
102927
102462
101893
101324
100789
100187
99360
97931.5
96078.4
91735.3
104769
104767
104762
104753
104741
104727
104713
104700
104687
104675
104664
104653
104644
104636
104632
104631
104633
104640
104650
104668
104700
104750
104801
104618
104035
103584
103768
103894
103930
103892
103814
103713
103607
103514
103443
103400
103377
103366
103362
103340
103320
103295
103227
103058
102730
102253
101706
101167
100657
100076
99258.1
97822.1
95925.9
91562.5
104758
104755
104750
104741
104730
104717
104703
104690
104678
104667
104655
104645
104635
104628
104623
104623
104626
104633
104645
104667
104714
104814
104963
105070
103163
103376
103806
104003
104067
104057
104014
103956
103893
103837
103796
103772
103738
103676
103571
103419
103274
103152
103025
102852
102592
102229
101792
101312
100789
100135
99209
97720.7
95592.6
91681.1
104757
104755
104750
104741
104729
104716
104703
104690
104678
104667
104656
104645
104636
104629
104625
104624
104627
104634
104646
104668
104711
104808
104953
104922
102980
103239
103807
104015
104082
104068
104023
103962
103898
103844
103816
103821
103783
103713
103607
103421
103256
103122
102983
102793
102514
102141
101701
101223
100695
100030
99082.8
97571.2
95407
91534.1
104746
104744
104739
104730
104719
104707
104694
104682
104670
104659
104648
104638
104628
104621
104615
104613
104615
104618
104625
104635
104656
104697
104892
105298
103289
103854
104100
104199
104215
104204
104183
104158
104136
104124
104124
104090
103989
103771
103474
103214
103007
102827
102636
102400
102103
101748
101333
100824
100134
99149.1
97634.6
95484.5
91717.7
104745
104743
104738
104730
104719
104706
104694
104682
104670
104659
104648
104638
104629
104621
104617
104615
104616
104619
104624
104634
104649
104683
104854
104433
103191
103870
104140
104242
104249
104230
104202
104172
104149
104147
104224
104178
104026
103818
103449
103182
102971
102791
102599
102361
102062
101705
101284
100764
100059
99052.3
97523.1
95286.4
91625.5
104735
104733
104728
104720
104709
104697
104685
104674
104663
104652
104641
104631
104621
104613
104607
104602
104599
104596
104590
104577
104545
104464
104245
103849
103254
103661
104118
104288
104307
104293
104284
104283
104284
104284
104276
104262
104202
104045
103749
103417
103118
102873
102677
102496
102292
102046
101754
101393
100897
100163
99096.8
97496.2
95523.6
91647.9
104735
104732
104728
104720
104709
104697
104685
104674
104663
104652
104642
104632
104622
104614
104607
104603
104600
104596
104590
104575
104540
104453
104216
103744
102933
103720
104172
104343
104358
104337
104320
104311
104304
104294
104276
104291
104245
104023
103677
103340
103068
102834
102639
102456
102255
102014
101724
101357
100853
100120
99065.2
97510.9
95365.3
91658.6
104725
104723
104718
104710
104700
104689
104678
104667
104656
104646
104635
104625
104615
104605
104597
104589
104581
104571
104552
104520
104462
104362
104216
104024
103865
103916
104159
104281
104304
104301
104296
104299
104305
104305
104288
104207
104033
103819
103480
103278
103035
102806
102610
102437
102254
102046
101810
101508
101033
100253
99074.1
97364.4
95591.6
91612.8
104724
104722
104718
104710
104700
104689
104677
104667
104656
104646
104636
104625
104615
104606
104598
104590
104582
104571
104552
104519
104459
104357
104206
104007
103843
103918
104169
104298
104329
104329
104324
104322
104321
104304
104260
104137
103842
103465
102054
102445
102824
102753
102579
102393
102207
102007
101776
101467
100990
100240
99131.7
97518.2
95559.6
91601.1
104715
104713
104709
104701
104692
104681
104671
104660
104650
104640
104630
104619
104608
104598
104587
104576
104564
104547
104521
104481
104423
104343
104251
104147
104049
104044
104141
104225
104259
104268
104276
104295
104324
104364
104371
104227
103682
102377
101868
102417
102868
102873
102701
102514
102308
102113
101946
101740
101321
100517
99240.7
97479.7
95700.2
91462
104715
104713
104708
104701
104692
104681
104670
104660
104650
104640
104630
104619
104609
104598
104588
104577
104564
104547
104520
104480
104421
104342
104249
104143
104039
104037
104135
104222
104262
104275
104286
104306
104333
104341
104336
104212
102783
99516.6
97291.4
99129.8
100776
102627
102702
102495
102275
102079
101902
101668
101243
100495
99314.5
97655.5
95914.2
91629.1
104706
104705
104700
104693
104684
104674
104664
104654
104645
104635
104625
104614
104602
104590
104578
104564
104548
104526
104497
104456
104402
104336
104263
104188
104122
104099
104127
104166
104188
104203
104229
104282
104348
104515
104586
103695
99776.5
94038
95313.7
98873.2
100376
102629
102959
102762
102480
102266
102167
102069
101710
100933
99668.9
98010.6
96093.5
91576.3
104706
104704
104700
104693
104684
104674
104664
104654
104645
104635
104625
104614
104603
104591
104578
104565
104548
104526
104496
104455
104401
104335
104262
104186
104118
104093
104120
104159
104184
104203
104234
104296
104382
104505
104447
103890
95805.4
90350.1
92022.1
95715.6
97654.1
101053
102937
102784
102509
102256
102106
101941
101581
100872
99672.7
98188.8
96475.8
91852.1
104698
104697
104693
104686
104678
104668
104659
104649
104640
104630
104620
104609
104597
104584
104569
104553
104534
104509
104477
104436
104385
104325
104260
104196
104140
104102
104089
104089
104090
104098
104129
104202
104276
104493
104037
96781
89495
88691.2
92613.5
96888.5
98807.7
102564
103445
103141
102744
102490
102420
102356
102005
101286
100202
98779.8
96812.1
96559.4
104698
104696
104692
104686
104677
104668
104659
104649
104640
104630
104620
104609
104597
104584
104569
104553
104534
104509
104477
104435
104384
104324
104259
104195
104137
104099
104085
104084
104086
104097
104136
104249
104403
104528
103995
95551.3
85596.9
85946.1
91259.9
94530.4
98518.4
102078
103500
103183
102802
102525
102361
102215
101897
101249
100175
99220.3
97377.7
93065.1
104691
104690
104686
104680
104671
104663
104654
104645
104636
104626
104616
104604
104592
104577
104561
104543
104521
104494
104461
104419
104368
104311
104250
104187
104128
104076
104034
104002
103976
103961
103961
103995
104046
103774
101637
85305.5
83566.5
87032.6
92793.5
96538.4
100945
104088
104059
103505
103014
102752
102680
102586
102205
101401
100191
98489.9
96856.4
99079
104691
104689
104686
104679
104671
104662
104654
104645
104636
104626
104616
104604
104592
104577
104561
104543
104521
104494
104460
104418
104367
104310
104248
104185
104126
104072
104030
103998
103972
103955
103949
103999
104262
103791
93683.3
80635.8
81443.2
86081.9
91692.5
97082.3
101702
103866
103973
103490
103059
102811
102667
102551
102241
101501
100348
99479.9
97890.1
98932.1
104685
104683
104680
104674
104666
104658
104649
104641
104632
104623
104612
104600
104587
104571
104554
104534
104510
104481
104446
104403
104352
104294
104231
104166
104098
104031
103967
103908
103852
103795
103729
103671
103587
102488
89128.8
78740.2
83684.5
89485.4
95022
99378.2
102282
104117
104407
103770
103326
103116
103038
102958
102636
101655
100283
97784.3
94497.8
94229.1
104685
104683
104680
104674
104666
104658
104649
104641
104632
104623
104612
104600
104587
104572
104554
104534
104510
104481
104445
104402
104351
104293
104230
104164
104096
104029
103965
103905
103849
103788
103713
103556
103385
98301.4
80525.9
77836.7
83994
89202.9
95135.6
99608.8
102319
104381
104134
103661
103318
103143
103093
103063
102780
101662
100040
98517.8
96930.8
99150.8
104679
104678
104674
104669
104662
104654
104645
104637
104629
104619
104609
104597
104582
104566
104548
104526
104500
104469
104432
104387
104335
104275
104209
104137
104060
103980
103896
103812
103723
103635
103472
103617
102971
81340.9
70443.1
78751.8
88067.4
93648.2
98880.4
102094
104166
104280
104061
103890
103617
103516
103433
103322
103115
102475
101944
99687.4
93860.4
95936.2
104679
104678
104674
104669
104661
104653
104645
104637
104629
104619
104609
104596
104582
104566
104548
104526
104500
104469
104431
104386
104333
104274
104207
104135
104058
103977
103894
103810
103723
103624
103506
103157
99139.4
89237.1
75161.6
82026.9
89648.8
94201.3
98945
98976.2
104100
104578
104020
103675
103516
103514
103525
103512
103336
102221
100846
98991.7
94956.1
93111
104675
104673
104670
104665
104658
104650
104642
104634
104626
104616
104606
104593
104579
104562
104542
104519
104491
104459
104419
104372
104318
104255
104184
104106
104019
103924
103823
103717
103597
103469
103246
102582
102841
82020.4
81453
89769.8
97157.2
101231
104387
104412
105126
104266
103795
103843
103774
103775
103607
103273
103075
102967
103221
100960
92956.6
95048.8
104675
104673
104670
104664
104657
104650
104642
104634
104626
104616
104606
104593
104578
104561
104542
104518
104491
104458
104418
104371
104316
104253
104182
104104
104016
103922
103821
103716
103597
103474
103328
102883
98509.4
81901.8
83598.4
91720.4
97889.1
101748
105388
105625
104715
104481
103825
103671
103640
103762
103719
103515
103260
102632
102203
100309
93521.5
96283
104671
104669
104666
104661
104654
104647
104639
104631
104623
104614
104603
104590
104575
104558
104537
104512
104484
104449
104408
104359
104301
104235
104160
104074
103978
103872
103754
103626
103485
103329
103206
103285
107834
112388
103898
105340
108393
108141
106390
105779
104733
103888
103573
103773
103850
103976
103527
102824
102547
101888
100388
96369.2
89548.4
94722.8
104671
104669
104666
104661
104654
104647
104639
104631
104623
104614
104603
104590
104575
104557
104537
104512
104483
104448
104407
104357
104299
104233
104158
104072
103976
103869
103752
103626
103482
103327
103151
103028
105151
100827
100803
105285
108355
108519
108217
105374
104464
103969
103632
103701
103746
104011
103623
102965
102441
101126
99439.6
95872.2
89650.3
94076.3
104668
104666
104663
104658
104652
104644
104637
104629
104621
104612
104601
104588
104572
104554
104533
104507
104477
104441
104398
104346
104286
104217
104137
104046
103942
103823
103693
103545
103386
103205
103041
102825
103216
106311
106588
108494
110420
109915
107489
105387
104049
103552
103589
103810
103964
104189
103803
103281
102963
101191
98174
93994.7
87249.1
96613.1
104667
104666
104663
104658
104651
104644
104637
104629
104621
104612
104601
104588
104572
104554
104532
104507
104476
104440
104396
104345
104285
104215
104135
104044
103939
103820
103691
103540
103369
103182
102980
102576
103005
103713
105853
109013
111001
109684
107278
104980
103893
103536
103626
103761
103872
104251
103908
103215
102598
100500
97956.5
93484.6
86901
96119.7
104665
104664
104661
104656
104650
104643
104635
104628
104620
104610
104599
104586
104570
104551
104529
104503
104471
104434
104389
104336
104274
104201
104118
104022
103912
103786
103645
103487
103314
103119
102908
102686
102311
102748
103974
106258
107952
108234
106315
104366
103434
103305
103644
103951
104038
104063
103495
103303
103364
102253
100872
95390.4
82024
91437.5
104665
104664
104661
104656
104649
104642
104635
104628
104619
104610
104599
104586
104570
104551
104529
104502
104470
104433
104388
104334
104272
104200
104116
104020
103909
103783
103643
103481
103306
103107
102889
102543
102250
102499
104314
106584
107804
107410
105920
104230
103272
103294
103655
103929
103995
104173
103871
103379
102926
101763
101240
96000.6
82447.8
91208.7
104664
104662
104659
104654
104648
104641
104634
104627
104619
104609
104598
104585
104568
104549
104527
104499
104467
104429
104382
104328
104264
104190
104104
104005
103890
103760
103614
103451
103272
103073
102854
102626
102326
102033
101742
101919
101194
100786
100219
100969
102079
102785
103301
104035
104277
104078
103690
103947
105244
107472
110974
105556
77581.8
83207.9
104664
104662
104659
104654
104648
104641
104634
104627
104619
104609
104598
104584
104568
104549
104526
104499
104466
104427
104381
104326
104262
104188
104102
104002
103888
103758
103612
103450
103269
103060
102844
102639
102316
102186
102268
102413
102687
101645
100758
101280
102203
102882
103436
104090
104318
104239
103966
103934
104706
106852
111136
105732
77308.9
82822.2
104662
104661
104658
104653
104647
104640
104633
104626
104618
104608
104597
104583
104567
104548
104524
104497
104464
104424
104377
104322
104257
104181
104094
103993
103876
103744
103596
103433
103253
103058
102846
102619
102322
101885
101324
100501
99340.3
98148.4
97894.2
98851.6
100294
102046
103363
103925
104234
104004
104506
105575
106804
111139
115780
108581
81552.5
65312
104662
104661
104658
104653
104647
104640
104633
104626
104618
104608
104597
104583
104567
104547
104524
104496
104463
104423
104376
104320
104255
104179
104092
103990
103874
103742
103594
103432
103252
103055
102849
102639
102368
101978
101437
100488
99323.9
98166.3
97754.5
98622.1
100136
102533
103405
103936
104256
104158
104219
105025
107127
111191
116165
109218
81911.9
65004.2
103821
105008
103662
105690
105164
103120
102909
102994
103075
102831
103720
104718
103615
104937
104825
102951
103112
103043
102790
102898
104927
103940
103145
103887
102844
103163
102933
103168
103232
102811
102966
104803
103835
102641
103894
102341
102882
102932
102613
102935
102205
103190
104413
104623
104408
104757
104401
104749
104386
103776
104050
103753
103697
103350
103682
103335
104400
104574
104334
104733
104418
104657
104290
103736
103984
103709
103708
103314
103579
103268
105133
104969
105134
105033
105333
105050
105347
102145
102870
103132
102894
101980
103567
103312
103550
103205
103452
103116
103426
105104
104876
105002
104994
105225
104914
105106
101705
102685
102933
102748
101852
103509
103270
103510
103070
103400
103122
103422
105033
104906
105087
104590
104456
104589
104461
102798
105255
104610
104551
103106
103025
103258
103567
103201
103530
103393
103629
103303
103598
104950
104793
104866
104553
104377
104530
104376
101974
104541
104247
102365
104200
102142
102745
103519
103224
103531
103336
103624
103387
103639
103520
103828
103423
103924
103694
103914
103663
103193
103084
103071
103523
103547
103473
103519
103270
103740
103255
103872
103603
103868
103599
103063
102931
103152
103418
103510
103414
103517
105138
104525
103766
104481
105213
105154
103748
104553
104487
104722
105707
105668
105662
105651
105807
105479
105622
105616
105220
105486
105527
104938
105372
103903
102230
103065
102672
102855
101997
102019
101871
102422
103069
103019
103022
102410
102106
102003
102383
102815
102888
102880
102331
105897
104568
103487
104247
104447
104761
103451
104029
104056
102161
105841
104957
105240
104703
105625
111811
102521
105468
106836
105001
104951
113124
105580
102572
101618
102862
102717
102651
101652
101732
101840
102097
102778
102794
102208
102780
101549
101738
102182
102857
102879
102854
102215
101926
102189
102550
105138
104451
104535
102500
101683
101725
102116
103255
103137
103246
102329
102013
103002
103054
102026
103167
103041
103104
103198
103092
103296
102915
102710
102922
102984
102915
102970
102756
102920
103222
103132
103132
103182
102798
102999
102857
102717
102970
100875
101561
102304
104822
104560
104424
102585
101265
100727
101703
102942
102394
102002
102789
101763
102329
102845
102788
102043
102338
102842
102856
102641
102833
100254
131126
102034
102921
102781
102887
101483
102490
102667
102302
102616
102558
101787
102302
102386
102502
99825.6
105355
104967
105064
105382
104940
105373
105385
105539
104878
104763
104963
104651
105075
104785
105352
105045
104884
105211
104926
105338
105253
102861
102953
103100
103062
102948
103064
102810
102787
103066
102813
102864
102935
102944
102646
104978
104771
104294
105754
104493
105113
105186
102363
102730
102954
102761
102744
102432
102717
102506
102936
102826
102847
102730
102827
102475
103309
104093
103558
103924
104057
103527
103383
103244
104023
103940
103462
104081
103244
103518
103047
103225
103198
103120
103090
103065
103208
102860
102894
103011
102845
102945
102756
102921
103298
103977
103480
103801
103349
103924
103417
103411
104116
103821
103552
103991
103435
103612
102678
102849
102731
103031
102683
102848
102801
102415
102885
103137
102906
102907
102823
102077
101845
102598
101155
102073
102585
101824
101064
101277
101828
101620
101430
101319
101680
101560
101350
101754
102008
102410
101020
102543
101010
101762
101848
102192
101706
101299
102163
101812
101271
101522
102076
101530
101650
101725
101811
102113
101112
101629
102115
101185
101540
100998
101385
101267
104104
103238
103595
102900
103377
103947
103664
104804
105507
105499
104881
104736
105275
105413
104561
104173
102950
103572
103787
103434
103731
104232
103137
103230
102546
100999
102022
103422
101287
102630
103123
101518
102568
101604
102526
102387
106802
103678
102744
102427
102058
101923
103334
102945
101034
103214
101563
102235
103967
104814
104363
105139
104821
103964
104314
103176
102473
102298
103276
103026
102309
102162
103102
104002
105167
104865
104464
104848
104335
104138
104139
104857
104392
105152
104020
104875
104510
103889
103933
103052
104724
103318
102404
103170
102504
104452
105069
104941
89076.3
104955
104381
104799
105955
105693
105904
105770
105740
105993
105867
106030
105892
105907
106002
105958
105707
105822
105853
105992
105813
105752
106056
105768
106056
105959
105517
105557
105368
105621
105506
105554
105523
105650
104866
104643
103721
104014
104284
105105
105363
105312
105547
105353
104527
104794
105131
105334
105531
104901
105338
105127
101822
102608
101325
102256
101892
102521
101272
101479
102644
101701
102074
101445
101717
101410
101796
101674
102160
102184
101199
101686
102310
101120
101983
101896
102814
102782
102590
102430
102830
102594
102778
103031
103195
103192
103068
103007
103117
102981
103132
102817
102386
102783
102595
102809
102596
102838
102166
102100
102625
102686
102348
102506
102634
102668
102460
102751
102867
102727
102876
102559
102354
102577
102419
102558
102421
102548
102825
103011
102876
102942
102615
103612
104643
103407
104050
102298
101330
102401
102784
101923
103396
103207
104434
104801
102873
104428
103997
102214
101520
100848
101223
101168
102853
103676
103810
104290
102619
103862
103214
100780
100898
100671
100816
102161
101214
101793
101510
102015
102844
102724
101724
103210
101926
101983
108658
106285
106281
106408
106184
103759
106260
125192
103128
106803
102886
106144
105190
105237
115852
105614
104363
104866
109237
111614
106445
109115
109495
104704
111351
105505
108615
106291
107983
105674
103706
105532
100133
102922
110887
105576
107892
107035
105462
113526
107155
106194
106290
106362
102216
115418
106123
106170
101452
102177
100845
101701
101589
102222
100622
100839
100262
101150
101427
100788
100898
100925
101024
101613
101764
102275
100938
102268
100871
102217
101789
101787
102577
102080
102477
102354
102463
102336
102593
102720
102829
102708
102816
102546
102118
102505
102395
102544
102456
102354
102755
102870
102785
102833
101606
101687
102716
102573
102414
102205
102621
102683
102444
102837
102889
102855
102861
102856
102904
102838
102872
102669
102155
102541
102501
102551
102456
102674
102028
102025
103511
102773
103439
102437
103647
102457
103373
103608
103615
103393
104041
103934
104862
104181
104502
103337
102448
102440