/*--------------------------------*- C++ -*----------------------------------*\
| =========                 |                                                 |
| \\      /  F ield         | OpenFOAM: The Open Source CFD Toolbox           |
|  \\    /   O peration     | Version:  4.1                                   |
|   \\  /    A nd           | Web:      www.OpenFOAM.org                      |
|    \\/     M anipulation  |                                                 |
\*---------------------------------------------------------------------------*/
FoamFile
{
    version     2.0;
    format      ascii;
    class       surfaceScalarField;
    location    "19";
    object      phi;
}
// * * * * * * * * * * * * * * * * * * * * * * * * * * * * * * * * * * * * * //

dimensions      [0 3 -1 0 0 0 0];

internalField   nonuniform List<scalar> 
11516
(
9.9745e+06
3174.88
29326
1.00271e+07
13406
36580.9
1.00577e+07
15822
60397.2
1.00603e+07
16856.8
92871.5
1.00312e+07
17896.6
129605
9.96588e+06
18900.1
171035
9.85967e+06
19855.6
217097
9.70814e+06
20798
267650
9.50854e+06
21813
321780
9.26077e+06
23097.1
377874
8.96956e+06
25113.8
432456
8.64583e+06
27626.8
480026
8.3091e+06
29409
511380
7.98627e+06
32738.8
515981
7.71486e+06
28303
489255
7.54588e+06
22369.3
434005
7.48338e+06
31169
378306
7.45062e+06
38670.5
300230
7.34574e+06
-4281.04
268021
7.45941e+06
21361.3
22417
7.65243e+06
-43147.9
-27991.5
7.69149e+06
-69096
50095.3
8.04671e+06
7005.6
-414522
9.1459e+06
163021
-1.25097e+06
1.09225e+07
214244
-1.92204e+06
1.299e+07
211521
-2.12456e+06
1.50338e+07
206495
-1.97057e+06
1.66657e+07
151211
-1.49703e+06
1.74125e+07
125088
-599779
1.69936e+07
43068
500771
1.57263e+07
3380.34
1.35546e+06
1.37993e+07
64224.8
1.89325e+06
1.11331e+07
196403
2.50019e+06
7.66897e+06
409360
3.28174e+06
3.89574e+06
416861
4.38142e+06
1.33964e+06
-919574
4.58033e+06
253883
-1.10776e+06
3.49658e+06
57085.2
-1.01518e+06
2.67791e+06
-776373
54241.9
1.98849e+06
-1.23258e+06
1.01621e+06
438110
-406993
1.56524e+06
-1.53813e+06
228877
2.22174e+06
-1.62679e+06
379562
2.96901e+06
-996084
-149207
3.26994e+06
-228768
193561
1.48291e+06
1.08325e+06
1.04e+06
-1.01656e+06
2.59173e+06
2.37126e+06
-2.59575e+06
4.13265e+06
3.79094e+06
-3.53229e+06
5.1274e+06
4.83356e+06
-3.11863e+06
5.17501e+06
1.40641e+06
-2.83986e+06
7.53884e+06
6.66178e+06
-4.3631e+06
-1.50423e+06
2.28141e+07
-6.14196e+06
-1.29258e+07
3.10429e+07
1.11475e+06
-8.97658e+06
4.7199e+06
-1.76902e+07
9.97822e+06
29367.3
1.00263e+07
36325
1.00559e+07
60286.8
1.00578e+07
92660.2
1.00282e+07
129143
9.96256e+06
170156
9.85628e+06
215589
9.70513e+06
265317
9.50664e+06
318337
9.2608e+06
373307
8.97337e+06
426324
8.65408e+06
472327
8.31905e+06
503210
7.99637e+06
510263
7.71568e+06
489371
7.53982e+06
434230
7.46926e+06
368422
7.44049e+06
256054
7.40269e+06
201618
7.58067e+06
-76285.1
7.79275e+06
-226104
7.80495e+06
-85789.3
7.99732e+06
-189294
8.97958e+06
-818921
1.08106e+07
-1.57405e+06
1.30283e+07
-1.91173e+06
1.52043e+07
-1.89097e+06
1.69258e+07
-1.50318e+06
1.76956e+07
-641237
1.73869e+07
367420
1.6164e+07
1.2199e+06
1.43817e+07
1.92961e+06
1.21041e+07
2.65424e+06
9.54057e+06
3.26784e+06
7.2792e+06
3.05703e+06
5.22299e+06
1.86103e+06
2.78895e+06
2.2017e+06
306894
2.28542e+06
-919196
1.89165e+06
-1.96378e+06
2.54421e+06
-2.90067e+06
3.01601e+06
-2.57268e+06
2.82706e+06
-2.4736e+06
4.49485e+06
-288212
3.13399e+06
2.05918e+06
695459
4.24999e+06
-1.83563e+06
7.38388e+06
-4.20407e+06
7.76491e+06
-2.28493e+06
6.22801e+06
-309258
1.54768e+06
2.6398e+06
-4.35323e+06
-470511
-739487
-9.61121e+06
3.8307e+06
-2.93273e+06
-6.4823e+06
1.00085e+07
3218.44
29386.4
1.00988e+07
13401.8
34784
1.02027e+07
15883.3
46223.2
1.03153e+07
16773.1
73042.5
1.04374e+07
17587.9
103448
1.05682e+07
18302
138714
1.07058e+07
18894.3
179566
1.08471e+07
19432.4
227416
1.09867e+07
19982.2
284114
1.11192e+07
20711.7
349429
1.1237e+07
22072.1
423197
1.13322e+07
23878.5
501759
1.13939e+07
26718.8
580177
1.14246e+07
28830.9
640475
1.13824e+07
40423.7
706089
1.13177e+07
37931.6
717526
1.12756e+07
40153.3
722406
1.08902e+07
30434.7
797867
1.02847e+07
30708.2
892614
9.52896e+06
28338.6
761629
8.91106e+06
35221.3
557335
8.82655e+06
27076.4
123830
9.27817e+06
-12811.1
-840570
1.01319e+07
-20823.7
-2.0817e+06
1.1191e+07
6228.26
-3.0135e+06
1.23728e+07
25918.3
-3.41145e+06
1.35325e+07
55050.6
-3.34219e+06
1.4487e+07
85405
-2.71789e+06
1.51059e+07
131079
-1.47465e+06
1.52928e+07
73922.6
210137
1.49735e+07
-18706.4
1.74525e+06
1.40852e+07
18045
2.84708e+06
1.27601e+07
23385.4
3.86095e+06
1.09172e+07
45445.9
5.06986e+06
8.32122e+06
88648
6.74551e+06
4.20546e+06
240965
8.46156e+06
640319
-207614
7.50529e+06
-226551
-1.40286e+06
5.50537e+06
-270377
-417733
3.05306e+06
-360161
938045
-17932.6
688524
757597
-2.93675e+06
1.63886e+06
1.34379e+06
-3.3932e+06
2.31387e+06
1.66573e+06
-2.85002e+06
3.22757e+06
779329
-1.61553e+06
4.70511e+06
-518231
166594
5.67604e+06
-1.81452e+06
3.62763e+06
7.20129e+06
-2.72735e+06
5.85203e+06
8.25179e+06
-2.7656e+06
7.65422e+06
5.39737e+06
-2.91643e+06
1.19433e+07
2.14628e+06
-3.31578e+06
1.54107e+07
-7.47944e+06
-5.00949e+06
1.418e+07
-1.98508e+07
-2.91837e+06
4.26295e+06
-1.89628e+07
-522330
-6.79864e+06
668052
-7.97375e+06
1.00127e+07
29341
1.00988e+07
34435
1.02021e+07
45759.1
1.03145e+07
72563.6
1.04363e+07
102995
1.05667e+07
138275
1.07037e+07
179115
1.08442e+07
226891
1.0983e+07
283356
1.11147e+07
348483
1.12324e+07
421374
1.13266e+07
499817
1.13914e+07
575069
1.14221e+07
639907
1.14249e+07
697011
1.1411e+07
711451
1.13059e+07
728631
1.09324e+07
744245
1.03422e+07
850550
9.59982e+06
705612
8.95054e+06
461790
8.82042e+06
71264.5
9.31731e+06
-698664
1.02279e+07
-1.7561e+06
1.13208e+07
-2.6957e+06
1.25667e+07
-3.23659e+06
1.3927e+07
-3.35985e+06
1.512e+07
-2.77866e+06
1.61007e+07
-1.60321e+06
1.67028e+07
-170226
1.66366e+07
1.35193e+06
1.58855e+07
2.77413e+06
1.46267e+07
4.00647e+06
1.28737e+07
5.10362e+06
1.04418e+07
5.61334e+06
7.28936e+06
5.32328e+06
3.76644e+06
5.67944e+06
-1.21691e+06
6.0998e+06
-3.61018e+06
4.20271e+06
-3.59825e+06
3.97698e+06
-2.42043e+06
3.10087e+06
-1.50636e+06
4.01638e+06
663710
4.46961e+06
4.11064e+06
589971
7.37859e+06
-3.09312e+06
1.08829e+07
-7.03904e+06
1.36431e+07
-9.411e+06
1.52112e+07
-6.18427e+06
1.50988e+07
-2.57356e+06
7.04195e+06
7.93427e+06
-1.39607e+07
1.59805e+07
-3.03152e+07
5.24781e+06
-2.39915e+07
-8.99352e+06
-2.2871e+06
9.99522e+06
3196.08
40375.8
1.00685e+07
13092
47643.1
1.01394e+07
15487.9
62651.8
1.02044e+07
16276.9
98482.7
1.02643e+07
16998
137399
1.03197e+07
17572.8
180010
1.03721e+07
17977.5
225689
1.04231e+07
18237.1
275898
1.04771e+07
18466.1
330265
1.05383e+07
18731.7
389864
1.06128e+07
19627.3
453817
1.07053e+07
20961
522129
1.08172e+07
22918.2
596309
1.09471e+07
26284
665950
1.11096e+07
39239.3
757065
1.13131e+07
46562.7
802638
1.14618e+07
52720.8
853056
1.10832e+07
20509.8
1.23219e+06
1.03601e+07
28159.5
1.60395e+06
9.50776e+06
18411
1.58831e+06
8.82987e+06
22486.5
1.21043e+06
8.60007e+06
15824.1
347261
8.77647e+06
-25133.4
-955246
9.12096e+06
-63180.1
-2.33971e+06
9.52798e+06
-57734.1
-3.3909e+06
1.01071e+07
-20937.9
-4.10543e+06
1.07531e+07
66496
-4.29117e+06
1.10318e+07
153131
-3.38528e+06
1.08427e+07
229361
-1.65864e+06
1.04937e+07
114477
445093
9.93952e+06
49182.4
2.3403e+06
9.11377e+06
158641
3.60015e+06
8.27471e+06
218949
4.55363e+06
7.56407e+06
126679
5.69457e+06
7.32257e+06
-78145.2
7.02337e+06
5.44113e+06
869030
9.43737e+06
2.20538e+06
998820
9.79897e+06
1.01593e+06
-444609
7.40006e+06
644277
-1.02078e+06
4.80428e+06
812350
-621306
869966
1.19738e+06
191066
-3.27459e+06
1.88447e+06
349486
-4.17177e+06
3.39287e+06
338467
-4.77229e+06
5.56062e+06
399249
-4.60496e+06
7.65555e+06
-26444.2
-2.69139e+06
1.01041e+07
-386998
942194
1.30206e+07
6876.07
2.52038e+06
9.84807e+06
368760
1.04365e+07
5.14319e+06
-412701
1.75666e+07
9.30868e+06
-3.73958e+06
1.59272e+07
1.73188e+07
-4.56097e+06
1.12449e+07
2.17526e+07
-7.57798e+06
8.99336e+06
1.83397e+07
-5.12686e+06
4.0795e+06
4.65091e+06
-8.58821e+06
9.99929e+06
40281.3
1.0068e+07
47250.4
1.0138e+07
62286.4
1.02025e+07
98059.4
1.0262e+07
136900
1.0317e+07
179421
1.03689e+07
224990
1.04195e+07
275042
1.04732e+07
329207
1.05344e+07
388556
1.06091e+07
452171
1.07016e+07
520783
1.08139e+07
591615
1.09485e+07
665436
1.11117e+07
755683
1.1308e+07
808986
1.14569e+07
845514
1.10983e+07
1.18517e+06
1.04155e+07
1.57125e+06
9.58729e+06
1.54766e+06
8.89911e+06
1.1695e+06
8.63876e+06
359979
8.79097e+06
-852337
9.14381e+06
-2.15883e+06
9.58569e+06
-3.23684e+06
1.02449e+07
-4.03183e+06
1.10232e+07
-4.2379e+06
1.15976e+07
-3.34574e+06
1.1849e+07
-1.6759e+06
1.1685e+07
167186
1.11883e+07
1.98175e+06
1.07483e+07
3.46247e+06
1.04316e+07
4.65269e+06
9.88855e+06
5.88751e+06
8.6975e+06
6.77823e+06
7.27618e+06
7.65392e+06
5.57444e+06
8.44853e+06
2.71039e+06
8.71789e+06
-128759
6.53794e+06
-1.75119e+06
5.78797e+06
-1.45213e+06
3.45751e+06
271509
2.95394e+06
3.20981e+06
1.74537e+06
6.57733e+06
-2.72263e+06
9.98659e+06
-6.87397e+06
1.32222e+07
-1.0933e+07
1.63477e+07
-1.26522e+07
2.0224e+07
-9.70793e+06
1.90601e+07
-1.4669e+06
1.52275e+07
8.48053e+06
1.54903e+07
1.18838e+07
7.65007e+06
6.24777e+06
-3.94319e+06
-1.45766e+06
-3.01388e+06
9.99552e+06
3154.32
51090.2
1.00683e+07
12636
58879.4
1.01397e+07
15033.8
76745.7
1.02053e+07
15846.2
121189
1.02646e+07
16534.7
169349
1.03167e+07
17048.4
221376
1.03599e+07
17351.4
277062
1.03937e+07
17448.6
336601
1.04175e+07
17427.6
400460
1.0432e+07
17365.2
469267
1.04394e+07
17725.1
542761
1.04433e+07
18780.6
621541
1.04532e+07
19656
705932
1.04821e+07
26365.9
792296
1.05608e+07
34666
890043
1.07065e+07
48833
956884
1.09101e+07
43453.4
906630
1.09491e+07
39098.2
1.26573e+06
1.04317e+07
26219.5
2.10284e+06
9.66461e+06
19901.2
2.32228e+06
8.97271e+06
21474.7
1.87717e+06
8.53848e+06
3674.98
819087
8.2435e+06
-54217.4
-541599
7.93106e+06
-68075.1
-1.89312e+06
7.63443e+06
-60415.2
-3.01322e+06
7.47275e+06
-23389.5
-3.96667e+06
7.21055e+06
76628.4
-4.19198e+06
6.44905e+06
133208
-2.8198e+06
5.2247e+06
146345
-582305
3.84031e+06
176833
1.69668e+06
2.70434e+06
193223
3.33681e+06
2.03753e+06
206379
4.11476e+06
1.91362e+06
267654
4.48357e+06
2.523e+06
289845
4.86752e+06
3.6925e+06
263697
5.64745e+06
4.26283e+06
1.0505e+06
7.86613e+06
2.80598e+06
1.13639e+06
1.03004e+07
1.98763e+06
-236921
9.02297e+06
1.54289e+06
-221100
6.04236e+06
2.21053e+06
-370612
1.03249e+06
2.44653e+06
355852
-3.74843e+06
2.94935e+06
197430
-4.83686e+06
4.11653e+06
606859
-6.89067e+06
5.95751e+06
770868
-8.12535e+06
8.98823e+06
476406
-7.2507e+06
1.30612e+07
645405
-5.04914e+06
1.13475e+07
1.89039e+06
1.73222e+06
4.16748e+06
1.66911e+06
1.57662e+07
1.72364e+06
679423
1.98774e+07
8.09249e+06
-2.75599e+06
1.3674e+07
2.15978e+07
-3.07317e+06
2.88732e+06
3.48742e+07
-5.51444e+06
2.45848e+06
3.78015e+07
-2.9347e+06
4.95784e+06
43518.9
-1.25606e+07
9.9994e+06
51112.8
1.0068e+07
58662.3
1.01384e+07
76241.8
1.02035e+07
120552
1.02623e+07
168600
1.03139e+07
220494
1.03566e+07
276035
1.03899e+07
335422
1.04132e+07
399124
1.04276e+07
467753
1.04351e+07
541135
1.04403e+07
619835
1.04495e+07
703127
1.04827e+07
789250
1.0575e+07
888519
1.07184e+07
956750
1.09046e+07
895547
1.0916e+07
1.2751e+06
1.04993e+07
2.01771e+06
9.78182e+06
2.27738e+06
9.10125e+06
1.8771e+06
8.61533e+06
884079
8.22732e+06
-464860
7.84918e+06
-1.82371e+06
7.52493e+06
-2.97682e+06
7.33781e+06
-3.91106e+06
7.04317e+06
-3.91289e+06
6.35675e+06
-2.54343e+06
5.33114e+06
-485730
4.14767e+06
1.56993e+06
3.20409e+06
3.15748e+06
2.8515e+06
4.06951e+06
3.18863e+06
4.66304e+06
4.1079e+06
5.33686e+06
5.04017e+06
6.14903e+06
6.23565e+06
7.65108e+06
6.36575e+06
9.68245e+06
5.03408e+06
1.01974e+07
2.87465e+06
9.17773e+06
1.29898e+06
7.65993e+06
1.9075e+06
3.38735e+06
2.69496e+06
2.39752e+06
4.61966e+06
138449
7.60298e+06
-5.35113e+06
1.00588e+07
-9.28943e+06
1.17772e+07
-1.2321e+07
1.39182e+07
-1.32587e+07
1.61908e+07
-1.05581e+07
1.16304e+07
4.31454e+06
1.2266e+07
6.30276e+06
1.53872e+07
6.03102e+06
2.52894e+07
-7.83754e+06
2.3739e+07
-2.50547e+06
-6.6514e+06
9.99654e+06
3093.97
61225.5
1.00686e+07
12480.8
68545.9
1.01396e+07
14765.8
88226
1.02059e+07
15467.6
139770
1.02672e+07
16076.7
195323
1.03225e+07
16505.1
254945
1.03707e+07
16715.1
318156
1.04106e+07
16713.7
385243
1.04406e+07
16579
457700
1.04603e+07
16381
536269
1.04691e+07
16515.8
621984
1.04676e+07
17263
716294
1.0461e+07
18235.7
819775
1.04565e+07
23476.4
932611
1.04813e+07
33565.9
1.04472e+06
1.05142e+07
43634.6
1.15642e+06
1.04797e+07
56835.2
1.15789e+06
1.06661e+07
45406.7
1.17211e+06
1.07869e+07
173.969
1.98847e+06
1.03637e+07
35732
2.69165e+06
9.68551e+06
26678.5
2.53054e+06
9.01662e+06
-22999.4
1.54711e+06
8.2239e+06
-74252.1
387258
7.21617e+06
-76671.9
-764096
6.1187e+06
-79619.3
-1.82058e+06
4.98628e+06
-49875.4
-2.79194e+06
3.70889e+06
44028.8
-2.95939e+06
2.1946e+06
89921.5
-1.39477e+06
687722
65133.7
865265
-517561
76196
2.83867e+06
-1.20779e+06
81064.5
3.96108e+06
-1.42198e+06
81063.1
4.27096e+06
-1.24832e+06
125443
4.20673e+06
-722447
247340
4.11017e+06
493287
314525
4.10648e+06
3.21195e+06
1.37193e+06
3.88645e+06
3.31563e+06
795619
9.90404e+06
4.01886e+06
-356856
9.80973e+06
5.06255e+06
-749822
7.18838e+06
3.9903e+06
561800
2.1675e+06
3.28563e+06
357231
-3.27814e+06
3.80145e+06
-201287
-5.09133e+06
5.58985e+06
366149
-9.32995e+06
6.92824e+06
617668
-1.0547e+07
8.76579e+06
232368
-1.00554e+07
1.02393e+07
26901.8
-7.13648e+06
3.80249e+06
805975
6.90468e+06
-1.71753e+06
1.99856e+06
1.88805e+07
963177
393903
1.71137e+07
1.27619e+07
-3.41372e+06
8.07334e+06
2.23751e+07
-8.73112e+06
5.66564e+06
3.24469e+07
-6.78921e+06
324594
3.51592e+07
1.58589e+06
619782
4.8074e+06
-4.73064e+06
1.00005e+07
61054.8
1.0068e+07
67875.7
1.01381e+07
87518.4
1.02039e+07
138900
1.02648e+07
194255
1.03196e+07
253676
1.03672e+07
316686
1.04066e+07
383587
1.04363e+07
455865
1.04557e+07
534264
1.04645e+07
619766
1.04641e+07
713617
1.04567e+07
816742
1.04564e+07
925268
1.04926e+07
1.03354e+06
1.05183e+07
1.1454e+06
1.04842e+07
1.13079e+06
1.06472e+07
1.21592e+06
1.08204e+07
1.84343e+06
1.05183e+07
2.6069e+06
9.91872e+06
2.51839e+06
9.15038e+06
1.66359e+06
8.16852e+06
460743
7.03118e+06
-749479
5.82274e+06
-1.8482e+06
4.57004e+06
-2.70906e+06
3.27942e+06
-2.57806e+06
1.93166e+06
-1.10336e+06
641710
872126
-413196
2.70506e+06
-1.00094e+06
3.83543e+06
-1.09065e+06
4.25555e+06
-695750
4.40497e+06
141648
4.73398e+06
1.98195e+06
4.6006e+06
5.06583e+06
6.04393e+06
6.31431e+06
9.48242e+06
6.07855e+06
1.05989e+07
4.92731e+06
1.02452e+07
4.41776e+06
9.32576e+06
4.15035e+06
4.18048e+06
3.82545e+06
2.61451e+06
5.74858e+06
-1.54902e+06
8.04678e+06
-7.29701e+06
9.38674e+06
-1.06445e+07
9.53106e+06
-1.27406e+07
8.86118e+06
-1.23417e+07
8.37311e+06
-8.4766e+06
6.01331e+06
7.3525e+06
5.62261e+06
3.88955e+06
-339184
3.94413e+06
-1.00395e+07
-4.51999e+06
-5.99841e+06
-4.53044e+06
-2.36809e+06
9.99828e+06
2997.38
69060.9
1.00677e+07
11745.5
76647.6
1.01376e+07
13963.6
96979.6
1.02039e+07
14634.5
153836
1.02664e+07
15132.8
214926
1.03238e+07
15436.3
280516
1.03753e+07
15513.6
349214
1.04197e+07
15388.2
421905
1.04565e+07
15125.5
500151
1.04857e+07
14798.6
584772
1.05073e+07
14666.2
677761
1.05223e+07
14954.5
779834
1.05339e+07
15531.2
892732
1.05409e+07
17186.7
1.01566e+06
1.05502e+07
25712.9
1.14021e+06
1.05502e+07
25876.1
1.27325e+06
1.04176e+07
31954.1
1.40341e+06
1.03463e+07
-24272.1
1.34674e+06
1.06936e+07
-60138.1
1.70642e+06
1.09129e+07
29663.9
2.42294e+06
1.06268e+07
54275.4
2.74681e+06
9.81643e+06
-5390.55
2.34374e+06
8.6756e+06
-75099.9
1.59681e+06
7.28995e+06
-95388.8
713331
5.66627e+06
-116882
-74770.2
3.84846e+06
-70635
-873191
2.07871e+06
17365.2
-1.20332e+06
594248
68236.1
18087.9
-538696
22677.6
1.9602e+06
-1.2818e+06
7032.45
3.56117e+06
-1.66378e+06
17142.8
4.32012e+06
-1.82004e+06
32030.4
4.39208e+06
-1.90909e+06
78693.4
4.20631e+06
-2.08022e+06
327422
3.92305e+06
-3.12375e+06
2.39471e+06
2.67244e+06
471057
510463
-146169
5.71608e+06
633469
4.43911e+06
5.51608e+06
230879
1.10705e+07
7.28385e+06
-96882.3
7.5581e+06
5.73665e+06
1.10527e+06
3.98697e+06
4.28372e+06
-266115
-1.30936e+06
4.87049e+06
-294642
-5.098e+06
6.42602e+06
55419.2
-1.08464e+07
7.05763e+06
486038
-1.16832e+07
7.58912e+06
-317723
-1.05535e+07
5.62752e+06
-1.0864e+06
-4.44596e+06
138573
-357245
1.21684e+07
-2.08633e+06
1.37324e+06
1.91268e+07
1.08259e+06
-151363
1.40921e+07
6.4495e+06
-3.17845e+06
6.59732e+06
1.81952e+07
-7.38377e+06
2.31687e+06
2.71744e+07
-5.12744e+06
-3.04449e+06
3.15311e+07
3.12955e+06
-6.04804e+06
-276215
-5.96074e+06
1.00019e+07
69087.3
1.00674e+07
76290.5
1.01363e+07
96230.5
1.02021e+07
152885
1.02641e+07
213807
1.03209e+07
279216
1.03718e+07
347738
1.04158e+07
420277
1.04522e+07
498391
1.04811e+07
582914
1.05025e+07
675730
1.05181e+07
777516
1.05289e+07
890072
1.0538e+07
1.01059e+06
1.05552e+07
1.12906e+06
1.05515e+07
1.26915e+06
1.04119e+07
1.37589e+06
1.0209e+07
1.42185e+06
1.032e+07
1.66606e+06
1.06876e+07
2.25766e+06
1.06107e+07
2.62785e+06
9.93343e+06
2.30168e+06
8.67543e+06
1.62409e+06
7.01468e+06
812840
5.20567e+06
-150415
3.34765e+06
-916480
1.76092e+06
-970542
456274
262840
-546670
1.88532e+06
-1.22293e+06
3.38006e+06
-1.56509e+06
4.19288e+06
-1.66135e+06
4.38167e+06
-1.57369e+06
4.38073e+06
-1.11493e+06
4.51278e+06
2.56703e+06
3.07065e+06
6.03648e+06
3.15188e+06
6.68879e+06
9.83936e+06
6.50427e+06
1.15419e+07
6.4187e+06
1.08699e+07
6.60735e+06
1.06681e+07
5.28625e+06
5.62417e+06
5.0064e+06
2.81181e+06
6.88782e+06
-3.37038e+06
8.91439e+06
-8.87729e+06
9.43745e+06
-1.15571e+07
8.09833e+06
-1.28164e+07
5.65229e+06
-1.08968e+07
4.19759e+06
-6.12498e+06
6.07904e+06
5.26571e+06
7.67501e+06
-326820
3.17244e+06
1.74831e+06
-7.38215e+06
1.47764e+06
-4.23057e+06
-5.13415e+06
-1.58615e+06
9.99924e+06
2897.75
76543
1.00674e+07
11481.7
82887.2
1.01359e+07
13581.1
103279
1.02017e+07
14122.7
164126
1.02647e+07
14534.6
229257
1.03236e+07
14752.3
299253
1.03778e+07
14753.1
371822
1.04263e+07
14566.4
448391
1.04688e+07
14248.7
530223
1.0505e+07
13869.9
619001
1.05363e+07
13551.2
715075
1.0563e+07
13574.8
820215
1.0587e+07
13490.3
934962
1.06091e+07
13854.1
1.05947e+06
1.06207e+07
17587.8
1.18709e+06
1.06171e+07
13964.8
1.32126e+06
1.05516e+07
9937.49
1.49472e+06
1.03146e+07
-7035.74
1.59662e+06
1.02692e+07
917.214
1.72423e+06
1.055e+07
11016.6
2.06727e+06
1.06743e+07
49836.7
2.47729e+06
1.02337e+07
-46095.1
2.73535e+06
9.32992e+06
-136715
2.57653e+06
7.95686e+06
-60370.7
2.13216e+06
6.15781e+06
-85508.1
1.82078e+06
4.14165e+06
-106884
1.25507e+06
2.27749e+06
10213.8
665072
1.00165e+06
135734
1.14234e+06
153740
73582.7
2.71098e+06
-361319
-5029.1
4.06515e+06
-636126
-10647.2
4.59924e+06
-821129
19492
4.55095e+06
-1.12649e+06
98144.8
4.4055e+06
-2.15713e+06
489432
4.42869e+06
-3.97839e+06
959409
3.26729e+06
-4.03377e+06
-21492.1
-70944.6
1.15283e+06
1.03446e+06
-3.03164e+06
5.00396e+06
389250
7.84732e+06
7.21369e+06
353429
6.5128e+06
7.33099e+06
670435
4.21045e+06
6.16215e+06
-495299
923927
6.6036e+06
-937468
-4.13299e+06
5.96288e+06
51691
-9.90237e+06
5.25327e+06
1.25146e+06
-1.20587e+07
5.94802e+06
-22886.3
-1.04736e+07
2.26518e+06
-921076
46166.7
-516517
-756227
1.53393e+07
-1.17621e+06
829878
1.85311e+07
793762
-914528
1.26932e+07
3.65051e+06
-2.88555e+06
6.48674e+06
1.05659e+07
-3.24905e+06
-1.3098e+06
1.56346e+07
121330
-8.41351e+06
1.67399e+07
229173
-8.84041e+06
-1.6937e+06
-6.68903e+06
1.0003e+07
76307
1.00669e+07
82015.3
1.01344e+07
102343
1.01997e+07
163002
1.02623e+07
227916
1.03206e+07
297703
1.03743e+07
370070
1.04223e+07
446446
1.04645e+07
528075
1.05003e+07
616608
1.05312e+07
712269
1.0558e+07
816704
1.05818e+07
930578
1.06017e+07
1.05306e+06
1.06148e+07
1.17536e+06
1.06108e+07
1.31534e+06
1.05266e+07
1.48021e+06
1.03301e+07
1.60012e+06
1.02389e+07
1.72142e+06
1.04314e+07
2.01421e+06
1.06087e+07
2.42155e+06
1.01537e+07
2.6317e+06
8.91906e+06
2.67251e+06
7.49621e+06
2.16623e+06
5.6487e+06
1.61063e+06
3.61124e+06
1.02073e+06
2.03678e+06
611484
934537
1.48861e+06
173488
2.70408e+06
-298403
3.83471e+06
-556161
4.43106e+06
-675105
4.5129e+06
-696644
4.47884e+06
-965470
5.04648e+06
-1.80936e+06
4.66943e+06
944146
367212
5.54049e+06
6.4965e+06
6.52211e+06
1.12335e+07
6.93869e+06
1.11047e+07
8.33879e+06
1.0339e+07
7.36314e+06
6.52091e+06
7.09957e+06
2.44068e+06
7.9554e+06
-3.95623e+06
1.00475e+07
-9.58158e+06
1.03352e+07
-1.1865e+07
7.85185e+06
-1.1431e+07
4.59174e+06
-8.81053e+06
4.03234e+06
-5.09509e+06
7.35119e+06
964168
8.63391e+06
-4.41963e+06
1.30635e+07
-6.08712e+06
1.85777e+07
-5.1751e+06
2.33986e+07
-1.10404e+07
-1.15492e+07
1.00013e+07
2762.82
81227.4
1.0066e+07
10538.5
87367.4
1.01323e+07
12523.4
106873
1.01973e+07
13037.7
170047
1.02603e+07
13342.4
237729
1.03205e+07
13442
310230
1.03772e+07
13320
384737
1.04293e+07
13004.4
463396
1.04768e+07
12529
546527
1.052e+07
11917.2
635571
1.05587e+07
11171.3
731366
1.05931e+07
10445
834528
1.06232e+07
9354.07
944940
1.06494e+07
8040.8
1.06366e+06
1.06626e+07
7875.5
1.18657e+06
1.06635e+07
6816.67
1.31593e+06
1.06465e+07
1201.92
1.48005e+06
1.0534e+07
-3582.66
1.65456e+06
1.03876e+07
4178.11
1.77844e+06
1.0413e+07
2981.52
1.93408e+06
1.05326e+07
6672.28
2.23622e+06
1.04438e+07
-29946.1
2.74926e+06
9.89266e+06
-87022.5
3.13941e+06
8.83857e+06
-63836.8
3.22082e+06
7.43687e+06
-92722.4
3.30297e+06
5.83977e+06
-131986
2.98507e+06
4.19129e+06
-18324
2.313e+06
2.82276e+06
158341
2.28632e+06
1.81978e+06
108064
3.50703e+06
1.18201e+06
18.7048
4.60962e+06
940894
-12449.3
4.80855e+06
880723
-11869
4.60574e+06
964007
13193.9
4.29803e+06
622025
258091
4.35388e+06
-850386
622949
3.85321e+06
-915877
-697763
-1.14962e+06
6.46914e+06
666592
-1.50909e+07
4.62927e+06
938284
8.82394e+06
5.315e+06
466691
5.69457e+06
5.95907e+06
290652
3.845e+06
6.44052e+06
-391872
1.35911e+06
7.47533e+06
-1.28363e+06
-3.24354e+06
6.00756e+06
49005
-7.87389e+06
3.79198e+06
2.48147e+06
-1.12221e+07
3.67426e+06
1.37465e+06
-1.10096e+07
806190
-22911.5
2.96178e+06
-684393
56480.6
1.65838e+07
-102187
778526
1.68846e+07
3.14097e+06
-857382
9.98795e+06
8.13249e+06
-3.18058e+06
3.94663e+06
6.36121e+06
-1.51195e+06
352209
-2.19541e+06
2.33105e+06
-4.83942e+06
-2.15944e+06
-6.20823e+06
-5.45345e+06
-280407
-835971
1.00047e+07
81261.9
1.00658e+07
86949.7
1.01311e+07
106002
1.01955e+07
168943
1.0258e+07
236446
1.03176e+07
308765
1.03738e+07
383103
1.04253e+07
461616
1.04723e+07
544616
1.05151e+07
633524
1.05531e+07
729116
1.05868e+07
831833
1.06164e+07
941805
1.06399e+07
1.05965e+06
1.06535e+07
1.17946e+06
1.06591e+07
1.30854e+06
1.0638e+07
1.47428e+06
1.05403e+07
1.64631e+06
1.04231e+07
1.77767e+06
1.04505e+07
1.91046e+06
1.05776e+07
2.21879e+06
1.03766e+07
2.7304e+06
9.66004e+06
3.24621e+06
8.6008e+06
3.13175e+06
7.07339e+06
3.02383e+06
5.32619e+06
2.62644e+06
3.69748e+06
2.1794e+06
2.55471e+06
2.74622e+06
1.82205e+06
3.50566e+06
1.33417e+06
4.27329e+06
1.05958e+06
4.64466e+06
977889
4.54881e+06
1.03311e+06
4.36879e+06
1.35128e+06
4.77413e+06
2.17921e+06
4.19492e+06
3.37284e+06
-1.97371e+06
4.84029e+06
5.62958e+06
6.28739e+06
1.07256e+07
7.26797e+06
1.06554e+07
8.8377e+06
9.19474e+06
9.1678e+06
6.17791e+06
8.74937e+06
2.03172e+06
8.73657e+06
-3.51514e+06
1.08829e+07
-8.98252e+06
1.2161e+07
-1.15858e+07
1.0648e+07
-9.95369e+06
8.99568e+06
-7.24429e+06
1.03688e+07
-5.79471e+06
1.50515e+07
-4.81992e+06
1.44214e+07
-7.69815e+06
1.36382e+07
-8.63256e+06
1.47636e+07
-6.24342e+06
-8.45228e+06
4.25965e+06
339048
1.00022e+07
2638.91
85812.3
1.00653e+07
10240.8
90162.8
1.01293e+07
12121.3
108609
1.01928e+07
12518
173013
1.02552e+07
12759.4
241947
1.03158e+07
12799.6
315594
1.03738e+07
12627.9
390827
1.04287e+07
12271.3
469638
1.04801e+07
11746.6
552639
1.05281e+07
11047.8
640463
1.05724e+07
10122.2
733791
1.06117e+07
8976
833599
1.06445e+07
7459.71
938771
1.06708e+07
5259.52
1.04965e+06
1.06867e+07
3640.72
1.16516e+06
1.06906e+07
2226.98
1.28312e+06
1.06981e+07
-2927.53
1.42155e+06
1.06892e+07
-9677.87
1.59579e+06
1.06187e+07
-6465.33
1.75839e+06
1.05497e+07
-3351.98
1.88299e+06
1.0609e+07
-8536.64
2.05449e+06
1.0736e+07
1489.88
2.50019e+06
1.0592e+07
10872.7
3.16724e+06
1.01153e+07
-110742
3.70518e+06
9.37352e+06
-207661
4.1912e+06
8.42617e+06
-231674
4.13586e+06
6.96679e+06
-133299
3.79849e+06
4.89088e+06
270909
3.85418e+06
3.4983e+06
324455
4.28899e+06
2.98794e+06
40349.8
4.81537e+06
2.79747e+06
-72668.7
4.91033e+06
2.79014e+06
-101199
4.61447e+06
3.07518e+06
-83845.1
4.02294e+06
3.75676e+06
-144236
3.581e+06
4.38441e+06
-124446
2.77221e+06
3.2343e+06
206559
-1.39388e+06
-4.9704e+06
-2.54228e+06
-6.40871e+06
384580
-224543
2.90852e+06
2.08347e+06
208064
3.34723e+06
3.36973e+06
143414
2.43418e+06
5.93991e+06
-692880
8520.72
8.23875e+06
-1.40735e+06
-3.19898e+06
7.52339e+06
22548.7
-6.04903e+06
4.65665e+06
2.90351e+06
-1.03608e+07
3.17322e+06
3.05347e+06
-1.10415e+07
799822
1.32624e+06
4.25042e+06
289800
1.09902e+06
1.59791e+07
920421
636337
1.54474e+07
2.89228e+06
-1.6696e+06
9.15944e+06
6.39141e+06
-4.92629e+06
4.00344e+06
5.28422e+06
-4.60897e+06
4.10187e+06
-1.00862e+07
1.59548e+06
5.95063e+06
-2.36613e+07
4.69389e+06
1.8278e+06
-312793
-1.11966e+06
1.00057e+07
85530.9
1.00648e+07
89199.7
1.01279e+07
107562
1.01908e+07
171766
1.02527e+07
240482
1.03128e+07
313930
1.03703e+07
388979
1.04248e+07
467617
1.04757e+07
550441
1.05231e+07
638048
1.05666e+07
731081
1.06048e+07
830362
1.06367e+07
934980
1.06613e+07
1.04533e+06
1.06752e+07
1.15912e+06
1.06827e+07
1.27545e+06
1.0693e+07
1.41729e+06
1.06768e+07
1.59441e+06
1.0616e+07
1.75772e+06
1.0576e+07
1.85901e+06
1.06748e+07
2.01669e+06
1.08343e+07
2.4763e+06
1.07727e+07
3.23189e+06
9.96749e+06
3.7263e+06
8.77753e+06
3.91876e+06
7.20337e+06
3.88734e+06
5.30206e+06
3.79743e+06
4.31943e+06
3.88269e+06
3.89097e+06
4.15081e+06
3.50789e+06
4.56732e+06
3.18603e+06
4.75742e+06
3.01959e+06
4.50154e+06
3.11503e+06
4.01347e+06
3.53729e+06
3.95505e+06
3.64404e+06
3.46739e+06
2.85482e+06
-1.83439e+06
2.29315e+06
3.14029e+06
4.36734e+06
8.02797e+06
6.18172e+06
8.75888e+06
7.91346e+06
7.60823e+06
8.95875e+06
4.88218e+06
9.27113e+06
1.04704e+06
9.53788e+06
-3.03678e+06
1.13994e+07
-7.40204e+06
1.35962e+07
-1.03848e+07
1.39239e+07
-8.82927e+06
1.44158e+07
-6.65974e+06
1.46054e+07
-5.55601e+06
1.31255e+07
-5.64279e+06
4.16176e+06
-4.91638e+06
-6.40684e+06
-4.33263e+06
-1.22591e+07
113574
-9.22427e+06
5.3412e+06
-869330
1.00045e+07
2477.27
87370.1
1.00633e+07
9205.48
91411.5
1.01244e+07
10930.2
108070
1.01859e+07
11302.8
172274
1.02473e+07
11446.8
241136
1.03077e+07
11386.2
314551
1.03666e+07
11109.7
389057
1.04232e+07
10641.3
466575
1.04774e+07
9979.51
547550
1.05287e+07
9076.65
632366
1.05762e+07
7843.89
721519
1.06184e+07
6185.94
815735
1.06527e+07
4109.25
914399
1.06779e+07
1397.43
1.01744e+06
1.06934e+07
-1160.31
1.12483e+06
1.06986e+07
-2944.17
1.23483e+06
1.0709e+07
-5316.1
1.35282e+06
1.07377e+07
-10553.8
1.49742e+06
1.07474e+07
-12578.5
1.65977e+06
1.07077e+07
-9282.93
1.80562e+06
1.07142e+07
-15486.5
1.90931e+06
1.08872e+07
-15371
2.17185e+06
1.11703e+07
6090.4
2.72585e+06
1.1243e+07
-13500.7
3.47953e+06
1.11536e+07
-160059
4.30715e+06
1.06597e+07
-251343
4.7655e+06
9.46532e+06
-244822
5.06475e+06
7.98158e+06
-40264.9
5.20849e+06
6.60225e+06
323198
5.17384e+06
5.67156e+06
389155
5.16341e+06
5.1942e+06
155913
5.00691e+06
5.0272e+06
-83165.2
4.6296e+06
5.03077e+06
-201522
3.96393e+06
5.29729e+06
-367808
3.2729e+06
5.40751e+06
-523572
2.52707e+06
2.15856e+06
-149380
664009
-3.51071e+06
-1.3481e+06
-1.09375e+06
-2.15194e+06
-827159
992351
235438
-775708
1.01324e+06
3.46174e+06
-812729
84038.1
7.01342e+06
-1.06521e+06
-1.74748e+06
9.92452e+06
-1.12976e+06
-3.65758e+06
1.00983e+07
-180542
-4.62336e+06
6.6817e+06
2.6042e+06
-7.92477e+06
3.32928e+06
4.32323e+06
-1.01566e+07
2.10161e+06
2.74495e+06
3.01334e+06
2.7094e+06
2.11093e+06
1.3126e+07
3.83815e+06
307755
1.36531e+07
4.29694e+06
-2.74541e+06
1.06441e+07
5.46719e+06
-6.36623e+06
7.93524e+06
8.49593e+06
-5.15616e+06
4.83354e+06
9.93793e+06
-1.16112e+06
5.46498e+06
1.13154e+06
6.12339e+06
3.32156e+06
3.2625e+06
1.01264e+07
1.00075e+07
87410.7
1.00631e+07
90982.9
1.01233e+07
107159
1.01842e+07
171105
1.02451e+07
239783
1.0305e+07
313019
1.03632e+07
387367
1.04194e+07
464756
1.0473e+07
545627
1.05236e+07
630348
1.05701e+07
719389
1.0611e+07
813414
1.06441e+07
911792
1.0668e+07
1.01475e+06
1.06818e+07
1.12167e+06
1.06883e+07
1.23008e+06
1.07039e+07
1.34817e+06
1.07311e+07
1.49722e+06
1.07373e+07
1.66671e+06
1.06952e+07
1.79987e+06
1.07066e+07
1.87772e+06
1.0954e+07
2.10079e+06
1.13849e+07
2.67781e+06
1.14617e+07
3.52838e+06
1.08216e+07
4.29251e+06
9.5018e+06
4.84691e+06
7.72134e+06
5.22537e+06
6.2708e+06
5.18065e+06
5.63491e+06
4.98811e+06
5.54406e+06
4.90946e+06
5.49947e+06
4.80765e+06
5.25442e+06
4.48356e+06
4.97477e+06
3.87549e+06
4.80014e+06
3.45295e+06
4.03477e+06
3.20034e+06
558521
646711
-401855
1.99514e+06
1.37093e+06
4.82937e+06
3.43129e+06
5.58815e+06
5.69048e+06
4.67311e+06
7.92052e+06
2.23882e+06
9.72587e+06
-942540
1.09118e+07
-3.48556e+06
1.25284e+07
-5.75417e+06
1.50527e+07
-8.18555e+06
1.65978e+07
-7.48013e+06
1.79766e+07
-5.965e+06
1.6977e+07
-4.55084e+06
9.25951e+06
-1.4663e+06
-4.2164e+06
1.01208e+06
-1.284e+07
-1.54371e+06
-1.21425e+07
-2.48305e+06
-607947
453705
706791
1.00052e+07
2338.86
89155
1.00621e+07
8916.12
91317
1.01202e+07
10554.6
106416
1.01794e+07
10826.9
169628
1.0239e+07
10928.7
237454
1.02984e+07
10831.3
309641
1.03568e+07
10529.1
382697
1.0414e+07
10042.6
457871
1.04695e+07
9361.68
535847
1.05222e+07
8420.37
617362
1.05709e+07
7108.07
702354
1.06138e+07
5300.37
791053
1.06479e+07
3003.51
883828
1.06718e+07
227.194
979919
1.06857e+07
-2636.13
1.08052e+06
1.06917e+07
-4694.12
1.18391e+06
1.06981e+07
-6020.21
1.28991e+06
1.07271e+07
-8705.77
1.40625e+06
1.07767e+07
-11570.2
1.53942e+06
1.08172e+07
-12715.9
1.68023e+06
1.08118e+07
-7517.97
1.79991e+06
1.1076e+07
-57471.9
1.83775e+06
1.1669e+07
-41759.3
2.07477e+06
1.21649e+07
36280.8
2.85329e+06
1.24697e+07
8199.79
3.91274e+06
1.23144e+07
-93127.6
4.92864e+06
1.1763e+07
-190934
5.7169e+06
1.10498e+07
-253746
6.07969e+06
1.01966e+07
-115866
6.04048e+06
9.30988e+06
142339
5.79635e+06
8.49534e+06
263279
5.42954e+06