/*--------------------------------*- C++ -*----------------------------------*\
| =========                 |                                                 |
| \\      /  F ield         | OpenFOAM: The Open Source CFD Toolbox           |
|  \\    /   O peration     | Version:  4.1                                   |
|   \\  /    A nd           | Web:      www.OpenFOAM.org                      |
|    \\/     M anipulation  |                                                 |
\*---------------------------------------------------------------------------*/
FoamFile
{
    version     2.0;
    format      ascii;
    class       volScalarField;
    location    "53";
    object      p;
}
// * * * * * * * * * * * * * * * * * * * * * * * * * * * * * * * * * * * * * //

dimensions      [0 2 -2 0 0 0 0];

internalField   nonuniform List<scalar> 
4432
(
-3.92399e+10
-4.08609e+10
-4.17408e+10
-4.02306e+10
-3.99827e+10
-4.03491e+10
-4.02432e+10
-4.01389e+10
-4.00697e+10
-4.00417e+10
-4.00184e+10
-3.99773e+10
-3.99093e+10
-3.98202e+10
-3.97301e+10
-3.96401e+10
-3.95293e+10
-3.93944e+10
-3.92379e+10
-3.90629e+10
-3.88693e+10
-3.86613e+10
-3.84432e+10
-3.82204e+10
-3.79979e+10
-3.77798e+10
-3.75687e+10
-3.7366e+10
-3.71712e+10
-3.6983e+10
-3.67998e+10
-3.66214e+10
-3.64498e+10
-3.62892e+10
-3.61464e+10
-3.6031e+10
-3.5953e+10
-3.59188e+10
-3.59273e+10
-3.59668e+10
-3.60133e+10
-3.60308e+10
-3.59796e+10
-3.58342e+10
-3.56122e+10
-3.53791e+10
-3.51774e+10
-3.48994e+10
-3.43799e+10
-3.42169e+10
-3.69916e+10
-4.5256e+10
-5.15222e+10
-2.58612e+10
-3.97967e+10
-4.04025e+10
-4.09158e+10
-4.06881e+10
-4.00823e+10
-4.02506e+10
-4.02337e+10
-4.01189e+10
-4.00495e+10
-4.00379e+10
-4.00246e+10
-3.9981e+10
-3.99071e+10
-3.98183e+10
-3.97315e+10
-3.96425e+10
-3.95301e+10
-3.93935e+10
-3.92374e+10
-3.90621e+10
-3.88678e+10
-3.86587e+10
-3.84393e+10
-3.8215e+10
-3.79908e+10
-3.7771e+10
-3.75584e+10
-3.73545e+10
-3.71589e+10
-3.69704e+10
-3.67874e+10
-3.66096e+10
-3.64386e+10
-3.62788e+10
-3.61373e+10
-3.60231e+10
-3.59453e+10
-3.59101e+10
-3.59155e+10
-3.59492e+10
-3.59861e+10
-3.59893e+10
-3.59179e+10
-3.57452e+10
-3.54865e+10
-3.5202e+10
-3.4922e+10
-3.45082e+10
-3.37284e+10
-3.30953e+10
-3.52999e+10
-4.40384e+10
-5.30017e+10
-3.2093e+10
-4.01346e+10
-4.025e+10
-4.04646e+10
-4.07785e+10
-4.02335e+10
-4.01375e+10
-4.02331e+10
-4.01427e+10
-4.00721e+10
-4.00625e+10
-4.00502e+10
-4.00276e+10
-3.9975e+10
-3.98876e+10
-3.97902e+10
-3.97003e+10
-3.95979e+10
-3.94658e+10
-3.93094e+10
-3.91299e+10
-3.89298e+10
-3.87124e+10
-3.84831e+10
-3.82482e+10
-3.80135e+10
-3.77846e+10
-3.75645e+10
-3.73553e+10
-3.71567e+10
-3.69679e+10
-3.67868e+10
-3.66133e+10
-3.64499e+10
-3.62994e+10
-3.61662e+10
-3.60588e+10
-3.59857e+10
-3.59525e+10
-3.59575e+10
-3.59882e+10
-3.60189e+10
-3.60126e+10
-3.59291e+10
-3.57416e+10
-3.54658e+10
-3.51627e+10
-3.48475e+10
-3.4338e+10
-3.3408e+10
-3.28349e+10
-3.58372e+10
-4.547e+10
-5.3955e+10
-3.49518e+10
-4.01351e+10
-4.0426e+10
-4.06518e+10
-4.05775e+10
-4.02091e+10
-4.0148e+10
-4.02355e+10
-4.01264e+10
-4.00687e+10
-4.00607e+10
-4.00558e+10
-4.00332e+10
-3.99758e+10
-3.98852e+10
-3.97905e+10
-3.97067e+10
-3.96038e+10
-3.94686e+10
-3.93126e+10
-3.91335e+10
-3.89335e+10
-3.8716e+10
-3.84863e+10
-3.82507e+10
-3.8015e+10
-3.77848e+10
-3.75631e+10
-3.73523e+10
-3.71521e+10
-3.69618e+10
-3.67797e+10
-3.66047e+10
-3.64382e+10
-3.62835e+10
-3.61466e+10
-3.60351e+10
-3.59567e+10
-3.59168e+10
-3.59131e+10
-3.59324e+10
-3.59492e+10
-3.59267e+10
-3.58246e+10
-3.56171e+10
-3.53193e+10
-3.49886e+10
-3.4635e+10
-3.40638e+10
-3.30241e+10
-3.24092e+10
-3.61122e+10
-4.77338e+10
-5.47219e+10
-2.70946e+10
-4.08155e+10
-4.05903e+10
-4.01495e+10
-4.06528e+10
-4.03782e+10
-4.01509e+10
-4.00989e+10
-4.00561e+10
-4.00363e+10
-4.00393e+10
-4.00377e+10
-4.00319e+10
-3.99918e+10
-3.9912e+10
-3.98214e+10
-3.97342e+10
-3.96339e+10
-3.95066e+10
-3.93556e+10
-3.91788e+10
-3.89781e+10
-3.87566e+10
-3.85196e+10
-3.82738e+10
-3.8026e+10
-3.77824e+10
-3.7547e+10
-3.73224e+10
-3.71097e+10
-3.69092e+10
-3.67187e+10
-3.65355e+10
-3.63599e+10
-3.61979e+10
-3.60565e+10
-3.59419e+10
-3.58616e+10
-3.58193e+10
-3.58124e+10
-3.58273e+10
-3.58389e+10
-3.58139e+10
-3.57193e+10
-3.55407e+10
-3.53088e+10
-3.5095e+10
-3.4907e+10
-3.45226e+10
-3.36475e+10
-3.30709e+10
-3.61048e+10
-4.58469e+10
-5.32515e+10
-2.72174e+10
-4.05407e+10
-4.06979e+10
-4.05687e+10
-4.03156e+10
-4.02759e+10
-4.02094e+10
-4.01415e+10
-4.00592e+10
-4.00479e+10
-4.00461e+10
-4.00421e+10
-4.00297e+10
-3.99864e+10
-3.99062e+10
-3.98159e+10
-3.97333e+10
-3.96317e+10
-3.95017e+10
-3.93494e+10
-3.91721e+10
-3.89711e+10
-3.87494e+10
-3.85123e+10
-3.82665e+10
-3.80188e+10
-3.77753e+10
-3.75401e+10
-3.73156e+10
-3.7103e+10
-3.69023e+10
-3.67116e+10
-3.65293e+10
-3.63558e+10
-3.61948e+10
-3.60526e+10
-3.59368e+10
-3.58543e+10
-3.58091e+10
-3.57986e+10
-3.58092e+10
-3.58149e+10
-3.57809e+10
-3.56721e+10
-3.54694e+10
-3.51947e+10
-3.49054e+10
-3.45873e+10
-3.39792e+10
-3.27428e+10
-3.17132e+10
-3.45264e+10
-4.48158e+10
-5.3963e+10
-3.1542e+10
-4.04228e+10
-4.05531e+10
-4.04084e+10
-4.0298e+10
-4.03497e+10
-4.02738e+10
-4.01794e+10
-4.01055e+10
-4.00837e+10
-4.00843e+10
-4.00855e+10
-4.00852e+10
-4.00568e+10
-3.99961e+10
-3.99237e+10
-3.98462e+10
-3.97481e+10
-3.96231e+10
-3.94726e+10
-3.92942e+10
-3.90878e+10
-3.88557e+10
-3.86036e+10
-3.83395e+10
-3.80724e+10
-3.78099e+10
-3.75578e+10
-3.73199e+10
-3.70983e+10
-3.68936e+10
-3.67028e+10
-3.65194e+10
-3.63413e+10
-3.61814e+10
-3.60498e+10
-3.59417e+10
-3.58655e+10
-3.58266e+10
-3.58185e+10
-3.58253e+10
-3.58204e+10
-3.5771e+10
-3.56475e+10
-3.54415e+10
-3.51911e+10
-3.49721e+10
-3.47942e+10
-3.44328e+10
-3.35518e+10
-3.27932e+10
-3.53758e+10
-4.50807e+10
-5.46798e+10
-3.28684e+10
-4.05047e+10
-4.0481e+10
-4.02887e+10
-4.01227e+10
-4.03036e+10
-4.03406e+10
-4.02098e+10
-4.01086e+10
-4.009e+10
-4.00843e+10
-4.0084e+10
-4.00785e+10
-4.00472e+10
-3.99881e+10
-3.99188e+10
-3.98426e+10
-3.97425e+10
-3.96161e+10
-3.94645e+10
-3.92853e+10
-3.90781e+10
-3.88454e+10
-3.85928e+10
-3.83286e+10
-3.80618e+10
-3.78003e+10
-3.75497e+10
-3.73134e+10
-3.70928e+10
-3.68882e+10
-3.66975e+10
-3.65179e+10
-3.63492e+10
-3.61953e+10
-3.60624e+10
-3.59588e+10
-3.58894e+10
-3.58559e+10
-3.58548e+10
-3.58696e+10
-3.58724e+10
-3.58289e+10
-3.57069e+10
-3.5493e+10
-3.5216e+10
-3.49385e+10
-3.46497e+10
-3.40894e+10
-3.29163e+10
-3.20233e+10
-3.53889e+10
-4.68382e+10
-5.50871e+10
-2.80212e+10
-4.02186e+10
-4.02347e+10
-4.02311e+10
-4.00877e+10
-4.01655e+10
-4.01694e+10
-4.01189e+10
-4.00658e+10
-4.00565e+10
-4.00756e+10
-4.0089e+10
-4.00813e+10
-4.00557e+10
-4.0011e+10
-3.99578e+10
-3.9891e+10
-3.97994e+10
-3.96802e+10
-3.95319e+10
-3.93522e+10
-3.91388e+10
-3.88926e+10
-3.86193e+10
-3.83284e+10
-3.8032e+10
-3.7741e+10
-3.74634e+10
-3.72041e+10
-3.6965e+10
-3.67455e+10
-3.65419e+10
-3.63487e+10
-3.61648e+10
-3.5999e+10
-3.58596e+10
-3.57489e+10
-3.56716e+10
-3.56299e+10
-3.5617e+10
-3.56158e+10
-3.55987e+10
-3.5531e+10
-3.53812e+10
-3.51396e+10
-3.4841e+10
-3.45551e+10
-3.42872e+10
-3.38078e+10
-3.2727e+10
-3.14739e+10
-3.30412e+10
-4.2128e+10
-5.44763e+10
-3.64416e+10
-4.03592e+10
-4.02394e+10
-4.00665e+10
-3.99791e+10
-4.01526e+10
-4.02025e+10
-4.01449e+10
-4.00855e+10
-4.0063e+10
-4.0069e+10
-4.00824e+10
-4.00809e+10
-4.00574e+10
-4.00158e+10
-3.99655e+10
-3.99001e+10
-3.98085e+10
-3.96888e+10
-3.95402e+10
-3.93597e+10
-3.91454e+10
-3.88983e+10
-3.86238e+10
-3.83322e+10
-3.80359e+10
-3.77459e+10
-3.74702e+10
-3.72131e+10
-3.69756e+10
-3.67566e+10
-3.65541e+10
-3.63649e+10
-3.61875e+10
-3.60257e+10
-3.58864e+10
-3.57764e+10
-3.57012e+10
-3.56616e+10
-3.56515e+10
-3.56539e+10
-3.56409e+10
-3.55774e+10
-3.5431e+10
-3.51912e+10
-3.4891e+10
-3.45981e+10
-3.43144e+10
-3.38003e+10
-3.27007e+10
-3.17783e+10
-3.48007e+10
-4.598e+10
-5.56525e+10
-3.06457e+10
-4.02154e+10
-4.01359e+10
-4.00808e+10
-4.00349e+10
-4.00923e+10
-4.01226e+10
-4.01076e+10
-4.00772e+10
-4.00737e+10
-4.01113e+10
-4.01561e+10
-4.01652e+10
-4.01535e+10
-4.0131e+10
-4.00975e+10
-4.00431e+10
-3.99606e+10
-3.98467e+10
-3.96999e+10
-3.95161e+10
-3.92912e+10
-3.90231e+10
-3.87168e+10
-3.83865e+10
-3.80503e+10
-3.77256e+10
-3.74238e+10
-3.715e+10
-3.69041e+10
-3.66825e+10
-3.64802e+10
-3.62931e+10
-3.61212e+10
-3.5967e+10
-3.58344e+10
-3.57301e+10
-3.56597e+10
-3.56242e+10
-3.56165e+10
-3.56199e+10
-3.56074e+10
-3.55447e+10
-3.5401e+10
-3.51669e+10
-3.48758e+10
-3.45972e+10
-3.4347e+10
-3.39173e+10
-3.2944e+10
-3.19157e+10
-3.38881e+10
-4.30863e+10
-5.29525e+10
-2.93958e+10
-4.02394e+10
-4.0157e+10
-4.00639e+10
-4.00116e+10
-4.01035e+10
-4.0126e+10
-4.0109e+10
-4.00981e+10
-4.0101e+10
-4.01294e+10
-4.01616e+10
-4.0174e+10
-4.01666e+10
-4.01469e+10
-4.01146e+10
-4.00608e+10
-3.99782e+10
-3.98644e+10
-3.97173e+10
-3.95335e+10
-3.93088e+10
-3.90413e+10
-3.87365e+10
-3.84083e+10
-3.80751e+10
-3.77536e+10
-3.74551e+10
-3.71846e+10
-3.69417e+10
-3.67224e+10
-3.65222e+10
-3.63372e+10
-3.61655e+10
-3.60097e+10
-3.58748e+10
-3.57668e+10
-3.56913e+10
-3.56494e+10
-3.56338e+10
-3.56277e+10
-3.56038e+10
-3.55274e+10
-3.53667e+10
-3.51127e+10
-3.47992e+10
-3.44969e+10
-3.42214e+10
-3.37621e+10
-3.27741e+10
-3.1878e+10
-3.4488e+10
-4.46581e+10
-5.35533e+10
-2.75452e+10
-4.00347e+10
-3.99716e+10
-3.99305e+10
-3.99574e+10
-4.00095e+10
-4.00553e+10
-4.00682e+10
-4.00634e+10
-4.00825e+10
-4.01398e+10
-4.01936e+10
-4.02233e+10
-4.02386e+10
-4.02428e+10
-4.02293e+10
-4.01899e+10
-4.01179e+10
-4.00093e+10
-3.98631e+10
-3.96744e+10
-3.94358e+10
-3.9139e+10
-3.87866e+10
-3.83995e+10
-3.80061e+10
-3.76336e+10
-3.72984e+10
-3.70066e+10
-3.67556e+10
-3.65373e+10
-3.6343e+10
-3.61674e+10
-3.60088e+10
-3.58675e+10
-3.57452e+10
-3.56471e+10
-3.55783e+10
-3.554e+10
-3.55257e+10
-3.55191e+10
-3.54939e+10
-3.54173e+10
-3.52596e+10
-3.50127e+10
-3.47089e+10
-3.44177e+10
-3.41603e+10
-3.37409e+10
-3.28131e+10
-3.19221e+10
-3.43046e+10
-4.38326e+10
-5.22525e+10
-2.7215e+10
-3.99918e+10
-3.99477e+10
-3.99817e+10
-3.99946e+10
-4.00195e+10
-4.00319e+10
-4.005e+10
-4.00713e+10
-4.01056e+10
-4.01538e+10
-4.01992e+10
-4.02307e+10
-4.02484e+10
-4.02534e+10
-4.02398e+10
-4.01991e+10
-4.01249e+10
-4.00138e+10
-3.98638e+10
-3.96709e+10
-3.94269e+10
-3.91239e+10
-3.87656e+10
-3.83724e+10
-3.79742e+10
-3.75972e+10
-3.72584e+10
-3.69642e+10
-3.67121e+10
-3.64945e+10
-3.63027e+10
-3.613e+10
-3.59737e+10
-3.58339e+10
-3.57133e+10
-3.56167e+10
-3.55484e+10
-3.55094e+10
-3.5493e+10
-3.54824e+10
-3.54501e+10
-3.53621e+10
-3.51872e+10
-3.4915e+10
-3.45756e+10
-3.42341e+10
-3.3903e+10
-3.3375e+10
-3.22808e+10
-3.10612e+10
-3.27224e+10
-4.17176e+10
-5.26293e+10
-3.23524e+10
-3.99183e+10
-3.98588e+10
-3.98592e+10
-3.99331e+10
-4.00015e+10
-4.00314e+10
-4.004e+10
-4.00527e+10
-4.01057e+10
-4.01899e+10
-4.0258e+10
-4.03103e+10
-4.03549e+10
-4.03884e+10
-4.04024e+10
-4.03878e+10
-4.03357e+10
-4.02421e+10
-4.01054e+10
-3.99234e+10
-3.96834e+10
-3.93653e+10
-3.89649e+10
-3.85086e+10
-3.8045e+10
-3.76146e+10
-3.72411e+10
-3.69307e+10
-3.66772e+10
-3.64676e+10
-3.6289e+10
-3.61327e+10
-3.59926e+10
-3.58669e+10
-3.57576e+10
-3.56691e+10
-3.56051e+10
-3.55654e+10
-3.55428e+10
-3.55204e+10
-3.54711e+10
-3.53615e+10
-3.51617e+10
-3.48619e+10
-3.44919e+10
-3.41153e+10
-3.37445e+10
-3.31721e+10
-3.20134e+10
-3.06961e+10
-3.23526e+10
-4.16305e+10
-5.25568e+10
-3.0279e+10
-3.98713e+10
-3.98185e+10
-3.98908e+10
-3.99797e+10
-4.00034e+10
-3.99992e+10
-4.00245e+10
-4.00596e+10
-4.01145e+10
-4.01857e+10
-4.02511e+10
-4.03064e+10
-4.03527e+10
-4.0387e+10
-4.04014e+10
-4.03868e+10
-4.03353e+10
-4.02425e+10
-4.01074e+10
-3.99269e+10
-3.96882e+10
-3.93724e+10
-3.89743e+10
-3.8521e+10
-3.80595e+10
-3.763e+10
-3.72559e+10
-3.69435e+10
-3.66877e+10
-3.64769e+10
-3.62978e+10
-3.61408e+10
-3.6001e+10
-3.58771e+10
-3.57713e+10
-3.56884e+10
-3.56328e+10
-3.56042e+10
-3.55957e+10
-3.55907e+10
-3.55625e+10
-3.54782e+10
-3.53084e+10
-3.5043e+10
-3.47113e+10
-3.43748e+10
-3.40405e+10
-3.34886e+10
-3.23033e+10
-3.07932e+10
-3.1813e+10
-4.01722e+10
-5.14355e+10
-3.01806e+10
-3.98178e+10
-3.97527e+10
-3.97595e+10
-3.98275e+10
-3.99125e+10
-3.99446e+10
-3.99628e+10
-4.0011e+10
-4.01002e+10
-4.02036e+10
-4.03005e+10
-4.03931e+10
-4.04808e+10
-4.0557e+10
-4.06123e+10
-4.06347e+10
-4.06127e+10
-4.05392e+10
-4.04145e+10
-4.02412e+10
-4.00027e+10
-3.96587e+10
-3.91801e+10
-3.86045e+10
-3.80222e+10
-3.7504e+10
-3.70809e+10
-3.67553e+10
-3.65117e+10
-3.63281e+10
-3.61846e+10
-3.60675e+10
-3.59686e+10
-3.58849e+10
-3.58187e+10
-3.57747e+10
-3.57572e+10
-3.57662e+10
-3.57949e+10
-3.58263e+10
-3.58341e+10
-3.57858e+10
-3.56528e+10
-3.5428e+10
-3.51436e+10
-3.48643e+10
-3.45997e+10
-3.41315e+10
-3.30507e+10
-3.17212e+10
-3.31049e+10
-4.16264e+10
-5.17775e+10
-2.90976e+10
-3.9799e+10
-3.97304e+10
-3.97609e+10
-3.98457e+10
-3.98934e+10
-3.99144e+10
-3.99611e+10
-4.00213e+10
-4.0097e+10
-4.01881e+10
-4.02827e+10
-4.03756e+10
-4.04623e+10
-4.05374e+10
-4.05915e+10
-4.06132e+10
-4.05912e+10
-4.05183e+10
-4.0395e+10
-4.02227e+10
-3.99864e+10
-3.96461e+10
-3.91736e+10
-3.8606e+10
-3.80297e+10
-3.75154e+10
-3.70934e+10
-3.67666e+10
-3.65208e+10
-3.63354e+10
-3.61897e+10
-3.60695e+10
-3.59664e+10
-3.58779e+10
-3.58071e+10
-3.57589e+10
-3.5738e+10
-3.57454e+10
-3.57748e+10
-3.58107e+10
-3.58281e+10
-3.57968e+10
-3.56912e+10
-3.55076e+10
-3.52828e+10
-3.5087e+10
-3.49355e+10
-3.46137e+10
-3.37059e+10
-3.25608e+10
-3.4258e+10
-4.32394e+10
-5.19646e+10
-2.74242e+10
-3.97921e+10
-3.9747e+10
-3.97153e+10
-3.97312e+10
-3.98056e+10
-3.98588e+10
-3.99122e+10
-4.00023e+10
-4.01178e+10
-4.02402e+10
-4.03726e+10
-4.05096e+10
-4.06438e+10
-4.07672e+10
-4.08683e+10
-4.09332e+10
-4.09478e+10
-4.09012e+10
-4.07956e+10
-4.06409e+10
-4.04263e+10
-4.00752e+10
-3.9493e+10
-3.87159e+10
-3.79239e+10
-3.72615e+10
-3.67669e+10
-3.6428e+10
-3.6206e+10
-3.60611e+10
-3.59626e+10
-3.58899e+10
-3.58324e+10
-3.57875e+10
-3.57587e+10
-3.57526e+10
-3.57748e+10
-3.58269e+10
-3.59025e+10
-3.5986e+10
-3.60518e+10
-3.60698e+10
-3.60155e+10
-3.5888e+10
-3.57285e+10
-3.56117e+10
-3.55528e+10
-3.53319e+10
-3.45523e+10
-3.36897e+10
-3.60102e+10
-4.55654e+10
-5.4081e+10
-2.80855e+10
-3.97964e+10
-3.97313e+10
-3.96984e+10
-3.97241e+10
-3.9788e+10
-3.98581e+10
-3.9921e+10
-4.00033e+10
-4.01063e+10
-4.02258e+10
-4.03562e+10
-4.04909e+10
-4.06228e+10
-4.0744e+10
-4.08431e+10
-4.09067e+10
-4.09206e+10
-4.08748e+10
-4.07704e+10
-4.06183e+10
-4.04076e+10
-4.00644e+10
-3.9497e+10
-3.87377e+10
-3.7961e+10
-3.7308e+10
-3.68179e+10
-3.64786e+10
-3.62539e+10
-3.61058e+10
-3.60034e+10
-3.59265e+10
-3.58645e+10
-3.58145e+10
-3.57805e+10
-3.57686e+10
-3.57845e+10
-3.58294e+10
-3.58969e+10
-3.59711e+10
-3.60265e+10
-3.60328e+10
-3.59653e+10
-3.58235e+10
-3.56493e+10
-3.55169e+10
-3.54385e+10
-3.51861e+10
-3.43379e+10
-3.32892e+10
-3.52059e+10
-4.48008e+10
-5.55565e+10
-3.35027e+10
-3.966e+10
-3.96321e+10
-3.95724e+10
-3.95654e+10
-3.96176e+10
-3.96867e+10
-3.9772e+10
-3.98825e+10
-4.00177e+10
-4.01742e+10
-4.03483e+10
-4.05333e+10
-4.07217e+10
-4.09036e+10
-4.10658e+10
-4.11927e+10
-4.12674e+10
-4.12745e+10
-4.12113e+10
-4.11008e+10
-4.09591e+10
-4.06848e+10
-4.00407e+10
-3.89826e+10
-3.78538e+10
-3.69963e+10
-3.64314e+10
-3.6096e+10
-3.59114e+10
-3.58148e+10
-3.57633e+10
-3.57307e+10
-3.5705e+10
-3.56845e+10
-3.56744e+10
-3.56824e+10
-3.57151e+10
-3.57747e+10
-3.58551e+10
-3.59398e+10
-3.60022e+10
-3.6011e+10
-3.59416e+10
-3.57939e+10
-3.56099e+10
-3.5461e+10
-3.53476e+10
-3.50251e+10
-3.40881e+10
-3.30362e+10
-3.52572e+10
-4.57442e+10
-5.7859e+10
-3.51828e+10
-3.96457e+10
-3.95955e+10
-3.95525e+10
-3.95571e+10
-3.96251e+10
-3.96999e+10
-3.97728e+10
-3.98798e+10
-4.00138e+10
-4.01687e+10
-4.03409e+10
-4.05246e+10
-4.07117e+10
-4.08922e+10
-4.10529e+10
-4.11784e+10
-4.12514e+10
-4.12565e+10
-4.11916e+10
-4.10805e+10
-4.09385e+10
-4.06613e+10
-4.00131e+10
-3.89544e+10
-3.78271e+10
-3.69744e+10
-3.64175e+10
-3.60923e+10
-3.59205e+10
-3.5838e+10
-3.5801e+10
-3.5783e+10
-3.57718e+10
-3.57657e+10
-3.57696e+10
-3.57914e+10
-3.58373e+10
-3.5909e+10
-3.59993e+10
-3.60903e+10
-3.61536e+10
-3.61554e+10
-3.60679e+10
-3.58868e+10
-3.5649e+10
-3.54197e+10
-3.51917e+10
-3.47084e+10
-3.35326e+10
-3.20421e+10
-3.34121e+10
-4.34436e+10
-5.90916e+10
-4.41479e+10
-3.95535e+10
-3.95248e+10
-3.95045e+10
-3.9521e+10
-3.95689e+10
-3.96462e+10
-3.97525e+10
-3.98874e+10
-4.00518e+10
-4.02448e+10
-4.04624e+10
-4.06991e+10
-4.09464e+10
-4.11932e+10
-4.14231e+10
-4.16159e+10
-4.17505e+10
-4.18062e+10
-4.17718e+10
-4.16805e+10
-4.16082e+10
-4.14806e+10
-4.08225e+10
-3.92458e+10
-3.7444e+10
-3.6352e+10
-3.58159e+10
-3.55818e+10
-3.55229e+10
-3.55414e+10
-3.55839e+10
-3.5623e+10
-3.56507e+10
-3.56699e+10
-3.56892e+10
-3.57194e+10
-3.57694e+10
-3.58428e+10
-3.59348e+10
-3.60298e+10
-3.61013e+10
-3.61179e+10
-3.60534e+10
-3.5905e+10
-3.5709e+10
-3.55251e+10
-3.53341e+10
-3.48772e+10
-3.37839e+10
-3.26479e+10
-3.47875e+10
-4.49926e+10
-5.79362e+10
-3.98824e+10
-3.95163e+10
-3.94946e+10
-3.94978e+10
-3.95259e+10
-3.95793e+10
-3.96469e+10
-3.97456e+10
-3.9878e+10
-4.00408e+10
-4.02312e+10
-4.04454e+10
-4.06779e+10
-4.09209e+10
-4.11628e+10
-4.13874e+10
-4.1574e+10
-4.1701e+10
-4.17486e+10
-4.17092e+10
-4.16172e+10
-4.1545e+10
-4.14168e+10
-4.07809e+10
-3.92534e+10
-3.75032e+10
-3.64042e+10
-3.58398e+10
-3.55841e+10
-3.55142e+10
-3.55302e+10
-3.55753e+10
-3.56202e+10
-3.56558e+10
-3.56845e+10
-3.5715e+10
-3.57578e+10
-3.5822e+10
-3.59116e+10
-3.60221e+10
-3.61376e+10
-3.62321e+10
-3.62741e+10
-3.62376e+10
-3.61195e+10
-3.59565e+10
-3.58075e+10
-3.5651e+10
-3.52236e+10
-3.41357e+10
-3.29267e+10
-3.48747e+10
-4.48982e+10
-5.6968e+10
-3.51318e+10
-3.93314e+10
-3.92728e+10
-3.92971e+10
-3.9327e+10
-3.93688e+10
-3.94348e+10
-3.95382e+10
-3.9681e+10
-3.98638e+10
-4.00864e+10
-4.03464e+10
-4.06403e+10
-4.09626e+10
-4.13039e+10
-4.16422e+10
-4.19406e+10
-4.21696e+10
-4.23127e+10
-4.23535e+10
-4.23115e+10
-4.23132e+10
-4.2466e+10
-4.21347e+10
-3.98467e+10
-3.66727e+10
-3.51417e+10
-3.46571e+10
-3.46114e+10
-3.47845e+10
-3.49927e+10
-3.51701e+10
-3.52982e+10
-3.53819e+10
-3.54336e+10
-3.54689e+10
-3.55032e+10
-3.55491e+10
-3.56138e+10
-3.5696e+10
-3.57835e+10
-3.58546e+10
-3.58821e+10
-3.58437e+10
-3.57394e+10
-3.56069e+10
-3.55035e+10
-3.54055e+10
-3.50642e+10
-3.41875e+10
-3.36101e+10
-3.6858e+10
-4.7388e+10
-5.51879e+10
-2.9524e+10
-3.93071e+10
-3.92853e+10
-3.93137e+10
-3.93473e+10
-3.93851e+10
-3.94449e+10
-3.95433e+10
-3.96807e+10
-3.98577e+10
-4.00729e+10
-4.03242e+10
-4.06083e+10
-4.09209e+10
-4.12517e+10
-4.15787e+10
-4.18685e+10
-4.20926e+10
-4.22296e+10
-4.22598e+10
-4.22044e+10
-4.22097e+10
-4.2405e+10
-4.21467e+10
-3.99928e+10
-3.6936e+10
-3.53619e+10
-3.48119e+10
-3.47172e+10
-3.48472e+10
-3.50215e+10
-3.51751e+10
-3.52868e+10
-3.5359e+10
-3.54027e+10
-3.54325e+10
-3.5464e+10
-3.55096e+10
-3.55765e+10
-3.56636e+10
-3.57596e+10
-3.58434e+10
-3.5889e+10
-3.58756e+10
-3.58048e+10
-3.57156e+10
-3.56659e+10
-3.56283e+10
-3.53387e+10
-3.4465e+10
-3.37552e+10
-3.66251e+10
-4.64964e+10
-5.40387e+10
-2.81381e+10
-3.91354e+10
-3.90876e+10
-3.91269e+10
-3.91551e+10
-3.9203e+10
-3.92782e+10
-3.93983e+10
-3.95716e+10
-3.98044e+10
-4.00989e+10
-4.04552e+10
-4.08693e+10
-4.13363e+10
-4.18471e+10
-4.23649e+10
-4.28148e+10
-4.31687e+10
-4.34418e+10
-4.36111e+10
-4.36489e+10
-4.36092e+10
-4.39247e+10
-4.4752e+10
-4.26654e+10
-3.76872e+10
-3.36471e+10
-3.33955e+10
-3.38185e+10
-3.43024e+10
-3.46831e+10
-3.49555e+10
-3.51368e+10
-3.52508e+10
-3.53189e+10
-3.53617e+10
-3.53972e+10
-3.54395e+10
-3.5496e+10
-3.55655e+10
-3.56372e+10
-3.56904e+10
-3.56999e+10
-3.56463e+10
-3.55326e+10
-3.5398e+10
-3.53013e+10
-3.52231e+10
-3.49292e+10
-3.41516e+10
-3.36724e+10
-3.66546e+10
-4.62399e+10
-5.4272e+10
-2.81237e+10
-3.91159e+10
-3.90943e+10
-3.91317e+10
-3.91595e+10
-3.92046e+10
-3.92787e+10
-3.93965e+10
-3.95668e+10
-3.97954e+10
-4.00842e+10
-4.04332e+10
-4.0841e+10
-4.13043e+10
-4.18099e+10
-4.23206e+10
-4.27752e+10
-4.3136e+10
-4.33862e+10
-4.34982e+10
-4.34689e+10
-4.34843e+10
-4.40614e+10
-4.50155e+10
-4.30078e+10
-3.8073e+10
-3.35404e+10
-3.33652e+10
-3.38341e+10
-3.43333e+10
-3.47155e+10
-3.49847e+10
-3.5162e+10
-3.52721e+10
-3.53366e+10
-3.53753e+10
-3.5406e+10
-3.5442e+10
-3.54905e+10
-3.55503e+10
-3.56095e+10
-3.56474e+10
-3.56381e+10
-3.55612e+10
-3.54186e+10
-3.52474e+10
-3.51017e+10
-3.49487e+10
-3.45196e+10
-3.34825e+10
-3.25594e+10
-3.49436e+10
-4.41556e+10
-5.36559e+10
-3.46419e+10
-3.90572e+10
-3.90622e+10
-3.90727e+10
-3.90925e+10
-3.91343e+10
-3.92118e+10
-3.93385e+10
-3.9525e+10
-3.97768e+10
-4.00943e+10
-4.04765e+10
-4.09164e+10
-4.14095e+10
-4.19495e+10
-4.24906e+10
-4.29494e+10
-4.33136e+10
-4.3585e+10
-4.37568e+10
-4.38207e+10
-4.38046e+10
-4.42565e+10
-4.56118e+10
-4.66261e+10
-4.35103e+10
-2.8527e+10
-3.10653e+10
-3.28347e+10
-3.38573e+10
-3.44585e+10
-3.48366e+10
-3.50736e+10
-3.52215e+10
-3.53134e+10
-3.53747e+10
-3.54251e+10
-3.54787e+10
-3.55425e+10
-3.56139e+10
-3.56799e+10
-3.57182e+10
-3.57015e+10
-3.56089e+10
-3.54414e+10
-3.52376e+10
-3.50579e+10
-3.48898e+10
-3.45091e+10
-3.36317e+10
-3.29676e+10
-3.57698e+10
-4.57711e+10
-5.57217e+10
-3.47389e+10
-3.90511e+10
-3.90637e+10
-3.90684e+10
-3.90847e+10
-3.91227e+10
-3.91972e+10
-3.93204e+10
-3.95029e+10
-3.975e+10
-4.00628e+10
-4.04407e+10
-4.08814e+10
-4.13795e+10
-4.19205e+10
-4.24594e+10
-4.29193e+10
-4.32649e+10
-4.34955e+10
-4.36171e+10
-4.36355e+10
-4.37128e+10
-4.45307e+10
-4.58834e+10
-4.67305e+10
-4.3913e+10
-2.84796e+10
-3.09676e+10
-3.27576e+10
-3.3814e+10
-3.44344e+10
-3.4822e+10
-3.50629e+10
-3.52116e+10
-3.53022e+10
-3.53606e+10
-3.54066e+10
-3.54546e+10
-3.55111e+10
-3.55738e+10
-3.56297e+10
-3.56565e+10
-3.5627e+10
-3.55203e+10
-3.53369e+10
-3.51137e+10
-3.49069e+10
-3.4692e+10
-3.42107e+10
-3.31468e+10
-3.24089e+10
-3.59953e+10
-4.76522e+10
-5.52375e+10
-2.75678e+10
-3.90391e+10
-3.90814e+10
-3.90815e+10
-3.91035e+10
-3.91462e+10
-3.92263e+10
-3.93552e+10
-3.95436e+10
-3.97959e+10
-4.01118e+10
-4.04912e+10
-4.09329e+10
-4.14273e+10
-4.19557e+10
-4.24709e+10
-4.29073e+10
-4.32674e+10
-4.35398e+10
-4.37086e+10
-4.37997e+10
-4.38198e+10
-4.4159e+10
-4.61722e+10
-4.5896e+10
-2.29604e+10
-3.07313e+10
-3.26025e+10
-3.36959e+10
-3.433e+10
-3.4719e+10
-3.49549e+10
-3.50961e+10
-3.51787e+10
-3.52298e+10
-3.52698e+10
-3.5313e+10
-3.53662e+10
-3.5427e+10
-3.54823e+10
-3.55101e+10
-3.54842e+10
-3.53841e+10
-3.52121e+10
-3.5009e+10
-3.48407e+10
-3.47055e+10
-3.43827e+10
-3.35393e+10
-3.27264e+10
-3.49337e+10
-4.40974e+10
-5.54513e+10
-3.88715e+10
-3.90481e+10
-3.91004e+10
-3.90923e+10
-3.91105e+10
-3.91489e+10
-3.92243e+10
-3.93472e+10
-3.95282e+10
-3.97722e+10
-4.00804e+10
-4.04532e+10
-4.08897e+10
-4.13825e+10
-4.19136e+10
-4.24392e+10
-4.28932e+10
-4.32464e+10
-4.34959e+10
-4.3629e+10
-4.365e+10
-4.37036e+10
-4.44362e+10
-4.62374e+10
-4.62255e+10
-2.40471e+10
-3.07114e+10
-3.25438e+10
-3.36457e+10
-3.4293e+10
-3.46893e+10
-3.49279e+10
-3.50683e+10
-3.51474e+10
-3.51934e+10
-3.52276e+10
-3.52649e+10
-3.53134e+10
-3.53715e+10
-3.54276e+10
-3.54611e+10
-3.54471e+10
-3.53667e+10
-3.52228e+10
-3.50557e+10
-3.49286e+10
-3.48325e+10
-3.45316e+10
-3.37049e+10
-3.31283e+10
-3.63758e+10
-4.70289e+10
-5.52493e+10
-2.93652e+10
-3.91196e+10
-3.91378e+10
-3.91476e+10
-3.91716e+10
-3.92175e+10
-3.92967e+10
-3.942e+10
-3.9596e+10
-3.98289e+10
-4.01193e+10
-4.04675e+10
-4.08733e+10
-4.133e+10
-4.18166e+10
-4.22867e+10
-4.27005e+10
-4.30297e+10
-4.32876e+10
-4.34866e+10
-4.35668e+10
-4.36121e+10
-4.39125e+10
-4.4802e+10
-4.46342e+10
-3.70738e+10
-3.28693e+10
-3.2899e+10
-3.35519e+10
-3.4159e+10
-3.45897e+10
-3.48716e+10
-3.50446e+10
-3.51431e+10
-3.51937e+10
-3.52184e+10
-3.52351e+10
-3.5257e+10
-3.52906e+10
-3.53337e+10
-3.53745e+10
-3.53933e+10
-3.53662e+10
-3.5276e+10
-3.51277e+10
-3.49651e+10
-3.48583e+10
-3.48145e+10
-3.4626e+10
-3.39705e+10
-3.3437e+10
-3.61569e+10
-4.57133e+10
-5.35817e+10
-2.90288e+10
-3.91398e+10
-3.91544e+10
-3.91639e+10
-3.91862e+10
-3.92301e+10
-3.93061e+10
-3.94247e+10
-3.95938e+10
-3.98178e+10
-4.00976e+10
-4.04333e+10
-4.08244e+10
-4.12666e+10
-4.17457e+10
-4.22298e+10
-4.26736e+10
-4.30427e+10
-4.33221e+10
-4.34777e+10
-4.34809e+10
-4.35016e+10
-4.40288e+10
-4.48067e+10
-4.45071e+10
-3.74398e+10
-3.26409e+10
-3.27046e+10
-3.34234e+10
-3.40828e+10
-3.45469e+10
-3.48473e+10
-3.50296e+10
-3.5132e+10
-3.51836e+10
-3.52077e+10
-3.52233e+10
-3.52443e+10
-3.52777e+10
-3.5322e+10
-3.53663e+10
-3.53908e+10
-3.5372e+10
-3.52912e+10
-3.5151e+10
-3.49897e+10
-3.48689e+10
-3.47835e+10
-3.45078e+10
-3.36895e+10
-3.28435e+10
-3.50622e+10
-4.44276e+10
-5.35419e+10
-2.88291e+10
-3.92771e+10
-3.92599e+10
-3.928e+10
-3.93054e+10
-3.9351e+10
-3.94218e+10
-3.95253e+10
-3.96657e+10
-3.98447e+10
-4.00613e+10
-4.03126e+10
-4.05944e+10
-4.08989e+10
-4.12112e+10
-4.15073e+10
-4.17617e+10
-4.19491e+10
-4.20566e+10
-4.20774e+10
-4.20252e+10
-4.20319e+10
-4.21998e+10
-4.19527e+10
-3.98724e+10
-3.70298e+10
-3.54372e+10
-3.48577e+10
-3.47352e+10
-3.48391e+10
-3.49812e+10
-3.51023e+10
-3.51827e+10
-3.52252e+10
-3.52395e+10
-3.52387e+10
-3.52356e+10
-3.52404e+10
-3.52576e+10
-3.52838e+10
-3.53067e+10
-3.53063e+10
-3.52592e+10
-3.51477e+10
-3.49761e+10
-3.47864e+10
-3.46464e+10
-3.4564e+10
-3.4338e+10
-3.36376e+10
-3.29557e+10
-3.52876e+10
-4.44689e+10
-5.30566e+10
-2.77838e+10
-3.92713e+10
-3.92577e+10
-3.92756e+10
-3.93008e+10
-3.93461e+10
-3.94167e+10
-3.95199e+10
-3.96602e+10
-3.98391e+10
-4.00553e+10
-4.03057e+10
-4.05857e+10
-4.0888e+10
-4.11993e+10
-4.14989e+10
-4.17621e+10
-4.19669e+10
-4.20947e+10
-4.21236e+10
-4.20698e+10
-4.20818e+10
-4.22804e+10
-4.19961e+10
-3.98794e+10
-3.69128e+10
-3.52381e+10
-3.46766e+10
-3.46e+10
-3.47425e+10
-3.49111e+10
-3.50489e+10
-3.51399e+10
-3.51899e+10
-3.52102e+10
-3.52153e+10
-3.52186e+10
-3.52308e+10
-3.52564e+10
-3.52923e+10
-3.53258e+10
-3.53361e+10
-3.52981e+10
-3.51909e+10
-3.50129e+10
-3.47964e+10
-3.45954e+10
-3.43991e+10
-3.398e+10
-3.29427e+10
-3.15657e+10
-3.25575e+10
-4.09331e+10
-5.29025e+10
-3.57813e+10
-3.93774e+10
-3.9367e+10
-3.93888e+10
-3.94203e+10
-3.94714e+10
-3.95447e+10
-3.96451e+10
-3.97748e+10
-3.9934e+10
-4.01209e+10
-4.03309e+10
-4.05568e+10
-4.07883e+10
-4.10113e+10
-4.1209e+10
-4.13641e+10
-4.14607e+10
-4.14818e+10
-4.14147e+10
-4.12852e+10
-4.11646e+10
-4.09948e+10
-4.03578e+10
-3.89239e+10
-3.73126e+10
-3.62622e+10
-3.56797e+10
-3.53897e+10
-3.52903e+10
-3.52791e+10
-3.52973e+10
-3.53126e+10
-3.53139e+10
-3.53015e+10
-3.52827e+10
-3.52667e+10
-3.52616e+10
-3.52702e+10
-3.52883e+10
-3.53027e+10
-3.52932e+10
-3.52364e+10
-3.51152e+10
-3.49339e+10
-3.47331e+10
-3.45798e+10
-3.44834e+10
-3.42504e+10
-3.35568e+10
-3.2858e+10
-3.49664e+10
-4.35776e+10
-5.23093e+10
-2.81708e+10
-3.93672e+10
-3.93611e+10
-3.93818e+10
-3.94142e+10
-3.94665e+10
-3.95419e+10
-3.96455e+10
-3.97797e+10
-3.99449e+10
-4.01392e+10
-4.03579e+10
-4.05937e+10
-4.08361e+10
-4.1071e+10
-4.12809e+10
-4.14476e+10
-4.15523e+10
-4.15753e+10
-4.15069e+10
-4.13791e+10
-4.12618e+10
-4.10819e+10
-4.04111e+10
-3.89163e+10
-3.72407e+10
-3.61579e+10
-3.55815e+10
-3.53097e+10
-3.52269e+10
-3.52277e+10
-3.52539e+10
-3.52748e+10
-3.52812e+10
-3.52745e+10
-3.52626e+10
-3.52551e+10
-3.52601e+10
-3.52802e+10
-3.53107e+10
-3.53379e+10
-3.53403e+10
-3.5293e+10
-3.51765e+10
-3.49907e+10
-3.4769e+10
-3.45669e+10
-3.43776e+10
-3.398e+10
-3.29695e+10
-3.1574e+10
-3.24414e+10
-4.05785e+10
-5.2442e+10
-3.61238e+10
-3.94309e+10
-3.94287e+10
-3.9445e+10
-3.94741e+10
-3.95204e+10
-3.95864e+10
-3.96747e+10
-3.97868e+10
-3.99224e+10
-4.00798e+10
-4.0255e+10
-4.04412e+10
-4.06288e+10
-4.0806e+10
-4.09593e+10
-4.10741e+10
-4.1136e+10
-4.11302e+10
-4.10495e+10
-4.09098e+10
-4.07207e+10
-4.03853e+10
-3.96908e+10
-3.86182e+10
-3.75128e+10
-3.66862e+10
-3.61514e+10
-3.58411e+10
-3.56804e+10
-3.56041e+10
-3.55667e+10
-3.55402e+10
-3.55116e+10
-3.5479e+10
-3.5447e+10
-3.54233e+10
-3.54147e+10
-3.54231e+10
-3.54433e+10
-3.54617e+10
-3.54585e+10
-3.54113e+10
-3.5305e+10
-3.51462e+10
-3.49786e+10
-3.48729e+10
-3.48422e+10
-3.46957e+10
-3.41216e+10
-3.36367e+10
-3.61925e+10
-4.54394e+10
-5.40755e+10
-3.02107e+10
-3.94322e+10
-3.94261e+10
-3.9444e+10
-3.94733e+10
-3.95206e+10
-3.95879e+10
-3.96782e+10
-3.97933e+10
-3.9933e+10
-4.00954e+10
-4.02766e+10
-4.04699e+10
-4.06659e+10
-4.08523e+10
-4.10153e+10
-4.11394e+10
-4.12086e+10
-4.12067e+10
-4.11273e+10
-4.0988e+10
-4.07976e+10
-4.04502e+10
-3.97237e+10
-3.86113e+10
-3.74739e+10
-3.66387e+10
-3.61111e+10
-3.58111e+10
-3.56591e+10
-3.55887e+10
-3.55552e+10
-3.55315e+10
-3.55057e+10
-3.54761e+10
-3.54477e+10
-3.54279e+10
-3.54233e+10
-3.54354e+10
-3.5458e+10
-3.54767e+10
-3.547e+10
-3.54143e+10
-3.52932e+10
-3.51114e+10
-3.49093e+10
-3.47529e+10
-3.46488e+10
-3.43918e+10
-3.3628e+10
-3.28527e+10
-3.52908e+10
-4.52195e+10
-5.45276e+10
-2.83133e+10
-3.95015e+10
-3.95001e+10
-3.95142e+10
-3.95404e+10
-3.95815e+10
-3.96386e+10
-3.9713e+10
-3.98051e+10
-3.99139e+10
-4.00372e+10
-4.01715e+10
-4.0311e+10
-4.0448e+10
-4.05734e+10
-4.06769e+10
-4.07465e+10
-4.07683e+10
-4.07311e+10
-4.06334e+10
-4.04824e+10
-4.02642e+10
-3.99038e+10
-3.93129e+10
-3.85318e+10
-3.77397e+10
-3.70841e+10
-3.66011e+10
-3.62732e+10
-3.60597e+10
-3.59191e+10
-3.58189e+10
-3.57376e+10
-3.56643e+10
-3.55965e+10
-3.55377e+10
-3.54938e+10
-3.54696e+10
-3.5465e+10
-3.54729e+10
-3.54778e+10
-3.54579e+10
-3.53895e+10
-3.5256e+10
-3.50632e+10
-3.48543e+10
-3.46981e+10
-3.45993e+10
-3.43445e+10
-3.35921e+10
-3.28519e+10
-3.51801e+10
-4.52557e+10
-5.79512e+10
-3.95826e+10
-3.9503e+10
-3.94924e+10
-3.95099e+10
-3.95357e+10
-3.95771e+10
-3.96342e+10
-3.97088e+10
-3.98013e+10
-3.99107e+10
-4.00348e+10
-4.017e+10
-4.03107e+10
-4.04494e+10
-4.05771e+10
-4.0683e+10
-4.07549e+10
-4.07787e+10
-4.0743e+10
-4.06466e+10
-4.04974e+10
-4.02814e+10
-3.99205e+10
-3.93275e+10
-3.85422e+10
-3.77506e+10
-3.70982e+10
-3.66193e+10
-3.62941e+10
-3.60818e+10
-3.59419e+10
-3.58428e+10
-3.57632e+10
-3.56926e+10
-3.56282e+10
-3.55734e+10
-3.55334e+10
-3.55124e+10
-3.55095e+10
-3.55165e+10
-3.55166e+10
-3.54868e+10
-3.54024e+10
-3.52461e+10
-3.50232e+10
-3.47764e+10
-3.4575e+10
-3.44245e+10
-3.41073e+10
-3.32927e+10