/*--------------------------------*- C++ -*----------------------------------*\
| =========                 |                                                 |
| \\      /  F ield         | OpenFOAM: The Open Source CFD Toolbox           |
|  \\    /   O peration     | Version:  4.1                                   |
|   \\  /    A nd           | Web:      www.OpenFOAM.org                      |
|    \\/     M anipulation  |                                                 |
\*---------------------------------------------------------------------------*/
FoamFile
{
    version     2.0;
    format      ascii;
    class       volScalarField;
    location    "2";
    object      k;
}
// * * * * * * * * * * * * * * * * * * * * * * * * * * * * * * * * * * * * * //

dimensions      [0 2 -2 0 0 0 0];

internalField   nonuniform List<scalar> 
4432
(
0.36236
0.443995
0.463189
0.480217
0.494936
0.508202
0.518873
0.530127
0.535346
0.491531
0.556024
0.490703
0.566869
0.576812
0.499966
0.574186
0.582833
0.58429
0.593133
0.505651
0.578482
0.580495
0.578156
0.584942
0.507642
0.572014
0.535203
0.489216
0.558676
0.563122
0.57566
0.5785
0.529602
0.590156
0.513832
0.589255
0.524103
0.586356
0.587485
0.59697
0.539181
0.48461
0.462536
0.441251
0.450549
0.410124
0.493441
0.511186
0.532471
0.555511
0.586375
0.659818
0.716171
0.500528
0.363077
0.443275
0.462231
0.479
0.493523
0.506639
0.517223
0.528401
0.533771
0.54777
0.482784
0.531831
0.547984
0.559798
0.495092
0.561397
0.571824
0.574718
0.58492
0.502094
0.574519
0.577657
0.576013
0.58352
0.507275
0.572138
0.535879
0.4898
0.559982
0.564874
0.577763
0.580849
0.531114
0.592574
0.515269
0.592222
0.599391
0.510299
0.587385
0.59474
0.531989
0.478511
0.458448
0.439082
0.449018
0.410143
0.491622
0.508503
0.527428
0.543454
0.582064
0.611503
0.660569
0.495004
0.0114233
0.00383903
0.00376677
0.00376679
0.00376707
0.00376736
0.0037672
0.00376752
0.00379785
0.00383811
0.00384207
0.00387299
0.00384069
0.00383959
0.00386998
0.00386406
0.00386726
0.00382684
0.00382977
0.00385938
0.00382951
0.00375911
0.00378916
0.00383176
0.00383349
0.00386566
0.00384037
0.00383505
0.00387382
0.00386901
0.00387701
0.0038714
0.00384423
0.00384103
0.00387374
0.00386842
0.00387581
0.00381121
0.00377254
0.00380996
0.00384336
0.00384325
0.00381161
0.00378136
0.00382064
0.00384191
0.0038408
0.00391188
0.00402177
0.00424468
0.00464138
0.00522915
0.004216
0.0148885
0.0114231
0.00383672
0.00376444
0.00376448
0.00376477
0.0037651
0.00376498
0.00376538
0.00379593
0.00383702
0.00383505
0.00386964
0.00383857
0.00383645
0.00386901
0.00386241
0.00386691
0.00382595
0.00383002
0.00385921
0.0038299
0.00375934
0.00378976
0.00382979
0.00383027
0.00383194
0.00383717
0.00386898
0.00387484
0.00386942
0.00387746
0.00387176
0.00384461
0.00384143
0.00387414
0.00386887
0.00387788
0.00380702
0.00380188
0.00384403
0.00387646
0.00384689
0.00377703
0.00378081
0.00382032
0.0038417
0.00385318
0.00391331
0.00400984
0.00424648
0.00458622
0.00527142
0.00402617
0.0146963
0.0114114
0.00382573
0.0037511
0.00375037
0.00375035
0.00375032
0.00375009
0.00376382
0.00379603
0.00381713
0.00384991
0.00382149
0.00374897
0.00377845
0.00381284
0.00381349
0.00384414
0.00384763
0.0038454
0.00381628
0.00377667
0.00381099
0.00384499
0.00381606
0.00380995
0.00384646
0.00378018
0.00377619
0.00381125
0.00384549
0.0038168
0.00377687
0.00381167
0.00381295
0.00384421
0.00384836
0.00384678
0.00381723
0.00377703
0.00381197
0.0038131
0.00384462
0.00384825
0.00378151
0.0037466
0.0037792
0.00378475
0.00378234
0.00379039
0.00379829
0.00380888
0.00378849
0.00381527
0.00395439
0.0114112
0.00382391
0.00374927
0.00374855
0.00374855
0.00374854
0.0037483
0.00376642
0.00379898
0.00381564
0.00384841
0.00382012
0.00374783
0.00377762
0.00381241
0.00381303
0.00384392
0.00384736
0.00384545
0.00381629
0.00377671
0.00381101
0.00384502
0.00381609
0.00381016
0.00384663
0.00378023
0.00377623
0.0038113
0.00384553
0.00381684
0.00377691
0.00381171
0.003813
0.00384426
0.0038484
0.00384682
0.00381727
0.00377722
0.00381208
0.00381322
0.00384465
0.00384826
0.0037815
0.00374645
0.00377869
0.00379419
0.00378588
0.00377963
0.00379005
0.00379379
0.00377585
0.00381174
0.00395225
0.0114114
0.00382574
0.00375112
0.00375039
0.00375025
0.00376255
0.00376287
0.00376108
0.00379304
0.00381732
0.00381778
0.00378473
0.00374906
0.00374744
0.00377807
0.00381247
0.00381303
0.00384361
0.00384632
0.0038438
0.00387914
0.00381725
0.0037457
0.00377573
0.00381144
0.00381292
0.00384587
0.00381636
0.00381023
0.00387946
0.003817
0.00381028
0.00384664
0.00384484
0.00384888
0.0038142
0.003817
0.00384983
0.0038168
0.00381058
0.00384757
0.00381162
0.00381315
0.00381386
0.00378107
0.00377902
0.00379003
0.00375901
0.00378369
0.00378709
0.00375511
0.00377443
0.00382351
0.00387538
0.0114113
0.00382393
0.00374929
0.00374857
0.00374836
0.00377064
0.00377194
0.00376451
0.00379672
0.00381588
0.00381634
0.0037834
0.00374769
0.00375281
0.00378333
0.00381223
0.00381263
0.00384349
0.00387889
0.00381621
0.00380987
0.0038463
0.00378016
0.00377608
0.00381149
0.00381289
0.00384602
0.00381643
0.00381028
0.0038468
0.00381096
0.00381226
0.00381289
0.00384432
0.00384891
0.00381423
0.00381761
0.00385047
0.00381688
0.00381077
0.00384779
0.00381165
0.00381317
0.00381393
0.00378102
0.00377868
0.00379662
0.00376602
0.00378068
0.00379465
0.00376332
0.0037803
0.00382374
0.00387483
0.0114115
0.00382579
0.00375115
0.0037504
0.00375038
0.00375025
0.00376277
0.00379516
0.00381786
0.00381826
0.00378521
0.00374933
0.00377207
0.00380364
0.00381387
0.00384585
0.00381753
0.0037462
0.00377586
0.00381106
0.00381255
0.0037798
0.00374506
0.00377582
0.00381166
0.00381333
0.00381356
0.00384612
0.00381722
0.00377703
0.00381157
0.00384566
0.00381705
0.0037772
0.00381181
0.00381354
0.00381397
0.00381655
0.00384946
0.00381689
0.00381072
0.00384738
0.00384577
0.00384886
0.00378207
0.00377929
0.00378379
0.00375048
0.00378119
0.00379055
0.00375521
0.00377239
0.00380496
0.00387031
0.0114114
0.00382394
0.00374929
0.00374857
0.00374857
0.00374843
0.00376502
0.00379771
0.00381629
0.00381676
0.00378378
0.00374797
0.00377344
0.00380553
0.00381306
0.00384541
0.00381708
0.00374609
0.00377581
0.00381113
0.00381256
0.00377985
0.00374509
0.00377584
0.0038116
0.00381302
0.00384621
0.00388065
0.00381777
0.00377704
0.00381145
0.00384568
0.00381713
0.00377725
0.00381184
0.00381358
0.00381398
0.00381665
0.00384957
0.00381692
0.00381075
0.0038474
0.00384577
0.00384877
0.00378179
0.00377868
0.00379602
0.00379382
0.00380154
0.00377528
0.00375199
0.00376953
0.00380675
0.00386993
0.0114115
0.00382584
0.00375111
0.00376103
0.00379409
0.00381937
0.00381986
0.00381794
0.0038182
0.00381816
0.00378517
0.00374931
0.00378039
0.00381514
0.00384721
0.00381829
0.00377781
0.00381155
0.00381228
0.00380985
0.0038118
0.00381237
0.00384376
0.00388
0.00381758
0.00377724
0.00381164
0.00381329
0.00381052
0.00381209
0.00381319
0.00384419
0.00388051
0.00381795
0.00377711
0.00381214
0.00381365
0.00381373
0.00384682
0.00381697
0.00381081
0.00384756
0.00381199
0.00381369
0.00381511
0.00378195
0.00377857
0.00381231
0.00379838
0.00376718
0.00374536
0.00376743
0.00380698
0.00386572
0.0114114
0.00382399
0.00374921
0.0037624
0.00379564
0.00381765
0.0038181
0.00381625
0.00381658
0.00381668
0.00378379
0.00374801
0.00377907
0.00381376
0.00384641
0.00381747
0.00377751
0.00381127
0.00381232
0.00380989
0.00381182
0.00381244
0.00384389
0.00388009
0.00381751
0.00377726
0.00381196
0.00381338
0.00381058
0.00381242
0.00381306
0.00384424
0.00388056
0.00381799
0.00377715
0.00381218
0.00381369
0.00381377
0.00384686
0.003817
0.00381084
0.00384758
0.00381201
0.00381376
0.00381501
0.00378191
0.00374729
0.0037571
0.00376596
0.00375608
0.00374402
0.0037673
0.00380945
0.00386529
0.0114116
0.00382592
0.00375121
0.00375715
0.0037901
0.00381931
0.00381985
0.00378657
0.00375002
0.00375326
0.00378482
0.0038164
0.0038173
0.00381493
0.00381532
0.0038141
0.0038442
0.00384657
0.00384369
0.00384621
0.00384397
0.00384663
0.00384446
0.0038804
0.00381833
0.00374685
0.00374534
0.00377663
0.00381153
0.0038133
0.00378058
0.00377662
0.00381218
0.00381328
0.00384477
0.00388073
0.00381737
0.00381084
0.00384837
0.00384738
0.00388196
0.00381825
0.00377772
0.00381318
0.0038153
0.00378156
0.00374633
0.00377492
0.00378716
0.00375679
0.00374303
0.00376698
0.00380788
0.00386241
0.0114115
0.00382403
0.00374927
0.00375927
0.00379237
0.00381758
0.00381808
0.00378487
0.00374837
0.00376175
0.00379373
0.0038152
0.00381594
0.00381358
0.00381408
0.00381325
0.00384386
0.00384631
0.00384375
0.00384653
0.00378007
0.00377619
0.00381138
0.00384581
0.00381764
0.00374663
0.0037763
0.00381191
0.00381338
0.00378057
0.00375809
0.00378864
0.00381243
0.00381332
0.00384481
0.00388076
0.0038174
0.00381087
0.0038484
0.00384741
0.00388198
0.00381827
0.00377773
0.00381309
0.00381501
0.00378103
0.00374566
0.00375014
0.00375322
0.00374913
0.00374543
0.00376995
0.0038108
0.00386199
0.0114117
0.00382597
0.00375131
0.00375053
0.00375047
0.00375026
0.00376199
0.00379423
0.00381764
0.00381805
0.0037848
0.00378093
0.00381623
0.00381707
0.00381435
0.00381417
0.00381361
0.00381036
0.00381123
0.00384446
0.00381559
0.00381021
0.00384661
0.00384519
0.00384852
0.00384578
0.00384809
0.00384477
0.00384706
0.00384502
0.00384744
0.00384505
0.00384798
0.00381152
0.00381282
0.00381313
0.00384422
0.00384909
0.0038146
0.00381442
0.00381394
0.00384724
0.00381723
0.00381141
0.00384861
0.00378124
0.00374493
0.00376209
0.0037692
0.00375008
0.0037447
0.00376861
0.00380863
0.0038602
0.0114115
0.00382407
0.0037494
0.00374865
0.00374863
0.00374841
0.00376536
0.00379797
0.00381618
0.00381663
0.00378349
0.00377964
0.00381489
0.00381567
0.00381287
0.0038134
0.00381305
0.00381023
0.00381127
0.00384457
0.00381565
0.00381023
0.00384661
0.00384522
0.00384851
0.0038457
0.00384865
0.00381137
0.00381224
0.00384593
0.00381682
0.00381051
0.0038474
0.00381155
0.00381286
0.00381317
0.00384426
0.00384912
0.00381463
0.00381445
0.00381397
0.00384727
0.00381726
0.00381143
0.00384856
0.00378106
0.00374505
0.00374556
0.00374449
0.00374403
0.0037453
0.00377079
0.00381104
0.00385973
0.0114117
0.00382603
0.00375137
0.00375057
0.00375049
0.00375025
0.00376019
0.00379235
0.00381759
0.00381792
0.00378503
0.00374933
0.00378071
0.0038162
0.00381646
0.00384634
0.00384853
0.00381352
0.00381263
0.00381258
0.00384529
0.00381614
0.0038105
0.0038474
0.00384719
0.00385039
0.00384692
0.00388118
0.00381816
0.00381117
0.00384743
0.00381169
0.00381282
0.00381368
0.00378025
0.00377659
0.00381205
0.00381365
0.00381429
0.00381439
0.00381385
0.00384706
0.00381718
0.00381119
0.00384854
0.00378113
0.00374493
0.00375648
0.00375992
0.00374579
0.00374589
0.0037693
0.00380878
0.00385869
0.0114116
0.0038241
0.00374942
0.00374867
0.00374862
0.00374839
0.00376331
0.00379581
0.00381612
0.00381651
0.00378372
0.00374804
0.00377932
0.00381469
0.00381497
0.00384523
0.00384796
0.00381331
0.00381237
0.00384502
0.00381568
0.00381036
0.00388002
0.0038175
0.00381236
0.00384939
0.00378303
0.00374597
0.00377704
0.00381235
0.00384567
0.00381628
0.00381087
0.00384753
0.00378103
0.00377665
0.00381197
0.00381366
0.00381432
0.00381442
0.00381388
0.00384708
0.0038172
0.00381119
0.00384844
0.00378106
0.00374501
0.00374473
0.00374514
0.0037451
0.0037433
0.00377147
0.00381112
0.00385822
0.0114117
0.00382605
0.00375139
0.00375058
0.00375048
0.00375031
0.00375009
0.0037498
0.00374947
0.00374913
0.00374872
0.00378056
0.00381622
0.00381754
0.00381502
0.00381539
0.00381355
0.00384542
0.00381524
0.00380976
0.00384594
0.00384454
0.00384749
0.00384616
0.00385102
0.00384997
0.0038522
0.00381246
0.00381256
0.00381352
0.00384683
0.00381751
0.00377759
0.00381221
0.00384545
0.00381644
0.00381102
0.00384855
0.00381469
0.00381438
0.00381385
0.00384703
0.00381746
0.00381113
0.00384882
0.00378144
0.00374541
0.00374621
0.00374709
0.00374379
0.00374517
0.00376973
0.00380885
0.00385767
0.0114116
0.00382412
0.00374944
0.00374868
0.00374861
0.0037485
0.00374835
0.00374817
0.00374798
0.00374752
0.00377713
0.00381077
0.00381539
0.00381597
0.00381345
0.00381399
0.00381291
0.00384493
0.00381526
0.0038097
0.00384597
0.00384458
0.00384754
0.00384674
0.00385029
0.00384941
0.00385169
0.00384527
0.00384879
0.00384527
0.00388047
0.00381771
0.00377771
0.0038123
0.00384565
0.00381648
0.00381084
0.00384856
0.00381473
0.00381441
0.00381388
0.00384706
0.00381749
0.00381115
0.00384884
0.00378146
0.00374544
0.0037448
0.00374526
0.00374519
0.00374332
0.0037717
0.00381092
0.00385718
0.0114118
0.00382609
0.00375141
0.00375061
0.00375048
0.00375031
0.00375007
0.00374977
0.00374938
0.00374877
0.00378038
0.00381598
0.00384964
0.00382197
0.00375051
0.00377986
0.00381343
0.00381291
0.00384297
0.00387836
0.00381614
0.00381047
0.00384761
0.00384723
0.0038548
0.00385419
0.00385498
0.00381372
0.00381206
0.0038135
0.00384412
0.00384737
0.00384471
0.00384846
0.00384642
0.00381718
0.00377737
0.00381192
0.00381344
0.00381406
0.00384714
0.0038177
0.00377759
0.00381255
0.00384712
0.00381874
0.00374635
0.00374518
0.00374531
0.00374404
0.00374469
0.00376993
0.00380878
0.00385699
0.0114116
0.00382415
0.00374945
0.00374868
0.00374861
0.0037485
0.00374833
0.00374814
0.00374782
0.00375527
0.00378706
0.00381481
0.00384819
0.00382042
0.00374895
0.00377849
0.00381248
0.0038126
0.00381241
0.00384475
0.00381573
0.0038105
0.00384783
0.00384707
0.00385535
0.00385119
0.00385421
0.00381415
0.00381326
0.00384603
0.00381771
0.00377788
0.00381191
0.00381329
0.0038463
0.00381724
0.00377761
0.003812
0.00381347
0.00381409
0.00384718
0.00381772
0.00377762
0.00381257
0.00384709
0.00381872
0.00374638
0.0037452
0.00374444
0.00374414
0.00374335
0.00377187
0.00381078
0.0038565
0.0114118
0.00382608
0.00375141
0.00375061
0.00375047
0.00375029
0.00375003
0.00374972
0.00374931
0.0037487
0.00378036
0.00381593
0.00384966
0.00382124
0.00381463
0.00385031
0.00378354
0.00377754
0.00381128
0.00384384
0.00381579
0.00377728
0.00381339
0.00382001
0.00385958
0.0038297
0.00381802
0.00388186
0.00388083
0.00381665
0.00380988
0.0038475
0.00384585
0.00381639
0.00381049
0.00384708
0.00381106
0.00381229
0.00381336
0.00381405
0.0038471
0.00381698
0.0038112
0.00384855
0.00378128
0.00377756
0.00381187
0.00379725
0.00376297
0.00374462
0.00374381
0.00377
0.00380874
0.00385657
0.0114116
0.00382414
0.00374946
0.00374869
0.00374861
0.00374849
0.00374832
0.00374812
0.00374778
0.00375571
0.00378757
0.00381509
0.00381539
0.00384886
0.00382016
0.00374869
0.0037778
0.0038118
0.00381208
0.00384269
0.00384633
0.00381205
0.00381374
0.00385637
0.00382431
0.00381891
0.00385229
0.00384655
0.00387912
0.00381735
0.00377805
0.00381203
0.00384499
0.0038164
0.00381056
0.00384713
0.00381172
0.00381259
0.00381342
0.00381409
0.00384714
0.00381702
0.00381124
0.00384858
0.00378159
0.00374548
0.00375518
0.00376333
0.0037528
0.00374445
0.00374345
0.00377192
0.00381063
0.00385607
0.0114117
0.00382578
0.00378441
0.00382017
0.00382058
0.00385303
0.00388864
0.00382425
0.00375032
0.00374897
0.0037486
0.00378049
0.00381637
0.00381742
0.00384874
0.00385105
0.00384703
0.00384852
0.00384543
0.00381596
0.0037773
0.00381407
0.00385344
0.00382995
0.00382153
0.00389349
0.00382519
0.00381357
0.00387755
0.0038166
0.00374728
0.00377756
0.00381294
0.00381367
0.00384475
0.00384803
0.00381157
0.0038127
0.00381322
0.00384459
0.0038812
0.00381833
0.00377742
0.00381259
0.00381415
0.00381204
0.00381341
0.0038149
0.00378162
0.00374481
0.0037435
0.00377033
0.00380892
0.00385652
0.0114116
0.00382385
0.00378242
0.00381821
0.00381869
0.00385119
0.00388686
0.0038226
0.00374885
0.00374742
0.00377419
0.00380751
0.00381552
0.00381558
0.00384842
0.00381943
0.0037791
0.00381211
0.00381251
0.00380963
0.00381293
0.00381446
0.00381661
0.00382379
0.00385951
0.00382977
0.00378505
0.00381062
0.00384304
0.00381571
0.00374821
0.00377779
0.00381309
0.0038138
0.00384473
0.00384784
0.00384572
0.00388118
0.00381759
0.00381101
0.00388076
0.00381835
0.00377744
0.00381262
0.00381418
0.00381205
0.00381342
0.003815
0.00378178
0.00374497
0.0037435
0.00377215
0.00381072
0.00385602
0.0114107
0.00385949
0.00381779
0.00378279
0.00378338
0.00381882
0.00385216
0.00382278
0.00381549
0.00388531
0.00382219
0.00378138
0.00381644
0.00381752
0.00384895
0.00385133
0.00384758
0.00384878
0.00381167
0.00381254
0.00384724
0.00382307
0.00377877
0.00381996
0.00390589
0.00389593
0.00390879
0.00384789
0.00383941
0.00381538
0.00381414
0.00385199
0.00385026
0.00388508
0.00382157
0.00374821
0.00374656
0.00377239
0.0038053
0.00381403
0.00381468
0.00378128
0.00377732
0.00381298
0.00381405
0.0038466
0.00385033
0.00378203
0.00374472
0.00374408
0.00374355
0.00376941
0.003808
0.00385679
0.0114116
0.00382409
0.0037493
0.00376132
0.00379437
0.00381722
0.00385042
0.00382115
0.00381402
0.00385128
0.00378393
0.00377953
0.00381481
0.00384833
0.00382022
0.00378013
0.0038135
0.00381368
0.00381051
0.00381246
0.0038134
0.00384561
0.00384648
0.00394683
0.00393586
0.00389227
0.00391528
0.00384591
0.00381405
0.0038146
0.00384895
0.00385149
0.00384937
0.00388402
0.00382081
0.0037476
0.00377825
0.00381385
0.00381435
0.00384652
0.00384974
0.00378177
0.00377727
0.00381295
0.00381408
0.00384666
0.00385041
0.00378213
0.00374487
0.0037443
0.00374356
0.00377351
0.00381231
0.00385635
0.0114117
0.00382573
0.0037844
0.00382011
0.00382055
0.00385304
0.00388864
0.00382399
0.00378217
0.00381666
0.00381716
0.00384913
0.00385241
0.00384987
0.00388484
0.00382243
0.00375075
0.00374842
0.00377761
0.00381221
0.00381546
0.00382478
0.00388303
0.00429616
0.0114875
0.00394288
0.00380602
0.00378411
0.00381076
0.00381522
0.00381835
0.00381775
0.00385001
0.00382229
0.00374934
0.00374743
0.00377931
0.00381468
0.00384829
0.003819
0.00381232
0.00384967
0.00384755
0.00384993
0.00384716
0.00384996
0.00384832
0.00381875
0.00377876
0.00381401
0.00381626
0.00385343
0.00385423
0.00385344
0.0114764
0.00386765
0.0037832
0.00381793
0.00385177
0.00382233
0.00381503
0.00385278
0.0038161
0.00381588
0.00381622
0.0037834
0.00377982
0.00381516
0.00381625
0.0038137
0.00381423
0.00381394
0.00381072
0.00381276
0.00378391
0.00380255
0.00395612
0.00407183
0.0127789
0.00385539
0.00378883
0.00380722
0.00381248
0.00381434
0.00384963
0.00385169
0.00381621
0.00381546
0.00384931
0.00382037
0.00377972
0.00381429
0.00381497
0.00384704
0.00384992
0.00384732
0.00384976
0.0038471
0.00384955
0.00384721
0.00385019
0.00384825
0.00385182
0.00385061
0.00388857
0.00382229
0.00378163
0.00385576
0.0114729
0.00390282
0.00378966
0.0037509
0.00378299
0.00381876
0.00385212
0.00382274
0.00381543
0.00385269
0.00378518
0.00378083
0.00381647
0.00381776
0.00384915
0.00385173
0.00384799
0.00388134
0.00381835
0.00377861
0.0038154
0.00382335
0.00393539
0.00426447
0.00384429
0.00379227
0.00381118
0.00381345
0.00381562
0.00385169
0.00388694
0.00382281
0.00381562
0.00385268
0.00385021
0.00388511
0.00382114
0.00377987
0.00381452
0.00381515
0.00384715
0.00385014
0.00384739
0.00385005
0.00381332
0.00381353
0.00384776
0.00381915
0.00377947
0.00381481
0.0038174
0.00385571
0.00389477
0.0114068
0.00389123
0.003891
0.00382393
0.00381595
0.00388724
0.00382323
0.00374902
0.00374755
0.00377934
0.00381501
0.00381622
0.0037836
0.00378026
0.00381379
0.0038135
0.00381417
0.00384575
0.00381652
0.00381056
0.00384931
0.00383743
0.00409831
0.00380894
0.00392835
0.00383429
0.00378347
0.00378214
0.0038154
0.00381638
0.00381709
0.00381665
0.00381638
0.00384884
0.0038517
0.00381489
0.00381489
0.0038153
0.00381329
0.0038142
0.00381369
0.00384773
0.00381878
0.00374588
0.00374488
0.00374472
0.00375723
0.0037579
0.00374423
0.0037788
0.00381754
0.0038177
0.00385226
0.0114104
0.00385967
0.00378757
0.00381784
0.00385673
0.00378763
0.00378254
0.00381795
0.0038181
0.00384989
0.00388549
0.0038217
0.00381491
0.00385205
0.00384987
0.00385188
0.00384802
0.00388126
0.00388023
0.00381759
0.00381169
0.00384735
0.0037926
0.00391206
0.00400036
0.00384257
0.00380509
0.00378221
0.00380837
0.00381325
0.00381663
0.00381647
0.00384934
0.00385198
0.00384916
0.00385122
0.00384821
0.00388332
0.00381917
0.00381202
0.00384905
0.00384698
0.00384986
0.00384793
0.00381772
0.00381173
0.00384995
0.00378232
0.00374484
0.0037441
0.00374353
0.00377061
0.00380943
0.00385693
0.0114103
0.00385778
0.00378565
0.00381595
0.00385487
0.00378588
0.00378087
0.00381634
0.00381666
0.00384857
0.00388421
0.00382127
0.00374894
0.00377973
0.00381512
0.00381572
0.00384592
0.00387978
0.00381772
0.00377873
0.00381179
0.00381522
0.00382029
0.00398672
0.00408654
0.00384864
0.00384736
0.00385107
0.00386913
0.00380437
0.00381254
0.00385047
0.00378368
0.00377885
0.00381406
0.00381463
0.00384676
0.0038499
0.00381316
0.00381366
0.00381393
0.003846
0.00384951
0.0038477
0.00381852
0.00374584
0.00374479
0.0037448
0.00374491
0.00374432
0.00374374
0.00377219
0.00381095
0.00385642
0.0114115
0.00382554
0.00378422
0.00381998
0.00382038
0.00385297
0.00385537
0.0038524
0.00382212
0.00381499
0.00385238
0.00381637
0.00381712
0.00381728
0.00385049
0.00382119
0.00381383
0.00388047
0.00381818
0.00377837
0.0038123
0.00381332
0.00381361
0.00382114
0.00382018
0.00385531
0.00385407
0.0038473
0.00384539
0.00384467
0.00384709
0.00381166
0.0038128
0.00381337
0.00384449
0.00384754
0.0038448
0.00384765
0.00381122
0.00381246
0.00381353
0.00378023
0.00377676
0.0038125
0.00381402
0.00378106
0.00374556
0.00375362
0.00375299
0.00374394
0.00374326
0.00376989
0.00380869
0.00385676
0.0114113
0.00382365
0.00378234
0.00381812
0.00381858
0.00385122
0.00385369
0.00385083
0.0038207
0.0038137
0.00385117
0.00381516
0.00381571
0.00381629
0.00384737
0.00385004
0.00384651
0.00387975
0.00381726
0.00381036
0.0038457
0.00384419
0.00388426
0.00382111
0.00382
0.00386384
0.00385264
0.00388082
0.00381702
0.00381123
0.00384628
0.00381153
0.00381254
0.00381325
0.00381073
0.00381249
0.00381301
0.00384618
0.00381658
0.00381059
0.00384752
0.00378079
0.00377676
0.00381235
0.00381403
0.00378089
0.00374541
0.00374532
0.0037448
0.00374409
0.00374354
0.00377185
0.00381061
0.00385626
0.0114113
0.00382571
0.00375082
0.00378314
0.00381946
0.00382019
0.00381841
0.00381859
0.00381721
0.00385088
0.00385359
0.00385068
0.00382218
0.00375075
0.00378133
0.0038159
0.00384819
0.00381911
0.00377857
0.00381214
0.00384527
0.003816
0.00381218
0.00388399
0.00382402
0.00378203
0.00381726
0.00384903
0.00381758
0.00381073
0.00387929
0.00381701
0.00377724
0.00381184
0.00381272
0.00384599
0.00381721
0.00374591
0.00377648
0.00381015
0.00380809
0.00380748
0.00381293
0.00381402
0.00378094
0.0037456
0.00376366
0.00377812
0.00375862
0.00374399
0.00374324
0.00376981
0.00380883
0.00385721
0.0114112
0.00382392
0.00374897
0.00378131
0.00381766
0.00381845
0.00381675
0.00381702
0.00381576
0.00384955
0.00385233
0.00384936
0.00382071
0.00374927
0.00377962
0.00381424
0.00384665
0.00381794
0.00377819
0.00381206
0.00381297
0.00384522
0.00384871
0.00384893
0.00385387
0.00381677
0.00381522
0.00381364
0.00384788
0.00381696
0.00381092
0.00384646
0.00381114
0.00381241
0.00381275
0.00384599
0.00381735
0.00374592
0.00377649
0.00381017
0.00377977
0.00377698
0.00381063
0.0038114
0.00381167
0.00378066
0.00376209
0.00376833
0.00375044
0.00374414
0.00374354
0.00377173
0.00381071
0.0038567
0.0114113
0.00382567
0.00375069
0.00378301
0.00381936
0.00381981
0.00385225
0.00385469
0.00385184
0.00385405
0.00385051
0.00382137
0.00378176
0.00381668
0.0038178
0.00381503
0.0038154
0.00381476
0.00384489
0.00384704
0.00381125
0.00381087
0.0038127
0.00384782
0.00382008
0.00378147
0.00381282
0.00381213
0.00381379
0.00384397
0.0038796
0.00381668
0.0038103
0.00387943
0.00381701
0.00381042
0.00387969
0.00381794
0.00374599
0.00374502
0.00374483
0.00376584
0.00379631
0.00380847
0.00381336
0.00381456
0.00378152
0.00374592
0.00374428
0.00374384
0.00374318
0.00376972
0.00380902
0.00385786
0.0114111
0.00382385
0.00374886
0.00378121
0.00381758
0.0038181
0.00385061
0.00385313
0.00385042
0.00385269
0.00384935
0.00382024
0.00378041
0.00381513
0.00381609
0.0038135
0.00381413
0.00381385
0.00384436
0.00384715
0.00378118
0.00377817
0.00381216
0.00384854
0.00382074
0.00377902
0.0038107
0.00381108
0.0038139
0.00384414
0.00387992
0.00381678
0.00381036
0.00387948
0.00381704
0.00381045
0.00387973
0.00381797
0.00374602
0.00374505
0.00374488
0.00376305
0.0037934
0.00380859
0.00381336
0.00381458
0.00378157
0.00374596
0.00374441
0.00374409
0.00374351
0.00377185
0.0038111
0.00385734
0.0114111
0.00382558
0.00375062
0.00378294
0.00381927
0.00381978
0.00385222
0.00385464
0.00385178
0.00385407
0.00385056
0.00382085
0.00381488
0.00385217
0.00381619
0.00381631
0.00381607
0.00381311
0.00381371
0.00381325
0.00384571
0.00381677
0.0038112
0.00388093
0.00381967
0.0037785
0.00381286
0.0038468
0.0038171
0.00381047
0.00384697
0.00384616
0.00381638
0.0038104
0.00387946
0.00381693
0.00381038
0.00384708
0.00378072
0.00374521
0.00374486
0.00374501
0.0037447
0.00377663
0.00379269
0.00375935
0.00377727
0.00378936
0.00375463
0.00374412
0.00374398
0.00376971
0.00380932
0.00385875
0.011411
0.00382382
0.00374882
0.00378116
0.00381752
0.00381808
0.00385058
0.00385317
0.00385037
0.0038527
0.00384941
0.00381969
0.00381348
0.00385054
0.00381451
0.00381479
0.0038148
0.00381192
0.00381309
0.00381286
0.00384567
0.0038169
0.0038108
0.00388217
0.00381948
0.00377823
0.00381268
0.00384686
0.00381718
0.00381054
0.00384756
0.00384626
0.00381643
0.00381045
0.0038795
0.00381697
0.00381046
0.00384713
0.00378075
0.00374524
0.0037449
0.00374505
0.00374462
0.00377665
0.00380878
0.00380966
0.00381186
0.00378144
0.00374672
0.00374536
0.00374491
0.00377174
0.00381127
0.00385821
0.0114111
0.00382552
0.00375055
0.00378287
0.00381921
0.00381981
0.00385218
0.00385463
0.00385167
0.00385407
0.00385054
0.00382136
0.00378165
0.00381641
0.00381722
0.0038145
0.00381514
0.00381517
0.00378151
0.00377761
0.00381219
0.00381323
0.00381103
0.00381291
0.00381396
0.00381146
0.00381291
0.0038144
0.00384705
0.00387947
0.00381586
0.00374604
0.00377618
0.00381168
0.00381272
0.00384393
0.00388016
0.0038178
0.00374597
0.0037449
0.00374487
0.00374487
0.00374494
0.00377637
0.0037879
0.00375459
0.00377726
0.00379343
0.00376004
0.00374566
0.00374401
0.00376954
0.0038097
0.00385998
0.011411
0.00382374
0.00374876
0.00378111
0.00381748
0.00381814
0.00385058
0.0038532
0.00385028
0.00385278
0.00384945
0.00382023
0.00378032
0.00381494
0.00381575
0.00381314
0.00381407
0.00381409
0.00378097
0.00377727
0.00381209
0.00381326
0.00381115
0.00381281
0.00381396
0.00384534
0.00384802
0.00384567
0.00388076
0.00381736
0.0038105
0.00384674
0.00381111
0.00381231
0.00381282
0.00384398
0.00388021
0.00381784
0.003746
0.00374493
0.00374491
0.0037449
0.00374486
0.00377639
0.00380921
0.00377927
0.00377789
0.00378549
0.00375156
0.00374528
0.0037447
0.00377328
0.00381227
0.00385946
0.0114109
0.0038254
0.00375046
0.00378289
0.00381916
0.00381997
0.00381832
0.00381849
0.00381711
0.00385101
0.0038222
0.00374966
0.00378062
0.00381627
0.00381679
0.00384766
0.00385025
0.00378352
0.00374712
0.0037775
0.00381236
0.00381338
0.00381106
0.00381232
0.00384646
0.00381763
0.00377702
0.00381231
0.00381351
0.00384413
0.00384688
0.00384456
0.00384706
0.00384444
0.00384738
0.003811
0.00381222
0.00381307
0.00378009
0.00374533
0.00374503
0.00374478
0.00377665
0.00381032
0.00381107
0.00378053
0.00377797
0.00379347
0.00375937
0.00374542
0.00374548
0.00377203
0.0038105
0.00386172
0.0114108
0.00382369
0.00374871
0.00378116
0.00381745
0.00381832
0.00381674
0.003817
0.00381571
0.00384972
0.00382098
0.00374844
0.00377929
0.00381481
0.00381562
0.00381308
0.00381404
0.00381435
0.00378098
0.00377739
0.00381216
0.00381342
0.00381109
0.00381242
0.00384628
0.00381755
0.00377717
0.00381221
0.0038132
0.0038442
0.00384701
0.00384451
0.0038471
0.00384448
0.00384747
0.00381107
0.00381225
0.0038131
0.00378012
0.00374536
0.00374506
0.00374481
0.00377668
0.00381035
0.00381109
0.00378055
0.00377802
0.00378595
0.00375084
0.00374433
0.00374585
0.00377268
0.00381197
0.00386115
0.0114109
0.00382533
0.00375036
0.00378288
0.00381916
0.00381989
0.00381829
0.00381847
0.00381813
0.00385004
0.00385283
0.00384987
0.00388518
0.00382144
0.00381395
0.00384992
0.00384733
0.00388197
0.00381949
0.00374725
0.00377701
0.00381197
0.00384552
0.00381656
0.00381064
0.00384726
0.00381105
0.00381212
0.00384579
0.00381713
0.00374593
0.00377603
0.0038116
0.00381273
0.00384404
0.00384741
0.00378064
0.00374512
0.00377597
0.00381187
0.00381335
0.00378012
0.00377666
0.00381248
0.00381427
0.00378118
0.00374586
0.00375008
0.00374825
0.00374425
0.00374536
0.00377468
0.00381081
0.0038642
0.0114108
0.00382358
0.00374862
0.00378118
0.00381749
0.00381827
0.00381674
0.003817
0.00381678
0.00384879
0.00385165
0.00384867
0.00388392
0.00382011
0.00381266
0.00384878
0.00384637
0.00388107
0.00381883
0.00374682
0.00377673
0.00381217
0.00381308
0.00384628
0.00381766
0.00374588
0.00377609
0.00381152
0.00384581
0.00381717
0.00374596
0.00377606
0.00381163
0.00381275
0.00384404
0.00384745
0.00378066
0.00374515
0.00377599
0.0038119
0.00381338
0.00378
0.00377667
0.00381244
0.00381406
0.00378086
0.00374589
0.00374572
0.00374472
0.00374442
0.00374637
0.00377161
0.00381665
0.00386447
0.0114107
0.00382516
0.00375041
0.00376092
0.00379409
0.0038188
0.00381909
0.00385143
0.00385391
0.00385063
0.00388569
0.00382159
0.00381447
0.00385122
0.00384863
0.00385056
0.00384735
0.00384948
0.00384633
0.00384801
0.00384516
0.00384865
0.00381365
0.00384624
0.00381756
0.00374621
0.00374807
0.00377894
0.0038118
0.00381263
0.00384394
0.00387988
0.00381741
0.00377695
0.00381164
0.00381272
0.00384397
0.00384749
0.00381095
0.00381238
0.00381325
0.00378008
0.00377661
0.00381246
0.00381423
0.00378138
0.00374603
0.00375011
0.0037492
0.00374465
0.00374385
0.00377708
0.00381166
0.00386779
0.0114106
0.00382352
0.00374872
0.00376191
0.00379524
0.00381728
0.00381759
0.00384992
0.00385254
0.00384939
0.00388451
0.00382041
0.00381323
0.00384991
0.00384737
0.00384941
0.00384635
0.0038485
0.00384563
0.0038475
0.00384484
0.00384851
0.0038136
0.00384637
0.00381738
0.00374618
0.00374489
0.00377592
0.00381179
0.00381266
0.00384387
0.0038799
0.00381744
0.00377698
0.00381167
0.00381272
0.003844
0.00384752
0.00381098
0.00381241
0.00381337
0.00377998
0.0037767
0.00381248
0.00381414
0.0037812
0.00374646
0.00374511
0.00374498
0.00374479
0.00374478
0.00377502
0.00382242
0.00386854