/*--------------------------------*- C++ -*----------------------------------*\
| =========                 |                                                 |
| \\      /  F ield         | OpenFOAM: The Open Source CFD Toolbox           |
|  \\    /   O peration     | Version:  4.1                                   |
|   \\  /    A nd           | Web:      www.OpenFOAM.org                      |
|    \\/     M anipulation  |                                                 |
\*---------------------------------------------------------------------------*/
FoamFile
{
    version     2.0;
    format      ascii;
    class       volScalarField;
    location    "2";
    object      nut;
}
// * * * * * * * * * * * * * * * * * * * * * * * * * * * * * * * * * * * * * //

dimensions      [0 2 -1 0 0 0 0];

internalField   nonuniform List<scalar> 
4432
(
29.9104
42.8206
46.7089
50.1221
53.5464
55.8191
59.7498
58.8942
68.5369
43.7355
53.558
45.6431
74.285
58.3263
47.7721
76.5291
59.9045
72.126
59.6053
49.0264
71.1364
69.5863
79.5269
62.1754
50.3113
76.5124
50.9478
40.9468
51.6147
64.891
54.1735
68.0901
45.5296
55.0371
47.4738
78.9296
47.2084
57.1096
70.7898
58.3373
54.8708
48.5638
45.6824
42.1821
44.2813
36.7776
53.3666
57.1197
62.3443
66.8598
76.8041
90.0839
123.875
42.4826
30.0107
42.7176
46.5761
49.9436
53.3217
55.567
59.4494
58.6197
68.1644
54.477
47.1783
57.6243
71.0451
56.4597
47.597
73.5189
58.0082
69.994
58.0729
48.3721
70.1746
68.8767
78.9416
61.8105
50.1984
76.5388
51.003
40.9794
51.767
65.2437
54.4743
68.5877
45.7059
55.3812
47.672
79.7013
61.6453
49.1499
79.7889
61.9527
55.5448
48.1677
45.2217
41.9037
44.0336
36.7947
52.9632
56.5297
61.1255
64.0927
75.454
77.7521
105.61
41.7958
7.07011e-05
8.92801e-06
8.59563e-06
8.59572e-06
8.59301e-06
8.59037e-06
8.5897e-06
8.59123e-06
8.73013e-06
8.91218e-06
8.93466e-06
9.08333e-06
8.92859e-06
8.92759e-06
9.07366e-06
9.04195e-06
9.05296e-06
8.86483e-06
8.88229e-06
9.02415e-06
8.88158e-06
8.55412e-06
8.69099e-06
8.88355e-06
8.8915e-06
9.04138e-06
8.92332e-06
8.89862e-06
9.07544e-06
9.05287e-06
9.09027e-06
9.064e-06
8.93727e-06
8.92236e-06
9.07495e-06
9.05029e-06
9.0931e-06
8.79237e-06
8.61103e-06
8.78676e-06
8.94126e-06
8.94076e-06
8.79031e-06
8.65129e-06
8.83984e-06
8.93846e-06
8.93282e-06
9.26644e-06
9.79305e-06
1.09073e-05
1.30386e-05
1.65546e-05
1.07581e-05
0.000133079
7.06991e-05
8.9175e-06
8.58518e-06
8.58536e-06
8.58273e-06
8.58025e-06
8.57975e-06
8.58168e-06
8.72153e-06
8.9073e-06
8.90222e-06
9.06776e-06
8.91883e-06
8.91312e-06
9.06512e-06
9.03426e-06
9.05537e-06
8.86071e-06
8.88345e-06
9.02334e-06
8.88334e-06
8.55518e-06
8.69372e-06
8.87447e-06
8.8767e-06
8.88438e-06
8.90846e-06
9.05674e-06
9.08018e-06
9.05478e-06
9.09237e-06
9.06566e-06
8.93904e-06
8.92421e-06
9.07686e-06
9.05239e-06
9.1028e-06
8.77304e-06
8.74547e-06
8.94454e-06
9.0959e-06
8.95766e-06
8.63155e-06
8.64876e-06
8.83837e-06
8.93752e-06
8.98817e-06
9.27247e-06
9.73737e-06
1.09178e-05
1.27329e-05
1.68257e-05
9.81568e-06
0.00012962
7.05533e-05
8.86624e-06
8.52424e-06
8.52092e-06
8.52084e-06
8.5207e-06
8.51969e-06
8.5822e-06
8.72582e-06
8.81903e-06
8.96713e-06
8.83931e-06
8.51108e-06
8.64167e-06
8.79579e-06
8.80277e-06
8.94493e-06
8.9572e-06
8.95489e-06
8.81987e-06
8.63379e-06
8.79119e-06
8.9448e-06
8.81475e-06
8.78656e-06
8.95183e-06
8.65e-06
8.63154e-06
8.78849e-06
8.95113e-06
8.81814e-06
8.63083e-06
8.79056e-06
8.79647e-06
8.94539e-06
8.96452e-06
8.953e-06
8.82007e-06
8.63931e-06
8.7958e-06
8.80101e-06
8.9431e-06
8.96001e-06
8.65973e-06
8.50055e-06
8.64886e-06
8.67769e-06
8.66308e-06
8.69911e-06
8.73409e-06
8.78163e-06
8.69125e-06
8.81466e-06
9.45579e-06
7.0552e-05
8.85802e-06
8.51611e-06
8.51287e-06
8.51287e-06
8.51281e-06
8.51176e-06
8.59425e-06
8.73958e-06
8.81236e-06
8.9603e-06
8.83311e-06
8.50602e-06
8.63795e-06
8.79383e-06
8.80069e-06
8.94395e-06
8.95596e-06
8.95514e-06
8.81988e-06
8.63396e-06
8.79133e-06
8.94494e-06
8.8149e-06
8.78752e-06
8.95259e-06
8.65024e-06
8.63175e-06
8.78869e-06
8.95135e-06
8.81835e-06
8.63103e-06
8.79077e-06
8.79667e-06
8.94561e-06
8.96472e-06
8.95321e-06
8.82025e-06
8.64018e-06
8.79632e-06
8.80158e-06
8.94326e-06
8.96005e-06
8.65971e-06
8.49989e-06
8.64669e-06
8.72075e-06
8.67975e-06
8.65105e-06
8.69719e-06
8.71391e-06
8.6371e-06
8.79845e-06
9.44562e-06
7.05536e-05
8.8663e-06
8.52433e-06
8.521e-06
8.52038e-06
8.5754e-06
8.57685e-06
8.56971e-06
8.71207e-06
8.81991e-06
8.82211e-06
8.67013e-06
8.50788e-06
8.49697e-06
8.63226e-06
8.79019e-06
8.79285e-06
8.94247e-06
8.95923e-06
8.94343e-06
9.10444e-06
8.82024e-06
8.49277e-06
8.62572e-06
8.78958e-06
8.79628e-06
8.949e-06
8.81221e-06
8.78396e-06
9.10176e-06
8.81109e-06
8.78804e-06
8.96068e-06
8.94832e-06
8.96705e-06
8.80605e-06
8.81902e-06
8.96733e-06
8.81414e-06
8.78546e-06
8.95685e-06
8.79439e-06
8.80119e-06
8.80445e-06
8.65768e-06
8.64823e-06
8.69841e-06
8.55977e-06
8.66895e-06
8.68467e-06
8.54212e-06
8.62839e-06
8.85201e-06
9.08072e-06
7.05524e-05
8.85814e-06
8.51619e-06
8.51294e-06
8.51199e-06
8.61155e-06
8.6175e-06
8.58556e-06
8.72919e-06
8.81346e-06
8.81561e-06
8.6642e-06
8.50239e-06
8.522e-06
8.65641e-06
8.79298e-06
8.79492e-06
8.94193e-06
9.10743e-06
8.80762e-06
8.78619e-06
8.95914e-06
8.64972e-06
8.63107e-06
8.78977e-06
8.79614e-06
8.94966e-06
8.81251e-06
8.78418e-06
8.95331e-06
8.78738e-06
8.79329e-06
8.80026e-06
8.94591e-06
8.9672e-06
8.80622e-06
8.82179e-06
8.9703e-06
8.81451e-06
8.78635e-06
8.95783e-06
8.79448e-06
8.80127e-06
8.8048e-06
8.65747e-06
8.64673e-06
8.72874e-06
8.59219e-06
8.65557e-06
8.7182e-06
8.57848e-06
8.65797e-06
8.85301e-06
9.07819e-06
7.05547e-05
8.86653e-06
8.52446e-06
8.52107e-06
8.52099e-06
8.5204e-06
8.57739e-06
8.72178e-06
8.81834e-06
8.82036e-06
8.66853e-06
8.5049e-06
8.61227e-06
8.75823e-06
8.80551e-06
8.95672e-06
8.8215e-06
8.4913e-06
8.63025e-06
8.79173e-06
8.80244e-06
8.64966e-06
8.49136e-06
8.62997e-06
8.79063e-06
8.79815e-06
8.79922e-06
8.95013e-06
8.81614e-06
8.63553e-06
8.79403e-06
8.95194e-06
8.8154e-06
8.63228e-06
8.79121e-06
8.79907e-06
8.80106e-06
8.8129e-06
8.96561e-06
8.81456e-06
8.78612e-06
8.95594e-06
8.94839e-06
8.96277e-06
8.66219e-06
8.64941e-06
8.66983e-06
8.52116e-06
8.65786e-06
8.69984e-06
8.54236e-06
8.62111e-06
8.76639e-06
9.0595e-06
7.05533e-05
8.85819e-06
8.51622e-06
8.51293e-06
8.51295e-06
8.51232e-06
8.58785e-06
8.73368e-06
8.8153e-06
8.8175e-06
8.66203e-06
8.49886e-06
8.61487e-06
8.76212e-06
8.80087e-06
8.95073e-06
8.81548e-06
8.4945e-06
8.63382e-06
8.79203e-06
8.79864e-06
8.64853e-06
8.48997e-06
8.62598e-06
8.79409e-06
8.80471e-06
8.95452e-06
9.11139e-06
8.82255e-06
8.63933e-06
8.79342e-06
8.95201e-06
8.81979e-06
8.63636e-06
8.79114e-06
8.8032e-06
8.80503e-06
8.81339e-06
8.96611e-06
8.81472e-06
8.78624e-06
8.95602e-06
8.94842e-06
8.96234e-06
8.66095e-06
8.64665e-06
8.72607e-06
8.71604e-06
8.74855e-06
8.63113e-06
8.52807e-06
8.60905e-06
8.77455e-06
9.05776e-06
7.05551e-05
8.86676e-06
8.52426e-06
8.56941e-06
8.71672e-06
8.82508e-06
8.82736e-06
8.82274e-06
8.81994e-06
8.82137e-06
8.66975e-06
8.5048e-06
8.65027e-06
8.81061e-06
8.95945e-06
8.82877e-06
8.63893e-06
8.78994e-06
8.79336e-06
8.78234e-06
8.79513e-06
8.80159e-06
8.94635e-06
9.11172e-06
8.81785e-06
8.63248e-06
8.79038e-06
8.798e-06
8.78532e-06
8.79248e-06
8.80548e-06
8.94926e-06
9.11491e-06
8.82341e-06
8.63193e-06
8.79265e-06
8.79955e-06
8.79991e-06
8.9533e-06
8.8149e-06
8.78652e-06
8.95675e-06
8.79603e-06
8.80361e-06
8.81015e-06
8.66162e-06
8.64616e-06
8.79715e-06
8.7346e-06
8.59538e-06
8.49882e-06
8.59946e-06
8.7759e-06
9.03868e-06
7.05538e-05
8.85842e-06
8.51583e-06
8.57589e-06
8.72404e-06
8.82138e-06
8.82354e-06
8.81513e-06
8.81263e-06
8.81322e-06
8.66215e-06
8.49905e-06
8.64058e-06
8.79995e-06
8.9553e-06
8.82508e-06
8.6376e-06
8.7887e-06
8.79354e-06
8.78252e-06
8.79521e-06
8.80194e-06
8.94662e-06
9.11186e-06
8.81751e-06
8.63261e-06
8.79194e-06
8.7984e-06
8.7856e-06
8.79395e-06
8.80485e-06
8.94946e-06
9.11511e-06
8.82362e-06
8.63211e-06
8.79284e-06
8.79972e-06
8.80008e-06
8.95348e-06
8.81505e-06
8.78666e-06
8.95686e-06
8.79614e-06
8.8039e-06
8.8097e-06
8.6615e-06
8.50367e-06
8.54458e-06
8.58726e-06
8.54606e-06
8.49285e-06
8.59885e-06
8.78718e-06
9.03674e-06
7.05563e-05
8.86713e-06
8.52472e-06
8.55173e-06
8.69837e-06
8.8248e-06
8.82731e-06
8.67839e-06
8.51166e-06
8.52256e-06
8.67045e-06
8.8158e-06
8.81598e-06
8.80922e-06
8.81097e-06
8.80155e-06
8.93726e-06
8.95632e-06
8.947e-06
8.95481e-06
8.94437e-06
8.95655e-06
8.94641e-06
9.11455e-06
8.82514e-06
8.49391e-06
8.48725e-06
8.62969e-06
8.78587e-06
8.79406e-06
8.65155e-06
8.63742e-06
8.79691e-06
8.80196e-06
8.94778e-06
9.1117e-06
8.82067e-06
8.79057e-06
8.96047e-06
8.95997e-06
9.12166e-06
8.82473e-06
8.63859e-06
8.80123e-06
8.81104e-06
8.6599e-06
8.49928e-06
8.62552e-06
8.68412e-06
8.54928e-06
8.48837e-06
8.59742e-06
8.78018e-06
9.02368e-06
7.05547e-05
8.85859e-06
8.51612e-06
8.56163e-06
8.70903e-06
8.82107e-06
8.82346e-06
8.67077e-06
8.50433e-06
8.5613e-06
8.71149e-06
8.81041e-06
8.80986e-06
8.80312e-06
8.8054e-06
8.79771e-06
8.93566e-06
8.95509e-06
8.94727e-06
8.95613e-06
8.65276e-06
8.63499e-06
8.79313e-06
8.95278e-06
8.822e-06
8.49299e-06
8.62824e-06
8.79157e-06
8.79848e-06
8.65059e-06
8.54802e-06
8.68865e-06
8.79804e-06
8.80216e-06
8.948e-06
9.11187e-06
8.82083e-06
8.79072e-06
8.9606e-06
8.9601e-06
9.12176e-06
8.82481e-06
8.63868e-06
8.80081e-06
8.80974e-06
8.65752e-06
8.49635e-06
8.51296e-06
8.53007e-06
8.5153e-06
8.49896e-06
8.61092e-06
8.79359e-06
9.02177e-06
7.05567e-05
8.86733e-06
8.52518e-06
8.52164e-06
8.52138e-06
8.52042e-06
8.56994e-06
8.71345e-06
8.81735e-06
8.82326e-06
8.67438e-06
8.65283e-06
8.815e-06
8.81492e-06
8.80644e-06
8.80581e-06
8.79548e-06
8.78069e-06
8.78868e-06
8.94647e-06
8.81264e-06
8.79181e-06
8.96058e-06
8.94977e-06
8.96519e-06
8.94849e-06
8.95507e-06
8.93972e-06
8.95844e-06
8.94893e-06
8.95222e-06
8.94907e-06
8.96686e-06
8.79373e-06
8.79564e-06
8.8011e-06
8.94526e-06
8.9637e-06
8.80377e-06
8.80699e-06
8.80889e-06
8.95922e-06
8.82e-06
8.78923e-06
8.96158e-06
8.65855e-06
8.49306e-06
8.56705e-06
8.6028e-06
8.51963e-06
8.49595e-06
8.60484e-06
8.78371e-06
9.01367e-06
7.05552e-05
8.85876e-06
8.5167e-06
8.5133e-06
8.51324e-06
8.51222e-06
8.58551e-06
8.73083e-06
8.81076e-06
8.81686e-06
8.66851e-06
8.64705e-06
8.80895e-06
8.80861e-06
8.79977e-06
8.80232e-06
8.79684e-06
8.78392e-06
8.79269e-06
8.95108e-06
8.81291e-06
8.78378e-06
8.95245e-06
8.94967e-06
8.96493e-06
8.94807e-06
8.96186e-06
8.79321e-06
8.79704e-06
8.94902e-06
8.81028e-06
8.789e-06
8.96415e-06
8.79388e-06
8.79583e-06
8.80128e-06
8.94544e-06
8.96386e-06
8.80392e-06
8.80713e-06
8.80903e-06
8.95935e-06
8.8201e-06
8.7893e-06
8.96137e-06
8.65773e-06
8.49742e-06
8.49624e-06
8.49143e-06
8.49287e-06
8.49816e-06
8.61475e-06
8.79481e-06
9.01153e-06
7.05575e-05
8.86761e-06
8.52541e-06
8.52182e-06
8.52145e-06
8.51647e-06
8.55385e-06
8.70164e-06
8.81795e-06
8.8147e-06
8.67141e-06
8.5087e-06
8.64784e-06
8.81485e-06
8.81779e-06
8.95259e-06
8.95724e-06
8.79911e-06
8.79511e-06
8.79472e-06
8.94621e-06
8.81123e-06
8.78517e-06
8.95195e-06
8.95882e-06
8.97789e-06
8.95771e-06
9.11799e-06
8.82444e-06
8.79199e-06
8.95612e-06
8.7945e-06
8.80763e-06
8.80774e-06
8.65007e-06
8.6333e-06
8.79227e-06
8.79548e-06
8.8064e-06
8.81095e-06
8.80439e-06
8.95836e-06
8.81992e-06
8.79216e-06
8.96526e-06
8.65799e-06
8.49301e-06
8.5415e-06
8.56103e-06
8.50076e-06
8.50136e-06
8.60798e-06
8.78447e-06
9.00681e-06
7.05558e-05
8.85889e-06
8.51681e-06
8.51337e-06
8.51319e-06
8.50822e-06
8.57215e-06
8.72094e-06
8.81053e-06
8.80835e-06
8.66558e-06
8.50301e-06
8.64167e-06
8.80804e-06
8.81092e-06
8.94747e-06
8.95464e-06
8.79814e-06
8.79386e-06
8.94502e-06
8.81158e-06
8.78308e-06
9.10853e-06
8.81953e-06
8.79563e-06
8.96513e-06
8.65874e-06
8.49768e-06
8.64303e-06
8.80153e-06
8.95198e-06
8.81562e-06
8.7947e-06
8.96476e-06
8.65359e-06
8.63357e-06
8.79197e-06
8.79553e-06
8.80653e-06
8.81108e-06
8.8045e-06
8.95846e-06
8.82003e-06
8.79218e-06
8.9648e-06
8.65769e-06
8.49717e-06
8.49338e-06
8.49528e-06
8.49769e-06
8.48934e-06
8.61784e-06
8.79523e-06
9.0047e-06
7.05577e-05
8.86773e-06
8.5255e-06
8.52187e-06
8.52142e-06
8.51678e-06
8.50795e-06
8.50805e-06
8.50669e-06
8.49998e-06
8.49825e-06
8.651e-06
8.819e-06
8.82112e-06
8.81275e-06
8.81455e-06
8.80301e-06
8.95077e-06
8.80708e-06
8.78575e-06
8.95749e-06
8.94681e-06
8.96032e-06
8.95003e-06
8.97652e-06
8.97556e-06
8.98222e-06
8.79803e-06
8.7983e-06
8.79896e-06
8.94924e-06
8.8213e-06
8.63788e-06
8.78894e-06
8.94289e-06
8.81646e-06
8.79136e-06
8.96129e-06
8.81241e-06
8.81093e-06
8.80436e-06
8.95825e-06
8.8212e-06
8.79186e-06
8.9624e-06
8.65535e-06
8.49895e-06
8.50258e-06
8.50674e-06
8.49177e-06
8.49808e-06
8.60982e-06
8.78485e-06
9.00222e-06
7.0556e-05
8.85899e-06
8.51689e-06
8.51341e-06
8.51315e-06
8.50877e-06
8.50029e-06
8.49994e-06
8.49917e-06
8.49284e-06
8.62766e-06
8.78995e-06
8.81533e-06
8.81405e-06
8.80255e-06
8.805e-06
8.79615e-06
8.94064e-06
8.80714e-06
8.78148e-06
8.94957e-06
8.94315e-06
8.95665e-06
8.95265e-06
8.97319e-06
8.97307e-06
8.98009e-06
8.95047e-06
8.96634e-06
8.94624e-06
9.10643e-06
8.82218e-06
8.64239e-06
8.79733e-06
8.94776e-06
8.8166e-06
8.79059e-06
8.96133e-06
8.81256e-06
8.81108e-06
8.8045e-06
8.95839e-06
8.82138e-06
8.79196e-06
8.96248e-06
8.6554e-06
8.49913e-06
8.49627e-06
8.49842e-06
8.49813e-06
8.48961e-06
8.61889e-06
8.7944e-06
9.00001e-06
7.05579e-05
8.8679e-06
8.52561e-06
8.52199e-06
8.52144e-06
8.51678e-06
8.51176e-06
8.50655e-06
8.50485e-06
8.50601e-06
8.64628e-06
8.81383e-06
8.97409e-06
8.84149e-06
8.51024e-06
8.64793e-06
8.80629e-06
8.80401e-06
8.93958e-06
9.10097e-06
8.81918e-06
8.79684e-06
8.96519e-06
8.95911e-06
8.99553e-06
8.98873e-06
8.98672e-06
8.80356e-06
8.79613e-06
8.79893e-06
8.94091e-06
8.95599e-06
8.9436e-06
8.96095e-06
8.95556e-06
8.81984e-06
8.63285e-06
8.79549e-06
8.81061e-06
8.81344e-06
8.96292e-06
8.82231e-06
8.63799e-06
8.79836e-06
8.95861e-06
8.83104e-06
8.50325e-06
8.49536e-06
8.49609e-06
8.49293e-06
8.49587e-06
8.61065e-06
8.7845e-06
8.99911e-06
7.05563e-05
8.85911e-06
8.51693e-06
8.51341e-06
8.51312e-06
8.50873e-06
8.50406e-06
8.49935e-06
8.49793e-06
8.53569e-06
8.67698e-06
8.80857e-06
8.9675e-06
8.8345e-06
8.5033e-06
8.64182e-06
8.79813e-06
8.79476e-06
8.79399e-06
8.94781e-06
8.82113e-06
8.7931e-06
8.9622e-06
8.95851e-06
9.00035e-06
8.97721e-06
8.98301e-06
8.80557e-06
8.80537e-06
8.95386e-06
8.82645e-06
8.6431e-06
8.79549e-06
8.80182e-06
8.95499e-06
8.82011e-06
8.63399e-06
8.79585e-06
8.81072e-06
8.81357e-06
8.96307e-06
8.82242e-06
8.63811e-06
8.79846e-06
8.95429e-06
8.82679e-06
8.50342e-06
8.49811e-06
8.49469e-06
8.49336e-06
8.48975e-06
8.61957e-06
8.79376e-06
8.99693e-06
7.05579e-05
8.86782e-06
8.5256e-06
8.52199e-06
8.51744e-06
8.50879e-06
8.50827e-06
8.50699e-06
8.50071e-06
8.50183e-06
8.65002e-06
8.8096e-06
8.97005e-06
8.84215e-06
8.80759e-06
8.96923e-06
8.66492e-06
8.63768e-06
8.78872e-06
8.94034e-06
8.80637e-06
8.63654e-06
8.80634e-06
8.83239e-06
9.01111e-06
8.87628e-06
8.82299e-06
9.11289e-06
9.11623e-06
8.82518e-06
8.7902e-06
8.9606e-06
8.95689e-06
8.81623e-06
8.78101e-06
8.95051e-06
8.79165e-06
8.8052e-06
8.8102e-06
8.81251e-06
8.96188e-06
8.81889e-06
8.79214e-06
8.96947e-06
8.65874e-06
8.64167e-06
8.7993e-06
8.72972e-06
8.57681e-06
8.49556e-06
8.49192e-06
8.61109e-06
8.78431e-06
8.99721e-06
7.05562e-05
8.85909e-06
8.51696e-06
8.51348e-06
8.5092e-06
8.50473e-06
8.504e-06
8.4993e-06
8.49393e-06
8.53381e-06
8.68316e-06
8.80589e-06
8.81121e-06
8.9746e-06
8.83735e-06
8.50235e-06
8.63877e-06
8.79508e-06
8.79259e-06
8.93442e-06
8.94718e-06
8.79613e-06
8.80795e-06
8.99667e-06
8.84796e-06
8.82281e-06
8.98084e-06
8.95846e-06
9.11163e-06
8.81991e-06
8.63612e-06
8.79218e-06
8.94881e-06
8.81629e-06
8.78523e-06
8.95464e-06
8.79466e-06
8.80663e-06
8.81048e-06
8.81281e-06
8.96219e-06
8.81905e-06
8.79232e-06
8.96963e-06
8.66011e-06
8.49551e-06
8.53949e-06
8.57548e-06
8.53147e-06
8.49475e-06
8.49023e-06
8.61981e-06
8.79308e-06
8.99497e-06
7.05576e-05
8.86645e-06
8.67221e-06
8.8327e-06
8.83468e-06
8.9813e-06
9.14387e-06
8.84383e-06
8.51311e-06
8.50703e-06
8.49764e-06
8.65065e-06
8.81564e-06
8.81652e-06
8.9658e-06
8.97888e-06
8.9564e-06
8.95721e-06
8.94304e-06
8.81062e-06
8.63664e-06
8.80647e-06
8.98476e-06
8.87392e-06
8.8395e-06
9.17551e-06
8.85668e-06
8.79894e-06
9.10104e-06
8.82113e-06
8.49983e-06
8.63792e-06
8.79669e-06
8.79961e-06
8.94353e-06
8.9629e-06
8.79801e-06
8.79916e-06
8.80154e-06
8.94297e-06
9.11399e-06
8.82919e-06
8.64106e-06
8.7986e-06
8.80574e-06
8.7962e-06
8.80232e-06
8.80912e-06
8.66014e-06
8.4964e-06
8.49044e-06
8.61266e-06
8.78523e-06
8.997e-06
7.05559e-05
8.85776e-06
8.66331e-06
8.82388e-06
8.82613e-06
8.97292e-06
9.13568e-06
8.83637e-06
8.5066e-06
8.50013e-06
8.61419e-06
8.77492e-06
8.8119e-06
8.80417e-06
8.96444e-06
8.83393e-06
8.6473e-06
8.79534e-06
8.79458e-06
8.7854e-06
8.80017e-06
8.80721e-06
8.81689e-06
8.84915e-06
9.01088e-06
8.87661e-06
8.67522e-06
8.78993e-06
8.93979e-06
8.81314e-06
8.5003e-06
8.63495e-06
8.79708e-06
8.80032e-06
8.94584e-06
8.9603e-06
8.95628e-06
9.12631e-06
8.82579e-06
8.79133e-06
9.11603e-06
8.82931e-06
8.64119e-06
8.79873e-06
8.80589e-06
8.79623e-06
8.80237e-06
8.80954e-06
8.66088e-06
8.49708e-06
8.49041e-06
8.62091e-06
8.79347e-06
8.99475e-06
7.05451e-05
9.01486e-06
8.81336e-06
8.6607e-06
8.66755e-06
8.8266e-06
8.97732e-06
8.84502e-06
8.81555e-06
9.13694e-06
8.84253e-06
8.65486e-06
8.81594e-06
8.82083e-06
8.96268e-06
8.9779e-06
8.96451e-06
8.97024e-06
8.79447e-06
8.7907e-06
8.95895e-06
8.85046e-06
8.64024e-06
8.80576e-06
9.23113e-06
9.18404e-06
9.24134e-06
8.9583e-06
8.91982e-06
8.81181e-06
8.80943e-06
8.98106e-06
8.97317e-06
9.14019e-06
8.84276e-06
8.50271e-06
8.49246e-06
8.60998e-06
8.76497e-06
8.80511e-06
8.80408e-06
8.65457e-06
8.64054e-06
8.80037e-06
8.80526e-06
8.96037e-06
8.97834e-06
8.66268e-06
8.49568e-06
8.49283e-06
8.49067e-06
8.60844e-06
8.78094e-06
8.99825e-06
7.05556e-05
8.85467e-06
8.50826e-06
8.56294e-06
8.71416e-06
8.8194e-06
8.9694e-06
8.83766e-06
8.80484e-06
8.96957e-06
8.66653e-06
8.65042e-06
8.80858e-06
8.95996e-06
8.83356e-06
8.6532e-06
8.79887e-06
8.80365e-06
8.78919e-06
8.79039e-06
8.79855e-06
8.94816e-06
8.95239e-06
9.41835e-06
9.36255e-06
9.16495e-06
9.27298e-06
8.94944e-06
8.80535e-06
8.80763e-06
8.96681e-06
8.97869e-06
8.96898e-06
9.13524e-06
8.83931e-06
8.49997e-06
8.63681e-06
8.79622e-06
8.80656e-06
8.95584e-06
8.96262e-06
8.65683e-06
8.64032e-06
8.80023e-06
8.80541e-06
8.96065e-06
8.9808e-06
8.66516e-06
8.49659e-06
8.49405e-06
8.49067e-06
8.62711e-06
8.80083e-06
8.99623e-06
7.05566e-05
8.86205e-06
8.66807e-06
8.82833e-06
8.83449e-06
8.98552e-06
9.14386e-06
8.85065e-06
8.66219e-06
8.81693e-06
8.81935e-06
8.96764e-06
8.98281e-06
8.96694e-06
9.13464e-06
8.85153e-06
8.52278e-06
8.50865e-06
8.63797e-06
8.79302e-06
8.81156e-06
8.8592e-06
9.11777e-06
1.10952e-05
7.96605e-05
9.39502e-06
8.76858e-06
8.66833e-06
8.78296e-06
8.80637e-06
8.82094e-06
8.8141e-06
8.9716e-06
8.84702e-06
8.50872e-06
8.5001e-06
8.64146e-06
8.80388e-06
8.96387e-06
8.82794e-06
8.79313e-06
8.97041e-06
8.9606e-06
8.96757e-06
8.9547e-06
8.96762e-06
8.95996e-06
8.8228e-06
8.64299e-06
8.80498e-06
8.81513e-06
8.98307e-06
8.99124e-06
8.98735e-06
7.1317e-05
9.05322e-06
8.65468e-06
8.82256e-06
8.98391e-06
8.84303e-06
8.80938e-06
8.98462e-06
8.81469e-06
8.8097e-06
8.81108e-06
8.66028e-06
8.64392e-06
8.80624e-06
8.8113e-06
8.80366e-06
8.80223e-06
8.80481e-06
8.79014e-06
8.79177e-06
8.66658e-06
8.75537e-06
9.44274e-06
9.97447e-06
9.81123e-05
8.98992e-06
8.69106e-06
8.77512e-06
8.79845e-06
8.8106e-06
8.97033e-06
8.97587e-06
8.81498e-06
8.80745e-06
8.96438e-06
8.83423e-06
8.64736e-06
8.80223e-06
8.80539e-06
8.95407e-06
8.96754e-06
8.95545e-06
8.9668e-06
8.95444e-06
8.96583e-06
8.95492e-06
8.96874e-06
8.96381e-06
8.98043e-06
8.97466e-06
9.1567e-06
8.84704e-06
8.65574e-06
8.99398e-06
7.12471e-05
9.22272e-06
8.70033e-06
8.5233e-06
8.66579e-06
8.82634e-06
8.97712e-06
8.84485e-06
8.81121e-06
8.97596e-06
8.67211e-06
8.65226e-06
8.80813e-06
8.82194e-06
8.9677e-06
8.97578e-06
8.96241e-06
9.11864e-06
8.82545e-06
8.64252e-06
8.81489e-06
8.84849e-06
9.35782e-06
1.08912e-05
8.91782e-06
8.70734e-06
8.79371e-06
8.80155e-06
8.80741e-06
8.97529e-06
9.14444e-06
8.84936e-06
8.81612e-06
8.98825e-06
8.97271e-06
9.12776e-06
8.83773e-06
8.65199e-06
8.80728e-06
8.81016e-06
8.95859e-06
8.97254e-06
8.95567e-06
8.97226e-06
8.80191e-06
8.79875e-06
8.95731e-06
8.82874e-06
8.64616e-06
8.8e-06
8.82035e-06
9.00233e-06
9.17621e-06
7.04714e-05
9.16825e-06
9.16347e-06
8.84617e-06
8.81346e-06
9.14592e-06
8.84321e-06
8.50723e-06
8.50068e-06
8.63767e-06
8.8015e-06
8.81506e-06
8.66507e-06
8.64593e-06
8.80401e-06
8.80263e-06
8.80181e-06
8.95222e-06
8.82463e-06
8.79327e-06
8.9648e-06
8.91081e-06
1.01461e-05
8.65317e-06
9.33061e-06
8.89602e-06
8.65888e-06
8.65502e-06
8.8113e-06
8.81578e-06
8.81896e-06
8.81691e-06
8.81574e-06
8.96639e-06
8.97564e-06
8.80898e-06
8.80902e-06
8.80691e-06
8.80182e-06
8.80593e-06
8.80351e-06
8.96135e-06
8.823e-06
8.49332e-06
8.49278e-06
8.4881e-06
8.54484e-06
8.55186e-06
8.49374e-06
8.6509e-06
8.82464e-06
8.8216e-06
8.97763e-06
7.05423e-05
9.02424e-06
8.69079e-06
8.8261e-06
9.00265e-06
8.67907e-06
8.65976e-06
8.83089e-06
8.82761e-06
8.97113e-06
9.1378e-06
8.8363e-06
8.80091e-06
8.98114e-06
8.97511e-06
8.9765e-06
8.95865e-06
9.11832e-06
9.11355e-06
8.82172e-06
8.79066e-06
8.95585e-06
8.70476e-06
9.25657e-06
9.64748e-06
8.93223e-06
8.76664e-06
8.65931e-06
8.77132e-06
8.79758e-06
8.81284e-06
8.81214e-06
8.96866e-06
8.981e-06
8.96794e-06
8.97757e-06
8.96354e-06
9.12368e-06
8.82883e-06
8.79993e-06
8.96761e-06
8.95789e-06
8.96723e-06
8.96234e-06
8.82222e-06
8.79044e-06
8.96761e-06
8.65936e-06
8.4965e-06
8.49315e-06
8.49059e-06
8.61391e-06
8.78756e-06
8.99886e-06
7.05407e-05
9.01562e-06
8.68218e-06
8.81757e-06
8.99421e-06
8.67121e-06
8.65232e-06
8.82359e-06
8.82113e-06
8.96512e-06
9.13195e-06
8.83446e-06
8.49936e-06
8.64729e-06
8.81002e-06
8.80497e-06
8.95292e-06
9.1155e-06
8.82241e-06
8.64305e-06
8.7913e-06
8.80304e-06
8.82917e-06
9.59598e-06
1.00771e-05
8.95629e-06
8.94803e-06
8.97311e-06
9.06577e-06
8.76458e-06
8.79822e-06
8.97417e-06
8.66552e-06
8.64342e-06
8.80523e-06
8.80793e-06
8.9569e-06
8.96742e-06
8.80117e-06
8.80754e-06
8.80477e-06
8.95338e-06
8.96559e-06
8.9613e-06
8.82591e-06
8.48929e-06
8.48454e-06
8.48453e-06
8.49285e-06
8.49414e-06
8.49152e-06
8.62109e-06
8.79457e-06
8.99656e-06
7.05543e-05
8.86536e-06
8.67138e-06
8.83186e-06
8.83376e-06
8.98105e-06
8.98805e-06
8.9744e-06
8.84216e-06
8.81728e-06
8.98691e-06
8.81566e-06
8.81901e-06
8.81573e-06
8.97383e-06
8.84581e-06
8.808e-06
9.11451e-06
8.82054e-06
8.64147e-06
8.79746e-06
8.80188e-06
8.80666e-06
8.84025e-06
8.83192e-06
8.98735e-06
8.99022e-06
8.95948e-06
8.94672e-06
8.94368e-06
8.95874e-06
8.79445e-06
8.79575e-06
8.7984e-06
8.93849e-06
8.9607e-06
8.94797e-06
8.95727e-06
8.78851e-06
8.79011e-06
8.803e-06
8.65395e-06
8.63406e-06
8.79409e-06
8.80513e-06
8.65767e-06
8.49193e-06
8.52842e-06
8.52958e-06
8.49248e-06
8.4894e-06
8.61066e-06
8.78418e-06
8.99811e-06
7.05526e-05
8.85683e-06
8.66295e-06
8.82348e-06
8.82564e-06
8.9731e-06
8.98041e-06
8.96728e-06
8.8357e-06
8.81146e-06
8.98141e-06
8.8102e-06
8.80873e-06
8.81531e-06
8.95961e-06
8.96809e-06
8.95583e-06
9.10727e-06
8.81701e-06
8.78904e-06
8.95218e-06
8.94133e-06
9.1237e-06
8.83325e-06
8.82877e-06
9.0319e-06
8.97947e-06
9.10774e-06
8.81906e-06
8.79258e-06
8.95497e-06
8.79386e-06
8.79465e-06
8.80174e-06
8.79015e-06
8.79839e-06
8.80061e-06
8.95423e-06
8.81693e-06
8.78538e-06
8.96059e-06
8.6565e-06
8.63405e-06
8.79341e-06
8.80521e-06
8.65694e-06
8.49126e-06
8.49077e-06
8.49237e-06
8.49312e-06
8.49066e-06
8.61956e-06
8.79301e-06
8.99584e-06
7.05527e-05
8.86619e-06
8.52295e-06
8.67047e-06
8.83365e-06
8.83294e-06
8.82483e-06
8.82974e-06
8.82751e-06
8.98397e-06
8.99252e-06
8.9748e-06
8.84245e-06
8.51519e-06
8.65463e-06
8.80966e-06
8.96222e-06
8.82753e-06
8.63468e-06
8.79654e-06
8.95022e-06
8.81042e-06
8.7967e-06
9.12676e-06
8.84664e-06
8.65327e-06
8.81957e-06
8.96732e-06
8.81379e-06
8.79019e-06
9.11335e-06
8.81524e-06
8.63262e-06
8.7914e-06
8.79527e-06
8.94939e-06
8.82001e-06
8.49366e-06
8.62883e-06
8.78725e-06
8.77773e-06
8.77105e-06
8.80016e-06
8.80522e-06
8.64927e-06
8.49602e-06
8.58199e-06
8.64623e-06
8.55723e-06
8.49271e-06
8.48932e-06
8.6103e-06
8.78479e-06
9.00016e-06
7.05512e-05
8.85809e-06
8.51477e-06
8.66233e-06
8.82554e-06
8.82511e-06
8.81737e-06
8.82268e-06
8.82097e-06
8.97791e-06
8.98679e-06
8.9688e-06
8.83581e-06
8.51239e-06
8.65082e-06
8.80601e-06
8.95231e-06
8.82327e-06
8.64064e-06
8.79246e-06
8.8006e-06
8.94586e-06
8.96194e-06
8.96267e-06
8.98561e-06
8.81336e-06
8.80651e-06
8.80345e-06
8.95832e-06
8.81507e-06
8.78731e-06
8.94794e-06
8.7883e-06
8.79406e-06
8.79543e-06
8.94941e-06
8.82066e-06
8.49372e-06
8.62889e-06
8.78734e-06
8.64765e-06
8.63109e-06
8.78959e-06
8.79316e-06
8.79043e-06
8.65588e-06
8.57484e-06
8.60242e-06
8.52093e-06
8.49337e-06
8.49063e-06
8.61902e-06
8.79345e-06
8.99784e-06
7.05524e-05
8.86601e-06
8.52239e-06
8.6699e-06
8.83694e-06
8.83496e-06
8.98191e-06
8.98917e-06
8.98005e-06
8.99874e-06
8.97815e-06
8.83872e-06
8.65647e-06
8.81311e-06
8.81826e-06
8.80955e-06
8.81138e-06
8.80866e-06
8.94827e-06
8.95836e-06
8.78887e-06
8.78281e-06
8.79904e-06
8.96597e-06
8.83288e-06
8.65092e-06
8.79915e-06
8.80446e-06
8.80826e-06
8.94439e-06
9.11083e-06
8.81356e-06
8.78434e-06
9.1099e-06
8.823e-06
8.78928e-06
9.10763e-06
8.8195e-06
8.49007e-06
8.48569e-06
8.48866e-06
8.59198e-06
8.72771e-06
8.77967e-06
8.80213e-06
8.81173e-06
8.66361e-06
8.49961e-06
8.4922e-06
8.49202e-06
8.48909e-06
8.60987e-06
8.78565e-06
9.0031e-06
7.05507e-05
8.85775e-06
8.51427e-06
8.66188e-06
8.82794e-06
8.82625e-06
8.97446e-06
8.98207e-06
8.97358e-06
8.99253e-06
8.97288e-06
8.83363e-06
8.65045e-06
8.80613e-06
8.81059e-06
8.80266e-06
8.80564e-06
8.8045e-06
8.94588e-06
8.96285e-06
8.65807e-06
8.64048e-06
8.79251e-06
8.96116e-06
8.83591e-06
8.64437e-06
8.78612e-06
8.78801e-06
8.80518e-06
8.94513e-06
9.1123e-06
8.814e-06
8.7846e-06
9.11013e-06
8.82316e-06
8.78934e-06
9.10773e-06
8.81966e-06
8.4902e-06
8.48582e-06
8.48891e-06
8.57926e-06
8.71434e-06
8.78023e-06
8.79806e-06
8.80775e-06
8.66393e-06
8.50156e-06
8.49458e-06
8.49312e-06
8.49053e-06
8.61955e-06
8.7952e-06
9.00076e-06
7.05507e-05
8.86557e-06
8.52208e-06
8.66558e-06
8.82868e-06
8.83108e-06
8.98175e-06
8.98893e-06
8.97566e-06
8.99469e-06
8.97839e-06
8.83633e-06
8.80873e-06
8.97775e-06
8.81092e-06
8.81546e-06
8.81503e-06
8.80154e-06
8.80382e-06
8.8018e-06
8.95225e-06
8.81781e-06
8.79203e-06
9.11246e-06
8.83113e-06
8.64588e-06
8.80379e-06
8.96136e-06
8.81953e-06
8.78481e-06
8.95807e-06
8.95429e-06
8.81232e-06
8.78476e-06
9.10595e-06
8.81891e-06
8.7885e-06
8.95844e-06
8.65204e-06
8.48656e-06
8.48887e-06
8.48953e-06
8.48436e-06
8.63364e-06
8.70702e-06
8.55454e-06
8.64029e-06
8.69971e-06
8.54102e-06
8.49329e-06
8.49265e-06
8.60983e-06
8.78697e-06
9.00715e-06
7.05492e-05
8.85765e-06
8.51411e-06
8.65764e-06
8.82075e-06
8.82342e-06
8.9743e-06
8.9864e-06
8.97339e-06
8.98842e-06
8.97318e-06
8.83108e-06
8.80243e-06
8.97038e-06
8.80338e-06
8.8047e-06
8.80477e-06
8.79173e-06
8.79706e-06
8.79998e-06
8.95199e-06
8.81832e-06
8.79012e-06
9.11826e-06
8.83031e-06
8.6485e-06
8.80312e-06
8.95767e-06
8.81999e-06
8.78518e-06
8.96079e-06
8.9548e-06
8.81256e-06
8.78498e-06
9.10615e-06
8.81907e-06
8.78885e-06
8.95865e-06
8.6522e-06
8.4867e-06
8.48902e-06
8.48969e-06
8.48399e-06
8.63375e-06
8.78105e-06
8.78507e-06
8.79932e-06
8.66339e-06
8.50505e-06
8.49885e-06
8.49686e-06
8.61908e-06
8.79598e-06
9.0047e-06
7.05504e-05
8.86533e-06
8.52176e-06
8.66524e-06
8.82837e-06
8.83124e-06
8.98162e-06
8.98888e-06
8.97513e-06
8.99469e-06
8.97829e-06
8.83869e-06
8.656e-06
8.81589e-06
8.81569e-06
8.80488e-06
8.81176e-06
8.81104e-06
8.65266e-06
8.63023e-06
8.79685e-06
8.80566e-06
8.7915e-06
8.80401e-06
8.80885e-06
8.79588e-06
8.79876e-06
8.79896e-06
8.95835e-06
9.11004e-06
8.80586e-06
8.49056e-06
8.62773e-06
8.79449e-06
8.79931e-06
8.93592e-06
9.11325e-06
8.82278e-06
8.49e-06
8.48513e-06
8.48893e-06
8.48889e-06
8.48547e-06
8.63632e-06
8.68908e-06
8.53685e-06
8.64034e-06
8.71266e-06
8.56373e-06
8.50018e-06
8.4928e-06
8.60908e-06
8.78868e-06
9.01275e-06
7.05488e-05
8.85726e-06
8.51383e-06
8.65741e-06
8.82058e-06
8.82371e-06
8.97431e-06
8.98652e-06
8.973e-06
8.9888e-06
8.97336e-06
8.83358e-06
8.65006e-06
8.80926e-06
8.80904e-06
8.79769e-06
8.80588e-06
8.80937e-06
8.65333e-06
8.62868e-06
8.7964e-06
8.8058e-06
8.79202e-06
8.80356e-06
8.80491e-06
8.94226e-06
8.95891e-06
8.94796e-06
9.11208e-06
8.82101e-06
8.78518e-06
8.95312e-06
8.78806e-06
8.79739e-06
8.79979e-06
8.93613e-06
9.11353e-06
8.82293e-06
8.49014e-06
8.48526e-06
8.48907e-06
8.48902e-06
8.48512e-06
8.6364e-06
8.78711e-06
8.64948e-06
8.64319e-06
8.67717e-06
8.52616e-06
8.49847e-06
8.49589e-06
8.62611e-06
8.80052e-06
9.01041e-06
7.05486e-05
8.86478e-06
8.52135e-06
8.66534e-06
8.82818e-06
8.83198e-06
8.82447e-06
8.82116e-06
8.81479e-06
8.97626e-06
8.84257e-06
8.51014e-06
8.65139e-06
8.81515e-06
8.81762e-06
8.96089e-06
8.97312e-06
8.66502e-06
8.499e-06
8.63351e-06
8.79759e-06
8.80636e-06
8.79162e-06
8.80136e-06
8.95563e-06
8.81777e-06
8.63124e-06
8.79733e-06
8.80292e-06
8.94093e-06
8.95785e-06
8.9471e-06
8.95857e-06
8.94226e-06
8.96e-06
8.79547e-06
8.79698e-06
8.80091e-06
8.64555e-06
8.48335e-06
8.48961e-06
8.48849e-06
8.62978e-06
8.79227e-06
8.79567e-06
8.65523e-06
8.64363e-06
8.71295e-06
8.56064e-06
8.49886e-06
8.49927e-06
8.62025e-06
8.79231e-06
9.02069e-06
7.05472e-05
8.85703e-06
8.5136e-06
8.65763e-06
8.82046e-06
8.82452e-06
8.81733e-06
8.81851e-06
8.81257e-06
8.9704e-06
8.83706e-06
8.50476e-06
8.64543e-06
8.80859e-06
8.81238e-06
8.80076e-06
8.80525e-06
8.80681e-06
8.65337e-06
8.63303e-06
8.79669e-06
8.80655e-06
8.79174e-06
8.79784e-06
8.9508e-06
8.8174e-06
8.63193e-06
8.79689e-06
8.80538e-06
8.94526e-06
8.9585e-06
8.94684e-06
8.95876e-06
8.94243e-06
8.96042e-06
8.7958e-06
8.79715e-06
8.80106e-06
8.64569e-06
8.48349e-06
8.48976e-06
8.48863e-06
8.62993e-06
8.79238e-06
8.79576e-06
8.65531e-06
8.64388e-06
8.67921e-06
8.52273e-06
8.494e-06
8.5009e-06
8.62341e-06
8.79908e-06
9.01809e-06
7.05483e-05
8.86446e-06
8.5209e-06
8.66533e-06
8.82818e-06
8.83161e-06
8.82836e-06