/*--------------------------------*- C++ -*----------------------------------*\
| =========                 |                                                 |
| \\      /  F ield         | OpenFOAM: The Open Source CFD Toolbox           |
|  \\    /   O peration     | Version:  4.1                                   |
|   \\  /    A nd           | Web:      www.OpenFOAM.org                      |
|    \\/     M anipulation  |                                                 |
\*---------------------------------------------------------------------------*/
FoamFile
{
    version     2.0;
    format      ascii;
    class       volScalarField;
    location    "2";
    object      omega;
}
// * * * * * * * * * * * * * * * * * * * * * * * * * * * * * * * * * * * * * //

dimensions      [0 0 -1 0 0 0 0];

internalField   nonuniform List<scalar> 
4432
(
0.0111677
0.0113461
0.0113375
0.0113438
0.0113223
0.0113651
0.0112652
0.0114826
0.0109881
0.0120567
0.0122346
0.0118729
0.0111127
0.0121861
0.0118402
0.0110971
0.0121614
0.0114505
0.0123244
0.011826
0.0114262
0.0115368
0.0110048
0.012039
0.0117545
0.0110684
0.0121255
0.0122838
0.012424
0.0115726
0.0124724
0.0115953
0.0125022
0.0126149
0.0120835
0.0111752
0.0122671
0.0124072
0.011565
0.012468
0.0118901
0.0115337
0.011411
0.011356
0.01133
0.0113212
0.0113121
0.0113223
0.0112999
0.0113558
0.0112409
0.0115313
0.010952
0.0123223
0.0111699
0.0113429
0.0113326
0.0113381
0.0113166
0.0113589
0.0112602
0.0114755
0.0109865
0.0120448
0.011616
0.0115909
0.0110272
0.0120755
0.0117775
0.0110789
0.0121372
0.0114389
0.0123168
0.0118233
0.0114256
0.0115386
0.0110047
0.0120431
0.0117576
0.0110687
0.0121313
0.0122903
0.0124312
0.0115757
0.0124797
0.0115985
0.0125099
0.012623
0.0120892
0.0111763
0.0122737
0.0118899
0.0111115
0.0121901
0.0117363
0.011468
0.011382
0.0113437
0.0113255
0.0113198
0.0113129
0.0113218
0.0113026
0.0113497
0.011252
0.0115126
0.0109443
0.0122981
14.1251
4.51
4.40059
4.40075
4.44957
4.45801
4.45291
4.49934
4.45789
4.4566
4.45628
4.45107
4.50054
4.45121
4.39818
4.44369
4.49318
4.49383
4.44845
4.44319
4.49026
4.45067
4.44804
4.4971
4.49823
4.49817
4.45811
4.45309
4.50235
4.50344
4.50355
4.50364
4.50374
4.50384
4.50394
4.50307
4.45274
4.44841
4.49822
4.49447
4.45388
4.44869
4.49837
4.49947
4.44998
4.44485
4.45186
4.44086
4.45102
4.46072
4.48243
4.44885
4.51261
5.78221
14.1251
4.50912
4.39958
4.4076
4.45651
4.45723
4.45197
4.4984
4.45698
4.45573
4.45546
4.45026
4.49994
4.45014
4.4442
4.44828
4.44369
4.44816
4.39721
4.44262
4.4903
4.45069
4.44806
4.49713
4.49827
4.49821
4.45814
4.45312
4.50239
4.50348
4.50359
4.50368
4.50378
4.50388
4.50399
4.50312
4.45278
4.44846
4.49827
4.49451
4.45391
4.44872
4.49837
4.4995
4.44993
4.44457
4.47168
4.44411
4.42837
4.4541
4.46682
4.43573
4.48931
5.81155
14.1251
4.51001
4.40067
4.3995
4.39906
4.4476
4.4577
4.45261
4.50342
4.50861
4.45754
4.44643
4.4551
4.45483
4.50341
4.4542
4.44876
4.4976
4.44867
4.43054
4.47773
4.45281
4.45286
4.45233
4.44823
4.49718
4.49362
4.45321
4.45321
4.45273
4.44843
4.4978
4.49884
4.49901
4.44906
4.44377
4.45271
4.45348
4.4536
4.39709
4.44338
4.4938
4.44953
4.44445
4.4799
4.43607
4.40459
4.4375
4.44611
4.46172
4.47438
4.43689
4.45426
4.55033
14.1251
4.5091
4.39973
4.39849
4.40457
4.45311
4.45689
4.45168
4.5025
4.50768
4.45668
4.44564
4.45439
4.45427
4.50331
4.45411
4.44857
4.49739
4.44891
4.40813
4.45364
4.45232
4.45287
4.45235
4.44826
4.49723
4.49367
4.45343
4.45327
4.45259
4.44845
4.49785
4.49889
4.49906
4.44911
4.44381
4.45275
4.45352
4.45364
4.39713
4.44341
4.49382
4.44954
4.44444
4.47057
4.42251
4.40097
4.4283
4.43379
4.45459
4.4628
4.40551
4.45054
4.54905
14.1251
4.51001
4.40068
4.39897
4.44782
4.45798
4.45294
4.49935
4.45801
4.45675
4.45642
4.45117
4.50548
4.45595
4.44987
4.49851
4.49911
4.49852
4.49345
4.4535
4.4074
4.40645
4.45247
4.4525
4.44834
4.49745
4.44891
4.44344
4.45299
4.40724
4.45291
4.45292
4.44865
4.49788
4.49908
4.49911
4.49454
4.45379
4.44885
4.44822
4.44417
4.49404
4.44953
4.44414
4.47401
4.4266
4.40124
4.4054
4.44862
4.4637
4.42016
4.42852
4.45612
4.55637
14.1252
4.50911
4.39967
4.40451
4.45337
4.45717
4.45199
4.49841
4.4571
4.45584
4.45558
4.45038
4.50472
4.4554
4.44933
4.49832
4.49881
4.49847
4.49339
4.4531
4.44812
4.4972
4.50304
4.45356
4.44839
4.4975
4.49389
4.4536
4.44862
4.49759
4.50365
4.45377
4.44868
4.49817
4.49918
4.4994
4.49464
4.45383
4.44889
4.44826
4.44421
4.49406
4.44956
4.44419
4.4706
4.42249
4.40104
4.40238
4.44576
4.46839
4.42406
4.39785
4.45468
4.55561
14.1252
4.51003
4.4007
4.39901
4.44783
4.45798
4.45293
4.5041
4.50931
4.45789
4.45159
4.50629
4.50623
4.45543
4.44992
4.49862
4.49913
4.49848
4.49815
4.49804
4.49337
4.45322
4.44833
4.49756
4.49871
4.4988
4.49851
4.49844
4.50356
4.45368
4.44866
4.49802
4.4991
4.49904
4.49931
4.49925
4.44944
4.44384
4.45309
4.44915
4.4487
4.44443
4.49416
4.49498
4.47084
4.42193
4.4006
4.40374
4.44652
4.4636
4.41315
4.40393
4.45394
4.53225
14.1252
4.50912
4.3997
4.40305
4.45186
4.45713
4.45199
4.50316
4.50841
4.45702
4.45076
4.50548
4.50572
4.45512
4.44941
4.45801
4.45348
4.45271
4.44806
4.49706
4.4485
4.44334
4.45231
4.45326
4.45295
4.44384
4.45288
4.4074
4.45309
4.45306
4.44874
4.49776
4.49436
4.49403
4.45385
4.4487
4.44837
4.44387
4.45312
4.44918
4.44873
4.44445
4.49418
4.49498
4.47065
4.42149
4.39969
4.44456
4.48428
4.4487
4.40821
4.39238
4.45437
4.53159
14.1253
4.51006
4.40017
4.44807
4.45831
4.45321
4.49992
4.45839
4.45223
4.50271
4.50796
4.45724
4.45099
4.50037
4.5005
4.50455
4.50381
4.45381
4.44804
4.50174
4.45331
4.44819
4.49748
4.49381
4.45378
4.45333
4.45283
4.44838
4.49766
4.49387
4.45362
4.44892
4.44832
4.44405
4.4527
4.44902
4.49822
4.4994
4.49464
4.454
4.4493
4.49449
4.49559
4.44986
4.4442
4.44935
4.39851
4.4469
4.47919
4.43323
4.39697
4.39275
4.45206
4.52643
14.1253
4.50914
4.39922
4.44712
4.45738
4.45227
4.49897
4.45746
4.45135
4.50186
4.50715
4.45635
4.45021
4.49968
4.49996
4.45899
4.45353
4.45264
4.44803
4.50177
4.45335
4.44823
4.49749
4.49403
4.45351
4.45367
4.4529
4.44882
4.49773
4.4942
4.45368
4.44888
4.44836
4.44378
4.45303
4.44879
4.49826
4.49944
4.49468
4.45404
4.44933
4.49451
4.4956
4.44999
4.44412
4.44912
4.39807
4.44356
4.46551
4.41603
4.39507
4.39235
4.45277
4.52572
14.1253
4.51009
4.4002
4.44806
4.4583
4.4532
4.49991
4.45838
4.45222
4.50277
4.50797
4.45779
4.39977
4.44543
4.45446
4.45437
4.45337
4.44849
4.49692
4.49792
4.4981
4.49835
4.49865
4.49407
4.45421
4.40739
4.45336
4.4533
4.44859
4.50295
4.45349
4.44894
4.49833
4.49465
4.45426
4.40756
4.45315
4.45327
4.44407
4.45305
4.44947
4.44901
4.44476
4.49429
4.49532
4.4505
4.39802
4.44655
4.46719
4.41672
4.39479
4.39227
4.45082
4.52216
14.1254
4.50916
4.39924
4.4471
4.45736
4.45224
4.49896
4.45744
4.45133
4.50193
4.50716
4.45691
4.39895
4.44469
4.45383
4.45384
4.45308
4.44825
4.49695
4.49795
4.49817
4.49839
4.49868
4.4943
4.45424
4.40779
4.45336
4.4535
4.44814
4.50294
4.45355
4.44898
4.49837
4.49469
4.4544
4.40758
4.45319
4.4533
4.4441
4.45307
4.44949
4.44902
4.44477
4.49422
4.49509
4.45009
4.39741
4.4433
4.45624
4.40495
4.39803
4.39324
4.45134
4.52145
14.1254
4.51011
4.40022
4.44805
4.45833
4.45319
4.5047
4.50521
4.49975
4.45759
4.45158
4.50167
4.50233
4.50166
4.501
4.49545
4.4543
4.45321
4.45219
4.44795
4.49708
4.49364
4.45396
4.40277
4.40197
4.44875
4.49803
4.50401
4.45454
4.44915
4.49788
4.49459
4.45375
4.44917
4.49806
4.49954
4.49937
4.50458
4.45473
4.4493
4.50411
4.45499
4.44485
4.49401
4.49514
4.44995
4.39686
4.44596
4.45703
4.40495
4.39464
4.39274
4.44998
4.51928
14.1254
4.50917
4.39926
4.44709
4.45736
4.45222
4.50375
4.50429
4.49887
4.45675
4.45079
4.50088
4.50153
4.50088
4.50033
4.49493
4.45384
4.45306
4.45219
4.44797
4.50192
4.45345
4.44851
4.49835
4.49971
4.49963
4.4996
4.49885
4.4987
4.50412
4.45407
4.44434
4.45275
4.4492
4.4979
4.49958
4.49941
4.50461
4.45476
4.44934
4.50414
4.45502
4.44486
4.49401
4.4951
4.44932
4.44393
4.4894
4.44348
4.39612
4.40016
4.3936
4.4504
4.51852
14.1254
4.51013
4.40025
4.44807
4.45832
4.4532
4.4999
4.45834
4.45221
4.49795
4.45709
4.45141
4.50129
4.50182
4.4965
4.45532
4.45402
4.45285
4.44315
4.45236
4.4021
4.44723
4.45679
4.45378
4.45494
4.39932
4.44415
4.45291
4.45398
4.45355
4.44923
4.498
4.49886
4.49965
4.49921
4.49981
4.44934
4.444
4.45282
4.45421
4.45388
4.4491
4.49926
4.44983
4.44414
4.44881
4.39677
4.44587
4.45068
4.39763
4.39466
4.39312
4.44941
4.51731
14.1255
4.50919
4.39927
4.44709
4.45734
4.45224
4.49895
4.45742
4.45131
4.49712
4.45629
4.45064
4.50049
4.501
4.49563
4.45453
4.45357
4.45267
4.44314
4.45242
4.40254
4.40142
4.44805
4.4986
4.50082
4.50055
4.50049
4.49846
4.5041
4.45458
4.44918
4.49803
4.49889
4.49969
4.49925
4.49984
4.44936
4.44444
4.45294
4.45424
4.4539
4.44911
4.49967
4.44991
4.44455
4.44834
4.44419
4.47991
4.43073
4.39597
4.39711
4.39366
4.44969
4.51656
14.1255
4.51014
4.40026
4.44807
4.45831
4.45318
4.49986
4.45831
4.45217
4.4979
4.45701
4.45616
4.45653
4.40047
4.39924
4.44483
4.45351
4.44861
4.49664
4.4978
4.49331
4.45306
4.45383
4.49945
4.48305
4.48042
4.49665
4.45427
4.44961
4.49833
4.50415
4.45414
4.4493
4.49869
4.4949
4.45441
4.44928
4.49369
4.45397
4.45426
4.45377
4.44875
4.49924
4.45009
4.44451
4.44839
4.44421
4.48872
4.44028
4.39589
4.39472
4.3934
4.44902
4.51598
14.1255
4.50919
4.39928
4.4471
4.45733
4.45222
4.49892
4.45738
4.45129
4.49709
4.45623
4.4554
4.45575
4.39916
4.44446
4.4536
4.44888
4.49246
4.45281
4.45282
4.49735
4.49832
4.50371
4.50079
4.49244
4.49162
4.49662
4.45438
4.44884
4.49822
4.45922
4.45368
4.45416
4.39832
4.44386
4.45338
4.44931
4.49415
4.45401
4.45429
4.4538
4.44916
4.49936
4.45054
4.3975
4.44352
4.4948
4.47344
4.42158
4.39589
4.39583
4.39397
4.44925
4.51521
14.1255
4.51015
4.40029
4.44808
4.45833
4.45318
4.49987
4.4583
4.45215
4.49793
4.4571
4.45135
4.50133
4.50671
4.50585
4.45543
4.44477
4.4528
4.45275
4.45224
4.44354
4.45207
4.44915
4.50035
4.47204
4.42071
4.45156
4.49422
4.49966
4.49721
4.49202
4.45359
4.4541
4.45364
4.3982
4.44374
4.45338
4.44937
4.49891
4.50458
4.45471
4.44912
4.49967
4.45053
4.39741
4.44359
4.49499
4.48198
4.43096
4.39581
4.39482
4.39455
4.44963
4.51528
14.1255
4.5092
4.3993
4.44711
4.45734
4.45222
4.49893
4.45738
4.4513
4.49712
4.45633
4.45059
4.50053
4.50587
4.50497
4.45464
4.44422
4.45257
4.448
4.49192
4.49289
4.45379
4.40251
4.43974
4.44797
4.42183
4.46727
4.49462
4.45302
4.45425
4.45361
4.44871
4.50312
4.45512
4.39829
4.44377
4.45342
4.44941
4.49894
4.5046
4.45473
4.44953
4.49931
4.45054
4.39732
4.44368
4.49505
4.46749
4.4156
4.39585
4.39583
4.39501
4.44904
4.51433
14.1255
4.51017
4.40085
4.39963
4.39966
4.39963
4.39959
4.39952
4.39944
4.39885
4.44597
4.45578
4.45132
4.49632
4.45631
4.45042
4.49418
4.4541
4.45311
4.45219
4.44854
4.4948
4.49601
4.50404
4.48511
4.4793
4.45862
4.41695
4.46258
4.49864
4.49482
4.45363
4.4541
4.45303
4.44868
4.50333
4.45456
4.44889
4.4587
4.40725
4.45365
4.45377
4.44949
4.49945
4.44976
4.44462
4.49544
4.47626
4.42485
4.39575
4.3949
4.3946
4.44936
4.51456
14.1255
4.50921
4.39987
4.39866
4.39869
4.3987
4.39866
4.39862
4.39859
4.39806
4.44522
4.45503
4.45053
4.49548
4.45555
4.44972
4.49349
4.45376
4.44816
4.49174
4.45336
4.41714
4.46378
4.50612
4.50409
4.50841
4.45763
4.44606
4.45263
4.45438
4.4537
4.44875
4.50336
4.45461
4.44926
4.50348
4.45462
4.44893
4.45874
4.40728
4.45369
4.45381
4.44953
4.49948
4.45011
4.44467
4.49548
4.46403
4.41152
4.39585
4.39525
4.39516
4.44928
4.51389
14.1254
4.51498
4.40531
4.45304
4.50604
4.50168
4.45876
4.4525
4.45261
4.39945
4.44598
4.4558
4.45601
4.45647
4.40006
4.44526
4.45414
4.454
4.50178
4.50206
4.45362
4.44529
4.45681
4.45901
4.50497
4.46314
4.45338
4.47458
4.46281
4.48348
4.4942
4.49484
4.45531
4.40846
4.45349
4.45394
4.44425
4.45304
4.40801
4.40691
4.45354
4.45357
4.44937
4.50415
4.4555
4.39799
4.3969
4.41387
4.41424
4.39603
4.39542
4.39395
4.4487
4.51449
14.1254
4.51403
4.40436
4.45207
4.50507
4.50074
4.45782
4.45161
4.45175
4.39865
4.44523
4.45505
4.45522
4.50496
4.45572
4.44977
4.49834
4.49844
4.45857
4.40725
4.45365
4.49711
4.49421
4.45695
4.46373
4.4626
4.44877
4.45623
4.44967
4.49332
4.49428
4.49506
4.45506
4.44988
4.49899
4.50002
4.4948
4.4542
4.40817
4.40704
4.45361
4.4536
4.4494
4.50418
4.45553
4.39802
4.39703
4.40164
4.40123
4.39578
4.39534
4.39478
4.4495
4.51377
14.1254
4.51498
4.40532
4.45305
4.50605
4.5065
4.51066
4.50943
4.45735
4.4517
4.50223
4.5028
4.50717
4.45704
4.45099
4.49995
4.45581
4.42741
4.47237
4.50203
4.45559
4.44673
4.50374
4.61879
4.60899
4.46149
4.47094
4.49482
4.44095
4.39844
4.44707
4.45804
4.41001
4.40874
4.45602
4.45635
4.44618
4.45505
4.45069
4.50116
4.50684
4.4558
4.44514
4.45407
4.44979
4.50092
4.50247
4.45137
4.39665
4.39588
4.39538
4.39405
4.44899
4.51495
14.1254
4.51399
4.40437
4.45208
4.50509
4.50554
4.50975
4.46246
4.45541
4.45499
4.44593
4.45507
4.45519
4.50496
4.45584
4.44519
4.49834
4.49279
4.49091
4.50208
4.45462
4.44981
4.50333
4.61152
4.53343
4.4727
4.47306
4.50306
4.50294
4.50384
4.49883
4.45856
4.4095
4.40837
4.45577
4.45601
4.44553
4.45441
4.45042
4.50092
4.50666
4.4557
4.44509
4.454
4.44985
4.50101
4.50262
4.45149
4.39684
4.39585
4.3955
4.3948
4.44921
4.51411
14.1248
4.55782
4.46137
4.45871
4.45871
4.45311
4.50954
4.45919
4.40013
4.39881
4.44601
4.45579
4.45607
4.45596
4.45107
4.50011
4.45119
4.44493
4.45322
4.44871
4.49732
4.50034
4.61143
4.87796
4.70424
4.52653
4.48162
4.5013
4.49544
4.45896
4.44914
4.45939
4.40514
4.45221
4.46173
4.45722
4.45669
4.45148
4.50722
4.4567
4.45063
4.50629
4.456
4.44511
4.45458
4.40666
4.45444
4.45464
4.45098
4.5051
4.50364
4.45943
4.40465
4.45999
14.1248
4.56165
4.51354
4.51113
4.458
4.45221
4.50388
4.50427
4.50371
4.50306
4.50261
4.50215
4.46093
4.45524
4.455
4.44526
4.49844
4.49542
4.49408
4.50213
4.45509
4.4174
4.51843
4.87291
4.74739
4.51195
4.43604
4.45225
4.45376
4.45263
4.50018
4.45927
4.40945
4.45661
4.45724
4.39916
4.44562
4.45516
4.45566
4.45527
4.44545
4.45443
4.45006
4.44941
4.44483
4.45409
4.45018
4.5023
4.46147
4.40589
4.45708
4.45811
4.44987
4.51414
14.1247
4.55782
4.46144
4.45383
4.50122
4.4591
4.45773
4.45758
4.44729
4.45636
4.45153
4.49712
4.4569
4.45127
4.49616
4.45639
4.45058
4.45418
4.44931
4.49247
4.4931
4.47771
4.60102
4.87729
4.46301
4.43379
4.45726
4.45725
4.42725
4.47077
4.50428
4.50684
4.49875
4.4967
4.50463
4.50881
4.45747
4.45132
4.50185
4.50262
4.50725
4.45603
4.45018
4.50103
4.50205
4.50275
4.50343
4.50477
4.50637
4.51363
4.45943
4.45002
4.51498
14.1247
4.56163
4.51348
4.45928
4.44768
4.45712
4.452
4.49842
4.45699
4.45581
4.50628
4.45638
4.45055
4.50041
4.49626
4.45543
4.45443
4.45368
4.44412
4.45312
4.45016
4.49069
4.62791
4.95894
4.43344
4.4419
4.45149
4.49339
4.45857
4.45305
4.50021
4.50066
4.5001
4.45735
4.45632
4.45595
4.45089
4.50161
4.4512
4.44526
4.45483
4.4072
4.45416
4.45417
4.44979
4.45909
4.45563
4.45535
4.45211
4.50787
4.50677
4.46091
4.46048
14.1251
4.51493
4.40534
4.453
4.50602
4.50178
4.45885
4.45259
4.49869
4.45747
4.45155
4.5019
4.50742
4.45768
4.40083
4.39969
4.44526
4.45383
4.45418
4.45401
4.45039
4.48164
4.46917
4.60914
4.67539
4.47501
4.42393
4.40672
4.45029
4.49727
4.5028
4.50569
4.45837
4.45227
4.49819
4.45752
4.40842
4.45496
4.45501
4.45028
4.50085
4.49697
4.45529
4.45476
4.45427
4.44991
4.50171
4.45176
4.39699
4.39588
4.39545
4.39433
4.44902
4.51483
14.1251
4.51396
4.40431
4.45209
4.50517
4.50087
4.45794
4.45167
4.49786
4.4567
4.4508
4.50114
4.50191
4.50144
4.50111
4.45094
4.44496
4.45349
4.45367
4.4532
4.44865
4.49664
4.50165
4.62192
4.59614
4.43864
4.46216
4.50395
4.45675
4.45086
4.50784
4.45787
4.39869
4.44554
4.45572
4.4078
4.45445
4.45468
4.44506
4.45411
4.44972
4.49554
4.45497
4.45435
4.45405
4.4499
4.50155
4.45182
4.3971
4.3961
4.39575
4.39464
4.44914
4.51424
14.1251
4.50952
4.44959
4.45868
4.45347
4.50546
4.5108
4.50954
4.45735
4.45179
4.50241
4.49827
4.4569
4.45615
4.45588
4.45081
4.49969
4.49947
4.49904
4.49361
4.4542
4.45013
4.44858
4.45284
4.45972
4.45753
4.46015
4.45138
4.45286
4.4476
4.50131
4.45456
4.44916
4.49848
4.49939
4.49917
4.49927
4.4992
4.4992
4.49952
4.49469
4.4542
4.44925
4.49942
4.50066
4.45083
4.39745
4.41746
4.41811
4.39587
4.39514
4.39402
4.44869
4.51475
14.1251
4.50914
4.3998
4.39812
4.44697
4.45709
4.45687
4.50766
4.45664
4.45103
4.50168
4.49752
4.45615
4.45055
4.50002
4.50517
4.4554
4.44927
4.49722
4.49752
4.49854
4.49911
4.46333
4.46131
4.46051
4.44946
4.46038
4.45681
4.49891
4.49391
4.45343
4.44873
4.49801
4.49906
4.49431
4.45385
4.45328
4.4529
4.44873
4.49842
4.49481
4.4542
4.44922
4.49922
4.50066
4.45084
4.39759
4.40685
4.40664
4.396
4.3955
4.39447
4.44883
4.51396
14.125
4.50998
4.40018
4.44815
4.45842
4.45318
4.50009
4.45832
4.45706
4.46205
4.40915
4.45559
4.456
4.45133
4.50561
4.45657
4.44586
4.45418
4.44978
4.49322
4.45434
4.40412
4.44904
4.50685
4.45883
4.44838
4.49993
4.45561
4.44945
4.50273
4.45416
4.44882
4.49776
4.44924
4.44365
4.45257
4.44879
4.44871
4.39802
4.39696
4.43965
4.48973
4.45434
4.44949
4.44912
4.44503
4.49511
4.47196
4.42077
4.39591
4.39512
4.39398
4.44889
4.51532
14.125
4.50913
4.39917
4.44718
4.45749
4.45227
4.4992
4.45745
4.45625
4.46126
4.40841
4.4548
4.45514
4.45046
4.50476
4.45563
4.44953
4.4983
4.49382
4.49284
4.45287
4.45512
4.50058
4.50526
4.50257
4.4978
4.50074
4.45732
4.40442
4.40263
4.44766
4.50226
4.4543
4.39782
4.44305
4.45277
4.44858
4.44869
4.39801
4.39692
4.44351
4.44893
4.39807
4.39673
4.44413
4.49542
4.49627
4.46107
4.40842
4.39604
4.39551
4.39443
4.44904
4.51452
14.1249
4.50997
4.40006
4.44814
4.45842
4.45318
4.50013
4.4584
4.4523
4.50305
4.46218
4.45636
4.49431
4.49255
4.45638
4.44609
4.45458
4.44971
4.49842
4.49901
4.49413
4.45464
4.42233
4.42822
4.40773
4.41872
4.46395
4.45394
4.446
4.49014
4.4985
4.45392
4.44841
4.50276
4.45436
4.39764
4.44326
4.49334
4.49447
4.45404
4.44901
4.49888
4.50022
4.44999
4.44479
4.44938
4.44434
4.47017
4.42012
4.3959
4.39508
4.3939
4.44914
4.51615
14.1249
4.50909
4.39914
4.44722
4.45751
4.45229
4.49926
4.45755
4.45149
4.50229
4.46144
4.45562
4.46005
4.45509
4.45472
4.44514
4.45382
4.44951
4.49807
4.49882
4.49418
4.49397
4.45404
4.45587
4.45538
4.44507
4.45398
4.45497
4.45335
4.44431
4.49757
4.45367
4.44848
4.5028
4.45439
4.39766
4.44329
4.49337
4.49451
4.45407
4.44904
4.49891
4.50026
4.45025
4.39785
4.44456
4.49493
4.46151
4.40912
4.39607
4.3955
4.39442
4.44932
4.51533
14.1248
4.50991
4.40058
4.39913
4.43037
4.48041
4.45837
4.45256
4.50369
4.50901
4.45769
4.45152
4.5065
4.45711
4.44627
4.45502
4.45498
4.45485
4.39926
4.4441
4.49229
4.45294
4.44905
4.49891
4.50093
4.49629
4.4954
4.49474
4.45333
4.45361
4.45278
4.44382
4.4929
4.45397
4.40705
4.45278
4.45297
4.44868
4.49832
4.49466
4.4541
4.44902
4.49399
4.45426
4.44928
4.44937
4.39714
4.41867
4.41988
4.39594
4.39551
4.3939
4.44954
4.5173
14.1248
4.50907
4.39967
4.39809
4.44157
4.49326
4.45774
4.45171
4.50289
4.50816
4.45692
4.45077
4.5057
4.45625
4.4454
4.45418
4.45442
4.4545
4.3985
4.44372
4.49151
4.45267
4.40797
4.45463
4.45439
4.39798
4.44356
4.4914
4.45075
4.45362
4.45315
4.44388
4.49295
4.45401
4.40707
4.45281
4.453
4.44872
4.49836
4.4947
4.45414
4.44907
4.49403
4.45429
4.44931
4.4494
4.39728
4.4077
4.40811
4.39686
4.39611
4.39441
4.44974
4.51646
14.1247
4.50988
4.40054
4.39892
4.43721
4.48814
4.45845
4.45256
4.50364
4.50903
4.46245
4.45617
4.45598
4.44641
4.45535
4.45053
4.45022
4.41454
4.45995
4.45387
4.44925
4.49826
4.50448
4.45467
4.44903
4.45381
4.44867
4.5026
4.45389
4.4486
4.50254
4.45386
4.44852
4.49775
4.49872
4.50359
4.45451
4.39795
4.39667
4.44312
4.45295
4.44875
4.4936
4.45427
4.44884
4.44883
4.3973
4.4186
4.42058
4.39778
4.39567
4.3938
4.45004
4.51891
14.1247
4.50903
4.39909
4.447
4.50028
4.50079
4.45782
4.45173
4.50285
4.50819
4.46172
4.45541
4.45515
4.44559
4.45454
4.44978
4.49424
4.49488
4.49431
4.45393
4.44913
4.49829
4.50445
4.45433
4.44919
4.49875
4.49439
4.45377
4.44858
4.49315
4.45372
4.44858
4.49786
4.4988
4.49877
4.50363
4.45455
4.39798
4.3967
4.44315
4.45299
4.44879
4.49362
4.45429
4.44885
4.44883
4.39743
4.40687
4.40739
4.39686
4.39602
4.39455
4.4503
4.51807
14.1246
4.50983
4.39995
4.44785
4.50104
4.50163
4.45879
4.45257
4.50365
4.50911
4.50848
4.4572
4.44662
4.45562
4.45564
4.45521
4.44542
4.45427
4.44967
4.49849
4.49902
4.4494
4.44424
4.45325
4.40265
4.44812
4.50284
4.50361
4.50373
4.50205
4.45206
4.4436
4.45252
4.44833
4.4479
4.44351
4.45255
4.4534
4.45293
4.44372
4.45293
4.44877
4.49377
4.45456
4.44919
4.44932
4.39746
4.41771
4.42104
4.40004
4.39851
4.39708
4.45114
4.52119
14.1246
4.50899
4.39906
4.44696
4.50016
4.50076
4.45793
4.45175
4.50286
4.50836
4.50785
4.45659
4.44585
4.4548
4.45485
4.45447
4.44478
4.45374
4.44921
4.4977
4.49883
4.4494
4.44424
4.45264
4.44888
4.49816
4.50388
4.50386
4.50378
4.50233
4.45237
4.44365
4.45255
4.44837
4.44794
4.44354
4.45249
4.45343
4.45296
4.44375
4.45297
4.4488
4.49379
4.45458
4.44921
4.44939
4.39759
4.40824
4.40923
4.3988
4.399
4.39478
4.45108
4.52031
14.1245
4.50979
4.40045
4.39887
4.43154
4.44016
4.45403
4.45734
4.45714
4.4575
4.39951
4.44607
4.45588
4.45117
4.50075
4.50598
4.45583
4.44997
4.50356
4.45494
4.44894
4.50279
4.45417
4.44855
4.5029
4.45465
4.39745
4.44287
4.45243
4.453
4.45267
4.44833
4.49765
4.44883
4.44353
4.45286
4.40745
4.4065
4.4529
4.45356
4.39749
4.4434
4.45322
4.44902
4.44898
4.44482
4.49431
4.47251
4.42302
4.39857
4.39816
4.3965
4.45177
4.52446
14.1245
4.50894
4.39902
4.44693
4.50006
4.46599
4.46042
4.45668
4.45637
4.45676
4.3988
4.44536
4.45513
4.45041
4.50001
4.50531
4.45523
4.44945
4.50312
4.45441
4.44871
4.50275
4.45423
4.44853
4.49825
4.49418
4.49388
4.49378
4.45352
4.45307
4.45272
4.44836
4.49768
4.49395
4.45349
4.44839
4.4978
4.45857
4.45352
4.4536
4.39751
4.44342
4.45323
4.44902
4.44869
4.44438
4.49426
4.4617
4.41084
4.39864
4.40239
4.39507
4.45708
4.52495
14.1243
4.50971
4.40038
4.39864
4.44756
4.50045
4.45404
4.4477
4.45699
4.45203
4.50273
4.50342
4.45225
4.44618
4.45511
4.45045
4.49979
4.5052
4.4552
4.4495
4.49844
4.49895
4.49878
4.49417
4.45385
4.45339
4.45274
4.44822
4.50224
4.45408
4.39735
4.44282
4.45236
4.44835
4.49765
4.45839
4.45327
4.45281
4.44851
4.49812
4.49922
4.49943
4.49955
4.49923
4.44954
4.44428
4.49469
4.47606
4.42627
4.39717
4.39623
4.40125
4.45386
4.52921
14.1244
4.5089
4.39953
4.39777
4.44672
4.49961
4.45322
4.44691
4.45623
4.4513
4.50203
4.50272
4.45153
4.44545
4.4544
4.44978
4.49918
4.50465
4.45482
4.44912
4.49819
4.49883
4.49875
4.49429
4.45374
4.45337
4.45271
4.44823
4.50226
4.45416
4.39736
4.44284
4.45238
4.44838
4.49762
4.45841
4.45333
4.45284
4.44854
4.49815
4.49925
4.49945
4.49957
4.49926
4.44934
4.44436
4.49395
4.46339
4.41327
4.39714
4.40521
4.40194
4.46675
4.53048
14.1243
4.50977
4.40046
4.39927
4.39893
4.42929
4.47933
4.45793
4.45708
4.45744
4.39929
4.44587
4.49684
4.4974
4.45611
4.45042
4.44981
4.4451
4.45382
4.4495
4.49362
4.45377
4.44858
4.49792
4.49893
4.49886
4.49868
4.49843
4.49843
4.49367
4.45376
4.40694
4.45258
4.4526
4.4483
4.4578
4.40745
4.40645
4.45274
4.45335
4.39744
4.44323
4.4531
4.44902
4.44901
4.44505
4.49565
4.48915
4.44393
4.3987
4.39679
4.40054
4.46945
4.54073
14.1243
4.50894
4.39962
4.39789
4.44678
4.4996
4.50035
4.45762
4.45635
4.45674
4.39861
4.4452
4.49616
4.49678
4.45546
4.44981
4.49448
4.45464
4.45404
4.45353
4.4441
4.45261
4.44855
4.49784
4.49891
4.49877
4.49864
4.49843
4.50319
4.45366
4.44342
4.45228
4.4531
4.45263
4.44832
4.45782
4.4075
4.40648
4.45276
4.45337
4.39746
4.44324
4.4531
4.44893
4.44883
4.44518
4.49353
4.47558
4.42753
4.39796
4.40133
4.40133
4.4797
4.54135
14.1241
4.50977
4.40048
4.39927
4.39933
4.39906
4.4128
4.41296
4.44668
4.4565
4.45158
4.45174
4.39927
4.44544
4.455
4.45519
4.45468
4.44988
4.49911
4.49969
4.45908
4.45364
4.453
4.44378
4.45269
4.45338
4.4533
4.39733
4.44272
4.45224
4.44823
4.4481
4.39719
4.4428
4.45277
4.40739
4.40638
4.4527
4.45272
4.44839
4.49801
4.49905
4.49924
4.44964
4.44439
4.45051
4.40192
4.44729
4.46314
4.41612
4.40624
4.44429
4.50483
4.56993
14.1241
4.50899
4.39968
4.3985
4.39853
4.39808
4.42921
4.43137
4.44619
4.45582
4.45091
4.45109
4.39851
4.44476
4.45434
4.45458
4.45411
4.44933
4.4986
4.49925
4.4588
4.45348
4.45293
4.44376
4.45252
4.45329
4.45323
4.39731
4.44272
4.45225
4.44824
4.44812
4.3972
4.44281
4.45279
4.4074
4.40643
4.45272
4.45273
4.44841
4.49803
4.49906
4.49928
4.44967
4.44432
4.45029
4.40066
4.44661
4.45833
4.41098
4.40855
4.45241
4.54459
4.5783
14.124
4.50967
4.40043
4.39922
4.39914
4.39914
4.3991
4.41393
4.46208
4.45676
4.4563
4.45662
4.39973
4.39904
4.39845
4.44492
4.45436
4.44985
4.4497
4.3983
4.44351
4.4527
4.44851
4.49774
4.49877
4.49872
4.49865
4.49845
4.50316
4.45353
4.44818
4.49743
4.49844
4.45872
4.40719
4.43074
4.47789
4.45373
4.39728
4.44294
4.45259
4.4485
4.44823
4.44417
4.44946
4.401
4.40331
4.40765
4.41333
4.42346
4.47831
4.51842
4.54494
4.58898
14.124
4.50898
4.39956
4.39835
4.39837
4.39839
4.39824
4.42423
4.47321
4.45636
4.45568
4.456
4.39902
4.39833
4.39786
4.44436
4.45383
4.44935
4.4492
4.39793
4.44323
4.45256
4.44846
4.49291
4.45349
4.45326
4.45268
4.4482
4.50214
4.45352
4.44819
4.49745
4.49845
4.45874
4.40719
4.4317
4.47894
4.45376
4.39729
4.44295
4.4526
4.44851
4.44821
4.4441
4.44927
4.40088
4.40232
4.40569
4.41009
4.41709
4.47407
4.49728
4.54063
4.57246
14.1243
4.50956
4.40023
4.39846
4.44737
4.45768
4.45262
4.49939
4.45784
4.45178
4.49784
4.45682
4.45108
4.45068
4.44572
4.49559
4.49618
4.49581
4.49537
4.4498
4.44203
4.45027
4.44846
4.49777
4.49883
4.49877
4.45892
4.40756
4.40687
4.40686
4.40637
4.45255
4.50243
4.50349
4.50355
4.50262
4.45248
4.4483
4.49781
4.49401
4.45355
4.44832
4.49779
4.49903
4.45014
4.44574
4.45336
4.40877
4.41333
4.45859
4.4768
4.45342
4.57634
5.8649
14.1245
4.50891
4.3993
4.40127
4.45029
4.45701
4.45189
4.49869
4.45716
4.45114
4.49723
4.45622
4.45049
4.45009
4.44515
4.49506
4.49567
4.49532
4.49492
4.49453
4.4922
4.45115
4.44841
4.49773
4.49877
4.4987
4.45885
4.40751
4.40687
4.40686
4.40637
4.45256
4.50245
4.50351
4.50357
4.50264
4.4525
4.44832
4.49782
4.49402
4.45356
4.44835
4.4978
4.49901
4.45
4.44555
4.45214
4.40647
4.4096
4.4552
4.47543
4.49492
4.50597
5.84364
0.0111699
0.0113431
0.0113369
0.0113357
0.0113297
0.0113368
0.0113157
0.0113577
0.0112583
0.0114729
0.0109846
0.0120376
0.0117614
0.011071
0.0121519
0.0123144
0.0119155
0.0111205
0.0122046
0.0118485
0.0111018
0.0121529
0.0114442
0.0123228
0.0115227
0.0124249
0.012551
0.0126621
0.0120001
0.0115827
0.0114339
0.0113683
0.0113339
0.0113287
0.011303
0.011343
0.0112459
0.0114567
0.0109808
0.0120111
0.0116378
0.0114246
0.0113613
0.0113334
0.0113199
0.0113173
0.0113108
0.0113224
0.0112977
0.0113556
0.0112321
0.0115327
0.010932
0.012387
0.0111723
0.0113395
0.0113324
0.0113286
0.0113268
0.0113245
0.011325
0.0113199
0.0113274
0.0113067
0.0113494
0.0112518
0.0114656
0.0109822
0.0120289
0.0122052
0.0118526
0.0111005
0.0121752
0.0117469
0.011393
0.0115215
0.0110006
0.0120316
0.011386
0.0122757
0.0115017
0.012405
0.0118563
0.0115203
0.0114058
0.011356
0.0113289
0.011327
0.0113028
0.0113437
0.0112466
0.0114584
0.0109808
0.0120149
0.0116404
0.0114266
0.0113633
0.0113354
0.0113219
0.011319
0.0113124
0.0113227
0.0112994
0.0113529
0.0112384
0.0115243
0.0109242
0.0123689
4.64115
4.84847
4.92578
4.86081
4.98275
4.93856
4.97978
4.83969
4.66671
4.65963
4.58763
4.84065
4.62008
4.68109
4.91175
4.65541
4.44096
4.52851
4.56126
4.65129
4.81185
4.73125
4.42558
4.70966
4.87534
4.85231
4.63897
4.42241
4.96773
4.91364
4.83411
4.68852
4.70743
4.62487
4.88978
4.40915
4.80233
4.66107
4.64747
4.80852
4.43699
4.85302
4.61178
4.52407
4.53279
4.63552
4.55171
4.61977
4.65438
4.68476
4.61589
4.56057
4.55629
4.59491
4.67404
4.65707
4.49956
4.56341
4.57335
4.63106
4.65885
4.60842
4.54019
4.58452
4.62168
4.64717
4.66083
4.64443
4.45781
4.57019
4.6224
4.5723
4.60825
4.58519
4.56124
4.53447
4.47702
4.91398
4.74877
4.67033
4.88224
5.4707
4.51709
4.58296
4.4303
4.48632
4.5216
4.43825
4.49779
4.49777
4.47772
4.60346
4.47332
4.55947
4.51536
4.47469
5.07034
4.97417
4.87838
5.04046
5.12892
4.50132
4.57854
4.62621
4.4309
4.42319
4.46534
4.45854
4.60617
4.57265
4.56794
4.47875
4.59577
4.58496
4.62079
5.10854
4.87555
4.80322
4.73745
5.32802
0.146315
0.110112
4.4505
4.45388
4.47975
4.5882
4.52356
4.60335
4.48522
4.601
4.58342
4.54095
4.57083
4.61014
4.59972
4.56597
5.10234
4.84136
4.73109
5.2127
4.76614
0.146633
0.135756
4.48355
4.46487
4.43041
4.60322
4.61376
4.50637
4.49259
4.62535
4.61345
4.55895
4.60515
4.52217
4.48862
4.60608
4.74468
4.55314
4.58834
4.53534
4.63825
4.5414
4.50743
4.62554
4.6016
4.51827
4.6047
4.50891
4.59073
4.545
4.52419
4.50239
4.55673
4.51981
4.55917
4.466
4.53166
4.58068
4.696
4.64333
4.67077
4.83855
4.79289
4.8168
4.78333
4.85759
5.11881
5.30998
4.65813
4.71542
4.56945
5.34729
0.101713
0.0909987
5.1367
4.66526
4.72413
4.54351
5.16483
0.107227
0.115815
5.10469
4.96963
4.57926
4.69488
5.24292
0.139045
0.112717
4.85946
4.64155
4.78989
4.5395
4.72288
0.119046
0.146468
4.94607
4.58128
4.67684
4.58781
4.88241
4.82181
4.74878
4.82112
4.7404
4.66776
4.82549
4.77786
4.7344
4.71795
5.3918
5.14384
4.71625
4.65987
5.0739
4.74169
0.103256
0.0967615
5.09627
4.59982
4.80749
4.51357
5.2163
0.161973
0.0859249
5.03255
4.89337
4.74031
4.54332
5.43474
0.119925
0.144612
4.8229
4.55839
4.71891
4.9145
4.60608
0.146252
0.112846
4.88856
4.64794
4.78997
4.59752
4.70097
0.131852
0.0965818
5.07159
4.58599
4.74866
4.57225
4.96899
0.165406
0.133588
4.92243
4.73811
4.84204
4.72224
5.45901
4.97033
4.80635
4.84643
5.19198
4.77343
5.0086
4.81153
4.65415
4.61864
4.9857
0.168458
0.125279
4.89929
4.78202
4.48215
4.57013
5.1991
4.81518
4.79877
4.83843
4.54381
5.42216
5.08573
4.94227
4.57508
4.91843
4.75318
0.110635
0.140352
5.19363
4.67022
4.74493
4.61787
5.22141
0.125892
0.0889292
4.81346
4.68323
4.7524
5.12917
4.74569
4.80934
4.4074
4.57611
4.70246
5.43844
4.99489
4.75663
4.51701
5.05291
4.57825
0.144879
0.085155
4.91494
4.78805
4.57169
4.57569
4.74656
5.05296
4.82682
4.90969
5.01885
4.8273
4.71445
4.37176
4.46586
4.71492
5.18154
4.85747
5.10787
4.85311
4.67765
4.85625
4.77303
4.69619
4.81708
4.8866
4.78824
4.64049
4.69894
4.80266
4.56878
4.78666
4.84602
4.80253
4.84238
4.81558
4.72119
4.82509
4.81393
4.8744
4.92188
4.58506
5.00269
4.67312
4.77197
4.73317
4.73125
4.66685
4.65782
4.74051
4.54412
4.78448
4.74175
4.7238
4.86211
4.85509
4.34546
4.48412
4.84333
4.69301
4.34687
4.77781
4.64655
4.67583
4.75301
4.65976
4.751
4.89698
4.8792