/*--------------------------------*- C++ -*----------------------------------*\
| =========                 |                                                 |
| \\      /  F ield         | OpenFOAM: The Open Source CFD Toolbox           |
|  \\    /   O peration     | Version:  4.1                                   |
|   \\  /    A nd           | Web:      www.OpenFOAM.org                      |
|    \\/     M anipulation  |                                                 |
\*---------------------------------------------------------------------------*/
FoamFile
{
    version     2.0;
    format      ascii;
    class       surfaceScalarField;
    location    "2";
    object      phi;
}
// * * * * * * * * * * * * * * * * * * * * * * * * * * * * * * * * * * * * * //

dimensions      [0 3 -1 0 0 0 0];

internalField   nonuniform List<scalar> 
11516
(
9.98497e+06
-628.098
6866.79
9.92532e+06
-9003.5
6277.66
9.86321e+06
-9757.41
8539.97
9.80033e+06
-9794.59
8711.12
9.737e+06
-9896.79
8569.8
9.67352e+06
-9995.84
8300.52
9.61024e+06
-10038.9
8187.07
9.5481e+06
-9975.9
7752.27
9.48741e+06
-9951.13
7676.02
9.42825e+06
-9955.31
9210.19
9.37009e+06
-9315.6
10798.6
9.31542e+06
-8042.19
10957.6
9.26769e+06
-6963.62
11244.4
9.22943e+06
-5280.27
12120.8
9.19874e+06
-4206.19
9879.72
9.17559e+06
-2955.72
8390.02
9.15725e+06
-2771.23
5171.81
9.14774e+06
-1437.18
4294.55
9.14438e+06
-626.538
2870.9
9.14665e+06
544.977
2457.55
9.14868e+06
508.701
1910.58
9.15191e+06
809.933
2080.93
9.15476e+06
1091.42
3901.41
9.15794e+06
1639.42
6453.94
9.16186e+06
2170.82
8467.16
9.16687e+06
2655.76
9656.09
9.17117e+06
2906.19
11369.7
9.17542e+06
3077.58
12211.6
9.18006e+06
3114.63
12347.1
9.18549e+06
3274.31
12456.4
9.19176e+06
3365.1
12120.2
9.19906e+06
3563.6
12026.9
9.20628e+06
3630.6
12453.6
9.21372e+06
3745.73
12973.8
9.2226e+06
3833.75
12433.6
9.23264e+06
3953.76
12291.4
9.24177e+06
3596.92
13722.1
9.2508e+06
3553.64
13973.9
9.25787e+06
3898.52
14878.4
9.26071e+06
3884.4
16622.3
9.25806e+06
3587.1
18376.9
9.24714e+06
2899.47
21369.6
9.22456e+06
1860.52
25912.6
9.18632e+06
632.186
32860.3
9.12252e+06
-1313.84
43027.6
9.00817e+06
-5555.99
58575
8.79258e+06
-15320.2
84606.5
8.39735e+06
-33906.1
133187
7.70847e+06
-61933
233877
6.69395e+06
-102740
458515
4.96396e+06
-74954.6
784199
2.23698e+06
-286980
1.18741e+06
1.05173e+06
-133102
168084
17510.1
1.17553e+07
9.98474e+06
6758.78
9.92595e+06
5663.19
9.86373e+06
7978.54
9.80092e+06
8190.08
9.73772e+06
8073.15
9.67445e+06
7839.97
9.61137e+06
7743.04
9.54938e+06
7372.99
9.48852e+06
7431.38
9.42861e+06
8436.65
9.37046e+06
9635.46
9.31718e+06
10192.5
9.27058e+06
10967
9.23201e+06
11260.1
9.20158e+06
9975.59
9.17717e+06
7672.34
9.15964e+06
5440.15
9.14945e+06
3964.15
9.14613e+06
3335.4
9.14666e+06
2385.82
9.14847e+06
2307.43
9.15105e+06
2349.18
9.15381e+06
4215.32
9.15658e+06
6667.97
9.1601e+06
8685.04
9.16454e+06
9834.37
9.16846e+06
11589.4
9.17228e+06
12409.9
9.17664e+06
12634.1
9.18174e+06
12701.8
9.18784e+06
12354.9
9.19494e+06
12201.1
9.20207e+06
12648.2
9.20934e+06
13124.8
9.21801e+06
12650.7
9.22752e+06
12539.8
9.23579e+06
13482.5
9.24415e+06
13306.2
9.251e+06
14424.4
9.25376e+06
16319.5
9.25113e+06
18350.9
9.2401e+06
21382.7
9.21755e+06
25965.6
9.17884e+06
32775.6
9.11295e+06
42888.1
8.99324e+06
58508.3
8.76889e+06
84793.6
8.3642e+06
135156
7.6629e+06
239951
6.71494e+06
477566
4.73337e+06
745314
2.37286e+06
1.3119e+06
1.3093e+06
54501.2
1.16507e+07
9.99918e+06
-738.773
529.701
9.94044e+06
-10118.7
6271.33
9.88309e+06
-10779.6
7353.77
9.82542e+06
-10762.8
7474.93
9.76705e+06
-10835.9
7575.6
9.70808e+06
-10910.9
7622.97
9.64906e+06
-10930.1
7702.57
9.5905e+06
-10840.6
7649.85
9.53267e+06
-10620.6
8326.03
9.47731e+06
-10170.3
9354.14
9.42495e+06
-9555.67
10933.1
9.3755e+06
-9018.21
12358
9.33334e+06
-7617.55
14284.5
9.29815e+06
-6503.86
15065.1
9.2711e+06
-4573.95
15104.4
9.24648e+06
-4086.52
13087.2
9.22778e+06
-2943.79
10849.1
9.215e+06
-2193.07
8815.91
9.21128e+06
-537.393
7252.69
9.21078e+06
163.34
6049.65
9.21203e+06
585.254
5671.77
9.21246e+06
754.931
6910.61
9.21353e+06
1115.18
9841.24
9.21565e+06
1619.1
13794.2
9.21962e+06
2223.16
17038.2
9.22421e+06
2681.67
19816.7
9.23052e+06
3028.18
21542.9
9.23757e+06
3202.4
22638.1
9.24547e+06
3357.72
22893.2
9.25363e+06
3453.44
23303.2
9.26215e+06
3593.58
23370
9.2708e+06
3713.31
23703.1
9.27998e+06
3857.05
24369.2
9.28983e+06
3971.52
24882.2
9.29945e+06
4141.12
25458.6
9.30881e+06
4270.81
26024.4
9.31863e+06
4498.98
27242.7
9.32712e+06
4633.31
28523.3
9.33377e+06
4563.1
30422.4
9.33715e+06
4201.92
33064.7
9.33457e+06
3643.08
37135.9
9.32358e+06
2732.41
42565.9
9.30126e+06
1624.79
51029.7
9.26341e+06
191.28
63539.1
9.20096e+06
-1894.67
82115.9
9.09058e+06
-6272.17
110528
8.88608e+06
-16300.7
157973
8.5232e+06
-34109.6
248149
7.9248e+06
-59480.5
433920
6.96312e+06
-89403.2
828824
5.26287e+06
-119054
1.66934e+06
1.82408e+06
-174409
3.62293e+06
-7.69816e+06
-247164
8.94431e+06
-79674.2
8.79703e+06
9.99913e+06
513.992
9.94102e+06
6028.86
9.88337e+06
7121.35
9.82559e+06
7258.55
9.7672e+06
7372.46
9.70829e+06
7432.2
9.6494e+06
7530.91
9.59101e+06
7491.85
9.53346e+06
8181.22
9.47822e+06
9140.78
9.42583e+06
10598.4
9.3773e+06
12151.6
9.33496e+06
13750.2
9.3006e+06
14729.6
9.27204e+06
14452.5
9.24796e+06
12629.8
9.22887e+06
10584.1
9.217e+06
8590.56
9.21236e+06
7073.6
9.21162e+06
5836.39
9.21241e+06
5771.21
9.21294e+06
6975.85
9.21413e+06
9949.15
9.21645e+06
13913.2
9.22036e+06
17149.3
9.22489e+06
19993.8
9.23105e+06
21775.2
9.23808e+06
22943.6
9.2459e+06
23212.3
9.25409e+06
23612.2
9.26257e+06
23621.8
9.27122e+06
23891.3
9.28033e+06
24503.1
9.2902e+06
24996
9.29974e+06
25519.3
9.30915e+06
26041.1
9.31882e+06
27126.7
9.32706e+06
28293.7
9.33339e+06
30154.7
9.33655e+06
32842.5
9.33361e+06
36910.9
9.32241e+06
42367.4
9.29977e+06
50738.8
9.26128e+06
63159.6
9.19653e+06
81610.5
9.08046e+06
110011
8.86807e+06
158284
8.49746e+06
250516
7.89443e+06
440256
6.93307e+06
841661
5.21223e+06
1.67385e+06
1.76042e+06
3.64718e+06
-7.70494e+06
9.06263e+06
8.83742e+06
9.99332e+06
-766.572
-379.851
9.93536e+06
-10372.2
5103.22
9.87688e+06
-11003.7
6960.02
9.81799e+06
-10961.4
7186.68
9.75865e+06
-11014.4
7335.65
9.69903e+06
-11072
7452.12
9.63974e+06
-11069.7
7438.73
9.58069e+06
-10967.7
8007.37
9.52332e+06
-10736.6
8609.39
9.46749e+06
-10368.2
10223.3
9.41391e+06
-9900.98
12139.2
9.36341e+06
-9236.39
14546.2
9.31826e+06
-8159.69
17440.6
9.28037e+06
-6774.68
19078.4
9.25095e+06
-5059.48
19326.3
9.22619e+06
-4334.66
16705.8
9.20895e+06
-2985.39
14488.6
9.19835e+06
-2239.86
10547.9
9.19654e+06
-580.446
8928.13
9.19847e+06
72.091
6983.88
9.20302e+06
794.629
7179.66
9.2061e+06
865.199
9649.76
9.20871e+06
1197.37
14586.2
9.211e+06
1683.29
21043.2
9.21312e+06
2268.78
27329.2
9.21579e+06
2792.6
32129.7
9.21943e+06
3187.21
34975.2
9.22416e+06
3420.78
36362.4
9.2297e+06
3576.88
36714.6
9.2363e+06
3653.62
36568.6
9.24326e+06
3736.55
36700.6
9.25105e+06
3796.09
36522.4
9.25956e+06
3895.68
37018.7
9.26852e+06
4002.48
37641.1
9.27826e+06
4132.41
38004.7
9.288e+06
4231.73
38914.7
9.29788e+06
4345.31
40207.6
9.30722e+06
4380.4
41698.1
9.3152e+06
4284.65
43894.6
9.31995e+06
3981.11
47502.2
9.32012e+06
3428.3
52318.6
9.31241e+06
2550.92
59861.2
9.29471e+06
1355.82
70642.3
9.2634e+06
-163.444
86852.3
9.21109e+06
-2371.63
110513
9.11983e+06
-6755.72
145722
8.95783e+06
-15951
202307
8.68975e+06
-31708.1
304761
8.29887e+06
-53126.1
503038
7.78316e+06
-76534.5
890141
7.20567e+06
-113559
1.66522e+06
7.22344e+06
-146890
3.20455e+06
1.05708e+07
-118818
5.84561e+06
-36310.1
4.1711e+06
9.99332e+06
-359.482
9.9361e+06
5073.75
9.87736e+06
6877.85
9.81839e+06
7099.88
9.75907e+06
7254.75
9.69953e+06
7386.41
9.64037e+06
7395.39
9.5815e+06
7996.41
9.52429e+06
8627.51
9.46856e+06
10250.2
9.4152e+06
12119.1
9.36515e+06
14463.3
9.32052e+06
16983.5
9.28302e+06
18687.6
9.25274e+06
18181.7
9.22852e+06
16421.3
9.21068e+06
13644.8
9.20103e+06
10650.4
9.1982e+06
8511.73
9.20016e+06
7187.04
9.20382e+06
7225.02
9.20705e+06
9984.94
9.20965e+06
14833.6
9.21206e+06
21140.9
9.2141e+06
27265.3
9.21665e+06
32081.6
9.2201e+06
34956.4
9.22471e+06
36462.3
9.23013e+06
36868.6
9.2367e+06
36795.6
9.24361e+06
36924.3
9.25142e+06
36768.7
9.25991e+06
37226.4
9.26888e+06
37837.8
9.27857e+06
38146.6
9.28831e+06
39035.2
9.29809e+06
40252.5
9.30728e+06
41708
9.31504e+06
43868.5
9.31953e+06
47494
9.31936e+06
52324.8
9.31133e+06
59935.2
9.29332e+06
70788.5
9.26133e+06
87066.7
9.20685e+06
110906
9.11074e+06
146789
8.94206e+06
205855
8.66815e+06
313722
8.27502e+06
522423
7.74528e+06
926871
7.17246e+06
1.74313e+06
7.25398e+06
3.31219e+06
1.04782e+07
5.95344e+06
4.21441e+06
9.99278e+06
-763.551
-562.513
9.93455e+06
-10394.7
4288.56
9.87611e+06
-11051.1
6521.73
9.81722e+06
-11011.5
6879.02
9.75794e+06
-11056.9
7095.92
9.69866e+06
-11098.3
7089.14
9.63925e+06
-11075
7575.41
9.5809e+06
-10944.2
8127.21
9.52407e+06
-10691
8955.81
9.46932e+06
-10330.7
10650.2
9.4165e+06
-9919.98
12909.3
9.366e+06
-9341.99
16070.3
9.31937e+06
-8611.34
19305
9.2806e+06
-7049.65
21682
9.2478e+06
-5980.18
21816.5
9.22361e+06
-4317.2
19949.8
9.20541e+06
-3560.98
16267.3
9.1964e+06
-1978.93
12514.9
9.19459e+06
-881.934
9431.81
9.19928e+06
403.379
7562.71
9.20565e+06
926.879
7792.25
9.21182e+06
1204.27
11437.9
9.21577e+06
1386.49
18507.5
9.21793e+06
1705.94
28064.1
9.21852e+06
2132.17
37678.8
9.21932e+06
2665.4
45106.6
9.22125e+06
3072.09
49341.5
9.225e+06
3389.96
51094.9
9.23038e+06
3560.3
51040.4
9.23673e+06
3673.06
50660
9.24405e+06
3724.35
50109.7
9.25175e+06
3790.36
49858.5
9.26026e+06
3846.85
49800.2
9.26959e+06
3947.95
50057.9
9.27909e+06
4035.85
50564.8
9.28937e+06
4131.36
51016.2
9.29979e+06
4189.84
52189.2
9.30973e+06
4211.63
53888.2
9.31845e+06
4101.38
56190.3
9.32497e+06
3836.47
59928.2
9.32729e+06
3317.49
65330.2
9.32358e+06
2526.03
73733.9
9.31096e+06
1419.11
86462.8
9.28713e+06
-17.4466
104775
9.24638e+06
-2031.32
131785
9.17652e+06
-5721.35
171881
9.06044e+06
-12412
235740
8.88834e+06
-22740
346425
8.68703e+06
-33734.1
546713
8.56301e+06
-39775.7
899981
8.76353e+06
-35294.4
1.47682e+06
9.92022e+06
-36755.3
2.33845e+06
1.31001e+07
-1120.71
3.2662e+06
7348.28
1.92903e+06
9.99276e+06
-558.339
9.93527e+06
4218.75
9.87658e+06
6431.85
9.81763e+06
6791.85
9.75837e+06
7017.06
9.69918e+06
7025.71
9.63992e+06
7535.11
9.58175e+06
8116.72
9.52506e+06
8977.13
9.47039e+06
10688.4
9.41768e+06
12936.7
9.36741e+06
15965.1
9.32163e+06
19099.3
9.28255e+06
20928.4
9.25039e+06
21159.7
9.22534e+06
19218.2
9.208e+06
15821.7
9.19851e+06
12312.7
9.19696e+06
9178.7
9.20077e+06
7557.67
9.20679e+06
7834.66
9.21264e+06
11686.7
9.21664e+06
18742.8
9.21884e+06
28067.7
9.21952e+06
37706.3
9.2202e+06
45024.2
9.22202e+06
49408.1
9.22558e+06
51306.9
9.23085e+06
51336.7
9.2371e+06
50944.5
9.2444e+06
50332
9.25206e+06
49993.6
9.26059e+06
49856.5
9.26988e+06
50032.6
9.27937e+06
50471.9
9.28959e+06
50858.1
9.29996e+06
51971.8
9.30975e+06
53605.7
9.3183e+06
55858.9
9.32455e+06
59546.1
9.3266e+06
64909.3
9.32258e+06
73263.1
9.30964e+06
85922.7
9.28524e+06
104120
9.2428e+06
131001
9.1699e+06
171369
9.05008e+06
236523
8.8772e+06
350500
8.68074e+06
556099
8.5673e+06
916151
8.76273e+06
1.50262e+06
9.95628e+06
2.40267e+06
1.29953e+07
3.31882e+06
1.94921e+06
9.99265e+06
-767.459
-664.33
9.93391e+06
-10467.9
3600.95
9.87533e+06
-11128.6
5931.02
9.81642e+06
-11076.6
6352.04
9.75722e+06
-11107.4
6622
9.69794e+06
-11130.5
6673.35
9.63908e+06
-11084.6
7240.55
9.58151e+06
-10928.9
7710.94
9.52547e+06
-10653.7
8874.47
9.47146e+06
-10294.1
10728.6
9.41926e+06
-9925.37
13185.3
9.36883e+06
-9528.52
16623.4
9.32192e+06
-8872.86
19970.5
9.28027e+06
-7789.32
22974.9
9.24577e+06
-6487.82
23536.7
9.22014e+06
-4769.33
22198.5
9.20174e+06
-3734.28
17680.8
9.19354e+06
-1942.26
13760.5
9.19279e+06
-932.87
8890.1
9.20008e+06
566.656
6702.34
9.21003e+06
1083.47
6580.73
9.21997e+06
1472.83
11386.7
9.22652e+06
1549.07
21137.9
9.22833e+06
1573.16
34549.9
9.22694e+06
2006.21
48638.9
9.22436e+06
2446.07
59736.7
9.22365e+06
3008.59
65835
9.22589e+06
3465.09
67744.1
9.2307e+06
3708.51
66832.4
9.23725e+06
3801.55
65333.2
9.24472e+06
3788.57
63794.3
9.25281e+06
3771.68
62775.9
9.26133e+06
3758.98
62142.6
9.2706e+06
3792.14
61723.3
9.28049e+06
3828.77
61668.9
9.29071e+06
3877.5
61867
9.30163e+06
3895.18
62197.2
9.31252e+06
3870.21
63447.9
9.32265e+06
3728.04
65306.8
9.33101e+06
3427.79
68623.2
9.33595e+06
2882.91
73820.7
9.3362e+06
2052.14
81667.5
9.32973e+06
883.118
93996
9.31443e+06
-662.51
111759
9.28676e+06
-2799.33
137870
9.24067e+06
-6202.25
176062
9.17147e+06
-11577.8
235308
9.08921e+06
-18597.6
333580
9.04172e+06
-24274.3
500929
9.14384e+06
-23480.9
773147
9.63489e+06
-9139.41
1.17214e+06
1.08677e+07
28793.8
1.63167e+06
1.29128e+07
54979.8
1.86977e+06
27709.2
968037
9.99263e+06
-649.259
9.93467e+06
3532.21
9.87584e+06
5824.54
9.81687e+06
6248.93
9.75769e+06
6530.65
9.69851e+06
6603.73
9.63981e+06
7204.05
9.58241e+06
7718.12
9.5265e+06
8930.27
9.4725e+06
10821.4
9.42029e+06
13294.3
9.37009e+06
16637.2
9.32359e+06
19789.4
9.28234e+06
22302.8
9.24831e+06
22952.9
9.2222e+06
20984.8
9.20458e+06
17416.9
9.19565e+06
13025
9.19543e+06
9087.13
9.20163e+06
6689.81
9.21137e+06
7112.73
9.22072e+06
12045.8
9.22713e+06
21593.7
9.22923e+06
34806.8
9.22785e+06
48373.8
9.22541e+06
59191.4
9.22459e+06
65365.1
9.2266e+06
67456.8
9.23122e+06
66792.4
9.23761e+06
65445.9
9.24503e+06
64018.4
9.25307e+06
63016.6
9.2616e+06
62393.9
9.27084e+06
61931.5
9.28071e+06
61855
9.29087e+06
62003.2
9.30173e+06
62310
9.31248e+06
63522.6
9.32244e+06
65383
9.33055e+06
68707.3
9.3352e+06
73966.2
9.33512e+06
81905.1
9.32828e+06
94374.2
9.31239e+06
112335
9.28343e+06
138751
9.23532e+06
177939
9.16439e+06
239550
9.08338e+06
342606
9.0423e+06
516900
9.15806e+06
797052
9.67327e+06
1.20214e+06
1.08939e+07
1.65309e+06
1.28018e+07
1.87822e+06
966577
9.99252e+06
-773.244
-657.627
9.9334e+06
-10529.6
2860.5
9.87467e+06
-11193.6
5087.01
9.81572e+06
-11133.1
5528.69
9.75668e+06
-11147.7
5740.73
9.69752e+06
-11148
6059.56
9.63905e+06
-11070.9
6630.07
9.58187e+06
-10877.8
7229.05
9.52662e+06
-10564
8535.33
9.47373e+06
-10183.7
10329.7
9.42241e+06
-9826.43
13094.1
9.37252e+06
-9540.94
16395.2
9.32466e+06
-9085.09
19921.3
9.28053e+06
-8419.64
22984.4
9.24433e+06
-6852.57
24444.4
9.21556e+06
-5660.22
22756.5
9.19791e+06
-3669
18906
9.18891e+06
-2416.16
13697.9
9.19086e+06
-571.612
8453.3
9.20062e+06
667.704
4922.41
9.21578e+06
1676.18
4354.32
9.23098e+06
2102.73
9626.56
9.24134e+06
1911.26
21781.6
9.24373e+06
1700.95
39358.5
9.23912e+06
1612.68
59068.1
9.23143e+06
1793.49
74365.5
9.22634e+06
2435.89
83008.3
9.22626e+06
3074.4
85002.1
9.23031e+06
3524.49
83282.7
9.23701e+06
3712.04
80315.9
9.24482e+06
3759.06
77784.9
9.25305e+06
3725.17
75960.5
9.26191e+06
3708.85
74466
9.2712e+06
3700.74
73433.9
9.28127e+06
3728.79
72591.7
9.29194e+06
3748.36
72122.2
9.30317e+06
3767.72
71783.8
9.31483e+06
3731.14
72132
9.32601e+06
3617.07
73485.6
9.33623e+06
3349.84
75891.9
9.34419e+06
2889.81
80380.2
9.34855e+06
2171.81
87454.9
9.34809e+06
1161.05
98700.4
9.34076e+06
-171.266
115700
9.32517e+06
-1984.55
140080
9.30012e+06
-4365.33
176263
9.26997e+06
-7346.28
231446
9.25693e+06
-9557.89
319090
9.31482e+06
-8269.85
457295
9.54515e+06
518.72
659605
1.00993e+07
21155.9
910439
1.11143e+07
51073.9
1.12962e+06
1.23973e+07
65091.7
1.12935e+06
26379.6
536233
9.9925e+06
-656.991
9.93417e+06
2751.17
9.87519e+06
4959.62
9.81619e+06
5410.38
9.75719e+06
5637.16
9.69813e+06
5978.88
9.63983e+06
6580.87
9.58283e+06
7219.53
9.52771e+06
8568.29
9.4748e+06
10399.8
9.42337e+06
13178.1
9.37352e+06
16445.7
9.3259e+06
19771.5
9.28266e+06
22673.2
9.2463e+06
23607.4
9.21847e+06
22127.2
9.20022e+06
18278.6
9.19192e+06
13338.6
9.19325e+06
8395.5
9.20281e+06
4844.39
9.21719e+06
4687.77
9.23164e+06
9982.93
9.24177e+06
22017.9
9.24417e+06
39600
9.23978e+06
58306.2
9.23254e+06
73677.4
9.22746e+06
82364.5
9.22717e+06
84788.1
9.23092e+06
83379.8
9.23743e+06
80488.7
9.24509e+06
77873.4
9.2533e+06
75938.9
9.26212e+06
74339
9.27141e+06
73235.6
9.28144e+06
72331.8
9.29209e+06
71821.6
9.30324e+06
71440.7
9.3148e+06
71758.7
9.32583e+06
73082.5
9.33585e+06
75475.1
9.34355e+06
79954.9
9.34762e+06
87031.6
9.34685e+06
98280.5
9.33903e+06
115266
9.32284e+06
139740
9.29713e+06
176306
9.26768e+06
232730
9.25809e+06
322690
9.32348e+06
463941
9.56575e+06
668579
1.01295e+07
918331
1.11282e+07
1.13441e+06
1.22885e+07
1.11905e+06
531423
9.9924e+06
-781.594
-661.336
9.93289e+06
-10641.3
1911.73
9.87402e+06
-11305.9
3889.57
9.81505e+06
-11226.8
4317.34
9.75612e+06
-11221.5
4464.02
9.69721e+06
-11196.8
5049.6
9.63915e+06
-11089.6
5619.89
9.58258e+06
-10863.4
6337
9.52832e+06
-10519.4
7569.39
9.47595e+06
-10120.6
9852.28
9.42566e+06
-9780.14
12306.2
9.37618e+06
-9569.67
15653.8
9.32746e+06
-9349.85
19351.7
9.28184e+06
-8775.61
22584.1
9.2424e+06
-7633.14
24389.5
9.21188e+06
-6107.85
23110.3
9.1926e+06
-4013.6
19866.9
9.1838e+06
-2511.3
13135.9
9.18768e+06
-389.462
7071.17
9.20094e+06
784.115
861.523
9.22211e+06
2111.38
-928.69
9.24486e+06
2472.65
3991.04
9.2608e+06
2016.59
17772.2
9.26553e+06
1701.39
41452
9.25571e+06
571.599
67243.4
9.24091e+06
840.002
89815.4
9.22909e+06
1579.27
102271
9.22541e+06
2674.2
104578
9.22892e+06
3464.94
100719
9.2359e+06
3749.89
95678.2
9.2443e+06
3724.84
91195.2
9.25298e+06
3588.28
88043.9
9.26183e+06
3474.18
85536.9
9.27121e+06
3404.29
83454.4
9.28131e+06
3382.63
81635.6
9.29233e+06
3374.76
80048.2
9.30401e+06
3365.61
78810.4
9.31625e+06
3312.31
78092.2
9.32903e+06
3181.08
77906.6
9.34094e+06
2911.07
79389.1
9.35167e+06
2451.28
82184.5
9.36001e+06
1740.48
87430
9.36494e+06
735.405
96345.1
9.36553e+06
-610.81
110261
9.36155e+06
-2324.22
130475
9.35547e+06
-4309.61
160709
9.3578e+06
-6030.11
206418
9.39545e+06
-5908.42
276853
9.51782e+06
-1559.03
382197
9.79752e+06
9603.06
525294
1.03213e+07
29271.2
684715
1.11185e+07
56376.7
788743
1.19689e+07
55620.9
720749
21664.5
329470
9.99239e+06
-649.579
9.9337e+06
1828.19
9.87458e+06
3780.89
9.81557e+06
4216.75
9.75668e+06
4378.18
9.69788e+06
4988.02
9.64e+06
5593.49
9.58361e+06
6355.76
9.52946e+06
7637.46
9.47704e+06
9965.49
9.42656e+06
12442.2
9.37696e+06
15773.2
9.3285e+06
19316.9
9.28342e+06
22311.1
9.2446e+06
23652.6
9.2148e+06
22512.2
9.19524e+06
18726.8
9.18716e+06
12926.4
9.19014e+06
6504.28
9.20356e+06
1259.74
9.22353e+06
-270.731
9.24536e+06
4799.59
9.26114e+06
19029.7
9.26492e+06
41187.1
9.25641e+06
66500.5
9.24206e+06
88264.2
9.23067e+06
100771
9.22669e+06
103568
9.22969e+06
100278
9.23632e+06
95688.6
9.24454e+06
91419
9.25316e+06
88340.6
9.262e+06
85817.6
9.27137e+06
83710.6
9.28144e+06
81851.5
9.29242e+06
80241.7
9.30404e+06
78978.6
9.31619e+06
78258.8
9.32882e+06
78083.5
9.34053e+06
79614.4
9.35101e+06
82491.1
9.35907e+06
87869.1
9.36366e+06
96971.5
9.36387e+06
111151
9.35958e+06
131838
9.35371e+06
162964
9.35782e+06
210450
9.39966e+06
283530
9.52887e+06
391836
9.81715e+06
536418
1.03486e+07
692978
1.11176e+07
785520
1.18664e+07
710406
322457
9.99225e+06
-788.829
-586.181
9.9325e+06
-10719.3
808.054
9.87354e+06
-11377.2
2414.92
9.81458e+06
-11283.2
2809.94
9.75567e+06
-11258.4
2982.65
9.69712e+06
-11207.4
3651.36
9.63968e+06
-11067.3
4153.82
9.5836e+06
-10802.4
5320.94
9.52979e+06
-10420.1
6710.98
9.47864e+06
-9991.38
8838.34
9.42894e+06
-9649.7
11560.7
9.37981e+06
-9486.44
14827.1
9.33081e+06
-9426.57
18371.2
9.28353e+06
-9071.37
21741
9.24112e+06
-8297.58
23475.2
9.20846e+06
-6465.32
23201.1
9.18629e+06
-4843.86
19180.7
9.17801e+06
-2422.39
12846.8
9.18186e+06
-719.525
4801.75
9.19961e+06
1304.61
-3503.56
9.22824e+06
2800.25
-8200.56
9.26058e+06
3266.98
-5908.29
9.28718e+06
3192.46
8705
9.2938e+06
1330.99
36799
9.28011e+06
-337.16
71146.2
9.2538e+06
-961.766
103154
9.23172e+06
-61.1698
121593
9.22296e+06
1657.47
124834
9.22557e+06
2994.18
118673
9.23358e+06
3631.42
111101
9.24269e+06
3728.24
105004
9.25178e+06
3607.95
100533
9.26085e+06
3453.49
96879.7
9.27033e+06
3357.39
93701.9
9.28044e+06
3307.63
90869.1
9.29164e+06
3297.38
88023.5
9.30368e+06
3286.42
85734.2
9.31678e+06
3256.51
83635.6
9.33027e+06
3159.94
82353.5
9.34421e+06
2961.34
82086.7
9.35739e+06
2603.29
83513.7
9.36904e+06
2042.37
87128
9.37878e+06
1239.34
93620.1
9.38603e+06
171.488
104715
9.39186e+06
-1050.32
121356
9.40123e+06
-2117.18
146773
9.4283e+06
-2031.29
185172
9.50095e+06
764.568
242218
9.66135e+06
8103.54
322220
9.95791e+06
20803.2
421033
1.04271e+07
37713
515639
1.10532e+07
53503.4
557101
1.1659e+07
45761
480037
14703.6
216559
9.99226e+06
-585.46
9.93332e+06
724.374
9.87411e+06
2311.61
9.81512e+06
2714.64
9.75626e+06
2903.08
9.69784e+06
3595.65
9.64058e+06
4129.95
9.58469e+06
5335.43
9.531e+06
6766.38
9.47978e+06
8929.77
9.42983e+06
11675.1
9.38046e+06
14931.5
9.33155e+06
18405.3
9.28471e+06
21548.9
9.24342e+06
23128.8
9.21087e+06
22395.4
9.18975e+06
18597.4
9.18095e+06
12246.4
9.18528e+06
4377.06
9.20241e+06
-3502.57
9.23e+06
-8385.19
9.26155e+06
-5629.79
9.28615e+06
9168.84
9.29276e+06
35958
9.27994e+06
70216.1
9.25512e+06
100492
9.23386e+06
119569
9.22475e+06
124021
9.22666e+06
118738
9.23409e+06
111330
9.24293e+06
105084
9.25192e+06
100423
9.26098e+06
96651.3
9.27046e+06
93402.9
9.28056e+06
90543
9.29173e+06
87679.3
9.30373e+06
85389
9.31675e+06
83290.3
9.33012e+06
82024.6
9.34391e+06
81782.6
9.35689e+06
83255.4
9.3683e+06
86930.9
9.37778e+06
93503.5
9.38486e+06
104729
9.3908e+06
121584
9.40126e+06
147479
9.43099e+06
186680
9.50817e+06
244868
9.67396e+06
325795
9.97479e+06
424396
1.0443e+07
516307
1.10454e+07
552852
1.15616e+07
469848
212441
9.99217e+06
-794.637
-516.914
9.93217e+06
-10803.7
-486.7
9.87316e+06
-11468.4
626.423
9.81426e+06
-11360.5
963.47
9.75553e+06
-11317.4
1160.23
9.69726e+06
-11242.3
1916.26
9.64008e+06
-11073.9
2554.09
9.58478e+06
-10778.4
3791.79
9.53169e+06
-10367.7
5547.54
9.48111e+06
-9920.32
7725.95
9.43231e+06
-9579.39
10362.9
9.38351e+06
-9458.44
13879.3
9.33406e+06
-9500.11
17459.1
9.2854e+06
-9385.84
20656.3
9.24074e+06
-8678.36
22824
9.2046e+06
-7206.33
22757.9
9.17989e+06
-5251.27
19066.2
9.16974e+06
-2741.59
12422.8
9.17382e+06
-870.459
1228.26
9.19528e+06
1556.01
-10486.3
9.23149e+06
2877.16
-21549.2
9.27754e+06
3660.45
-24647.5
9.31862e+06
3638.02
-10939
9.33181e+06
183.868
19879.3
9.31384e+06
-1848.42
65329
9.27143e+06
-4154.42
114557
9.23437e+06
-2612.57
145723
9.21818e+06
406.712
150298
9.22008e+06
2804.04
139105
9.22965e+06
3710.63
126725
9.24005e+06
3692.58
117800
9.24971e+06
3389.59
111377
9.25881e+06
3120.17
106377
9.26799e+06
2959.26
102070
9.27825e+06
2891
97695.8
9.28944e+06
2873.1
93713.6
9.30209e+06
2871.82
89853.5
9.3156e+06
2851.94
86661.5
9.33025e+06
2780.57
83711.5
9.34551e+06
2613.78
81782.2
9.36088e+06
2305.94
81294.9
9.37578e+06
1807.66
82608
9.38975e+06
1083.81
86241.7
9.40292e+06
146.869
93714.9
9.41731e+06
-855.204
105664
9.43965e+06
-1430.85
124833
9.48538e+06
-523.932
154242
9.58107e+06
3432.49
197442
9.76048e+06
11714.6
255747
1.00532e+07
24236.5
323355
1.04697e+07
38508.2
381692
1.09779e+07
49482.8
396069
1.14426e+07
35860.1
329877
10607.7
152786
9.99217e+06
-509.921
9.93302e+06
-543.895
9.87377e+06
563.654
9.81483e+06
911.846
9.75616e+06
1123.95
9.69803e+06
1902.58
9.64103e+06
2571.13
9.58593e+06
3845.43
9.53294e+06
5639.99
9.48228e+06
7850.84
9.43319e+06
10507.7
9.38405e+06
14009.8
9.33457e+06
17527.9
9.28641e+06
20535.3
9.24257e+06
22458.7
9.20725e+06
21955.6
9.18335e+06
18375.6
9.17294e+06
11138
9.17772e+06
798.3
9.19801e+06
-11182.5
9.2337e+06
-21219.6
9.27857e+06
-22940.9
9.31613e+06
-11012.6
9.33046e+06
20771
9.31191e+06
62139.8
9.27332e+06
112202
9.23768e+06
143304
9.22098e+06
148463
9.22153e+06
138446
9.23018e+06
127011
9.24021e+06
118412
9.24979e+06
111977
9.2589e+06
106875
9.2681e+06
102479
9.27835e+06
98044.3
9.28952e+06
94027.1
9.30212e+06
90149.6
9.31557e+06
86960.3
9.33011e+06
84034.9
9.34524e+06
82160.9
9.36042e+06
81764.1
9.37511e+06
83212.3
9.38886e+06
87039.3
9.40194e+06
94801.5
9.41671e+06
107206
9.44046e+06
127104
9.48919e+06
157552
9.58922e+06
201925
9.77291e+06
260973
1.00674e+07
328022
1.04808e+07
383596
1.09642e+07
392388
1.13502e+07
323795
149155
9.99207e+06
-799.837
-402.733
9.93198e+06
-10857.5
-1880.77
9.87299e+06
-11506.9
-1319.58
9.81421e+06
-11381.9
-1050.88
9.75568e+06
-11319.6
-836.489
9.69774e+06
-11221.2
14.8992
9.64101e+06
-11024.4
809.249
9.58619e+06
-10697.8
2240.35
9.53385e+06
-10257.7
4202.39
9.48397e+06
-9790.3
6560.25
9.43562e+06
-9443.75
9322.99
9.38729e+06
-9354.77
12799.4
9.33778e+06
-9480.23
16391.5
9.28779e+06
-9545.7
19669.8
9.24086e+06
-9050.35
21874
9.20091e+06
-7922.46
21876.9
9.17337e+06
-5700.69
18738.3
9.15872e+06
-3729.98
10888.4
9.1617e+06
-1001.4
-1609.68
9.18358e+06
1101.06
-18754.4
9.22863e+06
3281.14
-37812.4
9.29283e+06
5570.99
-51087.3
9.35379e+06
3556.84
-47291.2
9.38329e+06
1102.86
-18405.9
9.36464e+06
-4981.22
45105.4
9.29905e+06
-6988.64
119262
9.23726e+06
-5098
177142
9.20928e+06
-950.025
185320
9.21135e+06
2430.79
163450
9.22359e+06
3957.92
143616
9.23596e+06
4063.69
131086
9.24608e+06
3663.26
123038
9.25516e+06
3273.61
116513
9.26449e+06
3035.56
110623
9.2746e+06
2930.18
104912
9.28602e+06
2903.68
99479.1
9.29872e+06
2911.19
94349.8
9.31291e+06
2918.63
89672.6
9.32838e+06
2894.36
85273.2
9.34489e+06
2802.64
81778.9
9.36208e+06
2602.11
79539.3
9.37951e+06
2252.81
78824.1
9.39694e+06
1734.58
80036
9.41495e+06
1100.89
84551.9
9.43637e+06
574.425
92812.4
9.46894e+06
753.417
107155
9.52849e+06
2728.55
129628
9.63937e+06
7882.71
162146
9.82826e+06
16931.8
204025
1.0112e+07
28930.3
249017
1.04849e+07
40486.4
282546
1.09128e+07
45937.6
283267
1.12934e+07
29939.2
231516
6965.42
111960
9.99208e+06
-401.413
9.93285e+06
-1909.05
9.87362e+06
-1366.14
9.8148e+06
-1092.05
9.75634e+06
-863.555
9.69855e+06
8.27339
9.64201e+06
827.967
9.58738e+06
2287.16
9.53515e+06
4275.92
9.48518e+06
6655.55
9.4365e+06
9428.58
9.38777e+06
12896.8
9.33812e+06
16444.7
9.28849e+06
19624
9.2423e+06
21598.5
9.20361e+06
21448.9
9.17624e+06
17846.6
9.16267e+06
10112.3
9.16517e+06
-2600.21
9.18735e+06
-19752.3
9.23232e+06
-38718.2
9.29229e+06
-53206.3
9.35267e+06
-46422.2
9.37818e+06
-22136.9
9.36339e+06
44266.2
9.30135e+06
111042
9.24172e+06
171824
9.21297e+06
185370
9.2133e+06
165493
9.22423e+06
145042
9.23607e+06
131675
9.24611e+06
123161
9.25524e+06
116427
9.26461e+06
110462
9.27474e+06
104724
9.28615e+06
99291.6
9.29882e+06
94169.9
9.31296e+06
89515.8
9.32835e+06
85147.3
9.34476e+06
81703.3
9.3618e+06
79529
9.37906e+06
78902.7
9.39637e+06
80233
9.41446e+06
84911.4
9.43652e+06
93428.6
9.47082e+06
108116
9.53351e+06
131040
9.6483e+06
163881
9.84018e+06
205703
1.01235e+07
249848
1.04905e+07
281542
1.08968e+07
279991
1.12036e+07
226539
110115
9.99205e+06
-801.26
-280.857
9.93191e+06
-10883.6
-3374.2
9.87301e+06
-11545.6
-3465.31
9.81439e+06
-11415.3
-3293.82
9.75613e+06
-11340
-3073.28
9.69857e+06
-11224.1
-2131.72
9.64211e+06
-11007.3
-983.853
9.58786e+06
-10661.3
446.827
9.53635e+06
-10205.4
2420.47
9.48711e+06
-9729.77
5157.42
9.43911e+06
-9388.85
8261.19
9.39101e+06
-9327.26
11652.9
9.3412e+06
-9519.26
15433.3
9.29039e+06
-9700.39
18652.6
9.24104e+06
-9435.38
21305.5
9.19795e+06
-8368.34
21676.6
9.16521e+06
-6516.96
18922.6
9.14581e+06
-4305.36
10498.7
9.14352e+06
-1700.25
-4585.25
9.1631e+06
422.43
-30017.1
9.21343e+06
3035.47
-63931.9
9.29753e+06
3609.98
-93438.8
9.38971e+06
4819.73
-113856
9.45868e+06
-2363.19
-93594.4
9.44208e+06
-6584.28
-35931.2
9.34867e+06
-15520.4
109171
9.24125e+06
-10857.8
231834
9.19143e+06
-1190.28
247323
9.19668e+06
4792.05
195280
9.21495e+06
5796.09
159263
9.22989e+06
4948.89
140699
9.24091e+06
3972.84
129956
9.25005e+06
3311.18
121904
9.25931e+06
2967.19
114582
9.26938e+06
2818.81
107761
9.28085e+06
2783.91
101164
9.29387e+06
2792.08
94864.2
9.30869e+06
2815.98
88803.5
9.32488e+06
2816.04
83300.3
9.34228e+06
2767.15
78561.6
9.36099e+06
2623.35
74475.3
9.38074e+06
2352.8
71584.2
9.40111e+06
1943.34
70540.8
9.42325e+06
1466.2
71984.6
9.45056e+06
1197.9
76308
9.49126e+06
1729.64
85380.9
9.5609e+06
4166.05
100668
9.68122e+06
9652.95
123121
9.87335e+06
18654.1
151696
1.01458e+07
29821
181151
1.04862e+07
39563.6
201407
1.08618e+07
42775.5
198628
1.11922e+07
25079.1
162548
5124.55
85584
9.99206e+06
-279.81
9.93278e+06
-3393.5
9.87365e+06
-3466.17
9.81501e+06
-3280.14
9.75682e+06
-3044.59
9.69941e+06
-2084.47
9.64315e+06
-915.098
9.58909e+06
537.843
9.53767e+06
2530.42
9.48832e+06
5280.7
9.43998e+06
8383.63
9.39144e+06
11758.4
9.34139e+06
15482.8
9.29085e+06
18601.3
9.2423e+06
21033.5
9.20017e+06
21129.7
9.16822e+06
17853.4
9.14957e+06
9282.61
9.14715e+06
-6651.38
9.16722e+06
-31917.5
9.21569e+06
-65627.4
9.30021e+06
-90271.7
9.38391e+06
-119299
9.45587e+06
-92104.4
9.43329e+06
-50327.8
9.35348e+06
106014
9.25085e+06
226138
9.19756e+06
245077
9.19852e+06
197592
9.215e+06
163355
9.22959e+06
144286
9.24071e+06
132676
9.25e+06
124019
9.25934e+06
116317
9.26947e+06
109263
9.28093e+06
102495
9.29394e+06
96078.1
9.30873e+06
89924.4
9.32486e+06
84368.2
9.34217e+06
79603.8
9.36077e+06
75533.8
9.38039e+06
72698.9
9.40068e+06
71763.8
9.42299e+06
73405.1
9.45103e+06
78019.2
9.49358e+06
87543.8
9.56623e+06
103304
9.69008e+06
126149
9.88443e+06
154645
1.01555e+07
183353
1.04895e+07
202033
1.08441e+07
197050
1.11051e+07
160191
84318.4
9.992e+06
-803.415
-156.181
9.93197e+06
-10899.2
-4896.56
9.87325e+06
-11537.1
-5625.25
9.81487e+06
-11389.1
-5548.75
9.75672e+06
-11297.3
-5131.99
9.69975e+06
-11164
-4505.38
9.64397e+06
-10928.4
-3011.72
9.59027e+06
-10564.9
-1389.57
9.53896e+06
-10095
975.01
9.4903e+06
-9611.61
3700.66
9.44299e+06
-9277.85
6945
9.39499e+06
-9239.69
10619.7
9.34508e+06
-9495.19
14356.4
9.29307e+06
-9785.93
17930.3
9.24179e+06
-9719.68
20599.8
9.19527e+06
-8890.27
21321.4
9.15688e+06
-7470.62
18717.9
9.1304e+06
-5254.67
10599.6
9.11688e+06
-3433.96
-6644.72
9.12537e+06
-1031.02
-36621.8
9.17595e+06
1075.37
-82964
9.27296e+06
7217.42
-147265
9.4212e+06
263.077
-240975
9.54414e+06
16.6944
-280054
9.59496e+06
-20739.4
-221494
9.44245e+06
-18850.6
171947
9.24485e+06
-15660.3
397935
9.15359e+06
-3231.4
363394
9.17211e+06
5629.7
220248
9.20217e+06
7825.3
164023
9.22163e+06
6481.85
142372
9.23379e+06
4828.34
130101
9.24327e+06
3773.81
120750
9.25251e+06
3241.63
112518