/*--------------------------------*- C++ -*----------------------------------*\
| =========                 |                                                 |
| \\      /  F ield         | OpenFOAM: The Open Source CFD Toolbox           |
|  \\    /   O peration     | Version:  4.1                                   |
|   \\  /    A nd           | Web:      www.OpenFOAM.org                      |
|    \\/     M anipulation  |                                                 |
\*---------------------------------------------------------------------------*/
FoamFile
{
    version     2.0;
    format      ascii;
    class       volVectorField;
    location    "2";
    object      U;
}
// * * * * * * * * * * * * * * * * * * * * * * * * * * * * * * * * * * * * * //

dimensions      [0 1 -1 0 0 0 0];

internalField   nonuniform List<vector> 
4432
(
(40.0137 0.00046219 0.0653374)
(39.8062 -0.0181034 0.0611364)
(39.5846 -0.0225532 0.0611706)
(39.3338 -0.0237778 0.0568314)
(39.0792 -0.0249342 0.0527234)
(38.8254 -0.0259278 0.0480264)
(38.5695 -0.0266766 0.0457254)
(38.3217 -0.0270781 0.0393649)
(38.0659 -0.0274103 0.0430991)
(37.836 -0.0276482 0.0559829)
(37.6005 -0.0264205 0.0527456)
(37.3723 -0.024028 0.0386831)
(37.154 -0.0218757 0.040782)
(36.9932 -0.0177267 0.048616)
(36.849 -0.0145159 0.0305865)
(36.7305 -0.0106493 0.0304986)
(36.6653 -0.0094579 0.02679)
(36.5911 -0.00628353 0.0249727)
(36.5758 -0.00377262 0.0248061)
(36.5657 -0.000137904 0.0119566)
(36.5754 0.000958498 0.00698957)
(36.5907 0.00195733 0.00324268)
(36.5953 0.00279387 0.011662)
(36.6183 0.00402746 0.0237106)
(36.6289 0.00538986 0.0159093)
(36.6395 0.00671579 0.0229168)
(36.6688 0.00754957 0.0377741)
(36.6839 0.00815182 0.0416409)
(36.7077 0.00841511 0.0316773)
(36.7173 0.00888116 0.0317629)
(36.7567 0.0091896 0.0308644)
(36.7692 0.00970976 0.0300678)
(36.8102 0.00995386 0.0424686)
(36.8397 0.0102996 0.0364154)
(36.8717 0.0105906 0.0182826)
(36.9011 0.0109349 0.0213548)
(36.9505 0.0103057 0.0373694)
(36.9876 0.0102638 0.0292596)
(37.0095 0.0110083 0.0315551)
(37.0428 0.0110096 0.0380149)
(37.0363 0.0104359 0.0304648)
(37.0095 0.00906784 0.0319757)
(36.943 0.0069884 0.0401575)
(36.8213 0.00453373 0.0540534)
(36.6172 0.000671657 0.0746053)
(36.2611 -0.00774788 0.105679)
(35.602 -0.0272139 0.157231)
(34.3831 -0.0644486 0.252338)
(32.2119 -0.120806 0.449177)
(28.816 -0.202906 0.885594)
(23.3266 -0.144829 1.51568)
(15.828 -0.572596 2.26889)
(9.29475 -0.273318 0.189729)
(-24.4474 0.0304467 24.6964)
(40.0139 0.000462127 0.0651326)
(39.8066 -0.0181059 0.0598898)
(39.5866 -0.0225455 0.0600094)
(39.3361 -0.0237614 0.0557524)
(39.0818 -0.0249108 0.0516971)
(38.8287 -0.0258992 0.0470888)
(38.5736 -0.0266438 0.0448169)
(38.3265 -0.027043 0.0386256)
(38.0709 -0.0273726 0.0425445)
(37.8419 -0.0276167 0.0476028)
(37.5972 -0.0265435 0.0416783)
(37.377 -0.0240722 0.0353397)
(37.1641 -0.021889 0.0405211)
(37.0046 -0.0177312 0.0470326)
(36.8596 -0.0145065 0.0320858)
(36.7408 -0.0106461 0.0306326)
(36.6719 -0.00946039 0.0285671)
(36.5996 -0.00628404 0.0256452)
(36.5827 -0.00377209 0.0269456)
(36.5702 -0.000135295 0.0131762)
(36.5748 0.000962678 0.0087838)
(36.5882 0.00196162 0.00482546)
(36.5915 0.002798 0.0132282)
(36.6135 0.00403085 0.0250497)
(36.6229 0.00539327 0.0171262)
(36.6313 0.00671828 0.023998)
(36.6586 0.00755101 0.0389141)
(36.6724 0.00815397 0.0426608)
(36.6945 0.00841746 0.032722)
(36.7029 0.00888601 0.0326492)
(36.7411 0.00918475 0.0316502)
(36.7533 0.0096987 0.0306729)
(36.7933 0.00995218 0.0431223)
(36.8228 0.0102919 0.0368865)
(36.8537 0.0105774 0.0187335)
(36.8815 0.0109301 0.0218413)
(36.9304 0.0103046 0.0307867)
(36.9601 0.0103137 0.0181531)
(36.9825 0.0110593 0.0245979)
(37.0147 0.0110555 0.0346887)
(37.0088 0.0104673 0.0307112)
(36.9815 0.00908994 0.0336183)
(36.9149 0.00700691 0.042218)
(36.7923 0.00455083 0.0558566)
(36.5831 0.00068819 0.0761758)
(36.2122 -0.00773126 0.107234)
(35.5249 -0.0271971 0.159086)
(34.2695 -0.0644389 0.257496)
(32.0533 -0.120808 0.462075)
(28.7696 -0.202971 0.923686)
(22.9339 -0.144856 1.43794)
(15.5766 -0.574601 2.52014)
(9.87493 -0.273317 -0.0330019)
(-22.1786 0.0305584 24.4986)
(40.0277 0.000301999 -0.00319925)
(39.8771 -0.0203087 0.00923184)
(39.6549 -0.0246502 0.0186631)
(39.4247 -0.0258132 0.0210685)
(39.1904 -0.0269613 0.0224675)
(38.9548 -0.0279574 0.0235652)
(38.7179 -0.0287076 0.0242937)
(38.4815 -0.0291043 0.0256043)
(38.2473 -0.0290807 0.0253798)
(38.0205 -0.0284518 0.0274073)
(37.805 -0.027343 0.0357674)
(37.6008 -0.0265298 0.0447593)
(37.4149 -0.0235691 0.0481535)
(37.2586 -0.0209276 0.0508492)
(37.1306 -0.0159276 0.0508002)
(37.0289 -0.013701 0.0431912)
(36.9398 -0.0106609 0.0313924)
(36.8742 -0.00854405 0.0246963)
(36.8373 -0.00429746 0.0182432)
(36.8282 -0.00143547 0.0189691)
(36.8308 0.000440152 0.0177664)
(36.8352 0.00147468 0.0219931)
(36.838 0.00249978 0.0284645)
(36.8436 0.00376789 0.0387353)
(36.8565 0.00531875 0.0520707)
(36.8742 0.00663249 0.0577487)
(36.8981 0.00770919 0.0591531)
(36.9264 0.00837124 0.0619318)
(36.958 0.00892532 0.0654392)
(36.9914 0.00930357 0.0657745)
(37.0261 0.00973099 0.0660224)
(37.0614 0.0101057 0.0660852)
(37.098 0.0105225 0.0648854)
(37.137 0.0108761 0.0698489)
(37.1767 0.0113318 0.0757975)
(37.215 0.0116968 0.0764789)
(37.254 0.0122425 0.0770246)
(37.2907 0.0125817 0.0838997)
(37.321 0.0124923 0.0892054)
(37.3412 0.0118022 0.0974309)
(37.3427 0.0107002 0.11288)
(37.3159 0.00888358 0.131789)
(37.2492 0.00666592 0.158341)
(37.1288 0.00380616 0.197577)
(36.928 -0.000333266 0.255418)
(36.5824 -0.00901527 0.343953)
(35.9533 -0.0290181 0.492064)
(34.8196 -0.0647152 0.772058)
(32.8979 -0.115793 1.35005)
(29.78 -0.176212 2.60182)
(24.4319 -0.236003 4.94706)
(14.0368 -0.347696 9.66264)
(36.4157 -0.495741 18.0896)
(-72.8253 -0.159937 39.621)
(40.0279 0.000301952 -0.00341942)
(39.8781 -0.0203123 0.00748577)
(39.6563 -0.0246422 0.0170172)
(39.4256 -0.0257953 0.0195338)
(39.191 -0.0269356 0.0210014)
(38.9555 -0.0279256 0.0221854)
(38.719 -0.0286711 0.0229814)
(38.4831 -0.0290644 0.0244321)
(38.2499 -0.0290387 0.0245343)
(38.0241 -0.0284093 0.0276529)
(37.8084 -0.0273038 0.0356118)
(37.6057 -0.0264905 0.0432127)
(37.4221 -0.0235296 0.0464274)
(37.266 -0.0208931 0.0480439)
(37.139 -0.0158941 0.049213)
(37.0329 -0.0136722 0.0401074)
(36.9453 -0.0106368 0.0308141)
(36.8796 -0.00851452 0.0230408)
(36.8439 -0.00424737 0.0183481)
(36.8325 -0.00138429 0.0179745)
(36.8332 0.000478088 0.0182319)
(36.8368 0.00150795 0.022385)
(36.8398 0.0025315 0.0289288)
(36.8464 0.00379639 0.0391098)
(36.8596 0.00534502 0.05246)
(36.8771 0.00665619 0.0582255)
(36.9006 0.00773002 0.0598515)
(36.9285 0.0083936 0.0627758)
(36.9599 0.00893725 0.0665555)
(36.9931 0.00930772 0.066819)
(37.0279 0.00974209 0.0669611)
(37.063 0.0101186 0.0667953)
(37.0996 0.0105348 0.0655228)
(37.1384 0.0108878 0.0703857)
(37.178 0.0113428 0.0764093)
(37.2162 0.0117074 0.0770699)
(37.2551 0.0122526 0.0784205)
(37.2909 0.0125924 0.0853997)
(37.3201 0.0125018 0.0897872)
(37.3392 0.0118115 0.0972786)
(37.3396 0.0107092 0.112258)
(37.3117 0.00889246 0.130861)
(37.2439 0.00667479 0.157196)
(37.1215 0.00381518 0.19597)
(36.9149 -0.000323802 0.253489)
(36.5534 -0.00900514 0.342212)
(35.8972 -0.029008 0.492563)
(34.7321 -0.0647108 0.780382)
(32.7853 -0.115803 1.37483)
(29.6587 -0.176237 2.66621)
(24.2593 -0.236026 4.87415)
(13.823 -0.347294 9.95657)
(36.6151 -0.495599 18.1213)
(-73.5903 -0.159739 39.4775)
(40.0252 0.000276157 0.000299619)
(39.8476 -0.0208307 0.0226078)
(39.6317 -0.0251559 0.0285632)
(39.3971 -0.0262658 0.0293367)
(39.1585 -0.0273741 0.0298905)
(38.9197 -0.0283371 0.0302538)
(38.6807 -0.0290425 0.030793)
(38.443 -0.0294096 0.031849)
(38.2092 -0.0293555 0.0344103)
(37.9821 -0.0288537 0.0395075)
(37.7633 -0.0280667 0.046986)
(37.5543 -0.0268862 0.0552416)
(37.361 -0.0247438 0.0654424)
(37.1919 -0.0217137 0.0707455)
(37.0549 -0.0172245 0.0724612)
(36.9458 -0.0147561 0.0635695)
(36.8608 -0.0111291 0.0543426)
(36.8022 -0.00886562 0.0430346)
(36.7738 -0.00453503 0.0365349)
(36.7729 -0.00188815 0.0303186)
(36.7857 0.000684993 0.0296166)
(36.8019 0.00170607 0.0362979)
(36.8139 0.00270211 0.0511534)
(36.8236 0.00401701 0.070377)
(36.8329 0.00550432 0.0884655)
(36.8436 0.00697329 0.101687)
(36.8577 0.00819426 0.10966)
(36.8761 0.00903851 0.113066)
(36.8986 0.00965857 0.113777)
(36.9245 0.0100517 0.113795)
(36.9531 0.0104017 0.114255)
(36.9838 0.0106763 0.115327)
(37.017 0.0110094 0.117766)
(37.0529 0.0113389 0.120613)
(37.0909 0.0116968 0.123488)
(37.1302 0.0119756 0.127059)
(37.1702 0.0122628 0.132321)
(37.2092 0.0123734 0.138675)
(37.2439 0.0122019 0.147466)
(37.2695 0.0115972 0.159982)
(37.2794 0.0104795 0.177937)
(37.2643 0.00870419 0.204062)
(37.2138 0.00629027 0.243075)
(37.1157 0.00324068 0.300649)
(36.9484 -0.00115787 0.385263)
(36.6615 -0.00987678 0.512641)
(36.1559 -0.0282476 0.720827)
(35.297 -0.0598814 1.10618)
(33.9807 -0.103082 1.87418)
(32.17 -0.150472 3.43737)
(29.9802 -0.22548 6.66815)
(28.8303 -0.293972 13.6626)
(47.4037 -0.236428 29.6773)
(40.2749 -0.0691272 26.361)
(40.0254 0.00027612 0.000292763)
(39.8491 -0.0208346 0.0220694)
(39.6339 -0.0251477 0.0279582)
(39.3989 -0.0262476 0.0287573)
(39.1601 -0.0273481 0.029353)
(38.9215 -0.0283049 0.0297741)
(38.6829 -0.0290057 0.0303988)
(38.4459 -0.0293694 0.0315488)
(38.2128 -0.0293132 0.0341969)
(37.9863 -0.028811 0.0391888)
(37.768 -0.0280246 0.0462885)
(37.5603 -0.0268447 0.0548451)
(37.3687 -0.0247043 0.0633438)
(37.2019 -0.0216765 0.0694297)
(37.0643 -0.0171903 0.0688503)
(36.954 -0.0147256 0.0620285)
(36.8688 -0.0111038 0.0522128)
(36.8107 -0.00883453 0.0427993)
(36.7829 -0.00448312 0.0353858)
(36.7798 -0.00183497 0.0301324)
(36.791 0.000724628 0.0299658)
(36.8052 0.00174246 0.0370471)
(36.8175 0.00273771 0.0518605)
(36.8276 0.00404891 0.0708269)
(36.837 0.00553232 0.0885675)
(36.8474 0.00699882 0.101959)
(36.8608 0.00821864 0.110119)
(36.8786 0.00906323 0.113915)
(36.9006 0.0096713 0.114762)
(36.9261 0.0100568 0.114896)
(36.9546 0.0104146 0.115225)
(36.9852 0.0106914 0.116204)
(37.0184 0.0110238 0.118451)
(37.0543 0.0113527 0.121233)
(37.0922 0.0117099 0.123891)
(37.1314 0.0119881 0.127331)
(37.1712 0.0122747 0.132182)
(37.2097 0.0123843 0.13824)
(37.2437 0.012212 0.146886)
(37.2684 0.0116073 0.159529)
(37.277 0.0104894 0.177509)
(37.2606 0.00871389 0.203822)
(37.2089 0.00629992 0.242796)
(37.1088 0.00325044 0.300328)
(36.9358 -0.00114777 0.385054)
(36.635 -0.00986621 0.513754)
(36.1063 -0.0282375 0.72856)
(35.2224 -0.0598762 1.12886)
(33.8898 -0.103087 1.92568)
(32.0466 -0.150485 3.53669)
(29.8345 -0.225492 6.83492)
(28.8203 -0.293806 13.9285)
(47.6077 -0.235829 30.1028)
(39.2462 -0.0690676 26.5354)
(40.0252 0.000295046 -0.00195787)
(39.8441 -0.0208726 0.0187761)
(39.6286 -0.0252726 0.0270861)
(39.394 -0.0264049 0.0283162)
(39.1555 -0.0275085 0.0290901)
(38.9171 -0.0284446 0.0297307)
(38.6789 -0.0291078 0.0306993)
(38.4428 -0.0294103 0.0325494)
(38.2113 -0.0292961 0.0361944)
(37.9871 -0.0287755 0.0424409)
(37.7711 -0.0280434 0.0515925)
(37.5644 -0.0269227 0.063318)
(37.3694 -0.0256535 0.0758607)
(37.1957 -0.0222425 0.0849173)
(37.0501 -0.0195424 0.0871518)
(36.9341 -0.0152505 0.0782793)
(36.8475 -0.0128017 0.0669625)
(36.7894 -0.00878606 0.0524227)
(36.7648 -0.00544533 0.0429804)
(36.7679 -0.00161353 0.0350967)
(36.7895 0.000793664 0.035988)
(36.815 0.00222709 0.046873)
(36.8354 0.00321463 0.0696063)
(36.8481 0.00423062 0.100068)
(36.8543 0.00543703 0.129378)
(36.8586 0.00691861 0.151605)
(36.8661 0.00817982 0.163796)
(36.8797 0.00922712 0.167836)
(36.8999 0.0099078 0.167504)
(36.9253 0.0103938 0.165999)
(36.9544 0.010693 0.16517)
(36.986 0.0109747 0.165485)
(37.0198 0.0112033 0.167104)
(37.0561 0.0114937 0.169491)
(37.0946 0.0117341 0.17246)
(37.1349 0.0119684 0.176254)
(37.1763 0.0121085 0.181485)
(37.2174 0.0121558 0.18853)
(37.2555 0.0119227 0.198555)
(37.2864 0.0113656 0.213113)
(37.3041 0.0102912 0.234526)
(37.3009 0.00866686 0.266226)
(37.2682 0.00641784 0.313423)
(37.1956 0.00352585 0.382996)
(37.0665 -0.000489116 0.484484)
(36.8456 -0.0078439 0.635235)
(36.4747 -0.0212467 0.876259)
(35.8995 -0.0420765 1.30266)
(35.1538 -0.0644636 2.09993)
(34.5038 -0.0771225 3.58086)
(34.6534 -0.0689449 6.28512)
(37.3592 -0.0726796 11.0897)
(49.632 0.000761019 18.2558)
(53.9291 0.0190677 12.2486)
(40.0254 0.000295007 -0.00190631)
(39.8455 -0.0208764 0.0185779)
(39.6307 -0.0252642 0.0267375)
(39.3958 -0.0263864 0.0279613)
(39.1572 -0.027482 0.0287625)
(38.919 -0.0284119 0.0294643)
(38.6812 -0.0290704 0.0305244)
(38.4458 -0.0293696 0.0325002)
(38.2151 -0.0292535 0.036268)
(37.9913 -0.0287323 0.0425616)
(37.7757 -0.0280009 0.0516364)
(37.5694 -0.0268814 0.0629218)
(37.3765 -0.025618 0.0745003)
(37.2043 -0.0221942 0.0826939)
(37.0592 -0.0194882 0.0832587)
(36.9432 -0.0152092 0.0762323)
(36.8558 -0.0127689 0.0642506)
(36.7989 -0.00875474 0.0521656)
(36.7738 -0.0054152 0.0416375)
(36.7759 -0.00158313 0.0354366)
(36.7949 0.00082397 0.0362214)
(36.8188 0.00225864 0.0478896)
(36.8387 0.00324624 0.0706247)
(36.8515 0.00425991 0.100179)
(36.8581 0.00546359 0.12924)
(36.8624 0.00694056 0.151293)
(36.8694 0.00820064 0.163857)
(36.8824 0.00924729 0.168454)
(36.902 0.00992575 0.168431)
(36.927 0.0104118 0.167081)
(36.9558 0.0107113 0.166145)
(36.9873 0.0109926 0.166344)
(37.0211 0.0112199 0.167734)
(37.0574 0.0115087 0.169933)
(37.0958 0.0117485 0.172651)
(37.1359 0.0119822 0.176262)
(37.1771 0.0121215 0.181212)
(37.2178 0.0121681 0.188045)
(37.2553 0.0119343 0.197889)
(37.2853 0.0113766 0.21237)
(37.3019 0.0103018 0.233725)
(37.2975 0.00867704 0.26545)
(37.2636 0.00642782 0.312646)
(37.1891 0.00353582 0.382117)
(37.0556 -0.000479036 0.483698)
(36.8253 -0.00783369 0.636331)
(36.4408 -0.0212373 0.884894)
(35.8565 -0.0420697 1.32869)
(35.1188 -0.064459 2.15737)
(34.4996 -0.0771123 3.68642)
(34.6586 -0.0689201 6.49203)
(37.4295 -0.072616 11.4336)
(49.7146 0.000786313 18.5823)
(53.0363 0.0190852 12.3762)
(40.0254 0.000327394 -0.00254712)
(39.8424 -0.0210379 0.0157914)
(39.6257 -0.0255117 0.0250746)
(39.3908 -0.0266265 0.026697)
(39.1524 -0.0277066 0.0277179)
(38.9146 -0.0286075 0.0286251)
(38.6774 -0.0292208 0.0299501)
(38.4431 -0.0294613 0.0323976)
(38.2144 -0.0292832 0.0367808)
(37.9934 -0.0287325 0.0438927)
(37.7809 -0.0280178 0.0541279)
(37.5762 -0.0272798 0.0674551)
(37.3807 -0.0261031 0.0814079)
(37.2014 -0.0239302 0.0938595)
(37.046 -0.0211198 0.0958113)
(36.9223 -0.0168008 0.0906825)
(36.8314 -0.0138379 0.0753048)
(36.7743 -0.0091223 0.0605445)
(36.7535 -0.00586091 0.0454485)
(36.7631 -0.00152672 0.0368642)
(36.7959 0.000935859 0.0371587)
(36.8347 0.00273921 0.0523198)
(36.8676 0.00374265 0.0843596)
(36.8854 0.00416087 0.127889)
(36.8875 0.00540018 0.171879)
(36.8817 0.00669424 0.205652)
(36.8779 0.00828034 0.223316)
(36.8838 0.00967311 0.227695)
(36.9004 0.010589 0.224844)
(36.9253 0.0111273 0.220429)
(36.9552 0.0113718 0.217086)
(36.988 0.0115319 0.215622)
(37.0228 0.0116356 0.215643)
(37.0597 0.0117786 0.216793)
(37.0989 0.0118852 0.218615)
(37.1402 0.0119875 0.221386)
(37.1833 0.0119997 0.225477)
(37.227 0.0118974 0.231667)
(37.269 0.0115469 0.241015)
(37.3061 0.0108699 0.255366)
(37.333 0.00969879 0.27716)
(37.3437 0.00795667 0.310231)
(37.3313 0.005551 0.359749)
(37.2877 0.00241519 0.432788)
(37.2019 -0.00187469 0.539162)
(37.0549 -0.00869961 0.695883)
(36.8252 -0.0195385 0.942223)
(36.5232 -0.0338188 1.36025)
(36.2642 -0.0456005 2.09562)
(36.3734 -0.0445598 3.34679)
(37.5568 -0.0165102 5.29921)
(40.9977 0.0590424 7.94405)
(48.9415 0.113586 10.2814)
(52.768 0.0598677 5.79931)
(40.0256 0.000327367 -0.00250685)
(39.8439 -0.0210417 0.0155126)
(39.628 -0.0255028 0.0246773)
(39.3928 -0.0266071 0.026313)
(39.1543 -0.027679 0.0273753)
(38.9167 -0.0285737 0.0283579)
(38.68 -0.0291823 0.0297968)
(38.4463 -0.0294196 0.0323927)
(38.2183 -0.0292398 0.0369392)
(37.9977 -0.0286888 0.0441595)
(37.7852 -0.0279785 0.0544208)
(37.5807 -0.0272283 0.067233)
(37.3864 -0.0260466 0.0807766)
(37.2086 -0.023873 0.090837)
(37.0553 -0.0210586 0.0933769)
(36.9318 -0.0167543 0.0867585)
(36.841 -0.0137997 0.0738312)
(36.7844 -0.00908583 0.0587516)
(36.7629 -0.00582606 0.0452654)
(36.7719 -0.0014947 0.036882)
(36.8017 0.000977773 0.0381947)
(36.8391 0.00279067 0.0541789)
(36.8702 0.00378831 0.0857766)
(36.8882 0.0041999 0.128452)
(36.8911 0.00543445 0.171458)
(36.8857 0.00672368 0.204466)
(36.882 0.00830789 0.222572)
(36.8871 0.00969951 0.227658)
(36.9028 0.010614 0.225468)
(36.927 0.0111525 0.221303)
(36.9565 0.0113954 0.218024)
(36.9891 0.0115539 0.216395)
(37.0238 0.0116567 0.216263)
(37.0607 0.0117982 0.217155)
(37.0998 0.011906 0.218793)
(37.141 0.0119984 0.221333)
(37.1838 0.0120033 0.225257)
(37.2271 0.0119073 0.231241)
(37.2686 0.0115586 0.240493)
(37.3047 0.0108809 0.254759)
(37.3306 0.00970929 0.276599)
(37.3401 0.00796679 0.309756)
(37.3262 0.00556091 0.359417)
(37.2807 0.00242507 0.432626)
(37.1912 -0.00186482 0.539352)
(37.0376 -0.00869002 0.698617)
(36.8004 -0.0195302 0.952278)
(36.4973 -0.0338127 1.38646)
(36.2536 -0.0455954 2.14636)
(36.4028 -0.0445509 3.42703)
(37.6609 -0.0165 5.41099)
(41.1267 0.0590107 8.1154)
(48.9376 0.113492 10.4038)
(51.9478 0.0598819 5.83677)
(40.0255 0.000334997 -0.00275021)
(39.8409 -0.021159 0.0129378)
(39.6234 -0.0256759 0.0222304)
(39.3881 -0.0267942 0.0240208)
(39.1497 -0.0278546 0.0252323)
(38.9124 -0.0287148 0.0264093)
(38.6764 -0.0292638 0.0281217)
(38.444 -0.0294178 0.0310577)
(38.218 -0.029139 0.0359878)
(38.0003 -0.0285089 0.0436733)
(37.7914 -0.0277469 0.0545057)
(37.5892 -0.0271443 0.0683611)
(37.3938 -0.0262954 0.0838002)
(37.2086 -0.0252643 0.0969057)
(37.0446 -0.0219635 0.102179)
(36.911 -0.0191615 0.0980324)
(36.8136 -0.0142734 0.0826634)
(36.7561 -0.0105916 0.065566)
(36.7378 -0.00563641 0.0462495)
(36.757 -0.00160319 0.0348149)
(36.8033 0.00183653 0.0335674)
(36.8619 0.00410064 0.0517504)
(36.9122 0.00464688 0.0935959)
(36.9388 0.00482905 0.151797)
(36.9369 0.0050592 0.215152)
(36.9158 0.00577354 0.262966)
(36.8943 0.00747123 0.287893)
(36.8872 0.0092129 0.291965)
(36.898 0.0105412 0.285043)
(36.9222 0.0112696 0.276105)
(36.9535 0.0116305 0.269243)
(36.9879 0.0117488 0.265133)
(37.0239 0.0118229 0.262961)
(37.0616 0.0118558 0.261989)
(37.1014 0.0119193 0.261746)
(37.1437 0.0119333 0.262355)
(37.1883 0.01191 0.264213)
(37.2346 0.0117499 0.268114)
(37.2807 0.0114238 0.275193)
(37.3239 0.0107863 0.287273)
(37.3603 0.00976181 0.306853)
(37.3848 0.0082314 0.337633)
(37.3922 0.00613494 0.384568)
(37.3766 0.00342706 0.454254)
(37.3314 -0.000224394 0.555753)
(37.2507 -0.00503301 0.704659)
(37.1412 -0.0111371 0.933668)
(37.0555 -0.0158514 1.30565)
(37.1453 -0.0137068 1.91691)
(37.7211 0.00341296 2.86617)
(39.2875 0.0443155 4.16614)
(42.4199 0.104177 5.52409)
(47.6774 0.13409 5.99977)
(50.2454 0.0571306 3.00798)
(40.0257 0.000334967 -0.00271606)
(39.8425 -0.0211627 0.0125834)
(39.6257 -0.0256667 0.0217591)
(39.3901 -0.0267742 0.0235691)
(39.1517 -0.0278264 0.0248298)
(38.9146 -0.0286803 0.0260936)
(38.6792 -0.0292246 0.0279336)
(38.4475 -0.0293754 0.0310357)
(38.2221 -0.0290951 0.0361489)
(38.0048 -0.0284649 0.0439827)
(37.7956 -0.0277075 0.0548747)
(37.5933 -0.0270967 0.0685205)
(37.398 -0.0262256 0.0831268)
(37.215 -0.025197 0.0949045)
(37.0529 -0.0219125 0.0994519)
(36.9206 -0.0191236 0.0941261)
(36.8244 -0.0142288 0.080914)
(36.7665 -0.0105309 0.0632751)
(36.7487 -0.00556569 0.0465168)
(36.7663 -0.00153852 0.0347723)
(36.8107 0.00189757 0.0352745)
(36.8662 0.0041674 0.0539935)
(36.9142 0.00470815 0.0948774)
(36.9404 0.00488282 0.15278)
(36.9389 0.00510598 0.213017)
(36.9193 0.00581667 0.260345)
(36.8989 0.00750402 0.285546)
(36.8913 0.00923793 0.290819)
(36.9011 0.010561 0.285066)
(36.9243 0.0112871 0.276654)
(36.9549 0.0116451 0.269897)
(36.9889 0.0117574 0.265628)
(37.0248 0.0118393 0.263278)
(37.0624 0.0118767 0.262079)
(37.1022 0.0119322 0.261666)
(37.1443 0.0119299 0.262088)
(37.1887 0.0119068 0.263806)
(37.2346 0.0117559 0.267563)
(37.2802 0.0114318 0.274577)
(37.3227 0.0107939 0.286639)
(37.3582 0.00976919 0.306318)
(37.3817 0.00823864 0.33728)
(37.3879 0.00614219 0.384497)
(37.3707 0.00343442 0.454545)
(37.3233 -0.000216971 0.556838)
(37.2402 -0.00502597 0.708499)
(37.1307 -0.011131 0.94471)
(37.0532 -0.0158463 1.33088)
(37.1648 -0.0137017 1.96211)
(37.7795 0.00341717 2.93187)
(39.3885 0.0443056 4.24188)
(42.5081 0.104122 5.57664)
(47.6285 0.134002 5.99631)
(49.5116 0.0571431 2.99538)
(40.0257 0.000361226 -0.00273424)
(39.8395 -0.0213989 0.00956482)
(39.621 -0.0259883 0.0181337)
(39.3855 -0.0270824 0.0199262)
(39.1473 -0.0281121 0.021283)
(38.9106 -0.0289258 0.0227201)
(38.6759 -0.0294111 0.0248129)
(38.4455 -0.0294855 0.0282377)
(38.2222 -0.0291233 0.033717)
(38.0079 -0.0284218 0.0418659)
(37.8023 -0.0276541 0.0530855)
(37.6029 -0.0271214 0.0671517)
(37.4072 -0.0267718 0.0830052)
(37.2179 -0.0259328 0.0966376)
(37.045 -0.0238445 0.105327)
(36.9001 -0.0207084 0.101217)
(36.7953 -0.0155931 0.0893677)
(36.734 -0.0114217 0.0675908)
(36.7188 -0.00561311 0.0463496)
(36.7477 -0.0015809 0.0280443)
(36.8109 0.00265223 0.0228589)
(36.8948 0.00501004 0.041662)
(36.9696 0.00505966 0.0901376)
(37.0116 0.00520096 0.167812)
(37.006 0.00332941 0.252474)
(36.9632 0.00413001 0.32094)
(36.916 0.00597672 0.356182)
(36.8892 0.00854965 0.35976)
(36.8915 0.0106271 0.346858)
(36.9151 0.0116802 0.33165)
(36.9487 0.0120186 0.320235)
(36.9853 0.012019 0.312766)
(37.0226 0.0119466 0.307832)
(37.061 0.0118702 0.304064)
(37.1014 0.0118199 0.300936)
(37.1445 0.0117357 0.298377)
(37.1906 0.0116055 0.296907)
(37.2393 0.0113669 0.297229)
(37.2894 0.0109539 0.300571)
(37.3389 0.0102615 0.308569)
(37.3845 0.00919513 0.323701)
(37.4226 0.00764288 0.349264)
(37.4491 0.00553004 0.38972)
(37.4602 0.00276818 0.450918)
(37.4538 -0.000717766 0.540977)
(37.4344 -0.00479246 0.673946)
(37.4277 -0.00845052 0.875855)
(37.5081 -0.00856488 1.19213)
(37.8279 -0.000318263 1.67935)
(38.6312 0.0215969 2.37032)
(40.2359 0.0606799 3.19103)
(42.8728 0.115075 3.83744)
(46.5257 0.115243 3.70007)
(48.3155 0.0476249 1.73048)
(40.0259 0.000361207 -0.00270572)
(39.8411 -0.0214026 0.0091756)
(39.6235 -0.0259784 0.0176525)
(39.3877 -0.0270615 0.0194818)
(39.1494 -0.0280827 0.0208989)
(38.9131 -0.0288901 0.0224316)
(38.6789 -0.0293707 0.0246589)
(38.4492 -0.029442 0.0282552)
(38.2266 -0.0290785 0.0339193)
(38.0125 -0.0283804 0.0422354)
(37.8065 -0.027601 0.0535254)
(37.6064 -0.0270647 0.0675048)
(37.4107 -0.026718 0.0825916)
(37.2229 -0.0258634 0.095627)
(37.0522 -0.023763 0.102029)
(36.9103 -0.0206376 0.0988273)
(36.8067 -0.0155329 0.0858274)
(36.746 -0.0113505 0.0663996)
(36.7308 -0.00553215 0.0452455)
(36.7578 -0.00150214 0.0285981)
(36.8194 0.0027185 0.0249277)
(36.8987 0.005075 0.0439984)
(36.9712 0.00512523 0.093242)
(37.0111 0.00525997 0.16798)
(37.0059 0.00337999 0.24958)
(36.9668 0.00417468 0.316332)
(36.9214 0.00601485 0.351904)
(36.8949 0.00857257 0.357483)
(36.8957 0.0106241 0.346308)
(36.9176 0.011677 0.332049)
(36.95 0.0120278 0.320819)
(36.9861 0.012028 0.313244)
(37.0233 0.0119559 0.308063)
(37.0616 0.011871 0.304109)
(37.1019 0.0118037 0.300786)
(37.1449 0.0117173 0.298109)
(37.1908 0.0115953 0.296511)
(37.2392 0.0113563 0.296774)
(37.2889 0.0109506 0.300082)
(37.3376 0.0102611 0.308152)
(37.3824 0.00919528 0.323435)
(37.4194 0.0076436 0.34927)
(37.4446 0.0055314 0.390113)
(37.4544 0.00277017 0.451812)
(37.4466 -0.000715408 0.543011)
(37.427 -0.00479032 0.678531)
(37.4242 -0.00844907 0.886476)
(37.5165 -0.0085638 1.21268)
(37.8583 -0.000316952 1.71192)
(38.6925 0.0215952 2.41052)
(40.3292 0.0606626 3.22331)
(42.9255 0.115015 3.84048)
(46.4575 0.115176 3.65874)
(47.6205 0.0476337 1.70679)
(40.0258 0.000363241 -0.002577)
(39.8383 -0.0215542 0.00544566)
(39.6193 -0.0261615 0.0127561)
(39.3836 -0.0272416 0.0144548)
(39.1456 -0.0282412 0.0159369)
(38.9097 -0.0290051 0.0176886)
(38.6763 -0.0294194 0.0202478)
(38.4479 -0.0294015 0.024212)
(38.2272 -0.0289377 0.0302379)
(38.016 -0.0281375 0.0388494)
(37.8135 -0.0273116 0.0503446)
(37.6167 -0.0268007 0.0645231)
(37.4214 -0.026711 0.0803025)
(37.2291 -0.0262771 0.0951084)
(37.0475 -0.0252685 0.104583)
(36.8923 -0.0215637 0.103975)
(36.7769 -0.0178278 0.0928599)
(36.7087 -0.011786 0.0697051)
(36.6943 -0.00674441 0.0440153)
(36.7303 -0.00103896 0.0171278)
(36.8152 0.0039204 0.00406282)
(36.9294 0.00646983 0.0173644)
(37.0414 0.0077917 0.0697576)
(37.1077 0.00507656 0.166825)
(37.1008 0.00224507 0.277314)
(37.0324 0.00127073 0.375427)
(36.9463 0.00325441 0.426681)
(36.8893 0.00695394 0.430712)
(36.8787 0.00998832 0.409693)
(36.9021 0.0116457 0.386409)
(36.9394 0.0121775 0.36951)
(36.979 0.0121989 0.358308)
(37.0179 0.0120438 0.350119)
(37.0568 0.0119047 0.34301)
(37.0974 0.0117867 0.336209)
(37.141 0.0116882 0.329715)
(37.1883 0.0115425 0.324)
(37.2392 0.0113307 0.319825)
(37.2928 0.0109716 0.318288)
(37.3478 0.0104097 0.320924)
(37.4016 0.00954043 0.329921)
(37.4516 0.00828781 0.348166)
(37.4947 0.00658705 0.37948)
(37.5289 0.0043882 0.428864)
(37.5555 0.0018794 0.503457)
(37.5867 -0.000390169 0.614888)
(37.6604 -0.000484569 0.783215)
(37.86 0.00470985 1.03827)
(38.3257 0.0189413 1.40905)
(39.2387 0.0440002 1.89293)
(40.7681 0.0776877 2.40099)
(42.9543 0.109517 2.69177)
(45.628 0.0955762 2.40101)
(46.9651 0.0336638 1.09127)
(40.026 0.000363219 -0.0025536)
(39.8399 -0.0215577 0.00511508)
(39.6218 -0.0261513 0.0123375)
(39.3858 -0.0272201 0.0140635)
(39.1478 -0.0282111 0.0156032)
(38.9123 -0.0289685 0.0174486)
(38.6795 -0.0293781 0.0201401)
(38.4519 -0.0293575 0.02427)
(38.2318 -0.0288928 0.0304761)
(38.0208 -0.028096 0.039252)
(37.8178 -0.027262 0.0508394)
(37.6199 -0.0267347 0.0649645)
(37.4242 -0.0266388 0.0803473)
(37.2326 -0.0262004 0.0941866)
(37.0539 -0.0251877 0.102414)
(36.9018 -0.0214786 0.101317)
(36.7885 -0.0177393 0.0892061)
(36.722 -0.0117086 0.0681517)
(36.707 -0.0066741 0.0419621)
(36.743 -0.000962486 0.0178994)
(36.8245 0.00399137 0.00542763)
(36.9349 0.00654024 0.0195144)
(37.0414 0.00786469 0.0735128)
(37.1035 0.00514432 0.164446)
(37.0982 0.00230257 0.273474)
(37.0345 0.00131667 0.366863)
(36.9532 0.0033 0.419165)
(36.8972 0.00699095 0.42652)
(36.8845 0.0099877 0.408617)
(36.9054 0.0116413 0.386737)
(36.9409 0.012189 0.370039)
(36.9798 0.0121996 0.358624)
(37.0184 0.0120373 0.350169)
(37.0573 0.0118977 0.342872)
(37.0979 0.0117667 0.335937)
(37.1414 0.0116582 0.329365)
(37.1886 0.0115146 0.3236)
(37.2392 0.01131 0.319426)
(37.2924 0.0109613 0.317945)
(37.3468 0.010403 0.320731)
(37.4 0.00953484 0.329985)
(37.4491 0.00828332 0.348621)
(37.4912 0.00658367 0.380474)
(37.5246 0.00438582 0.430651)
(37.5511 0.00187766 0.506618)
(37.5847 -0.0003918 0.620788)
(37.6657 -0.000486341 0.794272)
(37.8797 0.00470824 1.05691)
(38.3652 0.0189389 1.43545)
(39.2976 0.0439913 1.92188)
(40.8333 0.0776615 2.41884)
(42.9704 0.109463 2.67681)
(45.5519 0.0955246 2.35993)
(46.32 0.0336709 1.06901)
(40.0259 0.000384397 -0.00227488)
(39.8373 -0.021734 0.000662142)
(39.6178 -0.0264099 0.00621483)
(39.3822 -0.0274754 0.00771444)
(39.1446 -0.0284471 0.00927614)
(38.9096 -0.0291663 0.011346)
(38.6777 -0.0295196 0.014429)
(38.4513 -0.0294277 0.0190466)
(38.2332 -0.0288851 0.0257136)
(38.0249 -0.0280199 0.0349074)
(37.8254 -0.0271518 0.0467946)
(37.6308 -0.0266731 0.0611184)
(37.4362 -0.0267408 0.0768659)
(37.2408 -0.0268619 0.0921374)
(37.0523 -0.0260016 0.10249)
(36.8863 -0.0233541 0.105468)
(36.7581 -0.0192523 0.0939033)
(36.6811 -0.0129871 0.0724941)
(36.6622 -0.00766429 0.0384943)
(36.7041 -0.000816788 0.00185807)
(36.8095 0.00401526 -0.0276626)
(36.961 0.00717643 -0.0306215)
(37.1234 0.0088607 0.020552)
(37.2283 0.00292003 0.128578)
(37.231 -0.000368762 0.274741)
(37.1321 -0.00427933 0.419709)
(36.9908 -0.00145232 0.501412)
(36.8877 0.00434764 0.508308)
(36.8578 0.00948851 0.474351)
(36.8819 0.0119327 0.439871)
(36.9251 0.0124759 0.416458)
(36.9688 0.0122772 0.401176)
(37.0092 0.0119546 0.389369)
(37.0483 0.0116996 0.378401)
(37.0889 0.0115219 0.367359)
(37.1328 0.0113724 0.356332)
(37.181 0.0112063 0.34579)
(37.2338 0.0109711 0.336484)
(37.2907 0.0106239 0.32942)
(37.3506 0.0100891 0.325998)
(37.4118 0.00928705 0.328041)
(37.4723 0.00813371 0.338033)
(37.5301 0.00656939 0.359173)
(37.5846 0.00460858 0.395661)
(37.6403 0.00249972 0.453713)
(37.7146 0.00115344 0.543001)
(37.8514 0.00263137 0.678709)
(38.1344 0.0100932 0.879279)
(38.684 0.0261978 1.15596)
(39.6273 0.0509327 1.48884)
(41.0439 0.0793988 1.7947)
(42.8893 0.10163 1.90618)
(44.9597 0.0758447 1.61924)
(46.0585 0.0254962 0.738058)
(40.0261 0.000384383 -0.00225451)
(39.8391 -0.0217376 0.000375659)
(39.6204 -0.0263992 0.00587074)
(39.3846 -0.0274532 0.00741197)
(39.147 -0.028416 0.00903779)
(38.9124 -0.0291287 0.0112021)
(38.6811 -0.0294774 0.0144121)
(38.4555 -0.0293828 0.019181)
(38.238 -0.0288395 0.0260105)
(38.0298 -0.0279749 0.0353426)
(37.8297 -0.0271118 0.0473176)
(37.6338 -0.02663 0.0615883)
(37.4382 -0.0266635 0.0770871)
(37.2435 -0.0267793 0.0914759)
(37.0576 -0.0259356 0.101238)
(36.8949 -0.0232811 0.102114)
(36.7704 -0.0191559 0.0914404)
(36.6949 -0.0128941 0.06874)
(36.6763 -0.00757812 0.0367076)
(36.718 -0.000720591 0.000702554)
(36.8193 0.00410869 -0.0276801)
(36.9676 0.00727383 -0.0263961)
(37.1207 0.00895558 0.0211718)
(37.2202 0.00300777 0.128861)
(37.2248 -0.000287963 0.267351)
(37.132 -0.0042156 0.409762)
(37.0003 -0.00140488 0.49322)
(36.8998 0.00439394 0.504304)
(36.8667 0.00951846 0.473886)
(36.8861 0.0119577 0.441119)
(36.9265 0.012503 0.41786)
(36.9692 0.0122888 0.402136)
(37.0095 0.0119602 0.389904)
(37.0486 0.0117009 0.378636)
(37.0893 0.0115198 0.367432)
(37.1331 0.0113652 0.356307)
(37.1812 0.0111988 0.34573)
(37.2338 0.0109718 0.33643)
(37.2903 0.0106275 0.329447)
(37.3497 0.0100926 0.326183)
(37.4104 0.00929072 0.328497)
(37.4701 0.00813755 0.338881)
(37.527 0.00657344 0.360566)
(37.5809 0.00461277 0.397892)
(37.6372 0.00250371 0.45728)
(37.715 0.00115682 0.548975)
(37.8606 0.00263419 0.688365)
(38.1582 0.0100958 0.893563)
(38.725 0.0261986 1.17357)
(39.6806 0.0509256 1.50491)
(41.0942 0.0793754 1.79983)
(42.8839 0.101584 1.89029)
(44.8838 0.0758103 1.5867)