/*--------------------------------*- C++ -*----------------------------------*\
| =========                 |                                                 |
| \\      /  F ield         | OpenFOAM: The Open Source CFD Toolbox           |
|  \\    /   O peration     | Version:  4.1                                   |
|   \\  /    A nd           | Web:      www.OpenFOAM.org                      |
|    \\/     M anipulation  |                                                 |
\*---------------------------------------------------------------------------*/
FoamFile
{
    version     2.0;
    format      ascii;
    class       volScalarField;
    location    "69";
    object      p;
}
// * * * * * * * * * * * * * * * * * * * * * * * * * * * * * * * * * * * * * //

dimensions      [0 2 -2 0 0 0 0];

internalField   nonuniform List<scalar> 
4432
(
100982
100982
100983
100985
100988
100992
100996
101001
101007
101014
101021
101029
101037
101046
101054
101062
101070
101075
101080
101091
101106
101124
101144
101165
101189
101214
101236
101255
101268
101279
101287
101293
101301
101312
101322
101323
101321
101325
101330
101333
101335
101336
101340
101344
101345
101345
101337
101335
101338
101326
101298
101279
101276
101283
100982
100982
100983
100986
100988
100992
100996
101001
101007
101014
101021
101029
101037
101046
101054
101063
101070
101075
101080
101090
101107
101125
101145
101166
101190
101215
101237
101254
101268
101280
101289
101296
101303
101311
101319
101322
101321
101324
101329
101334
101337
101337
101339
101340
101343
101349
101342
101331
101330
101324
101301
101285
101268
101277
100981
100981
100982
100983
100986
100990
100994
100999
101004
101011
101019
101027
101035
101045
101056
101069
101086
101105
101120
101129
101141
101157
101174
101189
101205
101221
101237
101253
101270
101284
101295
101302
101306
101307
101307
101305
101307
101314
101324
101332
101333
101329
101333
101339
101344
101345
101343
101341
101338
101330
101318
101301
101221
101297
100981
100981
100982
100983
100986
100990
100994
100999
101004
101011
101019
101027
101035
101045
101056
101069
101086
101105
101120
101130
101141
101156
101172
101187
101203
101219
101235
101252
101268
101282
101291
101296
101300
101307
101310
101309
101310
101316
101325
101333
101334
101332
101334
101340
101343
101345
101344
101340
101339
101333
101317
101300
101210
101297
100979
100979
100980
100982
100985
100989
100993
100998
101003
101010
101017
101025
101034
101044
101055
101067
101081
101095
101107
101121
101137
101154
101170
101186
101201
101219
101238
101257
101275
101291
101302
101310
101319
101324
101318
101307
101307
101319
101333
101343
101338
101330
101335
101345
101350
101351
101352
101346
101335
101322
101314
101305
101298
101323
100979
100979
100980
100982
100985
100989
100993
100998
101003
101010
101017
101026
101034
101044
101055
101067
101081
101095
101107
101121
101136
101153
101169
101184
101200
101218
101236
101255
101273
101290
101301
101306
101311
101318
101319
101312
101312
101321
101331
101340
101339
101333
101337
101345
101349
101350
101350
101347
101337
101324
101314
101300
101291
101336
100977
100977
100978
100980
100983
100986
100990
100995
101000
101007
101014
101022
101031
101040
101051
101062
101075
101087
101100
101115
101132
101149
101165
101180
101198
101220
101242
101263
101284
101304
101317
101330
101348
101349
101329
101298
101293
101312
101331
101347
101337
101327
101337
101350
101356
101357
101359
101352
101338
101318
101305
101305
101307
101295
100977
100977
100978
100980
100983
100986
100990
100995
101000
101007
101014
101022
101031
101040
101051
101062
101075
101087
101100
101115
101132
101149
101164
101180
101198
101220
101242
101262
101284
101304
101316
101328
101343
101344
101333
101313
101309
101319
101334
101342
101336
101329
101337
101348
101355
101358
101357
101351
101336
101320
101310
101307
101297
101289
100974
100974
100975
100977
100980
100983
100987
100992
100997
101004
101011
101019
101027
101036
101046
101057
101069
101081
101094
101106
101122
101138
101155
101173
101193
101219
101246
101272
101297
101319
101335
101355
101374
101378
101403
101270
101275
101301
101327
101358
101350
101329
101344
101355
101362
101364
101359
101356
101352
101336
101321
101300
101296
101329
100974
100974
100975
100977
100980
100983
100987
100992
100997
101004
101011
101019
101027
101036
101046
101057
101069
101081
101094
101106
101121
101138
101155
101173
101195
101220
101246
101272
101299
101322
101337
101353
101370
101369
101358
101316
101300
101312
101336
101357
101355
101337
101343
101352
101360
101364
101364
101359
101348
101333
101317
101311
101287
101317
100971
100971
100972
100974
100976
100980
100983
100988
100993
100999
101006
101014
101022
101030
101040
101050
101062
101073
101085
101098
101113
101128
101144
101161
101183
101210
101239
101269
101298
101324
101343
101366
101396
101524
101759
101384
101272
101278
101301
101309
101314
101352
101362
101364
101366
101370
101366
101364
101362
101354
101336
101304
101294
101328
100971
100971
100972
100974
100976
100980
100983
100988
100993
100999
101006
101014
101022
101030
101040
101050
101061
101073
101085
101098
101112
101129
101145
101162
101184
101211
101240
101267
101298
101324
101342
101356
101372
101412
101445
101345
101286
101293
101319
101345
101356
101348
101353
101359
101364
101366
101367
101365
101360
101349
101333
101308
101304
101338
100967
100967
100968
100970
100972
100975
100979
100983
100988
100994
101001
101008
101016
101024
101033
101043
101054
101065
101076
101089
101103
101119
101135
101149
101165
101192
101222
101250
101275
101301
101328
101363
101436
101752
101631
101564
101310
101303
101315
101319
101326
101357
101370
101371
101373
101377
101375
101371
101368
101362
101351
101322
101291
101315
100967
100967
100968
100970
100972
100975
100979
100983
100988
100994
101001
101008
101016
101024
101033
101043
101053
101065
101076
101089
101103
101119
101135
101150
101168
101193
101221
101246
101274
101301
101323
101346
101378
101454
101528
101405
101282
101286
101311
101325
101337
101352
101363
101369
101371
101371
101368
101366
101365
101359
101344
101319
101308
101316
100962
100962
100963
100965
100967
100970
100974
100978
100982
100988
100994
101001
101009
101017
101025
101035
101045
101056
101067
101080
101092
101107
101121
101134
101145
101164
101192
101215
101235
101253
101274
101305
101336
101423
101456
101385
101319
101311
101317
101326
101337
101351
101364
101370
101372
101374
101373
101367
101363
101362
101358
101335
101301
101314
100962
100962
100963
100965
100967
100970
100974
100978
100982
100988
100994
101001
101009
101017
101025
101035
101045
101056
101068
101080
101093
101106
101121
101135
101148
101167
101190
101211
101232
101254
101274
101298
101336
101377
101420
101361
101305
101304
101318
101333
101345
101353
101361
101367
101372
101373
101368
101363
101362
101362
101356
101331
101304
101318
100957
100957
100958
100960
100962
100965
100968
100971
100976
100981
100987
100994
101001
101009
101017
101026
101036
101047
101058
101069
101081
101092
101104
101114
101122
101131
101149
101171
101193
101215
101236
101260
101296
101329
101361
101331
101310
101311
101320
101327
101338
101349
101362
101372
101374
101372
101367
101360
101357
101360
101362
101344
101317
101322
100957
100957
100958
100960
100962
100965
100968
100971
100976
100981
100987
100994
101001
101009
101017
101026
101036
101047
101058
101069
101081
101092
101103
101113
101122
101133
101150
101170
101190
101212
101234
101262
101297
101330
101355
101344
101327
101322
101328
101339
101350
101356
101360
101367
101374
101374
101367
101360
101360
101363
101361
101339
101314
101329
100951
100952
100952
100954
100956
100958
100961
100965
100969
100974
100979
100986
100992
101000
101008
101016
101026
101037
101048
101059
101069
101078
101085
101090
101093
101095
101106
101130
101157
101184
101210
101241
101279
101312
101347
101351
101345
101341
101343
101348
101357
101365
101374
101382
101385
101380
101368
101357
101354
101358
101363
101353
101335
101326
100951
100952
100952
100954
100956
100958
100961
100965
100969
100974
100980
100986
100992
100999
101008
101016
101026
101037
101048
101059
101069
101078
101084
101088
101091
101095
101108
101131
101157
101183
101210
101241
101278
101315
101346
101356
101354
101354
101359
101366
101371
101374
101375
101381
101386
101383
101370
101359
101357
101360
101362
101352
101335
101335
100945
100946
100946
100947
100949
100952
100954
100957
100961
100966
100971
100977
100983
100990
100997
101006
101016
101026
101037
101048
101058
101065
101067
101063
101055
101050
101064
101095
101130
101162
101195
101231
101270
101309
101346
101368
101380
101390
101399
101405
101408
101408
101405
101402
101398
101391
101379
101362
101351
101352
101360
101354
101329
101291
100945
100946
100946
100948
100949
100952
100954
100957
100961
100966
100971
100977
100983
100990
100997
101006
101016
101026
101037
101048
101058
101065
101067
101062
101053
101049
101066
101097
101129
101162
101196
101233
101272
101311
101345
101367
101381
101394
101407
101416
101418
101415
101409
101404
101401
101394
101379
101363
101354
101356
101360
101355
101322
101299
100939
100939
100940
100941
100942
100944
100947
100949
100953
100957
100961
100967
100972
100979
100986
100994
101004
101015
101027
101039
101050
101057
101055
101039
101005
100985
101007
101052
101096
101134
101173
101215
101258
101302
101343
101378
101407
101433
101451
101459
101455
101444
101430
101417
101406
101397
101385
101368
101351
101344
101347
101347
101326
101300
100939
100939
100940
100941
100942
100944
100947
100949
100953
100957
100961
100967
100972
100979
100986
100994
101004
101015
101027
101039
101050
101056
101054
101038
101002
100984
101009
101053
101095
101133
101173
101216
101260
101303
101343
101378
101408
101435
101454
101463
101460
101448
101433
101419
101408
101399
101385
101366
101352
101348
101351
101348
101321
101321
100932
100932
100933
100934
100935
100937
100939
100941
100944
100947
100951
100956
100961
100967
100974
100982
100991
101003
101016
101031
101047
101057
101055
101023
100942
100902
100933
100998
101055
101099
101143
101190
101239
101291
101343
101394
101439
101475
101498
101503
101491
101469
101448
101431
101418
101405
101391
101372
101352
101338
101333
101332
101318
101299
100932
100932
100933
100934
100935
100937
100939
100941
100944
100947
100951
100956
100961
100967
100973
100982
100991
101003
101016
101031
101046
101057
101053
101017
100930
100897
100941
101005
101057
101100
101143
101190
101240
101291
101344
101394
101440
101477
101501
101504
101491
101470
101449
101433
101420
101406
101390
101370
101351
101340
101336
101332
101316
101296
100925
100925
100926
100926
100927
100929
100930
100932
100934
100937
100940
100944
100948
100953
100960
100967
100977
100989
101004
101024
101049
101078
101095
101040
100862
100748
100834
100946
101015
101059
101105
101157
101212
101274
101340
101407
101469
101516
101550
101551
101526
101491
101463
101445
101429
101413
101394
101374
101351
101333
101322
101318
101308
101297
100925
100925
100926
100926
100927
100929
100930
100932
100934
100937
100940
100944
100948
100953
100960
100967
100977
100989
101004
101024
101049
101078
101093
101031
100828
100755
100849
100947
101014
101061
101107
101157
101212
101274
101340
101405
101470
101516
101567
101564
101530
101489
101459
101441
101426
101411
101392
101371
101349
101332
101323
101318
101311
101293
100918
100918
100918
100919
100919
100920
100921
100923
100924
100926
100929
100932
100935
100939
100944
100950
100959
100970
100986
101009
101046
101112
101180
101183
100665
100460
100666
100893
100980
101010
101054
101111
101173
101244
101326
101411
101493
101547
101611
101616
101566
101505
101467
101446
101429
101410
101390
101369
101348
101329
101316
101309
101304
101293
100918
100918
100918
100919
100919
100920
100921
100923
100924
100926
100929
100932
100935
100939
100944
100950
100959
100970
100986
101009
101045
101110
101175
101162
100518
100579
100746
100905
100979
101018
101061
101113
101173
101243
101328
101417
101506
101530
101607
101618
101561
101498
101464
101445
101428
101408
101388
101366
101345
101327
101316
101310
101308
101292
100910
100910
100910
100911
100911
100912
100912
100913
100914
100915
100917
100918
100921
100923
100927
100931
100938
100947
100960
100979
101008
101055
101172
101449
100451
100667
100872
100944
100953
100985
101039
101105
101187
101288
101398
101514
101552
101623
101674
101609
101520
101469
101442
101418
101395
101376
101358
101340
101322
101308
101299
101298
101285
100910
100910
100910
100911
100911
100912
100912
100913
100914
100915
100917
100918
100921
100923
100927
100931
100938
100947
100960
100979
101008
101053
101168
101434
100400
100695
100882
100949
100966
100997
101046
101107
101188
101278
101407
101523
101511
101497
101645
101595
101516
101469
101440
101413
101390
101371
101354
101337
101321
101309
101301
101300
101287
100903
100903
100903
100903
100903
100903
100903
100903
100903
100904
100904
100905
100905
100906
100908
100910
100914
100918
100925
100933
100941
100937
100897
100819
100511
100550
100838
100968
100963
100934
100937
100963
101010
101089
101198
101312
101440
101472
101535
101714
101644
101545
101474
101425
101388
101362
101344
101332
101321
101309
101299
101291
101292
101278
100903
100903
100903
100903
100903
100903
100903
100903
100903
100904
100904
100905
100905
100906
100908
100910
100914
100918
100925
100933
100940
100936
100893
100808
100519
100617
100883
100977
100958
100934
100940
100967
101011
101078
101137
101307
101315
101558
101497
101513
101536
101509
101466
101423
101387
101360
101343
101330
101319
101308
101299
101292
101292
101280
100896
100896
100895
100895
100895
100894
100894
100893
100892
100892
100891
100890
100890
100889
100888
100887
100887
100887
100887
100885
100877
100858
100823
100755
100691
100707
100852
100924
100926
100915
100904
100897
100908
100968
101139
101307
101280
101494
101774
101574
101528
101497
101438
101382
101342
101318
101305
101299
101295
101292
101290
101288
101294
101280
100896
100895
100895
100895
100895
100894
100894
100893
100892
100892
100891
100890
100890
100889
100888
100887
100887
100887
100887
100885
100877
100858
100823
100755
100687
100721
100862
100923
100919
100905
100895
100892
100902
100940
100995
101223
101022
101414
101877
100908
101331
101470
101440
101387
101345
101320
101306
101299
101294
101291
101289
101288
101292
101279
100888
100888
100888
100887
100887
100886
100884
100883
100882
100880
100878
100876
100873
100871
100867
100864
100860
100855
100849
100841
100828
100808
100781
100743
100700
100697
100746
100797
100826
100837
100835
100820
100802
100804
100917
101180
102215
101391
100514
100840
101334
101449
101395
101332
101292
101273
101266
101264
101265
101268
101272
101276
101291
101280
100888
100888
100888
100887
100887
100886
100884
100883
100882
100880
100878
100876
100873
100871
100867
100864
100860
100855
100849
100841
100828
100808
100781
100743
100702
100704
100752
100797
100819
100825
100822
100811
100802
100732
100887
101214
101714
99620.4
100091
99579.7
100343
101273
101389
101340
101295
101274
101267
101265
101265
101267
101271
101277
101292
101284
100881
100881
100880
100880
100879
100877
100875
100873
100871
100868
100865
100862
100857
100852
100847
100840
100833
100825
100814
100801
100784
100762
100735
100703
100670
100655
100667
100691
100708
100718
100720
100714
100616
100680
100750
99762.4
99079.9
98686.4
98812.9
99427
100341
101185
101310
101245
101219
101215
101218
101224
101232
101240
101247
101253
101268
101261
100881
100881
100880
100880
100879
100877
100875
100873
100871
100868
100865
100862
100857
100852
100847
100840
100833
100824
100814
100801
100784
100762
100735
100703
100672
100658
100669
100691
100704
100710
100714
100716
100731
100764
100704
100296
102211
99302.3
98972.8
99057.9
99720.1
100682
101227
101252
101217
101210
101216
101225
101233
101240
101246
101252
101275
101276
100874
100874
100873
100872
100871
100869
100867
100864
100861
100857
100853
100848
100842
100835
100827
100818
100807
100795
100780
100763
100742
100717
100688
100656
100625
100601
100591
100588
100584
100587
100594
100633
100389
100613
101060
100464
98532.5
98434.5
98982.7
99458.2
100002
100707
101072
101109
101130
101148
101166
101184
101203
101221
101235
101241
101258
101273
100874
100874
100873
100872
100871
100869
100867
100864
100861
100857
100853
100848
100842
100835
100827
100818
100807
100795
100780
100763
100742
100717
100688
100656
100625
100601
100591
100586
100580
100579
100584
100640
100612
100688
100970
99758.1
99880.3
98839.6
99180.6
99572.5
100155
100687
100933
101050
101121
101147
101164
101184
101205
101221
101231
101239
101251
101253
100868
100868
100867
100865
100864
100861
100858
100855
100851
100846
100841
100834
100827
100818
100808
100796
100782
100767
100748
100727
100702
100673
100640
100604
100566
100530
100499
100472
100450
100452
100487
100755
100544
99643.1
99707.2
99390.9
98506.8
98694.8
99275.4
99762.7
100079
100348
100857
100985
101050
101085
101113
101143
101175
101205
101229
101242
101270
101287
100868
100868
100867
100865
100864
100861
100858
100855
100851
100846
100841
100834
100827
100818
100808
100796
100782
100767
100748
100727
100702
100673
100640
100603
100566
100529
100498
100471
100444
100427
100404
100474
100731
99917.2
96173
96709.6
98134.8
98679.3
99356.5
99887.3
100290
100471
100714
100932
101046
101088
101115
101144
101176
101205
101226
101238
101251
101272
100862
100862
100861
100859
100857
100854
100851
100846
100842
100836
100829
100822
100812
100802
100790
100775
100759
100740
100718
100693
100663
100629
100590
100547
100499
100448
100396
100344
100297
100279
100386
100608
100851
99778.9
98100.5
97929.2
98366.4
98919.2
99355
99607.6
99859.9
100084
100535
100875
100987
101028
101061
101099
101141
101179
101211
101232
101257
101264
100862
100862
100861
100859
100857
100854
100851
100846
100842
100836
100829
100822
100812
100802
100790
100775
100759
100740
100718
100693
100663
100629
100590
100546
100499
100448
100396
100343
100287
100247
100177
100444
100614
99666.4
97020.3
97532.7
98346.7
98970.2
99399
99646.9
99953.1
100190
100495
100835
100979
101028
101063
101099
101140
101179
101212
101232
101258
101277
100857
100856
100855
100853
100851
100848
100844
100839
100833
100827
100819
100810
100800
100787
100773
100756
100737
100715
100690
100661
100626
100587
100541
100489
100430
100363
100288
100197
100104
99899.6
100175
100218
100491
92162.9
94200
97168.5
98538.5
99251
99382.3
99314.8
99536.6
99947.6
100415
100747
100888
100957
101003
101051
101102
101151
101199
101227
101253
101272
100857
100856
100855
100853
100851
100848
100844
100839
100833
100827
100819
100810
100800
100787
100773
100756
100737
100715
100690
100660
100626
100587
100541
100489
100429
100363
100288
100201
100099
99963.9
99873.7
99972.7
98050.6
97257.1
97201.8
97888.2
98796.9
99376.5
99413
99283.1
99546.5
100018
100443
100740
100883
100954
101005
101052
101102
101149
101196
101228
101244
101241
100852
100852
100850
100848
100845
100842
100837
100832
100826
100818
100810
100800
100788
100774
100758
100740
100718
100693
100665
100631
100592
100547
100495
100434
100362
100279
100181
100053
99891.8
99576.5
99092.3
100387
96213.4
93152.2
95677
98158.6
99619.3
100071
99690
99268.4
99424.1
99864.1
100301
100612
100776
100882
100947
101004
101060
101117
101176
101225
101259
101276
100852
100851
100850
100848
100845
100842
100837
100832
100826
100818
100810
100800
100788
100774
100758
100740
100718
100693
100665
100631
100592
100547
100495
100433
100362
100279
100180
100064
99903.1
99665.1
99363.9
99020.9
96691.5
94723.5
96877.8
98647.5
99867.2
100198
99709.6
99221.4
99409.1
99933.9
100366
100615
100771
100876
100947
101007
101060
101111
101170
101222
101255
101278
100848
100847
100846
100844
100841
100837
100832
100826
100819
100811
100802
100791
100778
100763
100745
100725
100701
100674
100642
100605
100562
100512
100453
100383
100301
100202
100081
99928.4
99721.4
99433.5
98876
98607
100105
100202
99796.5
100487
101258
101086
100109
99254.8
99279.5
99722.2
100159
100492
100692
100821
100904
100964
101018
101066
101110
101169
101258
101304
100848
100847
100846
100844
100841
100837
100832
100826
100819
100811
100802
100791
100778
100763
100745
100725
100701
100674
100642
100605
100562
100512
100453
100383
100300
100200
100074
99932
99752.3
99517.9
99222.4
98525.6
97241.9
97901.6
99340.8
100646
101476
101193
100114
99207.9
99255.9
99771.1
100210
100492
100684
100815
100900
100966
101019
101064
101104
101141
101237
101305
100845
100844
100843
100840
100837
100833
100828
100821
100814
100806
100795
100784
100770
100754
100735
100713
100687
100658
100624
100584
100537
100482
100417
100341
100249
100137
100001
99832.5
99603.2
99311.8
98830.7
98249.2
98514.5
99722.2
99839.5
100539
101435
101298
100266
99171.2
99113.5
99605.9
100118
100454
100645
100776
100878
100946
100997
101030
101056
101103
101174
101285
100845
100844
100843
100840
100837
100833
100828
100821
100814
100806
100795
100784
100770
100753
100735
100713
100687
100658
100624
100584
100537
100482
100417
100340
100248
100131
99998.6
99833.7
99611.6
99334.8
99074.9
97993.2
97607.6
98782
99850.9
100978
101625
101299
100277
99199.9
99085.7
99611.7
100141
100467
100646
100771
100870
100946
101005
101045
101064
101065
101097
101271
100842
100842
100840
100837
100834
100830
100824
100818
100810
100801
100790
100778
100763
100746
100726
100703
100676
100645
100609
100567
100517
100459
100390
100308
100210
100091
99946.6
99763.7
99524.9
99219.5
98845.2
98249.4
97926.1
98404.6
97972
99067.6
100210
100599
100249
99520.8
99349.8
99759.5
100217
100532
100665
100775
100878
100942
100990
101019
101053
101057
100997
101220
100842
100842
100840
100837
100834
100830
100824
100818
100810
100801
100790
100778
100763
100746
100726
100703
100676
100645
100609
100567
100517
100459
100390
100308
100210
100091
99953.5
99769.9
99519.1
99211
98805.4
98197.7
97935.7
98405.2
99074.8
99751.7
99821.4
100104
100043
99601.2
99398
99732.2
100208
100547
100690
100775
100868
100945
100999
101036
101078
101066
100926
101155
100841
100840
100838
100836
100832
100828
100822
100815
100807
100798
100787
100774
100759
100741
100721
100697
100669
100637
100599
100555
100504
100443
100371
100286
100183
100060
99907.8
99718.4
99478.6
99176.3
98821.8
98349.3
97916.3
97338.5
96530.5
96632.9
95998.4
96094.5
96642.3
98011.8
99019.1
99885.8
100347
100633
100785
100882
100947
100986
101016
101043
101097
101095
100932
101119
100841
100840
100838
100836
100832
100828
100822
100815
100807
100798
100787
100774
100759
100741
100721
100697
100669
100637
100599
100555
100504
100443
100371
100286
100184
100060
99910.3
99725.5
99480.5
99166.1
98835.1
98368.2
97939
97765
97283.4
96401.5
95385.4
95588.7
96328.9
97831.3
99095.1
99894.5
100345
100630
100784
100885
100948
100989
101017
101049
101128
101140
100921
101081
100839
100839
100837
100834
100831
100826
100821
100814
100806
100796
100785
100772
100757
100739
100718
100693
100665
100632
100594
100549
100496
100435
100361
100274
100170
100043
99887.9
99696.2
99457.5
99161.4
98803.4
98349
97785.8
97250.8
96684.2
95465.2
93326
92626.8
93427.9
95577.7
97804.3
99253
100012
100411
100695
100885
100968
101000
101022
101046
101066
101051
101014
101129
100839
100839
100837
100834
100831
100826
100821
100814
100806
100796
100785
100772
100757
100739
100718
100693
100665
100632
100594
100549
100496
100435
100361
100274
100170
100043
99888.9
99698.9
99460.2
99165
98822.7
98411.8
97959.3
97314.5
96097.2
94526.8
93308.5
92806.8
93511.1
95461.9
97717
99253.1
100019
100403
100669
100874
100975
101002
101023
101052
101076
101059
101012
101105
100757
101170
100640
101571
101576
100618
100555
100600
100512
100430
100608
101156
100555
101577
101535
100585
100408
100563
100404
100411
101449
100887
100556
100868
100489
100548
100436
100543
100374
100468
100362
101420
100861
100476
100862
100458
100401
100406
100439
100386
100427
100434
100963
101035
100952
101086
100966
101077
100949
100797
100846
100783
100776
100697
100745
100667
100939
101028
100932
101067
100910
101063
100885
100774
100820
100769
100682
100632
100646
100618
101246
101178
101242
101227
101375
101226
101376
100590
100722
100649
100722
100625
100547
100521
100608
100429
100438
100396
100436
101235
101173
101233
101224
101362
101219
101368
100293
100636
100451
100536
100430
100651
100598
100676
100384
100470
100426
100545
101259
101171
101261
101039
101023
101037
101016
100675
101461
101151
101148
100725
100421
100467
100475
100399
100471
100418
100504
100407
100513
101253
101166
101256
101033
101008
101032
101009
100624
101432
101139
100625
101134
100399
100396
100495
100432
100551
100444
100542
100489
100576
100666
100814
100662
100781
100680
100782
100683
100342
100516
100404
100588
100569
100594
100589
100659
100806
100657
100782
100685
100783
100688
100462
100522
100476
100600
100602
100603
100604
101062
100966
100739
100958
101100
101054
100717
100912
100945
101041
101414
101492
101584
101498
101430
101216
101256
101414
101498
101581
101497
101414
101212
101206
100547
100617
100671
100686
100468
100591
100618
100586
100508
100493
100498
100607
100557
100470
100562
100456
100450
100471
100470
100993
100876
100589
100869
101062
101013
100556
100850
100842
100997
101421
101486
101563
101403
101501
101245
101212
101414
101490
101552
101490
101397
101248
101190
100240
100416
100472
100497
100186
100344
100448
100439
100440
100386
100458
100437
100287
100233
100421
100430
100387
100434
100377
100347
100403
100665
101457
101145
101142
100645
100330
100293
100381
100648
100539
100642
100433
100370
100515
100618
100324
100632
100450
100523
100505
100469
100486
100402
100395
100424
100472
100390
100414
100397
100423
100520
100533
100517
100437
100415
100507
100473
100416
100503
100272
100274
100636
101429
101130
101135
100665
100287
100334
100290
100613
100459
100309
100602
100296
100459
100588
100599
100346
100393
100388
100372
100397
100371
100388
100398
100393
100390
100399
100382
100398
100402
100445
100412
100410
100423
100389
100417
100435
100418
100399
101253
101114
101180
101321
101109
101322
101261
101210
101068
101156
101301
101056
101218
101304
101246
101175
101087
101314
101099
101318
101240
100623
100673
100620
100507
100662
100502
100636
100591
100613
100619
100505
100637
100502
100536
101223
101164
101068
101326
101067
101318
101225
100513
100600
100571
100506
100560
100518
100506
100491
100567
100531
100485
100540
100498
100462
100794
100965
100798
100882
100957
100794
100801
100780
100945
100877
100774
100950
100764
100787
100397
100416
100419
100353
100381
100406
100416
100367
100357
100346
100415
100355
100369
100407
100734
100936
100765
100856
100741
100928
100757
100742
100941
100860
100756
100937
100759
100750
100373
100360
100419
100410
100372
100365
100411
100374
100395
100425
100413
100382
100399
100384
100630
100663
100524
100614
100678
100585
100583
100427
100322
100293
100430
100422
100235
100273
100373
100622
100621
100681
100593
100681
100599
100609
100221
100455
100345
99916.2
100499
100145
100014
99985.2
99886.1
100044
99881
100310
100385
100579
100176
100389
100534
100105
99882
99754.6
99823.6
99797.4
101121
100883
100925
100681
100884
101113
100934
101346
101594
101606
101356
101338
101587
101591
101329
101133
100680
100932
100938
100901
100939
101129
100439
100463
101145
100856
100607
100908
100869
101104
100891
101399
101612
101561
101343
101389
101604
101578
101291
101158
100609
100884
100894
101112
100875
100895
100393
100394
100639
101001
100655
101070
101011
100622
100670
100476
100364
100333
100495
100455
100275
100301
100436
100638
101071
101011
100706
101013
100670
100695
100580
100992
100638
101042
100607
100977
100610
100334
100026
100106
100327
100381
100241
100418
100194
100563
101033
100963
100548
100966
100593
100577
101633
101465
101617
101414
101464
101617
101630
101693
101677
101690
101679
101685
101673
101678
101679
101642
101426
101466
101625
101470
101630
101621
101218
101227
101633
101463
101420
101619
101464
101630
101619
101692
101691
101691
101675
101639
101423
101476
101638
101466
101619
101647
101684
101676
101682
101674
101210
101205
100464
100632
100441
100516
100526
100608
100366
100179
99939.2
100096
100044
100222
100175
100296
100115
100439
100476
100594
100262
100428
100577
100314
100606
100611
100547
100573
100550
100598
100585
100560
100538
100558
100579
100588
100555
100538
100543
100524
100567
100560
100603
100591
100577
100591
100574
100559
100522
100485
100508
100552
100531
100530
100535
100516
100515
100472
100456
100467
100470
100494
100498
100492
100476
100510
100496
100482
100485
100510
100497
100489
100486
100902
100989
100503
100920
100463
100499
100218
99960.2
99981.5
100228
100450
101022
100949
100632
100920
100491
100537
100252
99917.6
99973.7
100218
100382
100880
100537
100998
100394
100876
100518
100148
99933.3
99870.7
100204
100141
99882.5
100161
99858.8
100383
100951
100877
100518
100869
100478
100462
101693
101445
101467
101765
101449
101688
101701
101846
101706
101639
101689
101665
101449
101476
101745
101441
101668
101682
101765
101751
101654
101763
101262
101268
101677
101447
101737
101405
101428
101654
101719
101748
101641
101711
101661
101731
101700
101729
101707
101674
101398
101438
101703
101426
101781
101621
101256
101201
100128
100426
99851.1
100215
100118
100425
99834.2
99738.4
99805.2
99715.3
99819.7
99770.5
99731.1
99773.8
99709
100065
100183
100355
99809.9
100383
99804.9
100084
100387
100422
100423
100439
100468
100437
100464
100440
100426
100444
100444
100455
100434
100444
100441
100477
100461
100460
100470
100447
100421
100404
100415
100414
100250
100240
100420
100463
100425
100391
100447
100429
100404
100427
100414
100414
100436
100423
100399
100416
100406
100413
100375
100428
100405
100432
100400
100417
100351
100347
101115
100882
100918
100661
101108
100885
100920
101331
101589
101321
101583
101333
101588
101327
101589
101120
100657
100882
100911
101111