/*--------------------------------*- C++ -*----------------------------------*\
| =========                 |                                                 |
| \\      /  F ield         | OpenFOAM: The Open Source CFD Toolbox           |
|  \\    /   O peration     | Version:  4.1                                   |
|   \\  /    A nd           | Web:      www.OpenFOAM.org                      |
|    \\/     M anipulation  |                                                 |
\*---------------------------------------------------------------------------*/
FoamFile
{
    version     2.0;
    format      ascii;
    class       volVectorField;
    location    "69";
    object      U;
}
// * * * * * * * * * * * * * * * * * * * * * * * * * * * * * * * * * * * * * //

dimensions      [0 1 -1 0 0 0 0];

internalField   nonuniform List<vector> 
4432
(
(39.9819 5.87406e-05 0.0502568)
(39.9153 -0.000153036 0.0900482)
(39.8143 -4.74801e-05 0.118448)
(39.676 -9.68542e-05 0.145896)
(39.4985 -0.000285207 0.174602)
(39.2833 -0.000406076 0.20484)
(39.0306 -0.000433782 0.236927)
(38.7391 -0.000443934 0.27037)
(38.4062 -0.000474379 0.305149)
(38.0306 -0.000543255 0.340652)
(37.6133 -0.000634592 0.374966)
(37.1565 -0.000666919 0.408529)
(36.664 -0.000931914 0.434974)
(36.1528 -0.0010363 0.454177)
(35.6264 -0.00395356 0.44664)
(35.2022 -0.00814826 0.391521)
(34.8454 -0.0067972 0.431341)
(34.7053 -0.00388429 0.336496)
(34.7806 -0.00217534 0.248747)
(34.7309 0.00163844 0.395141)
(34.4731 -0.00165426 0.502886)
(34.0946 -0.0117156 0.631328)
(33.6093 -0.0223968 0.708485)
(33.0583 -0.0317029 0.699253)
(32.4452 -0.0390059 0.682262)
(31.7958 -0.0448206 0.557803)
(31.198 -0.0409751 0.358063)
(30.6797 -0.0265252 0.145971)
(30.2807 -0.0175236 0.0601049)
(29.9882 -0.0221647 0.0726085)
(29.7538 -0.0386242 0.198105)
(29.4958 -0.0576063 0.443003)
(29.132 -0.0625946 0.535516)
(28.7408 -0.0376784 0.161144)
(28.5469 0.00318272 -0.608433)
(28.4964 0.0315919 -1.01062)
(28.5126 0.0381674 -0.937998)
(28.4134 0.0253674 -0.823667)
(28.224 0.0257106 -0.689422)
(28.0879 0.032694 -0.537348)
(28.023 0.0207216 -0.473319)
(27.9622 0.00778657 -0.518529)
(27.8421 -0.00283145 -0.470729)
(27.685 0.00249236 -0.410849)
(27.6167 0.0206398 -0.394257)
(27.6167 0.0374382 -0.401128)
(27.7104 0.0217156 -0.38563)
(27.8898 -0.0196778 -0.412114)
(28.0018 0.00396365 -0.428824)
(28.1364 0.0445548 -0.466516)
(28.5361 0.0504253 -0.366526)
(29.1771 0.0321244 -0.463266)
(29.5542 0.00320318 -0.630892)
(29.9657 0.10831 -0.0563512)
(39.9821 5.8743e-05 0.0502582)
(39.9154 -0.000153064 0.0900651)
(39.8143 -4.75228e-05 0.118548)
(39.6757 -9.64495e-05 0.145957)
(39.4981 -0.000284527 0.174568)
(39.283 -0.000405499 0.204829)
(39.0305 -0.000433296 0.236847)
(38.739 -0.000443323 0.270248)
(38.406 -0.000474088 0.305043)
(38.0306 -0.000543515 0.3404)
(37.6132 -0.00063511 0.374903)
(37.1564 -0.000668112 0.408236)
(36.6643 -0.000933383 0.435776)
(36.1477 -0.00104092 0.45427)
(35.6247 -0.00394087 0.453501)
(35.1502 -0.00820695 0.401616)
(34.7869 -0.00686941 0.380775)
(34.6907 -0.00387397 0.291715)
(34.7712 -0.00217235 0.240891)
(34.7516 0.00152638 0.407995)
(34.4959 -0.00177583 0.490959)
(34.1139 -0.0117977 0.55017)
(33.638 -0.0225181 0.591878)
(33.0819 -0.0321124 0.58451)
(32.4478 -0.0398185 0.573671)
(31.7608 -0.0465923 0.438949)
(31.1044 -0.0445061 0.252606)
(30.5438 -0.0308264 0.120545)
(30.0905 -0.0222521 0.0338638)
(29.7252 -0.0287912 -0.0773733)
(29.4928 -0.0468791 -0.212862)
(29.3123 -0.0711908 -0.242139)
(29.0932 -0.0795352 -0.0803278)
(28.7663 -0.0565653 0.066332)
(28.5224 -0.0109656 -0.19379)
(28.3676 0.0214699 -0.483672)
(28.2886 0.0317767 -0.439748)
(28.1441 0.0183904 -0.443486)
(27.9684 0.0172887 -0.398268)
(27.8102 0.0338449 -0.317631)
(27.6855 0.0295858 -0.249683)
(27.5798 0.0188253 -0.2364)
(27.4387 0.0073599 -0.17774)
(27.2987 0.0120754 -0.154567)
(27.2176 0.0316761 -0.16174)
(27.1889 0.0502556 -0.217076)
(27.2234 0.0365225 -0.147569)
(27.464 -0.00876647 -0.0802214)
(27.6668 0.0199176 -0.0837385)
(27.8443 0.0718013 -0.153212)
(28.3002 0.0475491 -0.283366)
(28.9122 0.0233383 -0.42387)
(29.3656 -0.0109481 -0.549536)
(29.9474 0.0983915 0.0455769)
(40.0077 6.02925e-05 0.0177849)
(40.031 -0.000181191 0.0556535)
(40.0555 -7.93755e-05 0.0947094)
(40.0768 -0.000131211 0.13404)
(40.0932 -0.000319 0.173899)
(40.107 -0.000432921 0.21493)
(40.1196 -0.000437986 0.257517)
(40.1299 -0.000411123 0.301849)
(40.1356 -0.00042888 0.347998)
(40.1348 -0.000498186 0.395757)
(40.1262 -0.000625952 0.444498)
(40.1063 -0.000832998 0.492352)
(40.0712 -0.000843786 0.536938)
(40.004 -0.00100378 0.567841)
(39.9028 0.00234087 0.591548)
(39.633 0.00423639 0.564306)
(39.3175 0.00606691 0.442809)
(38.6108 0.00645731 0.36519)
(37.6289 -0.0010501 0.416529)
(36.8122 -0.00281873 0.480863)
(36.1109 7.98655e-05 0.551374)
(35.4868 0.00345824 0.635746)
(34.9447 0.00656475 0.7218)
(34.4245 0.00932331 0.816971)
(33.9243 0.0107702 0.888955)
(33.4329 0.0121503 0.895798)
(32.9341 0.0140206 0.849352)
(32.4031 0.0205898 0.788467)
(31.7947 0.0335426 0.70641)
(31.196 0.0399656 0.589435)
(30.6437 0.0427276 0.486603)
(30.1267 0.0441827 0.479242)
(29.7249 0.0421703 0.4642)
(29.4742 0.0330345 0.375467)
(29.3177 0.012584 0.333202)
(29.1962 -0.0227247 0.471284)
(29.0734 -0.0680054 0.659708)
(28.886 -0.102005 0.748666)
(28.6428 -0.108585 0.717413)
(28.3753 -0.105909 0.539283)
(28.1599 -0.120958 0.397781)
(28.0828 -0.155314 0.432091)
(27.9882 -0.176758 0.481426)
(27.8825 -0.190198 0.451534)
(27.8341 -0.199715 0.378058)
(27.8564 -0.200469 0.263555)
(27.9237 -0.203208 0.207548)
(28.0298 -0.202153 0.0597474)
(28.0775 -0.187904 -0.0656999)
(28.2235 -0.225723 -0.0037322)
(28.4245 -0.184766 -0.36633)
(28.4357 -0.114321 -0.492037)
(29.3758 -0.0382159 -0.58812)
(30.2474 0.045122 -1.1098)
(40.0079 6.02931e-05 0.0177804)
(40.031 -0.000181193 0.0556428)
(40.0555 -7.93741e-05 0.0946863)
(40.0765 -0.000131203 0.133999)
(40.0929 -0.000318992 0.17386)
(40.1068 -0.000432894 0.214913)
(40.1196 -0.000438019 0.25754)
(40.1298 -0.000410953 0.301891)
(40.1354 -0.000429081 0.348052)
(40.1343 -0.000499796 0.395742)
(40.1257 -0.000627022 0.444366)
(40.1056 -0.000830767 0.492323)
(40.0703 -0.000870411 0.536401)
(40.0078 -0.000911323 0.570607)
(39.9035 0.00192766 0.583356)
(39.7034 0.00431729 0.554)
(39.3739 0.00662761 0.461324)
(38.6465 0.00660678 0.355337)
(37.6442 -0.0011006 0.399922)
(36.8041 -0.00266483 0.471355)
(36.1227 0.000181919 0.530982)
(35.5038 0.00360228 0.604766)
(34.9618 0.00684629 0.676468)
(34.4496 0.00997872 0.755762)
(33.9593 0.0118213 0.820297)
(33.4897 0.0142214 0.825536)
(33.0052 0.0180855 0.812869)
(32.4785 0.0243203 0.792337)
(31.9355 0.0345516 0.711948)
(31.4245 0.0461784 0.566005)
(30.8949 0.0587015 0.441857)
(30.3156 0.071899 0.412928)
(29.8091 0.0655275 0.376252)
(29.5207 0.0486396 0.315379)
(29.3989 0.0180854 0.269808)
(29.3493 -0.0243198 0.349726)
(29.3301 -0.0729202 0.468862)
(29.2496 -0.108386 0.540976)
(29.0906 -0.117027 0.54108)
(28.9767 -0.121214 0.460535)
(28.8744 -0.134013 0.371699)
(28.8818 -0.157417 0.376414)
(28.8592 -0.179373 0.389355)
(28.8027 -0.189474 0.345398)
(28.783 -0.197782 0.258162)
(28.7988 -0.195999 0.135647)
(28.8418 -0.195884 0.0944308)
(28.8927 -0.195018 0.00804606)
(28.9735 -0.201648 -0.0927827)
(28.9742 -0.216698 -0.233663)
(28.9711 -0.132559 -0.675772)
(29.1096 -0.0834222 -0.739933)
(30.0522 -0.0261556 -0.709867)
(30.8321 0.0545 -1.19901)
(39.9996 5.8614e-05 0.0249383)
(39.9866 -0.000184496 0.0720641)
(39.9562 -8.48186e-05 0.11621)
(39.907 -0.000137531 0.158626)
(39.8386 -0.000322272 0.200813)
(39.7535 -0.000428055 0.243821)
(39.6534 -0.00042755 0.288228)
(39.5378 -0.000407541 0.334398)
(39.4058 -0.000440475 0.382619)
(39.2571 -0.000544898 0.432994)
(39.0921 -0.000715509 0.485443)
(38.9112 -0.00088687 0.539695)
(38.7124 -0.00102873 0.595503)
(38.4953 -0.000798796 0.652435)
(38.2426 -0.000649757 0.713502)
(37.9971 0.000938163 0.788701)
(37.6374 0.00155844 0.834179)
(37.265 0.00405941 0.958719)
(36.8921 0.00193686 1.13115)
(36.4789 0.00172653 1.24007)
(36.0128 0.00295682 1.28343)
(35.5247 0.00496604 1.29739)
(35.048 0.00764975 1.3224)
(34.5689 0.0117858 1.36107)
(34.085 0.0141126 1.3972)
(33.5878 0.0177524 1.38376)
(33.0402 0.0248314 1.32494)
(32.4158 0.0348135 1.27639)
(31.6993 0.0425401 1.16254)
(30.9508 0.0385657 1.03878)
(30.1381 0.0361344 1.02701)
(29.3085 0.0492235 1.05631)
(28.6129 0.0855466 0.974057)
(27.9778 0.144865 0.712535)
(27.5442 0.187171 0.144443)
(27.6215 0.0619066 0.110287)
(27.4937 -0.0796712 0.391934)
(27.2201 -0.137043 0.509211)
(26.7781 -0.136562 0.561893)
(26.483 -0.0722712 0.317523)
(26.3915 -0.0892595 0.285415)
(26.3692 -0.157921 0.508881)
(26.2586 -0.191624 0.514386)
(26.0766 -0.200681 0.393721)
(26.0093 -0.20268 0.215248)
(26.0481 -0.190152 0.0301147)
(26.196 -0.187721 -0.113092)
(26.388 -0.162785 -0.288166)
(26.6197 -0.185419 -0.341192)
(27.059 -0.147685 -0.626176)
(27.376 -0.0673434 -0.761338)
(27.5551 -0.0275844 -0.755398)
(27.537 -0.00280955 -1.13399)
(27.6022 -0.00678982 -1.85315)
(39.9997 5.86143e-05 0.0249349)
(39.9867 -0.000184497 0.0720607)
(39.9562 -8.48196e-05 0.116198)
(39.9067 -0.000137529 0.158612)
(39.8383 -0.000322269 0.2008)
(39.7533 -0.000428054 0.243813)
(39.6533 -0.000427536 0.288223)
(39.5377 -0.000407546 0.334384)
(39.4056 -0.000440422 0.382599)
(39.2567 -0.000545042 0.432953)
(39.0916 -0.000715957 0.485394)
(38.9107 -0.000887285 0.539689)
(38.7126 -0.00103109 0.595414)
(38.4946 -0.000796506 0.652299)
(38.249 -0.000658431 0.711108)
(37.9749 0.000927446 0.78111)
(37.6506 0.00118408 0.853771)
(37.2738 0.00426408 0.963361)
(36.8894 0.00204448 1.12462)
(36.4835 0.00178977 1.22633)
(36.0245 0.00306879 1.26457)
(35.5434 0.00516483 1.27113)
(35.0742 0.00806708 1.28603)
(34.596 0.0128824 1.33642)
(34.1048 0.0157522 1.37932)
(33.6057 0.0200454 1.37255)
(33.057 0.0282082 1.34687)
(32.4501 0.0392121 1.32381)
(31.797 0.0483905 1.24517)
(31.0874 0.049844 1.10831)
(30.2356 0.0461184 1.08608)
(29.413 0.0563547 1.1133)
(28.7486 0.0985036 0.9883)
(28.316 0.146177 0.663599)
(28.1298 0.14495 0.306679)
(28.1208 0.0695215 0.123622)
(28.0849 -0.0226563 0.0842956)
(27.9005 -0.0834086 0.0500259)
(27.6309 -0.0901851 -0.0273072)
(27.467 -0.0553549 -0.226621)
(27.1821 -0.0589449 -0.182662)
(27.0943 -0.100507 -0.103108)
(26.9541 -0.128032 -0.148521)
(26.7657 -0.143425 -0.272598)
(26.6517 -0.154989 -0.405972)
(26.6572 -0.146386 -0.559503)
(26.7258 -0.140355 -0.699251)
(26.8132 -0.118031 -0.799523)
(26.9887 -0.131859 -0.890713)
(27.3067 -0.103602 -1.09952)
(27.5685 -0.0555291 -0.995172)
(27.7266 -0.0158858 -0.930436)
(28.1297 -0.0940887 -0.587393)
(27.7731 0.0100469 -1.97556)
(39.9993 5.70001e-05 0.0315522)
(39.9853 -0.000184812 0.0936826)
(39.955 -9.08947e-05 0.155876)
(39.9069 -0.000146554 0.219052)
(39.8398 -0.000333666 0.283887)
(39.7549 -0.000442858 0.350807)
(39.6531 -0.000445613 0.420001)
(39.5333 -0.000425249 0.491596)
(39.3935 -0.000450273 0.565734)
(39.2324 -0.000539825 0.642506)
(39.0494 -0.000682049 0.721984)
(38.8439 -0.00082642 0.804364)
(38.6139 -0.000957483 0.890007)
(38.3576 -0.000894553 0.98046)
(38.0691 -0.000907898 1.07861)
(37.7548 0.000238947 1.18884)
(37.3967 0.000439171 1.3359)
(36.9628 0.000928554 1.41247)
(36.5765 0.00150476 1.47591)
(36.2259 0.00276901 1.55898)
(35.8534 0.00399291 1.64339)
(35.452 0.00437235 1.69893)
(35.0112 0.00439249 1.75445)
(34.5123 0.00530379 1.82442)
(33.9787 0.00408222 1.90601)
(33.4028 0.0035108 1.9485)
(32.722 0.00803566 1.97643)
(31.9373 0.0141617 2.04506)
(31.0387 0.0127423 2.08219)
(29.9509 0.013165 2.06395)
(28.8014 0.0195602 2.08165)
(27.8115 0.0341794 1.99233)
(26.9566 0.0658993 1.69433)
(26.2646 0.114737 0.963254)
(26.26 0.11543 -0.0463704)
(26.5363 -0.0478941 0.277451)
(26.4574 -0.210264 0.907087)
(26.0287 -0.321694 1.17937)
(25.3717 -0.273739 1.18054)
(25.1171 -0.11873 0.600002)
(25.0245 -0.0852783 0.483406)
(25.0302 -0.136925 0.832976)
(24.8474 -0.171223 0.922921)
(24.6168 -0.161804 0.760752)
(24.5137 -0.14686 0.559396)
(24.6227 -0.134029 0.354711)
(24.7339 -0.136802 0.150686)
(24.9699 -0.0865029 0.00806048)
(25.2273 -0.0856563 -0.143362)
(25.636 -0.099303 -0.485328)
(26.2602 -0.103509 -0.823315)
(26.5344 -0.091863 -0.856574)
(26.7269 -0.0802482 -0.886921)
(26.8215 0.106049 -1.0725)
(39.9994 5.70004e-05 0.0315501)
(39.9854 -0.000184813 0.0936833)
(39.955 -9.08958e-05 0.155871)
(39.9066 -0.000146552 0.219042)
(39.8394 -0.000333662 0.283874)
(39.7547 -0.000442853 0.350789)
(39.6531 -0.000445607 0.419979)
(39.5332 -0.000425237 0.491576)
(39.3933 -0.000450254 0.565729)
(39.2321 -0.000539777 0.642526)
(39.049 -0.000682048 0.722049)
(38.8435 -0.000826214 0.804458)
(38.6138 -0.000957824 0.890129)
(38.3573 -0.000892773 0.980303)
(38.0711 -0.000908873 1.07824)
(37.7528 0.000269579 1.18809)
(37.4111 0.000295344 1.33109)
(36.9748 0.000827152 1.44215)
(36.5809 0.00142624 1.48174)
(36.2331 0.00279747 1.54764)
(35.8621 0.0041715 1.62423)
(35.4606 0.00468703 1.6746)
(35.0043 0.00458042 1.73171)
(34.4953 0.00507821 1.83603)
(33.9725 0.00395419 1.91927)
(33.3886 0.00339576 1.97675)
(32.683 0.00917875 2.06828)
(31.8843 0.0163262 2.17893)
(31.0001 0.0148946 2.23467)
(29.9321 0.0152207 2.2112)
(28.8495 0.0201465 2.16612)
(27.9328 0.0329141 2.08879)
(27.1371 0.0627125 1.91646)
(26.4508 0.12575 1.41595)
(26.376 0.141975 0.443013)
(26.6533 -0.036915 0.173232)
(26.6915 -0.233058 0.287602)
(26.4712 -0.42067 0.403301)
(26.079 -0.503098 0.533238)
(25.7734 -0.405437 0.200921)
(25.5685 -0.154218 0.0978471)
(25.4783 -0.13671 0.265461)
(25.2522 -0.133765 0.165831)
(25.0198 -0.131509 0.00102946)
(24.811 -0.114462 -0.113059)
(24.8647 -0.10393 -0.297238)
(24.9104 -0.104845 -0.487042)
(25.1161 -0.0725591 -0.669726)
(25.4472 -0.0554002 -0.816253)
(25.8469 -0.0622606 -1.02837)
(26.3594 -0.0840041 -1.2467)
(26.6526 -0.0843238 -1.24563)
(26.931 -0.183165 -1.31534)
(27.5244 0.0806595 -1.52142)
(39.9993 5.64865e-05 0.0390064)
(39.9856 -0.000183152 0.116632)
(39.9558 -8.90587e-05 0.194916)
(39.9087 -0.000146948 0.27408)
(39.8431 -0.0003358 0.354506)
(39.7602 -0.000446362 0.43681)
(39.6612 -0.000449475 0.521497)
(39.5449 -0.000427153 0.609029)
(39.4093 -0.000446302 0.699868)
(39.2535 -0.000527762 0.794482)
(39.0767 -0.00065618 0.893347)
(38.8785 -0.000801973 0.997055)
(38.6577 -0.00090685 1.10643)
(38.4118 -0.000974925 1.22307)
(38.1406 -0.000792594 1.34941)
(37.8356 -0.000807598 1.49034)
(37.5212 0.000825361 1.64846)
(37.1193 0.00308178 1.80587)
(36.6524 0.00361523 1.88035)
(36.2209 0.00367793 1.93634)
(35.8119 0.00531112 2.01339)
(35.3867 0.00448647 2.0974)
(34.9118 0.00227985 2.24319)
(34.3504 -0.000611151 2.38801)
(33.733 -0.00765311 2.52576)
(33.0267 -0.0118737 2.65244)
(32.1528 -0.00590358 2.78378)
(31.1882 0.00215728 2.98996)
(30.1288 0.00143714 3.18017)
(28.9589 0.0021142 3.23797)
(27.849 0.0111878 3.14446)
(26.8631 0.032673 2.87375)
(25.9621 0.0706757 2.26614)
(25.299 0.139992 0.980547)
(25.4822 0.205831 -0.548752)
(25.226 -0.0669752 -0.193427)
(25.2383 -0.48507 1.70683)
(24.706 -0.739241 2.64822)
(24.1769 -0.785559 2.82933)
(23.725 -0.336974 1.53686)
(23.4705 -0.155002 0.856314)
(23.5932 -0.239004 1.13435)
(23.427 -0.298022 1.10766)
(23.2617 -0.29042 0.783653)
(23.1904 -0.266829 0.511116)
(23.2596 -0.244067 0.266931)
(23.3909 -0.232539 0.0274777)
(23.821 -0.220659 -0.269867)
(23.6155 -0.183077 -0.58852)
(24.0809 -0.215623 -0.750926)
(24.4964 -0.233558 -1.10081)
(24.7297 -0.148616 -1.34618)
(25.3041 -0.263884 -1.5224)
(25.14 -0.117037 -1.56401)
(39.9994 5.64868e-05 0.0390038)
(39.9856 -0.000183153 0.116635)
(39.9558 -8.90597e-05 0.194913)
(39.9084 -0.000146946 0.274077)
(39.8427 -0.000335796 0.354509)
(39.7601 -0.000446353 0.436813)
(39.6611 -0.000449459 0.521497)
(39.5448 -0.00042712 0.609026)
(39.4092 -0.000446267 0.699871)
(39.2532 -0.000527625 0.794499)
(39.0764 -0.000656351 0.893391)
(38.8782 -0.000800768 0.997124)
(38.6574 -0.000903297 1.10655)
(38.4119 -0.000971329 1.22312)
(38.1401 -0.000775134 1.34951)
(37.8388 -0.00083941 1.48992)
(37.5153 0.000993215 1.64906)
(37.147 0.00268872 1.81979)
(36.6975 0.00328834 1.88607)
(36.2509 0.00367719 1.93223)
(35.8298 0.00594906 2.00788)
(35.389 0.0059485 2.10191)
(34.8604 0.00229358 2.24285)
(34.2965 -0.00101139 2.38465)
(33.6962 -0.00791388 2.52054)
(32.9431 -0.0124857 2.67763)
(32.0739 -0.00508406 2.87141)
(31.1632 0.00346191 3.09561)
(30.1557 0.00226886 3.25104)
(29.0445 0.00187132 3.28223)
(27.9751 0.00979177 3.17397)
(27.0256 0.0302716 2.94907)
(26.2325 0.0631883 2.49875)
(25.7209 0.137303 1.51184)
(25.9553 0.283369 0.0523923)
(26.2621 0.000323985 -0.389438)
(26.5936 -0.42478 -0.283302)
(26.4424 -0.629247 0.0107693)
(25.8877 -0.790685 0.269043)
(25.2468 -0.718351 0.309616)
(24.694 -0.261822 0.298556)
(24.642 -0.203836 0.324819)
(24.4658 -0.214258 0.0839985)
(24.2534 -0.202921 -0.199643)
(24.1622 -0.178918 -0.43404)
(24.1919 -0.150617 -0.64902)
(24.3188 -0.122271 -0.852117)
(24.5748 -0.109534 -1.08334)
(24.8077 -0.15953 -1.24292)
(25.09 -0.097626 -1.66078)
(25.3082 0.0653737 -2.17754)
(25.3995 0.050805 -2.04845)
(25.7604 -0.0517895 -2.04078)
(25.873 0.171634 -2.4728)
(39.9993 5.44107e-05 0.0464322)
(39.9859 -0.000181181 0.138852)
(39.9569 -9.32614e-05 0.232218)
(39.9112 -0.000149067 0.326894)
(39.8478 -0.000331411 0.423457)
(39.7679 -0.000439322 0.522725)
(39.6724 -0.000445071 0.62532)
(39.5602 -0.000426895 0.731752)
(39.4295 -0.000447618 0.842528)
(39.2789 -0.000525353 0.958169)
(39.1082 -0.000642965 1.07921)
(38.9171 -0.000767802 1.20625)
(38.7047 -0.000855249 1.34012)
(38.4699 -0.000876333 1.482)
(38.2122 -0.000790123 1.63379)
(37.9306 -0.000552059 1.79903)
(37.6318 0.000339945 1.97802)
(37.3166 0.00326476 2.19325)
(36.9408 0.00652356 2.33689)
(36.4952 0.00612392 2.42251)
(36.0061 0.00615147 2.49133)
(35.4467 0.00205121 2.59518)
(34.8802 -0.00309971 2.77061)
(34.3115 -0.00799646 3.00272)
(33.6475 -0.0175862 3.26172)
(32.8336 -0.0200255 3.54373)
(31.7786 -0.00841881 3.78864)
(30.6627 0.00741363 4.04813)
(29.5671 0.0115009 4.28078)
(28.4308 0.0122394 4.33741)
(27.3148 0.0229979 4.17523)
(26.2291 0.056029 3.80211)
(25.0223 0.127875 3.05495)
(23.914 0.346928 1.52382)
(23.465 0.723519 0.118302)
(14.3986 0.0531018 2.53073)
(16.1486 -0.586225 1.93641)
(16.973 -1.07375 1.49901)
(17.5461 -1.72623 2.33593)
(18.9445 -0.91379 0.308122)
(20.0235 -0.276317 0.709805)
(20.0731 -0.749911 2.19648)
(20.1051 -0.674893 2.00534)
(20.3018 -0.566588 1.54308)
(20.5251 -0.495812 1.14315)
(20.6935 -0.463767 0.810651)
(20.9248 -0.406451 0.480268)
(21.1955 -0.412091 0.168105)
(21.4951 -0.390633 -0.235404)
(21.6496 -0.330606 -0.574716)
(21.6486 -0.235855 -0.917238)
(21.6514 -0.177505 -1.16329)
(22.0284 -0.20803 -1.32558)
(21.2276 -0.349087 -1.75589)
(39.9994 5.44095e-05 0.0464291)
(39.986 -0.000181175 0.138855)
(39.9569 -9.32947e-05 0.232216)
(39.9109 -0.000148928 0.326896)
(39.8474 -0.000331988 0.423466)
(39.7677 -0.000441095 0.522735)
(39.6724 -0.0004471 0.625323)
(39.5602 -0.000428948 0.731748)
(39.4293 -0.000449649 0.842525)
(39.2786 -0.000527272 0.958179)
(39.1079 -0.000645052 1.07924)
(38.9168 -0.00076897 1.20632)
(38.7045 -0.000852132 1.34025)
(38.47 -0.00087243 1.48214)
(38.2122 -0.000770795 1.63409)
(37.932 -0.000594348 1.7987)
(37.6328 0.000493944 1.97955)
(37.3266 0.00270985 2.17973)
(36.9916 0.00677514 2.34563)
(36.5683 0.00615781 2.45394)
(36.057 0.00722955 2.54863)
(35.5003 0.00359075 2.6793)
(34.8888 -0.00331393 2.81445)
(34.2701 -0.00823159 3.00595)
(33.5733 -0.0183787 3.24629)
(32.7132 -0.0199774 3.53169)
(31.7196 -0.00786508 3.80009)
(30.7193 0.00651663 4.08878)
(29.6733 0.00978302 4.29429)
(28.5556 0.0104834 4.33866)
(27.4761 0.0212118 4.18577)
(26.4868 0.0520725 3.87865)
(25.5763 0.118276 3.29532)
(24.8824 0.4231 2.12331)
(25.2573 1.37258 0.449227)
(26.4655 2.52805 -1.34327)
(27.6854 2.56838 -1.55913)
(27.6619 2.34515 -1.23449)
(26.9428 2.10664 -0.824598)
(26.652 1.61696 -0.605586)
(24.1439 0.459421 0.180687)
(23.7888 0.151646 0.380318)
(23.5075 0.215564 0.0946593)
(23.2766 0.308081 -0.257296)
(23.0908 0.374911 -0.551717)
(22.9076 0.420763 -0.783398)
(22.7365 0.502138 -0.977098)
(22.5763 0.546583 -1.1284)
(22.4597 0.569548 -1.28607)
(22.2489 0.664222 -1.50243)
(22.2438 0.786081 -1.71735)
(21.9563 0.882116 -1.93798)
(22.2035 0.875099 -1.86691)
(20.9288 0.858622 -2.45885)
(39.9994 5.34317e-05 0.0536029)
(39.9864 -0.000179202 0.160286)
(39.9586 -9.0193e-05 0.268254)
(39.9149 -0.000145474 0.378002)
(39.8542 -0.000326751 0.490135)
(39.7777 -0.000436057 0.605496)
(39.6863 -0.000445474 0.724752)
(39.5787 -0.000430115 0.848502)
(39.4531 -0.000450076 0.977372)
(39.3084 -0.000521365 1.11199)
(39.1442 -0.000628408 1.25298)
(38.9603 -0.000737029 1.40093)
(38.7562 -0.000808334 1.55651)
(38.5312 -0.0008043 1.72051)
(38.2849 -0.000736612 1.8939)
(38.0185 -0.000450796 2.07832)
(37.7332 -0.000123588 2.27386)
(37.4387 0.00139657 2.48545)
(37.1286 0.00231949 2.6862)
(36.7796 0.000731626 2.87217)
(36.3624 -0.00113818 3.04095)
(35.8555 -0.00247426 3.25816)
(35.185 -0.00652558 3.43264)
(34.5198 -0.0159709 3.66562)
(33.8427 -0.0281556 4.06454)
(33.0137 -0.0328518 4.56452)
(31.9143 -0.00772718 4.97875)
(30.6651 0.0216769 5.19926)
(29.4522 0.0249186 5.36981)
(28.2265 0.0219375 5.43535)
(27.0298 0.0365084 5.32543)
(25.8286 0.0753417 5.01874)
(24.2795 0.182835 4.54868)
(23.1108 0.563717 3.79286)
(11.6974 0.436893 -0.0779357)
(11.1482 0.0284808 2.55755)
(11.3122 -0.32216 5.32373)
(10.7629 0.473141 3.65837)
(11.2248 0.581895 2.97126)
(9.63649 0.00388155 2.0581)
(13.0612 -0.353093 0.955542)
(13.1811 -0.437469 0.767511)
(13.0555 -0.278738 0.815553)
(13.3412 -0.146111 0.697522)
(13.6227 -0.0703718 0.500456)
(13.6877 -0.0101636 0.296192)
(13.789 0.0900476 0.0727453)
(13.8561 0.213072 -0.196119)
(14.1383 0.248002 -0.546217)
(14.363 0.214658 -0.82411)
(14.6028 0.143701 -1.09683)
(15.1011 0.0451656 -1.47756)
(16.0225 -0.0247914 -1.87406)
(17.0644 -0.689112 -3.01265)
(39.9995 5.34305e-05 0.0535988)
(39.9865 -0.000179195 0.160288)
(39.9586 -9.0227e-05 0.268246)
(39.9146 -0.000145333 0.377997)
(39.8538 -0.000327329 0.490139)
(39.7775 -0.000437857 0.605504)
(39.6862 -0.000447569 0.724761)
(39.5786 -0.000432301 0.848512)
(39.4529 -0.000452216 0.977391)
(39.3081 -0.00052376 1.11203)
(39.1439 -0.000629687 1.25304)
(38.96 -0.000736396 1.40103)
(38.756 -0.000807068 1.55665)
(38.5312 -0.000801739 1.72066)
(38.2851 -0.000726994 1.89413)
(38.0189 -0.000446885 2.07818)
(37.735 -0.000100667 2.27373)
(37.4399 0.00141101 2.4799)
(37.1324 0.00230478 2.68603)
(36.7945 0.000756415 2.88773)
(36.3793 -0.000397135 3.08413)
(35.9226 -0.00242117 3.28681)
(35.2694 -0.00833946 3.50796)
(34.5273 -0.0156997 3.72325)
(33.7799 -0.0294047 4.03208)
(32.8775 -0.0334346 4.49262)
(31.7754 -0.00605023 4.84671)
(30.7031 0.01795 5.18324)
(29.5905 0.0220158 5.43405)
(28.4012 0.0191765 5.47848)
(27.2387 0.0346421 5.30354)
(26.1691 0.0715447 5.00957)
(25.1092 0.198394 4.57285)
(24.0879 0.889631 3.95182)
(25.1694 2.59216 3.25684)
(11.8671 0.0379688 2.53559)
(12.7644 0.288989 0.955744)
(12.529 1.24495 0.359857)
(11.4447 1.62864 0.654459)
(11.0231 1.40665 1.26193)
(11.9617 0.895129 1.50379)
(12.1111 0.716818 1.13886)
(11.9253 0.865746 0.726917)
(11.7248 1.02299 0.383091)
(11.6659 1.11619 0.104374)
(11.6882 1.19613 -0.121769)
(11.8473 1.3448 -0.307385)
(12.1446 1.50756 -0.428012)
(12.4284 1.62943 -0.514969)
(12.7087 1.70267 -0.657995)
(13.0154 1.76224 -0.877243)
(13.3728 1.8215 -1.05472)
(14.0291 1.88999 -1.13371)
(13.6047 1.41901 -1.58945)
(39.9994 5.03603e-05 0.0604269)
(39.9871 -0.000179128 0.180692)
(39.9607 -0.000100022 0.302522)
(39.9194 -0.000154148 0.426525)
(39.862 -0.000327948 0.553386)
(39.7895 -0.000431989 0.684061)
(39.7029 -0.000438522 0.819351)
(39.6009 -0.000418689 0.959983)
(39.4815 -0.000430534 1.1067)
(39.3437 -0.000490166 1.26018)
(39.1871 -0.000582876 1.42102)
(39.0114 -0.000676023 1.58969)
(38.816 -0.000732836 1.76656)
(38.6002 -0.000725806 1.95189)
(38.3638 -0.000640309 2.14575)
(38.1072 -0.000474429 2.34827)
(37.8318 -0.000249311 2.55854)
(37.5415 0.000168607 2.7765)
(37.2372 -0.000204378 2.99572)
(36.913 -0.00177823 3.2186)
(36.5537 -0.00402313 3.45776)
(36.1549 -0.00387954 3.7534)
(35.7046 -0.000763457 4.0737)
(35.0346 -0.0116251 4.41703)
(34.2952 -0.0268883 4.90007)
(33.5753 -0.0367614 5.55315)
(32.6772 -0.00969142 6.11321)
(31.4858 0.0361472 6.47017)
(30.0334 0.0555431 6.66271)
(28.4586 0.0397664 6.65145)
(27.1441 0.0340277 6.38498)
(26.0257 0.0449208 6.08551)
(24.8618 0.0833008 6.05563)
(24.0764 0.376813 6.93625)
(22.4789 0.955753 9.10539)
(8.66772 0.0740271 2.619)
(8.34676 0.578018 0.993217)
(3.1506 0.992467 -2.16591)
(-3.87089 -2.07142 -3.06479)
(-1.00613 -2.07457 -2.83401)
(-1.85957 -1.80728 -1.85506)
(0.684604 -1.4947 -0.332928)
(1.96652 -1.24862 -0.346111)
(3.41023 -0.903302 -0.602945)
(5.18602 -0.864549 -1.16455)
(7.0045 -1.02294 -1.64327)
(8.80131 -1.09224 -1.92389)
(10.7257 -1.05248 -2.16219)
(12.612 -1.05715 -2.42442)
(14.3442 -1.1183 -2.6896)
(15.896 -1.20494 -2.99316)
(17.4857 -1.23384 -3.36288)
(19.1543 -1.23553 -3.73887)
(20.8711 -1.32937 -4.61003)
(39.9995 5.03606e-05 0.0604225)
(39.9872 -0.000179128 0.180692)
(39.9608 -0.000100023 0.302513)
(39.9191 -0.000154146 0.426519)
(39.8616 -0.000327933 0.55339)
(39.7894 -0.000432053 0.684071)
(39.7029 -0.000438373 0.819363)
(39.6008 -0.000419638 0.96)
(39.4814 -0.000433201 1.10673)
(39.3435 -0.000493477 1.26022)
(39.1868 -0.000585151 1.42109)
(39.0111 -0.000676478 1.58979)
(38.8158 -0.000732692 1.76669)
(38.6002 -0.000725038 1.95201)
(38.3639 -0.000639306 2.14589)
(38.1074 -0.000469548 2.34825)
(37.8324 -0.000245954 2.55833)
(37.5414 0.000182587 2.77477)
(37.2347 -0.000180095 2.99359)
(36.9087 -0.00178618 3.21792)
(36.5517 -0.00393161 3.46427)
(36.1604 -0.0040589 3.75025)
(35.7289 0.000181875 4.13807)
(35.1223 -0.0094879 4.46592)
(34.3033 -0.0324291 4.89071)
(33.4848 -0.0402274 5.4432)
(32.3956 -0.0168457 5.95249)
(31.1714 0.0242071 6.35152)
(30.0402 0.0451601 6.62438)
(28.7887 0.029248 6.67315)
(27.4255 0.0290164 6.43425)
(26.2389 0.0440285 6.0731)
(25.2262 0.0879091 5.87424)
(24.0492 0.448306 6.18861)
(24.603 1.81261 8.06474)
(22.258 2.39736 8.60411)
(20.4203 2.15909 6.60876)
(17.6255 2.11993 4.02166)
(14.9553 2.01063 2.48515)
(12.545 1.75718 1.58424)
(10.4306 1.31717 0.856987)
(8.81547 0.959171 0.383304)
(7.89291 0.883423 0.208451)
(7.48953 0.991822 0.143036)
(7.31642 1.16779 0.0985727)
(7.29198 1.24543 0.017957)
(7.67558 1.32057 -0.0609897)
(8.44354 1.50883 -0.152693)
(9.23457 1.65746 -0.202877)
(9.97192 1.6906 -0.257192)
(10.66 1.61363 -0.414356)
(11.4768 1.5624 -0.656261)
(12.8187 1.58415 -0.830036)
(13.3627 1.32969 -1.3847)
(39.9995 4.90175e-05 0.066821)
(39.9879 -0.000178057 0.199809)
(39.9633 -9.83747e-05 0.334625)
(39.9248 -0.00015212 0.472012)
(39.8712 -0.000323989 0.612769)
(39.8035 -0.000427525 0.757988)
(39.7225 -0.00043493 0.908595)
(39.6269 -0.000414914 1.06542)
(39.5148 -0.000423671 1.22929)
(39.3849 -0.000477394 1.40094)
(39.2367 -0.000561799 1.58094)
(39.0698 -0.000644918 1.76966)
(38.8834 -0.000696329 1.9672)
(38.6766 -0.000688198 2.17335)
(38.4487 -0.000613511 2.38758)
(38.2 -0.000479507 2.60893)
(37.9317 -0.000326151 2.83606)
(37.6465 -0.000186182 3.06777)
(37.3475 -0.0002567 3.30245)
(37.0367 -0.000598728 3.54497)
(36.7156 -0.00128118 3.8089)
(36.3835 -0.000179296 4.13006)
(36.0495 0.000645357 4.52929)
(35.6621 0.0201676 5.06069)
(34.9646 0.0161607 5.70412)
(34.3307 -0.00365605 6.36276)
(33.6451 -0.0123804 6.96108)
(32.7911 -0.00159538 7.65956)
(31.6133 0.0455387 8.21805)
(30.0864 0.0888047 8.35881)
(28.2104 0.0863248 7.75088)
(26.2702 0.0637745 7.05569)
(24.8821 0.0516633 6.89373)
(23.4529 0.129075 7.3079)
(24.3459 0.619835 10.5473)
(21.2643 0.498649 10.766)
(17.9593 0.235428 8.0193)
(14.0126 -0.0385644 4.73302)
(10.0216 -0.748886 1.97303)
(7.8786 -1.30441 -0.137847)
(7.33195 -1.78037 -1.50863)
(8.15752 -2.11853 -2.22989)
(9.55026 -2.1446 -2.61254)
(11.1907 -1.93631 -2.89356)
(13.0405 -1.72415 -3.23552)
(14.9214 -1.62643 -3.58556)
(16.7067 -1.56429 -3.83738)
(18.3821 -1.49307 -4.00659)
(19.8898 -1.43126 -4.15063)
(21.1808 -1.39905 -4.2755)
(22.2737 -1.37055 -4.3997)
(23.2598 -1.30978 -4.49577)
(24.2743 -1.21733 -4.62402)
(24.8155 -1.18579 -4.77116)
(39.9996 4.90178e-05 0.0668161)
(39.988 -0.000178058 0.199808)
(39.9633 -9.83748e-05 0.334613)
(39.9245 -0.00015212 0.472001)
(39.8709 -0.000323973 0.612768)
(39.8034 -0.000427563 0.757994)
(39.7225 -0.000434705 0.908602)
(39.6269 -0.000415733 1.06543)
(39.5147 -0.000426256 1.22931)
(39.3847 -0.000480529 1.40097)
(39.2365 -0.000564541 1.58099)
(39.0696 -0.000649895 1.76973)
(38.8833 -0.00070107 1.96728)
(38.6766 -0.000690105 2.17345)
(38.4488 -0.000618698 2.38767)
(38.2001 -0.000485866 2.60899)
(37.9318 -0.000328258 2.83603)
(37.6464 -0.000185724 3.06751)
(37.3469 -0.000241266 3.30273)
(37.0353 -0.000599224 3.54619)
(36.7148 -0.00119934 3.8133)
(36.3856 -0.000573652 4.12776)
(36.0554 0.00189696 4.54362)
(35.7202 0.0153875 5.03462)
(35.2116 0.0107879 5.66867)
(34.454 -0.00707293 6.31304)
(33.6536 -0.0214721 7.06068)
(32.4102 -0.0062701 7.62419)
(31.1 0.0376623 7.94868)
(29.8299 0.0735196 8.08432)
(28.4087 0.0835197 7.91482)
(26.7943 0.0563824 7.31821)
(25.2049 0.0529924 6.87076)
(23.652 0.0479806 7.23548)
(23.2085 0.556805 8.92236)
(24.0865 1.15769 10.1085)
(24.3892 1.43306 9.49306)
(23.4651 1.47748 7.85487)
(21.785 1.43841 5.97611)
(19.7912 1.32303 4.2941)
(17.7788 1.13668 2.98243)
(16.0107 0.941375 2.04006)
(14.7837 0.833809 1.36345)
(14.0934 0.861942 0.874336)
(13.7435 0.953929 0.470894)
(13.7411 0.977833 0.113384)
(14.092 0.96322 -0.167234)
(14.7091 0.963572 -0.372159)
(15.4481 0.953394 -0.535709)
(16.2146 0.881357 -0.696189)
(17.0105 0.766319 -0.844214)
(17.9346 0.672497 -1.01053)
(19.0308 0.649644 -1.19007)
(19.5618 0.438513 -1.78081)
(39.9995 4.54976e-05 0.0727053)
(39.9889 -0.000179228 0.217402)
(39.9663 -0.000111218 0.364189)
(39.931 -0.000164897 0.513952)
(39.8819 -0.000329259 0.667617)
(39.8197 -0.000427145 0.82642)
(39.7451 -0.000431714 0.991419)
(39.657 -0.00040967 1.16358)
(39.5531 -0.000414787 1.34384)
(39.4322 -0.000462065 1.53302)
(39.2935 -0.00053857 1.73176)
(39.1362 -0.000614946 1.94037)
(38.9594 -0.000659674 2.15878)