/*--------------------------------*- C++ -*----------------------------------*\
| =========                 |                                                 |
| \\      /  F ield         | OpenFOAM: The Open Source CFD Toolbox           |
|  \\    /   O peration     | Version:  4.1                                   |
|   \\  /    A nd           | Web:      www.OpenFOAM.org                      |
|    \\/     M anipulation  |                                                 |
\*---------------------------------------------------------------------------*/
FoamFile
{
    version     2.0;
    format      ascii;
    class       volScalarField;
    location    "45";
    object      p;
}
// * * * * * * * * * * * * * * * * * * * * * * * * * * * * * * * * * * * * * //

dimensions      [0 2 -2 0 0 0 0];

internalField   nonuniform List<scalar> 
4432
(
100664
100664
100664
100665
100669
100673
100678
100683
100687
100691
100696
100703
100712
100722
100732
100742
100749
100752
100753
100760
100776
100794
100813
100834
100855
100878
100901
100920
100933
100942
100946
100945
100941
100932
100918
100886
100846
100859
100868
100846
100808
100771
100758
100748
100728
100736
100639
100582
100682
100808
100755
100566
100096
99986.3
100664
100664
100664
100665
100669
100674
100678
100682
100686
100691
100696
100703
100712
100722
100732
100742
100748
100751
100753
100760
100776
100796
100815
100834
100856
100881
100902
100919
100933
100944
100949
100947
100941
100928
100910
100891
100875
100856
100838
100827
100809
100789
100770
100734
100690
100734
100695
100614
100680
100772
100738
100646
100086
99939
100663
100662
100662
100663
100666
100671
100676
100680
100684
100689
100694
100701
100710
100720
100732
100746
100764
100782
100796
100803
100814
100830
100845
100858
100872
100888
100904
100922
100939
100954
100961
100960
100946
100925
100898
100864
100851
100848
100840
100825
100792
100764
100756
100753
100736
100715
100678
100637
100693
100767
100869
100853
99586.9
100568
100662
100662
100662
100663
100667
100671
100676
100680
100684
100689
100694
100701
100709
100720
100732
100746
100764
100783
100797
100804
100814
100828
100842
100855
100869
100884
100901
100919
100936
100950
100956
100952
100940
100925
100902
100873
100852
100839
100831
100821
100803
100778
100766
100765
100741
100720
100689
100643
100695
100769
100822
100941
99615.9
100559
100661
100661
100661
100662
100665
100670
100675
100679
100683
100687
100693
100699
100707
100718
100730
100744
100760
100775
100787
100797
100811
100827
100841
100855
100869
100886
100905
100924
100945
100964
100976
100976
100969
100947
100904
100859
100841
100846
100846
100839
100810
100777
100774
100770
100749
100712
100699
100675
100684
100658
100627
100543
100425
101128
100661
100661
100661
100662
100666
100670
100675
100679
100683
100687
100692
100699
100707
100718
100730
100744
100760
100775
100788
100796
100810
100826
100840
100853
100867
100884
100902
100921
100942
100963
100975
100972
100960
100940
100908
100872
100856
100850
100839
100826
100807
100783
100779
100780
100756
100718
100688
100673
100672
100649
100667
100564
100329
101126
100658
100659
100658
100660
100663
100667
100672
100676
100680
100684
100689
100696
100704
100714
100725
100739
100754
100770
100781
100791
100806
100823
100837
100851
100867
100887
100908
100930
100956
100981
100997
101003
101004
100969
100899
100819
100788
100810
100831
100853
100825
100781
100781
100780
100762
100732
100731
100700
100702
100710
100698
100687
100668
100737
100658
100658
100658
100660
100663
100667
100672
100676
100680
100684
100689
100695
100704
100714
100726
100739
100754
100770
100782
100791
100806
100822
100837
100850
100866
100886
100907
100929
100956
100982
100997
101002
101000
100966
100907
100849
100831
100831
100832
100827
100825
100795
100789
100777
100761
100735
100713
100706
100696
100719
100720
100752
100533
100669
100655
100656
100655
100657
100660
100664
100669
100673
100676
100680
100685
100691
100699
100709
100721
100733
100749
100764
100777
100785
100796
100812
100828
100844
100863
100888
100914
100939
100968
100996
101012
101023
101024
101002
101014
100774
100769
100790
100807
100848
100832
100804
100801
100800
100805
100793
100730
100670
100685
100752
100840
100727
100564
101131
100655
100655
100655
100657
100660
100664
100669
100673
100676
100680
100685
100691
100699
100709
100721
100734
100749
100764
100777
100785
100796
100812
100828
100844
100864
100889
100913
100939
100971
100999
101014
101020
101017
100983
100926
100842
100803
100805
100815
100828
100848
100823
100808
100791
100779
100756
100726
100708
100712
100751
100795
100862
100510
100998
100652
100652
100652
100653
100656
100660
100664
100668
100672
100675
100680
100686
100694
100703
100714
100727
100741
100754
100767
100777
100788
100801
100816
100833
100853
100879
100908
100935
100963
100988
101003
101021
101053
101265
101579
100878
100776
100779
100791
100794
100807
100830
100837
100827
100818
100819
100747
100684
100678
100736
100816
100693
100551
101037
100652
100652
100652
100653
100656
100660
100664
100668
100672
100675
100680
100686
100694
100703
100715
100727
100741
100754
100766
100777
100789
100802
100817
100834
100855
100881
100908
100934
100963
100987
100998
101002
101004
101046
101067
100880
100787
100784
100794
100802
100822
100836
100828
100818
100809
100781
100735
100701
100702
100740
100792
100683
100571
101168
100648
100648
100647
100648
100651
100655
100659
100663
100666
100670
100674
100680
100688
100697
100708
100719
100732
100744
100756
100766
100779
100792
100804
100820
100836
100859
100889
100913
100928
100940
100962
101006
101129
101650
101322
101253
100781
100766
100782
100780
100786
100835
100853
100838
100823
100819
100778
100723
100694
100721
100819
100803
100602
100985
100647
100648
100647
100649
100652
100656
100659
100663
100666
100670
100674
100680
100687
100697
100708
100719
100732
100744
100755
100767
100780
100793
100804
100821
100840
100862
100887
100907
100925
100939
100949
100970
101010
101113
101153
100892
100755
100757
100776
100782
100796
100825
100837
100832
100830
100815
100759
100708
100693
100710
100749
100693
100659
100981
100643
100643
100643
100643
100646
100650
100654
100657
100660
100663
100668
100673
100680
100689
100699
100710
100722
100733
100744
100754
100766
100780
100791
100801
100815
100829
100851
100865
100871
100869
100874
100902
100950
101082
101031
100799
100758
100767
100785
100786
100791
100809
100826
100822
100818
100831
100823
100775
100713
100687
100765
100780
100653
101038
100643
100643
100642
100644
100646
100650
100654
100657
100660
100663
100667
100673
100680
100689
100699
100710
100722
100733
100744
100755
100767
100780
100790
100803
100819
100833
100850
100860
100867
100870
100869
100886
100929
100966
100977
100845
100765
100773
100793
100795
100794
100802
100809
100815
100839
100848
100806
100740
100689
100693
100760
100744
100654
101069
100637
100637
100637
100638
100640
100644
100647
100650
100653
100656
100660
100665
100672
100680
100690
100700
100711
100721
100732
100742
100753
100764
100773
100780
100788
100794
100803
100810
100814
100817
100824
100840
100872
100894
100890
100809
100775
100795
100812
100811
100801
100789
100791
100806
100824
100851
100859
100821
100742
100682
100711
100726
100698
101117
100637
100637
100637
100638
100641
100644
100647
100650
100653
100656
100660
100665
100672
100680
100690
100700
100711
100721
100732
100742
100753
100764
100774
100781
100787
100796
100803
100808
100812
100816
100822
100838
100866
100886
100892
100850
100822
100821
100828
100826
100813
100796
100783
100796
100838
100868
100852
100786
100716
100690
100717
100690
100659
101129
100631
100632
100631
100632
100634
100637
100640
100643
100646
100648
100652
100657
100663
100671
100680
100689
100699
100709
100720
100730
100739
100747
100753
100757
100755
100753
100753
100762
100773
100783
100793
100814
100846
100869
100892
100873
100858
100858
100859
100855
100845
100817
100793
100801
100832
100874
100896
100872
100795
100717
100720
100763
100863
101134
100631
100631
100631
100632
100634
100637
100640
100643
100645
100648
100652
100657
100663
100671
100680
100689
100699
100709
100720
100730
100740
100748
100753
100755
100752
100749
100755
100765
100774
100782
100794
100813
100842
100873
100898
100891
100878
100872
100870
100869
100856
100828
100798
100796
100839
100888
100893
100850
100777
100699
100670
100675
100733
101082
100625
100625
100625
100625
100627
100630
100633
100635
100637
100640
100643
100647
100653
100660
100669
100678
100687
100697
100708
100718
100727
100734
100736
100730
100714
100701
100706
100728
100746
100760
100779
100808
100840
100874
100905
100909
100906
100907
100908
100901
100889
100870
100840
100823
100828
100878
100926
100921
100844
100762
100766
100813
100858
100720
100625
100625
100625
100625
100627
100630
100633
100635
100637
100639
100643
100647
100653
100660
100669
100678
100687
100697
100708
100718
100728
100734
100735
100727
100711
100700
100710
100731
100747
100760
100780
100809
100843
100879
100905
100911
100909
100910
100910
100907
100901
100884
100851
100820
100837
100892
100925
100903
100830
100748
100716
100737
100686
100637
100618
100618
100618
100618
100620
100622
100625
100627
100628
100630
100633
100637
100642
100649
100656
100665
100675
100685
100696
100708
100719
100727
100725
100705
100662
100635
100653
100688
100710
100727
100753
100791
100832
100871
100903
100921
100934
100947
100956
100955
100942
100922
100901
100877
100852
100870
100919
100939
100893
100820
100804
100849
100880
100788
100618
100618
100618
100618
100620
100622
100625
100627
100628
100630
100633
100637
100642
100649
100656
100665
100675
100685
100697
100709
100719
100726
100723
100702
100659
100636
100658
100691
100710
100726
100753
100792
100834
100872
100902
100920
100934
100948
100958
100957
100946
100930
100904
100872
100862
100892
100929
100928
100881
100819
100800
100832
100795
100917
100611
100611
100610
100611
100612
100614
100616
100618
100619
100620
100623
100626
100630
100636
100643
100652
100661
100672
100685
100700
100716
100727
100724
100691
100599
100554
100586
100635
100659
100679
100714
100761
100812
100860
100903
100940
100972
100999
101018
101020
101005
100979
100947
100914
100883
100876
100903
100933
100928
100888
100856
100849
100869
100748
100611
100611
100610
100611
100612
100614
100616
100618
100619
100620
100622
100626
100630
100636
100643
100652
100661
100672
100686
100701
100716
100726
100721
100681
100587
100555
100599
100642
100660
100678
100714
100761
100812
100859
100902
100939
100973
101002
101023
101024
101006
100979
100947
100913
100890
100893
100916
100931
100916
100880
100849
100834
100838
100698
100604
100604
100603
100603
100604
100606
100607
100608
100609
100610
100611
100614
100618
100623
100629
100637
100646
100658
100673
100693
100718
100748
100764
100709
100531
100398
100497
100573
100596
100619
100666
100726
100787
100847
100907
100965
101021
101064
101098
101100
101073
101031
100985
100941
100905
100887
100895
100917
100930
100919
100898
100876
100879
100755
100604
100604
100603
100603
100604
100606
100607
100608
100609
100610
100611
100614
100618
100623
100629
100637
100646
100658
100673
100693
100718
100747
100760
100698
100486
100434
100523
100571
100588
100614
100663
100724
100785
100846
100906
100963
101022
101065
101116
101116
101082
101032
100982
100937
100902
100891
100904
100924
100931
100918
100896
100869
100869
100737
100596
100596
100595
100595
100596
100597
100598
100599
100599
100599
100600
100601
100604
100608
100613
100620
100628
100639
100654
100677
100714
100783
100855
100860
100401
99992.4
100348
100514
100537
100554
100609
100682
100755
100828
100906
100990
101073
101126
101188
101192
101140
101071
101011
100960
100919
100894
100893
100910
100931
100939
100933
100913
100902
100783
100596
100596
100595
100595
100596
100597
100598
100599
100599
100599
100600
100601
100604
100608
100613
100620
100628
100639
100654
100677
100713
100780
100850
100832
100007
100227
100452
100524
100528
100551
100610
100683
100756
100828
100911
101000
101088
101109
101187
101197
101137
101066
101011
100964
100925
100904
100905
100921
100937
100941
100933
100912
100900
100777
100589
100589
100587
100587
100587
100588
100589
100589
100588
100588
100588
100588
100590
100592
100596
100601
100607
100615
100627
100645
100674
100718
100837
101104
100044
100337
100496
100502
100496
100548
100627
100708
100792
100890
101003
101126
101169
101230
101267
101197
101108
101047
101000
100957
100926
100914
100922
100942
100959
100965
100949
100931
100793
100589
100588
100587
100587
100587
100588
100589
100589
100588
100588
100588
100588
100590
100592
100596
100601
100607
100615
100627
100645
100673
100716
100834
101032
100012
100383
100480
100482
100493
100553
100634
100713
100795
100882
101015
101139
101117
101090
101240
101180
101098
101047
101006
100967
100936
100924
100930
100946
100959
100962
100945
100924
100795
100581
100581
100580
100579
100579
100579
100579
100579
100578
100576
100575
100575
100575
100576
100577
100580
100583
100587
100593
100600
100607
100603
100572
100527
100180
100212
100507
100569
100504
100471
100510
100576
100644
100723
100823
100940
101077
101101
101153
101312
101236
101145
101089
101049
101010
100973
100948
100942
100954
100972
100991
100985
100982
100811
100581
100581
100579
100579
100579
100579
100579
100579
100578
100576
100575
100575
100575
100576
100577
100580
100583
100587
100593
100600
100606
100601
100563
100487
100200
100263
100525
100567
100499
100474
100518
100587
100652
100716
100767
100943
100948
101168
101115
101115
101120
101095
101068
101041
101012
100979
100955
100947
100956
100971
100986
100976
100965
100813
100573
100573
100572
100570
100570
100570
100570
100569
100567
100565
100563
100561
100559
100558
100558
100557
100557
100556
100555
100553
100547
100531
100501
100426
100345
100339
100458
100488
100460
100459
100492
100532
100569
100629
100784
100952
100936
101134
101380
101160
101117
101108
101081
101059
101039
101011
100982
100964
100963
100976
101002
101005
101042
100851
100573
100573
100572
100571
100570
100570
100570
100569
100567
100565
100563
100561
100559
100558
100558
100557
100557
100556
100555
100553
100547
100530
100498
100420
100326
100332
100445
100473
100450
100458
100500
100546
100579
100610
100651
100876
100695
100971
101424
100460
100910
101074
101073
101051
101034
101015
100990
100972
100970
100980
101001
101000
101016
100831
100566
100566
100564
100562
100562
100561
100560
100559
100556
100553
100550
100547
100544
100541
100537
100534
100530
100525
100518
100509
100497
100476
100443
100390
100325
100297
100324
100360
100388
100423
100458
100476
100473
100483
100579
100813
101838
100750
99825.1
100339
100907
101102
101092
101071
101059
101043
101022
100999
100984
100985
101001
100994
101031
100797
100566
100565
100564
100563
100562
100561
100560
100559
100556
100553
100550
100547
100544
100541
100538
100534
100530
100525
100518
100509
100496
100475
100440
100385
100320
100299
100328
100360
100384
100418
100459
100487
100498
100424
100545
100857
101363
98733.3
99261.9
99004.3
99955
100926
101079
101063
101046
101037
101024
101007
100995
100995
101005
100991
101022
100827
100559
100558
100556
100555
100554
100553
100551
100549
100546
100542
100537
100533
100528
100523
100517
100511
100503
100493
100482
100467
100447
100419
100381
100332
100281
100252
100257
100285
100318
100353
100379
100386
100284
100364
100390
99168.3
97855.4
97059.3
97683
98821.4
99965.2
100935
101112
101093
101074
101066
101058
101041
101026
101029
101041
101025
100994
100677
100559
100558
100556
100555
100554
100553
100551
100549
100546
100542
100537
100533
100528
100523
100517
100511
100503
100493
100481
100466
100446
100418
100379
100330
100282
100256
100263
100290
100317
100348
100379
100401
100423
100462
100361
99790.8
100574
97532.4
97769.3
98382.4
99324.2
100473
101049
101096
101079
101058
101050
101043
101038
101041
101038
100994
100988
100751
100552
100551
100549
100547
100546
100544
100542
100539
100535
100531
100525
100519
100513
100505
100497
100487
100476
100462
100445
100425
100398
100365
100325
100281
100238
100210
100202
100209
100222
100243
100259
100295
100032
100232
100378
99129.9
96233.9
96339.5
97800.2
98947.1
99914.5
100996
101164
101132
101101
101094
101092
101077
101066
101091
101144
101171
101152
101082
100552
100551
100549
100547
100546
100545
100542
100539
100535
100530
100525
100519
100513
100505
100497
100487
100476
100462
100445
100424
100398
100365
100324
100280
100239
100211
100204
100211
100220
100234
100251
100317
100319
100381
100385
97077.2
97035.2
96647.6
97960.8
98979.5
99904.8
100822
101129
101139
101118
101093
101079
101071
101075
101104
101132
101146
101056
100726
100545
100545
100543
100540
100539
100537
100534
100530
100526
100520
100513
100506
100498
100489
100478
100465
100450
100432
100410
100384
100353
100317
100275
100230
100186
100149
100122
100105
100093
100099
100130
100359
100135
99103.4
98284.3
96325.3
95609.1
96847.5
98586.3
99838.8
100556
101178
101232
101167
101126
101120
101113
101086
101064
101084
101150
101215
101342
101368
100545
100545
100543
100540
100539
100537
100534
100531
100526
100520
100513
100506
100498
100488
100478
100465
100450
100432
100410
100384
100353
100316
100274
100229
100186
100150
100123
100104
100087
100073
100049
100112
100392
99458.8
93785.8
93207.5
95238.9
96812.1
98666.2
99951.2
100671
101055
101131
101148
101131
101123
101103
101081
101074
101107
101181
101261
101247
101186
100539
100539
100536
100534
100532
100529
100526
100522
100517
100510
100502
100494
100484
100472
100459
100444
100425
100403
100378
100347
100312
100271
100225
100175
100123
100072
100023
99976.2
99931.1
99910.6
99997.8
100195
100362
98973.7
94713.4
94303.1
95864.9
97753.3
99449.9
100423
100791
100951
101179
101192
101168
101163
101143
101107
101064
101017
101009
101028
101137
101043
100539
100539
100536
100534
100532
100530
100526
100522
100517
100510
100502
100494
100484
100472
100459
100443
100425
100403
100377
100347
100311
100270
100224
100175
100123
100073
100024
99975.7
99922.3
99877.9
99801
99999
100106
98379.9
94003.9
94344.7
95996.9
97884.5
99568.8
100527
100866
100958
101068
101149
101155
101161
101141
101107
101069
101034
101056
101122
101235
101259
100534
100533
100531
100528
100526
100523
100519
100515
100508
100501
100492
100482
100471
100458
100442
100424
100402
100377
100347
100313
100273
100227
100175
100118
100055
99987.7
99914
99825.5
99732.5
99550
99768.7
100255
99994.5
87243.4
89694.7
94091.6
96805.7
98826.1
100017
100427
100577
100776
100994
101180
101210
101230
101213
101180
101123
101023
100979
100919
100920
101080
100534
100533
100531
100528
100526
100523
100519
100515
100508
100501
100492
100482
100471
100457
100442
100424
100402
100377
100347
100312
100272
100227
100175
100118
100056
99988
99913.9
99829
99727.6
99594
99506.3
99528.3
96658.4
93845.2
93831.4
95237.7
97232.4
99052.3
100124
100459
100598
100806
100991
101124
101191
101222
101213
101181
101124
101013
100959
100914
100850
100703
100529
100528
100526
100523
100520
100517
100513
100508
100501
100493
100483
100472
100459
100444
100427
100406
100382
100353
100320
100282
100237
100186
100128
100063
99988
99902.2
99802.6
99675.9
99514.1
99220.9
98791.8
100136
96833
90383.8
93557.4
96832.8
99227.4
100486
100605
100300
100307
100574
100865
101117
101251
101302
101305
101276
101221
101126
101018
100750
100497
100820
100529
100528
100526
100523
100520
100517
100513
100508
100501
100493
100483
100472
100459
100444
100426
100406
100381
100353
100320
100281
100237
100186
100128
100063
99987.7
99902.2
99801.9
99685.4
99524.2
99295.5
99021.8
98747.5
95154.5
91989.5
94807.5
97414.3
99556.6
100682
100669
100272
100289
100610
100885
101073
101217
101292
101302
101285
101223
101104
100989
100672
100356
100766
100525
100524
100522
100519
100515
100512
100508
100502
100495
100486
100475
100463
100449
100432
100413
100390
100364
100333
100296
100254
100206
100150
100086
100012
99925
99822.6
99698.4
99543.6
99335.6
99044
98528.9
98331.9
100551
101463
100128
100947
102140
102159
101128
100109
99991
100367
100790
101119
101293
101374
101418
101388
101377
101277
100876
100148
99820.8
100656
100525
100524
100522
100519
100516
100512
100508
100502
100495
100486
100475
100463
100449
100432
100413
100390
100364
100332
100296
100254
100206
100150
100086
100011
99924.3
99821.2
99692
99546.4
99361.8
99126.1
98837.5
98210.4
97258.3
97490.8
99173.2
101053
102409
102314
101151
100062
99960.8
100393
100803
101087
101264
101364
101409
101396
101381
101293
100943
100061
99714.1
100529
100522
100521
100518
100515
100512
100508
100503
100497
100490
100480
100469
100456
100440
100423
100402
100377
100349
100316
100277
100232
100180
100120
100050
99967.9
99871.1
99754.6
99613.3
99438.3
99204.8
98904.9
98430.1
97834.7
98154.6
99971.5
100268
101352
102623
102520
101243
99880.1
99731.1
100255
100826
101178
101340
101450
101576
101602
101665
101504
101014
100239
99350.3
100418
100521
100521
100518
100515
100512
100508
100504
100497
100490
100480
100469
100455
100440
100423
100402
100377
100349
100315
100276
100231
100179
100119
100050
99967.5
99870.3
99749.2
99611.2
99438.7
99209.7
98929.1
98658.1
97541.2
97102.6
98584.7
100137
101820
102871
102545
101262
99918.5
99702.7
100251
100832
101184
101343
101437
101546
101577
101689
101648
101337
100379
99136.5
100329
100519
100518
100516
100512
100509
100505
100500
100494
100485
100475
100463
100450
100434
100415
100393
100367
100337
100302
100261
100214
100159
100095
100021
99933.8
99830
99705.3
99554.2
99363.5
99117.7
98800.4
98408.4
97789.3
97361.8
98036.5
97975.5
99569.8
101119
101657
101175
100245
100002
100468
100985
101325
101450
101564
101693
101728
101792
101639
101608
101177
99118.6
100298
100519
100518
100516
100512
100509
100505
100500
100494
100485
100475
100463
100450
100434
100415
100393
100367
100337
100302
100261
100214
100159
100095
100021
99933.5
99829.9
99704.6
99560.1
99368.4
99112.5
98796.7
98375
97730.7
97387.1
98082.3
99212.5
100326
100664
101078
100932
100345
100065
100432
100964
101338
101474
101546
101657
101708
101830
101781
101951
101604
99145.1
100131
100518
100517
100514
100511
100507
100503
100498
100491
100483
100472
100460
100446
100429
100410
100387
100361
100329
100293
100251
100202
100145
100079
100002
99910.6
99802.2
99671.7
99512.7
99314.9
99065
98748
98369.6
97860.3
97351.6
96732
95944.9
96342.5
95834.6
96132.8
96879.4
98532.5
99701.4
100662
101152
101450
101611
101712
101772
101763
101810
101852
102376
102368
99393.3
99529.7
100518
100517
100514
100511
100507
100503
100498
100491
100483
100472
100460
100446
100429
100410
100387
100360
100329
100293
100251
100202
100145
100079
100002
99910.6
99802.3
99672.2
99515
99321.6
99067.8
98740.6
98387.2
97876.9
97360.9
97218.1
96855.1
96075.7
95139.6
95548.4
96520.9
98321.8
99778.4
100666
101145
101443
101603
101708
101758
101770
101816
101887
102540
102755
99735.5
99516.8
100516
100515
100513
100510
100506
100502
100497
100490
100481
100470
100458
100444
100427
100407
100384
100357
100325
100288
100245
100195
100137
100070
99991.5
99898.5
99787.6
99654.1
99491.4
99290.6
99040.2
98727.6
98344.2
97849.8
97221
96588.2
95950.4
94713.7
92673
92105.9
93216.2
95799
98350.8
99985.7
100812
101220
101509
101687
101747
101753
101760
101885
102089
101548
99574.1
99015.3
100516
100515
100513
100510
100506
100502
100497
100490
100481
100470
100458
100444
100427
100407
100384
100356
100325
100288
100245
100195
100137
100070
99991.5
99898.5
99787.7
99654.5
99492.5
99293.3
99043
98731.9
98365.2
97912.9
97387.9
96656.1
95391.5
93812.9
92635.8
92262.7
93271.7
95636.3
98242.5
99988.5
100806
101202
101473
101671
101746
101755
101784
101893
102123
101643
99735
99059.4
100491
100835
100168
101265
101223
100180
100084
100258
100090
99949.8
100143
100824
100259
101245
101199
100288
100096
100180
99953.5
99984.8
101077
100583
100399
100534
100181
100216
100010
100380
99993.8
100140
99930
101085
100517
100123
100503
100095
99979.6
100016
100093
99984.3
100056
100151
100629
100703
100613
100759
100641
100742
100609
100459
100506
100436
100445
100350
100421
100347
100598
100688
100586
100732
100575
100725
100549
100430
100480
100440
100335
100303
100280
100274
100925
100853
100917
100903
101062
100903
101064
100200
100400
100346
100356
100206
100149
100087
100249
99960
100036
99928
100051
100907
100841
100901
100901
101051
100889
101044
99706.9
100230
100095
100124
99962.6
100336
100245
100366
99974.1
100143
100046
100220
100909
100835
100927
100692
100662
100690
100656
100275
101114
100760
100760
100348
100171
100254
100103
99981.3
100112
100032
100148
100011
100167
100924
100829
100920
100684
100644
100686
100648
100343
101051
100822
100325
100794
99994.2
99989.5
100186
100075
100253
100073
100230
100154
100294
100392
100512
100361
100474
100372
100474
100373
99916.6
100169
99998
100259
100217
100265
100254
100350
100481
100350
100471
100377
100471
100380
100118
100215
100173
100277
100264
100279
100256
100708
100660
100456
100647
100770
100706
100405
100563
100615
100693
101103
101195
101272
101198
101122
100873
100925
101122
101157
101268
101194
101064
100902
100842
100135
100322
100316
100341
100036
100160
100125
100151
100028
100049
100014
100116
100130
99990.7
100145
99989
99972.4
99982.5
100041
100521
100549
100280
100585
100827
100630
100281
100565
100567
100608
101104
101086
101212
100904
101195
101084
100521
101004
101203
101224
101156
101100
100736
100919
99737.7
100087
100122
100092
99831.1
99737.7
99909.8
99920
100026
99985.5
100054
100051
99751.7
99807.4
99911.4
99971.7
99997.7
100016
99948.4
100005
100087
100266
101114
100788
100762
100316
99995.8
100027
100157
100463
100349
100448
100219
100116
100272
100325
100039
100404
100224
100162
100218
100142
100328
100067
99963.1
100131
100066
99986.6
100038
99997.7
100182
100290
100325
100245
100285
100097
100235
100122
100040
100175
100022
100043
100262
101078
100756
100761
100194
99974.4
99917.7
99918.7
100263
100070
100000
100217
99926.1
100124
100247
100256
99963.9
99973.5
99989.7
99958.6
99996.3
99958.3
99874.4
100169
99976.9
100017
99995.5
99991.9
100079
100036
100112
100029
100042
100107
99960.1
100086
100122
100076
100079
100919
100784
100853
101004
100773
101001
100930
100915
100758
100815
100953
100729
100938
100954
100914
100842
100743
100977
100756
100993
100910
100265
100349
100187
100052
100311
100053
100256
100230
100207
100320
100074
100297
100046
100187
100879
100832
100741
101004
100746
100987
100851
100072
100305
100223
100170
100185
100203
100136
100041
100169
100149
100042
100120
100073
100038
100530
100627
100569
100574
100616
100565
100549
100485
100605
100561
100480
100607
100455
100535
100118
100102
100099
99938.3
100013
100042
100212
99988.8
99915.1
99909.3
99997.9
99924.9
99952.3
99985.7
100437
100607
100442
100498
100453
100567
100413
100392
100564
100502
100421
100560
100421
100397
99983.8
99925
100049
100078
99961.4
99955
100108
99983.1
100037
100117
100198
100000
100112
100033
100229
100301
100081
100226
100312
100202
100133
100148
100223
100171
100195
100113
99993.8
100096
100067
100244
100213
100327
100154
100332
100163
100260
99765.1
99915.4
99805.3
99383.5
100030
99657.8
99467.9
99423.8
99273.8
99260.4
99396.8
99840.5
99907.4
100221
99527.5
99841.2
100162
99499.8
99515.4
99596.1
99595.2
99488.8
100706
100427
100550
100312
100447
100689
100578
100904
101239
101237
100922
100899
101221
101224
100881
100715
100317
100476
100567
100462
100587
100711
100229
100270
100948
100410
100417
100683
100601
100736
100733
100872
101179
100680
100929
100941
101308
100888
100675
100968
100400
100622
100594
100826
100602
100740
99951.2
99976.8
100331
100653
100271
100731
100682
100267
100320
100275
100265
100240
100278
100234
100038
100159
100147
100338
100735
100680
100354
100685
100329
100377
100150
100632
100233
100696
100211
100612
100189
100030
99970
99740.5
100556
99991.9
99995
100094
99905.2
100256
100700
100674
99604.4
100629
100272
100663
101343
101159
101330
101101
101156
101329
101337
101398
101351
101358
101378
101393
101349
101350
101385
101347
101112
101161
101330
101160
101334
101324
100884
100895
101332
101163
101153
101345
101159
101345
101324
101340
101323
101281
101293
101318
101168
101164
101343
101152
101322
101271
101367
101377
101401
101337
100939
100957
100119
100250
100023
100090
100168
100214
99962.3
99835.6
99486.3
99471.1
99663.5
99986.7
99959
100045
99892.7
100082
100017
100237
99806.6
99997.9
100168
99902.3
100152
100119
100035
100142
100043
100127
100140
100008
100046
100032
100154
100145
100053
100025
100108
100024
100126
100031
100110
100125
99996.2
100134
99997.9
100048
100086
100026
100042
100128
100121
100040
100129
100026
100056
99994.4
99999.1
100013
100010
100052
100083
100099
100039
100111
100058
100069
99991.1
100056
99989.6
100028
100129
100499
100465
99746.8
100557
100114
99737.8
99862.2
99628.5
99599.2
100109
100097
100742
100754
100635
100656
100407
100173
100048
99831
99844.5
100040
100002
100533
100091
100584
100038
100535
100012
99767.2
99604.4
99553.2
99830.4
99811.4
99685.9
99910.7
99563.5
100016
100477
100552
100005
100521
99891.4
100123
101468
101189
101223
101438
101104
101179
101386
102666
101233
100866
101062
101242
101119
101201
101874
101052
101185
101081
101589
101722
100919
101540
101181
100960
101672
101125
101552
101063
101120
101254
101407
101450
101308
101400
101349
101409
101451
101433
101404
101643
101149
101065
101524
100959
101517
101184
100985
101017
99827.6
99954.3
99386.5
99808.1
99702.3
100081
99470.9
99483.4
99517.3
99450.6
99587.7
99469.6
99506.4
99470.6
99417.2
99831.5
99839.4
100027
99512.6
100075
99514.2
99822.1
99807
99868
100046
99943.7
100032
99947
100069
99990.6
100006
100060
99988.3
100026
100011
100090
100001
100110
100051
100075
100116
100029
100053
100028
100031
100025
99780.9
99821.8
99933.6
99993.5
99917.9
99908.8
99974.1
99975.9
99903.5
99955.6
100009
100006
99965.6
99976.4
100022
100010
100011
99915.3
99919.8
99985
99945.3
99969.8
99920.4