/*--------------------------------*- C++ -*----------------------------------*\
| =========                 |                                                 |
| \\      /  F ield         | OpenFOAM: The Open Source CFD Toolbox           |
|  \\    /   O peration     | Version:  4.1                                   |
|   \\  /    A nd           | Web:      www.OpenFOAM.org                      |
|    \\/     M anipulation  |                                                 |
\*---------------------------------------------------------------------------*/
FoamFile
{
    version     2.0;
    format      ascii;
    class       surfaceScalarField;
    location    "45";
    object      phi;
}
// * * * * * * * * * * * * * * * * * * * * * * * * * * * * * * * * * * * * * //

dimensions      [0 3 -1 0 0 0 0];

internalField   nonuniform List<scalar> 
11516
(
9.98733e+06
331.214
9824.11
9.96871e+06
186.448
21305.1
9.93985e+06
336.705
31435.9
9.90152e+06
356.506
41098.7
9.85397e+06
449.014
50705.1
9.79725e+06
620.09
60348.3
9.73117e+06
762.456
70126.4
9.65521e+06
814.836
80159.3
9.56863e+06
769.328
90595.6
9.47039e+06
631.03
101768
9.35993e+06
479.347
113483
9.23788e+06
382.735
124970
9.10654e+06
411.881
135186
8.97229e+06
505.641
140586
8.84879e+06
-137.483
134543
8.75036e+06
-1077.63
113216
8.70121e+06
1084.2
61984.9
8.70339e+06
1304.26
6731.73
8.71416e+06
1024.62
-5010.91
8.68468e+06
1990.59
32047
8.61728e+06
-897.467
71489.4
8.50971e+06
-4316.03
114777
8.36832e+06
-7436.84
152165
8.19971e+06
-10273.6
182971
8.00576e+06
-12655.1
211238
7.80968e+06
-14524.7
216164
7.62808e+06
-11950.1
201307
7.47107e+06
-5979.37
173228
7.34216e+06
-3577.64
145230
7.24486e+06
-6670.73
118521
7.1792e+06
-11177.4
94158.2
7.13634e+06
-18299
79003.6
7.13167e+06
-18765.3
42015.1
7.19134e+06
-338.407
-37468.3
7.35591e+06
21591.8
-140435
7.56625e+06
23558.4
-181986
7.71451e+06
35014.6
-117235
7.8397e+06
35589.2
-61465.4
7.92968e+06
20954.4
-23323.4
8.02406e+06
3716.81
154.046
8.12531e+06
1279.26
-16506.4
8.23631e+06
15927.5
-53765.9
8.32279e+06
28432.2
-70359.6
8.40402e+06
45030.3
-88304.7
8.47143e+06
28949.7
-96191.6
8.57555e+06
-1544.02
-174282
8.60905e+06
11287.5
-147915
8.6659e+06
3879.61
-199417
8.79764e+06
45892.6
-323007
8.99424e+06
-18249
-419072
9.29216e+06
48310.5
-445714
9.67449e+06
-44475.2
-725671
1.08352e+07
44258.7
-1.17432e+06
20496.3
-1.41316e+06
9.98786e+06
9821.38
9.96869e+06
21305.6
9.93958e+06
31420.9
9.90107e+06
41046.7
9.85344e+06
50626.6
9.79677e+06
60287.8
9.73078e+06
70118.7
9.65487e+06
80256.3
9.5682e+06
90846.7
9.46977e+06
102167
9.35903e+06
114062
9.23673e+06
125614
9.10493e+06
135972
8.96938e+06
141556
8.84004e+06
136890
8.73786e+06
110280
8.69111e+06
55707.7
8.69981e+06
-2131.26
8.71629e+06
-11851.2
8.68974e+06
30978
8.62309e+06
68214
8.51793e+06
103518
8.37806e+06
135340
8.20784e+06
163099
8.00773e+06
191046
7.80278e+06
195210
7.6116e+06
185533
7.44163e+06
172080
7.30097e+06
147083
7.20985e+06
97701.4
7.17586e+06
37792.6
7.17951e+06
-4624.27
7.20723e+06
-26363
7.2734e+06
-44658.4
7.4095e+06
-85619.8
7.58581e+06
-103395
7.73797e+06
-53416.9
7.87828e+06
-31434.1
8.00076e+06
-17079.5
8.10784e+06
-33122.4
8.18062e+06
-16623.3
8.26358e+06
-25232.3
8.36526e+06
-28759.5
8.46049e+06
-45435.2
8.5138e+06
-32108.1
8.57304e+06
-103826
8.60953e+06
-99133.6
8.66336e+06
-122587
8.7236e+06
-214788
9.05686e+06
-307686
9.21371e+06
-437367
9.80221e+06
-658417
1.08676e+07
-1.08282e+06
-1.24779e+06
1.00069e+07
332.741
5610.48
1.00149e+07
137.552
15961.1
1.00229e+07
288.537
25848.6
1.00308e+07
328.075
35787.4
1.00386e+07
451.615
46007.9
1.00462e+07
660.803
56563.1
1.00533e+07
856.277
67554
1.00597e+07
983.454
78878.8
1.00645e+07
1024.27
91271
1.00676e+07
989.946
104123
1.00685e+07
908.267
117897
1.00662e+07
837.034
132249
1.0059e+07
906.653
147141
1.00434e+07
1003.46
161038
1.00053e+07
2592.31
176031
9.92989e+06
3338.93
190408
9.79853e+06
3481.21
194752
9.59348e+06
2346.02
211769
9.36557e+06
-794.609
225194
9.16378e+06
-1442.11
236929
8.98638e+06
286.988
250594
8.8315e+06
1894.98
269761
8.68687e+06
3346.73
295358
8.5418e+06
4949.45
324826
8.39764e+06
6168.7
351103
8.24957e+06
7685.72
359182
8.09297e+06
9446.26
352495
7.90891e+06
13076.1
349952
7.70236e+06
19805.7
338256
7.49535e+06
23063.9
309081
7.30996e+06
23882.9
261929
7.1876e+06
26299.2
180029
7.15961e+06
23305.8
51473
7.22939e+06
17676.7
-115978
7.3942e+06
9504.97
-294620
7.53322e+06
6937.36
-276816
7.64337e+06
-6595.04
-141309
7.7432e+06
-11513.7
-65062.5
7.81107e+06
-15886.2
2557.06
7.90774e+06
-36014.7
-18097.6
7.99797e+06
-32485.8
-41880.7
8.05012e+06
-44948.4
-24996.3
8.09426e+06
-50515.3
-20988.5
8.13257e+06
-51936.3
-54719.9
8.17381e+06
-58129.3
-83721.2
8.19548e+06
-69375.1
-171395
8.21999e+06
-74312.7
-188659
8.29422e+06
-79340.6
-283533
8.34336e+06
-100283
-411781
8.48618e+06
-127647
-615991
8.43263e+06
-67288.8
-466046
8.62738e+06
118229
-1.17416e+06
1.00263e+07
194142
-2.88275e+06
-23022.6
-3.26007e+06
1.00075e+07
5605.34
1.00148e+07
15949.8
1.00226e+07
25832.1
1.00303e+07
35760.6
1.0038e+07
45967.5
1.00456e+07
56511.3
1.00528e+07
67501.5
1.00594e+07
78845.4
1.00644e+07
91298.8
1.00678e+07
104235
1.00689e+07
118137
1.00667e+07
132636
1.00601e+07
147515
1.00453e+07
161525
1.00151e+07
174304
9.94748e+06
184683
9.80998e+06
199351
9.59995e+06
211385
9.36626e+06
222096
9.16458e+06
232496
8.99061e+06
243907
8.83731e+06
260161
8.69577e+06
281646
8.55548e+06
309734
8.41938e+06
334917
8.2818e+06
343038
8.13409e+06
346826
7.96906e+06
355754
7.79681e+06
346421
7.62248e+06
304030
7.43829e+06
253549
7.28701e+06
178588
7.22875e+06
61313.6
7.28986e+06
-77299.4
7.43484e+06
-197081
7.61587e+06
-226621
7.76963e+06
-153141
7.8865e+06
-86568
7.9634e+06
-54318.9
8.05958e+06
-114634
8.13802e+06
-96550
8.2036e+06
-96673.7
8.2513e+06
-95768.6
8.30322e+06
-116995
8.35437e+06
-145808
8.38951e+06
-256315
8.45658e+06
-295125
8.51266e+06
-347027
8.54791e+06
-445399
8.6775e+06
-687476
8.62819e+06
-501095
9.07674e+06
-1.04947e+06
1.02991e+07
-2.15793e+06
-3.11615e+06
9.99951e+06
327.958
7221.46
9.99577e+06
127.026
22177.1
9.98744e+06
274.85
36515
9.97496e+06
312.242
50800.1
9.9586e+06
440.887
65371.6
9.93856e+06
670.815
80266.4
9.91516e+06
902.546
95422.2
9.88773e+06
1076
111530
9.85687e+06
1164.02
127879
9.82163e+06
1164.9
145340
9.78228e+06
1084.43
163154
9.73839e+06
982.478
181732
9.68937e+06
829.933
201172
9.63309e+06
914.655
221464
9.57042e+06
686.346
241461
9.49459e+06
2068.95
266387
9.39924e+06
1989.3
289604
9.3036e+06
2155.55
306248
9.20212e+06
196.016
327742
9.0866e+06
480.812
353788
8.95988e+06
1006.46
378343
8.8306e+06
1730.92
399336
8.70101e+06
2950.17
423928
8.56895e+06
5252.3
453430
8.43166e+06
6717.61
483649
8.28481e+06
9432.39
499788
8.11411e+06
14486.4
513944
7.89574e+06
20586.8
554705
7.62925e+06
24277.9
588441
7.33567e+06
18746.1
591453
7.05118e+06
12755.1
539498
6.83506e+06
20961.8
379172
6.71943e+06
45192
126547
6.75071e+06
69127.2
-207964
6.96147e+06
52609.9
-541575
7.14478e+06
-8523.02
-421881
7.21234e+06
-75805.8
-86593.8
7.24997e+06
-99986.3
52249.4
7.22693e+06
-111922
169129
7.29391e+06
-71999.1
11095.2
7.34683e+06
-45116.5
-37149.5
7.35601e+06
-62824.7
55002.2
7.39347e+06
-85387.1
71647.3
7.47246e+06
-84439.3
-900.123
7.554e+06
-74794.5
-82940.3
7.54708e+06
-48411.1
-153665
7.60063e+06
-40098.3
-261316
7.68422e+06
-63156
-395683
7.89723e+06
-98998.2
-605678
8.31591e+06
-95775.6
-992246
9.08519e+06
-92127.6
-1.16052e+06
9.36148e+06
-61589
-1.41006e+06
7.8095e+06
452633
-1.80006e+06
250309
-3.25604e+06
1e+07
7218.62
9.99573e+06
22175.8
9.98716e+06
36502.2
9.97449e+06
50775.8
9.95803e+06
65339.9
9.93807e+06
80233.2
9.91485e+06
95395.7
9.8876e+06
111520
9.85687e+06
127899
9.82167e+06
145399
9.7823e+06
163256
9.73838e+06
181847
9.68923e+06
201284
9.63334e+06
221394
9.56853e+06
241605
9.49177e+06
264669
9.40257e+06
291287
9.30663e+06
310960
9.20368e+06
326395
9.08939e+06
348610
8.96489e+06
370967
8.83856e+06
389720
8.71244e+06
412187
8.58107e+06
447700
8.44546e+06
478941
8.30302e+06
497832
8.14102e+06
527935
7.94419e+06
579630
7.70155e+06
621519
7.4045e+06
627725
7.10139e+06
574413
6.88502e+06
419870
6.81011e+06
186150
6.89092e+06
-82917.6
7.115e+06
-351469
7.2993e+06
-389311
7.41325e+06
-302354
7.48818e+06
-226515
7.52377e+06
-160679
7.61203e+06
-241061
7.67238e+06
-181223
7.67267e+06
-121131
7.68416e+06
-129594
7.71942e+06
-200233
7.76493e+06
-266027
7.78237e+06
-340502
7.82871e+06
-425896
7.9048e+06
-535457
8.05798e+06
-755479
8.39034e+06
-1.13451e+06
9.05555e+06
-1.24164e+06
9.33385e+06
-1.47113e+06
8.71982e+06
-1.11021e+06
-2.85521e+06
9.99915e+06
323.924
9256.83
9.99557e+06
129.31
28231.8
9.98764e+06
270.372
46735.9
9.97559e+06
300.249
65300.3
9.95948e+06
419.119
84361.5
9.93951e+06
638.673
103778
9.91495e+06
862.662
124310
9.8861e+06
1032.15
145455
9.85227e+06
1120.72
167302
9.81308e+06
1120.37
190294
9.76775e+06
1037.91
214070
9.71544e+06
897.694
239053
9.65565e+06
704.002
265101
9.58746e+06
521.464
292167
9.50901e+06
263.705
321338
9.42224e+06
1023.15
352852
9.32154e+06
998.864
392032
9.2134e+06
1082.54
417199
9.11428e+06
51.8381
429050
9.01924e+06
700.069
450424
8.91866e+06
1249.08
480053
8.81035e+06
1310.24
508680
8.68812e+06
1381.42
546915
8.55221e+06
2317.73
588984
8.40235e+06
2429.03
633085
8.23181e+06
3813.09
669650
8.01986e+06
7944.41
722553
7.73832e+06
10094.7
831909
7.37248e+06
7376.81
953565
6.96386e+06
5939.82
999584
6.61161e+06
7337.12
887516
6.36871e+06
12930
610777
6.25374e+06
27321.1
214715
6.3202e+06
49847.4
-323607
6.54368e+06
38340
-802522
6.68795e+06
-74911
-486566
6.65038e+06
-201614
166505
6.5967e+06
-270767
397466
6.50647e+06
-245016
517144
6.57642e+06
-140115
98562.3
6.60125e+06
-54457.3
-1172.84
6.59526e+06
-79985
166252
6.6375e+06
-68738.5
185159
6.71148e+06
-52111.8
44678.9
6.78515e+06
-36399
-72264
6.76324e+06
-36171
-83167.8
6.75768e+06
-55609.4
-216610
6.72063e+06
-47518.7
-361624
6.77558e+06
-60858.6
-661020
6.82733e+06
-19197.1
-1.08964e+06
7.02352e+06
-6766.34
-1.28587e+06
6.70147e+06
14531.2
-1.14852e+06
5.00103e+06
649904
-924769
817654
-1.79119e+06
9.99966e+06
9255.66
9.99552e+06
28231.6
9.98735e+06
46724.3
9.97511e+06
65287.4
9.95891e+06
84359.4
9.93901e+06
103788
9.91463e+06
124329
9.88598e+06
145475
9.85228e+06
167317
9.81314e+06
190295
9.76775e+06
214053
9.71532e+06
239007
9.65523e+06
265018
9.58697e+06
292008
9.50843e+06
321176
9.42246e+06
352219
9.3268e+06
391637
9.2183e+06
423608
9.11724e+06
429440
9.02235e+06
446177
8.92215e+06
474353
8.81274e+06
502606
8.68897e+06
539001
8.55341e+06
586970
8.40582e+06
630556
8.23417e+06
675692
8.01751e+06
755671
7.73477e+06
876268
7.37493e+06
992850
6.97623e+06
1.03563e+06
6.63949e+06
920302
6.40846e+06
664814
6.29031e+06
331667
6.36182e+06
-103424
6.65588e+06
-602935
6.87684e+06
-670893
6.98485e+06
-594513
6.97476e+06
-468477
6.91269e+06
-314666
6.92056e+06
-362480
6.89853e+06
-202714
6.84923e+06
-113424
6.8725e+06
-140596
6.92541e+06
-243675
6.97253e+06
-321276
6.97448e+06
-376791
6.98249e+06
-509746
7.0041e+06
-653723
6.92893e+06
-797061
6.8979e+06
-1.07896e+06
7.04001e+06
-1.45112e+06
6.88098e+06
-1.29778e+06
7.0801e+06
-743882
-1.83391e+06
9.99919e+06
322.616
11232
9.99572e+06
131.306
34185.5
9.98801e+06
273.732
56749.1
9.97626e+06
301.782
79523.6
9.96058e+06
416.447
102957
9.94102e+06
630.993
126902
9.91751e+06
850.379
152142
9.88997e+06
1015.59
177993
9.85752e+06
1099.35
205141
9.81976e+06
1092.47
233461
9.77607e+06
1002.8
262802
9.72586e+06
853.539
293641
9.66878e+06
644.087
325553
9.60362e+06
427.848
359555
9.5298e+06
211.204
396319
9.44839e+06
414.907
436284
9.36329e+06
1469.55
482850
9.25448e+06
2400.23
532306
9.12736e+06
1518.9
559195
9.01295e+06
469.612
569191
8.90483e+06
1870.01
590641
8.79218e+06
1989.7
623985
8.66091e+06
129.333
681371
8.50609e+06
-659.8
747059
8.32773e+06
-2986.7
816588
8.11059e+06
-3027.99
892256
7.84039e+06
879.852
994193
7.50668e+06
2782.13
1.16517e+06
7.11862e+06
286.875
1.34364e+06
6.72861e+06
616.653
1.39084e+06
6.397e+06
5779.56
1.21453e+06
6.13337e+06
16299.3
858903
5.94945e+06
33317.5
366706
5.88639e+06
70675.7
-330118
5.9837e+06
153761
-1.05227e+06
5.74419e+06
-65208.8
-175342
5.82699e+06
-162340
256424
5.93099e+06
-173647
479313
5.75925e+06
-224477
926925
5.75685e+06
-22276.9
131111
5.69764e+06
-12221.9
76299.2
5.68812e+06
-84518
296907
5.79935e+06
-9908.15
203763
5.88241e+06
44604.5
81560.8
5.91232e+06
47141.9
-30178.6
5.99067e+06
26872.4
-126091
5.97896e+06
33857.2
-269863
6.00261e+06
12930.7
-484761
5.89716e+06
16957
-675678
5.2581e+06
276476
-736111
4.41364e+06
301779
-849517
3.65808e+06
419085
-963711
2.4643e+06
625703
-401697
219472
-739255
9.99971e+06
11225.4
9.99567e+06
34187
9.98772e+06
56746.5
9.97578e+06
79526.1
9.96001e+06
102973
9.94053e+06
126931
9.9172e+06
152177
9.88984e+06
178023
9.85752e+06
205151
9.8198e+06
233437
9.77606e+06
262732
9.7257e+06
293521
9.66839e+06
325408
9.6029e+06
359404
9.52908e+06
396285
9.44813e+06
436391
9.36319e+06
482984
9.26086e+06
534931
9.14031e+06
557293
9.02383e+06
568721
8.91086e+06
593992
8.78888e+06
630539
8.65096e+06
680079
8.49587e+06
743136
8.31391e+06
811024
8.08966e+06
898136
7.82362e+06
1.02368e+06
7.50474e+06
1.19906e+06
7.13818e+06
1.36081e+06
6.76907e+06
1.40631e+06
6.45491e+06
1.241e+06
6.21985e+06
916589
6.09059e+06
495326
6.136e+06
-77118.3
6.43657e+06
-741364
6.72867e+06
-1.01634e+06
6.86117e+06
-884479
6.8596e+06
-637274
6.65331e+06
-326715
6.44304e+06
-163803
6.21597e+06
23308.4
6.10142e+06
-30595.8
6.18171e+06
-124055
6.27348e+06
-190273
6.32701e+06
-248531
6.32668e+06
-316192
6.28118e+06
-456496
6.15118e+06
-598898
5.85816e+06
-570025
5.57899e+06
-676505
5.24333e+06
-818422
5.02669e+06
-740378
4.91671e+06
-129378
-1.38501e+06
9.99923e+06
315.839
13145.5
9.99589e+06
136.4
40008.7
9.9885e+06
275.184
66473.2
9.97729e+06
305.874
93253
9.96248e+06
422.501
120738
9.94381e+06
634.309
149176
9.92149e+06
846.084
178772
9.89509e+06
997.953
209267
9.86411e+06
1062.17
241255
9.82811e+06
1030.78
274441
9.78611e+06
916.881
309285
9.73795e+06
753.785
345570
9.683e+06
561.169
383508
9.62095e+06
401.998
423985
9.55245e+06
275.763
467178
9.478e+06
642.281
514268
9.40409e+06
1213.3
563640
9.32322e+06
3832.78
622104
9.2168e+06
6113.27
672321
9.09156e+06
3334.76
705462
8.95679e+06
3276.6
735578
8.81374e+06
1138.62
777861
8.66465e+06
-2290.21
837759
8.50005e+06
-3686.67
918491
8.29837e+06
-7720.06
1.02811e+06
8.04132e+06
-7376.55
1.15778e+06
7.73208e+06
-1578.41
1.30583e+06
7.39501e+06
3927.02
1.49874e+06
7.03987e+06
4260.32
1.69489e+06
6.67637e+06
6327.6
1.74861e+06
6.31327e+06
13824.6
1.5648e+06
5.93809e+06
32032.6
1.20395e+06
5.50183e+06
72549.1
732862
4.87855e+06
251854
43216.2
2.80125e+06
1.01229e+06
19376.5
1.76637e+06
543582
318698
1.32797e+06
311290
414879
2.42152e+06
162200
-798046
2.96548e+06
9997.52
362975
3.73263e+06
198583
-829177
4.01662e+06
83930.8
-271635
4.24467e+06
101760
83608.1
4.42472e+06
194727
79614.5
4.54619e+06
217484
16354
4.61086e+06
219739
-84584
4.66702e+06
173346
-236098
4.50074e+06
178101
-307232
4.2357e+06
171674
-536505
4.03106e+06
175727
-836916
3.86668e+06
212049
-1.07032e+06
4.05285e+06
153040
-1.33894e+06
4.52346e+06
133959
-1.5673e+06
5.23652e+06
70278.1
-1.44993e+06
-236302
-2.36884e+06
9.99973e+06
13142.6
9.99584e+06
40007.4
9.98822e+06
66458.9
9.97683e+06
93242.6
9.96194e+06
120748
9.94334e+06
149207
9.92118e+06
178815
9.89495e+06
209307
9.86408e+06
241276
9.8281e+06
274425
9.78604e+06
309221
9.73774e+06
345454
9.6826e+06
383371
9.62039e+06
423841
9.55181e+06
467175
9.47815e+06
514192
9.40498e+06
564348
9.33482e+06
619555
9.2427e+06
668792
9.11868e+06
709382
8.9792e+06
747183
8.82766e+06
793000
8.66504e+06
846322
8.48473e+06
921800
8.27249e+06
1.01665e+06
8.01515e+06
1.14892e+06
7.72934e+06
1.30827e+06
7.41695e+06
1.51552e+06
7.07912e+06
1.70311e+06
6.73395e+06
1.75826e+06
6.406e+06
1.58338e+06
6.11008e+06
1.24599e+06
5.84629e+06
832926
5.71027e+06
318006
6.40185e+06
-404710
6.26855e+06
-336947
5.97015e+06
-283727
5.80936e+06
-321123
5.59968e+06
-102945
5.37207e+06
286682
5.09806e+06
416986
5.04946e+06
207718
5.14173e+06
97310.2
5.23539e+06
72369.3
5.28599e+06
30835.4
5.28858e+06
-97899.1
5.22804e+06
-250638
4.99421e+06
-305224
4.65285e+06
-246159
4.32018e+06
-252404
3.97474e+06
-430325
3.95231e+06
-743460
4.35738e+06
-503820
-1.72868e+06
9.99927e+06
312.754
14986.3
9.99618e+06
138.055
45557.6
9.98928e+06
282.12
75700.3
9.97878e+06
316.091
106271
9.96487e+06
430.616
137613
9.94728e+06
634.605
170347
9.92616e+06
833.903
204107
9.90109e+06
969.547
239053
9.87174e+06
1015.35
275493
9.83689e+06
966.484
313946
9.79674e+06
842.057
353552
9.75051e+06
683.244
395291
9.69784e+06
531.845
439133
9.63912e+06
432.785
485467
9.57491e+06
425.522
534657
9.50659e+06
742.893
587208
9.43501e+06
1285.75
642269
9.36568e+06
2763.84
701181
9.2906e+06
4146.35
760621
9.1963e+06
4137.66
817926
9.07785e+06
3864.47
875091
8.93026e+06
2647.84
946105
8.7578e+06
962.289
1.02032e+06
8.57456e+06
-6086.06
1.11201e+06
8.36405e+06
-12988.2
1.25354e+06
8.09972e+06
-13923.6
1.43782e+06
7.7846e+06
-1018.88
1.62212e+06
7.44985e+06
11686.7
1.82048e+06
7.10678e+06
10853.8
2.02591e+06
6.73378e+06
9671.83
2.11163e+06
6.32639e+06
22114.3
1.95081e+06
5.83778e+06
47290.8
1.64699e+06
5.02057e+06
132802
1.41908e+06
2.65929e+06
676434
1.73087e+06
-192843
974042
1.90639e+06
-247264
17391
356305
-239979
-1983.35
466389
-514948
35662.1
-328851
185259
232666
-363608
973435
35284.9
-1.55863e+06
1.77274e+06
90600.9
-1.09499e+06
1.96973e+06
492377
-429877
1.92504e+06
533294
-184750
2.05047e+06
460777
-292090
2.29902e+06
390164
-487003
2.60165e+06
339635
-728349
2.96347e+06
253239
-870533
3.44205e+06
111384
-1.19296e+06
3.93261e+06
45684.8
-1.50977e+06
4.40622e+06
48487.2
-1.77035e+06
4.84228e+06
63620.7
-1.94016e+06
5.06558e+06
77680.7
-2.12748e+06
5.53741e+06
212653
-2.18744e+06
159244
-2.86812e+06
9.99977e+06
14978.2
9.99614e+06
45556.4
9.98901e+06
75691.3
9.97833e+06
106265
9.96434e+06
137619
9.94681e+06
170365
9.92585e+06
204128
9.90094e+06
239067
9.87167e+06
275489
9.83684e+06
313915
9.79664e+06
353491
9.75028e+06
395207
9.69747e+06
439049
9.63865e+06
485398
9.57445e+06
534667
9.50647e+06
587107
9.43605e+06
642347
9.36719e+06
700259
9.29307e+06
759244
9.20298e+06
818143
9.09084e+06
880173
8.95105e+06
951379
8.77215e+06
1.03749e+06
8.56863e+06
1.12188e+06
8.33594e+06
1.23834e+06
8.06289e+06
1.40869e+06
7.77386e+06
1.59589e+06
7.47716e+06
1.82312e+06
7.16108e+06
2.02911e+06
6.81543e+06
2.11301e+06
6.44966e+06
1.97156e+06
6.08092e+06
1.66264e+06
5.68239e+06
1.36641e+06
5.29566e+06
1.3912e+06
3.59645e+06
2.27356e+06
1.75336e+06
1.52357e+06
415538
1.07658e+06
-52228.8
239064
308898
-162558
1.07374e+06
-396516
1.85913e+06
-229132
2.11219e+06
492029
2.37659e+06
452736
2.68956e+06
337233
3.01866e+06
212524
3.28654e+06
80120.9
3.35068e+06
-12910.5
3.2372e+06
-97298.3
3.22853e+06
-272780
3.46229e+06
-537907
3.8105e+06
-847528
4.15456e+06
-1.1009e+06
5.07546e+06
-1.26178e+06
-2.1388e+06
9.99934e+06
304.335
16700.2
9.99658e+06
141.5
50755.5
9.99025e+06
278.795
84342.8
9.98055e+06
311.019
118458
9.96756e+06
420.971
153501
9.95128e+06
614.438
190073
9.93176e+06
799.932
227650
9.90815e+06
921.01
267114
9.8802e+06
954.854
308013
9.84761e+06
901.295
350890
9.80933e+06
785.251
395737
9.76533e+06
653.323
442735
9.71553e+06
554.382
492109
9.66005e+06
521.071
544183
9.59952e+06
573.854
598829
9.53482e+06
775.792
656405
9.46657e+06
1101.01
716186
9.39663e+06
1506.64
778272
9.32436e+06
1586.16
842638
9.24639e+06
1505.65
909221
9.15768e+06
1437.02
980760
9.05325e+06
2141.09
1.06751e+06
8.91505e+06
4761.49
1.17258e+06
8.73452e+06
-3225.82
1.30276e+06
8.53224e+06
-14523.1
1.47335e+06
8.30844e+06
-17778.7
1.68005e+06
8.04736e+06
-975.42
1.88177e+06
7.71579e+06
15249.5
2.1294e+06
7.34738e+06
17725.5
2.36795e+06
6.95132e+06
10917.5
2.49002e+06
6.55603e+06
18162.3
2.32552e+06
6.14233e+06
31771.4
2.02889e+06
5.64943e+06
66154.7
1.84589e+06
4.86103e+06
393925
2.12803e+06
2.54384e+06
843472
3.38868e+06
924678
273114
1.76727e+06
982279
46632.8
759031
979081
100280
171969
1.30312e+06
-121729
-251592
1.02104e+06
-471092
-709109
1.19483e+06
-384076
-836479
1.6632e+06
55307.5
-947840
2.22178e+06
178970
-896137
2.78439e+06
141771
-927917
3.32317e+06
132433
-1.04951e+06
3.85055e+06
124490
-1.21856e+06
4.42284e+06
120077
-1.40452e+06
4.95155e+06
65085.9
-1.68618e+06
5.42312e+06
11794
-1.96902e+06
5.77611e+06
-13377.1
-2.14915e+06
5.90691e+06
-23041.3
-2.25368e+06
5.9217e+06
-8574.86
-2.24761e+06
5.94019e+06
37585.2
-2.34915e+06
261543
-2.97846e+06
9.99982e+06
16697.8
9.99653e+06
50754
9.98998e+06
84324.7
9.98012e+06
118441
9.96705e+06
153502
9.95083e+06
190092
9.93145e+06
227677
9.90798e+06
267134
9.88012e+06
308011
9.84754e+06
350856
9.80921e+06
395666
9.76513e+06
442633
9.71524e+06
491992
9.65969e+06
544075
9.59922e+06
598751
9.53463e+06
656308
9.46678e+06
716117
9.39651e+06
778163
9.32295e+06
842235
9.24437e+06
908158
9.15723e+06
980797
9.05861e+06
1.06561e+06
8.92919e+06
1.18155e+06
8.74906e+06
1.305e+06
8.51935e+06
1.45705e+06
8.2607e+06
1.64979e+06
7.97105e+06
1.88158e+06
7.68519e+06
2.12012e+06
7.40269e+06
2.32568e+06
7.06961e+06
2.4534e+06
6.67605e+06
2.38084e+06
6.28258e+06
2.08727e+06
5.88107e+06
1.83503e+06
5.71522e+06
1.9521e+06
6.07309e+06
2.76339e+06
5.07186e+06
2.81428e+06
4.02191e+06
2.21456e+06
2.95253e+06
1.47166e+06
1.82675e+06
906840
482741
534415
-343852
248341
-182475
408861
320206
172771
815656
63342.7
1.26455e+06
33429.5
1.70818e+06
-77517.1
2.24746e+06
-294850
2.94219e+06
-652629
3.70191e+06
-1.00994e+06
4.36668e+06
-1.27727e+06
4.84082e+06
-1.45898e+06
5.23756e+06
-1.59216e+06
5.76254e+06
-1.80995e+06
-2.45885e+06
9.99941e+06
301.419
18294.2
9.99704e+06
142.986
55537
9.99137e+06
284.057
92283
9.9826e+06
316.784
129671
9.97079e+06
420.832
168149
9.95591e+06
602.958
208298
9.93778e+06
774.763
249636
9.91616e+06
882.609
292963
9.8902e+06
906.6
338276
9.85959e+06
849.836
385573
9.82394e+06
739.483
435041
9.78252e+06
623.294
487394
9.73547e+06
548.156
542207
9.68322e+06
540.94
599561
9.62578e+06
590.108
659712
9.56396e+06
691.078
722094
9.49797e+06
796.042
786481
9.42894e+06
890.506
852142
9.35827e+06
974.504
919097
9.28664e+06
1145.97
988223
9.21412e+06
1305.54
1.06281e+06
9.14096e+06
2348.58
1.15239e+06
9.05773e+06
2942.94
1.26562e+06
8.93331e+06
12236.4
1.4274e+06
8.7613e+06
7706.21
1.64341e+06
8.58383e+06
-5450.64
1.86328e+06
8.37465e+06
-8192.26
2.0924e+06
8.10942e+06
990.075
2.37417e+06
7.82428e+06
10195.9
2.62033e+06
7.47442e+06
21227.2
2.79999e+06
6.98947e+06
33698.2
2.76723e+06
6.43211e+06
35126.8
2.54509e+06
5.94071e+06
46877.1
2.28839e+06
5.81593e+06
78255.7
2.16919e+06
5.88376e+06
313672
3.02003e+06
4.70297e+06
171855
2.81842e+06
3.67896e+06
-35744.6
1.92142e+06
3.11957e+06
-156533
1.05215e+06
3.0192e+06
-277270
323901
3.11479e+06
-414077
-225305
3.50588e+06
-543694
-568207
3.95719e+06
-572209
-771199
4.39694e+06
-403140
-936791
4.77687e+06
-216210
-1.13928e+06
5.11766e+06
-44413.5
-1.36613e+06
5.48031e+06
26412.7
-1.5687e+06
5.88001e+06
36426.4
-1.74693e+06
6.22848e+06
8272.42
-1.94287e+06
6.46027e+06
-27924.9
-2.12491e+06
6.54374e+06
-45667.6
-2.23565e+06
6.49113e+06
-21868.6
-2.24571e+06
6.37761e+06
-7793.71
-2.22943e+06
6.17687e+06
47707.2
-2.22194e+06
314639
-2.81902e+06
9.99989e+06
18285.7
9.997e+06
55533.7
9.99112e+06
92270.7
9.98218e+06
129659
9.97028e+06
168147
9.95545e+06
208304
9.93747e+06
249643
9.91598e+06
292961
9.89009e+06
338257
9.85949e+06
385530
9.8238e+06
434972
9.78232e+06
487296
9.7352e+06
542080
9.68291e+06
599402
9.62546e+06
659520
9.56362e+06
721848
9.49764e+06
786154
9.42857e+06
851689
9.35763e+06
918320
9.28557e+06
986991
9.21323e+06
1.06147e+06
9.13986e+06
1.14929e+06
9.06695e+06
1.26639e+06
8.9727e+06
1.42075e+06
8.81269e+06
1.63015e+06
8.59321e+06
1.86259e+06
8.31279e+06
2.14496e+06
8.03107e+06
2.39247e+06
7.77148e+06
2.58504e+06
7.50688e+06
2.72869e+06
7.15049e+06
2.76224e+06
6.66438e+06
2.60191e+06
6.16489e+06
2.37593e+06
5.90289e+06
2.29072e+06
6.37123e+06
2.62078e+06
6.61549e+06
2.7754e+06
6.36681e+06
2.48166e+06
5.79019e+06
1.96046e+06
5.07548e+06
1.42451e+06
4.36446e+06
915527
3.63311e+06
516053
3.13381e+06
383658
2.71717e+06
182898
2.62764e+06
-95174.1
3.00582e+06
-406051
3.68847e+06
-704142
4.48412e+06
-991130
5.19154e+06
-1.29043e+06
5.71095e+06
-1.53189e+06
6.0415e+06
-1.68868e+06
6.27966e+06
-1.7756e+06
6.52338e+06
-1.9074e+06
6.84108e+06
-2.12647e+06
-3.02113e+06
9.9995e+06
292.661
19712.9
9.99757e+06
144.268
59836.4
9.99266e+06
276.132
99434
9.98493e+06
303.953
139776
9.97444e+06
400.405
181360
9.96112e+06
570.206
224772
9.94482e+06
728.91
269561
9.92514e+06
826.364
316583
9.90155e+06
845.846
365878
9.87346e+06
791.911
417469
9.84036e+06
691.409
471580
9.80196e+06
584.703
528816
9.75803e+06
512.592
588901
9.70841e+06
487.735
651808
9.65353e+06
493.696
717182
9.59345e+06
494.869
784603
9.52907e+06
462.422
853063
9.46142e+06
429.451
921609
9.39315e+06
391.271
989162
9.32839e+06
553.883
1.05518e+06
9.27218e+06
793.379
1.12296e+06
9.22994e+06
823.23
1.20098e+06
9.19867e+06
2054.6
1.30389e+06
9.16279e+06
11248.3
1.46562e+06
9.06562e+06
23716.9
1.7239e+06
8.89805e+06
19606.7
2.01144e+06
8.67216e+06
2113.56
2.3069e+06
8.46235e+06
-10665.4
2.57857e+06
8.26566e+06
-7417.25
2.8054e+06
8.05042e+06
5636.3
2.99039e+06
7.70892e+06
11486.4
3.07843e+06
7.17574e+06
21561
3.04317e+06
6.57753e+06
40402.3
2.83642e+06
6.13477e+06
1528.09
2.61405e+06
6.38338e+06
62241.7
2.73804e+06
6.43765e+06
70170.4
2.76029e+06
6.1043e+06
5509.35
2.35546e+06
5.71166e+06
-84671.3
1.67616e+06
5.46396e+06
-182480
940111
5.40241e+06
-248278
295049
5.52505e+06
-290462
-221355
5.7697e+06
-342998
-578405
6.02194e+06
-335646
-866458
6.22365e+06
-285689
-1.12664e+06
6.38583e+06
-233867
-1.37143e+06
6.56972e+06
-205657
-1.57214e+06
6.77831e+06
-180851
-1.72969e+06
6.93338e+06
-150843
-1.86133e+06
6.97349e+06
-123965
-1.96731e+06
6.91094e+06
-97245.4
-2.04947e+06
6.79066e+06
-60203.2
-2.08979e+06
6.74446e+06
-43742.5
-2.12444e+06
6.59389e+06
-40646
-2.07967e+06
284090
-2.74524e+06
9.99996e+06
19711.5
9.99753e+06
59835.3
9.99241e+06
99415.8
9.98452e+06
139757
9.97395e+06
181357
9.96068e+06
224783
9.9445e+06
269575
9.92495e+06
316587
9.90143e+06
365860
9.87336e+06
417421
9.84021e+06
471497
9.80176e+06
528699
9.75776e+06
588752
9.70808e+06
651628
9.65314e+06
716971
9.59302e+06
784349
9.52853e+06
852735
9.4608e+06
921183
9.39249e+06
988470
9.32747e+06
1.05444e+06
9.2707e+06
1.12228e+06
9.2262e+06
1.19955e+06
9.19779e+06
1.3049e+06
9.17654e+06
1.46133e+06
9.12437e+06
1.71127e+06
8.98228e+06
2.02165e+06
8.77271e+06
2.34757e+06
8.52388e+06
2.6195e+06
8.26623e+06
2.82472e+06
8.01531e+06
2.97547e+06
7.72491e+06
3.05556e+06
7.31426e+06
3.02698e+06
6.80936e+06
2.91811e+06
6.32468e+06
2.78543e+06
6.29668e+06
2.73937e+06
6.54151e+06
2.64985e+06
6.72908e+06
2.36817e+06
6.75216e+06
1.93866e+06
6.65665e+06
1.44007e+06
6.5215e+06
914062
6.40737e+06
434597
6.40534e+06
83654
6.45017e+06
-214238
6.56241e+06
-545091
6.73194e+06
-853919
6.90294e+06
-1.08838e+06
7.03709e+06
-1.27364e+06
7.0907e+06
-1.44517e+06
7.08043e+06
-1.61331e+06
7.08684e+06
-1.80049e+06
7.25505e+06
-2.02936e+06
7.62775e+06
-2.35529e+06
8.17406e+06
-2.68359e+06
-3.80984e+06
9.99958e+06
290.488
20978
9.99816e+06
145.927
63604.9
9.99409e+06
280.74
105697
9.98753e+06
307.554
148654
9.97851e+06
396.485
193009
9.96697e+06
554.038
239342
9.95251e+06
699.518
287459
9.93514e+06
786.107
337666
9.91434e+06
799.272
390417
9.88911e+06
744.773
446231
9.85888e+06
647.748
504956
9.82359e+06
543.192
566834
9.78258e+06
465.465
632276
9.73589e+06
421.179
700608
9.6829e+06
394.814
772024
9.62395e+06
346.719
845025
9.5594e+06
249.627
918508
9.49099e+06
157.906
990273
9.42234e+06
-23.8716
1.05742e+06
9.35984e+06
437.294
1.11746e+06
9.31674e+06
-130.469
1.16799e+06
9.29917e+06
2836.4
1.22028e+06
9.31258e+06
5649.77
1.29291e+06
9.37174e+06
7334.46
1.41151e+06
9.38494e+06
17233
1.70617e+06
9.2572e+06
17711
2.12325e+06
9.03112e+06
5872.96
2.52404e+06
8.79166e+06
-3609.96
2.82111e+06
8.56505e+06
-5254.2
3.04068e+06
8.34673e+06
-3216.2
3.21637e+06
8.0957e+06
-4299.46
3.33707e+06
7.75929e+06
-4686.83
3.38602e+06
7.2781e+06
-5899.66
3.32811e+06
6.745e+06
-13153.4
3.1775e+06
6.53286e+06
304.591
2.98878e+06
6.57457e+06
14748
2.76485e+06
6.61071e+06
14440.5
2.3878e+06
6.55803e+06
-14990.4
1.84687e+06
6.47977e+06
-69951.8
1.21298e+06
6.45859e+06
-118084
568991
6.51711e+06
-145797
-17278.1
6.62926e+06
-176148
-459746
6.7591e+06
-190465
-813033
6.87776e+06
-187694
-1.11609e+06
6.95932e+06
-165192
-1.36018e+06
7.02759e+06
-154023
-1.53365e+06
7.08827e+06
-137117
-1.64844e+06
7.13074e+06
-116384
-1.73181e+06
7.1213e+06
-98427.9
-1.79804e+06
7.07991e+06
-81497.3
-1.86893e+06
7.13838e+06
-76752.8
-1.99501e+06
7.36874e+06
-77907.8
-2.19859e+06
7.93776e+06
-67232.2
-2.42049e+06
127412
-3.17304e+06
1.00001e+07
20969.6
9.99813e+06
63599.5
9.99385e+06
105683
9.98713e+06
148640
9.97802e+06
193002
9.96652e+06
239339
9.95218e+06
287453
9.93493e+06
337648
9.9142e+06
390379
9.88898e+06
446168
9.85872e+06
504860
9.82336e+06
566702
9.78228e+06
632096
9.73552e+06
700374
9.68245e+06
771722
9.62341e+06
844642
9.5587e+06
918046
9.49018e+06
989675
9.42128e+06
1.05677e+06
9.35945e+06
1.11665e+06
9.31456e+06
1.16854e+06
9.30338e+06
1.21899e+06
9.33295e+06
1.28829e+06
9.3955e+06
1.41797e+06
9.41034e+06
1.71731e+06
9.29833e+06
2.15093e+06
9.10637e+06
2.5448e+06
8.88877e+06
2.83643e+06
8.6563e+06
3.05846e+06
8.40593e+06
3.23052e+06
8.12503e+06
3.3396e+06
7.78073e+06
3.37342e+06
7.36235e+06
3.34048e+06
6.91219e+06
3.24115e+06
6.60371e+06
3.07811e+06
6.49311e+06
2.81829e+06
6.50552e+06
2.42355e+06
6.56424e+06
1.92798e+06
6.62816e+06
1.37726e+06
6.69248e+06
803493
6.76478e+06
268749
6.8461e+06
-158773
6.9266e+06
-508257
6.98217e+06
-831885
7.01415e+06
-1.09687e+06
7.01323e+06
-1.27122e+06
7.01068e+06
-1.405e+06
7.06363e+06
-1.58204e+06
7.23685e+06
-1.84574e+06
7.61416e+06
-2.21565e+06
8.2651e+06
-2.70713e+06
9.1851e+06
-3.24256e+06
1.03217e+07
-3.82856e+06
-4.75254e+06
9.9997e+06
282.088
22023.3
9.99883e+06
144.754
66770
9.99568e+06
269.157
110978
9.9904e+06
289.07
156157
9.98281e+06
368.788
203081
9.97343e+06
513.638
251548
9.96146e+06
647.013