/*--------------------------------*- C++ -*----------------------------------*\
| =========                 |                                                 |
| \\      /  F ield         | OpenFOAM: The Open Source CFD Toolbox           |
|  \\    /   O peration     | Version:  4.1                                   |
|   \\  /    A nd           | Web:      www.OpenFOAM.org                      |
|    \\/     M anipulation  |                                                 |
\*---------------------------------------------------------------------------*/
FoamFile
{
    version     2.0;
    format      ascii;
    class       volVectorField;
    location    "45";
    object      U;
}
// * * * * * * * * * * * * * * * * * * * * * * * * * * * * * * * * * * * * * //

dimensions      [0 1 -1 0 0 0 0];

internalField   nonuniform List<vector> 
4432
(
(39.9822 0.000533069 0.0510897)
(39.916 0.00064707 0.0918445)
(39.8235 0.00208025 0.122521)
(39.6982 0.00248019 0.152868)
(39.5266 0.00196226 0.184291)
(39.3121 0.00134289 0.216627)
(39.0614 0.000993557 0.249882)
(38.7765 0.000970036 0.28341)
(38.4539 0.00120711 0.317345)
(38.0882 0.00152985 0.351522)
(37.6749 0.00184661 0.384778)
(37.2116 0.00208002 0.418274)
(36.7029 0.00226276 0.446582)
(36.1652 0.0022549 0.469661)
(35.62 0.000879478 0.468117)
(35.1781 -0.00382637 0.415772)
(34.8254 -0.000240122 0.456473)
(34.7131 0.00488006 0.360726)
(34.837 0.0060353 0.257765)
(34.8666 0.00887704 0.384392)
(34.6551 0.00236348 0.4825)
(34.2817 -0.00851605 0.61993)
(33.7675 -0.0227511 0.715407)
(33.1485 -0.0332597 0.738172)
(32.424 -0.0386167 0.766504)
(31.6293 -0.0442933 0.683759)
(30.8617 -0.0425635 0.512381)
(30.1585 -0.0275286 0.309312)
(29.5854 -0.0109861 0.216463)
(29.1392 -0.0126001 0.20855)
(28.8187 -0.0282146 0.28181)
(28.5851 -0.0473369 0.407283)
(28.479 -0.0459619 0.311736)
(28.5936 0.00119464 -0.208152)
(29.0431 0.065373 -1.04621)
(29.7037 0.101311 -1.44115)
(30.6571 0.114224 -1.22735)
(31.3194 -0.0816293 -1.19438)
(31.4544 -0.0951515 -1.03948)
(31.7426 0.0697778 -0.703656)
(32.2732 0.173616 -0.515432)
(32.7728 0.193217 -0.50791)
(33.2055 0.107225 -0.460794)
(33.4333 0.0508206 -0.393649)
(33.7982 0.0719877 -0.369132)
(33.9182 0.245116 -0.531954)
(34.0913 0.332202 -0.34548)
(35.0978 -0.0154595 -0.541803)
(35.5396 -0.155156 -0.937235)
(35.3448 -0.347989 -1.27521)
(35.4038 0.0466373 -0.845507)
(37.2505 -0.0733169 -2.33884)
(41.0316 -0.355325 -4.95397)
(47.5607 -0.360363 -2.10535)
(39.9832 0.000533094 0.0510856)
(39.9169 0.000646888 0.0918645)
(39.8238 0.00208052 0.122592)
(39.6965 0.00248299 0.152812)
(39.524 0.00196538 0.184016)
(39.3097 0.00134503 0.216251)
(39.0596 0.000991835 0.249383)
(38.7752 0.000965469 0.282965)
(38.4526 0.00119871 0.317219)
(38.0865 0.00151911 0.351792)
(37.672 0.00183615 0.385944)
(37.2076 0.00207213 0.420079)
(36.6977 0.00225653 0.450136)
(36.1556 0.00225344 0.472684)
(35.6101 0.000866643 0.476948)
(35.1204 -0.00378821 0.427538)
(34.7685 -0.000165081 0.405154)
(34.6991 0.00476673 0.309922)
(34.8256 0.0062842 0.243116)
(34.8876 0.00886202 0.389641)
(34.6815 0.00226368 0.46539)
(34.3049 -0.00838088 0.534815)
(33.8019 -0.022576 0.598907)
(33.19 -0.0339544 0.621484)
(32.4541 -0.0397133 0.648582)
(31.6249 -0.0454436 0.549778)
(30.8025 -0.0454601 0.390369)
(30.07 -0.0326208 0.272777)
(29.4497 -0.0171611 0.179098)
(28.9601 -0.018293 0.0249353)
(28.7092 -0.0327508 -0.185459)
(28.6789 -0.0599575 -0.306106)
(28.7313 -0.0674113 -0.271935)
(28.9101 -0.0294284 -0.229512)
(29.336 0.0498276 -0.558354)
(29.961 0.112701 -0.872499)
(30.6475 0.136234 -0.735894)
(31.231 -0.045831 -0.626211)
(31.7769 -0.122181 -0.448917)
(32.2289 0.00924795 -0.332781)
(32.5665 0.150336 -0.19765)
(32.8724 0.216201 -0.188767)
(33.2338 0.136912 -0.108637)
(33.5367 0.0804061 -0.0756683)
(34.1506 0.109974 -0.167422)
(34.3201 0.282225 -0.621672)
(33.8571 0.399247 -0.52274)
(34.8368 0.019409 -0.415905)
(35.3943 -0.129663 -0.672848)
(35.4166 -0.247744 -0.81382)
(35.7516 0.0929478 -1.1021)
(37.176 -0.0417066 -2.07681)
(40.7865 -0.300788 -4.97405)
(47.9018 -0.33748 -2.38875)
(40.0107 0.00054268 0.0190428)
(40.0361 0.000550442 0.0593591)
(40.0734 0.00198494 0.10094)
(40.114 0.00239836 0.142809)
(40.1455 0.00187264 0.184871)
(40.1704 0.00122715 0.227312)
(40.1949 0.000877775 0.270479)
(40.2203 0.000953794 0.314805)
(40.2446 0.00142491 0.361028)
(40.2642 0.00217643 0.40987)
(40.2761 0.00306245 0.461752)
(40.2756 0.00392183 0.515612)
(40.2602 0.00494339 0.569095)
(40.2116 0.00514016 0.612042)
(40.1356 0.00897769 0.639775)
(39.877 0.0116494 0.64721)
(39.5727 0.0130044 0.497774)
(38.8583 0.0126783 0.407847)
(37.8565 0.00117918 0.420117)
(37.0137 -0.00263987 0.453685)
(36.2775 0.000165976 0.533779)
(35.609 0.00318314 0.65817)
(35.0226 0.00673328 0.802028)
(34.4441 0.0112664 0.963413)
(33.8687 0.0145505 1.09706)
(33.2895 0.0177238 1.14476)
(32.6882 0.0218739 1.12228)
(32.0373 0.0345083 1.07596)
(31.2366 0.0578759 0.994017)
(30.3799 0.0641068 0.842058)
(29.576 0.0589064 0.60379)
(28.8985 0.0555108 0.345248)
(28.5813 0.0528804 0.0406313)
(28.6896 0.0516456 -0.247834)
(29.1832 0.040674 -0.347356)
(29.8361 0.0116771 -0.266258)
(30.434 -0.0590285 0.0744348)
(30.8424 -0.0817104 0.174314)
(31.0902 -0.0194795 0.231267)
(31.3738 0.0216801 0.24917)
(31.7781 -0.0147083 0.200905)
(32.1281 -0.131892 0.136198)
(32.3758 -0.246537 0.0825927)
(32.434 -0.317045 -0.0633443)
(32.5386 -0.39448 -0.163979)
(32.6965 -0.44464 -0.584856)
(32.6755 -0.480566 -0.429825)
(33.2508 -0.545813 -0.831837)
(33.6267 -0.693941 -1.72049)
(33.7824 -0.720101 -2.1066)
(33.5808 -0.555377 -1.62877)
(31.7836 0.037403 -4.73421)
(39.7904 0.0846845 -8.16078)
(43.6878 -0.379824 -9.67111)
(40.0117 0.000542641 0.0190286)
(40.037 0.000550521 0.0593273)
(40.0736 0.00198506 0.100847)
(40.1122 0.0023985 0.1426)
(40.1424 0.00187282 0.184553)
(40.1674 0.00122726 0.226947)
(40.1925 0.000878174 0.270205)
(40.2189 0.000953042 0.3148)
(40.2441 0.00142487 0.361558)
(40.2646 0.00217643 0.411047)
(40.2772 0.00305413 0.463809)
(40.2779 0.0039314 0.518531)
(40.2625 0.00492421 0.572278)
(40.2201 0.00527491 0.617174)
(40.137 0.00842369 0.638917)
(39.9554 0.011592 0.612901)
(39.6303 0.0138934 0.506752)
(38.897 0.0133294 0.398208)
(37.8733 0.00136052 0.397235)
(37.0041 -0.00234467 0.437917)
(36.2892 0.000371217 0.50975)
(35.6298 0.00341082 0.626202)
(35.049 0.00704164 0.752757)
(34.4881 0.011909 0.89068)
(33.9338 0.0154879 1.01287)
(33.3972 0.0196535 1.05872)
(32.842 0.026921 1.07219)
(32.2182 0.0398589 1.0718)
(31.5297 0.058097 0.98236)
(30.8627 0.0746133 0.766731)
(30.1201 0.0818054 0.509462)
(29.355 0.0905773 0.25902)
(28.903 0.0820254 -0.0271105)
(28.95 0.0734006 -0.281522)
(29.4005 0.0484382 -0.392327)
(30.04 0.0421941 -0.342823)
(30.8036 -0.0526736 -0.0828747)
(31.3751 -0.102379 0.101956)
(31.7287 -0.0581362 0.15831)
(32.0243 -0.067505 -0.0141159)
(32.3542 0.00107363 -0.00473647)
(32.6823 -0.0466144 0.0350842)
(32.9835 -0.147596 0.0727225)
(33.0827 -0.223162 0.023822)
(33.2331 -0.326 -0.110056)
(33.5097 -0.394326 -0.717448)
(33.5023 -0.426989 -0.730633)
(34.2033 -0.511232 -0.827714)
(34.5846 -0.546131 -1.20801)
(34.29 -0.61091 -2.02703)
(34.0594 -0.363724 -1.22461)
(33.8296 0.0619161 -4.05948)
(40.737 0.0856639 -6.68295)
(44.8031 -0.41025 -8.25694)
(40.0012 0.000537667 0.0259733)
(39.9891 0.000520256 0.0769509)
(39.9688 0.00192965 0.123023)
(39.9352 0.00231965 0.166935)
(39.8772 0.00179182 0.211073)
(39.7984 0.00118939 0.256188)
(39.7059 0.000940106 0.303053)
(39.6027 0.00117565 0.352324)
(39.4877 0.00185902 0.404696)
(39.3585 0.00286146 0.460674)
(39.2127 0.00395889 0.520466)
(39.0483 0.00505012 0.583696)
(38.8617 0.00575863 0.649378)
(38.6545 0.00671628 0.715319)
(38.4041 0.00606243 0.779967)
(38.1647 0.00906369 0.857786)
(37.8061 0.00851627 0.882215)
(37.3839 0.00743265 0.978928)
(37.0012 0.00155324 1.12482)
(36.5857 0.00110757 1.24959)
(36.0942 0.00263582 1.33118)
(35.5674 0.00497182 1.3927)
(35.0511 0.00857433 1.4716)
(34.5279 0.0148503 1.56732)
(33.9916 0.0193627 1.6588)
(33.4381 0.0265859 1.68898)
(32.819 0.0402694 1.67739)
(32.0688 0.0595762 1.71456)
(31.0923 0.0740861 1.68217)
(29.9485 0.0585606 1.58886)
(28.7264 0.0428277 1.44847)
(27.6585 0.0635997 1.0536)
(27.0498 0.125561 0.374051)
(26.7688 0.22966 -0.542325)
(27.1744 0.28348 -1.7823)
(28.279 0.0414151 -1.60459)
(28.8563 -0.250623 -0.810706)
(29.0627 -0.404904 -0.13445)
(28.9282 -0.473721 0.313643)
(29.0262 -0.237977 0.0194697)
(29.175 -0.127106 -0.224291)
(29.3994 -0.212778 -0.129773)
(29.5662 -0.304035 -0.214256)
(29.7124 -0.368084 -0.476961)
(29.924 -0.423123 -0.683959)
(30.2847 -0.409939 -0.9393)
(30.2387 -0.412587 -1.01684)
(30.6679 -0.372577 -1.55107)
(30.8552 -0.426375 -2.20886)
(31.9748 -0.414241 -3.53542)
(35.0363 -0.277755 -3.3037)
(37.609 -0.38821 -2.93579)
(36.8914 0.568313 -8.30816)
(27.9369 1.05682 -15.573)
(40.0022 0.000537625 0.0259597)
(39.99 0.000520334 0.0769242)
(39.969 0.00192975 0.12294)
(39.9334 0.00231976 0.16682)
(39.8744 0.00179193 0.210962)
(39.7958 0.00118951 0.256119)
(39.7042 0.000940171 0.303068)
(39.6019 0.00117592 0.35247)
(39.4876 0.00185944 0.40503)
(39.3589 0.00286205 0.461224)
(39.213 0.00395931 0.521241)
(39.0483 0.00505104 0.584578)
(38.8621 0.00576484 0.650106)
(38.6525 0.00671731 0.715567)
(38.4105 0.00609258 0.77852)
(38.1385 0.00901263 0.845636)
(37.8143 0.00759299 0.907987)
(37.4052 0.00795045 0.983862)
(37.0015 0.00174404 1.11222)
(36.5936 0.00123641 1.22929)
(36.1099 0.0028206 1.30486)
(35.5927 0.00521846 1.35726)
(35.09 0.0089582 1.4218)
(34.5769 0.0158784 1.5255)
(34.0415 0.0211033 1.6223)
(33.5 0.0294952 1.65917)
(32.9016 0.0454505 1.69046)
(32.1977 0.0664428 1.75876)
(31.3483 0.0832777 1.76411)
(30.2963 0.0769357 1.6598)
(28.9457 0.0574461 1.54691)
(27.8182 0.0738557 1.18134)
(27.2487 0.145607 0.491148)
(27.2994 0.218156 -0.290437)
(27.8633 0.189564 -0.95497)
(28.8213 0.0688237 -1.07292)
(29.5393 -0.158528 -0.728065)
(29.8643 -0.352186 -0.483631)
(30.0131 -0.4676 -0.460506)
(30.3404 -0.412397 -0.81858)
(30.4833 -0.224813 -0.677547)
(30.6709 -0.201809 -0.639211)
(30.8128 -0.277992 -0.73933)
(30.7529 -0.277743 -0.954319)
(30.8335 -0.34077 -1.03755)
(31.0946 -0.33056 -1.22987)
(31.2127 -0.3638 -1.44083)
(31.6655 -0.323933 -1.79307)
(31.4283 -0.364965 -2.588)
(32.9301 -0.243313 -3.87702)
(34.8796 -0.235821 -3.80386)
(37.364 -0.310571 -3.60699)
(39.8543 0.896351 -4.817)
(30.9442 1.23521 -14.1891)
(40.0009 0.000529914 0.0330427)
(39.988 0.000523908 0.100337)
(39.9684 0.00190216 0.166059)
(39.9366 0.00227635 0.232764)
(39.8804 0.00174264 0.301945)
(39.8022 0.00112762 0.373486)
(39.7082 0.000858144 0.447639)
(39.6004 0.00107097 0.524544)
(39.4769 0.00174036 0.604323)
(39.334 0.00273394 0.687002)
(39.1678 0.00384838 0.772485)
(38.975 0.00489269 0.860745)
(38.7518 0.00561893 0.951593)
(38.4961 0.00603379 1.04653)
(38.202 0.0054212 1.1455)
(37.8779 0.00634419 1.25436)
(37.5269 0.00487137 1.41612)
(37.0302 0.00383684 1.47527)
(36.6169 0.00129648 1.50303)
(36.266 0.00203448 1.59551)
(35.876 0.00346516 1.71996)
(35.4522 0.00403862 1.82512)
(34.9938 0.00462085 1.93526)
(34.4724 0.00741933 2.06627)
(33.9059 0.0081931 2.21154)
(33.2902 0.0118596 2.30853)
(32.5378 0.0235077 2.42777)
(31.5773 0.0325317 2.70988)
(30.3229 0.0277971 3.02669)
(28.67 0.0226857 3.1689)
(27.0136 0.0284284 2.90237)
(25.8588 0.0499298 2.02438)
(25.1445 0.101627 0.707203)
(24.8838 0.186071 -1.14784)
(25.6285 0.177538 -2.8593)
(26.5359 -0.142748 -1.95476)
(26.7809 -0.548359 -0.397895)
(26.7097 -0.899006 0.308644)
(26.1236 -0.745475 1.02581)
(26.1898 -0.204105 0.140248)
(26.1693 -0.100617 -0.127617)
(26.4417 -0.241169 0.37155)
(26.5152 -0.348285 0.527765)
(26.6372 -0.36444 0.236806)
(26.9178 -0.293976 -0.163614)
(27.0931 -0.25767 -0.337758)
(27.0895 -0.351639 -1.07807)
(26.8727 -0.183892 -1.48092)
(27.2632 -0.248723 -2.35427)
(26.7905 -0.0948517 -4.16991)
(27.8556 0.0128519 -5.84779)
(28.1827 -0.407501 -6.87675)
(28.514 0.668928 -7.31243)
(9.65906 2.12435 -11.1641)
(40.0019 0.000529875 0.0330323)
(39.9889 0.000523985 0.100337)
(39.9686 0.00190225 0.166032)
(39.9348 0.00227645 0.232721)
(39.8776 0.00174276 0.301905)
(39.7996 0.00112774 0.373447)
(39.7064 0.00085827 0.447592)
(39.5996 0.00107117 0.524481)
(39.4768 0.00174078 0.604241)
(39.3343 0.00273469 0.686893)
(39.1682 0.00384965 0.772365)
(38.9749 0.00489397 0.860532)
(38.7511 0.00562031 0.951307)
(38.4937 0.00604314 1.04558)
(38.2021 0.00542379 1.14486)
(37.8704 0.00641855 1.25151)
(37.5415 0.00459606 1.40752)
(37.0586 0.00388494 1.50906)
(36.6243 0.00122749 1.50751)
(36.2774 0.00209607 1.57586)
(35.8902 0.00377259 1.68956)
(35.468 0.0045361 1.787)
(34.9979 0.00500715 1.89462)
(34.4713 0.00704586 2.06529)
(33.9195 0.00785956 2.21256)
(33.3051 0.0118534 2.32672)
(32.5361 0.0259526 2.53729)
(31.5592 0.0364154 2.8859)
(30.3224 0.0309088 3.23542)
(28.6888 0.0260828 3.39427)
(27.0923 0.0296188 3.07258)
(26.0048 0.0485705 2.24739)
(25.3168 0.0989732 1.16736)
(25.0269 0.201226 -0.239422)
(25.8119 0.20292 -1.97578)
(27.093 -0.112299 -2.19462)
(27.9268 -0.488921 -1.69565)
(28.1107 -0.971421 -1.20317)
(27.7873 -1.19678 -0.541552)
(27.8358 -1.01533 -0.928152)
(27.3667 -0.275702 -0.728858)
(27.4467 -0.230672 -0.540415)
(27.5035 -0.222226 -0.637785)
(27.4942 -0.254216 -0.963671)
(27.8485 -0.201632 -1.19119)
(27.7508 -0.157252 -1.32466)
(28.0458 -0.154676 -1.84639)
(27.9504 0.0163748 -2.4516)
(28.19 -0.11132 -3.32526)
(27.1328 0.108227 -4.70681)
(28.2126 0.14196 -6.00273)
(28.2439 0.100481 -6.66568)
(30.4662 0.982952 -6.69912)
(24.8664 2.72954 -10.511)
(40.0009 0.000527184 0.0409252)
(39.9883 0.000524778 0.124836)
(39.9693 0.00190755 0.207291)
(39.9385 0.00227775 0.290237)
(39.8838 0.00174397 0.375118)
(39.8076 0.0011324 0.462088)
(39.7165 0.000865546 0.551927)
(39.6126 0.001078 0.645239)
(39.4941 0.00174263 0.742526)
(39.3572 0.00272295 0.844196)
(39.198 0.00381679 0.950552)
(39.013 0.00482066 1.06191)
(38.7991 0.0054871 1.17878)
(38.5535 0.00578147 1.30258)
(38.2769 0.0054143 1.43592)
(37.9637 0.00531037 1.57969)
(37.6474 0.00497218 1.75151)
(37.2694 0.00818919 1.91491)
(36.6978 0.00614056 1.97973)
(36.2541 0.00338436 2.01487)
(35.8304 0.00498616 2.10836)
(35.3879 0.00503283 2.23534)
(34.9062 0.00124157 2.44215)
(34.3277 -0.00193943 2.65495)
(33.6759 -0.00822653 2.87086)
(32.9191 -0.00930808 3.07897)
(31.9331 0.00156184 3.38945)
(30.7422 0.00993654 3.98352)
(29.2992 0.00629318 4.64295)
(27.6408 0.0097753 4.85004)
(26.1606 0.0270654 4.21246)
(25.0092 0.0632011 2.8731)
(24.0628 0.131521 0.97524)
(23.4681 0.25988 -1.64649)
(23.9488 0.37569 -3.83114)
(23.003 -0.104603 -2.396)
(23.3577 -0.861999 1.61822)
(23.5364 -1.27946 2.8058)
(23.6224 -1.39435 3.00492)
(23.1322 -0.25565 0.85854)
(22.4692 -0.027961 0.167852)
(22.965 -0.31404 0.95366)
(22.914 -0.36206 0.859248)
(23.3703 -0.270398 0.205376)
(23.5991 -0.167307 -0.292048)
(23.4277 -0.00181611 -0.637108)
(23.9686 0.411588 -1.54078)
(23.4392 0.451034 -2.19664)
(25.4078 -0.0896297 -2.80656)
(22.8585 0.270415 -3.1279)
(18.7263 0.452093 -3.37441)
(14.1445 1.54368 -3.32225)
(23.5078 0.951305 -2.44571)
(-2.87225 -1.25131 -2.17394)
(40.0019 0.000527145 0.0409091)
(39.9892 0.000524855 0.124839)
(39.9695 0.00190764 0.207258)
(39.9367 0.00227786 0.290208)
(39.881 0.00174409 0.37514)
(39.8051 0.00113252 0.462168)
(39.7148 0.000865684 0.552049)
(39.6118 0.00107823 0.645373)
(39.494 0.00174306 0.742628)
(39.3575 0.00272382 0.844214)
(39.1984 0.00381757 0.950435)
(39.0129 0.00482432 1.06162)
(38.7982 0.00549236 1.17829)
(38.5516 0.00578812 1.30193)
(38.2738 0.00543121 1.43529)
(37.9628 0.00526899 1.57908)
(37.6385 0.00523622 1.75137)
(37.2712 0.00706505 1.93536)
(36.7572 0.00564266 1.98535)
(36.2986 0.00353313 2.00493)
(35.8655 0.00567182 2.08581)
(35.4061 0.00667653 2.21621)
(34.8669 0.00149536 2.41598)
(34.2822 -0.00234078 2.6373)
(33.6465 -0.00850064 2.852)
(32.8364 -0.0100961 3.11099)
(31.8402 0.0022285 3.5411)
(30.7025 0.0112695 4.16228)
(29.3299 0.00724389 4.7542)
(27.769 0.0090388 4.93403)
(26.356 0.0244684 4.32216)
(25.2703 0.0588918 3.08902)
(24.5068 0.118825 1.46685)
(24.2063 0.260592 -0.695877)
(24.9209 0.558613 -3.04315)
(26.1367 0.261223 -3.58565)
(27.4774 0.152724 -3.39255)
(27.7575 0.112414 -2.79519)
(27.182 -0.0936506 -1.99492)
(26.613 0.0514002 -1.61563)
(24.7337 0.101782 -0.670821)
(24.5929 -0.137575 -0.266397)
(24.4768 -0.0401231 -0.642916)
(24.8734 -0.00762498 -1.08851)
(25.1966 0.0541597 -1.45319)
(25.2065 0.251896 -1.80714)
(25.286 0.688146 -2.29127)
(24.9584 0.774954 -2.77158)
(24.7933 0.45238 -2.74689)
(22.304 1.04327 -3.55352)
(21.9425 1.07929 -4.97267)
(20.3369 0.99978 -3.5548)
(23.7815 0.973293 -0.659695)
(15.0556 1.37166 -4.12541)
(40.0009 0.000513822 0.0486951)
(39.9887 0.000531861 0.148479)
(39.9706 0.00187445 0.246661)
(39.9412 0.00224868 0.345822)
(39.889 0.00175689 0.447908)
(39.8165 0.00119045 0.553213)
(39.7299 0.000954407 0.662635)
(39.6311 0.00117298 0.776724)
(39.5182 0.00181082 0.895839)
(39.3875 0.00272498 1.02024)
(39.2348 0.00371589 1.15014)
(39.0569 0.00459139 1.28585)
(38.8513 0.00514111 1.42798)
(38.6169 0.00538917 1.57817)
(38.3539 0.00507484 1.73892)
(38.0688 0.00548115 1.91429)
(37.7576 0.00396396 2.10141)
(37.4753 0.00878972 2.33348)
(37.0595 0.016031 2.50438)
(36.6049 0.013963 2.58447)
(36.098 0.0106809 2.64819)
(35.526 0.00444258 2.7593)
(34.9324 -0.00426118 3.0063)
(34.3236 -0.011077 3.31614)
(33.614 -0.0228921 3.66276)
(32.7375 -0.0252025 4.06288)
(31.5599 -0.00781895 4.56573)
(30.2468 0.0121983 5.33667)
(28.8861 0.0174093 6.10952)
(27.4149 0.0259084 6.28652)
(25.959 0.051589 5.49901)
(24.5248 0.112613 3.97781)
(22.8217 0.250123 1.9163)
(21.2378 0.643929 -0.900516)
(19.9886 1.20735 -2.39333)
(0.118155 0.0444891 1.34382)
(7.87163 -0.61512 1.1218)
(8.70492 -1.37279 1.07142)
(10.8 -1.95618 4.16119)
(13.4179 -0.206267 -0.39265)
(16.1702 -0.0462011 0.370606)
(16.4927 -0.556238 2.12716)
(17.2783 -0.348418 1.6325)
(17.8692 -0.137537 0.729295)
(18.4061 -0.00114528 -0.0509852)
(18.2853 -0.0321234 -0.511263)
(18.1063 0.456997 -0.579111)
(17.701 0.666177 -1.06621)
(17.3222 0.279392 -2.09204)
(16.2808 -0.11249 -3.02131)
(14.4072 -0.415812 -3.82985)
(15.8864 0.116892 -4.70278)
(26.5139 0.0110215 -3.20512)
(19.3454 -1.62905 -6.25309)
(40.0019 0.000513784 0.0486762)
(39.9896 0.000531943 0.148478)
(39.9707 0.00187452 0.246627)
(39.9395 0.00224893 0.345808)
(39.8863 0.00175638 0.447969)
(39.814 0.00118868 0.553353)
(39.7282 0.0009524 0.662825)
(39.6303 0.00117104 0.776913)
(39.5181 0.0018091 0.895961)
(39.3876 0.0027237 1.02023)
(39.2349 0.00371459 1.14992)
(39.0566 0.00459227 1.28538)
(38.8503 0.005147 1.42736)
(38.615 0.00539218 1.57738)
(38.3519 0.00510949 1.7386)
(38.0662 0.00537286 1.91362)
(37.7633 0.004805 2.10474)
(37.469 0.0065657 2.32381)
(37.1514 0.0152145 2.47794)
(36.7252 0.0151241 2.59143)
(36.191 0.0144498 2.70337)
(35.6163 0.00622612 2.83677)
(34.9616 -0.00477243 3.03049)
(34.29 -0.0112011 3.30305)
(33.5376 -0.02368 3.63288)
(32.603 -0.0252043 4.06805)
(31.4795 -0.00741466 4.64713)
(30.302 0.0110088 5.42646)
(29.0146 0.0150345 6.12599)
(27.6041 0.0228877 6.30951)
(26.2359 0.0481138 5.59156)
(24.9909 0.105299 4.20683)
(23.836 0.234165 2.43229)
(23.0002 0.787934 0.125956)
(23.9599 2.90149 -2.44827)
(24.8175 3.82459 -4.06627)
(25.0289 3.18792 -3.50724)
(23.8873 2.78998 -2.14657)
(22.647 2.50771 -0.77016)
(22.6119 2.37499 0.0974791)
(20.247 1.00779 0.792226)
(20.3045 0.924328 0.63609)
(20.2925 0.931798 0.249381)
(20.7712 1.01589 -0.223923)
(20.9829 1.08353 -0.702147)
(20.9167 1.04997 -1.15326)
(21.0443 1.46026 -1.71195)
(20.8257 1.64931 -1.95325)
(19.7855 1.54748 -1.44671)
(18.2196 1.45883 -1.20925)
(16.0753 1.48678 -1.51932)
(14.2069 1.9588 -2.57021)
(22.8738 2.36895 0.351227)
(12.7435 1.84641 -5.97283)
(40.001 0.000508484 0.0561802)
(39.9893 0.000528598 0.171244)
(39.9725 0.00187892 0.284657)
(39.9454 0.00226562 0.39957)
(39.8964 0.00179735 0.518095)
(39.828 0.00125414 0.640339)
(39.746 0.00102732 0.767189)
(39.6525 0.00123237 0.899181)
(39.5452 0.00182866 1.03671)
(39.4204 0.00267219 1.18012)
(39.2742 0.00356976 1.32983)
(39.1034 0.0043411 1.48641)
(38.9062 0.0048454 1.65078)
(38.6825 0.0050503 1.82471)
(38.4337 0.00497884 2.01017)
(38.1656 0.005179 2.21106)
(37.8791 0.00509012 2.42335)
(37.5892 0.00714073 2.65648)
(37.2938 0.0122367 2.88435)
(36.9646 0.0166134 3.08225)
(36.554 0.0133583 3.27507)
(36.0262 0.00841231 3.51514)
(35.3758 0.00015265 3.73582)
(34.6208 -0.0167109 4.05474)
(33.8717 -0.0371836 4.54974)
(32.9845 -0.0456037 5.18992)
(31.7974 -0.011171 5.89261)
(30.4324 0.0327912 6.66886)
(29.1099 0.0388696 7.42886)
(27.6903 0.0401327 7.66656)
(26.1426 0.0756305 7.01984)
(24.3972 0.154946 5.71191)
(21.9493 0.371226 4.24503)
(20.0702 1.05758 2.9983)
(-0.276616 0.604292 0.899026)
(-1.20605 0.00892642 1.30573)
(-0.967832 -0.495481 1.81953)
(-3.06897 -2.03631 -7.02605)
(1.19475 -1.26266 -0.823028)
(-0.461406 -2.36895 -6.45889)
(8.52496 -1.14101 -2.17648)
(8.057 -0.0444801 -0.424385)
(6.92991 0.379608 0.000189285)
(7.41421 0.636888 -0.377911)
(8.80618 0.468192 -0.860648)
(9.65078 -0.0607546 -1.57194)
(10.3199 -0.425328 -1.81468)
(12.9512 -0.598361 -3.5661)
(15.1431 -0.718666 -5.17598)
(17.347 -0.861053 -6.37247)
(18.5703 -0.850744 -7.05094)
(18.8943 -0.185713 -7.59115)
(24.3851 0.81532 -7.07805)
(20.4788 0.0416064 -10.5938)
(40.0019 0.000508444 0.0561587)
(39.9902 0.000528678 0.171239)
(39.9727 0.00187899 0.284606)
(39.9437 0.00226588 0.399531)
(39.8938 0.00179684 0.518124)
(39.8255 0.00125237 0.640437)
(39.7444 0.00102528 0.767319)
(39.6516 0.00123033 0.89929)
(39.5449 0.00182686 1.03673)
(39.4204 0.00267033 1.18001)
(39.2741 0.00356997 1.32954)
(39.1029 0.00434323 1.48595)
(38.9051 0.00484807 1.65028)
(38.6808 0.00505437 1.82421)
(38.432 0.00499458 2.01017)
(38.1637 0.00517902 2.21067)
(37.8806 0.0051785 2.42495)
(37.591 0.00705331 2.65366)
(37.3023 0.0118436 2.88185)
(36.9859 0.016523 3.09928)
(36.5804 0.0150617 3.31567)
(36.1041 0.00717179 3.55726)
(35.4654 0.00029639 3.78582)
(34.6466 -0.0155201 4.10032)
(33.8045 -0.0381946 4.49505)
(32.8337 -0.0460965 5.11862)
(31.6366 -0.00974202 5.82006)
(30.488 0.0280503 6.68632)
(29.2964 0.0347149 7.47472)
(27.9583 0.0350746 7.72374)
(26.5178 0.0717485 7.06156)
(25.0525 0.14741 5.79117)
(23.5132 0.401237 4.35734)
(22.2074 1.69552 3.11772)
(24.4422 4.89304 2.8311)
(-0.178148 -0.0098056 1.34077)
(6.66961 -0.321552 0.80431)
(2.24361 0.279361 -1.82072)
(-0.552687 1.977 -1.53455)
(2.54782 2.73093 -0.0446884)
(6.53635 1.93325 1.24442)
(8.38623 1.78123 0.541524)
(8.85175 1.98378 0.877475)
(9.96108 2.05368 1.10636)
(11.3907 1.97832 0.902549)
(12.2809 1.7874 0.149971)
(13.0909 1.72961 -0.66056)
(13.4388 1.69634 -0.769968)
(13.2609 1.85267 -0.736167)
(13.6727 1.89029 -1.1797)
(14.0704 1.77332 -2.1686)
(15.4841 2.19118 -3.47162)
(21.7755 3.33959 -4.28405)
(18.894 2.14899 -8.57676)
(40.001 0.000492633 0.0632696)
(39.9901 0.000532009 0.192775)
(39.975 0.0018291 0.320487)
(39.9504 0.00221167 0.450106)
(39.9051 0.00177853 0.583937)
(39.8413 0.0012678 0.722003)
(39.7648 0.0010531 0.865323)
(39.6772 0.00124314 1.01455)
(39.5765 0.00179643 1.17022)
(39.4588 0.00257484 1.33283)
(39.3204 0.00340034 1.50297)
(39.1583 0.00411581 1.68136)
(38.9711 0.00462464 1.86899)
(38.7591 0.00490416 2.06713)
(38.524 0.0050497 2.27715)
(38.2694 0.0052578 2.50028)
(37.9991 0.00569003 2.73468)
(37.7151 0.00641515 2.98025)
(37.4246 0.00734675 3.23365)
(37.1248 0.00826726 3.49192)
(36.7928 0.00635169 3.7659)
(36.4079 0.00379084 4.09476)
(35.9519 0.0114024 4.46594)
(35.2999 -0.00461379 4.87152)
(34.4536 -0.0351111 5.47494)
(33.6907 -0.0522014 6.26977)
(32.7774 -0.0161023 7.05089)
(31.5393 0.0436052 7.85758)
(30.1347 0.0655553 8.72108)
(28.5524 0.0592938 9.11849)
(27.0073 0.0688544 8.45188)
(25.4288 0.104253 7.30318)
(23.5891 0.221414 6.6664)
(22.2768 0.858667 8.01105)
(18.8152 1.56615 12.6544)
(-1.2955 -0.0114681 1.34518)
(1.37873 -1.07375 -0.458539)
(8.96337 -2.08017 0.437762)
(4.2308 -1.74224 -2.71059)
(4.80917 -3.13956 -5.08048)
(4.23807 -2.73282 -5.6232)
(5.76898 -2.6322 -4.38361)
(7.59247 -2.33869 -3.04483)
(9.89131 -1.96014 -2.5928)
(12.4123 -1.64753 -2.98785)
(14.3378 -1.83277 -3.88428)
(16.1128 -1.86204 -4.85669)
(18.407 -1.57348 -6.13079)
(20.9858 -1.15237 -7.41279)
(23.0353 -0.875496 -8.20221)
(24.0339 -0.780395 -8.56394)
(23.0206 -0.480076 -8.52638)
(26.5012 0.130788 -8.75377)
(20.8471 1.45846 -12.1082)
(40.0019 0.000492599 0.0632484)
(39.991 0.000532076 0.192769)
(39.9752 0.00182919 0.320435)
(39.9488 0.00221179 0.450064)
(39.9026 0.00177869 0.583957)
(39.839 0.00126791 0.722082)
(39.7632 0.00105346 0.865423)
(39.6763 0.00124246 1.01462)
(39.5762 0.00179418 1.17021)
(39.4588 0.00257206 1.3327)
(39.3202 0.00339933 1.50269)
(39.1578 0.00411742 1.68097)
(38.9701 0.00462698 1.86857)
(38.7577 0.00490691 2.06681)
(38.5225 0.00505205 2.27708)
(38.2682 0.00526815 2.50021)
(37.9985 0.00569068 2.73493)
(37.716 0.00649154 2.97895)
(37.4236 0.00734734 3.22854)
(37.1179 0.00813768 3.48347)
(36.7848 0.00640172 3.76561)
(36.4059 0.00363816 4.09208)
(35.9813 0.0118283 4.53768)
(35.3971 -0.00272691 4.91104)
(34.4722 -0.0419412 5.43737)
(33.5995 -0.0556387 6.13002)
(32.4433 -0.0207162 6.91952)
(31.2499 0.0294304 7.84992)
(30.1898 0.0535671 8.68957)
(28.9945 0.0412669 9.08898)
(27.477 0.0607932 8.58019)
(25.8967 0.101827 7.36664)
(24.41 0.234339 6.39988)
(22.6668 1.19992 6.85005)
(25.0365 3.88353 10.5966)
(21.1777 2.82083 10.2992)
(18.2742 1.9622 7.59835)
(14.5492 1.71375 4.30258)
(9.90751 1.41595 1.53422)
(4.64807 0.790292 -0.279632)
(-0.54804 0.675241 -0.623539)
(-2.17062 2.56501 3.01305)
(0.594884 2.60369 1.4067)
(2.74446 2.80335 0.654746)
(4.39162 2.6123 0.558939)
(5.04339 1.70656 0.375989)
(6.89605 1.10495 0.0370022)
(10.1666 1.17743 -1.1912)
(13.8662 1.40936 -2.77598)
(16.8516 1.39872 -3.97615)
(18.6929 1.04446 -4.88158)
(19.6702 0.897245 -5.4846)
(24.8048 1.03733 -6.19825)
(21.9986 1.58601 -8.66638)
(40.001 0.000487656 0.0698678)
(39.991 0.000528403 0.212767)
(39.9778 0.00183215 0.35373)
(39.9563 0.00222422 0.497017)
(39.9152 0.00180892 0.645146)
(39.8567 0.00131249 0.798085)
(39.7864 0.00109612 0.957001)
(39.7057 0.00126356 1.12267)
(39.6126 0.00177398 1.29575)
(39.5032 0.00249487 1.4769)
(39.3739 0.00325888 1.66683)
(39.2218 0.00392573 1.86635)
(39.0456 0.00440962 2.07627)
(38.8455 0.00471674 2.2973)
(38.6231 0.00490914 2.5298)
(38.3807 0.00512549 2.77341)
(38.1213 0.00535186 3.02661)
(37.8473 0.00557969 3.28722)
(37.5625 0.00579927 3.5542)
(37.2719 0.00602475 3.83047)
(36.9752 0.0052338 4.12934)
(36.6721 0.00641151 4.48938)
(36.3564 0.00249287 4.94302)
(36.029 0.032031 5.58255)
(35.3051 0.0224963 6.3452)
(34.6254 -0.005313 7.14316)
(33.9701 -0.0208881 7.89275)
(32.9639 -0.00150633 8.99686)
(31.8933 0.031692 10.0478)
(30.6476 0.0797759 10.7049)
(29.0511 0.104546 10.0897)
(26.7834 0.133372 8.80093)
(24.7679 0.163453 8.05692)
(22.8044 0.373719 8.8594)
(24.8032 1.10805 14.4645)
(20.6097 0.506878 12.0624)
(16.4878 -0.733413 7.38211)
(13.7734 -1.75565 3.05674)
(11.5987 -2.52495 -0.245725)
(11.8052 -2.99426 -2.42571)
(13.242 -3.22548 -3.60043)
(14.9692 -3.32897 -4.25005)
(16.883 -3.01167 -4.45228)
(18.5215 -2.46306 -4.67103)
(19.9096 -1.87541 -5.17622)
(21.1276 -1.6993 -5.9159)
(22.4037 -1.60517 -6.66539)
(23.8805 -1.33913 -7.52272)
(25.4378 -0.936972 -8.36069)
(26.5323 -0.611521 -8.97187)
(26.8062 -0.348378 -9.30141)
(25.275 -0.00422204 -9.27684)
(27.7728 0.807364 -9.60665)
(20.9595 2.37948 -11.5564)
(40.0019 0.000487619 0.0698463)
(39.9919 0.000528468 0.212757)
(39.978 0.00183224 0.353667)
(39.9547 0.00222434 0.496957)
(39.9127 0.0018091 0.645141)
(39.8544 0.00131265 0.798133)
(39.7847 0.00109658 0.957065)
(39.7048 0.00126306 1.1227)
(39.6122 0.00177187 1.2957)
(39.503 0.00249236 1.47674)
(39.3736 0.00325678 1.66655)
(39.2212 0.00392219 1.86596)
(39.0447 0.00440803 2.07581)
(38.8443 0.00471787 2.29683)
(38.6217 0.00490538 2.52933)
(38.3793 0.00512215 2.77283)
(38.1199 0.00535151 3.02563)
(37.8461 0.00558588 3.28556)
(37.5611 0.00582178 3.55151)
(37.2685 0.00596056 3.82618)
(36.9716 0.00554795 4.12716)
(36.6664 0.00563731 4.48072)
(36.3684 0.0068183 4.94936)
(36.0554 0.0194888 5.53269)
(35.5701 0.0122555 6.24506)
(34.8134 -0.0115983 7.0491)
(33.8145 -0.0327011 8.0453)
(32.6472 -0.0154822 8.97679)
(31.5772 0.0308428 9.75489)
(30.5547 0.0627035 10.368)
(29.3889 0.0980409 10.3388)
(27.7512 0.106873 9.2213)
(25.6616 0.167952 8.07)
(23.7321 0.265328 8.49204)
(24.119 1.44243 11.3959)
(26.181 1.92022 12.2481)
(26.3283 1.77561 10.5611)
(24.6658 1.3222 7.86481)
(21.8182 0.926863 5.30553)
(18.5916 0.581971 3.0244)
(16.4122 0.084289 0.917521)
(13.0688 0.0163402 0.673871)
(11.5584 0.392664 0.846497)
(10.667 1.04148 0.65618)
(11.0472 1.64209 0.132177)
(12.8422 1.48072 -0.791947)
(15.8011 0.996481 -2.07104)
(19.2023 0.700489 -3.66105)
(22.159 0.671452 -5.12427)
(24.0558 0.649254 -6.21046)
(24.9673 0.546382 -6.63788)
(25.3001 0.55136 -6.71808)
(28.9126 0.872869 -7.17388)
(27.2545 2.0799 -10.1273)
(40.0011 0.000471679 0.0758787)
(39.9921 0.000528048 0.230955)
(39.9811 0.00177231 0.383971)
(39.963 0.00215352 0.539745)
(39.9267 0.00176726 0.700995)
(39.8742 0.00129683 0.867646)
(39.8108 0.00108658 1.04102)
(39.738 0.00123489 1.22205)
(39.6535 0.00170478 1.41153)
(39.5536 0.00237194 1.61029)
(39.4346 0.00308021 1.81918)
(39.2937 0.00369189 2.03901)
(39.1293 0.00413309 2.27036)
(38.9412 0.00439989 2.51338)
(38.7301 0.0045458 2.76748)
(38.4976 0.00465281 3.03106)
(38.2461 0.00465749 3.30145)
(37.9791 0.00466758 3.5753)
(37.7028 0.00431268 3.85132)
(37.4276 0.00414915 4.12963)
(37.1731 0.00314062 4.42925)
(36.9423 0.000882106 4.77275)
(36.7922 -0.00307132 5.2118)
(36.6702 0.00909144 5.86441)
(36.4494 0.0616599 6.83906)
(35.8708 0.0721629 7.78133)
(35.0882 0.0236912 8.78018)
(34.2696 -0.0216458 9.90679)
(33.4603 -0.0325723 10.8879)
(32.6513 0.00396813 11.693)
(31.6457 0.0345019 12.0028)
(29.9744 0.0668353 11.5807)
(27.5306 0.137093 10.2923)
(24.9784 0.0881118 9.56948)
(24.7219 0.358356 11.1714)
(25.882 0.402335 11.6188)
(25.3079 -0.100654 9.66174)
(23.5926 -0.786154 6.50531)
(22.0962 -1.34229 3.42591)
(21.5248 -1.65151 0.945262)
(21.652 -1.81758 -0.913025)
(22.4638 -1.95376 -2.24942)
(23.7407 -1.96475 -3.46422)