/*--------------------------------*- C++ -*----------------------------------*\
| =========                 |                                                 |
| \\      /  F ield         | OpenFOAM: The Open Source CFD Toolbox           |
|  \\    /   O peration     | Version:  4.1                                   |
|   \\  /    A nd           | Web:      www.OpenFOAM.org                      |
|    \\/     M anipulation  |                                                 |
\*---------------------------------------------------------------------------*/
FoamFile
{
    version     2.0;
    format      ascii;
    class       volScalarField;
    location    "21";
    object      p;
}
// * * * * * * * * * * * * * * * * * * * * * * * * * * * * * * * * * * * * * //

dimensions      [0 2 -2 0 0 0 0];

internalField   nonuniform List<scalar> 
4432
(
102306
102304
102299
102291
102280
102270
102261
102256
102253
102252
102252
102252
102249
102242
102230
102211
102182
102137
102104
102098
102233
102317
102158
102119
102240
102289
102114
101794
101444
101128
100893
100715
100894
101273
101705
101674
101186
101175
101169
101127
101086
100874
100793
100773
101034
101954
101663
100827
100834
102040
103618
99288.8
81750.8
73545.2
102305
102303
102298
102290
102279
102269
102261
102255
102252
102252
102252
102251
102248
102242
102230
102212
102180
102135
102094
102073
102143
102338
102360
102248
102162
102221
102130
101716
101312
101062
100946
100828
101035
101142
101204
101271
101326
101252
101075
100947
100849
100775
100769
100634
100377
101272
101451
100713
100912
101915
104348
100963
81955.3
72567.5
102302
102299
102293
102283
102272
102260
102251
102244
102241
102240
102242
102245
102247
102248
102248
102244
102232
102192
102147
102176
102240
102291
102266
102238
102168
102018
101764
101482
101211
101006
100917
100827
100767
100871
100955
100990
101083
101057
100933
100859
100781
100681
100597
100638
100844
101175
101190
100480
100252
100727
102531
98849.1
78706.5
88342.1
102301
102298
102292
102282
102271
102260
102250
102244
102241
102240
102242
102245
102247
102248
102247
102244
102234
102189
102146
102175
102247
102297
102267
102212
102132
101984
101765
101479
101196
101039
100938
100839
100800
100916
101088
101098
101097
101002
100879
100729
100633
100532
100409
100483
100671
101059
101196
100782
101034
101810
103631
100384
79374.5
88492.4
102298
102296
102290
102281
102269
102258
102248
102240
102235
102234
102235
102238
102244
102251
102261
102268
102273
102210
102160
102213
102280
102281
102227
102172
102112
102004
101792
101511
101242
101030
100816
100581
100506
100729
100859
100945
101062
101139
101147
101096
100972
100931
100882
100814
100827
100653
100434
99808.1
99530.4
98597.6
96020.7
94097.7
87194.2
95975.4
102298
102295
102289
102280
102269
102257
102247
102240
102235
102234
102235
102238
102244
102251
102261
102271
102278
102209
102147
102218
102278
102279
102242
102198
102129
101997
101765
101472
101207
101020
100798
100528
100419
100618
100883
101010
101092
101144
101144
101027
100926
100763
100561
100510
100564
100564
100327
99928.7
99817.5
99547.8
97760.5
96902.8
87383.4
94736.8
102294
102292
102286
102276
102264
102252
102242
102234
102229
102227
102229
102233
102239
102249
102260
102267
102267
102205
102139
102205
102272
102279
102258
102229
102204
102114
101895
101552
101222
100970
100728
100517
100462
100552
100650
100875
100969
101062
101124
101075
100963
100887
100728
100621
100512
100354
100408
99958.3
99839.2
100258
99988.3
97041.6
89877.3
90657.4
102293
102291
102285
102275
102263
102251
102241
102233
102229
102228
102229
102233
102240
102249
102261
102270
102265
102200
102134
102211
102271
102280
102268
102253
102222
102121
101882
101538
101214
100941
100670
100450
100360
100511
100715
100932
101041
101161
101258
101157
101037
100916
100653
100398
100248
100102
99845.5
99562.8
99320.7
100299
100812
98377.3
89322.3
89643.7
102288
102286
102280
102270
102258
102246
102235
102227
102222
102220
102222
102225
102232
102240
102247
102249
102242
102208
102132
102191
102269
102321
102321
102308
102307
102252
102104
101806
101471
101185
100968
100859
100837
100923
101192
101201
100991
101000
100990
100846
100813
100588
100374
100268
100356
100613
100550
100139
99911.5
100381
101344
98908.1
92314.7
97496.6
102287
102285
102279
102269
102257
102245
102235
102227
102222
102221
102222
102226
102232
102240
102248
102250
102241
102197
102147
102193
102276
102330
102331
102318
102322
102271
102099
101783
101462
101166
100945
100839
100825
100841
101049
101017
100999
101094
101154
101029
100822
100734
100508
100252
100081
99985.7
99852.7
99706.3
99698.6
100541
101877
100100
91989.1
95737.1
102282
102279
102273
102263
102251
102239
102228
102220
102215
102213
102213
102216
102220
102226
102230
102229
102221
102203
102177
102205
102276
102363
102395
102375
102399
102399
102334
102171
101911
101663
101440
101330
101394
101739
101954
101093
100951
100932
100907
100684
100366
100151
100238
100128
100109
100533
100511
100315
100105
100256
100702
98199.9
92738.6
96543.4
102281
102278
102272
102262
102251
102238
102228
102220
102215
102213
102214
102216
102221
102226
102230
102230
102222
102204
102183
102203
102279
102362
102394
102402
102411
102406
102335
102147
101914
101674
101450
101327
101380
101445
101318
101082
100956
100989
101024
100884
100546
100431
100335
100231
100194
100219
100151
100090
100123
100556
101153
98610.3
92801.1
97275.3
102274
102272
102266
102256
102244
102231
102221
102212
102207
102204
102204
102205
102208
102212
102214
102214
102210
102206
102210
102230
102292
102375
102416
102416
102417
102469
102497
102452
102272
102018
101765
101611
101654
101870
101380
101639
100867
100874
100959
100887
100617
100497
100485
100313
100127
100252
100310
100387
100322
100288
100325
98417.4
94338
95126.8
102274
102271
102265
102255
102243
102231
102220
102212
102207
102204
102204
102206
102209
102212
102215
102215
102212
102207
102204
102228
102296
102384
102409
102408
102440
102484
102491
102401
102248
102048
101798
101614
101571
101518
101267
101003
100819
100923
101037
100972
100746
100647
100575
100433
100378
100485
100454
100451
100515
100582
100533
98303.4
94229
95680.1
102266
102264
102258
102248
102236
102224
102213
102204
102199
102196
102195
102195
102197
102199
102202
102204
102205
102208
102215
102233
102281
102368
102438
102428
102339
102439
102516
102475
102333
102116
101890
101658
101502
101399
101111
100828
100846
101053
101227
101279
101101
100936
100837
100558
100205
100129
100239
100493
100582
100563
100669
99266.3
95310.6
97774.3
102266
102263
102257
102247
102235
102223
102213
102204
102199
102196
102195
102196
102197
102200
102203
102205
102206
102209
102213
102232
102280
102363
102420
102418
102402
102461
102483
102438
102326
102147
101915
101684
101510
101331
101078
100888
100883
101051
101243
101279
101121
100955
100761
100503
100413
100540
100618
100699
100724
100787
100878
99211.7
95147.2
98212.6
102258
102256
102250
102240
102228
102216
102205
102197
102191
102187
102186
102185
102187
102189
102193
102198
102203
102211
102221
102239
102273
102332
102400
102403
102318
102359
102406
102354
102243
102066
101863
101655
101482
101298
101072
100974
101044
101265
101521
101670
101643
101449
101198
100847
100404
100146
100187
100436
100609
100664
100508
99020.4
95355.7
97821
102257
102255
102249
102239
102227
102215
102205
102197
102191
102188
102186
102186
102187
102190
102194
102199
102205
102212
102221
102238
102271
102324
102389
102416
102367
102375
102381
102313
102218
102071
101880
101675
101483
101300
101089
100979
101072
101260
101477
101613
101589
101398
101048
100643
100401
100358
100472
100610
100779
100966
100944
99263.3
95032.1
97513
102249
102247
102241
102232
102220
102208
102198
102189
102183
102180
102178
102177
102178
102181
102186
102194
102204
102215
102228
102245
102269
102299
102337
102350
102279
102233
102222
102201
102148
102028
101859
101678
101508
101349
101204
101159
101264
101461
101694
101912
102049
101964
101641
101201
100704
100257
99999.2
100039
100153
100110
99754.1
98694.6
96728.8
98564.1
102249
102246
102240
102231
102219
102208
102197
102189
102184
102180
102178
102178
102179
102182
102188
102196
102205
102216
102229
102245
102268
102297
102330
102346
102305
102254
102244
102211
102135
102011
101854
101681
101510
101364
101234
101172
101271
101463
101684
101861
101935
101828
101460
100941
100519
100251
100130
100311
100652
100812
100614
99320.6
95943.5
97152.4
102241
102239
102233
102223
102212
102200
102190
102182
102176
102173
102170
102170
102171
102175
102182
102192
102205
102219
102235
102251
102266
102276
102293
102289
102210
102115
102080
102084
102063
101980
101850
101702
101555
101432
101344
101321
101417
101604
101813
102004
102151
102216
102043
101643
101010
100429
100008
99810.8
99646.1
99380.3
99009.8
98282.5
96931.3
94127.2
102240
102238
102232
102223
102211
102200
102190
102182
102177
102173
102171
102170
102172
102176
102183
102193
102206
102220
102235
102251
102267
102281
102292
102276
102213
102135
102109
102109
102071
101976
101844
101698
101558
101447
101373
101351
101450
101632
101827
101993
102084
102066
101835
101294
100677
100209
99930
99911.8
100083
100190
100045
99429.1
96882.5
93535.4
102232
102230
102224
102215
102204
102193
102183
102175
102170
102166
102164
102163
102165
102169
102177
102189
102204
102222
102240
102257
102273
102282
102276
102229
102104
101981
101962
101994
102000
101948
101853
101739
101627
101536
101481
101475
101547
101687
101850
101994
102100
102151
102148
101976
101417
100759
100252
99957.7
99654.5
99227.4
98708.1
98207.8
97348.1
94774.4
102232
102229
102223
102214
102204
102193
102183
102175
102170
102166
102164
102164
102166
102170
102178
102190
102206
102223
102240
102257
102273
102284
102277
102223
102100
101986
101972
102005
102005
101949
101849
101735
101627
101544
101499
101500
101578
101724
101884
102008
102074
102056
101927
101568
100987
100405
99983.4
99752.5
99660.5
99570.6
99447.5
99464.6
97988.8
97381.2
102224
102221
102216
102207
102196
102186
102176
102169
102163
102160
102158
102157
102159
102163
102172
102185
102202
102221
102243
102265
102288
102303
102290
102192
101942
101773
101835
101933
101979
101963
101904
101827
101750
101691
101660
101665
101710
101787
101872
101936
101968
101968
101916
101800
101455
100926
100437
100132
99902.1
99559.4
99024.9
98154.6
97220.8
94041.6
102223
102221
102215
102206
102196
102186
102176
102169
102164
102160
102158
102158
102159
102164
102173
102186
102203
102222
102243
102265
102288
102304
102293
102179
101925
101763
101833
101934
101976
101959
101898
101818
101742
101686
101660
101669
101718
101799
101886
101944
101955
101913
101789
101544
101137
100645
100210
99911.4
99705.7
99462.8
99068.4
98367.6
97423.9
93935.6
102215
102213
102208
102199
102189
102179
102170
102163
102157
102154
102151
102151
102152
102156
102165
102177
102195
102215
102239
102269
102308
102352
102383
102239
101737
101441
101709
101896
101985
102004
101984
101945
101905
101878
101875
101891
101917
101938
101938
101898
101833
101751
101640
101477
101215
100850
100466
100148
99890.7
99559.9
99025.9
98008.4
96701.5
93505.8
102215
102212
102207
102199
102189
102179
102170
102163
102158
102154
102152
102151
102153
102157
102166
102179
102195
102216
102239
102268
102307
102355
102391
102230
101700
101431
101709
101899
101988
102003
101982
101941
101899
101874
101873
101899
101929
101948
101950
101900
101819
101717
101576
101365
101061
100691
100326
100018
99751.3
99413.3
98870.8
97837
96476
93271.6
102207
102205
102200
102192
102182
102172
102164
102157
102152
102148
102145
102144
102145
102148
102155
102167
102182
102201
102224
102254
102305
102402
102535
102579
100807
101178
101743
101986
102082
102103
102096
102079
102064
102064
102086
102132
102160
102140
102059
101902
101730
101573
101416
101238
101013
100738
100440
100145
99839.4
99442.1
98839.1
97814.7
96316.4
93514.9
102207
102204
102199
102191
102182
102172
102164
102157
102152
102148
102146
102145
102146
102149
102156
102168
102183
102201
102223
102253
102300
102393
102522
102443
100544
101123
101783
102021
102110
102122
102108
102086
102069
102069
102105
102187
102209
102173
102090
101900
101708
101541
101377
101186
100947
100665
100368
100072
99759.2
99346.1
98721.3
97680
96152.3
93385.4
102199
102197
102192
102184
102175
102166
102158
102151
102146
102142
102139
102137
102137
102139
102144
102152
102163
102176
102191
102209
102234
102275
102451
102776
101131
101783
102053
102163
102188
102190
102190
102194
102212
102255
102328
102384
102358
102192
101918
101653
101439
101261
101089
100900
100683
100442
100176
99857.8
99418.8
98782
97768.7
96308
93611.5
102199
102197
102192
102184
102175
102166
102158
102151
102146
102142
102139
102138
102137
102139
102144
102153
102164
102176
102190
102207
102226
102259
102423
101842
101082
101832
102109
102215
102228
102218
102208
102205
102221
102265
102424
102493
102393
102214
101883
101614
101400
101223
101053
100864
100647
100405
100134
99806.4
99356.2
98706
97694.5
96175.6
93566.2
102192
102190
102185
102178
102169
102160
102152
102146
102140
102136
102132
102129
102128
102127
102129
102134
102139
102144
102145
102139
102115
102045
101854
101516
101000
101517
102017
102204
102224
102207
102198
102200
102214
102240
102273
102333
102387
102340
102146
101853
101556
101314
101130
100976
100822
100648
100451
100213
99885
99398.8
98713.4
97670.3
96460.5
93650.4
102191
102189
102185
102177
102169
102160
102152
102146
102141
102136
102133
102130
102128
102128
102130
102134
102139
102143
102144
102137
102109
102034
101829
101432
100823
101605
102085
102267
102279
102252
102231
102223
102227
102239
102254
102345
102456
102356
102076
101778
101501
101272
101089
100936
100787
100620
100426
100185
99854.3
99377.3
98715.6
97736
96388.6
93710.9
102184
102183
102178
102171
102163
102154
102147
102140
102135
102130
102126
102121
102118
102115
102114
102113
102112
102108
102096
102071
102024
101943
101833
101698
101607
101717
101994
102130
102152
102145
102139
102145
102160
102178
102194
102172
102122
102119
101948
101706
101449
101223
101040
100896
100764
100624
100471
100267
99934.1
99393
98628.4
97527.6
96593.3
93677.4
102184
102182
102178
102171
102163
102154
102147
102140
102135
102130
102126
102122
102118
102116
102114
102114
102112
102107
102095
102069
102021
101939
101825
101686
101590
101721
101998
102138
102167
102163
102157
102158
102165
102164
102151
102104
102029
101819
100822
101009
101258
101171
101013
100855
100721
100591
100444
100240
99916.1
99421.9
98746.7
97759.8
96656
93719.6
102178
102176
102172
102165
102157
102149
102142
102135
102129
102124
102119
102113
102107
102102
102097
102092
102085
102073
102053
102021
101975
101915
101852
101787
101732
101764
101885
101981
102020
102032
102044
102069
102106
102152
102165
102039
101844
100695
100167
100837
101226
101233
101083
100926
100773
100646
100547
100410
100097
99518.7
98665.4
97515.9
96649.9
93462.8
102178
102176
102171
102165
102157
102149
102142
102135
102129
102124
102119
102113
102108
102102
102098
102092
102085
102072
102052
102020
101974
101913
101850
101783
101724
101759
101879
101975
102017
102031
102045
102071
102108
102117
102133
102055
101296
98214
97025.2
98425.9
99497.2
100963
101084
100912
100742
100613
100510
100360
100065
99571.5
98848
97807.3
96909.4
93678
102172
102170
102166
102159
102152
102144
102137
102130
102124
102118
102111
102104
102097
102089
102081
102071
102059
102042
102017
101983
101940
101890
101839
101790
101752
101755
101799
101848
101875
101894
101924
101983
102044
102228
102284
101170
97643.7
93517.4
94860.1
97852.7
99135.8
100952
101277
101114
100893
100749
100704
100641
100354
99782.5
98908.1
97859.5
96964.2
93526.3
102171
102170
102165
102159
102151
102144
102137
102130
102124
102118
102111
102104
102097
102089
102081
102071
102059
102041
102016
101982
101939
101889
101838
101788
101749
101749
101793
101843
101873
101893
101928
101996
102091
102227
102148
101473
94456.6
91342
93164.2
96065.1
97509
99755.5
101232
101139
100925
100740
100652
100548
100290
99834.4
99065.9
98101.4
97238.4
93767.7
102166
102164
102160
102154
102147
102139
102132
102125
102119
102112
102104
102096
102086
102076
102065
102051
102035
102013
101985
101950
101907
101859
101810
101766
101729
101709
101709
101718
101725
101738
101771
101850
101899
102142
101598
95306.8
89247.1
89274.1
92922.5
96631.2
98639.5
101000
101671
101425
101109
100931
100904
100849
100544
99994.3
99207.7
98377.2
97524.9
97995.7
102166
102164
102160
102154
102146
102139
102132
102125
102119
102112
102104
102096
102087
102076
102065
102051
102035
102013
101984
101949
101906
101858
101810
101765
101726
101705
101706
101715
101724
101739
101780
101900
102062
102193
101655
92826.1
86320
87985.5
92395.9
95636.1
98399.4
100695
101688
101462
101170
100967
100857
100746
100502
100087
99341.8
98792
97941.5
94832.6
102161
102159
102155
102149
102142
102135
102127
102121
102114
102106
102098
102088
102077
102064
102050
102033
102013
101988
101956
101918
101874
101826
101777
101728
101683
101644
101614
101591
101573
101565
101571
101624
101656
101238
98755.4
84311.6
84326.9
88431.9
93310.7
97109.1
100232
102184
102198
101733
101342
101161
101123
101018
100663
99978.2
99000.4
97877.2
97259.3
99541.9
102160
102159
102155
102149
102142
102134
102127
102120
102114
102106
102097
102088
102077
102064
102050
102033
102012
101987
101955
101917
101873
101825
101775
101726
101681
101641
101611
101589
101571
101559
101552
101603
101910
101326
90822.7
80856.7
83459.7
87923.2
92686.8
97123.4
100428
101984
102059
101703
101385
101221
101117
100999
100740
100199
99248.6
98719.9
98226.6
99576.5
102156
102154
102151
102145
102138
102130
102123
102116
102109
102101
102091
102080
102067
102052
102036
102016
101992
101964
101929
101889
101842
101791
101737
101681
101625
101568
101515
101465
101417
101369
101315
101290
101229
99908.3
86292.7
79243.7
84916.5
90565.3
95589.4
99459.2
101497
102378
102496
101973
101636
101496
101442
101335
101018
100121
98947.8
97210.6
95172.7
95518.3
102156
102154
102150
102145
102138
102130
102123
102116
102109
102100
102091
102080
102067
102052
102035
102016
101992
101963
101928
101888
101841
101790
101736
101680
101623
101567
101513
101463
101415
101361
101289
101148
100980
95765.8
81251.3
80362.4
85645.2
90601.9
95628.4
99468.6
101401
102444
102247
101868
101632
101531
101495
101433
101197
100268
98769.9
97686.9
97211.5
99537.8
102151
102150
102146
102141
102134
102127
102119
102112
102104
102095
102085
102073
102058
102042
102023
102000
101974
101942
101905
101861
101811
101756
101696
101632
101564
101492
101418
101342
101260
101175
101033
101447
100656
77232.5
71133.5
80529.8
88734.6
94510.2
99225.5
101867
102781
102622
102347
102139
101960
101896
101840
101721
101515
100894
100490
99085.7
94863
97213.8
102151
102150
102146
102141
102134
102127
102119
102112
102104
102095
102085
102072
102058
102042
102022
102000
101973
101941
101904
101860
101810
101755
101695
101630
101562
101490
101416
101341
101262
101167
101063
100739
96344.5
85959
77568.7
83749.5
90034.8
95041.7
99387.9
100744
102726
102732
102325
102032
101906
101909
101919
101888
101778
100820
99470.1
98328.7
95850.9
94923
102148
102146
102143
102137
102131
102123
102116
102108
102100
102091
102079
102066
102050
102032
102011
101986
101957
101923
101882
101835
101782
101722
101655
101583
101503
101416
101323
101226
101111
100984
100773
100463
101182
80913.1
82775.5
90516.2
96764.9
100840
103300
103566
103486
102797
102352
102289
102225
102222
102107
101829
101660
101508
101715
100116
94175.2
96420.7
102148
102146
102143
102137
102130
102123
102116
102108
102100
102090
102079
102066
102050
102032
102011
101986
101957
101922
101881
101834
101780
101720
101654
101582
101501
101415
101323
101227
101114
100991
100860
100531
95584.1
81252.7
84944.9
92027
97403.9
101217
103703
104037
103292
102875
102405
102226
102165
102220
102188
102029
101919
101355
100714
99586.6
94836.7
97843
102145
102143
102140
102134
102128
102120
102113
102105
102097
102087
102075
102060
102043
102024
102001
101974
101943
101906
101862
101812
101755
101690
101618
101538
101448
101348
101239
101120
100987
100830
100701
100794
105266
109381
102234
103441
105961
106411
105342
104287
103239
102599
102335
102417
102439
102537
102223
101645
101400
100804
99245.2
95870.8
90931.1
95943.8
102144
102143
102139
102134
102127
102120
102113
102105
102096
102086
102074
102060
102043
102023
102000
101974
101942
101905
101861
101811
101753
101689
101617
101536
101446
101347
101237
101122
100987
100836
100662
100534
102499
98795.8
99534.5
103330
106143
106653
105953
104048
103093
102638
102402
102390
102390
102543
102250
101739
101444
100174
98099.8
95240.3
90974.3
95517.8
102142
102141
102137
102132
102125
102118
102110
102102
102094
102083
102070
102055
102038
102017
101992
101964
101931
101891
101846
101793
101732
101663
101586
101499
101400
101289
101167
101030
100881
100702
100535
100294
100715
103601
103938
105963
107871
107658
105718
103635
102526
102290
102438
102613
102705
102937
102688
102186
101817
100021
96614.7
93062.5
88506.1
97078.5
102142
102140
102137
102132
102125
102118
102110
102102
102093
102083
102070
102055
102037
102016
101992
101963
101930
101890
101845
101791
101731
101662
101585
101497
101399
101286
101165
101025
100868
100683
100490
100067
100410
101067
103135
106233
108177
107449
105489
103419
102433
102289
102473
102602
102640
102878
102620
102069
101626
99291
96204.4
92733.4
88179.3
96549.3
102140
102138
102135
102130
102123
102116
102108
102100
102091
102080
102067
102051
102033
102011
101985
101956
101921
101880
101832
101777
101713
101642
101561
101468
101364
101246
101114
100967
100806
100617
100409
100176
99774.7
100183
101497
103935
105746
106149
104723
102905
102072
102188
102600
102881
102965
103144
102664
102218
101895
100284
98702.8
94395.9
83678.7
93087.6
102140
102138
102135
102130
102123
102116
102108
102100
102091
102080
102067
102051
102032
102011
101985
101955
101920
101879
101831
101776
101712
101640
101559
101467
101362
101244
101114
100964
100799
100607
100399
100071
99779.2
99945.4
101774
104119
105235
105209
104189
102779
102003
102177
102591
102863
102892
103032
102721
102242
101708
99815.1
99029.6
95049.6
84254.9
93073.5
102139
102137
102134
102129
102122
102115
102107
102099
102090
102078
102065
102049
102030
102007
101981
101950
101914
101872
101823
101766
101701
101627
101543
101448
101339
101217
101082
100931
100764
100574
100359
100129
99810.7
99487.6
99146
99461
98969.9
98874.9
98740.7
99846.5
101036
101880
102417
102983
103216
103298
102775
102370
102882
104195
107518
103877
80675.6
86651.2
102138
102137
102134
102128
102122
102115
102107
102099
102089
102078
102065
102048
102029
102007
101980
101949
101913
101871
101821
101764
101699
101625
101542
101446
101338
101216
101082
100932
100763
100561
100355
100156
99785.1
99553.1
99659.5
99747.7
99784.9
99216.3
98956.1
99958.4
101138
101936
102488
102984
103126
103155
102762
102490
102608
103710
107762
104254
80869.4
86686.6
102137
102136
102132
102127
102121
102114
102106
102098
102088
102077
102063
102047
102027
102004
101978
101946
101909
101866
101816
101758
101692
101617
101532
101435
101325
101202
101065
100915
100747
100562
100355
100123
99803.6
99331
98758.6
97926.9
96774.6
95843.7
96018.6
97471.8
99275.1
101078
102304
102804
103082
102971
102898
102984
103417
106808
111346
106257
84507.7
72162
102137
102136
102132
102127
102121
102114
102106
102098
102088
102077
102063
102046
102027
102004
101977
101945
101908
101865
101815
101757
101691
101616
101531
101434
101324
101201
101066
100916
100748
100562
100362
100152
99860.5
99419.3
98805
97813.7
96726
95847.7
95893
97240.9
99130.8
101442
102316
102780
103031
102955
102707
102743
103678
106673
111609
106993
85087
71961.4
101297
102508
101116
103148
102602
100899
100454
100833
100884
100707
101201
102245
101218
102371
102368
100788
100831
100904
100695
100784
102332
101555
100908
101534
100702
100996
100832
100910
101006
100722
100814
102378
101471
100564
101512
100208
100799
100843
100613
100826
100211
101106
102037
102235
102028
102322
101964
102307
101937
101503
101712
101477
101332
101076
101307
101062
102020
102189
101958
102295
101989
102222
101870
101461
101652
101442
101337
101044
101215
101002
102676
102537
102668
102591
102852
102603
102860
100156
100648
100785
100693
99994.9
101426
101156
101435
101023
101314
100959
101314
102634
102453
102543
102563
102764
102487
102645
99764.3
100357
100651
100536
99735.8
101429
101156
101431
100960
101335
101012
101357
102555
102460
102620
102161
102012
102159
102027
100400
102730
102104
102048
100626
100898
101041
101437
101067
101422
101228
101498
101158
101484
102511
102365
102421
102129
101953
102108
101951
99698
102052
101766
100108
101771
100332
100761
101443
101129
101466
101214
101547
101297
101582
101235
101508
101173
101593
101399
101591
101386
100973
100890
100894
101275
101337
101251
101331
101060
101427
101054
101558
101346
101555
101350
100976
100853
101104
101234
101355
101244
101377
102404
101964
101247
101913
102470
102468
101207
102002
101913
102102
103048
103124
103114
103099
103133
102739
102840
103004
102680
102958
102987
102424
102729
101653
100247
100678
100373
100632
99975.3
100047
99957.9
100327
100856
100849
100827
100298
100144
100012
100318
100684
100744
100716
100339
102597
102059
101077
101760
101829
101886
101059
101577
101585
99737.6
102915
102391
102631
101985
102985
107420
100068
102585
103904
102513
102434
106791
102675
100324
99827.2
100615
100568
100510
99877.7
99837.5
99735.3
100091
100686
100706
100235
100674
99781
100069
100196
100727
100777
100734
100291
99615.4
99765.1
100202
102618
101932
102035
100052
99488.1
99457.4
99848
100985
100913
100982
99997.6
99778.6
100827
100829
99785.3
100926
100907
100962
101007
100932
101047
100839
100700
100835
100867
100811
100846
100726
100745
100945
100902
100886
100879
100679
100843
100751
100656
100796
98697
99496.9
99972
102357
102109
101966
100402
99114.5
98842.8
99573.4
100760
100318
99898.4
100605
99572.9
100243
100628
100581
99812.8
100378
100764
100766
100648
100748
98559.5
117695
100120
100829
100704
100802
99839.5
100589
100663
100333
100614
100614
99900.1
100348
100560
100562
98647.5
102737
102428
102565
102855
102391
102836
102771
102808
102387
102297
102460
102145
102520
102303
102740
102540
102351
102672
102374
102795
102651
100676
100724
100896
100829
100737
100848
100624
100642
100887
100625
100735
100747
100765
100551
102254
102281
101787
103006
101969
102525
102260
100255
100517
100779
100652
100555
100308
100595
100511
100784
100705
100746
100598
100732
100503
100938
101659
101223
101537
101621
101195
100999
100873
101620
101563
101149
101655
100854
101194
100823
100991
100942
100917
100888
100836
100930
100694
100756
100840
100708
100787
100641
100739
101019
101572
101173
101438
101038
101527
101117
101057
101687
101450
101220
101573
101113
101260
100634
100737
100675
100968
100622
100758
100782
100394
100788
101077
100991
100819
100826
100107
100090
100589
99463.2
100067
100550
99984.7
99431.3
99393.2
99534.1
99376
99432.7
99386.2
99359.5
99309.3
99302
100022
100019
100360
99338.4
100502
99393.4
99914.6
99905.2
100141
99732.5
99493.5
100088
99908.2
99434.7
99435
99908.1
99257.1
99519
99675.3
99789.8
99928.5
98991.9
99429
99980.4
99263.7
99630.9
99042.4
99400.7
99424.4
101590
100798
101151
100476
100882
101466
101208
102191
102897
102871
102275
102159
102721
102814
102021
101615
100481
100995
101296
100862
101251
101672
100980
101053
100174
98468.3
99832.4
101116
98852.8
100147
100875
99087.9
100274
99015.5
100167
99692.8
103378
100613
99896.4
100119
99911.1
99739
100931
100592
98897.3
100894
99898.1
100385
101223
102130
101548
102384
102130
101219
101480
100477
99901.9
99747
100576
100359
99753.9
99630.3
100428
101230
102388
102180
101611
102148
101464
101378
101407
102183
101651
102494
101290
102216
101798
101274
101785
100446
102576
100608
99833.6
100498
99867.7
101810
102451
102321
89628.9
102327
101817
102414
103340
103083
103273
103085
103119
103337
103266
103407
103266
103269
103382
103348
103123
103203
103263
103366
103111
103141
103373
103142
103373
103345
102742
102748
102864
103033
102941
103018
102949
103103
102478
102209
101443
101663
101856
102630
102850
102720
103075
102795
102243
102326
102674
102865
103031
102468
102766
102668
99842.7
100614
99594.5
100315
100021
100523
99479.3
99077.9
100362
99317.1
99537.8
99200
99353.8
99297.9
99339
99545.9
100267
100038
99079.4
99457.4
100263
99217
100007
99966.9
100664
100624
100501
100331
100662
100503
100637
100880
101026
101057
100883
100862
100992
100842
101010
100667
100299
100605
100491
100637
100514
100665
100246
100240
100534
100556
100307
100460
100523
100561
100442
100685
100824
100696
100825
100507
100317
100574
100462
100481
100431
100573
100732
100917
100769
100866
99968
100942
101546
99979.8
101365
99577
98386.3
100086
100705
99724.6
101262
100679
101688
102243
100787
101857
101613
99675.6
99200
98683.7
99113.4
98758.1
100244
101052
100827
101603
99924.5
101247
100550
98646.3
98908.3
98521
98940.8
99623.2
98828.6
99258.6
99046
99672.2
100369
100247
99526.6
100689
99505.2
99756
105208
103324
103369
103385
103280
101058
103299
118586
100766
103105
100468
103138
102442
102618
111123
102811
101826
101818
105574
107421
102782
105460
105468
101713
107403
102662
105459
103286
104594
102759
101658
102660
98439
100756
106182
102780
104593
103929
102747
108769
103768
102720
102322
102981
100272
108682
103454
103474
99538.3
100268
99106.6
99923.2
99734.8
100348
98830.3
98784.7
98520.1
98922.2
99440.7
98679.3
98726.6
98950
98728.3
99692.9
100027
100363
99108.6
100421
99130.9
100159
99820.8
99792
100524
100065
100406
100343
100401
100337
100529
100670
100789
100686
100773
100519
100094
100539
100452
100581
100416
100381
100695
100816
100718
100789
99856.1
99970.9
100609
100491
100391
100270
100543
100583
100444
100758
100811
100806
100751
100771
100838
100755
100816