/*--------------------------------*- C++ -*----------------------------------*\
| =========                 |                                                 |
| \\      /  F ield         | OpenFOAM: The Open Source CFD Toolbox           |
|  \\    /   O peration     | Version:  4.1                                   |
|   \\  /    A nd           | Web:      www.OpenFOAM.org                      |
|    \\/     M anipulation  |                                                 |
\*---------------------------------------------------------------------------*/
FoamFile
{
    version     2.0;
    format      ascii;
    class       surfaceScalarField;
    location    "21";
    object      phi;
}
// * * * * * * * * * * * * * * * * * * * * * * * * * * * * * * * * * * * * * //

dimensions      [0 3 -1 0 0 0 0];

internalField   nonuniform List<scalar> 
11516
(
9.97907e+06
2818.86
18738.7
1.0023e+07
7195.75
11535
1.00427e+07
9148.92
33575.8
1.0039e+07
9129.52
55973.6
1.00097e+07
9032.78
80997.6
9.95279e+06
8977.42
108756
9.86671e+06
8967.78
138652
9.75025e+06
9041.78
170266
9.60263e+06
9157.7
202687
9.4227e+06
9099.08
235019
9.2131e+06
8845.23
265130
8.97993e+06
8648.3
289862
8.74302e+06
9081.14
304753
8.52666e+06
8328.32
306957
8.35647e+06
2920.92
291288
8.25217e+06
4289.87
265838
8.20277e+06
18546.1
241918
8.15005e+06
25356
206480
8.14108e+06
14059.7
140807
8.1818e+06
11841.3
35586.9
8.1295e+06
-32138.6
132356
7.88353e+06
-34443.2
311228
7.76425e+06
6296.88
140054
8.09336e+06
68587.9
-360463
9.00905e+06
85357.3
-951291
1.04282e+07
74440.8
-1.42726e+06
1.22586e+07
67116.1
-1.82317e+06
1.43462e+07
60511.6
-2.07718e+06
1.62884e+07
54118.7
-1.94256e+06
1.74928e+07
31996.4
-1.20211e+06
1.75237e+07
28059.2
-45111.8
1.63569e+07
88738.3
1.0806e+06
1.41516e+07
110799
2.09454e+06
1.11072e+07
100013
2.97298e+06
7.54571e+06
127492
3.49884e+06
5.40808e+06
-717896
3.12131e+06
4.60065e+06
-410936
1.65512e+06
6.02721e+06
462291
-1.38291e+06
6.56286e+06
1.23969e+06
-1.33807e+06
8.34114e+06
-790147
-626841
1.06587e+07
-2.71174e+06
658995
1.32325e+07
-2.00239e+06
294128
1.49069e+07
-660692
299552
1.60253e+07
6.41054e+06
-6.31539e+06
1.97037e+07
4.90472e+06
-8.12139e+06
1.26164e+07
684924
6.69174e+06
-4.70708e+06
9.79477e+06
7.67286e+06
-1.13688e+07
4.99609e+06
1.61507e+06
-6.97133e+06
-5.17686e+06
685926
-1.57503e+07
-6.74617e+06
1.6019e+07
-2.04885e+07
-4.7051e+06
9.36768e+06
3.496e+06
-8.36726e+06
-1.59297e+07
1.6894e+07
-4.21727e+06
-9.48813e+06
-618748
-1.4774e+07
9.98295e+06
18832
1.00221e+07
11873.9
1.00411e+07
34009.2
1.00372e+07
56343.3
1.0008e+07
81156
9.95153e+06
108557
9.86626e+06
137944
9.75108e+06
168915
9.60525e+06
200499
9.42794e+06
232024
9.22171e+06
260855
8.99448e+06
284774
8.76142e+06
299193
8.54335e+06
299060
8.36124e+06
282514
8.24532e+06
251874
8.183e+06
240274
8.16903e+06
166569
8.19512e+06
80664.8
8.27449e+06
-16056.8
8.24348e+06
29285.5
7.98571e+06
243170
7.74439e+06
265989
7.98009e+06
-143923
8.89337e+06
-797736
1.03419e+07
-1.34009e+06
1.22105e+07
-1.7666e+06
1.43223e+07
-2.01926e+06
1.63069e+07
-1.90433e+06
1.76318e+07
-1.2752e+06
1.78218e+07
-151175
1.68503e+07
1.06716e+06
1.48759e+07
2.10239e+06
1.21786e+07
2.82611e+06
9.58469e+06
2.82574e+06
7.46373e+06
1.60188e+06
7.38541e+06
25144.4
1.28706e+07
-4.4925e+06
2.01239e+07
-5.50869e+06
2.46099e+07
-4.99442e+06
2.37883e+07
-1.62256e+06
2.13522e+07
717800
1.47981e+07
6.14347e+06
9.60678e+06
1.17761e+07
9.35929e+06
5.30536e+06
7.86248e+06
2.48935e+06
6.58859e+06
1.12178e+07
6.21418e+06
5.44972e+06
986174
266627
-5.38558e+06
-341751
-8.417e+06
-1.84039e+06
3.63698e+06
-2.06619e+07
1.5591e+07
-1.63867e+07
-1.6022e+07
1.00145e+07
2877.52
9296.76
1.01099e+07
7445.72
-24878.8
1.02002e+07
9506.43
-369.193
1.02903e+07
9459.11
20911.2
1.03834e+07
9319.41
41703.4
1.04817e+07
9255.18
63562.8
1.05867e+07
9287.17
86645.8
1.06987e+07
9468.98
111421
1.08157e+07
9761.66
138961
1.09344e+07
10035.5
168825
1.10499e+07
10291.8
201152
1.11573e+07
10372
232834
1.126e+07
12530.6
263495
1.13629e+07
10326.8
277214
1.14639e+07
15195
295123
1.15152e+07
21668.8
331400
1.15725e+07
34877.9
354345
1.13688e+07
18975.2
489977
1.08965e+07
13922.7
643275
1.0222e+07
13714
720676
9.61761e+06
17301.8
733493
9.30251e+06
12035
619243
9.34006e+06
-13303
115534
9.76667e+06
-20749.3
-769883
1.05222e+07
-10803.9
-1.7018e+06
1.15676e+07
-16427.2
-2.46346e+06
1.28004e+07
9225.06
-3.06998e+06
1.40572e+07
44189.9
-3.37495e+06
1.50584e+07
91178.9
-3.02392e+06
1.57333e+07
83691.4
-1.94769e+06
1.60602e+07
-6160.42
-354645
1.58401e+07
-121.46
1.30622e+06
1.51387e+07
10003
2.78809e+06
1.39993e+07
27745.9
4.08301e+06
1.2164e+07
188689
5.19922e+06
9.36718e+06
154128
5.86341e+06
7.24736e+06
-226205
4.20715e+06
5.57924e+06
-62017.3
729032
2.63576e+06
50256.2
1.87946e+06
1.61777e+06
-812941
1.4022e+06
2.89214e+06
-1.17711e+06
941862
4.21294e+06
-490085
61968.5
6.53123e+06
527272
-1.51992e+06
2.54766e+06
2.91168e+06
-4.3054e+06
-5.66361e+06
2.47438e+06
-1.73695e+06
-1.0916e+07
9.81558e+06
2.84728e+06
-1.30232e+07
5.94878e+06
4.41551e+06
-1.72714e+07
1.70666e+06
4.55053e+06
-2.2311e+07
-386644
6.31659e+06
-1.16237e+07
-4.97402e+06
1.01928e+07
-1.19917e+07
-7.40432e+06
1.67696e+07
-2.72014e+07
-3.9427e+06
2.73423e+06
-2.26671e+07
-2.48139e+06
-1.18712e+07
-292924
-9.91531e+06
1.00186e+07
9344.72
1.01088e+07
-24613
1.0198e+07
-446.143
1.02873e+07
20761.2
1.03796e+07
41574
1.04771e+07
63460.4
1.05811e+07
86552.3
1.06918e+07
111310
1.08074e+07
138663
1.09245e+07
168523
1.1039e+07
199737
1.11471e+07
231984
1.12486e+07
260520
1.13462e+07
278300
1.14465e+07
286909
1.15498e+07
295694
1.16033e+07
350176
1.14088e+07
437805
1.09127e+07
615859
1.02439e+07
680214
9.63494e+06
662747
9.31608e+06
576377
9.37104e+06
196307
9.77832e+06
-576375
1.04639e+07
-1.50079e+06
1.14352e+07
-2.33534e+06
1.27551e+07
-3.08089e+06
1.41544e+07
-3.37034e+06
1.53692e+07
-3.01734e+06
1.63978e+07
-2.20458e+06
1.70434e+07
-791139
1.70879e+07
1.03019e+06
1.65651e+07
2.63777e+06
1.55349e+07
3.91408e+06
1.40855e+07
4.50764e+06
1.22967e+07
3.67457e+06
1.05848e+07
1.74527e+06
9.68948e+06
-3.30197e+06
9.80827e+06
-5.33474e+06
7.34388e+06
-3.10472e+06
1.76099e+06
2.98648e+06
-5.64419e+06
7.93961e+06
-1.36256e+07
1.49225e+07
-1.58762e+07
1.72311e+07
-1.62531e+07
8.6698e+06
-3.83508e+06
594862
7.95382e+06
5.71224e+06
1.36612e+07
1.6187e+06
1.80828e+07
-4.50645e+06
1.62996e+07
-3.6427e+06
96611.4
6.8057e+06
-2.26405e+07
-2.16617e+06
-2.21876e+07
-1.95355e+07
-9.19753e+06
1.00001e+07
2907.83
12084.2
1.0068e+07
7592
-36020
1.01239e+07
9382.96
-2492.34
1.01708e+07
9223.34
26396.6
1.02104e+07
9004.95
53610.9
1.02445e+07
8830.27
80536.9
1.02759e+07
8724.92
106517
1.03067e+07
8726.38
132467
1.03406e+07
8854.82
157728
1.03785e+07
8879.95
183270
1.04222e+07
8822.65
208157
1.04748e+07
8745.99
231104
1.05417e+07
9837.72
251670
1.06327e+07
10746.6
256616
1.07767e+07
16948.9
253572
1.10157e+07
24534.6
228854
1.13431e+07
21921.5
184113
1.12849e+07
4118.8
591630
1.08846e+07
19768
1.047e+06
1.03368e+07
10000.5
1.2716e+06
9.80788e+06
9695.98
1.25996e+06
9.49043e+06
3597.2
933255
9.42807e+06
-26014.2
199447
9.56519e+06
-55248.2
-862153
9.87683e+06
-58862.9
-1.96921e+06
1.04438e+07
-38769
-3.01021e+06
1.13199e+07
34314.6
-3.99433e+06
1.21333e+07
112321
-4.30364e+06
1.25065e+07
199199
-3.58883e+06
1.24972e+07
160549
-2.08508e+06
1.22015e+07
75560.9
-121198
1.1662e+07
133112
1.72214e+06
1.11031e+07
197309
3.15606e+06
1.06321e+07
152949
4.44845e+06
1.03183e+07
-129055
5.65832e+06
9.3453e+06
-126989
7.03102e+06
6.98372e+06
-10566.9
6.69502e+06
3.86613e+06
-22110.8
3.96017e+06
565869
-149168
5.4185e+06
-1.92553e+06
-1.1222e+06
5.12141e+06
-3.42001e+06
-1.52302e+06
4.02178e+06
-4.89049e+06
-2.14503e+06
4.03789e+06
-1.63036e+06
-566489
-3.66518e+06
-4.50582e+06
3.27167e+06
-3.99277e+06
-8.76647e+06
4.61116e+06
-1.35748e+06
-1.39784e+07
7.5036e+06
1.40984e+06
-1.28192e+07
6.13691e+06
-2.11253e+06
-1.03746e+07
1.78073e+06
624287
-8.30326e+06
302896
3.90173e+06
1.43002e+06
-3.30136e+06
3.59381e+06
1.52182e+07
-4.41515e+06
7.27798e+06
2.01374e+07
-7.79762e+06
5.37797e+06
1.19756e+07
-6.68246e+06
2.69147e+06
-2.48456e+06
-4.64748e+06
1.00041e+07
11990
1.00669e+07
-36477.9
1.01219e+07
-2824.97
1.01683e+07
26064.6
1.02074e+07
53214.1
1.02411e+07
80056.9
1.0272e+07
105953
1.03024e+07
131821
1.03355e+07
157007
1.03727e+07
182542
1.04157e+07
207029
1.04682e+07
230153
1.05357e+07
249798
1.06296e+07
255728
1.07716e+07
245193
1.09946e+07
219889
1.12916e+07
185885
1.12543e+07
521048
1.09027e+07
1.00188e+06
1.03793e+07
1.22208e+06
9.84817e+06
1.2072e+06
9.50627e+06
921051
9.39842e+06
272779
9.48968e+06
-732162
9.76943e+06
-1.85195e+06
1.0342e+07
-2.96055e+06
1.12681e+07
-3.98217e+06
1.22399e+07
-4.23042e+06
1.29573e+07
-3.52711e+06
1.31892e+07
-2.26362e+06
1.29209e+07
-437704
1.2627e+07
1.46264e+06
1.25083e+07
2.98171e+06
1.24519e+07
4.14014e+06
1.21196e+07
4.75112e+06
1.16418e+07
4.07611e+06
1.00303e+07
3.39581e+06
5.48578e+06
1.26186e+06
1.10822e+06
-1.03518e+06
-3.91637e+06
763215
-9.70885e+06
7.37014e+06
-1.30913e+07
9.30672e+06
-1.44948e+07
1.59788e+07
-8.66455e+06
1.49899e+07
-2.30467e+06
7.31846e+06
-1.13271e+06
7.23956e+06
6.23718e+06
4.64253e+06
1.15336e+07
-1.86238e+06
1.51597e+07
-7.87824e+06
1.71902e+07
-9.09846e+06
1.92708e+07
182217
1.07941e+07
-1.71651e+06
-9.88735e+06
-5.79217e+06
-7.88546e+06
9.99919e+06
2798.67
14608.3
1.00641e+07
6971.53
-47172.9
1.01177e+07
8968.59
-4618.55
1.01624e+07
8886.05
31678.1
1.0199e+07
8672.74
65864.4
1.02282e+07
8484.98
99406.1
1.02506e+07
8357.34
132259
1.02675e+07
8333.68
164154
1.02792e+07
8412.02
195368
1.02853e+07
8436.65
226484
1.0284e+07
8158.82
256890
1.02754e+07
8066.85
285615
1.02627e+07
7786.49
308777
1.02634e+07
10016.6
317506
1.0305e+07
10570.3
290419
1.04373e+07
22012.5
224876
1.06574e+07
12748.7
99941.9
1.09086e+07
27649.1
393078
1.07413e+07
13124.9
1.22517e+06
1.04056e+07
6551.61
1.61304e+06
1.00034e+07
4429
1.6634e+06
9.67432e+06
-5337.77
1.26845e+06
9.40264e+06
-37740.3
503554
9.15353e+06
-64551.1
-559998
8.9873e+06
-76599
-1.74053e+06
8.99704e+06
-68090.4
-2.96624e+06
9.13739e+06
9930.93
-4.15231e+06
8.96801e+06
87096.8
-4.22097e+06
8.26278e+06
115792
-2.99293e+06
7.07826e+06
156482
-1.04802e+06
5.85276e+06
165609
946019
5.05309e+06
171369
2.35765e+06
4.77193e+06
207042
3.24957e+06
5.14813e+06
124083
3.95469e+06
6.16946e+06
-207053
4.85151e+06
7.40349e+06
-544060
6.3429e+06
6.28625e+06
288260
7.46966e+06
3.33956e+06
207937
6.67049e+06
1.0723e+06
-274099
7.94999e+06
-166150
-1.08597e+06
7.35809e+06
-142225
-951984
4.95199e+06
1.75679e+06
-2.55639e+06
4.63952e+06
3.19758e+06
608650
-5.50556e+06
621044
4.66665e+06
-5.71007e+06
212989
5.67077e+06
-6.19977e+06
3.25133e+06
4.88149e+06
-6.20917e+06
5.33761e+06
3.72695e+06
-7.77731e+06
4.39482e+06
2.48824e+06
-977057
147799
689170
7.27936e+06
1.80687e+06
-1.82143e+06
3.39547e+06
1.09669e+07
-3.4422e+06
1.23963e+06
2.21465e+07
-5.87089e+06
-157351
2.73369e+07
-3.76371e+06
1.06922e+06
-605324
-2.61066e+06
1.0003e+07
14649.9
1.00633e+07
-46937.7
1.01158e+07
-4919.81
1.016e+07
31185.5
1.01961e+07
65295.7
1.0225e+07
98785.7
1.0247e+07
131596
1.02635e+07
163463
1.02747e+07
194662
1.02801e+07
225778
1.02783e+07
256054
1.02697e+07
284505
1.026e+07
307900
1.02591e+07
315182
1.03018e+07
289142
1.04212e+07
226139
1.06178e+07
106836
1.08161e+07
403303
1.07531e+07
1.09399e+06
1.04578e+07
1.53235e+06
1.00698e+07
1.603e+06
9.71846e+06
1.26782e+06
9.38243e+06
566710
9.09338e+06
-513554
8.86613e+06
-1.71119e+06
8.82329e+06
-2.99351e+06
8.90886e+06
-4.05886e+06
8.74151e+06
-3.97238e+06
8.15707e+06
-2.82017e+06
7.1475e+06
-1.09025e+06
6.09634e+06
784548
5.52227e+06
2.21889e+06
5.49868e+06
3.21993e+06
6.00088e+06
3.77104e+06
6.70144e+06
3.84468e+06
8.32939e+06
1.92251e+06
8.18335e+06
3.82405e+06
4.54877e+06
5.07797e+06
-1.87172e+06
4.96771e+06
-8.1267e+06
5.91239e+06
-1.10936e+07
9.37112e+06
-1.61543e+07
1.18613e+07
-1.74482e+07
1.80651e+07
-1.03115e+07
1.27797e+07
-5.37192e+06
8.287e+06
-1.40785e+06
8.30497e+06
4.72564e+06
2.26306e+06
9.70323e+06
-4.40058e+06
1.05169e+07
-8.19793e+06
1.00643e+07
-1.07364e+07
1.04869e+07
-3.82099e+06
1.30715e+07
-1.03553e+07
1.11027e+07
-7.68614e+06
-4.2819e+06
9.99976e+06
2783.18
17388.1
1.00606e+07
7057.43
-56414.2
1.01111e+07
8711.03
-6707.06
1.01538e+07
8547.62
35888.9
1.01893e+07
8347.22
76130.2
1.02183e+07
8197.3
115649
1.02417e+07
8120.91
154240
1.02602e+07
8164.58
191589
1.02736e+07
8317.7
228826
1.02807e+07
8431.87
266235
1.02785e+07
8197.34
303786
1.02628e+07
7788.21
341158
1.02343e+07
7705.26
374329
1.01946e+07
8217.79
398505
1.01495e+07
11468.6
390669
1.01071e+07
21444.9
360295
1.00273e+07
25990.6
292567
1.02752e+07
-2721.9
268175
1.05823e+07
-34052.5
981846
1.05755e+07
25181.4
1.61832e+06
1.03521e+07
19349.3
1.8803e+06
1.00549e+07
-7394.61
1.59025e+06
9.60518e+06
-41189.5
996890
8.98714e+06
-55891.1
116696
8.26421e+06
-86797.9
-932463
7.46711e+06
-82539.7
-2.07765e+06
6.5596e+06
-17151
-3.21095e+06
5.3871e+06
47420
-3.08264e+06
3.96265e+06
44799.6
-1.60323e+06
2.52185e+06
50026.7
348944
1.45224e+06
54225.7
1.96504e+06
869935
59498.3
2.88526e+06
739178
86319.3
3.30107e+06
1.0489e+06
158914
3.49213e+06
2.22535e+06
105260
3.57367e+06
4.49949e+06
530737
3.56549e+06
5.27802e+06
1.07128e+06
5.64478e+06
3.36987e+06
445353
8.1443e+06
2.79261e+06
-769968
9.23359e+06
2.96373e+06
-1.45374e+06
8.65482e+06
3.34111e+06
-1.05094e+06
5.61849e+06
7.65991e+06
-2.91013e+06
3.2769e+06
8.49357e+06
-2.92954e+06
-3.35034e+06
6.78847e+06
1.60012e+06
-5.50303e+06
6.00788e+06
3.34689e+06
-8.66319e+06
7.00484e+06
3.2521e+06
-1.03689e+07
7.88775e+06
3.01291e+06
-1.17772e+07
5.15365e+06
2.84693e+06
-1.34618e+06
-407097
1.19802e+06
1.12635e+07
-1.30285e+06
-1.34186e+06
4.93366e+06
884862
-3.22769e+06
1.73471e+06
8.29151e+06
-7.85424e+06
-95693.8
1.25831e+07
-1.67369e+06
-1.76838e+06
5.435e+06
-4.72329e+06
1.00035e+07
17217
1.00595e+07
-57192.4
1.01092e+07
-7368.71
1.01514e+07
35195.4
1.01865e+07
75317.9
1.02151e+07
114697
1.02381e+07
153147
1.02562e+07
190365
1.02691e+07
227473
1.02755e+07
264738
1.02724e+07
302077
1.02571e+07
338778
1.02303e+07
371152
1.01928e+07
393377
1.01563e+07
383927
1.01204e+07
351361
1.00612e+07
276479
1.02076e+07
310410
1.05121e+07
789892
1.05859e+07
1.50517e+06
1.04353e+07
1.79068e+06
1.01197e+07
1.59058e+06
9.61003e+06
1.04917e+06
8.91105e+06
132187
8.06517e+06
-947007
7.17591e+06
-2.17708e+06
6.23617e+06
-3.12635e+06
5.13477e+06
-2.81505e+06
3.87816e+06
-1.51276e+06
2.58666e+06
254191
1.61267e+06
1.81347e+06
1.10335e+06
2.78855e+06
1.09014e+06
3.31873e+06
1.41514e+06
3.60398e+06
3.14012e+06
2.2393e+06
5.66755e+06
-81208.4
6.92551e+06
3.60613e+06
5.82478e+06
6.54758e+06
2.07082e+06
7.91001e+06
-2.59626e+06
9.06182e+06
-3.73278e+06
9.44137e+06
-7.53868e+06
1.27383e+07
-1.20752e+07
1.96515e+07
-1.12014e+07
1.34572e+07
-8.82692e+06
9.22258e+06
-2.57849e+06
5.24451e+06
3.84061e+06
-1.26062e+06
7.7961e+06
-5.77277e+06
7.12312e+06
-6.72348e+06
3.08189e+06
-8.48666e+06
-210416
-4.02293e+06
-1.37345e+07
-4.86775e+06
-1.43793e+07
-8.92134e+06
-100871
9.9993e+06
2593.12
18558.3
1.00555e+07
6079.27
-65559.4
1.01025e+07
7954.24
-8891.6
1.01426e+07
7854.59
39173.4
1.01764e+07
7629.11
84333.4
1.02043e+07
7439.93
129023
1.02274e+07
7325.22
172300
1.02462e+07
7337.86
214358
1.02609e+07
7451.71
256341
1.02703e+07
7500.89
298456
1.02704e+07
7122.66
341434
1.02563e+07
6126.75
384507
1.02247e+07
5292.35
425609
1.01701e+07
3264.68
462155
1.00916e+07
5774.2
489865
9.98599e+06
2392.9
497542
9.82012e+06
-980.09
542562
9.7417e+06
-82405.3
513358
1.00304e+07
-58384.6
824597
1.03233e+07
83005.5
1.30155e+06
1.04794e+07
70024.7
1.71788e+06
1.03905e+07
17156.4
1.72619e+06
9.96967e+06
-29356.4
1.4859e+06
9.17488e+06
-42762.4
977092
8.04662e+06
-90334
312325
6.58058e+06
-74171.8
-503616
4.927e+06
-18686
-1.50962e+06
3.38077e+06
38556.5
-1.5594e+06
1.98411e+06
16471.8
-216520
804610
-5463.17
1.53405e+06
-54790.2
2460.29
2.81664e+06
-615948
20495.8
3.42363e+06
-994747
54691.6
3.61522e+06
-1.34107e+06
274778
3.55964e+06
-2.36465e+06
1.92978e+06
2.6552e+06
143155
964471
42549.4
4.5452e+06
601512
537446
5.10097e+06
427978
7.08243e+06
4.77735e+06
-782917
1.02367e+07
5.49063e+06
-1.65639e+06
9.48881e+06
6.22936e+06
-1.4769e+06
6.30841e+06
9.28684e+06
-4.3139e+06
4.27918e+06
9.96094e+06
-4.61079e+06
262876
9.69039e+06
-1.14186e+06
-4.39221e+06
9.384e+06
752683
-9.33193e+06
8.79226e+06
1.17596e+06
-1.12639e+07
6.76744e+06
1.25713e+06
-1.15067e+07
1.93321e+06
1.93936e+06
996198
-2.19956e+06
1.59791e+06
1.30717e+07
-2.19072e+06
-723374
4.5769e+06
4.51596e+06
-3.59951e+06
-2.21554e+06
1.27875e+07
-6.0734e+06
-2.81546e+06
1.69294e+07
-2.64427e+06
-3.73885e+06
-355414
-5.29224e+06
1.00028e+07
18619.8
1.00548e+07
-65175.5
1.01008e+07
-9199.6
1.01402e+07
38607.6
1.01736e+07
83656.2
1.02012e+07
128270
1.02239e+07
171496
1.02423e+07
213529
1.02564e+07
255513
1.02649e+07
297638
1.0264e+07
340613
1.02495e+07
383384
1.02182e+07
423686
1.01669e+07
460591
1.0089e+07
482888
9.97749e+06
498520
9.76594e+06
535650
9.45501e+06
600639
9.47547e+06
768853
9.98991e+06
1.12765e+06
1.0376e+07
1.52429e+06
1.03986e+07
1.64151e+06
9.99315e+06
1.46345e+06
9.06781e+06
1.03238e+06
7.78932e+06
258638
6.24153e+06
-685546
4.68862e+06
-1.57994e+06
3.2763e+06
-1.35691e+06
1.99241e+06
-209252
880083
1.35914e+06
60833.1
2.63285e+06
-457100
3.32081e+06
-699199
3.61396e+06
-563987
3.7313e+06
3.43698e+06
133060
4.38864e+06
-113105
6.52309e+06
2.03701e+06
6.75449e+06
6.68251e+06
5.09931e+06
8.67118e+06
2.32018e+06
1.00987e+07
342019
9.85804e+06
-3.19389e+06
1.18087e+07
-6.1608e+06
1.77893e+07
-6.43371e+06
1.23261e+07
-2.75526e+06
6.09651e+06
2.68263e+06
800265
6.25033e+06
-3.84011e+06
7.92807e+06
-5.9183e+06
7.58363e+06
-5.3694e+06
4.61677e+06
-6.81991e+06
3.69685e+06
-7.11708e+06
-2.25763e+06
-5.46339e+06
-6.35338e+06
-7.5416e+06
-4.96214e+06
9.99983e+06
2571.87
20613.5
1.00507e+07
6293.7
-70971.5
1.00935e+07
7759.08
-9663.08
1.01305e+07
7578.41
42687.9
1.01623e+07
7392.09
92073.7
1.01889e+07
7279.42
141436
1.02115e+07
7265.67
189063
1.02305e+07
7399.37
235623
1.02461e+07
7643.09
281993
1.02562e+07
7808.77
329337
1.02575e+07
7490.84
377125
1.02433e+07
6354.7
426300
1.02068e+07
4770.35
475844
1.01467e+07
2623.08
525450
1.00588e+07
1781.7
577762
9.9414e+06
-232.314
623799
9.80702e+06
1944.78
710095
9.54329e+06
-11275.4
835856
9.38943e+06
22900.7
1.0253e+06
9.50242e+06
49346.3
1.21169e+06
9.87543e+06
44697.2
1.41018e+06
1.0203e+07
6705.13
1.50325e+06
1.0182e+07
-24512.6
1.61438e+06
9.5365e+06
-4458.28
1.66441e+06
8.33037e+06
-71732
1.61956e+06
6.68369e+06
-75113.9
1.24472e+06
4.75188e+06
-4963.18
441998
3.07631e+06
75397.6
51138.4
1.82167e+06
55147.9
990757
882852
-13800.8
2.49094e+06
204597
-18539.2
3.51581e+06
-310994
9457.69
3.92282e+06
-832847
84775.5
4.05385e+06
-1.96417e+06
480660
4.20145e+06
-3.64141e+06
1.94084e+06
2.37667e+06
-3.71657e+06
14471.2
103854
603656
1.06389e+06
-4.81672e+06
5.21896e+06
915118
1.5215e+06
6.70245e+06
-252753
8.93554e+06
7.4794e+06
-1.04648e+06
9.705e+06
8.38813e+06
-1.87485e+06
7.20276e+06
1.0432e+07
-3.4959e+06
5.60317e+06
1.19588e+07
-3.49116e+06
2.0278e+06
1.19912e+07
-1.61287e+06
-3.03264e+06
1.08275e+07
-95379.3
-8.3029e+06
9.16042e+06
752282
-1.06851e+07
5.65841e+06
737957
-9.51363e+06
1.11353e+06
1.43486e+06
3.50155e+06
-2.91729e+06
2.04896e+06
1.41306e+07
-5.74987e+06
1.02495e+06
4.82972e+06
-2.07306e+06
-484640
-7.4536e+06
3.84475e+06
-1.2584e+06
-8.70412e+06
4.09518e+06
-802554
-3.49492e+06
-1.81454e+06
-2.84232e+06
1.00033e+07
20400.1
1.00496e+07
-71924.3
1.00917e+07
-10521
1.01282e+07
41779.7
1.01596e+07
91022.3
1.01859e+07
140220
1.02081e+07
187686
1.02267e+07
234092
1.02417e+07
280309
1.0251e+07
327484
1.02511e+07
375043
1.02357e+07
423807
1.01997e+07
472420
1.01404e+07
521810
1.00511e+07
571152
9.93396e+06
620831
9.78726e+06
700798
9.56921e+06
838571
9.3878e+06
1.01079e+06
9.44016e+06
1.17623e+06
9.72427e+06
1.35058e+06
9.98928e+06
1.46682e+06
9.94121e+06
1.55628e+06
9.37776e+06
1.62005e+06
8.07543e+06
1.51083e+06
6.3375e+06
988955
4.54318e+06
214407
3.0452e+06
217579
1.86916e+06
1.0224e+06
970507
2.24545e+06
302660
3.28018e+06
-155902
3.78754e+06
-404230
3.93627e+06
-511638
4.29184e+06
-1.4478e+06
2.96883e+06
-647738
-909857
3.90454e+06
-1.48914e+06
6.73008e+06
4.70525e+06
6.96637e+06
8.11296e+06
5.98664e+06
9.97244e+06
4.19325e+06
9.71028e+06
1.98167e+06
1.04114e+07
2.64768e+06
1.3454e+07
3.48711e+06
9.63314e+06
6.16141e+06
3.13334e+06
8.99023e+06
-1.49455e+06
1.01075e+07
-4.52705e+06
1.03563e+07
-5.2167e+06
1.10066e+07
-4.58221e+06
1.15615e+07
-6.95406e+06
1.34798e+07
-1.00417e+07
1.77756e+07
-1.1252e+07
1.76653e+07
-8.52888e+06
-9.29036e+06
9.99928e+06
2330.79
20776.2
1.00449e+07
5125.43
-76709
1.00837e+07
6823.97
-10800.5
1.01176e+07
6715.44
45074.8
1.01471e+07
6506.22
97744
1.01725e+07
6355.11
150505
1.01947e+07
6302.76
201358
1.02137e+07
6394.19
251709
1.02299e+07
6577.72
301628
1.02417e+07
6642.17
352348
1.0244e+07
6137.86
404344
1.02303e+07
4669.24
458308
1.0193e+07
2341.76
514609
1.0131e+07
-207.391
574534
1.00445e+07
-2791.39
641431
9.94184e+06
-1751.09
716043
9.83765e+06
-253.437
805865
9.74001e+06
3231.7
946532
9.63828e+06
11426
1.13002e+06
9.57632e+06
17815.3
1.29517e+06
9.62478e+06
18049.9
1.38899e+06
9.76091e+06
16825.4
1.45212e+06
9.89603e+06
2032.7
1.58569e+06
9.7541e+06
-27278.4
1.90401e+06
8.99197e+06
-82963.7
2.48628e+06
7.73983e+06
-90971.8
2.59329e+06
6.06915e+06
2430.1
2.11031e+06
4.25227e+06
146552
1.71735e+06
2.83797e+06
67249.6
2.35348e+06
1.89283e+06
-36616.1
3.49973e+06
1.38918e+06
-33985.4
4.06439e+06
1.0732e+06
-23572.1
4.25733e+06
947804
-1327.69
4.16569e+06
-76636.5
649382
4.52507e+06
-2.41961e+06
1.50723e+06
3.15009e+06
-2.39415e+06
525715
-456656
-1.13427e+06
144878
-6.2447e+06
3.06688e+06
518222
-3.27292e+06
5.88142e+06
216361
5.83554e+06
8.07138e+06
-247372
7.70636e+06
9.65954e+06
-599258
6.18687e+06
1.12505e+07
-1.13788e+06
5.0444e+06
1.2669e+07
-1.56315e+06
2.01337e+06
1.2668e+07
-1.15614e+06
-2.09471e+06
1.07432e+07
18472.6
-6.65625e+06
7.78295e+06
683269
-8.96402e+06
4.04106e+06
145677
-6.97388e+06
224120
1.11555e+06
5.46487e+06
-4.35116e+06
1.81941e+06
1.56247e+07
-1.16169e+07
481330
9.2154e+06
-1.91549e+07
-2.4096e+06
-300627
-1.93694e+07
-1.63764e+06
-8.48063e+06
-7.05108e+06
-4.03335e+06
-1.2418e+07
-1.32986e+06
-1.00445e+07
1.00024e+07
20857.2
1.00442e+07
-76208
1.00821e+07
-11078.3
1.01155e+07
44492.8
1.01445e+07
97022
1.01696e+07
149686
1.01914e+07
200472
1.021e+07
250786
1.02255e+07
300695
1.02363e+07
351409
1.02372e+07
403380
1.02219e+07
457191
1.01843e+07
512942
1.01223e+07
572314
1.00374e+07
638745
9.93329e+06
711086
9.83234e+06
800800
9.74302e+06
937654
9.65799e+06
1.12107e+06
9.58779e+06
1.28326e+06
9.6155e+06
1.38219e+06
9.73901e+06
1.421e+06
9.81109e+06
1.55574e+06
9.61422e+06
1.83035e+06
8.79815e+06
2.26369e+06
7.39257e+06
2.30291e+06
5.69254e+06
1.90245e+06
4.16645e+06
1.89173e+06
2.96605e+06
2.29915e+06
2.09032e+06
3.09608e+06
1.49566e+06
3.83971e+06
1.1199e+06
4.12425e+06
430878
4.57907e+06
552312
4.73906e+06
971274
4.00421e+06
866531
-317783
3.03756e+06
-3.55939e+06
5.86697e+06
2.34391e+06
7.19444e+06
6.94292e+06
7.87395e+06
9.0026e+06
7.9556e+06
8.9849e+06
8.05022e+06
9.10855e+06
9.61449e+06
1.02002e+07
9.905e+06
8.00896e+06
1.08812e+07
2.00551e+06
1.22785e+07
-2.42097e+06
1.23215e+07
-4.75695e+06
1.20981e+07
-4.3911e+06
1.2792e+07
-4.11316e+06
1.17553e+07
-6.14497e+06
7.2597e+06
-8.62051e+06
889029
-7.23854e+06
-1.16097e+07
-458944
-101276
9.99987e+06
2312.28
22190.5
1.00398e+07
5464.17
-77781.9
1.00743e+07
6729.23
-9714.18
1.01049e+07
6542.85
48498.2
1.01321e+07
6383.84
103806
1.0156e+07
6320.29
159511
1.01773e+07
6376.05
213490
1.01966e+07
6589.62
267038
1.02133e+07
6898.91
320653
1.02259e+07
7069.83
375002
1.02297e+07
6647.98
430837
1.02173e+07
5179.49
489732
1.01817e+07
2673.23
552049
1.01216e+07
-170.302
619484
1.00441e+07
-2334.8
695959
9.95743e+06
-2372.91
782956
9.87498e+06
198.875
877812
9.82447e+06
4065.64
999133
9.79629e+06
4456.49
1.1604e+06
9.75238e+06
7743.58
1.34676e+06
9.67224e+06
9723.64
1.48346e+06
9.61838e+06
1233.06
1.55809e+06
9.64761e+06
-12375.6
1.62867e+06
9.81338e+06
-113665
1.90219e+06
9.79702e+06
-168770
2.68286e+06
9.11205e+06
-97255.4
3.3706e+06
7.23557e+06
202827
3.76533e+06
4.36598e+06
517627
4.10472e+06
2.33496e+06
300873
4.16752e+06
1.79791e+06
-161207
4.26786e+06
1.98339e+06
-338974
4.22595e+06
2.21654e+06
-324911
4.33165e+06
1.84426e+06
1565.95
4.49374e+06
1.25054e+06
522852
4.53656e+06
470778
533932
3.39596e+06
-811376
501678
353376
-3.63443e+06
122199
-3.53723e+06
-1.70218e+06
-297734
-4.87124e+06
2.28527e+06
81691.8
1.75946e+06
5.812e+06
385919
3.84126e+06
8.37939e+06
536963
3.18406e+06
9.9496e+06
518125
3.09361e+06
1.13182e+07
-452549
1.14509e+06
1.18253e+07
-1.35094e+06
-1.28881e+06
9.82462e+06
-132758
-4.67639e+06
6.33826e+06
907893
-6.79451e+06
3.22027e+06
221125
-4.81875e+06
-133570
1.14941e+06
6.97664e+06
-2.37341e+06
968018
1.5823e+07
-3.22918e+06
-2.67505e+06
1.13236e+07
-8.67846e+06
-5.63744e+06
9.06203e+06
-2.85201e+07
-883285
1.05347e+07
-4.85969e+07
5.55397e+06
831091
5.37922e+06
-5.38899e+06
1.00029e+07
21957.4
1.00388e+07
-78789.2
1.00726e+07
-10647
1.01029e+07
47510.2
1.01296e+07
102673
1.01532e+07
158216
1.01742e+07
212044
1.0193e+07
265452
1.02092e+07
318944
1.02207e+07
373166
1.0223e+07
428898
1.02089e+07
487616
1.01723e+07
549639
1.01129e+07
616610
1.00361e+07
692870
9.94895e+06
778576
9.86895e+06
873904
9.81772e+06
991691
9.79361e+06
1.15372e+06
9.75272e+06
1.33798e+06
9.68559e+06
1.47395e+06
9.60796e+06
1.52095e+06
9.53318e+06
1.64366e+06
9.28405e+06
1.98057e+06
8.85511e+06
2.51145e+06
7.79422e+06
3.2437e+06
6.12691e+06
3.77059e+06
4.93561e+06
3.61409e+06
3.81074e+06
3.73832e+06
2.56922e+06
4.17564e+06
1.59386e+06
4.45115e+06
796467
4.53593e+06
570755
4.738e+06
1.46655e+06
4.32763e+06
2.1054e+06
3.8669e+06
1.79786e+06
448956
2.55443e+06
-4.23997e+06
4.68389e+06
-120709
6.34828e+06
5.33708e+06
8.00746e+06
7.74021e+06
9.67577e+06
7.89444e+06
1.14669e+07
7.88095e+06
1.31404e+07
8.09777e+06
1.29962e+07
6.796e+06
1.29652e+07
1.82516e+06
1.37171e+07
-2.42882e+06
1.35544e+07
-4.66268e+06
1.38368e+07
-3.98219e+06
1.3537e+07
-3.49336e+06
5.97159e+06
-2.13967e+06
-1.07245e+07
1.37638e+06
-2.20399e+07
2.34476e+06
-1.4687e+07
-2.53963e+06
293302
9.99938e+06
2047.1
21591.2
1.00342e+07
4253.83
-79575.9
1.00648e+07
5745.22
-9185.84
1.00924e+07
5638.7
50783.8
1.01173e+07
5466.35
107821
1.01398e+07
5374.93
165522
1.01605e+07
5401.07
221731
1.01797e+07
5579.37
277734
1.01971e+07
5847.87
334066
1.02108e+07
5954.94
391410
1.0216e+07
5483.44
450693
1.02059e+07
3924.17
513480
1.01739e+07
1345.16
580853
1.01184e+07
-1629.48
654447
1.00483e+07
-3657.3
736799
9.97371e+06
-4310.58
829588
9.90976e+06
-838.701
931121
9.86407e+06
1887.51
1.03951e+06
9.85849e+06
3494.38
1.17012e+06
9.8606e+06
1686.83
1.33795e+06
9.81807e+06
-1353.29
1.52124e+06
9.67355e+06
-22114
1.70171e+06
9.66348e+06
-1916.88
1.62976e+06
9.69642e+06
-26419.5
1.85785e+06
9.88126e+06
-102741
2.56233e+06
9.58483e+06
19947
3.62651e+06
8.62271e+06
102180
4.62814e+06
7.68305e+06
-2278.99
5.06248e+06
6.4377e+06
133992
5.28932e+06
5.05346e+06
288892
5.35373e+06
3.78843e+06
185865
5.27062e+06
3.06133e+06
-67651.3
5.05906e+06
2.79247e+06
-34066.4
4.76572e+06
2.81561e+06
92550.9
4.41122e+06
2.69638e+06
-82491.5
3.57765e+06
1.03321e+06
-138472
2.13261e+06
-2.53461e+06
438895
-351896
-4.00925e+06
-180904
-3.12195e+06
-1.16619e+06
219129
-1.16637e+06
2.12708e+06
465346
375341
4.22348e+06
832881
685640
6.15049e+06
674817
899328
8.42732e+06
-678248
-187106
1.04139e+07
-2.04102e+06
-1.08757e+06
8.95308e+06
-511788
-2.7259e+06
4.80552e+06
1.6415e+06
-4.58106e+06
2.0884e+06
1.21618e+06
-4.00198e+06
907168
1.47998e+06
6.08162e+06
1.96055e+06
744656
1.31997e+07
4.86197e+06
-3.07141e+06
1.04931e+07
9.93625e+06
-6.22378e+06
9.25283e+06
1.57039e+07
-5.23172e+06
9.20761e+06
1.0136e+07
-341025
6.37969e+06
2.64908e+06
6.50881e+06
1.00021e+07
21684.9
1.00336e+07
-78998.9
1.00633e+07
-9407.34
1.00904e+07
50233.5
1.0115e+07
107107
1.01372e+07
164688
1.01575e+07
220808
1.01763e+07
276753
1.0193e+07
333052
1.02057e+07
390389
1.02092e+07
449660
1.01973e+07
512434
1.01639e+07
579658
1.01088e+07
652886
1.00395e+07
734823
9.96677e+06
827706
9.90103e+06
927945
9.85815e+06
1.03564e+06
9.85019e+06
1.16522e+06
9.85371e+06
1.33339e+06
9.80127e+06
1.51232e+06
9.64574e+06
1.64041e+06
9.55454e+06
1.69937e+06
9.52671e+06
1.95464e+06
9.26969e+06
2.63689e+06
8.89868e+06
3.6267e+06
8.18015e+06
4.58923e+06
6.76161e+06
5.0324e+06
5.48025e+06
5.15414e+06
4.75845e+06
5.17459e+06
4.22049e+06
5.13363e+06
3.63186e+06
5.01835e+06
3.58204e+06
4.73468e+06
3.92992e+06
4.04808e+06
3.96653e+06
3.71352e+06
2.35807e+06
1.88615e+06
941423
-2.38877e+06
2.63032e+06
-1.97228e+06
4.96647e+06
3.27187e+06
7.25624e+06
6.01157e+06
9.6422e+06
6.47854e+06
1.19464e+07
6.4133e+06
1.34432e+07
6.07884e+06
1.35343e+07
4.74148e+06
1.3335e+07
1.48063e+06
1.42325e+07
-1.81565e+06
1.47287e+07
-4.19166e+06
1.58146e+07
-3.97355e+06
1.61134e+07
-3.6153e+06
1.19332e+07
-1.8519e+06
4.64901e+06
1.45316e+06
-136603
1.10712e+06
86472
-3.53798e+06
-193040
1e+07
2033.57
22480.6
1.00298e+07
4697.06
-76448.3
1.00563e+07
5768.51
-6071.26
1.00809e+07
5590.23
54535.9
1.01038e+07
5468.46
112714
1.0125e+07
5457.55
171964
1.01449e+07
5576.31
230316
1.01641e+07
5852.37
288407
1.01823e+07
6217.39
347140
1.01972e+07
6425.12
407670
1.0204e+07
6046
470530
1.01965e+07
4603.92
536862
1.01684e+07
2094.44
608611
1.01186e+07
-888.079
686679
1.0054e+07
-3043.35
773666
9.98882e+06
-3368.05
869911
9.93473e+06
-1199.62
973902
9.89828e+06
2092.79
1.07972e+06
9.89035e+06
4794.38
1.1911e+06
9.92258e+06
-2002.37
1.31335e+06
9.99217e+06
-15188.4
1.46405e+06
1.01543e+07
-71308.3
1.5759e+06
1.01887e+07
-13783.2
1.575e+06
9.97381e+06
58544.8
1.98828e+06
1.00122e+07
37562.6
2.49275e+06
1.00699e+07
68957.3
3.523e+06
1.01622e+07
1621.12
4.57047e+06
1.00876e+07
-147786
5.32544e+06
9.7462e+06
-143187
5.80209e+06
9.08316e+06
52483.8
5.9675e+06
8.19065e+06
236541
5.90388e+06
7.296e+06
262705
5.68079e+06
6.6089e+06
181475
5.27821e+06
6.28061e+06
103976
4.64775e+06
6.22037e+06
-138091