/*--------------------------------*- C++ -*----------------------------------*\
| =========                 |                                                 |
| \\      /  F ield         | OpenFOAM: The Open Source CFD Toolbox           |
|  \\    /   O peration     | Version:  4.1                                   |
|   \\  /    A nd           | Web:      www.OpenFOAM.org                      |
|    \\/     M anipulation  |                                                 |
\*---------------------------------------------------------------------------*/
FoamFile
{
    version     2.0;
    format      ascii;
    class       volVectorField;
    location    "34";
    object      U;
}
// * * * * * * * * * * * * * * * * * * * * * * * * * * * * * * * * * * * * * //

dimensions      [0 1 -1 0 0 0 0];

internalField   nonuniform List<vector> 
4432
(
(-184441 -6749.81 -21735.7)
(-174041 60.388 -1615.2)
(-155235 3302.12 4594.87)
(-142664 -2775.1 -3521.3)
(-147575 -869.142 -1828.4)
(-143855 -409.89 425.984)
(-138319 -843.803 -1246.64)
(-136270 -788.553 -1493.66)
(-134520 -920.846 -1882.44)
(-133110 -1083.54 -2157.89)
(-131750 -1204.45 -2303.95)
(-130617 -1228.44 -2415.53)
(-129594 -1210.02 -2470.79)
(-128714 -1208.56 -2458.53)
(-127933 -1216 -2405.75)
(-127019 -1210.42 -2425.04)
(-125976 -1187.3 -2533.83)
(-124934 -1161.78 -2632.37)
(-123865 -1151.1 -2741.94)
(-122696 -1140 -2836.42)
(-121414 -1134.71 -2940.01)
(-120023 -1133.52 -3037.1)
(-118518 -1136.45 -3126.01)
(-116904 -1143.06 -3198.95)
(-115196 -1153.67 -3251.04)
(-113415 -1168.13 -3278.79)
(-111587 -1186.03 -3280.09)
(-109735 -1206.99 -3255.44)
(-107879 -1230.47 -3207.04)
(-106029 -1256.16 -3139.38)
(-104197 -1283.88 -3058.74)
(-102393 -1313.74 -2971.1)
(-100627 -1345.36 -2887.25)
(-98907.3 -1379.37 -2814.56)
(-97221.2 -1418.56 -2748.21)
(-95554.8 -1463.74 -2678.92)
(-93902.9 -1514.04 -2605.62)
(-92254 -1568.36 -2529.65)
(-90600.9 -1626.68 -2454.08)
(-88930.7 -1690.85 -2375.15)
(-87211.1 -1761.55 -2297.56)
(-85427.8 -1835.94 -2197.75)
(-83563.7 -1908.04 -2051.86)
(-81630.7 -1964.62 -1828.09)
(-79702.6 -1987.85 -1485.67)
(-77903.2 -1957.61 -1010.18)
(-76271 -1848.17 -398.51)
(-74261.7 -1619.03 395.74)
(-70636.3 -1238.58 1468.6)
(-66006.8 -714.445 3954.31)
(-69305.7 457.937 5268.5)
(-84142.2 2883.66 7550.1)
(-108854 6723.97 7637.26)
(-2554.17 6042.26 -14513.4)
(-190100 -3819.43 -14310.4)
(-178144 2596.5 -5746.56)
(-170824 5580.28 -2882.92)
(-161093 -40.2282 -2388.5)
(-159870 1667.56 -2721.12)
(-158610 2064.05 -1124.13)
(-153955 1648.01 -2174.33)
(-151839 1677.98 -2262.69)
(-150426 1537.59 -2522.75)
(-149114 1371.79 -2567.17)
(-147744 1243.06 -2598.83)
(-146572 1201.08 -2648.67)
(-145603 1199 -2670.85)
(-144798 1185 -2624.16)
(-144048 1165.68 -2568.13)
(-143155 1160.21 -2615.9)
(-142149 1172.91 -2729.87)
(-141163 1190.69 -2819.35)
(-140143 1198.38 -2927.03)
(-139022 1209.24 -3025.51)
(-137798 1217.73 -3134.88)
(-136474 1225.33 -3241.67)
(-135047 1231.67 -3344.59)
(-133523 1236.87 -3437.79)
(-131916 1240.12 -3517.65)
(-130243 1241.11 -3582.2)
(-128527 1239.54 -3630.57)
(-126787 1235.21 -3664.16)
(-125040 1227.86 -3685.41)
(-123296 1217.2 -3698.86)
(-121562 1202.71 -3709.45)
(-119846 1183.72 -3722.09)
(-118153 1160.01 -3740.83)
(-116486 1130.57 -3766.74)
(-114843 1093.13 -3799.07)
(-113219 1047.1 -3837.19)
(-111606 992.441 -3878.27)
(-109993 929.223 -3925.24)
(-108369 857.081 -3982.19)
(-106719 773.776 -4046.4)
(-105039 679.908 -4104.47)
(-103317 577.856 -4136.22)
(-101537 472.667 -4112.6)
(-99693.1 375.136 -3995.22)
(-97802.4 301.304 -3755.46)
(-95940.1 267.655 -3359.91)
(-94114.4 296.55 -2806.02)
(-91810.1 428.132 -2041.96)
(-88037 687.358 -948.755)
(-83559.1 1107.06 1408.36)
(-86970.5 2115.95 4602.84)
(-101059 3151.74 6108.43)
(-118663 4112.23 567.837)
(27744.5 4697.87 -13758.6)
(-186278 -1794.99 -29733.9)
(-182221 -2853.04 -14116.9)
(-182744 -2932.46 -4021.02)
(-179426 -760.251 -8548.75)
(-176631 -1069.47 -5337.85)
(-178366 -989.527 -1367.47)
(-177250 -921.282 -481.36)
(-176007 -733.944 237.862)
(-175833 -737.273 401.289)
(-175647 -664.892 505.39)
(-175457 -655.897 568.431)
(-175448 -616.725 591.516)
(-175484 -565.853 660.506)
(-175643 -520.019 787.214)
(-176000 -502.742 923.242)
(-176387 -509.112 1020.64)
(-176659 -491.538 1054.73)
(-176923 -458.257 1072.13)
(-177214 -440.729 1058.38)
(-177503 -424.202 1045.9)
(-177795 -412.154 1023.04)
(-178089 -403.21 1007.42)
(-178388 -397.409 1004.3)
(-178695 -394.931 1023.71)
(-179017 -396.291 1070.74)
(-179359 -402.011 1148.41)
(-179730 -412.302 1256.83)
(-180129 -427.439 1393.1)
(-180561 -447.388 1553.52)
(-181019 -472.498 1732.12)
(-181504 -502.405 1923.94)
(-182014 -537.16 2129.2)
(-182550 -573.299 2350.87)
(-183102 -607.654 2585.23)
(-183673 -644.418 2833.44)
(-184301 -689.37 3100.33)
(-184989 -741.801 3376.14)
(-185726 -803.363 3659.42)
(-186514 -876.266 3949.52)
(-187336 -961.022 4260.05)
(-188233 -1058.37 4610.05)
(-189226 -1172.04 5016.15)
(-190331 -1300.51 5497.23)
(-191592 -1443.94 6076.72)
(-193098 -1600.83 6775.21)
(-194981 -1757.75 7597.55)
(-197270 -1904.03 8518.53)
(-199770 -2021.44 9504.02)
(-201507 -2098.95 10578.5)
(-203678 -2012.39 11591.2)
(-203677 -319.118 10802)
(-233614 1457.65 7217.83)
(-225678 4437.78 -11940.6)
(-260478 8593.93 -24610.3)
(-204729 1537.3 -20467.7)
(-200906 511.954 -11794.1)
(-198790 354.926 -7518.41)
(-195887 2303.46 -4554.19)
(-194934 1888.81 -4274.16)
(-195958 1920.47 -1471.33)
(-194743 1928.2 -632.514)
(-193494 2047.49 -40.9282)
(-193284 1997.42 86.7486)
(-192946 2023.79 304.423)
(-192655 1999.96 444.179)
(-192459 2008.31 509.776)
(-192337 2031.8 562.005)
(-192363 2054.99 657.745)
(-192587 2055.69 765.556)
(-192797 2037.85 804.235)
(-192871 2045.21 795.261)
(-192979 2070.46 773.809)
(-193133 2084.94 731.643)
(-193279 2102.11 688.455)
(-193435 2119.09 637.745)
(-193599 2137.22 593.921)
(-193776 2156.68 563.338)
(-193971 2177.38 554.206)
(-194194 2198.92 572.206)
(-194451 2220.72 619.569)
(-194755 2242.32 696.214)
(-195107 2263.04 798.688)
(-195515 2282.27 922.108)
(-195974 2298.98 1059.27)
(-196487 2312.62 1203.85)
(-197051 2322.2 1353.33)
(-197673 2330.02 1508.11)
(-198359 2337.95 1665.83)
(-199100 2340.3 1825.35)
(-199915 2330.13 1982.89)
(-200819 2307.6 2131.42)
(-201823 2270.11 2265.72)
(-202941 2214.04 2384.56)
(-204179 2138.6 2492.12)
(-205556 2040.94 2597.71)
(-207098 1916.57 2712.65)
(-208836 1766.51 2848.89)
(-210785 1586.66 3027.09)
(-213046 1374.8 3273.27)
(-215751 1140.05 3599.72)
(-218937 892.363 3997.16)
(-222380 642.982 4422.31)
(-224725 362.904 4898.88)
(-226204 179.992 5437.33)
(-226703 1122.32 3858)
(-236126 -1139.49 1842.7)
(-220422 3599.22 -14020.8)
(-225946 -20.4305 -4378.19)
(-172276 -1628.98 -22157.2)
(-160151 -1912.58 -17804.3)
(-158775 -3976.81 -16076.3)
(-156094 -771.248 -10669.7)
(-151071 -1911.03 -10729.3)
(-150232 -2481.49 -8728.78)
(-149106 -2662.58 -6455.14)
(-148237 -2520.24 -5293.81)
(-147353 -2537.66 -4521.9)
(-146197 -2420.91 -3843.58)
(-145013 -2338.91 -3424.45)
(-143909 -2233.08 -3183.67)
(-142791 -2167.95 -3050.97)
(-141850 -2134.88 -3009.98)
(-141132 -2106.73 -3041.21)
(-140404 -2112.13 -3063.83)
(-139543 -2088.28 -3090.09)
(-138652 -2058.69 -3173.54)
(-137720 -2032.76 -3301.46)
(-136698 -2009.35 -3468.64)
(-135598 -1987.91 -3659.76)
(-134414 -1968.43 -3861.7)
(-133152 -1949.15 -4055.9)
(-131828 -1931.3 -4227.94)
(-130467 -1914.44 -4366.77)
(-129101 -1899.99 -4468.87)
(-127765 -1888.19 -4535.8)
(-126486 -1879.63 -4574.99)
(-125285 -1875.15 -4594.23)
(-124172 -1875.47 -4602.21)
(-123143 -1880.48 -4602.22)
(-122184 -1890.94 -4581.01)
(-121300 -1907.49 -4516.19)
(-120482 -1925.23 -4460.04)
(-119703 -1943.21 -4462.19)
(-118935 -1969.03 -4444.98)
(-118140 -1996.43 -4430.17)
(-117296 -2029.36 -4434.38)
(-116374 -2065.81 -4451.13)
(-115336 -2103.48 -4484.87)
(-114141 -2136.91 -4539.79)
(-112752 -2157.34 -4632.2)
(-111121 -2150.11 -4776.92)
(-109207 -2096.98 -4991.4)
(-107027 -1965.16 -5311.94)
(-104687 -1709.45 -5778.97)
(-102281 -1267.7 -6464.31)
(-99419.5 -590.733 -7562.93)
(-94854.8 392.459 -9320.1)
(-90050.1 1695.22 -12744)
(-94134.8 4122.02 -16550.2)
(-117214 7318.35 -22376.3)
(-134401 16824.3 -19120.8)
(-44066.7 7143.67 -6785.91)
(-182706 2618.63 -20258.3)
(-177635 2343.61 -12867.3)
(-172826 491.739 -10387.9)
(-170311 3503.22 -7447.99)
(-169508 2439.92 -7841.64)
(-168261 1951.86 -6539.39)
(-166939 1758.41 -4406.89)
(-166208 1852.14 -3409.34)
(-165606 1797.01 -2643.32)
(-164648 1863.6 -1977.58)
(-163773 1898.78 -1521.21)
(-162984 1955.82 -1239.59)
(-162233 1976.32 -1091.1)
(-161612 1968.82 -1049.2)
(-161193 1956.99 -1058.61)
(-160741 1915 -1033.26)
(-160148 1899.14 -1020.77)
(-159571 1888.61 -1079.28)
(-158981 1875.97 -1160.26)
(-158330 1862.51 -1274.61)
(-157626 1848.88 -1405.16)
(-156865 1835.5 -1540.38)
(-156051 1824.49 -1664.07)
(-155197 1815.4 -1762.32)
(-154322 1809.36 -1825.12)
(-153450 1805.96 -1849.4)
(-152606 1805.61 -1837.07)
(-151809 1808.08 -1795.84)
(-151073 1812.75 -1734.66)
(-150402 1818.89 -1663.39)
(-149788 1826.24 -1589.65)
(-149219 1833.99 -1515.95)
(-148681 1840.69 -1442.43)
(-148150 1848.41 -1375.5)
(-147605 1856.14 -1319.21)
(-146997 1857.41 -1281.63)
(-146290 1857.46 -1261.77)
(-145454 1851.11 -1251.36)
(-144452 1838.14 -1254.07)
(-143247 1818.25 -1265.68)
(-141803 1793.65 -1280.65)
(-140085 1768.89 -1298.25)
(-138040 1751.95 -1324.11)
(-135625 1751.59 -1357.38)
(-132838 1786.53 -1402)
(-129728 1884.31 -1472.69)
(-126314 2079.25 -1592.02)
(-122055 2394.1 -1858.38)
(-116070 2824.59 -2284.94)
(-109518 3303.3 -3099.99)
(-109352 3989.44 -4771.36)
(-121240 3424.9 -6012.85)
(-124613 5718.17 -3388.83)
(27533.2 5570.66 -4582.7)
(-169657 -3710.67 -21966.5)
(-168959 -1895.15 -11424.2)
(-165741 -1361.33 -11202.8)
(-164445 -1376.5 -6275.98)
(-163760 -2220.83 -6206.26)
(-162735 -2898.73 -5288.71)
(-162033 -2817.11 -4464.52)
(-161484 -2693.22 -3618.77)
(-161126 -2652.74 -2868.94)
(-160634 -2551.4 -2208.14)
(-160232 -2497.85 -1680.14)
(-159879 -2432.25 -1190.37)
(-159486 -2393.26 -898.326)
(-159175 -2385.74 -781.897)
(-158964 -2395.28 -777.889)
(-158693 -2401.15 -792.091)
(-158312 -2388.57 -846.447)
(-157906 -2378.68 -958.364)
(-157457 -2369.97 -1092.48)
(-156926 -2362.4 -1253.48)
(-156307 -2355.98 -1421.78)
(-155589 -2348.98 -1579.94)
(-154776 -2341.24 -1699.22)
(-153881 -2330.99 -1759.65)
(-152932 -2317.79 -1743.83)
(-151961 -2301.47 -1651.39)
(-151006 -2282.29 -1489.89)
(-150095 -2261.36 -1276.19)
(-149252 -2240.71 -1027.96)
(-148491 -2223.02 -757.72)
(-147806 -2212.7 -473.443)
(-147192 -2222.09 -178.924)
(-146717 -2265.07 123.901)
(-146438 -2303.01 417.733)
(-146240 -2303.08 687.499)
(-146113 -2344.8 950.082)
(-146154 -2409.48 1223.3)
(-146352 -2475.08 1509.02)
(-146695 -2553.09 1816.03)
(-147186 -2636.71 2140.41)
(-147837 -2722.52 2480.53)
(-148665 -2804.61 2841.49)
(-149665 -2876.34 3232.05)
(-150854 -2929.62 3663.01)
(-152311 -2947.87 4149.72)
(-154202 -2912.18 4720.46)
(-156688 -2806.55 5402.47)
(-159529 -2590.31 6130.61)
(-161803 -2180.23 6579.59)
(-164595 -1464.36 6011.74)
(-173883 254.984 2996.88)
(-208904 3524.28 -2331.28)
(-253358 17166.4 -29732.5)
(-205549 14300.4 -14195.2)
(-174043 171.075 -21610)
(-174438 2045.02 -10973.6)
(-172864 2600.17 -8350.33)
(-173451 2644.09 -6572.14)
(-173766 1878.7 -5949.24)
(-172251 1275.87 -4865.25)
(-171102 1365.62 -3930)
(-170814 1484.65 -3184.42)
(-170661 1527.01 -2288.23)
(-170333 1627.5 -1577.47)
(-170131 1681.7 -1045.14)
(-169950 1747.09 -627.014)
(-169766 1786.17 -354.831)
(-169649 1794.25 -230.353)
(-169594 1784.52 -201.761)
(-169455 1776.26 -158.102)
(-169228 1783.44 -166.556)
(-169010 1785.72 -231.575)
(-168772 1784.13 -312.297)
(-168481 1778.1 -414.836)
(-168133 1766.9 -522.055)
(-167723 1751.57 -617.296)
(-167253 1731.68 -677.313)
(-166733 1708.66 -680.669)
(-166181 1683.04 -614.37)
(-165622 1655.47 -475.727)
(-165077 1626.72 -272.597)
(-164561 1596.96 -19.2066)
(-164087 1565.72 268.857)
(-163658 1531.94 576.339)
(-163273 1492.86 887.714)
(-162927 1438.35 1191.4)
(-162634 1356.66 1485.2)
(-162396 1282.63 1765.8)
(-162231 1244.56 2030.31)
(-162157 1170.73 2286.1)
(-162177 1078.09 2544.04)
(-162305 984.975 2816.92)
(-162543 881.719 3113.57)
(-162875 774.235 3435.51)
(-163303 663.981 3779.85)
(-163834 556.469 4147.33)
(-164460 457.518 4537.03)
(-165177 373.775 4942.59)
(-166029 317.219 5358.42)
(-167165 302.974 5786.75)
(-168627 330.623 6221.08)
(-170163 411.698 6601.42)
(-170706 611.762 6766.47)
(-170020 799.213 6099.98)
(-171371 1305.75 3523.77)
(-179072 1382.47 -2246.59)
(-145510 10476.5 -24221)
(-59888.3 4085.68 -11124.1)
(-157864 -2504.34 -25867.5)
(-159849 -2386.85 -16309.1)
(-158687 -1846.67 -12941)
(-158520 -1965.74 -10515.8)
(-158264 -2521.36 -8577.84)
(-157525 -2870.9 -7093.35)
(-157322 -2924.79 -5816.36)
(-157269 -2871.38 -4883.95)
(-157289 -2708.35 -4079.82)
(-157072 -2526.67 -3561.3)
(-156763 -2443.88 -3260.74)
(-156594 -2430.41 -2915.18)
(-156541 -2417.88 -2686.13)
(-156568 -2421.24 -2609.99)
(-156648 -2424.73 -2633.01)
(-156657 -2429.74 -2696.39)
(-156606 -2428.72 -2846.04)
(-156538 -2430.97 -3076.1)
(-156441 -2436.34 -3352.57)
(-156290 -2445.85 -3669.35)
(-156075 -2460.42 -4011.49)
(-155783 -2479.61 -4353.91)
(-155413 -2505.47 -4665.19)
(-154979 -2535.8 -4907.8)
(-154509 -2573.05 -5058.96)
(-154039 -2615.21 -5112.61)
(-153601 -2662.5 -5077.32)
(-153214 -2713.25 -4968.24)
(-152884 -2766.98 -4806.1)
(-152608 -2828.04 -4611.23)
(-152378 -2904.96 -4401.65)
(-152187 -3006.91 -4202.28)
(-152066 -3135.04 -4037.23)
(-152038 -3273.69 -3868.86)
(-152075 -3412.68 -3657.28)
(-152171 -3567.37 -3470.96)
(-152356 -3740.5 -3294.26)
(-152643 -3926.13 -3105.05)
(-153044 -4123.73 -2897.23)
(-153580 -4328.11 -2662.12)
(-154273 -4537.58 -2400.53)
(-155147 -4747.66 -2106.48)
(-156234 -4954.88 -1771.89)
(-157596 -5161.76 -1386.15)
(-159360 -5371.63 -927.72)
(-161749 -5591.54 -353.539)
(-165047 -5837.81 391.886)
(-169283 -6132.63 1359.97)
(-174045 -6477.05 2619.93)
(-181070 -7101.53 3551.24)
(-197673 -6939.43 2715.87)
(-249253 -4216 -2842.04)
(-353212 9885.31 -14332.1)
(-319643 5980.08 22406.1)
(-159027 734.775 -24410.5)
(-160078 1047.53 -16748.3)
(-159376 1662.6 -13870.5)
(-160098 1675.65 -11238.8)
(-159977 1236.16 -8577.71)
(-158592 980.451 -6369.66)
(-157797 1003.24 -5118.96)
(-157299 1124 -4330)
(-156943 1350.82 -3526.74)
(-156547 1594.62 -2994.14)
(-156141 1740.43 -2585.45)
(-155770 1816.17 -2220.2)
(-155461 1888.49 -1956.16)
(-155225 1943.55 -1819.13)
(-155020 1998.37 -1757.48)
(-154731 2051.96 -1733.94)
(-154373 2112.47 -1807.15)
(-153999 2171.83 -1954.82)
(-153588 2231.07 -2142.73)
(-153119 2289.65 -2365.53)
(-152582 2347.2 -2606.38)
(-151969 2404.26 -2844.12)
(-151283 2458.41 -3046.41)
(-150541 2510.8 -3182.52)
(-149777 2557.11 -3231.71)
(-149025 2597.18 -3189.78)
(-148314 2628.43 -3066.88)
(-147656 2650.65 -2881.47)
(-147050 2663.09 -2654.15)
(-146489 2660.61 -2401.96)
(-145956 2634.49 -2141.03)
(-145422 2576.39 -1885.71)
(-144879 2487.07 -1640.08)
(-144329 2383.65 -1401.02)
(-143763 2277.34 -1166.84)
(-143177 2154.34 -930.176)
(-142561 2014.09 -693.067)
(-141905 1862.91 -454.729)
(-141202 1704.2 -199.186)
(-140445 1545.34 79.1407)
(-139625 1389.44 378.654)
(-138728 1243.09 700.976)
(-137742 1114.74 1052.48)
(-136668 1006.75 1434.75)
(-135562 911.279 1856.6)
(-134532 824.213 2340.56)
(-133689 729.21 2940.09)
(-132699 595.599 3717.97)
(-130836 402.811 4673.69)
(-128677 -135.168 5398.04)
(-134836 -330.007 5587.39)
(-158161 -1793.63 6996.34)
(-167070 7556.73 -6565.55)
(-79191.5 1371.09 -5695.98)
(-154327 -1323.57 -20279.2)
(-155881 -1793.51 -14626.4)
(-155169 -1782.14 -11763.8)
(-155276 -1742.05 -9677.11)
(-154807 -1956.62 -7554.54)
(-153897 -1986.62 -6191.14)
(-153240 -2001.64 -4999.5)
(-152780 -2081.27 -3978.09)
(-152529 -2088.97 -3020.31)
(-152287 -2011.75 -2282.81)
(-151850 -1886.52 -1740.35)
(-151413 -1836.83 -1360.66)
(-151183 -1800.51 -1112.98)
(-151065 -1772.72 -1014.07)
(-150981 -1742.09 -984.252)
(-150866 -1709.67 -1031.03)
(-150726 -1673.45 -1177.3)
(-150573 -1639.16 -1409.36)
(-150395 -1605.48 -1703.91)
(-150176 -1573.59 -2052.52)
(-149898 -1541.76 -2438.23)
(-149543 -1512.01 -2829.85)
(-149107 -1483.26 -3181.7)
(-148619 -1460.84 -3435.04)
(-148136 -1446.7 -3559.72)
(-147721 -1442.98 -3544.03)
(-147418 -1451.77 -3407.84)
(-147252 -1477.7 -3181.42)
(-147233 -1522.44 -2900.84)
(-147351 -1584.75 -2598.63)
(-147587 -1666.39 -2302.75)
(-147923 -1767.76 -2045.21)
(-148343 -1881.24 -1854.84)
(-148826 -2003.51 -1719.88)
(-149357 -2141.4 -1619.24)
(-149944 -2294.08 -1564.7)
(-150590 -2455.79 -1553.95)
(-151288 -2624.32 -1577.16)
(-152036 -2795.91 -1628.38)
(-152836 -2965.91 -1697.91)
(-153690 -3131.38 -1774.94)
(-154607 -3288.89 -1846.31)
(-155603 -3436.72 -1899.62)
(-156716 -3576.91 -1922.88)
(-158023 -3715.35 -1896.69)
(-159682 -3863.1 -1776.29)
(-161899 -4030.87 -1469.75)
(-164643 -4254.95 -801.464)
(-167768 -4706.08 348.284)
(-171974 -5362.89 1886.09)
(-185574 -5080.43 6879.53)
(-239982 -5622.74 15197.7)
(-299043 4737.54 36265.4)
(-360794 -6871.36 97888.7)
(-153844 1033.08 -21600.1)
(-155670 660.393 -16287.3)
(-155380 654.673 -14208.1)
(-156015 710.719 -11889.8)
(-155974 505.124 -9063.41)
(-155086 467.746 -7121.72)
(-154626 432.066 -5826.07)
(-154215 323.272 -4909.66)
(-153794 281.181 -4157.26)
(-153342 322.632 -3540.43)
(-152801 413.805 -3017.41)
(-152269 431.972 -2625.85)
(-151827 436.695 -2367.4)
(-151437 433.505 -2239.59)
(-151026 434.655 -2178.11)
(-150539 439.712 -2184.01)
(-149981 451.376 -2288.67)
(-149359 464.954 -2471.48)
(-148649 482.63 -2709.13)
(-147827 504.18 -2991.63)
(-146864 532.433 -3300.61)
(-145728 566.545 -3607.18)
(-144405 608.733 -3864.15)
(-142917 654.561 -4021.97)
(-141316 702.35 -4044.63)
(-139674 749.53 -3927)
(-138060 792.984 -3688.75)
(-136531 826.384 -3365.85)
(-135123 846.24 -2998.03)
(-133856 852.316 -2617.64)
(-132740 841.589 -2244.69)
(-131764 812.926 -1898.75)
(-130924 774.722 -1605.02)
(-130213 731.398 -1367.88)
(-129618 676.213 -1180.42)
(-129129 612.026 -1037)
(-128735 548.271 -929.399)
(-128410 489.354 -854.452)
(-128131 441.28 -801.971)
(-127874 412.044 -762.547)
(-127614 406.873 -725.705)
(-127327 430.383 -680.066)
(-126991 486.2 -614.855)
(-126594 573.73 -519.132)
(-126163 686.654 -380.124)
(-125792 812.046 -163.918)
(-125552 938.406 208.804)
(-125108 1042.4 887.353)
(-123732 952.878 2057.3)
(-121975 611.223 4170.45)
(-128916 1147.45 9805.22)
(-157503 1026.37 22425.2)
(-207545 11110.5 44543)
(-177510 -10064 19449)
(-151515 -544.141 -18091.8)
(-154158 -1013.1 -13488.9)
(-154366 -1369.44 -11506.4)
(-155061 -1324.06 -9664.28)
(-155075 -1232.26 -7785.24)
(-154879 -1077.4 -6246.02)
(-154560 -1096.29 -4941.05)
(-154299 -1197.82 -3864.74)
(-154158 -1270 -3033.31)
(-153904 -1228.5 -2385.37)
(-153494 -1182.1 -1770.25)
(-153166 -1174.9 -1378.83)
(-152954 -1171.22 -1150.67)
(-152770 -1169.46 -1048.66)
(-152576 -1168.96 -1040.45)
(-152351 -1166.38 -1136.58)
(-152085 -1163.41 -1339.69)
(-151777 -1162.12 -1633.9)
(-151419 -1161.5 -1997.65)
(-150999 -1160.39 -2420.18)
(-150487 -1156.81 -2881.81)
(-149850 -1150.23 -3351.46)
(-149072 -1137.8 -3758.3)
(-148197 -1122.68 -4028.44)
(-147314 -1099.2 -4101.85)
(-146519 -1070.88 -3978.76)
(-145891 -1038.69 -3699.18)
(-145463 -1008.07 -3328.2)
(-145233 -983.682 -2927.35)
(-145173 -971.398 -2539.99)
(-145254 -973.966 -2198.85)
(-145450 -989.294 -1930.44)
(-145727 -1013.44 -1739.8)
(-146040 -1044.16 -1624.85)
(-146354 -1084.86 -1588.58)
(-146667 -1138.08 -1624.15)
(-146957 -1203.08 -1721.07)
(-147200 -1277.89 -1863.91)
(-147369 -1361.63 -2037.46)
(-147430 -1453.07 -2229.22)
(-147344 -1546.91 -2425.51)
(-147075 -1638.94 -2608.57)
(-146584 -1727.93 -2763.14)
(-145841 -1813.76 -2879.66)
(-144835 -1901.84 -2949.79)
(-143582 -2003.38 -2965.86)
(-142021 -2127.7 -2870.32)
(-139729 -2291.86 -2526.85)
(-135643 -2479.88 -1905.71)
(-129074 -2568.52 -670.604)
(-128001 -2677.39 3680.57)
(-132185 -1465.21 16300.9)
(-159028 10486.7 57067.3)
(-90416.4 8586.36 13500.8)
(-147041 1555.91 -20239.5)
(-150133 1146.61 -15508.5)
(-150648 780.047 -13834.8)
(-151305 824.772 -12220.4)
(-151695 923.241 -10035.7)
(-152038 1081.52 -8324.54)
(-152408 1057.5 -7035.4)
(-152627 940.023 -5926.14)
(-152756 846.02 -5056)
(-152776 863.213 -4369.37)
(-152772 883.788 -3802.38)
(-152838 863.392 -3410.86)
(-152971 837.576 -3168.27)
(-153122 808.41 -3041.8)
(-153253 776.892 -3006.87)
(-153349 746.41 -3073.22)
(-153408 715.122 -3246.9)
(-153433 680.654 -3508.11)
(-153418 643.679 -3837.6)
(-153353 604.995 -4223.13)
(-153214 566.211 -4648.18)
(-152969 527.607 -5078.29)
(-152608 492.02 -5450.41)
(-152157 457.355 -5685.23)
(-151681 430.963 -5727.6)
(-151249 411.833 -5573.11)
(-150907 401.473 -5256.77)
(-150670 396.484 -4832.82)
(-150530 393.509 -4358.83)
(-150463 387.49 -3881.88)
(-150449 375.674 -3429.26)
(-150476 359.719 -3022.43)
(-150532 342.72 -2677.75)
(-150600 326.13 -2399.82)
(-150667 306.7 -2189.23)
(-150729 280.931 -2047.33)
(-150781 249.013 -1968.26)
(-150812 211.748 -1947.38)
(-150806 169.922 -1976.42)
(-150747 124.839 -2040.88)
(-150609 80.5856 -2127.34)
(-150358 39.2363 -2231.16)
(-149962 1.03368 -2340.18)
(-149389 -35.0453 -2444.4)
(-148626 -77.0893 -2543.21)
(-147695 -137.749 -2633.05)
(-146560 -227.418 -2686.37)
(-144780 -372.736 -2622.24)
(-141345 -606.144 -2392.84)
(-135390 -864.907 -1722.7)
(-131604 -1326.6 1297.13)
(-129952 -1545.27 11060.1)
(-120788 7072.54 50577.9)
(-28827.7 6500.65 25030.9)
(-148290 -268.559 -16653.1)
(-150617 -444.463 -12969.7)
(-151243 -795.501 -11411.4)
(-151933 -946.221 -9641.16)
(-151786 -858.557 -8169.87)
(-151542 -745.097 -6653.33)
(-151383 -822.066 -5321.86)
(-151392 -920.118 -4288.27)
(-151528 -941.819 -3505.7)
(-151424 -882.162 -2816.46)
(-151136 -866.145 -2280.89)
(-150953 -880.572 -1940.62)
(-150849 -897.353 -1730.91)
(-150758 -916.564 -1639.92)
(-150649 -934.319 -1671.48)
(-150491 -951.734 -1827.71)
(-150258 -970.42 -2106.2)
(-149932 -991.506 -2492)
(-149497 -1015.36 -2966.47)
(-148931 -1041.13 -3518.22)
(-148184 -1069.74 -4140.1)
(-147173 -1098.98 -4808.33)
(-145837 -1133.28 -5437.77)
(-144203 -1168.88 -5895.29)
(-142400 -1208.58 -6061.47)
(-140601 -1247.57 -5935.23)
(-138937 -1282.45 -5581.78)
(-137488 -1308.32 -5093.09)
(-136277 -1325.74 -4553.05)
(-135294 -1340.52 -4021.18)
(-134527 -1351.14 -3528.37)
(-133942 -1355 -3092.93)
(-133504 -1359.39 -2711.31)
(-133191 -1367.67 -2377.45)
(-132984 -1385.65 -2106.03)
(-132841 -1415.2 -1885.18)
(-132736 -1456.41 -1704.6)
(-132649 -1509.82 -1547.2)
(-132549 -1577.42 -1401.49)
(-132401 -1660.03 -1255.84)
(-132188 -1757.29 -1094.97)
(-131888 -1867.94 -900.201)
(-131477 -1989.75 -647.691)
(-130941 -2118.51 -308.598)
(-130289 -2248.04 154.07)
(-129575 -2363.41 798.893)
(-128824 -2432.23 1745.85)
(-127619 -2445 3101.47)
(-124557 -2479.82 4930.84)
(-118071 -2486.88 7766.04)
(-113295 -1934.93 12414.8)
(-119479 2410.11 22448.4)
(-129672 22441 59364.8)
(-60413.6 14138.3 30003.4)
(-142844 1788.08 -18052.1)
(-145332 1697.63 -13992)
(-146058 1378.77 -12177.1)
(-146293 1259.79 -10623.8)
(-145862 1391.34 -9163.56)
(-145761 1549.71 -7778.4)
(-145811 1508.47 -6559.37)
(-145779 1442.35 -5478.94)
(-145783 1455.84 -4540.96)
(-145664 1554.42 -3784.62)
(-145465 1608.55 -3218.51)
(-145323 1630.73 -2826.37)
(-145228 1650.46 -2563.21)
(-145139 1668.04 -2417.97)
(-145023 1687.18 -2390.84)
(-144854 1706.27 -2488.63)
(-144609 1722.87 -2707.5)
(-144273 1734.78 -3030.6)
(-143836 1740.34 -3439.55)
(-143287 1738.86 -3922.36)
(-142589 1727.66 -4471.3)
(-141683 1706.85 -5060.35)
(-140538 1669.82 -5605.99)
(-139223 1619.49 -5971.07)
(-137905 1554.4 -6053.11)
(-136772 1482.89 -5853.01)
(-135951 1412.7 -5443.81)
(-135488 1352.52 -4912.41)
(-135357 1304.53 -4341.81)
(-135490 1264.33 -3790.68)
(-135818 1233.85 -3283.2)
(-136280 1216.04 -2836.26)
(-136824 1203.48 -2445.21)
(-137416 1192.82 -2102.38)
(-138032 1180.17 -1805.19)
(-138653 1162.82 -1545.06)
(-139264 1139.58 -1309.29)
(-139849 1107.52 -1087.39)
(-140413 1063.49 -875.258)
(-140954 1005.42 -668.197)
(-141463 933.676 -451.723)
(-141933 849.433 -219.209)
(-142350 754.618 45.0199)
(-142695 650.527 360.157)
(-142972 536.763 738.313)
(-143220 419.626 1219.08)
(-143405 315.522 1874.16)
(-143052 220.927 2804.23)
(-140970 78.8459 4058.37)
(-136376 -123.192 5561.19)
(-131662 -148.11 7776.8)
(-137199 820.236 14493.7)
(-125314 11525.9 42294.7)
(27756.6 8011.53 20675.2)
(-149703 -706.73 -15596.9)
(-151882 -681.049 -12753)
(-152822 -829.011 -11109.2)
(-153837 -980.122 -9098.07)
(-154072 -899.671 -7596.1)
(-154111 -888.676 -6303.31)
(-154376 -1051.74 -5222.07)
(-154786 -1158.97 -4417.36)
(-155129 -1144.24 -3654.36)
(-155282 -1113.52 -2858)
(-155390 -1120.83 -2280.82)
(-155560 -1149.1 -1883.98)
(-155767 -1181.32 -1620.29)
(-155987 -1216.74 -1488.33)
(-156192 -1250.53 -1491.07)
(-156349 -1283.14 -1633.06)
(-156430 -1314.07 -1912.71)
(-156415 -1342.98 -2319.35)
(-156296 -1368.8 -2837.34)
(-156070 -1389.14 -3454.58)
(-155693 -1400.73 -4174.54)
(-155058 -1400.29 -4985.01)
(-154049 -1387.41 -5782.35)
(-152688 -1363.19 -6310.1)
(-151196 -1341.38 -6344.14)
(-149842 -1330.18 -5892.68)
(-148777 -1339.56 -5128.02)
(-148038 -1368.95 -4223.16)
(-147580 -1419.1 -3310.34)
(-147324 -1492.03 -2475.36)
(-147206 -1582.28 -1756.59)
(-147175 -1685.49 -1158.43)
(-147177 -1799.13 -678.468)
(-147181 -1924.32 -304.858)
(-147163 -2062.71 -25.2885)
(-147104 -2212.34 177.642)
(-146979 -2370.08 315.283)
(-146764 -2529.83 390.364)
(-146427 -2691.66 401.668)
(-145941 -2858.55 358.437)
(-145257 -3031.77 258.8)
(-144320 -3208.37 95.0868)
(-143070 -3386.11 -135.457)
(-141449 -3563.42 -432.783)
(-139405 -3736.71 -795.006)
(-136896 -3897.72 -1205.51)
(-133783 -4035.09 -1610.58)
(-129442 -4147 -1893.76)
(-122700 -4336.74 -1977.19)
(-112453 -4662.85 -1397.83)
(-102519 -4282.96 -189.231)
(-99624.3 1529.56 142.601)
(-101859 14055.4 -4272.51)
(40559.4 6122.74 3467.82)
(-145512 1182.8 -16522)
(-147963 1370.09 -13306.1)
(-149038 1310.95 -11345.3)
(-149815 1248.51 -9308.78)
(-149819 1417.99 -7918.13)
(-150017 1514.28 -6908.48)
(-150297 1430.06 -5859.94)
(-150420 1402.19 -4971.29)
(-150512 1500.82 -4155.15)
(-150565 1617.38 -3424.07)
(-150604 1696.88 -2871.37)
(-150667 1757.36 -2474.69)
(-150739 1816.83 -2207.93)
(-150805 1876.26 -2070.14)
(-150830 1940.47 -2065.04)
(-150779 2008.71 -2196.82)
(-150608 2080.91 -2462.46)
(-150285 2156.64 -2851.17)
(-149784 2235.95 -3346.96)
(-149077 2319.77 -3938.81)
(-148096 2409.42 -4630.73)
(-146694 2505.39 -5417.75)
(-144708 2604.19 -6191.26)
(-142122 2700.29 -6696.68)
(-139150 2776.38 -6693.18)
(-136109 2823.89 -6187.34)
(-133243 2836.03 -5346.54)
(-130701 2818.6 -4343.05)
(-128541 2775.75 -3312.05)
(-126748 2708.81 -2338.69)
(-125292 2625.83 -1462.69)
(-124145 2532.74 -696.143)
(-123275 2432.6 -34.0902)
(-122663 2323.34 536.119)
(-122294 2201.53 1025.46)
(-122155 2067.79 1448.74)
(-122229 1924.25 1815.49)
(-122492 1772.94 2112.83)
(-122856 1611.88 2340.41)
(-123285 1435.55 2509.31)
(-123743 1239.49 2614.5)
(-124197 1020.11 2635.24)
(-124614 773.431 2542.58)
(-124966 495.907 2314.29)
(-125250 185.693 1930.62)
(-125467 -158.902 1385.58)
(-125506 -537.576 736.146)
(-124752 -952.361 143.359)
(-121910 -1485.93 -140.72)
(-117923 -2302.36 655.919)
(-118528 -2102.15 2916.65)
(-138704 1733.63 5852.71)
(-108934 8620.7 -3589.47)
(90072.4 5355.21 -7948.37)
(-148565 -659.14 -14204.9)
(-150574 -545.448 -12053)
(-151480 -665.659 -10584.6)
(-152844 -866.817 -8898.46)
(-153615 -952.302 -7509.27)
(-154043 -1171.65 -6464.68)
(-154572 -1327.55 -5600.86)
(-155070 -1386.73 -4800.68)
(-155352 -1404.74 -3992.96)
(-155550 -1466.14 -3282.26)
(-155760 -1530.94 -2738.32)
(-155966 -1600.58 -2332.07)
(-156183 -1669.47 -2061.22)
(-156400 -1738.71 -1939.41)
(-156595 -1806.07 -1982.28)
(-156736 -1873 -2204.48)
(-156790 -1940.8 -2613.71)
(-156730 -2011.88 -3209.2)
(-156548 -2087.8 -3980.28)
(-156249 -2170.15 -4909.17)
(-155797 -2260.53 -6000.24)
(-155017 -2363.08 -7276.69)
(-153625 -2477.22 -8653.68)
(-151540 -2603.34 -9718.6)
(-149153 -2727.85 -9961.76)
(-147018 -2839.79 -9352.24)
(-145433 -2931.93 -8312.96)
(-144443 -3010.16 -7133.19)
(-143978 -3084.76 -5983.77)
(-143915 -3161.93 -4953.34)
(-144142 -3241.38 -4073.4)
(-144573 -3324.42 -3330.93)
(-145148 -3411.57 -2703.13)
(-145837 -3501.97 -2168.54)
(-146624 -3596.44 -1707.3)
(-147505 -3694.46 -1302.19)
(-148482 -3795.03 -941.351)
(-149565 -3899.78 -618.941)
(-150762 -4009.76 -331.297)
(-152077 -4123.13 -82.4114)
(-153505 -4243.51 115.798)
(-155061 -4374.82 246.059)
(-156746 -4523.44 281.823)
(-158565 -4697.71 184.866)
(-160521 -4908.55 -102.312)
(-162592 -5158.62 -659.237)
(-164552 -5444.63 -1578.94)
(-165552 -5768.96 -2979.37)
(-163492 -6136.33 -4909.91)
(-157190 -6162.47 -7848.81)
(-148710 -3848.54 -15228.4)
(-155191 2388.18 -28569.2)
(-144105 5911.85 -59567.2)
(-51993.5 -308.198 -21535)
(-144748 742.766 -14441)
(-147460 1036.12 -12063.4)
(-148829 1043.27 -10558.3)
(-150490 974.01 -8808.6)
(-151573 1021.63 -7614.54)
(-152382 931.465 -6631.72)
(-153056 904.371 -5549.32)
(-153720 972.796 -4640.67)
(-154299 1079.79 -3853.64)
(-154832 1140.18 -3179.65)
(-155328 1195.63 -2640.06)
(-155808 1244.99 -2223.04)
(-156287 1294.59 -1937.68)
(-156760 1344.23 -1795.12)
(-157207 1397.44 -1811.93)
(-157605 1454.21 -2000.09)
(-157925 1515.03 -2366.61)
(-158147 1579.59 -2909.57)
(-158269 1648.85 -3615.66)
(-158302 1724.1 -4465.01)
(-158218 1807.28 -5458.48)
(-157856 1898.78 -6618.13)
(-156953 2005.58 -7847.72)
(-155438 2132.12 -8733.92)
(-153663 2285.58 -8781.69)
(-152081 2456.36 -7985)
(-150884 2630.75 -6773.92)
(-150092 2794.01 -5426.82)
(-149644 2931.1 -4117.31)
(-149449 3035.69 -2926.81)
(-149438 3112.73 -1885.52)
(-149568 3161.58 -980.573)
(-149818 3181.95 -188)
(-150188 3173.85 518.824)
(-150690 3135.29 1165.15)
(-151342 3065.33 1770.88)
(-152173 2962.26 2349.57)
(-153230 2819.24 2918.71)
(-154648 2637.29 3487.22)
(-156513 2412.77 4057.58)
(-158924 2139.27 4627.18)
(-162003 1806.39 5183.64)
(-165905 1400.43 5704.35)
(-170826 903.973 6154.55)
(-176988 293.618 6479.86)
(-184650 -451.668 6593.93)
(-193868 -1346.24 6355.94)
(-203908 -2391.54 5616.87)
(-212567 -3639.72 4446.52)
(-217862 -4470.54 3310.82)
(-221441 -4321.76 365.673)
(-217879 -815.985 -16100.6)