/*--------------------------------*- C++ -*----------------------------------*\
| =========                 |                                                 |
| \\      /  F ield         | OpenFOAM: The Open Source CFD Toolbox           |
|  \\    /   O peration     | Version:  4.1                                   |
|   \\  /    A nd           | Web:      www.OpenFOAM.org                      |
|    \\/     M anipulation  |                                                 |
\*---------------------------------------------------------------------------*/
FoamFile
{
    version     2.0;
    format      ascii;
    class       volVectorField;
    location    "38";
    object      U;
}
// * * * * * * * * * * * * * * * * * * * * * * * * * * * * * * * * * * * * * //

dimensions      [0 1 -1 0 0 0 0];

internalField   nonuniform List<vector> 
4432
(
(-188809 -5395.47 -15354.8)
(-184111 -1014.44 -4233.16)
(-171018 1319.22 353.646)
(-161785 -2465.5 -4493.01)
(-163689 -1376.94 -3322.58)
(-160883 -1052.68 -1696.55)
(-156885 -1281.76 -2429.93)
(-154900 -1224.2 -2404.22)
(-153177 -1282.31 -2511.16)
(-151702 -1379 -2616.01)
(-150280 -1466.93 -2689.32)
(-148987 -1502.51 -2778.01)
(-147754 -1511.49 -2858.49)
(-146607 -1530.68 -2909.41)
(-145523 -1557.42 -2937.24)
(-144347 -1576.88 -3010.88)
(-143053 -1582.7 -3146.3)
(-141705 -1582.55 -3284.52)
(-140289 -1588.25 -3435.55)
(-138772 -1591.33 -3580.47)
(-137151 -1595.22 -3730.83)
(-135429 -1597.58 -3875.03)
(-133602 -1597.98 -4010.25)
(-131674 -1596.55 -4131.23)
(-129665 -1594.18 -4234.35)
(-127599 -1591.15 -4317.02)
(-125507 -1587.18 -4376.78)
(-123415 -1581.74 -4413.13)
(-121347 -1574.13 -4426.21)
(-119312 -1563.83 -4418.22)
(-117323 -1550.4 -4392.49)
(-115387 -1533.35 -4352.65)
(-113513 -1511.8 -4305.81)
(-111708 -1485.64 -4254.57)
(-109966 -1456.48 -4192.81)
(-108284 -1425 -4116.06)
(-106658 -1390.95 -4031.09)
(-105076 -1355.04 -3943.1)
(-103527 -1321 -3847.9)
(-101978 -1292.43 -3752.45)
(-100391 -1268.58 -3662.4)
(-98734.9 -1245.23 -3566.82)
(-96971.3 -1218.54 -3450.52)
(-95086.6 -1179.59 -3282.4)
(-93146.7 -1111.64 -3017.52)
(-91296.7 -993.325 -2617.81)
(-89591.1 -801.055 -2069.52)
(-87467 -485.972 -1263.2)
(-83838.9 1.07018 -28.1504)
(-79543.2 815.808 2232.83)
(-83857.9 2670.63 5159.52)
(-106998 4177.14 10208)
(-133345 11601.4 -3053.98)
(10934 4699.63 -11000.5)
(-200565 -2914.23 -10194.7)
(-193420 1257.43 -5806.01)
(-188273 3412.37 -3914.33)
(-181438 -68.3548 -3485.73)
(-179916 954.082 -3559.74)
(-178692 1247.91 -2388.56)
(-175510 1044.04 -2835.91)
(-173785 1103.86 -2763.36)
(-172567 1055.9 -2832.66)
(-171458 974.54 -2810.47)
(-170325 900.316 -2807.03)
(-169292 872.053 -2837.76)
(-168368 866.943 -2867.58)
(-167543 853.12 -2859.07)
(-166753 833.269 -2841.23)
(-165859 820.5 -2885.71)
(-164857 820.439 -2973.49)
(-163816 826.554 -3049.74)
(-162708 828.987 -3136.66)
(-161496 835.314 -3215.63)
(-160183 842.848 -3295.43)
(-158769 853.962 -3366.25)
(-157248 869.106 -3425.68)
(-155626 888.389 -3469.86)
(-153913 910.99 -3496.34)
(-152129 936.763 -3504.27)
(-150293 965.691 -3493.3)
(-148423 998.12 -3464.97)
(-146530 1034.11 -3421.51)
(-144617 1073.69 -3366.89)
(-142687 1116.59 -3305.58)
(-140737 1162.49 -3241.57)
(-138761 1211.27 -3178.49)
(-136755 1261.86 -3118.85)
(-134708 1311.98 -3063.64)
(-132609 1359.84 -3013.61)
(-130446 1404.21 -2969.94)
(-128206 1442.94 -2940.05)
(-125876 1471.08 -2932.2)
(-123445 1485.39 -2949.64)
(-120905 1485.7 -2987.38)
(-118248 1473.89 -3037.5)
(-115445 1454.34 -3100.58)
(-112466 1434.35 -3161.65)
(-109340 1424.09 -3186.93)
(-106159 1437.87 -3142.44)
(-102944 1492.7 -3003.19)
(-99213.3 1624.34 -2726.7)
(-94027.9 1881.26 -2250.4)
(-87714.3 2386.74 -494.508)
(-90369.2 3434.32 1950.73)
(-105634 4163.19 4549.88)
(-127026 8937.82 225.484)
(35826.5 3766 -16850.9)
(-207252 -1043.43 -18003.5)
(-204388 -1796.5 -8830.31)
(-204713 -1980.5 -2683)
(-202289 -670.834 -5477.73)
(-200177 -875.158 -3694.16)
(-200908 -834.073 -1183.09)
(-200041 -814.465 -440.945)
(-199039 -716.454 189.993)
(-198664 -729.418 454.65)
(-198288 -696.876 634.056)
(-197887 -700.58 750.062)
(-197558 -684.343 803.758)
(-197225 -655.847 857.619)
(-196950 -625.756 934.436)
(-196806 -611.385 1016.47)
(-196701 -611.851 1077.5)
(-196535 -595.756 1102.66)
(-196363 -565.621 1119.7)
(-196213 -540.928 1121.06)
(-196078 -514.29 1128.37)
(-195972 -487.351 1138.12)
(-195898 -458.844 1163.27)
(-195861 -428.555 1208.5)
(-195866 -397.09 1279.42)
(-195927 -365.302 1378.71)
(-196056 -334.1 1507.56)
(-196274 -303.999 1665.73)
(-196592 -275.465 1850.42)
(-197022 -248.779 2058.04)
(-197568 -224.449 2282.62)
(-198239 -202.558 2518.85)
(-199042 -182.612 2765.54)
(-199987 -161.59 3023.99)
(-201075 -138.012 3291.19)
(-202314 -115.764 3566.47)
(-203738 -97.2006 3853.38)
(-205371 -78.3904 4150.66)
(-207257 -61.2344 4461.77)
(-209418 -51.9858 4783.18)
(-211859 -51.5231 5115.32)
(-214619 -57.8711 5465.52)
(-217738 -73.45 5842.02)
(-221266 -98.9181 6253.54)
(-225278 -131.99 6712.97)
(-229909 -168.472 7234.99)
(-235371 -195.791 7825.69)
(-241813 -186.339 8442.89)
(-249075 -131.45 9030.96)
(-255897 -7.34656 9614.98)
(-262901 638.249 10304.2)
(-274923 1754.25 10825.1)
(-312523 3469.95 6783.46)
(-302851 11972.5 -16927.6)
(-432607 33752.1 -24969.2)
(-227735 1667.93 -12128.9)
(-225420 826.436 -7395.63)
(-224095 634.37 -4898.42)
(-221984 1794.89 -2996.28)
(-221184 1538.97 -2835.89)
(-221714 1550.62 -1060.74)
(-220961 1538.85 -426.632)
(-220130 1597.04 45.0174)
(-219919 1554.36 207.377)
(-219631 1554.87 389.87)
(-219343 1523.51 501.685)
(-219071 1510.75 541.488)
(-218806 1508.78 550.408)
(-218613 1507.47 573.953)
(-218543 1490.79 602.391)
(-218472 1459.28 587.444)
(-218311 1441.22 541.709)
(-218157 1434.01 487.377)
(-218023 1420.22 421.491)
(-217888 1406.69 358.242)
(-217768 1392.18 297.377)
(-217665 1378.15 250.301)
(-217585 1365.29 223.068)
(-217534 1353.7 221.27)
(-217525 1343.34 249.163)
(-217569 1334.31 308.435)
(-217686 1326.99 399.938)
(-217882 1321.97 521.979)
(-218170 1319.92 671.93)
(-218550 1321.43 845.001)
(-219028 1327.31 1037.01)
(-219604 1338.88 1246.38)
(-220281 1359.7 1472.92)
(-221063 1391.97 1716.21)
(-221952 1432.96 1977.14)
(-222958 1481.24 2256.16)
(-224094 1540.67 2553.58)
(-225379 1610 2867.02)
(-226832 1684.75 3192.75)
(-228472 1763.78 3526.33)
(-230312 1848.07 3865.59)
(-232348 1934.06 4219.01)
(-234594 2018.97 4600.25)
(-237091 2102.35 5022.47)
(-239908 2183.17 5506.19)
(-243195 2266.02 6070.26)
(-247003 2364.12 6698.29)
(-250977 2458.9 7373.67)
(-253585 2586.32 8251.62)
(-255320 3075.37 9404.57)
(-255560 4032.28 10550)
(-271250 5082.13 8615.42)
(-237115 11675.3 -14588.5)
(-206627 2619.73 -8047.4)
(-189394 -1893.62 -16542)
(-178217 -1853.17 -13135.7)
(-176729 -3131.14 -12027.5)
(-173969 -927.394 -8456.49)
(-169941 -1478.3 -8500.73)
(-168572 -1773.55 -7280.53)
(-167343 -1891.19 -5868.54)
(-166383 -1817.54 -5097.16)
(-165531 -1842.7 -4565.07)
(-164573 -1785.07 -4092.46)
(-163613 -1744.39 -3783.25)
(-162690 -1683.34 -3599.67)
(-161725 -1643 -3504.11)
(-160847 -1620.66 -3489.6)
(-160104 -1603.04 -3540.54)
(-159357 -1608.86 -3596.28)
(-158513 -1596.79 -3652.17)
(-157621 -1577.93 -3736.94)
(-156677 -1558.02 -3842.49)
(-155655 -1537.08 -3963.65)
(-154568 -1514.62 -4086.36)
(-153417 -1489.7 -4197.29)
(-152204 -1461.01 -4281.28)
(-150944 -1429.79 -4328.91)
(-149657 -1396.46 -4333.44)
(-148375 -1362.73 -4294.27)
(-147128 -1329.14 -4213.95)
(-145943 -1296.3 -4100.37)
(-144839 -1264.81 -3962.59)
(-143826 -1235.37 -3811.66)
(-142902 -1208.24 -3654.1)
(-142057 -1185.31 -3481.83)
(-141292 -1169.13 -3278.86)
(-140602 -1156.51 -3077.84)
(-139967 -1145.68 -2911.93)
(-139373 -1140.11 -2731.03)
(-138797 -1136.39 -2547.4)
(-138188 -1137.29 -2379.47)
(-137500 -1138.12 -2231.5)
(-136708 -1137.5 -2113.57)
(-135776 -1134.23 -2035.78)
(-134662 -1125.36 -2007.46)
(-133292 -1101.18 -2038.97)
(-131639 -1044.62 -2147.9)
(-129738 -930.836 -2358.05)
(-127726 -725.909 -2700.03)
(-125563 -380.469 -3241.22)
(-122698 175.367 -4101.91)
(-118023 1176.38 -5326.79)
(-112941 2408.56 -7040.48)
(-117307 5026.6 -10163.7)
(-139889 6456.18 -16010.4)
(-150784 15924.6 -14533.6)
(-34176.5 7628.43 -8421.71)
(-200910 2316.96 -15038)
(-195502 2206.95 -9691.37)
(-191721 981.046 -7923.89)
(-189073 3019.17 -5737.74)
(-187942 2470.63 -5936.44)
(-186611 2192.13 -5171.1)
(-185405 2064.18 -3853.15)
(-184663 2114.95 -3205.86)
(-184094 2075.99 -2709.28)
(-183353 2114.09 -2275.48)
(-182681 2139.25 -1971.47)
(-182057 2184.19 -1787.77)
(-181443 2211.46 -1707.74)
(-180901 2223.06 -1719.36)
(-180493 2230.7 -1783.98)
(-180071 2217.13 -1836.95)
(-179544 2218.66 -1897.97)
(-178996 2225.02 -2000.03)
(-178410 2230.83 -2112.57)
(-177757 2236.09 -2239.15)
(-177046 2241.3 -2364.63)
(-176274 2247.33 -2476.67)
(-175445 2255.55 -2561.3)
(-174569 2265.21 -2608.04)
(-173669 2276.25 -2609.95)
(-172772 2287.57 -2565.76)
(-171905 2298.95 -2477.43)
(-171096 2310.01 -2351.95)
(-170362 2320.28 -2197.65)
(-169715 2329.21 -2024.77)
(-169155 2336.39 -1842.01)
(-168674 2340.12 -1653.68)
(-168271 2337.95 -1460.91)
(-167936 2331.96 -1266.64)
(-167656 2322.96 -1072.55)
(-167414 2307.5 -881.39)
(-167168 2287.46 -691.376)
(-166861 2260.67 -502.055)
(-166435 2232.06 -318.629)
(-165820 2202 -141.039)
(-164973 2169.54 28.4213)
(-163849 2136.7 184.519)
(-162384 2111.9 321.012)
(-160517 2106.2 432.538)
(-158237 2134.8 526.679)
(-155591 2223.21 594.815)
(-152502 2401.85 603.91)
(-148359 2710.54 526.973)
(-142368 3258 385.834)
(-134020 3834.83 -2.74734)
(-134539 4685.81 -1508.99)
(-136749 3979.22 -5689.68)
(-152750 4580.26 -8347.01)
(15732.1 6103.73 -3550.32)
(-194731 -3845.64 -18885.7)
(-193146 -2658.01 -10698.3)
(-190461 -2161.63 -10114.1)
(-188895 -1960.79 -6420.36)
(-187860 -2356.4 -5965.74)
(-186631 -2743.01 -5190.32)
(-185688 -2715.65 -4569.16)
(-184947 -2659.16 -3992.39)
(-184405 -2647.78 -3504.43)
(-183829 -2596.56 -3092.24)
(-183319 -2569.6 -2773.5)
(-182835 -2532.14 -2487.73)
(-182312 -2508.79 -2334.66)
(-181826 -2505.13 -2314.57)
(-181394 -2514 -2391.22)
(-180920 -2522 -2496.79)
(-180361 -2517.28 -2631.43)
(-179761 -2509.94 -2799.85)
(-179114 -2498.24 -2978.7)
(-178401 -2481.55 -3166.56)
(-177623 -2458.61 -3346.82)
(-176781 -2427.06 -3502.18)
(-175881 -2385.9 -3611.21)
(-174940 -2333.98 -3660.05)
(-173981 -2271.81 -3639.31)
(-173036 -2200.38 -3551.87)
(-172133 -2120.97 -3405.91)
(-171299 -2035 -3216.24)
(-170549 -1943.98 -2998.42)
(-169889 -1849.72 -2764.87)
(-169310 -1755.52 -2523.62)
(-168801 -1671.57 -2277.51)
(-168400 -1609.41 -2025.36)
(-168144 -1544.29 -1773.16)
(-167961 -1453.59 -1524.8)
(-167839 -1386.23 -1267.21)
(-167840 -1335.51 -991.149)
(-167964 -1290.35 -692.715)
(-168219 -1256.41 -355.611)
(-168611 -1227.76 29.0565)
(-169158 -1199.03 460.045)
(-169875 -1165.22 944.216)
(-170782 -1122.26 1494.27)
(-171878 -1060.1 2115.79)
(-173213 -956.794 2811.8)
(-174928 -788.366 3583.3)
(-177153 -529.533 4412.67)
(-179528 -124.569 5239.72)
(-180917 481.438 5792.71)
(-182107 1791.78 5456.4)
(-190024 3693.47 1757.45)
(-224867 5219.98 -3473.04)
(-260093 13906.3 -27269.9)
(-192810 11161.6 -1878.33)
(-199484 652.776 -17286.6)
(-199563 1938.03 -8964.13)
(-198547 2414.85 -6812.42)
(-198956 2620.56 -5097.58)
(-199351 2241.13 -4384.93)
(-198579 1880.01 -3538.77)
(-197979 1909.44 -2842.27)
(-197925 1960.04 -2306.74)
(-198000 1968.64 -1703.64)
(-197998 2017.92 -1225.88)
(-198083 2045.66 -869.491)
(-198184 2085.08 -597.986)
(-198284 2111.28 -435.732)
(-198430 2117.94 -392.644)
(-198628 2111.29 -435.922)
(-198785 2103.24 -487.527)
(-198887 2104.28 -577.678)
(-198992 2103.85 -704.854)
(-199083 2103.03 -841.308)
(-199142 2101.69 -986.033)
(-199166 2100.32 -1123.39)
(-199149 2100.66 -1236.76)
(-199090 2103.38 -1306.76)
(-198992 2109.81 -1316.92)
(-198866 2120.03 -1259.24)
(-198728 2133.97 -1133.75)
(-198593 2151.65 -948.486)
(-198475 2172.89 -716.392)
(-198381 2197.44 -451.772)
(-198313 2224.66 -168.99)
(-198265 2252.23 117.69)
(-198229 2271.96 397.286)
(-198202 2274.56 665.404)
(-198177 2281.25 921.502)
(-198155 2309.41 1170.96)
(-198140 2316.15 1423.45)
(-198134 2307.67 1684.07)
(-198165 2293.02 1959.36)
(-198240 2266.92 2258.24)
(-198344 2232.74 2591.77)
(-198460 2190.91 2966.34)
(-198573 2143.86 3387.79)
(-198663 2093.96 3861.89)
(-198715 2046.77 4389.45)
(-198739 2017.46 4962.49)
(-198799 2020.94 5558.18)
(-198871 2066.55 6133.67)
(-198564 2180.97 6601.03)
(-196282 2314.31 6706.12)
(-192787 2589.8 5939.54)
(-188104 3579 2436.01)
(-196321 1046.03 -3954.78)
(-162507 7955.29 -28773.7)
(-70990.5 4499.17 -13640.1)
(-184542 -2608.97 -21692.4)
(-186123 -2639.38 -14277.6)
(-185235 -2331.15 -11792)
(-185022 -2396.2 -9705.87)
(-184723 -2769.35 -8147.57)
(-184111 -3066.19 -6961.68)
(-183767 -3203.21 -5997.58)
(-183529 -3271.04 -5305)
(-183366 -3258.08 -4734.86)
(-183075 -3215.55 -4370.26)
(-182710 -3218.08 -4169.4)
(-182392 -3256.9 -3968.36)
(-182116 -3295.97 -3857.49)
(-181867 -3345.25 -3865.38)
(-181625 -3396.31 -3959.67)
(-181310 -3449.02 -4095.84)
(-180914 -3497.91 -4289.96)
(-180461 -3547.11 -4533.19)
(-179943 -3595.36 -4800.98)
(-179349 -3642.21 -5085.28)
(-178677 -3686.43 -5370.72)
(-177923 -3725.46 -5633.72)
(-177099 -3757.4 -5846.27)
(-176229 -3777.99 -5978.66)
(-175353 -3787.12 -6015.81)
(-174516 -3782.91 -5956.11)
(-173763 -3766.6 -5809.45)
(-173126 -3739.03 -5590.07)
(-172624 -3702.38 -5315.62)
(-172264 -3662.24 -5003.25)
(-172041 -3628.27 -4668.07)
(-171948 -3612.86 -4330.7)
(-172001 -3624.88 -4009.73)
(-172216 -3656.58 -3680.51)
(-172576 -3699.13 -3312.71)
(-173076 -3764.42 -2946.12)
(-173744 -3859.45 -2572.38)
(-174597 -3984.13 -2177.01)
(-175657 -4141.91 -1751.84)
(-176951 -4333.22 -1285.74)
(-178503 -4558.73 -776.059)
(-180342 -4816.75 -210.452)
(-182510 -5105.08 425.305)
(-185082 -5422.57 1139.35)
(-188208 -5767.73 1950.93)
(-192167 -6143.55 2900.17)
(-197283 -6564.08 4022.88)
(-203530 -7054.9 5370.29)
(-210336 -7598.02 7005.22)
(-219988 -8440.98 8720.81)
(-240447 -7959.38 9130.73)
(-306390 -7316.06 7686.81)
(-408316 -1441.97 -171.608)
(-360425 10004.6 -28377.7)
(-181365 1264.2 -19162.8)
(-181767 1634.1 -12656.9)
(-181271 2128.26 -10489.6)
(-181875 2259.76 -8351.36)
(-182076 2038.2 -6340.5)
(-181483 1876.39 -4639.43)
(-181211 1861.94 -3598.72)
(-181138 1904.69 -2918.45)
(-181186 2020.97 -2289.24)
(-181239 2158.56 -1868.58)
(-181298 2243.38 -1559)
(-181381 2287.81 -1302.3)
(-181509 2330.79 -1131.48)
(-181696 2362.54 -1065.82)
(-181920 2393.12 -1070.28)
(-182107 2423.3 -1113.07)
(-182262 2459.26 -1221.77)
(-182422 2497.18 -1378.43)
(-182581 2538.63 -1558.47)
(-182736 2583.68 -1754.78)
(-182886 2633.2 -1952.19)
(-183029 2688.78 -2130.9)
(-183169 2751.19 -2263.41)
(-183317 2823.03 -2325.4)
(-183491 2902.56 -2302.54)
(-183704 2989.94 -2193.77)
(-183961 3082.59 -2008.69)
(-184256 3178.99 -1762.95)
(-184573 3276.89 -1474.15)
(-184891 3371.15 -1157.88)
(-185184 3453.45 -829.032)
(-185420 3513.87 -501.171)
(-185580 3547.22 -179.762)
(-185688 3566.01 139.053)
(-185728 3581.72 446.982)
(-185663 3586.09 745.299)
(-185466 3572.91 1034.46)
(-185108 3542.28 1312.64)
(-184561 3491.34 1586.37)
(-183797 3418.96 1856.31)
(-182786 3321.3 2120.26)
(-181498 3198.64 2378.86)
(-179903 3054.38 2630.66)
(-177984 2890.12 2864.66)
(-175763 2709.37 3061.38)
(-173324 2514.34 3196.49)
(-170734 2298.7 3248.67)
(-167641 2043.12 3181.28)
(-163412 1693.1 2988.58)
(-158061 1005.1 1636.61)
(-161642 1544.81 -405.4)
(-181606 -3696.17 553.275)
(-211297 4319.24 -8294.1)
(-126912 -6007.38 -4555.03)
(-179485 -1117.8 -17182.6)
(-181145 -1316.02 -12299.2)
(-181067 -1366.88 -10203.8)
(-181557 -1382.49 -8480.54)
(-181663 -1573.35 -6909.48)
(-181467 -1663.68 -5856.7)
(-181371 -1756.33 -4975.38)
(-181371 -1899.37 -4249.03)
(-181495 -2004.5 -3605.82)
(-181615 -2054.3 -3132.98)
(-181584 -2067.17 -2813.25)
(-181498 -2119.09 -2625.59)
(-181484 -2178.4 -2554.26)
(-181496 -2243.74 -2608.63)
(-181480 -2309.45 -2736.36)
(-181388 -2376.56 -2930.68)
(-181213 -2444.65 -3194.71)
(-180958 -2517.68 -3513.1)
(-180614 -2595.87 -3866.88)
(-180170 -2680.45 -4248.6)
(-179605 -2771.34 -4643.32)
(-178899 -2869.98 -5024.09)
(-178046 -2974.93 -5348.67)
(-177066 -3086.93 -5569.24)
(-176005 -3202.22 -5662.91)
(-174919 -3315.98 -5625.92)
(-173857 -3423.07 -5478.58)
(-172859 -3521.19 -5248.92)
(-171955 -3608.21 -4968.32)
(-171159 -3682.03 -4664.13)
(-170472 -3744.34 -4359.11)
(-169890 -3797.47 -4078.2)
(-169405 -3836.73 -3843.97)
(-169005 -3859.19 -3653.37)
(-168681 -3871.12 -3494.31)
(-168439 -3874.04 -3375.08)
(-168277 -3866.95 -3296.87)
(-168189 -3851.27 -3256.22)
(-168175 -3827.33 -3252.44)
(-168228 -3795.58 -3286.11)
(-168337 -3755.16 -3356.89)
(-168501 -3702.91 -3449.62)
(-168727 -3637.27 -3554.86)
(-169034 -3555.57 -3679.54)
(-169508 -3458.15 -3820.34)
(-170316 -3353.52 -3973.5)
(-171607 -3244.32 -4098.47)
(-173215 -3172.3 -4108.35)
(-174209 -3115.8 -3759.45)
(-176203 -3154.51 -2687.63)
(-185526 -2444.98 1276.77)
(-232402 -3782.45 9038.63)
(-325085 4990.87 33181.5)
(-277518 2458.34 3102.18)
(-177181 1172.15 -17149.8)
(-177993 1027.85 -12375.2)
(-177343 1052.96 -10775.3)
(-177398 1118.49 -8926.07)
(-177042 1009.22 -6840.86)
(-176206 1001.73 -5293.07)
(-175663 992.758 -4185.57)
(-175210 931.258 -3369.75)
(-174807 908.528 -2718.99)
(-174430 943.211 -2207.1)
(-174018 1017.31 -1800.12)
(-173618 1051.77 -1516.38)
(-173278 1080.39 -1357.4)
(-172969 1105.22 -1319.95)
(-172633 1133.18 -1356.63)
(-172219 1163.86 -1457.53)
(-171720 1198.37 -1632.11)
(-171133 1233.25 -1859.5)
(-170447 1268.87 -2118.78)
(-169647 1304.23 -2399.08)
(-168714 1339.77 -2683.05)
(-167631 1373.8 -2942)
(-166402 1407.34 -3130.56)
(-165063 1438.05 -3204.58)
(-163680 1467.69 -3137.15)
(-162330 1498.64 -2931.75)
(-161082 1533.43 -2613.08)
(-159983 1571.62 -2218.89)
(-159057 1612.99 -1788.13)
(-158308 1657.5 -1352.13)
(-157720 1701.15 -930.807)
(-157265 1739.9 -541.744)
(-156922 1777.99 -211.799)
(-156625 1814.62 54.7314)
(-156332 1840.87 251.831)
(-156013 1855.2 373.159)
(-155627 1858.78 417.834)
(-155117 1849.23 389.441)
(-154460 1825.14 283.641)
(-153632 1786.18 96.4369)
(-152618 1733.17 -172.1)
(-151407 1670.18 -519.066)
(-149998 1604.15 -939.478)
(-148411 1544.74 -1429.34)
(-146720 1502 -1981.23)
(-145070 1476.52 -2600.63)
(-143539 1475.88 -3244.74)
(-141675 1488.92 -3776.24)
(-138422 1527.76 -4134.14)
(-133649 1454.82 -4361.25)
(-136765 1758.21 -2767.59)
(-159356 -379.942 7587.82)
(-202053 7484.55 45279.2)
(-131247 -1029.09 23424.4)
(-174631 -750.481 -15693.4)
(-176637 -847.935 -11578.1)
(-177002 -1020.94 -10030.6)
(-177752 -970.674 -8493.55)
(-178079 -882.42 -7082.18)
(-178277 -743.238 -5921.51)
(-178383 -711.193 -4949.98)
(-178537 -749.227 -4154.29)
(-178793 -787.39 -3547.58)
(-178995 -762.069 -3087.99)
(-179086 -732.192 -2680.95)
(-179195 -725.888 -2444.12)
(-179352 -723.694 -2347.63)
(-179507 -724.427 -2367.94)
(-179629 -727.388 -2478.23)
(-179696 -730.445 -2674.19)
(-179702 -734.688 -2945.99)
(-179652 -741.87 -3273.15)
(-179553 -752.188 -3636.44)
(-179402 -765.032 -4026.12)
(-179182 -780.872 -4429.39)
(-178865 -800.9 -4819.13)
(-178439 -826.732 -5133.63)
(-177933 -863.532 -5305.86)
(-177401 -909.845 -5286.46)
(-176894 -968.22 -5077.32)
(-176442 -1037.2 -4711.61)
(-176049 -1116.48 -4241.8)
(-175700 -1203.99 -3719.13)
(-175368 -1298.32 -3182.65)
(-175032 -1397.07 -2662.81)
(-174672 -1496.21 -2183.32)
(-174268 -1591.03 -1752.38)
(-173795 -1678.8 -1373.51)
(-173236 -1761.55 -1053.86)
(-172583 -1840.51 -797.937)
(-171832 -1912.8 -601.753)
(-170977 -1974.86 -459.258)
(-170008 -2024.8 -362.513)
(-168917 -2059.87 -306.149)
(-167701 -2079.1 -283.597)
(-166336 -2080.53 -277.412)
(-164789 -2060.88 -276.836)
(-163038 -2018.22 -287.691)
(-161096 -1950.59 -299.924)
(-159013 -1857.38 -305.519)
(-156832 -1754.83 -273.57)
(-153948 -1653.54 -174.999)
(-149389 -1620.25 224.136)
(-141393 -1461.12 620.648)
(-137940 -899.783 3617.19)
(-143808 1410.69 13748.3)
(-169723 15467.1 55310.8)
(-116017 11239.3 18082)
(-174109 1861.62 -15782.1)
(-177171 1644.48 -11644.3)
(-177907 1428.2 -10356.2)
(-178834 1442.14 -9029.09)
(-179449 1509.29 -7477.08)
(-179987 1636.17 -6233.44)
(-180500 1662.78 -5282.92)
(-180911 1626.69 -4474.96)
(-181258 1597.55 -3847.21)
(-181519 1637.2 -3364.53)
(-181735 1685.64 -2990.35)
(-181960 1713.98 -2762.21)
(-182197 1741.16 -2670.28)
(-182416 1768.06 -2694.18)
(-182584 1794.97 -2813.37)
(-182679 1823.73 -3025.53)
(-182695 1853.17 -3325.46)
(-182629 1881.5 -3692.88)
(-182478 1908.61 -4110.45)
(-182230 1935.25 -4568.7)
(-181856 1961.19 -5056.34)
(-181315 1985.32 -5543.96)
(-180582 2005.97 -5971.25)
(-179670 2017.63 -6259.58)
(-178636 2021.05 -6353.67)
(-177552 2012.78 -6245.73)
(-176483 1993.43 -5964.51)
(-175481 1962.66 -5558.83)
(-174580 1922.24 -5082.34)
(-173794 1873.39 -4580.54)
(-173126 1818.1 -4082.97)
(-172574 1760.21 -3610.77)
(-172127 1704.24 -3179.46)
(-171770 1652.39 -2793.73)
(-171490 1601.75 -2453.67)
(-171284 1552.21 -2163.69)
(-171152 1505.54 -1939.22)
(-171077 1458.55 -1776.4)
(-171036 1413.71 -1669.82)
(-171004 1372.79 -1614.85)
(-170952 1337.39 -1601.88)
(-170847 1310.57 -1618.2)
(-170648 1296.1 -1644.55)
(-170318 1297.47 -1656.9)
(-169842 1317.22 -1625.04)
(-169227 1352.43 -1555.13)
(-168460 1380.2 -1440.29)
(-167020 1376.54 -1266.15)
(-163825 1219.69 -1023.86)
(-158223 1001.39 -934.301)
(-154652 710.605 496.56)
(-157000 197.593 6761.34)
(-144241 7861.23 44224.9)
(-21523.4 7203.74 24921.3)
(-171413 -1088.91 -14544.7)
(-172773 -1066.07 -11426.2)
(-173008 -1246.42 -10154.1)
(-173304 -1324.99 -8704.31)
(-173051 -1244.47 -7529.46)
(-172719 -1129.59 -6362.56)
(-172439 -1130.64 -5345.77)
(-172311 -1157.24 -4554.61)
(-172319 -1142.17 -3966.3)
(-172215 -1072.79 -3477.97)
(-172002 -1025.99 -3124.46)
(-171842 -997.385 -2939.62)
(-171717 -970.563 -2889.33)
(-171579 -944.733 -2962.34)
(-171386 -916.947 -3152.57)
(-171103 -887.462 -3448.95)
(-170702 -857.437 -3834.26)
(-170177 -827.955 -4283.87)
(-169530 -798.683 -4776.31)
(-168757 -769.139 -5300.83)
(-167826 -739.202 -5858.06)
(-166670 -706.511 -6431.6)
(-165249 -671.2 -6949.86)
(-163610 -625.736 -7289.71)
(-161897 -568.524 -7353.97)
(-160274 -496.371 -7152.26)
(-158855 -412.025 -6748.32)
(-157697 -320.336 -6227.3)
(-156798 -229.437 -5666.52)
(-156124 -148.438 -5121.39)
(-155629 -79.3222 -4622.91)
(-155258 -21.3229 -4186.92)
(-154959 23.2221 -3811.44)
(-154696 57.518 -3491.89)
(-154443 84.99 -3229.97)
(-154182 105.048 -3022.72)
(-153894 117.139 -2861.78)
(-153563 122.375 -2737.45)
(-153174 121.366 -2643.96)
(-152698 114.427 -2573.83)
(-152115 103.963 -2515.64)
(-151406 93.4235 -2459.55)
(-150563 87.2818 -2387.93)
(-149593 92.2379 -2283.3)
(-148545 118.489 -2122.27)
(-147523 179.553 -1862.8)
(-146555 294.731 -1441.85)
(-145059 473.829 -816.01)
(-141493 680.459 69.5925)
(-134352 589.79 1385.88)
(-127568 701.281 4776.93)
(-132172 2988.45 12599.7)
(-136484 21955.3 42776)
(-45238.6 13512.3 22231.3)
(-166504 2391.46 -13148.9)
(-168288 2382.93 -9581.07)
(-168927 2159.19 -8059.67)
(-169324 2053.82 -6616.67)
(-169283 2117.39 -5341.25)
(-169477 2219.69 -4169.09)
(-169800 2205.17 -3158.16)
(-170119 2169.29 -2278.65)
(-170494 2180.73 -1524.35)
(-170809 2250.72 -918.686)
(-171073 2299.73 -471.295)
(-171366 2331.88 -178.873)
(-171681 2363.44 -17.7839)
(-171989 2394.54 21.5356)
(-172263 2427.69 -54.2313)
(-172482 2462.41 -239.251)
(-172637 2497.5 -518.989)
(-172734 2532.24 -871.457)
(-172793 2567.55 -1279.01)
(-172825 2604.82 -1735.21)
(-172814 2645.42 -2242.33)
(-172716 2693.23 -2790.06)
(-172505 2749.83 -3315.01)
(-172217 2823.94 -3702.24)
(-171944 2916.8 -3866.8)
(-171761 3028.86 -3803.43)
(-171689 3153.85 -3559.83)
(-171713 3284.05 -3197.51)
(-171787 3410.14 -2777.26)
(-171864 3523.11 -2344.07)
(-171902 3621.22 -1920.66)
(-171878 3705.28 -1519.28)
(-171815 3775.49 -1151.75)
(-171724 3837.23 -828.229)
(-171592 3893.88 -556.214)
(-171387 3944.12 -331.745)
(-171093 3987.2 -161.536)
(-170694 4025.17 -36.6957)
(-170161 4056.2 47.333)
(-169458 4077.78 93.9519)
(-168549 4088.25 104.63)
(-167392 4086.93 84.4336)
(-165942 4072.98 42.5584)
(-164160 4045.67 -9.72479)
(-162023 4005.13 -56.9044)
(-159541 3951.67 -68.4003)
(-156656 3887.01 12.2736)
(-152834 3792.41 182.911)
(-147011 3635.04 503.57)
(-138310 3141.84 730.613)
(-130740 2266.86 1781.93)
(-138320 2195.13 8170.09)
(-130432 8534.69 12853.2)
(66886.5 7047.04 7691.53)
(-173598 -1552.87 -13829.5)
(-175363 -1465.27 -11745.2)
(-176094 -1533.29 -10558.9)
(-176912 -1621.04 -9064.84)
(-177171 -1563.34 -7911.17)
(-177246 -1544.86 -6921.64)
(-177421 -1638.49 -6119.8)
(-177700 -1703.54 -5549.37)
(-177964 -1687.46 -5059.97)
(-178118 -1648.72 -4592.29)
(-178235 -1622.35 -4301.76)
(-178379 -1601.02 -4177.4)
(-178529 -1575.11 -4195.16)
(-178659 -1543.84 -4351.04)
(-178733 -1504.23 -4638.47)
(-178709 -1457.23 -5045.87)
(-178560 -1404.22 -5553.66)
(-178275 -1346.98 -6138.02)
(-177863 -1286.46 -6778.04)
(-177326 -1223.19 -7467.58)
(-176626 -1156.27 -8217.63)
(-175644 -1089.58 -9036.77)
(-174247 -1029.68 -9844.07)
(-172426 -988.03 -10402.4)
(-170372 -977.715 -10504.2)
(-168326 -993.817 -10156.3)
(-166444 -1027.83 -9504.56)
(-164808 -1067.08 -8701.99)
(-163436 -1105.47 -7875.94)
(-162304 -1143.15 -7108.54)
(-161374 -1178.35 -6440.11)
(-160607 -1207.18 -5879.35)
(-159960 -1227.47 -5423.6)
(-159401 -1248.1 -5060.67)
(-158901 -1280.22 -4777.8)
(-158428 -1325.53 -4562.17)
(-157953 -1382.05 -4404.5)
(-157447 -1450.17 -4300.3)
(-156875 -1530.53 -4249.09)
(-156197 -1624.55 -4250.43)
(-155365 -1733.21 -4305.07)
(-154323 -1855.74 -4415.58)
(-153014 -1988.52 -4588.64)
(-151401 -2125.19 -4836.16)
(-149494 -2255.87 -5174.71)
(-147361 -2367.76 -5622.34)
(-144977 -2446.55 -6172.63)
(-141684 -2466.63 -6728.04)
(-136505 -2503.78 -7260.38)
(-127804 -2737.63 -7376.48)
(-120921 -2594.15 -7002.44)
(-131413 1611.35 -5345.22)
(-127071 196.655 -10283.5)
(47528.2 -2957.79 -5967.23)
(-169353 2091.97 -12311.4)
(-170257 2315.81 -9777.9)
(-170313 2266.83 -8173.17)
(-170192 2212.35 -6423.64)
(-169544 2293.4 -5115.6)
(-169030 2325.29 -4105.1)
(-168612 2229.96 -3136.36)
(-168168 2157 -2319.63)
(-167768 2164.75 -1595.02)
(-167403 2191.65 -968.743)
(-167075 2200.34 -505.523)
(-166793 2198.88 -199.614)
(-166532 2198.05 -36.644)
(-166258 2198.75 -12.223)
(-165920 2204.31 -119.719)
(-165467 2214.03 -346.98)
(-164857 2226.77 -673.2)
(-164066 2241.04 -1073.84)
(-163094 2256.31 -1528.41)
(-161941 2272.53 -2030.16)
(-160566 2291.48 -2594.5)
(-158850 2310.27 -3237.55)
(-156652 2324.15 -3875.67)
(-154000 2324.92 -4268.53)
(-151173 2304.04 -4192.1)
(-148535 2272.44 -3655.5)
(-146345 2241.86 -2811.88)
(-144733 2225 -1828.11)
(-143712 2225.31 -841.024)
(-143201 2238.61 66.5313)
(-143091 2263.46 853.817)
(-143286 2302.36 1517.27)
(-143637 2355.12 2068.48)
(-144034 2407.56 2522.65)
(-144460 2443.33 2890.75)
(-144931 2459.8 3172.54)
(-145434 2457.37 3373.44)
(-145968 2432.77 3492.75)
(-146530 2381.5 3525.88)
(-147121 2297.09 3467.9)
(-147748 2172.25 3309.29)
(-148422 2000.28 3032.99)
(-149160 1776 2611.67)
(-149994 1495.6 2003.64)
(-150980 1156.79 1149.45)
(-152191 758.44 -24.4164)
(-153513 305.787 -1567.69)
(-154017 -182.759 -3414.4)
(-151912 -853.173 -5571.92)
(-145467 -1811.92 -6441.54)
(-144614 -1956.58 -6388.81)
(-166919 1607.19 -13682.5)
(-133634 -1277.7 -46256.5)
(-2029.61 -3729.66 -20040.3)
(-169356 -1253.32 -12625.5)
(-170537 -1189.4 -11036.3)
(-171160 -1194.19 -9969.63)
(-172098 -1287.9 -8645.53)
(-172712 -1306.67 -7500.43)
(-173119 -1420.31 -6589.71)
(-173601 -1502.19 -5848.48)
(-174101 -1520.59 -5203.56)
(-174496 -1504.73 -4600.39)
(-174859 -1508.41 -4100.16)
(-175245 -1509.55 -3757.13)
(-175644 -1510.16 -3566.07)
(-176055 -1507.14 -3533.48)
(-176460 -1500.8 -3668.77)
(-176821 -1489.48 -3973.29)
(-177103 -1474.28 -4437.61)
(-177280 -1456.69 -5042.64)
(-177355 -1438.11 -5762.58)
(-177359 -1418.23 -6580.41)
(-177328 -1393.35 -7492.33)
(-177248 -1361.89 -8502.92)
(-176974 -1321 -9650.58)
(-176237 -1266.42 -10886.3)
(-174969 -1204.68 -11803.1)
(-173539 -1145.27 -11915.8)
(-172411 -1101.72 -11215.5)
(-171775 -1079.93 -10078.5)
(-171607 -1080.11 -8778.86)
(-171799 -1095.46 -7494.99)
(-172238 -1119.21 -6316.41)
(-172841 -1145.25 -5279.97)
(-173546 -1173.65 -4379.71)
(-174322 -1200.53 -3594.19)
(-175162 -1216.58 -2897.23)
(-176073 -1221.81 -2262.29)
(-177069 -1222.61 -1667.77)
(-178164 -1221.86 -1096.74)
(-179380 -1219.23 -536.455)
(-180738 -1214.64 19.9467)
(-182265 -1207.51 573.613)
(-183988 -1197.02 1117.89)
(-185938 -1182.51 1637.41)
(-188153 -1162.98 2104.64)
(-190687 -1137.35 2473.43)
(-193636 -1106.89 2672.53)
(-197136 -1080.31 2591.7)
(-201167 -1067.21 2054.17)
(-205140 -1090.23 841.887)
(-206535 -1298.22 -1133.97)
(-204598 -1728.29 -3958.08)
(-200435 -1300.29 -10003.2)
(-207183 -1460.39 -25665.5)
(-169995 -4737.38 -65526.1)
(-79313.4 -2846.98 -26262.5)
(-172692 1251.66 -10837.9)
(-174854 1522.86 -9024.89)
(-175825 1590.21 -7835.7)
(-177043 1587.59 -6387.6)
(-177839 1636.19 -5297.25)
(-178428 1574.55 -4365.53)
(-178887 1528.33 -3411.49)
(-179316 1529.42 -2597.11)
(-179682 1550.75 -1898.66)
(-180011 1539.42 -1315.62)
(-180309 1519.06 -870.627)
(-180585 1490.32 -566.324)
(-180837 1458.7 -414.916)
(-181043 1426.04 -424.424)
(-181165 1396.23 -597.726)
(-181164 1370.28 -926.998)
(-181006 1348.6 -1396.56)
(-180681 1331.25 -1983.74)
(-180201 1319.35 -2669.68)
(-179581 1316.68 -3445.93)
(-178790 1324.3 -4323.16)
(-177652 1343.93 -5350.52)
(-175854 1377.62 -6482.06)
(-173249 1413.25 -7312.37)
(-170124 1432.11 -7358.7)
(-166948 1417.36 -6589.57)
(-164010 1367.41 -5353.61)
(-161426 1286.24 -3936.5)
(-159215 1182.23 -2540.84)
(-157340 1065.98 -1272.1)
(-155746 947.924 -180.051)
(-154403 829.943 740.969)
(-153315 714.71 1506.04)
(-152459 607.527 2148.16)
(-151765 506.595 2707.42)
(-151197 405.583 3205.63)
(-150755 300.234 3655.82)
(-150445 189.718 4072.97)
(-150283 73.1648 4470.27)
(-150299 -50.4819 4858.73)
(-150529 -181.773 5244.66)
(-151029 -320.58 5627.81)
(-151872 -465.758 5997.02)
(-153167 -615.381 6322.02)
(-155073 -768.522 6546.55)
(-157813 -928.383 6577.96)
(-161497 -1103.87 6278.97)
(-165694 -1328.55 5448.62)
(-168356 -1706.67 3847.46)
(-169887 -2207.29 1358.93)
(-174193 -1864.76 -6289.45)
(-181379 -2668.93 -31062.4)
(-201722 -6161.34 -79287.7)
(-116078 -2859.13 -26830.7)