/*--------------------------------*- C++ -*----------------------------------*\
| =========                 |                                                 |
| \\      /  F ield         | OpenFOAM: The Open Source CFD Toolbox           |
|  \\    /   O peration     | Version:  4.1                                   |
|   \\  /    A nd           | Web:      www.OpenFOAM.org                      |
|    \\/     M anipulation  |                                                 |
\*---------------------------------------------------------------------------*/
FoamFile
{
    version     2.0;
    format      ascii;
    class       volScalarField;
    location    "9";
    object      epsilon;
}
// * * * * * * * * * * * * * * * * * * * * * * * * * * * * * * * * * * * * * //

dimensions      [0 2 -3 0 0 0 0];

internalField   nonuniform List<scalar> 
4432
(
0.000385201
0.00043137
0.000474995
0.000533911
0.000584354
0.000644648
0.000705988
0.000759196
0.000813771
0.000869824
0.000907435
0.00096662
0.0010348
0.00110973
0.00123851
0.00128054
0.00258534
0.00403371
0.00359682
0.00440271
0.00419357
0.00401948
0.0098865
0.0142366
0.00284109
0.00244554
0.00305643
0.00320418
0.00324931
0.00347904
0.003537
0.00346615
0.00320025
0.00393156
0.00385299
0.00347583
0.00318734
0.00238361
0.00234213
0.00210769
0.00170882
0.00213021
0.00221676
0.00209828
0.00165155
0.00173477
0.0014474
0.00113047
0.00069013
0.000626231
0.000840337
0.00192949
0.00241951
0.00845774
0.000388289
0.000427737
0.000477109
0.000520464
0.000582867
0.000630735
0.000691394
0.000741803
0.000801222
0.000840359
0.000897
0.00095344
0.00101486
0.00106916
0.00113442
0.00132206
0.00205179
0.0027969
0.00251322
0.00278511
0.00259749
0.00235666
0.00370337
0.0044963
0.00318734
0.00293273
0.00388824
0.00357226
0.00454496
0.00431472
0.00415149
0.00386033
0.00320625
0.00442636
0.00476121
0.0041741
0.00371899
0.00248514
0.00250225
0.00212057
0.00128663
0.00158242
0.00176407
0.00131812
0.00155889
0.000910006
0.000784615
0.00060823
0.00046005
0.00051144
0.000792981
0.00224493
0.00301356
0.00970396
0.0181308
0.00013682
5.37545e-05
3.43047e-05
4.103e-05
6.33983e-05
6.55652e-05
0.000113991
7.6897e-05
0.000156582
0.000179759
0.000215485
0.000258478
0.000230437
0.000496646
2.47192e-05
0.00187771
0.0898995
0.436661
0.584754
0.756186
1.07631
1.37593
1.49372
0.0737791
0.594372
0.382213
0.347133
0.289804
0.168374
0.203643
0.143344
0.105837
0.0594284
0.00434898
0.00996883
0.00988892
0.0108619
0.010027
0.00315949
0.00792686
0.00901172
0.0066672
0.0121209
0.00911338
0.00963151
0.00234129
0.00134043
0.000679899
0.0092936
0.10419
0.211957
0.266098
0.329225
0.0181312
0.000135239
5.31973e-05
3.30961e-05
3.98718e-05
5.90569e-05
7.86112e-05
4.81159e-05
0.000129196
0.000116399
0.000117226
0.000165721
0.000145078
0.00035747
0.00042896
0.000660106
0.0060595
0.168328
0.273145
0.355876
0.37655
0.312765
0.407521
0.117736
0.00788762
0.0373433
0.0190036
0.019966
0.014535
0.0100061
0.00994976
0.0109229
0.008669
0.00393768
0.00213716
0.00242327
0.00164545
0.00116173
0.000717014
7.14629e-05
0.000587799
0.000547028
0.000488103
0.000649977
0.000529044
0.000385679
0.000374277
0.000756276
0.000785988
0.00790772
0.0940178
0.224965
0.292542
0.3803
0.0180973
5.4591e-05
3.24698e-07
1.44659e-07
3.23316e-07
2.42327e-08
2.83191e-06
4.01798e-06
3.41644e-06
4.24328e-06
1.05248e-05
1.0258e-05
2.02176e-05
3.33457e-05
2.45887e-05
0.000130579
0.000764386
0.00711319
0.0418807
0.0665929
0.0703433
0.0556109
0.073635
0.0880074
0.0128785
0.0511736
0.0220318
0.0469662
0.0643287
0.0497587
0.057448
0.0537278
0.0495385
0.003631
0.00478623
0.00593107
0.006187
0.00563657
0.0103586
0.0102613
0.0133399
0.0108944
0.0116422
0.007692
0.00452113
0.00138011
0.00115069
0.00261952
0.00482957
0.00957354
0.014266
0.00543403
0.0129136
0.010154
0.0180982
5.45775e-05
3.23921e-07
1.26996e-07
3.61472e-07
8.34615e-08
2.69628e-06
2.54208e-06
5.52113e-06
5.91291e-06
3.66003e-06
1.3111e-05
7.65024e-06
3.50062e-05
5.33139e-05
8.58842e-05
2.95147e-05
0.0101293
0.0225042
0.0335527
0.0299532
0.0066726
0.0183639
0.00954239
0.00305141
0.00613611
0.00316383
0.00756481
0.0118159
0.0177732
0.0303243
0.0282489
0.0262361
0.00303497
0.00261437
0.00108989
0.000324832
0.000435618
0.00110561
0.00035855
0.000820721
0.000982342
0.000235315
0.00065088
0.000521081
3.80843e-05
5.39653e-05
0.000110161
0.000165385
0.000902542
1.28451e-05
0.00150686
0.0121739
0.0105664
0.0180967
5.45837e-05
2.75994e-07
1.51776e-08
1.49162e-08
1.49438e-08
1.50799e-08
1.54475e-08
1.61661e-08
1.938e-08
3.61244e-08
6.43819e-08
2.63119e-07
6.62757e-07
1.6021e-06
7.37665e-06
2.15281e-05
0.000267876
0.00184776
0.00568682
0.00939859
0.00638329
0.0106079
0.0150392
0.00849234
0.01369
0.0102812
0.0136798
0.0223413
0.019344
0.0147799
0.0230761
0.00637947
0.00111032
0.00129113
0.000541088
0.000151075
0.000102581
4.61699e-05
0.000911059
0.000625262
0.000539882
0.000248181
0.00019297
0.00118013
0.000643342
9.92656e-05
4.35726e-05
4.06827e-05
0.000351274
0.00126222
0.000515749
0.000295804
0.000918936
0.0180975
5.45719e-05
2.7553e-07
1.51721e-08
1.49132e-08
1.49551e-08
1.51006e-08
1.53159e-08
1.66294e-08
1.92366e-08
2.45312e-08
7.64456e-08
9.25285e-08
9.80234e-07
2.33684e-06
9.09943e-06
3.41718e-05
0.000726403
0.00146261
0.00236637
0.00620236
0.00178582
0.00637839
0.00819971
0.00553041
0.00587244
0.00302644
0.00407931
0.00692067
0.00921455
0.0124999
0.00888114
0.0076596
0.000747021
0.000194309
0.000192649
2.52004e-05
2.16833e-05
2.61019e-08
3.81864e-08
4.86727e-08
1.47037e-08
4.02949e-05
1.2408e-08
1.37644e-07
1.51455e-08
1.5244e-08
4.05955e-08
1.16874e-07
0.000105625
1.35553e-05
0.000124681
2.60151e-05
0.000885095
0.0180961
5.45806e-05
2.76251e-07
1.51735e-08
1.49217e-08
1.49053e-08
1.49114e-08
1.49221e-08
1.49406e-08
1.49376e-08
1.49321e-08
1.49829e-08
1.49556e-08
1.50191e-08
1.53358e-08
1.98057e-08
1.55427e-07
1.12599e-05
0.000384702
0.00163619
0.0030877
0.000975038
0.00125051
0.00293253
0.00279146
0.00540259
0.00568647
0.00844674
0.011063
0.0111352
0.00924699
0.0174744
0.00528288
0.000563475
0.000368605
8.61878e-07
1.31824e-06
1.35311e-07
1.67305e-07
9.29338e-08
1.52694e-08
1.43414e-07
7.14356e-08
2.95358e-08
1.9372e-07
4.12133e-06
7.6137e-06
8.83533e-06
4.13029e-06
1.49974e-08
1.92815e-08
5.31294e-07
2.15949e-06
3.8359e-06
0.0180969
5.45698e-05
2.77592e-07
1.51741e-08
1.4919e-08
1.49039e-08
1.49093e-08
1.49343e-08
1.49337e-08
1.49336e-08
1.4954e-08
1.49428e-08
1.49474e-08
1.52776e-08
1.55542e-08
2.16373e-08
1.90454e-07
2.71178e-05
0.00031019
0.000577433
0.00177176
0.000452641
0.000898877
0.00147932
0.00173183
0.00260125
0.00259708
0.00408506
0.00504927
0.00446501
0.00725975
0.00613455
0.00253441
0.00022739
0.000194293
8.39836e-07
2.51462e-08
1.67975e-07
1.81384e-08
1.50561e-08
1.50538e-08
1.52014e-08
1.51024e-08
1.51137e-08
1.50654e-08
1.58602e-08
1.50486e-08
1.59094e-08
1.5214e-08
1.00846e-08
1.13396e-06
1.06653e-05
2.18749e-06
3.6699e-06
0.0180948
5.45873e-05
2.81682e-07
1.51931e-08
1.49222e-08
1.49287e-08
1.49285e-08
1.49397e-08
1.49646e-08
1.49364e-08
1.49294e-08
1.49751e-08
1.49299e-08
1.49222e-08
1.49485e-08
1.49455e-08
1.50362e-08
2.13829e-08
1.2764e-06
2.54455e-05
0.00110313
0.000553854
0.000394731
0.000820702
0.000559454
0.00145587
0.000534289
0.00133659
0.00242637
0.00313027
0.00121437
0.00549412
0.000934758
9.39836e-05
3.29229e-05
3.29435e-07
2.11457e-08
1.52828e-08
1.53115e-08
1.49646e-08
1.49636e-08
1.4972e-08
1.50228e-08
1.51468e-08
1.52075e-08
1.95286e-08
3.2011e-08
1.09805e-07
1.51516e-08
1.50819e-08
3.03911e-08
8.26562e-07
2.04208e-06
2.85153e-06
0.0180956
5.45771e-05
2.81222e-07
1.51881e-08
1.49125e-08
1.49249e-08
1.49239e-08
1.49294e-08
1.49634e-08
1.49317e-08
1.49284e-08
1.49711e-08
1.49468e-08
1.49471e-08
1.49258e-08
1.49226e-08
1.49812e-08
2.91561e-08
8.6282e-07
5.69809e-06
0.000483128
0.000111558
0.000301366
0.000374349
0.000311411
0.000648803
0.000298116
0.000797864
0.00153158
0.000727058
0.00187572
0.00206952
0.000873077
8.68674e-05
6.54676e-06
2.79234e-08
1.49213e-08
1.49327e-08
1.4961e-08
1.49771e-08
1.49692e-08
1.49865e-08
1.50072e-08
1.50603e-08
1.50458e-08
1.5057e-08
1.5058e-08
1.51372e-08
1.50763e-08
1.50598e-08
2.28327e-08
5.84012e-07
1.80122e-06
2.90045e-06
0.0180939
5.45845e-05
2.82088e-07
1.51955e-08
1.49228e-08
1.49323e-08
1.49532e-08
1.49283e-08
1.49288e-08
1.49835e-08
1.49409e-08
1.49414e-08
1.49796e-08
1.49345e-08
1.49303e-08
1.49381e-08
1.49546e-08
1.49383e-08
1.54479e-08
2.90112e-08
6.33254e-06
1.08067e-05
4.55759e-05
7.21623e-05
6.10492e-05
0.000460625
0.000252945
0.000332675
0.00070578
0.00121342
0.00041837
0.00152772
0.000617897
0.000193069
1.96068e-05
3.17068e-08
1.49438e-08
1.49484e-08
1.49954e-08
1.50264e-08
1.49899e-08
1.50325e-08
1.50638e-08
1.50819e-08
1.51062e-08
1.50578e-08
1.50871e-08
1.50682e-08
1.49821e-08
1.49579e-08
1.50367e-08
1.52071e-08
1.22083e-07
4.03307e-07
0.0180947
5.45736e-05
2.81624e-07
1.51907e-08
1.49129e-08
1.4918e-08
1.49173e-08
1.49238e-08
1.49283e-08
1.49541e-08
1.49349e-08
1.49372e-08
1.49723e-08
1.49318e-08
1.4928e-08
1.49407e-08
1.49469e-08
1.49396e-08
1.52776e-08
1.80697e-08
1.12278e-06
3.83862e-06
3.4102e-05
3.81728e-05
9.76287e-05
0.000241474
0.00011866
0.000243803
0.000621836
0.000419456
0.000512931
0.000549295
0.000455459
0.000162807
5.33532e-06
1.65839e-08
1.49488e-08
1.49515e-08
1.50028e-08
1.50068e-08
1.49649e-08
1.5018e-08
1.49842e-08
1.50082e-08
1.50741e-08
1.50256e-08
1.50094e-08
1.50391e-08
1.50473e-08
1.50078e-08
1.50159e-08
1.5612e-08
2.25593e-07
3.93268e-07
0.0180922
5.45916e-05
2.77633e-07
1.51705e-08
1.49071e-08
1.49146e-08
1.49156e-08
1.49264e-08
1.49623e-08
1.49324e-08
1.49222e-08
1.4944e-08
1.49448e-08
1.49767e-08
1.49456e-08
1.49407e-08
1.49841e-08
1.49864e-08
1.49446e-08
1.49678e-08
1.79882e-08
2.19225e-08
1.73051e-07
1.25517e-07
7.23977e-06
0.000123581
6.70411e-05
5.72157e-05
0.000230761
0.000405862
0.000284609
0.000325572
0.000324597
0.000177904
1.08891e-05
2.56337e-08
1.49979e-08
1.49669e-08
1.49758e-08
1.49868e-08
1.49919e-08
1.50499e-08
1.50418e-08
1.50769e-08
1.51184e-08
1.50259e-08
1.5022e-08
1.50023e-08
1.49741e-08
1.49431e-08
1.50083e-08
1.60612e-08
1.25975e-07
3.87075e-07
0.018093
5.45811e-05
2.77157e-07
1.51669e-08
1.49049e-08
1.49189e-08
1.49184e-08
1.4926e-08
1.49606e-08
1.49283e-08
1.49183e-08
1.49404e-08
1.4941e-08
1.49786e-08
1.4932e-08
1.4933e-08
1.49691e-08
1.49757e-08
1.49462e-08
1.49443e-08
1.60012e-08
1.11268e-08
1.49537e-07
7.86579e-08
7.11778e-07
5.49312e-05
3.60789e-06
7.77909e-05
0.000130496
0.000147965
0.000153161
0.000247118
0.000216943
5.35544e-06
2.86321e-08
1.50188e-08
1.49655e-08
1.49576e-08
1.4974e-08
1.49674e-08
1.49585e-08
1.50374e-08
1.4997e-08
1.49987e-08
1.50198e-08
1.504e-08
1.49895e-08
1.50128e-08
1.50622e-08
1.49931e-08
1.49966e-08
1.60501e-08
1.21253e-07
3.74315e-07
0.0180911
5.4588e-05
2.78033e-07
1.51709e-08
1.4906e-08
1.49168e-08
1.4953e-08
1.49364e-08
1.49333e-08
1.49922e-08
1.4931e-08
1.49263e-08
1.49829e-08
1.49349e-08
1.49299e-08
1.49389e-08
1.49403e-08
1.4954e-08
1.49472e-08
1.49774e-08
1.49497e-08
1.49795e-08
1.5119e-08
1.51329e-08
1.57518e-08
2.27944e-06
2.1271e-07
1.11196e-06
1.13386e-06
2.04655e-06
2.7347e-06
6.8264e-06
4.5841e-05
5.13118e-06
4.43949e-08
1.50486e-08
1.50109e-08
1.49818e-08
1.49696e-08
1.49874e-08
1.50219e-08
1.50141e-08
1.5033e-08
1.50549e-08
1.51007e-08
1.50508e-08
1.50413e-08
1.5034e-08
1.50289e-08
1.49638e-08
1.50028e-08
1.52855e-08
3.85183e-08
1.29072e-07
0.0180918
5.45771e-05
2.77592e-07
1.51678e-08
1.49042e-08
1.49118e-08
1.49123e-08
1.49193e-08
1.49308e-08
1.49618e-08
1.49272e-08
1.49267e-08
1.49793e-08
1.49312e-08
1.49294e-08
1.49392e-08
1.49357e-08
1.49483e-08
1.49451e-08
1.49961e-08
1.4983e-08
1.49908e-08
1.5105e-08
1.49869e-08
1.57413e-08
3.30958e-07
1.81558e-08
7.29374e-07
1.1028e-06
9.51622e-07
6.60127e-07
2.31034e-06
1.51898e-06
1.97681e-08
1.50605e-08
1.50302e-08
1.50271e-08
1.4977e-08
1.49639e-08
1.49859e-08
1.50369e-08
1.50219e-08
1.50108e-08
1.50691e-08
1.50096e-08
1.50034e-08
1.49681e-08
1.49814e-08
1.50132e-08
1.49853e-08
1.49831e-08
1.5485e-08
6.93329e-08
2.32109e-07
0.0180891
5.45963e-05
2.78702e-07
1.51717e-08
1.49065e-08
1.4917e-08
1.49518e-08
1.49323e-08
1.49283e-08
1.49882e-08
1.49843e-08
1.49244e-08
1.4925e-08
1.49769e-08
1.49374e-08
1.49361e-08
1.49418e-08
1.49553e-08
1.49915e-08
1.49531e-08
1.49371e-08
1.49768e-08
1.49772e-08
1.50038e-08
1.49686e-08
1.86959e-08
1.52159e-08
1.55761e-08
1.54927e-08
1.67918e-08
1.62302e-08
2.36064e-08
2.26048e-07
1.94998e-08
1.50403e-08
1.50421e-08
1.5024e-08
1.50678e-08
1.50626e-08
1.50634e-08
1.50175e-08
1.49924e-08
1.50276e-08
1.50494e-08
1.51081e-08
1.5054e-08
1.505e-08
1.51194e-08
1.50442e-08
1.49938e-08
1.50336e-08
1.51813e-08
2.54317e-08
1.43708e-07
0.0180899
5.4587e-05
2.78284e-07
1.51673e-08
1.49041e-08
1.49144e-08
1.49484e-08
1.49387e-08
1.49395e-08
1.4984e-08
1.49845e-08
1.49269e-08
1.4923e-08
1.49748e-08
1.49398e-08
1.49351e-08
1.49348e-08
1.49603e-08
1.49438e-08
1.49412e-08
1.49482e-08
1.49485e-08
1.4965e-08
1.49771e-08
1.4962e-08
1.51253e-08
1.50099e-08
1.593e-08
1.63001e-08
1.59929e-08
1.56282e-08
1.59528e-08
1.60647e-08
1.5008e-08
1.50169e-08
1.50131e-08
1.50146e-08
1.50266e-08
1.50305e-08
1.50187e-08
1.50243e-08
1.50223e-08
1.50266e-08
1.50333e-08
1.50438e-08
1.50235e-08
1.49959e-08
1.50239e-08
1.50674e-08
1.50657e-08
1.50481e-08
1.52107e-08
3.35921e-08
2.19087e-07
0.0180877
5.45921e-05
2.79202e-07
1.51719e-08
1.49079e-08
1.49221e-08
1.49286e-08
1.49343e-08
1.49344e-08
1.49371e-08
1.49615e-08
1.4932e-08
1.49263e-08
1.49302e-08
1.49401e-08
1.49325e-08
1.49291e-08
1.49396e-08
1.49423e-08
1.49774e-08
1.49479e-08
1.49326e-08
1.49336e-08
1.49459e-08
1.49623e-08
1.49737e-08
1.5002e-08
1.4971e-08
1.49716e-08
1.50086e-08
1.5015e-08
1.49996e-08
1.51106e-08
1.50545e-08
1.50451e-08
1.50446e-08
1.50626e-08
1.50137e-08
1.50122e-08
1.50315e-08
1.50198e-08
1.50262e-08
1.50389e-08
1.5046e-08
1.50629e-08
1.50614e-08
1.5037e-08
1.50913e-08
1.50744e-08
1.5084e-08
1.51111e-08
1.52489e-08
1.51844e-08
1.69811e-08
0.0180884
5.45825e-05
2.78755e-07
1.51693e-08
1.4905e-08
1.49117e-08
1.49119e-08
1.4919e-08
1.492e-08
1.49285e-08
1.49585e-08
1.49286e-08
1.49238e-08
1.49266e-08
1.49376e-08
1.49354e-08
1.49288e-08
1.49803e-08
1.49823e-08
1.49325e-08
1.49227e-08
1.49337e-08
1.49381e-08
1.49665e-08
1.49733e-08
1.49721e-08
1.50156e-08
1.49824e-08
1.4984e-08
1.49914e-08
1.49734e-08
1.49596e-08
1.50402e-08
1.49917e-08
1.49763e-08
1.49988e-08
1.5074e-08
1.50283e-08
1.50424e-08
1.50072e-08
1.50005e-08
1.5024e-08
1.50242e-08
1.50525e-08
1.51197e-08
1.50499e-08
1.50279e-08
1.50825e-08
1.50655e-08
1.51167e-08
1.50774e-08
1.5147e-08
1.5152e-08
2.06893e-08
0.0180855
5.45982e-05
2.7969e-07
1.51907e-08
1.493e-08
1.49657e-08
1.49333e-08
1.49334e-08
1.49907e-08
1.4937e-08
1.49275e-08
1.4984e-08
1.49313e-08
1.4922e-08
1.49333e-08
1.49439e-08
1.49407e-08
1.49471e-08
1.49975e-08
1.49892e-08
1.50081e-08
1.49412e-08
1.49321e-08
1.49456e-08
1.49426e-08
1.49514e-08
1.49726e-08
1.50454e-08
1.49883e-08
1.49741e-08
1.50047e-08
1.49878e-08
1.49735e-08
1.49952e-08
1.49974e-08
1.50765e-08
1.49823e-08
1.49621e-08
1.50713e-08
1.50021e-08
1.49983e-08
1.50332e-08
1.50992e-08
1.50831e-08
1.50562e-08
1.51404e-08
1.51384e-08
1.52436e-08
1.51459e-08
1.51437e-08
1.52215e-08
1.52406e-08
1.5212e-08
1.54074e-08
0.0180863
5.45903e-05
2.79192e-07
1.51824e-08
1.4911e-08
1.4918e-08
1.49238e-08
1.49334e-08
1.4964e-08
1.49344e-08
1.49254e-08
1.49824e-08
1.49282e-08
1.49141e-08
1.49259e-08
1.49325e-08
1.4931e-08
1.4945e-08
1.49757e-08
1.4975e-08
1.50077e-08
1.49375e-08
1.49291e-08
1.50185e-08
1.49789e-08
1.49839e-08
1.4956e-08
1.49448e-08
1.50056e-08
1.49877e-08
1.49761e-08
1.50418e-08
1.50128e-08
1.50202e-08
1.5011e-08
1.50302e-08
1.49915e-08
1.49616e-08
1.50692e-08
1.50374e-08
1.50264e-08
1.50517e-08
1.51395e-08
1.51549e-08
1.51893e-08
1.50876e-08
1.50754e-08
1.52664e-08
1.51756e-08
1.5157e-08
1.52085e-08
1.51874e-08
1.52302e-08
2.33122e-08
0.018084
5.46131e-05
2.8707e-07
1.5225e-08
1.4937e-08
1.49442e-08
1.49461e-08
1.49732e-08
1.49667e-08
1.49667e-08
1.49907e-08
1.4942e-08
1.49426e-08
1.49863e-08
1.49334e-08
1.4935e-08
1.4948e-08
1.49542e-08
1.49945e-08
1.49573e-08
1.49473e-08
1.49433e-08
1.4945e-08
1.49553e-08
1.49658e-08
1.49702e-08
1.49741e-08
1.50038e-08
1.4979e-08
1.49732e-08
1.50271e-08
1.50296e-08
1.5008e-08
1.50018e-08
1.50479e-08
1.49863e-08
1.49723e-08
1.50294e-08
1.50236e-08
1.50697e-08
1.50685e-08
1.50742e-08
1.50763e-08
1.51629e-08
1.51585e-08
1.51317e-08
1.51237e-08
1.51562e-08
1.51651e-08
1.53273e-08
1.52498e-08
1.52667e-08
1.53082e-08
1.5385e-08
0.0180847
5.46061e-05
2.86691e-07
1.52213e-08
1.49351e-08
1.49498e-08
1.49469e-08
1.49683e-08
1.49522e-08
1.49501e-08
1.49891e-08
1.49403e-08
1.49415e-08
1.49916e-08
1.4936e-08
1.49218e-08
1.49387e-08
1.49469e-08
1.49845e-08
1.49633e-08
1.49486e-08
1.49442e-08
1.4943e-08
1.49591e-08
1.49755e-08
1.49916e-08
1.49575e-08
1.49961e-08
1.49774e-08
1.49892e-08
1.49833e-08
1.50206e-08
1.50005e-08
1.50501e-08
1.50372e-08
1.50525e-08
1.49889e-08
1.49876e-08
1.5023e-08
1.50242e-08
1.505e-08
1.50534e-08
1.50782e-08
1.51011e-08
1.51089e-08
1.5177e-08
1.51884e-08
1.53465e-08
1.51895e-08
1.51337e-08
1.52955e-08
1.52375e-08
1.5189e-08
1.5342e-08
0.0180811
5.45976e-05
2.84139e-07
1.52047e-08
1.49221e-08
1.4929e-08
1.4954e-08
1.49287e-08
1.49206e-08
1.49817e-08
1.49331e-08
1.49274e-08
1.49749e-08
1.49764e-08
1.49914e-08
1.494e-08
1.49288e-08
1.49296e-08
1.49377e-08
1.49981e-08
1.49608e-08
1.49387e-08
1.49953e-08
1.51983e-08
1.4929e-08
1.6763e-06
3.08527e-06
1.45132e-08
1.49694e-08
1.49703e-08
1.49842e-08
1.49975e-08
1.49974e-08
1.49919e-08
1.50188e-08
1.50238e-08
1.50617e-08
1.4988e-08
1.49864e-08
1.50115e-08
1.50069e-08
1.50425e-08
1.50611e-08
1.51708e-08
1.51437e-08
1.5151e-08
1.51593e-08
1.52011e-08
1.5228e-08
1.53185e-08
1.52821e-08
1.52844e-08
1.53572e-08
1.55672e-08
0.0180825
5.46331e-05
2.85699e-07
1.52093e-08
1.49333e-08
1.49417e-08
1.49701e-08
1.49264e-08
1.4927e-08
1.49915e-08
1.49299e-08
1.49181e-08
1.49309e-08
1.4939e-08
1.49341e-08
1.49209e-08
1.49807e-08
1.49427e-08
1.49446e-08
1.49954e-08
1.49567e-08
1.49474e-08
1.49681e-08
1.51912e-08
3.05865e-08
9.53126e-08
1.65698e-08
1.4955e-08
1.49616e-08
1.49603e-08
1.4972e-08
1.50466e-08
1.49957e-08
1.50065e-08
1.49759e-08
1.49687e-08
1.49831e-08
1.49873e-08
1.49944e-08
1.50221e-08
1.51201e-08
1.50964e-08
1.50963e-08
1.50978e-08
1.50764e-08
1.50924e-08
1.51125e-08
1.52908e-08
1.52994e-08
1.52639e-08
1.5263e-08
1.52659e-08
1.52456e-08
1.5452e-08
0.0180802
5.46355e-05
2.88185e-07
1.52427e-08
1.49215e-08
1.49394e-08
1.49913e-08
1.49287e-08
1.49227e-08
1.49825e-08
1.49619e-08
1.49492e-08
1.49592e-08
1.49802e-08
1.49324e-08
1.49185e-08
1.49275e-08
1.49251e-08
1.49398e-08
1.49595e-08
1.49458e-08
1.49312e-08
1.51142e-08
1.54838e-08
2.13738e-05
3.08164e-05
3.67792e-05
6.92554e-06
2.61882e-06
5.55252e-08
1.50686e-08
1.50545e-08
1.49584e-08
1.49516e-08
1.5047e-08
1.50382e-08
1.50573e-08
1.50038e-08
1.50067e-08
1.50442e-08
1.50452e-08
1.51077e-08
1.50762e-08
1.50699e-08
1.51151e-08
1.51121e-08
1.51502e-08
1.51694e-08
1.5218e-08
1.52355e-08
1.52457e-08
1.52974e-08
1.53962e-08
1.57001e-08
0.0181215
5.4438e-05
2.86284e-07
1.52077e-08
1.49279e-08
1.49699e-08
1.49282e-08
1.49252e-08
1.49684e-08
1.49358e-08
1.49362e-08
1.49707e-08
1.495e-08
1.49476e-08
1.49662e-08
1.4967e-08
1.49801e-08
1.49325e-08
1.4932e-08
1.49988e-08
1.4946e-08
1.49299e-08
1.52227e-08
1.58854e-08
3.35549e-05
1.38581e-05
3.15685e-05
6.20253e-06
2.62268e-06
4.49423e-08
1.49937e-08
1.49773e-08
1.50083e-08
1.50139e-08
1.50207e-08
1.50147e-08
1.50162e-08
1.50508e-08
1.50527e-08
1.5082e-08
1.50614e-08
1.50557e-08
1.50758e-08
1.50773e-08
1.50889e-08
1.50688e-08
1.5104e-08
1.51651e-08
1.52109e-08
1.52969e-08
1.53398e-08
1.5311e-08
1.53541e-08
1.55884e-08
0.0181127
5.43443e-05
2.84791e-07
1.52046e-08
1.49218e-08
1.49315e-08
1.49605e-08
1.49306e-08
1.4928e-08
1.49982e-08
1.49323e-08
1.49317e-08
1.49966e-08
1.49353e-08
1.49248e-08
1.49876e-08
1.49341e-08
1.49303e-08
1.49637e-08
1.49349e-08
1.49389e-08
1.495e-08
1.62533e-08
1.30533e-05
0.00765409
0.0006849
7.11822e-05
2.61363e-05
1.31241e-06
2.02128e-08
1.49846e-08
1.49398e-08
1.49865e-08
1.49877e-08
1.49886e-08
1.50608e-08
1.50434e-08
1.50446e-08
1.5072e-08
1.50521e-08
1.50464e-08
1.50719e-08
1.51386e-08
1.51471e-08
1.52056e-08
1.51564e-08
1.51407e-08
1.51154e-08
1.51771e-08
1.55246e-08
1.54945e-08
1.55216e-08
1.58433e-08
0.0180722
5.45091e-05
2.91685e-07
1.52422e-08
1.49405e-08
1.4952e-08
1.49699e-08
1.49271e-08
1.49276e-08
1.49837e-08
1.49826e-08
1.49306e-08
1.49302e-08
1.49806e-08
1.49512e-08
1.49565e-08
1.49879e-08
1.49418e-08
1.4928e-08
1.49652e-08
1.49461e-08
1.49314e-08
1.51695e-08
2.16694e-05
0.00217837
0.000465735
9.59316e-05
3.65168e-05
2.16653e-06
1.93194e-08
1.49789e-08
1.49905e-08
1.49893e-08
1.50028e-08
1.50184e-08
1.50353e-08
1.50569e-08
1.50877e-08
1.50082e-08
1.5003e-08
1.51105e-08
1.51162e-08
1.52008e-08
1.52049e-08
1.52387e-08
1.5228e-08
1.52095e-08
1.52285e-08
1.52561e-08
1.5421e-08
1.53642e-08
1.539e-08
1.58455e-08
0.0180758
5.45347e-05
2.88482e-07
1.52372e-08
1.49472e-08
1.49734e-08
1.49278e-08
1.49178e-08
1.49595e-08
1.4959e-08
1.49713e-08
1.49688e-08
1.49784e-08
1.4936e-08
1.49249e-08
1.49891e-08
1.49881e-08
1.49421e-08
1.49531e-08
1.49443e-08
1.49482e-08
1.49628e-08
4.37101e-08
2.21029e-07
1.26906e-05
0.000137924
4.76178e-05
2.77617e-05
4.27511e-06
2.95031e-08
1.4989e-08
1.50259e-08
1.49583e-08
1.4949e-08
1.49937e-08
1.49876e-08
1.49908e-08
1.50255e-08
1.50334e-08
1.50634e-08
1.50638e-08
1.50731e-08
1.51937e-08
1.50858e-08
1.50511e-08
1.50801e-08
1.50935e-08
1.52811e-08
1.52402e-08
1.5206e-08
1.52287e-08
1.5301e-08
1.5351e-08
1.568e-08
0.0180764
5.45283e-05
2.88098e-07
1.52324e-08
1.49434e-08
1.49714e-08
1.49277e-08
1.49155e-08
1.49658e-08
1.49635e-08
1.49686e-08
1.49623e-08
1.49735e-08
1.4932e-08
1.49271e-08
1.49973e-08
1.49376e-08
1.49343e-08
1.4985e-08
1.49626e-08
1.49451e-08
1.49497e-08
1.40795e-08
6.52306e-07
1.55822e-05
0.000111361
5.02776e-05
3.32567e-05
7.31977e-06
4.52235e-08
1.50396e-08
1.50332e-08
1.4992e-08
1.49613e-08
1.49763e-08
1.50073e-08
1.50101e-08
1.50585e-08
1.50143e-08
1.50014e-08
1.50137e-08
1.50292e-08
1.51653e-08
1.51108e-08
1.51145e-08
1.51229e-08
1.51386e-08
1.5335e-08
1.52548e-08
1.52709e-08
1.55007e-08
1.52791e-08
1.52755e-08
1.58317e-08
0.0180743
5.46386e-05
2.90109e-07
1.52358e-08
1.49366e-08
1.49506e-08
1.49512e-08
1.49747e-08
1.49283e-08
1.49141e-08
1.49716e-08
1.49321e-08
1.49265e-08
1.49829e-08
1.49313e-08
1.49232e-08
1.49473e-08
1.49492e-08
1.49833e-08
1.49352e-08
1.49408e-08
1.49926e-08
1.49562e-08
1.49986e-08
1.61285e-07
2.35209e-06
3.49491e-06
4.07915e-07
1.81768e-08
1.49728e-08
1.49538e-08
1.50203e-08
1.50044e-08
1.50049e-08
1.50269e-08
1.49864e-08
1.49865e-08
1.50071e-08
1.50095e-08
1.51044e-08
1.50316e-08
1.50138e-08
1.50474e-08
1.50864e-08
1.51156e-08
1.51275e-08
1.5181e-08
1.52135e-08
1.53341e-08
1.5294e-08
1.53109e-08
1.53723e-08
1.54096e-08
1.57955e-08
0.0180749
5.46339e-05
2.89679e-07
1.5231e-08
1.49345e-08
1.49484e-08
1.49492e-08
1.49727e-08
1.49261e-08
1.49122e-08
1.49694e-08
1.4963e-08
1.49748e-08
1.49407e-08
1.49393e-08
1.499e-08
1.49879e-08
1.49992e-08
1.49418e-08
1.49453e-08
1.49551e-08
1.49553e-08
1.50262e-08
2.23237e-08
1.62694e-08
2.48428e-06
3.77887e-06
5.69552e-07
2.18669e-08
1.49598e-08
1.49514e-08
1.49703e-08
1.50129e-08
1.49891e-08
1.49902e-08
1.50466e-08
1.50283e-08
1.50383e-08
1.50168e-08
1.5013e-08
1.50416e-08
1.50853e-08
1.50917e-08
1.50968e-08
1.5103e-08
1.50912e-08
1.51177e-08
1.51705e-08
1.53275e-08
1.53005e-08
1.52688e-08
1.52378e-08
1.53242e-08
1.57533e-08
0.0180728
5.46173e-05
2.89014e-07
1.52152e-08
1.49123e-08
1.49251e-08
1.49566e-08
1.4924e-08
1.49082e-08
1.49251e-08
1.49257e-08
1.49484e-08
1.49272e-08
1.49293e-08
1.494e-08
1.49772e-08
1.49428e-08
1.49496e-08
1.49963e-08
1.49405e-08
1.4941e-08
1.49871e-08
1.49793e-08
1.50101e-08
1.50247e-08
2.73602e-08
2.07924e-08
1.51404e-08
1.50244e-08
1.49495e-08
1.49442e-08
1.50314e-08
1.49952e-08
1.4975e-08
1.49953e-08
1.50423e-08
1.50133e-08
1.50156e-08
1.50605e-08
1.50468e-08
1.50715e-08
1.50737e-08
1.50763e-08
1.51203e-08
1.52177e-08
1.51151e-08
1.5078e-08
1.51505e-08
1.52019e-08
1.52411e-08
1.53007e-08
1.54144e-08
1.54451e-08
1.58009e-08
0.0180734
5.46114e-05
2.88616e-07
1.52121e-08
1.49104e-08
1.49231e-08
1.49546e-08
1.4922e-08
1.4906e-08
1.49533e-08
1.49307e-08
1.49284e-08
1.49634e-08
1.49401e-08
1.494e-08
1.49415e-08
1.49486e-08
1.49373e-08
1.49309e-08
1.50023e-08
1.49906e-08
1.5e-08
1.49586e-08
1.49403e-08
1.49613e-08
3.55395e-08
2.06436e-08
1.5109e-08
1.49884e-08
1.49577e-08
1.49556e-08
1.50444e-08
1.49667e-08
1.49594e-08
1.49672e-08
1.49687e-08
1.49793e-08
1.49828e-08
1.50197e-08
1.50259e-08
1.50517e-08
1.50697e-08
1.50955e-08
1.51303e-08
1.5249e-08
1.51123e-08
1.50842e-08
1.51743e-08
1.52547e-08
1.53098e-08
1.53206e-08
1.53813e-08
1.54357e-08
1.58344e-08
0.0180708
5.46276e-05
2.89496e-07
1.52079e-08
1.49124e-08
1.49192e-08
1.49228e-08
1.49677e-08
1.49294e-08
1.4918e-08
1.49638e-08
1.49402e-08
1.49286e-08
1.4942e-08
1.49644e-08
1.49307e-08
1.49209e-08
1.49552e-08
1.4953e-08
1.49507e-08
1.49549e-08
1.4997e-08
1.49486e-08
1.49462e-08
1.49496e-08
1.49397e-08
1.49566e-08
1.49609e-08
1.49733e-08
1.49702e-08
1.49771e-08
1.49711e-08
1.5002e-08
1.49914e-08
1.49917e-08
1.50227e-08
1.50027e-08
1.50034e-08
1.50274e-08
1.50718e-08
1.50903e-08
1.50781e-08
1.50536e-08
1.51157e-08
1.52253e-08
1.51803e-08
1.50975e-08
1.51541e-08
1.5308e-08
1.52345e-08
1.5215e-08
1.53589e-08
1.53751e-08
1.57523e-08
0.0180714
5.46242e-05
2.89085e-07
1.5205e-08
1.49088e-08
1.49157e-08
1.49192e-08
1.49641e-08
1.49275e-08
1.49162e-08
1.49603e-08
1.49259e-08
1.49261e-08
1.49358e-08
1.49523e-08
1.49331e-08
1.49244e-08
1.49384e-08
1.49424e-08
1.49418e-08
1.4935e-08
1.49562e-08
1.49607e-08
1.50018e-08
1.49549e-08
1.49571e-08
1.50253e-08
1.49843e-08
1.49457e-08
1.49587e-08
1.49513e-08
1.49517e-08
1.49898e-08
1.49564e-08
1.49563e-08
1.504e-08
1.49853e-08
1.49791e-08
1.50047e-08
1.5025e-08
1.50486e-08
1.50742e-08
1.51303e-08
1.50814e-08
1.51101e-08
1.51297e-08
1.51435e-08
1.51489e-08
1.51781e-08
1.5222e-08
1.52492e-08
1.52972e-08
1.54227e-08
1.56971e-08
0.0180695
5.4622e-05
2.89672e-07
1.52241e-08
1.49205e-08
1.49251e-08
1.49361e-08
1.49509e-08
1.49605e-08
1.49383e-08
1.49369e-08
1.49532e-08
1.49563e-08
1.49902e-08
1.4969e-08
1.4925e-08
1.49314e-08
1.49513e-08
1.49512e-08
1.4975e-08
1.49419e-08
1.49358e-08
1.49497e-08
1.49703e-08
1.49413e-08
1.49339e-08
1.50048e-08
1.49746e-08
1.49745e-08
1.50113e-08
1.50051e-08
1.50122e-08
1.50092e-08
1.50106e-08
1.50421e-08
1.49971e-08
1.49798e-08
1.50034e-08
1.50236e-08
1.5035e-08
1.51198e-08
1.80737e-08
1.54558e-08
1.52406e-08
1.52342e-08
1.52957e-08
1.52287e-08
1.52469e-08
1.54392e-08
1.54074e-08
1.53782e-08
1.539e-08
1.54727e-08
1.5661e-08
0.01807
5.46189e-05
2.89296e-07
1.52213e-08
1.49267e-08
1.49375e-08
1.49361e-08
1.49392e-08
1.49494e-08
1.49453e-08
1.49362e-08
1.49417e-08
1.49451e-08
1.49763e-08
1.49388e-08
1.49323e-08
1.49597e-08
1.49602e-08
1.49869e-08
1.49422e-08
1.49263e-08
1.49348e-08
1.49413e-08
1.49894e-08
1.49409e-08
1.49298e-08
1.49817e-08
1.49486e-08
1.49468e-08
1.49746e-08
1.4975e-08
1.49714e-08
1.49644e-08
1.4983e-08
1.50261e-08
1.5035e-08
1.50308e-08
1.51877e-08
1.50221e-08
1.50523e-08
1.47386e-08
5.59446e-08
1.24617e-07
1.70057e-08
1.52334e-08
1.52953e-08
1.51994e-08
1.51737e-08
1.52324e-08
1.52447e-08
1.53569e-08
1.53134e-08
1.54114e-08
1.5763e-08
0.0180677
5.46305e-05
2.90198e-07
1.5225e-08
1.492e-08
1.49231e-08
1.49345e-08
1.49507e-08
1.49624e-08
1.49311e-08
1.49271e-08
1.49782e-08
1.49472e-08
1.49492e-08
1.49871e-08
1.49401e-08
1.49297e-08
1.49725e-08
1.49725e-08
1.49918e-08
1.49326e-08
1.49293e-08
1.49967e-08
1.49848e-08
1.49924e-08
1.49728e-08
1.4971e-08
1.50101e-08
1.49815e-08
1.49836e-08
1.50187e-08
1.50113e-08
1.50196e-08
1.50019e-08
1.50026e-08
1.50695e-08
1.503e-08
1.50374e-08
1.50288e-08
1.52267e-08
1.16717e-07
1.59818e-06
3.30786e-07
2.05209e-08
1.53184e-08
1.61785e-08
1.57803e-08
1.53969e-08
1.52237e-08
1.52079e-08
1.55186e-08
1.54359e-08
1.54293e-08
1.5614e-08
0.0180683
5.46288e-05
2.89803e-07
1.52223e-08
1.49264e-08
1.49373e-08
1.4936e-08
1.49389e-08
1.49516e-08
1.49544e-08
1.49567e-08
1.49741e-08
1.49432e-08
1.49472e-08
1.49893e-08
1.49503e-08
1.49242e-08
1.49321e-08
1.49336e-08
1.4968e-08
1.49391e-08
1.493e-08
1.50045e-08
1.4972e-08
1.49756e-08
1.50169e-08
1.49637e-08
1.49661e-08
1.50176e-08
1.5004e-08
1.50149e-08
1.49583e-08
1.49554e-08
1.49636e-08
1.49676e-08
1.50645e-08
1.47765e-08
1.85271e-07
1.54266e-08
1.52876e-08
3.15013e-06
3.76556e-05
4.16226e-05
6.65485e-07
4.26632e-08
1.98365e-08
1.66407e-08
1.53594e-08
1.52393e-08
1.52873e-08
1.53197e-08
1.55098e-08
1.54874e-08
1.56356e-08
0.0180665
5.46279e-05
2.90555e-07
1.5233e-08
1.49345e-08
1.49419e-08
1.49501e-08
1.49575e-08
1.49657e-08
1.49316e-08
1.49141e-08
1.4936e-08
1.49381e-08
1.49695e-08
1.49323e-08
1.49221e-08
1.49549e-08
1.49556e-08
1.49562e-08
1.49761e-08
1.49365e-08
1.49332e-08
1.49958e-08
1.49637e-08
1.49613e-08
1.49548e-08
1.49735e-08
1.49412e-08
1.49423e-08
1.5016e-08
1.4988e-08
1.49906e-08
1.49876e-08
1.50013e-08
1.49611e-08
1.51141e-08
1.27744e-08
8.93588e-08
1.54935e-08
4.63537e-07
4.01224e-05
0.000311399
9.32747e-05
3.11155e-06
9.51446e-08
5.12723e-07
1.08929e-07
2.33584e-08
1.52584e-08
1.52064e-08
1.52799e-08
1.52691e-08
1.52823e-08
1.67911e-08
0.018067
5.46251e-05
2.90184e-07
1.52302e-08
1.49328e-08
1.4941e-08
1.49412e-08
1.49637e-08
1.49283e-08
1.49159e-08
1.49438e-08
1.49272e-08
1.49241e-08
1.49611e-08
1.49274e-08
1.49194e-08
1.49507e-08
1.49499e-08
1.49516e-08
1.49696e-08
1.49375e-08
1.49322e-08
1.49723e-08
1.4973e-08
1.49772e-08
1.49736e-08
1.50023e-08
1.49441e-08
1.49369e-08
1.50048e-08
1.4954e-08
1.49481e-08
1.49593e-08
1.4978e-08
1.49783e-08
1.46519e-08
9.04287e-08
1.26703e-05
1.6586e-07
3.88981e-07
0.000136452
0.00159693
0.000335357
4.44324e-05
5.11125e-06
5.50984e-07
2.23983e-07
2.81621e-08
1.51406e-08
1.51796e-08
1.52333e-08
1.5605e-08
1.56481e-08
1.60956e-08
0.018065
5.46348e-05
2.91002e-07
1.52338e-08
1.49367e-08
1.49653e-08
1.4921e-08
1.49072e-08
1.49508e-08
1.49226e-08
1.49221e-08
1.49277e-08