/*--------------------------------*- C++ -*----------------------------------*\
| =========                 |                                                 |
| \\      /  F ield         | OpenFOAM: The Open Source CFD Toolbox           |
|  \\    /   O peration     | Version:  4.1                                   |
|   \\  /    A nd           | Web:      www.OpenFOAM.org                      |
|    \\/     M anipulation  |                                                 |
\*---------------------------------------------------------------------------*/
FoamFile
{
    version     2.0;
    format      ascii;
    class       volScalarField;
    location    "9";
    object      k;
}
// * * * * * * * * * * * * * * * * * * * * * * * * * * * * * * * * * * * * * //

dimensions      [0 2 -2 0 0 0 0];

internalField   nonuniform List<scalar> 
4432
(
0.385599
0.416967
0.443444
0.477575
0.507868
0.540161
0.57432
0.604909
0.632873
0.662907
0.683292
0.705785
0.734728
0.769863
0.811405
0.919847
0.877398
1.80322
6.35872
30.9056
16.2468
132.842
81.7213
111.777
44.751
47.3157
26.1803
11.3485
9.51988
5.83386
6.3465
5.39724
3.78437
2.12875
1.67617
1.68906
1.52983
1.44462
1.30442
1.27241
1.28335
1.23683
1.20036
1.1098
1.00297
0.965587
0.858056
0.652723
0.55796
0.62832
0.821941
1.49015
2.47251
4.1739
0.388365
0.414031
0.44556
0.470307
0.505478
0.533298
0.566658
0.593641
0.625926
0.647597
0.672617
0.696819
0.724637
0.753328
0.774894
0.874208
0.592864
2.51171
15.0235
50.2256
34.717
111.511
83.5842
72.2575
56.5478
15.0206
6.84397
5.85155
4.62109
2.36352
2.66007
2.29979
2.41299
2.21598
2.23666
1.87929
1.76216
1.61952
1.46575
1.14516
1.08438
0.940601
0.874727
0.797926
0.770216
0.686919
0.578776
0.422152
0.377872
0.554234
0.870337
1.87704
2.96916
4.93967
0.0020345
9.95105e-05
0.00218906
0.00551658
0.0108235
0.013678
0.0187264
0.0241083
0.0316119
0.0395583
0.0493035
0.0659203
0.0772395
0.124032
0.140362
0.203795
0.386183
2.08952
11.7862
97.8609
346.808
611.277
761.102
595.974
97.331
112.169
30.8104
46.8911
46.4795
66.2659
46.5307
22.8198
37.7281
21.859
3.86297
4.36484
3.33753
4.05456
0.828234
1.02255
1.12431
1.64298
1.81151
2.04062
0.671608
0.177165
0.0425295
0.103982
0.101886
0.0799943
1.20608
2.6154
3.75363
4.54034
0.00203454
9.73006e-05
0.00220365
0.00523294
0.0110968
0.0135586
0.018438
0.02415
0.031261
0.0386184
0.0503606
0.0550464
0.105513
0.107345
0.185612
0.165516
0.495243
4.07621
27.0133
89.7111
152.925
240.449
311.096
61.1373
17.6872
14.768
5.89733
4.1156
5.27837
3.75402
3.75138
3.21287
2.98311
2.48878
0.772737
0.42285
0.226416
0.110803
0.00306279
0.00370536
0.00462544
0.00525594
0.00636896
0.00530744
0.00531862
0.00757571
0.0103514
0.0181068
0.00583432
0.179962
1.0511
3.00014
4.3853
5.41669
0.0020268
6.74131e-06
5.02046e-07
1.9824e-05
5.24212e-05
0.000172846
0.00012101
0.000216793
0.000472
0.00108736
0.00114779
0.00276506
0.0033638
0.00530509
0.0154894
0.0130688
0.00916836
0.262123
13.9554
87.0711
121.764
84.9075
106.481
60.0863
11.7484
10.694
11.3877
10.04
14.0405
13.6379
14.3642
20.3211
25.9644
6.00187
0.10719
1.53542
0.422303
0.731279
0.448354
0.561154
1.7423
1.55607
0.736469
1.36465
0.131239
0.0150927
6.91845e-05
0.00130694
0.00362908
0.418972
0.0192372
0.0102157
0.0801481
0.0936121
0.00202689
6.73512e-06
5.10642e-07
1.9972e-05
4.74405e-05
0.000175364
0.000118949
0.000289096
0.00057086
0.000568466
0.00207967
0.00284749
0.00756779
0.00631203
0.0146406
0.0106571
0.0673291
0.53614
15.3107
41.8419
58.2389
21.3612
12.2495
0.856639
2.52973
3.03168
2.35483
2.73209
2.87578
6.90464
12.7169
17.0254
20.4609
0.443837
0.295292
0.233344
0.0900434
0.0932121
0.0030273
0.000699648
0.000208729
0.000191291
2.26469e-05
0.000131261
8.16358e-05
4.4721e-05
0.00569893
0.0116055
0.0299755
0.537303
0.133008
0.0784625
0.0689163
0.0976928
0.00202673
6.74003e-06
6.13829e-08
7.36173e-09
1.59076e-08
9.06347e-08
1.09566e-07
2.96659e-07
8.14573e-07
4.47184e-06
8.02162e-06
1.98299e-05
3.29406e-05
1.26157e-05
0.000106675
8.05009e-05
0.000170183
0.00235326
0.127589
1.79757
16.0897
11.4951
14.8913
6.10264
16.3165
14.6934
7.82495
8.23209
12.8802
6.44123
9.19557
9.81767
3.19628
0.780036
0.206081
0.235331
0.0185202
0.0710693
0.00822877
0.00619805
0.100284
0.0529581
0.0558831
0.354558
0.00855836
1.1529e-05
1.44543e-06
4.72821e-05
0.00012881
0.00422068
0.00404641
0.0250989
0.0135733
0.0151927
0.00202682
6.73395e-06
6.13138e-08
7.50281e-09
1.51244e-08
9.63826e-08
9.28898e-08
4.03517e-07
1.66141e-06
7.90943e-07
1.36078e-05
3.38852e-05
0.000127224
4.2136e-05
8.25418e-05
5.7295e-05
0.000567252
0.00176602
0.157121
1.25323
7.72825
2.17216
4.62141
8.7671
15.749
9.40316
7.13847
4.31356
9.79031
9.55246
11.3115
7.77529
6.15357
0.615717
0.0111654
0.0218326
0.00170137
0.00623625
4.01153e-05
2.9429e-05
3.19691e-05
7.63884e-07
5.38056e-10
1.01455e-06
1.86687e-06
4.84312e-06
0.000475032
0.000971069
0.0025087
0.0451271
0.0117947
0.00852214
0.00624632
0.0128477
0.00202665
6.74056e-06
6.13592e-08
1.16035e-09
4.18465e-10
4.57047e-10
4.76129e-10
5.81041e-10
5.2321e-10
4.2854e-09
3.17896e-09
2.65095e-08
5.84912e-08
2.55634e-08
4.354e-07
7.20061e-07
1.94629e-06
3.56398e-06
5.07428e-05
0.000892348
0.11577
0.498153
1.50934
0.135805
1.16507
13.7516
5.20674
9.22633
14.9939
15.39
16.1719
35.7169
29.8494
2.58093
0.341895
0.0482299
0.00144142
0.00604255
0.000685734
0.000516507
0.00835904
2.51229e-05
3.64937e-05
0.000258731
2.29098e-06
1.06627e-08
3.63201e-08
1.06675e-06
2.23517e-08
2.38077e-09
1.50745e-07
1.28481e-06
9.59096e-06
1.27595e-05
0.00202673
6.73421e-06
6.12499e-08
1.16686e-09
4.22251e-10
4.75522e-10
4.58728e-10
7.00298e-10
1.34143e-09
6.77422e-08
1.59503e-08
4.32583e-08
2.51417e-07
1.2133e-07
3.54896e-07
5.10432e-07
3.59847e-06
8.57468e-07
6.27378e-05
0.00127428
0.0367125
0.320322
0.672868
0.637383
3.98586
4.49759
4.34725
5.53314
10.3251
9.55961
10.292
16.0442
0.919172
0.0777209
0.0134834
0.00294296
0.0002619
0.000519686
3.34303e-06
2.45247e-06
2.69332e-06
3.50617e-07
1.38851e-08
5.25622e-10
3.86056e-10
5.62104e-10
2.40908e-09
2.4699e-09
8.60952e-08
1.20373e-06
6.12581e-06
6.27828e-06
0.000170047
1.1675e-05
0.0020265
6.74118e-06
6.13054e-08
1.18534e-09
4.16926e-10
4.12966e-10
4.18136e-10
4.16347e-10
4.1576e-10
4.43985e-10
4.14904e-10
4.51221e-10
5.38137e-10
4.73925e-10
1.84225e-09
3.18599e-09
1.0343e-08
2.73238e-08
4.19785e-08
2.04965e-07
2.23069e-05
0.00052339
0.012313
0.00826676
27.3391
90.3594
2.58381
2.4026
2.18628
2.1075
6.9327
13.3376
9.44283
0.792019
0.00895302
0.000100165
0.000128475
1.21158e-07
9.32971e-08
6.62414e-10
4.10811e-10
3.11378e-09
4.34948e-10
1.74822e-08
2.28405e-09
7.88207e-10
1.54337e-09
3.42646e-08
1.32596e-09
5.98918e-09
2.28001e-07
1.52122e-06
7.4882e-06
9.95e-06
0.00202659
6.73512e-06
6.12217e-08
1.17855e-09
4.14909e-10
4.15758e-10
4.15516e-10
4.27135e-10
4.14294e-10
3.91681e-10
4.22252e-10
4.74435e-10
9.58651e-10
7.2788e-10
1.583e-09
2.39619e-09
1.84873e-08
5.19739e-09
6.29532e-08
9.46215e-07
5.87003e-06
0.00181173
0.00727121
0.00414247
0.423191
7.31238
0.261269
1.6816
1.7016
4.01133
2.39813
8.41258
1.56485
7.62761e-05
0.000915349
8.46244e-05
3.44179e-09
3.93543e-10
1.34806e-09
4.33165e-10
3.5258e-10
2.95804e-08
4.12826e-10
4.62654e-10
4.83504e-10
4.75009e-10
4.68473e-10
1.02241e-09
3.78764e-10
9.23434e-09
6.50856e-07
5.69522e-06
3.19917e-05
1.00112e-05
0.00202638
6.74143e-06
6.1339e-08
1.18967e-09
4.17508e-10
4.1494e-10
4.2447e-10
4.10677e-10
4.04798e-10
4.26993e-10
4.1635e-10
4.10479e-10
4.11301e-10
4.10434e-10
4.16813e-10
4.27511e-10
4.76487e-10
5.94924e-10
7.44821e-10
1.57679e-09
1.10472e-08
2.96383e-07
1.04612e-05
3.39432e-06
1.68774
9.04017
0.157748
0.123859
0.0206986
0.016957
0.290738
0.280268
1.32426
0.0526184
0.000459498
4.66362e-05
1.68468e-09
2.11737e-10
4.36312e-10
4.52979e-10
4.72182e-10
4.45046e-10
4.57827e-10
6.88245e-10
4.98092e-10
4.55866e-10
4.74397e-10
9.36092e-10
4.70687e-10
4.29857e-10
6.69862e-10
2.23001e-08
1.37245e-06
2.08033e-06
0.00202646
6.7353e-06
6.12733e-08
1.1834e-09
4.15497e-10
4.12598e-10
4.21861e-10
4.08184e-10
4.02849e-10
4.24846e-10
4.12053e-10
4.09329e-10
4.24559e-10
4.23198e-10
4.22077e-10
4.42826e-10
5.21464e-10
4.51787e-10
8.94355e-10
8.21049e-09
5.49522e-09
3.23054e-06
9.24958e-06
3.25947e-06
0.000770272
0.185598
0.00138837
0.103381
0.0395927
0.13601
0.0342153
0.296933
0.00303742
0.00463836
5.01816e-07
4.18862e-08
3.93383e-10
4.21277e-10
4.33707e-10
4.43882e-10
4.65543e-10
4.65375e-10
4.4655e-10
4.42038e-10
4.87083e-10
4.56923e-10
4.30571e-10
4.59374e-10
4.88143e-10
4.66078e-10
4.62261e-09
3.24562e-07
7.49382e-06
2.58303e-06
0.00202618
6.7431e-06
6.14567e-08
1.16733e-09
4.14184e-10
4.09839e-10
4.14159e-10
4.12739e-10
4.12505e-10
4.23403e-10
4.11088e-10
4.06736e-10
4.32428e-10
4.13592e-10
4.11526e-10
4.30948e-10
4.17514e-10
4.15328e-10
4.18048e-10
4.39454e-10
5.25252e-10
2.89668e-09
3.17456e-08
1.33427e-08
0.00959873
0.0375347
0.000174264
0.000585397
1.074e-05
6.20083e-06
0.000279386
0.000619257
0.024213
0.000147245
5.04041e-07
4.211e-08
3.53091e-10
4.27519e-10
4.3027e-10
4.44e-10
4.43798e-10
4.68591e-10
5.17139e-10
4.98626e-10
4.9296e-10
4.34682e-10
4.26861e-10
4.17202e-10
4.12804e-10
4.47157e-10
3.03421e-09
1.09159e-07
7.43751e-07
1.09526e-06
0.00202627
6.73741e-06
6.13951e-08
1.16291e-09
4.11252e-10
4.13394e-10
4.05901e-10
4.036e-10
4.05649e-10
4.10659e-10
4.08575e-10
4.04819e-10
4.16222e-10
4.15214e-10
4.16647e-10
4.15605e-10
4.14506e-10
4.14289e-10
4.19335e-10
4.87445e-10
4.40561e-10
6.8735e-08
3.55016e-08
2.13732e-08
2.52862e-06
0.000242888
2.71336e-06
0.00030812
5.54262e-05
0.000144888
2.23995e-05
0.000350555
5.37782e-06
9.44052e-09
4.55977e-09
4.56552e-10
4.2731e-10
4.27333e-10
4.3273e-10
4.39445e-10
4.37292e-10
4.52183e-10
4.76499e-10
4.45375e-10
5.02388e-10
4.53147e-10
4.25892e-10
4.49022e-10
4.8597e-10
5.32312e-10
4.10089e-09
1.09838e-07
6.80346e-07
7.76257e-07
0.00202604
6.74328e-06
6.15068e-08
1.17052e-09
4.14429e-10
4.10426e-10
4.14413e-10
4.13608e-10
4.13224e-10
4.2546e-10
4.11665e-10
4.03313e-10
4.19744e-10
4.20041e-10
4.2305e-10
4.20962e-10
4.36238e-10
4.19803e-10
4.13267e-10
4.15513e-10
4.234e-10
4.4681e-10
7.07092e-10
6.46925e-10
3.09125e-05
8.95375e-05
1.43031e-06
1.73341e-06
2.36538e-08
9.57732e-09
2.81323e-07
6.31633e-07
3.71642e-05
2.6998e-07
9.26439e-09
5.15099e-10
4.68373e-10
4.4043e-10
4.28216e-10
4.6129e-10
4.50551e-10
4.74317e-10
4.87667e-10
4.75399e-10
5.12623e-10
4.54483e-10
4.45223e-10
4.45806e-10
4.54214e-10
4.86118e-10
2.54877e-09
7.27107e-08
5.70875e-07
6.23752e-07
0.00202612
6.73748e-06
6.14476e-08
1.16684e-09
4.08867e-10
4.0514e-10
4.09902e-10
4.10703e-10
4.10022e-10
4.205e-10
4.09083e-10
4.01734e-10
4.18817e-10
4.17464e-10
4.1705e-10
4.20054e-10
4.33946e-10
4.23157e-10
4.19052e-10
4.46741e-10
4.23149e-10
1.03342e-09
8.12112e-10
6.29476e-10
2.62756e-08
1.21295e-06
6.0763e-08
1.14532e-06
1.13616e-07
2.53525e-07
3.76293e-08
4.25962e-07
2.00905e-08
1.5764e-09
4.78721e-10
4.26964e-10
4.48716e-10
4.37294e-10
4.36883e-10
4.66087e-10
4.5482e-10
4.60935e-10
4.56298e-10
4.67781e-10
4.84034e-10
4.46681e-10
4.23232e-10
4.28677e-10
4.33116e-10
5.12062e-10
3.53525e-09
9.70242e-08
6.32573e-07
9.06857e-07
0.00202581
6.74496e-06
6.15353e-08
1.17455e-09
4.12101e-10
4.00872e-10
4.04781e-10
3.98335e-10
3.97032e-10
4.0373e-10
4.0307e-10
4.08146e-10
4.06893e-10
4.08292e-10
4.12896e-10
4.10956e-10
4.17576e-10
4.33575e-10
4.18749e-10
4.16709e-10
4.35746e-10
4.41495e-10
4.46809e-10
4.48414e-08
5.35268e-07
1.10562e-06
4.72687e-08
1.90304e-08
1.20941e-09
5.60049e-10
2.68761e-09
4.27261e-09
1.11522e-07
6.74232e-09
5.90306e-10
4.71235e-10
4.60512e-10
4.89168e-10
4.68471e-10
4.70231e-10
4.59649e-10
4.67089e-10
4.68231e-10
4.71187e-10
5.20998e-10
4.71088e-10
4.48996e-10
4.52275e-10
4.84966e-10
4.79829e-10
1.187e-09
2.2835e-08
1.93797e-07
4.06097e-07
0.0020259
6.73948e-06
6.14741e-08
1.16039e-09
4.0657e-10
4.09202e-10
4.01654e-10
4.00967e-10
4.14653e-10
4.15137e-10
4.16846e-10
4.16096e-10
4.22239e-10
4.11925e-10
4.07812e-10
4.15149e-10
4.17371e-10
4.37686e-10
4.16322e-10
4.22493e-10
4.33913e-10
4.46888e-10
4.4017e-10
4.34261e-10
6.56776e-10
1.34767e-08
1.30067e-09
1.36946e-08
2.1446e-09
2.96333e-09
8.66772e-10
3.63889e-09
7.57838e-10
4.61944e-10
4.49953e-10
4.73414e-10
4.62288e-10
4.8913e-10
4.68764e-10
4.64943e-10
4.69066e-10
4.63873e-10
4.54503e-10
4.64859e-10
4.59387e-10
4.52739e-10
4.31921e-10
4.7025e-10
4.71352e-10
5.00652e-10
1.2691e-09
2.72907e-08
3.01267e-07
6.63753e-07
0.00202565
6.74501e-06
6.15982e-08
1.16802e-09
4.08381e-10
4.10896e-10
4.0043e-10
3.97937e-10
4.15763e-10
4.04736e-10
4.04121e-10
4.09854e-10
4.25784e-10
4.26182e-10
4.163e-10
4.22824e-10
4.24421e-10
4.19562e-10
4.19937e-10
4.47965e-10
4.22041e-10
4.19918e-10
4.46935e-10
3.78981e-10
9.05902e-09
1.00022e-08
1.00259e-09
6.03373e-10
4.45362e-10
4.55302e-10
4.61416e-10
4.70236e-10
1.14773e-09
5.27764e-10
4.69853e-10
4.74043e-10
4.61673e-10
4.72532e-10
4.64834e-10
4.70956e-10
4.89421e-10
4.89959e-10
4.73725e-10
4.76624e-10
4.92261e-10
5.25092e-10
4.75996e-10
4.59832e-10
5.2268e-10
5.17522e-10
5.77844e-10
6.19971e-10
6.98649e-10
3.32328e-08
0.00202573
6.73937e-06
6.15397e-08
1.16394e-09
4.0703e-10
4.02505e-10
4.01096e-10
4.05314e-10
4.15944e-10
4.07736e-10
4.07602e-10
4.13086e-10
4.27331e-10
4.16859e-10
4.08015e-10
4.16517e-10
4.15497e-10
4.14296e-10
4.18381e-10
4.44548e-10
4.26283e-10
4.25011e-10
4.49472e-10
4.38088e-10
4.44821e-10
5.54954e-10
4.58335e-10
5.56209e-10
4.60704e-10
4.8042e-10
4.43737e-10
4.58929e-10
4.47684e-10
4.4498e-10
4.71169e-10
4.56571e-10
4.4292e-10
4.71181e-10
4.69482e-10
4.83782e-10
4.79392e-10
4.81058e-10
4.92864e-10
4.83415e-10
4.80059e-10
5.2489e-10
5.05691e-10
4.98052e-10
4.88553e-10
4.90262e-10
4.93607e-10
5.22748e-10
8.00983e-10
9.55366e-08
0.00202541
6.74716e-06
6.16948e-08
1.16147e-09
4.01639e-10
3.97878e-10
3.97096e-10
3.99766e-10
4.09448e-10
4.10104e-10
4.10994e-10
4.12144e-10
4.27752e-10
4.14093e-10
4.14279e-10
4.42651e-10
4.14328e-10
4.10861e-10
4.2133e-10
4.21706e-10
4.13083e-10
4.14112e-10
4.2619e-10
4.26517e-10
5.98018e-10
5.21647e-10
4.50323e-10
4.70816e-10
4.49032e-10
4.25317e-10
4.21531e-10
4.57285e-10
4.51482e-10
4.47205e-10
4.5858e-10
4.89867e-10
4.58007e-10
4.37111e-10
4.45655e-10
4.4899e-10
4.74875e-10
4.72493e-10
4.80197e-10
4.93656e-10
5.1162e-10
5.22551e-10
5.51991e-10
5.27861e-10
5.37402e-10
5.4482e-10
5.61878e-10
5.59641e-10
5.91981e-10
1.63782e-09
0.00202549
6.7419e-06
6.16377e-08
1.16813e-09
4.07649e-10
4.09583e-10
4.02707e-10
4.02171e-10
4.18826e-10
4.18833e-10
4.20805e-10
4.17153e-10
4.18066e-10
4.32095e-10
4.14618e-10
4.08758e-10
4.1495e-10
4.11341e-10
4.15182e-10
4.18447e-10
4.22404e-10
4.24046e-10
4.26976e-10
4.4392e-10
4.44014e-10
4.41781e-10
4.47865e-10
4.51895e-10
4.73454e-10
4.40018e-10
4.21445e-10
4.54345e-10
4.39866e-10
4.37998e-10
4.51136e-10
4.89676e-10
4.58061e-10
4.36156e-10
4.63135e-10
4.63504e-10
4.92077e-10
4.90669e-10
4.97498e-10
5.22202e-10
5.32997e-10
5.6498e-10
5.26403e-10
5.20423e-10
5.32999e-10
5.30155e-10
5.20965e-10
5.42503e-10
9.93089e-10
5.82821e-09
0.00202525
6.74413e-06
6.16048e-08
1.22798e-09
4.24322e-10
4.2046e-10
4.28218e-10
4.16025e-10
3.9898e-10
4.14069e-10
4.05753e-10
4.05418e-10
4.15789e-10
4.09221e-10
4.06128e-10
4.10015e-10
4.10571e-10
4.13899e-10
4.37163e-10
4.17816e-10
4.15311e-10
4.2327e-10
4.2688e-10
4.23922e-10
8.39498e-10
5.00615e-10
4.51902e-10
4.33804e-10
4.70133e-10
4.36132e-10
4.25403e-10
4.35307e-10
4.28602e-10
4.39764e-10
4.36377e-10
4.37166e-10
4.41558e-10
4.38995e-10
4.50129e-10
4.61037e-10
4.60492e-10
4.89516e-10
4.93848e-10
5.1804e-10
5.06482e-10
4.95891e-10
5.33815e-10
5.36723e-10
5.94965e-10
5.9892e-10
6.31791e-10
6.62855e-10
6.61069e-10
7.49948e-10
0.00202532
6.73829e-06
6.15238e-08
1.22322e-09
4.2375e-10
4.19701e-10
4.27162e-10
4.1469e-10
4.00598e-10
4.17263e-10
4.16207e-10
4.19276e-10
4.17931e-10
4.19344e-10
4.32306e-10
4.17962e-10
4.09196e-10
4.318e-10
4.29821e-10
4.45989e-10
4.19203e-10
4.16565e-10
4.18594e-10
4.15248e-10
1.17249e-09
4.81851e-10
4.25255e-10
4.36662e-10
4.21538e-10
4.45726e-10
4.47989e-10
4.58849e-10
4.52498e-10
4.59367e-10
4.41559e-10
4.41717e-10
4.46877e-10
4.84375e-10
4.65554e-10
4.40483e-10
5.34883e-10
4.90198e-10
4.71054e-10
5.1412e-10
5.16916e-10
5.37322e-10
5.40758e-10
6.55418e-10
5.96324e-10
5.5174e-10
6.46573e-10
5.98815e-10
5.4145e-10
8.54348e-10
0.002025
6.76129e-06
6.20111e-08
1.21843e-09
4.27487e-10
4.24601e-10
4.35896e-10
4.15529e-10
4.12513e-10
4.46767e-10
4.15529e-10
4.0882e-10
4.30465e-10
4.26076e-10
4.24659e-10
4.29884e-10
4.33164e-10
4.37145e-10
4.30252e-10
4.34706e-10
4.54278e-10
4.40201e-10
5.59694e-08
4.7256e-10
1.54584e-05
2.62427e-05
2.06724e-07
5.09863e-09
4.74599e-10
4.18397e-10
3.55175e-10
4.36678e-10
4.43624e-10
4.81785e-10
4.50656e-10
4.25157e-10
4.48598e-10
4.43488e-10
4.48683e-10
4.59953e-10
4.69941e-10
4.65192e-10
4.6035e-10
4.62929e-10
4.76594e-10
4.9785e-10
5.02519e-10
5.25226e-10
5.55226e-10
6.16958e-10
6.46414e-10
6.25211e-10
6.424e-10
7.54006e-10
0.00202507
6.73905e-06
6.15658e-08
1.21163e-09
4.14498e-10
4.12846e-10
4.28299e-10
4.13884e-10
4.09624e-10
4.41578e-10
4.09916e-10
4.08106e-10
4.13466e-10
4.14193e-10
4.22203e-10
4.21508e-10
4.21502e-10
4.22421e-10
4.38596e-10
4.25079e-10
4.16025e-10
4.49037e-10
6.40324e-08
1.72746e-08
0.000143495
5.04521e-05
3.95896e-06
7.53399e-08
1.69256e-09
4.92818e-10
3.96887e-10
4.36156e-10
4.49112e-10
4.82107e-10
4.43135e-10
4.27594e-10
4.35996e-10
4.56545e-10
4.48718e-10
4.45634e-10
5.08574e-10
4.72368e-10
4.63203e-10
4.75677e-10
4.78152e-10
4.93702e-10
5.09928e-10
6.3187e-10
5.91329e-10
5.32956e-10
5.74507e-10
5.81833e-10
5.99265e-10
7.16104e-10
0.00202484
6.74376e-06
6.16874e-08
1.23518e-09
4.24474e-10
4.20585e-10
4.29436e-10
4.15708e-10
4.09052e-10
4.31788e-10
4.29187e-10
4.34302e-10
4.24495e-10
4.24346e-10
4.39195e-10
4.20377e-10
4.07684e-10
4.26651e-10
4.18853e-10
4.19684e-10
4.26957e-10
4.22997e-10
4.18008e-10
2.50186e-08
0.00222696
0.00274339
0.00187045
0.000317655
3.29673e-05
2.49905e-06
6.36509e-08
1.77665e-09
5.19022e-10
4.39854e-10
4.32524e-10
4.63094e-10
4.62983e-10
4.6389e-10
4.94324e-10
4.78432e-10
4.79365e-10
5.28997e-10
5.21857e-10
5.19095e-10
5.33774e-10
5.37042e-10
5.22968e-10
5.25772e-10
5.85848e-10
5.90836e-10
6.78953e-10
7.15008e-10
7.35437e-10
9.47406e-10
0.00202455
6.80206e-06
6.26352e-08
1.24151e-09
4.27849e-10
4.08497e-10
4.14055e-10
4.41497e-10
4.12146e-10
4.11103e-10
4.3791e-10
4.10334e-10
4.06722e-10
4.30531e-10
4.2383e-10
4.21328e-10
4.27269e-10
4.19783e-10
4.17822e-10
4.47002e-10
4.24368e-10
4.10602e-10
9.77106e-10
8.14447e-06
0.00301982
0.00155048
0.00154011
0.000250995
2.1092e-05
1.51072e-06
3.59736e-08
1.19834e-09
4.89983e-10
4.5708e-10
4.70627e-10
4.40884e-10
4.34204e-10
4.86175e-10
4.55148e-10
4.42984e-10
4.48978e-10
4.46464e-10
4.70344e-10
5.29883e-10
5.53481e-10
5.22453e-10
5.22288e-10
5.4694e-10
5.82778e-10
6.07637e-10
8.07126e-10
7.30386e-10
6.43504e-10
9.84161e-10
0.00202433
6.83181e-06
6.30701e-08
1.22861e-09
4.19779e-10
4.16788e-10
4.37917e-10
4.15416e-10
4.11393e-10
4.43503e-10
4.13224e-10
4.09661e-10
4.31998e-10
4.29824e-10
4.35066e-10
4.32038e-10
4.3242e-10
4.4569e-10
4.21997e-10
4.14115e-10
4.48622e-10
2.34441e-10
3.99604e-09
0.000374397
0.215013
0.0342485
0.00539667
0.000161776
1.88495e-06
5.45743e-08
1.71756e-09
4.55388e-10
4.28699e-10
4.4864e-10
4.50245e-10
4.98093e-10
4.66373e-10
4.48022e-10
4.53402e-10
4.63693e-10
4.83596e-10
4.92812e-10
5.02428e-10
5.10853e-10
5.33746e-10
5.40678e-10
6.37407e-10
6.01023e-10
5.74714e-10
6.41555e-10
6.39406e-10
6.58257e-10
8.53286e-10
0.00202476
6.77689e-06
6.21703e-08
1.23355e-09
4.25967e-10
4.40606e-10
4.1546e-10
4.00529e-10
4.16823e-10
4.16919e-10
4.17886e-10
4.24821e-10
4.10548e-10
4.09173e-10
4.21538e-10
4.20068e-10
4.24843e-10
4.31123e-10
4.16365e-10
4.16027e-10
4.48616e-10
4.01255e-10
1.03738e-06
0.00127116
0.0978341
0.0251017
0.00361976
9.21964e-05
7.43679e-07
2.33844e-08
9.26605e-10
4.26814e-10
4.22313e-10
4.32953e-10
4.44954e-10
4.55522e-10
4.55013e-10
4.62238e-10
4.62027e-10
4.70745e-10
4.73377e-10
5.27776e-10
5.03373e-10
4.77322e-10
5.16639e-10
4.94252e-10
4.87244e-10
5.0823e-10
5.05744e-10
5.2382e-10
5.72694e-10
6.19765e-10
8.85453e-10
0.00202444
6.76932e-06
6.21016e-08
1.24121e-09
4.2934e-10
4.05548e-10
4.11167e-10
4.33091e-10
4.21112e-10
4.20382e-10
4.38627e-10
4.14518e-10
4.11406e-10
4.40761e-10
4.32513e-10
4.28062e-10
4.31204e-10
4.30444e-10
4.40533e-10
4.24305e-10
4.24458e-10
5.30872e-10
5.51443e-07
4.69975e-05
0.00122281
0.00539954
0.00456404
0.000293959
2.68974e-06
1.08764e-07
3.01426e-09
4.956e-10
4.45055e-10
4.40175e-10
4.51492e-10
4.58106e-10
4.59606e-10
4.85666e-10
4.8611e-10
4.88008e-10
5.04084e-10
4.92772e-10
5.08714e-10
5.19318e-10
5.26418e-10
5.4998e-10
6.32515e-10
5.67091e-10
5.16138e-10
5.7784e-10
5.71864e-10
5.91603e-10
6.54162e-10
8.65988e-10
0.00202451
6.76436e-06
6.20553e-08
1.23806e-09
4.28111e-10
4.05504e-10
4.10098e-10
4.31825e-10
4.20491e-10
4.19633e-10
4.37144e-10
4.15819e-10
4.05299e-10
4.23257e-10
4.18067e-10
4.18938e-10
4.2054e-10
4.35384e-10
4.21084e-10
4.10774e-10
4.4232e-10
4.33546e-10
8.50862e-06
5.15513e-05
0.0026521
0.00981781
0.00629567
0.000419129
2.74203e-06
7.71769e-08
2.13466e-09
5.45561e-10
4.34967e-10
4.24387e-10
4.29668e-10
4.30559e-10
4.51818e-10
4.53696e-10
4.61138e-10
4.79904e-10
4.60683e-10
4.558e-10
4.73773e-10
5.24712e-10
4.95481e-10
4.86538e-10
5.46075e-10
5.37955e-10
5.51081e-10
5.42625e-10
5.75205e-10
6.09327e-10
6.5341e-10
8.79852e-10
0.0020242
6.7472e-06
6.1789e-08
1.25515e-09
4.30903e-10
4.30153e-10
4.30005e-10
4.40163e-10
4.15076e-10
4.11007e-10
4.42086e-10
4.17039e-10
4.08301e-10
4.14151e-10
4.26597e-10
4.17794e-10
4.16603e-10
4.52008e-10
4.18933e-10
4.16164e-10
4.46185e-10
4.62362e-10
4.84404e-07
5.23258e-06
5.71733e-07
0.000212124
0.000163532
7.97647e-06
2.9919e-07
6.40976e-09
6.83143e-10
4.37846e-10
4.26969e-10
4.40064e-10
4.34191e-10
4.35815e-10
4.37583e-10
4.73434e-10
4.48796e-10
4.41118e-10
5.00339e-10
5.02695e-10
4.96922e-10
5.01454e-10
5.54593e-10
5.18271e-10
5.15937e-10
5.53853e-10
5.45659e-10
5.42982e-10
5.58741e-10
5.77399e-10
6.38012e-10
8.93135e-10
0.00202427
6.7429e-06
6.17512e-08
1.25215e-09
4.29792e-10
4.29019e-10
4.28887e-10
4.38989e-10
4.13918e-10
4.11421e-10
4.40802e-10
4.17912e-10
4.07292e-10
4.10315e-10
4.10645e-10
4.2053e-10
4.21391e-10
4.39798e-10
4.19447e-10
4.14413e-10
4.35676e-10
4.39633e-10
3.96049e-07
4.72642e-06
1.23038e-06
0.000426889
0.000214517
8.55808e-06
2.9697e-07
6.2615e-09
6.97883e-10
4.43653e-10
4.25381e-10
4.43726e-10
4.44834e-10
4.44943e-10
4.47917e-10
4.79297e-10
4.89439e-10
4.90971e-10
5.2907e-10
4.80446e-10
4.67452e-10
4.83875e-10
5.23655e-10
5.17478e-10
5.1614e-10
6.322e-10
6.29837e-10
6.35284e-10
7.26325e-10
6.58536e-10
6.2821e-10
8.91978e-10
0.00202407
6.74909e-06
6.18331e-08
1.24602e-09
4.25337e-10
4.24667e-10
4.2309e-10
4.23238e-10
4.27272e-10
4.23249e-10
4.24868e-10
4.38941e-10
4.16832e-10
4.0505e-10
4.22177e-10
4.23178e-10
4.43459e-10
4.20796e-10
4.10193e-10
4.22548e-10
4.2291e-10
4.19888e-10
1.90864e-10
2.32973e-08
1.68021e-08
6.97037e-06
4.69313e-06
1.52571e-07
4.07597e-09
5.80519e-10
4.72877e-10
4.25546e-10
4.18821e-10
4.26401e-10
4.27464e-10
4.80642e-10
4.44168e-10
4.32993e-10
4.85547e-10
4.83952e-10
4.86111e-10
4.73345e-10
4.78113e-10
4.913e-10
5.29415e-10
5.30576e-10
5.53585e-10
5.59765e-10
5.24875e-10
5.2124e-10
5.56293e-10
6.32763e-10
6.54768e-10
8.76266e-10
0.00202413
6.74475e-06
6.17898e-08
1.24245e-09
4.24246e-10
4.23555e-10
4.21934e-10
4.22048e-10
4.26939e-10
4.27104e-10
4.28362e-10
4.3873e-10
4.13531e-10
4.04439e-10
4.16354e-10
4.1748e-10
4.39874e-10
4.18995e-10
4.12539e-10
4.18571e-10
4.19723e-10
4.44207e-10
3.98386e-10
2.26521e-08
3.00588e-09
1.59474e-05
7.14147e-06
2.41312e-07
6.21064e-09
5.57841e-10
4.45515e-10
4.67249e-10
4.32863e-10
4.24042e-10
4.32129e-10
4.5195e-10
4.20802e-10
1.19067e-09
2.2819e-09
6.09621e-10
4.52352e-10
4.55672e-10
4.94651e-10
5.28283e-10
6.03312e-10
6.11814e-10
5.43438e-10
7.44542e-10
6.02626e-10
5.65249e-10
6.80403e-10
6.4723e-10
7.11385e-10
9.20242e-10
0.00202385
6.75042e-06
6.18774e-08
1.23936e-09
4.16964e-10
4.11762e-10
4.1112e-10
4.14953e-10
4.17177e-10
4.20838e-10
4.32335e-10
4.13701e-10
4.09317e-10
4.30483e-10
4.30976e-10
4.33715e-10
4.22e-10
4.20564e-10
4.22627e-10
4.32073e-10
4.24174e-10
4.22367e-10
4.17642e-10
5.38897e-10
4.97833e-10
2.58286e-08
1.72901e-08
1.51554e-09
4.6106e-10
4.29513e-10
4.34432e-10
4.39299e-10
4.39817e-10
4.75682e-10
4.60833e-10
4.60609e-10
5.84138e-10
1.04282e-09
8.99187e-10
6.57581e-10
4.97657e-10
4.61768e-10
4.69915e-10
4.85985e-10
5.12092e-10
4.59901e-10
1.27492e-09
8.82882e-10
5.64884e-10
6.26625e-10
6.2576e-10
6.11861e-10
6.20229e-10
8.03531e-10
0.00202392
6.74645e-06
6.1833e-08
1.23649e-09
4.16007e-10
4.10803e-10
4.09893e-10
4.13622e-10
4.16248e-10
4.1993e-10
4.32046e-10
4.1284e-10
4.08357e-10
4.16538e-10
4.18173e-10
4.20695e-10
4.23555e-10
4.40601e-10
4.39702e-10
4.40582e-10
4.19556e-10
4.17598e-10
4.09343e-10
5.20809e-10
2.30633e-10
6.2105e-08
2.69325e-08
1.69271e-09
4.79328e-10
4.50186e-10
4.6148e-10
4.28262e-10
4.23391e-10
4.7439e-10
4.51349e-10
4.52286e-10
2.388e-10
1.84192e-07
1.63062e-07
1.12584e-08
5.58706e-10
4.51541e-10
1.29484e-09
2.16146e-09
1.12659e-09
6.76085e-09
3.13429e-09
2.27422e-09
6.41315e-10
5.76571e-10
5.57365e-10
5.7812e-10
6.33127e-10
8.58432e-10
0.00202373
6.75003e-06
6.19327e-08
1.24209e-09
4.17745e-10
4.1189e-10
4.11432e-10
4.15896e-10
4.18735e-10
4.23723e-10
4.32029e-10
4.19826e-10
4.19493e-10
4.42316e-10
4.19434e-10
4.09196e-10
4.13322e-10
4.19427e-10
4.22822e-10
4.25775e-10
4.47268e-10
4.19702e-10
4.18657e-10
4.62466e-10
4.26061e-10
4.94302e-10
4.69955e-10
4.26785e-10
4.29232e-10
4.27274e-10
4.23742e-10
4.32337e-10
4.39417e-10
4.40649e-10
4.84723e-10
1.9787e-10
1.06623e-08
1.14659e-07
3.39797e-08
9.75277e-09
1.29952e-09
5.24838e-10
5.41244e-10
5.36299e-10
6.4176e-10
3.07706e-08
1.87982e-08
1.62404e-08
1.67914e-09
7.00935e-10
7.7195e-10
6.6674e-10
6.75054e-10
8.70814e-10
0.00202379
6.74588e-06
6.18877e-08
1.23959e-09
4.16822e-10
4.11518e-10
4.10348e-10
4.13797e-10
4.16633e-10
4.21098e-10
4.30904e-10
4.18912e-10
4.18642e-10
4.41418e-10
4.19342e-10
4.0979e-10
4.30657e-10
4.16832e-10
4.14378e-10
4.19879e-10
4.36496e-10
4.19506e-10
4.1912e-10
4.62016e-10
4.16589e-10
6.02545e-10
4.99707e-10
4.29411e-10
4.22957e-10
4.21735e-10
4.37322e-10
4.31681e-10
4.36665e-10
4.46885e-10
4.80272e-10
5.17027e-10
2.99589e-06
3.59428e-05
2.40605e-05
1.18468e-06
5.6605e-09
6.10228e-10
6.11544e-08
1.01145e-07
5.29721e-08
3.49347e-07
1.3986e-07
8.88353e-08
5.46928e-09
1.17782e-09
6.87152e-10
6.647e-10
6.72072e-10
8.91736e-10
0.00202353
6.75105e-06
6.1956e-08
1.24505e-09
4.17664e-10
4.11843e-10
4.11492e-10
4.15724e-10
4.18609e-10
4.22799e-10
4.32373e-10
4.11735e-10
4.08815e-10
4.18619e-10
4.1938e-10
4.42061e-10
4.16082e-10
4.03439e-10
4.06455e-10
4.06936e-10
4.15072e-10
4.14745e-10
4.41036e-10
4.22852e-10
4.21035e-10
4.54594e-10
4.24709e-10
4.19758e-10
4.23514e-10
4.29643e-10
4.21268e-10
4.13406e-10
4.43349e-10
4.35598e-10
1.09778e-09
2.16111e-07
2.5859e-06
1.81112e-05
1.92373e-06
9.36217e-07
2.71028e-08
2.74933e-09
1.84213e-09
1.12264e-09
4.76754e-09
1.41492e-06
9.34738e-07
6.28688e-07
3.28017e-08
2.79796e-09
9.32045e-10
6.81914e-10
8.11963e-10
1.57883e-09
0.0020236
6.74718e-06
6.1911e-08
1.24151e-09
4.16294e-10
4.1133e-10
4.10157e-10
4.13601e-10
4.1725e-10
4.21247e-10
4.30555e-10
4.10941e-10
4.07954e-10
4.16867e-10
4.18692e-10
4.40356e-10
4.14621e-10
4.05459e-10
4.14954e-10
4.07138e-10
4.1579e-10
4.22118e-10
4.45167e-10
4.22423e-10
4.17031e-10
4.50367e-10
4.35501e-10
4.33019e-10
4.5782e-10
4.2368e-10
4.19184e-10
4.59097e-10
4.28311e-10
4.24265e-10
3.95698e-10
6.41036e-09
0.000377334
0.00432655
0.00283303
5.97066e-05
5.39744e-08
1.58767e-08
1.0035e-05
4.17324e-06
2.23795e-06
1.60395e-05
5.91441e-06
3.52327e-06
1.88866e-07
9.33942e-09
1.06216e-09
7.37486e-10
7.74889e-10
1.05073e-09
0.00202343
6.7502e-06
6.19642e-08
1.24678e-09
4.2146e-10
4.15915e-10
4.1585e-10
4.20036e-10
4.20993e-10
4.38459e-10
4.16621e-10
4.0454e-10
4.23025e-10
4.19137e-10
4.19515e-10
4.25344e-10
4.37598e-10
4.12732e-10
4.05516e-10
4.33793e-10
4.24054e-10
4.20202e-10
4.35099e-10
4.35605e-10
4.45292e-10
4.23304e-10
4.16107e-10
4.39022e-10
4.36203e-10
4.23428e-10
4.25502e-10
4.51927e-10
4.3889e-10
3.74418e-10
1.74181e-08
2.68296e-05
0.000319945
0.00242691
0.000196877
6.59945e-05
1.70165e-06
6.31899e-07
2.07649e-07
2.64758e-08
1.42135e-07
2.6452e-05
2.31834e-05
1.46942e-05
6.87181e-07
2.59002e-08
3.10513e-09
1.38182e-09
3.7942e-09
3.02094e-08
0.00202349
6.74631e-06
6.19237e-08
1.24308e-09
4.20207e-10
4.14501e-10
4.13936e-10
4.18243e-10
4.19873e-10
4.37051e-10
4.15479e-10
4.03612e-10
4.22078e-10
4.1759e-10
4.18776e-10
4.29585e-10
4.13037e-10
4.07716e-10
4.17377e-10
4.15941e-10
4.1968e-10
4.19973e-10
4.18602e-10
4.19392e-10
4.48559e-10
4.20941e-10
4.15451e-10
4.42188e-10
4.22267e-10
4.20134e-10
4.32556e-10
4.30036e-10
4.3763e-10
4.48364e-10
1.69289e-07
2.01338e-06
0.000199151
0.227791
0.119231
0.0060584
5.19528e-05
2.63592e-05
0.00911648
0.000601164
8.7104e-05
0.000269959
0.000114667
8.35676e-05
5.41288e-06
2.03328e-07
8.9918e-09
2.00036e-09
3.83931e-09
9.54401e-09
0.00202326
6.75086e-06
6.19808e-08
1.24925e-09
4.17064e-10
4.11653e-10
4.11347e-10
4.24626e-10
4.19013e-10
4.12852e-10
4.16685e-10
4.22356e-10
4.39067e-10
4.15066e-10
4.1246e-10
4.25974e-10
4.26282e-10
4.51026e-10
4.17456e-10
4.08807e-10
4.20627e-10
4.21254e-10
4.46907e-10
4.21288e-10
4.18432e-10
4.55478e-10
4.24312e-10
4.2135e-10
4.5567e-10
4.22302e-10
4.11281e-10
4.35689e-10
4.53181e-10
3.42878e-07
4.11217e-06
0.000357906
0.0039226
0.0969047
0.00623996
0.00492957
0.0012382
0.00156895
0.000357873
6.60043e-06
6.44107e-06
2.4139e-05
0.000179366
5.98284e-05
4.73572e-06
3.74108e-08
4.11556e-09
8.9614e-09
1.21642e-07
3.19546e-07
0.00202333
6.74729e-06
6.19416e-08
1.24643e-09
4.16212e-10
4.10804e-10
4.10827e-10
4.19173e-10
4.23821e-10
4.27947e-10
4.15481e-10
4.15017e-10
4.38716e-10
4.13565e-10
4.10361e-10
4.25274e-10
4.26467e-10
4.50526e-10
4.17149e-10
4.07051e-10
4.17206e-10
4.1695e-10
4.21439e-10
4.30334e-10
4.21774e-10
4.07326e-10
4.20727e-10
4.21623e-10
4.51007e-10
4.23554e-10
4.12469e-10
4.38453e-10
4.11011e-10
1.81651e-09
3.10354e-05
0.000368334