/*--------------------------------*- C++ -*----------------------------------*\
| =========                 |                                                 |
| \\      /  F ield         | OpenFOAM: The Open Source CFD Toolbox           |
|  \\    /   O peration     | Version:  4.1                                   |
|   \\  /    A nd           | Web:      www.OpenFOAM.org                      |
|    \\/     M anipulation  |                                                 |
\*---------------------------------------------------------------------------*/
FoamFile
{
    version     2.0;
    format      ascii;
    class       volScalarField;
    location    "9";
    object      nut;
}
// * * * * * * * * * * * * * * * * * * * * * * * * * * * * * * * * * * * * * //

dimensions      [0 2 -1 0 0 0 0];

internalField   nonuniform List<scalar> 
4432
(
34.7398
36.2741
37.259
38.4465
39.7254
40.7349
42.0487
43.378
44.2969
45.4691
46.3062
46.3801
46.9506
48.0675
47.8432
59.4678
26.799
72.5497
1011.73
19525.3
5664.94
395133
60795.3
78984.5
63440.1
82390.7
20182.6
3617.46
2510.23
880.433
1024.89
756.378
402.76
103.736
65.6267
73.8714
66.0843
78.7977
65.3836
69.1342
86.7439
64.6308
58.4987
52.8287
54.8182
48.3708
45.7809
33.919
40.5992
56.7375
72.3552
103.577
227.401
185.384
34.9598
36.0688
37.4487
38.2484
39.4528
40.5822
41.7984
42.7564
44.0083
44.9146
45.3926
45.8341
46.5667
47.7715
47.638
52.026
15.4177
203.004
8082.67
81517.3
41761.2
474872
169783
104509
90291.2
6923.83
1084.19
862.661
422.865
116.522
153.4
123.309
163.439
99.8455
94.5638
76.1495
75.1465
94.9873
77.274
55.6571
82.2521
50.319
39.0366
43.4722
34.2494
46.667
38.4243
26.3702
27.9336
54.0547
85.9715
141.249
263.286
226.302
2.05466e-05
6.51373e-06
0.00802314
0.0798417
0.256966
0.265587
0.481367
0.458887
1.16959
0.899446
1.21704
1.81495
2.07729
6.00835
3.5702
151.216
7.14826
4.37099
28.6316
1473.97
14315
31245.1
37890.5
21400.8
11556.1
1905.14
223.528
570.067
670.905
2347.19
956.867
326.953
1210.41
723.618
308.814
172.002
101.378
136.215
6.1571
29.785
14.3519
26.9587
44.2977
30.9194
4.45446
0.293296
0.0695295
0.725968
1.37412
0.0619693
1.25652
2.90451
4.76544
5.63543
2.0547e-05
6.30047e-06
0.00821557
0.074466
0.277951
0.280155
0.389209
1.09091
0.680765
1.15314
1.94715
1.64559
6.90638
2.90112
7.22836
3.73517
3.64286
8.88378
240.439
2035.34
5589.56
16636.8
21373.8
2857.23
3569.57
525.623
164.709
76.3515
172.515
126.757
127.295
85.0532
92.3871
141.572
25.146
6.64069
2.80396
0.95113
0.00117747
0.0172911
0.00327581
0.004545
0.00747943
0.00390045
0.00481226
0.0133925
0.0257662
0.0390163
0.00389768
0.3686
1.05759
3.6009
5.91634
6.9436
2.04292e-05
7.49221e-08
6.98633e-08
0.000244499
0.000764942
0.110959
0.000465377
0.00105276
0.00586885
0.0250778
0.0112656
0.0670797
0.0503702
0.0759606
0.878165
0.117716
0.00989721
0.869338
418.52
10246.2
18969.6
11667.4
13858.1
3692.1
964.567
201.129
529.744
193.161
275.805
336.411
323.242
691.728
1224.78
892.872
0.216051
35.7735
2.59425
8.53875
1.74656
2.76189
20.4802
20.0031
4.19291
21.7893
0.342863
0.0148546
3.7437e-07
5.86852e-05
0.00024543
1.65021
0.00233465
0.00172845
0.0447695
0.0776728
2.04301e-05
7.4803e-08
7.24497e-08
0.00028268
0.00056036
0.0331616
0.000472279
0.00295894
0.00531219
0.00491869
0.106352
0.0556585
0.673761
0.102432
0.361841
0.119017
13.8233
2.55399
937.492
4696.1
10191.2
6154.57
735.386
6.9212
188.752
134.808
157.743
88.8044
62.9922
241.412
479.971
923.497
1436.12
5.84165
3.00178
4.49627
2.2464
1.79507
0.000746018
0.000122872
4.77762e-06
3.35249e-06
1.9616e-07
2.3824e-06
1.15106e-06
4.72628e-06
0.0541645
0.110039
0.488965
28.7882
123.955
0.367699
0.035112
0.0812907
2.04284e-05
7.49037e-08
1.22868e-09
3.21366e-10
1.52683e-09
4.9473e-08
7.1646e-08
5.12745e-07
3.69401e-06
9.28668e-05
0.000160312
0.000549695
0.000371153
2.16129e-05
0.000639263
7.90651e-05
0.000121079
0.00186058
0.792907
51.138
2479
1863.03
1881.37
222.87
2821.45
1419.34
535.994
445.845
668.312
193.034
514.908
375.921
144.128
49.3203
2.96038
9.21155
0.204336
4.43139
0.131994
0.00379495
1.44759
0.467528
1.13249
58.6312
0.00558591
1.85945e-08
1.89425e-09
4.61767e-06
3.67055e-05
0.00456416
0.00116747
0.109929
0.0560542
0.0226062
2.04293e-05
7.47848e-08
1.22798e-09
3.33922e-10
1.38048e-09
5.59048e-08
5.1426e-08
9.56807e-07
1.49391e-05
2.92688e-06
0.000679358
0.0013518
0.0157435
0.000163012
0.000262399
3.24685e-05
0.000847475
0.000386418
1.51908
59.7336
866.657
237.788
301.357
843.637
4036.39
1355.1
1515.37
410.513
1246.48
891.249
921.252
612.642
444.928
45.6743
0.0577426
0.222682
0.0103379
0.161422
0.00554869
0.00204119
0.00188981
3.57166e-06
6.46617e-16
7.46602e-06
2.27884e-06
0.000139383
1.33226
2.09057
4.84643
1.73521
0.923651
0.0524253
0.134979
0.0167842
2.04274e-05
7.49198e-08
1.22659e-09
7.98608e-12
1.05619e-12
1.26131e-12
1.36828e-12
2.03622e-12
1.64902e-12
1.10648e-10
6.09104e-11
4.22133e-09
2.05883e-08
3.91594e-09
1.11253e-06
2.35609e-06
2.19346e-06
1.01526e-07
6.02376e-07
4.38002e-05
0.390658
22.9059
163.957
0.566022
43.7638
3150.27
429.073
907.008
1828.92
1914.35
2545.44
6570.34
15179
1063.94
28.5408
242.901
0.141851
24.2856
0.252956
0.258358
411.844
0.000396086
0.00167789
0.203981
2.43843e-06
2.48279e-12
1.55934e-11
1.15916e-08
1.08864e-11
3.40143e-11
1.06069e-07
2.79633e-07
3.83367e-06
3.81983e-06
2.04283e-05
7.47934e-08
1.21632e-09
8.07567e-12
1.07558e-12
1.36548e-12
1.27027e-12
2.95545e-12
1.08446e-11
2.76565e-08
1.53116e-09
1.12706e-08
3.80599e-07
8.6721e-08
7.28778e-07
1.08372e-06
6.11911e-06
2.4402e-09
1.14202e-06
0.000253087
0.0684646
20.4014
45.3317
24.7161
825.621
699.875
654.915
674.51
1900.21
1842.05
1313.16
3776.56
30.0026
2.39081
0.0842144
0.928144
0.245494
0.144704
5.54528e-05
3.5953e-05
4.33682e-05
7.27825e-07
1.14893e-09
1.6452e-12
8.90355e-13
1.79295e-12
3.47096e-11
3.45103e-11
4.38486e-08
1.29313e-05
2.97832e-06
3.32623e-07
0.00118968
3.34276e-06
2.04259e-05
7.49242e-08
1.20083e-09
8.32297e-12
1.0484e-12
1.02813e-12
1.05405e-12
1.04427e-12
1.03959e-12
1.18778e-12
1.03775e-12
1.22364e-12
1.7457e-12
1.35466e-12
2.04334e-11
6.11255e-11
6.40326e-10
3.14236e-09
1.24253e-10
1.4859e-10
4.0597e-08
4.45141e-05
0.0345676
0.00749424
120239
504739
1124.57
388.694
177.296
127.701
3562.01
2914.06
8585.15
600.705
0.219121
0.00274099
0.070252
8.64461e-08
5.11637e-08
2.63898e-12
1.01506e-12
5.82828e-11
1.13335e-12
1.816e-09
3.08742e-11
2.8632e-12
6.69704e-12
9.62306e-10
1.04434e-11
2.14053e-10
1.53947e-07
2.5197e-07
2.47129e-06
3.12472e-06
2.04268e-05
7.48036e-08
1.19951e-09
8.23067e-12
1.03895e-12
1.04234e-12
1.0412e-12
1.09985e-12
1.03236e-12
9.24694e-13
1.07492e-12
1.35313e-12
5.53369e-12
3.19011e-12
1.51101e-11
3.46291e-11
2.05326e-09
8.33841e-11
4.13387e-10
1.41414e-08
6.41892e-09
0.00264805
0.0157893
0.00412558
51.7586
7417.32
20.6079
318.978
170.144
1991.82
275.943
3077.74
252.428
6.02785e-06
0.0115183
0.0230815
7.14504e-11
9.33443e-13
1.09321e-11
1.12752e-12
7.47409e-13
5.25472e-09
1.02206e-12
1.27915e-12
1.39839e-12
1.34868e-12
1.31173e-12
6.2151e-12
8.56416e-13
5.09606e-10
1.66976e-06
4.99852e-06
5.11386e-05
3.10989e-06
2.04245e-05
7.49337e-08
1.20041e-09
8.38258e-12
1.05129e-12
1.03773e-12
1.08443e-12
1.0168e-12
9.87857e-13
1.09514e-12
1.0442e-12
1.01493e-12
1.0164e-12
1.01517e-12
1.04727e-12
1.10114e-12
1.36638e-12
2.13238e-12
3.23205e-12
7.71306e-12
1.73447e-12
7.31566e-10
2.16106e-07
1.43694e-08
4199.28
15967.9
8.85411
4.15027
0.054633
0.0213272
18.1838
4.6275
255.431
1.29064
0.000969175
0.00617356
1.7093e-11
2.69922e-13
1.14256e-12
1.22898e-12
1.33864e-12
1.18583e-12
1.25231e-12
2.82665e-12
1.47811e-12
1.2421e-12
1.34252e-12
5.23382e-12
1.33087e-12
1.11178e-12
2.68572e-12
2.94313e-09
1.38861e-06
9.6577e-07
2.04253e-05
7.48124e-08
1.19982e-09
8.29711e-12
1.04188e-12
1.02704e-12
1.07372e-12
1.00479e-12
9.784e-13
1.08629e-12
1.02317e-12
1.00953e-12
1.0835e-12
1.07949e-12
1.07405e-12
1.18124e-12
1.63734e-12
1.22962e-12
4.71201e-12
3.35761e-10
2.42058e-12
2.44691e-07
2.25791e-07
2.50485e-08
0.000546957
12.8386
0.001462
3.9453
0.22688
3.96913
0.205411
14.4462
0.00182307
0.0118931
4.24788e-09
9.52133e-09
9.31683e-13
1.0683e-12
1.1284e-12
1.18165e-12
1.30344e-12
1.29789e-12
1.1977e-12
1.17174e-12
1.4165e-12
1.25053e-12
1.11165e-12
1.26286e-12
1.42521e-12
1.3027e-12
1.28076e-10
6.07266e-07
2.24039e-05
1.52691e-06
2.04224e-05
7.49611e-08
1.22436e-09
8.08414e-12
1.0357e-12
1.01358e-12
1.03499e-12
1.02716e-12
1.02354e-12
1.0805e-12
1.01924e-12
9.96324e-13
1.12611e-12
1.02794e-12
1.01982e-12
1.11872e-12
1.04702e-12
1.03593e-12
1.05247e-12
1.16122e-12
1.38035e-12
3.44473e-11
5.24125e-10
1.27651e-10
1.14537
1.02602
4.07676e-05
0.000539049
4.49869e-08
8.52636e-09
2.46832e-05
0.000106008
0.162554
1.09683e-05
2.09982e-09
6.2259e-09
7.48146e-13
1.09906e-12
1.11259e-12
1.18386e-12
1.18238e-12
1.31309e-12
1.60014e-12
1.48416e-12
1.44663e-12
1.13174e-12
1.09166e-12
1.04418e-12
1.02421e-12
1.20426e-12
5.52082e-11
6.6771e-08
3.95197e-07
2.78921e-07
2.04234e-05
7.48491e-08
1.22401e-09
8.02483e-12
1.02125e-12
1.03094e-12
9.93941e-13
9.82208e-13
9.89906e-13
1.01671e-12
1.00708e-12
9.87188e-13
1.04355e-12
1.0359e-12
1.04631e-12
1.04101e-12
1.03302e-12
1.03148e-12
1.05885e-12
1.43092e-12
1.0917e-12
3.82146e-08
7.58557e-10
5.22683e-10
8.08473e-07
9.66574e-05
1.83656e-07
0.000109838
2.11873e-06
1.27688e-05
2.94829e-07
4.4756e-05
1.1998e-08
1.49775e-12
6.53543e-11
1.24908e-12
1.09809e-12
1.09879e-12
1.12548e-12
1.1612e-12
1.15053e-12
1.22377e-12
1.36259e-12
1.19026e-12
1.51237e-12
1.22878e-12
1.08906e-12
1.20869e-12
1.41115e-12
1.70092e-12
1.00927e-10
6.76499e-08
3.43566e-07
1.44883e-07
2.04209e-05
7.497e-08
1.22459e-09
8.12812e-12
1.03701e-12
1.01634e-12
1.03367e-12
1.0308e-12
1.0291e-12
1.08666e-12
1.02151e-12
9.80786e-13
1.05832e-12
1.06322e-12
1.07887e-12
1.0676e-12
1.14639e-12
1.06066e-12
1.02835e-12
1.03747e-12
1.07922e-12
1.19947e-12
2.97627e-12
2.48901e-12
0.00545984
0.000316537
8.65601e-07
2.43196e-07
4.44105e-11
4.03374e-12
2.60461e-09
5.25994e-09
2.71167e-06
1.27846e-09
1.73997e-10
1.58682e-12
1.31528e-12
1.16528e-12
1.10245e-12
1.27781e-12
1.2162e-12
1.34859e-12
1.42379e-12
1.35108e-12
1.56618e-12
1.23515e-12
1.18608e-12
1.18976e-12
1.23549e-12
1.42129e-12
3.89701e-11
3.11287e-08
7.61477e-07
2.71289e-07
2.04217e-05
7.48561e-08
1.22418e-09
8.07872e-12
1.00948e-12
9.90659e-13
1.01405e-12
1.01754e-12
1.01338e-12
1.06363e-12
1.00899e-12
9.73092e-13
1.0539e-12
1.05047e-12
1.04852e-12
1.06298e-12
1.13471e-12
1.07809e-12
1.0575e-12
1.19778e-12
1.07555e-12
6.4117e-12
3.92965e-12
2.37951e-12
3.94734e-09
4.0009e-07
1.83023e-08
1.61863e-07
1.05347e-09
6.07881e-09
1.93049e-10
7.06819e-09
2.39149e-11
1.13138e-11
1.36952e-12
1.09159e-12
1.2059e-12
1.14911e-12
1.14796e-12
1.30465e-12
1.23812e-12
1.2729e-12
1.24835e-12
1.30689e-12
1.40483e-12
1.19687e-12
1.07704e-12
1.10396e-12
1.12455e-12
1.57479e-12
7.50726e-11
5.47132e-08
5.19428e-07
3.1888e-07
2.04185e-05
7.49961e-08
1.22279e-09
8.18379e-12
1.02536e-12
9.69553e-13
9.86256e-13
9.56341e-13
9.50349e-13
9.78758e-13
9.75814e-13
1.00456e-12
9.98364e-13
1.00176e-12
1.02719e-12
1.01765e-12
1.0503e-12
1.13129e-12
1.0527e-12
1.04515e-12
1.14404e-12
1.17132e-12
1.19965e-12
1.20615e-08
1.72268e-06
5.88449e-06
1.32158e-08
2.09256e-09
8.49693e-12
1.68112e-12
4.00544e-11
6.95985e-11
4.95177e-09
2.09812e-10
2.08517e-12
1.32865e-12
1.2704e-12
1.42925e-12
1.31132e-12
1.32112e-12
1.26619e-12
1.30969e-12
1.31302e-12
1.32773e-12
1.61698e-12
1.32677e-12
1.20557e-12
1.21763e-12
1.407e-12
1.38199e-12
8.435e-12
3.09126e-09
1.32912e-07
1.03281e-07
2.04194e-05
7.48868e-08
1.22219e-09
7.98995e-12
9.98178e-13
1.01044e-12
9.71296e-13
9.68606e-13
1.0358e-12
1.03514e-12
1.04364e-12
1.0439e-12
1.07523e-12
1.01981e-12
1.00189e-12
1.03858e-12
1.04976e-12
1.15246e-12
1.04385e-12
1.07521e-12
1.1336e-12
1.20239e-12
1.16521e-12
1.13323e-12
2.59471e-12
1.0807e-09
1.01438e-11
1.05956e-09
2.53947e-11
4.94167e-11
4.32656e-12
7.47041e-11
3.21752e-12
1.27967e-12
1.21338e-12
1.34355e-12
1.28101e-12
1.43295e-12
1.31576e-12
1.29542e-12
1.318e-12
1.28916e-12
1.23724e-12
1.29369e-12
1.26254e-12
1.22792e-12
1.11964e-12
1.3247e-12
1.32707e-12
1.49736e-12
9.63285e-12
4.40679e-09
2.43169e-07
1.80984e-07
2.04169e-05
7.50028e-08
1.22309e-09
8.09287e-12
1.00683e-12
1.0183e-12
9.66665e-13
9.543e-13
1.04171e-12
9.87004e-13
9.82407e-13
1.01247e-12
1.09312e-12
1.09488e-12
1.044e-12
1.07753e-12
1.08593e-12
1.06046e-12
1.06217e-12
1.20585e-12
1.07243e-12
1.06276e-12
1.20384e-12
8.64879e-13
4.93637e-10
6.01322e-10
6.03029e-12
2.18858e-12
1.19234e-12
1.24309e-12
1.27615e-12
1.32677e-12
7.84583e-12
1.66516e-12
1.3206e-12
1.3443e-12
1.27354e-12
1.3385e-12
1.29537e-12
1.32801e-12
1.43531e-12
1.43785e-12
1.34301e-12
1.35885e-12
1.44786e-12
1.64759e-12
1.35609e-12
1.261e-12
1.63108e-12
1.59803e-12
1.9887e-12
2.26855e-12
2.89309e-12
5.85343e-09
2.04177e-05
7.48907e-08
1.22273e-09
8.03782e-12
1.00038e-12
9.77817e-13
9.70972e-13
9.91031e-13
1.04362e-12
1.00227e-12
9.99602e-13
1.02874e-12
1.10127e-12
1.04776e-12
1.00303e-12
1.04542e-12
1.04076e-12
1.03121e-12
1.0515e-12
1.19109e-12
1.09595e-12
1.08862e-12
1.21718e-12
1.1541e-12
1.18931e-12
1.85128e-12
1.25912e-12
1.85839e-12
1.27485e-12
1.38561e-12
1.18352e-12
1.26711e-12
1.19931e-12
1.1887e-12
1.33411e-12
1.25084e-12
1.17129e-12
1.32956e-12
1.31876e-12
1.40359e-12
1.37885e-12
1.38628e-12
1.45515e-12
1.39725e-12
1.37179e-12
1.64758e-12
1.5315e-12
1.4802e-12
1.42588e-12
1.43101e-12
1.45438e-12
1.62368e-12
3.81083e-12
3.97042e-08
2.04144e-05
7.50422e-08
1.2248e-09
7.99251e-12
9.72419e-13
9.52018e-13
9.5034e-13
9.63151e-13
1.00651e-12
1.01337e-12
1.01842e-12
1.02026e-12
1.10288e-12
1.03422e-12
1.03436e-12
1.18005e-12
1.0341e-12
1.01643e-12
1.06529e-12
1.06779e-12
1.02327e-12
1.03298e-12
1.09478e-12
1.09547e-12
2.154e-12
1.63799e-12
1.21897e-12
1.32599e-12
1.21072e-12
1.08725e-12
1.0658e-12
1.25568e-12
1.22518e-12
1.20034e-12
1.26199e-12
1.43251e-12
1.26011e-12
1.1493e-12
1.18601e-12
1.20938e-12
1.35319e-12
1.33654e-12
1.37444e-12
1.45412e-12
1.56467e-12
1.62317e-12
1.81146e-12
1.64511e-12
1.71612e-12
1.76407e-12
1.86667e-12
1.84952e-12
2.07334e-12
1.56692e-11
2.04153e-05
7.49361e-08
1.22471e-09
8.08889e-12
1.00302e-12
1.01209e-12
9.78004e-13
9.74775e-13
1.05502e-12
1.05715e-12
1.06777e-12
1.04533e-12
1.05372e-12
1.12669e-12
1.03657e-12
1.00703e-12
1.03788e-12
1.01895e-12
1.03593e-12
1.05234e-12
1.07001e-12
1.0834e-12
1.09904e-12
1.18093e-12
1.18455e-12
1.17229e-12
1.20704e-12
1.22978e-12
1.34445e-12
1.16264e-12
1.0674e-12
1.23513e-12
1.1599e-12
1.14951e-12
1.22025e-12
1.43581e-12
1.25964e-12
1.14433e-12
1.28105e-12
1.28581e-12
1.45029e-12
1.43957e-12
1.47135e-12
1.61945e-12
1.68328e-12
1.90409e-12
1.65429e-12
1.59668e-12
1.6848e-12
1.66892e-12
1.60611e-12
1.74406e-12
5.82791e-12
1.31138e-10
2.04128e-05
7.49544e-08
1.18983e-09
8.91394e-12
1.08485e-12
1.06468e-12
1.10419e-12
1.04032e-12
9.57239e-13
1.03101e-12
9.88423e-13
9.90011e-13
1.04126e-12
1.00569e-12
9.94051e-13
1.01306e-12
1.01493e-12
1.03102e-12
1.14709e-12
1.05041e-12
1.03855e-12
1.07902e-12
1.09739e-12
1.08148e-12
4.23821e-12
1.50668e-12
1.22741e-12
1.12883e-12
1.32801e-12
1.14331e-12
1.08385e-12
1.13471e-12
1.10161e-12
1.16022e-12
1.13892e-12
1.14773e-12
1.172e-12
1.15404e-12
1.21378e-12
1.26944e-12
1.26653e-12
1.43068e-12
1.45591e-12
1.59289e-12
1.52305e-12
1.46261e-12
1.69576e-12
1.71062e-12
2.10078e-12
2.10627e-12
2.35573e-12
2.59021e-12
2.56929e-12
3.29009e-12
2.04136e-05
7.48343e-08
1.18827e-09
8.84712e-12
1.08206e-12
1.06044e-12
1.09869e-12
1.03399e-12
9.65953e-13
1.04814e-12
1.04013e-12
1.05897e-12
1.0521e-12
1.05569e-12
1.12613e-12
1.05364e-12
1.00877e-12
1.12268e-12
1.10962e-12
1.19637e-12
1.05801e-12
1.04505e-12
1.05534e-12
1.03742e-12
8.26195e-12
1.39386e-12
1.08813e-12
1.14434e-12
1.06778e-12
1.19289e-12
1.20551e-12
1.26152e-12
1.22849e-12
1.26189e-12
1.16695e-12
1.1666e-12
1.19908e-12
1.40888e-12
1.29845e-12
1.16227e-12
1.7109e-12
1.43665e-12
1.32445e-12
1.5753e-12
1.59165e-12
1.71209e-12
1.73275e-12
2.51925e-12
2.10699e-12
1.81036e-12
2.45988e-12
2.11793e-12
1.73712e-12
4.28184e-12
2.04111e-05
7.53579e-08
1.21801e-09
8.78745e-12
1.10219e-12
1.08686e-12
1.14354e-12
1.04093e-12
1.02643e-12
1.19907e-12
1.04063e-12
1.00768e-12
1.11366e-12
1.09096e-12
1.08264e-12
1.11325e-12
1.13116e-12
1.15199e-12
1.11534e-12
1.13396e-12
1.24145e-12
1.16743e-12
1.88013e-08
1.32239e-12
0.00144059
3.69748e-05
1.24661e-09
1.61208e-10
1.35423e-12
1.05242e-12
7.57691e-13
1.14432e-12
1.18101e-12
1.39345e-12
1.21702e-12
1.08283e-12
1.2025e-12
1.18103e-12
1.209e-12
1.26837e-12
1.32446e-12
1.29476e-12
1.26638e-12
1.27134e-12
1.34992e-12
1.47231e-12
1.49923e-12
1.63328e-12
1.82196e-12
2.23633e-12
2.46083e-12
2.3017e-12
2.41848e-12
3.28686e-12
2.04111e-05
7.48142e-08
1.19402e-09
8.68703e-12
1.03546e-12
1.02664e-12
1.10284e-12
1.03287e-12
1.01167e-12
1.17061e-12
1.01292e-12
1.00478e-12
1.03047e-12
1.03354e-12
1.07425e-12
1.07167e-12
1.06736e-12
1.07474e-12
1.15848e-12
1.08449e-12
1.04147e-12
1.21406e-12
2.46533e-08
1.76794e-09
0.0605881
0.00240354
8.51312e-05
3.4159e-08
1.72327e-11
1.46109e-12
9.46883e-13
1.13786e-12
1.21055e-12
1.39396e-12
1.18011e-12
1.09931e-12
1.14185e-12
1.25166e-12
1.20854e-12
1.18978e-12
1.53956e-12
1.33024e-12
1.27913e-12
1.34882e-12
1.36482e-12
1.45349e-12
1.54854e-12
2.35e-12
2.05697e-12
1.67478e-12
1.94623e-12
1.9958e-12
2.12e-12
2.98683e-12
2.04088e-05
7.49156e-08
1.1884e-09
9.00827e-12
1.08676e-12
1.06566e-12
1.10713e-12
1.04183e-12
1.00914e-12
1.11995e-12
1.10803e-12
1.13556e-12
1.08413e-12
1.08185e-12
1.16259e-12
1.06609e-12
1.00208e-12
1.09766e-12
1.05687e-12
1.05967e-12
1.09772e-12
1.07851e-12
1.04046e-12
3.63824e-09
0.0208826
0.0219804
0.00856117
0.00131129
3.7351e-05
1.01229e-05
2.4198e-08
1.88702e-11
1.6208e-12
1.16459e-12
1.11896e-12
1.28347e-12
1.28123e-12
1.29084e-12
1.46548e-12
1.36934e-12
1.3746e-12
1.66705e-12
1.62575e-12
1.60925e-12
1.69647e-12
1.71766e-12
1.6247e-12
1.6401e-12
2.0298e-12
2.06214e-12
2.72129e-12
3.00778e-12
3.16168e-12
5.14532e-12
2.03565e-05
7.64928e-08
1.23334e-09
9.12174e-12
1.10364e-12
1.00323e-12
1.0336e-12
1.17538e-12
1.02134e-12
1.01839e-12
1.15551e-12
1.01222e-12
9.95858e-13
1.11604e-12
1.08023e-12
1.06746e-12
1.09681e-12
1.06209e-12
1.05222e-12
1.19896e-12
1.08443e-12
1.01632e-12
5.64462e-12
0.000375813
0.0244595
0.0156126
0.00676224
0.000914124
1.52662e-05
4.57042e-06
7.76783e-09
8.62917e-12
1.4397e-12
1.25238e-12
1.32711e-12
1.16513e-12
1.12997e-12
1.41341e-12
1.23861e-12
1.17101e-12
1.20456e-12
1.19155e-12
1.32066e-12
1.67602e-12
1.82722e-12
1.63027e-12
1.62543e-12
1.77532e-12
2.00953e-12
2.17234e-12
3.82212e-12
3.13577e-12
2.42729e-12
5.59207e-12
2.03619e-05
7.72965e-08
1.25708e-09
8.93498e-12
1.06283e-12
1.04705e-12
1.15367e-12
1.04023e-12
1.02036e-12
1.18031e-12
1.02917e-12
1.01154e-12
1.11999e-12
1.1133e-12
1.14142e-12
1.12087e-12
1.12687e-12
1.1974e-12
1.07108e-12
1.03343e-12
1.21251e-12
3.3088e-13
8.84222e-11
0.000966466
0.543597
0.154134
0.0368233
9.01215e-05
2.43653e-07
1.32615e-08
1.77182e-11
1.24928e-12
1.10369e-12
1.20866e-12
1.21725e-12
1.48257e-12
1.30126e-12
1.20077e-12
1.22755e-12
1.28561e-12
1.39886e-12
1.45023e-12
1.50074e-12
1.55062e-12
1.68619e-12
1.73591e-12
2.41507e-12
2.15083e-12
1.95865e-12
2.38611e-12
2.37475e-12
2.51244e-12
4.13604e-12
2.04164e-05
7.58289e-08
1.1926e-09
8.98482e-12
1.09302e-12
1.16854e-12
1.03773e-12
9.67241e-13
1.0475e-12
1.04406e-12
1.04899e-12
1.08787e-12
1.01603e-12
1.00584e-12
1.06965e-12
1.06182e-12
1.08383e-12
1.11955e-12
1.04517e-12
1.04089e-12
1.2119e-12
9.70469e-13
6.38479e-06
0.00671111
0.395449
0.121762
0.0122925
2.09497e-05
2.29746e-08
2.54742e-09
5.15882e-12
1.09372e-12
1.07085e-12
1.12448e-12
1.18645e-12
1.24208e-12
1.23753e-12
1.27453e-12
1.28011e-12
1.32934e-12
1.33468e-12
1.65844e-12
1.50023e-12
1.3486e-12
1.5764e-12
1.44377e-12
1.40482e-12
1.52653e-12
1.5089e-12
1.60138e-12
1.92122e-12
2.24625e-12
4.45314e-12
2.04059e-05
7.56239e-08
1.20318e-09
9.09975e-12
1.1099e-12
9.88568e-13
1.01926e-12
1.13161e-12
1.06689e-12
1.06323e-12
1.15657e-12
1.0331e-12
1.017e-12
1.17061e-12
1.12806e-12
1.10022e-12
1.1165e-12
1.11599e-12
1.16806e-12
1.08423e-12
1.08473e-12
1.69515e-12
6.26127e-07
0.000899377
0.0106042
0.0190246
0.0393706
0.000280137
1.52305e-07
3.60863e-08
5.45546e-11
1.47118e-12
1.19175e-12
1.16649e-12
1.22359e-12
1.26021e-12
1.2682e-12
1.41283e-12
1.41466e-12
1.4229e-12
1.51814e-12
1.44988e-12
1.53295e-12
1.60894e-12
1.65705e-12
1.80523e-12
2.38558e-12
1.89406e-12
1.5732e-12
1.97626e-12
1.9327e-12
2.05865e-12
2.50887e-12
4.30448e-12
2.04066e-05
7.55221e-08
1.20298e-09
9.05652e-12
1.10384e-12
9.88485e-13
1.01397e-12
1.12517e-12
1.0633e-12
1.05913e-12
1.14898e-12
1.04005e-12
9.87349e-13
1.07978e-12
1.05381e-12
1.05324e-12
1.06556e-12
1.14236e-12
1.06493e-12
1.01494e-12
1.1782e-12
1.13157e-12
0.00046278
0.000366665
0.040625
0.0779
0.07095
0.0004754
9.24465e-08
1.18537e-08
2.72686e-11
1.78188e-12
1.13578e-12
1.08342e-12
1.10944e-12
1.11174e-12
1.22402e-12
1.23024e-12
1.27467e-12
1.38172e-12
1.27222e-12
1.2441e-12
1.33209e-12
1.63982e-12
1.46185e-12
1.40877e-12
1.77281e-12
1.69844e-12
1.7917e-12
1.73531e-12
1.92104e-12
2.18699e-12
2.51547e-12
4.40082e-12
2.04027e-05
7.49877e-08
1.18441e-09
9.30608e-12
1.11879e-12
1.11386e-12
1.11305e-12
1.16442e-12
1.03869e-12
1.01939e-12
1.17486e-12
1.04828e-12
1.00518e-12
1.0303e-12
1.09693e-12
1.0527e-12
1.04502e-12
1.23004e-12
1.0542e-12
1.04366e-12
1.19922e-12
1.2833e-12
1.41201e-06
0.000164295
1.82404e-07
0.00172174
0.000688668
1.40377e-05
4.43218e-07
2.46958e-10
2.80876e-12
1.1487e-12
1.09349e-12
1.16156e-12
1.12911e-12
1.14064e-12
1.14991e-12
1.3442e-12
1.20774e-12
1.15943e-12
1.49887e-12
1.51483e-12
1.47693e-12
1.50009e-12
1.83132e-12
1.59804e-12
1.5781e-12
1.81469e-12
1.74753e-12
1.73498e-12
1.83511e-12
1.9519e-12
2.37743e-12
4.54509e-12
2.04035e-05
7.48985e-08
1.18472e-09
9.26465e-12
1.11319e-12
1.10815e-12
1.10741e-12
1.15838e-12
1.03305e-12
1.02159e-12
1.16823e-12
1.05049e-12
9.96995e-13
1.01416e-12
1.01589e-12
1.06178e-12
1.06628e-12
1.1606e-12
1.05973e-12
1.0342e-12
1.1423e-12
1.16313e-12
9.39485e-07
9.00616e-05
8.3743e-06
0.00660194
0.00109598
1.15734e-05
3.62977e-07
2.3587e-10
2.93175e-12
1.18331e-12
1.08477e-12
1.18221e-12
1.18804e-12
1.18417e-12
1.20151e-12
1.37485e-12
1.43569e-12
1.44506e-12
1.67484e-12
1.37714e-12
1.3031e-12
1.3958e-12
1.63407e-12
1.597e-12
1.58596e-12
2.37111e-12
2.32931e-12
2.37396e-12
3.10956e-12
2.56142e-12
2.3178e-12
4.54546e-12
2.04018e-05
7.50589e-08
1.1906e-09
9.18355e-12
1.09185e-12
1.08748e-12
1.07715e-12
1.08026e-12
1.10211e-12
1.08023e-12
1.08847e-12
1.16001e-12
1.04758e-12
9.89054e-13
1.0737e-12
1.07611e-12
1.18446e-12
1.066e-12
1.0098e-12
1.07555e-12
1.07736e-12
1.05874e-12
2.18877e-13
3.25439e-09
1.69108e-09
0.000159822
9.53373e-05
1.38372e-07
9.95194e-11
2.02885e-12
1.34668e-12
1.08427e-12
1.05281e-12
1.09272e-12
1.0967e-12
1.3822e-12
1.18266e-12
1.12373e-12
1.40886e-12
1.40089e-12
1.4111e-12
1.33777e-12
1.36461e-12
1.43673e-12
1.65763e-12
1.6762e-12
1.82923e-12
1.86135e-12
1.63101e-12
1.60436e-12
1.82029e-12
2.33775e-12
2.4982e-12
4.37352e-12
2.04024e-05
7.49707e-08
1.19057e-09
9.13297e-12
1.0864e-12
1.08194e-12
1.07141e-12
1.07433e-12
1.10056e-12
1.09792e-12
1.10607e-12
1.16044e-12
1.02856e-12
9.85362e-13
1.04428e-12
1.04983e-12
1.16492e-12
1.05776e-12
1.02586e-12
1.05105e-12
1.05767e-12
1.18392e-12
9.54902e-13
3.09101e-09
5.43521e-11
0.00064404
0.000222347
3.46869e-07
2.31611e-10
1.8724e-12
1.19444e-12
1.30606e-12
1.12672e-12
1.0818e-12
1.12286e-12
1.22812e-12
1.06391e-12
8.51601e-12
3.12015e-11
2.22598e-12
1.22352e-12
1.24006e-12
1.45879e-12
1.66008e-12
2.14826e-12
2.22921e-12
1.76206e-12
3.28785e-12
2.14258e-12
1.87824e-12
2.71957e-12
2.45114e-12
2.95071e-12
4.81332e-12
2.03995e-05
7.50746e-08
1.19032e-09
9.0901e-12
1.04928e-12
1.02279e-12
1.01936e-12
1.03534e-12
1.04916e-12
1.06847e-12
1.12419e-12
1.031e-12
1.01005e-12
1.11621e-12
1.11709e-12
1.13389e-12
1.07417e-12
1.06443e-12
1.07505e-12
1.12382e-12
1.0828e-12
1.07058e-12
1.05015e-12
1.74873e-12
1.49204e-12
4.01886e-09
1.79889e-09
1.38173e-11
1.27773e-12
1.10909e-12
1.13411e-12
1.16014e-12
1.16049e-12
1.35842e-12
1.27491e-12
1.27104e-12
2.04693e-12
6.5234e-12
4.84239e-12
2.58212e-12
1.47708e-12
1.27275e-12
1.32021e-12
1.40624e-12
1.55015e-12
1.25398e-12
9.68953e-12
4.62933e-12
1.87605e-12
2.31969e-12
2.31625e-12
2.19376e-12
2.25179e-12
3.68896e-12
2.04003e-05
7.49908e-08
1.19031e-09
9.04976e-12
1.04472e-12
1.01828e-12
1.01353e-12
1.02896e-12
1.04462e-12
1.06399e-12
1.12295e-12
1.0277e-12
1.00549e-12
1.0455e-12
1.05256e-12
1.06666e-12
1.08185e-12
1.16958e-12
1.16449e-12
1.16921e-12
1.06076e-12
1.0494e-12
1.00801e-12
1.62726e-12
3.20113e-13
2.32086e-08
4.34485e-09
1.72097e-11
1.38354e-12
1.21936e-12
1.28195e-12
1.10401e-12
1.07629e-12
1.35421e-12
1.22587e-12
1.22411e-12
3.4249e-13
2.03844e-07
1.59484e-07
7.59246e-10
1.86687e-12
1.21731e-12
9.97296e-12
2.78803e-11
7.55968e-12
2.71904e-10
5.83841e-11
3.07275e-11
2.43875e-12
1.96551e-12
1.83347e-12
1.96638e-12
2.33918e-12
4.22508e-12
2.03987e-05
7.50734e-08
1.19172e-09
9.12044e-12
1.05264e-12
1.02303e-12
1.02e-12
1.04123e-12
1.05481e-12
1.0817e-12
1.12462e-12
1.06084e-12
1.05893e-12
1.17463e-12
1.05774e-12
1.00969e-12
1.02972e-12
1.05895e-12
1.07617e-12
1.08953e-12
1.20496e-12
1.06145e-12
1.05518e-12
1.2858e-12
1.09344e-12
1.47249e-12
1.32472e-12
1.09473e-12
1.10733e-12
1.09455e-12
1.07698e-12
1.12058e-12
1.15782e-12
1.1642e-12
1.40579e-12
2.34961e-13
6.83024e-10
7.88619e-08
6.91684e-09
5.6937e-10
1.00522e-11
1.37166e-12
1.70583e-12
1.69846e-12
2.43314e-12
5.57114e-09
2.08839e-09
1.55687e-09
1.64359e-11
2.86991e-12
3.48752e-12
2.59967e-12
2.65065e-12
4.35786e-12
2.03993e-05
7.49854e-08
1.19154e-09
9.0855e-12
1.04756e-12
1.02034e-12
1.01464e-12
1.03155e-12
1.04503e-12
1.06783e-12
1.11883e-12
1.05703e-12
1.05543e-12
1.17095e-12
1.05941e-12
1.01213e-12
1.11579e-12
1.04527e-12
1.03116e-12
1.06188e-12
1.14882e-12
1.06052e-12
1.05811e-12
1.28166e-12
1.0454e-12
2.18861e-12
1.50007e-12
1.11017e-12
1.07717e-12
1.06897e-12
1.14942e-12
1.12023e-12
1.14678e-12
1.1996e-12
1.38156e-12
1.60017e-12
5.37416e-05
0.0076555
0.00346834
8.39163e-06
1.95657e-10
5.99057e-13
2.70098e-09
5.41423e-08
1.65783e-08
7.18123e-07
1.15826e-07
4.68083e-08
1.7674e-10
8.18995e-12
2.76723e-12
2.59671e-12
2.63774e-12
4.54021e-12
2.03967e-05
7.50845e-08
1.19046e-09
9.1634e-12
1.05227e-12
1.02293e-12
1.02041e-12
1.04038e-12
1.05404e-12
1.0775e-12
1.12715e-12
1.01863e-12
1.00632e-12
1.05503e-12
1.05619e-12
1.17721e-12
1.04363e-12
9.78374e-13
9.93055e-13
9.94127e-13
1.03837e-12
1.03697e-12
1.16733e-12
1.07391e-12
1.06416e-12
1.24219e-12
1.08436e-12
1.05648e-12
1.07752e-12
1.10877e-12
1.06347e-12
1.02465e-12
1.17781e-12
1.13833e-12
7.2294e-12
2.78932e-07
4.00411e-05
0.0019632
2.21618e-05
5.18071e-06
5.66418e-10
4.25668e-13
9.23288e-13
5.52752e-12
1.33542e-10
1.11369e-05
4.98319e-06
2.31036e-06
6.36084e-09
4.63294e-11
5.03806e-12
2.71125e-12
3.84564e-12
1.4368e-11
2.03974e-05
7.50007e-08
1.19035e-09
9.11312e-12
1.04493e-12
1.01941e-12
1.0137e-12
1.03059e-12
1.04797e-12
1.06794e-12
1.11549e-12
1.01499e-12
1.00236e-12
1.04635e-12
1.05257e-12
1.16734e-12
1.0367e-12
9.90866e-13
1.03771e-12
9.96696e-13
1.04152e-12
1.07411e-12
1.18868e-12
1.07264e-12
1.04519e-12
1.21562e-12
1.14072e-12
1.12758e-12
1.25612e-12
1.07674e-12
1.05324e-12
1.26814e-12
1.10398e-12
1.08263e-12
9.41494e-13
2.45501e-10
0.867208
9.09325
46.8246
0.0209869
8.32318e-11
6.02469e-13
2.17744e-07
2.35532e-06
1.05655e-05
0.00116724
0.000189188
7.27377e-05
2.10661e-07
5.13513e-10
6.62791e-12
3.15605e-12
3.48935e-12
6.35489e-12
2.03961e-05
7.50691e-08
1.18931e-09
9.18413e-12
1.07044e-12
1.04195e-12
1.04105e-12
1.06159e-12
1.06584e-12
1.15876e-12
1.04744e-12
9.86127e-13
1.07815e-12
1.0562e-12
1.06074e-12
1.09117e-12
1.15242e-12
1.02512e-12
9.89552e-13
1.13087e-12
1.08352e-12
1.06416e-12
1.13619e-12
1.14128e-12
1.19279e-12
1.07837e-12
1.0407e-12
1.16099e-12
1.14605e-12
1.0746e-12
1.08718e-12
1.2262e-12
1.1567e-12
8.41062e-13
1.82508e-09
0.00428637
0.721196
5.93215
0.225157
0.000845616
6.49525e-09
1.15404e-10
4.16043e-11
2.02751e-11
1.911e-08
0.000122822
0.000444073
0.000831936
2.78533e-06
3.97027e-09
5.67912e-11
1.12547e-11
8.478e-11
4.89157e-09
2.03966e-05
7.49865e-08
1.18928e-09
9.13137e-12
1.06422e-12
1.03494e-12
1.0321e-12
1.05211e-12
1.06284e-12
1.15254e-12
1.03963e-12
9.82181e-13
1.07434e-12
1.04901e-12
1.05736e-12
1.11325e-12
1.02697e-12
1.00073e-12
1.04861e-12
1.04015e-12
1.06121e-12
1.06307e-12
1.05331e-12
1.05724e-12
1.20907e-12
1.06502e-12
1.03544e-12
1.17757e-12
1.07438e-12
1.05873e-12
1.12608e-12
1.11344e-12
1.15225e-12
1.20795e-12
1.72202e-07
2.49001e-05
0.0394732
368.577
7713.94
8.49239
1.78024e-06
3.91579e-08
0.0223043
0.000732031
0.000133596
0.0119042
0.0052833
0.0223179
0.000174163
2.45119e-07
4.77683e-10
2.30777e-11
8.47786e-11
5.09327e-10
2.03943e-05
7.50744e-08
1.18812e-09
9.22003e-12
1.04808e-12
1.01911e-12
1.02061e-12
1.08858e-12
1.0569e-12
1.02799e-12
1.0472e-12
1.07549e-12
1.16089e-12
1.03804e-12
1.02518e-12
1.0891e-12
1.09355e-12
1.22397e-12
1.04587e-12
1.00628e-12
1.06525e-12
1.06764e-12
1.20052e-12
1.06765e-12
1.05327e-12
1.243e-12
1.0845e-12
1.06959e-12
1.24445e-12
1.07392e-12
1.01874e-12
1.13991e-12
1.23507e-12
7.07322e-07
9.97389e-05
1.02967
10.4329
178.431
7.68668
0.0804546
0.000259842
0.000138864
1.77548e-05
3.50232e-08
3.3076e-07
3.66109e-06
0.00165733
0.000946256
0.00011881
8.34851e-09
1.00687e-10
4.72574e-10
5.9582e-08
4.83341e-08
2.0395e-05
7.49974e-08
1.1882e-09
9.17997e-12
1.0439e-12
1.01497e-12
1.01822e-12
1.06086e-12
1.08128e-12
1.1047e-12
1.04134e-12
1.03571e-12
1.16087e-12
1.03155e-12
1.01537e-12
1.09037e-12
1.09647e-12
1.22259e-12
1.04451e-12
9.97258e-13
1.04756e-12
1.04312e-12
1.06873e-12
1.11412e-12
1.06817e-12
9.9753e-13
1.06463e-12
1.06801e-12
1.22003e-12
1.07998e-12
1.02437e-12
1.15476e-12
1.01479e-12
1.97896e-11
0.00577131
0.804337
7.44279
48285.2
4904.84
0.0578967
0.0744554
0.0620363
36.5517
4.89684
0.276164
0.465217
0.0522851
0.0244403
0.0197501
1.00553e-05
6.87262e-10
7.98865e-10
1.70052e-08
1.59878e-08
2.03939e-05
7.50575e-08
1.18519e-09
9.23017e-12
1.04735e-12
1.02162e-12
1.05238e-12
1.02108e-12
1.01686e-12
1.03611e-12