/*--------------------------------*- C++ -*----------------------------------*\
| =========                 |                                                 |
| \\      /  F ield         | OpenFOAM: The Open Source CFD Toolbox           |
|  \\    /   O peration     | Version:  4.1                                   |
|   \\  /    A nd           | Web:      www.OpenFOAM.org                      |
|    \\/     M anipulation  |                                                 |
\*---------------------------------------------------------------------------*/
FoamFile
{
    version     2.0;
    format      ascii;
    class       surfaceScalarField;
    location    "9";
    object      phi;
}
// * * * * * * * * * * * * * * * * * * * * * * * * * * * * * * * * * * * * * //

dimensions      [0 3 -1 0 0 0 0];

internalField   nonuniform List<scalar> 
11516
(
9.97824e+06
-4103.31
15300.2
9.74153e+06
-15916
118951
9.47789e+06
-19277.6
147868
9.19179e+06
-19318.5
171070
8.88036e+06
-19093.5
196481
8.53788e+06
-19057.9
226398
8.15726e+06
-19313.6
261658
7.73018e+06
-19693.4
303143
7.25054e+06
-20284
351610
6.71688e+06
-20092.7
408016
6.12073e+06
-19701.1
472054
5.44629e+06
-19366.9
544341
4.64306e+06
-27898.8
626370
3.69428e+06
-46761.4
685144
2.69672e+06
-93088
691816
2.0053e+06
-262796
391616
2.98481e+06
-648026
-703130
5.88194e+06
-1.26376e+06
-1.93469e+06
1.07005e+07
-1.5485e+06
-3.30408e+06
1.67228e+07
-1.54265e+06
-4.31006e+06
2.25118e+07
-1.44655e+06
-3.86888e+06
2.7266e+07
-1.20263e+06
-2.97761e+06
3.07744e+07
-1.62185e+06
-1.36995e+06
3.57964e+07
-4.09881e+06
-418925
4.37778e+07
-3.81523e+06
-3.54812e+06
4.62956e+07
-1.36196e+06
-563592
4.42712e+07
341955
2.29029e+06
3.90796e+07
1.51528e+06
4.38781e+06
3.18653e+07
2.1839e+06
5.81922e+06
2.35513e+07
2.22525e+06
6.91242e+06
1.47847e+07
2.16718e+06
7.48647e+06
5.34037e+06
1.98234e+06
8.38245e+06
-4.57578e+06
1.51021e+06
9.36306e+06
-1.4523e+07
734261
1.0213e+07
-2.33237e+07
48658.5
9.79935e+06
-3.14352e+07
-630650
9.85367e+06
-3.87776e+07
-1.16294e+06
9.69759e+06
-4.55905e+07
-1.60023e+06
9.66061e+06
-5.22891e+07
-2.03849e+06
9.99201e+06
-5.86339e+07
-2.2742e+06
9.88851e+06
-6.45313e+07
-2.4254e+06
9.58801e+06
-6.95828e+07
-2.65192e+06
9.13212e+06
-7.24312e+07
-2.77259e+06
7.36127e+06
-7.49753e+07
-2.68557e+06
7.25855e+06
-7.97953e+07
-1.25999e+06
8.34673e+06
-8.17755e+07
1.15152e+06
3.31922e+06
-8.1496e+07
1.15092e+06
923967
-7.73316e+07
-5.83368e+06
5.40906e+06
-5.0621e+07
-2.1664e+07
1.83077e+06
-2.05673e+07
-2.28468e+07
-2.32027e+06
1.23876e+07
-7.29357e+06
-2.30154e+07
5.15248e+07
396921
-3.83105e+07
7.43489e+07
-612193
-2.17454e+07
526775
-3.13224e+07
9.973e+06
14954.8
9.74463e+06
118509
9.48307e+06
146898
9.19838e+06
169990
8.8882e+06
195497
8.54666e+06
225598
8.16653e+06
261141
7.74014e+06
302993
7.26195e+06
351803
6.72831e+06
409027
6.13157e+06
474570
5.44649e+06
549234
4.62982e+06
629871
3.6562e+06
700786
2.5476e+06
697956
1.52189e+06
429936
1.42309e+06
-912685
1.79177e+06
-1.84434e+06
2.73832e+06
-2.63513e+06
4.66497e+06
-3.47111e+06
6.23788e+06
-2.88878e+06
7.44967e+06
-2.17205e+06
7.53117e+06
-1.46431e+06
4.21232e+06
-579183
908570
-354236
-1.6728e+06
1.32947e+06
-4.1786e+06
2.94933e+06
-6.63943e+06
4.08682e+06
-9.1174e+06
4.78789e+06
-1.18591e+07
5.112e+06
-1.48211e+07
5.29883e+06
-1.82658e+07
5.62511e+06
-2.21282e+07
5.60923e+06
-2.61838e+07
5.0557e+06
-2.9637e+07
3.80313e+06
-3.25343e+07
2.59947e+06
-3.47986e+07
1.46028e+06
-3.64582e+07
417166
-3.76219e+07
-551784
-3.81912e+07
-1.45411e+06
-3.81454e+07
-2.26728e+06
-3.72828e+07
-3.30544e+06
-3.56239e+07
-4.1076e+06
-3.30843e+07
-4.8118e+06
-3.01867e+07
-3.84482e+06
-2.65327e+07
-2.30486e+06
-2.35698e+07
-1.42773e+06
-2.52617e+07
-2.79436e+06
-3.10798e+07
-1.30179e+07
-2.46389e+07
-2.65191e+07
6.89606e+06
-3.75165e+07
4.80505e+07
-4.03884e+07
6.88379e+07
-2.12371e+07
-2.87628e+07
1.00044e+07
-4368.74
7584.26
9.84324e+06
-16870.6
155188
9.66352e+06
-20862.7
204533
9.46911e+06
-21132.3
243155
9.2579e+06
-21143.1
285580
9.02612e+06
-21324.1
334914
8.76881e+06
-21751.9
392634
8.48039e+06
-22609.7
459963
8.15702e+06
-23681.3
538985
7.80029e+06
-24136.9
630294
7.40662e+06
-24324.8
735060
6.9653e+06
-23576.6
859296
6.39835e+06
-37434.7
996978
5.70214e+06
-47039.5
1.17054e+06
4.73954e+06
-103282
1.32457e+06
3.51019e+06
-197285
1.40098e+06
1.50469e+06
-574648
1.10455e+06
-837499
-1.02986e+06
592460
-3.93933e+06
-1.11832e+06
90762.9
-7.71874e+06
-866515
-107226
-1.17599e+07
-704956
784743
-1.5351e+07
-690562
1.34924e+06
-1.7545e+07
-529549
1.46559e+06
-1.72694e+07
-699163
133014
-1.86584e+07
-1.4424e+06
-559736
-2.10265e+07
-1.1448e+06
3.02102e+06
-2.34367e+07
-722868
5.45256e+06
-2.60911e+07
-309426
7.36568e+06
-2.85577e+07
-130969
8.42668e+06
-3.08767e+07
-33274.6
9.27624e+06
-3.3417e+07
61293
9.9809e+06
-3.5852e+07
205614
1.06315e+07
-3.79881e+07
368877
1.11505e+07
-3.91274e+07
535116
1.08258e+07
-3.95033e+07
637405
9.55482e+06
-3.89119e+07
541426
8.74547e+06
-3.7865e+07
334822
8.34663e+06
-3.63742e+07
-31135.5
8.21211e+06
-3.41558e+07
-566347
8.28321e+06
-3.15428e+07
-1.28285e+06
8.3807e+06
-2.84088e+07
-2.32507e+06
8.49672e+06
-2.39301e+07
-3.9357e+06
8.22688e+06
-1.84471e+07
-5.89773e+06
7.41251e+06
-1.16966e+07
-7.23546e+06
7.37918e+06
-5.12904e+06
-6.84238e+06
8.06102e+06
2.15069e+06
-4.14025e+06
-821775
1.49743e+07
-2.6497e+06
-1.05517e+07
2.05809e+07
-5.88974e+06
5.14903e+06
1.71703e+07
-7.45897e+06
1.26979e+07
-3.26414e+06
-7.05552e+06
2.56573e+07
-3.50796e+07
-3.91089e+06
1.33302e+07
-5.75287e+07
1.05049e+06
-1.64008e+07
-6.58522e+07
2.0433e+06
-1.52555e+07
549459
-5.95759e+06
9.99848e+06
7526.68
9.84487e+06
155617
9.6663e+06
205553
9.47219e+06
244359
9.26092e+06
286825
9.02882e+06
336250
8.77097e+06
394118
8.48241e+06
461696
8.15957e+06
540897
7.80321e+06
633031
7.41019e+06
739968
6.95467e+06
864127
6.39046e+06
1.01237e+06
5.64682e+06
1.18181e+06
4.63563e+06
1.35518e+06
3.06031e+06
1.43785e+06
-92882.7
1.16679e+06
-4.45495e+06
829544
-9.18164e+06
459661
-1.36243e+07
-140175
-1.77987e+07
522974
-2.14182e+07
812231
-2.39321e+07
612284
-2.4714e+07
-396726
-2.63037e+07
-133071
-2.84843e+07
2.38686e+06
-3.04936e+07
4.22922e+06
-3.20522e+07
5.32251e+06
-3.32101e+07
5.80105e+06
-3.43459e+07
6.20537e+06
-3.55383e+07
6.55126e+06
-3.64825e+07
6.78544e+06
-3.70394e+07
6.54634e+06
-3.6597e+07
5.16727e+06
-3.5353e+07
3.23296e+06
-3.36382e+07
1.48578e+06
-3.17967e+07
23752.7
-2.97926e+07
-1.5871e+06
-2.73654e+07
-3.60437e+06
-2.5211e+07
-5.04476e+06
-2.33635e+07
-6.69974e+06
-2.04572e+07
-1.04721e+07
-1.64166e+07
-1.44531e+07
-1.17772e+07
-1.7292e+07
-7.56141e+06
-1.55782e+07
-3.64439e+06
-1.10146e+07
3.31206e+06
-1.15867e+07
1.07276e+07
-1.64075e+07
1.15054e+07
-2.12576e+07
-7.02509e+06
-1.48577e+07
-3.76448e+07
-1.05409e+07
-5.92343e+07
-1.75206e+07
-6.33242e+07
-1.51374e+07
-4.22164e+06
9.99201e+06
-4416.93
11397.6
9.8007e+06
-16771.5
227042
9.59023e+06
-20132.6
298746
9.36367e+06
-20110.3
354403
9.11942e+06
-19978.6
414744
8.85366e+06
-20018
484505
8.56158e+06
-20323.5
565420
8.23743e+06
-20990.7
659702
7.87899e+06
-21799.4
768384
7.489e+06
-21930.6
893771
7.07263e+06
-20567.4
1.03626e+06
6.61668e+06
-20370
1.19979e+06
6.0797e+06
-26126
1.38981e+06
5.42019e+06
-40591.6
1.63646e+06
4.56175e+06
-82564.4
1.91565e+06
3.45826e+06
-166582
2.29077e+06
1.70868e+06
-466513
2.63994e+06
-1.19666e+06
-804963
3.42907e+06
-6.35249e+06
-701573
4.88042e+06
-1.23691e+07
-215059
5.67893e+06
-1.65237e+07
-154549
4.83174e+06
-1.88941e+07
82028.5
3.66452e+06
-2.05791e+07
196724
3.08745e+06
-2.28982e+07
359247
2.29986e+06
-2.67033e+07
415256
2.91638e+06
-2.96165e+07
590092
5.34708e+06
-3.2205e+07
750568
7.27268e+06
-3.38318e+07
920672
8.06046e+06
-3.46952e+07
998746
8.29946e+06
-3.53474e+07
1.12301e+06
8.83598e+06
-3.59195e+07
1.30733e+06
9.30988e+06
-3.56884e+07
1.51822e+06
8.96125e+06
-3.4476e+07
1.758e+06
8.25122e+06
-3.26296e+07
2.21737e+06
6.83477e+06
-2.99943e+07
2.37389e+06
4.63992e+06
-2.68894e+07
2.62359e+06
3.15232e+06
-2.33261e+07
2.89904e+06
2.06389e+06
-1.90325e+07
3.23932e+06
817853
-1.43118e+07
3.70277e+06
-102679
-9.65651e+06
3.87861e+06
-200778
-5.46587e+06
3.41602e+06
713646
-424409
2.92347e+06
-154976
5.54401e+06
2.59081e+06
-1.91083e+06
9.33006e+06
3.53672e+06
-1.32162e+06
6.90582e+06
3.01484e+06
5.69565e+06
-9.82477e+06
568063
1.22807e+07
-3.32897e+07
-7.14595e+06
1.59634e+07
-3.43854e+07
-9.5504e+06
1.28017e+07
-2.70143e+07
-2.70114e+06
6.17263e+06
-4.44489e+06
-991155
2.95713e+06
1.84993e+07
-4.00738e+06
-5.86986e+06
-4.8043e+06
73869.5
6.30191e+06
-1.58096e+07
2.12894e+06
-6.8124e+06
255907
9.07245e+06
9.98628e+06
11507.9
9.8037e+06
229178
9.59469e+06
300386
9.36895e+06
355983
9.12516e+06
416457
8.85951e+06
486405
8.56731e+06
567541
8.24315e+06
662074
7.88541e+06
770976
7.49682e+06
896690
7.07887e+06
1.03993e+06
6.61664e+06
1.20513e+06
6.06913e+06
1.40276e+06
5.38126e+06
1.64704e+06
4.47291e+06
1.95595e+06
3.09009e+06
2.33461e+06
540945
2.79038e+06
-3.70474e+06
3.57888e+06
-9.38385e+06
4.86711e+06
-1.53011e+07
5.1767e+06
-1.9405e+07
4.35298e+06
-2.16969e+07
3.1774e+06
-2.35906e+07
2.78631e+06
-2.57065e+07
2.15586e+06
-2.82397e+07
2.83991e+06
-3.00099e+07
4.73661e+06
-3.11021e+07
6.05835e+06
-3.12618e+07
6.40218e+06
-3.09056e+07
6.45978e+06
-3.04738e+07
6.93424e+06
-2.97296e+07
7.17288e+06
-2.81756e+07
6.8126e+06
-2.56417e+07
5.83007e+06
-2.22732e+07
4.09592e+06
-1.83599e+07
1.81818e+06
-1.41769e+07
116150
-9.77627e+06
-1.27962e+06
-5.2924e+06
-2.6768e+06
-1.51566e+06
-3.60554e+06
256352
-3.06105e+06
2.21095e+06
-5.51957e+06
6.45281e+06
-1.22744e+07
1.00096e+07
-1.62832e+07
8.51788e+06
-1.34879e+07
2.61056e+06
-8.15871e+06
-3.03572e+06
-6.35709e+06
-1.0075e+07
-1.31791e+07
-1.62045e+07
-2.12676e+07
-1.04442e+07
-3.09614e+07
7.46242e+06
-3.44669e+07
1.65107e+07
-2.40772e+07
-5.84214e+06
4.15975e+06
-1.65252e+07
-2.92236e+06
1.01627e+07
9.99434e+06
-4262.58
15866.4
9.80908e+06
-15097.8
299783
9.60529e+06
-19001.7
391660
9.38585e+06
-19208.6
463844
9.14864e+06
-19134.1
542251
8.88961e+06
-19201.6
632668
8.60269e+06
-19549.3
738027
8.28241e+06
-20294.6
859823
7.92418e+06
-21287.9
1.00037e+06
7.52951e+06
-21629.9
1.16237e+06
7.10273e+06
-20289
1.34806e+06
6.63153e+06
-19521.3
1.56204e+06
6.09488e+06
-19278
1.82199e+06
5.40268e+06
-39204.7
2.14007e+06
4.57883e+06
-54468.4
2.57947e+06
3.48934e+06
-136878
3.15026e+06
2.16795e+06
-308091
3.9412e+06
496799
-585343
4.993e+06
-963328
-588541
6.202e+06
-2.99375e+06
-299489
7.11235e+06
-5.78613e+06
-53421
7.21254e+06
-9.47335e+06
261133
6.86786e+06
-1.33281e+07
484133
6.49649e+06
-1.74875e+07
577928
5.92349e+06
-2.09187e+07
674022
5.69853e+06
-2.32588e+07
725766
6.96876e+06
-2.48321e+07
733960
8.14429e+06
-2.51354e+07
732657
7.71985e+06
-2.48546e+07
702095
7.46202e+06
-2.43035e+07
863597
7.62123e+06
-2.34576e+07
1.1732e+06
7.51188e+06
-2.19267e+07
1.54703e+06
6.08844e+06
-1.95823e+07
1.95202e+06
4.13866e+06
-1.69889e+07
1.92248e+06
2.53502e+06
-1.39684e+07
1.93719e+06
-35169.4
-1.07307e+07
1.98281e+06
-1.67374e+06
-6.92259e+06
1.90466e+06
-3.23884e+06
-2.16724e+06
2.02131e+06
-5.58872e+06
3.55509e+06
2.35578e+06
-7.79065e+06
9.83678e+06
1.62839e+06
-7.79221e+06
1.08208e+07
273514
-443494
1.00152e+07
-398342
662341
9.16176e+06
-2.86914e+06
510311
7.3711e+06
-3.18146e+06
2.05608e+06
7.07888e+06
894872
3.42426e+06
4.62077e+06
-861919
1.33532e+07
4.31402e+06
-5.06861e+06
1.90885e+07
6.60728e+06
-795632
8.85217e+06
1.08873e+07
5.66377e+06
-6.65523e+06
1.85342e+07
1.02367e+07
-1.70554e+07
2.74199e+07
6.01213e+06
-2.32813e+07
5.63701e+07
308474
-2.50004e+07
4.25284e+07
5.32113e+06
-579398
2.49261e+06
-1.84981e+07
9.98879e+06
15679.8
9.81131e+06
300647
9.60943e+06
393739
9.39102e+06
466345
9.15442e+06
544973
8.89562e+06
635622
8.60871e+06
741279
8.2885e+06
863465
7.93117e+06
1.00457e+06
7.53823e+06
1.16731e+06
7.11112e+06
1.35427e+06
6.63841e+06
1.5721e+06
6.08141e+06
1.83408e+06
5.39049e+06
2.16808e+06
4.49423e+06
2.61e+06
3.27023e+06
3.21684e+06
1.37452e+06
4.06565e+06
-1.22956e+06
5.18177e+06
-3.81507e+06
6.30397e+06
-6.49605e+06
7.10594e+06
-9.77466e+06
7.29423e+06
-1.34152e+07
6.99178e+06
-1.67144e+07
6.59309e+06
-1.98675e+07
5.91666e+06
-2.21212e+07
5.7756e+06
-2.31242e+07
6.46999e+06
-2.32366e+07
6.94195e+06
-2.26778e+07
6.65018e+06
-2.17549e+07
6.35294e+06
-2.04471e+07
6.63792e+06
-1.84977e+07
6.5545e+06
-1.57267e+07
5.74237e+06
-1.26012e+07
4.84245e+06
-8.87669e+06
2.55084e+06
-4.96458e+06
261592
-984901
-1.32346e+06
3.17086e+06
-3.01429e+06
6.22366e+06
-3.24305e+06
8.50679e+06
-3.27213e+06
1.04822e+07
-3.30743e+06
1.40181e+07
-8.85125e+06
1.96416e+07
-1.85048e+07
1.95528e+07
-1.9387e+07
1.27615e+07
-1.04817e+07
4.54947e+06
-50667.4
-2.14473e+06
-1.55943e+06
-9.5297e+06
-1.19323e+07
-1.30882e+07
-1.96855e+07
-1.32615e+07
-2.63427e+07
-8.54953e+06
-3.01177e+07
5.5594e+06
-3.3399e+07
3.39442e+07
-2.51264e+07
3.11949e+07
3.98711e+06
-1.59806e+07
9.99451e+06
-4229.39
18422.6
9.81972e+06
-14970.6
368657
9.62778e+06
-18027.2
481774
9.42142e+06
-17950.9
569673
9.19867e+06
-17836.3
664852
8.95543e+06
-17928.3
774644
8.6863e+06
-18319
902525
8.38537e+06
-19107.2
1.05048e+06
8.0479e+06
-20092.4
1.22211e+06
7.67485e+06
-20360.2
1.42088e+06
7.2721e+06
-18671.3
1.65075e+06
6.83883e+06
-15274.4
1.91886e+06
6.3478e+06
-15064.9
2.2407e+06
5.7544e+06
-22373.2
2.64281e+06
5.0391e+06
-38505.2
3.18749e+06
4.16979e+06
-92689.1
3.88452e+06
3.27504e+06
-197791
4.85535e+06
2.34553e+06
-400978
5.98189e+06
1.51022e+06
-445566
7.10518e+06
512551
-268018
7.79883e+06
-657787
-18352.7
8.03475e+06
-2.03726e+06
221328
7.78327e+06
-3.25718e+06
441652
7.27911e+06
-4.58698e+06
499761
6.82098e+06
-7.01268e+06
1.00635e+06
7.19934e+06
-8.97337e+06
392318
8.60922e+06
-9.86163e+06
290485
8.98109e+06
-1.08469e+07
721250
8.31725e+06
-1.12681e+07
666776
7.65675e+06
-1.12934e+07
784761
7.36157e+06
-1.08285e+07
947979
6.58062e+06
-9.735e+06
833663
4.59456e+06
-7.69444e+06
681049
1.8835e+06
-5.11536e+06
633511
-29957.6
-2.36835e+06
99038.3
-2.08492e+06
461277
-124736
-3.44539e+06
3.67158e+06
-361794
-5.19311e+06
7.14307e+06
-130449
-7.92888e+06
9.9665e+06
-127858
-9.28532e+06
1.20793e+07
-1.21361e+06
-7.26142e+06
9.17721e+06
5.09774e+06
-1.40633e+06
3.26377e+06
6.55795e+06
99570.2
3.85733e+06
107120
-306984
9.29972e+06
-4.01523e+06
264891
1.06154e+07
-1.7371e+06
3.03955e+06
6.43841e+06
1.48214e+06
1.47204e+07
2.41724e+06
-218142
2.13538e+07
-1.02775e+07
2.32873e+06
1.64714e+07
-1.95451e+07
3.81671e+06
-4.42022e+06
-2.25029e+07
1.98327e+06
-1.76067e+07
-2.77874e+07
1.58823e+06
-1.99777e+07
-3.76608e+07
954055
-1.62733e+07
-4.88313e+07
736644
1.01543e+07
797483
-1.55302e+07
9.98889e+06
18611.6
9.8228e+06
372190
9.63227e+06
484715
9.42676e+06
572606
9.20455e+06
668041
8.96152e+06
778164
8.6924e+06
906428
8.39161e+06
1.05479e+06
8.05508e+06
1.22692e+06
7.68419e+06
1.42616e+06
7.28323e+06
1.65684e+06
6.84637e+06
1.92699e+06
6.34761e+06
2.25318e+06
5.74226e+06
2.66725e+06
4.98576e+06
3.21289e+06
4.0368e+06
3.95248e+06
2.79377e+06
4.94493e+06
1.22855e+06
6.14847e+06
-429573
7.19675e+06
-1.77789e+06
7.87393e+06
-2.92064e+06
8.15922e+06
-3.79558e+06
7.99438e+06
-4.33531e+06
7.5596e+06
-5.30523e+06
7.42869e+06
-6.45578e+06
8.00739e+06
-8.25445e+06
8.8102e+06
-9.64957e+06
8.85043e+06
-1.00909e+07
8.10193e+06
-1.03155e+07
7.60437e+06
-1.01776e+07
7.68503e+06
-9.35085e+06
7.06492e+06
-7.84226e+06
5.45894e+06
-5.96224e+06
4.13966e+06
-4.45675e+06
2.3582e+06
-3.52222e+06
420761
-1.37573e+06
-2.4418e+06
1.92069e+06
-5.64657e+06
6.45819e+06
-6.89131e+06
1.06759e+07
-7.09423e+06
1.19406e+07
-5.48173e+06
1.29535e+07
-4.62901e+06
1.13474e+07
-1.02798e+07
1.01198e+06
-9.04224e+06
-1.20575e+07
-1.89167e+06
-1.1128e+07
-3.50902e+06
-5.96262e+06
-6.13636e+06
-9.10414e+06
-9.85867e+06
-1.12033e+07
-1.61259e+07
-1.37999e+07
-2.06964e+07
-1.96724e+07
-2.27041e+07
-2.86543e+07
-2.29297e+07
-3.80992e+07
-1.4713e+07
-4.35837e+07
1.05263e+07
-1.29959e+07
9.99711e+06
-3955.59
23244.8
9.83447e+06
-12196.3
437061
9.6562e+06
-15949.2
567432
9.46521e+06
-16135.3
669315
9.25976e+06
-16033.5
779633
9.03566e+06
-16098.7
907092
8.7881e+06
-16472.7
1.05494e+06
8.51126e+06
-17301.1
1.22599e+06
8.20124e+06
-18349.1
1.42437e+06
7.85956e+06
-18835.9
1.65424e+06
7.49478e+06
-17190.7
1.92155e+06
7.11466e+06
-12966.1
2.23461e+06
6.70342e+06
-10424.4
2.60778e+06
6.25214e+06
-7987.61
3.07673e+06
5.6926e+06
-29167.3
3.66424e+06
5.12815e+06
-44523.4
4.44915e+06
4.5504e+06
-135532
5.412e+06
4.18044e+06
-257226
6.54478e+06
3.84909e+06
-365322
7.51257e+06
3.53674e+06
-282537
8.12383e+06
2.97694e+06
-179609
8.39656e+06
2.11285e+06
-43204.6
8.53051e+06
808757
149947
8.40879e+06
-968908
422569
8.295e+06
-3.69832e+06
981158
9.16508e+06
-4.22638e+06
116266
9.25905e+06
-2.66255e+06
-102028
7.98492e+06
-2.2902e+06
445865
8.06206e+06
-1.89117e+06
252018
7.70057e+06
-1.36865e+06
90904.7
7.56586e+06
-1.19774e+06
175480
7.12462e+06
-1.83772e+06
191610
5.97303e+06
-2.81767e+06
6691.03
3.84941e+06
-3.34107e+06
-36660.3
1.62202e+06
-3.23451e+06
-616079
-417150
-1.92385e+06
-1.24847e+06
-2.21349e+06
89154
-1.14907e+06
-4.53655e+06
900214
1.19518e+06
-7.78204e+06
2.42081e+06
-23427.5
-8.24653e+06
8.86224e+06
-5.40977e+06
-6.32495e+06
1.44519e+07
-1.59495e+06
-4.44192e+06
1.15304e+07
4.79881e+06
-1.26027e+06
6.48099e+06
852971
3.96155e+06
9.7209e+06
-9.75707e+06
6.55338e+06
1.11109e+07
-4.02856e+06
5.16618e+06
9.21554e+06
4.52156e+06
1.09062e+07
8.36318e+06
4.99713e+06
1.58187e+07
7.13905e+06
5.69429e+06
1.07263e+07
-3.63451e+06
5.57586e+06
-377609
-1.81998e+07
1.10526e+06
-4.60339e+06
-2.72475e+07
94842.9
-1.07035e+07
-3.52983e+07
512866
-7.41633e+06
-4.30949e+07
2.69914e+06
1.66366e+07
1.4499e+06
4.12262e+07
9.99181e+06
22941.8
9.83646e+06
437951
9.66021e+06
569941
9.47033e+06
672348
9.26553e+06
782904
9.0417e+06
910587
8.79416e+06
1.0587e+06
8.51748e+06
1.23009e+06
8.20832e+06
1.4289e+06
7.8691e+06
1.65937e+06
7.50698e+06
1.92748e+06
7.12568e+06
2.24212e+06
6.71322e+06
2.62047e+06
6.23826e+06
3.0914e+06
5.67969e+06
3.69838e+06
5.02621e+06
4.48638e+06
4.28209e+06
5.49608e+06
3.40154e+06
6.66325e+06
2.45974e+06
7.62811e+06
1.64269e+06
8.19088e+06
884024
8.56209e+06
-91567.9
8.83848e+06
-1.11287e+06
8.74805e+06
-1.77666e+06
8.62879e+06
-1.52032e+06
8.93708e+06
-1.354e+06
9.03516e+06
-1.05669e+06
8.78721e+06
-455662
8.34357e+06
-207364
8.08779e+06
-168908
8.28572e+06
-390116
8.03281e+06
-1.16811e+06
7.02152e+06
-1.82597e+06
5.43557e+06
-2.14274e+06
3.34899e+06
-2.75584e+06
1.29147e+06
-4.30682e+06
-970239
-5.76538e+06
-3.71458e+06
-2.3986e+06
-7.17228e+06
-221666
-8.22368e+06
-7.37601e+06
-3.15494e+06
-1.13235e+07
-1.96219e+06
-1.0182e+07
-6.49366e+06
-9.45368e+06
-8.98164e+06
-1.29123e+07
-8.53623e+06
-1.15596e+07
-9.55847e+06
-5.76302e+06
-8.12743e+06
-3.00136e+06
-8.27036e+06
-3.61917e+06
-1.03941e+07
-6.37099e+06
-1.28075e+07
-1.30532e+07
-1.50371e+07
-2.08095e+07
-1.47552e+07
-2.60765e+07
-8.10673e+06
-2.5065e+07
1.29513e+07
3.84157e+07
9.99711e+06
-3936.26
24963.7
9.84928e+06
-12307.5
497088
9.68782e+06
-14963.2
645976
9.51518e+06
-14813.4
760588
9.32992e+06
-14706.9
883971
9.12829e+06
-14866.7
1.02644e+06
8.90587e+06
-15389.2
1.1911e+06
8.65744e+06
-16387.7
1.38153e+06
8.37998e+06
-17633.7
1.60205e+06
8.07613e+06
-18252.4
1.85801e+06
7.75809e+06
-16644.9
2.1549e+06
7.44e+06
-11995.2
2.50186e+06
7.12662e+06
-5790.21
2.91256e+06
6.80081e+06
-3876.73
3.41111e+06
6.44631e+06
-10335.8
4.02763e+06
6.10026e+06
-24664.4
4.81433e+06
5.80097e+06
-80765.4
5.73918e+06
5.70582e+06
-160924
6.81487e+06
5.64901e+06
-275453
7.7352e+06
5.57081e+06
-273607
8.36701e+06
5.38522e+06
-234412
8.57947e+06
5.20642e+06
-108106
8.74844e+06
4.78584e+06
41166.9
8.79201e+06
4.32332e+06
215168
8.76038e+06
4.58824e+06
254089
8.94463e+06
4.69117e+06
252619
9.26252e+06
3.72065e+06
326692
8.97513e+06
3.02671e+06
424952
8.68057e+06
2.64845e+06
255844
8.21237e+06
2.76802e+06
67241.7
7.81541e+06
2.97442e+06
25701.1
7.36387e+06
2.84151e+06
33957.8
6.59349e+06
2.07099e+06
-33042.3
5.25746e+06
639694
60047.3
3.70372e+06
-1.68318e+06
252283
2.51049e+06
-4.92135e+06
633514
1.49452e+06
-9.48811e+06
1.43187e+06
141735
-1.39599e+07
2.12093e+06
-3.17255e+06
-1.17355e+07
-846572
-7.35761e+06
-6.89876e+06
-2.76543e+06
-7.35278e+06
-5.67432e+06
-1.30104e+06
-3.79696e+06
-6.41425e+06
661982
-913817
-5.95761e+06
474851
3.14214e+06
-1.9568e+06
-3.19246e+06
5.72039e+06
5.26663e+06
-3.18845e+06
840845
1.04473e+07
3.03992e+06
2.16054e+06
1.15618e+07
6.51866e+06
7.50004e+06
1.21254e+07
6.52232e+06
2.91916e+06
5.41501e+06
5.34754e+06
236449
-644762
1.96592e+06
-569061
-5.14975e+06
575715
-5.74478e+06
-3.23171e+06
742936
-8.60708e+06
6.15388e+06
868895
8.18995e+06
3.04582e+06
-3.27591e+07
9.99171e+06
25239.9
9.85238e+06
501718
9.69225e+06
649845
9.52046e+06
764436
9.33573e+06
888122
9.13431e+06
1.031e+06
8.91189e+06
1.19611e+06
8.66357e+06
1.38707e+06
8.38707e+06
1.60814e+06
8.08575e+06
1.86479e+06
7.77111e+06
2.16235e+06
7.45497e+06
2.51068e+06
7.13708e+06
2.92426e+06
6.80326e+06
3.42805e+06
6.43734e+06
4.05679e+06
6.04498e+06
4.84382e+06
5.6529e+06
5.81113e+06
5.22821e+06
6.89999e+06
4.67982e+06
7.85925e+06
4.03453e+06
8.4425e+06
3.53597e+06
8.73268e+06
3.21956e+06
8.98747e+06
2.96846e+06
9.10068e+06
2.88205e+06
9.0726e+06
3.05991e+06
9.23149e+06
3.1353e+06
9.44849e+06
3.18351e+06
9.29986e+06
3.33343e+06
8.86481e+06
3.53308e+06
8.42311e+06
4.04242e+06
8.16103e+06
4.63923e+06
7.8123e+06
4.99332e+06
7.09353e+06
5.00806e+06
5.8323e+06
4.74943e+06
4.15713e+06
4.36541e+06
2.47473e+06
3.88064e+06
795081
3.56638e+06
-1.17665e+06
2.53381e+06
-3.0861e+06
-1.5165e+06
-4.17489e+06
-3.79419e+06
-3.13857e+06
-1.11928e+06
-5.61664e+06
842049
-7.55245e+06
264035
-7.74014e+06
-5.05415e+06
-6.31472e+06
-1.01752e+07
-7.75591e+06
-9.7372e+06
-5.7861e+06
-6.29708e+06
-5.50023e+06
-3.48935e+06
-6.9606e+06
-3.81324e+06
-7.28165e+06
-7.286e+06
-9.35464e+06
-9.90781e+06
-1.08558e+07
-5.67595e+06
-1.05521e+07
4.71218e+06
4.58937e+06
-5.19108e+07
1.00005e+07
-3563.19
29928.5
9.86842e+06
-8617.83
557218
9.72474e+06
-12131.8
719275
9.57203e+06
-12286
844506
9.40891e+06
-12169.2
979255
9.23229e+06
-12248.3
1.13437e+06
9.03806e+06
-12701.2
1.31295e+06
8.82136e+06
-13635.2
1.51933e+06
8.58014e+06
-14893.6
1.75725e+06
8.31953e+06
-15453
2.0323e+06
8.05308e+06
-13902.3
2.35058e+06
7.80209e+06
-8705.62
2.72021e+06
7.58147e+06
-805.143
3.15251e+06
7.38217e+06
3974.67
3.66371e+06
7.21307e+06
7992.62
4.2855e+06
7.03448e+06
-12962.4
5.02165e+06
6.97535e+06
-28535
5.91313e+06
7.00782e+06
-103780
6.86895e+06
7.18565e+06
-174800
7.7871e+06
7.25759e+06
-247074
8.43158e+06
7.28855e+06
-230267
8.72452e+06
7.29678e+06
-165342
8.79723e+06
7.37263e+06
-43256.9
8.83233e+06
7.44101e+06
64787.2
8.81045e+06
7.83323e+06
52700.9
8.80179e+06
8.24106e+06
121283
9.03943e+06
8.2059e+06
282787
9.00586e+06
8.02596e+06
364566
8.76755e+06
7.84806e+06
321813
8.37363e+06
7.98629e+06
212742
7.82617e+06
8.39873e+06
129506
7.22896e+06
8.76286e+06
95313.5
6.57787e+06
8.73063e+06
103727
5.66722e+06
8.05322e+06
248404
4.64631e+06
6.73697e+06
521007
3.85376e+06
5.00664e+06
804125
3.03592e+06
2.96339e+06
1.07519e+06
1.82135e+06
-1.0321e+06
1.20814e+06
392677
-8.93035e+06
1.21692e+06
100081
-1.33176e+07
-763816
-1.45537e+06
-1.26866e+07
-1.25719e+06
-2.64243e+06
-1.41647e+07
1.68547e+06
-738607
-1.50422e+07
2.8707e+06
1.449e+06
-5.83194e+06
-3.09612e+06
-81117.1
-1.33777e+06
-1.06457e+06
-2.41423e+06
-12135.6
1.1263e+06
-201387
2.54183e+06
3.87345e+06
1.09926e+06
561044
4.78023e+06
198436
-4.90937e+06
4.50344e+06
1.57315e+06
-1.1799e+07
3.70284e+06
3.54185e+06
-1.98571e+07
2.4397e+06
1.03395e+06
-2.69081e+07
1.41783e+06
-1.57749e+06
-2.72837e+07
-1.33715e+06
1.07093e+07
-135635
5.88088e+06
9.99552e+06
29523
9.87014e+06
557922
9.72857e+06
721900
9.57703e+06
847707
9.4146e+06
982669
9.23824e+06
1.13795e+06
9.04405e+06
1.31674e+06
8.82747e+06
1.52335e+06
8.58731e+06
1.76161e+06
8.32919e+06
2.03699e+06
8.0669e+06
2.35576e+06
7.81888e+06
2.72601e+06
7.59599e+06
3.15978e+06
7.39471e+06
3.67607e+06
7.20107e+06
4.29849e+06
7.02193e+06
5.05349e+06
6.87405e+06
5.94669e+06
6.75509e+06
6.94219e+06
6.54934e+06
7.87717e+06
6.17748e+06
8.54135e+06
5.77741e+06
8.84768e+06
5.60564e+06
8.98865e+06
5.64198e+06
9.0925e+06
5.82637e+06
9.11499e+06
6.1434e+06
9.1847e+06
6.58506e+06
9.34056e+06
7.11755e+06
9.24479e+06
7.59352e+06
8.94342e+06
8.03052e+06
8.51919e+06
8.66242e+06
7.98416e+06
9.43626e+06
7.43702e+06
1.00844e+07
6.83408e+06
1.04096e+07
5.9258e+06
1.03624e+07
4.78157e+06
1.00337e+07
3.66862e+06
9.50595e+06
2.50111e+06
8.72584e+06
1.0807e+06
7.04872e+06
206677
4.23843e+06
245762
853195
-118289
-2.73211e+06
-2.84138e+06
-4.0645e+06
-4.07691e+06
-4.15538e+06
-4.30087e+06
-8.08667e+06
-5.05343e+06
-1.1466e+07
-5.31571e+06
-1.63238e+07
173972
-1.65448e+07
-1.45265e+06
-1.57483e+07
-2.9612e+06
-1.69573e+07
-1.42004e+06
-2.09008e+07
-1.30735e+06
-2.60662e+07
-2.48642e+06
-3.20873e+07
-2.28015e+06
-3.84637e+07
1.00957e+07
3.35741e+06
1.00003e+07
-3568.94
30591.3
9.88644e+06
-9067.49
604703
9.76332e+06
-11285
781520
9.63293e+06
-11066.5
915768
9.4943e+06
-10977.8
1.05919e+06
9.34478e+06
-11213
1.22356e+06
9.1807e+06
-11881.5
1.41216e+06
8.99845e+06
-13090.2
1.62915e+06
8.79657e+06
-14619.5
1.87874e+06
8.5813e+06
-15496.2
2.16591e+06
8.36966e+06
-14130.8
2.49624e+06
8.18597e+06
-8924.67
2.8771e+06
8.05129e+06
-461.217
3.3162e+06
7.97196e+06
8163.75
3.82528e+06
7.93359e+06
10648.1
4.42108e+06
7.93034e+06
3580.45
5.11652e+06
8.00378e+06
-10285.5
5.93135e+06
8.16743e+06
-57799.9
6.79439e+06
8.47394e+06
-105866
7.66792e+06
8.75399e+06
-181801
8.33354e+06
8.98653e+06
-200258
8.71898e+06
9.18431e+06
-183915
8.77613e+06
9.49547e+06
-93286.2
8.74622e+06
9.86117e+06
-6272.46
8.66285e+06
1.03718e+07
21662.8
8.58414e+06
1.09497e+07
72495.4
8.67637e+06
1.1355e+07
174240
8.65157e+06
1.15954e+07
244631
8.46118e+06
1.17221e+07
264373
8.15899e+06
1.189e+07
233770
7.62798e+06
1.22285e+07
179895
6.94793e+06
1.26745e+07
131568
6.27179e+06
1.30231e+07
114248
5.51021e+06
1.30766e+07
182601
4.74601e+06
1.27144e+07
338369
4.24565e+06
1.18507e+07
498389
3.8166e+06
1.03943e+07
651412
3.07682e+06
8.01571e+06
927127
2.2772e+06
4.56268e+06
1.54143e+06
2.38961e+06
-733445
1.52612e+06
2.63696e+06
-6.1706e+06
964185
2.13185e+06
-8.73723e+06
352515
1.74553e+06
-1.10672e+07
1.13936e+06
2.78646e+06
-1.03371e+07
-222474
-535031
-8.98562e+06
-560154
-3.2929e+06
-1.25125e+07
-219591
3.31271e+06
-1.56683e+07
36117.6
4.03992e+06
-1.75821e+07
912423
1.23118e+06
-1.958e+07
1.79366e+06
2.04004e+06
-2.18892e+07
2.63961e+06
3.68903e+06
-2.34702e+07
2.13014e+06
1.30626e+06
-2.18832e+07
599424
-2.98103e+06
-8.1336e+06
-3.45508e+06
1.03534e+06
-1.18982e+06
1.89002e+06
9.99523e+06
30944.1
9.88949e+06
610093
9.7676e+06
785982
9.63806e+06
920164
9.49995e+06
1.06389e+06
9.3506e+06
1.22867e+06
9.18648e+06
1.41775e+06
9.00433e+06
1.63531e+06
8.80346e+06
1.88556e+06
8.59085e+06
2.17334e+06
8.38356e+06
2.50439e+06
8.20376e+06
2.88581e+06
8.06992e+06
3.32613e+06
7.98436e+06
3.83765e+06
7.93718e+06
4.43782e+06
7.92321e+06
5.14318e+06
7.95366e+06
5.95681e+06
8.0388e+06
6.8542e+06
8.10624e+06
7.73145e+06
8.05378e+06
8.43742e+06
7.87567e+06
8.82191e+06
7.79255e+06
8.9339e+06
7.94535e+06
8.93471e+06
8.32204e+06
8.90362e+06
8.83126e+06
8.89217e+06
9.45318e+06
8.96929e+06
1.01218e+07
8.88992e+06
1.07662e+07
8.6617e+06
1.13449e+07
8.32866e+06
1.19492e+07
7.76065e+06
1.26695e+07
7.07221e+06
1.34216e+07
6.41708e+06
1.40252e+07
5.66449e+06
1.4368e+07
4.86671e+06
1.43897e+07
4.24809e+06
1.40192e+07
3.65545e+06
1.3261e+07
2.78437e+06
1.26645e+07
1.99674e+06
1.27443e+07
1.92526e+06
1.199e+07
2.34619e+06
8.18735e+06
2.09797e+06
2.99347e+06
1.60913e+06
-1.9712e+06
1.90048e+06
-8.57152e+06
1.34552e+06
-1.66501e+07
2.06905e+06
-1.94184e+07
2.51039e+06
-2.17831e+07
816761
-2.19409e+07
-1.86711e+06
-2.17255e+07
343298
-2.24785e+07
2.45701e+06
-2.3131e+07
836331
-2.02195e+07
-3.9448e+06
-1.41018e+07
938949
1.86001e+06
1.00043e+07
-3120.44
35342.4
9.90864e+06
-4689.15
652976
9.80603e+06
-7904.8
838188
9.6985e+06
-8038.2
979125
9.58522e+06
-7931.35
1.12938e+06
9.46385e+06
-8061.83
1.30093e+06
9.3313e+06
-8599.35
1.4969e+06
9.1845e+06
-9688.01
1.72133e+06
9.02319e+06
-11057.8
1.97826e+06
8.85438e+06
-11881.3
2.2721e+06
8.69701e+06
-10262.7
2.60802e+06
8.57787e+06
-4922.27
2.99132e+06
8.52264e+06
4352.31
3.42745e+06
8.54111e+06
14618.9
3.92311e+06
8.61811e+06
19132.1
4.48594e+06
8.75611e+06
20785.6
5.13277e+06
8.91994e+06
-752.626
5.84692e+06
9.20739e+06
-15039.4
6.639e+06
9.56453e+06
-65784.2
7.40462e+06
1.00262e+07
-109814
8.06897e+06
1.04451e+07
-162850
8.47244e+06
1.08903e+07
-163427
8.57567e+06
1.13742e+07
-128655
8.48785e+06
1.19466e+07
-58077.8
8.3479e+06
1.25411e+07
-12687.6
8.24041e+06
1.31286e+07
29152.6
8.27762e+06
1.36164e+07
87075.2
8.24006e+06
1.40422e+07
136099
8.01615e+06
1.44257e+07
174812
7.71129e+06
1.47577e+07
193494
7.23955e+06
1.51026e+07
184885
6.59556e+06
1.55158e+07
155695
5.92076e+06
1.59404e+07
123933
5.21857e+06
1.63011e+07
127250
4.54825e+06
1.65282e+07
186445
4.1517e+06
1.64491e+07
265520
3.97995e+06
1.58491e+07
353743
3.69291e+06
1.46323e+07
549881
3.29223e+06
1.28634e+07
1.06373e+06
3.36557e+06
1.00665e+07
1.54928e+06
4.07145e+06
6.03653e+06
1.45541e+06
4.80667e+06
2.13094e+06
721284
4.88877e+06
-2.13508e+06
739273
6.13417e+06
-8.92371e+06
768524
5.16447e+06
-1.61989e+07
182899
3.33904e+06
-1.88243e+07
-650610
6.18669e+06
-1.90829e+07
-2.81402e+06
6.95673e+06
-1.93988e+07
-3.83839e+06
5.68097e+06
-1.90273e+07
-2.22873e+06
4.58001e+06
-1.99909e+07
1.20255e+06
4.3314e+06
-2.58245e+07
2.41766e+06
5.45685e+06
-3.0059e+07
571605
1.58077e+06
-1.02014e+07
-2.61885e+06
-1.53957e+07
-349110
1.59334e+06
9.99971e+06
34855
9.91009e+06
653339
9.80962e+06
840674
9.70328e+06
982204
9.59069e+06
1.13263e+06
9.46958e+06
1.3043e+06
9.33702e+06
1.50041e+06
9.19036e+06
1.72506e+06
9.02999e+06
1.98221e+06
8.86402e+06
2.27635e+06
8.71088e+06
2.61237e+06
8.59634e+06
2.99577e+06
8.54237e+06
3.43206e+06
8.55588e+06
3.92873e+06
8.62842e+06
4.49594e+06
8.744e+06
5.14278e+06
8.90767e+06
5.87314e+06
9.12676e+06
6.6654e+06
9.38277e+06
7.45777e+06
9.60198e+06
8.14143e+06
9.73413e+06
8.57696e+06
9.85732e+06
8.70073e+06