/*--------------------------------*- C++ -*----------------------------------*\
| =========                 |                                                 |
| \\      /  F ield         | OpenFOAM: The Open Source CFD Toolbox           |
|  \\    /   O peration     | Version:  4.1                                   |
|   \\  /    A nd           | Web:      www.OpenFOAM.org                      |
|    \\/     M anipulation  |                                                 |
\*---------------------------------------------------------------------------*/
FoamFile
{
    version     2.0;
    format      ascii;
    class       volScalarField;
    location    "11";
    object      p;
}
// * * * * * * * * * * * * * * * * * * * * * * * * * * * * * * * * * * * * * //

dimensions      [0 2 -2 0 0 0 0];

internalField   nonuniform List<scalar> 
4432
(
6.29388e+07
6.76345e+09
2.20537e+10
5.69193e+10
1.01447e+10
-2.0435e+10
-8.88499e+09
-6.41868e+09
-8.44332e+09
-1.12169e+10
-1.3301e+10
-1.49467e+10
-1.60225e+10
-1.64259e+10
-1.62644e+10
-1.55609e+10
-1.42348e+10
-1.32726e+10
-1.28933e+10
-1.27783e+10
-1.27154e+10
-1.26413e+10
-1.25531e+10
-1.24553e+10
-1.235e+10
-1.22379e+10
-1.21194e+10
-1.19936e+10
-1.1859e+10
-1.17145e+10
-1.15589e+10
-1.13908e+10
-1.12118e+10
-1.10191e+10
-1.08078e+10
-1.05856e+10
-1.03597e+10
-1.01317e+10
-9.90645e+09
-9.68653e+09
-9.4746e+09
-9.26985e+09
-9.0591e+09
-8.8231e+09
-8.55613e+09
-8.26409e+09
-7.89182e+09
-7.42002e+09
-6.91777e+09
-6.4821e+09
-6.13068e+09
-5.86523e+09
-5.91509e+09
-5.29127e+09
-1.18818e+09
7.02964e+09
1.13837e+10
1.81991e+10
7.64324e+09
-1.97203e+10
-1.49563e+10
-1.09592e+10
-1.10581e+10
-1.2559e+10
-1.4062e+10
-1.53516e+10
-1.62549e+10
-1.66193e+10
-1.64331e+10
-1.55717e+10
-1.41617e+10
-1.32341e+10
-1.29036e+10
-1.27909e+10
-1.27224e+10
-1.26427e+10
-1.25528e+10
-1.24543e+10
-1.23484e+10
-1.22359e+10
-1.21169e+10
-1.19905e+10
-1.18554e+10
-1.17102e+10
-1.15537e+10
-1.1385e+10
-1.12047e+10
-1.10117e+10
-1.08033e+10
-1.05819e+10
-1.03523e+10
-1.01212e+10
-9.89448e+09
-9.67335e+09
-9.45951e+09
-9.2527e+09
-9.03988e+09
-8.80235e+09
-8.53171e+09
-8.2277e+09
-7.85612e+09
-7.3915e+09
-6.89687e+09
-6.47424e+09
-6.12102e+09
-5.92846e+09
-5.86264e+09
-4.53558e+09
-2.49649e+10
-2.3945e+10
-2.61908e+10
-4.44594e+10
-3.16452e+10
-3.97932e+10
-3.88103e+10
-2.66391e+10
-2.02033e+10
-1.77315e+10
-1.70924e+10
-1.71685e+10
-1.73077e+10
-1.71883e+10
-1.68034e+10
-1.62385e+10
-1.50451e+10
-1.37299e+10
-1.31064e+10
-1.28618e+10
-1.27606e+10
-1.26751e+10
-1.2583e+10
-1.24838e+10
-1.23783e+10
-1.22673e+10
-1.2151e+10
-1.20288e+10
-1.18989e+10
-1.17603e+10
-1.16117e+10
-1.14511e+10
-1.12814e+10
-1.1103e+10
-1.08984e+10
-1.06736e+10
-1.04498e+10
-1.02304e+10
-1.00154e+10
-9.80089e+09
-9.58628e+09
-9.37551e+09
-9.16666e+09
-8.93807e+09
-8.66785e+09
-8.41164e+09
-8.10189e+09
-7.59031e+09
-7.08705e+09
-6.68523e+09
-6.26105e+09
-5.89846e+09
-5.48059e+09
-3.44231e+09
-2.47752e+10
-2.4252e+10
-2.34643e+10
-2.86886e+10
-3.29529e+10
-4.12391e+10
-3.98062e+10
-2.70706e+10
-2.07447e+10
-1.8234e+10
-1.74291e+10
-1.73328e+10
-1.73786e+10
-1.72766e+10
-1.69709e+10
-1.63258e+10
-1.4939e+10
-1.36245e+10
-1.30835e+10
-1.28648e+10
-1.2765e+10
-1.26764e+10
-1.2583e+10
-1.24831e+10
-1.23772e+10
-1.22659e+10
-1.21492e+10
-1.20265e+10
-1.18962e+10
-1.17567e+10
-1.16068e+10
-1.1445e+10
-1.12727e+10
-1.10896e+10
-1.08886e+10
-1.06708e+10
-1.04423e+10
-1.02149e+10
-9.99985e+09
-9.78723e+09
-9.57221e+09
-9.35964e+09
-9.14569e+09
-8.91029e+09
-8.63549e+09
-8.34873e+09
-8.00335e+09
-7.5201e+09
-7.02127e+09
-6.58707e+09
-6.17504e+09
-5.86805e+09
-5.50865e+09
-3.41077e+09
-3.92874e+10
-3.84018e+10
-3.48639e+10
-5.64204e+10
-4.43532e+10
-4.39702e+10
-4.22107e+10
-3.49623e+10
-2.73865e+10
-2.23094e+10
-1.96038e+10
-1.85258e+10
-1.80041e+10
-1.75293e+10
-1.71322e+10
-1.66138e+10
-1.53707e+10
-1.40033e+10
-1.3315e+10
-1.30122e+10
-1.28595e+10
-1.27431e+10
-1.26342e+10
-1.25264e+10
-1.24172e+10
-1.23059e+10
-1.21917e+10
-1.20739e+10
-1.19504e+10
-1.1819e+10
-1.16796e+10
-1.15289e+10
-1.13665e+10
-1.12053e+10
-1.10041e+10
-1.07659e+10
-1.05714e+10
-1.0375e+10
-1.01725e+10
-9.95338e+09
-9.72862e+09
-9.5169e+09
-9.31583e+09
-9.09724e+09
-8.8503e+09
-8.58033e+09
-8.23971e+09
-7.81615e+09
-7.41249e+09
-7.0339e+09
-6.6295e+09
-6.20792e+09
-5.64931e+09
-3.59374e+09
-3.62348e+10
-3.814e+10
-3.56556e+10
-3.72876e+10
-4.47271e+10
-4.70391e+10
-4.36402e+10
-3.48346e+10
-2.77396e+10
-2.28689e+10
-2.00617e+10
-1.87453e+10
-1.81251e+10
-1.76963e+10
-1.72555e+10
-1.66251e+10
-1.52279e+10
-1.39044e+10
-1.32853e+10
-1.3008e+10
-1.28606e+10
-1.27437e+10
-1.26344e+10
-1.2526e+10
-1.24163e+10
-1.23045e+10
-1.21896e+10
-1.20708e+10
-1.19463e+10
-1.1814e+10
-1.16726e+10
-1.15191e+10
-1.13524e+10
-1.11784e+10
-1.09848e+10
-1.07809e+10
-1.05809e+10
-1.03804e+10
-1.01738e+10
-9.94861e+09
-9.71784e+09
-9.50418e+09
-9.30041e+09
-9.08013e+09
-8.82373e+09
-8.53912e+09
-8.20639e+09
-7.79402e+09
-7.37323e+09
-6.9979e+09
-6.61677e+09
-6.17136e+09
-5.53489e+09
-3.38965e+09
-4.06368e+10
-4.40216e+10
-4.28884e+10
-4.23356e+10
-4.66367e+10
-4.48907e+10
-4.24637e+10
-3.71209e+10
-3.06611e+10
-2.52265e+10
-2.14388e+10
-1.95344e+10
-1.859e+10
-1.79414e+10
-1.7404e+10
-1.66437e+10
-1.53763e+10
-1.41898e+10
-1.35244e+10
-1.31804e+10
-1.29772e+10
-1.28247e+10
-1.26943e+10
-1.25745e+10
-1.24599e+10
-1.23476e+10
-1.22346e+10
-1.21188e+10
-1.19964e+10
-1.18635e+10
-1.1726e+10
-1.15783e+10
-1.14001e+10
-1.13233e+10
-1.13055e+10
-1.09597e+10
-1.06501e+10
-1.04581e+10
-1.02599e+10
-1.00583e+10
-9.84567e+09
-9.64605e+09
-9.45967e+09
-9.24045e+09
-8.98829e+09
-8.72428e+09
-8.39961e+09
-8.02834e+09
-7.66381e+09
-7.30622e+09
-6.92729e+09
-6.54104e+09
-6.02795e+09
-4.06209e+09
-3.7174e+10
-3.83175e+10
-3.99133e+10
-4.25298e+10
-4.88643e+10
-4.71649e+10
-4.23793e+10
-3.61169e+10
-3.05096e+10
-2.54747e+10
-2.18171e+10
-1.98093e+10
-1.87478e+10
-1.80734e+10
-1.74745e+10
-1.66112e+10
-1.52699e+10
-1.41242e+10
-1.35044e+10
-1.31792e+10
-1.29802e+10
-1.2828e+10
-1.26972e+10
-1.25769e+10
-1.24616e+10
-1.23484e+10
-1.22349e+10
-1.21193e+10
-1.1999e+10
-1.18709e+10
-1.17333e+10
-1.15849e+10
-1.14278e+10
-1.12797e+10
-1.111e+10
-1.09171e+10
-1.06989e+10
-1.04604e+10
-1.02572e+10
-1.00557e+10
-9.84084e+09
-9.63796e+09
-9.45131e+09
-9.2386e+09
-8.97994e+09
-8.71202e+09
-8.39924e+09
-8.02988e+09
-7.65757e+09
-7.29918e+09
-6.90894e+09
-6.48085e+09
-5.91097e+09
-3.89219e+09
-3.94733e+10
-4.23978e+10
-4.3333e+10
-4.17569e+10
-4.56137e+10
-4.28463e+10
-4.03301e+10
-3.64206e+10
-3.17001e+10
-2.70478e+10
-2.29049e+10
-2.01989e+10
-1.89963e+10
-1.82223e+10
-1.75128e+10
-1.65377e+10
-1.53454e+10
-1.4341e+10
-1.37201e+10
-1.33476e+10
-1.31008e+10
-1.29149e+10
-1.2763e+10
-1.26299e+10
-1.25074e+10
-1.23901e+10
-1.22726e+10
-1.21542e+10
-1.20349e+10
-1.19017e+10
-1.17594e+10
-1.1614e+10
-1.14637e+10
-1.1351e+10
-1.12231e+10
-1.09806e+10
-1.07333e+10
-1.0531e+10
-1.03312e+10
-1.01318e+10
-9.93346e+09
-9.73331e+09
-9.52681e+09
-9.30218e+09
-9.05993e+09
-8.80844e+09
-8.52612e+09
-8.20373e+09
-7.86211e+09
-7.51584e+09
-7.16278e+09
-6.85712e+09
-6.43714e+09
-4.5032e+09
-3.74062e+10
-3.83081e+10
-4.04024e+10
-4.18981e+10
-4.61147e+10
-4.33612e+10
-3.98516e+10
-3.53615e+10
-3.1078e+10
-2.68031e+10
-2.29966e+10
-2.0503e+10
-1.9154e+10
-1.82742e+10
-1.74821e+10
-1.64737e+10
-1.52742e+10
-1.43044e+10
-1.37124e+10
-1.33522e+10
-1.31081e+10
-1.29222e+10
-1.27689e+10
-1.26344e+10
-1.25107e+10
-1.23929e+10
-1.22768e+10
-1.21595e+10
-1.2038e+10
-1.19109e+10
-1.17842e+10
-1.16485e+10
-1.14835e+10
-1.13177e+10
-1.11462e+10
-1.09481e+10
-1.07426e+10
-1.0536e+10
-1.03336e+10
-1.01304e+10
-9.93276e+09
-9.73486e+09
-9.52713e+09
-9.3054e+09
-9.06482e+09
-8.80757e+09
-8.52262e+09
-8.19774e+09
-7.85121e+09
-7.49836e+09
-7.13226e+09
-6.79648e+09
-6.34622e+09
-4.38041e+09
-3.92185e+10
-4.06815e+10
-4.11615e+10
-4.09708e+10
-4.25755e+10
-4.07525e+10
-3.83989e+10
-3.52612e+10
-3.15182e+10
-2.761e+10
-2.38224e+10
-2.08415e+10
-1.93146e+10
-1.84049e+10
-1.75028e+10
-1.64313e+10
-1.5363e+10
-1.45017e+10
-1.3917e+10
-1.35228e+10
-1.32395e+10
-1.3022e+10
-1.2844e+10
-1.26895e+10
-1.25496e+10
-1.24214e+10
-1.22958e+10
-1.21587e+10
-1.2021e+10
-1.18904e+10
-1.17631e+10
-1.16359e+10
-1.1498e+10
-1.13472e+10
-1.11562e+10
-1.09442e+10
-1.07507e+10
-1.05675e+10
-1.03785e+10
-1.01867e+10
-9.99182e+09
-9.7923e+09
-9.58548e+09
-9.36728e+09
-9.14007e+09
-8.8995e+09
-8.6305e+09
-8.32877e+09
-8.00536e+09
-7.67215e+09
-7.34645e+09
-7.12581e+09
-6.84032e+09
-4.93352e+09
-3.85369e+10
-3.87272e+10
-3.97071e+10
-4.0321e+10
-4.38659e+10
-4.22104e+10
-3.88486e+10
-3.50064e+10
-3.11074e+10
-2.72174e+10
-2.36246e+10
-2.09333e+10
-1.93752e+10
-1.83749e+10
-1.74266e+10
-1.63617e+10
-1.53115e+10
-1.44801e+10
-1.39172e+10
-1.35322e+10
-1.32512e+10
-1.30328e+10
-1.28537e+10
-1.26989e+10
-1.25591e+10
-1.24286e+10
-1.23008e+10
-1.21707e+10
-1.20395e+10
-1.1904e+10
-1.17689e+10
-1.16323e+10
-1.1474e+10
-1.13075e+10
-1.11337e+10
-1.09445e+10
-1.07592e+10
-1.05747e+10
-1.03832e+10
-1.01889e+10
-9.99591e+09
-9.79669e+09
-9.59012e+09
-9.37249e+09
-9.14275e+09
-8.89727e+09
-8.62703e+09
-8.32209e+09
-7.99179e+09
-7.65177e+09
-7.3194e+09
-7.0774e+09
-6.761e+09
-4.85557e+09
-3.84939e+10
-3.93442e+10
-3.89476e+10
-3.91806e+10
-3.91396e+10
-3.84965e+10
-3.69442e+10
-3.43792e+10
-3.11657e+10
-2.76569e+10
-2.39255e+10
-2.10904e+10
-1.95458e+10
-1.84944e+10
-1.74434e+10
-1.6388e+10
-1.54428e+10
-1.46852e+10
-1.41286e+10
-1.37185e+10
-1.34035e+10
-1.31514e+10
-1.294e+10
-1.27562e+10
-1.25924e+10
-1.24408e+10
-1.22905e+10
-1.21422e+10
-1.20014e+10
-1.18628e+10
-1.17238e+10
-1.15855e+10
-1.14476e+10
-1.12976e+10
-1.11197e+10
-1.09351e+10
-1.07565e+10
-1.05787e+10
-1.03998e+10
-1.02175e+10
-1.00285e+10
-9.83426e+09
-9.63622e+09
-9.43393e+09
-9.2208e+09
-8.98896e+09
-8.7316e+09
-8.44394e+09
-8.12736e+09
-7.78628e+09
-7.42735e+09
-7.20036e+09
-7.14569e+09
-6.19906e+09
-3.84568e+10
-3.82674e+10
-3.88514e+10
-3.84339e+10
-3.96426e+10
-3.96353e+10
-3.78563e+10
-3.46248e+10
-3.10329e+10
-2.7247e+10
-2.37303e+10
-2.11576e+10
-1.95834e+10
-1.84529e+10
-1.73844e+10
-1.63371e+10
-1.54089e+10
-1.46709e+10
-1.41279e+10
-1.37238e+10
-1.34111e+10
-1.31591e+10
-1.29486e+10
-1.27662e+10
-1.2601e+10
-1.24466e+10
-1.23e+10
-1.21571e+10
-1.20166e+10
-1.18747e+10
-1.17273e+10
-1.1578e+10
-1.14352e+10
-1.12862e+10
-1.11182e+10
-1.09422e+10
-1.0766e+10
-1.0586e+10
-1.0404e+10
-1.02207e+10
-1.00324e+10
-9.8377e+09
-9.63801e+09
-9.43318e+09
-9.21928e+09
-8.98567e+09
-8.72675e+09
-8.43803e+09
-8.1198e+09
-7.77796e+09
-7.42026e+09
-7.17544e+09
-7.03866e+09
-5.86956e+09
-3.74836e+10
-3.7621e+10
-3.69283e+10
-3.6323e+10
-3.52483e+10
-3.44029e+10
-3.38808e+10
-3.24155e+10
-3.00215e+10
-2.69555e+10
-2.35081e+10
-2.10412e+10
-1.9544e+10
-1.84012e+10
-1.73466e+10
-1.6378e+10
-1.55436e+10
-1.48639e+10
-1.43332e+10
-1.39149e+10
-1.35756e+10
-1.32901e+10
-1.30461e+10
-1.28332e+10
-1.26404e+10
-1.24633e+10
-1.22971e+10
-1.21395e+10
-1.19903e+10
-1.18346e+10
-1.16839e+10
-1.15585e+10
-1.14118e+10
-1.12481e+10
-1.10829e+10
-1.0926e+10
-1.0771e+10
-1.06059e+10
-1.0432e+10
-1.02521e+10
-1.00678e+10
-9.88208e+09
-9.69352e+09
-9.4968e+09
-9.28693e+09
-9.05877e+09
-8.80477e+09
-8.51793e+09
-8.19437e+09
-7.83331e+09
-7.44213e+09
-7.07786e+09
-6.60942e+09
-4.79834e+09
-3.74052e+10
-3.6855e+10
-3.67232e+10
-3.54432e+10
-3.43621e+10
-3.43593e+10
-3.44044e+10
-3.25733e+10
-2.97251e+10
-2.64378e+10
-2.33546e+10
-2.11005e+10
-1.95788e+10
-1.8389e+10
-1.7318e+10
-1.63519e+10
-1.55262e+10
-1.48558e+10
-1.43301e+10
-1.39139e+10
-1.35751e+10
-1.32898e+10
-1.30443e+10
-1.28293e+10
-1.26345e+10
-1.24566e+10
-1.22929e+10
-1.21355e+10
-1.19885e+10
-1.18432e+10
-1.16873e+10
-1.1544e+10
-1.14033e+10
-1.12514e+10
-1.1092e+10
-1.09371e+10
-1.0781e+10
-1.06119e+10
-1.04343e+10
-1.0253e+10
-1.00672e+10
-9.88114e+09
-9.69249e+09
-9.49545e+09
-9.28533e+09
-9.05621e+09
-8.80123e+09
-8.51361e+09
-8.18967e+09
-7.82866e+09
-7.43595e+09
-7.0603e+09
-6.56555e+09
-4.7535e+09
-3.58933e+10
-3.5449e+10
-3.47272e+10
-3.33564e+10
-3.17445e+10
-3.00939e+10
-2.96602e+10
-2.91088e+10
-2.75417e+10
-2.49942e+10
-2.24096e+10
-2.05514e+10
-1.9236e+10
-1.8163e+10
-1.72107e+10
-1.63631e+10
-1.56302e+10
-1.5016e+10
-1.45116e+10
-1.40925e+10
-1.37353e+10
-1.34222e+10
-1.31446e+10
-1.28962e+10
-1.26731e+10
-1.24754e+10
-1.22962e+10
-1.21255e+10
-1.19699e+10
-1.18177e+10
-1.16533e+10
-1.15122e+10
-1.13782e+10
-1.12343e+10
-1.10918e+10
-1.09459e+10
-1.07915e+10
-1.06295e+10
-1.04629e+10
-1.02913e+10
-1.01137e+10
-9.93166e+09
-9.74534e+09
-9.55093e+09
-9.34269e+09
-9.11398e+09
-8.8561e+09
-8.55997e+09
-8.21842e+09
-7.82587e+09
-7.38154e+09
-6.90067e+09
-6.24527e+09
-4.27691e+09
-3.55777e+10
-3.49713e+10
-3.44283e+10
-3.28016e+10
-3.05021e+10
-2.95399e+10
-2.97499e+10
-2.88673e+10
-2.69063e+10
-2.4533e+10
-2.23293e+10
-2.06058e+10
-1.92697e+10
-1.81685e+10
-1.72019e+10
-1.63515e+10
-1.56203e+10
-1.50077e+10
-1.45031e+10
-1.40836e+10
-1.3726e+10
-1.34121e+10
-1.31323e+10
-1.2883e+10
-1.26599e+10
-1.24611e+10
-1.22797e+10
-1.21068e+10
-1.19561e+10
-1.18196e+10
-1.16568e+10
-1.15111e+10
-1.1374e+10
-1.12328e+10
-1.10974e+10
-1.09538e+10
-1.07975e+10
-1.06332e+10
-1.04641e+10
-1.02914e+10
-1.01141e+10
-9.93249e+09
-9.74566e+09
-9.55053e+09
-9.34186e+09
-9.1123e+09
-8.85327e+09
-8.556e+09
-8.214e+09
-7.8215e+09
-7.37527e+09
-6.88125e+09
-6.18858e+09
-4.06707e+09
-3.35703e+10
-3.32856e+10
-3.23108e+10
-3.09562e+10
-2.94536e+10
-2.70817e+10
-2.579e+10
-2.5321e+10
-2.42202e+10
-2.24868e+10
-2.10201e+10
-1.98057e+10
-1.87607e+10
-1.7852e+10
-1.70437e+10
-1.63195e+10
-1.56785e+10
-1.51232e+10
-1.46476e+10
-1.42359e+10
-1.38689e+10
-1.35339e+10
-1.32214e+10
-1.2935e+10
-1.26851e+10
-1.24683e+10
-1.22739e+10
-1.20921e+10
-1.19244e+10
-1.17741e+10
-1.16357e+10
-1.1506e+10
-1.13763e+10
-1.1242e+10
-1.11067e+10
-1.0965e+10
-1.08147e+10
-1.06591e+10
-1.04992e+10
-1.03337e+10
-1.01612e+10
-9.98299e+09
-9.79904e+09
-9.60625e+09
-9.39852e+09
-9.16793e+09
-8.90526e+09
-8.60076e+09
-8.24554e+09
-7.82947e+09
-7.34525e+09
-6.80715e+09
-6.10726e+09
-4.12032e+09
-3.34144e+10
-3.32537e+10
-3.26312e+10
-3.12733e+10
-2.89525e+10
-2.69244e+10
-2.54161e+10
-2.46521e+10
-2.36783e+10
-2.23757e+10
-2.1055e+10
-1.98501e+10
-1.87828e+10
-1.78602e+10
-1.70423e+10
-1.63145e+10
-1.56726e+10
-1.51153e+10
-1.46372e+10
-1.42233e+10
-1.38558e+10
-1.35201e+10
-1.32078e+10
-1.29233e+10
-1.26736e+10
-1.24555e+10
-1.22593e+10
-1.20771e+10
-1.192e+10
-1.17813e+10
-1.16355e+10
-1.14994e+10
-1.13702e+10
-1.12376e+10
-1.11084e+10
-1.0972e+10
-1.08226e+10
-1.06654e+10
-1.05035e+10
-1.03363e+10
-1.01634e+10
-9.9855e+09
-9.80191e+09
-9.60894e+09
-9.4005e+09
-9.16883e+09
-8.90467e+09
-8.59818e+09
-8.24201e+09
-7.82802e+09
-7.345e+09
-6.79681e+09
-6.05531e+09
-3.8448e+09
-3.07844e+10
-3.08759e+10
-2.99254e+10
-2.93986e+10
-2.78236e+10
-2.51673e+10
-2.32521e+10
-2.22227e+10
-2.14274e+10
-2.06685e+10
-1.98726e+10
-1.90465e+10
-1.82516e+10
-1.75227e+10
-1.68568e+10
-1.62454e+10
-1.56862e+10
-1.51843e+10
-1.47411e+10
-1.43449e+10
-1.39797e+10
-1.36311e+10
-1.32854e+10
-1.29595e+10
-1.26809e+10
-1.24463e+10
-1.22438e+10
-1.20612e+10
-1.18969e+10
-1.17603e+10
-1.16396e+10
-1.15159e+10
-1.13859e+10
-1.12549e+10
-1.11252e+10
-1.09904e+10
-1.08464e+10
-1.06962e+10
-1.05413e+10
-1.03801e+10
-1.0212e+10
-1.00375e+10
-9.85642e+09
-9.6663e+09
-9.46126e+09
-9.23267e+09
-8.97114e+09
-8.66595e+09
-8.30504e+09
-7.87796e+09
-7.38441e+09
-6.85706e+09
-6.18922e+09
-4.24954e+09
-3.08666e+10
-3.12966e+10
-3.08726e+10
-2.97519e+10
-2.76654e+10
-2.4711e+10
-2.25186e+10
-2.19381e+10
-2.14288e+10
-2.07016e+10
-1.98929e+10
-1.90666e+10
-1.82649e+10
-1.75293e+10
-1.68582e+10
-1.62443e+10
-1.56848e+10
-1.51814e+10
-1.47348e+10
-1.43353e+10
-1.39689e+10
-1.36198e+10
-1.32747e+10
-1.29506e+10
-1.2673e+10
-1.24395e+10
-1.22368e+10
-1.20559e+10
-1.18983e+10
-1.17626e+10
-1.16357e+10
-1.15082e+10
-1.13808e+10
-1.12531e+10
-1.11274e+10
-1.09958e+10
-1.08527e+10
-1.07016e+10
-1.05454e+10
-1.03834e+10
-1.02153e+10
-1.00413e+10
-9.86095e+09
-9.67095e+09
-9.46475e+09
-9.23491e+09
-8.97308e+09
-8.66837e+09
-8.30927e+09
-7.88497e+09
-7.39404e+09
-6.88449e+09
-6.26357e+09
-4.4968e+09
-2.77249e+10
-2.81065e+10
-2.78046e+10
-2.73451e+10
-2.54871e+10
-2.33105e+10
-2.1715e+10
-2.07176e+10
-2.00753e+10
-1.95247e+10
-1.89608e+10
-1.838e+10
-1.77878e+10
-1.7211e+10
-1.66654e+10
-1.61493e+10
-1.56635e+10
-1.52119e+10
-1.48025e+10
-1.44299e+10
-1.40801e+10
-1.37318e+10
-1.3358e+10
-1.29799e+10
-1.26658e+10
-1.24217e+10
-1.22268e+10
-1.20571e+10
-1.19011e+10
-1.17681e+10
-1.16511e+10
-1.15321e+10
-1.14065e+10
-1.12787e+10
-1.11502e+10
-1.10181e+10
-1.08794e+10
-1.07347e+10
-1.05846e+10
-1.04278e+10
-1.02639e+10
-1.0093e+10
-9.91489e+09
-9.72757e+09
-9.52572e+09
-9.30017e+09
-9.04042e+09
-8.73448e+09
-8.3706e+09
-7.94145e+09
-7.45079e+09
-6.94397e+09
-6.31841e+09
-4.47242e+09
-2.79149e+10
-2.87166e+10
-2.84286e+10
-2.71266e+10
-2.48819e+10
-2.25904e+10
-2.13692e+10
-2.07204e+10
-2.01484e+10
-1.95742e+10
-1.8985e+10
-1.83915e+10
-1.7795e+10
-1.72152e+10
-1.6667e+10
-1.61498e+10
-1.56651e+10
-1.52145e+10
-1.48029e+10
-1.44269e+10
-1.40749e+10
-1.37251e+10
-1.33486e+10
-1.29672e+10
-1.26549e+10
-1.24139e+10
-1.22204e+10
-1.20535e+10
-1.19041e+10
-1.17706e+10
-1.16478e+10
-1.15266e+10
-1.14023e+10
-1.12765e+10
-1.11502e+10
-1.10201e+10
-1.08822e+10
-1.07373e+10
-1.05867e+10
-1.04295e+10
-1.02655e+10
-1.00949e+10
-9.91759e+09
-9.73061e+09
-9.52723e+09
-9.30031e+09
-9.04073e+09
-8.73533e+09
-8.37272e+09
-7.94614e+09
-7.45869e+09
-6.97567e+09
-6.42134e+09
-4.82164e+09
-2.45442e+10
-2.49735e+10
-2.52267e+10
-2.44106e+10
-2.27788e+10
-2.14628e+10
-2.05578e+10
-1.98773e+10
-1.93218e+10
-1.88341e+10
-1.83597e+10
-1.78872e+10
-1.74115e+10
-1.69391e+10
-1.64823e+10
-1.60397e+10
-1.56142e+10
-1.52103e+10
-1.48363e+10
-1.44964e+10
-1.41785e+10
-1.3855e+10
-1.34718e+10
-1.3002e+10
-1.26317e+10
-1.23832e+10
-1.22101e+10
-1.20622e+10
-1.19206e+10
-1.17886e+10
-1.16691e+10
-1.1552e+10
-1.14311e+10
-1.13062e+10
-1.11791e+10
-1.10499e+10
-1.09161e+10
-1.07765e+10
-1.0631e+10
-1.04781e+10
-1.03171e+10
-1.0148e+10
-9.97096e+09
-9.78527e+09
-9.58618e+09
-9.36364e+09
-9.10516e+09
-8.79837e+09
-8.43415e+09
-8.00694e+09
-7.5194e+09
-7.00608e+09
-6.35e+09
-4.38344e+09
-2.45668e+10
-2.53288e+10
-2.49907e+10
-2.37884e+10
-2.21892e+10
-2.11079e+10
-2.04332e+10
-1.9859e+10
-1.93411e+10
-1.88491e+10
-1.83659e+10
-1.78869e+10
-1.74095e+10
-1.69375e+10
-1.64813e+10
-1.60407e+10
-1.56193e+10
-1.52188e+10
-1.48432e+10
-1.44975e+10
-1.41746e+10
-1.38496e+10
-1.34658e+10
-1.29923e+10
-1.26206e+10
-1.23773e+10
-1.22068e+10
-1.20614e+10
-1.19241e+10
-1.17906e+10
-1.1666e+10
-1.15471e+10
-1.14265e+10
-1.13019e+10
-1.11754e+10
-1.10479e+10
-1.09154e+10
-1.07761e+10
-1.06303e+10
-1.04773e+10
-1.03163e+10
-1.01472e+10
-9.97112e+09
-9.78556e+09
-9.58403e+09
-9.35892e+09
-9.09918e+09
-8.79142e+09
-8.42712e+09
-8.00183e+09
-7.51703e+09
-7.01123e+09
-6.37664e+09
-4.52036e+09
-2.15213e+10
-2.18292e+10
-2.21881e+10
-2.14877e+10
-2.06932e+10
-2.01181e+10
-1.9646e+10
-1.91874e+10
-1.87502e+10
-1.83302e+10
-1.79182e+10
-1.75148e+10
-1.71138e+10
-1.67133e+10
-1.63238e+10
-1.59425e+10
-1.55694e+10
-1.52078e+10
-1.48606e+10
-1.4546e+10
-1.42722e+10
-1.40168e+10
-1.37125e+10
-1.31896e+10
-1.26272e+10
-1.22977e+10
-1.2192e+10
-1.20687e+10
-1.19393e+10
-1.18092e+10
-1.16902e+10
-1.15741e+10
-1.14562e+10
-1.13347e+10
-1.12111e+10
-1.10853e+10
-1.09553e+10
-1.08194e+10
-1.06767e+10
-1.05255e+10
-1.03653e+10
-1.01971e+10
-1.00224e+10
-9.84039e+09
-9.64447e+09
-9.42383e+09
-9.16682e+09
-8.86124e+09
-8.49965e+09
-8.0793e+09
-7.603e+09
-7.11908e+09
-6.50626e+09
-4.59567e+09
-2.13304e+10
-2.19088e+10
-2.17373e+10
-2.10354e+10
-2.03844e+10
-1.99811e+10
-1.95915e+10
-1.91747e+10
-1.87531e+10
-1.83341e+10
-1.79206e+10
-1.7514e+10
-1.7111e+10
-1.67099e+10
-1.63193e+10
-1.59375e+10
-1.55669e+10
-1.52126e+10
-1.48734e+10
-1.45596e+10
-1.42816e+10
-1.40168e+10
-1.37069e+10
-1.31947e+10
-1.26171e+10
-1.22917e+10
-1.21908e+10
-1.20691e+10
-1.19431e+10
-1.1811e+10
-1.16888e+10
-1.15707e+10
-1.14513e+10
-1.13287e+10
-1.1206e+10
-1.10829e+10
-1.09546e+10
-1.0819e+10
-1.06759e+10
-1.05241e+10
-1.03633e+10
-1.01948e+10
-1.00204e+10
-9.83725e+09
-9.63773e+09
-9.41332e+09
-9.15335e+09
-8.8461e+09
-8.48377e+09
-8.06384e+09
-7.58729e+09
-7.08161e+09
-6.41622e+09
-4.36908e+09
-1.94937e+10
-1.96921e+10
-1.98811e+10
-1.96128e+10
-1.93898e+10
-1.91936e+10
-1.8939e+10
-1.86284e+10
-1.82868e+10
-1.79302e+10
-1.75692e+10
-1.72126e+10
-1.68619e+10
-1.65147e+10
-1.61759e+10
-1.5842e+10
-1.55098e+10
-1.51873e+10
-1.4874e+10
-1.45784e+10
-1.43339e+10
-1.41403e+10
-1.39794e+10
-1.36518e+10
-1.2555e+10
-1.22065e+10
-1.21664e+10
-1.20803e+10
-1.19571e+10
-1.18311e+10
-1.17134e+10
-1.15969e+10
-1.14802e+10
-1.13629e+10
-1.1244e+10
-1.11214e+10
-1.09929e+10
-1.08578e+10
-1.07153e+10
-1.05641e+10
-1.04051e+10
-1.02398e+10
-1.00691e+10
-9.88948e+09
-9.69438e+09
-9.47579e+09
-9.22133e+09
-8.91742e+09
-8.55856e+09
-8.1456e+09
-7.68381e+09
-7.25822e+09
-6.78385e+09
-5.14532e+09
-1.94673e+10
-1.96499e+10
-1.96616e+10
-1.94476e+10
-1.92905e+10
-1.91491e+10
-1.89149e+10
-1.86179e+10
-1.8285e+10
-1.7933e+10
-1.75739e+10
-1.72165e+10
-1.68633e+10
-1.65134e+10
-1.61716e+10
-1.58348e+10
-1.55016e+10
-1.51829e+10
-1.48777e+10
-1.45901e+10
-1.43481e+10
-1.41455e+10
-1.3959e+10
-1.36592e+10
-1.25227e+10
-1.21948e+10
-1.21673e+10
-1.20835e+10
-1.19605e+10
-1.18331e+10
-1.1714e+10
-1.15952e+10
-1.14768e+10
-1.13601e+10
-1.12433e+10
-1.11218e+10
-1.09931e+10
-1.08573e+10
-1.07139e+10
-1.05621e+10
-1.04026e+10
-1.02373e+10
-1.0067e+10
-9.88679e+09
-9.68932e+09
-9.46566e+09
-9.20587e+09
-8.90023e+09
-8.54136e+09
-8.12902e+09
-7.66701e+09
-7.19532e+09
-6.57474e+09
-4.55555e+09
-1.88409e+10
-1.87874e+10
-1.87411e+10
-1.86924e+10
-1.86495e+10
-1.8556e+10
-1.83878e+10
-1.8169e+10
-1.79049e+10
-1.76051e+10
-1.7287e+10
-1.69678e+10
-1.66536e+10
-1.63455e+10
-1.60455e+10
-1.5746e+10
-1.54429e+10
-1.5147e+10
-1.48596e+10
-1.45782e+10
-1.43324e+10
-1.41467e+10
-1.40277e+10
-1.39632e+10
-1.22013e+10
-1.22042e+10
-1.21145e+10
-1.19858e+10
-1.1859e+10
-1.17384e+10
-1.162e+10
-1.15047e+10
-1.13905e+10
-1.12736e+10
-1.11515e+10
-1.1023e+10
-1.08873e+10
-1.07438e+10
-1.05928e+10
-1.04359e+10
-1.0274e+10
-1.0105e+10
-9.92413e+09
-9.72783e+09
-9.51131e+09
-9.25807e+09
-8.9534e+09
-8.59453e+09
-8.18341e+09
-7.72856e+09
-7.32651e+09
-6.90016e+09
-5.33324e+09
-1.89977e+10
-1.87276e+10
-1.86897e+10
-1.86481e+10
-1.86214e+10
-1.85428e+10
-1.83809e+10
-1.8164e+10
-1.79011e+10
-1.76066e+10
-1.72938e+10
-1.69755e+10
-1.66576e+10
-1.63416e+10
-1.60327e+10
-1.57294e+10
-1.54268e+10
-1.51344e+10
-1.48546e+10
-1.4585e+10
-1.4349e+10
-1.41562e+10
-1.40295e+10
-1.39924e+10
-1.22012e+10
-1.21983e+10
-1.21139e+10
-1.19851e+10
-1.18596e+10
-1.17411e+10
-1.1623e+10
-1.1508e+10
-1.13931e+10
-1.12749e+10
-1.11518e+10
-1.10222e+10
-1.08855e+10
-1.07414e+10
-1.05904e+10
-1.04341e+10
-1.02732e+10
-1.01051e+10
-9.92394e+09
-9.72636e+09
-9.50473e+09
-9.24577e+09
-8.93976e+09
-8.58e+09
-8.16899e+09
-7.71425e+09
-7.26256e+09
-6.67805e+09
-4.74007e+09
-1.8507e+10
-1.82756e+10
-1.81991e+10
-1.81796e+10
-1.81451e+10
-1.80677e+10
-1.79424e+10
-1.77745e+10
-1.75664e+10
-1.73236e+10
-1.70559e+10
-1.67765e+10
-1.64924e+10
-1.62074e+10
-1.59284e+10
-1.56551e+10
-1.53788e+10
-1.51007e+10
-1.48242e+10
-1.45468e+10
-1.42919e+10
-1.41001e+10
-1.39238e+10
-1.37437e+10
-1.31511e+10
-1.25288e+10
-1.23296e+10
-1.21743e+10
-1.20276e+10
-1.18916e+10
-1.17657e+10
-1.16457e+10
-1.15301e+10
-1.14157e+10
-1.12982e+10
-1.11751e+10
-1.10453e+10
-1.09083e+10
-1.07643e+10
-1.06146e+10
-1.04604e+10
-1.03005e+10
-1.01306e+10
-9.94699e+09
-9.7499e+09
-9.53473e+09
-9.28059e+09
-8.97145e+09
-8.60563e+09
-8.18635e+09
-7.72217e+09
-7.29147e+09
-6.81413e+09
-5.23235e+09
-1.85231e+10
-1.82364e+10
-1.81803e+10
-1.81636e+10
-1.81364e+10
-1.8065e+10
-1.79441e+10
-1.77769e+10
-1.75664e+10
-1.73225e+10
-1.70558e+10
-1.67773e+10
-1.64939e+10
-1.62077e+10
-1.59225e+10
-1.56407e+10
-1.53579e+10
-1.50802e+10
-1.48149e+10
-1.45542e+10
-1.43125e+10
-1.41198e+10
-1.39318e+10
-1.37244e+10
-1.31339e+10
-1.25199e+10
-1.23211e+10
-1.21717e+10
-1.20245e+10
-1.18916e+10
-1.17717e+10
-1.16522e+10
-1.15341e+10
-1.14172e+10
-1.12979e+10
-1.11736e+10
-1.10428e+10
-1.09052e+10
-1.07612e+10
-1.06124e+10
-1.04594e+10
-1.03004e+10
-1.01303e+10
-9.94585e+09
-9.74743e+09
-9.52836e+09
-9.27038e+09
-8.96088e+09
-8.59382e+09
-8.17332e+09
-7.70886e+09
-7.2386e+09
-6.63402e+09
-4.74616e+09
-1.79603e+10
-1.78087e+10
-1.77745e+10
-1.77564e+10
-1.77226e+10
-1.76618e+10
-1.7566e+10
-1.74304e+10
-1.7259e+10
-1.70572e+10
-1.6831e+10
-1.65884e+10
-1.63375e+10
-1.60828e+10
-1.58285e+10
-1.55762e+10
-1.53176e+10
-1.50497e+10
-1.47784e+10
-1.4508e+10
-1.42484e+10
-1.40161e+10
-1.37785e+10
-1.34292e+10
-1.30341e+10
-1.26838e+10
-1.24404e+10
-1.22432e+10
-1.20746e+10
-1.1928e+10
-1.17968e+10
-1.16738e+10
-1.15556e+10
-1.14386e+10
-1.13188e+10
-1.11936e+10
-1.10619e+10
-1.0924e+10
-1.07807e+10
-1.06334e+10
-1.04817e+10
-1.03224e+10
-1.01508e+10
-9.9645e+09
-9.76582e+09
-9.55104e+09
-9.2959e+09
-8.98104e+09
-8.60379e+09
-8.16809e+09
-7.68269e+09
-7.20166e+09
-6.63571e+09
-4.97107e+09
-1.79206e+10
-1.77986e+10
-1.77655e+10
-1.775e+10
-1.77184e+10
-1.76597e+10
-1.75674e+10
-1.74346e+10
-1.72632e+10
-1.70598e+10
-1.68324e+10
-1.65895e+10
-1.63384e+10
-1.6083e+10
-1.58243e+10
-1.55625e+10
-1.52969e+10
-1.50308e+10
-1.47713e+10
-1.45171e+10
-1.42695e+10
-1.40394e+10
-1.37894e+10
-1.34332e+10
-1.30312e+10
-1.26773e+10
-1.24394e+10
-1.22475e+10
-1.20767e+10
-1.1929e+10
-1.18007e+10
-1.16769e+10
-1.15559e+10
-1.1437e+10
-1.13159e+10
-1.11898e+10
-1.10575e+10
-1.09195e+10
-1.0777e+10
-1.06309e+10
-1.04798e+10
-1.03203e+10
-1.01483e+10
-9.96158e+09
-9.76137e+09
-9.54377e+09
-9.28654e+09
-8.97221e+09
-8.5939e+09
-8.15503e+09
-7.66772e+09
-7.15473e+09
-6.49394e+09
-4.5773e+09
-1.74462e+10
-1.73864e+10
-1.73717e+10
-1.73668e+10
-1.7352e+10
-1.73116e+10
-1.72386e+10
-1.71305e+10
-1.69879e+10
-1.68157e+10
-1.66199e+10
-1.64057e+10
-1.618e+10
-1.59506e+10
-1.572e+10
-1.54848e+10
-1.524e+10
-1.49837e+10
-1.47215e+10
-1.44605e+10
-1.42033e+10
-1.39488e+10
-1.36801e+10
-1.33707e+10
-1.30482e+10
-1.27557e+10
-1.25124e+10
-1.23023e+10
-1.2122e+10
-1.19674e+10
-1.18294e+10
-1.17015e+10
-1.15795e+10
-1.14593e+10
-1.13367e+10
-1.1209e+10
-1.10759e+10
-1.09382e+10
-1.07971e+10
-1.06526e+10
-1.05027e+10
-1.03435e+10
-1.01702e+10
-9.98134e+09
-9.78005e+09
-9.56458e+09
-9.31038e+09
-8.99365e+09
-8.60581e+09
-8.15259e+09
-7.64245e+09
-7.11038e+09
-6.46255e+09
-4.70162e+09
-1.7452e+10
-1.73883e+10
-1.73713e+10
-1.73648e+10
-1.7349e+10
-1.73097e+10
-1.72395e+10
-1.71345e+10
-1.69932e+10
-1.68204e+10
-1.66238e+10
-1.64095e+10
-1.61841e+10
-1.59537e+10
-1.57191e+10
-1.54764e+10
-1.52253e+10
-1.49705e+10
-1.47162e+10
-1.44644e+10
-1.42134e+10
-1.39588e+10
-1.36863e+10
-1.33731e+10
-1.30485e+10
-1.27579e+10
-1.25222e+10
-1.23158e+10
-1.21292e+10
-1.19692e+10
-1.18296e+10
-1.16999e+10
-1.15762e+10
-1.14548e+10
-1.13314e+10
-1.12032e+10
-1.107e+10
-1.09328e+10
-1.07926e+10
-1.06489e+10
-1.04986e+10
-1.03382e+10
-1.01644e+10
-9.97549e+09
-9.77334e+09
-9.55616e+09
-9.30137e+09
-8.9856e+09
-8.59454e+09
-8.13597e+09
-7.62228e+09
-7.06073e+09
-6.33732e+09
-4.3321e+09
-1.70968e+10
-1.70403e+10
-1.70382e+10
-1.70444e+10
-1.70397e+10
-1.70119e+10
-1.69559e+10
-1.68687e+10
-1.67493e+10
-1.66016e+10
-1.64312e+10
-1.62418e+10
-1.6038e+10
-1.58293e+10
-1.56197e+10
-1.5401e+10
-1.51684e+10
-1.49224e+10
-1.46677e+10
-1.44122e+10
-1.4158e+10
-1.39026e+10
-1.36352e+10
-1.33485e+10
-1.30604e+10
-1.27957e+10
-1.25611e+10
-1.23495e+10
-1.21644e+10
-1.20053e+10
-1.18617e+10
-1.17285e+10
-1.16028e+10
-1.14793e+10
-1.13537e+10
-1.1224e+10
-1.10903e+10
-1.09539e+10
-1.08155e+10
-1.06737e+10
-1.0525e+10
-1.0365e+10
-1.019e+10
-9.99925e+09
-9.79692e+09
-9.58404e+09
-9.33577e+09
-9.02139e+09
-8.62654e+09
-8.16221e+09
-7.63649e+09
-7.06947e+09
-6.36691e+09
-4.50078e+09
-1.70971e+10
-1.70424e+10
-1.70384e+10
-1.70426e+10
-1.70367e+10
-1.70093e+10
-1.6956e+10
-1.68726e+10
-1.67557e+10
-1.66081e+10
-1.64363e+10
-1.62454e+10
-1.60411e+10
-1.58304e+10
-1.56153e+10
-1.53902e+10
-1.51531e+10
-1.49094e+10
-1.46634e+10
-1.44155e+10
-1.41636e+10
-1.39056e+10
-1.36332e+10
-1.33444e+10
-1.30573e+10
-1.27985e+10
-1.25739e+10
-1.2366e+10
-1.21736e+10
-1.20077e+10
-1.18604e+10
-1.17245e+10
-1.15972e+10
-1.1473e+10
-1.13471e+10
-1.12173e+10
-1.10839e+10
-1.09483e+10
-1.08105e+10
-1.06686e+10
-1.05189e+10
-1.03574e+10
-1.01817e+10
-9.99071e+09
-9.78749e+09
-9.57284e+09
-9.32476e+09
-9.012e+09
-8.61079e+09
-8.13873e+09
-7.60781e+09
-7.00779e+09
-6.23072e+09
-4.11179e+09
-1.68174e+10
-1.67725e+10
-1.67722e+10
-1.67782e+10
-1.67772e+10
-1.6758e+10
-1.67149e+10
-1.66443e+10
-1.65443e+10
-1.64168e+10
-1.62656e+10
-1.6094e+10
-1.59063e+10
-1.57111e+10
-1.55141e+10
-1.53107e+10
-1.50944e+10
-1.48633e+10
-1.46232e+10
-1.4379e+10
-1.41289e+10
-1.38719e+10
-1.36076e+10
-1.33376e+10
-1.30719e+10
-1.28241e+10
-1.25984e+10
-1.23903e+10
-1.22029e+10
-1.20395e+10
-1.18924e+10
-1.17553e+10
-1.16258e+10
-1.14989e+10
-1.13704e+10
-1.1239e+10
-1.11052e+10
-1.09703e+10
-1.08343e+10
-1.06956e+10
-1.05492e+10
-1.03891e+10
-1.02133e+10
-1.00226e+10
-9.82253e+09
-9.61498e+09
-9.37554e+09
-9.06809e+09
-8.66973e+09
-8.20138e+09
-7.67935e+09
-7.11923e+09
-6.42681e+09
-4.57455e+09
-1.68182e+10
-1.67737e+10
-1.67722e+10
-1.6777e+10
-1.67747e+10
-1.67551e+10
-1.67134e+10
-1.66457e+10
-1.65482e+10
-1.64217e+10
-1.62707e+10
-1.60994e+10
-1.5912e+10
-1.57155e+10
-1.55133e+10
-1.53032e+10
-1.50825e+10
-1.48515e+10
-1.46142e+10
-1.43734e+10
-1.41267e+10
-1.38702e+10
-1.36049e+10
-1.33334e+10
-1.30684e+10
-1.28268e+10
-1.26104e+10
-1.24059e+10
-1.22126e+10
-1.20427e+10
-1.18913e+10
-1.17507e+10
-1.16194e+10
-1.14921e+10
-1.13637e+10
-1.12329e+10
-1.11e+10
-1.09659e+10
-1.08298e+10
-1.06892e+10
-1.05403e+10
-1.03786e+10
-1.02013e+10
-1.00089e+10
-9.80653e+09
-9.59781e+09
-9.3568e+09
-9.04989e+09
-8.64844e+09
-8.1753e+09
-7.64431e+09