/*--------------------------------*- C++ -*----------------------------------*\
| =========                 |                                                 |
| \\      /  F ield         | OpenFOAM: The Open Source CFD Toolbox           |
|  \\    /   O peration     | Version:  4.1                                   |
|   \\  /    A nd           | Web:      www.OpenFOAM.org                      |
|    \\/     M anipulation  |                                                 |
\*---------------------------------------------------------------------------*/
FoamFile
{
    version     2.0;
    format      ascii;
    class       volVectorField;
    location    "11";
    object      U;
}
// * * * * * * * * * * * * * * * * * * * * * * * * * * * * * * * * * * * * * //

dimensions      [0 1 -1 0 0 0 0];

internalField   nonuniform List<vector> 
4432
(
(-236854 -8759.51 2111.19)
(-168703 -31641.6 -77161.4)
(-6127.88 -20670 21943.9)
(-14627.2 -39894.8 55514)
(-49676.8 7426.29 -86885.4)
(130111 5207.81 -94454.7)
(61585.6 -33845.6 -184356)
(86388.7 -15833.2 -102836)
(77803.2 3562.18 -72590.3)
(71147.4 7290.32 -56344.2)
(41917.7 1178.73 -50827.3)
(20442.3 -3865.45 -43724.8)
(16964.5 -5378.52 -45728.9)
(20667.8 -4724.47 -52817.8)
(22634 -4292.7 -58743.7)
(22448.5 -8264.67 -75115.4)
(25792 -8322.47 -49724.7)
(-4028.19 -6106.42 -18125.7)
(-33783.4 -2422.37 -15636.7)
(-68618.3 2846.7 1903.12)
(-62443.8 1288.15 1422.2)
(-64515.1 161.242 211.914)
(-67245 -67.4637 -154.222)
(-69433 -126.846 -447.69)
(-71456 -147.499 -730.171)
(-73496.8 -158.483 -982.215)
(-75613.4 -174.707 -1202.45)
(-77826.6 -191.34 -1411.08)
(-80105.6 -212.01 -1659.36)
(-82373.7 -251.706 -1943.94)
(-84498.3 -292.639 -2261.58)
(-86348.5 -320.237 -2694.42)
(-88244.4 -386.768 -2909.41)
(-89793.1 -257.14 -3282.28)
(-90927.2 69.9728 -4318.75)
(-91059.7 -7.93672 -5161.29)
(-90264.1 -409.024 -5435.73)
(-89482.5 -567.777 -5708.64)
(-88593.6 -544.635 -6297.7)
(-87169 -573.463 -7031.22)
(-85421.8 -672.814 -7389.09)
(-84381.2 -834.711 -7210.16)
(-84805.5 -1079.79 -6782.01)
(-85693.7 -1359.42 -6778.76)
(-88420.3 -1968.52 -4153.47)
(-96441.4 -3073.58 3971.3)
(-100714 -2163.09 1924.42)
(-110003 -3161.12 -1606.9)
(-106390 -5177.63 922.358)
(-104267 -3324.27 923.336)
(-107972 1633.78 1614.63)
(-144592 5587.54 9942.12)
(-218673 11402.8 38702.4)
(-264431 6088.54 28525.1)
(-198146 36133.4 -6326.64)
(-146458 68325.8 -155035)
(25777.4 73394.5 -43852.7)
(148821 72869.2 174586)
(10098.2 54802.1 13384.8)
(157747 51074.8 45035)
(189535 40016.6 -5876.49)
(47603.6 32165 66046.2)
(81586.9 44411.1 36667.4)
(82286.9 39955.1 39960.2)
(59931.9 26075.9 25886.3)
(32301.1 14504.7 4371.76)
(18614.5 10417.7 -14189.5)
(17584.8 9423.1 -26701.6)
(11193.5 8180.51 -36189.5)
(15154.9 3390.94 -49906.6)
(17184.5 580.244 -33104.4)
(-32658.9 -1275.87 -13526.2)
(-65334.8 1188.48 -18572.3)
(-76949.1 3083.86 4972.96)
(-63357.3 1348.03 743.751)
(-65400.4 461.709 93.6396)
(-67572.8 309.036 -277.779)
(-69546.3 299.107 -630.196)
(-71353.3 323.041 -945.446)
(-73099.7 357.339 -1209.3)
(-74886.8 387.03 -1434.85)
(-76774.7 418.563 -1639.94)
(-78763.7 450.345 -1861.91)
(-80817.4 467.649 -2133.56)
(-82847 488.616 -2459.31)
(-84674 530.106 -2873.52)
(-86430.8 537.517 -3230.42)
(-87862.6 751.671 -3643.39)
(-88586.5 1199.14 -4298.8)
(-88532.6 1216.43 -5129.84)
(-88558.2 891.815 -5860.5)
(-88917.8 838.577 -6098.65)
(-89083.2 986.733 -6273.67)
(-88809 1082.45 -6863.82)
(-88532.9 1104.6 -7177.11)
(-89427 1051.03 -6777.61)
(-92686.5 900.05 -5937.65)
(-97530.8 684.601 -5112.38)
(-105551 85.4975 -2284.67)
(-120185 -1125.31 4755.96)
(-145970 -528.311 9319.31)
(-163625 -2320.8 10534.9)
(-201415 -9486.06 22015.8)
(-286357 -6796.07 31906.6)
(-288798 7005.08 28817.2)
(-385598 20880.6 43560.9)
(-372509 25530.6 36611.6)
(-293813 7973.7 -4659.83)
(-229264 -33661 -69595.4)
(-114988 -18653.3 -161885)
(-37202.3 -24106.9 -139676)
(11555.7 -26863.8 -20168.5)
(-87591.6 8413.85 -159578)
(179932 5216.3 -26440.5)
(-141032 -12777.5 71605.8)
(52859.3 -39171.7 -33277)
(-8582.43 -21675.5 -82942.3)
(-14202.8 -17229.1 -51518.6)
(-34488.2 -14643.6 -15136.4)
(-66899.1 -11957 18384.6)
(-76752.8 -10268.9 20774.4)
(-79292.8 -7534.34 14746)
(-91101.5 -1977.53 24228.4)
(-185723 -845.013 65856.7)
(-53259.4 -11121.8 20437.5)
(-87874.7 -11371 28924.2)
(-75606.8 -3912.47 16171)
(-76469.4 250.002 15671.7)
(-77567.1 398.797 10715)
(-82782.4 57.8481 7330.13)
(-87328 -30.8 5702.16)
(-90716.7 -26.8359 4824.74)
(-93605.6 11.3007 4331.16)
(-96372.8 54.711 4068.25)
(-99153.3 90.0899 3948.32)
(-101975 122.216 3906.45)
(-104798 148.562 3819.57)
(-107583 131.938 3695.79)
(-110310 91.7502 3515.51)
(-112699 90.6579 2968.28)
(-115340 -57.3112 2994.21)
(-117874 46.7057 1953.29)
(-120291 621.439 -1103.56)
(-121836 699.772 -1068.12)
(-122356 166.159 752.755)
(-122418 43.827 479.879)
(-122147 289.151 -826.952)
(-121760 361.202 -2300.9)
(-121327 317.55 -2422.49)
(-121561 230.595 -849.012)
(-121838 115.824 511.115)
(-119557 78.7225 1296.99)
(-121234 -572.05 2445.46)
(-116320 -1414.89 3017.13)
(-98534.5 -330.175 2894.75)
(-104547 969.613 7539.93)
(-112038 -967.195 7746.13)
(-104059 -3133.43 4683.59)
(-100143 -1435.89 4464.73)
(-101463 -234.72 3178.86)
(-101310 -2052.93 14124.1)
(-30100.5 -1264.86 2642)
(-262819 45372.2 21128.9)
(-118714 29613.1 -98285.5)
(-141330 7176.52 -9404.62)
(6727.88 53791.1 10791.2)
(-51822.1 13606.9 8043.78)
(118276 11820.4 -52869.1)
(-35065.6 5855.68 87954.5)
(12532.1 2766.8 18817.9)
(-32291.8 20414.5 17701.8)
(-36504 19465.1 22558.2)
(-39413.6 15667.8 22531.6)
(-44141.4 12467.5 24954)
(-52509.2 10311.3 24926.1)
(-61816.5 11424.4 27531.8)
(-77703.4 15819.4 32133.3)
(-67127.3 11980.7 18259)
(21672.7 2326.35 23448.4)
(-66424 -5396.28 23947.9)
(-78248.2 -2099.46 11755.9)
(-79248.1 682.005 15334.7)
(-78571.5 833.532 9279.08)
(-82988.3 607.264 6339.07)
(-86640.1 577.028 4753.82)
(-89510.8 615.294 3815.07)
(-91992.1 679.455 3264.51)
(-94347.4 745.55 2963.91)
(-96729 805.435 2818.69)
(-99174.2 872.527 2764.04)
(-101639 948.233 2707.53)
(-104102 994.172 2583.34)
(-106563 1026.92 2361.67)
(-108800 1104.43 1834.35)
(-111048 1033.39 1384.86)
(-113243 1176.11 1033.74)
(-114988 1879.78 728.488)
(-116356 2093.52 906.826)
(-118026 1670.4 1066.74)
(-118755 1676.18 563.219)
(-117686 2007.28 -1032.16)
(-116780 2138.73 -2717.03)
(-116288 2181.91 -2950.98)
(-116564 2219.88 -1459.42)
(-117431 2241.58 -311.976)
(-116331 2348.01 -99.2817)
(-117132 1943.37 645.893)
(-116173 1341.48 2768.77)
(-107913 2391.57 5502.84)
(-108832 3886.35 8363.13)
(-107186 2168.47 9157.43)
(-99507.5 -739.173 10306.2)
(-104280 441.844 12513.3)
(-105811 749.609 11364.9)
(-114474 -2864.67 19080.9)
(-73092.5 -1181.19 -2372.79)
(-214033 -64771.6 -140841)
(-122973 -47840.9 -370219)
(-142424 -27399.8 -255750)
(70481.5 -13352.2 -82590.3)
(-81869.3 -1821.91 -245527)
(118384 22245.9 6683.01)
(-248994 -21494.6 -59606.7)
(69176.5 -40048.2 -3274.73)
(-68080.4 -19051.1 52838.6)
(-77940 -11058.1 40873.9)
(-155722 -6139.99 72254.1)
(-158915 -6249.53 55151.9)
(-122978 -5606.92 16604.4)
(-122385 3733.51 -248.947)
(-229779 16588 -17638)
(-120034 -5717.66 5593.27)
(-54215.5 -10558.5 -10946.5)
(-83020.5 -7747.28 10666.2)
(-87542.2 -3291.61 20335)
(-86736.8 -677.502 24254.3)
(-84071.5 -144.247 17804.2)
(-85325.1 -59.2301 12643.1)
(-87206 38.4955 9634.47)
(-88893.3 129.256 7924.4)
(-90532.9 217.761 7006.83)
(-92222.5 287.925 6510.7)
(-93970.2 333.891 6189.19)
(-95757.5 361.495 5844.17)
(-97632.7 420.909 5279.87)
(-99837.7 461.672 4878.79)
(-102361 469.637 4921.02)
(-104390 518.832 3926.78)
(-107728 -75.561 5180.98)
(-109679 434.247 8651.76)
(-116040 2466.02 5192.28)
(-121169 1978.05 -2131.45)
(-116419 619.376 -4657.49)
(-114108 191.398 -4853.63)
(-111012 5.54202 -5586.11)
(-110097 -190.437 -5156.09)
(-110680 -251.24 -4300.8)
(-111047 -103.007 -3351.01)
(-111255 14.8959 -4062.86)
(-110495 -366.162 -4526.7)
(-107770 -1101.05 -3958.81)
(-101694 -770.658 -6179.25)
(-96633.9 -105.701 -3670.41)
(-93458.8 -831.127 6240.42)
(-86782.3 -1043.43 10559)
(-84099.8 8.38345 9997.73)
(-80278.9 -680.278 9017.82)
(-81788.6 -3316.14 10119.1)
(-91966.2 -5950.74 33641.5)
(-36227.1 -1902.32 22831.1)
(-189680 -8842 -85043.6)
(-182918 7825.26 -110537)
(-158697 -13622.1 -217727)
(-96640.1 2445.81 -219617)
(-111327 27336.7 -40677.2)
(55915.2 42076.7 108983)
(-90677.5 12527.4 46718.4)
(98411.8 2337.28 30940.5)
(-24268.7 20408.1 91700)
(-24486.7 22414.8 86572.9)
(-45866.8 18432.2 76658.2)
(-59393 10129.6 57713.7)
(-73564.9 7298.21 36026)
(-88246.2 15968.9 21195.5)
(-62768.2 13928.6 10011.3)
(-41642.8 4216.74 7692.3)
(-11886.5 -1255.96 13883.1)
(-63193.8 -3443.11 17024.9)
(-82813.5 -1639.43 19814.1)
(-85778.5 100.858 22791.1)
(-84836.8 535.936 16054.4)
(-87036.8 557.338 11670)
(-89472.8 562.835 9125.52)
(-91842.4 556.492 7731.36)
(-94209.7 556.015 7039.75)
(-96689.7 548.767 6761.63)
(-99334 525.639 6682.24)
(-102159 497.589 6666.71)
(-105051 524.148 6549.96)
(-107947 555.571 6202.09)
(-111130 570.675 5723.88)
(-114272 665.761 5084.94)
(-117813 261.35 5178.85)
(-121189 543.943 5482.67)
(-122796 2732.36 5075.61)
(-120857 3337.33 3140.89)
(-115345 2147.47 -1707.79)
(-109523 1523.27 -5412.71)
(-106200 1144.87 -4543.52)
(-105904 1058 -2393.03)
(-108230 1110.12 -954.59)
(-109075 1399.14 421.774)
(-109681 1657.63 310.741)
(-109711 1404.31 -892.606)
(-110118 774.893 -287.308)
(-109292 1187.82 268.251)
(-103358 1983.88 3788.2)
(-98481.5 1361.68 10524.4)
(-98344.2 1297.54 17275.2)
(-93197.9 2601.25 22884.8)
(-81744.5 1419.97 24819.5)
(-84533.8 -3350.2 33146.9)
(-114981 -7532.4 47538.4)
(-72403.1 -2532.8 19853.3)
(-180976 -58869.3 -95004.4)
(-140881 -60830.7 -260846)
(-149246 -29130 -240209)
(-19636.6 7111.64 -193047)
(-126215 3157.56 -146885)
(-56502.3 885.377 -6284.11)
(-194094 -30082.6 26324.5)
(-101743 -32994 68397.6)
(-38580.9 -15183.7 -5206.04)
(-133679 -6141.5 63675.8)
(-172005 868.264 51367.7)
(-88237.4 -2184.08 -11634.5)
(-51385.6 -3615.51 -12589.9)
(-50732.1 995.554 -2629.62)
(-67753.9 884.999 453.548)
(-66954.6 -5338.12 299.546)
(-61724.1 -7053.53 -3658.17)
(-86030.9 -4937.2 18426.5)
(-90464 -2173.67 28041.9)
(-86302.8 -550.622 27600)
(-82472.4 -151.864 20868.2)
(-82279.4 -82.1207 15404.7)
(-83524.1 -110.758 11962.6)
(-85458.8 -201.065 9961.98)
(-87878.5 -350.959 8917.03)
(-90657.5 -540.943 8266.99)
(-93880.1 -746.176 7826.47)
(-97727.5 -912.941 8132.17)
(-102341 -957.741 8940.88)
(-107646 -1204.91 9577.24)
(-112729 -1784.32 9809.79)
(-114819 -1641 9882.95)
(-122051 -4431.89 11683.8)
(-117732 -8475.36 9382.85)
(-87607.8 -2164.37 -1093.23)
(-85768.4 6526.12 -4637.45)
(-100810 1614.55 -1955.32)
(-95297.3 -2048.24 -2736.43)
(-95610.3 -1178.78 -2465.35)
(-94354.4 -874.454 -1627.51)
(-93625.7 -1127.57 -798.054)
(-91327.9 -1138.59 100.391)
(-86593 -643.195 1011.35)
(-84972.9 -896.217 735.467)
(-84895.6 -1790.11 2.92587)
(-81438.2 -968.475 -514.013)
(-84288.2 -32.5316 3014.75)
(-88278.8 -765.199 7881.24)
(-85632.9 -1204.51 11578.6)
(-82259.9 -916.799 13019.1)
(-75459.1 -1718.02 13893.7)
(-77972.3 -3438.59 16468)
(-88141 -4321.34 35913.7)
(-22166.7 -507.555 19814.8)
(-152469 -31146.9 -183582)
(-119965 -34543.5 -227773)
(-116647 -7792.75 -163725)
(-115514 20916.7 -130969)
(-116760 16955.2 -70258.8)
(46776.7 36298.8 54354.2)
(-68030.8 -2873.42 49361.3)
(-50131 640.648 71283.1)
(-72011.4 19263.4 112537)
(-70864.2 20742.5 100793)
(-83308.4 16802.4 76889.7)
(-56408.7 10294.3 47278.7)
(-42091.4 6992.83 41660.5)
(-38440.1 7411.45 40074.1)
(-33185.5 5094.08 32743.3)
(-39850.8 1839.45 18692.7)
(-40198.5 -1138.26 14189.6)
(-73754.5 -1823.8 22892.9)
(-87134.1 -582.179 27980.8)
(-86367.1 506.979 26477.6)
(-84647.9 790.236 19912.9)
(-85325.6 822.132 15236.1)
(-86777.3 806.62 12345.1)
(-88588.2 780.516 10725)
(-90638 742.368 9943.73)
(-92930.8 700.108 9669.21)
(-95449.2 669.914 9623.13)
(-98241.8 735.348 9705.2)
(-101348 1019.01 9842.08)
(-105019 1091.56 10238.6)
(-109897 784.582 10999.1)
(-113272 1241.06 10778)
(-112555 409.179 8506.38)
(-112057 -3855.1 7029.71)
(-115049 -629.868 5688.25)
(-105012 6182.65 337.728)
(-89771.6 3663.05 -4933.83)
(-95745.9 -1208.94 -2364.71)
(-98752.9 -503.311 -770.123)
(-97777.1 -24.2007 274.963)
(-97587.4 -218.069 1023.64)
(-96308.9 -192.22 1335.99)
(-91537.2 315.269 2728.76)
(-87919.2 142.627 3563.33)
(-90318.7 -818.256 3266.67)
(-90815.9 -77.7012 1604.4)
(-87848.5 949.72 5018.22)
(-87414.4 282.986 13086.5)
(-88140.3 -210.112 18863.1)
(-83806.9 172.82 20977.1)
(-75392.7 -814.374 24427.9)
(-79566.3 -3770.44 28464.1)
(-100955 -5157.45 43431.7)
(-36835.5 -699.442 19333.2)
(-167494 -34678.2 -87537.5)
(-149848 -38128 -204414)
(-148356 -21382.7 -245672)
(-120401 -1961.65 -245233)
(-170060 7210.48 -101502)
(-169497 3813.59 -24407.8)
(-188789 -18195.1 19580.9)
(-155722 -30910.7 35740.7)
(-75444.9 -29640.4 64092.2)
(-82349.6 -25176.3 59387.1)
(76412.3 -6724.93 -83623.4)
(-48470.4 3203.96 -12995.5)
(-41534.2 -2808.75 -1746.31)
(-49886.9 -3922.76 -1025.2)
(-58738.5 -5153.6 17793.2)
(-63914.1 -4478.52 17422)
(-70133 -4139.13 12465.2)
(-85369.1 -2533.8 24811.1)
(-86635.2 -926.691 29970.6)
(-82913.5 -106.966 27645.3)
(-81460.5 -14.6495 22114.1)
(-83259.5 -135.563 17760.4)
(-86764.6 -346.251 14927.4)
(-91176.7 -573.197 13394.5)
(-96242.8 -849.895 12891.5)
(-101723 -1108.64 13270.3)
(-107582 -1414.41 14092.9)
(-112637 -2011.78 14701.2)
(-114912 -2284.82 14638.8)
(-117613 -1889.62 14486.7)
(-122007 -2188.14 14564.3)
(-123233 -4303.11 14268.5)
(-118787 -7014.01 8784.39)
(-103714 -7748.76 -6114.42)
(-82666.1 -3262.91 -15215.3)
(-82336.6 2095.17 -5865.15)
(-86820.8 1313.15 -548.44)
(-85375.7 -529.584 -2539.35)
(-85959.6 -728.14 -1665.4)
(-86951.3 -691.538 -1470.59)
(-87113.3 -604.174 -2128.57)
(-86187.8 -804.734 -3345.3)
(-84670.3 -457.938 -3106.16)
(-84683.2 341.785 -232.048)
(-87970.6 -132.323 1208.44)
(-90566.2 -884.981 2232.09)
(-91732.2 -754.143 6681.44)
(-91428.7 -689.89 10823.5)
(-89307.9 -930.764 11032)
(-84739 -1270.25 9126.21)
(-75250.6 -1657.9 8166.47)
(-76200.1 -2320.71 12357.7)
(-82588.3 -2660.61 33316.9)
(-14949.3 -239.561 16584.4)
(-131693 -7301.13 -233156)
(-156869 -26955.1 -273461)
(-170671 -12706.9 -220779)
(-131511 3776.68 -196639)
(-146094 16266.4 -90280.4)
(-19053.4 26972.8 98264.3)
(-106388 -3088.98 73345.1)
(-152125 -7499.93 68807.1)
(-149873 2928.47 96559.3)
(-123323 7215.14 84290.5)
(-102486 9626.07 58916.7)
(-75212.5 8951.48 43189)
(-49194.6 1930.16 39908.8)
(-43203.5 -35.8701 39442.6)
(-46114.8 -673.989 39457)
(-51911.2 -228.844 30016.5)
(-60656.7 -385.437 22971.2)
(-81501.3 -290.408 29057)
(-87151 532.35 31267.5)
(-85106.7 1120.06 27886)
(-84108.4 1236.19 22271.6)
(-85132.2 1231.72 18058.2)
(-87161.3 1201.77 15247.9)
(-89673.6 1200.52 13509.1)
(-92434.2 1170.89 12585.8)
(-95404.5 1190.04 12252.6)
(-98564.3 1282.58 12168.1)
(-102156 1113.49 12553.7)
(-106486 1096.51 13853.9)
(-109861 1783.64 14857.3)
(-109293 1854.06 12922.4)
(-103466 152.638 7188.02)
(-96844.5 -2584.5 683.246)
(-94662.6 -4541.03 -3293.64)
(-92834.7 -1955.28 -4850.18)
(-87340.8 1840.03 -5581.32)
(-84297 1526.03 -2933.17)
(-85200.1 -204.78 -170.486)
(-84946.6 -416.445 -196.187)
(-86961.4 -352.784 211.233)
(-87144.5 -238.465 -752.969)
(-86050.5 -448.513 -2500.32)
(-85732.9 -225.734 -2431.22)
(-83795.8 497.647 1026.99)
(-81879.3 184.304 3877.54)
(-85100.8 -543.093 5037.21)
(-87693.1 -341.596 7477.52)
(-87033.4 -124.548 14094.8)
(-84369.2 -376.908 18993.2)
(-80180.7 -922.084 20151.2)
(-72121.6 -1717.24 19184.7)
(-76564.2 -2810.31 21945)
(-93759.2 -3115.67 39677.7)
(-26104.4 -335.321 16236.9)
(-162740 -17756.3 -72441.2)
(-152571 -24008.5 -181712)
(-152302 -16160.6 -235717)
(-164059 -11588 -221098)
(-183405 7073.72 -102844)
(-186392 7932.78 -59255.9)
(-179532 -6159.79 -5671.55)
(-167538 -17982.5 6797.3)
(-119568 -20041.1 40898.3)
(-102133 -20255.5 39450.5)
(-50221.3 -14756.8 -2039.27)
(-66555.2 -5124.71 -1900.12)
(-57336.1 -6071.46 -1626.66)
(-67122.7 -6956.71 10684.2)
(-68992.6 -5024.18 28679.2)
(-71795.7 -3205.66 26379.6)
(-77644 -2355.12 22358.3)
(-86346 -1102.89 28421.7)
(-88360.3 -89.0842 30616.8)
(-88881.3 336.227 28675.5)
(-91423 312.452 25394.5)
(-95677.6 155.88 22853)
(-100979 33.9552 21266.2)
(-106755 -181.306 20641)
(-112254 -722.642 20844.7)
(-115884 -1472.29 20917.8)
(-116139 -1571.29 19731.5)
(-116505 -984.45 18300.5)
(-117751 -1012.45 17933.6)
(-116750 -1840.85 17952.5)
(-113146 -3219.87 16451.2)
(-104179 -5260.75 11238.7)
(-90791.8 -6527.64 411.588)
(-76500.9 -3359.35 -12859.6)
(-78262.1 857 -13193.1)
(-85685.7 1250.86 -4235.29)
(-85275.3 511.773 -803.117)
(-84746 -111.301 -1197.33)
(-84033.1 -365.685 168.366)
(-83046 44.7814 1727.45)
(-83994 204.981 1473.61)
(-85701 -197.446 465.565)
(-86980.4 -77.6269 390.081)
(-89252.9 175.711 2264.2)
(-91414 -190.835 4055.3)
(-92997.2 -576.304 4365.12)
(-94112.1 -522.463 5345.11)
(-94265.3 -631.015 7116)
(-92954.9 -874.285 7728.32)
(-90299.4 -928.981 6290.8)
(-83207.1 -830.206 3770.24)
(-85545.4 -1153.16 4103.74)
(-88391.3 -1873.6 24740.1)
(-11684.3 -297.747 19011)
(-123899 25092.8 -207660)
(-142066 -4384.11 -267116)
(-185161 -3790.29 -228317)
(-223194 -1862.25 -202357)
(-226829 16557.2 -74777.3)
(-144072 19381.7 55793.6)
(-115389 -2058.25 69574.3)
(-100153 -9565.47 32417)
(-93555.5 -7738.74 35172.7)
(-80928.8 -6387.11 25058.2)
(-70956.2 -2010.18 20264.3)
(-56141.5 204.846 13209.9)
(-52740 -3259.33 16741.9)
(-59032.2 -4113.65 31880.7)
(-63374.1 -2817.9 38582.1)
(-66874.2 -985.214 33741.5)
(-75323.5 -296.932 28898.3)
(-86281 358.952 32737.2)
(-88244 1136.36 33024.6)
(-87073.6 1557.9 29720.6)
(-87242.3 1633.31 25488.2)
(-88896.7 1621 22135.6)
(-91314.3 1669.19 19702.2)
(-93979 1662.28 18016)
(-96795 1429.84 16987.5)
(-100009 1062.76 16657.7)
(-103673 1174.57 17083.8)
(-106830 1862.2 17806.1)
(-107632 2226.68 17342.2)
(-105608 1829.65 13886.2)
(-99260.6 409.198 5852.47)
(-88794.2 -2117.76 -4776.93)
(-84483.6 -3536.13 -10253)
(-86797.3 -1506.92 -9542.12)
(-85802.5 942.256 -7619.98)
(-85081.3 1438.43 -4759.36)
(-85220.8 592.963 -2244.67)
(-83041 -24.7275 -1052.29)
(-82077.8 -327.539 207.473)
(-81594.8 51.7878 1914.57)
(-79978.2 249.197 1670.82)
(-81592.7 -162.071 1173.77)
(-83670.9 -92.4305 587.94)
(-84410.4 217.504 1680.75)
(-85177 -77.7439 4548.66)
(-87238.1 -471.938 7224.33)
(-89363.6 -432.74 8607.01)
(-89942.5 -557.102 10564.9)
(-88635.6 -854.614 11759.6)
(-85527.1 -984.338 10659.5)
(-77962.9 -942.498 8021.28)
(-81418 -1340.11 7919.83)
(-89886.5 -2088.06 26078.8)
(-15291.4 -297.779 17117.1)
(-154867 -7386.89 -83230.2)
(-153180 -17003.2 -151135)
(-154427 -14213.7 -226295)
(-169978 -19454.6 -183998)
(-175398 -6712.01 -115669)
(-174936 -262.224 -77939.7)
(-152049 -3447.29 -22187.7)
(-142690 -10714.2 -11771.8)
(-124586 -14442.2 4679.58)
(-75286.2 -13754.6 16645.2)
(-62058.1 -7367.23 -5613.75)
(-77231.7 -3651.14 746.464)
(-80973.5 -4227.49 9931.29)
(-84746.7 -4338.15 30046.2)
(-85564.7 -2963.31 34835.3)
(-85539.1 -2018.92 31914.8)
(-89811.2 -1346.03 29884.4)
(-95359.5 -516.101 32712.1)
(-97914.6 111.063 33390.7)
(-99951.2 364.67 31787.3)
(-102677 341.914 29509.8)
(-105657 171.671 27598.9)
(-108449 -31.4163 26295.3)
(-110532 -561.204 25053.4)
(-110275 -1270.68 22966.4)
(-107508 -1193.08 19891)
(-105262 -360.885 17323.7)
(-104664 -80.2597 16132.3)
(-103927 -776.983 14578.4)
(-101251 -2069.32 11618.2)
(-96300.8 -3499.7 8532.29)
(-88060.1 -4159.07 3486.25)
(-78069.3 -3387.2 -5624.46)
(-74384.1 -839.483 -11424.4)
(-80601.3 1053.87 -8126.84)
(-83892.3 1161.98 -3392.14)
(-84616.3 795.686 -1042.68)
(-86715.2 197.116 -648.812)
(-87538.6 -143.258 -823.298)
(-86501.3 6.97282 -501.712)
(-85773.5 139.86 355.003)
(-86255.6 -14.8629 1155.49)
(-87899 -266.89 1977.02)
(-88479.7 -351.196 3079.97)
(-87580 -294.032 4093.98)
(-87253.1 -341.367 5092.93)
(-87199.3 -335.557 6553.53)
(-86537.3 -302.843 7931.76)
(-84989.2 -298.329 8170.1)
(-82573.8 -211.091 6736.61)
(-75028.9 -4.73248 3571.7)
(-85306.8 -192.81 -2371.1)
(-69632.7 -1687.11 -3694.67)
(37536 -964.143 3832.99)
(-99174.9 30458.1 -196681)
(-91931.9 13612.9 -258008)
(-121144 5776.62 -178086)
(-193372 -7576.1 -195556)
(-207189 3459 -110327)
(-149425 11052.4 5297.37)
(-98442.7 2091.16 25930)
(-64751.4 -3366.94 -6880.31)
(-35322.6 -9037.07 3168.69)
(-41962.2 -10262.6 3751.27)
(-58140.8 -3941.42 5648.63)
(-62415.5 -1758.03 6273.92)
(-72619.7 -2995.89 20771.5)
(-78063.5 -3597.7 33419.6)
(-79711.1 -2166.56 37221.4)
(-80826.5 -996.657 34344.5)
(-86164.2 -307.877 32693.7)
(-91298.3 370.117 35166.2)
(-92052.8 1007.08 34929.2)
(-91872.9 1372.31 32429.8)
(-92529.5 1515.92 29301.7)
(-93992.1 1555.69 26585.8)
(-95758.3 1610.24 24339.4)
(-97370.1 1410.59 22486.5)
(-99177.5 982.064 21226.3)
(-101434 1092.69 20892.4)
(-102368 1937.25 20615)
(-100503 2702.74 19112.7)
(-97093.7 2665.78 15529.6)
(-91958.1 1463.38 7133.83)
(-84266.5 -811.221 -6032.65)
(-81148.2 -2089.6 -14564.1)
(-85024.8 -799.799 -12595.3)
(-85137.2 833.497 -8731.73)
(-83827.9 1372.39 -5359.78)
(-83478.3 1075.31 -3102.24)
(-82755.4 730.074 -1622.56)
(-83544.6 242.922 -1066.13)
(-84879.9 -74.4876 -1057.17)
(-83982.5 32.6985 -767.737)
(-82542.2 192.261 60.3052)
(-82243.1 51.9342 1550.74)
(-83897.5 -200.05 2769.15)
(-86265.3 -294.745 3752.57)
(-86590.2 -276.741 4979.1)
(-85938.9 -345.034 6283.32)
(-85569.6 -348.22 7641.1)
(-84298.9 -315.877 9184.02)
(-81973.1 -308.487 9809.4)
(-78452.9 -213.949 8544.74)
(-69631.8 2.8424 5246.48)
(-77849.3 -263.973 -980.134)
(-65633 -2068.26 -3202.59)
(29132.2 -1061.52 3543.63)
(-155521 -2132.05 -110552)
(-153014 -12172.8 -147123)
(-153950 -13340.9 -225419)
(-155475 -18338.6 -153722)
(-161856 -13922.6 -99418.3)
(-175290 -3691.13 -84403.4)
(-163778 -4671.25 -36432.3)
(-150063 -12835.2 -10696.1)
(-140664 -13820.2 -151.424)
(-101433 -6891.75 16090.1)
(-95493.1 -898.9 8005.08)
(-99475.2 -54.8452 9881.71)
(-104213 -1034.17 22060.5)
(-103636 -1537.21 33851.7)
(-100586 -1409.89 35704.1)
(-98981.8 -1151.08 34614.1)
(-100637 -833.286 34458.1)
(-102804 -473.278 35777.7)
(-103570 -272.391 35439.8)
(-103892 -246.535 33559.8)
(-104045 -404.631 31131.3)
(-103851 -772.119 28692.8)
(-102266 -1342.15 25976.4)
(-98350.2 -1814.98 22350.9)
(-93569.9 -1745.98 18472.9)
(-90433.8 -947.567 15677.2)
(-89959.9 -353.881 14027.9)
(-91174.7 -667.537 13049.3)
(-92008.7 -894.613 12278.2)
(-93267.7 -1129.66 11269.6)
(-90814 -2852.24 6946.55)
(-78910.2 -4111.94 -3039.8)
(-71532.5 -1630.14 -10426.4)
(-77168.8 1228.11 -9061.02)
(-84689.4 1340.36 -4918.98)
(-89372.3 1040.41 -1926.42)
(-89476.8 624.074 -1115.52)
(-87893.3 63.8218 -614.893)
(-86814.6 -248.069 -251.583)
(-86738.3 -343.274 109.234)
(-86805.4 -381.392 744.69)
(-86231.2 -320.07 1614.12)
(-85017 -299.028 2424.29)
(-83852.1 -275.312 3087.42)
(-83462 -235.491 3963.18)
(-83351.9 -246.05 5126.51)
(-83304.9 -243.286 6296.78)
(-83053.9 -230.055 7143.43)
(-82359 -192.759 7133.21)
(-80732.2 -119.127 5648.75)
(-75806.9 -124.573 2439.29)
(-79177.6 -686.538 -8799.97)
(-94444.1 -1971.47 -35730.4)
(-20100 -237.744 -12870.3)
(-100950 26194 -192445)
(-84758.3 24005.2 -270070)
(-76510.7 9435.57 -142539)
(-133823 -8730.15 -162523)
(-179414 -6245.74 -128059)
(-158279 3668.09 -42495.9)
(-101087 867.341 2714.68)
(-102542 -7631.37 -22442.3)
(-97850.9 -8087.13 -7405.52)
(-93776.7 -3430.53 7200.96)
(-93453.6 981.607 13626.4)
(-92580.1 1028.42 15196.5)
(-96501.2 -719.238 27021.2)
(-96034.7 -1331.44 32549.4)
(-94077.5 -1001.24 34142.5)
(-93344.4 -537.802 33892.8)
(-95374.4 -152.755 34662.3)
(-96841.4 229.555 36455.5)
(-96581.4 551.415 36242.1)
(-96158.9 772.941 34370.7)
(-96151.5 854.562 31863.7)
(-96573.8 782.462 29315.5)
(-97134.6 576.273 26692.5)
(-97273.6 417.523 24148)
(-97271.6 571.755 22370.7)
(-96811.1 1392.87 21136.3)
(-93649.5 2513.05 18938.4)
(-89549 3062.99 16086.3)
(-86516 2814.63 11555.2)
(-81990.8 1126.57 1368.18)
(-78562.4 -1707.61 -10748)
(-83363.4 -1730.25 -13401.1)
(-87673 773.599 -9814.12)
(-87700.2 1811.79 -7789.97)
(-88575.4 1519.17 -5264.66)
(-89141 1101.53 -2953.95)
(-86496.2 592.521 -1801.79)
(-83990.3 81.8948 -663.302)
(-84003.7 -139.238 -69.068)
(-84378.2 -235.351 306.327)
(-85950.7 -305.312 906.319)
(-86504.9 -280.229 1917.52)
(-85629.2 -268.835 2906.4)
(-84923.8 -253.798 3518.87)
(-84647.7 -228.26 4226.07)
(-84516.4 -251.588 5350.7)
(-84381.8 -259.354 6476.34)
(-84007.2 -256.555 7323.86)
(-83163.7 -230.471 7408.87)
(-81396.1 -168.787 5909.17)
(-77016.8 -184.749 2324.74)
(-81893.5 -766.995 -9367.26)
(-99770.8 -2005.01 -35248.2)
(-21917.5 -212.844 -12083.5)
(-147784 175.089 -117600)
(-151667 -3600.23 -151924)
(-154037 -7580.23 -211290)
(-144689 -7934.11 -139451)
(-139305 -9617.5 -75447.8)
(-168886 568.403 -75789.3)
(-175211 -4045.56 -41582.5)
(-157511 -13740.6 -12013.1)
(-137108 -11251.5 -7205.34)
(-116006 -1122.64 -53.1809)
(-110099 1969.29 4475.44)
(-114379 2098.35 11503)
(-117218 621.884 23071.4)
(-113662 -247.068 30613.5)
(-109278 -626.762 33232.2)
(-106518 -712.123 34396.3)
(-105502 -727.398 35375.6)
(-104579 -772.643 36117.6)
(-103088 -886.419 35345.9)
(-101370 -1036.56 33265)
(-99538.3 -1324.64 30570.5)
(-97196.3 -1767.07 27270.7)
(-93440 -2139.64 22871.6)
(-89006 -1958.62 18677.3)
(-87136.5 -1175.83 16712.5)
(-88348.1 -446.099 16608.6)
(-90203.5 -228.772 16816.4)
(-92981.2 -100.242 17331.9)
(-93966.3 183.258 16381.3)
(-89393.2 -507.803 9936.15)
(-82259.1 -2098.47 -731.628)
(-76571.6 -2351.25 -8897.79)
(-78072.4 -713.919 -8078.76)
(-82543.6 553.21 -3763.74)
(-85679.9 1039.17 -1254.25)
(-86537.2 839.212 -1522.82)
(-86831.8 363.455 -2340.64)
(-87157.4 4.25122 -1955.91)
(-86634.2 -292.572 -952.596)
(-85459.1 -339.152 50.2377)
(-84386.9 -218.653 617.828)
(-83370.1 -175.188 916.486)
(-82135.2 -238.755 1412.58)
(-80825.8 -268.578 2386.12)
(-79979.6 -244.643 3594.45)
(-79394.7 -240.165 4764.82)
(-78928.9 -238.286 5819.18)
(-78541 -205.076 6551.72)
(-78152.2 -111.205 6571.91)
(-77514.1 8.75226 5127.75)
(-77094.2 -8.69821 1284.77)
(-85849.9 -677.098 -8104.29)
(-127411 -3463.93 -27237.6)
(-47945.3 -2018.66 -7286.97)
(-91300.9 20862.8 -181775)
(-93321 26782.5 -284900)
(-76668.9 14867.1 -142683)
(-88815.1 1175.62 -137448)
(-137382 -1233.09 -116982)
(-161358 7111.04 -68770.6)
(-131047 -3166.73 -20106.3)
(-127447 -12278.7 -37237.7)
(-129862 -6512.32 -27983.1)
(-121863 843.978 -2822.15)
(-117222 3207.78 13877.9)
(-112263 2582.39 17549.7)
(-110787 766.46 24690.2)
(-106628 36.6359 28137.4)
(-103208 -133.718 30441.8)
(-101326 -54.3821 32370)
(-100797 41.2627 34277.2)
(-99955.1 107.786 35727)
(-98604.5 153.372 35584)
(-97369.5 196.123 34034.2)
(-96511.2 133.618 31780.9)
(-95963.3 -2.84087 29006.3)
(-95268.2 -5.66236 25564.1)
(-93963.7 391.402 22330.4)
(-92339.7 1202.14 20187.7)
(-90044.5 2165.43 18230.3)
(-86513.1 2829.18 15807.1)
(-84757.2 3072.07 14092.7)
(-83282 2726.7 10089.3)
(-77197.2 868.54 -1264.54)
(-76560.4 -1047.47 -10943.8)
(-84335.6 -804.017 -9152.31)
(-87612.1 45.3059 -7022.98)
(-90757.1 715.162 -5444.21)
(-90533.4 1183.06 -2983.52)
(-87683.4 960.384 -2545.01)
(-87131.5 486.743 -3059.1)
(-86730.5 131.164 -2228.18)
(-86474.5 -174.864 -995.082)
(-86039.6 -234.272 -12.5073)
(-85165.7 -118.473 632.199)
(-83922.1 -73.6313 967.249)
(-82700 -137.912 1503.1)
(-81845.6 -170.265 2377.58)
(-81263.6 -151.466 3432.43)
(-80792.9 -153.455 4585.58)
(-80369 -159.398 5691.03)
(-79908 -139.077 6524.03)
(-79292.2 -64.67 6755.67)
(-78162.9 40.9853 5790.33)
(-78016.9 19.0238 2560.87)
(-88762.9 -754.216 -6976.21)
(-154142 -3971.4 -31201.5)
(-75672 -2660.42 -12137.6)
(-120263 1324.32 -117635)
(-139443 6073.69 -163287)
(-150816 3936.13 -222616)
(-153624 3571.29 -162724)
(-119192 -5494.26 -57630.5)
(-149477 -378.351 -64974.1)
(-158883 -7664.55 -39523.4)
(-135378 -11982.4 -19677.8)
(-114864 -4075.21 -19528)
(-118687 3846.82 -13408.2)
(-120533 2627.55 1859.08)
(-121471 1596.61 11093.7)
(-120452 755.949 18946)
(-116417 161.56 25472.1)
(-112141 -226.189 29535.2)
(-108884 -358.605 32202.3)
(-106442 -471.894 33898.3)
(-104070 -696.17 34719.2)
(-101602 -937.142 34192.9)
(-99259.3 -1119.47 32416.3)
(-97364 -1299.74 29882.5)
(-95182.2 -1446.31 26155.7)
(-92593.4 -1181.72 21597.8)
(-91806.3 -419.75 19133.6)
(-93139.9 332.239 19249.6)
(-94399 630.262 19539.6)
(-94688 567.087 19115)
(-93267.6 714.164 16358.7)
(-88861.4 756.933 9235.5)
(-81787.9 -852.3 297.992)
(-76460.5 -2221.88 -5180.03)
(-77359.7 -1236.36 -5283.67)
(-80359.7 -360.121 -3500.55)
(-81459.5 -335.566 -2291.27)
(-81216.8 284.492 -1655.66)
(-82795.7 878.764 -1355.2)
(-84998.3 683.066 -1440.9)
(-86246.5 245.594 -1362.86)
(-86484.3 -127.475 -1202.15)
(-85635.6 -281.125 -971.256)
(-84695.5 -248.45 -713.208)
(-83858.3 -197.727 -486.299)
(-83107.6 -216.76 -110.514)
(-82255.1 -300.565 669.729)
(-81496.9 -376.387 1678.51)
(-81230.3 -409.4 2525.13)
(-81402.9 -419.729 3169.35)
(-81995.3 -393.094 3563.15)
(-83152.9 -287.734 3512.31)
(-84871.5 -136.68 2715.1)
(-88365.2 -68.158 958.882)
(-103178 -306.994 -398.919)
(-169508 -3429.7 -383.669)
(-72592.6 -2950.59 -173.328)
(-73140.8 20993.8 -158310)
(-88642.6 31702 -265242)
(-85498.4 30390.4 -159995)
(-62254.5 12524 -121853)
(-84128.1 2795.91 -77834.7)
(-121137 2251.98 -44116.3)
(-119602 -9442.25 -29531.3)
(-120260 -9070.35 -50847.7)
(-137850 156.486 -38567.1)
(-134919 4160.56 -7235.56)
(-125709 3021.91 10730.1)
(-118152 1890.85 15165.8)
(-114645 1062.87 19335.5)
(-110076 605.97 23206.5)
(-106679 361.701 26736.9)
(-104172 348.864 29803.9)
(-102067 343.939 32031.6)
(-99959.4 220.14 33293.7)
(-97989.5 79.3633 33279.3)
(-96459.6 2.0159 32069.6)
(-95553.4 -30.691 30130.7)
(-94876.3 78.9761 27163.9)
(-93627.8 592.373 23251.2)
(-91738.8 1375.27 20165)
(-89657.6 2129.62 18485.1)
(-87337.9 2637.59 17050.9)
(-85268.5 2757.13 15939.8)
(-84346.6 3030.72 14409.2)
(-80484.2 3050.92 7291.47)
(-73650.5 859.37 -4814.4)
(-77935.4 -1270.27 -8224.9)
(-85193.3 -841.413 -4270.33)
(-86747.3 -249.272 -3891.02)
(-89588.1 88.1267 -3616.65)
(-89846 842.899 -3379.95)
(-87780 1144.59 -3132.12)
(-87187.7 796.209 -2809.81)
(-86831.3 372.343 -2281.54)
(-86279.6 20.5588 -1739.82)
(-85656.2 -127.164 -1426.11)
(-84955.6 -80.2191 -1231.77)
(-84182.9 -18.8566 -992.002)
(-83341.7 -31.4618 -457.019)
(-82682.8 -109.182 358.518)
(-82539.2 -179.429 1154.23)
(-82824 -215.253 1782.9)
(-83451.2 -240.794 2227.72)
(-84404.1 -244.041 2349.63)
(-85646.4 -169.603 1945.17)