/*--------------------------------*- C++ -*----------------------------------*\
| =========                 |                                                 |
| \\      /  F ield         | OpenFOAM: The Open Source CFD Toolbox           |
|  \\    /   O peration     | Version:  4.1                                   |
|   \\  /    A nd           | Web:      www.OpenFOAM.org                      |
|    \\/     M anipulation  |                                                 |
\*---------------------------------------------------------------------------*/
FoamFile
{
    version     2.0;
    format      ascii;
    class       volScalarField;
    location    "61";
    object      p;
}
// * * * * * * * * * * * * * * * * * * * * * * * * * * * * * * * * * * * * * //

dimensions      [0 2 -2 0 0 0 0];

internalField   nonuniform List<scalar> 
4432
(
-3.71261e+10
-3.79956e+10
-3.87686e+10
-3.82617e+10
-3.82225e+10
-3.84832e+10
-3.85374e+10
-3.85681e+10
-3.85961e+10
-3.86351e+10
-3.86751e+10
-3.87039e+10
-3.87114e+10
-3.86956e+10
-3.86653e+10
-3.86226e+10
-3.85572e+10
-3.84663e+10
-3.83497e+10
-3.82086e+10
-3.80439e+10
-3.78599e+10
-3.76631e+10
-3.74614e+10
-3.72632e+10
-3.7077e+10
-3.69098e+10
-3.67673e+10
-3.66519e+10
-3.65636e+10
-3.64988e+10
-3.64515e+10
-3.64142e+10
-3.63787e+10
-3.63385e+10
-3.6292e+10
-3.62441e+10
-3.62073e+10
-3.61986e+10
-3.62357e+10
-3.63272e+10
-3.64647e+10
-3.66187e+10
-3.6749e+10
-3.68347e+10
-3.68835e+10
-3.68462e+10
-3.64527e+10
-3.53737e+10
-3.44181e+10
-3.72071e+10
-4.74096e+10
-5.60994e+10
-2.78698e+10
-3.75505e+10
-3.78781e+10
-3.83448e+10
-3.84574e+10
-3.82915e+10
-3.84549e+10
-3.85446e+10
-3.85684e+10
-3.85938e+10
-3.86404e+10
-3.86872e+10
-3.87167e+10
-3.87214e+10
-3.8705e+10
-3.86759e+10
-3.86333e+10
-3.85671e+10
-3.84747e+10
-3.83575e+10
-3.82154e+10
-3.80492e+10
-3.78634e+10
-3.76641e+10
-3.74595e+10
-3.72578e+10
-3.70677e+10
-3.68962e+10
-3.67492e+10
-3.66294e+10
-3.65369e+10
-3.64684e+10
-3.64181e+10
-3.63785e+10
-3.63418e+10
-3.63023e+10
-3.62582e+10
-3.62141e+10
-3.61821e+10
-3.61787e+10
-3.62204e+10
-3.63152e+10
-3.64536e+10
-3.66046e+10
-3.67262e+10
-3.67939e+10
-3.68096e+10
-3.67086e+10
-3.61778e+10
-3.47814e+10
-3.31704e+10
-3.51011e+10
-4.59384e+10
-5.83734e+10
-3.52414e+10
-3.78737e+10
-3.79491e+10
-3.81924e+10
-3.85251e+10
-3.83965e+10
-3.8431e+10
-3.85612e+10
-3.85955e+10
-3.86216e+10
-3.86701e+10
-3.87181e+10
-3.87614e+10
-3.87841e+10
-3.87762e+10
-3.87472e+10
-3.87069e+10
-3.86477e+10
-3.85596e+10
-3.84433e+10
-3.82984e+10
-3.81264e+10
-3.79317e+10
-3.77211e+10
-3.75039e+10
-3.72897e+10
-3.70885e+10
-3.69078e+10
-3.67542e+10
-3.66304e+10
-3.65369e+10
-3.647e+10
-3.64244e+10
-3.63934e+10
-3.63685e+10
-3.63427e+10
-3.63141e+10
-3.62867e+10
-3.62712e+10
-3.62818e+10
-3.63324e+10
-3.64285e+10
-3.65577e+10
-3.66867e+10
-3.67709e+10
-3.67861e+10
-3.67346e+10
-3.65319e+10
-3.58057e+10
-3.41197e+10
-3.24793e+10
-3.53241e+10
-4.72523e+10
-5.90957e+10
-3.71485e+10
-3.78673e+10
-3.80514e+10
-3.83178e+10
-3.84469e+10
-3.83885e+10
-3.84416e+10
-3.85691e+10
-3.85932e+10
-3.8624e+10
-3.86734e+10
-3.87263e+10
-3.87707e+10
-3.87907e+10
-3.87798e+10
-3.87504e+10
-3.87125e+10
-3.86528e+10
-3.85625e+10
-3.84452e+10
-3.82992e+10
-3.81259e+10
-3.79296e+10
-3.77172e+10
-3.74978e+10
-3.72812e+10
-3.70773e+10
-3.68938e+10
-3.67373e+10
-3.66107e+10
-3.65147e+10
-3.6446e+10
-3.63989e+10
-3.63659e+10
-3.63391e+10
-3.63125e+10
-3.62836e+10
-3.6256e+10
-3.62398e+10
-3.62493e+10
-3.62979e+10
-3.63899e+10
-3.65123e+10
-3.66313e+10
-3.67026e+10
-3.67013e+10
-3.66269e+10
-3.63875e+10
-3.55842e+10
-3.3734e+10
-3.20048e+10
-3.58061e+10
-5.03974e+10
-6.04984e+10
-2.98883e+10
-3.83684e+10
-3.82963e+10
-3.81202e+10
-3.84779e+10
-3.84809e+10
-3.84645e+10
-3.85165e+10
-3.85632e+10
-3.86116e+10
-3.86676e+10
-3.87232e+10
-3.87788e+10
-3.88137e+10
-3.88166e+10
-3.87979e+10
-3.87666e+10
-3.87162e+10
-3.86378e+10
-3.85308e+10
-3.83925e+10
-3.82239e+10
-3.80284e+10
-3.78133e+10
-3.75883e+10
-3.73644e+10
-3.71523e+10
-3.69604e+10
-3.67953e+10
-3.66607e+10
-3.65575e+10
-3.64824e+10
-3.64282e+10
-3.63862e+10
-3.63502e+10
-3.63152e+10
-3.62788e+10
-3.62454e+10
-3.6225e+10
-3.62313e+10
-3.62752e+10
-3.63591e+10
-3.64689e+10
-3.6573e+10
-3.66362e+10
-3.66525e+10
-3.66463e+10
-3.65381e+10
-3.59097e+10
-3.42398e+10
-3.25901e+10
-3.56816e+10
-4.80247e+10
-5.83524e+10
-2.95446e+10
-3.81966e+10
-3.83356e+10
-3.83652e+10
-3.83364e+10
-3.84158e+10
-3.84801e+10
-3.85334e+10
-3.85646e+10
-3.86189e+10
-3.86755e+10
-3.87327e+10
-3.8787e+10
-3.88214e+10
-3.88245e+10
-3.88062e+10
-3.87773e+10
-3.87255e+10
-3.86443e+10
-3.85341e+10
-3.83924e+10
-3.82197e+10
-3.80197e+10
-3.77996e+10
-3.75692e+10
-3.73395e+10
-3.71214e+10
-3.69235e+10
-3.67522e+10
-3.66114e+10
-3.65017e+10
-3.64202e+10
-3.63603e+10
-3.63141e+10
-3.62745e+10
-3.62362e+10
-3.61977e+10
-3.61634e+10
-3.61436e+10
-3.61519e+10
-3.62001e+10
-3.62907e+10
-3.64094e+10
-3.6523e+10
-3.65925e+10
-3.66037e+10
-3.65653e+10
-3.63673e+10
-3.55296e+10
-3.34424e+10
-3.11913e+10
-3.39489e+10
-4.70649e+10
-5.97185e+10
-3.45232e+10
-3.82801e+10
-3.83893e+10
-3.83692e+10
-3.83842e+10
-3.85062e+10
-3.85735e+10
-3.86163e+10
-3.86548e+10
-3.871e+10
-3.87742e+10
-3.88401e+10
-3.8906e+10
-3.89532e+10
-3.89724e+10
-3.897e+10
-3.89494e+10
-3.89029e+10
-3.88255e+10
-3.87155e+10
-3.85706e+10
-3.83901e+10
-3.81775e+10
-3.79409e+10
-3.76923e+10
-3.74452e+10
-3.72124e+10
-3.70039e+10
-3.68267e+10
-3.66847e+10
-3.65787e+10
-3.65041e+10
-3.64504e+10
-3.64065e+10
-3.63688e+10
-3.63352e+10
-3.62986e+10
-3.6264e+10
-3.6242e+10
-3.62439e+10
-3.6278e+10
-3.63429e+10
-3.64217e+10
-3.64821e+10
-3.64923e+10
-3.64551e+10
-3.64063e+10
-3.62808e+10
-3.56691e+10
-3.40044e+10
-3.21585e+10
-3.47418e+10
-4.73808e+10
-6.16122e+10
-3.84563e+10
-3.83576e+10
-3.84012e+10
-3.83433e+10
-3.82982e+10
-3.84616e+10
-3.85888e+10
-3.86241e+10
-3.86537e+10
-3.87125e+10
-3.87754e+10
-3.88416e+10
-3.89052e+10
-3.89509e+10
-3.89708e+10
-3.89703e+10
-3.89507e+10
-3.89029e+10
-3.88233e+10
-3.87102e+10
-3.8561e+10
-3.83756e+10
-3.81575e+10
-3.79147e+10
-3.76596e+10
-3.74061e+10
-3.71671e+10
-3.6953e+10
-3.67706e+10
-3.66232e+10
-3.65112e+10
-3.64302e+10
-3.63727e+10
-3.63291e+10
-3.62913e+10
-3.62542e+10
-3.62185e+10
-3.61888e+10
-3.61747e+10
-3.61897e+10
-3.62437e+10
-3.63367e+10
-3.64532e+10
-3.65611e+10
-3.66264e+10
-3.66449e+10
-3.66388e+10
-3.6513e+10
-3.57964e+10
-3.38849e+10
-3.19454e+10
-3.5517e+10
-5.00764e+10
-6.12879e+10
-3.03714e+10
-3.83079e+10
-3.83392e+10
-3.83741e+10
-3.83405e+10
-3.84379e+10
-3.85275e+10
-3.85908e+10
-3.86425e+10
-3.87087e+10
-3.87892e+10
-3.88695e+10
-3.89382e+10
-3.89908e+10
-3.90222e+10
-3.90356e+10
-3.90273e+10
-3.89893e+10
-3.89178e+10
-3.88091e+10
-3.86602e+10
-3.84684e+10
-3.82356e+10
-3.79699e+10
-3.76855e+10
-3.73998e+10
-3.7129e+10
-3.68858e+10
-3.66783e+10
-3.65102e+10
-3.63808e+10
-3.62843e+10
-3.62103e+10
-3.6148e+10
-3.60925e+10
-3.60407e+10
-3.59905e+10
-3.59464e+10
-3.59193e+10
-3.59216e+10
-3.59626e+10
-3.60414e+10
-3.61406e+10
-3.62273e+10
-3.62699e+10
-3.62685e+10
-3.62535e+10
-3.61582e+10
-3.55726e+10
-3.38644e+10
-3.16291e+10
-3.30721e+10
-4.46921e+10
-6.14046e+10
-4.19028e+10
-3.84108e+10
-3.83883e+10
-3.83095e+10
-3.82774e+10
-3.84108e+10
-3.85252e+10
-3.85902e+10
-3.86426e+10
-3.87038e+10
-3.87769e+10
-3.88548e+10
-3.89243e+10
-3.8976e+10
-3.90074e+10
-3.90211e+10
-3.90124e+10
-3.89733e+10
-3.89004e+10
-3.87912e+10
-3.86418e+10
-3.84494e+10
-3.82156e+10
-3.79482e+10
-3.76616e+10
-3.7373e+10
-3.70992e+10
-3.68529e+10
-3.66423e+10
-3.64703e+10
-3.6336e+10
-3.62345e+10
-3.61573e+10
-3.60943e+10
-3.6038e+10
-3.5984e+10
-3.59325e+10
-3.58891e+10
-3.58641e+10
-3.5871e+10
-3.59196e+10
-3.60096e+10
-3.61243e+10
-3.62308e+10
-3.6297e+10
-3.63218e+10
-3.63329e+10
-3.6252e+10
-3.56384e+10
-3.38804e+10
-3.19561e+10
-3.49441e+10
-4.84848e+10
-6.11331e+10
-3.28635e+10
-3.84083e+10
-3.83888e+10
-3.83788e+10
-3.83803e+10
-3.84514e+10
-3.85364e+10
-3.86092e+10
-3.86716e+10
-3.8744e+10
-3.88405e+10
-3.8947e+10
-3.90365e+10
-3.91089e+10
-3.91655e+10
-3.92041e+10
-3.92165e+10
-3.91958e+10
-3.9136e+10
-3.90337e+10
-3.88835e+10
-3.86799e+10
-3.84214e+10
-3.81156e+10
-3.77818e+10
-3.74443e+10
-3.71265e+10
-3.68455e+10
-3.66102e+10
-3.64227e+10
-3.62795e+10
-3.61721e+10
-3.60901e+10
-3.60236e+10
-3.59642e+10
-3.59065e+10
-3.58506e+10
-3.58027e+10
-3.57737e+10
-3.57768e+10
-3.58232e+10
-3.5914e+10
-3.60348e+10
-3.61556e+10
-3.62462e+10
-3.63058e+10
-3.63631e+10
-3.63577e+10
-3.58967e+10
-3.43683e+10
-3.24568e+10
-3.45962e+10
-4.63465e+10
-5.82197e+10
-3.07706e+10
-3.84239e+10
-3.84043e+10
-3.83689e+10
-3.83606e+10
-3.84451e+10
-3.85233e+10
-3.85921e+10
-3.86637e+10
-3.87409e+10
-3.88333e+10
-3.89322e+10
-3.90218e+10
-3.90962e+10
-3.91553e+10
-3.91963e+10
-3.92116e+10
-3.91933e+10
-3.91364e+10
-3.90363e+10
-3.88882e+10
-3.86867e+10
-3.843e+10
-3.81265e+10
-3.7795e+10
-3.74602e+10
-3.71452e+10
-3.68668e+10
-3.66344e+10
-3.64499e+10
-3.63095e+10
-3.62057e+10
-3.61282e+10
-3.60662e+10
-3.60113e+10
-3.59587e+10
-3.5908e+10
-3.58652e+10
-3.58408e+10
-3.58473e+10
-3.58952e+10
-3.59849e+10
-3.61002e+10
-3.62082e+10
-3.62759e+10
-3.62995e+10
-3.63043e+10
-3.62202e+10
-3.56346e+10
-3.39314e+10
-3.18782e+10
-3.41498e+10
-4.63855e+10
-5.79952e+10
-2.97809e+10
-3.83362e+10
-3.83151e+10
-3.83004e+10
-3.83341e+10
-3.84021e+10
-3.84891e+10
-3.85712e+10
-3.86462e+10
-3.87348e+10
-3.88498e+10
-3.89717e+10
-3.9084e+10
-3.9185e+10
-3.92729e+10
-3.93407e+10
-3.93794e+10
-3.93801e+10
-3.93359e+10
-3.9243e+10
-3.90949e+10
-3.88821e+10
-3.85952e+10
-3.82394e+10
-3.7841e+10
-3.74362e+10
-3.70591e+10
-3.67318e+10
-3.64651e+10
-3.62588e+10
-3.61053e+10
-3.59931e+10
-3.59099e+10
-3.58448e+10
-3.5788e+10
-3.57323e+10
-3.56768e+10
-3.56268e+10
-3.55927e+10
-3.55871e+10
-3.56202e+10
-3.56931e+10
-3.57917e+10
-3.58852e+10
-3.59425e+10
-3.59587e+10
-3.59573e+10
-3.58721e+10
-3.53012e+10
-3.36022e+10
-3.14134e+10
-3.3288e+10
-4.508e+10
-5.72108e+10
-2.97896e+10
-3.8303e+10
-3.82837e+10
-3.83138e+10
-3.83512e+10
-3.84104e+10
-3.84779e+10
-3.85579e+10
-3.8646e+10
-3.87464e+10
-3.88614e+10
-3.89817e+10
-3.90972e+10
-3.92024e+10
-3.92938e+10
-3.93644e+10
-3.94046e+10
-3.94054e+10
-3.93602e+10
-3.92645e+10
-3.91122e+10
-3.8893e+10
-3.85979e+10
-3.82332e+10
-3.78259e+10
-3.74142e+10
-3.70316e+10
-3.67007e+10
-3.64319e+10
-3.62249e+10
-3.6072e+10
-3.59613e+10
-3.588e+10
-3.58162e+10
-3.57601e+10
-3.57053e+10
-3.56508e+10
-3.56014e+10
-3.55674e+10
-3.55612e+10
-3.55927e+10
-3.5662e+10
-3.57532e+10
-3.58339e+10
-3.58697e+10
-3.58519e+10
-3.5797e+10
-3.56272e+10
-3.49226e+10
-3.29991e+10
-3.03128e+10
-3.10657e+10
-4.20966e+10
-5.75771e+10
-3.37747e+10
-3.8311e+10
-3.8277e+10
-3.82757e+10
-3.83317e+10
-3.84117e+10
-3.84914e+10
-3.85684e+10
-3.86515e+10
-3.87628e+10
-3.8902e+10
-3.90437e+10
-3.91819e+10
-3.93153e+10
-3.94386e+10
-3.95427e+10
-3.96164e+10
-3.96472e+10
-3.9627e+10
-3.95509e+10
-3.94143e+10
-3.92005e+10
-3.88863e+10
-3.8469e+10
-3.79854e+10
-3.74963e+10
-3.7052e+10
-3.66818e+10
-3.63949e+10
-3.61865e+10
-3.60429e+10
-3.59479e+10
-3.58857e+10
-3.5842e+10
-3.5805e+10
-3.57677e+10
-3.57283e+10
-3.56914e+10
-3.56663e+10
-3.56645e+10
-3.56947e+10
-3.57565e+10
-3.58339e+10
-3.58954e+10
-3.59081e+10
-3.58641e+10
-3.57803e+10
-3.55803e+10
-3.48446e+10
-3.28695e+10
-3.0098e+10
-3.08569e+10
-4.20422e+10
-5.72654e+10
-3.24416e+10
-3.82733e+10
-3.82341e+10
-3.82747e+10
-3.83502e+10
-3.84135e+10
-3.84735e+10
-3.8556e+10
-3.86524e+10
-3.87687e+10
-3.89041e+10
-3.90455e+10
-3.91861e+10
-3.93215e+10
-3.94458e+10
-3.95499e+10
-3.96222e+10
-3.9651e+10
-3.96281e+10
-3.95498e+10
-3.94108e+10
-3.91945e+10
-3.88784e+10
-3.84595e+10
-3.79749e+10
-3.74843e+10
-3.70375e+10
-3.66632e+10
-3.63705e+10
-3.61548e+10
-3.60034e+10
-3.59001e+10
-3.58286e+10
-3.57753e+10
-3.57288e+10
-3.56821e+10
-3.56338e+10
-3.55887e+10
-3.55564e+10
-3.55496e+10
-3.55784e+10
-3.56443e+10
-3.57338e+10
-3.58191e+10
-3.58713e+10
-3.58883e+10
-3.58934e+10
-3.58172e+10
-3.52404e+10
-3.34279e+10
-3.07089e+10
-3.12277e+10
-4.19646e+10
-5.70859e+10
-3.24826e+10
-3.82114e+10
-3.81762e+10
-3.81788e+10
-3.82319e+10
-3.83195e+10
-3.83991e+10
-3.84802e+10
-3.85856e+10
-3.87264e+10
-3.88912e+10
-3.90663e+10
-3.92475e+10
-3.94297e+10
-3.96048e+10
-3.97612e+10
-3.98838e+10
-3.99554e+10
-3.99632e+10
-3.99028e+10
-3.97742e+10
-3.9556e+10
-3.91996e+10
-3.86755e+10
-3.80369e+10
-3.73966e+10
-3.68392e+10
-3.64011e+10
-3.6086e+10
-3.58777e+10
-3.57513e+10
-3.56817e+10
-3.56473e+10
-3.563e+10
-3.56168e+10
-3.56003e+10
-3.55805e+10
-3.55636e+10
-3.55609e+10
-3.55862e+10
-3.56506e+10
-3.57566e+10
-3.58918e+10
-3.60302e+10
-3.61464e+10
-3.62423e+10
-3.6347e+10
-3.63974e+10
-3.59831e+10
-3.44031e+10
-3.21038e+10
-3.3378e+10
-4.45524e+10
-5.77241e+10
-2.97334e+10
-3.82172e+10
-3.81776e+10
-3.81951e+10
-3.82619e+10
-3.83321e+10
-3.84038e+10
-3.84997e+10
-3.86155e+10
-3.87532e+10
-3.89132e+10
-3.90876e+10
-3.92694e+10
-3.94518e+10
-3.96269e+10
-3.97833e+10
-3.99056e+10
-3.99766e+10
-3.99822e+10
-3.9918e+10
-3.97834e+10
-3.95593e+10
-3.91982e+10
-3.8672e+10
-3.80355e+10
-3.73994e+10
-3.68486e+10
-3.64175e+10
-3.61087e+10
-3.59055e+10
-3.57835e+10
-3.57166e+10
-3.56827e+10
-3.56632e+10
-3.56448e+10
-3.56203e+10
-3.55893e+10
-3.55578e+10
-3.55372e+10
-3.55414e+10
-3.55825e+10
-3.56641e+10
-3.57769e+10
-3.58991e+10
-3.60117e+10
-3.6126e+10
-3.62841e+10
-3.64394e+10
-3.6196e+10
-3.48504e+10
-3.28504e+10
-3.46769e+10
-4.65235e+10
-5.84187e+10
-3.0342e+10
-3.82152e+10
-3.82059e+10
-3.81991e+10
-3.82249e+10
-3.8297e+10
-3.83767e+10
-3.84708e+10
-3.86001e+10
-3.87627e+10
-3.89489e+10
-3.91573e+10
-3.93812e+10
-3.9612e+10
-3.98392e+10
-4.00483e+10
-4.02211e+10
-4.03375e+10
-4.03799e+10
-4.03447e+10
-4.02406e+10
-4.0054e+10
-3.96976e+10
-3.90693e+10
-3.82239e+10
-3.73717e+10
-3.66722e+10
-3.61651e+10
-3.58385e+10
-3.56514e+10
-3.55598e+10
-3.55262e+10
-3.55214e+10
-3.55238e+10
-3.55193e+10
-3.55013e+10
-3.54701e+10
-3.54333e+10
-3.54039e+10
-3.53977e+10
-3.54283e+10
-3.55005e+10
-3.56055e+10
-3.57234e+10
-3.58389e+10
-3.5969e+10
-3.61612e+10
-3.63677e+10
-3.61811e+10
-3.4908e+10
-3.31033e+10
-3.53593e+10
-4.77751e+10
-6.07611e+10
-3.28359e+10
-3.82244e+10
-3.82082e+10
-3.82002e+10
-3.82308e+10
-3.82981e+10
-3.83886e+10
-3.84931e+10
-3.86245e+10
-3.87853e+10
-3.89736e+10
-3.91844e+10
-3.94103e+10
-3.96425e+10
-3.98704e+10
-4.00791e+10
-4.02503e+10
-4.03636e+10
-4.0402e+10
-4.0361e+10
-4.02501e+10
-4.00555e+10
-3.96907e+10
-3.9055e+10
-3.8201e+10
-3.73404e+10
-3.66356e+10
-3.61281e+10
-3.5805e+10
-3.56246e+10
-3.55423e+10
-3.55195e+10
-3.55262e+10
-3.55405e+10
-3.55479e+10
-3.55417e+10
-3.55226e+10
-3.54977e+10
-3.548e+10
-3.54853e+10
-3.55267e+10
-3.56087e+10
-3.57224e+10
-3.58472e+10
-3.59671e+10
-3.60983e+10
-3.62865e+10
-3.64786e+10
-3.62521e+10
-3.48639e+10
-3.27043e+10
-3.41402e+10
-4.63298e+10
-6.26881e+10
-4.00739e+10
-3.80889e+10
-3.8093e+10
-3.80781e+10
-3.80896e+10
-3.81404e+10
-3.82176e+10
-3.83238e+10
-3.84673e+10
-3.86503e+10
-3.88709e+10
-3.91248e+10
-3.94045e+10
-3.97006e+10
-3.99996e+10
-4.02834e+10
-4.05299e+10
-4.07139e+10
-4.08112e+10
-4.08125e+10
-4.07435e+10
-4.06259e+10
-4.03425e+10
-3.96284e+10
-3.84537e+10
-3.72205e+10
-3.63081e+10
-3.57338e+10
-3.54253e+10
-3.52943e+10
-3.5271e+10
-3.53044e+10
-3.53585e+10
-3.54094e+10
-3.54428e+10
-3.54529e+10
-3.54405e+10
-3.54133e+10
-3.53844e+10
-3.5369e+10
-3.53791e+10
-3.54173e+10
-3.5473e+10
-3.55246e+10
-3.55565e+10
-3.55866e+10
-3.56594e+10
-3.57105e+10
-3.52966e+10
-3.36802e+10
-3.13702e+10
-3.30432e+10
-4.61052e+10
-6.45906e+10
-4.45777e+10
-3.80813e+10
-3.80752e+10
-3.80629e+10
-3.8078e+10
-3.81377e+10
-3.8221e+10
-3.83239e+10
-3.84671e+10
-3.86504e+10
-3.8871e+10
-3.91247e+10
-3.94043e+10
-3.96999e+10
-3.99981e+10
-4.02808e+10
-4.05259e+10
-4.0709e+10
-4.08072e+10
-4.08125e+10
-4.07512e+10
-4.06443e+10
-4.03736e+10
-3.96752e+10
-3.85148e+10
-3.72845e+10
-3.63661e+10
-3.57802e+10
-3.54583e+10
-3.53166e+10
-3.52863e+10
-3.53163e+10
-3.53708e+10
-3.54259e+10
-3.54682e+10
-3.54919e+10
-3.54988e+10
-3.5498e+10
-3.55039e+10
-3.55322e+10
-3.55953e+10
-3.56963e+10
-3.58239e+10
-3.59553e+10
-3.60718e+10
-3.61856e+10
-3.63314e+10
-3.64295e+10
-3.60145e+10
-3.42964e+10
-3.16078e+10
-3.22946e+10
-4.41938e+10
-6.30979e+10
-4.40913e+10
-3.80155e+10
-3.8018e+10
-3.80236e+10
-3.80503e+10
-3.8101e+10
-3.81837e+10
-3.83062e+10
-3.84749e+10
-3.86939e+10
-3.89625e+10
-3.92748e+10
-3.96221e+10
-3.99934e+10
-4.03736e+10
-4.07405e+10
-4.10661e+10
-4.13208e+10
-4.14765e+10
-4.15158e+10
-4.14765e+10
-4.14526e+10
-4.1348e+10
-4.05921e+10
-3.8781e+10
-3.67479e+10
-3.55733e+10
-3.50333e+10
-3.48337e+10
-3.48359e+10
-3.49382e+10
-3.50798e+10
-3.52243e+10
-3.53519e+10
-3.54531e+10
-3.55254e+10
-3.55724e+10
-3.5603e+10
-3.56312e+10
-3.56727e+10
-3.57394e+10
-3.58335e+10
-3.59429e+10
-3.60442e+10
-3.61196e+10
-3.61817e+10
-3.62607e+10
-3.62608e+10
-3.57104e+10
-3.39169e+10
-3.15364e+10
-3.31831e+10
-4.55518e+10
-6.12098e+10
-3.76821e+10
-3.8008e+10
-3.80095e+10
-3.80238e+10
-3.80565e+10
-3.81119e+10
-3.81909e+10
-3.83081e+10
-3.8472e+10
-3.86855e+10
-3.89468e+10
-3.92503e+10
-3.95877e+10
-3.99484e+10
-4.03175e+10
-4.06732e+10
-4.0988e+10
-4.12331e+10
-4.13816e+10
-4.14174e+10
-4.13797e+10
-4.13605e+10
-4.12694e+10
-4.05719e+10
-3.8855e+10
-3.68961e+10
-3.57133e+10
-3.51291e+10
-3.48886e+10
-3.48607e+10
-3.49404e+10
-3.50641e+10
-3.5193e+10
-3.53065e+10
-3.53942e+10
-3.54536e+10
-3.54891e+10
-3.55108e+10
-3.55344e+10
-3.55771e+10
-3.5653e+10
-3.57664e+10
-3.59083e+10
-3.6059e+10
-3.62038e+10
-3.6359e+10
-3.65575e+10
-3.67054e+10
-3.6327e+10
-3.47018e+10
-3.24269e+10
-3.41165e+10
-4.63128e+10
-5.9707e+10
-3.24515e+10
-3.78505e+10
-3.78211e+10
-3.78337e+10
-3.78519e+10
-3.78826e+10
-3.79397e+10
-3.80417e+10
-3.82013e+10
-3.84263e+10
-3.87175e+10
-3.90693e+10
-3.94747e+10
-3.99283e+10
-4.04215e+10
-4.09292e+10
-4.14095e+10
-4.18224e+10
-4.21362e+10
-4.23197e+10
-4.23953e+10
-4.25275e+10
-4.27746e+10
-4.22591e+10
-3.94143e+10
-3.57395e+10
-3.41436e+10
-3.36906e+10
-3.37074e+10
-3.39676e+10
-3.42809e+10
-3.45731e+10
-3.48179e+10
-3.50103e+10
-3.51524e+10
-3.52494e+10
-3.531e+10
-3.53468e+10
-3.5376e+10
-3.5415e+10
-3.54778e+10
-3.55692e+10
-3.56811e+10
-3.5795e+10
-3.58979e+10
-3.60065e+10
-3.61494e+10
-3.62212e+10
-3.57555e+10
-3.41661e+10
-3.2427e+10
-3.53073e+10
-4.77015e+10
-5.81622e+10
-3.02799e+10
-3.78579e+10
-3.78437e+10
-3.78592e+10
-3.78812e+10
-3.79112e+10
-3.79644e+10
-3.80606e+10
-3.82117e+10
-3.84255e+10
-3.87024e+10
-3.90374e+10
-3.94239e+10
-3.98569e+10
-4.03279e+10
-4.08131e+10
-4.1272e+10
-4.16661e+10
-4.19652e+10
-4.21263e+10
-4.21643e+10
-4.22642e+10
-4.25443e+10
-4.21898e+10
-3.96608e+10
-3.61958e+10
-3.45367e+10
-3.3968e+10
-3.39047e+10
-3.41034e+10
-3.43714e+10
-3.46318e+10
-3.48534e+10
-3.50275e+10
-3.51532e+10
-3.52344e+10
-3.5279e+10
-3.52994e+10
-3.53114e+10
-3.53326e+10
-3.53778e+10
-3.54531e+10
-3.55523e+10
-3.56595e+10
-3.57654e+10
-3.58902e+10
-3.60662e+10
-3.61876e+10
-3.5775e+10
-3.41933e+10
-3.22681e+10
-3.45422e+10
-4.6222e+10
-5.73289e+10
-2.94305e+10
-3.76377e+10
-3.76069e+10
-3.76127e+10
-3.76096e+10
-3.76201e+10
-3.76598e+10
-3.77559e+10
-3.79323e+10
-3.82071e+10
-3.85863e+10
-3.90656e+10
-3.96371e+10
-4.03003e+10
-4.10509e+10
-4.18437e+10
-4.2597e+10
-4.3259e+10
-4.38093e+10
-4.4211e+10
-4.44426e+10
-4.46602e+10
-4.51544e+10
-4.55447e+10
-4.25153e+10
-3.68662e+10
-3.2591e+10
-3.2314e+10
-3.28093e+10
-3.33961e+10
-3.38911e+10
-3.42821e+10
-3.45815e+10
-3.48049e+10
-3.49638e+10
-3.5069e+10
-3.51327e+10
-3.517e+10
-3.51978e+10
-3.52331e+10
-3.52893e+10
-3.53704e+10
-3.54675e+10
-3.55616e+10
-3.56391e+10
-3.57139e+10
-3.58096e+10
-3.58173e+10
-3.52837e+10
-3.36681e+10
-3.19324e+10
-3.451e+10
-4.61535e+10
-5.73178e+10
-2.9293e+10
-3.76416e+10
-3.76156e+10
-3.76229e+10
-3.7619e+10
-3.76274e+10
-3.76653e+10
-3.77584e+10
-3.79303e+10
-3.81985e+10
-3.8569e+10
-3.90377e+10
-3.95996e+10
-4.02546e+10
-4.09952e+10
-4.17802e+10
-4.25265e+10
-4.31683e+10
-4.36926e+10
-4.40182e+10
-4.41046e+10
-4.42102e+10
-4.48619e+10
-4.55222e+10
-4.29599e+10
-3.75421e+10
-3.25782e+10
-3.23578e+10
-3.2876e+10
-3.34624e+10
-3.39503e+10
-3.43344e+10
-3.46288e+10
-3.48498e+10
-3.50088e+10
-3.51158e+10
-3.51819e+10
-3.52209e+10
-3.52489e+10
-3.5282e+10
-3.53324e+10
-3.54031e+10
-3.54832e+10
-3.55517e+10
-3.55924e+10
-3.56152e+10
-3.56362e+10
-3.55287e+10
-3.47929e+10
-3.27983e+10
-3.03879e+10
-3.19374e+10
-4.28459e+10
-5.64976e+10
-3.39952e+10
-3.75703e+10
-3.75668e+10
-3.75483e+10
-3.75249e+10
-3.75126e+10
-3.75356e+10
-3.76258e+10
-3.78149e+10
-3.81262e+10
-3.85632e+10
-3.91111e+10
-3.97475e+10
-4.04651e+10
-4.12558e+10
-4.2071e+10
-4.28374e+10
-4.3494e+10
-4.40217e+10
-4.44079e+10
-4.46404e+10
-4.48521e+10
-4.54915e+10
-4.65172e+10
-4.63504e+10
-4.17422e+10
-2.69447e+10
-2.9615e+10
-3.16775e+10
-3.28841e+10
-3.3632e+10
-3.41383e+10
-3.44943e+10
-3.475e+10
-3.49316e+10
-3.50573e+10
-3.51429e+10
-3.52049e+10
-3.52609e+10
-3.53274e+10
-3.54159e+10
-3.55273e+10
-3.56479e+10
-3.5752e+10
-3.58173e+10
-3.58471e+10
-3.58569e+10
-3.57381e+10
-3.50471e+10
-3.32331e+10
-3.12122e+10
-3.36056e+10
-4.58784e+10
-5.87433e+10
-3.45687e+10
-3.75613e+10
-3.75566e+10
-3.7537e+10
-3.75152e+10
-3.75068e+10
-3.75343e+10
-3.76266e+10
-3.78131e+10
-3.81153e+10
-3.85385e+10
-3.90735e+10
-3.97068e+10
-4.04316e+10
-4.1235e+10
-4.20744e+10
-4.28624e+10
-4.34953e+10
-4.39809e+10
-4.4315e+10
-4.44523e+10
-4.46187e+10
-4.55531e+10
-4.66647e+10
-4.66274e+10
-4.33999e+10
-2.66526e+10
-2.9495e+10
-3.15882e+10
-3.28312e+10
-3.35962e+10
-3.41108e+10
-3.44702e+10
-3.47268e+10
-3.49082e+10
-3.50335e+10
-3.51183e+10
-3.5179e+10
-3.52326e+10
-3.52952e+10
-3.53776e+10
-3.54801e+10
-3.55881e+10
-3.56749e+10
-3.57168e+10
-3.57147e+10
-3.56785e+10
-3.54829e+10
-3.46339e+10
-3.25276e+10
-3.03282e+10
-3.36051e+10
-4.78518e+10
-5.84664e+10
-2.90218e+10
-3.75257e+10
-3.7533e+10
-3.75064e+10
-3.74791e+10
-3.74626e+10
-3.74862e+10
-3.75823e+10
-3.7784e+10
-3.81134e+10
-3.85654e+10
-3.91112e+10
-3.97346e+10
-4.04423e+10
-4.12389e+10
-4.20683e+10
-4.28361e+10
-4.35062e+10
-4.40487e+10
-4.44359e+10
-4.46816e+10
-4.4931e+10
-4.54523e+10
-4.66334e+10
-4.35941e+10
-2.04227e+10
-2.91807e+10
-3.13645e+10
-3.26627e+10
-3.34593e+10
-3.39862e+10
-3.43464e+10
-3.45976e+10
-3.47707e+10
-3.48862e+10
-3.49613e+10
-3.50132e+10
-3.50596e+10
-3.51174e+10
-3.51976e+10
-3.5301e+10
-3.54135e+10
-3.55086e+10
-3.55634e+10
-3.55825e+10
-3.55893e+10
-3.54983e+10
-3.48941e+10
-3.31986e+10
-3.1146e+10
-3.2987e+10
-4.42772e+10
-5.86134e+10
-3.81837e+10
-3.7543e+10
-3.75731e+10
-3.75401e+10
-3.75173e+10
-3.75044e+10
-3.75294e+10
-3.76212e+10
-3.78107e+10
-3.81196e+10
-3.85507e+10
-3.90899e+10
-3.97211e+10
-4.0441e+10
-4.1241e+10
-4.20695e+10
-4.28427e+10
-4.34829e+10
-4.395e+10
-4.42717e+10
-4.44296e+10
-4.46374e+10
-4.54802e+10
-4.70056e+10
-4.61673e+10
-2.15035e+10
-2.91477e+10
-3.13037e+10
-3.26162e+10
-3.34272e+10
-3.39616e+10
-3.43241e+10
-3.45735e+10
-3.47415e+10
-3.48489e+10
-3.49129e+10
-3.49506e+10
-3.49803e+10
-3.50188e+10
-3.50784e+10
-3.51608e+10
-3.5254e+10
-3.53345e+10
-3.53821e+10
-3.54045e+10
-3.54261e+10
-3.53563e+10
-3.47595e+10
-3.30637e+10
-3.12905e+10
-3.4455e+10
-4.76486e+10
-5.88566e+10
-3.01431e+10
-3.75691e+10
-3.75626e+10
-3.75536e+10
-3.75383e+10
-3.75365e+10
-3.75693e+10
-3.76659e+10
-3.78564e+10
-3.81636e+10
-3.85877e+10
-3.91051e+10
-3.96984e+10
-4.03763e+10
-4.11431e+10
-4.19402e+10
-4.26931e+10
-4.33447e+10
-4.38567e+10
-4.42117e+10
-4.43951e+10
-4.45523e+10
-4.50269e+10
-4.56598e+10
-4.46746e+10
-3.57757e+10
-3.16596e+10
-3.16849e+10
-3.2443e+10
-3.31815e+10
-3.37427e+10
-3.41501e+10
-3.44422e+10
-3.46487e+10
-3.47881e+10
-3.48748e+10
-3.49219e+10
-3.49446e+10
-3.49591e+10
-3.49815e+10
-3.50231e+10
-3.50856e+10
-3.51573e+10
-3.52158e+10
-3.52435e+10
-3.52531e+10
-3.52824e+10
-3.5274e+10
-3.48537e+10
-3.34779e+10
-3.19233e+10
-3.45477e+10
-4.63053e+10
-5.68241e+10
-2.9706e+10
-3.7617e+10
-3.76304e+10
-3.76243e+10
-3.76202e+10
-3.76285e+10
-3.76693e+10
-3.77674e+10
-3.79483e+10
-3.82308e+10
-3.8618e+10
-3.9098e+10
-3.96582e+10
-4.0297e+10
-4.10093e+10
-4.17529e+10
-4.24628e+10
-4.30946e+10
-4.35747e+10
-4.39413e+10
-4.41772e+10
-4.43911e+10
-4.49559e+10
-4.5375e+10
-4.44829e+10
-3.65036e+10
-3.13614e+10
-3.14395e+10
-3.229e+10
-3.30945e+10
-3.3696e+10
-3.41253e+10
-3.44286e+10
-3.46391e+10
-3.47779e+10
-3.48601e+10
-3.48998e+10
-3.49122e+10
-3.49141e+10
-3.49221e+10
-3.49484e+10
-3.4996e+10
-3.50547e+10
-3.51035e+10
-3.51252e+10
-3.5131e+10
-3.51524e+10
-3.51202e+10
-3.46376e+10
-3.31132e+10
-3.1191e+10
-3.31516e+10
-4.47734e+10
-5.73097e+10
-3.1227e+10
-3.78372e+10
-3.78302e+10
-3.78428e+10
-3.7856e+10
-3.7884e+10
-3.79392e+10
-3.80388e+10
-3.81996e+10
-3.84333e+10
-3.87408e+10
-3.91116e+10
-3.95338e+10
-4.0001e+10
-4.05027e+10
-4.10073e+10
-4.14719e+10
-4.18517e+10
-4.21047e+10
-4.22058e+10
-4.21852e+10
-4.22229e+10
-4.24347e+10
-4.20446e+10
-3.94499e+10
-3.6227e+10
-3.45198e+10
-3.3893e+10
-3.37837e+10
-3.39414e+10
-3.41622e+10
-3.43755e+10
-3.45527e+10
-3.46867e+10
-3.47767e+10
-3.48263e+10
-3.4843e+10
-3.4838e+10
-3.48253e+10
-3.4819e+10
-3.48293e+10
-3.48571e+10
-3.48912e+10
-3.49098e+10
-3.48968e+10
-3.48667e+10
-3.4861e+10
-3.48348e+10
-3.44362e+10
-3.31138e+10
-3.14951e+10
-3.37363e+10
-4.52476e+10
-5.6994e+10
-2.97061e+10
-3.78336e+10
-3.78296e+10
-3.78429e+10
-3.78592e+10
-3.7891e+10
-3.795e+10
-3.80527e+10
-3.82145e+10
-3.84458e+10
-3.87474e+10
-3.91107e+10
-3.95242e+10
-3.99787e+10
-4.04608e+10
-4.09422e+10
-4.13865e+10
-4.1759e+10
-4.20198e+10
-4.21555e+10
-4.21959e+10
-4.22953e+10
-4.25333e+10
-4.20984e+10
-3.95495e+10
-3.61896e+10
-3.43545e+10
-3.37349e+10
-3.36696e+10
-3.38685e+10
-3.41171e+10
-3.43466e+10
-3.45318e+10
-3.46684e+10
-3.47577e+10
-3.48046e+10
-3.48174e+10
-3.48084e+10
-3.47923e+10
-3.47844e+10
-3.47957e+10
-3.48286e+10
-3.48725e+10
-3.49057e+10
-3.49097e+10
-3.4892e+10
-3.48809e+10
-3.48105e+10
-3.4295e+10
-3.26846e+10
-3.02688e+10
-3.07291e+10
-4.09e+10
-5.65887e+10
-3.65695e+10
-3.79412e+10
-3.79433e+10
-3.79649e+10
-3.79981e+10
-3.80506e+10
-3.81302e+10
-3.82471e+10
-3.84104e+10
-3.86251e+10
-3.88904e+10
-3.91993e+10
-3.95417e+10
-3.99052e+10
-4.0272e+10
-4.06173e+10
-4.09132e+10
-4.11328e+10
-4.12478e+10
-4.12376e+10
-4.11336e+10
-4.10292e+10
-4.08548e+10
-4.01052e+10
-3.84307e+10
-3.6598e+10
-3.54426e+10
-3.48179e+10
-3.45239e+10
-3.44541e+10
-3.44998e+10
-3.45942e+10
-3.46954e+10
-3.47811e+10
-3.48405e+10
-3.48712e+10
-3.48771e+10
-3.48678e+10
-3.4856e+10
-3.48552e+10
-3.48747e+10
-3.49152e+10
-3.49648e+10
-3.50019e+10
-3.50103e+10
-3.50039e+10
-3.50239e+10
-3.50273e+10
-3.46707e+10
-3.34103e+10
-3.18271e+10
-3.38408e+10
-4.45932e+10
-5.61654e+10
-2.94452e+10
-3.79214e+10
-3.79254e+10
-3.79462e+10
-3.79794e+10
-3.80325e+10
-3.81136e+10
-3.82333e+10
-3.84009e+10
-3.8622e+10
-3.88958e+10
-3.92157e+10
-3.95714e+10
-3.99494e+10
-4.03313e+10
-4.06916e+10
-4.10012e+10
-4.12304e+10
-4.13506e+10
-4.13502e+10
-4.12654e+10
-4.11771e+10
-4.09892e+10
-4.01918e+10
-3.84359e+10
-3.65088e+10
-3.53098e+10
-3.46979e+10
-3.44337e+10
-3.43927e+10
-3.44589e+10
-3.4565e+10
-3.4671e+10
-3.47568e+10
-3.48136e+10
-3.48401e+10
-3.48417e+10
-3.48286e+10
-3.48149e+10
-3.48148e+10
-3.48384e+10
-3.48869e+10
-3.49489e+10
-3.50025e+10
-3.50292e+10
-3.50368e+10
-3.50552e+10
-3.5024e+10
-3.45653e+10
-3.30284e+10
-3.07083e+10
-3.13099e+10
-4.14482e+10
-5.63619e+10
-3.60703e+10
-3.80287e+10
-3.80355e+10
-3.80591e+10
-3.80973e+10
-3.81556e+10
-3.82395e+10
-3.83556e+10
-3.85091e+10
-3.87026e+10
-3.89346e+10
-3.91998e+10
-3.94901e+10
-3.97935e+10
-4.00941e+10
-4.03718e+10
-4.06047e+10
-4.07716e+10
-4.08493e+10
-4.08233e+10
-4.0711e+10
-4.05262e+10
-4.01519e+10
-3.93382e+10
-3.80819e+10
-3.68066e+10
-3.5874e+10
-3.52936e+10
-3.4982e+10
-3.4854e+10
-3.48366e+10
-3.4877e+10
-3.49382e+10
-3.49969e+10
-3.50403e+10
-3.50639e+10
-3.50704e+10
-3.50688e+10
-3.50714e+10
-3.50913e+10
-3.51374e+10
-3.52096e+10
-3.52953e+10
-3.53725e+10
-3.54244e+10
-3.54646e+10
-3.55328e+10
-3.5581e+10
-3.52528e+10
-3.40003e+10
-3.24745e+10
-3.48127e+10
-4.62828e+10
-5.80851e+10
-3.22492e+10
-3.8032e+10
-3.80348e+10
-3.80569e+10
-3.80924e+10
-3.81481e+10
-3.82293e+10
-3.83431e+10
-3.8495e+10
-3.86881e+10
-3.89214e+10
-3.91902e+10
-3.94866e+10
-3.97991e+10
-4.01121e+10
-4.04054e+10
-4.06558e+10
-4.08382e+10
-4.09272e+10
-4.09103e+10
-4.08072e+10
-4.06285e+10
-4.0245e+10
-3.93968e+10
-3.80926e+10
-3.67789e+10
-3.58406e+10
-3.52733e+10
-3.49751e+10
-3.48551e+10
-3.48397e+10
-3.48772e+10
-3.49326e+10
-3.4984e+10
-3.50193e+10
-3.5035e+10
-3.50343e+10
-3.50262e+10
-3.50235e+10
-3.50392e+10
-3.50815e+10
-3.51494e+10
-3.52288e+10
-3.52953e+10
-3.53291e+10
-3.53395e+10
-3.53604e+10
-3.53365e+10
-3.48918e+10
-3.34357e+10
-3.16808e+10
-3.42937e+10
-4.69805e+10
-5.87901e+10
-2.94185e+10
-3.81508e+10
-3.81567e+10
-3.81815e+10
-3.82198e+10
-3.82764e+10
-3.83544e+10
-3.84578e+10
-3.85891e+10
-3.87489e+10
-3.89353e+10
-3.91438e+10
-3.93677e+10
-3.95977e+10
-3.98221e+10
-4.00266e+10
-4.01935e+10
-4.03014e+10
-4.0332e+10
-4.02803e+10
-4.0154e+10
-3.99372e+10
-3.95399e+10
-3.88613e+10
-3.79616e+10
-3.70613e+10
-3.63327e+10
-3.5815e+10
-3.54866e+10
-3.53012e+10
-3.52121e+10
-3.51811e+10
-3.51788e+10
-3.51844e+10
-3.51848e+10
-3.51744e+10
-3.51547e+10
-3.5133e+10
-3.51203e+10
-3.51282e+10
-3.51636e+10
-3.52239e+10
-3.52937e+10
-3.5347e+10
-3.53628e+10
-3.53496e+10
-3.53379e+10
-3.52591e+10
-3.47138e+10
-3.3088e+10
-3.09647e+10
-3.26136e+10
-4.49337e+10
-6.22268e+10
-4.20477e+10
-3.81614e+10
-3.81628e+10
-3.8188e+10
-3.82248e+10
-3.82797e+10
-3.83554e+10
-3.84559e+10
-3.85839e+10
-3.87401e+10
-3.89226e+10
-3.91271e+10
-3.93473e+10
-3.95742e+10
-3.97967e+10
-4.00006e+10
-4.01681e+10
-4.02781e+10
-4.03121e+10
-4.02652e+10
-4.01455e+10
-3.99369e+10
-3.95479e+10
-3.88785e+10
-3.79848e+10
-3.70899e+10
-3.63641e+10
-3.58451e+10
-3.55104e+10
-3.53151e+10
-3.52148e+10
-3.51726e+10
-3.51606e+10
-3.51583e+10
-3.51533e+10
-3.51401e+10
-3.512e+10
-3.51003e+10
-3.50918e+10
-3.51051e+10
-3.51459e+10
-3.52099e+10
-3.52792e+10
-3.53248e+10
-3.53226e+10
-3.52776e+10
-3.52189e+10
-3.50746e+10