/*--------------------------------*- C++ -*----------------------------------*\
| =========                 |                                                 |
| \\      /  F ield         | OpenFOAM: The Open Source CFD Toolbox           |
|  \\    /   O peration     | Version:  4.1                                   |
|   \\  /    A nd           | Web:      www.OpenFOAM.org                      |
|    \\/     M anipulation  |                                                 |
\*---------------------------------------------------------------------------*/
FoamFile
{
    version     2.0;
    format      ascii;
    class       surfaceScalarField;
    location    "61";
    object      phi;
}
// * * * * * * * * * * * * * * * * * * * * * * * * * * * * * * * * * * * * * //

dimensions      [0 3 -1 0 0 0 0];

internalField   nonuniform List<scalar> 
11516
(
-3.93025e+10
1.01081e+08
6.56178e+08
-3.9832e+10
6.96214e+07
4.2947e+08
-4.02853e+10
4.5775e+07
3.78692e+08
-4.05588e+10
-4.12384e+06
2.50443e+08
-4.08404e+10
2.91559e+07
2.26495e+08
-4.11069e+10
2.91495e+07
2.12455e+08
-4.13356e+10
2.16734e+07
1.82801e+08
-4.15508e+10
2.21586e+07
1.68975e+08
-4.17451e+10
2.04264e+07
1.49734e+08
-4.19155e+10
1.90998e+07
1.26788e+08
-4.20574e+10
1.77973e+07
9.86213e+07
-4.2166e+10
1.59016e+07
6.51725e+07
-4.2233e+10
1.25751e+07
2.18424e+07
-4.22549e+10
8.21717e+06
-2.76292e+07
-4.22264e+10
4.00859e+06
-8.55355e+07
-4.21422e+10
300693
-1.50963e+08
-4.19946e+10
-2.86882e+06
-2.21007e+08
-4.17758e+10
-5.79159e+06
-2.97794e+08
-4.14835e+10
-8.42406e+06
-3.75069e+08
-4.11154e+10
-1.10309e+07
-4.54931e+08
-4.06675e+10
-1.27113e+07
-5.33622e+08
-4.0144e+10
-1.37665e+07
-6.05757e+08
-3.95451e+10
-1.37727e+07
-6.73913e+08
-3.88839e+10
-1.33009e+07
-7.29842e+08
-3.81702e+10
-1.26299e+07
-7.78274e+08
-3.74223e+10
-1.19334e+07
-8.11727e+08
-3.66516e+10
-1.13029e+07
-8.36363e+08
-3.58744e+10
-1.05891e+07
-8.46229e+08
-3.51001e+10
-9.7909e+06
-8.47563e+08
-3.43392e+10
-8.8411e+06
-8.38554e+08
-3.36007e+10
-7.75284e+06
-8.20176e+08
-3.289e+10
-6.69607e+06
-7.96117e+08
-3.22166e+10
-5.64045e+06
-7.6173e+08
-3.15867e+10
-4.87521e+06
-7.19751e+08
-3.10074e+10
-4.88e+06
-6.68606e+08
-3.04851e+10
-6.88709e+06
-6.06642e+08
-3.00216e+10
-1.26228e+07
-5.36242e+08
-2.96193e+10
-2.38276e+07
-4.54086e+08
-2.92732e+10
-4.03218e+07
-3.6708e+08
-2.89846e+10
-6.13223e+07
-2.70348e+08
-2.87615e+10
-8.85372e+07
-1.56088e+08
-2.86163e+10
-1.24802e+08
-1.92054e+07
-2.857e+10
-1.72112e+08
1.49912e+08
-2.86561e+10
-2.32028e+08
3.62767e+08
-2.89307e+10
-3.04699e+08
6.3755e+08
-2.94888e+10
-3.87659e+08
9.96389e+08
-3.04519e+10
-4.84038e+08
1.44842e+09
-3.18699e+10
-6.50414e+08
1.93815e+09
-3.36444e+10
-1.05259e+09
2.43953e+09
-3.55699e+10
-1.94692e+09
3.09943e+09
-3.93681e+10
-2.93012e+09
5.37983e+09
-4.86522e+10
-9.33999e+08
9.15654e+09
-6.27721e+10
-2.61271e+09
1.61606e+10
-1.13415e+09
1.081e+10
-5.28741e+10
3.95654e+08
-5.30389e+10
2.18274e+08
-5.31627e+10
1.53673e+08
-5.32881e+10
1.05834e+08
-5.33348e+10
6.10524e+07
-5.33723e+10
5.24029e+07
-5.34002e+10
3.5546e+07
-5.34196e+10
2.75048e+07
-5.34285e+10
1.5123e+07
-5.34248e+10
804115
-5.34044e+10
-1.78279e+07
-5.33656e+10
-3.97457e+07
-5.33018e+10
-7.12418e+07
-5.32111e+10
-1.07633e+08
-5.30869e+10
-1.5186e+08
-5.29229e+10
-2.01897e+08
-5.2714e+10
-2.55124e+08
-5.24531e+10
-3.14266e+08
-5.214e+10
-3.73096e+08
-5.17713e+10
-4.33427e+08
-5.13451e+10
-4.92944e+08
-5.08655e+10
-5.45045e+08
-5.03335e+10
-5.94151e+08
-4.97612e+10
-6.30596e+08
-4.91558e+10
-6.60809e+08
-4.85334e+10
-6.76295e+08
-4.79022e+10
-6.84957e+08
-4.72763e+10
-6.79702e+08
-4.66624e+10
-6.6816e+08
-4.60687e+10
-6.47776e+08
-4.55025e+10
-6.19846e+08
-4.4966e+10
-5.89206e+08
-4.4466e+10
-5.51277e+08
-4.40052e+10
-5.10069e+08
-4.35876e+10
-4.64806e+08
-4.32187e+10
-4.14713e+08
-4.28992e+10
-3.66042e+08
-4.26345e+10
-3.1558e+08
-4.24252e+10
-2.67994e+08
-4.22742e+10
-2.19931e+08
-4.21889e+10
-1.69956e+08
-4.21802e+10
-1.17348e+08
-4.22655e+10
-5.88115e+07
-4.24697e+10
1.11561e+07
-4.28314e+10
1.02513e+08
-4.34059e+10
2.29135e+08
-4.4278e+10
4.02867e+08
-4.5576e+10
6.05747e+08
-4.76779e+10
8.84137e+08
-5.16046e+10
1.61649e+09
-5.90698e+10
4.12369e+09
-6.79909e+10
7.52873e+09
-8.54486e+10
1.45053e+10
1.44141e+10
-6.82136e+10
3.03568e+07
7.66682e+08
-6.83478e+10
1.01954e+07
5.36492e+08
-6.84744e+10
-7.94679e+06
4.95418e+08
-6.86196e+10
-6.20228e+06
3.84338e+08
-6.8716e+10
-1.56456e+07
3.21702e+08
-6.88124e+10
-1.43122e+07
3.06784e+08
-6.89127e+10
-1.50093e+07
2.81816e+08
-6.9006e+10
-1.48694e+07
2.60786e+08
-6.90926e+10
-1.60386e+07
2.35767e+08
-6.91744e+10
-1.62965e+07
2.08011e+08
-6.92481e+10
-1.72766e+07
1.71969e+08
-6.93101e+10
-1.88019e+07
1.26989e+08
-6.93592e+10
-2.1744e+07
7.09103e+07
-6.93916e+10
-2.6251e+07
5.14841e+06
-6.94073e+10
-3.20567e+07
-7.10055e+07
-6.94097e+10
-3.78347e+07
-1.50505e+08
-6.93987e+10
-4.36226e+07
-2.34956e+08
-6.9374e+10
-4.96562e+07
-3.23201e+08
-6.93344e+10
-5.67332e+07
-4.12998e+08
-6.92801e+10
-6.41375e+07
-5.02054e+08
-6.92137e+10
-7.21863e+07
-5.86303e+08
-6.91348e+10
-8.03604e+07
-6.61253e+08
-6.90483e+10
-8.8667e+07
-7.25237e+08
-6.89532e+10
-9.70449e+07
-7.77073e+08
-6.88596e+10
-1.05539e+08
-8.11651e+08
-6.87657e+10
-1.14032e+08
-8.346e+08
-6.86791e+10
-1.22478e+08
-8.42393e+08
-6.85962e+10
-1.30559e+08
-8.39998e+08
-6.85198e+10
-1.38145e+08
-8.2714e+08
-6.84435e+10
-1.44899e+08
-8.10385e+08
-6.83646e+10
-1.5071e+08
-7.87661e+08
-6.82781e+10
-1.55339e+08
-7.64273e+08
-6.81754e+10
-1.58579e+08
-7.39943e+08
-6.80505e+10
-1.60101e+08
-7.14137e+08
-6.7893e+10
-1.59861e+08
-6.90355e+08
-6.76927e+10
-1.57913e+08
-6.65571e+08
-6.74385e+10
-1.55843e+08
-6.41823e+08
-6.71173e+10
-1.5474e+08
-6.15647e+08
-6.6729e+10
-1.52212e+08
-5.84032e+08
-6.62761e+10
-1.46136e+08
-5.40837e+08
-6.57509e+10
-1.35994e+08
-4.90288e+08
-6.51412e+10
-1.21302e+08
-4.3261e+08
-6.44259e+10
-1.01526e+08
-3.68964e+08
-6.35832e+10
-7.49115e+07
-2.90512e+08
-6.25877e+10
-3.92821e+07
-1.87762e+08
-6.14043e+10
9.20603e+06
-5.58634e+07
-5.99753e+10
7.3158e+07
8.13427e+07
-5.82542e+10
1.42416e+08
1.80145e+08
-5.62007e+10
1.77837e+08
2.46632e+08
-5.43593e+10
3.8746e+08
8.04378e+08
-5.19926e+10
1.15047e+09
1.73889e+09
-4.71412e+10
2.51783e+09
1.64044e+09
-2.33604e+10
-2.84877e+09
-4.8362e+09
-4.70817e+09
-4.81795e+09
-7.65053e+10
5.05544e+08
-7.65922e+10
3.03835e+08
-7.67101e+10
2.52386e+08
-7.68354e+10
2.14007e+08
-7.69638e+10
1.63227e+08
-7.70899e+10
1.53765e+08
-7.72259e+10
1.46191e+08
-7.73622e+10
1.38379e+08
-7.74998e+10
1.2606e+08
-7.76391e+10
1.13015e+08
-7.7778e+10
9.2438e+07
-7.79127e+10
6.38368e+07
-7.80456e+10
2.58201e+07
-7.81769e+10
-1.97619e+07
-7.83061e+10
-7.56152e+07
-7.84336e+10
-1.37325e+08
-7.8555e+10
-2.05987e+08
-7.86721e+10
-2.78421e+08
-7.87831e+10
-3.52381e+08
-7.88894e+10
-4.26472e+08
-7.89926e+10
-4.97298e+08
-7.90928e+10
-5.59938e+08
-7.91949e+10
-6.13475e+08
-7.92969e+10
-6.56052e+08
-7.94092e+10
-6.82212e+08
-7.95282e+10
-6.98064e+08
-7.96621e+10
-6.99451e+08
-7.98063e+10
-6.91538e+08
-7.99641e+10
-6.73476e+08
-8.01289e+10
-6.52155e+08
-8.02978e+10
-6.24615e+08
-8.04666e+10
-5.96998e+08
-8.06262e+10
-5.69095e+08
-8.07715e+10
-5.40491e+08
-8.08918e+10
-5.1584e+08
-8.09777e+10
-4.9304e+08
-8.10254e+10
-4.73944e+08
-8.10317e+10
-4.55777e+08
-8.09918e+10
-4.42308e+08
-8.08942e+10
-4.34816e+08
-8.07199e+10
-4.39288e+08
-8.04507e+10
-4.5432e+08
-8.0059e+10
-4.85683e+08
-7.95137e+10
-5.30595e+08
-7.87744e+10
-5.87357e+08
-7.77814e+10
-6.61017e+08
-7.64314e+10
-7.8511e+08
-7.46172e+10
-1.00039e+09
-7.22996e+10
-1.23627e+09
-6.90545e+10
-1.27092e+09
-6.17301e+10
-2.13553e+09
-4.66654e+10
-5.04599e+09
-2.76566e+10
-7.21439e+09
-4.70293e+09
-5.77471e+10
2.43191e+08
3.04886e+08
-5.76389e+10
2.70669e+08
1.43698e+08
-5.7552e+10
2.63137e+08
1.31714e+08
-5.75741e+10
2.8002e+08
1.12952e+08
-5.75854e+10
2.65825e+08
5.37794e+07
-5.7598e+10
2.71842e+08
3.40582e+07
-5.76304e+10
2.77647e+08
2.32185e+07
-5.76676e+10
2.82663e+08
2.13305e+06
-5.77073e+10
2.85456e+08
-2.28642e+07
-5.77435e+10
2.8889e+08
-5.74e+07
-5.77747e+10
2.90861e+08
-1.00583e+08
-5.77977e+10
2.9163e+08
-1.55331e+08
-5.78081e+10
2.91065e+08
-2.2506e+08
-5.78013e+10
2.89568e+08
-3.09406e+08
-5.77755e+10
2.86222e+08
-4.06359e+08
-5.77154e+10
2.7992e+08
-5.1865e+08
-5.76146e+10
2.71576e+08
-6.42144e+08
-5.74691e+10
2.63275e+08
-7.69964e+08
-5.7274e+10
2.54763e+08
-9.05018e+08
-5.70279e+10
2.46436e+08
-1.03714e+09
-5.67363e+10
2.37567e+08
-1.16133e+09
-5.63987e+10
2.29416e+08
-1.27287e+09
-5.60263e+10
2.21569e+08
-1.36229e+09
-5.56293e+10
2.14665e+08
-1.42687e+09
-5.52186e+10
2.08186e+08
-1.46365e+09
-5.48108e+10
2.01913e+08
-1.47318e+09
-5.44172e+10
1.95444e+08
-1.45697e+09
-5.40474e+10
1.88543e+08
-1.42115e+09
-5.37066e+10
1.80876e+08
-1.36881e+09
-5.34007e+10
1.72284e+08
-1.3049e+09
-5.31269e+10
1.62652e+08
-1.23603e+09
-5.28876e+10
1.52169e+08
-1.1618e+09
-5.26775e+10
1.41353e+08
-1.09032e+09
-5.24918e+10
1.31312e+08
-1.02124e+09
-5.23295e+10
1.21178e+08
-9.53286e+08
-5.21799e+10
1.0959e+08
-8.90983e+08
-5.20374e+10
9.85295e+07
-8.33244e+08
-5.18947e+10
8.95627e+07
-7.78677e+08
-5.17335e+10
7.90019e+07
-7.31921e+08
-5.15171e+10
6.20323e+07
-6.99799e+08
-5.12161e+10
3.81406e+07
-6.79661e+08
-5.08017e+10
1.01765e+07
-6.74287e+08
-5.02543e+10
-2.0552e+07
-6.78082e+08
-4.95407e+10
-5.38707e+07
-6.97011e+08
-4.86185e+10
-8.95048e+07
-7.34141e+08
-4.7445e+10
-1.27223e+08
-7.9192e+08
-4.60161e+10
-1.73536e+08
-8.6027e+08
-4.43597e+10
-2.5735e+08
-9.32843e+08
-4.24874e+10
-4.00289e+08
-9.98703e+08
-4.00348e+10
-4.14826e+08
-1.04112e+09
-3.72857e+10
-2.98439e+08
-4.63612e+08
-3.83953e+10
1.77805e+08
3.02502e+09
-5.30896e+10
-6.30573e+09
1.67565e+10
-5.78752e+09
1.16328e+10
-6.24402e+10
6.55374e+08
-6.24071e+10
5.33281e+08
-6.24171e+10
5.173e+08
-6.24452e+10
5.13689e+08
-6.25163e+10
4.91658e+08
-6.2589e+10
4.89886e+08
-6.26724e+10
4.98795e+08
-6.27554e+10
4.96027e+08
-6.28434e+10
4.91807e+08
-6.29281e+10
4.79075e+08
-6.30125e+10
4.60102e+08
-6.30956e+10
4.30559e+08
-6.31744e+10
3.86662e+08
-6.32438e+10
3.28243e+08
-6.33052e+10
2.58354e+08
-6.33538e+10
1.74273e+08
-6.33881e+10
8.01831e+07
-6.34042e+10
-2.11326e+07
-6.33925e+10
-1.32803e+08
-6.33527e+10
-2.44574e+08
-6.32881e+10
-3.49276e+08
-6.31993e+10
-4.44175e+08
-6.30956e+10
-5.18518e+08
-6.29868e+10
-5.70338e+08
-6.28816e+10
-5.96186e+08
-6.27953e+10
-5.96586e+08
-6.27384e+10
-5.7272e+08
-6.272e+10
-5.30898e+08
-6.27459e+10
-4.73843e+08
-6.28237e+10
-4.06309e+08
-6.29512e+10
-3.34989e+08
-6.31331e+10
-2.5913e+08
-6.33632e+10
-1.88494e+08
-6.36293e+10
-1.27657e+08
-6.39269e+10
-7.41038e+07
-6.42479e+10
-3.05354e+07
-6.45832e+10
2.59577e+06
-6.49169e+10
2.30111e+07
-6.52381e+10
2.86788e+07
-6.55382e+10
1.53802e+07
-6.58176e+10
-1.42232e+07
-6.6066e+10
-6.74429e+07
-6.62804e+10
-1.41542e+08
-6.64486e+10
-2.44005e+08
-6.65558e+10
-3.77384e+08
-6.65919e+10
-5.46499e+08
-6.65962e+10
-7.49072e+08
-6.67061e+10
-9.59957e+08
-6.71339e+10
-1.03697e+09
-6.77692e+10
-8.6218e+08
-7.03328e+10
4.71377e+08
-7.87684e+10
4.14307e+09
-1.06436e+11
1.47584e+10
1.00179e+10
-6.37945e+10
1.03988e+08
2.97764e+08
-6.40226e+10
1.10987e+08
2.54559e+08
-6.41924e+10
9.77926e+07
1.96876e+08
-6.43796e+10
8.80371e+07
2.04859e+08
-6.45866e+10
7.35525e+07
1.79547e+08
-6.47865e+10
6.76207e+07
1.58694e+08
-6.49779e+10
6.55944e+07
1.41996e+08
-6.51656e+10
6.02755e+07
1.23592e+08
-6.53453e+10
5.26244e+07
9.93433e+07
-6.55141e+10
4.47266e+07
6.27897e+07
-6.56667e+10
3.58231e+07
1.30856e+07
-6.57993e+10
2.65108e+07
-5.22581e+07
-6.59096e+10
1.68236e+07
-1.34674e+08
-6.5997e+10
6.91547e+06
-2.33139e+08
-6.60528e+10
-3.25075e+06
-3.5196e+08
-6.60779e+10
-1.44557e+07
-4.87187e+08
-6.60681e+10
-2.61032e+07
-6.35931e+08
-6.60174e+10
-3.93408e+07
-7.94827e+08
-6.59238e+10
-5.40398e+07
-9.57723e+08
-6.57842e+10
-6.97122e+07
-1.12177e+09
-6.55985e+10
-8.40599e+07
-1.27738e+09
-6.53716e+10
-9.68899e+07
-1.41811e+09
-6.51077e+10
-1.06929e+08
-1.53262e+09
-6.48166e+10
-1.13499e+08
-1.61395e+09
-6.45073e+10
-1.16235e+08
-1.66079e+09
-6.41933e+10
-1.15155e+08
-1.67048e+09
-6.38841e+10
-1.10467e+08
-1.64884e+09
-6.35878e+10
-1.02697e+08
-1.60283e+09
-6.33098e+10
-9.25507e+07
-1.53677e+09
-6.305e+10
-8.09794e+07
-1.45992e+09
-6.28113e+10
-6.87887e+07
-1.37471e+09
-6.25901e+10
-5.69367e+07
-1.28655e+09
-6.23863e+10
-4.76408e+07
-1.19711e+09
-6.2195e+10
-4.2927e+07
-1.10921e+09
-6.20084e+10
-4.21197e+07
-1.02432e+09
-6.18251e+10
-4.42123e+07
-9.41927e+08
-6.16357e+10
-4.84029e+07
-8.68294e+08
-6.14302e+10
-5.46955e+07
-8.0282e+08
-6.12019e+10
-6.4245e+07
-7.44897e+08
-6.09456e+10
-7.75691e+07
-6.99643e+08
-6.06538e+10
-9.51261e+07
-6.6645e+08
-6.03189e+10
-1.18458e+08
-6.47964e+08
-5.99285e+10
-1.47906e+08
-6.43875e+08
-5.9482e+10
-1.82626e+08
-6.5177e+08
-5.89741e+10
-2.22894e+08
-6.81458e+08
-5.84017e+10
-2.6983e+08
-7.37538e+08
-5.77367e+10
-3.34054e+08
-8.26999e+08
-5.69055e+10
-4.32149e+08
-9.67742e+08
-5.58441e+10
-4.78022e+08
-1.1885e+09
-5.47197e+10
-1.66708e+08
-1.50229e+09
-5.30789e+10
4.05424e+08
-1.88036e+09
-4.79109e+10
3.0269e+08
-1.69049e+09
-1.97163e+10
-1.06516e+10
-1.63007e+08
-8.33299e+09
1.90604e+09
-6.53161e+10
7.10326e+08
-6.53813e+10
7.04331e+08
-6.54657e+10
6.94404e+08
-6.55607e+10
6.9128e+08
-6.56876e+10
6.86505e+08
-6.5825e+10
6.89447e+08
-6.59612e+10
6.95509e+08
-6.61067e+10
6.97331e+08
-6.62597e+10
6.93647e+08
-6.64161e+10
6.76985e+08
-6.65713e+10
6.48106e+08
-6.67198e+10
6.02634e+08
-6.68583e+10
5.3866e+08
-6.69832e+10
4.56237e+08
-6.70845e+10
3.51566e+08
-6.71615e+10
2.30534e+08
-6.72118e+10
9.61277e+07
-6.72358e+10
-4.60338e+07
-6.7246e+10
-1.87019e+08
-6.72449e+10
-3.25846e+08
-6.72337e+10
-4.55524e+08
-6.72159e+10
-5.69929e+08
-6.71939e+10
-6.57493e+08
-6.71729e+10
-7.12408e+08
-6.71558e+10
-7.33495e+08
-6.7149e+10
-7.18981e+08
-6.71538e+10
-6.7534e+08
-6.71706e+10
-6.10248e+08
-6.7198e+10
-5.28715e+08
-6.72304e+10
-4.40353e+08
-6.72667e+10
-3.47894e+08
-6.73004e+10
-2.57041e+08
-6.73368e+10
-1.67998e+08
-6.73859e+10
-8.2204e+07
-6.7453e+10
-1.37851e+06
-6.75422e+10
7.20544e+07
-6.76479e+10
1.29035e+08
-6.77661e+10
1.69393e+08
-6.78959e+10
1.92891e+08
-6.80346e+10
1.93185e+08
-6.81763e+10
1.68766e+08
-6.83198e+10
1.15061e+08
-6.84591e+10
2.88499e+07
-6.85947e+10
-9.10478e+07
-6.87197e+10
-2.56981e+08
-6.88254e+10
-4.79925e+08
-6.88945e+10
-7.78309e+08
-6.88841e+10
-1.15615e+09
-6.84552e+10
-1.65678e+09
-6.66569e+10
-2.43105e+09
-6.13542e+10
-3.85579e+09
-5.16969e+10
-4.54687e+09
-4.94135e+10
2.17225e+09
3.81562e+09
-5.97364e+10
9.16089e+07
3.03527e+08
-5.99107e+10
8.19146e+07
3.4145e+08
-6.00959e+10
5.07158e+07
3.26009e+08
-6.02681e+10
3.63964e+07
3.34881e+08
-6.04614e+10
2.09108e+07
3.45656e+08
-6.06676e+10
9.2085e+06
3.492e+08
-6.08767e+10
-2.73632e+06
3.47724e+08
-6.10855e+10
-1.66429e+07
3.43506e+08
-6.12896e+10
-3.15867e+07
3.3014e+08
-6.14871e+10
-4.75134e+07
3.03682e+08
-6.16765e+10
-6.48285e+07
2.63414e+08
-6.18554e+10
-8.30084e+07
2.05535e+08
-6.20224e+10
-1.01688e+08
1.29679e+08
-6.21674e+10
-1.21355e+08
2.88269e+07
-6.22856e+10
-1.41674e+08
-9.61747e+07
-6.23731e+10
-1.62597e+08
-2.42565e+08
-6.24239e+10
-1.83653e+08
-4.0811e+08
-6.24361e+10
-2.03425e+08
-5.89145e+08
-6.24043e+10
-2.2068e+08
-7.78395e+08
-6.23262e+10
-2.39109e+08
-9.71823e+08
-6.21971e+10
-2.59911e+08
-1.1566e+09
-6.20193e+10
-2.84417e+08
-1.32503e+09
-6.17951e+10
-3.11647e+08
-1.45803e+09
-6.15324e+10
-3.42198e+08
-1.54596e+09
-6.12432e+10
-3.75063e+08
-1.58222e+09
-6.09385e+10
-4.0954e+08
-1.56845e+09
-6.06301e+10
-4.44374e+08
-1.51155e+09
-6.03256e+10
-4.78499e+08
-1.42365e+09
-6.00291e+10
-5.10883e+08
-1.3131e+09
-5.97425e+10
-5.40654e+08
-1.19208e+09
-5.94653e+10
-5.67103e+08
-1.06558e+09
-5.91965e+10
-5.89686e+08
-9.40557e+08
-5.8933e+10
-6.07944e+08
-8.20577e+08
-5.8674e+10
-6.21116e+08
-7.07383e+08
-5.84169e+10
-6.28651e+08
-6.04025e+08
-5.81571e+10
-6.31104e+08
-5.11543e+08
-5.78944e+10
-6.28542e+08
-4.30837e+08
-5.76208e+10
-6.20861e+08
-3.68993e+08
-5.73261e+10
-6.07749e+08
-3.27515e+08
-5.69952e+10
-5.91505e+08
-3.1422e+08
-5.66137e+10
-5.72359e+08
-3.27868e+08
-5.61711e+10
-5.50541e+08
-3.6817e+08
-5.56487e+10
-5.274e+08
-4.4275e+08
-5.50249e+10
-5.04518e+08
-5.53285e+08
-5.4277e+10
-4.85542e+08
-7.10382e+08
-5.33775e+10
-4.7847e+08
-9.2094e+08
-5.22577e+10
-5.0979e+08
-1.2106e+09
-5.08287e+10
-5.89096e+08
-1.59686e+09
-4.90152e+10
-6.97068e+08
-2.08233e+09
-4.74141e+10
-5.09898e+08
-2.34371e+09
-4.65261e+10
1.7809e+08
-2.60866e+09
-4.04927e+10
-1.37311e+09
-5.97986e+09
-1.00367e+10
-1.09042e+10
-1.95773e+10
-5.22425e+09
-9.13775e+09
-5.69771e+10
6.34937e+08
-5.68654e+10
6.71225e+08
-5.67975e+10
6.73327e+08
-5.67449e+10
6.70693e+08
-5.67199e+10
6.77837e+08
-5.67108e+10
6.84699e+08
-5.67052e+10
6.82394e+08
-5.67048e+10
6.75805e+08
-5.67076e+10
6.60758e+08
-5.67142e+10
6.32187e+08
-5.67238e+10
5.8892e+08
-5.67348e+10
5.26523e+08
-5.67478e+10
4.4555e+08
-5.67573e+10
3.39749e+08
-5.67626e+10
2.10561e+08
-5.67612e+10
6.11619e+07
-5.67468e+10
-1.08779e+08
-5.67061e+10
-2.9802e+08
-5.66199e+10
-5.02151e+08
-5.64792e+10
-7.13786e+08
-5.62837e+10
-9.20127e+08
-5.60376e+10
-1.11039e+09
-5.57508e+10
-1.26615e+09
-5.54383e+10
-1.3756e+09
-5.51211e+10
-1.43174e+09
-5.48173e+10
-1.43566e+09
-5.45437e+10
-1.39445e+09
-5.43112e+10
-1.32025e+09
-5.41256e+10
-1.22199e+09
-5.39885e+10
-1.1124e+09
-5.38976e+10
-9.97153e+08
-5.38488e+10
-8.83495e+08
-5.38333e+10
-7.75543e+08
-5.38397e+10
-6.76712e+08
-5.38531e+10
-5.91419e+08
-5.38611e+10
-5.19787e+08
-5.38588e+10
-4.63213e+08
-5.38345e+10
-4.28106e+08
-5.37757e+10
-4.15167e+08
-5.3671e+10
-4.31858e+08
-5.35108e+10
-4.78472e+08
-5.32889e+10
-5.57214e+08
-5.29959e+10
-6.76668e+08
-5.2625e+10
-8.3897e+08
-5.21741e+10
-1.05865e+09
-5.16497e+10
-1.35104e+09
-5.10771e+10
-1.74222e+09
-5.04606e+10
-2.25787e+09
-4.96919e+10
-3.01557e+09
-4.83173e+10
-4.16568e+09
-4.54507e+10
-6.37111e+09
-4.1318e+10
-9.96538e+09
-2.91816e+10
-2.09694e+10
-7.33389e+09
-5.88055e+10
3.58334e+08
-1.07828e+08
-5.87995e+10
3.55603e+08
-2.3532e+07
-5.88292e+10
3.48781e+08
2.73537e+06
-5.88736e+10
3.46852e+08
2.75072e+07
-5.89339e+10
3.43711e+08
5.66629e+07
-5.90117e+10
3.4203e+08
7.86945e+07
-5.91056e+10
3.40778e+08
9.4032e+07
-5.92115e+10
3.39844e+08
1.02539e+08
-5.93259e+10
3.39461e+08
9.80579e+07
-5.94467e+10
3.39379e+08
7.8012e+07
-5.95682e+10
3.40162e+08
3.73914e+07
-5.96883e+10
3.4199e+08
-2.45655e+07
-5.98027e+10
3.45801e+08
-1.10689e+08
-5.99074e+10
3.51493e+08
-2.26581e+08
-6e+10
3.58916e+08
-3.70929e+08
-6.00741e+10
3.67977e+08
-5.43266e+08
-6.01296e+10
3.77451e+08
-7.38824e+08
-6.01612e+10
3.86744e+08
-9.52872e+08
-6.01692e+10
3.95412e+08
-1.17614e+09
-6.01529e+10
4.04375e+08
-1.40072e+09
-6.0115e+10
4.11464e+08
-1.61661e+09
-6.00594e+10
4.17368e+08
-1.8097e+09
-5.99968e+10
4.20608e+08
-1.95571e+09
-5.99411e+10
4.2045e+08
-2.03689e+09
-5.99088e+10
4.15964e+08
-2.04422e+09
-5.99114e+10
4.06499e+08
-1.9854e+09
-5.9955e+10
3.9202e+08
-1.87314e+09
-6.00398e+10
3.73109e+08
-1.7258e+09
-6.01587e+10
3.50703e+08
-1.55969e+09
-6.03067e+10
3.25973e+08
-1.38553e+09
-6.04752e+10
2.99922e+08
-1.21352e+09
-6.0657e+10
2.73216e+08
-1.04917e+09
-6.08475e+10
2.46134e+08
-8.94419e+08
-6.10408e+10
2.19463e+08
-7.52723e+08
-6.12354e+10
1.94034e+08
-6.23596e+08
-6.14281e+10
1.69938e+08
-5.09172e+08
-6.16176e+10
1.4655e+08
-4.08221e+08
-6.18038e+10
1.22994e+08
-3.24447e+08
-6.19892e+10
1.00713e+08
-2.58619e+08
-6.21905e+10
8.23157e+07
-2.06435e+08
-6.24216e+10
6.82991e+07
-1.7078e+08
-6.26925e+10
5.70006e+07
-1.54151e+08
-6.30137e+10
4.67646e+07
-1.64418e+08
-6.33939e+10
3.66535e+07
-2.06785e+08
-6.3853e+10
2.50238e+07
-2.8467e+08
-6.44065e+10
6.69802e+06
-4.11706e+08
-6.5086e+10
-2.40234e+07
-6.02126e+08
-6.58652e+10
-8.85713e+07
-9.16894e+08
-6.65494e+10
-2.05989e+08
-1.49534e+09
-6.60263e+10
-5.14436e+08
-2.74213e+09
-6.15489e+10
-1.45433e+09
-6.19005e+09
-5.17889e+10
-3.98975e+09
-1.24072e+10
-3.86133e+10
-1.20412e+10
-2.12806e+10
-4.35949e+09
-3.62812e+09
-6.0727e+10
9.50986e+08
-6.07578e+10
1.05474e+09
-6.08176e+10
1.07884e+09
-6.09048e+10
1.1012e+09
-6.10196e+10
1.13243e+09
-6.1158e+10
1.16077e+09
-6.13196e+10
1.18013e+09
-6.15e+10
1.19137e+09
-6.16934e+10
1.18884e+09
-6.18972e+10
1.17056e+09
-6.21037e+10
1.1304e+09
-6.23079e+10
1.06712e+09
-6.24994e+10
9.7684e+08
-6.2668e+10
8.53902e+08
-6.28037e+10
6.9976e+08
-6.2894e+10
5.14211e+08
-6.29327e+10
3.01965e+08
-6.29174e+10
6.77267e+07
-6.28506e+10
-1.79038e+08
-6.27332e+10
-4.3253e+08
-6.25651e+10
-6.82771e+08
-6.2348e+10
-9.17413e+08
-6.20895e+10
-1.1124e+09
-6.18046e+10
-1.24825e+09
-6.15141e+10
-1.31405e+09
-6.12355e+10
-1.3153e+09
-6.0983e+10
-1.26273e+09
-6.07651e+10
-1.17352e+09
-6.0582e+10
-1.06339e+09
-6.04354e+10
-9.42758e+08
-6.03211e+10
-8.21764e+08
-6.02356e+10
-7.06509e+08
-6.01758e+10
-6.00703e+08
-6.01367e+10
-5.0837e+08
-6.01189e+10
-4.27772e+08
-6.0121e+10
-3.60473e+08
-6.01457e+10
-3.04274e+08
-6.02009e+10
-2.61092e+08
-6.02939e+10
-2.30283e+08
-6.0438e+10
-2.11225e+08
-6.06417e+10
-2.08574e+08
-6.0918e+10
-2.22535e+08
-6.12856e+10
-2.5915e+08
-6.17635e+10
-3.23659e+08
-6.23867e+10
-4.19898e+08
-6.32009e+10
-5.63595e+08
-6.42683e+10
-7.76368e+08
-6.56211e+10
-1.13573e+09
-6.72053e+10
-1.8466e+09
-6.88276e+10
-3.36674e+09
-7.00898e+10
-6.98615e+09
-7.07775e+10
-1.37686e+10
-7.93026e+10
-2.49335e+10
-2.31458e+09
-5.77415e+10
1.93137e+08
-4.20447e+08
-5.76294e+10
2.00302e+08
-3.38891e+08
-5.75386e+10
2.07271e+08
-2.98632e+08
-5.74728e+10
2.1458e+08
-2.56827e+08
-5.74238e+10
2.18872e+08
-2.15651e+08
-5.73914e+10
2.21341e+08
-1.80183e+08
-5.73747e+10
2.22878e+08
-1.51034e+08
-5.73711e+10
2.25144e+08
-1.32126e+08
-5.73783e+10
2.27449e+08
-1.2831e+08
-5.73906e+10
2.29065e+08
-1.45115e+08
-5.74081e+10
2.29236e+08
-1.81331e+08
-5.74202e+10
2.28264e+08
-2.48502e+08
-5.74167e+10
2.26425e+08
-3.49239e+08
-5.73887e+10
2.23706e+08
-4.86906e+08
-5.73234e+10
2.20202e+08
-6.63569e+08
-5.72087e+10
2.16134e+08
-8.78977e+08
-5.7032e+10
2.11676e+08
-1.1313e+09
-5.67836e+10
2.07663e+08
-1.41151e+09
-5.6455e+10
2.04661e+08
-1.71231e+09
-5.60394e+10
2.04519e+08
-2.02185e+09
-5.55324e+10
2.08408e+08
-2.3341e+09
-5.49357e+10
2.17528e+08
-2.6261e+09
-5.42648e+10
2.32001e+08
-2.8642e+09
-5.35569e+10
2.54085e+08
-3.00471e+09
-5.28582e+10
2.83441e+08
-3.03273e+09
-5.22142e+10
3.18778e+08
-2.95547e+09
-5.16539e+10
3.57892e+08
-2.8005e+09
-5.11907e+10
3.98439e+08
-2.59899e+09
-5.08267e+10
4.38408e+08
-2.37609e+09
-5.05515e+10
4.76375e+08
-2.15312e+09
-5.03548e+10
5.11486e+08
-1.93977e+09
-5.0222e+10
5.4334e+08
-1.74547e+09
-5.01393e+10
5.71282e+08
-1.57089e+09
-5.00949e+10
5.95153e+08
-1.41702e+09
-5.00777e+10
6.15406e+08
-1.28335e+09
-5.00784e+10
6.31669e+08
-1.16919e+09
-5.00868e+10
6.43769e+08
-1.0741e+09
-5.00949e+10
6.50999e+08
-9.98024e+08
-5.00962e+10
6.52634e+08
-9.39382e+08
-5.00751e+10
6.48352e+08
-9.02767e+08
-5.00216e+10
6.3781e+08
-8.85143e+08
-4.99283e+10
6.21606e+08
-8.88271e+08
-4.97981e+10
6.00264e+08
-9.11965e+08
-4.96459e+10
5.74682e+08
-9.53305e+08
-4.95056e+10
5.47258e+08
-1.00303e+09
-4.94408e+10
5.20696e+08
-1.05665e+09
-4.95573e+10
5.0048e+08
-1.10239e+09
-5.00323e+10
4.9092e+08
-1.14311e+09
-5.11849e+10
4.8999e+08
-1.19457e+09
-5.33908e+10
3.56211e+08
-1.54695e+09
-5.68154e+10
-5.96001e+08
-3.12133e+09
-6.15765e+10
-3.05396e+09
-5.80374e+09
-6.3313e+10
-1.20957e+10
-8.32234e+09
-2.24707e+09
2.19912e+09
-6.11398e+10
1.11183e+09
-6.11012e+10
1.21567e+09
-6.10742e+10
1.25775e+09
-6.10623e+10
1.30198e+09
-6.10637e+10
1.35042e+09
-6.10766e+10
1.39233e+09
-6.11024e+10
1.42592e+09
-6.11383e+10
1.44937e+09
-6.11826e+10
1.45734e+09
-6.12298e+10
1.44337e+09
-6.12826e+10
1.40856e+09
-6.13343e+10
1.34269e+09
-6.1379e+10
1.24307e+09
-6.14124e+10
1.10644e+09
-6.14273e+10
9.31372e+08
-6.14176e+10
7.18367e+08
-6.13749e+10
4.70125e+08
-6.12952e+10
1.95613e+08
-6.11724e+10
-9.601e+07
-6.10024e+10
-3.96055e+08
-6.07773e+10
-6.97068e+08
-6.04981e+10
-9.77702e+08
-6.01732e+10
-1.20417e+09
-5.98305e+10
-1.33579e+09
-5.9501e+10
-1.35889e+09
-5.92146e+10
-1.28207e+09
-5.89866e+10
-1.13338e+09
-5.88206e+10
-9.4318e+08
-5.87142e+10
-7.34975e+08
-5.86567e+10
-5.29059e+08
-5.864e+10
-3.33441e+08
-5.86545e+10
-1.56723e+08
-5.86937e+10
128901
-5.8756e+10
1.37769e+08
-5.88404e+10
2.59102e+08
-5.89469e+10
3.63403e+08
-5.90759e+10
4.53225e+08
-5.92307e+10
5.29261e+08
-5.9418e+10
5.94929e+08
-5.96413e+10
6.47061e+08
-5.9916e+10
6.9256e+08
-6.02571e+10
7.30689e+08
-6.06873e+10
7.62253e+08
-6.12383e+10
7.90275e+08
-6.19568e+10
8.24938e+08
-6.29174e+10
8.75911e+08
-6.42428e+10
9.66754e+08
-6.61454e+10
1.10617e+09
-6.90199e+10
1.23786e+09
-7.3659e+10
1.16937e+09
-8.27487e+10
8.48242e+08
-1.00738e+11
3.38125e+08
-1.41841e+11
3.46901e+09
1.00212e+08
-6.05661e+10
-2.83461e+08
-1.37819e+08
-6.05742e+10
-2.83711e+08
-4.56244e+07
-6.05968e+10
-2.8026e+08
4.50708e+06
-6.06406e+10
-2.80307e+08
6.69178e+07
-6.07014e+10
-2.82442e+08
1.26674e+08
-6.07793e+10
-2.87579e+08
1.84151e+08
-6.08762e+10
-2.93531e+08
2.38038e+08
-6.09888e+10
-2.98976e+08
2.77808e+08
-6.11166e+10
-3.04859e+08
3.02495e+08
-6.12579e+10
-3.11639e+08
3.05769e+08
-6.14036e+10
-3.19675e+08
2.81503e+08
-6.1549e+10
-3.2844e+08
2.22219e+08
-6.16857e+10
-3.37719e+08
1.21257e+08
-6.18015e+10
-3.47395e+08
-2.74389e+07
-6.18825e+10
-3.57109e+08
-2.26984e+08
-6.19124e+10
-3.66657e+08
-4.81141e+08
-6.18754e+10
-3.75361e+08
-7.8695e+08
-6.17544e+10
-3.83094e+08
-1.14135e+09
-6.15336e+10
-3.88429e+08
-1.53301e+09
-6.12024e+10
-3.92301e+08
-1.94808e+09
-6.07431e+10
-3.96279e+08
-2.38129e+09
-6.01352e+10
-4.01396e+08
-2.81753e+09
-5.9374e+10
-4.06193e+08
-3.20288e+09
-5.84918e+10
-4.09971e+08
-3.46024e+09
-5.75482e+10
-4.11514e+08
-3.54759e+09
-5.65975e+10
-4.10711e+08
-3.47936e+09
-5.56769e+10
-4.07777e+08
-3.29981e+09
-5.48055e+10
-4.02808e+08
-3.05734e+09
-5.39879e+10
-3.95777e+08
-2.7905e+09
-5.32216e+10
-3.86965e+08
-2.52739e+09
-5.24996e+10
-3.76712e+08
-2.28183e+09
-5.1817e+10
-3.65496e+08
-2.06132e+09
-5.11683e+10
-3.53504e+08
-1.86666e+09
-5.05503e+10
-3.40962e+08
-1.69681e+09
-4.99607e+10
-3.28424e+08
-1.54912e+09
-4.94017e+10
-3.16343e+08
-1.41806e+09
-4.88741e+10
-3.05583e+08
-1.30298e+09
-4.83829e+10
-2.98776e+08
-1.19695e+09
-4.79301e+10
-2.97646e+08
-1.09909e+09
-4.75228e+10
-3.04376e+08
-1.00628e+09
-4.71641e+10
-3.2148e+08
-9.17425e+08
-4.68604e+10
-3.5136e+08
-8.28808e+08
-4.66215e+10
-3.96814e+08
-7.35282e+08
-4.64556e+10
-4.60808e+08
-6.34103e+08
-4.63838e+10
-5.44703e+08
-5.06422e+08
-4.64638e+10
-6.43395e+08
-3.25128e+08
-4.68163e+10
-7.50205e+08
-3.90498e+07
-4.77035e+10
-8.66463e+08
4.55049e+08
-4.97253e+10
-1.0091e+09
1.43028e+09
-5.39587e+10
-1.19948e+09
3.10961e+09
-6.38472e+10
-1.34296e+09
6.90352e+09
-8.11298e+10
-2.37742e+09
1.26487e+10
-1.06251e+11
-5.74967e+09
2.15303e+10
-8.90056e+08
1.29272e+09
-5.82177e+10
8.81753e+08
-5.82606e+10
9.75318e+08
-5.83098e+10
1.0267e+09
-5.83764e+10
1.08805e+09
-5.84551e+10
1.14611e+09
-5.85497e+10
1.19875e+09
-5.86654e+10
1.24745e+09
-5.87985e+10
1.28266e+09
-5.89496e+10
1.30272e+09
-5.91187e+10
1.29977e+09
-5.92998e+10
1.26876e+09
-5.94904e+10
1.20308e+09
-5.96836e+10
1.09652e+09
-5.98697e+10
9.4356e+08
-6.00389e+10
7.43164e+08
-6.01776e+10
4.92616e+08
-6.02733e+10
1.95115e+08
-6.03046e+10
-1.49217e+08
-6.02459e+10
-5.34201e+08
-6.00806e+10
-9.43207e+08
-5.97945e+10
-1.36828e+09
-5.9368e+10
-1.7937e+09
-5.8801e+10
-2.16464e+09
-5.81335e+10
-2.39958e+09
-5.74372e+10
-2.45298e+09
-5.6777e+10
-2.33992e+09
-5.61973e+10
-2.10988e+09
-5.5719e+10
-1.81544e+09
-5.53444e+10
-1.49851e+09
-5.50655e+10
-1.1896e+09
-5.48679e+10
-9.0374e+08
-5.47387e+10
-6.48367e+08
-5.46662e+10
-4.24056e+08
-5.46379e+10
-2.30643e+08
-5.46407e+10
-6.66736e+07
-5.46615e+10
6.70636e+07
-5.46889e+10
1.74243e+08
-5.47203e+10
2.61876e+08
-5.47497e+10
3.28334e+08
-5.47779e+10
3.75326e+08
-5.47993e+10
4.00463e+08
-5.48115e+10
4.03342e+08
-5.48142e+10
3.83774e+08
-5.48051e+10
3.38284e+08
-5.47849e+10
2.76574e+08
-5.47583e+10
2.1189e+08
-5.4752e+10
1.85267e+08
-5.49e+10
2.88626e+08
-5.55507e+10
6.50615e+08
-5.73232e+10
1.32793e+09
-6.23181e+10
3.92273e+09
-7.39284e+10
9.01873e+09
-1.00314e+11
2.38525e+10
7.96663e+09
-6.09383e+10
-3.47993e+08
2.57971e+08
-6.10124e+10
-3.51509e+08
3.81928e+08
-6.11032e+10
-3.47294e+08
4.4451e+08
-6.12133e+10
-3.46384e+08
5.25278e+08
-6.1344e+10
-3.43803e+08
6.03268e+08
-6.14947e+10
-3.41467e+08
6.78599e+08
-6.16667e+10
-3.38121e+08
7.50756e+08
-6.1862e+10
-3.33284e+08
8.09238e+08
-6.20783e+10
-3.27496e+08
8.49431e+08
-6.23141e+10
-3.21147e+08
8.66164e+08
-6.25653e+10
-3.14119e+08
8.50192e+08
-6.28234e+10
-3.0649e+08
7.89866e+08
-6.30816e+10
-2.98732e+08
6.80527e+08
-6.33303e+10
-2.9139e+08
5.15166e+08
-6.35551e+10
-2.8486e+08
2.86438e+08
-6.37445e+10
-2.79511e+08
-5.28764e+06
-6.38836e+10
-2.76788e+08
-3.59917e+08
-6.39593e+10
-2.80784e+08
-7.7039e+08
-6.39576e+10
-2.93331e+08
-1.22363e+09
-6.38688e+10
-3.11413e+08
-1.70642e+09
-6.36826e+10
-3.32804e+08
-2.21286e+09
-6.33709e+10
-3.57822e+08
-2.74735e+09
-6.29108e+10
-3.84256e+08
-3.25198e+09
-6.23444e+10
-4.07757e+08
-3.5886e+09
-6.1766e+10
-4.23627e+08
-3.67128e+09
-6.12466e+10
-4.31026e+08
-3.53634e+09
-6.08102e+10
-4.33838e+08
-3.27304e+09
-6.04508e+10
-4.35537e+08
-2.95394e+09
-6.01449e+10
-4.38441e+08
-2.6317e+09
-5.9868e+10
-4.43565e+08
-2.33412e+09
-5.95962e+10
-4.50991e+08
-2.07442e+09
-5.93133e+10
-4.60268e+08
-1.85342e+09
-5.90062e+10
-4.69952e+08
-1.67066e+09
-5.8666e+10
-4.79291e+08
-1.52157e+09
-5.82893e+10
-4.89076e+08
-1.39734e+09
-5.78691e+10
-4.99157e+08
-1.29588e+09
-5.74049e+10
-5.09095e+08
-1.2102e+09
-5.68911e+10
-5.18186e+08
-1.13867e+09
-5.63284e+10
-5.26226e+08
-1.07432e+09
-5.5714e+10
-5.32391e+08
-1.01782e+09
-5.50469e+10
-5.35694e+08
-9.67067e+08
-5.43264e+10
-5.34737e+08
-9.19595e+08
-5.35507e+10
-5.27775e+08
-8.73086e+08
-5.27166e+10
-5.11606e+08
-8.27397e+08
-5.18241e+10
-4.80889e+08
-7.67044e+08
-5.08833e+10
-4.27097e+08
-6.656e+08
-4.99272e+10
-3.36286e+08
-4.804e+08
-4.90002e+10
-1.88908e+08
-1.36211e+08
-4.80585e+10
2.64425e+06
5.6372e+08
-4.71396e+10
2.10596e+08
1.98871e+09
-4.64778e+10
8.63058e+08
5.42473e+09
-4.88533e+10
2.32955e+09
1.27557e+10
-6.19702e+10
6.55489e+09