/*--------------------------------*- C++ -*----------------------------------*\
| =========                 |                                                 |
| \\      /  F ield         | OpenFOAM: The Open Source CFD Toolbox           |
|  \\    /   O peration     | Version:  4.1                                   |
|   \\  /    A nd           | Web:      www.OpenFOAM.org                      |
|    \\/     M anipulation  |                                                 |
\*---------------------------------------------------------------------------*/
FoamFile
{
    version     2.0;
    format      ascii;
    class       surfaceScalarField;
    location    "82";
    object      phi;
}
// * * * * * * * * * * * * * * * * * * * * * * * * * * * * * * * * * * * * * //

dimensions      [0 3 -1 0 0 0 0];

internalField   nonuniform List<scalar> 
11516
(
-3.60529e+10
1.36582e+08
6.1166e+08
-3.66659e+10
1.18517e+08
5.17866e+08
-3.72324e+10
1.09282e+08
4.80154e+08
-3.77405e+10
9.65609e+07
4.34228e+08
-3.82212e+10
9.81523e+07
4.05368e+08
-3.8678e+10
9.72279e+07
3.82607e+08
-3.91077e+10
9.45465e+07
3.58639e+08
-3.95127e+10
9.25421e+07
3.36512e+08
-3.98903e+10
8.98415e+07
3.12375e+08
-4.02356e+10
8.67283e+07
2.83983e+08
-4.05424e+10
8.32531e+07
2.50043e+08
-4.0805e+10
7.94386e+07
2.11613e+08
-4.10122e+10
7.53238e+07
1.64027e+08
-4.11558e+10
7.10215e+07
1.1115e+08
-4.12248e+10
6.67215e+07
4.94332e+07
-4.12112e+10
6.27172e+07
-1.91052e+07
-4.11132e+10
5.90351e+07
-9.26542e+07
-4.09252e+10
5.43632e+07
-1.72143e+08
-4.06468e+10
4.80222e+07
-2.52558e+08
-4.02744e+10
4.07662e+07
-3.35221e+08
-3.98093e+10
3.21271e+07
-4.18824e+08
-3.92582e+10
2.22461e+07
-4.96301e+08
-3.86265e+10
1.07519e+07
-5.69443e+08
-3.79278e+10
-1.84984e+06
-6.28123e+08
-3.71703e+10
-1.53346e+07
-6.76289e+08
-3.6369e+10
-2.92143e+07
-7.06614e+08
-3.55334e+10
-4.33239e+07
-7.25339e+08
-3.46789e+10
-5.78119e+07
-7.27117e+08
-3.38152e+10
-7.24765e+07
-7.18484e+08
-3.29551e+10
-8.62083e+07
-6.97887e+08
-3.21104e+10
-9.8093e+07
-6.67051e+08
-3.12893e+10
-1.07072e+08
-6.30777e+08
-3.05031e+10
-1.11922e+08
-5.86831e+08
-2.976e+10
-1.11323e+08
-5.39621e+08
-2.9069e+10
-1.03801e+08
-4.89908e+08
-2.84394e+10
-8.79509e+07
-4.38311e+08
-2.78761e+10
-6.3217e+07
-3.90162e+08
-2.73797e+10
-3.3089e+07
-3.45687e+08
-2.6938e+10
760108
-3.15338e+08
-2.65429e+10
4.05921e+07
-2.96109e+08
-2.61855e+10
8.7804e+07
-2.89318e+08
-2.58538e+10
1.45306e+08
-2.9946e+08
-2.55371e+10
2.15753e+08
-3.2741e+08
-2.52316e+10
3.01626e+08
-3.67059e+08
-2.49533e+10
4.08208e+08
-4.05258e+08
-2.47441e+10
5.46843e+08
-4.3497e+08
-2.46271e+10
7.29045e+08
-5.04903e+08
-2.4519e+10
9.36849e+08
-7.04571e+08
-2.43126e+10
1.09241e+09
-1.02744e+09
-2.4107e+10
1.19633e+09
-9.74051e+08
-2.54118e+10
1.94576e+09
-2.19025e+08
-2.95917e+10
4.13482e+09
7.47781e+08
-3.07351e+10
9.68212e+09
-8.25018e+09
4.79286e+09
-1.36226e+10
-4.60286e+10
5.43599e+08
-4.63813e+10
4.8387e+08
-4.67088e+10
4.49434e+08
-4.70244e+10
4.2483e+08
-4.73151e+10
4.01849e+08
-4.75921e+10
3.87311e+08
-4.78568e+10
3.72811e+08
-4.81099e+10
3.595e+08
-4.83502e+10
3.44579e+08
-4.85745e+10
3.25942e+08
-4.87779e+10
3.02363e+08
-4.89567e+10
2.75509e+08
-4.91017e+10
2.39947e+08
-4.92073e+10
2.00236e+08
-4.92641e+10
1.52328e+08
-4.92654e+10
9.76947e+07
-4.92075e+10
3.86302e+07
-4.90855e+10
-2.71393e+07
-4.89016e+10
-9.30121e+07
-4.86554e+10
-1.61383e+08
-4.83489e+10
-2.30067e+08
-4.79917e+10
-2.9206e+08
-4.75901e+10
-3.50136e+08
-4.71601e+10
-3.9347e+08
-4.6711e+10
-4.27555e+08
-4.62599e+10
-4.43912e+08
-4.5816e+10
-4.50323e+08
-4.53961e+10
-4.39927e+08
-4.50092e+10
-4.2043e+08
-4.46654e+10
-3.89947e+08
-4.43718e+10
-3.50479e+08
-4.41287e+10
-3.07822e+08
-4.39381e+10
-2.58912e+08
-4.37951e+10
-2.09301e+08
-4.3693e+10
-1.59406e+08
-4.36239e+10
-1.08908e+08
-4.35744e+10
-6.28736e+07
-4.35343e+10
-2.1222e+07
-4.34882e+10
9.57775e+06
-4.34211e+10
3.24309e+07
-4.33148e+10
4.63907e+07
-4.31455e+10
4.86118e+07
-4.28863e+10
3.98029e+07
-4.2513e+10
2.50686e+07
-4.20071e+10
1.50661e+07
-4.13455e+10
1.04155e+07
-4.04524e+10
-3.28623e+07
-3.92267e+10
-1.72694e+08
-3.77348e+10
-3.03526e+08
-3.65976e+10
1.89308e+08
-3.60324e+10
1.59802e+09
-3.4608e+10
2.89091e+09
-1.53964e+10
-9.44918e+09
-1.41686e+10
-6.64336e+10
4.77815e+07
7.45497e+08
-6.65922e+10
3.96661e+07
6.4922e+08
-6.673e+10
3.17245e+07
5.98946e+08
-6.6863e+10
2.98922e+07
5.50155e+08
-6.6979e+10
2.57088e+07
5.08907e+08
-6.70857e+10
2.40161e+07
4.78897e+08
-6.71847e+10
2.22751e+07
4.49372e+08
-6.72757e+10
2.08908e+07
4.21071e+08
-6.73553e+10
1.94108e+07
3.87645e+08
-6.74251e+10
1.81546e+07
3.51454e+08
-6.74834e+10
1.69832e+07
3.0805e+08
-6.7527e+10
1.60206e+07
2.57061e+08
-6.75543e+10
1.53106e+07
1.96236e+08
-6.75613e+10
1.49214e+07
1.26485e+08
-6.75439e+10
1.49843e+07
4.55143e+07
-6.75018e+10
1.50185e+07
-4.28389e+07
-6.74355e+10
1.5427e+07
-1.36294e+08
-6.73517e+10
1.58232e+07
-2.31293e+08
-6.72493e+10
1.58603e+07
-3.28075e+08
-6.71306e+10
1.57217e+07
-4.26227e+08
-6.69986e+10
1.59284e+07
-5.22941e+08
-6.68567e+10
1.6375e+07
-6.11974e+08
-6.67134e+10
1.71877e+07
-6.89946e+08
-6.65715e+10
1.85864e+07
-7.52297e+08
-6.64429e+10
2.06816e+07
-7.9252e+08
-6.63274e+10
2.36475e+07
-8.15118e+08
-6.62341e+10
2.72948e+07
-8.16377e+08
-6.61624e+10
3.14187e+07
-8.01136e+08
-6.61186e+10
3.57438e+07
-7.69166e+08
-6.61011e+10
4.02039e+07
-7.26969e+08
-6.61117e+10
4.46501e+07
-6.72761e+08
-6.61513e+10
4.90689e+07
-6.12318e+08
-6.6218e+10
5.36851e+07
-5.46178e+08
-6.63148e+10
5.86999e+07
-4.74462e+08
-6.64417e+10
6.4625e+07
-4.0099e+08
-6.6602e+10
7.19195e+07
-3.24447e+08
-6.67994e+10
8.00798e+07
-2.48345e+08
-6.70429e+10
8.8646e+07
-1.68158e+08
-6.73546e+10
9.81422e+07
-8.06802e+07
-6.77533e+10
1.09039e+08
1.31647e+07
-6.8251e+10
1.21162e+08
1.06435e+08
-6.88744e+10
1.36138e+08
2.08024e+08
-6.96539e+10
1.57019e+08
3.19078e+08
-7.06206e+10
1.8599e+08
4.44486e+08
-7.1805e+10
2.271e+08
5.93517e+08
-7.32461e+10
2.8686e+08
7.69169e+08
-7.50326e+10
3.71366e+08
9.54075e+08
-7.72645e+10
4.65269e+08
1.07049e+09
-7.99296e+10
5.70718e+08
1.03694e+09
-8.26184e+10
8.00398e+08
8.33681e+08
-8.51783e+10
1.6289e+09
7.39416e+08
-8.68001e+10
3.7083e+09
-1.37879e+09
-1.03049e+11
8.5702e+09
-5.97994e+08
3.97271e+09
-6.88476e+07
-7.81249e+10
7.14287e+08
-7.82411e+10
6.4771e+08
-7.8356e+10
6.04075e+08
-7.8469e+10
5.75785e+08
-7.85807e+10
5.47629e+08
-7.86888e+10
5.28114e+08
-7.87953e+10
5.10505e+08
-7.88994e+10
4.93728e+08
-7.89971e+10
4.71387e+08
-7.909e+10
4.47127e+08
-7.91762e+10
4.16278e+08
-7.92519e+10
3.7886e+08
-7.93161e+10
3.32551e+08
-7.93645e+10
2.78724e+08
-7.93938e+10
2.14486e+08
-7.94039e+10
1.43553e+08
-7.93912e+10
6.46059e+07
-7.93607e+10
-1.70012e+07
-7.93139e+10
-9.81905e+07
-7.92535e+10
-1.79685e+08
-7.91823e+10
-2.58991e+08
-7.9102e+10
-3.30226e+08
-7.90203e+10
-3.90378e+08
-7.89374e+10
-4.35474e+08
-7.88653e+10
-4.58416e+08
-7.88018e+10
-4.64583e+08
-7.8757e+10
-4.49448e+08
-7.87293e+10
-4.18113e+08
-7.87263e+10
-3.69831e+08
-7.87468e+10
-3.11709e+08
-7.87944e+10
-2.41012e+08
-7.8872e+10
-1.64278e+08
-7.89787e+10
-8.20223e+07
-7.91191e+10
5.85876e+06
-7.9294e+10
9.54314e+07
-7.95064e+10
1.9009e+08
-7.97626e+10
2.86951e+08
-8.00741e+10
3.91345e+08
-8.04582e+10
5.02851e+08
-8.09255e+10
6.18915e+08
-8.14826e+10
7.3434e+08
-8.21428e+10
8.55433e+08
-8.29135e+10
9.80074e+08
-8.37986e+10
1.11333e+09
-8.47952e+10
1.26144e+09
-8.58959e+10
1.42409e+09
-8.71197e+10
1.5808e+09
-8.85028e+10
1.67413e+09
-8.98806e+10
1.61814e+09
-8.9904e+10
9.88203e+08
-8.59474e+10
-7.61636e+08
-7.60463e+10
-3.31568e+09
-7.87058e+10
1.66676e+09
7.25858e+09
-5.81919e+10
3.22869e+07
5.66671e+08
-5.80507e+10
3.76006e+07
4.82664e+08
-5.79449e+10
3.08152e+07
4.74833e+08
-5.7871e+10
3.14944e+07
4.57671e+08
-5.78129e+10
2.60865e+07
4.38212e+08
-5.77656e+10
2.32958e+07
4.22214e+08
-5.77317e+10
2.07876e+07
4.09145e+08
-5.7705e+10
1.83059e+07
3.91198e+08
-5.76888e+10
1.5307e+07
3.71759e+08
-5.76775e+10
1.21321e+07
3.44483e+08
-5.76728e+10
8.41972e+06
3.1216e+08
-5.76727e+10
4.12321e+06
2.7115e+08
-5.76743e+10
-1.02976e+06
2.18899e+08
-5.76737e+10
-7.22117e+06
1.55377e+08
-5.76698e+10
-1.44189e+07
8.21709e+07
-5.76523e+10
-2.30991e+07
-7.39498e+06
-5.76069e+10
-3.47803e+07
-1.12311e+08
-5.75214e+10
-4.91215e+07
-2.3109e+08
-5.73839e+10
-6.29061e+07
-3.64225e+08
-5.71926e+10
-7.63255e+07
-5.03032e+08
-5.69468e+10
-8.87278e+07
-6.40094e+08
-5.66466e+10
-1.00093e+08
-7.72727e+08
-5.63012e+10
-1.0934e+08
-8.88001e+08
-5.59216e+10
-1.15927e+08
-9.81786e+08
-5.55167e+10
-1.18926e+08
-1.04862e+09
-5.50999e+10
-1.17696e+08
-1.0877e+09
-5.46806e+10
-1.11974e+08
-1.09952e+09
-5.4268e+10
-1.01748e+08
-1.08956e+09
-5.38686e+10
-8.72433e+07
-1.06033e+09
-5.3491e+10
-6.8684e+07
-1.01648e+09
-5.31352e+10
-4.62971e+07
-9.6456e+08
-5.28073e+10
-2.03034e+07
-9.04199e+08
-5.25056e+10
9.20548e+06
-8.43555e+08
-5.22282e+10
4.20384e+07
-7.82712e+08
-5.19779e+10
7.84587e+07
-7.21333e+08
-5.17498e+10
1.1922e+08
-6.66712e+08
-5.15428e+10
1.64614e+08
-6.18724e+08
-5.13519e+10
2.15425e+08
-5.78058e+08
-5.11611e+10
2.7019e+08
-5.50378e+08
-5.09459e+10
3.26587e+08
-5.426e+08
-5.06963e+10
3.8742e+08
-5.49042e+08
-5.03877e+10
4.52314e+08
-5.74746e+08
-4.99944e+10
5.20647e+08
-6.17778e+08
-4.94907e+10
5.95871e+08
-6.76304e+08
-4.88506e+10
6.84091e+08
-7.48255e+08
-4.80397e+10
7.95082e+08
-8.54304e+08
-4.7017e+10
9.31241e+08
-1.03229e+09
-4.58161e+10
1.08234e+09
-1.28334e+09
-4.46415e+10
1.29612e+09
-1.59308e+09
-4.36913e+10
1.5916e+09
-1.96868e+09
-4.23806e+10
2.29185e+09
-3.37207e+09
-4.15132e+10
4.3852e+09
-7.22293e+09
-3.88963e+10
1.03514e+10
-1.41241e+10
4.16849e+09
-2.19904e+09
-6.58669e+10
6.06481e+08
-6.57133e+10
5.396e+08
-6.56035e+10
5.33404e+08
-6.55081e+10
5.20576e+08
-6.54345e+10
5.09213e+08
-6.5373e+10
4.99346e+08
-6.53244e+10
4.92459e+08
-6.52826e+10
4.8037e+08
-6.52526e+10
4.6727e+08
-6.52289e+10
4.46538e+08
-6.5214e+10
4.21429e+08
-6.52068e+10
3.88124e+08
-6.52059e+10
3.44005e+08
-6.52085e+10
2.89126e+08
-6.52164e+10
2.25001e+08
-6.52222e+10
1.45716e+08
-6.52243e+10
5.34821e+07
-6.52191e+10
-4.83837e+07
-6.51942e+10
-1.62471e+08
-6.51471e+10
-2.7918e+08
-6.50785e+10
-3.92108e+08
-6.49867e+10
-4.97786e+08
-6.48795e+10
-5.84033e+08
-6.47633e+10
-6.46794e+08
-6.46414e+10
-6.80989e+08
-6.45213e+10
-6.86053e+08
-6.44054e+10
-6.62609e+08
-6.42954e+10
-6.16351e+08
-6.41903e+10
-5.49879e+08
-6.40918e+10
-4.679e+08
-6.39924e+10
-3.77145e+08
-6.3892e+10
-2.77025e+08
-6.37824e+10
-1.76167e+08
-6.36556e+10
-7.45299e+07
-6.35076e+10
2.81817e+07
-6.33234e+10
1.24981e+08
-6.30909e+10
2.15952e+08
-6.27911e+10
3.00764e+08
-6.24032e+10
3.75461e+08
-6.19084e+10
4.37586e+08
-6.12945e+10
4.91707e+08
-6.05373e+10
5.32234e+08
-5.96206e+10
5.64928e+08
-5.85198e+10
5.89793e+08
-5.71993e+10
6.07405e+08
-5.56031e+10
6.01913e+08
-5.3672e+10
5.46876e+08
-5.14111e+10
4.31334e+08
-4.88497e+10
2.32104e+08
-4.64978e+10
-780215
-4.4812e+10
-4.7912e+08
-4.31128e+10
-1.08172e+09
-2.21821e+10
-9.27053e+09
-5.23647e+09
-6.43347e+10
-5.21578e+07
7.00095e+08
-6.44679e+10
-5.5003e+07
6.81495e+08
-6.45896e+10
-6.36805e+07
6.71541e+08
-6.47235e+10
-6.76085e+07
6.71162e+08
-6.4869e+10
-7.41804e+07
6.70298e+08
-6.50242e+10
-7.93241e+07
6.69688e+08
-6.51842e+10
-8.35424e+07
6.66035e+08
-6.53522e+10
-8.78393e+07
6.60755e+08
-6.55253e+10
-9.25612e+07
6.5156e+08
-6.57017e+10
-9.75743e+07
6.33173e+08
-6.58765e+10
-1.03204e+08
6.05338e+08
-6.60434e+10
-1.09504e+08
5.63556e+08
-6.61979e+10
-1.16705e+08
5.06841e+08
-6.63355e+10
-1.24893e+08
4.35815e+08
-6.64446e+10
-1.34348e+08
3.44436e+08
-6.65207e+10
-1.45007e+08
2.35546e+08
-6.65629e+10
-1.57549e+08
1.11249e+08
-6.65698e+10
-1.7198e+08
-2.59778e+07
-6.65496e+10
-1.88284e+08
-1.70096e+08
-6.65017e+10
-2.06058e+08
-3.17876e+08
-6.64271e+10
-2.26086e+08
-4.6138e+08
-6.63282e+10
-2.47893e+08
-5.95179e+08
-6.62103e+10
-2.71586e+08
-7.06535e+08
-6.60825e+10
-2.96563e+08
-7.87934e+08
-6.5951e+10
-3.22096e+08
-8.36677e+08
-6.58239e+10
-3.47327e+08
-8.49604e+08
-6.57047e+10
-3.71552e+08
-8.3221e+08
-6.55963e+10
-3.94212e+08
-7.91188e+08
-6.55008e+10
-4.14992e+08
-7.3073e+08
-6.54162e+10
-4.33518e+08
-6.60094e+08
-6.53449e+10
-4.49531e+08
-5.81911e+08
-6.52832e+10
-4.62612e+08
-5.01997e+08
-6.52341e+10
-4.72266e+08
-4.22501e+08
-6.51982e+10
-4.77867e+08
-3.46567e+08
-6.51757e+10
-4.78579e+08
-2.75136e+08
-6.51776e+10
-4.73727e+08
-2.05188e+08
-6.52115e+10
-4.63287e+08
-1.40943e+08
-6.52857e+10
-4.46744e+08
-8.20783e+07
-6.54167e+10
-4.2314e+08
-2.78211e+07
-6.56262e+10
-3.92338e+08
2.10023e+07
-6.59316e+10
-3.55409e+08
6.69374e+07
-6.63532e+10
-3.12385e+08
1.08808e+08
-6.69115e+10
-2.63465e+08
1.49034e+08
-6.7631e+10
-2.09417e+08
1.94037e+08
-6.85325e+10
-1.51023e+08
2.40827e+08
-6.96681e+10
-8.77997e+07
2.936e+08
-7.11468e+10
-2.65262e+07
3.6643e+08
-7.3064e+10
-1.01751e+07
4.5596e+08
-7.5524e+10
-2.13355e+07
5.30436e+08
-7.85991e+10
3.13842e+07
4.19866e+08
-8.44085e+10
1.18406e+09
3.2428e+08
-9.5326e+10
3.62642e+09
-1.11786e+09
-1.22158e+11
1.08679e+10
8.24858e+08
1.50429e+09
-3.82004e+09
-6.16948e+10
5.25789e+08
-6.17017e+10
4.99566e+08
-6.17242e+10
5.00598e+08
-6.17571e+10
4.94599e+08
-6.18055e+10
4.92597e+08
-6.1867e+10
4.90963e+08
-6.19348e+10
4.8649e+08
-6.20119e+10
4.79729e+08
-6.20955e+10
4.68766e+08
-6.2184e+10
4.48354e+08
-6.22731e+10
4.18508e+08
-6.23572e+10
3.74642e+08
-6.24331e+10
3.1564e+08
-6.24973e+10
2.41549e+08
-6.25391e+10
1.46729e+08
-6.25565e+10
3.38389e+07
-6.25484e+10
-9.46926e+07
-6.25141e+10
-2.35989e+08
-6.24609e+10
-3.84695e+08
-6.23875e+10
-5.39269e+08
-6.2294e+10
-6.91329e+08
-6.2184e+10
-8.3458e+08
-6.20629e+10
-9.56188e+08
-6.19395e+10
-1.04796e+09
-6.18194e+10
-1.1066e+09
-6.17094e+10
-1.1289e+09
-6.16111e+10
-1.11981e+09
-6.15248e+10
-1.08571e+09
-6.14494e+10
-1.03073e+09
-6.13794e+10
-9.636e+08
-6.13131e+10
-8.86964e+08
-6.12428e+10
-8.06122e+08
-6.11666e+10
-7.23082e+08
-6.10791e+10
-6.40633e+08
-6.0973e+10
-5.59973e+08
-6.08498e+10
-4.78241e+08
-6.07079e+10
-3.98969e+08
-6.05465e+10
-3.2089e+08
-6.03678e+10
-2.43971e+08
-6.01743e+10
-1.70153e+08
-5.99669e+10
-9.66009e+07
-5.97491e+10
-2.62547e+07
-5.95184e+10
4.0707e+07
-5.92767e+10
1.07573e+08
-5.90228e+10
1.68625e+08
-5.87745e+10
2.22857e+08
-5.86025e+10
2.79309e+08
-5.8641e+10
3.27821e+08
-5.89782e+10
2.83712e+08
-5.94144e+10
2.69188e+07
-5.89892e+10
-3.71926e+08
-5.71065e+10
-5.34602e+07
-5.99438e+10
4.04544e+09
1.76048e+09
-6.13426e+10
1.58618e+08
5.38483e+08
-6.134e+10
1.69871e+08
5.18602e+08
-6.13599e+10
1.76097e+08
5.25141e+08
-6.13842e+10
1.84677e+08
5.2123e+08
-6.14181e+10
1.93423e+08
5.21645e+08
-6.14603e+10
2.03192e+08
5.20046e+08
-6.15088e+10
2.13712e+08
5.12665e+08
-6.15631e+10
2.24775e+08
5.02582e+08
-6.16193e+10
2.36439e+08
4.83863e+08
-6.16764e+10
2.48687e+08
4.54583e+08
-6.1732e+10
2.6136e+08
4.1308e+08
-6.1783e+10
2.7443e+08
3.54247e+08
-6.18283e+10
2.8793e+08
2.78998e+08
-6.186e+10
3.01668e+08
1.8104e+08
-6.18753e+10
3.15613e+08
5.98495e+07
-6.18691e+10
3.29859e+08
-8.29998e+07
-6.18347e+10
3.44353e+08
-2.48073e+08
-6.17671e+10
3.59667e+08
-4.30738e+08
-6.16616e+10
3.75036e+08
-6.27251e+08
-6.15127e+10
3.90841e+08
-8.32725e+08
-6.13185e+10
4.06688e+08
-1.03623e+09
-6.10808e+10
4.22942e+08
-1.22644e+09
-6.081e+10
4.38483e+08
-1.38524e+09
-6.05211e+10
4.53037e+08
-1.49978e+09
-6.02327e+10
4.66392e+08
-1.563e+09
-5.99579e+10
4.78556e+08
-1.57609e+09
-5.9708e+10
4.89645e+08
-1.54598e+09
-5.94889e+10
4.9974e+08
-1.48482e+09
-5.93023e+10
5.08913e+08
-1.40142e+09
-5.9147e+10
5.17316e+08
-1.30852e+09
-5.90187e+10
5.25237e+08
-1.21195e+09
-5.8912e+10
5.33097e+08
-1.11889e+09
-5.88209e+10
5.41353e+08
-1.03288e+09
-5.87411e+10
5.50467e+08
-9.55383e+08
-5.86669e+10
5.60743e+08
-8.89031e+08
-5.85896e+10
5.71731e+08
-8.33612e+08
-5.8506e+10
5.84199e+08
-7.8857e+08
-5.84115e+10
5.99953e+08
-7.56588e+08
-5.8307e+10
6.20447e+08
-7.32976e+08
-5.81943e+10
6.47234e+08
-7.18203e+08
-5.80752e+10
6.82134e+08
-7.11283e+08
-5.79552e+10
7.26248e+08
-7.09489e+08
-5.7835e+10
7.793e+08
-7.15204e+08
-5.77146e+10
8.42057e+08
-7.24472e+08
-5.75962e+10
9.1662e+08
-7.4252e+08
-5.74885e+10
1.00493e+09
-7.6757e+08
-5.74005e+10
1.10097e+09
-7.90582e+08
-5.73273e+10
1.17294e+09
-8.22747e+08
-5.73828e+10
1.24355e+09
-8.21139e+08
-5.81745e+10
1.45884e+09
-5.68704e+08
-6.14628e+10
2.28199e+09
9.0217e+08
-7.12291e+10
3.53752e+09
4.72622e+09
-1.01855e+11
1.16991e+10
1.97136e+10
3.6048e+09
8.2543e+09
-5.62565e+10
6.31392e+08
-5.62179e+10
6.36908e+08
-5.61965e+10
6.61784e+08
-5.6185e+10
6.74626e+08
-5.61841e+10
6.92328e+08
-5.61922e+10
7.09831e+08
-5.62063e+10
7.22124e+08
-5.62258e+10
7.32154e+08
-5.62469e+10
7.34514e+08
-5.62683e+10
7.27098e+08
-5.62876e+10
7.08047e+08
-5.63012e+10
6.72112e+08
-5.63076e+10
6.19854e+08
-5.6299e+10
5.4503e+08
-5.62727e+10
4.47063e+08
-5.62235e+10
3.26737e+08
-5.61421e+10
1.82631e+08
-5.60192e+10
1.66195e+07
-5.5843e+10
-1.68832e+08
-5.56046e+10
-3.68801e+08
-5.52987e+10
-5.70546e+08
-5.49257e+10
-7.62787e+08
-5.44948e+10
-9.25725e+08
-5.40219e+10
-1.04493e+09
-5.35283e+10
-1.11155e+09
-5.30315e+10
-1.12507e+09
-5.25479e+10
-1.09136e+09
-5.20894e+10
-1.02166e+09
-5.16636e+10
-9.2436e+08
-5.12744e+10
-8.11712e+08
-5.09225e+10
-6.89423e+08
-5.06066e+10
-5.64332e+08
-5.03235e+10
-4.39623e+08
-5.00712e+10
-3.1661e+08
-4.98462e+10
-1.97418e+08
-4.96441e+10
-8.07247e+07
-4.94651e+10
3.55534e+07
-4.93046e+10
1.4936e+08
-4.91596e+10
2.64689e+08
-4.90257e+10
3.79644e+08
-4.88923e+10
4.93753e+08
-4.8751e+10
6.07775e+08
-4.85931e+10
7.20398e+08
-4.84101e+10
8.35542e+08
-4.81948e+10
9.47255e+08
-4.79419e+10
1.05384e+09
-4.76534e+10
1.15618e+09
-4.73621e+10
1.22626e+09
-4.70771e+10
1.18468e+09
-4.67598e+10
1.04106e+09
-4.65817e+10
1.62548e+09
-4.74287e+10
4.36094e+09
-4.77945e+10
1.62883e+10
6.07313e+09
-6.15125e+10
1.27928e+08
4.77245e+08
-6.16036e+10
1.3724e+08
4.77793e+08
-6.16934e+10
1.38702e+08
4.82112e+08
-6.17919e+10
1.42885e+08
4.83048e+08
-6.18953e+10
1.4664e+08
4.8512e+08
-6.2003e+10
1.50619e+08
4.84083e+08
-6.21156e+10
1.54405e+08
4.78114e+08
-6.22311e+10
1.58131e+08
4.67354e+08
-6.23474e+10
1.6187e+08
4.45833e+08
-6.24632e+10
1.65642e+08
4.12372e+08
-6.25722e+10
1.6951e+08
3.6066e+08
-6.2672e+10
1.73498e+08
2.89221e+08
-6.27551e+10
1.77749e+08
1.93996e+08
-6.2815e+10
1.82231e+08
6.87483e+07
-6.2845e+10
1.87156e+08
-8.63989e+07
-6.2836e+10
1.926e+08
-2.73231e+08
-6.27809e+10
1.99149e+08
-4.8773e+08
-6.26717e+10
2.06239e+08
-7.29413e+08
-6.25022e+10
2.13053e+08
-9.90336e+08
-6.22687e+10
2.18811e+08
-1.26495e+09
-6.19631e+10
2.24894e+08
-1.54318e+09
-6.15832e+10
2.31243e+08
-1.81081e+09
-6.11361e+10
2.38007e+08
-2.03994e+09
-6.06402e+10
2.45233e+08
-2.20803e+09
-6.01199e+10
2.53334e+08
-2.30192e+09
-5.95953e+10
2.63053e+08
-2.32643e+09
-5.90836e+10
2.74816e+08
-2.29204e+09
-5.85968e+10
2.88781e+08
-2.21627e+09
-5.81395e+10
3.04952e+08
-2.11587e+09
-5.77167e+10
3.23119e+08
-2.00281e+09
-5.73271e+10
3.43211e+08
-1.88906e+09
-5.69696e+10
3.65004e+08
-1.78134e+09
-5.66438e+10
3.88475e+08
-1.68221e+09
-5.63463e+10
4.13524e+08
-1.5956e+09
-5.6077e+10
4.39904e+08
-1.52058e+09
-5.58342e+10
4.66821e+08
-1.45759e+09
-5.56183e+10
4.94133e+08
-1.40357e+09
-5.54319e+10
5.23402e+08
-1.36058e+09
-5.52745e+10
5.56347e+08
-1.32788e+09
-5.51494e+10
5.93317e+08
-1.30239e+09
-5.50547e+10
6.34873e+08
-1.28749e+09
-5.49882e+10
6.82483e+08
-1.28152e+09
-5.49492e+10
7.38507e+08
-1.28862e+09
-5.49328e+10
8.05355e+08
-1.31233e+09
-5.49472e+10
8.86622e+08
-1.35356e+09
-5.50032e+10
9.88088e+08
-1.41589e+09
-5.51101e+10
1.11095e+09
-1.49825e+09
-5.52609e+10
1.25578e+09
-1.61891e+09
-5.53115e+10
1.41102e+09
-1.84813e+09
-5.47573e+10
1.54592e+09
-2.28028e+09
-5.2631e+10
1.75583e+09
-2.42666e+09
-4.88524e+10
2.48989e+09
-8.04109e+08
-4.90888e+10
8.18037e+09
1.23869e+10
4.69837e+09
9.5037e+09
-5.98635e+10
7.87899e+08
-5.99173e+10
8.321e+08
-5.99767e+10
8.64259e+08
-6.00492e+10
8.94631e+08
-6.01329e+10
9.27399e+08
-6.02265e+10
9.59119e+08
-6.03319e+10
9.87014e+08
-6.04476e+10
1.01121e+09
-6.05717e+10
1.0259e+09
-6.07034e+10
1.02989e+09
-6.08368e+10
1.01676e+09
-6.09695e+10
9.84657e+08
-6.10939e+10
9.28943e+08
-6.12023e+10
8.43005e+08
-6.1286e+10
7.25857e+08
-6.13325e+10
5.74704e+08
-6.13325e+10
3.92192e+08
-6.12788e+10
1.81225e+08
-6.11742e+10
-4.70975e+07
-6.10249e+10
-2.84736e+08
-6.08297e+10
-5.24809e+08
-6.05892e+10
-7.53818e+08
-6.03129e+10
-9.43698e+08
-6.00199e+10
-1.07112e+09
-5.97323e+10
-1.12262e+09
-5.94658e+10
-1.1032e+09
-5.92305e+10
-1.02416e+09
-5.90295e+10
-9.03622e+08
-5.88573e+10
-7.58661e+08
-5.87091e+10
-6.01307e+08
-5.85741e+10
-4.4295e+08
-5.84428e+10
-2.89552e+08
-5.83068e+10
-1.42688e+08
-5.81563e+10
-5.22894e+06
-5.79867e+10
1.25659e+08
-5.7796e+10
2.53424e+08
-5.75853e+10
3.829e+08
-5.73523e+10
5.10606e+08
-5.70884e+10
6.36255e+08
-5.67879e+10
7.61718e+08
-5.64423e+10
8.84783e+08
-5.60422e+10
1.00714e+09
-5.55733e+10
1.12432e+09
-5.50133e+10
1.23296e+09
-5.43443e+10
1.33282e+09
-5.35451e+10
1.42157e+09
-5.25914e+10
1.49773e+09
-5.14485e+10
1.52897e+09
-5.00888e+10
1.43878e+09
-4.8601e+10
1.36598e+09
-4.63309e+10
1.48373e+09
-4.08033e+10
1.71716e+09
-2.16073e+10
5.54188e+09
2.06409e+09
-6.14383e+10
5.7516e+07
4.92122e+08
-6.15365e+10
5.98461e+07
5.21834e+08
-6.16276e+10
5.34176e+07
5.25538e+08
-6.17286e+10
5.2169e+07
5.37514e+08
-6.18344e+10
4.96407e+07
5.46956e+08
-6.19439e+10
4.72935e+07
5.5204e+08
-6.20582e+10
4.43058e+07
5.53728e+08
-6.21761e+10
4.12013e+07
5.49535e+08
-6.22976e+10
3.79162e+07
5.34967e+08
-6.24181e+10
3.43653e+07
5.04038e+08
-6.25405e+10
3.04374e+07
4.58494e+08
-6.26588e+10
2.61935e+07
3.88036e+08
-6.27679e+10
2.18795e+07
2.889e+08
-6.2864e+10
1.76644e+07
1.55834e+08
-6.29398e+10
1.36967e+07
-1.53036e+07
-6.29873e+10
1.0187e+07
-2.26709e+08
-6.29955e+10
8.14038e+06
-4.77138e+08
-6.29593e+10
7.20826e+06
-7.61225e+08
-6.28713e+10
8.64935e+06
-1.07482e+09
-6.27265e+10
1.39849e+07
-1.41145e+09
-6.25149e+10
2.27589e+07
-1.76524e+09
-6.22318e+10
3.36227e+07
-2.11393e+09
-6.18827e+10
4.52845e+07
-2.41898e+09
-6.14963e+10
5.60528e+07
-2.63325e+09
-6.11053e+10
6.47076e+07
-2.73803e+09
-6.07401e+10
7.08166e+07
-2.73959e+09
-6.04166e+10
7.42055e+07
-2.66329e+09
-6.01407e+10
7.50126e+07
-2.53736e+09
-5.9912e+10
7.35929e+07
-2.38499e+09
-5.97217e+10
7.03344e+07
-2.22709e+09
-5.95643e+10
6.57153e+07
-2.07291e+09
-5.94307e+10
5.995e+07
-1.93237e+09
-5.93138e+10
5.32034e+07
-1.8063e+09
-5.92084e+10
4.53896e+07
-1.69624e+09
-5.91095e+10
3.67827e+07
-1.6015e+09
-5.90147e+10
2.90744e+07
-1.52123e+09
-5.8921e+10
2.34622e+07
-1.45411e+09
-5.88276e+10
1.89158e+07
-1.39925e+09
-5.8734e+10
1.52776e+07
-1.35459e+09
-5.86309e+10
1.20823e+07
-1.32509e+09
-5.85152e+10
9.11515e+06
-1.30685e+09
-5.83761e+10
6.65339e+06
-1.30573e+09
-5.82022e+10
5.37443e+06
-1.32897e+09
-5.79819e+10
6.79247e+06
-1.38431e+09
-5.77072e+10
1.40009e+07
-1.47867e+09
-5.73702e+10
3.25373e+07
-1.62224e+09
-5.69371e+10
6.19082e+07
-1.84249e+09
-5.63509e+10
1.05613e+08
-2.17526e+09
-5.56562e+10
1.85925e+08
-2.58148e+09
-5.5198e+10
3.97342e+08
-2.87734e+09
-5.41843e+10
4.48877e+08
-3.47654e+09
-4.86986e+10
-7.76094e+08
-5.02678e+09
-2.30628e+10
-2.06296e+09
-1.09004e+10
-3.37608e+09
-4.17683e+09
-5.77586e+10
8.46733e+08
-5.77616e+10
8.98466e+08
-5.77758e+10
9.35467e+08
-5.77974e+10
9.71994e+08
-5.78267e+10
1.00965e+09
-5.78604e+10
1.04336e+09
-5.79005e+10
1.07452e+09
-5.79459e+10
1.10079e+09
-5.79969e+10
1.11766e+09
-5.80487e+10
1.11893e+09
-5.81041e+10
1.10579e+09
-5.81573e+10
1.068e+09
-5.82031e+10
1.00139e+09
-5.82375e+10
9.00383e+08
-5.82528e+10
7.60569e+08
-5.82416e+10
5.79717e+08
-5.81932e+10
3.58615e+08
-5.80995e+10
1.02081e+08
-5.79416e+10
-1.89271e+08
-5.76953e+10
-5.10608e+08
-5.7337e+10
-8.54428e+08
-5.68543e+10
-1.19685e+09
-5.62482e+10
-1.49813e+09
-5.55486e+10
-1.70767e+09
-5.47958e+10
-1.80245e+09
-5.40325e+10
-1.78532e+09
-5.32893e+10
-1.68068e+09
-5.25855e+10
-1.51757e+09
-5.19328e+10
-1.32098e+09
-5.13312e+10
-1.11384e+09
-5.07803e+10
-9.07587e+08
-5.0274e+10
-7.13522e+08
-4.98055e+10
-5.33539e+08
-4.93688e+10
-3.69844e+08
-4.89542e+10
-2.22879e+08
-4.85455e+10
-9.39025e+07
-4.81215e+10
1.79652e+07
-4.76691e+10
1.16807e+08
-4.71796e+10
2.06345e+08
-4.66376e+10
2.82494e+08
-4.60373e+10
3.52295e+08
-4.53667e+10
4.11942e+08
-4.46137e+10
4.55862e+08
-4.37643e+10
4.77311e+08
-4.27991e+10
4.70532e+08
-4.16858e+10
4.22461e+08
-4.03663e+10
3.07526e+08
-3.8742e+10
6.67202e+07
-3.6742e+10
-2.88465e+08
-3.43894e+10
-4.18424e+08
-3.16339e+10
-5.77472e+08
-2.99658e+10
-4.3881e+08
-2.03648e+10
-6.02392e+09
-8.21826e+09
-6.04687e+10
-9.91304e+07
5.83129e+08
-6.04664e+10
-1.15647e+08
6.39652e+08
-6.04796e+10
-1.16444e+08
6.59289e+08
-6.05034e+10
-1.2276e+08
6.87715e+08
-6.05386e+10
-1.28591e+08
7.13684e+08
-6.05854e+10
-1.35164e+08
7.3642e+08
-6.0646e+10
-1.42327e+08
7.58438e+08
-6.07185e+10
-1.49635e+08
7.72927e+08
-6.08056e+10
-1.57025e+08
7.80087e+08
-6.09097e+10
-1.64376e+08
7.73517e+08
-6.10271e+10
-1.71519e+08
7.48848e+08
-6.11572e+10
-1.78087e+08
6.98813e+08
-6.12959e+10
-1.83573e+08
6.15074e+08
-6.14357e+10
-1.87575e+08
4.88537e+08
-6.15692e+10
-1.89807e+08
3.13474e+08
-6.16836e+10
-1.90111e+08
8.28865e+07
-6.17641e+10
-1.88785e+08
-2.03879e+08
-6.17899e+10
-1.87247e+08
-5.45389e+08
-6.17442e+10
-1.87552e+08
-9.32903e+08
-6.16147e+10
-1.91024e+08
-1.35367e+09
-6.13825e+10
-1.97461e+08
-1.80818e+09
-6.1019e+10
-2.06636e+08
-2.2823e+09
-6.05167e+10
-2.19235e+08
-2.71586e+09
-5.99106e+10
-2.34746e+08
-3.01856e+09
-5.92679e+10
-2.51425e+08
-3.1423e+09
-5.86457e+10
-2.66705e+08
-3.10539e+09
-5.80811e+10
-2.79446e+08
-2.95676e+09
-5.75919e+10
-2.8945e+08
-2.74401e+09
-5.718e+10
-2.97227e+08
-2.50579e+09
-5.68392e+10
-3.03479e+08
-2.27037e+09
-5.65581e+10
-3.08864e+08
-2.0514e+09
-5.63272e+10
-3.13743e+08
-1.85642e+09
-5.61367e+10
-3.18287e+08
-1.68662e+09
-5.59779e+10
-3.2242e+08
-1.54186e+09
-5.58434e+10
-3.26417e+08
-1.4204e+09
-5.57295e+10
-3.30497e+08
-1.31721e+09
-5.56315e+10
-3.33684e+08
-1.23325e+09
-5.55499e+10
-3.34372e+08
-1.16396e+09
-5.5482e+10
-3.31917e+08
-1.11118e+09
-5.54304e+10
-3.25828e+08
-1.07405e+09
-5.53913e+10
-3.14926e+08
-1.05621e+09
-5.53637e+10
-2.99424e+08
-1.06086e+09
-5.53492e+10
-2.80722e+08
-1.093e+09
-5.53481e+10
-2.61787e+08
-1.16568e+09
-5.53575e+10
-2.45875e+08
-1.28858e+09
-5.53681e+10
-2.35565e+08
-1.48296e+09
-5.53296e+10
-2.48454e+08
-1.79416e+09
-5.51219e+10
-3.08053e+08
-2.28422e+09
-5.44806e+10
-4.28547e+08
-2.99544e+09
-5.31575e+10
-4.84276e+08
-3.81977e+09
-5.04087e+10
-9.97723e+08
-5.21645e+09
-4.46868e+10
-2.67653e+09
-8.02451e+09
-2.33714e+10
-1.35253e+10
-1.86562e+10
-5.49407e+09
-9.35263e+09
-5.89773e+10
8.5655e+08
-5.91349e+10
9.43677e+08
-5.92934e+10
9.80394e+08
-5.94704e+10
1.02872e+09
-5.96626e+10
1.07546e+09
-5.98713e+10
1.11865e+09
-6.00987e+10
1.16108e+09
-6.03423e+10
1.19595e+09
-6.06038e+10
1.22322e+09
-6.08839e+10
1.23594e+09
-6.11774e+10
1.22949e+09
-6.14815e+10
1.1965e+09
-6.17886e+10
1.12854e+09
-6.20881e+10
1.01659e+09
-6.23682e+10
8.55223e+08
-6.26127e+10
6.37995e+08
-6.28065e+10
3.66687e+08
-6.29343e+10
4.44511e+07
-6.2996e+10
-3.15977e+08
-6.29987e+10
-7.02749e+08
-6.29381e+10
-1.11939e+09
-6.27957e+10
-1.55566e+09
-6.25699e+10
-1.95436e+09
-6.22939e+10
-2.22962e+09
-6.20237e+10
-2.33319e+09
-6.18007e+10
-2.28202e+09
-6.16453e+10
-2.12084e+09
-6.15617e+10
-1.89525e+09
-6.15414e+10
-1.64278e+09
-6.15718e+10
-1.39141e+09
-6.16381e+10
-1.15519e+09
-6.17288e+10
-9.42254e+08
-6.1833e+10
-7.54315e+08
-6.19413e+10
-5.91704e+08
-6.20456e+10
-4.53949e+08
-6.21436e+10
-3.36974e+08
-6.22309e+10
-2.4072e+08
-6.23046e+10
-1.58348e+08
-6.23602e+10
-8.67565e+07
-6.2401e+10
-2.14273e+07
-6.242e+10
3.55986e+07
-6.24145e+10
8.43256e+07
-6.23889e+10
1.22323e+08
-6.23491e+10
1.3843e+08
-6.23051e+10
1.23465e+08
-6.22555e+10
4.88257e+07
-6.21814e+10
-1.42381e+08
-6.20496e+10
-5.33005e+08
-6.16833e+10
-1.24303e+09
-6.00648e+10
-2.6461e+09
-5.59525e+10
-5.76368e+09
-4.81473e+10
-1.10081e+10
-4.39844e+10
-2.38434e+10
-6.37206e+09
-6.00285e+10
-6.15367e+07
6.52511e+08
-6.00467e+10
-6.89968e+07
7.32653e+08
-6.00827e+10
-6.77798e+07
7.68405e+08
-6.01341e+10
-6.89447e+07
8.13196e+08
-6.02035e+10
-6.8938e+07
8.56866e+08
-6.02922e+10
-6.82663e+07
8.98078e+08
-6.04022e+10
-6.67253e+07
9.39512e+08
-6.05361e+10
-6.39317e+07
9.75005e+08
-6.06939e+10
-5.98049e+07
1.00197e+09
-6.08781e+10
-5.42619e+07
1.01664e+09
-6.10885e+10
-4.71665e+07
1.01171e+09
-6.13194e+10
-3.83746e+07
9.7456e+08
-6.15654e+10
-2.78704e+07
8.96701e+08
-6.18178e+10
-1.59201e+07
7.65467e+08
-6.20613e+10
-2.98439e+06
5.68032e+08
-6.22815e+10
1.03341e+07
2.98963e+08
-6.24622e+10
2.36895e+07
-4.36081e+07
-6.26014e+10
3.90213e+07
-4.46791e+08
-6.27049e+10
5.77023e+07
-8.93283e+08
-6.27717e+10
7.71742e+07
-1.37809e+09
-6.2787e+10
9.67188e+07
-1.90978e+09
-6.27109e+10
1.14336e+08
-2.49938e+09
-6.25075e+10
1.26633e+08
-3.07328e+09
-6.22156e+10
1.2814e+08
-3.46586e+09
-6.19291e+10
1.18974e+08
-3.56832e+09
-6.17113e+10
1.03052e+08
-3.44279e+09
-6.15773e+10
8.74835e+07
-3.19249e+09
-6.15252e+10
7.64305e+07
-2.88695e+09
-6.15388e+10
7.17667e+07
-2.57989e+09
-6.16012e+10
7.34385e+07
-2.29957e+09
-6.16954e+10
8.01309e+07
-2.05828e+09
-6.18102e+10
9.01434e+07
-1.85595e+09
-6.19354e+10
1.01811e+08
-1.69091e+09
-6.20647e+10
1.1364e+08
-1.55816e+09
-6.21972e+10
1.24274e+08
-1.44874e+09
-6.23291e+10
1.32513e+08
-1.36015e+09
-6.24633e+10
1.37445e+08
-1.28548e+09
-6.25983e+10
1.37883e+08
-1.224e+09
-6.27401e+10
1.33256e+08
-1.16928e+09
-6.28911e+10
1.23473e+08
-1.12343e+09
-6.30557e+10
1.07335e+08
-1.08717e+09
-6.32383e+10
8.25083e+07
-1.06181e+09
-6.34459e+10
4.49776e+07
-1.04888e+09
-6.36895e+10
-1.16468e+07
-1.05723e+09
-6.39862e+10
-9.58856e+07
-1.08689e+09
-6.43497e+10
-2.23269e+08
-1.15244e+09
-6.47922e+10
-4.16713e+08
-1.26849e+09
-6.52937e+10
-7.17079e+08
-1.4826e+09
-6.57393e+10
-1.12138e+09
-1.90563e+09
-6.54949e+10
-1.72819e+09
-2.8953e+09
-6.29808e+10
-2.96892e+09
-5.4042e+09
-5.57226e+10
-5.89464e+09
-1.00788e+10
-4.28088e+10
-1.0933e+10
-2.12365e+10
-2.99641e+09
-9.47996e+09
-5.89025e+10
8.04669e+08
-5.89186e+10
8.94319e+08
-5.89389e+10
9.36438e+08
-5.89678e+10
9.91998e+08
-5.9004e+10
1.04606e+09
-5.90484e+10
1.09811e+09
-5.91018e+10
1.15086e+09