/*--------------------------------*- C++ -*----------------------------------*\
| =========                 |                                                 |
| \\      /  F ield         | OpenFOAM: The Open Source CFD Toolbox           |
|  \\    /   O peration     | Version:  4.1                                   |
|   \\  /    A nd           | Web:      www.OpenFOAM.org                      |
|    \\/     M anipulation  |                                                 |
\*---------------------------------------------------------------------------*/
FoamFile
{
    version     2.0;
    format      ascii;
    class       volVectorField;
    location    "82";
    object      U;
}
// * * * * * * * * * * * * * * * * * * * * * * * * * * * * * * * * * * * * * //

dimensions      [0 1 -1 0 0 0 0];

internalField   nonuniform List<vector> 
4432
(
(-141566 -2919.87 -1036.61)
(-146111 -3054.87 -1441.56)
(-147801 -2991.73 -1467.58)
(-149963 -3084.3 -1715.89)
(-151928 -3113.7 -1878.48)
(-153841 -3139.8 -1996.84)
(-155600 -3176.07 -2141.36)
(-157272 -3207.99 -2283.29)
(-158835 -3240.35 -2438.42)
(-160284 -3275.05 -2612.18)
(-161596 -3313.41 -2807.94)
(-162743 -3355.02 -3030.81)
(-163692 -3399.33 -3282.93)
(-164399 -3446.53 -3562.15)
(-164832 -3495.83 -3862.75)
(-164946 -3545.61 -4177.82)
(-164718 -3595.6 -4504.1)
(-164143 -3651.5 -4842.73)
(-163206 -3716.39 -5190.33)
(-161897 -3789.07 -5540.05)
(-160214 -3870.99 -5886.79)
(-158169 -3961.82 -6218.97)
(-155792 -4062.3 -6525.58)
(-153119 -4171.16 -6796.26)
(-150198 -4286.99 -7023.02)
(-147072 -4408.08 -7203.41)
(-143794 -4532.22 -7335.84)
(-140412 -4658.19 -7422.58)
(-136974 -4786.53 -7465.93)
(-133520 -4913.45 -7468.59)
(-130099 -5034.86 -7432.43)
(-126755 -5145.93 -7358.94)
(-123523 -5241.32 -7250.59)
(-120452 -5314.45 -7107.17)
(-117576 -5358.67 -6929.64)
(-114935 -5367.68 -6718.86)
(-112560 -5337.7 -6477.61)
(-110491 -5278.11 -6214.77)
(-108647 -5202.86 -5984.1)
(-107003 -5108.21 -5787.29)
(-105516 -4991.37 -5621.58)
(-104106 -4844.43 -5486.46)
(-102641 -4659.99 -5378.46)
(-101040 -4432.7 -5276.94)
(-99634.5 -4152.7 -5147.25)
(-99337.1 -3804.9 -4945.49)
(-100538 -3364.67 -4674.85)
(-100612 -2763.88 -4139.03)
(-94622.9 -1693.34 -2858.35)
(-85013.4 758.645 892.729)
(-93231.7 6750.68 7107.25)
(-134738 13944.9 16226.7)
(-172982 29765.8 -1129.61)
(-45539.1 12071 -6970.39)
(-182701 3726.32 -142.832)
(-185094 3668.27 -434.097)
(-186186 3742.06 -569.936)
(-187514 3697.01 -697.63)
(-188669 3697.36 -826.516)
(-189837 3702.38 -917.52)
(-190916 3699.72 -1022.67)
(-191948 3701.37 -1127.59)
(-192933 3703.89 -1245.04)
(-193864 3705.64 -1376.89)
(-194726 3705.47 -1527.13)
(-195495 3703.68 -1699.72)
(-196149 3700.56 -1896.31)
(-196654 3695.9 -2114.43)
(-196984 3690.31 -2350.78)
(-197103 3685.6 -2603.36)
(-196989 3683.24 -2867.51)
(-196619 3681.27 -3134.8)
(-196000 3680.79 -3406.1)
(-195130 3683.38 -3675.77)
(-194013 3688.36 -3936.27)
(-192670 3695.98 -4178.13)
(-191139 3704.95 -4390.25)
(-189461 3715.91 -4563.75)
(-187692 3727.99 -4691.85)
(-185881 3741.09 -4772.68)
(-184088 3753.7 -4806.14)
(-182355 3763.75 -4794.24)
(-180741 3772.59 -4740.04)
(-179279 3781.2 -4648.57)
(-178002 3789.72 -4524.62)
(-176927 3798.75 -4372.64)
(-176057 3809.43 -4196.91)
(-175394 3822.59 -4000.72)
(-174915 3838.79 -3787.48)
(-174592 3857.69 -3558.68)
(-174384 3878.46 -3320.99)
(-174237 3896.6 -3097.2)
(-174097 3909.23 -2891.51)
(-173901 3917.8 -2695.99)
(-173578 3923.38 -2506)
(-173022 3929.22 -2320.74)
(-172072 3933.06 -2131.48)
(-170595 3929.32 -1913.19)
(-168713 3917.53 -1632.59)
(-166894 3907.41 -1270.96)
(-165181 3916.44 -864.44)
(-161529 3974.16 -318.248)
(-152384 4236.12 811.119)
(-138973 5284.04 3335.93)
(-139726 7867.4 5527.25)
(-158103 9152.24 7150.42)
(-174844 11348.7 5493.7)
(55054.4 8720.96 -23340.5)
(-265121 -1456.25 5840.76)
(-266167 -1452.1 5420.8)
(-266639 -1468.75 5345.63)
(-267233 -1437.5 5188.41)
(-267674 -1424.6 5074.65)
(-268139 -1407.17 5011.43)
(-268556 -1391.57 4948.47)
(-268930 -1374.92 4887.24)
(-269269 -1359.93 4815.07)
(-269569 -1345.83 4726.97)
(-269827 -1334.37 4617.72)
(-270035 -1325.2 4481.75)
(-270178 -1317.84 4316.52)
(-270243 -1312.12 4121.87)
(-270219 -1308.54 3900.41)
(-270092 -1309.25 3655.46)
(-269859 -1312.91 3394.98)
(-269551 -1317.63 3134.58)
(-269166 -1323.65 2874.15)
(-268713 -1330.33 2621.98)
(-268197 -1336.18 2386.16)
(-267634 -1341.66 2183.17)
(-267050 -1346.6 2028.09)
(-266469 -1351.07 1935.12)
(-265925 -1355.45 1912.3)
(-265435 -1360.34 1960.04)
(-265024 -1366.93 2074.96)
(-264702 -1376.71 2248.09)
(-264482 -1391.01 2470.43)
(-264366 -1410.84 2731.19)
(-264361 -1437.16 3021.01)
(-264465 -1470.67 3331.17)
(-264680 -1510.96 3655.34)
(-265011 -1557.32 3989.56)
(-265461 -1608.54 4330.16)
(-266043 -1663.15 4674.64)
(-266772 -1721.18 5019.91)
(-267644 -1784.28 5375.16)
(-268748 -1843.85 5764.3)
(-270165 -1896.92 6196.78)
(-271956 -1944.09 6667.78)
(-274145 -1980.26 7183.82)
(-276820 -1995.55 7765.75)
(-280069 -1980.39 8430.6)
(-284207 -1921.38 9197.61)
(-289910 -1802.45 10038.4)
(-297564 -1597.72 10812.6)
(-305986 -1244.36 11308.6)
(-311447 -496.847 11685.8)
(-315466 994.709 12563.2)
(-330666 2526.5 14408.4)
(-385055 4339.63 8860.78)
(-381756 11406.1 -17766.6)
(-421354 26147.7 -43429.2)
(-312081 1869.82 4621.62)
(-312794 1759.65 4357.31)
(-313195 1696.23 4233.45)
(-313663 1663.03 4174.3)
(-314091 1621.46 4111.79)
(-314542 1585.55 4089.93)
(-314977 1550.72 4073.39)
(-315392 1519.39 4057.83)
(-315793 1489.29 4031.15)
(-316177 1461.46 3990.85)
(-316537 1434.93 3932.03)
(-316864 1410.64 3849.93)
(-317145 1389.57 3741.7)
(-317365 1372.84 3607.3)
(-317516 1360.45 3448.5)
(-317586 1351.16 3266.17)
(-317572 1346.44 3062.55)
(-317471 1345.76 2843.77)
(-317301 1347.12 2622.18)
(-317074 1350.99 2403.75)
(-316796 1359.15 2197.48)
(-316478 1371.84 2017.17)
(-316140 1389.86 1878.02)
(-315801 1414.06 1792.08)
(-315489 1444.81 1767.14)
(-315217 1482.61 1803.97)
(-315008 1526.97 1899.85)
(-314871 1577.45 2047.63)
(-314822 1633.22 2239.65)
(-314863 1693.86 2466.48)
(-315009 1758.39 2720.41)
(-315263 1826.47 2994.1)
(-315635 1898.04 3282.01)
(-316134 1972.84 3580.46)
(-316768 2050.92 3887.2)
(-317551 2131.44 4204.23)
(-318495 2209.95 4538.33)
(-319619 2282.23 4898.39)
(-321011 2343.87 5290.11)
(-322715 2391.56 5707.63)
(-324760 2419.78 6145.44)
(-327172 2425.28 6609.12)
(-329939 2406.65 7107.32)
(-333070 2358.6 7654.6)
(-336726 2271.9 8273.29)
(-341356 2132.66 8944.12)
(-347144 1923.98 9558.62)
(-352750 1635.93 10068)
(-354434 1527.08 10828.6)
(-351845 1582.33 12311.6)
(-351124 984.864 13371.2)
(-373235 -2997.23 10048.2)
(-319955 5717.62 -27972.8)
(-299673 -8517.23 -15810.7)
(-233355 -2249.21 392.17)
(-232288 -2247.33 -140.937)
(-231979 -2322.67 -374.249)
(-231628 -2316.91 -552.418)
(-231353 -2332.12 -737.535)
(-231143 -2348.94 -901.122)
(-230985 -2367.58 -1046.73)
(-230866 -2385.73 -1194.6)
(-230780 -2407.76 -1354.12)
(-230724 -2432.55 -1530.97)
(-230694 -2461.58 -1733.56)
(-230687 -2494.51 -1967.19)
(-230689 -2531.95 -2235.95)
(-230691 -2574.11 -2543.6)
(-230677 -2620.67 -2891.36)
(-230634 -2671.83 -3278.48)
(-230529 -2729.12 -3697.4)
(-230270 -2791.27 -4154.74)
(-229816 -2850.17 -4644.07)
(-229148 -2904.61 -5154.51)
(-228258 -2951.05 -5665.23)
(-227151 -2987.95 -6152.99)
(-225846 -3011.32 -6588.76)
(-224381 -3019.34 -6947.48)
(-222802 -3009.8 -7211.93)
(-221155 -2981.89 -7375.94)
(-219483 -2935.97 -7441.07)
(-217823 -2873.47 -7416.35)
(-216207 -2796.5 -7312.92)
(-214659 -2707.27 -7144.6)
(-213198 -2608.05 -6924.3)
(-211833 -2501.55 -6663.57)
(-210574 -2390.95 -6369.69)
(-209419 -2279.53 -6049.18)
(-208369 -2169.47 -5707.71)
(-207423 -2061.86 -5350.8)
(-206571 -1960.49 -4984.72)
(-205799 -1867.37 -4610.96)
(-205082 -1788.61 -4237.5)
(-204306 -1726.97 -3890.03)
(-203388 -1673.13 -3583.22)
(-202290 -1630.6 -3305.9)
(-200790 -1602.69 -3061.8)
(-198741 -1580.7 -2829.51)
(-196307 -1549.41 -2597.52)
(-194076 -1476.56 -2462.08)
(-192206 -1318.04 -2633.03)
(-188276 -916.81 -3324.87)
(-178171 386.664 -4548.74)
(-164365 2862.84 -5992.28)
(-168621 6762.8 -9619.72)
(-196336 11280.4 -21317.7)
(-199173 28019 -31342.5)
(-106459 10974.2 -7140.61)
(-264002 2603.27 1311.58)
(-263014 2621.56 925.208)
(-262642 2562.66 758.123)
(-262188 2576.92 628.129)
(-261873 2571.82 497.457)
(-261605 2564.93 378.259)
(-261385 2556.53 276.803)
(-261205 2548.68 170.23)
(-261061 2537.41 51.2796)
(-260952 2523.45 -85.4526)
(-260876 2505.18 -246.734)
(-260832 2482.39 -437.553)
(-260813 2453.92 -662.501)
(-260814 2418.82 -925.713)
(-260829 2376.51 -1227.96)
(-260853 2325.83 -1566.34)
(-260863 2265.49 -1937.24)
(-260861 2198.41 -2329.97)
(-260794 2132.84 -2738.19)
(-260637 2069.72 -3151.07)
(-260389 2011.75 -3550.87)
(-260052 1960.32 -3913.67)
(-259642 1919.09 -4213.29)
(-259184 1889.84 -4427.28)
(-258704 1874.84 -4540.98)
(-258223 1875.25 -4550.5)
(-257759 1891.17 -4459.28)
(-257319 1921.86 -4278.07)
(-256905 1966.01 -4019.82)
(-256512 2022.21 -3699.76)
(-256131 2088.77 -3332.05)
(-255742 2163.61 -2930.52)
(-255329 2244.24 -2506.51)
(-254868 2327.91 -2069.05)
(-254331 2412.55 -1625.45)
(-253691 2496.46 -1179.83)
(-252882 2580.39 -743.085)
(-251864 2664.38 -313.245)
(-250518 2743.55 99.4567)
(-248778 2809.61 481.623)
(-246587 2865.7 822.445)
(-243848 2908.46 1116.01)
(-240423 2930.12 1363.23)
(-236194 2929.96 1575.81)
(-231261 2916.26 1749.45)
(-226028 2908.32 1803.74)
(-220496 2928.23 1577.32)
(-212555 3078.31 908.672)
(-198740 3759.15 -216.256)
(-179684 5096.86 -2459.51)
(-176392 6479.32 -6633.05)
(-195281 6261.3 -12518.8)
(-197051 7163.8 -7552.61)
(17038.6 8776.6 -3397.62)
(-257015 -3341.14 3945.4)
(-257681 -3391.52 3947.55)
(-258077 -3435.68 3936.29)
(-258613 -3458.73 3972.23)
(-259178 -3487.14 4002.09)
(-259779 -3519.29 4027.41)
(-260408 -3551.25 4048.33)
(-261069 -3585.37 4059.1)
(-261752 -3623.66 4051.44)
(-262451 -3665.54 4015.99)
(-263153 -3711.88 3942.92)
(-263843 -3762.12 3825.9)
(-264494 -3816.3 3656.29)
(-265080 -3874.53 3425.04)
(-265572 -3937.24 3124.95)
(-265942 -4004.34 2752.61)
(-266165 -4076.65 2311.24)
(-266247 -4153.63 1813.24)
(-266199 -4234.54 1281.6)
(-266044 -4319.73 739.792)
(-265780 -4410.5 212.613)
(-265412 -4505.06 -272.669)
(-264959 -4602.99 -681.013)
(-264453 -4702.49 -985.736)
(-263929 -4801.69 -1171.34)
(-263417 -4898.69 -1237.46)
(-262935 -4992.04 -1195.49)
(-262497 -5081.06 -1064.42)
(-262106 -5165.69 -866.17)
(-261762 -5245.74 -622.822)
(-261465 -5321.72 -353.905)
(-261208 -5394.75 -76.628)
(-260994 -5466.85 195.662)
(-260824 -5539.23 451.292)
(-260712 -5612.15 681.189)
(-260669 -5686.66 878.606)
(-260741 -5767.09 1042.22)
(-260965 -5855.81 1163.76)
(-261372 -5954.54 1237.05)
(-262049 -6068.78 1264.78)
(-263078 -6205.59 1255)
(-264497 -6369.82 1210.65)
(-266324 -6568.99 1141.84)
(-268616 -6820.25 1081.67)
(-271648 -7148.25 1066.31)
(-276195 -7576.66 1126.94)
(-282908 -8121.92 1292.24)
(-290534 -8790.32 1564.04)
(-294694 -9295.27 1658.07)
(-297653 -9764.51 1238.15)
(-313833 -10164.7 412.983)
(-392181 -10190.4 -8502.82)
(-507645 1317.95 -17643.1)
(-407029 9619.04 -23376.7)
(-246863 2972.97 3257.35)
(-246768 2946.26 3188)
(-246839 2916.93 3230.28)
(-246928 2912.15 3242.82)
(-247117 2901.86 3270.33)
(-247338 2888.45 3293.31)
(-247593 2875.71 3312.76)
(-247887 2861.08 3319.32)
(-248211 2842.3 3309.56)
(-248554 2819.84 3273.41)
(-248909 2792.51 3202.08)
(-249261 2760.65 3089.37)
(-249588 2723.87 2928.6)
(-249869 2681.64 2711.51)
(-250080 2633.12 2430.99)
(-250195 2578.03 2084.82)
(-250202 2514.91 1678.44)
(-250099 2443.81 1224.29)
(-249909 2363.51 742.61)
(-249637 2275.75 255.139)
(-249284 2179.51 -214.19)
(-248856 2076.83 -634.619)
(-248375 1968.31 -972.358)
(-247872 1856.09 -1198.79)
(-247380 1742.29 -1297.92)
(-246926 1629.04 -1268.79)
(-246523 1517.9 -1122.5)
(-246173 1409.72 -878.203)
(-245869 1304.68 -557.907)
(-245597 1203.23 -183.99)
(-245341 1105.38 224.024)
(-245081 1010.66 649.063)
(-244799 917.979 1077.98)
(-244478 827.402 1500.15)
(-244104 740.147 1906.72)
(-243654 655.627 2295.26)
(-243133 570.948 2663.68)
(-242542 485.754 3007.94)
(-241881 401.237 3326.13)
(-241152 316.751 3625.7)
(-240361 230.056 3916.77)
(-239494 139.315 4211.71)
(-238484 37.5007 4529.58)
(-237286 -89.5733 4896.36)
(-236112 -264.613 5327.25)
(-235668 -515.95 5817.36)
(-236454 -871.116 6360.96)
(-236757 -1342.65 6859.35)
(-232322 -1669.21 6650.51)
(-224619 -2338.73 5245.88)
(-232130 -2700.19 1216.47)
(-273812 -7702.48 1233.51)
(-266336 9764.8 -14343)
(-193028 46.378 -12892)
(-245391 -2822.08 1708.01)
(-245351 -2814.7 1548.37)
(-245397 -2786.74 1531.49)
(-245468 -2752.05 1473.32)
(-245596 -2716.21 1440.14)
(-245753 -2679.65 1406.82)
(-245935 -2641.59 1367.35)
(-246138 -2602.91 1313.22)
(-246358 -2562.46 1237.43)
(-246587 -2519.51 1127.29)
(-246816 -2474.41 970.712)
(-247035 -2426.9 760.638)
(-247229 -2376.18 488.609)
(-247380 -2322.5 146.059)
(-247473 -2266.14 -274.283)
(-247485 -2207.3 -773.217)
(-247396 -2146.27 -1347.27)
(-247182 -2082.45 -1986.08)
(-246831 -2019.17 -2673.6)
(-246305 -1954.16 -3389.35)
(-245594 -1888.35 -4104.99)
(-244698 -1821.49 -4775.21)
(-243649 -1756.49 -5350.71)
(-242505 -1694.3 -5787.08)
(-241337 -1636.01 -6061.71)
(-240210 -1582.2 -6176.01)
(-239173 -1533.37 -6149.73)
(-238255 -1490.1 -6012.68)
(-237466 -1452.88 -5797.35)
(-236804 -1421.8 -5532.79)
(-236255 -1396.82 -5242.37)
(-235799 -1378.2 -4944.09)
(-235415 -1366.53 -4651.7)
(-235084 -1361.79 -4374.73)
(-234787 -1363.77 -4119.35)
(-234507 -1374.37 -3891.61)
(-234205 -1387.67 -3703.65)
(-233863 -1397.9 -3567.59)
(-233479 -1401.54 -3492.39)
(-233060 -1394.23 -3482.54)
(-232613 -1371.12 -3546.55)
(-232126 -1330.28 -3686.76)
(-231535 -1274.24 -3907.62)
(-230791 -1208.25 -4224.49)
(-230110 -1140.65 -4660.34)
(-230160 -1083.88 -5215.32)
(-231391 -1050.29 -5854.51)
(-232051 -1035.04 -6725.94)
(-227821 -915.287 -7893.18)
(-219946 -941.577 -9373.85)
(-229619 -1642.71 -8981.75)
(-291327 -5417.71 -3441.94)
(-409028 12315.5 37748.9)
(-368621 14178.2 20335.9)
(-225197 4197.66 1090.52)
(-224917 4226.96 949.768)
(-224821 4259.96 949.394)
(-224736 4303.52 884.663)
(-224729 4346.24 848.424)
(-224749 4388.66 816.534)
(-224795 4431.44 776.728)
(-224860 4473.61 720.046)
(-224939 4516.29 641.393)
(-225027 4560.25 527.959)
(-225113 4605.06 368.955)
(-225185 4650.93 155.104)
(-225226 4698.72 -123.301)
(-225220 4748.31 -476.68)
(-225149 4799.7 -912.426)
(-224993 4852.69 -1432.04)
(-224729 4906.48 -2033.01)
(-224319 4961.58 -2710.48)
(-223723 5016.81 -3455.65)
(-222881 5072.99 -4257.49)
(-221772 5128.43 -5083.39)
(-220386 5183.34 -5888.53)
(-218748 5234.78 -6618.82)
(-216914 5282.13 -7224.03)
(-214965 5324.86 -7674.5)
(-212978 5363.05 -7964.44)
(-211023 5396.86 -8107.35)
(-209152 5426.06 -8128.08)
(-207398 5450.3 -8055.33)
(-205782 5469.54 -7915.57)
(-204312 5483.7 -7730.25)
(-202984 5492.39 -7515.07)
(-201794 5494.84 -7280.85)
(-200730 5491.01 -7035.42)
(-199784 5481.43 -6784.54)
(-198946 5465.71 -6530.89)
(-198203 5444.77 -6276.01)
(-197544 5423.7 -6022.55)
(-196954 5408.76 -5776.51)
(-196422 5406.91 -5543.67)
(-195924 5425.85 -5333.64)
(-195373 5469.19 -5163.2)
(-194648 5534.7 -5039.4)
(-193663 5618.5 -4968.93)
(-192644 5711.23 -4962.02)
(-192348 5790.77 -5012.19)
(-193173 5821.53 -5100.14)
(-192763 5753.2 -5426.83)
(-186409 5705.97 -6443.1)
(-175733 5423.39 -8327.54)
(-181561 3795.88 -7084.29)
(-215590 -1530.37 2450.59)
(-240025 12664.2 41570)
(-130661 2955.38 21949.6)
(-245778 -2519.67 2577.49)
(-246297 -2536.29 2593.2)
(-246574 -2555.29 2652.63)
(-246963 -2567.51 2671.43)
(-247364 -2583.47 2694.73)
(-247792 -2597.17 2701.72)
(-248237 -2610.05 2689.12)
(-248691 -2624.05 2648.21)
(-249155 -2638.97 2570.28)
(-249621 -2653.15 2441.71)
(-250075 -2665.11 2248.31)
(-250497 -2675.28 1976.16)
(-250866 -2683.48 1611.49)
(-251157 -2689.94 1141.71)
(-251338 -2694.47 559.334)
(-251377 -2696.66 -134.41)
(-251241 -2693.92 -928.515)
(-250900 -2685.69 -1800.44)
(-250330 -2672.09 -2727.29)
(-249506 -2652.8 -3678.86)
(-248399 -2623.76 -4616.73)
(-246989 -2584.77 -5482.62)
(-245292 -2535.29 -6203.07)
(-243372 -2475.85 -6709.89)
(-241322 -2406.91 -6972.32)
(-239233 -2328.89 -7002.89)
(-237176 -2243.05 -6844.78)
(-235202 -2151.15 -6555.81)
(-233340 -2055.07 -6194.5)
(-231604 -1956.69 -5810.83)
(-229998 -1857.38 -5442.73)
(-228517 -1758.44 -5116.44)
(-227159 -1660.43 -4848.78)
(-225918 -1563.67 -4648.24)
(-224792 -1468.63 -4516.52)
(-223778 -1376.77 -4451.44)
(-222875 -1287.02 -4448.57)
(-222086 -1194.6 -4500.92)
(-221418 -1095.62 -4595.19)
(-220875 -990.146 -4715.14)
(-220458 -880.055 -4854)
(-220129 -766.47 -4997.45)
(-219805 -650.947 -5134.99)
(-219421 -535.602 -5261.51)
(-219185 -418.602 -5375.75)
(-219786 -288.979 -5476.45)
(-221724 -132.285 -5564.73)
(-223108 127.16 -5722.9)
(-219563 649.628 -6138.16)
(-210458 1706.09 -7032.98)
(-211028 3829.67 -5957.2)
(-227985 6190.43 3057.29)
(-244322 19775.7 64160.4)
(-146630 15002.3 37932.3)
(-239321 3625.45 3858.12)
(-239593 3688.17 4061.03)
(-239767 3725.6 4223.65)
(-240038 3772.04 4363.33)
(-240350 3817.1 4511.05)
(-240707 3865.27 4656.42)
(-241108 3915.36 4792.48)
(-241550 3965.09 4909.81)
(-242029 4014.46 4997.25)
(-242542 4064.97 5041.26)
(-243076 4117.87 5027.32)
(-243613 4172.31 4939.6)
(-244131 4228.03 4761.62)
(-244602 4284.2 4478.82)
(-244991 4340.16 4081.02)
(-245253 4395.27 3564.39)
(-245340 4450.08 2933.87)
(-245218 4502.87 2206.43)
(-244871 4552.93 1412.29)
(-244339 4596.96 596.105)
(-243618 4636.5 -202.169)
(-242704 4670.96 -925.525)
(-241626 4700.87 -1497.4)
(-240454 4726.72 -1849.42)
(-239279 4750.11 -1950.91)
(-238177 4773.68 -1815.31)
(-237198 4799.56 -1486.89)
(-236358 4829.46 -1023.51)
(-235648 4864.68 -482.341)
(-235042 4906.04 89.0921)
(-234502 4954.25 656.211)
(-233991 5009.62 1196.83)
(-233472 5072.94 1698.83)
(-232912 5144.78 2157.32)
(-232283 5225.17 2575.64)
(-231567 5313.55 2967.22)
(-230778 5408.81 3339.37)
(-229915 5511.92 3683.25)
(-228947 5624.07 3994.57)
(-227846 5742.35 4273.38)
(-226575 5862.21 4513.72)
(-225086 5978.69 4714.25)
(-223260 6086.6 4866.37)
(-220976 6179.48 4951)
(-218352 6252.77 4949.38)
(-215879 6308.22 4849.05)
(-213830 6351.19 4641.36)
(-210461 6427.88 4263.23)
(-201895 6644.43 3590.56)
(-188118 7081.46 3334.69)
(-184168 7819.49 5370.73)
(-192907 6715.39 6638.44)
(-182535 13314.2 28234.7)
(-4638.51 3506.51 12416.1)
(-245466 -3407.92 1466.98)
(-246021 -3510.15 1440.48)
(-246302 -3588.22 1399.41)
(-246709 -3663.27 1371.05)
(-247116 -3742.74 1334.48)
(-247553 -3817.36 1289.8)
(-248003 -3890.34 1230.2)
(-248464 -3962.8 1147.55)
(-248940 -4035.57 1028.64)
(-249427 -4106.68 859.71)
(-249918 -4174.91 626.991)
(-250400 -4239.53 311.748)
(-250859 -4298.93 -104.997)
(-251273 -4351.44 -640.007)
(-251619 -4395.14 -1304.91)
(-251863 -4427.6 -2103.9)
(-251963 -4443.36 -3027.49)
(-251893 -4443.17 -4074.39)
(-251628 -4426.78 -5220.66)
(-251141 -4394.1 -6438.82)
(-250393 -4346.35 -7687.18)
(-249346 -4286.72 -8895.69)
(-248013 -4217.53 -9946.69)
(-246486 -4141.47 -10717.9)
(-244908 -4059.59 -11148.6)
(-243406 -3971.2 -11260.6)
(-242061 -3875.14 -11122.8)
(-240908 -3770.03 -10817.6)
(-239944 -3654.42 -10420.5)
(-239146 -3527.3 -9989.25)
(-238482 -3388.23 -9563.23)
(-237920 -3237.4 -9165.96)
(-237434 -3075.38 -8809.43)
(-237002 -2903.85 -8498.25)
(-236605 -2724.76 -8233.12)
(-236229 -2538.5 -8013.27)
(-235867 -2348.32 -7836.35)
(-235514 -2165.6 -7701.89)
(-235161 -2000.32 -7610.84)
(-234792 -1860.77 -7566.59)
(-234383 -1760.12 -7576.76)
(-233876 -1714.43 -7651.92)
(-233162 -1742.5 -7807.6)
(-232140 -1863.95 -8062.27)
(-230945 -2095.57 -8432.28)
(-230130 -2448.5 -8907.73)
(-230064 -2954.29 -9481.04)
(-228991 -3604.49 -10142.2)
(-222663 -4245.36 -10704.3)
(-211145 -4145.62 -10515.6)
(-211687 -3123.5 -9491.87)
(-222712 -4883.69 -13518.8)
(-217418 -10761.1 -11504)
(17279.9 -13017.7 2227.31)
(-231023 4015.66 2726.85)
(-231034 4146.94 2868.44)
(-231068 4210.26 2996.52)
(-231138 4291.86 3111.79)
(-231241 4369.8 3231.93)
(-231367 4453.29 3346.66)
(-231517 4538.51 3448.4)
(-231687 4623.07 3529.23)
(-231877 4704.72 3575.13)
(-232085 4783.82 3571.17)
(-232303 4859.63 3500.76)
(-232522 4930.59 3344.39)
(-232725 4995.74 3081.67)
(-232891 5054.12 2694.18)
(-232993 5105.01 2168.46)
(-232998 5148.26 1498.78)
(-232869 5184.61 692.42)
(-232574 5214.33 -233.348)
(-232078 5241.65 -1256.46)
(-231273 5273.84 -2356.09)
(-230039 5313.69 -3496.89)
(-228308 5359.74 -4605.03)
(-226066 5410.95 -5554.44)
(-223397 5464.73 -6206.16)
(-220461 5518.41 -6483.14)
(-217426 5570.19 -6397.54)
(-214431 5618.4 -6018.69)
(-211567 5662.05 -5435.78)
(-208887 5700.75 -4734.31)
(-206408 5734.53 -3982.56)
(-204126 5764.12 -3228.46)
(-202028 5790.35 -2501.05)
(-200091 5814.84 -1815.36)
(-198291 5839.47 -1176.49)
(-196603 5867.61 -582.131)
(-194990 5906.74 -28.6946)
(-193357 5964.57 488.552)
(-191632 6044.4 980.552)
(-189782 6147.98 1453.38)
(-187749 6272.7 1905.16)
(-185495 6416.55 2341.62)
(-182954 6575.82 2760.41)
(-179997 6744.69 3148.09)
(-176509 6916.73 3483.47)
(-172636 7088.86 3739.62)
(-169007 7265.55 3895.91)
(-165997 7438.71 3891.37)
(-161581 7609.82 3494.29)
(-149992 7966.04 2567.35)
(-130514 9202.65 2502.47)
(-122071 11681.5 3050.34)
(-143925 13155.8 5010.35)
(-170603 33248.8 21635.4)
(5868.51 -5335.4 -5295.74)
(-241904 -5214.34 1994.73)
(-241852 -5290.75 2254.06)
(-241877 -5296.02 2367.59)
(-241953 -5328.24 2532.79)
(-242072 -5353.18 2685.05)
(-242238 -5372.51 2836.92)
(-242447 -5387.34 2976.22)
(-242707 -5397.47 3088.15)
(-243028 -5400.79 3152.66)
(-243411 -5393.78 3149.6)
(-243854 -5374.37 3054.77)
(-244354 -5340.34 2839.74)
(-244897 -5289.36 2474.81)
(-245463 -5220.21 1932.78)
(-246017 -5133.17 1192.64)
(-246516 -5030.59 244.045)
(-246900 -4915.63 -909.105)
(-247107 -4794.65 -2239.96)
(-247055 -4680.75 -3705.25)
(-246697 -4580.01 -5261.07)
(-245948 -4495.11 -6872.16)
(-244687 -4429.36 -8457.68)
(-242849 -4385.39 -9825.31)
(-240539 -4359.05 -10732.8)
(-237999 -4340.05 -11060)
(-235479 -4315.92 -10871.3)
(-233150 -4279.17 -10316.3)
(-231100 -4226.11 -9545.19)
(-229353 -4155.93 -8684.71)
(-227894 -4069.55 -7823.41)
(-226687 -3968.73 -7014.85)
(-225690 -3854.89 -6285.69)
(-224863 -3729.32 -5645.21)
(-224175 -3592.98 -5092.32)
(-223599 -3447.81 -4620.53)
(-223114 -3296.08 -4222.13)
(-222706 -3137.58 -3890.19)
(-222364 -2971.91 -3621.71)
(-222085 -2803.29 -3418.63)
(-221866 -2634.92 -3289.53)
(-221702 -2468.77 -3254.94)
(-221563 -2310.09 -3349.59)
(-221372 -2167.25 -3626.27)
(-221071 -2054.06 -4156.19)
(-220845 -1987.78 -5034.72)
(-221337 -1987.86 -6351.5)
(-222975 -2149.52 -8351.48)
(-223770 -2640.31 -11310.4)
(-218426 -3595.16 -15263.3)
(-205157 -4715.66 -19644.5)
(-198558 -7333.75 -25612.3)
(-214335 -10223.8 -28991.9)
(-199285 -22815.6 -52669.4)
(-662.429 -8178.79 -27931.4)
(-235495 4625.88 3626.01)
(-236276 4622.46 3948.18)
(-236826 4621.54 4121.91)
(-237516 4600.1 4328.79)
(-238249 4573.36 4531.26)
(-239050 4542.07 4729.36)
(-239919 4502.96 4912.14)
(-240858 4455 5067.09)
(-241870 4398.72 5178.13)
(-242955 4336.32 5225.52)
(-244105 4268.89 5186.03)
(-245307 4198.19 5032.99)
(-246538 4126.83 4737.93)
(-247763 4057.43 4274.38)
(-248934 3992.64 3621.54)
(-249989 3934.95 2769.12)
(-250860 3885.06 1723.19)
(-251486 3841.76 502.653)
(-251827 3804.45 -855.721)
(-251927 3769.24 -2307.07)
(-251777 3732.89 -3817.75)
(-251289 3695.22 -5313.74)
(-250442 3655.01 -6612.54)
(-249350 3615.32 -7482.01)
(-248230 3582.31 -7799.31)
(-247271 3563.23 -7617.48)
(-246575 3561.29 -7069.01)
(-246169 3577.62 -6291.42)
(-246026 3612.45 -5402.07)
(-246099 3666.19 -4483.75)
(-246333 3740.23 -3587.56)
(-246676 3837.12 -2739.05)
(-247084 3960.31 -1947.46)
(-247522 4113.65 -1212.75)
(-247958 4299.42 -532.824)
(-248371 4519.74 94.1987)
(-248759 4780.6 679.211)
(-249104 5092.84 1239.94)
(-249374 5466.74 1792.58)
(-249590 5909.18 2343.73)
(-249727 6429.58 2894.55)
(-249750 7034.12 3438.35)
(-249590 7726.33 3957.8)
(-249215 8505.77 4423.53)
(-248824 9371.1 4782.62)
(-249015 10321.1 4965.06)
(-250200 11306.2 4785.39)
(-250888 12248.3 3946.68)
(-246653 13030.5 2100.3)
(-235907 14094.3 -1727.6)
(-224707 14033 -11132.8)
(-245980 13647 -21107.8)
(-212277 -25554.4 -68203.1)
(-137485 -11571.1 -28999.2)
(-240101 -4325.24 3188.21)
(-240124 -4270.53 3445.61)
(-240239 -4204.4 3527.42)
(-240413 -4143.45 3629.81)
(-240657 -4069.72 3702.93)
(-240972 -3984.05 3754.14)
(-241364 -3888.29 3773.5)
(-241847 -3780.36 3749.15)
(-242429 -3656.86 3670.02)
(-243116 -3515.68 3524.85)
(-243907 -3356.25 3295.39)
(-244795 -3178.87 2959.33)
(-245762 -2985.61 2490.71)
(-246774 -2780.98 1862.54)
(-247780 -2571.98 1050.87)
(-248717 -2367.71 39.4843)
(-249509 -2176.7 -1176.96)
(-250100 -1996.37 -2576.17)
(-250551 -1824.02 -4134.89)
(-250896 -1667.93 -5833.4)
(-251048 -1534.09 -7669.76)
(-250827 -1431.54 -9596.73)
(-250085 -1368.9 -11356.6)
(-248946 -1351.17 -12522)
(-247762 -1366.34 -12832.2)
(-246818 -1394.34 -12404.2)
(-246214 -1414.57 -11496.4)
(-245945 -1417.27 -10338.6)
(-245953 -1398.48 -9109.19)
(-246168 -1359.25 -7912.75)
(-246524 -1303.94 -6798.15)
(-246967 -1237.77 -5777.24)
(-247462 -1166.08 -4841.28)
(-247981 -1094.24 -3971.78)
(-248513 -1027.48 -3145.99)
(-249048 -971.312 -2340.45)
(-249588 -930.88 -1535)
(-250137 -912.197 -713.052)
(-250704 -922.34 140.573)
(-251303 -965.364 1038.25)
(-251947 -1042.92 1987.1)
(-252628 -1156.11 2987.84)
(-253303 -1303.56 4037.5)
(-253950 -1480.88 5120.22)
(-254786 -1679.07 6201.46)
(-256492 -1894.82 7201.83)
(-259582 -2136.98 7977.34)
(-262681 -2469.72 8214.46)
(-261067 -2803.99 7355.61)
(-254513 -3078.68 4795.28)
(-251408 -3923.95 -2796.14)
(-273699 -6500.23 -20083.7)
(-227831 -12824.8 -65204.8)
(-109935 -4305.16 -21890.2)
(-235573 3941.89 3716.61)
(-235641 3817.7 4073.97)
(-235701 3736.15 4214.16)
(-235806 3633.87 4402.75)
(-235935 3530.99 4566.05)
(-236096 3426.55 4709.8)
(-236291 3318.11 4825.59)
(-236520 3207.64 4902.44)
(-236788 3098.75 4928.27)
(-237095 2994.51 4888.36)
(-237440 2897.62 4763.09)
(-237814 2811.05 4528.32)
(-238202 2737.75 4156.08)
(-238577 2679.76 3618.03)
(-238904 2638.31 2889.55)
(-239133 2613.54 1954.35)
(-239207 2605.25 813.792)
(-239078 2615.35 -509.564)
(-238747 2642.64 -1966.98)
(-238222 2679.88 -3533.44)
(-237433 2723.5 -5218.29)
(-236207 2767.19 -6981.36)
(-234424 2801.54 -8575.16)
(-232256 2815.74 -9586.14)
(-230128 2811.81 -9766.15)
(-228390 2799.92 -9227.89)
(-227170 2797.12 -8225.9)
(-226448 2814.77 -6991.55)
(-226127 2859.37 -5705.93)
(-226082 2932.7 -4475.85)
(-226201 3033.15 -3353.34)
(-226392 3157.47 -2353.26)
(-226592 3301.59 -1469.52)
(-226762 3461.02 -685.47)
(-226886 3630.27 13.1008)
(-226960 3803.37 642.573)
(-226996 3975.51 1224)
(-227006 4141.85 1774.55)
(-227030 4307.74 2326.46)
(-227086 4476.12 2903.76)
(-227194 4644.04 3513.29)
(-227370 4810.16 4163.33)
(-227606 4973.27 4860.41)
(-227960 5131.39 5609.26)
(-228814 5286.63 6411.27)
(-231170 5428.78 7228.67)
(-236129 5524.47 7938.65)
(-242735 5468.14 8340.38)
(-246457 5325.9 7833.78)
(-246488 5203.41 5018.48)
(-258667 4725.52 -2389.9)
(-313822 1667.92 -18742.8)
(-378790 -14983.6 -67341.1)
(-309345 -15283.4 -24836.5)
(-223390 -1811.21 1577.2)
(-223185 -1732.56 1858.97)
(-223099 -1680.62 1962.83)
(-223040 -1608.29 2105.74)
(-223030 -1532.74 2255.19)
(-223071 -1448.89 2422.97)
(-223174 -1359.73 2607.36)
(-223351 -1264.33 2807.08)
(-223613 -1163.34 3016.88)
(-223972 -1058.62 3224.1)
(-224443 -951.997 3403.47)
(-225034 -846.03 3513.36)
(-225746 -743.748 3493.62)
(-226567 -648.515 3271.84)
(-227467 -563.893 2774.23)
(-228398 -492.147 1938.97)
(-229290 -432.679 728.702)
(-230073 -377.446 -852.837)
(-230674 -310.35 -2758.56)
(-231081 -217.843 -4919.28)
(-231256 -106.887 -7332.83)
(-230862 16.7006 -10038.9)
(-229512 139.137 -12752.6)
(-227397 236.261 -14694.9)
(-225383 280.918 -15216)
(-224217 278.073 -14530.9)
(-224044 249.694 -13278.9)
(-224761 208.803 -11860.4)
(-226171 161.156 -10517.3)
(-228063 107.733 -9344.71)
(-230286 45.655 -8363.96)
(-232741 -30.0595 -7561.75)
(-235375 -125.518 -6910.69)
(-238161 -246.294 -6381.04)
(-241095 -394.833 -5945.09)
(-244189 -573.051 -5578.64)
(-247471 -786.278 -5263.24)
(-250972 -1040.38 -4986)
(-254728 -1337.93 -4738.13)
(-258782 -1680.58 -4514.26)
(-263182 -2069.69 -4314.52)
(-267964 -2506.78 -4139)
(-273141 -2991.27 -3972.25)
(-278787 -3519.18 -3786.64)
(-285279 -4089.67 -3533.65)
(-293512 -4703.67 -3166.65)
(-304331 -5354.03 -2630.3)
(-316618 -5982.97 -1832.86)
(-326669 -6441.9 -661.106)
(-335764 -6661.98 -233.752)
(-356866 -7269.73 -2910.95)
(-421151 -5915.02 -9835.42)
(-490981 -1400.4 -48788.4)
(-393571 -11244.4 -61260)
(-227065 2456.15 2304.82)
(-226582 2304.48 2573.56)
(-226347 2213.11 2707.62)
(-226080 2113.02 2889.48)
(-225869 2013.12 3074.35)
(-225694 1913.12 3276.51)
(-225565 1811.74 3496.5)
(-225491 1710.43 3730.92)
(-225480 1610.02 3971.82)
(-225542 1510.5 4205.43)
(-225687 1412.64 4407.21)
(-225918 1317.41 4537.92)
(-226228 1226.31 4542.19)
(-226593 1141.15 4354.34)
(-226971 1064.12 3908.36)
(-227296 998.534 3149.82)
(-227477 949.161 2049.68)
(-227420 921.656 612.485)
(-227056 922.034 -1110.14)
(-226295 961.975 -3050.2)
(-225007 1038.52 -5218.56)
(-222808 1147.33 -7685.34)
(-219229 1277.84 -10214.1)
(-214357 1406.07 -12081)
(-209011 1495.69 -12629.1)
(-204029 1531.09 -11994.2)
(-199739 1511.45 -10748.2)
(-196171 1441.47 -9275.29)
(-193245 1329.12 -7830.75)
(-190823 1182.34 -6534.02)
(-188785 1005.37 -5429.67)
(-187042 800.006 -4520.42)
(-185531 566.37 -3788.57)
(-184221 303.289 -3208.64)
(-183099 11.3422 -2758.11)
(-182168 -307.735 -2419.76)
(-181433 -656.07 -2170.35)
(-180920 -1037.62 -1982.74)
(-180651 -1464.87 -1843.91)
(-180684 -1945.14 -1744.32)
(-181090 -2485.55 -1675.94)
(-181944 -3093.73 -1626.16)
(-183320 -3772.34 -1579.99)
(-185357 -4519.38 -1516.73)
(-188651 -5336.83 -1405.67)
(-194774 -6228.26 -1245.09)
(-205811 -7190.16 -1051.5)
(-221094 -8142.72 -774.09)
(-233971 -8921.65 -211.434)
(-243284 -9194.63 -1003.42)
(-289763 -7071.55 -7128.99)
(-445277 -1006.7 -23070.7)
(-646729 3522.6 -28391.9)
(-417489 -5563.92 -1640.12)
(-224366 -1234.97 2943.95)
(-223944 -1261.66 3558.97)
(-223693 -1280.56 3884.3)
(-223457 -1295.64 4283.56)
(-223271 -1323.55 4692.08)
(-223145 -1356.92 5122.96)
(-223097 -1398.08 5562.88)