/*--------------------------------*- C++ -*----------------------------------*\
| =========                 |                                                 |
| \\      /  F ield         | OpenFOAM: The Open Source CFD Toolbox           |
|  \\    /   O peration     | Version:  4.1                                   |
|   \\  /    A nd           | Web:      www.OpenFOAM.org                      |
|    \\/     M anipulation  |                                                 |
\*---------------------------------------------------------------------------*/
FoamFile
{
    version     2.0;
    format      ascii;
    class       volScalarField;
    location    "67";
    object      omega;
}
// * * * * * * * * * * * * * * * * * * * * * * * * * * * * * * * * * * * * * //

dimensions      [0 0 -1 0 0 0 0];

internalField   nonuniform List<scalar> 
4432
(
0.0111053
0.011437
0.0118254
0.012145
0.0125228
0.0128335
0.0131981
0.0135019
0.0138522
0.0141481
0.0144833
0.0147693
0.0150906
0.0153641
0.0156727
0.0159315
0.0162283
0.016471
0.0167576
0.0169824
0.0172614
0.0174706
0.0177447
0.0179406
0.018209
0.0183996
0.0186651
0.0188613
0.0191221
0.0193277
0.0195774
0.019789
0.0200084
0.0202197
0.0204128
0.0206244
0.0208005
0.0210066
0.0211751
0.0213679
0.021518
0.0216881
0.0218332
0.0219986
0.0221224
0.0222734
0.0223648
0.0224977
0.0225878
0.0227004
0.0227686
0.0228888
0.0229373
0.0231616
0.0111217
0.0114212
0.0118451
0.0121272
0.012544
0.0128148
0.0132194
0.0134838
0.013872
0.0141321
0.0144999
0.014756
0.0151036
0.0153532
0.0156826
0.0159224
0.0162363
0.0164633
0.0167645
0.0169765
0.0172669
0.0174675
0.0177497
0.0179417
0.0182145
0.0184055
0.0186697
0.0188683
0.0191216
0.0193348
0.0195733
0.0197972
0.0200049
0.020229
0.020417
0.0206324
0.0208168
0.0210132
0.0212039
0.0213742
0.0215592
0.0217091
0.0218894
0.0220138
0.0221733
0.022273
0.0224226
0.0225185
0.0226408
0.0227198
0.0228341
0.0228718
0.0229928
0.0231669
21.7961
3.38019
1.22836
0.663177
0.436312
0.320341
0.251513
0.206443
0.174809
0.151453
0.133533
0.119372
0.107903
0.098441
0.0904935
0.0837424
0.0779208
0.0728729
0.0684296
0.0645202
0.0610198
0.0579097
0.0550825
0.052556
0.0502252
0.0481356
0.0461797
0.0444235
0.0427571
0.0412598
0.0398198
0.0385194
0.0372459
0.0360973
0.0349719
0.0339564
0.0329729
0.0320789
0.0312207
0.0304296
0.029671
0.0289531
0.0282796
0.0276281
0.0270373
0.0264324
0.0259033
0.0253394
0.0248634
0.0243424
0.0239383
0.0234636
0.0231569
0.0226055
21.7961
3.38019
1.22836
0.663177
0.436311
0.32034
0.251512
0.206441
0.174808
0.151451
0.133532
0.11937
0.107902
0.0984389
0.0904926
0.0837407
0.0779194
0.0728718
0.0684275
0.0645203
0.0610175
0.0579117
0.055081
0.0525599
0.0502243
0.0481403
0.0461778
0.0444273
0.0427526
0.0412619
0.0398113
0.0385159
0.0372324
0.0360942
0.0349602
0.033961
0.0329678
0.0320949
0.0312203
0.0304453
0.0296628
0.0289687
0.028267
0.0276463
0.0270107
0.0264471
0.0258695
0.0253554
0.0248294
0.0243683
0.0239035
0.0234546
0.0231712
0.0225107
21.7958
3.3804
1.22865
0.663463
0.436581
0.32059
0.251746
0.20665
0.174998
0.151635
0.133714
0.119554
0.108089
0.0986281
0.0906852
0.0839351
0.0781181
0.0730695
0.0686317
0.0647205
0.0612267
0.0581145
0.0552946
0.0527633
0.050438
0.0483413
0.0463892
0.0446256
0.0429625
0.0414573
0.0400207
0.0387165
0.0374623
0.0363164
0.0352142
0.0341985
0.0332275
0.0323235
0.0314681
0.0306544
0.0298966
0.0291537
0.0284863
0.0277989
0.0272134
0.0265702
0.026059
0.025458
0.0250034
0.024452
0.0240757
0.0235078
0.0233326
0.0224513
21.7958
3.3804
1.22865
0.66346
0.436579
0.320588
0.251745
0.206648
0.174997
0.151634
0.133713
0.119553
0.108087
0.098627
0.090683
0.0839347
0.0781151
0.0730701
0.0686278
0.0647222
0.0612232
0.0581181
0.0552917
0.0527677
0.0504347
0.0483451
0.0463849
0.0446292
0.0429568
0.0414606
0.0400131
0.0387201
0.037453
0.0363232
0.035206
0.0342099
0.0332216
0.0323364
0.0314589
0.0306649
0.029885
0.0291638
0.0284698
0.0278067
0.0271893
0.0265793
0.0260292
0.0254688
0.0249827
0.0244589
0.0240654
0.0234887
0.0233388
0.0224482
21.796
3.38033
1.22858
0.663404
0.436528
0.320542
0.251703
0.206608
0.174959
0.151597
0.133678
0.119517
0.108054
0.0985921
0.0906519
0.0838998
0.0780859
0.0730355
0.0686016
0.0646908
0.0612039
0.0580917
0.0552781
0.0527428
0.0504239
0.0483194
0.0463791
0.0446054
0.0429603
0.04144
0.0400267
0.0387021
0.0374772
0.0363096
0.03524
0.0341992
0.0332565
0.0323234
0.0314853
0.0306482
0.0299018
0.0291443
0.0284751
0.0277795
0.0271881
0.0265478
0.0260291
0.0254452
0.0249927
0.0244481
0.0240592
0.0234774
0.023305
0.0224236
21.796
3.38033
1.22858
0.663402
0.436527
0.320541
0.251701
0.206607
0.174957
0.151597
0.133676
0.119518
0.108051
0.0985932
0.0906477
0.0839017
0.0780806
0.0730382
0.0685955
0.0646943
0.0611966
0.0580949
0.0552701
0.0527464
0.0504177
0.0483253
0.0463757
0.0446118
0.0429574
0.0414445
0.0400228
0.0387051
0.0374719
0.0363113
0.0352315
0.0342014
0.0332463
0.0323279
0.0314763
0.0306549
0.0298929
0.0291472
0.0284693
0.0277808
0.0271877
0.0265497
0.0260305
0.02545
0.0249836
0.0244544
0.0240147
0.0236044
0.0229097
0.0224499
21.796
3.38031
1.22856
0.663383
0.436509
0.320524
0.251684
0.206589
0.17494
0.151577
0.133658
0.119495
0.108031
0.098567
0.0906266
0.0838727
0.078058
0.0730074
0.0685733
0.0646639
0.0611756
0.0580668
0.0552516
0.052723
0.050404
0.0483091
0.0463683
0.0446042
0.0429568
0.0414444
0.0400278
0.0387089
0.0374805
0.0363143
0.0352445
0.0342005
0.0332657
0.0323189
0.0314998
0.0306374
0.0299158
0.0291267
0.0284842
0.0277651
0.0271923
0.0265411
0.0260359
0.0254463
0.0249974
0.0244503
0.0240332
0.0235606
0.0229343
0.0224701
21.796
3.38031
1.22856
0.663381
0.436508
0.320523
0.251683
0.206588
0.174939
0.151575
0.133657
0.119494
0.10803
0.0985656
0.0906257
0.0838708
0.0780574
0.0730053
0.0685726
0.0646615
0.061174
0.0580636
0.0552492
0.0527217
0.0504023
0.0483118
0.0463665
0.0446097
0.0429515
0.0414523
0.040018
0.0387206
0.0374657
0.0363292
0.0352242
0.0342175
0.0332416
0.0323375
0.0314773
0.0306517
0.0298977
0.0291338
0.0284763
0.0277675
0.027194
0.0265432
0.0260383
0.0254421
0.0249898
0.0244402
0.0240164
0.0235074
0.0231076
0.0225586
21.7961
3.3803
1.22855
0.663369
0.436492
0.320505
0.251663
0.206567
0.174916
0.151551
0.13363
0.119465
0.108001
0.098532
0.0905933
0.0838328
0.078024
0.0729639
0.0685402
0.0646175
0.061145
0.0580191
0.0552279
0.0526822
0.0503946
0.0482808
0.046373
0.0445857
0.0429705
0.0414348
0.0400481
0.038707
0.0375009
0.0363151
0.0352593
0.0342041
0.033274
0.0323259
0.0314993
0.0306426
0.0299065
0.029132
0.0284778
0.0277763
0.0271952
0.026559
0.0260441
0.0254605
0.0249898
0.0244502
0.0240008
0.0234838
0.0231285
0.0224966
21.7961
3.3803
1.22855
0.663367
0.43649
0.320504
0.251662
0.206565
0.174915
0.151549
0.13363
0.119463
0.108
0.0985304
0.0905925
0.0838308
0.0780232
0.0729611
0.0685393
0.0646133
0.0611441
0.0580146
0.0552287
0.0526776
0.0503975
0.0482761
0.0463787
0.0445804
0.0429784
0.0414261
0.0400561
0.0386937
0.0375095
0.0362996
0.0352699
0.034187
0.0332855
0.0323083
0.0315129
0.0306263
0.029924
0.0291159
0.0284975
0.027758
0.0272163
0.0265352
0.0260599
0.0254281
0.0250012
0.0244076
0.0240123
0.0234826
0.0230422
0.0224803
21.7961
3.3803
1.22854
0.663355
0.436475
0.320486
0.251641
0.206544
0.17489
0.151525
0.1336
0.119435
0.107965
0.0984978
0.0905525
0.0837939
0.0779778
0.0729209
0.0684898
0.0645723
0.0610941
0.0579769
0.055185
0.0526498
0.0503673
0.048262
0.0463636
0.0445781
0.0429756
0.0414331
0.0400636
0.0387084
0.037524
0.0363183
0.0352867
0.0342051
0.0333013
0.0323239
0.0315252
0.030636
0.0299319
0.0291224
0.0285042
0.0277653
0.0272237
0.0265431
0.0260642
0.025434
0.0249976
0.0244036
0.0239987
0.02347
0.0230054
0.022458
21.7961
3.3803
1.22854
0.663353
0.436473
0.320484
0.251641
0.206543
0.17489
0.151523
0.1336
0.119432
0.107966
0.0984947
0.0905536
0.0837899
0.0779793
0.0729154
0.0684917
0.0645652
0.0610968
0.0579694
0.0551886
0.0526434
0.0503713
0.0482575
0.0463668
0.0445753
0.0429763
0.0414301
0.0400614
0.0387045
0.0375217
0.0363148
0.0352856
0.0342018
0.0332998
0.03232
0.0315232
0.0306367
0.0299281
0.0291276
0.028496
0.0277732
0.0272077
0.0265489
0.0260436
0.0254308
0.0249744
0.0243985
0.023991
0.023431
0.0231479
0.0222413
21.7961
3.38029
1.22854
0.663345
0.436459
0.320467
0.251621
0.20652
0.174865
0.151496
0.13357
0.1194
0.107929
0.0984567
0.0905084
0.083746
0.0779251
0.0728668
0.068429
0.0645158
0.0610301
0.0579266
0.0551261
0.0526168
0.0503243
0.0482532
0.0463379
0.0445892
0.0429605
0.0414568
0.0400584
0.0387431
0.0375309
0.0363592
0.0353004
0.0342419
0.0333144
0.0323499
0.0315357
0.0306563
0.029939
0.0291395
0.0285082
0.02778
0.0272199
0.0265507
0.0260479
0.0254237
0.0249695
0.0243857
0.0239713
0.0234487
0.0229764
0.0224332
21.7961
3.38029
1.22854
0.663343
0.436458
0.320465
0.251619
0.20652
0.174864
0.151495
0.133568
0.1194
0.107927
0.0984566
0.0905065
0.083745
0.0779236
0.0728639
0.0684288
0.0645099
0.061032
0.0579176
0.0551312
0.0526052
0.0503314
0.0482406
0.046348
0.0445778
0.0429733
0.0414457
0.04007
0.0387293
0.0375386
0.036342
0.0353053
0.0342241
0.0333184
0.0323348
0.0315407
0.0306443
0.0299449
0.0291307
0.0285116
0.0277716
0.0272186
0.0265417
0.026042
0.0254152
0.0249616
0.0243803
0.0239681
0.0234512
0.0229801
0.0224352
21.7961
3.38029
1.22853
0.663333
0.436443
0.320447
0.251599
0.206496
0.174839
0.151466
0.133537
0.119364
0.107889
0.0984119
0.0904599
0.0836908
0.077867
0.0727997
0.068362
0.0644386
0.0609589
0.0578471
0.0550637
0.0525551
0.050291
0.0482288
0.0463395
0.044595
0.0429798
0.041479
0.0400841
0.0387756
0.0375569
0.0363954
0.0353225
0.0342772
0.0333307
0.0323837
0.0315472
0.0306865
0.0299444
0.0291626
0.0285074
0.0277927
0.0272163
0.0265503
0.0260381
0.0254143
0.0249552
0.0243773
0.0239678
0.023438
0.0229944
0.0224186
21.7961
3.38029
1.22853
0.663331
0.436441
0.320446
0.251598
0.206495
0.174838
0.151466
0.133536
0.119363
0.107888
0.0984111
0.0904588
0.0836893
0.0778657
0.0727975
0.0683607
0.0644349
0.060958
0.0578427
0.0550644
0.0525496
0.0502923
0.048222
0.0463414
0.0445875
0.042983
0.041471
0.0400862
0.038764
0.0375559
0.0363821
0.0353209
0.0342648
0.033331
0.0323712
0.0315504
0.0306723
0.0299518
0.0291473
0.0285151
0.0277773
0.027219
0.0265355
0.0260378
0.0254007
0.024958
0.0243688
0.0239705
0.0234395
0.0229947
0.0224236
21.7962
3.38029
1.22853
0.663325
0.436429
0.320429
0.251578
0.206472
0.174813
0.151436
0.133505
0.119326
0.107848
0.0983648
0.0904076
0.0836318
0.0778002
0.0727268
0.0682789
0.064351
0.0608637
0.0577561
0.0549783
0.0524901
0.0502499
0.0482212
0.0463539
0.0446233
0.0430141
0.0415191
0.0401253
0.0388215
0.0375975
0.0364473
0.0353619
0.0343367
0.0333668
0.0324464
0.0315768
0.0307445
0.0299687
0.0292062
0.0285299
0.0278148
0.0272422
0.0265526
0.0260646
0.0254121
0.0249803
0.0243902
0.0240043
0.0234325
0.0231688
0.0222606
21.7962
3.38029
1.22853
0.663323
0.436428
0.320428
0.251578
0.206471
0.174813
0.151434
0.133506
0.119324
0.107849
0.098362
0.0904088
0.0836286
0.077801
0.072723
0.0682791
0.0643471
0.0608636
0.0577523
0.0549785
0.0524847
0.0502472
0.0482136
0.0463492
0.0446205
0.0430108
0.041522
0.0401199
0.0388251
0.0375877
0.036448
0.0353486
0.0343334
0.0333561
0.0324387
0.0315744
0.0307329
0.0299761
0.0291956
0.0285398
0.0278136
0.0272416
0.0265642
0.0260554
0.0254282
0.0249783
0.0243987
0.0239982
0.023445
0.0231571
0.0222172
21.7962
3.38029
1.22852
0.663315
0.436414
0.320413
0.251558
0.206452
0.174785
0.151412
0.133469
0.119295
0.107802
0.0983248
0.0903477
0.0835786
0.0777227
0.0726552
0.0681801
0.0642583
0.0607467
0.0576505
0.0548658
0.0524168
0.0502194
0.0482499
0.0464068
0.0447112
0.0430906
0.0416283
0.0402031
0.0389278
0.0376543
0.0365361
0.0353941
0.0344117
0.0333871
0.0325085
0.0316026
0.0307893
0.0300148
0.0292348
0.0285933
0.0278412
0.0273086
0.0265938
0.0261305
0.0254722
0.0250662
0.0244685
0.0240969
0.0235807
0.0231402
0.0225816
21.7962
3.38029
1.22852
0.663313
0.436413
0.320411
0.251557
0.206451
0.174785
0.151409
0.13347
0.119292
0.107805
0.0983196
0.0903523
0.0835712
0.077729
0.0726457
0.0681879
0.0642471
0.0607556
0.0576399
0.0548743
0.0524063
0.0502247
0.048237
0.0464152
0.0446941
0.0431076
0.0416072
0.0402244
0.0388998
0.037679
0.0365016
0.0354215
0.0343739
0.0334128
0.0324763
0.0316196
0.0307718
0.0300184
0.0292336
0.0285867
0.0278478
0.0272944
0.0265975
0.0261143
0.0254716
0.0250395
0.0244549
0.0240712
0.0235011
0.0232575
0.0223467
21.7962
3.38028
1.22853
0.663309
0.436402
0.320402
0.251535
0.206441
0.17475
0.151403
0.133419
0.119289
0.107731
0.0983197
0.0902501
0.0835713
0.0775898
0.0726395
0.068003
0.064226
0.0605281
0.0575988
0.0546749
0.052408
0.0502979
0.0484926
0.0467407
0.0451074
0.0435195
0.0420696
0.0406566
0.0393832
0.0381015
0.0369827
0.0358279
0.0348492
0.0338154
0.0329485
0.0320301
0.0312492
0.0304486
0.0297316
0.0290364
0.0283819
0.0277896
0.0272038
0.0267005
0.0261783
0.0257856
0.0253161
0.0249862
0.0246304
0.0244039
0.0236205
21.7962
3.38029
1.22852
0.663307
0.4364
0.320401
0.251533
0.206441
0.174749
0.151403
0.133418
0.119288
0.107732
0.0983165
0.0902542
0.0835643
0.0775983
0.072627
0.0680175
0.0642066
0.0605502
0.0575735
0.0546966
0.0523976
0.0503065
0.0484797
0.0467349
0.0450818
0.0435079
0.0420434
0.0406481
0.0393536
0.0380956
0.036945
0.0358177
0.034794
0.0337872
0.0328792
0.0319737
0.0311748
0.0303603
0.0296467
0.0289247
0.0282804
0.0276422
0.0270666
0.0265357
0.0259917
0.0255921
0.0250912
0.0247553
0.024392
0.0238944
0.0234793
21.7962
3.38028
1.22852
0.663304
0.43639
0.320393
0.251515
0.206434
0.17472
0.151399
0.133373
0.119291
0.107663
0.0983274
0.090152
0.0835849
0.077447
0.0726611
0.0677851
0.0642702
0.060195
0.0577433
0.0543254
0.0529833
0.0510863
0.0508899
0.0503418
0.0490139
0.0477478
0.0460461
0.0443776
0.0428272
0.0413585
0.0400166
0.0387528
0.0375654
0.036561
0.0353976
0.0350593
0.0327508
0.0319192
0.0312412
0.0305839
0.0301605
0.0303213
0.0294711
0.030035
0.0301762
0.0314444
0.0309046
0.0309468
0.0311701
0.0314875
0.0318899
21.7962
3.38028
1.22852
0.663302
0.436388
0.320392
0.251514
0.206433
0.17472
0.151397
0.133374
0.119287
0.107668
0.0983194
0.0901617
0.0835708
0.0774648
0.072635
0.0678213
0.0642175
0.0602658
0.0576545
0.0544105
0.0530044
0.0510784
0.050567
0.049383
0.0482041
0.0464948
0.0448735
0.0432205
0.0417391
0.040293
0.0389921
0.0377791
0.0366241
0.0356109
0.0346208
0.0337316
0.0329443
0.032098
0.0316447
0.0302395
0.0301813
0.0291037
0.0293359
0.0299177
0.0298807
0.0306206
0.0305374
0.0316529
0.0310091
0.0311693
0.031421
21.7962
3.38028
1.22853
0.663301
0.436395
0.320368
0.251535
0.206378
0.17477
0.1513
0.133463
0.119135
0.107805
0.0980997
0.0903544
0.083265
0.0777194
0.0722149
0.0681396
0.0636428
0.0606191
0.0569443
0.0551932
0.0547379
0.0631338
0.111568
0.11207
0.112796
0.110173
0.107573
0.104381
0.101102
0.097706
0.0942308
0.0908488
0.0876592
0.0847105
0.0820965
0.0797248
0.0777561
0.0759328
0.0745781
0.0732005
0.0720968
0.0708764
0.0697992
0.0687241
0.067585
0.0666462
0.0655361
0.0642485
0.0635503
0.0612022
0.0596087
21.7962
3.38029
1.22853
0.663299
0.436393
0.320367
0.251534
0.206378
0.174768
0.1513
0.133462
0.119136
0.107804
0.0981015
0.0903512
0.083271
0.0777096
0.0722334
0.0681123
0.0636841
0.0605782
0.0569967
0.0551569
0.0544537
0.0590861
0.087974
0.0900364
0.0941974
0.0958567
0.0954514
0.0942733
0.0927931
0.0909454
0.0888647
0.0866611
0.0844404
0.0822392
0.0802302
0.0783275
0.0767673
0.0752629
0.0741995
0.0730331
0.072139
0.071028
0.0700434
0.0689756
0.0677953
0.0668836
0.0654712
0.064681
0.0630635
0.062211
0.0599929
21.7963
3.38028
1.22853
0.6633
0.436395
0.32036
0.251538
0.20636
0.17478
0.151269
0.133486
0.119084
0.107843
0.0980223
0.0904127
0.0831498
0.0778039
0.0720475
0.0682159
0.0635626
0.0600933
0.0567998
0.0559708
0.0694278
0.28591
0.350026
0.203982
0.120527
0.106907
0.101221
0.0970078
0.0930951
0.0889378
0.0846835
0.0805517
0.0766588
0.0730212
0.069652
0.0664753
0.0635295
0.0607085
0.0580979
0.0555566
0.053179
0.0509024
0.0487559
0.0467757
0.0447468
0.0430051
0.0410313
0.0395373
0.037712
0.036396
0.034877
21.7962
3.38028
1.22853
0.663298
0.436394
0.320356
0.25154
0.206354
0.174788
0.151256
0.133503
0.11906
0.107875
0.0979793
0.0904681
0.0830809
0.0778868
0.0719465
0.0683721
0.0632185
0.061066
0.0559032
0.0565559
0.0675612
0.197157
0.314863
0.17755
0.136817
0.112165
0.09959
0.0934581
0.0898235
0.0864255
0.0828425
0.0792325
0.0757574
0.0724433
0.0693397
0.0663479
0.0635749
0.0608238
0.0583037
0.0557347
0.0534529
0.0511306
0.0490968
0.0470472
0.0451013
0.0432857
0.0413762
0.039882
0.0380404
0.0368576
0.0352312
21.7963
3.38029
1.22854
0.663307
0.436399
0.320359
0.251541
0.206357
0.174786
0.151262
0.133495
0.119073
0.107857
0.0980047
0.0904305
0.0831283
0.0778176
0.0720393
0.0682193
0.0634489
0.0607574
0.0559508
0.0586819
0.109146
0.192581
0.201632
0.114426
0.104938
0.10135
0.0977849
0.0942247
0.0904544
0.0866361
0.0829713
0.0795183
0.0763189
0.0734216
0.0707929
0.0685099
0.0664138
0.0646871
0.0630677
0.0618264
0.0605584
0.0596637
0.0586871
0.0580582
0.0572989
0.0567337
0.0560908
0.0552731
0.0547469
0.0529578
21.7963
3.38029
1.22854
0.663305
0.436396
0.32036
0.251537
0.206361
0.174777
0.151274
0.133475
0.1191
0.10782
0.0980524
0.0903733
0.0831937
0.077756
0.0720852
0.0682052
0.063503
0.0603027
0.0567787
0.0576183
0.121813
0.171719
0.183563
0.14973
0.124302
0.109317
0.101568
0.0970531
0.0933823
0.0898676
0.0864968
0.0832886
0.0802848
0.0775398
0.0750196
0.0728346
0.0707931
0.0691539
0.0675239
0.0663492
0.0649668
0.0640565
0.0628587
0.062091
0.060954
0.0601696
0.0588371
0.0575612
0.0560934
0.0539092
21.7963
3.38029
1.22855
0.663314
0.436401
0.320371
0.251536
0.206378
0.174771
0.151299
0.133466
0.11913
0.10781
0.0980903
0.0903607
0.0832524
0.0777231
0.0722061
0.0681271
0.0636553
0.0605798
0.0569549
0.0551731
0.057394
0.103191
0.111493
0.108921
0.110682
0.110324
0.107775
0.103773
0.0994457
0.0950854
0.0907528
0.0866974
0.0828426
0.0793384
0.0759891
0.0729587
0.0700214
0.067366
0.0647433
0.0622872
0.0598222
0.0573577
0.0549294
0.0522738
0.0498435
0.0468628
0.0444666
0.041097
0.0389216
0.0352829
0.0337879
21.7963
3.38029
1.22855
0.663312
0.436398
0.320371
0.251533
0.206381
0.174765
0.151306
0.133455
0.119144
0.107792
0.0981131
0.0903345
0.0832833
0.0776918
0.0722386
0.068107
0.0636622
0.060589
0.0569713
0.0551605
0.0569327
0.0836333
0.0872477
0.0878535
0.0912657
0.0910697
0.0899381
0.0880146
0.0856201
0.0829297
0.079932
0.0769432
0.0739047
0.0710593
0.0681865
0.0655448
0.062839
0.06038
0.0578073
0.055458
0.0529466
0.0505973
0.0480708
0.0456169
0.0430879
0.0405326
0.038186
0.0356964
0.033825
0.0313285
0.030028
21.7963
3.38029
1.22856
0.66333
0.436401
0.320399
0.251515
0.206437
0.174717
0.151404
0.133366
0.119297
0.107651
0.0983372
0.0901296
0.0836006
0.077411
0.0726823
0.0677384
0.0642854
0.0601461
0.0577562
0.0542229
0.0531634
0.0508242
0.0507613
0.0497601
0.0487447
0.0470596
0.0452797
0.0435891
0.0419353
0.0404568
0.0390028
0.0377372
0.0364587
0.0353715
0.034227
0.0332815
0.0322373
0.0314081
0.0304405
0.0297091
0.028802
0.0281526
0.0272979
0.0267216
0.0259224
0.0254139
0.0246717
0.0242143
0.0235316
0.0230801
0.0224602
21.7963
3.38029
1.22856
0.663328
0.4364
0.320397
0.251516
0.206434
0.174721
0.151397
0.133375
0.119284
0.107669
0.0983138
0.0901618
0.0835611
0.0774631
0.0726227
0.067812
0.0642088
0.0602405
0.0576491
0.0543757
0.0529716
0.0510402
0.0503077
0.0492421
0.0477415
0.0460266
0.0443207
0.0427085
0.0411287
0.039702
0.0382986
0.0370632
0.0358207
0.0347548
0.0336482
0.0327271
0.0317303
0.0309319
0.0300228
0.0293297
0.0284883
0.0278841
0.0270961
0.0265693
0.0258296
0.025369
0.0246735
0.0242599
0.0236212
0.0231787
0.0226044
21.7963
3.3803
1.22857
0.663341
0.436416
0.320408
0.251537
0.206442
0.174751
0.151403
0.133418
0.119288
0.107727
0.0983177
0.0902413
0.0835672
0.0775752
0.0726314
0.0679828
0.0642088
0.0605058
0.0575655
0.0546542
0.0523655
0.0502668
0.0484238
0.0466789
0.0450049
0.0434479
0.0419592
0.0406005
0.0392583
0.0380387
0.0368131
0.0357227
0.0346083
0.0336427
0.0326322
0.0317821
0.030861
0.0301133
0.0292662
0.0286097
0.027822
0.0272446
0.0265039
0.0259956
0.0252956
0.0248474
0.0241804
0.0237797
0.0231633
0.0227128
0.0221319
21.7962
3.3803
1.22857
0.663338
0.436415
0.320406
0.251538
0.20644
0.174753
0.151399
0.133423
0.119281
0.107737
0.0983063
0.0902569
0.0835499
0.0775984
0.0726078
0.0680139
0.0641819
0.0605404
0.0575437
0.0546803
0.0523598
0.0502727
0.0484234
0.0466757
0.0449967
0.0434346
0.041947
0.0405798
0.0392371
0.0380115
0.0367856
0.0356916
0.0345777
0.0336105
0.0326002
0.0317492
0.0308281
0.0300803
0.0292342
0.0285768
0.0277935
0.027212
0.0264827
0.0259649
0.0252838
0.0248197
0.0241801
0.0237608
0.0231695
0.0227245
0.0221384
21.7962
3.3803
1.22859
0.663358
0.436434
0.320421
0.251561
0.206453
0.174786
0.151411
0.133469
0.119293
0.107799
0.0983186
0.0903412
0.0835674
0.0777115
0.0726378
0.0681642
0.064233
0.0607259
0.0576151
0.0548381
0.0523695
0.0501811
0.0481831
0.0463582
0.0446311
0.0430518
0.0415468
0.0401737
0.0388327
0.0376161
0.0364065
0.0353305
0.0342407
0.0332946
0.0323103
0.031476
0.0305789
0.0298399
0.0290168
0.0283594
0.0275996
0.0270124
0.0263068
0.0257809
0.0251228
0.0246522
0.0240374
0.0236332
0.023016
0.0227762
0.0218795
21.7962
3.3803
1.22859
0.663356
0.436432
0.32042
0.25156
0.206453
0.174786
0.151411
0.133468
0.119293
0.107799
0.0983191
0.0903425
0.0835674
0.0777141
0.0726373
0.0681675
0.0642332
0.0607278
0.0576174
0.0548369
0.0523719
0.0501754
0.0481852
0.0463538
0.0446391
0.043053
0.0415568
0.0401747
0.0388401
0.0376175
0.0364138
0.0353359
0.034249
0.0333039
0.0323164
0.0314887
0.0305822
0.0298575
0.0290179
0.0283823
0.0276013
0.0270393
0.0263135
0.0258102
0.025137
0.0246852
0.0240589
0.0236598
0.0230577
0.0227874
0.0218631
21.7962
3.38031
1.2286
0.663374
0.436451
0.320438
0.251582
0.206474
0.174814
0.151436
0.133505
0.119323
0.107846
0.0983576
0.0904014
0.0836184
0.0777889
0.0727058
0.068261
0.0643221
0.060838
0.0577173
0.0549419
0.0524369
0.0501991
0.0481539
0.0462918
0.0445476
0.0429498
0.0414358
0.0400517
0.0387138
0.0375002
0.0363006
0.0352348
0.0341511
0.0332172
0.0322303
0.0314116
0.0305051
0.029785
0.0289466
0.0283102
0.0275328
0.0269668
0.0262457
0.02574
0.0250673
0.0246164
0.0239906
0.02358
0.0230215
0.0225703
0.0220141
21.7962
3.38031
1.2286
0.663372
0.43645
0.320437
0.251581
0.206474
0.174813
0.151437
0.133504
0.119325
0.107845
0.0983597
0.0904007
0.0836212
0.0777887
0.0727096
0.0682616
0.0643274
0.0608389
0.0577249
0.0549411
0.0524454
0.0501957
0.0481624
0.046288
0.0445602
0.0429485
0.04145
0.0400495
0.0387271
0.0374987
0.0363154
0.0352365
0.0341675
0.0332214
0.0322461
0.0314181
0.0305194
0.0297946
0.0289601
0.0283237
0.0275469
0.0269849
0.0262623
0.0257623
0.025089
0.0246435
0.0240112
0.0236222
0.0230028
0.0227307
0.0218295
21.7962
3.38031
1.22862
0.663392
0.43647
0.320458
0.251604
0.206498
0.17484
0.151466
0.133537
0.119361
0.107886
0.0984053
0.0904512
0.0836787
0.0778513
0.0727809
0.0683378
0.0644109
0.0609247
0.0578102
0.0550188
0.0525062
0.0502349
0.0481679
0.0462738
0.0445226
0.0429024
0.0413879
0.039985
0.0386545
0.0374267
0.0362403
0.0351606
0.0340899
0.0331424
0.0321655
0.0313388
0.0304362
0.029716
0.0288732
0.0282446
0.0274557
0.0269058
0.0261685
0.0256828
0.0249925
0.0245585
0.023906
0.0235095
0.022914
0.0224653
0.0219133
21.7962
3.38031
1.22862
0.66339
0.436468
0.320457
0.251603
0.206498
0.17484
0.151466
0.133538
0.119361
0.107887
0.0984053
0.090453
0.0836791
0.0778534
0.0727823
0.0683398
0.0644141
0.0609264
0.0578154
0.0550196
0.0525136
0.0502334
0.048177
0.0462703
0.0445348
0.0428993
0.0414037
0.0399822
0.0386717
0.0374249
0.0362581
0.0351617
0.0341084
0.0331475
0.0321847
0.0313464
0.0304554
0.029725
0.0288937
0.0282561
0.0274789
0.0269207
0.0261926
0.0257021
0.0250165
0.024581
0.0239319
0.0235441
0.0229066
0.0226276
0.0217699
21.7962
3.38032
1.22863
0.663409
0.436488
0.320478
0.251626
0.206522
0.174867
0.151495
0.13357
0.119397
0.107926
0.0984491
0.0905003
0.0837319
0.0779105
0.0728439
0.0684071
0.0644809
0.0610002
0.0578773
0.0550892
0.0525533
0.050281
0.0481789
0.046289
0.0445018
0.0428957
0.0413474
0.0399623
0.0386038
0.0373951
0.0361907
0.0351253
0.0340474
0.0331036
0.0321311
0.0312951
0.0304079
0.0296683
0.0288484
0.0281957
0.0274316
0.026856
0.0261397
0.0256334
0.0249571
0.0245072
0.0238644
0.0234613
0.0228544
0.0224306
0.0218541
21.7962
3.38032
1.22863
0.663406
0.436486
0.320477
0.251625
0.206522
0.174866
0.151496
0.13357
0.119398
0.107926
0.0984506
0.0905003
0.083734
0.0779107
0.0728469
0.0684072
0.0644858
0.0609994
0.0578852
0.0550869
0.052564
0.050276
0.0481918
0.046281
0.0445171
0.0428879
0.0413651
0.0399567
0.0386219
0.0373929
0.0362068
0.0351282
0.034061
0.0331127
0.0321421
0.0313089
0.0304178
0.0296842
0.0288613
0.0282121
0.0274494
0.0268724
0.0261622
0.0256496
0.0249817
0.024527
0.0238937
0.02348
0.0228987
0.0224473
0.0219011
21.7962
3.38032
1.22865
0.663427
0.436507
0.320498
0.251647
0.206547
0.174892
0.151525
0.1336
0.119433
0.107961
0.0984918
0.0905423
0.0837824
0.0779592
0.0729018
0.068461
0.0645437
0.0610549
0.0579384
0.0551355
0.0526006
0.0503079
0.0482013
0.0462914
0.0445004
0.0428812
0.0413283
0.0399384
0.0385726
0.0373684
0.0361523
0.0350998
0.0340047
0.0330786
0.0320846
0.0312674
0.0303596
0.0296359
0.028801
0.0281572
0.0273836
0.0268081
0.0260893
0.0255746
0.0249022
0.0244451
0.023812
0.0234094
0.022782
0.0225178
0.0216344
21.7962
3.38033
1.22865
0.663425
0.436505
0.320498
0.251646
0.206547
0.174891
0.151525
0.133599
0.119434
0.107962
0.0984927
0.0905439
0.0837827
0.0779623
0.0729016
0.0684657
0.0645434
0.0610611
0.0579385
0.0551425
0.0526016
0.0503151
0.0482023
0.0462991
0.0445017
0.0428906
0.0413311
0.0399506
0.0385771
0.037382
0.0361588
0.0351132
0.0340147
0.033092
0.0320997
0.0312813
0.0303789
0.029651
0.0288233
0.0281744
0.0274092
0.0268304
0.0261176
0.0256023
0.0249342
0.0244766
0.0238457
0.0234341
0.0228639
0.0224085
0.0218617
21.7962
3.38033
1.22866
0.663444
0.436525
0.320518
0.251669
0.20657
0.174917
0.151552
0.133629
0.119464
0.107995
0.0985284
0.0905809
0.0838241
0.0780026
0.0729478
0.0685077
0.0645916
0.061101
0.057983
0.0551743
0.052635
0.0503313
0.0482192
0.0462964
0.0445032
0.0428707
0.0413217
0.0399167
0.038561
0.0373395
0.036138
0.0350685
0.0339887
0.0330487
0.0320665
0.0312395
0.0303386
0.0296093
0.0287771
0.0281315
0.0273582
0.0267841
0.026061
0.0255479
0.0248739
0.0244183
0.0237801
0.0233716
0.0227987
0.0223427
0.0217974
21.7961
3.38033
1.22866
0.663441
0.436523
0.320517
0.251667
0.206569
0.174916
0.151552
0.133628
0.119465
0.107994
0.0985299
0.0905812
0.0838257
0.0780039
0.0729493
0.0685105
0.0645927
0.0611056
0.0579836
0.0551813
0.0526346
0.0503403
0.048218
0.0463072
0.0445011
0.0428843
0.0413201
0.0399332
0.0385613
0.0373563
0.0361421
0.0350822
0.0339996
0.0330582
0.0320854
0.0312466
0.0303628
0.0296176
0.0288025
0.0281449
0.0273843
0.0268022
0.0260909
0.0255706
0.0249073
0.0244409
0.0238201
0.023404
0.0228322
0.0223881
0.0218324
21.7961
3.38034
1.22868
0.663464
0.436545
0.320539
0.25169
0.206593
0.174942
0.151578
0.133656
0.119494
0.108026
0.0985626
0.0906152
0.0838622
0.0780393
0.0729889
0.068545
0.0646334
0.0611356
0.0580221
0.0552014
0.0526659
0.0503454
0.0482392
0.0462945
0.0445143
0.0428548
0.0413285
0.0398898
0.0385662
0.0373048
0.0361418
0.0350304
0.0339903
0.033011
0.0320648
0.0312021
0.0303338
0.0295696
0.0287698
0.0280918
0.0273455
0.0267477
0.0260372
0.025517
0.0248404
0.0243801
0.0237486
0.0233317
0.0227459
0.0223014
0.0217523
21.7961
3.38034
1.22868
0.663461
0.436543
0.320538
0.251689
0.206593
0.17494
0.151579
0.133655
0.119496
0.108024
0.0985655
0.0906139
0.0838654
0.0780392
0.0729917
0.0685472
0.0646351
0.0611411
0.0580216
0.0552108
0.0526632
0.0503591
0.0482338
0.0463123
0.0445072
0.0428757
0.0413219
0.039912
0.0385631
0.0373246
0.036146
0.0350431
0.0340049
0.0330157
0.0320898
0.0312043
0.0303615
0.0295796
0.0287911
0.0281161
0.0273578
0.0267834
0.02605
0.0255563
0.0248606
0.0244245
0.0237735
0.0233735
0.0227774
0.0223545
0.0217834
21.7961
3.38036
1.2287
0.663484
0.436563
0.320556
0.251708
0.206611
0.174961
0.151598
0.133678
0.119516
0.10805
0.0985859
0.0906421
0.0838872
0.0780692
0.0730147
0.0685769
0.064658
0.0611674
0.0580421
0.0552298
0.0526779
0.0503674
0.0482399
0.0463098
0.0445043
0.0428648
0.0413112
0.0398956
0.0385449
0.0373065
0.0361198
0.0350279
0.0339705
0.0330044
0.0320494
0.0311909
0.0303225
0.029553
0.0287618
0.0280693
0.0273351
0.0267261
0.0260192
0.0255035
0.0248134
0.0243744
0.0237178
0.0233134
0.0227252
0.0222912
0.0217328
21.7961
3.38036
1.2287
0.663481
0.436561
0.320555
0.251707
0.206611
0.17496
0.151599
0.133676
0.119517
0.108048
0.0985883
0.0906412
0.0838901
0.0780691
0.0730179
0.068578
0.0646612
0.06117
0.0580451
0.0552344
0.052681
0.0503732
0.0482446
0.0463157
0.0445112
0.04287
0.0413211
0.0398999
0.0385585
0.0373092
0.0361377
0.0350276
0.0339935
0.0330013
0.0320767
0.0311887
0.0303498
0.0295596
0.0287824
0.028089
0.0273498
0.026754
0.0260376
0.0255321
0.0248439
0.0243996
0.0237485
0.0233575
0.0227218
0.0224534
0.0215698
21.7959
3.38043
1.22878
0.663545
0.436616
0.320602
0.25175
0.206649
0.174998
0.151631
0.133714
0.119546
0.108086
0.0986151
0.0906785
0.0839159
0.0781055
0.0730433
0.0686113
0.0646863
0.0611973
0.0580691
0.0552526
0.0527012
0.0503808
0.0482585
0.0463129
0.044518
0.0428589
0.041321
0.0398822
0.0385516
0.0372858
0.0361234
0.0350003
0.0339713
0.032972
0.0320476
0.0311567
0.03032
0.0295191
0.0287651
0.0280319
0.0273592
0.0266881
0.0260772
0.0254903
0.024904
0.0244138
0.0238299
0.0234531
0.0228738
0.0226228
0.0218264
21.7959
3.38043
1.22877
0.663543
0.436614
0.320601
0.251749
0.206649
0.174997
0.151633
0.133712
0.119549
0.108084
0.0986188
0.0906773
0.0839203
0.0781048
0.0730481
0.0686114
0.0646914
0.0611986
0.0580743
0.055255
0.052707
0.0503848
0.0482651
0.0463182
0.0445259
0.0428643
0.0413306
0.0398868
0.038564
0.037289
0.036139
0.0350026
0.0339881
0.0329773
0.0320605
0.0311729
0.0303226
0.0295529
0.0287552
0.0280835
0.0273431
0.0267489
0.026066
0.0255457
0.0249074
0.0244568
0.0238568
0.023484
0.0229105
0.022648
0.0218313
21.7963
3.38029
1.22861
0.663332
0.436376
0.320355
0.251513
0.206425
0.174799
0.151443
0.13353
0.119364
0.107903
0.0984303
0.090493
0.0837269
0.0779176
0.0728504