/*--------------------------------*- C++ -*----------------------------------*\
| =========                 |                                                 |
| \\      /  F ield         | OpenFOAM: The Open Source CFD Toolbox           |
|  \\    /   O peration     | Version:  4.1                                   |
|   \\  /    A nd           | Web:      www.OpenFOAM.org                      |
|    \\/     M anipulation  |                                                 |
\*---------------------------------------------------------------------------*/
FoamFile
{
    version     2.0;
    format      ascii;
    class       volVectorField;
    location    "92";
    object      U;
}
// * * * * * * * * * * * * * * * * * * * * * * * * * * * * * * * * * * * * * //

dimensions      [0 1 -1 0 0 0 0];

internalField   nonuniform List<vector> 
4432
(
(-149105 -3333.02 -1610.18)
(-150914 -3393.08 -1760.7)
(-151751 -3320.52 -1743.86)
(-152822 -3335 -1818.64)
(-153876 -3319.5 -1872.86)
(-154972 -3304.52 -1916.17)
(-156057 -3293.06 -1978.58)
(-157144 -3280.39 -2051.97)
(-158210 -3267.34 -2144.48)
(-159238 -3254.64 -2260.87)
(-160203 -3242.97 -2404.57)
(-161074 -3232.39 -2579.67)
(-161821 -3223.17 -2788.7)
(-162400 -3215.2 -3030.88)
(-162773 -3208.49 -3301.82)
(-162891 -3202.81 -3599.52)
(-162713 -3200.45 -3913.86)
(-162221 -3207.74 -4238.07)
(-161405 -3226.73 -4573.29)
(-160248 -3253.62 -4913.21)
(-158737 -3286.84 -5248.4)
(-156880 -3326.46 -5567.35)
(-154707 -3373.26 -5857.71)
(-152256 -3426.69 -6108.64)
(-149579 -3485.01 -6311.71)
(-146717 -3546.36 -6463.69)
(-143721 -3608.92 -6562.66)
(-140633 -3671.64 -6610.11)
(-137507 -3733.1 -6608.12)
(-134380 -3792.34 -6560.73)
(-131299 -3848.3 -6472.54)
(-128297 -3899.96 -6348.12)
(-125399 -3945.88 -6193.35)
(-122641 -3983.56 -6011.87)
(-120042 -4011.2 -5808.83)
(-117629 -4027.1 -5588.01)
(-115424 -4030.32 -5352.91)
(-113441 -4019.63 -5105.2)
(-111711 -3992 -4842.27)
(-110199 -3944.93 -4575.48)
(-108885 -3873.36 -4301.4)
(-107699 -3770.6 -4002.8)
(-106461 -3631.88 -3658.34)
(-105028 -3453.35 -3224.85)
(-103812 -3227.89 -2631.12)
(-104132 -2949.56 -1830.22)
(-106939 -2643.6 -912.256)
(-109566 -2324.83 169.407)
(-106259 -1680.51 2194.29)
(-100253 519.61 7742.47)
(-114633 7011.67 14113)
(-159147 14147.9 17411.2)
(-181895 23052.7 -4311.08)
(-56104.5 9155.99 -7712.39)
(-187544 3350.69 -694.179)
(-189201 3299.66 -756.592)
(-190002 3356.65 -794.871)
(-191044 3341.77 -821.371)
(-191989 3350.52 -856.705)
(-192955 3357.85 -880.751)
(-193887 3362.03 -916.317)
(-194793 3367.15 -959.636)
(-195662 3372.53 -1017.82)
(-196482 3377.41 -1093.68)
(-197232 3381.01 -1190.38)
(-197891 3383.07 -1311.18)
(-198436 3383.19 -1457.98)
(-198832 3381.32 -1629.55)
(-199052 3377.14 -1822.74)
(-199059 3370.44 -2033.03)
(-198826 3359.6 -2252.27)
(-198354 3345.1 -2476.34)
(-197642 3329.13 -2710.36)
(-196679 3312.92 -2948.49)
(-195456 3298.21 -3175.82)
(-193986 3285 -3382.01)
(-192299 3272.11 -3557.56)
(-190433 3261.12 -3693.86)
(-188436 3253.12 -3784.48)
(-186346 3249.47 -3827.32)
(-184210 3250.29 -3822.14)
(-182062 3255.97 -3771.28)
(-179940 3265.87 -3678.15)
(-177872 3279.89 -3547.3)
(-175883 3297.21 -3383.69)
(-173989 3317.29 -3192.23)
(-172195 3339.89 -2977.59)
(-170509 3363.88 -2743.97)
(-168922 3388.13 -2494.67)
(-167429 3411.89 -2231.78)
(-166015 3433.76 -1957.73)
(-164662 3452.47 -1674.03)
(-163350 3466.04 -1375.42)
(-162058 3475.92 -1054.74)
(-160750 3488.95 -710.38)
(-159341 3506.5 -332.59)
(-157659 3527.68 96.0112)
(-155562 3550.27 608.584)
(-153285 3573.02 1257.12)
(-151671 3592.97 2076.69)
(-151273 3590.81 3010.28)
(-150044 3562.03 4050.46)
(-143554 3703.47 5655.43)
(-133196 4727.39 8890.04)
(-137907 8097.23 10556.4)
(-162387 10181 10144)
(-180432 8227.06 4347.84)
(17578.7 7383.03 -20541.4)
(-268807 -1162.74 3722.33)
(-269295 -1127.6 3682.05)
(-269593 -1111.46 3727.11)
(-269961 -1082.46 3747.77)
(-270291 -1056.84 3773.77)
(-270642 -1030.81 3810.83)
(-270987 -1005.48 3838.51)
(-271320 -980.242 3854.91)
(-271640 -956.216 3852.81)
(-271938 -933.432 3828.05)
(-272209 -913.058 3776.57)
(-272442 -895.517 3694.27)
(-272628 -881.2 3578.79)
(-272749 -870.128 3429.84)
(-272797 -862.868 3250.09)
(-272757 -857.303 3048.08)
(-272690 -852.787 2834.67)
(-272591 -852.021 2612.13)
(-272441 -858.735 2384.41)
(-272241 -871.222 2159.51)
(-271990 -883.754 1944.92)
(-271694 -896.443 1754.52)
(-271372 -911.156 1603.56)
(-271045 -928.534 1505.85)
(-270738 -948.559 1469.83)
(-270459 -971.538 1497.45)
(-270225 -997.824 1587.8)
(-270034 -1028.21 1735.55)
(-269898 -1063.08 1934.68)
(-269815 -1102.89 2176.74)
(-269794 -1147.51 2453.7)
(-269836 -1196.77 2757.18)
(-269948 -1249.72 3080.14)
(-270141 -1305.46 3417.2)
(-270426 -1362.24 3763.27)
(-270825 -1418.28 4116.05)
(-271362 -1472.34 4474.76)
(-272073 -1523.98 4840.59)
(-272993 -1568.86 5218.32)
(-274199 -1599.9 5618.2)
(-275783 -1613.54 6050.84)
(-277795 -1608.3 6525.43)
(-280215 -1578.4 7056.67)
(-283072 -1516.09 7683.99)
(-286670 -1408.17 8458.91)
(-291823 -1234.36 9386.63)
(-299398 -971.79 10336.7)
(-308560 -613.75 11161)
(-315735 1.14544 12418)
(-323185 1224.87 14706.5)
(-340544 2965.67 16911)
(-411144 4232.39 12014.6)
(-472943 10073.5 -3129.27)
(-487561 20624.8 -22943.4)
(-311306 2091.13 2918.29)
(-311729 2062.09 2919.58)
(-311926 2043.83 2888.2)
(-312188 2030.7 2905.4)
(-312419 2016.14 2906.35)
(-312659 2001.41 2916.73)
(-312889 1985.95 2919.34)
(-313104 1970.45 2911.02)
(-313305 1954.21 2884.19)
(-313489 1937.52 2835.48)
(-313651 1919.94 2760.83)
(-313786 1901.68 2656.25)
(-313886 1882.95 2518.92)
(-313940 1864.62 2347.9)
(-313940 1846.7 2144.89)
(-313873 1831.57 1913.82)
(-313725 1818.14 1660.63)
(-313483 1800.39 1392.56)
(-313138 1773.53 1117.9)
(-312760 1738.69 843.391)
(-312349 1700.98 570.749)
(-311897 1661.04 310.628)
(-311421 1617.81 79.5065)
(-310937 1571.48 -109.957)
(-310467 1522.8 -249.242)
(-310017 1472.66 -335.392)
(-309601 1421.41 -368.462)
(-309217 1369.45 -352.271)
(-308875 1316.97 -291.493)
(-308569 1264.32 -192.611)
(-308305 1211.9 -61.508)
(-308076 1160.21 95.6152)
(-307880 1110.24 273.444)
(-307716 1062.73 468.108)
(-307583 1019.16 676.884)
(-307484 980.487 898.304)
(-307425 947.375 1131.96)
(-307421 920.351 1377.98)
(-307497 903.079 1637.19)
(-307657 898.161 1912.77)
(-307912 903.845 2210.47)
(-308262 918.568 2537.87)
(-308650 942.979 2910.33)
(-309038 976.636 3361.26)
(-309609 1019.61 3938.92)
(-310940 1073.52 4653.04)
(-313423 1129.14 5426.56)
(-315889 1127.26 6285.14)
(-315048 1208.9 7736.15)
(-312042 1593.18 10103.1)
(-313586 1898.3 12319.3)
(-345549 -2289.2 13890.4)
(-331829 7312.47 1588.17)
(-303604 1751.22 4429.36)
(-224650 -2919.06 -1143.21)
(-224084 -2899.84 -1179.88)
(-223854 -2941.84 -1220.53)
(-223602 -2946.01 -1220.09)
(-223383 -2958.78 -1237.43)
(-223188 -2972.05 -1259.09)
(-223018 -2986.75 -1285.87)
(-222869 -3001.47 -1326.94)
(-222741 -3018.28 -1387.81)
(-222637 -3036.89 -1472.44)
(-222558 -3058.34 -1586.45)
(-222507 -3082.85 -1733.64)
(-222484 -3111.1 -1917.15)
(-222487 -3143.44 -2139.06)
(-222501 -3181.14 -2400.59)
(-222518 -3228.33 -2697.44)
(-222413 -3284.59 -3041.3)
(-222127 -3338.54 -3437.45)
(-221664 -3381.78 -3871.25)
(-221003 -3417.09 -4328.13)
(-220135 -3448.55 -4794.22)
(-219059 -3476.25 -5250.52)
(-217796 -3496.49 -5671.17)
(-216385 -3508.5 -6034.79)
(-214872 -3510.88 -6327.28)
(-213297 -3503.16 -6544.48)
(-211694 -3486.01 -6688.1)
(-210089 -3461.23 -6766.39)
(-208504 -3430.77 -6788.44)
(-206952 -3396.62 -6766.1)
(-205438 -3360.02 -6709.33)
(-203958 -3322.27 -6628.04)
(-202507 -3284.31 -6528.08)
(-201069 -3246.85 -6413.83)
(-199630 -3209.53 -6287.43)
(-198177 -3173.64 -6148.21)
(-196690 -3140.24 -5992.55)
(-195150 -3110.15 -5817.97)
(-193535 -3084.54 -5619.04)
(-191819 -3062.73 -5391.66)
(-189956 -3037.97 -5130.84)
(-187878 -3004.34 -4831.64)
(-185434 -2959.14 -4476.81)
(-182473 -2899.92 -4025.48)
(-179203 -2812.8 -3414.5)
(-176564 -2678.92 -2595.23)
(-175089 -2453.87 -1646.89)
(-172452 -2025.27 -717.596)
(-163753 -1014.65 242.618)
(-150698 1361.65 1883.5)
(-155440 7073.33 6988.44)
(-198477 13004.7 14394.5)
(-224722 26955.2 6950.03)
(-87650.3 11009 313.727)
(-263139 3110.99 1192.41)
(-262036 3163 1161.06)
(-261421 3138.56 1119.06)
(-260687 3152.22 1103.61)
(-260016 3156.01 1076.79)
(-259348 3158.64 1043.22)
(-258694 3158.91 1005.56)
(-258050 3157.84 953.707)
(-257420 3153.37 882.497)
(-256807 3145.12 787.523)
(-256215 3131.73 663.566)
(-255648 3112.25 506.394)
(-255109 3085.27 312.17)
(-254602 3049.51 77.0307)
(-254127 3004.55 -200.899)
(-253686 2946.21 -521.062)
(-253282 2876.02 -881.117)
(-252905 2804.66 -1274.85)
(-252541 2740.48 -1686.57)
(-252100 2682.07 -2108.84)
(-251576 2625.04 -2536.79)
(-250980 2568.69 -2953.17)
(-250329 2516.26 -3335.4)
(-249647 2468.47 -3665.65)
(-248961 2426.68 -3932.42)
(-248289 2391.63 -4132.7)
(-247640 2363.12 -4268.66)
(-247017 2340.2 -4347.82)
(-246420 2321.81 -4378.45)
(-245839 2307.03 -4370.27)
(-245265 2295.46 -4331.29)
(-244677 2286.68 -4269.2)
(-244059 2280.42 -4189.36)
(-243389 2276.53 -4094.81)
(-242643 2275.1 -3987.9)
(-241791 2274.69 -3869.22)
(-240803 2274.42 -3738.28)
(-239646 2272.55 -3595.66)
(-238267 2269.1 -3443.9)
(-236639 2262.32 -3281.58)
(-234722 2255.27 -3105.11)
(-232431 2250.47 -2909.48)
(-229599 2245.62 -2683.97)
(-226062 2237.46 -2401.79)
(-221951 2230.86 -2027.1)
(-217891 2237.88 -1555)
(-214198 2279.61 -1034.02)
(-208713 2428.65 -530.728)
(-197288 2920.43 192.553)
(-181763 4193.33 1566.3)
(-182942 6603.41 4586.61)
(-202067 6006.99 6721.4)
(-203386 6857.98 8332.9)
(24362.4 8915.87 -2162.03)
(-254525 -3784.4 2076.11)
(-254658 -3797.79 2244.41)
(-254763 -3808.01 2307.45)
(-254922 -3818.45 2405.88)
(-255119 -3824.95 2495.01)
(-255348 -3832.85 2576.21)
(-255606 -3839.02 2647.9)
(-255889 -3844.71 2706.29)
(-256190 -3850.95 2745.97)
(-256501 -3857.89 2760.5)
(-256809 -3866.35 2742.38)
(-257101 -3876.6 2686.01)
(-257357 -3889.27 2584.63)
(-257554 -3905.38 2431.41)
(-257664 -3925.92 2219.49)
(-257663 -3951.08 1938.65)
(-257544 -3981.85 1591.44)
(-257322 -4019 1196.48)
(-257007 -4065.22 769.691)
(-256603 -4121.08 322.435)
(-256097 -4187.74 -122.295)
(-255489 -4265.19 -537.601)
(-254796 -4354.18 -890.095)
(-254052 -4453.12 -1153.52)
(-253296 -4559.09 -1312.24)
(-252558 -4668.5 -1364.87)
(-251859 -4778.02 -1321.12)
(-251213 -4884.83 -1197.64)
(-250629 -4986.86 -1013.42)
(-250113 -5081.82 -787.412)
(-249666 -5168.1 -535.349)
(-249285 -5244.39 -270.308)
(-248968 -5310.47 -0.790687)
(-248713 -5365.89 267.504)
(-248523 -5410.59 532.76)
(-248406 -5446.46 793.836)
(-248368 -5475.49 1048.47)
(-248429 -5500.63 1301.06)
(-248605 -5525.71 1553.7)
(-248923 -5553.51 1813.86)
(-249403 -5585.85 2093.23)
(-250031 -5622.34 2404.13)
(-250723 -5665.48 2760.08)
(-251398 -5721.74 3187.7)
(-252307 -5804.28 3748.33)
(-254373 -5927.78 4549.06)
(-258441 -6090.5 5725.32)
(-263228 -6283.35 7425.08)
(-264320 -6247.6 9666.3)
(-263704 -5984.44 12319.4)
(-279186 -6026.96 17842.1)
(-348478 -7743.77 28166.6)
(-385665 9145.14 28781.5)
(-454457 26460.3 -75735.1)
(-246082 2611.89 957.764)
(-245859 2635.12 971.516)
(-245637 2647.43 1015.35)
(-245442 2662.24 1039.41)
(-245265 2681.24 1067.02)
(-245100 2699.29 1084.73)
(-244945 2719.62 1094.6)
(-244801 2740.94 1090.75)
(-244667 2762.23 1070.6)
(-244537 2783.38 1028.21)
(-244406 2803.57 957.771)
(-244269 2822.53 854.896)
(-244113 2839.64 715.393)
(-243924 2853.83 534.636)
(-243685 2864.1 307.984)
(-243379 2867.28 33.3725)
(-242987 2860.63 -290.531)
(-242499 2842.56 -659.2)
(-241919 2812.1 -1064.61)
(-241238 2769.59 -1488.58)
(-240450 2712.91 -1901.78)
(-239554 2642.11 -2277.24)
(-238573 2556.34 -2586.81)
(-237545 2457.43 -2802.74)
(-236518 2348.57 -2909.47)
(-235530 2233.65 -2906.1)
(-234611 2116.1 -2803.13)
(-233781 1998.64 -2618.82)
(-233055 1883.01 -2374.25)
(-232436 1771.09 -2090.63)
(-231925 1664 -1786.55)
(-231518 1562.53 -1478.09)
(-231206 1466.5 -1177.29)
(-230982 1376.02 -892.875)
(-230837 1290.76 -630.651)
(-230763 1209.28 -392.261)
(-230758 1129.75 -177.685)
(-230808 1048.05 12.2152)
(-230924 957.127 184.281)
(-231115 850.898 352.566)
(-231382 723.165 533.215)
(-231682 571.105 743.766)
(-231882 387.906 1009.13)
(-231851 162.573 1371.49)
(-231803 -120.349 1892.94)
(-232590 -481.133 2667.41)
(-234829 -918.789 3811.66)
(-236438 -1419.29 5322.45)
(-232766 -1731.35 6795.45)
(-225292 -2115.27 8347.16)
(-231065 -2966.78 11458.6)
(-265282 -9131.59 19840.1)
(-270782 6952.46 20180.4)
(-211254 -10621.4 -1600.03)
(-238560 -1279.72 519.214)
(-238329 -1291.72 621.946)
(-238187 -1276.87 660.389)
(-238044 -1269.84 716.444)
(-237932 -1258.14 767.675)
(-237836 -1246.58 810.255)
(-237759 -1233.41 837.461)
(-237697 -1219.93 843.011)
(-237652 -1206.03 821.143)
(-237621 -1191.79 763.326)
(-237601 -1177.78 660.773)
(-237588 -1164.08 507.687)
(-237575 -1150.35 298.654)
(-237556 -1136.58 28.4893)
(-237520 -1122.34 -307.365)
(-237452 -1108.17 -710.274)
(-237336 -1096.46 -1180.41)
(-237150 -1089.43 -1710.4)
(-236854 -1085.06 -2293.88)
(-236419 -1078.05 -2915.25)
(-235831 -1069.02 -3548.85)
(-235079 -1060.06 -4150.59)
(-234179 -1056.18 -4673.17)
(-233183 -1057.55 -5074.89)
(-232148 -1064.71 -5335.53)
(-231126 -1077.87 -5458.75)
(-230150 -1097.05 -5466.13)
(-229240 -1122.66 -5388.54)
(-228401 -1154.93 -5259.5)
(-227627 -1193.47 -5108.62)
(-226905 -1237.84 -4958.99)
(-226217 -1287.89 -4827.14)
(-225543 -1343.96 -4724.57)
(-224861 -1405.92 -4657.15)
(-224153 -1473.04 -4625.42)
(-223398 -1542.27 -4629.11)
(-222585 -1612.62 -4672.58)
(-221698 -1678.62 -4756.97)
(-220741 -1736.74 -4881.73)
(-219726 -1780.42 -5045.98)
(-218659 -1800.62 -5246.47)
(-217504 -1785.27 -5472.56)
(-216135 -1719.75 -5715.18)
(-214413 -1590.86 -5969.17)
(-212508 -1389.57 -6233.1)
(-211176 -1094.42 -6466.08)
(-211077 -663.581 -6542.73)
(-210323 -33.2264 -6436.63)
(-204120 796.69 -6192.82)
(-191980 1591.66 -5877.49)
(-194916 3166.1 -2282.53)
(-239490 5382.65 8082.26)
(-303927 23591.1 54368.9)
(-269381 18577.2 13645.6)
(-234220 5062.99 234.373)
(-234394 5174.92 235.588)
(-234460 5264.14 266.41)
(-234607 5357.02 282.425)
(-234775 5454.96 297.179)
(-234977 5554.52 305.782)
(-235207 5657.28 300.365)
(-235465 5761.67 274.209)
(-235748 5867.59 222.591)
(-236054 5974.55 137.265)
(-236378 6081.41 10.4165)
(-236711 6187.21 -164.652)
(-237041 6291.25 -394.271)
(-237354 6392.57 -684.555)
(-237626 6490.61 -1041.86)
(-237829 6586.36 -1474.83)
(-237932 6677.74 -1987.83)
(-237912 6760.55 -2577.44)
(-237750 6831.52 -3236.25)
(-237424 6893.26 -3951.33)
(-236888 6944.42 -4700.39)
(-236106 6981.4 -5445.47)
(-235108 6999.21 -6131.38)
(-233947 6999.27 -6712.71)
(-232693 6983.56 -7161.94)
(-231415 6955.25 -7474.64)
(-230167 6918.14 -7666.01)
(-228991 6875.45 -7761.73)
(-227912 6830.06 -7791.77)
(-226944 6784.94 -7783.23)
(-226088 6742.04 -7757.41)
(-225340 6702.58 -7729.74)
(-224689 6666.38 -7711.74)
(-224120 6633.05 -7709.8)
(-223619 6601.4 -7724.86)
(-223169 6570.77 -7755.4)
(-222745 6540.84 -7804.97)
(-222326 6512.16 -7871.23)
(-221899 6485.41 -7944.22)
(-221452 6462.87 -8014.19)
(-220956 6446.97 -8071.34)
(-220333 6442.52 -8103.15)
(-219402 6455.79 -8095.74)
(-217967 6491.13 -8033.37)
(-216161 6549.57 -7887.05)
(-214713 6631.57 -7592.37)
(-214100 6750.95 -7029.09)
(-212108 6903.02 -6254.53)
(-204253 7039.1 -5665.71)
(-191405 6783.16 -5912.19)
(-191528 6147.53 -3479.31)
(-201714 1142.99 7219.28)
(-197907 11510.6 54946.9)
(-64426.7 8704.72 30018.9)
(-234505 -2172.77 -2161.27)
(-234220 -2223.46 -2061.93)
(-234090 -2234.54 -2002.55)
(-233978 -2269.62 -1931)
(-233918 -2305.43 -1874.43)
(-233901 -2345.84 -1832.53)
(-233929 -2388.45 -1812.17)
(-233999 -2434.52 -1819.31)
(-234112 -2483.83 -1860.39)
(-234267 -2535.22 -1943.88)
(-234456 -2587.44 -2078.93)
(-234669 -2640.31 -2274.59)
(-234893 -2693.71 -2539.23)
(-235108 -2747.95 -2880.74)
(-235291 -2803.02 -3305.69)
(-235412 -2859.77 -3818.02)
(-235434 -2918.2 -4418.14)
(-235326 -2980.48 -5099.34)
(-235058 -3047.12 -5849.31)
(-234599 -3119.7 -6645.55)
(-233900 -3195.21 -7457.14)
(-232924 -3270.95 -8226.17)
(-231679 -3345.13 -8874.88)
(-230225 -3419.03 -9329.8)
(-228647 -3491.25 -9553.95)
(-227028 -3561.05 -9552.27)
(-225431 -3630.27 -9359.76)
(-223900 -3701.22 -9028.56)
(-222459 -3776.45 -8613.57)
(-221117 -3857.83 -8163.31)
(-219872 -3945.76 -7715.57)
(-218717 -4040.6 -7296.98)
(-217642 -4142.76 -6925.43)
(-216635 -4252.04 -6611.01)
(-215686 -4366.42 -6358.09)
(-214784 -4482.39 -6164.78)
(-213924 -4594.77 -6024.84)
(-213101 -4697.06 -5927.19)
(-212314 -4781.19 -5859.17)
(-211561 -4839.13 -5805.8)
(-210837 -4859.19 -5747.28)
(-210083 -4828.78 -5658.99)
(-209143 -4735.05 -5518.19)
(-207838 -4565.45 -5305.45)
(-206314 -4308.66 -4996.6)
(-205350 -3948.94 -4534.65)
(-205628 -3453.28 -3845.58)
(-205222 -2774.71 -2931.43)
(-199336 -1797 -1756.81)
(-186947 -352.588 -8.69115)
(-184275 2373 3596.11)
(-192352 7498.62 8378.79)
(-204290 29659.2 57609.3)
(-113918 17069.5 30442.2)
(-243275 6576.16 4494.18)
(-243884 6675.48 4772.86)
(-244212 6759.87 4928.8)
(-244679 6833.49 5111.17)
(-245160 6907.37 5278.43)
(-245685 6979.08 5438.12)
(-246248 7049.78 5581.32)
(-246845 7117.78 5702.2)
(-247472 7182.59 5793.26)
(-248124 7244.49 5845.69)
(-248791 7304.04 5850.07)
(-249458 7360.97 5796.41)
(-250107 7415.01 5674.01)
(-250719 7465.63 5472.27)
(-251266 7512.91 5181.01)
(-251716 7556.47 4793.73)
(-252034 7597.16 4309.47)
(-252192 7634.06 3732.84)
(-252165 7668.19 3072.69)
(-251927 7699.58 2341.75)
(-251462 7732.52 1570.77)
(-250768 7770.49 825.361)
(-249856 7814.61 185.322)
(-248807 7865.34 -276.898)
(-247707 7923.23 -525.531)
(-246611 7984.23 -561.531)
(-245567 8044.07 -411.979)
(-244597 8099.21 -121.1)
(-243705 8146.98 265.69)
(-242886 8185.86 713.702)
(-242139 8218.55 1188.47)
(-241442 8245.07 1666.72)
(-240770 8265.17 2133.26)
(-240094 8278.87 2579.49)
(-239388 8287.66 3002.3)
(-238626 8293.07 3401.37)
(-237784 8298.89 3786.84)
(-236842 8309.4 4170.81)
(-235766 8328.6 4559.61)
(-234523 8360.61 4959.81)
(-233065 8410.27 5374.83)
(-231291 8480.84 5804.17)
(-229009 8574.08 6239.79)
(-226007 8687.7 6661.63)
(-222346 8815.87 7045.22)
(-218602 8952.82 7373.22)
(-215200 9098.33 7620.82)
(-210370 9254.37 7686.78)
(-199996 9461.41 7401.06)
(-183346 9646.1 7121.25)
(-175045 10057.4 8306.94)
(-191151 11112.3 12557.4)
(-179154 18184 29163.5)
(62485.4 7455.88 12604)
(-232228 -4621.07 -3764.57)
(-232113 -4572.34 -3696.19)
(-232186 -4511.09 -3638.32)
(-232278 -4466.39 -3571.46)
(-232454 -4415.55 -3514.55)
(-232691 -4362.88 -3461.77)
(-232993 -4306.58 -3417.15)
(-233355 -4247.99 -3383.72)
(-233779 -4188.04 -3368.15)
(-234262 -4126.66 -3378.73)
(-234797 -4064.4 -3425.26)
(-235374 -4002.1 -3521.62)
(-235978 -3941.06 -3684.54)
(-236593 -3882.73 -3932.15)
(-237194 -3828.86 -4281.94)
(-237753 -3781.35 -4751.14)
(-238233 -3741.1 -5349.05)
(-238602 -3710.71 -6077.89)
(-238835 -3692.93 -6927.48)
(-238898 -3691.93 -7885.99)
(-238737 -3711.36 -8928.09)
(-238294 -3752.5 -9992.77)
(-237574 -3814.47 -10960.6)
(-236662 -3898.83 -11703.5)
(-235682 -4006.38 -12153.2)
(-234737 -4132.24 -12316.6)
(-233889 -4271 -12248.4)
(-233159 -4417.51 -12021.5)
(-232535 -4566.77 -11705.1)
(-231987 -4715.01 -11355.2)
(-231476 -4858.38 -11012.3)
(-230961 -4994.69 -10702)
(-230402 -5123.73 -10439.3)
(-229763 -5245.56 -10231.8)
(-229011 -5359.84 -10083.1)
(-228113 -5465.62 -9995.62)
(-227041 -5561.55 -9969.92)
(-225765 -5646.16 -10007.5)
(-224254 -5717.36 -10109.3)
(-222477 -5773.8 -10276.5)
(-220389 -5816.07 -10512.2)
(-217892 -5849.52 -10822.9)
(-214792 -5882.68 -11226.8)
(-210870 -5926.28 -11741.4)
(-206192 -6004.58 -12374.4)
(-201404 -6156.16 -13127.1)
(-197094 -6415.6 -14031.3)
(-191620 -6812.4 -15024.4)
(-180825 -7465 -15813.4)
(-162885 -8322.06 -16311.3)
(-153048 -9716.4 -16371.1)
(-163408 -4536.92 -8482.77)
(-180380 -15236.7 -12635)
(62060.6 4589.88 -3896.76)
(-235864 5313.73 6050.88)
(-236139 5225.58 6306.05)
(-236275 5179.19 6408.13)
(-236477 5106.65 6554.1)
(-236689 5031.14 6675.33)
(-236918 4949.2 6788.55)
(-237161 4862.34 6885.01)
(-237416 4769.59 6962.04)
(-237680 4670.34 7012.26)
(-237953 4565.4 7026.75)
(-238228 4455.62 6994.66)
(-238501 4341.88 6902.11)
(-238762 4225.46 6732.91)
(-239002 4108.25 6469.68)
(-239207 3993.56 6095.79)
(-239357 3886.03 5596.49)
(-239428 3790.74 4963.21)
(-239402 3711.42 4197.05)
(-239263 3651.35 3308.93)
(-238988 3612.02 2312.7)
(-238521 3594.68 1230.53)
(-237802 3601.95 125.938)
(-236800 3635.9 -872.716)
(-235541 3688.05 -1633.41)
(-234152 3747.65 -2086.25)
(-232771 3811.63 -2235.4)
(-231497 3875.71 -2134)
(-230389 3936.23 -1854.11)
(-229467 3990.19 -1469.14)
(-228711 4034.84 -1024.46)
(-228078 4069.21 -554.007)
(-227527 4094.85 -93.3315)
(-227021 4112.94 334.078)
(-226535 4125.17 722.396)
(-226055 4134.08 1068.86)
(-225567 4142.51 1372.51)
(-225064 4153.83 1634.13)
(-224540 4171.93 1854.55)
(-223993 4201.22 2034.91)
(-223425 4244.27 2175.62)
(-222826 4301.82 2276.09)
(-222139 4369.1 2332.21)
(-221206 4437.06 2330.76)
(-219840 4492.03 2251.27)
(-218129 4504.82 2058)
(-216746 4426.86 1701.49)
(-216234 4204.01 1102.09)
(-214523 3762.86 51.4418)
(-206343 2940.12 -1883.14)
(-189561 1786.38 -3143.28)
(-182572 2186.03 -3131.85)
(-198991 4817.17 -1246.43)
(-205237 -872.936 -25323.7)
(14641 1279.4 -20616.8)
(-235065 -3154.54 -3429.91)
(-234818 -3052.31 -3134.87)
(-234813 -2952.86 -2960.41)
(-234795 -2859.86 -2739.54)
(-234858 -2759.9 -2515.76)
(-234968 -2656.66 -2277.83)
(-235134 -2551.29 -2031.41)
(-235354 -2445.98 -1786.23)
(-235631 -2342.25 -1557.13)
(-235964 -2240.92 -1362.07)
(-236348 -2143.26 -1222.95)
(-236776 -2050.11 -1165.36)
(-237234 -1962.08 -1216.5)
(-237704 -1879.41 -1402.23)
(-238161 -1802.31 -1744.53)
(-238566 -1729.84 -2258.46)
(-238874 -1661.01 -2946.77)
(-239038 -1594.18 -3797.01)
(-239030 -1528.62 -4783.43)
(-238814 -1464.02 -5883.39)
(-238317 -1400.77 -7076.4)
(-237438 -1337.88 -8282.29)
(-236152 -1275.74 -9306.62)
(-234612 -1215.92 -9916.7)
(-233072 -1162.74 -10004.4)
(-231753 -1125.93 -9624.96)
(-230780 -1114.41 -8912.98)
(-230188 -1133.44 -8010.26)
(-229953 -1184.68 -7035.74)
(-230024 -1266.85 -6071.68)
(-230340 -1375.77 -5167.64)
(-230847 -1508.19 -4345.94)
(-231499 -1662.27 -3613.92)
(-232266 -1834.94 -2971.14)
(-233129 -2024.65 -2413.18)
(-234084 -2230.36 -1933.7)
(-235134 -2451.33 -1525.31)
(-236298 -2687.14 -1182.36)
(-237601 -2938.19 -901.467)
(-239089 -3205.87 -682.889)
(-240808 -3494.18 -533.304)
(-242771 -3809.61 -465.981)
(-244924 -4160.58 -515.141)
(-247204 -4559.96 -748.888)
(-249822 -5030.48 -1271.56)
(-253627 -5609.56 -2241.04)
(-259481 -6362.98 -3955.15)
(-265953 -7461.66 -6993.57)
(-266046 -9119.24 -12322.6)
(-256225 -10988.2 -20751.6)
(-248493 -11164.1 -30900.4)
(-271750 -12395.9 -37382.5)
(-224068 -16277.1 -65609.7)
(-74498 -11760.4 -36440.7)
(-232214 1794.96 5060.34)
(-232475 1684.9 5433.48)
(-232767 1641.11 5595.66)
(-233119 1575.27 5826.25)
(-233539 1512.72 6041.39)
(-234022 1449.66 6260.76)
(-234576 1386.76 6474.12)
(-235202 1322.99 6673.44)
(-235908 1258.44 6845.88)
(-236697 1194.19 6974.87)
(-237569 1131.3 7040.46)
(-238522 1071.11 7019.56)
(-239548 1015.55 6887.44)
(-240632 966.693 6619.87)
(-241750 926.428 6195.3)
(-242861 897.132 5597.86)
(-243915 880.39 4822.12)
(-244856 877.415 3878.76)
(-245644 887.355 2791.08)
(-246228 908.251 1575.21)
(-246514 936.289 239.575)
(-246376 967.32 -1140.19)
(-245788 991.659 -2378.23)
(-244888 1009.5 -3227.66)
(-243900 1021.81 -3551.69)
(-243041 1026.99 -3388.42)
(-242455 1024.39 -2864.56)
(-242213 1015.53 -2124.43)
(-242327 1003.16 -1300.66)
(-242774 989.729 -494.048)
(-243493 977.744 264.908)
(-244456 963.367 977.996)
(-245658 944.026 1644.83)
(-247078 924.351 2272.3)
(-248699 906.305 2865.8)
(-250513 892.999 3435.82)
(-252519 888.048 3993.27)
(-254723 895.891 4548.04)
(-257137 920.508 5109.65)
(-259784 965.662 5684.76)
(-262680 1034.72 6276.16)
(-265812 1130 6880.84)
(-269095 1250.96 7490.72)
(-272443 1390.19 8090.2)
(-276061 1535.51 8645.91)
(-280801 1666.47 9108.36)
(-287539 1737.98 9363.1)
(-295060 1605.95 9097.31)
(-298230 1050.94 7583.76)
(-296029 605.019 3994.09)
(-292846 -9.53414 -4250.24)
(-318152 -3529.23 -20781.9)
(-288331 -19332.6 -86214.2)
(-199495 -14313.4 -31152.3)
(-241085 -2299.46 -2176.29)
(-240641 -2286.71 -1729.21)
(-240461 -2245.95 -1517.77)
(-240254 -2222.2 -1272.36)
(-240111 -2196.87 -1049.98)
(-240014 -2175.54 -846.986)
(-239970 -2160.93 -671.622)
(-239989 -2153.68 -537.541)
(-240075 -2153.82 -458.624)
(-240233 -2161.23 -450.557)
(-240461 -2175.73 -531.691)
(-240753 -2196.47 -721.552)
(-241095 -2222.29 -1040.3)
(-241465 -2252.1 -1507.8)
(-241830 -2285.08 -2141.74)
(-242139 -2319.09 -2955.72)
(-242328 -2351.24 -3960.29)
(-242331 -2379.02 -5152.71)
(-242106 -2399.81 -6515.02)
(-241614 -2412.95 -8039.69)
(-240732 -2418.47 -9740.36)
(-239216 -2415.15 -11559.8)
(-236899 -2393.6 -13214.2)
(-233941 -2338.4 -14270.5)
(-230784 -2234.88 -14496.2)
(-227840 -2083.44 -14007.8)
(-225326 -1893.12 -13061.8)
(-223302 -1680.18 -11898.7)
(-221736 -1462.48 -10700.2)
(-220557 -1256.16 -9568.18)
(-219685 -1073.84 -8553.85)
(-219049 -913.943 -7672.99)
(-218598 -767.846 -6923.4)
(-218295 -634.032 -6289.94)
(-218114 -513.034 -5749.08)
(-218034 -404.393 -5272.8)
(-218044 -308.319 -4829.01)
(-218137 -226.282 -4383.02)
(-218314 -158.764 -3895.43)
(-218587 -107.057 -3320.94)
(-218963 -74.856 -2609.05)
(-219407 -67.8436 -1703.14)
(-219789 -91.567 -546.079)
(-219966 -145.752 916.045)
(-220138 -214.013 2749.38)
(-221252 -266.887 5013.07)
(-224352 -270.63 7661.7)
(-228282 -221.297 10294.4)
(-228173 -102.571 11867.1)
(-224079 434.142 10826.8)
(-233737 1991.28 5796.85)
(-288860 3967.28 -10767.4)
(-301975 -2880.2 -51522.7)
(-160138 12057.4 -9871.25)
(-231793 438.576 5181.76)
(-231808 439.02 5717.1)
(-231944 491.599 5986.54)
(-232111 527.631 6305.7)
(-232346 573.24 6603.46)
(-232641 622.529 6889.22)
(-233009 674.864 7154.6)
(-233455 730.208 7389.36)
(-233985 789.47 7581.22)
(-234604 853.905 7716.42)
(-235314 924.765 7779.4)
(-236109 1003.63 7753.25)
(-236978 1091.89 7620.06)
(-237901 1190.2 7361.1)
(-238849 1298.3 6957.56)
(-239774 1414.84 6391.77)
(-240617 1537.29 5650.76)
(-241320 1663.29 4731.95)
(-241859 1791.12 3642.14)
(-242225 1918.42 2368.98)
(-242333 2043.21 875.47)
(-242032 2169.01 -782.925)
(-241209 2312.9 -2356.58)
(-240007 2482.48 -3441.16)
(-238764 2684.38 -3795.47)
(-237730 2912.71 -3501.51)
(-236973 3157.72 -2781.42)
(-236453 3407.51 -1844.36)
(-236111 3654.37 -848.657)
(-235897 3888.85 104.211)
(-235835 4111.9 994.404)
(-235985 4344.85 1833.8)
(-236269 4598.22 2593.2)
(-236637 4870.44 3275.83)
(-237063 5160.32 3899.58)
(-237539 5467.4 4487.2)
(-238066 5789.12 5059.46)
(-238658 6121.2 5636.33)
(-239341 6458.47 6237.04)
(-240150 6792.78 6883.04)
(-241123 7112.64 7596.34)
(-242272 7403.68 8399.34)
(-243547 7649.97 9311.4)
(-244908 7839.9 10345.5)
(-246643 7978.6 11530.5)
(-249750 8087.46 12923.4)
(-255378 8199.48 14505.4)
(-262647 8349.98 16020.4)
(-267285 8678.84 16885.2)
(-269017 9576.76 15604.7)
(-286564 11417.2 11403.1)
(-357629 12590.2 -4731.28)
(-423130 -753.086 -65603.2)
(-326989 8629.96 -195900)
(-240078 -2833.96 -2673.89)
(-239780 -2934.78 -2296.19)
(-239612 -2966.48 -2130.9)
(-239465 -3017.69 -1935.47)
(-239355 -3066.7 -1749.68)
(-239298 -3116.61 -1565.23)
(-239298 -3168.13 -1382.38)
(-239364 -3220 -1206.11)
(-239502 -3272.06 -1043.37)
(-239720 -3323.64 -904.558)
(-240020 -3373.92 -806.608)
(-240402 -3421.99 -775.107)
(-240863 -3466.82 -846.834)
(-241391 -3507.61 -1070.28)
(-241964 -3543.46 -1500.52)
(-242540 -3573.51 -2195.53)
(-243066 -3596.33 -3207.17)
(-243486 -3606.91 -4570.22)
(-243777 -3601.57 -6278.16)
(-243935 -3584.13 -8295.04)
(-243829 -3561.51 -10641.6)
(-243034 -3548.45 -13318.5)
(-241102 -3576.4 -15964.6)
(-238146 -3665.89 -17799.7)
(-234882 -3803.37 -18251.7)
(-232008 -3956.08 -17511.6)
(-229818 -4099.53 -16174.8)
(-228333 -4219.43 -14682.1)
(-227423 -4301.97 -13279.1)
(-226939 -4338.81 -12063.3)
(-226756 -4329.46 -11058.8)
(-226782 -4285.85 -10251.2)
(-226952 -4223 -9608.42)
(-227219 -4144.95 -9094.63)
(-227553 -4052.92 -8677.7)
(-227934 -3947.61 -8330.3)
(-228353 -3830.44 -8027.26)
(-228809 -3705.66 -7746.15)
(-229305 -3579.21 -7468.38)
(-229857 -3458.08 -7178.97)
(-230475 -3352.94 -6866.59)
(-231139 -3280.09 -6522.3)
(-231758 -3264.09 -6136.01)
(-232240 -3331.65 -5698.98)
(-232821 -3507.43 -5206.15)
(-234460 -3801.6 -4654.04)
(-238332 -4204.36 -4013.35)
(-243837 -4793.3 -3354.04)
(-246951 -5697.76 -2760.99)
(-246479 -6375.92 -2549.81)
(-266693 -5178.7 -877.424)
(-344839 -2269.11 -528.707)
(-398293 599.31 -31105.9)
(-365368 -85992.8 -158049)
(-215446 104.572 2500.01)
(-215388 74.6768 3037.8)
(-215409 101.337 3350.49)
(-215447 114.92 3692.54)
(-215532 134.402 4034.51)
(-215662 157.88 4385.01)
(-215849 184.316 4746.9)
(-216100 215.344 5117.45)
(-216423 251.499 5491.59)
(-216821 293.312 5859.87)
(-217298 341.173 6206.2)
(-217850 395.121 6505.04)
(-218472 454.75 6718.72)
(-219149 519.021 6796.12)
(-219858 586.87 6676.44)
(-220559 658.72 6296.56)
(-221189 737.058 5599.59)
(-221685 826.145 4552.82)
(-222025 928.677 3171.22)
(-222211 1048.16 1481.3)
(-222118 1185.76 -559.273)
(-221240 1347.13 -2980.01)
(-219062 1507.53 -5478.59)
(-215717 1651.82 -7269.05)
(-212056 1782.17 -7706.72)
(-208969 1901.15 -6950.29)
(-206883 2007.56 -5600.91)
(-205852 2107.98 -4105.33)
(-205711 2210.95 -2715.02)
(-206214 2325.2 -1533.49)
(-207078 2453.13 -568.488)
(-208016 2600.88 162.672)
(-208958 2747.7 660.279)
(-209897 2878.94 957.819)
(-210841 2987.61 1079.38)
(-211805 3063.98 1040)
(-212810 3097.74 854.269)
(-213883 3074.39 537.182)
(-215066 2975.75 101.488)
(-216412 2781.69 -445.001)
(-217967 2467.81 -1097.31)
(-219734 2003.96 -1850.44)
(-221641 1353.57 -2701.46)
(-223623 479.525 -3665.99)
(-225989 -649.071 -4792.46)
(-229812 -2046.31 -6163.49)
(-236306 -3703.69 -7835.69)
(-244390 -5712.81 -9977.29)
(-249561 -8144.66 -12635.7)
(-251597 -10437.6 -16068.2)
(-274751 -11171 -22302.4)
(-352928 -11378.6 -36993.3)
(-444150 -10648.2 -20724.4)
(-596739 -31796.4 -12731.4)
(-232516 -3443.31 653.193)
(-232129 -3573.15 1222.36)
(-231840 -3607.72 1500.58)
(-231550 -3674.93 1852.98)
(-231262 -3739.41 2202.75)
(-231003 -3807.2 2570.06)