/*--------------------------------*- C++ -*----------------------------------*\
| =========                 |                                                 |
| \\      /  F ield         | OpenFOAM: The Open Source CFD Toolbox           |
|  \\    /   O peration     | Version:  4.1                                   |
|   \\  /    A nd           | Web:      www.OpenFOAM.org                      |
|    \\/     M anipulation  |                                                 |
\*---------------------------------------------------------------------------*/
FoamFile
{
    version     2.0;
    format      ascii;
    class       surfaceScalarField;
    location    "32";
    object      phi;
}
// * * * * * * * * * * * * * * * * * * * * * * * * * * * * * * * * * * * * * //

dimensions      [0 3 -1 0 0 0 0];

internalField   nonuniform List<scalar> 
11516
(
9.98994e+06
1480.26
10124.7
9.98145e+06
1453.55
21861.9
9.95989e+06
1867.35
32926.3
9.92662e+06
1584.93
42706.4
9.88177e+06
1271.77
52471
9.82588e+06
1114.34
62128
9.76024e+06
1085.39
71257.1
9.68646e+06
1163.9
79448
9.60603e+06
1297.79
86410.6
9.51957e+06
1356.46
92271.1
9.42702e+06
1172
97047.9
9.3275e+06
658.583
100677
9.22e+06
-633.329
104512
9.10518e+06
-1892.34
105520
8.98374e+06
-6087.81
112954
8.8909e+06
-3110.49
82490.4
8.81047e+06
-386.742
70822.5
8.77383e+06
755.624
39645.6
8.72333e+06
2394.92
60885.8
8.62523e+06
6984.76
114216
8.509e+06
438.509
135892
8.38533e+06
-3353.18
140479
8.26081e+06
-7055.89
143765
8.11925e+06
-11219.2
172183
7.94784e+06
-18336.4
212468
7.77533e+06
-26477.9
217546
7.63816e+06
-21782.4
180604
7.55051e+06
-11879.8
125782
7.54066e+06
-14874.6
59774.2
7.68986e+06
-15989.4
-93577.8
8.11793e+06
-7707.44
-356947
8.84004e+06
15254.1
-674220
9.68549e+06
58536.9
-841472
1.04426e+07
106259
-795930
1.1091e+07
127033
-679511
1.16771e+07
32788.6
-614050
1.19524e+07
52575.9
-364892
1.19922e+07
42849.2
-108653
1.17887e+07
64841.1
100212
1.15131e+07
73976.8
212420
1.12494e+07
56263.4
309403
1.10297e+07
51190.8
333563
1.08495e+07
59905.5
341588
1.06548e+07
126508
454679
1.03751e+07
141151
640637
1.00649e+07
117320
693344
9.40901e+06
141019
1.05195e+06
8.19518e+06
110646
1.35967e+06
6.77323e+06
282078
1.4363e+06
5.45229e+06
391020
1.17533e+06
4.64822e+06
662316
-331494
1.00885e+07
-323237
-6.19148e+06
1.4789e+07
410768
-4.33805e+06
899269
-9.75453e+06
9.99223e+06
10096.2
9.98159e+06
21885.1
9.95913e+06
32821.5
9.92517e+06
42420.8
9.87987e+06
51969.6
9.82395e+06
61404.2
9.75868e+06
70321.6
9.68556e+06
78365.6
9.60593e+06
85301.9
9.5203e+06
91299
9.4284e+06
96480.5
9.32938e+06
100785
9.22143e+06
105472
9.10525e+06
109372
8.98214e+06
111758
8.87274e+06
101087
8.79364e+06
77950.8
8.76436e+06
37066.7
8.71647e+06
63356.9
8.62162e+06
113592
8.50363e+06
127834
8.37542e+06
131725
8.23795e+06
138680
8.08228e+06
154696
7.89344e+06
181731
7.69195e+06
189088
7.51303e+06
171103
7.39164e+06
127693
7.34703e+06
54138.7
7.39853e+06
-26633.1
7.61999e+06
-190878
8.13153e+06
-451082
8.90786e+06
-667817
9.76476e+06
-714901
1.05017e+07
-605544
1.09823e+07
-462781
1.11958e+07
-180530
1.11256e+07
76134.5
1.0911e+07
267333
1.06511e+07
389814
1.03253e+07
444342
1.00718e+07
419552
9.98902e+06
373254
9.94844e+06
428447
9.79763e+06
664056
9.63536e+06
702814
9.19522e+06
940826
8.35507e+06
1.31762e+06
7.28903e+06
1.39418e+06
6.61407e+06
1.40617e+06
5.61886e+06
616417
9.84544e+06
-4.00176e+06
1.47867e+07
-4.32726e+06
-6.65198e+06
1.0012e+07
1481.69
4272.69
1.00311e+07
1352.49
15425.2
1.00465e+07
1618.56
27697.3
1.00588e+07
1210.17
38098.7
1.00681e+07
793.601
48393.2
1.0075e+07
550.312
58715.2
1.00799e+07
468.282
69029.3
1.00835e+07
542.877
79014.3
1.00851e+07
747.788
89185.1
1.00849e+07
1013.54
98755.8
1.00818e+07
1198.03
108171
1.00744e+07
1273.56
117374
1.00612e+07
1013.61
127764
1.00375e+07
1460.23
138253
9.99582e+06
439.692
162876
9.92365e+06
-478.423
163031
9.76943e+06
3958.09
229322
9.54335e+06
4232.98
265089
9.34708e+06
2064.2
258982
9.23266e+06
701.986
231162
9.15664e+06
1814.77
210539
9.08201e+06
1629.49
211858
8.9868e+06
743.746
236743
8.87327e+06
1475
284074
8.7528e+06
1482.49
332622
8.62308e+06
-2212.13
352261
8.48627e+06
-5655.04
328158
8.38871e+06
-12286.5
245058
8.46292e+06
-33010.8
31992.6
8.82321e+06
-51090
-391456
9.45652e+06
-38620.5
-949499
1.01511e+07
3067.49
-1.37622e+06
1.07269e+07
34035.7
-1.46412e+06
1.11961e+07
29142.4
-1.32238e+06
1.15637e+07
-17500
-1.08217e+06
1.17098e+07
-51516.6
-736228
1.17124e+07
-110892
-258307
1.16535e+07
-109723
59335.1
1.15313e+07
-94315.7
326695
1.134e+07
-75329.2
521560
1.11103e+07
-51606.3
618344
1.09523e+07
-79097.7
670512
1.10196e+07
-123310
605309
1.12378e+07
-177926
715834
1.1577e+07
-176717
927266
1.19573e+07
-179215
1.02483e+06
1.23402e+07
-174628
1.31032e+06
1.25409e+07
-97878.5
1.62853e+06
1.19879e+07
-112508
2.0399e+06
9.67897e+06
291592
2.75858e+06
3.50048e+06
-308276
5.72193e+06
-6.96125e+06
-150558
4.57766e+06
-1.28114e+07
2.38439e+06
-322869
55733.8
-2.31105e+06
1.00142e+07
4231.32
1.00313e+07
15379.5
1.00457e+07
27606.5
1.0057e+07
37944.2
1.00654e+07
48175.2
1.00715e+07
58420
1.00758e+07
68638.1
1.00788e+07
78524.2
1.00799e+07
88629.4
1.00792e+07
98162.1
1.00756e+07
107735
1.00677e+07
117248
1.00542e+07
127803
1.0033e+07
139704
9.99696e+06
157084
9.92458e+06
180962
9.77488e+06
238296
9.5449e+06
273767
9.3469e+06
266120
9.22889e+06
234419
9.15003e+06
208068
9.07307e+06
208279
8.97559e+06
235531
8.85216e+06
279949
8.71566e+06
321225
8.55928e+06
345959
8.38367e+06
348223
8.2354e+06
277899
8.17885e+06
94216.4
8.35035e+06
-239565
8.89256e+06
-772255
9.67996e+06
-1.24507e+06
1.0398e+07
-1.36671e+06
1.09413e+07
-1.25576e+06
1.1355e+07
-1.0655e+06
1.15833e+07
-765685
1.17376e+07
-456969
1.18444e+07
-121070
1.18941e+07
182120
1.17873e+07
439269
1.16313e+07
601078
1.14295e+07
648989
1.13514e+07
496429
1.1365e+07
552017
1.14522e+07
782956
1.1634e+07
714044
1.19769e+07
844735
1.21363e+07
1.25009e+06
1.16695e+07
1.77635e+06
1.06419e+07
2.54299e+06
6.54249e+06
4.42844e+06
-3.24165e+06
5.97395e+06
-5.50157e+06
892636
-2.85136e+06
1.00037e+07
1452.45
4846.48
1.001e+07
1317.53
21461.8
1.00081e+07
1559.63
39382.3
9.99936e+06
1122.6
54008.8
9.98409e+06
677.077
68351.9
9.96302e+06
422.625
82586.4
9.93742e+06
360.663
96607.8
9.90784e+06
509.675
111021
9.87604e+06
856.654
125071
9.84177e+06
1353.88
139651
9.80545e+06
1874.46
154137
9.76632e+06
2376.48
169386
9.72397e+06
2737.86
186186
9.67574e+06
2975.36
205850
9.6298e+06
3323.36
229866
9.55201e+06
624.578
261058
9.46236e+06
1090.37
329297
9.3825e+06
625.054
345689
9.3315e+06
1472.87
310515
9.28903e+06
2300.93
273380
9.2437e+06
2191.36
252825
9.18344e+06
1440.97
266831
9.09625e+06
774.928
319649
8.97975e+06
1030.82
398059
8.83528e+06
763.001
477308
8.65641e+06
-1615.55
538415
8.44675e+06
-10115.9
562058
8.28524e+06
-27968
457132
8.30587e+06
-57619.7
88870.1
8.57796e+06
-53601
-602142
8.98576e+06
-10369.9
-1.35036e+06
9.30728e+06
18477.6
-1.72898e+06
9.44191e+06
57236.1
-1.68303e+06
9.43132e+06
103346
-1.46218e+06
9.38283e+06
91370.4
-1.17232e+06
9.26386e+06
10029.2
-641167
9.15066e+06
-75862.9
-48733.6
9.00776e+06
-114510
381645
8.74602e+06
-164903
825926
8.46941e+06
-165856
966940
8.28622e+06
-495.728
813218
8.14389e+06
-80726.6
939432
8.1954e+06
-168517
829464
8.40857e+06
-181762
948312
8.77659e+06
-212586
1.09788e+06
9.23822e+06
-290679
1.2006e+06
1.00113e+07
-396653
1.34637e+06
1.08299e+07
-530739
1.56274e+06
1.16742e+07
-490095
1.7968e+06
1.303e+07
-635244
2.1206e+06
1.64632e+07
-506149
2.8516e+06
1.91698e+07
-882330
2.99564e+06
1.70001e+07
-656606
2.89527e+06
-1.67133e+06
-1.02264e+06
1.00058e+07
4812.51
1.00101e+07
21451.6
1.00072e+07
39342.5
9.99761e+06
53940.2
9.98163e+06
68260.3
9.96014e+06
82476.3
9.9344e+06
96489.2
9.90488e+06
110914
9.87325e+06
125011
9.83916e+06
139684
9.80301e+06
154359
9.76403e+06
169848
9.72146e+06
186990
9.67377e+06
207122
9.61966e+06
230843
9.54907e+06
266804
9.46483e+06
327218
9.37871e+06
361806
9.32463e+06
323383
9.28177e+06
280516
9.23335e+06
257540
9.16911e+06
271613
9.07574e+06
327709
8.9494e+06
407045
8.78925e+06
484532
8.58283e+06
559448
8.33266e+06
605950
8.0935e+06
510757
7.96918e+06
178118
8.1648e+06
-484067
8.65848e+06
-1.28215e+06
9.10963e+06
-1.68875e+06
9.40857e+06
-1.6244e+06
9.6155e+06
-1.38258e+06
9.77381e+06
-1.15535e+06
9.81324e+06
-784656
9.77114e+06
-411329
9.70191e+06
-42481
9.54345e+06
246176
9.16408e+06
668939
8.69027e+06
1.09501e+06
8.2567e+06
1.05495e+06
7.97628e+06
773631
7.94075e+06
626389
7.73096e+06
1.0173e+06
7.71647e+06
766284
7.71371e+06
725076
8.03347e+06
694781
9.06916e+06
463909
1.11305e+07
51117.8
1.4934e+07
304659
1.88373e+07
1.28709e+06
1.74823e+07
1.85395e+06
-3.49555e+06
1.00033e+07
1416.23
5841.35
1.00099e+07
1332.4
27275.1
1.00084e+07
1570.54
50745.2
1.00001e+07
1130.4
69633.9
9.98507e+06
681.347
88281.2
9.96394e+06
416.1
106800
9.93695e+06
342.031
125998
9.90564e+06
485.395
145397
9.87061e+06
848.611
165186
9.83249e+06
1390.56
185946
9.7911e+06
2029.02
207498
9.74608e+06
2706.24
230536
9.69775e+06
3329.13
255099
9.64631e+06
3839.78
281252
9.59128e+06
3934.59
309879
9.52764e+06
3207.11
343906
9.4674e+06
427.68
394892
9.37878e+06
-453.024
437899
9.3137e+06
834.584
378024
9.26519e+06
2194.41
323391
9.21492e+06
2474.64
302011
9.14469e+06
2558.65
333057
9.04265e+06
3401.98
415976
8.90731e+06
1182.03
532675
8.73152e+06
-2744.81
662512
8.49158e+06
-7448.62
801003
8.19721e+06
-18204.2
897795
7.93071e+06
-28583
775580
7.80771e+06
-35919.5
265915
7.85346e+06
-22338
-617774
7.87537e+06
6615.05
-1.37745e+06
7.73331e+06
24503.9
-1.6117e+06
7.48024e+06
51603.5
-1.4807e+06
7.26081e+06
87992.3
-1.33455e+06
7.17356e+06
73043.3
-1.15903e+06
7.11478e+06
-112474
-457297
6.97414e+06
-331131
505318
7.04888e+06
-341856
787059
7.1526e+06
-487951
1.25834e+06
7.13737e+06
-220000
1.1862e+06
7.18211e+06
39580
719654
7.18239e+06
30700.8
893545
7.06983e+06
-33398.9
1.00023e+06
7.04237e+06
-34805.8
1.0293e+06
7.09551e+06
-112468
1.2505e+06
7.22744e+06
-406198
1.62504e+06
7.64383e+06
-628149
1.79387e+06
8.28657e+06
-454216
1.75334e+06
9.24441e+06
-192842
1.56649e+06
1.09825e+07
234396
1.0304e+06
1.39594e+07
283043
518678
1.71229e+07
-642519
671617
2.04903e+07
-1.48678e+06
1.05065e+06
-1.24563e+06
-1.43642e+06
1.00054e+07
5812.33
1.00099e+07
27271.3
1.00075e+07
50700.2
9.99834e+06
69553.5
9.98262e+06
88202.6
9.9611e+06
106746
9.934e+06
125984
9.90281e+06
145436
9.86805e+06
165288
9.83028e+06
186117
9.78928e+06
207746
9.74465e+06
230846
9.69655e+06
255487
9.64498e+06
281671
9.58838e+06
310633
9.52445e+06
344262
9.45753e+06
400151
9.37744e+06
445695
9.31138e+06
393229
9.25973e+06
337536
9.20343e+06
317731
9.12428e+06
353258
9.01736e+06
437712
8.88297e+06
544433
8.69809e+06
672631
8.43474e+06
827548
8.11465e+06
923131
7.82654e+06
784268
7.69475e+06
283088
7.7742e+06
-582926
7.85656e+06
-1.3583e+06
7.77788e+06
-1.58461e+06
7.59637e+06
-1.39112e+06
7.46679e+06
-1.16731e+06
7.54373e+06
-1.14758e+06
7.57431e+06
-828308
7.4255e+06
-416796
7.27777e+06
-85421
6.94576e+06
105283
6.48092e+06
897031
6.39449e+06
1.21198e+06
6.3125e+06
1.17707e+06
6.06071e+06
1.03726e+06
5.79389e+06
952622
5.53495e+06
1.27765e+06
4.97825e+06
1.11509e+06
4.28245e+06
1.1559e+06
4.07875e+06
996482
4.85031e+06
439359
7.30398e+06
-1.24996e+06
9.94945e+06
-2.0019e+06
1.50119e+07
-3.88566e+06
1.79401e+07
-2.76505e+06
-6.79161e+06
1.00034e+07
1400.54
6704.82
1.00098e+07
1337.97
33168.6
1.00084e+07
1584.97
62145
1.00002e+07
1167.18
85343.9
9.98531e+06
734.391
108373
9.96429e+06
484.059
131430
9.93799e+06
427.482
155411
9.90766e+06
593.158
179734
9.87377e+06
983.006
205253
9.83705e+06
1553.46
232005
9.79762e+06
2226.57
259955
9.75544e+06
2934.79
289631
9.71088e+06
3642.65
320383
9.66353e+06
4258.28
352517
9.61226e+06
4629.27
385131
9.55452e+06
3726.97
420799
9.5054e+06
3744.15
461313
9.43432e+06
-469.579
527371
9.3297e+06
4960.46
487278
9.24716e+06
-301.908
418987
9.16491e+06
-950.026
394880
9.05979e+06
-368.191
447047
8.93199e+06
6748.24
538783
8.77868e+06
5071.73
684389
8.58455e+06
-2457.96
865030
8.32216e+06
-5111.4
1.08099e+06
7.99657e+06
-8585.93
1.24582e+06
7.67089e+06
-8644.22
1.12137e+06
7.3983e+06
-3788.96
549987
7.12068e+06
2166.12
-339696
6.74033e+06
8798.14
-1.00453e+06
6.27334e+06
21372.6
-1.16272e+06
5.81639e+06
41791.1
-1.06466e+06
5.48548e+06
82921.5
-1.08531e+06
5.35713e+06
178003
-1.20512e+06
5.25222e+06
-289229
-15162
5.36897e+06
-425813
880459
5.69414e+06
-163511
650329
5.71096e+06
-289614
1.40715e+06
6.17996e+06
-211229
858963
6.49822e+06
-32665
425692
6.4704e+06
-72161.3
974009
6.29073e+06
8000.06
1.16172e+06
5.99457e+06
88901.7
1.40119e+06
5.71741e+06
-88.5414
1.73475e+06
5.82511e+06
-164062
1.99706e+06
6.25269e+06
-178574
1.89885e+06
6.67952e+06
132739
1.62384e+06
7.2987e+06
378354
1.22662e+06
8.79178e+06
1.19512e+06
-69874.7
9.97844e+06
1.65946e+06
-1.91164e+06
1.29764e+07
-524374
-1.16172e+06
1.59977e+07
-3.9631e+06
1.82286e+06
-3.95021e+06
-124239
1.00054e+07
6658.51
1.00099e+07
33156.7
1.00075e+07
62096.2
9.99847e+06
85290
9.98291e+06
108343
9.96149e+06
131449
9.9351e+06
155500
9.90489e+06
179906
9.87127e+06
205510
9.83489e+06
232334
9.79583e+06
260326
9.75403e+06
289983
9.70985e+06
320616
9.66247e+06
352534
9.61016e+06
385518
9.55322e+06
421720
9.50472e+06
466718
9.44469e+06
518895
9.34474e+06
513760
9.24831e+06
448496
9.147e+06
429385
9.0267e+06
480891
8.90129e+06
574225
8.75689e+06
696681
8.55867e+06
873177
8.29462e+06
1.09306e+06
7.99225e+06
1.22323e+06
7.69426e+06
1.07912e+06
7.43995e+06
537165
7.17911e+06
-318700
6.82435e+06
-993082
6.40866e+06
-1.14518e+06
6.05075e+06
-989961
5.88758e+06
-918634
6.11784e+06
-1.15755e+06
6.20669e+06
-1.07658e+06
5.94733e+06
-473827
5.88851e+06
-217933
5.64857e+06
-60929.6
5.45297e+06
730548
5.52632e+06
1.07921e+06
5.57642e+06
1.03649e+06
5.31057e+06
1.40287e+06
4.81485e+06
1.76753e+06
4.4634e+06
2.05495e+06
3.77636e+06
2.261e+06
3.28233e+06
2.26661e+06
3.62164e+06
1.70152e+06
4.88133e+06
484715
6.59992e+06
-1.48698e+06
1.13164e+07
-4.46541e+06
1.02863e+07
-3.57926e+06
-2.21907e+06
5.04914e+06
-9.35544e+06
1.00033e+07
1342.95
7535.36
1.00098e+07
1360.83
38937.3
1.00085e+07
1602.19
73457
1.00006e+07
1192.44
100963
9.98646e+06
786.117
128232
9.9662e+06
567.588
156002
9.94105e+06
546.856
184642
9.91193e+06
746.25
214033
9.87973e+06
1160.99
244951
9.84514e+06
1736.77
277217
9.80787e+06
2387.08
311287
9.76808e+06
3043.49
346790
9.7253e+06
3641.84
383510
9.67919e+06
4231.74
421718
9.62935e+06
4459.23
460234
9.5761e+06
4844.6
501538
9.52867e+06
3816.08
539616
9.49719e+06
4624.14
593696
9.41444e+06
8479.36
602146
9.30451e+06
-1579.38
576408
9.18698e+06
-2185.54
560691
9.06268e+06
-6002.14
615548
8.91607e+06
2739.8
694896
8.73639e+06
7131.48
861005
8.52473e+06
-667.211
1.08193e+06
8.26513e+06
391.362
1.34633e+06
7.93765e+06
6585.82
1.57538e+06
7.54444e+06
11997.4
1.51061e+06
7.08286e+06
18021.5
999293
6.51751e+06
16056.7
213098
5.8631e+06
15626.1
-363219
5.17353e+06
36081.1
-508268
4.46447e+06
86028
-439877
3.5935e+06
282274
-494536
816432
1.2445e+06
344691
661636
-21754.4
165362
1.9332e+06
8542.06
-498800
2.93496e+06
272773
-1.1034e+06
3.74947e+06
-100378
249527
4.99624e+06
-48681.4
-643046
5.57617e+06
-120846
-137199
5.20443e+06
-6651.34
1.14259e+06
4.58916e+06
-232664
2.10402e+06
3.98869e+06
-430031
2.79627e+06
3.77758e+06
-405568
2.9298e+06
3.98415e+06
-494891
3.07921e+06
4.68678e+06
12846
2.21787e+06
5.55366e+06
645283
1.05382e+06
6.82362e+06
1.41761e+06
-592301
7.60572e+06
2.2676e+06
-2.73801e+06
6.82854e+06
3.64109e+06
-3.97242e+06
8.6236e+06
253289
-3.20353e+06
1.49148e+07
-7.16262e+06
1.65804e+06
-8.17184e+06
-1.96659e+06
1.00052e+07
7489.08
1.00098e+07
38925.4
1.00076e+07
73391.2
9.99894e+06
100857
9.98412e+06
128142
9.9635e+06
155966
9.93827e+06
184685
9.90929e+06
214169
9.87734e+06
245182
9.84306e+06
277526
9.80608e+06
311635
9.76657e+06
347110
9.72405e+06
383734
9.67804e+06
421689
9.62812e+06
460517
9.57495e+06
501043
9.52774e+06
543562
9.50121e+06
586600
9.45422e+06
612421
9.33694e+06
609158
9.2009e+06
600551
9.0695e+06
637648
8.89113e+06
773329
8.70522e+06
894648
8.50036e+06
1.08143e+06
8.26001e+06
1.33853e+06
7.97106e+06
1.52394e+06
7.6136e+06
1.45319e+06
7.16664e+06
1.00608e+06
6.61669e+06
250710
6.00777e+06
-365227
5.42284e+06
-521643
4.94203e+06
-421194
4.71921e+06
-395771
6.03115e+06
-1.16897e+06
5.74905e+06
-791177
5.71608e+06
-545178
6.17723e+06
-634153
5.81403e+06
-274136
5.4602e+06
631584
5.14012e+06
1.1259e+06
4.5482e+06
1.56493e+06
3.46497e+06
2.38127e+06
2.41487e+06
2.87605e+06
1.40209e+06
3.44636e+06
282895
3.85134e+06
40833.2
3.45934e+06
915316
2.24615e+06
3.18408e+06
117088
6.75896e+06
-2.24351e+06
1.06891e+07
-4.85882e+06
9.01951e+06
-2.46636e+06
-2.07981e+06
8.95477e+06
5.82546e+06
1.00032e+07
1318.03
8277.69
1.00098e+07
1360.4
44682.5
1.00088e+07
1610.75
84455.1
1.00016e+07
1239.44
116060
9.98835e+06
868.502
147471
9.9693e+06
685.402
179882
9.94562e+06
698.668
213116
9.91819e+06
926.456
247496
9.88802e+06
1356.12
283499
9.85498e+06
1927.18
321704
9.81976e+06
2548.79
361150
9.78157e+06
3150.61
402574
9.73979e+06
3696.39
445516
9.69452e+06
4246.74
489936
9.64563e+06
4628.41
535480
9.59584e+06
5521.71
583037
9.54566e+06
6018.6
630506
9.51056e+06
9351.71
678771
9.4641e+06
6816.63
716644
9.38393e+06
5198.82
744125
9.26909e+06
7234.31
779289
9.1627e+06
-12329.5
834546
9.04288e+06
-22407.8
889818
8.84302e+06
9520.73
1.06887e+06
8.61555e+06
-3552.8
1.32106e+06
8.37245e+06
-1625.43
1.60073e+06
8.0832e+06
16932
1.86086e+06
7.65269e+06
26314.3
1.92815e+06
7.02912e+06
22215.3
1.61255e+06
6.2489e+06
20387.4
981420
5.43395e+06
28306.4
427401
4.6191e+06
54211.5
255081
3.57482e+06
156570
447989
986138
784928
1.30802e+06
-2.19693e+06
1.40675e+06
2.07447e+06
-2.23128e+06
18635.6
179523
-2.15936e+06
767020
-1.50016e+06
-1.66876e+06
756482
-2.66318e+06
-756724
649018
-1.80041e+06
-689508
499485
-1.82704e+06
-2.39228e+06
690915
268303
-5.20709e+06
757275
2.22445e+06
-5.60492e+06
-97941.9
2.11455e+06
-4.65532e+06
-1.09845e+06
2.81465e+06
-2.56705e+06
-1.23944e+06
2.2977e+06
645363
-966015
1.76346e+06
3.9078e+06
360705
372816
4.49636e+06
1.52241e+06
594210
1.12689e+06
3.38554e+06
1.16735e+06
-4.97064e+06
4.0147e+06
413636
-1.11186e+07
3.77424e+06
-1.01701e+06
-1.4426e+07
1.92308e+06
-1.66637e+06
-9.14535e+06
-1.81482e+06
-1.44697e+06
2.78608e+06
-1.3833e+06
1.00051e+07
8228.36
1.00098e+07
44682.8
1.0008e+07
84408.9
9.99998e+06
116012
9.98612e+06
147458
9.96672e+06
179931
9.94298e+06
213246
9.91568e+06
247716
9.88576e+06
283804
9.85298e+06
322078
9.81799e+06
361571
9.78001e+06
403009
9.73846e+06
445958
9.69338e+06
490331
9.64487e+06
536114
9.59537e+06
583620
9.54779e+06
632038
9.50825e+06
679278
9.46187e+06
720599
9.38778e+06
755144
9.27375e+06
797098
9.1183e+06
856514
8.95292e+06
971352
8.8048e+06
1.06793e+06
8.58583e+06
1.30654e+06
8.35302e+06
1.57697e+06
8.09575e+06
1.80668e+06
7.70976e+06
1.87329e+06
7.13028e+06
1.61594e+06
6.38923e+06
1.01929e+06
5.62562e+06
431135
4.96256e+06
196862
4.40997e+06
288775
3.98996e+06
790256
2.14345e+06
1.98903e+06
429263
836288
550284
-130942
845780
-616109
1.3182e+06
-997028
906505
941588
-29345.9
2.34275e+06
-777738
2.67705e+06
-1.29524e+06
2.4792e+06
-2.14263e+06
2.52094e+06
-2.90854e+06
3.17165e+06
-3.28516e+06
3.76805e+06
-2.49176e+06
3.73121e+06
-1.00688e+06
3.02725e+06
921832
2.16828e+06
1.72066e+06
1.5063e+06
-27934.9
1.12341e+06
-640251
467661
4.49688e+06
2.46515e+06
626099
1.00031e+07
1250.56
9031.5
1.001e+07
1405.6
50072.8
1.00096e+07
1653.78
95040.2
1.00032e+07
1292.1
130698
9.99108e+06
950.32
166226
9.97364e+06
796.767
202935
9.95196e+06
835.088
240513
9.92646e+06
1075.86
280014
9.89814e+06
1499.88
321141
9.86763e+06
2045.35
364477
9.83423e+06
2630.89
409909
9.79772e+06
3198.65
457411
9.75761e+06
3758.07
506938
9.7137e+06
4379.07
558593
9.66669e+06
5100.22
612025
9.61838e+06
6201.2
667591
9.57023e+06
7568.71
723939
9.52391e+06
9580.38
780516
9.47104e+06
9404.75
835857
9.40624e+06
10167.4
894164
9.32502e+06
10256.9
961270
9.23483e+06
7396.99
1.04861e+06
9.12682e+06
-7156.57
1.12188e+06
9.01199e+06
-6823.86
1.24444e+06
8.83922e+06
-15994
1.52635e+06
8.63586e+06
-6079.58
1.82189e+06
8.42562e+06
21382.7
2.06902e+06
8.07553e+06
50877.9
2.26747e+06
7.41189e+06
59434.1
2.25624e+06
6.49168e+06
33840.1
1.89638e+06
5.59929e+06
22838.7
1.30635e+06
4.84055e+06
31856.8
978374
4.16717e+06
84328.1
1.02937e+06
2.81587e+06
708480
1.84202e+06
18176.4
1.1301e+06
3.50801e+06
-2.02703e+06
553051
1.45568e+06
-2.7927e+06
336444
-1.33111e+06
-2.78988e+06
-81315.1
-2.7925e+06
-2.16053e+06
-416333
-2.47012e+06
-2.62552e+06
-36263.4
-1.86302e+06
-3.40111e+06
58559.7
-270805
-5.18034e+06
338979
1.16446e+06
-5.84772e+06
327454
851986
-5.46244e+06
124212
1.22724e+06
-4.55719e+06
-166097
797305
-2.72535e+06
-556833
550282
-789114
-453474
-150471
1.49135e+06
389345
-241790
3.50485e+06
1.36081e+06
171024
3.03032e+06
2.52852e+06
834149
5011.54
2.83962e+06
668454
-2.97621e+06
2.56072e+06
234051
-1.29883e+06
-710576
-1.61967e+06
1.00315e+06
-925423
1.00049e+07
8979.92
1.00099e+07
50066.8
1.00087e+07
94983.4
1.00017e+07
130603
9.98892e+06
166154
9.97117e+06
202930
9.94944e+06
240600
9.92406e+06
280205
9.89597e+06
321435
9.86569e+06
364857
9.83249e+06
410352
9.79615e+06
457889
9.75627e+06
507435
9.71274e+06
559090
9.66632e+06
612586
9.61884e+06
668155
9.57184e+06
724891
9.52479e+06
782002
9.47119e+06
839159
9.40528e+06
897274
9.325e+06
967208
9.22321e+06
1.05413e+06
9.11199e+06
1.15199e+06
8.97703e+06
1.23746e+06
8.7823e+06
1.51006e+06
8.56425e+06
1.80224e+06
8.35253e+06
2.06775e+06
8.04209e+06
2.25315e+06
7.52106e+06
2.21067e+06
6.72652e+06
1.86075e+06
5.81755e+06
1.36792e+06
5.08151e+06
957903
4.56349e+06
843784
4.18427e+06
1.72154e+06
3.76425e+06
3.3017e+06
2.23647e+06
2.6955e+06
502246
1.74929e+06
-1.2496e+06
672957
-2.97876e+06
-353262
-2.9078e+06
343282
-3.16711e+06
2.10132e+06
-3.53617e+06
2.67675e+06
-4.1612e+06
2.72141e+06
-4.68606e+06
2.63988e+06
-4.6271e+06
2.68595e+06
-4.02484e+06
2.64685e+06
-2.9677e+06
2.53833e+06
-1.3676e+06
2.33929e+06
728355
2.1385e+06
3.34073e+06
2.25606e+06
5.7674e+06
2.20449e+06
7.70289e+06
1.76495e+06
8.99247e+06
897904
-433624
1.0003e+07
1227.71
9663.09
1.00101e+07
1409.61
55306.1
1.00105e+07
1667.46
105014
1.00053e+07
1350.12
144417
9.9946e+06
1045.57
183867
9.97902e+06
924.845
224717
9.9593e+06
990.048
266706
9.93637e+06
1247.97
310813
9.91055e+06
1676.47
357186
9.88232e+06
2214.24
405855
9.85154e+06
2788.97
456920
9.8173e+06
3354.76
510940
9.77933e+06
3943.96
567383
9.73795e+06
4636.09
626304
9.69351e+06
5523.79
688040
9.64761e+06
6728.34
752272
9.60092e+06
8215.05
818392
9.55338e+06
10098.4
886169
9.50128e+06
11343.5
954908
9.44314e+06
13005.9
1.02957e+06
9.38033e+06
14416.8
1.11229e+06
9.31317e+06
13732.5
1.21971e+06
9.19595e+06
7480.09
1.3482e+06
9.13223e+06
-27533
1.42868e+06
9.07452e+06
-39708.9
1.66261e+06
8.92305e+06
-17645.8
2.00691e+06
8.73787e+06
14190.2
2.29031e+06
8.45391e+06
80273.3
2.54052e+06
7.93698e+06
122886
2.71041e+06
7.09991e+06
59507.8
2.70865e+06
6.0563e+06
-25020.1
2.36449e+06
5.10714e+06
-74276.5
1.96928e+06
4.35775e+06
37819.6
1.66438e+06
3.52108e+06
467095
1.98365e+06
2.3214e+06
746473
3.60473e+06
379572
487371
2.53699e+06
-1.26265e+06
-102940
245418
-2.24953e+06
-695327
-1.09143e+06
-2.31723e+06
-905260
-1.36288e+06
-1.66831e+06
-1.08677e+06
-1.37102e+06
-393625
-933776
-736293
1.01255e+06
-494640
-85625.8
1.52091e+06
-336303
35013.2
1.98133e+06
-239001
185379
2.31848e+06
-359169
50972.5
2.83644e+06
-462650
-68193.8
3.17552e+06
-553167
-214254
3.71145e+06
-523549
-245623
4.70446e+06
-372183
-205815
6.23062e+06
-180908
-200279
7.96783e+06
-121162
-482542
9.47539e+06
90601.7
-814614
9.30557e+06
-197166
-727056
534087
-2.03583e+06
1.00048e+07
9622.64
1.00101e+07
55327.8
1.00097e+07
104990
1.00038e+07
144401
9.99257e+06
183898
9.97669e+06
224819
9.95692e+06
266901
9.93412e+06
311109
9.90851e+06
357583
9.88049e+06
406349
9.8499e+06
457505
9.81583e+06
511623
9.77812e+06
568164
9.73719e+06
627181
9.6934e+06
689039
9.6484e+06
753282
9.60265e+06
819657
9.55556e+06
887179
9.50459e+06
956618
9.44731e+06
1.03002e+06
9.38602e+06
1.11311e+06
9.31435e+06
1.21533e+06
9.21279e+06
1.33675e+06
9.0307e+06
1.45915e+06
8.90489e+06
1.6495e+06
8.74586e+06
1.98179e+06
8.54775e+06
2.32192e+06
8.3404e+06
2.56505e+06
8.04689e+06
2.64252e+06
7.3685e+06
2.60248e+06
6.26123e+06
2.42561e+06
5.0097e+06
2.06739e+06
3.88831e+06
1.86876e+06
3.47121e+06
2.37908e+06
4.11532e+06
3.19809e+06
4.11108e+06
3.05523e+06
3.41176e+06
2.30152e+06
2.07012e+06
1.33559e+06
293785
574179
-952242
550619
-1.12313e+06
1.31557e+06
-916048
1.77531e+06
-711632
1.75052e+06
-345657
1.48112e+06
187180
1.23071e+06
828869
1.10251e+06
1.61199e+06
941495
2.62111e+06
750025
3.85485e+06
635832
5.50997e+06
584420
7.56915e+06
325427
9.68414e+06
-27462.2
1.03622e+07
53640.7
-814438
1.00028e+07
1162.78
10370.4
1.00106e+07
1479.89
60028.9
1.0012e+07
1742.61
114294
1.00081e+07
1435.62
157322
9.99922e+06
1161.45
200477
9.98581e+06
1069.68
245250
9.96862e+06
1158.26
291429
9.94837e+06
1429.5
340067
9.92555e+06
1860.17
391376
9.90031e+06
2396.65
445441
9.87234e+06
2976.33
502451
9.84125e+06
3576.27
562954
9.80652e+06
4226.17
626665
9.7681e+06
5009.75
693647
9.72681e+06
6030.58
763805
9.68329e+06
7207.31
836873
9.63919e+06
8845.26
912206
9.59357e+06
10255.3
988451
9.54761e+06
11979.8
1.06547e+06
9.50026e+06
12732.4
1.14456e+06
9.45808e+06
13163.8
1.22701e+06
9.41883e+06
9513.22
1.3361e+06
9.33151e+06
-3975.38
1.52121e+06
9.25269e+06
33.1504
1.59786e+06
9.22395e+06
-24199.8
1.78092e+06
9.11857e+06
-16148.4
2.16426e+06
8.84928e+06
45741.5
2.53818e+06
8.51991e+06
61417
2.81149e+06
8.19055e+06
47245
2.97743e+06
7.7102e+06
18060.2
3.1297e+06
6.8131e+06
-6071.19
3.1903e+06
5.64004e+06
-39112.7
3.05885e+06
4.40668e+06
15685.6
2.72193e+06
3.36268e+06
105919
2.68509e+06
3.19915e+06
319532
3.23635e+06
2.57554e+06
231371
2.79897e+06
1.51034e+06
-79838.3
1.39645e+06
688764
-345319
290666
462860
-443199
-273132
689674
-552051
-510422
1.53298e+06
-620244
-483209
2.59711e+06
-570950
-430043
3.37904e+06
-559431
-540182
3.99878e+06
-526791
-657261
4.4186e+06
-491530
-843926
4.8219e+06
-442001
-1.00477e+06
5.27381e+06
-386124
-1.10476e+06
5.87625e+06
-312732
-1.10491e+06
6.65676e+06
-243742
-1.07528e+06
7.62476e+06
-148027
-1.18417e+06
8.4112e+06
-25139.8
-1.37957e+06
9.09479e+06
108193
-1.47416e+06
9.5055e+06
-231112
-1.07705e+06
762852
-2.0383e+06
1.00045e+07
10320.3
1.00105e+07
60032.7
1.00111e+07
114261
1.00066e+07
157261
9.99726e+06
200450
9.98359e+06
245300
9.96636e+06
291582
9.94624e+06
340335
9.92363e+06
391758
9.8986e+06
445928
9.87083e+06
503031
9.83992e+06
563619
9.80549e+06
627410
9.76754e+06
694482
9.72693e+06
764689
9.68442e+06
837843
9.641e+06
913056
9.59658e+06
989477
9.55081e+06
1.06642e+06
9.50398e+06
1.14506e+06
9.45873e+06
1.22944e+06
9.40899e+06
1.33348e+06
9.34306e+06
1.45989e+06
9.25113e+06
1.61059e+06
9.09243e+06
1.8285e+06
8.90975e+06
2.18036e+06
8.71513e+06
2.57003e+06
8.50211e+06
2.82924e+06
8.20948e+06
2.95705e+06
7.72512e+06
3.061e+06
6.93153e+06
3.14303e+06
5.76308e+06
3.095e+06
4.49009e+06
3.02256e+06
3.74722e+06
3.08357e+06
3.97946e+06
3.16649e+06
4.32385e+06
2.88118e+06
4.28582e+06
2.28721e+06
3.79098e+06
1.60757e+06
3.12649e+06
1.01845e+06
2.72274e+06
692678
2.98481e+06
654108
3.59517e+06
573539
4.12659e+06
365007
4.45127e+06
118457
4.67465e+06
-93110.2
4.95363e+06
-212929
5.34153e+06
-310194
5.85505e+06
-387495
6.54903e+06
-470579
7.5318e+06
-673636
8.67273e+06
-926725
9.74318e+06
-1.09717e+06
1.05466e+07
-729817
-1.81295e+06
1.00028e+07
1147.17
10921.6
1.00109e+07
1488.89
64448.8
1.00135e+07
1761.31
122640
1.00113e+07
1501.39
168876
1.00045e+07
1263.9
215443
9.9937e+06
1201.89
263873
9.97924e+06
1312.11
314221
9.96221e+06
1595.39
367004
9.94306e+06
2028.09
422858
9.92142e+06
2560.32
482390
9.89698e+06
3138.27
545444
9.86964e+06
3747.21
612277
9.83867e+06
4415.32
683347
9.8043e+06
5229.33
758167
9.76633e+06
6219.33
837197
9.72579e+06
7415.53
919183
9.68326e+06
8768.51
1.00347e+06
9.63944e+06
10107.8
1.08734e+06
9.59677e+06
11460
1.16944e+06
9.55614e+06
11922
1.24566e+06
9.52142e+06
14901.1
1.32015e+06
9.56323e+06
-12090.7
1.36057e+06
9.61993e+06
-10902.5
1.51393e+06
9.56879e+06
29222
1.66147e+06
9.4475e+06
24659.8
1.89846e+06
9.27048e+06
23010.3
2.31526e+06
8.99844e+06
18557.9
2.75336e+06
8.7021e+06
11695.5
3.03035e+06
8.38994e+06
12907.1
3.1927e+06
8.0598e+06
15157.2
3.34756e+06
7.61017e+06
8900.73
3.51767e+06
6.90069e+06
-2383.75
3.63263e+06
5.85284e+06
-9020.13
3.62096e+06
4.81881e+06
18342
3.54488e+06
4.3644e+06
115729
3.45059e+06
3.98517e+06
124678
2.98492e+06
3.3243e+06
2614.86
2.07553e+06
2.71171e+06
-117580
1.17309e+06
2.4685e+06
-172766
478241
2.68092e+06
-209263
-47375.6
3.2569e+06
-234682
-395657
3.98565e+06
-247693
-717082
4.6832e+06
-264794
-1.07441e+06
5.36287e+06
-312198
-1.41079e+06
5.93458e+06
-324437
-1.6828e+06
6.42002e+06
-323010
-1.86106e+06
6.89247e+06
-287904
-1.94573e+06
7.48921e+06
-255586
-1.95391e+06
8.18563e+06
-238725
-1.93353e+06
8.82119e+06
-192659
-1.96888e+06
9.47983e+06
-126165
-2.05948e+06
1.00566e+07
-42669.3
-2.08504e+06
1.18051e+07
-172932
-1.99746e+06
-124110
-2.04667e+06
1.00044e+07
10896.6
1.00109e+07
64492.7
1.00127e+07
122645
1.00099e+07
168900
1.00027e+07
215522
9.99162e+06
264030
9.97713e+06
314474
9.96023e+06
367360
9.94127e+06
423318
9.91984e+06
482949
9.8956e+06
546103
9.86846e+06
613029
9.83779e+06
684200
9.80388e+06
759101
9.76662e+06
838174
9.7269e+06
920169
9.68527e+06
1.00418e+06
9.6426e+06
1.08801e+06
9.6e+06
1.1691e+06
9.56119e+06
1.24546e+06
9.53389e+06
1.31776e+06
9.50986e+06
1.38702e+06
9.49683e+06
1.48963e+06
9.505e+06
1.64281e+06
9.42926e+06
1.94481e+06
9.22208e+06
2.38369e+06
8.977e+06
2.78936e+06
8.71994e+06
3.03373e+06
8.43053e+06
3.18438e+06
8.09965e+06
3.32349e+06
7.68549e+06
3.47202e+06
7.07795e+06
3.59346e+06
6.32204e+06
3.65843e+06
5.6528e+06
3.67109e+06
5.29399e+06
3.56354e+06
5.0973e+06
3.16614e+06
4.86784e+06
2.53797e+06
4.58908e+06
1.86386e+06
4.38797e+06
1.23026e+06
4.4258e+06
687857
4.762e+06
280083
5.24673e+06
-96696.3
5.72408e+06
-481963
6.1136e+06
-834786
6.44128e+06
-1.11299e+06
6.74615e+06
-1.27124e+06
7.09176e+06