/*--------------------------------*- C++ -*----------------------------------*\
| =========                 |                                                 |
| \\      /  F ield         | OpenFOAM: The Open Source CFD Toolbox           |
|  \\    /   O peration     | Version:  4.1                                   |
|   \\  /    A nd           | Web:      www.OpenFOAM.org                      |
|    \\/     M anipulation  |                                                 |
\*---------------------------------------------------------------------------*/
FoamFile
{
    version     2.0;
    format      ascii;
    class       surfaceScalarField;
    location    "17";
    object      phi;
}
// * * * * * * * * * * * * * * * * * * * * * * * * * * * * * * * * * * * * * //

dimensions      [0 3 -1 0 0 0 0];

internalField   nonuniform List<scalar> 
11516
(
-3.39701e+10
1.06064e+10
-1.86887e+10
-3.28482e+10
9.80503e+09
-1.01705e+10
-3.44696e+10
5.71543e+09
-3.45228e+09
-2.83631e+10
-1.30302e+09
-4.26912e+09
-2.73925e+10
1.45356e+09
-2.13394e+09
-2.76316e+10
1.75767e+09
-1.43777e+09
-2.70709e+10
-3.65208e+08
-3.03469e+08
-2.78754e+10
-6.8036e+08
1.21124e+09
-2.81831e+10
-2.26977e+08
1.56089e+08
-2.82865e+10
3.30472e+08
-6.51065e+08
-2.87729e+10
3.19158e+08
-2.71793e+08
-2.89558e+10
1.28934e+08
-3.74718e+08
-2.84211e+10
-5.12936e+07
-9.06907e+08
-2.77342e+10
-1.52439e+08
-9.64299e+08
-2.73429e+10
-1.68866e+08
-6.50594e+08
-2.70778e+10
-2.04039e+08
-4.81529e+08
-2.67187e+10
-1.76693e+08
-5.61161e+08
-2.63873e+10
-1.32086e+08
-5.68571e+08
-2.61155e+10
-1.59797e+08
-4.58276e+08
-2.58258e+10
-2.05792e+08
-4.06431e+08
-2.54602e+10
-2.12876e+08
-4.17751e+08
-2.50725e+10
-2.07178e+08
-4.04146e+08
-2.46562e+10
-2.14893e+08
-3.88114e+08
-2.42123e+10
-2.32097e+08
-3.76908e+08
-2.37472e+10
-2.46911e+08
-3.68217e+08
-2.32672e+10
-2.62332e+08
-3.57061e+08
-2.27736e+10
-2.78965e+08
-3.46021e+08
-2.22725e+10
-2.95934e+08
-3.31361e+08
-2.17673e+10
-3.13054e+08
-3.15504e+08
-2.12636e+10
-3.30413e+08
-2.96289e+08
-2.07674e+10
-3.47951e+08
-2.72695e+08
-2.02895e+10
-3.63547e+08
-2.42217e+08
-1.9848e+10
-3.72972e+08
-1.991e+08
-1.94446e+10
-3.78983e+08
-1.5982e+08
-1.90726e+10
-3.87053e+08
-1.25262e+08
-1.8752e+10
-3.9206e+08
-7.30125e+07
-1.85021e+10
-3.86836e+08
-1.0875e+07
-1.83313e+10
-3.76748e+08
5.76274e+07
-1.82427e+10
-3.64891e+08
1.3183e+08
-1.82445e+10
-3.48856e+08
2.15858e+08
-1.83428e+10
-3.27685e+08
3.096e+08
-1.85349e+10
-3.04089e+08
4.0884e+08
-1.88186e+10
-2.81778e+08
5.20168e+08
-1.92222e+10
-2.56802e+08
6.6493e+08
-1.98235e+10
-2.11165e+08
8.63029e+08
-2.07104e+10
-1.57647e+08
1.11159e+09
-2.19331e+10
-1.55184e+08
1.3957e+09
-2.35798e+10
-2.02228e+08
1.7427e+09
-2.58727e+10
-3.25648e+08
2.29482e+09
-2.91054e+10
-4.51714e+08
3.07198e+09
-3.49443e+10
2.27527e+08
4.86598e+09
-4.28347e+10
2.13663e+08
6.85724e+09
-5.55593e+10
-2.65402e+08
1.246e+10
-2.07315e+10
9.79596e+09
-2.97764e+10
1.37184e+10
-3.48391e+10
1.50541e+10
-3.73593e+10
8.33598e+09
-3.77094e+10
-9.76475e+08
-3.30666e+10
-3.30062e+09
-3.08966e+10
-6.00909e+08
-3.10671e+10
-4.49045e+08
-3.22784e+10
2.20431e+08
-3.22034e+10
-6.2344e+08
-3.15466e+10
-6.42311e+08
-3.13944e+10
-1.39367e+08
-3.13264e+10
-2.35482e+08
-3.09412e+10
-7.26858e+08
-3.0609e+10
-7.74489e+08
-3.06044e+10
-4.60849e+08
-3.06085e+10
-4.6534e+08
-3.04041e+10
-6.28564e+08
-3.02298e+10
-5.37543e+08
-3.01771e+10
-4.31379e+08
-3.01226e+10
-4.50128e+08
-3.00159e+10
-4.80131e+08
-2.98814e+10
-4.73324e+08
-2.97295e+10
-4.78807e+08
-2.95718e+10
-4.87824e+08
-2.94078e+10
-4.99854e+08
-2.92427e+10
-5.09449e+08
-2.90782e+10
-5.20452e+08
-2.8919e+10
-5.28354e+08
-2.8767e+10
-5.3622e+08
-2.86256e+10
-5.42072e+08
-2.84976e+10
-5.46109e+08
-2.83841e+10
-5.4759e+08
-2.82879e+10
-5.40595e+08
-2.82094e+10
-5.29871e+08
-2.81529e+10
-5.17132e+08
-2.81177e+10
-5.01455e+08
-2.80948e+10
-4.83921e+08
-2.80837e+10
-4.60104e+08
-2.80855e+10
-4.31881e+08
-2.81021e+10
-3.94024e+08
-2.81343e+10
-3.46798e+08
-2.81779e+10
-2.95815e+08
-2.82336e+10
-2.41306e+08
-2.83096e+10
-1.72806e+08
-2.84117e+10
-8.20587e+07
-2.85798e+10
4.15417e+07
-2.89559e+10
2.28886e+08
-2.97154e+10
5.06825e+08
-3.11688e+10
9.80762e+08
-3.36617e+10
1.75314e+09
-3.64968e+10
2.69097e+09
-4.11275e+10
4.4946e+09
-5.23901e+10
1.0858e+10
1.91529e+09
-4.65737e+10
8.23449e+09
-1.97396e+10
-5.18685e+10
8.58197e+09
-1.43443e+10
-4.99252e+10
4.69708e+09
-1.09659e+10
-4.53202e+10
6.05748e+08
-1.02894e+10
-4.10886e+10
-3.69219e+08
-6.78018e+09
-4.02534e+10
5.71911e+08
-3.57582e+09
-3.98378e+10
-2.65658e+08
-1.10422e+09
-3.90523e+10
-3.88153e+08
2.10814e+08
-3.83997e+10
-7.52348e+07
-9.59755e+08
-3.81477e+10
2.27134e+08
-1.59455e+09
-3.81672e+10
3.49789e+08
-1.01581e+09
-3.81991e+10
3.73681e+08
-1.09337e+09
-3.82734e+10
3.02882e+08
-1.50394e+09
-3.85207e+10
3.03946e+08
-1.37293e+09
-3.87489e+10
2.9504e+08
-1.08084e+09
-3.88489e+10
2.85548e+08
-9.97042e+08
-3.90473e+10
3.22557e+08
-1.00021e+09
-3.93484e+10
3.47781e+08
-8.98179e+08
-3.96215e+10
3.4581e+08
-8.0196e+08
-3.9852e+10
3.51795e+08
-7.60549e+08
-4.0102e+10
3.54059e+08
-7.18425e+08
-4.03664e+10
3.70497e+08
-6.68726e+08
-4.06379e+10
3.84165e+08
-6.30933e+08
-4.09151e+10
3.88711e+08
-5.99992e+08
-4.12066e+10
3.92439e+08
-5.6838e+08
-4.15094e+10
3.94591e+08
-5.38805e+08
-4.18247e+10
3.94622e+08
-5.08553e+08
-4.21468e+10
3.9258e+08
-4.79337e+08
-4.24748e+10
3.88134e+08
-4.49648e+08
-4.28008e+10
3.81595e+08
-4.23379e+08
-4.31203e+10
3.7265e+08
-3.96519e+08
-4.34289e+10
3.6034e+08
-3.63467e+08
-4.37183e+10
3.46287e+08
-3.263e+08
-4.39682e+10
3.37161e+08
-3.17185e+08
-4.41597e+10
3.30849e+08
-3.35309e+08
-4.43065e+10
3.17838e+08
-3.14791e+08
-4.44033e+10
3.06322e+08
-2.90746e+08
-4.4439e+10
3.01798e+08
-2.76073e+08
-4.44158e+10
2.99318e+08
-2.54222e+08
-4.43282e+10
2.99415e+08
-2.27083e+08
-4.41667e+10
3.04934e+08
-2.02274e+08
-4.39264e+10
3.15675e+08
-1.76389e+08
-4.35879e+10
3.27829e+08
-1.55058e+08
-4.31108e+10
3.41591e+08
-1.37337e+08
-4.24583e+10
3.66526e+08
-1.1398e+08
-4.16236e+10
4.07087e+08
-6.85303e+07
-4.05825e+10
4.42962e+08
-2.15366e+07
-3.92353e+10
4.63076e+08
-2.04038e+07
-3.73269e+10
4.55789e+08
-6.29219e+07
-3.48021e+10
5.02239e+08
-6.37808e+06
-3.0551e+10
5.26112e+08
-3.25874e+07
-2.47057e+10
5.46802e+08
3.51049e+08
-1.82421e+10
5.28028e+08
5.36752e+09
8.78787e+08
3.91598e+09
-5.50677e+10
2.45062e+10
-5.3827e+10
2.18732e+10
-5.27906e+10
1.14658e+10
-5.1667e+10
-2.04523e+09
-4.71995e+10
-8.65582e+09
-4.32747e+10
-4.40325e+09
-4.14291e+10
-2.96149e+09
-4.06806e+10
-1.28804e+09
-4.06812e+10
-1.03439e+09
-4.05684e+10
-8.21263e+08
-4.05569e+10
-6.40221e+07
-4.04547e+10
-2.08625e+08
-4.03245e+10
-7.85862e+08
-4.02684e+10
-7.56697e+08
-4.01423e+10
-5.13803e+08
-4.00679e+10
-4.65473e+08
-4.01085e+10
-4.60244e+08
-4.0092e+10
-3.89541e+08
-4.00029e+10
-3.42084e+08
-3.99213e+10
-3.26974e+08
-3.98533e+10
-3.16934e+08
-3.97519e+10
-3.04514e+08
-3.96294e+10
-3.00618e+08
-3.94968e+10
-3.03701e+08
-3.93616e+10
-3.06852e+08
-3.92237e+10
-3.11451e+08
-3.9089e+10
-3.14765e+08
-3.89572e+10
-3.1854e+08
-3.88325e+10
-3.21461e+08
-3.87144e+10
-3.26009e+08
-3.86041e+10
-3.30388e+08
-3.85029e+10
-3.3509e+08
-3.84096e+10
-3.34291e+08
-3.83215e+10
-3.28241e+08
-3.82327e+10
-3.22978e+08
-3.81418e+10
-3.22809e+08
-3.80476e+10
-3.19358e+08
-3.79517e+10
-2.99962e+08
-3.78493e+10
-2.77204e+08
-3.77266e+10
-2.53683e+08
-3.75679e+10
-2.27573e+08
-3.73634e+10
-1.98403e+08
-3.70992e+10
-1.73599e+08
-3.67568e+10
-1.48172e+08
-3.63129e+10
-1.12137e+08
-3.57417e+10
-5.86044e+07
-3.50187e+10
1.59269e+07
-3.41112e+10
1.14201e+08
-3.30113e+10
3.55668e+08
-3.1637e+10
8.45995e+08
-3.02083e+10
1.70505e+09
-2.77681e+10
2.57024e+09
-2.04392e+10
4.05671e+09
7.45001e+08
-3.96475e+10
6.07368e+08
-1.50685e+10
-4.108e+10
1.64012e+09
-1.57491e+10
-3.89831e+10
6.17786e+08
-1.47551e+10
-3.89345e+10
6.77994e+08
-1.1996e+10
-3.78968e+10
9.44439e+08
-9.63751e+09
-3.74293e+10
1.25224e+09
-6.02941e+09
-3.61714e+10
3.23485e+08
-3.2966e+09
-3.46015e+10
-4.96983e+08
-1.39816e+09
-3.40473e+10
-5.01719e+08
-1.48608e+09
-3.39653e+10
-1.61795e+08
-1.91724e+09
-3.33319e+10
-2.0641e+07
-1.9795e+09
-3.26877e+10
-3.72245e+07
-2.02071e+09
-3.26073e+10
3.18789e+07
-1.92411e+09
-3.25914e+10
8.49352e+07
-1.78284e+09
-3.23099e+10
3.14219e+07
-1.71356e+09
-3.20893e+10
4.02907e+07
-1.55856e+09
-3.2085e+10
1.0108e+08
-1.40404e+09
-3.20405e+10
1.02821e+08
-1.31495e+09
-3.19338e+10
1.00801e+08
-1.27204e+09
-3.18149e+10
1.18507e+08
-1.22079e+09
-3.17029e+10
1.29676e+08
-1.15458e+09
-3.15775e+10
1.47251e+08
-1.08937e+09
-3.14525e+10
1.62007e+08
-1.03898e+09
-3.13295e+10
1.7407e+08
-9.94104e+08
-3.12165e+10
1.84694e+08
-9.49398e+08
-3.11202e+10
1.94553e+08
-9.01612e+08
-3.10445e+10
2.03225e+08
-8.50013e+08
-3.0993e+10
2.1121e+08
-7.96468e+08
-3.09663e+10
2.18813e+08
-7.43349e+08
-3.09665e+10
2.24749e+08
-6.91078e+08
-3.09913e+10
2.26318e+08
-6.37734e+08
-3.10366e+10
2.27545e+08
-5.83418e+08
-3.10907e+10
2.32557e+08
-5.41136e+08
-3.11607e+10
2.28169e+08
-5.10744e+08
-3.12624e+10
2.05408e+08
-4.739e+08
-3.13733e+10
1.82965e+08
-4.20002e+08
-3.14782e+10
1.71743e+08
-3.88632e+08
-3.15525e+10
1.51975e+08
-3.80735e+08
-3.15705e+10
1.20954e+08
-3.78431e+08
-3.15071e+10
8.46661e+07
-3.87162e+08
-3.1332e+10
4.20838e+07
-4.18e+08
-3.10023e+10
-1.28549e+07
-4.7091e+08
-3.04792e+10
-8.15137e+07
-5.45918e+08
-2.97107e+10
-1.65709e+08
-6.50792e+08
-2.86538e+10
-2.64369e+08
-7.71512e+08
-2.72892e+10
-3.82633e+08
-8.68546e+08
-2.56211e+10
-5.33368e+08
-9.37927e+08
-2.37531e+10
-6.87244e+08
-9.64358e+08
-2.20183e+10
-7.72886e+08
-7.93523e+08
-2.08048e+10
-6.97194e+08
-3.28216e+08
-2.06205e+10
-4.43011e+08
4.10193e+08
-2.10235e+10
-8.755e+08
1.80991e+09
-1.73536e+10
-4.95055e+09
6.86161e+09
-2.49354e+09
3.70736e+09
-5.73884e+10
2.43873e+10
-5.27209e+10
1.8244e+10
-4.91047e+10
7.85383e+09
-4.53891e+10
-5.68746e+09
-4.20521e+10
-1.16116e+10
-3.93033e+10
-6.35867e+09
-3.73157e+10
-5.00691e+09
-3.63236e+10
-3.11324e+09
-3.68952e+10
-1.26554e+09
-3.71754e+10
-9.6405e+08
-3.69141e+10
-5.7882e+08
-3.64852e+10
-8.87591e+08
-3.62091e+10
-1.23265e+09
-3.59731e+10
-1.11069e+09
-3.56444e+10
-1.01071e+09
-3.53686e+10
-8.96942e+08
-3.51417e+10
-7.68589e+08
-3.48753e+10
-7.28319e+08
-3.45552e+10
-7.191e+08
-3.4204e+10
-6.99866e+08
-3.38349e+10
-6.69157e+08
-3.34347e+10
-6.47467e+08
-3.30092e+10
-6.33323e+08
-3.25683e+10
-6.26231e+08
-3.21176e+10
-6.18192e+08
-3.16645e+10
-6.07406e+08
-3.12131e+10
-5.93318e+08
-3.07682e+10
-5.76682e+08
-3.03345e+10
-5.55723e+08
-2.99191e+10
-5.32044e+08
-2.95224e+10
-5.13016e+08
-2.91446e+10
-4.95204e+08
-2.87864e+10
-4.68175e+08
-2.84525e+10
-4.4082e+08
-2.81464e+10
-4.2858e+08
-2.78736e+10
-4.15366e+08
-2.76333e+10
-3.87578e+08
-2.74213e+10
-3.55571e+08
-2.72302e+10
-3.36994e+08
-2.70516e+10
-3.29121e+08
-2.68802e+10
-3.25622e+08
-2.671e+10
-3.32071e+08
-2.65362e+10
-3.53738e+08
-2.63497e+10
-3.91459e+08
-2.61481e+10
-4.29407e+08
-2.59557e+10
-4.44339e+08
-2.5842e+10
-4.08382e+08
-2.59139e+10
-2.56678e+08
-2.62559e+10
1.71133e+08
-2.68178e+10
9.3222e+08
-2.76509e+10
2.35654e+09
-3.03534e+10
4.67397e+09
-4.09504e+10
9.99369e+09
3.61076e+09
-3.6273e+10
-1.37303e+09
-1.09969e+10
-3.74622e+10
-9.68952e+08
-1.45748e+10
-3.61779e+10
-1.02977e+09
-1.5924e+10
-3.53441e+10
-3.66158e+08
-1.3262e+10
-3.58257e+10
1.07227e+09
-1.09445e+10
-3.6002e+10
1.41282e+09
-7.8761e+09
-3.50353e+10
6.66368e+08
-5.43138e+09
-3.36562e+10
-4.87211e+08
-2.72848e+09
-3.31928e+10
-6.07561e+08
-1.73815e+09
-3.29665e+10
-2.6881e+08
-2.22214e+09
-3.23251e+10
-2.9837e+08
-2.6241e+09
-3.18625e+10
-3.54896e+08
-2.39923e+09
-3.16929e+10
-2.02028e+08
-2.14712e+09
-3.15156e+10
-1.3627e+08
-2.09511e+09
-3.13354e+10
-1.60104e+08
-1.99877e+09
-3.12191e+10
-1.7417e+08
-1.7799e+09
-3.11291e+10
-1.57703e+08
-1.5922e+09
-3.10382e+10
-1.44928e+08
-1.51585e+09
-3.09251e+10
-1.31264e+08
-1.47988e+09
-3.08027e+10
-1.25725e+08
-1.42332e+09
-3.06569e+10
-1.16255e+08
-1.34508e+09
-3.04822e+10
-1.05959e+08
-1.281e+09
-3.02781e+10
-9.70001e+07
-1.23179e+09
-3.0055e+10
-9.07515e+07
-1.18556e+09
-2.98194e+10
-8.62628e+07
-1.13816e+09
-2.95773e+10
-8.25977e+07
-1.08462e+09
-2.93319e+10
-7.86981e+07
-1.02553e+09
-2.90867e+10
-7.5773e+07
-9.61709e+08
-2.88445e+10
-7.43647e+07
-8.94971e+08
-2.86148e+10
-7.01215e+07
-8.2456e+08
-2.84011e+10
-6.52296e+07
-7.51612e+08
-2.81733e+10
-7.05146e+07
-6.99361e+08
-2.7912e+10
-7.8267e+07
-6.76792e+08
-2.76677e+10
-6.04795e+07
-6.41718e+08
-2.74829e+10
-3.4771e+07
-5.64385e+08
-2.72552e+10
-7.82901e+07
-5.03355e+08
-2.69831e+10
-1.10197e+08
-4.77028e+08
-2.67271e+10
-1.00327e+08
-4.55398e+08
-2.64809e+10
-1.05355e+08
-4.28597e+08
-2.62121e+10
-1.34314e+08
-4.19573e+08
-2.59154e+10
-1.66643e+08
-4.28575e+08
-2.5591e+10
-2.0277e+08
-4.49272e+08
-2.52169e+10
-2.53393e+08
-4.87631e+08
-2.47804e+10
-3.14236e+08
-5.4483e+08
-2.42839e+10
-3.7749e+08
-5.97882e+08
-2.37238e+10
-4.48673e+08
-6.10799e+08
-2.31078e+10
-5.25367e+08
-5.80372e+08
-2.2482e+10
-5.75378e+08
-4.93794e+08
-2.18391e+10
-5.78404e+08
-2.84934e+08
-2.11709e+10
-4.71774e+08
6.64608e+07
-2.06512e+10
-2.52789e+08
7.31944e+08
-1.9497e+10
-9.60454e+08
2.20691e+09
-1.32732e+10
-5.69113e+09
6.76779e+09
-2.38381e+09
2.94222e+09
-5.1715e+10
2.15543e+10
-4.85055e+10
1.35279e+10
-4.45473e+10
2.3696e+09
-4.04258e+10
-1.07013e+10
-3.80617e+10
-1.33706e+10
-3.6182e+10
-7.20142e+09
-3.41419e+10
-6.6849e+09
-3.31007e+10
-4.9001e+09
-3.32278e+10
-1.98554e+09
-3.34196e+10
-1.25856e+09
-3.33414e+10
-1.15319e+09
-3.31333e+10
-1.63059e+09
-3.29138e+10
-1.82758e+09
-3.26669e+10
-1.6676e+09
-3.24532e+10
-1.56388e+09
-3.2316e+10
-1.383e+09
-3.21944e+10
-1.21899e+09
-3.20559e+10
-1.17294e+09
-3.18893e+10
-1.16683e+09
-3.17034e+10
-1.14076e+09
-3.14993e+10
-1.09451e+09
-3.12703e+10
-1.0614e+09
-3.10174e+10
-1.03979e+09
-3.07503e+10
-1.02374e+09
-3.04751e+10
-1.00617e+09
-3.01975e+10
-9.83215e+08
-2.9922e+10
-9.53461e+08
-2.96553e+10
-9.16035e+08
-2.94006e+10
-8.73619e+08
-2.91501e+10
-8.34595e+08
-2.89035e+10
-8.01003e+08
-2.86757e+10
-7.64764e+08
-2.84699e+10
-7.19139e+08
-2.82564e+10
-6.76973e+08
-2.80353e+10
-6.41824e+08
-2.78821e+10
-5.98994e+08
-2.77759e+10
-5.50602e+08
-2.7655e+10
-5.17211e+08
-2.75321e+10
-4.98398e+08
-2.74301e+10
-4.88801e+08
-2.73447e+10
-4.87557e+08
-2.72774e+10
-4.92125e+08
-2.72363e+10
-5.10128e+08
-2.72163e+10
-5.49551e+08
-2.721e+10
-5.87892e+08
-2.72366e+10
-5.84815e+08
-2.73004e+10
-5.309e+08
-2.73293e+10
-4.12871e+08
-2.71726e+10
-1.39182e+08
-2.66215e+10
3.63422e+08
-2.54895e+10
1.4372e+09
-2.49667e+10
3.68216e+09
-2.88598e+10
8.57109e+09
3.13549e+09
-3.28541e+10
-3.25587e+08
-9.29216e+09
-3.40926e+10
-7.896e+08
-1.31318e+10
-3.37001e+10
-1.47148e+09
-1.53008e+10
-3.25148e+10
-4.87291e+08
-1.44258e+10
-3.31552e+10
7.11817e+08
-1.14137e+10
-3.41419e+10
1.2809e+09
-8.50188e+09
-3.44897e+10
7.50249e+08
-6.11531e+09
-3.37929e+10
-3.01225e+08
-3.3776e+09
-3.30475e+10
-4.41251e+08
-2.28926e+09
-3.25434e+10
-2.25652e+08
-2.73585e+09
-3.21855e+10
-2.79206e+08
-2.92168e+09
-3.19657e+10
-2.36014e+08
-2.58506e+09
-3.18151e+10
-1.1279e+08
-2.38182e+09
-3.17209e+10
-1.11343e+08
-2.28032e+09
-3.17124e+10
-1.15334e+08
-2.10445e+09
-3.16881e+10
-1.08821e+08
-1.92193e+09
-3.16452e+10
-9.31098e+07
-1.75985e+09
-3.16347e+10
-8.47952e+07
-1.66823e+09
-3.16329e+10
-7.22604e+07
-1.61554e+09
-3.16327e+10
-6.37587e+07
-1.5572e+09
-3.16054e+10
-5.16817e+07
-1.47867e+09
-3.15505e+10
-4.19438e+07
-1.42468e+09
-3.14608e+10
-3.14433e+07
-1.38057e+09
-3.13491e+10
-2.48144e+07
-1.33981e+09
-3.12205e+10
-1.89197e+07
-1.29299e+09
-3.10777e+10
-1.63032e+07
-1.24018e+09
-3.09217e+10
-1.6752e+07
-1.17865e+09
-3.07581e+10
-1.62409e+07
-1.10908e+09
-3.05949e+10
-1.28085e+07
-1.03245e+09
-3.04299e+10
-1.44037e+07
-9.51322e+08
-3.02466e+10
-2.40867e+07
-8.77375e+08
-3.00362e+10
-3.1107e+07
-8.37015e+08
-2.98213e+10
-2.86028e+07
-8.13847e+08
-2.96406e+10
-3.04862e+07
-7.35368e+08
-2.94759e+10
-5.07645e+07
-6.13856e+08
-2.92598e+10
-8.1279e+07
-5.65794e+08
-2.90061e+10
-9.9636e+07
-5.50319e+08
-2.87548e+10
-1.07171e+08
-5.10033e+08
-2.84951e+10
-1.21228e+08
-4.66946e+08
-2.82088e+10
-1.44276e+08
-4.48513e+08
-2.78888e+10
-1.71992e+08
-4.45442e+08
-2.75349e+10
-2.01712e+08
-4.44928e+08
-2.71407e+10
-2.35504e+08
-4.53442e+08
-2.66875e+10
-2.78414e+08
-4.76634e+08
-2.61437e+10
-3.27542e+08
-5.05392e+08
-2.54854e+10
-3.72525e+08
-5.11201e+08
-2.47041e+10
-4.09259e+08
-4.90225e+08
-2.37943e+10
-4.29451e+08
-4.45255e+08
-2.2746e+10
-4.14817e+08
-3.38499e+08
-2.15776e+10
-3.22166e+08
-1.65249e+08
-2.04681e+10
-8.03771e+07
3.35165e+08
-1.79816e+10
-8.01236e+08
1.15733e+09
-7.25398e+09
-6.3133e+09
2.8471e+09
-2.48936e+09
-2.72309e+08
-4.4739e+10
2.02464e+10
-4.28926e+10
1.06717e+10
-3.9425e+10
-2.82105e+09
-3.65794e+10
-1.42706e+10
-3.59496e+10
-1.34911e+10
-3.3992e+10
-8.04594e+09
-3.2027e+10
-8.04402e+09
-3.1479e+10
-5.89006e+09
-3.14586e+10
-2.59549e+09
-3.15617e+10
-1.53475e+09
-3.13649e+10
-1.7792e+09
-3.10007e+10
-2.37265e+09
-3.07272e+10
-2.35266e+09
-3.05747e+10
-2.07575e+09
-3.05061e+10
-1.90023e+09
-3.04386e+10
-1.71435e+09
-3.03587e+10
-1.55121e+09
-3.02991e+10
-1.47155e+09
-3.02498e+10
-1.43832e+09
-3.01954e+10
-1.39151e+09
-3.01242e+10
-1.33172e+09
-3.00247e+10
-1.29072e+09
-2.98971e+10
-1.26581e+09
-2.97474e+10
-1.24574e+09
-2.95845e+10
-1.22136e+09
-2.94164e+10
-1.18827e+09
-2.92522e+10
-1.14388e+09
-2.90921e+10
-1.09138e+09
-2.89255e+10
-1.04256e+09
-2.8748e+10
-1.00771e+09
-2.85757e+10
-9.71295e+08
-2.84234e+10
-9.15267e+08
-2.82791e+10
-8.52867e+08
-2.81358e+10
-8.05071e+08
-2.80083e+10
-7.67802e+08
-2.79043e+10
-7.25037e+08
-2.78024e+10
-6.856e+08
-2.769e+10
-6.61892e+08
-2.75818e+10
-6.43274e+08
-2.74807e+10
-6.3703e+08
-2.73794e+10
-6.46899e+08
-2.72718e+10
-6.63871e+08
-2.7159e+10
-6.88082e+08
-2.70423e+10
-7.29444e+08
-2.69037e+10
-7.81968e+08
-2.671e+10
-8.14749e+08
-2.64305e+10
-8.18861e+08
-2.60192e+10
-7.95911e+08
-2.53563e+10
-7.03057e+08
-2.42252e+10
-5.4689e+08
-2.2215e+10
-6.01211e+07
-1.97469e+10
1.07724e+09
-2.10061e+10
3.96436e+09
1.46909e+09
-3.05599e+10
5.70304e+06
-8.58075e+09
-3.09898e+10
-7.53373e+08
-1.18907e+10
-3.034e+10
-1.77631e+09
-1.41909e+10
-3.05197e+10
-5.9169e+08
-1.36374e+10
-3.16204e+10
6.24809e+08
-1.0946e+10
-3.28807e+10
1.38849e+09
-8.66457e+09
-3.3543e+10
9.02908e+08
-6.41987e+09
-3.30837e+10
-5.96424e+07
-3.8787e+09
-3.23912e+10
-2.7827e+08
-2.84328e+09
-3.2014e+10
-1.4968e+08
-3.12856e+09
-3.1857e+10
-8.20187e+07
-3.16707e+09
-3.16207e+10
-7.01801e+07
-2.91713e+09
-3.14357e+10
-5.26025e+07
-2.67842e+09
-3.13726e+10
-3.36887e+07
-2.47655e+09
-3.13504e+10
-2.01225e+07
-2.29669e+09
-3.13113e+10
-1.99161e+07
-2.13364e+09
-3.12989e+10
-1.44435e+07
-1.97334e+09
-3.13111e+10
-4.41224e+06
-1.86013e+09
-3.13611e+10
1.04885e+06
-1.78422e+09
-3.14228e+10
9.47895e+06
-1.70259e+09
-3.14804e+10
1.77e+07
-1.62137e+09
-3.15172e+10
2.94074e+07
-1.56352e+09
-3.15361e+10
3.9052e+07
-1.51727e+09
-3.15367e+10
4.66963e+07
-1.47264e+09
-3.15268e+10
5.19342e+07
-1.41841e+09
-3.15184e+10
5.77673e+07
-1.35079e+09
-3.15227e+10
6.43974e+07
-1.26613e+09
-3.15412e+10
6.75858e+07
-1.16988e+09
-3.1568e+10
6.52545e+07
-1.06834e+09
-3.15962e+10
5.9675e+07
-9.6721e+08
-3.16195e+10
5.64919e+07
-8.83461e+08
-3.1659e+10
6.37951e+07
-8.23234e+08
-3.1752e+10
7.87735e+07
-7.51559e+08
-3.18718e+10
8.51358e+07
-6.42324e+08
-3.19531e+10
7.35992e+07
-5.37694e+08
-3.20082e+10
5.66149e+07
-4.88104e+08
-3.20651e+10
5.07196e+07
-4.53896e+08
-3.21147e+10
5.04178e+07
-4.07678e+08
-3.21387e+10
4.53657e+07
-3.70664e+08
-3.21329e+10
3.57603e+07
-3.53815e+08
-3.20905e+10
2.48721e+07
-3.53116e+08
-3.19979e+10
1.64405e+07
-3.62565e+08
-3.18394e+10
8.36245e+06
-3.86307e+08
-3.15992e+10
-3.81362e+06
-4.22026e+08
-3.12585e+10
-1.57825e+07
-4.67937e+08
-3.07806e+10
-2.58311e+07
-5.21604e+08
-3.01309e+10
-3.69673e+07
-5.8451e+08
-2.92688e+10
-4.30955e+07
-6.7979e+08
-2.8168e+10
-2.36024e+07
-7.76836e+08
-2.68145e+10
3.34823e+07
-8.64313e+08
-2.5282e+10
2.0746e+08
-6.58126e+08
-2.21416e+10
-3.10103e+08
-9.30634e+08
-1.11576e+10
-5.07287e+09
-2.42899e+09
-1.35898e+09
-4.89643e+09
-3.84541e+10
1.92557e+10
-3.67829e+10
8.24213e+09
-3.4349e+10
-7.01626e+09
-3.45005e+10
-1.4716e+10
-3.52006e+10
-1.21728e+10
-3.28536e+10
-9.02627e+09
-3.11772e+10
-8.86141e+09
-3.13913e+10
-5.8032e+09
-3.18975e+10
-2.46162e+09
-3.18537e+10
-1.83792e+09
-3.12114e+10
-2.6167e+09
-3.07681e+10
-2.99654e+09
-3.06379e+10
-2.64572e+09
-3.05383e+10
-2.3267e+09
-3.04397e+10
-2.14454e+09
-3.03485e+10
-1.96288e+09
-3.02631e+10
-1.79285e+09
-3.02008e+10
-1.68568e+09
-3.01636e+10
-1.61854e+09
-3.01363e+10
-1.54672e+09
-3.00932e+10
-1.47793e+09
-3.00212e+10
-1.43442e+09
-2.99208e+10
-1.4067e+09
-2.98015e+10
-1.37883e+09
-2.96761e+10
-1.33922e+09
-2.95526e+10
-1.28485e+09
-2.9433e+10
-1.21766e+09
-2.93148e+10
-1.14964e+09
-2.91941e+10
-1.09566e+09
-2.9086e+10
-1.04475e+09
-2.90159e+10
-9.65349e+08
-2.89783e+10
-8.61689e+08
-2.89423e+10
-7.75347e+08
-2.89006e+10
-7.19457e+08
-2.88701e+10
-6.75037e+08
-2.88457e+10
-6.35266e+08
-2.88128e+10
-6.0163e+08
-2.87705e+10
-5.77952e+08
-2.87156e+10
-5.65342e+08
-2.86471e+10
-5.67842e+08
-2.85603e+10
-5.87729e+08
-2.84369e+10
-6.24021e+08
-2.82661e+10
-6.6853e+08
-2.80393e+10
-7.31023e+08
-2.77411e+10
-8.09569e+08
-2.73296e+10
-9.03721e+08
-2.67582e+10
-1.021e+09
-2.59559e+10
-1.18307e+09
-2.48027e+10
-1.38531e+09
-2.30991e+10
-1.66804e+09
-2.03819e+10
-1.9661e+09
-1.66673e+10
-2.37825e+09
-1.52501e+10
-2.12598e+09
-5.02715e+08
-2.90552e+10
-5.72908e+08
-8.28103e+09
-2.88111e+10
-1.4118e+09
-1.05285e+10
-2.80783e+10
-2.30568e+09
-1.24075e+10
-2.90951e+10
-9.11353e+08
-1.157e+10
-3.06111e+10
3.87223e+08
-9.69506e+09
-3.223e+10
1.06933e+09
-8.03388e+09
-3.31496e+10
5.67168e+08
-6.04566e+09
-3.28952e+10
-7.4979e+07
-4.08865e+09
-3.22013e+10
-1.65453e+08
-3.44724e+09
-3.17424e+10
-6.80687e+07
-3.62431e+09
-3.15203e+10
1.31017e+07
-3.52194e+09
-3.13416e+10
3.11821e+06
-3.22189e+09
-3.12029e+10
-6.83409e+06
-2.9338e+09
-3.10911e+10
7.20007e+06
-2.72751e+09
-3.09793e+10
1.58414e+07
-2.57158e+09
-3.08863e+10
1.4285e+07
-2.4061e+09
-3.08221e+10
1.61878e+07
-2.24174e+09
-3.07793e+10
2.16714e+07
-2.11584e+09
-3.0767e+10
2.29591e+07
-2.02907e+09
-3.07537e+10
2.92145e+07
-1.94361e+09
-3.07241e+10
3.54159e+07
-1.88247e+09
-3.06521e+10
4.59526e+07
-1.84646e+09
-3.05334e+10
5.30363e+07
-1.83212e+09
-3.03693e+10
6.14449e+07
-1.80825e+09
-3.01879e+10
7.03541e+07
-1.75878e+09
-3.00159e+10
7.98165e+07
-1.67027e+09
-2.98672e+10
8.35421e+07
-1.54985e+09
-2.97437e+10
8.10007e+07
-1.41154e+09
-2.96441e+10
7.62958e+07
-1.26859e+09
-2.95675e+10
7.5089e+07
-1.13204e+09
-2.95316e+10
7.95954e+07
-1.00222e+09
-2.95582e+10
8.2016e+07
-8.73032e+08
-2.9638e+10
7.30641e+07
-7.30991e+08
-2.97259e+10
5.75301e+07
-5.90408e+08
-2.97994e+10
4.32875e+07
-4.78381e+08
-2.98893e+10
2.88601e+07
-3.902e+08
-3.00047e+10
1.15738e+07
-3.04814e+08
-3.01258e+10
-8.39533e+06
-2.23101e+08
-3.02435e+10
-3.16913e+07
-1.54093e+08
-3.03536e+10
-5.96454e+07
-1.00992e+08
-3.04481e+10
-9.23847e+07
-6.1723e+07
-3.05083e+10
-1.27154e+08
-4.03431e+07
-3.05161e+10
-1.58498e+08
-4.26686e+07
-3.04526e+10
-1.87528e+08
-6.30491e+07
-3.02981e+10
-2.19978e+08
-9.70227e+07
-3.00199e+10
-2.57635e+08
-1.6389e+08
-2.95859e+10
-3.07099e+08
-2.73778e+08
-2.89566e+10
-3.70466e+08
-4.67741e+08
-2.80099e+10
-4.58799e+08
-7.85077e+08
-2.65633e+10
-6.04988e+08
-1.22988e+09
-2.3686e+10
-9.14128e+08
-2.1761e+09
-1.85881e+10
-1.20146e+09
-4.30718e+09
-1.17727e+10
-2.49614e+09
-6.43161e+09
4.07005e+08
-7.1657e+09
-3.24681e+10
1.74976e+10
-3.10259e+10
5.53837e+09
-3.06717e+10
-9.53598e+09
-3.28281e+10
-1.32766e+10
-3.31568e+10
-1.1324e+10
-3.11606e+10
-9.86829e+09
-3.12715e+10
-8.14298e+09
-3.26557e+10
-4.49528e+09
-3.2925e+10
-2.39281e+09
-3.21535e+10
-2.7372e+09
-3.1509e+10
-3.32076e+09
-3.13706e+10
-3.2101e+09
-3.13275e+10
-2.77859e+09
-3.11934e+10
-2.54434e+09
-3.10481e+10
-2.3773e+09
-3.09187e+10
-2.19539e+09
-3.07961e+10
-2.0268e+09
-3.06896e+10
-1.90907e+09
-3.06019e+10
-1.82406e+09
-3.05138e+10
-1.74808e+09
-3.03951e+10
-1.69286e+09
-3.02331e+10
-1.66895e+09
-3.00242e+10
-1.66084e+09
-2.97799e+10
-1.64283e+09
-2.9513e+10
-1.60012e+09
-2.92406e+10
-1.52836e+09
-2.89802e+10
-1.43407e+09
-2.8745e+10
-1.33394e+09
-2.85445e+10
-1.24146e+09
-2.83903e+10
-1.13842e+09
-2.82841e+10
-1.00016e+09
-2.82011e+10
-8.65466e+08
-2.81335e+10
-7.6771e+08
-2.80955e+10
-6.93177e+08
-2.80908e+10
-6.25292e+08
-2.81141e+10
-5.67369e+08
-2.81609e+10
-5.22285e+08
-2.82274e+10
-4.92608e+08
-2.83097e+10
-4.79166e+08
-2.84065e+10
-4.83963e+08
-2.85167e+10
-5.07132e+08
-2.86247e+10
-5.57806e+08
-2.87171e+10
-6.17008e+08
-2.8772e+10
-7.03294e+08
-2.87741e+10
-8.17024e+08
-2.87062e+10
-9.71089e+08
-2.85455e+10
-1.19615e+09
-2.82663e+10
-1.528e+09
-2.77934e+10
-2.01103e+09
-2.71694e+10
-2.60967e+09
-2.63155e+10
-3.47079e+09
-2.43299e+10
-5.25783e+09
-1.70709e+10
-1.17331e+10
-7.39817e+09
-2.80091e+10
-1.49281e+09
-7.35972e+09
-2.72415e+10
-2.06577e+09
-8.7767e+09
-2.70676e+10
-1.97048e+09
-1.02446e+10
-2.84651e+10
-5.02916e+08
-9.28227e+09
-3.02621e+10
5.65716e+08
-8.14256e+09
-3.19579e+10
7.24514e+08
-6.83454e+09
-3.28059e+10
1.82208e+08
-5.24313e+09
-3.25421e+10
-1.63416e+08
-4.13049e+09
-3.19957e+10
-6.27032e+07
-3.93425e+09
-3.17265e+10
-5.25596e+07
-3.89073e+09
-3.16093e+10
-7.68992e+07
-3.64006e+09
-3.15601e+10
-3.53497e+07
-3.32771e+09
-3.15125e+10
-1.15904e+07
-3.06965e+09
-3.14686e+10
-5.00355e+06
-2.87784e+09
-3.14513e+10
1.47376e+06
-2.7168e+09
-3.14668e+10
2.30556e+06
-2.54975e+09
-3.14936e+10
7.99867e+06
-2.3903e+09
-3.15392e+10
1.09503e+07
-2.27808e+09
-3.15851e+10
1.66402e+07
-2.19931e+09
-3.16207e+10
2.07561e+07
-2.14506e+09
-3.16063e+10
2.89163e+07
-2.13111e+09
-3.1519e+10
3.60149e+07
-2.16606e+09
-3.13402e+10
4.69588e+07
-2.22623e+09
-3.10899e+10
6.07976e+07
-2.26275e+09
-3.08018e+10
7.65792e+07
-2.24075e+09
-3.05041e+10
8.89161e+07
-2.15429e+09
-3.02154e+10
9.72726e+07
-2.01809e+09
-2.99496e+10
1.05197e+08
-1.85341e+09
-2.97068e+10
1.13393e+08
-1.68652e+09
-2.94849e+10
1.23328e+08
-1.53189e+09
-2.93013e+10
1.40751e+08
-1.3757e+09
-2.91723e+10
1.59703e+08
-1.20712e+09
-2.90725e+10
1.67306e+08
-1.04064e+09
-2.8976e+10
1.70048e+08
-8.97933e+08
-2.88909e+10
1.76792e+08
-7.80077e+08
-2.88386e+10
1.84956e+08
-6.664e+08
-2.88207e+10
1.90564e+08
-5.50722e+08
-2.88337e+10
1.94421e+08
-4.39507e+08
-2.88762e+10
1.96784e+08
-3.38461e+08
-2.89518e+10
1.9667e+08
-2.4393e+08
-2.90607e+10
1.94677e+08
-1.54804e+08
-2.9202e+10
1.89748e+08
-7.28336e+07
-2.93699e+10
1.79648e+08
-1.71432e+06
-2.9552e+10
1.67043e+08
5.65385e+07
-2.97361e+10
1.4992e+08
1.03065e+08
-2.9915e+10
1.24757e+08
1.12089e+08
-3.00951e+10
8.33746e+07
7.0366e+07
-3.02375e+10
1.5423e+07
-1.12913e+08
-3.01945e+10
-9.12726e+07
-5.67472e+08
-2.9517e+10
-2.38147e+08
-1.56503e+09
-2.74176e+10
-3.02041e+08
-3.84674e+09
-2.45592e+10
2.00469e+08
-7.27788e+09
-2.02647e+10
5.92473e+08
-1.11787e+10
-4.62107e+08
-3.86521e+09
-2.79539e+10
1.46449e+10
-2.74687e+10
3.17537e+09
-2.91695e+10
-9.56311e+09
-3.11428e+10
-1.15549e+10
-3.06905e+10
-1.10294e+10
-3.02782e+10
-9.43794e+09
-3.21552e+10
-6.0175e+09
-3.3371e+10
-3.41796e+09
-3.27747e+10
-3.0611e+09
-3.2078e+10
-3.52104e+09
-3.20847e+10
-3.44168e+09
-3.22173e+10
-3.17202e+09
-3.2214e+10
-2.85882e+09
-3.21809e+10
-2.65648e+09
-3.21652e+10
-2.47947e+09
-3.21645e+10
-2.295e+09
-3.21677e+10
-2.13245e+09
-3.21778e+10
-2.01418e+09
-3.21953e+10
-1.92652e+09
-3.22002e+10
-1.8619e+09
-3.21666e+10
-1.8349e+09
-3.20726e+10
-1.85361e+09
-3.19049e+10
-1.89278e+09
-3.1668e+10
-1.91164e+09
-3.13853e+10
-1.8816e+09
-3.10908e+10
-1.79586e+09
-3.08143e+10
-1.66525e+09
-3.0569e+10
-1.51843e+09
-3.03641e+10
-1.37171e+09
-3.02074e+10
-1.20592e+09
-3.00778e+10
-1.01978e+09
-2.99531e+10
-8.58826e+08
-2.9849e+10
-7.31159e+08
-2.97839e+10
-6.137e+08
-2.97495e+10
-5.07663e+08
-2.97412e+10
-4.14724e+08
-2.97656e+10
-3.30257e+08
-2.98283e+10
-2.5649e+08
-2.99287e+10
-1.996e+08
-3.00712e+10
-1.56117e+08
-3.02577e+10
-1.27083e+08
-3.0492e+10
-1.17769e+08
-3.07834e+10
-1.04278e+08
-3.11424e+10
-1.00657e+08
-3.15841e+10
-1.10267e+08
-3.21344e+10
-1.50585e+08
-3.2832e+10
-2.62086e+08
-3.36909e+10
-5.20236e+08
-3.46467e+10
-1.05868e+09
-3.53125e+10
-2.142e+09
-3.45007e+10
-4.53905e+09
-3.10507e+10
-8.45129e+09
-2.81009e+10
-1.40952e+10
-3.72859e+09
-2.68771e+10
-2.0923e+09
-6.15256e+09
-2.60635e+10
-2.03446e+09
-7.28296e+09
-2.64508e+10
-9.51533e+08
-8.63994e+09
-2.79387e+10
3.52858e+08
-7.91943e+09
-2.99168e+10
9.00723e+08
-6.87729e+09
-3.14523e+10
6.48132e+08
-5.80972e+09
-3.18877e+10
1.45224e+08
-4.8659e+09
-3.15335e+10
-9.62178e+07
-4.34203e+09
-3.12207e+10
-1.30603e+08
-4.10582e+09
-3.11825e+10
-1.45654e+08
-3.80324e+09
-3.12402e+10
-1.16881e+08
-3.50977e+09
-3.13269e+10
-6.03381e+07
-3.23997e+09
-3.14159e+10
-4.47995e+07
-3.00553e+09
-3.15245e+10
-3.56278e+07
-2.81472e+09
-3.16705e+10
-2.78829e+07
-2.64283e+09
-3.18442e+10
-2.25198e+07
-2.47509e+09
-3.2027e+10
-1.65358e+07
-2.33272e+09
-3.22201e+10
-1.30175e+07
-2.23838e+09
-3.24069e+10
-8.41264e+06
-2.17849e+09
-3.2576e+10
-6.84838e+06
-2.16619e+09
-3.269e+10
-1.6969e+06
-2.20791e+09
-3.2727e+10
3.66447e+06
-2.3262e+09
-3.26543e+10
1.69561e+07
-2.48174e+09
-3.24807e+10
3.20736e+07
-2.60916e+09
-3.22405e+10
4.62434e+07
-2.63701e+09
-3.19802e+10
5.71159e+07
-2.56026e+09
-3.17255e+10
6.81537e+07
-2.41474e+09
-3.14838e+10
7.84112e+07
-2.23788e+09
-3.12592e+10
8.7336e+07
-2.05612e+09
-3.10688e+10
9.88371e+07
-1.87412e+09
-3.09171e+10
1.16098e+08
-1.69306e+09
-3.07827e+10
1.33255e+08
-1.52228e+09
-3.06386e+10
1.49802e+08
-1.38125e+09
-3.04821e+10
1.68208e+08
-1.26955e+09
-3.03248e+10
1.8802e+08
-1.17345e+09
-3.01657e+10
2.09985e+08
-1.08533e+09
-3.00003e+10
2.35306e+08
-1.00325e+09
-2.98242e+10
2.63103e+08
-9.32368e+08
-2.96395e+10
2.93094e+08
-8.70872e+08
-2.94443e+10
3.25364e+08
-8.17858e+08
-2.92351e+10
3.59156e+08
-7.70954e+08
-2.90087e+10
3.93808e+08
-7.28151e+08
-2.87585e+10
4.2551e+08
-6.89196e+08
-2.84752e+10
4.55326e+08
-6.58929e+08
-2.81519e+10
4.79826e+08
-6.37261e+08
-2.78147e+10
4.96076e+08
-6.31474e+08
-2.75099e+10
5.01555e+08
-6.55934e+08
-2.73188e+10
4.81354e+08