/*--------------------------------*- C++ -*----------------------------------*\
| =========                 |                                                 |
| \\      /  F ield         | OpenFOAM: The Open Source CFD Toolbox           |
|  \\    /   O peration     | Version:  4.1                                   |
|   \\  /    A nd           | Web:      www.OpenFOAM.org                      |
|    \\/     M anipulation  |                                                 |
\*---------------------------------------------------------------------------*/
FoamFile
{
    version     2.0;
    format      ascii;
    class       surfaceScalarField;
    location    "53";
    object      phi;
}
// * * * * * * * * * * * * * * * * * * * * * * * * * * * * * * * * * * * * * //

dimensions      [0 3 -1 0 0 0 0];

internalField   nonuniform List<scalar> 
11516
(
9.98751e+06
193.432
9668.54
9.96941e+06
341.185
20979
9.94151e+06
468.964
30895.9
9.90443e+06
520.023
40304.2
9.85812e+06
582.483
49658.1
9.8023e+06
641.055
59179.7
9.73652e+06
644.025
69026.1
9.66038e+06
594.278
79273.3
9.57355e+06
537.423
89907.3
9.47577e+06
508.942
101016
9.36737e+06
563.612
112123
9.2497e+06
720.817
122271
9.12517e+06
877.623
130346
8.99918e+06
963.326
133201
8.88288e+06
-252.63
125712
8.78943e+06
-1603.77
104028
8.73744e+06
197.172
60927.1
8.73373e+06
686.237
9715.17
8.73786e+06
964.149
-156.308
8.70596e+06
1877.7
33303.5
8.64175e+06
-925.639
67247
8.54559e+06
-4838.98
102601
8.42463e+06
-7987.38
130430
8.28657e+06
-10539.8
150242
8.13325e+06
-12476.4
167635
7.9847e+06
-13909.8
164696
7.85471e+06
-11398.6
144431
7.75076e+06
-5952.48
113637
7.67336e+06
-4252.51
85750.3
7.62155e+06
-6825.03
63108
7.58202e+06
-11516.9
56421.6
7.52628e+06
-17390.8
78275.4
7.46504e+06
-17770.8
83770.1
7.44376e+06
-4330.3
30773.3
7.50569e+06
11324.9
-61479.2
7.59298e+06
14577.9
-89788.4
7.64365e+06
14551.2
-51040.8
7.67011e+06
5280.08
-15386.7
7.67164e+06
-2085.88
5379.19
7.6778e+06
465.137
-6872.21
7.70866e+06
8934.75
-50591.2
7.71581e+06
17592.1
-59300.9
7.67875e+06
18387.9
-32886.9
7.62057e+06
17998.7
-8834.89
7.55518e+06
4657.76
8566.24
7.51291e+06
-7376.23
-12000.1
7.45387e+06
6035.94
16921.1
7.44892e+06
9823.56
-31015.5
7.45242e+06
27166.1
-67641.2
7.51869e+06
-3738.33
-133376
7.68445e+06
3578.53
-188638
7.9116e+06
-20031.3
-319702
8.29145e+06
53203.5
-335125
105789
-670801
9.98779e+06
9669.46
9.9694e+06
20992.6
9.94138e+06
30905.3
9.9042e+06
40297
9.85786e+06
49646.1
9.80206e+06
59195.5
9.73632e+06
69078.6
9.66017e+06
79373.3
9.57328e+06
90055.1
9.47541e+06
101164
9.36694e+06
112264
9.24925e+06
122322
9.1244e+06
130469
8.99714e+06
133715
8.87521e+06
127653
8.77725e+06
102746
8.72763e+06
55973
8.73131e+06
1360.5
8.74129e+06
-5835.33
8.71172e+06
33399.4
8.6477e+06
64422.1
8.55266e+06
91233.7
8.43191e+06
113716
8.29075e+06
131667
8.13029e+06
149275
7.97275e+06
145414
7.8334e+06
130333
7.71703e+06
113328
7.62665e+06
89637.8
7.57258e+06
51822.6
7.55339e+06
12659
7.54193e+06
-734.546
7.52508e+06
4762.03
7.52062e+06
5607.46
7.56938e+06
-29602.2
7.64309e+06
-45419.6
7.69693e+06
-24579.3
7.72475e+06
-13194.6
7.73623e+06
-10894.2
7.74545e+06
-15585
7.76378e+06
-24643.3
7.76902e+06
-16340.9
7.74797e+06
11526.7
7.69314e+06
30455.8
7.61416e+06
48053.6
7.55388e+06
20668.3
7.50552e+06
29695.2
7.47767e+06
23385.8
7.46463e+06
-31504.6
7.61906e+06
-118658
7.71556e+06
-222093
8.04602e+06
-300854
8.37812e+06
-233920
-543275
1.00066e+07
195.88
5622
1.0015e+07
339.558
15443.1
1.00238e+07
470.825
25211
1.00324e+07
536.247
35030.6
1.00405e+07
618.595
45046.3
1.00479e+07
696.513
55392.3
1.00544e+07
725.379
66166.7
1.00601e+07
706.61
77254.7
1.00643e+07
670.312
89334.7
1.00673e+07
654.291
101704
1.00687e+07
679.401
114684
1.00675e+07
747.78
127789
1.00616e+07
969.882
140917
1.00473e+07
1193.38
152697
1.00101e+07
2975.24
166748
9.9401e+06
3094.27
177898
9.81621e+06
3187.19
190437
9.6201e+06
2140.84
207479
9.40036e+06
-563.682
221766
9.20451e+06
-1113.18
231194
9.03439e+06
295.003
237641
8.88962e+06
1871.79
245844
8.75932e+06
3176.79
257871
8.63349e+06
4352.49
272094
8.51309e+06
4995.81
283611
8.393e+06
5772.5
279990
8.27018e+06
6744.06
262121
8.13269e+06
9018.81
244458
7.98704e+06
14043.2
220027
7.84289e+06
17706.1
192431
7.69911e+06
21630.7
181418
7.57388e+06
25844.6
179966
7.49574e+06
23471.2
140816
7.4764e+06
15296.7
38745.7
7.52307e+06
5898.67
-105624
7.56588e+06
-7131.28
-108080
7.57988e+06
-19809.1
-25647.9
7.57735e+06
-29644.6
26505.7
7.55699e+06
-31880.5
58327.4
7.55525e+06
-21413.8
8298.96
7.56037e+06
-18087.8
-48121.4
7.52176e+06
-28902.6
-11454.6
7.45036e+06
-38325.4
48569.7
7.36612e+06
-42357.8
74431.4
7.28608e+06
-49044.5
88854.3
7.20845e+06
-53396.7
72882.3
7.14929e+06
-55954.7
87203
7.07951e+06
-43504.1
55750.7
7.01943e+06
-53662.3
13784.1
7.03866e+06
-92926.4
-99704.1
6.92586e+06
-29523.3
-65058.2
6.95514e+06
58808.1
-357257
7.74338e+06
155827
-1.18758e+06
26965
-1.53468e+06
1.00069e+07
5619.36
1.0015e+07
15440.5
1.00237e+07
25205.5
1.00322e+07
35018.6
1.00402e+07
45026.9
1.00477e+07
55370.9
1.00543e+07
66152.3
1.00601e+07
77259.4
1.00644e+07
89376.8
1.00675e+07
101782
1.00689e+07
114793
1.00676e+07
127952
1.00621e+07
140941
1.00486e+07
152855
1.00204e+07
164028
9.95749e+06
174750
9.82771e+06
194522
9.62684e+06
206604
9.40137e+06
220088
9.20607e+06
228124
9.03881e+06
232268
8.89447e+06
237662
8.76542e+06
246168
8.64178e+06
259982
8.52552e+06
271046
8.41006e+06
267611
8.29097e+06
257775
8.16583e+06
249698
8.04197e+06
230507
7.92328e+06
192119
7.78803e+06
173112
7.64534e+06
170580
7.54342e+06
132932
7.52675e+06
42765.8
7.57242e+06
-60551.3
7.63226e+06
-96769.5
7.67017e+06
-70402.9
7.67228e+06
-39787
7.65131e+06
-27266.8
7.6546e+06
-47671.4
7.68686e+06
-87523.9
7.68201e+06
-59977.5
7.63083e+06
-5387.71
7.57183e+06
19651.7
7.51326e+06
21984.6
7.45199e+06
-13187.7
7.40935e+06
-10692.6
7.36657e+06
-7290
7.33064e+06
-74687.8
7.26167e+06
-179557
7.17718e+06
-162697
7.4011e+06
-401738
8.00611e+06
-637451
-1.50991e+06
9.99945e+06
193.626
7231.79
9.99631e+06
337.383
21446.7
9.98889e+06
465.865
35615.2
9.97738e+06
531.176
49771.9
9.96178e+06
619.052
64078
9.94205e+06
709.803
78667.9
9.9184e+06
752.291
93444.2
9.89027e+06
741.241
109068
9.85857e+06
701.252
124782
9.82272e+06
661.5
141393
9.78336e+06
646.807
158066
9.74033e+06
684.522
175118
9.69323e+06
775.466
192689
9.64038e+06
1037.05
210628
9.58407e+06
1266
229099
9.51747e+06
2031.98
251554
9.4409e+06
1951.46
273972
9.35735e+06
1940.41
291297
9.2601e+06
1003.73
319029
9.14803e+06
703.357
343111
9.02583e+06
1024.75
359117
8.90265e+06
1631.36
367639
8.78115e+06
2548.12
377154
8.65974e+06
4168.16
389772
8.53626e+06
4942.35
402784
8.40799e+06
6488.31
402813
8.26804e+06
9946.19
393883
8.10389e+06
14537.5
396560
7.9139e+06
18104.4
395030
7.69408e+06
16883.2
398844
7.43844e+06
14919.2
425495
7.18945e+06
21953.8
409907
6.98703e+06
43815.4
302749
6.88117e+06
68796.8
80801.2
6.93858e+06
56303.3
-212686
7.01533e+06
-795.347
-175410
7.01363e+06
-48800.3
32787.4
6.97965e+06
-67687.5
128143
6.92459e+06
-63406.7
170857
6.95144e+06
-21138.7
-891.398
6.99195e+06
-19171.8
-73680.5
6.97596e+06
-41266.3
34859.8
6.9115e+06
-58397.1
146670
6.84919e+06
-58876.6
166777
6.77867e+06
-55415.1
165184
6.67476e+06
-45083.9
158625
6.62676e+06
-49763.1
133498
6.59786e+06
-54302.3
94516.2
6.60134e+06
-75669.6
68738.1
6.63648e+06
-69827.9
-66170.6
6.83988e+06
-33303.5
-229087
6.94597e+06
7436.86
-430939
6.36154e+06
69063.5
-602683
41167.6
-1.19262e+06
9.99972e+06
7229.53
9.9963e+06
21439.3
9.98877e+06
35600.9
9.97717e+06
49750.6
9.96154e+06
64052.6
9.94187e+06
78641.7
9.91832e+06
93421.4
9.89026e+06
109052
9.85858e+06
124778
9.82269e+06
141399
9.78327e+06
158078
9.74022e+06
175126
9.69308e+06
192659
9.64074e+06
210554
9.58229e+06
229043
9.515e+06
250764
9.44195e+06
275572
9.35746e+06
295159
9.26094e+06
318248
9.15067e+06
339422
9.03028e+06
353871
8.909e+06
360760
8.78898e+06
369029
8.66619e+06
387328
8.54166e+06
401074
8.41384e+06
402858
8.27748e+06
405560
8.12649e+06
417403
7.95451e+06
423849
7.74191e+06
425462
7.48665e+06
446311
7.24712e+06
434810
7.08723e+06
340387
7.04719e+06
154641
7.13425e+06
-85678.9
7.20495e+06
-162233
7.23114e+06
-143681
7.22076e+06
-101917
7.17708e+06
-49776
7.17981e+06
-76891.6
7.2097e+06
-142287
7.17702e+06
-81900.6
7.09048e+06
-498.688
7.00332e+06
9794.81
6.92775e+06
-4166
6.84552e+06
-20825.8
6.78086e+06
-39142.6
6.74048e+06
-52291.9
6.67415e+06
-103007
6.69171e+06
-263366
6.89021e+06
-373964
7.02644e+06
-520363
6.75283e+06
-220290
-1.22907e+06
9.9991e+06
190.836
9249.16
9.996e+06
330.843
27358
9.98885e+06
455.378
45673
9.97764e+06
515.871
64106.3
9.96218e+06
598.09
82845.2
9.94241e+06
683.879
101849
9.91752e+06
722.791
121823
9.88788e+06
709.402
142225
9.8531e+06
667.587
163116
9.81321e+06
625.359
184909
9.76782e+06
607.136
207230
9.71651e+06
636.296
230487
9.65917e+06
710.476
254552
9.59574e+06
917.447
279304
9.52562e+06
1132.02
305896
9.45082e+06
2021.49
334514
9.36727e+06
1510.12
365730
9.2748e+06
958.932
387562
9.18469e+06
819.6
409567
9.09373e+06
1089.9
433562
8.99492e+06
1418.45
456935
8.88712e+06
1354.15
474517
8.76597e+06
1238.4
497661
8.63317e+06
1603.23
521599
8.49028e+06
1136.04
545146
8.33386e+06
1351.6
558766
8.15517e+06
4369.09
569450
7.93619e+06
7266
610038
7.65392e+06
6253.97
673676
7.3073e+06
6755.02
741594
6.95087e+06
8788.76
775395
6.64401e+06
13942.1
704527
6.42785e+06
26989.1
492907
6.38117e+06
48025.7
80442.5
6.51739e+06
38753.6
-387717
6.62033e+06
-60717.2
-217524
6.56398e+06
-149744
235517
6.48506e+06
-210407
407400
6.4141e+06
-206614
445541
6.47179e+06
-103217
44382.7
6.50932e+06
-40369.2
-71947.4
6.48086e+06
-62844.7
121702
6.40095e+06
-68508.3
271661
6.3126e+06
-63814.2
264768
6.22314e+06
-57134.1
245038
6.1006e+06
-64557.7
261781
6.00382e+06
-76705.2
227928
5.93928e+06
-52296.6
155712
5.9024e+06
-43757.2
137833
5.93266e+06
-71787.2
-243.098
6.10057e+06
-62037.5
-238276
6.14717e+06
-33761.4
-374743
6.03462e+06
-16586.6
-430104
323141
-519502
9.99937e+06
9249.12
9.99598e+06
27354.3
9.98872e+06
45660.8
9.97743e+06
64092.4
9.96194e+06
82834.4
9.94223e+06
101839
9.91743e+06
121808
9.88787e+06
142201
9.8531e+06
163078
9.81317e+06
184857
9.76771e+06
207164
9.71632e+06
230407
9.65889e+06
254468
9.59559e+06
279188
9.52578e+06
305772
9.45186e+06
334246
9.37024e+06
365878
9.27606e+06
393517
9.18655e+06
409610
9.09621e+06
431386
8.99762e+06
454267
8.88798e+06
472267
8.76413e+06
494590
8.63103e+06
522474
8.48879e+06
544932
8.32965e+06
564037
8.14621e+06
594327
7.92621e+06
646062
7.65103e+06
707169
7.31819e+06
766980
6.98308e+06
791753
6.6958e+06
737335
6.4833e+06
580394
6.4285e+06
258252
6.59122e+06
-208271
6.71117e+06
-343988
6.74938e+06
-336022
6.70122e+06
-269412
6.62275e+06
-182487
6.67273e+06
-233460
6.69911e+06
-210304
6.65123e+06
-105950
6.54368e+06
8287.42
6.44615e+06
977.932
6.35502e+06
-22697.5
6.23878e+06
-36995.3
6.13935e+06
-73929.6
6.08806e+06
-88692.4
6.03094e+06
-86928.8
6.02516e+06
-266464
6.05205e+06
-458021
6.10701e+06
-520309
6.31125e+06
-402974
-740104
9.99913e+06
189.844
11221.8
9.99609e+06
328.321
33178.9
9.9891e+06
451.127
55532.8
9.97814e+06
509.075
78152.7
9.96306e+06
588.1
101189
9.94364e+06
670.848
124619
9.91967e+06
707.511
149158
9.89116e+06
692.848
174093
9.85752e+06
650.712
200096
9.81873e+06
609.174
227041
9.77464e+06
593.646
254799
9.72505e+06
624.239
283861
9.67014e+06
711.816
313798
9.60932e+06
892.04
345449
9.54307e+06
1194.92
378999
9.47228e+06
1721
414657
9.39481e+06
2597.38
453587
9.29878e+06
2365.59
491062
9.19456e+06
622.921
516109
9.09017e+06
1681.5
538328
8.98496e+06
2580.74
560908
8.86977e+06
1897.19
589318
8.73627e+06
605.036
631536
8.58186e+06
-309.215
677258
8.40825e+06
-3089.05
722723
8.20493e+06
-3946.22
767161
7.96779e+06
-561.345
808652
7.68929e+06
2196.93
887794
7.36018e+06
483.899
1.0038e+06
6.99941e+06
335.68
1.10348e+06
6.65466e+06
4377.33
1.11697e+06
6.35191e+06
13613.6
994693
6.12414e+06
28115
694358
6.03173e+06
59146.7
114775
6.14457e+06
126751
-625918
5.97746e+06
-53952
2886.96
5.99979e+06
-150186
352343
6.00175e+06
-165068
557669
5.83099e+06
-206667
815657
5.84773e+06
-45193.4
69456.7
5.8454e+06
-21442.9
-47627.7
5.76755e+06
-87729.4
285827
5.72357e+06
-88609.6
387422
5.63493e+06
-76837.7
394847
5.54033e+06
-74767.8
336114
5.47209e+06
-80038.3
286518
5.39718e+06
-68203.4
231694
5.24061e+06
15083.1
221263
5.12403e+06
9959.65
237882
5.16246e+06
-11904.3
94120.4
5.02316e+06
17405.9
-43278.9
4.84075e+06
138505
-232812
4.70278e+06
59706.8
-263307
110770
-502005
9.99941e+06
11218.5
9.99607e+06
33170.8
9.98898e+06
55521.3
9.97793e+06
78141.8
9.96281e+06
101181
9.94345e+06
124609
9.91959e+06
149140
9.89115e+06
174060
9.85751e+06
200042
9.81869e+06
226964
9.77453e+06
254701
9.72485e+06
283748
9.6699e+06
313688
9.60909e+06
345330
9.5431e+06
378932
9.47217e+06
414562
9.39562e+06
453268
9.30502e+06
492744
9.20221e+06
516687
9.09584e+06
542061
8.98682e+06
567649
8.86353e+06
598754
8.7242e+06
635523
8.57072e+06
676263
8.39416e+06
719109
8.18614e+06
769003
7.95472e+06
826073
7.688e+06
915915
7.37637e+06
1.0203e+06
7.03446e+06
1.11023e+06
6.70658e+06
1.12494e+06
6.42956e+06
1.02859e+06
6.24763e+06
791529
6.23714e+06
329500
6.45706e+06
-295393
6.68167e+06
-615636
6.78913e+06
-600099
6.79175e+06
-445933
6.63918e+06
-242623
6.50271e+06
-142634
6.35749e+06
-86612.3
6.20285e+06
-37861.1
6.10849e+06
7417.2
6.0128e+06
-10744.4
5.907e+06
-55311.4
5.80191e+06
-99295.6
5.72976e+06
-140872
5.61551e+06
-5941.34
5.48138e+06
63965.8
5.25608e+06
-54699.3
5.02562e+06
-165556
5.13556e+06
-444155
5.0537e+06
-303310
-595730
9.99916e+06
186.077
13131.4
9.9962e+06
321.354
38863.8
9.98946e+06
441.856
65104.3
9.97895e+06
499.368
91710
9.9646e+06
576.158
118735
9.94589e+06
653.762
146582
9.9229e+06
683.006
175389
9.89529e+06
659.579
204875
9.86283e+06
608.236
235641
9.82552e+06
559.13
267410
9.78283e+06
539.422
300665
9.73504e+06
571.7
335176
9.68193e+06
672.684
371083
9.62353e+06
844.576
408963
9.56066e+06
1165.35
448657
9.49345e+06
1553.94
490476
9.424e+06
2341.84
533851
9.34641e+06
2042.13
579864
9.25293e+06
761.525
618223
9.14318e+06
2191.74
653833
9.01835e+06
3846.74
688021
8.87832e+06
1468.85
732555
8.73394e+06
-807.028
778697
8.57181e+06
-2651.55
843474
8.37345e+06
-6653.12
929304
8.12483e+06
-6311.37
1.02437e+06
7.83355e+06
-1637.73
1.10364e+06
7.526e+06
3727.58
1.19327e+06
7.20173e+06
3755.56
1.32571e+06
6.86007e+06
3917.78
1.44243e+06
6.50967e+06
9595.01
1.45901e+06
6.14882e+06
25165.6
1.33257e+06
5.74736e+06
58206.2
1.04008e+06
5.21865e+06
207174
439303
3.65898e+06
849932
90883.4
2.65522e+06
565585
442152
2.16477e+06
320253
514844
2.7601e+06
227892
-296262
3.32114e+06
81148.9
137256
3.93705e+06
104720
-646910
4.14665e+06
22707.2
-277254
4.2901e+06
-20942.3
197080
4.3532e+06
9383.06
352716
4.38424e+06
9223.22
339135
4.36572e+06
21805.3
227373
4.34981e+06
11498.1
106231
4.26939e+06
58861.1
91479.6
4.14612e+06
278970
-45968.5
3.9744e+06
378847
-30368.1
3.66223e+06
344210
-4451.78
3.45443e+06
236870
-70903.2
3.32912e+06
203162
-227731
3.35006e+06
56540.2
-456597
19802.1
-1.10977e+06
9.99943e+06
13130.8
9.99619e+06
38859.4
9.98934e+06
65090.3
9.97874e+06
91696.5
9.96436e+06
118729
9.94571e+06
146579
9.9228e+06
175380
9.89525e+06
204853
9.8628e+06
235599
9.82545e+06
267346
9.7827e+06
300581
9.73483e+06
335080
9.68167e+06
370987
9.62336e+06
408889
9.56054e+06
448591
9.49371e+06
490386
9.42453e+06
533742
9.34987e+06
578967
9.25661e+06
619597
9.14901e+06
658964
9.02651e+06
698802
8.88656e+06
744224
8.73061e+06
793247
8.55605e+06
849286
8.34957e+06
920191
8.10268e+06
1.01091e+06
7.83531e+06
1.09302e+06
7.54797e+06
1.20797e+06
7.23517e+06
1.33783e+06
6.9071e+06
1.44318e+06
6.58617e+06
1.45628e+06
6.29101e+06
1.35032e+06
6.03073e+06
1.11204e+06
5.88998e+06
685198
6.48775e+06
-18075.1
6.58512e+06
-148871
6.47636e+06
-181590
6.34563e+06
-98413.4
6.12886e+06
47442.5
5.8232e+06
269235
5.41683e+06
356779
5.21485e+06
167784
5.13962e+06
103407
5.05242e+06
57416.1
4.92024e+06
18069.1
4.78081e+06
-57953.7
4.74918e+06
-216831
4.48373e+06
385466
4.18565e+06
658142
4.05914e+06
363916
3.9363e+06
167588
3.84418e+06
-236945
3.58083e+06
32045.3
-534745
9.99921e+06
184.286
14966.8
9.99643e+06
318.547
44317.9
9.99007e+06
438.865
74246.8
9.98013e+06
495.427
104641
9.96652e+06
568.762
135476
9.94871e+06
640.914
167574
9.92673e+06
664.517
200501
9.90025e+06
636.674
234408
9.86923e+06
583.537
269623
9.8329e+06
536.202
306689
9.7919e+06
522.832
344755
9.74578e+06
566.981
384757
9.69448e+06
679.274
426522
9.63845e+06
871.959
470131
9.57798e+06
1148.24
515569
9.51358e+06
1490.95
562713
9.44536e+06
1896.26
611368
9.37403e+06
2197.1
661766
9.2934e+06
2125.75
710609
9.19962e+06
1678.68
759924
9.0873e+06
1987.77
812011
8.95404e+06
-642.417
878202
8.79957e+06
-1673.55
940999
8.6292e+06
-4689.44
1.02123e+06
8.42377e+06
-10501.5
1.1473e+06
8.15951e+06
-11358.9
1.30232e+06
7.84085e+06
-870.914
1.42589e+06
7.504e+06
10437.2
1.52167e+06
7.16939e+06
10443.2
1.6514e+06
6.8259e+06
7457.11
1.77975e+06
6.46424e+06
15228.2
1.80684e+06
6.04077e+06
35783.6
1.72199e+06
5.34725e+06
104913
1.63089e+06
3.35185e+06
552586
1.8848e+06
974579
798957
1.68201e+06
927850
18791.4
470035
827509
112960
467208
34621.5
487067
-77963.9
97651.2
-149807
145665
743967
-420066
-917831
1.42646e+06
-277627
-683044
1.49112e+06
153613
-21973.9
1.48585e+06
259258
80847.5
1.48861e+06
185789
80292.7
1.38692e+06
195115
-12564.7
1.27528e+06
188763
-161479
1.38814e+06
-17502.9
-283991
1.68674e+06
69828.7
-667646
1.97616e+06
359724
-873274
2.27418e+06
535657
-1.01103e+06
2.76599e+06
447850
-1.10013e+06
3.39757e+06
190121
-1.21202e+06
4.12442e+06
282283
-1.43418e+06
46284.4
-1.80254e+06
9.99947e+06
14962.5
9.99642e+06
44306.2
9.98995e+06
74228.9
9.97992e+06
104622
9.96628e+06
135460
9.94852e+06
167559
9.92663e+06
200480
9.9002e+06
234377
9.86919e+06
269579
9.83282e+06
306631
9.79175e+06
344685
9.74558e+06
384676
9.69426e+06
426435
9.63828e+06
470033
9.57792e+06
515450
9.51373e+06
562550
9.44585e+06
611117
9.37485e+06
660791
9.29502e+06
710757
9.20277e+06
762213
9.09475e+06
818090
8.96453e+06
882563
8.80153e+06
961157
8.61844e+06
1.02989e+06
8.39596e+06
1.13407e+06
8.12502e+06
1.27214e+06
7.83345e+06
1.38522e+06
7.53177e+06
1.52118e+06
7.2159e+06
1.6651e+06
6.88983e+06
1.77746e+06
6.56174e+06
1.8005e+06
6.23599e+06
1.71296e+06
5.88205e+06
1.57267e+06
5.53871e+06
1.59706e+06
4.06773e+06
2.25109e+06
2.343e+06
1.58736e+06
1.32404e+06
926585
1.13486e+06
555300
870066
140267
1.20118e+06
-495493
1.4049e+06
-133430
1.37103e+06
350783
1.42349e+06
289993
1.46553e+06
138934
1.45127e+06
125185
1.04648e+06
331282
148031
395159
-473948
790825
-153971
450311
677197
-167548
1.42497e+06
-372676
1.6731e+06
-319120
2.41186e+06
-414246
-835619
9.99927e+06
179.434
16677.7
9.99675e+06
308.5
49445.1
9.99084e+06
423.95
82847.7
9.98157e+06
477.513
116806
9.96872e+06
546.701
151335
9.95206e+06
613.801
187277
9.93152e+06
633.844
224038
9.90635e+06
605.308
262498
9.8766e+06
555.13
302225
9.84239e+06
513.701
343776
9.80306e+06
508.086
387129
9.75884e+06
556.878
432390
9.70973e+06
665.61
479621
9.65576e+06
836.514
528890
9.59723e+06
1036.31
579740
9.53441e+06
1309.06
632273
9.46748e+06
1504.2
685760
9.39732e+06
1717.96
740462
9.32181e+06
1403.01
795970
9.24008e+06
886.814
853527
9.14873e+06
467.919
916284
9.04634e+06
585.294
994062
8.91482e+06
998.926
1.08489e+06
8.75101e+06
-4498.02
1.19565e+06
8.56019e+06
-13171
1.35395e+06
8.3329e+06
-15400.3
1.54714e+06
8.04905e+06
-2830.27
1.71482e+06
7.68754e+06
16089
1.87056e+06
7.29393e+06
21168.9
2.02662e+06
6.91843e+06
10919.3
2.14596e+06
6.58411e+06
12873
2.12925e+06
6.25354e+06
22244.5
2.0311e+06
5.8643e+06
45000.8
1.97491e+06
5.24224e+06
287720
2.2194e+06
3.01602e+06
672064
3.22727e+06
1.16082e+06
372884
1.93017e+06
143781
319492
1.10559e+06
-334680
95093.8
238157
28666.2
-404121
95481.8
-176329
-654593
-152237
-441981
-226391
-321396
-151931
119545
-593777
296015
181868
-637176
773185
132321
-569656
1.37094e+06
92699.2
-732531
2.04303e+06
71331.5
-944595
2.83192e+06
-23284.7
-1.10807e+06
3.5583e+06
-186455
-1.32507e+06
4.16226e+06
-119512
-1.51848e+06
4.60431e+06
63166.9
-1.66498e+06
4.97471e+06
107405
-1.7275e+06
5.38161e+06
72612
-1.7154e+06
5.64913e+06
67202.1
-1.77239e+06
1935.22
-1.88299e+06
9.99953e+06
16677.1
9.99674e+06
49439.7
9.99073e+06
82830.6
9.98137e+06
116788
9.96849e+06
151323
9.95187e+06
187268
9.93141e+06
224025
9.90629e+06
262473
9.87655e+06
302185
9.8423e+06
343722
9.80291e+06
387065
9.75865e+06
432320
9.70953e+06
479551
9.65557e+06
528814
9.59717e+06
579665
9.53442e+06
632126
9.46771e+06
685575
9.39706e+06
740110
9.32123e+06
795760
9.23934e+06
853360
9.14967e+06
917426
9.04961e+06
992978
8.92495e+06
1.09533e+06
8.75658e+06
1.19924e+06
8.53982e+06
1.34155e+06
8.28001e+06
1.51842e+06
7.97335e+06
1.69193e+06
7.65804e+06
1.85394e+06
7.34517e+06
2.00006e+06
7.01615e+06
2.11845e+06
6.67586e+06
2.15476e+06
6.3564e+06
2.05543e+06
6.02597e+06
1.95022e+06
5.83046e+06
2.07668e+06
5.98417e+06
2.76094e+06
5.06306e+06
2.87054e+06
3.97812e+06
2.32513e+06
2.93168e+06
1.69085e+06
1.45711e+06
1.1926e+06
-388596
660584
-1.22201e+06
436783
-1.02527e+06
247946
-653826
65934.5
-282055
-139997
18298.2
-115290
360013
23596.2
692718
-66721.9
1.28994e+06
-154322
1.76575e+06
-306860
2.20238e+06
-676471
2.72022e+06
-861752
3.38593e+06
-932092
4.0604e+06
-1.02276e+06
-1.12379e+06
9.99935e+06
177.513
18268.4
9.99713e+06
304.767
54218.8
9.99177e+06
419.284
90838.2
9.98328e+06
471.026
128111
9.97147e+06
536.674
166087
9.95606e+06
600.015
205643
9.93678e+06
618.412
246223
9.91348e+06
591.519
288634
9.8856e+06
546.141
332893
9.85321e+06
511.745
379002
9.81623e+06
512.586
427119
9.77412e+06
563.49
477856
9.72698e+06
666.847
530624
9.67507e+06
810.688
585283
9.61818e+06
980.126
641848
9.55675e+06
1151.52
699566
9.49085e+06
1276.13
758129
9.42154e+06
1400.24
817038
9.34948e+06
1403.74
876150
9.27524e+06
1443.04
937207
9.19909e+06
1473.84
1.00297e+06
9.12199e+06
1877.87
1.08348e+06
9.03139e+06
2461.1
1.18621e+06
8.91001e+06
5819.78
1.32377e+06
8.75271e+06
-963.835
1.51763e+06
8.57615e+06
-7112.32
1.7323e+06
8.35966e+06
-4799.67
1.93992e+06
8.05551e+06
5395.71
2.17363e+06
7.68369e+06
21514.4
2.38143e+06
7.26728e+06
30195
2.53768e+06
6.81888e+06
29896.4
2.55238e+06
6.38467e+06
22205.9
2.44496e+06
6.01373e+06
27488.6
2.31749e+06
5.91014e+06
45723.3
2.27068e+06
5.817e+06
264719
3.04889e+06
4.54552e+06
219287
2.97946e+06
3.3266e+06
101742
2.23513e+06
2.29465e+06
-59330.6
1.34738e+06
1.92186e+06
-185893
664854
2.01822e+06
-396936
143617
2.41183e+06
-488297
-243903
2.74987e+06
-382230
-577745
3.08627e+06
-188601
-834194
3.50882e+06
12609.9
-1.04882e+06
3.98576e+06
53480.7
-1.25965e+06
4.51945e+06
-9721.79
-1.43224e+06
5.05259e+06
-54147.7
-1.55884e+06
5.4989e+06
-117048
-1.67613e+06
5.83091e+06
-151768
-1.77704e+06
6.02247e+06
-126919
-1.83566e+06
6.13795e+06
-98586.1
-1.81857e+06
6.23662e+06
-96601.7
-1.76168e+06
6.23097e+06
-73630.3
-1.69278e+06
-71730.7
-1.69047e+06
9.9996e+06
18263.8
9.99712e+06
54206.4
9.99166e+06
90818.7
9.98309e+06
128090
9.97123e+06
166069
9.95587e+06
205625
9.93666e+06
246201
9.91342e+06
288603
9.88555e+06
332851
9.85312e+06
378948
9.81609e+06
427052
9.77393e+06
477774
9.72677e+06
530524
9.67489e+06
585158
9.61803e+06
641696
9.55664e+06
699374
9.49081e+06
757929
9.42139e+06
816713
9.34932e+06
875779
9.27496e+06
936601
9.19942e+06
1.00281e+06
9.12154e+06
1.08178e+06
9.04208e+06
1.18687e+06
8.93406e+06
1.3222e+06
8.77196e+06
1.50865e+06
8.5594e+06
1.72706e+06
8.27004e+06
1.97865e+06
7.93672e+06
2.19417e+06
7.60988e+06
2.35059e+06
7.28894e+06
2.47304e+06
6.9374e+06
2.54022e+06
6.53616e+06
2.48108e+06
6.13991e+06
2.37267e+06
5.90559e+06
2.35459e+06
6.25301e+06
2.6778e+06
6.43869e+06
2.9109e+06
6.16493e+06
2.712e+06
5.55449e+06
2.25318e+06
4.80294e+06
1.76582e+06
3.76263e+06
1.30794e+06
2.78075e+06
927401
2.10124e+06
519276
1.83607e+06
98447.4
1.93769e+06
-254403
2.37321e+06
-491127
3.05736e+06
-641352
3.74551e+06
-792630
4.39443e+06
-939218
4.95729e+06
-1.07083e+06
5.2964e+06
-1.20912e+06
5.5512e+06
-1.26934e+06
5.79281e+06
-1.30619e+06
5.96412e+06
-1.29237e+06
-1.51758e+06
9.99944e+06
172.46
19693.7
9.99758e+06
294.027
58547.6
9.99287e+06
402.536
98096.6
9.9853e+06
450.682
138391
9.97468e+06
512.677
179529
9.96072e+06
572.856
222432
9.94316e+06
590.593
266574
9.92172e+06
566.129
312814
9.8961e+06
524.976
361216
9.86606e+06
494.163
411802
9.83131e+06
492.955
464756
9.79171e+06
532.434
520594
9.74693e+06
610.491
578896
9.69666e+06
716.372
639463
9.64115e+06
839.571
701772
9.58038e+06
951.223
765257
9.51528e+06
1084.07
828873
9.44674e+06
1174.36
891716
9.37736e+06
1346.87
952684
9.31033e+06
1412.82
1.01226e+06
9.25084e+06
1613.13
1.07211e+06
9.19966e+06
875.552
1.14547e+06
9.15619e+06
1909.69
1.23952e+06
9.10169e+06
9881.86
1.38079e+06
8.99875e+06
14817.7
1.61208e+06
8.83375e+06
11219.5
1.88875e+06
8.59955e+06
3126.13
2.17109e+06
8.34234e+06
-3383.54
2.43524e+06
8.0705e+06
1948.06
2.65604e+06
7.76482e+06
14783.9
2.83642e+06
7.36936e+06
20060.6
2.93546e+06
6.8691e+06
22400.2
2.92956e+06
6.36204e+06
33813.9
2.79362e+06
6.0046e+06
-2121.03
2.63521e+06
6.22646e+06
55046.9
2.78688e+06
6.25497e+06
78993.1
2.90051e+06
5.89857e+06
38176.9
2.58793e+06
5.38601e+06
-58422.1
1.95348e+06
5.01891e+06
-165064
1.22963e+06
4.88798e+06
-261833
564202
4.97543e+06
-324074
-1735.4
5.14488e+06
-304090
-473046
5.34335e+06
-231892
-851407
5.5659e+06
-175695
-1.12936e+06
5.80576e+06
-156183
-1.33769e+06
6.06705e+06
-159138
-1.48202e+06
6.32048e+06
-164974
-1.57815e+06
6.5119e+06
-178028
-1.64892e+06
6.61246e+06
-190863
-1.70008e+06
6.62877e+06
-190566
-1.72505e+06
6.59877e+06
-176945
-1.691e+06
6.58886e+06
-171774
-1.62377e+06
6.48039e+06
-150256
-1.47711e+06
-47713.2
-1.51355e+06
9.99968e+06
19693.2
9.99757e+06
58542.5
9.99276e+06
98080.5
9.98511e+06
138373
9.97445e+06
179517
9.96053e+06
222423
9.94304e+06
266561
9.92165e+06
312792
9.89604e+06
361182
9.86596e+06
411756
9.83116e+06
464701
9.79151e+06
520532
9.74669e+06
578826
9.69643e+06
639382
9.64094e+06
701671
9.58024e+06
765139
9.51511e+06
828704
9.44667e+06
891519
9.37723e+06
952434
9.31012e+06
1.01184e+06
9.24972e+06
1.0724e+06
9.19801e+06
1.14274e+06
9.15761e+06
1.23808e+06
9.11714e+06
1.38026e+06
9.03661e+06
1.60918e+06
8.87322e+06
1.90305e+06
8.63712e+06
2.21732e+06
8.34746e+06
2.48192e+06
8.02831e+06
2.67646e+06
7.70159e+06
2.82083e+06
7.35727e+06
2.91069e+06
6.95174e+06
2.91294e+06
6.51057e+06
2.85031e+06
6.10732e+06
2.76101e+06
6.10137e+06
2.75132e+06
6.37287e+06
2.73615e+06
6.59215e+06
2.54989e+06
6.61802e+06
2.18616e+06
6.50516e+06
1.72921e+06
6.31828e+06
1.24268e+06
6.15141e+06
764827
6.04044e+06
302992
5.99503e+06
-117224
6.0162e+06
-467172
6.12525e+06
-741060
6.30212e+06
-935939
6.4774e+06
-1.09044e+06
6.60453e+06
-1.22561e+06
6.66681e+06
-1.3421e+06
6.66416e+06
-1.44516e+06
6.68932e+06
-1.52271e+06
6.80045e+06
-1.63076e+06
7.03473e+06
-1.67336e+06
-2.21267e+06
9.99954e+06
170.825
20961.6
9.9981e+06
290.532
62410
9.99414e+06
398.561
104558
9.98763e+06
445.164
147554
9.97838e+06
504.269
191536
9.96611e+06
561.967
237471
9.95032e+06
579.732
285089
9.93112e+06
558.342
334704
9.90822e+06
522.38
386798
9.88086e+06
496.561
441888
9.8487e+06
497.253
499780
9.81172e+06
531.913
560634
9.76921e+06
597.159
624732
9.72107e+06
685.259
691274
9.66658e+06
784.297
760326
9.60614e+06
893.383
830300
9.54014e+06
1007.26
900068
9.4704e+06
1130.57
967356
9.40028e+06
1317.56
1.02956e+06
9.33634e+06
1420.64
1.08388e+06
9.2882e+06
1795.36
1.12886e+06
9.27252e+06
120.71
1.17124e+06
9.28524e+06
1343.75
1.23368e+06
9.31891e+06
8218.38
1.34838e+06
9.29571e+06
16771
1.62895e+06
9.13871e+06
16508.7
2.02903e+06
8.87997e+06
5124.28
2.42234e+06
8.59565e+06
-2834.88
2.7241e+06
8.3149e+06
-2588.75
2.94664e+06
8.03279e+06
1269.04
3.12615e+06
7.71765e+06
2594.67
3.25624e+06
7.33652e+06
2810.24
3.31348e+06
6.85891e+06
3106.07
3.27214e+06
6.36699e+06
-4292.81
3.13937e+06
6.19105e+06
4161.3
2.97477e+06
6.28989e+06
17249.3
2.80531e+06
6.38531e+06
10765.1
2.50194e+06
6.36826e+06
-29684.5
2.0164e+06
6.30173e+06
-96743.9
1.40552e+06
6.27384e+06
-163975
758547
6.30907e+06
-211138
161141
6.37835e+06
-231274
-341208
6.45766e+06
-229122
-734286
6.54575e+06
-221120
-1.01915e+06
6.62957e+06
-205575
-1.21066e+06
6.7135e+06
-194079
-1.33335e+06
6.78895e+06
-181385
-1.41378e+06
6.83839e+06
-172648
-1.47356e+06
6.83968e+06
-170225
-1.51699e+06
6.80259e+06
-167463
-1.54023e+06
6.79188e+06
-164862
-1.5452e+06
6.86571e+06
-159724
-1.55969e+06
7.07819e+06
-124102
-1.5201e+06
-32851.8
-1.76172e+06
9.99978e+06
20957.4
9.99809e+06
62399.3
9.99403e+06
104541
9.98744e+06
147536
9.97815e+06
191521
9.96592e+06
237457
9.9502e+06
285071
9.93105e+06
334679
9.90816e+06
386763
9.88077e+06
441841
9.84854e+06
499720
9.81151e+06
560560
9.76897e+06
624645
9.72082e+06
691170
9.66636e+06
760207
9.60594e+06
830166
9.53997e+06
899923
9.47028e+06
967226
9.40016e+06
1.02945e+06
9.33607e+06
1.08383e+06
9.28774e+06
1.12989e+06
9.26666e+06
1.17226e+06
9.28051e+06
1.23325e+06
9.32318e+06
1.35373e+06
9.30938e+06
1.64285e+06
9.1613e+06
2.06692e+06
8.9243e+06
2.4595e+06
8.65264e+06
2.75411e+06
8.35841e+06
2.97431e+06
8.04134e+06
3.14646e+06
7.70087e+06
3.25987e+06
7.31907e+06
3.30191e+06
6.89862e+06
3.27755e+06
6.47539e+06
3.18625e+06
6.20316e+06
3.03703e+06
6.15438e+06
2.81254e+06
6.24774e+06
2.47515e+06
6.378e+06
2.03033e+06
6.49399e+06
1.51539e+06
6.59494e+06
969725
6.68188e+06
448853
6.73979e+06
-10878.1
6.76752e+06
-395667
6.77512e+06
-701755
6.7741e+06
-930983
6.76958e+06
-1.09401e+06
6.76888e+06
-1.23153e+06
6.79088e+06
-1.38836e+06
6.86754e+06
-1.5793e+06
7.05069e+06
-1.80452e+06
7.41965e+06
-2.07151e+06
8.0219e+06
-2.37332e+06
8.91706e+06
-2.68165e+06
-3.31269e+06
9.99965e+06
166.271
22027.3
9.99871e+06
281.488
65711.8
9.99559e+06
383.407
110096
9.99029e+06
426.631
155422
9.9824e+06
483.086
202087
9.97224e+06
539.236
250310
9.95893e+06
558.003
301058
9.94234e+06
539.845
353918
9.92192e+06
507.46
409836
9.89769e+06
482.37
468779
9.86895e+06
478.422
531264
9.83495e+06
499.403
597500
9.79534e+06
544.983
667378
9.74903e+06
609.253
740852
9.69576e+06
690.519
817228
9.63492e+06
793.337
895328
9.56639e+06