/*--------------------------------*- C++ -*----------------------------------*\
| =========                 |                                                 |
| \\      /  F ield         | OpenFOAM: The Open Source CFD Toolbox           |
|  \\    /   O peration     | Version:  4.1                                   |
|   \\  /    A nd           | Web:      www.OpenFOAM.org                      |
|    \\/     M anipulation  |                                                 |
\*---------------------------------------------------------------------------*/
FoamFile
{
    version     2.0;
    format      ascii;
    class       volVectorField;
    location    "53";
    object      U;
}
// * * * * * * * * * * * * * * * * * * * * * * * * * * * * * * * * * * * * * //

dimensions      [0 1 -1 0 0 0 0];

internalField   nonuniform List<vector> 
4432
(
(39.9815 0.000283875 0.0507917)
(39.9198 0.000817243 0.0911419)
(39.8295 0.00169696 0.120914)
(39.7042 0.00196562 0.149905)
(39.5363 0.00175438 0.17989)
(39.3282 0.00159352 0.210993)
(39.0837 0.00167326 0.243503)
(38.8021 0.00193972 0.27702)
(38.4795 0.00230012 0.311759)
(38.1124 0.00264627 0.347413)
(37.7003 0.00295849 0.382334)
(37.2458 0.00328869 0.417091)
(36.7554 0.00350241 0.445221)
(36.2486 0.00374143 0.466524)
(35.7342 0.00152764 0.460941)
(35.3265 -0.00330309 0.408211)
(34.981 -0.000934038 0.45307)
(34.8621 0.00297983 0.361178)
(34.9531 0.00407529 0.259691)
(34.9512 0.00623224 0.374111)
(34.7332 0.000464831 0.465271)
(34.3907 -0.0108776 0.593627)
(33.9445 -0.0224135 0.676378)
(33.4291 -0.0312984 0.672697)
(32.8477 -0.0375714 0.658854)
(32.2269 -0.0428398 0.534946)
(31.6557 -0.0389459 0.332967)
(31.168 -0.0240593 0.117146)
(30.8074 -0.0120239 0.0243205)
(30.5643 -0.0124298 0.0234552)
(30.3982 -0.0238837 0.133036)
(30.2216 -0.0403175 0.356621)
(29.9635 -0.0482471 0.403281)
(29.7894 -0.023902 -0.0336079)
(29.8574 0.0169916 -0.856187)
(30.0957 0.0423241 -1.27909)
(30.5099 0.0445919 -1.18863)
(30.7163 -0.030899 -1.10419)
(30.661 -0.0144606 -0.928986)
(30.6484 0.0752527 -0.690269)
(30.8108 0.106365 -0.604201)
(30.888 0.0841022 -0.636393)
(30.8401 0.0218323 -0.568066)
(30.6048 -0.0108772 -0.503809)
(30.3849 0.0113921 -0.470338)
(30.0666 0.0981067 -0.519419)
(29.848 0.0972631 -0.39322)
(30.1113 -0.103877 -0.50648)
(29.9516 -0.140321 -0.635292)
(29.5395 -0.142981 -0.761378)
(29.6968 0.0113248 -0.511795)
(31.2005 0.0255248 -1.41862)
(32.7444 -0.0473834 -2.32014)
(34.7541 0.253833 -0.889404)
(39.9819 0.000283868 0.0507939)
(39.9204 0.000817203 0.0911879)
(39.8297 0.00169682 0.121034)
(39.7032 0.00196665 0.149951)
(39.5349 0.00175544 0.1798)
(39.3271 0.00159359 0.210904)
(39.0829 0.00167154 0.243382)
(38.8015 0.00193664 0.276978)
(38.4786 0.00229648 0.311946)
(38.1113 0.00264267 0.347717)
(37.6986 0.0029567 0.383078)
(37.2437 0.00328942 0.417756)
(36.7535 0.00350487 0.446976)
(36.2419 0.00374555 0.467223)
(35.7293 0.00153392 0.4682)
(35.2734 -0.00331821 0.418477)
(34.9237 -0.000952421 0.40115)
(34.8493 0.0029145 0.314526)
(34.9478 0.00416602 0.248237)
(34.976 0.00618258 0.38408)
(34.7611 0.000370066 0.45165)
(34.413 -0.0109219 0.511569)
(33.9755 -0.0225426 0.559214)
(33.456 -0.031844 0.556428)
(32.8564 -0.0384355 0.546982)
(32.2018 -0.0444516 0.412163)
(31.5801 -0.0422076 0.224951)
(31.0599 -0.0282508 0.0909297)
(30.6534 -0.0170045 -0.00126827)
(30.3525 -0.0194079 -0.124403)
(30.2168 -0.0326107 -0.280481)
(30.1805 -0.0527083 -0.336484)
(30.1325 -0.0615357 -0.226297)
(30.0712 -0.0370686 -0.138669)
(30.1667 0.0101325 -0.449407)
(30.3503 0.0457327 -0.756593)
(30.6887 0.0534447 -0.70138)
(30.8491 -0.0271981 -0.659513)
(30.9694 -0.0386761 -0.561971)
(30.971 0.0533825 -0.450359)
(31.0401 0.116626 -0.378893)
(31.0581 0.115689 -0.360783)
(31.0437 0.0507696 -0.276564)
(30.8801 0.0146755 -0.224543)
(30.7415 0.0386734 -0.253085)
(30.4009 0.12273 -0.428807)
(29.8766 0.137925 -0.277123)
(30.1002 -0.0827458 -0.123447)
(30.1069 -0.119859 -0.178363)
(29.8773 -0.0873377 -0.267794)
(30.1625 0.0361759 -0.456002)
(31.3502 0.0372865 -1.15036)
(32.8595 -0.0422318 -2.08988)
(35.5115 0.246959 -0.778566)
(40.0082 0.000287653 0.0187631)
(40.0383 0.000813847 0.0576088)
(40.077 0.00170908 0.098412)
(40.1162 0.00199248 0.139396)
(40.1481 0.00178554 0.180486)
(40.1752 0.00162945 0.222281)
(40.2016 0.00175821 0.265289)
(40.2273 0.00215339 0.309976)
(40.25 0.00271219 0.356805)
(40.2671 0.0033133 0.405923)
(40.2771 0.00387346 0.456845)
(40.2766 0.0042409 0.507549)
(40.2637 0.00479045 0.554863)
(40.2193 0.00470333 0.58846)
(40.1513 0.00869669 0.611038)
(39.8965 0.0101727 0.594598)
(39.6205 0.0115372 0.475923)
(38.9453 0.0114392 0.392403)
(37.9963 0.00147794 0.404256)
(37.1683 -0.00173458 0.443537)
(36.4488 0.000479036 0.506936)
(35.8184 0.00362567 0.59353)
(35.2794 0.00678281 0.682765)
(34.7683 0.00981466 0.779839)
(34.2791 0.0114208 0.854694)
(33.8018 0.0131922 0.864606)
(33.323 0.0163422 0.819614)
(32.8192 0.025255 0.754667)
(32.2389 0.0430135 0.658485)
(31.6506 0.053195 0.520437)
(31.0791 0.0579163 0.381914)
(30.5036 0.0585514 0.332271)
(30.0745 0.0540742 0.258418)
(29.8853 0.0458175 0.0995761)
(29.9609 0.031968 0.0217178)
(30.1285 0.00133915 0.148545)
(30.3395 -0.0476192 0.391893)
(30.3285 -0.0821404 0.519638)
(30.2836 -0.0685861 0.544995)
(30.2549 -0.0497796 0.41025)
(30.2189 -0.0735107 0.144119)
(30.1696 -0.132967 0.119047)
(30.0035 -0.188713 0.212292)
(29.6476 -0.21565 0.315498)
(29.2857 -0.244264 0.384191)
(28.9941 -0.246812 0.287825)
(28.6682 -0.254318 0.461978)
(28.7429 -0.24297 0.204713)
(28.0052 -0.221816 -0.0218413)
(28.2083 -0.31199 -0.310828)
(27.8507 -0.225107 -0.237185)
(26.477 0.0507615 -1.22631)
(30.3709 0.280406 -2.22283)
(32.9769 0.128021 -5.06052)
(40.0086 0.000287646 0.0187573)
(40.0389 0.000813866 0.0576252)
(40.0772 0.00170914 0.098397)
(40.1152 0.0019926 0.139325)
(40.1467 0.00178572 0.180389)
(40.1741 0.00162975 0.22222)
(40.2011 0.00175848 0.265358)
(40.2274 0.00215444 0.310255)
(40.2504 0.00271107 0.357377)
(40.2679 0.00331653 0.406734)
(40.278 0.00386657 0.457795)
(40.2776 0.00425068 0.508681)
(40.2638 0.00476107 0.555437)
(40.2252 0.00483363 0.591383)
(40.1488 0.00821554 0.604397)
(39.9795 0.0100604 0.574743)
(39.6799 0.0123557 0.490557)
(38.9837 0.0117671 0.374574)
(38.0113 0.00153867 0.386935)
(37.1632 -0.00153946 0.434219)
(36.4631 0.0005955 0.486879)
(35.8379 0.00376983 0.563055)
(35.2994 0.00705821 0.637132)
(34.7963 0.0104384 0.717237)
(34.3175 0.012384 0.784376)
(33.8628 0.0149306 0.792541)
(33.4018 0.0198632 0.77826)
(32.9109 0.0286412 0.753324)
(32.4075 0.0422284 0.666357)
(31.9377 0.0569275 0.498239)
(31.4363 0.0726206 0.331427)
(30.83 0.0885757 0.241654)
(30.3085 0.0822043 0.136664)
(30.0757 0.0671113 0.00490073)
(30.163 0.0422263 -0.0942896)
(30.338 0.0101469 -0.0257626)
(30.6285 -0.0461074 0.120505)
(30.7229 -0.0860169 0.244647)
(30.7027 -0.0807883 0.268988)
(30.593 -0.0446227 0.210085)
(30.6807 -0.0349771 0.0882716)
(30.7352 -0.0819614 0.137864)
(30.6734 -0.150032 0.290558)
(30.4124 -0.18537 0.387398)
(30.1705 -0.225763 0.374126)
(29.9534 -0.232679 0.157571)
(29.6979 -0.238444 0.260407)
(29.6571 -0.230942 0.316567)
(29.5444 -0.23656 0.08621)
(29.1323 -0.294529 -0.509476)
(28.5008 -0.126581 -0.572982)
(28.2343 0.0676697 -1.52501)
(31.721 0.231646 -1.86611)
(34.1955 0.0693335 -4.27073)
(39.9996 0.000284226 0.0260247)
(39.9923 0.000806828 0.0744708)
(39.9741 0.0016864 0.120241)
(39.94 0.00195997 0.164142)
(39.8841 0.00176102 0.207801)
(39.8094 0.00163914 0.252302)
(39.7205 0.0018235 0.298289)
(39.6184 0.00228632 0.346231)
(39.5015 0.00290722 0.39648)
(39.3684 0.00354527 0.449064)
(39.2186 0.00407221 0.503656)
(39.0526 0.00443874 0.559368)
(38.8697 0.00458899 0.61533)
(38.6707 0.00486908 0.669826)
(38.4428 0.0048641 0.726412)
(38.2252 0.0063042 0.795338)
(37.9233 0.00657189 0.84119)
(37.5822 0.0071343 0.938406)
(37.2447 0.003801 1.10961)
(36.8263 0.00226725 1.22187)
(36.3437 0.00310335 1.26363)
(35.8412 0.00494168 1.2724)
(35.3536 0.00758074 1.29154)
(34.8667 0.011925 1.32522)
(34.3797 0.0145429 1.35791)
(33.8876 0.0189936 1.33801)
(33.3584 0.0287484 1.26607)
(32.7626 0.0436873 1.20627)
(32.0568 0.0577462 1.08989)
(31.2533 0.0541062 0.990448)
(30.2764 0.0491397 1.02749)
(29.2038 0.0671546 1.05554)
(28.337 0.121894 0.84307)
(27.6348 0.216621 0.317876)
(27.3637 0.272696 -0.661303)
(27.9415 0.0756059 -0.685022)
(28.133 -0.148851 -0.211649)
(28.0827 -0.26559 0.154019)
(27.7988 -0.302042 0.371459)
(27.7259 -0.148516 -0.0734955)
(27.831 -0.100033 -0.378288)
(27.9517 -0.175163 -0.108741)
(27.8434 -0.234402 0.182866)
(27.5622 -0.267484 0.2774)
(27.2252 -0.286266 0.360356)
(26.9645 -0.262742 0.378277)
(26.6294 -0.264992 0.413476)
(26.4766 -0.20209 0.237265)
(26.2919 -0.231194 -0.0274377)
(26.3241 -0.232356 -0.610706)
(26.823 -0.122865 -0.782277)
(27.7564 -0.0687009 -1.12176)
(27.0856 0.301166 -4.2004)
(24.2794 0.544412 -7.46543)
(40 0.00028422 0.0260172)
(39.993 0.000806848 0.0744491)
(39.9742 0.00168646 0.120185)
(39.939 0.00196007 0.164068)
(39.8827 0.00176119 0.207731)
(39.8084 0.00163941 0.252254)
(39.7201 0.00182393 0.298276)
(39.6184 0.00228693 0.346259)
(39.5017 0.00290828 0.39655)
(39.3685 0.00354654 0.449153)
(39.2184 0.00407295 0.50372)
(39.0521 0.00444067 0.55939)
(38.8694 0.00458957 0.615024)
(38.6693 0.00487514 0.669324)
(38.4476 0.00485694 0.723302)
(38.2037 0.00627746 0.78654)
(37.9254 0.00599395 0.859119)
(37.5867 0.00741517 0.945649)
(37.2443 0.00403546 1.10244)
(36.8332 0.00238139 1.20712)
(36.3581 0.00321717 1.24407)
(35.8628 0.00512138 1.24536)
(35.3832 0.00794473 1.2541)
(34.8967 0.0128745 1.29885)
(34.4029 0.0159697 1.33631)
(33.9095 0.0208786 1.32038)
(33.3827 0.0317236 1.27902)
(32.8118 0.0477672 1.24625)
(32.1883 0.0625063 1.16989)
(31.4636 0.0669351 1.04061)
(30.4566 0.0615401 1.07559)
(29.3923 0.0754053 1.12585)
(28.575 0.139554 0.878005)
(28.1921 0.216132 0.335895)
(28.2381 0.208306 -0.227966)
(28.6109 0.0871846 -0.463581)
(28.9491 -0.0668092 -0.400602)
(28.9636 -0.205336 -0.321682)
(28.8427 -0.257676 -0.342622)
(28.688 -0.161157 -0.489128)
(28.7742 -0.100433 -0.658132)
(28.7545 -0.125218 -0.465152)
(28.6047 -0.176718 -0.260842)
(28.1995 -0.193267 -0.191279)
(27.8262 -0.229866 -0.127074)
(27.5826 -0.216225 -0.142905)
(27.3154 -0.225764 -0.201131)
(27.1005 -0.163572 -0.254531)
(26.7729 -0.212052 -0.673359)
(26.5338 -0.179183 -1.11791)
(27.033 -0.109413 -1.18223)
(27.9338 -0.032113 -1.42813)
(29.1129 -0.121518 -0.737338)
(25.0896 0.634621 -6.94844)
(39.9993 0.000280545 0.0330538)
(39.9911 0.000792961 0.0971676)
(39.973 0.00165404 0.162089)
(39.9402 0.00191617 0.228058)
(39.8856 0.00170733 0.295735)
(39.811 0.00156939 0.365451)
(39.7202 0.00173149 0.437329)
(39.6132 0.00217059 0.511415)
(39.4874 0.00277156 0.587705)
(39.3402 0.00339547 0.666063)
(39.1699 0.00391528 0.746263)
(38.9757 0.0042694 0.82809)
(38.757 0.00438461 0.911555)
(38.5143 0.00452639 0.997582)
(38.2447 0.00428397 1.08952)
(37.9619 0.00558726 1.19021)
(37.6464 0.00460364 1.32654)
(37.2523 0.00388504 1.39087)
(36.914 0.00323099 1.45553)
(36.5608 0.00342921 1.54655)
(36.1733 0.00436929 1.63527)
(35.7577 0.00446504 1.68788)
(35.3022 0.00443524 1.73628)
(34.7869 0.00553558 1.7973)
(34.2403 0.00453488 1.86877)
(33.6601 0.00517752 1.89153)
(32.9893 0.01355 1.88813)
(32.2122 0.0241362 1.95652)
(31.2629 0.0243745 2.06476)
(29.9675 0.0252066 2.21349)
(28.4562 0.0317744 2.40261)
(27.1333 0.0506707 2.26818)
(26.0722 0.0960456 1.6575)
(25.3557 0.16872 0.335596)
(25.6559 0.163962 -1.2645)
(26.3194 -0.0957527 -0.811288)
(26.5262 -0.374527 0.179709)
(26.1575 -0.635642 0.693679)
(25.7613 -0.567508 0.901774)
(25.7602 -0.214933 0.0537444)
(25.8611 -0.109756 -0.278478)
(26.053 -0.209635 0.25469)
(25.8386 -0.29337 0.859197)
(25.4348 -0.299587 0.954168)
(25.0697 -0.261646 0.929078)
(24.7024 -0.248663 0.97038)
(24.2499 -0.318369 0.767768)
(23.9332 -0.19189 0.663329)
(23.6948 -0.2259 0.617963)
(23.2981 -0.280465 0.00591753)
(23.9867 -0.221773 -1.28956)
(24.654 -0.227449 -2.0145)
(25.133 -0.0210008 -2.25025)
(21.4757 1.20046 -2.72773)
(39.9997 0.000280539 0.0330489)
(39.9917 0.00079298 0.0971463)
(39.9732 0.00165409 0.162045)
(39.9393 0.00191627 0.227998)
(39.8843 0.00170749 0.295665)
(39.81 0.00156965 0.365362)
(39.7198 0.00173189 0.437211)
(39.6132 0.00217119 0.511261)
(39.4876 0.00277242 0.587515)
(39.3403 0.00339656 0.665842)
(39.1697 0.00391674 0.746025)
(38.9751 0.00427109 0.827824)
(38.7562 0.00438599 0.911263)
(38.5128 0.00453196 0.997109)
(38.2457 0.00428152 1.08884)
(37.9583 0.00563969 1.18989)
(37.6595 0.00454888 1.32249)
(37.2607 0.00389284 1.41891)
(36.9192 0.00329967 1.4581)
(36.5699 0.00350229 1.5339)
(36.1844 0.00454861 1.61524)
(35.7691 0.0047587 1.66191)
(35.298 0.00464076 1.71105)
(34.7738 0.00529471 1.80689)
(34.2387 0.00429912 1.87875)
(33.6515 0.00482554 1.9147)
(32.9594 0.0149057 1.97911)
(32.1685 0.0269642 2.10082)
(31.2367 0.0268555 2.23779)
(29.9692 0.0273068 2.38235)
(28.5392 0.0321332 2.51057)
(27.3088 0.0487762 2.41437)
(26.3092 0.092506 2.0043)
(25.5781 0.186996 1.04807)
(25.8296 0.200091 -0.515784)
(26.6078 -0.0909541 -0.935517)
(27.0523 -0.393953 -0.714471)
(27.0514 -0.763489 -0.412516)
(26.6951 -0.977663 0.00793701)
(26.5233 -0.742676 -0.250477)
(26.6709 -0.232327 -0.634864)
(26.746 -0.212481 -0.400284)
(26.4457 -0.238164 0.0580119)
(25.9432 -0.263563 0.145642)
(25.6926 -0.217399 0.12622)
(25.1789 -0.20634 0.157083)
(24.832 -0.231714 0.0124104)
(24.4648 -0.148013 -0.126529)
(24.2231 -0.160693 -0.257348)
(23.997 -0.191142 -0.969569)
(23.988 -0.181389 -1.84179)
(24.3679 -0.0689356 -2.31928)
(25.2812 -0.574259 -2.47639)
(24.4976 1.22093 -3.78474)
(39.9993 0.000279515 0.040893)
(39.9913 0.000787449 0.121066)
(39.9736 0.00164374 0.202683)
(39.9416 0.00189868 0.285065)
(39.8882 0.00168498 0.368614)
(39.8155 0.00154207 0.453942)
(39.7272 0.00169667 0.541566)
(39.6235 0.00212609 0.631907)
(39.5018 0.00271648 0.725304)
(39.3595 0.00332937 0.822036)
(39.1949 0.00384119 0.922344)
(39.0071 0.00417779 1.02654)
(38.7961 0.00430995 1.1351)
(38.5619 0.00435991 1.24926)
(38.307 0.00438818 1.37063)
(38.0276 0.00486767 1.50219)
(37.7476 0.00607393 1.64273)
(37.3797 0.00759447 1.76461)
(36.9749 0.00443985 1.84695)
(36.5616 0.00543992 1.91793)
(36.1459 0.00701229 2.01233)
(35.7034 0.00555039 2.10662)
(35.2107 0.0027427 2.25182)
(34.6254 -0.00056877 2.38488)
(33.9839 -0.00806536 2.50481)
(33.2538 -0.0114539 2.59989)
(32.3567 -0.0024917 2.69822)
(31.3443 0.00801442 2.96095)
(30.1521 0.00649897 3.36381)
(28.7083 0.00775103 3.73761)
(27.258 0.0210615 3.8165)
(25.9758 0.0523861 3.38658)
(24.8485 0.110493 2.26827)
(24.0859 0.218922 0.14513)
(24.4554 0.319304 -2.08353)
(23.9219 -0.0711828 -1.39514)
(24.1942 -0.639558 1.53935)
(23.9932 -0.97391 2.54216)
(23.7856 -1.09882 2.66182)
(23.431 -0.317078 0.592399)
(23.0811 -0.101705 -0.192556)
(23.4042 -0.33442 0.567697)
(23.0484 -0.466028 1.159)
(22.6693 -0.45361 1.18809)
(22.3651 -0.370057 1.02646)
(21.9525 -0.270208 0.918768)
(21.6988 -0.144367 0.675386)
(21.7072 0.0119656 0.536612)
(20.315 -0.328727 0.776168)
(20.8719 -0.338701 0.361555)
(20.1669 -0.323561 -0.404179)
(18.9977 0.497332 -1.52364)
(21.2903 -0.134536 -1.69283)
(16.906 0.106355 -0.222452)
(39.9998 0.000279508 0.0408863)
(39.9919 0.000787467 0.121042)
(39.9738 0.00164379 0.202634)
(39.9406 0.00189878 0.285013)
(39.8869 0.00168514 0.368576)
(39.8145 0.00154232 0.45391)
(39.7267 0.00169707 0.541517)
(39.6235 0.00212669 0.631816)
(39.502 0.00271731 0.725149)
(39.3596 0.00333053 0.821803)
(39.1946 0.00384229 0.92203)
(39.0065 0.00418069 1.02614)
(38.7952 0.004316 1.13469)
(38.5609 0.00436539 1.24875)
(38.306 0.00440824 1.37027)
(38.0291 0.00483837 1.50168)
(37.7402 0.00609412 1.6433)
(37.3972 0.00744902 1.785)
(37.0065 0.00391271 1.84971)
(36.5891 0.00565305 1.91026)
(36.1638 0.00782991 2.00525)
(35.7052 0.00702672 2.11082)
(35.1593 0.00299895 2.25031)
(34.5761 -0.000884898 2.37886)
(33.9508 -0.00834175 2.4949)
(33.1735 -0.0120015 2.62075)
(32.2795 -0.00142308 2.80178)
(31.3155 0.00934355 3.1038)
(30.1773 0.00726559 3.46451)
(28.8157 0.00723456 3.79234)
(27.4315 0.0190352 3.85928)
(26.2109 0.0487813 3.51489)
(25.2454 0.0992828 2.64358)
(24.7212 0.216363 0.953884)
(25.243 0.449435 -1.27206)
(26.052 0.189639 -2.06053)
(27.1431 -0.00207294 -2.13136)
(27.4433 -0.00189878 -1.81186)
(27.0421 -0.141183 -1.26297)
(26.5163 0.000680697 -1.07693)
(25.3024 0.021915 -0.80292)
(25.1484 -0.184168 -0.478597)
(24.6365 -0.276545 -0.118491)
(24.2292 -0.272635 -0.196307)
(23.8787 -0.201732 -0.343836)
(23.4481 -0.0850936 -0.493515)
(23.1259 0.0934637 -0.585074)
(22.7891 0.198596 -0.361058)
(22.2269 0.113246 -0.0542113)
(21.6927 -0.0937134 -0.812916)
(20.0708 0.177743 -1.50361)
(19.9288 0.437516 -1.85606)
(21.7918 -0.0256961 -1.43683)
(19.1026 0.497272 -1.80733)
(39.9994 0.000274127 0.0486503)
(39.9915 0.000771825 0.144176)
(39.9744 0.00160648 0.241492)
(39.9437 0.00186263 0.340027)
(39.8925 0.00166453 0.440449)
(39.8227 0.00153025 0.54358)
(39.7381 0.00167564 0.650016)
(39.6385 0.00207649 0.76016)
(39.5215 0.00262011 0.874323)
(39.3841 0.00317264 0.99279)
(39.2247 0.00361688 1.11586)
(39.0429 0.00388681 1.24392)
(38.8389 0.00398624 1.37755)
(38.6136 0.00397403 1.51762)
(38.3685 0.00408645 1.66534)
(38.1052 0.00437721 1.82209)
(37.8298 0.00581296 1.98682)
(37.5345 0.00554446 2.16385)
(37.1991 0.00643954 2.30113)
(36.7904 0.00945772 2.40165)
(36.3394 0.0118823 2.48056)
(35.7728 0.00656817 2.60664)
(35.2027 -0.000715761 2.80117)
(34.6056 -0.00768317 3.03675)
(33.9057 -0.0192122 3.28268)
(33.0431 -0.0213625 3.5382)
(31.9171 -0.00722512 3.76306)
(30.7077 0.0117008 4.13449)
(29.4736 0.0154848 4.67064)
(28.1188 0.0177497 5.10744)
(26.7262 0.0369667 5.12589)
(25.3316 0.0887971 4.56073)
(23.7261 0.202706 3.2532)
(22.2525 0.536284 0.843114)
(21.4387 1.05904 -1.0091)
(5.86491 0.0776226 1.80594)
(10.7596 -0.558576 1.10247)
(10.7529 -0.827673 1.11843)
(12.1938 -1.52516 3.07967)
(14.2842 -0.491526 -1.17793)
(16.8783 -0.174401 -0.431972)
(16.9019 -0.808565 2.11256)
(17.0856 -0.777138 2.27173)
(17.423 -0.654091 1.84068)
(17.6408 -0.515348 1.38194)
(17.3809 -0.46846 1.15351)
(17.2878 -0.224112 1.14439)
(17.0561 0.211088 1.24195)
(16.6483 0.296434 1.3535)
(15.5154 0.200623 1.22908)
(13.5306 0.117328 1.00166)
(12.4981 0.32689 0.493849)
(15.5672 0.00444445 -0.0111932)
(13.2878 -0.727285 -2.91633)
(39.9998 0.000274119 0.0486422)
(39.9921 0.00077185 0.14415)
(39.9746 0.0016065 0.241442)
(39.9427 0.00186286 0.339983)
(39.8911 0.00166409 0.44043)
(39.8217 0.00152868 0.543572)
(39.7376 0.00167389 0.649988)
(39.6385 0.00207488 0.760077)
(39.5215 0.00261874 0.874153)
(39.384 0.00317157 0.992515)
(39.2244 0.00361587 1.11548)
(39.0422 0.00388703 1.24344)
(38.838 0.0039919 1.37704)
(38.6126 0.00397799 1.5171)
(38.3678 0.00410894 1.66498)
(38.1053 0.00435703 1.82157)
(37.8285 0.00575552 1.98684)
(37.5382 0.00616298 2.15827)
(37.2134 0.00285311 2.29783)
(36.8127 0.00930734 2.43398)
(36.3614 0.0141402 2.53973)
(35.8274 0.00861748 2.67962)
(35.2121 -0.000417134 2.83819)
(34.5654 -0.00774148 3.036)
(33.8315 -0.0198958 3.26015)
(32.9213 -0.021158 3.52138)
(31.8601 -0.0065395 3.79662)
(30.7722 0.0106705 4.21437)
(29.5913 0.0133826 4.6952)
(28.2743 0.01541 5.09522)
(26.9514 0.0343351 5.13875)
(25.7162 0.0827014 4.68905)
(24.5665 0.188409 3.6395)
(23.7315 0.652565 1.72949)
(24.4423 2.27498 -0.756749)
(25.6001 3.68483 -2.76806)
(26.6724 3.39205 -2.61264)
(26.027 3.07746 -1.93954)
(24.8974 2.83523 -1.20051)
(24.6098 2.40013 -0.565621)
(21.7288 0.875243 0.00383159)
(21.2621 0.550617 0.407239)
(20.6643 0.570568 0.315354)
(20.3684 0.663828 -0.0213611)
(20.0037 0.762572 -0.389841)
(19.4492 0.780616 -0.63432)
(19.1769 1.06109 -0.916059)
(18.4073 1.47698 -0.588466)
(17.6555 1.49711 -0.066034)
(16.3124 1.30894 0.455478)
(16.0057 1.13198 0.414688)
(14.3104 1.46576 -1.01125)
(18.4279 1.27091 0.999111)
(11.5894 0.891723 -1.53535)
(39.9994 0.000271812 0.0561199)
(39.992 0.000764459 0.166477)
(39.9759 0.00159556 0.279004)
(39.9469 0.00185274 0.393212)
(39.8984 0.00166065 0.509797)
(39.832 0.0015269 0.629556)
(39.7513 0.00166065 0.75309)
(39.6561 0.00203693 0.880864)
(39.5438 0.00254614 1.01332)
(39.4115 0.00305932 1.15092)
(39.2579 0.00346547 1.29417)
(39.0823 0.00371107 1.44363)
(38.8854 0.00380361 1.59992)
(38.6681 0.00383965 1.76366)
(38.4321 0.00397104 1.9355)
(38.1793 0.00429681 2.11568)
(37.9108 0.00505552 2.30316)
(37.6288 0.00603098 2.49923)
(37.3248 0.00800806 2.67803)
(36.9813 0.00962129 2.86818)
(36.5844 0.00976388 3.05334)
(36.0787 0.00184911 3.28334)
(35.4966 -0.00290175 3.45549)
(34.826 -0.0126551 3.72127)
(34.1117 -0.0300739 4.14415)
(33.2228 -0.0371343 4.65045)
(32.0219 -0.00889684 5.06696)
(30.6548 0.0298901 5.4109)
(29.335 0.0361966 5.91892)
(27.9799 0.0316882 6.4116)
(26.5865 0.0544254 6.54483)
(25.0634 0.118917 6.1387)
(22.9485 0.295725 5.30254)
(21.332 0.874362 4.137)
(4.31218 0.570136 0.297978)
(3.52302 0.0216971 1.78968)
(3.74518 -0.446699 3.45303)
(0.32391 0.613626 -0.89375)
(2.8179 -0.657956 -0.0366819)
(-2.12435 -2.43371 -3.44075)
(7.32417 -1.34559 -1.38954)
(6.05866 -0.543577 -0.0936741)
(5.11111 0.107876 0.982627)
(5.65402 0.268983 0.953164)
(6.27752 0.286829 0.706623)
(5.37596 -0.00223834 0.442751)
(4.61151 -0.452178 0.518629)
(6.34826 -0.129041 -1.19885)
(7.63845 0.0472252 -1.76315)
(8.71895 -0.267506 -2.12126)
(9.71055 -0.56379 -2.38779)
(11.3965 -0.520348 -2.9721)
(16.0648 -0.0977359 -4.46617)
(17.9303 -0.925901 -6.88198)
(39.9998 0.000271804 0.0561104)
(39.9926 0.000764484 0.166445)
(39.9761 0.00159557 0.278937)
(39.946 0.00185297 0.393145)
(39.8971 0.00166021 0.50975)
(39.831 0.00152531 0.629517)
(39.7508 0.00165883 0.753028)
(39.656 0.00203517 0.88075)
(39.5438 0.00254463 1.01313)
(39.4114 0.00305764 1.15065)
(39.2575 0.00346549 1.29384)
(39.0816 0.00371343 1.44326)
(38.8844 0.00380661 1.59954)
(38.6672 0.00384385 1.76334)
(38.4315 0.00398193 1.9352)
(38.1792 0.00431286 2.11521)
(37.9116 0.00505112 2.30247)
(37.6302 0.00613313 2.49569)
(37.33 0.00785091 2.68852)
(36.9947 0.00964964 2.88818)
(36.5884 0.010481 3.09374)
(36.1415 0.00361177 3.31014)
(35.5154 -0.00472744 3.5377)
(34.8206 -0.0122563 3.7715)
(34.0398 -0.0306595 4.09717)
(33.0767 -0.037237 4.56349)
(31.8825 -0.00647305 4.94278)
(30.7183 0.0261016 5.43202)
(29.5061 0.0330155 5.98757)
(28.2 0.0277696 6.43125)
(26.8755 0.0515599 6.50388)
(25.5846 0.112578 6.13268)
(24.2245 0.319479 5.34997)
(22.9968 1.383 4.31624)
(24.6398 4.00762 3.66488)
(4.46925 0.0233143 1.82354)
(8.11038 0.296199 0.437114)
(7.31912 1.37705 0.428119)
(4.01516 1.13765 0.347171)
(2.54309 0.537274 -0.0323447)
(5.80353 0.0228455 0.462571)
(5.9829 0.621568 0.890533)
(5.5643 1.40396 1.50733)
(5.37218 1.73889 1.73591)
(6.02301 1.76249 1.34074)
(5.33586 1.53833 0.866495)
(4.00495 1.14476 1.0347)
(-2.42763 1.18967 6.12582)
(-1.99024 2.01961 5.29026)
(1.66996 2.83644 1.16476)
(4.3755 2.62344 -0.442836)
(5.39214 2.63457 -1.21034)
(9.908 3.69376 -1.62973)
(9.26969 1.39871 -3.92883)
(39.9995 0.000265005 0.0631953)
(39.9926 0.000742454 0.187672)
(39.9778 0.00154264 0.314573)
(39.9511 0.00179445 0.443517)
(39.9056 0.00161253 0.575292)
(39.8432 0.00148144 0.710797)
(39.7672 0.00160263 0.850772)
(39.6772 0.00195359 0.995849)
(39.5708 0.00243073 1.14664)
(39.4451 0.00291043 1.30375)
(39.2985 0.00329022 1.46778)
(39.1307 0.00351918 1.63927)
(38.9419 0.00360732 1.81863)
(38.7331 0.00365477 2.00603)
(38.5055 0.00372453 2.20124)
(38.2603 0.00406461 2.40351)
(37.9984 0.00452571 2.61158)
(37.721 0.00545211 2.8244)
(37.427 0.00585102 3.03982)
(37.1121 0.00558065 3.2633)
(36.7639 0.00395101 3.50522)
(36.3755 0.00235663 3.79891)
(35.9262 0.00453641 4.11334)
(35.3067 -0.00949897 4.47179)
(34.5725 -0.0325117 5.01979)
(33.8135 -0.0450566 5.73482)
(32.8329 -0.0154789 6.33213)
(31.5011 0.0464104 6.76551)
(29.9492 0.0740336 7.26108)
(28.3374 0.0557047 7.7463)
(26.9659 0.0533385 7.8125)
(25.6901 0.0772667 7.51451)
(24.2083 0.161396 7.37307)
(23.2035 0.672608 8.55674)
(20.1051 1.29112 11.8228)
(2.24507 0.0196917 1.84717)
(2.52877 0.0642203 0.0972393)
(-0.4044 -0.938707 -2.12707)
(0.479582 -2.08579 -0.34219)
(1.06374 -3.04372 -2.34833)
(-3.42259 -2.70018 -2.58338)
(-0.155137 -2.38694 -1.44382)
(0.0793514 -1.50165 -1.44143)
(1.68109 -0.903165 -0.578029)
(4.31387 -1.06478 -1.17558)
(6.81977 -1.64767 -2.33776)
(9.49348 -1.78724 -3.3614)
(12.8409 -1.5586 -4.45473)
(15.7209 -1.18335 -5.28596)
(17.9597 -0.938248 -5.88361)
(19.3156 -0.952542 -6.15394)
(20.2519 -0.928456 -6.21819)
(22.8222 -0.718199 -6.55165)
(22.4651 -0.638127 -7.53823)
(39.9999 0.000264999 0.0631855)
(39.9932 0.000742469 0.187638)
(39.978 0.00154268 0.314503)
(39.9502 0.00179454 0.443444)
(39.9044 0.00161268 0.575238)
(39.8423 0.0014816 0.71075)
(39.7667 0.00160312 0.850704)
(39.6771 0.00195316 0.995735)
(39.5707 0.00242876 1.14647)
(39.4449 0.00290782 1.30352)
(39.2981 0.00328908 1.46751)
(39.1299 0.00352057 1.63898)
(38.941 0.00360961 1.81834)
(38.7322 0.0036579 2.00574)
(38.5048 0.00372756 2.20091)
(38.2601 0.00407234 2.40306)
(37.9987 0.00453691 2.61079)
(37.7213 0.00545641 2.82265)
(37.4261 0.00592588 3.0376)
(37.1101 0.00565351 3.26025)
(36.7606 0.00405382 3.50837)
(36.3809 0.00235763 3.79594)
(35.9387 0.0055528 4.18475)
(35.3813 -0.00570234 4.50416)
(34.5463 -0.0365362 4.98634)
(33.6961 -0.0477638 5.6002)
(32.5062 -0.022208 6.14133)
(31.2022 0.0332681 6.71485)
(30.0132 0.0589142 7.28062)
(28.7328 0.0399768 7.72198)
(27.3315 0.0452207 7.81312)
(26.0329 0.0740422 7.47164)
(24.8294 0.171132 7.09515)
(23.3299 0.870699 7.53407)
(24.9687 3.08567 10.4518)
(21.1891 2.89348 10.3805)
(18.1708 1.93249 7.46875)
(14.2786 1.4731 4.62088)
(9.86284 0.843678 2.41676)
(2.65726 0.170349 -0.293673)
(-6.76147 2.07277 0.829772)
(-3.65872 2.12722 1.21477)
(-3.75091 1.42269 -0.320206)
(-1.77074 0.907747 -1.73885)
(-0.00323118 1.4163 -0.845024)
(-0.443879 1.61541 1.29116)
(1.94733 1.44718 0.943889)
(5.08187 1.43282 -0.038897)
(5.79238 1.65836 0.167934)
(8.29453 1.97652 -0.773779)
(9.74685 1.66101 -1.44753)
(11.6737 1.26534 -1.92023)
(15.6886 1.22083 -2.60915)
(16.7574 0.633304 -3.26675)
(39.9996 0.000262563 0.069783)
(39.9933 0.000733258 0.207501)
(39.9802 0.00152859 0.347821)
(39.956 0.00177931 0.490553)
(39.9143 0.00160122 0.636633)
(39.8566 0.00146944 0.787096)
(39.786 0.00158048 0.942822)
(39.7023 0.00191363 1.10459)
(39.6029 0.00236954 1.27314)
(39.4849 0.00282963 1.44919)
(39.3466 0.00319546 1.6334)
(39.1874 0.00341809 1.82621)
(39.0075 0.00350837 2.02778)
(38.8072 0.00353538 2.2378)
(38.5873 0.00361395 2.4553)
(38.3487 0.00384027 2.67898)
(38.0924 0.0041295 2.90684)
(37.8198 0.00461386 3.13806)
(37.5328 0.00493955 3.37203)
(37.234 0.00523292 3.61477)
(36.9242 0.00525161 3.87842)
(36.6048 0.00603135 4.19993)
(36.2766 0.00775051 4.59765)
(35.8858 0.0156319 5.12641)
(35.2461 0.00451427 5.83516)
(34.6302 -0.0117627 6.60392)
(33.9186 -0.0124604 7.2935)
(32.8793 0.0160749 8.06543)
(31.5303 0.0735665 8.82209)
(29.917 0.109881 9.33229)
(28.1587 0.107546 9.12662)
(26.3001 0.107384 8.59491)
(24.8459 0.118478 8.41239)
(23.2395 0.270632 9.20606)
(24.9154 0.920492 14.0527)
(20.5145 0.547467 12.631)
(15.5269 -0.230956 8.02179)
(11.1435 -1.24713 3.65325)
(7.77002 -1.92956 0.641172)
(7.41235 -2.58105 -1.09169)
(8.77989 -3.04678 -2.36665)
(10.4142 -3.04231 -3.11717)
(11.7323 -2.71012 -3.47315)
(13.1588 -2.17643 -3.88367)
(14.9238 -1.77882 -4.56873)
(16.9142 -1.68014 -5.38714)
(19.0122 -1.53856 -6.02561)
(21.0969 -1.32058 -6.59372)
(22.914 -1.07089 -7.10979)
(24.1015 -0.876737 -7.46431)
(24.595 -0.779338 -7.54377)
(24.4497 -0.688676 -7.31863)
(25.6288 -0.433281 -7.1943)
(23.989 -0.160293 -7.25006)
(40 0.000262557 0.0697729)
(39.9939 0.000733273 0.207465)
(39.9803 0.00152863 0.347747)
(39.9551 0.00177939 0.490472)
(39.913 0.00160138 0.63657)
(39.8556 0.00146963 0.78704)
(39.7855 0.00158104 0.942748)
(39.7021 0.00191333 1.10447)
(39.6028 0.00236763 1.27297)
(39.4847 0.00282726 1.44898)
(39.3462 0.00319355 1.63314)
(39.1867 0.00341438 1.82591)
(39.0066 0.00350545 2.02745)
(38.8062 0.00353582 2.2374)
(38.5865 0.00361152 2.45485)
(38.3482 0.00383649 2.67828)
(38.0921 0.00413221 2.90593)
(37.8196 0.00461528 3.13649)
(37.5324 0.00495448 3.3704)
(37.2332 0.00525785 3.61295)
(36.9233 0.00529286 3.87991)
(36.607 0.00595709 4.19525)
(36.2766 0.00806487 4.61037)
(35.946 0.0171763 5.10192)
(35.3759 -0.00362883 5.75763)
(34.6757 -0.018073 6.5175)
(33.72 -0.022822 7.32171)
(32.3836 0.00297665 8.02825)
(31.0622 0.0478168 8.60336)
(29.7915 0.0784061 9.06958)
(28.4538 0.0918155 9.26768)
(26.9778 0.077897 8.8277)
(25.3836 0.108623 8.32394)
(23.7602 0.155518 8.88132)
(23.9655 1.12846 11.4702)
(25.6017 1.74344 12.6119)
(25.5498 1.69775 11.217)
(23.7308 1.34708 8.83694)
(20.8711 1.03508 6.52289)
(17.7333 0.512398 4.35665)
(12.6222 0.291014 2.58003)
(9.20979 0.337539 1.17675)
(7.36411 0.521705 0.195006)
(7.48294 1.08321 -0.48916)
(8.48276 1.39634 -1.14455)
(10.4679 1.15687 -1.82383)
(13.3695 0.903134 -2.50794)
(16.4334 0.746669 -3.17927)
(19.0754 0.680047 -3.97712)
(20.9186 0.589228 -4.76489)
(21.8044 0.375737 -4.95256)
(22.4937 0.158783 -4.74152)
(24.0941 0.176163 -4.44886)
(24.0537 0.11845 -4.939)
(39.9997 0.000255449 0.0758004)
(39.9942 0.000709974 0.225729)
(39.9829 0.00147123 0.378378)
(39.9619 0.00171365 0.533814)
(39.9245 0.00154463 0.69315)
(39.8722 0.00141635 0.857564)
(39.808 0.00151746 1.02809)
(39.7316 0.00182907 1.20566)
(39.6403 0.00225711 1.39117)
(39.5313 0.00268939 1.58548)
(39.4026 0.0030261 1.78929)
(39.2532 0.00321666 2.00301)
(39.0827 0.00326543 2.22661)
(38.8911 0.00323551 2.45936)
(38.6785 0.00324168 2.69979)
(38.4452 0.00332117 2.94559)
(38.1926 0.00356227 3.19388)
(37.9233 0.0038068 3.44216)
(37.6431 0.00418828 3.68896)
(37.3602 0.0043732 3.93816)
(37.0933 0.00491943 4.20193)
(36.8434 0.00339299 4.5159)
(36.6503 0.00263345 4.93141)
(36.4746 0.0183375 5.49125)
(36.1423 0.044837 6.34615)
(35.6534 0.0460324 7.26851)
(34.8588 0.0231765 8.15818)
(33.9001 -0.000914448 9.19752)
(32.8444 3.11905e-05 10.1262)
(31.6929 0.0391797 10.8783)
(30.3433 0.0733306 11.2092)
(28.5552 0.0886865 10.97)
(26.4815 0.132006 10.1384)
(24.2967 0.0681942 9.73503)
(24.2271 0.296029 11.4022)
(25.2899 0.3652 12.3492)
(24.5233 -0.0120759 10.7626)