/*--------------------------------*- C++ -*----------------------------------*\
| =========                 |                                                 |
| \\      /  F ield         | OpenFOAM: The Open Source CFD Toolbox           |
|  \\    /   O peration     | Version:  4.1                                   |
|   \\  /    A nd           | Web:      www.OpenFOAM.org                      |
|    \\/     M anipulation  |                                                 |
\*---------------------------------------------------------------------------*/
FoamFile
{
    version     2.0;
    format      ascii;
    class       surfaceScalarField;
    location    "29";
    object      phi;
}
// * * * * * * * * * * * * * * * * * * * * * * * * * * * * * * * * * * * * * //

dimensions      [0 3 -1 0 0 0 0];

internalField   nonuniform List<scalar> 
11516
(
9.98751e+06
1933.19
11275
9.99179e+06
3039.17
19649.2
9.98358e+06
3813.23
29867.1
9.96336e+06
3527.75
39685
9.93085e+06
3153.09
49471.6
9.88621e+06
2841.01
59222.5
9.83055e+06
2615.26
68421.9
9.76596e+06
2511.75
76323.1
9.69514e+06
2512.89
82155.3
9.62046e+06
2505.28
85490.3
9.5441e+06
2265.2
85722.2
9.46671e+06
1596.02
82232.9
9.38738e+06
-302.006
76678.1
9.30052e+06
-3044.21
67004.7
9.19299e+06
-10143.6
68075.5
9.10254e+06
-9540.36
28613.5
8.99274e+06
-12796.1
26555.1
8.95459e+06
-11187
-27268
8.97376e+06
-9621.67
-63260.5
8.99096e+06
-797.841
-23357.4
8.97778e+06
-4337.06
34534.8
8.91265e+06
-1924.41
92136.7
8.82546e+06
-1234.93
123155
8.72353e+06
-1240.9
156256
8.60648e+06
-8564.12
181623
8.51973e+06
-19838.2
143749
8.52444e+06
-16376
35055.2
8.64703e+06
-8168.87
-118345
8.96474e+06
-5738.52
-337659
9.61216e+06
9340.53
-696929
1.06511e+07
42618.4
-1.09296e+06
1.19104e+07
91275.9
-1.34291e+06
1.30694e+07
120262
-1.23493e+06
1.39123e+07
98577.1
-860051
1.44793e+07
85520.8
-522254
1.47787e+07
-9823.57
-305270
1.45519e+07
28395.3
85492
1.40473e+07
24279.7
308068
1.33649e+07
76721.2
377233
1.27684e+07
121419
251054
1.25115e+07
91504.6
32662.1
1.22522e+07
50588.7
88326.6
1.17278e+07
20667.8
368585
1.0987e+07
92119.5
689739
1.0246e+07
29090.2
1.02081e+06
9.85858e+06
-113867
946511
9.47137e+06
-28110.1
1.12835e+06
8.98889e+06
-240639
1.19957e+06
8.26589e+06
-141488
1.36862e+06
7.97555e+06
239008
534449
5.37139e+06
1.34751e+06
1.11853e+06
1.02154e+07
687634
-6.75024e+06
1.63113e+07
-612753
-4.80173e+06
-1.51409e+06
-6.65958e+06
9.99033e+06
11239.8
9.9919e+06
19492.8
9.98286e+06
29527.6
9.96205e+06
39069
9.92928e+06
48498.2
9.88487e+06
57846.7
9.82997e+06
66613.2
9.7666e+06
74099.8
9.69729e+06
79593.9
9.62421e+06
82778.4
9.54916e+06
83085.1
9.47251e+06
80200.1
9.39177e+06
75568.9
9.30156e+06
69326
9.19346e+06
65352.1
9.08142e+06
52637.4
8.96714e+06
39811
8.93849e+06
-25680
8.96684e+06
-58615
8.9893e+06
-25450.2
8.9767e+06
19857.1
8.91532e+06
79512.4
8.81949e+06
123567
8.70972e+06
141175
8.5877e+06
141167
8.4847e+06
103472
8.4487e+06
19346.3
8.54373e+06
-117957
8.83514e+06
-323293
9.37687e+06
-552804
1.02375e+07
-845469
1.14154e+07
-1.08512e+06
1.26417e+07
-1.07222e+06
1.35996e+07
-824717
1.41799e+07
-509608
1.43169e+07
-211611
1.41195e+07
115073
1.36745e+07
281846
1.31854e+07
332403
1.28056e+07
325954
1.27788e+07
-25385.9
1.27966e+07
-135671
1.27301e+07
34204.5
1.25235e+07
282682
1.21021e+07
601628
1.17263e+07
563515
1.13931e+07
619346
1.07308e+07
835335
9.78311e+06
962408
9.78734e+06
583800
8.78251e+06
1.40901e+06
1.26916e+07
-2.62909e+06
1.72422e+07
-5.03942e+06
-9.89347e+06
1.00098e+07
1909.36
6172.82
1.00387e+07
2760.32
13369.6
1.00664e+07
3333.19
21692.8
1.00915e+07
2824.74
30784.6
1.01137e+07
2221.99
39840.2
1.01332e+07
1684.56
48656.8
1.01504e+07
1253.69
57273.1
1.01657e+07
975.2
65211.4
1.01787e+07
877.634
72682.4
1.01894e+07
903.44
78534.9
1.01967e+07
954.341
82736.6
1.01985e+07
884.547
84712.8
1.01929e+07
279.831
85619.9
1.01735e+07
-358.684
84234.7
1.01353e+07
-5073.9
95434.5
1.00587e+07
-5006.26
80131
9.87485e+06
550.897
157476
9.70619e+06
-1298.02
116051
9.57659e+06
-2891.6
60826.9
9.51761e+06
-2498.52
39338.4
9.49564e+06
1798.14
61207.1
9.47185e+06
1616.51
122635
9.41227e+06
465.405
191570
9.33005e+06
2358.44
244385
9.26188e+06
3112.6
251442
9.23071e+06
-4414.33
179010
9.2645e+06
-14608.7
6944.33
9.46143e+06
-29677.1
-300894
9.96963e+06
-51769.9
-810690
1.08162e+07
-56944.9
-1.50982e+06
1.18341e+07
-28389.5
-2.1155e+06
1.27011e+07
15097.1
-2.25448e+06
1.33007e+07
34230.2
-1.90251e+06
1.37476e+07
21974.1
-1.38578e+06
1.40973e+07
-28516.4
-957888
1.42205e+07
-74720.9
-460352
1.42061e+07
-206890
165368
1.41157e+07
-238964
422359
1.40552e+07
-166653
360958
1.40525e+07
-30218.8
111527
1.42528e+07
-106937
-215572
1.44975e+07
-243611
-100232
1.46795e+07
-304373
335601
1.47673e+07
-322747
815636
1.4829e+07
-357604
1.31208e+06
1.47478e+07
-415268
1.56202e+06
1.45354e+07
-408578
1.87866e+06
1.40317e+07
-268643
2.09143e+06
1.30597e+07
-281852
2.25492e+06
1.00267e+07
402907
2.3913e+06
3.77175e+06
-366815
7.23135e+06
-6.28035e+06
-370907
3.96407e+06
-6.39888e+06
-1.87921e+06
-2.21094e+06
-1.15407e+06
-3.48951e+06
1.00125e+07
6152.94
1.00385e+07
13257.9
1.00648e+07
21474.2
1.00886e+07
30467.7
1.01093e+07
39407.9
1.01274e+07
48074
1.01433e+07
56489.2
1.01573e+07
64193.4
1.01691e+07
71388.8
1.01786e+07
77005.4
1.01847e+07
81012.8
1.01857e+07
83091.3
1.01788e+07
84083.8
1.01592e+07
84643.9
1.01151e+07
92001.7
1.00288e+07
107353
9.881e+06
158975
9.71269e+06
127235
9.57541e+06
72439.7
9.50991e+06
40378.2
9.48665e+06
49687.1
9.46529e+06
107441
9.41308e+06
182105
9.32711e+06
235564
9.23874e+06
235807
9.16552e+06
169280
9.14528e+06
17941.8
9.26055e+06
-272010
9.58967e+06
-723229
1.03042e+07
-1.36263e+06
1.13824e+07
-1.99222e+06
1.24652e+07
-2.19161e+06
1.32574e+07
-1.86712e+06
1.37972e+07
-1.40988e+06
1.41728e+07
-991687
1.42293e+07
-452728
1.41163e+07
-118357
1.3934e+07
66806.9
1.37354e+07
233705
1.32658e+07
604767
1.34256e+07
-439006
1.36609e+07
-788460
1.395e+07
-758073
1.42898e+07
-467458
1.45775e+07
-49574.2
1.47728e+07
-34710.1
1.51222e+07
-11595.8
1.51876e+07
479791
1.50871e+07
641762
1.44483e+07
1.38759e+06
1.01363e+07
5.38677e+06
-29985.8
7.45058e+06
-5.18091e+06
-1.29378e+06
-5.60653e+06
1.00013e+07
1876.99
7584.65
1.00181e+07
2656.32
18237.5
1.00284e+07
3184.68
29771.8
1.0032e+07
2622.32
42074.2
1.00286e+07
1950.04
54151.7
1.00186e+07
1343.87
65645.6
1.00031e+07
857.279
76561
9.98247e+06
561.893
87344.8
9.95887e+06
503.554
96960.9
9.93248e+06
660.84
106007
9.9042e+06
970.039
113486
9.87386e+06
1340.5
119969
9.84105e+06
1601.06
125923
9.80138e+06
1158.95
133161
9.76028e+06
-413.919
142669
9.67448e+06
-5032.14
160406
9.60108e+06
-3431.03
209528
9.57801e+06
-4419.14
133906
9.56905e+06
1894.06
65553.6
9.57116e+06
2546.8
38859.7
9.56946e+06
2230.32
67895.1
9.5512e+06
1187.49
146612
9.50457e+06
-573.621
246039
9.42641e+06
-997.446
330741
9.32843e+06
-2579.61
356750
9.2231e+06
-10670.5
295515
9.15613e+06
-29632.7
99120.7
9.27769e+06
-54966.8
-378119
9.70508e+06
-72570.4
-1.19308e+06
1.03328e+07
-34661.2
-2.14459e+06
1.08659e+07
21079.8
-2.71464e+06
1.11094e+07
50295.4
-2.59718e+06
1.10932e+07
110629
-2.06547e+06
1.09019e+07
176398
-1.49982e+06
1.05092e+07
273129
-942745
1.00511e+07
180174
-266566
9.75596e+06
-14229.1
412299
9.49896e+06
-207210
902582
9.53989e+06
-247640
571975
9.89046e+06
-351210
50295.9
1.04501e+07
-286066
-567560
1.0907e+07
-443189
-296948
1.12995e+07
-711620
321053
1.18191e+07
-785642
847276
1.25259e+07
-879446
1.3e+06
1.3223e+07
-935931
1.66129e+06
1.40243e+07
-898273
1.94649e+06
1.43774e+07
-740052
2.37965e+06
1.40975e+07
-263937
2.69429e+06
1.37705e+07
-243602
2.91312e+06
1.7155e+07
-890754
4.78009e+06
1.9875e+07
-2.00907e+06
3.50537e+06
1.82312e+07
-2.85412e+06
2.68134e+06
-3.07907e+06
-2.36342e+06
1.0004e+07
7546.98
1.00179e+07
18165.2
1.0027e+07
29636.7
1.00296e+07
41878.6
1.00253e+07
53889.2
1.00146e+07
65311.5
9.99862e+06
76150
9.97785e+06
86861.7
9.95425e+06
96420.9
9.92796e+06
105467
9.89983e+06
113038
9.86958e+06
119743
9.83622e+06
126245
9.79616e+06
134446
9.74516e+06
145520
9.67267e+06
168732
9.60144e+06
208882
9.55746e+06
158652
9.55425e+06
77410.3
9.56058e+06
39960.2
9.55772e+06
59737.2
9.53889e+06
132955
9.49285e+06
233954
9.40784e+06
325548
9.28814e+06
357449
9.13816e+06
312736
9.00155e+06
125874
9.00733e+06
-345453
9.29707e+06
-1.12017e+06
9.93971e+06
-2.08987e+06
1.06441e+07
-2.72185e+06
1.10776e+07
-2.61658e+06
1.13081e+07
-2.05343e+06
1.14745e+07
-1.47666e+06
1.15877e+07
-902660
1.13336e+07
-35574.5
1.0983e+07
284716
1.05271e+07
469676
9.20926e+06
1.4567e+06
7.76511e+06
1.75384e+06
7.94395e+06
-996485
8.32535e+06
-1.8898e+06
8.15016e+06
-1.6557e+06
7.92448e+06
-1.37101e+06
7.81458e+06
-1.09818e+06
7.94649e+06
-1.26243e+06
8.51694e+06
-1.58655e+06
9.53766e+06
-1.27492e+06
1.10562e+07
-1.09805e+06
1.36222e+07
-1.29552e+06
1.77386e+07
522745
2.2558e+07
672621
2.04252e+07
-1.51322e+06
-6.48413e+06
1.00009e+07
1830.58
9393.72
1.00175e+07
2597.13
22876.6
1.00279e+07
3099.53
37503.3
1.00316e+07
2537.35
52994.5
1.00282e+07
1855.99
68256.2
1.00178e+07
1226.8
82765.4
1.00004e+07
705.592
97474.9
9.97739e+06
373.449
111749
9.94966e+06
287.924
125536
9.91836e+06
466.277
139226
9.88401e+06
869.578
152395
9.84715e+06
1498.6
165582
9.8093e+06
2246.4
178699
9.77016e+06
2848.21
191998
9.72791e+06
2322.82
205402
9.67291e+06
528.82
222516
9.62178e+06
-4828.71
245749
9.51467e+06
-4579.02
231806
9.46191e+06
3286.97
114087
9.44986e+06
2954.89
54414.2
9.45602e+06
1181.83
70620.6
9.45918e+06
284.474
154382
9.43385e+06
-139.201
283545
9.35686e+06
-1870.32
422741
9.21818e+06
-7520.86
518052
9.01191e+06
-20808.1
538153
8.80737e+06
-40512.7
351292
8.72592e+06
-42854.2
-266545
8.79185e+06
-34317.7
-1.25811e+06
8.84906e+06
-3271.93
-2.23876e+06
8.64801e+06
26457.3
-2.57197e+06
8.17743e+06
45082.5
-2.19775e+06
7.56985e+06
87966.6
-1.57961e+06
7.00616e+06
156730
-1.12082e+06
6.67284e+06
159869
-779338
6.53344e+06
25271.2
-111894
6.60444e+06
-379241
951204
7.06974e+06
-594485
1.47874e+06
7.59341e+06
-1.03442e+06
1.34131e+06
8.24374e+06
-838905
335600
8.81274e+06
-236150
-927562
9.07927e+06
-186230
-558751
8.89253e+06
-613002
558151
8.90457e+06
-951755
1.16617e+06
9.19589e+06
-1.00526e+06
1.55006e+06
9.71814e+06
-965648
1.75999e+06
1.06987e+07
-628599
1.51096e+06
1.19274e+07
-357928
1.62946e+06
1.30989e+07
38877.8
1.77733e+06
1.40069e+07
637582
2.07162e+06
1.65202e+07
257233
2.59815e+06
1.95546e+07
-1.43803e+06
2.06081e+06
2.2876e+07
-2.37523e+06
2.18309e+06
-1.14763e+06
-1.79085e+06
1.00034e+07
9382.55
1.00173e+07
22825.6
1.00266e+07
37339.1
1.00292e+07
52761.4
1.00249e+07
67990.3
1.00139e+07
82482.4
9.99604e+06
97186.3
9.97294e+06
111465
9.94536e+06
125264
9.91438e+06
138969
9.88051e+06
152170
9.84427e+06
165398
9.80671e+06
178593
9.76727e+06
192070
9.72225e+06
206216
9.66672e+06
222145
9.60168e+06
253543
9.50585e+06
243026
9.45123e+06
136291
9.43729e+06
62592.7
9.43945e+06
67059.4
9.43907e+06
143937
9.41145e+06
271398
9.32965e+06
414754
9.17045e+06
519907
8.92352e+06
549731
8.68037e+06
331255
8.58007e+06
-297672
8.65999e+06
-1.25624e+06
8.77023e+06
-2.22866e+06
8.6534e+06
-2.59722e+06
8.28265e+06
-2.2207e+06
7.8363e+06
-1.54209e+06
7.50629e+06
-1.00924e+06
7.55372e+06
-757136
7.66607e+06
71822.8
7.64619e+06
350601
7.00234e+06
1.03127e+06
5.57591e+06
2.34282e+06
5.56046e+06
1.03318e+06
6.50142e+06
-2.23405e+06
6.83054e+06
-2.65684e+06
5.79281e+06
-1.80617e+06
4.3257e+06
-1.4291e+06
3.26337e+06
-1.50042e+06
2.5954e+06
-1.87895e+06
2.43283e+06
-2.10585e+06
2.76127e+06
-1.74001e+06
3.80334e+06
-1.40076e+06
6.44993e+06
-2.51219e+06
9.63581e+06
-2.33337e+06
1.19362e+07
-2.23239e+06
8.66291e+06
-465118
-4.6571e+06
1.0001e+07
1802.82
11126.2
1.0017e+07
2571.12
27656.5
1.00268e+07
3075.64
45368.5
1.003e+07
2522.92
64105.1
1.0026e+07
1847.98
82645.9
1.00149e+07
1221.98
100493
9.99724e+06
705.198
118729
9.97402e+06
380.96
136628
9.94601e+06
309.7
154843
9.91445e+06
510.463
173275
9.88021e+06
954.925
191720
9.84439e+06
1646.68
210584
9.8086e+06
2568.96
228989
9.77322e+06
3410.51
246810
9.73427e+06
3798.37
263425
9.68218e+06
1124.71
278891
9.61737e+06
1327.41
302819
9.49023e+06
24.0163
349374
9.3584e+06
10237.5
239845
9.27728e+06
1697.68
147158
9.24649e+06
-1529.66
121326
9.2487e+06
-69.5236
176009
9.2377e+06
3091.76
308658
9.17271e+06
1502.56
505416
9.0197e+06
-7741.39
698559
8.75358e+06
-17222.1
844968
8.41144e+06
-22433.4
732432
8.07482e+06
-9437.76
85674
7.72109e+06
5524.66
-911885
7.22342e+06
9550.45
-1.75752e+06
6.54092e+06
11239
-1.90743e+06
5.77871e+06
20787
-1.46441e+06
5.07711e+06
42042.4
-930181
4.57351e+06
87062.3
-707768
4.36557e+06
209522
-769020
4.41729e+06
-250141
210650
4.70835e+06
-492786
1.74167e+06
5.43367e+06
-532264
1.87561e+06
6.09734e+06
-1.02255e+06
2.05599e+06
6.98552e+06
-653708
124822
7.63296e+06
-35576.2
-1.57679e+06
7.55894e+06
-5414.19
-768018
7.19387e+06
-322208
462786
7.04378e+06
-511761
1.10432e+06
6.67964e+06
-412656
1.74553e+06
6.49369e+06
-54804.6
1.72479e+06
7.04137e+06
181702
799362
8.19996e+06
62552
723446
9.51923e+06
140784
950237
1.14686e+07
100394
1.20095e+06
1.21685e+07
270450
2.119e+06
1.52587e+07
-1.39852e+06
1.12162e+06
1.75265e+07
-28240
-64397.8
1.2014e+06
-2.53474e+06
1.00035e+07
11055.1
1.00168e+07
27547.8
1.00255e+07
45177.7
1.00276e+07
63864.8
1.00227e+07
82383.1
1.0011e+07
100237
9.9929e+06
118505
9.9696e+06
136453
9.94174e+06
154730
9.9105e+06
173215
9.87676e+06
191700
9.8416e+06
210542
9.8065e+06
228756
9.77083e+06
246518
9.72997e+06
262873
9.67736e+06
280153
9.62178e+06
306806
9.52745e+06
336972
9.37993e+06
304037
9.27418e+06
187580
9.22752e+06
131857
9.21404e+06
176978
9.20304e+06
301262
9.13908e+06
493132
8.97062e+06
695729
8.69099e+06
826593
8.37471e+06
634636
8.07061e+06
1999.68
7.74769e+06
-925867
7.28233e+06
-1.75402e+06
6.63446e+06
-1.94052e+06
5.92647e+06
-1.49467e+06
5.32886e+06
-904772
5.00802e+06
-594150
5.13241e+06
-567842
5.56893e+06
-187135
5.67085e+06
285299
5.35119e+06
1.30653e+06
5.08191e+06
1.89117e+06
5.15888e+06
273435
5.3319e+06
-2.52838e+06
4.82975e+06
-2.50987e+06
3.87686e+06
-1.80609e+06
3.2811e+06
-1.94852e+06
3.31568e+06
-2.34873e+06
3.74109e+06
-2.50287e+06
4.35638e+06
-2.33966e+06
5.22087e+06
-1.75504e+06
6.2544e+06
-1.11774e+06
5.79278e+06
-1.20817e+06
4.9585e+06
-591840
-682153
2.24207e+06
-722489
-526460
-1.9598e+06
1.00011e+07
1724.4
12562.9
1.00164e+07
2484.15
32482
1.00255e+07
2937.12
53261.5
1.00282e+07
2388.31
75160.7
1.00241e+07
1729.88
96838.2
1.00129e+07
1126.35
118262
9.99525e+06
636.967
140015
9.97204e+06
338.239
161852
9.94436e+06
287.196
184384
9.91345e+06
488.051
207308
9.87983e+06
916.233
230950
9.84471e+06
1536.73
254757
9.80858e+06
2275.51
278279
9.77178e+06
3172.52
301585
9.73067e+06
3264.02
323413
9.6835e+06
3477.94
345968
9.63312e+06
2024.97
365565
9.58223e+06
8396.04
411373
9.44365e+06
15800.3
392553
9.28522e+06
1843.81
351528
9.16011e+06
-7317.45
313894
9.09971e+06
-5605.33
305074
9.05073e+06
2808.72
386279
8.98208e+06
6997.27
592511
8.84534e+06
-2945.73
868083
8.58189e+06
-2941.41
1.14657e+06
8.13838e+06
6387.7
1.20458e+06
7.5521e+06
19645.2
677833
6.85018e+06
30340.4
-221013
6.02061e+06
19821.3
-935691
5.11808e+06
13715.6
-1.01277e+06
4.2315e+06
34377.8
-612776
3.39607e+06
88713.4
-180346
2.46756e+06
297650
-70146.9
-98224
1.22389e+06
635707
145796
203594
131262
2.88017e+06
-57600.9
-35773.8
4.50081e+06
-271660
1.0177e+06
5.1514e+06
15325.9
1.54791e+06
5.87355e+06
232496
-969601
6.25919e+06
270188
-2.40857e+06
5.62888e+06
655146
-1.44944e+06
5.26485e+06
360091
-436847
4.78382e+06
329360
516467
3.96736e+06
440257
1.65633e+06
3.42533e+06
698690
1.53189e+06
3.13014e+06
751042
867814
4.22374e+06
361518
159883
5.9868e+06
280616
-18540.8
7.90818e+06
308161
-176298
9.5027e+06
481617
731821
1.29885e+07
740656
-2.86343e+06
1.35822e+07
1.73973e+06
-2.70907e+06
358247
-3.49163e+06
1.00035e+07
12537.3
1.00161e+07
32394.6
1.00242e+07
53029.9
1.00259e+07
74842.8
1.00209e+07
96492.3
1.0009e+07
117926
9.99105e+06
139721
9.96777e+06
161623
9.94022e+06
184227
9.90961e+06
207214
9.87639e+06
230878
9.84177e+06
254632
9.80617e+06
278004
9.76904e+06
300899
9.72787e+06
322746
9.67895e+06
344602
9.63089e+06
369156
9.60288e+06
397504
9.55064e+06
411821
9.39399e+06
397079
9.20701e+06
362185
9.09342e+06
338569
9.01632e+06
422887
8.93962e+06
596693
8.80069e+06
852222
8.5423e+06
1.10287e+06
8.14344e+06
1.05739e+06
7.61388e+06
565815
6.9392e+06
-208256
6.13179e+06
-918957
5.27912e+06
-1.0704e+06
4.50356e+06
-682957
3.91699e+06
-226581
3.7337e+06
-54278.9
5.04604e+06
-324941
5.63283e+06
-170603
5.73126e+06
529473
5.25562e+06
1.74265e+06
4.96749e+06
2.2166e+06
4.50738e+06
802902
3.78041e+06
-1.76421e+06
3.55205e+06
-2.0586e+06
3.88365e+06
-2.22998e+06
4.45555e+06
-2.4831e+06
4.81105e+06
-2.367e+06
5.0771e+06
-1.95709e+06
5.48454e+06
-1.55512e+06
5.9298e+06
-1.05923e+06
6.67213e+06
-710535
7.34932e+06
-873030
7.80853e+06
-155365
1.11386e+07
-274793
1.31163e+07
-768178
-1.78193e+06
1.00011e+07
1677.72
14002.4
1.00158e+07
2432.17
37309.9
1.00244e+07
2898.12
61044.6
1.00269e+07
2377.51
85949
1.00228e+07
1750.64
110685
1.00117e+07
1182.91
135677
9.99449e+06
732.817
160983
9.97178e+06
472.942
186814
9.94483e+06
450.29
213493
9.91403e+06
664.649
241492
9.88089e+06
1080.01
269686
9.84553e+06
1640.49
298614
9.80827e+06
2338.14
327632
9.76919e+06
3088.37
356543
9.72708e+06
3597.7
384966
9.68259e+06
4453.14
415053
9.63621e+06
4549.78
444172
9.6138e+06
10339.7
478764
9.57769e+06
5060.85
497598
9.5214e+06
5114.25
511799
9.4384e+06
6615.42
536431
9.2855e+06
16150
602474
9.11799e+06
-1278.26
654085
8.96149e+06
4036.21
789924
8.80408e+06
-7795.71
1.06598e+06
8.58484e+06
-2088.23
1.40751e+06
8.17656e+06
20310.6
1.63541e+06
7.45736e+06
27329.9
1.40995e+06
6.49737e+06
28201.2
739908
5.45025e+06
24591.7
103201
4.46744e+06
27122.7
-51551.6
3.56769e+06
52001.1
238859
2.5285e+06
150823
707510
192313
715225
1.56794e+06
-2.63562e+06
1.24543e+06
2.33343e+06
-2.68042e+06
8087.77
174965
-601106
494005
-2.13102e+06
574170
873706
-511251
1.88201e+06
619012
-288782
2.86652e+06
239281
-2.25719e+06
2.81279e+06
615191
-3.20979e+06
2.2407e+06
813343
-2.12541e+06
1.73065e+06
673988
-1.09083e+06
1.31762e+06
583280
-24824
1.74001e+06
564257
554027
2.90915e+06
525494
76494.4
3.92122e+06
521989
150454
4.88529e+06
282631
154600
5.96206e+06
356660
10256.7
7.20828e+06
248960
-283866
7.70995e+06
750226
755932
2.96042e+06
2.58988e+06
-204286
-5.10742e+06
3.34345e+06
2.40935e+06
1.01557e+06
-2.84993e+06
1.00035e+07
13919.3
1.00156e+07
37205.3
1.00232e+07
60841.5
1.00247e+07
85697.5
1.00197e+07
110425
1.0008e+07
135446
9.99044e+06
160810
9.96766e+06
186716
9.94086e+06
213469
9.91032e+06
241531
9.87751e+06
269760
9.84257e+06
298707
9.80564e+06
327737
9.76668e+06
356595
9.7245e+06
385486
9.6801e+06
415328
9.63774e+06
446613
9.60859e+06
478609
9.57955e+06
505378
9.53549e+06
527115
9.45409e+06
557910
9.31763e+06
616636
9.11504e+06
730609
8.94161e+06
810960
8.76942e+06
1.04744e+06
8.54119e+06
1.35498e+06
8.14419e+06
1.50434e+06
7.50482e+06
1.2546e+06
6.62222e+06
721528
5.6226e+06
118318
4.69031e+06
-103483
3.94299e+06
119221
3.40628e+06
472865
3.10143e+06
1.08206e+06
1.61714e+06
2.6e+06
596648
1.02845e+06
2.68723e+06
-848509
4.08823e+06
1.31087e+06
4.54683e+06
2.41642e+06
4.44827e+06
1.12095e+06
4.10054e+06
-873307
4.62975e+06
-1.8596e+06
5.21526e+06
-2.20907e+06
5.50145e+06
-2.22872e+06
5.5809e+06
-1.85212e+06
5.75558e+06
-1.35845e+06
6.19263e+06
-896139
6.71219e+06
-409111
7.38354e+06
-101750
8.18264e+06
-421552
9.39192e+06
114225
1.14497e+07
827600
1.40072e+07
395150
-1.57335e+06
1.00013e+07
1584.66
15136.4
1.00153e+07
2358.84
42030.4
1.00236e+07
2763.81
68688
1.0026e+07
2253.03
96526.7
1.0022e+07
1653.56
124349
1.00115e+07
1118.42
152666
9.9952e+06
698.52
181395
9.97325e+06
455.656
211487
9.94688e+06
424.185
242496
9.9172e+06
604.537
274920
9.88424e+06
960.694
308486
9.84868e+06
1471.59
343017
9.81087e+06
2165.02
378387
9.77088e+06
2980.7
414600
9.7296e+06
4153.73
451770
9.68702e+06
5167.17
490200
9.64813e+06
7394.68
530313
9.61496e+06
9704.15
571625
9.58066e+06
10330.2
612995
9.5386e+06
12233.8
662239
9.49022e+06
15243.3
728430
9.45016e+06
22015.2
824641
9.35318e+06
12822.8
950320
9.164e+06
9254.12
1.08478e+06
8.96069e+06
-7864.67
1.32565e+06
8.77787e+06
-8553.37
1.64114e+06
8.55557e+06
8356.22
1.92097e+06
8.01823e+06
46865
2.02679e+06
6.96545e+06
78854.1
1.83145e+06
5.67774e+06
57035.7
1.42476e+06
4.6318e+06
40422.2
995127
3.87271e+06
40942.9
972538
3.28957e+06
88155.6
1.21092e+06
2.35262e+06
600074
1.94859e+06
415169
1.12401e+06
3.27669e+06
-201515
2884.7
1.04063e+06
-298160
76592
-1.24952e+06
807123
-7977.18
-1.0965e+06
2.65383e+06
-234647
-1.49964e+06
3.6699e+06
-482533
-2.40707e+06
3.91757e+06
-204114
-2.85302e+06
4.18588e+06
332056
-2.33349e+06
4.32822e+06
621055
-1.57424e+06
4.82712e+06
637953
-1.03074e+06
5.79027e+06
564181
-910100
6.46638e+06
481247
-810321
7.12281e+06
499270
-381181
7.89546e+06
440597
496.697
8.56885e+06
462762
343172
8.90289e+06
548778
583970
9.31482e+06
482709
1.12811e+06
7.82447e+06
1.00507e+06
1.6845e+06
8.36081e+06
1.33109e+06
1.75703e+06
1.3093e+06
-3.02917e+06
1.00034e+07
15106.1
1.00151e+07
41943.8
1.00224e+07
68458.8
1.00239e+07
96211.3
1.0019e+07
124017
1.0008e+07
152365
9.99132e+06
181163
9.9693e+06
211348
9.94304e+06
242459
9.91356e+06
274972
9.88088e+06
308608
9.84566e+06
343183
9.80822e+06
378570
9.76868e+06
414868
9.72751e+06
452036
9.68647e+06
490935
9.64823e+06
531623
9.61489e+06
574186
9.57981e+06
618844
9.5402e+06
667679
9.49428e+06
736198
9.45163e+06
828527
9.36134e+06
976288
9.18028e+06
1.09648e+06
8.95759e+06
1.33507e+06
8.74142e+06
1.60968e+06
8.45497e+06
1.89724e+06
7.90927e+06
1.91404e+06
7.07752e+06
1.68041e+06
6.01191e+06
1.29136e+06
4.97505e+06
1.0219e+06
4.23728e+06
929126
3.76642e+06
1.06474e+06
4.02419e+06
1.51878e+06
5.17898e+06
2.66823e+06
4.29424e+06
2.02449e+06
3.2418e+06
404498
3.84395e+06
858169
4.76004e+06
1.50758e+06
5.20275e+06
445769
5.40184e+06
-1.03676e+06
5.89024e+06
-1.79893e+06
6.3444e+06
-1.88639e+06
6.48205e+06
-1.6381e+06
6.49463e+06
-1.17037e+06
6.63992e+06
-727782
7.02641e+06
-196933
7.58759e+06
315802
8.36459e+06
664200
8.86121e+06
728127
9.21022e+06
1.14713e+06
9.63751e+06
2.16892e+06
9.14403e+06
2.62631e+06
51805.3
1.00012e+07
1535.01
16266.1
1.0015e+07
2312.48
46607.8
1.00231e+07
2745.94
76057.6
1.00257e+07
2275.76
106636
1.00222e+07
1718.05
137411
1.00125e+07
1226.16
168990
9.99696e+06
849.574
201339
9.9764e+06
644.18
235346
9.95121e+06
640.324
271025
9.92233e+06
835.305
308330
9.89034e+06
1208.49
347227
9.85521e+06
1756.53
388151
9.81768e+06
2520.11
430532
9.77884e+06
3577.91
474515
9.73917e+06
4921.84
520835
9.70043e+06
6629.23
569446
9.66442e+06
8950.74
621636
9.63165e+06
11602.4
676573
9.60032e+06
14643.2
737030
9.56888e+06
17759.6
806864
9.54191e+06
21661.3
896327
9.53365e+06
25749
1.01274e+06
9.51875e+06
19051.8
1.17707e+06
9.43024e+06
26661.3
1.36521e+06
9.23283e+06
18085.4
1.61912e+06
9.00122e+06
2164.16
1.93163e+06
8.94194e+06
4616.65
2.1827e+06
8.86557e+06
39988.6
2.38556e+06
8.31825e+06
120890
2.5722e+06
7.14308e+06
179923
2.69683e+06
5.73428e+06
138157
2.44504e+06
4.64041e+06
49858.9
2.12328e+06
3.99535e+06
70768.2
1.85431e+06
3.90394e+06
325890
1.83548e+06
4.20148e+06
461024
2.65025e+06
3.80948e+06
-106103
1.69133e+06
3.22278e+06
-598932
210038
3.71505e+06
-634014
-513303
4.57997e+06
-604804
-1.21713e+06
5.30908e+06
-557832
-1.94376e+06
5.78959e+06
-325183
-2.29277e+06
6.30965e+06
22908.7
-2.16431e+06
6.87785e+06
206379
-1.80022e+06
7.42983e+06
123930
-1.4367e+06
7.84191e+06
11589.6
-1.23318e+06
8.07272e+06
39681.8
-1.00722e+06
8.41164e+06
147052
-610153
8.94029e+06
205293
-224019
9.5315e+06
260708
195448
9.90982e+06
255328
631642
1.07276e+07
297936
796127
1.11756e+07
480876
1.40222e+06
8.8654e+06
1.01536e+06
3.45061e+06
2.48392e+06
2.25844e+06
1.00034e+07
16184.3
1.00148e+07
46546.5
1.0022e+07
75901.8
1.00236e+07
106446
1.00193e+07
137235
1.00091e+07
168872
9.99326e+06
201313
9.97263e+06
235432
9.94755e+06
271232
9.91888e+06
308660
9.88716e+06
347694
9.85238e+06
388786
9.8153e+06
431387
9.77695e+06
475680
9.73795e+06
522360
9.70026e+06
571616
9.66535e+06
624153
9.63394e+06
680093
9.60361e+06
741065
9.57408e+06
810749
9.55037e+06
898324
9.53239e+06
1.01179e+06
9.51641e+06
1.17404e+06
9.45156e+06
1.35937e+06
9.34335e+06
1.62041e+06
9.17627e+06
1.92226e+06
9.08509e+06
2.19952e+06
8.78022e+06
2.41827e+06
8.25422e+06
2.46607e+06
7.44143e+06
2.43679e+06
6.34513e+06
2.40003e+06
5.22057e+06
2.21232e+06
4.45533e+06
2.01867e+06
4.63475e+06
1.79228e+06
5.78109e+06
2.06391e+06
5.87455e+06
1.91898e+06
4.79248e+06
1.05125e+06
4.57515e+06
719892
5.33688e+06
567284
6.08676e+06
-382473
6.5092e+06
-1.26978e+06
6.89788e+06
-1.68584e+06
7.20818e+06
-1.64118e+06
7.25056e+06
-1.35088e+06
7.16519e+06
-982182
7.14619e+06
-574302
7.31322e+06
-27248.4
7.79605e+06
373060
8.53381e+06
632048
9.08578e+06
868607
9.93445e+06
996389
1.10415e+07
1.74378e+06
1.11966e+07
3.43811e+06
2.48192e+06
1.00014e+07
1444.01
17127.7
1.00149e+07
2286.55
51023.7
1.00231e+07
2658.25
83180.3
1.00261e+07
2203.61
116414
1.00233e+07
1683.83
150046
1.00148e+07
1235.94
184827
1.00008e+07
901.618
220758
9.98176e+06
727.34
258806
9.95838e+06
740.839
299084
9.93112e+06
944.175
341647
9.90044e+06
1345.27
386619
9.86689e+06
1970.87
434487
9.83116e+06
2899.22
485003
9.79426e+06
4229.71
538436
9.7576e+06
5932.87
594987
9.72267e+06
8178.43
655214
9.69052e+06
10556
718834
9.66377e+06
13804.2
786613
9.64229e+06
16948.8
858618
9.62839e+06
20106.8
937292
9.63073e+06
22696.6
1.03153e+06
9.65865e+06
22987.9
1.14512e+06
9.67786e+06
13809.3
1.33819e+06
9.72236e+06
31079
1.53695e+06
9.65062e+06
54266
1.85147e+06
9.47692e+06
52196.2
2.23364e+06
9.37823e+06
67325.3
2.49631e+06
9.28664e+06
52841.3
2.71185e+06
9.16468e+06
57929.4
2.91866e+06
8.82016e+06
107492
3.21218e+06
7.96153e+06
153218
3.42078e+06
6.75512e+06
195224
3.36929e+06
5.65814e+06
204358
2.94097e+06
5.1138e+06
182316
2.41974e+06
5.47681e+06
172982
2.29068e+06
5.61425e+06
-5156.68
1.77967e+06
5.54311e+06
-255468
915439
5.78832e+06
-327370
163001
6.20081e+06
-301882
-543722
6.58058e+06
-236947
-1.14503e+06
6.95372e+06
-94486.4
-1.53312e+06
7.3991e+06
46022.2
-1.67312e+06
7.88244e+06
56836.1
-1.64659e+06
8.37321e+06
-79075.7
-1.52366e+06
8.74877e+06
-213403
-1.4257e+06
8.99765e+06
-189491
-1.32467e+06
9.27895e+06
-96805.4
-1.15325e+06
9.62802e+06
-60581.5
-843543
1.01339e+07
-100270
-467715
1.07773e+07
-134758
-57401.8
1.14857e+07
-16743.4
-126170
1.25854e+07
292827
-13648
1.38068e+07
243669
1.67625e+06
690364
2.36978e+06
1.00034e+07
17095.7
1.00146e+07
50954.4
1.0022e+07
82993.3
1.00241e+07
116156
1.00206e+07
149790
1.00116e+07
184629
9.99726e+06
220659
9.9782e+06
258837
9.95492e+06
299258
9.92788e+06
341970
9.89748e+06
387094
9.86434e+06
435131
9.82915e+06
485850
9.79294e+06
539539
9.75719e+06
596459
9.72313e+06
657007
9.69267e+06
721265
9.66683e+06
789444
9.64671e+06
862070
9.63379e+06
941225
9.63345e+06
1.03468e+06
9.65024e+06
1.15115e+06
9.67891e+06
1.31364e+06
9.71902e+06
1.53142e+06
9.73281e+06
1.84661e+06
9.68404e+06
2.21993e+06
9.59799e+06
2.54876e+06
9.45912e+06
2.79468e+06
9.2249e+06
2.93475e+06
8.86825e+06
3.07294e+06
8.34195e+06
3.24096e+06
7.62694e+06
3.26957e+06
6.90189e+06
3.07962e+06
6.3713e+06
2.62332e+06
6.52463e+06
2.19596e+06
6.73392e+06
1.84329e+06
6.50609e+06
1.25263e+06
6.55455e+06
725295
7.08015e+06
290549
7.50959e+06
-426583
7.83016e+06
-1.04361e+06
8.12508e+06
-1.38563e+06
8.38626e+06
-1.46669e+06
8.48165e+06
-1.3652e+06
8.4113e+06
-1.16182e+06
8.35721e+06
-884176
8.54944e+06
-525158
8.94169e+06
-243020
9.44403e+06
-85724.1
9.98224e+06
43897.7
1.07928e+07
-19605.3
1.21959e+07
376083
1.35074e+07
2.46657e+06
2.95669e+06
1.00014e+07
1398.79
17961.9
1.0015e+07
2257.09
55108.5
1.00235e+07
2673.51
89789.3
1.00272e+07
2269.03
125430
1.00256e+07
1798.1
161727
1.00186e+07
1399.09
199578
1.00063e+07
1112.47
239235
9.98951e+06
982.071
281147
9.96868e+06
1032.62
325906
9.94384e+06
1273.91
374125
9.91544e+06
1724.24
425650
9.88447e+06
2436.84
480729
9.85156e+06
3499.38
539924
9.81828e+06
5009.33
602992
9.78552e+06
6971.91
670779
9.75473e+06
9306.94
742747
9.72725e+06
11943.3
818736
9.70556e+06
14995.1
897756
9.69338e+06
17904.1
977881
9.69408e+06
21620.1
1.05999e+06
9.72603e+06
21499.9
1.14249e+06
9.75142e+06
29301.8
1.24422e+06
9.80019e+06
27001.6
1.39259e+06
9.94777e+06
34057.7
1.56574e+06
1.00224e+07
49230.7
1.95502e+06
9.96589e+06
72629.6
2.45132e+06
9.79591e+06
62234.9
2.82741e+06
9.61818e+06
48721.3
3.03829e+06
9.50607e+06
44314.3
3.16633e+06
9.48426e+06
54044.9
3.35056e+06
9.35691e+06
79044.7
3.6275e+06
8.89638e+06
134563
3.839e+06
8.08587e+06
159039
3.72886e+06
7.24003e+06
131925
3.26996e+06
6.86902e+06
125228
2.69396e+06
6.73498e+06
64193.8
2.06179e+06
6.70807e+06
-10475.8
1.30159e+06
6.86041e+06
-50988.7
612904
7.12687e+06
-58724.9
-12636.7
7.44442e+06
-21475.2
-596846
7.80407e+06
50211.6
-1.04692e+06
8.20191e+06
81833.8
-1.34706e+06
8.64754e+06
74694
-1.54137e+06
9.17028e+06
-21841
-1.66805e+06
9.64821e+06
-128176
-1.7174e+06
1.00172e+07
-222990
-1.67819e+06
1.03262e+07
-215861
-1.61017e+06
1.07249e+07
-120849
-1.53177e+06
1.11912e+07
-43567.7
-1.37308e+06
1.17127e+07
-107738
-1.03598e+06
1.22176e+07
-132093
-947121
1.2708e+07
-23630.5
-900648
1.54463e+07
-223746
-427175
-327206
459957
1.00034e+07
17890.4
1.00148e+07
55109.1
1.00224e+07
89712
1.00253e+07
125339
1.0023e+07
161676
1.00156e+07
199613
1.0003e+07
239393
9.98617e+06
281454
9.96545e+06
326376
9.94085e+06
374772
9.91278e+06
426493
9.88226e+06
481807
9.84997e+06
541297
9.81747e+06
604709
9.78561e+06
672931
9.75593e+06
745330
9.72968e+06
821803
9.70916e+06
900985
9.69736e+06
981636
9.70016e+06
1.06373e+06
9.72263e+06
1.14917e+06
9.78088e+06
1.24698e+06
9.87487e+06
1.38034e+06
9.99765e+06
1.57329e+06
1.00835e+07
1.98455e+06
1.00312e+07
2.49193e+06
9.90852e+06
2.87084e+06
9.7896e+06
3.07846e+06
9.67065e+06
3.2027e+06
9.55609e+06
3.338e+06
9.43711e+06
3.52549e+06
9.2341e+06
3.68229e+06
8.87882e+06
3.66457e+06
8.35702e+06
3.35407e+06
7.96319e+06
2.80574e+06
7.80155e+06
2.20804e+06
7.70865e+06
1.55792e+06
7.79925e+06
929614
8.13549e+06
370821
8.44221e+06
-219856
8.71897e+06
-742863
9.00721e+06