/*--------------------------------*- C++ -*----------------------------------*\
| =========                 |                                                 |
| \\      /  F ield         | OpenFOAM: The Open Source CFD Toolbox           |
|  \\    /   O peration     | Version:  4.1                                   |
|   \\  /    A nd           | Web:      www.OpenFOAM.org                      |
|    \\/     M anipulation  |                                                 |
\*---------------------------------------------------------------------------*/
FoamFile
{
    version     2.0;
    format      ascii;
    class       surfaceScalarField;
    location    "83";
    object      phi;
}
// * * * * * * * * * * * * * * * * * * * * * * * * * * * * * * * * * * * * * //

dimensions      [0 3 -1 0 0 0 0];

internalField   nonuniform List<scalar> 
11516
(
9.98765e+06
17.2711
9232.64
9.96801e+06
39.0943
19947.4
9.93913e+06
52.8614
29194.8
9.90141e+06
55.7039
38023.9
9.85479e+06
56.953
46927.3
9.79902e+06
59.3114
56092.6
9.73377e+06
57.7065
65573.5
9.65881e+06
54.5712
75311.7
9.57398e+06
57.68
85196
9.47905e+06
57.7895
95315
9.37415e+06
60.4639
105297
9.26021e+06
70.3011
114367
9.13908e+06
-28.9703
121670
9.01557e+06
-162.906
124233
8.90021e+06
-1544.59
117520
8.80804e+06
-2456.33
95248.1
8.75622e+06
-910.069
53400.7
8.75351e+06
-417.194
3653.7
8.7554e+06
59.9133
-1526.21
8.71733e+06
1199.95
37192.4
8.64658e+06
-1107.47
72136.8
8.54468e+06
-4829.6
107000
8.41808e+06
-7883.8
134727
8.27399e+06
-10449.8
154782
8.11391e+06
-12482.6
172786
7.95714e+06
-14126.2
171119
7.81608e+06
-12011.8
153292
7.69654e+06
-7076.64
126799
7.59664e+06
-6760.96
106778
7.51181e+06
-11553.3
96426.2
7.4243e+06
-19548.3
107079
7.3012e+06
-27795.8
150889
7.14492e+06
-27564.3
183860
6.99948e+06
-14360.2
159839
6.90688e+06
1307.58
91370.4
6.83102e+06
6556.17
69269.9
6.74359e+06
5514.56
81712.9
6.6579e+06
2730.62
82515.4
6.58845e+06
1327.29
67540.2
6.54576e+06
2567.36
39600.8
6.52381e+06
4852.04
16678.4
6.51057e+06
7056.4
5816.88
6.49943e+06
7739.21
3195.02
6.49698e+06
8352.76
-6044.3
6.50704e+06
9208.3
-19288.9
6.52828e+06
9908.72
-30940.4
6.55555e+06
12385.3
-39101.6
6.59418e+06
13860.9
-51605.8
6.63817e+06
13113.4
-56846
6.69728e+06
15106.1
-73781.9
6.76416e+06
10477.6
-77373.1
6.81223e+06
6275.73
-54508.1
6.86031e+06
4217.62
-52327.5
6852.2
-54108.5
9.98767e+06
9232.72
9.96801e+06
19951.5
9.9391e+06
29206.7
9.90138e+06
38032.4
9.85477e+06
46928.3
9.799e+06
56096.3
9.73376e+06
65567.1
9.6588e+06
75295.8
9.57398e+06
85177.1
9.47907e+06
95279.7
9.37418e+06
105281
9.26024e+06
114355
9.13872e+06
121860
9.01393e+06
125019
8.89331e+06
119514
8.79578e+06
95561
8.74619e+06
49157.6
8.74991e+06
-3794.85
8.75698e+06
-6744.22
8.72121e+06
37175
8.65108e+06
69203.8
8.55093e+06
95497.4
8.42513e+06
118078
8.27821e+06
136631
8.11081e+06
155072
7.94421e+06
152621
7.79215e+06
140197
7.65782e+06
127377
7.54105e+06
110088
7.44633e+06
83221.3
7.36578e+06
61004.5
7.26805e+06
69952.2
7.13639e+06
104062
6.98863e+06
133395
6.86921e+06
120653
6.76686e+06
108733
6.65884e+06
113250
6.55907e+06
102087
6.47651e+06
83438.8
6.41882e+06
59774.9
6.38085e+06
42504.1
6.35475e+06
32892.6
6.33393e+06
28349.2
6.32622e+06
15940.3
6.33388e+06
1553.38
6.35872e+06
-14753.7
6.39332e+06
-21823.8
6.43713e+06
-29710.3
6.48984e+06
-39272.7
6.57054e+06
-65616.7
6.66233e+06
-81374.9
6.72925e+06
-60716.3
6.78636e+06
-53070.8
-61494.1
1.00059e+07
17.0963
5382.64
1.00118e+07
39.7616
14387.4
1.00179e+07
51.4957
23433.1
1.00237e+07
54.5525
32582.6
1.0029e+07
58.2463
41935.7
1.00338e+07
60.2679
51629.5
1.00379e+07
60.4869
61749.6
1.00414e+07
62.0249
72155.5
1.00435e+07
64.0697
83497.4
1.00441e+07
73.2406
95066.2
1.00426e+07
77.3659
107202
1.00379e+07
71.1449
119509
1.0028e+07
146.214
132000
1.00091e+07
263.418
143409
9.96808e+06
1750.93
157383
9.89407e+06
2081.06
167731
9.76798e+06
2145.9
178012
9.5737e+06
1241.61
196948
9.35873e+06
-1018.56
214585
9.17051e+06
-1373.55
226873
9.00682e+06
209.139
235707
8.86602e+06
1872.62
246008
8.73752e+06
3215.39
260081
8.61182e+06
4379.74
276169
8.49033e+06
5031.5
289317
8.36757e+06
5758.74
288194
8.23984e+06
6369.03
274758
8.09529e+06
7932.63
263514
7.94165e+06
11798
248698
7.79021e+06
14740.4
233168
7.64131e+06
17894.9
238093
7.50827e+06
21222.8
262697
7.406e+06
17868.3
268214
7.32769e+06
7257.53
230812
7.26412e+06
-6056.79
160767
7.20064e+06
-20201.7
152641
7.13142e+06
-29265
179725
7.06102e+06
-31167.3
183515
6.98202e+06
-28829.2
174939
6.91802e+06
-24027.1
127217
6.86853e+06
-24054.1
89955.9
6.82058e+06
-30521.9
83990
6.78661e+06
-34627.6
71483.7
6.77092e+06
-36803.6
46253.5
6.76976e+06
-38629.4
20455.6
6.77961e+06
-39051
-1572.57
6.79804e+06
-40792.6
-16378.9
6.82044e+06
-42377.1
-31430
6.84188e+06
-47733.5
-30491.3
6.87903e+06
-59062.9
-52077
6.91377e+06
-38900.4
-73521.4
6.96225e+06
-20842.5
-82534.8
7.02942e+06
-14182.2
-105729
-10317.9
-120947
1.0006e+07
5382.46
1.00118e+07
14388
1.00179e+07
23433.4
1.00237e+07
32581
1.0029e+07
41931.8
1.00338e+07
51626.1
1.00379e+07
61746.8
1.00414e+07
72151.4
1.00435e+07
83497.1
1.00441e+07
95058.5
1.00426e+07
107194
1.00378e+07
119540
1.00283e+07
131920
1.00104e+07
143561
9.97739e+06
154718
9.91022e+06
165287
9.77944e+06
182493
9.58032e+06
196715
9.35975e+06
212877
9.17171e+06
223899
9.01083e+06
230354
8.87048e+06
237771
8.74343e+06
248397
8.62026e+06
264228
8.50324e+06
277184
8.38515e+06
276543
8.26027e+06
271540
8.12641e+06
269259
7.9912e+06
257183
7.85689e+06
232332
7.70714e+06
228680
7.54867e+06
249613
7.41864e+06
251921
7.34211e+06
217048
7.29476e+06
161717
7.25471e+06
128142
7.21426e+06
123974
7.16784e+06
116898
7.12013e+06
101872
7.09473e+06
60872.5
7.0751e+06
37823.9
7.05077e+06
26425.6
7.03384e+06
10428.6
7.02571e+06
-12877.5
7.0261e+06
-37480.3
7.03185e+06
-59425
7.04276e+06
-73333.5
7.05229e+06
-81458.6
7.05747e+06
-92302.3
7.03981e+06
-107224
7.03479e+06
-115365
7.07726e+06
-124380
7.1305e+06
-120785
-165247
9.99924e+06
16.7792
6812.57
9.99412e+06
40.5491
19822.9
9.98496e+06
52.5849
32913.5
9.97172e+06
55.7536
46125.1
9.95447e+06
58.8008
59497.4
9.93325e+06
60.294
73161.3
9.90831e+06
58.306
87016.6
9.87909e+06
56.4114
101722
9.84642e+06
58.481
116529
9.8096e+06
65.2203
132254
9.76911e+06
72.3853
148096
9.72459e+06
90.0616
164441
9.67552e+06
120.273
181489
9.62003e+06
260.202
199227
9.56007e+06
326.092
217671
9.48747e+06
858.266
240200
9.40348e+06
669.46
261906
9.31692e+06
1191.52
282438
9.22091e+06
523.182
310131
9.11287e+06
543.134
334433
8.99588e+06
957.711
351817
8.87771e+06
1629.25
362625
8.76055e+06
2597.71
374718
8.64256e+06
4204.95
390027
8.52123e+06
4945.68
405785
8.3928e+06
6307.2
410416
8.24949e+06
8942.43
409269
8.08278e+06
12181.7
418190
7.89844e+06
14415.5
418754
7.70235e+06
13141.1
416215
7.49321e+06
11343.3
435947
7.29441e+06
14531.7
446954
7.11748e+06
24692
420382
6.97174e+06
35388.1
340896
6.89209e+06
28038.7
212058
6.8266e+06
-459.365
218178
6.73829e+06
-19367.6
286963
6.63792e+06
-20963.9
304588
6.54453e+06
-14786.8
282943
6.50494e+06
-3830.86
170605
6.48847e+06
-11543
117907
6.46236e+06
-24493.3
134425
6.44277e+06
-30580
121523
6.4423e+06
-31882.5
78538.6
6.45486e+06
-32150.3
40089.8
6.47487e+06
-31184.7
9773.36
6.50675e+06
-31752.4
-16439.8
6.54782e+06
-32656.2
-39906.4
6.60973e+06
-34963.2
-57722.4
6.67944e+06
-31070.6
-91145.9
6.7308e+06
-15930.5
-109049
6.77587e+06
-9267.06
-118570
6.81218e+06
-14403.8
-128072
-16206.3
-158017
9.99926e+06
6811.86
9.99412e+06
19820.7
9.98494e+06
32911.9
9.97171e+06
46123.3
9.95446e+06
59495.2
9.93325e+06
73159.1
9.9083e+06
87014.6
9.87907e+06
101720
9.84639e+06
116525
9.80958e+06
132249
9.76908e+06
148090
9.72464e+06
164431
9.6756e+06
181461
9.62066e+06
199173
9.55853e+06
217644
9.48572e+06
239442
9.40568e+06
263572
9.31771e+06
285987
9.22158e+06
309568
9.11524e+06
330832
9.00007e+06
346543
8.88385e+06
355678
8.76841e+06
366505
8.64939e+06
387517
8.52717e+06
404414
8.39885e+06
411275
8.25815e+06
421309
8.10203e+06
437684
7.93006e+06
443704
7.73573e+06
439921
7.52341e+06
452374
7.32553e+06
462024
7.16445e+06
437577
7.05386e+06
362784
6.99565e+06
247512
6.92897e+06
193741
6.85499e+06
178118
6.77581e+06
175003
6.69496e+06
168231
6.65051e+06
101708
6.62305e+06
53732.9
6.5848e+06
40112.4
6.56071e+06
3929.78
6.55293e+06
-36925.1
6.55574e+06
-72329.1
6.56676e+06
-101532
6.5892e+06
-127586
6.62303e+06
-148256
6.66515e+06
-169928
6.71799e+06
-191418
6.76713e+06
-180572
6.8126e+06
-179460
6.85444e+06
-177525
-220614
9.99887e+06
16.2455
8690.6
9.99374e+06
38.2344
25258.8
9.98477e+06
50.6839
42188.5
9.97179e+06
53.9772
59401.9
9.95468e+06
56.6575
76909.1
9.9335e+06
58.1513
94656.1
9.90748e+06
56.286
113355
9.87705e+06
54.9942
132484
9.8418e+06
58.2084
152129
9.80168e+06
65.9491
172741
9.75618e+06
74.7986
193989
9.70469e+06
88.4472
216341
9.64688e+06
98.3552
239734
9.58238e+06
160.347
264158
9.50973e+06
182.719
290799
9.42968e+06
660.301
320278
9.33804e+06
342.305
353749
9.24057e+06
324.002
379826
9.15038e+06
442.004
399970
9.06203e+06
864.602
422002
8.96754e+06
1234.87
445171
8.8652e+06
1279.89
463803
8.75036e+06
1182.3
488506
8.62388e+06
1550.24
515073
8.48647e+06
1128.93
542171
8.33374e+06
1062.59
562230
8.15792e+06
2889.25
582361
7.95113e+06
4543.88
620590
7.70761e+06
3281.57
659146
7.43767e+06
3099.25
683179
7.17709e+06
4200.21
692378
6.95034e+06
7080.19
666626
6.7672e+06
13862.6
589595
6.66689e+06
24442.5
416670
6.66854e+06
21785.8
188490
6.64457e+06
-22309.5
264225
6.54516e+06
-51946.8
438082
6.42071e+06
-59837.5
489165
6.29724e+06
-57180.9
464127
6.2515e+06
-24969.7
241614
6.23061e+06
-14110.5
152975
6.20539e+06
-22630.6
182338
6.18807e+06
-24991.9
164032
6.19173e+06
-24008.3
99103.2
6.20855e+06
-22176.4
45595.2
6.23342e+06
-20129
4930.3
6.26612e+06
-18359.1
-31225.8
6.30697e+06
-16258.8
-65359.8
6.37114e+06
-14076.9
-108916
6.44222e+06
-25783.6
-137362
6.52418e+06
-27694.6
-163970
6.60214e+06
-19957.9
-177407
6.68547e+06
-21032.1
-191006
-10022.7
-185947
9.99889e+06
8691.01
9.99374e+06
25258.6
9.98476e+06
42185.7
9.97178e+06
59398.5
9.95467e+06
76905.7
9.93349e+06
94652.2
9.90747e+06
113350
9.87704e+06
132478
9.84178e+06
152123
9.80166e+06
172735
9.75617e+06
193984
9.7047e+06
216333
9.64691e+06
239729
9.58255e+06
264108
9.51011e+06
290725
9.43076e+06
319925
9.34131e+06
353746
9.24266e+06
385152
9.15215e+06
400601
9.06433e+06
419592
8.97013e+06
442063
8.86612e+06
461081
8.74874e+06
485160
8.62186e+06
516033
8.48495e+06
542533
8.32909e+06
568298
8.14854e+06
604865
7.94073e+06
650133
7.70251e+06
685319
7.44228e+06
703315
7.19631e+06
702576
6.98359e+06
681819
6.80516e+06
629812
6.69241e+06
499850
6.68074e+06
280760
6.64498e+06
206799
6.57728e+06
193845
6.47948e+06
213559
6.38139e+06
209911
6.33077e+06
127995
6.2963e+06
74150.9
6.261e+06
52887.8
6.23566e+06
4510.05
6.22811e+06
-53244.6
6.23633e+06
-102677
6.25909e+06
-144568
6.29517e+06
-182416
6.34691e+06
-216911
6.40235e+06
-240231
6.47328e+06
-288788
6.5492e+06
-284486
6.62705e+06
-277904
6.71598e+06
-288055
-289905
9.99889e+06
16.0809
10546.4
9.99384e+06
38.5527
30602.7
9.98506e+06
50.0898
51259.1
9.97237e+06
52.667
72376.1
9.95567e+06
55.0658
93894.5
9.93485e+06
56.6207
115776
9.90976e+06
54.9944
138748
9.88044e+06
53.7102
162121
9.8463e+06
56.5721
186603
9.80729e+06
63.0601
212103
9.76312e+06
71.0233
238526
9.71346e+06
78.0641
266399
9.6583e+06
90.6043
295335
9.5967e+06
100.287
326227
9.52849e+06
184.247
359466
9.45364e+06
204.837
395626
9.37028e+06
938.456
436940
9.26885e+06
1138.73
480710
9.16174e+06
951.039
506346
9.05872e+06
1182.31
524044
8.95812e+06
2024.21
543939
8.85012e+06
1657.44
570380
8.72552e+06
344.615
612947
8.581e+06
-489.844
660227
8.41786e+06
-2901.85
708337
8.22627e+06
-3986.09
757959
8.00488e+06
-1614.27
805526
7.75763e+06
475.371
867492
7.48899e+06
-974.759
928866
7.21752e+06
-1636.84
956383
6.97029e+06
468.518
939204
6.75462e+06
5382.24
876973
6.58468e+06
12227.4
747358
6.49817e+06
25908.1
477294
6.54966e+06
55152.6
81863.6
6.45226e+06
-53739.4
415178
6.33203e+06
-160189
718297
6.18554e+06
-181348
817584
6.0389e+06
-187680
799087
5.99839e+06
-123204
405720
5.98159e+06
-51566.9
221399
5.95504e+06
-45545.5
254574
5.9675e+06
-36824.3
188720
5.97941e+06
-37000.1
124515
5.99779e+06
-38221.7
65727.9
6.02875e+06
-37592.9
11801.6
6.06996e+06
-35468.6
-36936.5
6.12299e+06
-35749.6
-82759.4
6.18093e+06
-31634.1
-135635
6.24414e+06
-42527.2
-159324
6.31576e+06
-42666.4
-194250
6.38397e+06
-24642.8
-222259
6.44871e+06
-22714.9
-234145
-12631.5
-210696
9.99891e+06
10545.5
9.99383e+06
30599.1
9.98505e+06
51256.1
9.97236e+06
72373.2
9.95566e+06
93891.2
9.93484e+06
115772
9.90975e+06
138743
9.88042e+06
162116
9.84628e+06
186597
9.80727e+06
212098
9.76311e+06
238522
9.71346e+06
266394
9.65832e+06
295328
9.59672e+06
326207
9.52866e+06
359424
9.45372e+06
395572
9.37216e+06
436746
9.27731e+06
481552
9.17093e+06
508219
9.06537e+06
526589
8.96103e+06
548640
8.84501e+06
578967
8.71407e+06
616584
8.57004e+06
659678
8.40393e+06
705843
8.2075e+06
760846
7.99208e+06
818761
7.75622e+06
886548
7.5006e+06
940041
7.24015e+06
962205
7.00019e+06
943077
6.79561e+06
891846
6.64575e+06
791954
6.58788e+06
583677
6.63092e+06
293049
6.62129e+06
162808
6.51466e+06
140451
6.37216e+06
175111
6.22659e+06
168445
6.16485e+06
66844
6.12998e+06
57549.8
6.1014e+06
36128.1
6.10147e+06
-32133.5
6.11715e+06
-105675
6.1439e+06
-167374
6.18197e+06
-219971
6.22916e+06
-264916
6.27681e+06
-300384
6.32387e+06
-319395
6.34375e+06
-351763
6.37038e+06
-354348
6.43118e+06
-364338
6.48394e+06
-364218
-339333
9.99892e+06
15.3268
12343
9.99398e+06
34.8126
35826.5
9.98544e+06
46.4411
60072.9
9.97317e+06
49.5717
84921.7
9.95716e+06
52.1721
110181
9.93698e+06
53.7925
136232
9.9128e+06
52.1906
163224
9.88432e+06
50.8211
190899
9.85136e+06
53.3565
219887
9.81387e+06
59.4038
249932
9.77122e+06
66.6465
281531
9.72355e+06
73.2271
314456
9.67045e+06
82.4329
348863
9.61177e+06
89.8186
385391
9.54774e+06
133.453
424002
9.47848e+06
201.574
465431
9.4061e+06
640.662
509557
9.32646e+06
1433.35
559856
9.22991e+06
2111
601502
9.11715e+06
1805.62
635688
8.99345e+06
2261.6
665993
8.85991e+06
587.578
703918
8.725e+06
-1464.28
749566
8.57551e+06
-2904.88
812816
8.39373e+06
-6257.61
896566
8.16732e+06
-6229.84
990832
7.90495e+06
-2419.17
1.07052e+06
7.63617e+06
2051.31
1.13439e+06
7.36927e+06
2235.96
1.19369e+06
7.10765e+06
1593.19
1.21657e+06
6.85842e+06
3620.02
1.18498e+06
6.62191e+06
10817.6
1.10285e+06
6.38501e+06
24914.7
959523
6.12262e+06
91440.2
648365
5.61279e+06
380890
211098
5.0766e+06
253092
698237
4.81851e+06
64347.5
911792
4.91079e+06
-47273.2
772335
5.12616e+06
-156798
740758
5.30109e+06
-192773
423845
5.37657e+06
-108731
254740
5.45992e+06
-89608.2
261178
5.5054e+06
-52548.9
196231
5.55216e+06
-52189.5
130578
5.60263e+06
-51718.5
67970.3
5.65252e+06
-47591.1
10795.7
5.69997e+06
-39602.5
-43478.9
5.75221e+06
-33735.6
-100397
5.79399e+06
-25184.6
-152295
5.82847e+06
-1898.64
-192967
5.84927e+06
15858.1
-232459
5.8663e+06
31396
-272720
5.86999e+06
46661.4
-285802
61292.3
-321082
9.99894e+06
12343.5
9.99397e+06
35826.6
9.98543e+06
60069.3
9.97316e+06
84917.2
9.95715e+06
110177
9.93698e+06
136227
9.91279e+06
163218
9.88431e+06
190892
9.85134e+06
219880
9.81385e+06
249926
9.77121e+06
281525
9.72355e+06
314450
9.67046e+06
348856
9.61178e+06
385379
9.54781e+06
423988
9.47879e+06
465319
9.40726e+06
509537
9.33352e+06
557429
9.2431e+06
601471
9.13157e+06
640567
9.00543e+06
677571
8.86827e+06
717179
8.72245e+06
761276
8.56096e+06
818403
8.37083e+06
889861
8.14521e+06
980368
7.90388e+06
1.05779e+06
7.65334e+06
1.13925e+06
7.39376e+06
1.20197e+06
7.13664e+06
1.22104e+06
6.899e+06
1.18447e+06
6.69071e+06
1.11109e+06
6.51397e+06
993715
6.40507e+06
784361
6.68896e+06
390898
6.8543e+06
250640
6.80176e+06
257207
6.69468e+06
234856
6.55559e+06
150749
6.29789e+06
131884
6.09155e+06
155273
6.00983e+06
28398.4
5.99961e+06
-74218.8
5.97612e+06
-133939
5.93835e+06
-180631
5.89459e+06
-222941
5.85006e+06
-259174
5.80422e+06
-287870
5.76605e+06
-306579
5.73999e+06
-328386
5.73232e+06
-332042
5.72321e+06
-325025
5.70475e+06
-299861
-265259
9.99896e+06
15.0515
14072.8
9.99422e+06
35.4795
40842
9.98605e+06
46.1004
68506
9.97433e+06
48.4324
96905.3
9.95903e+06
50.5947
125736
9.93973e+06
52.0052
155797
9.91656e+06
50.4628
186665
9.88924e+06
49.213
218507
9.85775e+06
51.7095
251672
9.8213e+06
57.4948
286704
9.78042e+06
64.186
322742
9.73455e+06
70.7616
360697
9.68343e+06
77.5136
400395
9.62732e+06
88.4235
441960
9.56633e+06
108.085
485519
9.50106e+06
181.962
531254
9.43212e+06
310.888
579063
9.36253e+06
798.193
629681
9.28539e+06
793.055
679028
9.19437e+06
-18.2946
728022
9.08323e+06
11.0559
778517
8.94602e+06
-680.04
843036
8.79358e+06
-1972.85
904687
8.63436e+06
-5569.37
977887
8.44787e+06
-9920.95
1.0932e+06
8.21274e+06
-10620.4
1.23682e+06
7.93229e+06
-1526.5
1.35276e+06
7.63551e+06
6595.9
1.42483e+06
7.34577e+06
5950.09
1.4777e+06
7.06594e+06
3810.4
1.49278e+06
6.80263e+06
7517.72
1.44096e+06
6.53742e+06
16085.4
1.35215e+06
6.16716e+06
43918.4
1.28597e+06
5.1829e+06
250620
1.38213e+06
4.0465e+06
354139
993750
4.02116e+06
11646.6
711925
4.01947e+06
46788.6
866033
3.81993e+06
152789
817820
3.8671e+06
77186
615027
4.01962e+06
-54238.4
324259
4.27077e+06
-46118.5
48845.8
4.43446e+06
56258.8
40452.5
4.49696e+06
98325.5
34986.8
4.53857e+06
102030
-12807.6
4.56571e+06
110537
-68726.5
4.57452e+06
127909
-124390
4.56741e+06
148594
-183331
4.54934e+06
168188
-249348
4.53229e+06
185925
-320955
4.5297e+06
201103
-392180
4.55212e+06
205156
-461823
4.61334e+06
201134
-536838
4.71887e+06
196495
-589156
159250
-708267
9.99899e+06
14071.4
9.99421e+06
40837.2
9.98604e+06
68501.7
9.97431e+06
96901.2
9.95902e+06
125731
9.93972e+06
155792
9.91655e+06
186658
9.88923e+06
218500
9.85774e+06
251664
9.82128e+06
286697
9.78041e+06
322735
9.73455e+06
360689
9.68344e+06
400386
9.62734e+06
441948
9.56638e+06
485508
9.50123e+06
531175
9.43272e+06
578991
9.363e+06
628683
9.2872e+06
678905
9.1988e+06
729869
9.09319e+06
784171
8.96401e+06
846648
8.80303e+06
920967
8.62714e+06
988972
8.42278e+06
1.08449e+06
8.18041e+06
1.21228e+06
7.91969e+06
1.31717e+06
7.65317e+06
1.4125e+06
7.37884e+06
1.48239e+06
7.10614e+06
1.4977e+06
6.85306e+06
1.44521e+06
6.62653e+06
1.35378e+06
6.40184e+06
1.26241e+06
6.20404e+06
1.23324e+06
5.47643e+06
1.47251e+06
4.45948e+06
1.27893e+06
3.93339e+06
829160
3.82648e+06
493365
3.74342e+06
309808
3.66449e+06
155471
3.68071e+06
92033
3.69673e+06
67929.2
3.71556e+06
4951.62
3.74071e+06
-56842.8
3.77455e+06
-103177
3.81758e+06
-136943
3.87011e+06
-162003
3.93227e+06
-181135
4.00764e+06
-195972
4.09031e+06
-210671
4.18587e+06
-223662
4.29589e+06
-235289
4.42762e+06
-235976
-250128
9.99902e+06
13.8982
15696.8
9.99454e+06
30.4822
45576.9
9.98682e+06
40.9832
76469.1
9.97575e+06
43.8894
108220
9.9612e+06
46.2418
140528
9.94303e+06
47.6923
174209
9.92128e+06
46.169
208673
9.89524e+06
44.7992
244809
9.865e+06
46.9687
282195
9.83061e+06
52.1225
321380
9.79135e+06
58.2272
362314
9.74732e+06
64.119
405076
9.69838e+06
70.7062
449727
9.64441e+06
80.9299
496378
9.58576e+06
95.9409
544696
9.52272e+06
136.455
594887
9.45608e+06
176.061
646392
9.38705e+06
277.048
699446
9.31382e+06
-9.25118
753421
9.23452e+06
-554.316
809155
9.14548e+06
-963.043
869846
9.04507e+06
-352.737
945231
8.91595e+06
574.131
1.03447e+06
8.75717e+06
-4074.74
1.14141e+06
8.57849e+06
-11141.5
1.28326e+06
8.37605e+06
-13444.8
1.45293e+06
8.13052e+06
-2856.82
1.60153e+06
7.81336e+06
10574.4
1.73207e+06
7.45703e+06
14087.8
1.82057e+06
7.11621e+06
5358.51
1.82874e+06
6.83572e+06
5437.59
1.71623e+06
6.59645e+06
9632.66
1.58187e+06
6.36588e+06
10991.2
1.50552e+06
6.11493e+06
87140.6
1.54562e+06
4.76585e+06
318915
2.02295e+06
3.51797e+06
343330
1.61549e+06
2.89466e+06
299327
1.18738e+06
2.66602e+06
258766
784162
2.51815e+06
233282
525585
2.33077e+06
199353
308186
2.1301e+06
164842
80702.9
2.09032e+06
158615
-81565.9
2.13437e+06
159687
-170501
2.23386e+06
153587
-266122
2.4039e+06
142197
-379916
2.6443e+06
129476
-492465
2.94124e+06
117956
-596322
3.27709e+06
107732
-691498
3.63582e+06
96938.3
-775978
4.00526e+06
85922.2
-848006
4.37965e+06
73116.1
-910535
4.75089e+06
58457.1
-968210
5.13681e+06
41834.7
-1.01816e+06
20230.1
-1.09208e+06
9.99904e+06
15697.5
9.99453e+06
45577
9.98681e+06
76464.7
9.97573e+06
108215
9.96119e+06
140522
9.94303e+06
174203
9.92127e+06
208666
9.89523e+06
244801
9.86498e+06
282187
9.8306e+06
321372
9.79134e+06
362306
9.74732e+06
405068
9.69838e+06
449717
9.64443e+06
496365
9.58579e+06
544679
9.52278e+06
594845
9.45622e+06
646337
9.38663e+06
699261
9.31296e+06
753353
9.23376e+06
809379
9.14659e+06
871305
9.04953e+06
944309
8.92847e+06
1.04347e+06
8.76706e+06
1.14679e+06
8.56524e+06
1.27555e+06
8.33323e+06
1.43107e+06
8.05924e+06
1.58877e+06
7.77503e+06
1.70762e+06
7.48868e+06
1.78309e+06
7.18504e+06
1.80697e+06
6.88753e+06
1.74836e+06
6.63547e+06
1.61554e+06
6.39705e+06
1.51169e+06
6.17207e+06
1.54479e+06
6.16408e+06
1.79855e+06
5.86747e+06
1.91787e+06
5.33138e+06
1.66327e+06
4.82009e+06
1.26179e+06
4.42483e+06
936598
4.09816e+06
679821
3.86971e+06
483859
3.75655e+06
338623
3.70614e+06
214522
3.69497e+06
108031
3.71936e+06
15324.2
3.77991e+06
-67005.9
3.87528e+06
-138391
4.00187e+06
-199236
4.15353e+06
-250456
4.32413e+06
-295747
4.50948e+06
-336788
4.71207e+06
-380369
4.92709e+06
-409744
-470307
9.99909e+06
13.4876
17213.2
9.99493e+06
31.4202
49982.8
9.98775e+06
40.9128
83873.6
9.97745e+06
43.0525
118746
9.9639e+06
45.0205
154301
9.94695e+06
46.2304
191386
9.92641e+06
44.6401
229446
9.90218e+06
43.2529
269288
9.87371e+06
45.2789
310925
9.84102e+06
50.2486
354341
9.80397e+06
56.1504
399656
9.76191e+06
61.9864
447452
9.71487e+06
68.849
497141
9.66305e+06
78.1315
548631
9.60623e+06
90.9948
602028
9.54502e+06
111.217
656690
9.47971e+06
130.706
712380
9.41144e+06
151.558
768485
9.34097e+06
96.3637
824826
9.26846e+06
-3.00389
882794
9.19411e+06
-125.504
945498
9.11856e+06
310.553
1.02175e+06
9.0324e+06
1279.92
1.12061e+06
8.91248e+06
6858.89
1.25543e+06
8.75677e+06
3175.54
1.43626e+06
8.59213e+06
-4324.39
1.62214e+06
8.40412e+06
-5860.03
1.79635e+06
8.15505e+06
-834.783
1.98355e+06
7.83249e+06
13280.9
2.13134e+06
7.43347e+06
21864.4
2.20704e+06
6.99309e+06
18961.3
2.13823e+06
6.59188e+06
5636.73
1.9776e+06
6.27505e+06
1779.77
1.82027e+06
6.06849e+06
8169.15
1.74312e+06
5.96794e+06
119254
2.00307e+06
5.39742e+06
139632
2.04497e+06
4.69456e+06
103158
1.78526e+06
4.04558e+06
86821.1
1.3439e+06
3.56176e+06
82476.5
924086
3.25787e+06
66885.1
542313
3.10908e+06
33125.3
193806
3.11682e+06
2934.82
-94033.6
3.27804e+06
-13717
-318851
3.54285e+06
-27700.1
-503176
3.86712e+06
-41557.2
-661909
4.22027e+06
-51685.4
-792828
4.57719e+06
-56890.6
-895071
4.9215e+06
-61414.1
-973119
5.24483e+06
-67649
-1.0306e+06
5.5434e+06
-75861.1
-1.07006e+06
5.81353e+06
-85114.4
-1.09546e+06
6.05684e+06
-97316.5
-1.11437e+06
6.27028e+06
-105917
-1.12582e+06
-124626
-1.14062e+06
9.99911e+06
17211.4
9.99492e+06
49976.9
9.98774e+06
83868.2
9.97744e+06
118740
9.96389e+06
154295
9.94695e+06
191379
9.92641e+06
229439
9.90217e+06
269280
9.87369e+06
310917
9.841e+06
354332
9.80396e+06
399647
9.76191e+06
447443
9.71488e+06
497130
9.66306e+06
548617
9.60624e+06
602012
9.54502e+06
656667
9.47971e+06
712352
9.41133e+06
768428
9.34071e+06
824779
9.26808e+06
882775
9.19422e+06
945858
9.1189e+06
1.02079e+06
9.04326e+06
1.12119e+06
8.94612e+06
1.25155e+06
8.79784e+06
1.42753e+06
8.60609e+06
1.61908e+06
8.35373e+06
1.83621e+06
8.05189e+06
2.00936e+06
7.74171e+06
2.10716e+06
7.42163e+06
2.14947e+06
7.0597e+06
2.12962e+06
6.66357e+06
2.01724e+06
6.27941e+06
1.89723e+06
5.97944e+06
1.85227e+06
5.97383e+06
1.92261e+06
6.03899e+06
1.99141e+06
5.9475e+06
1.85673e+06
5.72682e+06
1.56786e+06
5.4854e+06
1.25899e+06
5.26796e+06
962724
5.09818e+06
685574
4.9941e+06
444786
4.95225e+06
242264
4.96192e+06
70728.7
5.01231e+06
-76151.9
5.09597e+06
-201597
5.20986e+06
-308239
5.34775e+06
-397547
5.50043e+06
-469865
5.65907e+06
-529540
5.81449e+06
-576885
5.96662e+06
-629602
6.10002e+06
-648839
-754379
9.99918e+06
12.0561
18583.6
9.99538e+06
25.3931
53994.3
9.98883e+06
34.5594
90625.4
9.97942e+06
37.2567
128355
9.96703e+06
39.3501
166898
9.95148e+06
40.5144
207143
9.93258e+06
38.844
248559
9.91009e+06
37.3202
291997
9.88373e+06
39.0275
337514
9.85322e+06
43.6645
385106
9.81821e+06
49.0125
434924
9.77851e+06
54.6044
487451
9.73373e+06
60.9384
542262
9.68357e+06
69.9497
599196
9.62829e+06
82.0761
657791
9.56798e+06
97.3684
717568
9.50351e+06
115.064
777493
9.43597e+06
131.175
836720
9.36757e+06
145.011
893991
9.30152e+06
87.0355
949713
9.24236e+06
91.6792
1.00563e+06
9.19285e+06
-335.344
1.0726e+06
9.1509e+06
157.073
1.1632e+06
9.09866e+06
7910.03
1.30063e+06
8.99669e+06
15993.3
1.52285e+06
8.8376e+06
11711.8
1.77013e+06
8.6218e+06
590.387
2.0128e+06
8.38202e+06
-4276
2.22892e+06
8.12136e+06
1369.61
2.39177e+06
7.81751e+06
9271.6
2.50249e+06
7.41286e+06
7857.33
2.53558e+06
6.90598e+06
3203.55
2.48142e+06
6.39943e+06
7173.04
2.31947e+06
5.97409e+06
-3180.86
2.17106e+06
5.85051e+06
15677.9
2.11009e+06
5.77576e+06
25887.1
2.09269e+06
5.59594e+06
32708.1
1.93081e+06
5.31125e+06
24770.2
1.60182e+06
5.03773e+06
1822.7
1.19359e+06
4.85131e+06
-36259
762861
4.77628e+06
-80447.6
347481
4.80884e+06
-115714
-12165.6
4.93019e+06
-138372
-302406
5.10895e+06
-155412
-526469
5.31478e+06
-167140
-700007
5.52684e+06
-172564
-831201
5.73059e+06
-172761
-924445
5.91695e+06
-171305
-986147
6.08278e+06
-171094
-1.02314e+06
6.22986e+06
-173739
-1.04134e+06
6.35601e+06
-177055
-1.04285e+06
6.46908e+06
-186821
-1.03954e+06
6.54779e+06
-184455
-1.01947e+06
-210354
-1.02692e+06
9.99919e+06
18584.3
9.99537e+06
53994.5
9.98882e+06
90620.5
9.97941e+06
128349
9.96702e+06
166892
9.95147e+06
207136
9.93257e+06
248551
9.91008e+06
291989
9.88372e+06
337505
9.8532e+06
385098
9.8182e+06
434916
9.77851e+06
487441
9.73373e+06
542251
9.68357e+06
599182
9.6283e+06
657775
9.56798e+06
717550
9.5035e+06
777472
9.43596e+06
836685
9.36752e+06
893980
9.3014e+06
949653
9.24177e+06
1.00626e+06
9.19136e+06
1.07155e+06
9.15207e+06
1.16129e+06
9.11552e+06
1.29651e+06
9.04812e+06
1.51151e+06
8.90009e+06
1.77953e+06
8.68321e+06
2.05452e+06
8.41481e+06
2.27429e+06
8.10738e+06
2.41661e+06
7.77047e+06
2.49615e+06
7.38761e+06
2.52058e+06
6.9321e+06
2.47597e+06
6.4488e+06
2.38749e+06
6.00968e+06
2.28776e+06
5.75127e+06
2.19605e+06
5.68311e+06
2.08457e+06
5.68598e+06
1.88544e+06
5.6795e+06
1.59778e+06
5.66813e+06
1.27086e+06
5.66092e+06
932503
5.66192e+06
603222
5.68155e+06
308880
5.72461e+06
60630.4
5.7866e+06
-146508
5.86336e+06
-319546
5.9498e+06
-459746
6.03955e+06
-569570
6.12565e+06
-653523
6.20328e+06
-717087
6.27159e+06
-770230
6.33314e+06
-814481
6.40265e+06
-885230
6.47139e+06
-901709
-1.14436e+06
9.99927e+06
11.5833
19810.8
9.9959e+06
26.5731
57567.5
9.99007e+06
34.7757
96636.5
9.98169e+06
36.7396
136926
9.97061e+06
38.5185
178161
9.95666e+06
39.5119
221273
9.93944e+06
37.8704
265981
9.91905e+06
36.4399
312586
9.89522e+06
38.2186
361556
9.86718e+06
42.8083
413374
9.83454e+06
48.1555
467812
9.79727e+06
53.5885
524994
9.75464e+06
59.6966
585199
9.70657e+06
68.3838
647646
9.65236e+06
79.7852
712451
9.59238e+06
93.2304
778081
9.52701e+06
107.938
843448
9.45805e+06
117.398
906315
9.38863e+06
132.025
964054
9.325e+06
113.404
1.01408e+06
9.27621e+06
184.766
1.05515e+06
9.25426e+06
222.513
1.09509e+06
9.26168e+06
1152.4
1.15526e+06
9.29739e+06
3327.56
1.26227e+06
9.27586e+06
10464.5
1.53451e+06
9.121e+06
11081.2
1.91474e+06
8.8677e+06
2748.39
2.26422e+06
8.58151e+06
-2413.29
2.51834e+06
8.2877e+06
-2032.17
2.68825e+06
7.9828e+06
191.68
2.80762e+06
7.63576e+06
-1234.68
2.88412e+06
7.21842e+06
-4934.52
2.9039e+06
6.7149e+06
-12885.6
2.83591e+06
6.19545e+06
-17248.4
2.70756e+06
5.7939e+06
-14563.7
2.52577e+06
5.58207e+06
-5045.27
2.3089e+06
5.47916e+06
4505.44
2.02833e+06
5.40631e+06
4209.76
1.66946e+06
5.35709e+06
-9348.66
1.25116e+06
5.35003e+06
-35720.9
804771
5.39057e+06
-67383
373652
5.47109e+06
-95806.7
2721.05
5.57752e+06
-117583
-291387
5.69896e+06
-132460
-515267
5.8238e+06
-140108
-684155
5.94319e+06
-143729
-805814
6.05184e+06
-145737
-885856
6.14881e+06
-149317
-931998
6.23622e+06
-156248
-952387
6.32051e+06
-167619
-956235
6.40508e+06
-177700
-948337
6.50639e+06
-194034
-945750
6.58763e+06
-176644
-923476
-214997
-961744
9.99929e+06
19808.7
9.99589e+06
57560.9
9.99006e+06
96630.4
9.98168e+06
136920
9.9706e+06
178155
9.95666e+06
221265
9.93943e+06
265972
9.91904e+06
312577
9.89521e+06
361547
9.86717e+06
413365
9.83453e+06
467802
9.79727e+06
524984
9.75465e+06
585186
9.70658e+06
647631
9.65237e+06
712433
9.59238e+06
778061
9.52701e+06
843428
9.45803e+06
906290
9.38862e+06
964060
9.32495e+06
1.01402e+06
9.27619e+06
1.05587e+06
9.25434e+06
1.09426e+06
9.26723e+06
1.15001e+06
9.30548e+06
1.26204e+06
9.29145e+06
1.53642e+06
9.14867e+06
1.93386e+06
8.91633e+06
2.2901e+06
8.64467e+06
2.54395e+06
8.34636e+06
2.7132e+06
8.01479e+06
2.82811e+06
7.63994e+06
2.89435e+06
7.20656e+06
2.9045e+06
6.72362e+06
2.85754e+06
6.23634e+06
2.75768e+06
5.81558e+06
2.60201e+06
5.51865e+06
2.37608e+06
5.34295e+06
2.06516e+06
5.26255e+06
1.68191e+06
5.26146e+06
1.2622e+06
5.32232e+06
835605
5.41666e+06
441266
5.52251e+06
107079
5.62755e+06
-162039
5.72566e+06
-376947
5.812e+06
-545602
5.88189e+06
-672640
5.93871e+06
-771092
5.99651e+06
-859426
6.07829e+06
-953896
6.2099e+06
-1.06839e+06
6.42465e+06
-1.20604e+06
6.73467e+06
-1.38866e+06
7.18536e+06
-1.52868e+06
-1.92168e+06
9.99938e+06
9.95419
20852.1
9.99648e+06
19.8423
60632.7
9.99147e+06
27.5361
101807
9.98424e+06
30.0228
144315
9.97446e+06
31.8884
188109
9.96252e+06
32.8021
233370
9.94762e+06
31.064
281049
9.92967e+06
29.4377
330717
9.90811e+06
30.9089
383302
9.88295e+06
34.9535
438736
9.85348e+06
39.8283
497495
9.81896e+06
44.3194
559750
9.77905e+06
49.7193
625374
9.7327e+06
57.0745
694324
9.67962e+06
67.6098
765930
9.61914e+06
80.4123
839036
9.55113e+06
92.5531
911996
9.47677e+06
106.028
981239
9.39965e+06
110.116
1.04178e+06
9.32841e+06
189.065
1.08593e+06
9.27952e+06
299.813
1.10461e+06
9.2753e+06
1626.89
1.09878e+06
9.3579e+06
3929.02
1.06942e+06
9.55204e+06
5488.02
1.06323e+06
9.61128e+06
11978.7
1.46395e+06