/*--------------------------------*- C++ -*----------------------------------*\
| =========                 |                                                 |
| \\      /  F ield         | OpenFOAM: The Open Source CFD Toolbox           |
|  \\    /   O peration     | Version:  4.1                                   |
|   \\  /    A nd           | Web:      www.OpenFOAM.org                      |
|    \\/     M anipulation  |                                                 |
\*---------------------------------------------------------------------------*/
FoamFile
{
    version     2.0;
    format      ascii;
    class       volScalarField;
    location    "79";
    object      p;
}
// * * * * * * * * * * * * * * * * * * * * * * * * * * * * * * * * * * * * * //

dimensions      [0 2 -2 0 0 0 0];

internalField   nonuniform List<scalar> 
4432
(
100977
100977
100978
100980
100983
100986
100990
100995
101000
101006
101013
101020
101028
101036
101044
101053
101059
101064
101068
101077
101092
101110
101129
101149
101172
101196
101219
101237
101250
101261
101271
101279
101290
101305
101318
101324
101326
101331
101336
101340
101343
101345
101347
101349
101349
101348
101343
101342
101342
101336
101326
101320
101320
101319
100977
100977
100978
100980
100983
100986
100990
100995
101000
101006
101013
101020
101028
101036
101045
101053
101059
101063
101068
101077
101093
101111
101130
101151
101173
101198
101219
101237
101251
101263
101273
101282
101292
101304
101316
101322
101326
101330
101336
101341
101343
101345
101346
101347
101349
101349
101344
101339
101339
101336
101328
101323
101316
101317
100976
100976
100977
100978
100981
100984
100988
100992
100998
101004
101010
101018
101026
101036
101046
101059
101076
101094
101107
101116
101128
101143
101159
101173
101188
101204
101219
101235
101252
101267
101278
101287
101294
101299
101303
101307
101312
101322
101333
101341
101342
101340
101343
101347
101349
101348
101346
101343
101341
101338
101335
101326
101297
101321
100976
100976
100977
100978
100981
100984
100988
100992
100998
101004
101010
101018
101026
101035
101046
101059
101075
101094
101108
101117
101127
101142
101157
101171
101186
101201
101217
101234
101250
101264
101274
101281
101288
101298
101306
101310
101315
101324
101333
101341
101343
101341
101343
101348
101349
101348
101346
101343
101343
101341
101335
101324
101291
101321
100974
100974
100975
100977
100980
100983
100987
100991
100997
101003
101009
101017
101025
101034
101045
101058
101071
101084
101095
101108
101124
101140
101155
101170
101185
101202
101220
101238
101256
101273
101284
101293
101304
101313
101313
101310
101315
101328
101342
101350
101348
101343
101347
101353
101355
101352
101349
101343
101336
101332
101332
101330
101323
101327
100974
100974
100975
100977
100980
100983
100987
100991
100997
101003
101009
101017
101025
101034
101045
101057
101071
101084
101095
101108
101123
101139
101154
101168
101183
101200
101218
101236
101254
101271
101283
101290
101297
101308
101314
101314
101319
101329
101340
101348
101349
101345
101348
101353
101354
101352
101349
101344
101338
101334
101334
101328
101322
101333
100972
100972
100973
100975
100978
100981
100984
100989
100994
101000
101006
101014
101022
101031
101041
101053
101065
101077
101088
101103
101119
101135
101150
101165
101182
101202
101224
101244
101264
101283
101297
101310
101329
101334
101325
101305
101308
101325
101341
101354
101349
101344
101351
101358
101359
101355
101351
101344
101336
101328
101328
101333
101330
101319
100972
100972
100973
100975
100978
100981
100984
100989
100994
101000
101006
101014
101022
101031
101041
101053
101065
101077
101088
101102
101119
101135
101150
101164
101182
101202
101223
101243
101265
101284
101296
101308
101325
101331
101327
101317
101319
101330
101343
101351
101347
101345
101351
101357
101359
101355
101350
101343
101335
101330
101334
101335
101327
101317
100969
100969
100970
100972
100975
100978
100981
100986
100991
100996
101003
101010
101018
101027
101037
101048
101060
101071
101082
101094
101109
101125
101141
101158
101177
101202
101228
101252
101277
101298
101314
101332
101351
101359
101383
101282
101291
101319
101346
101370
101363
101349
101359
101364
101364
101359
101352
101346
101341
101334
101330
101327
101327
101333
100969
100969
100970
100972
100975
100978
100981
100986
100991
100996
101003
101010
101018
101027
101037
101048
101059
101071
101082
101094
101108
101125
101141
101158
101179
101203
101228
101252
101279
101301
101316
101331
101348
101352
101348
101321
101314
101329
101351
101368
101364
101354
101358
101363
101364
101360
101354
101347
101339
101333
101332
101333
101323
101328
100966
100966
100967
100969
100971
100974
100977
100982
100986
100992
100998
101005
101013
101021
101031
101041
101052
101063
101074
101086
101099
101115
101130
101147
101167
101194
101222
101250
101278
101302
101320
101340
101366
101468
101654
101370
101279
101294
101324
101334
101342
101373
101377
101374
101370
101366
101358
101352
101347
101341
101333
101323
101324
101334
100966
100966
100967
100969
100971
100974
100977
100982
100986
100992
100998
101005
101013
101021
101031
101041
101052
101063
101074
101086
101099
101115
101131
101148
101169
101195
101222
101249
101277
101303
101320
101333
101348
101382
101412
101338
101296
101313
101344
101370
101379
101367
101369
101370
101369
101365
101359
101353
101346
101338
101332
101326
101327
101335
100962
100962
100963
100965
100967
100970
100973
100977
100982
100987
100993
101000
101007
101015
101024
101034
101044
101055
101066
101077
101090
101105
101120
101135
101151
101176
101206
101232
101257
101280
101305
101336
101395
101648
101563
101509
101320
101322
101343
101350
101359
101381
101386
101382
101377
101373
101366
101359
101352
101346
101337
101325
101316
101326
100962
100962
100963
100965
100967
100970
100973
100977
100982
100987
100993
101000
101007
101015
101024
101034
101044
101055
101066
101077
101090
101105
101121
101136
101154
101178
101205
101229
101255
101280
101301
101322
101352
101415
101484
101400
101295
101305
101338
101355
101366
101376
101381
101379
101375
101369
101362
101356
101351
101343
101334
101324
101322
101324
100957
100957
100958
100960
100962
100965
100968
100972
100976
100981
100987
100993
101000
101008
101017
101026
101036
101047
101057
101068
101080
101093
101107
101120
101131
101149
101177
101200
101219
101234
101255
101286
101318
101391
101436
101406
101335
101336
101350
101360
101369
101378
101384
101382
101376
101371
101364
101357
101352
101346
101339
101326
101313
101322
100957
100957
100958
100960
100962
100965
100968
100972
100976
100981
100987
100993
101000
101008
101017
101026
101036
101047
101057
101068
101080
101093
101107
101121
101134
101153
101175
101196
101215
101236
101255
101280
101319
101361
101403
101366
101322
101329
101350
101363
101373
101379
101382
101380
101376
101369
101361
101355
101350
101345
101337
101324
101314
101323
100952
100952
100953
100955
100957
100959
100962
100966
100970
100974
100980
100986
100993
101000
101008
101017
101027
101037
101048
101058
101069
101080
101090
101101
101109
101117
101135
101156
101178
101200
101222
101248
101286
101325
101362
101347
101333
101340
101354
101362
101370
101377
101384
101384
101378
101370
101363
101357
101354
101350
101344
101330
101317
101322
100952
100952
100953
100955
100957
100959
100962
100966
100970
100974
100980
100986
100993
101000
101008
101017
101027
101037
101048
101058
101069
101080
101090
101100
101109
101119
101136
101156
101176
101197
101220
101249
101288
101325
101354
101354
101346
101351
101362
101372
101380
101384
101385
101384
101380
101373
101364
101357
101354
101351
101342
101328
101317
101326
100947
100947
100948
100949
100951
100953
100956
100959
100963
100967
100972
100978
100984
100991
100999
101008
101018
101028
101038
101048
101057
101065
101072
101077
101080
101082
101094
101118
101146
101173
101199
101232
101273
101311
101348
101362
101366
101371
101379
101386
101392
101396
101398
101397
101390
101380
101370
101363
101359
101357
101351
101338
101326
101324
100947
100947
100948
100949
100951
100953
100956
100959
100963
100967
100972
100978
100984
100991
100999
101008
101018
101028
101038
101048
101058
101066
101072
101075
101078
101082
101095
101119
101145
101171
101200
101233
101273
101313
101348
101365
101372
101380
101391
101399
101403
101403
101402
101399
101393
101384
101372
101364
101361
101358
101350
101338
101327
101329
100941
100941
100942
100943
100945
100947
100949
100952
100955
100959
100964
100969
100975
100982
100989
100998
101007
101018
101028
101038
101047
101053
101055
101051
101042
101038
101052
101084
101119
101153
101187
101225
101266
101309
101349
101377
101396
101412
101426
101434
101435
101431
101423
101414
101403
101392
101380
101369
101362
101360
101356
101344
101325
101313
100941
100941
100942
100943
100945
100946
100949
100952
100955
100959
100964
100969
100975
100982
100989
100998
101007
101018
101028
101038
101047
101053
101055
101050
101041
101037
101054
101085
101119
101153
101188
101226
101268
101311
101348
101376
101397
101415
101431
101440
101441
101435
101426
101416
101406
101394
101381
101371
101365
101362
101356
101345
101322
101318
100934
100935
100935
100936
100938
100939
100941
100944
100947
100950
100955
100959
100965
100971
100978
100987
100996
101007
101018
101030
101040
101046
101044
101028
100994
100974
100996
101042
101087
101127
101166
101210
101256
101303
101348
101387
101420
101448
101468
101475
101471
101458
101442
101427
101413
101400
101387
101374
101363
101358
101355
101346
101328
101319
100934
100935
100935
100936
100938
100939
100941
100944
100947
100950
100955
100959
100965
100971
100978
100987
100996
101007
101018
101030
101040
101046
101044
101027
100991
100974
100998
101043
101087
101126
101167
101211
101257
101304
101348
101387
101421
101449
101469
101477
101473
101461
101444
101428
101415
101402
101388
101375
101366
101361
101356
101346
101323
101328
100928
100928
100928
100929
100930
100932
100934
100936
100938
100941
100945
100949
100954
100959
100966
100974
100984
100995
101008
101023
101037
101047
101044
101012
100930
100891
100925
100991
101049
101093
101136
101185
101237
101292
101348
101401
101447
101484
101508
101514
101503
101483
101461
101443
101425
101408
101391
101376
101363
101355
101350
101344
101328
101322
100928
100928
100928
100929
100930
100932
100934
100936
100938
100941
100945
100949
100954
100959
100966
100974
100984
100995
101008
101023
101037
101047
101043
101007
100920
100888
100932
100997
101050
101093
101136
101185
101237
101293
101348
101401
101448
101485
101511
101515
101503
101483
101463
101445
101427
101409
101391
101375
101363
101357
101351
101343
101325
101320
100921
100921
100921
100922
100923
100924
100925
100927
100929
100931
100934
100937
100942
100947
100953
100960
100970
100981
100996
101016
101041
101069
101084
101026
100845
100742
100829
100941
101009
101051
101096
101150
101210
101275
101343
101411
101474
101522
101558
101562
101540
101508
101480
101458
101436
101413
101392
101374
101359
101349
101343
101339
101325
101323
100921
100921
100921
100922
100923
100924
100925
100927
100929
100931
100934
100937
100942
100947
100953
100960
100970
100981
100996
101016
101041
101069
101084
101021
100819
100747
100842
100942
101008
101052
101097
101150
101210
101275
101343
101409
101475
101523
101575
101575
101544
101507
101477
101454
101433
101411
101390
101372
101358
101350
101345
101339
101327
101320
100914
100914
100914
100914
100915
100916
100917
100918
100919
100921
100923
100925
100928
100932
100938
100944
100953
100964
100979
101002
101039
101104
101171
101170
100620
100480
100666
100891
100977
101002
101044
101104
101171
101246
101328
101413
101496
101553
101619
101627
101581
101524
101486
101461
101436
101411
101388
101369
101355
101345
101339
101335
101326
101321
100914
100914
100914
100914
100915
100916
100917
100918
100919
100921
100923
100925
100928
100932
100937
100944
100953
100964
100979
101002
101038
101102
101167
101153
100521
100571
100735
100902
100974
101006
101048
101105
101171
101245
101331
101419
101509
101537
101616
101628
101576
101517
101483
101460
101435
101410
101387
101368
101354
101345
101339
101335
101329
101319
100906
100907
100907
100907
100907
100907
100908
100908
100909
100910
100911
100912
100914
100917
100921
100926
100932
100941
100954
100973
101002
101050
101167
101448
100447
100659
100866
100938
100944
100974
101033
101105
101191
101291
101400
101516
101557
101632
101685
101624
101539
101488
101459
101431
101403
101381
101363
101348
101337
101330
101326
101323
101315
100906
100907
100907
100907
100907
100907
100908
100908
100909
100910
100911
100912
100914
100917
100921
100926
100932
100941
100954
100973
101002
101048
101164
101435
100404
100681
100876
100942
100951
100982
101038
101107
101192
101283
101410
101527
101520
101512
101657
101611
101536
101489
101457
101427
101400
101378
101361
101348
101338
101331
101327
101324
101315
100899
100899
100899
100899
100899
100899
100899
100898
100898
100898
100899
100899
100900
100901
100902
100905
100908
100913
100920
100928
100936
100933
100894
100819
100526
100543
100827
100964
100958
100924
100926
100959
101014
101095
101202
101315
101443
101481
101547
101727
101663
101567
101497
101447
101409
101380
101360
101346
101334
101324
101318
101315
101316
101309
100899
100899
100899
100899
100899
100899
100899
100898
100898
100898
100899
100899
100900
100901
100902
100905
100908
100913
100920
100928
100936
100932
100891
100808
100523
100610
100869
100967
100947
100919
100927
100963
101015
101086
101144
101311
101325
101568
101509
101532
101559
101534
101490
101445
101407
101379
101360
101345
101334
101325
101319
101316
101316
101310
100892
100892
100892
100891
100891
100890
100890
100889
100888
100887
100886
100885
100884
100883
100883
100883
100883
100883
100883
100881
100874
100856
100822
100756
100690
100701
100843
100915
100914
100902
100896
100898
100916
100976
101139
101304
101283
101502
101787
101599
101557
101527
101468
101411
101370
101346
101332
101322
101315
101311
101309
101308
101312
101307
100892
100892
100892
100891
100891
100890
100890
100889
100888
100887
100886
100885
100884
100883
100883
100883
100883
100883
100883
100881
100874
100856
100822
100757
100687
100715
100849
100909
100904
100891
100887
100894
100912
100951
101001
101220
101032
101441
101896
100953
101365
101502
101470
101417
101373
101347
101332
101322
101315
101310
101309
101309
101312
101307
100885
100885
100884
100884
100883
100882
100880
100879
100877
100875
100873
100871
100868
100866
100863
100860
100856
100852
100846
100838
100826
100807
100781
100742
100697
100690
100735
100782
100810
100825
100830
100826
100814
100812
100914
101174
102204
101445
100601
100900
101377
101485
101430
101368
101327
101309
101300
101295
101293
101293
101296
101301
101310
101308
100885
100885
100884
100884
100883
100882
100880
100879
100877
100875
100873
100871
100868
100866
100863
100860
100856
100852
100846
100838
100826
100807
100780
100742
100698
100694
100738
100781
100804
100816
100822
100821
100816
100743
100886
101199
101706
99751.2
100215
99691.9
100412
101317
101425
101376
101332
101310
101301
101295
101293
101293
101296
101302
101311
101309
100878
100878
100877
100876
100875
100874
100872
100869
100867
100864
100861
100857
100853
100848
100843
100837
100830
100822
100812
100799
100782
100761
100734
100700
100665
100646
100656
100680
100700
100715
100724
100725
100632
100684
100749
99812.9
99268.4
98952.3
99022.2
99560.4
100431
101233
101349
101286
101263
101259
101260
101262
101266
101272
101279
101287
101300
101301
100878
100878
100877
100876
100875
100874
100872
100869
100867
100864
100861
100857
100853
100848
100843
100837
100830
100822
100812
100799
100782
100761
100734
100700
100666
100648
100658
100680
100698
100711
100724
100731
100743
100764
100697
100311
102363
99573.6
99191.3
99216.1
99835.7
100751
101268
101292
101259
101254
101258
101263
101267
101272
101279
101288
101304
101308
100871
100871
100870
100869
100868
100866
100863
100860
100857
100853
100848
100843
100837
100831
100823
100815
100805
100793
100779
100762
100741
100716
100686
100653
100620
100596
100586
100587
100588
100596
100607
100645
100408
100625
101089
100607
98892.4
98782.4
99205.7
99592.3
100087
100743
101110
101155
101182
101200
101215
101228
101241
101253
101264
101275
101291
101303
100871
100871
100870
100869
100868
100866
100863
100860
100857
100853
100848
100843
100837
100831
100823
100815
100805
100793
100779
100762
100741
100716
100686
100653
100620
100596
100587
100586
100586
100591
100599
100652
100613
100678
100984
100104
100291
99194.1
99401.8
99707.5
100243
100735
100975
101094
101170
101199
101214
101229
101242
101253
101263
101275
101290
101298
100865
100865
100864
100862
100860
100858
100855
100851
100847
100842
100837
100830
100823
100814
100804
100793
100780
100765
100747
100726
100702
100673
100640
100603
100566
100531
100503
100481
100463
100467
100498
100757
100549
99690.8
99876.2
99848.1
98980.8
99019.9
99435.5
99823.4
100110
100367
100891
101039
101114
101148
101172
101196
101218
101237
101252
101266
101289
101304
100865
100865
100864
100862
100860
100858
100855
100851
100847
100842
100837
100830
100823
100814
100804
100793
100780
100765
100747
100726
100702
100673
100639
100603
100566
100531
100503
100480
100458
100443
100418
100477
100718
99948.8
96600.4
97330
98628
99007.9
99510.5
99937.6
100312
100505
100765
100990
101108
101149
101173
101197
101219
101237
101252
101265
101283
101300
100859
100859
100858
100856
100854
100851
100847
100843
100838
100832
100826
100818
100809
100799
100787
100773
100757
100739
100718
100693
100664
100631
100592
100550
100504
100456
100407
100359
100313
100292
100384
100593
100857
99861.7
98613.6
98540.7
98806.9
99160.7
99427.4
99604.2
99868.5
100131
100588
100940
101061
101103
101133
101166
101196
101221
101240
101255
101279
101293
100859
100859
100858
100856
100854
100851
100847
100843
100838
100832
100826
100818
100809
100799
100787
100773
100757
100739
100718
100693
100664
100631
100592
100550
100504
100456
100407
100358
100304
100262
100187
100440
100620
99831.4
97578.7
98109.5
98769.6
99198.9
99458.2
99631.4
99957.4
100239
100562
100907
101053
101101
101134
101166
101196
101221
101240
101255
101279
101298
100854
100853
100852
100850
100848
100845
100840
100836
100830
100823
100816
100807
100796
100784
100770
100755
100736
100715
100691
100662
100629
100590
100546
100496
100439
100375
100304
100215
100122
99916.2
100167
100153
100535
93128.7
95073
97745.4
98877.3
99395
99402.6
99309.1
99566.5
100015
100498
100831
100976
101044
101091
101135
101176
101208
101234
101250
101272
101290
100854
100853
100852
100850
100848
100845
100840
100836
100830
100823
100816
100807
100796
100784
100770
100755
100736
100715
100691
100662
100629
100590
100546
100496
100439
100376
100304
100220
100117
99980.3
99882.4
99980.9
98298.3
97842
97830.7
98384
99103.6
99502
99421.2
99271.2
99577.5
100086
100527
100827
100970
101040
101091
101136
101175
101207
101234
101251
101268
101279
100849
100849
100847
100845
100842
100839
100834
100829
100823
100815
100807
100796
100785
100771
100756
100738
100718
100694
100666
100634
100597
100553
100503
100444
100376
100296
100200
100076
99916.7
99607.1
99143.6
100399
96379.8
93887.9
96191.2
98459.4
99737.8
100081
99676.5
99290.1
99490.5
99956.4
100402
100714
100879
100985
101052
101109
101158
101198
101232
101257
101277
101289
100849
100849
100847
100845
100842
100839
100834
100829
100823
100815
100807
100796
100785
100771
100756
100738
100718
100694
100666
100634
100597
100553
100503
100444
100376
100296
100200
100086
99926.8
99691.2
99393.3
99062.9
97053.4
95421.9
97359.2
98918.8
99964
100193
99689
99243.8
99479.5
100027
100466
100718
100875
100979
101051
101110
101157
101195
101230
101258
101279
101291
100845
100845
100843
100841
100838
100834
100829
100823
100816
100808
100799
100788
100775
100760
100743
100724
100701
100675
100645
100609
100568
100520
100463
100397
100318
100222
100104
99956
99754
99474.1
98944.7
98693.2
100174
100180
99821.5
100443
101133
100974
100080
99315.5
99387.1
99843.1
100281
100612
100812
100940
101025
101091
101143
101183
101217
101252
101294
101303
100845
100845
100843
100841
100838
100834
100829
100823
100816
100808
100799
100788
100775
100760
100743
100724
100701
100675
100645
100609
100568
100520
100463
100397
100317
100221
100098
99959.3
99782.8
99553.3
99262.8
98591.6
97513.7
98200
99444.4
100591
101332
101072
100084
99272.1
99366.8
99892.1
100330
100612
100803
100933
101020
101090
101142
101180
101213
101242
101292
101311
100842
100841
100840
100837
100834
100830
100825
100819
100811
100803
100792
100781
100767
100751
100733
100712
100688
100660
100627
100589
100544
100492
100430
100357
100268
100161
100028
99865.1
99643
99361.1
98907.7
98369.3
98681.3
99768.6
99810.4
100421
101246
101164
100258
99278.9
99262.9
99753.4
100257
100588
100778
100908
101010
101085
101136
101170
101198
101230
101272
101305
100842
100841
100840
100837
100834
100830
100825
100819
100811
100803
100792
100781
100767
100751
100733
100712
100688
100660
100627
100589
100544
100492
100430
100356
100268
100155
100026
99865.9
99649.4
99378.7
99132.4
98149.9
97887.2
98919
99803.1
100805
101416
101167
100272
99308.3
99237.1
99759.8
100280
100600
100779
100903
101002
101083
101138
101172
101194
101209
101246
101312
100840
100839
100837
100835
100831
100827
100821
100815
100807
100798
100787
100775
100761
100744
100725
100703
100677
100648
100613
100573
100526
100470
100404
100326
100231
100117
99977.3
99800.7
99570.7
99278.8
98925.4
98381.4
98109.5
98515.9
98093.9
99058.1
100111
100530
100278
99646.4
99514.3
99917.8
100367
100676
100810
100920
101022
101091
101138
101167
101189
101197
101195
101285
100840
100839
100837
100835
100831
100827
100821
100815
100807
100798
100787
100775
100761
100744
100725
100703
100677
100648
100613
100573
100526
100470
100404
100326
100231
100117
99983.7
99806.3
99564.2
99268.8
98890.1
98336.2
98139.2
98497.2
99030
99651.5
99757.6
100079
100089
99723.6
99559.7
99892
100358
100692
100835
100921
101014
101093
101141
101169
101192
101191
101162
101267
100838
100838
100836
100833
100830
100825
100819
100813
100805
100795
100784
100771
100757
100740
100720
100697
100671
100640
100604
100562
100513
100455
100387
100305
100206
100087
99940.6
99758.4
99529.1
99242.7
98911.1
98481.9
98103.4
97601
96849.7
96891.2
96309.1
96405.8
96926.7
98226.4
99195.3
100038
100496
100783
100938
101039
101108
101148
101175
101191
101208
101201
101153
101241
100838
100838
100836
100833
100830
100825
100819
100813
100805
100795
100784
100771
100757
100740
100720
100697
100671
100640
100604
100562
100513
100455
100387
100305
100207
100088
99942.7
99764.9
99530.1
99230.4
98921.1
98501.5
98114.5
97925.3
97480.4
96684.6
95754.8
95939.9
96634.2
98055.7
99267.6
100046
100493
100780
100937
101041
101107
101150
101173
101190
101219
101215
101146
101230
100837
100836
100835
100832
100828
100824
100818
100811
100803
100793
100782
100769
100754
100737
100717
100694
100667
100636
100599
100557
100507
100448
100377
100294
100193
100071
99921.7
99737.6
99510.3
99231.5
98900.1
98490.9
97993.9
97513.2
96988.3
95860.9
93875
93197.8
93910.8
95910.6
98023
99418.4
100163
100561
100850
101045
101132
101166
101184
101197
101199
101188
101167
101213
100837
100836
100835
100832
100828
100824
100818
100811
100803
100793
100782
100769
100754
100737
100717
100694
100667
100636
100599
100557
100507
100448
100378
100294
100193
100071
99922.3
99739.9
99512.2
99233.5
98915
98546.9
98150.6
97578.7
96476.3
95021
93871.1
93373
93993.7
95805
97939.9
99418.2
100170
100554
100822
101032
101137
101165
101181
101197
101203
101193
101177
101236
100714
101160
100640
101566
101573
100608
100545
100586
100495
100438
100617
101149
100564
101571
101532
100573
100429
100560
100415
100401
101451
100882
100567
100869
100499
100536
100446
100551
100381
100472
100374
101420
100865
100480
100864
100470
100413
100401
100443
100391
100436
100429
100948
101023
100940
101070
100946
101064
100934
100783
100832
100772
100750
100675
100724
100649
100929
101018
100923
101057
100901
101055
100880
100766
100813
100762
100675
100623
100648
100615
101236
101170
101233
101219
101367
101218
101369
100551
100686
100608
100692
100574
100566
100530
100615
100432
100446
100405
100445
101228
101166
101227
101217
101357
101213
101363
100388
100618
100470
100560
100436
100645
100582
100662
100389
100468
100417
100532
101256
101166
101257
101035
101019
101034
101014
100671
101460
101150
101148
100719
100438
100477
100476
100407
100473
100422
100503
100415
100510
101249
101161
101254
101031
101008
101030
101010
100640
101433
101136
100643
101134
100402
100401
100490
100427
100534
100446
100536
100483
100565
100676
100814
100669
100783
100686
100783
100688
100368
100525
100415
100596
100573
100599
100589
100661
100807
100660
100783
100688
100783
100691
100463
100526
100474
100605
100604
100607
100608
101040
100936
100699
100929
101077
101037
100684
100900
100920
101020
101405
101484
101579
101491
101418
101202
101240
101404
101492
101576
101490
101408
101200
101196
100520
100582
100641
100662
100455
100554
100572
100552
100492
100482
100485
100567
100529
100464
100534
100453
100452
100465
100465
100996
100871
100592
100859
101026
101001
100566
100846
100837
100991
101416
101489
101561
101411
101497
101233
101225
101413
101485
101549
101485
101388
101251
101182
100335
100443
100500
100531
100258
100422
100454
100454
100440
100390
100455
100427
100379
100313
100453
100431
100385
100423
100430
100338
100393
100665
101456
101145
101143
100653
100329
100307
100373
100656
100551
100652
100425
100366
100526
100627
100341
100640
100455
100516
100487
100459
100487
100421
100404
100434
100474
100398
100417
100408
100437
100525
100541
100524
100450
100430
100511
100474
100422
100507
100295
100300
100640
101431
101135
101138
100669
100293
100338
100322
100619
100463
100337
100610
100314
100463
100597
100605
100358
100401
100392
100381
100403
100379
100403
100399
100402
100391
100399
100385
100399
100405
100444
100418
100414
100424
100399
100421
100439
100423
100400
101239
101095
101168
101310
101091
101312
101246
101202
101057
101149
101294
101048
101201
101300
101234
101164
101075
101306
101084
101309
101229
100593
100647
100609
100494
100641
100495
100599
100569
100601
100597
100497
100620
100499
100521
101215
101157
101061
101320
101060
101313
101220
100520
100582
100563
100491
100563
100507
100488
100514
100560
100543
100482
100551
100488
100489
100786
100960
100794
100879
100954
100792
100793
100776
100945
100874
100778
100948
100769
100786
100398
100405
100426
100369
100382
100418
100410
100379
100369
100362
100419
100366
100379
100418
100750
100939
100773
100861
100757
100934
100766
100749
100945
100863
100760
100942
100764
100753
100380
100370
100416
100407
100379
100372
100408
100380
100394
100421
100410
100384
100398
100386
100552
100630
100441
100567
100642
100514
100488
100320
100217
100185
100331
100321
100144
100169
100281
100538
100569
100636
100492
100639
100499
100530
100281
100513
100413
100047
100533
100238
100109
100010
99924.3
100067
99897.7
100323
100421
100552
100199
100373
100534
100157
99943.4
99799.9
99850.4
99886.6
101121
100887
100922
100675
100886
101116
100928
101353
101596
101608
101362
101345
101591
101594
101339
101133
100674
100933
100933
100902
100932
101130
100450
100469
101124
100873
100629
100908
100871
101110
100895
101372
101606
101588
101340
101365
101599
101592
101316
101129
100631
100884
100904
101111
100875
100897
100398
100398
100587
100975
100618
101045
100982
100577
100627
100399
100265
100234
100421
100381
100192
100206
100371
100584
101046
100982
100666
100984
100626
100646
100551
100969
100608
101029
100567
100960
100590
100302
100025
100081
100277
100333
100165
100358
100129
100534
101022
100941
100544
100952
100571
100521
101626
101456
101608
101404
101456
101607
101623
101688
101675
101689
101675
101679
101671
101678
101674
101635
101414
101456
101617
101461
101622
101614
101202
101210
101626
101455
101409
101610
101457
101623
101613
101685
101688
101693
101674
101631
101412
101463
101634
101459
101614
101644
101679
101673
101675
101674
101199
101193
100428
100609
100377
100498
100472
100590
100323
100142
99957.7
100101
100015
100167
100098
100222
100052
100407
100465
100560
100250
100395
100562
100284
100563
100565
100521
100542
100525
100560
100550
100530
100515
100536
100561
100572
100533
100522
100535
100511
100557
100530
100562
100555
100544
100553
100538
100530
100503
100476
100493
100528
100511
100511
100514
100501
100498
100472
100465
100466
100477
100480
100486
100482
100470
100495
100484
100469
100482
100509
100492
100490
100465
100893
101001
100515
100911
100439
100517
100219
99991.2
99988.5
100227
100450
101009
100924
100575
100909
100470
100530
100225
99920.4
99964.1
100195
100377
100870
100524
100993
100387
100867
100517
100150
99950.6
99886.8
100208
100145
99900.3
100161
99877.9
100375
100951
100868
100520
100859
100484
100457
101689
101434
101456
101757
101453
101693
101696
101777
101705
101679
101711
101679
101437
101459
101718
101445
101675
101698
101750
101725
101685
101754
101235
101248
101655
101438
101726
101401
101429
101655
101714
101746
101640
101709
101657
101728
101695
101725
101705
101658
101389
101432
101693
101432
101774
101621
101245
101193
100201
100487
99976.2
100297
100206
100478
99941.6
99803.2
99840.2
99752.8
99879.7
99839.4
99780.9
99857.9
99752.2
100136
100258
100408
99908.1
100438
99904.9
100152
100436
100446
100420
100447
100457
100439
100455
100439
100422
100442
100455
100456
100440
100438
100446
100471
100458
100452
100463
100445
100420
100407
100414
100418
100337
100313
100430
100462
100439
100439
100465
100425
100435
100432
100410
100412
100438
100424
100402
100413
100408
100433
100424
100455
100442
100459
100433
100436
100342
100338
101118
100887
100917
100662
101113
100886
100918
101339
101591
101331
101588
101342
101591
101337
101592
101121
100659
100883
100915
101114