/*--------------------------------*- C++ -*----------------------------------*\
| =========                 |                                                 |
| \\      /  F ield         | OpenFOAM: The Open Source CFD Toolbox           |
|  \\    /   O peration     | Version:  4.1                                   |
|   \\  /    A nd           | Web:      www.OpenFOAM.org                      |
|    \\/     M anipulation  |                                                 |
\*---------------------------------------------------------------------------*/
FoamFile
{
    version     2.0;
    format      ascii;
    class       surfaceScalarField;
    location    "50";
    object      phi;
}
// * * * * * * * * * * * * * * * * * * * * * * * * * * * * * * * * * * * * * //

dimensions      [0 3 -1 0 0 0 0];

internalField   nonuniform List<scalar> 
11516
(
-4.52688e+10
-2.17426e+08
-1.50792e+08
-4.49416e+10
-2.16011e+08
-1.6299e+08
-4.47433e+10
-2.08825e+08
-3.33075e+07
-4.43133e+10
-2.94617e+08
-1.71344e+08
-4.4082e+10
-1.8832e+08
-7.30336e+07
-4.39069e+10
-1.92456e+08
-7.13877e+06
-4.37133e+10
-2.0727e+08
-7.0402e+06
-4.35576e+10
-1.99204e+08
2.59891e+07
-4.34145e+10
-1.96559e+08
3.85394e+07
-4.32813e+10
-1.92278e+08
4.67357e+07
-4.31532e+10
-1.87861e+08
4.93064e+07
-4.30235e+10
-1.84613e+08
4.50456e+07
-4.28832e+10
-1.83793e+08
3.08044e+07
-4.27266e+10
-1.84296e+08
9.61524e+06
-4.25445e+10
-1.84978e+08
-2.03268e+07
-4.23292e+10
-1.86054e+08
-5.79115e+07
-4.20713e+10
-1.86741e+08
-9.89631e+07
-4.17635e+10
-1.8818e+08
-1.47172e+08
-4.13986e+10
-1.89544e+08
-1.96789e+08
-4.09726e+10
-1.91074e+08
-2.50369e+08
-4.04802e+10
-1.92152e+08
-3.04858e+08
-3.99259e+10
-1.93384e+08
-3.55145e+08
-3.93106e+10
-1.93931e+08
-4.02757e+08
-3.86469e+10
-1.93912e+08
-4.39031e+08
-3.79437e+10
-1.93153e+08
-4.68296e+08
-3.72173e+10
-1.91486e+08
-4.83691e+08
-3.64772e+10
-1.8866e+08
-4.91604e+08
-3.57382e+10
-1.84396e+08
-4.86724e+08
-3.50084e+10
-1.78425e+08
-4.75412e+08
-3.42975e+10
-1.7056e+08
-4.56284e+08
-3.36131e+10
-1.60626e+08
-4.31022e+08
-3.29588e+10
-1.48615e+08
-4.03448e+08
-3.23411e+10
-1.34356e+08
-3.70269e+08
-3.1762e+10
-1.17553e+08
-3.36014e+08
-3.1222e+10
-9.79852e+07
-3.0176e+08
-3.07213e+10
-7.55739e+07
-2.67558e+08
-3.02558e+10
-5.06958e+07
-2.37159e+08
-2.98223e+10
-2.51836e+07
-2.07641e+08
-2.94112e+10
553666
-1.84375e+08
-2.90171e+10
2.75287e+07
-1.6422e+08
-2.86342e+10
5.65848e+07
-1.47673e+08
-2.82573e+10
8.91209e+07
-1.34622e+08
-2.7882e+10
1.25867e+08
-1.23399e+08
-2.75045e+10
1.68082e+08
-1.13273e+08
-2.71308e+10
2.18704e+08
-1.05709e+08
-2.67812e+10
2.79405e+08
-1.09295e+08
-2.64704e+10
3.46744e+08
-1.61512e+08
-2.61803e+10
4.20292e+08
-2.97643e+08
-2.59612e+10
4.9002e+08
-4.60984e+08
-2.60256e+10
6.32806e+08
-2.40976e+08
-2.7539e+10
1.32384e+09
4.75408e+08
-3.07511e+10
2.80308e+09
1.06716e+09
-2.82928e+10
6.89684e+09
-9.14515e+09
3.75285e+09
-1.70167e+10
-5.66497e+10
-3.96967e+08
-5.6445e+10
-4.48726e+08
-5.62682e+10
-4.10584e+08
-5.61996e+10
-3.84756e+08
-5.60071e+10
-3.98388e+08
-5.58685e+10
-3.4586e+08
-5.57479e+10
-3.40637e+08
-5.56394e+10
-3.19049e+08
-5.55315e+10
-3.14334e+08
-5.54231e+10
-3.09397e+08
-5.53094e+10
-3.09492e+08
-5.51884e+10
-3.1382e+08
-5.50542e+10
-3.27892e+08
-5.49047e+10
-3.46641e+08
-5.47331e+10
-3.72751e+08
-5.45328e+10
-4.03965e+08
-5.43002e+10
-4.37914e+08
-5.4028e+10
-4.77584e+08
-5.37142e+10
-5.18034e+08
-5.33547e+10
-5.60985e+08
-5.29472e+10
-6.05172e+08
-5.24955e+10
-6.44217e+08
-5.20002e+10
-6.81949e+08
-5.14718e+10
-7.08818e+08
-5.09152e+10
-7.30908e+08
-5.03431e+10
-7.40372e+08
-4.97597e+10
-7.44948e+08
-4.91753e+10
-7.38055e+08
-4.85926e+10
-7.26941e+08
-4.80162e+10
-7.09296e+08
-4.74489e+10
-6.86584e+08
-4.68884e+10
-6.63625e+08
-4.63358e+10
-6.3662e+08
-4.57872e+10
-6.10167e+08
-4.52384e+10
-5.84072e+08
-4.4685e+10
-5.58267e+08
-4.41183e+10
-5.37194e+08
-4.35347e+10
-5.17479e+08
-4.29262e+10
-5.03683e+08
-4.22854e+10
-4.9407e+08
-4.16033e+10
-4.88768e+08
-4.08688e+10
-4.88263e+08
-4.00694e+10
-4.91699e+08
-3.9193e+10
-4.98133e+08
-3.82335e+10
-5.04029e+08
-3.7195e+10
-5.13017e+08
-3.60789e+10
-5.42399e+08
-3.48914e+10
-6.04908e+08
-3.36815e+10
-6.19171e+08
-3.28552e+10
-9.75423e+07
-3.25436e+10
1.23343e+09
-3.22128e+10
2.63815e+09
-1.79296e+10
-7.33386e+09
-1.17141e+10
-6.53164e+10
1.52746e+07
-2.11708e+08
-6.5365e+10
-3.31074e+07
-1.10605e+08
-6.53766e+10
-4.77184e+07
-3.7922e+06
-6.54591e+10
-2.70889e+07
-8.85434e+07
-6.54286e+10
-4.50999e+07
-8.1159e+07
-6.54219e+10
-3.80831e+07
4.19826e+06
-6.54306e+10
-3.87986e+07
2.20189e+07
-6.54259e+10
-3.70708e+07
4.11639e+07
-6.54187e+10
-3.91209e+07
5.42388e+07
-6.54122e+10
-3.77296e+07
6.28496e+07
-6.53986e+10
-3.83495e+07
6.00309e+07
-6.53743e+10
-3.96791e+07
4.68342e+07
-6.53398e+10
-4.26408e+07
2.24237e+07
-6.52933e+10
-4.60034e+07
-9.80723e+06
-6.52388e+10
-5.01192e+07
-5.08524e+07
-6.51754e+10
-5.37979e+07
-9.58416e+07
-6.51025e+10
-5.76787e+07
-1.46514e+08
-6.50193e+10
-6.11637e+07
-2.00415e+08
-6.49248e+10
-6.55972e+07
-2.56051e+08
-6.48189e+10
-6.963e+07
-3.11969e+08
-6.47047e+10
-7.39914e+07
-3.6524e+08
-6.45829e+10
-7.82461e+07
-4.11377e+08
-6.44603e+10
-8.23903e+07
-4.478e+08
-6.43387e+10
-8.64023e+07
-4.71732e+08
-6.42308e+10
-9.01776e+07
-4.77884e+08
-6.41374e+10
-9.35698e+07
-4.71168e+08
-6.40686e+10
-9.63405e+07
-4.48666e+08
-6.40238e+10
-9.82365e+07
-4.15195e+08
-6.40094e+10
-9.8931e+07
-3.70554e+08
-6.40243e+10
-9.81368e+07
-3.20788e+08
-6.40711e+10
-9.55702e+07
-2.63975e+08
-6.41517e+10
-9.10948e+07
-2.04642e+08
-6.42653e+10
-8.44049e+07
-1.42037e+08
-6.4416e+10
-7.49251e+07
-7.65642e+07
-6.46054e+10
-6.20696e+07
-1.17763e+07
-6.48397e+10
-4.54853e+07
5.64232e+07
-6.51248e+10
-2.52318e+07
1.24673e+08
-6.54651e+10
-1.4167e+06
1.94e+08
-6.58724e+10
2.62569e+07
2.67098e+08
-6.63623e+10
5.79875e+07
3.50115e+08
-6.69523e+10
9.50062e+07
4.44273e+08
-6.76655e+10
1.3861e+08
5.53814e+08
-6.85219e+10
1.9036e+08
6.77835e+08
-6.95481e+10
2.52366e+08
8.20804e+08
-7.07785e+10
3.26513e+08
9.8399e+08
-7.22697e+10
4.13084e+08
1.16379e+09
-7.41341e+10
5.13936e+08
1.35233e+09
-7.64925e+10
6.20087e+08
1.51335e+09
-7.93673e+10
7.4425e+08
1.6253e+09
-8.24019e+10
1.06368e+09
1.58518e+09
-8.52699e+10
1.97579e+09
1.27646e+09
-8.82432e+10
3.66456e+09
2.02384e+08
-1.11353e+11
8.80783e+09
4.98051e+09
6.64132e+09
8.87757e+09
-7.06102e+10
-4.36672e+08
-7.06974e+10
-4.14435e+08
-7.07953e+10
-3.78499e+08
-7.08974e+10
-3.25729e+08
-7.09905e+10
-3.64372e+08
-7.10746e+10
-3.12844e+08
-7.11745e+10
-2.91594e+08
-7.12604e+10
-2.81704e+08
-7.13473e+10
-2.77343e+08
-7.1432e+10
-2.72512e+08
-7.15121e+10
-2.77201e+08
-7.15846e+10
-2.90709e+08
-7.16525e+10
-3.13608e+08
-7.17158e+10
-3.43439e+08
-7.17735e+10
-3.8185e+08
-7.1826e+10
-4.24854e+08
-7.18682e+10
-4.74065e+08
-7.19009e+10
-5.26921e+08
-7.19225e+10
-5.81246e+08
-7.19335e+10
-6.3623e+08
-7.19361e+10
-6.89542e+08
-7.19301e+10
-7.36521e+08
-7.1922e+10
-7.757e+08
-7.19117e+10
-8.04515e+08
-7.1911e+10
-8.1744e+08
-7.19185e+10
-8.19922e+08
-7.19432e+10
-8.08307e+08
-7.19829e+10
-7.8717e+08
-7.20426e+10
-7.55556e+08
-7.21192e+10
-7.19354e+08
-7.22131e+10
-6.75748e+08
-7.23242e+10
-6.29921e+08
-7.24486e+10
-5.81478e+08
-7.25873e+10
-5.29387e+08
-7.27376e+10
-4.76416e+08
-7.28988e+10
-4.20085e+08
-7.30719e+10
-3.62985e+08
-7.32566e+10
-3.03073e+08
-7.3457e+10
-2.40252e+08
-7.3678e+10
-1.71472e+08
-7.39232e+10
-9.69253e+07
-7.42014e+10
-9.94897e+06
-7.45159e+10
8.64603e+07
-7.48681e+10
1.93843e+08
-7.52603e+10
3.13587e+08
-7.57077e+10
4.45646e+08
-7.62527e+10
5.8778e+08
-7.69478e+10
7.28692e+08
-7.77209e+10
8.47037e+08
-7.74622e+10
6.31326e+08
-7.40959e+10
-2.48869e+08
-6.68342e+10
-1.05625e+09
-7.13961e+10
5.85164e+09
9.29196e+09
-5.332e+10
6.97913e+07
-8.20577e+08
-5.3057e+10
1.35665e+08
-5.2975e+08
-5.27746e+10
1.03135e+08
-4.09806e+08
-5.27624e+10
1.40402e+08
-2.61699e+08
-5.26645e+10
9.28436e+07
-2.92294e+08
-5.25755e+10
1.09326e+08
-2.1462e+08
-5.25444e+10
1.15157e+08
-1.43956e+08
-5.2524e+10
1.16095e+08
-1.14333e+08
-5.24974e+10
1.10763e+08
-1.01196e+08
-5.24612e+10
1.09503e+08
-9.98508e+07
-5.2415e+10
1.07408e+08
-1.09624e+08
-5.23621e+10
1.06346e+08
-1.28767e+08
-5.23023e+10
1.04885e+08
-1.60925e+08
-5.22326e+10
1.03157e+08
-2.06076e+08
-5.21531e+10
1.01548e+08
-2.63055e+08
-5.20533e+10
9.9731e+07
-3.30556e+08
-5.19309e+10
9.73958e+07
-4.08219e+08
-5.17776e+10
9.54207e+07
-4.90355e+08
-5.15884e+10
9.33018e+07
-5.80406e+08
-5.13599e+10
9.24242e+07
-6.69521e+08
-5.10937e+10
9.14989e+07
-7.5512e+08
-5.07864e+10
9.15214e+07
-8.33431e+08
-5.04455e+10
9.17629e+07
-8.95476e+08
-5.00797e+10
9.22563e+07
-9.37855e+08
-4.96974e+10
9.29375e+07
-9.56817e+08
-4.93114e+10
9.3857e+07
-9.52669e+08
-4.89295e+10
9.52357e+07
-9.26821e+08
-4.85582e+10
9.72709e+07
-8.84756e+08
-4.82016e+10
1.00106e+08
-8.29009e+08
-4.78652e+10
1.03892e+08
-7.63678e+08
-4.75475e+10
1.08996e+08
-6.94506e+08
-4.72519e+10
1.15966e+08
-6.21102e+08
-4.69749e+10
1.25058e+08
-5.49861e+08
-4.67134e+10
1.36208e+08
-4.80382e+08
-4.64674e+10
1.49331e+08
-4.1277e+08
-4.6227e+10
1.64443e+08
-3.52491e+08
-4.59869e+10
1.82443e+08
-2.99319e+08
-4.57419e+10
2.04741e+08
-2.53216e+08
-4.54789e+10
2.30656e+08
-2.18632e+08
-4.5173e+10
2.5937e+08
-2.00601e+08
-4.48063e+10
2.93836e+08
-1.93659e+08
-4.43568e+10
3.37162e+08
-2.00379e+08
-4.38113e+10
3.90561e+08
-2.13143e+08
-4.31547e+10
4.55664e+08
-2.31598e+08
-4.2379e+10
5.35531e+08
-2.56371e+08
-4.14915e+10
6.3287e+08
-2.9457e+08
-4.05214e+10
7.49978e+08
-3.59331e+08
-3.95566e+10
8.88798e+08
-4.44393e+08
-3.87649e+10
1.07975e+09
-5.1903e+08
-3.82559e+10
1.31086e+09
-6.86468e+08
-3.79421e+10
2.09186e+09
-1.82363e+09
-3.94309e+10
3.78874e+09
-2.89448e+09
-3.39489e+10
9.13926e+09
-1.02655e+10
4.65855e+09
-3.57872e+09
-5.91242e+10
-7.6148e+08
-5.88865e+10
-5.27269e+08
-5.87382e+10
-4.35932e+08
-5.86246e+10
-3.12059e+08
-5.86127e+10
-2.97123e+08
-5.85908e+10
-2.39214e+08
-5.86027e+10
-1.77769e+08
-5.86227e+10
-1.58281e+08
-5.86551e+10
-1.46169e+08
-5.86847e+10
-1.44809e+08
-5.87141e+10
-1.51549e+08
-5.87409e+10
-1.69227e+08
-5.87628e+10
-2.00565e+08
-5.87754e+10
-2.44823e+08
-5.87786e+10
-2.98058e+08
-5.87667e+10
-3.61898e+08
-5.87359e+10
-4.34135e+08
-5.8684e+10
-5.11156e+08
-5.86041e+10
-5.94376e+08
-5.84951e+10
-6.7746e+08
-5.83575e+10
-7.56129e+08
-5.81892e+10
-8.29065e+08
-5.79974e+10
-8.86607e+08
-5.77903e+10
-9.26524e+08
-5.75747e+10
-9.45374e+08
-5.73619e+10
-9.43633e+08
-5.71576e+10
-9.22393e+08
-5.69664e+10
-8.87079e+08
-5.67895e+10
-8.39531e+08
-5.66302e+10
-7.83316e+08
-5.64833e+10
-7.23949e+08
-5.63495e+10
-6.59745e+08
-5.62219e+10
-5.9763e+08
-5.60935e+10
-5.36461e+08
-5.59618e+10
-4.74665e+08
-5.58163e+10
-4.1725e+08
-5.56502e+10
-3.62575e+08
-5.54534e+10
-3.1008e+08
-5.52143e+10
-2.6216e+08
-5.49139e+10
-2.23656e+08
-5.4534e+10
-1.91323e+08
-5.40439e+10
-1.67325e+08
-5.34231e+10
-1.42975e+08
-5.26476e+10
-1.19418e+08
-5.16953e+10
-9.51632e+07
-5.05497e+10
-7.19389e+07
-4.92007e+10
-5.4304e+07
-4.76643e+10
-3.30556e+07
-4.59283e+10
-1.55152e+07
-4.43306e+10
2.60741e+07
-4.29617e+10
6.04019e+07
-4.16758e+10
9.29242e+08
-2.04839e+10
-6.55337e+09
-4.7634e+09
-5.68133e+10
-1.93573e+08
-8.79143e+08
-5.673e+10
-1.52876e+08
-4.66182e+08
-5.65745e+10
-1.41609e+08
-4.34982e+08
-5.64684e+10
-1.53462e+08
-2.29791e+08
-5.64358e+10
-1.61437e+08
-1.81768e+08
-5.63916e+10
-1.4877e+08
-1.29231e+08
-5.63483e+10
-1.31699e+08
-7.41459e+07
-5.63202e+10
-1.26998e+08
-3.29813e+07
-5.63044e+10
-1.27818e+08
-5.98202e+06
-5.6296e+10
-1.27885e+08
3.37569e+06
-5.62879e+10
-1.29462e+08
-4.40571e+06
-5.62777e+10
-1.30653e+08
-2.52523e+07
-5.62631e+10
-1.32295e+08
-6.21143e+07
-5.62452e+10
-1.34746e+08
-1.14352e+08
-5.62169e+10
-1.37253e+08
-1.83209e+08
-5.61809e+10
-1.40814e+08
-2.63417e+08
-5.61322e+10
-1.43793e+08
-3.53182e+08
-5.60675e+10
-1.47533e+08
-4.51751e+08
-5.59858e+10
-1.50522e+08
-5.53943e+08
-5.58858e+10
-1.53391e+08
-6.57634e+08
-5.57667e+10
-1.55058e+08
-7.54914e+08
-5.56325e+10
-1.55679e+08
-8.41316e+08
-5.54891e+10
-1.55029e+08
-9.06541e+08
-5.53477e+10
-1.5303e+08
-9.44676e+08
-5.52186e+10
-1.49713e+08
-9.53849e+08
-5.5113e+10
-1.45054e+08
-9.32927e+08
-5.50363e+10
-1.39042e+08
-8.87824e+08
-5.49913e+10
-1.31961e+08
-8.25514e+08
-5.49785e+10
-1.24275e+08
-7.50431e+08
-5.49935e+10
-1.16399e+08
-6.70792e+08
-5.50358e+10
-1.08311e+08
-5.88659e+08
-5.51003e+10
-9.9614e+07
-5.08459e+08
-5.5186e+10
-9.05807e+07
-4.31829e+08
-5.52889e+10
-8.13855e+07
-3.61155e+08
-5.54052e+10
-7.17371e+07
-2.96368e+08
-5.55374e+10
-6.27121e+07
-2.35229e+08
-5.56862e+10
-5.32434e+07
-1.80427e+08
-5.58564e+10
-4.22113e+07
-1.28693e+08
-5.60652e+10
-2.77387e+07
-7.44232e+07
-5.6336e+10
-9.36464e+06
-1.674e+07
-5.66847e+10
1.17059e+07
4.3055e+07
-5.71273e+10
3.68613e+07
1.02187e+08
-5.76746e+10
6.70924e+07
1.61608e+08
-5.83417e+10
1.03135e+08
2.25339e+08
-5.91504e+10
1.465e+08
2.90492e+08
-6.01493e+10
2.01589e+08
3.56492e+08
-6.14155e+10
2.69022e+08
4.10856e+08
-6.30297e+10
3.38083e+08
4.43479e+08
-6.49923e+10
4.11933e+08
3.81778e+08
-6.72387e+10
6.56372e+08
-1.21467e+08
-7.02342e+10
1.81368e+09
-2.04886e+09
-7.41875e+10
4.37712e+09
-4.88956e+09
-8.9345e+10
1.24526e+10
-8.99506e+09
5.48518e+09
1.16696e+09
-6.34862e+10
-1.08771e+09
-6.34744e+10
-6.97349e+08
-6.34595e+10
-6.00008e+08
-6.34386e+10
-4.96266e+08
-6.34663e+10
-4.41902e+08
-6.34832e+10
-3.82476e+08
-6.34763e+10
-3.27467e+08
-6.34794e+10
-2.92836e+08
-6.34942e+10
-2.69448e+08
-6.35128e+10
-2.6406e+08
-6.35331e+10
-2.70583e+08
-6.35528e+10
-2.90632e+08
-6.35723e+10
-3.25663e+08
-6.35921e+10
-3.74715e+08
-6.36066e+10
-4.3964e+08
-6.3618e+10
-5.1318e+08
-6.36249e+10
-5.95445e+08
-6.36232e+10
-6.85578e+08
-6.36147e+10
-7.78328e+08
-6.35965e+10
-8.71928e+08
-6.35686e+10
-9.58477e+08
-6.35341e+10
-1.0345e+09
-6.3497e+10
-1.08989e+09
-6.34663e+10
-1.11911e+09
-6.34491e+10
-1.12107e+09
-6.34542e+10
-1.0938e+09
-6.34848e+10
-1.04338e+09
-6.35423e+10
-9.76775e+08
-6.36263e+10
-8.98117e+08
-6.37317e+10
-8.15934e+08
-6.38571e+10
-7.32122e+08
-6.39938e+10
-6.51655e+08
-6.41389e+10
-5.7596e+08
-6.42858e+10
-5.07396e+08
-6.44254e+10
-4.46563e+08
-6.4557e+10
-3.91214e+08
-6.4673e+10
-3.45213e+08
-6.47677e+10
-3.05115e+08
-6.48389e+10
-2.68122e+08
-6.48879e+10
-2.34965e+08
-6.49166e+10
-2.02932e+08
-6.49249e+10
-1.74629e+08
-6.49025e+10
-1.50325e+08
-6.48422e+10
-1.28347e+08
-6.47316e+10
-1.1556e+08
-6.45627e+10
-1.1448e+08
-6.43468e+10
-1.23388e+08
-6.41088e+10
-1.41224e+08
-6.38197e+10
-2.31162e+08
-6.29253e+10
-7.16228e+08
-6.01018e+10
-1.64803e+09
-5.28786e+10
-2.65864e+09
-3.80368e+10
-9.42482e+09
-2.80406e+09
-5.49673e+10
-2.84324e+07
-1.00487e+09
-5.47619e+10
-6.62087e+07
-6.05265e+08
-5.46404e+10
-7.54525e+07
-4.83859e+08
-5.44626e+10
-7.59096e+07
-3.38466e+08
-5.43558e+10
-6.96533e+07
-2.2851e+08
-5.42805e+10
-5.81404e+07
-1.57212e+08
-5.42173e+10
-4.90923e+07
-9.88259e+07
-5.41632e+10
-4.52065e+07
-5.18189e+07
-5.41156e+10
-4.26662e+07
-1.98883e+07
-5.40708e+10
-4.13846e+07
-7.88664e+06
-5.40274e+10
-4.26041e+07
-1.22783e+07
-5.39809e+10
-4.52381e+07
-3.30475e+07
-5.39293e+10
-4.87445e+07
-7.27249e+07
-5.3863e+10
-5.42316e+07
-1.37208e+08
-5.37775e+10
-6.16513e+07
-2.22252e+08
-5.36659e+10
-7.16758e+07
-3.24174e+08
-5.35172e+10
-8.32963e+07
-4.41e+08
-5.33269e+10
-9.74134e+07
-5.70133e+08
-5.3087e+10
-1.1273e+08
-7.04284e+08
-5.27941e+10
-1.30005e+08
-8.41915e+08
-5.24421e+10
-1.47975e+08
-9.73449e+08
-5.2031e+10
-1.66913e+08
-1.09255e+09
-5.1568e+10
-1.85903e+08
-1.18333e+09
-5.10685e+10
-2.04195e+08
-1.23452e+09
-5.05561e+10
-2.2137e+08
-1.23944e+09
-5.00511e+10
-2.36254e+08
-1.19831e+09
-4.95735e+10
-2.48239e+08
-1.1175e+09
-4.91378e+10
-2.56951e+08
-1.00834e+09
-4.87546e+10
-2.62451e+08
-8.79057e+08
-4.84316e+10
-2.64891e+08
-7.40983e+08
-4.81739e+10
-2.64136e+08
-5.98743e+08
-4.79852e+10
-2.59715e+08
-4.58524e+08
-4.78676e+10
-2.51579e+08
-3.23566e+08
-4.78249e+10
-2.39991e+08
-1.93855e+08
-4.78605e+10
-2.2491e+08
-6.98484e+07
-4.7975e+10
-2.06087e+08
4.8517e+07
-4.81754e+10
-1.82842e+08
1.63843e+08
-4.84632e+10
-1.54423e+08
2.73653e+08
-4.88375e+10
-1.20657e+08
3.80788e+08
-4.93031e+10
-7.91594e+07
4.89496e+08
-4.98756e+10
-2.66585e+07
6.06073e+08
-5.05839e+10
3.81015e+07
7.40571e+08
-5.14616e+10
1.15906e+08
8.98552e+08
-5.25551e+10
2.07551e+08
1.09579e+09
-5.39379e+10
3.15081e+08
1.34696e+09
-5.57353e+10
4.46856e+08
1.67925e+09
-5.81634e+10
6.1708e+08
2.12791e+09
-6.15936e+10
8.19663e+08
2.8037e+09
-6.66479e+10
1.02681e+09
3.85994e+09
-7.45655e+10
1.38769e+09
5.45351e+09
-9.0711e+10
3.68634e+09
9.21739e+09
-1.17023e+11
6.6958e+09
1.33881e+10
-1.57028e+11
1.09893e+10
1.93676e+10
-2.96383e+09
1.0462e+09
-5.70574e+10
-1.15706e+09
-5.70329e+10
-7.85202e+08
-5.70266e+10
-6.81647e+08
-5.70187e+10
-5.82413e+08
-5.70464e+10
-4.87767e+08
-5.70815e+10
-4.10272e+08
-5.71036e+10
-3.59027e+08
-5.71258e+10
-3.19959e+08
-5.715e+10
-2.91251e+08
-5.71767e+10
-2.81264e+08
-5.72043e+10
-2.87428e+08
-5.72296e+10
-3.12172e+08
-5.72515e+10
-3.54877e+08
-5.72638e+10
-4.21133e+08
-5.7265e+10
-5.07581e+08
-5.72497e+10
-6.09827e+08
-5.72114e+10
-7.28616e+08
-5.71463e+10
-8.59323e+08
-5.70508e+10
-9.96947e+08
-5.69216e+10
-1.13837e+09
-5.67559e+10
-1.2755e+09
-5.65535e+10
-1.40143e+09
-5.63208e+10
-1.50064e+09
-5.60707e+10
-1.56267e+09
-5.58209e+10
-1.58047e+09
-5.55856e+10
-1.55444e+09
-5.5377e+10
-1.49065e+09
-5.52022e+10
-1.40027e+09
-5.50647e+10
-1.29131e+09
-5.49648e+10
-1.17549e+09
-5.48996e+10
-1.05766e+09
-5.48645e+10
-9.44087e+08
-5.48536e+10
-8.37554e+08
-5.4862e+10
-7.39079e+08
-5.48832e+10
-6.50893e+08
-5.49091e+10
-5.72038e+08
-5.49362e+10
-5.00732e+08
-5.4955e+10
-4.38959e+08
-5.49584e+10
-3.81318e+08
-5.49346e+10
-3.30516e+08
-5.48671e+10
-2.85294e+08
-5.47442e+10
-2.41736e+08
-5.45515e+10
-2.0119e+08
-5.428e+10
-1.57396e+08
-5.39295e+10
-1.09906e+08
-5.35124e+10
-4.90572e+07
-5.30601e+10
4.91899e+07
-5.26539e+10
2.18108e+08
-5.25074e+10
4.93739e+08
-5.29705e+10
8.62797e+08
-5.33969e+10
2.12526e+09
-5.5243e+10
5.5436e+09
-7.12627e+10
1.75161e+10
6.44164e+09
-5.79007e+10
2.08557e+08
-1.14656e+09
-5.79013e+10
2.05756e+08
-7.97397e+08
-5.79111e+10
2.02527e+08
-6.67137e+08
-5.7911e+10
2.12102e+08
-5.44316e+08
-5.79135e+10
2.1684e+08
-4.3896e+08
-5.793e+10
2.24489e+08
-3.62431e+08
-5.79542e+10
2.31273e+08
-3.03102e+08
-5.79828e+10
2.37587e+08
-2.56804e+08
-5.80145e+10
2.4391e+08
-2.26504e+08
-5.8049e+10
2.48732e+08
-2.14568e+08
-5.80829e+10
2.53437e+08
-2.22337e+08
-5.81124e+10
2.57618e+08
-2.50103e+08
-5.81368e+10
2.62289e+08
-2.99422e+08
-5.81543e+10
2.66152e+08
-3.75603e+08
-5.81636e+10
2.68588e+08
-4.75332e+08
-5.81553e+10
2.70336e+08
-5.97033e+08
-5.81266e+10
2.70673e+08
-7.37374e+08
-5.8069e+10
2.7052e+08
-8.92796e+08
-5.79802e+10
2.69031e+08
-1.05594e+09
-5.78554e+10
2.66988e+08
-1.22252e+09
-5.76887e+10
2.63977e+08
-1.38609e+09
-5.74765e+10
2.60294e+08
-1.53746e+09
-5.72214e+10
2.56078e+08
-1.65633e+09
-5.69368e+10
2.50923e+08
-1.7248e+09
-5.6641e+10
2.4519e+08
-1.73181e+09
-5.6348e+10
2.39245e+08
-1.68075e+09
-5.6068e+10
2.33515e+08
-1.58122e+09
-5.58055e+10
2.28245e+08
-1.44869e+09
-5.55586e+10
2.23477e+08
-1.29789e+09
-5.53271e+10
2.19436e+08
-1.13893e+09
-5.51055e+10
2.1655e+08
-9.82033e+08
-5.48891e+10
2.15285e+08
-8.33301e+08
-5.46744e+10
2.16091e+08
-6.94855e+08
-5.44561e+10
2.19548e+08
-5.68958e+08
-5.42319e+10
2.26195e+08
-4.53322e+08
-5.39988e+10
2.36297e+08
-3.48542e+08
-5.3756e+10
2.51129e+08
-2.50737e+08
-5.35065e+10
2.71981e+08
-1.59959e+08
-5.32513e+10
2.99309e+08
-7.51271e+07
-5.29941e+10
3.3398e+08
9.46237e+06
-5.27318e+10
3.76668e+08
9.38875e+07
-5.24596e+10
4.27911e+08
1.86535e+08
-5.21698e+10
4.89414e+08
2.89996e+08
-5.18487e+10
5.63038e+08
4.11666e+08
-5.14898e+10
6.52049e+08
5.67775e+08
-5.11038e+10
7.65914e+08
7.83759e+08
-5.07194e+10
9.13096e+08
1.09121e+09
-5.03442e+10
1.09395e+09
1.56058e+09
-4.99566e+10
1.32581e+09
2.29988e+09
-4.97331e+10
1.72967e+09
3.56167e+09
-4.99526e+10
2.80846e+09
6.64774e+09
-5.4258e+10
4.8134e+09
1.31325e+10
-7.62571e+10
1.25229e+10
2.9117e+10
5.37669e+09
9.95869e+09
-5.63507e+10
-9.02015e+08
-5.63881e+10
-5.34417e+08
-5.64329e+10
-4.28456e+08
-5.64825e+10
-3.16734e+08
-5.65498e+10
-2.00876e+08
-5.66264e+10
-1.07084e+08
-5.6713e+10
-3.87984e+07
-5.68068e+10
1.46078e+07
-5.6902e+10
5.20035e+07
-5.70015e+10
7.2385e+07
-5.71021e+10
7.31399e+07
-5.72031e+10
5.3811e+07
-5.73002e+10
1.17883e+07
-5.73915e+10
-5.77817e+07
-5.74747e+10
-1.51473e+08
-5.75425e+10
-2.68852e+08
-5.75907e+10
-4.06737e+08
-5.76133e+10
-5.62382e+08
-5.76066e+10
-7.28802e+08
-5.75671e+10
-9.01972e+08
-5.74886e+10
-1.07597e+09
-5.73668e+10
-1.24167e+09
-5.72048e+10
-1.37879e+09
-5.70149e+10
-1.46909e+09
-5.68156e+10
-1.49958e+09
-5.66223e+10
-1.47279e+09
-5.64467e+10
-1.39663e+09
-5.62965e+10
-1.28573e+09
-5.61726e+10
-1.15453e+09
-5.60771e+10
-1.01325e+09
-5.60065e+10
-8.72107e+08
-5.59572e+10
-7.36803e+08
-5.59262e+10
-6.09302e+08
-5.59071e+10
-4.92897e+08
-5.58964e+10
-3.86465e+08
-5.58869e+10
-2.92284e+08
-5.58713e+10
-2.0715e+08
-5.58432e+10
-1.30762e+08
-5.57921e+10
-6.14316e+07
-5.57122e+10
4.22634e+06
-5.55949e+10
6.55145e+07
-5.54304e+10
1.26323e+08
-5.5205e+10
1.83905e+08
-5.48968e+10
2.37209e+08
-5.44877e+10
2.90872e+08
-5.39495e+10
3.48397e+08
-5.3247e+10
4.26812e+08
-5.23428e+10
5.51596e+08
-5.11705e+10
7.45079e+08
-4.95778e+10
1.06445e+09
-4.65563e+10
2.00702e+09
-4.18883e+10
5.84935e+09
-3.07897e+10
1.9133e+10
8.79239e+09
-5.48023e+10
5.72206e+07
-1.12278e+09
-5.48395e+10
8.19738e+07
-8.30792e+08
-5.48611e+10
9.57418e+07
-7.31173e+08
-5.48984e+10
1.13271e+08
-6.11838e+08
-5.4934e+10
1.18942e+08
-5.14995e+08
-5.4976e+10
1.21554e+08
-4.35004e+08
-5.50233e+10
1.23842e+08
-3.72564e+08
-5.50759e+10
1.30146e+08
-3.26357e+08
-5.51339e+10
1.37155e+08
-2.96428e+08
-5.51967e+10
1.43099e+08
-2.83849e+08
-5.52666e+10
1.47003e+08
-2.86656e+08
-5.53354e+10
1.50741e+08
-3.17406e+08
-5.53991e+10
1.55117e+08
-3.75632e+08
-5.54564e+10
1.58959e+08
-4.6318e+08
-5.55015e+10
1.62163e+08
-5.80307e+08
-5.55264e+10
1.65277e+08
-7.26145e+08
-5.55223e+10
1.68437e+08
-8.98899e+08
-5.54831e+10
1.72214e+08
-1.09005e+09
-5.54051e+10
1.75932e+08
-1.29489e+09
-5.52837e+10
1.80493e+08
-1.50465e+09
-5.51112e+10
1.85395e+08
-1.71756e+09
-5.48835e+10
1.91413e+08
-1.92003e+09
-5.46026e+10
1.98833e+08
-2.08638e+09
-5.42949e+10
2.07381e+08
-2.18217e+09
-5.39894e+10
2.18205e+08
-2.19072e+09
-5.37166e+10
2.31082e+08
-2.11768e+09
-5.34904e+10
2.46516e+08
-1.98547e+09
-5.33144e+10
2.6419e+08
-1.81881e+09
-5.31862e+10
2.83597e+08
-1.63715e+09
-5.30954e+10
3.04105e+08
-1.45791e+09
-5.30343e+10
3.25131e+08
-1.28817e+09
-5.29924e+10
3.46099e+08
-1.13642e+09
-5.29605e+10
3.66606e+08
-1.00273e+09
-5.29316e+10
3.86652e+08
-8.8733e+08
-5.2898e+10
4.06377e+08
-7.88006e+08
-5.2855e+10
4.24571e+08
-7.01422e+08
-5.27958e+10
4.41051e+08
-6.25039e+08
-5.27162e+10
4.57258e+08
-5.57669e+08
-5.26146e+10
4.73708e+08
-4.95903e+08
-5.24823e+10
4.9087e+08
-4.4149e+08
-5.23169e+10
5.09313e+08
-3.8764e+08
-5.21111e+10
5.31025e+08
-3.32224e+08
-5.18592e+10
5.58277e+08
-2.71319e+08
-5.15569e+10
5.93469e+08
-1.99471e+08
-5.11979e+10
6.39797e+08
-1.08032e+08
-5.07705e+10
7.00961e+08
1.16744e+07
-5.02605e+10
7.78226e+08
1.76596e+08
-4.96129e+10
8.7583e+08
4.11243e+08
-4.86238e+10
9.64087e+08
7.13634e+08
-4.68004e+10
1.02413e+09
1.13848e+09
-4.27569e+10
1.18722e+09
2.08967e+09
-3.76161e+10
3.15599e+09
5.66642e+09
-3.94981e+10
1.24472e+10
1.94215e+10
7.2064e+09
9.61142e+09
-5.43622e+10
-7.15737e+08
-5.44236e+10
-3.81487e+08
-5.44662e+10
-2.81864e+08
-5.45043e+10
-1.58108e+08
-5.4543e+10
-3.68029e+07
-5.45845e+10
6.22811e+07
-5.46319e+10
1.38961e+08
-5.46815e+10
2.01289e+08
-5.47329e+10
2.48267e+08
-5.47858e+10
2.77035e+08
-5.48451e+10
2.89232e+08
-5.49051e+10
2.75139e+08
-5.49616e+10
2.33941e+08
-5.50155e+10
1.64431e+08
-5.50636e+10
6.67674e+07
-5.51013e+10
-5.86142e+07
-5.5122e+10
-2.09294e+08
-5.51248e+10
-3.77907e+08
-5.51076e+10
-5.58346e+08
-5.50715e+10
-7.4337e+08
-5.5012e+10
-9.30274e+08
-5.49288e+10
-1.1059e+09
-5.48272e+10
-1.24615e+09
-5.47292e+10
-1.31651e+09
-5.46592e+10
-1.30311e+09
-5.46363e+10
-1.2128e+09
-5.46637e+10
-1.06842e+09
-5.47347e+10
-8.93689e+08
-5.48387e+10
-7.07228e+08
-5.49594e+10
-5.25086e+08
-5.50861e+10
-3.52734e+08
-5.52076e+10
-1.96926e+08
-5.53156e+10
-5.67816e+07
-5.54054e+10
6.80734e+07
-5.54742e+10
1.80743e+08
-5.55267e+10
2.85411e+08
-5.55639e+10
3.81471e+08
-5.5582e+10
4.66455e+08
-5.55771e+10
5.42252e+08
-5.55383e+10
6.06077e+08
-5.54606e+10
6.64145e+08
-5.53313e+10
7.15868e+08
-5.51373e+10
7.60625e+08
-5.4864e+10
7.98136e+08
-5.44958e+10
8.3195e+08
-5.40142e+10
8.61606e+08
-5.3396e+10
8.95705e+08
-5.26e+10
9.46216e+08
-5.15489e+10
9.96236e+08
-5.01583e+10
1.11639e+09
-4.79243e+10
1.49827e+09
-4.1825e+10
3.59566e+09
-1.56978e+10
6.04739e+09
2.37472e+09
-5.49939e+10
-1.7192e+08
-8.87249e+08
-5.50035e+10
-1.464e+08
-6.60597e+08
-5.50328e+10
-1.36544e+08
-5.52245e+08
-5.50791e+10
-1.28173e+08
-4.25022e+08
-5.51375e+10
-1.2887e+08
-3.15554e+08
-5.52119e+10
-1.33563e+08
-2.1498e+08
-5.53079e+10
-1.36577e+08
-1.27826e+08
-5.54232e+10
-1.35205e+08
-6.34577e+07
-5.55564e+10
-1.3327e+08
-1.70365e+07
-5.57055e+10
-1.32003e+08
1.12437e+07
-5.58602e+10
-1.32189e+08
1.5284e+07
-5.60181e+10
-1.32123e+08
-1.12314e+07
-5.61736e+10
-1.31474e+08
-7.26666e+07
-5.63187e+10
-1.3043e+08
-1.73367e+08
-5.64442e+10
-1.2861e+08
-3.13928e+08
-5.65375e+10
-1.25875e+08
-4.96761e+08
-5.65853e+10
-1.21234e+08
-7.1703e+08
-5.65764e+10
-1.15164e+08
-9.70032e+08
-5.65027e+10
-1.06988e+08
-1.24483e+09
-5.63606e+10
-9.71699e+07
-1.53107e+09
-5.61407e+10
-8.4651e+07
-1.82933e+09
-5.58239e+10
-6.84234e+07
-2.13234e+09
-5.54098e+10
-4.95412e+07
-2.402e+09
-5.49298e+10
-2.88277e+07
-2.56824e+09
-5.44482e+10
-8.80415e+06
-2.5859e+09
-5.40195e+10
8.92941e+06
-2.46889e+09
-5.36766e+10
2.37693e+07
-2.25944e+09
-5.34322e+10
3.53718e+07
-2.0005e+09
-5.32817e+10
4.33168e+07
-1.72665e+09
-5.32123e+10
4.76508e+07
-1.46313e+09
-5.32071e+10
4.8558e+07
-1.22145e+09
-5.32513e+10
4.59918e+07
-1.00773e+09
-5.33299e+10
3.97686e+07
-8.21888e+08
-5.34297e+10
3.02704e+07
-6.62897e+08
-5.35372e+10
1.84858e+07
-5.29143e+08
-5.36441e+10
8.33843e+06
-4.16435e+08
-5.3739e+10
-867711
-3.24193e+08
-5.38118e+10
-1.28233e+07
-2.45942e+08
-5.38473e+10
-2.92942e+07
-1.81501e+08
-5.38354e+10
-5.05469e+07
-1.2681e+08
-5.37597e+10
-7.53906e+07
-8.17717e+07
-5.36027e+10
-1.01738e+08
-4.59164e+07
-5.33459e+10
-1.27827e+08
-1.73229e+07
-5.29635e+10
-1.52931e+08
1.25035e+06
-5.24263e+10
-1.7632e+08
1.08095e+07
-5.16943e+10
-1.98112e+08
6.52881e+06
-5.07118e+10
-2.19446e+08
-9.78366e+06
-4.94023e+10
-2.39219e+08
-2.12322e+07
-4.76183e+10
-3.03805e+08
-2.08711e+07
-4.51491e+10
-4.96067e+08
1.3068e+08
-4.17044e+10
-4.90644e+08
3.11117e+08
-3.38871e+10
1.26261e+09
-1.95339e+09
-1.04379e+10
2.65067e+09
-5.39046e+09
5.29989e+07
-1.64653e+09
-5.19795e+10
-8.34585e+08
-5.19109e+10
-5.87355e+08
-5.18663e+10
-4.5423e+08
-5.18289e+10
-3.15195e+08
-5.17975e+10
-1.88745e+08
-5.17832e+10
-7.7379e+07
-5.17964e+10
2.37748e+07
-5.18277e+10
1.05651e+08
-5.18742e+10
1.7015e+08
-5.1933e+10
2.12863e+08
-5.19967e+10
2.30432e+08
-5.20615e+10
2.17916e+08
-5.21201e+10
1.70624e+08
-5.21622e+10
8.4172e+07
-5.21759e+10
-4.17178e+07
-5.21455e+10
-2.0876e+08
-5.20565e+10
-4.12536e+08
-5.18935e+10
-6.47275e+08
-5.16469e+10
-9.02046e+08
-5.13094e+10
-1.16629e+09
-5.08679e+10
-1.43955e+09
-5.03025e+10
-1.71546e+09
-4.96092e+10
-1.95413e+09
-4.88249e+10
-2.08339e+09
-4.80237e+10
-2.05759e+09
-4.72741e+10
-1.89086e+09
-4.66224e+10
-1.62909e+09
-4.60923e+10
-1.31723e+09
-4.56883e+10
-9.92121e+08
-4.54037e+10
-6.80675e+08
-4.52246e+10
-3.95355e+08
-4.51372e+10
-1.42646e+08
-4.51267e+10
7.72159e+07
-4.51784e+10
2.64995e+08
-4.52741e+10
4.21441e+08
-4.53892e+10
5.48065e+08
-4.54952e+10
6.40326e+08
-4.55818e+10
7.10104e+08
-4.56411e+10
7.60713e+08
-4.56682e+10
7.92122e+08
-4.56485e+10
8.0302e+08
-4.55651e+10
7.93725e+08
-4.53989e+10
7.63923e+08
-4.51253e+10
7.07187e+08
-4.47178e+10
6.23503e+08
-4.41428e+10
5.01206e+08
-4.33513e+10
3.34523e+08
-4.229e+10
1.5018e+08
-4.1062e+10
6.61503e+07
-4.03302e+10
6.45627e+08
-3.99399e+10
1.5867e+09
-3.198e+10
-2.02304e+09
-4.87771e+09
-1.76836e+10
-9.49541e+09
-5.82707e+10
-1.76022e+08
-6.25173e+08
-5.83166e+10
-1.8153e+08
-4.25687e+08
-5.83716e+10
-1.82855e+08
-3.06674e+08
-5.84291e+10
-1.88852e+08
-1.70759e+08
-5.84962e+10
-1.93803e+08
-4.67846e+07
-5.85724e+10
-1.99586e+08
6.84427e+07
-5.86627e+10
-2.04071e+08
1.7369e+08
-5.87714e+10
-2.06731e+08
2.5855e+08
-5.88966e+10
-2.09479e+08
3.24144e+08
-5.90359e+10
-2.12972e+08
3.6994e+08
-5.91852e+10
-2.16212e+08
3.87359e+08
-5.93384e+10
-2.18832e+08
3.672e+08
-5.94908e+10
-2.21208e+08
3.06267e+08
-5.96368e+10
-2.23671e+08
1.98684e+08
-5.97648e+10
-2.25971e+08
3.89651e+07
-5.98645e+10
-2.28184e+08
-1.71958e+08
-5.99199e+10
-2.30357e+08
-4.3344e+08
-5.99206e+10
-2.32965e+08
-7.37758e+08
-5.98595e+10
-2.36466e+08
-1.06972e+09
-5.97332e+10
-2.42046e+08
-1.41755e+09
-5.95332e+10
-2.48821e+08
-1.78005e+09
-5.92292e+10
-2.56857e+08
-2.17296e+09
-5.87854e+10
-2.66319e+08
-2.56139e+09
-5.82227e+10
-2.78039e+08
-2.81644e+09
-5.76342e+10
-2.94424e+08
-2.83144e+09
-5.70969e+10
-3.13238e+08
-2.63512e+09
-5.66463e+10
-3.32713e+08
-2.31674e+09
-5.62949e+10
-3.5092e+08
-1.93948e+09
-5.60364e+10
-3.67316e+08
-1.55513e+09
-5.58584e+10
-3.82295e+08
-1.19377e+09
-5.57449e+10
-3.9664e+08
-8.69554e+08
-5.56836e+10
-4.11405e+08
-5.8381e+08
-5.56621e+10
-4.27525e+08
-3.35613e+08
-5.56708e+10
-4.45952e+08
-1.20224e+08
-5.57049e+10
-4.68138e+08
7.05565e+07
-5.5756e+10
-4.95349e+08
2.38471e+08
-5.58218e+10
-5.25605e+08
3.88733e+08
-5.58956e+10
-5.56975e+08
5.21134e+08
-5.59766e+10
-5.88393e+08
6.41187e+08
-5.60592e+10
-6.20986e+08
7.49361e+08
-5.61361e+10
-6.5647e+08
8.46387e+08
-5.61962e+10
-6.96071e+08
9.311e+08
-5.62227e+10
-7.40775e+08
1.00098e+09
-5.61931e+10
-7.92921e+08
1.04724e+09
-5.60769e+10
-8.56882e+08
1.06351e+09
-5.58211e+10
-9.419e+08
1.02657e+09
-5.53236e+10
-1.06118e+09
9.05224e+08
-5.43867e+10
-1.23262e+09
6.48866e+08
-5.26086e+10
-1.47966e+09
1.27775e+08
-4.98886e+10
-1.44294e+09
-6.08239e+08
-4.61667e+10
-5.87291e+08