/*--------------------------------*- C++ -*----------------------------------*\
| =========                 |                                                 |
| \\      /  F ield         | OpenFOAM: The Open Source CFD Toolbox           |
|  \\    /   O peration     | Version:  4.1                                   |
|   \\  /    A nd           | Web:      www.OpenFOAM.org                      |
|    \\/     M anipulation  |                                                 |
\*---------------------------------------------------------------------------*/
FoamFile
{
    version     2.0;
    format      ascii;
    class       volVectorField;
    location    "50";
    object      U;
}
// * * * * * * * * * * * * * * * * * * * * * * * * * * * * * * * * * * * * * //

dimensions      [0 1 -1 0 0 0 0];

internalField   nonuniform List<vector> 
4432
(
(-180169 -4540.29 -5065.55)
(-183356 -3431.47 -3161.28)
(-179416 -2376.04 -1437.91)
(-176606 -3542.13 -3014.82)
(-176870 -3320.36 -2826.03)
(-176267 -3204.26 -2331.48)
(-175137 -3257.5 -2466.77)
(-174470 -3224.05 -2416.91)
(-173899 -3218.92 -2411.38)
(-173398 -3236.34 -2434.14)
(-172895 -3264.66 -2475.89)
(-172379 -3287.3 -2555.31)
(-171816 -3306.73 -2663.51)
(-171212 -3332.56 -2785.02)
(-170558 -3365.49 -2910.32)
(-169782 -3401.02 -3062.82)
(-168834 -3433.95 -3247.02)
(-167697 -3468.61 -3451.89)
(-166350 -3507.05 -3670.22)
(-164765 -3548.42 -3896.39)
(-162923 -3590.94 -4123.75)
(-160821 -3636.11 -4346.29)
(-158473 -3681.85 -4553.76)
(-155905 -3728.88 -4739.99)
(-153165 -3776.59 -4899.5)
(-150299 -3824.83 -5031.22)
(-147363 -3872.72 -5135.07)
(-144402 -3919.95 -5213.39)
(-141463 -3965.78 -5268.26)
(-138578 -4010.03 -5302.82)
(-135779 -4052.08 -5320.02)
(-133093 -4091.04 -5322.4)
(-130536 -4125.25 -5314.16)
(-128130 -4152.76 -5295.28)
(-125882 -4172.34 -5262.11)
(-123798 -4181.76 -5212.36)
(-121878 -4178.36 -5141.46)
(-120122 -4163.3 -5041.72)
(-118477 -4138.16 -4929.1)
(-116921 -4096.5 -4797.23)
(-115419 -4031.39 -4641.68)
(-113922 -3931.89 -4448.94)
(-112372 -3786.7 -4200.18)
(-110735 -3583.35 -3867.18)
(-109102 -3300.15 -3410.51)
(-107742 -2911.25 -2787.74)
(-106794 -2385.08 -2000.76)
(-105362 -1644.67 -932.534)
(-101608 -576.117 668.63)
(-96821.4 1309.24 3752.81)
(-104436 5629.21 7888.55)
(-137488 9870.52 14566.5)
(-172226 20875.1 -2542.54)
(-23356.4 8598.14 -8875.25)
(-226402 301.662 -3109.12)
(-226879 1283.27 -2918.69)
(-225954 2159.56 -2572.24)
(-224523 1279.11 -2567.64)
(-224107 1523.03 -2672.84)
(-223942 1655.48 -2387.1)
(-223206 1659.85 -2481.36)
(-222707 1733.62 -2467.95)
(-222316 1783.1 -2501.48)
(-221934 1814.85 -2530.72)
(-221499 1837.59 -2581.9)
(-221013 1864.49 -2664.8)
(-220481 1893.49 -2769.76)
(-219911 1917.61 -2878.18)
(-219287 1936.88 -2990.17)
(-218553 1955.51 -3124.86)
(-217679 1978.1 -3281.2)
(-216663 2001.6 -3444.11)
(-215488 2025.15 -3615.63)
(-214133 2049.7 -3786.98)
(-212591 2077.29 -3955.96)
(-210864 2107.35 -4115.26)
(-208961 2141.55 -4258.74)
(-206906 2179.71 -4381.51)
(-204731 2221.86 -4480.13)
(-202471 2268.1 -4554.42)
(-200161 2318.16 -4605.15)
(-197829 2371.84 -4634.94)
(-195499 2428.19 -4646.35)
(-193185 2486.32 -4642.68)
(-190898 2545.05 -4627.04)
(-188643 2603.26 -4601.64)
(-186415 2660.47 -4568.18)
(-184211 2715.71 -4526.58)
(-182016 2767.77 -4475.81)
(-179817 2815.87 -4413.63)
(-177592 2858.97 -4336.57)
(-175318 2894.27 -4244.12)
(-172970 2921.67 -4134.2)
(-170516 2943.68 -4006.55)
(-167916 2965.01 -3858.96)
(-165109 2992.43 -3684.96)
(-162019 3029.48 -3477.52)
(-158581 3080.68 -3221.06)
(-154831 3155.32 -2885.63)
(-150921 3270.41 -2460.35)
(-146918 3443.28 -1954.63)
(-142166 3711.22 -1340.02)
(-135193 4163.2 -460.026)
(-126403 5151.26 1680.12)
(-128144 7184.97 4117.48)
(-144066 8040.34 6279.04)
(-169348 11329.7 595.676)
(33343.5 6633.33 -20395.6)
(-260983 -1447.76 383.83)
(-261421 -1848.33 995.166)
(-261950 -1999.26 2516.09)
(-261758 -1699.8 1496.22)
(-261391 -1760.7 1623.93)
(-261780 -1756.75 2157.87)
(-261769 -1762.18 2345.99)
(-261655 -1741.37 2535.61)
(-261668 -1745.94 2641.79)
(-261675 -1740.99 2712.09)
(-261647 -1747.79 2743.52)
(-261577 -1751.92 2725.65)
(-261439 -1753.43 2671.88)
(-261246 -1753.57 2597.24)
(-261044 -1759.54 2509.92)
(-260819 -1769.69 2407.34)
(-260538 -1777.26 2289.32)
(-260213 -1780.01 2161)
(-259847 -1785.92 2027.06)
(-259435 -1791.24 1896.77)
(-258982 -1797.56 1781.28)
(-258498 -1803.73 1690.17)
(-257997 -1809.92 1637.08)
(-257500 -1816.34 1630.19)
(-257039 -1822.97 1675.37)
(-256635 -1829.88 1772)
(-256317 -1836.84 1916.69)
(-256096 -1843.91 2102.26)
(-255987 -1851.15 2321.48)
(-255993 -1858.99 2565.22)
(-256122 -1867.6 2825.84)
(-256379 -1876.7 3098.34)
(-256768 -1884.45 3380.56)
(-257296 -1889.31 3670.48)
(-257970 -1891.35 3967.19)
(-258813 -1888.89 4273.88)
(-259859 -1880.74 4592)
(-261112 -1868.14 4925.56)
(-262622 -1847.02 5289.81)
(-264421 -1815.75 5702)
(-266587 -1769.06 6176.68)
(-269190 -1700.18 6724.02)
(-272280 -1602.81 7353.08)
(-275944 -1469.27 8069.93)
(-280360 -1288.61 8870.43)
(-285858 -1046.14 9727.23)
(-292708 -712.244 10575.2)
(-300796 -262.331 11318.5)
(-308645 387.758 12023.7)
(-317617 1698.76 12970.5)
(-334795 3508.26 13872.7)
(-384139 5219.18 9754.42)
(-386313 12399.6 -10395.2)
(-498068 33650.3 -22249.9)
(-282072 1750.09 -894.565)
(-282952 1407.06 -1242.92)
(-283239 1268.16 -926.794)
(-283298 1551.4 -651.633)
(-283542 1501.15 -783.039)
(-284204 1504.72 -427.554)
(-284547 1498.08 -272.883)
(-284807 1514.26 -136.147)
(-285201 1505.17 -76.9079)
(-285572 1502.54 -21.1716)
(-285914 1486.74 6.72216)
(-286216 1470.91 -4.75523)
(-286472 1455.38 -48.6366)
(-286709 1439.27 -106.96)
(-286957 1415.83 -174.183)
(-287189 1386.5 -260.709)
(-287365 1357.5 -364.564)
(-287502 1331 -478.332)
(-287600 1299.97 -599.391)
(-287654 1268.03 -718.058)
(-287668 1234.1 -827.941)
(-287649 1199.63 -917.919)
(-287608 1165.09 -978.002)
(-287564 1131.1 -1000.07)
(-287540 1098.56 -979.023)
(-287554 1068.64 -914.871)
(-287627 1042.58 -810.063)
(-287764 1021.76 -670.07)
(-287974 1007.37 -500.694)
(-288255 1000.49 -309.171)
(-288606 1002.06 -101.754)
(-289021 1013.57 116.953)
(-289497 1037.63 344.247)
(-290028 1076.3 579.187)
(-290608 1130.23 821.649)
(-291236 1200.87 1072.28)
(-291912 1288.94 1332.07)
(-292638 1394.45 1602.07)
(-293425 1516.65 1886.73)
(-294282 1655.4 2192.01)
(-295229 1811 2527.51)
(-296286 1983.1 2900.57)
(-297443 2171.82 3310.54)
(-298720 2377.2 3754.89)
(-300159 2594.47 4239.93)
(-301919 2815.6 4766.54)
(-304100 3037.25 5324.35)
(-306315 3218.15 5939.64)
(-306938 3479.49 6777.26)
(-306169 4102.9 7827.92)
(-305292 4822.37 8680.04)
(-321066 1680.91 8677.01)
(-295973 8683.38 -6598.02)
(-260281 -4919.47 -137.295)
(-215128 -1600.02 -2258.25)
(-211768 -1673.29 -2694.58)
(-211835 -2220.62 -2817.24)
(-211485 -1569.8 -2098.8)
(-210609 -1649.94 -2359.25)
(-210370 -1719.89 -2259.84)
(-210209 -1776.72 -2036.08)
(-210110 -1789.72 -1930.51)
(-210044 -1833.21 -1882.56)
(-209931 -1856.63 -1853.88)
(-209782 -1880.46 -1877.97)
(-209593 -1893.73 -1955.54)
(-209334 -1907.16 -2084.09)
(-209050 -1923.33 -2262.86)
(-208758 -1943.02 -2491.93)
(-208417 -1971.73 -2745.9)
(-207977 -2000.76 -3023.13)
(-207418 -2028.24 -3321.72)
(-206723 -2057.31 -3640.29)
(-205878 -2085.84 -3962.38)
(-204876 -2117.02 -4276.3)
(-203717 -2148.45 -4560.7)
(-202411 -2182.01 -4795.51)
(-200987 -2217.64 -4962.26)
(-199485 -2255.94 -5048.8)
(-197947 -2296.89 -5053.01)
(-196411 -2339.99 -4978.86)
(-194908 -2384.68 -4837.2)
(-193461 -2430.51 -4640.29)
(-192082 -2477.02 -4403.51)
(-190781 -2523.7 -4139.46)
(-189554 -2570.93 -3853.33)
(-188405 -2619.32 -3544.06)
(-187329 -2666.81 -3225.12)
(-186317 -2711.5 -2913.71)
(-185354 -2754.05 -2605.16)
(-184409 -2791.54 -2310.66)
(-183461 -2819.18 -2042.34)
(-182496 -2837.16 -1806.14)
(-181419 -2848.17 -1603.82)
(-180119 -2845.23 -1434.23)
(-178509 -2817.87 -1310.26)
(-176494 -2759.19 -1241.13)
(-174007 -2653.2 -1245.2)
(-171087 -2465.63 -1375.86)
(-167933 -2146.99 -1724.48)
(-164657 -1620.04 -2409.21)
(-160408 -751.026 -3568.94)
(-153604 792.952 -5075.86)
(-146237 3005.64 -7087.31)
(-151195 6971.89 -11419.9)
(-176884 10896.9 -18349.1)
(-195453 27494.5 -16760.6)
(-59517 11954.5 -9732.91)
(-237541 2683.66 -2852.98)
(-236004 2652.18 -2606.87)
(-235182 2189.27 -2374.97)
(-234585 2803.61 -1916.12)
(-234506 2766.29 -2123.51)
(-234382 2732.15 -2136.3)
(-234326 2711.87 -1945.49)
(-234399 2731.5 -1886.81)
(-234554 2724.73 -1863.98)
(-234682 2736.14 -1854.82)
(-234819 2748.04 -1880.3)
(-234938 2770.01 -1949.63)
(-235010 2792.6 -2069.85)
(-235053 2813.54 -2246.38)
(-235093 2832.45 -2469.59)
(-235091 2844.55 -2717.2)
(-235000 2857.7 -2987.88)
(-234825 2873.64 -3286.48)
(-234552 2889.61 -3600.57)
(-234164 2907.53 -3922.37)
(-233656 2924.55 -4237.75)
(-233031 2942.6 -4529.81)
(-232300 2959.92 -4780.26)
(-231492 2976.27 -4972.96)
(-230641 2990.88 -5097.95)
(-229784 3003.49 -5153.82)
(-228953 3014.25 -5144.49)
(-228168 3023.36 -5079.47)
(-227444 3030.98 -4969)
(-226783 3037.29 -4825.09)
(-226182 3042.41 -4658.29)
(-225627 3045.84 -4476.9)
(-225107 3046.59 -4286.45)
(-224601 3045.93 -4091.83)
(-224086 3044.65 -3897.38)
(-223542 3040.77 -3707.51)
(-222937 3035.8 -3526.49)
(-222241 3032.33 -3358.1)
(-221404 3028.64 -3205.24)
(-220372 3024.94 -3074.02)
(-219060 3030.37 -2971.15)
(-217353 3050.97 -2895.57)
(-215122 3089.76 -2846.61)
(-212281 3155.95 -2828.13)
(-208808 3269.06 -2851.23)
(-204784 3457.24 -2935.87)
(-200192 3758.5 -3097.48)
(-194158 4248.03 -3299.56)
(-185333 5077.83 -3407.7)
(-173666 6123.46 -3722.71)
(-172669 7381.65 -4799.41)
(-179920 6411.58 -3782.47)
(-198790 6444.25 -4341.44)
(32522.9 9065.16 -2907.96)
(-227900 -3177.6 -2754.24)
(-227117 -2851.23 -766.842)
(-226487 -2651.95 -911.994)
(-226083 -2471.66 138.358)
(-225901 -2484.67 297.625)
(-225619 -2561.87 480.471)
(-225416 -2559.69 607.619)
(-225288 -2556.86 706.713)
(-225240 -2570.05 765.847)
(-225201 -2573.02 786.008)
(-225181 -2580.38 763.865)
(-225154 -2582.56 718.407)
(-225086 -2587.16 618.62)
(-225000 -2599.92 451.176)
(-224910 -2619.72 218.653)
(-224789 -2645.42 -56.0772)
(-224610 -2669.78 -367.528)
(-224372 -2697.35 -704.037)
(-224068 -2725.05 -1051.42)
(-223688 -2754.77 -1392.03)
(-223232 -2783.96 -1709.55)
(-222707 -2813.01 -1976.45)
(-222135 -2841.22 -2168.68)
(-221551 -2868.85 -2263.41)
(-221003 -2896.55 -2250.46)
(-220535 -2924.84 -2133.66)
(-220177 -2954.14 -1927.21)
(-219946 -2984.84 -1652.26)
(-219846 -3017.12 -1331.02)
(-219870 -3050.95 -983.963)
(-220001 -3087.15 -627.069)
(-220217 -3130.32 -271.619)
(-220516 -3186.21 75.5374)
(-220901 -3248.11 405.912)
(-221346 -3307.55 711.907)
(-221843 -3376.52 992.456)
(-222409 -3453.48 1250.24)
(-223064 -3533.44 1490.57)
(-223817 -3615.74 1726.08)
(-224789 -3699.69 1970.67)
(-226037 -3788.23 2230.39)
(-227602 -3873.14 2519.56)
(-229527 -3945.01 2865.33)
(-231856 -3992.18 3298.8)
(-234729 -3988.41 3845.91)
(-238471 -3884.88 4530.46)
(-243376 -3616.38 5348.53)
(-248995 -3090.77 6334.37)
(-253586 -2149.18 7388.15)
(-257996 -491.891 7834.93)
(-270911 2429.87 4324.89)
(-323130 5596.66 3906.01)
(-378111 24241 -23865.6)
(-306436 20312.6 -13714)
(-254250 920.635 -3190.15)
(-253988 1175.95 -1315.12)
(-253649 1356.64 -790.873)
(-253755 1513.71 -293.879)
(-254013 1507.07 -86.5064)
(-253935 1444.83 107.116)
(-253835 1454.57 247.988)
(-253863 1466.09 325.916)
(-253942 1465.43 407.312)
(-254012 1475.52 445.86)
(-254102 1483.15 438.31)
(-254184 1496.67 391.413)
(-254247 1509.31 294.118)
(-254308 1516.03 133.891)
(-254379 1517.76 -84.4932)
(-254433 1515.52 -335.082)
(-254456 1515.79 -616.064)
(-254454 1514.64 -919.605)
(-254420 1514.94 -1227.84)
(-254348 1515.15 -1527.91)
(-254238 1517.7 -1800.33)
(-254094 1522.36 -2023.55)
(-253934 1529.89 -2173.37)
(-253786 1540.11 -2230.56)
(-253685 1552.27 -2186.9)
(-253665 1565.59 -2046.51)
(-253746 1579.22 -1823.29)
(-253938 1592.13 -1536.43)
(-254238 1603.45 -1205.3)
(-254637 1612.37 -847.885)
(-255116 1617.21 -479.098)
(-255653 1612.94 -110.465)
(-256227 1593.48 251.96)
(-256815 1563.49 603.734)
(-257397 1528.65 942.259)
(-257952 1477.06 1267.54)
(-258458 1408.47 1580.82)
(-258900 1325.01 1886.54)
(-259262 1228.23 2190.12)
(-259522 1115.94 2497.18)
(-259694 986.138 2817.95)
(-259771 840.678 3171.3)
(-259718 681.545 3579.03)
(-259501 516.398 4049.22)
(-259136 362.053 4579.06)
(-258751 251.073 5159.37)
(-258333 217.516 5769.74)
(-257285 299.09 6364.84)
(-253923 547.469 6611.78)
(-248586 991.265 5979.28)
(-244745 2097.8 4423.69)
(-259405 -596.455 4847.82)
(-212385 10059.9 -27122.5)
(-87992.9 5506.83 -17030.1)
(-220384 -2972.48 -4864.35)
(-219426 -2986.21 -3009.26)
(-218749 -2747.07 -2445.03)
(-218117 -2634.94 -1888.04)
(-217725 -2633.35 -1437.11)
(-217281 -2660.48 -1085.68)
(-216951 -2670.37 -813.303)
(-216705 -2677.77 -632.917)
(-216542 -2667.28 -508.781)
(-216386 -2646.81 -475.182)
(-216213 -2638.07 -530.753)
(-216031 -2643.41 -626.855)
(-215825 -2655.43 -788.723)
(-215583 -2678.68 -1035.1)
(-215288 -2712.12 -1358.62)
(-214895 -2755.7 -1746.42)
(-214368 -2805.83 -2190.59)
(-213685 -2864.67 -2683.6)
(-212817 -2929.83 -3200.18)
(-211739 -3002.87 -3726.04)
(-210431 -3081.16 -4232.88)
(-208882 -3165.06 -4689.47)
(-207109 -3251.92 -5052.31)
(-205161 -3340.72 -5282.5)
(-203120 -3430.57 -5359.64)
(-201075 -3519.68 -5286.3)
(-199109 -3606.57 -5083.8)
(-197288 -3689.18 -4782.2)
(-195660 -3765.26 -4412.66)
(-194260 -3833.09 -4002.07)
(-193106 -3892.82 -3571.2)
(-192210 -3946.97 -3140.73)
(-191590 -3997.01 -2729.1)
(-191269 -4038.06 -2336.58)
(-191256 -4064.08 -1955.51)
(-191559 -4076.41 -1598.97)
(-192199 -4075.57 -1266.61)
(-193194 -4060.57 -955.412)
(-194554 -4034.94 -659.804)
(-196257 -3993.21 -363.711)
(-198340 -3927.47 -60.9358)
(-200875 -3832.43 269.528)
(-203957 -3702.81 657.518)
(-207738 -3533.31 1144.62)
(-212544 -3312.69 1801.52)
(-219003 -3009.57 2727.99)
(-227851 -2578.29 4043.66)
(-239331 -1987.3 6077.47)
(-252357 -1293.59 9262.41)
(-270247 -702.568 13563.7)
(-312308 3523.11 20977)
(-454898 2478.25 23875.3)
(-672310 5236.89 29587)
(-494752 -9756.01 7992.37)
(-228434 2049.77 -5697.07)
(-228123 1986.6 -4277.89)
(-227917 2192.84 -3933.52)
(-228073 2277.8 -3558.03)
(-228298 2257.55 -3151.69)
(-228300 2212.39 -2752.05)
(-228337 2184.6 -2511.25)
(-228413 2160.66 -2382.9)
(-228529 2155.59 -2293.16)
(-228657 2162.03 -2286.55)
(-228780 2159.32 -2345.7)
(-228882 2145.02 -2456.04)
(-228962 2125.6 -2629.12)
(-229023 2096.43 -2877.43)
(-229056 2058.11 -3194.02)
(-229024 2010.31 -3565.44)
(-228907 1956.07 -3991.47)
(-228691 1892.92 -4458.21)
(-228359 1822.8 -4945.84)
(-227894 1743.67 -5436.36)
(-227284 1657.72 -5905.95)
(-226523 1564.39 -6322.76)
(-225628 1466.26 -6646.33)
(-224642 1364.85 -6840.93)
(-223630 1261.94 -6887.72)
(-222657 1160.45 -6790.05)
(-221778 1063.05 -6569.27)
(-221025 972.814 -6256.08)
(-220418 892.704 -5882.43)
(-219962 824.799 -5476.09)
(-219648 768.974 -5058.82)
(-219458 722.971 -4647.94)
(-219374 685.099 -4254.73)
(-219376 659.099 -3886.88)
(-219444 649.247 -3549.89)
(-219553 653.232 -3246.22)
(-219680 669.604 -2977.87)
(-219796 699.026 -2743.41)
(-219872 740.692 -2536.39)
(-219875 795.67 -2356.5)
(-219731 867.167 -2207.51)
(-219362 953.395 -2087.66)
(-218703 1050.86 -1995.38)
(-217700 1155.6 -1926.35)
(-216409 1268.84 -1872.54)
(-215029 1403.5 -1815.84)
(-213701 1590.97 -1688.62)
(-211837 1794.09 -1390.45)
(-208189 1768.56 -890.71)
(-203964 1524.23 -1004.78)
(-210471 3758.64 485.472)
(-246417 929.946 10334.2)
(-298223 5403.56 27186.3)
(-244906 -4385.29 8685.93)
(-231458 -1566.82 -3640.02)
(-231648 -1651.37 -2292.03)
(-231549 -1634.57 -1735.57)
(-231639 -1604.42 -1274.42)
(-231707 -1622.28 -860.684)
(-231719 -1612.63 -579.075)
(-231755 -1605 -361.914)
(-231832 -1618.75 -205.346)
(-231975 -1630.8 -94.9164)
(-232150 -1628.76 -61.8299)
(-232289 -1612.46 -111.607)
(-232394 -1604.27 -245.652)
(-232492 -1600.54 -467.938)
(-232577 -1602.78 -786.465)
(-232633 -1611.04 -1186.81)
(-232629 -1624.18 -1660.14)
(-232545 -1643.67 -2196.21)
(-232359 -1668.74 -2778.47)
(-232054 -1701.63 -3381.71)
(-231608 -1741.46 -3987.49)
(-231000 -1790.06 -4566.7)
(-230210 -1846.77 -5080.87)
(-229242 -1911.64 -5471.45)
(-228138 -1984.64 -5684.73)
(-226966 -2064.24 -5695.53)
(-225793 -2148.29 -5514.88)
(-224667 -2234.3 -5181.95)
(-223608 -2320.67 -4746.05)
(-222619 -2405.96 -4254.58)
(-221689 -2488.36 -3744.69)
(-220802 -2566.7 -3242.37)
(-219940 -2639.71 -2767.44)
(-219087 -2703.97 -2333.91)
(-218227 -2755.94 -1942.3)
(-217347 -2794.04 -1584.8)
(-216441 -2816.21 -1257.52)
(-215502 -2818.31 -954.589)
(-214532 -2797.52 -675.926)
(-213546 -2753.22 -426.889)
(-212550 -2680.84 -196.716)
(-211532 -2580.32 20.7483)
(-210469 -2451.77 244.27)
(-209310 -2290.36 481.563)
(-208019 -2090.72 748.2)
(-206621 -1846.7 1073.32)
(-205232 -1541.33 1513.07)
(-204094 -1171.66 2089.82)
(-202640 -736.642 3009.7)
(-199252 -173.098 4461.17)
(-193278 738.525 6749.01)
(-196818 2514.99 16018.4)
(-230271 4668 36566.2)
(-315719 23634.8 85580.1)
(-265540 17481.8 28064)
(-225296 3106.96 -3637.45)
(-225474 3147.87 -2287.53)
(-225528 3197.82 -2028.78)
(-225826 3276.41 -1705.33)
(-226146 3292.83 -1294.4)
(-226361 3332.58 -954.364)
(-226664 3365.89 -710.449)
(-227013 3374.22 -552.318)
(-227402 3382.23 -465.993)
(-227817 3403.57 -452.664)
(-228223 3439.24 -508.907)
(-228615 3467.26 -644.963)
(-229001 3492.48 -871.364)
(-229379 3514.62 -1195.12)
(-229729 3534.85 -1604.98)
(-230025 3555.35 -2092.94)
(-230246 3575.53 -2654.24)
(-230374 3596.77 -3272.13)
(-230392 3617.13 -3926.48)
(-230282 3637.23 -4597.69)
(-230021 3654.6 -5261.45)
(-229588 3668.58 -5877.91)
(-228987 3676.94 -6390.16)
(-228258 3676.66 -6741.92)
(-227468 3665.96 -6902.73)
(-226687 3644.09 -6879.25)
(-225966 3611.63 -6705.63)
(-225338 3569.31 -6429.28)
(-224816 3518.7 -6098)
(-224401 3462.22 -5751.09)
(-224087 3401.64 -5415.72)
(-223862 3339.02 -5110.7)
(-223710 3278.16 -4849.48)
(-223616 3222.64 -4637.56)
(-223565 3173.77 -4474.57)
(-223536 3133.04 -4359.54)
(-223507 3103.71 -4289.79)
(-223447 3088.09 -4259.07)
(-223323 3086.31 -4261.45)
(-223096 3097.25 -4300.41)
(-222727 3122.06 -4377.6)
(-222170 3162.67 -4488.78)
(-221361 3221.92 -4638.62)
(-220233 3299.38 -4836.25)
(-218769 3393.76 -5084.23)
(-217034 3511.73 -5372.02)
(-214975 3660.99 -5661.42)
(-211775 3803.7 -5910.1)
(-205885 3915.18 -6048.56)
(-196272 4027.01 -5752.41)
(-192216 4374.46 -2365.41)
(-196668 1211.37 9232.77)
(-186933 9157.96 61815.9)
(-60304.9 7590.18 31801.5)
(-219009 -806.942 -5110.53)
(-219279 -745.857 -3795.5)
(-219348 -805.254 -3397.16)
(-219538 -809.114 -2959.18)
(-219703 -798.434 -2608.64)
(-219853 -753.755 -2318.63)
(-219988 -727.859 -2084.35)
(-220158 -727.431 -1904.58)
(-220404 -736.824 -1797.91)
(-220680 -730.683 -1760.98)
(-220943 -718.92 -1773.01)
(-221206 -711.267 -1877.37)
(-221469 -705.779 -2084.18)
(-221715 -703.719 -2397.58)
(-221920 -705.141 -2814.83)
(-222053 -708.783 -3331.31)
(-222084 -714.861 -3938.59)
(-221983 -723.311 -4612.23)
(-221734 -735.592 -5327.83)
(-221316 -751.03 -6057.96)
(-220699 -771.65 -6779.8)
(-219852 -797.025 -7447.02)
(-218777 -828.207 -7978.59)
(-217552 -865.379 -8281.46)
(-216303 -906.524 -8302.63)
(-215155 -949.87 -8058.79)
(-214186 -992.427 -7611.15)
(-213424 -1033.03 -7035.51)
(-212858 -1071.74 -6401.11)
(-212456 -1110.07 -5760.38)
(-212179 -1149.67 -5148.97)
(-211992 -1191.17 -4588.43)
(-211859 -1234.36 -4086.64)
(-211748 -1279.12 -3643.11)
(-211632 -1326.8 -3253.02)
(-211488 -1380.63 -2907.39)
(-211300 -1442.3 -2596.3)
(-211047 -1508.14 -2311.25)
(-210712 -1577.08 -2044.77)
(-210275 -1647.47 -1787.55)
(-209707 -1715.44 -1538.71)
(-208963 -1770.91 -1276.14)
(-208005 -1803.49 -982.427)
(-206811 -1800.11 -631.538)
(-205418 -1744.12 -183.754)
(-203960 -1612.86 437.516)
(-202476 -1385.27 1321.57)
(-200127 -1013.54 2637.08)
(-195015 -519.488 4535.63)
(-184902 193.445 7393.11)
(-179375 1783.82 13007.9)
(-183593 7026.34 30564.2)
(-197419 32143.1 91473)
(-111453 20634.5 41497)
(-217044 1389.9 -3145.04)
(-217649 1496.65 -1593.56)
(-217780 1458.95 -1205)
(-217964 1479.19 -786.981)
(-218109 1510.51 -346.065)
(-218256 1572.27 32.1347)
(-218429 1612.35 330.595)
(-218615 1625.4 582.877)
(-218825 1628 767.222)
(-219047 1646.88 884.428)
(-219273 1672.82 935.157)
(-219503 1696.75 896.803)
(-219733 1721.66 757.042)
(-219953 1747.74 512.117)
(-220154 1777.17 164.842)
(-220315 1812.95 -282.608)
(-220418 1856.72 -820.86)
(-220448 1910.53 -1428.46)
(-220399 1975.01 -2078.39)
(-220270 2052.92 -2745.6)
(-220044 2144.53 -3403.6)
(-219709 2252.44 -4006.51)
(-219281 2376.75 -4474.9)
(-218838 2516.35 -4717.33)
(-218489 2669.11 -4684.29)
(-218322 2830.31 -4393.52)
(-218372 2995.49 -3905.21)
(-218620 3158.87 -3292.33)
(-219020 3314.95 -2623.2)
(-219510 3458.2 -1950.55)
(-220035 3584.4 -1308.51)
(-220550 3691.34 -717.482)
(-221022 3778.42 -187.45)
(-221425 3845.18 280.73)
(-221748 3889.97 692.706)
(-221985 3908.97 1056.66)
(-222177 3904.77 1386.27)
(-222315 3880.93 1684.09)
(-222369 3838.2 1950.55)
(-222314 3778.18 2191.34)
(-222109 3702.01 2413.62)
(-221701 3613.13 2623.95)
(-221023 3518.2 2824.24)
(-220018 3424.6 3019.31)
(-218682 3341.84 3226.7)
(-217104 3284.13 3484.81)
(-215269 3269.55 3868.87)
(-212432 3318.74 4480.25)
(-206952 3394.63 5243.64)
(-197693 3540.04 6005.56)
(-190530 3886.47 8076.72)
(-198762 4096.98 16759.4)
(-181908 13746.4 42159.8)
(39303.1 11483.6 22584.7)
(-219893 -1416.54 -4013.36)
(-219869 -1264.77 -2952.93)
(-220054 -1293.32 -2565.91)
(-220259 -1312.11 -2103.49)
(-220463 -1288.27 -1745.38)
(-220694 -1244.17 -1383.63)
(-220994 -1233.39 -1058.6)
(-221411 -1243.16 -808.764)
(-221954 -1250.58 -647.709)
(-222539 -1243.8 -555.506)
(-223134 -1241.62 -550.426)
(-223757 -1244.81 -660.957)
(-224390 -1249.1 -898.984)
(-224998 -1252.42 -1276.21)
(-225544 -1252 -1800.68)
(-225980 -1246.12 -2471.9)
(-226251 -1232.09 -3277.32)
(-226311 -1209.05 -4188.7)
(-226130 -1174.1 -5168.52)
(-225686 -1126.38 -6180.91)
(-224934 -1062.55 -7206.1)
(-223797 -980.982 -8201.2)
(-222242 -883.431 -9049.86)
(-220367 -774.66 -9572.47)
(-218401 -663.069 -9654.24)
(-216586 -555.86 -9337.86)
(-215083 -457.234 -8746.71)
(-213967 -369.745 -8010.99)
(-213235 -296.228 -7237.67)
(-212843 -238.939 -6499.72)
(-212731 -198.089 -5838.42)
(-212837 -173.164 -5272.46)
(-213101 -164.594 -4803.03)
(-213470 -171.901 -4422.32)
(-213896 -193.998 -4120.77)
(-214341 -224.388 -3886.04)
(-214767 -263.123 -3702.83)
(-215132 -317.693 -3557.4)
(-215387 -393.101 -3434.95)
(-215470 -489.867 -3318.38)
(-215323 -605.862 -3192.26)
(-214869 -737.192 -3040.23)
(-214015 -878.746 -2836.68)
(-212678 -1025.58 -2553.36)
(-210794 -1172.92 -2189.01)
(-208388 -1315.99 -1697.2)
(-205333 -1441.18 -1001.77)
(-200703 -1508.25 -4.02063)
(-192702 -1623.47 1348.69)
(-179795 -2046.48 3414.01)
(-167015 -1284.7 7177.6)
(-175239 4417.71 6615.57)
(-147173 7581.31 20871.8)
(51307.4 -1128.24 11574.6)
(-207862 123.914 -2911.45)
(-207677 189.501 -1710.13)
(-207608 128.754 -1182.31)
(-207447 74.5683 -650.613)
(-207232 75.1604 -190.655)
(-207128 104.412 232.504)
(-207132 105.621 595.502)
(-207218 91.7344 902.029)
(-207399 85.7989 1147.57)
(-207623 99.1475 1316.56)
(-207864 111.007 1389.74)
(-208122 119.591 1347.01)
(-208375 127.972 1175.1)
(-208588 136.151 862.943)
(-208706 144.271 404.532)
(-208674 151.791 -200.73)
(-208427 159.134 -940.583)
(-207910 165.051 -1787.39)
(-207080 170.719 -2703.13)
(-205906 175.883 -3655.31)
(-204328 183.841 -4624.89)
(-202259 196.511 -5576.11)
(-199651 213.633 -6395.26)
(-196606 234.81 -6901.17)
(-193382 258.309 -6978.72)
(-190270 283.182 -6667.03)
(-187496 308.44 -6087.69)
(-185175 332.739 -5363.12)
(-183353 351.934 -4595.72)
(-182016 361.484 -3853.7)
(-181120 359.309 -3171.12)
(-180609 344.826 -2559.95)
(-180428 316.71 -2015.95)
(-180520 275.184 -1527.32)
(-180825 221.669 -1081.06)
(-181300 161.632 -674.943)
(-181770 82.2492 -349.974)
(-182180 -30.9783 -95.8688)
(-182505 -186.071 101.779)
(-182716 -387.718 247.402)
(-182762 -634.409 337.297)
(-182566 -923.264 368.158)
(-182033 -1251.27 336.08)
(-181069 -1614.19 231.334)
(-179644 -2004.69 45.6854)
(-177831 -2411.03 -225.828)
(-175561 -2809.52 -570.802)
(-171809 -3143.63 -869.539)
(-164507 -3434.13 -856.967)
(-154219 -3708.26 717.644)
(-151622 -2852.18 3273.76)
(-179280 3243.03 3299.38)
(-133288 7319.88 -12897.5)
(81304.9 -543.699 -8080.83)
(-232859 -2868.01 -2849.82)
(-233130 -2894.62 -2066.39)
(-233339 -2928.91 -1601.7)
(-233646 -2989.31 -1036.32)
(-233886 -2998.93 -547.785)
(-234118 -3012.73 -104.429)
(-234426 -3064.24 268.9)
(-234841 -3120.17 538.385)
(-235337 -3157.73 732.506)
(-235872 -3186.88 864.365)
(-236443 -3217.5 879.706)
(-237050 -3249.44 755.917)
(-237670 -3280.45 476.268)
(-238275 -3309.64 24.6045)
(-238827 -3335.07 -608.854)
(-239280 -3357.98 -1425.38)
(-239577 -3378.85 -2412.6)
(-239667 -3398.24 -3541.73)
(-239522 -3416.82 -4761.72)
(-239136 -3435.26 -6025.45)
(-238469 -3451.49 -7312.98)
(-237386 -3465.53 -8606.77)
(-235745 -3478.57 -9755.49)
(-233598 -3494.03 -10420.8)
(-231250 -3516.32 -10340.3)
(-229037 -3542.95 -9581.61)
(-227140 -3571.5 -8395.34)
(-225622 -3598.26 -7001.85)
(-224475 -3622.91 -5574.15)
(-223656 -3647.43 -4218.48)
(-223110 -3672.61 -2987.5)
(-222784 -3698.6 -1897.79)
(-222631 -3725.47 -947.171)
(-222614 -3754.02 -124.458)
(-222707 -3786.52 582.792)
(-222886 -3825.21 1184.69)
(-223133 -3866.76 1689.67)
(-223433 -3907.54 2104.01)
(-223769 -3945.12 2431.38)
(-224125 -3982.81 2677.13)
(-224469 -4028.38 2833.24)
(-224744 -4088.65 2875.78)
(-224891 -4172.25 2781.3)
(-224820 -4293.14 2522.2)
(-224492 -4472.39 2066.28)
(-223902 -4746.36 1344.99)
(-222829 -5162.5 269.612)
(-220090 -5785.78 -1228.86)
(-212955 -6704.27 -3402.06)
(-199137 -6990.95 -5558.65)
(-187423 -5539.89 -7756.62)
(-191953 -2619.61 -15470.4)
(-189572 -8807.88 -39890)
(30116.9 -8787.41 -23280.9)
(-226591 1541.02 -3463.03)
(-227031 1555.28 -2671.2)
(-227266 1542.3 -2098.8)
(-227543 1513.08 -1446.67)
(-227713 1539.09 -902.932)
(-227944 1565.6 -460.275)
(-228233 1558.18 -64.1564)
(-228553 1550.31 254.668)
(-228920 1564.7 504.212)
(-229328 1590.54 674.053)
(-229763 1616.24 731.705)
(-230214 1640.13 656.145)
(-230663 1662.16 429.923)
(-231080 1680.7 38.0278)
(-231429 1695.04 -526.931)
(-231658 1703.27 -1262.98)
(-231707 1702.79 -2155.98)
(-231521 1690.65 -3171.73)
(-231071 1663.93 -4257.71)
(-230347 1619.76 -5361.15)
(-229304 1558.12 -6457.92)
(-227814 1476.22 -7522.08)
(-225736 1370.93 -8392.47)
(-223135 1241.2 -8724.86)
(-220337 1092.88 -8251.2)
(-217702 944.714 -7053.41)
(-215434 813.736 -5405.26)
(-213598 711.761 -3551.77)
(-212182 641.086 -1684.53)
(-211129 597.64 77.7288)
(-210380 576.199 1674.35)
(-209886 571.386 3082.86)
(-209614 578.235 4302.03)
(-209551 591.278 5339.18)
(-209696 603.844 6203.26)
(-210084 609.751 6914.13)
(-210816 612.18 7502.12)
(-211935 612.682 7992.53)
(-213476 611.849 8400.58)
(-215454 602.33 8710.57)
(-217896 574.017 8928.58)
(-220869 516.724 9046.41)
(-224417 419.585 9036.47)
(-228615 266.025 8853.31)
(-233613 32.3991 8426.74)
(-239669 -320.077 7636)
(-246900 -841.322 6303.54)
(-254419 -1613.91 4173.2)
(-258893 -2794.54 1010.48)
(-257761 -3178.78 -2468.09)
(-254680 -1197.32 -10358.1)
(-251645 -333.595 -36990.9)
(-229742 -23743.4 -101638)
(-141735 -16832.7 -41061.1)
(-230346 -2095.78 -2446.6)
(-230880 -2166.07 -1728.35)
(-231082 -2207.23 -1257.21)
(-231454 -2261.61 -653.637)
(-231746 -2291.8 -78.9324)
(-231999 -2343.85 442.387)
(-232290 -2390.3 893.16)
(-232631 -2416.21 1280.65)
(-232996 -2423.5 1613.1)
(-233406 -2427.6 1863.12)
(-233870 -2425.37 1991.95)
(-234376 -2418.22 1970.34)
(-234910 -2406.53 1768.52)
(-235449 -2391.95 1360.96)
(-235974 -2376.42 728.149)
(-236439 -2362.82 -138.333)
(-236784 -2353.37 -1234.15)
(-236941 -2350.23 -2533.97)
(-236886 -2358.43 -3975.14)
(-236649 -2380.82 -5479.13)
(-236241 -2419.04 -7021.68)
(-235491 -2473.55 -8657.85)
(-234091 -2550.61 -10287.7)
(-232065 -2661.25 -11354.5)
(-230020 -2799.64 -11250.9)
(-228591 -2952.19 -10081.2)
(-227911 -3106.42 -8415.66)
(-227828 -3259.22 -6587.83)
(-228137 -3406.49 -4800.68)
(-228661 -3546.67 -3150.75)
(-229274 -3678.21 -1667.17)
(-229897 -3802.48 -343.4)
(-230491 -3920.08 844.278)
(-231037 -4031.69 1923.23)
(-231533 -4139.22 2919)
(-231983 -4244.99 3853.41)
(-232397 -4347.97 4742.06)
(-232794 -4448.7 5595.54)
(-233190 -4550.99 6420.78)
(-233598 -4654.91 7243.83)
(-234068 -4758.96 8083.69)
(-234625 -4864.55 8938.31)
(-235291 -4975.12 9797.83)
(-236111 -5092.86 10631)
(-237201 -5220.24 11376.6)
(-238784 -5361.99 11923.6)
(-240957 -5516.97 12084.7)
(-243118 -5675.37 11549.1)
(-242688 -5736 9701.11)
(-239495 -5837.86 5806.81)
(-237233 -4265.32 -5115.86)
(-246765 -912.586 -27953.4)
(-208963 -12011.8 -73035.1)
(-99602.9 -7467.38 -30585.9)
(-225405 3581.4 -4037.42)
(-225659 3660.37 -3416.59)
(-225793 3675.18 -2951.05)
(-226042 3688.86 -2361.13)
(-226269 3714.59 -1848.23)
(-226495 3710.56 -1379.67)
(-226738 3703.87 -919.857)
(-227032 3710.67 -518.816)
(-227375 3729.55 -188.267)
(-227775 3746.75 52.9659)
(-228230 3765.36 175.08)
(-228731 3784.31 148.144)
(-229263 3803.83 -59.9067)
(-229798 3823.54 -476.794)
(-230297 3844.27 -1125.44)
(-230705 3866.51 -2020.8)
(-230949 3889.65 -3164.61)
(-230958 3913.33 -4536.28)
(-230695 3934.34 -6082.72)
(-230175 3950.7 -7734.35)
(-229389 3960.26 -9479.14)
(-228141 3960.62 -11380)
(-226074 3941.64 -13341.5)
(-223141 3882.62 -14798)
(-219901 3772.37 -15089.2)
(-217017 3609.3 -14272.8)
(-214736 3407.34 -12895.6)
(-213055 3183.36 -11295.7)
(-211890 2955.45 -9699.98)
(-211114 2739.14 -8223.94)
(-210618 2544.09 -6902.26)
(-210318 2375.9 -5732.58)
(-210154 2236.85 -4690.57)
(-210092 2126.93 -3744.33)
(-210112 2044.41 -2861.6)
(-210199 1987.02 -2013.86)
(-210345 1955.68 -1182.58)
(-210543 1949.86 -350.355)
(-210790 1965.5 499.42)
(-211088 1998.93 1374.94)
(-211470 2052.54 2320.68)
(-211912 2124.51 3352.76)
(-212430 2208.34 4489.3)
(-213067 2299.98 5743.1)
(-213965 2394.35 7104.34)
(-215386 2477.61 8493.65)
(-217517 2529.49 9760.35)
(-219892 2519.28 10669.6)
(-220944 2520.2 10692)
(-220802 2308.36 7987.83)
(-232460 2363.04 -1673.93)
(-276734 1328.24 -24296.4)
(-339173 -15014.7 -78498.4)
(-264921 -12962.1 -1901.41)
(-218596 -847.458 -2641.53)
(-218592 -741.482 -1614.65)