/*--------------------------------*- C++ -*----------------------------------*\
| =========                 |                                                 |
| \\      /  F ield         | OpenFOAM: The Open Source CFD Toolbox           |
|  \\    /   O peration     | Version:  4.1                                   |
|   \\  /    A nd           | Web:      www.OpenFOAM.org                      |
|    \\/     M anipulation  |                                                 |
\*---------------------------------------------------------------------------*/
FoamFile
{
    version     2.0;
    format      ascii;
    class       volScalarField;
    location    "12";
    object      epsilon;
}
// * * * * * * * * * * * * * * * * * * * * * * * * * * * * * * * * * * * * * //

dimensions      [0 2 -3 0 0 0 0];

internalField   nonuniform List<scalar> 
4432
(
0.000384815
0.000426261
0.000463932
0.000510447
0.000557948
0.000608679
0.0006576
0.000718469
0.000756622
0.000817419
0.000856061
0.000831381
0.00112823
0.000271337
0.00428714
0.00168058
0.0488862
1.06533
3.34496
16.4521
27.6294
30.5317
62.3081
66.0377
64.5522
42.9797
27.0192
19.2551
14.4879
17.0816
14.9016
13.7726
24.8567
13.012
4.77181
2.74879
0.661885
0.0238095
0.00358092
0.00353373
0.00299546
0.00267257
0.00216405
0.00178112
0.00131752
0.000625041
0.00260796
0.00342484
0.00130869
0.00662394
0.0372653
0.13568
0.0163466
0.0344293
0.000389069
0.000422123
0.000469563
0.00050677
0.000557381
0.000601975
0.000655767
0.000701953
0.000754355
0.000796225
0.000850551
0.000821587
0.00106479
0.000470092
0.00279144
0.00220407
0.0768448
0.649467
2.83493
11.4557
23.4372
26.4575
46.1421
47.5236
40.9962
25.7734
15.946
12.2156
10.7957
8.59847
6.06063
1.99898
0.774697
0.613717
0.198116
0.0556521
0.0230665
0.00767128
0.000779039
0.00179289
0.00188883
0.00145981
0.00098833
0.001316
0.00043105
0.000469749
0.001475
0.0471444
0.0665639
0.263759
1.11421
0.2092
0.0881461
0.0728869
0.0706264
0.00419061
0.0025651
0.00178393
0.000950874
0.00047788
0.000253586
0.000297226
0.000247282
0.000329846
0.000371776
0.000337477
0.000537828
0.000486852
0.000678958
0.00140955
0.0136402
0.333885
2.17159
7.48551
13.9905
18.5257
25.2749
28.8167
30.3483
29.9621
25.6754
22.2561
20.8871
25.8595
35.0731
36.1334
30.146
17.5611
7.88675
2.53451
1.09221
0.373392
0.339715
0.358889
0.521349
0.597817
0.50462
0.349893
0.0469808
0.00923095
0.0124043
0.0644855
0.395687
2.0772
4.12371
3.12811
1.18151
0.722376
0.0706398
0.0041913
0.00259212
0.00183382
0.000982741
0.000476702
0.000286977
0.000219524
0.000214045
0.000221197
0.000289529
0.000296361
0.000463313
0.0004182
0.000646438
0.000162724
0.0186399
0.541493
2.59742
7.32915
11.9994
15.3438
21.1661
24.0717
25.3472
23.2218
18.5637
19.3084
17.3986
11.2233
6.51735
7.40781
8.34775
3.08267
0.691557
0.597845
0.311119
0.0590463
0.035941
0.0389846
0.0895566
0.0418744
0.0211927
0.0913533
0.0227488
0.005292
0.0112005
0.113151
0.788839
3.27862
3.10756
1.60188
0.966304
0.827398
0.0704058
0.000562285
6.60636e-05
4.03044e-05
5.28211e-05
3.6064e-05
2.2138e-05
2.11526e-05
1.77849e-05
4.30973e-05
5.67266e-05
6.21101e-05
7.75947e-05
0.000133509
9.53122e-05
0.000751737
0.00931171
1.7554
3.71283
4.58405
6.34715
7.91095
9.9233
11.8358
14.2923
14.9905
14.9765
17.3744
19.8363
25.4769
22.485
16.394
8.29061
4.25284
2.27286
0.453352
0.46018
0.427297
0.557405
0.622423
0.977857
0.394177
0.296546
0.634935
0.0690325
0.0686713
0.125812
0.261563
1.39176
4.62122
3.28296
6.93222
5.96864
0.0239795
0.070417
0.000562508
6.92786e-05
4.13023e-05
5.72735e-05
3.89314e-05
2.1692e-05
2.4845e-05
2.30624e-05
2.35168e-05
3.68319e-05
5.45535e-05
0.000105888
6.06799e-05
0.000436718
0.0175898
0.635914
2.99939
3.03301
3.99759
5.34597
6.62621
8.1204
9.15819
9.88177
6.59999
5.5278
7.29476
5.36372
5.03497
3.86096
4.46881
2.23222
1.09846
0.391988
0.172709
0.169267
0.071754
0.0537644
0.0602506
0.132159
0.0543036
0.01493
0.219584
0.0517391
0.00281729
0.298695
0.312822
0.824845
2.57904
1.98288
2.83767
2.29527
0.331823
0.070397
0.000561535
8.1052e-06
5.86152e-06
5.59908e-06
5.00369e-06
2.23992e-06
4.31289e-06
4.56328e-06
6.26857e-06
8.55788e-06
3.2234e-05
2.65574e-05
0.000208
0.000168217
0.00171246
0.0477445
1.08205
2.33421
2.41428
2.69683
3.3891
4.24054
4.79664
4.47784
3.22788
3.4107
5.15776
7.09196
7.32283
6.14349
4.85405
3.33147
2.41487
1.40579
0.239096
0.131107
0.098324
0.089012
0.00654982
0.026221
0.03462
0.109355
0.970263
0.198282
0.0703696
0.17863
0.386436
1.15211
2.34175
2.30886
6.74207
4.10009
1.33168
0.0704079
0.000561908
7.93169e-06
5.6924e-06
5.81385e-06
3.66826e-06
5.07301e-06
5.22361e-06
2.24624e-06
5.13653e-06
6.60968e-06
8.6788e-05
9.13981e-05
0.000903295
0.000837781
0.00871071
0.503414
1.76541
1.92547
2.09181
2.34808
2.86996
3.61328
3.86053
3.25135
2.04075
1.8501
2.78536
2.91669
2.97088
2.82242
2.68812
2.01108
1.27377
0.224309
0.061143
0.0194465
0.00661827
0.000161585
0.00104104
0.0149665
0.00604257
0.000138773
0.38559
0.0709466
0.408963
1.49604
2.25561
0.216402
1.03627
1.57878
1.09741
1.63895
0.835225
0.0703897
0.00056152
8.14345e-06
5.43935e-07
6.46921e-07
6.43815e-07
5.41524e-07
2.2465e-07
7.39396e-07
4.60692e-07
8.56476e-07
1.35133e-06
8.65997e-07
1.29296e-06
2.83707e-06
0.000363158
0.00264234
0.14909
0.978692
1.44725
1.41012
1.86521
2.59612
2.03357
1.54477
1.08145
1.41324
2.75761
3.49688
3.58844
3.12875
2.3809
1.77412
1.71389
1.83419
1.3323
0.113366
0.00203788
0.00158926
0.00220256
0.0041314
0.00158257
0.0107098
0.0500242
0.0474469
0.0059755
0.00250652
0.0215612
0.0101463
0.204147
0.170157
0.00111297
0.592228
0.129779
0.0704003
0.000561924
8.25079e-06
5.27148e-07
6.53507e-07
5.99922e-07
7.0498e-07
1.84628e-07
7.90115e-08
5.8873e-07
8.66031e-07
9.17699e-07
8.26464e-07
3.49707e-06
2.68626e-06
0.00568332
0.0594858
0.368691
0.961652
1.35049
1.24122
1.35181
2.12398
2.07505
1.45511
0.964068
1.16891
1.73474
2.0671
2.18416
2.04021
1.73242
1.3831
1.19443
1.08896
0.317265
0.0375057
0.000729005
9.18903e-05
0.00152271
0.00315404
0.000928885
0.0108816
0.0293499
0.0129936
3.22489e-05
0.010433
0.0100125
0.000194163
0.0239836
0.250563
0.178313
0.16941
0.0220428
0.0703811
0.000561467
8.44844e-06
6.15796e-07
3.88852e-09
6.2751e-10
5.7248e-09
3.16534e-09
3.9072e-08
7.90557e-08
3.04918e-08
2.50574e-07
1.34164e-08
1.59049e-08
3.11839e-08
3.0418e-07
4.49181e-06
0.00165978
0.0095117
0.19695
0.389075
0.76795
0.99258
0.668089
0.45587
0.345149
0.477116
1.05843
1.65976
1.67658
1.50031
1.17483
0.931223
0.998641
1.10356
0.235883
0.029104
7.35965e-06
3.14129e-06
0.00151041
0.000721179
0.000442787
0.000328482
0.00804792
0.00944816
0.000161851
8.20131e-06
0.00212516
0.00102292
2.34768e-06
0.000121411
0.000913385
0.00176899
0.00870015
0.070391
0.000561875
8.45406e-06
6.16117e-07
4.09309e-09
4.47489e-10
5.68205e-09
4.49481e-10
1.14974e-08
5.4808e-08
1.12338e-07
5.91851e-08
1.04392e-08
5.60391e-08
5.48895e-08
0.000709007
0.00850756
0.00169394
0.00677114
0.102731
0.034121
0.0256216
0.85085
0.756948
0.492668
0.356046
0.45902
0.881469
1.1598
1.23791
1.16903
0.964657
0.798484
0.746781
0.32535
0.0822201
0.00685144
2.79944e-10
2.53314e-11
2.15104e-07
0.000744898
0.00028022
0.00353147
0.00998837
0.00674627
3.73826e-05
2.94115e-07
4.1354e-05
9.53264e-07
7.34662e-06
0.0061825
0.01456
0.000945758
0.00264076
0.0703734
0.000561524
8.46666e-06
6.19432e-07
1.82177e-09
1.58932e-11
1.61024e-11
1.5175e-11
2.97345e-11
1.51467e-11
1.13822e-09
8.61579e-09
5.37024e-10
1.1086e-10
4.64541e-10
7.53372e-09
3.9704e-08
0.000120149
0.00112836
0.00316157
0.00285782
0.00607805
0.211389
0.214005
0.145882
0.114081
0.160219
0.413397
0.728153
0.793609
0.803163
0.68905
0.567775
0.543678
0.293391
0.00908393
1.04233e-09
1.50661e-11
1.02116e-10
7.75789e-07
8.01233e-05
0.000260056
0.000701191
0.00127563
0.00170524
0.000155699
1.31662e-06
6.8182e-06
2.00488e-07
1.12914e-08
1.01185e-05
7.62494e-05
0.000147457
0.000725315
0.0703831
0.000561907
8.46854e-06
6.19326e-07
1.80953e-09
1.58426e-11
1.54755e-11
1.50044e-11
2.50602e-11
5.33352e-10
1.15859e-09
5.72365e-10
8.34683e-11
2.42958e-09
2.33014e-10
2.29353e-07
3.55968e-06
0.00031181
0.00108674
0.00148031
0.00307573
0.000850537
0.0931011
0.264058
0.175459
0.129961
0.188618
0.422907
0.58876
0.660408
0.649702
0.573563
0.464868
0.210394
0.00465797
0.000322881
2.03238e-10
1.51234e-11
1.67756e-11
7.74634e-08
0.000155524
0.000120495
0.000532253
0.00195004
0.000169022
1.72003e-05
3.44808e-10
3.96001e-06
9.61415e-08
8.84135e-10
0.000515214
0.00121335
7.88521e-05
4.47723e-07
0.0703644
0.000561356
8.20113e-06
5.82575e-07
1.66164e-09
1.58607e-11
1.49601e-11
1.49612e-11
1.50091e-11
1.49657e-11
1.51662e-11
1.77326e-11
1.51128e-11
1.5057e-11
1.5165e-11
7.22737e-11
1.1797e-07
1.37609e-06
0.00029552
0.00106545
0.00100391
0.00106244
0.000884436
0.0962421
0.0610497
0.044023
0.0561738
0.135089
0.391863
0.454716
0.505704
0.409702
0.34644
0.298551
0.000447014
5.53995e-07
1.10821e-10
1.50448e-11
1.48171e-11
6.4653e-08
6.67702e-06
3.02448e-05
0.000102855
0.000182449
0.000517846
4.31541e-05
7.67964e-09
1.93242e-06
1.9208e-09
8.72497e-09
1.45119e-07
1.60816e-06
4.94938e-07
3.17936e-06
0.0703733
0.000561758
8.2015e-06
5.82391e-07
1.6529e-09
1.68007e-11
1.49734e-11
1.49733e-11
1.50108e-11
1.50437e-11
1.51575e-11
1.50706e-11
1.498e-11
1.69071e-11
1.50336e-11
2.06238e-10
4.42631e-06
5.05937e-05
0.000312927
0.000504012
0.000963241
4.71753e-06
0.000125786
0.0970499
0.0724495
0.0529294
0.0728605
0.3149
0.362159
0.431388
0.407892
0.388235
0.291272
0.00507424
0.00199745
1.00343e-05
7.91186e-09
1.61187e-11
1.50006e-11
1.5001e-11
1.50191e-11
1.52744e-11
4.59408e-10
1.78305e-06
3.15297e-06
2.62745e-07
7.36532e-10
7.98898e-10
3.24006e-11
2.71036e-09
6.97393e-08
1.85404e-07
1.93381e-08
1.03005e-07
0.0703562
0.000561487
8.21717e-06
5.85009e-07
1.69617e-09
1.58878e-11
1.50013e-11
1.49694e-11
1.49614e-11
1.50524e-11
1.49661e-11
1.49583e-11
1.50463e-11
1.49754e-11
1.49685e-11
1.50129e-11
3.15117e-11
1.37287e-09
7.11983e-06
0.000141355
6.3666e-06
0.000213331
0.000271107
0.0311154
0.0254236
0.0205977
0.0217001
0.00649805
0.00344835
0.0012384
0.165349
0.21589
0.198275
0.0121566
0.000156869
2.3952e-05
2.1974e-07
8.28098e-11
1.50205e-11
1.50327e-11
2.58462e-11
2.71047e-08
5.15857e-10
7.34627e-07
8.5366e-05
7.11376e-06
3.17247e-11
2.15209e-08
6.33677e-09
3.5536e-08
5.47971e-08
1.04184e-07
1.62534e-07
2.51361e-07
0.0703652
0.000561864
8.21673e-06
5.84555e-07
1.66653e-09
1.58573e-11
1.49513e-11
1.49501e-11
1.49616e-11
1.50042e-11
1.49761e-11
1.49727e-11
1.50428e-11
1.49722e-11
1.49715e-11
1.50601e-11
2.16517e-09
1.99477e-07
8.35574e-06
3.81442e-05
2.43398e-05
2.42782e-07
4.42728e-05
0.000343718
0.0184268
0.024671
0.0243915
0.151984
0.0212294
0.0513178
0.00342311
0.0331849
0.00183424
0.00128918
0.00085761
2.34556e-05
3.54118e-08
3.76662e-11
1.50049e-11
1.50243e-11
1.50756e-11
2.2349e-11
1.50767e-11
2.68461e-11
7.44936e-09
6.23257e-10
1.50333e-11
2.42599e-11
1.57641e-09
1.09971e-08
2.09456e-08
3.79159e-08
5.53896e-08
1.00081e-07
0.0703484
0.000561346
8.23789e-06
5.8906e-07
1.71693e-09
1.58822e-11
1.49996e-11
1.49615e-11
1.49564e-11
1.5046e-11
1.5039e-11
1.49782e-11
1.49803e-11
1.5041e-11
1.49728e-11
1.49682e-11
1.50166e-11
1.44647e-11
6.68725e-09
5.88747e-07
2.14593e-09
5.408e-06
1.29714e-05
0.0104964
0.0120214
0.0113909
0.0084196
7.24735e-05
0.00053013
0.000588058
0.000632346
0.00081724
0.00136885
0.000464485
0.000180386
3.37929e-05
1.46447e-07
2.69894e-10
1.5572e-11
1.51142e-11
1.50777e-11
1.50299e-11
1.50885e-11
1.58015e-10
1.45037e-07
1.20898e-08
1.53199e-11
3.20912e-11
3.27184e-11
1.16718e-09
1.87737e-09
7.52054e-09
1.53485e-08
5.09905e-08
0.0703561
0.000561762
8.24102e-06
5.88241e-07
1.68727e-09
1.58863e-11
1.4987e-11
1.49865e-11
1.49961e-11
1.50122e-11
1.502e-11
1.49699e-11
1.49743e-11
1.50419e-11
1.49787e-11
1.49653e-11
1.57096e-11
1.88179e-10
1.05028e-08
4.46424e-08
2.3781e-08
2.36945e-10
5.47584e-06
5.00072e-05
1.67497e-05
0.00229542
3.98379e-05
0.000429164
0.000617356
0.000838064
0.000770899
0.000691844
0.000394185
0.000622481
5.43145e-05
1.82286e-07
3.66559e-10
1.5754e-11
1.50646e-11
1.50777e-11
1.5105e-11
1.51013e-11
1.50685e-11
1.50724e-11
4.69066e-11
1.47592e-11
1.50463e-11
1.5081e-11
1.58789e-11
1.43781e-09
7.62301e-09
1.90245e-08
2.01001e-08
8.10219e-08
0.0703408
0.000561515
8.25262e-06
5.91216e-07
1.71444e-09
1.68826e-11
1.49647e-11
1.49591e-11
1.49655e-11
1.49672e-11
1.50054e-11
1.49689e-11
1.49622e-11
1.49689e-11
1.49755e-11
1.49746e-11
1.49901e-11
1.49889e-11
2.24242e-11
6.22997e-10
1.61424e-11
5.2756e-09
1.78262e-08
0.00366658
0.00427736
0.00493755
0.00399816
6.52029e-06
1.71469e-05
0.000151692
9.84928e-05
0.000192513
0.000250049
0.00015904
2.32488e-05
3.91703e-07
6.10607e-10
1.6803e-11
1.50798e-11
1.51305e-11
1.50995e-11
1.50568e-11
1.50606e-11
1.5165e-11
1.65903e-10
1.18279e-11
1.51216e-11
1.51939e-11
1.51759e-11
2.24467e-11
1.70941e-10
1.39933e-09
5.47506e-10
1.01304e-08
0.0703489
0.000561932
8.25448e-06
5.91387e-07
1.71279e-09
1.58701e-11
1.49517e-11
1.49517e-11
1.4953e-11
1.49674e-11
1.49944e-11
1.49664e-11
1.49669e-11
1.49711e-11
1.49769e-11
1.49977e-11
1.49981e-11
1.51451e-11
2.65712e-11
4.58418e-11
3.31707e-11
1.52423e-11
4.22759e-08
2.1529e-06
1.41566e-07
1.35115e-05
3.07798e-06
6.10821e-05
0.000166048
0.000234033
0.000143094
0.000290905
0.000181373
1.01439e-05
4.60391e-08
1.43767e-10
1.53974e-11
1.51236e-11
1.51476e-11
1.50735e-11
1.50595e-11
1.50999e-11
1.51011e-11
1.51202e-11
1.52442e-11
1.51291e-11
1.51025e-11
1.52179e-11
1.52065e-11
1.62762e-11
3.81098e-10
1.39286e-09
2.69095e-09
1.95029e-08
0.0703351
0.00056128
8.24685e-06
5.90322e-07
1.68025e-09
1.68141e-11
1.49863e-11
1.49864e-11
1.50482e-11
1.49681e-11
1.49594e-11
1.50489e-11
1.49695e-11
1.49582e-11
1.49835e-11
1.49714e-11
1.49891e-11
1.50026e-11
1.50712e-11
1.55613e-11
1.51062e-11
3.21428e-11
6.10203e-05
0.000729814
0.00157484
0.0016513
0.0016271
8.27837e-08
3.17268e-08
1.09125e-06
8.97474e-06
6.42198e-06
1.48836e-05
1.56514e-06
1.1784e-08
8.70859e-11
1.52802e-11
1.50267e-11
1.51876e-11
1.50725e-11
1.50712e-11
1.51002e-11
1.51708e-11
1.51621e-11
1.5248e-11
1.52625e-11
1.52682e-11
1.54029e-11
1.52553e-11
1.52959e-11
1.55634e-11
1.67569e-11
1.55083e-11
7.41563e-11
0.0703417
0.000561739
8.24625e-06
5.90636e-07
1.73553e-09
1.59152e-11
1.49543e-11
1.49676e-11
1.50122e-11
1.49699e-11
1.49586e-11
1.50496e-11
1.49687e-11
1.4952e-11
1.49829e-11
1.4974e-11
1.49818e-11
1.49789e-11
1.50347e-11
1.50573e-11
1.50991e-11
1.49702e-11
7.2623e-11
4.00422e-09
5.39222e-06
1.01841e-05
8.64644e-09
8.30962e-07
1.82851e-05
1.2972e-05
3.13037e-06
5.17167e-06
2.91214e-07
6.19621e-09
4.82888e-11
1.52524e-11
1.50358e-11
1.50244e-11
1.51876e-11
1.5161e-11
1.5089e-11
1.51303e-11
1.51615e-11
1.51975e-11
1.53254e-11
1.52024e-11
1.51939e-11
1.54922e-11
1.53213e-11
1.53147e-11
1.56961e-11
1.5362e-11
2.52916e-10
2.97802e-10
0.0703288
0.000561989
8.6799e-06
6.5419e-07
2.11307e-09
1.619e-11
1.49811e-11
1.50291e-11
1.50204e-11
1.50221e-11
1.50539e-11
1.49838e-11
1.49811e-11
1.50583e-11
1.49966e-11
1.49858e-11
1.49966e-11
1.50104e-11
1.50721e-11
1.50167e-11
1.50048e-11
1.59055e-11
0.0219193
0.000149662
0.000576341
0.00075625
0.000515141
0.000368504
0.000269239
1.12554e-08
9.15042e-09
7.44436e-09
1.44545e-08
6.75203e-10
2.02197e-11
1.50504e-11
1.50379e-11
1.51588e-11
1.51544e-11
1.51678e-11
1.516e-11
1.51714e-11
1.51811e-11
1.53034e-11
1.53182e-11
1.53035e-11
1.53139e-11
1.5329e-11
1.53466e-11
1.56261e-11
1.55674e-11
1.56126e-11
1.55731e-11
1.77283e-11
0.0703361
0.000562512
8.69309e-06
6.55107e-07
2.09274e-09
1.7408e-11
1.50024e-11
1.50256e-11
1.49823e-11
1.49821e-11
1.50558e-11
1.50012e-11
1.50077e-11
1.50639e-11
1.49807e-11
1.49597e-11
1.49882e-11
1.49886e-11
1.50697e-11
1.50272e-11
1.49863e-11
1.38743e-11
3.26741e-07
0.000122388
0.000159982
0.000660105
0.000181427
7.12365e-05
4.66119e-08
3.0225e-08
2.45145e-09
1.40207e-06
4.91731e-07
4.42038e-08
1.50827e-11
1.51709e-11
1.50949e-11
1.50975e-11
1.51984e-11
1.21481e-10
1.52153e-11
1.51736e-11
1.51604e-11
1.51638e-11
1.51911e-11
1.52154e-11
1.5296e-11
1.56513e-11
1.53729e-11
1.53355e-11
1.57323e-11
1.54608e-11
1.53597e-11
1.83892e-11
0.0703269
0.000560331
8.36686e-06
6.11057e-07
1.95451e-09
1.61073e-11
1.50026e-11
1.49631e-11
1.49521e-11
1.50361e-11
1.49748e-11
1.49615e-11
1.50132e-11
1.50195e-11
1.50603e-11
1.49906e-11
1.49774e-11
1.49868e-11
1.49889e-11
1.50885e-11
3.57433e-07
3.14394e-06
0.262824
6.12888e-05
0.000132167
0.000290254
0.000199346
0.000138751
0.000102117
5.90142e-05
2.86773e-05
1.29101e-05
5.70068e-07
2.27503e-09
1.86197e-11
1.51048e-11
1.51909e-11
1.50833e-11
1.52198e-11
1.56101e-11
1.51383e-11
1.51535e-11
1.51579e-11
1.53279e-11
1.52751e-11
1.52701e-11
1.53136e-11
1.52975e-11
1.53509e-11
1.55324e-11
1.55283e-11
1.55964e-11
1.56636e-11
1.61101e-11
0.0703312
0.000562709
8.63457e-06
6.47363e-07
2.02933e-09
1.6131e-11
1.50179e-11
1.49817e-11
1.49821e-11
1.50561e-11
1.49713e-11
1.49524e-11
1.49765e-11
1.49785e-11
1.49854e-11
1.49859e-11
1.50582e-11
1.50189e-11
1.5013e-11
1.50792e-11
1.39126e-08
3.44099e-07
3.41067
0.207895
0.00192915
0.00715369
0.00165953
0.000484596
0.000175166
7.75922e-05
3.005e-05
1.1633e-05
5.59202e-06
5.23348e-07
3.07178e-09
1.94425e-11
1.57734e-11
1.52948e-11
5.85587e-10
3.7577e-08
6.89182e-11
1.62444e-11
1.52156e-11
1.52594e-11
1.52007e-11
1.52026e-11
1.52749e-11
1.5449e-11
1.54407e-11
1.55081e-11
1.55728e-11
1.55438e-11
1.55883e-11
1.59848e-11
0.0703209
0.000562456
8.72272e-06
6.61578e-07
2.16608e-09
1.74971e-11
1.50409e-11
1.49631e-11
1.49544e-11
1.50414e-11
1.50053e-11
1.49957e-11
1.50073e-11
1.50311e-11
1.49748e-11
1.49724e-11
1.50024e-11
1.5002e-11
1.50807e-11
9.42327e-08
1.13431e-06
0.0049861
0.0158507
0.00667422
0.000147397
0.000134915
0.00030503
9.53117e-05
5.79333e-05
3.02665e-05
1.43715e-05
1.32534e-05
3.89112e-08
7.20826e-10
1.74148e-11
1.51826e-11
1.51968e-11
1.70625e-11
4.53972e-10
2.86322e-10
1.67481e-11
1.53028e-11
1.52114e-11
1.52095e-11
1.52558e-11
1.52539e-11
1.53223e-11
1.87205e-11
1.55631e-11
1.53714e-11
1.55348e-11
1.55493e-11
1.56713e-11
1.6302e-11
0.0702581
0.000557178
8.22825e-06
5.94511e-07
1.89894e-09
1.71535e-11
1.49654e-11
1.49579e-11
1.50311e-11
1.50012e-11
1.50013e-11
1.50386e-11
1.4995e-11
1.49944e-11
1.50157e-11
1.50111e-11
1.50603e-11
1.49879e-11
1.4973e-11
1.50841e-11
1.28782e-07
0.328938
1.60973
0.423738
0.0668718
0.00513761
0.00402947
0.000491025
0.000208192
8.38244e-05
3.92035e-05
3.75779e-06
3.92233e-08
3.32684e-09
2.52435e-11
1.51091e-11
1.8573e-09
4.21097e-09
3.95389e-08
5.95748e-07
1.03716e-08
2.49064e-09
3.3966e-11
6.73935e-12
1.64303e-11
1.55368e-11
1.38927e-11
8.58604e-11
2.21347e-11
1.54523e-11
1.54611e-11
1.552e-11
1.5657e-11
1.63643e-11
0.0702618
0.000553119
7.88299e-06
5.50275e-07
1.68819e-09
1.59355e-11
1.50097e-11
1.49667e-11
1.49583e-11
1.50669e-11
1.49917e-11
1.49926e-11
1.50733e-11
1.49861e-11
1.49668e-11
1.50661e-11
1.49871e-11
1.49849e-11
1.50563e-11
1.49936e-11
1.50043e-11
2.85392e-06
4.80267e-06
1.05808e-05
0.0302442
0.00344292
0.000754471
0.000330027
0.000147319
5.53461e-06
5.40276e-07
3.12278e-08
1.74711e-10
1.56382e-11
1.76204e-11
2.28124e-08
1.04204e-08
3.60796e-07
2.56651e-07
2.37076e-09
1.95022e-11
1.52403e-11
1.51732e-11
1.52271e-11
1.54071e-11
2.82869e-10
3.36369e-09
2.20471e-10
1.69406e-11
1.59256e-11
1.58182e-11
1.59537e-11
1.65448e-11
0.0703364
0.000558101
8.58755e-06
6.45507e-07
2.14165e-09
1.62987e-11
1.5015e-11
1.49867e-11
1.49897e-11
1.50478e-11
1.5045e-11
1.4993e-11
1.49937e-11
1.50515e-11
1.50269e-11
1.50249e-11
1.50632e-11
1.50024e-11
1.49839e-11
1.50399e-11
1.32062e-09
0.0263957
0.94588
1.56062
0.0745914
0.0102616
0.0012798
0.000569238
0.000194349
9.13667e-05
2.63177e-05
2.24254e-07
3.9047e-09
2.70263e-11
1.21019e-09
2.63273e-07
4.5119e-06
1.58453e-06
7.12885e-06
2.21105e-07
7.68286e-08
1.70829e-08
1.55053e-09
1.5087e-09
3.32407e-10
6.64877e-09
7.94389e-08
1.20282e-08
2.15128e-10
1.86589e-11
1.58918e-11
1.5834e-11
1.65898e-11
0.0703187
0.000559319
8.47669e-06
6.27285e-07
2.05107e-09
1.73217e-11
1.49598e-11
1.49556e-11
1.50223e-11
1.50191e-11
1.50265e-11
1.50264e-11
1.50411e-11
1.4987e-11
1.49738e-11
1.50446e-11
1.50554e-11
1.5027e-11
1.5053e-11
1.50286e-11
1.52524e-11
1.58015e-06
1.60335e-05
2.96977e-06
0.00509808
0.0103577
0.0014564
0.000708561
0.000384028
1.92005e-05
2.01782e-06
4.98911e-07
2.96669e-09
2.10148e-11
4.92049e-12
1.19488e-08
5.20541e-07
1.21249e-06
7.22299e-06
5.51095e-06
3.59451e-07
7.97826e-09
1.37402e-10
1.79909e-11
1.53212e-11
1.99644e-11
2.92148e-08
3.50557e-07
3.55752e-08
1.37043e-09
1.04377e-10
3.9131e-11
1.60947e-11
1.6387e-11
0.0703244
0.000559824
8.48457e-06
6.29112e-07
2.0656e-09
1.7343e-11
1.49646e-11
1.49533e-11
1.503e-11
1.50253e-11
1.50411e-11
1.50253e-11
1.50366e-11
1.49817e-11
1.49728e-11
1.50795e-11
1.49937e-11
1.49953e-11
1.50782e-11
1.50094e-11
2.43387e-07
2.92554e-06
0.0358947
0.00851958
0.103171
0.11249
0.00724113
0.0025507
0.000990625
0.000465658
2.85764e-05
9.32224e-07
5.69368e-08
1.5772e-10
4.76422e-07
5.71842e-06
5.0218e-06
5.80718e-05
2.05113e-05
6.96033e-05
2.62784e-06
5.60455e-07
1.48558e-09
7.72075e-08
9.25009e-07
2.06372e-07
2.3516e-07
1.45745e-06
4.73741e-07
9.17959e-08
3.95672e-09
1.91652e-10
1.8033e-11
1.7487e-11
0.0703202
0.000562269
8.75137e-06
6.65657e-07
2.25686e-09
1.63151e-11
1.49913e-11
1.5039e-11
1.49603e-11
1.49465e-11
1.50367e-11
1.49754e-11
1.49651e-11
1.50584e-11
1.49829e-11
1.49837e-11
1.50069e-11
1.50127e-11
1.50614e-11
1.5024e-11
1.78436e-11
3.33041e-08
3.5969e-07
6.32168e-06
7.10298e-05
8.90179e-05
0.000354289
0.000274675
0.000134611
0.000102251
4.8884e-07
1.58662e-09
1.7004e-11
1.50868e-11
4.36821e-11
1.45563e-06
9.2499e-06
4.5745e-05
4.8752e-05
6.89354e-05
2.80212e-06
3.11876e-08
3.4698e-08
5.3427e-10
8.14023e-11
1.62388e-09
4.6414e-07
2.73175e-06
2.90818e-07
2.77091e-08
5.56032e-09
4.1489e-09
1.49215e-10
2.55759e-11
0.0703241
0.000562782
8.75242e-06
6.65975e-07
2.24831e-09
1.63038e-11
1.4989e-11
1.50366e-11
1.49581e-11
1.49466e-11
1.50422e-11
1.50263e-11
1.50382e-11
1.49875e-11
1.49792e-11
1.50488e-11
1.50525e-11
1.50922e-11
1.5001e-11
1.49887e-11
1.51826e-11
3.93944e-08
4.9696e-05
0.000323448
0.00352026
0.00125987
0.00195996
0.00122826
0.00052673
0.000511865
1.17845e-06
2.32257e-09
2.88603e-11
1.46971e-11
3.9939e-10
4.96425e-05
6.38011e-05
9.90239e-05
0.000151212
0.000103426
2.29557e-05
8.0356e-06
4.15339e-07
2.58518e-05
0.000309813
2.13662e-05
1.1581e-06
7.04847e-06
5.77152e-06
7.12104e-07
1.21105e-07
2.53842e-08
1.76013e-09
3.36158e-10
0.070319
0.000562148
8.65719e-06
6.52915e-07
2.18243e-09
1.62298e-11
1.5003e-11
1.49601e-11
1.49409e-11
1.49648e-11
1.49663e-11
1.50216e-11
1.49889e-11
1.49716e-11
1.49783e-11
1.50541e-11
1.50185e-11
1.5013e-11
1.50688e-11
1.50304e-11
1.50817e-11
5.28306e-10
3.27923e-07
3.57401e-07
1.05445e-05
1.44402e-05
5.28453e-05
3.97881e-05
2.36948e-05
1.43765e-05
7.03456e-06
7.39788e-08
1.07551e-10
1.80465e-11
8.93541e-07
1.87706e-05
6.70625e-05
0.000170959
0.000294228
0.000118028
0.000133049
1.84395e-06
1.52262e-06
2.81649e-07
3.47626e-08
1.35438e-07
1.67821e-06
1.68968e-05
1.90141e-06
1.98866e-07
2.24021e-08
2.86604e-08
4.15763e-09
1.89358e-09
0.0703241
0.000562623
8.65967e-06
6.52853e-07
2.17655e-09
1.62202e-11
1.50004e-11
1.49581e-11
1.49384e-11
1.50207e-11
1.49728e-11
1.49715e-11
1.50324e-11
1.498e-11
1.49793e-11
1.49849e-11
1.50018e-11
1.49937e-11
1.49764e-11
1.5098e-11
1.50959e-11
6.3095e-09
3.21269e-06
3.73021e-06
4.10196e-05
5.12541e-05
0.000390185
0.000277195
4.97293e-05
1.972e-07
1.0865e-09
1.78638e-11
1.50243e-11
1.00771e-07
1.20866e-06
6.32119e-05
0.000190942
0.000188017
0.00025334
0.000131624
0.000148834
5.46392e-05
1.77898e-05
0.000186804
0.00222361
0.000158201
9.39854e-06
7.29612e-05
4.11093e-05
5.44277e-06
9.98017e-07
1.80266e-07
5.80766e-08
2.50423e-08
0.0703233
0.000562075
8.65682e-06
6.52679e-07
2.13523e-09
1.61505e-11
1.49672e-11
1.50215e-11
1.49609e-11
1.49567e-11
1.50341e-11
1.49818e-11
1.49696e-11
1.4987e-11
1.50006e-11
1.49746e-11
1.49735e-11
1.50372e-11
1.50077e-11
1.50062e-11
1.50286e-11
1.47857e-11
4.9262e-09
2.13778e-08
7.50376e-07
1.18591e-06
6.55793e-06
3.78676e-06
9.65765e-08
1.7008e-07
4.85132e-09
2.5199e-11
1.68099e-11
1.26282e-08
2.02382e-05
7.78171e-06
0.000424055
0.00057919
0.000471361
0.000349227
0.000295339
5.86529e-05
1.05108e-05
2.33707e-05
2.03209e-06
5.02909e-06
3.53732e-05
8.64085e-05
1.02054e-05
1.11527e-06
1.76663e-07
9.9832e-08
2.07891e-08
8.57787e-09
0.0703267
0.000562577
8.6599e-06
6.5271e-07
2.12652e-09
1.61425e-11
1.49618e-11
1.50203e-11
1.4959e-11
1.49549e-11
1.50306e-11
1.49819e-11
1.4975e-11
1.49838e-11
1.50181e-11
1.49707e-11
1.49675e-11
1.50064e-11
1.50032e-11
1.50257e-11
1.50067e-11
1.76509e-09
3.27054e-07
6.82483e-07
7.78648e-06
7.86533e-06
5.93458e-05
4.86991e-05
3.52416e-07
1.51331e-09
2.26604e-11
1.50325e-11
1.5024e-11
9.44062e-10
2.90525e-08
0.0001669
0.000388709
0.000488271
0.000430668
0.000303442
0.000232783
0.000126753
0.00011671
0.0016355
0.00944411
0.00140818
0.00151785
0.00058927
0.00024441
3.42943e-05
6.69898e-06
1.34113e-06
2.10954e-07
1.44189e-07
0.0703234
0.000562358
8.64827e-06
6.50639e-07
2.13894e-09
1.6161e-11
1.49634e-11
1.49715e-11
1.49906e-11
1.4976e-11
1.49722e-11
1.49898e-11
1.49909e-11
1.50634e-11
1.5006e-11
1.49658e-11
1.49863e-11
1.49876e-11
1.50017e-11
1.50454e-11
1.49956e-11
1.49739e-11
6.55017e-11
1.76053e-09
7.03274e-09
1.22369e-07
2.48064e-07
1.99841e-07
2.44039e-08
2.04571e-10
1.58096e-11
1.51172e-11
3.7361e-08
4.48405e-07
0.000333294
0.000665252
0.000658342
0.000676907
0.000727286
0.000654564
0.000449978
0.000186434
9.78841e-05
0.000246198
2.10175e-05
0.00151907
0.000320619
0.00037724
4.58249e-05
5.11227e-06
8.02768e-07
5.13911e-07
5.69087e-08
2.19974e-08
0.0703279
0.000562864
8.65353e-06
6.50865e-07
2.12242e-09
1.73781e-11
1.49838e-11
1.49785e-11
1.49996e-11
1.49805e-11
1.49687e-11
1.49779e-11
1.49892e-11
1.50509e-11
1.49865e-11
1.49768e-11
1.50243e-11
1.5023e-11
1.5071e-11
1.49922e-11
1.49787e-11
1.38366e-10
5.04545e-09
3.44526e-08
8.69105e-07
1.94868e-06
2.91373e-06
4.92037e-07
2.41849e-08
1.38811e-10
1.51758e-11
1.50256e-11
6.47381e-08
7.77009e-07
0.000136513
0.00059057
0.00056535
0.0006727
0.000685632
0.000633457
0.000451554
0.000384162
0.00243853
0.010042
0.0359396
0.00773466
0.0067385
0.00353796
0.0011425
0.000155307
3.02332e-05
5.54316e-06
5.29051e-07
1.58657e-07
0.0703293
0.000562305
8.65471e-06
6.52386e-07
2.1479e-09
1.61599e-11
1.49582e-11
1.4968e-11
1.49916e-11
1.49679e-11
1.49563e-11
1.50416e-11
1.50114e-11
1.5018e-11
1.50557e-11
1.49923e-11
1.49806e-11
1.50332e-11
1.50319e-11
1.50706e-11
1.49798e-11
1.49787e-11
1.51765e-11
2.17602e-11
4.26207e-11
5.17887e-09
8.76963e-09
8.35081e-10
2.24826e-11
1.51037e-11
1.51149e-11
3.03551e-11
2.24869e-05
6.19601e-05
0.000584454
0.000820988
0.000873993
0.00100358
0.00116756
0.00124776
0.00114897
0.000577922
0.000261053
0.000752161
6.85151e-05
0.00642232
0.00139331
0.00138253
0.000107416
1.16205e-05
1.51855e-06
1.07547e-06
1.93982e-08
2.76125e-11
0.0703323
0.000562835
8.65989e-06
6.52456e-07
2.12744e-09
1.73779e-11
1.49796e-11
1.49762e-11
1.4997e-11
1.4996e-11
1.49984e-11
1.50245e-11
1.50093e-11
1.50153e-11
1.506e-11
1.50001e-11
1.49744e-11
1.49822e-11
1.49854e-11
1.50464e-11
1.49952e-11
1.50093e-11
4.09474e-11
1.05051e-09
2.98703e-08
1.92422e-08
4.80076e-07
1.14195e-07
5.59129e-10
1.56908e-11
1.5114e-11
4.80817e-11
3.40267e-05
0.000194821
0.000713516
0.000756116
0.000843313
0.000938783
0.00103663
0.0011177
0.00142812
0.00511587
0.0458882
0.122671
0.122326
0.0499917
0.0190913
0.0154621
0.00403266
0.000317746
6.42416e-05
1.16539e-05
1.43642e-07
1.11785e-09
0.0703307
0.000562639
8.66939e-06
6.53701e-07
2.16781e-09
1.61995e-11
1.49801e-11
1.49795e-11
1.49966e-11
1.49695e-11
1.49467e-11
1.49687e-11
1.49746e-11
1.50403e-11
1.49782e-11
1.49704e-11
1.50215e-11
1.50155e-11
1.50171e-11
1.50497e-11
1.4987e-11
1.4987e-11
1.5095e-11
1.50159e-11
1.50215e-11
1.756e-11
1.75741e-11
1.52129e-11
1.50461e-11
1.51156e-11
1.51631e-11
1.73229e-05
0.000207896
0.000233051
0.000587854
0.00112491
0.00126694
0.00156363
0.001926
0.00235933
0.00346976
0.00603113
0.0592388
0.00263408
0.0831141
0.0227365
0.00423184
0.00275079
0.000124722
1.40812e-05
1.20651e-06
1.30844e-06
1.01389e-06
9.52076e-10
0.0703348
0.000563145
8.6738e-06
6.53695e-07
2.15679e-09
1.61881e-11
1.49798e-11
1.50217e-11
1.49618e-11
1.49539e-11
1.50056e-11
1.49648e-11
1.4964e-11
1.50352e-11
1.49668e-11
1.49637e-11
1.50309e-11
1.50183e-11
1.50154e-11
1.50484e-11
1.49933e-11
1.49873e-11
1.50567e-11
1.54289e-11
3.15194e-11
2.78206e-09
1.53385e-09
6.08868e-11
1.51256e-11
1.50999e-11
1.50058e-11
1.51077e-11
0.000213535
0.000318704
0.000879856
0.00104873
0.00126813
0.00145806
0.0017586
0.00225294
0.00450477
0.0162059
0.0774789
0.45812
0.287882
0.130376
0.0404169
0.0282919
0.00714084
0.000105181
1.2102e-05
1.28145e-05
1.35113e-05
7.44325e-10
0.0703379
0.000562662
8.6773e-06
6.54062e-07
2.1309e-09
1.73919e-11
1.49528e-11
1.49405e-11
1.50085e-11
1.49569e-11
1.49569e-11
1.49679e-11
1.49955e-11
1.49785e-11
1.49775e-11
1.50737e-11
1.50289e-11
1.50378e-11
1.50717e-11
1.50038e-11
1.49969e-11
1.50116e-11
1.50487e-11
1.50236e-11
1.50283e-11
1.51314e-11
1.4997e-11
1.49892e-11
1.51252e-11
1.49993e-11
1.49918e-11
1.51329e-11
0.000419899
0.000381667
0.0013553
0.00177303
0.00221035
0.00269563
0.00347506
0.00473574
0.00824525
0.021066
0.201438
0.228892
0.180342
0.0657971
0.0111678
0.00460416
0.000379564
3.98206e-05
1.69785e-06
1.69155e-06
2.84731e-08
4.30253e-08
0.0703405
0.000563176
8.68114e-06
6.53911e-07
2.12219e-09
1.74005e-11
1.49486e-11
1.49389e-11
1.50118e-11
1.49543e-11
1.49541e-11
1.50332e-11
1.49733e-11
1.49637e-11
1.49518e-11
1.49565e-11
1.49755e-11
1.49851e-11
1.50512e-11
1.50159e-11
1.50131e-11
1.50912e-11
1.50445e-11
1.50492e-11
1.50846e-11
1.56503e-11
1.53015e-11
1.50459e-11
1.50646e-11
1.4996e-11
1.49948e-11
4.08794e-12
3.20532e-06
0.00055593
0.00118476
0.00159344
0.00208224
0.00252228
0.003243
0.00465148
0.00983835
0.0411889
0.305052
0.614561
0.365763
0.204619
0.0506253
0.0186783
0.0100354
0.000297408
1.44124e-05
2.82316e-05
4.91103e-05
7.30135e-09
0.0703404
0.00056301
8.70723e-06
6.57757e-07
2.15852e-09
1.61544e-11
1.49453e-11
1.49597e-11
1.49602e-11
1.49736e-11
1.50097e-11
1.49924e-11
1.49931e-11
1.50599e-11
1.50106e-11