/*--------------------------------*- C++ -*----------------------------------*\
| =========                 |                                                 |
| \\      /  F ield         | OpenFOAM: The Open Source CFD Toolbox           |
|  \\    /   O peration     | Version:  4.1                                   |
|   \\  /    A nd           | Web:      www.OpenFOAM.org                      |
|    \\/     M anipulation  |                                                 |
\*---------------------------------------------------------------------------*/
FoamFile
{
    version     2.0;
    format      ascii;
    class       volScalarField;
    location    "12";
    object      nut;
}
// * * * * * * * * * * * * * * * * * * * * * * * * * * * * * * * * * * * * * //

dimensions      [0 2 -1 0 0 0 0];

internalField   nonuniform List<scalar> 
4432
(
34.8912
36.1014
37.135
38.3368
39.4909
40.6534
41.7142
42.9637
43.7114
44.8527
45.5491
45.1073
49.9406
31.0574
77.9344
57.0388
175.428
490.017
717.573
1220.39
1450.67
1499.84
1902.48
1939.73
1925.07
1680.97
1439.96
1286.15
1169.75
1235.7
1180.67
1150.03
1400.12
1128.38
807.649
672
418.063
138.005
73.3903
73.0656
69.1491
66.5692
62.0473
58.1472
52.5877
41.0142
66.0286
72.3067
52.47
90.0888
160.226
246.493
121.742
156.054
35.0193
35.9842
37.2846
38.2445
39.4775
40.5036
41.6754
42.6319
43.6677
44.4617
45.4512
44.9295
48.9864
37.3012
67.5486
62.4346
203.974
415.498
679.074
1081.68
1373.24
1429.91
1721.22
1738.26
1654.72
1417.52
1207.84
1105.13
1060.5
982.977
874.763
604.373
440.617
407.689
279.663
183.154
136.555
94.6095
44.1395
58.2754
59.2966
54.4162
47.7824
52.5675
36.2361
37.2895
54.6046
173.291
194.407
307.634
497.303
284.764
213.484
200.377
4.79894e-06
2.84958e-06
0.000726701
0.0065202
0.0391747
0.15865
0.562024
0.730802
1.55989
1.43767
2.81346
2.18935
5.92328
1.63109
15.0129
30.91
9.94036
3.80764
891.263
7467.67
7913.47
11978.4
14635.6
14146.8
12307.4
9975.54
5950.7
3528.46
4684.01
8731.79
5578.12
13535.6
21300
1910.13
4103.13
49.3801
314.996
37.7239
22.3394
3.10767
13.6957
33.094
45.7189
25.4809
2.12875
0.0161031
3.40261
0.0303942
3.45886
20.3645
283.396
26.7698
0.154875
6.26337
4.79888e-06
2.79414e-06
0.000773059
0.00620475
0.0373039
0.1626
0.479414
1.00679
1.7576
2.02969
4.52288
4.50581
7.39288
6.81594
13.67
20.729
1.25471
26.5229
1868.2
6774.28
7760.89
8995.93
10838.2
9112.48
9448.38
2029.93
597.251
861.669
2015.27
587.516
127.879
554.777
693.345
205.456
97.9524
1.33916
1.22772
0.0679579
0.219491
0.205552
1.18323
3.34723
1.59336
0.883294
0.51646
0.0416193
8.31401
104.68
2.25046
119.579
285.769
8.34007
1.61297
8.24605
4.76128e-06
1.13696e-08
1.3226e-08
1.01668e-05
0.000170006
0.000805745
0.0038838
0.0130305
0.0818971
0.0787428
0.179299
0.309225
0.295029
0.214558
0.657829
0.721741
0.000146384
177.17
17334.2
18135.9
15190.7
16311.8
17051.7
14254.5
9382.82
1984.38
973.379
990.353
1741.25
3035.76
2111.1
4965.38
7795.68
801.861
756.488
58.2162
97.3469
9.48491
33.0344
59.6558
149.693
91.1482
96.1397
127.658
13.0792
0.178695
0.410456
20.2655
110.477
734.154
41987.7
3694.4
6.26897
1.90893
4.76119e-06
1.13563e-08
1.44794e-08
8.06741e-06
0.000189139
0.000273897
0.0129639
0.0243491
0.0345258
0.176018
0.328787
0.24346
0.187277
3.17996
0.78843
0.649179
68.6147
2312.53
16741.7
16056.2
13243.2
12173.1
10113.3
2441.15
2123.36
177.799
192.254
395.436
539.485
119.868
425.972
3074.28
4468.76
318.908
124.452
30.6967
5.41218
6.83344
2.76192
3.1639
9.72808
18.2575
9.9153
2.94959
0.308794
0.000725212
6.32576
47.714
130.993
706.121
83194
122.042
2.4501
0.0908459
4.76121e-06
1.13453e-08
3.69066e-11
1.34472e-09
5.01002e-07
7.63742e-07
2.8605e-05
0.000622302
0.000767925
0.00031746
0.0118795
0.0056795
0.00521009
0.0023772
0.00031791
0.0138242
0.371184
2.77432
11334.4
19257.2
16582.3
13968.5
14665.2
13618
14202
2594.86
1416.88
1935.93
3299.56
3775.96
10516.6
30432.5
36895
3809.05
1083.55
55.6091
14.9096
13.5143
23.2631
1948.07
48108.6
1425.18
0.201913
70.4105
68.5347
0.00126914
0.0119692
2.86186
2.51277
28.0731
454.179
145.87
34.532
2.53486
4.76115e-06
1.13337e-08
3.60116e-11
1.12004e-09
1.3237e-06
2.70285e-05
2.60518e-05
0.000166253
1.13647e-05
0.00263358
0.0065699
0.00327926
0.00501962
0.00849198
0.000795261
0.00529916
32.2803
2093.71
10929.9
16153.8
12050.1
8032.98
6607.57
14492
13097.8
4417.91
5147.31
5039.82
7243.4
4462.55
9893.25
22804.1
9898.31
1275.08
155.419
3.28106
1.144
1.73554
0.00883937
0.0766926
68.843
2.21139
6.4864e-08
0.060803
0.113057
0.00296791
102.826
82.7386
0.017029
42.692
1020.64
5.09972
3.25156
0.225896
4.7612e-06
1.13463e-08
3.64886e-11
4.61812e-13
5.07572e-11
5.18405e-08
9.91294e-08
2.60003e-08
6.06114e-07
4.48044e-05
4.43512e-05
0.000381536
3.65196e-05
5.2876e-05
5.08716e-05
0.000193339
0.000108196
0.414958
53.9131
5385.17
11902.2
5744.3
8479.58
8124.38
21049.2
12315.6
6634.04
20265.5
19547
21626
47388.5
62176.2
71235
70373.8
59725
1346.74
2.66246
9.87259
93.4218
4605.33
144458
29862.7
1.99685
0.031038
0.000513639
1.21969e-05
3.03171e-06
0.0537101
1.49036e-05
3.40106e-13
2.55139e-07
4.64396e-11
1.66021
0.180629
4.76114e-06
1.1335e-08
3.65292e-11
4.35921e-13
5.90708e-11
1.96826e-10
2.1876e-08
1.38328e-09
6.82925e-06
1.60806e-05
1.06822e-05
0.000335691
5.16001e-05
0.000870991
1.16753e-05
0.0368409
0.466463
1.19365
15.4102
1497.39
3235.14
1525.47
4352.52
17363
15533.8
11594.8
21635
34446.7
30052.1
28528
34438.5
47454.3
51422
20906.1
510.073
26.934
4.1532e-05
0.11198
0.000107941
121.905
1238.27
0.00177875
9.44389e-07
1.51809
8.50395e-07
1.97728e-10
1.17801e-06
5.61251e-06
4.57198e-11
1.32571e-06
0.00485366
0.224435
0.218452
0.0594414
4.76079e-06
1.13513e-08
3.68736e-11
4.34068e-13
4.92687e-14
6.89765e-13
9.61624e-12
7.24232e-12
6.17836e-11
6.08344e-10
4.89376e-08
4.86126e-08
1.12603e-08
4.92491e-09
1.31615e-08
2.56989e-05
1.88468e-08
0.000117222
0.0054775
0.738388
3.17503
155.727
709.922
26253.4
19037.4
16881.4
11709.5
8329.21
30883.7
31099.6
49179.1
62518.7
68832.7
51333.9
1721.32
1.79297
3.00589e-05
2.11006e-14
3.44338e-16
60.5275
272.656
839.91
0.452258
0.00215032
0.0116983
2.75084e-11
2.03748e-11
3.90481e-05
3.11093e-06
7.9149e-10
2.57459e-06
1.58196e-08
1.36311e-09
6.37153e-10
4.76079e-06
1.13407e-08
3.68051e-11
4.31627e-13
5.23017e-14
5.34771e-13
5.07733e-12
1.81699e-12
1.20238e-09
3.37927e-08
1.32827e-08
1.10069e-08
1.33654e-08
1.92762e-07
1.95128e-09
3.55863e-06
4.23115e-05
8.10821e-05
0.0019691
0.266423
0.464547
0.344155
126.208
9488.9
14493.8
15926.1
11975.5
39221.5
29841.4
29524.4
37255.1
47829.4
48615.9
22.8657
21.5563
0.00270732
1.45011e-13
8.66335e-14
1.09683e-14
1.10803e-17
54.5833
4.10668e-05
1.00167e-09
1.0021e-09
9.50213e-07
1.19519e-06
2.24681e-13
1.72191e-12
2.30305e-15
8.7654e-09
0.0013678
3.39985e-08
5.07713e-09
2.3546e-09
4.76062e-06
1.13519e-08
3.69384e-11
4.36633e-13
2.63942e-14
8.84831e-14
1.68145e-13
3.27906e-14
5.98361e-13
2.35341e-17
1.35426e-11
1.61406e-11
1.10275e-11
2.42162e-11
4.13193e-11
5.65875e-09
2.24665e-14
4.05386e-11
8.1323e-10
7.1945e-07
3.45765e-07
0.0793936
0.328184
23945.6
29234.6
30750.4
18733.1
7000.39
16069.2
18725.7
52625.1
67802.6
79396.5
8440.88
0.246858
7.13413e-05
1.25537e-13
3.32519e-14
3.47547e-15
6.04126e-16
4.83474e-09
1.2294e-09
6.60169e-07
4.89998e-11
8.23415e-08
6.33664e-09
7.90493e-12
1.84649e-08
1.10659e-12
1.85163e-14
4.62795e-11
7.26202e-10
1.07979e-09
3.50363e-10
4.76059e-06
1.13411e-08
3.68729e-11
4.34389e-13
2.61899e-14
8.34581e-14
1.59944e-13
1.19948e-13
4.0549e-12
2.44423e-11
9.20409e-12
1.07465e-11
6.85486e-11
2.32983e-10
3.50301e-11
1.61954e-13
1.74652e-09
9.81078e-12
5.53051e-10
4.85918e-07
3.3574e-09
2.07683e-06
0.177955
700.543
18576.5
23626.2
12638.8
39392.3
18185.3
23161.7
19833.5
40909.3
27898.6
0.42786
0.00242512
6.53008e-09
7.43036e-13
1.09029e-13
1.16446e-13
4.42903e-15
4.44679e-14
1.8598e-11
7.14181e-09
4.16071e-11
1.10994e-13
7.58739e-15
2.18043e-14
7.95012e-15
8.83184e-17
4.98684e-12
6.69362e-13
3.68754e-11
8.39554e-11
1.61097e-07
4.7599e-06
1.13576e-08
3.67169e-11
4.32927e-13
2.70051e-14
1.0868e-13
1.12725e-13
1.05692e-13
1.08955e-13
1.16201e-13
1.71161e-13
3.34326e-13
1.85542e-13
1.46024e-13
2.4836e-13
4.37905e-11
9.82257e-19
1.27483e-13
7.2747e-14
1.00995e-12
5.61082e-14
7.01048e-10
1.14537e-05
1550.66
32583.3
47787.3
36180.5
289.227
4.78461
4.59477
2322.8
5758.49
12662.3
33.8209
1.89019e-05
1.73592e-10
2.3686e-14
1.2683e-13
1.21177e-13
2.84894e-18
4.02904e-10
7.341e-11
3.12543e-08
3.70068e-12
7.36697e-12
6.14181e-13
2.2503e-14
1.96274e-13
1.14073e-14
1.0205e-10
4.08556e-09
1.01855e-08
1.02902e-07
1.65099e-08
4.75996e-06
1.13471e-08
3.66454e-11
4.31123e-13
2.70409e-14
1.04885e-13
1.02323e-13
1.02441e-13
1.00744e-13
1.60083e-13
1.58275e-13
1.27155e-13
3.65148e-14
1.2036e-12
2.15387e-14
3.9465e-14
2.18784e-16
2.69319e-15
7.42156e-14
1.11842e-12
5.93589e-14
4.20902e-11
0.00208917
0.190644
1084.19
30441.7
91.4654
4794.87
135.914
633.075
10.0942
353.235
13.6511
1.51297e-06
3.9049e-11
2.99838e-14
9.89268e-15
1.43683e-13
1.18099e-13
1.27275e-13
1.22201e-13
1.35644e-13
1.29855e-14
3.55878e-16
3.5572e-15
3.95977e-18
2.50274e-15
8.24854e-15
8.46813e-12
2.40431e-10
1.8164e-09
3.86645e-08
4.8905e-07
2.88966e-07
4.75958e-06
1.13569e-08
3.67666e-11
4.34755e-13
2.6874e-14
1.0941e-13
1.13023e-13
1.08014e-13
1.07771e-13
1.19133e-13
1.09254e-13
1.03652e-13
1.12254e-13
1.14897e-13
1.18455e-13
1.84893e-13
2.28985e-15
1.15605e-14
2.08497e-16
5.31994e-16
2.50822e-17
2.78073e-13
7.59007e-13
0.000199936
15628.8
56288.3
126.921
0.00522048
1.81364e-05
2.23802e-06
0.244839
1.04662
17.0179
0.0177406
4.66769e-09
5.04682e-12
1.37545e-13
1.50073e-13
1.2001e-13
1.4318e-13
7.54066e-14
8.67674e-17
6.60981e-15
2.09101e-16
8.11809e-16
7.01624e-17
1.26455e-13
1.16785e-14
8.3244e-11
1.02411e-08
4.88645e-08
1.15012e-07
1.70521e-07
8.10421e-08
4.75958e-06
1.13465e-08
3.67126e-11
4.33444e-13
2.64299e-14
1.06638e-13
1.06767e-13
1.05212e-13
1.06774e-13
1.1646e-13
1.07277e-13
1.02133e-13
1.12889e-13
1.15263e-13
1.12099e-13
1.19487e-13
7.95895e-16
2.11887e-16
2.08215e-16
1.28624e-15
2.06915e-16
8.87738e-15
1.59185e-09
8.92936e-06
0.00181118
225.335
0.000766671
0.443593
0.034477
0.10184
0.00125139
0.0451379
0.000180631
3.03023e-11
2.22955e-14
2.59553e-16
4.768e-16
5.48162e-14
1.21406e-13
1.47436e-13
1.30741e-13
9.06523e-14
1.35072e-13
8.22944e-14
7.97302e-17
3.11533e-15
1.2554e-13
7.09437e-13
5.07105e-11
8.74452e-09
5.08857e-08
1.50146e-07
2.12565e-07
1.89661e-07
4.75853e-06
1.13617e-08
3.68767e-11
4.37528e-13
2.66958e-14
1.04615e-13
1.0706e-13
1.00264e-13
1.00484e-13
1.06784e-13
1.06794e-13
1.10142e-13
1.09054e-13
1.09432e-13
1.13114e-13
1.12646e-13
1.10044e-13
1.2572e-13
5.01707e-16
5.87707e-17
3.021e-16
9.16628e-16
1.28598e-15
0.11884
14.7163
154.215
0.00193177
9.43759e-12
7.34948e-13
4.12851e-14
3.03147e-05
0.000125596
0.000870779
1.1672e-08
1.66381e-12
4.05955e-15
5.52824e-16
1.23815e-14
1.42512e-13
1.46486e-13
1.35406e-13
1.44317e-13
1.39165e-13
1.37172e-14
2.11173e-17
1.72663e-16
1.39365e-13
2.22887e-13
2.01745e-10
4.14501e-09
5.29377e-08
1.69227e-07
2.50856e-07
2.17102e-07
4.75864e-06
1.13526e-08
3.68175e-11
4.33651e-13
2.66484e-14
1.09133e-13
1.017e-13
1.03987e-13
1.09434e-13
1.09591e-13
1.11519e-13
1.11203e-13
1.1446e-13
1.08693e-13
1.07139e-13
1.13639e-13
1.09288e-13
1.02918e-14
3.36341e-16
2.35291e-16
2.9141e-16
1.42881e-14
1.97342e-13
9.98219e-13
9.93733e-09
0.000337905
2.24334e-10
3.25713e-06
2.2333e-07
7.47364e-07
3.16421e-10
4.42898e-08
2.85849e-11
1.09389e-14
8.57365e-17
1.17999e-16
6.83855e-15
1.51926e-13
1.40681e-13
1.42158e-13
1.5067e-13
1.39585e-13
1.33389e-13
1.42295e-13
4.32524e-14
1.35322e-13
1.27089e-13
1.641e-13
5.4713e-12
2.22393e-10
1.48253e-08
1.62479e-07
5.47842e-07
3.74299e-07
4.75806e-06
1.13605e-08
3.69542e-11
4.37546e-13
2.68826e-14
1.03848e-13
9.86445e-14
9.99022e-14
1.14335e-13
1.03712e-13
1.0364e-13
1.07743e-13
1.11936e-13
1.18053e-13
1.17792e-13
1.17081e-13
1.19477e-13
1.15575e-13
7.61979e-14
3.49582e-15
1.07464e-13
9.06604e-16
8.32912e-16
1.68518e-05
0.00206955
0.00370088
2.80482e-07
1.31764e-16
1.17963e-15
1.25173e-13
8.62525e-12
5.58137e-12
4.37794e-11
2.5752e-13
1.55198e-15
3.18594e-16
5.85635e-15
1.37017e-13
1.43386e-13
1.48524e-13
1.53525e-13
1.56244e-13
1.4812e-13
1.44086e-13
1.45474e-14
2.36887e-13
1.51424e-13
1.44654e-13
3.9666e-13
4.40352e-11
8.83478e-10
1.37894e-09
1.48525e-10
4.36419e-09
4.75809e-06
1.13509e-08
3.6893e-11
4.35852e-13
2.63087e-14
1.03611e-13
1.02578e-13
1.03936e-13
1.09031e-13
1.07415e-13
1.0787e-13
1.09592e-13
1.16825e-13
1.12016e-13
1.08407e-13
1.18012e-13
1.13204e-13
1.11352e-13
6.53343e-14
4.4844e-14
5.50335e-14
1.1412e-13
9.72719e-15
6.37918e-15
3.91692e-11
2.91864e-11
3.95853e-15
3.86964e-13
1.62047e-12
1.92678e-12
7.70931e-14
1.36127e-13
2.93198e-15
7.28354e-17
1.994e-16
1.56453e-14
1.27039e-13
1.56818e-13
1.58307e-13
1.682e-13
1.5893e-13
1.59223e-13
1.76295e-13
1.58369e-13
1.54756e-13
2.03238e-13
1.77086e-13
1.51543e-13
1.67198e-13
2.59272e-12
2.69414e-10
1.85687e-09
2.4677e-11
1.19067e-08
4.75672e-06
1.13646e-08
3.70706e-11
4.38878e-13
2.63497e-14
9.55207e-14
9.97225e-14
1.00413e-13
1.04326e-13
1.06197e-13
1.06261e-13
1.06997e-13
1.20033e-13
1.14678e-13
1.15592e-13
1.31606e-13
1.11458e-13
1.09733e-13
1.13723e-13
1.10624e-13
1.1614e-13
5.50429e-14
4.33663e-20
2.45737e-08
1.62676e-06
1.73912e-06
3.33033e-09
6.38036e-15
3.95107e-16
5.95302e-16
2.41276e-15
3.98413e-15
9.20209e-15
6.3734e-16
8.89442e-16
2.99005e-14
1.33762e-13
1.27112e-13
1.30423e-13
1.32433e-13
1.54521e-13
1.58296e-13
1.60934e-13
1.62046e-13
1.69945e-13
1.76577e-13
2.1416e-13
1.98667e-13
1.96016e-13
2.79119e-13
2.0221e-12
1.05197e-12
4.09363e-12
1.1119e-08
4.75686e-06
1.13556e-08
3.69984e-11
4.39727e-13
2.68158e-14
1.08849e-13
1.01279e-13
1.03085e-13
1.10494e-13
1.10728e-13
1.17553e-13
1.14749e-13
1.16682e-13
1.25105e-13
1.1106e-13
1.09932e-13
1.1669e-13
1.15611e-13
1.15535e-13
1.14846e-13
1.12912e-13
1.16083e-13
3.85056e-14
1.39773e-15
1.84418e-12
2.42586e-06
7.49668e-15
1.76551e-15
3.58959e-15
1.824e-15
1.79157e-16
2.58958e-16
1.28994e-16
3.83595e-16
4.20352e-14
1.66322e-13
1.4204e-13
1.27e-13
1.40006e-13
1.48775e-13
1.67931e-13
1.61941e-13
1.69606e-13
1.75938e-13
1.82333e-13
2.44824e-13
2.04222e-13
1.93082e-13
2.36166e-13
2.29772e-13
5.53737e-13
4.19448e-13
1.30546e-10
1.39165e-09
4.75612e-06
1.13635e-08
3.75672e-11
4.56473e-13
2.65651e-14
1.13729e-13
1.20628e-13
1.10213e-13
1.00518e-13
1.1242e-13
1.05569e-13
1.06088e-13
1.16726e-13
1.06732e-13
1.06748e-13
1.12952e-13
1.1003e-13
1.13558e-13
1.29472e-13
1.16674e-13
1.18261e-13
6.1239e-13
7.65445e-23
1.02565e-06
3.82635e-07
2.12404e-10
5.37933e-14
6.08047e-08
1.0048e-08
1.46553e-16
1.67008e-16
5.89974e-16
5.18766e-16
3.48755e-15
9.54985e-14
1.30349e-13
1.33315e-13
1.26217e-13
1.32737e-13
1.41389e-13
1.41833e-13
1.52082e-13
1.61657e-13
2.01699e-13
1.81825e-13
1.77929e-13
2.05812e-13
2.08207e-13
2.81776e-13
2.89039e-13
3.23444e-13
3.6023e-13
3.73529e-13
5.38256e-11
4.75617e-06
1.13537e-08
3.74875e-11
4.54568e-13
2.6779e-14
1.05483e-13
1.1975e-13
1.09893e-13
1.02756e-13
1.1516e-13
1.14276e-13
1.16572e-13
1.17079e-13
1.16095e-13
1.2514e-13
1.12939e-13
1.10429e-13
1.28988e-13
1.25424e-13
1.39859e-13
1.18622e-13
1.29319e-13
4.02068e-18
0.0844644
0.0625789
5.53792e-08
6.03814e-12
0.000671312
1.42362e-16
4.81336e-16
1.15085e-15
3.16066e-11
1.87615e-13
4.76489e-17
1.26748e-13
1.33639e-13
1.4163e-13
1.58511e-13
8.06382e-14
5.68559e-13
2.26126e-13
1.67626e-13
1.52514e-13
1.79028e-13
1.80376e-13
1.94813e-13
2.09197e-13
3.66571e-13
3.00491e-13
2.47342e-13
4.11604e-13
3.40644e-13
2.49573e-13
4.97959e-11
4.75443e-06
1.13706e-08
3.75562e-11
4.60308e-13
2.79693e-14
1.1667e-13
1.25237e-13
1.11029e-13
1.09157e-13
1.32196e-13
1.10601e-13
1.07805e-13
1.25037e-13
1.1834e-13
1.15044e-13
1.24073e-13
1.23795e-13
1.28645e-13
1.27165e-13
1.29157e-13
5.99096e-18
4.7357e-05
8.13795e-08
4.49394e-09
0.000375303
0.00038556
5.71227e-05
2.31697e-05
3.80337e-06
8.68942e-07
1.94566e-10
5.60886e-13
5.24039e-15
7.32215e-15
1.33031e-13
1.20351e-13
1.44095e-13
1.38609e-13
1.33525e-13
1.51721e-13
1.58965e-13
1.49441e-13
1.46989e-13
1.62202e-13
1.6429e-13
1.61458e-13
1.59688e-13
1.78678e-13
1.99938e-13
2.38628e-13
2.81798e-13
3.30764e-13
3.95471e-13
8.77371e-13
4.75475e-06
1.13593e-08
3.74919e-11
4.53492e-13
2.63145e-14
1.09948e-13
1.20509e-13
1.09895e-13
1.06264e-13
1.2948e-13
1.07717e-13
1.08006e-13
1.09153e-13
1.09301e-13
1.20205e-13
1.15833e-13
1.16436e-13
1.18586e-13
1.28532e-13
1.21489e-13
1.16916e-16
1.27764e-16
0.0308976
0.0101519
0.0305947
1.75883
0.0496337
0.014161
0.00409158
0.00114798
7.45989e-06
5.47221e-10
2.35972e-12
1.71355e-14
1.16361e-14
1.09649e-13
1.86534e-13
1.00757e-14
1.50272e-11
3.35759e-11
3.39599e-12
4.17298e-13
1.50961e-13
1.64592e-13
1.67293e-13
1.65667e-13
1.78035e-13
3.34984e-13
2.92471e-13
2.35924e-13
3.07174e-13
3.06909e-13
3.10377e-13
6.59041e-13
4.7539e-06
1.13649e-08
3.77395e-11
4.61674e-13
2.68735e-14
1.05852e-13
1.22315e-13
1.11091e-13
1.07457e-13
1.24462e-13
1.22607e-13
1.27206e-13
1.20108e-13
1.19951e-13
1.29999e-13
1.17274e-13
1.09958e-13
1.26547e-13
1.18084e-13
1.91671e-17
1.70346e-18
3.72998e-12
1.6002e-13
8.93297e-05
0.0115843
0.0119472
0.0231653
0.00465965
0.000802263
3.76913e-05
1.88033e-06
7.21397e-09
1.94843e-12
1.16524e-13
1.40393e-13
1.48816e-13
1.4207e-13
1.84444e-13
1.08812e-13
9.98494e-14
1.99172e-13
2.21759e-13
1.94938e-13
1.93443e-13
2.02521e-13
1.9464e-13
1.96181e-13
2.25377e-13
2.70547e-13
2.68903e-13
3.3529e-13
3.75212e-13
4.80132e-13
1.04141e-12
4.762e-06
1.1411e-08
3.80238e-11
4.76238e-13
2.93264e-14
1.01551e-13
1.11125e-13
1.27375e-13
1.09033e-13
1.10788e-13
1.28494e-13
1.08766e-13
1.05583e-13
1.25805e-13
1.16751e-13
1.13898e-13
1.22991e-13
1.14476e-13
1.13982e-13
1.38879e-13
1.08981e-15
2.07737e-09
5.12569e-10
10.7714
0.353533
0.864519
0.914779
0.150477
0.0379911
0.0125994
9.80008e-05
5.1458e-08
7.58527e-11
8.4981e-13
3.67869e-13
1.81341e-14
6.58843e-13
2.22727e-15
1.66957e-07
3.92924e-08
1.2234e-10
4.30685e-12
1.0754e-12
5.45724e-13
2.08456e-13
2.14909e-13
1.86309e-13
1.52512e-13
2.69325e-13
2.89787e-13
6.27844e-13
5.55162e-13
3.95531e-13
1.11448e-12
4.75912e-06
1.14123e-08
3.81064e-11
4.81257e-13
3.00989e-14
1.12672e-13
1.27369e-13
1.11092e-13
1.08172e-13
1.31087e-13
1.11033e-13
1.08775e-13
1.25781e-13
1.24552e-13
1.28799e-13
1.28641e-13
1.29606e-13
1.3882e-13
1.17174e-13
1.11911e-13
1.42363e-13
6.86788e-07
4.04528e-06
4.58702e-05
1.43802
0.217632
0.107366
0.0282983
0.000897093
2.03261e-06
1.01926e-10
1.8047e-13
5.64146e-14
1.42025e-13
1.13489e-13
6.80631e-16
1.93342e-13
1.24375e-12
5.91001e-13
1.28048e-13
3.71917e-13
1.56257e-13
1.54774e-13
1.6337e-13
1.85867e-13
5.13416e-15
1.72543e-13
9.49546e-13
5.30617e-13
4.48293e-13
3.38165e-13
4.11206e-13
8.49464e-13
4.7512e-06
1.13529e-08
3.81135e-11
4.71281e-13
2.79406e-14
1.26323e-13
1.07753e-13
1.02668e-13
1.08586e-13
1.08797e-13
1.1279e-13
1.18161e-13
1.09626e-13
1.08875e-13
1.20315e-13
1.18907e-13
1.18736e-13
1.23053e-13
1.15782e-13
1.15924e-13
1.99342e-15
7.17537e-15
0.00899113
0.225621
1.09775
0.608841
0.239247
0.0803232
0.0348295
0.0018325
3.31726e-06
5.67241e-10
3.50302e-13
3.60951e-13
1.59634e-15
1.37169e-09
1.08822e-09
4.26345e-07
0.000184372
8.29052e-08
2.82562e-09
1.48428e-11
7.96224e-13
5.18854e-15
1.60706e-14
3.68912e-14
4.20693e-13
4.35719e-13
1.58332e-13
2.81574e-13
2.37307e-13
2.88493e-13
7.93089e-13
4.75138e-06
1.13605e-08
3.79264e-11
4.73298e-13
2.85586e-14
9.96819e-14
1.09612e-13
1.2085e-13
1.13156e-13
1.12387e-13
1.27553e-13
1.09991e-13
1.08106e-13
1.30329e-13
1.19442e-13
1.18502e-13
1.25216e-13
1.2611e-13
1.3497e-13
1.27475e-13
3.4681e-13
8.70821e-09
0.162432
0.0108584
0.0250174
0.0959349
0.194036
0.129682
0.00963759
2.25962e-05
9.65821e-10
2.60616e-13
2.64669e-14
1.28291e-13
2.49541e-13
1.04261e-13
3.40705e-13
2.29753e-10
3.21383e-09
1.00016e-09
1.71604e-11
1.78023e-12
1.82617e-13
1.68733e-13
1.96525e-13
3.29191e-13
2.27667e-13
2.71114e-12
9.59946e-12
7.40044e-12
1.02732e-11
9.04606e-13
5.09124e-13
7.8622e-13
4.75148e-06
1.13518e-08
3.78602e-11
4.71406e-13
2.82163e-14
1.00155e-13
1.0937e-13
1.20601e-13
1.12107e-13
1.11635e-13
1.26601e-13
1.1236e-13
1.06302e-13
1.21948e-13
1.15066e-13
1.1361e-13
1.1613e-13
1.25485e-13
1.1779e-13
1.09999e-13
8.02239e-18
3.06835e-15
0.0103165
0.09998
0.508849
0.431233
0.743127
0.303027
0.109834
0.00122191
6.04726e-06
3.19055e-10
1.50673e-13
7.55881e-14
6.7585e-18
9.02885e-09
1.48126e-06
4.47625e-06
0.00177401
0.286082
1.09157e-06
7.31649e-10
4.68671e-14
7.35407e-14
7.1777e-17
2.55208e-15
1.27127e-11
2.94718e-10
1.21667e-10
2.26107e-12
1.49969e-12
2.63255e-13
4.14148e-13
7.38501e-13
4.74977e-06
1.13621e-08
3.79949e-11
4.74361e-13
2.77104e-14
1.17565e-13
1.18988e-13
1.26158e-13
1.11269e-13
1.07657e-13
1.29469e-13
1.11531e-13
1.06767e-13
1.09615e-13
1.15551e-13
1.15726e-13
1.1695e-13
1.42236e-13
1.15271e-13
1.15764e-13
2.53431e-13
3.77556e-06
5.01853e-05
0.000567711
0.00249618
0.00789521
0.0213343
0.00394018
3.65666e-05
1.12317e-08
5.10675e-12
9.63338e-14
1.42742e-13
1.36514e-13
2.42801e-15
8.34955e-11
1.35407e-09
1.23133e-06
9.1034e-06
6.35312e-10
1.35238e-08
1.52589e-10
2.41872e-16
6.0986e-15
9.81183e-14
5.5472e-14
5.68653e-11
1.39086e-09
5.64647e-09
1.39722e-09
1.87346e-10
5.57273e-12
3.51571e-12
2.22181e-12
4.75e-06
1.13551e-08
3.79301e-11
4.72355e-13
2.75871e-14
1.16989e-13
1.18381e-13
1.25494e-13
1.10619e-13
1.09096e-13
1.28741e-13
1.13159e-13
1.06567e-13
1.08008e-13
1.08361e-13
1.14871e-13
1.15496e-13
1.3048e-13
1.16317e-13
1.12203e-13
1.20666e-12
0.142667
0.0162354
1.7411e-05
0.0104581
0.189955
0.147067
0.0346561
0.000314331
9.02045e-08
7.65655e-11
5.62362e-13
1.77754e-13
1.32225e-13
4.64674e-15
2.37587e-05
0.00266324
2.9386
103.517
683.732
0.2575
3.04122e-05
5.10883e-13
1.07806e-12
9.10562e-16
3.13136e-14
1.26151e-08
2.43667e-07
2.59746e-08
6.7659e-10
1.87588e-10
6.22048e-12
7.12026e-13
3.35274e-13
4.74907e-06
1.13578e-08
3.794e-11
4.73243e-13
2.75773e-14
1.14802e-13
1.13744e-13
1.13568e-13
1.19809e-13
1.20676e-13
1.21214e-13
1.2889e-13
1.13382e-13
1.0538e-13
1.14196e-13
1.14893e-13
1.35386e-13
1.16206e-13
1.08765e-13
1.16139e-13
1.2345e-13
2.37697e-06
5.49525e-07
1.08383e-05
2.39587e-05
2.22867e-05
0.00193333
0.000149509
5.61886e-08
2.72877e-11
4.98339e-14
2.26807e-15
2.1849e-14
2.19881e-13
3.23415e-12
2.21734e-11
1.46441e-05
0.161504
0.691443
0.000180049
0.00937698
6.75786e-07
3.42288e-15
3.45151e-16
1.65312e-14
8.85661e-13
7.17251e-08
1.63153e-07
5.99022e-07
3.11116e-07
9.07807e-08
2.30798e-09
2.80873e-10
1.58728e-11
4.74917e-06
1.135e-08
3.78766e-11
4.71558e-13
2.74262e-14
1.14211e-13
1.13131e-13
1.13036e-13
1.17029e-13
1.18835e-13
1.20102e-13
1.26991e-13
1.10525e-13
1.04923e-13
1.11971e-13
1.12476e-13
1.32362e-13
1.17095e-13
1.11794e-13
1.11696e-13
1.5454e-13
0.00307994
0.000868008
1.40274e-05
0.00259028
0.00585133
0.0231409
0.000817921
8.53693e-08
4.86026e-11
1.0648e-12
3.31056e-13
1.23554e-13
1.74672e-17
2.07438e-18
2.78274
132.701
33.3438
142185
78927.4
6216.62
0.536009
3.51815e-09
1.30495e-11
1.26221e-13
1.96359e-11
2.05855e-09
0.000499095
1.32982e-05
2.14417e-08
7.9836e-09
6.06238e-10
2.21477e-11
1.69476e-12
4.74739e-06
1.13579e-08
3.80165e-11
4.73457e-13
2.71786e-14
1.07805e-13
1.07006e-13
1.08596e-13
1.1136e-13
1.12938e-13
1.21973e-13
1.11147e-13
1.08693e-13
1.18262e-13
1.19338e-13
1.26488e-13
1.1624e-13
1.13227e-13
1.18603e-13
1.24427e-13
1.23356e-13
9.13769e-14
4.5516e-08
2.05488e-06
2.41052e-07
1.10415e-06
2.01524e-05
2.07911e-07
2.89544e-10
2.37333e-13
9.94275e-15
8.71604e-14
1.19377e-10
2.24091e-11
1.93432e-05
0.00724715
6.05625
4287.1
21924.6
109.678
2659.82
0.0629889
2.92905e-10
1.12778e-15
8.14105e-17
6.71395e-09
1.57923e-07
2.31231e-05
8.75472e-06
3.84401e-06
2.48494e-06
3.69174e-07
5.61198e-08
2.25341e-09
4.74762e-06
1.13514e-08
3.79485e-11
4.71832e-13
2.70654e-14
1.07309e-13
1.06409e-13
1.07905e-13
1.10392e-13
1.12002e-13
1.21921e-13
1.10693e-13
1.08101e-13
1.13803e-13
1.11871e-13
1.11017e-13
1.15178e-13
1.27999e-13
1.28243e-13
1.32515e-13
1.195e-13
1.40164e-06
1.086e-06
6.2986e-06
1.3244e-06
0.00138461
0.000554882
4.84625e-06
2.00767e-09
7.4233e-12
1.11573e-12
1.34546e-13
1.25126e-13
2.65268e-12
1.4901e-13
1.41182e-07
55217.5
250680
6.58261e+06
1.37307e+06
3.94464e+06
2914.61
0.000151058
2.93813e-10
4.28268e-11
4.3636e-07
6.59629e-05
0.107641
0.00232722
3.37738e-05
4.66992e-07
6.03864e-09
1.3696e-09
4.23745e-11
4.74672e-06
1.13543e-08
3.80502e-11
4.75845e-13
2.73374e-14
1.08299e-13
1.07525e-13
1.10249e-13
1.11781e-13
1.12972e-13
1.21045e-13
1.13844e-13
1.13833e-13
1.31092e-13
1.14026e-13
1.09923e-13
1.10147e-13
1.07495e-13
1.10799e-13
1.16322e-13
1.37805e-13
2.22316e-15
7.99032e-11
1.0772e-08
5.23885e-09
2.18356e-08
8.82874e-09
9.34801e-11
1.04785e-12
1.23833e-13
1.25041e-13
1.26225e-13
5.08091e-17
4.40671e-15
1.31105
94.6116
72186.8
1.82852e+06
2.58554e+06
480520
1.90802e+06
472.085
3.95707e-06
1.32286e-13
2.74777e-15
5.6514e-06
0.000163037
0.000271737
3.66292e-05
1.91987e-05
7.19776e-06
4.45798e-07
3.47135e-07
3.0162e-08
4.74685e-06
1.13473e-08
3.79867e-11
4.74435e-13
2.73399e-14
1.00472e-13
1.07158e-13
1.09102e-13
1.09688e-13
1.10954e-13
1.19718e-13
1.13408e-13
1.13382e-13
1.30793e-13
1.14631e-13
1.09168e-13
1.27597e-13
1.1322e-13
1.13006e-13
1.17179e-13
1.29763e-13
4.09128e-10
1.60854e-09
6.16689e-08
4.18064e-09
6.49593e-06
9.35842e-08
3.50248e-10
2.42313e-12
2.98049e-13
1.76014e-13
1.36805e-13
4.15311e-13
3.94628e-07
3.2356e-07
1.54211
1.55283e+06
7.41621e+06
8.4832e+06
9.1685e+06
7.57618e+06
148974
0.0496408
3.98471e-06
2.54539e-06
0.0146353
0.436103
1.05951
0.0180201
0.00296189
9.35976e-05
1.24227e-07
2.12339e-09
1.76832e-10
4.74517e-06
1.13534e-08
3.81225e-11
4.77868e-13
2.74064e-14
1.08245e-13
1.0749e-13
1.10078e-13
1.11566e-13
1.12929e-13
1.21761e-13
1.08173e-13
1.07756e-13
1.16003e-13
1.15138e-13
1.34033e-13
1.13921e-13
1.05683e-13
1.05841e-13
1.06602e-13
1.20361e-13
1.20972e-13
2.95183e-13
1.89686e-11
1.73811e-11
2.21837e-11
7.12554e-12
4.81277e-13
1.88415e-13
1.30704e-13
1.16041e-13
5.48035e-14
3.49463e-17
8.807e-20
1428.12
89600.5
5.46639e+06
7.45823e+06
6.7329e+06
5.38108e+06
1.44893e+06
6.49849
5.64116e-07
3.03582e-11
1.14026e-13
0.00377701
0.0114777
0.00127275
7.85905e-05
2.08685e-05
4.30683e-06
7.22244e-08
2.91791e-08
4.83099e-07
4.74541e-06
1.13474e-08
3.80536e-11
4.76119e-13
2.73727e-14
1.00325e-13
1.06994e-13
1.08903e-13
1.10133e-13
1.11303e-13
1.19089e-13
1.07824e-13
1.0729e-13
1.12235e-13
1.12608e-13
1.32091e-13
1.1237e-13
1.06379e-13
1.18277e-13
1.13863e-13
1.14339e-13
1.07857e-13
1.96989e-11
4.31993e-11
2.36984e-12
1.07341e-07
7.81208e-11
3.05462e-13
6.58485e-14
1.2666e-13
1.14244e-13
1.11252e-05
2.26438e-09
0.209069
8.22268
1.92562e+06
7.23119e+06
8.42759e+06
7.79704e+06
6.81906e+06
2.13283e+06
45.322
223.932
5.72785
0.631248
25.7544
42.1662
2.55371
0.1587
0.033454
0.00150377
2.05474e-06
5.57436e-09
1.14906e-10
4.74459e-06
1.13498e-08
3.81402e-11
4.79095e-13
2.77139e-14
1.10136e-13
1.0993e-13
1.09131e-13
1.12291e-13
1.28083e-13
1.11985e-13
1.04336e-13
1.19657e-13
1.19302e-13
1.19248e-13
1.19728e-13
1.27591e-13
1.11458e-13
1.06309e-13
1.30056e-13
1.19571e-13
1.15763e-13
1.25291e-13
1.20968e-13
1.81991e-13
3.49266e-13
2.42346e-13
1.59936e-13
1.29935e-13
1.1935e-13
1.40762e-12
2.23017e-07
2.67648e-06
159.094
9083.91
4.24402e+06
4.99091e+06
7.26093e+06
6.66814e+06
3.78646e+06
888816
844.954
0.139022
1.27049e-05
3.94111e-05
0.101911
0.0146625
0.00136007
5.83622e-06
4.72286e-07
8.39206e-09
7.71739e-10
3.93263e-12
5.3083e-08
4.74473e-06
1.13431e-08
3.80767e-11
4.77407e-13
2.75961e-14
1.09193e-13
1.08649e-13
1.07833e-13
1.11354e-13
1.27289e-13
1.10834e-13
1.03895e-13
1.19176e-13
1.18385e-13
1.19196e-13
1.24971e-13
1.10188e-13
1.08331e-13
1.15967e-13
1.16957e-13
1.1559e-13
1.15128e-13
1.63654e-13
3.11997e-13
3.97963e-13
8.83799e-12
3.22164e-13
1.22513e-13
1.27915e-13
1.15057e-13
1.31301e-13
1.10438e-13
1.85283e-08
23945.9
1.24926e+06
6.27805e+06
8.34693e+06
8.67507e+06
7.99582e+06
3.71563e+06
819213
145964
66624.8
3368.48
1205.34
439.507
88.1313
4.70209
0.0184193
0.014399
0.000108682
9.33015e-07
2.14869e-10
2.55795e-09
4.74325e-06
1.13477e-08
3.81941e-11
4.81328e-13
2.76787e-14
1.00035e-13
1.08673e-13
1.18053e-13
1.11623e-13
1.09158e-13
1.1065e-13
1.11835e-13
1.26325e-13
1.11967e-13
1.10346e-13
1.16832e-13
1.18096e-13
1.39264e-13
1.13651e-13
1.09939e-13
1.19268e-13
1.18542e-13
1.39989e-13
1.18455e-13
1.16095e-13
1.46861e-13
1.20558e-13
1.1673e-13
1.44318e-13
1.18255e-13
1.1169e-13
6.83317e-15
9.20191e-09
5541.55
224751
4.24195e+06
6.42848e+06
7.62462e+06
7.17376e+06
4.22497e+06
1.72735e+06
206947
6625.75
0.922067
0.0154104
0.0608296
0.00363343
2.22162e-05
8.91648e-06
6.57241e-07
7.69504e-08
1.97623e-09
9.88456e-08
9.74315e-08
4.7435e-06
1.13418e-08
3.81259e-11
4.80003e-13
2.75894e-14
1.01535e-13
1.09301e-13
1.11265e-13
1.1348e-13
1.19245e-13
1.10501e-13
1.10075e-13
1.28973e-13
1.11347e-13
1.09327e-13
1.14967e-13
1.16889e-13
1.38874e-13
1.14794e-13
1.08627e-13
1.19733e-13
1.18573e-13
1.18478e-13
1.25897e-13
1.2018e-13
1.8813e-13
1.36e-13
1.15845e-13
1.42161e-13
1.19547e-13
1.11232e-13
5.48491e-13
4.87901e-21
109950
5.57299e+06
5.52995e+06
8.0603e+06
9.26199e+06
9.10089e+06
5.23505e+06
684589
164342
97329.6
13846.2
5373.98
467.49
19.4167
0.0550005
0.0333087
0.00780522
6.88788e-07
2.76331e-09
8.14172e-11
4.435e-07
4.74281e-06
1.13436e-08
3.82067e-11
4.8169e-13
2.74049e-14
1.09607e-13
1.15507e-13
1.07847e-13
1.07146e-13
1.09562e-13
1.15081e-13
1.09966e-13
1.09e-13
1.30293e-13
1.19254e-13
1.15331e-13
1.18445e-13
1.25889e-13
1.18895e-13
1.18559e-13
1.34972e-13
1.25692e-13
1.23284e-13
1.39835e-13
1.18315e-13
1.11758e-13
1.37974e-13
1.13412e-13
1.08345e-13
1.11475e-13
1.01939e-13
2.55419e-15
0.0229958
44123.2
3.20312e+06
5.58699e+06
6.72343e+06
7.31231e+06
6.66735e+06
3.97657e+06
1.61587e+06
300475
24742.2
222.619
0.0359454
0.0942214
0.00122271
0.00040024
2.14991e-05
8.39756e-10
6.01704e-06
7.58389e-07
6.64375e-08
5.51276e-08
4.74296e-06
1.13373e-08
3.81443e-11
4.8e-13
2.72968e-14
1.09405e-13
1.15149e-13
1.09095e-13
1.08816e-13
1.08849e-13
1.15205e-13
1.09714e-13
1.08781e-13
1.29714e-13
1.18797e-13
1.14469e-13
1.19847e-13
1.1976e-13
1.20474e-13
1.2013e-13
1.24801e-13
1.30193e-13
1.32404e-13