/*--------------------------------*- C++ -*----------------------------------*\
| =========                 |                                                 |
| \\      /  F ield         | OpenFOAM: The Open Source CFD Toolbox           |
|  \\    /   O peration     | Version:  4.1                                   |
|   \\  /    A nd           | Web:      www.OpenFOAM.org                      |
|    \\/     M anipulation  |                                                 |
\*---------------------------------------------------------------------------*/
FoamFile
{
    version     2.0;
    format      ascii;
    class       volScalarField;
    location    "12";
    object      p;
}
// * * * * * * * * * * * * * * * * * * * * * * * * * * * * * * * * * * * * * //

dimensions      [0 2 -2 0 0 0 0];

internalField   nonuniform List<scalar> 
4432
(
111189
111191
111203
111221
111242
111264
111288
111313
111341
111370
111402
111435
111469
111503
111532
111551
111545
111453
111206
110508
109835
108890
105919
102771
101031
101057
101873
102771
103434
103804
103707
102889
103353
105625
108193
106467
102856
101488
100657
100108
99934.8
100149
100710
101650
103249
105983
108080
110389
114869
120684
121835
100453
43602.3
14335.6
111189
111191
111203
111221
111242
111264
111287
111313
111340
111370
111401
111434
111468
111502
111532
111550
111543
111447
111128
110236
108896
108295
106929
104527
102383
102439
103382
103611
103689
103719
103741
103220
104064
104607
104613
103901
102783
101688
100854
100386
100316
100661
101417
102565
104139
106433
108993
111124
115125
120179
122916
101404
43962.1
14708.3
111179
111181
111193
111211
111231
111252
111275
111299
111325
111353
111384
111418
111454
111493
111536
111583
111624
111608
111411
110753
109469
108430
106468
104481
102871
102528
102325
102335
102292
102570
103206
103534
103443
103885
104102
103600
102658
101789
101158
100805
100801
101134
101601
102195
103200
105025
106926
108176
111051
116478
119557
99279
44861.3
58531.6
111179
111182
111193
111211
111230
111252
111274
111298
111324
111352
111383
111417
111453
111492
111536
111585
111629
111600
111353
110517
109143
108213
106837
105073
103576
103001
102925
102821
102599
102767
103048
103311
103609
103957
103795
103075
102174
101397
100867
100606
100730
101238
101980
102909
104209
106008
107901
109420
112593
118192
122341
100460
43716.3
55580.3
111168
111171
111182
111199
111218
111238
111259
111280
111304
111330
111358
111390
111426
111468
111521
111587
111668
111683
111473
110218
109033
108061
106549
105050
103971
103465
103094
102826
102605
102648
102875
103435
104657
105044
104535
103810
103093
102641
102332
102298
102496
102951
103478
103693
103488
103045
103079
103293
104660
106507
104463
91150
58450.5
74326.7
111168
111171
111183
111199
111218
111237
111258
111280
111303
111329
111357
111389
111425
111468
111523
111594
111690
111685
111303
110159
109027
108127
106943
105652
104594
103790
103226
102812
102516
102465
102433
102698
103549
103988
103751
103114
102485
101986
101689
101651
101975
102513
103008
103261
103500
103776
103935
104385
105960
107962
107850
91759.3
56694.1
69821.6
111153
111156
111167
111183
111200
111218
111237
111257
111278
111301
111326
111355
111388
111428
111479
111542
111615
111599
111347
110375
109734
109033
107657
105617
104591
104145
103843
103377
102849
102417
101984
102151
104506
105408
104442
103581
102899
102549
102397
102458
102762
102946
103204
103363
103043
102133
101408
100836
101492
103452
102479
89218.3
63648.3
61960.1
111153
111156
111167
111182
111200
111218
111237
111256
111277
111300
111325
111354
111387
111428
111482
111551
111624
111616
111282
110497
109851
109122
107837
106186
104996
104323
103847
103368
102823
102310
101850
101944
103418
104283
103782
103179
102629
102290
102186
102262
102510
102861
103215
103112
102821
102162
101439
101019
101245
102932
103426
89300.8
62185.6
59636.5
111134
111136
111146
111161
111177
111193
111210
111226
111244
111264
111286
111310
111338
111370
111408
111447
111473
111430
111178
110640
110066
109504
108243
106275
105393
104836
105045
104962
103978
103135
102451
101771
101890
103894
103599
103222
102895
102661
102530
102464
103892
102703
102617
102578
102637
102477
101288
100323
100118
100792
100879
92017.5
73300.4
81962.3
111134
111136
111146
111161
111177
111193
111209
111226
111244
111263
111285
111309
111337
111370
111409
111453
111483
111420
111147
110653
110130
109627
108675
106635
105416
104959
105218
104896
104029
103068
102428
101798
102612
103964
103601
103141
102785
102563
102507
102617
102785
102611
102806
102686
102306
101656
100782
100032
99768
100491
100640
92030.8
72699.7
81843.1
111110
111111
111121
111134
111149
111162
111176
111190
111204
111219
111236
111254
111273
111294
111312
111323
111309
111230
110995
110573
110109
109696
109003
107189
106023
106157
106423
106768
105729
104939
104247
103249
102170
103149
103216
103025
102839
102716
102655
102545
102488
102183
102614
102437
101977
102337
101652
100460
99673.3
99275.4
98545.3
90784.9
76663.4
83632.8
111110
111112
111121
111134
111148
111162
111175
111189
111203
111218
111235
111253
111272
111293
111313
111326
111316
111229
110979
110566
110121
109704
109226
108208
106259
106068
106614
106781
105758
104851
104305
103369
103862
103734
103320
102967
102774
102677
102691
102767
102542
102565
102591
102526
102208
101756
100963
100144
99521.9
99431.2
98540.6
90394.6
76371.4
84978.6
111082
111083
111092
111104
111116
111127
111137
111147
111157
111167
111178
111188
111197
111203
111203
111187
111141
111039
110830
110489
110101
109768
109401
108611
106397
106907
107653
107521
106542
105790
105306
104767
104584
103730
103149
102855
102751
102738
102838
103010
103108
103217
103301
102829
101939
101787
101282
100383
99524.9
98911.5
97418.9
91058.6
80250.5
82447.3
111082
111084
111092
111103
111115
111126
111137
111147
111156
111167
111177
111187
111196
111202
111202
111189
111146
111044
110827
110478
110090
109743
109402
109003
107670
107168
107568
107420
106532
105903
105371
104732
104287
103772
103247
102891
102745
102758
102897
103044
103152
103295
103262
102828
102183
101781
101038
100305
99602.3
99015
97441.4
90507.3
79499.6
82768.4
111050
111052
111059
111069
111079
111087
111094
111100
111105
111109
111113
111115
111113
111105
111086
111049
110981
110863
110672
110390
110062
109772
109498
109067
107640
107424
107811
107166
106504
105899
105451
104983
104487
103919
103339
102941
102817
102901
103165
103458
103678
103926
104088
103467
102355
101760
101140
100466
99789.5
98982.8
96997.8
91584
83145.1
89725.8
111050
111052
111059
111069
111078
111087
111093
111099
111104
111109
111112
111114
111112
111104
111085
111049
110983
110868
110675
110386
110049
109739
109453
109101
108451
107984
107574
107091
106457
105897
105424
104936
104408
103884
103355
102988
102862
102955
103204
103432
103640
103875
103824
103222
102467
101956
101163
100461
99807.8
98933.2
96902.7
91171.7
82299.3
88753.9
111016
111017
111023
111031
111038
111044
111047
111048
111048
111047
111043
111036
111024
111003
110968
110914
110831
110706
110527
110284
109998
109724
109469
109122
108528
108043
107555
107017
106473
105954
105500
105064
104611
104096
103569
103205
103072
103205
103516
103855
104218
104478
104602
104144
103181
102250
101419
100725
100027
99045.9
96566.1
91168.4
83314.9
87896.6
111016
111017
111023
111031
111038
111043
111046
111048
111048
111046
111042
111035
111023
111001
110967
110913
110831
110709
110530
110284
109989
109696
109424
109098
108600
108064
107518
106985
106441
105929
105477
105038
104583
104098
103604
103253
103128
103220
103459
103782
104169
104456
104404
103891
103146
102330
101467
100733
100085
98942.6
96351.1
90729.1
82931.3
88454
110979
110979
110985
110991
110995
110997
110997
110994
110989
110981
110971
110956
110934
110901
110854
110788
110695
110569
110400
110184
109929
109662
109397
109074
108594
108020
107476
106979
106493
106027
105597
105194
104797
104361
103904
103572
103435
103505
103753
104164
104664
104962
104995
104630
103830
102764
101557
100513
99615.6
98323.4
95721.8
90947.6
84147.7
83965.6
110979
110980
110985
110991
110995
110997
110996
110993
110988
110980
110970
110954
110932
110900
110853
110787
110695
110570
110402
110185
109924
109644
109363
109041
108592
108038
107493
106978
106482
106011
105583
105181
104778
104359
103939
103621
103484
103534
103741
104080
104496
104790
104777
104428
103792
102852
101690
100777
99988.4
98571.7
95797.6
90889.6
83687.9
83732.1
110940
110940
110944
110948
110950
110949
110944
110937
110927
110914
110897
110874
110844
110802
110746
110672
110575
110450
110293
110100
109872
109619
109343
109014
108572
108031
107498
107016
106568
106144
105749
105380
105023
104663
104301
104014
103865
103879
104050
104359
104746
105061
105176
104883
104107
102996
101643
100290
98977
97152.1
94119.5
89711.8
84444.2
77577.7
110939
110940
110944
110948
110949
110948
110944
110936
110926
110913
110896
110873
110843
110801
110745
110671
110574
110450
110294
110101
109870
109610
109324
108991
108561
108041
107517
107031
106575
106145
105747
105377
105019
104664
104318
104042
103898
103906
104054
104315
104630
104867
104887
104565
103897
102956
101778
100635
99544.4
97748
94486.9
90247
84666.6
77559
110899
110899
110902
110904
110903
110899
110891
110880
110865
110846
110823
110794
110757
110709
110646
110567
110469
110350
110206
110036
109840
109614
109351
109014
108569
108048
107556
107119
106716
106334
105974
105640
105323
105019
104729
104488
104338
104302
104378
104543
104749
104904
104907
104647
104023
103031
101682
100121
98431
96270
93286.4
89678.5
85623.1
79230.5
110899
110899
110902
110904
110903
110898
110890
110879
110864
110846
110823
110793
110756
110707
110645
110566
110468
110349
110207
110037
109840
109611
109345
109003
108562
108051
107567
107132
106727
106342
105981
105645
105329
105026
104742
104506
104358
104321
104388
104532
104701
104806
104736
104390
103717
102742
101500
100110
98696
96835.6
94191.4
91062.9
86182.1
82424.1
110857
110857
110859
110859
110856
110848
110837
110822
110803
110779
110751
110717
110674
110621
110554
110473
110377
110264
110136
109992
109833
109657
109443
109092
108578
108029
107622
107269
106928
106595
106277
105980
105703
105442
105202
104995
104843
104760
104745
104774
104808
104784
104620
104232
103564
102600
101325
99774.3
97998.8
95843.3
93163.2
89786.2
86751.1
79574.9
110857
110857
110859
110859
110855
110848
110836
110821
110802
110779
110751
110716
110673
110620
110553
110472
110376
110264
110136
109993
109835
109663
109454
109087
108570
108032
107626
107275
106935
106601
106283
105986
105709
105450
105212
105007
104856
104774
104756
104777
104796
104749
104554
104129
103421
102421
101142
99630.7
97959.9
96003
93586.2
90377.5
87079.1
79724.7
110815
110815
110815
110814
110808
110798
110783
110765
110742
110715
110682
110644
110597
110540
110471
110389
110295
110190
110076
109957
109845
109746
109669
109376
108707
107841
107645
107432
107173
106895
106625
106370
106132
105909
105704
105519
105364
105243
105149
105060
104946
104762
104452
103951
103202
102173
100858
99265.5
97427.8
95269.5
92729.5
89416.1
86135.4
78829.6
110815
110815
110815
110813
110808
110797
110783
110764
110741
110714
110682
110643
110596
110539
110470
110389
110295
110190
110076
109959
109851
109765
109716
109372
108671
107833
107639
107427
107172
106896
106627
106372
106134
105912
105708
105524
105370
105250
105155
105064
104944
104751
104429
103912
103145
102099
100773
99182.8
97364.8
95255.4
92797.2
89506.2
86302
78884.3
110773
110773
110772
110769
110761
110748
110731
110709
110683
110652
110616
110574
110524
110465
110395
110314
110223
110124
110020
109920
109840
109812
109864
109938
108451
107605
107754
107661
107473
107237
107008
106794
106592
106401
106222
106052
105893
105739
105577
105388
105147
104830
104395
103792
102963
101867
100482
98803.4
96845.5
94568.2
91933.1
88609.6
84866.7
78231
110773
110773
110772
110768
110760
110748
110730
110708
110682
110651
110616
110573
110523
110464
110394
110313
110223
110124
110021
109922
109845
109826
109892
109731
108239
107599
107732
107647
107465
107232
107005
106790
106588
106398
106219
106050
105892
105741
105580
105391
105146
104824
104385
103775
102939
101835
100444
98766.5
96814.6
94548.3
91933
88607.3
84915.4
78224.4
110732
110731
110730
110725
110715
110700
110680
110655
110626
110593
110554
110510
110458
110397
110326
110246
110157
110062
109963
109867
109779
109719
109809
110258
107545
107877
107872
107744
107565
107384
107213
107049
106890
106734
106577
106411
106228
106007
105735
105390
104968
104439
103755
102855
101688
100220
98436.3
96335.5
93888.1
91053.5
87621.4
83543.4
77644.1
110732
110731
110729
110724
110714
110699
110679
110655
110626
110592
110554
110509
110457
110396
110325
110245
110157
110062
109964
109868
109781
109720
109770
110097
107537
107854
107862
107741
107563
107382
107210
107045
106886
106730
106573
106410
106233
106014
105746
105390
104961
104430
103741
102837
101667
100198
98418.9
96324.4
93882.6
91053.2
87613.4
83535.8
77613.3
110692
110690
110688
110682
110670
110653
110631
110604
110573
110537
110496
110450
110396
110335
110264
110185
110097
110003
109903
109798
109678
109514
109211
108688
107750
107905
108044
108023
107911
107780
107651
107527
107407
107284
107155
107012
106847
106648
106388
106062
105640
105148
104566
103837
102889
101654
100096
98197.8
95947.3
93311.4
90250.9
86660.5
82373.4
77032.7
110692
110691
110688
110681
110670
110653
110630
110604
110572
110537
110496
110449
110396
110334
110263
110184
110097
110004
109904
109799
109679
109512
109197
108662
107732
107898
108035
108020
107912
107783
107653
107529
107407
107284
107155
107014
106856
106664
106406
106080
105643
105142
104555
103820
102866
101629
100075
98187.4
95947.9
93320.4
90263.1
86665.6
82370.4
77025.1
110653
110652
110648
110641
110627
110609
110585
110556
110523
110485
110443
110395
110341
110279
110209
110130
110044
109950
109848
109734
109595
109403
109130
108756
108359
108153
108135
108079
108007
107929
107849
107768
107687
107599
107502
107388
107239
107037
106749
106389
105925
105394
104797
104054
103070
101764
100107
98092.1
95698.8
92881.1
89601.3
85840.3
81488.4
76536.8
110653
110651
110648
110640
110627
110608
110584
110556
110522
110485
110442
110395
110340
110278
110208
110130
110044
109951
109849
109735
109595
109401
109126
108753
108357
108153
108133
108080
108009
107932
107851
107771
107688
107600
107504
107378
107244
107061
106760
106351
105931
105396
104784
104026
103031
101724
100078
98081
95704.8
92901.3
89630.5
85869.3
81511.8
76548.2
110616
110614
110611
110602
110587
110567
110541
110511
110476
110437
110394
110345
110291
110229
110159
110082
109998
109905
109804
109689
109551
109379
109168
108910
108638
108443
108339
108269
108208
108151
108097
108047
107999
107949
107899
107832
107692
107459
107047
106716
106281
105718
105132
104382
103338
101929
100159
98042.2
95535.5
92553
89059.5
85112.6
80896.4
76241.6
110616
110614
110610
110601
110587
110566
110541
110511
110476
110437
110394
110345
110290
110228
110159
110082
109998
109906
109805
109690
109552
109380
109167
108910
108641
108443
108339
108270
108209
108152
108098
108048
107999
107946
107898
107962
107680
107257
106570
109246
106398
105759
105140
104353
103289
101881
100133
98042.1
95557.6
92596.4
89122
85184.6
80964.6
76278.8
110581
110579
110575
110565
110549
110528
110501
110470
110434
110394
110350
110301
110246
110185
110117
110041
109959
109870
109772
109663
109538
109391
109221
109036
108845
108687
108584
108516
108464
108423
108392
108371
108357
108348
108345
108325
108218
107213
105876
105762
106586
106084
105594
104804
103633
102059
100155
97970.1
95405.5
92275.5
88528.3
84267.7
80260.4
75933.8
110581
110579
110575
110565
110549
110527
110501
110469
110433
110394
110350
110301
110246
110185
110116
110041
109959
109870
109773
109664
109539
109391
109223
109039
108847
108690
108586
108517
108465
108424
108393
108371
108356
108344
108340
108389
108538
101406
91926.6
107362
112376
106255
105629
104784
103583
102016
100148
97992.2
95448.2
92349.3
88638.2
84417.4
80408.3
76014
110549
110547
110542
110531
110514
110492
110464
110432
110395
110355
110310
110261
110207
110147
110080
110007
109928
109843
109752
109651
109540
109416
109282
109140
109002
108885
108797
108737
108696
108671
108663
108672
108696
108728
108766
108652
107359
99479
91929.3
97525.4
96767
106498
106145
105255
103889
102117
100102
97930.7
95400.5
92170
88084.6
83199.7
79034.5
75206.2
110549
110547
110542
110531
110514
110491
110464
110431
110395
110355
110310
110261
110207
110147
110080
110007
109929
109844
109753
109653
109541
109418
109283
109142
109006
108887
108799
108738
108697
108672
108664
108673
108695
108717
108738
108686
102284
75628.3
66772.9
64266
104104
107209
106245
105245
103842
102088
100126
97978.9
95460.5
92270.4
88256.8
83447.2
79283.2
75290.2
110519
110517
110511
110500
110483
110459
110431
110398
110361
110320
110276
110227
110173
110114
110050
109980
109905
109825
109740
109649
109553
109449
109339
109230
109127
109037
108967
108917
108886
108875
108886
108923
108992
109070
108893
107053
85870.6
58810.8
76334.5
70578.6
102171
107079
106657
105634
104109
102218
100216
98219.1
95873.8
92647.7
88212.1
82376.2
76969.1
73947.2
110519
110517
110511
110500
110482
110459
110430
110398
110361
110320
110276
110227
110173
110114
110050
109980
109905
109826
109741
109651
109554
109450
109342
109233
109129
109040
108969
108919
108888
108876
108887
108925
108994
109058
108940
102925
63452.3
50064.2
71494
91262.2
114820
108006
106769
105631
104051
102183
100245
98273.1
95915.8
92736.6
88444.1
82783.6
77418.7
74097.2
110492
110490
110484
110472
110454
110430
110401
110368
110331
110290
110246
110197
110145
110088
110025
109958
109887
109813
109735
109654
109569
109482
109394
109308
109228
109159
109103
109062
109040
109038
109060
109112
109204
109401
103893
89637.5
57655.9
55233.4
56189.2
43776.5
95449.6
107511
107089
105956
104403
102542
100679
98952.4
97003.3
94156.3
89858.4
82952.5
74338.8
73831.7
110492
110490
110484
110472
110454
110430
110401
110367
110330
110290
110246
110197
110145
110087
110025
109958
109888
109814
109736
109655
109571
109484
109396
109310
109231
109161
109104
109064
109041
109039
109062
109118
109217
109296
100639
51654.9
28204.9
30034.1
54938.7
45383.2
80744.8
108577
107182
105924
104240
102366
100639
98954.1
96961.2
94069.5
90003
83721
75855.6
74883.8
110469
110466
110460
110447
110429
110404
110375
110342
110304
110264
110220
110173
110121
110066
110006
109942
109875
109806
109734
109662
109588
109514
109442
109373
109309
109253
109208
109175
109157
109159
109182
109220
109198
108833
99266.8
55658.1
57566
58626.8
26968.4
-9270.9
83452.2
106511
107328
106137
104695
102931
101073
99496.2
98328.5
97079.2
94221.2
87003.7
74695.1
75984.3
110468
110466
110460
110447
110428
110404
110375
110341
110304
110264
110220
110173
110121
110066
110006
109942
109876
109807
109736
109663
109590
109516
109444
109375
109311
109256
109210
109176
109158
109160
109184
109229
109285
109084
85594.6
52633.4
48810.1
51973.4
20894.9
-100754
63901.7
104220
107492
105823
104193
102587
100942
99374.5
98130.3
96599.7
93805.8
87084.1
74959.5
70967.5
110448
110445
110439
110426
110407
110382
110353
110319
110282
110242
110199
110152
110102
110048
109990
109930
109867
109802
109737
109672
109607
109544
109483
109426
109374
109328
109289
109259
109242
109243
109264
109294
109133
103731
88607.2
61843.6
86847
133665
146114
49579
95533.3
107098
106981
106055
104796
103027
101107
99660.3
99139.8
99690.7
98961.1
90825.9
73262.5
72155.6
110448
110445
110438
110426
110407
110382
110353
110319
110282
110242
110199
110152
110102
110048
109991
109930
109867
109803
109738
109673
109608
109546
109485
109428
109376
109330
109290
109260
109244
109245
109264
109285
109162
106838
92134.1
69307.8
100479
196327
231467
85224.5
71603.6
104670
107400
105605
104388
102707
100880
99455
98904.1
99328.4
98311.4
90249.4
73456.4
73418.8
110430
110428
110421
110408
110389
110364
110335
110301
110264
110224
110182
110136
110087
110035
109979
109921
109862
109801
109741
109682
109625
109570
109518
109469
109425
109384
109349
109319
109298
109289
109298
109323
109233
106238
95353.8
99099.1
158707
184347
145870
102243
103752
106884
106176
105742
104837
103108
100962
99518.4
99310.4
100020
99061.8
88379.4
71276.2
81098.4
110430
110427
110421
110408
110389
110364
110334
110301
110264
110224
110182
110136
110087
110035
109980
109922
109863
109802
109742
109683
109626
109571
109520
109472
109427
109386
109350
109319
109298
109287
109299
109345
109178
103843
97231.3
109248
181687
268264
280146
118714
96183.7
105342
106159
105326
104426
102603
100555
99278.5
99041.1
99616.3
98177.5
87628.8
71123.1
79224.2
110416
110414
110407
110394
110374
110349
110320
110286
110250
110210
110168
110123
110075
110025
109971
109916
109859
109802
109746
109692
109640
109591
109546
109503
109464
109427
109391
109358
109328
109295
109275
109312
109465
108495
104196
105200
143683
158740
127212
105027
102833
104234
104835
105204
104828
103444
101759
101028
101126
101460
99175.7
87294
70107.5
84811
110416
110413
110406
110393
110374
110349
110320
110286
110250
110210
110168
110123
110075
110025
109972
109916
109860
109803
109747
109693
109641
109593
109547
109505
109466
109428
109392
109358
109323
109286
109262
109407
109101
109644
111922
128819
184190
212859
173866
111140
101251
103313
104436
104775
104361
103000
101400
100661
100930
101573
98920
86185.3
69211
84055.2
110406
110403
110396
110383
110363
110338
110309
110276
110239
110200
110158
110114
110067
110018
109966
109913
109858
109804
109751
109700
109653
109608
109567
109528
109492
109456
109420
109383
109343
109295
109245
109195
109042
108735
108115
107662
113484
121415
108415
102491
101481
101727
102988
104307
104134
102596
101093
101050
102214
104133
102291
88086
61431.4
77141.6
110405
110403
110396
110382
110363
110338
110309
110276
110239
110200
110158
110114
110067
110018
109966
109913
109859
109805
109753
109702
109654
109610
109569
109530
109493
109457
109421
109383
109341
109291
109230
109049
108976
107878
109058
118109
144285
155507
131169
107440
102040
101550
102617
103923
103888
102583
101416
101371
102575
104547
102848
88171.2
61181.6
77522.8
110398
110396
110388
110375
110356
110331
110301
110268
110232
110193
110152
110108
110062
110014
109964
109912
109859
109807
109757
109708
109663
109621
109582
109546
109511
109476
109439
109399
109353
109296
109221
109115
108960
108717
108348
107849
107068
105245
103695
102551
101950
101651
101964
103200
103468
101751
100711
101838
105696
111744
114916
98629.5
48616
50544.2
110398
110395
110388
110375
110355
110330
110301
110268
110232
110193
110152
110109
110063
110014
109964
109912
109860
109808
109758
109710
109665
109623
109584
109547
109512
109477
109440
109399
109352
109294
109220
109108
108966
108778
108550
110611
114077
111096
105724
102896
102138
101721
101737
103236
103743
102158
101528
102542
106019
111974
115600
99110.4
48508.6
54585.1
110394
110392
110384
110371
110351
110326
110297
110264
110228
110190
110149
110105
110060
110012
109962
109911
109860
109809
109760
109714
109670
109629
109591
109556
109522
109487
109450
109409
109360
109299
109217
109099
108925
108664
108264
107690
106657
104819
103410
102620
102476
102254
102300
102709
103030
101068
101849
105391
111935
120556
124323
104664
52770.3
20982.8
110394
110391
110384
110371
110351
110326
110297
110264
110228
110190
110149
110106
110060
110012
109963
109912
109861
109811
109762
109715
109671
109631
109593
109558
109523
109487
109450
109408
109359
109298
109216
109100
108934
108696
108328
107774
107023
105634
103447
102332
102369
102315
102232
102806
103173
101845
102054
105341
111767
120174
123383
103059
51560
21723.7
109143
109920
109015
110514
110481
107565
108336
107575
107146
107140
108860
109682
108938
110401
110561
107548
108261
107551
107163
107445
110214
108958
107420
108921
107512
107205
107195
107228
107473
107343
107479
109844
108889
107578
108887
107849
107167
107380
107449
107467
107812
107495
109127
109378
109123
109573
109260
109567
109233
108313
108699
108304
108609
108053
108585
108056
109100
109336
109063
109536
109124
109490
109087
108301
108653
108285
108499
107993
108439
107981
109977
109884
110014
109915
110130
109919
110123
106191
107889
108435
107856
106311
107714
107599
107712
107474
107656
107448
107643
110069
109787
109933
109880
110088
109840
110076
106393
107766
108178
107712
106269
107701
107610
107689
107470
107637
107533
107644
109933
109805
109909
109579
109489
109570
109464
108632
110279
109784
109765
108761
107016
106918
107758
107516
107751
107690
107841
107673
107826
109833
109747
109795
109551
109420
109536
109395
108662
109900
109581
108686
109445
109745
107630
107730
107572
107738
107673
107804
107697
107804
108142
108674
108145
108739
108408
108734
108405
107671
107731
107652
108084
107967
108078
107954
108155
108670
108181
108725
108403
108727
108404
107652
107749
107662
108072
107956
108072
107952
110412
109634
109123
109638
110376
110400
109091
109538
109608
110494
110741
110474
110550
110499
110716
110732
110718
110734
110481
110518
110483
111046
110728
111072
106194
108392
107835
107852
106234
105764
105778
106311
107179
107135
107168
106295
105778
105799
106326
107181
107105
107150
106332
115939
109383
108825
109298
110742
112188
108819
109324
109354
113122
112143
110441
110890
112062
111313
125977
112064
112775
115454
110233
110464
163725
111242
125152
106386
108112
107502
107617
106596
106074
105848
106549
107213
107202
106353
107269
106051
105836
106622
107470
107369
107389
106574
107824
107961
108642
110247
109709
109731
108686
107866
107910
107590
107858
107386
107821
107725
107619
107451
107886
107673
107841
107073
107203
107268
107241
107060
107082
107011
107098
107180
107237
107240
106984
106980
107273
107244
107298
107003
107019
107314
107292
106987
107285
108058
107938
108598
109876
109489
109460
108306
107917
104950
107701
107909
107581
107680
107892
107664
107633
108013
107924
107852
107153
107183
107203
106942
107167
110613
269860
107969
107337
107333
107302
105885
107201
107330
107518
107020
107351
107064
107417
107271
107267
106299
110347
109926
109952
110229
109931
110253
110342
111558
109661
109501
109811
109528
109901
109541
110334
109949
109855
110222
109912
110254
110318
106903
107541
107550
107254
107516
107240
106899
106901
107565
107553
107261
107540
107232
106927
111930
109874
109933
113045
109893
111065
115095
106973
107494
107534
107271
107457
106932
107278
107004
107532
107468
107370
107452
107320
106990
108568
109234
108508
108940
109211
108470
108622
108561
109180
108921
108479
109188
108580
108461
107164
107335
107318
107467
107325
107333
107155
107163
107334
107458
107341
107317
107161
107318
108487
109116
108463
108865
108546
109058
108433
108495
109096
108869
108497
109066
108451
108541
107175
107320
107328
107466
107152
107287
107346
107408
107426
107503
107319
107389
107356
107098
106892
106888
105931
106174
106885
106839
105923
107224
107919
107817
107378
107249
107805
107777
107225
106857
106144
106938
106106
106876
105892
106979
106943
106922
106356
106171
106935
106923
106144
107270
107772
107241
107805
106936
106300
106915
106057
106897
106925
106074
107245
107845
107783
107274
109664
109211
109157
108617
109199
109656
109157
110189
110578
110616
110205
110195
110601
110615
110186
109687
108660
109306
109228
109230
109195
109698
107016
106972
109651
109559
108669
108956
109529
109652
108980
110566
111505
112521
110315
111127
118046
114379
111467
109650
108683
109309
109107
109640
109384
109046
107634
107696
109675
110096
110058
110402
110094
109676
110029
109182
108640
108568
109203
109072
108511
108469
109095
109711
110415
110073
110072
110101
110057
109744
109654
110076
110039
110402
109656
110069
110021
109046
108433
108451
108997
109061
108495
109080
108462
109621
110434
109984
110081
110037
110036
109593
110826
110643
110919
110745
110655
110921
110824
110895
110825
110874
110858
110877
110846
110864
110873
110848
110765
110625
110928
110661
110957
110804
110714
110730
110824
110631
110760
110926
110651
110819
110944
110873
111105
110945
110862
110856
110831
110809
113875
110704
111056
110929
110860
110830
110865
110836
110736
110824
106886
106892
105927
106202
106859
106892
105945
107220
107741
107215
107737
107230
107766
107204
107757
106875
106221
106917
105983
106890
106909
105933
105796
105701
106797
106785
106467
106265
106765
106427
106818
106908
107047
107066
106956
107008
107174
107036
107117
106687
106191
106714
106284
106698
106318
106699
105862
105810
106830
106776
106312
106459
106771
106807
106467
107017
107168
107020
107121
106816
106318
106791
106506
106778
106488
106805
107017
107124
107016
107099
110697
110414
113909
116457
110634
110830
112974
109091
108408
108556
108885
109840
111624
109751
110370
109879
109509
110940
109334
108598
108539
109439
109465
110155
111856
110940
109927
110327
109357
106592
105049
106664
105361
108848
108406
108999
108369
108664
111293
112103
115710
110785
109961
109577
118340
112707
113195
112280
112866
108453
113196
157367
114792
124677
113052
114810
111511
111172
135863
112108
111566
113155
121380
126460
119777
120182
123189
114474
126931
113187
115756
115692
119634
113634
106498
118957
110565
112062
140910
113996
117315
115342
113513
140381
123920
127048
152224
122328
110675
174017
111408
115915
106894
106909
106151
106374
106880
106923
106150
106799
101216
107725
104053
107090
107738
107189
107780
107039
106394
107006
106276
106969
106225
107272
106020
105881
106960
106442
106962
106696
106893
106572
107034
107059
107161
107042
107139
106868
106366
106811
106536
106848
106826
106530
107135
107274
107217
107173
106098
105997
107239
107043
106810
106634
107096
107185
106852
107379
107474
107357
107551
107394
107449
107377
107422
107237
106639
107137
106854
107107
106901
107323
107802
107812
109655
109231
109142
108647
109651