/*--------------------------------*- C++ -*----------------------------------*\
| =========                 |                                                 |
| \\      /  F ield         | OpenFOAM: The Open Source CFD Toolbox           |
|  \\    /   O peration     | Version:  4.1                                   |
|   \\  /    A nd           | Web:      www.OpenFOAM.org                      |
|    \\/     M anipulation  |                                                 |
\*---------------------------------------------------------------------------*/
FoamFile
{
    version     2.0;
    format      ascii;
    class       volScalarField;
    location    "88";
    object      p;
}
// * * * * * * * * * * * * * * * * * * * * * * * * * * * * * * * * * * * * * //

dimensions      [0 2 -2 0 0 0 0];

internalField   nonuniform List<scalar> 
4432
(
100967
100968
100969
100970
100973
100976
100980
100985
100990
100996
101003
101010
101018
101026
101034
101042
101048
101052
101056
101065
101080
101098
101116
101136
101158
101182
101205
101223
101237
101248
101258
101268
101282
101301
101318
101327
101333
101339
101346
101352
101356
101359
101361
101363
101363
101362
101359
101358
101355
101349
101342
101336
101331
101326
100967
100968
100969
100970
100973
100976
100980
100985
100990
100996
101003
101010
101018
101026
101034
101042
101048
101052
101056
101065
101081
101099
101117
101137
101160
101184
101205
101223
101237
101250
101261
101272
101284
101300
101316
101326
101332
101339
101346
101352
101356
101358
101360
101362
101363
101363
101359
101356
101354
101349
101342
101336
101330
101326
100966
100966
100967
100969
100971
100974
100978
100982
100987
100993
101000
101008
101016
101025
101036
101048
101064
101082
101095
101104
101115
101130
101145
101160
101174
101189
101205
101221
101238
101253
101265
101277
101286
101294
101302
101310
101320
101332
101344
101354
101356
101355
101358
101362
101363
101362
101360
101358
101356
101353
101347
101337
101321
101326
100966
100966
100967
100969
100971
100974
100978
100982
100987
100993
101000
101008
101016
101025
101036
101048
101064
101082
101096
101105
101115
101129
101143
101157
101172
101187
101203
101219
101235
101250
101261
101270
101280
101294
101305
101313
101322
101333
101344
101353
101356
101356
101359
101362
101364
101363
101361
101359
101357
101355
101348
101335
101318
101327
100964
100965
100966
100967
100970
100973
100977
100981
100987
100992
100999
101007
101015
101024
101035
101047
101060
101072
101083
101096
101111
101127
101142
101156
101171
101187
101205
101223
101241
101258
101270
101280
101293
101306
101312
101315
101324
101339
101353
101363
101363
101360
101363
101367
101368
101366
101363
101359
101354
101350
101346
101339
101331
101328
100964
100965
100966
100967
100970
100973
100977
100981
100987
100992
100999
101007
101015
101024
101035
101047
101060
101072
101083
101095
101110
101126
101141
101154
101169
101186
101204
101221
101239
101256
101269
101277
101288
101302
101313
101318
101327
101339
101352
101361
101364
101361
101364
101368
101368
101366
101363
101359
101355
101352
101347
101338
101331
101331
100962
100963
100964
100965
100968
100971
100974
100979
100984
100990
100996
101003
101012
101021
101031
101042
101054
101065
101076
101090
101107
101122
101137
101151
101168
101188
101209
101228
101248
101267
101281
101295
101315
101326
101324
101314
101320
101338
101353
101366
101366
101362
101368
101372
101372
101368
101365
101360
101355
101349
101346
101344
101336
101326
100962
100962
100964
100965
100968
100971
100974
100979
100984
100990
100996
101003
101012
101021
101031
101042
101054
101065
101076
101090
101106
101122
101136
101151
101167
101188
101208
101228
101249
101268
101281
101294
101312
101322
101325
101323
101328
101341
101354
101363
101363
101363
101368
101372
101372
101368
101364
101360
101355
101351
101350
101344
101335
101325
100959
100960
100961
100963
100965
100968
100971
100976
100981
100986
100993
101000
101008
101017
101027
101037
101049
101060
101070
101082
101097
101112
101128
101144
101163
101187
101212
101236
101260
101281
101297
101316
101337
101349
101373
101296
101306
101335
101361
101382
101379
101369
101376
101378
101376
101372
101367
101363
101359
101354
101349
101344
101338
101332
100959
100960
100961
100963
100965
100968
100971
100976
100981
100986
100993
101000
101008
101017
101027
101037
101049
101060
101070
101082
101096
101112
101128
101144
101165
101188
101213
101236
101262
101284
101299
101315
101334
101343
101345
101328
101326
101343
101364
101379
101377
101371
101375
101377
101376
101372
101368
101363
101358
101354
101352
101346
101335
101330
100956
100956
100957
100959
100961
100964
100968
100972
100977
100982
100988
100995
101003
101011
101021
101031
101041
101052
101063
101074
101088
101103
101118
101134
101154
101179
101207
101234
101261
101285
101303
101322
101347
101434
101590
101363
101291
101310
101343
101355
101365
101390
101392
101387
101382
101377
101372
101367
101362
101357
101350
101342
101337
101334
100956
100956
100957
100959
100961
100964
100968
100972
100977
100982
100988
100995
101003
101011
101021
101031
101041
101052
101062
101074
101087
101103
101118
101134
101155
101180
101207
101233
101261
101286
101303
101317
101333
101366
101394
101339
101309
101330
101363
101388
101397
101386
101385
101385
101382
101378
101373
101368
101363
101356
101350
101343
101338
101333
100952
100953
100954
100955
100957
100960
100963
100967
100972
100977
100983
100990
100997
101005
101014
101024
101034
101044
101054
101065
101078
101093
101108
101122
101138
101162
101191
101217
101241
101264
101289
101317
101369
101577
101515
101474
101328
101336
101361
101371
101382
101401
101402
101395
101389
101384
101379
101374
101368
101362
101354
101344
101334
101332
100952
100953
100954
100955
100957
100960
100963
100967
100972
100977
100983
100990
100997
101005
101014
101024
101034
101044
101054
101066
101078
101093
101109
101124
101140
101164
101190
101214
101240
101265
101285
101306
101335
101391
101454
101394
101306
101322
101359
101379
101389
101396
101396
101392
101387
101381
101376
101372
101366
101359
101351
101343
101336
101330
100948
100948
100949
100951
100953
100955
100958
100962
100966
100972
100977
100984
100991
100998
101007
101016
101026
101036
101046
101057
101069
101082
101095
101108
101119
101136
101163
101186
101205
101221
101242
101274
101305
101370
101420
101414
101345
101350
101372
101386
101395
101401
101402
101396
101390
101384
101379
101374
101368
101362
101353
101342
101331
101330
100948
100948
100949
100951
100953
100955
100958
100962
100966
100972
100977
100984
100991
100998
101007
101016
101026
101036
101046
101057
101069
101082
101095
101109
101121
101140
101162
101182
101202
101223
101242
101268
101308
101350
101391
101368
101335
101347
101373
101389
101397
101401
101400
101395
101389
101382
101377
101372
101367
101360
101351
101340
101331
101330
100943
100943
100944
100946
100948
100950
100953
100956
100960
100965
100970
100977
100983
100991
100999
101008
101017
101027
101037
101048
101058
101069
101079
101089
101097
101105
101123
101144
101167
101189
101212
101239
101280
101321
101361
101355
101347
101361
101381
101393
101399
101402
101403
101399
101392
101385
101380
101376
101371
101364
101354
101341
101330
101328
100943
100943
100944
100946
100948
100950
100953
100956
100960
100965
100970
100976
100983
100991
100999
101008
101017
101027
101037
101048
101058
101068
101079
101088
101097
101107
101124
101144
101164
101186
101210
101241
101281
101322
101353
101360
101360
101371
101388
101400
101405
101406
101403
101399
101393
101387
101381
101376
101371
101364
101354
101341
101332
101330
100938
100938
100939
100940
100942
100944
100947
100950
100954
100958
100963
100969
100975
100982
100990
100999
101008
101018
101028
101038
101047
101055
101061
101066
101069
101071
101083
101107
101136
101163
101192
101226
101269
101310
101349
101368
101380
101393
101406
101415
101419
101419
101417
101412
101404
101395
101388
101382
101376
101369
101358
101344
101332
101328
100938
100938
100939
100940
100942
100944
100947
100950
100954
100958
100963
100969
100975
100982
100990
100999
101008
101018
101028
101038
101047
101055
101061
101065
101067
101071
101084
101108
101135
101162
101192
101227
101269
101312
101348
101371
101385
101399
101414
101423
101426
101424
101420
101414
101408
101399
101390
101384
101378
101370
101358
101345
101333
101332
100932
100932
100933
100934
100936
100937
100940
100943
100946
100950
100955
100960
100966
100973
100980
100989
100998
101008
101018
101028
101037
101043
101045
101041
101032
101027
101042
101074
101111
101145
101181
101220
101262
101308
101350
101382
101406
101427
101443
101452
101452
101447
101438
101428
101418
101408
101398
101388
101380
101372
101361
101346
101330
101323
100932
100932
100933
100934
100936
100937
100940
100943
100946
100950
100955
100960
100966
100973
100980
100989
100998
101008
101018
101028
101037
101043
101045
101040
101031
101027
101044
101076
101111
101145
101181
101221
101265
101310
101350
101382
101406
101428
101445
101455
101456
101450
101440
101430
101420
101410
101399
101390
101382
101373
101361
101347
101328
101328
100926
100926
100926
100927
100929
100931
100933
100935
100938
100942
100946
100951
100956
100962
100970
100978
100987
100998
101009
101020
101030
101036
101035
101018
100984
100964
100986
101033
101079
101120
101160
101205
101253
101303
101350
101392
101427
101457
101477
101486
101482
101471
101456
101442
101429
101417
101405
101393
101382
101372
101362
101348
101331
101326
100926
100926
100926
100927
100929
100931
100933
100935
100938
100942
100946
100951
100956
100962
100970
100978
100987
100998
101009
101020
101030
101036
101034
101017
100982
100964
100989
101034
101079
101119
101161
101206
101254
101303
101350
101392
101427
101457
101478
101487
101484
101473
101458
101444
101431
101419
101406
101394
101384
101374
101362
101348
101326
101332
100919
100919
100920
100921
100922
100923
100925
100927
100930
100933
100936
100940
100945
100951
100958
100966
100975
100986
100999
101014
101028
101038
101034
101001
100919
100881
100916
100983
101042
101087
101131
101180
101235
101292
101349
101403
101451
101489
101514
101522
101513
101495
101475
101457
101440
101424
101408
101394
101382
101371
101361
101349
101330
101328
100919
100919
100920
100921
100922
100923
100925
100927
100930
100933
100936
100940
100945
100951
100958
100966
100975
100986
100999
101014
101028
101038
101033
100997
100912
100879
100923
100988
101043
101087
101131
101180
101235
101292
101349
101403
101452
101490
101517
101523
101513
101496
101477
101460
101442
101425
101408
101394
101382
101372
101361
101348
101327
101328
100912
100913
100913
100914
100914
100915
100917
100918
100920
100923
100926
100929
100933
100938
100945
100952
100961
100973
100988
101007
101033
101060
101075
101015
100831
100733
100820
100932
101002
101045
101091
101146
101208
101274
101343
101411
101475
101525
101562
101568
101549
101520
101493
101470
101448
101427
101408
101393
101380
101369
101358
101347
101329
101330
100912
100913
100913
100914
100914
100915
100917
100918
100920
100923
100926
100929
100933
100938
100945
100952
100961
100973
100988
101007
101033
101061
101075
101012
100811
100738
100831
100933
101001
101045
101091
101146
101208
101274
101343
101408
101475
101525
101579
101581
101553
101518
101489
101466
101445
101425
101407
101392
101379
101369
101358
101347
101331
101327
100905
100906
100906
100906
100907
100907
100908
100909
100911
100913
100915
100917
100921
100925
100930
100936
100945
100956
100971
100994
101031
101096
101162
101156
100596
100486
100655
100883
100972
100997
101038
101100
101169
101244
101325
101410
101493
101552
101621
101630
101588
101534
101496
101472
101448
101424
101403
101388
101375
101365
101355
101346
101332
101329
100905
100906
100906
100906
100907
100907
100908
100909
100911
100913
100915
100917
100921
100925
100930
100936
100945
100956
100971
100994
101031
101095
101159
101143
100519
100560
100713
100890
100968
100999
101042
101102
101169
101243
101328
101415
101505
101537
101617
101631
101583
101527
101493
101471
101447
101423
101403
101387
101374
101364
101355
101346
101334
101327
100898
100898
100898
100899
100899
100899
100900
100900
100901
100902
100903
100905
100907
100910
100913
100918
100925
100934
100946
100966
100995
101043
101161
101444
100438
100634
100856
100937
100941
100970
101031
101104
101188
101286
101393
101509
101553
101631
101686
101629
101547
101498
101470
101443
101417
101396
101379
101366
101355
101347
101339
101332
101324
100898
100898
100898
100899
100899
100899
100900
100900
100901
100902
100903
100905
100907
100910
100913
100918
100925
100934
100946
100966
100995
101042
101158
101432
100403
100652
100863
100938
100946
100977
101035
101106
101190
101278
101403
101519
101517
101512
101658
101616
101545
101499
101469
101440
101414
101394
101378
101366
101355
101347
101340
101333
101324
100891
100891
100891
100891
100891
100891
100891
100891
100891
100891
100891
100891
100892
100893
100895
100898
100901
100906
100913
100922
100930
100928
100889
100817
100529
100535
100811
100957
100954
100920
100922
100957
101011
101090
101193
101304
101432
101473
101543
101728
101669
101577
101509
101461
101423
101396
101376
101361
101349
101340
101334
101330
101327
101320
100891
100891
100891
100891
100891
100891
100891
100891
100891
100891
100891
100891
100892
100893
100895
100898
100901
100906
100913
100922
100930
100927
100887
100806
100522
100591
100844
100957
100945
100917
100925
100962
101013
101081
101136
101298
101317
101561
101500
101538
101569
101546
101504
101459
101422
101394
101375
101361
101350
101341
101335
101330
101327
101321
100884
100884
100884
100883
100883
100882
100882
100881
100880
100879
100879
100878
100877
100876
100876
100876
100876
100876
100876
100875
100868
100850
100817
100751
100681
100690
100832
100907
100909
100898
100892
100895
100912
100966
101122
101284
101269
101490
101783
101611
101574
101544
101484
101427
101386
101362
101348
101337
101330
101325
101323
101321
101322
101318
100884
100884
100884
100883
100883
100882
100882
100881
100880
100879
100879
100878
100877
100876
100876
100876
100876
100876
100876
100874
100868
100850
100816
100751
100678
100699
100833
100899
100901
100891
100889
100895
100909
100941
100985
101199
101022
101447
101903
100977
101385
101519
101487
101433
101389
101363
101348
101337
101330
101325
101323
101322
101322
101318
100877
100877
100877
100876
100875
100874
100873
100871
100870
100868
100866
100864
100862
100859
100856
100853
100850
100846
100840
100832
100820
100801
100775
100736
100689
100681
100726
100775
100805
100822
100828
100822
100806
100796
100892
101152
102182
101468
100652
100938
101404
101505
101449
101386
101345
101327
101317
101311
101308
101308
101310
101314
101319
101317
100877
100877
100877
100876
100875
100874
100873
100871
100870
100868
100866
100864
100862
100859
100856
100853
100850
100846
100840
100832
100820
100801
100774
100736
100689
100684
100726
100772
100801
100817
100824
100820
100809
100730
100862
101168
101695
99833.5
100298
99754.4
100454
101341
101445
101395
101350
101327
101317
101311
101308
101308
101311
101314
101319
101318
100870
100870
100870
100869
100868
100866
100864
100862
100860
100857
100854
100850
100846
100842
100837
100831
100824
100816
100806
100793
100777
100755
100728
100694
100658
100640
100649
100675
100698
100714
100721
100718
100621
100662
100727
99841.2
99388.5
99123.2
99150
99638.3
100481
101259
101370
101307
101282
101278
101277
101278
101282
101288
101296
101304
101313
101315
100870
100870
100870
100869
100867
100866
100864
100862
100860
100857
100854
100850
100846
100842
100837
100831
100824
100816
100806
100793
100777
100755
100728
100694
100658
100641
100651
100676
100697
100711
100722
100725
100729
100738
100671
100308
102466
99752.8
99326.1
99299.6
99888
100778
101290
101312
101278
101273
101276
101279
101283
101288
101296
101304
101314
101317
100864
100863
100863
100862
100860
100858
100856
100853
100850
100846
100842
100837
100831
100825
100817
100809
100799
100787
100773
100756
100736
100711
100681
100648
100615
100592
100584
100585
100587
100594
100600
100630
100394
100603
101075
100710
99135.9
99004.1
99334.1
99655.1
100113
100750
101126
101175
101203
101219
101232
101244
101256
101269
101281
101293
101306
101314
100864
100863
100863
100862
100860
100858
100856
100853
100850
100846
100842
100837
100831
100825
100817
100809
100799
100787
100773
100756
100735
100710
100681
100648
100615
100592
100584
100585
100586
100588
100591
100636
100591
100651
100972
100321
100570
99422
99528.4
99766.6
100266
100741
100987
101113
101191
101219
101232
101245
101258
101269
101281
101293
101306
101313
100858
100857
100856
100855
100853
100851
100848
100844
100840
100836
100830
100824
100816
100808
100799
100788
100775
100760
100742
100721
100697
100668
100635
100599
100563
100530
100502
100480
100461
100460
100483
100729
100527
99702.4
99965.7
100169
99300.2
99222.6
99516.2
99831
100096
100365
100905
101061
101138
101168
101189
101211
101232
101250
101267
101282
101302
101313
100858
100857
100856
100855
100853
100851
100848
100844
100840
100836
100830
100824
100816
100808
100799
100788
100775
100760
100742
100721
100697
100668
100635
100599
100563
100530
100502
100479
100456
100436
100406
100455
100691
99969
96916.8
97768.5
98962.7
99213
99585.6
99935.8
100292
100502
100780
101011
101130
101169
101191
101213
101233
101251
101267
101282
101300
101312
100852
100852
100851
100849
100847
100844
100840
100836
100831
100826
100819
100812
100803
100793
100781
100768
100752
100734
100713
100688
100660
100627
100589
100548
100503
100456
100407
100358
100309
100283
100357
100559
100842
99906.8
98950.3
98957.8
99094.6
99301.9
99448.8
99573.1
99845.2
100135
100608
100965
101086
101125
101152
101182
101210
101233
101252
101271
101294
101307
100852
100852
100851
100849
100847
100844
100840
100836
100831
100826
100819
100812
100803
100793
100781
100768
100752
100734
100713
100688
100660
100627
100589
100548
100503
100456
100407
100357
100300
100253
100174
100415
100607
99944.2
97976.5
98506.7
99045.9
99331.9
99470.3
99591.4
99930.9
100242
100581
100931
101076
101122
101153
101183
101210
101233
101253
101271
101294
101309
100847
100846
100845
100843
100841
100838
100834
100829
100823
100817
100809
100800
100790
100779
100765
100750
100732
100711
100686
100658
100625
100588
100544
100495
100439
100376
100305
100216
100121
99914.6
100140
100113
100562
93829.7
95695.2
98136.1
99088.4
99465.9
99389.9
99280.7
99559.4
100028
100521
100858
101002
101068
101113
101154
101190
101218
101242
101261
101285
101303
100847
100846
100845
100843
100841
100838
100834
100829
100823
100817
100809
100800
100790
100779
100765
100750
100732
100711
100686
100658
100625
100587
100544
100495
100439
100376
100305
100220
100116
99977.4
99875.3
99973.9
98478.7
98245.5
98270.6
98717
99292.9
99560.6
99400.2
99238.6
99570.7
100099
100549
100852
100995
101064
101113
101154
101190
101219
101242
101262
101283
101298
100842
100842
100840
100838
100836
100832
100828
100822
100816
100809
100800
100791
100779
100766
100751
100733
100713
100690
100662
100631
100594
100551
100501
100444
100377
100298
100203
100080
99923.3
99622.5
99184.4
100403
96599.4
94460.1
96569.9
98656
99789.3
100053
99636.4
99277.3
99504.1
99981.5
100430
100741
100906
101011
101077
101131
101175
101209
101237
101259
101283
101297
100842
100842
100840
100838
100836
100832
100828
100822
100816
100809
100800
100791
100779
100766
100751
100733
100713
100690
100662
100631
100594
100551
100501
100444
100377
100298
100203
100091
99932.7
99702.1
99414.1
99101.4
97335.8
95956.9
97707.9
99092.4
99999.1
100154
99643.7
99231.6
99495.5
100052
100492
100744
100900
101004
101075
101131
101175
101208
101238
101262
101284
101298
100838
100838
100836
100834
100831
100827
100822
100817
100810
100802
100793
100782
100770
100755
100738
100719
100697
100671
100641
100606
100566
100518
100463
100397
100320
100226
100111
99966
99770
99499.4
99002.2
98772.6
100251
100195
99831.7
100382
101003
100853
100022
99324.4
99423.3
99880.5
100314
100641
100840
100968
101052
101119
101167
101203
101232
101260
101291
101301
100838
100838
100836
100834
100831
100827
100822
100817
100810
100802
100793
100782
100770
100755
100738
100719
100697
100671
100641
100606
100566
100518
100463
100397
100319
100225
100104
99969
99796.9
99574.6
99292.3
98652.7
97788.3
98443
99507.4
100519
101185
100941
100025
99283.5
99405.1
99929.1
100362
100640
100831
100960
101047
101117
101166
101200
101230
101257
101294
101307
100835
100835
100833
100831
100827
100823
100818
100812
100805
100796
100787
100775
100762
100746
100728
100708
100684
100656
100624
100586
100542
100491
100430
100358
100272
100167
100038
99880.2
99666.8
99395.7
98971.3
98474.1
98822.1
99803.1
99768.7
100301
101064
101020
100209
99316.6
99322.6
99801.5
100292
100618
100807
100937
101039
101115
101164
101197
101223
101251
101286
101302
100835
100835
100833
100831
100827
100823
100818
100812
100805
100796
100787
100775
100762
100746
100728
100708
100684
100656
100624
100586
100542
100491
100430
100358
100271
100161
100036
99880.7
99671.9
99409.3
99177.9
98289.1
98122.2
99018
99741.7
100637
101216
101022
100224
99344.9
99297.9
99808.4
100314
100629
100808
100932
101031
101112
101164
101196
101220
101242
101279
101312
100833
100832
100831
100828
100824
100820
100815
100808
100801
100792
100782
100770
100755
100739
100720
100699
100674
100644
100610
100571
100524
100470
100405
100328
100236
100125
99990.2
99820.4
99600.7
99323.4
98990.6
98496.1
98261.4
98587.8
98167.9
99018.7
99995.8
100433
100249
99687.6
99575.9
99965.3
100401
100706
100840
100951
101053
101124
101169
101196
101217
101229
101249
101296
100833
100832
100831
100828
100824
100820
100815
100808
100801
100792
100782
100770
100755
100739
100720
100699
100674
100644
100610
100571
100524
100470
100405
100328
100236
100125
99996.2
99825.7
99594.1
99313
98961.1
98457
98309.3
98553.5
98964.1
99538.7
99671.4
100014
100073
99759.8
99618.5
99941
100394
100721
100864
100951
101045
101124
101169
101194
101215
101225
101236
101294
100832
100831
100829
100826
100823
100818
100813
100806
100798
100789
100778
100766
100751
100735
100715
100693
100667
100636
100601
100560
100512
100455
100388
100308
100212
100097
99955.9
99781.7
99563.8
99294.2
98984.6
98594.8
98259.7
97817.2
97106.3
97086.1
96535.2
96617.4
97098
98323.4
99250.8
100069
100522
100809
100967
101071
101142
101183
101208
101221
101229
101225
101218
101275
100832
100831
100829
100826
100823
100818
100813
100806
100798
100789
100778
100766
100751
100735
100715
100693
100667
100636
100601
100560
100512
100455
100388
100308
100212
100097
99957.9
99787.9
99564.7
99280.8
98992.8
98616
98258.3
98044.1
97622.3
96895.4
96032.4
96187.2
96824.4
98161.9
99320.4
100076
100519
100806
100965
101072
101141
101184
101205
101218
101233
101231
101215
101271
100830
100830
100828
100825
100822
100817
100812
100805
100797
100788
100777
100764
100749
100732
100712
100690
100663
100632
100596
100554
100505
100447
100379
100297
100200
100082
99938.3
99763
99547.9
99286.9
98980.7
98611.7
98169.5
97725.3
97225.3
96172.3
94314.6
93638.2
94254.6
96109.2
98114.6
99460.7
100191
100587
100877
101076
101165
101199
101217
101227
101226
101220
101208
101247
100830
100830
100828
100825
100822
100817
100812
100805
100797
100788
100777
100764
100749
100732
100712
100690
100663
100632
100596
100554
100505
100447
100379
100297
100200
100082
99939
99765.1
99549.5
99288
98992.6
98662.4
98311.9
97796.5
96786.7
95423.6
94320.1
93807.5
94336.5
96012.1
98034.8
99460.1
100198
100579
100849
101062
101170
101198
101213
101226
101229
101223
101215
101259
100686
101148
100633
101558
101566
100600
100536
100577
100476
100435
100615
101140
100570
101562
101525
100568
100445
100554
100421
100396
101448
100879
100571
100868
100499
100526
100446
100550
100391
100471
100381
101416
100864
100480
100863
100471
100420
100402
100444
100394
100435
100419
100935
101013
100929
101057
100931
101053
100922
100770
100821
100763
100733
100659
100711
100637
100920
101010
100916
101048
100893
101048
100876
100759
100807
100756
100670
100617
100649
100612
101226
101161
101224
101211
101359
101211
101361
100540
100672
100588
100680
100559
100570
100527
100608
100420
100434
100398
100437
101220
101158
101219
101209
101349
101206
101355
100434
100609
100483
100575
100447
100633
100566
100644
100391
100458
100413
100511
101251
101160
101252
101030
101015
101029
101012
100674
101457
101148
101147
100720
100451
100491
100462
100407
100463
100424
100488
100419
100496
101244
101156
101249
101027
101006
101026
101008
100652
101429
101135
100657
101134
100404
100402
100477
100420
100510
100444
100522
100474
100545
100677
100812
100669
100780
100685
100780
100686
100376
100525
100417
100593
100568
100596
100583
100659
100805
100658
100779
100685
100779
100687
100458
100523
100467
100600
100596
100603
100600
101011
100913
100674
100906
101048
101009
100661
100886
100900
100994
101386
101473
101572
101481
101400
101176
101214
101386
101483
101568
101480
101392
101176
101174
100513
100565
100627
100651
100456
100542
100557
100538
100475
100466
100469
100551
100520
100468
100523
100447
100443
100453
100471
100984
100863
100593
100850
100996
100984
100572
100842
100832
100978
101402
101482
101554
101400
101488
101214
101211
101400
101475
101542
101476
101372
101237
101165
100394
100461
100520
100552
100312
100448
100463
100451
100442
100400
100464
100428
100422
100365
100453
100429
100391
100419
100450
100342
100397
100668
101452
101143
101142
100662
100335
100320
100378
100661
100554
100657
100431
100371
100527
100628
100352
100643
100465
100507
100485
100457
100502
100428
100407
100439
100468
100401
100418
100411
100447
100525
100539
100522
100466
100434
100508
100472
100423
100503
100311
100318
100645
101427
101134
101138
100672
100303
100345
100337
100619
100463
100350
100609
100326
100462
100599
100605
100367
100405
100401
100385
100405
100385
100409
100403
100406
100396
100398
100387
100400
100404
100444
100421
100415
100426
100396
100420
100432
100423
100393
101221
101077
101154
101298
101073
101299
101227
101189
101046
101141
101284
101038
101184
101290
101217
101151
101062
101294
101068
101297
101212
100584
100636
100598
100485
100632
100488
100588
100558
100589
100587
100487
100611
100490
100516
101203
101148
101053
101310
101051
101303
101208
100514
100576
100557
100483
100563
100507
100473
100516
100552
100547
100469
100554
100473
100494
100786
100958
100794
100877
100952
100793
100793
100777
100945
100872
100779
100946
100773
100786
100406
100409
100433
100380
100388
100424
100421
100384
100372
100372
100420
100373
100381
100421
100758
100940
100774
100861
100766
100937
100767
100752
100945
100863
100760
100942
100764
100755
100380
100373
100414
100405
100380
100376
100406
100376
100389
100415
100394
100383
100392
100378
100526
100623
100414
100554
100636
100491
100456
100275
100164
100131
100288
100277
100099
100117
100243
100511
100554
100626
100458
100632
100464
100503
100322
100538
100444
100134
100547
100296
100173
100034
99942.4
100079
99913.5
100341
100444
100547
100227
100372
100542
100202
99993.8
99845.1
99880.4
99956.3
101121
100892
100921
100677
100891
101117
100926
101354
101592
101605
101363
101346
101588
101592
101342
101133
100677
100937
100932
100906
100931
101131
100465
100484
101119
100884
100648
100910
100881
101114
100903
101357
101599
101592
101340
101351
101593
101591
101326
101122
100650
100892
100911
101114
100886
100905
100400
100400
100544
100948
100577
101015
100953
100536
100583
100346
100206
100176
100369
100333
100144
100152
100326
100538
101015
100954
100623
100955
100580
100603
100520
100943
100570
101006
100530
100937
100558
100280
100029
100066
100255
100299
100122
100316
100095
100508
101000
100920
100522
100932
100542
100489
101614
101442
101592
101384
101441
101591
101611
101678
101669
101683
101665
101669
101665
101671
101664
101623
101394
101441
101602
101446
101606
101603
101174
101182
101615
101441
101391
101595
101444
101611
101598
101674
101679
101686
101668
101620
101394
101447
101621
101446
101600
101632
101669
101666
101665
101667
101176
101171
100421
100602
100360
100492
100456
100584
100317
100134
99968.6
100107
100004
100153
100063
100195
100028
100401
100465
100550
100263
100387
100558
100288
100549
100551
100499
100525
100508
100545
100531
100510
100496
100511
100542
100551
100510
100500
100519
100492
100538
100507
100546
100536
100522
100534
100515
100508
100498
100476
100481
100514
100504
100498
100503
100486
100488
100466
100463
100461
100472
100472
100485
100480
100469
100490
100479
100464
100471
100496
100478
100481
100447
100880
100992
100507
100897
100424
100512
100217
100007
99994.1
100226
100444
100990
100904
100538
100895
100457
100515
100213
99939.8
99971.2
100191
100375
100859
100510
100980
100384
100856
100509
100159
99976.2
99912.8
100218
100155
99926.4
100169
99904.8
100372
100941
100858
100514
100849
100479
100455
101678
101415
101440
101741
101444
101682
101683
101745
101696
101688
101711
101674
101416
101440
101695
101435
101667
101690
101735
101708
101690
101742
101210
101223
101637
101424
101710
101386
101419
101645
101700
101736
101633
101702
101647
101718
101686
101715
101698
101642
101373
101420
101676
101423
101759
101610
101226
101176
100260
100519
100071
100354
100268
100510
100032
99870.3
99881
99797.7
99941.4
99905.4
99828.7
99927.9
99798.5
100199
100313
100444
99998.6
100472
99995
100210
100455
100460
100428
100453
100450
100440
100456
100445
100424
100445
100457
100456
100445
100443
100455
100474
100461
100454
100465
100451
100430
100420
100423
100430
100387
100361
100427
100450
100436
100452
100461
100422
100437
100427
100410
100412
100432
100424
100413
100417
100415
100431
100443
100458
100445
100461
100438
100432
100348
100343
101119
100892
100917
100667
101115
100891
100919
101340
101588
101335
101585
101344
101589
101340
101590
101121
100665
100887
100918
101117