/*--------------------------------*- C++ -*----------------------------------*\
| =========                 |                                                 |
| \\      /  F ield         | OpenFOAM: The Open Source CFD Toolbox           |
|  \\    /   O peration     | Version:  4.1                                   |
|   \\  /    A nd           | Web:      www.OpenFOAM.org                      |
|    \\/     M anipulation  |                                                 |
\*---------------------------------------------------------------------------*/
FoamFile
{
    version     2.0;
    format      ascii;
    class       surfaceScalarField;
    location    "88";
    object      phi;
}
// * * * * * * * * * * * * * * * * * * * * * * * * * * * * * * * * * * * * * //

dimensions      [0 3 -1 0 0 0 0];

internalField   nonuniform List<scalar> 
11516
(
9.98773e+06
16.9671
9156.32
9.96827e+06
43.0569
19784.9
9.93966e+06
55.7361
28929.2
9.90233e+06
58.0085
37649
9.85622e+06
58.5298
46443.5
9.80106e+06
60.3586
55490
9.73657e+06
59.5185
64839.1
9.66251e+06
57.7659
74434.1
9.57872e+06
61.5721
84167
9.485e+06
61.3041
94129.2
9.38146e+06
63.0021
103950
9.26902e+06
71.0953
112859
9.14955e+06
-26.4102
120008
9.0278e+06
-160.82
122464
8.9142e+06
-1518.19
115709
8.82363e+06
-2408.19
93595
8.77293e+06
-929.238
52338.6
8.77068e+06
-457.852
3262.73
8.77284e+06
44.1264
-1764.68
8.73513e+06
1174.2
36838.3
8.66498e+06
-1107.67
71483
8.56416e+06
-4807.2
105815
8.43912e+06
-7842.61
133054
8.29691e+06
-10399.2
152775
8.13878e+06
-12437.4
170711
7.98354e+06
-14093.8
169445
7.84315e+06
-12015.4
152478
7.72303e+06
-7177
127291
7.62089e+06
-7079.1
109127
7.53156e+06
-12148.9
101335
7.43639e+06
-20542.6
115599
7.30147e+06
-29140.5
164005
7.12864e+06
-28953.6
201806
6.96223e+06
-15729.6
182221
6.84519e+06
28.1724
117086
6.74496e+06
5520.6
94585.1
6.63691e+06
4694.15
102996
6.53552e+06
2277.34
98452.7
6.45489e+06
798.401
79041.5
6.4035e+06
1531.37
49129.9
6.37302e+06
3561.96
26234.7
6.352e+06
5691.62
14690.8
6.33535e+06
6515.83
9553.3
6.3296e+06
7422.37
-2337.7
6.33736e+06
8836.32
-17324.4
6.35699e+06
9760.58
-30100.2
6.38462e+06
12121.7
-40246.7
6.42318e+06
13718
-52461.9
6.46904e+06
13591.3
-59688.3
6.5279e+06
17299.7
-76088.5
6.59992e+06
12666.7
-84657.9
6.66185e+06
6105.52
-67973.3
6.72301e+06
3740.92
-64731.7
5248.57
-64464.8
9.98775e+06
9156.28
9.96826e+06
19789.1
9.93964e+06
28941.5
9.90231e+06
37658.4
9.85619e+06
46444.9
9.80104e+06
55493
9.73656e+06
64831.2
9.6625e+06
74416.5
9.57873e+06
84147
9.48502e+06
94093.9
9.38148e+06
103936
9.26905e+06
112847
9.14919e+06
120200
9.02617e+06
123242
8.90737e+06
117715
8.81149e+06
93956.3
8.76293e+06
48144.3
8.76697e+06
-4127.53
8.77423e+06
-6946.82
8.73876e+06
36829.1
8.66922e+06
68575.8
8.57015e+06
94375.9
8.44594e+06
116479
8.30094e+06
134696
8.13554e+06
153048
7.9705e+06
151005
7.81904e+06
139468
7.68391e+06
127926
7.5644e+06
112353
7.46422e+06
87943.8
7.37464e+06
68953
7.26366e+06
81826
7.11442e+06
120276
6.94501e+06
153687
6.80069e+06
144257
6.6739e+06
132066
6.54444e+06
133777
6.4277e+06
118464
6.33132e+06
96576.7
6.26179e+06
70384.9
6.21365e+06
51223.4
6.17772e+06
41155.9
6.14887e+06
34878.3
6.13594e+06
19846.8
6.14115e+06
3120.5
6.16486e+06
-14420.5
6.2002e+06
-23515.7
6.24587e+06
-32173.7
6.30206e+06
-42618.9
6.38727e+06
-68009.7
6.48939e+06
-89433.2
6.57077e+06
-75149.8
6.64203e+06
-67488.6
-71622.6
1.00059e+07
16.6056
5312.32
1.00118e+07
44.2171
14225.8
1.00179e+07
54.6106
23187.4
1.00237e+07
56.835
32219.2
1.0029e+07
59.7818
41457.8
1.00338e+07
61.5465
51031.1
1.0038e+07
62.9006
61019.8
1.00415e+07
66.2056
71282.9
1.00436e+07
68.881
82469.2
1.00443e+07
77.6037
93869.4
1.00428e+07
79.7723
105826
1.00381e+07
69.1161
117944
1.00283e+07
145.743
130246
1.00096e+07
253.091
141476
9.96878e+06
1776.69
155324
9.89535e+06
2094.8
165513
9.77044e+06
2168.25
175821
9.57833e+06
1226.29
194442
9.36611e+06
-1014.09
211600
9.18083e+06
-1361.55
223560
9.02007e+06
214.806
232091
8.88196e+06
1882.65
242090
8.75596e+06
3218.37
255883
8.63261e+06
4357.82
271799
8.51328e+06
4989.91
285073
8.39244e+06
5698.46
284610
8.26631e+06
6289.65
272342
8.12309e+06
7798.88
262720
7.97012e+06
11576.2
250509
7.81796e+06
14555.3
238909
7.66644e+06
17801
249275
7.52902e+06
21025
280364
7.42083e+06
17429.3
292518
7.33485e+06
6351.64
261781
7.26117e+06
-7572.53
198127
7.18926e+06
-21469.1
187656
7.11422e+06
-29952.4
207472
7.039e+06
-31008.1
204049
6.95518e+06
-27549.5
189894
6.88545e+06
-22515.3
140870
6.83017e+06
-23258
104424
6.77899e+06
-29884.2
95288.7
6.74206e+06
-33371.3
79270.3
6.72302e+06
-34941.8
50978.8
6.71928e+06
-36555.5
22226.3
6.72772e+06
-37067.7
-2245.58
6.74589e+06
-39118.9
-19950.6
6.76855e+06
-41067.9
-34447.1
6.78789e+06
-45460.1
-33840.2
6.8216e+06
-56972.5
-53062.1
6.8597e+06
-38270.1
-84563.2
6.90958e+06
-21974.6
-95812.6
6.97115e+06
-14505.8
-111785
-10803.3
-121371
1.00059e+07
5312.13
1.00118e+07
14226.6
1.00179e+07
23187.7
1.00237e+07
32217.8
1.0029e+07
41454.3
1.00338e+07
51027.9
1.0038e+07
61016.9
1.00415e+07
71277.9
1.00436e+07
82467.9
1.00442e+07
93860.3
1.00427e+07
105817
1.0038e+07
117975
1.00286e+07
130166
1.00108e+07
141628
9.97811e+06
152653
9.91155e+06
163133
9.78209e+06
180231
9.5851e+06
194257
9.36723e+06
209986
9.18205e+06
220701
9.02399e+06
226888
8.88627e+06
234011
8.76163e+06
244362
8.64074e+06
259966
8.52579e+06
273006
8.40952e+06
272996
8.28624e+06
269060
8.15366e+06
268305
8.01901e+06
258574
7.88401e+06
237474
7.73186e+06
238891
7.56876e+06
265900
7.43219e+06
274238
7.34713e+06
244983
7.29015e+06
193454
7.2421e+06
158215
7.1958e+06
149637
7.14515e+06
137602
7.09442e+06
119197
7.0655e+06
76387.3
7.04115e+06
51937.9
7.01222e+06
39729.2
6.99189e+06
21289.9
6.98164e+06
-5419.93
6.98058e+06
-32932.7
6.98568e+06
-57086.9
6.99616e+06
-73519.3
7.00468e+06
-82013.5
7.00687e+06
-90555.2
6.98646e+06
-104676
6.98114e+06
-122383
7.01673e+06
-132716
7.06519e+06
-130423
-158273
9.99928e+06
16.3382
6702.36
9.99425e+06
45.1552
19581.8
9.98522e+06
55.8448
32552.2
9.97217e+06
58.3449
45597.6
9.95514e+06
60.6162
58811.6
9.9342e+06
61.907
72311.7
9.90958e+06
61.4652
85992.2
9.88072e+06
61.8722
100514
9.84845e+06
65.2003
115126
9.81207e+06
71.3256
130647
9.77202e+06
75.8446
146280
9.72796e+06
89.7923
162412
9.67937e+06
118.486
179247
9.6244e+06
255.792
196769
9.56502e+06
333.044
215037
9.4931e+06
853.711
237351
9.40991e+06
704.99
258985
9.32434e+06
1172.76
278989
9.22968e+06
528.422
305810
9.12358e+06
541.963
329186
9.00893e+06
953.627
345840
8.89323e+06
1622.26
356211
8.77853e+06
2575.78
368050
8.66292e+06
4146.47
383298
8.54385e+06
4882.04
399298
8.41752e+06
6233.54
404740
8.27624e+06
8818.99
404855
8.11166e+06
12007
415348
7.92932e+06
14267.6
418631
7.73465e+06
13117.5
420491
7.52626e+06
11345.5
446339
7.32743e+06
14052.3
465108
7.14857e+06
23053.1
448257
6.99573e+06
32302
382094
6.90078e+06
25134.9
267676
6.82092e+06
-806.001
267946
6.72573e+06
-17837.1
320097
6.6222e+06
-18735.7
326002
6.527e+06
-12082.8
296918
6.48223e+06
-3079.84
188604
6.45917e+06
-11193.1
138539
6.43053e+06
-23630.7
147215
6.41016e+06
-28665
127671
6.40792e+06
-29047.3
81594.7
6.4177e+06
-28718.6
40402.9
6.43568e+06
-27943
6871.75
6.46585e+06
-28566.2
-22377.5
6.50832e+06
-29399.3
-48226.1
6.573e+06
-31590.7
-67351.6
6.65075e+06
-27621
-103369
6.70624e+06
-14271.3
-125802
6.75139e+06
-8624.01
-132362
6.78878e+06
-9979.18
-139226
-11461.8
-163510
9.9993e+06
6701.72
9.99425e+06
19579.7
9.98521e+06
32550.7
9.97215e+06
45596
9.95513e+06
58809.7
9.93419e+06
72309.6
9.90957e+06
85990.2
9.8807e+06
100511
9.84842e+06
115122
9.81204e+06
130643
9.77199e+06
146275
9.728e+06
162403
9.67944e+06
179220
9.62502e+06
196720
9.56348e+06
214998
9.4914e+06
236606
9.41218e+06
260596
9.32516e+06
282581
9.23037e+06
305361
9.1259e+06
325762
9.013e+06
340775
8.89918e+06
349498
8.7861e+06
360050
8.66946e+06
380787
8.54951e+06
397868
8.42328e+06
405501
8.28461e+06
416598
8.13056e+06
434418
7.96056e+06
442891
7.76788e+06
443331
7.55631e+06
461800
7.3573e+06
478939
7.19135e+06
463134
7.0703e+06
398122
6.99588e+06
292624
6.91596e+06
236780
6.83324e+06
214084
6.74858e+06
203304
6.66627e+06
189459
6.62054e+06
118982
6.58845e+06
72684.5
6.54678e+06
57326.9
6.52071e+06
18015
6.51151e+06
-25907.4
6.51352e+06
-64226.5
6.52481e+06
-96913.4
6.54766e+06
-125464
6.58333e+06
-147543
6.62954e+06
-168680
6.69037e+06
-193239
6.7411e+06
-187405
6.78157e+06
-181833
6.82038e+06
-179262
-217044
9.9989e+06
15.8027
8545.83
9.99387e+06
43.0368
24942.2
9.98502e+06
54.3085
41717.4
9.97222e+06
56.8901
58715.6
9.95534e+06
58.8243
76015.6
9.93444e+06
60.1572
93546.3
9.90876e+06
59.8278
112014
9.87874e+06
60.7317
130900
9.84396e+06
65.0695
150291
9.80436e+06
71.8763
170638
9.75943e+06
77.8794
191610
9.70857e+06
87.5141
213679
9.65147e+06
94.0993
236781
9.58776e+06
155.28
260905
9.51602e+06
182.611
287246
9.43702e+06
672.404
316446
9.34654e+06
381.38
349747
9.24997e+06
317.78
375561
9.16079e+06
461.616
394641
9.07374e+06
879.273
415442
8.98094e+06
1242.09
437491
8.88058e+06
1293.92
455365
8.7681e+06
1193.18
479431
8.64426e+06
1530.78
505669
8.50967e+06
1116.47
532837
8.35991e+06
1060.63
553518
8.18744e+06
2856.34
574562
7.98458e+06
4491.35
613815
7.74559e+06
3266.22
654445
7.48039e+06
2995.26
682769
7.22409e+06
3911.56
698761
7.00039e+06
6488.66
682298
6.81738e+06
12579.8
618630
6.71019e+06
22033
467167
6.69666e+06
19942.8
261154
6.66026e+06
-18175
322334
6.55807e+06
-42289.7
464357
6.43043e+06
-45899.6
499636
6.30031e+06
-41714.9
469044
6.2432e+06
-16040.3
261874
6.21535e+06
-11217.8
177599
6.18878e+06
-19680.9
193257
6.17034e+06
-21098.1
166458
6.17214e+06
-18974.3
97927.4
6.18674e+06
-16936.9
41865.8
6.21086e+06
-15024.2
-3320.22
6.24409e+06
-14084.5
-42640.3
6.28961e+06
-12672.6
-81961.4
6.35532e+06
-11314.5
-122322
6.43104e+06
-22067.7
-157250
6.5157e+06
-23340.6
-187174
6.59554e+06
-19302.5
-193016
6.67501e+06
-17906.6
-200822
-9666.22
-206466
9.99892e+06
8546.12
9.99386e+06
24942.3
9.98501e+06
41714.9
9.97221e+06
58712.4
9.95533e+06
76012.2
9.93443e+06
93542.5
9.90875e+06
112010
9.87872e+06
130896
9.84393e+06
150286
9.80434e+06
170633
9.75942e+06
191606
9.70858e+06
213671
9.65148e+06
236776
9.58791e+06
260854
9.5164e+06
287169
9.43812e+06
316094
9.34984e+06
349732
9.25216e+06
380813
9.16261e+06
395473
9.07602e+06
413303
8.98346e+06
434654
8.8814e+06
452943
8.76642e+06
476296
8.64224e+06
506546
8.50815e+06
533126
8.35539e+06
559381
8.17838e+06
596530
7.97463e+06
642724
7.7409e+06
679957
7.4851e+06
702174
7.24273e+06
708090
7.03243e+06
695719
6.85372e+06
654361
6.73297e+06
540798
6.70201e+06
343343
6.65196e+06
268296
6.57661e+06
246993
6.47564e+06
258611
6.37579e+06
247906
6.31835e+06
160585
6.27613e+06
103634
6.23681e+06
76671.4
6.20945e+06
23614.8
6.2025e+06
-38560.4
6.21137e+06
-90651.6
6.23428e+06
-135523
6.26983e+06
-175720
6.32195e+06
-212885
6.3816e+06
-240041
6.45893e+06
-292797
6.53526e+06
-287133
6.60883e+06
-274775
6.69179e+06
-280217
-294670
9.99892e+06
15.6917
10369.2
9.99396e+06
43.4318
30214.4
9.9853e+06
53.6617
50682.4
9.97279e+06
55.6298
71536.6
9.95631e+06
57.3442
92802.3
9.93576e+06
58.7137
114420
9.91099e+06
58.5016
137110
9.88206e+06
59.2827
160188
9.84835e+06
63.2425
184360
9.80984e+06
68.9885
209535
9.76622e+06
74.3453
235616
9.71717e+06
77.667
263132
9.66267e+06
87.2585
291695
9.60184e+06
96.9701
322194
9.53454e+06
185.98
355009
9.46084e+06
221.692
390726
9.37893e+06
961.291
431594
9.27895e+06
1159.72
475113
9.17299e+06
1000.94
499855
9.07102e+06
1207.91
516434
8.97169e+06
1987.57
535027
8.86531e+06
1628.22
560330
8.74299e+06
396.444
601506
8.60141e+06
-442.794
647809
8.44171e+06
-2833.69
695472
8.25412e+06
-3901.92
745126
8.03736e+06
-1595.89
793029
7.79536e+06
424.892
855490
7.53252e+06
-1042.25
918421
7.26704e+06
-1798.29
950115
7.02568e+06
111.268
940058
6.81545e+06
4625.2
887941
6.64917e+06
10758.9
774189
6.56131e+06
22853.2
532180
6.60155e+06
48994.9
171926
6.50777e+06
-46609.5
462539
6.38458e+06
-140141
727259
6.23447e+06
-157002
806708
6.08182e+06
-158369
780095
6.02197e+06
-102694
424479
5.99687e+06
-45160.2
247852
5.97006e+06
-39865.7
259699
5.97781e+06
-31085.3
189070
5.98678e+06
-29880.2
117957
6.00508e+06
-30630.4
53290.5
6.03607e+06
-29864.9
-5428.43
6.07887e+06
-29004.7
-57355.6
6.13244e+06
-29581.5
-106727
6.18715e+06
-26488.8
-150905
6.2477e+06
-36576.9
-181636
6.31358e+06
-37200.7
-216286
6.38598e+06
-29775
-235866
6.45768e+06
-28081.4
-244726
-18291.8
-232681
9.99894e+06
10368.3
9.99395e+06
30210.9
9.98529e+06
50679.6
9.97278e+06
71533.9
9.9563e+06
92799.2
9.93575e+06
114416
9.91098e+06
137106
9.88204e+06
160184
9.84833e+06
184356
9.80981e+06
209531
9.7662e+06
235613
9.71716e+06
263128
9.66269e+06
291689
9.60186e+06
322173
9.53472e+06
354969
9.46093e+06
390663
9.38083e+06
431391
9.28751e+06
475776
9.18232e+06
501998
9.07778e+06
519321
8.97465e+06
539984
8.86029e+06
569131
8.73176e+06
605373
8.59068e+06
647273
8.42806e+06
692991
8.23578e+06
747842
8.02487e+06
805923
7.79392e+06
874162
7.54362e+06
929281
7.28856e+06
955487
7.05365e+06
943163
6.85314e+06
900896
6.70456e+06
813727
6.64055e+06
627695
6.66645e+06
366438
6.64354e+06
244393
6.53311e+06
216972
6.39015e+06
244363
6.24679e+06
232823
6.17322e+06
131319
6.13016e+06
101457
6.09691e+06
69768.8
6.09006e+06
-1183.92
6.10162e+06
-80590.7
6.12736e+06
-147593
6.16614e+06
-204741
6.21454e+06
-253687
6.26536e+06
-293803
6.31728e+06
-318878
6.346e+06
-358470
6.3789e+06
-357412
6.43514e+06
-361096
6.49105e+06
-364416
-353429
9.99895e+06
14.8771
12135.6
9.99409e+06
39.7991
35368.8
9.98568e+06
50.4641
59397.1
9.97357e+06
52.9346
83939.8
9.95777e+06
54.8494
108905
9.93785e+06
56.3042
134648
9.91397e+06
56.1492
161310
9.88586e+06
56.953
188639
9.85332e+06
60.8268
217263
9.8163e+06
66.5511
246925
9.77418e+06
71.5944
278118
9.7271e+06
74.7038
310615
9.67464e+06
80.3943
344568
9.61668e+06
86.3107
380610
9.55352e+06
131.978
418695
9.48527e+06
205.112
459546
9.41423e+06
630.226
503013
9.3363e+06
1446.56
552662
9.24128e+06
2155.89
593545
9.12984e+06
1847.39
626803
9.00747e+06
2174.25
655910
8.87553e+06
506.652
692402
8.74245e+06
-1429.39
736295
8.59542e+06
-2807.68
797850
8.41709e+06
-6108.64
880089
8.19522e+06
-6121.89
973320
7.93831e+06
-2443.48
1.05256e+06
7.67542e+06
1889.98
1.11663e+06
7.41489e+06
2012
1.17705e+06
7.16053e+06
1272.9
1.20331e+06
6.91996e+06
3028.75
1.17772e+06
6.69445e+06
9492.35
1.10409e+06
6.47275e+06
21836.9
974170
6.23388e+06
80315.2
690798
5.81032e+06
338867
256720
5.33948e+06
220423
712646
5.08698e+06
47964.1
930785
5.1318e+06
-56508.8
817048
5.28773e+06
-156130
779411
5.41504e+06
-198344
495016
5.47464e+06
-116195
304238
5.54395e+06
-92108.9
281970
5.58296e+06
-55950.1
205237
5.62541e+06
-55790.5
130505
5.6734e+06
-56743.2
61291.2
5.72266e+06
-54269.9
-1176.4
5.77166e+06
-48606.7
-58570.3
5.82394e+06
-44898
-114938
5.87154e+06
-36955.1
-162412
5.90938e+06
-18481.2
-201959
5.93615e+06
-5825.24
-237945
5.96291e+06
5858.58
-269319
5.98042e+06
18401.6
-281092
36981.7
-301783
9.99897e+06
12136
9.99409e+06
35369.2
9.98567e+06
59393.8
9.97356e+06
83935.6
9.95776e+06
108900
9.93784e+06
134643
9.91396e+06
161305
9.88584e+06
188633
9.85329e+06
217258
9.81628e+06
246919
9.77416e+06
278113
9.72709e+06
310609
9.67464e+06
344560
9.61669e+06
380598
9.55357e+06
418683
9.48557e+06
459436
9.41527e+06
503015
9.3431e+06
550207
9.25454e+06
593526
9.14471e+06
631713
9.0199e+06
667553
8.88419e+06
705873
8.74009e+06
748405
8.58123e+06
803469
8.39469e+06
873557
8.17357e+06
962961
7.93715e+06
1.04e+06
7.69193e+06
1.12135e+06
7.43825e+06
1.18505e+06
7.18766e+06
1.20743e+06
6.95707e+06
1.17686e+06
6.75624e+06
1.11131e+06
6.58709e+06
1.00477e+06
6.48014e+06
815092
6.71555e+06
470034
6.85844e+06
321481
6.7922e+06
330297
6.67684e+06
302406
6.53758e+06
215228
6.29214e+06
177835
6.1011e+06
175911
6.02693e+06
51247.6
6.02353e+06
-54358.2
6.00928e+06
-122712
5.98281e+06
-178425
5.9515e+06
-228274
5.91921e+06
-270627
5.88466e+06
-304837
5.85676e+06
-328644
5.8334e+06
-354217
5.82864e+06
-359105
5.82508e+06
-352198
5.81373e+06
-334996
-309478
9.99899e+06
14.6829
13836.5
9.99433e+06
40.5971
40321
9.98627e+06
49.9956
67738.7
9.9747e+06
51.7956
95791.4
9.95961e+06
53.4081
124288
9.94055e+06
54.7528
154000
9.91767e+06
54.6849
184494
9.89069e+06
55.6091
215943
9.85961e+06
59.4957
248692
9.8236e+06
65.0656
283285
9.78323e+06
69.7011
318855
9.73791e+06
72.7337
356314
9.6874e+06
75.4434
395482
9.63197e+06
84.7899
436479
9.57176e+06
105.922
479419
9.50741e+06
186.865
524465
9.43957e+06
318.915
571507
9.37129e+06
815.552
621265
9.29568e+06
798.03
669688
9.20636e+06
-26.2639
717558
9.09718e+06
-83.2323
766727
8.96196e+06
-748.079
829713
8.81113e+06
-1994.95
889914
8.65356e+06
-5404.02
961121
8.46986e+06
-9696.98
1.07372e+06
8.2388e+06
-10424.4
1.21502e+06
7.96363e+06
-1580.76
1.32951e+06
7.67304e+06
6256.51
1.40113e+06
7.3905e+06
5565.17
1.45415e+06
7.11947e+06
3361.33
1.47109e+06
6.8673e+06
6661.14
1.42335e+06
6.6183e+06
14220.6
1.33897e+06
6.28055e+06
38220.6
1.27375e+06
5.4018e+06
220217
1.34935e+06
4.39156e+06
307553
959347
4.3688e+06
10576.4
724808
4.35604e+06
43345.1
899169
4.16903e+06
134672
867429
4.20263e+06
68251.1
675512
4.32449e+06
-50733.8
421973
4.52224e+06
-54548.5
159507
4.65791e+06
31634.2
112925
4.71702e+06
70824.1
73656.2
4.7631e+06
75902.3
7002.12
4.7981e+06
84346.3
-59512.1
4.81559e+06
100411
-120555
4.81709e+06
118949
-180527
4.80626e+06
136821
-242378
4.79476e+06
153406
-305813
4.79156e+06
168384
-368420
4.80505e+06
174869
-427728
4.84781e+06
175305
-488498
4.91746e+06
176183
-527757
157163
-611925
9.99901e+06
13835.2
9.99433e+06
40316
9.98626e+06
67734.6
9.97469e+06
95787.4
9.95959e+06
124283
9.94054e+06
153995
9.91766e+06
184488
9.89068e+06
215937
9.85958e+06
248686
9.82358e+06
283279
9.78322e+06
318850
9.7379e+06
356308
9.6874e+06
395476
9.63198e+06
436468
9.57181e+06
479409
9.50759e+06
524392
9.44016e+06
571445
9.37172e+06
620285
9.29744e+06
669535
9.21077e+06
719369
9.10697e+06
772334
8.97975e+06
833410
8.82072e+06
906198
8.64691e+06
972154
8.44537e+06
1.0656e+06
8.20714e+06
1.19092e+06
7.95105e+06
1.29464e+06
7.6899e+06
1.38884e+06
7.42201e+06
1.45859e+06
7.15707e+06
1.47581e+06
6.91306e+06
1.42761e+06
6.69721e+06
1.34142e+06
6.48617e+06
1.25404e+06
6.29932e+06
1.22211e+06
5.64716e+06
1.42909e+06
4.73297e+06
1.24563e+06
4.26874e+06
836493
4.1782e+06
526056
4.11085e+06
349218
4.03898e+06
197397
4.0387e+06
120165
4.04413e+06
76031.4
4.05816e+06
1117.15
4.08114e+06
-71033
4.11357e+06
-127711
4.15481e+06
-170335
4.20429e+06
-202416
4.26174e+06
-226709
4.33045e+06
-245093
4.4048e+06
-261308
4.49289e+06
-273398
4.59633e+06
-281305
4.71798e+06
-281105
-283715
9.99905e+06
13.4682
15434.9
9.99464e+06
35.586
44995.3
9.98703e+06
45.3745
75618.2
9.9761e+06
47.705
106986
9.96174e+06
49.5037
138924
9.9438e+06
50.9061
172218
9.92231e+06
50.8955
206269
9.89659e+06
51.8114
241968
9.86672e+06
55.6277
278893
9.83276e+06
60.9276
317587
9.79397e+06
65.4408
357996
9.75045e+06
68.0093
400198
9.70207e+06
70.5294
444248
9.64873e+06
78.2809
490250
9.5908e+06
93.1474
537858
9.52861e+06
140.784
587267
9.46294e+06
181.365
637892
9.39506e+06
290.513
689972
9.32312e+06
5.37193
742851
9.24529e+06
-537.199
797319
9.15784e+06
-976.463
856554
9.05929e+06
-388.854
930218
8.93227e+06
534.69
1.01778e+06
8.77529e+06
-3916.85
1.1228e+06
8.5985e+06
-10831
1.26164e+06
8.39854e+06
-13096.5
1.42828e+06
8.15647e+06
-2645.22
1.57451e+06
7.84458e+06
10236.1
1.70321e+06
7.49602e+06
13385.5
1.78969e+06
7.16468e+06
4659.14
1.79807e+06
6.89405e+06
4614.53
1.68949e+06
6.66592e+06
8557.93
1.55854e+06
6.45079e+06
8499.8
1.48029e+06
6.22367e+06
72396.8
1.50339e+06
4.99018e+06
274350
1.91692e+06
3.83737e+06
317985
1.55857e+06
3.27831e+06
276619
1.17911e+06
3.09574e+06
234949
811955
2.9827e+06
213821
571175
2.85615e+06
184085
360622
2.72427e+06
152983
134478
2.70916e+06
152345
-28074.7
2.74553e+06
159704
-125792
2.81099e+06
160526
-222111
2.91997e+06
156386
-327815
3.07847e+06
149659
-431547
3.28407e+06
140324
-529125
3.52979e+06
128935
-619445
3.80671e+06
115545
-700365
4.1052e+06
101409
-770263
4.41927e+06
86245.7
-829807
4.73982e+06
70878.5
-881579
5.07862e+06
54348
-921998
33847.3
-971777
9.99907e+06
15435.4
9.99464e+06
44995.9
9.98702e+06
75614.3
9.97609e+06
106981
9.96173e+06
138919
9.94379e+06
172213
9.9223e+06
206263
9.89658e+06
241962
9.8667e+06
278887
9.83274e+06
317581
9.79396e+06
357990
9.75044e+06
400191
9.70207e+06
444240
9.64874e+06
490238
9.59083e+06
537844
9.52867e+06
587228
9.4631e+06
637845
9.39465e+06
689790
9.32228e+06
742775
9.2445e+06
797538
9.15885e+06
857999
9.06359e+06
929316
8.94473e+06
1.02657e+06
8.78544e+06
1.12812e+06
8.58591e+06
1.25473e+06
8.35696e+06
1.40699e+06
8.08659e+06
1.56274e+06
7.80686e+06
1.67902e+06
7.52608e+06
1.75291e+06
7.22999e+06
1.77671e+06
6.94163e+06
1.72065e+06
6.69896e+06
1.5926e+06
6.4699e+06
1.49122e+06
6.24653e+06
1.51684e+06
6.2213e+06
1.72743e+06
5.95998e+06
1.82379e+06
5.4817e+06
1.5901e+06
5.0247e+06
1.21649e+06
4.67628e+06
909757
4.39333e+06
662681
4.19834e+06
466416
4.10807e+06
316991
4.07633e+06
190979
4.08041e+06
83874.8
4.1158e+06
-8251.38
4.18212e+06
-88541
4.2765e+06
-157983
4.39529e+06
-217947
4.53409e+06
-269587
4.68865e+06
-315624
4.85622e+06
-355850
5.03896e+06
-394116
5.22989e+06
-418229
-455395
9.99912e+06
13.2007
16927.3
9.99502e+06
36.7453
49348.8
9.98794e+06
45.1092
82948.4
9.97777e+06
46.771
117405
9.96439e+06
48.3058
152559
9.94765e+06
49.5914
189224
9.92736e+06
49.6139
226835
9.90342e+06
50.6277
266201
9.87529e+06
54.4564
307334
9.84299e+06
59.764
350211
9.80637e+06
64.1794
394949
9.76479e+06
66.6398
442125
9.71826e+06
69.0605
491147
9.667e+06
74.6056
541913
9.61082e+06
87.3302
594523
9.55036e+06
111.398
648316
9.48592e+06
136.142
703035
9.41867e+06
165.213
758068
9.34932e+06
108.839
813202
9.27802e+06
8.43821
869826
9.20492e+06
-137.381
931024
9.13073e+06
284.267
1.00545e+06
9.04643e+06
1165.93
1.10229e+06
8.92859e+06
6745.46
1.23506e+06
8.77445e+06
3136.37
1.41324e+06
8.61058e+06
-4046.36
1.59645e+06
8.42253e+06
-5385.72
1.76866e+06
8.17424e+06
-461.087
1.9529e+06
7.85551e+06
12484.5
2.09671e+06
7.46487e+06
20011.7
2.16921e+06
7.037e+06
16716.2
2.10078e+06
6.64846e+06
3505.62
1.94345e+06
6.34123e+06
-355.023
1.78735e+06
6.12722e+06
5111.73
1.71096e+06
6.01995e+06
102253
1.92056e+06
5.50886e+06
121247
1.94705e+06
4.87804e+06
90208.7
1.71825e+06
4.29719e+06
77502.1
1.31342e+06
3.86534e+06
76708.1
923995
3.58896e+06
66721.9
567678
3.43841e+06
42236.1
240067
3.41917e+06
21230.6
-32652.2
3.52775e+06
9333.47
-245999
3.72834e+06
-2707.43
-422048
3.9888e+06
-16311.5
-573893
4.28463e+06
-28693.6
-700517
4.594e+06
-38641.4
-801484
4.90167e+06
-48119
-880316
5.1984e+06
-58018.3
-940074
5.47861e+06
-68150.4
-983172
5.73778e+06
-77816.2
-1.01202e+06
5.9766e+06
-88906.3
-1.03226e+06
6.19412e+06
-97730.5
-1.04227e+06
-114830
-1.04955e+06
9.99914e+06
16925.7
9.99502e+06
49342.5
9.98793e+06
82943.1
9.97776e+06
117400
9.96438e+06
152553
9.94764e+06
189218
9.92735e+06
226828
9.9034e+06
266194
9.87527e+06
307327
9.84297e+06
350204
9.80635e+06
394942
9.76478e+06
442118
9.71825e+06
491138
9.667e+06
541902
9.61083e+06
594509
9.55037e+06
648295
9.48594e+06
703013
9.41858e+06
758010
9.34908e+06
813159
9.27763e+06
869801
9.20499e+06
931355
9.13097e+06
1.00451e+06
9.05674e+06
1.10287e+06
8.96136e+06
1.23117e+06
8.81511e+06
1.40482e+06
8.62481e+06
1.5938e+06
8.37454e+06
1.80832e+06
8.07565e+06
1.97786e+06
7.76812e+06
2.07316e+06
7.45121e+06
2.11376e+06
7.09515e+06
2.09337e+06
6.70724e+06
1.98357e+06
6.33058e+06
1.86678e+06
6.03152e+06
1.82012e+06
5.99414e+06
1.86623e+06
6.03036e+06
1.908e+06
5.94052e+06
1.76924e+06
5.74281e+06
1.49061e+06
5.5335e+06
1.19453e+06
5.35015e+06
911419
5.2119e+06
645559
5.13533e+06
413512
5.11588e+06
218538
5.14208e+06
53785.2
5.20325e+06
-86888.2
5.29202e+06
-207086
5.40385e+06
-309374
5.53244e+06
-395346
5.67007e+06
-465722
5.81034e+06
-524435
5.94626e+06
-569971
6.08116e+06
-618292
6.19734e+06
-632298
-716668
9.9992e+06
11.7047
18277.7
9.99547e+06
30.5233
53310.9
9.98901e+06
39.2311
89635.1
9.97972e+06
41.4209
126922
9.96748e+06
43.0804
165037
9.95211e+06
44.3471
204834
9.93343e+06
44.3295
245768
9.9112e+06
45.3027
288698
9.88515e+06
48.9722
333672
9.85499e+06
54.1931
380684
9.82037e+06
58.2144
429878
9.78109e+06
60.5985
481731
9.73676e+06
62.2744
535816
9.68709e+06
67.1023
591962
9.63237e+06
78.0152
649698
9.57271e+06
94.9692
708530
9.50901e+06
121.006
767413
9.44234e+06
138.546
825480
9.37492e+06
157.628
881479
9.30988e+06
91.5636
935795
9.2517e+06
70.598
990212
9.20328e+06
-347.904
1.05523e+06
9.16254e+06
67.6738
1.14387e+06
9.11196e+06
7602.3
1.27917e+06
9.01128e+06
15618
1.49914e+06
8.85222e+06
11674.3
1.74452e+06
8.63594e+06
785.089
1.98505e+06
8.39569e+06
-4073.34
2.19778e+06
8.13418e+06
1282.87
2.35715e+06
7.83073e+06
8545.3
2.46409e+06
7.43019e+06
6436.39
2.49465e+06
6.93217e+06
744.909
2.44028e+06
6.4351e+06
3861.06
2.28011e+06
6.01409e+06
-4753.44
2.13611e+06
5.86101e+06
11555.7
2.06134e+06
5.76316e+06
19931.5
2.02422e+06
5.59085e+06
28236.5
1.86136e+06
5.33145e+06
24156.1
1.54738e+06
5.08375e+06
6881.69
1.1632e+06
4.91226e+06
-23563.2
760856
4.83763e+06
-60397.5
373142
4.8586e+06
-91702
36189.9
4.95947e+06
-113059
-235419
5.11331e+06
-129686
-447585
5.2947e+06
-141910
-614608
5.48552e+06
-148935
-743409
5.67254e+06
-151566
-837640
5.84725e+06
-152507
-902818
6.00588e+06
-153848
-944852
6.14916e+06
-157095
-969226
6.2748e+06
-160363
-977231
6.39226e+06
-169865
-979975
6.48188e+06
-167682
-964332
-195574
-976345
9.99921e+06
18278.3
9.99546e+06
53311.8
9.989e+06
89630.9
9.97971e+06
126916
9.96747e+06
165031
9.9521e+06
204828
9.93342e+06
245761
9.91119e+06
288691
9.88514e+06
333665
9.85497e+06
380678
9.82035e+06
429871
9.78108e+06
481724
9.73675e+06
535807
9.68709e+06
591951
9.63238e+06
649685
9.57272e+06
708515
9.50901e+06
767392
9.44235e+06
825447
9.37487e+06
881465
9.30975e+06
935724
9.2511e+06
990774
9.20171e+06
1.05425e+06
9.16345e+06
1.14192e+06
9.128e+06
1.27495e+06
9.06162e+06
1.48757e+06
8.91473e+06
1.75306e+06
8.69899e+06
2.02535e+06
8.43068e+06
2.24234e+06
8.12306e+06
2.38212e+06
7.78612e+06
2.45917e+06
7.40399e+06
2.48167e+06
6.95124e+06
2.43673e+06
6.47275e+06
2.34876e+06
6.03823e+06
2.24946e+06
5.7635e+06
2.15201e+06
5.66047e+06
2.03039e+06
5.63098e+06
1.82623e+06
5.60441e+06
1.54041e+06
5.58464e+06
1.22009e+06
5.57901e+06
892329
5.58757e+06
575445
5.61586e+06
292418
5.6661e+06
54240.2
5.73296e+06
-143663
5.81203e+06
-308672
5.89796e+06
-442586
5.98419e+06
-547585
6.0643e+06
-628123
6.13453e+06
-689769
6.19563e+06
-742574
6.25234e+06
-787060
6.32288e+06
-858757
6.39811e+06
-875260
-1.11297e+06
9.99929e+06
11.4282
19486.9
9.99598e+06
32.0401
56845.2
9.99023e+06
39.2179
95592.7
9.98195e+06
40.7491
135416
9.971e+06
42.2049
176201
9.95722e+06
43.4147
218841
9.94018e+06
43.5072
263041
9.92003e+06
44.6329
309108
9.89647e+06
48.4504
357504
9.86873e+06
53.6712
408706
9.83643e+06
57.7081
462478
9.79952e+06
59.8196
518943
9.75728e+06
61.0854
578369
9.70962e+06
65.2573
639973
9.65588e+06
74.4906
703858
9.59645e+06
90.354
768481
9.53173e+06
110.611
832739
9.46352e+06
125.783
894379
9.39497e+06
141.715
950783
9.33221e+06
113.412
999347
9.28442e+06
106.272
1.03881e+06
9.26315e+06
205.638
1.07697e+06
9.2708e+06
1196.57
1.13558e+06
9.30717e+06
3090.34
1.24038e+06
9.28668e+06
9838.6
1.51072e+06
9.13253e+06
10416.6
1.88907e+06
8.87969e+06
2285.09
2.23611e+06
8.5925e+06
-2601.27
2.48778e+06
8.29644e+06
-2076
2.65525e+06
7.98855e+06
83.8442
2.77168e+06
7.63907e+06
-1482.06
2.84531e+06
7.22164e+06
-5521.99
2.86303e+06
6.72165e+06
-14234.5
2.79417e+06
6.20835e+06
-18526.5
2.66773e+06
5.79665e+06
-15922.8
2.48864e+06
5.55664e+06
-6631.02
2.27038e+06
5.42594e+06
3208.45
1.98819e+06
5.33523e+06
4325.08
1.63288e+06
5.27756e+06
-5964.25
1.22568e+06
5.26702e+06
-27272.6
797292
5.30476e+06
-53481.7
387369
5.38144e+06
-77424.4
35420.4
5.48351e+06
-95674.7
-243187
5.60011e+06
-108139
-457255
5.72095e+06
-115175
-621302
5.83769e+06
-119317
-741634
5.94506e+06
-122753
-822770
6.04197e+06
-128196
-871721
6.13045e+06
-136999
-896258
6.21697e+06
-150135
-905429
6.30487e+06
-161721
-903297
6.41258e+06
-180148
-907447
6.50318e+06
-164428
-890435
-206322
-942061
9.99931e+06
19485
9.99597e+06
56838
9.99022e+06
95586.5
9.98194e+06
135410
9.97099e+06
176195
9.95721e+06
218834
9.94017e+06
263033
9.92001e+06
309100
9.89645e+06
357496
9.86871e+06
408698
9.83641e+06
462470
9.79951e+06
518933
9.75727e+06
578359
9.70962e+06
639960
9.65589e+06
703844
9.59645e+06
768464
9.53174e+06
832721
9.46352e+06
894359
9.39494e+06
950786
9.33212e+06
999288
9.2841e+06
1.03953e+06
9.26296e+06
1.07616e+06
9.27667e+06
1.12985e+06
9.31577e+06
1.23945e+06
9.30248e+06
1.51128e+06
9.16059e+06
1.90579e+06
8.92866e+06
2.25983e+06
8.6561e+06
2.51237e+06
8.35617e+06
2.67991e+06
8.02264e+06
2.79263e+06
7.64564e+06
2.85703e+06
7.21087e+06
2.86585e+06
6.72757e+06
2.81774e+06
6.24066e+06
2.71772e+06
5.81379e+06
2.56277e+06
5.49902e+06
2.33822e+06
5.29763e+06
2.03039e+06
5.18982e+06
1.65197e+06
5.16447e+06
1.23876e+06
5.2077e+06
820947
5.2913e+06
437378
5.39125e+06
114015
5.49414e+06
-145305
5.59296e+06
-351505
5.68145e+06
-513080
5.75415e+06
-635163
5.81399e+06
-730499
5.87483e+06
-817267
5.96022e+06
-912106
6.09684e+06
-1.02922e+06
6.31901e+06
-1.17083e+06
6.63939e+06
-1.35917e+06
7.10269e+06
-1.50289e+06
-1.90538e+06
9.99939e+06
9.73418
20514.8
9.99655e+06
24.8846
59874.5
9.99161e+06
32.3695
100719
9.98447e+06
34.4119
142744
9.97479e+06
35.943
186071
9.96299e+06
37.0605
230841
9.94825e+06
37.0333
277991
9.93049e+06
37.9557
327098
9.90916e+06
41.5255
379082
9.88425e+06
46.2723
433871
9.85507e+06
50.0398
491932
9.82085e+06
51.2763
553431
9.78126e+06
52.1488
618237
9.73524e+06
55.0175
686297
9.68254e+06
63.4924
756935
9.62251e+06
78.4318
828980
9.55503e+06
94.6319
900772
9.48133e+06
117.398
968731
9.40493e+06
117.283
1.02786e+06
9.33445e+06
185.195
1.07049e+06
9.28625e+06
232.265
1.08755e+06
9.28247e+06
1440.37
1.08009e+06
9.36566e+06
3666.16
1.04914e+06
9.56075e+06
4920.51
1.04108e+06
9.62038e+06
10808.7
1.44088e+06
9.44439e+06
9845.11
2.05558e+06
9.13886e+06
1353.49
2.54049e+06
8.79111e+06
-1956
2.83752e+06
8.44386e+06