/*--------------------------------*- C++ -*----------------------------------*\
| =========                 |                                                 |
| \\      /  F ield         | OpenFOAM: The Open Source CFD Toolbox           |
|  \\    /   O peration     | Version:  4.1                                   |
|   \\  /    A nd           | Web:      www.OpenFOAM.org                      |
|    \\/     M anipulation  |                                                 |
\*---------------------------------------------------------------------------*/
FoamFile
{
    version     2.0;
    format      ascii;
    class       volScalarField;
    location    "42";
    object      omega;
}
// * * * * * * * * * * * * * * * * * * * * * * * * * * * * * * * * * * * * * //

dimensions      [0 0 -1 0 0 0 0];

internalField   nonuniform List<scalar> 
4432
(
0.0110863
0.011454
0.0117973
0.0121543
0.012493
0.0128348
0.0131694
0.013494
0.0138221
0.0141312
0.0144508
0.0147477
0.0150556
0.0153423
0.0156343
0.0159076
0.0161781
0.0164299
0.0166725
0.0168876
0.0171032
0.0172857
0.0175064
0.0176806
0.0179178
0.0180938
0.0183422
0.0185353
0.0187624
0.018972
0.0191716
0.0193359
0.019525
0.0196473
0.0198401
0.0200389
0.0204049
0.0211251
0.0218833
0.022268
0.022808
0.0234179
0.0240865
0.0246402
0.0252282
0.0256394
0.0264466
0.02697
0.0277134
0.0281162
0.0290038
0.0301383
0.0306832
0.04262
0.0110878
0.0114527
0.0118003
0.0121619
0.0124925
0.0128508
0.0131653
0.0135153
0.0138167
0.0141535
0.0144484
0.0147667
0.0150608
0.0153571
0.0156477
0.0159227
0.0161994
0.0164529
0.0167118
0.0169255
0.017163
0.0173376
0.017582
0.0177393
0.0180044
0.0181536
0.0184472
0.0185981
0.0188762
0.0190394
0.0192898
0.0194341
0.0196684
0.0198094
0.0200942
0.0203445
0.0206836
0.0209261
0.0212793
0.021773
0.0224886
0.0231815
0.0238967
0.0242767
0.0248276
0.0252732
0.0261396
0.026493
0.0273388
0.0277068
0.0288816
0.0298745
0.0297163
0.0365804
21.7951
3.38041
1.22717
0.662497
0.436275
0.320608
0.251868
0.206818
0.175164
0.15182
0.133883
0.11974
0.108255
0.0988044
0.0908408
0.0840901
0.078257
0.0731884
0.0687312
0.0647643
0.0612682
0.0580832
0.0553081
0.0527054
0.0504688
0.048301
0.0464494
0.04461
0.0430147
0.041395
0.040024
0.0386342
0.0375055
0.036341
0.0353669
0.0344149
0.0335482
0.0328059
0.0320352
0.0314119
0.0307109
0.0301442
0.0295139
0.0290032
0.0284848
0.0279478
0.027437
0.0269639
0.0263883
0.0262197
0.0257893
0.0258143
0.0257956
0.0275208
21.795
3.38049
1.22718
0.662508
0.436297
0.320632
0.251904
0.206846
0.175209
0.151851
0.133936
0.119772
0.108314
0.098842
0.090904
0.084137
0.0783235
0.0732522
0.0688068
0.0648586
0.061353
0.0582062
0.0553892
0.0528339
0.0505331
0.0484122
0.046495
0.0446996
0.0430687
0.0415124
0.0401233
0.0387965
0.037647
0.036516
0.035543
0.0345911
0.0337672
0.0329684
0.0322601
0.0315459
0.0309326
0.0302741
0.0297492
0.0292143
0.0286992
0.0282985
0.0277499
0.0274941
0.0269541
0.0268482
0.0259702
0.0261335
0.0259114
0.0274773
21.7944
3.38027
1.22757
0.66286
0.436522
0.320791
0.252039
0.206983
0.175343
0.151992
0.134079
0.119918
0.108468
0.0989888
0.0910734
0.0842907
0.0785088
0.0734117
0.0689986
0.0650226
0.0615455
0.0583983
0.0556112
0.0530844
0.0507972
0.0487166
0.0467918
0.0450379
0.0433933
0.041893
0.0404884
0.039215
0.0380307
0.0369552
0.035953
0.0350339
0.0341585
0.0333807
0.032604
0.0319154
0.0312037
0.0305918
0.0299588
0.0294186
0.0287988
0.0283274
0.0278003
0.0272835
0.0268757
0.026388
0.0258251
0.0256662
0.0249232
0.0248726
21.7943
3.38038
1.22763
0.662898
0.436553
0.32082
0.252071
0.207016
0.175379
0.152034
0.134116
0.11997
0.108503
0.0990512
0.0911091
0.0843599
0.0785512
0.0734831
0.069054
0.0650983
0.0616299
0.0584825
0.0557125
0.0531694
0.0508895
0.0487931
0.0468746
0.0451086
0.043494
0.0419774
0.0406405
0.0393227
0.0382325
0.0370893
0.0361832
0.0352008
0.0344011
0.0335669
0.0328091
0.0320948
0.0313584
0.0307647
0.0300741
0.029547
0.0289047
0.0283923
0.0277996
0.0272655
0.0267799
0.0262355
0.0256345
0.0257093
0.0249527
0.0250403
21.7945
3.38015
1.22752
0.662823
0.436491
0.320752
0.252017
0.206941
0.175328
0.151946
0.134069
0.11987
0.108459
0.0989466
0.0910688
0.0842595
0.0785016
0.0733815
0.0689621
0.0649973
0.0615036
0.0583986
0.0555857
0.0531082
0.0507859
0.0487416
0.0467997
0.0450756
0.0434427
0.0419839
0.0405716
0.0393561
0.0381211
0.0371225
0.0360485
0.0351807
0.0342447
0.033425
0.0326142
0.0318471
0.0311392
0.0304246
0.0297593
0.0291031
0.0284519
0.0278572
0.0272622
0.0265912
0.0260742
0.0253191
0.0244104
0.0239176
0.023964
0.0240056
21.7944
3.38025
1.22756
0.662849
0.436513
0.320781
0.252039
0.206979
0.17535
0.151997
0.134088
0.119934
0.108477
0.0990202
0.0910853
0.0843377
0.0785196
0.0734586
0.0690065
0.0650778
0.0615909
0.0584733
0.0557003
0.0531664
0.050898
0.0488016
0.0468905
0.0451486
0.0435118
0.0420569
0.0406451
0.0394371
0.0382208
0.037215
0.0361692
0.0352995
0.0343791
0.0335769
0.0327489
0.0320227
0.0312392
0.0305921
0.0298368
0.0292556
0.0285228
0.028005
0.0273101
0.0267842
0.02613
0.0256184
0.0249352
0.0243584
0.0248708
0.0247491
21.7945
3.3801
1.22749
0.662798
0.436462
0.320728
0.251982
0.20692
0.175289
0.151932
0.134025
0.119864
0.10841
0.0989479
0.0910152
0.0842636
0.0784398
0.0733782
0.0689171
0.0649865
0.0614848
0.0583651
0.0555867
0.0530543
0.0508015
0.0487024
0.046819
0.0450627
0.0434715
0.0419833
0.0406321
0.0393602
0.0382174
0.0371181
0.036123
0.0351171
0.034213
0.0332523
0.032425
0.0315606
0.0307993
0.0300552
0.0293589
0.0286961
0.0279922
0.0274122
0.0266789
0.026175
0.0254711
0.0249687
0.0242093
0.0238457
0.0238533
0.0242393
21.7944
3.3802
1.22755
0.662839
0.436493
0.320753
0.252012
0.206944
0.175326
0.151958
0.134072
0.119889
0.10847
0.0989673
0.0910892
0.0842703
0.0785286
0.073383
0.0690264
0.0650104
0.0616086
0.0584097
0.0557001
0.053108
0.0508954
0.0487528
0.0468991
0.0451021
0.0435248
0.042004
0.0406633
0.0393613
0.0382105
0.0370834
0.036067
0.0350589
0.0341441
0.0332187
0.0323878
0.0315247
0.0307626
0.0299758
0.029256
0.028546
0.0278101
0.0271876
0.0264462
0.0259428
0.0252328
0.0248431
0.0241301
0.0240317
0.0239641
0.0244585
21.7945
3.38004
1.22753
0.662822
0.436454
0.320711
0.251951
0.206903
0.175247
0.151925
0.133972
0.119869
0.108347
0.0989593
0.0909413
0.084272
0.078369
0.0733887
0.0688674
0.064995
0.0614428
0.0583333
0.0555232
0.0529864
0.0507521
0.0486345
0.0468086
0.0450169
0.0434734
0.0419667
0.0406436
0.039368
0.0382127
0.0371074
0.0360929
0.0351055
0.0342072
0.0332754
0.032449
0.0315577
0.0308046
0.0299546
0.0292505
0.0283849
0.0277112
0.0269214
0.0263203
0.025722
0.0252655
0.0247827
0.0245064
0.0245849
0.0250492
0.0250375
21.7944
3.38013
1.22755
0.662838
0.436477
0.320726
0.251987
0.206911
0.175302
0.15192
0.13405
0.119849
0.108446
0.0989264
0.0910561
0.0842324
0.0784875
0.0733616
0.0689791
0.0650027
0.0615435
0.0584011
0.0556121
0.0530995
0.0508166
0.0487523
0.046855
0.045106
0.0435192
0.0420103
0.0406837
0.0393519
0.0382174
0.0370526
0.0360306
0.0350076
0.0340462
0.0331224
0.0322335
0.03138
0.0305962
0.0297954
0.029081
0.0282807
0.0276223
0.0268644
0.0263076
0.0257182
0.025232
0.0247373
0.0244362
0.0243906
0.0246859
0.0245054
21.7945
3.38001
1.22754
0.662819
0.436439
0.320681
0.251929
0.206858
0.175231
0.151865
0.133966
0.119793
0.108349
0.0988691
0.0909486
0.0841731
0.0783717
0.0732971
0.0688595
0.0649275
0.0614118
0.0582952
0.0554588
0.0529779
0.0506595
0.0486681
0.0467024
0.0450817
0.0433693
0.0420296
0.0405424
0.0393952
0.038106
0.0370943
0.0359732
0.0350583
0.0340781
0.0332334
0.0323371
0.0315167
0.0307162
0.0298783
0.0291543
0.0282839
0.0276082
0.0268307
0.0262996
0.0257674
0.0253533
0.024936
0.0246858
0.0242304
0.0241729
0.0241688
21.7943
3.38009
1.22756
0.662837
0.436458
0.320705
0.25195
0.206889
0.175251
0.151906
0.133981
0.119847
0.108357
0.0989387
0.0909459
0.0842541
0.0783683
0.0733812
0.0688701
0.0650128
0.061452
0.0583856
0.0555325
0.0530678
0.0507487
0.0487336
0.0468044
0.0451177
0.043482
0.0420398
0.0406418
0.0393771
0.0381852
0.0370381
0.0360239
0.0349779
0.0340638
0.0331311
0.0322698
0.0314146
0.0305958
0.0297866
0.0290065
0.0281733
0.0275264
0.0267262
0.0262803
0.0256516
0.0253409
0.0248576
0.0244281
0.0237524
0.0239485
0.0237534
21.7944
3.37993
1.22755
0.662826
0.436424
0.320658
0.251896
0.206829
0.175191
0.151832
0.133923
0.119754
0.108305
0.0988252
0.0909012
0.0841232
0.0783275
0.0732387
0.0688317
0.0648541
0.061408
0.0581905
0.0554527
0.0528485
0.0506601
0.0485474
0.0467457
0.0449824
0.0434561
0.0419419
0.0406284
0.0393279
0.0381662
0.0370569
0.0359858
0.0350184
0.0340383
0.0331678
0.0322776
0.0313953
0.0306292
0.029717
0.0290312
0.0282197
0.0275304
0.0268753
0.0262472
0.0258714
0.0252448
0.0249143
0.0242761
0.0239674
0.0237384
0.0241302
21.7943
3.38001
1.22755
0.662831
0.436436
0.320677
0.251914
0.206854
0.17521
0.151865
0.13394
0.119797
0.108316
0.0988799
0.0909025
0.0841948
0.0783133
0.0733332
0.0688045
0.0649724
0.0613816
0.0583421
0.0554653
0.0530148
0.0507066
0.0486901
0.0467924
0.0450967
0.0434809
0.042037
0.040632
0.0393903
0.0381583
0.037046
0.0359605
0.0349416
0.0339603
0.0330397
0.0320931
0.0312461
0.0303289
0.0295388
0.0286674
0.0279339
0.0271595
0.0265581
0.0260303
0.0255561
0.0251845
0.0245365
0.0243011
0.0234285
0.0232314
0.0233973
21.7944
3.37989
1.22755
0.662818
0.436401
0.320629
0.251859
0.206793
0.175146
0.151791
0.133871
0.119708
0.108248
0.0987711
0.0908417
0.0840604
0.0782687
0.0731729
0.0687815
0.0648048
0.0613702
0.0581526
0.0554074
0.0528097
0.0505927
0.0485292
0.0466685
0.044978
0.0433969
0.041921
0.0405921
0.0392977
0.0381264
0.037041
0.0359334
0.0350108
0.0339868
0.0331252
0.0321951
0.0312814
0.0304869
0.0295295
0.0288461
0.0279895
0.0273406
0.0267193
0.02611
0.0256742
0.0252317
0.0247258
0.0250237
0.0250818
0.0263022
0.0268045
21.7943
3.37997
1.22756
0.662831
0.436415
0.32065
0.251874
0.206823
0.175159
0.151832
0.133879
0.11976
0.10825
0.0988333
0.0908378
0.0841322
0.0782611
0.0732576
0.0687674
0.0649025
0.0613495
0.0582788
0.0554144
0.0529611
0.0506361
0.0486682
0.0467234
0.0451003
0.0434283
0.0420447
0.0405818
0.0393928
0.038102
0.0370484
0.035932
0.0349429
0.0339543
0.0330492
0.0321042
0.0312497
0.0303242
0.0294591
0.0285934
0.0278187
0.027067
0.0264254
0.0259558
0.0253272
0.0249641
0.0244607
0.0241523
0.0239957
0.0245229
0.0247047
21.7944
3.37981
1.22756
0.662824
0.436386
0.320599
0.251828
0.206752
0.175109
0.151744
0.133825
0.119658
0.10819
0.0987202
0.0907721
0.0840111
0.0781936
0.0731358
0.0687151
0.0647765
0.0613135
0.0581126
0.0553526
0.0527188
0.0505598
0.0484483
0.0466536
0.0449447
0.0433804
0.0419571
0.0405977
0.0393512
0.0381911
0.0370355
0.0360046
0.0349239
0.0339364
0.0329416
0.0319793
0.0310602
0.0302049
0.0293067
0.0285642
0.0277813
0.0271441
0.0266442
0.0261041
0.0257792
0.0258557
0.0263004
0.0276248
0.0288946
0.0297341
0.0318656
21.7943
3.37988
1.22755
0.662817
0.436391
0.320615
0.251841
0.206775
0.175124
0.151771
0.133844
0.119687
0.108213
0.0987484
0.0907988
0.0840367
0.0782231
0.073152
0.0687448
0.0647765
0.0613414
0.0581227
0.0554169
0.0527966
0.0506809
0.0485525
0.0468148
0.0450268
0.0435477
0.0419912
0.0407118
0.039351
0.0382192
0.0370046
0.0359951
0.0348769
0.033926
0.0329336
0.031984
0.0310935
0.0302033
0.0293479
0.0285297
0.0277849
0.0270528
0.0264533
0.0259292
0.0254294
0.0249487
0.0249651
0.0252886
0.025824
0.0266345
0.0277049
21.7944
3.37977
1.22754
0.662797
0.436357
0.320562
0.251796
0.206704
0.175074
0.151684
0.133788
0.119585
0.108148
0.0986357
0.0907199
0.0839189
0.0781225
0.0730433
0.0686104
0.064706
0.0611918
0.0580848
0.0552354
0.052783
0.050558
0.0486095
0.0467623
0.0451368
0.0435487
0.0421522
0.0407788
0.0395294
0.0383281
0.0371679
0.0361188
0.0349745
0.0340626
0.0330031
0.0321083
0.0312039
0.0304086
0.0295992
0.0290785
0.0284025
0.0288667
0.0287838
0.0290007
0.0290592
0.029851
0.0319138
0.0342459
0.0350277
0.0364286
0.0363928
21.7943
3.37985
1.22754
0.662802
0.436368
0.320577
0.251811
0.206722
0.175094
0.151703
0.133815
0.119602
0.108185
0.0986457
0.0907677
0.0839219
0.0781771
0.0730404
0.068662
0.0646872
0.0612321
0.0580773
0.0553099
0.0528345
0.0506548
0.048678
0.0468641
0.045205
0.0436109
0.0421679
0.0408062
0.0394686
0.0383138
0.037028
0.0360438
0.0348299
0.0339666
0.0328574
0.0320602
0.0310409
0.0303199
0.0294056
0.0287438
0.0280608
0.0274949
0.0271295
0.0267011
0.0270619
0.026919
0.0273077
0.0279548
0.0291142
0.0307186
0.0331285
21.7944
3.3797
1.22753
0.662792
0.436333
0.320536
0.251754
0.206674
0.17502
0.151651
0.133721
0.119549
0.108068
0.0985941
0.0906257
0.0838678
0.0780113
0.0729731
0.0684887
0.0646291
0.0610536
0.0580594
0.0551409
0.0529054
0.050762
0.0490797
0.0472633
0.0458146
0.0441511
0.0429243
0.0414561
0.0403236
0.0390183
0.0379401
0.0369201
0.0358771
0.0352213
0.0342249
0.033915
0.0338726
0.034005
0.0334268
0.0367904
0.0380754
0.0391878
0.0386063
0.0387285
0.039735
0.040152
0.040533
0.0400891
0.0388967
0.038153
0.0364435
21.7942
3.37975
1.22752
0.662785
0.436338
0.320549
0.251766
0.206695
0.175031
0.15168
0.133732
0.119582
0.108083
0.0986249
0.0906483
0.0838897
0.0780406
0.072985
0.0685096
0.0646225
0.0610647
0.0580164
0.0552046
0.0528503
0.0508571
0.0490079
0.0473288
0.045652
0.0441088
0.0426396
0.0412471
0.0399493
0.0386561
0.0375401
0.0363488
0.0354308
0.0344107
0.0335693
0.0328964
0.0320502
0.0320376
0.0316904
0.0315402
0.0320023
0.0319099
0.0345499
0.0353107
0.0347157
0.0353697
0.0359212
0.0371357
0.0375112
0.0381416
0.0372808
21.7944
3.37966
1.22751
0.662765
0.436307
0.320503
0.251724
0.206631
0.174986
0.151599
0.133684
0.119483
0.108028
0.098512
0.0905783
0.0837665
0.077941
0.072858
0.0683518
0.0645235
0.0608106
0.0581388
0.0548288
0.0537672
0.0516568
0.0524989
0.052443
0.0525232
0.052311
0.0521247
0.0518238
0.0516808
0.0514916
0.0514412
0.0516064
0.0505045
0.0528534
0.052625
0.0534656
0.0534794
0.0550252
0.0555795
0.0548647
0.0536317
0.0521471
0.0501884
0.0478885
0.0455503
0.0432745
0.0413574
0.0392898
0.0376969
0.0364562
0.0341081
21.7942
3.37972
1.2275
0.662765
0.436312
0.320518
0.251732
0.206655
0.174993
0.151631
0.133687
0.119527
0.108025
0.0985663
0.0905665
0.0838318
0.077918
0.0729353
0.0683129
0.0646044
0.060753
0.0581413
0.0548845
0.0535848
0.0517576
0.0514073
0.0506977
0.048622
0.0478122
0.046561
0.0453894
0.0445161
0.0428108
0.0430333
0.0426537
0.0427836
0.0432204
0.0440424
0.0447533
0.0459438
0.0475652
0.0482535
0.048522
0.0487975
0.0494225
0.048996
0.048032
0.0469741
0.0454774
0.043731
0.0419671
0.0401288
0.0385407
0.03566
21.7943
3.37958
1.22749
0.662748
0.436288
0.320466
0.251709
0.206575
0.174982
0.151515
0.133699
0.119361
0.108072
0.0983345
0.0906674
0.0835053
0.0780969
0.0724581
0.0686188
0.0638867
0.0612793
0.0571694
0.056106
0.0555907
0.0632101
0.12193
0.120376
0.124667
0.123101
0.119907
0.116365
0.112915
0.109143
0.10511
0.100753
0.0960256
0.0908359
0.0852372
0.0793643
0.0733613
0.0675389
0.0618043
0.0567156
0.0522065
0.0485158
0.0451762
0.0429838
0.0405256
0.0396561
0.0377619
0.0369358
0.0357035
0.0350022
0.0331211
21.7942
3.37964
1.22746
0.662729
0.436287
0.320476
0.251718
0.206593
0.174994
0.151538
0.133712
0.11939
0.108086
0.09837
0.0906762
0.0835521
0.0780908
0.0725243
0.0685777
0.0639903
0.0611104
0.0573961
0.0558068
0.0552728
0.0633057
0.0982898
0.10011
0.100457
0.103357
0.102496
0.103076
0.10031
0.101275
0.100488
0.0985276
0.0954498
0.0921031
0.0877008
0.0831318
0.0781809
0.0728095
0.0672291
0.0619219
0.0570594
0.0533217
0.0501591
0.0472107
0.044577
0.0422261
0.0400151
0.0380412
0.0351285
0.0337041
0.0331114
21.7943
3.37956
1.22745
0.662715
0.436265
0.320436
0.25169
0.206535
0.174968
0.151462
0.133688
0.119297
0.10806
0.098265
0.0906395
0.0834423
0.0780369
0.0723834
0.0685816
0.0635906
0.0616559
0.0559652
0.0582224
0.0638152
0.233931
0.336361
0.109871
0.0969101
0.0768065
0.067429
0.0627725
0.0594178
0.0578884
0.0572779
0.0567448
0.0561068
0.055342
0.0543962
0.0535062
0.0521884
0.0511532
0.0494468
0.0477866
0.0461292
0.0440272
0.042452
0.0404748
0.0382461
0.0370735
0.0332323
0.032022
0.030878
0.0305944
0.0300673
21.7942
3.37962
1.22743
0.662697
0.436265
0.320442
0.251705
0.206544
0.17499
0.151471
0.133717
0.119303
0.108097
0.0982665
0.0906875
0.0834318
0.0780982
0.0723765
0.0685654
0.0638805
0.0607328
0.0572577
0.0568168
0.0618727
0.198978
0.319025
0.188346
0.123253
0.0962384
0.0826954
0.074374
0.068619
0.0652985
0.0633631
0.0616353
0.0599695
0.0580954
0.0562908
0.0543657
0.0527489
0.050956
0.0492191
0.0474336
0.0455903
0.0437844
0.0417137
0.0395228
0.0375618
0.035281
0.0328915
0.0304924
0.0297316
0.0293853
0.0292796
21.7943
3.37948
1.2274
0.662682
0.43624
0.320412
0.251671
0.206509
0.174947
0.151431
0.133666
0.11926
0.108038
0.0982202
0.0906241
0.0833796
0.0780369
0.0723139
0.0684924
0.0639026
0.0604446
0.0572862
0.0551324
0.120837
0.210837
0.191749
0.159371
0.141299
0.129142
0.120276
0.113369
0.106656
0.10021
0.0933182
0.0866718
0.0799402
0.0734458
0.0672953
0.0611128
0.0557574
0.0503753
0.045921
0.0418357
0.037982
0.0346594
0.0318506
0.0297969
0.0288539
0.0261393
0.0274198
0.0269001
0.0271571
0.0273566
21.7942
3.37953
1.22736
0.662652
0.436233
0.320417
0.25168
0.206521
0.174962
0.151445
0.133688
0.119273
0.108072
0.0982227
0.0906749
0.0833676
0.0780991
0.0722994
0.0685782
0.0637041
0.0612875
0.0563875
0.0593096
0.129407
0.189848
0.186238
0.139824
0.127431
0.118545
0.111773
0.106754
0.10158
0.0966575
0.0906738
0.0848891
0.0786944
0.0728243
0.0669552
0.0615893
0.0561965
0.0514747
0.0467908
0.0429991
0.0391407
0.0360574
0.0331162
0.0302895
0.0270388
0.0260368
0.0261277
0.0261832
0.0268511
0.0275414
21.7943
3.37946
1.22734
0.662643
0.436202
0.32041
0.251624
0.206532
0.174877
0.151478
0.13357
0.119331
0.107919
0.0983157
0.0904817
0.0835088
0.0778604
0.0724999
0.0682959
0.0640013
0.060835
0.0573843
0.0557175
0.0590464
0.0977926
0.105156
0.0930659
0.0855395
0.077888
0.0711055
0.0652291
0.0599393
0.0550474
0.0506081
0.0464385
0.0429115
0.0396441
0.0370333
0.034611
0.0326544
0.0309238
0.0293898
0.0283662
0.0272598
0.0265001
0.0260238
0.0253418
0.0250035
0.0245694
0.024683
0.0253671
0.0257286
0.0261788
0.0255119
21.7941
3.37952
1.2273
0.66262
0.436197
0.320419
0.251628
0.206553
0.174878
0.15151
0.133568
0.119371
0.107917
0.0983561
0.0904882
0.0835371
0.0778876
0.0725017
0.0683595
0.063958
0.0609315
0.0572818
0.0556742
0.0587579
0.0938283
0.0855313
0.0805551
0.077487
0.0730637
0.0682762
0.063729
0.0593817
0.0548754
0.0509798
0.0468793
0.0437207
0.0404885
0.0380283
0.0356674
0.0336483
0.0320614
0.03035
0.0292127
0.0280631
0.027272
0.0266419
0.0258638
0.0255307
0.0244341
0.0243409
0.025036
0.0254615
0.0263695
0.0257416
21.7942
3.37939
1.22727
0.662597
0.436178
0.320396
0.251609
0.206526
0.174855
0.151484
0.133535
0.119354
0.107867
0.0983632
0.0904122
0.0835882
0.0777729
0.0726274
0.068186
0.0641878
0.060686
0.0576037
0.0548773
0.0530029
0.051785
0.0509811
0.0492301
0.0471536
0.0451996
0.0433943
0.0416754
0.0401152
0.0386394
0.0372415
0.0359218
0.0346469
0.033436
0.0322777
0.0312011
0.0302221
0.0290714
0.028117
0.0273679
0.026414
0.0259235
0.0254853
0.0250808
0.0249576
0.0241845
0.0245007
0.02557
0.0248451
0.0256156
0.0255542
21.7941
3.37944
1.22719
0.662541
0.436162
0.320389
0.251627
0.206522
0.174888
0.151475
0.133578
0.119346
0.107912
0.0983626
0.0904487
0.083604
0.0777932
0.0726666
0.0681857
0.064261
0.0606548
0.0577158
0.0548216
0.0531278
0.0515946
0.0507578
0.0489848
0.0470928
0.0452196
0.0434642
0.0418425
0.0403186
0.0388662
0.0376098
0.0362117
0.0351461
0.0338276
0.0328495
0.0317183
0.0307844
0.0298825
0.0289075
0.0281899
0.0272428
0.0267254
0.026009
0.0253834
0.0250295
0.0241044
0.0242453
0.0251133
0.0244273
0.0252965
0.0244817
21.7942
3.37937
1.22719
0.662545
0.436154
0.320381
0.251605
0.206518
0.174852
0.151481
0.133527
0.119364
0.107852
0.0983878
0.0903979
0.0836247
0.0777756
0.0726729
0.068228
0.0642475
0.060774
0.0576147
0.0549178
0.0524928
0.0505306
0.0486896
0.0469651
0.0451949
0.0435446
0.0419749
0.040428
0.0390835
0.0376917
0.0364681
0.0352555
0.0340804
0.0329972
0.0318617
0.030876
0.0299209
0.028788
0.0279683
0.027104
0.0265218
0.0259302
0.0254874
0.0250554
0.0247277
0.0245131
0.0235732
0.0237674
0.0236813
0.0248528
0.0245008
21.7941
3.37942
1.22715
0.662516
0.436146
0.320387
0.251611
0.206532
0.174861
0.151498
0.13354
0.119385
0.107865
0.0984169
0.090404
0.0836676
0.0777686
0.0727363
0.0682052
0.0643352
0.0607393
0.0577373
0.0548844
0.0526298
0.050534
0.0488042
0.0469691
0.0453375
0.0436113
0.0421381
0.0406027
0.0392862
0.0379171
0.0367802
0.0354687
0.0344965
0.0332566
0.0323355
0.0312915
0.0304021
0.0295292
0.0286778
0.0279015
0.0270192
0.0265
0.0256674
0.0251274
0.0246806
0.0241052
0.0241098
0.0233354
0.0236334
0.0242452
0.0237316
21.7941
3.37931
1.2271
0.66249
0.436127
0.320375
0.251595
0.206524
0.174841
0.151494
0.133512
0.119388
0.107831
0.0984306
0.0903683
0.0836929
0.0777418
0.0727686
0.0682063
0.0643662
0.0607871
0.0577546
0.0549231
0.0525181
0.0503309
0.048362
0.0465721
0.0448266
0.0432053
0.0416765
0.040179
0.0388762
0.037537
0.0363388
0.0351859
0.0340396
0.0329846
0.031857
0.0308944
0.02986
0.0289961
0.0280541
0.0273391
0.0267039
0.0260297
0.0255155
0.0251243
0.0246256
0.0236704
0.0235003
0.0232874
0.0235203
0.0237745
0.0238653
21.794
3.37936
1.22706
0.66246
0.436122
0.320375
0.25161
0.206523
0.17487
0.151485
0.133561
0.119364
0.107903
0.0983883
0.0904617
0.0836389
0.0778477
0.0727179
0.0683134
0.0643322
0.0608887
0.0577468
0.055021
0.0525423
0.0504006
0.0484338
0.0466241
0.0449374
0.0432697
0.0418014
0.0403043
0.0390143
0.0376848
0.0365575
0.0353021
0.0343878
0.0331455
0.0323245
0.0312481
0.0304216
0.0295196
0.028614
0.0277659
0.0269773
0.0263654
0.0257356
0.025209
0.0247401
0.0238855
0.0236725
0.0237824
0.0242126
0.0243836
0.0244027
21.7941
3.37929
1.22702
0.66244
0.436109
0.320366
0.2516
0.206519
0.174855
0.151487
0.133534
0.11938
0.107863
0.0984245
0.0904109
0.0836933
0.0777975
0.0727846
0.0682772
0.064407
0.0608721
0.0578133
0.0549908
0.0525547
0.0502649
0.0483078
0.0463889
0.044697
0.0430438
0.041542
0.0400918
0.0387736
0.0375116
0.0362717
0.0352243
0.0340167
0.0330614
0.0319331
0.0310419
0.0301308
0.0292379
0.0283779
0.0276044
0.0269011
0.0261974
0.0254546
0.0250319
0.0243651
0.0239943
0.0236111
0.0237572
0.0235897
0.0236449
0.0237055
21.794
3.37934
1.22699
0.662417
0.436103
0.320373
0.251604
0.206535
0.17486
0.15151
0.13354
0.119407
0.107871
0.0984541
0.0904222
0.0837257
0.0778143
0.0728205
0.0683036
0.0644459
0.0609104
0.0578543
0.0550489
0.0525982
0.0503437
0.0483525
0.046478
0.044759
0.043139
0.0416206
0.0401963
0.0388703
0.0376089
0.0364227
0.0353036
0.034286
0.0331812
0.0322864
0.0312617
0.0303595
0.029508
0.0285813
0.0278156
0.026963
0.026442
0.0257983
0.0252723
0.0246824
0.0242527
0.023838
0.0237101
0.0239273
0.0235953
0.024381
21.794
3.37924
1.22693
0.662387
0.436087
0.320363
0.251599
0.206527
0.174857
0.151499
0.133539
0.119393
0.107875
0.098437
0.0904359
0.0837052
0.0778396
0.0727999
0.0683375
0.0644343
0.060939
0.0578587
0.055046
0.0525715
0.0502845
0.0482328
0.0463656
0.0445619
0.0430228
0.0413758
0.0400737
0.0386075
0.0374706
0.0362053
0.0351722
0.0340751
0.0330713
0.0321248
0.0312113
0.0303374
0.0294867
0.0286037
0.0278951
0.0270313
0.0264192
0.0257147
0.0251944
0.0246929
0.0244422
0.0244446
0.0241674
0.0240915
0.023916
0.0248242
21.7939
3.37929
1.22689
0.662357
0.43608
0.320364
0.251611
0.206531
0.174878
0.151501
0.13357
0.119394
0.107911
0.098443
0.0904678
0.0837277
0.0778604
0.0728478
0.0683471
0.0645034
0.0609479
0.0579335
0.0550644
0.0526478
0.0503152
0.0483202
0.0463904
0.0446814
0.0430409
0.041525
0.0401201
0.0387643
0.0375423
0.0363404
0.0352732
0.0341571
0.0332255
0.0321774
0.0313403
0.0303591
0.0295824
0.0286653
0.028021
0.0271472
0.0266043
0.0258392
0.0253852
0.0249466
0.0245001
0.0244523
0.0244285
0.0243369
0.0244219
0.0264197
21.794
3.37923
1.22686
0.662341
0.436074
0.320358
0.251611
0.206524
0.174881
0.151489
0.133576
0.119378
0.107923
0.0984231
0.0904866
0.0837047
0.077886
0.0728211
0.0683804
0.0644683
0.0609903
0.057873
0.055103
0.0525448
0.0503157
0.048161
0.0463504
0.0444817
0.0429763
0.0413097
0.0400302
0.0385393
0.0374464
0.0361347
0.0351747
0.0340123
0.0331198
0.0320982
0.0312539
0.030349
0.0294807
0.0286285
0.0278545
0.0270636
0.0264385
0.0258285
0.0253809
0.0252039
0.0250548
0.02497
0.0245692
0.0252174
0.0251564
0.0286962
21.7939
3.37928
1.22683
0.662319
0.436067
0.320365
0.251615
0.20654
0.174886
0.151511
0.133583
0.119403
0.107934
0.098449
0.0905035
0.0837322
0.0779114
0.0728513
0.0684174
0.0644998
0.0610371
0.057907
0.0551568
0.0525934
0.0503684
0.0482415
0.0463889
0.0445903
0.0430059
0.0414399
0.0400752
0.0386783
0.0375046
0.0362515
0.035221
0.0341041
0.0331647
0.0321781
0.0312793
0.0304063
0.0295441
0.0287862
0.0279997
0.027321
0.0266579
0.0260927
0.0258675
0.0253454
0.0251077
0.0251282
0.0248567
0.0252765
0.0261217
0.0322331
21.7939
3.3792
1.22678
0.66229
0.436056
0.320358
0.251616
0.206533
0.174888
0.151503
0.133583
0.119396
0.107931
0.0984454
0.0904977
0.0837296
0.0779041
0.0728463
0.0684064
0.0644906
0.061015
0.0578934
0.0551148
0.052562
0.0502944
0.0481796
0.0462828
0.0445058
0.0428765
0.0413508
0.0399268
0.0385857
0.0373543
0.0361522
0.0350996
0.0339982
0.033079
0.032081
0.0312242
0.0303309
0.0295006
0.028744
0.0279592
0.0274698
0.026887
0.0266144
0.0262528
0.0259357
0.0256487
0.0254104
0.0256367
0.0281975
0.0287686
0.0404919
21.7938
3.37925
1.22675
0.662267
0.436049
0.320365
0.251618
0.206552
0.17489
0.151529
0.133587
0.119424
0.107941
0.0984689
0.0905227
0.0837464
0.0779444
0.0728652
0.0684514
0.0645265
0.0610502
0.0579546
0.0551365
0.0526446
0.0503177
0.0482731
0.0463101
0.0446067
0.0428984
0.0414626
0.0399443
0.0387127
0.0373696
0.036289
0.035102
0.0341303
0.0330885
0.0322039
0.0312795
0.0304414
0.0296509
0.0288811
0.0282563
0.0275297
0.027051
0.0264084
0.0261926
0.0251961
0.025005
0.0253904
0.0256244
0.0275496
0.0310714
0.0474367
21.7939
3.3792
1.22673
0.66226
0.436046
0.320365
0.251618
0.206552
0.174888
0.151528
0.133581
0.119423
0.107934
0.0984651
0.0905172
0.0837352
0.0779447
0.0728382
0.0684606
0.0644753
0.061068
0.0578736
0.055151
0.0525389
0.0503079
0.0481459
0.046271
0.0444658
0.0428429
0.0413179
0.0398807
0.03857
0.0372963
0.036144
0.0350282
0.0339984
0.0330299
0.0321163
0.0312976
0.0304947
0.0298031
0.0291276
0.0285292
0.0280329
0.027537
0.0270926
0.026595
0.0260052
0.0260428
0.0270845
0.0302881
0.0375937
0.0423075
0.0709685
21.7938
3.37925
1.2267
0.662237
0.436041
0.320367
0.251628
0.206559
0.174905
0.151537
0.133601
0.119436
0.107952
0.0984892
0.0905282
0.0837776
0.0779466
0.0729009
0.0684569
0.0645551
0.0610616
0.0579675
0.0551441
0.0526476
0.0503059
0.0482627
0.0462812
0.0445743
0.0428695
0.0414081
0.0399205
0.0386451
0.0373529
0.0362219
0.0350917
0.0340935
0.0330966
0.0321927
0.0312825
0.030508
0.0296636
0.0290437
0.0283565
0.027663
0.0270764
0.0264542
0.0258711
0.0254224
0.0255032
0.0264598
0.0277259
0.0340086
0.0495831
0.0784979
21.7939
3.37918
1.22667
0.662224
0.436038
0.320366
0.251629
0.206556
0.174905
0.15153
0.133602
0.119423
0.107955
0.0984714
0.0905321
0.0837541
0.0779484
0.0728713
0.0684513
0.0645175
0.0610445
0.0579184
0.0551182
0.0525782
0.0502724
0.0481696
0.0462375
0.044462
0.0428162
0.0412879
0.0398627
0.0385249
0.0372835
0.0361025
0.0350259
0.0339848
0.0330499
0.0321516
0.0313316
0.0305505
0.0298608
0.0291776
0.02855
0.0280429
0.0274709
0.0271868
0.0267339
0.0272968
0.0281173
0.0340887
0.0458094
0.0587356
0.0793441
0.11463
21.7938
3.37923
1.22664
0.662202
0.436032
0.32037
0.251636
0.206568
0.174915
0.151548
0.133614
0.119447
0.107968
0.0985011
0.0905457
0.0837912
0.0779653
0.0729156
0.068475
0.0645674
0.0610769
0.0579725
0.0551575
0.0526383
0.0503148
0.0482413
0.0462713
0.0445501
0.0428316
0.0413883
0.0398667
0.0386207
0.0373027
0.0361791
0.0350511
0.034087
0.0330667
0.032174
0.0312249
0.0304979
0.0295745
0.0290761
0.0282671
0.0275902
0.0268821
0.026451
0.0261467
0.0264787
0.0272325
0.0307172
0.0359873
0.0524728
0.0834456
0.115588
21.7939
3.37922
1.22667
0.662223
0.436042
0.320372
0.251637
0.206565
0.174914
0.151541
0.133611
0.119437
0.107963
0.0984887
0.0905382
0.0837757
0.0779521
0.0728951
0.0684527
0.0645383
0.0610436
0.0579306
0.0551139
0.0525793
0.0502659
0.0481566
0.0462235
0.044434
0.0427923
0.0412489
0.039829
0.0384824
0.037236
0.0360611
0.0349613
0.033945
0.0329714
0.0321222
0.0312307
0.0305093
0.0297614
0.0290107
0.0284814
0.0278698
0.0272859
0.0280117
0.0286122
0.0321412
0.0379491
0.0572567
0.0838918
0.0950912
0.107198
0.170527
21.7938
3.37927
1.22664
0.662205
0.436038
0.320376
0.251645
0.206577
0.174926
0.151556
0.133626
0.119456
0.107981
0.0985103
0.0905602
0.0838004
0.0779808
0.0729236
0.0684901
0.0645712
0.0610896
0.0579694
0.0551648
0.052628
0.0503176
0.0482167
0.0462715
0.0445055
0.0428324
0.0413277
0.0398634
0.0385668
0.0372716
0.0361509
0.0350013
0.034042
0.0330085
0.0321987
0.031246
0.0305692
0.0297083
0.0291872
0.0284501
0.0281111
0.0277079
0.0278156
0.0285073
0.030677
0.0340057
0.0423802
0.0595769
0.0839918
0.100191
0.164303
21.7938
3.37928
1.2267
0.662255
0.436075
0.320404
0.251669
0.206596
0.174945
0.151569
0.133641
0.119463
0.107992
0.0985122
0.0905667
0.0837964
0.0779794
0.0729129
0.0684764
0.0645525
0.0610604
0.0579412
0.0551239
0.0525893
0.0502692
0.0481646
0.0462194
0.0444319
0.0427778
0.0412311
0.0398041
0.038446
0.0372036
0.0359965
0.0349236
0.0338343
0.0329394
0.0319188
0.0311911
0.0303226
0.0295087
0.0289085
0.0287876
0.0296776
0.0311727
0.0349899
0.0405429
0.0501592
0.0676918
0.0837599
0.107535
0.110662
0.127697
0.21757
21.7937
3.37932
1.22667
0.662236
0.436073
0.320411
0.251679
0.206609
0.174958
0.151584
0.133657
0.119479
0.108011
0.0985296
0.0905891
0.0838162
0.078008
0.0729368
0.0685131
0.0645819
0.0611055
0.057977
0.0551748
0.0526326
0.0503202
0.0482165
0.0462635
0.0444965
0.0428098
0.0413101
0.0398212
0.038539
0.0372078
0.0361004
0.0349208
0.0339448
0.0329194
0.0320575
0.0311421
0.0304472
0.0296416
0.0291356
0.0291441
0.0293209
0.0309389
0.0332651
0.0374553
0.0437943
0.0522354
0.0618
0.0864235
0.0959476
0.116906
0.201179
21.7933
3.37869
1.22591
0.661624
0.435594
0.319983
0.251266
0.206195
0.174555
0.151191
0.133277
0.119123
0.107676
0.0982278
0.0903086
0.0835509
0.0777496
0.0726854
0.0682627