/*--------------------------------*- C++ -*----------------------------------*\
| =========                 |                                                 |
| \\      /  F ield         | OpenFOAM: The Open Source CFD Toolbox           |
|  \\    /   O peration     | Version:  4.1                                   |
|   \\  /    A nd           | Web:      www.OpenFOAM.org                      |
|    \\/     M anipulation  |                                                 |
\*---------------------------------------------------------------------------*/
FoamFile
{
    version     2.0;
    format      ascii;
    class       surfaceScalarField;
    location    "42";
    object      phi;
}
// * * * * * * * * * * * * * * * * * * * * * * * * * * * * * * * * * * * * * //

dimensions      [0 3 -1 0 0 0 0];

internalField   nonuniform List<scalar> 
11516
(
9.98696e+06
439.112
10020.5
9.96794e+06
81.6691
21479.5
9.93852e+06
262.414
31855.8
9.89942e+06
278.868
41807.2
9.85078e+06
369.673
51688.6
9.79258e+06
535.259
61519.1
9.72473e+06
661.75
71314.4
9.64692e+06
687.918
81155.8
9.5586e+06
604.908
91215.2
9.4588e+06
407.378
101922
9.34681e+06
162.594
113259
9.2229e+06
-55.3219
124650
9.08919e+06
-131.512
135311
8.95214e+06
-37.3513
141655
8.82583e+06
-321.732
136818
8.72543e+06
-841.429
116260
8.67573e+06
1696.77
63504.2
8.67227e+06
2166.96
12838
8.66681e+06
1152.95
11416.9
8.61504e+06
1880.84
54449
8.52492e+06
-1410.61
94280
8.39502e+06
-4720.51
136912
8.232e+06
-7952.88
173701
8.04157e+06
-11339.7
205252
7.8252e+06
-14409.8
234685
7.60724e+06
-16808.3
239434
7.40446e+06
-13932.3
223893
7.22687e+06
-7466.49
195027
7.07939e+06
-5367.18
165808
6.96985e+06
-9670.79
133762
6.91085e+06
-15573.8
92119.9
6.90404e+06
-20778
44688.4
6.95897e+06
-15359.4
-22264
7.08495e+06
6668.46
-112242
7.3137e+06
31665.1
-209421
7.58407e+06
28720.5
-251680
7.76366e+06
47666.9
-164169
7.90855e+06
56375.2
-89785.4
8.02004e+06
43087.2
-47244
8.15406e+06
18264.5
-13073.7
8.29815e+06
4439.28
1459.02
8.46405e+06
17179.2
-20649.7
8.6149e+06
34830.8
-33092.7
8.78939e+06
66791.2
-64503.1
8.98362e+06
56917.6
-89445.6
9.26601e+06
25656.5
-202118
9.52085e+06
40884.7
-194927
9.84054e+06
30606
-297214
1.02011e+07
80838.5
-442691
1.06996e+07
-24867.6
-612713
1.12194e+07
53309.4
-543274
1.1712e+07
-21283.6
-761258
1.29025e+07
79728.1
-928981
-108796
-445937
9.98768e+06
10013.5
9.96799e+06
21473.5
9.93824e+06
31832.8
9.89885e+06
41738.9
9.85001e+06
51577.8
9.79181e+06
61407.8
9.72406e+06
71244.5
9.64634e+06
81199.1
9.55799e+06
91452.1
9.458e+06
102387
9.34564e+06
114028
9.22137e+06
125635
9.08704e+06
136545
8.94863e+06
143080
8.81675e+06
139541
8.71259e+06
113558
8.66666e+06
56442.9
8.67144e+06
2967.66
8.67233e+06
3673.17
8.62282e+06
53214.2
8.53244e+06
90941.9
8.40422e+06
125912
8.2415e+06
157517
8.04754e+06
185500
7.82196e+06
214357
7.59084e+06
218809
7.37408e+06
208794
7.18014e+06
194229
7.01809e+06
165979
6.91105e+06
109790
6.87117e+06
37459.7
6.89252e+06
-26681.2
6.96682e+06
-70576.5
7.09299e+06
-98089.5
7.28464e+06
-134243
7.49881e+06
-139422
7.67739e+06
-65950.4
7.84814e+06
-35503.1
8.00931e+06
-10317.1
8.1717e+06
-35000.7
8.27915e+06
-4438.22
8.39913e+06
-1395.17
8.55565e+06
2885.3
8.74856e+06
-33233.3
8.93784e+06
-32526.4
9.17754e+06
-134158
9.43504e+06
-162175
9.72714e+06
-217156
1.00073e+07
-327136
1.0676e+07
-548779
1.09045e+07
-510784
1.16038e+07
-544132
1.28967e+07
-1.14518e+06
-711681
1.00069e+07
438.828
5714.52
1.00145e+07
2.47961
16078.2
1.00224e+07
183.617
26089.1
1.00305e+07
222.26
36226.5
1.00385e+07
346.845
46651.7
1.00459e+07
553.695
57413.4
1.00525e+07
739.706
68590.4
1.00579e+07
858.269
80063.6
1.00613e+07
896.526
92568
1.00625e+07
864.561
105516
1.00611e+07
774.244
119432
1.00563e+07
678.037
134028
1.00469e+07
711.435
149447
1.00294e+07
831.681
163926
9.991e+06
2331.11
179228
9.91377e+06
3121.07
195319
9.78613e+06
3329.95
191241
9.58056e+06
1965.51
217512
9.34731e+06
-714.306
245941
9.13586e+06
-1337.29
268127
8.94373e+06
201.316
287830
8.77169e+06
1679.24
309389
8.60947e+06
3049.09
335041
8.44726e+06
4783.63
364509
8.28638e+06
6114.94
391248
8.12065e+06
7675.63
399853
7.94415e+06
9465.62
394394
7.73692e+06
13037.5
394057
7.50869e+06
19075.5
379936
7.29359e+06
20886.3
332897
7.12929e+06
19668.5
240942
7.06048e+06
22406.4
93967.1
7.10242e+06
21246.9
-83183.5
7.24505e+06
17484.3
-266822
7.47596e+06
7689.92
-435794
7.64924e+06
11682.1
-391079
7.77504e+06
-6129.48
-206494
7.8779e+06
-8449.95
-102173
7.94658e+06
-5395.8
-22977.8
8.05968e+06
-34404.8
-31634.9
8.1883e+06
-39803.5
-36833.7
8.28824e+06
-57346
9180.59
8.40479e+06
-61016.4
16186.3
8.5471e+06
-62865.2
-41137.5
8.73727e+06
-70993.2
-102556
8.94316e+06
-81721.2
-235781
9.19912e+06
-92563.1
-293433
9.50685e+06
-103551
-447535
9.85367e+06
-114027
-685383
1.03509e+07
-165510
-1.03234e+06
1.04012e+07
-129782
-566375
1.07454e+07
218743
-1.23158e+06
1.27191e+07
-151838
-2.6551e+06
-426903
-2.46158e+06
1.00076e+07
5706.42
1.00145e+07
16062.3
1.00221e+07
26062.9
1.00299e+07
36186.6
1.00375e+07
46594.5
1.00449e+07
57336.8
1.00516e+07
68502
1.00572e+07
79982.8
1.00608e+07
92547.1
1.00623e+07
105591
1.00613e+07
119678
1.00569e+07
134512
1.0048e+07
149985
1.00315e+07
164694
1.00001e+07
178272
9.93101e+06
188764
9.7956e+06
196621
9.58418e+06
216458
9.34596e+06
241517
9.13563e+06
263041
8.94749e+06
280528
8.77716e+06
299516
8.61798e+06
321455
8.46e+06
349830
8.30665e+06
375394
8.15103e+06
384379
7.98174e+06
391180
7.79129e+06
402470
7.59378e+06
388486
7.39937e+06
331563
7.22138e+06
240012
7.1168e+06
103345
7.12829e+06
-56863.4
7.25847e+06
-204214
7.46397e+06
-312871
7.69114e+06
-311602
7.87469e+06
-199919
8.01514e+06
-106272
8.11839e+06
-52830.7
8.26245e+06
-155588
8.38261e+06
-112759
8.48744e+06
-85991.9
8.58581e+06
-72134.9
8.71562e+06
-120432
8.88339e+06
-193412
9.08224e+06
-369945
9.36094e+06
-481290
9.64221e+06
-584751
1.00198e+07
-815087
1.04306e+07
-1.20377e+06
1.03676e+07
-569115
1.12112e+07
-1.09845e+06
1.21843e+07
-2.13519e+06
-2.62433e+06
9.99927e+06
431.228
7384.72
9.99511e+06
-12.1949
22350.5
9.98639e+06
163.722
36869.3
9.97354e+06
198.99
51413.8
9.95669e+06
328.589
66243.4
9.93591e+06
557.96
81397.9
9.91144e+06
786.947
96812.6
9.88268e+06
966.216
113186
9.85035e+06
1077.17
129825
9.81362e+06
1118.07
147626
9.77283e+06
1075.53
165868
9.72749e+06
999.18
185012
9.67707e+06
838.028
205171
9.6192e+06
947.744
226326
9.55398e+06
575.899
247013
9.47362e+06
2162.36
273410
9.37312e+06
1296.04
287742
9.27822e+06
1367.23
310300
9.17741e+06
-188.726
347179
9.0597e+06
218.056
386820
8.92843e+06
796.285
420226
8.7925e+06
1583.15
446165
8.65373e+06
2962.93
473430
8.50987e+06
5592.94
504985
8.35829e+06
7288.36
537521
8.19365e+06
10198
557237
7.99891e+06
15149
578890
7.74971e+06
20642.3
629050
7.45442e+06
22488.3
659725
7.15663e+06
14335
621984
6.91406e+06
8063.36
478598
6.77302e+06
17932.5
218238
6.74262e+06
42259.6
-93924.5
6.85425e+06
64269.4
-441400
7.11789e+06
50801.3
-739147
7.31623e+06
-7193.39
-556135
7.37906e+06
-82513.8
-143493
7.39237e+06
-113139
53229.4
7.32827e+06
-119439
191894
7.36006e+06
-67737.9
24126.6
7.41457e+06
-40567
-32237.2
7.4443e+06
-66913.1
96732.1
7.54202e+06
-102586
119952
7.72407e+06
-104645
9659.29
7.95681e+06
-99059.9
-131524
8.14029e+06
-65242.2
-262238
8.42778e+06
-47934.2
-427461
8.75092e+06
-55409.3
-626763
9.22729e+06
-78721.4
-1.00979e+06
9.97359e+06
-106360
-1.6393e+06
1.12018e+07
-131271
-1.6433e+06
1.18904e+07
-160639
-1.6915e+06
1.08853e+07
330571
-1.78622e+06
50580.7
-3.13759e+06
9.99997e+06
7380.31
9.99513e+06
22351.8
9.98609e+06
36854.7
9.97292e+06
51383.1
9.95584e+06
66202.6
9.93505e+06
81353.9
9.91074e+06
96776
9.88221e+06
113170
9.85011e+06
129850
9.81353e+06
147707
9.7728e+06
166022
9.72752e+06
185219
9.67696e+06
205411
9.61955e+06
226329
9.55221e+06
247153
9.47081e+06
271187
9.37483e+06
290522
9.27945e+06
312936
9.17737e+06
343914
9.06131e+06
380308
8.9324e+06
411877
8.79962e+06
435911
8.66464e+06
461444
8.52143e+06
500284
8.37146e+06
534368
8.21125e+06
557595
8.02505e+06
597028
7.796e+06
658301
7.51645e+06
697525
7.19983e+06
668128
6.92824e+06
522313
6.78647e+06
264811
6.79852e+06
-25624.6
6.95859e+06
-297976
7.24055e+06
-533659
7.44935e+06
-501187
7.5629e+06
-356571
7.63278e+06
-260899
7.66707e+06
-184563
7.78291e+06
-314135
7.87926e+06
-219790
7.89636e+06
-101243
7.93029e+06
-80571.7
8.02e+06
-206824
8.15621e+06
-352081
8.30929e+06
-505891
8.53618e+06
-687373
8.83498e+06
-863305
9.22392e+06
-1.22645e+06
9.81176e+06
-1.86156e+06
1.08824e+07
-1.71992e+06
1.15098e+07
-1.82444e+06
1.11484e+07
-1.24258e+06
-2.99888e+06
9.99892e+06
425.545
9481.15
9.99494e+06
-6.48151
28454.5
9.98667e+06
161.564
47179.7
9.97429e+06
188.417
66058.7
9.95771e+06
306.647
85448.1
9.93696e+06
522.929
105212
9.91129e+06
741.624
126123
9.88103e+06
915.733
147700
9.84565e+06
1029.35
170058
9.80491e+06
1073.45
193656
9.75808e+06
1037.07
218137
9.70432e+06
926.372
243912
9.64292e+06
707.132
270750
9.57267e+06
447.866
298506
9.49089e+06
-53.5628
328041
9.3982e+06
413.116
360728
9.28571e+06
-391.397
395636
9.17498e+06
825.071
420164
9.08105e+06
-462.811
442663
8.99071e+06
38.6122
478961
8.89223e+06
671.976
520632
8.78329e+06
905.398
557414
8.65604e+06
1166.77
602525
8.51028e+06
2526.74
650833
8.34656e+06
2766.68
700847
8.15685e+06
4106.32
746185
7.9169e+06
7828.23
815942
7.60139e+06
8849.71
941794
7.21246e+06
4637.55
1.05046e+06
6.82087e+06
2433.85
1.01543e+06
6.52852e+06
5217.11
767455
6.35786e+06
11997
377093
6.30542e+06
27203.8
-69966.7
6.41255e+06
50079.4
-599510
6.64968e+06
40264.2
-1.017e+06
6.78401e+06
-72383.3
-614144
6.73555e+06
-221509
141659
6.63887e+06
-284025
445783
6.46916e+06
-251281
610824
6.47715e+06
-111492
135434
6.49567e+06
-40084.9
-2506.91
6.52234e+06
-76499.4
191327
6.66355e+06
-76077.1
224696
6.86188e+06
-51474.4
35062.4
7.10077e+06
-27437.5
-162460
7.26688e+06
-8444.16
-224778
7.45363e+06
-12663.5
-390600
7.62587e+06
33027.9
-638959
7.86564e+06
33172.5
-1.13542e+06
8.07479e+06
60048.5
-1.75983e+06
8.74565e+06
5040.07
-2.08128e+06
9.35317e+06
-51200.1
-2.02491e+06
9.54071e+06
295556
-2.0785e+06
421377
-2.88078e+06
9.99961e+06
9478.33
9.99496e+06
28459.1
9.98637e+06
47164.8
9.97367e+06
66038.2
9.95686e+06
85440
9.93611e+06
105222
9.91059e+06
126150
9.88058e+06
147739
9.84543e+06
170104
9.80486e+06
193699
9.75808e+06
218174
9.70424e+06
243921
9.64256e+06
270736
9.5721e+06
298359
9.48986e+06
327891
9.39709e+06
359813
9.28909e+06
396387
9.17739e+06
425770
9.08138e+06
440499
8.99159e+06
471884
8.89363e+06
512778
8.78381e+06
549418
8.65536e+06
593345
8.50998e+06
649852
8.34884e+06
700170
8.15785e+06
755350
7.91252e+06
853521
7.59437e+06
989108
7.20799e+06
1.09218e+06
6.8232e+06
1.05772e+06
6.5441e+06
807461
6.38368e+06
437060
6.33159e+06
52507.7
6.45689e+06
-374064
6.79098e+06
-824052
7.02158e+06
-790064
7.1193e+06
-659897
7.09357e+06
-520984
6.97218e+06
-315181
6.86896e+06
-311543
6.81948e+06
-196290
6.8028e+06
-93752.5
6.89559e+06
-94512
7.0266e+06
-248229
7.18392e+06
-418667
7.34589e+06
-553049
7.51218e+06
-738923
7.71969e+06
-906252
7.77526e+06
-1.12093e+06
7.86172e+06
-1.69328e+06
8.28076e+06
-2.0876e+06
8.65133e+06
-1.98542e+06
9.53509e+06
-1.69496e+06
-2.65053e+06
9.999e+06
422.704
11504.1
9.99511e+06
0.603092
34479.7
9.98704e+06
168.162
57300.8
9.97495e+06
191.487
80445.8
9.95878e+06
304.55
104288
9.93845e+06
515.437
128679
9.91385e+06
729.736
154418
9.88495e+06
900.211
180853
9.85104e+06
1009.5
208694
9.81185e+06
1046.19
237823
9.76681e+06
1001.45
268067
9.7152e+06
872.704
299850
9.65644e+06
633.883
332625
9.58876e+06
298.18
367304
9.51054e+06
-187.299
404280
9.42156e+06
-573.45
445651
9.32166e+06
109.459
493408
9.20053e+06
1188.27
541450
9.07411e+06
1374.98
570140
8.96801e+06
-614.958
589432
8.86754e+06
954.26
624243
8.76071e+06
1562.95
667182
8.62883e+06
-592.382
738983
8.46633e+06
-952.633
817475
8.2754e+06
-2983.26
897712
8.04083e+06
-3109.36
986761
7.74789e+06
562.441
1.11049e+06
7.39307e+06
2009.5
1.2966e+06
7.00075e+06
-515.889
1.44519e+06
6.63414e+06
273.718
1.38308e+06
6.3396e+06
6090.38
1.05647e+06
6.10791e+06
17119.3
591785
5.94088e+06
34861.8
62687.3
5.87683e+06
74000.5
-608910
5.94509e+06
163905
-1.24811e+06
5.65587e+06
-77461
-237872
5.7365e+06
-157963
267453
5.87726e+06
-112017
424007
5.64316e+06
-165443
990867
5.54693e+06
3216.15
222813
5.46579e+06
-3379.37
89391
5.51201e+06
-81701
282752
5.76317e+06
17110.2
159042
5.96723e+06
112370
18178.5
6.03975e+06
143339
-92172.4
6.14115e+06
136199
-163518
6.24031e+06
148047
-377999
6.49235e+06
114250
-797236
6.71963e+06
53346.1
-1.3005e+06
6.55743e+06
357312
-1.62114e+06
6.31324e+06
353899
-1.98636e+06
6.94206e+06
389997
-2.74908e+06
7.54649e+06
354827
-2.83951e+06
187389
-2.45178e+06
9.99968e+06
11494.1
9.99513e+06
34484
9.98674e+06
57298
9.97433e+06
80446.7
9.95794e+06
104307
9.93761e+06
128720
9.91316e+06
154478
9.8845e+06
180923
9.85082e+06
208759
9.81179e+06
237861
9.76679e+06
268059
9.71509e+06
299775
9.65611e+06
332503
9.58793e+06
367128
9.50943e+06
404291
9.42095e+06
445754
9.32277e+06
493704
9.20706e+06
544918
9.08319e+06
569304
8.97336e+06
585398
8.86856e+06
622863
8.7528e+06
670482
8.61477e+06
733729
8.4527e+06
813289
8.25864e+06
893259
8.01707e+06
995324
7.73024e+06
1.14187e+06
7.39297e+06
1.32922e+06
7.02237e+06
1.46295e+06
6.67537e+06
1.40546e+06
6.39769e+06
1.09151e+06
6.19618e+06
655676
6.08842e+06
195793
6.14492e+06
-355804
6.45709e+06
-962389
6.73996e+06
-1.12648e+06
6.86471e+06
-935770
6.85408e+06
-624982
6.60499e+06
-243928
6.25202e+06
41864.9
5.91766e+06
147380
5.82308e+06
-5008.83
6.01391e+06
-98851.7
6.23755e+06
-170207
6.43215e+06
-261644
6.56581e+06
-330628
6.6357e+06
-448567
6.64421e+06
-628433
6.5975e+06
-842662
6.71489e+06
-1.39568e+06
6.85529e+06
-1.74433e+06
7.38867e+06
-1.9882e+06
7.96399e+06
-1.91108e+06
-2.28088e+06
9.99905e+06
413.141
13458.1
9.99528e+06
9.34003
40402.5
9.98751e+06
172.183
67167.4
9.97597e+06
199.078
94366.5
9.9607e+06
316.72
122345
9.94129e+06
528.146
151330
9.91794e+06
738.549
181545
9.89028e+06
898.643
212761
9.85797e+06
988.515
245591
9.82067e+06
995.97
279736
9.77742e+06
915.512
315619
9.72787e+06
752.843
352962
9.67103e+06
508.715
391897
9.60605e+06
192.91
433270
9.53257e+06
-156.857
477263
9.4516e+06
-275.025
525571
9.36732e+06
217.509
577553
9.27103e+06
3442.67
638968
9.15111e+06
6933.42
690479
9.02143e+06
1769.3
727044
8.88977e+06
1412.31
763876
8.7542e+06
804.453
811020
8.61052e+06
-3175
889970
8.44732e+06
-4124.62
988798
8.24133e+06
-8102.49
1.11485e+06
7.97619e+06
-7646.77
1.26081e+06
7.65834e+06
-1655.94
1.43024e+06
7.31602e+06
3871.33
1.63487e+06
6.96234e+06
4998.51
1.79363e+06
6.60443e+06
7922.78
1.73318e+06
6.24327e+06
15490
1.40275e+06
5.86064e+06
34334.3
941247
5.4041e+06
77633
443638
4.73508e+06
267256
-205806
2.4336e+06
1.06417e+06
-2438.54
1.45212e+06
504356
277783
892946
461423
440095
1.73322e+06
367424
-766681
2.58278e+06
78976.4
58842.4
3.50958e+06
139183
-852530
3.86609e+06
62217.6
-313205
4.20548e+06
108036
-18502
4.40623e+06
251001
50726
4.39097e+06
353455
106546
4.3298e+06
402322
18978.3
4.50927e+06
287788
-201767
4.85405e+06
181402
-550756
5.32056e+06
60547.2
-1.08172e+06
5.75911e+06
44877.8
-1.60549e+06
6.03551e+06
133919
-2.02531e+06
6.39811e+06
142933
-2.41717e+06
6.20168e+06
612193
-3.05683e+06
5.05017e+06
615221
-2.40046e+06
184419
-1.87094e+06
9.99971e+06
13452.6
9.9953e+06
40406
9.98723e+06
67147.2
9.97538e+06
94346.4
9.9599e+06
122351
9.94048e+06
151369
9.91728e+06
181612
9.88985e+06
212843
9.85774e+06
245669
9.82057e+06
279785
9.77733e+06
315616
9.72767e+06
352891
9.67062e+06
391772
9.60531e+06
433105
9.5317e+06
477205
9.45092e+06
525554
9.3684e+06
578159
9.28585e+06
636048
9.18188e+06
688402
9.04626e+06
732055
8.90314e+06
774428
8.75624e+06
825246
8.6045e+06
887451
8.42667e+06
989274
8.21117e+06
1.10219e+06
7.94721e+06
1.25234e+06
7.65549e+06
1.43203e+06
7.34121e+06
1.64708e+06
7.00624e+06
1.80273e+06
6.66703e+06
1.75278e+06
6.34259e+06
1.43181e+06
6.04466e+06
989195
5.77376e+06
545113
5.63715e+06
56843.4
6.361e+06
-598430
6.11674e+06
-365874
5.89657e+06
-222496
5.60849e+06
118607
5.19713e+06
271813
5.00373e+06
397890
4.86225e+06
400524
4.87346e+06
228306
4.91673e+06
331912
5.0994e+06
311996
5.27054e+06
297403
5.36231e+06
168885
5.42706e+06
-94330.4
5.50252e+06
-479977
5.68207e+06
-912946
5.84424e+06
-1.37664e+06
6.01399e+06
-1.73754e+06
6.83837e+06
-2.22385e+06
7.60459e+06
-2.05061e+06
-2.43129e+06
9.99911e+06
407.54
15338.2
9.99558e+06
15.9741
46065.2
9.98829e+06
182.222
76531.8
9.97748e+06
212.11
107553
9.96314e+06
328.88
139466
9.94487e+06
534.409
172846
9.92281e+06
734.02
207335
9.89658e+06
877.926
243122
9.866e+06
946.047
280531
9.82993e+06
927.995
320067
9.78855e+06
823.531
360832
9.74084e+06
649.438
403757
9.68611e+06
428.255
448770
9.62428e+06
182.7
496271
9.55535e+06
-33.435
546739
9.48083e+06
-10.0223
600892
9.40202e+06
413.516
658565
9.32399e+06
1975.49
720808
9.23793e+06
3045.89
783217
9.13212e+06
2666.13
843799
9.00192e+06
2419.57
906992
8.84146e+06
2679.01
983115
8.66846e+06
2041.93
1.06796e+06
8.49418e+06
-7628.43
1.17368e+06
8.29099e+06
-14441.1
1.33449e+06
8.0328e+06
-14954.8
1.53607e+06
7.72803e+06
-921.594
1.73679e+06
7.40332e+06
11228.7
1.94751e+06
7.06132e+06
10724.1
2.12407e+06
6.6735e+06
11614.3
2.10933e+06
6.23967e+06
25623.4
1.81163e+06
5.71695e+06
51782.3
1.41386e+06
4.84946e+06
143142
1.16921e+06
2.36315e+06
722748
1.56092e+06
-657077
1.04857e+06
1.97625e+06
-716172
19835.6
317771
-959491
177291
666228
-1.14297e+06
344264
-356126
250819
-294263
-718368
1.29733e+06
-220262
-1.5131e+06
2.15538e+06
97707.2
-1.13162e+06
2.35806e+06
548338
-480740
2.28672e+06
662974
-210656
2.5612e+06
499791
-277613
3.20853e+06
268624
-532488
4.08174e+06
127518
-877582
4.95975e+06
31380.9
-1.19341e+06
5.6907e+06
-59873.6
-1.58327e+06
6.16823e+06
-84087.3
-1.93002e+06
6.32774e+06
-36163.7
-2.15147e+06
5.98993e+06
101836
-2.2108e+06
3.39056e+06
909130
-1.54441e+06
2.17974e+06
409400
-1.59569e+06
925995
-1.39468e+06
9.99977e+06
15326.2
9.9956e+06
46065
9.98802e+06
76520.3
9.97691e+06
107542
9.96236e+06
139472
9.94408e+06
172872
9.92217e+06
207377
9.89615e+06
243170
9.86574e+06
280571
9.82978e+06
320084
9.7884e+06
360817
9.7406e+06
403710
9.68569e+06
448713
9.62365e+06
496234
9.55464e+06
546807
9.48036e+06
600964
9.40273e+06
658761
9.32559e+06
719823
9.24162e+06
782604
9.13926e+06
845657
9.0138e+06
913073
8.862e+06
989933
8.68079e+06
1.07797e+06
8.48036e+06
1.1838e+06
8.25837e+06
1.31126e+06
7.99369e+06
1.50313e+06
7.71558e+06
1.70957e+06
7.43139e+06
1.94222e+06
7.12063e+06
2.12377e+06
6.76349e+06
2.1215e+06
6.37402e+06
1.84764e+06
5.97978e+06
1.43582e+06
5.56175e+06
1.10893e+06
5.1693e+06
1.18001e+06
3.4297e+06
2.19593e+06
1.69709e+06
1.41057e+06
927427
879798
983455
750425
552522
667547
1.04083e+06
-139346
1.93125e+06
-245124
2.27359e+06
583991
2.43236e+06
1.07114e+06
2.71616e+06
821964
3.1628e+06
394231
3.7578e+06
-57047.3
4.40533e+06
-528828
4.99569e+06
-1.01324e+06
5.48743e+06
-1.45746e+06
5.88703e+06
-1.82461e+06
6.31356e+06
-2.11093e+06
7.00567e+06
-2.02858e+06
7.62258e+06
-2.2431e+06
-2.62524e+06
9.9992e+06
395.883
17080.4
9.99598e+06
21.6947
51387.6
9.98927e+06
179.974
85322.7
9.97928e+06
208.455
119895
9.96591e+06
321.861
155569
9.94902e+06
517.056
192860
9.92863e+06
701.555
231249
9.90396e+06
827.059
271643
9.87485e+06
876.463
313608
9.84109e+06
843.792
357675
9.80158e+06
738.489
403813
9.75607e+06
586.239
452177
9.70418e+06
424.916
502987
9.64568e+06
279.832
556608
9.58094e+06
186.446
613031
9.51082e+06
210.278
672737
9.43644e+06
428.035
735302
9.35968e+06
764.345
800775
9.27891e+06
657.425
868988
9.18988e+06
198.04
940195
9.08832e+06
76.8494
1.01802e+06
8.96652e+06
1019.47
1.11164e+06
8.81289e+06
4903.02
1.22435e+06
8.6281e+06
-3127.03
1.36345e+06
8.4318e+06
-16768.8
1.54965e+06
8.22064e+06
-21248.4
1.77066e+06
7.98474e+06
-5447.93
1.97922e+06
7.68733e+06
13153.3
2.23113e+06
7.33431e+06
18763.2
2.45582e+06
6.91875e+06
14511
2.50897e+06
6.48147e+06
21853.4
2.22746e+06
6.02032e+06
36145.9
1.83984e+06
5.48086e+06
75293.9
1.63346e+06
4.61826e+06
445656
1.9767e+06
2.30123e+06
927447
3.37076e+06
818962
255331
1.65656e+06
1.33252e+06
47617.4
775220
1.73661e+06
-95685.1
278541
1.72179e+06
-209386
-83638.1
1.64465e+06
-522667
-660125
1.91855e+06
-407596
-820315
2.44297e+06
-23886.6
-901190
3.0424e+06
169136
-905295
3.71134e+06
116003
-962914
4.50319e+06
-43469.3
-1.15319e+06
5.29573e+06
-131268
-1.36887e+06
5.9607e+06
-133513
-1.55319e+06
6.41345e+06
-140704
-1.77229e+06
6.69849e+06
-153732
-1.99768e+06
6.86914e+06
-134837
-2.19137e+06
6.92833e+06
-72527.5
-2.328e+06
7.56405e+06
67303.1
-2.26181e+06
8.36351e+06
100231
-2.48011e+06
518936
-3.11878e+06
9.99983e+06
17075.8
9.99601e+06
51391.7
9.98901e+06
85297.6
9.97874e+06
119867
9.96516e+06
155566
9.94826e+06
192888
9.92801e+06
231299
9.90352e+06
271702
9.87458e+06
313656
9.84092e+06
357693
9.80141e+06
403787
9.75584e+06
452103
9.70383e+06
502878
9.64521e+06
556498
9.58049e+06
612943
9.5105e+06
672674
9.43646e+06
735284
9.35914e+06
800757
9.27721e+06
868968
9.18815e+06
939854
9.0883e+06
1.01852e+06
8.9744e+06
1.11058e+06
8.82722e+06
1.23214e+06
8.64026e+06
1.36943e+06
8.41915e+06
1.51829e+06
8.1724e+06
1.73038e+06
7.91193e+06
1.96622e+06
7.65434e+06
2.21177e+06
7.3902e+06
2.40538e+06
7.04627e+06
2.47925e+06
6.61506e+06
2.30125e+06
6.1794e+06
1.90857e+06
5.74109e+06
1.62172e+06
5.5829e+06
1.78299e+06
6.04839e+06
2.65568e+06
5.05864e+06
2.67364e+06
3.89578e+06
2.14392e+06
3.08455e+06
1.56443e+06
2.66994e+06
1.03654e+06
1.66288e+06
528133
744461
388930
772593
613118
1.6724e+06
415158
2.83822e+06
-146314
3.91869e+06
-623464
4.78115e+06
-926702
5.42496e+06
-1.18741e+06
5.87604e+06
-1.52584e+06
6.16812e+06
-1.87031e+06
6.37019e+06
-2.19375e+06
6.56262e+06
-2.4374e+06
7.14225e+06
-2.53677e+06
7.81433e+06
-2.81408e+06
-3.22617e+06
9.99928e+06
390.696
18702.7
9.99643e+06
28.3169
56300.7
9.99039e+06
187.663
93387.7
9.98136e+06
215.693
131217
9.96921e+06
323.172
170374
9.95378e+06
506.784
211305
9.93487e+06
676.172
253521
9.91226e+06
784.986
297848
9.88522e+06
818.123
344297
9.85351e+06
773.484
392859
9.81667e+06
664.26
443709
9.77382e+06
520.699
497552
9.72482e+06
382.41
553986
9.66987e+06
276.751
613151
9.60878e+06
200.272
675405
9.54232e+06
165.706
740317
9.4709e+06
156.545
807780
9.39564e+06
134.333
877109
9.31746e+06
9.66124
948189
9.2366e+06
-163.651
1.02212e+06
9.15276e+06
-279.823
1.10254e+06
9.06638e+06
537.445
1.19751e+06
8.96734e+06
1435.2
1.32001e+06
8.82165e+06
17912.7
1.49136e+06
8.63498e+06
20486.1
1.71942e+06
8.46066e+06
-6173.3
1.95276e+06
8.29316e+06
-19914
2.16796e+06
8.09884e+06
-13529.8
2.43177e+06
7.87815e+06
2783.01
2.66418e+06
7.53842e+06
25082.1
2.81732e+06
6.99316e+06
43936.4
2.72705e+06
6.34642e+06
45386.3
2.43802e+06
5.78156e+06
59843.1
2.13701e+06
5.62496e+06
104870
2.0175e+06
5.73415e+06
353348
2.91252e+06
4.59215e+06
164343
2.67579e+06
3.71034e+06
-77347.9
1.85321e+06
3.36877e+06
-184616
999147
3.46714e+06
-261456
322400
3.68345e+06
-424055
-226937
4.12793e+06
-460303
-622705
4.59168e+06
-343351
-884748
5.01876e+06
-251523
-994183
5.49345e+06
-302792
-1.08885e+06
6.00222e+06
-339884
-1.25879e+06
6.42493e+06
-273687
-1.41856e+06
6.73542e+06
-178159
-1.5547e+06
6.95214e+06
-130418
-1.73555e+06
7.09217e+06
-100047
-1.96902e+06
7.19212e+06
-74715.8
-2.23104e+06
7.33708e+06
-19534.8
-2.42909e+06
7.6795e+06
48791.8
-2.59328e+06
7.95264e+06
80165.1
-2.70096e+06
638611
-3.50865e+06
9.99991e+06
18690.2
9.99647e+06
56294.8
9.99015e+06
93369.8
9.98084e+06
131197
9.96848e+06
170367
9.95303e+06
211314
9.93424e+06
253541
9.91181e+06
297868
9.88493e+06
344307
9.8533e+06
392848
9.81647e+06
443670
9.77357e+06
497480
9.7245e+06
553878
9.66947e+06
613004
9.60835e+06
675221
9.5419e+06
740077
9.47049e+06
807446
9.39505e+06
876603
9.31653e+06
947376
9.23521e+06
1.02086e+06
9.15174e+06
1.10079e+06
9.06612e+06
1.19471e+06
8.97891e+06
1.31911e+06
8.88592e+06
1.48303e+06
8.73256e+06
1.69658e+06
8.52395e+06
1.9351e+06
8.27129e+06
2.19525e+06
8.02047e+06
2.44247e+06
7.79574e+06
2.62645e+06
7.55514e+06
2.73958e+06
7.17542e+06
2.71997e+06
6.62273e+06
2.50053e+06
6.05619e+06
2.24041e+06
5.77769e+06
2.15693e+06
6.30878e+06
2.48315e+06
6.56035e+06
2.62014e+06
6.3463e+06
2.34597e+06
5.99508e+06
1.82768e+06
5.63189e+06
1.26093e+06
5.14755e+06
728202
4.89737e+06
321338
5.19872e+06
82618.6
5.6994e+06
-268730
5.99085e+06
-692705
6.08149e+06
-1.00201e+06
6.1436e+06
-1.18354e+06
6.27698e+06
-1.40275e+06
6.44714e+06
-1.74024e+06
6.61697e+06
-2.09196e+06
6.79345e+06
-2.44072e+06
7.09311e+06
-2.7242e+06
7.60812e+06
-2.95435e+06
7.98716e+06
-3.05906e+06
-3.76064e+06
9.99938e+06
378.701
20130.6
9.99696e+06
28.3185
60721.1
9.99167e+06
176.804
100651
9.98371e+06
198.809
141387
9.97292e+06
297.958
183667
9.95912e+06
466.935
227890
9.9421e+06
619.234
273588
9.92151e+06
712.046
321643
9.89692e+06
733.697
372113
9.86781e+06
685.907
425020
9.83361e+06
582.746
480581
9.79393e+06
451.751
539404
9.7483e+06
324.316
601238
9.69636e+06
213.262
666109
9.6384e+06
107.465
733745
9.57437e+06
-30.1305
803819
9.50521e+06
-210.031
875387
9.43179e+06
-428.101
947534
9.35662e+06
-732.641
1.01899e+06
9.28326e+06
-871.569
1.0893e+06
9.21582e+06
-1289.31
1.16234e+06
9.16598e+06
-536.012
1.23972e+06
9.12184e+06
-843.176
1.3592e+06
9.07639e+06
10548.8
1.52958e+06
8.96581e+06
37408.1
1.79502e+06
8.80289e+06
27727.3
2.08764e+06
8.61043e+06
-3774.08
2.35447e+06
8.4388e+06
-19437
2.60705e+06
8.29118e+06
-16924.6
2.81145e+06
8.11958e+06
-365.968
2.97304e+06
7.78541e+06
10643.9
3.03446e+06
7.20565e+06
28724
2.97573e+06
6.53786e+06
52435.1
2.73859e+06
6.0353e+06
14521.1
2.5041e+06
6.26732e+06
81567.2
2.62047e+06
6.32173e+06
74387.2
2.61114e+06
6.08017e+06
6882.93
2.20673e+06
5.80416e+06
-75592.5
1.52971e+06
5.67722e+06
-160971
847437
5.71439e+06
-221336
244519
5.86564e+06
-218632
-277848
6.03594e+06
-148285
-697398
6.24593e+06
-145466
-955077
6.54869e+06
-243728
-1.10129e+06
6.82669e+06
-234180
-1.27068e+06
7.00018e+06
-102674
-1.42505e+06
7.14132e+06
-10795.2
-1.57274e+06
7.28933e+06
22432
-1.7672e+06
7.41843e+06
49926.1
-2.01934e+06
7.55062e+06
68972.5
-2.32506e+06
7.74466e+06
90628.3
-2.60794e+06
8.10166e+06
113830
-2.8487e+06
8.31265e+06
72186.8
-2.85278e+06
565151
-3.37633e+06
9.99998e+06
20128
9.997e+06
60725.6
9.99144e+06
100625
9.98321e+06
141356
9.97222e+06
183658
9.9584e+06
227908
9.94148e+06
273624
9.92107e+06
321681
9.89662e+06
372136
9.86758e+06
425011
9.8334e+06
480528
9.79367e+06
539301
9.74797e+06
601083
9.69597e+06
665900
9.63792e+06
733483
9.57385e+06
803486
9.50456e+06
874943
9.43102e+06
946915
9.3556e+06
1.01809e+06
9.2817e+06
1.08828e+06
9.21421e+06
1.16059e+06
9.15964e+06
1.24213e+06
9.12215e+06
1.35384e+06
9.1003e+06
1.51604e+06
9.06669e+06
1.76931e+06
8.94776e+06
2.0775e+06
8.74571e+06
2.38198e+06
8.51948e+06
2.636e+06
8.29392e+06
2.82356e+06
8.07286e+06
2.95088e+06
7.79229e+06
3.00307e+06
7.36227e+06
2.95098e+06
6.81977e+06
2.82941e+06
6.30347e+06
2.6923e+06
6.26101e+06
2.63063e+06
6.48253e+06
2.52301e+06
6.68339e+06
2.23266e+06
6.76159e+06
1.78398e+06
6.73549e+06
1.27126e+06
6.69601e+06
724237
6.76825e+06
205700
6.96757e+06
-144291
7.04621e+06
-425440
6.84957e+06
-706088
6.61427e+06
-963009
6.6025e+06
-1.20887e+06
6.78597e+06
-1.5077e+06
7.02297e+06
-1.86104e+06
7.29713e+06
-2.24186e+06
7.63049e+06
-2.65686e+06
8.08999e+06
-3.02934e+06
8.69565e+06
-3.35523e+06
9.28415e+06
-3.42807e+06
-4.31644e+06
9.99947e+06
374.976
21409.5
9.99754e+06
34.3474
64613.3
9.99309e+06
182.143
106990
9.98632e+06
201.55
150271
9.97703e+06
292.177
195327
9.96505e+06
447.291
242484
9.94993e+06
583.393
291521
9.93173e+06
660.396
342763
9.91001e+06
668.814
396683
9.88384e+06
611.695
453800
9.85264e+06
503.576
513955
9.81625e+06
366.929
577398
9.77383e+06
226.893
644564
9.72522e+06
87.6326
714822
9.66963e+06
-64.6092
788431
9.6073e+06
-278.527
863938
9.53845e+06
-561.505
940299
9.4648e+06
-931.617
1.01528e+06
9.38937e+06
-1336.24
1.08596e+06
9.31826e+06
-1339.06
1.14967e+06
9.26329e+06
-2078.03
1.20538e+06
9.22914e+06
3011.8
1.25861e+06
9.23376e+06
5967.17
1.34587e+06
9.2988e+06
2146.92
1.45931e+06
9.32377e+06
18279.1
1.75361e+06
9.21127e+06
23268.6
2.16869e+06
8.98768e+06
8416.39
2.55566e+06
8.75774e+06
-3541.01
2.83e+06
8.55169e+06
-8263.81
3.02311e+06
8.3636e+06
-7803.57
3.17265e+06
8.142e+06
-8499.68
3.26991e+06
7.82188e+06
-6007.58
3.30605e+06
7.33035e+06
-5177.92
3.24176e+06
6.77059e+06
-9317.59
3.09142e+06
6.52099e+06
11141.5
2.8992e+06
6.51194e+06
27400.8
2.65997e+06
6.52151e+06
27033.3
2.27034e+06
6.46439e+06
-1938.75
1.72273e+06
6.42481e+06
-41237.4
1.10694e+06
6.47165e+06
-92299.1
501908
6.55451e+06
-124948
-28571.1
6.59618e+06
-91126.5
-501173
6.68791e+06
-59889.4
-890639
6.89322e+06
-113271
-1.14344e+06
7.0752e+06
-85854.1
-1.33468e+06
7.19833e+06
349.011
-1.5112e+06
7.3193e+06
56415.4
-1.69307e+06
7.47427e+06
81619.2
-1.9238e+06
7.64426e+06
89451.2
-2.20705e+06
7.83225e+06
86455.3
-2.5214e+06
8.15005e+06
66883.9
-2.84276e+06
8.61108e+06
46719.3
-3.13749e+06
9.40135e+06
26150.4
-3.3149e+06
206934
-3.63927e+06
1.00001e+07
21397.1
9.99758e+06
64599.4
9.99287e+06
106965
9.98582e+06
150243
9.97634e+06
195307
9.96433e+06
242475
9.94932e+06
291515
9.93126e+06
342752
9.90968e+06
396654
9.88359e+06
453741
9.8524e+06
513855
9.81595e+06
577247
9.77345e+06
644343
9.72475e+06
714518
9.66907e+06
788014
9.60662e+06
863385
9.5376e+06
939574
9.46368e+06
1.01431e+06
9.38794e+06
1.08477e+06
9.31724e+06
1.1482e+06
9.26149e+06
1.20378e+06
9.24101e+06
1.25847e+06
9.26403e+06
1.33073e+06
9.32171e+06
1.46109e+06
9.34623e+06
1.75821e+06
9.25199e+06
2.18411e+06
9.06795e+06
2.5633e+06
8.86118e+06
2.83269e+06
8.64729e+06
3.03022e+06
8.42e+06
3.17678e+06
8.15892e+06
3.26424e+06
7.8284e+06
3.28437e+06
7.41611e+06
3.24883e+06
6.96566e+06
3.15452e+06
6.64733e+06
2.99328e+06
6.51534e+06
2.73344e+06
6.50484e+06
2.33872e+06
6.53934e+06
1.83752e+06
6.59021e+06
1.29252e+06
6.6188e+06
733796
6.63751e+06
179256
6.77597e+06
-293237
6.9684e+06
-630662
7.01558e+06
-834278
7.06045e+06
-1.06861e+06
7.22711e+06
-1.35499e+06
7.46665e+06
-1.66336e+06
7.78108e+06
-2.05724e+06
8.20022e+06
-2.53586e+06
8.73018e+06
-3.04569e+06
9.42339e+06
-3.55545e+06