/*--------------------------------*- C++ -*----------------------------------*\
| =========                 |                                                 |
| \\      /  F ield         | OpenFOAM: The Open Source CFD Toolbox           |
|  \\    /   O peration     | Version:  4.1                                   |
|   \\  /    A nd           | Web:      www.OpenFOAM.org                      |
|    \\/     M anipulation  |                                                 |
\*---------------------------------------------------------------------------*/
FoamFile
{
    version     2.0;
    format      ascii;
    class       volScalarField;
    location    "40";
    object      omega;
}
// * * * * * * * * * * * * * * * * * * * * * * * * * * * * * * * * * * * * * //

dimensions      [0 0 -1 0 0 0 0];

internalField   nonuniform List<scalar> 
4432
(
0.0110899
0.0114504
0.011795
0.0121543
0.0124891
0.0128354
0.0131653
0.0134947
0.013819
0.0141312
0.014449
0.0147469
0.0150554
0.0153403
0.0156315
0.0158983
0.0161626
0.0164022
0.0166307
0.0168324
0.0170176
0.0171907
0.017389
0.0175716
0.0178079
0.0180048
0.0182797
0.0184867
0.0187636
0.0189622
0.0191412
0.0192994
0.0194548
0.0196108
0.0198867
0.0203095
0.0212751
0.0220522
0.0224432
0.0228217
0.0237374
0.0243284
0.0248903
0.025323
0.0258814
0.0265921
0.0275414
0.0279911
0.0286474
0.0290356
0.0304129
0.0320355
0.0500544
0.0887652
0.0110888
0.011451
0.0118032
0.0121578
0.0124947
0.0128463
0.0131656
0.0135123
0.0138148
0.0141535
0.014444
0.0147707
0.0150564
0.0153613
0.0156433
0.015919
0.0161879
0.0164353
0.0166789
0.0168882
0.0170961
0.0172698
0.0174906
0.0176579
0.0179091
0.018085
0.0183824
0.0185453
0.0188601
0.0190058
0.0192528
0.0193887
0.0196477
0.0198785
0.0202671
0.0205559
0.0208989
0.0211984
0.0218862
0.022675
0.0234721
0.0240104
0.0244093
0.0246991
0.0255827
0.026167
0.0268966
0.0271883
0.0283345
0.0289158
0.0305555
0.0311403
0.0328968
0.0607427
21.7934
3.37977
1.22554
0.661523
0.435954
0.32058
0.251913
0.206872
0.175197
0.151844
0.133878
0.119732
0.108216
0.0987641
0.0907696
0.0840156
0.0781426
0.0730726
0.0685669
0.0646007
0.0610383
0.0578263
0.0549853
0.0523742
0.0501415
0.0480205
0.0462775
0.0445272
0.0431107
0.0416306
0.0403525
0.0389847
0.03785
0.0366365
0.0357053
0.0346713
0.0338533
0.0330135
0.0322382
0.0316051
0.0308705
0.0302634
0.029518
0.0289251
0.0282547
0.0276736
0.0271678
0.0266085
0.0262334
0.0257799
0.0260306
0.0269285
0.0304146
0.0394982
21.7933
3.37988
1.22556
0.661531
0.435971
0.3206
0.25195
0.206901
0.175253
0.151883
0.133952
0.119778
0.108302
0.0988172
0.0908642
0.0840757
0.0782482
0.0731509
0.0686842
0.0647058
0.0611655
0.0579795
0.0551364
0.0525804
0.0502965
0.048236
0.046396
0.044692
0.0431802
0.0417383
0.0403883
0.0390693
0.0378955
0.0367571
0.0358007
0.0348421
0.0340232
0.0332064
0.032488
0.0317742
0.0311222
0.0304376
0.0298871
0.0292441
0.0287893
0.0282713
0.0278355
0.0275002
0.0269614
0.0268601
0.0261158
0.0263983
0.0283924
0.0340515
21.7934
3.37982
1.22644
0.662163
0.43628
0.320759
0.252069
0.207028
0.175369
0.152015
0.134073
0.119912
0.108434
0.0989567
0.0910163
0.0842305
0.0784404
0.0733368
0.0689397
0.0649455
0.0614749
0.058268
0.0554681
0.0528855
0.0506101
0.0485384
0.0466784
0.045
0.0434535
0.0420536
0.0407341
0.0395368
0.0384005
0.0373668
0.0363917
0.0354715
0.034596
0.0337675
0.0329683
0.0322147
0.0314245
0.0307145
0.0299704
0.0293122
0.028604
0.0280778
0.0274815
0.0270852
0.0266243
0.0262811
0.0259609
0.0259397
0.0269646
0.0267747
21.7933
3.37996
1.22651
0.662203
0.43631
0.320785
0.252104
0.207063
0.175418
0.152065
0.134132
0.119979
0.108496
0.09904
0.0910774
0.0843305
0.0785025
0.0734488
0.069006
0.0650561
0.061566
0.0583895
0.0556096
0.0530324
0.0507866
0.048697
0.0468427
0.0451491
0.0435935
0.0421855
0.0408858
0.0396606
0.0385892
0.0374871
0.0366169
0.035597
0.0348414
0.0339177
0.0331625
0.0323107
0.0315315
0.0308019
0.0300351
0.029404
0.0286704
0.0281572
0.0275028
0.0270047
0.0265872
0.0261439
0.0258336
0.0258702
0.0265813
0.0266163
21.7935
3.37973
1.22646
0.662172
0.436264
0.320722
0.252052
0.206984
0.175366
0.151965
0.134081
0.119861
0.10845
0.0989095
0.0910406
0.0841965
0.0784716
0.0733154
0.0689495
0.0649274
0.06147
0.0582877
0.0554739
0.0529499
0.0506217
0.0486036
0.0466802
0.0450453
0.0434803
0.0421165
0.0408249
0.0396665
0.0385228
0.0375573
0.0364988
0.035666
0.03465
0.0338525
0.032878
0.0320228
0.031127
0.030268
0.0294975
0.0287062
0.0280545
0.0274937
0.0268705
0.0264158
0.0258281
0.0251454
0.0249599
0.0246256
0.0247559
0.0251762
21.7935
3.37986
1.2265
0.662195
0.436284
0.320749
0.252076
0.207027
0.175397
0.15203
0.134115
0.119947
0.108482
0.0990137
0.0910698
0.0843154
0.0784967
0.0734391
0.0689811
0.0650548
0.0615348
0.0584148
0.0556023
0.0530669
0.050808
0.0487167
0.0468742
0.0451642
0.0436227
0.0422275
0.0409128
0.0397573
0.0386027
0.0376409
0.0365931
0.0357437
0.0347437
0.0339027
0.0329526
0.0320917
0.0312041
0.0304457
0.02963
0.0290054
0.0282903
0.0277849
0.027155
0.0267267
0.02617
0.0257239
0.0249089
0.024671
0.0255551
0.0258929
21.7936
3.37971
1.22647
0.662168
0.436239
0.320697
0.252013
0.206964
0.175324
0.151957
0.134038
0.119864
0.108407
0.0989248
0.0909955
0.084227
0.0784185
0.0733488
0.0688987
0.0649613
0.0614445
0.0583154
0.0554936
0.0529542
0.0506779
0.0485847
0.0467404
0.0450309
0.043519
0.0421182
0.0408632
0.0396863
0.0385881
0.0375056
0.0364704
0.0354279
0.0344412
0.0333985
0.0324828
0.0314698
0.0306341
0.0297691
0.0290281
0.0283638
0.0277621
0.0271558
0.0265201
0.026042
0.0254123
0.0249016
0.0243943
0.0244883
0.0244683
0.0247963
21.7935
3.37984
1.22656
0.662223
0.436274
0.320722
0.252048
0.206993
0.175373
0.151996
0.134101
0.119912
0.10848
0.0989753
0.0910837
0.0842657
0.0785257
0.0733703
0.0690285
0.064983
0.0615994
0.0583536
0.0556587
0.0530159
0.0508365
0.048664
0.0468728
0.0450846
0.0435891
0.0421215
0.0408524
0.039598
0.0384916
0.0373553
0.0363271
0.0352833
0.0343014
0.0332973
0.0323628
0.0313934
0.0305441
0.0296692
0.0289515
0.028193
0.0274912
0.0268811
0.026201
0.0257247
0.0250835
0.024774
0.0240718
0.0241458
0.0239395
0.0245481
21.7937
3.3797
1.22664
0.662267
0.436259
0.320684
0.251987
0.206945
0.17529
0.151952
0.133993
0.119881
0.108346
0.0989659
0.0909207
0.0842779
0.0783382
0.0734061
0.068834
0.0650271
0.061408
0.0583579
0.0554553
0.0529361
0.0506341
0.0485207
0.0467169
0.0449356
0.0435
0.0420322
0.0408413
0.0396228
0.0385597
0.0374731
0.0364505
0.0354228
0.0344222
0.0333912
0.0324267
0.0314124
0.0305401
0.029593
0.0288447
0.0279703
0.0273124
0.0265059
0.0259682
0.0253798
0.0249647
0.0245972
0.0242619
0.0243862
0.0253596
0.0260881
21.7936
3.37981
1.22667
0.662283
0.436278
0.3207
0.252023
0.206961
0.175353
0.151961
0.13409
0.119874
0.108477
0.0989344
0.0910809
0.0842275
0.0785154
0.0733483
0.0690146
0.0649832
0.0615742
0.0583692
0.0556049
0.0530394
0.0507598
0.0486891
0.0467993
0.0450957
0.0435392
0.0421146
0.0408169
0.0395588
0.0384591
0.0372645
0.0362381
0.0351071
0.0340998
0.0330759
0.0320945
0.0311972
0.030334
0.0295035
0.0287557
0.0279665
0.0273142
0.0265522
0.0260332
0.0254521
0.0249799
0.0245725
0.0241779
0.0242081
0.0248259
0.0250877
21.7938
3.3797
1.22671
0.662302
0.436252
0.320655
0.251961
0.206902
0.175275
0.151898
0.133994
0.11981
0.108367
0.0988753
0.0909604
0.0841737
0.0783865
0.073299
0.0688814
0.0649383
0.0614424
0.0583105
0.0554612
0.052938
0.050596
0.0485657
0.0466216
0.0450058
0.0433527
0.0421044
0.0406654
0.0396522
0.0383757
0.0374372
0.0362689
0.0353357
0.0342385
0.0333241
0.0322919
0.0314111
0.030463
0.0296069
0.0287583
0.0279209
0.0272499
0.0264371
0.0260352
0.0254653
0.0251204
0.024772
0.0244914
0.0244472
0.0253285
0.0255452
21.7937
3.37982
1.22674
0.662318
0.436269
0.320677
0.251986
0.206938
0.175308
0.151949
0.134031
0.119878
0.108397
0.0989631
0.0909751
0.0842807
0.0783876
0.0734171
0.0688831
0.0650536
0.061467
0.0584193
0.0555282
0.0530564
0.0507058
0.0486914
0.0467508
0.0451034
0.0434913
0.0421248
0.0407604
0.0395834
0.0383759
0.0372877
0.0362088
0.0351158
0.0341594
0.0330938
0.0321709
0.0312198
0.0303562
0.0294953
0.0286637
0.0279
0.0272069
0.0264713
0.0260803
0.0255066
0.0251479
0.0243989
0.0243041
0.023834
0.0245834
0.0247855
21.7939
3.37968
1.22685
0.662381
0.43626
0.320638
0.251925
0.206879
0.175234
0.151876
0.133954
0.119787
0.10833
0.0988496
0.0909258
0.0841445
0.0783524
0.0732683
0.068858
0.0649033
0.0614525
0.0582572
0.0555047
0.0528509
0.0506522
0.0484612
0.0466782
0.0448893
0.0434262
0.0419668
0.0407566
0.0394996
0.0384455
0.037304
0.0362601
0.035219
0.0341666
0.0331895
0.0321511
0.0312923
0.0303681
0.0294868
0.0287848
0.0278873
0.0272245
0.0264591
0.0260464
0.0255245
0.0250268
0.024784
0.0242556
0.0245563
0.024893
0.0260461
21.7938
3.37977
1.22685
0.662378
0.436267
0.320654
0.251948
0.206909
0.175266
0.15192
0.13399
0.119842
0.108364
0.0989148
0.0909507
0.0842243
0.07836
0.0733704
0.0688425
0.0650312
0.0614161
0.0584179
0.0554793
0.0530533
0.0506725
0.0486685
0.0467447
0.0450621
0.0434884
0.0420881
0.0407471
0.0395476
0.0383205
0.0372268
0.0360722
0.0350023
0.033931
0.032877
0.0318708
0.0309262
0.0299777
0.0291668
0.0282817
0.0276246
0.0269054
0.0264299
0.0259106
0.0255157
0.0250013
0.0244578
0.0242719
0.0236475
0.0239495
0.0244268
21.794
3.37967
1.22691
0.662408
0.436244
0.320607
0.251885
0.206844
0.17519
0.151842
0.133906
0.119751
0.108278
0.0988105
0.090871
0.0840988
0.0783005
0.0732165
0.0688167
0.0648664
0.0614416
0.0582501
0.0555114
0.0528582
0.0506505
0.0484757
0.0466303
0.0449047
0.0433255
0.0419409
0.0406438
0.0394136
0.0383546
0.0372208
0.036193
0.0352027
0.0340761
0.0331434
0.0320265
0.0311626
0.0302217
0.0293112
0.028625
0.0277034
0.027192
0.0264393
0.025925
0.0255332
0.02499
0.0252229
0.0257884
0.0265761
0.0286256
0.0295153
21.7939
3.37978
1.22694
0.662421
0.436256
0.320628
0.251904
0.206881
0.175213
0.151897
0.133928
0.119822
0.108293
0.0988941
0.090878
0.0841924
0.078301
0.0733201
0.0688121
0.0649758
0.0614162
0.0583791
0.0554806
0.0530317
0.050653
0.048671
0.0466861
0.0450717
0.0433871
0.0420635
0.0406293
0.0394976
0.0382134
0.0372324
0.0360205
0.0350526
0.0339654
0.0329467
0.0319121
0.0309385
0.0299351
0.0290655
0.0281812
0.0274105
0.0267119
0.0262386
0.0256824
0.0252249
0.0249091
0.0243278
0.0243949
0.0245352
0.0257417
0.0260844
21.7941
3.37964
1.22706
0.662491
0.436256
0.320581
0.251857
0.2068
0.175161
0.151794
0.133874
0.119702
0.108236
0.0987642
0.0908159
0.0840571
0.0782345
0.0731859
0.0687617
0.0648633
0.0614026
0.058276
0.055488
0.0528484
0.0506705
0.0484318
0.0466728
0.0448309
0.043327
0.0418991
0.0405895
0.0394309
0.0382564
0.0371557
0.0360932
0.0349531
0.0339106
0.0327694
0.0317618
0.0308168
0.0298762
0.0289968
0.0282239
0.0273851
0.026842
0.0262282
0.0259277
0.0260055
0.0266087
0.0276628
0.0291186
0.0321673
0.0313178
0.0325218
21.794
3.37972
1.22703
0.662474
0.436254
0.320596
0.251871
0.206833
0.175182
0.151839
0.133901
0.119753
0.108267
0.0988139
0.0908497
0.0841036
0.07827
0.0732258
0.068794
0.0648802
0.061425
0.05826
0.0555326
0.05289
0.0507622
0.0485566
0.0468227
0.0449695
0.0435125
0.0419586
0.0407427
0.0393811
0.0383016
0.0370896
0.0360546
0.0348665
0.0338908
0.0327382
0.0317551
0.0308403
0.0298323
0.0289907
0.0281393
0.0273677
0.0267424
0.0262864
0.0256495
0.0249853
0.0252238
0.025594
0.026143
0.0266646
0.0278406
0.0290347
21.7941
3.37962
1.22707
0.662482
0.436228
0.320539
0.251822
0.206749
0.175129
0.151733
0.133844
0.119629
0.108207
0.0986766
0.0907836
0.0839547
0.0781902
0.0730777
0.0686897
0.0647655
0.0613208
0.0582335
0.0554016
0.0529343
0.0506838
0.0486868
0.0467852
0.0450788
0.0434676
0.0421018
0.040731
0.0395452
0.0383416
0.037224
0.0360662
0.0349561
0.0339544
0.0327514
0.0318435
0.030837
0.0299845
0.0291632
0.0284952
0.0280453
0.0278728
0.0278403
0.0281951
0.0291497
0.0309549
0.033038
0.0339298
0.0349233
0.0361126
0.037127
21.794
3.37972
1.22708
0.662484
0.436235
0.320556
0.25184
0.206779
0.175155
0.151771
0.133879
0.119668
0.108252
0.0987069
0.0908412
0.0839719
0.0782618
0.0730812
0.068765
0.0647481
0.0613667
0.0581957
0.0554518
0.0529318
0.0507781
0.0487042
0.0468919
0.0451366
0.0435451
0.042138
0.0407309
0.0394778
0.0382485
0.0370167
0.0359775
0.0347381
0.0338524
0.0326262
0.0318276
0.0307259
0.0300023
0.0289569
0.0283414
0.0275186
0.0270092
0.0264882
0.0262723
0.0263987
0.0267148
0.027546
0.0283151
0.030102
0.0314739
0.0340355
21.7942
3.37959
1.22718
0.662544
0.436227
0.32052
0.251779
0.206725
0.175072
0.151711
0.133777
0.119604
0.108128
0.0986468
0.0906892
0.0839166
0.0780761
0.0730157
0.0685635
0.0646809
0.0612019
0.0581621
0.0553714
0.0530268
0.050991
0.0491184
0.0472802
0.0456161
0.0439113
0.0426463
0.0410842
0.0400375
0.0386169
0.0376387
0.0364191
0.0354988
0.0344891
0.0337404
0.0326253
0.0328576
0.0326913
0.0328649
0.0333607
0.0334973
0.034542
0.0354198
0.0364686
0.0380076
0.0386304
0.0395118
0.0392302
0.0385376
0.0377119
0.0369395
21.7941
3.37966
1.22716
0.662532
0.436228
0.320531
0.251796
0.20675
0.175095
0.15175
0.133798
0.119657
0.108145
0.0987027
0.0907097
0.0839625
0.0781116
0.0730451
0.0686058
0.0646833
0.0612146
0.0581255
0.0553639
0.0529864
0.0509764
0.0490446
0.0472771
0.0455171
0.0439443
0.0424598
0.0410931
0.0397686
0.0385337
0.0373277
0.0361641
0.035153
0.0339781
0.0332011
0.0322652
0.0314881
0.0310037
0.030214
0.0305338
0.0304166
0.0306521
0.0304294
0.0308817
0.0318754
0.0333603
0.0341957
0.0360478
0.0366065
0.0381163
0.0389744
21.7942
3.37956
1.22718
0.662532
0.436202
0.320479
0.251749
0.206675
0.175042
0.151656
0.133742
0.119542
0.108088
0.0985705
0.0906444
0.0838177
0.0780135
0.0728929
0.0684517
0.0645322
0.0610025
0.0581479
0.0551187
0.0537965
0.0519653
0.0521855
0.0509783
0.0504871
0.049606
0.048078
0.0483791
0.0481166
0.0478742
0.0481531
0.0476608
0.0491376
0.0494251
0.0502122
0.048837
0.0520156
0.0525938
0.0527934
0.052645
0.0515528
0.0496973
0.0474287
0.0454782
0.0439282
0.0422277
0.0407909
0.039073
0.0374166
0.0372085
0.0355781
21.7941
3.37965
1.22718
0.662531
0.436205
0.320497
0.251758
0.206709
0.175055
0.151702
0.133756
0.119599
0.108096
0.0986383
0.0906422
0.0838964
0.0780037
0.0729802
0.0684341
0.0646242
0.060948
0.058192
0.0550818
0.0536604
0.0518932
0.0513797
0.0501191
0.0482411
0.0470402
0.0453258
0.0442228
0.042682
0.041564
0.041428
0.0407755
0.0409309
0.0405881
0.0426518
0.0413902
0.044303
0.0448149
0.0451581
0.045791
0.0436271
0.0461057
0.0446469
0.0437315
0.0443481
0.0439108
0.042704
0.0417285
0.0399609
0.0398639
0.037915
21.7943
3.37951
1.22726
0.662576
0.436203
0.320447
0.251732
0.206621
0.175038
0.151577
0.133757
0.11943
0.108127
0.0984122
0.0907166
0.0835883
0.0781367
0.0725444
0.0686348
0.0640057
0.0612973
0.057289
0.0562342
0.0558297
0.0634651
0.112623
0.115682
0.11932
0.118093
0.115668
0.11335
0.108692
0.103753
0.0990219
0.0943523
0.0896597
0.0848146
0.0797707
0.0744166
0.0690656
0.0637686
0.0588195
0.0542328
0.0505615
0.0477576
0.0449121
0.0428645
0.0409872
0.0400789
0.0385903
0.0380724
0.037067
0.03674
0.0368964
21.7942
3.37958
1.2272
0.662536
0.436192
0.320456
0.251742
0.206646
0.175054
0.151612
0.133776
0.119473
0.108148
0.0984574
0.0907386
0.0836384
0.0781525
0.072616
0.0686302
0.0640941
0.0612348
0.0574278
0.0559261
0.0555627
0.0637923
0.0925334
0.0966683
0.10095
0.102153
0.100789
0.0990238
0.0952899
0.0944309
0.0869478
0.0923994
0.0911769
0.0875374
0.0833214
0.0789283
0.073289
0.0678907
0.0630445
0.05881
0.0552787
0.0524719
0.0498915
0.0472239
0.0450518
0.0430368
0.0405563
0.0390309
0.03824
0.0363148
0.0365987
21.7943
3.37948
1.22723
0.662546
0.436178
0.320413
0.25171
0.206578
0.175024
0.15152
0.133752
0.119356
0.108132
0.0983197
0.0907241
0.083486
0.0781161
0.0724671
0.068503
0.064018
0.0610764
0.056423
0.058263
0.0649617
0.22646
0.357924
0.132231
0.0983581
0.0903876
0.0758579
0.0665615
0.0614857
0.0586389
0.0577428
0.0569995
0.0564923
0.0551976
0.0541265
0.0526878
0.0512685
0.049895
0.0478395
0.0466091
0.044956
0.0430587
0.0418492
0.0397601
0.0385433
0.0365383
0.0349223
0.0352778
0.0371401
0.0344648
0.0342015
21.7942
3.37956
1.22719
0.662514
0.436172
0.320418
0.251729
0.206592
0.175054
0.151536
0.133792
0.119372
0.108179
0.098332
0.0907762
0.0834976
0.0781719
0.0724733
0.0686144
0.0638783
0.0613775
0.0567011
0.0568018
0.0624815
0.203992
0.320844
0.187729
0.121473
0.0984247
0.0814522
0.0708817
0.066265
0.0645873
0.0633535
0.061647
0.0599005
0.0578382
0.0558294
0.0539191
0.0521825
0.0503088
0.048633
0.0468232
0.0451061
0.0436559
0.0411484
0.0393797
0.0377001
0.035822
0.0349652
0.0342331
0.0342364
0.0342749
0.0347229
21.7943
3.37942
1.22724
0.662551
0.436166
0.320388
0.251691
0.206547
0.175006
0.151486
0.133735
0.119319
0.108113
0.0982801
0.0907018
0.0834456
0.0780887
0.0724138
0.0685237
0.0637872
0.0613602
0.0566963
0.0550633
0.125232
0.2261
0.216201
0.170339
0.144767
0.129343
0.118981
0.110437
0.103073
0.0964516
0.089666
0.0835006
0.0769367
0.0708832
0.064941
0.0591087
0.0542075
0.0491827
0.0457311
0.0417301
0.0381025
0.0351461
0.0331334
0.0308277
0.0306462
0.0299788
0.0318352
0.0327717
0.0341873
0.0327916
21.7941
3.37947
1.22717
0.662496
0.436147
0.320392
0.251701
0.206566
0.175024
0.151511
0.133759
0.119345
0.108144
0.0983015
0.0907483
0.083445
0.0781808
0.072356
0.068702
0.0636726
0.0615142
0.0563809
0.0591427
0.1291
0.201704
0.199324
0.152738
0.135277
0.123827
0.115257
0.108218
0.101511
0.0953403
0.0884931
0.0826092
0.0762731
0.0706436
0.0651185
0.0600902
0.0549382
0.0509315
0.0464905
0.0432227
0.0395691
0.0365732
0.0329121
0.0306119
0.0302398
0.0297071
0.0301453
0.0320942
0.0342028
0.0336563
21.7942
3.37938
1.22716
0.662494
0.436116
0.320385
0.251631
0.206579
0.174916
0.151552
0.133614
0.119415
0.107967
0.0984021
0.0905385
0.083589
0.0779238
0.0725668
0.0683636
0.0640427
0.0609169
0.0574361
0.0555845
0.059328
0.0963793
0.0950425
0.0837607
0.0785722
0.0730665
0.0677331
0.0624297
0.0573563
0.0527189
0.0484363
0.0445799
0.0414579
0.0384106
0.0360785
0.0336121
0.0318818
0.0301971
0.0290196
0.0280457
0.0270446
0.0265974
0.0263055
0.0258122
0.0274462
0.0278378
0.0273281
0.0279613
0.0308583
0.0302948
0.0308837
21.7941
3.37944
1.2271
0.662456
0.436102
0.320392
0.251638
0.206605
0.174923
0.151593
0.133613
0.119471
0.107958
0.0984683
0.0905257
0.0836554
0.0779229
0.0726221
0.0683948
0.0640646
0.0609914
0.0573746
0.0557651
0.0589072
0.0929054
0.0804643
0.0757398
0.0730484
0.0694612
0.0653402
0.0611703
0.0568788
0.0528346
0.0493081
0.045567
0.0430125
0.039855
0.0377721
0.0351851
0.0333129
0.0315796
0.0297066
0.0287987
0.0276578
0.0269877
0.0266787
0.0260957
0.0259123
0.0273029
0.0268293
0.0277385
0.0305679
0.0301009
0.0306236
21.7942
3.37931
1.22712
0.662466
0.436094
0.320365
0.251619
0.206564
0.174903
0.151546
0.133589
0.11943
0.107922
0.0984473
0.0904732
0.0836677
0.0778443
0.0726905
0.0682708
0.0642332
0.0607774
0.0576507
0.0549747
0.0529807
0.0520875
0.0507026
0.048844
0.0468012
0.0449282
0.0431149
0.0414129
0.0398586
0.0383489
0.0369117
0.0355802
0.0342243
0.0330019
0.0318896
0.0307542
0.0296131
0.0284825
0.0277466
0.0269283
0.0266334
0.0266423
0.025882
0.0263345
0.0256939
0.0257476
0.0265865
0.0270198
0.0275747
0.0302169
0.0298586
21.794
3.37934
1.22697
0.662371
0.436063
0.320355
0.251638
0.206561
0.174944
0.151534
0.133649
0.119407
0.107995
0.0984222
0.0905431
0.083658
0.0779003
0.0727097
0.0683121
0.0642886
0.0607997
0.0577485
0.0549522
0.0531752
0.0518105
0.0506772
0.0487363
0.0469451
0.0450478
0.0433484
0.041776
0.0401816
0.0388345
0.0374142
0.0360855
0.0349133
0.0335183
0.0326325
0.031331
0.0305949
0.0293294
0.0284627
0.0277959
0.0270256
0.0267324
0.0261109
0.0257878
0.0254065
0.0254106
0.0260428
0.0274631
0.0277917
0.0285334
0.0275923
21.7941
3.37926
1.227
0.662392
0.436062
0.320341
0.251613
0.206544
0.174905
0.151529
0.13359
0.119425
0.107915
0.0984668
0.090455
0.0837169
0.0778295
0.0727642
0.0682914
0.0643248
0.060858
0.0576772
0.0549778
0.0525537
0.05056
0.0486945
0.0469174
0.0450956
0.0434794
0.0418134
0.040318
0.0389162
0.0374714
0.0362605
0.034934
0.0337822
0.0325711
0.0314582
0.0305348
0.0292175
0.0281742
0.0277053
0.0265263
0.0270517
0.0257335
0.0259698
0.0252622
0.025301
0.0266839
0.0253964
0.025803
0.0263399
0.0298702
0.0292448
21.7939
3.37931
1.22693
0.662341
0.436042
0.320348
0.251619
0.206567
0.174913
0.151556
0.133604
0.119451
0.107934
0.0984924
0.0904732
0.0837516
0.0778413
0.0728212
0.06829
0.0644149
0.0608371
0.0578109
0.0549738
0.0527039
0.0505908
0.0488504
0.046965
0.0453383
0.0435777
0.0421377
0.0405541
0.0392453
0.037876
0.0366545
0.0353691
0.0342993
0.0330227
0.0321667
0.0310717
0.0302268
0.0293447
0.028483
0.0276749
0.0268976
0.0263292
0.0256039
0.0256235
0.0246618
0.0253967
0.0248277
0.0248343
0.0249897
0.026964
0.0266893
21.794
3.37918
1.22691
0.662339
0.436034
0.320335
0.251599
0.206551
0.174888
0.151544
0.133573
0.119449
0.107897
0.0985053
0.0904318
0.0837833
0.077797
0.0728716
0.0682557
0.0644734
0.0608317
0.0578618
0.0549513
0.0525939
0.0503413
0.0484071
0.0465721
0.0447948
0.0431957
0.0415587
0.0401184
0.0387466
0.0373366
0.0362003
0.0348841
0.0337295
0.0326112
0.0314574
0.0304784
0.0294474
0.0285552
0.0277273
0.0271909
0.026505
0.0260899
0.0259534
0.0257744
0.0247955
0.0248203
0.0259554
0.0267618
0.0257315
0.0267662
0.0273491
21.7939
3.37922
1.22683
0.662287
0.436019
0.320333
0.251613
0.206556
0.174916
0.151541
0.133617
0.11943
0.107966
0.0984606
0.0905334
0.0837131
0.0779316
0.0727904
0.0684105
0.0644031
0.0609887
0.0578218
0.0550952
0.0526075
0.0504782
0.0484582
0.0466916
0.0449281
0.0432819
0.0417862
0.0402543
0.0389891
0.0376275
0.0364595
0.0352353
0.0342237
0.032925
0.032197
0.0309928
0.0302566
0.0290871
0.0282007
0.027399
0.0268512
0.0262196
0.0256305
0.0253848
0.0246031
0.0247596
0.0247994
0.0253364
0.0258309
0.0259373
0.0266192
21.7939
3.37913
1.22678
0.662256
0.436
0.320317
0.2516
0.20654
0.174901
0.151529
0.133595
0.119433
0.10793
0.0984908
0.0904788
0.0837745
0.0778628
0.0728761
0.0683435
0.064499
0.0609424
0.0578914
0.0550566
0.0526185
0.0503162
0.0483682
0.0464076
0.0447391
0.0430164
0.0415201
0.0400369
0.0387325
0.0373628
0.0362017
0.0350011
0.0337669
0.0327778
0.0315881
0.0308452
0.0297305
0.0288421
0.0280065
0.0273112
0.0266353
0.0257681
0.0253896
0.0250573
0.0242366
0.0244294
0.0244847
0.0247737
0.0257439
0.0271188
0.0267217
21.7938
3.37918
1.22672
0.662216
0.435987
0.320325
0.251604
0.206561
0.174904
0.151559
0.133596
0.119466
0.107932
0.0985252
0.0904836
0.0838125
0.0778738
0.0729229
0.0683636
0.0645564
0.0609743
0.0579545
0.0551236
0.05268
0.0504094
0.0484308
0.0465187
0.0448053
0.0431488
0.0416179
0.0401929
0.0388487
0.0375589
0.0363832
0.0352652
0.0341458
0.0330367
0.0321479
0.0309316
0.0301547
0.0290777
0.0281838
0.0274556
0.0268451
0.0264968
0.0256927
0.0254488
0.0244949
0.0244679
0.0244215
0.024557
0.025803
0.0254325
0.0277933
21.7938
3.37905
1.22668
0.662197
0.435974
0.320313
0.251594
0.206549
0.174895
0.151544
0.133591
0.119451
0.107933
0.0985107
0.0904941
0.0837947
0.0778979
0.0728962
0.0684051
0.0645217
0.0610216
0.0579334
0.0551344
0.0526412
0.0503427
0.048322
0.0463701
0.0446361
0.042993
0.0413853
0.0400483
0.038542
0.0374263
0.0360994
0.0350809
0.0338779
0.0329462
0.0319711
0.0310269
0.030113
0.0291842
0.0283818
0.0276409
0.0268097
0.0262473
0.0255054
0.0250457
0.0245967
0.0246907
0.0255635
0.0245046
0.0249566
0.0250081
0.0269136
21.7936
3.37909
1.2266
0.662145
0.435959
0.320313
0.251605
0.206556
0.174916
0.151545
0.133624
0.119442
0.107977
0.0984961
0.0905444
0.0837891
0.0779439
0.0729199
0.0684347
0.0645868
0.0610324
0.0580338
0.0551298
0.0527583
0.0503708
0.0484151
0.0464314
0.0447542
0.0430502
0.0415732
0.0401069
0.0387591
0.0375109
0.0363129
0.0351806
0.0340993
0.0330939
0.0320223
0.0311689
0.0301166
0.0293808
0.0284951
0.0278189
0.026927
0.0264293
0.0255765
0.0252823
0.0247072
0.0244901
0.0251733
0.0246483
0.0246871
0.0255831
0.0298503
21.7937
3.379
1.22656
0.662118
0.435946
0.3203
0.251601
0.20654
0.174915
0.151528
0.133627
0.119424
0.107988
0.0984752
0.0905646
0.0837632
0.0779715
0.0728903
0.0684648
0.064552
0.0610658
0.0579695
0.0551679
0.0526502
0.0503711
0.0482468
0.0463919
0.0445288
0.0429916
0.0413088
0.0400284
0.0384905
0.0374314
0.0360491
0.0351335
0.033893
0.033058
0.031956
0.0311459
0.030119
0.0292667
0.0284008
0.0275584
0.0268303
0.02619
0.0255473
0.0251641
0.0252155
0.0250238
0.0251036
0.0247149
0.024866
0.025771
0.0309574
21.7935
3.37905
1.22649
0.662077
0.435933
0.320308
0.251604
0.206561
0.174916
0.151555
0.133625
0.119454
0.107987
0.0985045
0.0905709
0.0837936
0.0779889
0.072926
0.0684958
0.0645923
0.0611136
0.0580053
0.0552448
0.052682
0.0504589
0.0483083
0.0464653
0.0446324
0.0430488
0.0414681
0.040087
0.0386745
0.0374982
0.0362023
0.0352095
0.0340178
0.0331392
0.0320485
0.0311922
0.0302572
0.0294215
0.028637
0.0278274
0.0271647
0.0264703
0.0261146
0.0257955
0.0253215
0.0253431
0.0254925
0.0254168
0.0259841
0.028506
0.037878
21.7935
3.37894
1.22644
0.662048
0.435921
0.320296
0.251604
0.206546
0.174921
0.151538
0.133632
0.119439
0.107992
0.0984973
0.0905693
0.0837923
0.0779814
0.0729225
0.0684841
0.0645797
0.0610913
0.0579913
0.0551989
0.0526477
0.0503813
0.0482431
0.0463482
0.0445366
0.0429104
0.041362
0.0399333
0.0385958
0.0373413
0.0361486
0.035074
0.0339702
0.0330518
0.0319918
0.0311385
0.030178
0.0293481
0.0285112
0.0278294
0.0273492
0.0268013
0.0266898
0.0263656
0.0261552
0.0258742
0.0259314
0.0261471
0.0274671
0.030581
0.0440016
21.7934
3.37898
1.22637
0.662007
0.435907
0.320303
0.251605
0.206568
0.174917
0.151568
0.133621
0.119477
0.10798
0.0985338
0.0905698
0.0838186
0.07801
0.0729358
0.0685408
0.064594
0.0611541
0.058034
0.0552329
0.0527344
0.0504048
0.0483478
0.0463815
0.0446496
0.0429533
0.0414904
0.0399727
0.0387452
0.0373642
0.036311
0.0350767
0.0341554
0.0330642
0.0322125
0.0312272
0.0304217
0.0296094
0.0288494
0.0281722
0.027517
0.027127
0.0266242
0.0264194
0.025661
0.0259554
0.0265324
0.0270489
0.0290611
0.0394407
0.0550913
21.7934
3.3789
1.22634
0.661989
0.435898
0.320298
0.251601
0.206563
0.174912
0.151565
0.133615
0.119476
0.107971
0.0985357
0.0905592
0.083818
0.0779987
0.0729228
0.0685328
0.0645563
0.0611556
0.0579517
0.0552489
0.052613
0.0504079
0.0481983
0.0463564
0.0444878
0.0429028
0.0413258
0.0399158
0.0385803
0.0372996
0.0361593
0.0350257
0.0340358
0.0330763
0.0322065
0.0314002
0.0306162
0.029964
0.0293058
0.0288332
0.028409
0.0279249
0.027659
0.02679
0.0269901
0.0265094
0.0284438
0.0287925
0.0356853
0.0508798
0.0706348
21.7933
3.37895
1.22627
0.661946
0.435887
0.3203
0.251612
0.206569
0.174929
0.151567
0.133637
0.119475
0.107996
0.0985386
0.0905802
0.0838393
0.0780085
0.072974
0.0685304
0.064636
0.0611482
0.058049
0.0552465
0.0527258
0.0504015
0.0483366
0.0463513
0.0446356
0.0429122
0.0414548
0.03995
0.0387019
0.037381
0.0362818
0.0351392
0.0341581
0.0331347
0.0322386
0.0313706
0.0305832
0.0298554
0.0292107
0.028408
0.0278396
0.0272725
0.0267363
0.0264687
0.0259388
0.0264887
0.0275418
0.0296609
0.0378244
0.0672632
0.0862297
21.7933
3.37885
1.22624
0.661931
0.435882
0.320296
0.25161
0.206565
0.174928
0.151561
0.133637
0.119465
0.108
0.0985238
0.0905876
0.0838159
0.0780158
0.0729396
0.0685299
0.0645903
0.061132
0.0579992
0.0552115
0.0526593
0.0503584
0.0482424
0.0462999
0.0445141
0.0428551
0.0413229
0.0398914
0.038564
0.0373211
0.0361645
0.0351013
0.0340925
0.033206
0.0323313
0.0315811
0.0308611
0.03021
0.0295512
0.0290282
0.0285279
0.027998
0.0275265
0.0272942
0.0278473
0.027694
0.0349327
0.0392164
0.0587115
0.0931872
0.121353
21.7932
3.37889
1.22617
0.661889
0.43587
0.320299
0.251616
0.206576
0.174935
0.151574
0.133643
0.119481
0.108005
0.0985452
0.090593
0.0838467
0.0780242
0.0729827
0.0685456
0.0646444
0.0611592
0.0580601
0.0552454
0.0527257
0.0504056
0.0483101
0.0463549
0.0445957
0.0428986
0.041429
0.0399054
0.0386971
0.0373214
0.0362849
0.0351674
0.0341775
0.0330873
0.0321855
0.031314
0.0305262
0.0297642
0.0292115
0.0280731
0.027691
0.0263908
0.0266504
0.0263927
0.02695
0.0276164
0.0311243
0.0380213
0.0672968
0.107512
0.129314
21.7933
3.37886
1.22619
0.661909
0.43588
0.320301
0.251616
0.20657
0.174932
0.151565
0.133641
0.119471
0.108003
0.0985328
0.0905897
0.0838305
0.0780149
0.0729599
0.0685243
0.0646123
0.0611231
0.0580135
0.0551967
0.0526683
0.0503413
0.0482352
0.046284
0.0444921
0.0428348
0.0412867
0.0398649
0.0385166
0.0372877
0.03612
0.0350558
0.0340619
0.0331574
0.0323195
0.0315088
0.0308671
0.0300574
0.0295151
0.0286885
0.0285964
0.0275093
0.0281449
0.0296415
0.0332681
0.0363582
0.0583494
0.0736639
0.114467
0.130386
0.175954
21.7932
3.3789
1.22614
0.661873
0.435872
0.320306
0.251625
0.206581
0.174942
0.151576
0.13365
0.119483
0.108012
0.0985478
0.0906023
0.0838503
0.0780349
0.0729862
0.0685563
0.0646459
0.0611682
0.0580519
0.0552556
0.0527111
0.0504066
0.0482922
0.0463501
0.044566
0.0428987
0.04138
0.0399247
0.0386262
0.0373471
0.0362398
0.0351212
0.034177
0.0331968
0.0324149
0.0315215
0.0309119
0.0301517
0.0296003
0.028781
0.028488
0.0279992
0.0282908
0.0287751
0.0317374
0.0343092
0.0442115
0.0656156
0.108945
0.120711
0.185856
21.7931
3.3789
1.22621
0.661936
0.435913
0.320334
0.251647
0.206598
0.174958
0.151589
0.133665
0.119492
0.108026
0.0985513
0.0906135
0.0838465
0.0780388
0.0729725
0.0685468
0.0646207
0.0611408
0.0580204
0.055211
0.0526722
0.0503495
0.0482427
0.0462802
0.044495
0.0428224
0.0412812
0.0398469
0.0385018
0.0372637
0.0360884
0.035024
0.0339991
0.0330922
0.0321935
0.0314861
0.0304005
0.0295442
0.02905
0.0285156
0.0292971
0.0298921
0.0359197
0.0410179
0.056519
0.0740513
0.0896426
0.100002
0.129639
0.169881
0.259939
21.793
3.37893
1.22616
0.661897
0.435903
0.320338
0.251655
0.206609
0.174968
0.1516
0.133674
0.119502
0.108037
0.0985622
0.0906273
0.0838603
0.0780599
0.0729921
0.068579
0.0646479
0.0611855
0.0580544
0.0552635
0.0527133
0.0504093
0.0482892
0.0463441
0.0445562
0.0428821
0.0413624
0.0398945
0.0386045
0.0372949
0.0362144
0.0350411
0.0341375
0.0331199
0.0323234
0.0314715
0.0307976
0.0300669
0.0296115
0.0291104
0.0293655
0.0307354
0.0336479
0.0380748
0.0448682
0.0547413
0.0685043
0.101266
0.12449
0.152301
0.247362
21.7927
3.3782
1.22542
0.661301
0.435407
0.319888
0.251232
0.206195
0.174575
0.151218
0.133309
0.119155
0.107716
0.0982601
0.0903453
0.0835895
0.0777954
0.0727314
0.0683109
0.0643815