/*--------------------------------*- C++ -*----------------------------------*\
| =========                 |                                                 |
| \\      /  F ield         | OpenFOAM: The Open Source CFD Toolbox           |
|  \\    /   O peration     | Version:  4.1                                   |
|   \\  /    A nd           | Web:      www.OpenFOAM.org                      |
|    \\/     M anipulation  |                                                 |
\*---------------------------------------------------------------------------*/
FoamFile
{
    version     2.0;
    format      ascii;
    class       volScalarField;
    location    "40";
    object      p;
}
// * * * * * * * * * * * * * * * * * * * * * * * * * * * * * * * * * * * * * //

dimensions      [0 2 -2 0 0 0 0];

internalField   nonuniform List<scalar> 
4432
(
100686
100687
100685
100686
100689
100694
100701
100706
100711
100716
100721
100726
100733
100742
100753
100765
100774
100780
100783
100790
100805
100823
100847
100877
100906
100932
100958
100981
100999
101013
101021
101024
101026
101016
100996
100951
100887
100923
100961
100960
100928
100880
100861
100838
100796
100803
100617
100451
100525
100709
100678
100412
99399.1
98931.4
100686
100686
100685
100686
100689
100695
100701
100706
100711
100716
100721
100726
100734
100743
100753
100765
100773
100779
100782
100789
100804
100827
100850
100876
100906
100936
100960
100980
100999
101017
101026
101025
101023
101004
100979
100957
100947
100935
100924
100927
100919
100902
100881
100824
100733
100783
100693
100508
100549
100668
100663
100561
99436.1
98896
100685
100685
100683
100683
100687
100692
100698
100704
100710
100714
100719
100725
100732
100741
100753
100767
100786
100805
100822
100831
100844
100865
100887
100905
100923
100942
100962
100984
101006
101023
101034
101034
101021
100994
100955
100913
100908
100918
100926
100924
100889
100852
100840
100831
100797
100749
100662
100537
100560
100653
100854
100824
98472.9
99955.7
100685
100684
100683
100684
100687
100692
100698
100704
100709
100714
100719
100725
100732
100741
100753
100767
100785
100805
100822
100832
100844
100864
100884
100902
100920
100939
100960
100982
101003
101022
101030
101027
101016
100997
100967
100932
100914
100907
100909
100909
100898
100872
100858
100856
100814
100770
100694
100568
100595
100683
100793
101007
98560.7
99971.9
100683
100683
100682
100682
100686
100691
100697
100703
100709
100713
100718
100723
100730
100739
100750
100762
100778
100794
100815
100830
100847
100867
100885
100901
100918
100939
100962
100986
101013
101039
101055
101054
101042
101008
100954
100904
100896
100912
100922
100918
100891
100858
100863
100854
100818
100745
100698
100621
100599
100511
100334
99950.3
99539.6
100847
100683
100683
100682
100683
100686
100691
100697
100703
100708
100713
100718
100723
100730
100739
100749
100763
100778
100794
100816
100830
100846
100866
100884
100899
100916
100937
100959
100985
101012
101038
101053
101050
101032
101000
100960
100924
100917
100920
100913
100900
100884
100864
100867
100873
100835
100769
100694
100628
100583
100488
100362
100064
99479.1
100839
100681
100681
100680
100680
100683
100688
100694
100700
100705
100710
100714
100720
100726
100734
100744
100756
100770
100789
100812
100827
100843
100862
100879
100895
100914
100938
100964
100993
101026
101057
101073
101075
101071
101024
100938
100850
100824
100860
100887
100919
100921
100869
100871
100871
100843
100792
100777
100698
100655
100618
100481
100245
99968.8
100172
100681
100680
100679
100680
100683
100688
100694
100700
100705
100710
100714
100719
100726
100734
100744
100756
100770
100789
100813
100827
100843
100862
100879
100894
100913
100937
100963
100993
101028
101058
101073
101074
101066
101018
100944
100887
100881
100890
100892
100879
100887
100882
100884
100870
100848
100801
100747
100703
100640
100632
100516
100412
99845.7
100117
100678
100678
100677
100677
100680
100685
100691
100697
100702
100706
100710
100715
100721
100729
100739
100750
100766
100783
100804
100820
100834
100852
100870
100888
100909
100936
100966
100997
101034
101065
101077
101083
101078
101051
101056
100815
100809
100837
100861
100916
100951
100908
100887
100890
100907
100905
100810
100689
100630
100639
100696
100377
99883
100868
100677
100677
100676
100677
100680
100685
100691
100697
100702
100706
100710
100715
100721
100729
100739
100751
100765
100783
100805
100820
100834
100851
100870
100888
100910
100937
100965
100998
101038
101069
101079
101079
101071
101032
100963
100885
100852
100859
100870
100876
100926
100932
100910
100890
100877
100845
100788
100727
100674
100673
100656
100624
99854.8
100690
100674
100674
100673
100673
100676
100681
100687
100692
100697
100701
100705
100709
100715
100723
100733
100744
100758
100774
100791
100809
100823
100838
100855
100876
100898
100925
100954
100983
101015
101041
101056
101076
101112
101338
101649
100903
100811
100826
100847
100852
100882
100897
100917
100914
100919
100944
100845
100723
100637
100625
100659
100324
99897.5
100733
100674
100674
100673
100673
100676
100681
100687
100692
100697
100701
100705
100709
100715
100723
100732
100744
100759
100775
100791
100808
100824
100838
100855
100877
100901
100926
100954
100981
101013
101038
101051
101056
101057
101101
101111
100919
100829
100835
100851
100852
100881
100922
100919
100917
100920
100893
100820
100738
100672
100643
100625
100303
99928.9
100936
100670
100670
100668
100669
100671
100676
100681
100687
100691
100695
100698
100703
100709
100716
100726
100737
100750
100765
100780
100795
100811
100826
100837
100858
100881
100905
100931
100950
100962
100977
101009
101062
101197
101738
101349
101322
100814
100808
100839
100838
100839
100897
100928
100920
100914
100928
100881
100788
100688
100629
100662
100480
100006
100603
100669
100669
100668
100669
100672
100676
100682
100687
100691
100694
100698
100703
100708
100716
100726
100737
100750
100765
100779
100795
100812
100828
100837
100858
100885
100908
100929
100943
100959
100974
100992
101022
101064
101169
101178
100911
100782
100800
100831
100837
100853
100896
100917
100919
100933
100932
100861
100765
100679
100605
100547
100301
100074
100625
100665
100665
100663
100664
100666
100671
100676
100680
100684
100688
100691
100695
100701
100708
100718
100728
100740
100753
100767
100780
100796
100812
100823
100832
100856
100876
100895
100904
100904
100901
100913
100950
101004
101133
101050
100808
100786
100817
100851
100858
100855
100872
100893
100887
100881
100913
100919
100860
100733
100599
100587
100463
100110
100752
100665
100664
100663
100664
100666
100671
100676
100680
100684
100688
100691
100695
100701
100708
100717
100728
100740
100753
100766
100780
100796
100812
100823
100835
100860
100881
100896
100898
100896
100899
100905
100930
100978
101005
100998
100861
100795
100825
100859
100861
100854
100862
100868
100873
100914
100947
100911
100815
100688
100595
100571
100395
100086
100776
100659
100659
100658
100658
100660
100664
100669
100673
100677
100680
100683
100687
100692
100699
100708
100718
100729
100741
100753
100766
100779
100793
100805
100811
100823
100842
100854
100856
100852
100850
100857
100875
100911
100933
100915
100834
100813
100858
100897
100908
100894
100864
100849
100848
100857
100899
100935
100904
100773
100604
100514
100389
100199
100909
100659
100659
100658
100658
100660
100665
100669
100673
100677
100680
100683
100687
100692
100699
100708
100718
100729
100741
100753
100766
100779
100793
100806
100816
100824
100841
100852
100850
100848
100850
100857
100875
100904
100920
100918
100876
100865
100888
100914
100922
100900
100861
100826
100823
100874
100932
100939
100862
100733
100610
100518
100315
100091
100857
100653
100653
100652
100652
100654
100657
100662
100665
100669
100671
100674
100678
100683
100689
100697
100707
100717
100728
100739
100750
100762
100772
100781
100790
100790
100798
100805
100811
100817
100820
100827
100848
100882
100906
100926
100910
100909
100931
100951
100961
100953
100906
100848
100825
100839
100892
100945
100943
100835
100661
100554
100495
100542
100981
100653
100653
100652
100652
100654
100658
100662
100665
100669
100671
100674
100678
100682
100689
100697
100706
100717
100727
100739
100750
100762
100773
100783
100789
100790
100794
100804
100814
100817
100820
100829
100848
100877
100909
100934
100931
100933
100945
100961
100975
100964
100917
100851
100814
100848
100920
100954
100924
100817
100638
100473
100331
100269
100806
100647
100646
100645
100645
100647
100650
100654
100657
100660
100662
100664
100668
100672
100678
100685
100694
100704
100714
100725
100736
100747
100755
100763
100764
100752
100746
100759
100785
100801
100809
100821
100848
100880
100915
100948
100955
100961
100977
100989
100989
100976
100948
100891
100839
100812
100867
100950
100975
100879
100721
100643
100621
100609
100326
100646
100646
100645
100645
100647
100650
100654
100657
100660
100662
100664
100667
100672
100678
100685
100694
100704
100714
100725
100737
100748
100757
100763
100761
100750
100745
100763
100789
100802
100809
100823
100850
100884
100920
100951
100960
100967
100979
100988
100991
100989
100967
100907
100835
100829
100898
100965
100967
100876
100717
100579
100499
100304
100142
100640
100639
100638
100638
100639
100642
100645
100648
100650
100652
100654
100657
100660
100666
100673
100681
100690
100700
100712
100725
100737
100748
100751
100738
100702
100684
100715
100760
100781
100789
100806
100839
100879
100919
100953
100972
100987
101004
101018
101017
101003
100978
100946
100901
100841
100845
100913
100962
100909
100782
100700
100696
100671
100442
100639
100639
100638
100638
100639
100642
100645
100648
100650
100652
100654
100656
100660
100666
100672
100681
100690
100700
100712
100725
100738
100748
100750
100736
100698
100685
100722
100764
100781
100790
100808
100841
100882
100922
100953
100972
100988
101005
101018
101018
101006
100986
100949
100891
100854
100883
100943
100965
100912
100802
100717
100691
100537
100647
100632
100632
100631
100630
100631
100633
100636
100638
100640
100641
100643
100645
100648
100653
100659
100667
100676
100687
100700
100716
100733
100748
100750
100724
100639
100613
100669
100729
100748
100755
100777
100817
100866
100914
100957
100991
101020
101044
101061
101063
101048
101022
100986
100942
100885
100855
100879
100920
100917
100846
100759
100684
100642
100359
100632
100632
100630
100630
100631
100633
100636
100638
100640
100641
100643
100645
100648
100653
100659
100666
100676
100687
100700
100716
100734
100747
100748
100713
100627
100616
100684
100737
100750
100755
100778
100818
100866
100914
100955
100990
101021
101046
101065
101066
101049
101021
100983
100936
100892
100883
100909
100933
100916
100848
100760
100670
100592
100273
100625
100624
100623
100622
100623
100624
100627
100628
100630
100630
100631
100632
100635
100639
100644
100651
100660
100672
100687
100708
100736
100768
100789
100740
100571
100473
100603
100684
100695
100701
100731
100782
100840
100899
100958
101012
101062
101098
101128
101129
101106
101070
101025
100973
100919
100877
100867
100879
100880
100842
100775
100685
100620
100349
100625
100624
100623
100622
100623
100625
100627
100628
100629
100630
100631
100632
100635
100639
100644
100651
100660
100672
100687
100708
100736
100767
100784
100728
100521
100521
100639
100690
100691
100695
100728
100779
100838
100898
100956
101011
101063
101098
101143
101142
101112
101070
101021
100968
100916
100886
100885
100895
100889
100847
100776
100678
100602
100321
100617
100617
100615
100614
100614
100615
100617
100618
100619
100619
100619
100619
100621
100624
100628
100634
100642
100653
100669
100693
100732
100804
100884
100898
100527
100039
100463
100627
100635
100631
100666
100729
100800
100874
100951
101033
101109
101154
101206
101208
101164
101107
101055
101002
100947
100899
100872
100863
100858
100833
100784
100706
100626
100385
100617
100616
100615
100614
100614
100615
100617
100618
100619
100618
100618
100619
100621
100624
100628
100634
100642
100653
100669
100693
100731
100801
100878
100860
99988.3
100306
100582
100652
100632
100628
100665
100728
100799
100872
100955
101045
101123
101134
101201
101210
101158
101100
101054
101006
100954
100912
100889
100880
100870
100840
100787
100707
100626
100378
100609
100609
100607
100605
100605
100606
100607
100607
100607
100607
100606
100606
100606
100608
100611
100615
100621
100630
100643
100662
100691
100735
100856
101125
100112
100453
100610
100597
100564
100592
100661
100742
100828
100927
101037
101157
101194
101243
101274
101213
101143
101098
101059
101011
100962
100921
100895
100876
100852
100814
100745
100667
100403
100609
100608
100607
100605
100605
100606
100607
100608
100607
100607
100606
100606
100606
100608
100611
100615
100621
100630
100643
100662
100691
100734
100856
100990
100064
100507
100600
100575
100554
100590
100662
100742
100828
100915
101048
101166
101133
101086
101243
101193
101129
101096
101065
101022
100975
100935
100906
100884
100855
100813
100742
100658
100406
100601
100601
100599
100597
100596
100597
100597
100597
100596
100595
100593
100592
100591
100591
100593
100595
100598
100604
100610
100619
100627
100626
100598
100567
100275
100311
100629
100683
100589
100524
100539
100599
100671
100753
100852
100964
101095
101108
101153
101314
101250
101182
101153
101133
101101
101054
101003
100956
100919
100885
100857
100797
100752
100436
100601
100600
100598
100597
100596
100597
100597
100597
100596
100595
100593
100592
100591
100591
100593
100595
100599
100604
100611
100619
100627
100625
100592
100522
100274
100358
100646
100679
100578
100518
100539
100603
100674
100745
100795
100959
100945
101154
101071
101121
101137
101130
101126
101120
101100
101060
101010
100963
100924
100888
100854
100790
100725
100436
100593
100593
100590
100588
100587
100587
100587
100586
100585
100583
100580
100578
100576
100575
100574
100574
100574
100575
100576
100577
100575
100568
100552
100496
100433
100438
100561
100578
100522
100493
100512
100553
100599
100663
100808
100961
100932
101106
101349
101165
101142
101161
101164
101170
101166
101138
101089
101030
100972
100922
100892
100837
100848
100495
100593
100592
100590
100588
100587
100587
100587
100586
100585
100582
100580
100578
100576
100575
100574
100574
100574
100575
100577
100578
100576
100568
100550
100491
100413
100426
100541
100555
100502
100483
100513
100562
100606
100645
100682
100880
100660
100904
101320
100437
100927
101126
101152
101155
101155
101138
101096
101040
100983
100933
100898
100837
100814
100465
100585
100585
100582
100580
100579
100578
100577
100576
100574
100571
100567
100564
100561
100558
100555
100553
100550
100547
100544
100540
100535
100524
100504
100463
100406
100379
100402
100422
100428
100446
100479
100505
100515
100531
100611
100808
101810
100618
99641.8
100292
100922
101191
101212
101221
101228
101220
101187
101127
101052
100980
100928
100853
100861
100421
100585
100585
100582
100580
100579
100578
100577
100576
100574
100571
100567
100564
100561
100558
100555
100553
100550
100548
100545
100541
100535
100524
100502
100458
100399
100378
100400
100417
100419
100437
100476
100515
100541
100478
100584
100861
101320
98424.2
98968.3
98835.2
99928
101005
101197
101205
101208
101208
101186
101135
101067
101000
100944
100859
100850
100462
100578
100577
100575
100572
100570
100569
100568
100566
100563
100559
100555
100550
100546
100541
100537
100532
100526
100520
100513
100504
100492
100473
100444
100401
100352
100320
100317
100332
100351
100379
100409
100428
100342
100433
100436
99101.5
97521
96492.7
97287.6
98680.3
99977.4
101078
101298
101313
101305
101305
101294
101246
101168
101094
101033
100950
100866
100289
100578
100577
100575
100572
100570
100569
100568
100566
100563
100559
100555
100550
100546
100541
100537
100532
100527
100520
100513
100504
100492
100473
100442
100398
100351
100321
100321
100335
100350
100374
100410
100445
100483
100533
100413
99768.4
99982
96865
97339.2
98195.6
99313.4
100620
101242
101309
101308
101293
101280
101244
101182
101116
101041
100918
100855
100378
100571
100570
100567
100564
100562
100560
100559
100556
100552
100548
100543
100537
100532
100525
100519
100511
100503
100493
100481
100467
100447
100422
100387
100345
100301
100268
100253
100253
100260
100278
100299
100342
100097
100302
100296
98628.8
95379
95602
97480
98974.3
100199
101434
101518
101462
101420
101417
101414
101367
101285
101227
101206
101177
101116
100977
100571
100570
100567
100564
100562
100561
100559
100556
100553
100548
100543
100537
100532
100526
100519
100512
100503
100493
100481
100467
100447
100421
100386
100343
100300
100268
100255
100255
100258
100271
100293
100369
100391
100454
100346
96105.9
96012.7
95889.3
97637.5
98985.1
100138
101237
101533
101489
101439
101413
101391
101351
101294
101248
101202
101166
100999
100401
100564
100563
100560
100557
100555
100552
100550
100547
100543
100538
100532
100525
100518
100510
100502
100492
100480
100467
100450
100430
100405
100373
100335
100291
100245
100203
100171
100149
100135
100138
100166
100375
100165
99116
97872.4
95071.3
94542.4
96284.8
98575.9
100242
101196
101860
101729
101603
101542
101544
101536
101469
101361
101265
101217
101183
101304
101372
100564
100563
100560
100557
100555
100553
100550
100547
100543
100538
100532
100525
100518
100510
100502
100492
100480
100467
100450
100430
100405
100373
100334
100290
100244
100203
100172
100149
100129
100114
100089
100142
100430
99463.4
92910.7
91840.9
94205.5
96245.9
98660.2
100360
101283
101705
101669
101601
101555
101547
101518
101455
101368
101297
101272
101293
101233
101153
100558
100557
100554
100551
100548
100545
100542
100539
100534
100528
100521
100514
100505
100496
100485
100473
100458
100441
100420
100395
100365
100328
100284
100234
100180
100125
100072
100022
99973.1
99945.5
100007
100184
100340
98855.3
93353.9
92913.4
95036.9
97546.4
99857.9
101224
101679
101771
101832
101731
101699
101709
101693
101619
101482
101272
101068
100865
100847
100747
100558
100557
100554
100551
100548
100545
100542
100539
100534
100528
100521
100514
100505
100496
100485
100473
100459
100441
100420
100395
100365
100327
100284
100234
100180
100126
100073
100022
99965.6
99915
99829.1
99972.9
100050
97915.8
92808.6
93157.4
95234.5
97709.5
100010
101360
101749
101749
101741
101709
101699
101711
101688
101612
101479
101287
101123
101032
101099
101219
100552
100551
100548
100545
100541
100538
100535
100531
100526
100519
100512
100503
100494
100483
100470
100456
100438
100418
100393
100363
100327
100284
100234
100177
100112
100041
99963.5
99872
99773.4
99593.6
99755.9
100398
99991.5
85444.6
88033.5
93040.7
96362.3
99001.4
100742
101440
101588
101679
101768
101864
101902
101934
101929
101870
101734
101476
101204
100770
100406
100774
100552
100551
100548
100545
100542
100539
100535
100531
100526
100519
100512
100503
100494
100483
100470
100456
100438
100417
100393
100363
100327
100284
100234
100176
100112
100041
99963.3
99874.9
99769.5
99629.9
99529.2
99491.2
96304.1
92520.8
92632.3
94370.6
96858.5
99270.4
100886
101504
101613
101693
101762
101827
101893
101932
101925
101864
101720
101435
101124
100775
100476
100313
100547
100546
100543
100539
100536
100533
100529
100524
100519
100511
100503
100494
100483
100471
100457
100440
100420
100396
100367
100333
100293
100244
100187
100121
100044
99954.9
99851.4
99721.3
99553.5
99264.8
98850
100093
97512.1
89602.5
92995.8
96581.3
99397.2
101081
101533
101379
101359
101550
101775
102013
102132
102186
102202
102157
102058
101874
101499
100603
99714.6
100340
100547
100546
100543
100539
100536
100533
100529
100524
100519
100512
100503
100494
100483
100471
100457
100440
100420
100396
100367
100333
100292
100244
100187
100120
100043
99954.6
99850.6
99729.5
99562.2
99330.3
99053.7
98753.1
94750.7
91159.6
94259.4
97196.2
99755.8
101307
101622
101365
101340
101570
101783
101962
102114
102185
102198
102160
102034
101805
101391
100563
99800.9
100436
100543
100542
100539
100535
100531
100528
100524
100519
100512
100505
100496
100486
100474
100460
100445
100426
100404
100377
100345
100307
100262
100208
100144
100069
99980.3
99874.6
99746.3
99586.1
99371.7
99071.4
98577.7
98398.2
100941
102334
100575
101459
102870
103065
102150
101181
101057
101418
101844
102175
102338
102437
102494
102448
102458
102319
101469
99787.6
98768.2
100095
100543
100542
100539
100535
100531
100528
100524
100519
100513
100505
100496
100486
100474
100461
100445
100426
100404
100377
100345
100307
100261
100208
100144
100068
99979.2
99872.8
99740
99588.2
99392.9
99145.1
98838
98236.7
97609.7
97701.5
99417.6
101529
103153
103242
102186
101140
101028
101437
101847
102146
102323
102434
102479
102443
102411
102265
101408
99683.6
98873.2
99974.5
100540
100539
100535
100531
100527
100524
100519
100514
100508
100500
100490
100479
100467
100452
100435
100415
100390
100361
100327
100285
100236
100177
100108
100025
99925.5
99805.1
99658.7
99475.8
99234.1
98922.7
98455.9
97866.2
98216.3
100331
100756
102041
103495
103495
102253
100909
100797
101369
101989
102366
102536
102689
102847
102883
103009
102746
101768
100159
98250.7
99736
100540
100539
100535
100531
100528
100524
100520
100514
100508
100500
100490
100479
100467
100452
100435
100415
100390
100361
100327
100285
100236
100177
100107
100024
99924.3
99799.5
99656.6
99474.3
99232.8
98940.4
98651.4
97575.1
97224
98816.9
100540
102472
103754
103535
102280
100954
100773
101363
101989
102374
102540
102665
102792
102819
102972
102844
101974
100215
98092.3
99708
100537
100536
100533
100529
100524
100520
100516
100510
100504
100495
100485
100474
100461
100445
100427
100406
100380
100349
100312
100268
100216
100153
100079
99990
99883.2
99753.9
99596.3
99397.1
99142.8
98815.7
98415.4
97812.2
97359.8
98115.3
98375.2
100207
101919
102588
102161
101260
101078
101625
102212
102603
102769
102945
103103
103150
103244
102949
102760
101708
98053.8
99316.9
100537
100536
100533
100529
100525
100521
100516
100511
100504
100495
100486
100474
100461
100445
100427
100406
100380
100349
100312
100268
100215
100153
100078
99989.3
99882.6
99752.4
99600.6
99399.2
99135.2
98810.8
98385.6
97749.2
97410.1
98214.3
99540.4
100890
101447
102005
101919
101369
101147
101590
102187
102611
102784
102906
103044
103099
103267
103108
103036
102099
98110.7
99135.3
100536
100535
100531
100527
100523
100519
100514
100508
100501
100493
100482
100471
100457
100441
100422
100400
100373
100341
100302
100256
100201
100136
100059
99965.9
99854
99718.3
99552.5
99346.3
99087.4
98762.1
98375.8
97874
97368.8
96806.9
96119.5
96668.9
96375.4
96863.5
97774.6
99597.7
100879
101907
102443
102787
103013
103180
103270
103248
103308
103369
104251
104091
98837.9
98466
100536
100535
100531
100527
100523
100519
100514
100509
100501
100493
100483
100471
100457
100441
100422
100400
100373
100340
100302
100256
100201
100136
100058
99965.3
99853.4
99717.9
99553.5
99351
99088.4
98752.6
98389.8
97885.5
97356.7
97227.3
97020.8
96448.9
95709.6
96277.2
97413.5
99377.2
100950
101905
102430
102772
102986
103161
103230
103252
103330
103432
104458
104350
99010
97838.1
100534
100533
100530
100526
100522
100518
100513
100507
100500
100491
100481
100469
100455
100439
100419
100396
100369
100336
100297
100250
100194
100127
100048
99952.7
99837.9
99698.9
99529.1
99319.7
99060.1
98740
98353.3
97869.2
97265.9
96649.8
96047.2
94940.2
93179.4
92786.8
94068.3
96816.6
99487.4
101222
102115
102568
102917
103154
103260
103266
103239
103450
103915
103043
99453
97845.7
100534
100533
100530
100526
100522
100518
100513
100507
100500
100491
100481
100469
100455
100439
100419
100396
100369
100336
100296
100249
100193
100127
100047
99952.1
99837.3
99698.4
99529
99320.9
99061.2
98742.1
98370.3
97924.6
97410.9
96716.7
95580.8
94167.5
93144.7
92921.9
94102.7
96633.9
99371.6
101234
102102
102541
102869
103125
103241
103284
103333
103510
103955
103075
99464.4
97668.4
100577
100864
100155
101315
101225
100184
100089
100323
100152
99989.6
100147
100847
100334
101245
101218
100376
100191
100264
99995.7
100013
101067
100585
100544
100543
100284
100305
100083
100531
100056
100264
99967.6
101116
100529
100201
100509
100148
100042
100031
100197
100010
100135
100215
100660
100733
100642
100792
100679
100771
100638
100507
100542
100480
100490
100393
100463
100406
100627
100714
100611
100760
100613
100749
100588
100475
100513
100490
100371
100359
100314
100330
100960
100881
100949
100931
101101
100932
101103
100262
100500
100456
100445
100233
100224
100126
100326
100008
100117
99979.5
100138
100936
100863
100924
100930
101092
100913
101075
99847.4
100240
100176
100202
100093
100444
100318
100470
100028
100236
100073
100293
100924
100855
100952
100703
100655
100701
100654
100175
101133
100736
100736
100248
100287
100401
100195
100046
100203
100103
100243
100073
100260
100952
100849
100946
100697
100644
100700
100655
100352
101042
100821
100303
100798
100032
100052
100272
100103
100320
100128
100323
100199
100384
100478
100552
100436
100527
100446
100526
100444
99997.5
100253
100060
100350
100313
100352
100346
100411
100516
100412
100523
100446
100524
100451
100183
100299
100261
100363
100356
100367
100352
100747
100713
100537
100696
100819
100760
100448
100594
100648
100714
101167
101252
101319
101253
101184
100924
100979
101198
101173
101308
101241
101098
100984
100890
100246
100408
100370
100434
100213
100169
100083
100147
100058
100113
100038
100078
100183
100152
100156
99998.4
100025
99999.1
100130
100499
100603
100349
100650
100870
100609
100364
100628
100630
100580
101161
101074
101234
100859
101253
101287
100399
101009
101283
101258
101184
101185
100697
101056
99933.9
100190
100234
100201
100144
99886.2
100048
100018
100048
100031
100173
100095
99956.5
100098
100055
100010
100044
100062
100108
99888
99973.5
100185
101133
100780
100749
100272
99925
100028
100110
100554
100497
100545
100178
100078
100405
100392
100055
100488
100349
100255
100296
100225
100473
100183
100026
100255
100150
100052
100117
100090
100283
100394
100482
100356
100409
100191
100384
100235
100096
100294
100048
100065
100202
101101
100768
100762
100086
99928.7
99794
99955.4
100313
100119
100033
100251
99897.2
100195
100278
100290
99886.6
100001
100042
100004
100074
99988.6
99805.6
100339
99982.6
100056
99984.3
100007
100087
100101
100210
100095
100088
100197
99959.5
100187
100227
100156
100052
100964
100820
100889
101051
100806
101045
100975
100989
100799
100837
100967
100764
100979
100975
100960
100874
100768
101002
100783
101032
100944
100266
100371
100206
100057
100364
100063
100237
100281
100251
100402
100088
100377
100051
100288
100900
100857
100759
101047
100772
101018
100852
100161
100382
100306
100250
100270
100324
100217
100194
100241
100261
100112
100216
100155
100220
100507
100606
100595
100577
100596
100595
100527
100462
100604
100567
100507
100594
100452
100563
100194
100153
100165
100001
100072
100111
100285
100059
99948.5
99961.9
100044
99974.4
100005
100049
100492
100618
100475
100504
100491
100569
100443
100388
100560
100508
100435
100553
100436
100386
99991.6
99943.3
100077
100115
99990.6
99967.7
100143
99957.5
100041
100161
100302
100004
100152
100001
100394
100386
100225
100256
100389
100366
100257
100389
100485
100446
100450
100342
100165
100343
100266
100415
100239
100397
100268
100414
100265
100429
99901.1
100036
99930.6
99613.8
100140
99845
99631
99417
99320.9
99205.9
99419.1
99888.9
100027
100302
99601.8
99867.6
100254
99564
99667.3
99779.9
99741
99714.9
100644
100326
100490
100216
100345
100628
100519
100857
101255
101247
100882
100858
101235
101236
100839
100648
100219
100362
100505
100349
100527
100645
100345
100412
100906
100266
100454
100738
100482
100673
100803
100620
101065
100349
100802
100747
101331
100661
100488
100901
100410
100567
100590
100782
100507
100773
99971.4
100020
100367
100686
100283
100772
100721
100282
100343
100382
100450
100453
100371
100338
100149
100351
100205
100378
100777
100722
100380
100725
100355
100409
100143
100662
100256
100761
100207
100645
100224
100101
100259
99795.1
100905
99982.3
100058
100112
99931.6
100319
100769
100723
99093.9
100679
100349
100885
101411
101220
101400
101162
101217
101400
101402
101461
101397
101402
101439
101455
101394
101393
101443
101413
101173
101222
101400
101220
101403
101387
100934
100947
101383
101226
101242
101418
101217
101410
101379
101337
101299
101248
101267
101349
101260
101190
101412
101199
101371
101262
101403
101430
101463
101361
101052
101080
100309
100370
100210
100238
100360
100350
100176
99968.9
99624.9
99536.4
99739.7
100164
100104
100253
100001
100262
100181
100363
100025
100140
100304
100121
100124
100073
100065
100148
100039
100109
100147
100006
100069
100123
100291
100284
100150
100098
100214
100089
100240
100070
100076
100122
100007
100133
99997.9
100089
100192
100167
100030
100131
100160
100027
100135
100031
100043
100010
100064
100015
100086
100030
100162
100138
100060
100136
100060
100053
100026
100152
100041
100116
100102
100470
100420
99491.7
100572
100038
99498.1
99917.2
99803.8
99659.1
100317
100139
100797
100836
100813
100728
100564
100185
100087
99932.8
99956.8
100040
99944.7
100518
99982.8
100569
99969.3
100533
99912.2
99684
99562.7
99505.2
99777.5
99764.5
99721.1
99888.7
99536.5
99965.2
100430
100549
99934.8
100507
99768.7
100111
101627
101287
101327
101471
101176
101094
101448
103562
101136
100717
100897
101266
101150
101228
102309
101076
101111
100978
101748
101956
100761
101673
101384
100997
101963
101160
101741
101137
101223
101258
101489
101516
101297
101439
101429
101455
101563
101511
101471
101959
101288
101059
101705
100938
101612
101187
101120
101244
100023
100131
99614.8
100047
99903.5
100312
99696.7
99586
99533.8
99482.3
99714.6
99568.3
99621
99650.2
99448
100055
100135
100271
99786
100338
99789.2
100034
99932.8
99978.7
100119
100040
100111
100039
100158
100086
100080
100084
100041
100028
100058
100136
100119
100181
100108
100081
100210
100109
100099
100093
100088
100081
100017
100077
100021
100088
100033
100083
100083
100054
100048
100049
100089
100113
100038
100059
100101
100078
100109
100010
100076
100088
100082
100078
100053
100020
99934.4
99937.6
100658
100442
100465
100228
100643
100492
100490