/*--------------------------------*- C++ -*----------------------------------*\
| =========                 |                                                 |
| \\      /  F ield         | OpenFOAM: The Open Source CFD Toolbox           |
|  \\    /   O peration     | Version:  4.1                                   |
|   \\  /    A nd           | Web:      www.OpenFOAM.org                      |
|    \\/     M anipulation  |                                                 |
\*---------------------------------------------------------------------------*/
FoamFile
{
    version     2.0;
    format      ascii;
    class       surfaceScalarField;
    location    "40";
    object      phi;
}
// * * * * * * * * * * * * * * * * * * * * * * * * * * * * * * * * * * * * * //

dimensions      [0 3 -1 0 0 0 0];

internalField   nonuniform List<scalar> 
11516
(
9.98714e+06
570.216
10095.1
9.97039e+06
292.005
21028.9
9.94271e+06
522.398
31765.7
9.90478e+06
499.886
41985.1
9.85665e+06
520.547
52074.2
9.79824e+06
602.181
62101.8
9.72958e+06
651.336
72058.8
9.6507e+06
636.415
82005.9
9.56151e+06
573.445
92098.6
9.46157e+06
470.161
102754
9.35056e+06
378.741
113926
9.22896e+06
338.212
124982
9.09849e+06
338.118
135040
8.96547e+06
545.555
140130
8.84286e+06
-300.461
133974
8.74656e+06
-1549.98
111019
8.70365e+06
1438.81
54325.2
8.69705e+06
1670.9
14176.2
8.6754e+06
501.014
28705.8
8.59943e+06
2370.66
80511.5
8.48767e+06
-257.714
118990
8.34002e+06
-3349.74
157342
8.16271e+06
-7201
189513
7.9593e+06
-11772.5
218905
7.72897e+06
-15917.4
249215
7.49709e+06
-19364.4
254152
7.2796e+06
-17566.8
238181
7.08644e+06
-11321.9
208371
6.92302e+06
-10401.4
177912
6.80541e+06
-17334.5
139258
6.75688e+06
-25490.4
78314.8
6.79108e+06
-27296.7
-1951.39
6.91157e+06
-15717.1
-99476.6
7.10953e+06
9852.63
-199503
7.38529e+06
31961.1
-294893
7.72042e+06
23126.6
-333151
7.94148e+06
51061
-233182
8.10276e+06
59023.5
-168741
8.22671e+06
47600.9
-120169
8.33429e+06
-548.992
-57361.5
8.3874e+06
-34435
22941.8
8.44352e+06
-31584.7
25438.9
8.50417e+06
-1704.41
7630.9
8.58546e+06
31664.8
-43043.9
8.70207e+06
26635.1
-85040.1
8.94741e+06
4162.71
-212256
9.08336e+06
12690.2
-165115
9.20613e+06
-2324.28
-182418
9.21265e+06
48516.1
-162025
9.39563e+06
-50.0304
-240508
9.33707e+06
9083.47
-92723
9.73745e+06
-21035.9
-469903
1.04456e+07
-628520
-168028
-901125
566773
9.98806e+06
10089.3
9.97045e+06
21095.3
9.94237e+06
31809.6
9.90406e+06
41967.3
9.85568e+06
51990.9
9.79727e+06
61985.4
9.72879e+06
71937.4
9.65011e+06
81933.7
9.56102e+06
92135.8
9.46097e+06
102927
9.34953e+06
114329
9.22725e+06
125568
9.09564e+06
135931
8.96045e+06
141601
8.83163e+06
136613
8.73129e+06
108032
8.6928e+06
48218.1
8.69515e+06
5217.02
8.67923e+06
21426.3
8.6068e+06
79567.8
8.49551e+06
115903
8.35024e+06
146469
8.17257e+06
174202
7.96408e+06
199787
7.72143e+06
229475
7.47072e+06
234219
7.23312e+06
223214
7.0177e+06
207316
6.83404e+06
176530
6.7073e+06
112724
6.65711e+06
28413.3
6.6931e+06
-58752.6
6.81148e+06
-128384
7.00058e+06
-172436
7.25094e+06
-206124
7.50846e+06
-210505
7.71667e+06
-124239
7.91366e+06
-94636.3
8.0895e+06
-80206.3
8.24718e+06
-118525
8.25733e+06
-12145.6
8.25352e+06
16980
8.29968e+06
1665.79
8.41975e+06
-38313.1
8.51365e+06
-26479.2
8.6756e+06
-141575
8.81156e+06
-138573
8.84606e+06
-78761.7
8.90549e+06
-58918.4
9.00802e+06
-174704
9.01885e+06
-56208.9
1.00982e+07
-1.20452e+06
1.11692e+07
-1.80371e+06
-33036.4
1.00073e+07
573.213
5597.07
1.00179e+07
279.323
14947.8
1.00286e+07
506.159
25376.6
1.0039e+07
496.342
35877.6
1.00487e+07
537.844
46601.4
1.0057e+07
640.731
57701.5
1.00634e+07
714.845
69262.1
1.00677e+07
737.751
81152.4
1.00691e+07
716.802
94068.7
1.00678e+07
686.871
107319
1.00639e+07
658.571
121267
1.00573e+07
679.922
135388
1.00473e+07
830.51
149570
1.00315e+07
1176.9
161532
9.99755e+06
2711.36
173589
9.92849e+06
2843.48
185446
9.81597e+06
2897.88
173091
9.60125e+06
1793.2
230729
9.35405e+06
-252.347
278013
9.13255e+06
-973.78
305074
8.92891e+06
606.705
324556
8.74494e+06
1921.3
341980
8.57237e+06
3067.6
361456
8.40129e+06
4758.09
387371
8.233e+06
6032.6
413468
8.05965e+06
7295.1
422292
7.87423e+06
8170.22
417737
7.6556e+06
10964.6
418301
7.42095e+06
15656.5
398687
7.21938e+06
14321.8
327810
7.10084e+06
11499.7
186479
7.10181e+06
17101.9
-19067.7
7.21482e+06
20046.7
-231198
7.42103e+06
16955.3
-420171
7.7032e+06
1953.7
-570513
7.89584e+06
-1585.3
-502770
8.02536e+06
-24979.7
-302756
8.11998e+06
-16839
-198164
8.15147e+06
-10803.4
-95531.1
8.23445e+06
-58543.5
-55896.9
8.36167e+06
-72059.5
-11395.1
8.48699e+06
-111430
46919.1
8.68545e+06
-125042
-17386.8
8.92932e+06
-128077
-102231
9.19722e+06
-127857
-173289
9.43928e+06
-134201
-292478
9.72261e+06
-147747
-301941
9.98578e+06
-149888
-324198
1.02465e+07
-120920
-353279
1.05389e+07
-171508
-461683
1.02246e+07
-220680
368935
1.0752e+07
-1.05344e+06
-107630
1.34925e+07
-2.10832e+06
-946285
-1.03769e+06
-620189
1.00082e+07
5587.18
1.0018e+07
14962.6
1.00282e+07
25373.3
1.00381e+07
35855.6
1.00473e+07
46557.3
1.00553e+07
57627.3
1.00618e+07
69153.8
1.00663e+07
81010
1.0068e+07
93928.9
1.00672e+07
107196
1.00638e+07
121253
1.00578e+07
135571
1.00487e+07
149833
1.00342e+07
162385
1.00078e+07
172203
9.94853e+06
176949
9.82393e+06
181163
9.603e+06
229973
9.35212e+06
273316
9.13134e+06
300802
8.93205e+06
317572
8.74961e+06
332673
8.57957e+06
349187
8.41184e+06
374044
8.2507e+06
398386
8.08775e+06
406499
7.90603e+06
415260
7.69801e+06
428243
7.48524e+06
406593
7.28457e+06
329207
7.13137e+06
194255
7.09075e+06
176.514
7.17811e+06
-194211
7.37292e+06
-346370
7.62737e+06
-448134
7.88094e+06
-441452
8.08136e+06
-315113
8.23291e+06
-220180
8.35852e+06
-179984
8.53128e+06
-321224
8.60878e+06
-136869
8.67438e+06
-124674
8.80823e+06
-209206
8.9982e+06
-309435
9.22091e+06
-343019
9.45311e+06
-491336
9.71573e+06
-555381
9.95297e+06
-491808
1.02989e+07
-573833
1.04953e+07
-586764
9.60096e+06
560411
6.91905e+06
270768
3.54977e+06
-676823
-1.46652e+06
9.9996e+06
565.134
7273.91
9.99804e+06
296.231
20942.9
9.99158e+06
511.672
36038.2
9.98056e+06
497.295
51061.5
9.96495e+06
543.569
66241.3
9.94467e+06
666.504
81755.8
9.91991e+06
775.678
97526.2
9.89013e+06
839.661
114231
9.85628e+06
859.559
131141
9.81782e+06
853.939
149068
9.77546e+06
818.299
167176
9.72903e+06
801.302
185739
9.67841e+06
774.697
204722
9.62138e+06
1042.71
223836
9.55954e+06
1092.12
241523
9.48579e+06
3486.19
263605
9.38691e+06
1028.41
276522
9.28574e+06
862.351
332053
9.18208e+06
-320.835
382731
9.06162e+06
89.8487
426623
8.92769e+06
823.834
459492
8.78868e+06
1630.25
481692
8.64507e+06
3052.22
504591
8.49501e+06
6074.61
533824
8.33597e+06
7878.86
566961
8.16194e+06
10585.5
588377
7.95174e+06
14781.2
615743
7.68157e+06
18744.7
671859
7.37415e+06
17782.1
689758
7.09512e+06
7468.55
600288
6.9123e+06
3194.7
366647
6.84916e+06
15963
28805.1
6.88892e+06
40277
-309886
7.04995e+06
61636.4
-638239
7.33001e+06
44677.4
-886077
7.51809e+06
-20066.5
-655778
7.56382e+06
-99468
-221437
7.54048e+06
-121219
-20855.6
7.40896e+06
-118280
175688
7.40648e+06
-61017.4
20473.4
7.46498e+06
-41193.9
-20479.2
7.48026e+06
-102925
155606
7.62424e+06
-156795
44114.4
7.85869e+06
-167670
-117217
8.14877e+06
-162670
-256422
8.37077e+06
-120957
-368627
8.67587e+06
-103078
-501426
9.06262e+06
-102466
-641759
9.71435e+06
-111303
-948184
1.08026e+07
-164397
-1.4166e+06
1.2429e+07
-231462
-1.04548e+06
1.31733e+07
-355529
-544729
1.16842e+07
321934
148672
60107.3
-1.27346e+06
1.00005e+07
7266.27
9.99807e+06
20920.9
9.99118e+06
36013.1
9.97971e+06
51028.9
9.96374e+06
66206.5
9.94335e+06
81724
9.91871e+06
97503.8
9.8892e+06
114226
9.85566e+06
131167
9.81749e+06
149137
9.77535e+06
167314
9.72913e+06
185958
9.67854e+06
205010
9.62231e+06
224045
9.55857e+06
241898
9.48236e+06
261467
9.38712e+06
280284
9.28744e+06
331317
9.1815e+06
379481
9.06282e+06
420442
8.93099e+06
451588
8.79517e+06
471986
8.65618e+06
493311
8.50699e+06
531312
8.34965e+06
565582
8.17916e+06
589735
7.9745e+06
636764
7.71925e+06
703953
7.41398e+06
731005
7.09766e+06
653831
6.87951e+06
416223
6.81943e+06
76941.6
6.90759e+06
-240239
7.12286e+06
-495582
7.42964e+06
-699640
7.63415e+06
-646072
7.73318e+06
-489034
7.79531e+06
-378657
7.81256e+06
-294353
7.92204e+06
-480678
7.98009e+06
-224559
7.92205e+06
-137790
7.93843e+06
-331752
8.04814e+06
-538644
8.18538e+06
-609110
8.33915e+06
-748426
8.55671e+06
-876998
8.92735e+06
-983128
9.56529e+06
-1.34345e+06
1.05094e+07
-1.71345e+06
1.18655e+07
-1.04996e+06
1.24432e+07
-710551
1.14948e+07
551572
-1.65936e+06
9.99922e+06
556.883
9343.72
9.99789e+06
279.5
26586.9
9.99193e+06
501.48
46115.1
9.98141e+06
488.804
65657
9.96607e+06
531.532
85515
9.9458e+06
646.148
105723
9.91975e+06
744.499
127024
9.88835e+06
795.626
148912
9.85124e+06
803.458
171477
9.80847e+06
779.221
195131
9.75968e+06
729.675
219463
9.70436e+06
675.838
244832
9.64215e+06
586.589
270956
9.5724e+06
591.367
297758
9.49264e+06
462.743
325704
9.40281e+06
1315.73
356493
9.28971e+06
542.9
391674
9.18463e+06
1710.04
436549
9.09276e+06
-763.317
475836
9.00352e+06
-335.483
517133
8.9046e+06
385.181
559735
8.7938e+06
519.842
594682
8.66113e+06
787.887
639555
8.50674e+06
3005.39
688154
8.3319e+06
3443.82
740859
8.12798e+06
4587.83
790125
7.8661e+06
7582.21
872011
7.52721e+06
6863.94
1.00523e+06
7.13313e+06
927.27
1.08387e+06
6.77672e+06
-1351.92
958547
6.54783e+06
3617.51
592216
6.43528e+06
11954.8
129776
6.41936e+06
27953.3
-321314
6.53768e+06
50298.1
-805788
6.7663e+06
39140.8
-1.15245e+06
6.88579e+06
-81827.8
-689119
6.80736e+06
-241647
107712
6.64305e+06
-302582
463746
6.45261e+06
-249843
623762
6.41306e+06
-38317.6
99345.8
6.45253e+06
-16106.9
-41771.1
6.48326e+06
-67378.8
207334
6.6673e+06
-97644.8
19453.5
6.95082e+06
-78231.4
-248758
7.25016e+06
-75399.2
-421350
7.4514e+06
-63431.6
-462123
7.64435e+06
-92258.5
-600093
7.85045e+06
-69651.8
-803417
8.07732e+06
-51209.8
-1.14716e+06
8.41984e+06
-14147.6
-1.8005e+06
9.24617e+06
-237914
-1.69151e+06
9.86416e+06
-372035
-856068
1.04284e+07
173091
-640772
367354
-1.73988e+06
1.00001e+07
9337.5
9.99793e+06
26576.4
9.99154e+06
46077.6
9.98056e+06
65611.2
9.96486e+06
85482
9.94448e+06
105711
9.91856e+06
127036
9.88743e+06
148947
9.85065e+06
171536
9.80819e+06
195213
9.75963e+06
219575
9.70443e+06
244966
9.64215e+06
271139
9.57234e+06
297846
9.49208e+06
325994
9.40155e+06
356148
9.2912e+06
393062
9.18443e+06
440772
9.09189e+06
471866
9.00342e+06
509569
8.90484e+06
552306
8.79357e+06
586251
8.65966e+06
630640
8.50408e+06
691653
8.33242e+06
742469
8.12609e+06
802246
7.85654e+06
914929
7.51266e+06
1.05535e+06
7.11747e+06
1.12743e+06
6.76599e+06
1.00412e+06
6.55107e+06
634917
6.45025e+06
190038
6.43896e+06
-200242
6.5831e+06
-587794
6.91527e+06
-988256
7.12706e+06
-927191
7.193e+06
-778613
7.10646e+06
-578748
6.87818e+06
-307923
6.69995e+06
-329718
6.68959e+06
-224510
6.66956e+06
-160328
6.78225e+06
-475583
6.90149e+06
-676385
7.00795e+06
-748416
7.09549e+06
-871659
7.17284e+06
-1.04075e+06
7.35333e+06
-1.24353e+06
7.4593e+06
-1.5388e+06
7.65099e+06
-1.97354e+06
8.05249e+06
-1.71564e+06
8.18861e+06
-1.2764e+06
9.54417e+06
-673454
-1.9199e+06
9.99927e+06
552.448
11338.2
9.99809e+06
273.3
31981.1
9.99236e+06
485.897
55822.6
9.98212e+06
466.736
79818.5
9.96718e+06
502.317
104245
9.94727e+06
609.138
129174
9.92222e+06
701.552
155370
9.89207e+06
750.269
182168
9.85629e+06
759.701
210279
9.81491e+06
740.153
239575
9.76774e+06
703.884
269882
9.71442e+06
657.978
301654
9.65476e+06
599.709
334417
9.58725e+06
536.756
369239
9.51035e+06
555.89
406485
9.42176e+06
775.155
448609
9.31954e+06
1736.33
496783
9.20479e+06
1393.77
553817
9.08606e+06
1079.2
595567
8.98495e+06
-1069.12
621635
8.88602e+06
919.736
660774
8.77893e+06
1588.79
703756
8.63989e+06
-1967.16
784310
8.46496e+06
-1504.39
866911
8.25933e+06
-2735.88
951166
8.00921e+06
-3024.87
1.04443e+06
7.69963e+06
834.222
1.18093e+06
7.33401e+06
1693.66
1.36908e+06
6.94883e+06
-1331.66
1.4702e+06
6.61039e+06
-206.951
1.29711e+06
6.34526e+06
6099.5
851387
6.12909e+06
17583.9
328654
5.96121e+06
35775.4
-188635
5.88422e+06
75698.1
-803850
5.92627e+06
169056
-1.36246e+06
5.61289e+06
-98219.9
-270759
5.76686e+06
-185527
184078
5.82327e+06
-207387
647538
5.50548e+06
-253472
1.21436e+06
5.37688e+06
3772.8
236377
5.33304e+06
18561.5
-12227.9
5.41556e+06
-54669.4
207940
5.69422e+06
58081.6
-223399
5.93847e+06
94101.5
-483858
6.10544e+06
80276.7
-587322
6.28946e+06
88345.1
-688341
6.5356e+06
87410.7
-927905
6.78328e+06
79708
-1.17681e+06
6.64106e+06
147735
-1.23289e+06
5.69345e+06
511371
-1.5111e+06
5.09296e+06
224855
-1.45055e+06
5.4984e+06
-60172.1
-1.34432e+06
6.67551e+06
282073
-2.19702e+06
295473
-2.38272e+06
1.00002e+07
11324.5
9.99811e+06
31942
9.99196e+06
55788.9
9.98127e+06
79790.8
9.96597e+06
104236
9.94596e+06
129191
9.92104e+06
155418
9.89117e+06
182244
9.85573e+06
210374
9.81467e+06
239679
9.76773e+06
269982
9.71452e+06
301739
9.65482e+06
334497
9.58708e+06
369259
9.51009e+06
406640
9.42171e+06
448507
9.32198e+06
497811
9.21044e+06
556889
9.09286e+06
593356
8.98806e+06
616484
8.88588e+06
658420
8.77007e+06
706940
8.62289e+06
777417
8.44749e+06
866909
8.23988e+06
948193
7.98201e+06
1.0574e+06
7.68041e+06
1.21728e+06
7.33523e+06
1.402e+06
6.972e+06
1.48912e+06
6.65195e+06
1.32392e+06
6.40358e+06
889543
6.21911e+06
392426
6.11383e+06
-58699.6
6.1633e+06
-560897
6.47486e+06
-1.1242e+06
6.73751e+06
-1.27069e+06
6.83604e+06
-1.04367e+06
6.75836e+06
-691804
6.41256e+06
-197027
5.93452e+06
165864
5.57838e+06
158176
5.56371e+06
-159848
5.76145e+06
-539185
5.87414e+06
-618775
5.87881e+06
-610032
5.81549e+06
-684358
5.76427e+06
-903992
5.72505e+06
-1.17747e+06
5.70759e+06
-1.45675e+06
6.06495e+06
-1.8997e+06
5.99511e+06
-1.49217e+06
5.60193e+06
-1.03439e+06
6.45179e+06
-1.30219e+06
-1.72433e+06
9.99924e+06
539.245
13264.2
9.99825e+06
240.073
37047.1
9.99286e+06
461.752
65095
9.98317e+06
447.726
93355.6
9.96908e+06
484.879
122035
9.95004e+06
589.603
151656
9.92617e+06
677.563
182415
9.89721e+06
719.5
214092
9.86297e+06
718.169
247332
9.82348e+06
686.782
281865
9.77813e+06
638.222
318145
9.72704e+06
595.207
355957
9.66954e+06
563.061
395514
9.60502e+06
536.001
437797
9.53279e+06
587.915
483045
9.45322e+06
696.394
533027
9.36785e+06
1624.76
587236
9.27419e+06
3640.95
652260
9.1598e+06
6720.85
710346
9.03467e+06
1321.42
752968
8.90516e+06
1188.32
794596
8.76776e+06
670.454
845314
8.61722e+06
-4917.28
940623
8.44492e+06
-5845.41
1.04594e+06
8.22653e+06
-9396.31
1.17934e+06
7.94866e+06
-8409.62
1.33038e+06
7.62343e+06
-1338.6
1.50705e+06
7.28018e+06
4792.9
1.70725e+06
6.93033e+06
6148.79
1.81378e+06
6.57486e+06
9171.39
1.64353e+06
6.20709e+06
16158.9
1.20331e+06
5.80788e+06
35294.1
693085
5.32722e+06
79678.2
213080
4.62334e+06
274723
-373899
2.16589e+06
1.10002e+06
-1362.49
1.14665e+06
524132
255542
1.08904e+06
198111
118137
2.65141e+06
5828.02
-814894
3.20762e+06
184181
532060
3.47027e+06
346100
-326058
3.67702e+06
72600.1
-270090
3.89288e+06
228474
-148676
3.98359e+06
338992
-527056
4.10288e+06
313807
-793182
4.35753e+06
289866
-1.03076e+06
4.70098e+06
248024
-1.22701e+06
4.87423e+06
265333
-1.39252e+06
4.92749e+06
241811
-1.58183e+06
4.91507e+06
305969
-1.68778e+06
4.61754e+06
413199
-1.83946e+06
4.64676e+06
286469
-1.98659e+06
5.03338e+06
371076
-2.28954e+06
3.34775e+06
1.20135e+06
-1.87263e+06
907846
-1.75861e+06
1.00001e+07
13254.6
9.99828e+06
37039.3
9.99247e+06
65049.9
9.98234e+06
93304.5
9.9679e+06
122010
9.94877e+06
151671
9.92504e+06
182474
9.89634e+06
214191
9.86243e+06
247459
9.82323e+06
282002
9.7781e+06
318274
9.72708e+06
356056
9.66954e+06
395581
9.60478e+06
437800
9.53253e+06
483046
9.45275e+06
532979
9.3695e+06
587773
9.28722e+06
649422
9.18706e+06
707863
9.05349e+06
758044
8.91159e+06
806387
8.76294e+06
858796
8.60964e+06
927600
8.42051e+06
1.05064e+06
8.19218e+06
1.16734e+06
7.91692e+06
1.32418e+06
7.62209e+06
1.5107e+06
7.30991e+06
1.71891e+06
6.97905e+06
1.82622e+06
6.64153e+06
1.67088e+06
6.31133e+06
1.23628e+06
5.99952e+06
740026
5.71165e+06
309380
5.55805e+06
-128941
6.30902e+06
-759188
6.0325e+06
-456209
5.66388e+06
-438159
5.44834e+06
-393012
5.39231e+06
83675.5
5.03988e+06
901601
4.45235e+06
868097
4.47992e+06
132035
4.52849e+06
-141883
4.50682e+06
-180244
4.49835e+06
-239460
4.56095e+06
-471790
4.65426e+06
-762236
4.67252e+06
-1.03589e+06
4.63959e+06
-1.2419e+06
4.42015e+06
-1.4203e+06
4.45013e+06
-1.37627e+06
5.03087e+06
-1.35615e+06
6.03431e+06
-1.16623e+06
-1.38856e+06
9.99927e+06
532.155
15134.9
9.99853e+06
238.207
41723.7
9.99363e+06
446.468
73701.8
9.98463e+06
428.565
105996
9.97144e+06
460.666
138728
9.95349e+06
556.573
172851
9.93089e+06
634.081
207997
9.90335e+06
664.869
244387
9.87088e+06
653.128
282402
9.8327e+06
612.566
322605
9.7894e+06
562.45
364144
9.7404e+06
534.175
408006
9.68535e+06
542.297
454157
9.62434e+06
589.449
503028
9.55707e+06
664.557
555066
9.48454e+06
838.377
610933
9.40746e+06
1298.96
670750
9.33138e+06
2737.63
735548
9.24886e+06
3604.39
801232
9.14669e+06
2437.71
865611
9.014e+06
3258.09
934945
8.84234e+06
3808.99
1.02044e+06
8.66292e+06
2775.84
1.11902e+06
8.48555e+06
-10269.9
1.23398e+06
8.27443e+06
-16377.5
1.40698e+06
8.00757e+06
-17068.6
1.6149e+06
7.7029e+06
-1952.24
1.81484e+06
7.38515e+06
12790.5
2.01311e+06
7.03995e+06
13237.3
2.14644e+06
6.63226e+06
14430.6
2.03734e+06
6.16731e+06
27825.5
1.64091e+06
5.61014e+06
53929.9
1.19703e+06
4.7036e+06
148621
971799
2.14086e+06
747399
1.44307e+06
-975789
1.07984e+06
2.04744e+06
-1.03311e+06
16611.9
296718
-882705
-157139
287730
-1.83105e+06
170651
646006
-109717
880448
-1.86786e+06
548113
489771
-1.30153e+06
1.45721e+06
-87183.1
-969269
1.96981e+06
206606
-690480
2.63191e+06
99719.5
-1.14373e+06
3.53328e+06
-24694.7
-1.55403e+06
4.37065e+06
9414.08
-1.8031e+06
5.01024e+06
64044.5
-1.9092e+06
5.33619e+06
115694
-1.88217e+06
5.39239e+06
134343
-1.8968e+06
5.2184e+06
180297
-1.89586e+06
4.9142e+06
183578
-1.94184e+06
4.15436e+06
357686
-1.81327e+06
1.6509e+06
1.0651e+06
-1.07434e+06
-2.16857e+06
1.59765e+06
180764
643411
-1.42807e+06
1.00001e+07
15117.8
9.99855e+06
41662
9.99324e+06
73651.1
9.98382e+06
105955
9.97029e+06
138713
9.95226e+06
172873
9.92979e+06
208060
9.90251e+06
244486
9.87035e+06
282527
9.83245e+06
322737
9.78934e+06
364268
9.74042e+06
408102
9.68532e+06
454226
9.62411e+06
503068
9.55665e+06
555144
9.48409e+06
611010
9.40808e+06
670921
9.33292e+06
734714
9.25178e+06
801324
9.15196e+06
869054
9.02667e+06
942583
8.86846e+06
1.02619e+06
8.676e+06
1.12493e+06
8.46433e+06
1.25209e+06
8.23904e+06
1.37624e+06
7.96519e+06
1.58133e+06
7.69233e+06
1.78223e+06
7.41691e+06
2.00768e+06
7.1042e+06
2.15261e+06
6.72809e+06
2.06173e+06
6.30942e+06
1.68308e+06
5.88602e+06
1.21774e+06
5.44469e+06
900408
5.04569e+06
1.02738e+06
3.21925e+06
2.16234e+06
1.38864e+06
1.42164e+06
-456243
1.37895e+06
-548741
66169.8
785351
-261473
1.7234e+06
557919
1.62545e+06
1.00729e+06
1.70403e+06
398697
2.10572e+06
-327282
2.70567e+06
-722419
3.38389e+06
-862884
3.97571e+06
-997259
4.38536e+06
-1.10758e+06
4.60029e+06
-1.21878e+06
4.71186e+06
-1.31291e+06
4.6843e+06
-1.36003e+06
4.93201e+06
-1.39867e+06
5.68863e+06
-1.14102e+06
6.76579e+06
-687593
-1.20739e+06
9.99923e+06
515.54
16864.6
9.99885e+06
183.813
45816.7
9.99452e+06
408.838
81568.2
9.98632e+06
397.711
117678
9.97405e+06
430.219
154323
9.95746e+06
521.695
192500
9.93654e+06
593.088
231691
9.9106e+06
616.64
272855
9.87974e+06
598.491
315635
9.84406e+06
552.074
360624
9.80288e+06
506.425
407838
9.75636e+06
491.911
457459
9.70446e+06
542.312
509711
9.64703e+06
654.806
564942
9.58428e+06
808.644
623104
9.51652e+06
997.245
684639
9.44491e+06
1282.6
749279
9.37154e+06
1719.62
817217
9.29507e+06
1696.53
888373
9.20899e+06
733.004
963235
9.10783e+06
908.505
1.04722e+06
8.97862e+06
2305.3
1.15349e+06
8.81007e+06
6353.15
1.28344e+06
8.61003e+06
-2043.03
1.43526e+06
8.40324e+06
-17189.2
1.63081e+06
8.18737e+06
-25269.7
1.857e+06
7.95869e+06
-14257.7
2.0597e+06
7.68297e+06
10585.5
2.28193e+06
7.32717e+06
25327.7
2.4789e+06
6.8788e+06
21756
2.46458e+06
6.39666e+06
25671.7
2.09774e+06
5.89485e+06
38875.4
1.66055e+06
5.32109e+06
80033.5
1.4667e+06
4.43882e+06
469598
1.86772e+06
2.15787e+06
952764
3.39979e+06
738310
188723
1.61949e+06
1.45228e+06
-313603
541878
1.64514e+06
614961
1.01009e+06
610505
6472.75
-649716
1.11003e+06
-548013
-1.11407e+06
1.89148e+06
-403903
-1.22379e+06
2.98783e+06
-294933
-1.38449e+06
4.03278e+06
-428227
-1.67117e+06
4.98233e+06
-436134
-2.00082e+06
5.63341e+06
-254304
-2.15796e+06
5.93304e+06
-100057
-2.10575e+06
5.98608e+06
-8840.46
-1.98749e+06
5.86568e+06
33975.5
-1.93814e+06
5.68402e+06
29988.7
-1.92192e+06
5.39762e+06
56162.3
-1.91623e+06
5.10186e+06
144136
-1.83822e+06
5.45197e+06
182950
-1.7335e+06
6.44712e+06
288998
-1.1642e+06
489556
-2.21452e+06
1.00001e+07
16856.1
9.99888e+06
45814.4
9.99414e+06
81520.2
9.98553e+06
117625
9.97295e+06
154303
9.95627e+06
192527
9.93547e+06
231769
9.90978e+06
272975
9.87921e+06
315780
9.84379e+06
360775
9.80278e+06
407970
9.75636e+06
457555
9.70443e+06
509767
9.64691e+06
564974
9.58408e+06
623128
9.51641e+06
684697
9.44508e+06
749436
9.37122e+06
817477
9.29345e+06
888926
9.20774e+06
964142
9.10908e+06
1.04898e+06
8.98911e+06
1.15275e+06
8.82708e+06
1.29402e+06
8.62696e+06
1.44994e+06
8.39697e+06
1.58967e+06
8.13961e+06
1.81446e+06
7.88723e+06
2.0233e+06
7.6424e+06
2.26429e+06
7.38198e+06
2.43876e+06
7.01536e+06
2.45041e+06
6.54279e+06
2.18191e+06
6.06889e+06
1.73164e+06
5.61727e+06
1.43728e+06
5.4897e+06
1.63989e+06
6.03201e+06
2.59311e+06
5.04553e+06
2.62325e+06
4.07601e+06
2.07453e+06
3.39535e+06
1.42035e+06
2.34731e+06
871251
1.77215e+06
672995
2.25108e+06
209862
3.12591e+06
-698462
3.79389e+06
-1.36137e+06
4.33255e+06
-1.6489e+06
4.77742e+06
-1.53306e+06
5.04577e+06
-1.37242e+06
5.21638e+06
-1.33898e+06
5.27846e+06
-1.34383e+06
5.2318e+06
-1.36554e+06
5.15972e+06
-1.36877e+06
5.08686e+06
-1.29814e+06
5.34879e+06
-1.29391e+06
6.10121e+06
-1.1848e+06
-1.50382e+06
9.9993e+06
509.903
18503.4
9.99922e+06
187.14
49456
9.99549e+06
390.431
88601.7
9.98819e+06
373.384
128230
9.97709e+06
400.856
168515
9.96194e+06
484.561
210486
9.94253e+06
548.165
253669
9.91876e+06
566.273
298953
9.89014e+06
545.449
346442
9.85674e+06
501.913
396189
9.81852e+06
463.5
448406
9.77498e+06
464.044
503799
9.72628e+06
536.508
561939
9.6727e+06
675.42
622918
9.61389e+06
831.268
687058
9.55028e+06
969.683
753957
9.48225e+06
1058.19
823684
9.41117e+06
1112.88
895633
9.33831e+06
1110.74
969867
9.26286e+06
917.769
1.04782e+06
9.18467e+06
986.677
1.13364e+06
9.10253e+06
1426.64
1.23979e+06
8.99341e+06
6074.21
1.39061e+06
8.81571e+06
32488.8
1.58156e+06
8.5938e+06
38836.5
1.81617e+06
8.41799e+06
-10521
2.04478e+06
8.3196e+06
-50781
2.21451e+06
8.21325e+06
-48148.3
2.44077e+06
8.01642e+06
3302.49
2.67389e+06
7.61814e+06
50977.3
2.81287e+06
6.9703e+06
66986.7
2.67996e+06
6.2328e+06
60540.4
2.33998e+06
5.63408e+06
64619.9
2.00644e+06
5.50823e+06
111598
1.89914e+06
5.7465e+06
343321
2.84529e+06
4.77454e+06
92836
2.54e+06
3.93287e+06
-172451
1.61785e+06
4.24684e+06
-212672
992979
4.02477e+06
-453785
120599
4.0369e+06
-443533
-585799
4.3104e+06
-398745
-1.00447e+06
4.7532e+06
-547755
-1.19487e+06
5.39792e+06
-704156
-1.54179e+06
5.97399e+06
-554612
-1.96424e+06
6.1253e+06
-217745
-2.05024e+06
5.98497e+06
-21487.9
-1.94225e+06
5.77163e+06
35476.4
-1.86599e+06
5.54623e+06
45995.8
-1.87714e+06
5.37328e+06
15726.1
-1.93184e+06
5.22842e+06
20919.9
-1.97122e+06
5.05763e+06
66247.7
-1.89227e+06
5.0533e+06
104257
-1.92829e+06
5.47252e+06
104056
-1.73341e+06
552806
-2.70856e+06
1.00001e+07
18485
9.99922e+06
49368.6
9.99512e+06
88535.9
9.98741e+06
128180
9.97601e+06
168494
9.96078e+06
210505
9.94149e+06
253729
9.91797e+06
299049
9.88962e+06
346559
9.85646e+06
396311
9.81841e+06
448510
9.77495e+06
503871
9.72626e+06
561966
9.67262e+06
622904
9.61375e+06
687023
9.55014e+06
753932
9.48213e+06
823646
9.41094e+06
895593
9.33772e+06
969683
9.26183e+06
1.04744e+06
9.18379e+06
1.13346e+06
9.10297e+06
1.2393e+06
9.02146e+06
1.38445e+06
8.94008e+06
1.56738e+06
8.78387e+06
1.78836e+06
8.57964e+06
2.01195e+06
8.33064e+06
2.22398e+06
8.0601e+06
2.48691e+06
7.84398e+06
2.65778e+06
7.61749e+06
2.72744e+06
7.20401e+06
2.66289e+06
6.59711e+06
2.40237e+06
5.99176e+06
2.11532e+06
5.71289e+06
2.04376e+06
6.26887e+06
2.39746e+06
6.52202e+06
2.48496e+06
6.30835e+06
2.14546e+06
5.94177e+06
1.61301e+06
5.42526e+06
984506
5.27788e+06
438050
5.3308e+06
-182638
5.2382e+06
-1.10026e+06
5.01317e+06
-1.78878e+06
4.94377e+06
-2.07716e+06
4.99447e+06
-1.76955e+06
5.05488e+06
-1.46356e+06
5.13657e+06
-1.43899e+06
5.0148e+06
-1.26788e+06
4.79938e+06
-1.24941e+06
4.69332e+06
-1.35803e+06
4.72212e+06
-1.34966e+06
4.9266e+06
-1.44714e+06
5.17419e+06
-1.34601e+06
-2.12116e+06
9.99925e+06
492.31
19935.2
9.99956e+06
106.2
52369.1
9.99654e+06
335.349
94691.4
9.99023e+06
327.21
137538
9.98045e+06
355.571
181134
9.96693e+06
436.163
226573
9.94949e+06
496.481
273415
9.9279e+06
513.063
322616
9.90195e+06
492.164
374333
9.87144e+06
452.895
428653
9.83617e+06
418.847
485820
9.79612e+06
427.615
546448
9.75107e+06
502.395
610256
9.7008e+06
638.057
677240
9.64544e+06
787.074
747121
9.58478e+06
880.707
819655
9.51952e+06
859.606
893993
9.45098e+06
857.581
969492
9.38182e+06
750.856
1.04466e+06
9.31625e+06
915.907
1.11995e+06
9.25925e+06
831
1.19697e+06
9.22394e+06
1758.52
1.28195e+06
9.17754e+06
-712.1
1.44359e+06
9.12285e+06
20534.6
1.62538e+06
8.98818e+06
59018.6
1.89807e+06
8.84702e+06
20441.3
2.16838e+06
8.71449e+06
-34913.5
2.38165e+06
8.55173e+06
-36568.6
2.63715e+06
8.39775e+06
-16995.9
2.84118e+06
8.20952e+06
9589.67
2.98791e+06
7.83752e+06
24090.4
3.02645e+06
7.18969e+06
46565.2
2.94295e+06
6.46772e+06
63808
2.67109e+06
5.93733e+06
20624.9
2.42298e+06
6.17862e+06
82712.8
2.54229e+06
6.22817e+06
55973.4
2.4652e+06
5.94465e+06
-34098.8
1.9818e+06
5.78966e+06
-111832
1.32128e+06
5.59383e+06
-189650
582942
5.43458e+06
-199728
-143649
5.40883e+06
-274514
-628132
5.63349e+06
-566135
-793025
6.07143e+06
-842059
-1.08445e+06
6.19593e+06
-615902
-1.41683e+06
5.82365e+06
-197897
-1.45002e+06
5.59359e+06
-204117
-1.52692e+06
5.61988e+06
-253492
-1.70917e+06
5.64178e+06
-175098
-1.83597e+06
5.59497e+06
-61790.6
-1.95845e+06
5.56396e+06
-28232.5
-2.05306e+06
5.59146e+06
26993
-2.05203e+06
5.55236e+06
80486.4
-2.03677e+06
5.43431e+06
103803
-1.74069e+06
688096
-2.41743e+06
1.00001e+07
19930.2
9.99959e+06
52378.2
9.99618e+06
94648.6
9.98948e+06
137492
9.97941e+06
181125
9.96582e+06
226615
9.94849e+06
273507
9.92712e+06
322749
9.90143e+06
374489
9.87115e+06
428809
9.83604e+06
485956
9.79607e+06
546546
9.75105e+06
610309
9.70074e+06
677248
9.64533e+06
747102
9.58462e+06
819592
9.51937e+06
893906
9.45074e+06
969239
9.38143e+06
1.04427e+06
9.31506e+06
1.11934e+06
9.25725e+06
1.19738e+06
9.21517e+06
1.28835e+06
9.18877e+06
1.41678e+06
9.18459e+06
1.59804e+06
9.17801e+06
1.85959e+06
9.0605e+06
2.15125e+06
8.81791e+06
2.4303e+06
8.58015e+06
2.68515e+06
8.36026e+06
2.8572e+06
8.1377e+06
2.95715e+06
7.83798e+06
2.98646e+06
7.37463e+06
2.91468e+06
6.78248e+06
2.77727e+06
6.22193e+06
2.63528e+06
6.15459e+06
2.56284e+06
6.32028e+06
2.39694e+06
6.43636e+06
2.02454e+06
6.44181e+06
1.53324e+06
6.34007e+06
942818
6.29153e+06
339401
5.98705e+06
-100954
5.05789e+06
-684430
3.84393e+06
-1.34059e+06
2.81005e+06
-1.55356e+06
2.46889e+06
-1.58469e+06
2.51462e+06
-1.74412e+06
2.48143e+06
-1.74246e+06
2.5353e+06
-1.60388e+06
2.86145e+06
-1.75376e+06
3.22059e+06
-1.85068e+06
3.66462e+06
-1.84307e+06
4.09844e+06
-1.83936e+06
4.54175e+06
-1.69988e+06
-2.83084e+06
9.99935e+06
489.965
21260
9.99995e+06
119.54
54847.6
9.99762e+06
317.711
99842.6
9.99239e+06
301.727
145522
9.98407e+06
326.285
192077
9.97239e+06
401.671
240631
9.95695e+06
458.003
290999
9.93792e+06
473.637
343594
9.9151e+06
456.21
398989
9.88786e+06
422.793
457769
9.85595e+06
397.37
519801
9.81955e+06
409.163
585341
9.77809e+06
478.219
654806
9.73151e+06
594.21
727555
9.67899e+06
715.515
803872
9.62059e+06
751.248
882364
9.55639e+06
695.341
962167
9.48833e+06
523.089
1.04121e+06
9.41948e+06
470.03
1.11662e+06
9.35795e+06
523.524
1.18559e+06
9.30879e+06
2416.23
1.24851e+06
9.278e+06
8648.64
1.31088e+06
9.30047e+06
3797.91
1.42355e+06
9.40259e+06
-394.625
1.53395e+06
9.43467e+06
25263.6
1.84677e+06
9.31996e+06
23163.6
2.26049e+06
9.06563e+06
-840.211
2.63284e+06
8.807e+06
-10485.7
2.90068e+06
8.57756e+06
-10445
3.07631e+06
8.36715e+06
-5457.35
3.20215e+06
8.12142e+06
-3640.35
3.2771e+06
7.77529e+06
-656.83
3.29432e+06
7.24607e+06
-1803.96
3.21048e+06
6.64284e+06
-7425.54
3.04703e+06
6.35442e+06
11992.8
2.83746e+06
6.26913e+06
23327.7
2.553e+06
6.17583e+06
22838.2
2.08725e+06
6.06142e+06
-3504.24
1.4858e+06
5.93506e+06
-58677.5
826422
5.80152e+06
-84080
141725
5.74133e+06
-56381.4
-444739
5.97136e+06
-238153
-722614
6.32057e+06
-514242
-859731
6.40894e+06
-333245
-1.10119e+06
6.25011e+06
70780.4
-1.3311e+06
6.23102e+06
7331.33
-1.54337e+06
6.30733e+06
-68958.5
-1.79844e+06
6.44483e+06
-110338
-1.97939e+06
6.53292e+06
-67141.7
-2.11346e+06
6.57509e+06
-27328.9
-2.19143e+06
6.65875e+06
-518.77
-2.23358e+06
6.77784e+06
34244.1
-2.24078e+06
7.26096e+06
-26159
-2.22082e+06
200632
-2.38199e+06
1.00001e+07
21241.3
9.99995e+06
54735.3
9.99726e+06
99763.5
9.99167e+06
145463
9.98306e+06
192048
9.97131e+06
240641
9.95597e+06
291049
9.93716e+06
343673
9.91459e+06
399082
9.88756e+06
457856
9.8558e+06
519861
9.81947e+06
585355
9.77802e+06
654755
9.73141e+06
727431
9.67883e+06
803654
9.62033e+06
882053
9.55605e+06
961729
9.48772e+06
1.04051e+06
9.41898e+06
1.1157e+06
9.35682e+06
1.18438e+06
9.31362e+06
1.24644e+06
9.30902e+06
1.30805e+06
9.34617e+06
1.38949e+06
9.41699e+06
1.53513e+06
9.45472e+06
1.85011e+06
9.345e+06
2.28396e+06
9.11396e+06
2.65666e+06
8.8707e+06
2.91325e+06
8.63075e+06
3.08374e+06
8.38254e+06
3.19937e+06
8.1028e+06
3.26453e+06
7.75333e+06
3.26811e+06
7.31422e+06
3.22212e+06
6.83182e+06
3.12065e+06
6.4763e+06
2.94391e+06
6.27255e+06
2.64175e+06
6.16172e+06
2.18077e+06
6.09304e+06
1.62623e+06
6.00432e+06
1.00702e+06
5.96823e+06
331201
6.04417e+06
-188225
5.57223e+06
-394480
4.46096e+06
-648706
3.82608e+06
-1.14597e+06
3.93678e+06
-1.60405e+06
3.94348e+06