/*--------------------------------*- C++ -*----------------------------------*\
| =========                 |                                                 |
| \\      /  F ield         | OpenFOAM: The Open Source CFD Toolbox           |
|  \\    /   O peration     | Version:  4.1                                   |
|   \\  /    A nd           | Web:      www.OpenFOAM.org                      |
|    \\/     M anipulation  |                                                 |
\*---------------------------------------------------------------------------*/
FoamFile
{
    version     2.0;
    format      ascii;
    class       volVectorField;
    location    "40";
    object      U;
}
// * * * * * * * * * * * * * * * * * * * * * * * * * * * * * * * * * * * * * //

dimensions      [0 1 -1 0 0 0 0];

internalField   nonuniform List<vector> 
4432
(
(39.983 0.000933203 0.0514636)
(39.9156 0.00112462 0.0915804)
(39.8303 0.00342696 0.124242)
(39.7128 0.00426518 0.156711)
(39.5435 0.00360059 0.190201)
(39.3244 0.00233453 0.224444)
(39.0627 0.00103893 0.259149)
(38.763 5.16827e-05 0.293298)
(38.4258 -0.000429319 0.326575)
(38.0497 -0.000438957 0.35843)
(37.6326 -9.98987e-05 0.387437)
(37.1725 0.000348793 0.41486)
(36.671 0.000521863 0.435451)
(36.144 0.000578861 0.449844)
(35.6054 -0.00204574 0.439718)
(35.1689 -0.00902559 0.381651)
(34.8463 -0.00344725 0.419077)
(34.6995 0.00354303 0.348782)
(34.7565 0.00507842 0.314918)
(34.6104 0.0136746 0.520818)
(34.2275 0.00975548 0.644633)
(33.6919 0.000780994 0.787808)
(33.0175 -0.0207832 0.86893)
(32.2514 -0.0394305 0.868594)
(31.3751 -0.0459128 0.898221)
(30.4412 -0.0529955 0.827197)
(29.5477 -0.0576034 0.664101)
(28.6958 -0.0461532 0.457838)
(27.9739 -0.0306407 0.356352)
(27.3928 -0.04139 0.328298)
(27.0405 -0.0725864 0.325397)
(27.0101 -0.0773224 0.268669)
(27.3315 -0.0278015 -0.0440238)
(27.9671 0.0701912 -0.632392)
(28.9653 0.163426 -1.42308)
(30.0314 0.225088 -1.68909)
(31.5085 0.260957 -1.26693)
(32.5124 -0.122707 -1.30489)
(32.5879 -0.228483 -1.19651)
(32.9552 -0.0636423 -0.825595)
(33.228 0.0826417 -0.444738)
(33.7121 0.150494 -0.262629)
(34.0627 0.0745979 -0.144799)
(34.098 -0.0054533 0.0609695)
(34.5969 0.0298751 0.191007)
(35.0054 0.384513 0.040491)
(35.3114 0.63011 0.526994)
(37.1787 0.183735 0.460023)
(37.7276 -0.0682141 0.164138)
(37.0078 -0.479023 -0.330151)
(36.3151 -0.0147337 1.01085)
(36.2267 0.358194 -2.08833)
(41.3191 -1.95186 -5.03705)
(44.3595 -3.61196 1.58216)
(39.9847 0.000933232 0.0514525)
(39.9175 0.00112458 0.0917241)
(39.8311 0.00342779 0.124412)
(39.7104 0.00426951 0.156684)
(39.5393 0.00360636 0.189832)
(39.3199 0.00234093 0.223781)
(39.0589 0.00104207 0.258101)
(38.7603 5.22761e-05 0.291992)
(38.4239 -0.000434739 0.325263)
(38.0481 -0.000449392 0.35728)
(37.6298 -0.00011349 0.387117)
(37.1673 0.000332479 0.415402)
(36.663 0.000509882 0.438447)
(36.1267 0.000554041 0.453725)
(35.5871 -0.0020302 0.451219)
(35.1 -0.00911535 0.395567)
(34.7763 -0.00362571 0.3672)
(34.6933 0.00320394 0.291632)
(34.75 0.00537395 0.303374)
(34.6411 0.0134746 0.530003)
(34.2653 0.00953095 0.631078)
(33.7254 0.000941712 0.69845)
(33.0493 -0.0199805 0.756461)
(32.2906 -0.0405691 0.76438)
(31.3876 -0.0480803 0.78998)
(30.3839 -0.0539955 0.694188)
(29.3782 -0.0600188 0.53763)
(28.4669 -0.0528938 0.419725)
(27.6735 -0.0372698 0.311362)
(27.005 -0.0443028 0.122765)
(26.6368 -0.0741785 -0.131953)
(26.6163 -0.102369 -0.309278)
(26.9313 -0.0717508 -0.406684)
(27.5338 -0.0113568 -0.410598)
(28.4815 0.118028 -0.720163)
(29.5873 0.223805 -1.0039)
(30.4681 0.291885 -0.753206)
(31.3388 -0.0485251 -0.566582)
(32.0182 -0.243491 -0.310751)
(32.8148 -0.154113 -0.196875)
(32.8478 0.0133832 0.142431)
(33.0581 0.142253 0.280516)
(33.0165 0.0797585 0.47049)
(33.2026 -0.00229861 0.614984)
(34.0645 0.0488724 0.572397)
(34.5492 0.395013 -0.129265)
(34.0626 0.676487 -0.0422519)
(35.6386 0.192155 0.227676)
(36.11 -0.0837176 0.145818)
(35.8851 -0.476677 -0.128975)
(35.1685 0.113979 -0.324083)
(34.9128 0.347015 -3.62054)
(45.5378 -2.21783 -5.55971)
(43.9924 -3.0166 0.254037)
(40.0119 0.000948935 0.0194845)
(40.0387 0.00110829 0.0568594)
(40.0884 0.00338344 0.101041)
(40.144 0.00419651 0.14541)
(40.1867 0.00346063 0.189599)
(40.2171 0.00205297 0.233969)
(40.24 0.000570218 0.2786)
(40.2569 -0.000565767 0.323624)
(40.2671 -0.00110228 0.369485)
(40.2693 -0.000915764 0.416597)
(40.2628 -0.000107285 0.46522)
(40.2457 0.00112368 0.51395)
(40.2177 0.00275315 0.561324)
(40.1668 0.00427893 0.594018)
(40.0967 0.00842751 0.614894)
(39.8592 0.00920135 0.623459)
(39.6244 0.0106489 0.424176)
(38.9206 0.0111017 0.447351)
(37.8355 0.00362731 0.642909)
(36.9337 0.000115198 0.745714)
(36.1107 0.00254058 0.837696)
(35.3234 0.00385088 0.933907)
(34.6192 0.00587372 1.03173)
(33.927 0.010576 1.1743)
(33.2551 0.0138167 1.30478)
(32.5827 0.0145514 1.34276)
(31.8743 0.0150251 1.30681)
(31.1018 0.0249366 1.25332)
(30.15 0.0370525 1.16666)
(29.2169 0.0250802 0.938664)
(28.5361 0.0112101 0.488209)
(28.2689 0.0278929 -0.129392)
(28.534 0.0558243 -0.736517)
(29.1837 0.0751177 -1.12952)
(30.1841 0.0515456 -1.17188)
(31.2492 -0.0156324 -1.03518)
(31.9911 -0.15169 -0.555543)
(32.4785 -0.179856 -0.479172)
(32.6044 -0.0795561 -0.419967)
(32.5945 0.00319726 -0.17066)
(32.9117 -0.0108304 0.261373)
(33.7382 -0.196848 0.501853)
(34.4133 -0.377461 0.54923)
(35.1879 -0.521541 0.175136)
(36.1626 -0.666921 -0.00761694)
(37.1675 -0.773072 -0.564273)
(37.8744 -0.920836 -0.0923004)
(39.8731 -1.02223 -0.192377)
(40.4918 -1.20843 -0.402583)
(41.5026 -1.39451 -0.772204)
(42.7596 -1.19303 0.406537)
(35.6873 -2.2906 -3.78624)
(52.3405 -5.75946 -1.2232)
(59.9562 -5.35314 2.37827)
(40.0135 0.000948904 0.0194551)
(40.0405 0.00110848 0.0570152)
(40.0892 0.00338357 0.101083)
(40.1412 0.00419657 0.145248)
(40.1813 0.00346064 0.189197)
(40.2104 0.00205263 0.233324)
(40.2331 0.000570501 0.277781)
(40.2505 -0.000568973 0.322751)
(40.2621 -0.00110072 0.36884)
(40.2658 -0.000922342 0.416341)
(40.2616 -0.000113861 0.46594)
(40.2469 0.00113688 0.515992)
(40.2211 0.00270617 0.564243)
(40.1763 0.00444256 0.601869)
(40.1039 0.00787042 0.614497)
(39.9445 0.00927771 0.573713)
(39.6781 0.0115398 0.442948)
(38.9362 0.0128855 0.464243)
(37.8437 0.00394122 0.616398)
(36.9131 0.000510662 0.731721)
(36.117 0.00275198 0.810728)
(35.3404 0.00404711 0.90564)
(34.6403 0.00614009 0.990927)
(33.9631 0.011205 1.10091)
(33.3029 0.0151595 1.21083)
(32.672 0.0179818 1.24586)
(32.0117 0.0214251 1.25563)
(31.2269 0.0308813 1.25001)
(30.3528 0.0447727 1.12243)
(29.5498 0.0478595 0.830654)
(28.7409 0.0375432 0.445384)
(28.2826 0.0503355 -0.0741164)
(28.4187 0.0665868 -0.617203)
(29.0268 0.0774437 -1.01559)
(29.9503 0.0382819 -1.10081)
(31.0238 0.0130757 -1.00262)
(31.9997 -0.16447 -0.606761)
(32.7631 -0.240217 -0.358388)
(33.224 -0.162231 -0.283681)
(33.8708 -0.220936 -0.639953)
(33.978 -0.0942828 -0.227652)
(34.5489 -0.148012 0.112098)
(35.0681 -0.268728 0.135723)
(35.5232 -0.369872 0.00153062)
(36.3203 -0.520768 -0.0838178)
(37.2775 -0.639899 -0.84138)
(38.0237 -0.760458 -0.821001)
(39.5755 -0.943615 -0.417952)
(40.3801 -0.746006 -0.387852)
(41.4661 -1.20272 -1.3982)
(42.5074 -0.891622 2.01044)
(33.5768 -2.60816 -3.25649)
(22.9733 -6.08292 -9.15497)
(10.762 -2.55267 -3.04726)
(40.0023 0.000935898 0.0261559)
(39.9901 0.0011298 0.0723294)
(39.9792 0.00334881 0.120533)
(39.9568 0.00411531 0.166444)
(39.906 0.00336112 0.212184)
(39.8284 0.00197727 0.259053)
(39.7307 0.000571885 0.30779)
(39.6168 -0.000434106 0.359038)
(39.4879 -0.000773229 0.413507)
(39.3445 -0.000325304 0.471574)
(39.1861 0.000779664 0.533281)
(39.0122 0.00243071 0.597733)
(38.8193 0.00420776 0.663426)
(38.6106 0.00665045 0.726733)
(38.3573 0.0076643 0.782668)
(38.136 0.0142001 0.843805)
(37.7444 0.00710443 0.81995)
(37.3527 0.00527291 1.13442)
(36.9238 0.000626765 1.37023)
(36.4926 0.00065317 1.53939)
(35.9848 0.00249855 1.63942)
(35.424 0.00493214 1.69634)
(34.859 0.0088496 1.76057)
(34.2701 0.0163683 1.84789)
(33.6523 0.0213854 1.94206)
(33.0064 0.0280774 1.97992)
(32.2629 0.0388509 1.99119)
(31.325 0.0502462 2.06207)
(30.1264 0.0442535 1.9863)
(28.8865 0.0162651 1.66491)
(27.8818 0.00946498 1.01029)
(27.391 0.0469958 -0.0179198)
(27.4285 0.119551 -1.07424)
(27.7208 0.227714 -2.07433)
(28.5987 0.274801 -3.13826)
(29.7651 -0.00117643 -2.67157)
(30.3818 -0.337129 -1.54736)
(30.4345 -0.523731 -0.56831)
(29.9087 -0.570075 0.148048)
(29.5759 -0.285656 0.166193)
(29.4448 -0.142903 0.0915162)
(29.8253 -0.270941 0.332451)
(30.3856 -0.4439 -0.192874)
(30.837 -0.561775 -0.663189)
(31.8223 -0.701863 -1.21985)
(33.0279 -0.745127 -1.6063)
(33.9601 -0.848129 -1.85428)
(35.5416 -0.811506 -2.24042)
(36.7979 -0.818039 -3.16322)
(40.4649 -0.897925 -4.76323)
(46.8372 -0.773469 -0.400171)
(52.7039 -1.09445 4.9318)
(50.6158 -0.281262 3.45177)
(46.8857 -0.387446 -3.90451)
(40.0039 0.000935866 0.0261221)
(39.9919 0.00112997 0.0723138)
(39.9799 0.00334889 0.120452)
(39.9541 0.00411533 0.166328)
(39.901 0.00336105 0.212085)
(39.8227 0.00197707 0.259008)
(39.7253 0.000571305 0.307831)
(39.6123 -0.000434733 0.359191)
(39.4848 -0.000774366 0.41383)
(39.3428 -0.000326568 0.472103)
(39.1855 0.000778201 0.534103)
(39.0123 0.00243323 0.598955)
(38.8207 0.0042075 0.664866)
(38.6103 0.00666454 0.72824)
(38.3684 0.00766581 0.783496)
(38.1071 0.0141439 0.836719)
(37.7486 0.00710455 0.863663)
(37.3663 0.00507044 1.1086)
(36.9147 0.000692915 1.35016)
(36.4931 0.000780199 1.51589)
(35.994 0.00264564 1.61109)
(35.443 0.00512215 1.66111)
(34.8933 0.00927931 1.71327)
(34.3195 0.0180896 1.81343)
(33.6984 0.0241709 1.91614)
(33.0689 0.0324817 1.96044)
(32.3365 0.045847 2.02664)
(31.4284 0.0603976 2.13085)
(30.3205 0.0642988 2.10054)
(29.0387 0.0357265 1.82824)
(27.7729 0.0175967 1.19463)
(27.2183 0.05701 0.139769)
(27.3298 0.133755 -0.919236)
(27.9648 0.202604 -1.71638)
(28.9859 0.173561 -2.26435)
(30.2177 0.0561255 -2.08616)
(30.8845 -0.229293 -1.44668)
(31.1436 -0.45604 -1.06586)
(31.2046 -0.560945 -1.05163)
(31.8559 -0.434491 -1.78009)
(31.1387 -0.212497 -0.784619)
(31.9426 -0.2826 -0.75048)
(31.9523 -0.43496 -1.27871)
(31.8711 -0.44131 -1.92279)
(32.2095 -0.545737 -2.15324)
(32.9437 -0.55531 -2.47016)
(33.6943 -0.649863 -2.88366)
(34.9956 -0.589522 -2.98748)
(36.0357 -0.574021 -4.5071)
(40.1867 -0.622065 -4.68917)
(45.0011 -0.719564 -0.168747)
(50.5413 -1.22515 3.75117)
(48.9388 0.32047 8.46035)
(44.6011 -0.000700238 -3.03603)
(40.0019 0.000916588 0.0333217)
(39.989 0.00109325 0.0945316)
(39.9791 0.00330262 0.163852)
(39.9589 0.00406941 0.23416)
(39.9101 0.00332846 0.306445)
(39.8331 0.00194783 0.381174)
(39.7335 0.000527495 0.458477)
(39.6144 -0.000511299 0.538424)
(39.4759 -0.000883801 0.62106)
(39.3174 -0.000469549 0.70623)
(39.1369 0.000656667 0.793597)
(38.9324 0.00234904 0.88279)
(38.7003 0.00421336 0.973082)
(38.4385 0.00636798 1.06547)
(38.138 0.00759625 1.15848)
(37.8055 0.0103575 1.26272)
(37.4112 0.00583768 1.40731)
(36.945 0.00591293 1.56919)
(36.5086 -0.000363619 1.7188)
(36.1849 -0.000282245 1.88923)
(35.8228 0.00163716 2.05028)
(35.3997 0.00265271 2.16927)
(34.9155 0.00406036 2.28397)
(34.3319 0.00938372 2.42377)
(33.6741 0.0107158 2.59183)
(32.9535 0.0134563 2.72701)
(32.0399 0.0216026 2.93335)
(30.8459 0.0216023 3.3108)
(29.3715 0.00526058 3.54396)
(27.7212 -0.00318476 3.16426)
(26.4706 0.0154778 1.94052)
(25.887 0.047336 0.27254)
(25.6486 0.105942 -1.35159)
(25.7013 0.19652 -3.08047)
(26.5363 0.183783 -4.323)
(27.3781 -0.172684 -2.87868)
(27.5027 -0.697651 -0.936132)
(27.1242 -1.0811 0.166898)
(26.2188 -1.05072 1.32298)
(25.729 -0.324225 0.25699)
(25.4247 -0.0440343 -0.133578)
(25.7338 -0.120605 0.696237)
(26.4821 -0.274299 0.0839429)
(27.2341 -0.3171 -0.585345)
(28.1361 -0.297196 -1.25054)
(29.4562 -0.274548 -1.79956)
(30.0942 -0.464809 -2.77206)
(30.7701 -0.193522 -3.55288)
(31.8164 -0.179932 -4.84125)
(32.022 -0.0344931 -6.46273)
(35.8432 -0.632142 -7.03948)
(39.0283 -1.23905 -6.52944)
(40.9545 -0.623397 -5.74913)
(41.806 0.541208 -9.15348)
(40.0035 0.000916552 0.0332922)
(39.9908 0.00109343 0.0944708)
(39.9799 0.00330272 0.163759)
(39.9562 0.00406944 0.234056)
(39.9051 0.00332841 0.306368)
(39.8274 0.00194764 0.381131)
(39.7281 0.000527056 0.458462)
(39.6099 -0.000512022 0.538427)
(39.4729 -0.000884738 0.621084)
(39.3158 -0.000470207 0.706275)
(39.1365 0.000656548 0.793726)
(38.9326 0.00235014 0.882996)
(38.701 0.00421504 0.973457)
(38.4381 0.00637738 1.06542)
(38.1399 0.00759604 1.15897)
(37.7968 0.010454 1.25847)
(37.417 0.0057368 1.39843)
(36.9519 0.00621772 1.58725)
(36.4981 -0.000423967 1.71685)
(36.1823 -0.000299498 1.86639)
(35.8239 0.00168212 2.01978)
(35.4041 0.002732 2.13303)
(34.9125 0.00388185 2.2461)
(34.314 0.00929909 2.44308)
(33.6738 0.0109266 2.61234)
(32.9586 0.014345 2.76513)
(32.0142 0.025119 3.08246)
(30.7952 0.0263049 3.52648)
(29.3167 0.0104513 3.7893)
(27.6499 0.00310121 3.43497)
(26.4538 0.0181135 2.14249)
(25.9322 0.0468539 0.518081)
(25.7263 0.103226 -0.868261)
(25.7999 0.200638 -2.15429)
(26.7526 0.201817 -3.5431)
(28.1645 -0.0958148 -3.37116)
(28.9116 -0.53453 -2.58451)
(28.7902 -1.11265 -1.8366)
(28.1098 -1.31561 -0.7437)
(27.347 -0.812642 -1.26727)
(26.237 -0.207632 -0.710695)
(26.5077 -0.165147 -0.595229)
(27.215 -0.229294 -1.91285)
(27.4754 -0.324739 -2.91264)
(27.5673 -0.351838 -3.02373)
(28.1026 -0.278198 -3.53812)
(28.54 -0.278401 -4.22621)
(28.8602 -0.02146 -5.03373)
(29.4748 0.0386011 -6.20882)
(28.522 0.158607 -8.04318)
(34.4947 -0.557322 -7.19208)
(31.3179 -0.964414 -6.77245)
(35.0775 -0.452379 -6.23643)
(40.1809 0.580843 -12.2413)
(40.002 0.000906679 0.0413137)
(39.9894 0.0010758 0.117129)
(39.9804 0.00326526 0.204203)
(39.961 0.00401601 0.29153)
(39.9135 0.00327496 0.379896)
(39.8384 0.00190688 0.470211)
(39.7415 0.000508917 0.563175)
(39.626 -0.00049712 0.659441)
(39.4923 -0.000825292 0.759612)
(39.3396 -0.000360009 0.864117)
(39.1659 0.000839951 0.973209)
(38.969 0.00257215 1.08719)
(38.7456 0.00453484 1.20625)
(38.4924 0.0065344 1.33195)
(38.2057 0.00832299 1.46451)
(37.8772 0.00964089 1.61207)
(37.5184 0.0102902 1.77119)
(37.0781 0.00879027 1.96806)
(36.5175 0.00547884 2.12997)
(36.1059 -0.000482814 2.27123)
(35.7384 0.00260156 2.43679)
(35.3374 0.00404504 2.6025)
(34.8506 -0.00205561 2.84412)
(34.2112 -0.0028038 3.09518)
(33.4517 -0.00648619 3.35797)
(32.5922 -0.00826273 3.63488)
(31.449 0.00202167 4.09144)
(30.0992 0.00671408 4.77523)
(28.5689 0.00131296 5.17435)
(27.0233 0.00780168 4.52911)
(25.8271 0.0287809 2.80201)
(24.928 0.0681223 0.761035)
(24.1066 0.141212 -1.27896)
(23.5186 0.277108 -3.60408)
(23.8847 0.403969 -5.17348)
(22.5765 -0.127247 -2.999)
(22.8424 -1.01169 1.81078)
(23.262 -1.48544 3.41152)
(23.0894 -1.69873 3.48271)
(21.834 -0.484123 0.807097)
(20.8453 0.00857503 -0.0580729)
(21.4964 -0.105068 1.23387)
(22.2189 -0.00365737 0.200787)
(23.6256 0.00645926 -1.19231)
(24.0083 -0.0491394 -1.6362)
(24.4157 0.156829 -2.00349)
(24.7866 0.631257 -3.20827)
(26.5594 0.853705 -3.99133)
(28.7084 0.406198 -4.00612)
(23.2713 1.0125 -6.08431)
(21.5663 0.347122 -5.4971)
(18.4774 0.0944523 -3.20243)
(30.1363 -0.131335 -4.40516)
(24.992 -0.443575 -5.19817)
(40.0035 0.000906643 0.0412729)
(39.9912 0.00107598 0.11703)
(39.981 0.00326537 0.204056)
(39.9583 0.00401606 0.291372)
(39.9085 0.00327492 0.379801)
(39.8327 0.0019067 0.470221)
(39.7362 0.000508512 0.563309)
(39.6217 -0.000497774 0.659705)
(39.4894 -0.000826077 0.759994)
(39.3381 -0.000360409 0.864592)
(39.1656 0.000839822 0.973752)
(38.9694 0.00257598 1.08771)
(38.7462 0.00453993 1.2068)
(38.4929 0.00654798 1.33203)
(38.2044 0.00832353 1.46508)
(37.8786 0.00968238 1.61122)
(37.5062 0.0101959 1.78058)
(37.1052 0.0095367 1.98598)
(36.5573 0.00630847 2.11337)
(36.1164 -0.000942934 2.24479)
(35.7417 0.00277525 2.40468)
(35.338 0.00521202 2.56585)
(34.7909 -0.00378304 2.81054)
(34.1207 -0.00289028 3.10609)
(33.4073 -0.00664077 3.35321)
(32.4827 -0.00854374 3.69805)
(31.3323 0.00321627 4.28198)
(30.065 0.00847517 4.95935)
(28.6187 0.00260791 5.28141)
(27.1605 0.00704238 4.6412)
(26.022 0.0259864 2.95458)
(25.1924 0.0636725 1.00093)
(24.5761 0.128123 -0.776788)
(24.3283 0.282062 -2.67671)
(24.9837 0.633708 -4.55344)
(26.3052 0.196864 -4.52845)
(27.4769 0.198173 -4.07812)
(27.4751 -0.0016124 -3.15336)
(26.6087 -0.426416 -1.74536)
(25.2934 -0.1473 -1.20516)
(22.2275 0.105507 -0.671228)
(21.949 -0.038456 -0.201443)
(22.8316 0.158009 -1.88289)
(23.5206 -0.115153 -2.60476)
(23.4337 -0.249983 -3.05135)
(23.0445 0.111104 -3.69922)
(22.8911 0.779439 -4.48571)
(22.7855 1.04534 -5.29255)
(22.7974 1.15591 -6.06492)
(21.492 1.43005 -7.69108)
(29.0587 0.20753 -5.98884)
(19.7937 -0.033444 -4.21653)
(25.3448 0.0334791 -3.45642)
(25.9652 0.153397 -5.2032)
(40.002 0.000876362 0.04915)
(39.9896 0.00100222 0.138127)
(39.9817 0.00316554 0.242004)
(39.9638 0.00391663 0.346509)
(39.9187 0.00322508 0.452876)
(39.8471 0.00193079 0.562383)
(39.7546 0.000614936 0.675899)
(39.6444 -0.000310589 0.79412)
(39.5166 -0.000573341 0.917608)
(39.3704 -6.62458e-05 1.04673)
(39.2038 0.00113544 1.18168)
(39.0147 0.00282842 1.32276)
(38.8005 0.00471616 1.47046)
(38.5586 0.00649277 1.62657)
(38.287 0.00803508 1.79229)
(37.9823 0.00900798 1.97573)
(37.6585 0.010534 2.17438)
(37.3015 0.0125486 2.43451)
(36.8579 0.0143215 2.62469)
(36.3653 0.00721887 2.74692)
(35.8649 0.00569381 2.89239)
(35.3508 0.00188567 3.05761)
(34.7433 -0.0108496 3.45696)
(34.1257 -0.014614 3.84355)
(33.3544 -0.0245931 4.24859)
(32.4111 -0.0258885 4.72241)
(31.1513 -0.00517798 5.36423)
(29.7869 0.0163497 6.17974)
(28.4291 0.0240322 6.58576)
(26.9964 0.0354866 5.84392)
(25.5638 0.0601265 3.99486)
(24.0714 0.123909 1.84647)
(22.2223 0.272614 -0.264171)
(20.4749 0.694391 -2.69659)
(18.8064 1.27563 -3.34804)
(-3.94042 0.0204435 1.11882)
(5.7022 -0.906954 0.164187)
(9.52053 -2.37426 1.51476)
(12.8912 -1.99718 6.38198)
(13.0163 -0.67109 0.516553)
(14.4931 -0.299133 -0.254198)
(15.2357 -0.0846133 1.50192)
(16.0396 0.308257 -0.0881506)
(16.0021 0.211691 -1.51741)
(16.934 -0.0255071 -2.69855)
(17.5766 -0.36412 -3.37137)
(18.3265 0.0667582 -4.02476)
(19.3668 0.262949 -5.01754)
(20.2215 0.315324 -5.66454)
(19.3422 0.30763 -6.56857)
(17.3225 -0.191256 -6.66881)
(17.8611 0.502785 -6.58921)
(29.3946 2.77567 -8.89561)
(0.928362 1.77042 -10.4489)
(40.0034 0.000876322 0.0491045)
(39.9914 0.00100242 0.138031)
(39.9823 0.00316564 0.241841)
(39.9611 0.00391689 0.346346)
(39.9139 0.00322463 0.452805)
(39.8416 0.00192884 0.562456)
(39.7495 0.000612335 0.676137)
(39.6402 -0.00031339 0.794517)
(39.5138 -0.000576076 0.918131)
(39.3689 -6.84991e-05 1.04732)
(39.2035 0.00113388 1.18225)
(39.0151 0.00282994 1.32323)
(38.8008 0.00472341 1.47079)
(38.5587 0.00650573 1.62643)
(38.2851 0.00803133 1.79226)
(37.9838 0.00905647 1.97467)
(37.6548 0.0106355 2.17724)
(37.3192 0.0117862 2.42508)
(36.9586 0.0196205 2.60967)
(36.4741 0.00597077 2.73536)
(35.8968 0.00702329 2.9184)
(35.3519 0.00350517 3.11612)
(34.7383 -0.0131594 3.45434)
(34.0508 -0.015369 3.83449)
(33.2458 -0.0254186 4.22935)
(32.2419 -0.024634 4.75315)
(31.0593 -0.00387587 5.45778)
(29.8658 0.0148298 6.25333)
(28.5945 0.0209368 6.61521)
(27.223 0.0317889 5.92612)
(25.8798 0.0562161 4.1399)
(24.5917 0.116148 2.10125)
(23.3476 0.256571 0.251933)
(22.4309 0.860539 -1.74104)
(23.4193 3.26255 -3.93699)
(24.0808 3.92289 -4.91859)
(24.2825 3.12427 -4.02231)
(22.2574 2.57789 -2.32022)
(21.275 2.54853 -0.386845)
(22.3335 2.63111 1.56083)
(17.8441 0.8121 1.37834)
(18.0053 1.0071 -0.319901)
(18.0851 0.64278 -1.42113)
(18.4429 0.465196 -1.88441)
(17.6583 0.578956 -2.09155)
(17.3425 0.680373 -2.73522)
(17.9375 1.44789 -3.87583)
(18.5107 1.78001 -4.87932)
(18.6726 1.82697 -5.72334)
(18.1033 1.80436 -6.81538)
(17.2174 1.27388 -6.0992)
(17.5806 1.77089 -4.67671)
(27.3329 4.50853 -3.49594)
(23.053 3.78912 -4.96892)
(40.0019 0.000862073 0.0567209)
(39.9902 0.00098765 0.15762)
(39.9836 0.00311333 0.277845)
(39.9678 0.00385753 0.399125)
(39.9258 0.00319477 0.522767)
(39.8582 0.00195132 0.650099)
(39.7707 0.000697002 0.78201)
(39.6659 -0.000167396 0.919258)
(39.5443 -0.000380458 1.06251)
(39.4048 0.000149302 1.21229)
(39.2455 0.00133901 1.36899)
(39.0645 0.00298752 1.53315)
(38.8597 0.00479075 1.70559)
(38.6296 0.00647051 1.88796)
(38.3732 0.00784876 2.08248)
(38.0917 0.00886405 2.29352)
(37.7897 0.00965008 2.52355)
(37.4771 0.0118104 2.78081)
(37.1528 0.0144958 3.04089)
(36.777 0.0158703 3.24959)
(36.3331 0.0168213 3.46867)
(35.7086 0.00991046 3.73554)
(35.0075 -0.0101243 4.09636)
(34.2603 -0.0297753 4.58123)
(33.4987 -0.0432914 5.18216)
(32.607 -0.0510308 5.90017)
(31.4402 -0.0114943 6.68408)
(30.1401 0.0384357 7.46579)
(28.8731 0.0488217 7.86935)
(27.3909 0.0550553 7.2499)
(25.6393 0.0926636 5.63841)
(23.6266 0.174928 3.7738)
(20.8846 0.410404 2.30751)
(18.7986 1.14709 1.59041)
(-3.36351 0.57659 1.54157)
(-4.34358 -0.00370119 1.05662)
(-4.14553 -0.496412 0.583959)
(-6.85262 -1.59779 -6.83397)
(-1.6331 -0.587471 -2.26544)
(-2.53887 -1.37286 -3.13097)
(7.3772 -1.85054 -1.43843)
(7.07431 -1.22905 -1.04884)
(8.15815 -1.33703 -3.74804)
(12.0748 -1.35386 -5.42658)
(16.123 -1.33604 -6.3401)
(18.6971 -1.58719 -6.95164)
(20.2676 -1.55698 -7.01847)
(21.1698 -1.23496 -7.5122)
(21.2198 -0.75815 -8.06468)
(20.2089 -0.728189 -8.61655)
(19.3858 -0.301121 -8.34976)
(14.1084 2.38978 -7.49043)
(5.85964 4.5455 -3.77487)
(-20.1226 0.541648 -6.11174)
(40.0034 0.000862033 0.0566674)
(39.9919 0.000987851 0.15748)
(39.9842 0.00311342 0.27765)
(39.9652 0.00385782 0.398937)
(39.9211 0.00319437 0.522687)
(39.8529 0.00194943 0.65018)
(39.7656 0.000694456 0.782267)
(39.6619 -0.000170117 0.919671)
(39.5416 -0.000383017 1.06304)
(39.4034 0.00014702 1.21284)
(39.2452 0.00133922 1.36948)
(39.0647 0.00299006 1.5335)
(38.8599 0.00479604 1.70576)
(38.6292 0.00647984 1.88795)
(38.372 0.00786347 2.0825)
(38.09 0.0088812 2.29345)
(37.7889 0.00968263 2.52431)
(37.4773 0.0117942 2.77762)
(37.1621 0.0144218 3.04027)
(36.8059 0.0163654 3.28412)
(36.3429 0.0176163 3.52466)
(35.8086 0.0124703 3.78288)
(35.1372 0.00516885 4.0307)
(34.2003 -0.0298339 4.62849)
(33.4028 -0.0448885 5.11773)
(32.4244 -0.0503759 5.82637)
(31.2654 -0.00752655 6.60527)
(30.2082 0.0342621 7.46193)
(29.0877 0.0439907 7.94733)
(27.7033 0.0497378 7.38984)
(26.0841 0.0886784 5.7339)
(24.3752 0.16731 3.86146)
(22.629 0.445076 2.36891)
(21.2767 1.88865 1.47989)
(23.9436 5.39837 1.87513)
(-3.37851 -0.0322083 1.0932)
(6.30645 -1.08338 1.26841)
(-2.88258 0.0481263 -2.9982)
(-1.05361 2.90516 -1.22924)
(7.00938 3.10142 4.52442)
(7.75839 1.26957 6.55911)
(6.70177 1.34447 3.53848)
(7.08299 0.994959 1.60018)
(9.41884 0.793513 0.603215)
(12.1106 1.02977 -0.112716)
(14.2167 1.08319 -1.18546)
(16.155 1.21042 -2.39811)
(17.8134 1.44818 -3.66625)
(18.6367 1.73741 -4.57253)
(19.0182 1.77868 -5.14061)
(18.5339 1.88167 -5.25964)
(20.6143 3.79913 -4.54303)
(29.4074 6.59005 -4.78324)
(25.957 4.97377 -7.07134)
(40.0019 0.000823952 0.063896)
(39.9905 0.000870783 0.175197)
(39.9858 0.00298149 0.3109)
(39.9724 0.00373475 0.447932)
(39.934 0.0031361 0.587715)
(39.8711 0.00198125 0.731733)
(39.7892 0.000818279 0.881029)
(39.691 2.95538e-05 1.03654)
(39.5768 -0.000137266 1.19915)
(39.4454 0.000390204 1.36954)
(39.2951 0.00153656 1.54832)
(39.1239 0.00309469 1.7362)
(38.9304 0.00481421 1.93403)
(38.7132 0.00646668 2.14312)
(38.4723 0.00790656 2.36517)
(38.2085 0.00917291 2.60188)
(37.9252 0.0105592 2.85469)
(37.6291 0.0124618 3.12367)
(37.3231 0.0142511 3.40473)
(36.9971 0.014301 3.6949)
(36.6184 0.0137708 4.01568)
(36.1705 0.0118655 4.41271)
(35.5946 0.0183657 4.85651)
(34.8688 -0.00354989 5.31804)
(33.8969 -0.0485657 6.10632)
(33.1535 -0.0714773 6.98598)
(32.3144 -0.0389138 7.78066)
(31.3127 0.0293474 8.57417)
(30.0873 0.0873382 9.23679)
(28.4254 0.091255 8.93105)
(26.5657 0.0895547 7.34071)
(24.6094 0.122928 5.63227)
(22.4395 0.2567 4.99287)
(20.9015 0.951287 6.85501)
(17.299 1.69355 12.9456)
(-3.49802 -0.0419468 1.06811)
(2.86581 -2.9813 -1.3882)
(18.1136 1.45532 7.1205)
(-3.72292 -3.12534 -10.7497)
(2.87791 -4.01699 -8.01476)
(6.42965 -3.11281 -7.25734)
(10.2344 -2.69019 -7.48073)
(14.0562 -2.70381 -7.64176)
(18.1511 -2.36042 -7.93617)
(21.7672 -1.89563 -8.24188)
(23.3323 -1.93501 -8.04679)
(23.4627 -2.05075 -7.77944)
(23.0434 -1.78865 -7.72476)
(22.6041 -1.30697 -7.60044)
(22.4204 -0.786032 -7.52735)
(22.0387 -0.545514 -7.26315)
(18.7002 -0.38024 -5.07027)
(27.3738 0.310096 0.0265332)
(25.321 1.47945 -5.56217)
(40.0033 0.000823912 0.0638447)
(39.9922 0.000870996 0.175068)
(39.9864 0.00298166 0.310701)
(39.9699 0.00373492 0.447743)
(39.9294 0.00313626 0.587643)
(39.866 0.00198127 0.731832)
(39.7844 0.000818478 0.881308)
(39.6871 2.8998e-05 1.03698)
(39.5742 -0.000139516 1.19968)
(39.444 0.000387208 1.37009)
(39.2947 0.00153593 1.54881)
(39.124 0.00309822 1.73653)
(38.9305 0.00482019 1.93421)
(38.713 0.00647404 2.14321)
(38.4715 0.00791519 2.3653)
(38.2076 0.00918444 2.60239)
(37.925 0.0105737 2.85578)
(37.6289 0.0124937 3.12407)
(37.3204 0.0142334 3.40492)
(36.9942 0.0144021 3.69581)
(36.6124 0.0138793 4.02462)
(36.1822 0.0119616 4.41627)
(35.6586 0.0196354 4.92652)
(34.9517 0.0017712 5.40401)
(33.9851 -0.0509572 5.9834)
(33.0013 -0.0750717 6.83086)
(32.0538 -0.0473461 7.63836)
(30.9793 0.0313275 8.55057)
(30.0943 0.076595 9.18647)
(28.9129 0.0710201 8.98806)
(27.1382 0.0840045 7.57497)
(25.1884 0.121681 5.71953)
(23.4307 0.274072 4.64666)
(21.6149 1.43271 5.45683)
(24.4299 4.35968 10.1113)
(20.9712 2.63432 9.78565)
(18.176 1.94654 8.04413)
(16.2248 1.89911 4.99734)
(11.5466 2.1723 1.76742)
(6.09435 1.11335 1.42213)
(7.40732 0.968269 0.43581)
(11.5542 0.815687 -3.43308)
(14.2713 0.0973886 -5.81609)
(16.4138 0.121135 -6.16593)
(18.5248 1.05727 -5.50849)
(19.3193 1.44401 -5.26365)
(19.721 1.33923 -5.18783)
(20.4994 1.35655 -5.3333)
(20.8718 1.56158 -5.64154)
(20.9972 1.8273 -5.43226)
(21.13 1.93725 -5.26823)
(19.2975 1.86715 -4.90368)
(26.1427 2.37206 -3.26362)
(24.9137 3.22049 -3.92846)
(40.0019 0.000812077 0.070613)
(39.9912 0.000867193 0.190694)
(39.9882 0.00292594 0.340784)
(39.9775 0.00367424 0.492527)
(39.9431 0.00311345 0.647452)
(39.8856 0.00201856 0.807219)
(39.8103 0.000921773 0.973035)
(39.7197 0.000193071 1.14602)
(39.6141 6.56113e-05 1.32722)
(39.4923 0.000603949 1.51752)
(39.3524 0.00172365 1.71769)
(39.1928 0.00322717 1.92847)
(39.0119 0.00488359 2.15062)
(38.8086 0.00648751 2.38496)
(38.5826 0.00792453 2.63216)
(38.3347 0.0093276 2.8927)
(38.0674 0.0107011 3.16661)
(37.7851 0.0122968 3.45249)
(37.4922 0.0139688 3.74968)
(37.1905 0.014983 4.06164)
(36.8732 0.0158176 4.40887)
(36.5377 0.0160287 4.84256)
(36.1824 0.0210377 5.4194)
(35.7253 0.0833036 6.1427)
(34.6984 0.0144943 6.95818)
(33.8407 -0.0266732 7.87225)
(33.3512 -0.0381287 8.62031)
(33.159 -0.106688 9.44495)
(32.5132 0.0149693 10.379)
(31.4744 0.178368 10.7214)
(29.4115 0.181314 9.43426)
(26.3414 0.174938 7.51184)
(23.6318 0.187243 6.64637)
(21.5441 0.467411 7.79265)
(23.7265 1.2222 14.1965)
(20.0883 0.387975 11.3335)
(17.5864 -1.05127 7.10153)
(16.4897 -1.91913 3.8242)
(16.2524 -2.91529 1.26616)
(15.3936 -2.80053 -2.06515)
(16.4932 -2.47842 -3.98032)
(18.2005 -2.83465 -5.11308)
(20.4926 -3.16908 -6.49663)
(23.3176 -2.44475 -7.91214)
(24.6006 -1.75973 -8.5414)
(24.3952 -1.69072 -8.36811)
(23.0665 -1.6294 -7.73752)
(21.6992 -1.42511 -7.45265)
(21.015 -1.15768 -7.45195)
(21.3254 -0.765097 -7.61527)
(21.508 -0.519939 -7.3541)
(19.2512 -0.364316 -7.44324)
(24.1804 -0.0105265 -6.32753)
(20.154 2.56501 -10.5821)
(40.0033 0.000812038 0.0705593)
(39.9929 0.000867399 0.190515)
(39.9887 0.00292612 0.340556)
(39.975 0.00367443 0.492321)
(39.9387 0.00311367 0.647371)
(39.8806 0.00201871 0.807317)
(39.8056 0.00092223 0.97332)
(39.7159 0.000192912 1.14646)
(39.6115 6.38224e-05 1.32776)
(39.4909 0.000601551 1.51808)
(39.352 0.00172259 1.71818)
(39.1928 0.00322746 1.92884)
(39.0119 0.00488788 2.15085)
(38.8083 0.0064931 2.3851)
(38.5821 0.00792709 2.63233)
(38.334 0.00932973 2.89304)
(38.0668 0.0107077 3.16696)
(37.7847 0.0123137 3.45271)
(37.4909 0.0140035 3.74953)
(37.1881 0.0149619 4.06225)
(36.869 0.0160022 4.41161)
(36.541 0.0151195 4.8413)
(36.2274 0.0254343 5.42025)
(35.9014 0.0616691 6.12672)
(35.6844 0.12359 6.7472)
(34.1762 -0.0381263 7.69032)
(34.0968 -0.197124 8.44295)
(32.7213 -0.103541 9.44269)
(31.6721 0.0537375 10.1854)
(30.9602 0.138363 10.4705)
(29.857 0.190995 9.80129)
(27.7743 0.183231 8.04261)
(25.0918 0.226746 6.60078)
(22.9798 0.334802 7.2844)
(23.4472 1.61199 10.5451)
(25.8416 1.86364 11.2478)
(25.9716 1.57509 9.55159)
(25.0548 1.1794 6.94545)
(22.4367 0.553535 4.2826)
(20.496 0.473107 2.44005)
(21.1502 0.180155 -0.185125)
(21.696 -0.776129 -3.89351)
(20.9785 -1.67285 -6.73889)
(19.8853 -1.30867 -7.84188)
(19.9634 0.582675 -7.08038)
(19.8437 1.5567 -5.83438)
(19.7327 1.13027 -5.44844)
(19.7552 0.690539 -5.32223)
(19.1436 0.758728 -5.2143)
(18.9391 0.952507 -5.67329)
(19.2214 0.897199 -5.49895)
(18.5446 0.988125 -5.17276)
(23.6575 1.31985 -3.99375)
(21.3704 3.70654 -6.14121)
(40.002 0.00077187 0.0767355)
(39.9914 0.000699134 0.203829)
(39.9906 0.00276597 0.367111)
(39.983 0.00353498 0.532379)
(39.9532 0.0030477 0.701264)
(39.9018 0.0020504 0.875606)
(39.8339 0.00104993 1.05678)
(39.7521 0.000397208 1.2461)
(39.6563 0.000308057 1.44481)
(39.5455 0.000846321 1.65397)
(39.4177 0.00192044 1.87451)
(39.2709 0.00335837 2.10719)
(39.1036 0.00494453 2.35263)
(38.9144 0.00650574 2.61106)
(38.7026 0.00799831 2.88229)
(38.4684 0.00942149 3.16564)
(38.2134 0.0108291 3.45926)
(37.9428 0.0125571 3.76108)
(37.6633 0.0138398 4.0684)
(37.3865 0.0156735 4.38528)
(37.1293 0.0152653 4.72457)
(36.9137 0.0167547 5.12277)
(36.7587 -0.00256718 5.7066)
(36.5955 0.0267668 6.5059)
(36.3844 0.116146 7.53423)
(35.0899 0.0547529 8.48114)
(35.2704 -0.0520652 9.0871)
(34.5436 -0.0614199 10.144)
(33.8624 -0.0303613 11.0894)
(33.2352 0.0394474 11.7845)
(32.2906 0.083834 11.8887)
(30.4208 0.133249 11.1871)
(27.233 0.194753 9.47491)
(24.3864 0.156683 8.69647)
(23.8674 0.460984 10.3473)
(24.953 0.402299 10.2472)
(24.5856 -0.144591 8.06668)
(23.4044 -0.770046 5.26311)
(22.7379 -1.18903 1.93737)
(21.7775 -1.22397 -0.974294)
(21.3019 -1.33024 -2.72535)