/*--------------------------------*- C++ -*----------------------------------*\
| =========                 |                                                 |
| \\      /  F ield         | OpenFOAM: The Open Source CFD Toolbox           |
|  \\    /   O peration     | Version:  4.1                                   |
|   \\  /    A nd           | Web:      www.OpenFOAM.org                      |
|    \\/     M anipulation  |                                                 |
\*---------------------------------------------------------------------------*/
FoamFile
{
    version     2.0;
    format      ascii;
    class       surfaceScalarField;
    location    "65";
    object      phi;
}
// * * * * * * * * * * * * * * * * * * * * * * * * * * * * * * * * * * * * * //

dimensions      [0 3 -1 0 0 0 0];

internalField   nonuniform List<scalar> 
11516
(
9.98735e+06
62.9937
9381.54
9.96689e+06
-97.2756
20285.1
9.93685e+06
-64.7103
29833.9
9.89769e+06
-61.6722
38951.7
9.84933e+06
-54.6197
48143.5
9.79149e+06
-42.9414
57618.5
9.7238e+06
-46.1467
67460.6
9.64595e+06
-60.0899
77617.8
9.55774e+06
-67.4865
87949.1
9.45895e+06
-71.571
98488.8
9.34978e+06
-69.8355
108826
9.23116e+06
-59.7198
118186
9.10494e+06
-187.23
125786
8.97591e+06
-343.806
128566
8.85447e+06
-1824.4
122357
8.7566e+06
-2711.49
99458.3
8.70002e+06
-1001.31
56184.7
8.69481e+06
-413.212
4461.03
8.6933e+06
-11.8003
587.898
8.64905e+06
1154.31
42588.6
8.57196e+06
-1169.43
78062.1
8.46542e+06
-4990.94
111477
8.33634e+06
-8189.96
137293
8.19158e+06
-10919.4
155725
8.03269e+06
-13062.8
171990
7.87953e+06
-14716
167901
7.74518e+06
-12374.2
146701
7.63635e+06
-7064.48
115744
7.5531e+06
-6201.03
89090.2
7.49432e+06
-9984.27
68171.5
7.44595e+06
-16381.1
63984.3
7.37829e+06
-22516.7
89273.5
7.29399e+06
-20667.7
103935
7.23377e+06
-6636.58
65611.8
7.23467e+06
9015.36
-11854.1
7.2506e+06
13305.3
-32573.4
7.2389e+06
10557.4
-2332.59
7.21023e+06
5204.07
19566.6
7.17816e+06
3691.94
24578
7.16017e+06
5420.84
8799.23
7.14945e+06
4886.31
1781.52
7.11685e+06
6142.87
21395.1
7.06319e+06
6186.67
43708.7
7.00912e+06
4378.26
47230.6
6.97215e+06
880.87
34442.7
6.96172e+06
680.469
8385.52
6.9567e+06
7422.84
-4282.67
6.98048e+06
11569.5
-36223
7.01449e+06
14320.6
-53450.2
7.08874e+06
13162.3
-90885.9
7.2259e+06
-2823.3
-137838
7.34163e+06
8342.45
-125038
7.43256e+06
18634.7
-109040
44144.4
-192858
9.98746e+06
9381.9
9.96688e+06
20292.9
9.93679e+06
29847.6
9.89759e+06
38957.8
9.84922e+06
48142.7
9.79138e+06
57625.6
9.72368e+06
67463.6
9.64581e+06
77613.1
9.55757e+06
87936.7
9.45879e+06
98446.8
9.34963e+06
108784
9.23107e+06
118130
9.10452e+06
125897
8.97428e+06
129333
8.84767e+06
124084
8.74416e+06
99908
8.69005e+06
52027.4
8.69183e+06
-3019.14
8.69555e+06
-4320.38
8.6536e+06
42819.2
8.57699e+06
75322.5
8.47188e+06
100105
8.34297e+06
120735
8.19446e+06
137633
8.02708e+06
154353
7.86289e+06
149498
7.71667e+06
133820
7.59295e+06
116501
7.49352e+06
92904.7
7.42525e+06
57777.5
7.38412e+06
24007.9
7.34361e+06
17094.1
7.28969e+06
32157.5
7.2365e+06
45287.5
7.22145e+06
22156.8
7.22133e+06
10444.2
7.20043e+06
28426
7.16953e+06
32783.3
7.1395e+06
30581.4
7.11794e+06
23794.2
7.09094e+06
28435.2
7.04649e+06
47605.3
6.98874e+06
61743.6
6.93305e+06
58816.3
6.88451e+06
48884.7
6.86479e+06
19804.3
6.86444e+06
7366.68
6.8783e+06
-4356.65
6.92314e+06
-32556.6
7.02421e+06
-90489.9
7.17507e+06
-155088
7.31209e+06
-128243
7.39973e+06
-68743.3
-169868
1.00059e+07
64.201
5438.9
1.00115e+07
-109.876
14595.6
1.00171e+07
-75.2622
24017.6
1.00223e+07
-66.8552
33500.8
1.0027e+07
-53.086
43215
1.00311e+07
-39.4637
53291.2
1.00345e+07
-40.2765
63814.6
1.00372e+07
-51.6657
74649.3
1.00385e+07
-64.6293
86449.5
1.00381e+07
-65.5078
98508.9
1.00353e+07
-70.2078
111167
1.0029e+07
-80.0575
124042
1.0017e+07
-43.717
137150
9.99543e+06
116.045
149308
9.95121e+06
1421.77
164155
9.8733e+06
1755.33
174523
9.73954e+06
2009.65
186292
9.5371e+06
1010.38
205167
9.31457e+06
-1075.2
223885
9.12224e+06
-1362.81
236137
8.95596e+06
233.393
244041
8.81298e+06
1809.2
252642
8.68246e+06
3062.15
264774
8.55508e+06
4164.81
278983
8.43237e+06
4771.96
289963
8.30895e+06
5430.48
285933
8.18148e+06
5986.33
268188
8.03958e+06
7433.91
250148
7.89366e+06
11091.3
223755
7.75702e+06
14025.9
190541
7.62961e+06
17647.3
173423
7.52089e+06
22147.4
175491
7.44432e+06
20294.5
159745
7.39871e+06
11271.7
99008.3
7.3838e+06
-781.911
1787.04
7.36092e+06
-15225.3
2089.06
7.31746e+06
-26848.2
63510.1
7.26731e+06
-32012.5
96965.3
7.20184e+06
-29436.4
116215
7.15311e+06
-27480.6
82501
7.11928e+06
-35752.3
69057.9
7.07633e+06
-46445.2
108473
7.04934e+06
-51018.8
119598
7.04185e+06
-52998.5
106598
7.04403e+06
-53337.9
85350.3
7.04556e+06
-51737.8
58568.7
7.04436e+06
-50563
47008.1
7.03189e+06
-44668.7
18648.8
7.03141e+06
-52880.2
-2364.21
7.05823e+06
-67748.6
-52315.1
7.085e+06
-34593.8
-130179
7.1537e+06
4710.82
-197298
7.39917e+06
32297.7
-386062
13132.7
-510907
1.00061e+07
5438.4
1.00115e+07
14598.5
1.0017e+07
24018.5
1.00222e+07
33497.8
1.00269e+07
43207.6
1.00311e+07
53283.3
1.00345e+07
63809.3
1.00372e+07
74648.8
1.00383e+07
86460.6
1.00379e+07
98517.6
1.00351e+07
111175
1.00287e+07
124076
1.0017e+07
137062
9.99649e+06
149398
9.95992e+06
161343
9.88782e+06
172735
9.75021e+06
190606
9.54268e+06
205096
9.31484e+06
222269
9.12286e+06
233351
8.95958e+06
238810
8.81692e+06
244576
8.68748e+06
253253
8.56207e+06
267249
8.44308e+06
278153
8.3232e+06
274843
8.19708e+06
265914
8.06384e+06
257088
7.93258e+06
235059
7.80908e+06
194965
7.6802e+06
170179
7.55054e+06
168470
7.45135e+06
151120
7.41036e+06
96485
7.40371e+06
25832.5
7.39697e+06
-1873.34
7.38217e+06
12442.6
7.35417e+06
25003.4
7.323e+06
28828.2
7.31989e+06
-4179.92
7.31598e+06
-5540.56
7.29509e+06
19794.1
7.2832e+06
21266.1
7.28353e+06
5094.56
7.28755e+06
-8402.9
7.28899e+06
-33294.3
7.28651e+06
-41342.6
7.28317e+06
-46847.9
7.2652e+06
-69221.1
7.23753e+06
-131428
7.24453e+06
-196346
7.36798e+06
-246453
7.56349e+06
-231540
-535607
9.99907e+06
63.5148
6930.41
9.99332e+06
-106.952
20159.9
9.98331e+06
-74.2946
33802.3
9.96912e+06
-66.4384
47476.1
9.95077e+06
-52.5827
61337.1
9.92831e+06
-38.8247
75508.6
9.90199e+06
-43.9081
89887.3
9.87124e+06
-64.0853
105136
9.83688e+06
-85.267
120512
9.79821e+06
-97.0248
136846
9.75564e+06
-99.3933
153347
9.70881e+06
-82.8901
170422
9.65712e+06
-56.5278
188289
9.59858e+06
89.5919
207053
9.535e+06
89.5219
226640
9.45673e+06
620.879
250832
9.36698e+06
433.526
274062
9.27778e+06
998.523
292997
9.18065e+06
456.366
320368
9.07208e+06
602.498
344018
8.95484e+06
1025.9
360217
8.83622e+06
1661.97
369623
8.71812e+06
2566.13
380352
8.59867e+06
4117.09
394387
8.47516e+06
4801.47
408732
8.34394e+06
6010.12
411198
8.19809e+06
8416.88
405635
8.03107e+06
11357.5
405751
7.85043e+06
13210.1
391071
7.661e+06
12237
367559
7.45608e+06
11545
366588
7.25643e+06
16978.3
357844
7.07949e+06
32722.8
303367
6.95402e+06
50255.7
172783
6.93499e+06
42640.6
-24090.3
6.92838e+06
3459.64
2402.62
6.86849e+06
-27191
146563
6.78215e+06
-31726.6
210700
6.68403e+06
-20535.6
232001
6.64855e+06
-8725.11
124659
6.63757e+06
-20736.1
99878.7
6.5989e+06
-40803.2
186618
6.55845e+06
-44727
203694
6.53501e+06
-45524.9
175221
6.52607e+06
-44269.9
139017
6.52849e+06
-40782.9
98018.2
6.55862e+06
-43205.3
60669.6
6.58865e+06
-37825.1
27344.4
6.61643e+06
-46999
18163.9
6.66546e+06
-35880.4
-65059.4
6.7251e+06
-12193.1
-177210
6.75468e+06
8520.52
-235087
6.6587e+06
-11218.3
-279136
-14357.5
-496462
9.99919e+06
6929.01
9.99332e+06
20158.7
9.98327e+06
33800.7
9.96904e+06
47473.5
9.95068e+06
61334
9.92823e+06
75506.3
9.90191e+06
89887.2
9.87113e+06
105139
9.83673e+06
120518
9.798e+06
136853
9.7554e+06
153351
9.70861e+06
170418
9.65694e+06
188267
9.59896e+06
206969
9.53308e+06
226628
9.45521e+06
250177
9.36952e+06
275758
9.2781e+06
297169
9.18054e+06
320169
9.07372e+06
340710
8.95826e+06
355284
8.84143e+06
363092
8.72478e+06
372515
8.60395e+06
392260
8.47908e+06
407885
8.34724e+06
412736
8.20294e+06
418632
8.04462e+06
426707
7.8738e+06
418965
7.6857e+06
395157
7.48091e+06
386280
7.28899e+06
377079
7.14276e+06
329421
7.07022e+06
217858
7.0813e+06
54756.2
7.07377e+06
4941.98
7.04173e+06
12698.7
6.99557e+06
34951
6.94042e+06
58909.6
6.90755e+06
16210.6
6.8718e+06
8100.96
6.80242e+06
47055.8
6.75675e+06
21509.7
6.73031e+06
-13772.4
6.70534e+06
-26696
6.69029e+06
-57272
6.68601e+06
-78508.1
6.69523e+06
-92065.1
6.69082e+06
-110191
6.7251e+06
-200126
6.78276e+06
-265919
6.83912e+06
-294257
6.81303e+06
-217303
-530773
9.99871e+06
61.8433
8854.3
9.99298e+06
-107.597
25701.3
9.98322e+06
-73.7793
43348.6
9.96932e+06
-65.3466
61165
9.95112e+06
-52.0449
79313
9.92867e+06
-39.0014
97732.4
9.90119e+06
-44.7344
117129
9.8691e+06
-64.6651
136981
9.83196e+06
-84.3598
157383
9.78969e+06
-93.4826
178795
9.74179e+06
-89.7626
200898
9.68765e+06
-69.9963
224179
9.62693e+06
-45.1576
248609
9.55914e+06
12.1688
274239
9.48269e+06
33.8153
302324
9.39791e+06
436.737
333835
9.30157e+06
22.8801
368994
9.19957e+06
-36.8894
394289
9.10837e+06
394.667
410952
9.02002e+06
916.882
431363
8.92566e+06
1284.96
453263
8.82299e+06
1329.3
470989
8.70705e+06
1156.35
495202
8.5785e+06
1455.76
521580
8.43759e+06
950.697
548780
8.27948e+06
622.473
568758
8.09736e+06
2265.73
585525
7.88485e+06
3997.95
614264
7.63584e+06
2756.54
637315
7.35686e+06
3277.49
643235
7.07896e+06
5703.59
638705
6.82927e+06
10198.1
597198
6.63046e+06
20222
481685
6.5474e+06
36189.2
219210
6.60862e+06
32001
-117905
6.63873e+06
-37212.9
8036.68
6.54772e+06
-96860.9
331123
6.41866e+06
-124833
459342
6.28589e+06
-116886
479007
6.27334e+06
-72574.3
207886
6.26724e+06
-31616.5
137257
6.22485e+06
-40949.8
269527
6.17289e+06
-36060.1
291403
6.14248e+06
-31662.1
238596
6.13227e+06
-34257.3
186618
6.13284e+06
-33697.3
136317
6.14576e+06
-33208.5
88492.6
6.18756e+06
-8830.24
2424.63
6.23621e+06
-7637.02
-18249.4
6.29633e+06
-30764.9
-88428.3
6.37997e+06
-34523.7
-224186
6.42885e+06
-18320.8
-266568
6.49994e+06
-21582
-329697
67311.5
-413296
9.99883e+06
8854.49
9.99298e+06
25704.3
9.98317e+06
43344.8
9.96924e+06
61159.1
9.95103e+06
79307.5
9.92859e+06
97726.1
9.90111e+06
117120
9.869e+06
136970
9.83181e+06
157369
9.7895e+06
178780
9.74157e+06
200884
9.68744e+06
224167
9.62672e+06
248607
9.5591e+06
274204
9.48283e+06
302289
9.39898e+06
333512
9.30441e+06
369355
9.20138e+06
399653
9.10937e+06
412432
9.02143e+06
429493
8.92722e+06
450762
8.82258e+06
469079
8.70389e+06
492403
8.57484e+06
522801
8.43417e+06
549557
8.27239e+06
575176
8.08506e+06
608237
7.87122e+06
644537
7.62773e+06
665220
7.36059e+06
665544
7.10134e+06
651185
6.86971e+06
618787
6.67751e+06
541535
6.58467e+06
346301
6.65063e+06
19424.6
6.67695e+06
-62260.6
6.64613e+06
-58268.8
6.5666e+06
-15276.1
6.48293e+06
20646.3
6.45188e+06
-28190.4
6.41295e+06
14989.7
6.34667e+06
72048.1
6.2932e+06
39187.8
6.24473e+06
4401.43
6.20665e+06
-20301.5
6.1857e+06
-66049
6.17582e+06
-97252.1
6.22574e+06
-145843
6.28633e+06
-172268
6.32762e+06
-268730
6.40755e+06
-380147
6.46435e+06
-369548
6.60261e+06
-378068
-537556
9.99874e+06
61.3254
10751.7
9.9931e+06
-103.503
31151.5
9.98354e+06
-72.0502
52688.9
9.96993e+06
-65.1539
74550.8
9.95216e+06
-52.8455
96858.2
9.93009e+06
-39.9426
119565
9.90357e+06
-44.6833
143392
9.87264e+06
-62.9897
167652
9.83668e+06
-80.9514
193054
9.79562e+06
-89.694
219523
9.7492e+06
-85.6901
246975
9.69707e+06
-70.6933
275959
9.63921e+06
-46.0666
306115
9.57468e+06
-35.9218
338381
9.50313e+06
31.6353
373243
9.42443e+06
-50.7342
411448
9.33611e+06
742.147
455164
9.22723e+06
906.034
500978
9.11497e+06
1253.69
521653
9.0092e+06
1070.95
535808
8.90696e+06
1833.11
553544
8.79756e+06
1554.33
578685
8.67102e+06
410.652
621302
8.52348e+06
-413.507
669532
8.35587e+06
-3005.53
719448
8.15743e+06
-4289.97
771505
7.92751e+06
-1850.8
817314
7.67089e+06
521.663
870393
7.38987e+06
-654.89
919049
7.09846e+06
-839.47
935560
6.8214e+06
2279.8
913537
6.56933e+06
9329.49
839989
6.36741e+06
19802
663805
6.27341e+06
41619
271539
6.36326e+06
90011.2
-297917
6.2376e+06
-64409.5
196594
6.17126e+06
-187198
578912
6.08106e+06
-205304
748091
5.90986e+06
-222477
867127
5.88021e+06
-121709
357288
5.86625e+06
-51957.7
202982
5.8138e+06
-71879.7
393336
5.7974e+06
-63032.3
370209
5.76919e+06
-59562.2
326537
5.74949e+06
-62904.2
271271
5.74978e+06
-61761.9
202639
5.76749e+06
-55015.7
132874
5.71911e+06
-18800.1
77412
5.72711e+06
-32151.9
13700.4
5.84867e+06
-69249.8
-130689
5.8787e+06
-22092.3
-229833
5.92191e+06
-9333.88
-299191
5.97587e+06
-21552.8
-363382
37707.5
-459275
9.99885e+06
10749.7
9.9931e+06
31149.2
9.98349e+06
52686.5
9.96985e+06
74548.8
9.95206e+06
96856.8
9.93e+06
119563
9.9035e+06
143388
9.87254e+06
167644
9.83653e+06
193045
9.79543e+06
219515
9.74898e+06
246973
9.69684e+06
275967
9.63902e+06
306140
9.5745e+06
338424
9.50309e+06
373302
9.42437e+06
411504
9.33842e+06
455154
9.23726e+06
501102
9.12421e+06
526335
9.01471e+06
539816
8.90829e+06
558832
8.79032e+06
588444
8.65734e+06
625669
8.51067e+06
669048
8.3402e+06
717035
8.13731e+06
773793
7.91469e+06
829033
7.67067e+06
889112
7.40409e+06
931205
7.12632e+06
942561
6.86095e+06
918919
6.62771e+06
861423
6.45913e+06
729961
6.4197e+06
427329
6.53668e+06
-8282
6.63179e+06
-224696
6.62944e+06
-247376
6.55711e+06
-153089
6.39983e+06
-49177.4
6.28922e+06
-42307.3
6.20647e+06
45233.2
6.13341e+06
72098.5
6.08241e+06
25762.8
6.03653e+06
-9676.7
6.00311e+06
-48868.2
5.97923e+06
-101331
5.98772e+06
-156037
6.02984e+06
-199420
6.06776e+06
-234816
6.04457e+06
-309838
6.032e+06
-387733
6.10211e+06
-448598
6.1721e+06
-469571
-615593
9.99878e+06
59.0919
12589.3
9.99326e+06
-104.958
36475.9
9.98397e+06
-72.9201
61766.8
9.97081e+06
-65.054
87496.2
9.95377e+06
-52.3126
113685
9.9324e+06
-39.2628
140710
9.90685e+06
-43.4391
168712
9.87682e+06
-60.6407
197435
9.8421e+06
-77.0498
227516
9.80262e+06
-84.0654
258709
9.75778e+06
-77.8131
291526
9.70773e+06
-58.8263
325760
9.65207e+06
-30.8311
361586
9.59067e+06
-4.75622
399685
9.5236e+06
17.7961
440023
9.45114e+06
68.2169
483448
9.37499e+06
569.622
529706
9.29023e+06
1840.07
582836
9.18526e+06
2638.64
623070
9.06384e+06
1179.65
655294
8.93243e+06
1217.58
682977
8.79292e+06
2.50239
717483
8.65365e+06
-1529.88
761798
8.50072e+06
-2807.26
825192
8.31417e+06
-6178.75
912177
8.08048e+06
-6105.21
1.01135e+06
7.80811e+06
-2158.7
1.09193e+06
7.52718e+06
2546
1.1489e+06
7.24307e+06
3111.41
1.20023e+06
6.95415e+06
2953.66
1.22177e+06
6.66331e+06
6420.98
1.19824e+06
6.36688e+06
17484.2
1.11924e+06
6.04439e+06
40576.7
945980
5.64441e+06
147694
523924
4.63476e+06
599558
112231
3.77726e+06
453215
598460
3.4964e+06
204767
647552
3.93512e+06
95412.9
202667
4.39389e+06
-30320.5
428640
4.70133e+06
-12013.8
54423
4.79957e+06
-18552.7
121086
4.91704e+06
-56926.2
327549
4.9586e+06
-13681.2
336220
4.98865e+06
-6521.55
298454
5.02261e+06
845.994
234088
5.06349e+06
3891.67
159175
5.10579e+06
15071.3
82154.4
5.15761e+06
18213.1
19001.6
5.21869e+06
30569.5
-64197.3
5.20156e+06
46843.5
-149183
5.13471e+06
63918.5
-218284
5.05172e+06
71674.6
-285945
4.94396e+06
82139.5
-337234
92529.5
-614481
9.99888e+06
12589.6
9.99326e+06
36480.5
9.98392e+06
61762.1
9.97073e+06
87489.2
9.95368e+06
113679
9.93232e+06
140703
9.90677e+06
168701
9.87672e+06
197421
9.84195e+06
227497
9.80243e+06
258690
9.75757e+06
291510
9.70752e+06
325754
9.6519e+06
361597
9.59051e+06
399705
9.52358e+06
440089
9.45138e+06
483368
9.37673e+06
529745
9.29944e+06
579419
9.20339e+06
624254
9.08132e+06
662352
8.94399e+06
696760
8.79881e+06
733019
8.64857e+06
774036
8.48404e+06
830710
8.28971e+06
905198
8.05805e+06
999386
7.80894e+06
1.07606e+06
7.54795e+06
1.15275e+06
7.27254e+06
1.20987e+06
6.9915e+06
1.22674e+06
6.72066e+06
1.19639e+06
6.47105e+06
1.12873e+06
6.24826e+06
993446
6.11246e+06
710988
6.54929e+06
153618
6.76991e+06
5328.55
6.78275e+06
-61145.1
6.73403e+06
-15769.2
6.60426e+06
42715.6
6.28275e+06
260949
5.95965e+06
345598
5.83165e+06
138454
5.79303e+06
46564.2
5.75662e+06
16881
5.72367e+06
-16817.9
5.69037e+06
-63278.2
5.66644e+06
-112677
5.64484e+06
-152435
5.62402e+06
-175362
5.57741e+06
-209685
5.50539e+06
-248800
5.42515e+06
-295505
5.31051e+06
-272602
-445420
9.99883e+06
58.3548
14363.1
9.99352e+06
-98.9213
41587.7
9.98463e+06
-69.8518
70444
9.97205e+06
-63.7631
99853
9.95576e+06
-52.6983
129751
9.9353e+06
-40.9608
160931
9.91081e+06
-45.4694
192962
9.88198e+06
-62.1128
226011
9.84878e+06
-77.6203
260433
9.81039e+06
-83.6607
296783
9.76739e+06
-76.8675
334217
9.71923e+06
-56.7164
373664
9.6657e+06
-27.062
414964
9.60705e+06
0.613646
458257
9.54332e+06
14.829
503662
9.47511e+06
69.9627
551384
9.40295e+06
133.909
601145
9.33063e+06
727.518
653679
9.24893e+06
186.455
703474
9.15155e+06
-886.415
752439
9.0308e+06
-799.559
803006
8.87794e+06
-264.916
869266
8.71155e+06
-1789.01
929264
8.54512e+06
-6420.68
997874
8.35264e+06
-10002.3
1.11465e+06
8.1098e+06
-10334.5
1.26462e+06
7.81817e+06
-859.876
1.38467e+06
7.50572e+06
7210.29
1.45443e+06
7.1946e+06
7034.57
1.50462e+06
6.88384e+06
5651.22
1.52719e+06
6.5734e+06
11293.5
1.49768e+06
6.23042e+06
25117.4
1.43738e+06
5.69784e+06
72426.8
1.40622e+06
4.19839e+06
397759
1.62562e+06
2.44121e+06
566075
1.30229e+06
2.40458e+06
16267
618729
2.35161e+06
153094
538438
2.1363e+06
478640
-83163.4
2.07793e+06
320378
139659
2.27241e+06
40517.2
-202241
2.75867e+06
-104060
-275521
3.01601e+06
-18874.9
72137.1
3.07371e+06
104835
160023
3.11383e+06
154051
94246.5
3.15484e+06
183104
3493.91
3.18677e+06
212222
-86408.8
3.18926e+06
243784
-159693
3.19681e+06
266789
-245796
3.23724e+06
265873
-359368
3.27249e+06
271865
-446027
3.34513e+06
251205
-538224
3.48669e+06
216099
-641668
3.71994e+06
194415
-764846
86127.8
-1.02362e+06
9.99893e+06
14360.1
9.99352e+06
41583.6
9.98458e+06
70439.5
9.97197e+06
99849.3
9.95567e+06
129749
9.93522e+06
160929
9.91073e+06
192957
9.88187e+06
226004
9.84863e+06
260423
9.81021e+06
296775
9.76719e+06
334215
9.71904e+06
373673
9.66554e+06
414989
9.60694e+06
458297
9.54329e+06
503732
9.47522e+06
551360
9.40362e+06
601151
9.3307e+06
652536
9.25074e+06
703760
9.1563e+06
755075
9.04184e+06
809490
8.90061e+06
873011
8.72454e+06
947705
8.53724e+06
1.01148e+06
8.32623e+06
1.10622e+06
8.07696e+06
1.23844e+06
7.80696e+06
1.34542e+06
7.52762e+06
1.43949e+06
7.23413e+06
1.51061e+06
6.93465e+06
1.53213e+06
6.64531e+06
1.49726e+06
6.36948e+06
1.42978e+06
6.07644e+06
1.35894e+06
5.79524e+06
1.38933e+06
4.66598e+06
1.8459e+06
3.19335e+06
1.49031e+06
2.4509e+06
824151
2.47039e+06
431943
2.45827e+06
363434
2.48329e+06
265065
2.57512e+06
139426
2.68495e+06
-2547.23
2.70069e+06
116161
2.70574e+06
147790
2.73603e+06
124071
2.7949e+06
84316.5
2.88313e+06
43094.5
2.98566e+06
15832
3.07277e+06
8677.67
3.14426e+06
-5781.59
3.19305e+06
-44295.3
3.18669e+06
-72570.6
3.20124e+06
-92806.2
-305649
9.99889e+06
55.1541
16024.1
9.99387e+06
-101.999
46408.1
9.98545e+06
-72.3803
78642.9
9.97356e+06
-65.0859
111534
9.95805e+06
-53.3003
145045
9.93878e+06
-40.9727
179988
9.91575e+06
-44.4006
215763
9.88827e+06
-59.4939
253259
9.85638e+06
-73.4048
292063
9.82015e+06
-77.9832
332734
9.77886e+06
-69.7892
375242
9.73265e+06
-48.0015
419683
9.68142e+06
-15.2828
466129
9.62505e+06
14.9344
514691
9.56383e+06
38.7837
565040
9.49786e+06
31.3579
617315
9.42797e+06
29.8035
670928
9.35524e+06
30.5316
725898
9.27729e+06
-432.802
781357
9.19166e+06
-1129.38
838373
9.09458e+06
-1441.88
900687
8.9845e+06
-527.301
978716
8.84091e+06
481.373
1.07147e+06
8.66555e+06
-4260.94
1.1772e+06
8.47567e+06
-11324.6
1.31593e+06
8.26421e+06
-13558.8
1.48989e+06
8.00757e+06
-2237.52
1.64409e+06
7.67266e+06
12000.5
1.7784e+06
7.2909e+06
16497.6
1.87086e+06
6.92128e+06
8031.97
1.88958e+06
6.60821e+06
8812.35
1.80231e+06
6.32431e+06
14951.9
1.70639e+06
6.0212e+06
24996.2
1.68413e+06
5.59953e+06
177702
1.86711e+06
3.73451e+06
498038
2.66306e+06
2.05207e+06
405276
1.88905e+06
647305
541832
1.37928e+06
-406961
437153
496857
-439609
14740.3
114559
-330651
-147112
-199480
-199954
-295550
-145991
426693
-360994
-232741
857661
50788.4
-361010
1.16342e+06
190180
-430549
1.53046e+06
158677
-541462
1.95794e+06
123518
-648580
2.42639e+06
108238
-740895
2.90724e+06
105776
-833081
3.36732e+06
95602.5
-913614
3.79569e+06
91284.1
-964663
4.19061e+06
66225.8
-998109
4.55446e+06
24895.7
-1.03053e+06
4.87474e+06
995.325
-1.08618e+06
-31703.6
-1.17395e+06
9.99899e+06
16024.5
9.99387e+06
46413.3
9.98541e+06
78637
9.97349e+06
111524
9.95797e+06
145037
9.9387e+06
179978
9.91567e+06
215750
9.88817e+06
253243
9.85625e+06
292045
9.81998e+06
332717
9.77868e+06
375231
9.73248e+06
419681
9.68129e+06
466138
9.62496e+06
514712
9.56377e+06
565059
9.49787e+06
617324
9.428e+06
670904
9.35456e+06
725748
9.27604e+06
781435
9.19067e+06
838826
9.09565e+06
902433
8.98953e+06
977909
8.85547e+06
1.08176e+06
8.67788e+06
1.18474e+06
8.46297e+06
1.31002e+06
8.22053e+06
1.46766e+06
7.93466e+06
1.62986e+06
7.63563e+06
1.75104e+06
7.33053e+06
1.83262e+06
7.00289e+06
1.86825e+06
6.67698e+06
1.83231e+06
6.39053e+06
1.73117e+06
6.10112e+06
1.67234e+06
5.87406e+06
1.79042e+06
5.90807e+06
2.30446e+06
5.2814e+06
2.51666e+06
4.47495e+06
2.16674e+06
3.74555e+06
1.59238e+06
2.9994e+06
1.11707e+06
2.31394e+06
794391
1.58688e+06
557550
881600
316033
765466
245025
965652
106691
1.15699e+06
73276.3
1.31243e+06
43973.7
1.47833e+06
-16580.5
1.66896e+06
-67971.7
1.85459e+06
-80001.2
2.02834e+06
-87482.3
2.16165e+06
-111980
2.27341e+06
-160592
2.40346e+06
-223120
-337764
9.99897e+06
54.2067
17581.4
9.99428e+06
-95.0214
50897.5
9.98643e+06
-68.8319
86260.9
9.97535e+06
-63.135
122390
9.9609e+06
-52.611
159275
9.94289e+06
-41.2788
197752
9.92115e+06
-45.0943
237259
9.89555e+06
-60.334
278603
9.86552e+06
-74.7309
321808
9.83107e+06
-80.3633
366871
9.79208e+06
-73.5484
413935
9.74795e+06
-52.9841
463597
9.69872e+06
-20.7391
515284
9.64461e+06
13.3858
568901
9.58527e+06
30.7669
624548
9.52116e+06
24.9175
681546
9.45243e+06
-7.91637
739651
9.38002e+06
-74.73
798091
9.30448e+06
-185.429
856740
9.22572e+06
-334.645
916907
9.14412e+06
-383.478
982089
9.06083e+06
248.083
1.0611e+06
8.96603e+06
1556.66
1.16425e+06
8.82976e+06
9397.78
1.30421e+06
8.65629e+06
4897.7
1.4849e+06
8.47988e+06
-5080.8
1.6718e+06
8.28705e+06
-8507.82
1.84708e+06
8.02795e+06
-2324.56
2.04217e+06
7.67986e+06
15583.1
2.20563e+06
7.24371e+06
26559.2
2.30103e+06
6.76792e+06
24038.1
2.25497e+06
6.33765e+06
12071.6
2.12464e+06
5.99118e+06
13837.6
2.01546e+06
5.84068e+06
27058.1
1.98608e+06
5.7296e+06
199705
2.56837e+06
4.75833e+06
202358
2.65142e+06
3.72772e+06
183120
2.22009e+06
2.62412e+06
95639.9
1.49654e+06
1.92047e+06
-14552.6
820659
1.57714e+06
-128989
257137
1.73953e+06
-204873
-117996
2.14123e+06
-266717
-376897
2.59018e+06
-230265
-584980
3.04778e+06
-130630
-759994
3.50139e+06
-85614.3
-909778
3.95265e+06
-78078.3
-1.02098e+06
4.38461e+06
-77534.8
-1.0944e+06
4.77429e+06
-77709.1
-1.14483e+06
5.11037e+06
-75322.5
-1.17501e+06
5.39704e+06
-76533.8
-1.17635e+06
5.6371e+06
-84770.1
-1.15589e+06
5.82661e+06
-96765.4
-1.12543e+06
5.9431e+06
-104031
-1.10092e+06
-138196
-1.02402e+06
9.99907e+06
17577.9
9.99428e+06
50891
9.98639e+06
86254.2
9.97528e+06
122384
9.96081e+06
159270
9.94281e+06
197746
9.92108e+06
237251
9.89545e+06
278593
9.86539e+06
321798
9.83091e+06
366864
9.79191e+06
413934
9.7478e+06
463605
9.6986e+06
515302
9.64451e+06
568928
9.58519e+06
624580
9.52108e+06
681583
9.45231e+06
739658
9.37977e+06
798101
9.30402e+06
856742
9.22519e+06
917035
9.14416e+06
982686
9.06125e+06
1.0607e+06
8.97908e+06
1.16536e+06
8.87418e+06
1.29939e+06
8.71172e+06
1.47824e+06
8.50516e+06
1.67025e+06
8.23893e+06
1.88916e+06
7.91692e+06
2.07195e+06
7.58595e+06
2.18024e+06
7.243e+06
2.23879e+06
6.85483e+06
2.2451e+06
6.43352e+06
2.16401e+06
6.03764e+06
2.08004e+06
5.77164e+06
2.08e+06
5.95176e+06
2.32028e+06
6.10814e+06
2.55917e+06
5.97799e+06
2.47681e+06
5.55552e+06
2.10697e+06
4.98934e+06
1.66438e+06
4.40597e+06
1.24363e+06
3.8612e+06
892170
3.30213e+06
603523
2.94509e+06
368180
2.7895e+06
130057
2.81565e+06
-38201.4
2.94083e+06
-158090
3.09648e+06
-248942
3.27056e+06
-320184
3.48567e+06
-372390
3.7265e+06
-407983
3.95754e+06
-431244
4.15249e+06
-455691
4.28178e+06
-458406
-466677
9.99906e+06
50.4837
18984.2
9.99475e+06
-100.304
54974.4
9.98757e+06
-73.441
93208.3
9.97743e+06
-66.4667
132308
9.96418e+06
-55.2294
172300
9.94764e+06
-43.4513
214061
9.92761e+06
-46.5631
257051
9.90383e+06
-60.9437
302128
9.87601e+06
-74.6969
349358
9.84383e+06
-79.8775
398759
9.80699e+06
-72.7248
450502
9.76531e+06
-50.976
505093
9.71845e+06
-17.2005
562122
9.6661e+06
20.9904
621429
9.6084e+06
43.5778
682543
9.54528e+06
51.0313
744985
9.47735e+06
8.20563
807671
9.40567e+06
-6.63233
869789
9.33217e+06
-57.5164
930001
9.2601e+06
-93.3188
988785
9.19405e+06
8.2189
1.04776e+06
9.13735e+06
-89.4478
1.11765e+06
9.08881e+06
889.471
1.21202e+06
9.02825e+06
9772.17
1.35589e+06
8.91337e+06
19885.1
1.58126e+06
8.74391e+06
12799.2
1.82987e+06
8.52298e+06
-812.309
2.07113e+06
8.27376e+06
-5477.52
2.29925e+06
7.99928e+06
1386.51
2.48088e+06
7.67389e+06
11341.5
2.6169e+06
7.23985e+06
12575.6
2.6776e+06
6.70404e+06
11450.6
2.64905e+06
6.18171e+06
22253.3
2.51441e+06
5.78843e+06
-470.915
2.37727e+06
5.86487e+06
37881.4
2.45075e+06
5.88352e+06
58679.7
2.57073e+06
5.65067e+06
45853.3
2.4032e+06
5.21159e+06
-12302.5
1.94248e+06
4.79148e+06
-93954.8
1.32702e+06
4.52152e+06
-186331
703705
4.45965e+06
-237296
171495
4.56401e+06
-245094
-242912
4.77246e+06
-232937
-563296
5.02227e+06
-208101
-801142
5.28057e+06
-196581
-969069
5.53311e+06
-194697
-1.07619e+06
5.76586e+06
-192613
-1.13314e+06
5.96482e+06
-189480
-1.15484e+06
6.12709e+06
-187571
-1.15242e+06
6.26262e+06
-188267
-1.1279e+06
6.37174e+06
-191495
-1.07808e+06
6.4509e+06
-203293
-1.00616e+06
6.47967e+06
-215121
-917186
-231142
-768264
9.99915e+06
18984.9
9.99476e+06
54980.1
9.98753e+06
93201.8
9.97736e+06
132297
9.9641e+06
172290
9.94756e+06
214049
9.92753e+06
257036
9.90374e+06
302111
9.87588e+06
349340
9.84367e+06
398742
9.80683e+06
450490
9.76517e+06
505088
9.71834e+06
562123
9.66601e+06
621434
9.60833e+06
682553
9.54518e+06
744985
9.47728e+06
807683
9.40554e+06
869772
9.33204e+06
930045
9.25991e+06
988841
9.19357e+06
1.04883e+06
9.13639e+06
1.11774e+06
9.09109e+06
1.21184e+06
9.04955e+06
1.35151e+06
8.97792e+06
1.57102e+06
8.82079e+06
1.84177e+06
8.58939e+06
2.12154e+06
8.3051e+06
2.35242e+06
7.9795e+06
2.50864e+06
7.62345e+06
2.60722e+06
7.22472e+06
2.6568e+06
6.76124e+06
2.6385e+06
6.28527e+06
2.57695e+06
5.86197e+06
2.50082e+06
5.74217e+06
2.47553e+06
5.89779e+06
2.45957e+06
6.08765e+06
2.32969e+06
6.13664e+06
2.04175e+06
6.04962e+06
1.65265e+06
5.87829e+06
1.22336e+06
5.71155e+06
816838
5.59369e+06
473092
5.54151e+06
186428
5.53509e+06
-70659.6
5.58447e+06
-282156
5.67153e+06
-437890
5.77773e+06
-546731
5.8895e+06
-621774
5.99965e+06
-671807
6.10391e+06
-703167
6.19167e+06
-713778
6.2599e+06
-729882
6.28114e+06
-696451
-774127
9.99916e+06
49.6156
20248.3
9.9953e+06
-92.8682
58610
9.98887e+06
-69.8947
99385.4
9.9798e+06
-64.6138
141142
9.96792e+06
-54.6305
183930
9.95306e+06
-43.8833
228665
9.93478e+06
-47.4701
275062
9.9132e+06
-62.0715
323428
9.888e+06
-76.2406
374245
9.85841e+06
-82.1807
428022
9.82405e+06
-75.6864
484554
9.78493e+06
-54.1031
543996
9.74037e+06
-19.3244
606638
9.69025e+06
21.0975
671711
9.63377e+06
51.6962
739324
9.57112e+06
56.475
807950
9.50248e+06
36.4829
876497
9.42948e+06
3.44807
942786
9.35513e+06
-22.9676
1.00415e+06
9.28553e+06
13.2688
1.05819e+06
9.22914e+06
360.111
1.10358e+06
9.19572e+06
1762.1
1.14934e+06
9.19578e+06
2077.65
1.21032e+06
9.22984e+06
3998.64
1.31887e+06
9.20635e+06
13942.6
1.59234e+06
9.05037e+06
15677.8
1.97238e+06
8.78961e+06
5190.54
2.32909e+06
8.49466e+06
-1652.02
2.59785e+06
8.19277e+06
-1543.42
2.78574e+06
7.88061e+06
1031.14
2.92876e+06
7.52613e+06
242.728
3.03191e+06
7.10013e+06
-1932.14
3.07641e+06
6.58702e+06
-5050.69
3.03124e+06
6.06369e+06
-10745.6
2.90927e+06
5.77617e+06
-6690.57
2.74227e+06
5.76328e+06
5459.07
2.5749e+06
5.82741e+06
5166.11
2.32991e+06
5.83466e+06
-19045.7
1.94924e+06
5.77949e+06
-67774.7
1.44386e+06
5.7255e+06
-128022
878975
5.72403e+06
-176195
343199
5.7847e+06
-205901
-100982
5.88485e+06
-224478
-439136
6.00091e+06
-234702
-679983
6.11302e+06
-235892
-841099
6.21437e+06
-234959
-937906
6.30152e+06
-231905
-984344
6.37384e+06
-230029
-994693
6.43194e+06
-231643
-978408
6.48391e+06
-238445
-942997
6.54209e+06
-248415
-891533
6.62643e+06
-263590
-830430
6.72804e+06
-258521
-763295
-268294
-654700
9.99925e+06
20244.6
9.9953e+06
58601.2
9.98884e+06
99376.8
9.97973e+06
141134
9.96784e+06
183922
9.95298e+06
228657
9.93471e+06
275050
9.91311e+06
323415
9.88788e+06
374233
9.85826e+06
428012
9.8239e+06
484550
9.7848e+06
543998
9.74027e+06
606647
9.69017e+06
671725
9.6337e+06
739342
9.57104e+06
807968
9.5024e+06
876529
9.42938e+06
942801
9.35508e+06
1.00424e+06
9.28564e+06
1.05821e+06
9.23044e+06
1.10444e+06
9.20252e+06
1.14761e+06
9.2091e+06
1.20767e+06
9.24176e+06
1.32335e+06
9.22524e+06
1.60274e+06
9.07879e+06
2.00535e+06
8.8397e+06
2.36734e+06
8.56054e+06
2.63123e+06
8.25236e+06
2.81613e+06
7.90964e+06
2.95132e+06
7.52757e+06
3.03894e+06
7.09345e+06
3.07002e+06
6.61998e+06
3.04424e+06
6.14877e+06
2.95969e+06
5.79651e+06
2.81914e+06
5.6476e+06
2.61156e+06
5.66349e+06
2.31607e+06
5.75065e+06
1.93222e+06
5.84609e+06
1.48579e+06
5.92778e+06
1.01024e+06
6.00371e+06
562412
6.08479e+06
185666
6.1647e+06
-116392
6.22756e+06
-365098
6.27281e+06
-559402
6.29798e+06
-694098
6.30841e+06
-785837
6.31934e+06
-860794
6.35211e+06
-936003
6.43079e+06
-1.02186e+06
6.58684e+06
-1.12076e+06
6.84217e+06
-1.25157e+06
7.23101e+06
-1.34544e+06
-1.62111e+06
9.99927e+06
45.6953
21315.7
9.9959e+06
-100.624
61711
9.99033e+06
-76.7793
104693
9.98246e+06
-70.3534
148757
9.97194e+06
-59.894
194196
9.95916e+06
-48.9215
241178
9.9433e+06
-51.9982
290648
9.92425e+06
-65.8945
342189
9.90144e+06
-79.3806
396746
9.87485e+06
-84.879
454281
9.84381e+06
-77.6707
515300
9.8076e+06
-55.4654
580006
9.76593e+06
-18.8689
648290
9.71772e+06
23.1335
720120
9.66258e+06
58.3951
794831
9.59965e+06
69.4038
871276
9.52862e+06
62.4033
947848
9.45047e+06
24.1067
1.02101e+06
9.36874e+06
17.7008
1.0859e+06
9.29187e+06
138.333
1.13486e+06