/*--------------------------------*- C++ -*----------------------------------*\
| =========                 |                                                 |
| \\      /  F ield         | OpenFOAM: The Open Source CFD Toolbox           |
|  \\    /   O peration     | Version:  4.1                                   |
|   \\  /    A nd           | Web:      www.OpenFOAM.org                      |
|    \\/     M anipulation  |                                                 |
\*---------------------------------------------------------------------------*/
FoamFile
{
    version     2.0;
    format      ascii;
    class       volVectorField;
    location    "65";
    object      U;
}
// * * * * * * * * * * * * * * * * * * * * * * * * * * * * * * * * * * * * * //

dimensions      [0 1 -1 0 0 0 0];

internalField   nonuniform List<vector> 
4432
(
(39.982 0.00010517 0.0503092)
(39.9149 -0.000125837 0.089631)
(39.8159 0.000170418 0.118203)
(39.6799 0.000226081 0.14592)
(39.5041 9.74755e-05 0.174876)
(39.2905 4.32816e-05 0.2053)
(39.0399 9.06449e-05 0.237508)
(38.7506 0.000135407 0.271025)
(38.4194 0.000111803 0.305865)
(38.0447 -5.57597e-06 0.341454)
(37.627 -0.000186555 0.375906)
(37.1692 -0.000309064 0.409656)
(36.6755 -0.000661231 0.436409)
(36.1637 -0.000775006 0.455868)
(35.6364 -0.00374363 0.449006)
(35.2119 -0.00799738 0.39434)
(34.8535 -0.00676492 0.433648)
(34.7135 -0.00400709 0.336233)
(34.7898 -0.00252736 0.246473)
(34.7327 0.00123904 0.39544)
(34.4703 -0.0020354 0.502608)
(34.0916 -0.0121648 0.6298)
(33.6083 -0.0230419 0.705583)
(33.062 -0.0324923 0.694717)
(32.4548 -0.0398386 0.67588)
(31.8133 -0.0456307 0.549071)
(31.226 -0.0416082 0.346249)
(30.721 -0.0269746 0.130827)
(30.3386 -0.0179086 0.0409114)
(30.0704 -0.0217823 0.046307)
(29.869 -0.0370179 0.162916)
(29.6604 -0.0540777 0.395611)
(29.3547 -0.0573703 0.47447)
(29.0375 -0.0303846 0.0909978)
(28.9072 0.0118768 -0.683111)
(28.9096 0.0395685 -1.08412)
(29.003 0.0429746 -1.00778)
(28.9485 0.0228083 -0.889308)
(28.7746 0.0283143 -0.739737)
(28.6586 0.0439007 -0.571808)
(28.6064 0.0301269 -0.491119)
(28.5571 0.00979507 -0.519047)
(28.3975 -0.0101542 -0.462246)
(28.1364 -0.0121167 -0.394221)
(27.9491 0.00887912 -0.365563)
(27.8164 0.0375068 -0.368636)
(27.8059 0.0182828 -0.339414)
(27.9368 -0.0429933 -0.382974)
(27.9671 -0.0231991 -0.412354)
(28.0386 0.0410227 -0.481929)
(28.4894 0.051596 -0.383383)
(29.2787 0.0704483 -0.578952)
(29.7026 0.0114832 -0.869574)
(30.0223 0.162733 -0.102927)
(39.9822 0.000105179 0.0503126)
(39.9152 -0.000125902 0.0896653)
(39.816 0.000170384 0.118326)
(39.6795 0.000226596 0.146)
(39.5036 9.83935e-05 0.174852)
(39.2901 4.40192e-05 0.205293)
(39.0395 9.13563e-05 0.237439)
(38.7502 0.000136207 0.270934)
(38.4187 0.000112578 0.305826)
(38.044 -5.02365e-06 0.341304)
(37.6263 -0.000185881 0.375962)
(37.1685 -0.000308668 0.409475)
(36.6754 -0.000661185 0.437226)
(36.1584 -0.000777263 0.455954)
(35.6348 -0.00372921 0.455519)
(35.1605 -0.00804825 0.403803)
(34.7951 -0.00682567 0.382502)
(34.6993 -0.00397234 0.291079)
(34.7793 -0.00253977 0.239086)
(34.7534 0.00113108 0.408343)
(34.493 -0.0021549 0.490948)
(34.1117 -0.0122414 0.548902)
(33.6374 -0.0231738 0.589061)
(33.0852 -0.0329365 0.580003)
(32.4555 -0.0406901 0.567371)
(31.7747 -0.0474637 0.430508)
(31.1269 -0.0452405 0.241433)
(30.5784 -0.0313858 0.106046)
(30.1416 -0.0227119 0.0151307)
(29.7971 -0.0287193 -0.0996453)
(29.5922 -0.0460025 -0.238945)
(29.4489 -0.06862 -0.274233)
(29.2891 -0.0742766 -0.128687)
(29.0448 -0.0479273 0.00391299)
(28.9062 -0.00109678 -0.265865)
(28.838 0.0313637 -0.557381)
(28.8541 0.0386196 -0.507328)
(28.7661 0.0162982 -0.498869)
(28.6373 0.0177884 -0.439556)
(28.5179 0.0439319 -0.350039)
(28.3933 0.041033 -0.270529)
(28.2858 0.0245125 -0.238498)
(28.0811 0.00281094 -0.16974)
(27.8535 -0.000832561 -0.132476)
(27.6577 0.0217783 -0.130334)
(27.47 0.0517795 -0.188835)
(27.3491 0.0362692 -0.0997489)
(27.4974 -0.0318719 -0.0126848)
(27.6452 -0.00653999 -0.0290521)
(27.7589 0.0720277 -0.159306)
(28.3003 0.0543912 -0.307697)
(29.0299 0.0636883 -0.538863)
(29.509 -0.00369094 -0.759977)
(30.1135 0.152804 0.00520797)
(40.008 0.000109419 0.017863)
(40.0308 -0.000149506 0.054437)
(40.0574 0.000153726 0.0936721)
(40.0812 0.000211508 0.133272)
(40.1 8.3806e-05 0.173402)
(40.1161 3.7195e-05 0.214658)
(40.1314 0.000117586 0.257429)
(40.1449 0.000224722 0.301932)
(40.1537 0.000258222 0.348278)
(40.1557 0.000191179 0.396292)
(40.1489 1.39117e-05 0.445354)
(40.1302 -0.000262476 0.493591)
(40.0955 -0.000434 0.538594)
(40.0292 -0.000581735 0.569923)
(39.9256 0.00234981 0.594573)
(39.6599 0.00375569 0.564665)
(39.3381 0.00575828 0.445759)
(38.6288 0.00612089 0.365049)
(37.6411 -0.00132403 0.414863)
(36.8244 -0.00297575 0.478118)
(36.1288 4.38019e-05 0.548734)
(35.5114 0.00331567 0.631996)
(34.9749 0.00630159 0.71554)
(34.4583 0.00899215 0.807606)
(33.9613 0.0103909 0.876046)
(33.4731 0.0116634 0.878859)
(32.9788 0.0134481 0.827577)
(32.4536 0.0197246 0.760969)
(31.8586 0.0321262 0.669514)
(31.2826 0.0388601 0.537603)
(30.7581 0.0426959 0.416293)
(30.2698 0.0458278 0.392062)
(29.89 0.0452111 0.366699)
(29.6569 0.0367655 0.27297)
(29.5439 0.0163009 0.235517)
(29.4687 -0.0188513 0.384416)
(29.3826 -0.0644291 0.59561)
(29.2092 -0.09839 0.704355)
(28.9831 -0.101957 0.69902)
(28.7059 -0.0996687 0.535484)
(28.449 -0.118212 0.397851)
(28.3764 -0.156246 0.460517)
(28.2799 -0.181402 0.529766)
(28.1963 -0.197221 0.524123)
(28.1629 -0.205205 0.481541)
(28.1748 -0.19996 0.37591)
(28.1795 -0.19762 0.352948)
(28.208 -0.185445 0.182912)
(28.01 -0.169269 0.0550483)
(28.2336 -0.224706 0.0351181)
(28.2525 -0.173037 -0.391146)
(28.1565 -0.070321 -0.538337)
(29.326 0.0173936 -0.74588)
(30.3257 0.0886527 -1.64656)
(40.0082 0.000109419 0.0178616)
(40.0311 -0.000149502 0.0544531)
(40.0575 0.00015373 0.0936767)
(40.0808 0.000211516 0.133252)
(40.0995 8.38073e-05 0.173375)
(40.1157 3.72347e-05 0.21465)
(40.1313 0.00011748 0.257469)
(40.1447 0.000225124 0.30202)
(40.1534 0.000257613 0.348419)
(40.1549 0.000190279 0.396408)
(40.1481 1.24042e-05 0.445367)
(40.1291 -0.000261688 0.493678)
(40.0942 -0.000453478 0.538091)
(40.0318 -0.00050932 0.572605)
(39.9268 0.00200757 0.585775)
(39.7256 0.00400046 0.556333)
(39.3909 0.00624455 0.463913)
(38.6625 0.00615308 0.355458)
(37.6555 -0.0013966 0.398852)
(36.8148 -0.00283465 0.469099)
(36.1399 0.000140153 0.528402)
(35.5278 0.0034599 0.600995)
(34.9908 0.00658687 0.670027)
(34.4817 0.0096499 0.746108)
(33.9936 0.0114485 0.807214)
(33.5258 0.0137209 0.808904)
(33.0426 0.0173315 0.792329)
(32.5189 0.023228 0.766014)
(31.9838 0.0330016 0.678352)
(31.4816 0.0444228 0.524549)
(30.9762 0.0577808 0.386469)
(30.429 0.0728445 0.336438)
(29.9596 0.0682994 0.28279)
(29.6892 0.0522927 0.210983)
(29.6012 0.0213138 0.161857)
(29.5621 -0.0215195 0.250162)
(29.5785 -0.0706693 0.386644)
(29.5197 -0.106161 0.481336)
(29.3822 -0.109738 0.502283)
(29.2948 -0.109051 0.431649)
(29.1758 -0.130053 0.360611)
(29.2083 -0.159604 0.40806)
(29.1974 -0.187671 0.440698)
(29.1512 -0.19923 0.418847)
(29.1364 -0.205515 0.362712)
(29.1514 -0.19738 0.248584)
(29.1579 -0.19269 0.243692)
(29.1097 -0.181954 0.198212)
(29.1348 -0.193525 0.0626227)
(29.0548 -0.21815 -0.196591)
(28.7776 -0.11812 -0.695812)
(28.9606 -0.0433955 -0.776753)
(30.1531 0.0153942 -0.770444)
(31.083 0.0854739 -1.60259)
(39.9997 0.000108744 0.0250105)
(39.9863 -0.000144594 0.070249)
(39.9578 0.000150129 0.114526)
(39.9109 0.000202928 0.157144)
(39.8445 7.57487e-05 0.199619)
(39.7613 3.67822e-05 0.24295)
(39.6635 0.000124565 0.287691)
(39.5507 0.000231325 0.33421)
(39.4213 0.000255737 0.38279)
(39.2747 0.0001572 0.433516)
(39.111 -6.59388e-05 0.486271)
(38.9307 -0.000341914 0.540777)
(38.7321 -0.000640011 0.596685)
(38.5152 -0.000578679 0.653884)
(38.2616 -0.000729036 0.714925)
(38.0158 0.0005784 0.790067)
(37.6465 0.000837544 0.838453)
(37.2852 0.00335052 0.952877)
(36.916 0.00174194 1.12297)
(36.5084 0.00180477 1.23143)
(36.0501 0.00298537 1.27477)
(35.5685 0.00489801 1.28814)
(35.0962 0.00748054 1.31184)
(34.6197 0.0115575 1.34899)
(34.137 0.0138223 1.38313)
(33.64 0.0172115 1.36656)
(33.0924 0.023868 1.30183)
(32.471 0.033437 1.2417)
(31.7658 0.0408458 1.10991)
(31.0356 0.0376914 0.964878)
(30.2304 0.036607 0.938309)
(29.3916 0.0514844 0.962666)
(28.6747 0.0922174 0.873991)
(28.0145 0.159247 0.590868)
(27.5833 0.20592 -0.0367302)
(27.7473 0.0695449 -0.0665628)
(27.656 -0.0838489 0.269218)
(27.4015 -0.147652 0.445936)
(26.9422 -0.147789 0.544929)
(26.5964 -0.069792 0.299271)
(26.4744 -0.080784 0.260585)
(26.4798 -0.156828 0.542332)
(26.3907 -0.196669 0.586705)
(26.1927 -0.211497 0.52417)
(26.1045 -0.213784 0.383372)
(26.0865 -0.196918 0.232832)
(26.1877 -0.19411 0.0942066)
(26.2542 -0.153925 -0.0889982)
(26.3333 -0.181517 -0.164331)
(26.585 -0.14316 -0.615227)
(26.7857 -0.0590325 -0.81319)
(26.9815 -0.0124354 -0.836493)
(26.8372 0.0450006 -1.51432)
(26.6564 0.0575556 -2.62086)
(39.9999 0.000108743 0.0250075)
(39.9866 -0.000144589 0.0702517)
(39.9579 0.000150129 0.114515)
(39.9105 0.000202924 0.157128)
(39.844 7.57436e-05 0.199604)
(39.7609 3.67729e-05 0.242938)
(39.6633 0.00012458 0.28768)
(39.5504 0.000231295 0.334194)
(39.4208 0.00025579 0.382769)
(39.274 0.000157065 0.433475)
(39.11 -6.64203e-05 0.486216)
(38.9296 -0.000342617 0.540728)
(38.7316 -0.000641656 0.596566)
(38.5136 -0.000579519 0.653561)
(38.2672 -0.000729863 0.712448)
(37.9924 0.000547808 0.78292)
(37.6614 0.000543036 0.856612)
(37.2912 0.00363042 0.9588)
(36.9111 0.00180783 1.1171)
(36.5114 0.00185632 1.21816)
(36.0604 0.00309911 1.25608)
(35.5859 0.00510268 1.26188)
(35.1209 0.00790354 1.27532)
(34.6452 0.012641 1.32434)
(34.1547 0.0154325 1.36566)
(33.6546 0.0193917 1.35624)
(33.1038 0.0270163 1.32473)
(32.4971 0.0375511 1.2909)
(31.8494 0.0462447 1.19797)
(31.152 0.0482639 1.04217)
(30.3152 0.0463386 1.00139)
(29.4925 0.0584209 1.02201)
(28.8111 0.105337 0.889807)
(28.379 0.159649 0.545621)
(28.221 0.159057 0.16806)
(28.2649 0.079033 -0.00859771)
(28.2911 -0.0209751 -0.0236288)
(28.1421 -0.0885288 -0.0314062)
(27.8893 -0.0931523 -0.0969174)
(27.7622 -0.0557105 -0.300315)
(27.3794 -0.0558763 -0.226533)
(27.3465 -0.104379 -0.0881885)
(27.1997 -0.129679 -0.111767)
(26.9971 -0.147827 -0.204215)
(26.841 -0.160906 -0.278323)
(26.7853 -0.149285 -0.392857)
(26.7718 -0.143114 -0.516882)
(26.6998 -0.10592 -0.591464)
(26.7506 -0.12618 -0.738862)
(26.7962 -0.100737 -1.09577)
(27.009 -0.0465083 -1.01581)
(27.185 0.00585697 -0.981227)
(27.7411 -0.108585 -0.459257)
(26.8915 0.0874925 -2.59532)
(39.9994 0.000106643 0.0316709)
(39.9851 -0.000147091 0.0912926)
(39.9566 0.000142821 0.153754)
(39.9109 0.000194266 0.217343)
(39.8458 6.45138e-05 0.282696)
(39.7627 1.94084e-05 0.350134)
(39.6633 9.92234e-05 0.419812)
(39.5461 0.00020081 0.491848)
(39.4088 0.000226123 0.56637)
(39.2495 0.000134613 0.64345)
(39.0675 -6.91127e-05 0.723136)
(38.8622 -0.000326322 0.805628)
(38.6322 -0.000603354 0.891325)
(38.3759 -0.000725033 0.981989)
(38.0873 -0.000896948 1.08024)
(37.7731 4.1512e-05 1.19229)
(37.413 -0.000179073 1.33648)
(36.9826 6.8198e-05 1.39832)
(36.5975 0.0013059 1.45893)
(36.2514 0.00276699 1.54355)
(35.8867 0.00392336 1.62859)
(35.4926 0.00424155 1.68434)
(35.0568 0.0041557 1.74018)
(34.5607 0.00506398 1.81063)
(34.0273 0.0038076 1.89199)
(33.4492 0.00285105 1.93233)
(32.7648 0.0070237 1.95201)
(31.9801 0.0133777 2.00245)
(31.0855 0.01212 2.01731)
(29.9968 0.0132089 1.98341)
(28.8231 0.0209707 2.00754)
(27.7887 0.0372064 1.93088)
(26.8854 0.0720248 1.62084)
(26.162 0.126585 0.818245)
(26.1964 0.127563 -0.294811)
(26.5379 -0.0541373 0.061322)
(26.5094 -0.238206 0.77344)
(26.0379 -0.365755 1.14523)
(25.3393 -0.321618 1.21232)
(25.0606 -0.133936 0.611443)
(24.9878 -0.0848076 0.465994)
(25.0326 -0.143783 0.889735)
(24.8783 -0.182146 1.01083)
(24.6374 -0.173145 0.901508)
(24.4895 -0.160816 0.743761)
(24.5627 -0.149273 0.536907)
(24.5315 -0.166694 0.342815)
(24.6646 -0.0893566 0.185329)
(24.7475 -0.0979723 0.122322)
(24.9256 -0.122312 -0.27031)
(25.4369 -0.11113 -0.864312)
(25.7089 -0.0738192 -1.03067)
(25.9192 -0.0398988 -1.11273)
(25.6536 0.27708 -1.37277)
(39.9996 0.000106642 0.0316681)
(39.9853 -0.000147086 0.0912965)
(39.9567 0.00014282 0.153747)
(39.9105 0.000194262 0.21733)
(39.8452 6.4508e-05 0.282677)
(39.7624 1.94016e-05 0.350106)
(39.6631 9.9219e-05 0.419773)
(39.5458 0.000200805 0.491804)
(39.4083 0.000226121 0.566328)
(39.2488 0.000134615 0.643418)
(39.0666 -6.9143e-05 0.723134)
(38.8613 -0.000326194 0.805645)
(38.6314 -0.000603776 0.891379)
(38.3749 -0.000723584 0.981771)
(38.0885 -0.000895399 1.08002)
(37.7706 6.39191e-05 1.19165)
(37.427 -0.000249206 1.33399)
(36.9926 -2.06978e-05 1.43063)
(36.5999 0.00121389 1.46512)
(36.2564 0.00280645 1.53247)
(35.8932 0.00410914 1.6097)
(35.4992 0.00455503 1.66002)
(35.0481 0.00430415 1.71689)
(34.5415 0.00481397 1.82166)
(34.0188 0.00367247 1.90528)
(33.4321 0.00267898 1.96089)
(32.7218 0.00810146 2.04372)
(31.9226 0.0155255 2.13681)
(31.0425 0.0143518 2.17171)
(29.9741 0.0152853 2.13267)
(28.8731 0.0215089 2.09332)
(27.9179 0.0357118 2.0328)
(27.0783 0.0682541 1.86263)
(26.3547 0.137745 1.32428)
(26.3179 0.157483 0.259924)
(26.6637 -0.0357603 -0.00482904)
(26.7527 -0.255404 0.154264)
(26.5484 -0.481898 0.32177)
(26.1378 -0.58071 0.503947)
(25.8263 -0.487325 0.180863)
(25.581 -0.171748 0.0999317)
(25.5492 -0.144659 0.313546)
(25.3677 -0.136735 0.217925)
(25.1301 -0.136721 0.106204)
(24.8223 -0.123814 0.106676)
(24.8316 -0.113942 -0.0722112)
(24.6732 -0.123149 -0.205732)
(24.7224 -0.0696895 -0.374552)
(24.9448 -0.0535326 -0.485124)
(25.1912 -0.070204 -0.796003)
(25.514 -0.0803577 -1.2135)
(25.8064 -0.0455861 -1.2873)
(26.103 -0.186226 -1.37753)
(26.6169 0.254011 -1.71185)
(39.9995 0.000105925 0.0391689)
(39.9853 -0.000139497 0.113679)
(39.9574 0.000144749 0.192301)
(39.9126 0.000190326 0.271949)
(39.8489 5.67177e-05 0.352954)
(39.7679 8.73403e-06 0.435824)
(39.6711 8.64322e-05 0.521047)
(39.5574 0.000186958 0.609084)
(39.4243 0.00021323 0.700387)
(39.2702 0.000122428 0.7954)
(39.0944 -7.46269e-05 0.894577)
(38.8964 -0.00033765 0.998513)
(38.6756 -0.000592822 1.10808)
(38.4299 -0.000826617 1.22502)
(38.1594 -0.000786512 1.35188)
(37.8555 -0.00100515 1.49385)
(37.5435 0.000715444 1.65357)
(37.1338 0.00293844 1.80288)
(36.6614 0.00357505 1.85554)
(36.2273 0.00334208 1.9122)
(35.8206 0.00510538 1.99341)
(35.4037 0.00438587 2.07891)
(34.9357 0.00208608 2.22447)
(34.3789 -0.000791044 2.37111)
(33.7624 -0.00783101 2.51139)
(33.0541 -0.0123836 2.63845)
(32.1755 -0.00643383 2.75965)
(31.2077 0.00210891 2.94466)
(30.1432 0.00176725 3.11715)
(28.9538 0.00282011 3.17975)
(27.8029 0.0128656 3.11449)
(26.7615 0.0364529 2.86125)
(25.7997 0.0785697 2.21876)
(25.094 0.156481 0.809735)
(25.3107 0.231459 -0.863299)
(25.0113 -0.0652905 -0.459174)
(25.058 -0.516554 1.6889)
(24.5567 -0.788167 2.72155)
(24.0405 -0.856634 2.92854)
(23.5403 -0.343423 1.49989)
(23.2561 -0.147391 0.790555)
(23.4297 -0.260445 1.18012)
(23.3283 -0.331793 1.20006)
(23.1524 -0.322015 0.937176)
(23.0039 -0.290046 0.725957)
(22.9788 -0.255593 0.518519)
(22.9577 -0.238096 0.320599)
(23.385 -0.179311 0.011993)
(22.2524 -0.187148 0.00250116)
(23.2118 -0.281384 -0.376821)
(23.4695 -0.232313 -0.958479)
(23.5654 -0.0356597 -1.36815)
(24.3076 -0.185508 -1.67831)
(23.6156 0.0448445 -1.64628)
(39.9996 0.000105925 0.0391653)
(39.9856 -0.000139492 0.11368)
(39.9575 0.000144748 0.192287)
(39.9122 0.000190322 0.271932)
(39.8484 5.67116e-05 0.35294)
(39.7675 8.73142e-06 0.435811)
(39.6709 8.64355e-05 0.521026)
(39.5571 0.000186973 0.609052)
(39.4239 0.000213237 0.700345)
(39.2695 0.000122526 0.795353)
(39.0935 -7.48601e-05 0.894539)
(38.8955 -0.000336532 0.998491)
(38.6746 -0.000589395 1.10811)
(38.4294 -0.000822535 1.22503)
(38.1582 -0.000771747 1.35195)
(37.8582 -0.00103326 1.49344)
(37.5363 0.000855988 1.65378)
(37.1654 0.00256542 1.81404)
(36.7073 0.00373042 1.86366)
(36.2543 0.00335326 1.90826)
(35.8347 0.00567893 1.98765)
(35.4027 0.00574183 2.08227)
(34.8807 0.00196158 2.22189)
(34.3212 -0.00121566 2.36633)
(33.7232 -0.0081094 2.50597)
(32.9679 -0.0129797 2.66233)
(32.0955 -0.00548445 2.84425)
(31.1829 0.00350228 3.04953)
(30.1711 0.00262527 3.18949)
(29.0429 0.00254411 3.22481)
(27.9369 0.0113581 3.14398)
(26.9379 0.0337893 2.9419)
(26.0975 0.0701687 2.4741)
(25.5635 0.153345 1.39413)
(25.8502 0.318945 -0.209285)
(26.1867 0.0452709 -0.675506)
(26.6603 -0.356768 -0.594813)
(26.618 -0.532901 -0.287226)
(26.0694 -0.709821 0.0369026)
(25.3808 -0.638242 0.138238)
(24.6857 -0.229701 0.235957)
(24.6507 -0.204321 0.335825)
(24.5613 -0.223118 0.0953971)
(24.2799 -0.215598 -0.0848121)
(24.0716 -0.192172 -0.234486)
(23.9488 -0.161424 -0.387325)
(23.8934 -0.129334 -0.520284)
(24.0236 -0.102078 -0.697441)
(24.0665 -0.184493 -0.782009)
(24.3358 -0.193881 -1.2717)
(24.0352 0.0724566 -1.81168)
(24.2304 0.111324 -1.86312)
(24.7874 -0.0258565 -1.90232)
(24.8083 0.274962 -2.46144)
(39.9995 0.000103099 0.0466302)
(39.9857 -0.000144269 0.135334)
(39.9585 0.000130876 0.229115)
(39.915 0.000177893 0.324393)
(39.8535 5.14574e-05 0.421687)
(39.7754 6.22947e-06 0.521691)
(39.6822 7.90516e-05 0.62499)
(39.5726 0.000169647 0.732076)
(39.4442 0.000184903 0.843421)
(39.2953 8.55222e-05 0.95951)
(39.1254 -0.000112391 1.08085)
(38.9343 -0.00036162 1.20803)
(38.7219 -0.000592926 1.34194)
(38.4873 -0.000757966 1.48388)
(38.2307 -0.000786438 1.6359)
(37.9501 -0.000622184 1.8014)
(37.6545 0.000497901 1.98094)
(37.3394 0.00416542 2.19721)
(36.9505 0.00593017 2.32112)
(36.4941 0.00454695 2.39675)
(35.9899 0.00469608 2.46417)
(35.4308 0.0015826 2.56656)
(34.8601 -0.00334876 2.74623)
(34.3009 -0.00819206 2.98112)
(33.6436 -0.0176524 3.24496)
(32.8315 -0.0201455 3.53098)
(31.7726 -0.00842795 3.76781)
(30.6498 0.00779487 4.00758)
(29.5422 0.0122536 4.23306)
(28.3801 0.0132694 4.31225)
(27.2195 0.0253426 4.19364)
(26.0691 0.0620631 3.84524)
(24.7671 0.142755 3.06025)
(23.5633 0.386788 1.39604)
(23.0424 0.801722 -0.10479)
(12.6085 0.0648442 2.4022)
(14.7497 -0.590714 1.63135)
(15.7547 -1.08841 1.3649)
(16.5746 -1.79404 2.60887)
(18.1566 -0.848973 0.17606)
(19.3403 -0.264177 0.57352)
(19.4812 -0.809733 2.30473)
(19.6677 -0.747537 2.16919)
(19.889 -0.621599 1.80298)
(20.076 -0.530883 1.45817)
(20.171 -0.487334 1.14608)
(20.3348 -0.403987 0.82576)
(20.5478 -0.410149 0.544282)
(20.752 -0.381001 0.107098)
(20.8109 -0.311983 -0.361893)
(20.518 -0.169059 -0.720052)
(20.2542 -0.0397614 -0.970101)
(20.7237 -0.0152764 -1.15885)
(19.4198 -0.238957 -1.78495)
(39.9997 0.000103097 0.0466262)
(39.9859 -0.000144258 0.135338)
(39.9586 0.000130844 0.229103)
(39.9147 0.000178023 0.324379)
(39.853 5.0913e-05 0.421679)
(39.775 4.49347e-06 0.521682)
(39.6819 7.70096e-05 0.624967)
(39.5723 0.00016757 0.732033)
(39.4437 0.000182833 0.843359)
(39.2946 8.35618e-05 0.959439)
(39.1245 -0.000114566 1.08078)
(38.9334 -0.000362822 1.208)
(38.721 -0.00059039 1.34198)
(38.4868 -0.000752547 1.48398)
(38.23 -0.00077576 1.6362)
(37.9514 -0.000639676 1.80111)
(37.6553 0.000616621 1.98267)
(37.3518 0.00360313 2.1818)
(37.0135 0.00733332 2.34261)
(36.5768 0.00449089 2.43599)
(36.0418 0.00515108 2.52106)
(35.4747 0.00284877 2.65016)
(34.8623 -0.00365922 2.78766)
(34.2546 -0.00849532 2.98123)
(33.5666 -0.0184565 3.22773)
(32.7092 -0.0200223 3.51567)
(31.7143 -0.00776102 3.77485)
(30.7094 0.00690608 4.04837)
(29.6522 0.0104484 4.24834)
(28.5106 0.0114038 4.31198)
(27.3922 0.0233991 4.20126)
(26.3518 0.0576152 3.92526)
(25.3803 0.131964 3.32193)
(24.6419 0.470918 2.0492)
(25.0039 1.52283 0.242076)
(26.1696 2.87458 -1.63109)
(27.4945 2.84813 -1.80872)
(27.4597 2.60392 -1.40178)
(26.6947 2.35325 -0.895153)
(26.3948 1.9001 -0.615925)
(23.7677 0.60256 0.20892)
(23.5085 0.240253 0.391741)
(23.323 0.294219 0.211998)
(23.1234 0.393231 0.011422)
(22.9706 0.461978 -0.216099)
(22.8415 0.495433 -0.429305)
(22.7292 0.578752 -0.603416)
(22.6201 0.603856 -0.703031)
(22.5189 0.613328 -0.821359)
(22.2816 0.703683 -1.01154)
(22.1256 0.829161 -1.28779)
(21.7569 0.963072 -1.62323)
(22.1957 0.999079 -1.48478)
(20.5287 0.971352 -2.2829)
(39.9995 0.000102088 0.0538352)
(39.9862 -0.000133407 0.15623)
(39.9601 0.000134329 0.264693)
(39.9186 0.000177053 0.375154)
(39.8598 4.89418e-05 0.488151)
(39.785 -5.92162e-07 0.604369)
(39.6958 6.3729e-05 0.72442)
(39.5907 0.000143989 0.848875)
(39.4673 0.000150238 0.97832)
(39.324 4.73771e-05 1.11335)
(39.1604 -0.000147181 1.25457)
(38.9764 -0.000379412 1.40261)
(38.7721 -0.000581892 1.55816)
(38.5474 -0.000703202 1.72214)
(38.3021 -0.000716072 1.89561)
(38.0375 -0.000472671 2.08017)
(37.7543 -0.000165396 2.27571)
(37.4628 0.00157332 2.4871)
(37.1522 0.00158051 2.68396)
(36.7969 -0.000517484 2.86276)
(36.3673 -0.00255496 3.02478)
(35.8459 -0.00198397 3.23262)
(35.1327 -0.00670321 3.40282)
(34.4643 -0.0176741 3.63614)
(33.7966 -0.028814 4.03969)
(32.9741 -0.0332456 4.54833)
(31.8726 -0.0079362 4.96048)
(30.6149 0.0218253 5.16607)
(29.3871 0.0260776 5.33809)
(28.1372 0.0235955 5.44102)
(26.9022 0.0395496 5.39449)
(25.6351 0.0832057 5.13818)
(23.9628 0.204875 4.67625)
(22.6928 0.62793 3.8894)
(10.0737 0.468586 -0.0472923)
(9.47947 0.0281804 2.41995)
(9.65441 -0.348146 5.02569)
(8.60541 0.568051 2.96289)
(9.4637 0.50626 2.61182)
(6.58418 -0.373081 1.34528)
(11.4408 -0.661462 0.559539)
(11.7644 -0.713334 0.425734)
(11.9405 -0.365266 0.689566)
(12.3395 -0.102827 0.833177)
(12.6589 0.00609432 0.808635)
(12.726 0.0669912 0.685645)
(12.7999 0.196289 0.4932)
(12.6702 0.368699 0.24219)
(12.9725 0.415758 -0.210816)
(12.9332 0.375639 -0.546891)
(12.9064 0.253496 -0.859883)
(13.3208 0.137347 -1.32683)
(14.6324 0.0285575 -1.97255)
(15.9031 -0.881886 -3.46117)
(39.9997 0.000102087 0.0538302)
(39.9865 -0.000133395 0.156231)
(39.9602 0.000134296 0.264673)
(39.9182 0.000177184 0.37513)
(39.8593 4.83962e-05 0.488131)
(39.7847 -2.35585e-06 0.604347)
(39.6956 6.16207e-05 0.724385)
(39.5904 0.000141775 0.848825)
(39.4668 0.000148063 0.97826)
(39.3233 4.49151e-05 1.1133)
(39.1595 -0.000148564 1.25454)
(38.9755 -0.000378735 1.40262)
(38.7714 -0.000580767 1.55825)
(38.5469 -0.000700524 1.72229)
(38.3019 -0.000708105 1.89591)
(38.0375 -0.000464434 2.08007)
(37.7559 -0.000142515 2.27552)
(37.463 0.00156507 2.48039)
(37.1555 0.00160271 2.6835)
(36.8122 -0.000339437 2.8809)
(36.3856 -0.00163414 3.07174)
(35.9131 -0.00214013 3.2658)
(35.2443 -0.00758177 3.47174)
(34.4659 -0.0173578 3.69126)
(33.7313 -0.0300392 4.0049)
(32.8358 -0.0337035 4.47155)
(31.7345 -0.00591487 4.82116)
(30.6569 0.0182803 5.14993)
(29.5308 0.0230635 5.4056)
(28.3194 0.0206152 5.4817)
(27.1244 0.0375199 5.36443)
(26.0094 0.0788401 5.12058)
(24.8825 0.221833 4.69318)
(23.8008 0.989291 4.04453)
(24.8167 2.86066 3.35456)
(10.2458 0.0365883 2.41426)
(11.411 0.471895 0.760223)
(11.2411 1.39276 0.465979)
(9.83433 1.56623 0.799927)
(9.40712 1.36713 1.44788)
(10.4608 0.628658 1.54814)
(10.4667 0.446286 0.862537)
(10.7551 0.792888 0.562932)
(10.8242 1.07888 0.530505)
(10.8953 1.1929 0.459914)
(11.0242 1.25683 0.301655)
(11.3441 1.42277 0.102628)
(11.8173 1.62362 -0.0362388)
(12.1469 1.77651 -0.108496)
(12.3028 1.87987 -0.211637)
(12.4574 1.96422 -0.400625)
(12.6063 2.10247 -0.622772)
(13.3732 2.25881 -0.860343)
(12.4792 1.65233 -1.51937)
(39.9996 9.81935e-05 0.0606883)
(39.9869 -0.00014203 0.176121)
(39.9623 0.000112361 0.298519)
(39.9231 0.000154387 0.423331)
(39.8674 3.13735e-05 0.551166)
(39.7966 -1.77523e-05 0.682803)
(39.7121 4.15676e-05 0.818977)
(39.6124 0.000116583 0.96039)
(39.4951 0.000121828 1.10774)
(39.3585 2.49728e-05 1.2617)
(39.2023 -0.000154142 1.42285)
(39.0262 -0.000360352 1.5917)
(38.8306 -0.000527685 1.76867)
(38.6151 -0.000615838 1.95405)
(38.3797 -0.000585329 2.14801)
(38.1247 -0.00048235 2.35053)
(37.8508 -0.00025788 2.56039)
(37.5614 0.000106073 2.77713)
(37.2558 -0.000440148 2.99261)
(36.9261 -0.00233813 3.21129)
(36.5567 -0.00482 3.44683)
(36.1434 -0.00486247 3.74209)
(35.6768 -0.00143328 4.06196)
(34.9674 -0.0122558 4.38818)
(34.2111 -0.028425 4.87126)
(33.4959 -0.0388425 5.53402)
(32.5959 -0.0121091 6.09893)
(31.3984 0.0350388 6.44987)
(29.9297 0.0575016 6.6456)
(28.3368 0.0427379 6.67903)
(27.0048 0.0374537 6.49266)
(25.8562 0.0505013 6.2674)
(24.6334 0.0973077 6.30106)
(23.8202 0.437217 7.3202)
(21.7437 1.02728 9.71392)
(7.17357 0.0633975 2.4849)
(6.77483 0.820039 0.667104)
(-0.540357 0.0459577 -3.02913)
(-2.15711 -2.11465 -1.8805)
(-1.17424 -2.07893 -2.64242)
(-0.983521 -1.78759 -1.5704)
(0.652795 -1.69605 -0.33061)
(2.50105 -1.62798 -0.323256)
(3.88245 -1.02624 -0.574867)
(5.33461 -0.817201 -1.14274)
(6.92079 -0.953413 -1.70196)
(8.66605 -1.05027 -2.11904)
(10.6772 -1.03283 -2.52284)
(12.658 -1.07797 -2.90141)
(14.3942 -1.18596 -3.17346)
(15.8437 -1.32651 -3.40772)
(17.2402 -1.39843 -3.66106)
(18.963 -1.40705 -3.99618)
(20.3628 -1.47493 -4.75961)
(39.9997 9.81934e-05 0.060683)
(39.9871 -0.000142027 0.176124)
(39.9624 0.000112359 0.298499)
(39.9227 0.000154382 0.423306)
(39.8669 3.13768e-05 0.551146)
(39.7963 -1.78272e-05 0.68278)
(39.7119 4.1696e-05 0.818942)
(39.6121 0.000115658 0.960343)
(39.4946 0.000119194 1.10769)
(39.3579 2.16298e-05 1.26166)
(39.2015 -0.000156514 1.42284)
(39.0255 -0.000360877 1.59174)
(38.8299 -0.000527543 1.76876)
(38.6146 -0.00061512 1.9542)
(38.3794 -0.000584182 2.1482)
(38.1245 -0.000478454 2.35054)
(37.851 -0.000251083 2.5602)
(37.5606 0.000119459 2.77517)
(37.2524 -0.00042606 2.99088)
(36.9211 -0.00234072 3.21114)
(36.5544 -0.00469408 3.45377)
(36.1481 -0.00499347 3.73843)
(35.7071 -0.000652748 4.12579)
(35.0562 -0.010074 4.44303)
(34.2242 -0.0335963 4.8585)
(33.401 -0.0422199 5.41761)
(32.3173 -0.01883 5.92824)
(31.0858 0.0245854 6.32706)
(29.9451 0.0472815 6.61263)
(28.6777 0.0314644 6.6974)
(27.2965 0.0316653 6.52723)
(26.0886 0.0488979 6.23663)
(25.0448 0.10272 6.08703)
(23.7323 0.5324 6.48542)
(24.455 2.07465 8.64498)
(21.7438 2.56501 9.17593)
(19.6662 2.21875 6.88709)
(16.5672 1.95816 4.14454)
(13.6219 1.80662 2.52931)
(10.3603 1.55489 1.6103)
(8.50185 0.671683 0.611948)
(4.95504 -0.101474 -0.621165)
(1.81813 1.52636 0.0466715)
(4.0198 1.3049 -0.0200869)
(4.38978 1.30407 0.124104)
(4.55646 1.14315 0.187042)
(5.39295 1.1775 0.0609185)
(6.51292 1.53152 -0.0777289)
(7.26222 1.77827 -0.0121708)
(7.6999 1.81255 0.0542173)
(7.98233 1.66231 -0.0773925)
(8.19658 1.54044 -0.330948)
(9.85351 1.63757 -0.543828)
(9.93003 1.29346 -1.15678)
(39.9996 9.6937e-05 0.067109)
(39.9878 -0.000129541 0.194767)
(39.9648 0.000116015 0.330218)
(39.9283 0.000152903 0.468501)
(39.8764 2.76795e-05 0.610336)
(39.8103 -2.59443e-05 0.756614)
(39.7313 2.58035e-05 0.908189)
(39.6379 9.31324e-05 1.06587)
(39.5277 9.40291e-05 1.23046)
(39.3988 -1.69696e-06 1.40266)
(39.2508 -0.000172396 1.58307)
(39.0834 -0.000361938 1.77209)
(38.8966 -0.000510901 1.96986)
(38.69 -0.000577744 2.1762)
(38.463 -0.000559437 2.39055)
(38.2155 -0.000469837 2.61181)
(37.9481 -0.000370874 2.83852)
(37.6624 -0.000336647 3.06887)
(37.3608 -0.000490841 3.30106)
(37.0446 -0.00101552 3.54019)
(36.7149 -0.00182893 3.80126)
(36.3714 -0.000962716 4.12076)
(36.0247 -5.2439e-05 4.5235)
(35.6221 0.0232792 5.05221)
(34.8688 0.0161375 5.68485)
(34.2199 -0.00609418 6.35239)
(33.537 -0.0153623 6.9589)
(32.6892 -0.0074328 7.63456)
(31.4812 0.0443039 8.19476)
(29.9051 0.088436 8.36579)
(28.0077 0.0876727 7.83874)
(26.0711 0.0692452 7.23822)
(24.7083 0.063848 7.16109)
(23.1918 0.16315 7.75047)
(24.2646 0.69815 11.4608)
(20.8008 0.51819 11.4926)
(17.1104 0.251775 8.25301)
(12.6208 -0.345603 4.49087)
(8.59741 -1.03435 1.54659)
(6.59717 -1.58588 -0.590571)
(6.29153 -1.99963 -1.68369)
(7.70928 -2.39797 -2.0569)
(9.52142 -2.41513 -2.44766)
(11.2361 -2.04656 -2.89194)
(13.0342 -1.73998 -3.38305)
(14.8727 -1.60991 -3.85363)
(16.6739 -1.54221 -4.18744)
(18.3979 -1.47622 -4.39693)
(19.922 -1.4187 -4.53334)
(21.1299 -1.40014 -4.58389)
(22.0267 -1.39736 -4.57998)
(22.746 -1.34873 -4.52555)
(23.6501 -1.23506 -4.52597)
(23.9524 -1.20207 -4.56257)
(39.9998 9.69369e-05 0.0671031)
(39.988 -0.000129538 0.194765)
(39.9649 0.000116014 0.330192)
(39.928 0.000152896 0.468468)
(39.8759 2.76843e-05 0.610306)
(39.81 -2.5993e-05 0.756581)
(39.7311 2.60074e-05 0.908146)
(39.6376 9.23399e-05 1.06582)
(39.5272 9.14737e-05 1.2304)
(39.3982 -4.84301e-06 1.40261)
(39.2501 -0.00017518 1.58304)
(39.0827 -0.000367025 1.7721)
(38.896 -0.000515953 1.96991)
(38.6896 -0.000579726 2.17628)
(38.4627 -0.000564394 2.39063)
(38.2153 -0.000476471 2.61188)
(37.9478 -0.000372593 2.83838)
(37.6619 -0.000334947 3.0685)
(37.3596 -0.000478144 3.30125)
(37.0425 -0.00102155 3.54158)
(36.7134 -0.00176305 3.80593)
(36.3735 -0.00130821 4.11926)
(36.0339 0.00135793 4.53759)
(35.6857 0.0174472 5.02993)
(35.1782 0.0150351 5.64302)
(34.3537 -0.00988168 6.29522)
(33.5803 -0.03255 7.02168)
(32.3002 -0.011492 7.59409)
(30.9671 0.0379344 7.94305)
(29.6711 0.0741023 8.10814)
(28.211 0.0814112 7.99511)
(26.582 0.0547269 7.48003)
(24.9859 0.0634707 7.12586)
(23.3789 0.0718512 7.62449)
(23.1133 0.67645 9.59165)
(24.2001 1.29522 10.9063)
(24.4566 1.53276 10.1768)
(23.2848 1.47413 8.26013)
(21.2505 1.37592 6.2058)
(18.7176 1.26077 4.44999)
(16.5918 0.964013 3.15855)
(14.3664 0.561209 2.13286)
(12.0987 0.527832 1.36538)
(11.4015 0.71893 0.672736)
(11.1059 0.984224 0.155334)
(11.3079 1.03667 -0.268249)
(11.984 0.949927 -0.588545)
(12.8031 0.883579 -0.785759)
(13.6627 0.8302 -0.901345)
(14.4783 0.682522 -0.982009)
(15.1668 0.467198 -0.982349)
(15.9049 0.315328 -0.941828)
(17.0938 0.302416 -0.929998)
(17.3487 0.118545 -1.47932)
(39.9997 9.24958e-05 0.0730145)
(39.9887 -0.00014284 0.211923)
(39.9677 8.76887e-05 0.359409)
(39.9344 0.00012239 0.510146)
(39.8869 1.49855e-06 0.66498)
(39.8262 -5.1823e-05 0.824927)
(39.7535 -4.57484e-06 0.990972)
(39.6673 5.73333e-05 1.16406)
(39.5651 5.64403e-05 1.3451)
(39.4451 -3.40113e-05 1.53493)
(39.3064 -0.000193906 1.7342)
(39.1486 -0.000369511 1.94324)
(38.9712 -0.000505467 2.16204)
(38.7734 -0.000561649 2.39004)
(38.5542 -0.000545625 2.62601)
(38.3128 -0.000454023 2.86804)
(38.0496 -0.000417046 3.11342)
(37.7671 -0.000308297 3.35925)
(37.471 -0.000333604 3.60372)