/*--------------------------------*- C++ -*----------------------------------*\
| =========                 |                                                 |
| \\      /  F ield         | OpenFOAM: The Open Source CFD Toolbox           |
|  \\    /   O peration     | Version:  4.1                                   |
|   \\  /    A nd           | Web:      www.OpenFOAM.org                      |
|    \\/     M anipulation  |                                                 |
\*---------------------------------------------------------------------------*/
FoamFile
{
    version     2.0;
    format      ascii;
    class       volVectorField;
    location    "73";
    object      U;
}
// * * * * * * * * * * * * * * * * * * * * * * * * * * * * * * * * * * * * * //

dimensions      [0 1 -1 0 0 0 0];

internalField   nonuniform List<vector> 
4432
(
(39.9816 1.18246e-05 0.0502477)
(39.9164 -6.45263e-05 0.0900956)
(39.816 -1.0357e-05 0.118489)
(39.6784 -6.32209e-05 0.145927)
(39.5024 -0.000189007 0.174642)
(39.2894 -0.000234963 0.204889)
(39.0394 -0.000193279 0.236972)
(38.7509 -0.000138641 0.270381)
(38.4215 -0.00010591 0.30508)
(38.0502 -0.000108858 0.340456)
(37.6376 -0.000128703 0.374612)
(37.1856 -7.93863e-05 0.408014)
(36.698 -0.000244655 0.434272)
(36.192 -0.000266188 0.45339)
(35.6725 -0.00295024 0.445128)
(35.2554 -0.0070595 0.389319)
(34.9093 -0.00574023 0.428828)
(34.7804 -0.0030567 0.333585)
(34.8695 -0.00142141 0.243137)
(34.8346 0.0023287 0.389527)
(34.5852 -0.000967436 0.499111)
(34.2097 -0.0109967 0.628965)
(33.7242 -0.0216583 0.707586)
(33.171 -0.0309049 0.699901)
(32.5532 -0.0381324 0.68468)
(31.8965 -0.043935 0.562257)
(31.2886 -0.0404006 0.364581)
(30.7581 -0.0264313 0.154792)
(30.3432 -0.0177746 0.0721567)
(30.0284 -0.022927 0.0908789)
(29.7613 -0.0405154 0.225686)
(29.4554 -0.0613321 0.485492)
(29.0297 -0.0680024 0.594933)
(28.5642 -0.0436156 0.23339)
(28.2847 -0.00329042 -0.531376)
(28.1754 0.0244244 -0.939694)
(28.1197 0.0323933 -0.874196)
(27.9802 0.0237822 -0.767085)
(27.7839 0.0222526 -0.645775)
(27.6547 0.0249604 -0.509577)
(27.6059 0.0163195 -0.459756)
(27.5738 0.0105327 -0.515702)
(27.5114 0.00665189 -0.474368)
(27.4276 0.0133702 -0.422666)
(27.4156 0.0271182 -0.411705)
(27.4501 0.0366954 -0.415433)
(27.5423 0.0241541 -0.402335)
(27.6759 -0.00208291 -0.408368)
(27.7694 0.0211345 -0.4055)
(27.8901 0.0576547 -0.425668)
(28.2068 0.048743 -0.323531)
(28.7182 0.0218956 -0.344641)
(29.0304 2.34388e-05 -0.444775)
(29.386 0.0700217 -0.0208003)
(39.9817 1.18248e-05 0.0502493)
(39.9164 -6.45191e-05 0.0901169)
(39.816 -1.04704e-05 0.118594)
(39.6783 -6.31374e-05 0.145997)
(39.5023 -0.000188865 0.174617)
(39.2894 -0.000234968 0.204883)
(39.0395 -0.000193601 0.236887)
(38.751 -0.000138896 0.270243)
(38.4216 -0.000106783 0.304951)
(38.0504 -0.000110457 0.340186)
(37.6377 -0.000130624 0.374552)
(37.1856 -8.18721e-05 0.407757)
(36.6985 -0.000246972 0.435168)
(36.187 -0.000271311 0.453519)
(35.6702 -0.00293699 0.452393)
(35.2032 -0.00711789 0.400109)
(34.8509 -0.00581151 0.378642)
(34.7639 -0.00306206 0.28846)
(34.8574 -0.00139234 0.234301)
(34.8529 0.00223288 0.401434)
(34.6062 -0.00108395 0.486623)
(34.2286 -0.0110699 0.547524)
(33.7541 -0.0217695 0.590707)
(33.198 -0.0312975 0.584847)
(32.5614 -0.0389281 0.575777)
(31.8696 -0.0456792 0.443102)
(31.2058 -0.0438816 0.258795)
(30.634 -0.0306866 0.129053)
(30.1651 -0.0225009 0.0457287)
(29.7784 -0.0295491 -0.0613552)
(29.5164 -0.0485824 -0.191257)
(29.2927 -0.0746547 -0.212255)
(29.0119 -0.0853084 -0.0343817)
(28.6031 -0.0629993 0.125367)
(28.2666 -0.0176415 -0.12794)
(28.0289 0.0135494 -0.419551)
(27.8696 0.0250108 -0.382922)
(27.6763 0.0168002 -0.396775)
(27.4743 0.0155521 -0.363624)
(27.3142 0.0267528 -0.292145)
(27.2174 0.0236871 -0.235192)
(27.1451 0.0192015 -0.233081)
(27.0563 0.0153164 -0.18314)
(26.9673 0.0219866 -0.167507)
(26.9347 0.0370226 -0.176825)
(26.9433 0.0483441 -0.22303)
(27.0003 0.0367317 -0.160824)
(27.2101 0.00845427 -0.0995)
(27.3816 0.0363677 -0.0822544)
(27.535 0.0796682 -0.122954)
(27.9145 0.0431731 -0.222865)
(28.4201 0.0132515 -0.302912)
(28.7963 -0.0122739 -0.376891)
(29.2832 0.0610161 0.086724)
(40.0073 1.04639e-05 0.0177548)
(40.0322 -7.55486e-05 0.0557494)
(40.0576 -2.31136e-05 0.0948583)
(40.0799 -8.05047e-05 0.134225)
(40.0985 -0.000207666 0.17417)
(40.1151 -0.0002498 0.215288)
(40.1307 -0.000193427 0.257931)
(40.1442 -0.000112563 0.302263)
(40.1532 -7.95192e-05 0.348347)
(40.1561 -8.69343e-05 0.395995)
(40.1512 -0.000132899 0.444611)
(40.1353 -0.000236627 0.492379)
(40.1046 -0.000102116 0.536858)
(40.041 -0.000246161 0.567716)
(39.9472 0.00370531 0.590618)
(39.6747 0.00600675 0.564641)
(39.3678 0.00728865 0.438942)
(38.6677 0.00709961 0.357239)
(37.6886 -0.00080413 0.406899)
(36.8702 -0.00276962 0.472659)
(36.1653 0.000213135 0.544597)
(35.5381 0.0036728 0.63159)
(34.9961 0.0068664 0.720979)
(34.4764 0.00972924 0.819013)
(33.9759 0.0112553 0.894241)
(33.4846 0.0127043 0.904351)
(32.9856 0.0144921 0.861176)
(32.4536 0.0210519 0.804245)
(31.8395 0.0344735 0.729696)
(31.2268 0.0409988 0.626425)
(30.6519 0.0431346 0.543279)
(30.1062 0.043251 0.557867)
(29.6774 0.0397055 0.559165)
(29.4012 0.0292511 0.478904)
(29.2132 0.00884364 0.432577)
(29.0375 -0.0261837 0.557798)
(28.8791 -0.0709574 0.718062)
(28.6776 -0.103695 0.780386)
(28.4391 -0.110371 0.721913)
(28.1987 -0.105523 0.532133)
(28.0111 -0.116231 0.38372)
(27.9442 -0.145219 0.398299)
(27.8602 -0.163656 0.428953)
(27.7603 -0.176094 0.389948)
(27.7145 -0.186407 0.31374)
(27.7439 -0.190263 0.221285)
(27.8163 -0.196441 0.174176)
(27.912 -0.2019 0.0685953)
(28.0329 -0.188216 -0.0244218)
(28.0499 -0.217769 0.0625767)
(28.3209 -0.186031 -0.235551)
(28.3298 -0.135598 -0.372739)
(29.0339 -0.079527 -0.452401)
(29.732 0.00305242 -0.722518)
(40.0074 1.04641e-05 0.0177506)
(40.0322 -7.55498e-05 0.055746)
(40.0576 -2.31154e-05 0.0948466)
(40.0798 -8.0504e-05 0.134201)
(40.0983 -0.000207665 0.174147)
(40.1151 -0.000249795 0.215281)
(40.1309 -0.000193413 0.25795)
(40.1443 -0.000112626 0.30229)
(40.1533 -7.94904e-05 0.348381)
(40.1558 -8.90589e-05 0.39597)
(40.1512 -0.00013395 0.444506)
(40.1352 -0.000234288 0.492421)
(40.1041 -0.000128312 0.536488)
(40.046 -0.000149716 0.570645)
(39.9467 0.00323844 0.58311)
(39.7514 0.00601676 0.55312)
(39.4286 0.00793389 0.457173)
(38.7059 0.0073905 0.347629)
(37.706 -0.000802351 0.389703)
(36.8627 -0.00258556 0.462618)
(36.1776 0.000324033 0.524102)
(35.5563 0.00382033 0.600488)
(35.0149 0.0071454 0.67555)
(34.5046 0.0103783 0.757929)
(34.0156 0.0122835 0.825788)
(33.5482 0.014731 0.834043)
(33.0664 0.018588 0.823664)
(32.5412 0.0248561 0.80691)
(31.9957 0.035315 0.733005)
(31.4781 0.0471776 0.595917)
(30.9312 0.0593461 0.487328)
(30.3216 0.0713695 0.481346)
(29.7781 0.0633718 0.463972)
(29.4609 0.044926 0.414655)
(29.3012 0.0147266 0.372338)
(29.2232 -0.0266976 0.442216)
(29.1668 -0.0744937 0.538043)
(29.0691 -0.108218 0.585612)
(28.912 -0.118479 0.563294)
(28.817 -0.120943 0.465131)
(28.7502 -0.127528 0.35751)
(28.7721 -0.145921 0.344783)
(28.7654 -0.164592 0.34855)
(28.7212 -0.174483 0.29856)
(28.7036 -0.183538 0.209813)
(28.7277 -0.184921 0.109369)
(28.7705 -0.188373 0.0719852)
(28.8236 -0.19422 -0.0110617)
(28.86 -0.199459 -0.0666356)
(28.8274 -0.208142 -0.153763)
(28.9062 -0.134826 -0.513861)
(28.9482 -0.103207 -0.629502)
(29.6257 -0.060715 -0.629951)
(30.2404 0.0190993 -0.887062)
(39.9992 8.81819e-06 0.0248777)
(39.9878 -7.6214e-05 0.0721639)
(39.9583 -2.30022e-05 0.116407)
(39.91 -7.84821e-05 0.158848)
(39.8436 -0.000201747 0.2011)
(39.7611 -0.000237308 0.244176)
(39.6638 -0.000177504 0.288641)
(39.5514 -0.00010542 0.334864)
(39.4228 -8.36596e-05 0.383151)
(39.278 -0.000117249 0.433635)
(39.1173 -0.00018871 0.486262)
(38.9408 -0.000230515 0.54077)
(38.7467 -0.000208876 0.596895)
(38.5342 0.000176779 0.653939)
(38.2867 0.000578682 0.715424)
(38.0457 0.00239793 0.790312)
(37.6944 0.00319436 0.831807)
(37.3123 0.00496287 0.954223)
(36.9341 0.00215561 1.12629)
(36.5165 0.00170601 1.23724)
(36.0458 0.00296532 1.28277)
(35.5546 0.00503971 1.29796)
(35.077 0.00779004 1.32351)
(34.5985 0.0120112 1.3626)
(34.116 0.0143806 1.39957)
(33.6219 0.0180853 1.38709)
(33.0783 0.0253485 1.33032)
(32.4563 0.0357164 1.28841)
(31.7366 0.0440225 1.1893)
(30.9761 0.0397306 1.08763)
(30.1507 0.0361313 1.09954)
(29.3132 0.0474338 1.14916)
(28.6163 0.0801763 1.08497)
(27.9822 0.133792 0.849112)
(27.5246 0.171274 0.332326)
(27.5282 0.0555957 0.288188)
(27.3626 -0.0747483 0.515353)
(27.0777 -0.125844 0.569188)
(26.6664 -0.126015 0.569171)
(26.4217 -0.0735327 0.318063)
(26.3481 -0.0888189 0.276761)
(26.3248 -0.148321 0.452566)
(26.2478 -0.176899 0.439527)
(26.1128 -0.183475 0.296538)
(26.0896 -0.186202 0.128114)
(26.1678 -0.177486 -0.0326605)
(26.3104 -0.177302 -0.130034)
(26.5041 -0.165603 -0.252735)
(26.7348 -0.183398 -0.270826)
(27.1838 -0.149133 -0.483448)
(27.5486 -0.0740866 -0.591037)
(27.7094 -0.0433035 -0.573956)
(27.7418 -0.032282 -0.815122)
(27.8947 -0.0400287 -1.30205)
(39.9993 8.8182e-06 0.0248748)
(39.9878 -7.62146e-05 0.0721644)
(39.9583 -2.30034e-05 0.116405)
(39.9099 -7.8482e-05 0.158846)
(39.8435 -0.000201745 0.2011)
(39.7611 -0.000237306 0.244179)
(39.664 -0.000177503 0.288643)
(39.5515 -0.000105415 0.334855)
(39.4229 -8.36477e-05 0.383139)
(39.278 -0.000117437 0.433604)
(39.1172 -0.000189207 0.486231)
(38.9408 -0.000230883 0.540792)
(38.7474 -0.000211175 0.596835)
(38.5341 0.00017881 0.65394)
(38.2936 0.000570973 0.712817)
(38.0244 0.00237095 0.782055)
(37.7067 0.00276725 0.852489)
(37.3239 0.00520925 0.958945)
(36.9337 0.00230039 1.11937)
(36.5228 0.00178147 1.22305)
(36.0593 0.0030792 1.26342)
(35.5754 0.0052328 1.27114)
(35.106 0.00818816 1.28637)
(34.6296 0.0130849 1.3369)
(34.1407 0.0160133 1.38041)
(33.6458 0.020394 1.37403)
(33.1025 0.028786 1.3499)
(32.4999 0.0401732 1.33305)
(31.8469 0.0498713 1.26664)
(31.13 0.0513652 1.14909)
(30.2629 0.0463121 1.15334)
(29.4258 0.0546091 1.20277)
(28.7538 0.092874 1.09557)
(28.3004 0.136014 0.792501)
(28.072 0.13399 0.456441)
(28.0014 0.0623551 0.266803)
(27.9075 -0.0223963 0.194867)
(27.6968 -0.0760881 0.1272)
(27.4281 -0.0821766 0.0220294)
(27.2833 -0.0465591 -0.198625)
(27.0695 -0.0548288 -0.178672)
(26.9976 -0.091355 -0.114495)
(26.9094 -0.117441 -0.160113)
(26.7683 -0.131879 -0.288741)
(26.6995 -0.142236 -0.430506)
(26.7365 -0.136206 -0.566844)
(26.8153 -0.132671 -0.674015)
(26.9322 -0.122639 -0.743678)
(27.08 -0.132632 -0.789689)
(27.4684 -0.104795 -0.931101)
(27.7209 -0.0630426 -0.836332)
(27.8597 -0.0367004 -0.760542)
(28.1226 -0.0826755 -0.562816)
(28.0071 -0.0322013 -1.48986)
(39.9989 7.61815e-06 0.0314541)
(39.9865 -7.525e-05 0.0938166)
(39.957 -2.51748e-05 0.15612)
(39.9099 -8.28001e-05 0.21929)
(39.8447 -0.000208068 0.284177)
(39.7624 -0.000246219 0.351169)
(39.6635 -0.000188437 0.420459)
(39.5468 -0.000115048 0.492194)
(39.4105 -8.51115e-05 0.566532)
(39.2534 -0.00010656 0.643569)
(39.0748 -0.000156503 0.723373)
(38.8737 -0.000181337 0.806095)
(38.6483 -0.00016771 0.892068)
(38.3964 4.08849e-05 0.98269)
(38.1124 0.00017954 1.08084)
(37.8032 0.00155563 1.19082)
(37.4503 0.00201974 1.34021)
(37.0097 0.00202805 1.41647)
(36.6186 0.00194894 1.47747)
(36.2636 0.00288765 1.56088)
(35.8867 0.0040291 1.64644)
(35.4827 0.00437354 1.70156)
(35.0421 0.00430948 1.75531)
(34.5447 0.00528593 1.82351)
(34.013 0.00422535 1.90387)
(33.4412 0.00384134 1.9449)
(32.7663 0.00863195 1.97399)
(31.9857 0.0149078 2.05258)
(31.0872 0.0135097 2.10944)
(29.9965 0.0133474 2.11752)
(28.8516 0.0184051 2.15486)
(27.8776 0.0314048 2.0773)
(27.045 0.06019 1.8019)
(26.3679 0.104112 1.1339)
(26.325 0.104834 0.209121)
(26.5441 -0.0414316 0.493976)
(26.4286 -0.183411 1.04465)
(26.0139 -0.276579 1.22778)
(25.4149 -0.233294 1.14095)
(25.1856 -0.10452 0.56457)
(25.0836 -0.0800277 0.452696)
(25.0734 -0.124786 0.734794)
(24.9415 -0.154067 0.808617)
(24.7875 -0.146548 0.638602)
(24.7567 -0.133531 0.442886)
(24.8974 -0.122671 0.280392)
(25.0502 -0.121528 0.112928)
(25.2507 -0.0912752 0.0162421)
(25.5104 -0.0826507 -0.154977)
(25.923 -0.0916898 -0.452137)
(26.5081 -0.107063 -0.655931)
(26.7546 -0.104837 -0.636875)
(26.9347 -0.0945283 -0.657013)
(27.204 0.0209287 -0.784711)
(39.999 7.61814e-06 0.0314529)
(39.9865 -7.52506e-05 0.0938193)
(39.9571 -2.51761e-05 0.15612)
(39.9098 -8.28001e-05 0.219288)
(39.8446 -0.000208066 0.284172)
(39.7624 -0.000246215 0.35116)
(39.6637 -0.000188433 0.420448)
(39.547 -0.000115041 0.492187)
(39.4106 -8.51069e-05 0.566538)
(39.2534 -0.000106527 0.643594)
(39.0747 -0.00015654 0.723429)
(38.8737 -0.000181143 0.806161)
(38.6486 -0.000168203 0.892127)
(38.3966 4.30524e-05 0.982469)
(38.1149 0.000178413 1.0803)
(37.8014 0.00158505 1.18979)
(37.4654 0.00185409 1.33462)
(37.025 0.00197545 1.44638)
(36.6253 0.00190505 1.48336)
(36.2729 0.00293038 1.5492)
(35.8979 0.00421192 1.62662)
(35.4942 0.00468919 1.67622)
(35.0389 0.00450069 1.73097)
(34.531 0.00507419 1.83396)
(34.0098 0.00408948 1.91606)
(33.4308 0.00371548 1.97157)
(32.7316 0.0098255 2.06447)
(31.9367 0.0171192 2.18548)
(31.0525 0.0156225 2.26026)
(29.9817 0.0153301 2.26239)
(28.8997 0.018997 2.23713)
(27.9945 0.0302876 2.16823)
(27.2172 0.0574873 2.00702)
(26.5465 0.115091 1.54629)
(26.4308 0.129517 0.657351)
(26.6346 -0.0351583 0.391221)
(26.6135 -0.205876 0.460696)
(26.3705 -0.362093 0.507107)
(26.0021 -0.430472 0.549348)
(25.7457 -0.325721 0.168488)
(25.5792 -0.133515 0.0666141)
(25.4755 -0.123003 0.201019)
(25.3216 -0.120131 0.12012)
(25.1676 -0.118414 -0.0471403)
(25.0406 -0.10377 -0.205491)
(25.1256 -0.0954747 -0.355632)
(25.2488 -0.0947462 -0.538424)
(25.4603 -0.0765802 -0.689509)
(25.7457 -0.05745 -0.813225)
(26.09 -0.0605629 -0.972752)
(26.6183 -0.0940459 -1.09188)
(26.8662 -0.107384 -1.05396)
(27.0998 -0.167514 -1.11574)
(27.6854 -0.00693619 -1.2339)
(39.9989 7.56618e-06 0.0388766)
(39.9868 -7.32192e-05 0.116805)
(39.9579 -2.23887e-05 0.195244)
(39.9118 -8.12991e-05 0.27444)
(39.8481 -0.000207882 0.354989)
(39.7679 -0.000247012 0.437444)
(39.6718 -0.000189162 0.5223)
(39.5587 -0.000113784 0.610031)
(39.4267 -7.91475e-05 0.701105)
(39.2748 -9.57775e-05 0.795979)
(39.1024 -0.000138029 0.895112)
(38.9086 -0.000171019 0.999066)
(38.6922 -0.000142269 1.10866)
(38.4506 -6.48311e-05 1.22551)
(38.1839 0.000259824 1.35205)
(37.8837 0.000426127 1.49329)
(37.5758 0.00203476 1.65452)
(37.1819 0.00459024 1.8157)
(36.7083 0.00465164 1.88975)
(36.2738 0.00433525 1.94262)
(35.8617 0.00563227 2.01887)
(35.4352 0.00463541 2.101)
(34.9617 0.00187514 2.24365)
(34.4019 -0.00118339 2.38568)
(33.7851 -0.00794277 2.52058)
(33.0817 -0.0120372 2.64319)
(32.2114 -0.00592342 2.77563)
(31.2494 0.00225342 2.99402)
(30.1927 0.00129445 3.20545)
(29.0305 0.00141304 3.28333)
(27.9398 0.00946741 3.19691)
(26.9856 0.0289533 2.93203)
(26.1247 0.0631781 2.36008)
(25.4928 0.125219 1.17659)
(25.6429 0.1828 -0.232511)
(25.418 -0.0673177 0.0785442)
(25.3869 -0.448693 1.77823)
(24.7826 -0.687529 2.63302)
(24.2237 -0.713974 2.70794)
(23.884 -0.31595 1.48185)
(23.6756 -0.154451 0.829529)
(23.78 -0.215866 1.018)
(23.6738 -0.259789 0.942855)
(23.6087 -0.253353 0.623716)
(23.6175 -0.23505 0.354043)
(23.7341 -0.221791 0.120906)
(23.9183 -0.214549 -0.106958)
(24.2278 -0.226816 -0.361116)
(24.492 -0.179443 -0.812721)
(24.5378 -0.176744 -0.828781)
(24.8656 -0.21184 -1.02024)
(25.1011 -0.174532 -1.14247)
(25.5349 -0.255269 -1.2256)
(25.6536 -0.155261 -1.24126)
(39.999 7.56617e-06 0.0388755)
(39.9868 -7.32198e-05 0.116811)
(39.9579 -2.23899e-05 0.195247)
(39.9117 -8.12995e-05 0.274444)
(39.848 -0.00020788 0.354997)
(39.768 -0.000247004 0.437451)
(39.672 -0.000189148 0.522305)
(39.5588 -0.000113755 0.610035)
(39.4268 -7.91258e-05 0.701113)
(39.2748 -9.56607e-05 0.795996)
(39.1024 -0.000138175 0.895145)
(38.9086 -0.000169884 0.999108)
(38.6923 -0.000138874 1.10872)
(38.4512 -6.13066e-05 1.22549)
(38.184 0.00027582 1.35202)
(37.8872 0.000395939 1.49274)
(37.5704 0.00220547 1.65477)
(37.2075 0.00406295 1.83105)
(36.7568 0.00432137 1.89663)
(36.309 0.00445299 1.93824)
(35.8856 0.00629973 2.01179)
(35.4443 0.00611865 2.10331)
(34.9165 0.00189593 2.24147)
(34.3509 -0.00149815 2.38198)
(33.7503 -0.00817764 2.51453)
(32.9996 -0.0126369 2.66813)
(32.1315 -0.00502805 2.86536)
(31.222 0.00359286 3.10187)
(30.2168 0.00215453 3.27666)
(29.1124 0.00122882 3.32644)
(28.0594 0.00816746 3.22464)
(27.1367 0.0267539 3.00136)
(26.3725 0.056449 2.57288)
(25.874 0.12304 1.66294)
(26.0585 0.252402 0.324511)
(26.2924 -0.0234258 -0.0605759)
(26.4562 -0.465579 0.0801033)
(26.1931 -0.694199 0.333577)
(25.6369 -0.834301 0.449111)
(25.1232 -0.731861 0.370244)
(24.7296 -0.270273 0.294711)
(24.6947 -0.192747 0.257878)
(24.6055 -0.188283 0.012263)
(24.5088 -0.176552 -0.27935)
(24.5011 -0.156369 -0.515318)
(24.6045 -0.136437 -0.738126)
(24.7858 -0.116492 -0.95542)
(25.0237 -0.117059 -1.18486)
(25.2504 -0.145107 -1.34262)
(25.3994 -0.0594444 -1.68547)
(25.8076 0.0339714 -2.10485)
(25.789 0.00409324 -1.87643)
(26.0208 -0.0567794 -1.80711)
(26.1855 0.112947 -2.07839)
(39.9989 6.54352e-06 0.0462741)
(39.9871 -6.94285e-05 0.139051)
(39.959 -2.13175e-05 0.232595)
(39.9144 -7.85717e-05 0.327296)
(39.8529 -0.000200714 0.423976)
(39.7756 -0.000238556 0.523381)
(39.6831 -0.000183478 0.626121)
(39.5742 -0.000111606 0.732728)
(39.447 -7.84933e-05 0.843714)
(39.3004 -9.28085e-05 0.959592)
(39.1341 -0.000129477 1.08088)
(38.9474 -0.000149479 1.20817)
(38.7395 -0.000114755 1.34228)
(38.5092 -5.40304e-06 1.48447)
(38.2562 0.000196739 1.63677)
(37.9801 0.000527807 1.80257)
(37.6865 0.0012059 1.98324)
(37.3856 0.00491377 2.20249)
(37.0127 0.00880488 2.35103)
(36.5716 0.00784865 2.43518)
(36.0861 0.00686624 2.49893)
(35.5285 0.00258349 2.59846)
(34.9602 -0.00306345 2.77226)
(34.3902 -0.00866719 3.00137)
(33.726 -0.0184314 3.25584)
(32.9129 -0.021001 3.5322)
(31.8588 -0.00929273 3.77697)
(30.7442 0.00688897 4.04747)
(29.655 0.010836 4.29596)
(28.5344 0.0110069 4.36168)
(27.448 0.0203978 4.19451)
(26.4096 0.0500527 3.81798)
(25.2798 0.11423 3.10304)
(24.2541 0.310745 1.6782)
(23.8606 0.650421 0.349696)
(15.9844 0.0417923 2.62943)
(17.3154 -0.568982 2.2689)
(17.8482 -1.06549 1.81949)
(18.066 -1.65972 2.19967)
(19.4891 -0.910414 0.283605)
(20.5666 -0.285381 0.696779)
(20.6853 -0.689602 1.94451)
(20.7831 -0.606016 1.71811)
(21.0046 -0.503379 1.28526)
(21.2469 -0.442442 0.917404)
(21.4419 -0.417411 0.593031)
(21.6758 -0.379414 0.258303)
(21.8849 -0.384378 -0.0756853)
(22.1314 -0.372129 -0.430591)
(22.1738 -0.307825 -0.672883)
(22.1607 -0.220179 -0.924021)
(22.181 -0.179354 -1.09631)
(22.4113 -0.202721 -1.19304)
(22.0133 -0.32215 -1.48692)
(39.999 6.54199e-06 0.046273)
(39.9871 -6.94215e-05 0.139057)
(39.959 -2.13509e-05 0.2326)
(39.9143 -7.84336e-05 0.327304)
(39.8528 -0.000201295 0.42399)
(39.7757 -0.000240338 0.523394)
(39.6833 -0.000185517 0.626128)
(39.5743 -0.000113671 0.732729)
(39.447 -8.05415e-05 0.843714)
(39.3004 -9.47612e-05 0.959601)
(39.1341 -0.000131529 1.0809)
(38.9475 -0.000150741 1.20821)
(38.7397 -0.000111743 1.34235)
(38.5096 -1.64659e-06 1.48453)
(38.2566 0.000211919 1.63692)
(37.9815 0.000494668 1.80219)
(37.6883 0.0013828 1.98463)
(37.3918 0.00406197 2.18859)
(37.0676 0.00886297 2.35766)
(36.6547 0.00844778 2.46719)
(36.1484 0.00830219 2.55698)
(35.5917 0.00423784 2.68245)
(34.9767 -0.00326404 2.81454)
(34.3536 -0.0088417 3.00412)
(33.6543 -0.0191952 3.24016)
(32.7922 -0.0209018 3.52129)
(31.7961 -0.00856792 3.79166)
(30.7963 0.00611301 4.09002)
(29.7565 0.0092059 4.30919)
(28.6534 0.00933751 4.36256)
(27.599 0.0187257 4.20495)
(26.646 0.0464744 3.88977)
(25.7822 0.105703 3.32437)
(25.1252 0.38047 2.23195)
(25.4574 1.23393 0.690736)
(26.5841 2.22293 -0.992994)
(27.6656 2.28669 -1.23358)
(27.5704 2.0531 -0.979093)
(26.827 1.82478 -0.724181)
(26.6291 1.39363 -0.6371)
(24.367 0.35639 0.100487)
(24.107 0.0929982 0.242635)
(23.9376 0.159763 -0.0576487)
(23.7519 0.2519 -0.389636)
(23.5996 0.314819 -0.666717)
(23.4382 0.358274 -0.900294)
(23.2688 0.425886 -1.11154)
(23.0814 0.468806 -1.29095)
(22.9143 0.488255 -1.44759)
(22.6616 0.584234 -1.63111)
(22.6457 0.704029 -1.74179)
(22.3883 0.782428 -1.80878)
(22.5184 0.787779 -1.7014)
(21.6419 0.778194 -2.05433)
(39.999 6.43391e-06 0.0534182)
(39.9876 -6.67645e-05 0.160497)
(39.9607 -1.69616e-05 0.268648)
(39.9181 -7.31813e-05 0.378404)
(39.8594 -0.000194637 0.490655)
(39.7856 -0.000234079 0.606162)
(39.6972 -0.00018237 0.725581)
(39.5929 -0.000113101 0.849525)
(39.4709 -7.99359e-05 0.978617)
(39.3302 -9.07647e-05 1.11347)
(39.1703 -0.000122316 1.25467)
(38.9909 -0.000134337 1.4028)
(38.7913 -9.11651e-05 1.55853)
(38.5709 3.26486e-05 1.72271)
(38.3295 0.00021296 1.89641)
(38.0688 0.000581765 2.08136)
(37.7899 0.000950507 2.27752)
(37.5045 0.00268221 2.49132)
(37.2061 0.00409927 2.6948)
(36.8701 0.00244002 2.8824)
(36.4638 0.000108682 3.0497)
(35.9672 -0.000771782 3.26427)
(35.3006 -0.00495847 3.43522)
(34.6282 -0.015593 3.66636)
(33.9483 -0.0287944 4.06041)
(33.1188 -0.034165 4.55414)
(32.0193 -0.00925317 4.96562)
(30.7718 0.0204586 5.19152)
(29.5691 0.0239057 5.37009)
(28.3643 0.020298 5.43272)
(27.2009 0.0332253 5.30068)
(26.0551 0.0677328 4.96605)
(24.6123 0.163001 4.48352)
(23.5324 0.506423 3.73843)
(13.1854 0.407221 -0.0734788)
(12.6795 0.0279052 2.65998)
(12.8317 -0.300332 5.52215)
(12.3855 0.156432 4.26006)
(12.1702 0.464814 3.17787)
(10.7323 0.120698 2.02789)
(14.1033 -0.238444 0.972909)
(14.4319 -0.275721 0.694538)
(14.3692 -0.15462 0.591291)
(14.6612 -0.0589492 0.450449)
(14.8976 -0.0110041 0.269785)
(14.974 0.0333152 0.0825984)
(15.0256 0.11326 -0.13637)
(15.0744 0.192893 -0.428044)
(15.1522 0.201179 -0.742322)
(15.2917 0.148962 -0.998312)
(15.51 0.066351 -1.25993)
(16.0388 -0.0388894 -1.60712)
(16.822 -0.12645 -1.93234)
(18.0002 -0.627038 -2.88169)
(39.999 6.43234e-06 0.0534162)
(39.9876 -6.67572e-05 0.160503)
(39.9608 -1.69957e-05 0.268651)
(39.918 -7.30417e-05 0.37841)
(39.8593 -0.000195219 0.490668)
(39.7857 -0.000235888 0.606177)
(39.6973 -0.000184475 0.725593)
(39.593 -0.000115299 0.849537)
(39.4709 -8.20983e-05 0.978633)
(39.3302 -9.31437e-05 1.11349)
(39.1703 -0.00012366 1.25471)
(38.991 -0.000133947 1.40286)
(38.7915 -9.00625e-05 1.55861)
(38.5712 3.50693e-05 1.72277)
(38.3301 0.000221101 1.89655)
(38.0695 0.000587381 2.08114)
(37.7922 0.000975581 2.27756)
(37.5059 0.00267314 2.48557)
(37.2104 0.00407065 2.69354)
(36.8866 0.00250895 2.89644)
(36.4842 0.000912206 3.09267)
(36.0359 -0.00108796 3.29419)
(35.3881 -0.00655795 3.51151)
(34.6435 -0.0151029 3.72403)
(33.8887 -0.0300093 4.02884)
(32.9833 -0.034732 4.48373)
(31.8769 -0.00744113 4.83687)
(30.8052 0.017024 5.17685)
(29.7025 0.0211427 5.43283)
(28.5318 0.017688 5.47578)
(27.3973 0.0314568 5.28272)
(26.3661 0.0643466 4.96196)
(25.363 0.177306 4.51265)
(24.3957 0.801058 3.89758)
(25.3899 2.33022 3.19338)
(13.3518 0.0375976 2.62544)
(13.9663 0.140238 1.30784)
(13.5187 0.943757 0.467819)
(12.3618 1.47408 0.320568)
(12.0439 1.54093 0.919565)
(12.9927 1.10144 1.29385)
(13.0964 0.863062 0.996697)
(12.9259 0.931926 0.548896)
(12.8975 1.0304 0.199827)
(13.0025 1.09041 -0.060753)
(13.1414 1.15503 -0.276872)
(13.346 1.27419 -0.461315)
(13.6068 1.40226 -0.5968)
(13.8466 1.49852 -0.692939)
(14.1019 1.55742 -0.805008)
(14.3862 1.60171 -0.943953)
(14.7781 1.63779 -1.01114)
(15.3056 1.66747 -1.00441)
(15.3816 1.34478 -1.26653)
(39.999 4.59769e-06 0.0602194)
(39.9883 -6.38791e-05 0.180907)
(39.9629 -1.86678e-05 0.302917)
(39.9228 -7.31112e-05 0.426909)
(39.8673 -0.000188906 0.553877)
(39.7976 -0.000225243 0.684683)
(39.714 -0.000172853 0.820107)
(39.6152 -0.00010214 0.960889)
(39.4995 -6.51415e-05 1.10775)
(39.3657 -7.09267e-05 1.26136)
(39.2134 -9.61779e-05 1.42229)
(39.0421 -0.000103187 1.591)
(38.8512 -5.38305e-05 1.76786)
(38.6401 6.85438e-05 1.95317)
(38.4087 0.000261935 2.14712)
(38.158 0.000525996 2.34991)
(37.8897 0.000801772 2.56061)
(37.608 0.00131273 2.77952)
(37.3151 0.00113064 2.99998)
(37.0044 -0.000275372 3.22301)
(36.6589 -0.0025715 3.46084)
(36.2728 -0.00220999 3.75507)
(35.8312 0.00108982 4.07709)
(35.1673 -0.00974148 4.41905)
(34.4218 -0.0258362 4.89651)
(33.6986 -0.0372652 5.54389)
(32.8023 -0.0118736 6.09889)
(31.6163 0.0330232 6.4522)
(30.1786 0.0528441 6.64314)
(28.6275 0.0373605 6.62176)
(27.3376 0.0310598 6.32169)
(26.2508 0.0398672 5.97423)
(25.1419 0.0709984 5.88164)
(24.3841 0.324657 6.61684)
(23.0971 0.89111 8.54834)
(10.0898 0.0830604 2.719)
(9.52115 0.185295 1.21026)
(8.01339 1.05479 0.248176)
(0.83646 0.573443 -1.57604)
(-1.3229 -1.71244 -3.32685)
(-0.0559108 -1.68452 -2.78632)
(1.23869 -1.68591 -1.07084)
(2.24053 -1.44421 -0.487376)
(3.55952 -1.19617 -0.575811)
(5.3861 -1.08636 -1.00308)
(7.28636 -1.13125 -1.43458)
(9.19243 -1.16099 -1.76944)
(11.1829 -1.13376 -2.10571)
(13.1161 -1.13484 -2.47293)
(14.9154 -1.16855 -2.84185)
(16.563 -1.20851 -3.21942)
(18.2489 -1.21185 -3.62349)
(19.8331 -1.2074 -3.99338)
(21.6645 -1.27157 -4.79011)
(39.9991 4.59765e-06 0.0602172)
(39.9883 -6.38796e-05 0.180911)
(39.963 -1.86688e-05 0.302919)
(39.9226 -7.31126e-05 0.426913)
(39.8672 -0.000188894 0.553889)
(39.7977 -0.000225309 0.684699)
(39.7142 -0.000172706 0.820123)
(39.6154 -0.00010309 0.960905)
(39.4996 -6.78205e-05 1.10777)
(39.3658 -7.42257e-05 1.26139)
(39.2134 -9.8493e-05 1.42233)
(39.0422 -0.000103854 1.59105)
(38.8514 -5.40395e-05 1.76791)
(38.6404 6.89092e-05 1.95322)
(38.4092 0.000262314 2.14717)
(38.1586 0.000529553 2.3498)
(37.8906 0.000805596 2.56036)
(37.6083 0.00132778 2.77764)
(37.3127 0.00114269 2.99723)
(37 -0.000286482 3.2218)
(36.6571 -0.00246795 3.46729)
(36.2779 -0.00241906 3.7521)
(35.8574 0.0019417 4.14015)
(35.2593 -0.00771688 4.46898)
(34.4377 -0.0309304 4.88846)
(33.6134 -0.0404185 5.43532)
(32.5247 -0.0191424 5.94161)
(31.3017 0.0215936 6.33623)
(30.1803 0.0431885 6.60479)
(28.9467 0.0275551 6.64368)
(27.6075 0.0264617 6.37683)
(26.4463 0.0394902 5.97309)
(25.4659 0.0749248 5.72703)
(24.3687 0.379215 5.95536)
(24.7214 1.57757 7.56432)
(22.723 2.26259 8.09033)
(21.082 2.01733 6.33811)
(18.6092 2.11594 4.07409)
(16.107 2.06025 2.52956)
(14.3728 2.02127 1.71129)
(12.7156 1.71538 1.11529)
(11.4152 1.38217 0.646272)
(10.715 1.28397 0.331035)
(10.4001 1.29959 0.156267)
(10.3562 1.33236 0.0367348)
(10.4832 1.33101 -0.0899683)
(10.8732 1.36356 -0.201703)
(11.4773 1.45977 -0.317149)
(12.1409 1.53837 -0.422085)
(12.8459 1.55885 -0.535905)
(13.5991 1.53083 -0.695238)
(14.5305 1.51093 -0.901721)
(15.6339 1.50638 -1.0652)
(16.5518 1.3281 -1.52518)
(39.9991 4.21894e-06 0.066594)
(39.9891 -6.2022e-05 0.200017)
(39.9656 -1.5424e-05 0.334999)
(39.9282 -6.8642e-05 0.472341)
(39.8767 -0.00018287 0.613176)
(39.8117 -0.000219411 0.758489)
(39.7338 -0.000168777 0.909175)
(39.6414 -9.93078e-05 1.06608)
(39.5329 -6.17923e-05 1.23001)
(39.407 -6.5446e-05 1.40167)
(39.2631 -8.78707e-05 1.58164)
(39.1005 -9.12422e-05 1.77026)
(38.9186 -4.18714e-05 1.96765)
(38.7164 7.89157e-05 2.17364)
(38.4938 0.000264721 2.38774)
(38.2511 0.000492075 2.60907)
(37.99 0.000712848 2.83623)
(37.7135 0.000923836 3.06809)
(37.425 0.000935744 3.30269)
(37.1266 0.000702226 3.5445)
(36.8188 2.6544e-05 3.80683)
(36.4994 0.00102992 4.12555)
(36.1774 0.00155591 4.52495)
(35.8001 0.0228865 5.05984)
(35.1069 0.0189889 5.69615)
(34.464 -0.00253357 6.3501)
(33.7806 -0.0131925 6.94392)
(32.9328 -0.0064995 7.63429)
(31.7748 0.0367857 8.17691)
(30.2776 0.0813155 8.30553)
(28.4353 0.0815552 7.67329)
(26.5181 0.0563475 6.92982)
(25.1413 0.0416239 6.69484)
(23.7644 0.106646 6.97625)
(24.4291 0.555505 9.78744)
(21.7119 0.496626 10.1613)
(18.5632 0.141037 7.64153)
(15.417 0.112925 5.02055)
(11.9636 -0.248316 2.71935)
(10.0626 -0.815007 0.87122)
(9.29562 -1.35703 -0.62179)
(9.53609 -1.72512 -1.58786)
(10.5426 -1.80511 -2.16214)
(12.0622 -1.71794 -2.59887)
(13.8557 -1.61491 -3.03543)
(15.6968 -1.57423 -3.4401)
(17.4468 -1.536 -3.75706)
(19.0711 -1.47326 -4.00585)
(20.5278 -1.40792 -4.22782)
(21.7933 -1.35843 -4.42945)
(22.8886 -1.31045 -4.61651)
(23.8971 -1.24669 -4.77134)
(24.8432 -1.17167 -4.93213)
(25.4822 -1.13346 -5.12691)
(39.9991 4.21894e-06 0.0665915)
(39.9891 -6.20227e-05 0.200021)
(39.9656 -1.54243e-05 0.334998)
(39.9281 -6.86452e-05 0.472342)
(39.8766 -0.000182856 0.613185)
(39.8118 -0.00021945 0.758501)
(39.7339 -0.000168555 0.909186)
(39.6416 -0.000100127 1.06609)
(39.533 -6.43844e-05 1.23002)
(39.4071 -6.86136e-05 1.40169)
(39.2631 -9.06199e-05 1.58167)
(39.1006 -9.61366e-05 1.77029)
(38.9188 -4.67668e-05 1.96769)
(38.7168 7.65702e-05 2.17368)
(38.4942 0.000259188 2.38776)
(38.2516 0.000485082 2.60905)
(37.9905 0.000710012 2.83614)
(37.7138 0.000923864 3.0677)
(37.4247 0.000948194 3.30272)
(37.1254 0.000698657 3.54533)
(36.8179 8.68431e-05 3.81081)
(36.5013 0.000707802 4.12299)
(36.183 0.00285199 4.53802)
(35.8561 0.0165175 5.03325)
(35.3622 0.0155141 5.66844)
(34.6055 -0.00373753 6.30045)
(33.8095 -0.0226712 7.04333)
(32.5766 -0.0118789 7.59351)
(31.2724 0.0316424 7.90868)
(30.0159 0.0694126 8.03257)
(28.6185 0.080784 7.83897)
(27.0245 0.0524494 7.20097)
(25.4518 0.0411732 6.69266)
(23.9146 0.0327108 6.96661)
(23.3217 0.465288 8.39478)
(24.0182 1.0521 9.42211)
(24.2772 1.30778 8.80931)
(23.5027 1.437 7.39548)
(22.1844 1.44105 5.8529)
(20.7097 1.36615 4.28604)
(19.1719 1.21057 3.0088)
(17.8642 1.05263 2.10014)
(17.0092 0.990475 1.42985)
(16.5924 1.01252 0.906352)
(16.4827 1.05809 0.456862)
(16.6446 1.04487 0.0576499)
(17.0699 1.00172 -0.281581)
(17.702 0.96073 -0.571664)
(18.4177 0.908275 -0.838012)
(19.1623 0.820554 -1.10526)
(19.9335 0.71242 -1.36222)
(20.7977 0.609863 -1.63321)
(21.6696 0.55387 -1.86713)
(22.2816 0.35256 -2.43981)
(39.9991 2.03739e-06 0.0724623)
(39.9901 -6.02172e-05 0.217595)
(39.9686 -1.94001e-05 0.364521)
(39.9346 -7.16809e-05 0.514198)
(39.8875 -0.000180284 0.667902)
(39.828 -0.000213593 0.826747)
(39.7565 -0.000162651 0.991761)
(39.6716 -9.39119e-05 1.16391)
(39.5713 -5.61851e-05 1.34413)
(39.4543 -5.69535e-05 1.53323)
(39.3198 -7.6383e-05 1.73181)
(39.1669 -7.73124e-05 1.94018)
(38.9944 -2.75744e-05 2.15829)
(38.8012 9.46334e-05 2.3856)
(38.5865 0.000279743 2.62095)
(38.3503 0.000507625 2.86251)
(38.0941 0.000720533 3.10774)