/*--------------------------------*- C++ -*----------------------------------*\
| =========                 |                                                 |
| \\      /  F ield         | OpenFOAM: The Open Source CFD Toolbox           |
|  \\    /   O peration     | Version:  4.1                                   |
|   \\  /    A nd           | Web:      www.OpenFOAM.org                      |
|    \\/     M anipulation  |                                                 |
\*---------------------------------------------------------------------------*/
FoamFile
{
    version     2.0;
    format      ascii;
    class       volScalarField;
    location    "21";
    object      p;
}
// * * * * * * * * * * * * * * * * * * * * * * * * * * * * * * * * * * * * * //

dimensions      [0 2 -2 0 0 0 0];

internalField   nonuniform List<scalar> 
4432
(
-1.22359e+10
-1.19264e+10
-2.99036e+09
1.90948e+10
6.0384e+09
-6.86774e+09
-4.35014e+09
-3.74257e+09
-4.11075e+09
-4.64107e+09
-4.81149e+09
-4.97003e+09
-5.2975e+09
-5.71518e+09
-6.14639e+09
-6.42134e+09
-6.38116e+09
-6.30339e+09
-6.31694e+09
-6.40132e+09
-6.47579e+09
-6.54616e+09
-6.60778e+09
-6.6612e+09
-6.7069e+09
-6.74561e+09
-6.77828e+09
-6.80617e+09
-6.83066e+09
-6.85335e+09
-6.87563e+09
-6.89948e+09
-6.92645e+09
-6.95424e+09
-6.97942e+09
-7.00106e+09
-7.01549e+09
-7.0202e+09
-7.01395e+09
-6.99472e+09
-6.9617e+09
-6.91477e+09
-6.85148e+09
-6.77132e+09
-6.6871e+09
-6.61812e+09
-6.56423e+09
-6.54778e+09
-6.64753e+09
-7.04954e+09
-8.25287e+09
-1.10309e+10
-1.42315e+10
-9.4857e+09
-1.06859e+10
-6.96684e+09
-2.05395e+09
3.78197e+09
4.14398e+09
-6.69041e+09
-6.49045e+09
-5.10897e+09
-5.0705e+09
-5.37294e+09
-5.2264e+09
-5.09454e+09
-5.29577e+09
-5.72933e+09
-6.17221e+09
-6.41533e+09
-6.34104e+09
-6.25949e+09
-6.29537e+09
-6.37839e+09
-6.44948e+09
-6.51881e+09
-6.57908e+09
-6.63132e+09
-6.6757e+09
-6.71315e+09
-6.74471e+09
-6.7717e+09
-6.79554e+09
-6.81781e+09
-6.84006e+09
-6.86426e+09
-6.8921e+09
-6.92242e+09
-6.95239e+09
-6.9785e+09
-6.99692e+09
-7.00609e+09
-7.00475e+09
-6.99066e+09
-6.96254e+09
-6.91994e+09
-6.85974e+09
-6.78009e+09
-6.6898e+09
-6.60646e+09
-6.53339e+09
-6.48303e+09
-6.55939e+09
-6.95416e+09
-8.23433e+09
-1.14001e+10
-1.48629e+10
-9.67159e+09
-2.74625e+09
-1.14366e+09
-2.14813e+08
-5.8544e+09
-1.63292e+09
-7.24736e+09
-1.02072e+10
-7.96351e+09
-6.6524e+09
-6.14242e+09
-5.4414e+09
-5.14187e+09
-5.21518e+09
-5.50879e+09
-5.94138e+09
-6.37438e+09
-6.48905e+09
-6.38873e+09
-6.36993e+09
-6.41514e+09
-6.48736e+09
-6.55753e+09
-6.62017e+09
-6.6735e+09
-6.7185e+09
-6.75615e+09
-6.78774e+09
-6.81494e+09
-6.83925e+09
-6.86235e+09
-6.88534e+09
-6.91015e+09
-6.94057e+09
-6.9713e+09
-6.99021e+09
-7.00187e+09
-7.00985e+09
-7.01082e+09
-7.00154e+09
-6.97604e+09
-6.93053e+09
-6.86639e+09
-6.78652e+09
-6.69098e+09
-6.58844e+09
-6.52342e+09
-6.49733e+09
-6.48477e+09
-6.62837e+09
-7.19627e+09
-8.78662e+09
-1.20787e+10
-1.45223e+10
-7.3787e+09
-4.4823e+09
-3.20974e+09
-1.09941e+09
-1.71997e+09
-2.77534e+09
-8.05545e+09
-1.04648e+10
-7.86109e+09
-6.75369e+09
-6.11069e+09
-5.42483e+09
-5.08571e+09
-5.14649e+09
-5.47134e+09
-5.95676e+09
-6.41828e+09
-6.47592e+09
-6.33369e+09
-6.34759e+09
-6.40014e+09
-6.47286e+09
-6.54182e+09
-6.60357e+09
-6.65601e+09
-6.7002e+09
-6.73713e+09
-6.76819e+09
-6.79499e+09
-6.81899e+09
-6.84161e+09
-6.86389e+09
-6.88735e+09
-6.91414e+09
-6.94247e+09
-6.96682e+09
-6.98429e+09
-6.99279e+09
-6.99371e+09
-6.98692e+09
-6.96439e+09
-6.92117e+09
-6.85887e+09
-6.77928e+09
-6.68276e+09
-6.57818e+09
-6.49639e+09
-6.44872e+09
-6.44559e+09
-6.60792e+09
-7.19575e+09
-8.85976e+09
-1.23638e+10
-1.50557e+10
-7.64151e+09
-2.17587e+09
1.72349e+08
2.83635e+09
-6.72844e+09
-3.76321e+09
-5.97586e+09
-8.52769e+09
-8.64268e+09
-7.92102e+09
-6.93772e+09
-5.86675e+09
-5.33404e+09
-5.17888e+09
-5.33104e+09
-5.77908e+09
-6.23815e+09
-6.38984e+09
-6.34903e+09
-6.37274e+09
-6.4242e+09
-6.49586e+09
-6.56528e+09
-6.62766e+09
-6.68043e+09
-6.72481e+09
-6.76213e+09
-6.79422e+09
-6.82289e+09
-6.84917e+09
-6.87387e+09
-6.89707e+09
-6.91759e+09
-6.93922e+09
-6.97164e+09
-6.99616e+09
-6.99945e+09
-7.00534e+09
-7.00123e+09
-6.98272e+09
-6.9385e+09
-6.86842e+09
-6.78201e+09
-6.68599e+09
-6.58049e+09
-6.47954e+09
-6.41387e+09
-6.40317e+09
-6.48561e+09
-6.76906e+09
-7.45737e+09
-9.04781e+09
-1.21298e+10
-1.47961e+10
-7.8488e+09
-1.72041e+09
-1.86968e+09
-3.86123e+08
-6.25151e+08
-4.88623e+09
-7.35725e+09
-8.18444e+09
-7.68745e+09
-7.45005e+09
-6.54038e+09
-5.61774e+09
-5.16476e+09
-5.12109e+09
-5.35428e+09
-5.80213e+09
-6.28199e+09
-6.37684e+09
-6.31534e+09
-6.35498e+09
-6.41741e+09
-6.49341e+09
-6.56482e+09
-6.62857e+09
-6.68282e+09
-6.72866e+09
-6.76743e+09
-6.80091e+09
-6.83093e+09
-6.85886e+09
-6.88532e+09
-6.90966e+09
-6.9312e+09
-6.95297e+09
-6.97807e+09
-6.99874e+09
-7.01318e+09
-7.01969e+09
-7.01547e+09
-6.99564e+09
-6.94847e+09
-6.87331e+09
-6.78068e+09
-6.67595e+09
-6.56038e+09
-6.44425e+09
-6.35837e+09
-6.33477e+09
-6.41381e+09
-6.70477e+09
-7.43451e+09
-9.10834e+09
-1.22522e+10
-1.46631e+10
-7.29205e+09
-2.72514e+09
-3.50276e+09
-2.6543e+09
-2.77713e+09
-5.59718e+09
-6.5072e+09
-7.53118e+09
-7.75778e+09
-7.51867e+09
-6.71506e+09
-5.8183e+09
-5.38779e+09
-5.27816e+09
-5.43143e+09
-5.80935e+09
-6.17745e+09
-6.29964e+09
-6.30715e+09
-6.36162e+09
-6.43237e+09
-6.51e+09
-6.58159e+09
-6.64454e+09
-6.69811e+09
-6.74401e+09
-6.78414e+09
-6.82028e+09
-6.85391e+09
-6.88483e+09
-6.91178e+09
-6.93439e+09
-6.94712e+09
-6.95241e+09
-7.02178e+09
-7.13547e+09
-7.11379e+09
-7.0786e+09
-7.06795e+09
-7.0373e+09
-6.9811e+09
-6.89208e+09
-6.78132e+09
-6.65493e+09
-6.50596e+09
-6.3522e+09
-6.23051e+09
-6.17007e+09
-6.24435e+09
-6.56033e+09
-7.29109e+09
-8.88006e+09
-1.19082e+10
-1.48119e+10
-8.89075e+09
-2.40511e+09
-2.41839e+09
-2.67577e+09
-3.73286e+09
-7.60614e+09
-7.48165e+09
-6.46843e+09
-6.50231e+09
-6.84909e+09
-6.29362e+09
-5.64082e+09
-5.30485e+09
-5.26826e+09
-5.47649e+09
-5.85978e+09
-6.19736e+09
-6.27206e+09
-6.27933e+09
-6.34325e+09
-6.42117e+09
-6.50213e+09
-6.57539e+09
-6.63945e+09
-6.69371e+09
-6.73999e+09
-6.78049e+09
-6.81749e+09
-6.85283e+09
-6.8871e+09
-6.91974e+09
-6.94949e+09
-6.9756e+09
-7.00358e+09
-7.04268e+09
-7.07816e+09
-7.10468e+09
-7.10845e+09
-7.08682e+09
-7.05828e+09
-7.00406e+09
-6.91555e+09
-6.80398e+09
-6.67793e+09
-6.53226e+09
-6.37685e+09
-6.25535e+09
-6.20642e+09
-6.29929e+09
-6.64685e+09
-7.45122e+09
-9.19575e+09
-1.23375e+10
-1.46565e+10
-7.31604e+09
-3.68913e+09
-4.69332e+09
-5.17062e+09
-4.55458e+09
-6.50102e+09
-6.21386e+09
-6.30211e+09
-6.63978e+09
-6.89854e+09
-6.61469e+09
-5.94317e+09
-5.42034e+09
-5.3707e+09
-5.55351e+09
-5.87735e+09
-6.12265e+09
-6.21652e+09
-6.26479e+09
-6.33781e+09
-6.41812e+09
-6.49788e+09
-6.5692e+09
-6.62951e+09
-6.67943e+09
-6.72135e+09
-6.75845e+09
-6.79263e+09
-6.82559e+09
-6.85759e+09
-6.8838e+09
-6.90456e+09
-6.92153e+09
-6.94387e+09
-7.00162e+09
-7.06884e+09
-7.08366e+09
-7.07399e+09
-7.05968e+09
-7.02478e+09
-6.96363e+09
-6.8716e+09
-6.74657e+09
-6.58847e+09
-6.39976e+09
-6.1989e+09
-6.02135e+09
-5.90886e+09
-5.92806e+09
-6.17465e+09
-6.82366e+09
-8.35129e+09
-1.14917e+10
-1.48231e+10
-9.84638e+09
-3.99517e+09
-4.06131e+09
-4.63904e+09
-5.34649e+09
-7.38714e+09
-6.07232e+09
-5.29046e+09
-5.59827e+09
-6.04659e+09
-6.03828e+09
-5.72873e+09
-5.43282e+09
-5.40241e+09
-5.58555e+09
-5.89013e+09
-6.11906e+09
-6.19753e+09
-6.24945e+09
-6.32825e+09
-6.41236e+09
-6.49391e+09
-6.56565e+09
-6.62602e+09
-6.67533e+09
-6.71659e+09
-6.75325e+09
-6.78783e+09
-6.82135e+09
-6.8536e+09
-6.88548e+09
-6.92074e+09
-6.95643e+09
-6.98607e+09
-7.02269e+09
-7.0624e+09
-7.08944e+09
-7.10084e+09
-7.0934e+09
-7.06642e+09
-7.01353e+09
-6.9335e+09
-6.82364e+09
-6.68323e+09
-6.5188e+09
-6.34759e+09
-6.20324e+09
-6.13323e+09
-6.20668e+09
-6.52168e+09
-7.27415e+09
-8.97644e+09
-1.21793e+10
-1.48186e+10
-8.04815e+09
-5.21488e+09
-5.78553e+09
-5.94104e+09
-5.80338e+09
-6.3978e+09
-5.8895e+09
-5.64248e+09
-5.83828e+09
-6.16271e+09
-6.26465e+09
-6.03165e+09
-5.58147e+09
-5.49884e+09
-5.68408e+09
-5.92798e+09
-6.0911e+09
-6.18083e+09
-6.25458e+09
-6.34156e+09
-6.42985e+09
-6.51391e+09
-6.58627e+09
-6.64407e+09
-6.68756e+09
-6.72168e+09
-6.75257e+09
-6.78159e+09
-6.80501e+09
-6.82736e+09
-6.85301e+09
-6.88261e+09
-6.91788e+09
-6.95985e+09
-7.00413e+09
-7.03051e+09
-7.04205e+09
-7.04697e+09
-7.03799e+09
-7.00608e+09
-6.94677e+09
-6.85495e+09
-6.72592e+09
-6.55813e+09
-6.35833e+09
-6.14702e+09
-5.95643e+09
-5.83257e+09
-5.84017e+09
-6.05936e+09
-6.64627e+09
-8.09838e+09
-1.1309e+10
-1.50226e+10
-1.08542e+10
-5.75095e+09
-5.70048e+09
-5.66333e+09
-5.43722e+09
-6.42058e+09
-5.5889e+09
-5.24616e+09
-5.58832e+09
-5.8719e+09
-5.9408e+09
-5.76157e+09
-5.52225e+09
-5.50479e+09
-5.68936e+09
-5.92007e+09
-6.07803e+09
-6.16573e+09
-6.24566e+09
-6.33702e+09
-6.4281e+09
-6.5129e+09
-6.58549e+09
-6.64362e+09
-6.6884e+09
-6.72401e+09
-6.75499e+09
-6.78386e+09
-6.81169e+09
-6.83963e+09
-6.86759e+09
-6.90025e+09
-6.93765e+09
-6.97174e+09
-7.00623e+09
-7.03802e+09
-7.05891e+09
-7.07093e+09
-7.06869e+09
-7.04403e+09
-6.99371e+09
-6.91576e+09
-6.80431e+09
-6.65908e+09
-6.48781e+09
-6.31148e+09
-6.16303e+09
-6.09027e+09
-6.15598e+09
-6.44234e+09
-7.11922e+09
-8.68616e+09
-1.18488e+10
-1.50005e+10
-9.44898e+09
-6.18447e+09
-6.6338e+09
-6.42796e+09
-6.32663e+09
-5.96764e+09
-5.61216e+09
-5.50984e+09
-5.66605e+09
-5.9679e+09
-6.14917e+09
-5.9071e+09
-5.617e+09
-5.62086e+09
-5.78358e+09
-5.94154e+09
-6.05895e+09
-6.15104e+09
-6.24189e+09
-6.34173e+09
-6.44159e+09
-6.5343e+09
-6.61007e+09
-6.66499e+09
-6.70107e+09
-6.72648e+09
-6.74746e+09
-6.76631e+09
-6.78633e+09
-6.81048e+09
-6.83788e+09
-6.87044e+09
-6.91211e+09
-6.9624e+09
-7.00827e+09
-7.03656e+09
-7.05452e+09
-7.06514e+09
-7.06241e+09
-7.04046e+09
-6.99262e+09
-6.91289e+09
-6.79875e+09
-6.65237e+09
-6.48387e+09
-6.3136e+09
-6.17585e+09
-6.12149e+09
-6.21282e+09
-6.51637e+09
-7.15513e+09
-8.52423e+09
-1.12909e+10
-1.44316e+10
-9.31381e+09
-6.67517e+09
-6.61809e+09
-6.50657e+09
-5.56536e+09
-5.26831e+09
-5.1769e+09
-5.54648e+09
-5.86176e+09
-6.01374e+09
-5.95649e+09
-5.73253e+09
-5.58134e+09
-5.6244e+09
-5.78084e+09
-5.93451e+09
-6.04841e+09
-6.14073e+09
-6.2348e+09
-6.33604e+09
-6.43629e+09
-6.52808e+09
-6.6035e+09
-6.65924e+09
-6.69734e+09
-6.72298e+09
-6.74259e+09
-6.76222e+09
-6.785e+09
-6.81159e+09
-6.84087e+09
-6.87244e+09
-6.90733e+09
-6.9487e+09
-6.98834e+09
-7.01763e+09
-7.03773e+09
-7.04861e+09
-7.04509e+09
-7.02216e+09
-6.97491e+09
-6.89779e+09
-6.78801e+09
-6.64838e+09
-6.48969e+09
-6.33406e+09
-6.21535e+09
-6.18424e+09
-6.30134e+09
-6.6331e+09
-7.30926e+09
-8.72524e+09
-1.15109e+10
-1.43765e+10
-8.14039e+09
-6.59745e+09
-6.8064e+09
-6.70046e+09
-6.459e+09
-5.718e+09
-5.09358e+09
-5.13128e+09
-5.48381e+09
-5.94013e+09
-6.1715e+09
-5.91349e+09
-5.70638e+09
-5.72649e+09
-5.83081e+09
-5.9357e+09
-6.02905e+09
-6.12156e+09
-6.2232e+09
-6.33422e+09
-6.44709e+09
-6.54881e+09
-6.62652e+09
-6.67461e+09
-6.69796e+09
-6.70619e+09
-6.71033e+09
-6.71741e+09
-6.73195e+09
-6.75504e+09
-6.78053e+09
-6.81325e+09
-6.86143e+09
-6.90492e+09
-6.93958e+09
-6.96774e+09
-6.99233e+09
-7.00858e+09
-7.00799e+09
-6.98594e+09
-6.93767e+09
-6.85929e+09
-6.75047e+09
-6.6149e+09
-6.46418e+09
-6.32244e+09
-6.22885e+09
-6.23857e+09
-6.41747e+09
-6.83191e+09
-7.60566e+09
-9.10801e+09
-1.17459e+10
-1.37402e+10
-7.16562e+09
-6.87909e+09
-6.80049e+09
-6.85794e+09
-6.09724e+09
-4.99352e+09
-4.61464e+09
-5.17195e+09
-5.5801e+09
-5.83535e+09
-5.92977e+09
-5.79666e+09
-5.70188e+09
-5.73755e+09
-5.83651e+09
-5.93558e+09
-6.02687e+09
-6.12006e+09
-6.22224e+09
-6.3333e+09
-6.44522e+09
-6.54659e+09
-6.62452e+09
-6.67308e+09
-6.69606e+09
-6.70268e+09
-6.70466e+09
-6.71081e+09
-6.72442e+09
-6.74927e+09
-6.78161e+09
-6.81354e+09
-6.85126e+09
-6.89146e+09
-6.92726e+09
-6.95676e+09
-6.98171e+09
-6.99669e+09
-6.99341e+09
-6.96811e+09
-6.91696e+09
-6.83557e+09
-6.72437e+09
-6.58728e+09
-6.4363e+09
-6.29605e+09
-6.20594e+09
-6.22105e+09
-6.40533e+09
-6.82415e+09
-7.60296e+09
-9.1151e+09
-1.18024e+10
-1.38626e+10
-7.11698e+09
-6.4756e+09
-6.41895e+09
-6.49557e+09
-6.33816e+09
-5.82096e+09
-5.07038e+09
-5.03991e+09
-5.49737e+09
-5.93356e+09
-6.00412e+09
-5.8389e+09
-5.75818e+09
-5.7878e+09
-5.85923e+09
-5.94044e+09
-6.02612e+09
-6.1226e+09
-6.23464e+09
-6.36051e+09
-6.49151e+09
-6.60981e+09
-6.69597e+09
-6.73698e+09
-6.73885e+09
-6.72123e+09
-6.70464e+09
-6.69843e+09
-6.70506e+09
-6.72777e+09
-6.75981e+09
-6.79274e+09
-6.83682e+09
-6.88311e+09
-6.92224e+09
-6.95622e+09
-6.98129e+09
-6.99205e+09
-6.98325e+09
-6.94993e+09
-6.88604e+09
-6.78679e+09
-6.65147e+09
-6.48477e+09
-6.29961e+09
-6.12152e+09
-5.99176e+09
-5.9669e+09
-6.11449e+09
-6.50322e+09
-7.25435e+09
-8.73284e+09
-1.14424e+10
-1.37934e+10
-7.65939e+09
-6.41724e+09
-6.34252e+09
-6.55129e+09
-6.32649e+09
-5.37942e+09
-4.78468e+09
-5.10385e+09
-5.46418e+09
-5.67996e+09
-5.78094e+09
-5.76311e+09
-5.75851e+09
-5.79531e+09
-5.86409e+09
-5.9407e+09
-6.02529e+09
-6.12166e+09
-6.23322e+09
-6.35864e+09
-6.48899e+09
-6.60795e+09
-6.69425e+09
-6.73488e+09
-6.73558e+09
-6.71635e+09
-6.69716e+09
-6.68753e+09
-6.6906e+09
-6.71411e+09
-6.75364e+09
-6.78778e+09
-6.82839e+09
-6.87123e+09
-6.91061e+09
-6.94755e+09
-6.97421e+09
-6.98505e+09
-6.9757e+09
-6.94101e+09
-6.8758e+09
-6.77548e+09
-6.63904e+09
-6.47102e+09
-6.28495e+09
-6.10647e+09
-5.97638e+09
-5.9501e+09
-6.0918e+09
-6.46669e+09
-7.19284e+09
-8.64028e+09
-1.13837e+10
-1.39834e+10
-7.79061e+09
-5.83705e+09
-5.78913e+09
-5.83765e+09
-6.04567e+09
-6.14525e+09
-5.63076e+09
-5.40733e+09
-5.64662e+09
-5.81566e+09
-5.76894e+09
-5.76005e+09
-5.78251e+09
-5.82471e+09
-5.88548e+09
-5.95852e+09
-6.04395e+09
-6.14661e+09
-6.27014e+09
-6.41495e+09
-6.57071e+09
-6.71748e+09
-6.82112e+09
-6.85044e+09
-6.8092e+09
-6.74403e+09
-6.69349e+09
-6.66842e+09
-6.66784e+09
-6.68983e+09
-6.73168e+09
-6.78587e+09
-6.84524e+09
-6.90296e+09
-6.95468e+09
-6.9992e+09
-7.0306e+09
-7.04268e+09
-7.03058e+09
-6.98843e+09
-6.90905e+09
-6.7862e+09
-6.61773e+09
-6.40752e+09
-6.16872e+09
-5.92752e+09
-5.72604e+09
-5.62181e+09
-5.68106e+09
-5.97148e+09
-6.62229e+09
-8.04867e+09
-1.09819e+10
-1.43864e+10
-1.06587e+10
-5.60906e+09
-5.65553e+09
-5.95347e+09
-6.28828e+09
-6.08644e+09
-5.68217e+09
-5.36496e+09
-5.43335e+09
-5.57815e+09
-5.68346e+09
-5.74415e+09
-5.78444e+09
-5.8257e+09
-5.88538e+09
-5.95612e+09
-6.04133e+09
-6.14401e+09
-6.26755e+09
-6.41141e+09
-6.56725e+09
-6.71422e+09
-6.81858e+09
-6.84885e+09
-6.81038e+09
-6.74793e+09
-6.69843e+09
-6.67224e+09
-6.66992e+09
-6.69494e+09
-6.74125e+09
-6.79134e+09
-6.84598e+09
-6.90154e+09
-6.95262e+09
-6.99945e+09
-7.03403e+09
-7.04868e+09
-7.03872e+09
-6.99868e+09
-6.92209e+09
-6.8035e+09
-6.64103e+09
-6.43863e+09
-6.20944e+09
-5.97947e+09
-5.78993e+09
-5.69609e+09
-5.76071e+09
-6.05019e+09
-6.69827e+09
-8.12562e+09
-1.10409e+10
-1.42535e+10
-9.45911e+09
-5.16304e+09
-5.2291e+09
-5.29763e+09
-5.99227e+09
-6.40275e+09
-6.15713e+09
-5.83785e+09
-5.71004e+09
-5.69185e+09
-5.73091e+09
-5.7802e+09
-5.8192e+09
-5.86016e+09
-5.91404e+09
-5.9823e+09
-6.06765e+09
-6.1746e+09
-6.30866e+09
-6.47231e+09
-6.65888e+09
-6.84775e+09
-6.98791e+09
-7.00466e+09
-6.88607e+09
-6.72661e+09
-6.6155e+09
-6.56183e+09
-6.55462e+09
-6.58407e+09
-6.64383e+09
-6.72119e+09
-6.80144e+09
-6.87751e+09
-6.94746e+09
-7.00908e+09
-7.05616e+09
-7.08191e+09
-7.08113e+09
-7.04762e+09
-6.97371e+09
-6.85304e+09
-6.68289e+09
-6.46692e+09
-6.21883e+09
-5.9661e+09
-5.75315e+09
-5.6412e+09
-5.70083e+09
-6.00991e+09
-6.74646e+09
-8.41145e+09
-1.15341e+10
-1.40711e+10
-8.29479e+09
-4.92679e+09
-5.20059e+09
-5.64763e+09
-6.25881e+09
-6.52086e+09
-6.09297e+09
-5.57765e+09
-5.56941e+09
-5.65128e+09
-5.71848e+09
-5.77518e+09
-5.8203e+09
-5.86198e+09
-5.91539e+09
-5.98327e+09
-6.0694e+09
-6.17801e+09
-6.313e+09
-6.47603e+09
-6.66134e+09
-6.84822e+09
-6.98622e+09
-7.00051e+09
-6.88129e+09
-6.7236e+09
-6.61538e+09
-6.56296e+09
-6.5574e+09
-6.59072e+09
-6.6515e+09
-6.72584e+09
-6.80301e+09
-6.87826e+09
-6.94829e+09
-7.01121e+09
-7.06012e+09
-7.08756e+09
-7.08832e+09
-7.05658e+09
-6.98508e+09
-6.86788e+09
-6.70257e+09
-6.49294e+09
-6.25232e+09
-6.0077e+09
-5.80296e+09
-5.69815e+09
-5.7618e+09
-6.07169e+09
-6.81308e+09
-8.52935e+09
-1.17169e+10
-1.39209e+10
-7.1262e+09
-4.87676e+09
-5.07578e+09
-5.41441e+09
-6.04883e+09
-6.2663e+09
-6.16387e+09
-5.96938e+09
-5.8311e+09
-5.78421e+09
-5.79253e+09
-5.82196e+09
-5.86011e+09
-5.89927e+09
-5.94588e+09
-6.00754e+09
-6.08912e+09
-6.19782e+09
-6.34036e+09
-6.52253e+09
-6.74655e+09
-7.00017e+09
-7.22553e+09
-7.28099e+09
-7.06473e+09
-6.75447e+09
-6.55982e+09
-6.47747e+09
-6.4678e+09
-6.51044e+09
-6.58521e+09
-6.67681e+09
-6.76965e+09
-6.85585e+09
-6.93308e+09
-6.99877e+09
-7.04837e+09
-7.07612e+09
-7.07645e+09
-7.04319e+09
-6.9693e+09
-6.84893e+09
-6.67983e+09
-6.4669e+09
-6.22617e+09
-5.98805e+09
-5.79977e+09
-5.72558e+09
-5.83929e+09
-6.22324e+09
-7.04961e+09
-8.77313e+09
-1.1775e+10
-1.38813e+10
-7.13472e+09
-4.80082e+09
-5.27784e+09
-5.7875e+09
-6.19583e+09
-6.21127e+09
-5.93589e+09
-5.80741e+09
-5.78708e+09
-5.78602e+09
-5.80186e+09
-5.82902e+09
-5.86527e+09
-5.90398e+09
-5.94993e+09
-6.01147e+09
-6.09435e+09
-6.20611e+09
-6.35174e+09
-6.5353e+09
-6.75713e+09
-7.00594e+09
-7.22594e+09
-7.27746e+09
-7.05205e+09
-6.7416e+09
-6.55106e+09
-6.47213e+09
-6.46607e+09
-6.51357e+09
-6.58946e+09
-6.6788e+09
-6.76967e+09
-6.85484e+09
-6.9313e+09
-6.99639e+09
-7.0453e+09
-7.07192e+09
-7.07045e+09
-7.03466e+09
-6.95747e+09
-6.83313e+09
-6.65976e+09
-6.44259e+09
-6.19682e+09
-5.95151e+09
-5.75372e+09
-5.66652e+09
-5.76036e+09
-6.11357e+09
-6.894e+09
-8.54579e+09
-1.15442e+10
-1.40309e+10
-8.19698e+09
-5.01768e+09
-5.24657e+09
-5.75533e+09
-6.02034e+09
-5.97721e+09
-5.91506e+09
-5.88587e+09
-5.86373e+09
-5.85025e+09
-5.85469e+09
-5.8696e+09
-5.89373e+09
-5.92335e+09
-5.961e+09
-6.0154e+09
-6.09358e+09
-6.20744e+09
-6.36676e+09
-6.57777e+09
-6.84844e+09
-7.1873e+09
-7.57005e+09
-7.78636e+09
-7.43005e+09
-6.79567e+09
-6.41681e+09
-6.30004e+09
-6.31733e+09
-6.40541e+09
-6.51221e+09
-6.6226e+09
-6.72613e+09
-6.81761e+09
-6.89417e+09
-6.95407e+09
-6.99463e+09
-7.0112e+09
-6.99827e+09
-6.94967e+09
-6.85843e+09
-6.71877e+09
-6.52907e+09
-6.29603e+09
-6.03853e+09
-5.79029e+09
-5.60113e+09
-5.53591e+09
-5.66693e+09
-6.07391e+09
-6.91721e+09
-8.61231e+09
-1.15832e+10
-1.37466e+10
-7.10178e+09
-5.06617e+09
-5.53636e+09
-5.87818e+09
-5.98359e+09
-5.85517e+09
-5.80253e+09
-5.82969e+09
-5.84527e+09
-5.8542e+09
-5.86415e+09
-5.87892e+09
-5.90069e+09
-5.92844e+09
-5.96436e+09
-6.01773e+09
-6.09691e+09
-6.21483e+09
-6.38143e+09
-6.59734e+09
-6.86526e+09
-7.19094e+09
-7.55743e+09
-7.77597e+09
-7.39986e+09
-6.76013e+09
-6.39289e+09
-6.28872e+09
-6.31421e+09
-6.40878e+09
-6.5188e+09
-6.63007e+09
-6.73513e+09
-6.82845e+09
-6.90666e+09
-6.96828e+09
-7.01099e+09
-7.02954e+09
-7.01797e+09
-6.96996e+09
-6.87851e+09
-6.73778e+09
-6.54636e+09
-6.311e+09
-6.04934e+09
-5.79325e+09
-5.5923e+09
-5.51085e+09
-5.62046e+09
-6.00413e+09
-6.83705e+09
-8.59175e+09
-1.1682e+10
-1.36693e+10
-6.89989e+09
-5.2663e+09
-5.42512e+09
-5.81189e+09
-5.83877e+09
-5.8018e+09
-5.80609e+09
-5.84318e+09
-5.87388e+09
-5.89883e+09
-5.92188e+09
-5.94575e+09
-5.97455e+09
-6.00846e+09
-6.05012e+09
-6.10968e+09
-6.19719e+09
-6.32922e+09
-6.52067e+09
-6.76811e+09
-7.07947e+09
-7.48583e+09
-8.04696e+09
-8.67957e+09
-8.37884e+09
-7.16554e+09
-5.91537e+09
-5.90198e+09
-6.08645e+09
-6.28607e+09
-6.45345e+09
-6.59715e+09
-6.71949e+09
-6.82281e+09
-6.90683e+09
-6.97128e+09
-7.01415e+09
-7.03124e+09
-7.0172e+09
-6.96549e+09
-6.86896e+09
-6.72217e+09
-6.52475e+09
-6.28539e+09
-6.02503e+09
-5.77874e+09
-5.59782e+09
-5.54777e+09
-5.69895e+09
-6.12591e+09
-6.97801e+09
-8.65771e+09
-1.15182e+10
-1.35589e+10
-6.98673e+09
-5.3123e+09
-5.62372e+09
-5.79562e+09
-5.76414e+09
-5.72066e+09
-5.76352e+09
-5.82182e+09
-5.86532e+09
-5.89565e+09
-5.91926e+09
-5.9413e+09
-5.96558e+09
-5.99396e+09
-6.03049e+09
-6.08664e+09
-6.17396e+09
-6.31203e+09
-6.52529e+09
-6.7964e+09
-7.11648e+09
-7.49661e+09
-7.9826e+09
-8.66765e+09
-8.38368e+09
-7.13597e+09
-5.8637e+09
-5.88499e+09
-6.07856e+09
-6.28071e+09
-6.44775e+09
-6.59007e+09
-6.71096e+09
-6.81235e+09
-6.89398e+09
-6.95662e+09
-6.99817e+09
-7.01347e+09
-6.99675e+09
-6.9414e+09
-6.84027e+09
-6.68788e+09
-6.48417e+09
-6.23796e+09
-5.96874e+09
-5.70992e+09
-5.51181e+09
-5.43865e+09
-5.55964e+09
-5.94905e+09
-6.76044e+09
-8.40776e+09
-1.13345e+10
-1.36369e+10
-7.2222e+09
-5.50783e+09
-5.5888e+09
-5.74389e+09
-5.72969e+09
-5.74202e+09
-5.79094e+09
-5.84828e+09
-5.90053e+09
-5.94554e+09
-5.98513e+09
-6.02128e+09
-6.05621e+09
-6.09188e+09
-6.13123e+09
-6.18425e+09
-6.26248e+09
-6.38271e+09
-6.56663e+09
-6.81277e+09
-7.12226e+09
-7.53422e+09
-8.16804e+09
-8.92376e+09
-9.48485e+09
-9.6603e+09
-4.37759e+09
-5.32873e+09
-5.85301e+09
-6.18605e+09
-6.40913e+09
-6.58231e+09
-6.72082e+09
-6.83494e+09
-6.92778e+09
-6.99969e+09
-7.04792e+09
-7.06799e+09
-7.05427e+09
-6.99965e+09
-6.89673e+09
-6.7406e+09
-6.53174e+09
-6.27899e+09
-6.00253e+09
-5.7374e+09
-5.5348e+09
-5.45809e+09
-5.57404e+09
-5.94858e+09
-6.70846e+09
-8.24491e+09
-1.11075e+10
-1.38211e+10
-8.06568e+09
-5.57876e+09
-5.64579e+09
-5.71816e+09
-5.68936e+09
-5.70623e+09
-5.76688e+09
-5.82842e+09
-5.88432e+09
-5.93197e+09
-5.97279e+09
-6.00869e+09
-6.04241e+09
-6.07667e+09
-6.11502e+09
-6.16743e+09
-6.2461e+09
-6.37047e+09
-6.57483e+09
-6.85325e+09
-7.19822e+09
-7.58975e+09
-8.05967e+09
-8.7211e+09
-9.516e+09
-9.24914e+09
-4.42007e+09
-5.3095e+09
-5.82544e+09
-6.1575e+09
-6.37958e+09
-6.5507e+09
-6.68594e+09
-6.7964e+09
-6.88621e+09
-6.95563e+09
-7.00129e+09
-7.01872e+09
-7.00254e+09
-6.94587e+09
-6.84176e+09
-6.68584e+09
-6.47943e+09
-6.23209e+09
-5.96378e+09
-5.70886e+09
-5.5172e+09
-5.45243e+09
-5.58324e+09
-5.98196e+09
-6.80922e+09
-8.53101e+09
-1.15607e+10
-1.36471e+10
-6.84897e+09
-5.79269e+09
-5.76336e+09
-5.75971e+09
-5.74926e+09
-5.76893e+09
-5.80778e+09
-5.85538e+09
-5.91016e+09
-5.96391e+09
-6.01238e+09
-6.05518e+09
-6.09446e+09
-6.13238e+09
-6.17259e+09
-6.22292e+09
-6.29236e+09
-6.39654e+09
-6.56043e+09
-6.79132e+09
-7.0874e+09
-7.50346e+09
-8.20549e+09
-9.11499e+09
-9.32385e+09
-2.97657e+09
-5.33606e+09
-5.85927e+09
-6.19278e+09
-6.41942e+09
-6.59373e+09
-6.73206e+09
-6.8456e+09
-6.93753e+09
-7.00707e+09
-7.05065e+09
-7.06307e+09
-7.03781e+09
-6.96724e+09
-6.84431e+09
-6.66463e+09
-6.42851e+09
-6.14341e+09
-5.82857e+09
-5.52025e+09
-5.27029e+09
-5.13871e+09
-5.18906e+09
-5.48251e+09
-6.12505e+09
-7.48609e+09
-1.02998e+10
-1.37661e+10
-9.83774e+09
-5.8824e+09
-5.75646e+09
-5.74834e+09
-5.72922e+09
-5.75219e+09
-5.79525e+09
-5.84452e+09
-5.89894e+09
-5.95224e+09
-6.00236e+09
-6.04751e+09
-6.08818e+09
-6.12581e+09
-6.16347e+09
-6.20943e+09
-6.27503e+09
-6.37777e+09
-6.54951e+09
-6.8043e+09
-7.12515e+09
-7.53117e+09
-8.15262e+09
-9.00748e+09
-9.33306e+09
-3.43644e+09
-5.31964e+09
-5.81801e+09
-6.14263e+09
-6.36648e+09
-6.538e+09
-6.6731e+09
-6.78356e+09
-6.87233e+09
-6.93904e+09
-6.98082e+09
-6.99292e+09
-6.96926e+09
-6.90307e+09
-6.7883e+09
-6.62186e+09
-6.40552e+09
-6.14808e+09
-5.87004e+09
-5.60822e+09
-5.41347e+09
-5.34736e+09
-5.47637e+09
-5.86648e+09
-6.66119e+09
-8.30267e+09
-1.13035e+10
-1.38815e+10
-8.05797e+09
-5.95738e+09
-5.86151e+09
-5.84008e+09
-5.8338e+09
-5.84697e+09
-5.87338e+09
-5.91196e+09
-5.96064e+09
-6.0144e+09
-6.06762e+09
-6.11609e+09
-6.15902e+09
-6.19695e+09
-6.23371e+09
-6.27843e+09
-6.34156e+09
-6.43354e+09
-6.57036e+09
-6.76349e+09
-7.02067e+09
-7.39423e+09
-7.96303e+09
-8.53477e+09
-8.81004e+09
-7.16095e+09
-5.88961e+09
-5.89336e+09
-6.08546e+09
-6.29177e+09
-6.46794e+09
-6.61605e+09
-6.7405e+09
-6.84563e+09
-6.93189e+09
-6.99678e+09
-7.03584e+09
-7.0433e+09
-7.01234e+09
-6.93584e+09
-6.80794e+09
-6.62525e+09
-6.3879e+09
-6.1029e+09
-5.79077e+09
-5.49078e+09
-5.25624e+09
-5.1453e+09
-5.2197e+09
-5.53823e+09
-6.21128e+09
-7.62475e+09
-1.04584e+10
-1.34344e+10
-8.33421e+09
-5.96844e+09
-5.85379e+09
-5.83518e+09
-5.82922e+09
-5.84582e+09
-5.87551e+09
-5.91698e+09
-5.96666e+09
-6.01959e+09
-6.0726e+09
-6.12229e+09
-6.16725e+09
-6.20774e+09
-6.24595e+09
-6.28834e+09
-6.34515e+09
-6.42876e+09
-6.56008e+09
-6.75597e+09
-7.02058e+09
-7.39184e+09
-7.93749e+09
-8.50553e+09
-8.89717e+09
-7.52859e+09
-5.88209e+09
-5.85424e+09
-6.04438e+09
-6.25122e+09
-6.42935e+09
-6.57955e+09
-6.70359e+09
-6.80684e+09
-6.89082e+09
-6.95361e+09
-6.99131e+09
-6.99842e+09
-6.96862e+09
-6.89564e+09
-6.77454e+09
-6.60287e+09
-6.38175e+09
-6.11932e+09
-5.83748e+09
-5.57597e+09
-5.38744e+09
-5.33192e+09
-5.4741e+09
-5.8784e+09
-6.67916e+09
-8.28685e+09
-1.11548e+10
-1.33568e+10
-6.77372e+09
-5.98054e+09
-5.91684e+09
-5.90927e+09
-5.90832e+09
-5.92039e+09
-5.94414e+09
-5.97914e+09
-6.02216e+09
-6.07106e+09
-6.12203e+09
-6.17037e+09
-6.21305e+09
-6.24953e+09
-6.2825e+09
-6.31934e+09
-6.36957e+09
-6.44074e+09
-6.54227e+09
-6.68484e+09
-6.88068e+09
-7.15588e+09
-7.50409e+09
-7.70821e+09
-7.40059e+09
-6.79898e+09
-6.42714e+09
-6.31541e+09
-6.33204e+09
-6.42247e+09
-6.5322e+09
-6.64322e+09
-6.74625e+09
-6.83813e+09
-6.91574e+09
-6.97467e+09
-7.00934e+09
-7.01356e+09
-6.98083e+09
-6.90518e+09
-6.78209e+09
-6.60876e+09
-6.38559e+09
-6.12011e+09
-5.83451e+09
-5.57065e+09
-5.38422e+09
-5.33346e+09
-5.4791e+09
-5.87993e+09
-6.64576e+09
-8.13765e+09
-1.08249e+10
-1.30837e+10
-6.92306e+09
-5.96333e+09
-5.91033e+09
-5.90123e+09
-5.90152e+09
-5.91497e+09
-5.94058e+09
-5.97867e+09
-6.02519e+09
-6.07667e+09
-6.12967e+09
-6.18059e+09
-6.22699e+09
-6.26846e+09
-6.30682e+09
-6.34656e+09
-6.39511e+09
-6.46262e+09
-6.56216e+09
-6.70668e+09
-6.90686e+09
-7.18347e+09
-7.52579e+09
-7.71734e+09
-7.40026e+09
-6.77948e+09
-6.38713e+09
-6.27452e+09
-6.29869e+09
-6.39399e+09
-6.50807e+09
-6.62324e+09
-6.72782e+09
-6.81936e+09
-6.89568e+09
-6.95268e+09
-6.98496e+09
-6.98645e+09
-6.95098e+09
-6.87304e+09
-6.74832e+09
-6.57406e+09
-6.35091e+09
-6.08725e+09
-5.80563e+09
-5.54723e+09
-5.36656e+09
-5.3221e+09
-5.47463e+09
-5.88194e+09
-6.65425e+09
-8.14713e+09
-1.08346e+10
-1.30775e+10
-6.55293e+09
-6.0015e+09
-5.96554e+09
-5.96135e+09
-5.96255e+09
-5.97682e+09
-6.00039e+09
-6.03398e+09
-6.0757e+09
-6.12309e+09
-6.17306e+09
-6.2217e+09
-6.26501e+09
-6.30219e+09
-6.3369e+09
-6.37494e+09
-6.42231e+09
-6.48456e+09
-6.56731e+09
-6.67801e+09
-6.82521e+09
-7.01097e+09
-7.19324e+09
-7.24397e+09
-7.05977e+09
-6.77845e+09
-6.59113e+09
-6.50905e+09
-6.49735e+09
-6.53828e+09
-6.60772e+09
-6.6893e+09
-6.77257e+09
-6.85101e+09
-6.91884e+09
-6.96984e+09
-6.9972e+09
-6.99434e+09
-6.955e+09
-6.87376e+09
-6.74614e+09
-6.56906e+09
-6.3425e+09
-6.07354e+09
-5.78392e+09
-5.51561e+09
-5.32515e+09
-5.27073e+09
-5.41008e+09
-5.79809e+09
-6.53976e+09
-7.97857e+09
-1.05661e+10
-1.26603e+10
-6.39846e+09
-5.99866e+09
-5.96098e+09
-5.95683e+09
-5.95725e+09
-5.97097e+09
-5.99484e+09
-6.02996e+09
-6.07411e+09
-6.12399e+09
-6.17628e+09
-6.22764e+09
-6.2747e+09
-6.31689e+09
-6.35676e+09
-6.39814e+09
-6.44568e+09
-6.50652e+09
-6.58979e+09
-6.7039e+09
-6.85591e+09
-7.04455e+09
-7.22396e+09
-7.26532e+09
-7.06271e+09
-6.76136e+09
-6.56683e+09
-6.49142e+09
-6.48883e+09
-6.53559e+09
-6.61016e+09
-6.69672e+09
-6.78355e+09
-6.86414e+09
-6.93294e+09
-6.98378e+09
-7.00987e+09
-7.00454e+09
-6.96161e+09
-6.87552e+09
-6.74129e+09
-6.55508e+09
-6.31647e+09
-6.03273e+09
-5.72486e+09
-5.4327e+09
-5.21071e+09
-5.11611e+09
-5.20324e+09
-5.51935e+09
-6.15857e+09
-7.44737e+09
-9.95218e+09
-1.25711e+10
-7.32423e+09
-6.04509e+09
-6.01165e+09
-6.01184e+09
-6.01427e+09
-6.02731e+09
-6.04827e+09
-6.07864e+09
-6.1171e+09
-6.16145e+09
-6.20919e+09
-6.25675e+09
-6.29935e+09
-6.33518e+09
-6.36853e+09
-6.4053e+09
-6.44838e+09
-6.50162e+09
-6.56929e+09
-6.65648e+09
-6.76735e+09
-6.89303e+09
-6.9949e+09
-7.00763e+09
-6.90953e+09
-6.77075e+09
-6.66705e+09
-6.6134e+09
-6.60359e+09
-6.63038e+09
-6.68322e+09
-6.75024e+09
-6.82313e+09
-6.89519e+09
-6.95902e+09
-7.00717e+09
-7.03213e+09
-7.02703e+09
-6.98572e+09
-6.90284e+09
-6.77341e+09
-6.59331e+09
-6.36142e+09
-6.08387e+09
-5.78094e+09
-5.49359e+09
-5.27943e+09
-5.19681e+09
-5.29845e+09
-5.63463e+09
-6.3189e+09
-7.70282e+09
-1.02499e+10
-1.24475e+10
-6.53134e+09
-6.04445e+09
-6.01079e+09
-6.01151e+09
-6.01328e+09
-6.02552e+09
-6.04621e+09
-6.07759e+09
-6.11826e+09
-6.16511e+09
-6.21501e+09
-6.26472e+09
-6.31027e+09
-6.35042e+09
-6.38801e+09
-6.42708e+09
-6.47086e+09
-6.52429e+09
-6.59435e+09
-6.68676e+09
-6.80276e+09
-6.9309e+09
-7.03069e+09
-7.03556e+09
-6.92669e+09
-6.77888e+09
-6.67606e+09
-6.63224e+09
-6.63281e+09
-6.66595e+09
-6.72416e+09
-6.79616e+09
-6.873e+09
-6.9481e+09
-7.01396e+09
-7.0629e+09
-7.0872e+09
-7.07972e+09
-7.03402e+09
-6.94405e+09
-6.80373e+09
-6.6078e+09
-6.35422e+09
-6.04837e+09
-5.70905e+09
-5.37419e+09
-5.09813e+09
-4.93712e+09
-4.93838e+09
-5.13955e+09
-5.63664e+09
-6.77001e+09
-9.20534e+09
-1.20814e+10
-7.54115e+09
-6.08832e+09
-6.06274e+09
-6.0656e+09
-6.06906e+09
-6.08181e+09
-6.10142e+09
-6.12949e+09
-6.16521e+09
-6.20685e+09
-6.25199e+09
-6.29708e+09
-6.33735e+09
-6.3702e+09
-6.39903e+09
-6.43e+09
-6.46671e+09
-6.51097e+09
-6.56488e+09
-6.63232e+09
-6.71322e+09
-6.7962e+09
-6.85527e+09
-6.86096e+09
-6.8124e+09
-6.74306e+09
-6.68798e+09
-6.66058e+09
-6.66161e+09
-6.68893e+09
-6.73834e+09
-6.80181e+09
-6.87215e+09
-6.94321e+09
-7.0075e+09
-7.05706e+09
-7.08421e+09
-7.08201e+09
-7.04439e+09
-6.96595e+09
-6.84158e+09
-6.66617e+09
-6.43704e+09
-6.15976e+09
-5.85489e+09
-5.56432e+09
-5.3466e+09
-5.26057e+09
-5.35539e+09
-5.67832e+09
-6.36131e+09
-7.78529e+09
-1.03656e+10
-1.24334e+10
-6.37209e+09
-6.08953e+09
-6.06178e+09
-6.06541e+09
-6.06832e+09
-6.08012e+09
-6.09878e+09
-6.12675e+09
-6.16345e+09
-6.20649e+09
-6.25297e+09
-6.29966e+09
-6.34248e+09
-6.37911e+09
-6.41177e+09
-6.44475e+09
-6.48182e+09
-6.52648e+09
-6.58236e+09
-6.65304e+09
-6.73782e+09
-6.82412e+09
-6.8836e+09
-6.88658e+09
-6.833e+09
-6.76076e+09
-6.70904e+09
-6.69044e+09
-6.69983e+09
-6.73178e+09
-6.78434e+09
-6.85027e+09
-6.92206e+09
-6.99405e+09
-7.05879e+09
-7.10812e+09
-7.13427e+09
-7.13e+09
-7.08876e+09
-7.00414e+09
-6.86985e+09
-6.68026e+09
-6.43218e+09
-6.12972e+09
-5.79155e+09
-5.45692e+09
-5.1826e+09
-5.02458e+09
-5.03054e+09