/*--------------------------------*- C++ -*----------------------------------*\
| =========                 |                                                 |
| \\      /  F ield         | OpenFOAM: The Open Source CFD Toolbox           |
|  \\    /   O peration     | Version:  4.1                                   |
|   \\  /    A nd           | Web:      www.OpenFOAM.org                      |
|    \\/     M anipulation  |                                                 |
\*---------------------------------------------------------------------------*/
FoamFile
{
    version     2.0;
    format      ascii;
    class       surfaceScalarField;
    location    "21";
    object      phi;
}
// * * * * * * * * * * * * * * * * * * * * * * * * * * * * * * * * * * * * * //

dimensions      [0 3 -1 0 0 0 0];

internalField   nonuniform List<scalar> 
11516
(
-1.86923e+10
-5.22751e+09
-9.14056e+09
-5.8342e+09
-6.92067e+09
-4.45255e+09
-1.65028e+10
-2.34365e+09
1.44076e+10
-1.1516e+10
-1.70548e+09
-1.71985e+09
-8.32363e+09
-3.96174e+08
-1.11322e+09
-1.06904e+10
8.4422e+08
2.70904e+09
-1.16733e+10
3.41907e+08
1.50356e+09
-1.35856e+10
3.02242e+08
2.1895e+09
-1.506e+10
1.34138e+08
1.69948e+09
-1.62319e+10
1.2087e+08
1.24456e+09
-1.70573e+10
5.7137e+07
8.53368e+08
-1.75344e+10
-5.22822e+07
5.55864e+08
-1.77171e+10
-1.34242e+08
3.19253e+08
-1.76625e+10
-1.86848e+08
1.30325e+08
-1.74589e+10
-2.22328e+08
1.34695e+07
-1.71895e+10
-2.48714e+08
-2.98293e+07
-1.68965e+10
-2.57281e+08
-5.11176e+07
-1.66033e+10
-2.51847e+08
-5.64982e+07
-1.62806e+10
-2.55989e+08
-7.91082e+07
-1.59315e+10
-2.61989e+08
-9.31443e+07
-1.55433e+10
-2.68699e+08
-1.20527e+08
-1.5119e+10
-2.73806e+08
-1.46086e+08
-1.46592e+10
-2.80886e+08
-1.72779e+08
-1.41682e+10
-2.88749e+08
-1.96148e+08
-1.36476e+10
-2.95585e+08
-2.20318e+08
-1.31018e+10
-3.00999e+08
-2.40931e+08
-1.2533e+10
-3.04612e+08
-2.60314e+08
-1.1948e+10
-3.06072e+08
-2.73694e+08
-1.13536e+10
-3.04795e+08
-2.81602e+08
-1.07608e+10
-3.00343e+08
-2.80186e+08
-1.0183e+10
-2.92223e+08
-2.67758e+08
-9.63816e+09
-2.79978e+08
-2.40875e+08
-9.15112e+09
-2.62661e+08
-1.92482e+08
-8.73453e+09
-2.41456e+08
-1.37106e+08
-8.38966e+09
-2.20756e+08
-8.20559e+07
-8.12851e+09
-2.03983e+08
-1.3525e+07
-7.95803e+09
-1.92346e+08
6.11591e+07
-7.88632e+09
-1.87441e+08
1.44995e+08
-7.91459e+09
-1.93667e+08
2.33361e+08
-8.04069e+09
-2.1364e+08
3.2669e+08
-8.26649e+09
-2.45007e+08
4.28075e+08
-8.59367e+09
-2.83709e+08
5.39854e+08
-9.0207e+09
-3.26559e+08
6.63066e+08
-9.54151e+09
-3.71157e+08
7.98234e+08
-1.01559e+10
-4.17175e+08
9.50908e+08
-1.08743e+10
-4.69893e+08
1.12375e+09
-1.16892e+10
-5.54383e+08
1.29281e+09
-1.25479e+10
-7.00131e+08
1.40496e+09
-1.33387e+10
-9.73571e+08
1.4505e+09
-1.41241e+10
-1.37263e+09
1.56295e+09
-1.57454e+10
-1.25683e+09
2.08127e+09
-1.92765e+10
-4.2276e+08
3.27337e+09
-2.91074e+10
2.46429e+08
9.11361e+09
-2.8324e+08
9.10047e+09
-2.77408e+10
-8.69268e+09
-2.82699e+10
-5.9052e+09
-2.63269e+10
-3.86236e+09
-2.63614e+10
-1.29112e+09
-2.4808e+10
-1.59659e+09
-2.40805e+10
4.19575e+08
-2.40635e+10
5.66515e+08
-2.47864e+10
1.20208e+09
-2.546e+10
9.23295e+08
-2.60274e+10
7.52137e+08
-2.64597e+10
5.17374e+08
-2.67859e+10
2.81835e+08
-2.69805e+10
6.05522e+07
-2.70571e+10
-1.13712e+08
-2.70867e+10
-1.98679e+08
-2.71109e+10
-2.34351e+08
-2.71203e+10
-2.59025e+08
-2.71055e+10
-2.7701e+08
-2.70653e+10
-3.03241e+08
-2.70056e+10
-3.254e+08
-2.69145e+10
-3.59604e+08
-2.67968e+10
-3.88943e+08
-2.66542e+10
-4.19446e+08
-2.64917e+10
-4.47419e+08
-2.63072e+10
-4.76731e+08
-2.61024e+10
-5.02688e+08
-2.5875e+10
-5.287e+08
-2.56266e+10
-5.5051e+08
-2.53553e+10
-5.70711e+08
-2.50617e+10
-5.8677e+08
-2.47464e+10
-5.98028e+08
-2.44099e+10
-6.04426e+08
-2.40567e+10
-6.0134e+08
-2.36889e+10
-5.92671e+08
-2.33132e+10
-5.78715e+08
-2.29402e+10
-5.59772e+08
-2.258e+10
-5.37312e+08
-2.22491e+10
-5.0777e+08
-2.19629e+10
-4.76136e+08
-2.17442e+10
-4.38497e+08
-2.16123e+10
-3.93947e+08
-2.15778e+10
-3.45944e+08
-2.16406e+10
-2.97797e+08
-2.179e+10
-2.56147e+08
-2.20096e+10
-2.26162e+08
-2.22924e+10
-2.11824e+08
-2.26614e+10
-2.21233e+08
-2.31732e+10
-2.61181e+08
-2.40278e+10
-2.73669e+08
-2.54615e+10
-2.30372e+08
-2.7319e+10
2.93828e+08
-2.92534e+10
1.18909e+09
-3.53232e+10
6.12374e+09
7.83757e+09
-2.80217e+10
-2.17891e+09
-4.40453e+09
-3.21086e+10
-4.45441e+09
4.08703e+09
-3.18418e+10
3.13174e+08
1.37367e+10
-3.22333e+10
-1.32094e+09
-6.8104e+07
-3.35604e+10
-8.48003e+08
1.0282e+09
-3.57978e+10
8.17813e+08
4.1075e+09
-3.70698e+10
4.53343e+08
2.3205e+09
-3.69657e+10
3.2932e+08
1.77966e+09
-3.7111e+10
2.61696e+08
1.61736e+09
-3.73719e+10
2.43695e+08
1.2929e+09
-3.7605e+10
1.53163e+08
9.53374e+08
-3.78195e+10
8.22227e+07
6.9675e+08
-3.79907e+10
2.61615e+07
4.66398e+08
-3.81332e+10
-1.46798e+07
2.83836e+08
-3.82497e+10
-4.87945e+07
1.72193e+08
-3.83273e+10
-8.20073e+07
1.18016e+08
-3.83627e+10
-1.06054e+08
7.73585e+07
-3.83606e+10
-1.25788e+08
5.56458e+07
-3.83359e+10
-1.51312e+08
4.06187e+07
-3.82893e+10
-1.71413e+08
2.95324e+07
-3.82262e+10
-1.92938e+08
1.26363e+07
-3.8149e+10
-2.14215e+08
-1.63585e+06
-3.80601e+10
-2.36092e+08
-1.61139e+07
-3.79585e+10
-2.58663e+08
-2.96376e+07
-3.78492e+10
-2.81212e+08
-3.98998e+07
-3.77303e+10
-3.0293e+08
-4.88638e+07
-3.76064e+10
-3.23089e+08
-5.26304e+07
-3.74771e+10
-3.41432e+08
-5.18818e+07
-3.73453e+10
-3.57371e+08
-4.42927e+07
-3.72097e+10
-3.70316e+08
-3.09337e+07
-3.70706e+10
-3.79374e+08
-9.48104e+06
-3.69266e+10
-3.84151e+08
2.13451e+07
-3.67784e+10
-3.83422e+08
6.85011e+07
-3.66231e+10
-3.72512e+08
1.09165e+08
-3.64481e+10
-3.50674e+08
1.25332e+08
-3.62706e+10
-3.24681e+08
1.65789e+08
-3.61014e+10
-2.92356e+08
2.15673e+08
-3.5938e+10
-2.5381e+08
2.63337e+08
-3.57766e+10
-2.14098e+08
3.08766e+08
-3.56105e+10
-1.73987e+08
3.4868e+08
-3.54291e+10
-1.30893e+08
3.82234e+08
-3.5222e+10
-8.30505e+07
4.10265e+08
-3.49706e+10
-2.89716e+07
4.28428e+08
-3.46503e+10
3.12714e+07
4.33127e+08
-3.42179e+10
9.88453e+07
4.11526e+08
-3.3621e+10
1.77839e+08
3.47777e+08
-3.28022e+10
2.66274e+08
2.07635e+08
-3.1702e+10
3.57199e+08
-6.79075e+07
-3.02505e+10
4.51989e+08
-5.08495e+08
-2.83826e+10
5.8817e+08
-1.00379e+09
-2.568e+10
1.01113e+09
-1.81754e+09
-2.19374e+10
1.6773e+09
-2.35237e+09
-1.5211e+10
8.39017e+08
1.42466e+09
2.26532e+07
3.20487e+09
-3.10424e+10
-8.37689e+09
-3.49473e+10
-6.4872e+09
-3.62489e+10
-2.3204e+09
-3.78428e+10
-1.09201e+09
-3.7934e+10
-2.41585e+09
-3.6618e+10
-1.21763e+08
-3.59439e+10
3.28378e+08
-3.49791e+10
5.69662e+08
-3.44046e+10
6.22769e+08
-3.40648e+10
6.67817e+08
-3.39086e+10
5.21329e+08
-3.38672e+10
3.24777e+08
-3.38943e+10
1.12339e+08
-3.39679e+10
-5.77824e+07
-3.40616e+10
-1.591e+08
-3.41707e+10
-2.13879e+08
-3.42831e+10
-2.59566e+08
-3.4394e+10
-2.97125e+08
-3.45294e+10
-3.21615e+08
-3.46805e+10
-3.44463e+08
-3.48584e+10
-3.6991e+08
-3.50608e+10
-3.93156e+08
-3.52922e+10
-4.15349e+08
-3.55539e+10
-4.35929e+08
-3.58511e+10
-4.53164e+08
-3.618e+10
-4.69434e+08
-3.65416e+10
-4.82579e+08
-3.69309e+10
-4.94061e+08
-3.73464e+10
-5.0244e+08
-3.77815e+10
-5.09596e+08
-3.82296e+10
-5.14246e+08
-3.86825e+10
-5.17657e+08
-3.91304e+10
-5.16003e+08
-3.95629e+10
-5.09423e+08
-3.99676e+10
-5.00101e+08
-4.03357e+10
-4.91173e+08
-4.06593e+10
-4.82021e+08
-4.09336e+10
-4.65368e+08
-4.11581e+10
-4.48077e+08
-4.13276e+10
-4.31052e+08
-4.14265e+10
-4.20782e+08
-4.14362e+10
-4.20322e+08
-4.1329e+10
-4.38744e+08
-4.10782e+10
-4.79867e+08
-4.06506e+10
-5.55033e+08
-3.99944e+10
-6.85454e+08
-3.90505e+10
-8.94754e+08
-3.77631e+10
-1.20098e+09
-3.60455e+10
-1.57595e+09
-3.39056e+10
-1.8644e+09
-3.0251e+10
-2.48419e+09
-2.41645e+10
-3.31658e+09
-1.36028e+10
-3.65057e+09
-1.04528e+08
-3.19189e+10
1.24741e+09
-1.80571e+08
-3.31013e+10
1.93304e+09
2.98032e+09
-2.67001e+10
1.31815e+09
5.67403e+09
-2.96255e+10
6.1381e+08
1.88651e+09
-2.91649e+10
1.13722e+08
1.28105e+08
-2.79535e+10
8.72112e+08
1.76996e+09
-2.75722e+10
4.08404e+08
1.3574e+09
-2.69876e+10
1.99893e+08
8.97554e+08
-2.61561e+10
6.55241e+07
6.79217e+08
-2.54216e+10
8.97381e+07
4.57542e+08
-2.48113e+10
9.0443e+07
2.54262e+08
-2.44192e+10
9.83836e+07
2.12652e+08
-2.42296e+10
9.8745e+07
1.8539e+08
-2.42002e+10
1.08987e+08
1.54339e+08
-2.42562e+10
1.34089e+08
1.0291e+08
-2.43445e+10
1.33015e+08
7.92351e+07
-2.4458e+10
1.40781e+08
5.64548e+07
-2.45561e+10
1.3709e+08
2.04492e+07
-2.46403e+10
1.34356e+08
-1.31232e+06
-2.47202e+10
1.37078e+08
-1.70392e+07
-2.48081e+10
1.42535e+08
-2.31512e+07
-2.49071e+10
1.47434e+08
-2.7988e+07
-2.50222e+10
1.52552e+08
-2.84673e+07
-2.51601e+10
1.5677e+08
-2.5469e+07
-2.53223e+10
1.60615e+08
-1.70317e+07
-2.55107e+10
1.63849e+08
-3.94972e+06
-2.57213e+10
1.65837e+08
1.35244e+07
-2.59494e+10
1.66449e+08
3.4117e+07
-2.61888e+10
1.66046e+08
5.783e+07
-2.64343e+10
1.64434e+08
8.48927e+07
-2.66764e+10
1.6243e+08
1.12572e+08
-2.69051e+10
1.62248e+08
1.37824e+08
-2.71041e+10
1.61358e+08
1.649e+08
-2.72814e+10
1.53232e+08
1.99842e+08
-2.74538e+10
1.39249e+08
2.32288e+08
-2.75939e+10
1.27162e+08
2.582e+08
-2.76774e+10
1.2084e+08
2.61695e+08
-2.76904e+10
1.13291e+08
2.46611e+08
-2.76269e+10
1.10367e+08
2.15817e+08
-2.7476e+10
1.11922e+08
1.5904e+08
-2.722e+10
1.16168e+08
7.28352e+07
-2.6829e+10
1.21076e+08
-5.11699e+07
-2.62664e+10
1.26022e+08
-2.1709e+08
-2.54833e+10
1.27913e+08
-4.34904e+08
-2.44358e+10
1.25153e+08
-7.07686e+08
-2.31129e+10
1.11886e+08
-1.01917e+09
-2.15679e+10
8.22597e+07
-1.34288e+09
-1.99971e+10
4.84501e+07
-1.62471e+09
-1.8862e+10
7.20177e+07
-1.69368e+09
-1.85787e+10
1.90253e+08
-1.56441e+09
-1.94875e+10
4.70183e+08
-1.51936e+09
-2.04578e+10
2.00111e+08
-1.68436e+09
-1.50396e+10
-5.82764e+09
1.80792e+09
-4.77438e+09
2.55247e+09
-2.27891e+10
-3.95763e+09
-2.46333e+10
-3.00374e+09
-2.50661e+10
-8.70689e+08
-2.53312e+10
-5.13265e+08
-2.6402e+10
-1.4939e+09
-2.55453e+10
-3.04842e+08
-2.52173e+10
2.753e+08
-2.46418e+10
1.16158e+08
-2.41096e+10
1.17184e+08
-2.35656e+10
1.9807e+08
-2.31267e+10
1.69217e+08
-2.28244e+10
1.23046e+08
-2.26563e+10
4.82671e+07
-2.25797e+10
-1.8703e+07
-2.25286e+10
-6.93796e+07
-2.25166e+10
-8.65368e+07
-2.25044e+10
-1.25982e+08
-2.24771e+10
-1.81149e+08
-2.24495e+10
-2.07448e+08
-2.24163e+10
-2.29166e+08
-2.23868e+10
-2.41497e+08
-2.23615e+10
-2.51691e+08
-2.23468e+10
-2.5722e+08
-2.23482e+10
-2.57884e+08
-2.23694e+10
-2.52256e+08
-2.24147e+10
-2.4068e+08
-2.2487e+10
-2.23172e+08
-2.25893e+10
-2.01075e+08
-2.27234e+10
-1.73959e+08
-2.28921e+10
-1.42789e+08
-2.30925e+10
-1.11816e+08
-2.33216e+10
-7.98444e+07
-2.35818e+10
-4.14019e+07
-2.38806e+10
2.19086e+06
-2.42216e+10
4.57414e+07
-2.46037e+10
8.89943e+07
-2.50124e+10
1.21529e+08
-2.5431e+10
1.41853e+08
-2.58391e+10
1.43734e+08
-2.6214e+10
1.24551e+08
-2.65392e+10
8.25849e+07
-2.67929e+10
1.00917e+07
-2.69552e+10
-9.80003e+07
-2.70045e+10
-2.47291e+08
-2.69326e+10
-4.38153e+08
-2.6775e+10
-6.57493e+08
-2.66423e+10
-8.69358e+08
-2.6711e+10
-1.01914e+09
-2.71605e+10
-1.03048e+09
-2.80643e+10
-8.09651e+08
-2.98287e+10
-2.86495e+08
-3.37016e+10
7.33996e+08
-4.76319e+10
4.48984e+09
2.95423e+09
-2.51895e+10
7.40456e+08
1.5724e+09
-2.5558e+10
1.92616e+09
8.48759e+08
-2.2831e+10
2.09822e+09
3.15134e+08
-2.37166e+10
1.18884e+09
1.07107e+09
-2.52366e+10
1.09309e+09
9.51153e+07
-2.51484e+10
1.03347e+09
3.0264e+08
-2.50961e+10
7.23805e+08
3.42834e+08
-2.49321e+10
3.03022e+08
2.85995e+08
-2.46612e+10
-1.07656e+07
3.42979e+08
-2.44879e+10
-5.70727e+07
3.10342e+08
-2.43384e+10
-6.79986e+07
1.6785e+08
-2.42053e+10
-6.40793e+07
1.52191e+08
-2.40813e+10
-4.94561e+07
1.26435e+08
-2.39556e+10
-2.90154e+07
7.84393e+07
-2.3834e+10
-2.42223e+07
2.8226e+07
-2.37151e+10
-2.93895e+07
1.53779e+07
-2.3591e+10
-3.28403e+07
-1.22319e+07
-2.34467e+10
-4.02895e+07
-5.98339e+07
-2.32868e+10
-4.40546e+07
-9.49496e+07
-2.31047e+10
-4.41828e+07
-1.27695e+08
-2.29028e+10
-4.29782e+07
-1.50566e+08
-2.26828e+10
-3.98662e+07
-1.70261e+08
-2.2452e+10
-3.5697e+07
-1.84044e+08
-2.22175e+10
-3.01233e+07
-1.90599e+08
-2.19845e+10
-2.23199e+07
-1.89009e+08
-2.17573e+10
-1.15379e+07
-1.79471e+08
-2.15379e+10
2.34897e+06
-1.63939e+08
-2.13288e+10
1.88098e+07
-1.4314e+08
-2.11312e+10
3.77991e+07
-1.18509e+08
-2.09451e+10
6.08484e+07
-9.26183e+07
-2.07775e+10
9.07182e+07
-6.47015e+07
-2.06377e+10
1.28322e+08
-3.5898e+07
-2.05126e+10
1.60806e+08
-1.33158e+07
-2.03729e+10
1.89316e+08
-6.83827e+06
-2.02289e+10
2.32279e+08
-7.16383e+06
-2.00594e+10
2.51735e+08
-1.16455e+07
-1.98872e+10
2.74757e+08
-2.22621e+07
-1.97178e+10
3.03485e+08
-5.36978e+07
-1.95451e+10
3.2494e+08
-1.05777e+08
-1.93702e+10
3.4308e+08
-1.82945e+08
-1.91927e+10
3.55813e+08
-2.90758e+08
-1.90121e+10
3.64338e+08
-4.33005e+08
-1.88269e+10
3.67198e+08
-6.11663e+08
-1.86362e+10
3.63216e+08
-8.26795e+08
-1.84506e+10
3.53406e+08
-1.07114e+09
-1.82934e+10
3.35941e+08
-1.31401e+09
-1.82086e+10
3.07064e+08
-1.51568e+09
-1.82518e+10
2.75481e+08
-1.63005e+09
-1.83889e+10
2.61667e+08
-1.6335e+09
-1.87448e+10
4.22905e+08
-1.50302e+09
-1.98413e+10
8.89858e+08
-1.26109e+09
-2.03944e+10
9.46533e+08
-2.00099e+09
-1.1867e+10
-4.4626e+09
-2.18425e+09
-3.47962e+09
-1.37189e+08
-2.33286e+10
6.43819e+08
-2.50596e+10
2.7663e+08
-2.52879e+10
1.09907e+09
-2.49139e+10
-3.06174e+07
-2.52796e+10
-3.14983e+08
-2.47661e+10
5.05396e+06
-2.41673e+10
2.58623e+08
-2.4007e+10
1.73272e+08
-2.41521e+10
2.08396e+08
-2.42515e+10
2.24096e+08
-2.43342e+10
1.82244e+08
-2.43984e+10
1.28863e+08
-2.44493e+10
5.95245e+07
-2.44816e+10
-2.56e+06
-2.45113e+10
-4.78693e+07
-2.45657e+10
-4.40964e+07
-2.46299e+10
-7.54501e+07
-2.47047e+10
-1.27508e+08
-2.47752e+10
-1.61025e+08
-2.48374e+10
-1.89216e+08
-2.48913e+10
-2.04976e+08
-2.49398e+10
-2.14899e+08
-2.49871e+10
-2.17083e+08
-2.50376e+10
-2.09499e+08
-2.50933e+10
-1.91328e+08
-2.51552e+10
-1.61672e+08
-2.52224e+10
-1.22339e+08
-2.52939e+10
-7.54193e+07
-2.53675e+10
-2.19864e+07
-2.54391e+10
3.63318e+07
-2.5506e+10
9.95611e+07
-2.55611e+10
1.64865e+08
-2.56042e+10
2.31815e+08
-2.5636e+10
3.00863e+08
-2.56441e+10
3.71938e+08
-2.56516e+10
4.41003e+08
-2.56626e+10
5.05871e+08
-2.56784e+10
5.62965e+08
-2.57131e+10
6.06099e+08
-2.57746e+10
6.29573e+08
-2.58707e+10
6.30744e+08
-2.60098e+10
6.05115e+08
-2.61992e+10
5.48079e+08
-2.645e+10
4.59043e+08
-2.67722e+10
3.38366e+08
-2.71897e+10
2.08658e+08
-2.77329e+10
1.03698e+08
-2.83937e+10
3.79945e+07
-2.90277e+10
-3.45674e+07
-2.91944e+10
-1.56605e+08
-2.81209e+10
-4.20408e+08
-2.59144e+10
-4.50258e+08
-2.9201e+10
3.41071e+09
2.93927e+09
-2.60236e+10
1.70195e+07
2.71391e+09
-2.70592e+10
-6.00552e+07
1.5495e+09
-2.76896e+10
-1.59926e+08
7.8302e+08
-2.70689e+10
2.10182e+08
-4.18924e+07
-2.76388e+10
4.18008e+08
1.05124e+07
-2.79573e+10
5.33199e+08
-8.89993e+07
-2.81567e+10
3.57312e+08
6.99494e+07
-2.82243e+10
1.12289e+08
1.76324e+08
-2.81913e+10
-2.89282e+07
3.11192e+08
-2.81273e+10
-3.27867e+07
2.73284e+08
-2.81249e+10
-2.53448e+07
1.95928e+08
-2.8144e+10
-2.04967e+07
2.02808e+08
-2.81824e+10
8.56917e+06
1.72196e+08
-2.82018e+10
2.02255e+07
9.99637e+07
-2.82154e+10
2.18421e+07
5.00637e+07
-2.82014e+10
1.28089e+07
2.75887e+07
-2.8159e+10
4.66506e+06
-1.76611e+07
-2.80907e+10
-5.49626e+06
-7.80417e+07
-2.79945e+10
-1.59093e+07
-1.3543e+08
-2.78631e+10
-2.52141e+07
-1.92077e+08
-2.76921e+10
-3.55404e+07
-2.4496e+08
-2.7478e+10
-4.55975e+07
-2.93929e+08
-2.72257e+10
-5.71622e+07
-3.36395e+08
-2.69393e+10
-6.88348e+07
-3.67149e+08
-2.66254e+10
-8.01065e+07
-3.83486e+08
-2.62893e+10
-9.01741e+07
-3.85432e+08
-2.59364e+10
-9.85951e+07
-3.74858e+08
-2.55702e+10
-1.04574e+08
-3.5623e+08
-2.51947e+10
-1.07032e+08
-3.31822e+08
-2.48149e+10
-1.0609e+08
-3.03054e+08
-2.44376e+10
-1.00362e+08
-2.69064e+08
-2.40643e+10
-8.83083e+07
-2.37957e+08
-2.36858e+10
-7.49614e+07
-2.22859e+08
-2.3306e+10
-7.03316e+07
-2.10215e+08
-2.29299e+10
-7.18933e+07
-1.932e+08
-2.25303e+10
-6.91689e+07
-2.1239e+08
-2.21048e+10
-5.70757e+07
-2.51101e+08
-2.16652e+10
-4.07688e+07
-3.05241e+08
-2.12124e+10
-2.47214e+07
-3.82837e+08
-2.0747e+10
-6.58362e+06
-4.904e+08
-2.02699e+10
1.35158e+07
-6.33881e+08
-1.97847e+10
3.67519e+07
-8.11946e+08
-1.92968e+10
6.56344e+07
-1.02381e+09
-1.88124e+10
1.01472e+08
-1.26442e+09
-1.83397e+10
1.44507e+08
-1.52292e+09
-1.78855e+10
1.96757e+08
-1.77275e+09
-1.74577e+10
2.58983e+08
-1.9842e+09
-1.70525e+10
3.31606e+08
-2.14211e+09
-1.65993e+10
4.04521e+08
-2.28235e+09
-1.6079e+10
5.52227e+08
-2.43374e+09
-1.55673e+10
8.10365e+08
-2.4524e+09
-1.62961e+10
1.11526e+09
-2.20773e+09
-1.68089e+10
8.62893e+08
-2.33938e+09
-2.23146e+09
2.22724e+09
-2.36859e+10
2.23981e+09
-2.45264e+10
8.0275e+08
-2.45882e+10
7.89263e+08
-2.41507e+10
-4.30227e+08
-2.43016e+10
1.15864e+08
-2.41987e+10
3.36647e+08
-2.38916e+10
2.47116e+08
-2.38228e+10
1.85406e+08
-2.40116e+10
3.57782e+08
-2.42128e+10
3.93543e+08
-2.43535e+10
3.04801e+08
-2.44319e+10
1.97947e+08
-2.44713e+10
1.22923e+08
-2.45019e+10
6.91895e+07
-2.45413e+10
4.08925e+07
-2.4569e+10
2.96477e+07
-2.45869e+10
-1.57748e+07
-2.46095e+10
-7.4119e+07
-2.4626e+10
-1.24401e+08
-2.46344e+10
-1.70871e+08
-2.46305e+10
-2.07656e+08
-2.46169e+10
-2.37815e+08
-2.45987e+10
-2.56735e+08
-2.45829e+10
-2.60133e+08
-2.45761e+10
-2.44741e+08
-2.45822e+10
-2.10824e+08
-2.46044e+10
-1.60368e+08
-2.46447e+10
-9.65991e+07
-2.4702e+10
-2.29113e+07
-2.47718e+10
5.54496e+07
-2.48483e+10
1.38522e+08
-2.49258e+10
2.24918e+08
-2.49988e+10
3.0955e+08
-2.5069e+10
3.89395e+08
-2.51334e+10
4.6184e+08
-2.51875e+10
5.30842e+08
-2.52229e+10
5.95582e+08
-2.52319e+10
6.46559e+08
-2.52177e+10
6.84257e+08
-2.51792e+10
7.00432e+08
-2.51118e+10
6.89987e+08
-2.50118e+10
6.52066e+08
-2.48744e+10
5.8728e+08
-2.46948e+10
4.98738e+08
-2.44687e+10
3.88915e+08
-2.41916e+10
2.79331e+08
-2.38566e+10
1.95033e+08
-2.34526e+10
1.37155e+08
-2.29745e+10
4.82845e+07
-2.22855e+10
-1.55771e+08
-2.13316e+10
-3.98683e+08
-2.06651e+10
2.33537e+08
-2.13076e+10
5.09803e+09
3.16104e+09
-2.71494e+10
5.50616e+08
1.64286e+09
-2.73284e+10
7.05638e+08
8.69996e+08
-2.75681e+10
4.53858e+08
4.96084e+08
-2.76415e+10
4.21538e+08
-4.16388e+08
-2.77591e+10
3.18203e+08
-2.06107e+08
-2.80024e+10
3.50436e+08
-2.0408e+08
-2.82092e+10
2.98504e+08
-1.96633e+07
-2.84129e+10
1.68794e+08
2.24208e+08
-2.86181e+10
7.88052e+07
4.55909e+08
-2.88295e+10
3.7975e+07
4.66622e+08
-2.90627e+10
4.50816e+07
4.05002e+08
-2.92368e+10
5.17472e+07
3.47911e+08
-2.9441e+10
7.76494e+07
3.25049e+08
-2.96737e+10
8.46387e+07
2.80427e+08
-2.9911e+10
8.22747e+07
2.49629e+08
-3.01224e+10
7.3974e+07
2.18435e+08
-3.0315e+10
6.90063e+07
1.69934e+08
-3.05006e+10
6.22808e+07
1.07614e+08
-3.06734e+10
5.62348e+07
4.29621e+07
-3.0833e+10
4.81806e+07
-2.49346e+07
-3.09701e+10
4.00781e+07
-9.25025e+07
-3.10812e+10
3.01081e+07
-1.60463e+08
-3.11633e+10
1.84017e+07
-2.21972e+08
-3.12174e+10
4.11204e+06
-2.69444e+08
-3.12433e+10
-1.31202e+07
-2.97602e+08
-3.12388e+10
-3.25646e+07
-3.08289e+08
-3.12039e+10
-5.29963e+07
-3.02832e+08
-3.114e+10
-7.48726e+07
-2.85066e+08
-3.10472e+10
-9.82227e+07
-2.59153e+08
-3.09256e+10
-1.21685e+08
-2.27964e+08
-3.07695e+10
-1.44302e+08
-1.97306e+08
-3.05725e+10
-1.67312e+08
-1.74766e+08
-3.03379e+10
-1.93215e+08
-1.61045e+08
-3.00677e+10
-2.23068e+08
-1.43994e+08
-2.97553e+10
-2.5674e+08
-1.25146e+08
-2.94095e+10
-2.95361e+08
-1.2996e+08
-2.90286e+10
-3.34142e+08
-1.56325e+08
-2.86114e+10
-3.72851e+08
-2.02183e+08
-2.8157e+10
-4.13168e+08
-2.72225e+08
-2.767e+10
-4.5419e+08
-3.70742e+08
-2.71535e+10
-4.95095e+08
-5.03232e+08
-2.66105e+10
-5.3381e+08
-6.70329e+08
-2.60404e+10
-5.65955e+08
-8.73165e+08
-2.54406e+10
-5.87979e+08
-1.1098e+09
-2.48083e+10
-5.98008e+08
-1.36785e+09
-2.41309e+10
-5.95948e+08
-1.6352e+09
-2.33907e+10
-5.83791e+08
-1.89266e+09
-2.25521e+10
-5.63787e+08
-2.14981e+09
-2.16052e+10
-5.5912e+08
-2.40635e+09
-2.05417e+10
-5.62539e+08
-2.66404e+09
-1.86312e+10
-7.74462e+08
-3.28784e+09
-1.63193e+10
-5.85133e+08
-3.59856e+09
-1.16277e+10
-1.44217e+09
-5.26194e+09
1.6522e+09
-9.1203e+08
-2.5626e+10
1.8917e+09
-2.52878e+10
1.0768e+09
-2.50508e+10
9.61752e+08
-2.49642e+10
-1.16504e+08
-2.51095e+10
5.68972e+08
-2.49842e+10
5.58485e+08
-2.47727e+10
3.38818e+08
-2.47184e+10
3.10664e+08
-2.47778e+10
5.09898e+08
-2.48992e+10
5.68062e+08
-2.49868e+10
4.53508e+08
-2.50432e+10
3.23191e+08
-2.50946e+10
2.71704e+08
-2.51499e+10
2.34251e+08
-2.51937e+10
1.99359e+08
-2.52104e+10
1.61132e+08
-2.52127e+10
1.00907e+08
-2.52066e+10
2.89811e+07
-2.51861e+10
-4.3877e+07
-2.51489e+10
-1.17223e+08
-2.50884e+10
-1.87585e+08
-2.50021e+10
-2.55364e+08
-2.48913e+10
-3.12228e+08
-2.47625e+10
-3.49908e+08
-2.4623e+10
-3.625e+08
-2.44779e+10
-3.50999e+08
-2.43319e+10
-3.174e+08
-2.41892e+10
-2.66526e+08
-2.40504e+10
-2.06208e+08
-2.39153e+10
-1.4086e+08
-2.37837e+10
-6.94501e+07
-2.36555e+10
5.37609e+06
-2.35308e+10
7.62566e+07
-2.34111e+10
1.40267e+08
-2.32996e+10
1.957e+08
-2.3193e+10
2.38858e+08
-2.30866e+10
2.71251e+08
-2.29799e+10
2.88046e+08
-2.2873e+10
2.87552e+08
-2.2769e+10
2.6589e+08
-2.26706e+10
2.18791e+08
-2.25756e+10
1.45681e+08
-2.24764e+10
4.86386e+07
-2.23596e+10
-6.75686e+07
-2.22149e+10
-1.95731e+08
-2.20241e+10
-3.25784e+08
-2.17721e+10
-4.39128e+08
-2.146e+10
-5.28349e+08
-2.11615e+10
-6.02238e+08
-2.09901e+10
-6.70771e+08
-2.11695e+10
-7.47748e+08
-2.08979e+10
-3.71405e+08
-1.36997e+10
-3.34943e+09
-1.41227e+09
-2.71547e+10
3.45042e+08
-1.35005e+08
-2.67676e+10
5.41154e+08
-5.50163e+07
-2.63243e+10
3.29581e+08
-2.04496e+08
-2.63146e+10
1.64237e+08
-4.97586e+08
-2.61396e+10
1.25415e+07
-3.06355e+08
-2.61087e+10
6.97164e+07
-2.36033e+08
-2.60519e+10
1.17197e+08
-1.40495e+08
-2.59793e+10
1.51542e+08
4.16325e+07
-2.58813e+10
1.54744e+08
2.36536e+08
-2.58821e+10
1.48328e+08
3.4619e+08
-2.59628e+10
1.16007e+08
3.92108e+08
-2.60556e+10
1.03179e+08
3.56798e+08
-2.61641e+10
1.16071e+08
3.36431e+08
-2.62986e+10
1.21587e+08
3.16981e+08
-2.6437e+10
1.19554e+08
3.02208e+08
-2.65668e+10
1.15902e+08
2.7957e+08
-2.66932e+10
1.13729e+08
2.42886e+08
-2.68268e+10
1.10357e+08
1.92811e+08
-2.69668e+10
1.0655e+08
1.3769e+08
-2.71156e+10
9.96749e+07
7.57591e+07
-2.72644e+10
9.22052e+07
1.08561e+07
-2.74101e+10
8.20738e+07
-5.80845e+07
-2.75476e+10
6.97075e+07
-1.20177e+08
-2.768e+10
5.31322e+07
-1.61376e+08
-2.78072e+10
3.23489e+07
-1.76552e+08
-2.79271e+10
8.41706e+06
-1.67887e+08
-2.80346e+10
-1.86028e+07
-1.42455e+08
-2.8125e+10
-4.75673e+07
-1.06298e+08
-2.81939e+10
-7.72667e+07
-6.56492e+07
-2.82342e+10
-1.07392e+08
-2.63108e+07
-2.82446e+10
-1.38147e+08
1.1971e+07
-2.82255e+10
-1.70559e+08
4.46231e+07
-2.81742e+10
-2.05403e+08
6.82787e+07
-2.8081e+10
-2.41371e+08
8.65414e+07
-2.79318e+10
-2.77372e+08
9.19264e+07
-2.77334e+10
-3.14553e+08
8.0437e+07
-2.74926e+10
-3.52949e+08
5.40169e+07
-2.72118e+10
-3.92689e+08
9.36387e+06
-2.68943e+10
-4.34043e+08
-5.68148e+07
-2.65445e+10
-4.76754e+08
-1.49248e+08
-2.61738e+10
-5.20252e+08
-2.65163e+08
-2.5795e+10
-5.63999e+08
-4.0237e+08
-2.54179e+10
-6.05201e+08
-5.63045e+08
-2.5048e+10
-6.42602e+08
-7.47104e+08
-2.46861e+10
-6.78773e+08
-9.42217e+08
-2.4318e+10
-7.1573e+08
-1.15348e+09
-2.39015e+10
-7.60833e+08
-1.38997e+09
-2.3342e+10
-8.20669e+08
-1.7211e+09
-2.25492e+10
-8.91605e+08
-2.14056e+09
-2.14321e+10
-9.65714e+08
-2.66768e+09
-2.001e+10
-9.67384e+08
-3.61403e+09
-1.79473e+10
-5.63205e+08
-4.85301e+09
-1.31431e+10
-9.75209e+08
-8.93175e+09
-5.68097e+08
-3.83155e+09
-2.73591e+10
5.35937e+08
-2.64571e+10
7.41989e+08
-2.58978e+10
7.94844e+08
-2.58576e+10
8.42373e+07
-2.59073e+10
7.02261e+08
-2.58314e+10
6.09549e+08
-2.5699e+10
3.67971e+08
-2.56194e+10
4.1609e+08
-2.55298e+10
6.00289e+08
-2.54417e+10
6.47404e+08
-2.54405e+10
5.83304e+08
-2.55107e+10
5.09373e+08
-2.55822e+10
4.7237e+08
-2.56447e+10
4.35023e+08
-2.5695e+10
3.92951e+08
-2.57287e+10
3.4322e+08
-2.57522e+10
2.76429e+08
-2.57695e+10
1.97029e+08
-2.57796e+10
1.09252e+08
-2.57799e+10
1.47105e+07
-2.57629e+10
-8.6855e+07
-2.57224e+10
-1.93012e+08
-2.5656e+10
-2.93508e+08
-2.55711e+10
-3.70961e+08
-2.54754e+10
-4.16425e+08
-2.53766e+10
-4.30498e+08
-2.52791e+10
-4.19129e+08
-2.5186e+10
-3.88433e+08
-2.50987e+10
-3.47409e+08
-2.50156e+10
-3.03374e+08
-2.49392e+10
-2.51356e+08
-2.48669e+10
-1.99794e+08
-2.47978e+10
-1.55682e+08
-2.47314e+10
-1.20283e+08
-2.46671e+10
-9.49963e+07
-2.4608e+10
-8.10709e+07
-2.45565e+10
-7.83783e+07
-2.45187e+10
-8.84137e+07
-2.45011e+10
-1.13408e+08
-2.45091e+10
-1.57592e+08
-2.45533e+10
-2.18956e+08
-2.46394e+10
-2.99293e+08
-2.47676e+10
-3.96657e+08
-2.49321e+10
-5.07701e+08
-2.5125e+10
-6.30478e+08
-2.53306e+10
-7.67906e+08
-2.55326e+10
-9.17466e+08
-2.57151e+10
-1.08468e+09
-2.58435e+10
-1.28961e+09
-2.58298e+10
-1.5955e+09
-2.52422e+10
-2.24674e+09
-2.24116e+10
-3.62635e+09
-1.81016e+10
-8.59092e+09
-4.33657e+09
-2.80657e+10
1.31708e+08
-1.51303e+09
-2.75289e+10
2.57367e+08
-7.13708e+08
-2.70321e+10
1.24881e+08
-6.50058e+08
-2.68276e+10
-3.00955e+06
-5.15519e+08
-2.65123e+10
-1.12334e+08
-3.51732e+08
-2.63334e+10
-7.67561e+07
-2.19707e+08
-2.62652e+10
816285
-1.27353e+08
-2.61991e+10
9.99441e+07
-6.9864e+07
-2.60796e+10
1.53864e+08
-1.10028e+06
-2.59643e+10
1.71795e+08
8.29478e+07
-2.58153e+10
1.62375e+08
9.71207e+07
-2.56985e+10
1.73762e+08
7.76116e+07
-2.56144e+10
1.98088e+08
6.26991e+07
-2.55465e+10
2.1284e+08
4.59498e+07
-2.54768e+10
2.24134e+08
2.41378e+07
-2.53945e+10
2.35519e+08
-8.71321e+06
-2.53033e+10
2.4618e+08
-5.70998e+07
-2.52032e+10
2.56848e+08
-1.19492e+08
-2.51004e+10
2.64351e+08
-1.9273e+08
-2.49934e+10
2.70311e+08
-2.72823e+08
-2.48817e+10
2.74362e+08
-3.6149e+08
-2.47574e+10
2.78147e+08
-4.5808e+08
-2.46229e+10
2.81503e+08
-5.46199e+08
-2.44964e+10
2.84607e+08
-5.93257e+08
-2.44026e+10
2.87957e+08
-5.84293e+08
-2.43532e+10
2.90428e+08
-5.33997e+08
-2.43451e+10
2.90846e+08
-4.63384e+08
-2.43706e+10
2.8922e+08
-3.8638e+08
-2.44198e+10
2.86081e+08
-3.13684e+08
-2.44784e+10
2.80944e+08
-2.5526e+08
-2.45297e+10
2.74686e+08
-2.14316e+08
-2.45639e+10
2.67359e+08
-1.88141e+08
-2.45748e+10
2.56381e+08
-1.74401e+08
-2.45603e+10
2.45473e+08
-1.69225e+08
-2.45189e+10
2.36415e+08
-1.82386e+08
-2.44539e+10
2.28444e+08
-2.11832e+08
-2.43681e+10
2.19783e+08
-2.55974e+08
-2.42671e+10
2.0977e+08
-3.13998e+08
-2.4161e+10
1.98405e+08
-3.86484e+08
-2.40662e+10
1.86071e+08
-4.70986e+08
-2.40001e+10
1.722e+08
-5.63254e+08
-2.39832e+10
1.56252e+08
-6.52445e+08
-2.40358e+10
1.38426e+08
-7.37853e+08
-2.41718e+10
1.16789e+08
-8.18453e+08
-2.44002e+10
9.10647e+07
-8.86921e+08
-2.47329e+10
6.12354e+07
-9.49264e+08
-2.51747e+10
1.3626e+07
-1.02176e+09
-2.56938e+10
-7.60295e+07
-1.19815e+09
-2.6155e+10
-2.39252e+08
-1.56212e+09
-2.6195e+10
-5.49843e+08
-2.2763e+09
-2.57146e+10
-9.08045e+08
-3.39212e+09
-2.45838e+10
-1.28706e+09
-4.86454e+09
-2.49226e+10
-1.79675e+09
-6.85385e+09
6.80262e+06
-9.19734e+08
-2.83518e+10
-7.68098e+08
-2.75172e+10
2.56068e+08
-2.69463e+10
4.65165e+08
-2.67842e+10
3.17018e+07
-2.64316e+10
3.30068e+08
-2.61882e+10
3.57304e+08
-2.62577e+10
4.84793e+08
-2.63611e+10
6.50798e+08
-2.63345e+10
7.49063e+08
-2.62379e+10
7.38014e+08
-2.61849e+10
7.04213e+08
-2.61822e+10
6.89168e+08
-2.61819e+10
6.77546e+08
-2.61837e+10
6.58294e+08
-2.61853e+10
6.32612e+08
-2.61783e+10
5.92571e+08
-2.61628e+10
5.34643e+08
-2.61398e+10
4.59529e+08
-2.61138e+10
3.72507e+08
-2.60874e+10
2.75794e+08
-2.6057e+10
1.66055e+08
-2.60138e+10
4.19758e+07
-2.59535e+10
-8.10613e+07
-2.58834e+10
-1.71151e+08
-2.58169e+10
-2.12841e+08
-2.57582e+10
-2.16325e+08
-2.57059e+10
-1.9489e+08
-2.56567e+10
-1.58646e+08
-2.56065e+10
-1.17933e+08
-2.55547e+10
-7.77166e+07
-2.54957e+10
-3.6711e+07
-2.54255e+10
-1.63718e+06
-2.53456e+10
2.3162e+07
-2.52571e+10
3.94611e+07
-2.51575e+10
4.41336e+07
-2.50472e+10
3.72864e+07
-2.49267e+10
1.75544e+07
-2.48024e+10
-1.23655e+07
-2.46819e+10
-5.3103e+07
-2.45783e+10
-1.03425e+08
-2.45024e+10
-1.62587e+08
-2.44647e+10
-2.31019e+08
-2.44719e+10
-3.07177e+08
-2.45269e+10
-3.91181e+08
-2.46301e+10
-4.84182e+08
-2.4784e+10
-5.91924e+08
-2.50099e+10
-7.1529e+08
-2.53501e+10
-8.70634e+08
-2.58715e+10
-1.09702e+09
-2.66116e+10
-1.54304e+09
-2.73718e+10
-2.51353e+09
-2.80907e+10
-4.30208e+09
-3.06189e+10
-7.93815e+09
-2.38718e+08
-2.80534e+10
-5.35411e+07
-2.08432e+09
-2.77048e+10
1.01537e+06
-9.35374e+08
-2.75271e+10
-1.33627e+07
-6.71278e+08
-2.7448e+10
1.12487e+07
-4.75583e+08
-2.74286e+10
1.01616e+07
-2.79523e+08
-2.74414e+10
1.18104e+07
-1.46166e+08
-2.74905e+10
6.46303e+06
-3.49626e+07
-2.75279e+10
9.7703e+06
-5.64128e+06
-2.75337e+10
5.95412e+06
2.85329e+07
-2.7502e+10
-1.83704e+06
7.83803e+07
-2.74541e+10
6.23801e+06
6.35289e+07
-2.742e+10
2.62712e+07
3.2483e+07
-2.73937e+10
4.40522e+07
2.29263e+06
-2.73627e+10
5.38382e+07
-3.17006e+07
-2.73148e+10
6.30535e+07
-7.6372e+07
-2.72416e+10
7.31453e+07
-1.35658e+08
-2.71393e+10
8.44634e+07
-2.14306e+08
-2.70072e+10
9.67035e+07
-3.12611e+08
-2.68453e+10
1.08166e+08
-4.31804e+08
-2.66471e+10
1.20107e+08
-5.6913e+08
-2.64032e+10
1.32003e+08
-7.28738e+08
-2.60922e+10
1.45226e+08
-9.1934e+08
-2.56926e+10
1.59325e+08
-1.12319e+09
-2.52196e+10
1.74064e+08
-1.2697e+09
-2.47245e+10
1.89404e+08
-1.30431e+09
-2.42515e+10
2.05885e+08
-1.24887e+09
-2.38222e+10
2.25055e+08
-1.148e+09
-2.34494e+10
2.47105e+08
-1.02946e+09
-2.31357e+10
2.71863e+08
-9.16362e+08
-2.288e+10
2.96101e+08
-8.19624e+08
-2.26793e+10
3.18203e+08
-7.42534e+08
-2.25303e+10
3.36937e+08
-6.80784e+08
-2.24247e+10
3.53365e+08
-6.38446e+08
-2.23505e+10
3.66805e+08
-6.14658e+08
-2.23038e+10
3.75948e+08
-6.1035e+08
-2.22823e+10
3.81423e+08
-6.22563e+08
-2.22879e+10
3.83372e+08
-6.46421e+08
-2.23217e+10
3.81144e+08
-6.81959e+08
-2.23895e+10
3.74787e+08
-7.2556e+08
-2.24961e+10
3.64387e+08
-7.76058e+08
-2.26418e+10
3.49463e+08
-8.3142e+08
-2.28191e+10
3.30958e+08
-8.86615e+08
-2.30201e+10
3.10139e+08
-9.38283e+08
-2.32375e+10
2.87877e+08
-9.82651e+08
-2.34623e+10
2.66532e+08
-1.01764e+09
-2.36898e+10
2.46236e+08
-1.05049e+09
-2.39191e+10
2.14294e+08
-1.09303e+09
-2.41865e+10
1.39934e+08
-1.18492e+09
-2.45841e+10
-1.02086e+07
-1.3392e+09
-2.52039e+10
-3.08883e+08
-1.63654e+09
-2.6437e+10
-7.55091e+08
-1.81371e+09
-2.90001e+10
-1.19518e+09
-1.57164e+09
-3.06263e+10
-1.67911e+09
-3.89339e+09
3.39247e+08
6.15174e+09
-2.8118e+10
-1.51952e+09
-2.76131e+10
-1.63526e+08
-2.72241e+10
1.49131e+08
-2.70442e+10
-6.41669e+07