/*--------------------------------*- C++ -*----------------------------------*\
| =========                 |                                                 |
| \\      /  F ield         | OpenFOAM: The Open Source CFD Toolbox           |
|  \\    /   O peration     | Version:  4.1                                   |
|   \\  /    A nd           | Web:      www.OpenFOAM.org                      |
|    \\/     M anipulation  |                                                 |
\*---------------------------------------------------------------------------*/
FoamFile
{
    version     2.0;
    format      ascii;
    class       volVectorField;
    location    "21";
    object      U;
}
// * * * * * * * * * * * * * * * * * * * * * * * * * * * * * * * * * * * * * //

dimensions      [0 1 -1 0 0 0 0];

internalField   nonuniform List<vector> 
4432
(
(-130286 39801.3 58989.5)
(-82909.1 50918.7 97290)
(15725.9 78664.2 165617)
(5991.5 11752.7 56858.4)
(-87367 10986 29907.7)
(-56269.4 17795.8 44240)
(-40852.8 8093.67 21566)
(-50129.9 4399.06 13582.3)
(-58119.4 1374.21 6732.74)
(-63414.2 -718.784 2683.6)
(-66674 -1947.04 528.639)
(-69029.8 -2451.76 -596.124)
(-70475.9 -2596.5 -994.218)
(-71103.2 -2753.26 -1096.68)
(-70997.8 -2891.15 -1099.39)
(-69738 -2906.25 -1350.16)
(-68037.8 -2779.31 -1901.47)
(-66777.6 -2619.21 -2280.02)
(-65711.5 -2555.78 -2575.07)
(-64438.7 -2485.08 -2726.04)
(-62972.4 -2398.43 -2941.75)
(-61360.3 -2298.4 -3169.65)
(-59593.4 -2195.83 -3403.26)
(-57691.1 -2085.48 -3642.54)
(-55668.3 -1960.13 -3891.2)
(-53529.4 -1818.3 -4142.04)
(-51296.8 -1658.74 -4390.93)
(-48978.5 -1479.85 -4632.89)
(-46609.8 -1279.87 -4860.58)
(-44216.7 -1057.37 -5067.06)
(-41852 -812.314 -5246.68)
(-39586 -545.425 -5386.93)
(-37502.4 -258.631 -5482.01)
(-35695.7 31.9896 -5544.84)
(-34185.7 301.548 -5542.27)
(-32988.5 543.588 -5432.61)
(-32139.4 756.879 -5254.11)
(-31664.1 932.612 -5014.83)
(-31610.4 1052.14 -4727.17)
(-31937.4 1105.16 -4380.41)
(-32656.4 1098.45 -3928.58)
(-33771.2 1045.81 -3328.6)
(-35240.1 962.436 -2558.65)
(-37045.4 869.687 -1585.5)
(-39247.3 801.19 -340.057)
(-41828.5 779.572 1108.47)
(-44696.2 766.139 2651.29)
(-47427.3 769.564 4319.74)
(-48497.7 621.414 5959.66)
(-47459.3 108.844 7438.53)
(-54125.3 614.034 8808.27)
(-94955.6 1141.68 9836.06)
(-122745 466.208 25192.4)
(-101465 -1718.28 36752.5)
(-127393 2767.92 19949.7)
(-115418 29953.7 44434)
(-103558 33275.1 43596)
(-84641.1 15126.5 32443.2)
(-107182 18835.7 17490.4)
(-109446 17183.8 19755)
(-94130.6 11038.1 9306.12)
(-96496.1 7018.31 5222.62)
(-101143 4175.02 1473.6)
(-103632 2864.28 232.286)
(-104682 2080.16 -442.557)
(-106009 1639.9 -860.669)
(-107429 1461.95 -988.935)
(-108346 1315.27 -904.616)
(-108804 1169.78 -805.322)
(-108653 1092.28 -1074.24)
(-108344 1117.26 -1528.18)
(-108325 1179.38 -1715.86)
(-108305 1173.57 -1842.81)
(-108135 1158.38 -1917.21)
(-107845 1151.79 -2057.76)
(-107430 1159.23 -2178.88)
(-106904 1167.3 -2302.45)
(-106295 1176.69 -2436.18)
(-105601 1194.92 -2577.69)
(-104822 1223.23 -2723.05)
(-103958 1262.03 -2872.84)
(-103007 1312.22 -3026.7)
(-101968 1375.38 -3184.04)
(-100838 1452.3 -3344.42)
(-99617.2 1543.33 -3507.48)
(-98313.5 1648.99 -3669.93)
(-96936.3 1769.96 -3827.48)
(-95497.7 1898.84 -3978.25)
(-94013 2021.84 -4113.39)
(-92515.3 2133.63 -4222.61)
(-91045.4 2234.85 -4297.29)
(-89662.7 2320.79 -4339.33)
(-88416 2384.71 -4370.06)
(-87394 2423.22 -4378.68)
(-86692.1 2441.05 -4337.93)
(-86361.9 2446.63 -4229.91)
(-86411.4 2451.1 -4046.22)
(-86809.7 2471.82 -3795.61)
(-87530 2537.13 -3487.47)
(-88510.6 2670.68 -3146.66)
(-89663.5 2858.92 -2804.05)
(-90942.2 3087.71 -2477.01)
(-91936.9 3233.77 -1953.69)
(-93110.4 3342.25 -1647.45)
(-100986 3627.05 -835.963)
(-134060 3600.84 -1704.75)
(-148882 2864.84 9836.19)
(-130796 166.545 30347.6)
(-107703 8799.51 -17719.1)
(-124850 8079.87 55675.8)
(-116865 32725.8 122678)
(-133565 -321.926 19599.9)
(-121377 2672.68 31955.4)
(-145467 4797.75 36830.2)
(-151458 51.1521 21372.2)
(-146306 -1252.82 14278)
(-148240 -1934.79 8603.29)
(-148915 -2201.98 4830.21)
(-149534 -2598.31 2852.75)
(-150527 -2696.46 2088.25)
(-151390 -2738.98 1700.5)
(-152183 -2844.58 1585.26)
(-153064 -3029 1663.67)
(-153559 -3231.73 1688.99)
(-153428 -3313.09 1538.4)
(-153326 -3334.72 1453.73)
(-153332 -3421.44 1377.77)
(-153220 -3502.88 1369.57)
(-153008 -3586.52 1336.19)
(-152726 -3662.52 1309.99)
(-152392 -3735.72 1281.13)
(-152007 -3806.53 1256.78)
(-151585 -3872.27 1236.54)
(-151126 -3929.86 1221.5)
(-150640 -3978.09 1214.5)
(-150135 -4016.95 1216.57)
(-149617 -4044.39 1228.05)
(-149084 -4057.14 1248.88)
(-148535 -4051.65 1278.28)
(-147975 -4024.51 1321.3)
(-147409 -3967.84 1390.25)
(-146812 -3874.26 1480.01)
(-146148 -3754.09 1589.4)
(-145436 -3614.42 1708.57)
(-144748 -3440.7 1811.75)
(-144095 -3234.64 1915.23)
(-143464 -3010.34 2014.56)
(-142820 -2766.18 2115.47)
(-142136 -2492.95 2220.9)
(-141376 -2182.33 2323.34)
(-140471 -1825.78 2394.61)
(-139320 -1420.33 2393.18)
(-137834 -955.959 2270.73)
(-135840 -396.809 1959.94)
(-133030 249.697 1333.98)
(-128996 935.191 221.451)
(-123318 1608.52 -1514.31)
(-115444 2648.37 -4055.37)
(-108211 4655.24 -8280.06)
(-103005 6583.85 -14371)
(-98363.2 2992.5 -227.753)
(-18550.8 -425.391 6961.11)
(-121279 -5621.7 -32622.9)
(-130083 -22461.4 -22924.8)
(-138860 -13704.7 719.178)
(-146612 5281.85 13348.1)
(-151755 1662.83 5322.58)
(-154636 3892.89 11426.7)
(-147136 3373.39 8514.12)
(-140466 3348.6 6745.73)
(-138665 2797.47 3324.36)
(-136645 2906.55 1748.76)
(-135294 2808.24 872.379)
(-135004 2777.21 344.583)
(-135162 2765.95 -82.6322)
(-135601 2753.72 -247.699)
(-136415 2674.69 -190.162)
(-136892 2559.7 -313.606)
(-136845 2565.94 -570.005)
(-137172 2628.91 -762.605)
(-137771 2613.8 -933.831)
(-138346 2601.74 -1042.74)
(-139020 2581.78 -1173.43)
(-139780 2562.71 -1295.7)
(-140642 2541.63 -1415.3)
(-141623 2517.72 -1524.89)
(-142740 2492.01 -1625.9)
(-143991 2466.18 -1715.58)
(-145376 2441.66 -1791.52)
(-146883 2419.5 -1853.3)
(-148500 2400.86 -1900.68)
(-150208 2386.69 -1934.09)
(-151984 2379.45 -1953.82)
(-153798 2381.58 -1954.15)
(-155619 2400.08 -1925.72)
(-157401 2441.75 -1871.57)
(-159092 2494.03 -1796.46)
(-160653 2543.99 -1717.23)
(-162050 2607.77 -1650.78)
(-163259 2684.6 -1601.51)
(-164262 2759.44 -1565.65)
(-165065 2830.14 -1527.72)
(-165618 2904.55 -1496.29)
(-165863 2988.7 -1493.59)
(-165687 3087.33 -1549.25)
(-164968 3200.25 -1702.14)
(-163628 3336.9 -1998.02)
(-161513 3530.97 -2501.81)
(-158328 3774.09 -3315.05)
(-153715 4004.03 -4508.08)
(-147279 4256.5 -6051.18)
(-137925 4532.64 -8002.67)
(-130130 5268.21 -11339.9)
(-118210 6718.6 -16529.1)
(-98739.4 3313.19 -7952.05)
(-5111.74 -623.278 4639.02)
(-122254 4033.38 -26329.4)
(-121127 1917.58 -15167.7)
(-119957 -7488.43 7142.08)
(-116739 2169.1 -2955.84)
(-111246 -1945.4 -7354.42)
(-117632 -3138.88 4237.37)
(-114366 -4409.67 5078.64)
(-109716 -3049.86 4383.76)
(-106651 -2493.18 4221.25)
(-102483 -1662.8 3426.48)
(-99378.7 -1153.84 2294)
(-97644.2 -762.166 1346.54)
(-96471.5 -657.266 684.382)
(-96478.6 -700.911 262.635)
(-97281 -727.428 -68.5615)
(-97718.7 -851.995 -159.766)
(-97670.4 -803.565 -125.983)
(-97914.5 -752.816 -162.41)
(-98325.6 -750.016 -232.049)
(-98661.4 -763.259 -328.23)
(-99019.6 -781.713 -413.393)
(-99393.1 -808.905 -480.585)
(-99818.5 -843.848 -534.685)
(-100317 -888.943 -575.933)
(-100912 -943.154 -599.478)
(-101612 -1006.63 -604.781)
(-102416 -1080.39 -589.844)
(-103299 -1163.41 -554.3)
(-104246 -1254.41 -495.057)
(-105229 -1352.34 -411.542)
(-106211 -1452.68 -305.161)
(-107142 -1549.42 -151.996)
(-108021 -1642.6 98.2184)
(-108812 -1725.75 279.112)
(-109498 -1806.82 259.652)
(-110141 -1897.68 381.229)
(-110629 -1961.31 534.019)
(-110855 -2009.35 638.106)
(-110782 -2020.74 711.777)
(-110365 -1987.27 733.087)
(-109568 -1902.29 699.264)
(-108312 -1761.83 569.403)
(-106443 -1555.19 300.532)
(-103754 -1275.97 -149.211)
(-100072 -907.452 -848.684)
(-95288.8 -452.498 -1794.72)
(-89337 55.3876 -3060.74)
(-82362.1 579.189 -4873.56)
(-74747.2 1171.12 -7042.6)
(-69905.6 1629.48 -8701.53)
(-73187.7 2535.87 -10209.3)
(-92273.5 3752.12 -8175.71)
(-101440 -4647.39 8536.94)
(-16368.3 -5535.45 13725.4)
(-87709.5 1488.6 -35305.5)
(-91642.5 -2361.65 -30899.7)
(-93551.8 -6513.55 -18739.4)
(-100085 2047.61 -13295)
(-107129 -1996.25 -17684)
(-106460 -2242.64 -8898.08)
(-102763 -2539.34 -1008.47)
(-100360 -1084.63 1039.94)
(-98065.2 -357.785 1649.9)
(-94726.6 679.373 1952.38)
(-92387.5 1211.18 1433.97)
(-91102.4 1545.45 713.004)
(-90312.7 1638.54 -47.6005)
(-90170.4 1630.97 -680.088)
(-90668 1658.32 -1066.96)
(-90660.1 1592.82 -1081.13)
(-90036.6 1703.99 -1037.83)
(-89822.2 1825.02 -1184.88)
(-89796 1911.61 -1292.13)
(-89684.5 1993.11 -1443.35)
(-89580 2075.39 -1582.48)
(-89469.8 2157.31 -1717.97)
(-89387.3 2243.76 -1847.93)
(-89353.4 2332.21 -1972.76)
(-89392.3 2423.39 -2089.74)
(-89519.8 2517.11 -2199.11)
(-89751.1 2611.64 -2301.66)
(-90098.6 2705.94 -2399.99)
(-90574.5 2799.28 -2494.54)
(-91184.2 2890.22 -2583.37)
(-91920.2 2980.84 -2662.51)
(-92770.6 3074.28 -2721.85)
(-93755.8 3167.42 -2743.89)
(-94887.7 3264.36 -2745.45)
(-96173.7 3353.09 -2732.4)
(-97634.2 3408.63 -2713.08)
(-99236.1 3467.72 -2681.67)
(-100935 3519.51 -2606.15)
(-102648 3585.25 -2538.06)
(-104225 3669.76 -2477.79)
(-105635 3775.7 -2437.15)
(-106820 3904.06 -2457.81)
(-107669 4062.52 -2595.4)
(-108063 4252.65 -2864.69)
(-107946 4496.97 -3288.04)
(-107360 4804.39 -3902.42)
(-106466 5143.89 -4703.06)
(-105560 5521.7 -5656.65)
(-104846 6013.52 -6540.57)
(-105655 6629.27 -6477.6)
(-113647 6984.86 -5405.17)
(-146346 5863.42 -960.041)
(-184082 -11626.7 7136.17)
(-176240 -16503.5 3771.09)
(-95518 -913.035 6778.45)
(-102909 4427.09 4009.31)
(-90821.7 908.259 -4137.47)
(-92692.7 -1467.44 2091.05)
(-100087 -3929.62 -4687.95)
(-100820 -5843.99 -2533.98)
(-102238 -4541.26 -2131.37)
(-101284 -2990.54 -421.963)
(-99815 -2300.35 1032.33)
(-97717.4 -1483.47 1498.04)
(-96883.9 -1190.33 1294.95)
(-96492.6 -1046.93 1416.97)
(-96013.5 -1039.04 1147.87)
(-95882.6 -1127.54 659.595)
(-95903.6 -1243.52 200.726)
(-95461.8 -1294.37 72.5183)
(-94656.6 -1241.55 20.511)
(-94016 -1205.84 -120.157)
(-93438.8 -1178.64 -210.035)
(-92764.4 -1157.34 -302.911)
(-92006.9 -1136.66 -364.27)
(-91158.5 -1110.94 -424.603)
(-90249.4 -1080.3 -474.616)
(-89309 -1043.16 -513.271)
(-88367.3 -996.667 -538.004)
(-87442.5 -939.548 -553.638)
(-86549.6 -873.419 -564.897)
(-85698.4 -802.213 -578.033)
(-84892.1 -730.138 -597.261)
(-84135.9 -658.758 -607.774)
(-83424.2 -588.806 -596.764)
(-82716.9 -541.811 -564.271)
(-82171.1 -550.784 -526.75)
(-81904.8 -453.814 -556.191)
(-81350.2 -145.606 -686.934)
(-80540.9 -40.7177 -850.895)
(-79902.1 0.790157 -1033.47)
(-79274.6 97.6591 -1286.21)
(-78612.8 175.3 -1600.72)
(-77921.7 246.494 -2017.83)
(-77206.8 310.202 -2561.53)
(-76505.1 373.363 -3229.42)
(-75764.1 426.27 -4004.05)
(-74940.9 460.871 -4861.32)
(-74093.7 492.046 -5740.42)
(-73252.2 499.186 -6519.22)
(-72471 428.072 -7016.93)
(-71845.6 261.998 -6955.29)
(-71378.2 -0.936446 -5908.31)
(-70601.8 82.4193 -4173.7)
(-74845.9 732.474 -2524.78)
(-89539.7 1761.36 -4224.47)
(-98017.2 -6187.52 1539.23)
(-1569.27 -3929.48 5108.27)
(-85040.3 -1528.85 119.247)
(-95430.3 4394.57 2112.87)
(-97190.6 6460.08 2425.85)
(-101820 937.357 -5874.44)
(-105099 -3744.91 -9231.02)
(-99048.8 -5006.92 -6550.57)
(-96945.5 -3186.97 -3649.43)
(-97183.7 -1383.17 -1591.98)
(-97255.7 -561.865 650.274)
(-96507.3 402.405 1817.26)
(-96524.9 828.516 1806.15)
(-96867.5 974.335 1462.12)
(-97214.8 1005.91 919.092)
(-97737.4 981.311 372.498)
(-98337.5 907.536 -40.6956)
(-98463.6 881.275 -48.6994)
(-98363.2 965.129 -110.213)
(-98594.5 1031.16 -245.515)
(-98925.1 1083.35 -290.565)
(-99196.7 1124.95 -320.803)
(-99435.6 1160.4 -306.06)
(-99635.4 1194.91 -270.334)
(-99820.6 1228.96 -209.133)
(-100008 1263.89 -116.775)
(-100216 1302.48 8.45185)
(-100450 1346.6 160.936)
(-100712 1395.91 332.866)
(-100996 1447.7 516.716)
(-101297 1498.59 709.5)
(-101600 1548.9 907.522)
(-101878 1600.95 1094.56)
(-102110 1636.33 1263.2)
(-102323 1627.08 1433.87)
(-102502 1715.36 1592.72)
(-102597 1982.24 1714.89)
(-102630 2066.82 1803.31)
(-102642 2101.88 1853.14)
(-102705 2183.41 1866.23)
(-102833 2250.31 1812.01)
(-103015 2315.21 1665.75)
(-103312 2376.98 1412.21)
(-103779 2443.74 1051.48)
(-104423 2509.93 583.858)
(-105242 2570.96 13.9798)
(-106301 2643.03 -642.663)
(-107648 2714.47 -1302.45)
(-109353 2747.69 -1809.47)
(-111405 2737.23 -2055.18)
(-113231 2685.69 -2010.82)
(-113996 2664.71 -1626.49)
(-115804 2933.69 -1487.62)
(-124901 2621.83 -762.286)
(-128327 -11675.8 12712.7)
(-93242 -11513.2 10841.4)
(-99082.7 -6824.62 7456.56)
(-108428 -5531.79 5334.2)
(-107902 -5427.5 3903.25)
(-108958 -6663.8 -3417.77)
(-111394 -8122.92 -3328.81)
(-110245 -6904.19 -1885.72)
(-112266 -5134.72 -586.923)
(-113545 -3859.68 192.871)
(-113778 -2550.22 1304.21)
(-112707 -1450.06 1272.49)
(-111852 -1180.49 500.943)
(-111915 -1311.16 464.23)
(-112327 -1358.71 393.204)
(-112737 -1448.28 126.916)
(-113075 -1524.78 -111.482)
(-113006 -1585.61 -151.936)
(-112737 -1615.58 -271.342)
(-112478 -1662.2 -441.972)
(-112164 -1718.78 -557.476)
(-111716 -1779.59 -646.728)
(-111113 -1844.24 -696.874)
(-110335 -1907.37 -714.929)
(-109390 -1971.17 -696.033)
(-108302 -2031.69 -625.175)
(-107093 -2086.96 -493.716)
(-105790 -2135.96 -310.292)
(-104414 -2179 -85.0677)
(-102985 -2213.95 180.004)
(-101509 -2238.76 470.885)
(-100000 -2267.33 773.618)
(-98476.5 -2315.84 1074.3)
(-96938.2 -2385.96 1323.33)
(-95442.5 -2455.16 1462.63)
(-94025.3 -2490.56 1652.79)
(-92555 -2488.73 2015.58)
(-90960.9 -2512.93 2200.84)
(-89310.3 -2562.79 2254.75)
(-87605.4 -2618.7 2239.62)
(-85839.6 -2695.75 2134.75)
(-84017.5 -2792.77 1929.39)
(-82142.5 -2920.71 1590.03)
(-80223 -3086.48 1131.23)
(-78252.3 -3295.69 576.741)
(-76236.7 -3567.24 -68.7134)
(-74215 -3919.27 -755.878)
(-72203.7 -4364.16 -1352.93)
(-70199.5 -4933.99 -1704.48)
(-68157.3 -5670.08 -1595)
(-65511.6 -6631.8 -947.041)
(-61546.1 -7647.57 153.562)
(-61590.8 -8907.21 1397.64)
(-75181.4 -8544.03 -1044.47)
(-98727.3 -9420.13 5775.25)
(-31326.2 -4472.31 5607.01)
(-90375 -7016.29 1930.81)
(-96079.3 -5618.41 -5080.16)
(-96670.1 -4600.52 -2917.52)
(-99670.1 -5832.28 -6186.47)
(-99512.6 -7023.98 -3069.92)
(-95012 -6128.78 -287.629)
(-95198.2 -4074.37 -281.21)
(-95704.8 -1963.41 -532.044)
(-96470.2 -300.33 413.02)
(-96770.1 931.635 555.113)
(-96808.4 1421.63 240.66)
(-97055.1 1397.07 -33.5746)
(-97436.8 1423.38 -286.802)
(-97905.9 1430.06 -515.712)
(-98337.7 1456.67 -643.599)
(-98379.7 1494.96 -661.24)
(-98290.4 1570.59 -845.422)
(-98351.1 1626.69 -1071.58)
(-98447.2 1666.81 -1232.61)
(-98501.9 1699.35 -1357.91)
(-98510.3 1723.69 -1429.34)
(-98464.6 1744.93 -1461.7)
(-98387.3 1760.06 -1447.84)
(-98305.2 1773.53 -1374.47)
(-98250.9 1787.1 -1234.7)
(-98246.9 1801.64 -1032.97)
(-98307.6 1816.75 -774.074)
(-98439.4 1834.6 -461.153)
(-98640.6 1857.78 -103.703)
(-98907.5 1872.31 286.941)
(-99218 1861.83 690.574)
(-99521.3 1823.87 1090.99)
(-99823.4 1780.02 1498.01)
(-100144 1777.44 1921.58)
(-100439 1825.74 2342.18)
(-100689 1852.95 2755.45)
(-100881 1861.41 3119.14)
(-100983 1873.46 3385.02)
(-100987 1876.81 3574.68)
(-100896 1876.8 3659.69)
(-100699 1865.24 3601.04)
(-100368 1840.61 3396.71)
(-99876.8 1803.84 3059.81)
(-99190.2 1742.27 2582.64)
(-98286.3 1643.04 1969.25)
(-97147.7 1491.85 1331.49)
(-95743.3 1254.44 796.661)
(-93935.8 897.903 444.082)
(-91063.3 336.732 85.7665)
(-87209.2 -469.651 -577.782)
(-86179.7 -1516.43 -1887.66)
(-96581.8 -1618.45 -1458.06)
(-108745 -1419.57 17376.7)
(-59383.7 -5956.51 11328.8)
(-108629 -4673.4 7672.17)
(-109445 -3882.62 2669.03)
(-109359 -4042.07 2287.48)
(-110968 -3822.65 -1003.69)
(-111391 -4180.36 254.687)
(-110585 -3013.14 -459.692)
(-111912 -2419.4 -523.308)
(-113418 -2600.63 -113.837)
(-114719 -2268.15 903.415)
(-115410 -1625.2 1150.65)
(-115537 -1136.43 940.08)
(-115967 -1132.37 708.404)
(-117079 -1173.1 481.445)
(-118259 -1242.5 115.244)
(-119314 -1298.64 -105.737)
(-120134 -1361.47 -309.996)
(-120859 -1421.77 -618.635)
(-121600 -1502.42 -973.362)
(-122323 -1593.69 -1328.7)
(-122987 -1699.16 -1686)
(-123578 -1811.34 -2041.12)
(-124063 -1933.86 -2391.71)
(-124435 -2068.54 -2724.41)
(-124694 -2219.39 -3009.83)
(-124853 -2387.66 -3237.01)
(-124907 -2568.87 -3409.08)
(-124838 -2761.99 -3529.27)
(-124646 -2976.92 -3605.36)
(-124345 -3214.45 -3650.21)
(-123931 -3467.67 -3682.77)
(-123386 -3738.27 -3720.76)
(-122689 -4023.48 -3793.5)
(-121851 -4308.2 -3926.67)
(-120863 -4598.21 -4063.92)
(-119688 -4926.45 -4195.49)
(-118379 -5302.23 -4411.24)
(-116941 -5714.48 -4720.22)
(-115360 -6171.52 -5127.61)
(-113628 -6683.38 -5667.78)
(-111755 -7257.81 -6369.42)
(-109758 -7907.58 -7253.08)
(-107636 -8640.81 -8330.89)
(-105384 -9463.95 -9612.74)
(-102994 -10386.9 -11096.9)
(-100455 -11423.1 -12754.5)
(-97732.8 -12589.5 -14514.2)
(-94799.3 -13904 -16271.8)
(-91492.1 -15375.2 -18007.3)
(-87174.6 -17077.9 -19873.9)
(-81372.7 -18988.2 -21788.5)
(-78090.6 -21513.5 -23598)
(-77970.1 -21721.5 -23127.7)
(-84630 -38732.4 -40887.1)
(-10696.9 106.016 -2743.77)
(-104725 -4097.94 10142.2)
(-101714 -3367.03 4981.08)
(-99516.9 -3407.14 5329.69)
(-100680 -2698.75 2899.62)
(-101365 -2808.63 6988.43)
(-98941 -2028.63 6065.59)
(-98942.1 -1088.66 3552.48)
(-99121.3 -459.112 1695.7)
(-99493.2 102.964 1500.76)
(-99730.5 776.768 1681.29)
(-99590.8 1427.29 1469.31)
(-99588.2 1577.29 1045.18)
(-100012 1663.06 782.993)
(-100535 1725.51 569.528)
(-100838 1800.2 429.047)
(-100870 1874.38 281.245)
(-100831 1962.2 18.038)
(-100818 2032.48 -279.623)
(-100772 2097.36 -561.449)
(-100659 2155.1 -831.265)
(-100462 2215.06 -1074.82)
(-100157 2274.12 -1297.82)
(-99745.7 2332.18 -1481.85)
(-99250.5 2386.22 -1602.24)
(-98704.4 2436.3 -1642.68)
(-98133.9 2488.63 -1600.88)
(-97556.6 2545.87 -1484.11)
(-96988.3 2597.51 -1305.71)
(-96431.5 2643.42 -1087.43)
(-95888.6 2694.12 -844.408)
(-95368.9 2749.41 -567.42)
(-94856.5 2810.98 -260.563)
(-94355.9 2896.33 22.4729)
(-93882.2 3001 278.924)
(-93430.4 3089.23 531.858)
(-93006.3 3158.36 778.93)
(-92603.6 3231.01 1018.41)
(-92191.6 3316.98 1214.34)
(-91774.7 3415.8 1342.07)
(-91368.3 3530.16 1378.44)
(-90977 3655.42 1317.23)
(-90588.4 3793.54 1150.59)
(-90173.8 3950.55 879.261)
(-89684.4 4126.01 519.118)
(-89061.8 4308.87 91.1081)
(-88258.2 4479.13 -342.868)
(-87229.5 4606.31 -675.158)
(-85842.8 4675.92 -861.872)
(-83476.7 4612.81 -964.879)
(-80606.6 4349.56 -1081.7)
(-81556.8 3161.48 -619.404)
(-91874.7 3579.66 1653.8)
(-102943 6606.05 4750.47)
(-9668.39 10013.1 7291.13)
(-111823 -4072.48 2820.21)
(-107861 -3457.8 1443.7)
(-106425 -4255.84 473.734)
(-105562 -3257.78 -1233.19)
(-104511 -2115.33 490.96)
(-103857 -778.251 1182.78)
(-103885 -885.236 1573.21)
(-104101 -1430.49 2048.08)
(-104344 -1483.34 2412.97)
(-103926 -1029.02 2327.21)
(-103353 -802.891 2508.71)
(-103583 -839.07 2388.18)
(-104290 -870.521 2290.15)
(-104956 -905.435 2217.91)
(-105519 -945.935 2194.46)
(-106007 -982.728 2127.73)
(-106479 -1020.16 1997.23)
(-106992 -1068.97 1815.78)
(-107542 -1123.49 1621.38)
(-108122 -1187.22 1407.22)
(-108714 -1252.48 1193.13)
(-109285 -1326.18 977.025)
(-109827 -1410.7 788.068)
(-110350 -1510.84 659.037)
(-110871 -1620.05 611.323)
(-111378 -1730.9 647.842)
(-111850 -1846.87 755.965)
(-112269 -1967.13 906.728)
(-112608 -2086.69 1083.34)
(-112837 -2201.87 1289.68)
(-112947 -2304.44 1511.21)
(-112950 -2384.43 1723.23)
(-112846 -2444.93 1932.33)
(-112574 -2496.14 2148.77)
(-112086 -2551.74 2329.56)
(-111393 -2611.7 2447)
(-110526 -2672.26 2520.27)
(-109498 -2733 2539.83)
(-108312 -2795.14 2483.32)
(-106981 -2862.14 2332.32)
(-105536 -2937.71 2070.17)
(-104016 -3025.94 1672.85)
(-102463 -3126.74 1109.59)
(-100903 -3244.92 357.552)
(-99345.6 -3398.99 -567.445)
(-97769 -3612.78 -1681.1)
(-96145.1 -3926.56 -2991.74)
(-94099.3 -4379.51 -4648.98)
(-90612.6 -4950.44 -6534.09)
(-85221.3 -5595.63 -8659.33)
(-80781.6 -6129.88 -12781.1)
(-83358.2 -5918.47 -15045)
(-93045 -3052.72 -17353.4)
(-13506.4 4551.83 -2503.54)
(-113824 -2778.6 4538.19)
(-108125 -2252.59 3615.01)
(-104627 -2696.02 3148.26)
(-102382 -1220.05 -631.589)
(-103141 30.8412 3232.72)
(-103253 874.124 3684.17)
(-103067 913.902 2526.88)
(-102841 705.44 2333.09)
(-102796 679.383 2853.76)
(-102062 1147.06 2867.5)
(-101423 1497.73 2392.06)
(-101567 1580.96 1883.98)
(-102086 1637.54 1651.72)
(-102501 1696.46 1498.02)
(-102727 1752.35 1337.98)
(-102848 1810.98 1144.89)
(-102934 1869.1 886.617)
(-103014 1915.34 592.847)
(-103073 1955.93 286.134)
(-103098 1987.22 -30.147)
(-103062 2016.88 -347.345)
(-102931 2037.72 -660.38)
(-102694 2046.82 -936.731)
(-102371 2037.11 -1130.67)
(-101997 2011.61 -1210.32)
(-101609 1974.31 -1177.21)
(-101226 1918.42 -1051.69)
(-100862 1841.01 -858.876)
(-100517 1743.68 -634.047)
(-100185 1628.75 -396.567)
(-99870.5 1504.54 -129.953)
(-99589.7 1381.13 152.065)
(-99331.3 1260.04 412.2)
(-99067.7 1137.16 641.009)
(-98806.1 999.396 829.152)
(-98568.8 844.408 961.104)
(-98358.8 679.233 1052.4)
(-98191.7 502.879 1100.25)
(-98089.8 314.354 1086.63)
(-98077.1 110.434 993.18)
(-98180.4 -111.953 808.188)
(-98424.4 -354.495 512.293)
(-98816.1 -614.394 98.1026)
(-99334.8 -896.001 -438.847)
(-99945.8 -1219.12 -1099.96)
(-100611 -1601.01 -1891.62)
(-101316 -2073.39 -2812.18)
(-101870 -2644.17 -3886.3)
(-101586 -3291.8 -5220.9)
(-100114 -4104.59 -6912.5)
(-100314 -4927.39 -9274.87)
(-111498 -4412.83 -9642.95)
(-106960 -4466.97 -24191.7)
(-33328.1 -3440.6 -13642.2)
(-115339 -3831.94 -5073.32)
(-111289 -3602.98 -2832.23)
(-109885 -4511.29 -3362.19)
(-108044 -3922.52 -3314)
(-105797 -2581.44 -2492.51)
(-104662 -1398.26 -1201.26)
(-104837 -1399.29 -133.03)
(-105164 -1427.49 503.9)
(-105329 -1022.31 753.227)
(-104417 -465.13 958.038)
(-103218 -305.765 977.334)
(-102750 -300.021 861.737)
(-102554 -275.447 848.493)
(-102326 -262.666 869.37)
(-102046 -243.221 864.358)
(-101718 -218.535 814.258)
(-101357 -196.567 711.067)
(-100971 -174.765 561.667)
(-100573 -158.198 391.859)
(-100163 -141.249 205.884)
(-99721.6 -125.986 21.4885)
(-99219.8 -110.912 -162.279)
(-98653.6 -96.5892 -301.34)
(-98086.3 -81.0915 -324.911)
(-97626.1 -61.8373 -194.774)
(-97348.1 -43.9127 52.0491)
(-97260.1 -33.5833 355.036)
(-97336.1 -29.7884 678.259)
(-97517.9 -37.9594 983.214)
(-97746.9 -67.7509 1247.13)
(-98003.6 -93.6447 1478.08)
(-98213.4 -94.6444 1679.83)
(-98313.8 -91.1386 1855.11)
(-98305.9 -81.6696 2012.85)
(-98197.2 -62.5233 2107.76)
(-97997.6 -32.7192 2132.65)
(-97708.8 6.43048 2096.95)
(-97342 55.599 1992.38)
(-96930.6 115.397 1809.37)
(-96522.8 185.042 1537.46)
(-96184.6 262.237 1174.2)
(-95982.9 343.003 738.385)
(-95990.8 422.808 226.366)
(-96288.3 490.856 -375.087)
(-96886.7 537.435 -1032.94)
(-97832.4 551.874 -1780.49)
(-99254.5 487.201 -2703.58)
(-100997 296.208 -4261.34)
(-102253 -69.8137 -6684.73)
(-102019 -882.645 -10387.1)
(-101928 -2073.87 -15980.2)
(-116916 -3660.99 -23945.6)
(-118692 -3077.35 -36454.4)
(-77214.6 1471.93 -15059.8)
(-116996 -2477.48 -2555.58)
(-112222 -2255.59 426.608)
(-109901 -2785.42 791.188)
(-106859 -2093.93 -2151)
(-105013 -670.915 -720.519)
(-104465 278.727 107.662)
(-105009 308.766 912.647)
(-105575 385.879 2145.47)
(-105961 794.935 3071.46)
(-105271 1359.79 3064.65)
(-104576 1575.1 2737.92)
(-104552 1630.98 2526.1)
(-104683 1698.81 2432.32)
(-104728 1755.98 2335.84)
(-104725 1816.89 2212.61)
(-104700 1881.16 2038.43)
(-104643 1940.68 1800.83)
(-104566 1997.38 1511.19)
(-104468 2045.67 1187.78)
(-104371 2089.88 836.34)
(-104254 2127.31 458.516)
(-104080 2159.26 60.1728)
(-103833 2184.53 -312.977)
(-103539 2205 -579.613)
(-103256 2225.39 -690.361)
(-103017 2244.89 -662.961)
(-102818 2259.15 -528.286)
(-102645 2266.9 -315.838)
(-102481 2261.13 -75.5546)
(-102292 2233.32 163.498)
(-102082 2205.57 426.198)
(-101845 2191.11 682.971)
(-101558 2161.27 930.544)
(-101224 2116.77 1168.29)
(-100855 2063.45 1371.09)
(-100452 2002.16 1533.48)
(-100001 1932.39 1649.39)
(-99516.3 1854.73 1726.79)
(-99033.2 1770.04 1766.03)
(-98584.4 1679.15 1762.19)
(-98214.2 1582.3 1709.29)
(-97965.8 1477.47 1596.27)
(-97859 1364.51 1424.76)
(-97905 1238.33 1197.01)
(-98108.8 1097.39 891.488)
(-98470.5 937.783 472.871)
(-99081.8 717.597 -72.1344)
(-99934.1 375.012 -810.25)
(-100689 -194.815 -1900.59)
(-101474 -1270.02 -3867.2)
(-106483 -2455.67 -7898.57)
(-126813 -3245.13 -15458.8)
(-140900 -4376.47 -32635.3)
(-99487.8 -415.939 -12161.7)
(-113679 -3188.48 -8131.68)
(-111606 -3197.59 -3449.76)
(-111097 -3541.51 -2299.06)
(-110521 -3242.13 -1268.38)
(-109179 -2363.54 -1197.52)
(-108539 -1892.73 -1288.33)
(-109549 -2120.09 -1172.94)
(-110502 -2029.95 -1334.34)
(-110683 -1520.56 -1131.94)
(-110152 -1142.91 -473.111)
(-109729 -1044.12 -333.378)
(-109639 -1049.18 -402.728)
(-109599 -1058.41 -475.75)
(-109511 -1075.23 -578.703)
(-109348 -1081.16 -736.498)
(-109093 -1080.78 -961.247)
(-108736 -1075.13 -1261.42)
(-108271 -1063.57 -1629.88)
(-107697 -1048.87 -2065.01)
(-107000 -1027.37 -2546.8)
(-106130 -1001.82 -3078.91)
(-104999 -966.959 -3662.83)
(-103511 -920.309 -4234.25)
(-101689 -858.482 -4617.53)
(-99707 -779.222 -4696.72)
(-97765.9 -680.077 -4538.55)
(-95975.1 -557.241 -4266.24)
(-94400.4 -414.348 -3956.37)
(-93064.9 -268.622 -3671.46)
(-91937.5 -144.975 -3457.33)
(-91039.6 -31.1796 -3315.94)
(-90374.2 79.163 -3218.75)
(-89881.4 184.69 -3190.86)
(-89536.3 273.074 -3222.12)
(-89311.4 337.463 -3337.5)
(-89190.6 384.915 -3507.63)
(-89172.7 420.232 -3708.68)
(-89266.4 443.812 -3935)
(-89482.8 458.409 -4170.68)
(-89838.8 464.902 -4387.26)
(-90351.2 463.848 -4541.2)
(-90981.2 461.022 -4561.77)
(-91693.5 462.604 -4425.79)
(-92450.3 472.276 -4074.1)
(-93217.8 498.315 -3459.68)
(-93964.1 543.258 -2565.59)
(-94758.8 580.189 -1409.12)
(-95539.5 574.866 -220.202)
(-95982.9 496.274 811.666)
(-96219.4 158.888 1333.34)
(-100409 -636.51 2066.38)
(-122763 -1465.62 3248.72)
(-146389 -1962.6 -8560.77)
(-107600 1429.4 9416.62)
(-114090 -1654.16 -4580.28)
(-111645 -1485.4 1284.66)
(-110790 -1779.27 3150.83)
(-108846 -1499.64 2118.75)
(-106323 -431.963 1831.72)
(-105581 100.279 898.976)
(-106298 -30.582 1522.91)
(-106338 171.612 2135.27)
(-105809 762.069 2513.4)
(-105072 1202.9 2806.69)
(-104568 1388.36 2962)
(-104236 1476.7 3042.1)
(-103880 1549.9 3080.55)
(-103508 1608.64 3082.69)
(-103108 1678.48 3027.11)
(-102675 1751.99 2891.97)
(-102198 1827.4 2673.45)
(-101685 1905.14 2369.73)
(-101131 1981.42 1997.48)
(-100529 2060.15 1569.84)
(-99852.8 2136.93 1086.99)
(-99044.4 2214.89 541.521)
(-98049.6 2291.97 -14.2977)
(-96928.4 2366.59 -425.269)
(-95877.4 2437.41 -594.437)
(-95054 2507.15 -584.827)
(-94471.8 2582.74 -492.874)
(-94096.1 2665.45 -372.345)
(-93869.9 2745.71 -266.537)
(-93674.8 2806.94 -172.568)
(-93503.8 2862.45 -81.3075)
(-93352.9 2918.58 -11.6323)
(-93168.6 2976.55 9.22512)
(-92963.8 3023.6 -11.1494)
(-92736.3 3050.77 -81.4631)
(-92478.1 3062.71 -185.616)
(-92206 3062.91 -312.287)
(-91936.5 3050.93 -457.635)
(-91692.5 3028.13 -611.097)
(-91503.3 2994.36 -753.492)
(-91398.3 2947.99 -861.046)
(-91409.8 2888.91 -912.159)
(-91572.5 2817.62 -882.007)
(-91908.4 2732.52 -744.264)
(-92434.5 2635.65 -478.21)
(-93196.2 2526.32 -58.2896)
(-94322 2377.39 549.271)
(-95825.1 2124.48 1335.81)
(-97611.8 1707.67 2396.92)
(-100141 964.585 3721.78)
(-110542 -20.8785 4916.62)
(-144361 -814.323 3557.43)
(-192276 -2387.95 -7991.58)
(-188049 1023.75 12481.4)
(-106145 -2044.34 -7815.62)
(-106228 -2019.84 -2507.9)
(-105829 -2065.72 -325.201)
(-107193 -2191.41 564.762)
(-107500 -2049.33 766.61)
(-107397 -2370.19 122.788)
(-108528 -2348.33 -266.333)
(-109515 -1987.01 -199.082)
(-109718 -1604.06 284.538)
(-109890 -1547.87 602.605)
(-110302 -1563.23 571.393)
(-110729 -1612.68 454.87)
(-111179 -1660.67 320.603)
(-111610 -1713.83 146.976)
(-111990 -1759.44 -85.2136)
(-112313 -1799.68 -390.116)
(-112576 -1832.7 -777.712)
(-112796 -1862.83 -1258.56)
(-112992 -1886.56 -1841.8)
(-113173 -1907.69 -2515.18)
(-113324 -1922.5 -3284.41)
(-113337 -1928.65 -4175.33)
(-113017 -1930.19 -5135.12)
(-112325 -1943.78 -5858.68)
(-111497 -1987.03 -6031.29)
(-110745 -2058.62 -5754.25)
(-110082 -2142.52 -5284.47)
(-109491 -2230.66 -4758.3)
(-108970 -2325.83 -4257.85)
(-108515 -2420.98 -3827.25)
(-108122 -2493.83 -3505.12)
(-107771 -2548.04 -3277.61)
(-107445 -2587.8 -3141.9)
(-107148 -2616.78 -3098.3)
(-106879 -2644.81 -3134.19)
(-106636 -2674.53 -3239.16)
(-106411 -2706.94 -3401.35)
(-106200 -2741.52 -3611.51)
(-105996 -2778.88 -3860.11)
(-105788 -2823.44 -4137.6)
(-105555 -2879.51 -4436.54)
(-105265 -2953.89 -4744.93)
(-104885 -3056.4 -5032.15)
(-104374 -3190.31 -5269.21)
(-103693 -3355.92 -5448.01)
(-102865 -3559.05 -5572.2)
(-101942 -3793.83 -5636.49)
(-101039 -4092.4 -5637.12)
(-100023 -4515.29 -5558.62)
(-98068.4 -5157.51 -5611.18)
(-101720 -5936.48 -4971.3)
(-119347 -6268.55 -2065.32)
(-120203 1244.93 476.114)
(-138183 2977.87 7909.27)
(-109466 -532.838 -5422.06)
(-111390 -351.275 696.557)
(-111833 -617.866 2672.64)
(-111938 -640.456 2058.77)
(-111256 -292.143 1357.92)
(-110679 -500.17 917.031)
(-110736 -396.63 1653.99)
(-110902 18.2957 1852.29)
(-110809 448.225 1883.13)
(-110780 571.969 1952.2)
(-110750 642.246 1966.34)
(-110657 681.658 1962.57)
(-110543 718.034 1938.79)
(-110396 751.905 1887.96)
(-110178 796.864 1774.14)
(-109883 849.796 1587.21)
(-109484 914.557 1318.81)
(-108974 988.75 961.584)
(-108347 1077.65 517.058)
(-107582 1180.28 -1.09868)
(-106637 1303.34 -582.704)
(-105384 1452.44 -1251.93)
(-103597 1628.04 -1969.67)
(-101206 1818.24 -2444.09)
(-98506.2 2001.42 -2366.19)
(-95887.7 2162.42 -1870.32)
(-93533.3 2301.98 -1233.7)
(-91533.3 2418.99 -596.146)
(-89962 2499.08 -34.3599)
(-88779.1 2544.37 456.341)
(-87919.3 2581.05 826.311)
(-87356.9 2606.05 1070.49)
(-86991.2 2620.19 1192.91)
(-86743.8 2620.74 1212.55)
(-86596.4 2594.19 1129.18)
(-86494.3 2539.8 937.428)
(-86417.9 2455.06 651.773)
(-86380.1 2335.46 285.686)
(-86375 2179.01 -150.551)
(-86408.2 1979.18 -641.723)
(-86488 1730.65 -1172.07)
(-86617.8 1431.95 -1715.14)
(-86810.8 1080.34 -2235.06)
(-87092.4 671.971 -2704.6)
(-87499.8 203.554 -3104.4)
(-88132.3 -335.485 -3430.87)
(-89139.6 -952.954 -3722.56)