/*--------------------------------*- C++ -*----------------------------------*\
| =========                 |                                                 |
| \\      /  F ield         | OpenFOAM: The Open Source CFD Toolbox           |
|  \\    /   O peration     | Version:  4.1                                   |
|   \\  /    A nd           | Web:      www.OpenFOAM.org                      |
|    \\/     M anipulation  |                                                 |
\*---------------------------------------------------------------------------*/
FoamFile
{
    version     2.0;
    format      ascii;
    class       volScalarField;
    location    "68";
    object      p;
}
// * * * * * * * * * * * * * * * * * * * * * * * * * * * * * * * * * * * * * //

dimensions      [0 2 -2 0 0 0 0];

internalField   nonuniform List<scalar> 
4432
(
-3.91888e+10
-3.96214e+10
-4.01857e+10
-4.0035e+10
-4.00772e+10
-4.02787e+10
-4.03845e+10
-4.04705e+10
-4.05463e+10
-4.06221e+10
-4.06966e+10
-4.07634e+10
-4.08142e+10
-4.08443e+10
-4.08561e+10
-4.08502e+10
-4.08209e+10
-4.0766e+10
-4.06851e+10
-4.05789e+10
-4.04479e+10
-4.02952e+10
-4.01248e+10
-3.99421e+10
-3.97531e+10
-3.95644e+10
-3.93822e+10
-3.92132e+10
-3.90632e+10
-3.89369e+10
-3.88368e+10
-3.87627e+10
-3.87109e+10
-3.86727e+10
-3.86362e+10
-3.85882e+10
-3.85181e+10
-3.84229e+10
-3.83094e+10
-3.81947e+10
-3.81012e+10
-3.80494e+10
-3.80485e+10
-3.80984e+10
-3.82117e+10
-3.84097e+10
-3.85891e+10
-3.82829e+10
-3.6857e+10
-3.50842e+10
-3.7333e+10
-4.82977e+10
-5.82653e+10
-2.89006e+10
-3.94735e+10
-3.96095e+10
-3.99467e+10
-4.01159e+10
-4.01106e+10
-4.02613e+10
-4.03829e+10
-4.04642e+10
-4.05369e+10
-4.06162e+10
-4.06953e+10
-4.07639e+10
-4.08143e+10
-4.08443e+10
-4.08566e+10
-4.08508e+10
-4.08213e+10
-4.07659e+10
-4.06852e+10
-4.0579e+10
-4.0448e+10
-4.0295e+10
-4.01238e+10
-3.994e+10
-3.97493e+10
-3.95582e+10
-3.93731e+10
-3.92005e+10
-3.90463e+10
-3.89153e+10
-3.881e+10
-3.87305e+10
-3.86731e+10
-3.86297e+10
-3.85894e+10
-3.85395e+10
-3.84698e+10
-3.83771e+10
-3.82677e+10
-3.81589e+10
-3.80735e+10
-3.80319e+10
-3.80424e+10
-3.81038e+10
-3.82273e+10
-3.84297e+10
-3.85922e+10
-3.81956e+10
-3.64655e+10
-3.39568e+10
-3.51941e+10
-4.69176e+10
-6.14142e+10
-3.70773e+10
-3.97437e+10
-3.9766e+10
-3.99508e+10
-4.02158e+10
-4.0231e+10
-4.03129e+10
-4.04505e+10
-4.05376e+10
-4.06124e+10
-4.06937e+10
-4.07735e+10
-4.08501e+10
-4.09124e+10
-4.09499e+10
-4.09638e+10
-4.09589e+10
-4.09318e+10
-4.08765e+10
-4.07927e+10
-4.06793e+10
-4.05373e+10
-4.03695e+10
-4.01802e+10
-3.99764e+10
-3.97649e+10
-3.95537e+10
-3.93495e+10
-3.91598e+10
-3.89901e+10
-3.88456e+10
-3.87287e+10
-3.86393e+10
-3.85747e+10
-3.85269e+10
-3.84846e+10
-3.84355e+10
-3.83697e+10
-3.82841e+10
-3.81834e+10
-3.80824e+10
-3.80015e+10
-3.79569e+10
-3.79517e+10
-3.79795e+10
-3.80498e+10
-3.81777e+10
-3.82129e+10
-3.75474e+10
-3.53819e+10
-3.26865e+10
-3.47214e+10
-4.7326e+10
-6.00833e+10
-3.66626e+10
-3.97324e+10
-3.98256e+10
-4.00298e+10
-4.01798e+10
-4.02236e+10
-4.03149e+10
-4.04509e+10
-4.05314e+10
-4.06073e+10
-4.06885e+10
-4.07711e+10
-4.08491e+10
-4.09103e+10
-4.09461e+10
-4.09598e+10
-4.09567e+10
-4.093e+10
-4.08743e+10
-4.07907e+10
-4.06778e+10
-4.05362e+10
-4.03686e+10
-4.01795e+10
-3.99755e+10
-3.97635e+10
-3.95516e+10
-3.93464e+10
-3.91553e+10
-3.8984e+10
-3.88377e+10
-3.8719e+10
-3.86278e+10
-3.85607e+10
-3.85101e+10
-3.84656e+10
-3.84151e+10
-3.83486e+10
-3.82628e+10
-3.81627e+10
-3.80632e+10
-3.79843e+10
-3.79416e+10
-3.79377e+10
-3.79661e+10
-3.80361e+10
-3.81596e+10
-3.81764e+10
-3.74384e+10
-3.5074e+10
-3.22209e+10
-3.52498e+10
-5.0739e+10
-6.21739e+10
-3.00562e+10
-4.01028e+10
-4.00836e+10
-3.99931e+10
-4.02298e+10
-4.03023e+10
-4.03561e+10
-4.04445e+10
-4.05288e+10
-4.06098e+10
-4.06915e+10
-4.07721e+10
-4.08527e+10
-4.09198e+10
-4.0962e+10
-4.09814e+10
-4.09819e+10
-4.09601e+10
-4.09103e+10
-4.0831e+10
-4.07196e+10
-4.05756e+10
-4.04009e+10
-4.02006e+10
-3.9982e+10
-3.97536e+10
-3.95244e+10
-3.93021e+10
-3.90944e+10
-3.89074e+10
-3.87466e+10
-3.86145e+10
-3.85097e+10
-3.84275e+10
-3.8361e+10
-3.83007e+10
-3.82355e+10
-3.81571e+10
-3.80632e+10
-3.79603e+10
-3.78628e+10
-3.7789e+10
-3.77511e+10
-3.77489e+10
-3.77802e+10
-3.78694e+10
-3.80549e+10
-3.81901e+10
-3.75961e+10
-3.53457e+10
-3.2455e+10
-3.45872e+10
-4.74586e+10
-5.90718e+10
-2.98229e+10
-3.99901e+10
-4.00909e+10
-4.01399e+10
-4.01661e+10
-4.02596e+10
-4.03538e+10
-4.04453e+10
-4.05223e+10
-4.06071e+10
-4.06907e+10
-4.07742e+10
-4.08566e+10
-4.0926e+10
-4.09713e+10
-4.09945e+10
-4.10004e+10
-4.09824e+10
-4.09355e+10
-4.08588e+10
-4.07498e+10
-4.06077e+10
-4.04345e+10
-4.02353e+10
-4.00174e+10
-3.97896e+10
-3.95608e+10
-3.93391e+10
-3.91319e+10
-3.89452e+10
-3.87841e+10
-3.86509e+10
-3.85447e+10
-3.84611e+10
-3.83927e+10
-3.83295e+10
-3.82605e+10
-3.81775e+10
-3.80784e+10
-3.79704e+10
-3.78688e+10
-3.77923e+10
-3.77539e+10
-3.77544e+10
-3.77899e+10
-3.78798e+10
-3.80501e+10
-3.81236e+10
-3.73465e+10
-3.46689e+10
-3.11025e+10
-3.28774e+10
-4.68371e+10
-6.18533e+10
-3.71031e+10
-4.00785e+10
-4.01604e+10
-4.01732e+10
-4.02096e+10
-4.03224e+10
-4.04192e+10
-4.05046e+10
-4.05859e+10
-4.06739e+10
-4.07659e+10
-4.08594e+10
-4.09532e+10
-4.10347e+10
-4.10938e+10
-4.11298e+10
-4.1143e+10
-4.11273e+10
-4.10792e+10
-4.09961e+10
-4.08756e+10
-4.07161e+10
-4.05198e+10
-4.02931e+10
-4.0046e+10
-3.97904e+10
-3.95376e+10
-3.92974e+10
-3.9078e+10
-3.88858e+10
-3.8726e+10
-3.85998e+10
-3.85031e+10
-3.84279e+10
-3.83679e+10
-3.83143e+10
-3.82528e+10
-3.81752e+10
-3.80786e+10
-3.79674e+10
-3.78538e+10
-3.77518e+10
-3.76695e+10
-3.76036e+10
-3.75507e+10
-3.75412e+10
-3.76256e+10
-3.7675e+10
-3.70255e+10
-3.47017e+10
-3.15015e+10
-3.29056e+10
-4.57363e+10
-6.04115e+10
-3.5051e+10
-4.01346e+10
-4.01904e+10
-4.01821e+10
-4.01732e+10
-4.02946e+10
-4.04219e+10
-4.05063e+10
-4.05847e+10
-4.06763e+10
-4.07698e+10
-4.08658e+10
-4.09611e+10
-4.10447e+10
-4.11077e+10
-4.11493e+10
-4.11679e+10
-4.11568e+10
-4.11122e+10
-4.10316e+10
-4.09124e+10
-4.07536e+10
-4.05574e+10
-4.03303e+10
-4.00824e+10
-3.9826e+10
-3.95725e+10
-3.9332e+10
-3.91123e+10
-3.89194e+10
-3.87574e+10
-3.86272e+10
-3.85261e+10
-3.84473e+10
-3.83814e+10
-3.83174e+10
-3.82448e+10
-3.81552e+10
-3.8046e+10
-3.79237e+10
-3.78029e+10
-3.77007e+10
-3.76289e+10
-3.75884e+10
-3.75793e+10
-3.76324e+10
-3.77925e+10
-3.79055e+10
-3.72364e+10
-3.47482e+10
-3.15591e+10
-3.42817e+10
-4.9723e+10
-6.19396e+10
-3.02735e+10
-4.01418e+10
-4.01754e+10
-4.02157e+10
-4.02166e+10
-4.02986e+10
-4.03961e+10
-4.04887e+10
-4.05769e+10
-4.06733e+10
-4.07799e+10
-4.08896e+10
-4.09944e+10
-4.10877e+10
-4.11625e+10
-4.12168e+10
-4.12459e+10
-4.12435e+10
-4.12052e+10
-4.1127e+10
-4.10054e+10
-4.08367e+10
-4.06221e+10
-4.03684e+10
-4.00887e+10
-3.9799e+10
-3.95143e+10
-3.92472e+10
-3.9007e+10
-3.88001e+10
-3.86302e+10
-3.84967e+10
-3.83942e+10
-3.83141e+10
-3.82477e+10
-3.81846e+10
-3.81127e+10
-3.80233e+10
-3.79142e+10
-3.77911e+10
-3.76671e+10
-3.75573e+10
-3.74712e+10
-3.74073e+10
-3.73663e+10
-3.73812e+10
-3.75052e+10
-3.76207e+10
-3.70844e+10
-3.48739e+10
-3.14818e+10
-3.18546e+10
-4.32776e+10
-5.91254e+10
-3.50295e+10
-4.02177e+10
-4.02379e+10
-4.02085e+10
-4.02008e+10
-4.02965e+10
-4.04079e+10
-4.05042e+10
-4.05959e+10
-4.06922e+10
-4.07963e+10
-4.09053e+10
-4.10107e+10
-4.11034e+10
-4.11778e+10
-4.1232e+10
-4.1261e+10
-4.12592e+10
-4.12226e+10
-4.11476e+10
-4.10298e+10
-4.08657e+10
-4.06558e+10
-4.04067e+10
-4.01311e+10
-3.98443e+10
-3.95616e+10
-3.92955e+10
-3.90552e+10
-3.88467e+10
-3.8673e+10
-3.85339e+10
-3.84252e+10
-3.83389e+10
-3.82647e+10
-3.81913e+10
-3.81076e+10
-3.80058e+10
-3.78841e+10
-3.77494e+10
-3.76162e+10
-3.75023e+10
-3.74191e+10
-3.73673e+10
-3.73497e+10
-3.7401e+10
-3.75744e+10
-3.7741e+10
-3.72172e+10
-3.49845e+10
-3.193e+10
-3.39792e+10
-4.77591e+10
-6.08175e+10
-3.04949e+10
-4.02454e+10
-4.02543e+10
-4.02681e+10
-4.02903e+10
-4.0358e+10
-4.04498e+10
-4.05468e+10
-4.06429e+10
-4.07469e+10
-4.08688e+10
-4.10022e+10
-4.11295e+10
-4.12454e+10
-4.1346e+10
-4.14263e+10
-4.14777e+10
-4.1493e+10
-4.14662e+10
-4.13939e+10
-4.12708e+10
-4.10915e+10
-4.08535e+10
-4.05643e+10
-4.02421e+10
-3.991e+10
-3.95898e+10
-3.9298e+10
-3.90451e+10
-3.88361e+10
-3.86713e+10
-3.85472e+10
-3.84564e+10
-3.83898e+10
-3.83357e+10
-3.82811e+10
-3.82144e+10
-3.81275e+10
-3.80183e+10
-3.78936e+10
-3.77686e+10
-3.76622e+10
-3.75889e+10
-3.7554e+10
-3.75652e+10
-3.76606e+10
-3.78993e+10
-3.81823e+10
-3.78982e+10
-3.60552e+10
-3.32324e+10
-3.47028e+10
-4.6995e+10
-5.93596e+10
-3.02109e+10
-4.02606e+10
-4.02714e+10
-4.02719e+10
-4.02872e+10
-4.0361e+10
-4.0448e+10
-4.0541e+10
-4.06413e+10
-4.07481e+10
-4.08674e+10
-4.09953e+10
-4.11207e+10
-4.12361e+10
-4.13372e+10
-4.14188e+10
-4.14723e+10
-4.14897e+10
-4.14651e+10
-4.13945e+10
-4.12735e+10
-4.10966e+10
-4.08613e+10
-4.05748e+10
-4.02551e+10
-3.99251e+10
-3.96062e+10
-3.93148e+10
-3.90615e+10
-3.88515e+10
-3.86851e+10
-3.85594e+10
-3.84678e+10
-3.84008e+10
-3.8347e+10
-3.82943e+10
-3.82313e+10
-3.81503e+10
-3.80499e+10
-3.79372e+10
-3.78272e+10
-3.77382e+10
-3.76837e+10
-3.76671e+10
-3.76922e+10
-3.77929e+10
-3.80212e+10
-3.82613e+10
-3.78677e+10
-3.58121e+10
-3.26933e+10
-3.39877e+10
-4.68201e+10
-6.0799e+10
-3.4538e+10
-4.02376e+10
-4.02443e+10
-4.02486e+10
-4.02876e+10
-4.03557e+10
-4.04484e+10
-4.05488e+10
-4.06508e+10
-4.07642e+10
-4.08982e+10
-4.10431e+10
-4.11866e+10
-4.13231e+10
-4.14473e+10
-4.1551e+10
-4.16244e+10
-4.16578e+10
-4.16441e+10
-4.15802e+10
-4.14605e+10
-4.12753e+10
-4.10142e+10
-4.06813e+10
-4.0301e+10
-3.99073e+10
-3.95316e+10
-3.91955e+10
-3.89113e+10
-3.86826e+10
-3.85069e+10
-3.83774e+10
-3.82852e+10
-3.82202e+10
-3.81698e+10
-3.81203e+10
-3.80598e+10
-3.79799e+10
-3.78789e+10
-3.77632e+10
-3.76466e+10
-3.75474e+10
-3.74799e+10
-3.745e+10
-3.74649e+10
-3.75596e+10
-3.77882e+10
-3.80471e+10
-3.77113e+10
-3.57271e+10
-3.25735e+10
-3.36825e+10
-4.66763e+10
-6.20335e+10
-3.55375e+10
-4.0219e+10
-4.02224e+10
-4.0252e+10
-4.02973e+10
-4.03635e+10
-4.04446e+10
-4.05411e+10
-4.06491e+10
-4.077e+10
-4.09058e+10
-4.1051e+10
-4.11973e+10
-4.13374e+10
-4.14652e+10
-4.1572e+10
-4.16475e+10
-4.16816e+10
-4.16682e+10
-4.16041e+10
-4.14845e+10
-4.12979e+10
-4.10341e+10
-4.06975e+10
-4.03133e+10
-3.99169e+10
-3.95398e+10
-3.92038e+10
-3.89208e+10
-3.86942e+10
-3.85211e+10
-3.83949e+10
-3.83061e+10
-3.8244e+10
-3.8196e+10
-3.81495e+10
-3.80925e+10
-3.8017e+10
-3.79215e+10
-3.78127e+10
-3.77048e+10
-3.76156e+10
-3.75587e+10
-3.75383e+10
-3.75589e+10
-3.76517e+10
-3.78633e+10
-3.80769e+10
-3.76479e+10
-3.54637e+10
-3.17546e+10
-3.1553e+10
-4.38617e+10
-6.35648e+10
-4.27671e+10
-4.02677e+10
-4.02591e+10
-4.02651e+10
-4.03129e+10
-4.03882e+10
-4.04766e+10
-4.05719e+10
-4.06764e+10
-4.08034e+10
-4.09553e+10
-4.11181e+10
-4.12849e+10
-4.14509e+10
-4.16089e+10
-4.17487e+10
-4.1858e+10
-4.1923e+10
-4.19346e+10
-4.18886e+10
-4.17814e+10
-4.15964e+10
-4.13084e+10
-4.09122e+10
-4.04434e+10
-3.99611e+10
-3.95139e+10
-3.91295e+10
-3.88187e+10
-3.85804e+10
-3.84067e+10
-3.82863e+10
-3.82076e+10
-3.81578e+10
-3.81235e+10
-3.80914e+10
-3.80495e+10
-3.79895e+10
-3.79094e+10
-3.78149e+10
-3.77191e+10
-3.76384e+10
-3.75851e+10
-3.75629e+10
-3.75767e+10
-3.76569e+10
-3.78505e+10
-3.80453e+10
-3.75985e+10
-3.53773e+10
-3.16196e+10
-3.14798e+10
-4.36667e+10
-6.19396e+10
-3.9417e+10
-4.02379e+10
-4.02185e+10
-4.02462e+10
-4.03078e+10
-4.03755e+10
-4.04504e+10
-4.05453e+10
-4.06559e+10
-4.07862e+10
-4.09367e+10
-4.11e+10
-4.12694e+10
-4.14387e+10
-4.16002e+10
-4.17436e+10
-4.1856e+10
-4.1924e+10
-4.19382e+10
-4.18957e+10
-4.17922e+10
-4.16104e+10
-4.1325e+10
-4.09305e+10
-4.04628e+10
-3.99811e+10
-3.9534e+10
-3.91494e+10
-3.8838e+10
-3.85987e+10
-3.84239e+10
-3.83024e+10
-3.82216e+10
-3.81687e+10
-3.81303e+10
-3.80931e+10
-3.8045e+10
-3.79769e+10
-3.7886e+10
-3.77776e+10
-3.76651e+10
-3.75653e+10
-3.74922e+10
-3.74522e+10
-3.74543e+10
-3.7537e+10
-3.77594e+10
-3.80257e+10
-3.771e+10
-3.56708e+10
-3.2065e+10
-3.1955e+10
-4.39976e+10
-6.17717e+10
-3.86593e+10
-4.0168e+10
-4.01558e+10
-4.01653e+10
-4.02118e+10
-4.0292e+10
-4.03811e+10
-4.04797e+10
-4.06005e+10
-4.07528e+10
-4.09329e+10
-4.11324e+10
-4.1346e+10
-4.15668e+10
-4.17849e+10
-4.19868e+10
-4.21551e+10
-4.22694e+10
-4.23139e+10
-4.22837e+10
-4.21807e+10
-4.19839e+10
-4.16402e+10
-4.11171e+10
-4.04705e+10
-3.98164e+10
-3.92399e+10
-3.8775e+10
-3.84267e+10
-3.81822e+10
-3.80216e+10
-3.79245e+10
-3.78727e+10
-3.78495e+10
-3.78388e+10
-3.78261e+10
-3.77995e+10
-3.7751e+10
-3.7679e+10
-3.75897e+10
-3.7497e+10
-3.74182e+10
-3.73672e+10
-3.73508e+10
-3.7379e+10
-3.74931e+10
-3.77563e+10
-3.80752e+10
-3.78242e+10
-3.58906e+10
-3.25929e+10
-3.31602e+10
-4.50635e+10
-5.88339e+10
-3.07893e+10
-4.01621e+10
-4.01413e+10
-4.01584e+10
-4.02128e+10
-4.02828e+10
-4.0365e+10
-4.0471e+10
-4.05996e+10
-4.07536e+10
-4.09347e+10
-4.11382e+10
-4.13581e+10
-4.15863e+10
-4.1813e+10
-4.20245e+10
-4.22031e+10
-4.23276e+10
-4.23801e+10
-4.23542e+10
-4.22504e+10
-4.20483e+10
-4.16953e+10
-4.11598e+10
-4.05015e+10
-3.9839e+10
-3.92593e+10
-3.87955e+10
-3.84507e+10
-3.82111e+10
-3.80567e+10
-3.79669e+10
-3.79228e+10
-3.79074e+10
-3.79042e+10
-3.78981e+10
-3.78758e+10
-3.7828e+10
-3.77522e+10
-3.76527e+10
-3.75413e+10
-3.74337e+10
-3.73427e+10
-3.72755e+10
-3.72454e+10
-3.73006e+10
-3.75178e+10
-3.78254e+10
-3.76213e+10
-3.57954e+10
-3.26618e+10
-3.35786e+10
-4.60122e+10
-5.88028e+10
-2.99626e+10
-4.01545e+10
-4.01615e+10
-4.0174e+10
-4.02087e+10
-4.02788e+10
-4.03645e+10
-4.04688e+10
-4.06054e+10
-4.07774e+10
-4.09819e+10
-4.12185e+10
-4.14818e+10
-4.17629e+10
-4.20491e+10
-4.23227e+10
-4.25605e+10
-4.27349e+10
-4.28207e+10
-4.28121e+10
-4.27222e+10
-4.25401e+10
-4.21731e+10
-4.1515e+10
-4.06294e+10
-3.97392e+10
-3.90052e+10
-3.84625e+10
-3.80987e+10
-3.78759e+10
-3.7755e+10
-3.77036e+10
-3.76962e+10
-3.77122e+10
-3.77339e+10
-3.77456e+10
-3.77341e+10
-3.76901e+10
-3.76106e+10
-3.74997e+10
-3.7369e+10
-3.72324e+10
-3.7101e+10
-3.69798e+10
-3.68812e+10
-3.68543e+10
-3.69745e+10
-3.7158e+10
-3.67734e+10
-3.46885e+10
-3.12246e+10
-3.17092e+10
-4.3732e+10
-5.76257e+10
-3.01692e+10
-4.01593e+10
-4.01645e+10
-4.0174e+10
-4.02111e+10
-4.02784e+10
-4.03713e+10
-4.0485e+10
-4.06281e+10
-4.08049e+10
-4.10167e+10
-4.12612e+10
-4.15327e+10
-4.18215e+10
-4.21143e+10
-4.23928e+10
-4.26331e+10
-4.28071e+10
-4.28908e+10
-4.28781e+10
-4.27825e+10
-4.25913e+10
-4.22103e+10
-4.15329e+10
-4.06217e+10
-3.97065e+10
-3.89548e+10
-3.84033e+10
-3.80376e+10
-3.78167e+10
-3.76993e+10
-3.76509e+10
-3.7645e+10
-3.76607e+10
-3.76806e+10
-3.76891e+10
-3.76735e+10
-3.76249e+10
-3.75404e+10
-3.74244e+10
-3.72881e+10
-3.71454e+10
-3.70066e+10
-3.68761e+10
-3.67652e+10
-3.67217e+10
-3.68211e+10
-3.69785e+10
-3.65516e+10
-3.4351e+10
-3.04939e+10
-3.00283e+10
-4.16495e+10
-5.90931e+10
-3.47058e+10
-4.00238e+10
-4.00382e+10
-4.00464e+10
-4.00712e+10
-4.01238e+10
-4.02013e+10
-4.03085e+10
-4.04548e+10
-4.06471e+10
-4.08892e+10
-4.11814e+10
-4.1519e+10
-4.18917e+10
-4.2282e+10
-4.26648e+10
-4.30077e+10
-4.32718e+10
-4.3419e+10
-4.34362e+10
-4.33601e+10
-4.32236e+10
-4.29009e+10
-4.21123e+10
-4.08389e+10
-3.95156e+10
-3.85366e+10
-3.79113e+10
-3.75574e+10
-3.73847e+10
-3.73274e+10
-3.73404e+10
-3.73926e+10
-3.74623e+10
-3.75325e+10
-3.75892e+10
-3.76204e+10
-3.76175e+10
-3.75773e+10
-3.75027e+10
-3.74023e+10
-3.72857e+10
-3.71573e+10
-3.7015e+10
-3.68637e+10
-3.67449e+10
-3.67225e+10
-3.66878e+10
-3.59652e+10
-3.33546e+10
-2.9043e+10
-2.8295e+10
-4.01121e+10
-5.82499e+10
-3.36895e+10
-4.00341e+10
-4.00427e+10
-4.0048e+10
-4.00725e+10
-4.01283e+10
-4.02083e+10
-4.03122e+10
-4.0455e+10
-4.06427e+10
-4.08781e+10
-4.11616e+10
-4.14884e+10
-4.18482e+10
-4.22242e+10
-4.25921e+10
-4.29207e+10
-4.31724e+10
-4.33114e+10
-4.33277e+10
-4.32602e+10
-4.31423e+10
-4.28513e+10
-4.2113e+10
-4.08942e+10
-3.96019e+10
-3.86263e+10
-3.79858e+10
-3.76093e+10
-3.74138e+10
-3.73352e+10
-3.73279e+10
-3.73601e+10
-3.7409e+10
-3.74573e+10
-3.74907e+10
-3.74985e+10
-3.74737e+10
-3.74158e+10
-3.73307e+10
-3.72311e+10
-3.71312e+10
-3.70412e+10
-3.69646e+10
-3.69116e+10
-3.69286e+10
-3.70828e+10
-3.72645e+10
-3.67816e+10
-3.43765e+10
-3.00926e+10
-2.89234e+10
-3.99258e+10
-5.81469e+10
-3.53374e+10
-3.99443e+10
-3.99584e+10
-3.99766e+10
-4.00121e+10
-4.00666e+10
-4.01481e+10
-4.02658e+10
-4.04306e+10
-4.06529e+10
-4.09394e+10
-4.12906e+10
-4.17009e+10
-4.21576e+10
-4.26389e+10
-4.31131e+10
-4.35406e+10
-4.3876e+10
-4.40743e+10
-4.41134e+10
-4.4057e+10
-4.40337e+10
-4.39416e+10
-4.31577e+10
-4.12476e+10
-3.90838e+10
-3.78123e+10
-3.71931e+10
-3.69178e+10
-3.68459e+10
-3.68807e+10
-3.69663e+10
-3.70709e+10
-3.7177e+10
-3.72735e+10
-3.73521e+10
-3.74058e+10
-3.74306e+10
-3.74275e+10
-3.7404e+10
-3.73727e+10
-3.73468e+10
-3.73342e+10
-3.73356e+10
-3.73586e+10
-3.74444e+10
-3.76454e+10
-3.78192e+10
-3.72519e+10
-3.47865e+10
-3.08119e+10
-3.06157e+10
-4.2157e+10
-5.77693e+10
-3.18691e+10
-3.99738e+10
-3.99832e+10
-4.00068e+10
-4.00467e+10
-4.01058e+10
-4.01866e+10
-4.03009e+10
-4.04605e+10
-4.06749e+10
-4.09503e+10
-4.12874e+10
-4.16808e+10
-4.21186e+10
-4.25803e+10
-4.30356e+10
-4.34456e+10
-4.37648e+10
-4.39458e+10
-4.39689e+10
-4.39025e+10
-4.38726e+10
-4.37841e+10
-4.30631e+10
-4.12728e+10
-3.92161e+10
-3.79817e+10
-3.73496e+10
-3.70548e+10
-3.69669e+10
-3.69894e+10
-3.70649e+10
-3.71597e+10
-3.72547e+10
-3.73371e+10
-3.73975e+10
-3.74281e+10
-3.7425e+10
-3.73897e+10
-3.7331e+10
-3.7264e+10
-3.72054e+10
-3.71687e+10
-3.71619e+10
-3.7202e+10
-3.73434e+10
-3.76567e+10
-3.80209e+10
-3.77382e+10
-3.56408e+10
-3.2088e+10
-3.2546e+10
-4.48155e+10
-5.84253e+10
-3.01412e+10
-3.98603e+10
-3.98538e+10
-3.98682e+10
-3.98915e+10
-3.99229e+10
-3.99709e+10
-4.00505e+10
-4.01781e+10
-4.03701e+10
-4.06387e+10
-4.09893e+10
-4.14218e+10
-4.19323e+10
-4.25079e+10
-4.31174e+10
-4.37131e+10
-4.42385e+10
-4.46289e+10
-4.48315e+10
-4.49175e+10
-4.51415e+10
-4.55526e+10
-4.50945e+10
-4.2128e+10
-3.83595e+10
-3.67064e+10
-3.6143e+10
-3.60494e+10
-3.62057e+10
-3.64307e+10
-3.6651e+10
-3.68417e+10
-3.69973e+10
-3.71171e+10
-3.71994e+10
-3.72421e+10
-3.7245e+10
-3.72123e+10
-3.71546e+10
-3.70882e+10
-3.70315e+10
-3.6999e+10
-3.70002e+10
-3.70537e+10
-3.72125e+10
-3.75345e+10
-3.78701e+10
-3.7515e+10
-3.54608e+10
-3.2498e+10
-3.41912e+10
-4.69366e+10
-5.91013e+10
-2.96043e+10
-3.98753e+10
-3.98761e+10
-3.98982e+10
-3.99299e+10
-3.99682e+10
-4.00211e+10
-4.01037e+10
-4.02319e+10
-4.04217e+10
-4.06848e+10
-4.10263e+10
-4.14455e+10
-4.19371e+10
-4.24874e+10
-4.30677e+10
-4.36322e+10
-4.41247e+10
-4.44793e+10
-4.46331e+10
-4.46558e+10
-4.4812e+10
-4.51889e+10
-4.48485e+10
-4.22088e+10
-3.86257e+10
-3.69586e+10
-3.6319e+10
-3.61802e+10
-3.63034e+10
-3.65061e+10
-3.67139e+10
-3.68983e+10
-3.70515e+10
-3.71703e+10
-3.7252e+10
-3.72931e+10
-3.72923e+10
-3.72527e+10
-3.71838e+10
-3.71017e+10
-3.70248e+10
-3.69686e+10
-3.69445e+10
-3.69746e+10
-3.7117e+10
-3.7436e+10
-3.77866e+10
-3.74573e+10
-3.53858e+10
-3.21777e+10
-3.31502e+10
-4.55647e+10
-6.10228e+10
-3.71952e+10
-3.97285e+10
-3.9722e+10
-3.97267e+10
-3.97279e+10
-3.97305e+10
-3.97426e+10
-3.97857e+10
-3.98878e+10
-4.00803e+10
-4.03892e+10
-4.08321e+10
-4.14173e+10
-4.21491e+10
-4.30191e+10
-4.39746e+10
-4.49323e+10
-4.58132e+10
-4.65382e+10
-4.6999e+10
-4.7267e+10
-4.77098e+10
-4.85648e+10
-4.88736e+10
-4.53555e+10
-3.9702e+10
-3.54243e+10
-3.50238e+10
-3.54026e+10
-3.58859e+10
-3.62988e+10
-3.66272e+10
-3.68834e+10
-3.70815e+10
-3.72284e+10
-3.73266e+10
-3.7377e+10
-3.73818e+10
-3.73465e+10
-3.72825e+10
-3.72068e+10
-3.71385e+10
-3.70925e+10
-3.70782e+10
-3.71131e+10
-3.72458e+10
-3.75238e+10
-3.77838e+10
-3.73274e+10
-3.5208e+10
-3.22739e+10
-3.38264e+10
-4.59933e+10
-5.88682e+10
-3.00675e+10
-3.97367e+10
-3.97332e+10
-3.97434e+10
-3.97486e+10
-3.97547e+10
-3.97707e+10
-3.98167e+10
-3.99205e+10
-4.01128e+10
-4.04193e+10
-4.08562e+10
-4.14314e+10
-4.21466e+10
-4.29893e+10
-4.3921e+10
-4.48646e+10
-4.57202e+10
-4.63931e+10
-4.67259e+10
-4.68152e+10
-4.71251e+10
-4.79882e+10
-4.8516e+10
-4.57058e+10
-4.03772e+10
-3.54057e+10
-3.50065e+10
-3.5393e+10
-3.5874e+10
-3.62796e+10
-3.66012e+10
-3.68532e+10
-3.70513e+10
-3.72024e+10
-3.73087e+10
-3.73708e+10
-3.73907e+10
-3.73742e+10
-3.73324e+10
-3.72819e+10
-3.72406e+10
-3.72219e+10
-3.72331e+10
-3.72883e+10
-3.74307e+10
-3.76989e+10
-3.79079e+10
-3.73015e+10
-3.48135e+10
-3.11114e+10
-3.14354e+10
-4.30996e+10
-5.98776e+10
-3.8776e+10
-3.96881e+10
-3.96981e+10
-3.96904e+10
-3.96754e+10
-3.96538e+10
-3.96393e+10
-3.96586e+10
-3.97503e+10
-3.99565e+10
-4.03089e+10
-4.08204e+10
-4.14869e+10
-4.22998e+10
-4.32355e+10
-4.42263e+10
-4.51924e+10
-4.60749e+10
-4.68025e+10
-4.72749e+10
-4.75839e+10
-4.80722e+10
-4.90099e+10
-4.98724e+10
-4.88015e+10
-4.375e+10
-2.9407e+10
-3.19967e+10
-3.40768e+10
-3.52525e+10
-3.59627e+10
-3.64311e+10
-3.67574e+10
-3.69928e+10
-3.71616e+10
-3.72753e+10
-3.73398e+10
-3.73602e+10
-3.73447e+10
-3.73071e+10
-3.72651e+10
-3.72374e+10
-3.72366e+10
-3.72666e+10
-3.73352e+10
-3.7476e+10
-3.7719e+10
-3.78881e+10
-3.72779e+10
-3.49182e+10
-3.16229e+10
-3.28615e+10
-4.53741e+10
-5.87961e+10
-3.35046e+10
-3.96795e+10
-3.96896e+10
-3.96842e+10
-3.96724e+10
-3.96567e+10
-3.96494e+10
-3.96754e+10
-3.97706e+10
-3.99749e+10
-4.03205e+10
-4.08245e+10
-4.14881e+10
-4.23013e+10
-4.32374e+10
-4.42491e+10
-4.52361e+10
-4.60989e+10
-4.67964e+10
-4.71473e+10
-4.72576e+10
-4.76793e+10
-4.89534e+10
-4.99503e+10
-4.92883e+10
-4.6318e+10
-2.92737e+10
-3.19057e+10
-3.40049e+10
-3.52076e+10
-3.59323e+10
-3.64072e+10
-3.67354e+10
-3.69706e+10
-3.71395e+10
-3.72552e+10
-3.7324e+10
-3.73516e+10
-3.73468e+10
-3.73235e+10
-3.72997e+10
-3.72938e+10
-3.73175e+10
-3.73734e+10
-3.74667e+10
-3.76267e+10
-3.78759e+10
-3.8016e+10
-3.72738e+10
-3.45979e+10
-3.108e+10
-3.33634e+10
-4.82861e+10
-5.99672e+10
-2.92796e+10
-3.96587e+10
-3.96697e+10
-3.96615e+10
-3.96431e+10
-3.96179e+10
-3.96006e+10
-3.96196e+10
-3.97154e+10
-3.9932e+10
-4.0297e+10
-4.08148e+10
-4.14821e+10
-4.22923e+10
-4.32229e+10
-4.42223e+10
-4.52068e+10
-4.60954e+10
-4.68228e+10
-4.73309e+10
-4.77266e+10
-4.82911e+10
-4.91456e+10
-4.95451e+10
-4.52797e+10
-2.2897e+10
-3.15467e+10
-3.37732e+10
-3.50721e+10
-3.58591e+10
-3.63692e+10
-3.67161e+10
-3.69605e+10
-3.71322e+10
-3.72466e+10
-3.73116e+10
-3.73338e+10
-3.73227e+10
-3.72929e+10
-3.72631e+10
-3.72519e+10
-3.7271e+10
-3.73227e+10
-3.74107e+10
-3.75644e+10
-3.78164e+10
-3.80142e+10
-3.74915e+10
-3.52644e+10
-3.19503e+10
-3.25799e+10
-4.3841e+10
-5.77289e+10
-3.33701e+10
-3.96475e+10
-3.96743e+10
-3.96627e+10
-3.96505e+10
-3.96325e+10
-3.96236e+10
-3.96487e+10
-3.97453e+10
-3.99546e+10
-4.03084e+10
-4.08205e+10
-4.14884e+10
-4.23e+10
-4.32298e+10
-4.42306e+10
-4.52121e+10
-4.60722e+10
-4.6746e+10
-4.71668e+10
-4.73548e+10
-4.77584e+10
-4.88941e+10
-5.03179e+10
-4.9436e+10
-2.37966e+10
-3.15356e+10
-3.37323e+10
-3.50463e+10
-3.58523e+10
-3.63777e+10
-3.6737e+10
-3.69917e+10
-3.71724e+10
-3.72944e+10
-3.73655e+10
-3.73922e+10
-3.73833e+10
-3.73529e+10
-3.73192e+10
-3.73009e+10
-3.73102e+10
-3.73499e+10
-3.74251e+10
-3.75672e+10
-3.78113e+10
-3.8001e+10
-3.74443e+10
-3.51539e+10
-3.20833e+10
-3.42187e+10
-4.77337e+10
-5.94772e+10
-2.88018e+10
-3.97133e+10
-3.97169e+10
-3.97242e+10
-3.97205e+10
-3.97147e+10
-3.97168e+10
-3.97509e+10
-3.98524e+10
-4.00609e+10
-4.04036e+10
-4.08862e+10
-4.15133e+10
-4.22833e+10
-4.31767e+10
-4.41528e+10
-4.51114e+10
-4.59515e+10
-4.66305e+10
-4.70883e+10
-4.73552e+10
-4.77036e+10
-4.84123e+10
-4.90966e+10
-4.77968e+10
-3.82028e+10
-3.41273e+10
-3.41595e+10
-3.49321e+10
-3.56823e+10
-3.62513e+10
-3.66674e+10
-3.69759e+10
-3.72096e+10
-3.73864e+10
-3.75151e+10
-3.75999e+10
-3.76447e+10
-3.76566e+10
-3.76476e+10
-3.76339e+10
-3.76318e+10
-3.76513e+10
-3.76929e+10
-3.77598e+10
-3.78831e+10
-3.81081e+10
-3.83211e+10
-3.79273e+10
-3.60162e+10
-3.32816e+10
-3.49108e+10
-4.68794e+10
-5.80229e+10
-2.87888e+10
-3.9707e+10
-3.97228e+10
-3.97306e+10
-3.9737e+10
-3.97433e+10
-3.97596e+10
-3.98068e+10
-3.99155e+10
-4.01206e+10
-4.04491e+10
-4.09132e+10
-4.15137e+10
-4.22422e+10
-4.30789e+10
-4.39861e+10
-4.48869e+10
-4.56968e+10
-4.63205e+10
-4.67233e+10
-4.69929e+10
-4.74389e+10
-4.82658e+10
-4.86082e+10
-4.73932e+10
-3.89659e+10
-3.38644e+10
-3.3943e+10
-3.4802e+10
-3.56188e+10
-3.62331e+10
-3.66792e+10
-3.70091e+10
-3.72591e+10
-3.74493e+10
-3.75889e+10
-3.76822e+10
-3.7733e+10
-3.77477e+10
-3.77378e+10
-3.77192e+10
-3.77083e+10
-3.77156e+10
-3.77427e+10
-3.77935e+10
-3.78995e+10
-3.81035e+10
-3.82844e+10
-3.78285e+10
-3.57661e+10
-3.26142e+10
-3.3475e+10
-4.56151e+10
-6.0294e+10
-3.48106e+10
-3.99231e+10
-3.99322e+10
-3.9956e+10
-3.99834e+10
-4.00182e+10
-4.00668e+10
-4.01436e+10
-4.02688e+10
-4.04647e+10
-4.07478e+10
-4.11238e+10
-4.15921e+10
-4.21449e+10
-4.2763e+10
-4.34121e+10
-4.40319e+10
-4.45489e+10
-4.48969e+10
-4.50287e+10
-4.50012e+10
-4.50625e+10
-4.53506e+10
-4.50174e+10
-4.21942e+10
-3.88013e+10
-3.70694e+10
-3.64331e+10
-3.63243e+10
-3.64848e+10
-3.67143e+10
-3.69443e+10
-3.71503e+10
-3.73271e+10
-3.74728e+10
-3.75855e+10
-3.76632e+10
-3.77062e+10
-3.77185e+10
-3.77094e+10
-3.76925e+10
-3.76812e+10
-3.76828e+10
-3.76954e+10
-3.77197e+10
-3.77851e+10
-3.7941e+10
-3.80956e+10
-3.76998e+10
-3.58616e+10
-3.31216e+10
-3.44729e+10
-4.68643e+10
-6.11723e+10
-3.4255e+10
-3.9919e+10
-3.99255e+10
-3.99502e+10
-3.99794e+10
-4.00177e+10
-4.00716e+10
-4.01547e+10
-4.02864e+10
-4.04874e+10
-4.07732e+10
-4.11497e+10
-4.16134e+10
-4.21527e+10
-4.27455e+10
-4.33573e+10
-4.39355e+10
-4.44194e+10
-4.47467e+10
-4.48902e+10
-4.49324e+10
-4.51079e+10
-4.5462e+10
-4.50467e+10
-4.23139e+10
-3.87967e+10
-3.6937e+10
-3.63039e+10
-3.62432e+10
-3.64546e+10
-3.6723e+10
-3.69804e+10
-3.72052e+10
-3.73949e+10
-3.75492e+10
-3.76673e+10
-3.77477e+10
-3.7791e+10
-3.78016e+10
-3.77896e+10
-3.77693e+10
-3.77559e+10
-3.77587e+10
-3.77783e+10
-3.78163e+10
-3.79003e+10
-3.80719e+10
-3.82258e+10
-3.77849e+10
-3.57386e+10
-3.21987e+10
-3.1557e+10
-4.26267e+10
-6.20754e+10
-4.15931e+10
-4.00214e+10
-4.00291e+10
-4.0053e+10
-4.00899e+10
-4.01427e+10
-4.02173e+10
-4.03233e+10
-4.04728e+10
-4.06777e+10
-4.09461e+10
-4.12805e+10
-4.16765e+10
-4.2121e+10
-4.25914e+10
-4.30544e+10
-4.34676e+10
-4.37857e+10
-4.39666e+10
-4.39846e+10
-4.38843e+10
-4.37865e+10
-4.36285e+10
-4.2862e+10
-4.10984e+10
-3.91741e+10
-3.79934e+10
-3.7372e+10
-3.70878e+10
-3.70277e+10
-3.70846e+10
-3.71958e+10
-3.73235e+10
-3.74477e+10
-3.75562e+10
-3.7641e+10
-3.76968e+10
-3.77221e+10
-3.77207e+10
-3.77018e+10
-3.76795e+10
-3.76677e+10
-3.76745e+10
-3.76991e+10
-3.77437e+10
-3.78389e+10
-3.80352e+10
-3.82446e+10
-3.79297e+10
-3.62182e+10
-3.36293e+10
-3.48932e+10
-4.64e+10
-5.9305e+10
-3.08404e+10
-4.00066e+10
-4.0011e+10
-4.00358e+10
-4.00723e+10
-4.01253e+10
-4.02005e+10
-4.03084e+10
-4.04615e+10
-4.06724e+10
-4.09497e+10
-4.12961e+10
-4.17067e+10
-4.2168e+10
-4.26563e+10
-4.31373e+10
-4.3567e+10
-4.38974e+10
-4.40846e+10
-4.4112e+10
-4.40357e+10
-4.39662e+10
-4.38011e+10
-4.29724e+10
-4.11038e+10
-3.90672e+10
-3.78463e+10
-3.72505e+10
-3.70113e+10
-3.6995e+10
-3.70868e+10
-3.72229e+10
-3.73675e+10
-3.75027e+10
-3.76177e+10
-3.77056e+10
-3.77617e+10
-3.77852e+10
-3.77803e+10
-3.77573e+10
-3.7731e+10
-3.77167e+10
-3.77243e+10
-3.77546e+10
-3.781e+10
-3.79181e+10
-3.81222e+10
-3.83218e+10
-3.7948e+10
-3.60057e+10
-3.26923e+10
-3.25981e+10
-4.39629e+10
-6.14835e+10
-3.9616e+10
-4.01289e+10
-4.01352e+10
-4.01567e+10
-4.01919e+10
-4.02448e+10
-4.03206e+10
-4.04265e+10
-4.05707e+10
-4.07604e+10
-4.09997e+10
-4.12891e+10
-4.16237e+10
-4.19921e+10
-4.23751e+10
-4.27462e+10
-4.30736e+10
-4.33239e+10
-4.34663e+10
-4.34856e+10
-4.3407e+10
-4.32534e+10
-4.29003e+10
-4.20751e+10
-4.07755e+10
-3.94529e+10
-3.84872e+10
-3.78848e+10
-3.75542e+10
-3.74069e+10
-3.73722e+10
-3.74011e+10
-3.74607e+10
-3.75289e+10
-3.75908e+10
-3.76354e+10
-3.76556e+10
-3.76495e+10
-3.76208e+10
-3.758e+10
-3.75425e+10
-3.75239e+10
-3.75342e+10
-3.75748e+10
-3.76498e+10
-3.77907e+10
-3.80442e+10
-3.83044e+10
-3.79928e+10
-3.6187e+10
-3.34054e+10
-3.44541e+10
-4.58162e+10
-5.83799e+10
-3.0371e+10
-4.01323e+10
-4.01333e+10
-4.01553e+10
-4.01889e+10
-4.02399e+10
-4.03128e+10
-4.04154e+10
-4.0556e+10
-4.07423e+10
-4.09792e+10
-4.12676e+10
-4.16034e+10
-4.1976e+10
-4.23674e+10
-4.27521e+10
-4.30977e+10
-4.33674e+10
-4.35262e+10
-4.35599e+10
-4.34975e+10
-4.33584e+10
-4.30035e+10
-4.21502e+10
-4.08048e+10
-3.94443e+10
-3.84751e+10
-3.78892e+10
-3.75761e+10
-3.7442e+10
-3.74151e+10
-3.74479e+10
-3.75087e+10
-3.75765e+10
-3.76369e+10
-3.76795e+10
-3.76976e+10
-3.76892e+10
-3.76585e+10
-3.76161e+10
-3.75769e+10
-3.75562e+10
-3.75625e+10
-3.75951e+10
-3.76538e+10
-3.77647e+10
-3.79677e+10
-3.81484e+10
-3.77022e+10
-3.56603e+10
-3.26976e+10
-3.44952e+10
-4.81321e+10
-6.12948e+10
-3.17244e+10
-4.02465e+10
-4.0257e+10
-4.02814e+10
-4.03199e+10
-4.03758e+10
-4.04524e+10
-4.05546e+10
-4.06871e+10
-4.08534e+10
-4.10548e+10
-4.12895e+10
-4.1552e+10
-4.18325e+10
-4.21169e+10
-4.23869e+10
-4.26194e+10
-4.27877e+10
-4.28687e+10
-4.28572e+10
-4.27658e+10
-4.25811e+10
-4.22053e+10
-4.15265e+10
-4.06078e+10
-3.96805e+10
-3.8921e+10
-3.83705e+10
-3.80084e+10
-3.779e+10
-3.76715e+10
-3.76187e+10
-3.76053e+10
-3.76113e+10
-3.76206e+10
-3.76207e+10
-3.76029e+10
-3.75633e+10
-3.75047e+10
-3.74366e+10
-3.73737e+10
-3.7331e+10
-3.73172e+10
-3.7332e+10
-3.7377e+10
-3.74789e+10
-3.76719e+10
-3.78153e+10
-3.7256e+10
-3.49502e+10
-3.12681e+10
-3.10728e+10
-4.21652e+10
-5.85819e+10
-3.44358e+10
-4.02648e+10
-4.02706e+10
-4.02959e+10
-4.03335e+10
-4.03877e+10
-4.04618e+10
-4.05603e+10
-4.06879e+10
-4.08483e+10
-4.10426e+10
-4.12694e+10
-4.15236e+10
-4.17961e+10
-4.20738e+10
-4.23391e+10
-4.25689e+10
-4.27364e+10
-4.2819e+10
-4.28121e+10
-4.27288e+10
-4.25558e+10
-4.21953e+10
-4.15365e+10
-4.06375e+10
-3.97275e+10
-3.89808e+10
-3.84372e+10
-3.80752e+10
-3.78518e+10
-3.77258e+10
-3.76643e+10
-3.76423e+10
-3.76408e+10
-3.76441e+10
-3.76402e+10
-3.76207e+10
-3.75823e+10
-3.75282e+10
-3.7468e+10
-3.74158e+10
-3.73857e+10
-3.73843e+10
-3.74074e+10
-3.7451e+10
-3.7536e+10
-3.76915e+10
-3.77686e+10
-3.70831e+10