/*--------------------------------*- C++ -*----------------------------------*\
| =========                 |                                                 |
| \\      /  F ield         | OpenFOAM: The Open Source CFD Toolbox           |
|  \\    /   O peration     | Version:  4.1                                   |
|   \\  /    A nd           | Web:      www.OpenFOAM.org                      |
|    \\/     M anipulation  |                                                 |
\*---------------------------------------------------------------------------*/
FoamFile
{
    version     2.0;
    format      ascii;
    class       volScalarField;
    location    "12";
    object      p;
}
// * * * * * * * * * * * * * * * * * * * * * * * * * * * * * * * * * * * * * //

dimensions      [0 2 -2 0 0 0 0];

internalField   nonuniform List<scalar> 
4432
(
-4.96383e+09
-2.58713e+07
1.27501e+10
4.38338e+10
2.08733e+08
-2.89202e+10
-1.8911e+10
-1.62326e+10
-1.66323e+10
-1.75972e+10
-1.83731e+10
-1.89421e+10
-1.92798e+10
-1.92151e+10
-1.87319e+10
-1.77822e+10
-1.63488e+10
-1.53009e+10
-1.47751e+10
-1.45198e+10
-1.4304e+10
-1.41083e+10
-1.3931e+10
-1.37602e+10
-1.35948e+10
-1.34349e+10
-1.32802e+10
-1.31292e+10
-1.29804e+10
-1.28321e+10
-1.26821e+10
-1.25289e+10
-1.23725e+10
-1.2208e+10
-1.20327e+10
-1.18527e+10
-1.16694e+10
-1.14862e+10
-1.13116e+10
-1.11493e+10
-1.10013e+10
-1.08669e+10
-1.07374e+10
-1.06019e+10
-1.0464e+10
-1.03304e+10
-1.01619e+10
-9.95425e+09
-9.75915e+09
-9.6233e+09
-9.58383e+09
-9.80735e+09
-1.06635e+10
-9.35163e+09
-7.31313e+09
-5.99506e+08
2.23673e+09
7.30728e+09
-3.06035e+09
-2.95008e+10
-2.5658e+10
-2.07415e+10
-1.96059e+10
-1.96972e+10
-1.9525e+10
-1.94409e+10
-1.94869e+10
-1.93459e+10
-1.88196e+10
-1.7767e+10
-1.62829e+10
-1.52662e+10
-1.47945e+10
-1.45394e+10
-1.43098e+10
-1.41112e+10
-1.39332e+10
-1.37615e+10
-1.35956e+10
-1.34352e+10
-1.328e+10
-1.31285e+10
-1.29791e+10
-1.28302e+10
-1.26796e+10
-1.25259e+10
-1.23687e+10
-1.22049e+10
-1.20317e+10
-1.18505e+10
-1.16641e+10
-1.14795e+10
-1.13041e+10
-1.11409e+10
-1.09915e+10
-1.08557e+10
-1.07246e+10
-1.05876e+10
-1.04438e+10
-1.02976e+10
-1.0122e+10
-9.89022e+09
-9.71456e+09
-9.64591e+09
-9.71435e+09
-1.03719e+10
-1.16303e+10
-1.10708e+10
-2.29376e+10
-2.29553e+10
-2.67574e+10
-4.44484e+10
-3.42941e+10
-4.29401e+10
-4.22609e+10
-3.08939e+10
-2.4291e+10
-2.16183e+10
-2.04564e+10
-1.99095e+10
-1.96746e+10
-1.93337e+10
-1.88594e+10
-1.81954e+10
-1.69424e+10
-1.56639e+10
-1.49721e+10
-1.45862e+10
-1.43396e+10
-1.41339e+10
-1.3949e+10
-1.37732e+10
-1.36043e+10
-1.34422e+10
-1.32864e+10
-1.31357e+10
-1.29882e+10
-1.28422e+10
-1.26954e+10
-1.25454e+10
-1.23952e+10
-1.22391e+10
-1.20598e+10
-1.18683e+10
-1.16825e+10
-1.15045e+10
-1.13362e+10
-1.11751e+10
-1.1021e+10
-1.0879e+10
-1.07493e+10
-1.06192e+10
-1.04789e+10
-1.03757e+10
-1.02545e+10
-1.0004e+10
-9.80351e+09
-9.70146e+09
-9.58351e+09
-9.56768e+09
-9.3822e+09
-6.0558e+09
-2.34995e+10
-2.42458e+10
-2.48015e+10
-3.03251e+10
-3.55223e+10
-4.41463e+10
-4.28819e+10
-3.07495e+10
-2.46284e+10
-2.18406e+10
-2.04249e+10
-1.97749e+10
-1.95378e+10
-1.9302e+10
-1.8916e+10
-1.82232e+10
-1.68611e+10
-1.55595e+10
-1.49547e+10
-1.4595e+10
-1.43457e+10
-1.41362e+10
-1.39496e+10
-1.37726e+10
-1.3603e+10
-1.34402e+10
-1.32837e+10
-1.31322e+10
-1.29838e+10
-1.28364e+10
-1.26878e+10
-1.25362e+10
-1.23819e+10
-1.22217e+10
-1.20475e+10
-1.18612e+10
-1.16693e+10
-1.1484e+10
-1.13154e+10
-1.11549e+10
-1.09996e+10
-1.08549e+10
-1.0719e+10
-1.05803e+10
-1.04309e+10
-1.02931e+10
-1.01322e+10
-9.8943e+09
-9.6897e+09
-9.58048e+09
-9.54582e+09
-9.77195e+09
-9.89657e+09
-6.94509e+09
-3.40518e+10
-3.42523e+10
-3.25706e+10
-5.36447e+10
-4.38214e+10
-4.42866e+10
-4.2799e+10
-3.60538e+10
-2.90623e+10
-2.46474e+10
-2.17589e+10
-2.03233e+10
-1.96581e+10
-1.92126e+10
-1.89383e+10
-1.83521e+10
-1.71045e+10
-1.58554e+10
-1.51602e+10
-1.47168e+10
-1.44121e+10
-1.41713e+10
-1.39633e+10
-1.37725e+10
-1.35938e+10
-1.34252e+10
-1.32654e+10
-1.3113e+10
-1.2965e+10
-1.28189e+10
-1.2673e+10
-1.25235e+10
-1.23698e+10
-1.22199e+10
-1.20404e+10
-1.18338e+10
-1.16642e+10
-1.14974e+10
-1.13334e+10
-1.11621e+10
-1.09948e+10
-1.08491e+10
-1.07253e+10
-1.06039e+10
-1.04817e+10
-1.03662e+10
-1.02236e+10
-1.00485e+10
-9.91459e+09
-9.78899e+09
-9.60603e+09
-9.36391e+09
-8.78737e+09
-5.49899e+09
-3.07695e+10
-3.34388e+10
-3.2565e+10
-3.57652e+10
-4.3888e+10
-4.65709e+10
-4.3267e+10
-3.5015e+10
-2.87255e+10
-2.42596e+10
-2.14691e+10
-2.01235e+10
-1.95801e+10
-1.92813e+10
-1.8942e+10
-1.83443e+10
-1.70121e+10
-1.57651e+10
-1.51253e+10
-1.471e+10
-1.44124e+10
-1.41713e+10
-1.39624e+10
-1.37706e+10
-1.3591e+10
-1.34215e+10
-1.32604e+10
-1.31064e+10
-1.29569e+10
-1.28094e+10
-1.26611e+10
-1.2508e+10
-1.23501e+10
-1.2191e+10
-1.20182e+10
-1.18391e+10
-1.16639e+10
-1.14929e+10
-1.13247e+10
-1.11487e+10
-1.09764e+10
-1.08282e+10
-1.0701e+10
-1.05774e+10
-1.04467e+10
-1.03201e+10
-1.01879e+10
-1.00289e+10
-9.89693e+09
-9.80096e+09
-9.66955e+09
-9.46323e+09
-8.9363e+09
-5.81294e+09
-3.44248e+10
-3.81011e+10
-3.79895e+10
-3.88698e+10
-4.36469e+10
-4.25894e+10
-4.05933e+10
-3.57901e+10
-3.04254e+10
-2.58395e+10
-2.228e+10
-2.06593e+10
-1.98765e+10
-1.93778e+10
-1.89555e+10
-1.82527e+10
-1.70794e+10
-1.59784e+10
-1.52984e+10
-1.48306e+10
-1.44868e+10
-1.42113e+10
-1.3978e+10
-1.37702e+10
-1.35805e+10
-1.34047e+10
-1.32392e+10
-1.30809e+10
-1.29257e+10
-1.277e+10
-1.26167e+10
-1.24585e+10
-1.22846e+10
-1.22121e+10
-1.21932e+10
-1.18826e+10
-1.16112e+10
-1.14471e+10
-1.12829e+10
-1.11224e+10
-1.09597e+10
-1.08191e+10
-1.07011e+10
-1.05705e+10
-1.04322e+10
-1.03024e+10
-1.01408e+10
-9.96947e+09
-9.81909e+09
-9.64185e+09
-9.38474e+09
-9.05496e+09
-8.37953e+09
-5.13201e+09
-3.09346e+10
-3.24472e+10
-3.48418e+10
-3.85511e+10
-4.53218e+10
-4.38857e+10
-3.93807e+10
-3.37471e+10
-2.92289e+10
-2.51822e+10
-2.22035e+10
-2.06559e+10
-1.99037e+10
-1.94549e+10
-1.9001e+10
-1.8231e+10
-1.69871e+10
-1.59174e+10
-1.52756e+10
-1.48273e+10
-1.44892e+10
-1.42147e+10
-1.39808e+10
-1.37721e+10
-1.35813e+10
-1.34043e+10
-1.3238e+10
-1.30799e+10
-1.29268e+10
-1.27747e+10
-1.26213e+10
-1.24652e+10
-1.23105e+10
-1.21711e+10
-1.20172e+10
-1.18466e+10
-1.16529e+10
-1.14471e+10
-1.12806e+10
-1.11193e+10
-1.09541e+10
-1.08103e+10
-1.06924e+10
-1.05677e+10
-1.0424e+10
-1.02915e+10
-1.01429e+10
-9.98202e+09
-9.84147e+09
-9.68582e+09
-9.43584e+09
-9.08568e+09
-8.40677e+09
-5.2239e+09
-3.28631e+10
-3.54736e+10
-3.6708e+10
-3.61674e+10
-4.00994e+10
-3.80534e+10
-3.62652e+10
-3.34075e+10
-3.01782e+10
-2.67237e+10
-2.32448e+10
-2.09812e+10
-2.0073e+10
-1.95028e+10
-1.89492e+10
-1.80962e+10
-1.70066e+10
-1.60618e+10
-1.54118e+10
-1.49286e+10
-1.45558e+10
-1.42542e+10
-1.40003e+10
-1.37769e+10
-1.35748e+10
-1.3388e+10
-1.32113e+10
-1.30434e+10
-1.28819e+10
-1.27158e+10
-1.25495e+10
-1.23878e+10
-1.22341e+10
-1.2127e+10
-1.20111e+10
-1.17949e+10
-1.15758e+10
-1.13973e+10
-1.12261e+10
-1.1062e+10
-1.09049e+10
-1.07549e+10
-1.06102e+10
-1.04625e+10
-1.03149e+10
-1.0174e+10
-1.00185e+10
-9.84012e+09
-9.64263e+09
-9.39909e+09
-9.08239e+09
-8.74283e+09
-8.09165e+09
-4.96777e+09
-3.07722e+10
-3.14916e+10
-3.38421e+10
-3.61748e+10
-4.06646e+10
-3.80756e+10
-3.501e+10
-3.1465e+10
-2.85011e+10
-2.56834e+10
-2.30443e+10
-2.11391e+10
-2.01581e+10
-1.95208e+10
-1.89068e+10
-1.80354e+10
-1.69434e+10
-1.60305e+10
-1.54038e+10
-1.49325e+10
-1.45629e+10
-1.42615e+10
-1.40059e+10
-1.37807e+10
-1.35772e+10
-1.33901e+10
-1.3215e+10
-1.30478e+10
-1.28849e+10
-1.27252e+10
-1.25747e+10
-1.24255e+10
-1.22593e+10
-1.2101e+10
-1.19445e+10
-1.17688e+10
-1.1587e+10
-1.14054e+10
-1.12328e+10
-1.10656e+10
-1.09097e+10
-1.07618e+10
-1.06164e+10
-1.04718e+10
-1.03263e+10
-1.01814e+10
-1.00246e+10
-9.84842e+09
-9.65543e+09
-9.41606e+09
-9.09317e+09
-8.73033e+09
-8.07641e+09
-5.01236e+09
-3.24531e+10
-3.35534e+10
-3.3888e+10
-3.3988e+10
-3.56653e+10
-3.45094e+10
-3.31499e+10
-3.12637e+10
-2.90559e+10
-2.65606e+10
-2.38577e+10
-2.14421e+10
-2.02456e+10
-1.95586e+10
-1.88419e+10
-1.79278e+10
-1.69625e+10
-1.6139e+10
-1.55168e+10
-1.50285e+10
-1.46366e+10
-1.43142e+10
-1.40384e+10
-1.37936e+10
-1.3572e+10
-1.33703e+10
-1.31806e+10
-1.29906e+10
-1.28092e+10
-1.26426e+10
-1.24881e+10
-1.23427e+10
-1.21985e+10
-1.205e+10
-1.1869e+10
-1.1675e+10
-1.14999e+10
-1.13336e+10
-1.11659e+10
-1.10009e+10
-1.0839e+10
-1.06796e+10
-1.05209e+10
-1.03617e+10
-1.02058e+10
-1.0048e+10
-9.87248e+09
-9.67183e+09
-9.44006e+09
-9.1517e+09
-8.79957e+09
-8.46643e+09
-7.86097e+09
-4.89004e+09
-3.15738e+10
-3.13523e+10
-3.22242e+10
-3.30923e+10
-3.6663e+10
-3.54857e+10
-3.31375e+10
-3.06198e+10
-2.81975e+10
-2.57715e+10
-2.33563e+10
-2.13795e+10
-2.02293e+10
-1.94946e+10
-1.87559e+10
-1.78571e+10
-1.6914e+10
-1.61207e+10
-1.5517e+10
-1.50363e+10
-1.46463e+10
-1.43226e+10
-1.40453e+10
-1.38002e+10
-1.35788e+10
-1.33756e+10
-1.31842e+10
-1.3e+10
-1.28236e+10
-1.26527e+10
-1.24933e+10
-1.23421e+10
-1.21791e+10
-1.2016e+10
-1.18518e+10
-1.16778e+10
-1.15092e+10
-1.13429e+10
-1.11742e+10
-1.10078e+10
-1.08484e+10
-1.06905e+10
-1.05334e+10
-1.03755e+10
-1.02186e+10
-1.00585e+10
-9.88321e+09
-9.68013e+09
-9.44408e+09
-9.15227e+09
-8.7932e+09
-8.43525e+09
-7.8006e+09
-4.82634e+09
-3.18923e+10
-3.24979e+10
-3.19134e+10
-3.21249e+10
-3.22501e+10
-3.21663e+10
-3.16044e+10
-3.03034e+10
-2.84873e+10
-2.6318e+10
-2.36376e+10
-2.1469e+10
-2.03137e+10
-1.95191e+10
-1.86792e+10
-1.77926e+10
-1.69465e+10
-1.62179e+10
-1.56281e+10
-1.51432e+10
-1.47384e+10
-1.43934e+10
-1.40896e+10
-1.38174e+10
-1.35719e+10
-1.33472e+10
-1.31345e+10
-1.29344e+10
-1.27502e+10
-1.25771e+10
-1.24136e+10
-1.22613e+10
-1.21172e+10
-1.1964e+10
-1.17871e+10
-1.16088e+10
-1.14402e+10
-1.12761e+10
-1.11146e+10
-1.09534e+10
-1.07909e+10
-1.06296e+10
-1.04718e+10
-1.03181e+10
-1.01642e+10
-1.00033e+10
-9.82595e+09
-9.62154e+09
-9.37644e+09
-9.06104e+09
-8.65577e+09
-8.24864e+09
-7.63769e+09
-5.93885e+09
-3.17184e+10
-3.1197e+10
-3.15567e+10
-3.10349e+10
-3.22412e+10
-3.28447e+10
-3.22722e+10
-3.04651e+10
-2.82396e+10
-2.57456e+10
-2.33038e+10
-2.14477e+10
-2.03024e+10
-1.94585e+10
-1.86154e+10
-1.77405e+10
-1.69137e+10
-1.62045e+10
-1.5626e+10
-1.51455e+10
-1.47425e+10
-1.43974e+10
-1.40955e+10
-1.38256e+10
-1.35797e+10
-1.33528e+10
-1.31429e+10
-1.29475e+10
-1.27644e+10
-1.25899e+10
-1.24217e+10
-1.22594e+10
-1.21076e+10
-1.1953e+10
-1.17857e+10
-1.1616e+10
-1.14501e+10
-1.12849e+10
-1.11216e+10
-1.09604e+10
-1.07992e+10
-1.06382e+10
-1.04798e+10
-1.03248e+10
-1.01706e+10
-1.00085e+10
-9.83073e+09
-9.62581e+09
-9.37986e+09
-9.06465e+09
-8.65992e+09
-8.23424e+09
-7.53861e+09
-5.64766e+09
-3.14276e+10
-3.1459e+10
-3.07619e+10
-3.02948e+10
-2.95228e+10
-2.91238e+10
-2.93043e+10
-2.88542e+10
-2.76242e+10
-2.56923e+10
-2.31569e+10
-2.12873e+10
-2.01737e+10
-1.93036e+10
-1.84674e+10
-1.76613e+10
-1.69213e+10
-1.62727e+10
-1.57223e+10
-1.52501e+10
-1.48399e+10
-1.44745e+10
-1.41467e+10
-1.38511e+10
-1.35822e+10
-1.33375e+10
-1.31132e+10
-1.29072e+10
-1.27185e+10
-1.25349e+10
-1.23664e+10
-1.22263e+10
-1.20702e+10
-1.19023e+10
-1.1737e+10
-1.15836e+10
-1.14354e+10
-1.12816e+10
-1.11248e+10
-1.09673e+10
-1.08111e+10
-1.06595e+10
-1.05125e+10
-1.03674e+10
-1.0222e+10
-1.00717e+10
-9.90701e+09
-9.7156e+09
-9.4802e+09
-9.17417e+09
-8.78826e+09
-8.37645e+09
-7.68069e+09
-4.76636e+09
-3.1346e+10
-3.06143e+10
-3.04669e+10
-2.93968e+10
-2.85283e+10
-2.88861e+10
-2.9679e+10
-2.89325e+10
-2.72881e+10
-2.51414e+10
-2.29557e+10
-2.13128e+10
-2.01904e+10
-1.92872e+10
-1.8439e+10
-1.76365e+10
-1.69054e+10
-1.6265e+10
-1.57179e+10
-1.52473e+10
-1.48376e+10
-1.44735e+10
-1.41456e+10
-1.38488e+10
-1.35774e+10
-1.33307e+10
-1.31081e+10
-1.29036e+10
-1.27198e+10
-1.25482e+10
-1.23759e+10
-1.22175e+10
-1.20632e+10
-1.19043e+10
-1.17451e+10
-1.15942e+10
-1.14447e+10
-1.12879e+10
-1.11284e+10
-1.09701e+10
-1.08128e+10
-1.06613e+10
-1.05147e+10
-1.037e+10
-1.02248e+10
-1.00744e+10
-9.90995e+09
-9.71894e+09
-9.48456e+09
-9.18042e+09
-8.79555e+09
-8.37977e+09
-7.66826e+09
-4.73997e+09
-3.0582e+10
-3.01021e+10
-2.95142e+10
-2.85676e+10
-2.74612e+10
-2.62665e+10
-2.63175e+10
-2.64355e+10
-2.56981e+10
-2.39946e+10
-2.2097e+10
-2.07208e+10
-1.97529e+10
-1.89453e+10
-1.82008e+10
-1.75036e+10
-1.6863e+10
-1.62889e+10
-1.57829e+10
-1.53321e+10
-1.4924e+10
-1.45469e+10
-1.41977e+10
-1.38763e+10
-1.35841e+10
-1.33234e+10
-1.3089e+10
-1.28739e+10
-1.26833e+10
-1.25065e+10
-1.23287e+10
-1.21761e+10
-1.20314e+10
-1.18817e+10
-1.17377e+10
-1.15946e+10
-1.14492e+10
-1.13023e+10
-1.11559e+10
-1.10095e+10
-1.08633e+10
-1.07203e+10
-1.05819e+10
-1.04467e+10
-1.03112e+10
-1.01699e+10
-1.00127e+10
-9.82516e+09
-9.58863e+09
-9.28159e+09
-8.90532e+09
-8.53995e+09
-7.96064e+09
-5.23312e+09
-3.03052e+10
-2.96146e+10
-2.92084e+10
-2.81393e+10
-2.63846e+10
-2.57877e+10
-2.63954e+10
-2.6196e+10
-2.50988e+10
-2.35437e+10
-2.19967e+10
-2.07616e+10
-1.97813e+10
-1.89527e+10
-1.81949e+10
-1.74953e+10
-1.68557e+10
-1.62822e+10
-1.5775e+10
-1.53239e+10
-1.4916e+10
-1.45388e+10
-1.41875e+10
-1.38639e+10
-1.35695e+10
-1.33065e+10
-1.30708e+10
-1.28563e+10
-1.26735e+10
-1.25135e+10
-1.23365e+10
-1.21772e+10
-1.2028e+10
-1.18812e+10
-1.17439e+10
-1.16026e+10
-1.14559e+10
-1.13078e+10
-1.11596e+10
-1.10127e+10
-1.08673e+10
-1.0725e+10
-1.05869e+10
-1.04521e+10
-1.03173e+10
-1.01765e+10
-1.00196e+10
-9.83241e+09
-9.59674e+09
-9.2908e+09
-8.91354e+09
-8.55711e+09
-8.03145e+09
-5.44346e+09
-2.90185e+10
-2.87089e+10
-2.79397e+10
-2.71805e+10
-2.62732e+10
-2.44706e+10
-2.36416e+10
-2.35899e+10
-2.29987e+10
-2.1812e+10
-2.07977e+10
-1.99418e+10
-1.91913e+10
-1.85215e+10
-1.79e+10
-1.73142e+10
-1.67659e+10
-1.62623e+10
-1.58039e+10
-1.53826e+10
-1.49858e+10
-1.46045e+10
-1.42333e+10
-1.38813e+10
-1.35643e+10
-1.32844e+10
-1.30364e+10
-1.28129e+10
-1.26156e+10
-1.24456e+10
-1.2293e+10
-1.21503e+10
-1.20098e+10
-1.18698e+10
-1.17341e+10
-1.15975e+10
-1.14583e+10
-1.1319e+10
-1.11807e+10
-1.10427e+10
-1.0905e+10
-1.07695e+10
-1.06376e+10
-1.05084e+10
-1.0378e+10
-1.02397e+10
-1.00827e+10
-9.89193e+09
-9.64937e+09
-9.33464e+09
-8.95029e+09
-8.60957e+09
-8.12753e+09
-5.61338e+09
-2.88818e+10
-2.86855e+10
-2.82765e+10
-2.75631e+10
-2.58909e+10
-2.4372e+10
-2.32839e+10
-2.29594e+10
-2.24841e+10
-2.16896e+10
-2.08161e+10
-1.99788e+10
-1.92114e+10
-1.85311e+10
-1.79005e+10
-1.73111e+10
-1.67614e+10
-1.62552e+10
-1.57941e+10
-1.53712e+10
-1.49745e+10
-1.4592e+10
-1.42193e+10
-1.38665e+10
-1.35482e+10
-1.32677e+10
-1.30201e+10
-1.27994e+10
-1.26138e+10
-1.24553e+10
-1.22949e+10
-1.21454e+10
-1.2005e+10
-1.18669e+10
-1.17371e+10
-1.16052e+10
-1.1467e+10
-1.1327e+10
-1.11874e+10
-1.10485e+10
-1.0911e+10
-1.07766e+10
-1.06459e+10
-1.05173e+10
-1.03874e+10
-1.02493e+10
-1.0092e+10
-9.90051e+09
-9.65802e+09
-9.34576e+09
-8.96084e+09
-8.61975e+09
-8.18504e+09
-5.82724e+09
-2.70293e+10
-2.70875e+10
-2.635e+10
-2.63066e+10
-2.53316e+10
-2.33427e+10
-2.18807e+10
-2.11664e+10
-2.06855e+10
-2.02399e+10
-1.97371e+10
-1.91779e+10
-1.86197e+10
-1.80925e+10
-1.75902e+10
-1.71059e+10
-1.66405e+10
-1.62013e+10
-1.57927e+10
-1.54079e+10
-1.50342e+10
-1.46573e+10
-1.42624e+10
-1.38701e+10
-1.35182e+10
-1.32171e+10
-1.29625e+10
-1.27427e+10
-1.25548e+10
-1.24012e+10
-1.22645e+10
-1.21272e+10
-1.19884e+10
-1.18531e+10
-1.17231e+10
-1.15927e+10
-1.14591e+10
-1.13251e+10
-1.11921e+10
-1.10593e+10
-1.09269e+10
-1.07965e+10
-1.06692e+10
-1.05441e+10
-1.04174e+10
-1.02814e+10
-1.01253e+10
-9.93358e+09
-9.6867e+09
-9.3655e+09
-8.97674e+09
-8.61033e+09
-8.03228e+09
-5.33893e+09
-2.7104e+10
-2.75166e+10
-2.72945e+10
-2.6708e+10
-2.52547e+10
-2.29213e+10
-2.11748e+10
-2.0881e+10
-2.06645e+10
-2.02553e+10
-1.97494e+10
-1.91942e+10
-1.86313e+10
-1.80986e+10
-1.75914e+10
-1.71048e+10
-1.66389e+10
-1.6198e+10
-1.57864e+10
-1.53988e+10
-1.50239e+10
-1.46453e+10
-1.42488e+10
-1.38563e+10
-1.35053e+10
-1.32069e+10
-1.29538e+10
-1.27376e+10
-1.25567e+10
-1.24033e+10
-1.22603e+10
-1.21194e+10
-1.19823e+10
-1.18496e+10
-1.17231e+10
-1.15954e+10
-1.14625e+10
-1.13279e+10
-1.11941e+10
-1.10606e+10
-1.09284e+10
-1.07988e+10
-1.06723e+10
-1.05473e+10
-1.04195e+10
-1.02823e+10
-1.01253e+10
-9.93312e+09
-9.687e+09
-9.36698e+09
-8.98023e+09
-8.60845e+09
-7.9798e+09
-5.06354e+09
-2.48412e+10
-2.51807e+10
-2.49888e+10
-2.48172e+10
-2.35386e+10
-2.19583e+10
-2.07276e+10
-1.99879e+10
-1.95761e+10
-1.92494e+10
-1.89005e+10
-1.85201e+10
-1.81124e+10
-1.77008e+10
-1.72972e+10
-1.68982e+10
-1.65062e+10
-1.61259e+10
-1.5766e+10
-1.54237e+10
-1.5087e+10
-1.47296e+10
-1.43131e+10
-1.38555e+10
-1.34522e+10
-1.31344e+10
-1.28901e+10
-1.26895e+10
-1.25158e+10
-1.23687e+10
-1.22372e+10
-1.21061e+10
-1.19722e+10
-1.184e+10
-1.17107e+10
-1.15824e+10
-1.14531e+10
-1.13236e+10
-1.11946e+10
-1.10654e+10
-1.09368e+10
-1.08097e+10
-1.06852e+10
-1.0563e+10
-1.04392e+10
-1.03055e+10
-1.01496e+10
-9.9552e+09
-9.70292e+09
-9.37514e+09
-8.97791e+09
-8.58619e+09
-7.94469e+09
-5.14154e+09
-2.50243e+10
-2.57769e+10
-2.56058e+10
-2.4709e+10
-2.30434e+10
-2.1286e+10
-2.03884e+10
-1.99705e+10
-1.96321e+10
-1.92894e+10
-1.89191e+10
-1.85284e+10
-1.81176e+10
-1.7703e+10
-1.72968e+10
-1.68971e+10
-1.65066e+10
-1.61277e+10
-1.57662e+10
-1.5421e+10
-1.5081e+10
-1.472e+10
-1.42991e+10
-1.3837e+10
-1.34364e+10
-1.31227e+10
-1.28807e+10
-1.26839e+10
-1.2517e+10
-1.2369e+10
-1.22317e+10
-1.2098e+10
-1.19645e+10
-1.18331e+10
-1.1705e+10
-1.15775e+10
-1.14482e+10
-1.1318e+10
-1.11878e+10
-1.10576e+10
-1.09281e+10
-1.08005e+10
-1.06759e+10
-1.0553e+10
-1.04265e+10
-1.02897e+10
-1.01315e+10
-9.93453e+09
-9.68028e+09
-9.35074e+09
-8.95122e+09
-8.55019e+09
-7.87827e+09
-4.92902e+09
-2.24957e+10
-2.28743e+10
-2.31543e+10
-2.25561e+10
-2.13595e+10
-2.04066e+10
-1.97608e+10
-1.93007e+10
-1.89463e+10
-1.86433e+10
-1.83393e+10
-1.80262e+10
-1.76992e+10
-1.73642e+10
-1.70316e+10
-1.66981e+10
-1.63668e+10
-1.60422e+10
-1.57318e+10
-1.54401e+10
-1.51563e+10
-1.48508e+10
-1.44434e+10
-1.38668e+10
-1.33633e+10
-1.30169e+10
-1.28037e+10
-1.26375e+10
-1.24865e+10
-1.2346e+10
-1.2216e+10
-1.20891e+10
-1.19608e+10
-1.18317e+10
-1.17038e+10
-1.1578e+10
-1.14528e+10
-1.13276e+10
-1.12025e+10
-1.10767e+10
-1.09504e+10
-1.08246e+10
-1.07007e+10
-1.05797e+10
-1.04581e+10
-1.03261e+10
-1.01695e+10
-9.97114e+09
-9.71335e+09
-9.37927e+09
-8.97224e+09
-8.57161e+09
-7.95141e+09
-5.30209e+09
-2.25276e+10
-2.3227e+10
-2.29687e+10
-2.20593e+10
-2.08469e+10
-2.00752e+10
-1.96364e+10
-1.92774e+10
-1.89607e+10
-1.86548e+10
-1.83431e+10
-1.80241e+10
-1.76958e+10
-1.73608e+10
-1.70286e+10
-1.66974e+10
-1.63707e+10
-1.60498e+10
-1.57381e+10
-1.54408e+10
-1.51513e+10
-1.48431e+10
-1.4434e+10
-1.3851e+10
-1.33463e+10
-1.30079e+10
-1.27977e+10
-1.26351e+10
-1.2489e+10
-1.2347e+10
-1.22123e+10
-1.20836e+10
-1.19551e+10
-1.18256e+10
-1.16977e+10
-1.1573e+10
-1.14484e+10
-1.13231e+10
-1.11974e+10
-1.10712e+10
-1.09445e+10
-1.08184e+10
-1.06951e+10
-1.05735e+10
-1.04487e+10
-1.03131e+10
-1.01538e+10
-9.95262e+09
-9.69318e+09
-9.35938e+09
-8.95376e+09
-8.5544e+09
-7.92139e+09
-5.2358e+09
-2.01488e+10
-2.04203e+10
-2.07847e+10
-2.02371e+10
-1.96619e+10
-1.92694e+10
-1.89797e+10
-1.87035e+10
-1.84386e+10
-1.81779e+10
-1.79124e+10
-1.76436e+10
-1.73678e+10
-1.70853e+10
-1.68065e+10
-1.65282e+10
-1.62496e+10
-1.59739e+10
-1.57039e+10
-1.54566e+10
-1.52389e+10
-1.50366e+10
-1.47621e+10
-1.41177e+10
-1.33211e+10
-1.28021e+10
-1.26932e+10
-1.25781e+10
-1.24551e+10
-1.23243e+10
-1.21991e+10
-1.20751e+10
-1.19508e+10
-1.18253e+10
-1.17006e+10
-1.15778e+10
-1.14556e+10
-1.13334e+10
-1.12103e+10
-1.10854e+10
-1.0959e+10
-1.08331e+10
-1.07102e+10
-1.05912e+10
-1.04708e+10
-1.03383e+10
-1.01795e+10
-9.97663e+09
-9.7129e+09
-9.37218e+09
-8.95829e+09
-8.54775e+09
-7.89019e+09
-5.02123e+09
-1.99994e+10
-2.05188e+10
-2.0402e+10
-1.9849e+10
-1.93786e+10
-1.91415e+10
-1.89287e+10
-1.86923e+10
-1.84414e+10
-1.8182e+10
-1.79146e+10
-1.76422e+10
-1.73642e+10
-1.70806e+10
-1.68004e+10
-1.65219e+10
-1.62469e+10
-1.59794e+10
-1.57174e+10
-1.54705e+10
-1.52481e+10
-1.50357e+10
-1.47618e+10
-1.41243e+10
-1.33008e+10
-1.27949e+10
-1.2692e+10
-1.25789e+10
-1.24599e+10
-1.23278e+10
-1.22e+10
-1.20745e+10
-1.19489e+10
-1.18224e+10
-1.1699e+10
-1.15789e+10
-1.14586e+10
-1.13371e+10
-1.12142e+10
-1.10895e+10
-1.09634e+10
-1.08382e+10
-1.07167e+10
-1.05974e+10
-1.04744e+10
-1.03388e+10
-1.01774e+10
-9.97305e+09
-9.70917e+09
-9.37076e+09
-8.96011e+09
-8.55935e+09
-7.94982e+09
-5.30348e+09
-1.85615e+10
-1.8722e+10
-1.89212e+10
-1.87239e+10
-1.85913e+10
-1.85032e+10
-1.8382e+10
-1.82153e+10
-1.80163e+10
-1.77969e+10
-1.75639e+10
-1.73246e+10
-1.70828e+10
-1.68392e+10
-1.66e+10
-1.63628e+10
-1.61242e+10
-1.58907e+10
-1.56612e+10
-1.54464e+10
-1.52744e+10
-1.51423e+10
-1.50548e+10
-1.47861e+10
-1.32379e+10
-1.2503e+10
-1.25754e+10
-1.25302e+10
-1.24272e+10
-1.23074e+10
-1.21864e+10
-1.20636e+10
-1.19413e+10
-1.18199e+10
-1.16995e+10
-1.15791e+10
-1.14576e+10
-1.13349e+10
-1.12105e+10
-1.10838e+10
-1.09561e+10
-1.08301e+10
-1.07077e+10
-1.05871e+10
-1.04632e+10
-1.0327e+10
-1.01633e+10
-9.95302e+09
-9.68072e+09
-9.32989e+09
-8.90266e+09
-8.47881e+09
-7.79964e+09
-4.81487e+09
-1.85775e+10
-1.8688e+10
-1.87346e+10
-1.85741e+10
-1.84968e+10
-1.84574e+10
-1.83549e+10
-1.8202e+10
-1.80121e+10
-1.77978e+10
-1.75666e+10
-1.73266e+10
-1.70826e+10
-1.68361e+10
-1.65934e+10
-1.6353e+10
-1.61141e+10
-1.58859e+10
-1.56658e+10
-1.54596e+10
-1.52889e+10
-1.51475e+10
-1.50372e+10
-1.48032e+10
-1.31884e+10
-1.24886e+10
-1.25787e+10
-1.25356e+10
-1.24337e+10
-1.2314e+10
-1.21925e+10
-1.20684e+10
-1.19455e+10
-1.18257e+10
-1.17081e+10
-1.15896e+10
-1.14692e+10
-1.13475e+10
-1.1224e+10
-1.10987e+10
-1.0973e+10
-1.08497e+10
-1.07307e+10
-1.06127e+10
-1.04898e+10
-1.03522e+10
-1.01871e+10
-9.97874e+09
-9.70988e+09
-9.3655e+09
-8.94842e+09
-8.53227e+09
-7.87341e+09
-5.06403e+09
-1.80722e+10
-1.79785e+10
-1.79766e+10
-1.79708e+10
-1.79866e+10
-1.79777e+10
-1.79162e+10
-1.7813e+10
-1.76658e+10
-1.74814e+10
-1.72732e+10
-1.70557e+10
-1.68368e+10
-1.66202e+10
-1.6409e+10
-1.61979e+10
-1.5984e+10
-1.57765e+10
-1.55749e+10
-1.53783e+10
-1.52113e+10
-1.50859e+10
-1.504e+10
-1.50503e+10
-1.23414e+10
-1.25727e+10
-1.25312e+10
-1.24263e+10
-1.23088e+10
-1.21869e+10
-1.20642e+10
-1.19446e+10
-1.18272e+10
-1.17098e+10
-1.15909e+10
-1.14696e+10
-1.13461e+10
-1.12201e+10
-1.10925e+10
-1.09654e+10
-1.08408e+10
-1.07177e+10
-1.0593e+10
-1.04647e+10
-1.03261e+10
-1.0158e+10
-9.94062e+09
-9.66012e+09
-9.2995e+09
-8.86041e+09
-8.42135e+09
-7.73802e+09
-4.74948e+09
-1.82332e+10
-1.7921e+10
-1.7936e+10
-1.79292e+10
-1.79595e+10
-1.79619e+10
-1.79043e+10
-1.7802e+10
-1.76562e+10
-1.74775e+10
-1.72746e+10
-1.70582e+10
-1.68358e+10
-1.66118e+10
-1.63922e+10
-1.61776e+10
-1.59642e+10
-1.5761e+10
-1.5569e+10
-1.53871e+10
-1.52311e+10
-1.5101e+10
-1.50491e+10
-1.51001e+10
-1.23322e+10
-1.25693e+10
-1.25334e+10
-1.24293e+10
-1.23148e+10
-1.21959e+10
-1.20747e+10
-1.19565e+10
-1.18395e+10
-1.17221e+10
-1.16035e+10
-1.1483e+10
-1.13604e+10
-1.1236e+10
-1.11109e+10
-1.09874e+10
-1.08671e+10
-1.07487e+10
-1.06284e+10
-1.05033e+10
-1.03648e+10
-1.01968e+10
-9.98351e+09
-9.70757e+09
-9.35525e+09
-8.93013e+09
-8.49932e+09
-7.81162e+09
-4.99551e+09
-1.77562e+10
-1.75173e+10
-1.75065e+10
-1.75349e+10
-1.75629e+10
-1.75658e+10
-1.75327e+10
-1.74626e+10
-1.73545e+10
-1.72101e+10
-1.70361e+10
-1.68439e+10
-1.6642e+10
-1.64378e+10
-1.62386e+10
-1.60449e+10
-1.58492e+10
-1.56515e+10
-1.5453e+10
-1.52506e+10
-1.50674e+10
-1.49314e+10
-1.47839e+10
-1.45867e+10
-1.3695e+10
-1.28842e+10
-1.27158e+10
-1.25887e+10
-1.24599e+10
-1.2332e+10
-1.22065e+10
-1.20847e+10
-1.19675e+10
-1.18528e+10
-1.17376e+10
-1.16202e+10
-1.15001e+10
-1.13775e+10
-1.12532e+10
-1.1129e+10
-1.10069e+10
-1.08864e+10
-1.07647e+10
-1.06399e+10
-1.0513e+10
-1.03776e+10
-1.02107e+10
-9.99116e+09
-9.70578e+09
-9.33959e+09
-8.89471e+09
-8.43949e+09
-7.73194e+09
-4.73567e+09
-1.77648e+10
-1.74853e+10
-1.7492e+10
-1.75222e+10
-1.75568e+10
-1.7564e+10
-1.75335e+10
-1.74627e+10
-1.73513e+10
-1.72056e+10
-1.70328e+10
-1.68419e+10
-1.6641e+10
-1.64352e+10
-1.62295e+10
-1.60271e+10
-1.5825e+10
-1.56287e+10
-1.54425e+10
-1.52592e+10
-1.50925e+10
-1.49592e+10
-1.47998e+10
-1.45832e+10
-1.37017e+10
-1.2882e+10
-1.2711e+10
-1.25883e+10
-1.24597e+10
-1.23363e+10
-1.22171e+10
-1.20962e+10
-1.19777e+10
-1.18617e+10
-1.17456e+10
-1.16281e+10
-1.15083e+10
-1.13865e+10
-1.12639e+10
-1.11425e+10
-1.10238e+10
-1.09067e+10
-1.07879e+10
-1.06658e+10
-1.05411e+10
-1.04057e+10
-1.02393e+10
-1.00234e+10
-9.74113e+09
-9.38104e+09
-8.94882e+09
-8.50954e+09
-7.81967e+09
-5.0486e+09
-1.72421e+10
-1.71049e+10
-1.71268e+10
-1.71633e+10
-1.71961e+10
-1.72113e+10
-1.71978e+10
-1.7149e+10
-1.70663e+10
-1.69521e+10
-1.68101e+10
-1.6647e+10
-1.64707e+10
-1.6288e+10
-1.6105e+10
-1.59241e+10
-1.57377e+10
-1.55424e+10
-1.53413e+10
-1.5135e+10
-1.49303e+10
-1.47354e+10
-1.44896e+10
-1.40345e+10
-1.35126e+10
-1.31062e+10
-1.28622e+10
-1.26718e+10
-1.25124e+10
-1.23707e+10
-1.22405e+10
-1.21177e+10
-1.20005e+10
-1.18864e+10
-1.17721e+10
-1.16558e+10
-1.15372e+10
-1.14171e+10
-1.12973e+10
-1.11795e+10
-1.10641e+10
-1.0949e+10
-1.08309e+10
-1.07091e+10
-1.05862e+10
-1.04571e+10
-1.0296e+10
-1.00791e+10
-9.79319e+09
-9.42718e+09
-8.98773e+09
-8.53903e+09
-7.82993e+09
-4.88465e+09
-1.72113e+10
-1.71022e+10
-1.71217e+10
-1.71605e+10
-1.71951e+10
-1.72119e+10
-1.72015e+10
-1.71549e+10
-1.70717e+10
-1.69557e+10
-1.68125e+10
-1.66492e+10
-1.64729e+10
-1.62893e+10
-1.61014e+10
-1.59109e+10
-1.57176e+10
-1.55241e+10
-1.5335e+10
-1.51464e+10
-1.49564e+10
-1.47656e+10
-1.45068e+10
-1.40493e+10
-1.35228e+10
-1.31083e+10
-1.28656e+10
-1.26782e+10
-1.25166e+10
-1.2375e+10
-1.22479e+10
-1.21247e+10
-1.20057e+10
-1.18904e+10
-1.17754e+10
-1.16589e+10
-1.15405e+10
-1.14215e+10
-1.13035e+10
-1.11881e+10
-1.10748e+10
-1.09614e+10
-1.08453e+10
-1.07253e+10
-1.06034e+10
-1.04742e+10
-1.03138e+10
-1.01e+10
-9.81588e+09
-9.45219e+09
-9.02092e+09
-8.59454e+09
-7.94476e+09
-5.24302e+09
-1.68044e+10
-1.67488e+10
-1.67777e+10
-1.68231e+10
-1.68689e+10
-1.68968e+10
-1.68984e+10
-1.68689e+10
-1.68065e+10
-1.67141e+10
-1.65954e+10
-1.64548e+10
-1.6299e+10
-1.61367e+10
-1.59719e+10
-1.58028e+10
-1.56247e+10
-1.54342e+10
-1.52336e+10
-1.50257e+10
-1.48097e+10
-1.45763e+10
-1.42926e+10
-1.39229e+10
-1.3534e+10
-1.32073e+10
-1.2955e+10
-1.27449e+10
-1.25677e+10
-1.2415e+10
-1.22776e+10
-1.21511e+10
-1.2032e+10
-1.19167e+10
-1.18019e+10
-1.16858e+10
-1.15685e+10
-1.14517e+10
-1.13372e+10
-1.12258e+10
-1.11164e+10
-1.10062e+10
-1.08916e+10
-1.07725e+10
-1.06526e+10
-1.05286e+10
-1.03752e+10
-1.01649e+10
-9.8804e+09
-9.51601e+09
-9.08449e+09
-8.65553e+09
-7.9765e+09
-5.11954e+09
-1.68156e+10
-1.67542e+10
-1.67808e+10
-1.68239e+10
-1.68686e+10
-1.68975e+10
-1.69017e+10
-1.68749e+10
-1.68136e+10
-1.67207e+10
-1.66017e+10
-1.64614e+10
-1.63064e+10
-1.61434e+10
-1.59742e+10
-1.57973e+10
-1.56126e+10
-1.5423e+10
-1.52304e+10
-1.50333e+10
-1.4826e+10
-1.45944e+10
-1.43083e+10
-1.3935e+10
-1.35427e+10
-1.32151e+10
-1.29677e+10
-1.27594e+10
-1.25766e+10
-1.24199e+10
-1.22818e+10
-1.2154e+10
-1.20337e+10
-1.19178e+10
-1.18026e+10
-1.16865e+10
-1.15698e+10
-1.14543e+10
-1.13417e+10
-1.12319e+10
-1.11234e+10
-1.10136e+10
-1.09003e+10
-1.07829e+10
-1.06641e+10
-1.05406e+10
-1.03888e+10
-1.01817e+10
-9.89632e+09
-9.53092e+09
-9.10368e+09
-8.70541e+09
-8.13978e+09
-5.57785e+09
-1.65186e+10
-1.64622e+10
-1.64965e+10
-1.6543e+10
-1.659e+10
-1.66228e+10
-1.66343e+10
-1.66185e+10
-1.65727e+10
-1.64987e+10
-1.64001e+10
-1.62794e+10
-1.61414e+10
-1.59961e+10
-1.58479e+10
-1.569e+10
-1.55185e+10
-1.53317e+10
-1.51316e+10
-1.49222e+10
-1.47021e+10
-1.44627e+10
-1.41856e+10
-1.38663e+10
-1.35446e+10
-1.32591e+10
-1.30144e+10
-1.27994e+10
-1.2614e+10
-1.24545e+10
-1.23108e+10
-1.21793e+10
-1.20572e+10
-1.19395e+10
-1.1823e+10
-1.17062e+10
-1.15898e+10
-1.14759e+10
-1.1366e+10
-1.12596e+10
-1.11541e+10
-1.10464e+10
-1.09336e+10
-1.08161e+10
-1.06987e+10
-1.0581e+10
-1.04374e+10
-1.02342e+10
-9.94892e+09
-9.58273e+09
-9.15165e+09
-8.72781e+09
-8.06673e+09
-5.25488e+09
-1.6521e+10
-1.64674e+10
-1.64997e+10
-1.65441e+10
-1.65896e+10
-1.66228e+10
-1.66365e+10
-1.66241e+10
-1.65803e+10
-1.65062e+10
-1.64064e+10
-1.62848e+10
-1.61469e+10
-1.6e+10
-1.58465e+10
-1.56823e+10
-1.55064e+10
-1.53217e+10
-1.51297e+10
-1.49279e+10
-1.47107e+10
-1.44697e+10
-1.41879e+10
-1.38665e+10
-1.35445e+10
-1.32635e+10
-1.3028e+10
-1.28164e+10
-1.26253e+10
-1.24609e+10
-1.23146e+10
-1.21811e+10
-1.2058e+10
-1.19401e+10
-1.18238e+10
-1.17075e+10
-1.15922e+10
-1.14799e+10
-1.13715e+10
-1.12661e+10
-1.1161e+10
-1.10533e+10
-1.09414e+10
-1.08253e+10
-1.07087e+10
-1.05909e+10
-1.04495e+10
-1.02501e+10
-9.9613e+09
-9.59191e+09
-9.16332e+09
-8.77674e+09
-8.27404e+09
-5.83953e+09
-1.62845e+10
-1.62415e+10
-1.62711e+10
-1.63107e+10
-1.63542e+10
-1.63881e+10
-1.6405e+10
-1.63989e+10
-1.63661e+10
-1.63066e+10
-1.62225e+10
-1.61158e+10
-1.59909e+10
-1.58564e+10
-1.57184e+10
-1.55729e+10
-1.54135e+10
-1.52368e+10
-1.50459e+10
-1.48422e+10
-1.46221e+10
-1.43813e+10
-1.41165e+10
-1.38327e+10
-1.35496e+10
-1.32882e+10
-1.30529e+10
-1.28394e+10
-1.26497e+10
-1.24847e+10
-1.23366e+10
-1.22008e+10
-1.20747e+10
-1.19537e+10
-1.18344e+10
-1.17158e+10
-1.15993e+10
-1.14868e+10
-1.13794e+10
-1.12762e+10
-1.11734e+10
-1.10663e+10
-1.09533e+10
-1.08361e+10
-1.07212e+10
-1.06089e+10
-1.04741e+10
-1.02771e+10
-9.98659e+09
-9.61217e+09
-9.17544e+09
-8.72913e+09
-8.0174e+09
-5.0582e+09
-1.6288e+10
-1.62456e+10
-1.62743e+10
-1.63126e+10
-1.63548e+10
-1.63883e+10
-1.64064e+10
-1.64029e+10
-1.63722e+10
-1.63134e+10
-1.62294e+10
-1.61231e+10
-1.59987e+10
-1.5863e+10
-1.57199e+10
-1.55677e+10
-1.54037e+10
-1.52268e+10
-1.50384e+10
-1.48384e+10
-1.46215e+10
-1.43805e+10
-1.41139e+10
-1.38274e+10
-1.35445e+10
-1.32898e+10
-1.30648e+10
-1.28559e+10
-1.26626e+10
-1.24933e+10
-1.23422e+10
-1.22039e+10
-1.20768e+10
-1.1956e+10
-1.18375e+10
-1.17205e+10
-1.1606e+10
-1.14955e+10
-1.13894e+10
-1.12862e+10
-1.11831e+10
-1.10766e+10
-1.09645e+10
-1.08482e+10
-1.07335e+10
-1.0622e+10
-1.0488e+10
-1.02946e+10
-1.00048e+10
-9.63139e+09
-9.19641e+09