/*--------------------------------*- C++ -*----------------------------------*\
| =========                 |                                                 |
| \\      /  F ield         | OpenFOAM: The Open Source CFD Toolbox           |
|  \\    /   O peration     | Version:  4.1                                   |
|   \\  /    A nd           | Web:      www.OpenFOAM.org                      |
|    \\/     M anipulation  |                                                 |
\*---------------------------------------------------------------------------*/
FoamFile
{
    version     2.0;
    format      ascii;
    class       volScalarField;
    location    "42";
    object      p;
}
// * * * * * * * * * * * * * * * * * * * * * * * * * * * * * * * * * * * * * //

dimensions      [0 2 -2 0 0 0 0];

internalField   nonuniform List<scalar> 
4432
(
-3.53259e+10
-3.82768e+10
-3.83645e+10
-3.33524e+10
-3.28666e+10
-3.3837e+10
-3.32999e+10
-3.29077e+10
-3.26699e+10
-3.25276e+10
-3.23607e+10
-3.215e+10
-3.19149e+10
-3.16865e+10
-3.15024e+10
-3.13455e+10
-3.1159e+10
-3.09474e+10
-3.07252e+10
-3.04986e+10
-3.02621e+10
-3.0018e+10
-2.97682e+10
-2.95159e+10
-2.92652e+10
-2.90207e+10
-2.87868e+10
-2.85676e+10
-2.8366e+10
-2.8184e+10
-2.80228e+10
-2.78827e+10
-2.7763e+10
-2.76596e+10
-2.7566e+10
-2.74735e+10
-2.737e+10
-2.72415e+10
-2.70742e+10
-2.68581e+10
-2.65912e+10
-2.62839e+10
-2.5962e+10
-2.56704e+10
-2.54747e+10
-2.54397e+10
-2.55659e+10
-2.5718e+10
-2.5689e+10
-2.56866e+10
-2.71202e+10
-3.15578e+10
-3.47225e+10
-1.84923e+10
-3.57219e+10
-3.66163e+10
-3.65185e+10
-3.4827e+10
-3.30069e+10
-3.35104e+10
-3.32946e+10
-3.28877e+10
-3.26625e+10
-3.2558e+10
-3.23999e+10
-3.21698e+10
-3.19174e+10
-3.16912e+10
-3.15141e+10
-3.13566e+10
-3.1164e+10
-3.09487e+10
-3.07281e+10
-3.05012e+10
-3.02634e+10
-3.00181e+10
-2.97669e+10
-2.95135e+10
-2.92616e+10
-2.9016e+10
-2.87811e+10
-2.85608e+10
-2.83582e+10
-2.81752e+10
-2.80127e+10
-2.7871e+10
-2.77489e+10
-2.76431e+10
-2.75475e+10
-2.74527e+10
-2.73464e+10
-2.72147e+10
-2.70437e+10
-2.68233e+10
-2.65516e+10
-2.62391e+10
-2.59119e+10
-2.56144e+10
-2.541e+10
-2.53589e+10
-2.54529e+10
-2.5537e+10
-2.53743e+10
-2.51469e+10
-2.63455e+10
-3.10671e+10
-3.57436e+10
-2.19557e+10
-3.55994e+10
-3.54607e+10
-3.50903e+10
-3.50711e+10
-3.32644e+10
-3.30501e+10
-3.32501e+10
-3.29155e+10
-3.26772e+10
-3.25728e+10
-3.24104e+10
-3.22136e+10
-3.198e+10
-3.17307e+10
-3.15211e+10
-3.13687e+10
-3.12058e+10
-3.10014e+10
-3.07808e+10
-3.055e+10
-3.03099e+10
-3.00606e+10
-2.98043e+10
-2.95445e+10
-2.92858e+10
-2.90331e+10
-2.87911e+10
-2.85641e+10
-2.83553e+10
-2.81669e+10
-2.79995e+10
-2.78535e+10
-2.77293e+10
-2.76214e+10
-2.75198e+10
-2.74173e+10
-2.73037e+10
-2.71658e+10
-2.69905e+10
-2.67675e+10
-2.64937e+10
-2.61783e+10
-2.58461e+10
-2.55379e+10
-2.53123e+10
-2.52278e+10
-2.52616e+10
-2.52284e+10
-2.49084e+10
-2.46706e+10
-2.63085e+10
-3.15176e+10
-3.48132e+10
-1.99309e+10
-3.56921e+10
-3.585e+10
-3.54006e+10
-3.44552e+10
-3.32336e+10
-3.30926e+10
-3.32601e+10
-3.28817e+10
-3.26852e+10
-3.25789e+10
-3.24273e+10
-3.22235e+10
-3.19784e+10
-3.17256e+10
-3.15253e+10
-3.13848e+10
-3.12169e+10
-3.10028e+10
-3.0784e+10
-3.05535e+10
-3.0313e+10
-3.00629e+10
-2.98057e+10
-2.95451e+10
-2.92856e+10
-2.90323e+10
-2.87898e+10
-2.85627e+10
-2.83541e+10
-2.81663e+10
-2.79996e+10
-2.78537e+10
-2.77273e+10
-2.76164e+10
-2.75143e+10
-2.74116e+10
-2.72967e+10
-2.71578e+10
-2.69828e+10
-2.67616e+10
-2.64914e+10
-2.61819e+10
-2.58578e+10
-2.55596e+10
-2.53442e+10
-2.52631e+10
-2.52895e+10
-2.52369e+10
-2.48735e+10
-2.46153e+10
-2.65724e+10
-3.27643e+10
-3.57598e+10
-1.74587e+10
-3.63559e+10
-3.54068e+10
-3.39576e+10
-3.47228e+10
-3.34891e+10
-3.28206e+10
-3.27176e+10
-3.26252e+10
-3.2564e+10
-3.25021e+10
-3.23691e+10
-3.22037e+10
-3.19796e+10
-3.17252e+10
-3.15142e+10
-3.13552e+10
-3.11879e+10
-3.09872e+10
-3.07728e+10
-3.0543e+10
-3.03003e+10
-3.0046e+10
-2.97825e+10
-2.95141e+10
-2.92456e+10
-2.89831e+10
-2.8732e+10
-2.84975e+10
-2.82839e+10
-2.80934e+10
-2.79251e+10
-2.7775e+10
-2.7641e+10
-2.75243e+10
-2.74176e+10
-2.7307e+10
-2.71838e+10
-2.70356e+10
-2.68515e+10
-2.6622e+10
-2.63462e+10
-2.60383e+10
-2.57279e+10
-2.54593e+10
-2.52907e+10
-2.52686e+10
-2.53516e+10
-2.53324e+10
-2.49609e+10
-2.46018e+10
-2.6062e+10
-3.10704e+10
-3.45785e+10
-1.83329e+10
-3.58072e+10
-3.56925e+10
-3.48017e+10
-3.3745e+10
-3.33935e+10
-3.3079e+10
-3.28469e+10
-3.26279e+10
-3.25881e+10
-3.25093e+10
-3.23716e+10
-3.21957e+10
-3.19738e+10
-3.1728e+10
-3.15231e+10
-3.13764e+10
-3.12057e+10
-3.10005e+10
-3.07867e+10
-3.05581e+10
-3.03163e+10
-3.00622e+10
-2.97987e+10
-2.95299e+10
-2.9261e+10
-2.89978e+10
-2.87458e+10
-2.85102e+10
-2.82953e+10
-2.81036e+10
-2.79341e+10
-2.77843e+10
-2.76517e+10
-2.75336e+10
-2.74237e+10
-2.73131e+10
-2.71899e+10
-2.70426e+10
-2.686e+10
-2.66325e+10
-2.63587e+10
-2.60518e+10
-2.57394e+10
-2.5463e+10
-2.52743e+10
-2.52116e+10
-2.52253e+10
-2.50945e+10
-2.4557e+10
-2.40231e+10
-2.55008e+10
-3.10188e+10
-3.59345e+10
-2.22213e+10
-3.50786e+10
-3.50693e+10
-3.43989e+10
-3.3774e+10
-3.35629e+10
-3.31137e+10
-3.27859e+10
-3.2582e+10
-3.25055e+10
-3.24317e+10
-3.23099e+10
-3.21659e+10
-3.19733e+10
-3.17556e+10
-3.15679e+10
-3.14097e+10
-3.1235e+10
-3.10346e+10
-3.08214e+10
-3.05915e+10
-3.03453e+10
-3.00831e+10
-2.98086e+10
-2.95273e+10
-2.92461e+10
-2.89726e+10
-2.87141e+10
-2.84773e+10
-2.82671e+10
-2.80853e+10
-2.79281e+10
-2.77851e+10
-2.76515e+10
-2.75435e+10
-2.74583e+10
-2.73532e+10
-2.72261e+10
-2.70727e+10
-2.68777e+10
-2.66333e+10
-2.63401e+10
-2.60161e+10
-2.56947e+10
-2.54217e+10
-2.52536e+10
-2.52284e+10
-2.52955e+10
-2.52475e+10
-2.48186e+10
-2.43037e+10
-2.54398e+10
-3.03015e+10
-3.44855e+10
-1.85675e+10
-3.49666e+10
-3.46557e+10
-3.40247e+10
-3.34792e+10
-3.36774e+10
-3.34149e+10
-3.28876e+10
-3.25838e+10
-3.25144e+10
-3.2427e+10
-3.23091e+10
-3.21618e+10
-3.1973e+10
-3.17675e+10
-3.15904e+10
-3.14361e+10
-3.12568e+10
-3.10555e+10
-3.08422e+10
-3.06126e+10
-3.03657e+10
-3.01024e+10
-2.98262e+10
-2.95427e+10
-2.92588e+10
-2.89822e+10
-2.87202e+10
-2.84793e+10
-2.82641e+10
-2.80768e+10
-2.79157e+10
-2.77755e+10
-2.76524e+10
-2.75441e+10
-2.74428e+10
-2.73397e+10
-2.72192e+10
-2.7067e+10
-2.68753e+10
-2.66348e+10
-2.63449e+10
-2.60219e+10
-2.56976e+10
-2.5415e+10
-2.52244e+10
-2.51593e+10
-2.51647e+10
-2.50235e+10
-2.44817e+10
-2.39907e+10
-2.57372e+10
-3.19034e+10
-3.59972e+10
-1.92155e+10
-3.39292e+10
-3.38952e+10
-3.37655e+10
-3.32895e+10
-3.33027e+10
-3.30405e+10
-3.27351e+10
-3.25179e+10
-3.24335e+10
-3.23789e+10
-3.22668e+10
-3.20982e+10
-3.19188e+10
-3.17376e+10
-3.158e+10
-3.14263e+10
-3.12522e+10
-3.10573e+10
-3.0846e+10
-3.06149e+10
-3.03623e+10
-3.00878e+10
-2.97957e+10
-2.94925e+10
-2.91888e+10
-2.88947e+10
-2.86202e+10
-2.83727e+10
-2.81572e+10
-2.79737e+10
-2.78177e+10
-2.76809e+10
-2.75591e+10
-2.74578e+10
-2.73701e+10
-2.72716e+10
-2.71482e+10
-2.69893e+10
-2.67817e+10
-2.65184e+10
-2.62028e+10
-2.58527e+10
-2.55016e+10
-2.51963e+10
-2.4991e+10
-2.49186e+10
-2.49253e+10
-2.47968e+10
-2.42356e+10
-2.34318e+10
-2.40195e+10
-2.85405e+10
-3.44434e+10
-2.24257e+10
-3.40443e+10
-3.37243e+10
-3.33743e+10
-3.31779e+10
-3.34368e+10
-3.3214e+10
-3.28218e+10
-3.25536e+10
-3.24248e+10
-3.23443e+10
-3.22453e+10
-3.20999e+10
-3.19268e+10
-3.17518e+10
-3.15975e+10
-3.14443e+10
-3.12674e+10
-3.10711e+10
-3.08583e+10
-3.06256e+10
-3.03705e+10
-3.00931e+10
-2.97971e+10
-2.94899e+10
-2.91815e+10
-2.88826e+10
-2.8603e+10
-2.83498e+10
-2.81274e+10
-2.79377e+10
-2.77795e+10
-2.76474e+10
-2.75344e+10
-2.74367e+10
-2.73475e+10
-2.72541e+10
-2.71415e+10
-2.69946e+10
-2.68012e+10
-2.65539e+10
-2.6256e+10
-2.59244e+10
-2.55919e+10
-2.53059e+10
-2.51203e+10
-2.50692e+10
-2.51026e+10
-2.50088e+10
-2.45144e+10
-2.3981e+10
-2.55033e+10
-3.14351e+10
-3.57396e+10
-1.86137e+10
-3.34493e+10
-3.33098e+10
-3.31988e+10
-3.30649e+10
-3.30884e+10
-3.29365e+10
-3.26948e+10
-3.24834e+10
-3.23681e+10
-3.23242e+10
-3.22583e+10
-3.21026e+10
-3.19346e+10
-3.17843e+10
-3.16474e+10
-3.1502e+10
-3.13376e+10
-3.1154e+10
-3.09515e+10
-3.07263e+10
-3.04738e+10
-3.01923e+10
-2.98841e+10
-2.95592e+10
-2.92316e+10
-2.89166e+10
-2.86259e+10
-2.83662e+10
-2.81415e+10
-2.79518e+10
-2.77941e+10
-2.76643e+10
-2.75591e+10
-2.74721e+10
-2.73902e+10
-2.73015e+10
-2.71931e+10
-2.70498e+10
-2.68586e+10
-2.66136e+10
-2.63192e+10
-2.59934e+10
-2.56697e+10
-2.53963e+10
-2.5228e+10
-2.51998e+10
-2.52685e+10
-2.5234e+10
-2.47956e+10
-2.40956e+10
-2.47168e+10
-2.91648e+10
-3.45656e+10
-2.10961e+10
-3.35024e+10
-3.3336e+10
-3.3166e+10
-3.30324e+10
-3.31437e+10
-3.2962e+10
-3.27085e+10
-3.25286e+10
-3.2406e+10
-3.23294e+10
-3.2237e+10
-3.20969e+10
-3.19399e+10
-3.17936e+10
-3.16569e+10
-3.15107e+10
-3.1345e+10
-3.11613e+10
-3.09588e+10
-3.07334e+10
-3.04807e+10
-3.01984e+10
-2.98894e+10
-2.95631e+10
-2.92334e+10
-2.89148e+10
-2.86192e+10
-2.83547e+10
-2.81251e+10
-2.79307e+10
-2.777e+10
-2.76392e+10
-2.7532e+10
-2.74423e+10
-2.7361e+10
-2.72751e+10
-2.7171e+10
-2.70339e+10
-2.68502e+10
-2.66138e+10
-2.63291e+10
-2.6014e+10
-2.57022e+10
-2.54429e+10
-2.52928e+10
-2.52904e+10
-2.53969e+10
-2.5417e+10
-2.50735e+10
-2.46162e+10
-2.58629e+10
-3.11131e+10
-3.55406e+10
-1.88202e+10
-3.29355e+10
-3.28751e+10
-3.28375e+10
-3.28808e+10
-3.287e+10
-3.27721e+10
-3.25983e+10
-3.24218e+10
-3.23192e+10
-3.22811e+10
-3.22015e+10
-3.20692e+10
-3.19371e+10
-3.18169e+10
-3.16953e+10
-3.15607e+10
-3.14073e+10
-3.12337e+10
-3.1039e+10
-3.0818e+10
-3.05631e+10
-3.02673e+10
-2.99309e+10
-2.95687e+10
-2.92019e+10
-2.88524e+10
-2.85349e+10
-2.82577e+10
-2.80228e+10
-2.78273e+10
-2.76674e+10
-2.75408e+10
-2.74439e+10
-2.73672e+10
-2.7297e+10
-2.72221e+10
-2.71305e+10
-2.70084e+10
-2.68444e+10
-2.66329e+10
-2.63784e+10
-2.60988e+10
-2.58281e+10
-2.56145e+10
-2.55131e+10
-2.55635e+10
-2.57371e+10
-2.58609e+10
-2.56746e+10
-2.53918e+10
-2.6717e+10
-3.18213e+10
-3.59901e+10
-1.89649e+10
-3.29338e+10
-3.29085e+10
-3.29889e+10
-3.29249e+10
-3.28375e+10
-3.26907e+10
-3.25641e+10
-3.2451e+10
-3.23635e+10
-3.22884e+10
-3.21898e+10
-3.20677e+10
-3.1943e+10
-3.18252e+10
-3.17048e+10
-3.15705e+10
-3.14177e+10
-3.12453e+10
-3.10516e+10
-3.08316e+10
-3.05775e+10
-3.0282e+10
-2.99468e+10
-2.95853e+10
-2.92191e+10
-2.88687e+10
-2.85498e+10
-2.82713e+10
-2.80356e+10
-2.78405e+10
-2.76816e+10
-2.75548e+10
-2.74558e+10
-2.73762e+10
-2.73047e+10
-2.72294e+10
-2.71371e+10
-2.70141e+10
-2.68486e+10
-2.66349e+10
-2.6377e+10
-2.60923e+10
-2.58141e+10
-2.55905e+10
-2.54767e+10
-2.55119e+10
-2.56663e+10
-2.57639e+10
-2.55409e+10
-2.52025e+10
-2.64539e+10
-3.17181e+10
-3.69455e+10
-2.23455e+10
-3.25985e+10
-3.25695e+10
-3.26417e+10
-3.27717e+10
-3.27652e+10
-3.26226e+10
-3.24534e+10
-3.23185e+10
-3.22697e+10
-3.22569e+10
-3.2176e+10
-3.20655e+10
-3.19635e+10
-3.1867e+10
-3.17644e+10
-3.16467e+10
-3.15086e+10
-3.13482e+10
-3.11644e+10
-3.09525e+10
-3.07011e+10
-3.03934e+10
-3.00262e+10
-2.96172e+10
-2.92012e+10
-2.88091e+10
-2.84611e+10
-2.81659e+10
-2.79229e+10
-2.77254e+10
-2.75673e+10
-2.74448e+10
-2.73492e+10
-2.72712e+10
-2.72006e+10
-2.71268e+10
-2.70366e+10
-2.69164e+10
-2.67555e+10
-2.65486e+10
-2.63002e+10
-2.60282e+10
-2.5765e+10
-2.55565e+10
-2.54546e+10
-2.54955e+10
-2.56484e+10
-2.5743e+10
-2.55257e+10
-2.52168e+10
-2.65611e+10
-3.20876e+10
-3.78016e+10
-2.25378e+10
-3.25647e+10
-3.25611e+10
-3.27631e+10
-3.28643e+10
-3.27373e+10
-3.25486e+10
-3.24489e+10
-3.2362e+10
-3.23019e+10
-3.22535e+10
-3.21726e+10
-3.20741e+10
-3.19769e+10
-3.18816e+10
-3.1779e+10
-3.1661e+10
-3.15228e+10
-3.1362e+10
-3.11771e+10
-3.09634e+10
-3.0709e+10
-3.03986e+10
-3.0028e+10
-2.96164e+10
-2.9198e+10
-2.88041e+10
-2.8455e+10
-2.8159e+10
-2.79167e+10
-2.77223e+10
-2.75671e+10
-2.74448e+10
-2.73486e+10
-2.72697e+10
-2.71981e+10
-2.71227e+10
-2.70305e+10
-2.69076e+10
-2.67433e+10
-2.65325e+10
-2.62794e+10
-2.60012e+10
-2.57296e+10
-2.55093e+10
-2.53902e+10
-2.54058e+10
-2.55213e+10
-2.556e+10
-2.52527e+10
-2.47533e+10
-2.56817e+10
-3.1037e+10
-3.90691e+10
-2.95272e+10
-3.2432e+10
-3.23659e+10
-3.24341e+10
-3.2551e+10
-3.25925e+10
-3.24599e+10
-3.23118e+10
-3.22372e+10
-3.22241e+10
-3.21978e+10
-3.21309e+10
-3.20556e+10
-3.19845e+10
-3.19132e+10
-3.18333e+10
-3.17359e+10
-3.16147e+10
-3.14672e+10
-3.12937e+10
-3.10925e+10
-3.08481e+10
-3.05302e+10
-3.01185e+10
-2.96364e+10
-2.91452e+10
-2.86962e+10
-2.83156e+10
-2.80089e+10
-2.777e+10
-2.75862e+10
-2.7445e+10
-2.73387e+10
-2.72577e+10
-2.71915e+10
-2.71305e+10
-2.70632e+10
-2.69766e+10
-2.68577e+10
-2.66963e+10
-2.64882e+10
-2.62393e+10
-2.59685e+10
-2.5709e+10
-2.55063e+10
-2.54098e+10
-2.54496e+10
-2.55834e+10
-2.56249e+10
-2.52977e+10
-2.47713e+10
-2.57257e+10
-3.09566e+10
-3.80143e+10
-2.72585e+10
-3.24031e+10
-3.23404e+10
-3.24641e+10
-3.26067e+10
-3.25623e+10
-3.24266e+10
-3.23517e+10
-3.22884e+10
-3.22321e+10
-3.21824e+10
-3.21207e+10
-3.20527e+10
-3.19829e+10
-3.1911e+10
-3.18296e+10
-3.17313e+10
-3.16097e+10
-3.1462e+10
-3.12882e+10
-3.10861e+10
-3.08412e+10
-3.05241e+10
-3.01147e+10
-2.96365e+10
-2.91479e+10
-2.87001e+10
-2.83187e+10
-2.80101e+10
-2.77702e+10
-2.75882e+10
-2.74494e+10
-2.7345e+10
-2.72659e+10
-2.72029e+10
-2.71467e+10
-2.70851e+10
-2.70049e+10
-2.68934e+10
-2.67404e+10
-2.6542e+10
-2.63043e+10
-2.60463e+10
-2.58017e+10
-2.56167e+10
-2.55412e+10
-2.56058e+10
-2.57679e+10
-2.58381e+10
-2.55304e+10
-2.49916e+10
-2.58773e+10
-3.11187e+10
-3.77603e+10
-2.38337e+10
-3.23888e+10
-3.22953e+10
-3.22352e+10
-3.22638e+10
-3.23474e+10
-3.2304e+10
-3.22285e+10
-3.22062e+10
-3.2192e+10
-3.2149e+10
-3.21054e+10
-3.20631e+10
-3.20208e+10
-3.19759e+10
-3.19212e+10
-3.18479e+10
-3.17485e+10
-3.16196e+10
-3.14634e+10
-3.12824e+10
-3.10609e+10
-3.07441e+10
-3.02681e+10
-2.96551e+10
-2.9025e+10
-2.84798e+10
-2.80519e+10
-2.77362e+10
-2.75103e+10
-2.73513e+10
-2.72405e+10
-2.71631e+10
-2.71074e+10
-2.70632e+10
-2.70203e+10
-2.69669e+10
-2.68897e+10
-2.67763e+10
-2.66175e+10
-2.64106e+10
-2.61635e+10
-2.58987e+10
-2.56542e+10
-2.54801e+10
-2.54296e+10
-2.55332e+10
-2.57424e+10
-2.58565e+10
-2.55905e+10
-2.51684e+10
-2.63872e+10
-3.17144e+10
-3.64911e+10
-2.00545e+10
-3.23497e+10
-3.22263e+10
-3.21991e+10
-3.22728e+10
-3.23386e+10
-3.23373e+10
-3.22706e+10
-3.22183e+10
-3.21767e+10
-3.21377e+10
-3.2098e+10
-3.20568e+10
-3.20137e+10
-3.19676e+10
-3.19115e+10
-3.18371e+10
-3.17372e+10
-3.1608e+10
-3.14511e+10
-3.12692e+10
-3.10473e+10
-3.07318e+10
-3.02618e+10
-2.96577e+10
-2.90359e+10
-2.84947e+10
-2.80665e+10
-2.77472e+10
-2.75178e+10
-2.73566e+10
-2.72433e+10
-2.7164e+10
-2.71073e+10
-2.70631e+10
-2.70219e+10
-2.69718e+10
-2.68993e+10
-2.67916e+10
-2.66391e+10
-2.64392e+10
-2.61999e+10
-2.59438e+10
-2.57087e+10
-2.55462e+10
-2.55106e+10
-2.56343e+10
-2.58691e+10
-2.60111e+10
-2.57654e+10
-2.53374e+10
-2.64983e+10
-3.16748e+10
-3.62041e+10
-1.88755e+10
-3.2296e+10
-3.21903e+10
-3.20454e+10
-3.20425e+10
-3.21188e+10
-3.21428e+10
-3.21286e+10
-3.21091e+10
-3.20879e+10
-3.20674e+10
-3.20506e+10
-3.2038e+10
-3.20296e+10
-3.20218e+10
-3.20066e+10
-3.19739e+10
-3.19145e+10
-3.18233e+10
-3.17008e+10
-3.15553e+10
-3.13829e+10
-3.11064e+10
-3.05701e+10
-2.9753e+10
-2.88887e+10
-2.8211e+10
-2.77371e+10
-2.7424e+10
-2.72222e+10
-2.70935e+10
-2.70121e+10
-2.69591e+10
-2.69217e+10
-2.68897e+10
-2.6853e+10
-2.67992e+10
-2.67146e+10
-2.6586e+10
-2.64037e+10
-2.6165e+10
-2.58789e+10
-2.55696e+10
-2.52778e+10
-2.50569e+10
-2.49625e+10
-2.50243e+10
-2.51867e+10
-2.52356e+10
-2.48902e+10
-2.44162e+10
-2.5602e+10
-3.08079e+10
-3.57321e+10
-1.98452e+10
-3.2213e+10
-3.20932e+10
-3.20203e+10
-3.20533e+10
-3.2156e+10
-3.21758e+10
-3.21223e+10
-3.20996e+10
-3.20825e+10
-3.20632e+10
-3.20469e+10
-3.20347e+10
-3.20256e+10
-3.20163e+10
-3.19993e+10
-3.19651e+10
-3.19051e+10
-3.18134e+10
-3.16901e+10
-3.15438e+10
-3.13711e+10
-3.10945e+10
-3.05598e+10
-2.97484e+10
-2.88886e+10
-2.82112e+10
-2.77329e+10
-2.74152e+10
-2.7211e+10
-2.70814e+10
-2.69994e+10
-2.69461e+10
-2.69085e+10
-2.68764e+10
-2.68398e+10
-2.67864e+10
-2.67019e+10
-2.65728e+10
-2.63891e+10
-2.61473e+10
-2.58557e+10
-2.55378e+10
-2.52336e+10
-2.49961e+10
-2.48809e+10
-2.49182e+10
-2.5051e+10
-2.50595e+10
-2.46494e+10
-2.40545e+10
-2.50246e+10
-3.00624e+10
-3.58876e+10
-2.45436e+10
-3.21255e+10
-3.20319e+10
-3.19655e+10
-3.19837e+10
-3.2022e+10
-3.20513e+10
-3.20643e+10
-3.20643e+10
-3.20608e+10
-3.20611e+10
-3.207e+10
-3.20914e+10
-3.21232e+10
-3.21585e+10
-3.21853e+10
-3.21899e+10
-3.21618e+10
-3.20959e+10
-3.19917e+10
-3.1865e+10
-3.17465e+10
-3.15696e+10
-3.10338e+10
-2.98988e+10
-2.86253e+10
-2.77992e+10
-2.73427e+10
-2.70927e+10
-2.69701e+10
-2.69129e+10
-2.68893e+10
-2.68812e+10
-2.68787e+10
-2.68747e+10
-2.68608e+10
-2.68258e+10
-2.67563e+10
-2.66389e+10
-2.6463e+10
-2.6225e+10
-2.59319e+10
-2.56057e+10
-2.52844e+10
-2.50185e+10
-2.48591e+10
-2.48311e+10
-2.48734e+10
-2.47738e+10
-2.42831e+10
-2.37279e+10
-2.48623e+10
-2.97785e+10
-3.49629e+10
-2.26694e+10
-3.20462e+10
-3.20003e+10
-3.20036e+10
-3.20386e+10
-3.20718e+10
-3.20669e+10
-3.20656e+10
-3.20682e+10
-3.2068e+10
-3.2069e+10
-3.20771e+10
-3.20969e+10
-3.21269e+10
-3.21599e+10
-3.21846e+10
-3.21879e+10
-3.21595e+10
-3.20934e+10
-3.19885e+10
-3.18615e+10
-3.1743e+10
-3.15668e+10
-3.10435e+10
-2.99344e+10
-2.86903e+10
-2.78667e+10
-2.73951e+10
-2.71285e+10
-2.69922e+10
-2.69249e+10
-2.68937e+10
-2.688e+10
-2.68732e+10
-2.68658e+10
-2.68489e+10
-2.68112e+10
-2.67392e+10
-2.66194e+10
-2.64412e+10
-2.6201e+10
-2.59059e+10
-2.55781e+10
-2.52555e+10
-2.49882e+10
-2.48276e+10
-2.47985e+10
-2.48371e+10
-2.47235e+10
-2.41906e+10
-2.35237e+10
-2.44428e+10
-2.92636e+10
-3.48987e+10
-2.26632e+10
-3.1857e+10
-3.17696e+10
-3.18228e+10
-3.18608e+10
-3.18717e+10
-3.18793e+10
-3.18947e+10
-3.19106e+10
-3.19267e+10
-3.19492e+10
-3.19856e+10
-3.20431e+10
-3.21213e+10
-3.22081e+10
-3.22813e+10
-3.23194e+10
-3.23128e+10
-3.22726e+10
-3.22091e+10
-3.21293e+10
-3.20987e+10
-3.21622e+10
-3.18882e+10
-3.03236e+10
-2.8213e+10
-2.708e+10
-2.66521e+10
-2.65163e+10
-2.65315e+10
-2.65841e+10
-2.66383e+10
-2.66836e+10
-2.67193e+10
-2.67445e+10
-2.67552e+10
-2.67437e+10
-2.66991e+10
-2.66096e+10
-2.64662e+10
-2.6266e+10
-2.60161e+10
-2.57366e+10
-2.54616e+10
-2.52368e+10
-2.51096e+10
-2.5101e+10
-2.51494e+10
-2.50521e+10
-2.45986e+10
-2.42212e+10
-2.58535e+10
-3.13614e+10
-3.48459e+10
-1.81047e+10
-3.18181e+10
-3.18148e+10
-3.18768e+10
-3.19104e+10
-3.19042e+10
-3.18967e+10
-3.1906e+10
-3.19183e+10
-3.19327e+10
-3.19528e+10
-3.19858e+10
-3.20384e+10
-3.21108e+10
-3.21917e+10
-3.2261e+10
-3.22987e+10
-3.22964e+10
-3.22592e+10
-3.21916e+10
-3.21051e+10
-3.20732e+10
-3.21465e+10
-3.18906e+10
-3.03681e+10
-2.82725e+10
-2.71509e+10
-2.67237e+10
-2.65814e+10
-2.65872e+10
-2.66308e+10
-2.66784e+10
-2.67193e+10
-2.67519e+10
-2.67747e+10
-2.67831e+10
-2.67696e+10
-2.67231e+10
-2.66319e+10
-2.64869e+10
-2.62855e+10
-2.60348e+10
-2.57558e+10
-2.54834e+10
-2.52635e+10
-2.51425e+10
-2.51395e+10
-2.5187e+10
-2.50697e+10
-2.45557e+10
-2.4058e+10
-2.55477e+10
-3.09234e+10
-3.42806e+10
-1.79677e+10
-3.16961e+10
-3.16528e+10
-3.173e+10
-3.17619e+10
-3.17799e+10
-3.17955e+10
-3.18198e+10
-3.18513e+10
-3.18926e+10
-3.19488e+10
-3.20294e+10
-3.21459e+10
-3.23001e+10
-3.24722e+10
-3.26189e+10
-3.27072e+10
-3.27311e+10
-3.27483e+10
-3.27983e+10
-3.28133e+10
-3.28511e+10
-3.31877e+10
-3.37357e+10
-3.23031e+10
-2.88402e+10
-2.59767e+10
-2.5797e+10
-2.60085e+10
-2.6238e+10
-2.64037e+10
-2.65168e+10
-2.65926e+10
-2.66438e+10
-2.66759e+10
-2.66884e+10
-2.66753e+10
-2.66272e+10
-2.65337e+10
-2.6387e+10
-2.61854e+10
-2.59374e+10
-2.5664e+10
-2.54007e+10
-2.51934e+10
-2.50885e+10
-2.51081e+10
-2.51948e+10
-2.51563e+10
-2.47942e+10
-2.45101e+10
-2.60484e+10
-3.11165e+10
-3.49902e+10
-1.92398e+10
-3.16756e+10
-3.16806e+10
-3.17483e+10
-3.17728e+10
-3.17837e+10
-3.17989e+10
-3.18226e+10
-3.18536e+10
-3.18947e+10
-3.19507e+10
-3.20303e+10
-3.21438e+10
-3.22925e+10
-3.24577e+10
-3.26034e+10
-3.26989e+10
-3.2742e+10
-3.27678e+10
-3.27904e+10
-3.27872e+10
-3.28556e+10
-3.32832e+10
-3.38738e+10
-3.24704e+10
-2.89266e+10
-2.58729e+10
-2.57464e+10
-2.59806e+10
-2.62176e+10
-2.63837e+10
-2.64949e+10
-2.65682e+10
-2.66166e+10
-2.66456e+10
-2.66547e+10
-2.66379e+10
-2.65859e+10
-2.64882e+10
-2.63367e+10
-2.61297e+10
-2.58753e+10
-2.55944e+10
-2.53217e+10
-2.51019e+10
-2.49792e+10
-2.49708e+10
-2.50102e+10
-2.48852e+10
-2.43627e+10
-2.38299e+10
-2.51253e+10
-3.02746e+10
-3.56195e+10
-2.4368e+10
-3.16814e+10
-3.17079e+10
-3.17375e+10
-3.17528e+10
-3.17642e+10
-3.17794e+10
-3.18001e+10
-3.18289e+10
-3.18692e+10
-3.1926e+10
-3.20096e+10
-3.21371e+10
-3.23122e+10
-3.25106e+10
-3.26736e+10
-3.2768e+10
-3.28011e+10
-3.2819e+10
-3.29028e+10
-3.29514e+10
-3.30163e+10
-3.34904e+10
-3.43962e+10
-3.48946e+10
-3.24639e+10
-2.25536e+10
-2.4271e+10
-2.53447e+10
-2.59412e+10
-2.6262e+10
-2.64525e+10
-2.65693e+10
-2.66439e+10
-2.66891e+10
-2.67075e+10
-2.66941e+10
-2.66403e+10
-2.65359e+10
-2.63731e+10
-2.61506e+10
-2.58772e+10
-2.55752e+10
-2.52808e+10
-2.50408e+10
-2.49031e+10
-2.48919e+10
-2.49545e+10
-2.49031e+10
-2.4518e+10
-2.41252e+10
-2.54047e+10
-3.03785e+10
-3.50968e+10
-2.08713e+10
-3.16743e+10
-3.17078e+10
-3.17281e+10
-3.17375e+10
-3.17449e+10
-3.17587e+10
-3.17791e+10
-3.18093e+10
-3.1852e+10
-3.1912e+10
-3.19996e+10
-3.2128e+10
-3.22993e+10
-3.24888e+10
-3.26507e+10
-3.27506e+10
-3.27867e+10
-3.28174e+10
-3.28696e+10
-3.29017e+10
-3.30162e+10
-3.36587e+10
-3.45004e+10
-3.50475e+10
-3.30122e+10
-2.25042e+10
-2.42542e+10
-2.53398e+10
-2.5938e+10
-2.6258e+10
-2.64466e+10
-2.65607e+10
-2.66324e+10
-2.66756e+10
-2.66933e+10
-2.66811e+10
-2.66302e+10
-2.65307e+10
-2.63748e+10
-2.61608e+10
-2.58972e+10
-2.56058e+10
-2.53222e+10
-2.50919e+10
-2.49607e+10
-2.49491e+10
-2.49974e+10
-2.49023e+10
-2.44372e+10
-2.40642e+10
-2.59932e+10
-3.24342e+10
-3.61798e+10
-1.87686e+10
-3.1655e+10
-3.17105e+10
-3.17209e+10
-3.1738e+10
-3.17552e+10
-3.17767e+10
-3.18024e+10
-3.18352e+10
-3.18772e+10
-3.19328e+10
-3.20131e+10
-3.21388e+10
-3.23161e+10
-3.25112e+10
-3.26723e+10
-3.27643e+10
-3.27981e+10
-3.28438e+10
-3.29108e+10
-3.29575e+10
-3.30071e+10
-3.33304e+10
-3.46678e+10
-3.50149e+10
-1.96502e+10
-2.4096e+10
-2.52222e+10
-2.58638e+10
-2.62151e+10
-2.64245e+10
-2.65537e+10
-2.66378e+10
-2.66916e+10
-2.67186e+10
-2.67147e+10
-2.66711e+10
-2.65778e+10
-2.6427e+10
-2.62177e+10
-2.59594e+10
-2.56751e+10
-2.54009e+10
-2.51835e+10
-2.50713e+10
-2.50902e+10
-2.51899e+10
-2.51795e+10
-2.48035e+10
-2.42793e+10
-2.51684e+10
-2.96962e+10
-3.4782e+10
-2.24421e+10
-3.16627e+10
-3.17055e+10
-3.17108e+10
-3.1723e+10
-3.17382e+10
-3.17593e+10
-3.17855e+10
-3.18193e+10
-3.1863e+10
-3.1922e+10
-3.20067e+10
-3.2131e+10
-3.2298e+10
-3.24843e+10
-3.26481e+10
-3.27552e+10
-3.28037e+10
-3.28339e+10
-3.28643e+10
-3.2889e+10
-3.29863e+10
-3.35865e+10
-3.47611e+10
-3.5031e+10
-1.97131e+10
-2.41519e+10
-2.52498e+10
-2.58771e+10
-2.62242e+10
-2.64321e+10
-2.6561e+10
-2.66459e+10
-2.67021e+10
-2.67335e+10
-2.67365e+10
-2.67026e+10
-2.6622e+10
-2.64867e+10
-2.62953e+10
-2.60566e+10
-2.57926e+10
-2.55381e+10
-2.53387e+10
-2.52409e+10
-2.52677e+10
-2.53656e+10
-2.53397e+10
-2.49552e+10
-2.45899e+10
-2.62241e+10
-3.19053e+10
-3.58455e+10
-1.83958e+10
-3.16664e+10
-3.16773e+10
-3.16879e+10
-3.17019e+10
-3.17194e+10
-3.17405e+10
-3.17655e+10
-3.17956e+10
-3.18328e+10
-3.18817e+10
-3.19516e+10
-3.20565e+10
-3.22018e+10
-3.2369e+10
-3.25223e+10
-3.2626e+10
-3.26726e+10
-3.2713e+10
-3.27654e+10
-3.27968e+10
-3.28573e+10
-3.31596e+10
-3.38179e+10
-3.38327e+10
-2.87023e+10
-2.54588e+10
-2.54335e+10
-2.58076e+10
-2.61457e+10
-2.63758e+10
-2.65257e+10
-2.66249e+10
-2.66936e+10
-2.67409e+10
-2.67678e+10
-2.6769e+10
-2.67351e+10
-2.66557e+10
-2.65232e+10
-2.63366e+10
-2.61061e+10
-2.58546e+10
-2.56178e+10
-2.54421e+10
-2.53764e+10
-2.5449e+10
-2.56143e+10
-2.56907e+10
-2.54419e+10
-2.51411e+10
-2.65055e+10
-3.15747e+10
-3.54406e+10
-1.83728e+10
-3.16672e+10
-3.16667e+10
-3.16772e+10
-3.16894e+10
-3.17069e+10
-3.17291e+10
-3.17565e+10
-3.17898e+10
-3.18305e+10
-3.18831e+10
-3.19562e+10
-3.2061e+10
-3.22016e+10
-3.23639e+10
-3.2519e+10
-3.26377e+10
-3.27113e+10
-3.27592e+10
-3.27822e+10
-3.27714e+10
-3.28445e+10
-3.32885e+10
-3.38155e+10
-3.36671e+10
-2.89338e+10
-2.55139e+10
-2.54491e+10
-2.57997e+10
-2.61334e+10
-2.6364e+10
-2.65152e+10
-2.66149e+10
-2.66839e+10
-2.67321e+10
-2.67611e+10
-2.67659e+10
-2.67372e+10
-2.66645e+10
-2.65395e+10
-2.63606e+10
-2.61364e+10
-2.58879e+10
-2.56481e+10
-2.54604e+10
-2.53702e+10
-2.54018e+10
-2.55072e+10
-2.55026e+10
-2.51549e+10
-2.47599e+10
-2.61056e+10
-3.14678e+10
-3.66571e+10
-2.21695e+10
-3.16623e+10
-3.16426e+10
-3.1652e+10
-3.16609e+10
-3.16747e+10
-3.16916e+10
-3.17112e+10
-3.17329e+10
-3.17574e+10
-3.17872e+10
-3.18273e+10
-3.18834e+10
-3.19567e+10
-3.20387e+10
-3.21132e+10
-3.21625e+10
-3.21765e+10
-3.21575e+10
-3.21054e+10
-3.20326e+10
-3.20159e+10
-3.2111e+10
-3.19214e+10
-3.04697e+10
-2.84632e+10
-2.72284e+10
-2.67542e+10
-2.66012e+10
-2.66082e+10
-2.66525e+10
-2.67009e+10
-2.67434e+10
-2.67796e+10
-2.68084e+10
-2.68256e+10
-2.68227e+10
-2.67885e+10
-2.67112e+10
-2.65823e+10
-2.64e+10
-2.61739e+10
-2.59253e+10
-2.56882e+10
-2.5507e+10
-2.54298e+10
-2.54855e+10
-2.56337e+10
-2.57067e+10
-2.54912e+10
-2.52683e+10
-2.67012e+10
-3.186e+10
-3.64036e+10
-2.00869e+10
-3.16579e+10
-3.16387e+10
-3.16474e+10
-3.16562e+10
-3.16702e+10
-3.16875e+10
-3.17083e+10
-3.17319e+10
-3.17584e+10
-3.179e+10
-3.1831e+10
-3.18865e+10
-3.19576e+10
-3.20373e+10
-3.21105e+10
-3.21615e+10
-3.21809e+10
-3.21662e+10
-3.21123e+10
-3.20352e+10
-3.20249e+10
-3.21385e+10
-3.19147e+10
-3.04543e+10
-2.84049e+10
-2.71667e+10
-2.66963e+10
-2.65574e+10
-2.6579e+10
-2.66354e+10
-2.66925e+10
-2.67405e+10
-2.67801e+10
-2.68111e+10
-2.68295e+10
-2.68272e+10
-2.6793e+10
-2.67148e+10
-2.65838e+10
-2.63977e+10
-2.61643e+10
-2.59032e+10
-2.56456e+10
-2.54322e+10
-2.53059e+10
-2.529e+10
-2.53387e+10
-2.52769e+10
-2.48723e+10
-2.43468e+10
-2.53316e+10
-3.04729e+10
-3.75195e+10
-2.66293e+10
-3.16405e+10
-3.16244e+10
-3.16308e+10
-3.16383e+10
-3.16517e+10
-3.16687e+10
-3.16889e+10
-3.17112e+10
-3.17355e+10
-3.17626e+10
-3.17944e+10
-3.18319e+10
-3.18734e+10
-3.19133e+10
-3.19431e+10
-3.19531e+10
-3.19342e+10
-3.18783e+10
-3.17797e+10
-3.16508e+10
-3.15252e+10
-3.13527e+10
-3.08638e+10
-2.98319e+10
-2.86552e+10
-2.78304e+10
-2.73349e+10
-2.70501e+10
-2.69079e+10
-2.68421e+10
-2.68172e+10
-2.68134e+10
-2.68209e+10
-2.68325e+10
-2.68401e+10
-2.6833e+10
-2.67983e+10
-2.6723e+10
-2.65978e+10
-2.64206e+10
-2.62001e+10
-2.5957e+10
-2.57238e+10
-2.55424e+10
-2.54578e+10
-2.54973e+10
-2.56228e+10
-2.56741e+10
-2.54462e+10
-2.52024e+10
-2.6527e+10
-3.14844e+10
-3.63689e+10
-2.16772e+10
-3.16444e+10
-3.1629e+10
-3.16366e+10
-3.16452e+10
-3.16597e+10
-3.1678e+10
-3.16998e+10
-3.17242e+10
-3.17507e+10
-3.17801e+10
-3.18139e+10
-3.18531e+10
-3.18963e+10
-3.19382e+10
-3.197e+10
-3.19819e+10
-3.19645e+10
-3.19091e+10
-3.18105e+10
-3.16844e+10
-3.15651e+10
-3.13929e+10
-3.08907e+10
-2.9831e+10
-2.8627e+10
-2.77931e+10
-2.73056e+10
-2.70344e+10
-2.69044e+10
-2.68488e+10
-2.6832e+10
-2.68344e+10
-2.68463e+10
-2.68605e+10
-2.68688e+10
-2.68601e+10
-2.68212e+10
-2.67392e+10
-2.66046e+10
-2.64152e+10
-2.61792e+10
-2.59167e+10
-2.56591e+10
-2.54463e+10
-2.53193e+10
-2.52996e+10
-2.53406e+10
-2.52678e+10
-2.48362e+10
-2.41915e+10
-2.4811e+10
-2.94814e+10
-3.70752e+10
-2.80521e+10
-3.16081e+10
-3.1597e+10
-3.15974e+10
-3.16006e+10
-3.16087e+10
-3.16201e+10
-3.16341e+10
-3.16499e+10
-3.16668e+10
-3.16852e+10
-3.17056e+10
-3.17274e+10
-3.17477e+10
-3.17626e+10
-3.17665e+10
-3.17523e+10
-3.17122e+10
-3.16383e+10
-3.15269e+10
-3.13824e+10
-3.12004e+10
-3.09124e+10
-3.03824e+10
-2.95938e+10
-2.87623e+10
-2.80945e+10
-2.7618e+10
-2.72994e+10
-2.70979e+10
-2.69754e+10
-2.69047e+10
-2.68677e+10
-2.68526e+10
-2.68496e+10
-2.68485e+10
-2.68369e+10
-2.68008e+10
-2.67267e+10
-2.6605e+10
-2.64343e+10
-2.62243e+10
-2.59968e+10
-2.5785e+10
-2.56303e+10
-2.55764e+10
-2.56493e+10
-2.5809e+10
-2.58903e+10
-2.5677e+10
-2.54197e+10
-2.66729e+10
-3.14201e+10
-3.56585e+10
-1.94305e+10
-3.16129e+10
-3.15992e+10
-3.1601e+10
-3.16046e+10
-3.16129e+10
-3.16243e+10
-3.16384e+10
-3.16543e+10
-3.16714e+10
-3.16897e+10
-3.17099e+10
-3.17315e+10
-3.1752e+10
-3.17675e+10
-3.17719e+10
-3.17582e+10
-3.17186e+10
-3.16456e+10
-3.1536e+10
-3.13955e+10
-3.12193e+10
-3.09349e+10
-3.04008e+10
-2.96048e+10
-2.87639e+10
-2.80937e+10
-2.7621e+10
-2.73094e+10
-2.71153e+10
-2.70002e+10
-2.69365e+10
-2.69058e+10
-2.68958e+10
-2.68964e+10
-2.68969e+10
-2.68845e+10
-2.6845e+10
-2.67651e+10
-2.66352e+10
-2.64544e+10
-2.62328e+10
-2.59931e+10
-2.57692e+10
-2.56028e+10
-2.55359e+10
-2.55907e+10
-2.57199e+10
-2.57424e+10
-2.53997e+10
-2.48568e+10
-2.56899e+10
-3.06038e+10
-3.69053e+10
-2.40203e+10
-3.15938e+10
-3.1581e+10
-3.15815e+10
-3.15832e+10
-3.15894e+10
-3.15981e+10
-3.16085e+10
-3.16195e+10
-3.16303e+10
-3.16406e+10
-3.16503e+10
-3.16581e+10
-3.16611e+10
-3.16556e+10
-3.16374e+10
-3.16012e+10
-3.154e+10
-3.14473e+10
-3.13202e+10
-3.11574e+10
-3.09416e+10
-3.06191e+10
-3.01325e+10
-2.95072e+10
-2.88609e+10
-2.8298e+10
-2.78537e+10
-2.75251e+10
-2.72923e+10
-2.71327e+10
-2.70267e+10
-2.69596e+10
-2.69198e+10
-2.68964e+10
-2.68777e+10
-2.685e+10
-2.67978e+10
-2.67067e+10
-2.65666e+10
-2.63764e+10
-2.61467e+10
-2.59002e+10
-2.56708e+10
-2.55005e+10
-2.54327e+10
-2.54916e+10
-2.56306e+10
-2.56674e+10
-2.53635e+10
-2.49752e+10
-2.61087e+10
-3.07873e+10
-3.50377e+10
-1.96608e+10
-3.1599e+10
-3.15815e+10
-3.15834e+10
-3.15852e+10
-3.15913e+10
-3.15993e+10
-3.16089e+10
-3.16189e+10
-3.16285e+10
-3.16372e+10
-3.16451e+10
-3.16511e+10
-3.16528e+10
-3.16466e+10
-3.16281e+10
-3.15917e+10
-3.15308e+10
-3.1439e+10
-3.13139e+10
-3.11547e+10
-3.09438e+10
-3.06248e+10
-3.01406e+10
-2.95147e+10
-2.88697e+10
-2.83094e+10
-2.7869e+10
-2.75446e+10
-2.73153e+10
-2.71584e+10
-2.70547e+10
-2.6989e+10
-2.69498e+10
-2.69261e+10
-2.69059e+10
-2.6875e+10
-2.6818e+10
-2.67208e+10
-2.65735e+10
-2.63755e+10
-2.6138e+10
-2.58848e+10
-2.5651e+10
-2.5479e+10
-2.54117e+10
-2.54714e+10
-2.56069e+10
-2.56252e+10
-2.52708e+10