/*--------------------------------*- C++ -*----------------------------------*\
| =========                 |                                                 |
| \\      /  F ield         | OpenFOAM: The Open Source CFD Toolbox           |
|  \\    /   O peration     | Version:  4.1                                   |
|   \\  /    A nd           | Web:      www.OpenFOAM.org                      |
|    \\/     M anipulation  |                                                 |
\*---------------------------------------------------------------------------*/
FoamFile
{
    version     2.0;
    format      ascii;
    class       surfaceScalarField;
    location    "42";
    object      phi;
}
// * * * * * * * * * * * * * * * * * * * * * * * * * * * * * * * * * * * * * //

dimensions      [0 3 -1 0 0 0 0];

internalField   nonuniform List<scalar> 
11516
(
-4.73053e+10
-1.76652e+08
-1.79139e+09
-4.61487e+10
-6.55451e+07
-1.15391e+09
-4.54275e+10
-4.26615e+07
-7.25107e+08
-4.43569e+10
-2.09545e+08
-8.91604e+08
-4.379e+10
9.27309e+06
-5.9592e+08
-4.33377e+10
-3.90672e+07
-4.23081e+08
-4.2858e+10
-8.44849e+07
-3.98982e+08
-4.24792e+10
-7.50538e+07
-3.0319e+08
-4.21373e+10
-7.86981e+07
-2.59727e+08
-4.18325e+10
-7.79213e+07
-2.21378e+08
-4.15558e+10
-7.75771e+07
-1.92484e+08
-4.12942e+10
-7.91153e+07
-1.75287e+08
-4.10353e+10
-8.36823e+07
-1.6883e+08
-4.07712e+10
-8.92503e+07
-1.69764e+08
-4.04931e+10
-9.39846e+07
-1.79e+08
-4.01955e+10
-9.88723e+07
-1.93481e+08
-3.98731e+10
-1.03958e+08
-2.10078e+08
-3.9521e+10
-1.10056e+08
-2.31599e+08
-3.9133e+10
-1.16413e+08
-2.56602e+08
-3.87055e+10
-1.22721e+08
-2.85722e+08
-3.82348e+10
-1.29459e+08
-3.18213e+08
-3.7723e+10
-1.36718e+08
-3.48671e+08
-3.71692e+10
-1.44086e+08
-3.7942e+08
-3.65807e+10
-1.51326e+08
-4.02408e+08
-3.59617e+10
-1.58325e+08
-4.21481e+08
-3.53231e+10
-1.64854e+08
-4.30203e+08
-3.46703e+10
-1.70733e+08
-4.34253e+08
-3.40131e+10
-1.75683e+08
-4.28839e+08
-3.33559e+10
-1.79476e+08
-4.19861e+08
-3.27037e+10
-1.81921e+08
-4.06268e+08
-3.20601e+10
-1.8292e+08
-3.89658e+08
-3.14255e+10
-1.8254e+08
-3.73048e+08
-3.08035e+10
-1.80622e+08
-3.52998e+08
-3.01939e+10
-1.767e+08
-3.34432e+08
-2.95959e+10
-1.70194e+08
-3.18487e+08
-2.90108e+10
-1.60732e+08
-3.03209e+08
-2.84379e+10
-1.48032e+08
-2.91039e+08
-2.78799e+10
-1.31539e+08
-2.78382e+08
-2.73363e+10
-1.10511e+08
-2.68053e+08
-2.68078e+10
-8.54124e+07
-2.57244e+08
-2.62918e+10
-5.78495e+07
-2.4586e+08
-2.5782e+10
-2.76107e+07
-2.35436e+08
-2.52734e+10
6.13844e+06
-2.23683e+08
-2.4763e+10
4.41385e+07
-2.08489e+08
-2.42582e+10
8.77367e+07
-1.87333e+08
-2.37845e+10
1.37601e+08
-1.62688e+08
-2.33724e+10
1.88592e+08
-1.57413e+08
-2.30358e+10
2.32943e+08
-1.83672e+08
-2.28574e+10
2.65648e+08
-2.22571e+08
-2.31155e+10
3.34882e+08
1.52862e+08
-2.423e+10
6.89895e+08
6.55761e+08
-2.56816e+10
1.6054e+09
3.92577e+08
-2.13536e+10
4.13342e+09
-8.11278e+09
2.73552e+09
-1.06899e+10
-5.18511e+10
-1.39633e+09
-5.09519e+10
-9.96233e+08
-5.02288e+10
-7.90002e+08
-4.98159e+10
-6.39889e+08
-4.91999e+10
-6.16967e+08
-4.8789e+10
-4.55672e+08
-4.84533e+10
-4.23015e+08
-4.81774e+10
-3.51816e+08
-4.79322e+10
-3.23308e+08
-4.77179e+10
-2.90566e+08
-4.75251e+10
-2.6777e+08
-4.73472e+10
-2.54061e+08
-4.71748e+10
-2.53317e+08
-4.70018e+10
-2.59788e+08
-4.68197e+10
-2.73784e+08
-4.66225e+10
-2.92885e+08
-4.6408e+10
-3.14416e+08
-4.61707e+10
-3.4149e+08
-4.59072e+10
-3.71752e+08
-4.56134e+10
-4.05921e+08
-4.52865e+10
-4.43787e+08
-4.49289e+10
-4.79474e+08
-4.45391e+10
-5.16388e+08
-4.41245e+10
-5.45846e+08
-4.36874e+10
-5.72693e+08
-4.32373e+10
-5.89683e+08
-4.27768e+10
-6.03287e+08
-4.23143e+10
-6.07667e+08
-4.1851e+10
-6.09224e+08
-4.13899e+10
-6.06154e+08
-4.09321e+10
-5.99983e+08
-4.04747e+10
-5.94996e+08
-4.00176e+10
-5.88016e+08
-3.95562e+10
-5.83224e+08
-3.90861e+10
-5.80105e+08
-3.86031e+10
-5.77926e+08
-3.80994e+10
-5.79812e+08
-3.75705e+10
-5.81682e+08
-3.70071e+10
-5.86754e+08
-3.64018e+10
-5.92909e+08
-3.57479e+10
-5.99975e+08
-3.50367e+10
-6.08638e+08
-3.42587e+10
-6.17399e+08
-3.34061e+10
-6.24251e+08
-3.24783e+10
-6.25418e+08
-3.1491e+10
-6.1779e+08
-3.04674e+10
-6.11715e+08
-2.94528e+10
-6.10507e+08
-2.85195e+10
-5.58844e+08
-2.80545e+10
-5.14691e+07
-2.81039e+10
9.1201e+08
-2.8033e+10
1.7122e+09
-1.7241e+10
-6.53146e+09
-1.10046e+10
-5.69264e+10
1.58578e+08
-2.32958e+09
-5.68923e+10
9.108e+07
-1.29412e+09
-5.68062e+10
6.57172e+07
-8.96127e+08
-5.68785e+10
1.2822e+08
-9.63299e+08
-5.6743e+10
8.63442e+07
-8.28512e+08
-5.67159e+10
1.05267e+08
-5.63464e+08
-5.67399e+10
1.07537e+08
-4.89497e+08
-5.67451e+10
1.13482e+08
-4.17207e+08
-5.67618e+10
1.0951e+08
-3.56566e+08
-5.67934e+10
1.13851e+08
-3.05708e+08
-5.68265e+10
1.13618e+08
-2.72869e+08
-5.68591e+10
1.13214e+08
-2.54073e+08
-5.68896e+10
1.11289e+08
-2.47779e+08
-5.69158e+10
1.09769e+08
-2.51058e+08
-5.69383e+10
1.08253e+08
-2.64361e+08
-5.6955e+10
1.06852e+08
-2.82533e+08
-5.69615e+10
1.05274e+08
-3.0807e+08
-5.69557e+10
1.0354e+08
-3.38534e+08
-5.69361e+10
1.00951e+08
-3.72607e+08
-5.69035e+10
9.88632e+07
-4.09661e+08
-5.68592e+10
9.64306e+07
-4.48637e+08
-5.68027e+10
9.37733e+07
-4.85625e+08
-5.67376e+10
9.09716e+07
-5.18699e+08
-5.6663e+10
8.81119e+07
-5.44623e+08
-5.65878e+10
8.52364e+07
-5.58325e+08
-5.65108e+10
8.24563e+07
-5.63249e+08
-5.64398e+10
7.98406e+07
-5.56306e+08
-5.63738e+10
7.75436e+07
-5.41189e+08
-5.63182e+10
7.5692e+07
-5.17422e+08
-5.62723e+10
7.4397e+07
-4.89993e+08
-5.62387e+10
7.36447e+07
-4.57049e+08
-5.62197e+10
7.31914e+07
-4.21806e+08
-5.62154e+10
7.29502e+07
-3.8271e+08
-5.62302e+10
7.33977e+07
-3.4129e+08
-5.62659e+10
7.51038e+07
-3.01713e+08
-5.63294e+10
7.80297e+07
-2.57477e+08
-5.64284e+10
8.26118e+07
-2.09796e+08
-5.65702e+10
8.92143e+07
-1.56304e+08
-5.67654e+10
9.83845e+07
-9.56095e+07
-5.70242e+10
1.10267e+08
-2.52473e+07
-5.73557e+10
1.25102e+08
5.53805e+07
-5.77754e+10
1.43227e+08
1.51814e+08
-5.82951e+10
1.65424e+08
2.63994e+08
-5.89295e+10
1.92836e+08
3.96202e+08
-5.96962e+10
2.27429e+08
5.49137e+08
-6.06233e+10
2.68673e+08
7.17566e+08
-6.17737e+10
3.15786e+08
8.92398e+08
-6.32036e+10
3.60599e+08
1.03644e+09
-6.49673e+10
4.41705e+08
1.15842e+09
-6.66141e+10
6.22916e+08
1.10914e+09
-6.82015e+10
1.33105e+09
8.93829e+08
-7.06297e+10
2.69442e+09
1.82006e+08
-8.87578e+10
5.97792e+09
4.14102e+09
5.70602e+09
5.48054e+09
-6.25259e+10
-1.7163e+09
-6.24402e+10
-1.00191e+09
-6.24099e+10
-7.64656e+08
-6.24042e+10
-5.25004e+08
-6.2405e+10
-5.35967e+08
-6.24136e+10
-3.4729e+08
-6.24743e+10
-2.5942e+08
-6.25125e+10
-2.03972e+08
-6.2573e+10
-1.5583e+08
-6.26427e+10
-1.08272e+08
-6.27171e+10
-7.96839e+07
-6.27907e+10
-6.64172e+07
-6.2866e+10
-6.55843e+07
-6.29417e+10
-7.37688e+07
-6.30148e+10
-9.22988e+07
-6.30843e+10
-1.16854e+08
-6.31446e+10
-1.48992e+08
-6.3195e+10
-1.86842e+08
-6.3235e+10
-2.28661e+08
-6.32636e+10
-2.74723e+08
-6.32815e+10
-3.23903e+08
-6.32873e+10
-3.72376e+08
-6.32841e+10
-4.1868e+08
-6.32695e+10
-4.60087e+08
-6.32517e+10
-4.91015e+08
-6.32275e+10
-5.156e+08
-6.32036e+10
-5.30121e+08
-6.31769e+10
-5.38276e+08
-6.31514e+10
-5.39099e+08
-6.31238e+10
-5.37789e+08
-6.30946e+10
-5.32239e+08
-6.30638e+10
-5.27241e+08
-6.3029e+10
-5.22213e+08
-6.29929e+10
-5.15858e+08
-6.2955e+10
-5.10613e+08
-6.29155e+10
-5.04708e+08
-6.28766e+10
-4.99189e+08
-6.28387e+10
-4.90588e+08
-6.28056e+10
-4.78371e+08
-6.27811e+10
-4.59387e+08
-6.27682e+10
-4.33273e+08
-6.27765e+10
-3.92989e+08
-6.28125e+10
-3.38537e+08
-6.28831e+10
-2.66239e+08
-6.29933e+10
-1.75757e+08
-6.31541e+10
-6.72306e+07
-6.33967e+10
5.41639e+07
-6.37444e+10
1.66101e+08
-6.40863e+10
2.28648e+08
-6.35833e+10
2.95047e+07
-6.07182e+10
-6.47857e+08
-5.48875e+10
-1.40804e+09
-6.1225e+10
5.71602e+09
1.18511e+10
-4.94168e+10
-2.81322e+06
-3.48874e+09
-4.85841e+10
1.54337e+08
-2.27875e+09
-4.77362e+10
8.58098e+07
-1.83177e+09
-4.74996e+10
1.691e+08
-1.37473e+09
-4.70837e+10
7.47503e+07
-1.32717e+09
-4.67311e+10
1.28527e+08
-1.05418e+09
-4.65359e+10
1.46455e+08
-8.40214e+08
-4.6381e+10
1.52257e+08
-7.31888e+08
-4.62267e+10
1.45147e+08
-6.61659e+08
-4.60768e+10
1.48279e+08
-6.07538e+08
-4.59264e+10
1.47716e+08
-5.7271e+08
-4.57809e+10
1.48528e+08
-5.48728e+08
-4.56365e+10
1.47957e+08
-5.40742e+08
-4.54893e+10
1.47519e+08
-5.47777e+08
-4.534e+10
1.48713e+08
-5.67284e+08
-4.5182e+10
1.48884e+08
-5.95378e+08
-4.50146e+10
1.49126e+08
-6.33518e+08
-4.48302e+10
1.49012e+08
-6.79304e+08
-4.46242e+10
1.48587e+08
-7.34484e+08
-4.43942e+10
1.48979e+08
-7.93187e+08
-4.41412e+10
1.49402e+08
-8.53201e+08
-4.38627e+10
1.50254e+08
-9.13228e+08
-4.35628e+10
1.51647e+08
-9.64546e+08
-4.32481e+10
1.53424e+08
-1.00402e+09
-4.29239e+10
1.55933e+08
-1.02718e+09
-4.26003e+10
1.59032e+08
-1.03364e+09
-4.22829e+10
1.62887e+08
-1.02409e+09
-4.19761e+10
1.67487e+08
-1.00306e+09
-4.16809e+10
1.72802e+08
-9.72723e+08
-4.13999e+10
1.78845e+08
-9.36639e+08
-4.11288e+10
1.8599e+08
-8.99927e+08
-4.0867e+10
1.94539e+08
-8.62203e+08
-4.06079e+10
2.04044e+08
-8.27853e+08
-4.03473e+10
2.13842e+08
-7.9557e+08
-4.00851e+10
2.23593e+08
-7.65037e+08
-3.98129e+10
2.33464e+08
-7.38821e+08
-3.95253e+10
2.44408e+08
-7.15725e+08
-3.92162e+10
2.56217e+08
-6.93944e+08
-3.8877e+10
2.68978e+08
-6.73797e+08
-3.84954e+10
2.83617e+08
-6.56764e+08
-3.80649e+10
3.02576e+08
-6.37412e+08
-3.75713e+10
3.27787e+08
-6.18e+08
-3.70058e+10
3.61797e+08
-5.94246e+08
-3.63554e+10
4.07215e+08
-5.68099e+08
-3.56127e+10
4.67511e+08
-5.41654e+08
-3.47899e+10
5.44895e+08
-5.18111e+08
-3.39324e+10
6.42207e+08
-5.02662e+08
-3.3125e+10
7.54328e+08
-5.06503e+08
-3.24294e+10
8.63952e+08
-5.49214e+08
-3.19028e+10
9.91583e+08
-7.22131e+08
-3.18395e+10
1.71497e+09
-1.38984e+09
-3.25649e+10
2.79976e+09
-2.48286e+09
-2.64587e+10
7.28963e+09
-9.76166e+09
3.53759e+09
-3.91461e+09
-5.35012e+10
-2.6533e+09
-5.27536e+10
-1.59229e+09
-5.22193e+10
-1.21488e+09
-5.17784e+10
-8.0204e+08
-5.15749e+10
-6.72125e+08
-5.13486e+10
-4.52697e+08
-5.12098e+10
-2.58436e+08
-5.10971e+10
-1.69716e+08
-5.10139e+10
-9.80235e+07
-5.0934e+10
-4.29065e+07
-5.08645e+10
-3.65062e+06
-5.08033e+10
1.91577e+07
-5.07468e+10
2.35917e+07
-5.06891e+10
1.26257e+07
-5.06297e+10
-7.84535e+06
-5.05673e+10
-3.7051e+07
-5.04968e+10
-7.75508e+07
-5.04143e+10
-1.27998e+08
-5.03141e+10
-1.87393e+08
-5.01946e+10
-2.51686e+08
-5.00563e+10
-3.1784e+08
-4.98961e+10
-3.85295e+08
-4.97187e+10
-4.45353e+08
-4.95293e+10
-4.94999e+08
-4.93327e+10
-5.30028e+08
-4.91377e+10
-5.49771e+08
-4.89492e+10
-5.54467e+08
-4.87709e+10
-5.48503e+08
-4.86036e+10
-5.33587e+08
-4.84496e+10
-5.13189e+08
-4.83032e+10
-4.93002e+08
-4.81639e+10
-4.7192e+08
-4.80265e+10
-4.551e+08
-4.78853e+10
-4.42096e+08
-4.77389e+10
-4.3191e+08
-4.75807e+10
-4.2767e+08
-4.74059e+10
-4.27666e+08
-4.72079e+10
-4.30465e+08
-4.69792e+10
-4.35907e+08
-4.6707e+10
-4.44551e+08
-4.63809e+10
-4.50771e+08
-4.59786e+10
-4.56243e+08
-4.54809e+10
-4.54729e+08
-4.48613e+10
-4.47617e+08
-4.40951e+10
-4.33775e+08
-4.31676e+10
-4.1095e+08
-4.20788e+10
-3.79611e+08
-4.08687e+10
-3.3925e+08
-3.96344e+10
-2.83551e+08
-3.86687e+10
-1.91763e+08
-3.78422e+10
-1.03976e+08
-3.74522e+10
5.9147e+08
-1.86135e+10
-6.13132e+09
-3.87904e+09
-5.26543e+10
-2.63637e+08
-3.69864e+09
-5.23362e+10
-1.39849e+08
-2.44375e+09
-5.18837e+10
-1.12203e+08
-2.17037e+09
-5.1545e+10
-1.24906e+08
-1.59566e+09
-5.1366e+10
-1.23421e+08
-1.39473e+09
-5.11557e+10
-8.50751e+07
-1.19163e+09
-5.09581e+10
-4.84401e+07
-9.99805e+08
-5.07999e+10
-4.3462e+07
-8.55024e+08
-5.06726e+10
-4.92158e+07
-7.46742e+08
-5.05636e+10
-5.13017e+07
-6.71586e+08
-5.04599e+10
-5.60991e+07
-6.26245e+08
-5.03591e+10
-5.92936e+07
-5.96216e+08
-5.02558e+10
-6.31445e+07
-5.87383e+08
-5.01487e+10
-6.74289e+07
-5.97016e+08
-5.00324e+10
-7.16626e+07
-6.23424e+08
-4.99088e+10
-7.70098e+07
-6.58659e+08
-4.97737e+10
-8.27289e+07
-7.04345e+08
-4.96228e+10
-9.05448e+07
-7.61386e+08
-4.94552e+10
-9.90388e+07
-8.25575e+08
-4.92668e+10
-1.08275e+08
-8.96234e+08
-4.90563e+10
-1.18001e+08
-9.68071e+08
-4.88237e+10
-1.27939e+08
-1.03772e+09
-4.85725e+10
-1.38141e+08
-1.09506e+09
-4.83113e+10
-1.48168e+08
-1.13332e+09
-4.80498e+10
-1.57839e+08
-1.14786e+09
-4.78009e+10
-1.66945e+08
-1.1358e+09
-4.75731e+10
-1.75215e+08
-1.10068e+09
-4.73734e+10
-1.82784e+08
-1.04815e+09
-4.72062e+10
-1.89946e+08
-9.82226e+08
-4.70709e+10
-1.96929e+08
-9.10864e+08
-4.697e+10
-2.03267e+08
-8.36505e+08
-4.69022e+10
-2.07737e+08
-7.63545e+08
-4.68688e+10
-2.10601e+08
-6.94242e+08
-4.68663e+10
-2.11998e+08
-6.31498e+08
-4.68933e+10
-2.10946e+08
-5.74931e+08
-4.69506e+10
-2.09865e+08
-5.22047e+08
-4.70389e+10
-2.06371e+08
-4.75026e+08
-4.71595e+10
-1.99686e+08
-4.319e+08
-4.7315e+10
-1.90421e+08
-3.90959e+08
-4.75089e+10
-1.7756e+08
-3.52902e+08
-4.77426e+10
-1.60262e+08
-3.14486e+08
-4.80184e+10
-1.37293e+08
-2.76017e+08
-4.8335e+10
-1.07977e+08
-2.36979e+08
-4.86946e+10
-7.1898e+07
-1.95446e+08
-4.9104e+10
-2.83767e+07
-1.56341e+08
-4.95913e+10
2.4752e+07
-1.19421e+08
-5.02177e+10
8.97456e+07
-8.82656e+07
-5.10626e+10
1.611e+08
-8.66819e+07
-5.21691e+10
2.60144e+08
-2.00555e+08
-5.36107e+10
5.71695e+08
-6.74622e+08
-5.55289e+10
1.69173e+09
-2.33893e+09
-5.82066e+10
4.71088e+09
-5.92821e+09
-6.77267e+10
1.16076e+10
-1.30561e+10
4.4764e+09
-2.87895e+08
-5.65457e+10
-3.05906e+09
-5.64645e+10
-1.80816e+09
-5.63545e+10
-1.43742e+09
-5.62079e+10
-1.07858e+09
-5.61543e+10
-8.56315e+08
-5.60598e+10
-6.39458e+08
-5.59223e+10
-4.50482e+08
-5.58172e+10
-3.23311e+08
-5.57428e+10
-2.25791e+08
-5.56763e+10
-1.64482e+08
-5.56149e+10
-1.24509e+08
-5.55547e+10
-1.03755e+08
-5.54941e+10
-1.04215e+08
-5.54303e+10
-1.23947e+08
-5.53563e+10
-1.61235e+08
-5.52742e+10
-2.0588e+08
-5.51836e+10
-2.62699e+08
-5.5083e+10
-3.32204e+08
-5.4974e+10
-4.09225e+08
-5.48538e+10
-4.9408e+08
-5.47217e+10
-5.80912e+08
-5.45792e+10
-6.67172e+08
-5.44289e+10
-7.43206e+08
-5.42786e+10
-8.01954e+08
-5.41358e+10
-8.39893e+08
-5.40106e+10
-8.52725e+08
-5.39095e+10
-8.44013e+08
-5.38376e+10
-8.18923e+08
-5.37984e+10
-7.80897e+08
-5.37915e+10
-7.37247e+08
-5.382e+10
-6.89823e+08
-5.38795e+10
-6.43521e+08
-5.39694e+10
-6.00339e+08
-5.40869e+10
-5.62329e+08
-5.42272e+10
-5.29499e+08
-5.43938e+10
-4.99391e+08
-5.45836e+10
-4.74752e+08
-5.47942e+10
-4.52282e+08
-5.50265e+10
-4.29378e+08
-5.52797e+10
-4.06294e+08
-5.55504e+10
-3.78893e+08
-5.58349e+10
-3.46673e+08
-5.6124e+10
-3.07752e+08
-5.6414e+10
-2.58112e+08
-5.6702e+10
-2.00048e+08
-5.69942e+10
-1.30203e+08
-5.73153e+10
-4.49238e+07
-5.76986e+10
4.58548e+07
-5.80882e+10
7.68884e+07
-5.79417e+10
-2.31716e+08
-5.58212e+10
-1.18761e+09
-4.76717e+10
-3.58453e+09
-3.16234e+10
-1.10662e+10
-3.14515e+09
-5.16686e+10
-1.21201e+08
-3.48698e+09
-5.15731e+10
-1.63452e+08
-2.36297e+09
-5.15328e+10
-1.88924e+08
-2.01577e+09
-5.1332e+10
-1.68536e+08
-1.62972e+09
-5.12419e+10
-1.42059e+08
-1.34874e+09
-5.11751e+10
-1.09662e+08
-1.1557e+09
-5.1103e+10
-9.03444e+07
-9.87399e+08
-5.10287e+10
-8.33857e+07
-8.50045e+08
-5.09574e+10
-7.82893e+07
-7.42316e+08
-5.08867e+10
-7.42414e+07
-6.69495e+08
-5.08202e+10
-7.36274e+07
-6.19748e+08
-5.07554e+10
-7.34595e+07
-5.87713e+08
-5.06919e+10
-7.22215e+07
-5.79181e+08
-5.06213e+10
-7.21817e+07
-5.9767e+08
-5.0543e+10
-7.28234e+07
-6.34059e+08
-5.04533e+10
-7.52808e+07
-6.82903e+08
-5.03459e+10
-7.83285e+07
-7.44998e+08
-5.02204e+10
-8.28254e+07
-8.1976e+08
-5.00723e+10
-8.73371e+07
-9.01746e+08
-4.99002e+10
-9.28262e+07
-9.9235e+08
-4.9699e+10
-9.82841e+07
-1.08592e+09
-4.94649e+10
-1.0385e+08
-1.17792e+09
-4.92014e+10
-1.09619e+08
-1.25586e+09
-4.89153e+10
-1.14666e+08
-1.30729e+09
-4.86235e+10
-1.1981e+08
-1.32427e+09
-4.83385e+10
-1.24014e+08
-1.30349e+09
-4.80743e+10
-1.27381e+08
-1.24839e+09
-4.78404e+10
-1.29733e+08
-1.16759e+09
-4.76428e+10
-1.31269e+08
-1.0677e+09
-4.74859e+10
-1.32104e+08
-9.58385e+08
-4.73728e+10
-1.31698e+08
-8.43406e+08
-4.73062e+10
-1.29128e+08
-7.28485e+08
-4.72877e+10
-1.24666e+08
-6.17095e+08
-4.73219e+10
-1.1917e+08
-5.08257e+08
-4.74142e+10
-1.12346e+08
-4.01435e+08
-4.75674e+10
-1.03348e+08
-2.97974e+08
-4.77913e+10
-9.12412e+07
-1.9416e+08
-4.80943e+10
-7.55013e+07
-8.98435e+07
-4.84884e+10
-5.58151e+07
1.99443e+07
-4.8987e+10
-3.12344e+07
1.36256e+08
-4.96042e+10
-1.0776e+06
2.63031e+08
-5.03576e+10
3.55357e+07
4.04654e+08
-5.12638e+10
7.87836e+07
5.61934e+08
-5.2344e+10
1.28299e+08
7.42027e+08
-5.36327e+10
1.83819e+08
9.47817e+08
-5.51953e+10
2.46502e+08
1.1937e+09
-5.71531e+10
3.1835e+08
1.50297e+09
-5.97012e+10
3.87601e+08
1.90334e+09
-6.32022e+10
4.58586e+08
2.43975e+09
-6.84418e+10
6.79554e+08
3.12639e+09
-7.86926e+10
2.32998e+09
4.48245e+09
-9.71264e+10
5.25715e+09
5.85059e+09
-1.30965e+11
1.20086e+10
7.67548e+09
9.13195e+08
-1.29888e+09
-5.18171e+10
-2.97992e+09
-5.18973e+10
-1.8817e+09
-5.19519e+10
-1.56771e+09
-5.19463e+10
-1.25314e+09
-5.19749e+10
-9.72793e+08
-5.19747e+10
-7.5285e+08
-5.1921e+10
-5.9751e+08
-5.18521e+10
-4.77239e+08
-5.1778e+10
-3.78636e+08
-5.16998e+10
-3.16486e+08
-5.16171e+10
-2.79755e+08
-5.15264e+10
-2.66377e+08
-5.14268e+10
-2.74848e+08
-5.13147e+10
-3.08309e+08
-5.1192e+10
-3.59058e+08
-5.10561e+10
-4.21462e+08
-5.09043e+10
-4.99356e+08
-5.07374e+10
-5.89436e+08
-5.05544e+10
-6.88311e+08
-5.03539e+10
-7.9583e+08
-5.0133e+10
-9.07329e+08
-4.98896e+10
-1.0187e+09
-4.96255e+10
-1.11687e+09
-4.93489e+10
-1.19183e+09
-4.90717e+10
-1.23485e+09
-4.88041e+10
-1.24385e+09
-4.8555e+10
-1.22197e+09
-4.833e+10
-1.17754e+09
-4.81314e+10
-1.11682e+09
-4.79594e+10
-1.04925e+09
-4.78118e+10
-9.78404e+08
-4.76853e+10
-9.09381e+08
-4.75763e+10
-8.44692e+08
-4.74838e+10
-7.84811e+08
-4.74055e+10
-7.31054e+08
-4.73379e+10
-6.81304e+08
-4.72818e+10
-6.33136e+08
-4.72331e+10
-5.87913e+08
-4.71891e+10
-5.40638e+08
-4.71458e+10
-4.91422e+08
-4.70965e+10
-4.37272e+08
-4.70353e+10
-3.75157e+08
-4.69517e+10
-3.06437e+08
-4.68366e+10
-2.26805e+08
-4.66875e+10
-1.3691e+08
-4.65145e+10
-3.02744e+07
-4.63492e+10
1.05869e+08
-4.62798e+10
2.91349e+08
-4.6484e+10
5.3895e+08
-4.72293e+10
8.22956e+08
-4.80554e+10
1.41717e+09
-5.01178e+10
3.0826e+09
-5.62903e+10
6.74361e+09
1.59313e+09
-5.07067e+10
4.07595e+07
-3.24037e+09
-5.07468e+10
2.4571e+07
-2.32977e+09
-5.07851e+10
-4.30837e+06
-1.9624e+09
-5.07743e+10
782645
-1.63627e+09
-5.07562e+10
-6.40436e+06
-1.35963e+09
-5.07491e+10
-5.64389e+06
-1.15751e+09
-5.07392e+10
-5.36087e+06
-9.91367e+08
-5.07272e+10
-5.08904e+06
-8.54265e+08
-5.07158e+10
-3.49527e+06
-7.45347e+08
-5.07062e+10
-3.66564e+06
-6.68689e+08
-5.06966e+10
-1.82733e+06
-6.1919e+08
-5.06798e+10
951429
-5.95793e+08
-5.06602e+10
7.22537e+06
-5.95981e+08
-5.0638e+10
1.38571e+07
-6.24249e+08
-5.06128e+10
2.02227e+07
-6.73409e+08
-5.05767e+10
2.68621e+07
-7.40972e+08
-5.05296e+10
3.34331e+07
-8.24916e+08
-5.04667e+10
4.08415e+07
-9.2333e+08
-5.03878e+10
4.83244e+07
-1.03131e+09
-5.02906e+10
5.65104e+07
-1.14936e+09
-5.01672e+10
6.56096e+07
-1.27439e+09
-5.00126e+10
7.51934e+07
-1.40226e+09
-4.98238e+10
8.58383e+07
-1.51549e+09
-4.96112e+10
9.58428e+07
-1.59505e+09
-4.93907e+10
1.05199e+08
-1.62695e+09
-4.91767e+10
1.13735e+08
-1.60863e+09
-4.89807e+10
1.21705e+08
-1.546e+09
-4.88092e+10
1.29406e+08
-1.45122e+09
-4.86619e+10
1.3707e+08
-1.33713e+09
-4.85397e+10
1.45246e+08
-1.21281e+09
-4.8438e+10
1.54622e+08
-1.08751e+09
-4.83526e+10
1.65629e+08
-9.67298e+08
-4.82804e+10
1.78276e+08
-8.54176e+08
-4.82172e+10
1.92641e+08
-7.48727e+08
-4.81617e+10
2.08955e+08
-6.48001e+08
-4.8113e+10
2.27582e+08
-5.53456e+08
-4.80708e+10
2.49504e+08
-4.61626e+08
-4.80366e+10
2.75291e+08
-3.7148e+08
-4.80096e+10
3.05699e+08
-2.80185e+08
-4.79936e+10
3.41802e+08
-1.8259e+08
-4.79897e+10
3.85175e+08
-7.73547e+07
-4.79983e+10
4.37642e+08
3.87034e+07
-4.80191e+10
5.00052e+08
1.67182e+08
-4.80496e+10
5.73542e+08
3.11765e+08
-4.80996e+10
6.60622e+08
4.81328e+08
-4.81885e+10
7.64188e+08
6.84391e+08
-4.83633e+10
8.88901e+08
9.4706e+08
-4.87126e+10
1.03088e+09
1.31385e+09
-4.94063e+10
1.18924e+09
1.88009e+09
-5.08671e+10
1.43888e+09
2.86679e+09
-5.49198e+10
2.53279e+09
5.45771e+09
-6.44506e+10
4.43783e+09
1.04055e+10
-9.12234e+10
1.12436e+10
2.28343e+10
4.615e+09
9.64807e+09
-4.93046e+10
-2.88742e+09
-4.91305e+10
-2.02207e+09
-4.89936e+10
-1.70315e+09
-4.88453e+10
-1.39815e+09
-4.87282e+10
-1.09565e+09
-4.86206e+10
-8.65649e+08
-4.85246e+10
-6.97672e+08
-4.84396e+10
-5.64581e+08
-4.83573e+10
-4.60395e+08
-4.8286e+10
-3.86247e+08
-4.82217e+10
-3.39472e+08
-4.81612e+10
-3.18819e+08
-4.8098e+10
-3.23595e+08
-4.80299e+10
-3.5624e+08
-4.79542e+10
-4.09749e+08
-4.78633e+10
-4.82779e+08
-4.77539e+10
-5.73812e+08
-4.76218e+10
-6.80836e+08
-4.74637e+10
-7.99149e+08
-4.72764e+10
-9.28169e+08
-4.70516e+10
-1.06595e+09
-4.67818e+10
-1.20699e+09
-4.64674e+10
-1.33373e+09
-4.61198e+10
-1.42722e+09
-4.57597e+10
-1.47104e+09
-4.54075e+10
-1.46361e+09
-4.50802e+10
-1.41006e+09
-4.47893e+10
-1.32331e+09
-4.45379e+10
-1.21701e+09
-4.43276e+10
-1.10119e+09
-4.41537e+10
-9.84954e+08
-4.40106e+10
-8.73632e+08
-4.38933e+10
-7.69381e+08
-4.37948e+10
-6.74571e+08
-4.37108e+10
-5.87868e+08
-4.36347e+10
-5.09071e+08
-4.35605e+10
-4.34531e+08
-4.34828e+10
-3.6392e+08
-4.33921e+10
-2.95404e+08
-4.32804e+10
-2.25754e+08
-4.31343e+10
-1.54736e+08
-4.29386e+10
-7.81636e+07
-4.26775e+10
3.78466e+06
-4.23316e+10
9.2526e+07
-4.18892e+10
1.92807e+08
-4.13395e+10
3.05482e+08
-4.0678e+10
4.39792e+08
-3.99223e+10
6.15976e+08
-3.91313e+10
8.78702e+08
-3.84052e+10
1.3323e+09
-3.72701e+10
2.53447e+09
-3.63636e+10
6.35277e+09
-3.74225e+10
1.90047e+10
7.23155e+09
-4.90027e+10
1.36164e+08
-3.07002e+09
-4.91128e+10
1.53979e+08
-2.36429e+09
-4.91663e+10
1.74848e+08
-2.07585e+09
-4.92179e+10
1.89759e+08
-1.7685e+09
-4.92357e+10
1.81023e+08
-1.51764e+09
-4.92442e+10
1.70908e+08
-1.31477e+09
-4.92391e+10
1.65041e+08
-1.1553e+09
-4.92254e+10
1.69223e+08
-1.02951e+09
-4.92048e+10
1.74184e+08
-9.30546e+08
-4.91845e+10
1.76525e+08
-8.54177e+08
-4.91667e+10
1.74763e+08
-7.98388e+08
-4.91431e+10
1.73429e+08
-7.77779e+08
-4.91119e+10
1.74329e+08
-7.85342e+08
-4.90757e+10
1.74987e+08
-8.19675e+08
-4.90317e+10
1.74584e+08
-8.77977e+08
-4.89758e+10
1.73408e+08
-9.58165e+08
-4.89039e+10
1.71569e+08
-1.05868e+09
-4.88151e+10
1.69688e+08
-1.17207e+09
-4.87112e+10
1.66807e+08
-1.29768e+09
-4.85888e+10
1.64498e+08
-1.43146e+09
-4.84407e+10
1.61802e+08
-1.57808e+09
-4.82589e+10
1.59779e+08
-1.73087e+09
-4.80372e+10
1.58766e+08
-1.86767e+09
-4.77964e+10
1.56822e+08
-1.95681e+09
-4.75593e+10
1.556e+08
-1.97343e+09
-4.73563e+10
1.53253e+08
-1.91748e+09
-4.72012e+10
1.50648e+08
-1.80404e+09
-4.70991e+10
1.47564e+08
-1.65466e+09
-4.70479e+10
1.44367e+08
-1.48757e+09
-4.70377e+10
1.41218e+08
-1.31911e+09
-4.70606e+10
1.38141e+08
-1.15624e+09
-4.71065e+10
1.34924e+08
-1.00722e+09
-4.71668e+10
1.31409e+08
-8.72287e+08
-4.72344e+10
1.27884e+08
-7.51195e+08
-4.73015e+10
1.24665e+08
-6.42308e+08
-4.73631e+10
1.21609e+08
-5.44124e+08
-4.74128e+10
1.18878e+08
-4.54972e+08
-4.74448e+10
1.16767e+08
-3.73157e+08
-4.74535e+10
1.15484e+08
-2.95146e+08
-4.74263e+10
1.15009e+08
-2.21884e+08
-4.73559e+10
1.1576e+08
-1.45429e+08
-4.72293e+10
1.18785e+08
-6.77e+07
-4.70331e+10
1.25445e+08
1.33981e+07
-4.67515e+10
1.36894e+08
9.74154e+07
-4.63688e+10
1.54498e+08
1.87866e+08
-4.58729e+10
1.781e+08
2.8537e+08
-4.52509e+10
2.04995e+08
4.00065e+08
-4.44726e+10
2.26028e+08
5.49444e+08
-4.34143e+10
2.16048e+08
7.71933e+08
-4.18722e+10
1.87682e+08
1.23787e+09
-3.87805e+10
1.91752e+08
2.41165e+09
-3.57472e+10
1.84943e+09
5.88775e+09
-4.06099e+10
1.00809e+10
1.82203e+10
5.35238e+09
7.61269e+09
-5.03248e+10
-2.37087e+09
-5.0503e+10
-1.68324e+09
-5.05914e+10
-1.43478e+09
-5.06425e+10
-1.15289e+09
-5.0667e+10
-8.85843e+08
-5.06775e+10
-6.7944e+08
-5.0678e+10
-5.26653e+08
-5.06636e+10
-4.03103e+08
-5.06362e+10
-3.05738e+08
-5.06026e+10
-2.34285e+08
-5.05712e+10
-1.85685e+08
-5.05364e+10
-1.68793e+08
-5.04929e+10
-1.80824e+08
-5.04421e+10
-2.20595e+08
-5.03812e+10
-2.85835e+08
-5.03063e+10
-3.7528e+08
-5.0213e+10
-4.87227e+08
-5.01013e+10
-6.15932e+08
-4.99698e+10
-7.58546e+08
-4.98163e+10
-9.13609e+08
-4.9631e+10
-1.08417e+09
-4.94039e+10
-1.26314e+09
-4.91298e+10
-1.43047e+09
-4.88224e+10
-1.5493e+09
-4.85071e+10
-1.59644e+09
-4.82114e+10
-1.56783e+09
-4.79524e+10
-1.4789e+09
-4.77376e+10
-1.35068e+09
-4.75681e+10
-1.20207e+09
-4.74367e+10
-1.05043e+09
-4.7338e+10
-9.02821e+08
-4.7264e+10
-7.67383e+08
-4.72082e+10
-6.44878e+08
-4.7166e+10
-5.35915e+08
-4.71327e+10
-4.38825e+08
-4.71059e+10
-3.51587e+08
-4.70811e+10
-2.72167e+08
-4.70553e+10
-1.98516e+08
-4.7026e+10
-1.27059e+08
-4.69849e+10
-6.00329e+07
-4.69285e+10
9.53912e+06
-4.68472e+10
8.22988e+07
-4.67293e+10
1.58103e+08
-4.65604e+10
2.36229e+08
-4.63275e+10
3.19437e+08
-4.60248e+10
4.06479e+08
-4.56603e+10
5.05761e+08
-4.5254e+10
6.31018e+08
-4.47861e+10
7.77653e+08
-4.3993e+10
8.9567e+08
-4.22792e+10
1.26449e+09
-3.73864e+10
3.75595e+09
-2.08141e+10
1.2998e+10
6.61063e+09
-4.85278e+10
9.02354e+07
-2.90216e+09
-4.85903e+10
1.29533e+08
-2.4245e+09
-4.8627e+10
1.66909e+08
-2.19882e+09
-4.86459e+10
1.89386e+08
-1.93016e+09
-4.86358e+10
1.91268e+08
-1.70901e+09
-4.86169e+10
1.87298e+08
-1.50983e+09
-4.86036e+10
1.88498e+08
-1.34489e+09
-4.85972e+10
1.9705e+08
-1.21946e+09
-4.85954e+10
2.02121e+08
-1.11943e+09
-4.85977e+10
2.02173e+08
-1.03718e+09
-4.85927e+10
1.97341e+08
-9.81704e+08
-4.85844e+10
1.91668e+08
-9.56812e+08
-4.85709e+10
1.85129e+08
-9.6186e+08
-4.85473e+10
1.76189e+08
-9.97658e+08
-4.85071e+10
1.64949e+08
-1.06224e+09
-4.84419e+10
1.515e+08
-1.15637e+09
-4.83431e+10
1.37102e+08
-1.27486e+09
-4.82064e+10
1.2101e+08
-1.41404e+09
-4.80278e+10
1.04659e+08
-1.56833e+09
-4.78042e+10
8.7074e+07
-1.7355e+09
-4.7522e+10
6.94823e+07
-1.92583e+09
-4.71504e+10
5.40948e+07
-2.1409e+09
-4.66756e+10
4.05322e+07
-2.35493e+09
-4.61106e+10
3.24313e+07
-2.50148e+09
-4.55145e+10
2.89324e+07
-2.52955e+09
-4.49426e+10
3.06483e+07
-2.43926e+09
-4.44348e+10
3.61643e+07
-2.262e+09
-4.40107e+10
4.39538e+07
-2.03481e+09
-4.36715e+10
5.2704e+07
-1.78945e+09
-4.34088e+10
6.1357e+07
-1.54995e+09
-4.32084e+10
6.93418e+07
-1.32792e+09
-4.30578e+10
7.62463e+07
-1.12921e+09
-4.29453e+10
8.16142e+07
-9.53416e+08
-4.28608e+10
8.57286e+07
-7.98968e+08
-4.27954e+10
8.91107e+07
-6.64216e+08
-4.27429e+10
9.22381e+07
-5.44909e+08
-4.26959e+10
9.51849e+07
-4.41085e+08
-4.2649e+10
9.84625e+07
-3.48492e+08
-4.2593e+10
1.03388e+08
-2.67827e+08
-4.2522e+10
1.11156e+08
-1.96252e+08
-4.24227e+10
1.21638e+08
-1.31241e+08
-4.2277e+10
1.34394e+08
-7.62542e+07
-4.20647e+10
1.51665e+08
-3.18435e+07
-4.17625e+10
1.73416e+08
-1.96246e+06
-4.13494e+10
1.99772e+08
1.35085e+07
-4.08108e+10
2.31393e+08
1.064e+07
-4.01423e+10
2.72138e+08
-5.40241e+06
-3.9343e+10
3.26196e+08
-8.7559e+06
-3.83233e+10
3.66872e+08
1.26251e+07
-3.65663e+10
2.26063e+08
8.52175e+07
-3.33025e+10
5.60046e+07
1.46562e+08
-2.82072e+10
2.02514e+09
2.14053e+08
-2.39401e+10
1.03455e+10
4.88585e+09
5.19476e+09
3.01194e+09
-4.73997e+10
-1.84799e+09
-4.76445e+10
-1.30472e+09
-4.78108e+10
-1.0962e+09
-4.79255e+10
-8.42432e+08
-4.79806e+10
-6.32207e+08
-4.80091e+10
-4.55597e+08
-4.80358e+10
-3.02904e+08
-4.80485e+10
-1.83898e+08
-4.80501e+10
-9.16117e+07
-4.80447e+10
-2.58892e+07
-4.80317e+10
1.15075e+07
-4.80136e+10
1.87322e+07
-4.799e+10
-5.01156e+06
-4.79598e+10
-6.08415e+07
-4.79207e+10
-1.47389e+08
-4.78673e+10
-2.65369e+08
-4.77959e+10
-4.10601e+08
-4.77025e+10
-5.78545e+08
-4.75874e+10
-7.63914e+08
-4.74479e+10
-9.64971e+08
-4.72713e+10
-1.18968e+09
-4.7032e+10
-1.44211e+09
-4.67107e+10
-1.69212e+09
-4.63212e+10
-1.87198e+09
-4.59119e+10
-1.9293e+09
-4.55296e+10
-1.8631e+09
-4.52067e+10
-1.70645e+09
-4.49576e+10
-1.49614e+09
-4.4782e+10
-1.26487e+09
-4.4672e+10
-1.03745e+09
-4.46154e+10
-8.25568e+08
-4.46021e+10
-6.35675e+08
-4.46231e+10
-4.68382e+08
-4.46709e+10
-3.22515e+08
-4.47384e+10
-1.95662e+08
-4.48209e+10
-8.33372e+07
-4.49109e+10
1.44152e+07
-4.50021e+10
1.01572e+08
-4.50818e+10
1.77257e+08
-4.51381e+10
2.42306e+08
-4.515e+10
2.96179e+08
-4.5095e+10
3.38778e+08
-4.49493e+10
3.71583e+08
-4.46847e+10
3.87953e+08
-4.42762e+10
3.89152e+08
-4.37013e+10
3.69415e+08
-4.29314e+10
3.29539e+08
-4.19344e+10
2.93259e+08
-4.07196e+10
3.06962e+08
-3.97644e+10
6.50485e+08
-3.9032e+10
1.28267e+09
-3.28918e+10
4.67893e+08
-1.28181e+09
-7.72307e+09
-4.20932e+09
-4.9551e+10
-2.61697e+06
-2.56733e+09
-4.97887e+10
1.62184e+07
-2.19907e+09
-4.99794e+10
3.03805e+06
-2.00469e+09
-5.01338e+10
-85691
-1.76761e+09
-5.02642e+10
-7.70199e+06
-1.56187e+09
-5.03742e+10
-1.6182e+07
-1.37441e+09
-5.04772e+10
-2.22726e+07
-1.21038e+09
-5.05821e+10
-2.49442e+07
-1.07991e+09
-5.06886e+10
-2.90112e+07
-9.73435e+08
-5.07934e+10
-3.48566e+07
-8.86113e+08
-5.08952e+10
-4.00085e+07
-8.27349e+08
-5.09941e+10
-4.39677e+07
-8.00787e+08
-5.10896e+10
-4.73755e+07
-8.05935e+08
-5.11792e+10
-5.10293e+07
-8.45494e+08
-5.12552e+10
-5.50434e+07
-9.22533e+08
-5.13104e+10
-5.92042e+07
-1.03501e+09
-5.13349e+10
-6.36146e+07
-1.17964e+09
-5.13274e+10
-6.94942e+07
-1.34944e+09
-5.1287e+10
-7.73658e+07
-1.53383e+09
-5.12139e+10
-8.9096e+07
-1.73582e+09
-5.10927e+10
-1.02155e+08
-1.96622e+09
-5.0883e+10
-1.17883e+08
-2.25384e+09
-5.05292e+10
-1.35785e+08
-2.57714e+09
-5.00285e+10
-1.56537e+08
-2.82012e+09
-4.94597e+10
-1.82173e+08
-2.86799e+09
-4.88993e+10
-2.08072e+08
-2.72829e+09
-4.83915e+10
-2.31803e+08
-2.47317e+09
-4.79543e+10
-2.50447e+08
-2.15993e+09
-4.75852e+10
-2.63197e+08
-1.8369e+09
-4.72748e+10
-2.70751e+08
-1.53247e+09
-4.701e+10
-2.74349e+08
-1.2601e+09
-4.67811e+10
-2.75294e+08
-1.02119e+09
-4.65788e+10
-2.74284e+08
-8.15127e+08
-4.6396e+10
-2.71815e+08
-6.37871e+08
-4.62307e+10
-2.6845e+08
-4.8252e+08
-4.60781e+10
-2.64544e+08
-3.47542e+08
-4.59381e+10
-2.60347e+08
-2.27769e+08
-4.58058e+10
-2.56157e+08
-1.23133e+08
-4.56792e+10
-2.52626e+08
-2.98529e+07
-4.55474e+10
-2.51064e+08
4.85786e+07
-4.53925e+10
-2.5483e+08
1.12342e+08
-4.51898e+10
-2.64992e+08
1.54482e+08
-4.49143e+10
-2.80484e+08
1.73699e+08
-4.45388e+10
-3.03597e+08
1.63495e+08
-4.40378e+10
-3.35879e+08
1.20607e+08
-4.33819e+10
-3.79176e+08
2.70465e+07
-4.25265e+10
-4.30776e+08
-1.35518e+08
-4.14147e+10
-4.70624e+08
-3.69204e+08
-3.9921e+10
-4.94385e+08
-6.80853e+08
-3.82982e+10
-3.87659e+08
-7.88476e+08
-3.63301e+10