/*--------------------------------*- C++ -*----------------------------------*\
| =========                 |                                                 |
| \\      /  F ield         | OpenFOAM: The Open Source CFD Toolbox           |
|  \\    /   O peration     | Version:  4.1                                   |
|   \\  /    A nd           | Web:      www.OpenFOAM.org                      |
|    \\/     M anipulation  |                                                 |
\*---------------------------------------------------------------------------*/
FoamFile
{
    version     2.0;
    format      ascii;
    class       volScalarField;
    location    "31";
    object      omega;
}
// * * * * * * * * * * * * * * * * * * * * * * * * * * * * * * * * * * * * * //

dimensions      [0 0 -1 0 0 0 0];

internalField   nonuniform List<scalar> 
4432
(
0.0111115
0.0114288
0.011831
0.0121282
0.0125169
0.0128217
0.0131767
0.0134931
0.0137998
0.0141076
0.0143734
0.0146534
0.0149029
0.0151594
0.0153956
0.0156395
0.0158757
0.0161041
0.0163475
0.0165639
0.0167754
0.0169608
0.0171598
0.0173382
0.017518
0.0176917
0.0178833
0.018184
0.0185808
0.0198219
0.0218869
0.0244254
0.0271311
0.0296895
0.0321343
0.0339099
0.0360972
0.0374584
0.037689
0.0374005
0.0371928
0.0374938
0.0372091
0.0369659
0.0366562
0.0364062
0.0369039
0.0372058
0.0345459
0.0354636
0.034719
0.0595081
0.0579217
0.0513222
0.0110567
0.0114813
0.0117739
0.0121714
0.0124807
0.0128428
0.0131702
0.0134947
0.0138128
0.0141077
0.0143942
0.0146708
0.0149315
0.0151962
0.0154399
0.0157006
0.0159185
0.0161864
0.0163878
0.0166505
0.0168482
0.0170625
0.017254
0.0174223
0.0175981
0.0178449
0.0180958
0.0184333
0.0192116
0.0206591
0.0227533
0.0249289
0.0274652
0.0298387
0.0322351
0.0340716
0.035956
0.0371991
0.037262
0.0369807
0.0367662
0.0371656
0.0366269
0.0363238
0.0366291
0.0364595
0.0358878
0.035447
0.0340606
0.0338228
0.033146
0.0455804
0.0529135
0.0643072
21.8194
3.39084
1.24891
0.676203
0.441958
0.322448
0.252242
0.206674
0.174839
0.15144
0.133451
0.119316
0.107765
0.0983413
0.090252
0.083537
0.0774861
0.0725302
0.0677761
0.0640494
0.0604138
0.0575441
0.0548644
0.0527458
0.0505993
0.04902
0.0473188
0.0459893
0.0445097
0.0433517
0.0420975
0.0408797
0.0397835
0.0384933
0.0375803
0.0362464
0.0356585
0.0338223
0.0332105
0.033099
0.0317997
0.0318326
0.0313467
0.0298611
0.0301367
0.0307618
0.0333297
0.0323982
0.0341753
0.033521
0.0477555
0.167088
0.336547
0.526887
21.8195
3.39112
1.24925
0.676417
0.442062
0.322503
0.25228
0.206708
0.174879
0.151467
0.133512
0.11933
0.107856
0.0983369
0.0903813
0.0835313
0.0776719
0.0725072
0.0679397
0.064048
0.0605966
0.0576949
0.0551837
0.0529522
0.0510139
0.0491928
0.0476357
0.046128
0.0448096
0.043529
0.0422691
0.0410596
0.0398226
0.0387031
0.0376225
0.036638
0.0357178
0.0349112
0.0344589
0.0330934
0.0324963
0.0318237
0.03101
0.030804
0.0288829
0.0288017
0.0288297
0.030146
0.0325421
0.0363445
0.0389053
0.0647924
0.193918
0.252887
21.8136
3.38768
1.2451
0.674135
0.441279
0.32243
0.252473
0.207
0.175164
0.151783
0.133757
0.119674
0.108078
0.098773
0.0906646
0.084149
0.0781966
0.0734505
0.0689507
0.065293
0.0617791
0.0588225
0.0561056
0.0537495
0.0517013
0.0498356
0.0483306
0.0467222
0.0454697
0.043993
0.0429045
0.0414304
0.0403975
0.0391891
0.037947
0.0366976
0.0356431
0.0345965
0.0342165
0.0322499
0.0318195
0.0312761
0.0302189
0.0301391
0.0282961
0.0293098
0.0274346
0.0271354
0.027896
0.0281813
0.0280298
0.0622806
0.0876947
0.294386
21.8134
3.38792
1.24536
0.674296
0.441365
0.322475
0.252521
0.207031
0.175225
0.151814
0.133845
0.119696
0.108202
0.0987783
0.0908235
0.084158
0.0783722
0.0734911
0.0691105
0.0654018
0.0620023
0.0591009
0.0564726
0.0542678
0.0521103
0.0504753
0.0486967
0.0472463
0.0458341
0.0442448
0.0431438
0.0414849
0.0403883
0.0389639
0.0376712
0.0365083
0.035564
0.0344134
0.0325341
0.0317214
0.0310672
0.0307154
0.028933
0.0284856
0.0286161
0.0269318
0.0276895
0.0267421
0.027162
0.0274853
0.0287856
0.0369933
0.079709
0.203678
21.8128
3.38708
1.24428
0.673649
0.441087
0.322362
0.252485
0.206992
0.175221
0.151762
0.133842
0.11962
0.108209
0.0986829
0.0908721
0.084042
0.0784912
0.0733528
0.0692836
0.0653193
0.0622093
0.0590951
0.0567175
0.0541457
0.0523919
0.0501594
0.0489011
0.0468761
0.0457261
0.0438192
0.0425682
0.0409686
0.0392752
0.0383005
0.0362456
0.0350846
0.0338435
0.0334924
0.0316009
0.0310713
0.0303908
0.0299494
0.0302231
0.0298261
0.029641
0.02995
0.0290241
0.0290916
0.0291274
0.0287659
0.0332265
0.0652142
0.387279
0.458106
21.8127
3.38742
1.24446
0.673741
0.441145
0.322399
0.252529
0.207022
0.175277
0.151798
0.133919
0.119667
0.108298
0.0987431
0.0909586
0.0841301
0.0785395
0.0734871
0.0692819
0.0655196
0.0622268
0.0593915
0.0568264
0.0545548
0.0526341
0.0506604
0.0491034
0.0476671
0.045658
0.0444306
0.0425408
0.040733
0.0394124
0.0379768
0.0366836
0.0354137
0.0349594
0.0333013
0.0325223
0.0316721
0.0310444
0.0309418
0.0293364
0.029085
0.0295211
0.0299648
0.028999
0.0294498
0.031271
0.0292566
0.0311394
0.0435882
0.202965
0.369414
21.8121
3.38689
1.24343
0.673077
0.440851
0.322277
0.25247
0.206982
0.175235
0.151768
0.133852
0.119659
0.108187
0.0987876
0.090811
0.0842281
0.0784049
0.0735684
0.0692964
0.0655484
0.0624051
0.0594338
0.0569275
0.0545975
0.052664
0.0504145
0.0489282
0.0466466
0.0441541
0.0422756
0.0408298
0.0396781
0.0383515
0.0368324
0.0357667
0.0346697
0.0335896
0.0328806
0.0323559
0.0305512
0.0316166
0.0292389
0.0287632
0.0285856
0.0282921
0.0281514
0.0279999
0.0286848
0.0301892
0.0286678
0.0310226
0.0287597
0.145804
0.419085
21.8119
3.38687
1.24385
0.673396
0.440996
0.322351
0.25251
0.20703
0.17528
0.151814
0.133934
0.119686
0.108326
0.0987723
0.090998
0.0841571
0.0785711
0.0734642
0.0692954
0.0654249
0.0621506
0.059203
0.0565528
0.0541797
0.0522935
0.0500304
0.0482879
0.0460663
0.0445332
0.0425646
0.0412407
0.0396022
0.0383599
0.035933
0.0353759
0.0335591
0.0328426
0.0320184
0.0313081
0.0311385
0.0295169
0.0290794
0.0296371
0.0302468
0.0288793
0.0286081
0.0315654
0.0292686
0.029042
0.0290093
0.031976
0.0457383
0.0718603
0.190815
21.8106
3.38587
1.24251
0.672573
0.440639
0.322199
0.252464
0.206971
0.175284
0.151742
0.133945
0.119603
0.108327
0.0987124
0.0909672
0.084147
0.0784923
0.0735255
0.0692195
0.0656277
0.0621797
0.0596021
0.0566083
0.0547086
0.052175
0.0507225
0.0481778
0.0467768
0.0443768
0.0429846
0.0406903
0.0393497
0.0375137
0.0358096
0.0350756
0.0332099
0.032578
0.0323583
0.0305971
0.0300599
0.0295793
0.0292684
0.0300086
0.0297572
0.0304197
0.0280723
0.0280446
0.0314791
0.0290633
0.0314908
0.0315079
0.0383046
0.0761896
0.080282
21.8106
3.38608
1.24278
0.672754
0.440727
0.322271
0.252488
0.207054
0.175288
0.151861
0.133945
0.119745
0.108345
0.0988384
0.0910288
0.0842192
0.0786118
0.0734782
0.0693657
0.0653339
0.062239
0.0590327
0.0566284
0.0539
0.0522446
0.0496085
0.0480346
0.0454959
0.0440567
0.0415446
0.0397643
0.0385897
0.037587
0.0358886
0.0348274
0.0340813
0.0323675
0.0314839
0.0308828
0.0301964
0.0297281
0.0299697
0.0284361
0.0283179
0.0294875
0.0277452
0.0293383
0.0345105
0.0302652
0.0301957
0.0320233
0.0380946
0.0510315
0.0504494
21.8097
3.38538
1.24185
0.672184
0.440468
0.322172
0.252423
0.207038
0.175229
0.151852
0.13387
0.119726
0.108266
0.0988057
0.0909632
0.0841677
0.078536
0.073434
0.0692678
0.0653937
0.0622628
0.0592795
0.0567451
0.0543376
0.0523218
0.0501246
0.0483879
0.0461965
0.0443629
0.0427749
0.0406864
0.0392936
0.0377362
0.0360427
0.0354347
0.0331654
0.0328162
0.0345578
0.0329544
0.0340766
0.0375633
0.0336215
0.033183
0.0328497
0.0322718
0.0318426
0.0316223
0.0316296
0.0316363
0.033626
0.0351559
0.0411139
0.0522939
0.0538908
21.8096
3.38556
1.242
0.672284
0.440534
0.322216
0.25248
0.207075
0.175302
0.151897
0.133956
0.11979
0.108347
0.0988926
0.0910183
0.0842684
0.0785824
0.0735103
0.0693269
0.0653813
0.0622146
0.0591885
0.0564861
0.0543274
0.0518204
0.0500191
0.0475652
0.0460434
0.0440705
0.0423129
0.0405701
0.0389621
0.0373299
0.0362066
0.0344954
0.0334999
0.0331915
0.0319612
0.033111
0.0310576
0.0308007
0.0315216
0.0312783
0.0318861
0.0296511
0.0294805
0.0293561
0.0301523
0.0309725
0.0320037
0.0320281
0.0355294
0.0401551
0.042385
21.8081
3.38443
1.24031
0.671239
0.440077
0.322041
0.252397
0.207043
0.175246
0.151888
0.133872
0.119802
0.108222
0.0989374
0.0908584
0.0843377
0.0784189
0.0735906
0.0691712
0.0655505
0.0622201
0.0593558
0.0569228
0.0542834
0.0524553
0.0502562
0.0480471
0.046064
0.043914
0.0421334
0.0404812
0.0387873
0.0376732
0.0355823
0.0348941
0.0339959
0.0335253
0.0327982
0.0322634
0.0354541
0.0329909
0.0334501
0.0333373
0.0370087
0.0341602
0.0341865
0.0357919
0.0407588
0.0381371
0.0394539
0.0434314
0.0420297
0.0438344
0.0445488
21.808
3.38474
1.2406
0.671427
0.440179
0.322112
0.252449
0.207103
0.175309
0.151947
0.133968
0.119847
0.108356
0.0989589
0.0909997
0.0843699
0.078491
0.0736727
0.0691615
0.0655265
0.0621599
0.0591181
0.0566672
0.0540573
0.0519515
0.0499243
0.0474732
0.0454532
0.0430546
0.0417785
0.0393496
0.0380102
0.0361195
0.035059
0.0342321
0.0333373
0.0328624
0.0323153
0.0322531
0.0318575
0.0315257
0.0317804
0.0352603
0.0324773
0.0325874
0.0324438
0.0363802
0.0339048
0.0339769
0.0369538
0.0352364
0.0356929
0.0431859
0.0432746
21.8072
3.3839
1.23966
0.670861
0.439923
0.321991
0.252394
0.20705
0.175266
0.151901
0.133887
0.119811
0.108213
0.0989454
0.090812
0.0843513
0.078334
0.0735692
0.0690504
0.0654549
0.0620288
0.0592311
0.0566036
0.0542187
0.0521347
0.0499974
0.0480492
0.0461678
0.0441631
0.0425474
0.0407973
0.0404537
0.0373972
0.0368484
0.0376273
0.0361521
0.0348734
0.0373959
0.034807
0.041564
0.0364019
0.0424926
0.0388559
0.0388684
0.0431266
0.040015
0.040243
0.0403082
0.0408093
0.0437416
0.0405954
0.0412288
0.0404667
0.0415488
21.807
3.38407
1.2399
0.671041
0.440016
0.322072
0.252427
0.207142
0.175287
0.152023
0.133915
0.119948
0.108263
0.0990669
0.0908839
0.0844471
0.0783781
0.0736758
0.0690092
0.0655092
0.0618535
0.0591575
0.0562027
0.0541413
0.0515754
0.0496996
0.0476839
0.0457332
0.0434995
0.0422965
0.0396787
0.0381223
0.0365672
0.0349928
0.0349308
0.032761
0.033134
0.035008
0.0322553
0.0317756
0.0315558
0.0313454
0.0312057
0.0331803
0.0337956
0.0356071
0.0332166
0.0381138
0.03396
0.0391871
0.0367331
0.0419186
0.0395602
0.040604
21.8055
3.38285
1.23825
0.670022
0.439574
0.32187
0.252368
0.207046
0.17528
0.151903
0.1339
0.119795
0.108226
0.0988866
0.0908354
0.084204
0.0783717
0.0733217
0.0690692
0.0651836
0.061962
0.0591009
0.056536
0.0543023
0.0520524
0.0498868
0.0478699
0.0455304
0.0449741
0.0408832
0.0398305
0.039479
0.0397905
0.0369785
0.0364847
0.0359046
0.0369612
0.0355369
0.0433675
0.0392172
0.0453077
0.0411094
0.0423989
0.042604
0.0459517
0.0442489
0.0449373
0.0466828
0.047355
0.0441509
0.0432362
0.0472563
0.0453073
0.0480415
21.8055
3.38313
1.23849
0.670184
0.439663
0.321955
0.252407
0.207146
0.175306
0.152036
0.133924
0.119958
0.108255
0.0990617
0.0908641
0.0843961
0.0783687
0.0735593
0.0690425
0.0653483
0.0619167
0.0590423
0.0562777
0.054032
0.0514988
0.0496699
0.0474632
0.0456321
0.0431918
0.0416352
0.0396165
0.0371302
0.0365565
0.0356222
0.0354349
0.0350634
0.0346859
0.034453
0.0342369
0.0341726
0.0390756
0.0349975
0.037532
0.0401031
0.0368008
0.0400517
0.0361988
0.0361622
0.0366493
0.0397243
0.0380963
0.0425937
0.0474618
0.0495531
21.8047
3.38263
1.23759
0.66959
0.439401
0.32181
0.252371
0.20704
0.175308
0.151895
0.133934
0.119766
0.108268
0.0988052
0.0908851
0.0840533
0.0784014
0.0731425
0.0690253
0.0650086
0.0618921
0.0588733
0.0566321
0.0540012
0.0522459
0.0498608
0.0477593
0.0453723
0.0445031
0.0405215
0.0418491
0.0415001
0.0484686
0.0396716
0.0393147
0.0400114
0.0398451
0.0405135
0.0477962
0.0437355
0.0438876
0.044856
0.0453087
0.0517239
0.0577021
0.0507453
0.0542773
0.0532628
0.0530933
0.0520649
0.05036
0.0508628
0.0538179
0.0588971
21.8045
3.3828
1.23795
0.669845
0.439531
0.321904
0.25242
0.20713
0.175351
0.152009
0.133985
0.11991
0.108319
0.0989739
0.0909268
0.0842312
0.0784348
0.073306
0.0690386
0.0650684
0.0617817
0.0587315
0.0562401
0.0535338
0.0520131
0.0493177
0.0475203
0.0449892
0.0451108
0.0410959
0.0408119
0.0395986
0.0399437
0.0367454
0.0382915
0.043277
0.0375002
0.037231
0.0374289
0.0405675
0.0373743
0.0374405
0.0427552
0.0376684
0.037481
0.0376616
0.0374064
0.0410492
0.0470758
0.0421564
0.0427549
0.0491046
0.0537205
0.0645948
21.8032
3.3817
1.23639
0.668874
0.439103
0.321702
0.252346
0.207032
0.175307
0.151906
0.133894
0.119804
0.108144
0.098871
0.0906447
0.0841247
0.0780427
0.0731595
0.0686482
0.0648199
0.0615969
0.0585727
0.0561577
0.0538876
0.0519003
0.0494527
0.0473712
0.0449649
0.0433768
0.0418681
0.0412943
0.0399543
0.0388002
0.0433388
0.0482164
0.057833
0.0497806
0.055926
0.0522956
0.0555401
0.0541012
0.0530388
0.0528002
0.0526185
0.05182
0.0513287
0.0538721
0.0544153
0.0545994
0.0527221
0.0546431
0.0583853
0.0613718
0.0793296
21.8031
3.38182
1.23669
0.669106
0.439225
0.321798
0.252398
0.207127
0.175364
0.152011
0.13399
0.119893
0.1083
0.0989227
0.0908616
0.0841463
0.078273
0.0731976
0.0687191
0.0649398
0.0612596
0.0585988
0.0555702
0.0534812
0.0516266
0.0493383
0.0474313
0.0451671
0.0433644
0.0416948
0.0396977
0.0393338
0.0364244
0.0360994
0.0355133
0.0356399
0.0356511
0.0363778
0.0364393
0.040317
0.0386593
0.0424825
0.0496101
0.0430005
0.0465032
0.0425318
0.047494
0.0428089
0.047771
0.0442411
0.0481801
0.0499499
0.0588769
0.100572
21.8025
3.38141
1.23578
0.66849
0.438952
0.321639
0.252363
0.206992
0.175391
0.151808
0.134054
0.119615
0.108367
0.0986061
0.0908543
0.0838501
0.0781174
0.072936
0.0684584
0.064541
0.061084
0.058018
0.0555488
0.0532816
0.0528824
0.0497265
0.0478801
0.0469489
0.0429763
0.0419444
0.0410432
0.0440734
0.0413607
0.0488183
0.0560293
0.0673586
0.0583988
0.0628687
0.0660383
0.0610219
0.0608055
0.0602779
0.0599829
0.0598395
0.0623949
0.0626126
0.0630284
0.058308
0.057377
0.0609776
0.0589352
0.0630529
0.0710415
0.142993
21.8024
3.38149
1.23614
0.668768
0.439086
0.321755
0.252392
0.20713
0.175376
0.152015
0.133998
0.119892
0.108284
0.0989196
0.0907921
0.0841334
0.0781286
0.073119
0.0685295
0.0646337
0.0610323
0.0581388
0.0551699
0.0536456
0.0523309
0.0503478
0.0484006
0.0462402
0.0443892
0.0429554
0.0414435
0.0419261
0.0384075
0.0404101
0.0388181
0.0385883
0.0389364
0.048814
0.0427946
0.0432153
0.0438714
0.050753
0.0459665
0.052296
0.0467082
0.046706
0.0467956
0.0461269
0.0464177
0.0472391
0.052356
0.0599572
0.144593
0.236791
21.8013
3.38043
1.23468
0.667866
0.438683
0.321559
0.252319
0.207015
0.175363
0.151847
0.134015
0.119638
0.108323
0.0985631
0.0908332
0.0836511
0.0781341
0.0724652
0.0684111
0.063755
0.0606852
0.0570119
0.0554959
0.0556223
0.0604436
0.0785582
0.0769849
0.0780342
0.0769207
0.0754159
0.078359
0.070956
0.0694124
0.0682338
0.0674732
0.0670936
0.0666977
0.0706013
0.0637401
0.0616866
0.0612051
0.0609606
0.071659
0.0615216
0.0637737
0.0693541
0.0698447
0.069163
0.0675453
0.0661682
0.0653694
0.0690185
0.168935
0.251512
21.8012
3.38086
1.23509
0.668129
0.438826
0.321665
0.252383
0.207119
0.175414
0.151986
0.134065
0.119807
0.108392
0.0987357
0.0909419
0.0838344
0.0782625
0.0727457
0.0685296
0.0641897
0.0608879
0.0574668
0.0557395
0.0556782
0.0606429
0.0746946
0.0695706
0.0676198
0.0675692
0.0626152
0.0620004
0.0602415
0.0605523
0.0618041
0.0578964
0.0573009
0.0580009
0.0600232
0.0549331
0.0542782
0.0558077
0.0586434
0.0534136
0.0625173
0.0538171
0.0540483
0.0621666
0.0560972
0.0571308
0.061106
0.06479
0.126072
0.47443
0.319471
21.8009
3.38025
1.23434
0.667648
0.438607
0.321519
0.252351
0.206985
0.175437
0.151793
0.134122
0.119554
0.108445
0.0984629
0.0909283
0.0835622
0.0781595
0.0723672
0.0684001
0.063545
0.0604064
0.0573069
0.056527
0.0715208
0.205094
0.288286
0.180758
0.149226
0.123625
0.10735
0.0960743
0.0910688
0.0821141
0.0792536
0.0757981
0.07505
0.0729107
0.0700626
0.0694121
0.0636666
0.0634359
0.061186
0.0606489
0.0699674
0.0709337
0.0739311
0.0716647
0.0728293
0.0710519
0.068353
0.0653023
0.125914
0.292892
0.390695
21.8008
3.38064
1.23476
0.667934
0.438753
0.321639
0.252394
0.207114
0.175453
0.151963
0.134136
0.119747
0.108499
0.0986215
0.0910789
0.0836388
0.0784404
0.0724275
0.0687227
0.063845
0.0605894
0.0572949
0.0572063
0.0718357
0.166552
0.296523
0.168246
0.135891
0.116665
0.107275
0.0906538
0.0821065
0.0755848
0.0759652
0.067341
0.0661409
0.0643278
0.0633129
0.0616096
0.060884
0.0600361
0.0593912
0.0591578
0.0611836
0.0598476
0.0600492
0.0634725
0.061258
0.0621522
0.0747942
0.0739273
0.398547
0.520444
0.430346
21.7999
3.37961
1.2336
0.667221
0.438432
0.321464
0.252338
0.207
0.175442
0.151818
0.13413
0.119567
0.108468
0.0984291
0.0909812
0.0834513
0.0782388
0.0721903
0.0684325
0.0632901
0.0608814
0.0553034
0.0600421
0.12706
0.240062
0.187494
0.15304
0.131876
0.111793
0.101808
0.0861723
0.0757325
0.0734486
0.0728473
0.0756661
0.073637
0.0728786
0.0718432
0.0728862
0.073834
0.0666092
0.0664811
0.0655884
0.0716953
0.086057
0.0672285
0.0805125
0.0695073
0.0784239
0.0687394
0.0750532
0.110563
0.186935
21.7999
3.38002
1.23382
0.667366
0.438521
0.321566
0.252381
0.207126
0.175468
0.151989
0.134153
0.119771
0.108514
0.0986352
0.09108
0.0836606
0.078387
0.07247
0.068666
0.0636656
0.0612331
0.0568814
0.0566221
0.136755
0.176729
0.172898
0.142322
0.124788
0.108678
0.0979312
0.0852394
0.0807847
0.0751907
0.0739288
0.0739054
0.0775985
0.0705761
0.0725523
0.0726095
0.0733056
0.0730568
0.0745487
0.0801007
0.0837119
0.0849672
0.0789611
0.0785606
0.0779489
0.084941
0.0787528
0.0981596
0.35343
0.340898
21.7998
3.37968
1.23346
0.667125
0.438386
0.321487
0.25231
0.207086
0.17537
0.151987
0.133972
0.119853
0.108187
0.0988593
0.0905565
0.0840363
0.0776772
0.0729098
0.067827
0.0640725
0.0601447
0.05689
0.0553941
0.0577838
0.0934507
0.0693553
0.0633906
0.0584096
0.0544259
0.0494585
0.0475482
0.0493228
0.0588843
0.0647544
0.0831114
0.073205
0.0836474
0.0825298
0.0770486
0.0837415
0.0707576
0.0696505
0.0689333
0.0736257
0.0735157
0.0776587
0.0663587
0.0647145
0.0721103
0.0691952
0.0646867
0.0677258
0.0854134
0.0792584
21.7997
3.38004
1.23369
0.667292
0.438493
0.321582
0.25237
0.207184
0.175431
0.1521
0.134061
0.119964
0.108321
0.0989668
0.0907226
0.0841952
0.0778519
0.0732176
0.0680431
0.064643
0.0604943
0.0578442
0.0554883
0.0585175
0.0860025
0.0661038
0.0625652
0.0588178
0.0561775
0.0523967
0.0502433
0.0524777
0.0572846
0.0763737
0.0648591
0.0661824
0.0694643
0.071199
0.0724219
0.0735582
0.0744215
0.0769634
0.0875685
0.0900326
0.0954384
0.087369
0.0873813
0.085943
0.084809
0.0892385
0.0904952
0.0852851
0.107987
0.0764611
21.7992
3.37926
1.23296
0.666847
0.438272
0.321468
0.252302
0.207117
0.175385
0.152019
0.134028
0.119844
0.108328
0.0987732
0.0908066
0.0838927
0.0779816
0.0728282
0.068045
0.0642009
0.0601178
0.0571979
0.0539646
0.0524202
0.0506823
0.0484295
0.0461835
0.0436031
0.042445
0.0390004
0.0388152
0.0419009
0.055641
0.0654568
0.0849302
0.0831967
0.0913011
0.0904185
0.0901215
0.0855229
0.0832324
0.0809153
0.0799893
0.0761531
0.0808866
0.0735784
0.0797266
0.0717573
0.0706517
0.0755525
0.0677419
0.0661168
0.0799562
0.0757801
21.7993
3.38003
1.23291
0.66677
0.438292
0.321521
0.252382
0.207183
0.175488
0.152094
0.134151
0.119941
0.108455
0.0989026
0.0909498
0.0840503
0.0782896
0.0729866
0.0687779
0.0644154
0.061346
0.0577642
0.0554258
0.0534664
0.0519964
0.0501222
0.0477631
0.0451247
0.0432405
0.0408961
0.0395063
0.0428863
0.0534084
0.064769
0.0844811
0.0687551
0.0718121
0.0799416
0.0921954
0.081495
0.0808047
0.081268
0.0982281
0.0868648
0.098392
0.102234
0.104667
0.0998602
0.099116
0.0963899
0.0928851
0.0832478
0.0900361
0.0827427
21.7993
3.37938
1.23296
0.666837
0.438284
0.321474
0.252338
0.207118
0.175452
0.152006
0.134133
0.119816
0.108468
0.0987391
0.0909821
0.083853
0.0782319
0.072762
0.0684342
0.0641728
0.0605526
0.0573195
0.0540369
0.0520243
0.0492493
0.0474542
0.0451221
0.0429465
0.0412659
0.0387948
0.0408848
0.0394361
0.0470367
0.0619746
0.0863309
0.0858712
0.101054
0.102416
0.106436
0.0963143
0.0970178
0.0975846
0.0903107
0.088119
0.0864949
0.084506
0.0829046
0.0817185
0.0850713
0.0839238
0.0838631
0.0741856
0.0748129
0.0724759
21.7992
3.37984
1.23317
0.666971
0.438381
0.321566
0.252406
0.207217
0.175508
0.152142
0.134171
0.120014
0.10847
0.0990089
0.0909493
0.0841798
0.078232
0.073119
0.068591
0.0645825
0.0609914
0.0579572
0.0548699
0.0529763
0.0505307
0.0486873
0.0467509
0.0443034
0.0425633
0.0406744
0.0376278
0.0413129
0.0412417
0.0659986
0.0551788
0.0602847
0.0748136
0.0863795
0.0932906
0.0970931
0.0968781
0.0966842
0.097117
0.0980095
0.105879
0.0972699
0.0993287
0.0973083
0.0929675
0.0890963
0.0815812
0.0793398
0.0723659
0.0706688
21.799
3.37917
1.23261
0.666654
0.438215
0.321462
0.252349
0.207148
0.175471
0.152071
0.134134
0.119943
0.108427
0.0989473
0.0909033
0.0841255
0.0781595
0.0730506
0.0684231
0.0644425
0.0606679
0.0575631
0.0543136
0.052144
0.0492433
0.0476779
0.0450495
0.0433751
0.0409982
0.0395608
0.0372272
0.0381802
0.0534142
0.0440252
0.0829105
0.0721426
0.0779904
0.085313
0.0915968
0.0914159
0.106229
0.0987411
0.0987024
0.102035
0.103211
0.101222
0.0998445
0.0971474
0.0949321
0.0905305
0.0896746
0.0800818
0.0857091
0.0841708
21.7989
3.37955
1.23289
0.666833
0.438331
0.321562
0.252414
0.207246
0.175528
0.15219
0.134202
0.120072
0.108528
0.0990634
0.0910517
0.0842308
0.07835
0.0731876
0.0686507
0.0646332
0.0610048
0.0577747
0.054934
0.0523274
0.0502829
0.0480882
0.046576
0.0441347
0.0424202
0.0404886
0.0377787
0.0387457
0.0455542
0.0492759
0.0731846
0.0574229
0.0630642
0.0890535
0.0992762
0.087026
0.10358
0.0901589
0.0906106
0.0995761
0.102729
0.0992619
0.091146
0.0829642
0.0706728
0.0632662
0.0609871
0.056644
0.0596762
0.0629974
21.7992
3.37941
1.23278
0.666726
0.438267
0.321492
0.252378
0.207169
0.175512
0.152092
0.134201
0.119961
0.108534
0.0989573
0.0910662
0.0841226
0.0783983
0.0730487
0.0687335
0.0645224
0.0610091
0.0578289
0.0547361
0.0524465
0.0498656
0.0480279
0.0458612
0.0442289
0.0415934
0.0403322
0.039021
0.0379615
0.0418908
0.0528383
0.0622746
0.0878816
0.108455
0.107625
0.126397
0.0948226
0.113542
0.119476
0.118224
0.113312
0.112841
0.102695
0.100394
0.096259
0.0891787
0.0766708
0.0683125
0.0581653
0.0611433
0.0649323
21.7992
3.37974
1.23305
0.666908
0.43838
0.321579
0.252449
0.207248
0.175583
0.15219
0.134277
0.120088
0.108607
0.0991219
0.0911163
0.0843498
0.0784106
0.0733522
0.0687543
0.064828
0.061155
0.0581103
0.0549837
0.0528507
0.0501002
0.0486395
0.0462931
0.0449244
0.0425953
0.041065
0.0394443
0.0369691
0.0367426
0.0374325
0.0546351
0.0425004
0.045395
0.0633679
0.0653834
0.0807987
0.064719
0.0649399
0.064658
0.0743964
0.0740743
0.0669411
0.058704
0.0519429
0.0460766
0.043457
0.0409937
0.0419808
0.0566823
0.0730499
21.7992
3.37925
1.23271
0.666723
0.438266
0.321515
0.252385
0.207216
0.175513
0.152173
0.134193
0.120082
0.108518
0.09912
0.0910488
0.0843296
0.0783929
0.073294
0.0687738
0.0647711
0.0611592
0.0580776
0.0549632
0.0527977
0.0500647
0.0484643
0.0462487
0.0445639
0.0426595
0.0404047
0.0393912
0.0366616
0.0357465
0.0408661
0.0499494
0.0386144
0.0404698
0.0474556
0.0670113
0.0601537
0.0698525
0.0847777
0.0630264
0.0754058
0.0759137
0.0669485
0.0574899
0.0506546
0.0450461
0.0417991
0.0396905
0.0413246
0.0541024
0.072221
21.7991
3.37963
1.23297
0.666895
0.43838
0.321593
0.252461
0.207282
0.175594
0.152254
0.134278
0.120193
0.108592
0.0992683
0.0911113
0.0844944
0.0784974
0.0734255
0.0689924
0.0648651
0.0615009
0.0581581
0.0554999
0.0528762
0.0505535
0.0484637
0.046538
0.044663
0.0429641
0.0415728
0.0388594
0.0381599
0.0356581
0.0347725
0.0340478
0.0362624
0.0334139
0.0336124
0.0354634
0.0347085
0.0356551
0.0365797
0.0407873
0.0449845
0.0445552
0.0423621
0.0399166
0.0390365
0.036877
0.0371638
0.0387239
0.0445191
0.0893675
0.13556
21.7995
3.37948
1.23288
0.666824
0.438319
0.321537
0.252411
0.207221
0.175556
0.152171
0.134267
0.12007
0.108632
0.099103
0.0911965
0.0843357
0.0785536
0.0733538
0.0689571
0.064833
0.0614662
0.05802
0.0554602
0.0526097
0.0505832
0.0482784
0.0464815
0.0446843
0.0428483
0.0412939
0.0394744
0.0379839
0.0374285
0.0348461
0.034302
0.0337292
0.0335652
0.0387617
0.0381268
0.0358677
0.035863
0.0432147
0.0380861
0.0421359
0.0417919
0.0399975
0.0382993
0.0372533
0.0358605
0.0347257
0.0357501
0.0413086
0.0901476
0.128012
21.7995
3.37986
1.23325
0.66705
0.438445
0.321627
0.25248
0.2073
0.175622
0.152266
0.13434
0.120188
0.108702
0.0992566
0.0912417
0.0845417
0.0785638
0.0736226
0.0689547
0.0651377
0.061526
0.0583007
0.0556386
0.0529458
0.0508017
0.0484551
0.0465546
0.0447851
0.0428582
0.0415188
0.0396621
0.0381097
0.0370594
0.0353803
0.0364182
0.032884
0.0324343
0.032185
0.0326319
0.0325089
0.0377009
0.0352742
0.0379987
0.0386552
0.0377362
0.0372491
0.0364403
0.0363027
0.034715
0.0346034
0.0396224
0.0569651
0.179531
0.203157
21.7996
3.37956
1.23288
0.666826
0.438329
0.321549
0.252428
0.20724
0.175581
0.152201
0.134307
0.120111
0.108691
0.0991571
0.0912802
0.0844048
0.0786699
0.0734453
0.0691053
0.0649814
0.0615998
0.0582762
0.0555704
0.0528793
0.050767
0.0486061
0.0466158
0.0449796
0.0430649
0.0414236
0.0397245
0.0381368
0.0363828
0.0351939
0.0343673
0.0341087
0.0342894
0.0323352
0.0324452
0.0321249
0.0359215
0.0334032
0.0363025
0.036912
0.0367961
0.0363063
0.0360251
0.0350922
0.0340166
0.0330344
0.0358164
0.0509827
0.162374
0.198168
21.7996
3.37986
1.23322
0.667052
0.438458
0.321636
0.252494
0.207314
0.175643
0.152291
0.13437
0.120227
0.108749
0.0992999
0.0913261
0.084576
0.0787018
0.0736606
0.0691001
0.0652727
0.0615199
0.0586664
0.055452
0.0532473
0.050897
0.0486369
0.0467498
0.0445828
0.0432681
0.0415585
0.0401141
0.0388603
0.0368741
0.0351599
0.0346884
0.0324744
0.0319417
0.031384
0.0309722
0.0308477
0.0308798
0.0312293
0.0326866
0.0352558
0.0335504
0.0346293
0.0347081
0.0345912
0.0328515
0.0340643
0.0364459
0.103602
0.38089
0.258675
21.8
3.37975
1.23316
0.666991
0.438398
0.321577
0.252443
0.207255
0.175595
0.152225
0.134325
0.120153
0.108712
0.0992233
0.0913009
0.0845074
0.0786862
0.0736096
0.0690873
0.0652565
0.0614848
0.0586998
0.0554067
0.0532588
0.050864
0.0486774
0.0466596
0.0446798
0.0431848
0.0415321
0.0404032
0.038822
0.0376794
0.0358292
0.034756
0.0330298
0.0325293
0.0320444
0.0317236
0.0315652
0.0328548
0.0312767
0.0317025
0.0336348
0.03278
0.0338487
0.0340168
0.0330332
0.0326893
0.0341813
0.039267
0.056953
0.207033
0.24408
21.7999
3.38011
1.23346
0.667184
0.438514
0.321658
0.252507
0.207323
0.175659
0.152306
0.134397
0.120252
0.108789
0.0993356
0.0913847
0.084623
0.0787909
0.0737073
0.0692452
0.0652849
0.0617471
0.0586146
0.0557265
0.0532439
0.0508945
0.0489346
0.0470304
0.04531
0.044413
0.0410855
0.0404279
0.039049
0.0385204
0.036742
0.0357635
0.0352061
0.033497
0.034053
0.0325619
0.0325519
0.0336574
0.035646
0.0334452
0.0347353
0.035188
0.0350935
0.0338048
0.0343066
0.0330492
0.0373203
0.0431823
0.155241
0.428057
0.47822
21.8002
3.37989
1.23327
0.667065
0.438435
0.321596
0.252455
0.207269
0.17561
0.152249
0.134348
0.120189
0.108744
0.0992745
0.0913459
0.0845739
0.0787588
0.0736769
0.0692257
0.0652721
0.0617512
0.0585959
0.0557601
0.0532093
0.050961
0.0488557
0.0471067
0.0453507
0.0440016
0.0425818
0.0415305
0.0404146
0.0395028
0.0386242
0.0378558
0.0372576
0.0367373
0.0364157
0.0360391
0.0359075
0.0353957
0.0356352
0.0350644
0.0348902
0.0343013
0.0333642
0.0329297
0.0337894
0.0345527
0.0423636
0.0552629
0.0981965
0.143189
0.143443
21.8002
3.38021
1.23358
0.667265
0.438551
0.321673
0.252515
0.207333
0.17567
0.152324
0.134416
0.120282
0.108816
0.0993802
0.0914181
0.0846878
0.0788321
0.0737943
0.0692978
0.0653844
0.0618191
0.0586918
0.0558226
0.0533036
0.0509729
0.0489628
0.0470725
0.0454669
0.0439615
0.0426854
0.0414829
0.0405013
0.0395841
0.0388227
0.0381595
0.0375825
0.0371622
0.0366509
0.0365036
0.0361218
0.0356937
0.0354523
0.0352625
0.0346729
0.0340115
0.0339356
0.0334047
0.0366495
0.0381411
0.0528995
0.069415
0.0981443
0.201521
0.202807
21.8005
3.38007
1.23354
0.667232
0.438508
0.321622
0.252464
0.207273
0.175615
0.152256
0.134359
0.120204
0.108763
0.0992995
0.091374
0.0846104
0.0788001
0.0737263
0.0692811
0.0653283
0.061812
0.0586437
0.0558118
0.0532394
0.0509626
0.0488901
0.0470596
0.0454163
0.0439532
0.0426602
0.0414971
0.0404885
0.0395707
0.0387746
0.0380572
0.0374135
0.0368569
0.0363505
0.0358916
0.0354174
0.0349123
0.0344198
0.0338994
0.0331776
0.03288
0.0326777
0.0343845
0.0361951
0.0465254
0.0729357
0.139614
0.239067
0.266819
0.284301
21.8004
3.38041
1.23379
0.667394
0.438609
0.321694
0.252523
0.207335
0.175677
0.152327
0.134431
0.120288
0.108844
0.0993919
0.0914609
0.0847079
0.0788905
0.0738266
0.0693722
0.0654319
0.0619041
0.0587642
0.0559126
0.0533874
0.0510915
0.0490524
0.047212
0.0455772
0.0441132
0.0428206
0.0416478
0.0406302
0.0397058
0.038904
0.0382098
0.037598
0.037044
0.0365531
0.0360131
0.0356116
0.035062
0.034672
0.0341451
0.0332832
0.0330748
0.0341077
0.039057
0.0427558
0.0627227
0.0980878
0.161768
0.226514
0.24811
0.255374
21.8004
3.38017
1.23359
0.667264
0.438528
0.321639
0.252476
0.20729
0.175631
0.15228
0.134381
0.120237
0.108792
0.0993415
0.0914137
0.084663
0.0788542
0.0737915
0.0693545
0.0654087
0.0619073
0.058737
0.0559234
0.0533518
0.0510923
0.0489995
0.0471949
0.0454901
0.0440581
0.0426795
0.0415429
0.0404609
0.0395159
0.0387031
0.0378579
0.0372726
0.0365001
0.0359881
0.0353146
0.0347697
0.0341087
0.0335155
0.0327817
0.0323598
0.0335944
0.033952
0.0461697
0.0475732
0.0896045
0.120142
0.313641
0.353162
0.413174
0.357525
21.8004
3.38046
1.23383
0.667423
0.438627
0.321707
0.252534
0.207349
0.17569
0.152347
0.134449
0.120316
0.108866
0.0994273
0.0914899
0.0847513
0.0789304
0.0738779
0.0694274
0.0654889
0.0619785
0.058816
0.0560074
0.0534412
0.0511883
0.0491052
0.0473067
0.0456126
0.0441961
0.0428264
0.0417258
0.0406123
0.0397515
0.0388529
0.0381433
0.037439
0.0367729
0.0362131
0.0355445
0.0350667
0.0342406
0.0340975
0.0322799
0.0325334
0.0341509
0.0377149
0.0621887
0.0775823
0.138719
0.127678
0.287319
0.348287
0.367848
0.38543
21.7989
3.37916
1.23231
0.666396
0.438012
0.321287
0.252186
0.207024
0.175369
0.152024
0.134124
0.119985
0.10854
0.0990909
0.0911702
0.0844192
0.0786355
0.073583
0.0692046
0.0652945
0.0618882
0.0587826
0.0560881
0.0535823
0.0514322