/*--------------------------------*- C++ -*----------------------------------*\
| =========                 |                                                 |
| \\      /  F ield         | OpenFOAM: The Open Source CFD Toolbox           |
|  \\    /   O peration     | Version:  4.1                                   |
|   \\  /    A nd           | Web:      www.OpenFOAM.org                      |
|    \\/     M anipulation  |                                                 |
\*---------------------------------------------------------------------------*/
FoamFile
{
    version     2.0;
    format      ascii;
    class       volVectorField;
    location    "31";
    object      U;
}
// * * * * * * * * * * * * * * * * * * * * * * * * * * * * * * * * * * * * * //

dimensions      [0 1 -1 0 0 0 0];

internalField   nonuniform List<vector> 
4432
(
(39.9823 0.00198157 0.0530719)
(39.8891 0.0023206 0.0953492)
(39.8186 0.00876981 0.128376)
(39.7253 0.0125851 0.162828)
(39.5868 0.0142406 0.199705)
(39.4039 0.0144679 0.238397)
(39.1816 0.0136211 0.277855)
(38.925 0.012153 0.316008)
(38.6388 0.0105098 0.351017)
(38.3288 0.00901037 0.380552)
(37.9986 0.00776161 0.401326)
(37.6535 0.00691901 0.4133)
(37.2871 0.00493128 0.412811)
(36.9176 0.00334528 0.403995)
(36.4686 -0.00626808 0.387987)
(36.108 -0.00524076 0.336019)
(35.722 -0.0120704 0.413214)
(35.5393 -0.0146331 0.34119)
(35.431 -0.0149267 0.301949)
(35.1965 -0.00404515 0.552842)
(34.7564 -0.00982761 0.651896)
(34.2947 0.0088548 0.77285)
(33.9613 -0.0309101 0.852598)
(33.4096 -0.0888529 0.804579)
(32.6484 -0.0808948 0.778396)
(31.8937 -0.0385907 0.69798)
(31.3209 -0.0279086 0.499855)
(30.9499 -0.0469379 0.271958)
(30.7257 -0.0455533 0.0731382)
(31.3225 0.00259944 -0.399574)
(32.8911 0.00573816 -1.13624)
(36.4938 0.0561389 -2.19643)
(40.8463 0.210705 -3.04674)
(44.7778 0.388496 -3.05906)
(47.7921 0.522565 -2.90561)
(49.9638 0.653253 -2.22365)
(52.4632 0.812975 -0.720461)
(52.8065 0.236217 -0.0755237)
(51.0488 -0.0346427 0.382511)
(49.052 0.121647 0.736983)
(47.8435 0.306765 0.444493)
(47.3676 0.491831 0.21142)
(47.6076 0.368918 0.374545)
(46.9174 0.220595 1.05546)
(45.7266 0.25729 1.78797)
(42.88 0.794897 2.03384)
(38.2209 1.41821 3.52832)
(36.2821 1.08485 4.3649)
(29.6108 0.723189 4.17612)
(24.4699 -0.24058 4.07359)
(3.64054 0.0818664 1.2296)
(31.7671 -1.25023 0.686993)
(29.7305 -3.13684 -5.48329)
(54.1121 -2.56161 -8.08748)
(39.9854 0.0019814 0.0530395)
(39.894 0.00232298 0.0955308)
(39.8215 0.00877594 0.128347)
(39.7233 0.0125996 0.162398)
(39.5824 0.0142686 0.198612)
(39.3988 0.0145076 0.23647)
(39.1777 0.0136731 0.274772)
(38.9238 0.012214 0.31157)
(38.6419 0.0105746 0.345259)
(38.337 0.00907592 0.373346)
(38.0121 0.00782404 0.393352)
(37.6699 0.0069705 0.404674)
(37.3073 0.00498699 0.405131)
(36.9214 0.00333242 0.396714)
(36.4926 -0.00598359 0.383497)
(36.0572 -0.00570413 0.344057)
(35.6307 -0.012498 0.383054)
(35.4692 -0.0136693 0.316817)
(35.3702 -0.0158771 0.334594)
(35.1536 -0.00535381 0.575851)
(34.7776 -0.0102381 0.622921)
(34.2681 0.00841207 0.638875)
(33.7995 -0.0247209 0.731607)
(33.1924 -0.0892282 0.754949)
(32.5061 -0.093923 0.696711)
(31.6185 -0.0469976 0.509148)
(30.776 -0.0191252 0.343512)
(30.2706 -0.0451979 0.241013)
(30.1433 -0.0460506 -0.0480459)
(30.2608 0.00109753 -0.385064)
(31.1363 -0.00543017 -0.801702)
(33.3362 0.0303256 -1.35712)
(37.4792 0.227914 -2.20227)
(41.9289 0.323616 -1.9815)
(46.2856 0.459148 -1.33)
(48.5848 0.605158 -0.860772)
(50.2045 0.874962 0.0549295)
(49.3752 0.34256 0.982117)
(48.132 0.0468153 1.69185)
(46.2741 0.178683 2.04545)
(45.3099 0.33699 1.79226)
(45.0136 0.557445 1.43367)
(45.3998 0.452716 1.57466)
(45.4653 0.326775 2.22415)
(45.7591 0.38172 2.82781)
(44.8578 0.853847 2.17521)
(40.802 1.48102 2.66164)
(39.319 1.22931 3.46145)
(35.2437 0.8333 3.37247)
(30.2253 0.10143 2.98574)
(18.7936 -0.60836 -0.183342)
(27.7389 0.680566 -2.33601)
(41.575 -0.50222 -7.68706)
(63.3021 -2.13653 -12.8359)
(40.0166 0.00198226 0.0225064)
(40.0083 0.00208759 0.0740997)
(40.06 0.00827211 0.114148)
(40.1216 0.0119186 0.154888)
(40.1761 0.0133562 0.195923)
(40.2241 0.0132082 0.237467)
(40.2673 0.0118004 0.278717)
(40.3043 0.00956315 0.318874)
(40.3316 0.00702265 0.357265)
(40.3455 0.00458902 0.393214)
(40.34 0.00257278 0.426415)
(40.3106 0.00130457 0.454958)
(40.2481 -0.00044113 0.483329)
(40.1601 -0.000911565 0.490923)
(39.9772 -0.00693003 0.558835)
(39.8846 -0.00830708 0.299153)
(39.2632 0.0103761 0.487739)
(38.7563 0.00220923 0.323036)
(37.8654 4.3333e-05 0.340876)
(37.3292 -0.00115693 0.339799)
(37.1497 0.00423892 0.413)
(37.0709 0.000656987 0.507319)
(36.845 -0.00718681 0.580006)
(36.5008 -0.00333878 0.745822)
(36.1097 0.00177465 0.92719)
(35.6848 -0.0143395 0.934171)
(35.2729 -0.0326538 0.683812)
(34.7944 -0.0665392 0.261648)
(35.1262 -0.149167 -0.539742)
(36.6405 -0.174329 -2.02133)
(39.3921 -0.110018 -3.97897)
(42.9352 0.0289117 -5.60411)
(45.7899 0.146721 -5.75836)
(47.6783 0.184092 -4.75476)
(49.3538 0.101734 -3.14164)
(50.1431 -0.0337046 -1.58359)
(50.1891 -0.398102 0.305101)
(48.9853 -0.64871 1.78168)
(48.2268 -0.664692 1.97296)
(47.7028 -0.347992 1.56967)
(47.0585 0.0185225 0.76581)
(46.7083 -0.0299501 0.130113)
(47.7961 -0.271454 0.286664)
(49.3284 -0.53401 0.859133)
(50.9104 -0.657994 1.87153)
(52.2074 -0.713352 2.21607)
(52.6216 -0.868761 4.33698)
(53.7999 -0.889717 6.24011)
(53.5474 -1.80367 8.21513)
(45.3144 -0.902158 8.99119)
(38.762 -2.07179 17.3105)
(5.11303 -4.29461 -8.50963)
(-60.085 -4.13813 -31.6257)
(-6.33673 -2.48139 -22.7456)
(40.0196 0.00198195 0.0224488)
(40.0127 0.00209126 0.0743573)
(40.0613 0.00827694 0.114126)
(40.1164 0.0119251 0.154461)
(40.1653 0.0133637 0.194902)
(40.2081 0.0132161 0.235629)
(40.2464 0.0118078 0.275866)
(40.279 0.00956725 0.314894)
(40.3022 0.00703333 0.352121)
(40.3129 0.00456934 0.386949)
(40.3046 0.0026122 0.419616)
(40.2733 0.00126565 0.44781)
(40.2107 -0.000452361 0.474618)
(40.1136 -0.00102876 0.494926)
(39.9536 -0.00742322 0.523306)
(39.7193 0.00253754 0.534996)
(39.2873 0.010755 0.544602)
(38.8112 -0.0014026 0.312837)
(37.8783 -0.00129068 0.349916)
(37.3149 -0.0018882 0.321733)
(37.1264 0.00425264 0.362606)
(37.0248 0.00105519 0.503832)
(36.8122 -0.00668354 0.61977)
(36.4493 -0.00312502 0.708574)
(35.9906 0.00196198 0.785896)
(35.3925 -0.0135151 0.823795)
(34.6407 -0.0259644 0.745908)
(34.0342 -0.0656329 0.349964)
(33.9549 -0.147722 -0.379503)
(34.1157 -0.186663 -1.20371)
(36.4714 -0.132206 -2.74915)
(40.3437 0.014023 -4.65439)
(44.5355 0.143812 -5.06799)
(46.7722 0.197386 -4.5702)
(48.7739 0.114223 -3.36255)
(49.818 0.05342 -1.72634)
(50.2594 -0.372646 -0.0678519)
(49.6239 -0.672588 1.55658)
(48.7384 -0.692446 2.36892)
(47.6995 -0.511907 2.61421)
(47.5418 -0.126638 1.08434)
(47.3854 -0.0693544 -0.340878)
(48.179 -0.266926 -0.463677)
(48.7302 -0.404419 0.19195)
(49.4925 -0.501522 1.1952)
(50.3966 -0.69925 0.664838)
(50.3324 -0.960198 1.58101)
(51.6311 -1.19675 3.75431)
(51.1929 -1.31742 5.92622)
(45.7057 -1.17263 8.98488)
(50.1612 -3.51431 13.9673)
(27.6938 -1.71332 10.8438)
(-64.7425 -2.94396 -30.5814)
(-23.7062 -3.13055 -37.3461)
(40.0048 0.00196088 0.0291531)
(39.9598 0.00215072 0.108745)
(39.9526 0.00832981 0.148477)
(39.9397 0.0118882 0.185299)
(39.9048 0.0132172 0.22148)
(39.849 0.0129747 0.258615)
(39.776 0.0115056 0.297129)
(39.6879 0.00927523 0.337768)
(39.586 0.00680131 0.381652)
(39.4711 0.00453913 0.430075)
(39.3415 0.00275804 0.48432)
(39.1961 0.00180871 0.545538)
(39.0287 0.00145978 0.613627)
(38.8479 0.00116852 0.690787)
(38.6109 -0.000443111 0.787855)
(38.4295 -0.00604222 0.913345)
(37.9055 -0.00286719 1.14901)
(38.0579 -0.0100985 0.904801)
(37.6595 0.00222753 0.834057)
(37.4982 0.0076402 0.724613)
(37.4626 0.00639065 0.678241)
(37.3702 0.00332965 0.749923)
(37.1626 -0.00127446 0.940048)
(36.8168 -0.00508068 1.19718)
(36.3598 -0.00900751 1.4)
(35.7216 -0.023419 1.46134)
(34.922 -0.0640532 1.3037)
(34.2001 -0.139772 0.600579)
(34.2295 -0.235162 -1.06067)
(35.6707 -0.168142 -3.74309)
(37.3968 -0.00178597 -6.61081)
(39.3014 0.100091 -8.09489)
(40.1117 0.266809 -7.64347)
(39.8174 0.472529 -6.34885)
(39.2209 0.639121 -4.9924)
(38.7803 0.311459 -3.26241)
(37.6729 -0.164809 0.231977)
(36.2439 -0.765136 2.24959)
(34.4819 -0.996815 3.19453)
(34.3003 -0.684441 2.12617)
(35.1258 -0.389515 1.11296)
(34.3964 -0.373321 0.936493)
(34.8524 -0.511281 1.184)
(36.312 -0.680636 2.34468)
(37.8886 -1.06237 2.96801)
(40.1259 -1.60102 4.2082)
(42.6649 -2.43508 5.98666)
(45.8032 -3.10291 7.99931)
(48.2592 -3.45881 9.52614)
(51.9721 -2.73205 11.3355)
(61.6944 -2.82935 19.2212)
(76.2219 -4.44582 24.9552)
(71.5257 -5.63551 21.5881)
(59.6306 -9.65711 -4.1868)
(40.0078 0.0019606 0.0290948)
(39.9645 0.00215426 0.108989)
(39.9546 0.00833438 0.148425)
(39.9359 0.0118945 0.185083)
(39.8967 0.013225 0.221197)
(39.8378 0.0129833 0.25832)
(39.7626 0.0115146 0.296859)
(39.6731 0.00928471 0.337583)
(39.5708 0.00680987 0.381566)
(39.4561 0.00454654 0.430168)
(39.3271 0.00276691 0.484611)
(39.1825 0.00181262 0.545972)
(39.0154 0.00145345 0.615012)
(38.8308 0.0011942 0.69457)
(38.5966 -0.000633403 0.793474)
(38.3857 -0.00510656 0.931988)
(37.9722 -0.00318438 1.1041)
(38.023 -0.00848833 0.983958)
(37.6275 0.00158416 0.87952)
(37.4655 0.00746631 0.752471)
(37.4231 0.00678985 0.684328)
(37.3166 0.0038986 0.745977)
(37.0825 -0.000892422 0.938011)
(36.6756 -0.00564949 1.21036)
(36.1567 -0.00992787 1.4251)
(35.3459 -0.0248679 1.57729)
(34.3336 -0.0680568 1.49841)
(33.3072 -0.14896 0.880538)
(32.6681 -0.253897 -0.405546)
(33.0925 -0.202789 -2.82755)
(35.5908 0.00220764 -6.21563)
(38.3071 0.109882 -8.0711)
(39.4075 0.291644 -7.84508)
(40.3639 0.506108 -6.67456)
(41.0266 0.641451 -5.04525)
(41.5859 0.802339 -2.32806)
(40.7718 0.386081 -0.24224)
(38.3417 -0.317914 1.30656)
(36.6956 -0.612499 1.82949)
(34.2488 -0.718295 2.72271)
(34.7793 -0.0128686 1.47315)
(30.2834 0.00815924 -0.394184)
(31.454 -0.286114 -1.05498)
(32.0773 -0.49452 -1.01058)
(31.1708 -0.970103 -0.364415)
(29.8603 -2.01938 0.841885)
(27.1452 -2.87472 2.51688)
(26.1249 -2.65884 5.57572)
(27.3524 -2.07754 6.27299)
(37.8465 -2.53522 4.72077)
(52.5659 -2.15692 10.4451)
(75.7797 -3.00062 22.9883)
(78.5813 -4.49851 30.8711)
(61.6887 -5.50242 -8.04469)
(40.0044 0.00192711 0.0370813)
(39.9603 0.00234847 0.150222)
(39.9538 0.00821941 0.208932)
(39.9437 0.0116636 0.269495)
(39.912 0.01297 0.332679)
(39.8584 0.0127231 0.399039)
(39.7857 0.0112393 0.468306)
(39.6954 0.00897476 0.540644)
(39.5884 0.00643864 0.616556)
(39.4649 0.00408839 0.696595)
(39.3237 0.00221306 0.781369)
(39.163 0.0011092 0.871595)
(38.9802 0.000855739 0.966781)
(38.781 0.00153216 1.07109)
(38.5647 0.00205242 1.18711)
(38.3643 0.00394907 1.33412)
(38.1643 -0.00220768 1.47828)
(38.0578 -0.00699009 1.19307)
(37.5552 0.00548451 0.940523)
(37.3165 0.00898219 0.759224)
(37.2361 0.00663799 0.709023)
(37.1205 0.00495093 0.855934)
(36.8731 0.0048637 1.19639)
(36.4922 -0.00393497 1.62488)
(35.9745 -0.02045 2.03335)
(35.1433 -0.0463529 2.37605)
(34.018 -0.0969025 2.44202)
(32.9952 -0.130304 1.52739)
(32.295 -0.142254 -0.797408)
(32.5318 -0.0725673 -4.64758)
(32.8951 0.0422825 -7.83728)
(32.4721 0.107107 -8.42116)
(31.2246 0.209264 -7.23765)
(29.5554 0.358431 -5.91591)
(28.4264 0.290745 -4.47773)
(28.0735 -0.173395 -1.52169)
(27.4046 -1.13917 1.18331)
(26.1106 -1.84578 5.51065)
(28.1472 -2.73822 4.11707)
(29.5437 -2.17222 3.70744)
(30.9385 -0.657836 1.55406)
(30.5893 -0.0852939 1.60801)
(29.4765 0.281219 1.04653)
(29.5699 -0.0864143 2.80571)
(29.6768 -0.751902 4.50417)
(30.8547 -1.63848 5.99213)
(32.0089 -2.69598 6.66913)
(33.492 -2.72906 6.85738)
(36.3117 -3.22383 6.3748)
(40.0938 -2.82528 5.91147)
(48.7402 -1.7225 7.15306)
(59.3178 -3.17503 9.56241)
(72.3961 -5.67362 6.99194)
(75.1958 -6.23356 -5.22446)
(40.0073 0.00192684 0.0369985)
(39.9647 0.0023518 0.150277)
(39.9556 0.00822388 0.208832)
(39.94 0.0116698 0.269288)
(39.9042 0.0129775 0.332436)
(39.8475 0.0127313 0.398798)
(39.7727 0.011248 0.468086)
(39.6812 0.00898345 0.540448)
(39.5739 0.00644724 0.616373)
(39.451 0.00409699 0.696382)
(39.3109 0.00221977 0.781079)
(39.1518 0.00111606 0.871088)
(38.9707 0.000861957 0.966451)
(38.7722 0.00153435 1.07162)
(38.5562 0.0020592 1.19317)
(38.3513 0.00397652 1.35218)
(38.1279 -0.00127948 1.51783)
(38.0428 -0.00647504 1.34641)
(37.5509 0.00498001 1.00545)
(37.2969 0.00914594 0.786503)
(37.1979 0.00733953 0.720807)
(37.0545 0.00611174 0.865215)
(36.7493 0.00576315 1.22981)
(36.4083 -0.00468685 1.64918)
(35.8598 -0.0210201 2.07073)
(34.9083 -0.0473467 2.51008)
(33.6747 -0.100306 2.62305)
(32.5238 -0.13442 1.70432)
(31.8302 -0.136735 -0.592421)
(31.9954 -0.0651831 -4.46371)
(32.7726 0.0450378 -7.81955)
(32.5726 0.102289 -8.32138)
(31.5927 0.179222 -6.78885)
(30.1807 0.369835 -4.90865)
(29.451 0.510226 -3.73735)
(29.9553 0.421501 -0.507966)
(28.3809 -0.491583 2.47082)
(25.7167 -1.73713 3.4236)
(25.3218 -2.67303 3.74745)
(21.1214 -1.61643 6.8668)
(27.8324 -0.265788 3.77297)
(24.462 0.271487 1.11628)
(21.9976 0.185357 -1.37286)
(22.4177 -0.744003 -1.45962)
(19.876 -1.73669 2.02037)
(15.3132 -2.58519 0.166126)
(11.2524 -0.87027 0.0872751)
(9.52818 2.39065 -3.23561)
(11.6353 3.5568 -6.25059)
(12.9826 3.45174 -9.3632)
(24.1516 0.864863 -8.99171)
(27.9325 -1.95978 -3.9484)
(53.688 -6.37404 -3.03592)
(27.6867 0.599232 -16.4194)
(40.0045 0.0018798 0.0456331)
(39.9614 0.00225277 0.192709)
(39.9564 0.00827091 0.26617)
(39.9472 0.0117092 0.340265)
(39.9165 0.0129757 0.415748)
(39.8644 0.012695 0.493604)
(39.7941 0.0111949 0.574072)
(39.7072 0.0089277 0.658092)
(39.6051 0.00640144 0.746949)
(39.4882 0.00404833 0.841927)
(39.3552 0.00214568 0.944131)
(39.2038 0.000946804 1.05426)
(39.0324 0.000739781 1.17206)
(38.8441 0.0017678 1.29713)
(38.6547 0.00502486 1.43021)
(38.481 0.00915748 1.57866)
(38.3507 0.0118683 1.73175)
(38.1796 0.0114014 1.86095)
(37.6992 0.028463 1.26986)
(37.1918 0.00692051 1.00371)
(36.9071 -0.0030145 0.87297)
(36.6546 -0.00480741 1.02936)
(36.3366 0.0128841 1.5135)
(35.8866 0.0122063 2.13042)
(35.3791 -0.0148094 2.7634)
(34.4611 -0.0322714 3.45918)
(33.2576 -0.0530136 3.68584)
(31.961 -0.0438024 2.56805)
(30.7518 -0.00389836 -0.375099)
(29.6053 0.0248668 -4.32626)
(28.0652 0.0465431 -6.68654)
(25.9705 0.0860471 -6.60834)
(23.6204 0.166901 -5.48638)
(21.618 0.305224 -4.85483)
(20.7497 0.458035 -4.20683)
(19.3589 -0.118555 -0.703424)
(19.3936 -1.68164 6.82234)
(18.0291 -1.84806 9.01403)
(19.723 -3.28575 6.71846)
(24.5657 -3.45832 4.64171)
(28.0367 -0.905884 0.410555)
(27.1712 0.120549 0.699073)
(25.144 1.03044 1.48225)
(24.4968 0.552164 3.09988)
(23.9888 -0.337469 5.48452)
(24.406 -0.916244 7.06962)
(24.8389 -0.829811 6.48753)
(26.6362 -0.273658 5.27147)
(26.7101 0.21753 4.9818)
(21.8107 0.127868 0.901287)
(20.6429 0.0613096 1.96922)
(24.1955 -4.34457 3.42481)
(37.5301 -3.81024 1.51963)
(36.0088 5.08064 -2.80637)
(40.0074 0.00187953 0.0455339)
(39.966 0.00225609 0.19291)
(39.9584 0.00827528 0.266034)
(39.9435 0.0117153 0.339924)
(39.9087 0.0129832 0.415338)
(39.8536 0.0127033 0.493217)
(39.7811 0.0112035 0.573787)
(39.6931 0.0089363 0.657965)
(39.5907 0.00640976 0.747015)
(39.4743 0.00405677 0.842143)
(39.3423 0.00215227 0.944379)
(39.1925 0.00095333 1.05434)
(39.023 0.000743283 1.17172)
(38.8389 0.00178511 1.29696)
(38.6497 0.00503681 1.43205)
(38.4882 0.00904532 1.57707)
(38.3287 0.0116481 1.73148)
(38.2695 0.0118946 1.75831)
(37.8064 0.0355376 1.38289)
(37.2246 0.00812007 1.1089)
(36.8734 -0.00350235 0.956963)
(36.5206 -0.00441282 1.13918)
(36.1594 0.0145698 1.59573)
(35.8679 0.00942323 2.11111)
(35.2648 -0.0158353 2.79926)
(34.3228 -0.0349912 3.50512)
(33.2227 -0.0519519 3.5396)
(32.0061 -0.0379387 2.32082)
(30.9148 -0.00142165 -0.52157)
(29.8273 0.0237276 -4.28737)
(28.3576 0.0442205 -6.65353)
(26.3791 0.0817303 -6.57816)
(24.3751 0.150498 -5.22836)
(22.9392 0.312888 -4.20182)
(22.4393 0.740115 -3.8436)
(22.1923 -0.302114 0.308775)
(21.445 -0.843487 3.2255)
(20.5253 -0.72522 2.38478)
(19.5243 -2.08796 2.32613)
(18.453 -2.20228 5.64455)
(24.637 -0.399763 2.20215)
(21.4864 0.167738 0.461509)
(14.2955 0.855583 1.19407)
(12.9888 -0.43734 2.02687)
(11.0042 -1.80811 1.88436)
(9.45294 -1.09755 -0.00144758)
(9.43137 2.01879 -1.73684)
(10.7145 4.56796 -3.62107)
(11.6548 5.47686 -4.42579)
(10.5851 4.1985 -8.01152)
(16.5167 0.072132 -3.27148)
(0.692217 -4.70261 -6.19951)
(-45.7882 6.03285 -9.17687)
(33.6563 3.85735 -8.26846)
(40.0046 0.00183012 0.0539279)
(39.9646 0.00260926 0.234844)
(39.9601 0.00813247 0.322044)
(39.952 0.0113527 0.410228)
(39.9237 0.0125604 0.500925)
(39.8751 0.012293 0.595527)
(39.8094 0.010858 0.694446)
(39.7281 0.00869421 0.798725)
(39.6329 0.00629667 0.909638)
(39.5239 0.00404554 1.02824)
(39.3996 0.00218485 1.15514)
(39.2569 0.000902322 1.29034)
(39.0934 0.000318338 1.43237)
(38.9123 0.00122653 1.57905)
(38.7248 0.00324575 1.72517)
(38.5577 0.00816094 1.87552)
(38.4077 0.00886443 1.97755)
(38.3493 0.021593 2.19684)
(38.081 0.0220804 1.85406)
(37.5659 0.00500916 1.57785)
(36.9854 -0.00624405 1.44783)
(36.4754 -0.0241401 1.55262)
(36.2636 0.00744485 1.81756)
(35.6696 0.0287625 2.61425)
(35.0005 0.00334883 3.55388)
(34.1292 0.00214377 4.60023)
(32.9306 0.0185893 5.19626)
(31.4344 0.0442702 4.13208)
(29.5254 0.0768346 1.34558)
(27.1348 0.0719444 -2.08249)
(24.3064 0.0686861 -4.06833)
(21.2754 0.13157 -3.97434)
(18.1532 0.285977 -3.13821)
(15.5545 0.696757 -3.00074)
(13.1517 1.30625 -1.73162)
(-11.6192 0.01939 0.933886)
(-0.888624 -0.0461034 11.0477)
(6.38332 -2.6141 6.45253)
(9.68922 -3.88212 7.74211)
(13.481 -3.76799 3.22271)
(25.7632 -1.18963 -2.75854)
(17.0911 0.827281 0.914941)
(14.5444 1.26151 1.11573)
(14.7078 0.531114 1.09305)
(15.7133 -0.548248 2.47977)
(16.2079 -1.08537 4.52083)
(17.2661 0.123148 5.33476)
(19.2423 1.1903 4.32481)
(18.8993 2.11342 2.62313)
(15.2018 2.28039 -0.211707)
(9.61328 0.582908 0.0357554)
(12.3663 -1.28544 2.96838)
(26.7463 0.157637 7.34432)
(6.75985 0.332445 -0.870128)
(40.0073 0.00182988 0.0537993)
(39.9687 0.00261217 0.234932)
(39.9615 0.00813653 0.321845)
(39.9484 0.0113586 0.409849)
(39.9162 0.0125655 0.500509)
(39.8647 0.0122976 0.595189)
(39.7969 0.0108644 0.694291)
(39.7146 0.00870058 0.798837)
(39.6191 0.00630263 0.910053)
(39.5105 0.00405131 1.02891)
(39.387 0.0021889 1.15593)
(39.2455 0.000904139 1.29093)
(39.0838 0.000325882 1.43243)
(38.9057 0.00121496 1.57824)
(38.7215 0.00340209 1.72496)
(38.5553 0.00751016 1.86291)
(38.4115 0.0108314 1.98868)
(38.3038 0.0126643 2.11609)
(38.1889 0.034275 2.12304)
(37.8389 -0.00482906 1.77561)
(37.1381 -0.00645542 1.62825)
(36.5816 -0.0191999 1.68951)
(36.1618 0.00730504 1.93065)
(35.5953 0.0282278 2.66264)
(34.8828 0.00224199 3.56303)
(34.0637 -0.00100631 4.54424)
(33.0094 0.0151037 4.89477)
(31.6346 0.0399135 3.87277)
(29.855 0.0712442 1.31793)
(27.5161 0.0679615 -2.00262)
(24.7787 0.0656484 -4.08913)
(21.9964 0.123724 -3.98429)
(19.5839 0.266997 -2.98271)
(18.054 0.865367 -2.50461)
(17.2208 3.61417 -0.933834)
(16.6611 4.45678 -0.387784)
(19.9286 3.91063 0.652655)
(19.265 3.16225 2.56158)
(17.9433 0.8779 2.69557)
(11.6227 -0.263058 4.66033)
(20.4978 -0.0766533 2.04927)
(6.7374 2.221 7.19581)
(4.28833 1.04819 8.04507)
(6.67328 -0.217365 4.14589)
(7.89565 -0.810866 0.759615)
(7.76747 -1.35613 -1.79471)
(7.86878 0.131022 -3.20683)
(8.46242 1.76897 -4.22849)
(8.34491 2.90812 -5.23227)
(7.8664 2.34978 -5.61545)
(3.77231 1.4731 -4.29416)
(7.95783 -1.73116 3.26255)
(3.69585 -0.681647 4.36508)
(0.256023 1.1041 -11.2498)
(40.0044 0.00175357 0.0617122)
(39.9662 0.00241008 0.276111)
(39.9647 0.00812487 0.377254)
(39.9596 0.0113602 0.479643)
(39.9348 0.0125527 0.585355)
(39.8908 0.012298 0.69586)
(39.8304 0.0109184 0.81156)
(39.7556 0.00885158 0.933502)
(39.6676 0.00656644 1.06292)
(39.5667 0.0044172 1.20072)
(39.4505 0.00259799 1.34729)
(39.3149 0.00120034 1.50229)
(39.1561 0.000422472 1.66382)
(38.9764 0.00093965 1.82918)
(38.7845 0.00283262 1.99168)
(38.6011 0.00779448 2.14627)
(38.4242 0.00981299 2.27185)
(38.272 0.0177651 2.36571)
(38.0789 0.00636048 2.40957)
(37.7757 0.0109592 2.2984)
(37.3249 0.00816526 2.22425)
(36.7913 -0.0330466 2.44983)
(36.7557 -0.0129632 2.63294)
(36.222 0.0460637 3.25819)
(35.3503 -0.00649395 4.37833)
(34.4313 0.000717257 5.62527)
(33.42 0.0580615 6.65297)
(31.9289 0.093683 6.12488)
(29.5359 0.0904927 3.72534)
(26.1753 0.0868199 0.783259)
(22.5141 0.10874 -0.808504)
(19.0399 0.176893 -0.715197)
(15.4996 0.400247 0.164604)
(13.0462 1.08304 1.45389)
(-8.85361 0.42321 3.37256)
(-9.81028 -0.0227927 0.715449)
(-9.68508 -0.416454 -1.78262)
(-16.0585 0.277973 -8.0979)
(-18.2049 -0.459976 3.16985)
(-20.3598 -3.12625 -1.51585)
(2.24267 -2.6138 -3.89059)
(-8.95635 0.261897 2.95276)
(-10.1826 1.76115 3.52743)
(-24.4314 0.656007 8.51976)
(-17.2373 -2.72038 6.09073)
(-7.20414 -1.86803 1.64814)
(-1.34528 -0.13537 1.27778)
(1.82291 0.848157 1.38015)
(0.847135 1.75532 0.497342)
(-5.32244 2.1906 -1.38973)
(-15.3846 2.49899 1.68678)
(-24.5327 7.17326 -4.77981)
(-76.7846 -1.3304 -8.89817)
(10.3054 -0.613358 -0.0385949)
(40.0071 0.00175334 0.0615748)
(39.9706 0.00241296 0.276339)
(39.9666 0.00812877 0.377098)
(39.9561 0.011366 0.479262)
(39.9275 0.0125577 0.584936)
(39.8806 0.0123027 0.695544)
(39.8183 0.0109251 0.811471)
(39.7425 0.00885826 0.933729)
(39.6543 0.00657282 1.06349)
(39.5537 0.0044232 1.20156)
(39.4381 0.00260259 1.34824)
(39.3034 0.00120492 1.50299)
(39.1464 0.000425402 1.66399)
(38.9692 0.000938641 1.82815)
(38.7816 0.00286319 1.99003)
(38.5979 0.0077135 2.14304)
(38.425 0.0100657 2.27098)
(38.2529 0.0171837 2.36388)
(38.058 0.007032 2.40721)
(37.7795 0.0140163 2.38002)
(37.3118 0.0135486 2.35466)
(36.7024 -0.0226559 2.54025)
(35.9875 -0.0663454 3.06617)
(36.2944 0.0472257 3.35432)
(35.1902 -0.003106 4.31677)
(34.3344 0.00100639 5.52738)
(33.3799 0.0568294 6.25743)
(32.0563 0.0818217 5.78741)
(29.8424 0.0792248 3.88915)
(26.7224 0.076937 0.997567)
(23.1899 0.104832 -0.923687)
(20.0268 0.169506 -0.969811)
(17.5169 0.426376 -0.218434)
(16.0114 1.9353 1.2275)
(10.5619 4.20655 8.50462)
(-9.20406 -0.135163 0.908341)
(-15.2034 0.165245 9.79581)
(-5.195 5.45643 -0.0501839)
(-0.901191 3.58431 0.904014)
(1.61854 0.989574 3.95167)
(-4.09055 0.384285 8.39585)
(-7.74451 2.95552 12.3769)
(-0.0535159 2.69115 6.65793)
(6.50299 1.89364 1.31048)
(9.19053 1.34351 -0.959019)
(8.10073 -0.139793 -1.53748)
(6.94359 -0.717989 -1.92891)
(7.32755 -0.278365 -3.00141)
(6.71872 0.725011 -3.41731)
(6.92519 1.29404 -2.7643)
(3.68798 1.41314 -0.65493)
(13.2728 4.26668 1.29128)
(16.5784 2.56912 -4.10106)
(11.942 1.43219 -9.7688)
(40.0045 0.00169531 0.0690876)
(39.971 0.00291799 0.316414)
(39.9716 0.00803722 0.430868)
(39.9695 0.0110056 0.546676)
(39.949 0.0121314 0.66651)
(39.9103 0.0119107 0.791965)
(39.8564 0.0106362 0.923522)
(39.789 0.00872346 1.06227)
(39.7094 0.00660026 1.20947)
(39.6174 0.00458032 1.36595)
(39.5101 0.00278431 1.53206)
(39.3825 0.0012483 1.70738)
(39.2297 0.000141 1.89037)
(39.0515 -5.55207e-05 2.07813)
(38.8545 0.00127774 2.26441)
(38.6532 0.00536701 2.44176)
(38.4513 0.00915121 2.59601)
(38.2451 0.0164041 2.72252)
(38.0062 0.0168455 2.80664)
(37.7225 0.0274418 2.88774)
(37.3712 0.0272559 2.99522)
(36.96 0.0316401 3.17679)
(36.4735 0.0128143 3.46815)
(36.722 0.0270192 4.2549)
(36.4649 -0.024872 5.28214)
(35.4226 -0.0125279 6.50765)
(34.4979 0.0681457 7.6092)
(33.3794 0.186349 8.19766)
(31.4349 0.204915 7.19688)
(27.5411 0.179047 4.73138)
(23.4865 0.131169 2.5486)
(19.9618 0.130556 2.06075)
(17.1641 0.227281 3.08784)
(15.5466 0.936364 6.38545)
(1.7602 1.06003 16.9145)
(-7.14132 -0.071053 0.841105)
(-19.2109 -2.88201 14.9105)
(-9.25312 -4.15589 1.95085)
(-19.0206 -3.04221 -2.32984)
(-5.4106 -3.44415 -7.43848)
(-0.89443 -3.09324 -6.74072)
(1.63417 -1.91253 -2.73753)
(5.2227 -0.419923 -1.10494)
(7.13632 0.823898 -0.912533)
(7.56672 0.148987 -0.814487)
(5.96179 -1.4831 -0.802721)
(3.8108 -2.47328 -0.278409)
(2.64371 -2.34779 -0.310145)
(2.78512 -1.85649 -0.224799)
(2.84351 -1.0907 0.30926)
(2.76949 -0.443405 2.0072)
(8.97019 3.21568 3.38109)
(-10.0814 3.75151 -4.93843)
(-32.9949 3.63903 -12.1701)
(40.0069 0.00169511 0.0689353)
(39.9748 0.00292044 0.316528)
(39.9728 0.00804089 0.430662)
(39.966 0.011011 0.546277)
(39.942 0.0121381 0.666097)
(39.9007 0.0119181 0.791683)
(39.8449 0.0106444 0.9235)
(39.7766 0.00872791 1.0626)
(39.6967 0.00660224 1.21018)
(39.6049 0.00458449 1.36698)
(39.4981 0.0027878 1.53325)
(39.371 0.00124592 1.70845)
(39.2193 0.00013248 1.89095)
(39.0434 -6.28659e-05 2.0777)
(38.8506 0.00126755 2.26315)
(38.6516 0.0053785 2.43929)
(38.4527 0.0091177 2.5955)
(38.2436 0.0165325 2.72399)
(38.0052 0.0167671 2.82135)
(37.7127 0.0276563 2.90345)
(37.3554 0.0280033 3.0286)
(36.9174 0.0327536 3.21958)
(36.3208 0.0152499 3.65907)
(36.6914 0.0337338 4.1714)
(36.0439 -0.0246364 5.21727)
(35.32 -0.010162 6.35433)
(34.0905 0.0835601 7.50847)
(33.3287 0.148353 7.84677)
(31.5382 0.185827 6.87694)
(28.5164 0.139921 4.72393)
(24.4628 0.0942321 2.61479)
(20.9031 0.116111 1.78714)
(18.5205 0.209812 2.32591)
(10.7786 2.44537 9.16307)
(12.6595 4.40251 15.4712)
(9.25464 3.33581 15.5567)
(9.32521 1.46362 12.0413)
(4.05989 1.31648 3.1858)
(-2.73594 2.1166 -0.503665)
(-0.946608 0.787942 2.86789)
(-2.96954 0.107476 7.78823)
(-1.66899 1.62085 8.51457)
(5.57064 2.88842 4.34694)
(11.1345 3.60041 1.74421)
(13.5991 3.38387 0.349367)
(13.1083 1.83154 -0.567531)
(12.0715 0.372817 -0.979847)
(11.7245 -0.139553 -1.65291)
(11.283 -0.0277268 -1.67157)
(11.0465 0.419853 0.0357615)
(9.06117 0.70026 0.738641)
(12.1037 2.77325 1.88438)
(23.6294 3.74853 0.551179)
(12.0376 4.91104 -0.701003)
(40.0042 0.00160399 0.0758501)
(39.9734 0.00261265 0.354441)
(39.9787 0.00798298 0.481751)
(39.9814 0.0109933 0.610381)
(39.9663 0.0121224 0.743723)
(39.9341 0.0119361 0.883557)
(39.8875 0.010746 1.0305)
(39.8286 0.00895926 1.18569)
(39.7584 0.00698598 1.35044)
(39.6763 0.00509764 1.5256)
(39.5789 0.0033867 1.71157)
(39.4605 0.00185721 1.90802)
(39.3148 0.000619212 2.1137)
(39.1398 0.000154913 2.32585)
(38.9404 0.00138522 2.53934)
(38.7272 0.00490966 2.74722)
(38.5069 0.0102022 2.93739)
(38.2793 0.0177796 3.11244)
(38.0272 0.023825 3.26573)
(37.742 0.0354396 3.43599)
(37.4208 0.0426221 3.63057)
(37.0524 0.051525 3.90203)
(36.6656 0.0291247 4.22485)
(36.2809 -0.0318865 4.80222)
(37.3988 -0.0412564 6.27117)
(36.7427 0.00684292 7.44128)
(35.3188 0.140931 8.49706)
(32.7207 0.378735 9.27041)
(31.3532 0.254276 9.60513)
(28.4163 0.0534299 8.87379)
(25.2587 -0.0268295 6.49019)
(20.5513 -0.0535676 5.13719)
(19.3929 0.234318 5.21552)
(10.6868 0.848144 11.079)
(9.50884 1.70091 18.9116)
(5.62505 0.327195 16.4013)
(6.63664 -0.771508 10.2787)
(9.54763 -2.30076 4.12856)
(9.02251 -2.64218 -0.267091)
(9.5517 -2.54819 -3.50491)
(10.963 -1.99561 -3.74285)
(13.1477 -1.25528 -2.54292)
(15.66 -0.612573 -1.53783)
(18.2058 -0.10577 -0.757714)
(21.0049 0.12179 -1.08204)
(22.8891 -0.448256 -2.13149)
(22.8366 -1.22085 -2.4113)
(21.674 -1.78645 -1.87393)
(20.7144 -1.55555 -1.11555)
(20.6303 -1.09217 0.0152398)
(21.1345 -1.0836 1.32841)
(21.1714 -0.798391 5.13181)
(32.8169 0.214437 9.10239)
(19.6701 1.98046 4.54762)
(40.0066 0.00160381 0.0757013)
(39.9775 0.0026151 0.354671)
(39.9804 0.00798655 0.481631)
(39.9781 0.0109986 0.610055)
(39.9596 0.0121292 0.743392)
(39.9248 0.0119439 0.883385)
(39.8766 0.0107548 1.03062)
(39.8168 0.00896447 1.18621)
(39.7464 0.00698878 1.35139)
(39.6644 0.00510238 1.52694)
(39.5673 0.00339209 1.71317)
(39.4491 0.00185016 1.9097)
(39.3044 0.000603884 2.11518)
(39.1317 0.000147911 2.32687)
(38.9362 0.00136994 2.53994)
(38.727 0.00490324 2.74671)
(38.5106 0.0102 2.93988)
(38.2839 0.0178192 3.11448)
(38.0358 0.0239535 3.27857)
(37.7515 0.0355127 3.44415)
(37.4237 0.0433464 3.6455)
(37.0269 0.0494387 3.89692)
(36.5374 0.0368969 4.23925)
(35.9606 -0.0554854 4.70676)
(35.0667 -0.143124 5.8756)
(36.285 0.0308679 7.32735)
(33.2853 0.306897 8.35288)
(33.581 0.342405 9.20168)
(32.9693 0.345584 9.46083)
(30.0901 0.180079 8.65067)
(24.7443 -0.185148 7.23322)
(19.1224 -0.527077 6.04801)
(13.3876 0.107041 8.73373)
(5.79146 1.05665 13.5732)
(11.9345 2.5132 14.577)
(16.8815 2.20436 13.9495)
(19.4796 1.54765 11.0791)
(17.9844 0.315207 6.0831)
(12.3335 -0.0537327 2.47947)
(8.40076 -0.401181 1.9414)
(8.13984 -0.44155 2.72006)
(11.5901 0.45376 1.28724)
(15.2991 1.20142 -0.165093)
(18.1655 1.59137 -0.689468)
(19.6736 1.61424 -1.1557)
(19.888 0.842799 -1.78717)
(19.8255 0.0347388 -2.28512)
(19.8249 -0.565861 -2.11293)
(19.6925 -0.630025 -1.5386)
(19.5585 -0.447999 -1.03196)
(19.8306 -0.558551 -0.364498)
(19.4657 -0.608064 2.40508)
(33.2147 -0.619513 7.58393)
(24.5894 2.5974 6.50424)
(40.0042 0.00154935 0.0820776)
(39.9792 0.00324546 0.390051)
(39.9882 0.00798909 0.529431)
(39.9957 0.0107166 0.670092)
(39.9869 0.0117882 0.81617)
(39.9621 0.0116617 0.969641)
(39.9243 0.0106144 1.13127)
(39.8751 0.00902299 1.30232)
(39.8157 0.00726745 1.48418)
(39.7451 0.00557702 1.67784)
(39.6593 0.00400901 1.88387)
(39.5519 0.00253568 2.10214)
(39.4157 0.00125952 2.33168)
(39.247 0.000680189 2.57022)
(39.0487 0.00172869 2.81366)
(38.8284 0.00486583 3.05492)
(38.5989 0.0119305 3.28646)
(38.3619 0.0188998 3.50622)
(38.1187 0.030392 3.71846)
(37.8656 0.0380517 3.94617)
(37.6039 0.0450096 4.21696)
(37.3038 0.0397688 4.57909)
(37.0618 0.0109331 4.9358)
(36.5969 0.0104518 5.27431)
(36.6312 0.0112538 6.49842)
(37.8414 0.106311 8.48843)
(34.5621 0.294982 9.64573)
(33.6955 0.211241 10.5656)
(32.6469 0.118219 11.3436)
(31.2875 0.132596 12.1748)
(28.5521 0.166188 12.3691)
(22.9989 0.0992245 12.1342)
(19.7978 0.37409 12.1735)
(11.8376 0.52593 13.7037)
(13.153 0.808977 14.108)
(14.8847 0.531242 12.0119)
(15.4717 -0.182378 8.84197)
(15.7178 -0.956721 4.11351)
(15.6642 -1.26951 0.48328)
(15.8855 -1.20506 -1.93495)
(16.5719 -0.768428 -2.61169)
(18.1202 -0.0630709 -2.44249)
(20.8068 0.430941 -2.59944)
(23.7158 0.569904 -2.91902)
(26.119 0.483974 -3.37965)
(27.569 -0.0950577 -3.65021)
(28.0908 -0.955786 -3.7854)
(27.904 -1.68089 -3.88177)
(27.4403 -2.05951 -3.81431)
(27.2782 -2.28969 -3.13782)
(28.0745 -2.79233 -1.3661)
(26.281 -2.92344 -0.173209)
(34.5379 -2.16994 4.44295)
(28.9715 1.76019 2.9322)