/*--------------------------------*- C++ -*----------------------------------*\
| =========                 |                                                 |
| \\      /  F ield         | OpenFOAM: The Open Source CFD Toolbox           |
|  \\    /   O peration     | Version:  4.1                                   |
|   \\  /    A nd           | Web:      www.OpenFOAM.org                      |
|    \\/     M anipulation  |                                                 |
\*---------------------------------------------------------------------------*/
FoamFile
{
    version     2.0;
    format      ascii;
    class       volScalarField;
    location    "28";
    object      omega;
}
// * * * * * * * * * * * * * * * * * * * * * * * * * * * * * * * * * * * * * //

dimensions      [0 0 -1 0 0 0 0];

internalField   nonuniform List<scalar> 
4432
(
0.011097
0.0114423
0.0118182
0.0121299
0.0125217
0.0128038
0.0131726
0.0134339
0.013746
0.0140053
0.0142648
0.0145372
0.0147749
0.015039
0.0152833
0.0155453
0.0157907
0.016075
0.0163491
0.0165952
0.0168228
0.0170004
0.0171504
0.017275
0.0174431
0.0176532
0.0180027
0.0194279
0.0219552
0.0251307
0.0281398
0.0311285
0.0337621
0.0359293
0.0378784
0.0394898
0.0409457
0.0427194
0.0424861
0.0420241
0.0416275
0.0411768
0.0408846
0.042079
0.0423868
0.0426508
0.0395789
0.03891
0.0362364
0.033849
0.0479999
0.0405859
0.0342852
0.0278378
0.0110636
0.0114755
0.011766
0.0121825
0.0124663
0.0128561
0.0131371
0.013467
0.013748
0.0140246
0.0143026
0.0145637
0.0148291
0.0150902
0.0153405
0.0155934
0.015846
0.0161204
0.016373
0.0166565
0.0168208
0.0170316
0.017168
0.01738
0.0176721
0.0179405
0.018619
0.0207143
0.0229418
0.0256344
0.0283358
0.0310244
0.033745
0.0358394
0.0376947
0.0388998
0.0398016
0.0404916
0.0404154
0.0401261
0.0398007
0.0402242
0.0393423
0.0388646
0.0386193
0.0384175
0.0373974
0.0353733
0.0332389
0.0303086
0.0327865
0.0381033
0.0378572
0.033332
21.7636
3.36895
1.20086
0.64483
0.428373
0.317507
0.250627
0.206241
0.174841
0.151615
0.133755
0.119699
0.108272
0.0989463
0.0910605
0.0845103
0.0788253
0.0740775
0.0696659
0.0662766
0.0626331
0.060106
0.0570717
0.0547448
0.052412
0.050435
0.0481524
0.046611
0.0448788
0.0435923
0.0418931
0.0408592
0.0394033
0.0385134
0.0374754
0.0374051
0.0355634
0.0361465
0.0346424
0.0344984
0.0341489
0.0359696
0.0339126
0.033957
0.034765
0.0362033
0.0371575
0.0392036
0.0394429
0.0551175
0.06386
0.293938
0.652206
0.595415
21.7632
3.36892
1.20051
0.644597
0.428291
0.31749
0.25063
0.206253
0.174837
0.15163
0.133745
0.119704
0.108282
0.0989324
0.0911242
0.0844749
0.0789408
0.0739268
0.0697207
0.0659429
0.0626587
0.059762
0.0570483
0.0546739
0.0523902
0.0504391
0.0487263
0.0469881
0.0455152
0.0438886
0.0426005
0.0412242
0.0398792
0.0388189
0.0383878
0.036674
0.0362922
0.03584
0.0352715
0.0339249
0.0334506
0.033341
0.0333311
0.0325393
0.0329718
0.034777
0.0361338
0.0375552
0.0428808
0.04662
0.0363407
0.163191
0.300973
0.263961
21.7689
3.372
1.2038
0.646759
0.429439
0.318107
0.251016
0.20654
0.175092
0.151854
0.133967
0.119934
0.108466
0.0992228
0.0912226
0.084844
0.0789706
0.0745174
0.0701075
0.0669228
0.0634769
0.0609949
0.0582009
0.0560042
0.0537829
0.0518291
0.0497851
0.0480016
0.0463981
0.0446096
0.0430702
0.0415686
0.0405167
0.0379472
0.0371212
0.0362588
0.0356535
0.0350049
0.0345646
0.0340685
0.0336331
0.0330245
0.032919
0.0346927
0.0332805
0.0335896
0.0341761
0.0356529
0.0390976
0.0390404
0.0546835
0.179055
0.357322
0.270242
21.7686
3.37197
1.20355
0.646616
0.429404
0.318099
0.251041
0.206532
0.175118
0.151841
0.133992
0.119919
0.108505
0.0991869
0.0913237
0.0848149
0.0792165
0.0745591
0.0704804
0.0670696
0.0638557
0.0612577
0.0585911
0.0562779
0.0542346
0.0521856
0.0500264
0.0484911
0.0462578
0.0448194
0.0429703
0.0411909
0.0400038
0.0385307
0.0387573
0.0361396
0.03546
0.0355401
0.0350822
0.0336194
0.0358894
0.0328192
0.0322828
0.0344813
0.0322297
0.0317581
0.0319353
0.0330522
0.0350141
0.0386259
0.0423547
0.151562
0.330109
0.277173
21.77
3.37256
1.20452
0.647249
0.429689
0.318207
0.251088
0.206541
0.175144
0.151821
0.134028
0.119873
0.108558
0.0991579
0.091411
0.0848218
0.07935
0.0745401
0.0707434
0.0669956
0.0643608
0.0613034
0.059099
0.0565941
0.0546596
0.0523586
0.0505094
0.0478912
0.0462704
0.0435464
0.0422277
0.0392127
0.0382558
0.0373005
0.037823
0.0363691
0.0361667
0.0371718
0.0414639
0.0388427
0.0371536
0.0365272
0.0366078
0.03993
0.0432609
0.0383042
0.0373049
0.0376304
0.0388033
0.0391674
0.135993
0.321599
0.310916
0.440577
21.7696
3.37251
1.20474
0.647402
0.429769
0.31825
0.25113
0.206561
0.175183
0.151823
0.134077
0.119862
0.108612
0.0991213
0.0914838
0.0848015
0.0795013
0.0746233
0.0709457
0.06723
0.0644723
0.0616386
0.0591667
0.0569783
0.0546346
0.0528477
0.0506922
0.0475744
0.046042
0.0436386
0.0434808
0.0401841
0.0393406
0.0383181
0.0376034
0.0383844
0.0394057
0.0363601
0.039902
0.035199
0.0380833
0.0387327
0.0397928
0.0369015
0.0363011
0.0353461
0.0348698
0.0345838
0.0386899
0.0291695
0.110891
0.248984
0.248183
0.377399
21.7707
3.37293
1.20627
0.648438
0.430218
0.318401
0.251181
0.20656
0.175187
0.15179
0.134062
0.119816
0.108607
0.0991541
0.0915066
0.0850107
0.0794379
0.0750148
0.0707487
0.067685
0.0644766
0.0617969
0.0596051
0.0568308
0.0542197
0.0516668
0.0475709
0.0459603
0.0461979
0.0426118
0.041498
0.0411383
0.038327
0.0386934
0.0371507
0.0368483
0.0375998
0.0369373
0.0432031
0.0388567
0.038604
0.0392052
0.0391085
0.0459824
0.0433829
0.0476873
0.0562429
0.0487934
0.0530031
0.055699
0.102478
0.254123
0.282199
0.48784
21.7706
3.37314
1.20493
0.647483
0.429829
0.318306
0.251146
0.206602
0.175169
0.151853
0.134046
0.119872
0.108589
0.0991141
0.0914584
0.0847292
0.0793405
0.0743455
0.070507
0.0666578
0.0638364
0.0607453
0.0584725
0.0560586
0.0529265
0.0518176
0.0474597
0.0458269
0.0442729
0.043576
0.040233
0.0392935
0.0402218
0.0372664
0.0369309
0.0363686
0.0359124
0.0362623
0.0354534
0.0353236
0.0352612
0.044391
0.038656
0.0450876
0.0421381
0.0415319
0.0421875
0.0441085
0.0478753
0.0490029
0.0706288
0.174075
0.254866
0.570378
21.7724
3.37382
1.20626
0.648372
0.430222
0.318451
0.251199
0.206593
0.175182
0.15178
0.134084
0.11975
0.108675
0.0989684
0.0915695
0.0846155
0.0794595
0.0744141
0.0707176
0.0671375
0.0643033
0.0615806
0.0590058
0.0569818
0.0537199
0.0512297
0.0481616
0.0463544
0.0429461
0.0417016
0.0403967
0.0424276
0.0385722
0.0377751
0.0374489
0.0402768
0.0509321
0.0420266
0.0421209
0.0428515
0.0427264
0.0430124
0.0427003
0.0431782
0.0493547
0.0453743
0.0460691
0.0470572
0.0500335
0.0528531
0.0749324
0.0980222
0.172463
0.132895
21.7721
3.37397
1.2059
0.648172
0.43017
0.318463
0.251204
0.20665
0.175175
0.1519
0.134034
0.119938
0.108575
0.0991824
0.0914279
0.0847287
0.0791958
0.0742529
0.0702111
0.0664886
0.0636612
0.0604192
0.0582229
0.0553728
0.0524662
0.0491753
0.0472536
0.0438627
0.0426045
0.04205
0.0413368
0.0399352
0.0406903
0.0372459
0.0407925
0.0364191
0.036394
0.0365687
0.0432491
0.0370908
0.0371546
0.0373383
0.0375832
0.0386199
0.0390373
0.0396032
0.0414839
0.0423278
0.0446123
0.0516796
0.0653173
0.0762471
0.146673
0.162235
21.7736
3.37426
1.20682
0.648806
0.430454
0.318582
0.251213
0.20668
0.175117
0.151921
0.133928
0.119948
0.108425
0.09918
0.0912676
0.0847277
0.0791557
0.0742692
0.0704308
0.0667905
0.0640198
0.0610549
0.0588605
0.0561841
0.0535308
0.0507951
0.0480678
0.0456146
0.0441988
0.0408802
0.0399468
0.0389893
0.0386219
0.0379301
0.0378349
0.0416264
0.0452378
0.0481598
0.0503054
0.0535466
0.0492867
0.0502634
0.0499317
0.0526385
0.047753
0.0520132
0.0555474
0.0503661
0.0497244
0.0530114
0.0643982
0.0743314
0.0756824
0.0754903
21.7733
3.37456
1.20669
0.64871
0.430442
0.318593
0.251264
0.206688
0.175187
0.151916
0.134019
0.11994
0.108523
0.0991727
0.091339
0.0847262
0.0791113
0.074273
0.0701307
0.0665496
0.0635877
0.06047
0.058287
0.0550442
0.0522735
0.0499323
0.047648
0.0458073
0.0425359
0.0416247
0.0403992
0.0395426
0.0386686
0.038157
0.0443578
0.038693
0.0394017
0.0406988
0.0408616
0.0415611
0.0414673
0.0411904
0.0408184
0.0495256
0.0424868
0.0428379
0.0502208
0.0475954
0.0462098
0.051248
0.0633771
0.0633003
0.0928916
0.0877936
21.7754
3.3755
1.20862
0.649968
0.430992
0.318803
0.251344
0.206722
0.175185
0.151918
0.133968
0.119921
0.108423
0.0991708
0.0911902
0.0848612
0.0789148
0.0745505
0.0701052
0.0668531
0.0637185
0.0612983
0.0583792
0.0562962
0.0534057
0.0502785
0.048532
0.0456668
0.0457195
0.0419328
0.0426476
0.0404661
0.0405198
0.0419798
0.053339
0.0457845
0.0485662
0.0513229
0.0621831
0.0560943
0.0673037
0.0581801
0.0577202
0.0571872
0.0604836
0.0646476
0.0574534
0.0561411
0.0602871
0.0552898
0.057511
0.0589893
0.0611527
0.0632015
21.7751
3.37555
1.20845
0.64983
0.430948
0.318831
0.251363
0.206791
0.175206
0.152004
0.134003
0.120011
0.108485
0.0992004
0.0912965
0.0847093
0.0790587
0.0742175
0.0699752
0.0666161
0.0630293
0.0607258
0.0576706
0.0550171
0.0523699
0.0483204
0.0466519
0.0450838
0.0437296
0.0438
0.0404456
0.039957
0.0392666
0.0398936
0.0440704
0.0502518
0.0514286
0.0596506
0.050752
0.0502921
0.0500607
0.0532208
0.0535533
0.0551739
0.0491793
0.0485111
0.0476584
0.0476787
0.0472651
0.0479054
0.0575277
0.0550029
0.0593183
0.06099
21.7765
3.37603
1.209
0.650209
0.431142
0.318884
0.251402
0.206739
0.175203
0.151893
0.133951
0.11986
0.108377
0.0990754
0.0911162
0.0847104
0.0787029
0.0742969
0.0695412
0.0663571
0.0629335
0.0605961
0.0578124
0.0556546
0.0529442
0.050445
0.0481397
0.0471322
0.0437421
0.0437332
0.0473024
0.0501704
0.0613092
0.0616549
0.057851
0.0588434
0.0594736
0.0649202
0.0720652
0.0637232
0.0630873
0.062078
0.0610827
0.0639198
0.068458
0.0610064
0.0600275
0.0643197
0.0600244
0.0585282
0.0584012
0.0625533
0.0720702
0.065816
21.7764
3.37624
1.20862
0.649905
0.431027
0.318908
0.251415
0.206848
0.175207
0.152053
0.133929
0.120071
0.108329
0.099288
0.0910225
0.0847636
0.0785918
0.0740869
0.0693539
0.0660965
0.0624247
0.0601709
0.0571209
0.0547609
0.0519642
0.0501654
0.0465709
0.0457125
0.042204
0.0410463
0.040304
0.0400691
0.0401225
0.0431244
0.0488588
0.0432329
0.0517192
0.0480497
0.0579576
0.0499414
0.0496718
0.0600339
0.0522816
0.0585411
0.0633361
0.0616652
0.0623256
0.0558547
0.054751
0.0529261
0.0523321
0.0593688
0.0739794
0.0704746
21.7786
3.37721
1.21024
0.651006
0.431532
0.319046
0.25148
0.206754
0.175225
0.151869
0.133945
0.119811
0.10832
0.0989618
0.0909265
0.0844342
0.0783684
0.0737674
0.0692442
0.0656102
0.0628415
0.0600185
0.0576108
0.0547835
0.0525833
0.049892
0.0480963
0.0492307
0.0503916
0.0583271
0.0589855
0.0523192
0.0543765
0.0664753
0.0648068
0.0664874
0.0668566
0.0667186
0.0664097
0.0653864
0.0644776
0.0659491
0.0690661
0.060705
0.0595406
0.0585301
0.0585166
0.0582465
0.0585204
0.065688
0.062606
0.0751998
0.0972711
0.0916105
21.7782
3.37744
1.21014
0.650955
0.431536
0.319121
0.251509
0.206875
0.175234
0.152038
0.133941
0.120034
0.108297
0.0992192
0.0908949
0.0846625
0.0783841
0.0739486
0.0691767
0.0659187
0.0623716
0.0596735
0.0567743
0.0541197
0.0520857
0.0498709
0.0462113
0.0447861
0.0444795
0.0467562
0.0432909
0.0453942
0.0525069
0.058124
0.058798
0.0639208
0.0562424
0.0561158
0.0671354
0.0570708
0.0565142
0.0567435
0.0561326
0.0685768
0.0598241
0.0684301
0.0669519
0.0674921
0.0623115
0.0610801
0.0602827
0.0814857
0.107164
0.138382
21.7794
3.37744
1.21144
0.651867
0.431947
0.319218
0.25159
0.206781
0.175294
0.151854
0.133992
0.119769
0.108308
0.0988718
0.0908781
0.0842818
0.0784053
0.0735329
0.0693592
0.0652688
0.0628044
0.0596905
0.057052
0.0543567
0.0517359
0.0476134
0.0497709
0.0449523
0.0448155
0.0496701
0.0551725
0.0618159
0.0673397
0.0729701
0.0792868
0.0813385
0.0783639
0.0775638
0.0772852
0.0802263
0.0807711
0.0789163
0.0749415
0.0736802
0.0648354
0.0625536
0.0603371
0.0595885
0.0585003
0.0586142
0.0610137
0.0812968
0.112048
0.145254
21.7793
3.37762
1.21084
0.651454
0.431795
0.319234
0.251608
0.206906
0.175325
0.152023
0.134031
0.119953
0.108361
0.0990612
0.0908913
0.0844387
0.0782919
0.0735907
0.0690766
0.0652129
0.0622365
0.0590462
0.0566389
0.054837
0.0502207
0.0495428
0.0509136
0.0534537
0.0582407
0.0652293
0.0537582
0.0548574
0.0629591
0.0676281
0.0639403
0.0642026
0.0635843
0.0673231
0.0633737
0.0623132
0.0612496
0.0667453
0.0701024
0.0694005
0.0709453
0.0647999
0.0640893
0.0629428
0.066374
0.0620373
0.0626729
0.164065
0.156293
0.211117
21.7813
3.37841
1.21248
0.652515
0.432265
0.319337
0.251659
0.206776
0.175323
0.151788
0.133988
0.119659
0.108215
0.0987656
0.0906175
0.0842128
0.0779667
0.0735055
0.0686196
0.0653657
0.0616743
0.059016
0.0565665
0.0529473
0.0523507
0.0479652
0.0488034
0.0485374
0.05109
0.0592854
0.0806266
0.0868671
0.098708
0.0878989
0.0938391
0.0902857
0.0953116
0.0923406
0.101526
0.088989
0.0991519
0.0836817
0.089878
0.0876723
0.0883459
0.0761171
0.0719491
0.0683214
0.0659767
0.063536
0.078829
0.152344
0.107122
0.132459
21.7811
3.3788
1.21181
0.652044
0.432097
0.319371
0.251689
0.206926
0.175345
0.151987
0.134003
0.119872
0.108274
0.0989257
0.0907289
0.084187
0.0780367
0.0731397
0.0686363
0.0646319
0.0615088
0.0584726
0.0556931
0.0538533
0.0503238
0.0489615
0.0472758
0.0457285
0.0553492
0.046387
0.0485884
0.0608936
0.0541678
0.0572516
0.0608372
0.061908
0.0810026
0.0677722
0.0671988
0.0665749
0.0651303
0.0645553
0.0740823
0.0654841
0.0807864
0.0681271
0.0672468
0.0789446
0.0788196
0.0731984
0.0963227
0.172358
0.0955858
0.17485
21.7821
3.37881
1.21332
0.653001
0.432492
0.31947
0.251733
0.20684
0.175372
0.151786
0.134077
0.11952
0.10841
0.0984061
0.0909401
0.0835984
0.0782804
0.0726902
0.0685765
0.0643796
0.0608317
0.0580254
0.0549547
0.0521064
0.0522567
0.0518421
0.0520195
0.0570655
0.0665997
0.083508
0.102315
0.0976808
0.0906359
0.0915518
0.0905409
0.10495
0.0902006
0.092767
0.112819
0.117816
0.100854
0.0978399
0.09369
0.0904465
0.0878035
0.090744
0.0907556
0.0805505
0.0778152
0.0720992
0.0694121
0.0979528
0.124513
0.151983
21.782
3.37919
1.21245
0.652447
0.432303
0.31948
0.251743
0.206969
0.175371
0.152006
0.134021
0.119859
0.10827
0.0988585
0.0906682
0.0840502
0.0778389
0.0729759
0.0681632
0.0644598
0.06081
0.0579522
0.0554544
0.0528099
0.0519818
0.0530764
0.0493762
0.0541096
0.0687405
0.0659537
0.0732006
0.0833641
0.0713198
0.0750105
0.0869998
0.0844227
0.0816577
0.0803256
0.0804328
0.0890358
0.0780876
0.0892435
0.0733552
0.0703268
0.0858443
0.0737003
0.0825387
0.0883355
0.0889371
0.0798352
0.0888093
0.125317
0.131814
0.230038
21.7837
3.38002
1.21385
0.653277
0.432635
0.31957
0.251748
0.206904
0.175324
0.151846
0.133974
0.119565
0.108245
0.0983999
0.0906403
0.0834005
0.0777348
0.0720545
0.0678597
0.0630499
0.0601349
0.0558905
0.0553853
0.0549761
0.0755116
0.0897308
0.103858
0.115879
0.118304
0.102032
0.100547
0.110493
0.0955338
0.108437
0.114828
0.125394
0.121584
0.129336
0.118471
0.127891
0.11815
0.113539
0.106078
0.0957948
0.0819857
0.078572
0.0801871
0.0767947
0.0756265
0.0727021
0.0706768
0.0851927
0.100386
0.193258
21.7835
3.37993
1.2138
0.653358
0.432733
0.319669
0.251835
0.207022
0.175408
0.152001
0.134039
0.119792
0.108271
0.0987015
0.0906747
0.0837179
0.0779488
0.0723775
0.0683305
0.0636748
0.0606451
0.0572105
0.0555203
0.055279
0.062696
0.0775488
0.0883564
0.0866417
0.0842793
0.0811674
0.0940652
0.108915
0.0921136
0.0984255
0.111859
0.103578
0.107581
0.102844
0.104974
0.123827
0.105818
0.117139
0.116516
0.100426
0.0921248
0.0871383
0.0796878
0.0804595
0.0803346
0.0754229
0.087585
0.0902516
0.155539
0.309659
21.7843
3.38028
1.2143
0.65366
0.432865
0.31967
0.251855
0.206904
0.175438
0.151789
0.134117
0.119451
0.108418
0.0982008
0.0908435
0.0830996
0.0779065
0.0717645
0.0678171
0.0629505
0.0598636
0.0544918
0.0570415
0.0682481
0.219975
0.258763
0.191586
0.154384
0.126298
0.110572
0.101837
0.0984666
0.095991
0.101634
0.127783
0.1083
0.122728
0.119384
0.121767
0.127467
0.122598
0.120231
0.115977
0.0958844
0.0895936
0.0913762
0.0923678
0.0867716
0.0854236
0.0805136
0.0819663
0.0898524
0.14759
0.213392
21.7841
3.38022
1.2141
0.653529
0.432826
0.319732
0.251883
0.207067
0.175453
0.152031
0.13409
0.119771
0.108344
0.0985831
0.090777
0.0835011
0.0780316
0.0720782
0.0684208
0.063154
0.0608737
0.0562535
0.0573086
0.066183
0.154552
0.304392
0.187776
0.153903
0.136082
0.110774
0.11534
0.104073
0.096619
0.102727
0.115268
0.120755
0.113991
0.116349
0.119329
0.120603
0.120022
0.13209
0.14137
0.117092
0.112292
0.119324
0.118637
0.113994
0.104301
0.0980436
0.0888353
0.101288
0.315546
0.343609
21.7856
3.38097
1.21482
0.65392
0.432988
0.319734
0.251893
0.206933
0.175447
0.151815
0.13409
0.11948
0.108346
0.0982062
0.0907531
0.0830395
0.0778238
0.071577
0.0678501
0.0624769
0.0598095
0.055272
0.0546609
0.0996467
0.375534
0.202941
0.158846
0.124745
0.0913631
0.0917685
0.0958707
0.105148
0.114061
0.131094
0.110364
0.128523
0.124954
0.129127
0.130164
0.132829
0.12842
0.129683
0.117271
0.111464
0.110304
0.107763
0.102727
0.0968518
0.0938437
0.0877171
0.0901967
0.106965
0.159725
21.7852
3.38116
1.21514
0.654214
0.43317
0.319883
0.251975
0.207113
0.175499
0.152061
0.134108
0.119804
0.108329
0.0986078
0.0907586
0.0834662
0.0780655
0.0720183
0.0685012
0.0630999
0.0612661
0.0556354
0.0573807
0.129858
0.254482
0.186532
0.153461
0.124931
0.0915579
0.0890381
0.094866
0.10475
0.133169
0.114012
0.118158
0.137821
0.132858
0.134416
0.135827
0.15529
0.132198
0.141882
0.153465
0.133106
0.130016
0.137963
0.141585
0.13607
0.126088
0.111674
0.107131
0.110747
0.234389
21.7858
3.38096
1.21535
0.654368
0.433216
0.319859
0.251933
0.207034
0.175432
0.151955
0.133998
0.119703
0.108126
0.0985866
0.0903436
0.0836182
0.0772379
0.0723793
0.0670279
0.0636503
0.0588591
0.0566205
0.05287
0.0564654
0.0838323
0.0666466
0.0638732
0.0575302
0.0594737
0.0567449
0.0762566
0.0935961
0.105067
0.109098
0.116148
0.120753
0.129585
0.131226
0.134481
0.131897
0.125086
0.118819
0.11194
0.113679
0.111617
0.111538
0.108477
0.107301
0.100848
0.0960419
0.0863732
0.0915731
0.115272
0.220983
21.7856
3.38118
1.2155
0.654448
0.433272
0.319956
0.252009
0.207173
0.175497
0.152149
0.134056
0.119941
0.108223
0.0988283
0.0906123
0.0839038
0.077797
0.0729344
0.067902
0.0646653
0.0601215
0.0581774
0.0549662
0.0581816
0.0831794
0.0631673
0.0591228
0.0564556
0.0491891
0.0497992
0.0750203
0.0961107
0.116602
0.123803
0.133005
0.14238
0.150931
0.146985
0.146085
0.143577
0.144644
0.1389
0.135981
0.135073
0.128346
0.1278
0.122445
0.117597
0.108454
0.104253
0.100504
0.102042
0.203407
0.365052
21.7867
3.38146
1.21574
0.654571
0.433306
0.319928
0.251955
0.207106
0.175423
0.152062
0.133976
0.119837
0.10814
0.0986783
0.0904943
0.0835564
0.0776402
0.0720936
0.0677575
0.0632561
0.0595842
0.0565963
0.0532818
0.0510988
0.0496742
0.0497311
0.0443668
0.0432095
0.0453821
0.0497195
0.0722163
0.103415
0.107468
0.110785
0.128357
0.133714
0.145332
0.143976
0.144587
0.140146
0.136674
0.116924
0.112288
0.109914
0.107145
0.109601
0.104161
0.110015
0.105903
0.0956618
0.0819134
0.0881811
0.0997673
0.123134
21.786
3.3815
1.2176
0.655881
0.433901
0.320199
0.252127
0.207233
0.175585
0.152175
0.134169
0.119933
0.108389
0.0988639
0.0909172
0.0841242
0.0783672
0.073302
0.0688949
0.0648459
0.0615941
0.0578089
0.0559338
0.0530536
0.0509131
0.0482012
0.0463364
0.0446192
0.043064
0.0464643
0.0666573
0.0928225
0.110674
0.13004
0.132422
0.138729
0.146186
0.148549
0.147789
0.147339
0.143003
0.138041
0.132862
0.129577
0.123687
0.121714
0.117174
0.1109
0.10139
0.0930722
0.0903751
0.0926614
0.134634
0.159677
21.7866
3.38148
1.21601
0.654814
0.433449
0.320003
0.252023
0.207147
0.175502
0.152076
0.13409
0.119804
0.10831
0.0986056
0.0907235
0.083513
0.0779009
0.0721939
0.0680751
0.0634297
0.0603039
0.0564245
0.0539462
0.0504251
0.0474522
0.0459166
0.0427271
0.0420012
0.0411101
0.043364
0.0717251
0.0913755
0.130606
0.155712
0.155543
0.163195
0.175127
0.166721
0.163838
0.156125
0.13836
0.129515
0.130225
0.126145
0.123087
0.11837
0.0995705
0.116283
0.108993
0.0812853
0.087126
0.0794899
0.0803146
0.0854501
21.7863
3.38161
1.21652
0.655202
0.433657
0.320158
0.252136
0.207282
0.175612
0.152239
0.134207
0.120008
0.10841
0.0988975
0.0907922
0.0840225
0.0780146
0.0730483
0.0684212
0.0646372
0.0610788
0.0578949
0.0553117
0.0524133
0.0495593
0.0478204
0.0443903
0.0433763
0.0403294
0.0413073
0.0551271
0.0770785
0.0999882
0.121321
0.131047
0.150348
0.155898
0.151868
0.150853
0.145185
0.142717
0.134143
0.133296
0.129345
0.121592
0.109088
0.0984413
0.0795915
0.0854221
0.081013
0.0763901
0.0664702
0.0792116
0.0966399
21.7872
3.38186
1.21645
0.655075
0.433576
0.320071
0.252075
0.207184
0.175562
0.152117
0.134168
0.119873
0.10837
0.0987624
0.0906942
0.0838318
0.0777521
0.0726577
0.0679108
0.0639643
0.060206
0.0571307
0.0539639
0.0511329
0.0484767
0.0459096
0.0438753
0.0491987
0.0419854
0.0416235
0.0548782
0.0947257
0.112223
0.140428
0.186956
0.202562
0.188191
0.159483
0.159865
0.169137
0.158677
0.139714
0.137521
0.13551
0.132111
0.120985
0.086428
0.104389
0.0955527
0.0744596
0.0554645
0.0657846
0.0598447
0.0781338
21.7869
3.38203
1.21656
0.655128
0.433622
0.320175
0.252176
0.207325
0.175664
0.152305
0.134255
0.120111
0.108446
0.0990264
0.0908249
0.0840646
0.0780228
0.0728309
0.0683098
0.0641803
0.0606456
0.0575095
0.054614
0.0523363
0.0500726
0.0476339
0.0446876
0.0443431
0.0408492
0.041101
0.0516794
0.0711582
0.0913647
0.106422
0.120746
0.134171
0.135116
0.145314
0.139409
0.133051
0.138741
0.133004
0.123058
0.111653
0.0972725
0.0827266
0.0702647
0.0601071
0.0523235
0.0492121
0.0448664
0.0501932
0.0508646
0.0692044
21.787
3.38167
1.21661
0.655171
0.433611
0.320111
0.252116
0.207232
0.175619
0.152181
0.134245
0.119944
0.108486
0.0988294
0.0908793
0.0839059
0.0780395
0.0727534
0.0683827
0.0640218
0.0609787
0.0572436
0.054814
0.0520676
0.0494383
0.047779
0.0439503
0.0434262
0.0397955
0.0463259
0.0518866
0.0712838
0.0987089
0.111097
0.123794
0.142372
0.145664
0.139372
0.162945
0.196433
0.192304
0.198011
0.167634
0.141338
0.110578
0.0862992
0.063576
0.0651483
0.0601822
0.0563439
0.0540032
0.05684
0.0672507
0.0739742
21.7868
3.38191
1.21664
0.655211
0.433684
0.3202
0.252222
0.207348
0.175744
0.152318
0.134381
0.120103
0.108623
0.099013
0.0910217
0.0841246
0.0781908
0.0730749
0.0684439
0.0645843
0.0609078
0.05783
0.0550832
0.0525819
0.0503663
0.0487432
0.0451844
0.0438702
0.040661
0.0404083
0.0396763
0.044488
0.0587703
0.0756259
0.089996
0.090801
0.0923795
0.0979479
0.100979
0.105232
0.107864
0.100994
0.0888582
0.0750755
0.0634298
0.0542155
0.0484767
0.0436265
0.041572
0.0409721
0.0403594
0.0525049
0.0738393
0.0826177
21.7873
3.38196
1.21646
0.655139
0.433629
0.320145
0.252146
0.207286
0.175647
0.152267
0.13426
0.120081
0.108479
0.0990361
0.0908608
0.0841763
0.0780246
0.0730833
0.0683369
0.0644898
0.0608924
0.0577191
0.0551293
0.0524997
0.0501673
0.0485866
0.0448455
0.0436782
0.0402637
0.0396281
0.0390718
0.0449137
0.0622147
0.0809253
0.0927784
0.104572
0.106199
0.113071
0.113057
0.124422
0.132052
0.124067
0.100085
0.077369
0.0606043
0.0502804
0.0439401
0.0409739
0.0397499
0.0393789
0.0412088
0.0481804
0.0729757
0.0828645
21.787
3.38215
1.2166
0.655204
0.433716
0.320239
0.252262
0.207394
0.17579
0.152383
0.134432
0.120204
0.108662
0.099183
0.0910128
0.0844201
0.078125
0.0734684
0.0685045
0.0648321
0.0613457
0.0580664
0.055431
0.052355
0.050452
0.0481385
0.0461126
0.0443423
0.0417772
0.0402082
0.0411623
0.0490025
0.0629012
0.0583471
0.0618775
0.072513
0.0715441
0.0753796
0.076589
0.0746112
0.0687412
0.0607063
0.0530722
0.0472168
0.0434155
0.040576
0.0393063
0.0374939
0.037413
0.0381109
0.0438814
0.0636531
0.133626
0.166973
21.787
3.38185
1.21652
0.65509
0.433603
0.32014
0.252171
0.20731
0.1757
0.152301
0.134347
0.120115
0.108619
0.0990517
0.0910872
0.0841602
0.07835
0.0730517
0.0686685
0.0645393
0.0610603
0.0579112
0.0553135
0.052439
0.0505915
0.0479648
0.0466579
0.0435948
0.0424557
0.0392807
0.0411734
0.0434846
0.0617243
0.0546422
0.0580044
0.0681866
0.0793509
0.0749682
0.0777826
0.0769444
0.0695042
0.0595352
0.0505396
0.0444031
0.0407287
0.0386525
0.0374851
0.0357746
0.0355549
0.0364572
0.0418812
0.0554958
0.124925
0.15144
21.7868
3.38194
1.21647
0.655139
0.43369
0.320249
0.252272
0.207441
0.175811
0.152456
0.134469
0.120284
0.108753
0.0992261
0.0912242
0.0843598
0.0784735
0.0733335
0.0687512
0.0649832
0.0610717
0.0586046
0.0554001
0.0527
0.0503229
0.0480188
0.0464516
0.0440279
0.0427855
0.0396816
0.0395352
0.0413106
0.0489515
0.046404
0.0478546
0.0493686
0.0528305
0.0544356
0.0535647
0.0508927
0.04748
0.0442102
0.0416756
0.0398979
0.0386122
0.0377313
0.0371147
0.0359753
0.0358338
0.0393681
0.0548967
0.112455
0.245485
0.193545
21.7871
3.38189
1.21673
0.655234
0.433674
0.320174
0.252202
0.207342
0.175743
0.152351
0.134406
0.120185
0.108698
0.0991458
0.0911915
0.084288
0.0784878
0.0732288
0.0688667
0.0647314
0.0614136
0.0580828
0.0556258
0.053089
0.0507799
0.048283
0.0470384
0.0438396
0.0424032
0.0408912
0.0400993
0.0405321
0.046301
0.0427996
0.0435983
0.0445077
0.0469398
0.0486456
0.0477386
0.0456223
0.0431598
0.0411847
0.0395981
0.0385606
0.0377169
0.0371495
0.0365872
0.0352501
0.0351232
0.0382294
0.0464656
0.0929667
0.228879
0.207954
21.7869
3.3821
1.21652
0.655111
0.43367
0.320243
0.252296
0.20746
0.175861
0.152489
0.134535
0.120342
0.108824
0.099329
0.0912979
0.0845065
0.0785727
0.0734649
0.0689466
0.0649623
0.0615019
0.0583434
0.0556903
0.0535806
0.0498916
0.0482996
0.0461784
0.0449225
0.0433333
0.0427331
0.0390369
0.0380237
0.0384806
0.0378108
0.0372293
0.0371975
0.0404476
0.0384318
0.0402281
0.0406955
0.0402974
0.0395514
0.0387649
0.038197
0.037547
0.0369338
0.0361306
0.0348885
0.0349995
0.0438578
0.0635371
0.226427
0.471468
0.365623
21.7868
3.38174
1.21645
0.655066
0.433601
0.320169
0.252215
0.207369
0.175777
0.152393
0.134455
0.120245
0.10876
0.0992321
0.0912673
0.0844161
0.0785766
0.0734009
0.068974
0.0649324
0.061548
0.0583656
0.0556905
0.053709
0.0498814
0.0483315
0.0462577
0.0449239
0.0435467
0.0425292
0.0398148
0.0387448
0.038832
0.0364845
0.036362
0.0361654
0.0392399
0.0369794
0.038889
0.0397999
0.0395802
0.0392496
0.0386425
0.038126
0.0373713
0.036452
0.034387
0.034145
0.0344149
0.0405587
0.0532469
0.120117
0.221997
0.216728
21.7866
3.38191
1.2165
0.655131
0.433679
0.320248
0.252308
0.207478
0.175891
0.152523
0.134584
0.120392
0.108893
0.0993956
0.0913938
0.0845965
0.0786938
0.0735838
0.0690742
0.0651093
0.0616183
0.0585234
0.0558205
0.0534358
0.0513525
0.0495055
0.0478776
0.0464854
0.0452179
0.0441875
0.0430626
0.0424682
0.0413023
0.0418877
0.039392
0.0401369
0.040581
0.0403754
0.0400153
0.0394256
0.0388959
0.0381952
0.0376448
0.0370309
0.0365203
0.0355807
0.0341673
0.0344312
0.0348764
0.0458396
0.0838729
0.300798
0.455905
0.398234
21.7867
3.38169
1.21648
0.655091
0.433611
0.32018
0.25223
0.207392
0.175807
0.152433
0.134501
0.120302
0.108822
0.0993108
0.0913488
0.0845278
0.0786831
0.0735561
0.0690959
0.0651354
0.061665
0.0585636
0.0558835
0.0534724
0.0513816
0.0495558
0.047931
0.0464727
0.0453191
0.0440717
0.043207
0.0420565
0.0414397
0.0406789
0.0403752
0.0399984
0.0396516
0.0393148
0.0387687
0.0382479
0.0376094
0.0369375
0.0362545
0.0355119
0.0343495
0.0335343
0.0331067
0.0339357
0.0374684
0.0456901
0.0776994
0.150057
0.194451
0.218479
21.7865
3.38189
1.21641
0.655085
0.433672
0.320266
0.252331
0.207507
0.175925
0.152563
0.134628
0.120445
0.108949
0.0994648
0.0914661
0.0846877
0.0787821
0.0737038
0.0691661
0.0652523
0.0616962
0.058654
0.055884
0.0535295
0.0513852
0.0495867
0.0479157
0.0465534
0.0452271
0.0442149
0.0432616
0.042535
0.0418225
0.0413527
0.0408183
0.04038
0.0398514
0.0393247
0.0387402
0.0381456
0.0375995
0.0370095
0.0364253
0.0358702
0.0350759
0.0335284
0.0337768
0.0342762
0.040825
0.0636116
0.093967
0.162744
0.217277
0.244635
21.7864
3.38155
1.2162
0.654913
0.433537
0.320157
0.252233
0.207407
0.17583
0.15246
0.134535
0.120339
0.108866
0.0993612
0.091406
0.084595
0.0787541
0.0736333
0.0691675
0.0651983
0.0617039
0.0585948
0.0558734
0.0534694
0.0513971
0.0495609
0.0479858
0.0465441
0.0453265
0.0442176
0.0432635
0.0424152
0.0416423
0.0409793
0.0403071
0.0397062
0.0390418
0.0383302
0.0377199
0.0369351
0.036352
0.0356705
0.0347906
0.033956
0.0328907
0.0327162
0.0341593
0.0366743
0.0488265
0.0813171
0.189039
0.279547
0.35345
0.339437
21.7862
3.38173
1.21631
0.654968
0.433623
0.320244
0.252328
0.207515
0.175941
0.152585
0.134658
0.120476
0.108997
0.0995042
0.0915377
0.0847391
0.078884
0.0737763
0.0693008
0.0653502
0.061861
0.0587863
0.0560615
0.0537033
0.0515917
0.0497772
0.0481519
0.0467519
0.0454871
0.044372
0.0433942
0.0425671
0.0418112
0.0411755
0.0404891
0.0398941
0.0392163
0.0385498
0.0379156
0.0372415
0.0365817
0.0360185
0.0350808
0.0341455
0.0334358
0.0328708
0.0350179
0.0351784
0.0533857
0.109034
0.252061
0.205137
0.396097
0.279744
21.7863
3.38166
1.2163
0.654975
0.433568
0.320171
0.252246
0.207428
0.175852
0.152494
0.134568
0.120388
0.108912
0.0994265
0.0914678
0.0846832
0.0788424
0.0737547
0.0692965
0.0653583
0.061874
0.0587791
0.056062
0.0536492
0.0515494
0.0496656
0.048049
0.0465532
0.0453118
0.0441159
0.0431649
0.0421691
0.0414153
0.0405401
0.039852
0.0390775
0.0382967
0.0376645
0.0367433
0.0361797
0.0352882
0.0345676
0.0336875
0.0326289
0.0337781
0.0343595
0.0435755
0.0397357
0.0865318
0.156075
0.310226
0.489584
0.445525
0.607363
21.7862
3.38185
1.21631
0.65499
0.43362
0.320246
0.252336
0.207529
0.17596
0.152611
0.134687
0.120516
0.109035
0.0995599
0.0915871
0.0848155
0.0789513
0.0738762
0.0693906
0.0654669
0.0619683
0.058898
0.056186
0.0537884
0.0517042
0.0498353
0.0482327
0.0467681
0.0455429
0.0443684
0.043419
0.0424508
0.0417006
0.0408369
0.0401877
0.0393553
0.0387125
0.0379255
0.0371736
0.0365278
0.0356125
0.0348286
0.033855
0.0327515
0.0335073
0.0349827
0.0415557
0.0443385
0.0870593
0.116775
0.435407
0.462749
0.50287
0.669125
21.7887
3.38255
1.21693
0.655216
0.43354
0.320013
0.252032
0.207199
0.175612
0.152262
0.134329
0.120162
0.108681
0.0992211
0.091286
0.0845689
0.0788166
0.0738469
0.069538
0.0657279
0.0624047
0.0593986
0.0567964
0.0543866
0.0523319
0.0503674
0.0487237
0.0471213
0.0458228
0.0445101
0.043509
0.0423965
0.0416075
0.0406731
0.0398887
0.0391845
0.038351
0.0375274
0.0363295
0.0351574
0.0344023
0.0331572
0.0332344
0.03424
0.0378695
0.0398574
0.0565433
0.0420911
0.194352
0.178886
0.48982
0.58316
0.72442
0.708214