/*--------------------------------*- C++ -*----------------------------------*\
| =========                 |                                                 |
| \\      /  F ield         | OpenFOAM: The Open Source CFD Toolbox           |
|  \\    /   O peration     | Version:  4.1                                   |
|   \\  /    A nd           | Web:      www.OpenFOAM.org                      |
|    \\/     M anipulation  |                                                 |
\*---------------------------------------------------------------------------*/
FoamFile
{
    version     2.0;
    format      ascii;
    class       surfaceScalarField;
    location    "89";
    object      phi;
}
// * * * * * * * * * * * * * * * * * * * * * * * * * * * * * * * * * * * * * //

dimensions      [0 3 -1 0 0 0 0];

internalField   nonuniform List<scalar> 
11516
(
9.98775e+06
17.242
9145.92
9.96821e+06
48.8225
19877.1
9.93958e+06
62.089
28972.8
9.90227e+06
64.8242
37656.5
9.8562e+06
65.4731
46428.6
9.80111e+06
67.9923
55453.7
9.73672e+06
68.5731
64780
9.66278e+06
67.9341
74350.2
9.57914e+06
71.4065
84055.9
9.48558e+06
69.8874
93987.9
9.38225e+06
71.6529
103775
9.27007e+06
81.7608
112644
9.15094e+06
-11.7952
119750
9.02956e+06
-152.766
122162
8.91628e+06
-1536.31
115431
8.82601e+06
-2415
93259.6
8.77541e+06
-921.3
52208.4
8.77293e+06
-473.145
3439.36
8.77496e+06
32.3807
-1704.44
8.73742e+06
1163.48
36617.6
8.6675e+06
-1125.63
71206.4
8.56695e+06
-4822.8
105505
8.44221e+06
-7850.16
132693
8.30037e+06
-10400
152359
8.14267e+06
-12434.8
170251
7.98789e+06
-14095.2
169000
7.84794e+06
-12030
152125
7.72823e+06
-7170.15
127062
7.62637e+06
-7022.93
109168
7.53697e+06
-12094.6
101887
7.44097e+06
-20424.2
116859
7.30396e+06
-29085.8
166358
7.12769e+06
-29278.9
205451
6.95684e+06
-16544.4
186817
6.83451e+06
-662.527
122323
6.72921e+06
5203.95
99899.8
6.61759e+06
4690.13
107658
6.51404e+06
2600.85
101853
6.43228e+06
1156.84
80810.6
6.38028e+06
1636.87
50382.3
6.34909e+06
3344.55
27929.4
6.32665e+06
5329.03
16814
6.30844e+06
6264.59
11468.3
6.30139e+06
7279.35
-1116.31
6.30795e+06
8528.23
-16822.3
6.32675e+06
9400.26
-29980.3
6.3548e+06
11897.4
-40191.3
6.39448e+06
13800.1
-52202.6
6.44124e+06
13906.4
-59986.7
6.50047e+06
17522.2
-75889
6.57413e+06
14172.5
-84435.2
6.6364e+06
6208.77
-67664.6
6.70081e+06
4539.13
-63982.1
5340.52
-65201.7
9.98777e+06
9145.32
9.96821e+06
19873.6
9.93956e+06
28977.3
9.90224e+06
37657.9
9.85617e+06
46421.6
9.80108e+06
55447.7
9.7367e+06
64762.2
9.66276e+06
74322
9.57913e+06
84025.2
9.48558e+06
93942.2
9.38225e+06
103752
9.27009e+06
112626
9.15055e+06
119937
9.0279e+06
122933
8.90942e+06
117387
8.81385e+06
93684.8
8.76534e+06
48159.3
8.76915e+06
-3889.48
8.77633e+06
-6877.12
8.74104e+06
36624.6
8.67172e+06
68310
8.5729e+06
94078.1
8.44899e+06
116135
8.30437e+06
134296
8.13941e+06
152607
7.97483e+06
150572
7.82383e+06
139093
7.68915e+06
127676
7.57002e+06
112367
7.4701e+06
88184.8
7.38035e+06
69679.4
7.2678e+06
83547.7
7.11464e+06
123680
6.93913e+06
158460
6.7885e+06
149674
6.6562e+06
137705
6.52306e+06
138335
6.40402e+06
121809
6.30631e+06
98814.2
6.23583e+06
71989.9
6.18634e+06
52643.7
6.14808e+06
43426.3
6.117e+06
36925.5
6.10226e+06
20839.4
6.10643e+06
3429.45
6.12965e+06
-14360
6.16547e+06
-23565.1
6.21214e+06
-32188.5
6.26879e+06
-42788.5
6.35673e+06
-67539.3
6.45994e+06
-90072.7
6.54424e+06
-74712.3
6.61792e+06
-67311.6
-72833.6
1.00059e+07
16.2509
5317.4
1.00116e+07
42.4204
14467.2
1.00175e+07
53.2186
23379.8
1.00231e+07
55.6693
32356.5
1.00283e+07
58.4717
41554.3
1.0033e+07
60.4128
51090.7
1.00371e+07
62.4214
61042.6
1.00405e+07
65.886
71266.6
1.00425e+07
67.7743
82410.3
1.0043e+07
75.1152
93763.6
1.00415e+07
78.6729
105668
1.00369e+07
72.362
117728
1.00271e+07
153.646
129964
1.00086e+07
256.343
141115
9.96826e+06
1705.79
154822
9.89524e+06
2098.78
165054
9.77069e+06
2305.12
175629
9.57933e+06
1264.97
194012
9.36784e+06
-1014.68
210977
9.18299e+06
-1357.27
222931
9.02258e+06
209.98
231475
8.88477e+06
1878.95
241475
8.75905e+06
3215.52
255234
8.63599e+06
4350.56
271101
8.51697e+06
4981.47
284342
8.39642e+06
5693.43
283923
8.27058e+06
6284.5
271777
8.12763e+06
7817.47
262336
7.97475e+06
11638.2
250573
7.82244e+06
14610.5
239790
7.67042e+06
17834
251246
7.5322e+06
20976.5
283697
7.42321e+06
17271.3
297221
7.33615e+06
6044.15
267881
7.26053e+06
-7893.39
205390
7.18698e+06
-21610.4
194891
7.11058e+06
-30140.5
213959
7.03412e+06
-30917.7
208664
6.94966e+06
-26975.9
191776
6.87969e+06
-22094.7
142131
6.82436e+06
-23318.7
106274
6.77295e+06
-29790.8
97664.5
6.73527e+06
-33208.8
81514.2
6.7156e+06
-34874.6
52203.6
6.71142e+06
-36500.3
22632.9
6.71977e+06
-36962.1
-2087.49
6.73811e+06
-38928.4
-19572.2
6.76073e+06
-40586.6
-33420.4
6.78006e+06
-44874.5
-33804.4
6.81405e+06
-56618.1
-53098
6.85374e+06
-37989.6
-86329.2
6.9054e+06
-21373.8
-96919.8
6.9671e+06
-13531.2
-109967
-10846.4
-120197
1.00059e+07
5316.96
1.00116e+07
14463.9
1.00175e+07
23376.6
1.00231e+07
32351.5
1.00283e+07
41547.1
1.0033e+07
51083.5
1.00371e+07
61035.2
1.00405e+07
71256.8
1.00424e+07
82404.3
1.0043e+07
93750.5
1.00415e+07
105656
1.00368e+07
117757
1.00274e+07
129884
1.00098e+07
141270
9.97729e+06
152224
9.91109e+06
162765
9.78233e+06
179963
9.58618e+06
193793
9.36901e+06
209397
9.18424e+06
220099
9.02649e+06
226303
8.88905e+06
233429
8.76467e+06
243755
8.64405e+06
259296
8.52939e+06
272285
8.41345e+06
272278
8.29053e+06
268406
8.15837e+06
267805
8.02429e+06
258315
7.88971e+06
237667
7.73718e+06
240258
7.57286e+06
269002
7.43503e+06
278847
7.34878e+06
250915
7.29006e+06
200217
7.23985e+06
165900
7.19152e+06
156390
7.13967e+06
142556
7.08906e+06
122302
7.06066e+06
78037.8
7.03633e+06
53429.4
7.00627e+06
43160.1
6.98431e+06
24702.6
6.97293e+06
-3559.91
6.97122e+06
-32208.1
6.97623e+06
-56646.5
6.9871e+06
-72893.9
6.99611e+06
-81212.5
6.99832e+06
-89612
6.97775e+06
-104204
6.97337e+06
-123385
7.0109e+06
-132208
7.0589e+06
-129708
-156552
9.99928e+06
15.7563
6699.76
9.99414e+06
39.2676
19902.9
9.985e+06
50.6877
32806.2
9.97187e+06
53.2547
45773.2
9.95478e+06
55.0217
58929.4
9.93379e+06
56.04
72377.2
9.90913e+06
55.7581
86007.1
9.88023e+06
56.0149
100478
9.84793e+06
58.3895
115038
9.81153e+06
63.8595
130507
9.77149e+06
70.1524
146085
9.72747e+06
89.0008
162155
9.67897e+06
124.157
178922
9.62417e+06
267.283
196358
9.56502e+06
341.096
214532
9.49355e+06
888.283
236831
9.41125e+06
761.843
258302
9.32628e+06
1174.61
278062
9.23183e+06
550.802
305005
9.12589e+06
548.367
328404
9.01146e+06
954.066
345008
8.89602e+06
1623.09
355340
8.78158e+06
2576.45
367127
8.66627e+06
4144.62
382307
8.54753e+06
4884.08
398257
8.42157e+06
6249.75
403745
8.28067e+06
8855.5
403996
8.11647e+06
12085.4
414688
7.93455e+06
14424.8
418375
7.74037e+06
13270.8
421003
7.53256e+06
11405.4
447928
7.33436e+06
14057
468162
7.15613e+06
22764
453060
7.00253e+06
31632.9
389270
6.90354e+06
24830
278166
6.82038e+06
-809.728
277730
6.72393e+06
-17798.3
327523
6.61967e+06
-18523.7
331358
6.52495e+06
-11110.8
298452
6.47991e+06
-2801.08
190160
6.45647e+06
-11269.6
140870
6.4279e+06
-23560.1
149051
6.40717e+06
-28615.5
129198
6.40459e+06
-28869.5
82258.1
6.41429e+06
-28488.1
40180.4
6.43272e+06
-27687.1
6372.61
6.46349e+06
-28170.4
-22542.3
6.50582e+06
-28800.3
-47956.2
6.56923e+06
-30929.5
-67183.3
6.64654e+06
-27011.4
-104021
6.70209e+06
-13937.3
-127843
6.7485e+06
-8226.8
-134158
6.78797e+06
-9720.94
-141035
-11155.2
-164087
9.9993e+06
6699.31
9.99413e+06
19901.7
9.98499e+06
32804.8
9.97185e+06
45771.3
9.95477e+06
58927
9.93377e+06
72374.7
9.90911e+06
86004.8
9.88021e+06
100475
9.84791e+06
115035
9.8115e+06
130503
9.77146e+06
146079
9.72752e+06
162145
9.67905e+06
178893
9.62478e+06
196309
9.56349e+06
214507
9.4919e+06
236084
9.41346e+06
259884
9.32702e+06
281635
9.2325e+06
304548
9.12819e+06
325004
9.01551e+06
339985
8.90191e+06
348681
8.78908e+06
359201
8.67273e+06
379823
8.55314e+06
396823
8.4273e+06
404467
8.28909e+06
415639
8.13565e+06
433583
7.9664e+06
442323
7.77429e+06
443395
7.56313e+06
463128
7.36474e+06
481772
7.19911e+06
467686
7.07683e+06
404291
6.99926e+06
301330
6.9157e+06
246075
6.82977e+06
222754
6.74393e+06
210536
6.66256e+06
194384
6.61782e+06
121728
6.5858e+06
74272.3
6.54382e+06
60473.2
6.51656e+06
21530.4
6.50648e+06
-23775.6
6.50835e+06
-63276.3
6.52006e+06
-96317.2
6.54331e+06
-124753
6.5789e+06
-146526
6.62425e+06
-167291
6.68547e+06
-192843
6.73694e+06
-188435
6.7788e+06
-182934
6.82e+06
-179950
-216328
9.9989e+06
15.3623
8542.9
9.99375e+06
38.2396
25347.4
9.98481e+06
49.2742
42033.4
9.97194e+06
51.4159
58929
9.955e+06
52.6802
76153.2
9.93405e+06
53.7895
93615.6
9.90835e+06
53.7607
112018
9.87831e+06
54.6263
130838
9.84352e+06
58.0016
150164
9.80392e+06
63.8792
170445
9.75902e+06
70.892
191348
9.70824e+06
84.5817
213341
9.65126e+06
97.9807
236358
9.58775e+06
166.052
260380
9.51633e+06
200.001
286599
9.43795e+06
695.27
315603
9.34829e+06
413.307
348549
9.2522e+06
328.447
374290
9.16322e+06
482.845
393648
9.07629e+06
894.56
414534
8.98362e+06
1254.55
436517
8.88339e+06
1305.89
454335
8.77111e+06
1216.4
478261
8.64762e+06
1540.96
504333
8.51345e+06
1127.08
531382
8.3642e+06
1087.52
552062
8.19235e+06
2893.38
573177
7.99029e+06
4540.36
612476
7.75234e+06
3368.94
653302
7.48827e+06
3104.28
682322
7.23305e+06
3939.87
699547
7.01025e+06
6491.57
684774
6.82727e+06
12547.1
623425
6.71853e+06
21775.6
476100
6.70199e+06
19699.8
274427
6.66323e+06
-18240.9
333003
6.56117e+06
-41939.3
469719
6.43371e+06
-44256.9
504978
6.3026e+06
-38799.6
470356
6.24416e+06
-13746.8
263958
6.21556e+06
-10705.1
180329
6.18898e+06
-19265.6
194149
6.17074e+06
-20975.8
165994
6.17283e+06
-18751.2
96941.2
6.18812e+06
-16475.6
40463.7
6.21332e+06
-14518.6
-5335.21
6.24738e+06
-13606.7
-44713
6.29303e+06
-12121.4
-84083.6
6.35741e+06
-10805.4
-123081
6.43183e+06
-21367.2
-157470
6.5162e+06
-22387.6
-187735
6.59596e+06
-18863.3
-194907
6.67527e+06
-17332.3
-201977
-10075.2
-209199
9.99893e+06
8543.17
9.99375e+06
25347.5
9.9848e+06
42031.5
9.97192e+06
58926.6
9.95499e+06
76150.7
9.93404e+06
93612.5
9.90834e+06
112014
9.87829e+06
130834
9.84349e+06
150160
9.8039e+06
170441
9.75901e+06
191345
9.70825e+06
213335
9.65128e+06
236355
9.58791e+06
260332
9.51672e+06
286530
9.43902e+06
315274
9.35146e+06
348550
9.2543e+06
379453
9.16503e+06
394423
9.07856e+06
412453
8.98611e+06
433760
8.88416e+06
452015
8.76939e+06
475260
8.64557e+06
505247
8.51192e+06
531676
8.3597e+06
557898
8.18336e+06
595019
7.98048e+06
641199
7.74778e+06
678632
7.49299e+06
701530
7.25159e+06
708703
7.04225e+06
697845
6.86411e+06
658254
6.74243e+06
547425
6.70845e+06
353855
6.65678e+06
277945
6.57959e+06
258292
6.47766e+06
270571
6.37784e+06
258994
6.31947e+06
168359
6.27578e+06
107060
6.23639e+06
79635.7
6.20931e+06
26055.7
6.20271e+06
-36742.4
6.21195e+06
-89479.9
6.23535e+06
-134927
6.2709e+06
-175081
6.32272e+06
-212229
6.38199e+06
-238686
6.45881e+06
-290457
6.53541e+06
-287442
6.61001e+06
-274741
6.69187e+06
-279443
-295696
9.99892e+06
15.2644
10366.3
9.99385e+06
38.5245
30703.5
9.9851e+06
49.294
51062.1
9.97251e+06
51.0541
71791.7
9.95598e+06
52.0705
92965
9.93538e+06
53.1567
114499
9.91059e+06
53.2605
137111
9.88163e+06
54.1374
160111
9.84791e+06
57.3267
184206
9.80939e+06
62.224
209304
9.76579e+06
68.5217
235305
9.7168e+06
75.7952
262735
9.66242e+06
91.9238
291200
9.60176e+06
110.38
321585
9.53472e+06
210.963
354254
9.46139e+06
266.036
389751
9.37994e+06
1014.06
430206
9.28068e+06
1135.4
473379
9.17547e+06
964.186
498202
9.07379e+06
1249.93
515235
8.97456e+06
2015.07
533948
8.86819e+06
1636.24
559336
8.74607e+06
454.666
600111
8.60491e+06
-401.803
646055
8.44576e+06
-2804.27
693465
8.25888e+06
-3864.07
742980
8.04301e+06
-1573.22
790801
7.80209e+06
432.333
853147
7.54045e+06
-1027.66
916157
7.27626e+06
-1787.05
948504
7.03618e+06
89.3216
939725
6.82706e+06
4565.08
889446
6.66158e+06
10651.5
778785
6.57333e+06
22465.7
542159
6.61166e+06
47987.2
188439
6.51974e+06
-46868.7
471289
6.39766e+06
-139150
730187
6.24759e+06
-153921
808980
6.09275e+06
-153004
780503
6.02862e+06
-98531.2
427094
6.00221e+06
-43715.9
250443
5.9752e+06
-38821.3
259678
5.98289e+06
-30474.9
188483
5.99294e+06
-29134.1
116710
6.01241e+06
-29711.1
51389.1
6.0444e+06
-28841.4
-7992.74
6.08792e+06
-28039.8
-60072.4
6.14038e+06
-28033.5
-108351
6.19433e+06
-25593.8
-151651
6.25668e+06
-36723
-182325
6.32167e+06
-36505.7
-216555
6.3942e+06
-29229.4
-235310
6.46548e+06
-28281.3
-243631
-19284.2
-235214
9.99894e+06
10365.5
9.99384e+06
30701.6
9.98509e+06
51060.2
9.9725e+06
71789.4
9.95597e+06
92962.2
9.93537e+06
114496
9.91058e+06
137106
9.88161e+06
160107
9.84789e+06
184202
9.80937e+06
209301
9.76578e+06
235302
9.71679e+06
262730
9.66244e+06
291193
9.60179e+06
321563
9.53492e+06
354215
9.46152e+06
389673
9.38191e+06
429961
9.2892e+06
473906
9.18466e+06
500331
9.08042e+06
518269
8.97739e+06
539071
8.8631e+06
568200
8.73483e+06
604171
8.59422e+06
645577
8.43218e+06
691017
8.24065e+06
745675
8.03061e+06
803585
7.80068e+06
871678
7.55147e+06
926927
7.29758e+06
953776
7.06382e+06
942693
6.86422e+06
902065
6.71602e+06
817368
6.65083e+06
635775
6.67817e+06
378168
6.6564e+06
257495
6.54357e+06
233117
6.39865e+06
261548
6.25443e+06
250101
6.17736e+06
146191
6.1327e+06
107989
6.09902e+06
74687.1
6.09209e+06
3187.68
6.1039e+06
-77022.2
6.13002e+06
-144577
6.16934e+06
-202285
6.21848e+06
-251540
6.27041e+06
-291700
6.32306e+06
-316589
6.35136e+06
-355821
6.38486e+06
-356712
6.442e+06
-360722
6.49804e+06
-364034
-355761
9.99895e+06
14.5316
12134.3
9.99399e+06
36.6745
35941.6
9.98548e+06
46.9749
59838.7
9.97331e+06
48.8247
84234.9
9.95745e+06
49.8224
109091
9.93749e+06
50.8581
134737
9.91358e+06
50.9883
161308
9.88545e+06
51.8931
188548
9.85289e+06
54.9709
217085
9.81586e+06
59.6406
246659
9.77375e+06
65.377
277763
9.72671e+06
72.1986
310163
9.67435e+06
84.6855
344010
9.61653e+06
99.0603
379929
9.55355e+06
156.008
417863
9.4855e+06
239.272
458517
9.4146e+06
657.572
501682
9.33713e+06
1312.4
550820
9.24293e+06
1998.77
591412
9.13212e+06
1941.8
625078
9.01017e+06
2286.65
654535
8.87849e+06
522.813
691383
8.74576e+06
-1349.62
734588
8.59914e+06
-2736.79
795678
8.42139e+06
-6049.71
877487
8.20032e+06
-6081.4
970355
7.94439e+06
-2438.84
1.04937e+06
7.6826e+06
1859.52
1.11325e+06
7.42331e+06
1975.61
1.17364e+06
7.17036e+06
1235.79
1.20038e+06
6.93143e+06
2974.55
1.17587e+06
6.70813e+06
9369.52
1.10404e+06
6.48935e+06
21454.6
976941
6.25505e+06
78784
699171
5.84746e+06
334074
266395
5.39536e+06
210739
715205
5.14641e+06
41012
936547
5.17912e+06
-59676.7
829259
5.32069e+06
-156225
788702
5.43724e+06
-198700
507552
5.49245e+06
-116414
311506
5.56004e+06
-91782.9
285875
5.5999e+06
-56121.3
207867
5.64287e+06
-56074.4
132219
5.69137e+06
-57058.9
62553.3
5.74183e+06
-54617.9
-114.563
5.79282e+06
-49236.7
-57792.1
5.84751e+06
-45821.8
-114101
5.89707e+06
-38764.4
-161402
5.93559e+06
-21988.8
-200648
5.96294e+06
-9429.89
-235057
5.99068e+06
2137.66
-263504
6.0072e+06
13373.4
-274838
32952.3
-294435
9.99897e+06
12134.5
9.99398e+06
35940.9
9.98547e+06
59835.4
9.9733e+06
84230.9
9.95744e+06
109087
9.93748e+06
134733
9.91357e+06
161303
9.88543e+06
188542
9.85286e+06
217079
9.81584e+06
246654
9.77373e+06
277757
9.7267e+06
310158
9.67435e+06
344003
9.61655e+06
379918
9.55362e+06
417851
9.48583e+06
458395
9.41563e+06
501666
9.34336e+06
548455
9.25507e+06
591615
9.14622e+06
629984
9.02236e+06
666001
8.88723e+06
704587
8.74336e+06
747203
8.58499e+06
801405
8.39909e+06
871033
8.17878e+06
960049
7.94326e+06
1.03679e+06
7.69904e+06
1.11787e+06
7.44649e+06
1.18157e+06
7.19718e+06
1.20445e+06
6.96797e+06
1.17499e+06
6.76871e+06
1.11108e+06
6.60151e+06
1.00704e+06
6.49935e+06
821274
6.73972e+06
485011
6.87525e+06
335490
6.79736e+06
348459
6.67586e+06
318425
6.53501e+06
230518
6.29094e+06
189399
6.10212e+06
180261
6.03045e+06
55707.4
6.02956e+06
-50583.3
6.018e+06
-119908
5.9948e+06
-176650
5.96731e+06
-227496
5.93933e+06
-270847
5.9092e+06
-306061
5.88461e+06
-330952
5.86302e+06
-356965
5.85862e+06
-362445
5.85468e+06
-355802
5.84349e+06
-338095
-315247
9.99899e+06
14.257
13835.6
9.99423e+06
36.3111
40968.6
9.98609e+06
46.4743
68237.3
9.97446e+06
48.0301
96124.1
9.95931e+06
48.7445
124498
9.94021e+06
49.5925
154100
9.9173e+06
49.704
184490
9.8903e+06
50.6276
215839
9.85919e+06
53.5869
248492
9.82317e+06
57.9435
282989
9.7828e+06
63.0361
318463
9.73751e+06
69.6945
355820
9.68707e+06
79.2296
394879
9.63175e+06
96.8318
435755
9.57167e+06
126.074
478555
9.50744e+06
211.782
523430
9.43965e+06
339.69
570254
9.3713e+06
801.982
619720
9.29563e+06
765.37
667927
9.20663e+06
26.8285
715848
9.09807e+06
22.6377
765116
8.96416e+06
-795.283
827999
8.81434e+06
-2030.04
887558
8.65734e+06
-5293.33
958426
8.47423e+06
-9566.98
1.07047e+06
8.24397e+06
-10338.3
1.21127e+06
7.9697e+06
-1543.59
1.32553e+06
7.68006e+06
6189.45
1.39703e+06
7.39872e+06
5484.72
1.44982e+06
7.12924e+06
3309.83
1.46681e+06
6.8792e+06
6583.21
1.41973e+06
6.63341e+06
14004.3
1.33641e+06
6.30196e+06
37494.8
1.27187e+06
5.44303e+06
215346
1.34433e+06
4.45626e+06
301976
958192
4.43392e+06
10382
727205
4.42477e+06
39325.6
900784
4.243e+06
126644
871855
4.2712e+06
63740.3
685180
4.38179e+06
-51690.1
437592
4.56818e+06
-55754
176156
4.7006e+06
27768.2
123748
4.7609e+06
66461.8
79978
4.80932e+06
71804.6
11357.5
4.8477e+06
80051
-56320.4
4.86878e+06
95695.6
-117708
4.87381e+06
113968
-177284
4.86639e+06
131531
-238601
4.85762e+06
147439
-301365
4.85432e+06
161918
-361991
4.8652e+06
168848
-417451
4.90064e+06
169454
-473994
4.96151e+06
172151
-507644
155446
-587268
9.99901e+06
13834.4
9.99423e+06
40965.5
9.98608e+06
68233.9
9.97445e+06
96120.6
9.9593e+06
124494
9.9402e+06
154095
9.91729e+06
184485
9.89028e+06
215834
9.85917e+06
248486
9.82315e+06
282983
9.78278e+06
318456
9.7375e+06
355813
9.68707e+06
394871
9.63177e+06
435742
9.57173e+06
478539
9.50762e+06
523348
9.44022e+06
570182
9.37167e+06
618769
9.29732e+06
667848
9.21096e+06
717645
9.1078e+06
770588
8.98145e+06
831617
8.82343e+06
904327
8.65064e+06
969305
8.44984e+06
1.06258e+06
8.2124e+06
1.18739e+06
7.95707e+06
1.29085e+06
7.69678e+06
1.38454e+06
7.42999e+06
1.45406e+06
7.16642e+06
1.47155e+06
6.92417e+06
1.42414e+06
6.71069e+06
1.33914e+06
6.50308e+06
1.25304e+06
6.32583e+06
1.22221e+06
5.69141e+06
1.42536e+06
4.79782e+06
1.23762e+06
4.3451e+06
833578
4.25157e+06
530039
4.18087e+06
356100
4.10634e+06
205327
4.1017e+06
125252
4.10606e+06
77010.7
4.12077e+06
-0.169605
4.14487e+06
-73438
4.17828e+06
-131578
4.22064e+06
-175615
4.27154e+06
-209120
4.33038e+06
-234945
4.39942e+06
-254807
4.47299e+06
-271447
4.55842e+06
-282761
4.65842e+06
-288273
4.775e+06
-285216
-285661
9.99905e+06
13.1548
15436.4
9.99455e+06
33.2603
45715.8
9.98686e+06
42.6505
76170
9.97588e+06
44.3294
107354
9.96146e+06
45.1539
139156
9.94348e+06
46.0441
172328
9.92197e+06
46.1533
206265
9.89623e+06
46.9035
241853
9.86633e+06
49.4668
278671
9.83234e+06
53.1847
317260
9.79354e+06
57.5742
357565
9.75004e+06
63.3544
399660
9.70172e+06
71.8298
443598
9.64847e+06
86.8284
489482
9.59063e+06
106.857
536959
9.52851e+06
157.995
586222
9.46287e+06
197.736
636677
9.39495e+06
301.637
688564
9.32299e+06
14.8867
741273
9.24534e+06
-502.103
795634
9.15839e+06
-912.485
854764
9.06066e+06
-357.755
928182
8.93462e+06
505.021
1.01517e+06
8.77856e+06
-3877.92
1.11957e+06
8.60267e+06
-10649.4
1.25751e+06
8.40357e+06
-12898.9
1.42368e+06
8.1623e+06
-2417.45
1.56987e+06
7.85108e+06
10207.8
1.6992e+06
7.50344e+06
13228.3
1.7854e+06
7.17333e+06
4551.03
1.79344e+06
6.90435e+06
4551.62
1.68489e+06
6.6786e+06
8509.76
1.55413e+06
6.46673e+06
8358.11
1.47556e+06
6.24924e+06
69117.8
1.49451e+06
5.04392e+06
267009
1.89714e+06
3.91361e+06
310092
1.54289e+06
3.37146e+06
266571
1.16451e+06
3.19328e+06
227179
806284
3.07902e+06
207814
570911
2.95556e+06
179502
362401
2.83027e+06
149657
136670
2.81862e+06
150058
-26117.8
2.85565e+06
158424
-123864
2.91714e+06
160413
-218577
3.01575e+06
157465
-321544
3.15985e+06
151754
-422388
3.3495e+06
143136
-517684
3.57941e+06
132050
-606581
3.84147e+06
118692
-686631
4.12622e+06
104376
-755475
4.42639e+06
88796.3
-813136
4.73476e+06
73625.4
-861316
5.06137e+06
57250.9
-897328
37257.7
-941199
9.99907e+06
15436.7
9.99455e+06
45714.7
9.98685e+06
76165.7
9.97587e+06
107349
9.96145e+06
139150
9.94347e+06
172323
9.92196e+06
206258
9.89621e+06
241847
9.86631e+06
278665
9.83232e+06
317254
9.79353e+06
357559
9.75004e+06
399652
9.70172e+06
443589
9.64848e+06
489468
9.59066e+06
536943
9.52857e+06
586179
9.46303e+06
636626
9.39455e+06
688388
9.32219e+06
741210
9.24459e+06
795845
9.15936e+06
856166
9.06478e+06
927288
8.94699e+06
1.02407e+06
8.78871e+06
1.12469e+06
8.59003e+06
1.25137e+06
8.36215e+06
1.40282e+06
8.09229e+06
1.55912e+06
7.813e+06
1.67461e+06
7.53311e+06
1.74767e+06
7.23825e+06
1.7716e+06
6.9515e+06
1.71624e+06
6.71102e+06
1.58873e+06
6.48895e+06
1.48547e+06
6.27368e+06
1.50804e+06
6.25221e+06
1.71129e+06
5.99487e+06
1.80087e+06
5.51981e+06
1.56916e+06
5.06722e+06
1.2016e+06
4.72284e+06
899224
4.44496e+06
654742
4.25481e+06
459111
4.1683e+06
309244
4.13976e+06
183110
4.14623e+06
76363.9
4.18287e+06
-15139.9
4.24925e+06
-94695
4.34289e+06
-163741
4.46032e+06
-223786
4.597e+06
-275688
4.74822e+06
-321383
4.91086e+06
-359971
5.08707e+06
-394862
5.27047e+06
-414564
-445105
9.99911e+06
12.772
16929.5
9.99494e+06
32.6548
50128.7
9.98779e+06
41.9472
83545.1
9.97757e+06
43.4024
117802
9.96415e+06
44.0184
152808
9.94736e+06
44.7104
189342
9.92704e+06
44.6827
226828
9.90308e+06
45.3164
266075
9.87492e+06
47.6974
307093
9.84259e+06
51.2127
349857
9.80596e+06
55.3507
394485
9.76438e+06
60.8091
441550
9.7179e+06
68.9726
490460
9.66671e+06
81.2388
541113
9.6106e+06
98.6504
593602
9.55019e+06
124.624
647266
9.48577e+06
148.772
701840
9.41852e+06
178.806
756712
9.34921e+06
125.555
811672
9.27806e+06
37.7367
868115
9.20529e+06
-90.7993
929111
9.13161e+06
344.113
1.00326e+06
9.04812e+06
1272.83
1.09943e+06
8.93132e+06
6729.47
1.2316e+06
8.77813e+06
3129.33
1.4086e+06
8.61528e+06
-3903.61
1.59091e+06
8.42849e+06
-5416.98
1.76363e+06
8.18199e+06
-515.018
1.94872e+06
7.86476e+06
12834
2.09251e+06
7.4752e+06
20912.5
2.16483e+06
7.04809e+06
17787.5
2.09627e+06
6.66082e+06
4542
1.93819e+06
6.35911e+06
-895.618
1.7784e+06
6.15114e+06
2790.46
1.6985e+06
6.04716e+06
97308.2
1.89836e+06
5.54689e+06
116306
1.9211e+06
4.92351e+06
85414
1.69482e+06
4.34941e+06
73746.2
1.29555e+06
3.92164e+06
73857.1
911103
3.64661e+06
65141.4
559357
3.49405e+06
42626.6
236070
3.46938e+06
23686.2
-32546.6
3.56758e+06
13261.2
-241053
3.75479e+06
1959.29
-413467
4.00171e+06
-11499.9
-562643
4.2854e+06
-24232.1
-687603
4.58519e+06
-34794.8
-787792
4.88653e+06
-44762.2
-866371
5.18e+06
-54873.2
-926138
5.45903e+06
-64965
-969279
5.71777e+06
-74559.9
-997720
5.95593e+06
-85522
-1.01635e+06
6.17299e+06
-94401.3
-1.02276e+06
-111152
-1.02418e+06
9.99913e+06
16928
9.99493e+06
50124.9
9.98778e+06
83540.9
9.97756e+06
117797
9.96413e+06
152803
9.94735e+06
189336
9.92703e+06
226822
9.90306e+06
266068
9.8749e+06
307086
9.84257e+06
349851
9.80594e+06
394478
9.76438e+06
441543
9.7179e+06
490452
9.66671e+06
541102
9.61061e+06
593588
9.5502e+06
647241
9.48579e+06
701812
9.41844e+06
756645
9.34898e+06
811621
9.2777e+06
868079
9.20539e+06
929409
9.13193e+06
1.00228e+06
9.05857e+06
1.10011e+06
8.96382e+06
1.22774e+06
8.81855e+06
1.40104e+06
8.62947e+06
1.58904e+06
8.38033e+06
1.80428e+06
8.08193e+06
1.97358e+06
7.77567e+06
2.06781e+06
7.46149e+06
2.10811e+06
7.10932e+06
2.0879e+06
6.72685e+06
1.97714e+06
6.35538e+06
1.85603e+06
6.05771e+06
1.80678e+06
6.0134e+06
1.8499e+06
6.04095e+06
1.88607e+06
5.94581e+06
1.7452e+06
5.74707e+06
1.46814e+06
5.53912e+06
1.17467e+06
5.35882e+06
894694
5.22431e+06
631985
5.15114e+06
402789
5.13441e+06
210297
5.16242e+06
47723
5.22424e+06
-91238.8
5.31272e+06
-210252
5.42363e+06
-311750
5.55121e+06
-397113
5.68809e+06
-466882
5.82759e+06
-524689
5.96212e+06
-568540
6.09458e+06
-613737
6.20714e+06
-622643
-697858
9.9992e+06
11.4313
18283
9.99539e+06
28.9064
54148.9
9.98887e+06
37.1291
90273
9.97954e+06
38.5901
127346
9.96725e+06
39.1917
165303
9.95185e+06
39.8049
204958
9.93314e+06
39.7055
245760
9.91089e+06
40.2637
288562
9.88481e+06
42.5075
333414
9.85461e+06
45.9084
380308
9.81997e+06
49.7782
429387
9.7807e+06
54.8764
481127
9.7364e+06
62.1549
535099
9.68679e+06
72.4798
591132
9.63213e+06
86.7918
648752
9.5725e+06
103.026
707461
9.5088e+06
127.697
766206
9.44213e+06
143.109
824109
9.37474e+06
163.759
879917
9.30981e+06
103.17
934007
9.25179e+06
84.1017
988202
9.20365e+06
-302.416
1.053e+06
9.16395e+06
318.555
1.14012e+06
9.11423e+06
7754.23
1.2754e+06
9.01441e+06
15449.9
1.49454e+06
8.8563e+06
11375.4
1.73868e+06
8.64108e+06
478.429
1.97976e+06
8.40195e+06
-3921.04
2.19308e+06
8.14181e+06
1865.17
2.3521e+06
7.84044e+06
9247.98
2.45828e+06
7.44326e+06
7134.05
2.48785e+06
6.94884e+06
1712.6
2.43229e+06
6.45511e+06
3259.39
2.26902e+06
6.03523e+06
-6337.94
2.1219e+06
5.87539e+06
9918.77
2.04461e+06
5.77074e+06
18244.2
2.00345e+06
5.59519e+06
26413.4
1.83851e+06
5.33544e+06
22542.1
1.52515e+06
5.08808e+06
6078.71
1.14409e+06
4.91633e+06
-22870.4
746764
4.84008e+06
-58065.3
364950
4.85802e+06
-88184
33732
4.95454e+06
-108790
-231662
5.10344e+06
-124979
-439474
5.28018e+06
-137208
-604255
5.46725e+06
-144503
-732126
5.65224e+06
-147415
-826032
5.82716e+06
-148456
-891096
5.98807e+06
-149648
-933191
6.13476e+06
-152624
-957942
6.26395e+06
-155722
-966232
6.38414e+06
-165437
-968633
6.47532e+06
-163866
-950475
-191988
-956562
9.99921e+06
18283.5
9.99539e+06
54147.8
9.98887e+06
90268.1
9.97953e+06
127339
9.96725e+06
165296
9.95184e+06
204952
9.93313e+06
245753
9.91088e+06
288554
9.88479e+06
333407
9.85459e+06
380301
9.81996e+06
429380
9.78069e+06
481119
9.7364e+06
535090
9.6868e+06
591120
9.63213e+06
648738
9.5725e+06
707443
9.5088e+06
766180
9.44214e+06
824073
9.3747e+06
879900
9.30969e+06
933930
9.25127e+06
988708
9.20225e+06
1.05189e+06
9.16478e+06
1.13903e+06
9.1301e+06
1.27136e+06
9.06448e+06
1.48319e+06
8.91803e+06
1.74794e+06
8.70345e+06
2.0202e+06
8.43688e+06
2.23704e+06
8.13121e+06
2.37623e+06
7.79671e+06
2.45278e+06
7.41815e+06
2.47467e+06
6.96951e+06
2.42818e+06
6.4913e+06
2.33721e+06
6.05411e+06
2.23575e+06
5.77454e+06
2.13686e+06
5.6635e+06
2.0125e+06
5.62547e+06
1.80589e+06
5.59229e+06
1.5195e+06
5.5684e+06
1.20037e+06
5.56121e+06
875378
5.57011e+06
562314
5.59949e+06
283299
5.65068e+06
48780.2
5.71793e+06
-146063
5.79686e+06
-308909
5.8825e+06
-441491
5.96895e+06
-545515
6.05035e+06
-625020
6.12288e+06
-685508
6.18656e+06
-737043
6.24503e+06
-779768
6.31552e+06
-848538
6.38879e+06
-858976
-1.08912e+06
9.99928e+06
11.0061
19493.1
9.99591e+06
28.2715
57724.3
9.99012e+06
36.4675
96260.9
9.9818e+06
37.7351
135860
9.97081e+06
38.1426
176478
9.957e+06
38.5616
218968
9.93993e+06
38.3629
263029
9.91975e+06
38.8869
308962
9.89616e+06
41.136
357229
9.86839e+06
44.5054
408308
9.83606e+06
48.3183
461962
9.79915e+06
53.1171
518311
9.75694e+06
59.7822
577625
9.70933e+06
68.9936
639116
9.65563e+06
80.6536
702889
9.59621e+06
94.9861
767393
9.53147e+06
112.239
831520
9.46322e+06
126.184
893003
9.39466e+06
143.77
949209
9.33195e+06
122.243
997523
9.28436e+06
115.262
1.03671e+06
9.264e+06
36.6655
1.07408e+06
9.27247e+06
1221.8
1.13138e+06
9.3094e+06
3477.57
1.23667e+06
9.28926e+06
9846.17
1.50617e+06
9.13528e+06
10063.7
1.88355e+06
8.88319e+06
1953.9
2.23046e+06
8.59729e+06
-2627.55
2.48223e+06
8.3024e+06
-1825.52
2.64951e+06
7.99551e+06
443.598
2.76536e+06
7.64724e+06
-1087.9
2.83806e+06
7.23156e+06
-5186.08
2.85418e+06
6.73216e+06
-14443.2
2.78271e+06
6.21759e+06
-19419
2.65398e+06
5.8022e+06
-16940.8
2.47382e+06
5.55565e+06
-7608.03
2.25398e+06
5.41814e+06
2219.57
1.96998e+06
5.32228e+06
3483.94
1.61412e+06
5.26134e+06
-6378.93
1.20823e+06
5.24905e+06
-26895
783161
5.28593e+06
-52128.2
377888
5.36158e+06
-75156.3
30753.8
5.46209e+06
-92625.3
-242564
5.57687e+06
-104697
-453007
5.69649e+06
-111606
-615086
5.81321e+06
-115663
-734388
5.92204e+06
-119034
-814881
6.02172e+06
-124358
-863212
6.11374e+06
-133036
-887185
6.20415e+06
-146167
-895925
6.29545e+06
-158113
-893558
6.40566e+06
-177368
-896966
6.49782e+06
-162015
-876457
-204866
-924008
9.9993e+06
19491.4
9.99591e+06
57720
9.99011e+06
96256.1
9.98179e+06
135854
9.9708e+06
176472
9.95699e+06
218962
9.93992e+06
263022
9.91973e+06
308954
9.89614e+06
357222
9.86837e+06
408301
9.83604e+06
461955
9.79914e+06
518303
9.75694e+06
577615
9.70933e+06
639104
9.65563e+06
702873
9.59621e+06
767374
9.53147e+06
831496
9.46323e+06
892976
9.39464e+06
949207
9.33188e+06
997458
9.28404e+06
1.03737e+06
9.26318e+06
1.07355e+06
9.27746e+06
1.12661e+06
9.31737e+06
1.23552e+06
9.30471e+06
1.50657e+06
9.16307e+06
1.9e+06
8.93199e+06
2.25363e+06
8.66061e+06
2.50622e+06
8.36186e+06
2.6735e+06
8.02965e+06
2.78585e+06
7.65427e+06
2.8496e+06
7.22072e+06
2.85708e+06
6.73633e+06
2.80666e+06
6.24662e+06
2.70446e+06
5.81623e+06
2.54806e+06
5.49656e+06
2.32221e+06
5.28937e+06
2.01348e+06
5.17584e+06
1.63489e+06
5.14582e+06
1.22264e+06
5.18612e+06
807052
5.26836e+06
426628
5.3676e+06
106793
5.46967e+06
-148805
5.56774e+06
-351822
5.65612e+06
-511203
5.72979e+06
-631678
5.79159e+06
-725232
5.85465e+06
-809626
5.9415e+06
-901643
6.07814e+06
-1.01581e+06
6.29852e+06
-1.15445e+06
6.61585e+06
-1.33955e+06
7.07603e+06
-1.47883e+06
-1.87978e+06
9.99939e+06
9.50529
20524.7
9.9965e+06
24.0502
60794.3
9.99152e+06
30.9744
101415
9.98434e+06
32.1872
143205
9.97464e+06
32.5353
186357
9.96281e+06
32.8309
230972
9.94804e+06
32.523
277978
9.93025e+06
32.9017
326945
9.90889e+06
34.9661
378797
9.88394e+06
38.0256
433459
9.85473e+06
41.4894
491398
9.8205e+06
45.5013
552780
9.78094e+06
51.0919
617470
9.73497e+06
58.55
685416
9.68229e+06
67.796
755939
9.62225e+06
79.7551
827867
9.55472e+06
90.7732
899533
9.48094e+06
111.75
967351
9.40448e+06
113.726
1.0263e+06
9.33397e+06
188.477
1.0687e+06
9.28579e+06
251.685
1.08538e+06
9.28234e+06
1497.63
1.07736e+06
9.3658e+06
3659.12
1.04534e+06
9.56194e+06
5120.75
1.03654e+06
9.62224e+06
10950.9
1.43631e+06
9.44654e+06
9458.5
2.05092e+06
9.14166e+06
781.877
2.53318e+06
8.79482e+06
-2361.4
2.83059e+06
8.44857e+06
752.79
2.99482e+06
8.09709e+06
3067.81