/*--------------------------------*- C++ -*----------------------------------*\
| =========                 |                                                 |
| \\      /  F ield         | OpenFOAM: The Open Source CFD Toolbox           |
|  \\    /   O peration     | Version:  4.1                                   |
|   \\  /    A nd           | Web:      www.OpenFOAM.org                      |
|    \\/     M anipulation  |                                                 |
\*---------------------------------------------------------------------------*/
FoamFile
{
    version     2.0;
    format      ascii;
    class       volVectorField;
    location    "89";
    object      U;
}
// * * * * * * * * * * * * * * * * * * * * * * * * * * * * * * * * * * * * * //

dimensions      [0 1 -1 0 0 0 0];

internalField   nonuniform List<vector> 
4432
(
(39.9818 2.2433e-05 0.0499371)
(39.9193 0.00010874 0.0886988)
(39.8241 0.000186537 0.116015)
(39.693 0.000213213 0.14238)
(39.5258 0.000218167 0.170015)
(39.3235 0.000248666 0.199147)
(39.0849 0.00028974 0.230032)
(38.8089 0.000308298 0.262115)
(38.4937 0.000310396 0.29534)
(38.1389 0.000297051 0.329115)
(37.7447 0.000285114 0.361587)
(37.3128 0.000329604 0.393275)
(36.847 0.000147401 0.417901)
(36.3639 3.38219e-05 0.435617)
(35.8679 -0.00279535 0.427285)
(35.472 -0.00684628 0.372861)
(35.1405 -0.00588953 0.41725)
(35.0202 -0.00345445 0.334094)
(35.1042 -0.00168508 0.250513)
(35.0777 0.00199875 0.392135)
(34.8436 -0.00136944 0.494908)
(34.4866 -0.0113412 0.619304)
(34.0233 -0.0218439 0.695116)
(33.4918 -0.0308663 0.68583)
(32.8939 -0.0378956 0.669844)
(32.2533 -0.0436249 0.549519)
(31.6526 -0.0403137 0.357998)
(31.1166 -0.0270504 0.158646)
(30.6773 -0.0201051 0.0919833)
(30.3147 -0.0277968 0.1351)
(29.9609 -0.0495979 0.304496)
(29.5199 -0.0753451 0.617183)
(28.9003 -0.0851705 0.79191)
(28.1673 -0.0611675 0.490213)
(27.5621 -0.0194719 -0.224141)
(27.0843 0.00942863 -0.61027)
(26.6826 0.019642 -0.549483)
(26.2626 0.0171546 -0.462175)
(25.8705 0.010837 -0.380874)
(25.5913 0.00625503 -0.299834)
(25.4431 0.00647657 -0.30337)
(25.3434 0.0128078 -0.408098)
(25.2643 0.0182106 -0.404589)
(25.2129 0.0247672 -0.384696)
(25.206 0.0315665 -0.393465)
(25.2532 0.0332651 -0.401323)
(25.3551 0.031738 -0.400067)
(25.4915 0.0341994 -0.391386)
(25.6635 0.0430996 -0.372504)
(25.8534 0.0605028 -0.398282)
(26.1449 0.0542086 -0.299888)
(26.4426 0.0299717 -0.188521)
(26.6457 0.0180819 -0.219253)
(27.0078 0.0280243 -0.149148)
(39.9818 2.24329e-05 0.049939)
(39.9194 0.000108742 0.0887106)
(39.8241 0.000186522 0.116112)
(39.6929 0.000213227 0.142448)
(39.5257 0.000218169 0.169991)
(39.3234 0.000248618 0.199133)
(39.0848 0.000289696 0.229923)
(38.8088 0.000308425 0.261933)
(38.4936 0.00031017 0.295158)
(38.1389 0.000296185 0.328796)
(37.7446 0.000284161 0.361511)
(37.3127 0.000328501 0.393056)
(36.8471 0.00014691 0.418888)
(36.3586 3.08415e-05 0.435917)
(35.8653 -0.00277962 0.434349)
(35.4211 -0.00691085 0.383339)
(35.084 -0.00596784 0.367849)
(35.0025 -0.00348642 0.289924)
(35.0917 -0.00167491 0.242431)
(35.0942 0.00190016 0.403484)
(34.8627 -0.00148078 0.48125)
(34.5037 -0.0114179 0.537062)
(34.0514 -0.0219664 0.577463)
(33.5171 -0.0312792 0.570138)
(32.9014 -0.0387103 0.560434)
(32.2266 -0.0453847 0.430174)
(31.5706 -0.0437817 0.252392)
(30.992 -0.0312774 0.133327)
(30.4962 -0.0248333 0.0658374)
(30.0516 -0.0345957 -0.019573)
(29.691 -0.0577682 -0.12073)
(29.3093 -0.0891981 -0.107313)
(28.8194 -0.10365 0.12371)
(28.1225 -0.0825483 0.336167)
(27.4567 -0.0360305 0.131357)
(26.8469 -0.00402903 -0.142296)
(26.3419 0.00946451 -0.10761)
(25.8473 0.00930901 -0.142065)
(25.405 0.00545322 -0.137935)
(25.0452 0.00476452 -0.10158)
(24.8263 0.00701852 -0.091233)
(24.6595 0.0140462 -0.134823)
(24.522 0.0213055 -0.124698)
(24.4253 0.0291409 -0.13703)
(24.4032 0.0370391 -0.158276)
(24.4507 0.040183 -0.202539)
(24.5645 0.0386352 -0.166924)
(24.7548 0.0402311 -0.11243)
(24.9682 0.0519536 -0.0717074)
(25.1695 0.0703053 -0.116121)
(25.6605 0.0468521 -0.198644)
(26.0347 0.0229877 -0.174973)
(26.2922 0.0108193 -0.20419)
(26.7267 0.0226004 -0.0835054)
(40.0073 2.00642e-05 0.0171996)
(40.0326 9.57831e-05 0.0533096)
(40.0591 0.000169019 0.090491)
(40.0826 0.000188807 0.128103)
(40.1034 0.000194487 0.166317)
(40.1228 0.000229315 0.205618)
(40.1407 0.000280198 0.246271)
(40.1559 0.000315595 0.288381)
(40.1667 0.000318543 0.331993)
(40.1722 0.000314706 0.376945)
(40.1708 0.000319868 0.422695)
(40.159 0.000281045 0.467481)
(40.133 0.000472106 0.508921)
(40.0754 0.000333875 0.537132)
(39.988 0.00383246 0.557597)
(39.7323 0.00601301 0.531218)
(39.4365 0.00775869 0.413507)
(38.7685 0.00742577 0.334639)
(37.8409 -0.00073806 0.374129)
(37.0576 -0.00281597 0.431994)
(36.3846 3.62287e-05 0.502195)
(35.7881 0.00354807 0.591149)
(35.2715 0.00680816 0.683084)
(34.7739 0.00964937 0.783647)
(34.2927 0.0111492 0.863396)
(33.818 0.0125851 0.882803)
(33.3329 0.0143585 0.85418)
(32.8118 0.0207313 0.817588)
(32.2035 0.0337874 0.772948)
(31.5842 0.0403448 0.715469)
(30.9783 0.0422046 0.700833)
(30.3771 0.0400486 0.797642)
(29.8719 0.0330041 0.871827)
(29.4994 0.017786 0.842038)
(29.1872 -0.00831127 0.8095)
(28.884 -0.0463346 0.907339)
(28.6047 -0.0846882 0.992539)
(28.313 -0.107644 0.990165)
(27.9881 -0.105778 0.880123)
(27.6495 -0.0858703 0.664042)
(27.3381 -0.0810314 0.472733)
(27.1787 -0.0992811 0.400959)
(27.0338 -0.1151 0.352178)
(26.8949 -0.12874 0.278154)
(26.8308 -0.139139 0.191587)
(26.8442 -0.145085 0.111464)
(26.906 -0.15223 0.0500902)
(27.005 -0.155273 -0.0150677)
(27.0697 -0.15443 -0.0484478)
(27.2095 -0.201345 -0.0568732)
(27.299 -0.164167 -0.247775)
(27.473 -0.124326 -0.336838)
(27.7404 -0.0896747 -0.375888)
(28.0886 -0.0489211 -0.39407)
(40.0073 2.00641e-05 0.017196)
(40.0326 9.57834e-05 0.0532898)
(40.0591 0.00016902 0.0904653)
(40.0825 0.000188809 0.128069)
(40.1034 0.000194488 0.166284)
(40.1228 0.000229324 0.205589)
(40.1408 0.00028018 0.246248)
(40.1558 0.000315696 0.28835)
(40.1666 0.000318197 0.331969)
(40.1719 0.000313752 0.376889)
(40.1707 0.000317187 0.422607)
(40.1589 0.000284184 0.467592)
(40.1326 0.000449352 0.508698)
(40.0801 0.000425238 0.540088)
(39.9878 0.00343497 0.550635)
(39.8037 0.00583837 0.520983)
(39.4932 0.00833778 0.431522)
(38.8077 0.00763934 0.324581)
(37.8584 -0.000736306 0.357987)
(37.0517 -0.00263939 0.422691)
(36.397 0.000141265 0.482463)
(35.8054 0.00369055 0.560649)
(35.2891 0.00708562 0.638336)
(34.8005 0.0102941 0.72333)
(34.3305 0.0121641 0.795626)
(33.879 0.0145515 0.813142)
(33.4109 0.0183131 0.816945)
(32.8977 0.0244142 0.81977)
(32.3595 0.0343489 0.773451)
(31.8364 0.0459335 0.678201)
(31.2636 0.0582835 0.629166)
(30.5985 0.0686313 0.703233)
(29.9673 0.0571981 0.757875)
(29.5427 0.0333056 0.760996)
(29.2467 -0.00318755 0.744552)
(29.0473 -0.0474164 0.799869)
(28.8682 -0.0881484 0.853026)
(28.6821 -0.111433 0.852823)
(28.4615 -0.114567 0.779442)
(28.3007 -0.105163 0.629584)
(28.1371 -0.099751 0.459267)
(28.0756 -0.109328 0.371103)
(27.998 -0.122672 0.311049)
(27.9175 -0.131396 0.232416)
(27.8695 -0.13845 0.140293)
(27.8789 -0.141761 0.0565703)
(27.9269 -0.146482 -0.00542405)
(27.9689 -0.151395 -0.0758678)
(27.9959 -0.165547 -0.14042)
(28.0438 -0.191788 -0.200872)
(27.7663 -0.119847 -0.382846)
(27.9139 -0.0973735 -0.478518)
(28.1694 -0.07001 -0.490847)
(28.4481 -0.0306116 -0.522053)
(39.9993 1.89361e-05 0.0242569)
(39.9895 8.90104e-05 0.0695273)
(39.9631 0.000163386 0.111495)
(39.9184 0.000183888 0.151936)
(39.8571 0.000188442 0.192186)
(39.7806 0.000221951 0.233134)
(39.6892 0.00026848 0.275306)
(39.5823 0.000293397 0.319064)
(39.4598 0.000288941 0.364713)
(39.3219 0.000275787 0.412384)
(39.1688 0.000269506 0.462014)
(39.0005 0.000305727 0.513289)
(38.8148 0.000380047 0.565893)
(38.6111 0.000734534 0.619073)
(38.3741 0.00100838 0.676178)
(38.1447 0.0024777 0.746899)
(37.8112 0.00313924 0.789716)
(37.4672 0.00461426 0.901641)
(37.1175 0.00220993 1.06519)
(36.7199 0.00167307 1.17276)
(36.2704 0.00279113 1.21928)
(35.8004 0.00482024 1.23809)
(35.342 0.00756679 1.26769)
(34.8816 0.0117216 1.31094)
(34.4165 0.0140885 1.35334)
(33.9393 0.0177789 1.35048)
(33.4129 0.0248924 1.30885)
(32.8102 0.0351736 1.28814)
(32.1098 0.0439016 1.22647)
(31.3615 0.0399898 1.18246)
(30.5398 0.0354517 1.27406)
(29.6965 0.041945 1.41869)
(28.9769 0.0637359 1.45845)
(28.3008 0.0982338 1.34915)
(27.702 0.117795 1.01552)
(27.4519 0.0309372 0.946774)
(27.1175 -0.058955 1.02753)
(26.73 -0.0897248 0.962325)
(26.2673 -0.0833423 0.881074)
(25.9632 -0.0426188 0.60612)
(25.8112 -0.0530206 0.469709)
(25.7625 -0.0948801 0.487938)
(25.7001 -0.1195 0.389214)
(25.6194 -0.126063 0.220513)
(25.6108 -0.128441 0.0616733)
(25.6784 -0.126675 -0.069766)
(25.7811 -0.127632 -0.169388)
(25.9321 -0.126605 -0.258826)
(26.1109 -0.136591 -0.271832)
(26.4466 -0.113236 -0.464674)
(26.7151 -0.0558192 -0.513125)
(26.8999 -0.0393225 -0.461258)
(27.0377 -0.0402675 -0.473729)
(27.3412 -0.0451935 -0.577827)
(39.9993 1.8936e-05 0.0242555)
(39.9896 8.90107e-05 0.0695179)
(39.963 0.000163387 0.111483)
(39.9183 0.000183889 0.151925)
(39.857 0.000188445 0.192173)
(39.7805 0.000221956 0.233118)
(39.6891 0.000268489 0.275286)
(39.5822 0.000293401 0.319035)
(39.4597 0.000288974 0.364684)
(39.3218 0.00027566 0.412348)
(39.1687 0.000269018 0.461981)
(39.0004 0.000305404 0.513306)
(38.8153 0.0003788 0.565805)
(38.6108 0.000735693 0.619028)
(38.3802 0.00100778 0.673843)
(38.1238 0.00244647 0.73927)
(37.8219 0.00278434 0.808385)
(37.4739 0.00488266 0.906795)
(37.1164 0.00233972 1.05886)
(36.7258 0.00174261 1.15927)
(36.2832 0.00289688 1.20057)
(35.8203 0.00500467 1.21175)
(35.3697 0.00795296 1.2311)
(34.9109 0.012745 1.285)
(34.4399 0.0156488 1.33343)
(33.9617 0.019981 1.33657)
(33.436 0.028161 1.32649)
(32.8532 0.0393993 1.32935)
(32.2205 0.0492842 1.29562)
(31.5174 0.0512503 1.23335)
(30.6575 0.0455306 1.31743)
(29.8088 0.0489225 1.4601)
(29.0919 0.0749771 1.45109)
(28.5299 0.103386 1.24425)
(28.1128 0.0964391 0.978745)
(27.8049 0.0382046 0.776519)
(27.5127 -0.0202417 0.645955)
(27.1705 -0.0509112 0.532404)
(26.8111 -0.0482106 0.405426)
(26.5585 -0.0175438 0.17553)
(26.3191 -0.029142 0.113857)
(26.2463 -0.0623625 0.0856881)
(26.1537 -0.0833452 -0.0347884)
(26.043 -0.0927769 -0.192029)
(26.0001 -0.0969766 -0.34097)
(26.0414 -0.0960983 -0.464225)
(26.119 -0.0956217 -0.561877)
(26.2352 -0.0957267 -0.605407)
(26.3794 -0.100844 -0.670511)
(26.6299 -0.0806926 -0.771753)
(26.8494 -0.0483425 -0.668726)
(27.0203 -0.037084 -0.569741)
(27.1916 -0.0381706 -0.493971)
(27.4363 -0.0396957 -0.733919)
(39.999 1.87138e-05 0.0305921)
(39.9881 8.65283e-05 0.0900822)
(39.9616 0.000157678 0.149094)
(39.9179 0.000177121 0.20931)
(39.8578 0.000180487 0.271251)
(39.7815 0.000213122 0.335184)
(39.6887 0.000259372 0.401285)
(39.5781 0.00028548 0.469693)
(39.4485 0.000284554 0.54054)
(39.2993 0.000274834 0.61387)
(39.1297 0.000273763 0.689674)
(38.9385 0.000307839 0.768008)
(38.7236 0.00034923 0.849084)
(38.4832 0.000541909 0.934129)
(38.2124 0.000583453 1.0259)
(37.9192 0.00176108 1.12813)
(37.5857 0.00201599 1.26596)
(37.1789 0.00173784 1.33436)
(36.8153 0.00188665 1.3947)
(36.4757 0.00276959 1.47852)
(36.1147 0.00382446 1.56488)
(35.7276 0.00416785 1.62291)
(35.3043 0.00424148 1.68046)
(34.8261 0.005241 1.75258)
(34.3157 0.00424885 1.83694)
(33.7674 0.00400968 1.88534)
(33.1229 0.00872862 1.92563)
(32.381 0.0148469 2.01955)
(31.5273 0.0135521 2.10933)
(30.4853 0.012187 2.18288)
(29.3889 0.0145949 2.31164)
(28.4533 0.0234642 2.34299)
(27.6499 0.0434307 2.21385)
(26.9693 0.0728981 1.79545)
(26.7675 0.0741419 1.15031)
(26.7719 -0.0217753 1.29283)
(26.5273 -0.102133 1.58533)
(26.047 -0.132294 1.60399)
(25.4201 -0.112566 1.35619)
(25.0446 -0.0436938 0.801457)
(24.848 -0.0443161 0.602652)
(24.8281 -0.0736299 0.668542)
(24.7435 -0.0934827 0.620266)
(24.6673 -0.089397 0.422244)
(24.6876 -0.0806598 0.238541)
(24.7869 -0.0741149 0.0900477)
(24.9162 -0.0714481 -0.0409511)
(25.0838 -0.0600479 -0.1372)
(25.279 -0.0599774 -0.270148)
(25.5272 -0.0756629 -0.417896)
(25.9296 -0.0719125 -0.530825)
(26.2457 -0.065668 -0.579886)
(26.4836 -0.0604169 -0.649618)
(26.9196 -0.0353731 -0.735523)
(39.999 1.87137e-05 0.0305916)
(39.9882 8.65285e-05 0.0900802)
(39.9616 0.000157679 0.149089)
(39.9179 0.000177123 0.209302)
(39.8577 0.00018049 0.271241)
(39.7815 0.000213127 0.335172)
(39.6887 0.000259378 0.401271)
(39.578 0.000285488 0.469682)
(39.4484 0.000284563 0.540532)
(39.2992 0.000274851 0.613864)
(39.1297 0.000273761 0.689674)
(38.9385 0.000307934 0.767988)
(38.7238 0.000348838 0.84903)
(38.4831 0.000543791 0.933803)
(38.2144 0.00058426 1.02531)
(37.9174 0.00178607 1.12732)
(37.5991 0.00189628 1.26101)
(37.19 0.00170426 1.36224)
(36.8208 0.00184935 1.39938)
(36.4839 0.00281041 1.46696)
(36.1248 0.00399498 1.54543)
(35.7382 0.00446747 1.59772)
(35.3006 0.00444131 1.65621)
(34.8135 0.00501888 1.76154)
(34.3135 0.00408943 1.84752)
(33.7587 0.00385525 1.90993)
(33.0923 0.00982932 2.01072)
(32.3381 0.0169305 2.14467)
(31.4988 0.0154578 2.24985)
(30.4765 0.0138496 2.31613)
(29.434 0.015156 2.38193)
(28.5562 0.0226338 2.41155)
(27.8 0.0413407 2.36173)
(27.1184 0.081585 2.0753)
(26.8202 0.0940257 1.4487)
(26.743 -0.0129698 1.17482)
(26.5251 -0.109782 1.11986)
(26.1603 -0.180554 1.04299)
(25.726 -0.196563 0.95478)
(25.3364 -0.114768 0.557406)
(25.1247 -0.0547594 0.343255)
(25.0309 -0.0663012 0.321155)
(24.9175 -0.0743792 0.173196)
(24.8049 -0.0704707 -0.0238353)
(24.793 -0.0618198 -0.196319)
(24.871 -0.0568238 -0.346903)
(25.0055 -0.0540974 -0.478098)
(25.1847 -0.0488139 -0.588323)
(25.3849 -0.0377777 -0.677577)
(25.6742 -0.0496199 -0.79308)
(25.9982 -0.0653668 -0.836495)
(26.2984 -0.0723093 -0.847836)
(26.5306 -0.0836132 -0.914488)
(27.035 -0.0567917 -0.987013)
(39.999 1.843e-05 0.0377786)
(39.9883 8.71385e-05 0.112066)
(39.9623 0.000158406 0.186397)
(39.9195 0.000176116 0.261961)
(39.8607 0.000177803 0.338919)
(39.7864 0.000209312 0.417622)
(39.6961 0.000255199 0.498508)
(39.5887 0.000281484 0.58202)
(39.463 0.000281091 0.668578)
(39.3185 0.000269934 0.758572)
(39.1545 0.000268884 0.852384)
(38.9697 0.000284861 0.950506)
(38.763 0.000337512 1.05367)
(38.5319 0.000391531 1.16339)
(38.2773 0.000640952 1.2818)
(37.9918 0.000737639 1.41337)
(37.6999 0.00225185 1.56083)
(37.3245 0.00422296 1.70689)
(36.893 0.00385899 1.78079)
(36.4809 0.00415152 1.8402)
(36.0869 0.00559607 1.9217)
(35.6783 0.00461141 2.00692)
(35.2254 0.00207784 2.14883)
(34.6904 -0.000896566 2.29063)
(34.1025 -0.00746284 2.4258)
(33.4326 -0.0113539 2.54971)
(32.6075 -0.00568242 2.68475)
(31.6982 0.00172007 2.90999)
(30.6998 8.26088e-05 3.15009)
(29.6023 -0.00124382 3.29415)
(28.5794 0.00426432 3.30083)
(27.6981 0.0184596 3.1553)
(26.9203 0.0420428 2.77998)
(26.345 0.0835534 1.95886)
(26.3625 0.122301 0.93339)
(26.1944 -0.050381 1.10124)
(26.0292 -0.302085 2.15219)
(25.3596 -0.459908 2.76968)
(24.6442 -0.469319 2.75648)
(24.1659 -0.228766 1.62742)
(23.9274 -0.126114 0.926409)
(23.9959 -0.138822 0.833666)
(23.9431 -0.152961 0.641803)
(23.9229 -0.144183 0.335031)
(23.98 -0.135748 0.0835838)
(24.0992 -0.131968 -0.126696)
(24.2556 -0.132933 -0.302036)
(24.4696 -0.130649 -0.501287)
(24.6526 -0.104541 -0.672026)
(24.8886 -0.13308 -0.747998)
(25.1583 -0.146743 -0.89774)
(25.4435 -0.146304 -0.960571)
(25.6831 -0.168279 -0.96227)
(26.0401 -0.13417 -0.938303)
(39.999 1.843e-05 0.0377778)
(39.9884 8.71387e-05 0.112062)
(39.9623 0.000158407 0.186388)
(39.9195 0.000176117 0.261951)
(39.8607 0.000177806 0.338907)
(39.7864 0.00020932 0.417609)
(39.6961 0.000255214 0.498493)
(39.5886 0.000281511 0.582004)
(39.4629 0.000281111 0.668562)
(39.3184 0.000270038 0.758556)
(39.1544 0.000268695 0.852368)
(38.9697 0.000286073 0.950475)
(38.7629 0.000340963 1.05363)
(38.5322 0.000395204 1.16324)
(38.2771 0.000655896 1.28165)
(37.9949 0.000711839 1.41269)
(37.6941 0.00239462 1.56083)
(37.3497 0.00381292 1.72112)
(36.9347 0.00351875 1.78557)
(36.5116 0.00423071 1.8346)
(36.1069 0.00622554 1.91426)
(35.684 0.00600506 2.00832)
(35.1803 0.00218238 2.14596)
(34.6426 -0.00122636 2.28585)
(34.0702 -0.00770151 2.41906)
(33.356 -0.0119464 2.57299)
(32.5331 -0.00486642 2.77009)
(31.6719 0.00300315 3.01304)
(30.7195 0.000969892 3.21665)
(29.6733 -0.00125151 3.32999)
(28.6789 0.00326474 3.31737)
(27.8153 0.0168407 3.20011)
(27.1041 0.037345 2.92606)
(26.6146 0.0819142 2.30165)
(26.6185 0.16754 1.353)
(26.6572 -0.0200866 1.04999)
(26.4981 -0.378487 1.1827)
(26.0024 -0.596338 1.36949)
(25.3423 -0.716578 1.3367)
(24.7632 -0.619604 0.961511)
(24.4961 -0.233401 0.548941)
(24.4739 -0.142558 0.318286)
(24.4072 -0.123298 0.0322941)
(24.3704 -0.110218 -0.264689)
(24.4321 -0.104357 -0.511688)
(24.58 -0.10617 -0.726196)
(24.7712 -0.108615 -0.916216)
(24.9924 -0.118358 -1.09668)
(25.1718 -0.118363 -1.18612)
(25.4091 -0.125223 -1.4409)
(25.4226 -0.0851372 -1.4095)
(25.6392 -0.0814835 -1.35071)
(25.8542 -0.0923942 -1.35226)
(26.1576 -0.0316554 -1.38498)
(39.9991 1.78978e-05 0.0449517)
(39.9886 8.29065e-05 0.133366)
(39.9632 0.000149263 0.222004)
(39.9217 0.000166461 0.312356)
(39.8649 0.000168985 0.404706)
(39.7932 0.000200335 0.499563)
(39.7062 0.000244866 0.597488)
(39.6025 0.000270144 0.698996)
(39.4812 0.000269624 0.804562)
(39.3416 0.000259184 0.914636)
(39.1831 0.000258439 1.02966)
(39.0049 0.000275302 1.15015)
(38.8058 0.000319378 1.27685)
(38.585 0.000370118 1.41086)
(38.3426 0.000510284 1.55398)
(38.0783 0.000676386 1.70892)
(37.7986 0.00139715 1.87645)
(37.505 0.00361908 2.07527)
(37.1598 0.00645207 2.21464)
(36.7449 0.00712131 2.30239)
(36.2877 0.0074413 2.37316)
(35.756 0.00340756 2.47893)
(35.2198 -0.00261741 2.65207)
(34.6806 -0.00811853 2.87619)
(34.0512 -0.0175664 3.12412)
(33.2801 -0.0202513 3.39255)
(32.2822 -0.00955875 3.63253)
(31.229 0.0053022 3.90632)
(30.2038 0.00812521 4.17828)
(29.1604 0.0066702 4.30025)
(28.171 0.0124485 4.21396)
(27.2632 0.0328858 3.94536)
(26.3443 0.0748789 3.42167)
(25.5481 0.205285 2.37445)
(25.2895 0.441716 1.31218)
(20.6988 0.0238943 2.85776)
(21.1554 -0.423116 2.74857)
(21.1729 -0.846061 2.50127)
(20.8423 -1.32813 2.66257)
(21.3716 -0.996506 1.14876)
(22.0574 -0.366514 0.937095)
(22.1344 -0.533309 1.40413)
(22.2378 -0.450201 1.05686)
(22.4513 -0.374557 0.65644)
(22.6769 -0.346407 0.332203)
(22.8719 -0.344603 0.0546878)
(23.0802 -0.340587 -0.200048)
(23.2664 -0.352493 -0.427491)
(23.5118 -0.331663 -0.611119)
(23.671 -0.301668 -0.772628)
(23.7921 -0.263348 -0.900429)
(23.9205 -0.232339 -0.971013)
(24.0074 -0.218692 -0.991636)
(24.0885 -0.190574 -0.931895)
(39.9991 1.78963e-05 0.0449504)
(39.9887 8.29139e-05 0.133361)
(39.9632 0.000149235 0.221994)
(39.9217 0.000166585 0.312345)
(39.8648 0.00016843 0.404694)
(39.7932 0.000198661 0.499548)
(39.7061 0.000242937 0.59747)
(39.6025 0.000268174 0.698976)
(39.4811 0.000267661 0.804543)
(39.3415 0.000257313 0.914619)
(39.1831 0.000256404 1.02964)
(39.0049 0.000274238 1.15013)
(38.8058 0.000322458 1.27683)
(38.5851 0.000374259 1.4108)
(38.3426 0.000522809 1.55392)
(38.0795 0.000657059 1.70835)
(37.7992 0.0015226 1.8772)
(37.5123 0.003202 2.06303)
(37.1983 0.00590781 2.22027)
(36.8059 0.00749645 2.332)
(36.3359 0.00876045 2.42673)
(35.8119 0.0048624 2.55607)
(35.2326 -0.00273106 2.69036)
(34.6451 -0.00827596 2.87744)
(33.9832 -0.0182901 3.10831)
(33.1663 -0.0202168 3.38193)
(32.2222 -0.00887392 3.64749)
(31.2752 0.00469103 3.94771)
(30.293 0.00676081 4.189)
(29.2599 0.00530942 4.29624)
(28.2885 0.0111668 4.21632)
(27.4339 0.0304003 3.99385)
(26.6921 0.0689518 3.57469)
(26.1354 0.250925 2.77684)
(26.2545 0.857712 1.66164)
(26.9839 1.41581 0.440911)
(27.6227 1.37668 0.265675)
(27.2828 1.04303 0.510761)
(26.4211 0.697162 0.645124)
(25.9258 0.16162 0.444249)
(24.3263 -0.238519 0.559508)
(24.1971 -0.31251 0.389988)
(24.1765 -0.219904 0.0321749)
(24.1023 -0.138926 -0.311353)
(24.0212 -0.0976671 -0.59394)
(23.9279 -0.0698093 -0.832062)
(23.8213 -0.0340364 -1.04179)
(23.696 0.000800434 -1.21854)
(23.5931 0.0335218 -1.36637)
(23.4463 0.10521 -1.49503)
(23.4668 0.190127 -1.52568)
(23.4287 0.26854 -1.54668)
(23.3949 0.321631 -1.50996)
(23.3393 0.420177 -1.46116)
(39.9991 1.71948e-05 0.051875)
(39.9891 8.21178e-05 0.153918)
(39.9647 0.00014917 0.256405)
(39.9251 0.000165062 0.361138)
(39.8707 0.000165966 0.468401)
(39.8022 0.000195299 0.578694)
(39.7189 0.000238014 0.692612)
(39.6195 0.000262591 0.81074)
(39.503 0.000262507 0.933644)
(39.3688 0.000253308 1.06185)
(39.2162 0.000251999 1.19585)
(39.0445 0.000269409 1.33616)
(38.8529 0.000306625 1.48335)
(38.6408 0.000366239 1.63815)
(38.4085 0.00043831 1.80151)
(38.1578 0.000629883 1.97466)
(37.89 0.000870856 2.15769)
(37.6139 0.00204261 2.35512)
(37.3237 0.00306001 2.54282)
(36.998 0.00180456 2.7244)
(36.6117 0.000345613 2.89051)
(36.1393 -0.00123527 3.09921)
(35.5248 -0.00511314 3.2709)
(34.9001 -0.0147831 3.50187)
(34.2623 -0.0276404 3.88503)
(33.4792 -0.0333218 4.36041)
(32.439 -0.0102377 4.75733)
(31.261 0.0178011 4.98578)
(30.1332 0.0201928 5.18259)
(29.0231 0.0145363 5.28101)
(27.9839 0.0224525 5.19029)
(27.0167 0.0450565 4.89819)
(25.9009 0.104886 4.47553)
(25.0961 0.33525 3.82331)
(18.0078 0.301074 0.257225)
(17.6505 0.0224281 2.8826)
(17.7598 -0.221491 5.63296)
(17.4182 -0.0918441 5.19573)
(17.1555 -0.198942 4.23191)
(16.6307 -0.544029 3.19601)
(18.3909 -0.537633 1.6728)
(18.5897 -0.433334 1.02279)
(18.7838 -0.284105 0.722596)
(19.1134 -0.194466 0.483362)
(19.3587 -0.14572 0.255447)
(19.4702 -0.096959 0.051499)
(19.5046 -0.0382053 -0.14466)
(19.4891 0.0217037 -0.344951)
(19.4472 0.0651282 -0.533284)
(19.4086 0.0930932 -0.707063)
(19.3977 0.103991 -0.864127)
(19.5327 0.0899782 -1.03741)
(19.6426 0.0714057 -1.13818)
(20.2305 -0.0749066 -1.36638)
(39.9991 1.71933e-05 0.0518733)
(39.9891 8.21255e-05 0.15391)
(39.9647 0.000149141 0.256391)
(39.925 0.000165188 0.361122)
(39.8707 0.000165411 0.468384)
(39.8022 0.0001936 0.578674)
(39.7189 0.000236026 0.692589)
(39.6195 0.000260498 0.810716)
(39.5029 0.000260447 0.93362)
(39.3687 0.000250989 1.06182)
(39.2161 0.000250832 1.19583)
(39.0444 0.000269997 1.33613)
(38.8529 0.000307786 1.48332)
(38.6409 0.000368951 1.6381)
(38.4087 0.000446247 1.80145)
(38.1581 0.000638156 1.97427)
(37.8915 0.00088953 2.15731)
(37.6148 0.00205716 2.3501)
(37.3267 0.00302411 2.54402)
(37.0117 0.00181175 2.73775)
(36.6275 0.00105272 2.92877)
(36.2036 -0.00133917 3.12541)
(35.5936 -0.0060776 3.33879)
(34.9094 -0.0144316 3.55327)
(34.2035 -0.0287428 3.85275)
(33.3494 -0.0338887 4.29242)
(32.3028 -0.0084845 4.63651)
(31.2889 0.0147563 4.97322)
(30.2506 0.0178413 5.23908)
(29.1638 0.0124259 5.31771)
(28.1357 0.0210181 5.17436)
(27.2339 0.0428396 4.89919)
(26.4094 0.114337 4.50888)
(25.6188 0.526812 3.98019)
(26.2004 1.52623 3.46847)
(18.1509 0.0325795 2.84444)
(18.2793 0.127007 1.94865)
(17.9734 0.559777 1.23793)
(16.9765 0.738558 0.709191)
(16.2586 0.591408 0.413732)
(16.4213 0.330263 0.373058)
(16.4066 0.36693 0.092117)
(16.3971 0.518957 -0.284436)
(16.4901 0.63054 -0.592866)
(16.6417 0.703555 -0.817755)
(16.8051 0.778938 -0.983492)
(16.9874 0.873013 -1.1017)
(17.2021 0.966366 -1.17834)
(17.4413 1.05059 -1.21965)
(17.7255 1.12861 -1.2571)
(18.0391 1.19687 -1.26879)
(18.4619 1.25052 -1.24107)
(18.7778 1.28982 -1.16773)
(19.5103 1.25951 -1.02555)
(39.9991 1.62909e-05 0.0584633)
(39.9897 7.5237e-05 0.173492)
(39.9667 0.000135072 0.289138)
(39.9292 0.000149982 0.407482)
(39.8779 0.000151267 0.528844)
(39.8131 0.000179759 0.65379)
(39.7342 0.000221149 0.783023)
(39.64 0.000245339 0.917242)
(39.5292 0.000245767 1.05711)
(39.4013 0.00023625 1.20321)
(39.2555 0.000233694 1.35603)
(39.0911 0.000248183 1.51597)
(38.9074 0.000280491 1.68335)
(38.7037 0.000332514 1.8584)
(38.4802 0.000388134 2.04122)
(38.2384 0.000510761 2.23184)
(37.9796 0.00060576 2.42938)
(37.7077 0.000943977 2.63392)
(37.4238 0.000641863 2.84043)
(37.1226 -0.00066125 3.05161)
(36.7903 -0.00257368 3.27883)
(36.4227 -0.00252116 3.55772)
(36.0026 0.000515066 3.86247)
(35.3878 -0.0101392 4.19888)
(34.7021 -0.0261656 4.66978)
(34.0256 -0.0371564 5.29668)
(33.1777 -0.0132067 5.82998)
(32.053 0.0295724 6.1694)
(30.7003 0.0464281 6.36086)
(29.2636 0.0284692 6.35693)
(28.0941 0.0201784 6.07962)
(27.1412 0.0243936 5.72463)
(26.2242 0.0368123 5.54208)
(25.5883 0.184815 5.88889)
(24.8165 0.60773 7.11095)
(15.1112 0.0805226 2.9373)
(14.4783 0.0898902 1.84589)
(13.7084 0.149349 1.51557)
(12.6346 0.176826 1.24259)
(11.9457 0.078182 0.68457)
(11.5274 -0.0578523 -0.0559755)
(11.2251 -0.120207 -0.319437)
(11.2405 -0.116159 -0.368608)
(11.4577 -0.091773 -0.525206)
(11.8374 -0.0981993 -0.787007)
(12.3397 -0.149262 -1.07002)
(12.9841 -0.216325 -1.3565)
(13.8246 -0.284 -1.66455)
(14.8056 -0.366901 -1.98926)
(15.9064 -0.458424 -2.30301)
(17.0579 -0.544964 -2.58797)
(18.3736 -0.61553 -2.85301)
(19.4198 -0.681807 -3.03369)
(21.3264 -0.785251 -3.36751)
(39.9992 1.62908e-05 0.0584614)
(39.9897 7.52371e-05 0.173483)
(39.9667 0.000135072 0.289124)
(39.9291 0.000149982 0.407465)
(39.8778 0.000151279 0.528826)
(39.8131 0.0001797 0.65377)
(39.7342 0.000221279 0.783001)
(39.6399 0.000244437 0.917219)
(39.5291 0.000243262 1.05709)
(39.4012 0.000233105 1.20319)
(39.2554 0.000231573 1.356)
(39.0911 0.000247875 1.51594)
(38.9074 0.000280804 1.68331)
(38.7037 0.000333486 1.85835)
(38.4803 0.000389288 2.04115)
(38.2385 0.000514934 2.23163)
(37.98 0.0006119 2.42901)
(37.7076 0.000956911 2.6323)
(37.4217 0.000664905 2.83829)
(37.1191 -0.000666359 3.05065)
(36.7888 -0.00248076 3.28402)
(36.4276 -0.00267373 3.55477)
(36.0235 0.00124814 3.91972)
(35.4685 -0.00806573 4.24122)
(34.7069 -0.0309648 4.65634)
(33.9391 -0.0400512 5.18982)
(32.9083 -0.0200093 5.67775)
(31.7543 0.0185904 6.0639)
(30.6958 0.0376932 6.32862)
(29.5428 0.0205368 6.37809)
(28.3143 0.0162742 6.13414)
(27.2717 0.0249469 5.74216)
(26.4198 0.0382327 5.45923)
(25.5144 0.215301 5.52483)
(25.351 0.901585 6.45924)
(24.1021 1.68419 6.78227)
(23.1057 1.73296 5.50031)
(21.4449 1.65965 3.81145)
(19.5607 1.57867 2.52894)
(18.1712 1.47386 1.6098)
(17.2894 1.34007 0.928723)
(16.7517 1.25438 0.441057)
(16.5322 1.23109 0.105804)
(16.5227 1.23841 -0.141886)
(16.6333 1.24787 -0.352583)
(16.8489 1.24806 -0.533885)
(17.1737 1.25203 -0.683072)
(17.5959 1.26246 -0.809821)
(18.0892 1.26264 -0.918255)
(18.6605 1.24768 -1.01816)
(19.2805 1.22312 -1.10302)
(20.0261 1.19483 -1.17811)
(20.6267 1.16078 -1.21171)
(21.723 1.0614 -1.28344)
(39.9992 1.53111e-05 0.0646359)
(39.9904 7.38643e-05 0.191837)
(39.9691 0.0001347 0.319818)
(39.9342 0.000148356 0.450931)
(39.8864 0.000148253 0.585581)
(39.826 0.000175007 0.724427)
(39.7523 0.000214696 0.868282)
(39.664 0.000238038 1.01795)
(39.5599 0.000238498 1.17418)
(39.4392 0.000229201 1.33761)
(39.3011 0.000226748 1.50872)
(39.1448 0.000241573 1.68781)
(38.9692 0.000271941 1.87497)
(38.7736 0.000314738 2.06998)
(38.5579 0.00036811 2.27227)
(38.323 0.00043608 2.48092)
(38.0706 0.000492154 2.69441)
(37.8035 0.000582577 2.91178)
(37.5249 0.000493489 3.13149)
(37.2371 0.000251168 3.35846)
(36.9412 -0.000385032 3.60538)
(36.6357 0.000425298 3.90604)
(36.328 0.000921095 4.28113)
(35.9678 0.0184792 4.78791)
(35.3332 0.0148734 5.41364)
(34.743 -0.00445645 6.05853)
(34.095 -0.0132664 6.6335)
(33.265 -0.00305892 7.28943)
(32.143 0.034796 7.80058)
(30.7228 0.0666144 7.91886)
(29.0304 0.0603339 7.31825)
(27.2934 0.0284918 6.5742)
(26.0452 0.0123062 6.24347)
(24.8518 0.0401917 6.26941)
(24.8621 0.341434 7.87562)
(23.0236 0.355688 8.39714)
(20.9723 0.140259 6.75793)
(18.654 -0.0813918 4.67269)
(16.455 -0.222986 2.98127)
(14.9333 -0.337568 1.63806)
(14.112 -0.49494 0.553125)
(13.8051 -0.660421 -0.24387)
(13.9493 -0.780686 -0.88218)
(14.531 -0.851593 -1.45713)
(15.4587 -0.911353 -1.99478)
(16.5721 -0.978677 -2.47988)
(17.7534 -1.02669 -2.89326)
(18.953 -1.04372 -3.23884)
(20.1355 -1.0416 -3.5269)
(21.2795 -1.03127 -3.75952)
(22.3479 -1.01267 -3.93447)
(23.3974 -0.989141 -4.05275)
(24.2089 -0.969028 -4.12447)
(25.3487 -0.954654 -4.18941)
(39.9992 1.53111e-05 0.0646338)
(39.9905 7.38643e-05 0.191827)
(39.969 0.000134701 0.3198)
(39.9341 0.000148354 0.45091)
(39.8864 0.000148266 0.585559)
(39.826 0.000174972 0.724403)
(39.7523 0.000214894 0.868255)
(39.664 0.000237256 1.01792)
(39.5598 0.000236069 1.17415)
(39.4391 0.000226229 1.33758)
(39.3011 0.000224076 1.50869)
(39.1447 0.000236954 1.68778)
(38.9692 0.000267845 1.87493)
(38.7736 0.000313293 2.06993)
(38.5579 0.00036364 2.27221)
(38.323 0.000430356 2.48079)
(38.0706 0.000491144 2.69423)
(37.8035 0.000583704 2.91131)
(37.5245 0.000505916 3.13144)
(37.2359 0.000250203 3.35907)
(36.9403 -0.000316172 3.60863)
(36.6376 0.00012915 3.90301)
(36.3327 0.0021259 4.29266)
(36.0225 0.0137129 4.76218)
(35.5476 0.0117854 5.37269)
(34.8547 -0.00678558 5.99886)
(34.0875 -0.0209074 6.71518)
(32.9104 -0.00957854 7.24922)
(31.6776 0.0272414 7.54726)
(30.4788 0.0566757 7.658)
(29.1532 0.0605622 7.46818)
(27.6686 0.0300335 6.85026)
(26.2148 0.00782691 6.31208)
(24.7485 -0.00641873 6.4106)
(23.8755 0.231317 7.15631)
(24.013 0.663247 7.65915)
(24.0986 0.892319 7.01695)
(23.5504 0.986364 5.77359)
(22.6068 1.03248 4.56269)
(21.7263 1.03759 3.47711)
(21.0787 0.993185 2.53406)
(20.675 0.93686 1.77405)
(20.5102 0.90314 1.15153)
(20.5478 0.893028 0.619931)
(20.741 0.873953 0.149131)
(21.0543 0.824658 -0.272987)
(21.4678 0.76086 -0.644159)
(21.9497 0.694962 -0.970291)
(22.4666 0.62259 -1.25991)
(23.0126 0.537876 -1.5221)
(23.5577 0.447932 -1.74087)
(24.1476 0.350235 -1.94248)
(24.5843 0.270348 -2.04354)
(25.2543 0.0946716 -2.29043)
(39.9993 1.42389e-05 0.0703153)
(39.9913 6.54252e-05 0.208726)
(39.9718 0.000117189 0.348081)
(39.94 0.000128904 0.491007)
(39.8963 0.000129054 0.638002)
(39.841 0.000155152 0.789841)
(39.7733 0.000193626 0.947459)
(39.6918 0.000215621 1.11179)
(39.5954 0.000215037 1.28369)
(39.4829 0.000205757 1.46391)
(39.3535 0.000202272 1.65296)
(39.206 0.000214149 1.8511)
(39.0391 0.000240606 2.05823)
(38.8516 0.000276984 2.27377)
(38.6429 0.000322509 2.49651)
(38.4134 0.000368249 2.72452)
(38.1648 0.000427324 2.95514)
(37.9006 0.000466684 3.18561)
(37.6272 0.000533289 3.41405)
(37.3529 0.000437409 3.64311)
(37.0938 0.000415626 3.88543)