/*--------------------------------*- C++ -*----------------------------------*\
| =========                 |                                                 |
| \\      /  F ield         | OpenFOAM: The Open Source CFD Toolbox           |
|  \\    /   O peration     | Version:  4.1                                   |
|   \\  /    A nd           | Web:      www.OpenFOAM.org                      |
|    \\/     M anipulation  |                                                 |
\*---------------------------------------------------------------------------*/
FoamFile
{
    version     2.0;
    format      ascii;
    class       surfaceScalarField;
    location    "59";
    object      phi;
}
// * * * * * * * * * * * * * * * * * * * * * * * * * * * * * * * * * * * * * //

dimensions      [0 3 -1 0 0 0 0];

internalField   nonuniform List<scalar> 
11516
(
-4.04563e+10
5.92889e+07
5.86658e+08
-4.08716e+10
3.63169e+07
3.7842e+08
-4.12288e+10
1.15712e+07
3.47085e+08
-4.13987e+10
-4.62577e+07
2.19992e+08
-4.15987e+10
-7.52158e+06
2.13516e+08
-4.17961e+10
-8.23948e+06
2.1344e+08
-4.19621e+10
-1.70525e+07
1.91991e+08
-4.2124e+10
-1.65273e+07
1.87958e+08
-4.22726e+10
-1.85022e+07
1.76679e+08
-4.24044e+10
-2.02307e+07
1.61344e+08
-4.25138e+10
-2.21244e+07
1.40727e+08
-4.25946e+10
-2.47875e+07
1.14929e+08
-4.2635e+10
-2.86527e+07
7.98535e+07
-4.26275e+10
-3.32887e+07
3.97795e+07
-4.25621e+10
-3.78291e+07
-8.54906e+06
-4.24321e+10
-4.16492e+07
-6.24439e+07
-4.22351e+10
-4.54948e+07
-1.20932e+08
-4.19653e+10
-4.94614e+07
-1.84952e+08
-4.16224e+10
-5.4039e+07
-2.51047e+08
-4.12027e+10
-5.83715e+07
-3.18998e+08
-4.07091e+10
-6.34741e+07
-3.8821e+08
-4.01503e+10
-6.8486e+07
-4.50845e+08
-3.95343e+10
-7.42274e+07
-5.10382e+08
-3.88743e+10
-7.97935e+07
-5.57039e+08
-3.8178e+10
-8.48501e+07
-5.94974e+08
-3.74604e+10
-8.90822e+07
-6.16244e+08
-3.67312e+10
-9.25733e+07
-6.26832e+08
-3.60065e+10
-9.54511e+07
-6.20788e+08
-3.52962e+10
-9.79621e+07
-6.04499e+08
-3.46123e+10
-1.00323e+08
-5.7623e+08
-3.39655e+10
-1.02748e+08
-5.37158e+08
-3.3363e+10
-1.05554e+08
-4.90916e+08
-3.28157e+10
-1.08928e+08
-4.33101e+08
-3.23311e+10
-1.13079e+08
-3.66701e+08
-3.19172e+10
-1.1834e+08
-2.90516e+08
-3.15819e+10
-1.25615e+08
-2.02597e+08
-3.13276e+10
-1.36528e+08
-1.06008e+08
-3.11558e+10
-1.52741e+08
1.45722e+06
-3.10632e+10
-1.7632e+08
1.18214e+08
-3.10489e+10
-2.08823e+08
2.4892e+08
-3.11161e+10
-2.50646e+08
3.98559e+08
-3.12723e+10
-3.02908e+08
5.72066e+08
-3.1531e+10
-3.67816e+08
7.77116e+08
-3.1918e+10
-4.48047e+08
1.02476e+09
-3.24828e+10
-5.44664e+08
1.33128e+09
-3.33123e+10
-6.59119e+08
1.71397e+09
-3.45238e+10
-8.00935e+08
2.17973e+09
-3.62035e+10
-1.02125e+09
2.69583e+09
-3.83405e+10
-1.4416e+09
3.27477e+09
-4.08727e+10
-2.18542e+09
4.01681e+09
-4.49632e+10
-3.12778e+09
6.01945e+09
-5.12385e+10
-3.99297e+09
9.09338e+09
-6.13541e+10
-1.02325e+10
1.96111e+10
-5.75781e+09
1.19489e+10
-5.47532e+10
2.63133e+08
-5.48108e+10
9.5111e+07
-5.48417e+10
4.46036e+07
-5.48918e+10
6.97691e+06
-5.48646e+10
-3.01837e+07
-5.48376e+10
-2.95785e+07
-5.48068e+10
-4.16103e+07
-5.4772e+10
-4.45879e+07
-5.47299e+10
-5.3737e+07
-5.46785e+10
-6.46897e+07
-5.46139e+10
-7.97975e+07
-5.45335e+10
-9.77711e+07
-5.44295e+10
-1.24132e+08
-5.42981e+10
-1.53817e+08
-5.41317e+10
-1.90109e+08
-5.39247e+10
-2.31144e+08
-5.3675e+10
-2.74635e+08
-5.33778e+10
-3.23808e+08
-5.30339e+10
-3.7281e+08
-5.26418e+10
-4.2381e+08
-5.22031e+10
-4.74588e+08
-5.17278e+10
-5.18613e+08
-5.12207e+10
-5.59707e+08
-5.0695e+10
-5.87603e+08
-5.01563e+10
-6.08016e+08
-4.96189e+10
-6.12165e+08
-4.90898e+10
-6.0762e+08
-4.85834e+10
-5.87392e+08
-4.81071e+10
-5.59026e+08
-4.76712e+10
-5.20085e+08
-4.72849e+10
-4.71902e+08
-4.69531e+10
-4.19193e+08
-4.6685e+10
-3.57559e+08
-4.64861e+10
-2.90967e+08
-4.6363e+10
-2.18232e+08
-4.63244e+10
-1.37756e+08
-4.63767e+10
-5.28798e+07
-4.65328e+10
4.17096e+07
-4.6803e+10
1.41851e+08
-4.72013e+10
2.49921e+08
-4.77424e+10
3.66322e+08
-4.84452e+10
4.93987e+08
-4.93375e+10
6.39184e+08
-5.04582e+10
8.08304e+08
-5.1865e+10
1.01364e+09
-5.3644e+10
1.27202e+09
-5.59273e+10
1.59642e+09
-5.89072e+10
1.98404e+09
-6.29651e+10
2.46954e+09
-6.88357e+10
3.2939e+09
-7.85555e+10
6.07148e+09
-9.42025e+10
1.10684e+10
-1.24899e+11
2.00464e+10
1.42593e+10
-6.83068e+10
2.37345e+07
6.75228e+08
-6.83952e+10
9.08253e+06
4.64198e+08
-6.84786e+10
-5.59183e+06
4.4245e+08
-6.85881e+10
-1.11943e+06
3.38128e+08
-6.86425e+10
-9.43049e+06
2.86549e+08
-6.86999e+10
-6.14213e+06
2.87752e+08
-6.8764e+10
-5.54112e+06
2.73378e+08
-6.88215e+10
-4.35317e+06
2.62296e+08
-6.88739e+10
-4.93748e+06
2.47094e+08
-6.89239e+10
-4.44218e+06
2.2922e+08
-6.89679e+10
-4.80367e+06
2.03448e+08
-6.90023e+10
-5.74711e+06
1.69757e+08
-6.90255e+10
-7.53173e+06
1.2742e+08
-6.90349e+10
-1.00465e+07
7.84771e+07
-6.90277e+10
-1.25088e+07
2.16124e+07
-6.90061e+10
-1.54864e+07
-3.96506e+07
-6.89673e+10
-1.8316e+07
-1.06896e+08
-6.89149e+10
-2.21643e+07
-1.78544e+08
-6.8846e+10
-2.63463e+07
-2.52218e+08
-6.87633e+10
-3.13128e+07
-3.26739e+08
-6.86689e+10
-3.64349e+07
-3.99401e+08
-6.85671e+10
-4.21776e+07
-4.64942e+08
-6.84652e+10
-4.8204e+07
-5.21764e+08
-6.83625e+10
-5.40177e+07
-5.66496e+08
-6.82674e+10
-5.91343e+07
-5.93307e+08
-6.81755e+10
-6.31609e+07
-6.06894e+08
-6.80928e+10
-6.59539e+07
-6.03496e+08
-6.80154e+10
-6.73689e+07
-5.88027e+08
-6.79459e+10
-6.73122e+07
-5.6034e+08
-6.78791e+10
-6.56151e+07
-5.27111e+08
-6.78129e+10
-6.21792e+07
-4.86386e+08
-6.77441e+10
-5.68634e+07
-4.43406e+08
-6.7665e+10
-4.95447e+07
-3.9782e+08
-6.75716e+10
-3.98884e+07
-3.49279e+08
-6.74554e+10
-2.76994e+07
-3.0121e+08
-6.73084e+10
-1.29602e+07
-2.50119e+08
-6.71253e+10
4.46407e+06
-1.96891e+08
-6.69035e+10
2.56074e+07
-1.36434e+08
-6.66413e+10
5.00773e+07
-6.90345e+07
-6.63296e+10
7.64325e+07
4.60984e+06
-6.5953e+10
1.03331e+08
8.42452e+07
-6.54991e+10
1.31261e+08
1.77304e+08
-6.495e+10
1.61091e+08
2.84157e+08
-6.42829e+10
1.91389e+08
4.11238e+08
-6.34716e+10
2.21401e+08
5.68546e+08
-6.24884e+10
2.49958e+08
7.65177e+08
-6.12903e+10
2.66918e+08
9.89578e+08
-5.98595e+10
2.54929e+08
1.24166e+09
-5.82514e+10
2.01518e+08
1.60452e+09
-5.67735e+10
1.32397e+08
2.43452e+09
-5.42203e+10
-2.57154e+07
3.42588e+09
-4.95669e+10
3.52662e+07
4.27687e+09
-2.05054e+10
-6.14486e+09
-3.41095e+09
-4.52457e+09
-5.62668e+09
-7.60842e+10
3.35153e+08
-7.61132e+10
1.37663e+08
-7.61636e+10
9.43768e+07
-7.62171e+10
6.52153e+07
-7.62653e+10
1.54267e+07
-7.63054e+10
1.20068e+07
-7.63516e+10
7.22771e+06
-7.63931e+10
1.18511e+06
-7.64337e+10
-9.0532e+06
-7.64744e+10
-1.90536e+07
-7.65139e+10
-3.53797e+07
-7.6549e+10
-5.79142e+07
-7.65806e+10
-8.83377e+07
-7.66058e+10
-1.24649e+08
-7.66224e+10
-1.69319e+08
-7.66304e+10
-2.18519e+08
-7.66267e+10
-2.74172e+08
-7.66137e+10
-3.34196e+08
-7.65898e+10
-3.96339e+08
-7.65561e+10
-4.59666e+08
-7.65156e+10
-5.21353e+08
-7.64702e+10
-5.76762e+08
-7.64265e+10
-6.23987e+08
-7.6382e+10
-6.60058e+08
-7.63448e+10
-6.7852e+08
-7.63091e+10
-6.84526e+08
-7.62807e+10
-6.73727e+08
-7.62542e+10
-6.51035e+08
-7.62318e+10
-6.15806e+08
-7.6207e+10
-5.74831e+08
-7.61767e+10
-5.2546e+08
-7.61368e+10
-4.73602e+08
-7.60787e+10
-4.19151e+08
-7.59978e+10
-3.61326e+08
-7.58849e+10
-3.03343e+08
-7.57318e+10
-2.42453e+08
-7.55306e+10
-1.81046e+08
-7.52695e+10
-1.16317e+08
-7.49404e+10
-4.89467e+07
-7.4537e+10
2.37888e+07
-7.40517e+10
9.98746e+07
-7.34766e+10
1.82043e+08
-7.27906e+10
2.64148e+08
-7.19734e+10
3.50831e+08
-7.10016e+10
4.47582e+08
-6.98452e+10
5.58062e+08
-6.84717e+10
6.73898e+08
-6.68788e+10
7.93776e+08
-6.50638e+10
9.40081e+08
-6.29116e+10
1.28857e+09
-5.86296e+10
1.69825e+09
-4.87037e+10
1.10593e+09
-2.94292e+10
-5.17845e+09
-8.48455e+09
-5.71161e+10
2.00256e+08
2.71792e+08
-5.70293e+10
2.35231e+08
1.55459e+08
-5.69542e+10
2.28338e+08
1.52966e+08
-5.70083e+10
2.4912e+08
1.57802e+08
-5.70445e+10
2.33076e+08
1.05324e+08
-5.70817e+10
2.41107e+08
1.00351e+08
-5.71419e+10
2.47744e+08
1.03352e+08
-5.7208e+10
2.53414e+08
9.345e+07
-5.72767e+10
2.56642e+08
7.86844e+07
-5.73437e+10
2.61409e+08
5.52488e+07
-5.74087e+10
2.65533e+08
2.44813e+07
-5.74703e+10
2.69765e+08
-1.54229e+07
-5.75224e+10
2.73065e+08
-6.81867e+07
-5.75557e+10
2.75135e+08
-1.34581e+08
-5.75645e+10
2.76498e+08
-2.1165e+08
-5.75369e+10
2.76149e+08
-3.04613e+08
-5.74661e+10
2.75334e+08
-4.08726e+08
-5.73509e+10
2.733e+08
-5.20575e+08
-5.71823e+10
2.7102e+08
-6.40503e+08
-5.69603e+10
2.68059e+08
-7.62948e+08
-5.66857e+10
2.65565e+08
-8.81026e+08
-5.63624e+10
2.62489e+08
-9.93893e+08
-5.60002e+10
2.60112e+08
-1.08888e+09
-5.56099e+10
2.58818e+08
-1.16234e+09
-5.51998e+10
2.5949e+08
-1.20861e+09
-5.47852e+10
2.62452e+08
-1.22647e+09
-5.43781e+10
2.67768e+08
-1.21606e+09
-5.39905e+10
2.75297e+08
-1.18281e+09
-5.36314e+10
2.84762e+08
-1.12928e+09
-5.33118e+10
2.95853e+08
-1.05989e+09
-5.30347e+10
3.0832e+08
-9.8076e+08
-5.28091e+10
3.22031e+08
-8.90568e+08
-5.2637e+10
3.36802e+08
-7.96001e+08
-5.25207e+10
3.52245e+08
-6.95398e+08
-5.24671e+10
3.6791e+08
-5.86951e+08
-5.24742e+10
3.83354e+08
-4.74936e+08
-5.25409e+10
3.97259e+08
-3.57581e+08
-5.26565e+10
4.06995e+08
-2.35783e+08
-5.28099e+10
4.13306e+08
-1.10271e+08
-5.29962e+10
4.21203e+08
2.01387e+07
-5.32181e+10
4.32215e+08
1.61301e+08
-5.3464e+10
4.4221e+08
3.10668e+08
-5.37224e+10
4.46498e+08
4.73111e+08
-5.39705e+10
4.43953e+08
6.43583e+08
-5.41747e+10
4.32401e+08
8.17815e+08
-5.4287e+10
4.05112e+08
9.84462e+08
-5.42615e+10
3.44928e+08
1.13425e+09
-5.40448e+10
2.1441e+08
1.27387e+09
-5.3445e+10
-3.77858e+07
1.4229e+09
-5.1751e+10
-3.64398e+08
1.39389e+09
-4.91695e+10
-5.12369e+08
1.67669e+09
-4.77317e+10
-9.27429e+08
4.1713e+09
-5.39551e+10
-1.11734e+10
1.47166e+10
-1.11294e+10
6.72495e+09
-6.21987e+10
4.39368e+08
-6.21651e+10
3.49155e+08
-6.21692e+10
3.37081e+08
-6.219e+10
3.45798e+08
-6.22557e+10
3.25172e+08
-6.23188e+10
3.27814e+08
-6.23931e+10
3.41478e+08
-6.24664e+10
3.40939e+08
-6.2544e+10
3.39057e+08
-6.26163e+10
3.29443e+08
-6.26853e+10
3.14772e+08
-6.2748e+10
2.91225e+08
-6.28003e+10
2.55608e+08
-6.28365e+10
2.07774e+08
-6.28561e+10
1.50867e+08
-6.28519e+10
8.08597e+07
-6.28207e+10
-612054
-6.27613e+10
-8.8789e+07
-6.26681e+10
-1.8508e+08
-6.25414e+10
-2.82058e+08
-6.2385e+10
-3.75253e+08
-6.21999e+10
-4.62494e+08
-6.19957e+10
-5.32453e+08
-6.178e+10
-5.81416e+08
-6.1558e+10
-6.03995e+08
-6.13413e+10
-5.98904e+08
-6.11376e+10
-5.66062e+08
-6.09547e+10
-5.107e+08
-6.07979e+10
-4.34923e+08
-6.06759e+10
-3.42797e+08
-6.05885e+10
-2.40343e+08
-6.05435e+10
-1.25865e+08
-6.05414e+10
-6.51151e+06
-6.05839e+10
1.19285e+08
-6.06781e+10
2.53879e+08
-6.0824e+10
3.92656e+08
-6.10277e+10
5.3834e+08
-6.12958e+10
6.9228e+08
-6.16329e+10
8.52856e+08
-6.20317e+10
1.01584e+09
-6.24895e+10
1.18585e+09
-6.30048e+10
1.36228e+09
-6.35957e+10
1.55431e+09
-6.42753e+10
1.75837e+09
-6.50561e+10
1.97402e+09
-6.59611e+10
2.19989e+09
-6.70517e+10
2.4372e+09
-6.8432e+10
2.68609e+09
-7.02375e+10
2.96742e+09
-7.25479e+10
3.47648e+09
-7.67346e+10
5.7034e+09
-8.49549e+10
9.1154e+09
-1.15447e+11
1.49477e+10
7.50773e+09
-6.13791e+10
7.71242e+07
2.41199e+08
-6.15604e+10
1.04052e+08
2.5234e+08
-6.1707e+10
1.03616e+08
2.1531e+08
-6.18862e+10
1.00002e+08
2.56123e+08
-6.21056e+10
9.37453e+07
2.50101e+08
-6.23311e+10
9.701e+07
2.48442e+08
-6.25635e+10
1.04559e+08
2.5208e+08
-6.28094e+10
1.08105e+08
2.53614e+08
-6.3065e+10
1.09202e+08
2.49191e+08
-6.33269e+10
1.10244e+08
2.32573e+08
-6.35884e+10
1.10244e+08
2.03002e+08
-6.38441e+10
1.09897e+08
1.59542e+08
-6.40914e+10
1.0896e+08
1.00982e+08
-6.43272e+10
1.07424e+08
2.81066e+07
-6.45443e+10
1.04864e+08
-6.29393e+07
-6.47424e+10
1.0184e+08
-1.67359e+08
-6.49211e+10
9.61303e+07
-2.84681e+08
-6.50725e+10
8.82975e+07
-4.13364e+08
-6.51978e+10
7.84424e+07
-5.49833e+08
-6.52886e+10
6.79364e+07
-6.91582e+08
-6.53453e+10
5.5707e+07
-8.31248e+08
-6.53681e+10
4.25207e+07
-9.63935e+08
-6.53589e+10
2.84558e+07
-1.07733e+09
-6.53218e+10
1.43405e+07
-1.16363e+09
-6.52585e+10
834770
-1.21875e+09
-6.51752e+10
-1.17418e+07
-1.23842e+09
-6.5075e+10
-2.32483e+07
-1.227e+09
-6.49603e+10
-3.37552e+07
-1.19062e+09
-6.48322e+10
-4.35066e+07
-1.13308e+09
-6.46868e+10
-5.28215e+07
-1.0633e+09
-6.4524e+10
-6.1873e+07
-9.83449e+08
-6.43369e+10
-7.06556e+07
-8.98718e+08
-6.41238e+10
-7.92985e+07
-8.10583e+08
-6.38783e+10
-8.80168e+07
-7.21668e+08
-6.35911e+10
-9.68452e+07
-6.32424e+08
-6.32585e+10
-1.06534e+08
-5.40621e+08
-6.28696e+10
-1.17236e+08
-4.50785e+08
-6.24155e+10
-1.30003e+08
-3.60452e+08
-6.18881e+10
-1.45848e+08
-2.67341e+08
-6.12782e+10
-1.64523e+08
-1.72378e+08
-6.05724e+10
-1.8545e+08
-7.33623e+07
-5.97589e+10
-2.07577e+08
2.68073e+07
-5.88208e+10
-2.30972e+08
1.27658e+08
-5.7749e+10
-2.56307e+08
2.30774e+08
-5.65323e+10
-2.84505e+08
3.26522e+08
-5.51662e+10
-3.18459e+08
4.04388e+08
-5.36423e+10
-3.71871e+08
4.53993e+08
-5.19197e+10
-4.68839e+08
4.79594e+08
-4.98536e+10
-6.337e+08
4.39448e+08
-4.75329e+10
-6.40218e+08
2.47382e+08
-4.52412e+10
-6.04629e+07
7.22549e+07
-4.06629e+10
-5.51093e+07
6.12434e+08
-2.03353e+10
-1.18793e+10
7.17926e+09
-6.8719e+09
-4.28522e+08
-6.54264e+10
3.99735e+08
-6.53928e+10
4.31972e+08
-6.53824e+10
4.4252e+08
-6.53806e+10
4.56153e+08
-6.54124e+10
4.62985e+08
-6.54526e+10
4.77728e+08
-6.5489e+10
4.95893e+08
-6.55346e+10
5.09127e+08
-6.55882e+10
5.17427e+08
-6.56457e+10
5.13681e+08
-6.57028e+10
4.9965e+08
-6.57551e+10
4.71995e+08
-6.58001e+10
4.29751e+08
-6.58364e+10
3.73218e+08
-6.58548e+10
2.98114e+08
-6.58561e+10
2.0943e+08
-6.58444e+10
1.10074e+08
-6.58212e+10
3.12268e+06
-6.57914e+10
-1.08255e+08
-6.57528e+10
-2.23346e+08
-6.57071e+10
-3.34853e+08
-6.56583e+10
-4.38088e+08
-6.56096e+10
-5.21693e+08
-6.55658e+10
-5.78214e+08
-6.55286e+10
-6.04374e+08
-6.55025e+10
-5.96252e+08
-6.54882e+10
-5.58305e+08
-6.54858e+10
-4.9638e+08
-6.54942e+10
-4.14059e+08
-6.55082e+10
-3.19618e+08
-6.55269e+10
-2.14922e+08
-6.55429e+10
-1.04705e+08
-6.55553e+10
1.02115e+07
-6.55594e+10
1.27754e+08
-6.55478e+10
2.47782e+08
-6.5521e+10
3.72961e+08
-6.54722e+10
4.99241e+08
-6.53966e+10
6.29176e+08
-6.52953e+10
7.66327e+08
-6.51779e+10
9.15348e+08
-6.50504e+10
1.07791e+09
-6.49148e+10
1.25051e+09
-6.47663e+10
1.43461e+09
-6.46098e+10
1.63414e+09
-6.44483e+10
1.84193e+09
-6.4291e+10
2.05311e+09
-6.41568e+10
2.25909e+09
-6.40536e+10
2.4335e+09
-6.38784e+10
2.483e+09
-6.31186e+10
2.47244e+09
-5.92189e+10
2.37631e+09
-5.17681e+10
2.45378e+09
-5.43201e+10
6.17667e+09
1.91188e+09
-5.68312e+10
1.82658e+08
1.14732e+08
-5.69484e+10
1.89741e+08
1.96392e+08
-5.71091e+10
1.78687e+08
2.13756e+08
-5.72613e+10
1.78099e+08
2.45984e+08
-5.74529e+10
1.78573e+08
2.78353e+08
-5.76722e+10
1.83014e+08
2.99919e+08
-5.79084e+10
1.87517e+08
3.16262e+08
-5.81581e+10
1.89952e+08
3.29413e+08
-5.84167e+10
1.91454e+08
3.33176e+08
-5.86816e+10
1.91811e+08
3.23238e+08
-5.895e+10
1.90325e+08
2.99483e+08
-5.9218e+10
1.8744e+08
2.59164e+08
-5.94835e+10
1.84034e+08
2.02226e+08
-5.97381e+10
1.80144e+08
1.23258e+08
-5.99796e+10
1.75297e+08
2.43304e+07
-6.02028e+10
1.68815e+08
-9.1407e+07
-6.04043e+10
1.60715e+08
-2.24342e+08
-6.05824e+10
1.52719e+08
-3.69539e+08
-6.0736e+10
1.44316e+08
-5.23369e+08
-6.08628e+10
1.3482e+08
-6.81429e+08
-6.09626e+10
1.2254e+08
-8.36709e+08
-6.10352e+10
1.07444e+08
-9.80555e+08
-6.10853e+10
8.8172e+07
-1.09771e+09
-6.11168e+10
6.48518e+07
-1.17643e+09
-6.11376e+10
3.71237e+07
-1.21019e+09
-6.11513e+10
5.29711e+06
-1.19964e+09
-6.11616e+10
-3.02407e+07
-1.15107e+09
-6.1168e+10
-6.86355e+07
-1.0755e+09
-6.1167e+10
-1.09111e+08
-9.80279e+08
-6.11529e+10
-1.51103e+08
-8.7641e+08
-6.1119e+10
-1.9416e+08
-7.67876e+08
-6.10581e+10
-2.37844e+08
-6.60276e+08
-6.09628e+10
-2.81871e+08
-5.5589e+08
-6.08277e+10
-3.26493e+08
-4.54762e+08
-6.06457e+10
-3.71882e+08
-3.58287e+08
-6.04082e+10
-4.18446e+08
-2.65407e+08
-6.01118e+10
-4.6705e+08
-1.73707e+08
-5.9747e+10
-5.18994e+08
-8.50536e+07
-5.93056e+10
-5.74865e+08
5.27061e+06
-5.87793e+10
-6.33752e+08
9.56664e+07
-5.81586e+10
-6.9599e+08
1.87545e+08
-5.74372e+10
-7.62837e+08
2.82108e+08
-5.6606e+10
-8.34182e+08
3.7522e+08
-5.56587e+10
-9.09219e+08
4.67946e+08
-5.45962e+10
-9.86172e+08
5.5019e+08
-5.34357e+10
-1.06245e+09
6.14259e+08
-5.21898e+10
-1.14895e+09
6.46367e+08
-5.07691e+10
-1.29963e+09
6.00849e+08
-4.89264e+10
-1.5561e+09
3.67141e+08
-4.72586e+10
-1.51289e+09
2.56402e+08
-4.56491e+10
-1.58067e+09
3.99812e+08
-4.40984e+10
-2.05408e+09
1.58905e+09
-2.15527e+10
-8.58799e+09
-6.54145e+09
-4.67811e+09
-1.10182e+10
-5.74707e+10
4.01707e+08
-5.73296e+10
4.90251e+08
-5.72249e+10
5.25715e+08
-5.71326e+10
5.5073e+08
-5.70682e+10
5.85509e+08
-5.70184e+10
6.19014e+08
-5.69695e+10
6.4257e+08
-5.69242e+10
6.6203e+08
-5.68807e+10
6.7385e+08
-5.68391e+10
6.72587e+08
-5.67977e+10
6.57474e+08
-5.67534e+10
6.24401e+08
-5.67043e+10
5.74225e+08
-5.66423e+10
5.01087e+08
-5.65649e+10
4.05973e+08
-5.64689e+10
2.91193e+08
-5.6347e+10
1.56622e+08
-5.61902e+10
4.94055e+06
-5.59884e+10
-1.60644e+08
-5.57371e+10
-3.35562e+08
-5.54353e+10
-5.10124e+08
-5.5087e+10
-6.76167e+08
-5.47015e+10
-8.16179e+08
-5.42929e+10
-9.17584e+08
-5.38806e+10
-9.72133e+08
-5.34816e+10
-9.79582e+08
-5.31116e+10
-9.45464e+08
-5.27809e+10
-8.80508e+08
-5.24941e+10
-7.92458e+08
-5.2252e+10
-6.92886e+08
-5.20518e+10
-5.8674e+08
-5.18888e+10
-4.7994e+08
-5.17572e+10
-3.74146e+08
-5.16522e+10
-2.70693e+08
-5.15659e+10
-1.72509e+08
-5.14895e+10
-7.78894e+07
-5.1422e+10
1.61898e+07
-5.13578e+10
1.07158e+08
-5.12922e+10
1.99003e+08
-5.1215e+10
2.92242e+08
-5.11151e+10
3.86888e+08
-5.09891e+10
4.86106e+08
-5.083e+10
5.86398e+08
-5.06269e+10
6.85924e+08
-5.03645e+10
7.69401e+08
-5.00276e+10
8.25028e+08
-4.95993e+10
8.26022e+08
-4.90687e+10
7.01669e+08
-4.83571e+10
2.80309e+08
-4.678e+10
-5.18253e+08
-4.41889e+10
-1.64496e+09
-4.09432e+10
-2.6558e+09
-2.93732e+10
-1.39863e+10
-9.36004e+09
-5.93283e+10
4.0521e+08
-3.69952e+08
-5.92627e+10
4.07874e+08
-2.69826e+08
-5.92332e+10
4.06035e+08
-2.15508e+08
-5.92176e+10
4.08294e+08
-1.7276e+08
-5.92185e+10
4.0952e+08
-1.26609e+08
-5.92387e+10
4.11933e+08
-8.95403e+07
-5.9276e+10
4.14433e+08
-5.98717e+07
-5.93262e+10
4.168e+08
-3.71597e+07
-5.93859e+10
4.19244e+08
-2.71847e+07
-5.9453e+10
4.21367e+08
-3.26143e+07
-5.95214e+10
4.23748e+08
-5.8226e+07
-5.95868e+10
4.26204e+08
-1.04869e+08
-5.96433e+10
4.29499e+08
-1.74953e+08
-5.96867e+10
4.33631e+08
-2.73156e+08
-5.97132e+10
4.3896e+08
-3.95941e+08
-5.97189e+10
4.44627e+08
-5.43006e+08
-5.97027e+10
4.5164e+08
-7.09161e+08
-5.96632e+10
4.59096e+08
-8.91479e+08
-5.95991e+10
4.67104e+08
-1.08136e+09
-5.95142e+10
4.75439e+08
-1.27428e+09
-5.94083e+10
4.84411e+08
-1.46186e+09
-5.92879e+10
4.92661e+08
-1.63285e+09
-5.91626e+10
4.99897e+08
-1.76354e+09
-5.90492e+10
5.04911e+08
-1.8349e+09
-5.89663e+10
5.06453e+08
-1.838e+09
-5.89265e+10
5.03086e+08
-1.78046e+09
-5.89359e+10
4.94084e+08
-1.67519e+09
-5.89932e+10
4.79525e+08
-1.54007e+09
-5.90889e+10
4.60122e+08
-1.39089e+09
-5.9215e+10
4.36895e+08
-1.23744e+09
-5.93595e+10
4.111e+08
-1.0888e+09
-5.95133e+10
3.83864e+08
-9.48792e+08
-5.96713e+10
3.56307e+08
-8.16972e+08
-5.9828e+10
3.28957e+08
-6.94059e+08
-5.99831e+10
3.02204e+08
-5.7642e+08
-6.01365e+10
2.76231e+08
-4.62494e+08
-6.02911e+10
2.51677e+08
-3.47598e+08
-6.0452e+10
2.28722e+08
-2.30242e+08
-6.06234e+10
2.06752e+08
-1.06445e+08
-6.0815e+10
1.84312e+08
3.01494e+07
-6.10341e+10
1.58959e+08
1.80412e+08
-6.12905e+10
1.28545e+08
3.49932e+08
-6.16004e+10
9.13958e+07
5.4067e+08
-6.19809e+10
4.43416e+07
7.54207e+08
-6.24648e+10
-1.66141e+07
9.91979e+08
-6.30938e+10
-9.82653e+07
1.24815e+09
-6.39031e+10
-2.23279e+08
1.50706e+09
-6.48635e+10
-4.29243e+08
1.68917e+09
-6.58739e+10
-7.18364e+08
1.61091e+09
-6.5623e+10
-1.26814e+09
7.10954e+08
-6.2283e+10
-2.27225e+09
-1.42585e+09
-5.28082e+10
-4.52286e+09
-4.22085e+09
-3.69681e+10
-9.22115e+09
-1.35406e+10
-4.31541e+09
-5.37376e+09
-6.16324e+10
7.43546e+08
-6.16121e+10
8.82394e+08
-6.16126e+10
9.36211e+08
-6.16356e+10
9.85226e+08
-6.16817e+10
1.04342e+09
-6.1747e+10
1.09777e+09
-6.18316e+10
1.14231e+09
-6.19316e+10
1.17901e+09
-6.20416e+10
1.20263e+09
-6.21598e+10
1.21127e+09
-6.22791e+10
1.19905e+09
-6.23954e+10
1.1649e+09
-6.24999e+10
1.10539e+09
-6.25844e+10
1.01541e+09
-6.26423e+10
8.97017e+08
-6.26652e+10
7.50152e+08
-6.26475e+10
5.78435e+08
-6.25846e+10
3.85412e+08
-6.24763e+10
1.79375e+08
-6.23231e+10
-3.48582e+07
-6.21237e+10
-2.4938e+08
-6.18804e+10
-4.53235e+08
-6.16014e+10
-6.22282e+08
-6.13034e+10
-7.3638e+08
-6.10095e+10
-7.83982e+08
-6.07394e+10
-7.70676e+08
-6.05092e+10
-7.06776e+08
-6.03286e+10
-6.08926e+08
-6.01983e+10
-4.92636e+08
-6.01187e+10
-3.6841e+08
-6.00836e+10
-2.46383e+08
-6.00878e+10
-1.30321e+08
-6.01302e+10
-1.67819e+07
-6.02064e+10
9.02248e+07
-6.03142e+10
1.90821e+08
-6.04495e+10
2.84705e+08
-6.0608e+10
3.76042e+08
-6.07866e+10
4.63737e+08
-6.098e+10
5.49494e+08
-6.11898e+10
6.39092e+08
-6.14184e+10
7.30923e+08
-6.16716e+10
8.2861e+08
-6.19599e+10
9.30481e+08
-6.22994e+10
1.03385e+09
-6.2728e+10
1.13551e+09
-6.3298e+10
1.22085e+09
-6.40955e+10
1.26415e+09
-6.52289e+10
1.17954e+09
-6.67446e+10
7.50123e+08
-6.84208e+10
-5.73577e+08
-6.96349e+10
-3.26051e+09
-6.98247e+10
-7.48746e+09
-7.512e+10
-1.83859e+10
-3.16077e+09
-5.92625e+10
1.64981e+08
-5.88957e+08
-5.92143e+10
1.70478e+08
-4.8434e+08
-5.91711e+10
1.75105e+08
-4.30451e+08
-5.91483e+10
1.80645e+08
-3.74048e+08
-5.91358e+10
1.8235e+08
-3.20187e+08
-5.91348e+10
1.81982e+08
-2.72424e+08
-5.9145e+10
1.80652e+08
-2.31463e+08
-5.91638e+10
1.80321e+08
-2.00775e+08
-5.91892e+10
1.80018e+08
-1.85059e+08
-5.92151e+10
1.78856e+08
-1.89714e+08
-5.92411e+10
1.76034e+08
-2.13482e+08
-5.92562e+10
1.7209e+08
-2.68017e+08
-5.92509e+10
1.67454e+08
-3.55251e+08
-5.92178e+10
1.62005e+08
-4.77944e+08
-5.91461e+10
1.55831e+08
-6.36462e+08
-5.90268e+10
1.49147e+08
-8.29397e+08
-5.88493e+10
1.42713e+08
-1.05318e+09
-5.86074e+10
1.37157e+08
-1.30037e+09
-5.82931e+10
1.34141e+08
-1.56532e+09
-5.7901e+10
1.34488e+08
-1.84119e+09
-5.74217e+10
1.38399e+08
-2.12445e+09
-5.68526e+10
1.47133e+08
-2.39737e+09
-5.61995e+10
1.6236e+08
-2.62576e+09
-5.54959e+10
1.84471e+08
-2.76725e+09
-5.47823e+10
2.13244e+08
-2.80535e+09
-5.4102e+10
2.46303e+08
-2.74792e+09
-5.34832e+10
2.81619e+08
-2.61939e+09
-5.29419e+10
3.1704e+08
-2.44749e+09
-5.24843e+10
3.51075e+08
-2.25496e+09
-5.21048e+10
3.82637e+08
-2.06138e+09
-5.17975e+10
4.10105e+08
-1.87463e+09
-5.15517e+10
4.33742e+08
-1.70348e+09
-5.13575e+10
4.54723e+08
-1.54794e+09
-5.12064e+10
4.7396e+08
-1.40839e+09
-5.10879e+10
4.91447e+08
-1.28282e+09
-5.09941e+10
5.07478e+08
-1.1671e+09
-5.09156e+10
5.22083e+08
-1.05789e+09
-5.08458e+10
5.36106e+08
-9.50859e+08
-5.07827e+10
5.50585e+08
-8.38683e+08
-5.07179e+10
5.65495e+08
-7.20671e+08
-5.06533e+10
5.81432e+08
-5.86572e+08
-5.05901e+10
5.9903e+08
-4.33086e+08
-5.05302e+10
6.17666e+08
-2.58434e+08
-5.04798e+10
6.3604e+08
-5.95281e+07
-5.04576e+10
6.52293e+08
1.7243e+08
-5.05036e+10
6.63307e+08
4.41404e+08
-5.06894e+10
6.61862e+08
7.54892e+08
-5.11532e+10
6.30076e+08
1.09996e+09
-5.2127e+10
5.57174e+08
1.42045e+09
-5.41161e+10
2.82603e+08
1.44707e+09
-5.79517e+10
-4.39837e+08
1.47554e+09
-6.21819e+10
-2.12171e+09
7.74469e+08
-5.88692e+10
-7.21562e+09
-1.07053e+10
3.61553e+09
-5.37027e+09
-6.14004e+10
9.17504e+08
-6.14001e+10
1.05496e+09
-6.14004e+10
1.1134e+09
-6.14116e+10
1.17804e+09
-6.14317e+10
1.24611e+09
-6.146e+10
1.30757e+09
-6.14985e+10
1.36018e+09
-6.15443e+10
1.40315e+09
-6.15958e+10
1.4313e+09
-6.16475e+10
1.43827e+09
-6.17017e+10
1.42511e+09
-6.17512e+10
1.38153e+09
-6.17895e+10
1.30518e+09
-6.18128e+10
1.19326e+09
-6.18148e+10
1.04498e+09
-6.17906e+10
8.61855e+08
-6.17347e+10
6.47909e+08
-6.16451e+10
4.11899e+08
-6.15161e+10
1.59624e+08
-6.13439e+10
-1.01114e+08
-6.11202e+10
-3.66758e+08
-6.08409e+10
-6.18877e+08
-6.05082e+10
-8.25061e+08
-6.01455e+10
-9.44425e+08
-5.97807e+10
-9.6384e+08
-5.94414e+10
-8.92369e+08
-5.91428e+10
-7.55243e+08
-5.88909e+10
-5.79422e+08
-5.86863e+10
-3.86398e+08
-5.85228e+10
-1.94279e+08
-5.84016e+10
-7.30333e+06
-5.83194e+10
1.66685e+08
-5.82691e+10
3.28083e+08
-5.82463e+10
4.76762e+08
-5.82469e+10
6.1311e+08
-5.82703e+10
7.40713e+08
-5.83148e+10
8.63096e+08
-5.83829e+10
9.84151e+08
-5.84793e+10
1.10937e+09
-5.8603e+10
1.23866e+09
-5.87639e+10
1.38168e+09
-5.89701e+10
1.54028e+09
-5.92364e+10
1.71742e+09
-5.95876e+10
1.91641e+09
-6.00673e+10
2.14399e+09
-6.07499e+10
2.40345e+09
-6.17627e+10
2.70088e+09
-6.33135e+10
3.00287e+09
-6.57969e+10
3.23673e+09
-7.02543e+10
3.34635e+09
-7.86823e+10
3.67531e+09
-9.30104e+10
3.47254e+09
-1.2057e+11
9.00926e+08
-2.5233e+10
-6.07265e+10
-3.24702e+08
-2.5526e+08
-6.07388e+10
-3.30595e+08
-1.39567e+08
-6.07615e+10
-3.2783e+08
-7.89751e+07
-6.08033e+10
-3.28806e+08
-3.35117e+06
-6.08591e+10
-3.33087e+08
6.80891e+07
-6.09311e+10
-3.40157e+08
1.38239e+08
-6.10219e+10
-3.478e+08
2.04731e+08
-6.11289e+10
-3.54315e+08
2.57114e+08
-6.12522e+10
-3.6097e+08
2.9459e+08
-6.13901e+10
-3.68276e+08
3.10961e+08
-6.15333e+10
-3.7653e+08
2.99812e+08
-6.16773e+10
-3.8503e+08
2.53741e+08
-6.1814e+10
-3.9354e+08
1.66533e+08
-6.19331e+10
-4.01983e+08
3.30747e+07
-6.20253e+10
-4.10263e+08
-1.47056e+08
-6.20793e+10
-4.17936e+08
-3.74702e+08
-6.20865e+10
-4.24323e+08
-6.43976e+08
-6.20353e+10
-4.2925e+08
-9.49852e+08
-6.19172e+10
-4.32479e+08
-1.28425e+09
-6.1724e+10
-4.33399e+08
-1.64012e+09
-6.1441e+10
-4.32397e+08
-2.02018e+09
-6.10425e+10
-4.29403e+08
-2.41253e+09
-6.05216e+10
-4.24228e+08
-2.76568e+09
-5.99069e+10
-4.16397e+08
-3.00272e+09
-5.92554e+10
-4.06654e+08
-3.08414e+09
-5.86132e+10
-3.95805e+08
-3.02889e+09
-5.80108e+10
-3.84794e+08
-2.87654e+09
-5.74626e+10
-3.74218e+08
-2.6683e+09
-5.69692e+10
-3.63996e+08
-2.43912e+09
-5.65249e+10
-3.53479e+08
-2.2148e+09
-5.61205e+10
-3.41734e+08
-2.00756e+09
-5.57487e+10
-3.29778e+08
-1.82365e+09
-5.54013e+10
-3.18155e+08
-1.66327e+09
-5.50701e+10
-3.07874e+08
-1.52619e+09
-5.47439e+10
-3.01406e+08
-1.41076e+09
-5.44152e+10
-3.00133e+08
-1.30755e+09
-5.4074e+10
-3.05247e+08
-1.21418e+09
-5.37132e+10
-3.17631e+08
-1.12235e+09
-5.33199e+10
-3.38087e+08
-1.02916e+09
-5.2885e+10
-3.67958e+08
-9.28758e+08
-5.23918e+10
-4.08916e+08
-8.17111e+08
-5.18247e+10
-4.6327e+08
-6.87988e+08
-5.11709e+10
-5.33053e+08
-5.36373e+08
-5.04175e+10
-6.20109e+08
-3.59855e+08
-4.95604e+10
-7.28722e+08
-1.44228e+08
-4.86146e+10
-8.63199e+08
1.24477e+08
-4.76603e+10
-1.02441e+09
4.95777e+08
-4.68708e+10
-1.2278e+09
1.03532e+09
-4.65285e+10
-1.53614e+09
1.79769e+09
-4.7336e+10
-2.03451e+09
3.04447e+09
-5.05203e+10
-2.6952e+09
5.67968e+09
-5.86311e+10
-2.97496e+09
9.90336e+09
-9.4199e+10
2.06721e+09
2.12504e+10
-2.14497e+10
-6.30202e+09
-5.67807e+10
6.84939e+08
-5.68651e+10
8.10574e+08
-5.69533e+10
8.74942e+08
-5.70555e+10
9.52151e+08
-5.71671e+10
1.02487e+09
-5.7293e+10
1.09298e+09
-5.7439e+10
1.15746e+09
-5.76005e+10
1.20871e+09
-5.77774e+10
1.2448e+09
-5.79682e+10
1.2577e+09
-5.81653e+10
1.24204e+09
-5.83643e+10
1.19109e+09
-5.85568e+10
1.09892e+09
-5.87329e+10
9.6068e+08
-5.88834e+10
7.76426e+08
-5.89979e+10
5.46406e+08
-5.90684e+10
2.78681e+08
-5.90838e+10
-2.11403e+07
-5.90308e+10
-3.49341e+08
-5.88956e+10
-6.97954e+08
-5.86593e+10
-1.06682e+09
-5.82959e+10
-1.44321e+09
-5.77996e+10
-1.77349e+09
-5.72068e+10
-1.97695e+09
-5.65844e+10
-2.0139e+09
-5.59889e+10
-1.9052e+09
-5.54581e+10
-1.696e+09
-5.50101e+10
-1.43167e+09
-5.46458e+10
-1.14993e+09
-5.43565e+10
-8.77541e+08
-5.41243e+10
-6.26716e+08
-5.39337e+10
-4.04092e+08
-5.37632e+10
-2.16062e+08
-5.35957e+10
-5.91715e+07
-5.34253e+10
7.5273e+07
-5.32524e+10
1.96402e+08
-5.30757e+10
3.04659e+08
-5.28986e+10
4.08236e+08
-5.27212e+10
5.08535e+08
-5.25495e+10
6.10159e+08
-5.2384e+10
7.15376e+08
-5.22303e+10
8.27999e+08
-5.20977e+10
9.52026e+08
-5.19964e+10
1.08706e+09
-5.19471e+10
1.2403e+09
-5.19942e+10
1.42317e+09
-5.22373e+10
1.67865e+09
-5.2877e+10
2.03447e+09
-5.43983e+10
2.61521e+09
-5.76583e+10
3.66011e+09
-6.35874e+10
5.71006e+09
-7.18367e+10
7.69078e+09
-8.9908e+10
2.06611e+10
1.19302e+10
-6.00621e+10
-3.6839e+08
1.32181e+08
-6.00919e+10
-3.77977e+08
2.73844e+08
-6.01414e+10
-3.75663e+08
3.51726e+08
-6.0208e+10
-3.77984e+08
4.46785e+08
-6.02943e+10
-3.79065e+08
5.39099e+08
-6.04003e+10
-3.80503e+08
6.30305e+08
-6.05287e+10
-3.81126e+08
7.19521e+08
-6.06828e+10
-3.80234e+08
7.96035e+08
-6.0861e+10
-3.78443e+08
8.55194e+08
-6.10621e+10
-3.76074e+08
8.91373e+08
-6.12814e+10
-3.72803e+08
8.94618e+08
-6.15103e+10
-3.68587e+08
8.53264e+08
-6.17416e+10
-3.63786e+08
7.629e+08
-6.19661e+10
-3.59055e+08
6.16728e+08
-6.21704e+10
-3.55338e+08
4.10294e+08
-6.23455e+10
-3.53523e+08
1.48841e+08
-6.24816e+10
-3.53722e+08
-1.62608e+08
-6.25764e+10
-3.56589e+08
-5.12157e+08
-6.2629e+10
-3.64031e+08
-8.86612e+08
-6.26355e+10
-3.76431e+08
-1.28336e+09
-6.25854e+10
-3.91467e+08
-1.70803e+09
-6.24476e+10
-4.07524e+08
-2.16797e+09
-6.21997e+10
-4.23138e+08
-2.60675e+09
-6.18864e+10
-4.34909e+08
-2.8832e+09
-6.16048e+10
-4.4074e+08
-2.91961e+09
-6.14144e+10
-4.37851e+08
-2.77171e+09
-6.13332e+10
-4.28324e+08
-2.52097e+09
-6.13571e+10
-4.15146e+08
-2.22384e+09
-6.1463e+10
-4.00876e+08
-1.92991e+09
-6.16262e+10
-3.8684e+08
-1.66478e+09
-6.18228e+10
-3.73207e+08
-1.43982e+09
-6.20367e+10
-3.59349e+08
-1.25402e+09
-6.22551e+10
-3.46034e+08
-1.10388e+09
-6.24699e+10
-3.31947e+08
-9.8572e+08
-6.26809e+10
-3.1334e+08
-8.93827e+08
-6.28834e+10
-2.89979e+08
-8.23197e+08
-6.30742e+10
-2.62514e+08
-7.69049e+08
-6.32432e+10
-2.30429e+08
-7.30146e+08
-6.33862e+10
-1.93713e+08
-6.97104e+08
-6.34928e+10
-1.52733e+08
-6.70003e+08
-6.355e+10
-1.07542e+08
-6.4693e+08
-6.35448e+10
-5.75173e+07
-6.22442e+08
-6.34633e+10
-2.91148e+06
-5.92173e+08
-6.32865e+10
5.55133e+07
-5.57602e+08
-6.29916e+10
1.17508e+08
-5.1226e+08
-6.25472e+10
1.84842e+08
-4.58673e+08
-6.18874e+10
2.51182e+08
-3.92086e+08
-6.09113e+10
2.91212e+08
-2.67335e+08
-5.95978e+10
3.2739e+08
-880222
-5.79859e+10
3.58172e+08
7.90844e+08
-5.56066e+10
3.52564e+08
2.5766e+09
-5.25158e+10
2.14672e+08
6.49747e+09
-5.96401e+10
5.76534e+09
2.30197e+10
1.87931e+09
8.6987e+09
-5.84296e+10
4.00687e+08
-5.85499e+10
5.58261e+08
-5.86824e+10
6.37388e+08
-5.88414e+10
7.39184e+08
-5.90231e+10
8.3362e+08
-5.92296e+10
9.25143e+08