/*--------------------------------*- C++ -*----------------------------------*\
| =========                 |                                                 |
| \\      /  F ield         | OpenFOAM: The Open Source CFD Toolbox           |
|  \\    /   O peration     | Version:  4.1                                   |
|   \\  /    A nd           | Web:      www.OpenFOAM.org                      |
|    \\/     M anipulation  |                                                 |
\*---------------------------------------------------------------------------*/
FoamFile
{
    version     2.0;
    format      ascii;
    class       volVectorField;
    location    "59";
    object      U;
}
// * * * * * * * * * * * * * * * * * * * * * * * * * * * * * * * * * * * * * //

dimensions      [0 1 -1 0 0 0 0];

internalField   nonuniform List<vector> 
4432
(
(-158537 -3969.25 -2137.06)
(-164729 -3685.75 -2121.37)
(-164367 -3150.08 -1458.54)
(-164732 -3700.76 -2371.16)
(-166001 -3647.8 -2495.92)
(-166949 -3608.98 -2408.41)
(-167513 -3644.06 -2569.32)
(-168165 -3637.03 -2646.72)
(-168787 -3638.62 -2745.55)
(-169369 -3651.54 -2867.22)
(-169871 -3672.83 -3012.23)
(-170261 -3693.94 -3192.9)
(-170501 -3712.61 -3407.8)
(-170562 -3731.76 -3646.05)
(-170426 -3752 -3902.03)
(-170039 -3771.09 -4177.85)
(-169384 -3791.13 -4483.82)
(-168449 -3811.63 -4808.62)
(-167220 -3835.23 -5154.07)
(-165687 -3859.04 -5507.67)
(-163847 -3885.55 -5866)
(-161726 -3912.4 -6215.39)
(-159361 -3940.25 -6548)
(-156792 -3966.39 -6854.83)
(-154066 -3988.61 -7128.39)
(-151225 -4005.57 -7365.15)
(-148325 -4016.34 -7563.13)
(-145413 -4021.07 -7724.39)
(-142545 -4019.87 -7852.09)
(-139762 -4013.79 -7951.58)
(-137107 -4003.97 -8028.21)
(-134616 -3992.03 -8087.76)
(-132318 -3979.85 -8137.16)
(-130249 -3969.94 -8180.79)
(-128434 -3966.39 -8220.5)
(-126904 -3974.83 -8255.83)
(-125693 -4001.79 -8287.31)
(-124806 -4058.22 -8317.01)
(-124264 -4155.6 -8333.47)
(-124066 -4300.31 -8321.55)
(-124225 -4490.17 -8246.47)
(-124752 -4722.13 -8052.37)
(-125628 -4995.13 -7667.12)
(-126874 -5304.61 -6980.77)
(-128744 -5632.32 -5845.97)
(-131882 -5941.05 -4088.78)
(-136756 -6167.74 -1468.37)
(-141935 -6248.56 2331.08)
(-143860 -6026.21 8064.49)
(-145157 -4830.75 15986.5)
(-165395 -2299.43 28042.8)
(-232066 450.824 37789.8)
(-278755 -13382.4 66702.5)
(-188267 -606.862 40636.7)
(-218004 3047.38 -922.137)
(-219596 3322.18 -1312.31)
(-219602 3739.6 -1341.48)
(-219402 3347.99 -1466.54)
(-219388 3410.48 -1610.13)
(-219498 3457.55 -1550.23)
(-219302 3448.32 -1629.04)
(-219140 3470.48 -1663.25)
(-218993 3484.87 -1719.44)
(-218829 3489.81 -1781.9)
(-218609 3487.61 -1864.08)
(-218318 3485.21 -1975.28)
(-217943 3484.7 -2113.64)
(-217470 3484.53 -2269.13)
(-216881 3485.17 -2438.07)
(-216137 3489.4 -2627.87)
(-215219 3497.48 -2837.45)
(-214120 3510.02 -3059.47)
(-212833 3526.29 -3292.5)
(-211350 3548.93 -3529.46)
(-209675 3576.74 -3764.07)
(-207832 3611.96 -3988.3)
(-205851 3654.12 -4194.73)
(-203771 3705.83 -4377.21)
(-201631 3768.19 -4531.2)
(-199469 3842.43 -4655.32)
(-197332 3928.25 -4750.34)
(-195260 4025.7 -4819.66)
(-193298 4133.76 -4868.1)
(-191480 4251.91 -4901.43)
(-189842 4379.04 -4925.72)
(-188412 4514.04 -4946.31)
(-187215 4656.21 -4968.1)
(-186278 4803.82 -4994.06)
(-185622 4954.71 -5026.2)
(-185276 5105.89 -5063.39)
(-185273 5254.36 -5103.99)
(-185658 5401.67 -5144.19)
(-186489 5548.53 -5177.36)
(-187825 5698.92 -5194.3)
(-189729 5861.4 -5178.38)
(-192253 6044.77 -5097.42)
(-195454 6259.04 -4908.14)
(-199429 6518.65 -4560.2)
(-204447 6847.44 -3977.77)
(-211056 7277.46 -3057.44)
(-219758 7855.53 -1668.95)
(-229975 8640.52 397.683)
(-239686 9767.55 3660.87)
(-251651 11600 7966.77)
(-283289 13863.1 14318.3)
(-378346 14156.6 21592.2)
(-501406 -4279.7 43902.6)
(-471521 -29542.9 61887.3)
(-272741 -1625.1 4835.6)
(-273421 -1749.39 4113.09)
(-273951 -1840.63 4558.93)
(-274242 -1713.25 3957.86)
(-274318 -1721.33 3805.83)
(-274711 -1704.07 3909.28)
(-274966 -1691.5 3926.8)
(-275153 -1669.38 3959.22)
(-275378 -1657.71 3963.42)
(-275597 -1644.91 3946.49)
(-275793 -1639.86 3902.77)
(-275959 -1637.08 3820.6)
(-276068 -1634.59 3703.08)
(-276117 -1633.01 3558.11)
(-276117 -1633.32 3392.75)
(-276055 -1638.98 3207.98)
(-275928 -1644.74 3005.5)
(-275736 -1651.82 2791.04)
(-275483 -1659.92 2567.99)
(-275168 -1669.59 2349.1)
(-274799 -1679.8 2141.16)
(-274390 -1691.21 1959.78)
(-273967 -1702.92 1815.04)
(-273549 -1713.45 1717.65)
(-273152 -1721.17 1673.88)
(-272778 -1724.79 1684.4)
(-272438 -1723.34 1746.81)
(-272129 -1716.02 1853.67)
(-271852 -1701.99 1996.8)
(-271594 -1680.4 2165.6)
(-271349 -1650.45 2351.18)
(-271096 -1610.72 2546.12)
(-270817 -1559.1 2745.57)
(-270487 -1493.35 2945.46)
(-270074 -1412.47 3141.82)
(-269551 -1315.13 3333.5)
(-268888 -1199.13 3521.26)
(-268060 -1060.37 3708.76)
(-267099 -899.19 3905.53)
(-265968 -715.642 4115.48)
(-264633 -507.908 4351.66)
(-263021 -268.393 4624.71)
(-261052 9.81368 4945.34)
(-258634 326.644 5322.41)
(-255710 685.064 5770.08)
(-252330 1092.13 6291.13)
(-248405 1541.48 6857.77)
(-242897 2038.41 7518.76)
(-234639 2663 8524.83)
(-224015 3420.6 10288.1)
(-222755 3841.9 11672.4)
(-214758 2912.73 11345.5)
(-221845 -4732.2 9567.41)
(47037 -10690.4 3861.19)
(-304024 1803.24 2356.84)
(-304513 1634.72 1452.44)
(-304666 1524.63 1322.73)
(-304775 1616.4 1237.62)
(-304880 1592.91 1042.99)
(-305171 1589.38 1079.65)
(-305343 1582.09 1080.71)
(-305466 1585.04 1087.6)
(-305639 1579.09 1065.45)
(-305813 1575.51 1037.58)
(-305983 1566.56 991.941)
(-306137 1557.48 918.361)
(-306261 1550.42 816.343)
(-306359 1545.34 694.431)
(-306439 1541.01 557.193)
(-306488 1534.03 400.802)
(-306486 1528.13 227.53)
(-306442 1522.49 42.2281)
(-306357 1517.46 -150.091)
(-306230 1512.68 -340.561)
(-306066 1509.35 -519.415)
(-305879 1507.17 -674.84)
(-305686 1507.2 -794.707)
(-305501 1511.14 -868.989)
(-305337 1520.47 -890.467)
(-305193 1536.64 -857.185)
(-305076 1560.09 -770.6)
(-304978 1591.35 -636.485)
(-304898 1630.33 -461.922)
(-304821 1677.01 -255.798)
(-304733 1730.87 -26.0623)
(-304611 1791.92 220.261)
(-304433 1860.51 477.884)
(-304171 1936.89 743.157)
(-303792 2020.23 1013.05)
(-303266 2109.75 1286.38)
(-302559 2205.34 1563.28)
(-301635 2308.03 1844.42)
(-300463 2417.26 2130.18)
(-299008 2531.12 2424.73)
(-297255 2647.96 2735.5)
(-295187 2768.97 3067.14)
(-292703 2896.96 3420.36)
(-289705 3029.47 3806.17)
(-286167 3167.8 4246.45)
(-282124 3314.57 4759.26)
(-277494 3452.12 5362.37)
(-271369 3588.95 6165.54)
(-262307 3798.69 7343.25)
(-250015 4043.12 9303.13)
(-244245 2610.7 13375.4)
(-243002 2007.49 15718.6)
(-200022 -19655.2 16066.7)
(-12266.4 -10061.8 1968.43)
(-229245 -1624.38 557.317)
(-227798 -1638.2 -698.881)
(-227987 -1902 -1064.51)
(-228106 -1631.73 -1070.61)
(-228036 -1621.36 -1384.24)
(-228226 -1623.14 -1531.87)
(-228440 -1623.65 -1592.04)
(-228689 -1607.77 -1679.15)
(-228960 -1605.6 -1788.52)
(-229235 -1598.36 -1912.63)
(-229510 -1593.91 -2069.65)
(-229774 -1586.54 -2264.73)
(-229998 -1580.1 -2498.85)
(-230160 -1575.79 -2778.11)
(-230244 -1573.3 -3099.79)
(-230220 -1576.34 -3461.32)
(-230024 -1577.24 -3857.01)
(-229647 -1576.74 -4287.05)
(-229072 -1572.46 -4738.76)
(-228280 -1564.92 -5205.16)
(-227269 -1550.93 -5667.49)
(-226054 -1532.09 -6108.6)
(-224664 -1505.41 -6504.96)
(-223140 -1469.52 -6836.51)
(-221527 -1422.37 -7088.34)
(-219870 -1363.51 -7254.4)
(-218223 -1293.46 -7335.36)
(-216634 -1213.39 -7339.99)
(-215148 -1124.64 -7279.41)
(-213800 -1028.45 -7167.58)
(-212620 -926.191 -7015.34)
(-211622 -819.913 -6827.59)
(-210830 -712.202 -6602.1)
(-210254 -604.462 -6340.58)
(-209908 -498.019 -6046.87)
(-209802 -395.387 -5712.38)
(-209939 -300.745 -5332.35)
(-210321 -218.346 -4905.87)
(-210853 -146.142 -4433.5)
(-211546 -74.746 -3906.82)
(-212395 -4.42984 -3311.23)
(-213384 51.4522 -2626.01)
(-214425 83.0376 -1840.85)
(-215420 98.3954 -958.621)
(-216366 115.14 5.68298)
(-217408 163.961 1003.96)
(-218373 300.849 1910.98)
(-217595 647.748 2637.5)
(-211383 1386.87 3381.35)
(-200863 3046.79 4739.16)
(-196918 6049.55 7825.87)
(-232542 10437.9 19137.8)
(-249350 -13780.8 25847.1)
(-148765 -3475.53 4869.96)
(-249004 3569.84 424.171)
(-248747 3582.37 -371.065)
(-248623 3348.33 -509.447)
(-248670 3604.73 -504.219)
(-248911 3625.06 -707.642)
(-249160 3631.25 -826.788)
(-249414 3639.81 -833.731)
(-249702 3663.98 -877.714)
(-250017 3676.3 -938.309)
(-250317 3693.55 -1012.05)
(-250612 3708.66 -1110.57)
(-250883 3726.47 -1241.77)
(-251105 3743.27 -1413.53)
(-251271 3757.44 -1632.59)
(-251379 3769.39 -1895.51)
(-251416 3775.28 -2190.72)
(-251345 3782 -2518.61)
(-251155 3788.63 -2879.09)
(-250839 3797.05 -3260.46)
(-250386 3806.45 -3652.45)
(-249801 3819.49 -4040.67)
(-249099 3834.52 -4407.12)
(-248303 3854.53 -4730.72)
(-247448 3881.2 -4992.65)
(-246564 3917.23 -5179.22)
(-245684 3964.31 -5285.23)
(-244844 4023.41 -5311.81)
(-244076 4095.17 -5267.44)
(-243408 4179.97 -5162.37)
(-242862 4278.2 -5008.67)
(-242457 4389.97 -4816.03)
(-242203 4514.77 -4591.82)
(-242114 4651.45 -4339.14)
(-242197 4799.94 -4059.3)
(-242464 4960.19 -3752.1)
(-242931 5131.02 -3415.81)
(-243615 5309.62 -3047.88)
(-244544 5489.4 -2644.02)
(-245746 5672.32 -2202)
(-247244 5869.97 -1724.58)
(-248993 6090.61 -1221.08)
(-250960 6331.08 -687.92)
(-253172 6588.62 -121.32)
(-255674 6875.78 482.238)
(-258598 7216.45 1116.85)
(-262272 7647 1768.75)
(-266874 8226.68 2408.6)
(-271456 9051.96 3051.73)
(-273384 10312.7 3870.49)
(-274754 12267.2 6050.51)
(-290854 14862 13344.9)
(-367426 13798 26360.7)
(-422882 -11723.1 26469.7)
(-471032 -48239 -4984.61)
(-245245 -2294.73 1928.96)
(-245964 -2218.96 2025.09)
(-246435 -2177 1724.62)
(-247168 -2092.04 1948.35)
(-248032 -2077.56 1908.14)
(-248870 -2100.06 1880.15)
(-249768 -2098.66 1847.69)
(-250725 -2100.69 1809.83)
(-251739 -2112.4 1750.27)
(-252777 -2122.72 1659.54)
(-253832 -2136.79 1530.03)
(-254877 -2150.44 1369.22)
(-255878 -2166.71 1161.64)
(-256836 -2188.4 896.227)
(-257736 -2216.62 571.649)
(-258568 -2248.49 197.023)
(-259314 -2286.72 -217.188)
(-259964 -2330.21 -664.079)
(-260506 -2378.12 -1127.11)
(-260923 -2426.61 -1594.65)
(-261200 -2476.47 -2044.24)
(-261338 -2525 -2453.45)
(-261346 -2570.36 -2789.59)
(-261240 -2608.96 -3026.76)
(-261036 -2637.57 -3147.88)
(-260749 -2654.09 -3151.14)
(-260394 -2657.48 -3046.83)
(-259981 -2647.52 -2854.61)
(-259516 -2624.13 -2597.27)
(-258994 -2587.16 -2296.49)
(-258403 -2537.17 -1969.8)
(-257722 -2477.1 -1629.34)
(-256936 -2410.96 -1281.87)
(-256029 -2337.68 -932.705)
(-254972 -2254.87 -585.407)
(-253734 -2169.09 -240.84)
(-252287 -2083.08 99.0129)
(-250604 -2000.19 430.957)
(-248655 -1926.5 761.032)
(-246406 -1867.25 1097.62)
(-243810 -1823.87 1440.6)
(-240810 -1797.88 1791.68)
(-237323 -1792.02 2157.15)
(-233278 -1806.23 2544.17)
(-228701 -1832.66 2949.05)
(-223761 -1853.79 3348.38)
(-218493 -1847.93 3734.13)
(-211820 -1755.24 4152.03)
(-201716 -1503.15 4567.13)
(-187328 -642.411 4291)
(-180114 1546.82 4741.44)
(-192660 2623.45 7229.97)
(-190229 -16007.6 32672.9)
(24375.7 -9019.93 5717.95)
(-262053 2784.99 2772.7)
(-261611 2876.87 2893.31)
(-261439 2928.04 2948.31)
(-261461 3025.09 3021.39)
(-261669 3057.66 3038.51)
(-261760 3055.34 3065.04)
(-261857 3075.9 3089.73)
(-262028 3095.51 3096.06)
(-262239 3107.5 3102.62)
(-262462 3122.07 3084.6)
(-262698 3134.91 3034.42)
(-262923 3150.16 2952.79)
(-263115 3165.36 2832.22)
(-263269 3178.26 2660.71)
(-263378 3187.37 2436.73)
(-263416 3196.26 2171.23)
(-263374 3202.13 1869.62)
(-263288 3206.24 1545.41)
(-263168 3209.07 1213.39)
(-263011 3213.56 885.905)
(-262822 3217.68 580.138)
(-262610 3222.39 320.312)
(-262395 3227.4 134.442)
(-262196 3233.61 47.6359)
(-262032 3241.48 75.1766)
(-261914 3250.73 219.48)
(-261848 3260.61 471.414)
(-261834 3270.4 814.021)
(-261868 3279.86 1227.85)
(-261938 3289.27 1694.01)
(-262028 3298.58 2196.67)
(-262118 3305.34 2723.77)
(-262191 3306.05 3268.71)
(-262229 3302.05 3826.88)
(-262218 3296.14 4396.2)
(-262140 3283.02 4975.1)
(-261981 3260.35 5559.28)
(-261729 3224.62 6144.71)
(-261375 3171.04 6730.64)
(-260936 3099.11 7325.71)
(-260470 3004.61 7933.94)
(-259972 2885.23 8561.09)
(-259411 2738.54 9215.51)
(-258767 2565.43 9893.79)
(-258130 2375.2 10582.5)
(-257747 2188.9 11255.6)
(-257690 2033.56 11864)
(-256931 1967.15 12244.5)
(-253178 1999.4 12113.8)
(-245981 2587.36 11571.5)
(-247538 3274.69 12851.5)
(-259025 2934.68 9571.56)
(-249001 -30758.8 28224.3)
(-152032 -21361.9 6976.43)
(-227079 -1413.95 -60.9959)
(-227607 -1412.11 157.219)
(-228057 -1326.15 196.134)
(-228673 -1251.93 250.241)
(-229451 -1227.66 341.744)
(-230260 -1223.81 428.726)
(-231149 -1222.61 503.059)
(-232106 -1228.84 546.267)
(-233133 -1233.42 560.862)
(-234193 -1237.39 519.48)
(-235267 -1249.28 411.67)
(-236345 -1270.67 254.004)
(-237406 -1297.48 34.1085)
(-238436 -1330.92 -259.482)
(-239432 -1371.86 -627.335)
(-240357 -1421.26 -1065.65)
(-241196 -1479.52 -1574.68)
(-241943 -1544.32 -2140.68)
(-242593 -1617.4 -2751.35)
(-243135 -1700.66 -3385.47)
(-243563 -1798.82 -4023.38)
(-243877 -1913.34 -4627.04)
(-244093 -2047.84 -5151.46)
(-244238 -2202.17 -5551.17)
(-244339 -2375.29 -5798.07)
(-244418 -2563.88 -5886.72)
(-244487 -2763.94 -5830.66)
(-244547 -2970.31 -5654.42)
(-244588 -3177.68 -5386.32)
(-244590 -3381.61 -5051.88)
(-244524 -3579.86 -4672.77)
(-244356 -3772.31 -4268.08)
(-244060 -3959.46 -3853.8)
(-243612 -4139.91 -3437.66)
(-242983 -4311.21 -3023.14)
(-242146 -4474.95 -2621.61)
(-241077 -4634.37 -2239.95)
(-239753 -4792.45 -1883.71)
(-238148 -4950.98 -1559.59)
(-236234 -5110.35 -1277.5)
(-233977 -5272.58 -1051.35)
(-231332 -5442.34 -894.312)
(-228240 -5620.51 -822.627)
(-224653 -5804.28 -859.007)
(-220624 -5986.34 -1027.34)
(-216387 -6155.08 -1349.36)
(-212080 -6328.22 -1835.18)
(-206780 -6613.93 -2512.2)
(-197876 -7086.39 -3667.24)
(-183504 -6957.18 -4517.59)
(-180874 -8754.5 -4195.96)
(-189539 -9624.96 687.977)
(-221659 -21314.8 20899.7)
(32499.6 -8583.3 -20516.1)
(-230520 2709.37 493.295)
(-229483 2684.77 678.598)
(-229012 2765.73 723.533)
(-228651 2835.8 749.037)
(-228459 2861.33 862.369)
(-228205 2870.53 1022.05)
(-227977 2881.26 1143.89)
(-227772 2889.33 1224.29)
(-227596 2903.68 1282.09)
(-227437 2923.78 1287.14)
(-227281 2941.41 1236)
(-227113 2954.78 1129.78)
(-226919 2967.59 959.949)
(-226691 2978.48 715.304)
(-226414 2986.33 392.044)
(-226062 2990.72 -6.50433)
(-225622 2992.79 -471.673)
(-225067 2996.6 -991.04)
(-224343 3000.5 -1556.23)
(-223420 3004.15 -2150.83)
(-222289 3005.11 -2750.49)
(-220956 3004.42 -3317.95)
(-219453 3000.54 -3805.19)
(-217837 2994.56 -4165.85)
(-216179 2986.36 -4371.23)
(-214553 2976.19 -4416.54)
(-213024 2963.37 -4316.91)
(-211639 2947.93 -4099.18)
(-210426 2930.24 -3793.98)
(-209393 2910.61 -3428.79)
(-208532 2888.21 -3025.85)
(-207827 2860.02 -2600.95)
(-207253 2823.64 -2162.27)
(-206789 2779.36 -1714.97)
(-206410 2728.55 -1263.62)
(-206083 2669.15 -807.006)
(-205786 2597.35 -342.764)
(-205514 2508.09 128.064)
(-205256 2396.55 609.555)
(-205004 2264.95 1120.52)
(-204690 2111.08 1647.49)
(-204280 1931.02 2186.21)
(-203724 1725.61 2736.53)
(-202973 1497.17 3285.1)
(-202060 1252.83 3796.47)
(-201210 1015.67 4226.87)
(-200409 792.385 4494.43)
(-198228 479.814 4377.03)
(-191355 -67.2194 3219.37)
(-180873 -233.552 1195.71)
(-176083 -2511.17 -841.305)
(-200809 -7009.96 1875.03)
(-189808 -26503.9 -15124.1)
(-40664.9 -10047.2 -14146.7)
(-237597 -1509.29 941.384)
(-237111 -1523.76 1295.48)
(-236954 -1507.85 1506)
(-236859 -1484.58 1658.92)
(-236876 -1479.97 1834.75)
(-236923 -1464.93 1978.58)
(-237025 -1450.24 2104.26)
(-237182 -1448.33 2202.33)
(-237407 -1449.87 2268.12)
(-237681 -1445.63 2276.02)
(-237961 -1432.18 2211.92)
(-238223 -1418.53 2066.79)
(-238462 -1402.75 1833.24)
(-238660 -1383.66 1505.89)
(-238800 -1358.13 1095.34)
(-238860 -1326.18 613.082)
(-238827 -1283.64 71.6902)
(-238697 -1231.57 -506.817)
(-238470 -1168.72 -1099.22)
(-238147 -1095.56 -1678.72)
(-237729 -1012.11 -2217.7)
(-237229 -922.9 -2669.11)
(-236688 -833.123 -2972.42)
(-236176 -751.732 -3071.45)
(-235771 -688.29 -2948.69)
(-235537 -652.171 -2626.18)
(-235506 -649.544 -2152.61)
(-235679 -682.98 -1583.15)
(-236029 -750.962 -966.414)
(-236515 -849.453 -336.324)
(-237090 -973.683 287.488)
(-237713 -1117.89 896.048)
(-238354 -1274.65 1487.88)
(-238990 -1438 2069.62)
(-239611 -1604.4 2654.24)
(-240218 -1771.76 3253.38)
(-240821 -1936.29 3881.51)
(-241438 -2093.61 4554.4)
(-242097 -2241.91 5281.49)
(-242828 -2382.15 6074.43)
(-243669 -2520.06 6934.41)
(-244640 -2657.39 7854.78)
(-245761 -2789.97 8829.87)
(-247088 -2915.87 9839.33)
(-248788 -3034.32 10840.7)
(-251228 -3153.02 11767.3)
(-254681 -3316.92 12485.6)
(-258331 -3564.47 12590)
(-258652 -3781.44 11310.5)
(-256252 -4484.68 8120.43)
(-250884 -5707.21 2067.86)
(-271309 -8415.91 -253.501)
(-207952 -14911.8 -57454.9)
(-94574.5 -9599.94 -34518.7)
(-246736 4711.09 2759.59)
(-246441 4734.02 3249.82)
(-246382 4760.26 3398.99)
(-246458 4803.19 3524.82)
(-246643 4825.11 3717)
(-246853 4856.95 3911.12)
(-247149 4888.11 4083.05)
(-247511 4906.53 4217.33)
(-247933 4920.2 4303.51)
(-248401 4936.79 4326.91)
(-248885 4958.32 4276.69)
(-249356 4974.75 4139.03)
(-249795 4986.3 3901.35)
(-250178 4992.45 3556.18)
(-250464 4993.43 3106.29)
(-250624 4986.91 2557.58)
(-250630 4975.1 1918.49)
(-250446 4955.4 1208.9)
(-250085 4928.54 454.135)
(-249539 4894.58 -317.37)
(-248798 4853.8 -1072.91)
(-247868 4802.62 -1765.5)
(-246776 4741.18 -2327.1)
(-245585 4669.15 -2694.4)
(-244384 4587.47 -2838.46)
(-243258 4497.39 -2771.46)
(-242278 4401.06 -2532.61)
(-241485 4301.11 -2172.42)
(-240898 4200.21 -1739.94)
(-240513 4100.74 -1274.23)
(-240315 4003.97 -804.63)
(-240278 3909.76 -347.619)
(-240384 3817.8 94.6501)
(-240630 3725.81 513.302)
(-240998 3632.92 905.066)
(-241480 3539.87 1274.99)
(-242064 3449.01 1633.81)
(-242734 3360.14 1988.34)
(-243482 3273.77 2346.31)
(-244300 3190 2723.17)
(-245203 3105.43 3122.22)
(-246193 3019.73 3553.79)
(-247272 2937.7 4024.27)
(-248470 2860.97 4521.28)
(-249977 2791.63 5023.95)
(-252188 2731.97 5520.02)
(-255420 2649.77 5939.44)
(-259119 2496.31 5993.95)
(-260992 2304.85 4999.84)
(-261839 1559.57 2035.55)
(-270750 -678.066 -4065.29)
(-315985 -6240.99 -10126.2)
(-337625 -17783.1 -46681.3)
(-253236 -14142.3 -12113.6)
(-237256 -3633.29 -3459.72)
(-236904 -3678.12 -3017.23)
(-236732 -3730.69 -2804.83)
(-236620 -3784.5 -2619.6)
(-236569 -3828.41 -2450.8)
(-236552 -3853.22 -2305.45)
(-236557 -3880.1 -2184.32)
(-236599 -3918.01 -2098.61)
(-236694 -3963.5 -2070.46)
(-236818 -4005.03 -2111.45)
(-236929 -4045.03 -2223.43)
(-237009 -4087.64 -2434.71)
(-237032 -4132.33 -2760.02)
(-236962 -4178.58 -3207.14)
(-236757 -4225 -3774.39)
(-236375 -4269.33 -4457.63)
(-235775 -4308.31 -5240.7)
(-234925 -4339.41 -6102.23)
(-233797 -4357 -7011.21)
(-232366 -4356.68 -7941.31)
(-230592 -4334.8 -8858.36)
(-228438 -4287.45 -9701.29)
(-225921 -4208.9 -10359.5)
(-223143 -4097.07 -10716.9)
(-220273 -3953.28 -10718.9)
(-217482 -3784.82 -10394.9)
(-214903 -3599.96 -9819.49)
(-212620 -3408.15 -9082.26)
(-210664 -3217.4 -8264.9)
(-209031 -3034.38 -7427.85)
(-207694 -2866 -6609.81)
(-206617 -2714.77 -5832.37)
(-205760 -2578.8 -5102.3)
(-205085 -2456.51 -4417.37)
(-204551 -2346.66 -3768.96)
(-204124 -2246.66 -3138.35)
(-203777 -2154.72 -2509.68)
(-203479 -2065.25 -1856.8)
(-203214 -1971.15 -1140.75)
(-202977 -1868.23 -324.129)
(-202749 -1748.1 635.781)
(-202527 -1600.67 1792.14)
(-202292 -1417.88 3199.2)
(-202034 -1189.37 4904.65)
(-201874 -901.38 6961.4)
(-202177 -528.03 9450.4)
(-203261 -30.8431 12427.6)
(-204531 614.043 15812.3)
(-203864 1500.11 19246)
(-202310 2639.64 21011.3)
(-214455 4495.51 21182.5)
(-272369 7465.51 18742.9)
(-301679 -213.004 -17083)
(-172691 12051.9 -6680.21)
(-245572 5020.3 3664.88)
(-245606 5160.48 4307.53)
(-245581 5184.59 4547.94)
(-245619 5228.62 4767.2)
(-245682 5270.75 5001)
(-245779 5325.53 5219.2)
(-245913 5372.43 5405.01)
(-246078 5402.59 5559.06)
(-246275 5418.97 5659.63)
(-246490 5432.89 5693.85)
(-246708 5442.66 5650.85)
(-246913 5444.18 5511.66)
(-247088 5438.27 5261.7)
(-247213 5426.06 4892.64)
(-247263 5409.41 4404.06)
(-247212 5390.85 3801.33)
(-247040 5373.74 3096.52)
(-246732 5361.05 2311.79)
(-246278 5359.72 1472.79)
(-245653 5371.86 603.89)
(-244824 5400.37 -259.369)
(-243761 5453.18 -1053.95)
(-242469 5530.96 -1676.12)
(-241027 5630.02 -2014.44)
(-239552 5743.78 -2018.07)
(-238156 5862.86 -1713.19)
(-236914 5979.95 -1168.77)
(-235860 6089.51 -466.544)
(-234995 6188.22 318.365)
(-234302 6273.98 1129.31)
(-233757 6344.58 1933.47)
(-233376 6408.45 2732.54)
(-233134 6471.66 3538.34)
(-232998 6539.39 4350.82)
(-232954 6610.56 5167.81)
(-232994 6685.58 5999.73)
(-233119 6764.59 6863.11)
(-233337 6850.35 7775.36)
(-233662 6945.77 8754.03)
(-234110 7051.68 9822.47)
(-234704 7171.74 11003.3)
(-235461 7312.45 12321.7)
(-236402 7480.72 13804.1)
(-237586 7686.15 15479.1)
(-239214 7943.31 17377.6)
(-241756 8275.1 19539.5)
(-245716 8708.31 21984.8)
(-250813 9267.72 24582.3)
(-255572 10033.5 26771.4)
(-260688 11076.2 27298.1)
(-285575 12744.3 27252.7)
(-365895 13578.9 23964.8)
(-458510 -3030.88 -18156.7)
(-403328 6936.13 -107237)
(-242902 -3217.44 -1591.84)
(-242884 -3254.97 -1120.99)
(-242959 -3298.67 -894.083)
(-243127 -3362.81 -637.425)
(-243328 -3405.78 -418.013)
(-243577 -3432.52 -192.659)
(-243882 -3467.61 16.2992)
(-244269 -3510.37 178.839)
(-244749 -3552.5 269.31)
(-245286 -3587.41 278.393)
(-245847 -3621.83 183.448)
(-246425 -3657.24 -43.9066)
(-246991 -3693.43 -424.835)
(-247509 -3730.74 -975.156)
(-247939 -3769.43 -1703.06)
(-248234 -3808.83 -2603.69)
(-248347 -3848.3 -3659.04)
(-248242 -3888.41 -4842.03)
(-247888 -3930.72 -6119.05)
(-247253 -3974.65 -7463.85)
(-246270 -4020.55 -8852.96)
(-244836 -4067.67 -10222.6)
(-242895 -4115.04 -11412.5)
(-240537 -4159.03 -12217.6)
(-237967 -4195.61 -12537.1)
(-235392 -4220.14 -12433.2)
(-232948 -4229.06 -12029.6)
(-230706 -4219.27 -11455.7)
(-228681 -4187.98 -10821.5)
(-226856 -4133.03 -10201.8)
(-225201 -4052.06 -9639.66)
(-223682 -3944.87 -9154.93)
(-222266 -3814.7 -8751.18)
(-220922 -3666.55 -8423.66)
(-219613 -3508.29 -8164.45)
(-218304 -3345.37 -7958.19)
(-216964 -3183.12 -7788.8)
(-215562 -3026.41 -7639.64)
(-214067 -2880.98 -7493.04)
(-212437 -2755.28 -7330.89)
(-210623 -2660.21 -7131.5)
(-208556 -2610.85 -6876.56)
(-206143 -2624.78 -6553.4)
(-203313 -2721.56 -6125.96)
(-200112 -2932.02 -5530.94)
(-196796 -3292.96 -4681.98)
(-193649 -3834.1 -3392.22)
(-190278 -4628.48 -1420.5)
(-184762 -5820.36 1395.94)
(-176848 -7678.83 5132.78)
(-186667 -9277.83 12756.2)
(-247750 -8394.06 23548.9)
(-283045 6052.97 25084.1)
(-344628 -56436.2 -40282.5)
(-226823 689.069 3362.08)
(-227290 742.724 3902.68)
(-227623 735.214 4180.31)
(-228035 707.22 4473.92)
(-228433 693.272 4742.21)
(-228902 689.768 5003.65)
(-229445 671.441 5233.67)
(-230056 638.266 5421.67)
(-230744 599.119 5549.65)
(-231488 562.908 5594.69)
(-232267 525.126 5532.23)
(-233063 486.298 5336.6)
(-233850 449.724 4986.12)
(-234594 418.652 4464.23)
(-235254 396.873 3762.42)
(-235785 388.894 2884.74)
(-236146 398.576 1853.56)
(-236300 427.127 703.282)
(-236223 472.975 -537.073)
(-235838 539.048 -1829.87)
(-235068 624.535 -3149.31)
(-233797 724.714 -4434.29)
(-231972 838.305 -5522.79)
(-229701 962.923 -6204.53)
(-227225 1092.02 -6381.96)
(-224793 1218.01 -6122.62)
(-222580 1333.63 -5563.05)
(-220677 1433.82 -4841.27)
(-219110 1516.22 -4073.46)
(-217857 1580.64 -3335.12)
(-216868 1628.84 -2660.14)
(-216057 1653.5 -2091.27)
(-215380 1655.33 -1653.68)
(-214712 1632.65 -1332.77)
(-214032 1579.94 -1107.92)
(-213337 1493.23 -959.584)
(-212627 1367.26 -876.894)
(-211909 1196.85 -845.883)
(-211198 974.805 -852.385)
(-210509 689.56 -883.673)
(-209857 325.974 -927.743)
(-209249 -136.73 -977.025)
(-208681 -721.945 -1027.88)
(-208172 -1459.28 -1085.89)
(-207861 -2394.88 -1166)
(-208128 -3584.03 -1259.55)
(-209419 -5072.47 -1312.02)
(-211412 -6945.83 -1384.52)
(-212005 -9340.48 -1186.67)
(-212051 -12137.7 -2.92283)
(-231416 -15505 3173.36)
(-303425 -18860.7 3244.51)
(-372970 -8654.82 36877.4)
(-418054 -29407.4 21747)
(-240215 -2915.52 -58.418)
(-240250 -2929.68 393.752)
(-240428 -2935.67 636.768)
(-240691 -2961.02 962.241)
(-241008 -2959.54 1264.72)
(-241370 -2953.81 1567.18)
(-241823 -2962.62 1842.06)
(-242391 -2973.5 2057.63)
(-243069 -2973.89 2204.64)
(-243837 -2965.26 2269.62)
(-244679 -2951.78 2208.92)
(-245579 -2934.69 1990.91)
(-246509 -2914.59 1589.87)
(-247431 -2893.21 985.904)
(-248297 -2874.03 170.403)
(-249059 -2860.91 -849.203)
(-249669 -2854.32 -2052.85)
(-250103 -2855.84 -3404.35)
(-250371 -2871.08 -4864.38)
(-250478 -2901.4 -6407.61)
(-250368 -2943.74 -8025.6)
(-249888 -2996.65 -9669.13)
(-248933 -3058.62 -11121.4)
(-247656 -3121.42 -12009.6)
(-246425 -3173.95 -12132.2)
(-245533 -3205.13 -11615.5)
(-245086 -3217.55 -10700.2)
(-245078 -3218.02 -9601.13)
(-245434 -3213.53 -8493.89)
(-246048 -3208.72 -7480.58)
(-246823 -3204.47 -6611.19)
(-247682 -3199.1 -5898.77)
(-248570 -3191.85 -5335.35)
(-249447 -3177.25 -4904.18)
(-250292 -3144.18 -4586.73)
(-251117 -3088.3 -4351.74)
(-251900 -3009.55 -4191.91)
(-252619 -2905.8 -4102.9)
(-253252 -2776.48 -4080.3)
(-253776 -2623.69 -4128.66)
(-254141 -2450.19 -4258.35)
(-254282 -2258.77 -4476.48)
(-254131 -2059.83 -4806.65)
(-253605 -1872.17 -5290.68)
(-252685 -1718.61 -5985.07)
(-251469 -1622.63 -6959.85)
(-249940 -1639.52 -8258.5)
(-247005 -1881.95 -9873.53)
(-240125 -2294.59 -11590.4)
(-228879 -2640.68 -11786.9)
(-225275 -3158.08 -7385.45)
(-236896 -6292.94 2262.66)
(-267544 6723.79 59670)
(-214170 6716.5 10512.4)
(-233428 -122.126 2282.62)
(-233937 -166.139 2709.45)
(-234432 -182.633 2942.45)
(-235043 -223.352 3270.53)
(-235708 -234.139 3557.35)
(-236477 -238.568 3811.33)
(-237360 -255.916 4036.82)
(-238344 -274.828 4207.54)
(-239432 -282.777 4307.27)
(-240611 -280.807 4311.11)
(-241853 -273.048 4183.65)
(-243129 -261.174 3894.54)
(-244400 -246.22 3418.61)
(-245619 -230.251 2737.59)
(-246733 -216.049 1845.15)
(-247686 -206.173 756.076)
(-248446 -199.871 -494.106)
(-248979 -196.233 -1863.9)
(-249310 -200.803 -3328.15)
(-249505 -213.599 -4862.67)
(-249511 -230.69 -6456.67)
(-249172 -250.877 -8060.98)
(-248361 -274.34 -9458.19)
(-247194 -296.798 -10277.2)
(-245985 -312.266 -10307.1)
(-244986 -312.058 -9673.29)
(-244296 -297.004 -8623.98)
(-243931 -270.347 -7384.66)
(-243852 -235.312 -6137.39)
(-243994 -193.269 -4986.01)
(-244290 -142.757 -3978.3)
(-244687 -79.8112 -3115.05)
(-245134 -4.75982 -2404.68)
(-245675 86.675 -1825.93)
(-246267 202.609 -1346.93)
(-246870 342.244 -938.964)
(-247452 505.549 -589.303)
(-247979 696.74 -280.293)
(-248422 916.199 -2.89865)
(-248745 1161.54 247.345)
(-248906 1428.84 469.747)
(-248843 1711.94 657.613)
(-248479 1997.4 799.184)
(-247743 2263.82 877.837)
(-246648 2484.51 855.94)
(-245330 2633.48 697.152)
(-243797 2649.54 407.367)
(-241096 2390.37 -54.8434)
(-235426 1912.21 -503.983)
(-224925 1034.44 -782.863)
(-220240 -1093.96 -777.663)
(-221233 -6359.28 -1728.46)
(-223061 3090.74 44534.1)
(-81784.9 3168.28 28840.4)
(-232793 -1915.65 398.156)
(-232647 -1833.24 983.138)
(-232706 -1785.66 1324.46)
(-232829 -1736.78 1759.04)
(-233050 -1674.13 2206.01)
(-233332 -1623.06 2655.61)
(-233731 -1573.72 3083.78)
(-234258 -1519.26 3473.77)
(-234904 -1458.89 3805.99)
(-235668 -1398.6 4042.69)
(-236539 -1338.11 4137.4)
(-237489 -1279.82 4048.28)
(-238484 -1225.69 3735.58)
(-239472 -1177.11 3164.04)
(-240387 -1134.77 2319.24)
(-241151 -1099.65 1214.19)
(-241693 -1074.01 -126.761)
(-241960 -1061.94 -1661.71)
(-241914 -1069 -3341.22)
(-241564 -1098.5 -5139.54)
(-240832 -1156.2 -7083.15)
(-239417 -1253.02 -9219.01)
(-236954 -1405.3 -11360.2)
(-233581 -1625.35 -12878.2)
(-230059 -1890.4 -13271.6)
(-227066 -2156.56 -12746.2)
(-224786 -2387.12 -11777.5)
(-223186 -2568.87 -10655.2)
(-222157 -2699.57 -9585.08)
(-221555 -2784.97 -8647.34)
(-221270 -2832.29 -7863.02)
(-221215 -2848.08 -7215.8)
(-221327 -2835.98 -6671.44)
(-221567 -2800.94 -6219.83)
(-221861 -2769.69 -5879.38)
(-222154 -2739.98 -5610.34)
(-222435 -2704.26 -5390.74)
(-222694 -2656.21 -5193.96)
(-222937 -2585.65 -4987.45)
(-223157 -2482.79 -4751.82)
(-223351 -2338.06 -4472.11)
(-223507 -2139.85 -4126.11)
(-223593 -1872.82 -3687.37)
(-223597 -1518.27 -3129.15)
(-223646 -1048.56 -2422.8)
(-224094 -437.932 -1529.28)
(-225267 333.357 -382.724)
(-226510 1281.42 1241.18)
(-225347 2412.35 3197.15)
(-221092 3690.08 5457.66)
(-223364 4519.88 7328.97)
(-226657 3419.36 13438.7)
(-227287 16393.4 78579.3)
(-120815 17507.9 44984.1)
(-227864 1453.66 383.046)
(-227443 1423.59 1088.8)
(-227283 1412.74 1459.48)
(-227150 1392.82 1962.9)
(-227090 1389.11 2438.18)
(-227076 1374.23 2909.65)
(-227127 1357.77 3381.35)
(-227259 1346.75 3816.7)
(-227478 1342.41 4185.76)
(-227784 1338.99 4452.55)
(-228166 1337.16 4573.71)
(-228607 1335.78 4507.09)
(-229086 1333.71 4212.56)
(-229569 1330.52 3656.45)
(-230011 1325.85 2819.13)
(-230363 1318.52 1715.38)
(-230568 1309.08 380.149)
(-230611 1294.74 -1149.12)
(-230501 1277.28 -2824.78)
(-230275 1258.32 -4625.49)
(-229897 1237.64 -6572.66)
(-229115 1212.15 -8695.36)
(-227636 1177.93 -10780.4)
(-225668 1132.56 -12183.3)
(-223963 1091.84 -12394.1)
(-223054 1071.47 -11610.7)
(-222942 1081.56 -10325.4)
(-223433 1122.64 -8865.03)
(-224258 1187.32 -7457.69)
(-225178 1265.54 -6193.33)
(-226033 1349.23 -5100.29)
(-226721 1432.4 -4168.39)
(-227186 1512.49 -3361.97)
(-227409 1588.25 -2661.71)
(-227383 1659.49 -2048.69)
(-227161 1729.13 -1505.04)
(-226722 1804 -1030.13)
(-226036 1887.37 -605.874)
(-225055 1983.31 -221.175)
(-223720 2096.74 132.233)
(-221956 2231.39 465.606)
(-219666 2391.65 793.159)
(-216722 2585.16 1144.13)
(-213000 2823.6 1556.11)
(-208469 3123.81 2063.77)
(-203261 3496.41 2737.81)
(-197506 3954.7 3734.73)
(-190544 4522.93 5365.92)
(-180784 5232.26 8293.93)
(-169105 5734.89 12381.5)
(-168040 5593.93 15962)
(-180725 2759.41 9612.5)
(-193813 9061.58 30137.7)
(14280.8 7236.58 23443.6)
(-234710 -727.824 1433.16)
(-234830 -631.13 2233.74)
(-235024 -594.133 2636.61)
(-235329 -544.268 3116.64)
(-235748 -503.362 3596.61)
(-236277 -463.414 4075.31)
(-236952 -417.117 4532.03)
(-237796 -372.728 4953.18)