/*--------------------------------*- C++ -*----------------------------------*\
| =========                 |                                                 |
| \\      /  F ield         | OpenFOAM: The Open Source CFD Toolbox           |
|  \\    /   O peration     | Version:  4.1                                   |
|   \\  /    A nd           | Web:      www.OpenFOAM.org                      |
|    \\/     M anipulation  |                                                 |
\*---------------------------------------------------------------------------*/
FoamFile
{
    version     2.0;
    format      ascii;
    class       volScalarField;
    location    "43";
    object      omega;
}
// * * * * * * * * * * * * * * * * * * * * * * * * * * * * * * * * * * * * * //

dimensions      [0 0 -1 0 0 0 0];

internalField   nonuniform List<scalar> 
4432
(
0.0110859
0.0114543
0.0117998
0.0121539
0.0124958
0.0128342
0.0131715
0.0134937
0.0138234
0.0141316
0.0144514
0.0147488
0.0150556
0.0153434
0.015635
0.0159099
0.0161828
0.0164362
0.0166871
0.0169029
0.0171351
0.0173242
0.0175638
0.0177463
0.0179902
0.0181717
0.0184038
0.0185967
0.0187959
0.0189766
0.0191701
0.0193238
0.0195252
0.0196595
0.0198377
0.0200185
0.0202485
0.0206913
0.0214238
0.0219091
0.0223975
0.022913
0.023569
0.0241276
0.024823
0.0251827
0.0258528
0.0263116
0.0270282
0.0275325
0.0280361
0.0299465
0.0291423
0.032193
0.0110856
0.011455
0.0117982
0.0121641
0.0124914
0.0128521
0.0131657
0.0135154
0.0138191
0.0141521
0.0144522
0.0147645
0.0150635
0.0153552
0.0156488
0.0159221
0.0162031
0.0164541
0.0167232
0.016933
0.0171876
0.0173626
0.0176258
0.0177829
0.0180607
0.0182088
0.0184938
0.0186479
0.018905
0.0190568
0.0192965
0.0194455
0.0196761
0.019811
0.0200478
0.0202558
0.0205619
0.0208063
0.0211059
0.0214416
0.0220147
0.0226102
0.0234058
0.0238842
0.0245008
0.0248026
0.0256351
0.025951
0.0268358
0.027013
0.0284116
0.0278522
0.0282249
0.0302711
21.7959
3.38014
1.2299
0.664419
0.437074
0.320865
0.25193
0.206815
0.175147
0.151798
0.133869
0.119726
0.108253
0.098803
0.090853
0.0841019
0.0782851
0.0732163
0.0687798
0.0648162
0.0613423
0.058169
0.055415
0.0528277
0.0505926
0.0484283
0.0465448
0.0446839
0.0430411
0.0413759
0.0399544
0.0385577
0.0373903
0.0362412
0.0352367
0.0343127
0.0334285
0.0326999
0.0319416
0.0313193
0.0306335
0.0300689
0.0294732
0.0289864
0.0285077
0.0280359
0.0275132
0.0271143
0.0265083
0.0263089
0.0259052
0.0257448
0.0254355
0.0259523
21.7959
3.38026
1.22998
0.664467
0.43711
0.320893
0.251965
0.206842
0.175188
0.151826
0.133914
0.119754
0.108301
0.0988354
0.0909022
0.0841434
0.0783358
0.0732735
0.0688375
0.0649011
0.0614085
0.0582763
0.0554741
0.0529262
0.0506285
0.0484986
0.046562
0.0447381
0.0430798
0.041482
0.0400692
0.0387249
0.0375602
0.0364282
0.0354464
0.034494
0.0336633
0.0328629
0.0321579
0.0314455
0.030833
0.0302017
0.0296599
0.0291803
0.028643
0.0282842
0.0277378
0.0274386
0.027006
0.0266218
0.026175
0.0261629
0.0259543
0.0267127
21.796
3.3805
1.22999
0.664505
0.437201
0.32101
0.252094
0.206982
0.175332
0.151975
0.13407
0.119908
0.108467
0.0989902
0.091081
0.0843048
0.0785235
0.0734367
0.0690182
0.0650556
0.0615727
0.0584441
0.0556597
0.0531515
0.0508682
0.0487907
0.0468548
0.0450802
0.0434068
0.04187
0.0404302
0.0391221
0.0379084
0.0368116
0.0357875
0.0348616
0.033977
0.0332071
0.0324384
0.0317675
0.0310813
0.0305026
0.0299091
0.0294103
0.0288493
0.0283922
0.0279191
0.0273954
0.0269478
0.026529
0.0258643
0.0254511
0.0251349
0.0245385
21.7959
3.3806
1.23002
0.66453
0.437225
0.321036
0.252122
0.207014
0.175363
0.152014
0.1341
0.119954
0.108494
0.0990425
0.0911093
0.0843595
0.0785596
0.0734908
0.069067
0.0651148
0.0616479
0.0585142
0.055744
0.0532167
0.0509336
0.0488349
0.0469093
0.045115
0.0434876
0.0419293
0.0405727
0.0392215
0.0381035
0.0369515
0.036009
0.0350412
0.0342119
0.0334061
0.0326385
0.0319666
0.0312499
0.030697
0.0300464
0.0295482
0.0289606
0.0284638
0.0279018
0.0273913
0.0268348
0.0265099
0.0254407
0.0253343
0.0250283
0.0249907
21.7962
3.38049
1.22994
0.664458
0.437162
0.320969
0.252069
0.206941
0.175312
0.151931
0.134052
0.119862
0.108449
0.0989502
0.0910649
0.0842746
0.0785032
0.0734046
0.0689673
0.0650228
0.0615188
0.0584326
0.0556272
0.0531601
0.0508524
0.0488025
0.0468604
0.0451168
0.0434543
0.0419706
0.0405106
0.0392612
0.0379924
0.0369538
0.0358796
0.0349763
0.0340673
0.0332364
0.0324604
0.0317291
0.0310746
0.0304329
0.029817
0.0292222
0.0286203
0.0280087
0.0274378
0.0267412
0.0261371
0.0254824
0.0245588
0.0238815
0.0238587
0.0238841
21.7962
3.38059
1.22999
0.66449
0.437186
0.320997
0.252089
0.206976
0.175331
0.151976
0.134068
0.119917
0.108463
0.0990102
0.0910791
0.0843347
0.0785212
0.0734599
0.0690145
0.0650831
0.0616073
0.0584918
0.0557277
0.0532044
0.0509314
0.0488439
0.0469126
0.0451635
0.0434969
0.0420199
0.0405737
0.0393335
0.0380949
0.0370544
0.0360051
0.0351113
0.0342071
0.0334142
0.0326121
0.0319367
0.0311968
0.030606
0.029888
0.0293467
0.0286238
0.0281072
0.0274028
0.0268515
0.0261661
0.0256005
0.0249412
0.0243518
0.0246706
0.0244949
21.7963
3.3805
1.22993
0.664433
0.437133
0.320945
0.252034
0.20692
0.175273
0.151915
0.134008
0.119853
0.1084
0.098945
0.0910117
0.0842673
0.0784433
0.0733844
0.0689262
0.0649936
0.0615026
0.058381
0.0556178
0.0530914
0.0508456
0.0487533
0.0468631
0.0450953
0.0434817
0.041963
0.0405786
0.039265
0.0380881
0.0369604
0.03596
0.0349595
0.0340757
0.0331539
0.0323537
0.0315496
0.0308291
0.0301416
0.0294774
0.0288578
0.0281251
0.027551
0.0267972
0.0262657
0.0255555
0.0250828
0.0243099
0.0239578
0.0239338
0.0242106
21.7963
3.38061
1.22996
0.664453
0.437154
0.320965
0.252061
0.206941
0.175308
0.151936
0.134052
0.11987
0.108455
0.0989539
0.0910781
0.084265
0.0785199
0.0733849
0.0690196
0.0650191
0.0616075
0.0584284
0.0557094
0.0531393
0.0509157
0.0487883
0.0469191
0.045121
0.0435217
0.0419816
0.0406118
0.0392883
0.0381091
0.03697
0.0359499
0.0349465
0.0340493
0.03315
0.0323537
0.0315373
0.0308097
0.030074
0.0293696
0.0286879
0.0279529
0.0273391
0.0265849
0.0260785
0.0253381
0.0249867
0.0241886
0.0240737
0.0239382
0.0243836
21.7964
3.38055
1.22988
0.664385
0.437094
0.320919
0.252
0.206902
0.175231
0.151906
0.133957
0.119852
0.108339
0.0989442
0.0909413
0.0842587
0.0783764
0.0733758
0.0688794
0.0649835
0.0614568
0.0583293
0.0555416
0.053005
0.0507837
0.0486823
0.0468448
0.045064
0.0434865
0.0419688
0.0405993
0.0392955
0.038101
0.0369654
0.0359408
0.0349469
0.0340736
0.0331693
0.0323934
0.0315516
0.0308624
0.0300567
0.0293968
0.0285663
0.0278893
0.0271232
0.0265132
0.0259031
0.0254446
0.0249246
0.0246328
0.0246728
0.0248886
0.0247866
21.7964
3.38066
1.22994
0.664417
0.437124
0.320934
0.252035
0.206908
0.175282
0.151899
0.134025
0.119831
0.108423
0.0989143
0.0910347
0.0842271
0.0784675
0.0733621
0.0689612
0.0650067
0.0615322
0.0584082
0.0556147
0.0531122
0.0508373
0.0487715
0.0468816
0.0451179
0.0435271
0.041991
0.0406438
0.0392945
0.038123
0.036963
0.0359246
0.0349275
0.0339875
0.0330912
0.0322492
0.0314227
0.0306774
0.0298978
0.0292131
0.0284215
0.0277682
0.0270158
0.0264508
0.025849
0.0253539
0.0248774
0.0244999
0.0244343
0.0244961
0.0243751
21.7965
3.38058
1.22985
0.66435
0.437066
0.320884
0.251977
0.206857
0.175214
0.151847
0.133946
0.119778
0.108333
0.0988578
0.0909345
0.0841656
0.0783597
0.0732922
0.0688493
0.0649239
0.0614036
0.0582933
0.0554556
0.0529897
0.0506739
0.0487005
0.0467365
0.0451126
0.0433993
0.042021
0.040525
0.0393229
0.0380188
0.0369646
0.0358445
0.0349166
0.0339695
0.0331392
0.0323064
0.031506
0.0307755
0.0299607
0.0292768
0.0284509
0.0277613
0.0270373
0.0264563
0.0259185
0.0254986
0.0250249
0.024797
0.0242152
0.0240989
0.023671
21.7965
3.38069
1.22991
0.664385
0.43709
0.320908
0.251996
0.206886
0.17523
0.151885
0.133955
0.119826
0.108333
0.0989178
0.090928
0.0842331
0.078356
0.0733606
0.0688615
0.0649947
0.0614464
0.0583726
0.055531
0.053066
0.0507597
0.048744
0.0468249
0.0451267
0.0434921
0.0420203
0.0406163
0.039311
0.0381154
0.0369432
0.0359229
0.0348997
0.0339882
0.0330961
0.0322647
0.0314524
0.0306673
0.0298767
0.0291487
0.0283078
0.0276751
0.0268735
0.0263968
0.0257477
0.0254038
0.024955
0.024579
0.0238972
0.0236247
0.023491
21.7966
3.38064
1.22984
0.664318
0.437035
0.320855
0.251944
0.206826
0.175175
0.15181
0.133903
0.119735
0.108286
0.0988079
0.0908843
0.0841065
0.0783136
0.073221
0.0688201
0.0648367
0.0613934
0.0581767
0.0554317
0.0528459
0.0506537
0.0485673
0.0467654
0.0450161
0.0434768
0.0419573
0.0405992
0.0392873
0.0380727
0.0369546
0.0358659
0.034899
0.0339491
0.0330863
0.0322775
0.0314048
0.0306889
0.0298232
0.0291176
0.0283659
0.027644
0.0270701
0.0263776
0.025996
0.025381
0.0250065
0.0243546
0.0240706
0.0233395
0.0235589
21.7966
3.38075
1.2299
0.664361
0.437062
0.320878
0.251962
0.206851
0.175191
0.151841
0.133914
0.119773
0.108289
0.0988584
0.0908766
0.0841736
0.0782921
0.0733089
0.0687901
0.0649449
0.0613714
0.0583136
0.0554563
0.0529955
0.0507065
0.0486925
0.0468017
0.0451101
0.0434868
0.0420292
0.0406069
0.0393348
0.0380961
0.0369661
0.0358861
0.034885
0.033918
0.033045
0.0321344
0.031329
0.0304563
0.0296825
0.0288478
0.0280972
0.0273492
0.0266743
0.0261492
0.0256004
0.0252284
0.0246438
0.0241568
0.0236628
0.0230313
0.0231239
21.7967
3.38067
1.22982
0.664287
0.437002
0.320823
0.251907
0.20679
0.175132
0.151769
0.133852
0.119685
0.108229
0.0987489
0.090823
0.0840385
0.0782506
0.0731509
0.068763
0.0647837
0.0613443
0.0581302
0.0553672
0.0527931
0.050561
0.0485279
0.0466776
0.0449923
0.0434264
0.041937
0.0405789
0.0392822
0.0380513
0.0369641
0.0358352
0.0348964
0.0339133
0.0330501
0.0322094
0.031305
0.0305612
0.0296416
0.0289366
0.0281418
0.0274439
0.0268448
0.0262506
0.0257569
0.0253508
0.0248456
0.0248553
0.0248551
0.0255822
0.0261335
21.7967
3.38078
1.22987
0.664324
0.437026
0.320847
0.251921
0.206818
0.175141
0.151805
0.133855
0.11973
0.108226
0.0988023
0.0908152
0.0841013
0.0782392
0.0732271
0.0687458
0.0648712
0.0613273
0.0582428
0.0553874
0.0529297
0.0506188
0.0486546
0.0467288
0.0451041
0.0434442
0.0420458
0.0405793
0.0393556
0.0380707
0.0369747
0.0358721
0.0348806
0.0339053
0.0330342
0.0321291
0.0313139
0.0304463
0.0296124
0.0287718
0.027996
0.0272761
0.0265648
0.026087
0.0254413
0.0250456
0.0245418
0.0241793
0.0238575
0.0241882
0.0243274
21.7968
3.38074
1.2298
0.664253
0.436971
0.320789
0.251874
0.20675
0.175092
0.151723
0.133802
0.119635
0.108167
0.0986964
0.0907494
0.0839853
0.0781715
0.0731071
0.0686937
0.0647418
0.0612835
0.0580685
0.0552998
0.0526844
0.0505018
0.0484417
0.0466364
0.044967
0.0434099
0.0419809
0.0406237
0.0393346
0.038165
0.0369867
0.0359414
0.0348781
0.0338968
0.0329447
0.0320324
0.0311351
0.0303159
0.0294568
0.0286931
0.0279947
0.0273105
0.0269049
0.0262592
0.0261672
0.0259885
0.0261169
0.0269896
0.0283659
0.0294374
0.0314328
21.7968
3.38085
1.22987
0.6643
0.436998
0.320811
0.251889
0.206771
0.175107
0.151745
0.133818
0.119657
0.108186
0.0987163
0.090773
0.0840026
0.078199
0.0731153
0.0687212
0.0647368
0.0613091
0.0580828
0.0553694
0.0527646
0.0506382
0.0485386
0.0468011
0.0450373
0.0435585
0.0420117
0.0407114
0.0393439
0.0381927
0.0369691
0.0359444
0.0348574
0.0339013
0.0329558
0.0320492
0.0311755
0.0303255
0.0294958
0.0287022
0.0279571
0.027279
0.0265703
0.026112
0.0255681
0.0252904
0.025059
0.0250941
0.0255642
0.0261439
0.0273034
21.7969
3.38076
1.22979
0.664229
0.436944
0.320754
0.251843
0.206705
0.175057
0.151665
0.133762
0.119565
0.108119
0.098616
0.090688
0.0838995
0.0780877
0.0730232
0.0685734
0.0646799
0.0611491
0.0580403
0.0551764
0.0527266
0.0505017
0.0485689
0.0467416
0.0451409
0.0435847
0.0421812
0.0408166
0.0395339
0.0383361
0.0371354
0.0361072
0.0349729
0.0340541
0.0330673
0.0321747
0.031332
0.0305515
0.0298734
0.0291448
0.0292178
0.0294638
0.0296933
0.0293137
0.0303542
0.0305102
0.0317691
0.0343441
0.0351664
0.0365555
0.0362456
21.7969
3.38087
1.22985
0.664266
0.436967
0.320772
0.251859
0.206721
0.175076
0.151679
0.133787
0.119574
0.108152
0.0986198
0.0907297
0.0838989
0.0781341
0.0730185
0.0686168
0.0646594
0.0611837
0.0580375
0.0552505
0.0527978
0.0505992
0.0486538
0.0468471
0.0452095
0.0436477
0.0421817
0.0408455
0.0394716
0.0383301
0.0370319
0.0360481
0.0348522
0.0339847
0.0329126
0.0321329
0.0311495
0.0304387
0.0295651
0.0289464
0.0282556
0.0278809
0.0271274
0.0278046
0.0278897
0.0279883
0.0277946
0.0281081
0.0292694
0.0303992
0.0333493
21.797
3.38083
1.22978
0.664202
0.436913
0.320727
0.251803
0.206674
0.175005
0.15163
0.133697
0.119526
0.108041
0.0985707
0.0905945
0.083845
0.0779753
0.0729537
0.0684429
0.0646149
0.0609895
0.0580332
0.0550591
0.0528513
0.0506843
0.049039
0.0472703
0.0458785
0.0442744
0.0430401
0.0416226
0.0404497
0.0392014
0.0380637
0.0371093
0.0360683
0.0353974
0.0346676
0.0339388
0.0342931
0.0343548
0.0351279
0.0364637
0.0376797
0.0411792
0.0419685
0.0420245
0.0415033
0.0411899
0.0411583
0.0405652
0.0390317
0.0386408
0.0361956
21.797
3.38093
1.22985
0.664248
0.436938
0.320746
0.251816
0.206694
0.175015
0.151654
0.133707
0.119551
0.108055
0.0985923
0.0906156
0.08386
0.0780004
0.0729601
0.0684604
0.0645969
0.0610092
0.0579753
0.0551415
0.0528039
0.0507871
0.0489895
0.047333
0.0457058
0.0441766
0.0427335
0.0413281
0.040039
0.0387322
0.0376202
0.0364489
0.0354984
0.0345727
0.0336778
0.0331328
0.0322814
0.032126
0.0317957
0.0324312
0.0327545
0.0336378
0.0342124
0.0372746
0.0380414
0.0373182
0.0371999
0.0380555
0.0378697
0.0380463
0.0372698
21.7971
3.38085
1.22978
0.664184
0.43689
0.320696
0.251774
0.206633
0.174972
0.151579
0.133661
0.11946
0.108001
0.0984884
0.0905452
0.0837464
0.0778971
0.0728501
0.0682862
0.0645413
0.06072
0.0581309
0.0547765
0.0535877
0.0519451
0.0524497
0.0533815
0.0535776
0.0529311
0.0524557
0.051995
0.0517671
0.0514328
0.0516498
0.0518575
0.0523335
0.0531926
0.0541553
0.0537701
0.0566924
0.0560633
0.0573621
0.0562826
0.054683
0.0531418
0.051168
0.048867
0.0462753
0.0437522
0.04165
0.0394413
0.0375586
0.0367407
0.0340694
21.7971
3.38095
1.22984
0.664224
0.436911
0.320716
0.251783
0.206656
0.174977
0.151608
0.133661
0.119498
0.107993
0.0985377
0.0905291
0.083807
0.0778709
0.0729179
0.068256
0.0645852
0.0606954
0.0581071
0.054785
0.0536423
0.0515126
0.0518194
0.0507926
0.0491545
0.0481876
0.047031
0.0459145
0.0447157
0.0443768
0.0440383
0.0440057
0.0437493
0.0437079
0.0443883
0.0451723
0.0461457
0.0476799
0.0487908
0.0493699
0.0496595
0.0500416
0.0494769
0.0483677
0.04712
0.0457122
0.0437536
0.0421828
0.0396949
0.0390638
0.0351534
21.7972
3.38092
1.22979
0.664172
0.436876
0.320663
0.251761
0.206578
0.174971
0.151494
0.133679
0.119333
0.108051
0.0983007
0.0906474
0.0834663
0.0780793
0.0724136
0.0685999
0.0638561
0.0611987
0.0571879
0.0560252
0.0556198
0.0649368
0.119675
0.131817
0.131579
0.128059
0.123854
0.119954
0.116331
0.112538
0.108393
0.103829
0.0988485
0.0934403
0.0875842
0.0814894
0.0752107
0.0691698
0.063145
0.0579145
0.0531787
0.0491946
0.0454813
0.0431594
0.0405419
0.0394024
0.0375877
0.036533
0.0350891
0.0345064
0.032196
21.7972
3.38101
1.22987
0.664223
0.436903
0.320682
0.251773
0.206595
0.174981
0.151514
0.13369
0.119359
0.10806
0.0983347
0.0906476
0.0835148
0.0780595
0.0724883
0.0685341
0.0639665
0.0610641
0.057311
0.0558404
0.0550072
0.060814
0.101313
0.0983894
0.102977
0.104368
0.104587
0.104476
0.104132
0.103636
0.102286
0.100236
0.0970936
0.0936694
0.0894385
0.0848132
0.0798999
0.0746241
0.068994
0.0634852
0.0582962
0.0541409
0.0506266
0.0473993
0.0445309
0.0420574
0.0396122
0.0378513
0.0349653
0.033711
0.0309306
21.7973
3.38093
1.2298
0.664167
0.436864
0.320638
0.251745
0.206542
0.174956
0.151445
0.133665
0.119276
0.108031
0.0982434
0.0906075
0.0834146
0.0780097
0.0723613
0.0684701
0.0639096
0.0604833
0.0573733
0.0567177
0.0702181
0.231959
0.338874
0.116967
0.107978
0.0828943
0.0670083
0.0582131
0.0586126
0.0592407
0.0590294
0.0582357
0.0571895
0.0561683
0.0550159
0.0541165
0.052825
0.0517236
0.0502132
0.0484088
0.0466587
0.0445511
0.0427538
0.0407988
0.038378
0.0366031
0.0334954
0.0316599
0.0297718
0.0298774
0.0276648
21.7972
3.38103
1.22987
0.664214
0.43689
0.320653
0.251762
0.20655
0.174976
0.151452
0.133691
0.119279
0.108065
0.0982409
0.0906503
0.083406
0.0780513
0.0723695
0.0684787
0.0638651
0.0610053
0.0566578
0.0571512
0.0688749
0.22152
0.328257
0.180932
0.134379
0.104138
0.0863849
0.0755828
0.0698572
0.0666575
0.0642896
0.0622675
0.0604169
0.0584893
0.0567229
0.0548231
0.0531927
0.0514139
0.0496478
0.0477792
0.0459222
0.0438265
0.0418111
0.0395464
0.0375501
0.0351141
0.0324923
0.0300345
0.028536
0.0285916
0.0270229
21.7974
3.38099
1.22983
0.664178
0.436859
0.320624
0.251729
0.206518
0.174936
0.151416
0.133643
0.11924
0.10801
0.0981973
0.0905923
0.0833579
0.077991
0.0723226
0.0684018
0.0638552
0.0610209
0.056278
0.0594395
0.11009
0.21936
0.19703
0.15033
0.137148
0.128217
0.121082
0.114932
0.108443
0.101853
0.0948097
0.087918
0.0810819
0.0744331
0.0681999
0.0619555
0.0564312
0.0510623
0.0462519
0.0419829
0.037995
0.0345606
0.0315066
0.029189
0.0276156
0.0257358
0.0252103
0.0251479
0.0261638
0.0253626
21.7973
3.38109
1.22992
0.664234
0.436888
0.320641
0.251743
0.20653
0.174951
0.151427
0.133666
0.119246
0.108045
0.0981927
0.0906442
0.0833364
0.0780657
0.0722605
0.0685635
0.0636219
0.0612572
0.0567723
0.0558099
0.125751
0.189456
0.188785
0.151586
0.1303
0.118985
0.111848
0.106902
0.101973
0.0971964
0.0914567
0.0857113
0.0796043
0.0736986
0.0677871
0.0622882
0.0568302
0.0519411
0.047125
0.0430993
0.0391252
0.035867
0.0329239
0.0302768
0.0277094
0.025168
0.025416
0.0248493
0.0257678
0.0257427
21.7974
3.381
1.22987
0.664197
0.43685
0.32063
0.251691
0.20654
0.174874
0.151458
0.133557
0.119304
0.1079
0.0982864
0.0904571
0.0834799
0.0778301
0.0724733
0.0682615
0.0639759
0.060809
0.0573192
0.0556866
0.0583095
0.101298
0.106694
0.0989698
0.0907069
0.0823221
0.0744696
0.0676524
0.061739
0.0564094
0.0516929
0.0473389
0.0436251
0.0402522
0.0374875
0.0350275
0.032997
0.0312845
0.0296752
0.0285777
0.0274755
0.0265674
0.0260299
0.0253141
0.0251292
0.0241851
0.0240863
0.024258
0.0251881
0.0246972
0.024492
21.7974
3.3811
1.22995
0.664247
0.436875
0.32065
0.251699
0.20656
0.174876
0.151485
0.133558
0.119335
0.107905
0.0983137
0.0904734
0.0834909
0.0778708
0.0724536
0.0683385
0.0639086
0.0609147
0.0572317
0.0556037
0.0577605
0.0865271
0.0891686
0.0827913
0.0793807
0.0751598
0.0701347
0.0651483
0.0605674
0.0558524
0.0517574
0.0475599
0.0441637
0.0408839
0.0382322
0.0358914
0.0337986
0.0322234
0.0305898
0.0294346
0.0282817
0.0273958
0.0267239
0.0259551
0.0253682
0.0246848
0.0239064
0.0240988
0.0249247
0.0245049
0.024665
21.7975
3.38106
1.22993
0.66423
0.436859
0.320631
0.25168
0.206539
0.174852
0.151467
0.13352
0.11933
0.107847
0.0983357
0.0903863
0.0835624
0.0777391
0.072606
0.0681457
0.0641724
0.0606405
0.0576049
0.0547937
0.0530596
0.0516335
0.0509933
0.0494574
0.0473645
0.0453619
0.0435311
0.0417946
0.040219
0.0387413
0.03735
0.036041
0.0347801
0.033593
0.0324632
0.031359
0.0304252
0.0293531
0.0283586
0.027542
0.0266678
0.0260244
0.0255072
0.0250521
0.0246065
0.0241243
0.0241862
0.0234427
0.023422
0.0236431
0.0236124
21.7975
3.38114
1.23003
0.664299
0.436896
0.320644
0.251702
0.206539
0.17488
0.151463
0.133555
0.119328
0.107881
0.0983447
0.0904099
0.0835877
0.0777457
0.0726541
0.0681292
0.0642514
0.060593
0.0577041
0.0547582
0.0531004
0.0515373
0.0506619
0.049123
0.047207
0.0453161
0.0435534
0.0418845
0.0403881
0.0388866
0.03766
0.0362655
0.0351938
0.0339447
0.0329254
0.0318608
0.0308725
0.0300053
0.0290405
0.0283313
0.0273835
0.0267631
0.0260698
0.0253412
0.0249518
0.0241396
0.0239739
0.0234664
0.0233445
0.023493
0.0234769
21.7975
3.38107
1.22998
0.664262
0.436871
0.320631
0.25168
0.206536
0.174847
0.151469
0.133511
0.119342
0.107835
0.0983587
0.0903793
0.0835918
0.0777524
0.0726417
0.0681981
0.0642203
0.0607419
0.0575894
0.0548887
0.0524702
0.0504963
0.048677
0.0469605
0.0452373
0.0435724
0.0420338
0.0404877
0.0391359
0.0377802
0.0365384
0.0353605
0.0341904
0.0331315
0.0320383
0.0310139
0.0301026
0.0290453
0.0281912
0.0273071
0.0266152
0.0259625
0.0254773
0.0249662
0.0246932
0.0241317
0.0235393
0.023152
0.0229244
0.0233057
0.0233534
21.7975
3.38116
1.23006
0.664313
0.436897
0.320648
0.25169
0.20655
0.174857
0.151486
0.133523
0.119364
0.107844
0.0983903
0.0903794
0.083638
0.0777389
0.0727067
0.0681691
0.0643055
0.0607008
0.0577043
0.0548473
0.0525907
0.0504959
0.0487703
0.0469594
0.0453349
0.0436285
0.0421482
0.040619
0.0393132
0.0379264
0.0368157
0.0355028
0.0345327
0.0333435
0.0323985
0.0313915
0.0304782
0.029634
0.0287698
0.028009
0.0271327
0.0265242
0.0258214
0.0251409
0.0247852
0.0239515
0.0235638
0.0231999
0.0233533
0.0231745
0.0231169
21.7976
3.38113
1.23006
0.664314
0.436891
0.320643
0.251678
0.206545
0.174839
0.151484
0.133497
0.119369
0.107814
0.0984032
0.0903512
0.083658
0.0777254
0.0727287
0.0681899
0.0643239
0.0607718
0.0577123
0.0549076
0.0524828
0.0503101
0.0483402
0.0465499
0.044834
0.0432009
0.0416995
0.0402152
0.0388962
0.0376089
0.0363794
0.0352694
0.0341211
0.0331078
0.0320236
0.0310455
0.0300477
0.0291782
0.0282453
0.0274573
0.0267971
0.0261256
0.0255256
0.025024
0.0246544
0.0238009
0.023532
0.0228541
0.0230238
0.0234726
0.0230657
21.7976
3.38121
1.23014
0.664363
0.436919
0.320653
0.251697
0.206544
0.174869
0.151473
0.133546
0.119345
0.107883
0.098366
0.0904356
0.0836153
0.0778156
0.072693
0.0682769
0.0643044
0.0608516
0.0577157
0.054984
0.0525161
0.050355
0.0484122
0.0465907
0.0449239
0.0432634
0.0417983
0.0403161
0.0390285
0.0376953
0.0365881
0.0353286
0.0344074
0.0332333
0.0323527
0.0313474
0.0304781
0.0296286
0.0287354
0.0279422
0.027104
0.0264433
0.0257924
0.025203
0.0247638
0.0241334
0.0234017
0.0233402
0.0235181
0.0239985
0.02334
21.7976
3.38114
1.23012
0.664354
0.436912
0.320649
0.251688
0.206544
0.174854
0.151481
0.13352
0.119365
0.107845
0.0984021
0.090392
0.0836648
0.0777768
0.0727527
0.0682533
0.0643745
0.0608447
0.0577825
0.054964
0.0525228
0.0502415
0.0482707
0.0463738
0.0446705
0.0430412
0.0415372
0.0401147
0.0387745
0.0375573
0.0362975
0.0352654
0.0341026
0.0331468
0.0320699
0.031132
0.0302385
0.0293828
0.0285233
0.0277541
0.0270004
0.0263455
0.025565
0.0250762
0.0244292
0.0240426
0.023517
0.0235476
0.0234681
0.0235735
0.0233112
21.7976
3.38121
1.23019
0.664399
0.436934
0.320665
0.251695
0.206559
0.17486
0.151501
0.133528
0.11939
0.107855
0.0984293
0.0904056
0.083694
0.0777965
0.0727833
0.0682823
0.0644062
0.0608833
0.0578165
0.0550161
0.052559
0.0503114
0.0483122
0.0464505
0.0447319
0.0431226
0.0416133
0.0401955
0.0388711
0.0376201
0.0364417
0.0353107
0.0343061
0.0332333
0.0323112
0.0313527
0.0304296
0.0296251
0.0287189
0.0279641
0.0270946
0.0264884
0.0258371
0.0252904
0.024754
0.0242574
0.0239475
0.0235348
0.0234347
0.0233999
0.0235869
21.7977
3.38118
1.2302
0.664409
0.436937
0.320663
0.251695
0.206554
0.174859
0.151492
0.133529
0.119377
0.107862
0.0984131
0.0904208
0.0836762
0.0778204
0.0727703
0.0683114
0.0644063
0.0609076
0.0578283
0.0550171
0.0525315
0.0502656
0.0481851
0.0463537
0.0445293
0.0430134
0.041376
0.0400692
0.0386313
0.0374766
0.0362409
0.0351875
0.0341283
0.0331167
0.0321684
0.031266
0.0303865
0.0295787
0.0286866
0.0279815
0.0271358
0.0264864
0.0258098
0.0252484
0.0247955
0.024359
0.0242996
0.0242047
0.0240122
0.0242626
0.0247255
21.7977
3.38125
1.23028
0.664455
0.436962
0.320675
0.25171
0.206559
0.174881
0.151496
0.133557
0.119383
0.107892
0.0984282
0.0904445
0.0837081
0.0778344
0.072822
0.0683198
0.0644694
0.0609214
0.0578901
0.0550394
0.0526002
0.0502876
0.0482745
0.046367
0.0446431
0.0430277
0.0415022
0.0401138
0.0387584
0.0375502
0.0363386
0.0352922
0.0341716
0.0332483
0.0322203
0.0313795
0.0304218
0.0296586
0.0287286
0.0280811
0.0272298
0.0266572
0.0259486
0.0253801
0.0250902
0.0245006
0.024385
0.0242966
0.0242206
0.0243818
0.0257852
21.7977
3.38118
1.23026
0.664448
0.436961
0.320672
0.251712
0.206554
0.174885
0.151486
0.133564
0.119369
0.107904
0.0984104
0.0904639
0.083687
0.0778614
0.0727967
0.0683563
0.0644359
0.0609671
0.0578346
0.05508
0.0525041
0.0502892
0.0481248
0.0463238
0.044458
0.0429564
0.0413065
0.0400198
0.0385559
0.0374435
0.0361603
0.0351766
0.0340436
0.0331296
0.0321306
0.0312654
0.030393
0.0295562
0.0287041
0.027948
0.0271638
0.0265044
0.0259155
0.0254412
0.0251873
0.0250575
0.0248634
0.0246474
0.0250147
0.0261247
0.0284112
21.7977
3.38125
1.23032
0.664491
0.436982
0.320688
0.251719
0.206569
0.174892
0.151506
0.133575
0.119392
0.107919
0.0984348
0.090484
0.0837132
0.0778894
0.0728248
0.0683936
0.0644667
0.0610082
0.0578727
0.0551199
0.0525595
0.0503269
0.0482091
0.0463525
0.0445628
0.0429817
0.0414217
0.0400596
0.0386752
0.0374931
0.0362646
0.035212
0.0341253
0.03316
0.0321992
0.0312994
0.0304399
0.0295896
0.0288216
0.0280629
0.0273672
0.0267289
0.0261325
0.0257402
0.0255147
0.0245711
0.0246045
0.0245731
0.0248508
0.0259283
0.0306109
21.7977
3.38122
1.23034
0.664503
0.436989
0.320689
0.251723
0.206566
0.174894
0.151502
0.133574
0.119388
0.107915
0.0984324
0.0904788
0.0837109
0.0778831
0.0728212
0.0683837
0.0644604
0.0609887
0.0578614
0.0550813
0.0525314
0.0502574
0.0481509
0.0462503
0.0444839
0.0428569
0.0413364
0.0399208
0.0385765
0.0373539
0.0361503
0.0350964
0.0340066
0.0330674
0.0320964
0.0312226
0.0303684
0.0295211
0.0288042
0.0280028
0.0274769
0.0268967
0.0265205
0.0262337
0.0257132
0.0255748
0.0250915
0.0256286
0.0271063
0.032214
0.0396789
21.7977
3.38128
1.2304
0.664546
0.43701
0.320706
0.251729
0.206584
0.174899
0.151525
0.133583
0.119412
0.107933
0.0984524
0.0905088
0.0837289
0.0779218
0.0728471
0.0684207
0.0645042
0.061016
0.0579236
0.0551011
0.0526092
0.0502793
0.0482401
0.0462733
0.0445803
0.0428724
0.0414392
0.0399322
0.0386902
0.0373651
0.0362697
0.0351037
0.0341132
0.0330848
0.0321861
0.0312773
0.0304325
0.0296483
0.0288595
0.0282437
0.0275347
0.0269877
0.0264192
0.0257929
0.025377
0.0244706
0.0247985
0.0253299
0.0264599
0.0303167
0.0438515
21.7977
3.38121
1.23038
0.664538
0.437007
0.320706
0.25173
0.206586
0.174898
0.151525
0.133579
0.11941
0.107929
0.098446
0.0905078
0.0837133
0.0779283
0.072816
0.0684362
0.0644526
0.0610365
0.0578501
0.0551135
0.0525149
0.0502661
0.0481242
0.0462318
0.0444488
0.0428149
0.0413041
0.0398657
0.0385556
0.0372905
0.0361312
0.0350239
0.0339829
0.0330104
0.0320796
0.0312445
0.0304309
0.0297062
0.0290296
0.0283875
0.0278533
0.0273378
0.0268432
0.0265539
0.0257148
0.0258097
0.0261725
0.0298251
0.0363965
0.0476688
0.0666254
21.7977
3.38128
1.23044
0.664579
0.43703
0.320718
0.251743
0.206594
0.174913
0.151536
0.133597
0.119428
0.107944
0.0984772
0.0905158
0.0837611
0.0779293
0.0728803
0.0684332
0.064531
0.0610303
0.0579407
0.0551067
0.0526157
0.0502691
0.048227
0.0462498
0.0445407
0.0428462
0.0413796
0.0399062
0.0386185
0.0373371
0.0361975
0.0350685
0.0340625
0.0330604
0.0321718
0.0312401
0.0304752
0.0296136
0.0289503
0.0282893
0.0276148
0.027
0.0263625
0.0258977
0.0250806
0.0251748
0.0255774
0.0281049
0.0315884
0.0446329
0.0728001
21.7977
3.38123
1.23044
0.664584
0.437035
0.32072
0.251746
0.206592
0.174915
0.151529
0.133598
0.119416
0.107946
0.0984601
0.0905186
0.0837395
0.0779296
0.0728536
0.0684275
0.0644961
0.0610169
0.0578924
0.0550867
0.052548
0.0502402
0.0481381
0.0462089
0.0444352
0.0427946
0.0412672
0.0398475
0.0385067
0.0372675
0.0360812
0.0349974
0.033953
0.0329963
0.0320847
0.0312456
0.0304362
0.0297097
0.0290285
0.0283486
0.0278384
0.0272552
0.0270021
0.0265977
0.0266441
0.028663
0.0311412
0.0464203
0.0592312
0.0788971
0.0999688
21.7977
3.38129
1.2305
0.664624
0.437056
0.320734
0.251756
0.206606
0.174926
0.151549
0.133611
0.119442
0.107961
0.0984919
0.0905353
0.0837776
0.0779501
0.0728973
0.0684541
0.064544
0.0610501
0.0579438
0.0551243
0.0526078
0.0502758
0.0482123
0.0462333
0.0445224
0.0428041
0.041357
0.0398537
0.0385852
0.0372857
0.0361523
0.0350094
0.0340381
0.0330207
0.0321542
0.0311753
0.0304599
0.0295204
0.0289551
0.0282065
0.0275869
0.0268568
0.0264074
0.0260102
0.0261406
0.0272893
0.0289618
0.0364153
0.0469559
0.0783828
0.0991809
21.7977
3.38122
1.23046
0.664603
0.437048
0.32073
0.251755
0.206603
0.174925
0.151543
0.133608
0.119432
0.107956
0.0984804
0.0905269
0.0837631
0.0779365
0.072878
0.0684331
0.0645164
0.0610204
0.0579034
0.0550876
0.0525475
0.0502374
0.0481251
0.0461959
0.0444071
0.0427684
0.0412291
0.0398087
0.0384668
0.0372145
0.0360408
0.0349271
0.0339077
0.0329078
0.0320403
0.0311415
0.0303585
0.029639
0.0288514
0.0282755
0.0277704
0.0272929
0.0275487
0.0288774
0.0305442
0.0377025
0.0516032
0.0814588
0.0902666
0.101012
0.115069
21.7976
3.38128
1.23051
0.664639
0.437067
0.320743
0.251766
0.206616
0.174938
0.151559
0.133625
0.119453
0.107977
0.0985037
0.0905521
0.0837892
0.0779679
0.0729072
0.0684714
0.0645498
0.061064
0.0579434
0.0551326
0.0525976
0.050282
0.0481852
0.0462358
0.0444758
0.0428006
0.0413007
0.0398353
0.0385407
0.037241
0.0361187
0.0349569
0.0339917
0.0329421
0.0321144
0.0311518
0.0304285
0.029586
0.0289484
0.0282346
0.0279705
0.0273985
0.027638
0.0283283
0.0298482
0.0339304
0.0399023
0.0572415
0.0747884
0.095242
0.112399
21.7975
3.38129
1.23053
0.664663
0.437095
0.32077
0.25179
0.206636
0.174958
0.151573
0.13364
0.119461
0.107987
0.098506
0.0905572
0.0837862
0.0779649
0.0728985
0.0684573
0.0645337
0.0610372
0.0579167
0.0550965
0.0525592
0.0502406
0.0481322
0.0461927
0.0444028
0.0427548
0.0412063
0.039784
0.0384197
0.0371822
0.035958
0.0348917
0.0337708
0.0328763
0.0318354
0.0310618
0.0301888
0.0295004
0.0287399
0.0288486
0.0293076
0.0310487
0.0342769
0.0390063
0.047659
0.0600533
0.073642
0.0919279
0.100047
0.114149
0.18533
21.7975
3.38135
1.23059
0.664704
0.437119
0.320785
0.251804
0.206649
0.174972
0.151588
0.133658
0.119478
0.108008
0.0985254
0.0905823
0.0838081
0.0779958
0.072924
0.0684948
0.064564
0.0610809
0.057953
0.0551437
0.0526039
0.0502846
0.0481866
0.0462272
0.0444684
0.0427758
0.041283
0.0397903
0.0385064
0.0371775
0.0360528
0.0348792
0.0338752
0.0328454
0.0319501
0.0310459
0.0302276
0.02965
0.0285606
0.0286339
0.0293232
0.0304681
0.0331625
0.0372501
0.0429319
0.0510088
0.0573691
0.070916
0.0819441
0.103074
0.167689
21.7985
3.38147
1.23078
0.664651
0.436873
0.320442
0.251422
0.206249
0.174576
0.1512
0.13328
0.119125
0.107675
0.0982257
0.0903042
0.0835456
0.0777423
0.0726757