/*--------------------------------*- C++ -*----------------------------------*\
| =========                 |                                                 |
| \\      /  F ield         | OpenFOAM: The Open Source CFD Toolbox           |
|  \\    /   O peration     | Version:  4.1                                   |
|   \\  /    A nd           | Web:      www.OpenFOAM.org                      |
|    \\/     M anipulation  |                                                 |
\*---------------------------------------------------------------------------*/
FoamFile
{
    version     2.0;
    format      ascii;
    class       surfaceScalarField;
    location    "43";
    object      phi;
}
// * * * * * * * * * * * * * * * * * * * * * * * * * * * * * * * * * * * * * //

dimensions      [0 3 -1 0 0 0 0];

internalField   nonuniform List<scalar> 
11516
(
9.98769e+06
424.117
9903.99
9.97141e+06
459.169
20682.6
9.9446e+06
604.682
31044.9
9.90786e+06
585.576
40930.8
9.8612e+06
609.286
50763
9.80453e+06
690.132
60652
9.73774e+06
747.314
70657.2
9.6607e+06
754.096
80888.6
9.57312e+06
730.699
91486.6
9.47444e+06
690.808
102773
9.36431e+06
677.757
114518
9.24326e+06
720.41
125887
9.11277e+06
767.749
135761
8.97859e+06
792.764
140224
8.85427e+06
-136.443
132170
8.75294e+06
-2056.13
110314
8.7047e+06
61.9276
53690.1
8.70685e+06
592.559
672.712
8.71043e+06
-19.7601
-1112.52
8.66651e+06
1313.41
45017.3
8.58423e+06
-1013.46
86266.7
8.46128e+06
-3960.42
130088
8.30408e+06
-7267.29
167699
8.11889e+06
-10609.9
199119
7.90719e+06
-13423.9
228691
7.69319e+06
-15667.5
233796
7.49339e+06
-13544.3
218410
7.31801e+06
-7703.17
189386
7.17082e+06
-5685.19
160204
7.05895e+06
-9767.83
130160
6.99068e+06
-15995.3
94517.2
6.96675e+06
-22159.2
58163.4
6.99817e+06
-17745.6
378.436
7.10133e+06
3999.89
-88235.8
7.2993e+06
23687.6
-193143
7.55454e+06
25035.2
-234094
7.721e+06
41804
-155756
7.83472e+06
39352.6
-94747.1
7.90883e+06
25787.1
-40693.2
7.97767e+06
-989.814
-7555.75
8.06062e+06
-5167.61
-13234.5
8.17287e+06
14806.5
-48703.8
8.26374e+06
38115.8
-49257.2
8.34288e+06
57204
-64691.6
8.41722e+06
49111
-64478.8
8.56305e+06
25150.1
-128378
8.58222e+06
37437.3
-61042.4
8.58714e+06
30091.7
-72095.6
8.63099e+06
86736.5
-208687
8.78609e+06
46683.4
-278581
9.29094e+06
-70788
-552415
1.01638e+07
-46426.9
-936343
1.12707e+07
25399.1
-1.21832e+06
-60617.6
-916733
9.98834e+06
9901.65
9.97146e+06
20738
9.94434e+06
31085
9.90733e+06
40926.6
9.86051e+06
50715.8
9.80385e+06
60594.3
9.73722e+06
70611.8
9.66032e+06
80897.8
9.57274e+06
91592.5
9.47388e+06
102978
9.36334e+06
114879
9.2417e+06
126339
9.11038e+06
136458
8.97454e+06
141452
8.84392e+06
135538
8.73991e+06
106446
8.69637e+06
46479.1
8.70707e+06
-8409.04
8.71623e+06
-7873.84
8.67511e+06
44060.4
8.59305e+06
83019.4
8.47251e+06
118797
8.31641e+06
151111
8.12876e+06
179480
7.90916e+06
208902
7.68311e+06
213712
7.47032e+06
203406
7.27889e+06
188645
7.11765e+06
161391
7.00855e+06
106776
6.964e+06
38007.5
6.97341e+06
-19656.5
7.02748e+06
-58028.2
7.13384e+06
-86168.7
7.30691e+06
-125813
7.51225e+06
-142741
7.67079e+06
-76377.3
7.80747e+06
-49912.1
7.91114e+06
-29551.8
8.00148e+06
-42354.1
8.05987e+06
-12101.4
8.14701e+06
-16978.4
8.23607e+06
883.424
8.3358e+06
3500.32
8.40083e+06
20030.9
8.49158e+06
-48519.1
8.54669e+06
-24074.1
8.58285e+06
-35367.3
8.652e+06
-25457.7
8.83878e+06
-200810
9.28949e+06
-582342
1.00473e+07
-891405
1.11175e+07
-1.10603e+06
-913591
1.00074e+07
428.418
5558.24
1.00182e+07
471.017
14569.5
1.00291e+07
617.137
24742.1
1.00395e+07
614.529
34930.9
1.00493e+07
659.708
45358.8
1.00579e+07
758.331
56198.1
1.00652e+07
834.633
67535.4
1.0071e+07
869.28
79255.9
1.00747e+07
871.139
92060
1.00766e+07
874.119
105260
1.00766e+07
874.966
119209
1.0074e+07
920.067
133454
1.00668e+07
1033.96
147856
1.00507e+07
1426.29
161092
1.00093e+07
3461.21
174992
9.93209e+06
2655.97
188177
9.8021e+06
1494.89
183947
9.59018e+06
1599.83
211330
9.3538e+06
-784.977
236243
9.14535e+06
-1459.95
255494
8.95816e+06
302.983
274043
8.79205e+06
1780.42
295471
8.6358e+06
3201.12
321939
8.47898e+06
4979.52
352195
8.32341e+06
6401.36
379290
8.16332e+06
8022.9
387773
7.99336e+06
9414.4
381642
7.7925e+06
12841.7
380788
7.56861e+06
19372.2
368130
7.35255e+06
21236.9
328434
7.17632e+06
20705.4
253514
7.08398e+06
23724.4
130085
7.09773e+06
22254.2
-31593.2
7.21371e+06
17869.3
-214056
7.42333e+06
7707.06
-391864
7.58068e+06
4868.61
-360800
7.6917e+06
-12414.3
-205115
7.78474e+06
-17313.6
-112708
7.83927e+06
-25296.9
-23014
7.93671e+06
-46447.6
-21891.6
8.0327e+06
-36091.5
-37265
8.08818e+06
-47017.4
-10519.1
8.10737e+06
-45821.6
31080
8.10913e+06
-36629.7
26058.5
8.13857e+06
-46934.3
4670.75
8.18561e+06
-64505
-75246
8.28652e+06
-86279.2
-60768
8.452e+06
-128729
-126303
8.49403e+06
-77825.4
-208974
8.62555e+06
-53962.5
-437637
8.61264e+06
-162481
-450149
8.78884e+06
65604.1
-1.32315e+06
1.03698e+07
95204.9
-3.0005e+06
-227992
-3.04655e+06
1.00081e+07
5554.49
1.00183e+07
14592.3
1.00287e+07
24746.8
1.00388e+07
34920.6
1.00483e+07
45331
1.00569e+07
56148.2
1.00643e+07
67462.6
1.00704e+07
79165.1
1.00744e+07
91985.9
1.00767e+07
105218
1.00771e+07
119273
1.00747e+07
133678
1.00682e+07
148194
1.00537e+07
161459
1.00235e+07
172856
9.95354e+06
181323
9.81089e+06
191424
9.59253e+06
211620
9.3522e+06
231831
9.14479e+06
250417
8.96205e+06
266715
8.79789e+06
285506
8.64501e+06
308077
8.49333e+06
337175
8.34673e+06
363158
8.1986e+06
371764
8.03659e+06
377487
7.85279e+06
388446
7.6611e+06
376230
7.46915e+06
324568
7.2834e+06
248787
7.15755e+06
133748
7.14036e+06
-14000
7.24404e+06
-162968
7.42791e+06
-281784
7.63453e+06
-307688
7.79684e+06
-208774
7.90285e+06
-127575
7.96362e+06
-70310.7
8.05109e+06
-128826
8.13107e+06
-92775.9
8.19743e+06
-85745.2
8.22314e+06
-25659.7
8.2444e+06
-14038.1
8.29323e+06
-44047.5
8.36033e+06
-159773
8.45581e+06
-204771
8.48482e+06
-210006
8.56018e+06
-213807
8.96062e+06
-694993
8.83163e+06
-658318
9.21509e+06
-1.30515e+06
1.05094e+07
-2.37325e+06
-2.95064e+06
9.99998e+06
424.72
7198.7
9.99883e+06
496.444
20357.3
9.99299e+06
630.563
35054.9
9.98267e+06
623.56
49650.4
9.96788e+06
673.336
64439.7
9.94864e+06
788.947
79610.4
9.92521e+06
891.137
95069.4
9.89709e+06
951.189
111502
9.86522e+06
971.798
128176
9.82905e+06
971.092
145915
9.78921e+06
950.366
163902
9.74531e+06
943.752
182513
9.69661e+06
892.557
201900
9.64024e+06
1121.13
222309
9.57608e+06
978.853
242760
9.49444e+06
2540.57
270442
9.38425e+06
1497.47
292587
9.28337e+06
1873.55
310090
9.18294e+06
-339.976
336959
9.06654e+06
238.606
372037
8.93718e+06
826.41
403335
8.80374e+06
1570.9
428400
8.66848e+06
2920.88
455470
8.52942e+06
5536.11
487130
8.38372e+06
7247
519418
8.22637e+06
10014.2
537569
8.03996e+06
14833.1
556546
7.79904e+06
20546
604942
7.50934e+06
23008.1
638616
7.20765e+06
15367.3
618223
6.9444e+06
9514.63
510307
6.77238e+06
19250.8
285637
6.71006e+06
43835.7
-8514.22
6.79687e+06
66413.2
-356990
7.04781e+06
49490.4
-674769
7.23953e+06
-12497.1
-516157
7.2974e+06
-86268.5
-139612
7.31685e+06
-117985
29928.6
7.26937e+06
-130667
187589
7.31905e+06
-76780.8
30352.5
7.36423e+06
-40591.2
-27783.4
7.35845e+06
-56966.2
79024.1
7.36196e+06
-83432.5
154928
7.40317e+06
-83673.6
115167
7.47248e+06
-72826.6
55559.1
7.48002e+06
-43121
716.174
7.60099e+06
-47469.8
-111712
7.84143e+06
-82358.8
-290202
8.33486e+06
-85104.2
-654608
9.22426e+06
-69582.8
-1.28306e+06
1.03877e+07
-140425
-1.49025e+06
1.06564e+07
-159709
-1.47646e+06
8.93141e+06
333585
-1.67903e+06
141338
-3.23554e+06
1.00006e+07
7193.46
9.99887e+06
20350.8
9.9927e+06
35044.3
9.98206e+06
49633.7
9.96706e+06
64421.6
9.94782e+06
79594.7
9.92457e+06
95060.4
9.89669e+06
111505
9.86507e+06
128202
9.82908e+06
145972
9.78931e+06
164011
9.74548e+06
182678
9.69666e+06
202148
9.64075e+06
222381
9.57452e+06
243176
9.491e+06
268731
9.38779e+06
295989
9.28659e+06
314387
9.18358e+06
334532
9.06872e+06
365833
8.94184e+06
395038
8.81185e+06
417912
8.68112e+06
442786
8.54358e+06
481414
8.40026e+06
515199
8.2478e+06
536402
8.07009e+06
572824
7.85018e+06
632156
7.57913e+06
673988
7.26269e+06
659978
6.97292e+06
550691
6.79863e+06
329944
6.77732e+06
55846.3
6.91111e+06
-220850
7.17502e+06
-477310
7.37297e+06
-487772
7.4756e+06
-361145
7.52856e+06
-257538
7.53987e+06
-166349
7.62262e+06
-248878
7.69242e+06
-182202
7.67882e+06
-96851.2
7.62973e+06
-16988.8
7.61393e+06
-40707
7.65782e+06
-127098
7.68987e+06
-210514
7.7989e+06
-352995
8.02571e+06
-527677
8.55599e+06
-844564
9.27158e+06
-1.49645e+06
1.00308e+07
-1.5791e+06
9.98887e+06
-1.47203e+06
8.89504e+06
-996070
-2.9832e+06
9.99962e+06
418.553
9235.67
9.99864e+06
493.06
25941.7
9.9932e+06
630.6
44920.7
9.98334e+06
624.189
63886.5
9.96883e+06
670.819
83217.1
9.94965e+06
779.695
102945
9.92503e+06
872.712
123785
9.89542e+06
921.699
145238
9.86045e+06
930.93
167392
9.82014e+06
914.958
190685
9.77407e+06
885.796
214762
9.7216e+06
857.836
240112
9.66214e+06
811.775
266776
9.59415e+06
769.131
295064
9.51436e+06
685.323
326753
9.4204e+06
1424.54
364803
9.30352e+06
872.59
408318
9.18518e+06
756.315
427027
9.08837e+06
-445.456
434190
8.99638e+06
156.563
464386
8.89765e+06
680.872
502312
8.78993e+06
757.423
536678
8.66597e+06
811.96
580231
8.52503e+06
2282.32
627445
8.36715e+06
2761.82
676338
8.18499e+06
4102.11
718061
7.95432e+06
7942.45
782066
7.64849e+06
9264.17
904235
7.26358e+06
5497
1.02081e+06
6.8607e+06
3543.23
1.01989e+06
6.54315e+06
5860.27
823521
6.34599e+06
12241.3
471946
6.27393e+06
27167.7
38012.6
6.37069e+06
49862.1
-501322
6.60572e+06
38549.6
-945145
6.74455e+06
-74121.2
-572534
6.69641e+06
-214626
145977
6.61644e+06
-285085
435367
6.48214e+06
-256481
601384
6.51193e+06
-129396
147018
6.52559e+06
-43562.7
6645.51
6.50451e+06
-73584.8
188282
6.49306e+06
-69298.7
284775
6.51822e+06
-47197.9
199934
6.57149e+06
-26952
92061.1
6.57517e+06
-22806
80394.3
6.62556e+06
-50362.2
-88180.3
6.64736e+06
-46419.1
-279650
6.89598e+06
-591.514
-924218
7.17506e+06
67145.1
-1.69706e+06
7.56804e+06
-90908.5
-1.8647e+06
7.76298e+06
-203698
-1.54967e+06
7.51059e+06
278171
-1.77603e+06
521416
-2.84474e+06
1.00002e+07
9233.67
9.99867e+06
25948.2
9.99292e+06
44906.5
9.98273e+06
63866.1
9.96801e+06
83206.4
9.94883e+06
102948
9.92438e+06
123801
9.89502e+06
145262
9.8603e+06
167421
9.82018e+06
190713
9.7742e+06
214796
9.72171e+06
240149
9.66197e+06
266822
9.59393e+06
295045
9.51381e+06
326651
9.42124e+06
363860
9.30956e+06
408256
9.19057e+06
433897
9.08985e+06
435009
8.99831e+06
458028
8.90031e+06
494572
8.79197e+06
528179
8.66672e+06
570055
8.52578e+06
625673
8.37072e+06
674320
8.18727e+06
725643
7.95111e+06
818648
7.64326e+06
950979
7.2625e+06
1.06197e+06
6.86744e+06
1.06001e+06
6.56366e+06
861342
6.37651e+06
530371
6.30186e+06
159368
6.41168e+06
-277369
6.73291e+06
-752245
6.95889e+06
-766469
7.04992e+06
-633747
7.01645e+06
-471253
6.91469e+06
-279432
6.85194e+06
-288692
6.81604e+06
-182869
6.73162e+06
-67208.4
6.67331e+06
15559.9
6.69557e+06
-65734.9
6.74349e+06
-164649
6.78721e+06
-249200
6.8638e+06
-471203
6.95922e+06
-678018
7.02265e+06
-951731
6.97907e+06
-1.44861e+06
7.01821e+06
-1.74082e+06
6.72408e+06
-1.4556e+06
7.21867e+06
-1.2702e+06
-2.43852e+06
9.99968e+06
416.855
11210.7
9.99881e+06
502.548
31404.4
9.99357e+06
633.707
54552.7
9.98397e+06
621.779
77802.3
9.96987e+06
661.927
101538
9.95108e+06
763.96
125828
9.92748e+06
851.497
151395
9.89916e+06
897.105
177577
9.86555e+06
905.558
205080
9.82668e+06
890.46
233803
9.78235e+06
870.004
263638
9.73226e+06
859.137
295169
9.67613e+06
827.143
328175
9.61236e+06
765.824
364015
9.53965e+06
646.672
403892
9.45712e+06
509.376
449758
9.36121e+06
987.379
505124
9.22967e+06
3003.73
556021
9.09033e+06
3136.99
571337
8.97792e+06
-614.725
578379
8.87503e+06
822.193
605820
8.76854e+06
1142.56
643591
8.6392e+06
-1387.53
712560
8.48048e+06
-1533.58
789017
8.29422e+06
-3143.51
867213
8.06569e+06
-3266.16
951572
7.77987e+06
790.7
1.06855e+06
7.43063e+06
2443.81
1.25227e+06
7.03701e+06
-251.292
1.41584e+06
6.65949e+06
327.416
1.39803e+06
6.35099e+06
5934.57
1.1269e+06
6.10909e+06
16819.4
697787
5.93818e+06
34373.3
175492
5.87669e+06
72971.6
-511842
5.95677e+06
160087
-1.1841e+06
5.6864e+06
-74644.5
-218048
5.76804e+06
-159031
282197
5.87377e+06
-143436
537866
5.66767e+06
-197705
1.05418e+06
5.60017e+06
-16324.8
247514
5.51883e+06
-4521.36
95337.2
5.49152e+06
-77916.8
310662
5.55774e+06
9322.39
270926
5.59004e+06
67308.2
185384
5.58486e+06
84707.5
93545.3
5.59958e+06
68234.7
52622.6
5.5866e+06
51570.4
-110343
5.79742e+06
-27797.9
-498189
5.63214e+06
71685.2
-916771
4.45415e+06
522229
-1.21899e+06
3.68346e+06
267983
-1.52459e+06
4.08071e+06
-20823.6
-2.10157e+06
4.62854e+06
300531
-2.74471e+06
295644
-2.65886e+06
1.00003e+07
11200.6
9.99883e+06
31391.7
9.99328e+06
54541.3
9.98337e+06
77794.1
9.96905e+06
101543
9.95026e+06
125850
9.92684e+06
151432
9.89877e+06
177623
9.86541e+06
205125
9.82673e+06
233836
9.7825e+06
263655
9.73237e+06
295168
9.67605e+06
328181
9.61185e+06
364055
9.53855e+06
403987
9.45526e+06
450133
9.36004e+06
505830
9.2385e+06
559877
9.10395e+06
573929
8.98784e+06
575013
8.88092e+06
603597
8.76473e+06
646809
8.62713e+06
706995
8.46775e+06
784252
8.27827e+06
861474
8.04187e+06
959565
7.76118e+06
1.10078e+06
7.42907e+06
1.28613e+06
7.0577e+06
1.43367e+06
6.70054e+06
1.41808e+06
6.4091e+06
1.15924e+06
6.19677e+06
760129
6.08353e+06
307659
6.13819e+06
-258291
6.44999e+06
-896702
6.73769e+06
-1.10582e+06
6.84936e+06
-874427
6.81829e+06
-550556
6.59751e+06
-222823
6.30359e+06
13617.3
5.99994e+06
122156
5.81814e+06
61079
5.85496e+06
40382.3
5.91069e+06
1630.85
5.95098e+06
-71708.5
5.96836e+06
-166945
5.86904e+06
-320826
5.61766e+06
-510150
5.34281e+06
-704527
5.52515e+06
-1.20642e+06
5.27875e+06
-1.31296e+06
4.88877e+06
-1.19617e+06
5.32334e+06
-1.47496e+06
-2.18954e+06
9.9997e+06
407.047
13106.6
9.99896e+06
493.463
36682.7
9.99403e+06
627.553
63874.8
9.98494e+06
617.953
91196.9
9.97168e+06
658.61
119005
9.95375e+06
758.27
147818
9.93133e+06
840.882
177778
9.90417e+06
879.057
208660
9.87208e+06
877.821
241103
9.83509e+06
853.398
274854
9.79267e+06
831.13
310428
9.74508e+06
838.026
347701
9.69179e+06
856.907
387028
9.63244e+06
899.77
429571
9.56647e+06
774.983
475596
9.49466e+06
1055.77
526905
9.41959e+06
2020.56
582772
9.32262e+06
8159.24
649610
9.1914e+06
9784.49
695871
9.0533e+06
-462.285
720352
8.91442e+06
-862.542
747913
8.77252e+06
-111.057
787441
8.62617e+06
-3725.51
863047
8.46421e+06
-5315.69
956771
8.2606e+06
-8698.3
1.08021e+06
7.99813e+06
-8046.51
1.22284e+06
7.68249e+06
-1668.49
1.3867e+06
7.341e+06
4044.02
1.59029e+06
6.98596e+06
4756.06
1.76667e+06
6.62593e+06
7354.56
1.7513e+06
6.26485e+06
14886.6
1.47367e+06
5.88601e+06
33524.7
1.04389e+06
5.43738e+06
75704
549168
4.78496e+06
262094
-120712
2.55977e+06
1.04422e+06
456.864
1.58309e+06
507791
289039
1.0301e+06
448019
500846
1.4969e+06
374249
-170020
2.35991e+06
69791.5
245072
3.34185e+06
98830.6
-772798
3.71551e+06
56108.7
-313673
3.96616e+06
107339
24053.8
4.14885e+06
201894
5725.92
4.20438e+06
243357
17889
4.06583e+06
293346
53934.8
3.8804e+06
258231
48149.4
3.65569e+06
189814
-93689.8
3.54844e+06
56994
-564284
3.52437e+06
51159.4
-1.12589e+06
3.44402e+06
201361
-1.58013e+06
3.65092e+06
50171
-2.03551e+06
3.46678e+06
310770
-2.4412e+06
1.91034e+06
782994
-2.14201e+06
419258
-1.91671e+06
1.00003e+07
13103.1
9.999e+06
36694.1
9.99375e+06
63859.3
9.98436e+06
91176.7
9.9709e+06
119003
9.95297e+06
147842
9.93072e+06
177823
9.90379e+06
208718
9.87194e+06
241160
9.83513e+06
274892
9.7928e+06
310434
9.74516e+06
347665
9.69171e+06
386977
9.6319e+06
429467
9.56563e+06
475652
9.49396e+06
526785
9.42274e+06
582734
9.35107e+06
643211
9.24594e+06
692489
9.09479e+06
728639
8.9364e+06
763122
8.77905e+06
805011
8.6232e+06
859653
8.44568e+06
956716
8.23123e+06
1.0675e+06
7.96881e+06
1.21433e+06
7.67864e+06
1.38959e+06
7.3645e+06
1.60462e+06
7.02805e+06
1.77525e+06
6.68671e+06
1.76715e+06
6.36191e+06
1.49937e+06
6.06571e+06
1.09029e+06
5.79844e+06
651113
5.65882e+06
146601
6.39494e+06
-571262
6.22747e+06
-412035
5.98446e+06
-136876
5.7768e+06
98223.6
5.45814e+06
247387
5.02859e+06
620337
4.77078e+06
483084
4.76223e+06
240846
4.77096e+06
307647
4.78258e+06
310541
4.82027e+06
248605
4.75952e+06
181974
4.49237e+06
105224
4.04499e+06
-101860
3.68144e+06
-440786
3.38921e+06
-900317
3.19644e+06
-1.23948e+06
3.769e+06
-1.58889e+06
4.6594e+06
-1.65381e+06
-2.2952e+06
9.99975e+06
403.763
14946.2
9.99925e+06
509.212
41719.4
9.99475e+06
636.824
72710.7
9.98633e+06
623.756
103867
9.97394e+06
658.166
135533
9.95708e+06
747.94
168669
9.93589e+06
818.979
202830
9.9101e+06
845.034
238229
9.87975e+06
832.339
275229
9.84407e+06
799.532
314394
9.80376e+06
777.833
354905
9.75846e+06
801.675
397789
9.70805e+06
878.733
443073
9.65267e+06
962.064
491205
9.59214e+06
1009.12
542547
9.52726e+06
1183.8
597724
9.4587e+06
1590.4
655916
9.39289e+06
3465.48
718262
9.31451e+06
3206.82
776589
9.20901e+06
992.71
831022
9.07059e+06
854.133
889844
8.88802e+06
4146.38
969105
8.69696e+06
2249.38
1.05192e+06
8.51864e+06
-9715.39
1.14482e+06
8.31405e+06
-14692.6
1.2995e+06
8.05372e+06
-15396.2
1.49922e+06
7.74485e+06
-1337.21
1.69748e+06
7.41724e+06
11645.9
1.90675e+06
7.07595e+06
11120.2
2.09729e+06
6.69471e+06
11025.4
2.12192e+06
6.27149e+06
24359.2
1.87298e+06
5.76115e+06
50005.8
1.50465e+06
4.91059e+06
139402
1.26088e+06
2.46284e+06
706845
1.62121e+06
-502528
1.03068e+06
1.94532e+06
-557143
17023.4
327176
-397565
152058
288021
-716448
462886
-66890
-263365
3759.27
61583.5
467663
-530987
-807771
1.36205e+06
-188351
-915471
1.6952e+06
384634
-541269
1.70173e+06
562958
-398503
1.72069e+06
565919
-401540
1.91116e+06
447578
-467166
2.32869e+06
287903
-617384
2.89107e+06
135386
-842330
3.40381e+06
29803.6
-1.24276e+06
3.68487e+06
-3509
-1.6243e+06
3.71353e+06
29156.3
-1.89363e+06
3.42779e+06
65819.9
-2.07361e+06
1.80429e+06
554954
-1.61339e+06
384401
561102
-1.45001e+06
-10998.7
-2.35895e+06
1.00003e+07
14933.5
9.99928e+06
41698.4
9.99448e+06
72690.6
9.98576e+06
103851
9.97317e+06
135535
9.95631e+06
168694
9.93528e+06
202875
9.90973e+06
238285
9.87959e+06
275283
9.84408e+06
314432
9.80386e+06
354914
9.75853e+06
397765
9.70795e+06
443027
9.65229e+06
491150
9.59153e+06
542588
9.52675e+06
597598
9.45976e+06
655882
9.39433e+06
716342
9.31855e+06
775801
9.21809e+06
833890
9.08813e+06
897125
8.92471e+06
974223
8.72269e+06
1.06422e+06
8.5094e+06
1.15987e+06
8.28294e+06
1.27913e+06
8.01455e+06
1.46737e+06
7.73252e+06
1.67044e+06
7.44475e+06
1.9042e+06
7.13324e+06
2.09803e+06
6.78172e+06
2.12988e+06
6.40185e+06
1.90379e+06
6.01708e+06
1.52531e+06
5.60379e+06
1.20435e+06
5.20802e+06
1.25713e+06
3.45289e+06
2.22684e+06
1.61586e+06
1.47263e+06
994197
740825
1.31424e+06
385282
1.1338e+06
591827
853327
525102
1.34663e+06
-84830
1.88182e+06
211459
2.16492e+06
699124
2.339e+06
804921
2.44714e+06
657651
2.51516e+06
411017
2.59311e+06
98028.9
2.74112e+06
-351668
2.94553e+06
-826301
3.15137e+06
-1.26684e+06
3.48259e+06
-1.67162e+06
4.06268e+06
-1.72959e+06
4.74447e+06
-1.82667e+06
-2.63445e+06
9.9998e+06
391.287
16636
9.9996e+06
492.783
46366.8
9.99562e+06
624.284
80969.6
9.98796e+06
612.969
115727
9.97645e+06
646.23
151107
9.96091e+06
731.65
188120
9.94135e+06
796.594
226147
9.91712e+06
815.728
266131
9.8883e+06
796.666
307678
9.85506e+06
761.129
351366
9.81684e+06
744.932
397206
9.77404e+06
789.629
445382
9.72678e+06
909.384
496109
9.67492e+06
1053.54
549680
9.61856e+06
1195.84
605984
9.55734e+06
1187.19
665167
9.49232e+06
1359.03
726823
9.42453e+06
1395.16
790452
9.35105e+06
897.423
855332
9.26489e+06
-270.029
922394
9.1623e+06
-343.199
997853
9.03686e+06
1357.06
1.09473e+06
8.86953e+06
4612.09
1.21465e+06
8.66645e+06
-2479.98
1.34857e+06
8.46272e+06
-15106
1.51779e+06
8.24796e+06
-20965.1
1.73491e+06
8.00522e+06
-4568.88
1.9452e+06
7.69751e+06
13190.9
2.20219e+06
7.34055e+06
18569.5
2.43659e+06
6.9332e+06
13503.7
2.51662e+06
6.5123e+06
20681.5
2.27384e+06
6.06848e+06
34510.6
1.91439e+06
5.54472e+06
71799.2
1.7133e+06
4.6975e+06
432375
2.0436e+06
2.28827e+06
934087
3.43711e+06
455206
385678
1.82688e+06
-69443
125918
866599
-133779
-156744
334191
364671
-295866
-14964.9
637049
-572443
-407299
1.10306e+06
-658249
-605756
1.73794e+06
-258359
-772412
2.29728e+06
78359.2
-904817
2.79072e+06
193893
-985030
3.29261e+06
192936
-1.1046e+06
3.83001e+06
98092.6
-1.25676e+06
4.32274e+06
19255
-1.43195e+06
4.63737e+06
-53614.4
-1.65762e+06
4.77052e+06
-102334
-1.86968e+06
4.75145e+06
-99928.7
-2.02286e+06
4.63725e+06
-54235.1
-2.13016e+06
4.98246e+06
-12284.9
-2.10779e+06
5.79795e+06
-6770.41
-2.33775e+06
303446
-3.16316e+06
1.00004e+07
16633.5
9.99963e+06
46380
9.99536e+06
80952.4
9.98741e+06
115705
9.97572e+06
151106
9.96017e+06
188147
9.94077e+06
226196
9.91675e+06
266189
9.88814e+06
307728
9.85505e+06
351391
9.81691e+06
397192
9.77411e+06
445324
9.72673e+06
496013
9.67468e+06
549583
9.61805e+06
605867
9.55694e+06
665131
9.49198e+06
726739
9.42357e+06
790328
9.34856e+06
855376
9.26307e+06
922577
9.1633e+06
999016
9.04633e+06
1.09371e+06
8.88861e+06
1.22539e+06
8.68613e+06
1.35864e+06
8.45378e+06
1.49558e+06
8.2024e+06
1.6977e+06
7.92996e+06
1.93852e+06
7.66325e+06
2.18439e+06
7.39508e+06
2.3851e+06
7.05745e+06
2.48157e+06
6.64099e+06
2.34158e+06
6.22006e+06
1.98145e+06
5.78993e+06
1.70905e+06
5.62484e+06
1.86424e+06
6.06989e+06
2.73334e+06
5.19011e+06
2.76461e+06
3.97546e+06
2.11965e+06
2.74869e+06
1.50348e+06
1.96287e+06
1.13937e+06
1.18296e+06
811027
86805.7
480991
-361418
554852
-72359.4
605029
616124
388056
1.49488e+06
2899.8
2.36531e+06
-382111
3.12515e+06
-719400
3.66579e+06
-1.07512e+06
3.98363e+06
-1.41307e+06
4.15094e+06
-1.70968e+06
4.24675e+06
-1.97121e+06
4.59634e+06
-2.18885e+06
5.22796e+06
-2.51081e+06
-3.11209e+06
9.99988e+06
388.558
18230.7
1e+07
510.504
50685.9
9.99661e+06
633.861
88580.2
9.98982e+06
618.621
126644
9.97946e+06
645.612
165455
9.96532e+06
721.827
206076
9.94722e+06
777.512
247906
9.92508e+06
789.075
291810
9.8984e+06
765.271
337841
9.8673e+06
728.975
386019
9.83188e+06
717.054
436522
9.79182e+06
771.781
490030
9.74744e+06
906.002
546065
9.69896e+06
1080.22
604658
9.64566e+06
1182.49
666033
9.58746e+06
1167.03
729614
9.52414e+06
1033.44
795418
9.45617e+06
737.452
862325
9.38445e+06
502.217
930902
9.30803e+06
111.731
1.00173e+06
9.22822e+06
189.358
1.08038e+06
9.14542e+06
1495.52
1.17767e+06
9.04598e+06
4082.53
1.30987e+06
8.88012e+06
22997.2
1.48952e+06
8.67555e+06
21112.5
1.70061e+06
8.50172e+06
-7819.99
1.91651e+06
8.3303e+06
-23632.4
2.14122e+06
8.1205e+06
-12203.2
2.4266e+06
7.87674e+06
8412.18
2.67527e+06
7.52915e+06
27779.5
2.84037e+06
7.00107e+06
41290.9
2.76377e+06
6.38431e+06
40846
2.49319e+06
5.84259e+06
54180.9
2.20459e+06
5.69543e+06
95666.8
2.10772e+06
5.79233e+06
353879
3.01293e+06
4.6502e+06
213902
2.79793e+06
3.69212e+06
-29879.6
1.92106e+06
3.18413e+06
-194526
1.12059e+06
3.0563e+06
-259863
459474
3.1773e+06
-386315
-63373.7
3.5851e+06
-527808
-409864
4.07177e+06
-519610
-665280
4.45823e+06
-339209
-886400
4.78872e+06
-218609
-1.05139e+06
5.13795e+06
-216570
-1.2258e+06
5.46563e+06
-226626
-1.39551e+06
5.66496e+06
-189660
-1.54101e+06
5.69765e+06
-162589
-1.69116e+06
5.60104e+06
-137588
-1.85053e+06
5.45181e+06
-96266.3
-2.00789e+06
5.30587e+06
-37486.7
-2.15114e+06
5.36558e+06
21115.1
-2.32394e+06
5.44476e+06
55675.4
-2.54151e+06
501252
-3.35904e+06
1.00005e+07
18217.1
1e+07
50656.4
9.99636e+06
88553.6
9.98929e+06
126623
9.97875e+06
165452
9.9646e+06
206097
9.94665e+06
247945
9.92471e+06
291856
9.89822e+06
337880
9.86727e+06
386034
9.83192e+06
436502
9.79187e+06
489965
9.7474e+06
545959
9.69873e+06
604518
9.64522e+06
665883
9.58687e+06
729506
9.5234e+06
795202
9.45541e+06
862226
9.38321e+06
930424
9.30671e+06
1.00135e+06
9.22715e+06
1.08027e+06
9.14593e+06
1.17714e+06
9.06522e+06
1.30989e+06
8.96782e+06
1.4781e+06
8.79349e+06
1.6901e+06
8.57201e+06
1.91098e+06
8.30143e+06
2.18526e+06
8.03209e+06
2.44178e+06
7.79612e+06
2.63011e+06
7.54969e+06
2.75685e+06
7.17533e+06
2.75908e+06
6.64068e+06
2.55974e+06
6.09409e+06
2.31637e+06
5.81775e+06
2.25002e+06
6.33635e+06
2.58763e+06
6.6201e+06
2.72054e+06
6.31932e+06
2.42291e+06
5.75298e+06
1.9116e+06
5.27904e+06
1.39281e+06
4.81552e+06
932991
4.26866e+06
550963
4.02471e+06
330465
4.24041e+06
91748.2
4.71478e+06
-281378
5.13299e+06
-635726
5.3776e+06
-894929
5.48816e+06
-1.10578e+06
5.48097e+06
-1.35802e+06
5.40851e+06
-1.63276e+06
5.35361e+06
-1.90561e+06
5.39718e+06
-2.17657e+06
5.66974e+06
-2.52147e+06
6.001e+06
-2.82136e+06
-3.6198e+06
9.99995e+06
375.188
19621.8
1.00004e+07
485.263
54503.6
9.99772e+06
613.289
95422.4
9.99191e+06
599.424
136486
9.98285e+06
625.027
178408
9.9703e+06
697.719
222328
9.9541e+06
749.331
267650
9.93402e+06
757.236
315292
9.90985e+06
730.931
365351
9.88142e+06
693.43
417859
9.84865e+06
683.167
473020
9.81168e+06
737.547
531391
9.77043e+06
872.688
592638
9.72455e+06
1039.78
656688
9.67378e+06
1134.41
723170
9.61748e+06
1111.74
791802
9.55547e+06
803.632
861555
9.48907e+06
631.119
931931
9.41984e+06
204.733
1.00153e+06
9.35262e+06
343.091
1.07026e+06
9.29206e+06
677.368
1.1418e+06
9.2497e+06
2583.13
1.21954e+06
9.21151e+06
3008.6
1.34612e+06
9.15486e+06
13623.6
1.53343e+06
9.02619e+06
36185.3
1.79229e+06
8.8585e+06
18379.4
2.06444e+06
8.65674e+06
-11728
2.35325e+06
8.46494e+06
-15403.3
2.63353e+06
8.29215e+06
-7372.15
2.85646e+06
8.10105e+06
6669.89
3.02699e+06
7.76176e+06
13018.9
3.09435e+06
7.19629e+06
25801.7
3.03946e+06
6.55494e+06
47594.2
2.81001e+06
6.07661e+06
11478.8
2.59657e+06
6.31378e+06
84134.6
2.7215e+06
6.34663e+06
96014.4
2.71108e+06
6.01925e+06
21965.2
2.28135e+06
5.66666e+06
-72587.6
1.61095e+06
5.44535e+06
-160399
913474
5.38353e+06
-235275
307854
5.49858e+06
-292280
-162213
5.69144e+06
-279259
-519669
5.87327e+06
-205964
-821635
6.05656e+06
-186197
-1.03395e+06
6.23624e+06
-209215
-1.2166e+06
6.34575e+06
-180448
-1.38961e+06
6.33619e+06
-115504
-1.53286e+06
6.21611e+06
-70342.3
-1.6655e+06
6.03404e+06
-39847.3
-1.82607e+06
5.86274e+06
-8556.46
-2.03337e+06
5.7528e+06
28546.9
-2.24102e+06
5.75174e+06
51236
-2.49463e+06
5.7119e+06
66875.4
-2.62763e+06
452707
-3.3241e+06
1.00005e+07
19621.2
1.00005e+07
54518.4
9.99748e+06
95406.4
9.99141e+06
136466
9.98217e+06
178408
9.96962e+06
222355
9.95354e+06
267696
9.93365e+06
315344
9.90966e+06
365390
9.88136e+06
417871
9.84867e+06
472993
9.81171e+06
531318
9.77039e+06
592522
9.72434e+06
656536
9.67338e+06
723017
9.61678e+06
791599
9.55478e+06
861403
9.48808e+06
931590
9.41902e+06
1.00102e+06
9.35149e+06
1.06998e+06
9.2913e+06
1.14202e+06
9.24632e+06
1.22602e+06
9.21542e+06
1.34476e+06
9.19166e+06
1.51575e+06
9.14703e+06
1.77087e+06
9.00002e+06
2.07467e+06
8.77759e+06
2.39467e+06
8.53689e+06
2.6667e+06
8.29609e+06
2.86419e+06
8.05982e+06
3.00188e+06
7.77077e+06
3.06475e+06
7.34326e+06
3.0195e+06
6.81357e+06
2.90455e+06
6.31438e+06
2.77682e+06
6.28654e+06
2.72162e+06
6.52437e+06
2.60734e+06
6.69724e+06
2.30606e+06
6.71487e+06
1.85908e+06
6.63421e+06
1.35311e+06
6.5274e+06
846910
6.45581e+06
372623
6.53038e+06
11795
6.70813e+06
-270145
6.77831e+06
-534414
6.68345e+06
-772228
6.5236e+06
-970908
6.38629e+06
-1.17444e+06
6.26675e+06
-1.42814e+06
6.20017e+06
-1.74072e+06
6.26597e+06
-2.10845e+06
6.5142e+06
-2.49887e+06
6.91699e+06
-2.93696e+06
7.41221e+06
-3.27945e+06
-4.28536e+06
1.00001e+07
373.825
20892.2
1.00009e+07
504.381
57930.9
9.99896e+06
623.305
101465
9.99425e+06
605.564
145159
9.98663e+06
625.628
189839
9.97589e+06
690.469
236705
9.9616e+06
734.92
285388
9.94395e+06
738.212
336258
9.92271e+06
710.085
389818
9.89725e+06
673.278
446592
9.86745e+06
664.049
506396
9.8336e+06
716.595
569416
9.79527e+06
843.758
636012
9.75227e+06
996.03
705474
9.70345e+06
1091.64
778024
9.64833e+06
1014.38
852253
9.58654e+06
769.933
927224
9.5196e+06
445.711
1.00107e+06
9.45067e+06
19.5949
1.07075e+06
9.38632e+06
628.01
1.1346e+06
9.33419e+06
1644.55
1.19229e+06
9.28957e+06
11479.9
1.25533e+06
9.3008e+06
5872.87
1.3316e+06
9.38689e+06
-2065.09
1.45465e+06
9.40416e+06
15001.8
1.76196e+06
9.26963e+06
15262.3
2.18344e+06
9.0306e+06
4414.47
2.58787e+06
8.78472e+06
-1724.55
2.88332e+06
8.56011e+06
-3660.47
3.08915e+06
8.35224e+06
-3510.79
3.24525e+06
8.1154e+06
-5711.93
3.34584e+06
7.79192e+06
-5155.44
3.3806e+06
7.30974e+06
-5684.43
3.31477e+06
6.77182e+06
-9349.62
3.16641e+06
6.54156e+06
9302.19
2.97135e+06
6.54226e+06
26912.2
2.71976e+06
6.53911e+06
22570.5
2.3055e+06
6.46437e+06
-12831
1.74807e+06
6.37329e+06
-60268
1.11799e+06
6.34323e+06
-106138
499565
6.39756e+06
-154567
-9308.04
6.46735e+06
-173943
-373895
6.5164e+06
-135780
-710445
6.59218e+06
-126799
-983169
6.64987e+06
-132997
-1.17564e+06
6.63536e+06
-117191
-1.3352e+06
6.54227e+06
-82644.6
-1.48018e+06
6.41372e+06
-59221.8
-1.63991e+06
6.28836e+06
-44066.7
-1.84097e+06
6.21132e+06
-29985.5
-2.10452e+06
6.27801e+06
-29587
-2.42769e+06
6.49986e+06
-20752.3
-2.79149e+06
7.009e+06
-25618.3
-3.15883e+06
167916
-3.71343e+06
1.00006e+07
20878.7
1.0001e+07
57895.9
9.99873e+06
101435
9.99375e+06
145136
9.98596e+06
189833
9.97521e+06
236719
9.96105e+06
285418
9.94357e+06
336289
9.9225e+06
389836
9.89717e+06
446582
9.86743e+06
506342
9.8336e+06
569314
9.79519e+06
635850
9.75205e+06
705259
9.70299e+06
777754
9.64763e+06
851937
9.58562e+06
926891
9.51842e+06
1.00051e+06
9.44948e+06
1.07028e+06
9.38619e+06
1.13365e+06
9.3401e+06
1.19068e+06
9.3316e+06
1.24796e+06
9.36178e+06
1.32396e+06
9.41758e+06
1.46307e+06
9.43079e+06
1.77336e+06
9.30995e+06
2.21193e+06
9.10507e+06
2.60467e+06
8.88359e+06
2.88857e+06
8.65381e+06
3.09442e+06
8.41148e+06
3.24654e+06
8.13924e+06
3.33916e+06
7.80393e+06
3.36004e+06
7.39404e+06
3.32226e+06
6.9535e+06
3.22477e+06
6.64773e+06
3.05755e+06
6.52576e+06
2.78162e+06
6.51532e+06
2.36842e+06
6.53736e+06
1.85606e+06
6.56443e+06
1.29925e+06
6.58762e+06
751720
6.57663e+06
261543
6.57811e+06
-138648
6.66614e+06
-481669
6.72628e+06
-727574
6.69144e+06
-901927
6.62895e+06
-1.08704e+06
6.60715e+06
-1.3247e+06
6.67085e+06
-1.65992e+06
6.87986e+06
-2.1076e+06
7.27697e+06
-2.63831e+06
7.89025e+06
-3.2182e+06
8.67964e+06
-3.7941e+06
9.73734e+06
-4.38218e+06
-5.22364e+06
1.00002e+07
360.668
21909.5
1.00015e+07
472.81
60760.3
1.00003e+07
596.924
106559