/*--------------------------------*- C++ -*----------------------------------*\
| =========                 |                                                 |
| \\      /  F ield         | OpenFOAM: The Open Source CFD Toolbox           |
|  \\    /   O peration     | Version:  4.1                                   |
|   \\  /    A nd           | Web:      www.OpenFOAM.org                      |
|    \\/     M anipulation  |                                                 |
\*---------------------------------------------------------------------------*/
FoamFile
{
    version     2.0;
    format      ascii;
    class       volVectorField;
    location    "43";
    object      U;
}
// * * * * * * * * * * * * * * * * * * * * * * * * * * * * * * * * * * * * * //

dimensions      [0 1 -1 0 0 0 0];

internalField   nonuniform List<vector> 
4432
(
(39.9827 0.00074189 0.0511836)
(39.9222 0.00127503 0.0907696)
(39.8379 0.00281726 0.122144)
(39.7214 0.00326076 0.153253)
(39.5556 0.00256039 0.185531)
(39.3427 0.00155987 0.21878)
(39.0897 0.000747194 0.252876)
(38.7999 0.000324218 0.287046)
(38.4721 0.000356924 0.321238)
(38.1033 0.000732059 0.355091)
(37.6903 0.00128739 0.387219)
(37.2311 0.00182276 0.418679)
(36.7278 0.00205444 0.443982)
(36.1935 0.00178956 0.462353)
(35.6471 -0.000421547 0.454885)
(35.1969 -0.0075249 0.399425)
(34.8486 -0.00366605 0.433508)
(34.7196 0.00313373 0.337355)
(34.8462 0.00444408 0.261258)
(34.8186 0.00908519 0.42843)
(34.5532 0.00398317 0.536085)
(34.1228 -0.00602949 0.674417)
(33.5397 -0.0226562 0.764883)
(32.8558 -0.035623 0.782686)
(32.0599 -0.0411548 0.815859)
(31.1957 -0.0471492 0.739817)
(30.3619 -0.0476559 0.572236)
(29.584 -0.0339044 0.367211)
(28.9364 -0.0171639 0.27047)
(28.418 -0.0209908 0.256652)
(28.0519 -0.0428139 0.305743)
(27.8546 -0.058864 0.371806)
(27.8703 -0.0404538 0.204315)
(28.1375 0.0238187 -0.341489)
(28.7551 0.0922426 -1.1715)
(29.5467 0.140303 -1.51946)
(30.6791 0.158763 -1.23052)
(31.3897 -0.116558 -1.2188)
(31.3906 -0.158393 -1.05841)
(31.5692 0.0210925 -0.711809)
(32.0247 0.164188 -0.507726)
(32.4829 0.222025 -0.464427)
(32.9579 0.150156 -0.355237)
(33.1873 0.0781268 -0.229763)
(33.5434 0.114832 -0.140814)
(33.7403 0.340865 -0.237018)
(33.8624 0.459982 0.104678)
(34.849 0.0898216 0.0183763)
(35.1636 -0.0406306 -0.351139)
(34.3923 -0.259025 -0.727525)
(34.8694 -0.341187 -0.862984)
(38.4488 -0.213176 -2.46729)
(42.35 -0.426847 -5.36981)
(49.2582 -0.704189 -0.508919)
(39.9839 0.000741925 0.0511819)
(39.9235 0.00127477 0.0908911)
(39.8386 0.00281744 0.12231)
(39.7196 0.00326095 0.153274)
(39.5524 0.00255985 0.185287)
(39.3395 0.00155993 0.218348)
(39.0872 0.000746372 0.252191)
(38.7983 0.000324683 0.286251)
(38.4709 0.000356616 0.320583)
(38.1019 0.00073149 0.354689)
(37.6876 0.00128706 0.387644)
(37.2262 0.00182228 0.419829)
(36.7203 0.00205503 0.447183)
(36.1797 0.00179334 0.466438)
(35.6313 -0.000432449 0.467005)
(35.1345 -0.00753316 0.412267)
(34.7909 -0.00368642 0.379764)
(34.7204 0.00285306 0.282335)
(34.8502 0.00476963 0.248528)
(34.8553 0.00902422 0.434555)
(34.5917 0.00381158 0.51934)
(34.1591 -0.00589904 0.587367)
(33.5825 -0.0223768 0.649289)
(32.9079 -0.0363803 0.669643)
(32.0949 -0.0423615 0.700762)
(31.1865 -0.0481559 0.606363)
(30.2801 -0.0506595 0.448203)
(29.4629 -0.0397437 0.329511)
(28.7587 -0.0237663 0.230356)
(28.1856 -0.026077 0.0623587)
(27.8745 -0.0465953 -0.166655)
(27.8285 -0.0760175 -0.312394)
(27.9456 -0.0682561 -0.325175)
(28.2609 -0.0198839 -0.300694)
(28.8533 0.0672955 -0.620773)
(29.6335 0.148559 -0.926578)
(30.3761 0.18119 -0.740417)
(30.9619 -0.0708865 -0.601412)
(31.4508 -0.182495 -0.389693)
(31.8255 -0.0522334 -0.254264)
(32.1027 0.125282 -0.0816258)
(32.3712 0.23352 -0.0484282)
(32.7364 0.168062 0.108506)
(32.9678 0.0983575 0.215997)
(33.6769 0.145429 0.13863)
(33.9129 0.371547 -0.343969)
(33.3802 0.52163 -0.205106)
(34.5793 0.120994 -0.0939654)
(35.0822 -0.0179615 -0.151661)
(34.6436 -0.202097 -0.430459)
(35.8164 -0.282217 -1.34563)
(37.6588 -0.0599603 -2.45457)
(41.2214 -0.342768 -5.61577)
(48.8646 -0.731839 -1.74181)
(40.0107 0.000762856 0.0190602)
(40.0438 0.00130358 0.0553379)
(40.092 0.00282444 0.0980762)
(40.1447 0.00326182 0.140981)
(40.1858 0.00251927 0.183972)
(40.2167 0.00142525 0.227514)
(40.2431 0.000503527 0.271826)
(40.2666 3.41962e-05 0.31724)
(40.2865 0.000124155 0.364323)
(40.3011 0.000771017 0.41352)
(40.3089 0.00178682 0.464915)
(40.3067 0.0029721 0.517062)
(40.2912 0.00425002 0.56752)
(40.2438 0.00547327 0.606237)
(40.1667 0.0102985 0.627849)
(39.8729 0.00961687 0.639264)
(39.6088 0.00827458 0.459583)
(38.8595 0.0107377 0.400106)
(37.8138 0.00133483 0.474807)
(36.9555 -0.00238173 0.533243)
(36.1888 0.000434723 0.621983)
(35.4735 0.00281804 0.745781)
(34.8421 0.00607758 0.887654)
(34.2143 0.0110427 1.05173)
(33.5931 0.014748 1.18832)
(32.9693 0.0175968 1.23311)
(32.3172 0.020558 1.2047)
(31.6112 0.0328032 1.15608)
(30.7337 0.05448 1.07288)
(29.8138 0.0555354 0.901549)
(29.002 0.0466108 0.600421)
(28.4065 0.0470436 0.228914)
(28.2481 0.0522119 -0.178484)
(28.5328 0.0574821 -0.510877)
(29.2055 0.0432509 -0.606872)
(30.0136 0.00304852 -0.532742)
(30.6482 -0.091778 -0.143109)
(31.0383 -0.126122 -0.0376322)
(31.2235 -0.0563193 0.0741048)
(31.4608 0.0210983 0.167114)
(31.9001 0.00733611 0.207602)
(32.262 -0.113412 0.213043)
(32.512 -0.234048 0.321991)
(32.3815 -0.306204 0.246859)
(32.3736 -0.42347 0.172553)
(32.534 -0.515673 -0.206289)
(32.5648 -0.626557 0.124551)
(33.6136 -0.791187 -0.203269)
(34.7667 -0.832183 -1.23599)
(32.9485 -0.772834 -1.07977)
(36.5514 -1.01181 -1.75031)
(31.0748 -0.139895 -6.28921)
(39.5987 -0.136935 -8.54256)
(47.4727 -1.41657 -7.08568)
(40.0119 0.000762854 0.0190514)
(40.045 0.00130357 0.0554877)
(40.0926 0.00282441 0.0981281)
(40.1425 0.00326176 0.140885)
(40.1818 0.00251922 0.183716)
(40.2123 0.00142505 0.227113)
(40.2391 0.000503761 0.271363)
(40.2635 3.26383e-05 0.316838)
(40.2849 0.00012455 0.364227)
(40.3008 0.000769589 0.413853)
(40.3104 0.00178021 0.466072)
(40.3095 0.00298021 0.519258)
(40.2951 0.0042238 0.570641)
(40.2537 0.00558281 0.611923)
(40.1718 0.00989747 0.628282)
(39.9876 0.00925531 0.594316)
(39.6607 0.0090299 0.472034)
(38.8777 0.0119136 0.402619)
(37.8214 0.0016108 0.448456)
(36.9373 -0.00202951 0.515756)
(36.198 0.000654827 0.595469)
(35.4943 0.00303828 0.713448)
(34.8687 0.00638682 0.838452)
(34.2607 0.0117192 0.976626)
(33.6606 0.015838 1.10009)
(33.0851 0.02006 1.14431)
(32.4867 0.0261396 1.15711)
(31.7946 0.0384084 1.15465)
(31.0225 0.0563394 1.05204)
(30.284 0.0692701 0.811852)
(29.4783 0.0711253 0.510972)
(28.7626 0.0799403 0.173668)
(28.4659 0.0772529 -0.196498)
(28.6828 0.0744956 -0.502586)
(29.2934 0.0433843 -0.61)
(30.0791 0.0323194 -0.57444)
(30.9085 -0.0890401 -0.24321)
(31.4791 -0.159259 -0.0208837)
(31.7486 -0.122485 0.0957954)
(31.9864 -0.123078 -0.0564057)
(32.3343 0.0012121 0.00341441)
(32.6302 -0.0286345 0.104698)
(32.9242 -0.115533 0.328679)
(32.8862 -0.179848 0.400651)
(32.958 -0.324473 0.263406)
(33.2548 -0.439923 -0.375843)
(33.3106 -0.541262 -0.353889)
(34.3255 -0.743255 -0.347085)
(34.0775 -0.56122 -0.188032)
(33.8489 -0.639435 -1.43831)
(38.2929 -0.71213 -2.06677)
(32.0218 0.0527176 -5.57193)
(41.456 -0.246614 -6.55173)
(46.3728 -1.15144 -6.10341)
(40.0015 0.000759851 0.0258629)
(39.9963 0.00134715 0.0704541)
(39.9855 0.00281561 0.117682)
(39.9626 0.00321652 0.162535)
(39.9129 0.0024655 0.207302)
(39.8387 0.00140087 0.253331)
(39.747 0.000551691 0.301327)
(39.6412 0.000194863 0.35194)
(39.5218 0.00044249 0.405807)
(39.3884 0.00127975 0.463229)
(39.2399 0.00251085 0.524136)
(39.0752 0.00397926 0.587894)
(38.8899 0.00520338 0.653421)
(38.6843 0.00694464 0.719517)
(38.4297 0.00682357 0.783333)
(38.1834 0.0106565 0.861217)
(37.7797 0.00734316 0.869624)
(37.3085 0.00638651 1.00361)
(36.9185 0.000127606 1.17116)
(36.5067 0.000412858 1.32276)
(36.0112 0.00207988 1.42634)
(35.4701 0.00450811 1.50169)
(34.9338 0.00845895 1.58836)
(34.3847 0.0154458 1.68972)
(33.8159 0.0204939 1.78547)
(33.2273 0.0277959 1.81873)
(32.5601 0.0408601 1.81515)
(31.7341 0.0587523 1.8692)
(30.6548 0.0684088 1.83481)
(29.4304 0.0478288 1.68579)
(28.226 0.0325441 1.39586)
(27.3082 0.0578237 0.785199)
(26.904 0.122934 -0.0545444)
(26.8347 0.227551 -1.05164)
(27.4695 0.280482 -2.29128)
(28.6547 0.02641 -2.0061)
(29.2369 -0.290192 -1.10099)
(29.3745 -0.474499 -0.262964)
(29.1414 -0.541206 0.339866)
(29.1699 -0.252503 0.122095)
(29.2491 -0.107228 -0.134969)
(29.4285 -0.191273 -0.0279692)
(29.4965 -0.300335 0.0200641)
(29.5274 -0.381126 -0.187774)
(29.5535 -0.456767 -0.360765)
(29.9499 -0.471129 -0.605205)
(29.9378 -0.538428 -0.591666)
(30.8962 -0.527088 -1.12584)
(31.7559 -0.463905 -1.92132)
(34.4493 -0.40611 -4.65757)
(40.2201 -0.430891 -4.35623)
(43.3308 -0.596897 -2.69359)
(40.4701 0.256886 -7.39665)
(33.9272 0.547288 -15.1988)
(40.0026 0.000759849 0.025846)
(39.9976 0.00134714 0.0704873)
(39.9861 0.00281557 0.11765)
(39.9606 0.00321647 0.162471)
(39.9093 0.00246542 0.207253)
(39.8349 0.00140074 0.253324)
(39.7438 0.000551356 0.301381)
(39.639 0.000194594 0.352068)
(39.5208 0.000442053 0.406045)
(39.3884 0.00127938 0.46359)
(39.2404 0.00251013 0.524703)
(39.0758 0.0039799 0.588675)
(38.8912 0.00520673 0.654426)
(38.683 0.00693501 0.719655)
(38.4376 0.0068661 0.781763)
(38.1569 0.0105533 0.851895)
(37.7882 0.00676999 0.907009)
(37.3331 0.0070377 1.00199)
(36.913 0.000208651 1.15349)
(36.5115 0.000535454 1.299)
(36.0251 0.00226299 1.39701)
(35.4949 0.00474127 1.46377)
(34.9746 0.00884481 1.53623)
(34.4408 0.0166326 1.64787)
(33.8736 0.0225463 1.75108)
(33.3022 0.0311706 1.79212)
(32.6557 0.0466168 1.8364)
(31.8743 0.0664983 1.92201)
(30.9186 0.0801334 1.92527)
(29.7511 0.0658472 1.78274)
(28.3659 0.0456161 1.52198)
(27.3753 0.0683731 0.926339)
(27.0102 0.142205 0.0794397)
(27.2717 0.210636 -0.738744)
(28.0275 0.177738 -1.39843)
(29.124 0.0621361 -1.43432)
(29.8282 -0.188512 -0.941765)
(30.0786 -0.423164 -0.601288)
(30.0807 -0.566814 -0.457144)
(30.3842 -0.474739 -0.819475)
(30.6119 -0.229488 -0.648268)
(30.6705 -0.178538 -0.558535)
(30.7281 -0.26047 -0.386708)
(30.4087 -0.258887 -0.454314)
(30.3739 -0.343385 -0.544999)
(30.6242 -0.351703 -0.777259)
(30.8741 -0.442753 -1.08355)
(31.767 -0.421515 -1.47278)
(32.2037 -0.362858 -2.62226)
(35.9049 -0.233582 -5.63009)
(39.3671 -0.35865 -4.90505)
(41.5307 -0.547489 -3.75814)
(39.2239 0.549704 -4.57065)
(33.2254 0.605933 -13.964)
(40.0012 0.0007471 0.0329601)
(39.9952 0.0013383 0.0921087)
(39.9851 0.00279451 0.159497)
(39.9641 0.00319433 0.227692)
(39.9163 0.00245184 0.297968)
(39.8428 0.00138431 0.370828)
(39.7494 0.000513312 0.446352)
(39.6389 0.000118958 0.524664)
(39.5106 0.000327318 0.605827)
(39.3627 0.00112821 0.689761)
(39.193 0.00237141 0.776269)
(38.999 0.00385528 0.86539)
(38.7769 0.00524773 0.957374)
(38.523 0.00645236 1.05487)
(38.2267 0.00673713 1.16039)
(37.8941 0.00811897 1.28905)
(37.498 0.00462366 1.45105)
(36.9303 0.00281132 1.487)
(36.4962 -0.00012983 1.53302)
(36.1651 0.000481847 1.66478)
(35.7905 0.00199194 1.81858)
(35.3722 0.00284017 1.94379)
(34.9123 0.00363628 2.06867)
(34.3761 0.0075377 2.21306)
(33.7808 0.00913086 2.37132)
(33.1312 0.0126519 2.48231)
(32.3213 0.0234394 2.63282)
(31.2688 0.0299699 2.96015)
(29.914 0.0217615 3.27856)
(28.2125 0.0149462 3.28786)
(26.6489 0.0238228 2.71863)
(25.677 0.0481811 1.53954)
(25.1467 0.102174 0.0494862)
(25.0413 0.189031 -1.84087)
(25.8695 0.179586 -3.43921)
(26.7822 -0.153499 -2.34128)
(26.9732 -0.609081 -0.609982)
(26.8714 -0.966745 0.23532)
(26.1355 -0.814207 1.10512)
(26.0108 -0.207558 0.21589)
(25.854 -0.0716868 -0.125073)
(26.1133 -0.205613 0.426894)
(26.0167 -0.331864 0.85839)
(25.967 -0.357337 0.741682)
(26.0802 -0.289075 0.416569)
(26.1678 -0.253627 0.283735)
(26.3819 -0.351865 -0.701197)
(26.2919 -0.101014 -1.37737)
(27.1707 0.0230107 -3.07842)
(27.4225 0.11968 -5.53148)
(30.2898 -0.230923 -7.34535)
(31.2585 -0.745329 -7.83568)
(32.5454 -0.124777 -8.98303)
(25.981 1.15472 -12.8116)
(40.0023 0.000747097 0.032943)
(39.9965 0.00133829 0.0921117)
(39.9857 0.00279447 0.159474)
(39.9621 0.00319428 0.227659)
(39.9128 0.00245176 0.29795)
(39.839 0.00138418 0.370824)
(39.7463 0.000513056 0.446346)
(39.6367 0.000118588 0.52464)
(39.5096 0.000326945 0.605779)
(39.3627 0.00112803 0.689685)
(39.1936 0.00237172 0.776222)
(38.9997 0.00385589 0.86537)
(38.7773 0.00524787 0.957524)
(38.5218 0.00645485 1.05449)
(38.2275 0.00673095 1.16022)
(37.8869 0.00823266 1.28511)
(37.5177 0.00452901 1.44828)
(36.9653 0.00271619 1.52333)
(36.4961 -0.000209457 1.53501)
(36.1709 0.000546221 1.64077)
(35.8007 0.00222012 1.78428)
(35.3857 0.00318828 1.90198)
(34.9173 0.00375132 2.02383)
(34.3716 0.00719277 2.2139)
(33.7934 0.00892926 2.37578)
(33.1482 0.012891 2.50511)
(32.317 0.0262226 2.7551)
(31.2467 0.0341235 3.14989)
(29.9045 0.0254158 3.5005)
(28.2123 0.0191127 3.53247)
(26.7019 0.0254688 2.90595)
(25.7898 0.0471166 1.77799)
(25.2801 0.099571 0.528364)
(25.156 0.201245 -0.908524)
(26.0625 0.201324 -2.56745)
(27.4374 -0.098227 -2.64969)
(28.2459 -0.507559 -1.9719)
(28.3007 -1.0369 -1.33679)
(27.8784 -1.26754 -0.543856)
(27.7153 -1.02469 -0.854636)
(27.1049 -0.244243 -0.731051)
(27.0179 -0.187498 -0.447262)
(26.7959 -0.189614 -0.160695)
(26.6077 -0.232733 -0.375608)
(26.9864 -0.185868 -0.78937)
(26.7177 -0.130582 -0.943833)
(27.4679 -0.125505 -1.88566)
(27.5508 0.10673 -2.82929)
(28.0541 0.175462 -3.93929)
(26.7104 0.451932 -5.95173)
(30.5519 0.0485604 -7.40535)
(27.3107 -0.345309 -6.99804)
(28.0236 0.0674185 -7.96299)
(27.8635 1.55305 -13.0361)
(40.0012 0.000742975 0.0408427)
(39.9956 0.00135443 0.114699)
(39.9861 0.00279879 0.199269)
(39.9659 0.00318432 0.283969)
(39.9195 0.00243759 0.369968)
(39.8479 0.00137315 0.458178)
(39.7574 0.000508806 0.549177)
(39.6506 0.000123654 0.643625)
(39.5272 0.000344904 0.742086)
(39.3853 0.00115752 0.845041)
(39.2228 0.00242516 0.952921)
(39.0374 0.00393264 1.06643)
(38.8265 0.00533802 1.18687)
(38.5865 0.00645176 1.31705)
(38.3149 0.00686114 1.46168)
(38.0045 0.00637361 1.63049)
(37.6818 0.00489198 1.83313)
(37.2353 0.00972214 1.97679)
(36.5351 0.00781983 1.99568)
(36.1004 0.000350054 2.06453)
(35.698 0.00257835 2.19548)
(35.2858 0.00357885 2.34736)
(34.8203 -0.00133032 2.57636)
(34.2381 -0.00365555 2.81762)
(33.5566 -0.00827189 3.06131)
(32.7694 -0.00958274 3.2998)
(31.7247 0.00142053 3.66835)
(30.4652 0.00882927 4.31681)
(28.9698 0.00464908 4.93354)
(27.3214 0.0091966 4.8965)
(25.9264 0.0279064 3.88284)
(24.8756 0.0652678 2.24265)
(24.0013 0.135707 0.209748)
(23.4395 0.26786 -2.38958)
(23.9037 0.388371 -4.39764)
(22.8113 -0.117222 -2.67365)
(23.1393 -0.920613 1.6711)
(23.2742 -1.28515 3.18605)
(23.395 -1.39439 3.6017)
(22.6239 -0.259967 1.1408)
(21.7489 -0.00819707 0.220088)
(22.2725 -0.280473 1.11683)
(21.9479 -0.309422 1.27956)
(22.2731 -0.240785 0.859495)
(22.4174 -0.125202 0.340117)
(21.9776 0.0916355 -0.0932653)
(22.0603 0.566408 -1.11247)
(21.4964 0.569311 -1.96913)
(26.4342 0.0918492 -3.85247)
(18.7542 0.635243 -5.5498)
(15.7501 0.12811 -6.13186)
(13.4311 0.204704 -6.51469)
(24.1662 0.312999 -8.74336)
(13.1648 -0.248143 -9.45144)
(40.0023 0.00074297 0.040818)
(39.9969 0.00135443 0.114687)
(39.9867 0.00279876 0.199213)
(39.9639 0.00318426 0.283903)
(39.9159 0.00243751 0.369948)
(39.8441 0.001373 0.45823)
(39.7542 0.000508548 0.549299)
(39.6485 0.000123312 0.643802)
(39.5262 0.000344554 0.742294)
(39.3854 0.00115754 0.845243)
(39.2235 0.00242501 0.9531)
(39.0382 0.00393472 1.06656)
(38.8267 0.00534156 1.18695)
(38.5859 0.00646132 1.31702)
(38.3119 0.0068664 1.46144)
(38.001 0.00634183 1.62962)
(37.6666 0.00499662 1.83226)
(37.2375 0.0086999 1.99591)
(36.6088 0.00963834 2.00245)
(36.1385 0.000147352 2.04358)
(35.728 0.00254565 2.16044)
(35.3068 0.00431689 2.31248)
(34.7787 -0.00216053 2.53773)
(34.1751 -0.0038677 2.80164)
(33.5228 -0.00854165 3.04349)
(32.6761 -0.0102905 3.3409)
(31.6188 0.00217137 3.83488)
(30.4236 0.0102905 4.5001)
(29.0054 0.00572784 5.04545)
(27.4536 0.00843017 4.99309)
(26.1222 0.0251984 4.01377)
(25.1379 0.060866 2.47614)
(24.4541 0.122812 0.715707)
(24.2052 0.269962 -1.43297)
(24.9271 0.58621 -3.66134)
(26.2228 0.241217 -3.95981)
(27.5008 0.191769 -3.52623)
(27.5922 0.211836 -2.75178)
(26.9918 0.0353884 -1.81604)
(26.3379 0.0719194 -1.33354)
(23.9863 0.130333 -0.531592)
(23.6426 -0.100174 -0.0312213)
(23.102 0.0205959 -0.0483712)
(23.4765 -0.00908973 -0.388941)
(23.6759 0.0952385 -0.773548)
(23.6903 0.327137 -1.3262)
(23.7079 0.757079 -2.05312)
(22.9522 0.823296 -2.69054)
(22.307 0.838457 -3.26345)
(19.4759 1.70892 -5.08986)
(25.9541 1.03331 -5.94249)
(17.8769 0.629974 -4.64261)
(22.4284 0.672174 -4.262)
(19.6972 1.18396 -6.66329)
(40.0012 0.00072295 0.04858)
(39.996 0.00133092 0.136264)
(39.9873 0.00274438 0.237052)
(39.9684 0.00312885 0.338236)
(39.9244 0.00242299 0.441554)
(39.8563 0.00141344 0.548267)
(39.7702 0.000599775 0.659041)
(39.6686 0.000251869 0.774551)
(39.551 0.000488697 0.895304)
(39.4156 0.00128858 1.02171)
(39.2603 0.00251711 1.15419)
(39.0835 0.00396409 1.29344)
(38.8833 0.00531411 1.44076)
(38.6585 0.00639512 1.59895)
(38.4074 0.00652877 1.77147)
(38.131 0.00695815 1.96578)
(37.8315 0.00686022 2.18417)
(37.5505 0.0184629 2.44641)
(36.9718 0.0187995 2.56505)
(36.47 0.00563739 2.61355)
(35.9168 0.00268363 2.69458)
(35.3739 0.00169508 2.82012)
(34.7613 -0.00716579 3.13428)
(34.1777 -0.0142649 3.48819)
(33.4675 -0.0246492 3.87466)
(32.5805 -0.0265236 4.31847)
(31.3755 -0.00776962 4.88807)
(30.035 0.0127084 5.70531)
(28.6659 0.0189832 6.39811)
(27.2042 0.0292508 6.29451)
(25.7656 0.0553668 5.12331)
(24.3308 0.117862 3.316)
(22.5943 0.260475 1.1508)
(20.9652 0.667704 -1.60214)
(19.5578 1.23673 -2.81919)
(-1.46143 0.034005 1.24003)
(8.63851 -0.183724 1.79876)
(4.77721 -0.391545 1.22)
(7.49029 -1.74646 4.14858)
(11.5875 -0.552435 -0.0499579)
(15.1797 -0.13347 0.452362)
(15.1524 -0.496467 1.98776)
(16.1582 -0.36017 1.53985)
(16.7223 -0.110369 0.764533)
(16.8319 0.224804 0.238729)
(15.4185 0.244108 0.334784)
(14.2652 0.499011 0.283256)
(14.221 0.144492 -1.32682)
(14.886 -0.352055 -3.48045)
(14.4997 -0.425888 -5.5222)
(12.1631 -0.969767 -7.07819)
(16.5525 0.458502 -9.26604)
(17.2802 1.80936 -10.5659)
(-1.63582 0.340857 -10.614)
(40.0023 0.000722943 0.0485529)
(39.9972 0.00133093 0.13626)
(39.9879 0.00274432 0.236996)
(39.9665 0.00312895 0.33818)
(39.9209 0.00242242 0.441567)
(39.8527 0.00141152 0.548376)
(39.7672 0.00059732 0.65924)
(39.6666 0.000249324 0.774812)
(39.5501 0.000486209 0.895579)
(39.4156 0.00128648 1.02194)
(39.261 0.00251502 1.15431)
(39.0842 0.00396338 1.29341)
(38.8835 0.00531711 1.44065)
(38.6576 0.00640407 1.59863)
(38.4051 0.0065363 1.77143)
(38.1277 0.00684913 1.96548)
(37.8372 0.0073315 2.18669)
(37.5532 0.0161948 2.43397)
(37.1999 0.0254188 2.56954)
(36.6853 0.00288409 2.62063)
(36.0265 0.00250144 2.73151)
(35.4291 0.00268212 2.88737)
(34.7783 -0.00864008 3.1404)
(34.1274 -0.0146916 3.46525)
(33.3798 -0.0255069 3.84358)
(32.4307 -0.0262801 4.33054)
(31.284 -0.00726515 4.97421)
(30.0927 0.0114191 5.78848)
(28.8041 0.0164164 6.41678)
(27.4057 0.0259778 6.33955)
(26.0568 0.0516804 5.24188)
(24.8178 0.110318 3.56449)
(23.6537 0.244315 1.68025)
(22.8064 0.819584 -0.585483)
(23.8082 3.02606 -3.09036)
(24.7498 3.75269 -4.46525)
(24.939 3.28616 -3.14174)
(23.9 2.9087 -1.70847)
(22.3679 2.54484 -0.6122)
(21.5332 2.11602 0.656117)
(18.9289 0.88043 1.36484)
(19.0837 0.916136 1.04005)
(19.0038 0.82772 0.904566)
(19.0376 0.87371 0.557665)
(19.0895 1.02325 -0.0435986)
(18.946 1.02299 -0.646536)
(18.3607 1.36888 -1.09865)
(17.1458 1.42684 -1.46308)
(15.4954 1.36975 -2.1127)
(14.1601 1.51701 -3.73689)
(12.7622 1.23789 -4.46158)
(13.0374 2.34197 -5.3006)
(21.2697 3.75824 -5.29972)
(17.0099 3.34896 -8.79813)
(40.0012 0.000716503 0.0560257)
(39.9967 0.00135591 0.156914)
(39.9892 0.00275049 0.273464)
(39.9723 0.00312955 0.390629)
(39.9312 0.00244095 0.51045)
(39.8672 0.00145889 0.634249)
(39.7858 0.000670951 0.762638)
(39.6895 0.000337315 0.896338)
(39.5779 0.00056829 1.03595)
(39.449 0.00133593 1.182)
(39.3011 0.00250561 1.33508)
(39.1327 0.00387324 1.49601)
(38.943 0.00518269 1.66608)
(38.7315 0.00613687 1.84758)
(38.4978 0.00654171 2.04266)
(38.2439 0.00666506 2.25632)
(37.9713 0.00649004 2.48684)
(37.6988 0.00914267 2.74505)
(37.3978 0.0100627 2.97824)
(37.0349 0.0100019 3.13796)
(36.5627 0.00756805 3.31363)
(35.9605 0.011268 3.54839)
(35.1338 -0.00160584 3.82346)
(34.3749 -0.0256151 4.20702)
(33.6546 -0.0410407 4.75355)
(32.7922 -0.0491483 5.44784)
(31.6273 -0.0120949 6.2106)
(30.2881 0.033021 7.02542)
(28.9897 0.0404902 7.70433)
(27.5617 0.0445242 7.67312)
(25.9612 0.0824528 6.66831)
(24.1376 0.163633 5.10027)
(21.5902 0.388673 3.5591)
(19.6347 1.09788 2.45107)
(-1.49531 0.595493 1.12906)
(-2.45421 0.00443078 1.19971)
(-2.20928 -0.483152 1.33296)
(-3.11984 -0.0900432 -2.79614)
(-0.480953 -1.49604 -0.685554)
(-2.59562 -2.87655 -4.84549)
(6.80779 -1.81231 -2.39414)
(6.50864 -0.581294 -0.744284)
(6.23128 0.287727 -0.226465)
(6.30191 0.672719 -0.168459)
(7.19488 0.342075 -0.0783681)
(8.01653 -0.5289 -0.319513)
(9.66819 -1.08183 -1.12633)
(12.8248 -1.20673 -3.44627)
(14.4244 -1.15898 -5.71187)
(15.7249 -1.05361 -7.2643)
(14.0094 -1.0291 -8.36332)
(14.3348 0.840056 -7.74156)
(5.45461 1.60068 -6.10684)
(-2.04915 -1.1033 -6.36317)
(40.0023 0.000716495 0.0559939)
(39.9978 0.00135591 0.156894)
(39.9897 0.00275043 0.273388)
(39.9704 0.00312966 0.390552)
(39.9279 0.00244039 0.510447)
(39.8636 0.00145695 0.634348)
(39.7828 0.000668458 0.762824)
(39.6876 0.000334678 0.896571)
(39.577 0.000565792 1.03617)
(39.449 0.00133327 1.18213)
(39.3016 0.00250426 1.33507)
(39.1332 0.00387378 1.49583)
(38.943 0.0051837 1.66581)
(38.7306 0.00613959 1.84718)
(38.496 0.00655005 2.04284)
(38.2412 0.00665908 2.25589)
(37.9718 0.00654725 2.48694)
(37.697 0.00911202 2.73227)
(37.412 0.00977982 2.96575)
(37.0684 0.00957292 3.1722)
(36.6009 0.00860323 3.3758)
(36.0502 0.00959845 3.60562)
(35.3464 0.00307811 3.81922)
(34.3729 -0.0247325 4.24285)
(33.5784 -0.0421905 4.69257)
(32.6303 -0.0494226 5.37303)
(31.4566 -0.0102696 6.13485)
(30.3411 0.0283325 7.03049)
(29.1825 0.0359868 7.75518)
(27.845 0.0392409 7.75895)
(26.3624 0.0783722 6.73787)
(24.8292 0.155868 5.19374)
(23.2278 0.4203 3.66592)
(21.8983 1.77472 2.49838)
(24.2754 5.16007 2.37658)
(-1.41613 -0.0212231 1.23435)
(6.15895 0.29504 0.113965)
(7.49176 2.10057 0.332354)
(5.50134 2.04355 2.28875)
(2.79957 0.970963 3.85541)
(4.78632 1.32651 1.7012)
(6.62197 1.8766 0.908001)
(8.03474 1.95861 1.8097)
(9.00598 2.15089 1.87228)
(9.64604 2.1066 1.60051)
(9.31629 1.69513 1.49213)
(9.46016 1.34821 1.09871)
(10.6934 1.29271 -0.291352)
(11.6958 1.3704 -2.17188)
(12.6448 1.39589 -4.11145)
(12.5961 1.28013 -5.66466)
(15.5603 2.8791 -6.34656)
(20.808 3.54481 -7.47575)
(17.3334 2.98881 -10.4732)
(40.0012 0.000691911 0.0630635)
(39.9973 0.00131684 0.176316)
(39.9914 0.0026759 0.307751)
(39.9768 0.00305385 0.43983)
(39.9392 0.00241153 0.574989)
(39.8798 0.00148747 0.714745)
(39.8039 0.000745346 0.859779)
(39.7139 0.00043242 1.01098)
(39.6093 0.000650419 1.16909)
(39.4883 0.0013685 1.33479)
(39.349 0.00245924 1.50875)
(39.1902 0.00374103 1.69179)
(39.0116 0.00499485 1.88493)
(38.8129 0.00596778 2.08949)
(38.5943 0.0065957 2.30689)
(38.3552 0.0065921 2.53819)
(38.0978 0.00689514 2.7823)
(37.825 0.00700052 3.0379)
(37.5365 0.00681952 3.2913)
(37.2167 0.0056274 3.5461)
(36.8384 0.00382673 3.83086)
(36.3904 0.00278308 4.19905)
(35.8554 0.0116461 4.61026)
(35.0601 -0.00348169 4.99658)
(34.1388 -0.0394751 5.65684)
(33.4186 -0.0610385 6.50241)
(32.5617 -0.0245852 7.32186)
(31.4251 0.0365139 8.17087)
(30.1032 0.0674367 9.00553)
(28.5228 0.0671661 9.18512)
(26.8938 0.0761524 8.17142)
(25.1954 0.112283 6.76893)
(23.2398 0.237101 6.07358)
(21.831 0.905943 7.57776)
(17.7885 1.70597 12.8031)
(-2.16985 -0.00812406 1.23121)
(1.0593 -0.624266 -0.353054)
(1.11938 -1.71595 0.376519)
(-0.238178 -2.1649 -0.611438)
(2.00946 -2.80489 -2.6082)
(3.88635 -3.22323 -4.53125)
(5.82421 -2.96076 -4.46901)
(7.97748 -2.09363 -4.09738)
(9.99724 -1.31302 -3.50706)
(12.2293 -1.07676 -3.47486)
(14.1623 -1.48013 -4.00486)
(15.9555 -1.75445 -4.94045)
(17.6501 -1.66564 -6.18674)
(18.9434 -1.32846 -7.33648)
(19.5456 -0.982191 -8.04258)
(19.5925 -0.791619 -8.45377)
(17.7825 -0.506177 -6.99686)
(23.8402 -0.0707352 -7.07388)
(23.1455 1.34868 -11.3748)
(40.0022 0.000691904 0.0630326)
(39.9984 0.00131684 0.1763)
(39.9919 0.00267588 0.307677)
(39.975 0.00305381 0.439758)
(39.936 0.00241149 0.574996)
(39.8764 0.0014873 0.714854)
(39.801 0.000745334 0.859973)
(39.712 0.000431469 1.01121)
(39.6084 0.000647755 1.1693)
(39.4882 0.00136491 1.3349)
(39.3494 0.0024566 1.50872)
(39.1907 0.00374045 1.69159)
(39.0117 0.00499502 1.88461)
(38.8123 0.00596793 2.08919)
(38.5926 0.00659582 2.30676)
(38.3532 0.00659386 2.53816)
(38.0959 0.00688417 2.78241)
(37.8229 0.00705592 3.03488)
(37.5312 0.00680386 3.28826)
(37.2087 0.00552198 3.54482)
(36.8336 0.00389509 3.83763)
(36.3933 0.00255526 4.19814)
(35.9201 0.0110953 4.68076)
(35.1596 -0.000906166 5.06657)
(34.1989 -0.0446054 5.59304)
(33.312 -0.064585 6.34923)
(32.2558 -0.0284945 7.19343)
(31.121 0.0267043 8.14534)
(30.1399 0.0568841 8.94918)
(28.9771 0.048574 9.17646)
(27.3967 0.0687425 8.34869)
(25.7017 0.10993 6.85478)
(24.1218 0.250985 5.79004)
(22.2526 1.32621 6.37531)
(24.8005 4.19545 10.4971)
(21.3776 3.32862 10.1192)
(18.8175 1.98065 7.19122)
(13.9089 1.52434 4.56544)
(8.58653 1.22894 3.11962)
(6.5535 0.271853 1.60505)
(3.3261 -0.156044 -0.108672)
(-2.04458 1.17881 2.00321)
(-1.33552 2.18 4.29221)
(0.91672 2.75184 4.89829)
(4.29427 2.6331 4.01904)
(7.25719 1.63932 2.27985)
(10.5598 0.826633 0.223186)
(13.5582 0.586245 -2.17073)
(15.6958 0.666588 -4.31736)
(16.768 0.747984 -5.9441)
(17.1948 0.662465 -7.31111)
(16.8653 0.728049 -7.68797)
(22.2703 0.981131 -8.44474)
(20.9774 2.08023 -10.9652)
(40.0013 0.00068651 0.0696121)
(39.9982 0.00134632 0.194285)
(39.9938 0.002685 0.339575)
(39.982 0.00306006 0.485508)
(39.9485 0.0024387 0.634988)
(39.8943 0.00154346 0.789762)
(39.8247 0.000824144 0.950577)
(39.742 0.000518003 1.11846)
(39.6456 0.000719763 1.2943)
(39.5335 0.00139506 1.47886)
(39.404 0.00241998 1.67286)
(39.2559 0.00362598 1.87704)
(39.0888 0.00480885 2.09206)
(38.9026 0.0057786 2.3185)
(38.6965 0.00634618 2.55671)
(38.4697 0.0065649 2.80598)
(38.2226 0.00652277 3.06595)
(37.9558 0.00619713 3.33247)
(37.671 0.0060248 3.60462)
(37.3687 0.00527437 3.88626)
(37.0469 0.00463976 4.20203)
(36.7097 0.00674385 4.59814)
(36.3533 0.00488509 5.12151)
(35.9556 0.0556918 5.80397)
(34.9728 0.0269721 6.52436)
(34.2378 -0.011102 7.3638)
(33.6681 -0.0313592 8.13796)
(32.9229 -0.03177 9.26232)
(32.0242 0.0261035 10.32)
(30.9079 0.0985731 10.8832)
(29.2313 0.119842 9.98964)
(26.7136 0.146937 8.42616)
(24.479 0.177587 7.57332)
(22.3208 0.412847 8.56442)
(24.3613 1.20472 14.5713)
(20.4084 0.626337 12.4292)
(16.3873 -0.690628 7.51322)
(13.7601 -1.87123 3.51435)
(11.8367 -2.44108 0.600784)
(11.9987 -2.82861 -1.37731)
(13.4308 -3.16842 -2.42062)
(15.4408 -3.08389 -3.37185)
(17.3001 -2.5069 -4.0098)
(18.5888 -1.92581 -4.2589)
(19.9175 -1.68441 -4.70468)
(21.2256 -1.69663 -5.44723)
(22.0305 -1.65901 -6.16965)
(22.3173 -1.47394 -6.85003)
(22.4529 -1.04605 -7.47988)
(22.4414 -0.599424 -8.10871)
(22.2374 -0.295595 -8.70851)
(20.6243 0.121499 -9.19348)
(24.2577 0.79104 -10.1734)
(19.1578 2.87901 -13.7071)
(40.0023 0.000686503 0.0695803)
(39.9993 0.00134633 0.194252)
(39.9944 0.00268499 0.339485)
(39.9802 0.00306003 0.485419)
(39.9453 0.00243867 0.634977)
(39.891 0.00154335 0.789854)
(39.8219 0.000824252 0.95075)
(39.7401 0.000517246 1.11867)
(39.6446 0.000717207 1.29447)
(39.5333 0.00139179 1.47893)
(39.4043 0.00241719 1.6728)
(39.2563 0.00362125 1.87681)
(39.0889 0.00480418 2.09169)
(38.902 0.00577732 2.3181)
(38.695 0.00634097 2.55628)
(38.4676 0.00655612 2.80586)
(38.2199 0.0065129 3.06525)
(37.9531 0.00619734 3.33167)
(37.6676 0.0060464 3.60321)
(37.3638 0.00523454 3.88555)
(37.0428 0.00480971 4.20379)
(36.7061 0.00501353 4.59642)
(36.3907 0.0110729 5.13066)
(36.0318 0.0385378 5.77282)
(35.622 0.0550588 6.41952)
(34.5122 -0.0217192 7.23287)
(33.8395 -0.0896381 8.2374)
(32.6237 -0.0416409 9.20676)
(31.6023 0.033063 9.97817)
(30.7026 0.0780919 10.5209)
(29.565 0.120369 10.2919)
(27.7868 0.123856 8.91758)
(25.466 0.192582 7.66308)
(23.391 0.313844 8.23281)
(23.8222 1.58541 11.2431)
(26.1853 2.01438 11.9996)
(26.4177 1.69246 10.239)
(24.2039 1.2238 7.73973)
(21.7801 1.0059 5.52284)
(20.2092 0.542716 3.66574)
(18.3338 -0.0361676 1.71764)
(16.0189 -0.0869945 0.464734)
(16.0109 0.383747 -0.10319)
(18.1927 0.678769 -1.29728)
(20.056 0.519466 -2.64901)
(20.8964 0.0543216 -3.76087)
(21.2825 -0.2088 -4.60992)
(21.5682 -0.188555 -5.53617)
(21.7632 0.0563095 -6.60809)
(21.7796 0.261553 -7.73309)
(21.8294 0.34212 -8.61758)
(21.6065 0.58323 -9.42776)
(25.8805 0.964635 -10.2469)
(24.3962 3.1639 -12.9129)
(40.0013 0.000661084 0.0755688)
(39.9989 0.00129019 0.210581)
(39.9966 0.00259473 0.368545)
(39.9878 0.00296847 0.527129)
(39.9589 0.00239386 0.689734)
(39.9107 0.0015566 0.858357)
(39.8483 0.000879495 1.0338)
(39.7739 0.000585716 1.21725)
(39.6867 0.000764038 1.40972)
(39.5847 0.00138205 1.61212)
(39.4661 0.00232863 1.82521)
(39.3295 0.00344305 2.04963)
(39.1743 0.00455641 2.28577)
(38.9998 0.00548391 2.5336)
(38.8048 0.00607613 2.79245)
(38.5881 0.00638021 3.06108)
(38.3486 0.00607619 3.3372)
(38.0888 0.00610641 3.61773)
(37.8128 0.00519038 3.90176)
(37.5311 0.00525843 4.18954)
(37.2631 0.00439675 4.50296)
(37.0266 0.00688673 4.86618)
(36.8569 -0.00244896 5.38628)
(36.7051 0.00673627 6.13219)
(36.427 0.0811265 7.09797)
(35.4939 0.0721152 7.98541)
(35.0513 -0.00192851 8.96525)
(34.2464 -0.0261205 10.1288)
(33.4992 -0.0289913 11.1111)
(32.8074 0.00510328 11.8701)
(31.8784 0.0348821 12.0957)
(30.1746 0.0747503 11.5703)
(27.5297 0.152485 10.1307)
(24.807 0.11585 9.47331)
(24.4763 0.421062 11.0872)
(25.6014 0.449246 11.3554)
(24.9125 -0.0807598 9.25207)
(23.2337 -0.742465 6.16831)
(21.9927 -1.25061 3.34648)
(21.438 -1.565 0.999761)