/*--------------------------------*- C++ -*----------------------------------*\
| =========                 |                                                 |
| \\      /  F ield         | OpenFOAM: The Open Source CFD Toolbox           |
|  \\    /   O peration     | Version:  4.1                                   |
|   \\  /    A nd           | Web:      www.OpenFOAM.org                      |
|    \\/     M anipulation  |                                                 |
\*---------------------------------------------------------------------------*/
FoamFile
{
    version     2.0;
    format      ascii;
    class       volScalarField;
    location    "74";
    object      p;
}
// * * * * * * * * * * * * * * * * * * * * * * * * * * * * * * * * * * * * * //

dimensions      [0 2 -2 0 0 0 0];

internalField   nonuniform List<scalar> 
4432
(
101006
101006
101008
101010
101013
101016
101020
101025
101031
101037
101044
101052
101059
101068
101076
101084
101091
101096
101100
101109
101124
101141
101160
101180
101203
101227
101249
101267
101280
101290
101299
101305
101314
101326
101337
101340
101340
101344
101348
101351
101353
101353
101355
101357
101357
101355
101348
101346
101346
101337
101319
101309
101307
101308
101006
101006
101008
101010
101013
101016
101020
101025
101031
101037
101044
101052
101059
101068
101076
101084
101091
101095
101100
101109
101124
101142
101161
101182
101204
101228
101250
101267
101280
101292
101301
101308
101316
101325
101335
101339
101340
101343
101348
101352
101354
101354
101354
101355
101356
101358
101351
101342
101341
101336
101322
101312
101302
101305
101005
101005
101006
101008
101010
101014
101018
101022
101028
101034
101041
101049
101057
101067
101078
101091
101107
101126
101139
101148
101159
101174
101190
101205
101219
101234
101250
101266
101282
101296
101307
101314
101319
101321
101323
101323
101326
101335
101344
101351
101351
101347
101350
101355
101357
101356
101353
101349
101345
101339
101332
101319
101271
101313
101005
101005
101006
101008
101010
101014
101018
101022
101028
101034
101041
101049
101057
101067
101078
101090
101107
101126
101140
101149
101159
101173
101188
101202
101217
101232
101248
101264
101280
101293
101303
101308
101313
101321
101325
101326
101329
101336
101345
101352
101352
101349
101351
101355
101357
101356
101353
101349
101346
101342
101332
101317
101263
101314
101003
101003
101004
101006
101009
101013
101017
101021
101027
101033
101040
101048
101056
101066
101077
101089
101103
101116
101127
101140
101155
101171
101186
101201
101216
101233
101251
101269
101287
101303
101313
101321
101330
101336
101333
101325
101328
101340
101353
101361
101356
101349
101354
101361
101363
101362
101358
101350
101340
101331
101328
101323
101316
101326
101003
101003
101004
101006
101009
101013
101017
101021
101027
101033
101040
101048
101056
101066
101076
101089
101103
101116
101127
101140
101155
101170
101185
101199
101214
101231
101249
101267
101285
101301
101312
101317
101323
101331
101334
101330
101332
101341
101351
101359
101357
101351
101355
101361
101363
101361
101358
101352
101342
101333
101329
101320
101312
101335
101001
101001
101002
101004
101007
101010
101014
101019
101024
101030
101037
101045
101053
101062
101073
101084
101096
101108
101120
101134
101151
101166
101181
101196
101213
101233
101255
101275
101295
101314
101327
101340
101357
101359
101344
101319
101318
101335
101353
101365
101356
101348
101357
101366
101369
101366
101363
101353
101340
101325
101319
101323
101322
101311
101001
101001
101002
101004
101007
101010
101014
101019
101024
101030
101037
101045
101053
101062
101072
101084
101096
101108
101120
101134
101150
101166
101181
101195
101213
101233
101254
101274
101296
101314
101327
101338
101352
101355
101347
101332
101331
101342
101355
101362
101355
101350
101357
101365
101369
101367
101361
101352
101338
101327
101326
101325
101317
101308
100998
100998
100999
101001
101004
101007
101011
101015
101021
101027
101034
101041
101049
101058
101068
101079
101091
101103
101114
101126
101140
101156
101172
101189
101208
101233
101259
101283
101308
101329
101345
101363
101381
101386
101410
101293
101300
101328
101353
101379
101370
101353
101365
101373
101375
101372
101364
101357
101349
101335
101326
101316
101316
101332
100998
100998
100999
101001
101004
101007
101011
101015
101021
101027
101034
101041
101049
101058
101068
101079
101091
101103
101114
101125
101140
101156
101172
101189
101210
101234
101259
101284
101310
101332
101347
101362
101377
101378
101370
101336
101324
101338
101360
101378
101373
101359
101364
101371
101374
101373
101367
101358
101346
101334
101326
101324
101310
101325
100995
100995
100996
100998
101000
101004
101007
101011
101017
101022
101029
101036
101044
101052
101062
101072
101083
101094
101105
101117
101131
101146
101161
101178
101198
101225
101253
101281
101309
101334
101352
101372
101399
101513
101720
101395
101293
101303
101329
101337
101341
101376
101384
101383
101381
101379
101372
101365
101358
101347
101333
101314
101311
101332
100995
100995
100996
100998
101000
101004
101007
101011
101017
101022
101029
101036
101044
101052
101062
101072
101083
101094
101105
101117
101131
101146
101162
101179
101200
101226
101253
101280
101309
101334
101351
101364
101378
101414
101445
101359
101309
101320
101348
101373
101381
101371
101375
101379
101380
101377
101373
101366
101357
101344
101332
101318
101318
101336
100991
100991
100992
100994
100996
100999
101003
101007
101012
101017
101023
101030
101038
101046
101055
101065
101075
101086
101097
101108
101121
101136
101152
101166
101182
101207
101237
101263
101287
101311
101337
101368
101434
101715
101613
101553
101334
101332
101347
101349
101355
101382
101392
101391
101389
101387
101381
101373
101364
101355
101342
101321
101304
101321
100991
100991
100992
100994
100996
100999
101003
101007
101012
101017
101023
101030
101038
101046
101055
101065
101075
101086
101097
101108
101122
101137
101152
101167
101184
101209
101235
101259
101285
101311
101332
101353
101383
101452
101524
101421
101307
101313
101340
101354
101365
101377
101386
101389
101387
101383
101376
101369
101363
101353
101338
101321
101315
101320
100986
100986
100987
100989
100991
100994
100997
101001
101006
101011
101017
101024
101031
101039
101047
101056
101067
101077
101088
101099
101111
101125
101138
101151
101161
101179
101207
101229
101248
101264
101285
101315
101345
101424
101465
101417
101347
101344
101350
101355
101364
101377
101388
101391
101389
101386
101379
101371
101363
101357
101348
101329
101306
101317
100986
100986
100987
100989
100991
100994
100997
101001
101006
101011
101017
101024
101031
101038
101047
101056
101067
101077
101088
101099
101111
101124
101138
101152
101164
101183
101205
101225
101245
101266
101284
101309
101346
101387
101430
101383
101333
101335
101349
101360
101370
101379
101386
101389
101389
101384
101375
101367
101362
101356
101345
101325
101308
101319
100981
100981
100982
100984
100986
100988
100992
100995
100999
101004
101010
101016
101023
101030
101039
101048
101057
101068
101078
101089
101100
101111
101121
101131
101139
101147
101164
101185
101207
101228
101249
101274
101310
101345
101380
101358
101340
101343
101350
101356
101366
101377
101388
101393
101391
101384
101376
101368
101363
101360
101354
101336
101316
101321
100981
100981
100982
100984
100986
100988
100991
100995
100999
101005
101010
101016
101023
101030
101039
101048
101057
101068
101078
101089
101100
101111
101121
101130
101139
101149
101165
101185
101204
101225
101247
101275
101312
101346
101373
101368
101355
101353
101359
101368
101377
101383
101388
101391
101392
101386
101376
101368
101364
101361
101352
101332
101315
101326
100975
100976
100976
100978
100980
100982
100985
100988
100992
100997
101002
101008
101014
101021
101029
101038
101048
101058
101068
101079
101088
101096
101103
101108
101110
101111
101122
101145
101173
101199
101225
101256
101295
101330
101366
101374
101373
101372
101375
101380
101388
101395
101401
101405
101402
101392
101380
101370
101365
101365
101361
101347
101330
101324
100975
100976
100976
100978
100980
100982
100985
100988
100992
100997
101002
101008
101014
101021
101029
101038
101048
101058
101068
101079
101088
101096
101102
101106
101108
101111
101124
101147
101172
101198
101225
101257
101294
101333
101365
101378
101380
101383
101390
101396
101401
101403
101404
101405
101404
101396
101382
101372
101368
101366
101360
101346
101330
101331
100969
100970
100970
100972
100973
100975
100978
100981
100985
100989
100994
100999
101005
101011
101019
101028
101037
101047
101058
101068
101077
101084
101086
101081
101072
101067
101080
101111
101146
101179
101212
101248
101287
101328
101365
101390
101405
101417
101428
101435
101437
101435
101430
101423
101415
101404
101390
101375
101366
101364
101364
101353
101329
101305
100969
100970
100970
100972
100973
100975
100978
100981
100985
100989
100994
100999
101005
101011
101019
101028
101037
101047
101058
101068
101077
101084
101085
101080
101070
101066
101082
101113
101146
101178
101212
101249
101290
101330
101365
101389
101406
101421
101435
101443
101445
101440
101433
101425
101417
101406
101391
101376
101369
101367
101364
101353
101324
101312
100963
100963
100964
100965
100966
100968
100970
100973
100976
100980
100984
100989
100994
101001
101008
101016
101026
101036
101048
101059
101069
101076
101074
101057
101023
101003
101024
101069
101113
101151
101190
101232
101276
101322
101364
101401
101431
101457
101476
101483
101479
101466
101451
101437
101423
101410
101396
101380
101366
101359
101358
101352
101330
101313
100963
100963
100964
100965
100966
100968
100970
100973
100976
100980
100984
100989
100994
101001
101008
101016
101026
101036
101048
101059
101069
101075
101073
101056
101020
101002
101026
101070
101113
101151
101191
101233
101278
101322
101364
101401
101432
101458
101478
101486
101482
101469
101453
101438
101425
101412
101396
101380
101368
101363
101360
101352
101326
101327
100956
100956
100957
100958
100959
100961
100962
100965
100967
100970
100974
100978
100983
100989
100995
101003
101013
101024
101037
101052
101066
101077
101074
101041
100960
100920
100952
101017
101074
101117
101160
101207
101257
101310
101364
101415
101460
101496
101519
101524
101512
101491
101470
101452
101435
101419
101401
101382
101365
101354
101349
101344
101328
101314
100956
100956
100957
100958
100959
100961
100962
100965
100967
100970
100974
100978
100983
100989
100995
101003
101013
101024
101037
101052
101066
101076
101072
101036
100949
100916
100960
101023
101076
101118
101160
101207
101258
101311
101364
101415
101462
101498
101522
101525
101512
101492
101472
101454
101438
101420
101401
101381
101365
101356
101351
101344
101325
101313
100949
100949
100950
100950
100951
100953
100954
100956
100958
100960
100963
100967
100971
100975
100981
100989
100998
101010
101025
101044
101070
101098
101114
101057
100877
100770
100855
100967
101034
101076
101121
101173
101230
101293
101360
101427
101489
101536
101570
101572
101549
101516
101488
101467
101447
101426
101403
101382
101362
101348
101339
101335
101322
101315
100949
100949
100950
100950
100951
100952
100954
100956
100958
100960
100963
100967
100971
100975
100981
100989
100998
101010
101025
101044
101069
101097
101113
101050
100847
100775
100870
100968
101034
101078
101122
101173
101230
101293
101360
101425
101489
101536
101587
101585
101553
101514
101484
101463
101444
101423
101401
101379
101361
101348
101341
101335
101325
101311
100942
100942
100942
100943
100943
100944
100945
100946
100948
100949
100952
100954
100957
100961
100966
100972
100981
100992
101007
101030
101067
101132
101199
101201
100667
100496
100690
100916
101002
101027
101069
101126
101191
101263
101345
101429
101512
101566
101631
101637
101590
101531
101493
101470
101448
101423
101399
101378
101358
101343
101333
101328
101321
101312
100942
100942
100942
100943
100943
100944
100945
100946
100948
100949
100952
100954
100957
100961
100966
100972
100981
100992
101007
101030
101066
101130
101195
101182
100545
100600
100766
100928
101000
101033
101074
101128
101191
101262
101348
101435
101524
101550
101628
101639
101585
101524
101490
101469
101447
101422
101398
101376
101357
101342
101334
101329
101323
101310
100934
100934
100935
100935
100935
100936
100936
100937
100937
100938
100940
100941
100943
100945
100949
100953
100960
100969
100981
101000
101029
101076
101193
101472
100474
100688
100893
100964
100970
100999
101055
101124
101208
101309
101417
101532
101571
101644
101696
101634
101547
101496
101467
101440
101413
101390
101369
101351
101336
101325
101318
101315
101305
100934
100934
100935
100935
100935
100936
100936
100937
100937
100938
100940
100941
100943
100945
100949
100953
100960
100969
100981
101000
101029
101074
101189
101458
100426
100715
100904
100968
100979
101009
101060
101126
101209
101299
101427
101542
101533
101522
101668
101620
101543
101496
101465
101435
101408
101386
101367
101350
101336
101326
101320
101317
101306
100927
100927
100927
100927
100927
100927
100927
100927
100927
100927
100927
100927
100928
100928
100930
100932
100936
100940
100947
100955
100962
100959
100919
100841
100543
100571
100857
100990
100983
100950
100951
100980
101031
101112
101220
101333
101459
101494
101559
101738
101670
101573
101502
101452
101414
101385
101365
101349
101336
101324
101315
101308
101308
101298
100927
100927
100927
100927
100927
100927
100927
100927
100927
100927
100927
100927
100928
100928
100930
100932
100936
100940
100947
100955
100962
100958
100916
100831
100545
100639
100902
100996
100974
100946
100952
100983
101032
101102
101161
101329
101339
101582
101522
101539
101564
101538
101495
101450
101412
101384
101363
101348
101335
101324
101315
101309
101309
101299
100920
100920
100919
100919
100919
100918
100917
100917
100916
100915
100914
100913
100912
100911
100910
100910
100909
100909
100909
100907
100900
100881
100847
100780
100715
100729
100872
100942
100942
100928
100919
100916
100933
100994
101161
101326
101301
101518
101799
101603
101559
101528
101468
101411
101370
101346
101331
101322
101315
101309
101306
101303
101307
101297
100920
100920
100919
100919
100919
100918
100917
100917
100916
100915
100914
100913
100912
100911
100910
100910
100909
100909
100909
100907
100900
100881
100846
100780
100712
100743
100880
100939
100932
100916
100909
100911
100927
100967
101020
101243
101048
101448
101907
100947
101364
101502
101471
101417
101374
101347
101332
101322
101314
101309
101305
101303
101306
101297
100912
100912
100912
100911
100911
100910
100908
100907
100905
100903
100901
100899
100896
100893
100890
100886
100882
100878
100872
100863
100851
100831
100805
100767
100723
100717
100763
100811
100838
100850
100851
100842
100829
100831
100939
101200
102230
101440
100578
100886
101371
101482
101427
101365
101324
101305
101296
101292
101290
101290
101291
101294
101305
101298
100912
100912
100912
100911
100911
100910
100908
100907
100905
100903
100901
100899
100896
100893
100890
100886
100882
100878
100872
100863
100851
100831
100805
100767
100724
100723
100768
100810
100831
100839
100840
100835
100830
100761
100911
101231
101730
99708.1
100175
99652.8
100392
101310
101422
101373
101328
101306
101297
101292
101290
101289
101291
101295
101305
101300
100905
100905
100904
100904
100903
100901
100899
100897
100894
100892
100888
100884
100880
100875
100869
100863
100856
100847
100837
100824
100807
100785
100758
100725
100691
100673
100683
100706
100723
100736
100742
100741
100648
100706
100774
99810.3
99198.9
98846.4
98940.6
99511.4
100402
101224
101344
101280
101255
101251
101253
101256
101261
101266
101271
101277
101290
101287
100905
100905
100904
100904
100903
100901
100899
100897
100894
100892
100888
100884
100880
100875
100869
100863
100856
100847
100837
100824
100807
100785
100758
100726
100692
100676
100685
100706
100720
100730
100739
100745
100761
100789
100726
100330
102318
99466.2
99106.4
99157.5
99797.3
100734
101262
101286
101252
101246
101251
101257
101261
101266
101270
101277
101295
101297
100898
100898
100897
100896
100895
100893
100891
100888
100884
100880
100876
100870
100864
100857
100849
100840
100830
100818
100803
100786
100765
100740
100711
100678
100645
100621
100610
100608
100606
100613
100623
100664
100424
100646
101105
100561
98743.4
98638.6
99119.1
99546.5
100064
100738
101104
101146
101170
101189
101205
101220
101234
101247
101257
101264
101280
101292
100898
100898
100897
100896
100895
100893
100890
100888
100884
100880
100876
100870
100864
100857
100849
100840
100830
100818
100803
100786
100765
100740
100711
100678
100645
100621
100610
100607
100604
100607
100615
100670
100637
100708
101005
99973.3
100122
99047.8
99317
99663.1
100222
100729
100967
101085
101159
101188
101204
101221
101236
101247
101255
101264
101277
101281
100892
100892
100891
100889
100888
100885
100882
100879
100874
100869
100864
100857
100849
100840
100830
100818
100805
100790
100771
100750
100725
100696
100663
100626
100588
100553
100523
100498
100479
100483
100518
100783
100573
99693.4
99824.9
99658.1
98779.3
98886.5
99378.6
99812.9
100112
100367
100885
101025
101097
101132
101159
101185
101211
101232
101248
101259
101283
101297
100892
100892
100891
100889
100888
100885
100882
100879
100874
100869
100864
100857
100849
100840
100830
100818
100805
100790
100771
100750
100725
100696
100663
100626
100588
100552
100523
100498
100474
100459
100437
100502
100750
99955.9
96416.7
97057.5
98415.7
98872.9
99457.3
99933
100320
100502
100753
100975
101092
101134
101160
101186
101211
101232
101247
101257
101272
101289
100886
100886
100885
100883
100881
100878
100875
100870
100865
100859
100852
100844
100835
100824
100812
100798
100782
100763
100741
100716
100687
100653
100615
100571
100524
100475
100425
100375
100329
100312
100413
100629
100882
99848.8
98403.9
98276.8
98620.1
99065.8
99410.2
99621
99878.7
100121
100572
100921
101040
101083
101115
101150
101185
101214
101236
101250
101272
101281
100886
100886
100885
100883
100881
100878
100874
100870
100865
100859
100852
100844
100835
100824
100812
100798
100782
100763
100741
100716
100687
100653
100614
100571
100524
100475
100425
100375
100320
100280
100209
100470
100644
99778
97335.5
97858.3
98590.5
99110
99447.3
99653.9
99969.6
100229
100543
100886
101032
101081
101116
101150
101185
101214
101236
101250
101272
101289
100881
100880
100879
100877
100875
100872
100867
100863
100857
100850
100842
100833
100822
100810
100795
100779
100760
100739
100714
100685
100651
100612
100567
100516
100458
100393
100321
100231
100139
99934
100199
100207
100538
92698.4
94683.8
97494.7
98738
99346
99409.1
99325.4
99565.5
99996.8
100472
100805
100950
101019
101067
101113
101159
101197
101230
101248
101267
101283
100881
100880
100879
100877
100875
100872
100867
100863
100857
100850
100842
100833
100822
100810
100795
100779
100760
100739
100714
100684
100651
100612
100567
100516
100458
100393
100320
100236
100134
99998.8
99904.8
100004
98205.8
97597.1
97557.8
98172
98979.9
99462
99433.4
99290.1
99575.8
100068
100502
100801
100944
101016
101068
101114
101158
101196
101229
101249
101262
101265
100876
100876
100874
100872
100869
100866
100861
100856
100849
100842
100833
100823
100811
100797
100781
100762
100741
100717
100688
100656
100618
100573
100522
100462
100393
100312
100215
100090
99930.5
99617.7
99142.1
100417
96299.1
93550.2
95962.8
98336.8
99703.3
100097
99700.6
99294.9
99473.7
99928.1
100370
100682
100847
100954
101021
101079
101132
101180
101224
101255
101277
101285
100876
100876
100874
100872
100869
100866
100861
100856
100849
100842
100833
100823
100811
100797
100781
100762
100741
100717
100688
100656
100618
100573
100522
100462
100393
100312
100215
100101
99941.4
99704.5
99403.7
99063.4
96901.3
95106.7
97150.1
98811.8
99940.5
100216
99716.4
99248.2
99460.8
99998.7
100435
100686
100843
100948
101021
101080
101131
101175
101220
101255
101277
101288
100872
100872
100870
100868
100865
100861
100856
100850
100843
100835
100825
100814
100801
100785
100768
100748
100724
100698
100666
100630
100588
100539
100482
100414
100334
100237
100118
99968.4
99764
99480
98934.5
98672.2
100155
100198
99827.2
100486
101216
101050
100114
99304.1
99352.8
99803
100241
100573
100773
100903
100987
101052
101106
101152
101191
101236
101293
101308
100872
100872
100870
100868
100865
100861
100856
100850
100843
100835
100825
100814
100801
100785
100768
100748
100724
100698
100666
100630
100588
100539
100482
100414
100333
100236
100112
99971.9
99794.1
99561.9
99268.1
98581
97388.7
98070.4
99415.5
100641
101425
101153
100118
99258.9
99330.9
99852.1
100291
100573
100765
100896
100983
101052
101106
101148
101185
101218
101284
101314
100869
100868
100867
100864
100861
100857
100852
100845
100838
100829
100818
100806
100792
100776
100757
100736
100711
100682
100648
100609
100564
100510
100448
100373
100283
100174
100041
99875.3
99649.6
99362.6
98893.9
98332.4
98619.9
99764.8
99846.2
100501
101361
101251
100283
99246.5
99210.2
99702.2
100210
100544
100734
100866
100968
101041
101094
101129
101159
101198
101250
101304
100869
100868
100867
100864
100861
100857
100852
100845
100838
100829
100819
100806
100792
100776
100757
100736
100711
100682
100648
100609
100564
100510
100448
100373
100283
100169
100039
99876.5
99657.1
99383
99129.2
98093.6
97767.6
98873
99849.9
100913
101540
101252
100295
99275.2
99183.3
99708.3
100233
100557
100736
100861
100960
101040
101098
101136
101158
101168
101203
101304
100866
100866
100864
100861
100858
100854
100848
100841
100833
100824
100813
100801
100786
100769
100749
100726
100700
100669
100634
100593
100545
100488
100421
100341
100246
100130
99988.3
99808.8
99574.3
99275.1
98910.3
98338.3
98040
98482.9
98054.5
99084.2
100180
100583
100284
99605.6
99455.3
99862.6
100316
100629
100763
100873
100975
101044
101092
101123
101151
101158
101134
101269
100866
100866
100864
100861
100858
100854
100848
100841
100833
100824
100813
100801
100786
100769
100749
100726
100700
100669
100634
100593
100545
100488
100421
100341
100246
100130
99995.1
99814.8
99568.1
99265.8
98872.5
98289.9
98059.7
98474.9
99075.5
99722
99807.7
100110
100086
99684.2
99501.9
99835.9
100308
100644
100787
100874
100967
101046
101098
101130
101161
101155
101082
101232
100865
100864
100863
100860
100856
100852
100846
100839
100831
100821
100810
100797
100782
100764
100744
100720
100693
100661
100625
100582
100532
100473
100403
100320
100220
100099
99950.7
99765
99530.2
99235.2
98891.1
98438.5
98031.3
97489.4
96708.9
96780.7
96172.9
96270.3
96806.3
98142.1
99130.8
99986.3
100446
100734
100888
100988
101056
101096
101125
101148
101180
101176
101089
101207
100865
100864
100863
100860
100856
100852
100846
100839
100831
100821
100810
100797
100782
100764
100744
100720
100693
100661
100625
100582
100532
100473
100403
100320
100221
100100
99953.1
99771.8
99531.7
99223.9
98902.8
98457.5
98048.1
97866.5
97402.5
96562.5
95589.1
95784.5
96503.4
97966.5
99205.1
99994.6
100444
100731
100887
100990
101056
101098
101125
101149
101198
101200
101075
101182
100863
100863
100861
100859
100855
100850
100845
100838
100829
100820
100808
100795
100779
100761
100741
100717
100689
100657
100619
100576
100525
100465
100394
100309
100207
100083
99931.4
99743.5
99510.1
99221.9
98876
98442.4
97910.6
97402.7
96857.5
95683.6
93619.3
92932.6
93691.6
95767.5
97937.5
99359.9
100113
100512
100800
100994
101080
101114
101135
101154
101165
101157
101139
101206
100863
100863
100861
100859
100855
100850
100845
100838
100829
100820
100808
100795
100779
100761
100740
100717
100689
100657
100619
100576
100525
100465
100394
100309
100207
100084
99932.2
99746
99512.5
99224.7
98893.1
98501.9
98076
97466.9
96306
94792.4
93609
93110.8
93775.1
95657.2
97852.7
99360.2
100120
100505
100773
100982
101085
101114
101133
101156
101171
101162
101139
101205
100760
101189
100666
101592
101598
100638
100575
100617
100530
100460
100639
101176
100583
101597
101557
100602
100441
100585
100434
100431
101474
100906
100584
100891
100518
100565
100466
100569
100401
100494
100392
101443
100886
100502
100886
100489
100431
100428
100464
100412
100457
100455
100979
101053
100970
101102
100980
101095
100966
100814
100863
100802
100787
100710
100758
100682
100958
101047
100951
101086
100929
101083
100906
100794
100840
100789
100702
100651
100670
100640
101265
101198
101261
101246
101394
101246
101396
100592
100727
100652
100730
100621
100582
100552
100637
100458
100468
100427
100467
101255
101193
101254
101244
101383
101239
101389
100359
100650
100484
100571
100453
100674
100615
100694
100411
100494
100445
100563
101281
101192
101282
101060
101044
101059
101038
100694
101484
101174
101171
100743
100451
100490
100501
100428
100497
100444
100529
100435
100536
101274
101187
101278
101056
101031
101055
101033
100654
101456
101160
100656
101157
100424
100422
100517
100453
100567
100468
100563
100510
100595
100694
100837
100689
100805
100707
100806
100709
100381
100545
100434
100617
100596
100621
100613
100683
100830
100682
100806
100711
100807
100713
100487
100548
100499
100627
100628
100630
100631
101078
100976
100744
100968
101115
101073
100725
100931
100957
101056
101435
101511
101605
101518
101449
101236
101275
101434
101519
101602
101517
101436
101233
101228
100555
100623
100679
100697
100482
100594
100618
100592
100526
100514
100518
100611
100565
100488
100571
100480
100478
100495
100489
101021
100898
100614
100888
101068
101032
100584
100872
100863
101019
101444
101512
101586
101434
101523
101264
101248
101440
101511
101574
101512
101418
101277
101212
100303
100453
100508
100537
100239
100407
100473
100477
100465
100412
100477
100457
100352
100290
100465
100457
100410
100455
100424
100363
100418
100687
101480
101167
101166
100671
100350
100321
100396
100674
100568
100669
100448
100388
100544
100646
100355
100658
100473
100544
100517
100486
100504
100435
100424
100451
100498
100418
100439
100426
100452
100545
100560
100544
100462
100446
100533
100497
100443
100529
100305
100308
100660
101453
101156
101160
100689
100312
100357
100330
100640
100485
100347
100630
100328
100485
100616
100626
100374
100422
100413
100400
100424
100399
100420
100422
100421
100414
100423
100407
100422
100427
100467
100439
100435
100447
100419
100443
100462
100445
100423
101271
101129
101198
101339
101124
101341
101278
101230
101087
101177
101322
101076
101233
101326
101265
101194
101106
101334
101117
101338
101259
100631
100683
100640
100526
100675
100525
100640
100604
100632
100630
100527
100653
100527
100551
101244
101184
101089
101347
101087
101340
101247
100541
100613
100591
100522
100585
100534
100522
100526
100588
100560
100509
100569
100519
100498
100811
100984
100817
100903
100978
100815
100817
100799
100968
100898
100799
100971
100789
100808
100419
100432
100445
100386
100405
100436
100433
100397
100387
100379
100441
100385
100398
100437
100765
100960
100792
100882
100772
100954
100785
100768
100967
100885
100781
100962
100784
100774
100401
100389
100440
100432
100399
100392
100433
100402
100419
100446
100436
100407
100422
100409
100612
100668
100502
100612
100681
100571
100555
100396
100294
100263
100404
100395
100214
100245
100350
100601
100616
100681
100563
100680
100568
100591
100272
100506
100401
99998.4
100538
100212
100081
100020
99933.2
100082
99913.3
100337
100424
100585
100209
100402
100554
100151
99934
99797.4
99858.2
99862.8
101144
100908
100946
100699
100908
101138
100952
101373
101618
101630
101383
101365
101612
101617
101358
101155
100698
100955
100957
100924
100957
101152
100464
100484
101153
100887
100639
100930
100889
101130
100913
101407
101633
101602
101364
101398
101624
101611
101329
101162
100640
100904
100921
101132
100894
100916
100420
100420
100640
101015
100665
101084
101023
100627
100676
100464
100340
100308
100484
100444
100259
100279
100429
100638
101086
101022
100714
101025
100676
100697
100593
101007
100652
101063
100614
100995
100629
100344
100050
100119
100322
100383
100227
100414
100185
100575
101054
100976
100575
100985
100610
100570
101653
101485
101637
101434
101485
101637
101651
101714
101700
101713
101700
101705
101696
101702
101700
101663
101445
101485
101646
101490
101651
101642
101237
101245
101653
101484
101439
101639
101485
101650
101640
101712
101713
101717
101698
101659
101442
101493
101661
101487
101641
101670
101705
101698
101702
101698
101232
101225
100467
100643
100427
100529
100520
100622
100363
100183
99975.4
100124
100054
100215
100159
100280
100105
100444
100492
100597
100275
100433
100591
100317
100606
100610
100560
100582
100563
100603
100592
100571
100552
100574
100596
100606
100571
100557
100565
100544
100588
100571
100606
100597
100586
100596
100581
100570
100534
100501
100526
100565
100544
100545
100548
100534
100530
100498
100486
100491
100499
100511
100514
100510
100495
100526
100513
100499
100510
100535
100522
100516
100500
100923
101023
100538
100941
100475
100537
100244
100003
100010
100252
100476
101040
100960
100625
100939
100504
100560
100260
99938.7
99989.6
100227
100404
100900
100556
101022
100414
100896
100544
100171
99963
99899.5
100229
100165
99912
100183
99889.4
100403
100978
100897
100546
100889
100508
100484
101715
101464
101486
101786
101476
101717
101723
101827
101730
101688
101727
101698
101468
101491
101753
101468
101698
101717
101781
101759
101697
101782
101272
101283
101688
101467
101756
101428
101454
101679
101742
101772
101664
101734
101683
101753
101721
101751
101730
101689
101419
101460
101723
101455
101803
101646
101276
101223
100182
100477
99928.5
100272
100181
100471
99902.7
99788.3
99842.5
99753.3
99868
99823.5
99776.4
99835.7
99750.6
100118
100238
100401
99873.8
100430
99869.8
100136
100437
100458
100446
100471
100490
100465
100485
100463
100450
100467
100475
100480
100462
100464
100467
100496
100481
100479
100489
100468
100444
100429
100438
100439
100311
100294
100453
100492
100461
100439
100483
100455
100447
100457
100437
100438
100464
100450
100424
100439
100431
100451
100422
100466
100449
100471
100442
100455
100366
100362
101139
100907
100940
100683
101134
100907
100941
101359
101614
101350
101609
101362
101613
101356
101614
101143
100679
100904
100935
101135
100904