/*--------------------------------*- C++ -*----------------------------------*\
| =========                 |                                                 |
| \\      /  F ield         | OpenFOAM: The Open Source CFD Toolbox           |
|  \\    /   O peration     | Version:  4.1                                   |
|   \\  /    A nd           | Web:      www.OpenFOAM.org                      |
|    \\/     M anipulation  |                                                 |
\*---------------------------------------------------------------------------*/
FoamFile
{
    version     2.0;
    format      ascii;
    class       volScalarField;
    location    "28";
    object      p;
}
// * * * * * * * * * * * * * * * * * * * * * * * * * * * * * * * * * * * * * //

dimensions      [0 2 -2 0 0 0 0];

internalField   nonuniform List<scalar> 
4432
(
-2.4971e+10
-2.7365e+10
-2.21633e+10
-6.37271e+09
-9.76521e+09
-1.53906e+10
-1.39074e+10
-1.32393e+10
-1.30642e+10
-1.30375e+10
-1.28295e+10
-1.25803e+10
-1.24176e+10
-1.23614e+10
-1.2406e+10
-1.24361e+10
-1.23094e+10
-1.21309e+10
-1.19753e+10
-1.18514e+10
-1.17265e+10
-1.16052e+10
-1.14861e+10
-1.13703e+10
-1.12592e+10
-1.11542e+10
-1.10565e+10
-1.09663e+10
-1.08837e+10
-1.0808e+10
-1.07389e+10
-1.0677e+10
-1.06235e+10
-1.05787e+10
-1.05431e+10
-1.05198e+10
-1.05103e+10
-1.05165e+10
-1.05404e+10
-1.05821e+10
-1.06395e+10
-1.07054e+10
-1.07627e+10
-1.07853e+10
-1.07452e+10
-1.06065e+10
-1.03086e+10
-9.79071e+09
-9.05254e+09
-8.34863e+09
-8.54386e+09
-1.07726e+10
-1.34454e+10
-7.17062e+09
-2.24013e+10
-2.1605e+10
-1.82626e+10
-1.28167e+10
-1.00093e+10
-1.45143e+10
-1.44201e+10
-1.35815e+10
-1.3355e+10
-1.33286e+10
-1.30311e+10
-1.26573e+10
-1.24301e+10
-1.23838e+10
-1.24415e+10
-1.24596e+10
-1.23143e+10
-1.21324e+10
-1.19895e+10
-1.18673e+10
-1.17419e+10
-1.16208e+10
-1.15014e+10
-1.13852e+10
-1.12731e+10
-1.11667e+10
-1.10669e+10
-1.09741e+10
-1.08884e+10
-1.08092e+10
-1.07364e+10
-1.06706e+10
-1.06134e+10
-1.0566e+10
-1.05296e+10
-1.05054e+10
-1.04947e+10
-1.04999e+10
-1.05232e+10
-1.05645e+10
-1.06217e+10
-1.06869e+10
-1.07425e+10
-1.07612e+10
-1.0711e+10
-1.05529e+10
-1.02236e+10
-9.65167e+09
-8.84309e+09
-8.05444e+09
-8.24082e+09
-1.08229e+10
-1.39868e+10
-8.21816e+09
-1.78096e+10
-1.63724e+10
-1.43559e+10
-1.5291e+10
-1.15604e+10
-1.35728e+10
-1.53586e+10
-1.45205e+10
-1.39474e+10
-1.36911e+10
-1.31997e+10
-1.27787e+10
-1.2483e+10
-1.23188e+10
-1.23121e+10
-1.23987e+10
-1.23564e+10
-1.218e+10
-1.20153e+10
-1.18732e+10
-1.17458e+10
-1.16229e+10
-1.15024e+10
-1.13843e+10
-1.127e+10
-1.1161e+10
-1.10587e+10
-1.09642e+10
-1.08777e+10
-1.07993e+10
-1.07287e+10
-1.0667e+10
-1.06176e+10
-1.05782e+10
-1.05427e+10
-1.05175e+10
-1.0508e+10
-1.0516e+10
-1.05421e+10
-1.05827e+10
-1.06316e+10
-1.06795e+10
-1.07095e+10
-1.06927e+10
-1.05955e+10
-1.03944e+10
-1.00265e+10
-9.40061e+09
-8.56105e+09
-7.88281e+09
-8.43578e+09
-1.13756e+10
-1.38244e+10
-7.31079e+09
-1.80568e+10
-1.69296e+10
-1.45052e+10
-1.28622e+10
-1.16766e+10
-1.37873e+10
-1.53901e+10
-1.44181e+10
-1.401e+10
-1.37168e+10
-1.3242e+10
-1.27922e+10
-1.2475e+10
-1.23178e+10
-1.23415e+10
-1.24513e+10
-1.23812e+10
-1.21785e+10
-1.20288e+10
-1.18911e+10
-1.17647e+10
-1.16413e+10
-1.15203e+10
-1.14016e+10
-1.12864e+10
-1.11764e+10
-1.10728e+10
-1.09766e+10
-1.08882e+10
-1.08076e+10
-1.07342e+10
-1.06686e+10
-1.0613e+10
-1.05683e+10
-1.05337e+10
-1.05104e+10
-1.05e+10
-1.05068e+10
-1.0533e+10
-1.05737e+10
-1.06215e+10
-1.06668e+10
-1.06915e+10
-1.06663e+10
-1.05563e+10
-1.03277e+10
-9.92149e+09
-9.26719e+09
-8.399e+09
-7.7004e+09
-8.3617e+09
-1.16477e+10
-1.4139e+10
-6.70071e+09
-1.63394e+10
-1.35606e+10
-1.02175e+10
-1.42338e+10
-1.16952e+10
-1.212e+10
-1.35905e+10
-1.41323e+10
-1.42088e+10
-1.39665e+10
-1.34363e+10
-1.29752e+10
-1.25852e+10
-1.23304e+10
-1.22984e+10
-1.23682e+10
-1.2325e+10
-1.21712e+10
-1.20279e+10
-1.18895e+10
-1.17604e+10
-1.16343e+10
-1.15097e+10
-1.13861e+10
-1.12649e+10
-1.11478e+10
-1.10367e+10
-1.09331e+10
-1.08378e+10
-1.07505e+10
-1.06698e+10
-1.0594e+10
-1.05278e+10
-1.04827e+10
-1.04522e+10
-1.04282e+10
-1.0425e+10
-1.04411e+10
-1.0476e+10
-1.05215e+10
-1.05702e+10
-1.06149e+10
-1.06383e+10
-1.06082e+10
-1.04891e+10
-1.02445e+10
-9.82084e+09
-9.17109e+09
-8.34505e+09
-7.70855e+09
-8.28041e+09
-1.10752e+10
-1.37066e+10
-6.85556e+09
-1.57451e+10
-1.49162e+10
-1.2628e+10
-1.11042e+10
-1.22553e+10
-1.31856e+10
-1.37904e+10
-1.38828e+10
-1.41068e+10
-1.38443e+10
-1.33472e+10
-1.28976e+10
-1.25522e+10
-1.23412e+10
-1.23193e+10
-1.24097e+10
-1.23392e+10
-1.21701e+10
-1.20318e+10
-1.18978e+10
-1.17705e+10
-1.16446e+10
-1.15198e+10
-1.13959e+10
-1.12744e+10
-1.11568e+10
-1.10451e+10
-1.09407e+10
-1.08448e+10
-1.07572e+10
-1.06762e+10
-1.06011e+10
-1.05354e+10
-1.04848e+10
-1.04486e+10
-1.04287e+10
-1.04264e+10
-1.04433e+10
-1.04787e+10
-1.05235e+10
-1.05694e+10
-1.06086e+10
-1.06225e+10
-1.05785e+10
-1.04375e+10
-1.01616e+10
-9.70283e+09
-9.01451e+09
-8.14773e+09
-7.50013e+09
-8.16632e+09
-1.12322e+10
-1.42041e+10
-7.92966e+09
-1.47408e+10
-1.45148e+10
-1.29513e+10
-1.20416e+10
-1.27633e+10
-1.28229e+10
-1.32857e+10
-1.36486e+10
-1.38755e+10
-1.37187e+10
-1.33074e+10
-1.29444e+10
-1.26282e+10
-1.24178e+10
-1.23735e+10
-1.2392e+10
-1.23148e+10
-1.21712e+10
-1.20387e+10
-1.19085e+10
-1.17814e+10
-1.16536e+10
-1.15252e+10
-1.13965e+10
-1.12695e+10
-1.11465e+10
-1.10297e+10
-1.09209e+10
-1.08203e+10
-1.07262e+10
-1.06354e+10
-1.05413e+10
-1.04497e+10
-1.0414e+10
-1.04324e+10
-1.04045e+10
-1.03898e+10
-1.04161e+10
-1.04641e+10
-1.05281e+10
-1.05964e+10
-1.06603e+10
-1.0699e+10
-1.06712e+10
-1.05366e+10
-1.02543e+10
-9.77386e+09
-9.07509e+09
-8.21772e+09
-7.54715e+09
-8.03473e+09
-1.07739e+10
-1.37636e+10
-7.57057e+09
-1.43907e+10
-1.36897e+10
-1.2752e+10
-1.23925e+10
-1.40504e+10
-1.38868e+10
-1.32385e+10
-1.32941e+10
-1.36712e+10
-1.35585e+10
-1.32308e+10
-1.29002e+10
-1.26205e+10
-1.24488e+10
-1.24199e+10
-1.24302e+10
-1.2328e+10
-1.21817e+10
-1.2052e+10
-1.19249e+10
-1.17988e+10
-1.16711e+10
-1.15421e+10
-1.14122e+10
-1.12834e+10
-1.11581e+10
-1.10388e+10
-1.09275e+10
-1.08248e+10
-1.07301e+10
-1.06412e+10
-1.05569e+10
-1.0483e+10
-1.04301e+10
-1.03959e+10
-1.03826e+10
-1.03837e+10
-1.04001e+10
-1.04437e+10
-1.05029e+10
-1.05645e+10
-1.06198e+10
-1.06494e+10
-1.06132e+10
-1.04661e+10
-1.01713e+10
-9.6848e+09
-8.98507e+09
-8.14319e+09
-7.56907e+09
-8.37384e+09
-1.15686e+10
-1.42129e+10
-7.16896e+09
-1.33452e+10
-1.36189e+10
-1.35402e+10
-1.27261e+10
-1.34691e+10
-1.3178e+10
-1.30756e+10
-1.32466e+10
-1.35259e+10
-1.35435e+10
-1.32379e+10
-1.28479e+10
-1.26032e+10
-1.2465e+10
-1.24351e+10
-1.24016e+10
-1.23013e+10
-1.21704e+10
-1.20438e+10
-1.1917e+10
-1.17895e+10
-1.16589e+10
-1.15252e+10
-1.13895e+10
-1.12547e+10
-1.1124e+10
-1.1e+10
-1.08846e+10
-1.07777e+10
-1.06754e+10
-1.05754e+10
-1.04768e+10
-1.03896e+10
-1.03423e+10
-1.03296e+10
-1.03172e+10
-1.03194e+10
-1.03523e+10
-1.04117e+10
-1.04935e+10
-1.05883e+10
-1.06794e+10
-1.07389e+10
-1.07261e+10
-1.05956e+10
-1.03005e+10
-9.79266e+09
-9.04357e+09
-8.09574e+09
-7.26646e+09
-7.54092e+09
-1.02763e+10
-1.37116e+10
-8.25388e+09
-1.36266e+10
-1.3282e+10
-1.31315e+10
-1.32497e+10
-1.43309e+10
-1.36339e+10
-1.29971e+10
-1.29953e+10
-1.32281e+10
-1.32885e+10
-1.31254e+10
-1.28506e+10
-1.26271e+10
-1.25e+10
-1.24684e+10
-1.24301e+10
-1.23221e+10
-1.21928e+10
-1.20693e+10
-1.19452e+10
-1.18191e+10
-1.16889e+10
-1.15547e+10
-1.14179e+10
-1.12812e+10
-1.11482e+10
-1.10215e+10
-1.09026e+10
-1.0791e+10
-1.06867e+10
-1.05916e+10
-1.05039e+10
-1.04225e+10
-1.03599e+10
-1.03205e+10
-1.03006e+10
-1.03014e+10
-1.03247e+10
-1.0373e+10
-1.04422e+10
-1.0525e+10
-1.06048e+10
-1.06545e+10
-1.06372e+10
-1.05086e+10
-1.02237e+10
-9.74079e+09
-9.03632e+09
-8.16461e+09
-7.50044e+09
-8.13301e+09
-1.11656e+10
-1.39672e+10
-7.20587e+09
-1.31409e+10
-1.33393e+10
-1.34009e+10
-1.33089e+10
-1.36002e+10
-1.32757e+10
-1.29808e+10
-1.29547e+10
-1.31147e+10
-1.32365e+10
-1.31408e+10
-1.28144e+10
-1.25971e+10
-1.25109e+10
-1.24769e+10
-1.24149e+10
-1.23131e+10
-1.21953e+10
-1.20769e+10
-1.19561e+10
-1.18315e+10
-1.17011e+10
-1.15642e+10
-1.14226e+10
-1.1281e+10
-1.11449e+10
-1.10165e+10
-1.08938e+10
-1.07781e+10
-1.06711e+10
-1.05727e+10
-1.04856e+10
-1.04154e+10
-1.03644e+10
-1.03249e+10
-1.03031e+10
-1.03081e+10
-1.03415e+10
-1.04022e+10
-1.04876e+10
-1.05886e+10
-1.06867e+10
-1.07521e+10
-1.07461e+10
-1.06242e+10
-1.03388e+10
-9.84681e+09
-9.12002e+09
-8.18105e+09
-7.2959e+09
-7.42351e+09
-1.01439e+10
-1.4156e+10
-1.06154e+10
-1.36116e+10
-1.35411e+10
-1.34578e+10
-1.3328e+10
-1.3841e+10
-1.3336e+10
-1.29571e+10
-1.298e+10
-1.30802e+10
-1.3129e+10
-1.30152e+10
-1.27848e+10
-1.26067e+10
-1.25254e+10
-1.24863e+10
-1.2421e+10
-1.23177e+10
-1.22028e+10
-1.20877e+10
-1.19693e+10
-1.18464e+10
-1.17169e+10
-1.15806e+10
-1.14398e+10
-1.12989e+10
-1.11623e+10
-1.10327e+10
-1.09112e+10
-1.07975e+10
-1.06908e+10
-1.05936e+10
-1.0507e+10
-1.04293e+10
-1.03662e+10
-1.03206e+10
-1.02932e+10
-1.02899e+10
-1.03129e+10
-1.03611e+10
-1.04327e+10
-1.0521e+10
-1.06077e+10
-1.06649e+10
-1.06563e+10
-1.05401e+10
-1.02725e+10
-9.8149e+09
-9.14159e+09
-8.28687e+09
-7.56397e+09
-7.99043e+09
-1.08526e+10
-1.39819e+10
-7.77209e+09
-1.30639e+10
-1.33776e+10
-1.34323e+10
-1.355e+10
-1.34099e+10
-1.31405e+10
-1.29127e+10
-1.28453e+10
-1.29537e+10
-1.30772e+10
-1.29575e+10
-1.2729e+10
-1.26002e+10
-1.25482e+10
-1.24989e+10
-1.24257e+10
-1.23297e+10
-1.2223e+10
-1.21136e+10
-1.20009e+10
-1.18818e+10
-1.17523e+10
-1.16103e+10
-1.14604e+10
-1.13104e+10
-1.11667e+10
-1.10317e+10
-1.09071e+10
-1.07934e+10
-1.06888e+10
-1.05946e+10
-1.05156e+10
-1.04554e+10
-1.04089e+10
-1.03704e+10
-1.03486e+10
-1.03513e+10
-1.03811e+10
-1.04388e+10
-1.05205e+10
-1.06166e+10
-1.07099e+10
-1.07738e+10
-1.07741e+10
-1.06706e+10
-1.04245e+10
-1.00072e+10
-9.40389e+09
-8.64381e+09
-7.99044e+09
-8.35827e+09
-1.09384e+10
-1.39295e+10
-7.45947e+09
-1.34884e+10
-1.36427e+10
-1.37842e+10
-1.33917e+10
-1.31398e+10
-1.29122e+10
-1.29266e+10
-1.29919e+10
-1.30475e+10
-1.30239e+10
-1.28792e+10
-1.271e+10
-1.26028e+10
-1.2549e+10
-1.24971e+10
-1.24208e+10
-1.23242e+10
-1.2219e+10
-1.2111e+10
-1.19989e+10
-1.188e+10
-1.17504e+10
-1.16094e+10
-1.1461e+10
-1.13117e+10
-1.11675e+10
-1.10333e+10
-1.09115e+10
-1.08014e+10
-1.07012e+10
-1.06102e+10
-1.05301e+10
-1.04653e+10
-1.0414e+10
-1.03746e+10
-1.03523e+10
-1.03526e+10
-1.03784e+10
-1.04304e+10
-1.05058e+10
-1.05953e+10
-1.06818e+10
-1.07397e+10
-1.07355e+10
-1.0631e+10
-1.0389e+10
-9.98238e+09
-9.39643e+09
-8.66378e+09
-8.06166e+09
-8.51386e+09
-1.11834e+10
-1.40644e+10
-7.39059e+09
-1.30102e+10
-1.32798e+10
-1.34866e+10
-1.36155e+10
-1.32913e+10
-1.28307e+10
-1.26317e+10
-1.26588e+10
-1.28577e+10
-1.30074e+10
-1.28749e+10
-1.27068e+10
-1.26233e+10
-1.25747e+10
-1.25187e+10
-1.24432e+10
-1.2352e+10
-1.22523e+10
-1.21501e+10
-1.2045e+10
-1.19321e+10
-1.18019e+10
-1.1652e+10
-1.14885e+10
-1.13232e+10
-1.11663e+10
-1.10232e+10
-1.08963e+10
-1.07849e+10
-1.06836e+10
-1.05943e+10
-1.05236e+10
-1.04629e+10
-1.04112e+10
-1.03729e+10
-1.03548e+10
-1.03606e+10
-1.03913e+10
-1.04478e+10
-1.05268e+10
-1.06192e+10
-1.07084e+10
-1.07692e+10
-1.07686e+10
-1.06705e+10
-1.04427e+10
-1.00664e+10
-9.54116e+09
-8.91767e+09
-8.48652e+09
-9.15216e+09
-1.19118e+10
-1.45507e+10
-7.90687e+09
-1.32745e+10
-1.34716e+10
-1.38324e+10
-1.36668e+10
-1.30248e+10
-1.25936e+10
-1.26687e+10
-1.27647e+10
-1.28605e+10
-1.29053e+10
-1.28116e+10
-1.26964e+10
-1.26235e+10
-1.25738e+10
-1.25152e+10
-1.2439e+10
-1.23487e+10
-1.22505e+10
-1.21491e+10
-1.20445e+10
-1.19316e+10
-1.18021e+10
-1.16524e+10
-1.14887e+10
-1.13219e+10
-1.11625e+10
-1.10173e+10
-1.08883e+10
-1.0777e+10
-1.068e+10
-1.05918e+10
-1.0516e+10
-1.04531e+10
-1.04021e+10
-1.03653e+10
-1.03487e+10
-1.03555e+10
-1.03863e+10
-1.0442e+10
-1.05198e+10
-1.06098e+10
-1.06955e+10
-1.07513e+10
-1.07441e+10
-1.06379e+10
-1.04013e+10
-1.00155e+10
-9.47887e+09
-8.83811e+09
-8.3731e+09
-8.9638e+09
-1.17407e+10
-1.48621e+10
-9.00752e+09
-1.28773e+10
-1.29599e+10
-1.32084e+10
-1.33617e+10
-1.31946e+10
-1.27095e+10
-1.25012e+10
-1.26083e+10
-1.28045e+10
-1.28494e+10
-1.27482e+10
-1.26561e+10
-1.26012e+10
-1.25553e+10
-1.24994e+10
-1.24267e+10
-1.23402e+10
-1.22464e+10
-1.2152e+10
-1.20584e+10
-1.19576e+10
-1.18334e+10
-1.16744e+10
-1.14879e+10
-1.1296e+10
-1.11172e+10
-1.09593e+10
-1.08232e+10
-1.07087e+10
-1.06097e+10
-1.05207e+10
-1.0448e+10
-1.03887e+10
-1.03407e+10
-1.03094e+10
-1.02991e+10
-1.03133e+10
-1.0355e+10
-1.04248e+10
-1.05186e+10
-1.06254e+10
-1.0727e+10
-1.07958e+10
-1.07964e+10
-1.069e+10
-1.04421e+10
-1.00312e+10
-9.45568e+09
-8.76809e+09
-8.25636e+09
-8.82891e+09
-1.17573e+10
-1.53919e+10
-1.00682e+10
-1.29091e+10
-1.29992e+10
-1.33601e+10
-1.35007e+10
-1.30635e+10
-1.26228e+10
-1.26137e+10
-1.26799e+10
-1.27298e+10
-1.27516e+10
-1.271e+10
-1.26569e+10
-1.26087e+10
-1.25634e+10
-1.25063e+10
-1.24341e+10
-1.23488e+10
-1.2256e+10
-1.21618e+10
-1.20682e+10
-1.19677e+10
-1.1844e+10
-1.16851e+10
-1.14985e+10
-1.13057e+10
-1.11252e+10
-1.09644e+10
-1.08244e+10
-1.07085e+10
-1.06128e+10
-1.05241e+10
-1.04483e+10
-1.03853e+10
-1.03352e+10
-1.03037e+10
-1.02929e+10
-1.03059e+10
-1.03458e+10
-1.04133e+10
-1.05042e+10
-1.06079e+10
-1.07057e+10
-1.077e+10
-1.07655e+10
-1.06535e+10
-1.03997e+10
-9.98164e+09
-9.39511e+09
-8.68577e+09
-8.12443e+09
-8.59387e+09
-1.14882e+10
-1.54316e+10
-1.02798e+10
-1.25504e+10
-1.25076e+10
-1.25723e+10
-1.28027e+10
-1.30003e+10
-1.27772e+10
-1.26055e+10
-1.26717e+10
-1.27312e+10
-1.26815e+10
-1.26418e+10
-1.26097e+10
-1.25773e+10
-1.25407e+10
-1.24924e+10
-1.24289e+10
-1.23525e+10
-1.227e+10
-1.21899e+10
-1.2117e+10
-1.20423e+10
-1.19365e+10
-1.17656e+10
-1.15352e+10
-1.12929e+10
-1.10776e+10
-1.08978e+10
-1.07493e+10
-1.06264e+10
-1.05249e+10
-1.04402e+10
-1.03692e+10
-1.03107e+10
-1.02665e+10
-1.02421e+10
-1.02415e+10
-1.02689e+10
-1.03285e+10
-1.04214e+10
-1.0543e+10
-1.0681e+10
-1.08145e+10
-1.09128e+10
-1.09364e+10
-1.08414e+10
-1.05872e+10
-1.01447e+10
-9.50284e+09
-8.70498e+09
-8.04397e+09
-8.45889e+09
-1.13222e+10
-1.52413e+10
-1.04907e+10
-1.24222e+10
-1.2407e+10
-1.2628e+10
-1.29754e+10
-1.30443e+10
-1.28952e+10
-1.2678e+10
-1.26278e+10
-1.26358e+10
-1.2643e+10
-1.26344e+10
-1.26116e+10
-1.2579e+10
-1.25413e+10
-1.24909e+10
-1.24263e+10
-1.23494e+10
-1.22662e+10
-1.21851e+10
-1.21113e+10
-1.2037e+10
-1.19331e+10
-1.17662e+10
-1.1541e+10
-1.13031e+10
-1.10897e+10
-1.0909e+10
-1.07584e+10
-1.06361e+10
-1.05365e+10
-1.04488e+10
-1.03733e+10
-1.03106e+10
-1.0262e+10
-1.02341e+10
-1.02303e+10
-1.02538e+10
-1.03087e+10
-1.03965e+10
-1.0513e+10
-1.06468e+10
-1.07778e+10
-1.08758e+10
-1.09023e+10
-1.08141e+10
-1.05711e+10
-1.01433e+10
-9.51675e+09
-8.73292e+09
-8.08657e+09
-8.52388e+09
-1.13689e+10
-1.48622e+10
-9.01281e+09
-1.21528e+10
-1.20652e+10
-1.20117e+10
-1.24043e+10
-1.27748e+10
-1.27944e+10
-1.26931e+10
-1.26299e+10
-1.25981e+10
-1.25881e+10
-1.25843e+10
-1.2574e+10
-1.25571e+10
-1.25328e+10
-1.24965e+10
-1.24456e+10
-1.23818e+10
-1.23117e+10
-1.2246e+10
-1.21952e+10
-1.21565e+10
-1.20858e+10
-1.1903e+10
-1.15943e+10
-1.12582e+10
-1.09876e+10
-1.07843e+10
-1.06282e+10
-1.05043e+10
-1.0405e+10
-1.03233e+10
-1.0252e+10
-1.01899e+10
-1.01413e+10
-1.01127e+10
-1.01093e+10
-1.01363e+10
-1.0199e+10
-1.02993e+10
-1.04331e+10
-1.05883e+10
-1.07431e+10
-1.08653e+10
-1.09137e+10
-1.08422e+10
-1.06081e+10
-1.01799e+10
-9.5443e+09
-8.75501e+09
-8.16622e+09
-8.78715e+09
-1.16338e+10
-1.40584e+10
-6.84457e+09
-1.19555e+10
-1.19621e+10
-1.21596e+10
-1.25789e+10
-1.29176e+10
-1.28457e+10
-1.26091e+10
-1.25747e+10
-1.25803e+10
-1.2581e+10
-1.25798e+10
-1.25717e+10
-1.25539e+10
-1.25278e+10
-1.24897e+10
-1.2438e+10
-1.23748e+10
-1.23055e+10
-1.22402e+10
-1.21895e+10
-1.21513e+10
-1.20819e+10
-1.19004e+10
-1.15933e+10
-1.12587e+10
-1.09886e+10
-1.07833e+10
-1.0626e+10
-1.0503e+10
-1.04039e+10
-1.03198e+10
-1.0245e+10
-1.01798e+10
-1.01279e+10
-1.00961e+10
-1.00895e+10
-1.01128e+10
-1.01711e+10
-1.02668e+10
-1.03958e+10
-1.05467e+10
-1.06984e+10
-1.08195e+10
-1.08691e+10
-1.08017e+10
-1.05746e+10
-1.01558e+10
-9.52962e+09
-8.74728e+09
-8.16595e+09
-8.82302e+09
-1.16917e+10
-1.39265e+10
-6.89322e+09
-1.19114e+10
-1.18873e+10
-1.19906e+10
-1.23494e+10
-1.25847e+10
-1.26617e+10
-1.26456e+10
-1.26062e+10
-1.25822e+10
-1.25751e+10
-1.25759e+10
-1.25778e+10
-1.25714e+10
-1.25525e+10
-1.25183e+10
-1.24671e+10
-1.24024e+10
-1.2331e+10
-1.22656e+10
-1.22267e+10
-1.22308e+10
-1.22368e+10
-1.20916e+10
-1.16872e+10
-1.12067e+10
-1.08754e+10
-1.06612e+10
-1.0511e+10
-1.0402e+10
-1.03166e+10
-1.02447e+10
-1.01788e+10
-1.01182e+10
-1.00674e+10
-1.00327e+10
-1.00209e+10
-1.00382e+10
-1.00901e+10
-1.01787e+10
-1.03002e+10
-1.04425e+10
-1.05835e+10
-1.0691e+10
-1.07248e+10
-1.06406e+10
-1.0398e+10
-9.96951e+09
-9.34819e+09
-8.60189e+09
-8.09886e+09
-8.80222e+09
-1.15355e+10
-1.36679e+10
-7.44949e+09
-1.17887e+10
-1.19363e+10
-1.22001e+10
-1.24914e+10
-1.26292e+10
-1.25862e+10
-1.25684e+10
-1.25744e+10
-1.25734e+10
-1.25723e+10
-1.25731e+10
-1.25744e+10
-1.25678e+10
-1.25485e+10
-1.25141e+10
-1.24643e+10
-1.24029e+10
-1.23359e+10
-1.22742e+10
-1.22366e+10
-1.22404e+10
-1.22478e+10
-1.21061e+10
-1.16991e+10
-1.12186e+10
-1.08861e+10
-1.0668e+10
-1.05154e+10
-1.04065e+10
-1.03205e+10
-1.02468e+10
-1.01797e+10
-1.01185e+10
-1.00676e+10
-1.00334e+10
-1.00225e+10
-1.00409e+10
-1.00941e+10
-1.01841e+10
-1.0307e+10
-1.04506e+10
-1.05932e+10
-1.07028e+10
-1.07385e+10
-1.06547e+10
-1.04103e+10
-9.97562e+09
-9.33882e+09
-8.56094e+09
-7.99684e+09
-8.58817e+09
-1.12722e+10
-1.37447e+10
-7.70854e+09
-1.18869e+10
-1.1931e+10
-1.22024e+10
-1.23925e+10
-1.24354e+10
-1.24593e+10
-1.24887e+10
-1.25051e+10
-1.25104e+10
-1.25144e+10
-1.25175e+10
-1.25188e+10
-1.25118e+10
-1.24899e+10
-1.24506e+10
-1.23951e+10
-1.23333e+10
-1.22767e+10
-1.22367e+10
-1.22366e+10
-1.23189e+10
-1.24874e+10
-1.25086e+10
-1.19645e+10
-1.11636e+10
-1.06893e+10
-1.04543e+10
-1.03357e+10
-1.02765e+10
-1.02318e+10
-1.01881e+10
-1.01417e+10
-1.00947e+10
-1.00525e+10
-1.00223e+10
-1.0012e+10
-1.00288e+10
-1.0078e+10
-1.01614e+10
-1.02742e+10
-1.04031e+10
-1.05251e+10
-1.06077e+10
-1.06116e+10
-1.04952e+10
-1.02214e+10
-9.76673e+09
-9.12929e+09
-8.38434e+09
-7.90206e+09
-8.66641e+09
-1.15724e+10
-1.38538e+10
-6.92521e+09
-1.18728e+10
-1.20863e+10
-1.23122e+10
-1.2426e+10
-1.24063e+10
-1.24095e+10
-1.24523e+10
-1.24823e+10
-1.24992e+10
-1.25078e+10
-1.25122e+10
-1.25129e+10
-1.25049e+10
-1.24815e+10
-1.24402e+10
-1.23832e+10
-1.2322e+10
-1.22695e+10
-1.22345e+10
-1.22365e+10
-1.23132e+10
-1.2476e+10
-1.25153e+10
-1.19794e+10
-1.11776e+10
-1.07047e+10
-1.04655e+10
-1.03419e+10
-1.02795e+10
-1.02316e+10
-1.01847e+10
-1.01364e+10
-1.00886e+10
-1.00461e+10
-1.00165e+10
-1.00083e+10
-1.00281e+10
-1.00813e+10
-1.01694e+10
-1.02878e+10
-1.0423e+10
-1.05519e+10
-1.0642e+10
-1.06527e+10
-1.05402e+10
-1.02659e+10
-9.80314e+09
-9.14526e+09
-8.36348e+09
-7.83406e+09
-8.59034e+09
-1.1566e+10
-1.3897e+10
-7.0781e+09
-1.19931e+10
-1.20413e+10
-1.22684e+10
-1.2317e+10
-1.23149e+10
-1.23238e+10
-1.23523e+10
-1.2381e+10
-1.24075e+10
-1.2432e+10
-1.24549e+10
-1.24763e+10
-1.24909e+10
-1.24918e+10
-1.24767e+10
-1.2453e+10
-1.24418e+10
-1.24622e+10
-1.25111e+10
-1.25954e+10
-1.27644e+10
-1.31146e+10
-1.34796e+10
-1.28629e+10
-1.14803e+10
-1.01902e+10
-1.00281e+10
-1.00619e+10
-1.01062e+10
-1.01179e+10
-1.01032e+10
-1.00716e+10
-1.00328e+10
-9.99568e+09
-9.96954e+09
-9.96357e+09
-9.9857e+09
-1.00417e+10
-1.01332e+10
-1.02549e+10
-1.03927e+10
-1.05232e+10
-1.06144e+10
-1.06276e+10
-1.05221e+10
-1.02628e+10
-9.828e+09
-9.21608e+09
-8.49707e+09
-8.02641e+09
-8.733e+09
-1.14243e+10
-1.36171e+10
-6.98226e+09
-1.20064e+10
-1.21618e+10
-1.22859e+10
-1.22916e+10
-1.22694e+10
-1.22872e+10
-1.23214e+10
-1.23551e+10
-1.23854e+10
-1.24129e+10
-1.24379e+10
-1.24588e+10
-1.24705e+10
-1.24664e+10
-1.2445e+10
-1.24134e+10
-1.23974e+10
-1.24261e+10
-1.24917e+10
-1.2593e+10
-1.27554e+10
-1.30589e+10
-1.35188e+10
-1.29743e+10
-1.15907e+10
-1.01973e+10
-1.00509e+10
-1.00814e+10
-1.01218e+10
-1.01302e+10
-1.0114e+10
-1.00822e+10
-1.00434e+10
-1.00063e+10
-9.98075e+09
-9.97602e+09
-9.99949e+09
-1.00566e+10
-1.01487e+10
-1.02702e+10
-1.04069e+10
-1.05354e+10
-1.06235e+10
-1.06311e+10
-1.05155e+10
-1.02396e+10
-9.7783e+09
-9.1247e+09
-8.34215e+09
-7.78527e+09
-8.41562e+09
-1.12476e+10
-1.40769e+10
-8.10863e+09
-1.21464e+10
-1.2189e+10
-1.2274e+10
-1.2271e+10
-1.22683e+10
-1.22814e+10
-1.23033e+10
-1.23297e+10
-1.23589e+10
-1.2391e+10
-1.24252e+10
-1.24595e+10
-1.24881e+10
-1.25023e+10
-1.24974e+10
-1.24844e+10
-1.24886e+10
-1.25341e+10
-1.26141e+10
-1.27205e+10
-1.29047e+10
-1.3319e+10
-1.38065e+10
-1.37428e+10
-1.29248e+10
-8.80121e+09
-9.34057e+09
-9.74197e+09
-9.92739e+09
-9.99613e+09
-1.00041e+10
-9.97959e+09
-9.94088e+09
-9.90176e+09
-9.874e+09
-9.86785e+09
-9.89198e+09
-9.95256e+09
-1.00509e+10
-1.01812e+10
-1.03293e+10
-1.04714e+10
-1.05744e+10
-1.05977e+10
-1.04988e+10
-1.02406e+10
-9.79748e+09
-9.16154e+09
-8.38551e+09
-7.77728e+09
-8.21625e+09
-1.07229e+10
-1.34707e+10
-7.26721e+09
-1.21863e+10
-1.22391e+10
-1.22866e+10
-1.22721e+10
-1.22672e+10
-1.22829e+10
-1.2304e+10
-1.23288e+10
-1.2356e+10
-1.23852e+10
-1.24155e+10
-1.24448e+10
-1.24678e+10
-1.24766e+10
-1.24674e+10
-1.24481e+10
-1.24489e+10
-1.25032e+10
-1.25933e+10
-1.27163e+10
-1.29013e+10
-1.32356e+10
-1.3707e+10
-1.40304e+10
-1.33092e+10
-8.72506e+09
-9.35828e+09
-9.76905e+09
-9.95787e+09
-1.00283e+10
-1.00385e+10
-1.00156e+10
-9.97796e+09
-9.93971e+09
-9.91237e+09
-9.90552e+09
-9.92751e+09
-9.98424e+09
-1.00768e+10
-1.01993e+10
-1.03378e+10
-1.04691e+10
-1.0561e+10
-1.05736e+10
-1.04645e+10
-1.01964e+10
-9.74453e+09
-9.10158e+09
-8.32729e+09
-7.78612e+09
-8.52259e+09
-1.14886e+10
-1.37677e+10
-7.12258e+09
-1.22704e+10
-1.22807e+10
-1.22839e+10
-1.22755e+10
-1.22733e+10
-1.22773e+10
-1.22871e+10
-1.23056e+10
-1.23309e+10
-1.23613e+10
-1.23955e+10
-1.2431e+10
-1.24618e+10
-1.24781e+10
-1.24741e+10
-1.24598e+10
-1.24621e+10
-1.2517e+10
-1.26057e+10
-1.27063e+10
-1.29071e+10
-1.33414e+10
-1.39062e+10
-1.3325e+10
-7.36881e+09
-9.25513e+09
-9.67445e+09
-9.87347e+09
-9.95144e+09
-9.96361e+09
-9.94022e+09
-9.90176e+09
-9.86351e+09
-9.83785e+09
-9.83535e+09
-9.86481e+09
-9.93198e+09
-1.00377e+10
-1.01762e+10
-1.0333e+10
-1.04836e+10
-1.05926e+10
-1.06175e+10
-1.05144e+10
-1.02448e+10
-9.77916e+09
-9.10413e+09
-8.25765e+09
-7.50193e+09
-7.66836e+09
-9.97086e+09
-1.32561e+10
-7.87687e+09
-1.23231e+10
-1.22866e+10
-1.22891e+10
-1.22752e+10
-1.22739e+10
-1.22798e+10
-1.22897e+10
-1.23066e+10
-1.23295e+10
-1.23585e+10
-1.23921e+10
-1.24273e+10
-1.24579e+10
-1.2475e+10
-1.24729e+10
-1.24609e+10
-1.24638e+10
-1.25069e+10
-1.25882e+10
-1.26945e+10
-1.28783e+10
-1.33007e+10
-1.39079e+10
-1.38019e+10
-7.44448e+09
-9.30561e+09
-9.72382e+09
-9.92147e+09
-9.99953e+09
-1.00122e+10
-9.98857e+09
-9.9486e+09
-9.90688e+09
-9.8754e+09
-9.86458e+09
-9.8829e+09
-9.93585e+09
-1.00243e+10
-1.01428e+10
-1.02777e+10
-1.04058e+10
-1.04937e+10
-1.05014e+10
-1.03883e+10
-1.01185e+10
-9.66778e+09
-9.02888e+09
-8.2538e+09
-7.6742e+09
-8.2735e+09
-1.10921e+10
-1.37014e+10
-7.0788e+09
-1.22989e+10
-1.22739e+10
-1.22743e+10
-1.22707e+10
-1.22691e+10
-1.22689e+10
-1.22729e+10
-1.22844e+10
-1.23048e+10
-1.23335e+10
-1.23684e+10
-1.2406e+10
-1.24398e+10
-1.24615e+10
-1.24653e+10
-1.24567e+10
-1.24548e+10
-1.24809e+10
-1.25317e+10
-1.26058e+10
-1.27657e+10
-1.31272e+10
-1.35306e+10
-1.34411e+10
-1.10636e+10
-9.89596e+09
-9.8211e+09
-9.91058e+09
-9.98754e+09
-1.00155e+10
-1.00041e+10
-9.96855e+09
-9.92351e+09
-9.88176e+09
-9.85447e+09
-9.85164e+09
-9.88153e+09
-9.9494e+09
-1.0056e+10
-1.01961e+10
-1.03557e+10
-1.05102e+10
-1.06241e+10
-1.06561e+10
-1.05664e+10
-1.03208e+10
-9.89347e+09
-9.27516e+09
-8.50853e+09
-7.87116e+09
-8.24514e+09
-1.07706e+10
-1.3439e+10
-6.92327e+09
-1.2312e+10
-1.22685e+10
-1.22619e+10
-1.22544e+10
-1.22508e+10
-1.22493e+10
-1.22522e+10
-1.22617e+10
-1.22786e+10
-1.23038e+10
-1.23359e+10
-1.2372e+10
-1.24065e+10
-1.24315e+10
-1.24416e+10
-1.24407e+10
-1.24421e+10
-1.24623e+10
-1.25034e+10
-1.25655e+10
-1.27165e+10
-1.30675e+10
-1.33965e+10
-1.33021e+10
-1.1389e+10
-9.95513e+09
-9.86546e+09
-9.95089e+09
-1.00266e+10
-1.00557e+10
-1.00465e+10
-1.00117e+10
-9.96549e+09
-9.92058e+09
-9.88784e+09
-9.87698e+09
-9.89586e+09
-9.9495e+09
-1.00387e+10
-1.01583e+10
-1.0295e+10
-1.04248e+10
-1.05138e+10
-1.05231e+10
-1.04155e+10
-1.016e+10
-9.73764e+09
-9.14764e+09
-8.44601e+09
-7.95008e+09
-8.59934e+09
-1.13548e+10
-1.38289e+10
-7.52486e+09
-1.22739e+10
-1.22472e+10
-1.22427e+10
-1.22363e+10
-1.22298e+10
-1.22244e+10
-1.2222e+10
-1.22244e+10
-1.2234e+10
-1.22518e+10
-1.22762e+10
-1.23034e+10
-1.2328e+10
-1.23435e+10
-1.23457e+10
-1.2336e+10
-1.2319e+10
-1.22999e+10
-1.22819e+10
-1.22816e+10
-1.23475e+10
-1.24969e+10
-1.24969e+10
-1.19033e+10
-1.10638e+10
-1.05547e+10
-1.03285e+10
-1.02223e+10
-1.01705e+10
-1.01243e+10
-1.00713e+10
-1.00112e+10
-9.95037e+09
-9.89747e+09
-9.86133e+09
-9.85035e+09
-9.87173e+09
-9.9303e+09
-1.00271e+10
-1.01576e+10
-1.03086e+10
-1.04559e+10
-1.05653e+10
-1.05984e+10
-1.05201e+10
-1.03038e+10
-9.93233e+09
-9.40677e+09
-8.78451e+09
-8.35911e+09
-8.96821e+09
-1.15016e+10
-1.38294e+10
-6.93349e+09
-1.22741e+10
-1.22496e+10
-1.22404e+10
-1.22315e+10
-1.22225e+10
-1.22149e+10
-1.22112e+10
-1.22127e+10
-1.22212e+10
-1.22373e+10
-1.22604e+10
-1.22877e+10
-1.23146e+10
-1.23348e+10
-1.23433e+10
-1.23393e+10
-1.2327e+10
-1.23117e+10
-1.22984e+10
-1.23031e+10
-1.23742e+10
-1.25241e+10
-1.25114e+10
-1.19332e+10
-1.10636e+10
-1.05445e+10
-1.03193e+10
-1.02178e+10
-1.01711e+10
-1.01303e+10
-1.00827e+10
-1.00265e+10
-9.96827e+09
-9.91692e+09
-9.88133e+09
-9.8698e+09
-9.88939e+09
-9.94489e+09
-1.00374e+10
-1.0162e+10
-1.03053e+10
-1.04428e+10
-1.05405e+10
-1.05601e+10
-1.0467e+10
-1.02351e+10
-9.84992e+09
-9.31529e+09
-8.68722e+09
-8.2551e+09
-8.88179e+09
-1.15857e+10
-1.439e+10
-8.22975e+09
-1.22548e+10
-1.22361e+10
-1.22271e+10
-1.22171e+10
-1.2208e+10
-1.21992e+10
-1.21926e+10
-1.21902e+10
-1.21938e+10
-1.22044e+10
-1.22213e+10
-1.22411e+10
-1.22595e+10
-1.22724e+10
-1.22766e+10
-1.22704e+10
-1.22532e+10
-1.22246e+10
-1.21879e+10
-1.2158e+10
-1.21544e+10
-1.21464e+10
-1.19945e+10
-1.1594e+10
-1.11241e+10
-1.0791e+10
-1.05764e+10
-1.04271e+10
-1.03183e+10
-1.02274e+10
-1.01432e+10
-1.00627e+10
-9.98859e+09
-9.92659e+09
-9.88359e+09
-9.86651e+09
-9.88169e+09
-9.93365e+09
-1.00236e+10
-1.01472e+10
-1.0291e+10
-1.04308e+10
-1.0532e+10
-1.0556e+10
-1.0469e+10
-1.0248e+10
-9.88179e+09
-9.37682e+09
-8.79308e+09
-8.42082e+09
-9.09205e+09
-1.16888e+10
-1.40546e+10
-7.26653e+09
-1.2261e+10
-1.22401e+10
-1.22308e+10
-1.22192e+10
-1.22081e+10
-1.21973e+10
-1.21892e+10
-1.21856e+10
-1.21881e+10
-1.21975e+10
-1.22136e+10
-1.22336e+10
-1.22539e+10
-1.22702e+10
-1.22786e+10
-1.22759e+10
-1.2262e+10
-1.22382e+10
-1.22086e+10
-1.21879e+10
-1.21933e+10
-1.21883e+10
-1.20291e+10
-1.16084e+10
-1.1109e+10
-1.07627e+10
-1.05487e+10
-1.04044e+10
-1.02996e+10
-1.02125e+10
-1.01323e+10
-1.00557e+10
-9.98572e+09
-9.92855e+09
-9.89132e+09
-9.88118e+09
-9.90456e+09
-9.96615e+09
-1.00671e+10
-1.02025e+10
-1.03579e+10
-1.05079e+10
-1.06167e+10
-1.06438e+10
-1.0553e+10
-1.03177e+10
-9.92381e+09
-9.37247e+09
-8.71034e+09
-8.1911e+09
-8.63153e+09
-1.12786e+10
-1.47817e+10
-9.43748e+09
-1.22342e+10
-1.22145e+10
-1.22055e+10
-1.21937e+10
-1.21817e+10
-1.21692e+10
-1.21582e+10
-1.21507e+10
-1.21484e+10
-1.21527e+10
-1.21633e+10
-1.21769e+10
-1.21893e+10
-1.21981e+10
-1.22011e+10
-1.21952e+10
-1.21781e+10
-1.21485e+10
-1.21094e+10
-1.2069e+10
-1.2028e+10
-1.19524e+10
-1.17758e+10
-1.14846e+10
-1.11666e+10
-1.09017e+10
-1.06967e+10
-1.05349e+10
-1.04019e+10
-1.02865e+10
-1.01811e+10
-1.00842e+10
-9.99797e+09
-9.92717e+09
-9.87762e+09
-9.85563e+09
-9.86722e+09
-9.9171e+09
-1.00069e+10
-1.01324e+10
-1.02799e+10
-1.04243e+10
-1.05296e+10
-1.05552e+10
-1.04661e+10
-1.02401e+10
-9.86677e+09
-9.35051e+09
-8.74619e+09
-8.33841e+09
-8.96524e+09
-1.16315e+10
-1.45031e+10
-8.34983e+09
-1.22409e+10
-1.22213e+10
-1.22129e+10
-1.22007e+10
-1.21878e+10
-1.21741e+10
-1.21623e+10
-1.21545e+10
-1.21519e+10
-1.21557e+10
-1.21657e+10
-1.21792e+10
-1.21926e+10
-1.22029e+10
-1.2207e+10
-1.22015e+10
-1.21845e+10
-1.21564e+10
-1.21208e+10
-1.20849e+10
-1.20472e+10
-1.19707e+10
-1.17858e+10
-1.14794e+10
-1.11428e+10
-1.08672e+10
-1.06592e+10
-1.04974e+10
-1.0364e+10
-1.02488e+10
-1.01448e+10
-1.00503e+10
-9.96831e+09
-9.90373e+09
-9.86287e+09
-9.85234e+09
-9.87857e+09
-9.94659e+09
-1.00579e+10
-1.02074e+10
-1.03803e+10
-1.05499e+10
-1.06785e+10
-1.07225e+10
-1.06421e+10
-1.04087e+10
-1.00048e+10
-9.42357e+09
-8.69744e+09
-8.06438e+09
-8.32291e+09
-1.09419e+10
-1.54418e+10
-1.26434e+10
-1.22109e+10
-1.21944e+10
-1.21867e+10
-1.21751e+10
-1.2163e+10
-1.21498e+10
-1.21374e+10
-1.21278e+10
-1.21227e+10
-1.21237e+10
-1.21306e+10
-1.21404e+10
-1.21488e+10
-1.21535e+10
-1.21532e+10
-1.21455e+10
-1.2127e+10
-1.20959e+10
-1.20537e+10
-1.20026e+10
-1.19355e+10
-1.1828e+10
-1.16527e+10
-1.14174e+10
-1.11669e+10
-1.09396e+10
-1.07452e+10
-1.05788e+10
-1.04331e+10
-1.03021e+10
-1.01813e+10
-1.00699e+10
-9.97084e+09
-9.8889e+09
-9.82984e+09
-9.79999e+09
-9.80563e+09
-9.85186e+09
-9.94079e+09
-1.00685e+10
-1.02209e+10
-1.03717e+10
-1.04836e+10
-1.05152e+10
-1.04314e+10
-1.02105e+10
-9.84238e+09
-9.32792e+09
-8.71855e+09
-8.32244e+09
-9.01474e+09
-1.17092e+10
-1.41578e+10
-7.19747e+09
-1.22177e+10
-1.21997e+10
-1.21933e+10
-1.21817e+10
-1.21692e+10
-1.2155e+10
-1.21418e+10
-1.21317e+10
-1.21262e+10
-1.21266e+10
-1.21328e+10
-1.21424e+10
-1.21517e+10
-1.21575e+10
-1.21575e+10
-1.21489e+10
-1.21294e+10
-1.20978e+10
-1.20559e+10
-1.20056e+10
-1.19387e+10
-1.18277e+10
-1.1644e+10
-1.1396e+10
-1.11336e+10
-1.08992e+10
-1.0703e+10
-1.05369e+10
-1.0391e+10
-1.02599e+10
-1.01395e+10
-1.00292e+10
-9.93261e+09
-9.85467e+09
-9.80153e+09
-9.77999e+09
-9.79669e+09
-9.85695e+09
-9.96257e+09
-1.01088e+10
-1.02811e+10
-1.04521e+10
-1.05825e+10
-1.06279e+10
-1.05485e+10
-1.03169e+10
-9.9154e+09
-9.33598e+09
-8.61798e+09