/*--------------------------------*- C++ -*----------------------------------*\
| =========                 |                                                 |
| \\      /  F ield         | OpenFOAM: The Open Source CFD Toolbox           |
|  \\    /   O peration     | Version:  4.1                                   |
|   \\  /    A nd           | Web:      www.OpenFOAM.org                      |
|    \\/     M anipulation  |                                                 |
\*---------------------------------------------------------------------------*/
FoamFile
{
    version     2.0;
    format      ascii;
    class       volScalarField;
    location    "22";
    object      p;
}
// * * * * * * * * * * * * * * * * * * * * * * * * * * * * * * * * * * * * * //

dimensions      [0 2 -2 0 0 0 0];

internalField   nonuniform List<scalar> 
4432
(
102792
102791
102785
102776
102766
102756
102748
102743
102741
102741
102741
102741
102738
102731
102718
102701
102673
102633
102610
102617
102738
102803
102673
102653
102757
102784
102618
102326
102000
101691
101447
101262
101390
101685
102017
101963
101519
101508
101497
101431
101348
101138
101101
101088
101176
102050
101770
100875
100800
102034
104026
100808
85045.5
77221.8
102792
102790
102784
102775
102765
102755
102748
102743
102741
102741
102741
102741
102738
102731
102719
102701
102672
102633
102602
102597
102669
102828
102834
102741
102678
102723
102630
102260
101892
101647
101507
101365
101507
101566
101592
101635
101671
101594
101418
101268
101135
101072
101095
100997
100671
101431
101579
100770
100886
101869
104434
102127
85177.6
76286.7
102789
102786
102780
102770
102758
102747
102739
102733
102731
102731
102733
102736
102738
102738
102737
102731
102719
102682
102652
102695
102756
102794
102771
102747
102689
102563
102350
102099
101838
101607
101446
101288
101193
101271
101350
101383
101476
101470
101367
101267
101110
100977
100912
100940
101032
101291
101306
100562
100236
100697
102780
99811.2
81641.4
90266.3
102789
102785
102778
102769
102757
102747
102738
102733
102731
102731
102733
102736
102738
102738
102736
102732
102720
102680
102654
102696
102764
102798
102769
102724
102663
102543
102357
102100
101827
101636
101472
101307
101220
101304
101461
101484
101496
101432
101329
101131
100921
100800
100725
100818
100889
101170
101283
100831
101009
101754
103570
101181
82335.9
90711.9
102786
102784
102777
102768
102756
102745
102736
102730
102727
102726
102728
102732
102737
102743
102751
102754
102754
102691
102659
102728
102792
102793
102752
102708
102658
102570
102393
102133
101853
101592
101315
101037
100930
101109
101243
101355
101498
101598
101620
101533
101312
101179
101131
101096
101116
100929
100728
100150
99824
98962
96783.9
95041.8
89123
96811
102785
102783
102776
102767
102756
102745
102736
102730
102727
102726
102728
102732
102737
102743
102751
102757
102758
102690
102650
102733
102790
102792
102764
102728
102673
102569
102375
102104
101826
101588
101305
100990
100850
101015
101273
101424
101531
101612
101616
101450
101233
100978
100826
100824
100853
100798
100566
100215
100104
99865
98477.4
97821.9
89571.5
96104.3
102782
102780
102773
102763
102752
102740
102731
102724
102721
102721
102723
102728
102734
102743
102752
102756
102750
102691
102649
102733
102795
102798
102777
102754
102736
102669
102489
102173
101833
101539
101245
101006
100931
100981
101065
101313
101449
101573
101668
101595
101392
101130
100960
100876
100817
100687
100753
100375
100245
100570
100309
97725.6
91381.3
91934.5
102781
102779
102772
102762
102751
102740
102731
102724
102721
102721
102723
102728
102735
102743
102753
102758
102749
102687
102647
102740
102796
102801
102787
102775
102753
102680
102482
102164
101828
101513
101191
100941
100841
100960
101158
101394
101523
101668
101774
101631
101405
101136
100855
100654
100570
100452
100230
100022
99819.3
100655
101096
99083
90923.2
91077.8
102777
102774
102768
102758
102746
102735
102725
102719
102715
102715
102717
102722
102728
102736
102743
102743
102735
102706
102651
102730
102807
102842
102833
102818
102817
102786
102672
102404
102072
101760
101506
101369
101341
101409
101667
101718
101528
101549
101580
101464
101371
101000
100675
100537
100632
100893
100854
100520
100321
100707
101546
99307.4
93339.1
97956.2
102776
102773
102767
102757
102746
102734
102725
102719
102715
102715
102718
102722
102729
102736
102743
102744
102734
102696
102666
102731
102812
102850
102843
102827
102833
102807
102671
102386
102066
101749
101493
101359
101342
101358
101581
101556
101533
101633
101720
101595
101364
101128
100745
100486
100380
100336
100233
100130
100134
100846
102008
100503
93043.1
96386.8
102771
102768
102762
102752
102740
102729
102719
102712
102709
102708
102710
102714
102719
102725
102729
102729
102722
102710
102696
102737
102809
102881
102900
102875
102893
102906
102865
102728
102488
102240
102005
101870
101912
102259
102545
101665
101523
101513
101522
101337
101039
100728
100654
100454
100410
100823
100841
100692
100501
100590
100931
98602.9
93681.5
97097
102770
102767
102761
102751
102740
102728
102719
102712
102709
102709
102711
102715
102720
102725
102730
102729
102724
102712
102702
102734
102811
102881
102900
102897
102906
102915
102867
102706
102490
102257
102023
101874
101904
101999
101900
101657
101536
101568
101629
101508
101191
100980
100702
100505
100486
100535
100486
100444
100473
100820
101319
99050.9
93822.1
97832.9
102764
102762
102755
102745
102734
102722
102713
102706
102702
102701
102702
102705
102709
102714
102717
102719
102717
102718
102728
102756
102817
102891
102920
102909
102908
102961
102997
102974
102837
102609
102354
102177
102191
102436
101987
102246
101490
101488
101583
101534
101278
101108
100969
100693
100475
100613
100712
100805
100753
100660
100611
98770.6
94987.4
95693.3
102763
102761
102754
102745
102733
102722
102712
102706
102702
102702
102703
102706
102710
102714
102718
102720
102719
102719
102723
102754
102820
102899
102915
102905
102930
102975
102994
102931
102811
102636
102389
102182
102110
102098
101867
101604
101436
101534
101658
101612
101402
101248
101022
100749
100673
100778
100763
100784
100833
100842
100745
98699.6
94951.3
96270.3
102757
102755
102748
102738
102727
102715
102706
102699
102695
102694
102694
102696
102699
102703
102708
102712
102716
102722
102734
102757
102804
102882
102939
102920
102840
102926
103005
102992
102887
102699
102485
102247
102070
101989
101717
101461
101478
101656
101815
101886
101725
101539
101357
100996
100612
100555
100695
100947
101033
100918
100919
99513.3
95647.5
97886.8
102756
102754
102747
102738
102726
102715
102706
102699
102696
102694
102695
102697
102700
102705
102709
102713
102717
102723
102733
102755
102803
102878
102924
102914
102896
102948
102984
102961
102881
102730
102509
102272
102081
101916
101680
101507
101506
101666
101849
101895
101756
101573
101282
100894
100753
100867
100963
101062
101064
101068
101130
99553.7
95652.2
98210.9
102749
102747
102741
102731
102720
102708
102699
102693
102689
102687
102687
102688
102691
102696
102701
102708
102716
102726
102740
102760
102794
102847
102905
102899
102818
102852
102912
102880
102791
102636
102445
102241
102061
101887
101678
101588
101647
101841
102081
102235
102212
102006
101712
101309
100838
100600
100676
100922
101032
100927
100728
99275.7
95506.3
97618.8
102749
102746
102740
102730
102719
102708
102699
102693
102689
102687
102687
102689
102692
102697
102703
102710
102718
102727
102740
102759
102792
102841
102895
102913
102863
102871
102889
102841
102767
102642
102463
102260
102064
101888
101691
101591
101676
101851
102054
102187
102168
101974
101584
101105
100817
100774
100909
101042
101150
101252
101194
99539.3
95538
97926.9
102741
102739
102733
102723
102712
102702
102693
102686
102682
102680
102680
102681
102684
102689
102696
102706
102718
102730
102745
102763
102786
102813
102845
102851
102783
102742
102742
102731
102692
102589
102433
102258
102090
101936
101800
101754
101847
102027
102246
102449
102561
102444
102085
101606
101091
100685
100505
100576
100602
100372
99966.8
98917.7
97101.5
98838.6
102741
102738
102732
102723
102712
102701
102692
102686
102682
102680
102680
102682
102685
102690
102698
102707
102719
102731
102746
102763
102785
102812
102839
102848
102806
102761
102759
102739
102678
102572
102428
102260
102091
101949
101828
101769
101859
102032
102234
102394
102451
102323
101933
101391
100956
100712
100638
100809
101051
101081
100802
99499
96445.7
97594.8
102733
102731
102725
102716
102705
102695
102686
102680
102676
102674
102673
102675
102678
102683
102692
102704
102718
102733
102749
102765
102780
102788
102799
102791
102716
102629
102606
102618
102606
102535
102416
102277
102135
102016
101931
101902
101984
102160
102355
102524
102631
102637
102403
101955
101321
100797
100489
100379
100171
99733.1
99271.7
98531.1
97345.9
94883.7
102733
102730
102724
102715
102705
102694
102686
102680
102676
102674
102674
102675
102679
102685
102694
102705
102719
102734
102750
102765
102780
102792
102799
102780
102718
102646
102629
102640
102612
102529
102409
102272
102137
102029
101958
101933
102022
102187
102361
102500
102559
102499
102234
101686
101087
100659
100447
100453
100546
100506
100249
99591.3
97271.9
94312
102725
102723
102717
102708
102698
102688
102680
102673
102670
102668
102667
102668
102672
102678
102688
102701
102717
102734
102752
102768
102781
102787
102778
102728
102606
102494
102488
102531
102544
102500
102412
102305
102199
102112
102057
102046
102108
102236
102382
102500
102564
102556
102482
102248
101679
101072
100670
100492
100221
99692.7
99096.5
98558.2
97763.3
95461.6
102725
102722
102717
102708
102698
102688
102680
102674
102670
102668
102668
102669
102673
102679
102689
102702
102718
102735
102752
102767
102781
102789
102778
102722
102602
102498
102496
102539
102546
102498
102407
102300
102198
102119
102075
102070
102138
102270
102409
102508
102535
102472
102298
101915
101346
100807
100456
100288
100177
99982.1
99755.3
99661
98269
97733.1
102717
102715
102710
102701
102691
102681
102673
102668
102664
102662
102661
102662
102666
102672
102682
102696
102713
102732
102752
102771
102790
102801
102782
102682
102440
102288
102365
102472
102522
102510
102455
102382
102309
102253
102221
102222
102260
102325
102394
102435
102434
102391
102290
102126
101763
101263
100840
100609
100430
100061
99480.6
98607.1
97709.5
94816.7
102717
102715
102709
102701
102691
102681
102673
102668
102664
102662
102662
102663
102667
102673
102683
102697
102714
102732
102751
102771
102790
102801
102783
102668
102422
102278
102364
102473
102520
102505
102449
102374
102302
102248
102223
102227
102268
102337
102406
102440
102420
102340
102177
101904
101496
101038
100658
100412
100224
99937.6
99480.6
98748.9
97812.5
94637.4
102710
102708
102702
102694
102684
102675
102667
102662
102658
102656
102655
102656
102659
102665
102674
102688
102704
102724
102746
102771
102805
102842
102861
102718
102226
101973
102251
102441
102527
102545
102524
102485
102446
102421
102417
102431
102452
102465
102455
102401
102317
102209
102072
101885
101615
101264
100915
100631
100391
100049
99496.4
98506.1
97274.5
94360.7
102709
102707
102702
102693
102684
102675
102667
102662
102658
102656
102656
102656
102660
102666
102675
102689
102705
102724
102745
102770
102804
102843
102865
102707
102188
101969
102258
102446
102532
102544
102522
102481
102441
102417
102416
102439
102463
102474
102466
102402
102302
102178
102014
101787
101483
101133
100801
100522
100265
99910.1
99344.7
98333
97036.9
94117.9
102702
102700
102695
102687
102678
102669
102662
102656
102652
102650
102649
102649
102651
102656
102664
102675
102690
102707
102727
102754
102798
102886
103007
103032
101380
101692
102278
102526
102618
102633
102620
102600
102583
102582
102604
102650
102679
102657
102575
102416
102237
102068
101900
101713
101487
101221
100939
100657
100355
99948.1
99337.6
98347
96937.5
94384.1
102702
102699
102694
102687
102678
102669
102662
102656
102652
102650
102649
102649
102652
102656
102665
102676
102690
102707
102726
102752
102793
102876
102991
102901
101048
101678
102339
102570
102649
102654
102633
102607
102587
102586
102621
102702
102725
102684
102600
102411
102213
102037
101863
101666
101429
101158
100876
100593
100282
99860.4
99230.2
98225.5
96793.2
94273
102695
102693
102688
102680
102671
102663
102656
102650
102647
102644
102642
102641
102642
102645
102650
102659
102669
102681
102692
102706
102725
102759
102919
103224
101659
102317
102590
102692
102705
102696
102687
102685
102700
102740
102817
102885
102868
102714
102447
102181
101963
101780
101606
101419
101207
100973
100709
100387
99941.6
99309
98339.4
96974.3
94501.7
102694
102692
102687
102680
102671
102663
102656
102651
102647
102644
102642
102641
102642
102645
102651
102659
102669
102680
102691
102704
102718
102743
102891
102303
101627
102380
102649
102742
102743
102721
102702
102693
102705
102745
102901
102988
102894
102713
102404
102135
101918
101740
101569
101383
101173
100937
100669
100338
99882.3
99237.7
98272.2
96868.7
94482.1
102688
102686
102681
102674
102665
102657
102650
102645
102641
102637
102635
102632
102631
102632
102635
102639
102643
102646
102645
102635
102608
102537
102350
102032
101555
102066
102563
102741
102746
102714
102691
102682
102687
102705
102736
102801
102879
102857
102684
102399
102096
101849
101663
101511
101361
101193
100998
100756
100422
99933.1
99264.6
98281
97170.5
94579
102687
102685
102681
102673
102665
102657
102650
102645
102641
102638
102635
102633
102632
102633
102635
102639
102643
102645
102643
102633
102602
102526
102328
101958
101417
102157
102631
102801
102798
102755
102720
102700
102694
102699
102709
102808
102938
102873
102619
102313
102032
101801
101618
101469
101326
101165
100973
100729
100393
99913.2
99265.8
98342.8
97128.8
94667.2
102681
102679
102675
102668
102660
102652
102645
102639
102635
102631
102627
102623
102620
102618
102617
102616
102614
102608
102594
102567
102519
102441
102337
102216
102137
102253
102527
102655
102664
102643
102625
102620
102625
102634
102650
102639
102618
102694
102549
102252
101979
101748
101566
101428
101304
101173
101021
100811
100469
99927.9
99193.6
98170.2
97339.4
94628
102681
102679
102674
102667
102659
102652
102645
102639
102635
102631
102627
102624
102621
102619
102618
102617
102614
102608
102593
102565
102516
102437
102331
102206
102124
102258
102528
102657
102672
102653
102635
102625
102622
102614
102599
102576
102558
102374
101562
101604
101792
101693
101538
101387
101262
101141
100996
100787
100455
99958.3
99305.7
98389.8
97430.7
94704.3
102675
102673
102668
102662
102654
102647
102640
102634
102629
102624
102619
102614
102609
102604
102599
102593
102585
102572
102550
102517
102471
102413
102355
102297
102248
102282
102398
102486
102515
102518
102522
102538
102563
102594
102597
102482
102459
101344
100694
101368
101734
101735
101592
101445
101306
101192
101094
100944
100616
100036
99225
98160
97392.4
94397
102674
102672
102668
102661
102654
102646
102640
102634
102629
102624
102619
102614
102609
102604
102599
102593
102585
102571
102549
102516
102470
102412
102354
102294
102240
102278
102393
102480
102510
102512
102516
102532
102559
102552
102566
102508
102033
98905.4
97964.7
99224
100158
101460
101589
101429
101274
101158
101058
100900
100592
100093
99400.9
98439.2
97660
94639.2
102669
102667
102663
102656
102649
102641
102635
102629
102623
102617
102611
102604
102597
102589
102581
102571
102558
102539
102513
102478
102435
102387
102340
102294
102258
102260
102301
102344
102364
102375
102397
102445
102487
102658
102691
101478
98144
94404.6
95585.4
98488.3
99790.3
101448
101763
101614
101415
101286
101240
101159
100850
100275
99444.8
98463.4
97645.3
94391.8
102668
102667
102662
102656
102649
102641
102635
102629
102623
102617
102611
102604
102597
102589
102581
102571
102557
102538
102512
102477
102434
102387
102339
102291
102255
102256
102297
102341
102362
102374
102399
102455
102538
102663
102561
101827
95406.4
92581.7
94221.2
96988.1
98446.5
100427
101709
101636
101443
101274
101188
101074
100798
100329
99600.1
98690.5
97906.4
94649.8
102663
102661
102657
102651
102644
102637
102630
102623
102617
102610
102603
102595
102585
102575
102563
102549
102532
102509
102480
102444
102401
102355
102308
102265
102229
102208
102207
102212
102214
102221
102245
102314
102331
102571
102001
96118.8
90235.4
90225.3
93719.2
97346.8
99499.9
101569
102131
101904
101616
101457
101429
101354
101025
100469
99715.6
98923.9
98139.7
98416.7
102663
102661
102657
102651
102644
102636
102630
102623
102617
102610
102603
102595
102585
102575
102563
102549
102531
102508
102479
102443
102400
102354
102307
102264
102226
102205
102204
102211
102214
102222
102254
102363
102511
102630
102088
93222.3
87669.4
89263.7
93329.3
96638.9
99271.3
101338
102143
101939
101674
101488
101381
101257
100986
100553
99847.7
99305.7
98492.2
95541
102658
102656
102652
102646
102639
102632
102625
102618
102611
102604
102595
102585
102574
102561
102547
102529
102508
102482
102449
102411
102367
102320
102271
102224
102179
102141
102110
102085
102064
102052
102053
102107
102115
101611
99024.1
85514.2
85525.9
89518.9
94223.5
98105.7
101007
102635
102627
102192
101834
101674
101635
101513
101134
100452
99510.6
98459.8
97906.2
99836.2
102658
102656
102652
102646
102639
102632
102625
102618
102611
102604
102595
102585
102574
102561
102546
102529
102508
102481
102449
102410
102366
102319
102270
102222
102178
102138
102107
102084
102063
102046
102030
102072
102382
101740
91195.2
82245.8
84916.1
89102.2
93735.5
98044.3
101102
102475
102491
102163
101876
101728
101625
101488
101190
100643
99753.2
99210.9
98730.2
99816.2
102653
102652
102648
102642
102635
102628
102621
102614
102606
102598
102588
102576
102563
102548
102531
102511
102486
102456
102421
102380
102334
102283
102230
102175
102120
102064
102010
101960
101910
101860
101807
101793
101741
100335
86883.2
80788.2
86159.6
91616.9
96584.6
100391
102254
102882
102907
102418
102111
101987
101935
101814
101471
100592
99433.8
97828.6
96002
96221.2
102653
102651
102648
102642
102635
102628
102621
102614
102606
102598
102588
102576
102563
102548
102531
102510
102486
102456
102420
102379
102333
102282
102229
102174
102117
102062
102009
101959
101909
101852
101774
101642
101479
96376.3
83067.1
82252.6
86912.4
91723.2
96641.3
100385
102156
102899
102689
102324
102111
102020
101978
101888
101608
100716
99297.5
98222.1
97822.7
99830.5
102649
102648
102644
102638
102631
102624
102617
102609
102601
102592
102581
102568
102554
102536
102517
102494
102466
102434
102395
102351
102301
102246
102187
102124
102057
101986
101913
101837
101753
101662
101534
102067
101210
77533.9
73178.4
82254.9
89795.6
95470.6
100058
102574
103292
103084
102798
102581
102421
102366
102322
102202
101972
101338
100842
99524
95744.5
97908.7
102649
102647
102644
102638
102631
102624
102617
102609
102601
102592
102581
102568
102553
102536
102516
102493
102466
102433
102394
102350
102300
102245
102186
102122
102056
101985
101912
101837
101756
101657
101553
101242
96771.4
86466
79935.5
85342.7
90994.1
95999.3
100244
101919
103238
103144
102777
102501
102382
102377
102383
102328
102175
101279
99939.4
98778.9
96665.2
95799.9
102645
102644
102640
102635
102628
102620
102613
102605
102597
102587
102575
102561
102545
102526
102504
102478
102448
102413
102372
102324
102270
102211
102145
102074
101996
101910
101819
101721
101605
101470
101253
101115
101955
82323.3
84767.1
91854.8
97548.5
101456
103684
104001
103791
103184
102790
102728
102679
102682
102601
102348
102158
101952
101944
100312
95007.5
97053.7
102645
102644
102640
102634
102628
102620
102613
102605
102596
102586
102575
102561
102544
102525
102503
102478
102448
102412
102371
102323
102269
102210
102144
102073
101994
101910
101819
101724
101609
101480
101346
101051
95936
82827.1
86841.2
93213.8
98167.3
101824
103983
104293
103642
103224
102831
102677
102630
102674
102653
102490
102367
101857
101068
99810.5
95674.8
98454.7
102642
102641
102637
102632
102625
102617
102610
102602
102593
102582
102569
102554
102537
102516
102493
102465
102433
102395
102351
102300
102243
102179
102108
102028
101940
101842
101735
101617
101482
101318
101171
101254
105630
109557
102973
104009
106251
106686
105655
104466
103465
102927
102743
102844
102878
102985
102754
102219
101950
101337
99604.9
96223.9
91748.9
96460.1
102642
102641
102637
102631
102625
102617
102610
102602
102592
102582
102569
102554
102537
102516
102492
102465
102432
102394
102350
102299
102241
102178
102106
102027
101939
101841
101733
101619
101484
101328
101146
100996
102821
99485.2
100420
103895
106495
106926
106023
104276
103342
102946
102791
102815
102831
102970
102735
102251
101996
100831
98563.2
95578.8
91830.4
96121.8
102640
102638
102635
102629
102622
102615
102607
102599
102589
102578
102565
102549
102530
102509
102483
102454
102420
102380
102333
102280
102219
102151
102075
101989
101892
101783
101663
101528
101378
101194
101011
100745
101162
104011
104425
106409
108174
107856
105878
103738
102700
102564
102793
103007
103111
103377
103228
102719
102313
100548
97003
93508.1
89351
97107.6
102639
102638
102634
102629
102622
102615
102607
102599
102589
102578
102564
102549
102530
102508
102483
102453
102419
102379
102332
102279
102218
102150
102074
101988
101891
101780
101662
101524
101367
101178
100980
100523
100793
101556
103638
106634
108433
107699
105695
103586
102618
102561
102815
102995
103050
103276
103089
102562
102190
99949.6
96660.1
93246.4
89007.2
96689.4
102638
102636
102633
102627
102620
102613
102605
102596
102587
102575
102561
102544
102525
102502
102476
102445
102409
102368
102319
102264
102200
102129
102049
101958
101855
101740
101612
101467
101305
101112
100893
100638
100210
100622
101973
104422
106148
106453
105024
103155
102321
102504
102949
103243
103345
103604
103221
102724
102348
100733
99086.7
94938.2
84906.9
93657.2
102637
102636
102632
102627
102620
102613
102605
102596
102586
102575
102561
102544
102525
102502
102475
102445
102409
102367
102318
102263
102199
102128
102048
101957
101855
101739
101612
101464
101299
101103
100886
100545
100236
100435
102281
104572
105569
105550
104520
103070
102287
102489
102931
103223
103265
103434
103181
102730
102276
100370
99403.5
95605.8
85393.5
93363.5
102636
102635
102631
102626
102619
102612
102604
102595
102585
102573
102559
102542
102522
102498
102471
102439
102402
102359
102310
102252
102188
102114
102031
101938
101832
101713
101580
101432
101265
101071
100847
100597
100254
99897.2
99504.4
99827.3
99337.4
99273.5
99212.6
100364
101512
102347
102850
103326
103509
103671
103224
102781
103147
104289
107576
104225
82781
88745.7
102636
102635
102631
102626
102619
102612
102604
102595
102585
102573
102558
102541
102521
102498
102470
102439
102401
102358
102309
102251
102187
102113
102031
101937
101831
101713
101581
101434
101265
101059
100846
100627
100216
99935
100012
100021
99899.8
99436.1
99319
100412
101607
102386
102897
103313
103414
103483
103159
102926
102994
103893
107752
104576
83045.6
88585.3
102635
102633
102630
102624
102618
102610
102603
102594
102583
102571
102557
102539
102519
102495
102467
102435
102397
102354
102303
102245
102179
102105
102021
101926
101819
101699
101565
101417
101250
101060
100843
100592
100243
99733.6
99124.9
98234.6
96993.7
96078.2
96331
97894.6
99769.8
101532
102677
103118
103350
103299
103237
103220
103441
106456
110966
106357
86576.5
75458.7
102635
102633
102630
102624
102618
102610
102602
102594
102583
102571
102556
102539
102519
102495
102467
102434
102397
102353
102302
102244
102178
102104
102020
101925
101818
101699
101566
101419
101251
101061
100851
100623
100303
99816.5
99128.5
98062.1
96935.6
96084.7
96217.6
97667.5
99629.8
101843
102676
103086
103296
103263
103068
103077
103773
106461
111073
106945
87127.9
75276.7
101793
102959
101577
103587
103051
101435
100969
101409
101423
101265
101668
102722
101757
102839
102868
101359
101404
101472
101261
101337
102769
102053
101455
102046
101286
101549
101400
101460
101561
101322
101393
102870
101982
101187
102011
100829
101370
101407
101252
101406
100872
101678
102516
102712
102504
102790
102437
102771
102404
102009
102199
101982
101836
101600
101805
101586
102496
102666
102436
102759
102457
102689
102346
101967
102140
101951
101832
101567
101712
101526
103136
103006
103124
103058
103301
103065
103304
100819
101254
101369
101313
100673
101951
101692
101975
101542
101832
101489
101844
103088
102926
103000
103029
103218
102957
103101
100427
100903
101249
101135
100358
101987
101711
101989
101506
101886
101557
101908
103005
102924
103070
102638
102480
102633
102497
100933
103180
102557
102505
101119
101487
101605
101956
101610
101956
101768
102026
101710
102021
102971
102836
102881
102606
102428
102588
102427
100344
102548
102250
100686
102286
101023
101374
101989
101677
102017
101764
102093
101855
102141
101771
102028
101718
102110
101930
102109
101921
101535
101462
101469
101822
101894
101804
101893
101622
101952
101618
102081
101888
102079
101895
101565
101457
101704
101796
101921
101812
101946
102817
102424
101753
102375
102880
102894
101697
102446
102368
102523
103469
103561
103554
103535
103545
103149
103233
103440
103133
103404
103427
102916
103172
102241
100896
101245
100953
101249
100661
100716
100650
100934
101386
101394
101362
100901
100804
100699
100931
101240
101299
101264
100985
102878
102516
101627
102259
102310
102344
101613
102102
102101
100493
103355
102855
103084
102460
103425
107275
100721
103051
104217
103012
102928
106204
103131
101293
100551
101220
101178
101130
100615
100496
100361
100710
101260
101272
100867
101238
100501
100806
100824
101275
101337
101292
100928
100183
100291
100774
103071
102392
102494
100578
100122
100054
100424
101529
101463
101530
100546
100375
101394
101393
100372
101479
101493
101522
101556
101492
101598
101448
101313
101437
101435
101385
101418
101333
101326
101495
101461
101452
101438
101279
101423
101353
101261
101385
99425.9
100157
100588
102849
102580
102444
100982
99847.2
99566.9
100253
101347
100955
100523
101206
100221
100884
101201
101164
100394
101014
101334
101339
101265
101317
99413.1
114450
100793
101390
101275
101366
100528
101234
101299
100992
101232
101268
100565
101022
101249
101200
99699.5
103160
102871
103015
103295
102832
103272
103193
103227
102837
102766
102918
102612
102969
102782
103163
102988
102793
103112
102812
103230
103075
101245
101283
101444
101356
101310
101374
101192
101226
101452
101214
101309
101333
101311
101161
102711
102750
102284
103394
102448
102975
102671
100854
101089
101339
101244
101134
100912
101168
101138
101352
101299
101314
101195
101307
101141
101463
102140
101746
102034
102102
101721
101515
101398
102119
102062
101685
102138
101377
101720
101389
101536
101498
101481
101445
101405
101481
101283
101334
101419
101300
101363
101239
101326
101606
102073
101711
101951
101587
102038
101671
101585
102166
101953
101739
102059
101641
101771
101235
101315
101287
101554
101230
101333
101397
100991
101357
101652
101627
101388
101424
100736
100874
101244
100280
100739
101199
100791
100248
100213
100209
100097
100220
100215
100043
100034
100114
100797
100700
101008
100164
101145
100210
100678
100586
100772
100380
100196
100718
100593
100135
100099
100531
99834.4
100196
100321
100411
100526
99617.2
100028
100587
99932.6
100381
99872.9
100178
100231
102065
101315
101656
100995
101375
101961
101703
102625
103328
103297
102706
102610
103182
103256
102491
102070
100983
101452
101775
101328
101736
102124
101565
101638
100796
99101.2
100512
101708
99530.3
100725
101510
99752
100906
99604.8
100747
100266
103625
101028
100388
100751
100583
100372
101458
101149
99675.2
101467
100622
101048
101669
102560
101964
102794
102559
101661
101896
100970
100457
100332
101056
100872
100326
100230
100928
101665
102790
102607
102013
102572
101868
101807
101838
102613
102086
102931
101728
102644
102230
101727
102371
100917
103159
101068
100382
100984
100380
102243
102889
102736
91408.6
102749
102286
102926
103771
103511
103708
103498
103542
103763
103701
103832
103689
103688
103804
103781
103567
103634
103703
103788
103516
103565
103784
103562
103786
103766
103146
103140
103341
103467
103400
103491
103390
103560
103020
102743
102062
102257
102402
103135
103330
103175
103601
103252
102830
102858
103174
103357
103506
102981
103240
103167
100637
101274
100397
100963
100828
101207
100295
99710.5
100931
99884.6
100077
99936.6
100016
100089
99958.9
100299
100946
100694
99811.5
100111
100971
100042
100678
100654
101235
101193
101107
100937
101227
101112
101211
101449
101593
101636
101441
101432
101571
101412
101594
101240
100912
101169
101094
101203
101124
101229
100895
100897
101121
101136
100928
101076
101108
101147
101064
101272
101415
101284
101419
101100
100941
101180
101090
101079
101057
101174
101316
101505
101349
101458
100516
101445
101921
100293
101855
100119
98907.2
100714
101369
100399
101906
101229
102173
102700
101541
102352
102171
100329
99891.6
99465.7
99878.7
99446.1
100808
101582
101274
102145
100466
101784
101116
99417.7
99675.1
99272.1
99786.9
100220
99507.9
99874.4
99677.1
100371
101051
100912
100362
101302
100213
100515
105478
103745
103778
103823
103704
101702
103734
117477
101351
103217
101047
103567
102926
103090
110749
103257
102359
102320
105735
107292
102923
105590
105505
102211
107408
103105
105784
103720
104814
103193
102470
103136
99423.8
101500
105963
103262
104866
104274
103255
108505
104111
103009
102748
103266
101205
107778
103999
104054
100279
100959
99892.2
100651
100469
101065
99629.8
99520.8
99343.6
99618.4
100149
99415.4
99488.4
99741.9
99418.8
100429
100772
101049
99863.7
101144
99933.1
100818
100447
100427
101109
100676
100997
100948
100993
100945
101111
101260
101380
101286
101361
101123
100717
101167
101076
101204
101025
101003
101276
101398
101296
101374
100585
100704
101180
101079
101001
100918
101129
101159
101059
101336
101394
101401
101319
101346
101416
101329
101401
101157
100869
101050
101106
101079
101075
101130
100242
100160
101558
101093
101518
100633
101750
100773
101415
101466