/*--------------------------------*- C++ -*----------------------------------*\
| =========                 |                                                 |
| \\      /  F ield         | OpenFOAM: The Open Source CFD Toolbox           |
|  \\    /   O peration     | Version:  4.1                                   |
|   \\  /    A nd           | Web:      www.OpenFOAM.org                      |
|    \\/     M anipulation  |                                                 |
\*---------------------------------------------------------------------------*/
FoamFile
{
    version     2.0;
    format      ascii;
    class       surfaceScalarField;
    location    "22";
    object      phi;
}
// * * * * * * * * * * * * * * * * * * * * * * * * * * * * * * * * * * * * * //

dimensions      [0 3 -1 0 0 0 0];

internalField   nonuniform List<scalar> 
11516
(
9.98348e+06
3348.15
21884.9
1.00292e+07
9686.82
21691.8
1.00597e+07
11658.3
36827.2
1.00707e+07
12216.1
57546.5
1.00608e+07
12602.3
79591.5
1.00274e+07
12918.9
103919
9.96861e+06
13170.3
130203
9.88324e+06
13429
157763
9.7718e+06
13784.3
185554
9.63624e+06
14317.3
212405
9.48167e+06
15013.7
235935
9.31512e+06
16056.1
252480
9.14672e+06
17033.7
258255
8.98762e+06
16555.7
247897
8.85011e+06
8793.32
222965
8.75942e+06
1353.48
185480
8.69816e+06
3634.66
156630
8.68501e+06
7917.32
81229.9
8.67956e+06
-11824.8
40756.6
8.72454e+06
6816.75
5937.42
8.68251e+06
-15340.3
123192
8.43056e+06
-15757.4
303743
8.21658e+06
7975.87
222527
8.32902e+06
61439
-92500.5
8.87316e+06
75159.8
-498630
9.83368e+06
65611.3
-893242
1.12433e+07
77139.6
-1.31848e+06
1.30161e+07
82019.7
-1.74188e+06
1.49507e+07
83646
-1.96022e+06
1.65908e+07
43393.9
-1.72182e+06
1.73852e+07
30399.1
-859913
1.69612e+07
64208.9
326355
1.53927e+07
69102.3
1.53006e+06
1.29752e+07
49703.6
2.56889e+06
1.02517e+07
155670
3.21202e+06
8.54162e+06
-282989
3.06038e+06
7.80166e+06
-94503.2
2.5517e+06
9.14984e+06
360912
330753
1.04714e+07
1.28828e+06
-846722
1.1039e+07
1.33469e+06
-524692
1.01178e+07
358389
1.42558e+06
1.05239e+07
-963359
1.24849e+06
1.04444e+07
-2.11293e+06
2.30715e+06
1.03688e+07
-907774
1.5137e+06
1.15603e+07
-1.24638e+06
607087
1.33444e+07
-438716
-395054
1.22952e+07
1.17986e+06
1.16241e+06
1.4496e+07
14729.3
-509582
1.51309e+07
-2.07059e+06
2.0157e+06
1.4641e+07
-1.97217e+06
1.75918e+06
1.34879e+07
1.84294e+06
-3.59112e+06
2.08793e+07
-817145
-1.05139e+07
2.63891e+07
-2.1034e+06
-6.06643e+06
-165422
-1.7694e+07
9.98795e+06
21845.4
1.00291e+07
21258.7
1.00582e+07
36399.4
1.00683e+07
56876.3
1.00578e+07
78522.9
1.00242e+07
102299
9.96563e+06
127862
9.88106e+06
154556
9.77111e+06
181312
9.63782e+06
207187
9.48639e+06
229465
9.32361e+06
245347
9.15845e+06
250949
9.00079e+06
242263
8.85972e+06
220524
8.76088e+06
184470
8.69329e+06
152376
8.70028e+06
54214.7
8.74723e+06
-2356.92
8.8275e+06
-40414.7
8.79811e+06
38683.4
8.54737e+06
253435
8.26538e+06
324526
8.30439e+06
65295.1
8.8257e+06
-389334
9.77718e+06
-813923
1.11422e+07
-1.25541e+06
1.28924e+07
-1.67034e+06
1.47922e+07
-1.86542e+06
1.64694e+07
-1.66736e+06
1.73771e+07
-909283
1.71951e+07
291318
1.59408e+07
1.47579e+06
1.38615e+07
2.38474e+06
1.17763e+07
2.66688e+06
1.01091e+07
2.16284e+06
9.18432e+06
1.76708e+06
9.75126e+06
553430
1.2813e+07
-1.21789e+06
1.66233e+07
-2.06433e+06
1.74936e+07
-159176
1.79422e+07
-1.11426e+06
1.67054e+07
-654387
1.40931e+07
1.91238e+06
1.07765e+07
2.82206e+06
1.01324e+07
1.41876e+06
1.25495e+07
-96671.4
1.24365e+07
1.56003e+06
8.53645e+06
2.27797e+06
2.91744e+06
2.40439e+06
848440
1.11971e+06
6.51638e+06
-8.71573e+06
1.57685e+07
-1.26924e+07
-2.00991e+07
1.00109e+07
3355.11
22235.6
1.00765e+07
9315.98
20701.5
1.01548e+07
11205.5
22221.2
1.02366e+07
11508.9
38817.6
1.03225e+07
11565.1
55695.4
1.04128e+07
11505.8
73863.4
1.05071e+07
11352.3
93717.4
1.06052e+07
11184.2
115016
1.07059e+07
11123.2
138164
1.08095e+07
11259.1
161767
1.09148e+07
11830.3
185118
1.10215e+07
12675.4
204901
1.11266e+07
14658.7
219947
1.12326e+07
15257.4
221944
1.13307e+07
14925
220047
1.14079e+07
12781.1
220668
1.14582e+07
24075.1
239258
1.13226e+07
12834.6
263746
1.09394e+07
5249.62
438012
1.0375e+07
5090.25
572518
9.83321e+06
12296.8
658107
9.48492e+06
9785.49
648720
9.38255e+06
-9216.92
336441
9.60604e+06
-12179.6
-310707
1.01732e+07
-2670.42
-1.0843e+06
1.10516e+07
-13390.5
-1.80951e+06
1.21681e+07
-12392.3
-2.52412e+06
1.34254e+07
13251.7
-3.1283e+06
1.45788e+07
61023.3
-3.25276e+06
1.54479e+07
66141.1
-2.67214e+06
1.60525e+07
-14654.8
-1.40496e+06
1.62406e+07
-23310.7
242220
1.59993e+07
-10449
1.86529e+06
1.5466e+07
-24445.4
3.22589e+06
1.44148e+07
72256.5
4.3289e+06
1.24194e+07
161504
5.17373e+06
1.07146e+07
37787.9
4.66784e+06
1.04361e+07
-238539
1.53609e+06
1.054e+07
-173737
-34163.5
9.87244e+06
548313
141367
8.52449e+06
1.62106e+06
1.77136e+06
6.00598e+06
1.62217e+06
2.7376e+06
5.94654e+06
-540939
3.72364e+06
7.17105e+06
323009
694555
5.81433e+06
1.36855e+06
1.86123e+06
3.14261e+06
1.08204e+06
2.57228e+06
295750
2.59331e+06
2.89181e+06
-158337
-562950
1.94798e+06
3.25562e+06
-2.70404e+06
2.01585e+06
5.08402e+06
-4.24491e+06
3.85709e+06
-3.23216e+06
-2.8486e+06
7.08751e+06
-1.41709e+07
-2.16072e+06
1.21909e+06
-1.11979e+07
-2.36854e+06
-7.24169e+06
-612680
-5.48773e+06
1.00157e+07
22166
1.0077e+07
20280.7
1.0154e+07
21684.5
1.0235e+07
38190.1
1.032e+07
54983.9
1.04093e+07
73032.1
1.05025e+07
92704.9
1.05993e+07
113777
1.06989e+07
136519
1.08012e+07
159887
1.09057e+07
182306
1.10113e+07
201901
1.11171e+07
215957
1.12221e+07
220541
1.13265e+07
218511
1.14165e+07
217113
1.14592e+07
236528
1.13381e+07
223661
1.09426e+07
410421
1.0381e+07
533835
9.84216e+06
592320
9.49889e+06
603723
9.41627e+06
391347
9.62485e+06
-164740
1.01333e+07
-925566
1.09267e+07
-1.6886e+06
1.20506e+07
-2.49664e+06
1.33732e+07
-3.08544e+06
1.46534e+07
-3.15496e+06
1.57891e+07
-2.74375e+06
1.66721e+07
-1.7367e+06
1.7117e+07
-91817.8
1.70903e+07
1.5864e+06
1.66257e+07
2.94319e+06
1.57707e+07
3.764e+06
1.47252e+07
3.64238e+06
1.37155e+07
3.15572e+06
1.2888e+07
1.45142e+06
1.29757e+07
-1.17427e+06
1.49563e+07
-2.99888e+06
1.67165e+07
148211
1.53019e+07
2.40616e+06
7.88663e+06
6.51158e+06
3.76597e+06
6.76129e+06
6.15616e+06
2.5949e+06
7.16352e+06
2.82147e+06
8.06156e+06
2.98379e+06
7.72751e+06
2.43864e+06
8.08235e+06
-628743
7.99503e+06
-1.89956e+06
-2.02398e+06
7.50282e+06
-1.4957e+07
1.42903e+06
-1.7574e+07
-1.28229e+07
-1.25478e+07
1.00008e+07
3296.82
30062
1.0057e+07
8935.81
26753.8
1.0112e+07
10752.7
28171.8
1.01607e+07
10923.8
50402.4
1.02033e+07
10821.6
72008.2
1.02398e+07
10552.7
94122.4
1.02705e+07
10138.2
116771
1.0296e+07
9660.7
140255
1.03187e+07
9270.79
163438
1.03407e+07
9061.01
186551
1.03659e+07
9346.13
208006
1.0398e+07
10037.4
226190
1.04406e+07
11808.7
241525
1.04987e+07
13761
248138
1.05983e+07
17530.6
245485
1.07627e+07
20618.8
218974
1.10471e+07
23932.1
104117
1.11056e+07
3587.38
233163
1.08732e+07
12839.4
663504
1.04702e+07
6367.32
966677
1.00384e+07
6339.71
1.07895e+06
9.73457e+06
3050.11
943108
9.61847e+06
-17084.3
463614
9.68491e+06
-38527.4
-352392
9.92952e+06
-48095.4
-1.32192e+06
1.04086e+07
-58722.2
-2.33742e+06
1.12105e+07
-32611.5
-3.4643e+06
1.21018e+07
23177.1
-4.2165e+06
1.26943e+07
96561.1
-4.06247e+06
1.29107e+07
100578
-3.01232e+06
1.27742e+07
75275.9
-1.2841e+06
1.23795e+07
125016
586573
1.20148e+07
185277
2.13178e+06
1.18082e+07
125638
3.42354e+06
1.1743e+07
-143818
4.62161e+06
1.13469e+07
-261146
5.91003e+06
1.01632e+07
-225879
6.20359e+06
8.75388e+06
-450782
3.40085e+06
6.24782e+06
-199095
2.6816e+06
2.80333e+06
420509
3.35829e+06
720988
-366735
4.34393e+06
-1.12662e+06
-103312
5.27643e+06
-1.88363e+06
340144
5.34125e+06
-4.24082e+06
576864
3.67516e+06
-7.56004e+06
1.88574e+06
4.6038e+06
-9.15748e+06
2.67864e+06
2.74133e+06
-5.98383e+06
1.85027e+06
-1.11787e+06
-27857.5
-150964
-3.03898e+06
4.37416e+06
-1.16917e+06
-1.10774e+06
1.19574e+07
-2.03552e+06
-1.69117e+06
2.06875e+07
-3.69566e+06
1.98485e+06
2.7604e+07
-7.10073e+06
1.48774e+06
2.8537e+07
-8.48154e+06
694873
-6.97864e+06
-8.48402e+06
1.00055e+07
29956.9
1.00569e+07
26443.9
1.01106e+07
27853.9
1.01583e+07
49998.6
1.02001e+07
71504.3
1.02358e+07
93504.1
1.02659e+07
116015
1.02908e+07
139335
1.03132e+07
162304
1.03351e+07
185282
1.03602e+07
206307
1.03922e+07
224318
1.04351e+07
239314
1.04955e+07
247868
1.05885e+07
244415
1.07407e+07
221712
1.09922e+07
114529
1.10582e+07
185779
1.08719e+07
612800
1.04946e+07
913804
1.00657e+07
1.02032e+06
9.75136e+06
912737
9.61315e+06
503656
9.65219e+06
-258500
9.85874e+06
-1.22597e+06
1.03067e+07
-2.29e+06
1.11082e+07
-3.46269e+06
1.20671e+07
-4.14948e+06
1.28907e+07
-3.96084e+06
1.33413e+07
-3.0931e+06
1.32548e+07
-1.52873e+06
1.30337e+07
314225
1.30106e+07
1.86239e+06
1.31585e+07
2.98803e+06
1.31232e+07
3.74085e+06
1.30417e+07
3.60525e+06
1.24496e+07
3.57599e+06
1.09879e+07
2.43019e+06
1.11147e+07
-1.44551e+06
9.91513e+06
-1.29124e+06
4.78222e+06
5.14924e+06
-187306
7.69762e+06
-3.52198e+06
1.06673e+07
-3.78823e+06
8.1777e+06
-3.82391e+06
5.43126e+06
-3.4881e+06
6.17319e+06
-277247
2.21906e+06
3.44256e+06
-1.29824e+06
7.17956e+06
-5.58e+06
1.20622e+07
-9.01838e+06
1.96653e+07
-3.6264e+06
1.62889e+07
-2.53902e+06
-2.3635e+06
-2.44809e+06
1.32506e+06
1.00012e+07
3234.87
37496.3
1.00565e+07
8595.76
32220.2
1.0111e+07
10381.7
33397.3
1.01595e+07
10571.2
60811
1.02015e+07
10442.8
87312.4
1.02363e+07
10118.3
114076
1.02624e+07
9611.12
141989
1.02801e+07
9003.79
170120
1.02894e+07
8413.04
198366
1.02912e+07
8005.18
226904
1.02871e+07
7917.79
254997
1.02789e+07
8525.74
282257
1.02718e+07
9992.36
307785
1.02746e+07
13778.4
329399
1.03068e+07
16467.1
332492
1.03879e+07
25669.8
299611
1.05125e+07
10599.8
104705
1.06715e+07
16289.8
97226.2
1.06329e+07
9690.07
687946
1.04429e+07
1174.73
1.14176e+06
1.01753e+07
-1135.39
1.33351e+06
9.93172e+06
-7061.66
1.18524e+06
9.72249e+06
-29432.3
694262
9.53184e+06
-50615.7
-117916
9.39957e+06
-64997
-1.15314e+06
9.41052e+06
-83470.6
-2.34252e+06
9.58782e+06
-40727.6
-3.71937e+06
9.57803e+06
30284.9
-4.35409e+06
9.10219e+06
57123.7
-3.7312e+06
8.11754e+06
99377.6
-2.16187e+06
6.9507e+06
128297
-242831
6.09317e+06
139240
1.31503e+06
5.69636e+06
165643
2.3772e+06
5.8734e+06
88708.3
3.16326e+06
6.69533e+06
-216175
4.03234e+06
8.12678e+06
-772590
5.29525e+06
7.94249e+06
-482067
6.76859e+06
5.97768e+06
-348353
5.43486e+06
3.15904e+06
-86318.2
5.37928e+06
388588
-182326
6.23911e+06
-591941
-619033
6.06201e+06
-22328.2
-777978
6.07249e+06
1.89672e+06
1.22073e+06
3.83732e+06
2.15742e+06
1.3901e+06
3.39702e+06
3.47442e+06
1.19202e+06
3.07479e+06
5.65563e+06
1.42773e+06
-528609
8.20675e+06
2.73968e+06
-6.54085e+06
8.63368e+06
2.78098e+06
-6.61561e+06
7.37428e+06
-53334.3
89370.5
1.04365e+07
-1.02225e+06
-3.05244e+06
1.8234e+07
-1.82734e+06
-2.94094e+06
2.89912e+07
-5.36795e+06
-3.07974e+06
3.62198e+07
-3.84233e+06
-2.68237e+06
-2.50754e+06
-1.03515e+07
1.00056e+07
37499.4
1.00566e+07
32052.6
1.01097e+07
32978.3
1.01572e+07
60251.9
1.01983e+07
86644.4
1.02324e+07
113291
1.02578e+07
141083
1.0275e+07
169094
1.0284e+07
197215
1.02859e+07
225643
1.02818e+07
253550
1.02742e+07
280481
1.02691e+07
305826
1.02739e+07
326877
1.03089e+07
329995
1.03852e+07
293716
1.04798e+07
110365
1.05909e+07
107190
1.06165e+07
590955
1.04655e+07
1.05426e+06
1.02153e+07
1.25745e+06
9.96238e+06
1.14904e+06
9.70922e+06
722352
9.47911e+06
-89362.5
9.29322e+06
-1.13237e+06
9.24884e+06
-2.38776e+06
9.36813e+06
-3.69388e+06
9.34365e+06
-4.15648e+06
8.95249e+06
-3.55339e+06
8.1142e+06
-2.16716e+06
7.09797e+06
-381156
6.39502e+06
1.1625e+06
6.14166e+06
2.28904e+06
6.31177e+06
2.92145e+06
6.70763e+06
3.17272e+06
7.93392e+06
1.62996e+06
8.38535e+06
2.54258e+06
6.53339e+06
3.66968e+06
3.35805e+06
1.28189e+06
-1.23576e+06
3.17797e+06
-4.65385e+06
8.08767e+06
-6.53228e+06
9.15713e+06
-4.34849e+06
1.01944e+07
-1.14041e+06
6.77171e+06
-787607
6.55353e+06
-6687.38
6.84015e+06
2.60663e+06
2.07729e+06
6.86195e+06
-3.05592e+06
6.97784e+06
-5.82192e+06
6.05605e+06
-8.62988e+06
8.56434e+06
-7.85517e+06
1.25819e+07
-1.142e+07
1.54366e+07
-8.95955e+06
-1.64452e+07
1.00021e+07
3173.39
44430.4
1.00561e+07
8497.74
37227.5
1.01089e+07
10215.8
38077.6
1.01562e+07
10346.6
70068.1
1.01974e+07
10180.7
100735
1.02317e+07
9813.98
131567
1.02582e+07
9260.95
163547
1.02766e+07
8607.94
195618
1.02868e+07
7964.25
228520
1.02893e+07
7484.3
262187
1.02855e+07
7294.59
296463
1.02769e+07
7641.53
331740
1.02681e+07
9078.89
365886
1.02649e+07
11939.8
399015
1.0271e+07
15705.5
415229
1.02668e+07
20928
402953
1.01267e+07
27115.3
319364
1.00986e+07
11046.6
131597
1.03016e+07
-13045.4
479989
1.03712e+07
11554.1
1.03263e+06
1.03061e+07
8715.62
1.3701e+06
1.0168e+07
-13710
1.32381e+06
9.9156e+06
-31954.1
978546
9.48527e+06
-46925.6
365442
8.91352e+06
-73181.4
-510579
8.23678e+06
-89850.7
-1.59902e+06
7.4593e+06
-36873.6
-2.93566e+06
6.45716e+06
28449.2
-3.41392e+06
5.17177e+06
27640.5
-2.50233e+06
3.7647e+06
27599.1
-798495
2.59774e+06
32062.5
885509
1.85788e+06
38975
2.01771e+06
1.55643e+06
54762
2.62712e+06
1.71222e+06
101570
2.9113e+06
2.64175e+06
84874.9
3.02131e+06
4.86843e+06
-79894.5
3.14547e+06
6.18579e+06
188716
4.97118e+06
4.49882e+06
114261
6.56525e+06
2.85292e+06
-351118
6.86245e+06
1.67824e+06
-711572
7.9346e+06
1.38523e+06
-700340
7.09127e+06
2.96816e+06
-925997
5.76663e+06
3.83685e+06
769832
3.13719e+06
4.11133e+06
1.22202e+06
2.78746e+06
6.1152e+06
321938
1.24633e+06
8.46708e+06
244840
-2.94798e+06
9.28039e+06
640322
-8.07244e+06
8.67594e+06
1.99137e+06
-7.97828e+06
7.67198e+06
1.31443e+06
171561
1.02485e+07
3097.35
-3.8712e+06
1.25175e+07
-204476
-2.25442e+06
2.05784e+07
-6.54555e+06
-4.00584e+06
2.7836e+07
-2.53424e+06
-7.70472e+06
214195
-1.25435e+07
1.00065e+07
44254
1.0056e+07
36714.1
1.01075e+07
37492.5
1.01538e+07
69319.2
1.01942e+07
99813.4
1.02277e+07
130481
1.02535e+07
162306
1.02714e+07
194234
1.02812e+07
227000
1.02837e+07
260509
1.028e+07
294591
1.02718e+07
329328
1.02644e+07
362629
1.02629e+07
393725
1.02695e+07
406380
1.026e+07
391137
1.01393e+07
296735
1.00734e+07
175275
1.02208e+07
403080
1.03338e+07
926343
1.03374e+07
1.24689e+06
1.02059e+07
1.25853e+06
9.90591e+06
990526
9.41602e+06
359350
8.74244e+06
-532789
7.9738e+06
-1.71536e+06
7.17175e+06
-2.9402e+06
6.2275e+06
-3.19652e+06
5.08621e+06
-2.39688e+06
3.8141e+06
-876979
2.72868e+06
732646
2.02731e+06
1.90348e+06
1.76762e+06
2.60491e+06
1.85418e+06
2.93329e+06
2.49017e+06
2.6129e+06
4.33597e+06
-472161
5.98034e+06
823020
5.32143e+06
4.03898e+06
1.18054e+06
4.66148e+06
-3.14671e+06
6.45292e+06
-4.61367e+06
8.84679e+06
-6.07327e+06
9.85389e+06
-5.17035e+06
1.0349e+07
-2.57418e+06
5.72498e+06
-801767
5.42961e+06
2.2281e+06
4.3648e+06
4.32743e+06
808915
7.15979e+06
-3.72902e+06
7.52254e+06
-4.47558e+06
4.86553e+06
-5.38366e+06
1.51866e+06
-4.139e+06
-1.00865e+07
-6.02043e+06
-9.72493e+06
-1.23557e+07
-1.16305e+07
1.00035e+07
3052.8
49509.7
1.00548e+07
7960.85
41634
1.01054e+07
9574.22
41938.4
1.0151e+07
9682.57
77521.9
1.01912e+07
9443.82
111410
1.02245e+07
8994.3
145704
1.02505e+07
8355.74
180861
1.02687e+07
7615.97
216270
1.02792e+07
6873.26
252673
1.02829e+07
6245.04
289872
1.02806e+07
5836.98
328321
1.0274e+07
5650.49
367362
1.02649e+07
6374.58
405413
1.02538e+07
7048.29
440466
1.02319e+07
9694.54
469158
1.0188e+07
8935
472556
1.00237e+07
15567.4
475354
9.77326e+06
-39011.5
384142
9.79005e+06
-59498
467640
9.95492e+06
18650.2
791796
1.0113e+07
34126.6
1.14435e+06
1.01769e+07
12942.7
1.23685e+06
1.00366e+07
-11630.8
1.14798e+06
9.57803e+06
-34916.1
888768
8.73731e+06
-77338.9
442744
7.49658e+06
-74190.2
-243551
5.97149e+06
-25356.3
-1.36879e+06
4.48096e+06
35328.4
-1.95673e+06
3.07907e+06
17459.3
-1.12923e+06
1.80622e+06
-12314.1
471597
790635
-7166.91
1.90065e+06
65442.7
15016.8
2.73051e+06
-447145
53938.4
3.08625e+06
-899653
259501
3.09365e+06
-2.03242e+06
1.58654e+06
2.53112e+06
140515
543159
129030
4.67462e+06
-274899
11527.6
5.14828e+06
43671.3
5.26029e+06
3.90348e+06
-667430
7.96976e+06
3.92837e+06
-1.44003e+06
8.65262e+06
4.69829e+06
-1.02787e+06
7.07116e+06
6.12227e+06
-1.26854e+06
5.40892e+06
5.59555e+06
111649
3.80454e+06
5.35445e+06
902083
2.68946e+06
7.10146e+06
153325
-22841.9
8.63396e+06
577202
-4.33285e+06
8.25387e+06
957632
-7.97948e+06
6.78388e+06
2.62092e+06
-7.95307e+06
5.94372e+06
2.06339e+06
-237947
1.01128e+07
1.50562e+06
-7.94324e+06
1.88335e+07
528188
-1.06396e+07
2.49403e+07
-4.62178e+06
-5.67339e+06
2.2444e+07
-4.87904e+06
-1.13434e+06
-5.23342e+06
-4.75681e+06
1.00076e+07
49497.7
1.00548e+07
41339.2
1.01041e+07
41310.7
1.01488e+07
76685
1.0188e+07
110415
1.02205e+07
144557
1.02458e+07
179580
1.02635e+07
214880
1.02736e+07
251193
1.02772e+07
288294
1.02748e+07
326620
1.02681e+07
365366
1.02594e+07
402421
1.02496e+07
436885
1.02298e+07
460834
1.01802e+07
465265
1.0028e+07
452320
9.68661e+06
433627
9.48741e+06
484603
9.68506e+06
701020
9.95633e+06
980817
1.01073e+07
1.11907e+06
1.0011e+07
1.09873e+06
9.48516e+06
870890
8.51845e+06
382277
7.1904e+06
-442690
5.76355e+06
-1.52813e+06
4.39867e+06
-1.79731e+06
3.09639e+06
-1.08615e+06
1.8872e+06
310946
913188
1.69638e+06
234771
2.59715e+06
-148689
3.03858e+06
-84903.7
3.09973e+06
2.48326e+06
1.32534e+06
2.7396e+06
-527228
4.97233e+06
-2.3151e+06
5.49126e+06
3.04408e+06
3.02298e+06
5.82175e+06
-113290
7.61559e+06
-1.0919e+06
8.4977e+06
-2.94885e+06
1.03052e+07
-3.76431e+06
1.14297e+07
-2.72227e+06
6.02755e+06
-487768
4.16962e+06
2.58894e+06
2.85972e+06
4.5978e+06
486836
7.08767e+06
-3.06086e+06
8.83413e+06
-3.51792e+06
9.66785e+06
-4.10489e+06
1.1493e+07
-5.01037e+06
3.82101e+06
-3.62212e+06
-1.06431e+07
-3.02568e+06
820761
1.00042e+07
2948.85
54234.1
1.00539e+07
7763.82
45296.7
1.01021e+07
9311.75
45251.2
1.01458e+07
9352.64
83774.6
1.01844e+07
9079.11
120202
1.02166e+07
8601.55
157318
1.02419e+07
7946.36
195052
1.02599e+07
7203.1
233222
1.02707e+07
6459.58
272284
1.02745e+07
5803.75
312876
1.02725e+07
5296.51
353944
1.02651e+07
4888.17
395847
1.02512e+07
4878.68
436871
1.02302e+07
4866.26
474158
1.01929e+07
4694.79
508051
1.01202e+07
814.413
528359
1.0004e+07
-863.114
549172
9.76561e+06
-17135.3
574125
9.51986e+06
-16657.7
639565
9.4523e+06
7768.16
762143
9.58188e+06
19705.8
930416
9.76094e+06
19113.3
1.04792e+06
9.86132e+06
-13728.3
1.10988e+06
9.62685e+06
-21785.6
1.18933e+06
8.82254e+06
-63625.5
1.36048e+06
7.48255e+06
-78875.7
1.22397e+06
5.70301e+06
-22715.4
476246
3.98702e+06
63260.7
-292728
2.62229e+06
62634.4
163958
1.5446e+06
-8965.95
1.54518e+06
714934
-22133.2
2.74675e+06
69117.5
11930.7
3.36453e+06
-589891
100533
3.64647e+06
-1.87955e+06
483216
3.88869e+06
-3.61104e+06
1.34251e+06
2.67673e+06
-3.58733e+06
44071.8
53387.6
888405
888072
-5.89137e+06
4.82639e+06
285869
44781.5
5.5283e+06
-548745
7.11508e+06
6.02031e+06
-1.52829e+06
8.97889e+06
6.79827e+06
-1.86083e+06
7.41006e+06
7.855e+06
-2.38687e+06
6.09886e+06
8.00661e+06
-980706
4.34379e+06
8.14254e+06
708824
1.96244e+06
9.2022e+06
696127
-1.38397e+06
9.23992e+06
1.55603e+06
-5.45912e+06
8.1647e+06
1.81666e+06
-7.90352e+06
4.73786e+06
3.41454e+06
-6.70273e+06
1.57678e+06
2.98853e+06
774880
-1.21855e+06
3.10113e+06
-7.42801e+06
-2.37929e+06
2.53584e+06
-1.16342e+07
1.78951e+06
-449946
-9.03192e+06
2.53802e+06
-2.23477e+06
1.88302e+06
-3.49976e+06
5.91378e+06
1.00084e+07
54002
1.00538e+07
44657
1.01007e+07
44520
1.01434e+07
82859.8
1.01811e+07
119111
1.02126e+07
156072
1.02373e+07
193670
1.02547e+07
231715
1.02653e+07
270644
1.02688e+07
311049
1.02666e+07
351815
1.02587e+07
393265
1.02447e+07
433180
1.02234e+07
469662
1.01837e+07
501364
1.01075e+07
522657
9.98349e+06
539001
9.77119e+06
574638
9.5185e+06
655572
9.40353e+06
759770
9.49377e+06
880081
9.66871e+06
985937
9.73672e+06
1.07599e+06
9.47884e+06
1.14483e+06
8.62334e+06
1.21301e+06
7.17383e+06
961292
5.51101e+06
138619
3.97978e+06
-197878
2.68741e+06
261924
1.6461e+06
1.33313e+06
841228
2.47272e+06
277789
3.17007e+06
-58069.3
3.46887e+06
-509301
3.86431e+06
-1.38608e+06
3.20773e+06
-2.11655e+06
-471630
1.22983e+06
-5.69555e+06
4.54011e+06
-524636
4.83777e+06
4.50611e+06
3.12996e+06
7.28486e+06
1.17593e+06
8.05002e+06
-878916
9.58879e+06
-1.20939e+06
1.06833e+07
-1.12926e+06
6.82511e+06
-148564
4.28212e+06
2.29989e+06
2.4799e+06
4.71862e+06
351292
7.20238e+06
-1.6188e+06
9.00949e+06
-1.87856e+06
1.10687e+07
-2.68621e+06
1.42861e+07
-5.63521e+06
1.73367e+07
-6.46746e+06
1.43249e+07
-1.06164e+06
-2.60635e+06
1.00057e+07
2791.12
56813.9
1.00523e+07
7105.42
48177.1
1.00978e+07
8507.68
47768.5
1.01393e+07
8527.43
88363.6
1.01762e+07
8188.88
126715
1.02073e+07
7641.71
165720
1.02321e+07
6915.93
205157
1.02497e+07
6089.68
245522
1.02605e+07
5224.74
286403
1.02648e+07
4364.53
328349
1.02624e+07
3503.48
371055
1.02529e+07
2570.22
414052
1.02344e+07
1603.48
456306
1.02039e+07
668.441
495955
1.01565e+07
-877.697
533564
1.00786e+07
-3587.91
568854
9.9706e+06
-5322.18
601832
9.83e+06
-8923.5
644724
9.66891e+06
-9790.26
724902
9.51012e+06
-7592.61
847330
9.4242e+06
2063.86
971873
9.43865e+06
3790.48
1.06147e+06
9.52265e+06
2685.89
1.13179e+06
9.52423e+06
-430.163
1.28603e+06
9.1123e+06
-71694.9
1.89957e+06
8.21363e+06
-105644
2.27775e+06
6.84506e+06
-64826.4
1.96615e+06
5.09977e+06
86927.6
1.41698e+06
3.46309e+06
78476.1
1.71154e+06
2.25834e+06
-23059.5
2.71917e+06
1.59386e+06
-23830
3.40361e+06
1.22712e+06
-14876.4
3.73073e+06
1.02454e+06
24834.8
3.81229e+06
175139
490165
4.04228e+06
-2.34402e+06
1.42572e+06
3.28001e+06
-4.49787e+06
1.75418e+06
-779423
-4.11357e+06
413731
-7.65641e+06
-9621.21
-1.07914e+06
-3.89899e+06
4.04532e+06
-979235
3.483e+06
6.39042e+06
-1.24365e+06
7.26518e+06
8.02197e+06
-1.8405e+06
6.80218e+06
1.00045e+07
-2.43083e+06
5.66577e+06
1.13595e+07
-1.57219e+06
3.77607e+06
1.16533e+07
254035
961857
1.16472e+07
943662
-2.47247e+06
1.02699e+07
1.79454e+06
-5.70021e+06
7.97913e+06
2.03154e+06
-7.30621e+06
3.0282e+06
2.83308e+06
-3.63901e+06
-2.54635e+06
2.97201e+06
4.06818e+06
-9.31952e+06
1.68939e+06
-1.58146e+06
-1.52962e+07
-535641
-4.28542e+06
-1.53088e+07
-1.35327e+06
-6.22001e+06
-2.56139e+06
-4.83299e+06
-3.08981e+06
1.29216e+06
9.96958e+06
1.00095e+07
56795.8
1.00523e+07
47850.2
1.00965e+07
47078.1
1.01371e+07
87439
1.01731e+07
125629
1.02034e+07
164491
1.02276e+07
203814
1.02447e+07
244093
1.0255e+07
284907
1.0259e+07
326770
1.0256e+07
369341
1.02458e+07
412123
1.02264e+07
453824
1.01953e+07
492829
1.01467e+07
529729
1.00684e+07
564538
9.95918e+06
596623
9.82911e+06
641376
9.68809e+06
728456
9.5444e+06
846550
9.44052e+06
969180
9.41447e+06
1.0548e+06
9.44172e+06
1.1311e+06
9.41756e+06
1.24953e+06
8.9981e+06
1.63049e+06
7.9574e+06
1.94533e+06
6.44591e+06
1.65781e+06
4.86234e+06
1.49423e+06
3.54999e+06
1.64521e+06
2.52147e+06
2.31244e+06
1.77123e+06
3.16319e+06
1.37181e+06
3.52508e+06
1.23085e+06
3.56512e+06
1.32504e+06
3.96651e+06
1.55913e+06
3.499e+06
471485
778398
-59712.2
-5.40132e+06
2.30733e+06
-4.47476e+06
4.42178e+06
1.0415e+06
4.80034e+06
5.22631e+06
3.72637e+06
6.77954e+06
2.51081e+06
7.91635e+06
2.52625e+06
8.79434e+06
2.1999e+06
7.25382e+06
2.36482e+06
5.08292e+06
4.15672e+06
2.64393e+06
6.39333e+06
417100
8.50239e+06
-550255
1.01565e+07
-134341
1.00742e+07
-581835
6.83862e+06
-2.00626e+06
1.23141e+06
-374232
-2.14227e+06
-1.43204e+06
2.22742e+06
1.00063e+07
2666.96
59223.3
1.00511e+07
6894.27
50410.7
1.00939e+07
8253.02
50067.2
1.01331e+07
8220.19
92201.7
1.01681e+07
7871.55
131908
1.01978e+07
7324.86
172281
1.02214e+07
6611.47
213154
1.02386e+07
5805.48
254889
1.0249e+07
4955.18
297479
1.02527e+07
4071.97
340832
1.02493e+07
3124.37
384800
1.02372e+07
2022.91
429500
1.02144e+07
730.427
473569
1.0178e+07
-595.47
515904
1.0126e+07
-2158.4
557092
1.00534e+07
-4504.39
599410
9.95825e+06
-6747.61
644073
9.8512e+06
-8151.29
692355
9.7537e+06
-8817.65
767547
9.66135e+06
-7866.08
886989
9.56771e+06
1832.75
1.03357e+06
9.47538e+06
4151.35
1.18186e+06
9.39097e+06
13751.4
1.29923e+06
9.43104e+06
-26134.3
1.39307e+06
9.48165e+06
-86284.1
2.00563e+06
9.20571e+06
-150000
2.74849e+06
8.26194e+06
-42290.7
3.07039e+06
6.08483e+06
277295
3.40148e+06
3.91826e+06
315361
3.52732e+06
2.90583e+06
-17903.9
3.63967e+06
2.59715e+06
-144787
3.7542e+06
2.52118e+06
-120812
3.85042e+06
2.55225e+06
-15520.3
3.70462e+06
1.98059e+06
467689
3.82444e+06
-419241
1.0431e+06
3.4919e+06
-2.67365e+06
803682
-1.31986e+06
-5.14583e+06
-300632
-5.2936e+06
-2.68257e+06
-1.78646e+06
-5.06775e+06
1.87685e+06
-1.09523e+06
-417676
5.17817e+06
-607164
4.2797e+06
8.18908e+06
-884228
4.38234e+06
1.10964e+07
-1.21416e+06
3.62875e+06
1.30448e+07
-895416
2.42159e+06
1.35924e+07
-86522.4
280161
1.30819e+07
313934
-2.39202e+06
1.08264e+07
1.24624e+06
-4.86255e+06
7.95232e+06
1.66835e+06
-6.00792e+06
3.98984e+06
1.39894e+06
-737658
1.05708e+06
1.53912e+06
6.04111e+06
465591
-2.15236e+06
2.29046e+06
-3.68777e+06
-3.07693e+06
4.29087e+06
-1.07623e+07
989609
1.14644e+06
469975
-3.61924e+06
-1.00417e+07
-1.70585e+06
-3.43465e+06
1.00101e+07
58961.6
1.0051e+07
49755.7
1.00925e+07
49316.3
1.01308e+07
91271.1
1.0165e+07
130820
1.01939e+07
171070
1.02169e+07
211847
1.02337e+07
253506
1.02437e+07
296026
1.02469e+07
339280
1.0243e+07
383109
1.023e+07
427620
1.0206e+07
471447
1.0169e+07
513366
1.01164e+07
554523
1.00432e+07
597415
9.94809e+06
642904
9.84446e+06
692846
9.75391e+06
766534
9.67464e+06
884721
9.59798e+06
1.03492e+06
9.51218e+06
1.16424e+06
9.45653e+06
1.26773e+06
9.34863e+06
1.41845e+06
9.20133e+06
1.78578e+06
8.65141e+06
2.43245e+06
7.36369e+06
2.99787e+06
6.03263e+06
3.14671e+06
4.87905e+06
3.11275e+06
3.76987e+06
3.35524e+06
3.01033e+06
3.69448e+06
2.60608e+06
3.71699e+06
2.32045e+06
3.65279e+06
2.60244e+06
3.84741e+06
2.73099e+06
3.86256e+06
2.15427e+06
1.62639e+06
-342655
-3.56539e+06
-118439
-6.79671e+06
2.48759e+06
-2.8212e+06
4.61505e+06
2.33793e+06
5.701e+06
4.66598e+06
6.47612e+06
5.82047e+06
7.50688e+06
6.79462e+06
7.68381e+06
6.9262e+06
7.40636e+06
5.59784e+06
8.53939e+06
2.68058e+06
1.04688e+07
120609
1.21413e+07
-698156
1.39077e+07
13261.1
1.07634e+07
1.20877e+06
3.13178e+06
3.58943e+06
-98177.5
4.93481e+06
5.47364e+06
-1.09128e+07
4.96239e+06
1.00078e+07
2491.4
59470.1
1.00493e+07
6225.31
51986.4
1.00891e+07
7414.17
51782.5
1.01261e+07
7365.63
94751.8
1.01591e+07
6969.23
135282
1.01874e+07
6377.47
176511
1.021e+07
5622.69
218303
1.02265e+07
4765.77
261019
1.02366e+07
3840.76
304659
1.02396e+07
2827.89
349132
1.02348e+07
1693.09
394424
1.02206e+07
348.223
440721
1.01946e+07
-1182.58
487339
1.01545e+07
-2729.13
533882
1.00995e+07
-4093.09
580430
1.00313e+07
-5490.84
629918
9.94933e+06
-6932.53
683796
9.85989e+06
-6326
742445
9.77929e+06
-6295.85
808257
9.72881e+06
-4307.9
901544
9.70012e+06
2050.13
1.02952e+06
9.62452e+06
-6469.64
1.25263e+06
9.553e+06
-107.162
1.39802e+06
9.47067e+06
9298.24
1.52988e+06
9.63608e+06
-30037.3
1.94888e+06
9.73035e+06
-65036.8
2.78669e+06
9.14039e+06
54826.5
3.70716e+06
8.0688e+06
96662.8
4.47143e+06
6.658e+06
198325
4.7954e+06
5.24506e+06
252319
4.78269e+06
4.22622e+06
124588
4.54856e+06
3.77439e+06
-63299.1
4.21244e+06
3.5217e+06
-71784.3
3.86369e+06
3.32581e+06
124482
3.68642e+06
3.33262e+06
190283
3.07075e+06
1.40297e+06
-244406
720063
-1.61845e+06
-885638
-1.50511e+06
-2.86334e+06
-1.03965e+06
-2.8164e+06
-559619
26611.7
-2.42203e+06
3.61847e+06
591759
237759
7.23278e+06
409173
1.21797e+06
1.00573e+07
230267
1.36239e+06
1.18837e+07
19667.7
1.09927e+06
1.28899e+07
-506716
-27410
1.27856e+07
-975397
-1.41033e+06
1.02037e+07
294900
-2.86343e+06
6.76345e+06
1.29213e+06
-4.28034e+06
4.65817e+06
807932
604197
3.86511e+06
709023
6.8154e+06
5.56314e+06
-2.41643e+06
4.28909e+06
8.326e+06
-3.65371e+06
6.47052e+06
6.84909e+06
-2.04731e+06
5.88191e+06
161477
-6.79009e+06
2.78336e+06
1.42208e+06
8.34278e+06
1.00111e+07
59447.1
1.00493e+07
51676
1.00879e+07
51110.7
1.01239e+07
93840.2
1.01562e+07
134217
1.01838e+07
175324
1.02058e+07
217032
1.02218e+07
259702
1.02313e+07
303326
1.02339e+07
347801
1.02284e+07
393088
1.02132e+07
439394
1.01861e+07
486020
1.01452e+07
532496
1.00904e+07
579136
1.00222e+07
628945
9.94135e+06
684183
9.85295e+06
743381
9.77677e+06
809300
9.73102e+06
901557
9.71058e+06
1.03979e+06
9.65443e+06
1.22034e+06
9.56226e+06
1.37842e+06
9.48545e+06
1.56995e+06
9.35629e+06
1.95808e+06
9.07727e+06
2.73521e+06
8.46923e+06
3.75055e+06
7.41435e+06
4.3662e+06
6.23087e+06
4.52264e+06
5.29544e+06
4.51917e+06
4.64078e+06
4.40319e+06
4.04144e+06
4.13777e+06
3.60965e+06
3.8814e+06
3.87398e+06
3.56864e+06
4.50702e+06
3.31052e+06
3.63564e+06
2.16007e+06
-241276
-610742
-2.80826e+06
-5.16227e+06
-47939.4
-5.39365e+06
3.27321e+06
-182248
5.97004e+06
2.63241e+06
8.32133e+06
3.94035e+06
1.03927e+07
4.90974e+06
1.14844e+07
5.38653e+06
1.14788e+07
4.56434e+06
1.21801e+07
2.13244e+06
1.38595e+07
-352274
1.55461e+07
-1.40992e+06
1.78219e+07
-1.01331e+06
1.79133e+07
-463631
1.70912e+07
2.05085e+06
1.79285e+07
2.23003e+06
824650
844166
5.16473e+06
1.0008e+07
2360.07
59786.6
1.0048e+07
6037.63
53065.1
1.00852e+07
7209.21
53527.2
1.01197e+07
7124.43
96930.3
1.01509e+07
6739.29
137858
1.01776e+07
6171.78
179580
1.01989e+07
5453.81
222245
1.02146e+07
4643.98
265634
1.02242e+07
3766.66
310179
1.02266e+07
2795.75
356319
1.02205e+07
1683.26
403768
1.02046e+07
371.649
452516
1.01765e+07
-1107.57
502931
1.01349e+07
-2580.19
554491
1.00792e+07
-3683.45
608275
1.00132e+07
-4456.78
664963
9.9406e+06
-4808.82
726928
9.86654e+06
-4146.16
794486
9.79597e+06
-1971.33
863318
9.75511e+06
506.998
937912
9.73233e+06
12386
1.04409e+06
9.80821e+06
-13608.2
1.20556e+06
9.9915e+06
-39004
1.28276e+06
1.00108e+07
7695.58
1.59905e+06
9.93727e+06
37867.8
2.10327e+06
9.88339e+06
57488
2.91307e+06
9.78532e+06
34962.5
3.88535e+06
9.66921e+06
-48305.4
4.71767e+06
9.29468e+06
-50586.3
5.26934e+06
8.52422e+06
85769.5
5.47754e+06
7.46215e+06
213893
5.35533e+06
6.41144e+06
200810
4.966e+06
5.572e+06
105090
4.47303e+06
5.17249e+06
57476.6
3.93204e+06
5.11341e+06
-48892.1
3.14447e+06
4.65227e+06
-375699
1.59999e+06
3.88256e+06
-1.04194e+06
414733
2.58125e+06
-819735
-424138
1.0436e+06
763967
-946174
1.73941e+06
1.36512e+06
-561744
3.48079e+06
1.02872e+06
-63790.3
5.42873e+06
542502
220753
7.53618e+06
-126900
217708
9.69707e+06
-1.0588e+06
-333804
1.14488e+07
-1.75664e+06
-852589