/*--------------------------------*- C++ -*----------------------------------*\
| =========                 |                                                 |
| \\      /  F ield         | OpenFOAM: The Open Source CFD Toolbox           |
|  \\    /   O peration     | Version:  4.1                                   |
|   \\  /    A nd           | Web:      www.OpenFOAM.org                      |
|    \\/     M anipulation  |                                                 |
\*---------------------------------------------------------------------------*/
FoamFile
{
    version     2.0;
    format      ascii;
    class       volScalarField;
    location    "39";
    object      epsilon;
}
// * * * * * * * * * * * * * * * * * * * * * * * * * * * * * * * * * * * * * //

dimensions      [0 2 -3 0 0 0 0];

internalField   nonuniform List<scalar> 
4432
(
0.000386325
0.000423601
0.000459954
0.000503157
0.000546456
0.000597084
0.000638101
0.000699253
0.000730262
0.000796101
0.000798679
0.000802151
0.000821263
0.000730384
0.000954662
0.000970124
0.00661776
0.241882
0.460691
3.44154
9.20714
16.77
31.6297
39.9377
47.312
45.7887
32.7106
22.1437
14.7378
14.902
14.1208
23.5767
31.8038
28.4912
4.95428
0.223596
0.164952
0.0776212
0.0924795
0.100201
0.17071
0.0184235
0.00376815
0.00604918
0.00219495
0.00243607
0.0017261
0.00379162
0.00692286
0.0103343
0.0220576
0.245115
0.146895
0.0810249
0.000389895
0.000420222
0.000465528
0.000502662
0.000549978
0.000592673
0.000642205
0.000688208
0.000731934
0.00078356
0.000795911
0.000803124
0.000822861
0.000765167
0.000907578
0.0010136
0.00393958
0.128899
0.499099
3.36833
9.8387
14.4297
25.4256
28.6552
33.805
28.7433
19.6102
13.3877
10.1927
7.66419
5.80825
3.58363
3.38105
3.17123
2.59567
0.0431104
0.110846
0.00641556
0.00725979
0.00431001
0.0382318
0.0044162
0.00522281
0.00231547
0.00212826
0.0010205
0.000689502
0.0162765
0.028472
0.0915992
0.0703376
0.226978
0.0824675
0.0703797
0.0504968
0.000801878
0.00024211
0.000148277
0.000185248
0.000177132
0.00018215
0.000198509
0.000235487
0.000260825
0.00035732
0.000385465
0.000571497
0.000533121
0.000639685
0.00173788
0.00987925
0.067255
1.07789
4.45147
8.71145
12.8717
19.3133
22.1323
23.0548
21.9876
18.4426
14.4277
12.7547
15.1106
19.2495
25.6341
21.0559
12.5787
13.2781
0.903829
0.470934
0.142824
0.0941821
0.113902
0.170768
0.129564
0.0600441
0.131226
0.0451596
0.0101067
0.00304123
0.00840667
0.0293187
1.10953
4.12289
2.7498
0.940018
0.705833
0.0505003
0.000795089
0.000244389
0.000153102
0.00018281
0.000192383
0.0001761
0.000191987
0.000248561
0.000256992
0.000389415
0.000395311
0.000609075
0.000580865
0.000974603
0.000964434
0.0173188
0.0928047
1.26583
4.0171
7.79152
10.8571
16.1316
18.0971
18.5114
16.1536
12.1593
9.61193
9.91642
8.74176
5.47469
7.39804
7.92706
2.64988
1.74072
0.122727
0.061892
0.0175652
0.00974447
0.00571233
0.0369014
0.0188877
0.0148073
0.0159633
0.0162007
0.00574696
0.0981604
0.634989
0.633842
0.961221
3.11674
1.73959
0.634433
0.892548
0.0503311
0.000133559
1.85094e-06
1.51729e-06
3.1246e-06
5.52545e-06
8.38009e-06
1.20654e-05
1.97487e-05
2.8301e-05
4.4469e-05
6.53237e-05
8.3636e-05
0.000131026
0.000154299
0.0002094
0.000672699
0.548932
2.63345
4.23617
6.20171
8.09388
10.17
11.9741
12.2459
9.6814
7.03123
7.0689
9.26428
14.675
16.9183
18.08
13.2238
8.5128
5.16665
0.257364
0.244935
0.00651247
0.0732084
0.0931267
0.204488
0.208736
0.134222
0.117172
0.0952457
0.0238672
0.185407
1.35799
5.36581
12.3172
43.5709
29.1232
9.44383
0.0552516
0.050334
0.000133487
1.90922e-06
1.44362e-06
2.86648e-06
4.19134e-06
8.10257e-06
1.41475e-05
1.99902e-05
2.96794e-05
4.47237e-05
5.54662e-05
7.8768e-05
0.000123292
0.000225555
0.000376602
0.0372167
1.14526
2.67451
3.97979
5.54351
6.79435
8.41023
8.44133
8.19973
4.4265
2.96447
4.19612
5.3718
3.8876
5.2008
7.71203
6.57563
1.90553
0.835384
0.15717
0.064137
0.0422466
0.0158948
0.0257918
0.0438458
0.0302521
0.016074
0.0136959
0.0109075
0.00124039
0.532672
0.976305
1.48611
7.93127
17.3142
11.1528
0.609685
0.0858895
0.0503277
0.00013346
2.59668e-07
6.06941e-08
7.53816e-08
4.73934e-08
2.35375e-07
8.77808e-07
1.45423e-06
2.14998e-06
4.33818e-06
7.72576e-06
1.22244e-05
1.86433e-05
1.94434e-05
8.08186e-05
0.0219152
0.242742
2.22492
3.02013
3.48018
3.98579
5.69598
7.5712
6.76006
3.53818
3.10488
5.16661
8.05022
9.71111
8.77962
7.20468
5.34035
2.9912
1.14554
0.243807
0.000839684
0.0202001
0.0208145
0.0504748
0.0757498
0.0929201
0.0273785
0.149922
0.268266
0.0194176
0.122663
0.64141
0.18339
1.08354
5.14555
12.6528
8.37284
1.53607
0.0503304
0.000133388
2.57508e-07
5.95153e-08
9.71761e-08
1.70332e-07
2.82153e-07
6.23177e-07
6.84108e-07
1.74582e-06
4.29814e-06
7.29097e-06
1.16252e-05
2.70338e-05
3.14464e-05
6.46003e-05
0.0194729
0.904137
2.15449
2.74675
3.03277
3.13723
4.66086
6.41172
5.6939
3.72168
3.52687
4.27653
4.61572
4.47236
5.22627
5.30585
4.54343
2.96868
0.539011
0.0915436
0.0566003
0.0181626
0.00114148
0.00130123
0.0241743
0.00624125
4.10831e-05
0.00422817
0.00249234
0.0557786
0.923991
1.21519
0.034918
1.96687
7.17111
1.67491
0.952665
0.259391
0.0503246
0.000133471
2.58716e-07
5.59632e-09
6.49918e-09
7.60434e-09
9.93084e-09
1.21869e-08
6.22262e-08
2.04204e-09
4.77816e-07
9.03551e-07
7.32945e-07
8.41421e-07
1.24151e-06
1.4297e-06
0.00362211
0.043461
0.470152
1.69002
1.92772
1.94749
4.54171
5.73292
4.75526
3.42166
3.69689
4.87952
5.63406
5.58273
4.84138
3.92935
2.92627
1.96334
1.32143
0.828549
0.0419818
0.00585939
0.00753254
0.0279938
0.0528696
0.0840703
0.00557856
0.00334695
0.00506803
0.000511778
0.00128617
0.0319334
9.76723e-05
0.00204142
0.00169022
0.0013019
2.00536
0.0538275
0.0503274
0.000133397
2.58624e-07
5.42641e-09
6.62918e-09
6.26041e-09
9.54156e-09
5.07144e-09
3.45713e-09
1.35241e-07
6.65818e-08
6.02515e-07
1.17022e-06
2.87146e-06
1.31163e-06
0.00023592
0.00853113
0.0826628
0.520699
1.20249
1.2907
1.36718
3.92339
5.6354
4.39813
3.21481
3.41207
3.93004
4.18414
4.12233
3.87778
3.3593
2.63906
2.01391
1.01576
0.0612512
0.000977036
0.000599331
1.35744e-05
0.00653756
0.0126841
0.000601591
0.000110611
0.0038012
0.000142084
4.4141e-05
0.00478491
0.000252496
1.99098e-06
0.000536793
0.0526937
0.0423002
0.172274
0.0106017
0.0503218
0.000133482
2.59527e-07
6.3009e-09
5.46986e-11
1.59435e-11
7.43154e-11
6.70285e-11
4.45811e-10
1.82209e-09
2.01913e-08
3.12679e-08
9.91205e-09
5.74555e-09
1.49552e-08
4.91099e-07
7.99426e-07
0.00341379
0.00601201
0.100339
0.240219
0.670002
1.73175
3.40864
3.44356
2.63125
3.22971
3.82276
4.04972
3.76388
3.02885
2.36429
1.85412
1.50781
1.25695
0.173945
5.98871e-05
7.35912e-08
3.35886e-08
0.00104719
0.00403348
0.00280043
0.00165332
0.00123463
0.00175077
1.94708e-06
4.36056e-06
0.000342955
9.49897e-06
2.22229e-07
3.76355e-05
9.3153e-06
0.000100798
8.79971e-05
0.0503244
0.000133414
2.59248e-07
6.3035e-09
5.68893e-11
1.27245e-11
7.09839e-11
2.32242e-11
9.0653e-10
6.95187e-09
9.73949e-09
2.31357e-08
3.01674e-08
5.24477e-08
1.10339e-08
3.641e-06
0.000100546
0.00120206
0.00709155
0.0458456
0.0285217
0.0348119
1.50823
3.24196
3.05216
2.37077
2.79629
3.2191
3.37753
3.21843
2.72848
2.18504
1.75591
0.954872
0.144998
0.00183332
6.85143e-05
3.76237e-08
1.1267e-11
2.2047e-09
0.00139326
0.000286545
3.52704e-05
9.97763e-05
6.76676e-05
5.96352e-06
2.32714e-07
4.43063e-07
1.06746e-08
5.55418e-05
0.00884888
0.000145779
9.47634e-06
2.77561e-05
0.0503189
0.00013349
2.59674e-07
6.33742e-09
3.39684e-11
1.27912e-12
5.58517e-13
3.55507e-13
1.93049e-12
3.58752e-13
2.10193e-10
2.53952e-10
1.24272e-10
5.1001e-11
1.81744e-10
7.92179e-09
6.22999e-10
1.90823e-06
1.31352e-05
0.000461179
0.000317763
0.0200693
0.101443
1.73775
2.37028
1.82602
2.05796
2.57489
2.71575
2.36746
1.88891
1.50999
1.26474
1.14829
0.148172
1.73179e-06
9.83797e-12
2.27685e-13
7.46902e-12
7.9461e-09
6.94639e-07
2.51711e-06
1.98794e-05
1.29865e-05
3.29593e-05
1.54761e-06
2.88232e-08
6.983e-08
2.04346e-09
1.6677e-10
1.12537e-07
7.70967e-07
1.52132e-06
7.271e-06
0.0503217
0.000133422
2.59391e-07
6.33583e-09
3.38248e-11
1.25304e-12
5.37432e-13
2.99845e-13
5.29243e-13
5.75626e-11
1.3752e-11
3.36746e-10
3.51937e-10
5.19596e-10
9.9907e-11
1.95821e-09
2.70209e-07
3.19563e-06
1.27423e-05
0.000229924
3.30629e-05
0.000733256
0.156809
1.11871
1.92127
1.74773
1.97104
2.3491
2.39985
2.26095
1.82209
1.45036
1.15963
0.165172
0.0105812
1.27938e-06
4.34957e-12
3.4268e-11
2.57056e-12
7.95565e-10
1.55559e-06
1.22615e-06
5.30167e-06
1.94984e-05
1.69054e-06
1.72118e-07
1.22547e-10
3.95986e-08
9.77023e-10
3.3212e-07
5.15239e-06
1.21391e-05
8.05001e-07
7.34586e-07
0.0503165
0.000133513
2.5919e-07
5.97237e-09
3.22368e-11
1.31882e-12
2.18828e-13
1.69451e-13
1.73926e-13
1.70549e-13
2.14004e-12
2.56962e-12
2.08227e-12
8.51711e-13
2.95083e-12
1.79949e-10
1.17969e-09
1.39733e-08
2.9552e-06
1.06607e-05
1.00402e-05
1.51678e-05
0.0003668
0.594168
1.21778
1.09343
1.0084
0.841046
0.482174
0.544357
1.35097
1.16263
0.975256
0.324945
0.00144181
4.82356e-09
1.01481e-11
5.49362e-13
2.14377e-12
6.4665e-10
6.69853e-08
3.03022e-07
1.20811e-06
1.82741e-06
5.18454e-06
4.32057e-07
1.12978e-10
1.93192e-08
1.20765e-11
6.17211e-10
7.29229e-09
2.29952e-08
3.99861e-08
1.10345e-07
0.0503189
0.000133447
2.5891e-07
5.97007e-09
3.21828e-11
1.31396e-12
2.1507e-13
1.67261e-13
1.5486e-13
5.52745e-13
3.41326e-13
3.78742e-12
2.75614e-12
4.19789e-12
8.98193e-13
7.42053e-12
4.42625e-08
5.05941e-07
3.12931e-06
5.04468e-06
9.63255e-06
2.10958e-07
0.00873671
0.0291944
0.852175
1.02385
0.569436
1.53372
0.931178
1.28346
0.559014
0.91123
0.342845
0.000795961
2.01587e-05
1.00338e-07
7.91677e-11
3.01828e-13
2.76192e-13
2.81871e-12
1.88577e-10
4.58315e-10
4.43967e-10
1.78322e-08
3.15374e-08
2.62805e-09
9.6515e-12
4.91369e-09
1.32371e-10
3.09746e-08
3.50643e-08
8.49643e-10
2.45222e-08
3.87091e-08
0.0503139
0.000133514
2.59263e-07
5.99657e-09
3.24769e-11
1.32369e-12
2.13372e-13
1.56536e-13
1.6269e-13
1.66092e-13
1.86523e-13
1.93493e-13
1.91648e-13
1.80468e-13
2.16692e-13
1.67926e-12
2.82987e-12
2.75095e-11
7.12048e-08
1.41356e-06
6.36809e-08
2.13349e-06
2.71595e-06
0.0088486
0.375328
0.477449
0.42884
0.0170432
0.00325086
0.00157206
0.181603
0.232489
0.277855
0.0210203
4.07962e-06
2.39704e-07
2.23644e-09
6.85825e-12
1.84739e-13
2.59617e-13
3.73279e-12
2.7106e-10
2.69216e-10
7.40102e-09
8.53688e-07
7.11396e-08
3.3726e-12
2.15831e-10
1.74109e-10
3.6941e-09
1.2001e-08
1.91744e-08
2.94023e-08
5.46341e-08
0.0503165
0.00013345
2.59011e-07
5.99171e-09
3.21531e-11
1.3078e-12
2.15564e-13
1.65701e-13
1.49084e-13
1.58312e-13
1.58864e-13
1.97583e-13
1.96424e-13
2.22377e-13
1.85183e-13
3.08325e-13
3.072e-11
2.00101e-09
8.35636e-08
3.81457e-07
2.43414e-07
2.49631e-09
2.011e-05
0.000153899
0.019826
0.328673
0.0244116
0.193386
0.0263316
0.0658893
0.00574996
0.0474562
0.0027999
1.29256e-05
8.5761e-06
2.34556e-07
3.54283e-10
6.26736e-13
1.65193e-13
2.24507e-13
1.58647e-11
1.81072e-12
6.10099e-11
1.68362e-11
8.37483e-11
8.65205e-12
1.08432e-12
3.6852e-11
5.99346e-10
3.8941e-09
6.72008e-09
1.6856e-08
2.99727e-08
4.41619e-08
0.0503123
0.000133533
2.59443e-07
6.03694e-09
3.26534e-11
1.30947e-12
2.11056e-13
1.57344e-13
1.60965e-13
1.61217e-13
1.66253e-13
1.5597e-13
1.55966e-13
1.70823e-13
1.68561e-13
1.85182e-13
2.16764e-13
7.5369e-13
7.49185e-11
5.89416e-09
3.66321e-11
5.40936e-08
1.29728e-07
0.00442805
0.0442236
0.202114
0.0297227
7.44243e-06
5.35263e-06
5.8855e-06
0.00177513
0.00247489
0.00303894
4.25807e-05
1.80535e-06
3.37939e-07
1.47726e-09
7.59209e-12
4.25385e-13
1.81451e-13
1.79357e-13
2.69376e-13
2.70563e-12
2.35221e-11
1.46682e-09
1.33138e-10
1.13253e-12
3.28447e-12
1.31938e-11
4.64219e-10
1.26586e-09
4.93438e-09
2.13585e-08
3.28335e-08
0.0503145
0.000133474
2.59208e-07
6.02806e-09
3.24239e-11
1.32187e-12
2.15223e-13
1.64236e-13
1.55503e-13
1.65958e-13
1.6935e-13
1.70628e-13
1.62957e-13
1.6167e-13
1.63707e-13
1.61555e-13
6.96849e-13
6.16771e-12
1.11317e-10
4.59734e-10
2.51881e-10
1.22973e-11
5.6555e-08
5.01787e-07
2.97926e-05
0.00434233
2.44223e-05
0.000879105
0.000147071
0.000454231
9.18782e-06
0.000115716
4.18697e-06
6.22483e-06
5.43153e-07
1.83034e-09
7.38417e-12
4.79825e-13
1.6703e-13
1.81022e-13
1.81481e-13
1.99156e-13
2.76322e-13
6.24774e-13
3.9387e-12
6.12094e-13
1.72908e-13
5.74548e-13
1.39381e-11
3.04062e-10
2.14766e-09
1.40503e-08
3.58797e-08
5.4946e-08
0.0503102
0.000133535
2.59558e-07
6.05833e-09
3.27333e-11
1.31892e-12
2.13901e-13
1.6812e-13
1.61439e-13
1.68021e-13
1.69011e-13
1.61221e-13
1.57486e-13
1.69832e-13
1.68492e-13
1.71044e-13
1.70249e-13
1.79996e-13
1.23102e-12
1.19094e-11
1.61766e-12
6.45634e-11
1.96439e-10
0.000276289
0.00330028
0.0135718
0.000312364
6.6172e-08
1.71491e-07
1.517e-06
1.18615e-06
2.06337e-06
2.86171e-06
1.59091e-06
2.32501e-07
3.92245e-09
1.5199e-11
9.77702e-13
2.21789e-13
1.97062e-13
1.86168e-13
1.77551e-13
2.63069e-13
2.16417e-12
1.17477e-11
3.3002e-12
3.44669e-13
3.18476e-13
6.77612e-13
1.32065e-11
9.2919e-11
5.51614e-10
1.5307e-09
8.69183e-09
0.0503127
0.000133473
2.59296e-07
6.05958e-09
3.25633e-11
1.30224e-12
2.14076e-13
1.71599e-13
1.66919e-13
1.65567e-13
1.62025e-13
1.58342e-13
1.65375e-13
1.65109e-13
1.65998e-13
1.6471e-13
1.79068e-13
3.1021e-13
1.49544e-12
3.5029e-12
2.71993e-12
7.28794e-13
4.37447e-10
2.14514e-08
3.60051e-07
2.84113e-06
3.13309e-08
6.41357e-07
1.66656e-06
2.35693e-06
1.4311e-06
2.90987e-06
1.81375e-06
1.01446e-07
4.68368e-10
4.62966e-12
4.3626e-13
1.86082e-13
1.71831e-13
2.11742e-13
1.79076e-13
1.80987e-13
1.89482e-13
2.70493e-13
4.12523e-13
2.56453e-13
1.76986e-13
2.01964e-13
5.05626e-13
3.51646e-12
2.22881e-11
1.86482e-09
3.67064e-09
2.41559e-08
0.0503097
0.000133559
2.5974e-07
6.04978e-09
3.23334e-11
1.27786e-12
2.12974e-13
1.67186e-13
1.63058e-13
1.61931e-13
1.57264e-13
1.69783e-13
1.65128e-13
1.58041e-13
1.65653e-13
1.64734e-13
1.63439e-13
1.58982e-13
1.93798e-13
4.83475e-13
4.24873e-09
5.09433e-08
6.10203e-07
6.76197e-06
7.92013e-05
0.000247416
1.71881e-05
5.74472e-09
3.28569e-10
1.09289e-08
8.97556e-08
6.42417e-08
1.48857e-07
1.56626e-08
1.25959e-10
2.91992e-12
4.00249e-13
1.84949e-13
1.93182e-13
1.9072e-13
1.85221e-13
1.61089e-13
1.79355e-13
3.26397e-13
9.89028e-13
4.46727e-13
2.36218e-13
2.18737e-13
1.99572e-13
4.89063e-13
4.90551e-12
7.34466e-12
3.18685e-11
6.53818e-10
0.0503116
0.000133498
2.5948e-07
6.05287e-09
3.28185e-11
1.32515e-12
2.10678e-13
1.5996e-13
1.68333e-13
1.60251e-13
1.55777e-13
1.71119e-13
1.63445e-13
1.60959e-13
1.72175e-13
1.72168e-13
1.69763e-13
1.57472e-13
1.87107e-13
2.53503e-13
2.40956e-13
1.87363e-13
1.08164e-11
1.19045e-10
5.48001e-08
3.17719e-06
5.04482e-09
8.32494e-09
1.82863e-07
1.29737e-07
3.1309e-08
5.1724e-08
2.92408e-09
6.67418e-11
2.49477e-12
3.84655e-13
1.76425e-13
1.96646e-13
1.45438e-13
1.17569e-12
3.83391e-13
1.92952e-13
1.74482e-13
1.96028e-13
2.15654e-13
2.16766e-13
1.76198e-13
2.15706e-13
2.35513e-13
2.81353e-13
8.85519e-13
6.34525e-13
3.20184e-11
4.34612e-10
0.0503082
0.000133528
2.60733e-07
6.68448e-09
3.67234e-11
1.40657e-12
2.25773e-13
1.74785e-13
1.63233e-13
1.5675e-13
1.69357e-13
1.62499e-13
1.57338e-13
1.72585e-13
1.71041e-13
1.72402e-13
1.68771e-13
1.72778e-13
1.77844e-13
1.24995e-13
1.35216e-11
1.82966e-05
0.000219193
1.39483e-05
7.10144e-06
7.6396e-06
5.15117e-06
3.72303e-06
2.71767e-06
4.67282e-10
9.66348e-11
8.05742e-11
1.51413e-10
1.23727e-11
1.27671e-12
2.77494e-13
2.03265e-13
1.84973e-13
1.70403e-13
1.94263e-13
2.06326e-13
1.90035e-13
1.69135e-13
1.92372e-13
1.92798e-13
1.91825e-13
2.07059e-13
1.72375e-13
2.1662e-13
1.455e-13
2.63529e-13
6.79415e-13
1.82772e-12
2.36374e-11
0.0503105
0.000133458
2.60434e-07
6.69309e-09
3.66578e-11
1.39519e-12
2.24959e-13
1.75665e-13
1.6972e-13
1.68101e-13
1.71453e-13
1.71814e-13
1.68341e-13
1.70615e-13
1.6507e-13
1.60847e-13
1.71482e-13
1.73039e-13
1.7827e-13
1.68577e-13
1.52043e-13
5.59867e-10
3.26724e-09
0.000818461
0.00056626
7.23571e-06
1.8111e-06
4.51015e-05
1.19829e-05
3.10085e-10
3.35321e-11
1.4101e-08
4.93979e-09
4.42247e-10
6.52702e-12
6.88228e-13
2.22216e-13
1.73643e-13
3.11345e-12
3.70112e-11
4.79935e-12
1.1708e-12
2.85601e-13
2.20333e-13
1.95722e-13
1.67588e-13
1.94589e-13
1.95937e-13
2.24416e-13
1.58305e-13
2.65713e-13
2.92751e-13
6.11857e-13
8.8194e-12
0.0503087
0.000133671
2.60744e-07
6.25834e-09
3.50227e-11
1.38658e-12
2.21894e-13
1.58429e-13
1.58542e-13
1.57376e-13
1.61313e-13
1.56276e-13
1.62224e-13
1.60134e-13
1.74117e-13
1.73019e-13
1.67146e-13
1.46814e-13
1.61381e-13
1.74432e-13
3.56999e-09
5.14758e-06
0.00262803
8.86024e-06
5.62364e-05
3.27528e-05
8.49927e-05
2.9329e-05
6.74714e-06
7.85393e-07
2.88081e-07
1.29168e-07
5.71855e-09
3.70286e-11
2.1486e-12
3.96403e-13
1.94707e-13
2.14347e-13
9.4875e-14
1.44487e-12
7.29142e-13
2.52728e-13
1.73617e-13
2.07717e-13
2.11967e-13
2.14406e-13
1.95689e-13
1.82075e-13
2.69146e-13
2.65814e-13
1.87247e-13
2.73383e-13
2.3377e-13
1.20723e-12
0.0503101
0.000133461
2.60308e-07
6.61601e-09
3.5896e-11
1.37849e-12
2.19362e-13
1.58858e-13
1.60038e-13
1.60096e-13
1.62685e-13
1.57424e-13
1.70409e-13
1.72549e-13
1.68559e-13
1.65878e-13
1.69468e-13
1.6932e-13
1.6248e-13
1.71558e-13
1.39093e-10
3.44065e-09
0.00683818
0.010883
0.00565679
0.0173077
0.00246124
0.000534749
0.00014068
4.73176e-05
9.59481e-06
1.93668e-07
5.60909e-08
5.24866e-09
4.55294e-11
2.21857e-12
1.05941e-12
5.6825e-13
2.5346e-10
3.04112e-09
6.06191e-11
7.75348e-12
1.27818e-12
3.17645e-13
1.99914e-13
2.06426e-13
1.78158e-13
3.39235e-13
4.08072e-13
4.30104e-13
2.54409e-13
3.15907e-13
1.72799e-13
5.17057e-13
0.0503076
0.000133515
2.60868e-07
6.75805e-09
3.72896e-11
1.40326e-12
2.21469e-13
1.58126e-13
1.60155e-13
1.59237e-13
1.59933e-13
1.57199e-13
1.58882e-13
1.6092e-13
1.72321e-13
1.679e-13
1.61534e-13
1.48412e-13
1.60261e-13
9.42302e-10
1.13431e-08
4.98562e-05
0.00015851
0.000251165
0.000358386
0.00055279
0.000835446
0.000147606
3.52781e-05
1.17081e-05
4.27533e-06
2.57148e-07
2.65761e-09
4.96027e-11
4.17016e-12
6.55727e-13
1.47687e-12
1.92018e-12
1.60192e-11
2.94172e-11
7.89558e-12
2.2838e-12
4.6452e-13
2.69894e-13
1.57424e-13
1.64065e-13
2.62296e-13
1.20056e-12
2.91915e-12
1.36619e-12
7.13361e-13
1.29399e-12
8.76219e-13
5.02433e-13
0.0502988
0.0001341
2.62345e-07
6.09805e-09
3.45837e-11
1.33848e-12
2.18195e-13
1.73511e-13
1.68363e-13
1.63882e-13
1.57625e-13
1.69935e-13
1.64134e-13
1.59687e-13
1.71821e-13
1.72692e-13
1.77451e-13
1.66354e-13
1.59388e-13
1.79478e-13
1.28783e-09
0.0032888
0.0161054
0.0926802
0.236226
0.0336561
0.021238
0.00396641
0.00128251
0.000376756
4.02142e-05
1.37096e-06
2.15459e-08
4.8053e-10
2.36379e-11
1.27416e-12
4.46913e-11
5.85771e-11
6.40402e-08
3.32213e-07
9.4106e-09
7.98224e-10
3.64238e-11
2.43158e-12
7.89289e-13
7.05953e-13
1.13506e-12
7.06545e-12
5.59995e-12
2.21929e-12
1.63041e-12
1.37398e-12
4.68004e-13
4.97005e-13
0.0502996
0.000134376
2.63102e-07
5.66256e-09
3.22901e-11
1.32265e-12
2.16776e-13
1.5809e-13
1.62632e-13
1.64535e-13
1.67855e-13
1.67022e-13
1.6957e-13
1.64398e-13
1.57711e-13
1.75521e-13
1.74419e-13
1.72824e-13
1.71608e-13
7.29801e-12
4.67979e-11
2.38202e-06
1.05849e-06
3.46306e-05
0.0391921
0.00449002
0.00140043
0.000566059
0.000164119
7.86543e-06
1.12449e-07
6.70426e-10
1.39414e-11
1.53751e-12
8.40624e-13
2.28275e-10
1.33013e-10
3.73999e-09
2.79241e-09
1.11859e-10
1.58191e-11
3.10519e-12
7.57923e-13
2.71287e-13
2.72178e-13
3.29778e-12
4.87665e-11
5.35207e-11
1.09536e-11
4.38684e-12
1.19917e-11
3.49747e-12
2.46415e-12
0.0503119
0.000133774
2.61877e-07
6.60079e-09
3.7025e-11
1.44777e-12
2.19686e-13
1.59915e-13
1.62094e-13
1.58551e-13
1.60491e-13
1.59795e-13
1.66417e-13
1.67299e-13
1.64672e-13
1.61187e-13
1.76399e-13
1.65062e-13
1.61062e-13
1.72233e-13
1.26477e-11
0.000263958
0.0139517
1.73358
0.295665
0.0159582
0.00486607
0.00189488
0.000789814
0.000148904
1.29317e-05
1.70325e-07
1.60913e-09
1.86014e-11
1.47595e-11
8.7809e-09
9.00552e-08
4.36191e-07
9.58928e-06
3.17006e-07
2.4903e-08
1.05606e-09
5.14236e-11
2.08726e-11
8.93986e-12
6.94979e-11
8.53389e-10
2.47454e-10
2.90719e-11
1.37879e-11
8.20759e-12
2.48582e-12
1.49335e-12
0.0503086
0.000133733
2.6128e-07
6.42028e-09
3.61161e-11
1.35353e-12
2.18019e-13
1.70798e-13
1.65277e-13
1.69885e-13
1.62182e-13
1.48947e-13
1.58772e-13
1.60396e-13
1.6017e-13
1.66726e-13
1.56608e-13
1.55788e-13
1.65366e-13
3.38548e-13
1.22647e-12
6.32453e-08
2.72443e-05
2.34778e-05
0.00856671
0.00443031
0.0034132
0.00131754
0.00035816
1.89762e-05
3.19662e-07
5.2196e-09
4.59387e-11
2.06708e-12
3.23367e-12
1.23439e-10
5.21354e-09
2.86708e-08
2.78433e-07
1.12351e-07
9.90314e-09
3.57952e-10
1.99659e-11
3.77531e-12
9.13382e-13
1.02744e-12
2.98393e-10
3.77778e-09
1.96463e-09
4.46482e-10
1.43477e-10
6.1266e-11
7.96952e-12
5.36892e-12
0.0503105
0.000133667
2.61023e-07
6.438e-09
3.6171e-11
1.35648e-12
2.1867e-13
1.73272e-13
1.68359e-13
1.70707e-13
1.7103e-13
1.7231e-13
1.69485e-13
1.62867e-13
1.54115e-13
1.72188e-13
1.7518e-13
1.66826e-13
1.69114e-13
1.78477e-13
2.43384e-09
3.39751e-08
0.0031231
0.0102698
0.077635
0.0582205
0.0211359
0.00447627
0.00114449
0.0002165
1.48669e-05
2.29977e-07
9.94358e-10
1.70099e-11
4.76421e-09
1.91063e-08
7.55954e-07
9.02248e-06
2.43122e-05
0.000126112
7.01317e-06
2.28525e-07
1.40651e-09
8.67095e-10
9.26086e-09
2.07752e-09
3.22022e-09
4.90063e-08
2.92376e-08
2.02444e-09
6.94442e-10
1.43553e-10
2.01781e-11
5.74487e-12
0.0503102
0.00013353
2.61039e-07
6.79963e-09
3.8149e-11
1.43193e-12
2.26326e-13
1.76297e-13
1.61811e-13
1.56026e-13
1.69538e-13
1.6188e-13
1.57495e-13
1.70657e-13
1.72309e-13
1.70143e-13
1.71596e-13
1.73328e-13
1.67405e-13
1.5989e-13
2.62482e-13
2.91769e-07
3.73113e-06
8.11917e-06
8.84246e-05
0.000360073
0.0004353
0.00024797
5.91408e-05
1.59098e-06
9.45657e-09
7.38524e-11
3.26207e-12
4.01769e-13
2.66735e-12
1.41539e-08
2.01888e-07
4.8028e-06
3.26125e-05
1.07923e-06
1.77053e-06
1.68013e-08
3.51136e-10
1.01808e-11
4.61918e-12
2.26632e-11
5.99352e-09
1.24249e-07
9.25859e-08
1.43973e-08
3.72147e-09
1.22846e-09
1.02117e-10
2.56123e-11
0.0503117
0.000133473
2.60826e-07
6.80242e-09
3.80619e-11
1.42865e-12
2.25958e-13
1.76851e-13
1.61791e-13
1.56869e-13
1.71815e-13
1.7243e-13
1.70749e-13
1.60174e-13
1.54953e-13
1.61709e-13
1.54094e-13
1.67473e-13
1.74042e-13
1.72749e-13
7.19624e-11
1.68671e-05
0.000274594
0.000114875
0.000687401
0.00582624
0.00438169
0.00146108
0.000218021
8.05363e-06
6.17876e-08
5.92911e-10
1.48227e-11
1.31918e-12
1.05977e-11
3.27975e-06
3.93328e-05
0.000177336
0.000537656
0.000528299
0.000417614
2.56648e-05
3.42851e-08
2.58529e-07
3.09814e-06
2.14018e-07
2.39907e-07
4.07428e-06
1.77847e-06
1.85808e-07
3.41846e-08
5.38844e-09
4.31852e-10
4.11929e-11
0.0503103
0.000133538
2.60797e-07
6.67304e-09
3.72778e-11
1.40503e-12
2.18263e-13
1.58826e-13
1.59813e-13
1.48805e-13
1.57259e-13
1.70552e-13
1.64023e-13
1.59637e-13
1.62982e-13
1.60968e-13
1.6741e-13
1.62061e-13
1.60947e-13
2.32319e-13
4.3044e-09
5.16266e-08
1.57309e-07
5.85822e-07
2.30446e-05
9.1396e-06
4.4863e-05
2.47115e-05
2.20945e-06
1.47502e-07
7.03607e-08
7.5439e-10
7.64147e-12
8.08915e-13
9.25209e-09
1.61215e-07
4.0841e-05
0.000203157
0.000620609
0.000139038
0.000224064
4.78127e-06
1.55258e-08
2.82041e-09
3.56602e-10
2.31911e-09
2.92886e-07
4.56811e-06
1.22364e-06
2.68201e-07
1.0807e-07
1.54699e-08
1.64028e-09
3.4322e-10
0.0503123
0.00013348
2.60567e-07
6.67204e-09
3.71927e-11
1.40128e-12
2.17854e-13
1.58784e-13
1.62209e-13
1.63009e-13
1.70117e-13
1.71516e-13
1.71663e-13
1.61808e-13
1.57839e-13
1.62679e-13
1.61323e-13
1.72278e-13
1.70675e-13
1.92689e-13
1.48737e-07
1.78389e-06
2.38779e-05
6.8306e-06
9.18416e-05
0.000174341
0.000388819
0.000154786
6.68408e-06
4.95323e-08
5.43619e-10
1.76155e-11
1.6694e-12
1.00767e-09
1.20867e-08
3.81867e-05
0.000424478
0.000944652
0.000959116
0.00107068
0.000871959
0.000434454
6.07944e-06
1.87231e-06
2.22365e-05
1.61709e-06
5.35469e-06
0.000224047
4.50474e-05
1.64041e-06
3.42369e-07
1.50709e-07
1.05743e-08
5.17781e-10
0.0503124
0.000133542
2.60829e-07
6.6705e-09
3.68004e-11
1.37077e-12
2.18348e-13
1.73927e-13
1.6772e-13
1.66934e-13
1.7068e-13
1.62257e-13
1.56854e-13
1.63055e-13
1.56658e-13
1.69587e-13
1.68626e-13
1.72844e-13
1.71743e-13
1.66386e-13
9.99704e-14
2.49546e-10
1.34127e-08
5.97851e-08
1.16949e-06
3.92853e-07
2.8814e-06
1.20914e-06
5.46697e-08
1.81819e-09
9.30483e-11
4.65894e-12
3.02832e-12
2.47841e-11
2.091e-06
9.11464e-06
0.000625407
0.00146927
0.00112288
0.00113972
0.00105548
0.000518781
2.76666e-06
2.33754e-07
2.03456e-08
7.2319e-07
5.6689e-06
5.20324e-05
1.02625e-05
1.15583e-06
4.18327e-07
7.67406e-08
1.11063e-08
1.84662e-09
0.0503138
0.000133487
2.60616e-07
6.67045e-09
3.6707e-11
1.36719e-12
2.17975e-13
1.73814e-13
1.68253e-13
1.68077e-13
1.70576e-13
1.6322e-13
1.57589e-13
1.59267e-13
1.59648e-13
1.61265e-13
1.58944e-13
1.65597e-13
1.48296e-13
1.89698e-13
7.72997e-09
9.26921e-08
1.14254e-06
7.86414e-07
1.50479e-06
1.75696e-05
2.87716e-05
8.85835e-06
1.38026e-07
9.4948e-10
1.55609e-11
1.44872e-12
2.88822e-13
1.47112e-11
3.35734e-09
3.36697e-05
0.00134532
0.00113049
0.000989452
0.00104267
0.000920625
0.000689678
0.00012993
1.65129e-05
9.44631e-05
9.63951e-05
0.00091141
0.00402831
0.000989936
6.08328e-05
4.29312e-06
7.02515e-07
1.10653e-07
4.7864e-09
0.050313
0.000133522
2.60793e-07
6.65052e-09
3.67954e-11
1.36977e-12
2.13989e-13
1.58722e-13
1.58713e-13
1.56831e-13
1.68072e-13
1.67836e-13
1.70426e-13
1.72938e-13
1.63332e-13
1.57677e-13
1.71786e-13
1.74017e-13
1.67884e-13
1.6239e-13
1.10343e-13
8.81265e-13
4.88521e-10
3.13761e-09
2.34129e-08
1.30491e-08
7.054e-08
1.09592e-08
4.03816e-10
1.52762e-11
2.05305e-12
3.83699e-13
3.73572e-10
4.44702e-09
0.000111825
0.00132542
0.00170822
0.00152021
0.00154851
0.00164441
0.00142968
0.00103781
8.44532e-05
2.46523e-06
2.11175e-07
5.90523e-05
0.000174204
0.000205866
3.23235e-05
2.01991e-06
9.34231e-07
1.84008e-07
1.64724e-08
7.34712e-09
0.0503147
0.000133465
2.60572e-07
6.65242e-09
3.66831e-11
1.35657e-12
2.17249e-13
1.71665e-13
1.67982e-13
1.68078e-13
1.64737e-13
1.60322e-13
1.6827e-13
1.71714e-13
1.649e-13
1.57139e-13
1.7367e-13
1.72458e-13
1.73084e-13
1.73751e-13
1.27182e-10
1.52464e-09
1.83647e-08
2.79307e-08
4.27634e-08
9.46501e-07
5.29373e-07
5.92624e-08
1.15381e-09
3.44437e-11
3.53057e-12
4.85697e-13
6.50626e-10
1.53712e-06
1.8444e-05
0.00151809
0.00141589
0.00130071
0.00130692
0.00137003
0.00127943
0.00115097
0.00303486
0.00069328
0.000624633
0.00871023
0.0219556
0.0170953
0.00501631
0.000552226
5.91585e-05
3.42444e-06
1.14943e-07
5.34289e-09
0.0503151
0.000133521
2.60834e-07
6.66793e-09
3.68831e-11
1.36904e-12
2.13456e-13
1.58049e-13
1.66158e-13
1.61163e-13
1.55573e-13
1.6882e-13
1.70964e-13
1.69686e-13
1.66569e-13
1.65433e-13
1.5998e-13
1.66037e-13
1.54087e-13
1.6239e-13
1.60046e-13
1.81341e-13
2.97014e-12
6.27015e-11
1.12288e-10
2.68118e-10
4.89311e-10
7.41858e-11
4.92408e-12
8.31659e-13
2.38065e-13
3.28894e-13
2.24869e-07
6.19602e-07
0.00282004
0.00212942
0.00187274
0.00195805
0.00222833
0.00257321
0.00275753
0.0023734
0.000149996
9.4838e-06
1.04839e-06
0.000934916
0.0015012
0.000583483
8.20331e-05
3.84202e-06
5.57929e-07
8.20937e-07
3.46915e-09
9.74709e-10
0.0503166
0.000133466
2.60622e-07
6.66824e-09
3.67316e-11
1.35465e-12
2.16786e-13
1.71442e-13
1.68049e-13
1.62122e-13
1.57158e-13
1.68593e-13
1.70843e-13
1.68732e-13
1.65434e-13
1.64089e-13
1.59747e-13
1.64172e-13
1.60792e-13
1.65354e-13
1.44121e-13
2.22779e-11
2.88715e-10
2.36996e-10
3.81679e-10
3.05025e-08
6.98821e-09
1.17526e-09
1.94864e-11
1.86737e-12
3.43897e-13
1.16409e-11
3.31312e-07
0.000469632
0.00194076
0.00180824
0.00171703
0.00177737
0.00201433
0.00227428
0.0026118
0.00371432
0.0515634
0.0784236
0.0730543
0.158384
0.0964452
0.0500532
0.0133765
0.00160865
0.000177099
1.50995e-05
1.75424e-08
1.82775e-10
0.0503162
0.000133495
2.60779e-07
6.68091e-09
3.71073e-11
1.37817e-12
2.18289e-13
1.70027e-13
1.65352e-13
1.60665e-13
1.55598e-13
1.60205e-13
1.5689e-13
1.68937e-13
1.70705e-13
1.69486e-13
1.65349e-13
1.57777e-13
1.70186e-13
1.77123e-13
1.64228e-13
1.57483e-13
2.068e-13
8.21377e-13
1.88557e-12
3.5475e-12
5.11563e-12
2.068e-12
3.96204e-13
1.83278e-13
2.23502e-13
1.77016e-07
3.86039e-05
0.000454022
0.00268397
0.00255665
0.00263236
0.00299216
0.00370277
0.00492315
0.00776029
0.0141361
0.0319967
0.00180706
0.00178994
0.00673653
0.00410025
0.000831354
8.52669e-05
8.41462e-06
2.59013e-07
1.43445e-08
1.07798e-08
2.84908e-09
0.0503178
0.00013344
2.60565e-07
6.68048e-09
3.69972e-11
1.3731e-12
2.18687e-13
1.73423e-13
1.61433e-13
1.55887e-13
1.67306e-13
1.68514e-13
1.69552e-13
1.70539e-13
1.62881e-13
1.56892e-13
1.71986e-13
1.63644e-13
1.59888e-13
1.71745e-13
1.24685e-13
7.74633e-13
1.83351e-12
2.27361e-12
3.24525e-12
2.02967e-10
3.87101e-11
5.86971e-12
9.04323e-13
2.39049e-13
1.88537e-13
4.26407e-07
4.94034e-06
0.00369418
0.00254108
0.00231581
0.00245984
0.00281575
0.00352934
0.00473859
0.00799754
0.0298553
0.122252
0.278579
0.43418
0.36853
0.16794
0.0677257
0.0145999
0.00111399
4.48347e-05
3.18159e-06
1.4764e-07
6.00503e-10
0.0503185
0.000133486
2.60798e-07
6.68471e-09
3.68229e-11
1.35258e-12
2.16585e-13
1.7164e-13
1.67297e-13
1.60185e-13
1.5634e-13
1.59377e-13
1.57223e-13
1.60836e-13
1.56903e-13
1.72019e-13
1.72377e-13
1.72906e-13
1.72035e-13
1.65612e-13
1.58037e-13
1.63553e-13
1.49486e-13
1.68693e-13
1.94465e-13
2.27836e-13
2.38883e-13
1.88708e-13
1.88923e-13
1.68387e-13
1.58732e-13
1.08572e-10
3.92839e-06
0.00423935
0.00390068
0.00375218
0.00415193
0.00490282
0.00644099
0.00967734
0.0176851
0.0383416
0.117233
0.111244
0.0495996
0.024038
0.00854906
0.00136424
7.59361e-05
8.59776e-06
1.51682e-06
4.43734e-08
3.69943e-08
2.59704e-08
0.05032
0.000133432
2.60591e-07
6.68289e-09
3.67339e-11
1.357e-12
2.1713e-13
1.71287e-13
1.67745e-13
1.60509e-13
1.56431e-13
1.69003e-13
1.63025e-13
1.567e-13
1.59488e-13
1.57689e-13
1.69763e-13
1.67782e-13
1.65161e-13
1.65081e-13
1.57466e-13
1.75797e-13
1.80996e-13
2.02049e-13
2.13642e-13
2.15014e-12
9.28075e-13
2.94135e-13
1.6955e-13
1.48705e-13
1.56515e-13
1.84494e-14
3.21555e-08
0.00346693
0.00312703
0.00338058
0.00387895
0.00467814
0.00618898
0.00935642
0.0183379
0.0663058
0.190983
0.347355
0.511195
0.437871
0.177241
0.0216631
0.0044802
0.000521005
8.69486e-06
3.88547e-07
4.92409e-07
2.16582e-07
0.0503199
0.000133454
2.60752e-07
6.72119e-09
3.70033e-11
1.37132e-12
2.15585e-13
1.50146e-13
1.55101e-13
1.59299e-13
1.48352e-13