/*--------------------------------*- C++ -*----------------------------------*\
| =========                 |                                                 |
| \\      /  F ield         | OpenFOAM: The Open Source CFD Toolbox           |
|  \\    /   O peration     | Version:  4.1                                   |
|   \\  /    A nd           | Web:      www.OpenFOAM.org                      |
|    \\/     M anipulation  |                                                 |
\*---------------------------------------------------------------------------*/
FoamFile
{
    version     2.0;
    format      ascii;
    class       volScalarField;
    location    "39";
    object      omega;
}
// * * * * * * * * * * * * * * * * * * * * * * * * * * * * * * * * * * * * * //

dimensions      [0 0 -1 0 0 0 0];

internalField   nonuniform List<scalar> 
4432
(
0.0110926
0.0114479
0.0117962
0.0121547
0.0124886
0.0128371
0.0131646
0.013496
0.0138182
0.0141325
0.0144485
0.0147472
0.0150543
0.0153368
0.0156251
0.0158863
0.0161454
0.0163788
0.0166056
0.0168027
0.0169803
0.0171522
0.0173401
0.0175234
0.0177507
0.0179532
0.0182284
0.0184437
0.0187341
0.0189302
0.0191314
0.0193096
0.0194788
0.0196869
0.0200665
0.020805
0.0219132
0.0224374
0.0226787
0.0233421
0.0243456
0.0247688
0.0252337
0.0256116
0.0262703
0.0271978
0.0281074
0.0284233
0.0289697
0.0296303
0.0312055
0.0313323
0.072733
0.0884317
0.0110883
0.0114514
0.0118043
0.0121564
0.0124965
0.0128446
0.0131667
0.0135102
0.0138148
0.0141526
0.0144428
0.0147715
0.0150526
0.0153607
0.015635
0.0159106
0.0161726
0.0164162
0.0166567
0.0168649
0.0170638
0.0172408
0.0174514
0.0176217
0.0178644
0.0180495
0.0183371
0.0185115
0.0188299
0.0189749
0.0192437
0.0193998
0.019717
0.0200003
0.0204132
0.020698
0.0210648
0.0215277
0.0224446
0.0232885
0.0239725
0.0242971
0.02456
0.0250027
0.0261302
0.0265767
0.0271881
0.0275391
0.0290804
0.0296717
0.0311213
0.0312761
0.0400822
0.0679359
21.798
3.38149
1.23359
0.666816
0.438109
0.321252
0.25207
0.206892
0.175178
0.151825
0.133851
0.119712
0.108185
0.0987373
0.0907263
0.0839638
0.0780677
0.0729783
0.0684324
0.0644425
0.0608328
0.0576373
0.054815
0.0522787
0.0501035
0.0480616
0.0463699
0.0446495
0.0432645
0.0417307
0.0404063
0.0390011
0.0378622
0.0366718
0.0357795
0.0347363
0.0339685
0.033082
0.0323631
0.0317054
0.0309401
0.0302857
0.0294955
0.0289005
0.0281894
0.0276388
0.0270955
0.0265191
0.0261206
0.0259317
0.0259396
0.0286348
0.0407269
0.0858101
21.7979
3.38163
1.23367
0.666878
0.438164
0.321298
0.252131
0.206939
0.175256
0.15188
0.133944
0.11977
0.108286
0.0987963
0.0908294
0.0840288
0.0781864
0.0730627
0.0685707
0.0645617
0.0610063
0.0578278
0.0550206
0.052514
0.0502831
0.0482785
0.0464696
0.044798
0.0432996
0.041818
0.0404241
0.0390858
0.0379173
0.0368146
0.0358874
0.0349421
0.0341424
0.0333254
0.0326131
0.0318889
0.0312116
0.0305419
0.0299741
0.0293341
0.0289124
0.0283443
0.0279599
0.0274977
0.0270588
0.0268066
0.0262832
0.0268074
0.0326683
0.0506042
21.7971
3.38125
1.23247
0.666181
0.437975
0.32135
0.252249
0.207078
0.175372
0.152013
0.134057
0.119906
0.108415
0.0989466
0.0909944
0.0842156
0.0784157
0.0733075
0.0688913
0.0648613
0.0613775
0.0581521
0.0553878
0.0528271
0.0506174
0.0485812
0.0467749
0.0451224
0.0435997
0.0422079
0.0408925
0.0397
0.0385654
0.0375448
0.0365651
0.0356345
0.0347489
0.0338946
0.0330738
0.0322715
0.0314616
0.0307323
0.0299736
0.0292968
0.0285994
0.0280746
0.0274812
0.0270808
0.026549
0.026311
0.0256083
0.0259929
0.0283637
0.0363157
21.797
3.38136
1.2325
0.666211
0.438016
0.321394
0.252307
0.207133
0.175445
0.152079
0.134139
0.119984
0.108494
0.0990376
0.0910666
0.0843225
0.0784824
0.0734281
0.0689562
0.064999
0.0614881
0.0583245
0.0555664
0.0530147
0.050819
0.0487461
0.0469426
0.0452624
0.0437293
0.0423438
0.0410369
0.0398413
0.0387546
0.0376826
0.0367973
0.0357673
0.0350157
0.0340246
0.0332606
0.0323373
0.0315708
0.0307841
0.0300123
0.0293376
0.0286099
0.0280988
0.027407
0.0269495
0.0264823
0.0263169
0.0254596
0.0259054
0.0271798
0.027672
21.7972
3.38118
1.23227
0.666036
0.437907
0.321304
0.252241
0.207041
0.175384
0.151967
0.134081
0.119855
0.108446
0.0989012
0.0910381
0.0841877
0.0784693
0.0732811
0.0689171
0.0648428
0.0614018
0.0581822
0.0554168
0.0528952
0.05062
0.0486392
0.0467541
0.0451778
0.0436267
0.0423048
0.0410211
0.0398555
0.0387349
0.0377465
0.0366869
0.0358207
0.0347517
0.0339227
0.0328446
0.0319826
0.0310152
0.0301672
0.0293806
0.0285913
0.0279976
0.0273748
0.026767
0.0263286
0.0255881
0.0251217
0.0237727
0.0244393
0.0242567
0.026098
21.7971
3.3813
1.23233
0.666087
0.437951
0.321352
0.252287
0.207103
0.175435
0.15205
0.134132
0.119956
0.10849
0.0990167
0.0910728
0.0843141
0.0784894
0.0734154
0.0689424
0.0650021
0.0614708
0.0583663
0.0555541
0.0530608
0.0508203
0.0487648
0.0469672
0.0452745
0.0437769
0.0423916
0.0411033
0.0399474
0.0388147
0.0378412
0.0367768
0.035895
0.0348249
0.0339522
0.032924
0.0320368
0.0311394
0.0303711
0.0295722
0.0289636
0.0282481
0.0277357
0.0271342
0.026718
0.0261464
0.0255825
0.0249205
0.0243414
0.0257111
0.0271166
21.7972
3.38116
1.23216
0.665956
0.437856
0.321278
0.252208
0.207032
0.175348
0.15197
0.134044
0.119868
0.10841
0.0989256
0.0910035
0.0842256
0.0784174
0.0733258
0.0688677
0.0649059
0.061381
0.058247
0.055425
0.0529192
0.0506653
0.0486201
0.0468255
0.0451534
0.0436868
0.0423159
0.0410819
0.0398994
0.038764
0.037633
0.0365425
0.0354524
0.0343943
0.0333193
0.0323562
0.0313223
0.0305181
0.0296479
0.0289565
0.0283319
0.0277311
0.0270899
0.0265008
0.0260193
0.0253164
0.0250591
0.02394
0.0245351
0.0247226
0.0248917
21.7971
3.38127
1.23216
0.665959
0.437883
0.321313
0.252261
0.207077
0.175418
0.152024
0.134124
0.11993
0.108494
0.0989896
0.0910909
0.0842743
0.0785197
0.0733558
0.069006
0.0649402
0.0615618
0.0582972
0.0556274
0.0529847
0.0508513
0.0486861
0.0469478
0.045167
0.0437228
0.0422596
0.0410038
0.0397431
0.0386152
0.0374394
0.0363869
0.0352981
0.0342703
0.0332238
0.0322464
0.0312524
0.0303953
0.0295276
0.0288356
0.0280457
0.0273766
0.0267546
0.0260952
0.0256424
0.0250136
0.0246472
0.0240552
0.0241967
0.0242311
0.0248492
21.7972
3.38111
1.23185
0.665735
0.437752
0.321229
0.252182
0.207015
0.175328
0.151971
0.134014
0.119895
0.108362
0.09898
0.0909306
0.0842966
0.0783368
0.0734169
0.0688085
0.0650174
0.0613408
0.0583129
0.0553573
0.0529002
0.0505856
0.0485488
0.0467682
0.0450375
0.04366
0.0422068
0.0410624
0.0398183
0.0387483
0.0375982
0.0365379
0.0354451
0.0343735
0.0332903
0.0322699
0.0312226
0.0303341
0.0293873
0.0286609
0.0277823
0.0271286
0.0263306
0.025844
0.0252672
0.0249208
0.0245107
0.0243568
0.0246472
0.0258149
0.0269164
21.7971
3.38124
1.23191
0.665782
0.437797
0.321269
0.252236
0.207053
0.175406
0.151999
0.134122
0.119899
0.108503
0.0989518
0.0911042
0.0842349
0.0785323
0.0733369
0.0690181
0.0649443
0.061558
0.0583077
0.0555799
0.0529966
0.0507622
0.0487065
0.0468492
0.0451809
0.0436496
0.0422549
0.040943
0.0397005
0.0385474
0.0373029
0.0362355
0.0350326
0.0340138
0.032932
0.0319503
0.0310589
0.0301757
0.0293673
0.0286055
0.027821
0.0271502
0.0263876
0.0259163
0.0253332
0.0249026
0.0245124
0.0242598
0.0244178
0.0251948
0.0257211
21.7971
3.38108
1.23168
0.665609
0.437687
0.321191
0.252159
0.206984
0.175319
0.151928
0.134022
0.119833
0.108392
0.0988962
0.0909848
0.0841911
0.078406
0.0733019
0.0688871
0.0649176
0.0614157
0.0582514
0.0553975
0.0528754
0.050559
0.0485611
0.0466726
0.045086
0.0435031
0.0422779
0.0408545
0.0398566
0.0385187
0.0375668
0.0363111
0.0353485
0.0341815
0.0332405
0.0321617
0.0312575
0.0302753
0.0294166
0.0285251
0.0277624
0.0270304
0.0262937
0.0259909
0.0253333
0.0251746
0.02465
0.0248277
0.0247588
0.0261529
0.0261726
21.797
3.38122
1.23174
0.665655
0.43773
0.321235
0.252204
0.207037
0.175371
0.151993
0.134075
0.119908
0.108435
0.0989858
0.091006
0.0843
0.0784034
0.0734295
0.0688783
0.0650546
0.0614375
0.0583932
0.0554817
0.0530297
0.0506894
0.0487062
0.046794
0.0451912
0.0436009
0.0422645
0.0408953
0.0397161
0.0384626
0.0373656
0.0362007
0.0350965
0.0340875
0.0329638
0.0320471
0.031069
0.0302078
0.0293178
0.0284962
0.0277595
0.0270358
0.0263806
0.0260378
0.0254361
0.0249354
0.0249332
0.0242769
0.0242303
0.0251531
0.0253824
21.7971
3.38107
1.2314
0.665409
0.437588
0.321149
0.252123
0.206972
0.175285
0.15192
0.133987
0.119823
0.10836
0.0988815
0.0909557
0.0841732
0.0783817
0.0732915
0.0688755
0.0649187
0.0614389
0.0582315
0.0554412
0.0527902
0.0506101
0.0484379
0.0467226
0.0449578
0.0435682
0.0421301
0.0409436
0.0396717
0.038601
0.0373742
0.0363059
0.0351794
0.0340897
0.0330488
0.0320235
0.0311811
0.0301908
0.0293819
0.0286029
0.0276854
0.0270354
0.0263218
0.0260135
0.0253423
0.025239
0.0246177
0.0245164
0.0250115
0.0256747
0.0268092
21.797
3.3812
1.23149
0.665476
0.437638
0.321192
0.252167
0.207018
0.175333
0.151976
0.134035
0.119886
0.108403
0.0989488
0.0909888
0.0842478
0.0783957
0.0733854
0.0688656
0.0650402
0.0614047
0.058405
0.0554267
0.0530331
0.0506329
0.0486879
0.0467683
0.0451363
0.0435933
0.0422092
0.0408788
0.0396469
0.0383878
0.0372479
0.0360198
0.0349123
0.0337701
0.032682
0.0316769
0.0307105
0.0297877
0.0289762
0.0281313
0.0275322
0.0268618
0.0264215
0.0258914
0.0254776
0.0248294
0.0244678
0.0242208
0.0239798
0.0244855
0.0250265
21.7971
3.38105
1.23123
0.665284
0.437518
0.321109
0.252088
0.206945
0.175248
0.151895
0.133944
0.119797
0.108311
0.0988516
0.0909048
0.0841394
0.0783353
0.0732539
0.0688515
0.0649038
0.0614522
0.0582414
0.0554617
0.0527941
0.0506073
0.0484221
0.0466607
0.0449364
0.0434245
0.0420875
0.0407771
0.0395865
0.0385007
0.0372967
0.0362743
0.0351606
0.0339865
0.0330026
0.0318579
0.0310495
0.0300352
0.0292096
0.028476
0.0275915
0.02712
0.0263047
0.0259076
0.0254195
0.0253041
0.0257029
0.0264243
0.0276605
0.0298138
0.0310318
21.797
3.38118
1.23129
0.66533
0.437558
0.321152
0.252125
0.206998
0.175286
0.151961
0.133977
0.119875
0.108332
0.098942
0.0909118
0.0842377
0.0783321
0.0733618
0.0688419
0.065012
0.0614274
0.0583773
0.0554436
0.0530072
0.0506143
0.0486645
0.0466961
0.0451159
0.0434529
0.0421694
0.040729
0.0395984
0.0382995
0.0372877
0.0359875
0.0350246
0.033825
0.032771
0.0316981
0.0306903
0.0296896
0.0288139
0.027916
0.0272063
0.026627
0.0261787
0.0256057
0.0252679
0.0248322
0.0246808
0.0254236
0.0253716
0.026774
0.0270808
21.7971
3.38103
1.23093
0.665072
0.437419
0.321054
0.252059
0.206906
0.175228
0.151849
0.133922
0.119746
0.10828
0.0988043
0.0908586
0.0841016
0.0782831
0.0732453
0.0688249
0.0649339
0.0614473
0.0583005
0.055439
0.0528115
0.0505992
0.0483684
0.0466791
0.0448187
0.0434275
0.0419955
0.0407402
0.0395691
0.0383362
0.0372171
0.0360536
0.0348411
0.0337226
0.0325315
0.0315723
0.0306119
0.0296542
0.0288114
0.0280022
0.0272112
0.0267148
0.0258121
0.0258858
0.0264222
0.0273203
0.0286205
0.0308186
0.0328648
0.0359997
0.0358928
21.797
3.38118
1.23104
0.665149
0.437467
0.3211
0.252092
0.206956
0.17526
0.151908
0.133954
0.119809
0.108313
0.0988633
0.090892
0.0841543
0.0783138
0.0732862
0.0688423
0.0649439
0.0614454
0.0582856
0.0554974
0.0528639
0.0507311
0.0485251
0.0468337
0.0449795
0.0435768
0.0420362
0.0408401
0.039451
0.0383805
0.0371049
0.0360039
0.0347744
0.0337463
0.0325148
0.0315839
0.0306236
0.029572
0.0288005
0.0279295
0.0272243
0.0267111
0.0262119
0.0253616
0.0252775
0.0257336
0.0261306
0.0266966
0.0272541
0.0287436
0.030051
21.7971
3.38103
1.23083
0.664989
0.437366
0.32101
0.25203
0.20686
0.175203
0.151792
0.133898
0.119675
0.108257
0.0987169
0.0908349
0.0839967
0.0782559
0.0731305
0.0687758
0.0648346
0.0614013
0.058252
0.0553973
0.0529082
0.0506492
0.0486423
0.0467539
0.0450705
0.0435298
0.0421938
0.0408261
0.0396481
0.0383965
0.037221
0.0359812
0.0348828
0.0337593
0.0325056
0.0316699
0.0305636
0.0297519
0.0289115
0.028316
0.0280069
0.0276843
0.027831
0.0286234
0.0299536
0.0322422
0.0335664
0.0365374
0.0360021
0.0368617
0.0374875
21.797
3.38117
1.23091
0.665043
0.437406
0.32105
0.252063
0.206905
0.175239
0.151842
0.133938
0.119725
0.108301
0.0987576
0.0908901
0.0840198
0.0783253
0.0731293
0.0688483
0.0647957
0.0614384
0.0582067
0.0554596
0.052922
0.0507611
0.0486625
0.0468852
0.0451138
0.043599
0.0421876
0.0407663
0.0395233
0.0382159
0.0370041
0.0358828
0.0346391
0.033704
0.0324347
0.031669
0.030521
0.0297843
0.0287111
0.0281302
0.027278
0.0268146
0.0263811
0.0262314
0.0265829
0.02702
0.0280862
0.0290166
0.0310112
0.0321209
0.0348432
21.7971
3.38104
1.23058
0.664808
0.437272
0.320967
0.251982
0.206841
0.175147
0.151777
0.133829
0.119657
0.108175
0.0986907
0.0907373
0.0839625
0.0781344
0.0730795
0.0686501
0.0647678
0.061296
0.0582148
0.0554287
0.0530239
0.050986
0.0490228
0.0472138
0.0454983
0.0438947
0.0426292
0.0410556
0.0400131
0.0384914
0.0375089
0.0361912
0.0352143
0.034151
0.0331932
0.0324521
0.0318148
0.0322024
0.0319402
0.0320009
0.0327054
0.0337054
0.0346193
0.0360445
0.0375315
0.0381493
0.0390219
0.038108
0.0382248
0.0383758
0.0382778
21.7971
3.38118
1.23068
0.664869
0.437316
0.321002
0.252017
0.206876
0.175182
0.151821
0.133859
0.119715
0.108194
0.0987589
0.0907526
0.0840243
0.0781627
0.073112
0.0686837
0.0647517
0.0612975
0.05815
0.0554067
0.0529846
0.0509505
0.048972
0.0472025
0.0454459
0.0439186
0.0424516
0.0410805
0.0397412
0.038483
0.037206
0.0360625
0.0349211
0.0337637
0.0329454
0.0319383
0.0311545
0.0305712
0.0299947
0.0295754
0.0297309
0.0296578
0.0301085
0.0308024
0.0316841
0.0329362
0.0338901
0.0358873
0.0366528
0.0382794
0.0387917
21.7972
3.38105
1.23051
0.664735
0.437226
0.32092
0.251958
0.20679
0.175124
0.151719
0.1338
0.119594
0.108136
0.0986167
0.0906918
0.0838643
0.0780765
0.072953
0.068542
0.0646119
0.0611275
0.0581821
0.0552742
0.0536651
0.0520946
0.0517176
0.0500346
0.0499697
0.0487062
0.0478733
0.0460496
0.0480042
0.0477879
0.047015
0.0475949
0.0478636
0.0455041
0.048542
0.0478594
0.0469766
0.0497761
0.0476455
0.0495035
0.0492054
0.0475803
0.0456419
0.0442319
0.0431866
0.0417173
0.0404937
0.0385377
0.0376017
0.0373197
0.0371961
21.7971
3.38119
1.23058
0.664788
0.437261
0.32096
0.251979
0.206838
0.175143
0.151775
0.133817
0.119658
0.108148
0.0986901
0.0906929
0.0839495
0.0780646
0.0730423
0.0685169
0.064687
0.0610456
0.0581955
0.0551564
0.0536713
0.0518286
0.0511904
0.0495771
0.0479887
0.0468238
0.0451005
0.043959
0.0421657
0.0415374
0.0394787
0.0402084
0.040368
0.0406382
0.0412111
0.0406274
0.0396094
0.0424196
0.0403359
0.0429341
0.0416913
0.0414154
0.0420518
0.0425603
0.0433357
0.0431433
0.0418289
0.0412269
0.0401881
0.0396771
0.0396385
21.7973
3.38108
1.2303
0.664582
0.437152
0.320868
0.251936
0.206738
0.17512
0.151642
0.133814
0.119482
0.108172
0.0984621
0.0907531
0.0836458
0.0781772
0.072617
0.0687009
0.0641083
0.0613426
0.057447
0.0563714
0.0560938
0.0634972
0.108838
0.110909
0.117605
0.115706
0.114074
0.110926
0.104558
0.0992262
0.0944933
0.0900353
0.085673
0.0811984
0.0764518
0.0714872
0.0666796
0.06195
0.0576488
0.0534969
0.05031
0.0476003
0.0449315
0.0430492
0.041301
0.0405542
0.0389995
0.0385026
0.0374113
0.0382558
0.0377447
21.7972
3.38123
1.23045
0.66468
0.437207
0.320908
0.251962
0.206774
0.175143
0.151685
0.133836
0.119533
0.108194
0.0985157
0.0907789
0.0836996
0.0782031
0.0726825
0.0687008
0.064184
0.0612836
0.0575299
0.0561029
0.0553547
0.0608805
0.0928679
0.0911163
0.101809
0.1003
0.0968109
0.0935639
0.0898785
0.0868686
0.08291
0.0808179
0.0847811
0.0832827
0.0803544
0.0752186
0.0690703
0.0645341
0.0607893
0.0575947
0.0549385
0.0523647
0.0500364
0.0475972
0.0455153
0.0440248
0.0405869
0.0397668
0.038925
0.038087
0.0387869
21.7974
3.38111
1.23028
0.66455
0.437126
0.320835
0.251916
0.206695
0.175106
0.151585
0.133808
0.119407
0.108179
0.0983624
0.0907733
0.0835206
0.078195
0.0724799
0.0686443
0.0641203
0.0605601
0.0577414
0.0570631
0.0711344
0.216981
0.347876
0.129272
0.12229
0.0916382
0.0776927
0.0684496
0.0633596
0.0607669
0.0596172
0.0582193
0.0570717
0.0551716
0.0538799
0.0520219
0.0506256
0.0489367
0.0470221
0.046361
0.0438723
0.0427458
0.0415404
0.0412838
0.038164
0.0380527
0.0369968
0.0375278
0.0389474
0.0407996
0.0383559
21.7973
3.38126
1.23041
0.664636
0.437177
0.320868
0.251948
0.206718
0.175143
0.151605
0.133855
0.119425
0.108233
0.098378
0.0908345
0.0835346
0.0782524
0.0725179
0.0686736
0.0640679
0.0612162
0.0569158
0.0577283
0.0698965
0.222462
0.324805
0.182744
0.116854
0.0891643
0.0769992
0.0704055
0.0669864
0.0654365
0.0642311
0.0623968
0.06041
0.0581566
0.0560448
0.0541032
0.0521663
0.0502849
0.0485116
0.0466856
0.0450284
0.0436779
0.0405046
0.0394611
0.0388874
0.0363878
0.0364597
0.0362532
0.0389619
0.0364224
0.0378016
21.7975
3.38117
1.23018
0.664467
0.43708
0.320801
0.251896
0.206663
0.175091
0.151548
0.133795
0.119366
0.108164
0.0983188
0.0907546
0.0834757
0.0781614
0.0724547
0.0685611
0.064025
0.0612341
0.0563233
0.06025
0.118881
0.253224
0.209704
0.169588
0.143173
0.12875
0.117423
0.108796
0.101312
0.0945611
0.0878247
0.0816898
0.0750716
0.0692507
0.0634172
0.0579341
0.0534043
0.048932
0.0458529
0.0417281
0.0382835
0.0357432
0.034815
0.0319188
0.0346718
0.0330777
0.0339395
0.0347756
0.0356463
0.0361645
21.7975
3.38133
1.23035
0.664574
0.437137
0.320839
0.25192
0.206692
0.175112
0.151578
0.13382
0.119398
0.108195
0.0983515
0.0907942
0.0835013
0.0782286
0.0724354
0.0687288
0.0638706
0.0613082
0.0571865
0.0567393
0.13046
0.219758
0.193948
0.161795
0.140897
0.126103
0.115152
0.106382
0.0989778
0.0923957
0.0857055
0.0800624
0.0739192
0.0687119
0.0636063
0.0587774
0.0540784
0.0504449
0.046376
0.0434575
0.0398015
0.0364606
0.0361187
0.0320343
0.0344615
0.0330809
0.0333274
0.0348821
0.0358756
0.0366605
21.7976
3.38122
1.23024
0.664499
0.437066
0.320813
0.251836
0.206703
0.17499
0.151625
0.133656
0.119478
0.107998
0.0984605
0.0905683
0.0836457
0.0779653
0.0726311
0.0684248
0.0641257
0.0610118
0.0574786
0.0559625
0.0589676
0.0968614
0.0884995
0.0819839
0.0773708
0.0722927
0.066698
0.0611933
0.0560578
0.0514948
0.0472805
0.0437021
0.0407954
0.0377485
0.0355068
0.0330222
0.0314846
0.0299394
0.0288271
0.028021
0.0268459
0.0266555
0.0263914
0.0263817
0.0294062
0.0304212
0.0363495
0.0351384
0.0358817
0.0384765
0.0376481
21.7976
3.38138
1.23039
0.664593
0.437116
0.320847
0.251856
0.206733
0.175002
0.151668
0.133658
0.119539
0.107987
0.0985387
0.0905499
0.0837326
0.0779519
0.0727117
0.0684318
0.0641755
0.0610513
0.0574708
0.0559029
0.0586638
0.0870701
0.0787355
0.073764
0.071319
0.0680387
0.0639835
0.0599719
0.0558364
0.0521638
0.0487689
0.0452614
0.0429718
0.0396929
0.0377018
0.0348569
0.0331302
0.031235
0.0308022
0.0282143
0.027467
0.0269845
0.0268478
0.026518
0.0266495
0.0286924
0.0288108
0.0300079
0.032333
0.0356481
0.0347111
21.7978
3.38131
1.23024
0.66448
0.437052
0.320794
0.251828
0.206682
0.174983
0.15161
0.13364
0.119485
0.107961
0.0985018
0.0905071
0.0837253
0.0778883
0.0727519
0.0683333
0.0642847
0.0608494
0.0576678
0.0549957
0.0530808
0.0520133
0.0504956
0.0486435
0.0466084
0.0447738
0.0429454
0.041261
0.0396933
0.0381423
0.0366893
0.0353299
0.0339158
0.0327908
0.0315966
0.0303401
0.0292952
0.0282582
0.0279389
0.0267685
0.0270493
0.026827
0.0265284
0.0269334
0.0274648
0.0274539
0.0284502
0.0309456
0.0308787
0.0323802
0.0335063
21.7978
3.38148
1.23049
0.664635
0.43713
0.320827
0.251862
0.206686
0.175026
0.151597
0.133705
0.119454
0.108047
0.0984632
0.0905991
0.0836992
0.0779676
0.0727545
0.0683921
0.064325
0.0608871
0.0577504
0.0550316
0.0532142
0.0518643
0.0505888
0.0485927
0.0468739
0.0449505
0.0433226
0.0417266
0.0401063
0.0387861
0.0372462
0.0359936
0.0346897
0.0333361
0.0324489
0.0310629
0.0303297
0.0288269
0.0282786
0.0279576
0.0269062
0.0269746
0.0275171
0.0265965
0.0270801
0.0268961
0.027566
0.029228
0.0294276
0.0297977
0.0307053
21.798
3.38138
1.23035
0.66454
0.437073
0.320786
0.251828
0.206658
0.174987
0.151582
0.133648
0.119466
0.107963
0.0985094
0.0904938
0.0837722
0.0778664
0.0728344
0.068335
0.0643906
0.0608936
0.0576959
0.0549987
0.0525519
0.0505576
0.0486739
0.046842
0.0450197
0.0433917
0.0416917
0.0402377
0.0387692
0.0373269
0.0360827
0.0347149
0.0335437
0.0322653
0.0313209
0.0301999
0.0286903
0.0280514
0.0275043
0.0271454
0.0275369
0.0276304
0.0262264
0.0260799
0.0263584
0.0274103
0.029325
0.0275261
0.0286645
0.0315495
0.032028
21.798
3.38154
1.23052
0.664649
0.437124
0.320821
0.25184
0.206687
0.174992
0.151615
0.133656
0.119497
0.107981
0.0985374
0.090519
0.0838056
0.0778893
0.0728849
0.0683433
0.0644702
0.060884
0.0578385
0.0550035
0.0527311
0.0506049
0.0488604
0.0469425
0.0453243
0.0435414
0.0421253
0.0405064
0.0392242
0.0378215
0.0365623
0.0352679
0.0341161
0.0328996
0.0320623
0.0309565
0.0301826
0.0292284
0.028382
0.0275951
0.02736
0.026059
0.0259934
0.0256913
0.0255057
0.0261584
0.0263657
0.0255869
0.0261873
0.0291474
0.0297472
21.7982
3.38149
1.23043
0.664579
0.43708
0.320792
0.251814
0.206667
0.174965
0.1516
0.133626
0.119492
0.107944
0.098547
0.0904759
0.0838346
0.0778394
0.0729375
0.0682938
0.0645404
0.0608552
0.0579054
0.054945
0.0526358
0.0503307
0.0484264
0.0465229
0.0447488
0.0431312
0.0414525
0.0400794
0.0386089
0.0372316
0.036067
0.034638
0.0335545
0.0323587
0.0311807
0.0301855
0.0291811
0.0283442
0.0276459
0.0272848
0.0260663
0.0267063
0.0262351
0.0257688
0.0257452
0.0258663
0.0275039
0.0287193
0.0326502
0.0298836
0.0306153
21.7982
3.38164
1.23059
0.664678
0.437131
0.320816
0.251834
0.206674
0.174989
0.151598
0.133664
0.119476
0.108007
0.0985073
0.0905764
0.0837641
0.0779831
0.0728427
0.0684695
0.0644456
0.061043
0.0578441
0.0551334
0.052637
0.0505053
0.0484621
0.0467007
0.0448768
0.043273
0.0417407
0.0402191
0.038977
0.0375631
0.0363926
0.0351628
0.0340769
0.0328158
0.0321057
0.030853
0.0301079
0.0287541
0.0280193
0.0273317
0.0269563
0.02598
0.0256997
0.0253163
0.0251632
0.0261107
0.025889
0.026445
0.0266828
0.0296668
0.0295967
21.7984
3.38157
1.23058
0.664669
0.437116
0.320794
0.251819
0.206651
0.174975
0.151579
0.133646
0.119469
0.107977
0.0985263
0.0905236
0.0838198
0.0779072
0.0729337
0.0683861
0.0645573
0.060978
0.0579306
0.0550821
0.0526408
0.0503434
0.0483752
0.0463935
0.0447216
0.042954
0.041483
0.0399929
0.0386675
0.0372782
0.036137
0.034815
0.0336176
0.0325822
0.0314193
0.0306964
0.0294137
0.0286394
0.0278248
0.0275119
0.0262727
0.0259168
0.0259275
0.0248268
0.0247406
0.0248689
0.0249474
0.0257904
0.0272294
0.028238
0.0285846
21.7984
3.38171
1.23072
0.66476
0.437159
0.320822
0.251827
0.206674
0.174974
0.151609
0.133641
0.119505
0.107974
0.0985662
0.0905261
0.0838633
0.0779168
0.0729858
0.0684024
0.0646224
0.0610038
0.0580103
0.0551484
0.0527236
0.0504358
0.048454
0.0465143
0.0448035
0.043122
0.0416008
0.0401804
0.0388178
0.0375329
0.0363758
0.0352119
0.0340178
0.0329604
0.0319972
0.0307053
0.0299842
0.0287195
0.0280245
0.0273603
0.0269411
0.0265458
0.0256821
0.0253936
0.0249601
0.0254681
0.025236
0.0256538
0.0271094
0.0272469
0.0305222
21.7986
3.38168
1.23069
0.664728
0.437136
0.320806
0.251813
0.206661
0.174965
0.151595
0.133637
0.119491
0.107975
0.0985519
0.0905337
0.0838472
0.0779363
0.0729608
0.0684434
0.0645839
0.061063
0.0579767
0.055175
0.0526628
0.0503743
0.0483372
0.0463545
0.0446482
0.0429314
0.0413812
0.0399938
0.0385006
0.0373994
0.0360463
0.0350185
0.0337846
0.0329037
0.0318708
0.030901
0.0299428
0.0290203
0.0282706
0.0275039
0.0266948
0.0261436
0.0253882
0.0250255
0.0248885
0.025349
0.0261082
0.0264496
0.0263696
0.0265647
0.0294683
21.7986
3.38182
1.23084
0.664827
0.437184
0.320827
0.251827
0.206667
0.174979
0.151593
0.133663
0.119478
0.108018
0.0985299
0.0905927
0.0838273
0.0779991
0.0729646
0.068492
0.064633
0.061085
0.058078
0.055167
0.0528054
0.0503897
0.0484524
0.0464324
0.04477
0.0430327
0.0415811
0.0400691
0.0387541
0.0374939
0.0362909
0.0351309
0.0340593
0.0329922
0.031928
0.0310346
0.0300039
0.0292921
0.028371
0.0276621
0.0267896
0.0262945
0.0254175
0.0252385
0.0249606
0.0249788
0.0257478
0.0267049
0.0261848
0.0273731
0.0336807
21.7988
3.38176
1.23084
0.664822
0.437176
0.320812
0.251822
0.206649
0.174979
0.151573
0.133667
0.119459
0.108027
0.0985074
0.0906104
0.0837978
0.0780264
0.0729301
0.0685224
0.064597
0.0611164
0.0580163
0.0551999
0.0526933
0.0503824
0.0482749
0.0463848
0.0445333
0.0429694
0.0412929
0.0400028
0.0384615
0.0374238
0.0360103
0.0351242
0.0338402
0.033029
0.0318632
0.0310479
0.0299291
0.0291351
0.0282012
0.0273674
0.0267038
0.0260023
0.0253288
0.0252869
0.0257421
0.0252617
0.0253725
0.0257011
0.0255962
0.0270607
0.0336215
21.7988
3.38189
1.23099
0.664915
0.437218
0.320837
0.251827
0.206668
0.174974
0.151599
0.133657
0.119491
0.108019
0.0985417
0.0906112
0.0838333
0.0780403
0.0729699
0.06855
0.0646436
0.0611599
0.0580592
0.0552805
0.0527275
0.0504875
0.0483312
0.0464888
0.0446342
0.0430622
0.0414657
0.0400787
0.038668
0.0374868
0.0361849
0.0352022
0.0339695
0.0331099
0.0319533
0.0311342
0.0301459
0.0293473
0.0285266
0.0277306
0.0270567
0.0264337
0.0261438
0.0256525
0.0254778
0.0255425
0.0258661
0.0257525
0.0264653
0.0308606
0.0423869
21.7989
3.38187
1.23099
0.664911
0.437214
0.320826
0.251828
0.206652
0.174983
0.151579
0.133671
0.119471
0.108031
0.098529
0.0906141
0.0838295
0.078033
0.0729674
0.0685365
0.0646315
0.0611373
0.0580455
0.0552337
0.0526878
0.0504079
0.0482612
0.0463641
0.044538
0.0429211
0.0413581
0.0399383
0.0385978
0.0373363
0.036154
0.0350613
0.0339579
0.033004
0.0319073
0.0310419
0.0300388
0.0292143
0.0283721
0.0277576
0.0272331
0.0267636
0.0266073
0.026352
0.0262896
0.0257274
0.0258406
0.0258853
0.0269956
0.033136
0.0462533
21.799
3.38199
1.23113
0.664999
0.437252
0.320848
0.251829
0.206669
0.174971
0.151606
0.13365
0.119509
0.108005
0.0985742
0.0905977
0.0838688
0.0780458
0.0729883
0.0685902
0.064639
0.0612145
0.0580715
0.0552864
0.0527696
0.050442
0.0483755
0.046403
0.0446653
0.0429781
0.0414948
0.0399933
0.0387513
0.037364
0.0363233
0.0350729
0.0341736
0.0330395
0.0321928
0.0311667
0.0303908
0.0295402
0.0287755
0.0281147
0.0275205
0.027153
0.0266931
0.0263694
0.0258026
0.0264863
0.0270224
0.0276001
0.0304282
0.0449088
0.0588911
21.7991
3.38192
1.23112
0.664996
0.437246
0.320842
0.251825
0.206664
0.174968
0.151601
0.133645
0.119507
0.107996
0.0985747
0.0905833
0.0838692
0.0780273
0.0729799
0.0685711
0.0646092
0.061203
0.0579972
0.0552947
0.0526471
0.0504466
0.0482122
0.0463866
0.0444888
0.0429353
0.0413245
0.039943
0.038578
0.0373122
0.0361733
0.0350406
0.0340773
0.0331135
0.0322581
0.0314355
0.0306604
0.0300105
0.0293882
0.0290071
0.0285928
0.0281746
0.027793
0.0270881
0.0271592
0.0272536
0.027385
0.0301641
0.0350853
0.0570466
0.070703
21.7991
3.38206
1.23127
0.665088
0.437289
0.320859
0.251836
0.206666
0.174978
0.151598
0.133663
0.119499
0.108022
0.0985677
0.0906131
0.0838776
0.0780485
0.0730209
0.0685757
0.0646871
0.0611971
0.0580969
0.0552964
0.0527629
0.0504459
0.0483625
0.0463837
0.0446589
0.042933
0.0414801
0.0399763
0.0387379
0.0374068
0.0363271
0.0351641
0.0341906
0.0331526
0.0322891
0.0314252
0.0306674
0.0299808
0.0292305
0.0285031
0.0280128
0.0276332
0.0274211
0.0265323
0.0264712
0.0273507
0.0282604
0.0314052
0.0447805
0.0774753
0.0879626
21.7992
3.38202
1.23127
0.665085
0.437286
0.320855
0.251834
0.206663
0.174978
0.151593
0.133663
0.119491
0.108026
0.0985542
0.0906195
0.0838538
0.0780559
0.0729833
0.0685771
0.0646357
0.061183
0.0580435
0.0552607
0.0526967
0.0503977
0.0482699
0.0463257
0.0445364
0.0428768
0.0413478
0.0399185
0.0385994
0.0373611
0.0362255
0.0351713
0.0341939
0.0333247
0.0324671
0.0317626
0.0310393
0.0304107
0.0297907
0.029381
0.0288047
0.0283918
0.0277636
0.0277527
0.0275704
0.0293195
0.0305814
0.0417901
0.0618711
0.105762
0.121315
21.7993
3.38214
1.23141
0.665172
0.437324
0.320871
0.251838
0.206668
0.174977
0.1516
0.133663
0.119502
0.108026
0.0985717
0.0906223
0.0838819
0.078062
0.073026
0.06859
0.0646931
0.0612071
0.0581103
0.0552918
0.0527711
0.0504464
0.0483438
0.0463916
0.0446174
0.0429387
0.0414454
0.03995
0.038735
0.0373527
0.0363973
0.035224
0.0341781
0.033051
0.0322036
0.0313394
0.0305382
0.0298592
0.0290578
0.0279025
0.0274656
0.0274648
0.0271342
0.027028
0.0271409
0.0286505
0.0308441
0.0429197
0.081544
0.124434
0.133697
21.7993
3.38206
1.23136
0.665148
0.43731
0.320861
0.251834
0.206661
0.174976
0.151592
0.133662
0.119492
0.108026
0.098558
0.0906194
0.083863
0.0780526
0.0729991
0.0685683
0.064656
0.0611701
0.0580593
0.0552418
0.0527116
0.050377
0.0482695
0.0463081
0.0445192
0.0428555
0.0413137
0.0398922
0.0385517
0.0373347
0.036178
0.0351381
0.0341679
0.0332936
0.0324581
0.031708
0.0310839
0.0302811
0.0297435
0.0290639
0.0287591
0.0281384
0.0283715
0.0302441
0.0300482
0.0387349
0.0441446
0.0750475
0.122618
0.176041
0.185959
21.7993
3.38218
1.2315
0.66523
0.437348
0.320877
0.251841
0.206665
0.174978
0.151597
0.133665
0.1195
0.108031
0.098571
0.0906295
0.0838828
0.0780708
0.0730273
0.0685991
0.0646928
0.0612157
0.0581009
0.0553045
0.0527563
0.0504507
0.048329
0.0463882
0.0445973
0.0429364
0.0414129
0.0399689
0.038672
0.0374094
0.0363147
0.0352114
0.0342893
0.0333429
0.0325689
0.0317247
0.0311761
0.030415
0.0298015
0.0290398
0.0286746
0.0281897
0.0283526
0.0293947
0.0300446
0.0352899
0.041169
0.0745928
0.119158
0.181961
0.226141
21.7993
3.38217
1.23147
0.66522
0.437356
0.320892
0.251858
0.206683
0.174997
0.151612
0.133683
0.119511
0.108048
0.098576
0.0906423
0.0838787
0.0780759
0.073011
0.0685906
0.0646631
0.0611892
0.058065
0.0552602
0.0527142
0.050391
0.0482773
0.046309
0.0445272
0.042848
0.0413179
0.0398817
0.0385484
0.0373178
0.0361608
0.0351122
0.0341116
0.0332261
0.0323893
0.0315454
0.0311747
0.0293644
0.0291204
0.0285895
0.0288401
0.0313854
0.0323944
0.0451044
0.0502648
0.070342
0.0891072
0.138234
0.165007
0.196545
0.274261
21.7993
3.38229
1.2316
0.665301
0.437394
0.32091
0.251867
0.206689
0.175001
0.151616
0.133687
0.119516
0.108053
0.0985831
0.0906518
0.0838902
0.0780939
0.0730298
0.0686213
0.0646913
0.0612341
0.0581011
0.0553142
0.0527575
0.0504563
0.0483265
0.0463855
0.04459
0.0429252
0.0413992
0.0399477
0.0386532
0.0373687
0.0362944
0.0351433
0.0342748
0.0332574
0.0325147
0.0316781
0.0310471
0.0303167
0.0298036
0.0291174
0.0293498
0.0315164
0.0335764
0.0394268
0.0446544
0.0559405
0.0719552
0.105254
0.144514
0.191447
0.278223
21.8005
3.38241
1.23156
0.665091
0.437085
0.320552
0.251491
0.2063
0.17462
0.15124
0.133324
0.119166
0.107725
0.0982684
0.0903631
0.0836112
0.077822
0.0727572