/*--------------------------------*- C++ -*----------------------------------*\
| =========                 |                                                 |
| \\      /  F ield         | OpenFOAM: The Open Source CFD Toolbox           |
|  \\    /   O peration     | Version:  4.1                                   |
|   \\  /    A nd           | Web:      www.OpenFOAM.org                      |
|    \\/     M anipulation  |                                                 |
\*---------------------------------------------------------------------------*/
FoamFile
{
    version     2.0;
    format      ascii;
    class       volScalarField;
    location    "39";
    object      p;
}
// * * * * * * * * * * * * * * * * * * * * * * * * * * * * * * * * * * * * * //

dimensions      [0 2 -2 0 0 0 0];

internalField   nonuniform List<scalar> 
4432
(
100879
100879
100878
100878
100881
100887
100893
100899
100905
100910
100915
100920
100927
100935
100945
100958
100968
100976
100981
100989
101006
101027
101054
101091
101126
101158
101188
101216
101239
101257
101268
101273
101278
101270
101250
101200
101131
101174
101223
101233
101213
101171
101158
101140
101101
101117
100916
100725
100789
100975
100929
100605
99372.7
98701.6
100879
100879
100878
100878
100881
100887
100893
100899
100905
100910
100915
100920
100927
100936
100946
100958
100967
100975
100980
100988
101005
101031
101058
101090
101125
101162
101191
101214
101238
101260
101273
101274
101274
101255
101227
101207
101199
101190
101185
101197
101200
101193
101180
101125
101031
101091
100996
100788
100819
100934
100912
100769
99407.5
98656.7
100877
100877
100875
100875
100879
100884
100891
100897
100903
100908
100913
100919
100926
100934
100946
100960
100979
100999
101018
101029
101044
101068
101095
101119
101142
101167
101192
101218
101244
101265
101278
101280
101269
101241
101200
101157
101156
101171
101184
101192
101166
101135
101128
101125
101093
101047
100953
100809
100823
100913
101120
101043
98323.5
99842.7
100877
100877
100875
100876
100879
100884
100891
100897
100903
100908
100913
100919
100926
100934
100945
100960
100978
100999
101018
101030
101044
101067
101093
101116
101140
101164
101190
101217
101243
101265
101275
101273
101263
101245
101215
101179
101163
101159
101166
101173
101171
101154
101147
101152
101113
101071
100992
100850
100870
100955
101051
101223
98397
99858.9
100876
100876
100874
100874
100878
100883
100890
100896
100902
100907
100912
100917
100924
100932
100942
100954
100970
100985
101010
101026
101046
101069
101092
101113
101136
101163
101191
101220
101251
101281
101300
101301
101288
101253
101197
101148
101142
101163
101176
101175
101155
101133
101144
101141
101108
101033
100983
100899
100873
100768
100533
99984.1
99415.3
100808
100875
100875
100874
100875
100878
100883
100890
100896
100902
100907
100912
100917
100923
100932
100942
100955
100970
100985
101010
101026
101045
101069
101091
101111
101134
101161
101189
101219
101251
101281
101298
101296
101278
101244
101204
101170
101165
101172
101167
101156
101146
101138
101147
101160
101127
101061
100983
100910
100858
100743
100540
100114
99372.4
100806
100873
100873
100872
100872
100875
100880
100887
100893
100899
100904
100909
100914
100920
100927
100936
100947
100960
100979
101005
101022
101040
101062
101082
101103
101128
101159
101192
101226
101264
101299
101317
101320
101316
101268
101179
101090
101067
101105
101132
101164
101179
101140
101147
101151
101128
101081
101071
100988
100940
100889
100692
100327
99906.5
100061
100873
100873
100872
100872
100875
100881
100887
100893
100899
100904
100908
100913
100919
100927
100936
100948
100961
100979
101005
101022
101039
101061
101082
101102
101128
101159
101191
101227
101267
101301
101316
101319
101310
101261
101184
101129
101127
101138
101141
101125
101135
101150
101159
101151
101134
101091
101038
100992
100921
100904
100721
100515
99787.2
100014
100870
100870
100869
100869
100872
100877
100883
100890
100895
100900
100904
100909
100915
100922
100931
100941
100955
100972
100994
101012
101028
101047
101069
101093
101120
101153
101189
101227
101271
101304
101317
101324
101321
101294
101298
101060
101052
101082
101106
101160
101213
101174
101154
101162
101190
101200
101109
100983
100909
100895
100916
100491
99836.8
100843
100870
100870
100869
100869
100872
100877
100884
100890
100895
100900
100904
100909
100914
100922
100930
100941
100955
100972
100995
101012
101027
101047
101069
101092
101121
101154
101189
101228
101274
101309
101319
101320
101314
101275
101204
101129
101097
101106
101116
101119
101176
101200
101181
101165
101160
101135
101082
101020
100957
100940
100881
100765
99818.4
100661
100866
100866
100865
100865
100868
100873
100879
100885
100890
100895
100899
100903
100908
100915
100924
100935
100948
100964
100981
101000
101016
101031
101050
101077
101106
101138
101172
101207
101244
101275
101293
101316
101355
101584
101894
101142
101053
101070
101092
101095
101131
101149
101176
101180
101195
101236
101142
101015
100912
100872
100866
100426
99841.1
100684
100866
100866
100865
100865
100868
100873
100879
100885
100890
100894
100898
100903
100908
100915
100924
100935
100949
100964
100981
100999
101016
101031
101050
101077
101108
101139
101172
101205
101242
101272
101288
101296
101300
101345
101352
101161
101072
101080
101098
101099
101131
101181
101182
101187
101201
101184
101117
101032
100952
100897
100833
100407
99888.4
100918
100862
100862
100861
100861
100863
100868
100874
100879
100884
100888
100892
100896
100901
100908
100917
100928
100940
100955
100970
100985
101003
101018
101029
101054
101085
101115
101146
101168
101185
101207
101244
101303
101441
101983
101584
101570
101056
101051
101085
101087
101088
101148
101185
101182
101184
101211
101173
101079
100963
100872
100858
100581
99959.9
100548
100862
100862
100860
100861
100864
100868
100874
100879
100884
100888
100892
100896
100901
100908
100917
100927
100940
100954
100969
100986
101004
101021
101029
101053
101089
101118
101143
101161
101182
101203
101228
101262
101306
101412
101414
101148
101021
101043
101079
101087
101103
101149
101174
101181
101206
101218
101154
101056
100955
100847
100736
100392
100041
100571
100857
100857
100855
100855
100858
100862
100868
100873
100877
100881
100884
100888
100893
100900
100908
100919
100930
100943
100956
100970
100986
101004
101015
101024
101053
101085
101110
101122
101126
101129
101146
101188
101246
101375
101285
101047
101027
101062
101101
101114
101113
101129
101149
101144
101141
101183
101201
101146
101005
100835
100771
100567
100088
100721
100857
100857
100855
100856
100858
100863
100868
100873
100877
100881
100884
100888
100893
100900
100908
100918
100930
100942
100955
100970
100986
101004
101014
101027
101058
101089
101110
101115
101117
101126
101139
101168
101219
101244
101233
101097
101036
101071
101110
101116
101109
101116
101119
101124
101173
101221
101195
101099
100956
100828
100753
100490
100060
100743
100851
100851
100850
100850
100852
100856
100861
100866
100870
100873
100876
100880
100884
100890
100898
100908
100918
100929
100941
100954
100968
100982
100996
101003
101017
101048
101068
101074
101074
101076
101087
101108
101149
101173
101153
101075
101058
101108
101156
101174
101162
101126
101103
101096
101104
101155
101203
101179
101036
100830
100685
100479
100181
100893
100851
100851
100850
100850
100852
100856
100861
100866
100870
100873
100876
100879
100884
100890
100898
100907
100918
100929
100941
100954
100968
100982
100997
101008
101020
101046
101065
101067
101069
101076
101089
101111
101143
101158
101156
101116
101110
101138
101172
101186
101166
101120
101075
101066
101121
101190
101209
101135
100993
100837
100690
100398
100059
100825
100845
100845
100843
100843
100845
100849
100853
100858
100861
100864
100867
100870
100874
100880
100887
100896
100905
100915
100926
100938
100949
100960
100971
100981
100985
101000
101016
101028
101039
101046
101057
101081
101118
101145
101166
101153
101157
101184
101211
101227
101222
101169
101099
101064
101075
101133
101197
101204
101088
100881
100721
100594
100568
100982
100845
100845
100843
100843
100845
100849
100853
100858
100861
100864
100866
100869
100874
100880
100887
100895
100905
100915
100926
100937
100950
100961
100972
100981
100986
100996
101015
101030
101039
101046
101059
101081
101114
101148
101175
101175
101181
101199
101221
101241
101232
101177
101099
101051
101086
101167
101210
101188
101073
100861
100639
100416
100261
100772
100838
100838
100837
100836
100838
100841
100845
100849
100852
100854
100856
100859
100863
100868
100874
100882
100891
100901
100911
100922
100933
100941
100951
100956
100947
100947
100969
101002
101024
101036
101052
101082
101117
101156
101191
101201
101211
101231
101247
101249
101237
101206
101140
101077
101042
101097
101189
101221
101117
100930
100809
100731
100653
100264
100838
100838
100837
100836
100838
100841
100845
100849
100852
100854
100856
100859
100862
100868
100874
100882
100891
100900
100911
100922
100934
100944
100951
100952
100946
100947
100973
101006
101025
101036
101054
101084
101122
101161
101195
101207
101217
101233
101246
101252
101251
101225
101156
101073
101063
101135
101210
101218
101121
100934
100748
100604
100318
100052
100831
100831
100829
100829
100830
100833
100836
100839
100842
100843
100845
100847
100850
100855
100861
100868
100876
100886
100897
100909
100921
100932
100938
100928
100896
100885
100926
100980
101007
101020
101040
101076
101119
101163
101199
101221
101238
101257
101272
101272
101256
101229
101193
101141
101070
101067
101135
101186
101126
100973
100853
100803
100715
100386
100831
100831
100829
100829
100830
100833
100836
100839
100842
100843
100845
100847
100850
100855
100861
100868
100876
100886
100897
100909
100922
100933
100937
100925
100892
100887
100933
100984
101008
101021
101042
101079
101123
101166
101200
101221
101239
101258
101272
101272
101259
101237
101196
101132
101088
101113
101174
101197
101137
101004
100881
100808
100574
100615
100824
100823
100822
100821
100822
100824
100827
100829
100831
100832
100833
100835
100837
100841
100846
100853
100861
100871
100884
100899
100916
100931
100935
100912
100831
100816
100885
100955
100980
100991
101015
101057
101109
101160
101206
101242
101272
101295
101312
101313
101296
101268
101228
101177
101111
101070
101085
101122
101108
101015
100892
100768
100668
100283
100823
100823
100822
100821
100822
100824
100827
100829
100831
100832
100833
100834
100837
100841
100846
100852
100861
100871
100884
100899
100916
100931
100933
100901
100819
100819
100900
100964
100983
100992
101017
101058
101109
101160
101205
101241
101273
101298
101316
101315
101297
101267
101225
101171
101119
101102
101122
101140
101112
101022
100899
100758
100615
100189
100816
100815
100814
100812
100813
100815
100817
100819
100820
100820
100820
100821
100823
100826
100830
100836
100844
100855
100870
100890
100918
100951
100972
100925
100760
100681
100828
100918
100933
100940
100971
101023
101084
101147
101209
101265
101314
101350
101376
101375
101351
101312
101264
101205
101140
101085
101061
101058
101043
100981
100880
100743
100621
100261
100816
100815
100813
100812
100813
100815
100817
100819
100820
100820
100820
100821
100823
100826
100830
100836
100844
100855
100870
100890
100917
100950
100967
100914
100708
100730
100866
100925
100930
100935
100968
101021
101082
101145
101207
101264
101316
101350
101392
101389
101357
101312
101260
101199
101138
101095
101081
101077
101054
100987
100882
100735
100601
100231
100808
100807
100805
100804
100804
100805
100807
100808
100808
100808
100807
100807
100808
100810
100813
100818
100825
100835
100851
100874
100913
100986
101068
101085
100729
100248
100693
100865
100875
100871
100906
100969
101043
101120
101201
101286
101364
101407
101454
101452
101405
101346
101290
101229
101163
101100
101054
101024
100996
100945
100863
100742
100611
100294
100807
100807
100805
100804
100804
100805
100807
100808
100808
100808
100807
100807
100808
100810
100813
100818
100825
100836
100851
100874
100912
100982
101061
101042
100152
100517
100816
100893
100875
100869
100905
100968
101041
101118
101205
101299
101378
101386
101449
101454
101399
101339
101288
101232
101169
101112
101071
101042
101009
100953
100867
100745
100611
100288
100799
100799
100797
100795
100795
100795
100796
100796
100796
100795
100794
100793
100792
100793
100795
100798
100804
100812
100824
100843
100872
100915
101037
101305
100325
100686
100848
100837
100802
100828
100897
100980
101071
101174
101290
101413
101450
101493
101517
101451
101377
101327
101279
101220
101154
101093
101042
100998
100945
100877
100770
100648
100314
100799
100799
100797
100795
100795
100795
100796
100796
100796
100795
100794
100793
100792
100793
100795
100798
100804
100812
100824
100843
100871
100915
101037
101153
100273
100741
100841
100816
100791
100824
100896
100980
101070
101161
101300
101423
101388
101335
101484
101429
101361
101322
101283
101229
101166
101105
101053
101005
100949
100876
100767
100637
100316
100791
100791
100788
100786
100785
100785
100785
100785
100784
100782
100780
100778
100776
100776
100776
100777
100780
100785
100791
100800
100808
100807
100780
100751
100480
100534
100864
100922
100827
100758
100770
100829
100905
100993
101096
101214
101351
101363
101403
101553
101482
101408
101371
101342
101298
101235
101162
101091
101026
100964
100907
100815
100735
100350
100791
100790
100788
100786
100785
100785
100785
100785
100784
100782
100780
100778
100776
100776
100776
100777
100780
100785
100792
100800
100809
100807
100775
100706
100475
100582
100882
100918
100815
100750
100768
100832
100907
100983
101039
101208
101201
101404
101311
101362
101370
101354
101342
101326
101294
101238
101169
101097
101031
100967
100904
100807
100705
100349
100783
100782
100780
100777
100776
100775
100775
100774
100772
100769
100766
100763
100760
100758
100757
100756
100756
100757
100758
100759
100759
100754
100744
100697
100645
100661
100792
100811
100752
100721
100738
100782
100832
100901
101049
101205
101183
101353
101587
101401
101370
101377
101369
101363
101347
101303
101233
101149
101063
100986
100930
100847
100834
100410
100783
100782
100780
100777
100776
100775
100775
100774
100772
100769
100766
100763
100760
100758
100757
100756
100756
100757
100759
100760
100760
100755
100742
100694
100626
100649
100770
100786
100731
100708
100736
100789
100838
100882
100925
101124
100909
101140
101527
100673
101157
101340
101355
101346
101334
101301
101239
101158
101075
100998
100937
100848
100797
100378
100775
100774
100771
100769
100767
100766
100764
100763
100760
100757
100753
100749
100745
100741
100738
100735
100732
100730
100727
100725
100722
100716
100702
100669
100620
100599
100626
100647
100651
100668
100703
100735
100752
100773
100852
101045
102044
100834
99847.3
100520
101144
101395
101403
101398
101390
101365
101311
101227
101125
101027
100953
100855
100845
100329
100774
100774
100771
100769
100767
100766
100765
100763
100760
100757
100753
100749
100745
100741
100738
100735
100732
100730
100728
100726
100723
100716
100700
100664
100613
100598
100624
100641
100641
100658
100699
100743
100777
100721
100826
101098
101548
98605.3
99129
99038.1
100148
101206
101388
101382
101368
101351
101308
101234
101141
101049
100971
100862
100832
100372
100767
100766
100763
100760
100758
100756
100754
100752
100749
100744
100739
100734
100729
100724
100719
100714
100709
100703
100698
100691
100682
100668
100645
100608
100565
100537
100537
100553
100571
100600
100635
100661
100585
100682
100681
99330.8
97693.9
96587
97410.4
98871.3
100184
101268
101477
101474
101448
101428
101395
101322
101217
101120
101044
100949
100852
100192
100767
100766
100763
100760
100758
100756
100754
100752
100749
100744
100740
100734
100729
100724
100719
100714
100709
100704
100698
100691
100682
100668
100643
100605
100564
100538
100540
100555
100570
100595
100635
100678
100724
100781
100660
99998.9
100040
96916.8
97438.5
98358.3
99501
100818
101420
101472
101452
101415
101379
101318
101231
101143
101053
100915
100839
100283
100759
100758
100755
100752
100749
100747
100745
100742
100738
100733
100727
100721
100715
100708
100701
100694
100686
100678
100668
100656
100641
100619
100590
100553
100514
100483
100471
100472
100480
100502
100527
100577
100344
100557
100521
98724.6
95373.8
95603.5
97560.4
99128.4
100394
101625
101675
101607
101543
101515
101486
101412
101301
101221
101193
101168
101113
100956
100759
100758
100755
100752
100749
100747
100745
100742
100738
100733
100727
100721
100715
100708
100702
100694
100687
100678
100668
100656
100641
100619
100589
100552
100513
100484
100473
100474
100479
100495
100522
100605
100639
100706
100573
96105
95956.6
95881.9
97712.2
99125.2
100312
101429
101698
101637
101566
101511
101461
101392
101308
101242
101189
101161
100993
100320
100752
100751
100748
100744
100741
100739
100736
100732
100727
100722
100715
100708
100701
100693
100684
100675
100665
100653
100639
100621
100600
100573
100540
100500
100458
100419
100390
100370
100358
100364
100395
100605
100405
99366
98029
94963.2
94443.8
96279.1
98673.1
100416
101409
102056
101881
101733
101643
101613
101573
101474
101333
101211
101155
101130
101285
101375
100752
100751
100748
100744
100741
100739
100736
100732
100727
100722
100715
100708
100701
100693
100685
100675
100665
100653
100639
100622
100600
100573
100539
100499
100457
100419
100391
100370
100353
100341
100320
100376
100674
99709.3
92958.5
91721.6
94124.3
96242
98755.1
100525
101476
101895
101828
101733
101655
101613
101551
101456
101338
101244
101215
101259
101226
101148
100745
100745
100741
100737
100734
100731
100727
100723
100718
100712
100704
100697
100688
100679
100669
100657
100644
100629
100610
100589
100562
100529
100490
100444
100394
100343
100292
100245
100199
100174
100234
100410
100564
99063.5
93252
92736.9
94958.5
97581.4
100002
101428
101886
101954
101977
101842
101769
101742
101690
101584
101412
101170
100951
100748
100761
100679
100745
100744
100741
100737
100734
100731
100728
100723
100718
100712
100705
100697
100688
100679
100669
100657
100644
100629
100611
100589
100562
100529
100490
100444
100394
100343
100293
100245
100192
100144
100061
100196
100269
98038.4
92731.6
93041.8
95180.3
97754.7
100159
101563
101944
101918
101883
101815
101761
101739
101681
101574
101406
101180
101003
100936
101061
101215
100739
100739
100735
100731
100727
100724
100720
100715
100709
100703
100695
100686
100676
100666
100654
100640
100625
100606
100584
100558
100526
100488
100442
100388
100327
100260
100186
100098
100002
99827.6
99980.2
100661
100218
85240.2
87809.1
92918.3
96347.5
99092.2
100915
101635
101754
101810
101864
101935
101929
101926
101884
101796
101627
101341
101061
100631
100302
100743
100739
100738
100735
100731
100727
100724
100720
100715
100710
100703
100695
100686
100676
100666
100654
100641
100625
100606
100584
100558
100526
100487
100441
100388
100327
100260
100185
100100
99998.4
99861.9
99762.4
99714.3
96452.9
92421.8
92517.8
94301.4
96866.7
99373.3
101064
101699
101774
101814
101849
101881
101911
101915
101876
101787
101608
101283
100957
100645
100421
100259
100734
100733
100730
100725
100721
100718
100713
100708
100702
100695
100686
100677
100666
100654
100641
100625
100607
100586
100560
100530
100493
100449
100396
100334
100261
100176
100076
99949.2
99784.7
99502.3
99096.8
100315
97907.8
89609.9
93017.1
96639.5
99511.9
101242
101707
101523
101452
101598
101791
102000
102104
102127
102110
102037
101908
101704
101315
100433
99613.7
100323
100734
100733
100730
100726
100722
100718
100713
100708
100702
100695
100686
100677
100666
100654
100641
100626
100607
100586
100560
100530
100493
100448
100396
100333
100260
100175
100075
99957.1
99793
99564.9
99293.3
98993.8
94898.3
91159.2
94292.2
97269.8
99881.2
101475
101798
101508
101429
101613
101790
101940
102071
102116
102101
102035
101873
101606
101183
100425
99763
100475
100730
100729
100725
100721
100716
100712
100708
100702
100696
100688
100679
100668
100657
100644
100629
100612
100592
100568
100539
100505
100464
100414
100355
100284
100199
100097
99972.4
99815.6
99604.4
99306.7
98823.7
98651.7
101258
102729
100834
101693
103104
103275
102307
101269
101082
101400
101799
102114
102262
102324
102355
102278
102259
102083
101170
99501.5
98652.5
100134
100730
100729
100725
100721
100717
100712
100708
100702
100696
100688
100679
100669
100657
100644
100630
100612
100592
100568
100539
100505
100463
100414
100354
100283
100198
100095
99966.1
99817.4
99624.3
99378.1
99071.2
98481.6
97933
97944.2
99631.1
101756
103389
103454
102341
101224
101049
101413
101795
102073
102233
102314
102333
102263
102192
101990
101093
99444.5
98832.5
100225
100726
100725
100722
100717
100712
100708
100703
100698
100691
100682
100673
100662
100650
100636
100620
100602
100580
100553
100522
100484
100439
100385
100319
100241
100146
100029
99886
99705.9
99466.7
99156.7
98695.6
98110.3
98460.3
100608
101021
102307
103750
103705
102386
100956
100778
101307
101903
102263
102411
102530
102673
102678
102772
102432
101380
99844.7
98058.5
99748.9
100726
100725
100721
100717
100713
100708
100703
100698
100691
100683
100673
100662
100650
100636
100620
100602
100580
100553
100522
100484
100439
100384
100319
100240
100144
100023
99883.6
99704
99464.3
99172.6
98882.5
97820.3
97479.3
99058.2
100781
102727
104009
103745
102410
100998
100749
101297
101897
102264
102411
102502
102608
102597
102714
102502
101579
99924.4
97977.2
99835.7
100723
100722
100719
100714
100709
100705
100700
100694
100687
100678
100668
100657
100644
100630
100613
100593
100570
100542
100508
100468
100420
100361
100292
100207
100104
99978.5
99824.2
99627.5
99375.1
99049
98649
98050.4
97585.1
98332.3
98633.7
100468
102161
102790
102288
101299
101048
101549
102105
102468
102603
102754
102893
102902
102954
102566
102342
101347
97837.8
99567.5
100723
100722
100719
100714
100709
100705
100700
100694
100687
100678
100668
100657
100644
100630
100613
100593
100570
100542
100508
100468
100419
100361
100291
100206
100103
99976.8
99827.9
99628.9
99367
99043.7
98620.1
97987.4
97641.8
98432.5
99767.8
101130
101684
102204
102044
101406
101114
101510
102075
102470
102615
102704
102818
102837
102969
102716
102624
101781
98017.1
99523.2
100722
100721
100717
100712
100708
100703
100698
100692
100684
100675
100665
100654
100641
100626
100608
100588
100563
100534
100499
100457
100406
100345
100272
100183
100075
99943.3
99780.5
99576.6
99319.1
98994.2
98607
98105.5
97594.7
97031.4
96343.6
96884.7
96566.6
97017.3
97869
99630.1
100856
101834
102328
102630
102811
102952
103016
102948
102980
103010
103965
103823
98638.9
99833.6
100722
100721
100717
100712
100708
100703
100698
100692
100684
100676
100665
100654
100641
100626
100608
100588
100563
100534
100499
100456
100406
100345
100272
100183
100075
99942.7
99781.2
99580.7
99319.6
98984.2
98620.4
98116
97575
97430.6
97228.9
96658.9
95907.4
96433.6
97510.5
99412.4
100925
101827
102310
102610
102779
102915
102958
102946
103002
103079
104203
104116
98845.1
99929
100720
100719
100716
100711
100706
100702
100697
100690
100683
100674
100664
100652
100639
100623
100606
100585
100560
100530
100494
100451
100399
100336
100261
100170
100059
99923.9
99756.9
99549.5
99291
98970.9
98583.4
98098.7
97494
96868.3
96251.7
95134.8
93365.7
92930.5
94151.1
96831.2
99444.9
101139
101997
102407
102709
102902
102973
102936
102871
103094
103614
102718
99045.4
97766.4
100720
100719
100715
100711
100707
100702
100697
100690
100683
100674
100664
100652
100639
100624
100606
100585
100560
100529
100493
100450
100398
100336
100261
100170
100059
99923.1
99756.4
99550.2
99291.5
98972.4
98599.4
98152.3
97634.3
96934.5
95798.4
94375.7
93327.2
93061
94181.9
96648.2
99327.6
101151
101979
102375
102655
102863
102943
102951
102987
103173
103687
102789
99051.3
97680.8
100770
101047
100323
101505
101402
100378
100260
100523
100362
100194
100316
101028
100521
101423
101400
100577
100384
100469
100199
100211
101240
100756
100748
100717
100485
100523
100295
100738
100263
100472
100172
101299
100704
100395
100684
100332
100251
100229
100400
100212
100331
100428
100846
100919
100827
100976
100864
100954
100821
100700
100730
100673
100677
100585
100648
100599
100811
100898
100795
100944
100798
100931
100772
100667
100700
100682
100555
100550
100497
100522
101145
101065
101133
101114
101287
101115
101289
100463
100698
100657
100647
100410
100442
100333
100543
100217
100336
100189
100359
101121
101045
101106
101113
101278
101094
101259
100061
100410
100363
100392
100286
100666
100527
100691
100236
100457
100276
100510
101103
101036
101134
100881
100828
100879
100828
100311
101312
100902
100903
100384
100506
100632
100417
100259
100425
100317
100466
100287
100484
101134
101029
101127
100876
100819
100879
100831
100520
101217
100992
100466
100973
100228
100256
100493
100310
100538
100340
100547
100412
100608
100674
100736
100631
100718
100644
100718
100642
100209
100457
100268
100557
100528
100559
100560
100603
100700
100605
100715
100644
100717
100650
100391
100504
100475
100570
100571
100576
100568
100932
100900
100727
100881
101005
100951
100628
100774
100830
100886
101362
101443
101508
101444
101378
101116
101170
101397
101355
101495
101431
101280
101185
101069
100458
100600
100553
100632
100424
100348
100256
100320
100261
100324
100239
100261
100370
100352
100332
100194
100233
100197
100318
100659
100786
100532
100834
101035
100773
100551
100815
100814
100746
101350
101247
101420
101011
101445
101515
100526
101193
101484
101444
101369
101396
100869
101276
100167
100384
100434
100402
100409
100104
100242
100223
100244
100231
100369
100292
100195
100362
100281
100210
100243
100262
100337
100016
100100
100329
101313
100950
100918
100426
100068
100194
100254
100743
100704
100736
100322
100228
100610
100579
100227
100678
100571
100473
100508
100438
100700
100401
100230
100476
100365
100261
100328
100302
100490
100597
100694
100562
100619
100396
100596
100441
100293
100502
100219
100239
100352
101283
100946
100937
100225
100082
99922.9
100136
100497
100306
100211
100432
100055
100383
100455
100469
100028
100196
100245
100209
100282
100189
99970.6
100580
100173
100255
100180
100206
100276
100296
100412
100289
100281
100399
100137
100389
100436
100356
100233
101152
101005
101075
101240
100990
101233
101163
101179
100982
101018
101145
100945
101158
101155
101148
101058
100950
101185
100966
101219
101128
100451
100559
100401
100254
100560
100258
100423
100472
100451
100598
100280
100577
100245
100485
101080
101039
100937
101235
100952
101202
101030
100360
100572
100507
100450
100466
100521
100418
100418
100443
100470
100318
100420
100363
100452
100664
100771
100768
100748
100761
100769
100684
100621
100775
100740
100684
100762
100619
100738
100397
100355
100366
100208
100276
100314
100486
100263
100151
100168
100243
100179
100206
100253
100676
100792
100654
100679
100670
100742
100623
100556
100732
100682
100610
100724
100611
100552
100184
100143
100271
100320
100187
100166
100340
100146
100243
100369
100519
100203
100354
100189
100605
100590
100443
100439
100587
100584
100455
100607
100714
100678
100666
100567
100372
100570
100485
100611
100417
100582
100445
100604
100446
100620
100105
100242
100136
99849.9
100339
100067
99844.9
99575.5
99496.9
99350.7
99586.4
100061
100220
100484
99771.4
100030
100439
99740.1
99872.3
99985.6
99941.1
99938.3
100795
100467
100641
100352
100484
100782
100668
101018
101434
101425
101044
101022
101416
101416
101004
100797
100354
100497
100654
100485
100677
100796
100564
100640
101064
100390
100633
100921
100620
100826
100991
100734
101214
100456
100944
100873
101516
100787
100615
101053
100584
100721
100757
100941
100660
100946
100163
100218
100544
100867
100456
100957
100903
100454
100518
100573
100660
100669
100560
100528
100339
100562
100384
100556
100962
100906
100557
100908
100530
100586
100314
100845
100436
100957
100376
100829
100408
100282
100492
99969.4
101151
100145
100234
100280
100097
100501
100962
100904
99108.8
100864
100537
101099
101607
101414
101598
101357
101410
101597
101597
101656
101586
101591
101633
101650
101583
101582
101637
101609
101366
101416
101597
101413
101600
101582
101125
101136
101574
101420
101444
101616
101410
101604
101572
101514
101472
101418
101437
101536
101462
101373
101605
101388
101562
101437
101589
101620
101656
101544
101261
101288
100528
100581
100436
100454
100584
100563
100401
100161
99820.6
99710.1
99917.2
100371
100302
100471
100187
100472
100395
100561
100231
100333
100510
100337
100295
100242
100263
100333
100221
100286
100335
100193
100264
100346
100528
100520
100373
100314
100440
100302
100469
100274
100256
100314
100210
100325
100193
100294
100386
100365
100219
100317
100341
100208
100321
100223
100225
100212
100278
100215
100302
100214
100350
100324
100241
100321
100242
100237
100234
100375
100251
100336
100248
100625
100571
99584.2
100739
100170
99592.9
100090
100016
99834.6
100533
100308
100964
101018
101005
100907
100762
100342
100244
100109
100138
100188
100095
100680
100118
100740
100111
100702
100058
99823.1
99710.1
99651
99928.5
99912.5
99885.2
100039
99689.6
100120
100596
100719
100093
100676
99912.2
100278
101849
101480
101530
101661
101369
101244
101645
103986
101294
100874
101034
101448
101318
101405
102601
101254
101268
101123
101973
102200
100911
101892
101600
101161
102226
101347
101978
101343
101435
101441
101695
101712
101460
101622
101634
101647
101773
101712
101667
102232
101511
101239
101944
101118
101817
101381
101340
101488
100247
100356
99849.6
100293
100128
100552
99930.2
99776.3
99695.4
99652.1
99909.4
99757.8
99810.4
99860.8
99619
100287
100395
100513
100031
100586
100036
100261
100141
100175
100319
100241
100311
100243
100359
100290
100279
100282
100251
100226
100265
100329
100320
100373
100295
100268
100409
100304
100299
100296
100286
100285
100265
100328
100232
100300
100253
100316
100299
100261
100275
100266
100305
100332
100252
100271
100307
100282
100323
100225
100303
100303
100304
100293
100277
100232
100065
100067
100813
100597
100618
100374
100801
100646
100643
100943
101321
100951
101305
101026
101468
101054
101414
100811
100421
100683