/*--------------------------------*- C++ -*----------------------------------*\
| =========                 |                                                 |
| \\      /  F ield         | OpenFOAM: The Open Source CFD Toolbox           |
|  \\    /   O peration     | Version:  4.1                                   |
|   \\  /    A nd           | Web:      www.OpenFOAM.org                      |
|    \\/     M anipulation  |                                                 |
\*---------------------------------------------------------------------------*/
FoamFile
{
    version     2.0;
    format      ascii;
    class       volScalarField;
    location    "92";
    object      p;
}
// * * * * * * * * * * * * * * * * * * * * * * * * * * * * * * * * * * * * * //

dimensions      [0 2 -2 0 0 0 0];

internalField   nonuniform List<scalar> 
4432
(
100964
100965
100966
100968
100970
100973
100977
100982
100987
100993
101000
101007
101015
101023
101031
101038
101045
101049
101053
101062
101077
101094
101112
101132
101155
101179
101201
101219
101233
101245
101255
101265
101280
101300
101318
101329
101335
101342
101349
101355
101359
101362
101364
101366
101366
101365
101363
101361
101357
101352
101344
101338
101333
101328
100964
100965
100966
100968
100970
100973
100977
100982
100987
100993
101000
101007
101015
101023
101031
101039
101045
101049
101053
101062
101077
101095
101114
101134
101156
101180
101202
101219
101234
101247
101258
101269
101282
101299
101316
101327
101335
101342
101349
101355
101359
101361
101364
101365
101366
101366
101363
101359
101356
101351
101345
101339
101332
101328
100963
100963
100964
100966
100968
100971
100975
100979
100985
100991
100997
101005
101013
101022
101033
101045
101061
101078
101091
101101
101112
101127
101142
101156
101171
101186
101201
101217
101234
101249
101262
101274
101284
101292
101302
101312
101322
101335
101348
101357
101360
101359
101361
101365
101366
101366
101364
101361
101359
101355
101350
101340
101326
101327
100963
100963
100964
100966
100968
100971
100975
100979
100985
100991
100997
101005
101013
101022
101032
101045
101061
101078
101092
101101
101112
101126
101140
101154
101168
101183
101199
101216
101232
101246
101258
101267
101278
101293
101305
101315
101325
101336
101348
101357
101360
101360
101362
101366
101367
101366
101364
101362
101360
101358
101351
101337
101323
101328
100962
100962
100963
100965
100967
100970
100974
100978
100984
100990
100996
101004
101012
101021
101031
101043
101056
101068
101079
101092
101107
101123
101138
101152
101167
101184
101202
101219
101237
101254
101266
101277
101290
101304
101312
101317
101327
101342
101357
101367
101367
101363
101366
101370
101371
101369
101366
101362
101358
101353
101348
101340
101332
101328
100962
100962
100963
100965
100967
100970
100974
100978
100984
100990
100996
101004
101012
101021
101031
101043
101056
101068
101079
101092
101107
101122
101137
101151
101165
101182
101200
101218
101235
101252
101265
101274
101285
101300
101313
101320
101330
101343
101355
101365
101367
101365
101367
101371
101371
101369
101366
101363
101359
101355
101349
101339
101332
101330
100959
100960
100961
100963
100965
100968
100972
100976
100981
100987
100993
101000
101009
101018
101028
101039
101050
101061
101072
101087
101103
101119
101133
101147
101164
101184
101205
101224
101244
101263
101277
101291
101311
101323
101324
101317
101325
101342
101358
101370
101369
101366
101372
101375
101375
101372
101368
101364
101359
101353
101348
101344
101336
101327
100959
100960
100961
100963
100965
100968
100972
100976
100981
100987
100993
101000
101009
101018
101028
101039
101050
101061
101072
101087
101103
101118
101133
101147
101164
101184
101204
101223
101244
101263
101276
101289
101308
101320
101325
101325
101332
101345
101358
101367
101368
101367
101371
101375
101375
101372
101368
101364
101359
101354
101351
101345
101335
101326
100957
100957
100958
100960
100962
100965
100969
100973
100978
100983
100990
100997
101005
101014
101023
101034
101045
101056
101067
101078
101093
101109
101124
101140
101160
101183
101208
101232
101255
101276
101292
101311
101333
101346
101370
101302
101313
101341
101366
101385
101382
101373
101380
101382
101380
101376
101371
101367
101363
101357
101351
101345
101338
101331
100957
100957
100958
100960
100962
100965
100969
100973
100978
100984
100990
100997
101005
101014
101023
101034
101045
101056
101067
101078
101093
101109
101125
101141
101161
101185
101208
101232
101257
101279
101295
101311
101330
101340
101344
101331
101332
101348
101368
101382
101381
101376
101379
101381
101380
101376
101372
101367
101362
101358
101354
101346
101336
101330
100954
100954
100955
100956
100959
100962
100965
100969
100974
100979
100985
100992
101000
101008
101018
101028
101038
101049
101059
101070
101084
101099
101114
101130
101150
101175
101203
101229
101257
101281
101298
101318
101342
101423
101567
101362
101298
101318
101350
101362
101371
101394
101396
101391
101386
101381
101376
101371
101366
101360
101353
101345
101338
101333
100954
100954
100955
100956
100959
100962
100965
100969
100974
100979
100985
100992
101000
101008
101018
101028
101038
101049
101059
101070
101084
101099
101115
101131
101152
101177
101203
101228
101256
101281
101298
101312
101329
101361
101388
101341
101316
101337
101369
101393
101400
101390
101389
101389
101386
101382
101377
101372
101366
101359
101352
101346
101339
101332
100950
100950
100951
100953
100955
100957
100961
100965
100969
100974
100980
100987
100994
101002
101011
101021
101031
101041
101051
101062
101075
101090
101105
101118
101134
101159
101187
101213
101237
101260
101284
101312
101360
101552
101498
101462
101333
101343
101368
101377
101388
101406
101406
101398
101392
101388
101383
101378
101372
101365
101356
101346
101337
101333
100950
100950
100951
100953
100955
100957
100961
100965
100969
100974
100980
100987
100994
101002
101011
101021
101031
101041
101051
101062
101075
101090
101105
101120
101137
101161
101186
101210
101235
101260
101281
101302
101330
101383
101444
101393
101312
101329
101367
101386
101395
101400
101400
101396
101390
101386
101381
101376
101370
101362
101354
101346
101338
101331
100945
100946
100947
100948
100950
100953
100956
100959
100964
100969
100974
100981
100988
100996
101004
101013
101023
101033
101043
101054
101065
101078
101092
101104
101115
101133
101160
101182
101201
101218
101239
101271
101302
101364
101414
101416
101350
101357
101380
101394
101401
101406
101406
101401
101394
101389
101384
101379
101372
101365
101355
101345
101334
101331
100945
100946
100947
100948
100950
100953
100956
100959
100964
100969
100974
100981
100988
100996
101004
101013
101023
101033
101043
101054
101066
101078
101092
101105
101118
101136
101158
101178
101198
101220
101239
101266
101305
101347
101387
101369
101341
101354
101381
101396
101403
101406
101404
101399
101393
101387
101382
101377
101371
101363
101354
101343
101334
101330
100940
100941
100942
100943
100945
100947
100950
100954
100958
100962
100968
100974
100980
100988
100996
101005
101014
101024
101034
101044
101055
101065
101076
101086
101094
101102
101120
101141
101164
101186
101210
101237
101278
101321
101361
101358
101353
101369
101389
101402
101407
101409
101408
101404
101397
101391
101386
101381
101375
101366
101356
101344
101333
101329
100940
100941
100942
100943
100945
100947
100950
100954
100958
100962
100968
100974
100980
100988
100996
101005
101014
101024
101034
101044
101055
101065
101076
101085
101094
101104
101120
101141
101161
101184
101208
101239
101280
101321
101354
101363
101365
101378
101396
101407
101412
101411
101408
101404
101399
101392
101386
101381
101375
101367
101356
101344
101334
101331
100935
100935
100936
100937
100939
100941
100944
100947
100951
100955
100960
100966
100972
100979
100987
100996
101005
101015
101025
101035
101044
101052
101058
101063
101066
101068
101080
101104
101133
101161
101190
101225
101268
101311
101350
101371
101385
101400
101414
101423
101426
101426
101422
101417
101409
101401
101394
101387
101380
101370
101358
101345
101334
101329
100935
100935
100936
100937
100939
100941
100944
100947
100951
100955
100960
100966
100972
100979
100987
100996
101005
101015
101025
101035
101044
101052
101058
101062
101064
101068
101081
101105
101132
101161
101191
101226
101268
101312
101349
101373
101389
101405
101420
101430
101432
101430
101425
101420
101413
101404
101396
101388
101381
101371
101359
101347
101335
101332
100929
100930
100930
100931
100933
100935
100937
100940
100944
100948
100952
100957
100963
100970
100978
100986
100995
101005
101015
101025
101034
101040
101042
101038
101029
101025
101039
101072
101109
101144
101179
101219
101262
101308
101351
101384
101410
101431
101448
101457
101457
101451
101443
101433
101423
101413
101403
101392
101383
101373
101361
101347
101332
101326
100929
100930
100930
100931
100933
100935
100937
100940
100944
100948
100952
100957
100963
100970
100978
100986
100995
101005
101015
101025
101034
101040
101042
101037
101028
101024
101041
101073
101109
101144
101180
101221
101265
101310
101351
101384
101410
101432
101450
101459
101460
101454
101445
101435
101425
101415
101404
101394
101384
101374
101361
101348
101330
101331
100923
100923
100924
100925
100926
100928
100930
100933
100936
100939
100943
100948
100954
100960
100967
100975
100985
100995
101006
101017
101027
101034
101032
101015
100981
100962
100984
101031
101078
101119
101159
101204
101253
101303
101351
101394
101430
101459
101480
101489
101486
101475
101461
101448
101435
101422
101409
101397
101385
101374
101362
101348
101331
101328
100923
100923
100924
100925
100926
100928
100930
100933
100936
100939
100943
100948
100954
100960
100967
100975
100985
100995
101006
101017
101027
101033
101031
101014
100979
100962
100986
101032
101077
101118
101160
101205
101254
101304
101351
101394
101430
101459
101481
101490
101488
101477
101463
101449
101436
101423
101410
101398
101386
101375
101362
101348
101327
101333
100917
100917
100917
100918
100919
100921
100922
100925
100927
100930
100934
100938
100943
100949
100955
100963
100973
100984
100997
101011
101026
101035
101032
100999
100917
100879
100915
100981
101040
101086
101130
101180
101235
101292
101350
101404
101452
101490
101517
101525
101517
101500
101480
101462
101445
101428
101413
101398
101385
101373
101361
101348
101330
101330
100917
100917
100917
100918
100919
100921
100922
100925
100927
100930
100934
100938
100943
100949
100955
100963
100973
100984
100997
101011
101026
101035
101031
100995
100910
100877
100920
100986
101041
101085
101130
101180
101235
101292
101350
101404
101453
101492
101519
101526
101517
101500
101482
101464
101447
101429
101412
101398
101386
101374
101361
101347
101327
101330
100910
100910
100911
100911
100912
100913
100914
100916
100918
100921
100923
100927
100931
100936
100942
100950
100959
100971
100986
101005
101030
101058
101072
101012
100828
100731
100819
100931
101001
101044
101090
101146
101208
101274
101343
101411
101475
101526
101564
101571
101552
101524
101497
101474
101452
101431
101413
101397
101384
101371
101359
101347
101328
101331
100910
100910
100911
100911
100912
100913
100914
100916
100918
100921
100923
100927
100931
100936
100942
100950
100959
100971
100986
101005
101030
101058
101073
101009
100809
100735
100828
100931
100999
101044
101090
101146
101207
101274
101343
101408
101476
101526
101580
101583
101556
101522
101493
101470
101449
101429
101411
101396
101383
101371
101359
101346
101330
101328
100903
100903
100903
100904
100904
100905
100906
100907
100909
100910
100912
100915
100918
100922
100927
100934
100942
100954
100969
100992
101029
101094
101160
101151
100592
100488
100655
100883
100972
100996
101037
101100
101169
101243
101324
101409
101492
101552
101621
101631
101590
101537
101500
101476
101452
101428
101408
101393
101379
101368
101357
101346
101332
101330
100903
100903
100903
100904
100904
100905
100906
100907
100909
100910
100912
100915
100918
100922
100927
100934
100942
100954
100969
100992
101028
101093
101157
101140
100517
100556
100708
100889
100968
100998
101041
101101
101169
101243
101327
101414
101504
101537
101617
101632
101585
101530
101497
101475
101451
101428
101408
101392
101378
101367
101356
101346
101334
101328
100896
100896
100896
100896
100897
100897
100897
100898
100899
100900
100901
100903
100905
100907
100911
100916
100922
100931
100944
100964
100993
101042
101159
101443
100438
100631
100856
100937
100940
100969
101029
101102
101186
101284
101391
101507
101551
101630
101686
101630
101549
101502
101474
101447
101421
101400
101383
101370
101358
101349
101341
101333
101326
100896
100896
100896
100896
100897
100897
100897
100898
100899
100900
100901
100903
100905
100907
100911
100916
100922
100931
100944
100963
100993
101040
101156
101431
100405
100647
100862
100939
100945
100975
101034
101105
101188
101276
101400
101517
101515
101512
101658
101617
101548
101503
101473
101444
101418
101398
101382
101369
101358
101349
101341
101334
101326
100889
100889
100889
100889
100889
100889
100889
100889
100889
100889
100889
100889
100890
100891
100893
100896
100899
100904
100911
100920
100928
100926
100888
100815
100527
100533
100810
100957
100955
100919
100920
100955
101009
101087
101189
101300
101428
101470
101541
101728
101671
101581
101513
101465
101427
101399
101379
101364
101352
101343
101337
101332
101329
101322
100889
100889
100889
100889
100889
100889
100889
100889
100889
100889
100889
100889
100890
100891
100893
100896
100899
100904
100911
100920
100928
100925
100886
100805
100521
100584
100838
100958
100947
100917
100924
100960
101011
101078
101133
101295
101315
101558
101498
101539
101573
101550
101508
101463
101425
101398
101379
101364
101353
101344
101337
101332
101329
101323
100882
100882
100882
100881
100881
100880
100880
100879
100878
100877
100877
100876
100875
100874
100874
100874
100874
100874
100874
100873
100867
100849
100816
100750
100679
100688
100830
100906
100909
100897
100890
100892
100908
100962
101116
101278
101265
101487
101782
101615
101579
101549
101489
101431
101390
101365
101351
101340
101332
101327
101325
101323
101324
101320
100882
100882
100882
100881
100881
100880
100880
100879
100878
100877
100877
100876
100875
100874
100874
100874
100874
100874
100874
100873
100866
100849
100815
100749
100675
100695
100830
100899
100902
100892
100888
100893
100906
100937
100979
101193
101020
101451
101907
100986
101392
101525
101492
101437
101393
101366
101351
101340
101332
101327
101325
101323
101324
101320
100875
100875
100875
100874
100873
100872
100871
100869
100868
100866
100864
100862
100860
100857
100854
100851
100848
100844
100838
100830
100818
100800
100773
100735
100688
100680
100725
100774
100805
100821
100826
100818
100801
100790
100885
101147
102174
101478
100670
100951
101413
101511
101454
101390
101348
101329
101319
101313
101310
101310
101312
101315
101320
101319
100875
100875
100875
100874
100873
100872
100871
100869
100868
100866
100864
100862
100860
100857
100854
100852
100848
100844
100838
100830
100818
100800
100773
100734
100687
100682
100725
100772
100801
100817
100823
100818
100805
100724
100854
101159
101694
99866
100327
99773.9
100466
101347
101450
101399
101353
101330
101319
101313
101310
101310
101312
101316
101320
101319
100868
100868
100868
100867
100865
100864
100862
100860
100858
100855
100852
100848
100844
100840
100835
100829
100822
100814
100804
100792
100775
100754
100727
100693
100657
100639
100649
100675
100697
100713
100719
100713
100616
100654
100721
99856.8
99435.4
99186.6
99193.7
99662.1
100494
101265
101375
101310
101285
101279
101278
101280
101284
101290
101298
101306
101314
101317
100868
100868
100868
100867
100865
100864
100862
100860
100858
100855
100852
100848
100844
100840
100835
100829
100822
100814
100804
100792
100775
100754
100726
100693
100657
100640
100651
100676
100696
100710
100719
100720
100722
100729
100665
100313
102509
99818.3
99371.6
99323.8
99899.8
100781
101294
101315
101281
101275
101277
101280
101284
101290
101298
101306
101315
101319
100862
100862
100861
100860
100858
100856
100854
100851
100848
100844
100840
100835
100829
100823
100816
100807
100797
100786
100772
100755
100734
100709
100680
100647
100615
100592
100584
100585
100586
100591
100595
100623
100389
100596
101073
100756
99227.6
99083.2
99375.6
99670.7
100114
100745
101125
101177
101205
101220
101232
101244
101257
101270
101283
101295
101308
101316
100862
100862
100861
100860
100858
100856
100854
100851
100848
100844
100840
100835
100829
100823
100816
100807
100797
100786
100772
100755
100734
100709
100680
100647
100615
100592
100584
100585
100585
100585
100585
100628
100584
100643
100971
100408
100674
99503.1
99569.3
99781.2
100267
100735
100984
101113
101192
101220
101233
101245
101258
101271
101283
101296
101308
101315
100856
100855
100854
100853
100851
100849
100846
100843
100839
100834
100828
100822
100815
100807
100797
100786
100773
100758
100741
100720
100696
100667
100635
100599
100563
100530
100502
100480
100459
100456
100476
100719
100521
99712
100006
100294
99416.1
99291.6
99538.8
99825.7
100081
100353
100903
101061
101139
101168
101189
101211
101232
101251
101268
101285
101304
101314
100856
100855
100855
100853
100851
100849
100846
100843
100839
100834
100828
100822
100815
100807
100797
100786
100773
100758
100741
100720
100696
100667
100635
100599
100563
100530
100502
100479
100454
100432
100401
100448
100684
99983.3
97047.7
97937.9
99084.8
99283.2
99606.2
99927.4
100276
100491
100776
101011
101130
101169
101191
101212
101233
101252
101269
101285
101302
101314
100850
100850
100849
100847
100845
100842
100839
100835
100830
100824
100818
100810
100801
100791
100780
100766
100751
100733
100712
100688
100659
100626
100589
100548
100503
100456
100407
100357
100307
100279
100347
100548
100839
99929.1
99082.6
99110.4
99193.7
99346
99448.9
99553.1
99826.2
100124
100604
100965
101086
101124
101151
101180
101209
101232
101253
101273
101297
101310
100850
100850
100849
100847
100845
100842
100839
100835
100830
100824
100818
100810
100801
100791
100780
100766
100751
100733
100712
100688
100659
100626
100589
100548
100503
100456
100407
100356
100298
100250
100171
100408
100605
99989.8
98126
98650.3
99140.8
99373.1
99467.1
99568.3
99911
100231
100575
100930
101075
101121
101151
101181
101209
101233
101254
101273
101297
101311
100845
100844
100843
100841
100839
100836
100832
100827
100822
100815
100808
100799
100789
100777
100764
100748
100730
100710
100685
100657
100625
100587
100544
100495
100440
100377
100306
100217
100121
99915.9
100131
100104
100578
94111.6
95934.6
98276.4
99158.3
99484.3
99378.3
99262.4
99546.4
100020
100517
100857
101000
101066
101110
101151
101187
101216
101241
101262
101288
101306
100845
100844
100843
100841
100839
100836
100832
100827
100822
100815
100808
100799
100789
100777
100764
100748
100730
100710
100685
100657
100625
100587
100544
100495
100440
100377
100306
100221
100117
99978
99875.5
99974.4
98554.2
98402.6
98432
98833.7
99354.5
99574.4
99385.6
99218.8
99557.6
100091
100544
100849
100993
101061
101110
101152
101187
101216
101241
101263
101287
101303
100840
100840
100839
100837
100834
100830
100826
100821
100815
100807
100799
100789
100778
100765
100750
100732
100712
100689
100662
100630
100594
100551
100502
100445
100378
100299
100205
100083
99927.3
99631
99204.5
100405
96700.5
94687.6
96712.4
98723.8
99801.1
100036
99616.3
99266.5
99499.9
99978.6
100428
100738
100902
101007
101073
101127
101171
101205
101233
101257
101283
101300
100840
100840
100839
100837
100834
100830
100826
100821
100815
100807
100799
100789
100778
100765
100750
100732
100712
100689
100662
100630
100594
100551
100502
100445
100378
100299
100205
100093
99936.4
99708.7
99425.6
99119.5
97452.2
96169.1
97838.6
99151.5
100005
100133
99621.6
99220.9
99492
100049
100489
100740
100896
101000
101071
101127
101171
101204
101234
101259
101285
101300
100836
100836
100835
100832
100829
100825
100821
100815
100808
100800
100791
100781
100768
100754
100737
100718
100696
100670
100641
100606
100566
100519
100464
100399
100322
100229
100115
99971.1
99777.8
99510.9
99027.7
98807.3
100282
100197
99828.8
100352
100948
100802
99996.8
99322.8
99428.2
99882
100312
100636
100835
100963
101047
101114
101162
101197
101228
101256
101288
101300
100836
100836
100835
100832
100829
100825
100821
100815
100808
100800
100791
100781
100768
100754
100737
100718
100696
100671
100641
100606
100566
100519
100464
100399
100321
100227
100108
99974.1
99803.8
99584.4
99304.9
98678.5
97907.2
98540.4
99527.8
100486
101122
100886
99999
99282.7
99410.5
99930.6
100359
100635
100826
100955
101042
101112
101161
101196
101226
101255
101291
101305
100833
100833
100831
100829
100826
100822
100817
100811
100803
100795
100785
100774
100760
100745
100727
100707
100683
100656
100624
100586
100543
100492
100432
100360
100275
100171
100043
99887.3
99677.3
99410.1
98997.8
98517.1
98877.6
99810.9
99744.8
100249
100988
100959
100185
99324
99334.3
99804.8
100287
100611
100801
100931
101033
101109
101158
101191
101219
101247
101283
101300
100833
100833
100831
100829
100826
100822
100817
100811
100803
100795
100785
100774
100760
100745
100727
100707
100683
100656
100624
100586
100543
100492
100432
100360
100274
100165
100041
99887.8
99681.7
99422
99196
98346.3
98218.8
99054.3
99711.4
100564
101131
100959
100198
99350.9
99309.8
99811.9
100310
100622
100801
100926
101025
101106
101158
101189
101216
101242
101280
101309
100831
100830
100829
100826
100823
100818
100813
100807
100799
100791
100780
100768
100754
100738
100719
100698
100673
100644
100610
100571
100525
100470
100407
100330
100240
100130
99996.5
99829.3
99613.2
99341.3
99016.1
98541.9
98319.8
98608.3
98188.1
98994.1
99941.5
100385
100227
99690.4
99583.8
99964.6
100394
100696
100831
100942
101045
101116
101160
101189
101210
101227
101254
101295
100831
100830
100829
100826
100823
100818
100813
100807
100799
100791
100780
100768
100754
100738
100719
100698
100673
100644
100610
100571
100525
100470
100406
100330
100240
100129
100002
99834.3
99606.6
99330.7
98989.2
98504.8
98375
98568.3
98927.9
99484.7
99628.5
99978.7
100054
99759.5
99625
99941.2
100387
100711
100855
100943
101037
101116
101161
101186
101209
101225
101247
101296
100830
100829
100827
100825
100821
100817
100811
100805
100797
100788
100777
100765
100750
100734
100714
100692
100666
100636
100601
100560
100512
100456
100390
100310
100216
100102
99963.1
99791.8
99577.9
99314.3
99012.8
98638.3
98319.8
97901.7
97206.8
97160
96622.7
96696.5
97156.4
98346
99252.8
100059
100509
100796
100955
101060
101132
101174
101198
101212
101219
101219
101222
101276
100830
100829
100827
100825
100821
100817
100811
100805
100797
100788
100777
100765
100750
100734
100714
100692
100666
100636
100601
100560
100512
100456
100390
100310
100216
100102
99965.1
99797.9
99578.7
99300.4
99020.1
98659.7
98311.5
98084.6
97673.2
96976.6
96142
96281.5
96890.8
98188.5
99321.2
100066
100506
100793
100953
101061
101131
101174
101195
101209
101223
101225
101223
101277
100828
100828
100826
100823
100820
100815
100810
100803
100795
100786
100775
100763
100748
100731
100711
100689
100662
100632
100596
100555
100506
100448
100381
100300
100204
100087
99946.1
99773.7
99562.8
99308.2
99011.4
98658
98237.6
97807
97317
96297
94494.7
93815.7
94386.7
96175.1
98132
99455.7
100180
100575
100864
101064
101155
101189
101207
101217
101216
101212
101204
101246
100828
100828
100826
100823
100820
100815
100810
100803
100795
100786
100775
100763
100748
100731
100711
100689
100662
100632
100596
100555
100506
100448
100381
100300
100204
100088
99946.7
99775.7
99564.3
99308.8
99021.8
98706.4
98373.6
97881.4
96911.5
95588.3
94503.5
93982.2
94468.2
96081.7
98053.6
99454.8
100186
100566
100837
101051
101159
101188
101203
101217
101220
101218
101218
101268
100679
101145
100630
101556
101564
100598
100533
100575
100470
100432
100614
101138
100571
101560
101523
100566
100448
100552
100421
100397
101447
100878
100564
100868
100498
100522
100445
100540
100393
100468
100384
101415
100864
100480
100863
100472
100421
100405
100443
100394
100436
100416
100932
101010
100926
101053
100927
101050
100919
100768
100818
100760
100728
100655
100707
100635
100918
101007
100914
101046
100891
101045
100874
100757
100805
100754
100669
100616
100650
100612
101223
101159
101221
101209
101356
101208
101358
100537
100669
100584
100679
100557
100573
100526
100608
100417
100434
100397
100437
101217
101156
101216
101207
101347
101204
101353
100439
100605
100486
100577
100446
100630
100562
100640
100392
100457
100412
100505
101250
101158
101251
101029
101014
101028
101011
100675
101456
101148
101146
100721
100446
100479
100463
100409
100464
100428
100489
100422
100497
101243
101154
101248
101026
101006
101025
101008
100657
101428
101135
100663
101134
100402
100403
100478
100419
100507
100444
100521
100471
100542
100675
100811
100668
100779
100683
100779
100684
100380
100524
100417
100592
100567
100594
100581
100658
100804
100657
100778
100684
100778
100686
100454
100522
100463
100598
100592
100600
100595
101002
100906
100668
100900
101038
101000
100656
100883
100894
100986
101379
101470
101570
101477
101393
101167
101206
101380
101479
101566
101476
101387
101168
101166
100510
100560
100622
100649
100453
100539
100555
100535
100471
100461
100465
100547
100517
100465
100520
100443
100439
100449
100469
100980
100861
100593
100848
100987
100979
100573
100841
100830
100974
101397
101480
101552
101396
101485
101208
101206
101396
101472
101540
101473
101368
101232
101161
100401
100465
100523
100555
100319
100449
100461
100447
100439
100403
100462
100426
100425
100369
100449
100430
100394
100419
100449
100344
100398
100670
101451
101143
101142
100666
100338
100325
100378
100657
100547
100654
100430
100372
100523
100627
100356
100641
100462
100503
100482
100455
100493
100427
100408
100439
100466
100403
100418
100412
100441
100517
100530
100515
100456
100431
100501
100468
100422
100497
100317
100325
100649
101427
101135
101138
100676
100309
100350
100342
100618
100464
100354
100609
100330
100463
100600
100606
100372
100404
100405
100387
100406
100387
100408
100407
100407
100400
100398
100389
100402
100404
100443
100423
100415
100429
100397
100422
100432
100426
100390
101214
101072
101150
101293
101068
101295
101221
101185
101042
101138
101281
101035
101178
101287
101211
101147
101058
101291
101063
101293
101207
100582
100634
100594
100483
100629
100486
100586
100554
100586
100584
100483
100608
100487
100512
101199
101146
101051
101307
101048
101300
101205
100508
100574
100554
100478
100561
100503
100467
100510
100549
100546
100465
100552
100467
100490
100785
100957
100793
100875
100952
100791
100792
100777
100946
100871
100779
100946
100774
100785
100404
100408
100431
100383
100389
100423
100417
100384
100374
100376
100418
100375
100381
100419
100761
100941
100773
100861
100768
100938
100768
100754
100946
100863
100761
100943
100764
100757
100381
100374
100412
100404
100380
100378
100407
100376
100389
100413
100390
100383
100393
100376
100522
100621
100408
100552
100636
100487
100450
100267
100153
100120
100281
100270
100090
100107
100236
100508
100552
100625
100452
100631
100458
100500
100329
100538
100446
100152
100545
100307
100186
100041
99946.8
100081
99918.5
100344
100446
100543
100232
100369
100541
100210
100007
99859.2
99890.1
99974.6
101122
100895
100921
100678
100893
101119
100926
101356
101592
101605
101364
101348
101588
101592
101343
101135
100678
100939
100932
100909
100931
101132
100457
100473
101120
100890
100655
100912
100887
101116
100907
101354
101597
101593
101341
101348
101592
101591
101330
101122
100657
100897
100915
101117
100892
100909
100400
100401
100532
100940
100564
101005
100945
100525
100570
100333
100192
100164
100356
100321
100133
100140
100316
100525
101005
100945
100610
100946
100566
100591
100511
100935
100559
100998
100520
100930
100548
100274
100032
100064
100251
100291
100113
100307
100088
100500
100993
100915
100515
100926
100533
100481
101610
101437
101587
101377
101436
101585
101608
101675
101667
101681
101662
101666
101663
101669
101661
101619
101388
101436
101597
101441
101601
101599
101165
101173
101611
101436
101385
101590
101439
101607
101594
101670
101677
101684
101666
101616
101388
101441
101617
101442
101596
101628
101666
101664
101662
101666
101168
101163
100419
100599
100356
100488
100453
100581
100315
100132
99971.9
100107
100003
100151
100057
100191
100024
100398
100462
100544
100264
100383
100554
100287
100547
100549
100493
100522
100504
100542
100527
100505
100491
100502
100533
100541
100502
100492
100512
100486
100529
100500
100543
100532
100516
100529
100509
100503
100494
100473
100477
100511
100502
100495
100500
100482
100486
100463
100461
100457
100469
100468
100484
100478
100467
100487
100477
100460
100467
100491
100473
100477
100443
100876
100989
100504
100893
100421
100510
100217
100012
99996.8
100227
100442
100985
100898
100528
100891
100454
100511
100211
99948.1
99975.5
100192
100376
100856
100506
100976
100384
100854
100508
100163
99984.8
99921.7
100221
100159
99935.6
100173
99913.9
100372
100937
100856
100512
100846
100478
100455
101675
101409
101436
101736
101441
101679
101680
101737
101693
101690
101710
101672
101410
101434
101689
101432
101664
101687
101731
101704
101692
101739
101203
101216
101632
101420
101706
101381
101415
101642
101695
101733
101631
101700
101644
101715
101684
101712
101696
101638
101369
101416
101672
101420
101755
101606
101221
101171
100271
100520
100090
100361
100279
100512
100051
99887.7
99892.8
99810.9
99957.1
99922.5
99842.4
99945.5
99811.8
100211
100320
100447
100017
100475
100014
100222
100455
100459
100427
100450
100446
100438
100453
100443
100423
100443
100455
100453
100444
100441
100454
100470
100458
100451
100461
100449
100430
100422
100423
100431
100391
100365
100425
100446
100434
100451
100458
100420
100435
100426
100412
100413
100432
100423
100416
100417
100416
100429
100442
100457
100442
100459
100435
100431
100349
100344
101120
100895
100917
100670
101116
100894
100919
101342
101588
101337
101585
101345
101588
101342
101590
101122
100669
100891
100920
101119
100888