/*--------------------------------*- C++ -*----------------------------------*\
| =========                 |                                                 |
| \\      /  F ield         | OpenFOAM: The Open Source CFD Toolbox           |
|  \\    /   O peration     | Version:  4.1                                   |
|   \\  /    A nd           | Web:      www.OpenFOAM.org                      |
|    \\/     M anipulation  |                                                 |
\*---------------------------------------------------------------------------*/
FoamFile
{
    version     2.0;
    format      ascii;
    class       surfaceScalarField;
    location    "92";
    object      phi;
}
// * * * * * * * * * * * * * * * * * * * * * * * * * * * * * * * * * * * * * //

dimensions      [0 3 -1 0 0 0 0];

internalField   nonuniform List<scalar> 
11516
(
9.98779e+06
16.1162
9096.85
9.96834e+06
47.5114
19784.5
9.93983e+06
59.3305
28828.6
9.90271e+06
60.7478
37445
9.8569e+06
60.4597
46143.5
9.80215e+06
63.005
55093.7
9.73819e+06
64.8084
64341.4
9.66476e+06
65.552
73828.3
9.58172e+06
69.8775
83447.9
9.48886e+06
68.8984
93292.4
9.38631e+06
71.4244
102992
9.27501e+06
82.1233
111777
9.1568e+06
-12.1453
118817
9.03637e+06
-148.681
121193
8.92392e+06
-1526.89
114520
8.83433e+06
-2412.57
92478
8.78407e+06
-931.68
51728
8.78151e+06
-477.51
3422.27
8.78335e+06
22.4096
-1516.7
8.74575e+06
1166.13
36737.5
8.67608e+06
-1093.47
71071.8
8.57598e+06
-4774.4
105166
8.45185e+06
-7801.4
132221
8.3107e+06
-10352.3
151780
8.15374e+06
-12388.2
169632
7.99961e+06
-14050
168484
7.86005e+06
-12009.8
151916
7.74026e+06
-7203.06
127391
7.63747e+06
-7142.63
110390
7.54586e+06
-12367.5
104484
7.44585e+06
-20948.2
121432
7.30256e+06
-29829.6
173368
7.1175e+06
-30062.6
214938
6.93565e+06
-17316.5
198489
6.80087e+06
-1423.36
135483
6.68385e+06
4608.01
112362
6.56308e+06
4329.7
117538
6.45324e+06
2374.97
108812
6.36746e+06
804.017
85547.6
6.31257e+06
1149.53
53962.6
6.27903e+06
2919.36
30777.4
6.25513e+06
4996.68
18754.7
6.23613e+06
6007.13
12596.4
6.22882e+06
7165.03
-666.754
6.23566e+06
8672.96
-16887.6
6.25535e+06
9628.01
-30485.4
6.28504e+06
12027
-41641.9
6.32601e+06
13815
-53714.7
6.37483e+06
14065.9
-62691.7
6.43506e+06
18574.8
-78564.4
6.51046e+06
14925.8
-87660.6
6.57779e+06
6165.63
-72334.2
6.64617e+06
4088.45
-68082.2
4501.69
-68869.3
9.98782e+06
9096.34
9.96833e+06
19782.3
9.93982e+06
28834.1
9.90269e+06
37447.2
9.85687e+06
46137.1
9.80213e+06
55088.1
9.73817e+06
64324.1
9.66474e+06
73801.1
9.58171e+06
83419.1
9.48886e+06
93249.4
9.38632e+06
102973
9.27502e+06
111764
9.15641e+06
119006
9.0347e+06
121968
8.91712e+06
116458
8.82227e+06
92883.5
8.77413e+06
47659.8
8.77788e+06
-3888.14
8.7848e+06
-6619.25
8.74941e+06
36781.6
8.68032e+06
68208
8.58197e+06
93777.9
8.45865e+06
115717
8.31471e+06
133795
8.15046e+06
152080
7.98648e+06
150162
7.83577e+06
138973
7.70083e+06
128054
7.58049e+06
113574
7.4779e+06
90652.1
7.38349e+06
73836.2
7.26388e+06
89835.7
7.10123e+06
132295
6.9142e+06
169110
6.75065e+06
161780
6.6063e+06
149257
6.46335e+06
148061
6.33713e+06
129145
6.23385e+06
104308
6.15876e+06
76247.2
6.10608e+06
55532.5
6.06564e+06
45316
6.03295e+06
38257.3
6.01757e+06
21511.1
6.02215e+06
3344.53
6.04641e+06
-14941.7
6.08389e+06
-25107.2
6.13257e+06
-34449
6.19207e+06
-45733.5
6.28256e+06
-70013.5
6.39052e+06
-93614.5
6.47997e+06
-80397.3
6.55867e+06
-72819.7
-76843.1
1.00059e+07
15.2179
5272.92
1.00116e+07
42.4662
14347.8
1.00175e+07
51.1599
23232
1.00231e+07
51.8743
32164.6
1.00282e+07
53.7663
41302.2
1.00328e+07
56.0827
50769.4
1.00369e+07
59.7778
60646.4
1.00402e+07
65.038
70787.7
1.00422e+07
67.9995
81839.9
1.00427e+07
75.9218
93092.3
1.00412e+07
79.8789
104887
1.00366e+07
74.2873
116831
1.00269e+07
150.987
128945
1.00085e+07
262.844
139997
9.96849e+06
1702.05
153603
9.89598e+06
2046.7
163698
9.77211e+06
2248.16
174343
9.58179e+06
1258.98
192876
9.37165e+06
-989.697
209781
9.18817e+06
-1339.73
221679
9.02893e+06
224.215
230199
8.89214e+06
1890.83
240170
8.76735e+06
3226.67
253888
8.64519e+06
4353.8
269696
8.52705e+06
4978.37
282913
8.40734e+06
5686.11
282652
8.28231e+06
6253.96
270901
8.14008e+06
7753.08
262111
7.98761e+06
11549.3
251550
7.8351e+06
14509.9
242736
7.682e+06
17731.4
257019
7.54179e+06
20805.7
292854
7.42992e+06
16987.1
309813
7.3389e+06
5517.12
283886
7.25792e+06
-8781.98
224661
7.18004e+06
-22280.9
212389
7.10103e+06
-30369.2
227067
7.02264e+06
-30823.8
218165
6.93634e+06
-26551.6
198372
6.8645e+06
-21444
147111
6.8077e+06
-22763.7
110143
6.75601e+06
-29237.4
99337.6
6.71812e+06
-32468
82013
6.6981e+06
-33961.9
51973.6
6.69409e+06
-35619.2
21466.2
6.70324e+06
-36149.7
-4187.61
6.72278e+06
-38289.3
-22933.3
6.74663e+06
-40237.8
-36900.9
6.76677e+06
-44155.4
-38568.6
6.80083e+06
-56030.7
-56870.2
6.8422e+06
-37901.7
-91266.8
6.89509e+06
-21681.1
-102393
6.95508e+06
-13871.9
-112026
-11330.2
-119638
1.00059e+07
5272.51
1.00116e+07
14345.1
1.00175e+07
23229.3
1.00231e+07
32160.1
1.00282e+07
41295.4
1.00328e+07
50762.6
1.00369e+07
60639.2
1.00402e+07
70778.1
1.00421e+07
81834
1.00427e+07
93079.2
1.00412e+07
104876
1.00365e+07
116860
1.00272e+07
128869
1.00098e+07
140150
9.97751e+06
151003
9.91168e+06
161433
9.78356e+06
178652
9.5885e+06
192670
9.37277e+06
208220
9.18941e+06
218886
9.03283e+06
225081
8.89638e+06
232194
8.7729e+06
242503
8.65314e+06
257991
8.53935e+06
270950
8.42426e+06
271087
8.30213e+06
267559
8.17062e+06
267553
8.03697e+06
259078
7.90225e+06
240235
7.74862e+06
245418
7.58199e+06
277379
7.44085e+06
290415
7.3501e+06
265381
7.28621e+06
216481
7.23195e+06
180931
7.18116e+06
168793
7.12748e+06
152337
7.07501e+06
130346
7.04413e+06
85501.7
7.01805e+06
58625.4
6.98752e+06
46040.7
6.96549e+06
26735.9
6.95418e+06
-2196.57
6.95291e+06
-31873.2
6.95884e+06
-57370.4
6.97072e+06
-74994.7
6.98051e+06
-84286.5
6.9833e+06
-92820.3
6.9628e+06
-106101
6.95807e+06
-126490
6.99402e+06
-136688
7.04173e+06
-134883
-154428
9.99929e+06
14.754
6635.57
9.9942e+06
39.9231
19727.2
9.98512e+06
49.2832
32587.2
9.97206e+06
49.9122
45492.9
9.95506e+06
50.4912
58566.9
9.93419e+06
51.7941
71922.4
9.90968e+06
53.321
85455.2
9.88096e+06
55.5947
99821.9
9.84885e+06
59.0875
114271
9.81267e+06
64.8893
129620
9.77287e+06
71.2281
145069
9.72911e+06
90.2793
161004
9.6809e+06
124.102
177631
9.62638e+06
265.619
194935
9.56753e+06
337.269
212959
9.49633e+06
867.097
235085
9.41449e+06
705.532
256435
9.33037e+06
1141.68
276067
9.23682e+06
552.496
302884
9.13175e+06
554.313
326275
9.01821e+06
957.18
342871
8.90365e+06
1625.75
353206
8.79009e+06
2579.84
364974
8.67567e+06
4141
380098
8.55785e+06
4874.75
396001
8.43284e+06
6229.15
401639
8.29295e+06
8802.65
402275
8.12989e+06
12006.6
413503
7.94918e+06
14372.2
418269
7.75619e+06
13242
422837
7.54944e+06
11352
452708
7.35184e+06
13760.4
476955
7.17304e+06
21831.5
467041
7.01589e+06
29856.3
410408
6.90908e+06
22990.8
306906
6.81885e+06
-1086.44
302751
6.71985e+06
-16796.3
343002
6.6155e+06
-17442.7
340853
6.52198e+06
-10176.3
303174
6.47701e+06
-2563.81
194800
6.45254e+06
-10943.8
145433
6.42373e+06
-22564.1
149935
6.40285e+06
-27174.7
128299
6.39974e+06
-27355.5
80842.2
6.40903e+06
-27118.9
37930.1
6.4277e+06
-26532.2
2862.03
6.45896e+06
-27166
-27364.9
6.50289e+06
-27797.6
-53783.9
6.56786e+06
-29939.7
-74348.3
6.64682e+06
-25973.8
-110246
6.70257e+06
-13570.8
-133332
6.7481e+06
-8008.87
-139198
6.78933e+06
-8486.15
-145920
-9835.81
-165802
9.99931e+06
6635.15
9.9942e+06
19726.1
9.98511e+06
32586.1
9.97205e+06
45491.4
9.95505e+06
58564.8
9.93418e+06
71920
9.90966e+06
85452.8
9.88094e+06
99818.9
9.84883e+06
114267
9.81265e+06
129615
9.77285e+06
145063
9.72917e+06
160995
9.68097e+06
177604
9.62699e+06
194885
9.56601e+06
212926
9.49469e+06
234349
9.41663e+06
258014
9.33101e+06
279611
9.23743e+06
302425
9.13402e+06
322903
9.02222e+06
337906
8.90949e+06
346624
8.79752e+06
357145
8.68207e+06
377687
8.5634e+06
394625
8.43852e+06
402383
8.30132e+06
413817
8.14903e+06
432180
7.98106e+06
441804
7.79022e+06
444714
7.57993e+06
467353
7.38147e+06
489864
7.21361e+06
480409
7.08588e+06
422253
6.99984e+06
324211
6.91021e+06
267474
6.82143e+06
240030
6.73426e+06
223487
6.65263e+06
203699
6.60775e+06
129359
6.5756e+06
79837.3
6.53436e+06
63539.5
6.50761e+06
24271.4
6.49791e+06
-21488.7
6.50047e+06
-62397.8
6.51316e+06
-96965.8
6.53751e+06
-126919
6.5746e+06
-149878
6.62182e+06
-170856
6.68512e+06
-195523
6.73668e+06
-191334
6.77751e+06
-185998
6.81982e+06
-185427
-216094
9.99892e+06
14.3827
8458.04
9.99381e+06
38.95
25119.8
9.98492e+06
48.1406
41750.3
9.97212e+06
48.3595
58564.8
9.95527e+06
48.384
75680.4
9.93445e+06
49.6521
93020.8
9.90891e+06
51.221
111295
9.87907e+06
53.7955
129979
9.84451e+06
57.9228
149158
9.80518e+06
63.766
169281
9.7606e+06
70.7606
190017
9.71018e+06
84.8144
211832
9.65362e+06
98.2641
234664
9.59057e+06
164.613
258491
9.51963e+06
197.82
284498
9.44166e+06
677.88
313325
9.3525e+06
373.65
346025
9.25715e+06
298.512
371479
9.16897e+06
473.57
390705
9.08278e+06
887.177
411677
8.99081e+06
1249.12
433692
8.89134e+06
1304.83
451502
8.77991e+06
1221.69
475344
8.65737e+06
1557.92
501245
8.52432e+06
1150.89
528080
8.37642e+06
1107.14
548681
8.20627e+06
2885.3
569845
8.0065e+06
4511.58
609096
7.77151e+06
3366.48
650279
7.51078e+06
3047.19
680916
7.25864e+06
3775.43
701409
7.03807e+06
6174.55
691633
6.85544e+06
11851.5
637713
6.74303e+06
20430
502162
6.71835e+06
18635.4
312379
6.6734e+06
-16094.8
362398
6.5708e+06
-36753.9
481560
6.44443e+06
-37626.1
508135
6.31362e+06
-32242.9
468358
6.25271e+06
-9741.43
266897
6.2221e+06
-9127.56
185258
6.19535e+06
-17642.4
193547
6.17664e+06
-18939.6
163250
6.17798e+06
-16563.3
93781.5
6.19304e+06
-14440.8
36207
6.21908e+06
-12788.9
-11303.1
6.25484e+06
-12103.3
-52038.2
6.30312e+06
-11022.2
-92568.3
6.36978e+06
-10013.4
-132100
6.44662e+06
-19638.1
-167110
6.53087e+06
-21016.6
-194959
6.60967e+06
-18211.6
-199852
6.68666e+06
-16120
-206356
-10720.7
-217057
9.99894e+06
8458.28
9.99381e+06
25120
9.98491e+06
41748.7
9.97211e+06
58562.7
9.95526e+06
75678.1
9.93444e+06
93018.1
9.90889e+06
111292
9.87905e+06
129975
9.84448e+06
149155
9.80516e+06
169278
9.76059e+06
190015
9.7102e+06
211826
9.65364e+06
234660
9.59072e+06
258443
9.52e+06
284427
9.44271e+06
312990
9.3556e+06
346055
9.25917e+06
376606
9.17071e+06
391456
9.08498e+06
409595
8.99326e+06
430977
8.89209e+06
449218
8.77817e+06
472425
8.65528e+06
502252
8.52277e+06
528426
8.37196e+06
554481
8.19744e+06
591423
7.99694e+06
637420
7.7672e+06
675177
7.51554e+06
699685
7.27683e+06
710080
7.06937e+06
703721
6.89139e+06
670075
6.7654e+06
568299
6.72104e+06
386151
6.66203e+06
309525
6.58206e+06
284683
6.48028e+06
290610
6.38136e+06
273858
6.32291e+06
179575
6.2787e+06
114684
6.23895e+06
84558.1
6.21167e+06
30727.1
6.20586e+06
-33309
6.21616e+06
-87739.8
6.24064e+06
-134769
6.27727e+06
-176327
6.3303e+06
-214796
6.39215e+06
-243148
6.4705e+06
-292861
6.54866e+06
-290496
6.62259e+06
-277104
6.70213e+06
-281677
-300984
9.99893e+06
14.3311
10262.2
9.9939e+06
39.4077
30426.4
9.98521e+06
48.1992
50717.3
9.97269e+06
48.0758
71346.9
9.95624e+06
47.8896
92387.2
9.93576e+06
49.107
113773
9.91112e+06
50.7094
136227
9.88235e+06
53.1693
159061
9.84885e+06
57.0271
182978
9.81058e+06
61.936
207883
9.76728e+06
68.4439
233678
9.71864e+06
76.4689
260885
9.66466e+06
93.315
289114
9.60445e+06
110.599
319246
9.53788e+06
207.359
351639
9.46501e+06
246.083
386874
9.38397e+06
982.209
427080
9.28527e+06
1088.57
469864
9.18096e+06
950.216
494321
9.08024e+06
1237.14
511396
8.98189e+06
2013.41
530251
8.87638e+06
1641.63
555646
8.75519e+06
446.035
596319
8.61515e+06
-378.784
641862
8.45743e+06
-2733.47
688741
8.27244e+06
-3796.98
737703
8.05906e+06
-1543.37
785016
7.82127e+06
420.397
846691
7.56335e+06
-1052.29
909503
7.30309e+06
-1861.53
943281
7.06678e+06
-91.1312
938032
6.86095e+06
4172.2
893413
6.69745e+06
9874.14
791802
6.60822e+06
20845.6
570768
6.63992e+06
44735.4
236195
6.54951e+06
-43067.8
495614
6.42752e+06
-128053
732003
6.27936e+06
-140581
797866
6.12546e+06
-137970
762501
6.05459e+06
-87592.1
425589
6.02442e+06
-39697.1
255073
5.99688e+06
-35674.1
256304
6.00232e+06
-27657.1
184803
6.0115e+06
-26060.4
110902
6.03182e+06
-26603.8
42955
6.06513e+06
-25815.2
-18163.4
6.11096e+06
-25626
-71589.6
6.16595e+06
-26039.9
-120696
6.22051e+06
-23606.7
-162753
6.28176e+06
-33682.4
-193560
6.34774e+06
-34290.6
-226324
6.42447e+06
-31162.4
-242705
6.50033e+06
-29981
-251091
-21570
-248715
9.99895e+06
10261.5
9.9939e+06
30424.4
9.9852e+06
50715.5
9.97268e+06
71344.9
9.95623e+06
92384.7
9.93575e+06
113770
9.91111e+06
136224
9.88233e+06
159058
9.84882e+06
182975
9.81056e+06
207880
9.76727e+06
233675
9.71864e+06
260881
9.66468e+06
289107
9.60447e+06
319225
9.53806e+06
351601
9.46512e+06
386801
9.38595e+06
426858
9.29375e+06
470391
9.18999e+06
496503
9.0867e+06
514408
8.98463e+06
535311
8.87131e+06
564443
8.74398e+06
600388
8.60448e+06
641508
8.44395e+06
686365
8.2544e+06
740388
8.04682e+06
797597
7.81987e+06
864929
7.57411e+06
920059
7.3238e+06
948312
7.09337e+06
940586
6.89635e+06
904975
6.74892e+06
827606
6.68025e+06
658392
6.69776e+06
416494
6.66898e+06
299455
6.55641e+06
270684
6.4144e+06
292295
6.27421e+06
275737
6.19492e+06
170568
6.14785e+06
122001
6.11248e+06
84328.9
6.10371e+06
12306.8
6.11496e+06
-70090.4
6.14158e+06
-140235
6.18205e+06
-200074
6.23244e+06
-251249
6.2859e+06
-293387
6.34088e+06
-321038
6.37554e+06
-361042
6.41438e+06
-362861
6.47208e+06
-365270
6.53152e+06
-370801
-370089
9.99896e+06
13.6146
12012.4
9.99404e+06
37.5083
35616.9
9.98559e+06
46.1292
59435.7
9.97347e+06
46.2023
83715.2
9.9577e+06
46.0561
108416
9.93785e+06
47.2341
133888
9.91408e+06
48.8211
160276
9.88612e+06
51.2466
187320
9.85377e+06
54.9631
215647
9.81698e+06
59.7116
244995
9.77516e+06
65.7723
275855
9.72845e+06
73.5164
307993
9.67647e+06
86.7313
341558
9.61907e+06
100.18
377176
9.55652e+06
153.125
414786
9.48894e+06
220.412
455094
9.41846e+06
646.351
497966
9.34131e+06
1322.34
546780
9.24761e+06
1970.87
586895
9.13773e+06
1845.56
620259
9.01691e+06
2222.41
649597
8.88633e+06
526.683
686406
8.75472e+06
-1344.12
729580
8.60949e+06
-2722.19
790063
8.43346e+06
-5964.82
870989
8.21466e+06
-5988.05
962792
7.96162e+06
-2397.37
1.04074e+06
7.70316e+06
1820.03
1.10359e+06
7.44762e+06
1886.76
1.16341e+06
7.19899e+06
1088.47
1.19107e+06
6.96508e+06
2674.49
1.16952e+06
6.74784e+06
8677.3
1.10262e+06
6.53703e+06
19832.2
983505
6.31454e+06
72893.4
721634
5.94878e+06
310934
294710
5.52955e+06
194149
722745
5.28593e+06
33873.7
940130
5.29931e+06
-62181.9
840719
5.41449e+06
-152922
794798
5.50835e+06
-196366
526861
5.55419e+06
-115635
324823
5.61407e+06
-90213.3
288713
5.65048e+06
-55873.5
207276
5.69175e+06
-55925.6
127872
5.73984e+06
-57352.5
54756.5
5.79114e+06
-55252.5
-10633.3
5.84407e+06
-50518.6
-70173
5.90081e+06
-47791.2
-126811
5.95335e+06
-41314.5
-172771
5.9962e+06
-26331.1
-210626
6.03001e+06
-15441.7
-243750
6.06652e+06
-5968.27
-270139
6.09362e+06
3881.17
-281457
23261.7
-298003
9.99898e+06
12012.6
9.99404e+06
35616.5
9.98558e+06
59432.8
9.97346e+06
83711.6
9.95769e+06
108413
9.93784e+06
133884
9.91407e+06
160271
9.8861e+06
187315
9.85374e+06
215643
9.81696e+06
244991
9.77515e+06
275851
9.72845e+06
307989
9.67648e+06
341552
9.61909e+06
377166
9.55659e+06
414774
9.48924e+06
454981
9.41952e+06
497947
9.34767e+06
544388
9.25984e+06
587154
9.15162e+06
625249
9.02869e+06
661109
8.89477e+06
699445
8.7523e+06
741920
8.59543e+06
795838
8.41132e+06
864689
8.19329e+06
952616
7.96045e+06
1.02821e+06
7.71928e+06
1.10808e+06
7.47022e+06
1.17119e+06
7.22482e+06
1.19499e+06
6.99978e+06
1.16845e+06
6.80472e+06
1.10906e+06
6.64151e+06
1.01155e+06
6.53967e+06
836910
6.75161e+06
525976
6.8744e+06
372885
6.79292e+06
382567
6.67068e+06
348155
6.53289e+06
257326
6.29908e+06
206581
6.12009e+06
185634
6.05165e+06
63898.1
6.0523e+06
-42765.8
6.0443e+06
-116514
6.02622e+06
-177867
6.00537e+06
-232647
5.98493e+06
-279486
5.96277e+06
-317731
5.94603e+06
-345478
5.93187e+06
-373349
5.93424e+06
-380240
5.93858e+06
-375090
5.93616e+06
-362381
-346408
9.999e+06
13.4014
13696.7
9.99428e+06
37.4397
40601.3
9.98619e+06
45.705
67781.3
9.97461e+06
45.5143
95535.3
9.95954e+06
45.1631
123732
9.94054e+06
46.1946
153137
9.91777e+06
47.7401
183319
9.89093e+06
50.1441
214446
9.86002e+06
53.7566
246860
9.82422e+06
58.29
281100
9.78412e+06
63.8997
316296
9.73915e+06
71.662
353354
9.68906e+06
82.1406
392090
9.63414e+06
99.0212
432619
9.57447e+06
124.727
475045
9.51066e+06
201.07
519520
9.44334e+06
322.762
565949
9.3755e+06
787.793
615016
9.30034e+06
719.403
662726
9.21207e+06
-61.9254
710141
9.10438e+06
-44.0384
759006
8.97115e+06
-700.305
821838
8.82232e+06
-1985.98
881241
8.66698e+06
-5362.88
951142
8.48578e+06
-9455.1
1.06194e+06
8.25783e+06
-10197.8
1.20128e+06
7.98638e+06
-1520.97
1.31412e+06
7.70003e+06
6098.57
1.38424e+06
7.42248e+06
5350.4
1.43599e+06
7.15775e+06
3117.73
1.453e+06
6.91377e+06
6146.58
1.40777e+06
6.67671e+06
13025.3
1.32719e+06
6.36244e+06
34484.3
1.26415e+06
5.55966e+06
198993
1.32664e+06
4.64029e+06
276465
942686
4.61937e+06
9751.94
733932
4.60456e+06
37986.8
912119
4.43066e+06
118421
886675
4.45297e+06
60511.1
703935
4.54812e+06
-46837.6
471326
4.70962e+06
-54033.9
215364
4.82698e+06
21252.2
149922
4.88307e+06
57168.1
93674.4
4.93025e+06
62945.4
17288.7
4.9694e+06
71372.9
-56214.8
4.9942e+06
86352
-122408
5.00563e+06
103291
-185221
5.006e+06
119369
-246943
5.00487e+06
134022
-306976
5.008e+06
147677
-363584
5.02245e+06
154791
-414087
5.05759e+06
156640
-464183
5.10947e+06
160900
-492192
149896
-556479
9.99902e+06
13695.6
9.99428e+06
40598
9.98618e+06
67778
9.9746e+06
95531.9
9.95953e+06
123728
9.94053e+06
153132
9.91775e+06
183314
9.89091e+06
214441
9.85999e+06
246855
9.8242e+06
281095
9.78411e+06
316290
9.73914e+06
353347
9.68907e+06
392083
9.63416e+06
432607
9.57452e+06
475032
9.51083e+06
519445
9.44391e+06
565883
9.37588e+06
614052
9.30206e+06
662669
9.21633e+06
712009
9.11401e+06
764544
8.98872e+06
825214
8.83172e+06
897823
8.66027e+06
962249
8.46157e+06
1.05422e+06
8.22649e+06
1.17775e+06
7.97375e+06
1.27972e+06
7.71632e+06
1.37183e+06
7.45292e+06
1.44019e+06
7.19355e+06
1.45773e+06
6.9563e+06
1.41216e+06
6.74864e+06
1.33028e+06
6.54819e+06
1.24718e+06
6.37564e+06
1.21492e+06
5.7808e+06
1.39968e+06
4.94288e+06
1.21854e+06
4.5203e+06
837545
4.4332e+06
547455
4.3691e+06
375829
4.29985e+06
224739
4.29146e+06
137935
4.29408e+06
81473
4.30852e+06
-830.666
4.33316e+06
-79402.5
4.36778e+06
-142645
4.41201e+06
-191886
4.46485e+06
-230264
4.52503e+06
-260038
4.59426e+06
-282738
4.66741e+06
-300930
4.7526e+06
-312662
4.85222e+06
-318099
4.96577e+06
-316085
-313173
9.99906e+06
12.3225
15282.7
9.9946e+06
34.3304
45308.5
9.98695e+06
42.2008
75665
9.97602e+06
42.2212
106702
9.96167e+06
41.9874
138307
9.94379e+06
43.0197
171261
9.92239e+06
44.4994
204966
9.8968e+06
46.6959
240309
9.86708e+06
49.9599
276862
9.83331e+06
53.9664
315165
9.79476e+06
59.0555
355161
9.75155e+06
66.063
396923
9.70357e+06
75.7195
440501
9.65068e+06
90.1977
485995
9.59323e+06
108.082
533054
9.53151e+06
151.353
581865
9.46633e+06
185.631
631849
9.39893e+06
285.798
683242
9.32755e+06
-0.125109
735411
9.25051e+06
-536.204
789202
9.16427e+06
-936.827
847796
9.06736e+06
-332.072
920790
8.94217e+06
489.187
1.00758e+06
8.78699e+06
-3877.12
1.11114e+06
8.61268e+06
-10488.2
1.24716e+06
8.41554e+06
-12752.6
1.41155e+06
8.17647e+06
-2434.74
1.55626e+06
7.86812e+06
10071.4
1.68367e+06
7.52406e+06
13041.7
1.76817e+06
7.19843e+06
4324.73
1.77539e+06
6.93449e+06
4184.91
1.66825e+06
6.71468e+06
7969.88
1.53949e+06
6.51058e+06
7149.74
1.4612e+06
6.30439e+06
61509.6
1.47202e+06
5.16478e+06
242420
1.83904e+06
4.09097e+06
294344
1.50943e+06
3.58282e+06
254200
1.15755e+06
3.42583e+06
215412
817287
3.32824e+06
198230
590128
3.22821e+06
173216
386922
3.12524e+06
145267
164435
3.12136e+06
146047
559.007
3.1583e+06
154359
-103925
3.21506e+06
157298
-203797
3.30245e+06
156396
-308179
3.42698e+06
153093
-407784
3.58884e+06
146493
-500197
3.78442e+06
136728
-584845
4.00849e+06
124277
-660155
4.25458e+06
110468
-724751
4.51804e+06
95444.6
-778405
4.79266e+06
80886.6
-822666
5.08646e+06
65241.2
-854513
45387.2
-888188
9.99907e+06
15283
9.99459e+06
45307.8
9.98694e+06
75661.3
9.97601e+06
106697
9.96166e+06
138303
9.94378e+06
171256
9.92238e+06
204961
9.89679e+06
240303
9.86706e+06
276856
9.83329e+06
315160
9.79475e+06
355156
9.75155e+06
396916
9.70357e+06
440493
9.65069e+06
485984
9.59326e+06
533040
9.53157e+06
581827
9.46649e+06
631802
9.39853e+06
683064
9.32675e+06
735353
9.2498e+06
789448
9.16529e+06
849226
9.07152e+06
919859
8.95453e+06
1.01646e+06
8.79728e+06
1.11641e+06
8.60029e+06
1.24137e+06
8.37452e+06
1.39119e+06
8.10694e+06
1.54566e+06
7.82998e+06
1.65941e+06
7.55272e+06
1.73097e+06
7.26151e+06
1.7539e+06
6.97954e+06
1.69911e+06
6.74416e+06
1.5742e+06
6.5272e+06
1.47285e+06
6.31329e+06
1.49069e+06
6.28148e+06
1.67079e+06
6.04222e+06
1.74866e+06
5.60029e+06
1.52941e+06
5.1793e+06
1.17841e+06
4.861e+06
886609
4.60657e+06
647578
4.43405e+06
452144
4.35904e+06
299567
4.33898e+06
170302
4.3525e+06
60415.6
4.39518e+06
-33124.7
4.4656e+06
-113246
4.56014e+06
-181940
4.67469e+06
-241073
4.80511e+06
-291820
4.94787e+06
-336125
5.10116e+06
-372894
5.26661e+06
-405068
5.43712e+06
-423206
-443186
9.99912e+06
12.0154
16761.9
9.99498e+06
34.0994
49687.6
9.98787e+06
41.5846
82997.6
9.9777e+06
41.3718
117094
9.96433e+06
40.9804
151887
9.94764e+06
41.8552
188181
9.92743e+06
43.2127
225417
9.9036e+06
45.3209
264395
9.8756e+06
48.4705
305124
9.84347e+06
52.3754
347577
9.80706e+06
57.2772
391868
9.76576e+06
63.9908
438569
9.71957e+06
73.2697
487084
9.66872e+06
85.3209
537309
9.61298e+06
100.289
589335
9.55295e+06
121.047
642498
9.48895e+06
139.863
696538
9.42219e+06
164.908
750838
9.35345e+06
112.685
805190
9.28297e+06
19.7623
860993
9.21096e+06
-101.157
921323
9.13816e+06
338.803
994798
9.05564e+06
1322.47
1.09052e+06
8.93913e+06
7006.64
1.22228e+06
8.78631e+06
3374.35
1.39752e+06
8.62477e+06
-3939.35
1.57748e+06
8.43998e+06
-5708.67
1.7482e+06
8.1957e+06
-878.631
1.93117e+06
7.8807e+06
12573.7
2.07322e+06
7.49411e+06
20730.1
2.14402e+06
7.07159e+06
17400.8
2.07556e+06
6.6897e+06
4026.35
1.91882e+06
6.39278e+06
-1767.48
1.76008e+06
6.18177e+06
1363.15
1.68007e+06
6.07443e+06
88044.9
1.85312e+06
5.6076e+06
105601
1.86638e+06
5.0277e+06
77259.5
1.65593e+06
4.49486e+06
67118.9
1.27714e+06
4.09887e+06
69049
909739
3.84385e+06
63114.7
571958
3.69915e+06
44100.6
259014
3.67094e+06
27829.9
-4276.73
3.75271e+06
19148.8
-210122
3.91399e+06
9799
-380804
4.13031e+06
-2196.36
-528134
4.38306e+06
-14699.5
-651232
4.65421e+06
-26081.7
-749815
4.93028e+06
-37092.8
-827069
5.20212e+06
-47975.9
-886052
5.46346e+06
-58367
-929298
5.70933e+06
-67738.1
-958331
5.93945e+06
-77838.9
-977460
6.15415e+06
-86529.9
-984927
-101983
-980869
9.99914e+06
16760.6
9.99498e+06
49683.6
9.98786e+06
82993.5
9.97769e+06
117090
9.96432e+06
151882
9.94763e+06
188176
9.92742e+06
225411
9.90358e+06
264389
9.87558e+06
305118
9.84345e+06
347571
9.80705e+06
391862
9.76575e+06
438562
9.71957e+06
487076
9.66873e+06
537298
9.61298e+06
589321
9.55296e+06
642475
9.48897e+06
696512
9.42211e+06
750777
9.35323e+06
805142
9.28262e+06
860970
9.21107e+06
921647
9.13847e+06
993886
9.06624e+06
1.09123e+06
8.97286e+06
1.21819e+06
8.82843e+06
1.39037e+06
8.64055e+06
1.57608e+06
8.39283e+06
1.78896e+06
8.09546e+06
1.95687e+06
7.79037e+06
2.04962e+06
7.4782e+06
2.08825e+06
7.12932e+06
2.0672e+06
6.75125e+06
1.95779e+06
6.38393e+06
1.83831e+06
6.08717e+06
1.78691e+06
6.0266e+06
1.81677e+06
6.03938e+06
1.83915e+06
5.94631e+06
1.69743e+06
5.76125e+06
1.42754e+06
5.57136e+06
1.14213e+06
5.40963e+06
869294
5.29143e+06
611601
5.23063e+06
385366
5.22228e+06
194797
5.25574e+06
33704
5.32088e+06
-103486
5.41054e+06
-220338
5.51964e+06
-319254
5.64216e+06
-402012
5.77141e+06
-469626
5.90223e+06
-525720
6.02863e+06
-567792
6.1547e+06
-610404
6.26189e+06
-618206
-676045
9.9992e+06
10.6936
18104
9.99543e+06
30.2366
53676.9
9.98895e+06
37.1033
89687.8
9.97965e+06
37.0064
126588
9.96742e+06
36.6259
164317
9.95209e+06
37.4109
203717
9.93348e+06
38.6703
244249
9.91135e+06
40.6828
286763
9.88542e+06
43.6795
331305
9.85539e+06
47.4407
377864
9.82095e+06
51.9382
426580
9.78191e+06
58.1417
477927
9.7379e+06
66.2608
531473
9.68859e+06
76.4978
587043
9.63425e+06
88.5846
644161
9.57496e+06
101.785
702327
9.51164e+06
119.968
760484
9.44542e+06
134.524
817763
9.37856e+06
153.86
872896
9.31429e+06
102.671
926275
9.25707e+06
97.338
979678
9.20978e+06
-271.994
1.04373e+06
9.17097e+06
371.019
1.13023e+06
9.12196e+06
7942.82
1.26515e+06
9.02212e+06
15662.6
1.48315e+06
8.86467e+06
10968.7
1.72493e+06
8.65049e+06
-207.283
1.96383e+06
8.41157e+06
-4204.92
2.17536e+06
8.15136e+06
1864.07
2.33273e+06
7.85039e+06
9338.63
2.43712e+06
7.45543e+06
7054.51
2.46541e+06
6.96494e+06
1371.83
2.40983e+06
6.47535e+06
2471.03
2.24782e+06
6.05766e+06
-6539.08
2.10201e+06
5.88321e+06
7893.76
2.01681e+06
5.76788e+06
14985.1
1.96471e+06
5.59854e+06
23686.3
1.79962e+06
5.35545e+06
21592.2
1.49539e+06
5.12564e+06
7747.02
1.12767e+06
4.96625e+06
-17752.7
744834
4.89446e+06
-49484.6
376094
4.90906e+06
-77323.5
54204.6
4.99639e+06
-96604.9
-204830
5.13283e+06
-111887
-408698
5.29671e+06
-123836
-571067
5.47242e+06
-131513
-697644
5.64832e+06
-135278
-791401
5.81649e+06
-137257
-857481
5.97262e+06
-139146
-901618
6.11635e+06
-142461
-929194
6.24496e+06
-145577
-940522
6.36765e+06
-154999
-945574
6.4655e+06
-153938
-930246
-181776
-930083
9.99922e+06
18104.4
9.99542e+06
53676.2
9.98894e+06
89683.5
9.97964e+06
126583
9.96741e+06
164311
9.95208e+06
203711
9.93347e+06
244243
9.91134e+06
286757
9.8854e+06
331299
9.85537e+06
377858
9.82094e+06
426573
9.78191e+06
477920
9.73789e+06
531465
9.68859e+06
587033
9.63425e+06
644149
9.57497e+06
702311
9.51165e+06
760463
9.44543e+06
817728
9.37853e+06
872881
9.31417e+06
926203
9.25655e+06
980236
9.20846e+06
1.04266e+06
9.172e+06
1.12922e+06
9.13841e+06
1.26093e+06
9.0738e+06
1.4716e+06
8.92736e+06
1.73453e+06
8.71203e+06
2.00464e+06
8.44539e+06
2.21987e+06
8.14009e+06
2.35756e+06
7.80623e+06
2.43248e+06
7.42878e+06
2.45308e+06
6.98249e+06
2.40654e+06
6.5076e+06
2.31572e+06
6.07294e+06
2.21354e+06
5.78502e+06
2.11083e+06
5.65652e+06
1.98137e+06
5.60298e+06
1.77319e+06
5.56111e+06
1.4891e+06
5.53438e+06
1.17434e+06
5.52863e+06
854786
5.54117e+06
547100
5.57436e+06
272472
5.6287e+06
41575.9
5.69836e+06
-149998
5.77898e+06
-309698
5.86553e+06
-439445
5.95208e+06
-541157
6.03289e+06
-619155
6.10444e+06
-678934
6.16737e+06
-730044
6.22579e+06
-771537
6.29747e+06
-837635
6.36908e+06
-843834
-1.05264e+06
9.99929e+06
10.3483
19303.8
9.99594e+06
30.0133
57228.6
9.99018e+06
36.5152
95645.4
9.98189e+06
36.2045
135062
9.97095e+06
35.6853
175438
9.9572e+06
36.3299
217659
9.94022e+06
37.5158
261434
9.92014e+06
39.5145
307062
9.89668e+06
42.5481
355001
9.86905e+06
46.282
405725
9.8369e+06
50.6924
458994
9.8002e+06
56.4796
514925
9.75823e+06
63.9053
573786
9.71088e+06
73.057
634785
9.65747e+06
83.2289
698021
9.59835e+06
94.5592
761942
9.53395e+06
107.692
825436
9.4661e+06
119.364
886240
9.39801e+06
139.55
941718
9.33594e+06
116.726
989242
9.28899e+06
164.007
1.02765e+06
9.26868e+06
290.575
1.06471e+06
9.27782e+06
1171.34
1.12095e+06
9.31654e+06
3084.48
1.22485e+06
9.29739e+06
9637.3
1.49419e+06
9.14294e+06
9684.32
1.87092e+06
8.88947e+06
1439.81
2.216e+06
8.60259e+06
-2897.11
2.4653e+06
8.30681e+06
-1894.95
2.63079e+06
7.99905e+06
528.627
2.74502e+06
7.65042e+06
-924.755
2.81621e+06
7.2354e+06
-5035.02
2.83147e+06
6.73829e+06
-14444.6
2.75989e+06
6.22677e+06
-19505.7
2.63183e+06
5.80647e+06
-17348.2
2.45242e+06
5.54617e+06
-8360.86
2.23161e+06
5.39554e+06
1574.1
1.94737e+06
5.29213e+06
3535.73
1.59433e+06
5.22858e+06
-4853.21
1.19458e+06
5.21596e+06
-23023.2
778198
5.25243e+06
-45607.5
382442
5.32667e+06
-66435.3
43075
5.42547e+06
-82208.1
-225030
5.53864e+06
-93139.2
-432146
5.65741e+06
-99729.3
-592330
5.77436e+06
-104006
-711033
5.88445e+06
-108000
-792268
5.98607e+06
-114159
-842647
6.0803e+06
-123743
-869634
6.17296e+06
-137846
-881673
6.26655e+06
-150804
-881770
6.38013e+06
-171444
-886493
6.47643e+06
-157907
-866619
-202078
-905601
9.9993e+06
19302.2
9.99594e+06
57224.1
9.99017e+06
95640.6
9.98188e+06
135057
9.97094e+06
175433
9.95719e+06
217652
9.94021e+06
261427
9.92013e+06
307056
9.89666e+06
354995
9.86904e+06
405718
9.83689e+06
458987
9.80019e+06
514917
9.75823e+06
573776
9.71088e+06
634772
9.65747e+06
698006
9.59835e+06
761924
9.53395e+06
825416
9.4661e+06
886214
9.39801e+06
941712
9.33586e+06
989186
9.28879e+06
1.02831e+06
9.26893e+06
1.06378e+06
9.28406e+06
1.11601e+06
9.32458e+06
1.22406e+06
9.31257e+06
1.49441e+06
9.17014e+06
1.88672e+06
8.93728e+06
2.23921e+06
8.66449e+06
2.48982e+06
8.36491e+06
2.6554e+06
8.03226e+06
2.76611e+06
7.65671e+06
2.82859e+06
7.22377e+06
2.83535e+06
6.74051e+06
2.78449e+06
6.25147e+06
2.68205e+06
5.818e+06
2.52558e+06
5.48959e+06
2.30036e+06
5.27035e+06
1.99368e+06
5.14438e+06
1.61815e+06
5.10348e+06
1.2095e+06
5.13578e+06
798123
5.21309e+06
422286
5.30989e+06
106649
5.41181e+06
-145436
5.51154e+06
-345287
5.60282e+06
-502057
5.68047e+06
-621027
5.74684e+06
-714110
5.81396e+06
-798390
5.90288e+06
-889746
6.03817e+06
-1.00178e+06
6.25288e+06
-1.13585e+06
6.56014e+06
-1.31484e+06
7.00394e+06
-1.44428e+06
-1.83227e+06
9.99939e+06
8.85874
20327.9
9.99652e+06
25.6216
60278
9.99157e+06
31.3546
100774
9.98442e+06
31.1136
142374
9.97475e+06
30.5611
185274
9.96297e+06
31.066
229607
9.94827e+06
32.1078
276315
9.93057e+06
33.9247
324963
9.90931e+06
36.7398
376471
9.88449e+06
40.0951
430760
9.85543e+06
44.0653
488295
9.82138e+06
48.861
549239
9.78202e+06
55.1409
613452
9.73626e+06
62.4087
680881
9.68383e+06
70.5926
750840
9.62405e+06
79.9802
822151
9.55681e+06
88.6936
893145
9.48336e+06
104.925
960229
9.40733e+06
110.299
1.01839e+06
9.33742e+06
183.177
1.05993e+06
9.29006e+06
260.907
1.07577e+06
9.28773e+06
1557.51
1.06707e+06
9.37211e+06
3486.75
1.03415e+06
9.5689e+06
4638.49
1.02489e+06
9.62963e+06
10445.8
1.42465e+06
9.45235e+06
8815.85
2.03915e+06
9.14533e+06
804.887
2.52118e+06
8.79724e+06
-2242.39
2.81504e+06
8.44963e+06
575.384