/*--------------------------------*- C++ -*----------------------------------*\
| =========                 |                                                 |
| \\      /  F ield         | OpenFOAM: The Open Source CFD Toolbox           |
|  \\    /   O peration     | Version:  4.1                                   |
|   \\  /    A nd           | Web:      www.OpenFOAM.org                      |
|    \\/     M anipulation  |                                                 |
\*---------------------------------------------------------------------------*/
FoamFile
{
    version     2.0;
    format      ascii;
    class       volVectorField;
    location    "92";
    object      U;
}
// * * * * * * * * * * * * * * * * * * * * * * * * * * * * * * * * * * * * * //

dimensions      [0 1 -1 0 0 0 0];

internalField   nonuniform List<vector> 
4432
(
(39.9818 2.03896e-05 0.0498505)
(39.9196 0.000106066 0.088504)
(39.8248 0.000178203 0.11567)
(39.6943 0.000204196 0.14181)
(39.5281 0.000210252 0.169198)
(39.3269 0.00023636 0.198083)
(39.0899 0.000269232 0.22871)
(38.8157 0.000280379 0.260517)
(38.5027 0.000278409 0.293449)
(38.1505 0.000263941 0.326922)
(37.7593 0.00025265 0.359094)
(37.3307 0.000296777 0.390498)
(36.8685 0.000110427 0.414902)
(36.3892 1.05258e-05 0.432437)
(35.8968 -0.00280515 0.42417)
(35.504 -0.00685512 0.370216)
(35.1753 -0.00589424 0.415393)
(35.0554 -0.00345838 0.333907)
(35.1385 -0.00170422 0.252358)
(35.1104 0.00202425 0.395017)
(34.8768 -0.00127855 0.496984)
(34.5216 -0.0112178 0.620155)
(34.0604 -0.0217197 0.695023)
(33.5315 -0.0307455 0.684919)
(32.9366 -0.037778 0.668404)
(32.2989 -0.0435185 0.548016)
(31.7006 -0.0402855 0.357085)
(31.1654 -0.0271611 0.159065)
(30.7244 -0.0204279 0.094683)
(30.356 -0.0285793 0.141586)
(29.9901 -0.0511701 0.316345)
(29.5292 -0.0776284 0.636844)
(28.8807 -0.0877554 0.821258)
(28.1076 -0.0638418 0.528741)
(27.4541 -0.0221385 -0.178314)
(26.9254 0.00707306 -0.562226)
(26.4797 0.0179379 -0.502914)
(26.0275 0.0160265 -0.420402)
(25.616 0.00944731 -0.346366)
(25.3246 0.00467769 -0.273032)
(25.1692 0.00536011 -0.283019)
(25.0601 0.0119887 -0.392038)
(24.9753 0.0173482 -0.391264)
(24.9231 0.023353 -0.374137)
(24.916 0.0298108 -0.385233)
(24.9656 0.031757 -0.394189)
(25.0714 0.0320179 -0.394458)
(25.2113 0.0361635 -0.386105)
(25.3959 0.044059 -0.369249)
(25.5915 0.0611499 -0.397403)
(25.8863 0.0552824 -0.304854)
(26.1959 0.0319417 -0.191854)
(26.4155 0.0206971 -0.219061)
(26.8052 0.0257616 -0.177633)
(39.9819 2.0389e-05 0.0498527)
(39.9197 0.000106066 0.0885182)
(39.8248 0.000178184 0.115768)
(39.6942 0.000204204 0.141879)
(39.528 0.000210258 0.169175)
(39.3269 0.00023634 0.19807)
(39.0898 0.000269222 0.228602)
(38.8156 0.000280546 0.260336)
(38.5026 0.000278195 0.293269)
(38.1505 0.000263068 0.326609)
(37.7592 0.000251663 0.359028)
(37.3306 0.000295615 0.390296)
(36.8686 0.000109802 0.415896)
(36.3839 7.36846e-06 0.43277)
(35.8943 -0.00278913 0.431244)
(35.4536 -0.00692137 0.380582)
(35.1191 -0.00597392 0.365821)
(35.0384 -0.00349043 0.289609)
(35.1265 -0.00169557 0.244528)
(35.1271 0.00192422 0.406412)
(34.896 -0.00139125 0.483311)
(34.5389 -0.0112921 0.53794)
(34.0886 -0.0218375 0.577446)
(33.557 -0.0311518 0.569418)
(32.944 -0.0385855 0.559276)
(32.272 -0.0452647 0.429064)
(31.6182 -0.0437359 0.251867)
(31.0398 -0.031384 0.134013)
(30.5415 -0.0251569 0.0687785)
(30.0894 -0.0353306 -0.0131577)
(29.7148 -0.0592393 -0.109891)
(29.3098 -0.091458 -0.091591)
(28.7886 -0.10628 0.147131)
(28.0488 -0.0854593 0.367695)
(27.3331 -0.0391968 0.170584)
(26.67 -0.0069591 -0.101377)
(26.1197 0.0071915 -0.0678671)
(25.5904 0.00781155 -0.107397)
(25.1235 0.00373768 -0.108767)
(24.7437 0.00249854 -0.0772279)
(24.513 0.0051892 -0.0723343)
(24.3341 0.0125496 -0.12022)
(24.1881 0.0196579 -0.112598)
(24.0863 0.0270857 -0.12746)
(24.0637 0.0345329 -0.150967)
(24.1158 0.0378858 -0.197109)
(24.2356 0.038087 -0.165155)
(24.4297 0.0412965 -0.113003)
(24.6542 0.0517095 -0.0717926)
(24.863 0.0697051 -0.118808)
(25.3802 0.0475679 -0.209477)
(25.7684 0.0243636 -0.189926)
(26.0396 0.0130998 -0.216983)
(26.5027 0.0200132 -0.124307)
(40.0073 1.82731e-05 0.0170184)
(40.0325 9.58811e-05 0.0528734)
(40.0591 0.000161625 0.0898762)
(40.0824 0.000179966 0.127236)
(40.1031 0.000187516 0.165153)
(40.1224 0.000218777 0.204141)
(40.14 0.000261586 0.24446)
(40.1549 0.000289443 0.286207)
(40.1656 0.000288799 0.329425)
(40.171 0.000285725 0.373959)
(40.1696 0.000293918 0.419277)
(40.1579 0.000258763 0.463634)
(40.1321 0.000435148 0.504666)
(40.0751 0.000338735 0.532575)
(39.988 0.0038157 0.552944)
(39.7341 0.00584184 0.526493)
(39.4405 0.0075505 0.409353)
(38.776 0.0073665 0.331966)
(37.8535 -0.00067625 0.371899)
(37.0757 -0.0027605 0.429168)
(36.4077 7.86204e-05 0.498791)
(35.8156 0.00357789 0.587336)
(35.3028 0.00683596 0.678947)
(34.8089 0.00965355 0.779239)
(34.3312 0.0111341 0.858961)
(33.86 0.0125591 0.87907)
(33.3782 0.0142807 0.852097)
(32.8602 0.0205694 0.818227)
(32.2544 0.0335808 0.778127)
(31.6359 0.0400757 0.727932)
(31.0277 0.0418301 0.724294)
(30.4206 0.039345 0.833903)
(29.9056 0.031868 0.919053)
(29.5194 0.0159949 0.896422)
(29.1884 -0.0110058 0.864631)
(28.8663 -0.0492135 0.95506)
(28.5703 -0.0866756 1.02695)
(28.2693 -0.108637 1.01267)
(27.9366 -0.104996 0.894974)
(27.591 -0.0831602 0.675295)
(27.2748 -0.0786468 0.480568)
(27.1114 -0.0972711 0.402678)
(26.9658 -0.11301 0.350121)
(26.825 -0.126338 0.273251)
(26.7611 -0.136728 0.183983)
(26.7765 -0.142807 0.101638)
(26.8413 -0.150259 0.0362257)
(26.9452 -0.15379 -0.0264632)
(27.0162 -0.151871 -0.068381)
(27.1517 -0.198298 -0.0760593)
(27.2546 -0.162332 -0.269855)
(27.435 -0.124258 -0.365981)
(27.6886 -0.0895991 -0.396942)
(28.0348 -0.0530958 -0.400675)
(40.0073 1.82731e-05 0.0170152)
(40.0326 9.58813e-05 0.0528574)
(40.0591 0.000161626 0.0898534)
(40.0824 0.000179967 0.127205)
(40.1031 0.000187517 0.165122)
(40.1224 0.000218785 0.204113)
(40.1401 0.000261572 0.244438)
(40.1549 0.000289529 0.286178)
(40.1655 0.00028848 0.329405)
(40.1707 0.000284732 0.37391)
(40.1695 0.000291273 0.4192)
(40.1578 0.000262003 0.463759)
(40.1317 0.000412796 0.504465)
(40.0796 0.000423282 0.535554)
(39.988 0.00343356 0.545946)
(39.8052 0.0056781 0.516252)
(39.4964 0.00812328 0.427355)
(38.8144 0.00757726 0.322124)
(37.8707 -0.000677358 0.355857)
(37.0699 -0.00258805 0.420025)
(36.4201 0.000180199 0.479265)
(35.8328 0.00371888 0.557079)
(35.3203 0.00711226 0.634522)
(34.8351 0.0103006 0.719319)
(34.3685 0.0121558 0.791612)
(33.9204 0.0145402 0.809837)
(33.4558 0.0182383 0.815194)
(32.9455 0.0242227 0.820596)
(32.4094 0.0340897 0.778334)
(31.8872 0.0456313 0.68951)
(31.3124 0.0579396 0.64967)
(30.6415 0.0680006 0.736419)
(29.9984 0.0561291 0.802624)
(29.5586 0.0314401 0.813471)
(29.2419 -0.00614128 0.79987)
(29.0249 -0.050276 0.849785)
(28.8304 -0.090137 0.893954)
(28.635 -0.112677 0.883636)
(28.4069 -0.114663 0.802037)
(28.2391 -0.103531 0.647146)
(28.0681 -0.0972712 0.469759)
(28.0011 -0.107012 0.37435)
(27.9221 -0.120059 0.311551)
(27.8422 -0.128701 0.23102)
(27.7955 -0.136011 0.136481)
(27.8072 -0.139679 0.0504764)
(27.8593 -0.144766 -0.0168976)
(27.9047 -0.150227 -0.0899531)
(27.9327 -0.163238 -0.157116)
(27.9836 -0.189646 -0.207141)
(27.7118 -0.119036 -0.396161)
(27.8526 -0.0975263 -0.505588)
(28.0915 -0.0696535 -0.51193)
(28.3697 -0.0346696 -0.524682)
(39.9993 1.71143e-05 0.0240348)
(39.9897 9.03597e-05 0.0689377)
(39.9634 0.000157564 0.110784)
(39.919 0.000176336 0.151062)
(39.858 0.000182136 0.191078)
(39.782 0.000211613 0.231749)
(39.6911 0.000249985 0.273623)
(39.5848 0.000267951 0.317059)
(39.463 0.000260948 0.362355)
(39.326 0.000249774 0.409641)
(39.1739 0.000247756 0.458854)
(39.0065 0.000287757 0.509682)
(38.8218 0.00035845 0.5618)
(38.6193 0.000709132 0.614581)
(38.3834 0.00097923 0.671196)
(38.1552 0.00240096 0.741095)
(37.8226 0.00292443 0.784344)
(37.4821 0.00448869 0.896209)
(37.1359 0.00220514 1.05851)
(36.7416 0.00169715 1.16561)
(36.2955 0.00280375 1.21211)
(35.8292 0.00482762 1.23102)
(35.3742 0.00757471 1.26063)
(34.9173 0.0117067 1.30378)
(34.4558 0.0140554 1.34619)
(33.9823 0.017721 1.34411)
(33.4598 0.0247588 1.30425)
(32.8615 0.0349679 1.28631)
(32.1658 0.0437721 1.22998)
(31.4221 0.0399157 1.19407)
(30.6055 0.0352423 1.29688)
(29.7662 0.0410478 1.45558)
(29.0464 0.0611529 1.51138)
(28.3655 0.0924879 1.42135)
(27.7462 0.109297 1.11434)
(27.4586 0.0271576 1.0378)
(27.102 -0.0573648 1.09265)
(26.7084 -0.0862813 1.00756)
(26.2513 -0.0778956 0.909542)
(25.9524 -0.0387791 0.628061)
(25.7997 -0.0507136 0.488251)
(25.7465 -0.0913267 0.495646)
(25.6812 -0.11473 0.392162)
(25.6014 -0.120886 0.221705)
(25.5916 -0.123042 0.0603659)
(25.658 -0.121483 -0.074954)
(25.7618 -0.122733 -0.180237)
(25.9166 -0.122082 -0.272422)
(26.0984 -0.130846 -0.289204)
(26.4449 -0.107905 -0.478523)
(26.72 -0.0537632 -0.531127)
(26.9005 -0.0379668 -0.479519)
(27.0387 -0.0379129 -0.478648)
(27.3484 -0.0416522 -0.559215)
(39.9993 1.71143e-05 0.0240333)
(39.9897 9.036e-05 0.0689299)
(39.9634 0.000157565 0.110775)
(39.9189 0.000176337 0.151053)
(39.858 0.000182139 0.191066)
(39.782 0.000211616 0.231735)
(39.691 0.000249993 0.273605)
(39.5847 0.000267953 0.31703)
(39.4629 0.000260977 0.362326)
(39.3259 0.000249647 0.409605)
(39.1738 0.000247256 0.45882)
(39.0065 0.000287427 0.509696)
(38.8224 0.000357276 0.561724)
(38.619 0.000710221 0.614506)
(38.3895 0.000977367 0.66881)
(38.1344 0.00236831 0.73364)
(37.8332 0.00259492 0.802825)
(37.4883 0.00475015 0.901317)
(37.1344 0.00232866 1.05228)
(36.7472 0.00176524 1.15229)
(36.3083 0.00290843 1.19363)
(35.8489 0.0050113 1.20498)
(35.4017 0.00796294 1.22444)
(34.9464 0.0127389 1.2782)
(34.479 0.0156207 1.3266)
(34.0046 0.0199217 1.33044)
(33.4829 0.0280059 1.32189)
(32.9043 0.0391369 1.32722)
(32.2762 0.0490592 1.29783)
(31.5781 0.0510989 1.24314)
(30.7236 0.0453015 1.33817)
(29.8777 0.0479998 1.49454)
(29.1571 0.0721949 1.50088)
(28.5801 0.0980405 1.30872)
(28.1353 0.0901728 1.05224)
(27.7954 0.035277 0.84514)
(27.4811 -0.0193245 0.702208)
(27.131 -0.0484895 0.577178)
(26.769 -0.0452837 0.444505)
(26.5157 -0.0163024 0.211712)
(26.2829 -0.0277641 0.137841)
(26.2064 -0.0597062 0.100098)
(26.1152 -0.0799347 -0.0230103)
(26.0082 -0.0891176 -0.18193)
(25.9688 -0.0934538 -0.33474)
(26.012 -0.0929518 -0.46243)
(26.0933 -0.0928696 -0.565187)
(26.214 -0.0930795 -0.614503)
(26.3634 -0.0973876 -0.680408)
(26.6261 -0.0768178 -0.785107)
(26.8494 -0.0466732 -0.68228)
(27.0196 -0.0360504 -0.581131)
(27.18 -0.034062 -0.517701)
(27.4482 -0.0359855 -0.705726)
(39.999 1.68095e-05 0.0302938)
(39.9883 8.80881e-05 0.0892797)
(39.9619 0.000152856 0.148092)
(39.9185 0.0001706 0.208011)
(39.8587 0.000175086 0.269556)
(39.7829 0.000203554 0.333046)
(39.6906 0.000241391 0.398683)
(39.5807 0.000259965 0.466602)
(39.4519 0.000255511 0.536925)
(39.3038 0.000246471 0.609696)
(39.1354 0.000248593 0.684903)
(38.9455 0.000285472 0.762605)
(38.7321 0.000325885 0.843022)
(38.4934 0.000510092 0.927396)
(38.2245 0.000551251 1.01843)
(37.9331 0.00169885 1.12009)
(37.6011 0.0018692 1.25674)
(37.1976 0.00162145 1.32432)
(36.8369 0.00184905 1.38473)
(36.5 0.00275744 1.46879)
(36.142 0.00381993 1.55504)
(35.7579 0.00417345 1.61299)
(35.3376 0.00426734 1.67039)
(34.863 0.00529061 1.74214)
(34.3567 0.00431056 1.82605)
(33.8133 0.00406249 1.87477)
(33.1748 0.00871428 1.91622)
(32.4406 0.0147537 2.01141)
(31.5972 0.0135138 2.10408)
(30.5684 0.0120075 2.18478)
(29.486 0.0140307 2.32575)
(28.5609 0.0223305 2.37492)
(27.7636 0.0410046 2.2708)
(27.0811 0.068228 1.89237)
(26.8527 0.0695773 1.2885)
(26.8235 -0.0188882 1.40361)
(26.5608 -0.0908367 1.64904)
(26.085 -0.114022 1.63674)
(25.4648 -0.0935784 1.36784)
(25.0843 -0.0326375 0.819433)
(24.8793 -0.0394739 0.623193)
(24.8534 -0.0685438 0.671762)
(24.7653 -0.0865933 0.613577)
(24.6897 -0.0819392 0.409977)
(24.71 -0.0732862 0.220952)
(24.8085 -0.0667999 0.0658212)
(24.9424 -0.0639117 -0.0705979)
(25.1172 -0.0543476 -0.174461)
(25.3206 -0.0549982 -0.31404)
(25.5812 -0.0693389 -0.458206)
(25.9918 -0.067283 -0.56158)
(26.3041 -0.0620598 -0.608951)
(26.5347 -0.0564813 -0.672939)
(26.9766 -0.0376278 -0.757148)
(39.999 1.68095e-05 0.0302934)
(39.9883 8.80883e-05 0.0892782)
(39.9619 0.000152856 0.148087)
(39.9184 0.000170601 0.208004)
(39.8586 0.000175089 0.269546)
(39.7829 0.000203557 0.333034)
(39.6906 0.000241396 0.398671)
(39.5806 0.000259971 0.46659)
(39.4518 0.000255518 0.536916)
(39.3037 0.000246486 0.609687)
(39.1353 0.000248589 0.684899)
(38.9455 0.000285555 0.762581)
(38.7323 0.000325481 0.842968)
(38.4933 0.000512101 0.927072)
(38.2264 0.000551387 1.01784)
(37.9313 0.00172191 1.11926)
(37.6145 0.00176117 1.25198)
(37.2083 0.0015809 1.35203)
(36.8421 0.00180959 1.38935)
(36.508 0.00279701 1.45734)
(36.1519 0.00398567 1.53584)
(35.7682 0.00446536 1.58814)
(35.334 0.00446111 1.6465)
(34.8502 0.00507619 1.75133)
(34.3543 0.00415866 1.83677)
(33.8045 0.00391732 1.89926)
(33.1446 0.00979727 2.00041)
(32.3985 0.0167968 2.13492)
(31.5697 0.0153679 2.24235)
(30.5606 0.0136086 2.31556)
(29.5305 0.0145879 2.39376)
(28.6615 0.021542 2.43956)
(27.9104 0.0389558 2.40929)
(27.2263 0.0764203 2.15116)
(26.8975 0.0886024 1.56159)
(26.7775 -0.00894343 1.28069)
(26.5342 -0.0949843 1.1996)
(26.1646 -0.156758 1.10008)
(25.7353 -0.167689 0.993495)
(25.3536 -0.0903193 0.59273)
(25.1388 -0.0447852 0.371558)
(25.0424 -0.0597611 0.337976)
(24.9234 -0.0673293 0.187412)
(24.8144 -0.0629001 -0.0161125)
(24.8115 -0.0548078 -0.197038)
(24.8914 -0.0497988 -0.353883)
(25.0291 -0.0466859 -0.490266)
(25.2114 -0.0424082 -0.605855)
(25.417 -0.0324872 -0.700639)
(25.7111 -0.0431351 -0.810621)
(26.0577 -0.0603798 -0.853229)
(26.3518 -0.0690982 -0.863859)
(26.5773 -0.0768159 -0.92476)
(27.0828 -0.0578929 -1.00443)
(39.999 1.66997e-05 0.0374014)
(39.9885 8.89932e-05 0.111054)
(39.9626 0.000153414 0.185137)
(39.9201 0.000169636 0.26034)
(39.8616 0.000172673 0.336816)
(39.7877 0.00020013 0.41498)
(39.6979 0.000237566 0.495298)
(39.5911 0.000256081 0.578203)
(39.4662 0.000251784 0.664107)
(39.3227 0.00024099 0.753396)
(39.1598 0.000243126 0.846451)
(38.9764 0.000262539 0.943763)
(38.771 0.000315862 1.04607)
(38.5416 0.000364291 1.15489)
(38.2888 0.000603888 1.27232)
(38.0052 0.00066125 1.40304)
(37.7153 0.00216943 1.54956)
(37.3415 0.00406002 1.69391)
(36.9133 0.00376366 1.7669)
(36.5049 0.00409541 1.82731)
(36.1144 0.00559267 1.9094)
(35.7094 0.00462529 1.99459)
(35.2598 0.00208452 2.13572)
(34.7289 -0.000797601 2.27638)
(34.1457 -0.00724844 2.41012)
(33.4824 -0.0111425 2.53289)
(32.6662 -0.00557268 2.66709)
(31.7679 0.00167088 2.8906)
(30.7832 -6.21127e-05 3.13068)
(29.7018 -0.00158542 3.28094)
(28.6946 0.00355259 3.30183)
(27.8272 0.0170005 3.17862)
(27.0619 0.0390485 2.83878)
(26.492 0.0775795 2.07609)
(26.4863 0.11407 1.10764)
(26.3207 -0.045903 1.24796)
(26.1375 -0.276404 2.19322)
(25.4804 -0.41964 2.74839)
(24.7768 -0.42023 2.7105)
(24.283 -0.198239 1.6122)
(24.0255 -0.114407 0.939227)
(24.0835 -0.128535 0.829077)
(24.0218 -0.140914 0.633122)
(23.9976 -0.131317 0.325605)
(24.0576 -0.123279 0.0674467)
(24.1826 -0.119436 -0.149806)
(24.3401 -0.121531 -0.331114)
(24.5663 -0.118118 -0.533301)
(24.7556 -0.0916947 -0.699069)
(24.9875 -0.118236 -0.78296)
(25.2598 -0.134495 -0.924606)
(25.5564 -0.147145 -0.974746)
(25.8084 -0.163949 -0.982964)
(26.2056 -0.134144 -0.988163)
(39.999 1.66997e-05 0.0374006)
(39.9885 8.89934e-05 0.111051)
(39.9626 0.000153414 0.185129)
(39.92 0.000169638 0.26033)
(39.8616 0.000172676 0.336805)
(39.7877 0.000200138 0.414968)
(39.6979 0.000237579 0.495284)
(39.591 0.000256107 0.578189)
(39.4661 0.000251801 0.664094)
(39.3226 0.000241092 0.753382)
(39.1597 0.000242937 0.846437)
(38.9764 0.000263714 0.943735)
(38.771 0.000319278 1.04604)
(38.5419 0.000367933 1.15475)
(38.2885 0.000618847 1.27217)
(38.0083 0.000636196 1.40235)
(37.7094 0.00230381 1.54967)
(37.3669 0.00368309 1.70801)
(36.9545 0.00344745 1.77146)
(36.5348 0.00416144 1.82159)
(36.1338 0.0062212 1.90211)
(35.715 0.00602029 1.99605)
(35.2151 0.00216664 2.13325)
(34.6808 -0.00112189 2.2722)
(34.1136 -0.0074841 2.40362)
(33.4065 -0.0117288 2.556)
(32.5926 -0.00478308 2.75129)
(31.7421 0.00291998 2.99211)
(30.8026 0.000809633 3.19602)
(29.7711 -0.00157535 3.31553)
(28.7909 0.00259959 3.31652)
(27.9394 0.0154693 3.21934)
(27.2365 0.0346387 2.97417)
(26.746 0.0759978 2.39623)
(26.7205 0.155967 1.50426)
(26.7269 -0.0177329 1.20437)
(26.541 -0.350316 1.30625)
(26.0479 -0.553498 1.45583)
(25.4086 -0.661423 1.39488)
(24.8458 -0.564109 0.996197)
(24.5659 -0.212807 0.575551)
(24.5318 -0.131373 0.339575)
(24.4526 -0.112629 0.0590755)
(24.4145 -0.0991357 -0.242505)
(24.4793 -0.0939577 -0.49832)
(24.6303 -0.0960211 -0.720816)
(24.8246 -0.0996174 -0.916542)
(25.0492 -0.109661 -1.09989)
(25.2346 -0.10882 -1.19645)
(25.4811 -0.115031 -1.43883)
(25.5465 -0.0843541 -1.41285)
(25.7576 -0.0889925 -1.35765)
(25.9744 -0.0981372 -1.36596)
(26.3122 -0.0457681 -1.41827)
(39.999 1.6012e-05 0.0444999)
(39.9887 8.47105e-05 0.132161)
(39.9635 0.000145338 0.220506)
(39.9222 0.0001612 0.310424)
(39.8657 0.000165013 0.402195)
(39.7945 0.000192454 0.496403)
(39.7079 0.000228869 0.593644)
(39.6048 0.000246693 0.694425)
(39.4843 0.000242424 0.799211)
(39.3456 0.000232342 0.908446)
(39.1882 0.000234567 1.02257)
(39.0112 0.000254606 1.14209)
(38.8135 0.000298816 1.26777)
(38.5942 0.000344251 1.40068)
(38.3535 0.000472049 1.54261)
(38.0909 0.000590665 1.6963)
(37.8135 0.00138596 1.86282)
(37.5212 0.00364215 2.06029)
(37.1774 0.0062274 2.19734)
(36.7653 0.00677826 2.28437)
(36.3119 0.00728157 2.35589)
(35.7856 0.00341569 2.46221)
(35.2529 -0.00260823 2.63529)
(34.7189 -0.00802939 2.85711)
(34.0954 -0.0172826 3.10207)
(33.3321 -0.019926 3.36716)
(32.3449 -0.00940622 3.60389)
(31.3042 0.0051547 3.87397)
(30.2929 0.00776652 4.14428)
(29.2657 0.00608542 4.27133)
(28.2948 0.0113433 4.1991)
(27.4085 0.0304689 3.95362)
(26.52 0.0692896 3.46739)
(25.7539 0.190119 2.48421)
(25.5069 0.41159 1.46829)
(21.3447 0.0231266 2.88781)
(21.6997 -0.392934 2.77115)
(21.6531 -0.793139 2.51635)
(21.2824 -1.24543 2.62823)
(21.6977 -0.950219 1.20161)
(22.3001 -0.353479 0.972268)
(22.3655 -0.502541 1.36502)
(22.4494 -0.421821 1.01354)
(22.6519 -0.35047 0.60855)
(22.8716 -0.326135 0.276833)
(23.0679 -0.325867 -0.00483563)
(23.2789 -0.323979 -0.260027)
(23.4728 -0.336281 -0.484684)
(23.7257 -0.315895 -0.660992)
(23.9027 -0.289835 -0.815215)
(24.048 -0.259119 -0.940255)
(24.2032 -0.236503 -1.00843)
(24.3241 -0.226845 -1.03465)
(24.4535 -0.197198 -1.00243)
(39.9991 1.60106e-05 0.0444987)
(39.9888 8.47179e-05 0.132156)
(39.9635 0.000145309 0.220498)
(39.9222 0.000161326 0.310414)
(39.8657 0.000164467 0.402184)
(39.7944 0.000190788 0.496389)
(39.7078 0.000226945 0.593628)
(39.6047 0.000244732 0.694408)
(39.4842 0.000240471 0.799195)
(39.3455 0.000230481 0.908433)
(39.1881 0.000232549 1.02256)
(39.0111 0.000253522 1.14208)
(38.8135 0.000301825 1.26775)
(38.5943 0.0003482 1.40062)
(38.3535 0.000485062 1.54255)
(38.0921 0.000575602 1.69577)
(37.8139 0.00147269 1.86356)
(37.5291 0.00327648 2.04808)
(37.2168 0.00585367 2.20363)
(36.826 0.00707029 2.31411)
(36.3585 0.00849823 2.40902)
(35.8395 0.00484487 2.53869)
(35.2655 -0.00274503 2.67331)
(34.6834 -0.0081901 2.85869)
(34.0278 -0.0180031 3.08674)
(33.2191 -0.0199009 3.35671)
(32.2854 -0.00875435 3.61833)
(31.3497 0.00454329 3.91456)
(30.3803 0.00643792 4.15458)
(29.3623 0.00477526 4.26677)
(28.4073 0.0101241 4.20008)
(27.5696 0.0281418 3.99804)
(26.8456 0.0637199 3.60913)
(26.301 0.232221 2.8615)
(26.3799 0.798107 1.81541)
(27.0209 1.30972 0.660493)
(27.5958 1.25615 0.477905)
(27.2429 0.923202 0.701491)
(26.4002 0.585985 0.807625)
(25.9117 0.0699389 0.590232)
(24.4102 -0.267788 0.631152)
(24.276 -0.324479 0.435276)
(24.2595 -0.233143 0.0697394)
(24.2009 -0.156449 -0.283216)
(24.1374 -0.119191 -0.575628)
(24.0664 -0.0944648 -0.823807)
(23.9864 -0.062699 -1.04371)
(23.8923 -0.0304422 -1.23014)
(23.8196 0.00160239 -1.38667)
(23.7098 0.0672061 -1.52404)
(23.7539 0.144638 -1.55971)
(23.7466 0.214242 -1.57656)
(23.7419 0.263533 -1.56298)
(23.7421 0.364069 -1.54711)
(39.9991 1.55542e-05 0.0513539)
(39.9892 8.44467e-05 0.152532)
(39.965 0.000145025 0.254684)
(39.9255 0.000159676 0.358917)
(39.8715 0.000162121 0.465513)
(39.8034 0.0001879 0.575061)
(39.7205 0.000222881 0.688196)
(39.6217 0.000240265 0.805491)
(39.5059 0.000236498 0.927498)
(39.3725 0.00022755 1.05473)
(39.2209 0.00022908 1.1877)
(39.0504 0.00024946 1.32687)
(38.86 0.000287037 1.47285)
(38.6495 0.000341902 1.62634)
(38.4188 0.000403713 1.7883)
(38.1698 0.000573228 1.95992)
(37.9039 0.000816276 2.14153)
(37.63 0.0020167 2.3376)
(37.3418 0.0029186 2.52357)
(37.0182 0.00149434 2.70314)
(36.6348 0.000169541 2.86772)
(36.1664 -0.00104833 3.07623)
(35.5535 -0.00525346 3.24769)
(34.935 -0.0149756 3.4763)
(34.3042 -0.0272894 3.85527)
(33.5291 -0.032834 4.3254)
(32.4995 -0.0100895 4.71681)
(31.3341 0.0175158 4.94064)
(30.2199 0.0196527 5.1347)
(29.1267 0.0137459 5.23538)
(28.1086 0.0209399 5.15369)
(27.1699 0.0418334 4.87667)
(26.1028 0.096546 4.47446)
(25.3363 0.309565 3.84783)
(18.7317 0.281885 0.363147)
(18.3985 0.0213297 2.91084)
(18.5001 -0.207023 5.58176)
(18.152 -0.0861922 5.1989)
(17.8695 -0.182886 4.26935)
(17.3913 -0.508671 3.27638)
(18.9545 -0.518443 1.74251)
(19.1163 -0.425294 1.0842)
(19.2913 -0.283241 0.757679)
(19.6041 -0.195217 0.491753)
(19.8432 -0.146422 0.241115)
(19.9605 -0.100061 0.0149161)
(20.0145 -0.0473806 -0.200775)
(20.0261 0.0061515 -0.412148)
(20.018 0.0462429 -0.601698)
(20.0119 0.0746451 -0.772908)
(20.0294 0.0886068 -0.921357)
(20.1618 0.0805885 -1.07417)
(20.2699 0.0703089 -1.15831)
(20.7498 -0.0380412 -1.33313)
(39.9991 1.55528e-05 0.0513523)
(39.9892 8.44543e-05 0.152524)
(39.965 0.000144995 0.254671)
(39.9254 0.000159803 0.358902)
(39.8714 0.000161574 0.465497)
(39.8033 0.000186209 0.575043)
(39.7205 0.000220898 0.688175)
(39.6216 0.000238182 0.80547)
(39.5058 0.000234452 0.927477)
(39.3724 0.000225246 1.05471)
(39.2208 0.000227903 1.18767)
(39.0503 0.000250037 1.32685)
(38.8601 0.000288189 1.47282)
(38.6495 0.000344514 1.62629)
(38.419 0.000411641 1.78825)
(38.17 0.000582244 1.95958)
(37.9053 0.000830674 2.14117)
(37.6308 0.00203167 2.33245)
(37.3449 0.00290302 2.52472)
(37.0319 0.00152469 2.71684)
(36.6501 0.000818739 2.90641)
(36.2302 -0.0011398 3.10144)
(35.6256 -0.00592646 3.31442)
(34.9432 -0.0146384 3.52796)
(34.2459 -0.0284136 3.82379)
(33.4004 -0.0334045 4.25824)
(32.3643 -0.00837595 4.59691)
(31.361 0.0144912 4.92798)
(30.3348 0.0173664 5.19036)
(29.2631 0.0117269 5.27133)
(28.2536 0.0195654 5.13781)
(27.3733 0.0397872 4.87764)
(26.5755 0.105239 4.50687)
(25.8121 0.485841 4.00224)
(26.3022 1.4008 3.5321)
(18.8667 0.0311263 2.87625)
(18.9078 0.127092 2.03499)
(18.6218 0.524124 1.34116)
(17.6989 0.685268 0.811567)
(17.0464 0.541043 0.485107)
(17.1791 0.290004 0.396173)
(17.1622 0.316383 0.10382)
(17.1557 0.459019 -0.282815)
(17.2498 0.56946 -0.607346)
(17.4 0.644808 -0.85028)
(17.5657 0.72089 -1.03556)
(17.7527 0.811185 -1.17421)
(17.9728 0.899331 -1.27107)
(18.219 0.979688 -1.33098)
(18.5063 1.05478 -1.38096)
(18.82 1.1198 -1.39959)
(19.2334 1.17004 -1.37669)
(19.5496 1.20783 -1.31587)
(20.2576 1.19707 -1.19252)
(39.9991 1.44285e-05 0.0578786)
(39.9898 7.75129e-05 0.17194)
(39.9669 0.000132381 0.287214)
(39.9296 0.000146216 0.404996)
(39.8786 0.000148866 0.525611)
(39.8142 0.00017379 0.649721)
(39.7357 0.000207608 0.778074)
(39.6419 0.000224777 0.911355)
(39.5318 0.000221611 1.05022)
(39.4047 0.000212371 1.19522)
(39.2598 0.000212758 1.34686)
(39.0966 0.000230433 1.50553)
(38.914 0.000263944 1.67154)
(38.7117 0.000312298 1.84512)
(38.4898 0.000362122 2.02635)
(38.2495 0.000468114 2.21528)
(37.9926 0.000556471 2.41108)
(37.7227 0.000902455 2.61384)
(37.4411 0.000607628 2.81834)
(37.1422 -0.00075625 3.02738)
(36.8122 -0.00263658 3.25257)
(36.4474 -0.00241329 3.53018)
(36.0316 0.000374156 3.83454)
(35.419 -0.0103376 4.16642)
(34.738 -0.0259105 4.63165)
(34.0689 -0.0367093 5.2521)
(33.2292 -0.0130047 5.7795)
(32.1151 0.0292496 6.1129)
(30.7747 0.0457521 6.2991)
(29.3547 0.027391 6.29356)
(28.2039 0.018786 6.02241)
(27.2727 0.0224374 5.67561)
(26.3845 0.0325236 5.49249)
(25.7686 0.166257 5.79515)
(25.0264 0.555214 6.91244)
(15.9257 0.0766276 2.96476)
(15.2324 0.0871497 1.96206)
(14.5551 0.131242 1.63767)
(13.5837 0.150847 1.35902)
(12.9779 0.0625949 0.833995)
(12.6609 -0.0602836 0.130998)
(12.4339 -0.109502 -0.173885)
(12.4724 -0.097755 -0.286978)
(12.6812 -0.0691072 -0.485517)
(13.0186 -0.0652807 -0.766488)
(13.4509 -0.0976589 -1.05847)
(13.9983 -0.147173 -1.34587)
(14.711 -0.203656 -1.64166)
(15.5477 -0.277694 -1.94273)
(16.4982 -0.36238 -2.22811)
(17.5036 -0.445029 -2.48227)
(18.67 -0.515519 -2.71608)
(19.5904 -0.581646 -2.86932)
(21.3299 -0.685194 -3.14131)
(39.9992 1.44285e-05 0.0578767)
(39.9898 7.7513e-05 0.171932)
(39.9669 0.000132381 0.2872)
(39.9296 0.000146216 0.40498)
(39.8786 0.000148877 0.525595)
(39.8141 0.00017373 0.649703)
(39.7356 0.00020774 0.778054)
(39.6418 0.000223888 0.911335)
(39.5317 0.000219121 1.05019)
(39.4046 0.000209235 1.1952)
(39.2598 0.000210633 1.34684)
(39.0965 0.000230111 1.50551)
(38.914 0.000264245 1.67151)
(38.7117 0.000313236 1.84507)
(38.4898 0.000363216 2.0263)
(38.2496 0.000472433 2.21509)
(37.9929 0.000563005 2.41073)
(37.7226 0.000911297 2.61221)
(37.439 0.000629927 2.81628)
(37.1388 -0.000750789 3.02664)
(36.8109 -0.00254767 3.25796)
(36.4525 -0.00258823 3.52677)
(36.0529 0.00118247 3.89096)
(35.499 -0.00822697 4.20959)
(34.7442 -0.0305896 4.61868)
(33.9827 -0.0395917 5.14708)
(32.9628 -0.0199412 5.6287)
(31.8177 0.0182919 6.00792)
(30.7682 0.0370405 6.2672)
(29.6272 0.0197407 6.31521)
(28.4164 0.0150098 6.07666)
(27.3942 0.0230684 5.69512)
(26.5622 0.0336207 5.41839)
(25.6809 0.193138 5.47091)
(25.4469 0.80594 6.31392)
(24.2858 1.57878 6.60736)
(23.3592 1.66078 5.39915)
(21.814 1.59405 3.78835)
(20.0576 1.51346 2.54743)
(18.7703 1.41329 1.64417)
(17.9719 1.28834 0.963042)
(17.499 1.21322 0.46537)
(17.3226 1.19795 0.10997)
(17.3413 1.20985 -0.16349)
(17.4762 1.22317 -0.395407)
(17.7087 1.22819 -0.593316)
(18.0388 1.23354 -0.756152)
(18.4545 1.23994 -0.892859)
(18.9335 1.23485 -1.00823)
(19.4808 1.21543 -1.11109)
(20.0692 1.1871 -1.19366)
(20.7656 1.15467 -1.26138)
(21.3222 1.11729 -1.29272)
(22.3323 1.02415 -1.3356)
(39.9992 1.37616e-05 0.0639939)
(39.9905 7.68301e-05 0.190138)
(39.9693 0.000131727 0.317709)
(39.9346 0.000144322 0.448206)
(39.8871 0.000145774 0.582035)
(39.827 0.00016925 0.719962)
(39.7536 0.000201698 0.86285)
(39.6658 0.000218285 1.01149)
(39.5623 0.000215299 1.16661)
(39.4423 0.000206332 1.32883)
(39.3051 0.000206798 1.49865)
(39.1497 0.000224921 1.67635)
(38.9752 0.000256717 1.862)
(38.7808 0.000297288 2.05538)
(38.5666 0.000344517 2.25591)
(38.3332 0.000402672 2.46267)
(38.0825 0.000452717 2.67415)
(37.8173 0.000541749 2.88938)
(37.5409 0.000464923 3.10682)
(37.2555 0.000210132 3.33137)
(36.9622 -0.000411419 3.57586)
(36.6597 0.000383169 3.87423)
(36.356 0.00107628 4.24773)
(35.9998 0.0189946 4.75194)
(35.3634 0.0145077 5.36862)
(34.7771 -0.00467421 6.00598)
(34.1353 -0.0132001 6.57532)
(33.3161 -0.00392094 7.22251)
(32.2017 0.033953 7.72597)
(30.7918 0.0661297 7.83961)
(29.1132 0.0590141 7.24419)
(27.3995 0.0265879 6.50774)
(26.1689 0.00912435 6.17663)
(25.0035 0.0317941 6.17901)
(24.9234 0.307709 7.62097)
(23.2078 0.326926 8.13543)
(21.3039 0.130762 6.63157)
(19.1487 -0.0794526 4.6612)
(17.1026 -0.212971 3.0394)
(15.6899 -0.313903 1.74094)
(14.9269 -0.446794 0.67539)
(14.6306 -0.585141 -0.12348)
(14.7403 -0.683346 -0.763489)
(15.2386 -0.741524 -1.33914)
(16.0412 -0.797958 -1.8733)
(17.0198 -0.864536 -2.34835)
(18.0766 -0.91632 -2.75027)
(19.1678 -0.941783 -3.08531)
(20.2598 -0.949731 -3.36341)
(21.3313 -0.948671 -3.58799)
(22.3425 -0.93839 -3.757)
(23.3496 -0.922219 -3.87205)
(24.1236 -0.909457 -3.94295)
(25.2758 -0.900936 -3.98475)
(39.9992 1.37616e-05 0.0639918)
(39.9906 7.68301e-05 0.190128)
(39.9693 0.000131728 0.317693)
(39.9345 0.000144321 0.448187)
(39.887 0.000145786 0.582015)
(39.827 0.000169213 0.71994)
(39.7536 0.000201898 0.862825)
(39.6657 0.000217516 1.01146)
(39.5622 0.000212881 1.16658)
(39.4422 0.000203366 1.32881)
(39.305 0.000204152 1.49863)
(39.1497 0.000220332 1.67632)
(38.9752 0.000252594 1.86196)
(38.7808 0.00029583 2.05534)
(38.5666 0.000340093 2.25586)
(38.3332 0.000396979 2.46255)
(38.0825 0.000451847 2.67398)
(37.8173 0.000542358 2.88893)
(37.5404 0.000476831 3.10677)
(37.2543 0.000209516 3.33205)
(36.9614 -0.000348041 3.57916)
(36.6618 0.000102589 3.87127)
(36.3608 0.00213995 4.25942)
(36.0554 0.0142678 4.72646)
(35.5885 0.0127416 5.33063)
(34.8894 -0.0070019 5.94869)
(34.1375 -0.0220041 6.65694)
(32.9633 -0.0102331 7.18486)
(31.7333 0.0266199 7.47675)
(30.5404 0.0557324 7.58142)
(29.2251 0.0591759 7.39082)
(27.757 0.0283254 6.78312)
(26.3219 0.00503689 6.2548)
(24.8703 -0.0103739 6.33116)
(23.9741 0.201027 6.98556)
(24.0337 0.602297 7.42284)
(24.0852 0.820215 6.79871)
(23.5673 0.910885 5.60535)
(22.6918 0.959194 4.43876)
(21.8891 0.971307 3.38778)
(21.3166 0.937463 2.46266)
(20.9752 0.891342 1.70619)
(20.8521 0.862427 1.08113)
(20.9162 0.851592 0.544863)
(21.1263 0.832362 0.0720496)
(21.4461 0.78526 -0.346569)
(21.8535 0.724096 -0.710278)
(22.3188 0.659942 -1.02669)
(22.8132 0.589551 -1.3049)
(23.3322 0.508802 -1.55399)
(23.8478 0.424554 -1.75906)
(24.4008 0.333918 -1.94494)
(24.8105 0.259056 -2.03839)
(25.4447 0.100935 -2.22327)
(39.9993 1.2399e-05 0.0696225)
(39.9914 6.82261e-05 0.206897)
(39.972 0.000115867 0.345813)
(39.9403 0.000126786 0.488071)
(39.8969 0.000128364 0.634181)
(39.8418 0.000151231 0.785027)
(39.7744 0.000182709 0.941602)
(39.6934 0.000198184 1.10482)
(39.5974 0.000194244 1.27552)
(39.4856 0.000185204 1.45444)
(39.357 0.000184385 1.64209)
(39.2104 0.000199368 1.83872)
(39.0445 0.00022697 2.04421)
(38.858 0.000261748 2.25796)
(38.6506 0.000301527 2.47877)
(38.4225 0.000342339 2.70469)
(38.1755 0.000391225 2.93307)
(37.913 0.000435044 3.16114)
(37.6415 0.000503966 3.38699)
(37.3695 0.000429273 3.61337)