/*--------------------------------*- C++ -*----------------------------------*\
| =========                 |                                                 |
| \\      /  F ield         | OpenFOAM: The Open Source CFD Toolbox           |
|  \\    /   O peration     | Version:  4.1                                   |
|   \\  /    A nd           | Web:      www.OpenFOAM.org                      |
|    \\/     M anipulation  |                                                 |
\*---------------------------------------------------------------------------*/
FoamFile
{
    version     2.0;
    format      ascii;
    class       volScalarField;
    location    "56";
    object      omega;
}
// * * * * * * * * * * * * * * * * * * * * * * * * * * * * * * * * * * * * * //

dimensions      [0 0 -1 0 0 0 0];

internalField   nonuniform List<scalar> 
4432
(
0.0110951
0.0114467
0.0118133
0.0121552
0.0125121
0.0128422
0.0131919
0.0135069
0.0138489
0.0141455
0.0144803
0.0147592
0.0150837
0.0153477
0.0156576
0.0159114
0.0162039
0.0164492
0.0167252
0.0169595
0.017225
0.017454
0.0177176
0.0179387
0.0181889
0.0183948
0.0186305
0.018823
0.0190575
0.0192417
0.0194904
0.0196706
0.0199279
0.020098
0.0203471
0.0204988
0.0207259
0.0208579
0.0210453
0.02116
0.0213133
0.0214184
0.0215488
0.0216937
0.0218084
0.0220007
0.0221094
0.0223307
0.0225324
0.0228063
0.023132
0.023367
0.0233853
0.0235291
0.0110889
0.0114522
0.0118134
0.0121549
0.0125162
0.012837
0.0131986
0.013498
0.0138582
0.0141337
0.014493
0.0147452
0.0151007
0.0153328
0.0156787
0.0158968
0.0162271
0.0164371
0.0167482
0.0169513
0.0172437
0.0174471
0.0177303
0.0179313
0.0182019
0.0183949
0.018654
0.018836
0.0190894
0.0192648
0.0195254
0.0196975
0.0199595
0.0201224
0.0203734
0.020525
0.0207549
0.0208941
0.0210857
0.021227
0.0213713
0.0215462
0.021662
0.0218479
0.0219576
0.0220806
0.022222
0.0223539
0.0225058
0.0227435
0.0230115
0.023144
0.0232217
0.0231832
21.7968
3.3806
1.22908
0.663654
0.436551
0.32046
0.251605
0.206504
0.174856
0.15149
0.133575
0.119411
0.107954
0.0984882
0.0905576
0.0838049
0.0780067
0.0729582
0.0685398
0.0646297
0.061156
0.0580501
0.0552492
0.0527274
0.0504135
0.0483218
0.0463713
0.0446078
0.0429447
0.0414502
0.0400259
0.0387562
0.0375203
0.0364264
0.0353226
0.0343513
0.0333347
0.0324686
0.0315353
0.0307678
0.0299229
0.0292428
0.028486
0.0279023
0.0272464
0.0267365
0.0261733
0.0257257
0.0252663
0.0248978
0.0245708
0.0242273
0.0241673
0.0234651
21.7967
3.38061
1.2291
0.663662
0.436552
0.320459
0.251602
0.206502
0.174852
0.151489
0.133571
0.119409
0.10795
0.0984857
0.0905547
0.0838018
0.0780041
0.0729529
0.0685377
0.0646229
0.0611554
0.0580405
0.055249
0.0527152
0.0504151
0.0483136
0.0463787
0.0446125
0.0429615
0.0414686
0.0400437
0.0387764
0.0375244
0.0364355
0.0353092
0.0343441
0.0333175
0.0324721
0.0315344
0.0307851
0.0299341
0.0292837
0.0285227
0.027966
0.0272934
0.0268106
0.0262338
0.0258084
0.0253415
0.0249702
0.0246281
0.0242351
0.0241556
0.0233622
21.7963
3.3807
1.22921
0.663828
0.43675
0.320666
0.25179
0.206685
0.175036
0.151678
0.133764
0.11961
0.108151
0.0986971
0.0907605
0.0840202
0.0782115
0.073174
0.0687446
0.0648431
0.0613621
0.0582631
0.055463
0.0529438
0.0506363
0.0485414
0.046599
0.044828
0.0431719
0.0416619
0.0402404
0.0389472
0.0377148
0.036596
0.0355065
0.0345251
0.0335404
0.0326767
0.0317774
0.0310128
0.0301901
0.029516
0.0287758
0.0281805
0.0275243
0.0269965
0.0264325
0.0259444
0.0254751
0.0250716
0.024697
0.0243853
0.0241649
0.0237207
21.7963
3.38071
1.22923
0.663835
0.436752
0.320665
0.251788
0.206683
0.175035
0.151675
0.133763
0.119605
0.108151
0.0986902
0.0907625
0.0840117
0.0782147
0.0731636
0.0687474
0.0648337
0.061366
0.0582573
0.0554645
0.0529397
0.0506326
0.0485405
0.0465948
0.0448368
0.0431729
0.0416821
0.0402452
0.038969
0.0377145
0.0366112
0.0354988
0.034534
0.0335324
0.0326843
0.0317724
0.0310286
0.0302016
0.0295517
0.0288044
0.0282343
0.0275621
0.0270618
0.0264604
0.0260303
0.0255079
0.025175
0.0246944
0.0245225
0.0239546
0.0236004
21.7965
3.38062
1.22914
0.66377
0.436699
0.32062
0.251747
0.206645
0.174996
0.15164
0.133725
0.119572
0.108112
0.0986596
0.0907229
0.0839814
0.0781722
0.0731332
0.0687048
0.0648089
0.0613343
0.0582433
0.0554512
0.0529349
0.0506347
0.0485358
0.0466012
0.044823
0.0431725
0.0416525
0.0402295
0.0389252
0.0376919
0.0365699
0.0354898
0.0345106
0.0335467
0.0326802
0.0318101
0.0310394
0.0302616
0.0295582
0.0288638
0.0281992
0.0275893
0.0269604
0.0264434
0.025869
0.0254734
0.0249202
0.0247398
0.0239604
0.0237901
0.0236066
21.7965
3.38063
1.22915
0.663774
0.436699
0.320618
0.251744
0.206642
0.174994
0.151637
0.133723
0.119569
0.10811
0.0986574
0.09072
0.0839803
0.0781685
0.0731329
0.068702
0.06481
0.0613307
0.0582428
0.0554409
0.0529315
0.0506181
0.0485365
0.0465856
0.0448346
0.0431632
0.0416778
0.0402289
0.0389617
0.0376948
0.0366052
0.0354851
0.0345347
0.033534
0.0326923
0.0317977
0.0310449
0.0302477
0.0295583
0.0288541
0.0282027
0.0276019
0.026972
0.0264922
0.0259083
0.0255235
0.025073
0.0245037
0.0241078
0.0241058
0.0235295
21.7965
3.3806
1.22912
0.663745
0.436677
0.3206
0.251727
0.206623
0.174976
0.151616
0.133704
0.119544
0.10809
0.0986274
0.0906982
0.0839437
0.078144
0.0730911
0.0686791
0.0647672
0.0613102
0.0582014
0.055425
0.052897
0.050613
0.0485122
0.0465902
0.0448155
0.0431694
0.0416559
0.0402278
0.0389327
0.037683
0.0365725
0.0354704
0.0345088
0.0335273
0.0326775
0.0318002
0.031041
0.0302527
0.0295582
0.0288451
0.0281928
0.0275567
0.0269451
0.0264203
0.0258646
0.025455
0.0249445
0.0246626
0.0241356
0.0239589
0.0234994
21.7965
3.38061
1.22913
0.663748
0.436677
0.320597
0.251725
0.20662
0.174976
0.151612
0.133703
0.119541
0.108089
0.0986239
0.0906967
0.083941
0.0781429
0.0730902
0.0686783
0.0647674
0.0613079
0.0581988
0.0554197
0.0528903
0.0506064
0.0485047
0.0465882
0.0448118
0.0431765
0.0416608
0.0402456
0.0389454
0.0377054
0.0365854
0.0354864
0.034516
0.0335313
0.0326819
0.0317938
0.0310388
0.030233
0.0295517
0.0288123
0.0281997
0.0275156
0.026997
0.0263714
0.0259517
0.0253934
0.0250254
0.0245657
0.0241674
0.0239236
0.0235162
21.7965
3.38057
1.22908
0.66371
0.436651
0.320578
0.251704
0.206601
0.174951
0.15159
0.133674
0.119514
0.108053
0.0985925
0.0906551
0.0839047
0.0780963
0.0730511
0.0686305
0.064727
0.0612616
0.0581561
0.0553793
0.0528559
0.050587
0.0484881
0.0465906
0.0448027
0.0431866
0.0416437
0.0402543
0.0389119
0.0377088
0.0365357
0.0354923
0.0344648
0.0335534
0.0326367
0.0318284
0.0309931
0.0302691
0.0294993
0.0288481
0.0281379
0.0275623
0.0269295
0.0264541
0.0259072
0.0255065
0.0250057
0.0246708
0.0241575
0.0240059
0.0232804
21.7965
3.38058
1.22908
0.663714
0.436651
0.320576
0.251703
0.206599
0.174949
0.151588
0.133672
0.119512
0.108052
0.0985896
0.0906557
0.083901
0.0780992
0.0730472
0.0686336
0.0647224
0.0612625
0.0581538
0.0553775
0.0528525
0.0505792
0.0484816
0.0465817
0.0448005
0.0431878
0.0416505
0.0402676
0.0389259
0.037731
0.0365528
0.0355162
0.0344752
0.0335697
0.0326344
0.0318362
0.030978
0.0302768
0.029472
0.0288642
0.0281067
0.0275935
0.0268975
0.0264787
0.0258576
0.0254965
0.0249329
0.0246255
0.0240869
0.0239036
0.0231382
21.7965
3.38056
1.22905
0.663685
0.436629
0.320557
0.251682
0.206578
0.174923
0.151564
0.133638
0.119484
0.10801
0.098559
0.0906037
0.0838667
0.0780371
0.0730085
0.0685654
0.0646817
0.0611943
0.058111
0.0553171
0.0528173
0.0505407
0.0484669
0.0465657
0.0448003
0.0431768
0.041652
0.0402477
0.0389214
0.037699
0.036543
0.0354806
0.034465
0.033542
0.032629
0.0318189
0.0309712
0.0302608
0.0294616
0.0288442
0.0280951
0.027575
0.0268901
0.0264756
0.0258615
0.0255081
0.02492
0.0246328
0.0239875
0.0238025
0.0228996
21.7965
3.38057
1.22906
0.663688
0.436628
0.320555
0.251679
0.206576
0.174921
0.151562
0.133638
0.119481
0.108012
0.0985528
0.090608
0.0838584
0.0780452
0.0729981
0.0685756
0.0646688
0.061204
0.0580991
0.0553249
0.0528084
0.0505437
0.0484576
0.0465666
0.044793
0.043184
0.0416477
0.0402668
0.038919
0.0377302
0.0365418
0.0355148
0.0344627
0.0335651
0.0326235
0.0318264
0.030971
0.0302591
0.0294682
0.0288457
0.0281058
0.0275837
0.0269001
0.0264831
0.0258421
0.0254936
0.0248941
0.0245597
0.0239798
0.0236023
0.0230154
21.7965
3.38052
1.229
0.663645
0.436601
0.320531
0.25166
0.206549
0.174899
0.151527
0.133611
0.119437
0.107978
0.0985013
0.0905661
0.0837985
0.0779915
0.0729299
0.0685108
0.0645986
0.0611349
0.0580334
0.0552594
0.0527581
0.0505026
0.0484388
0.046554
0.0447993
0.0431772
0.0416627
0.0402433
0.0389359
0.0376872
0.0365616
0.0354596
0.0344865
0.0335102
0.0326544
0.0317807
0.031011
0.0302165
0.0295135
0.0288017
0.0281526
0.0275451
0.0269323
0.0264506
0.0258449
0.0254567
0.0248416
0.0244876
0.0238361
0.0236312
0.022752
21.7965
3.38053
1.229
0.663649
0.4366
0.320532
0.251656
0.206552
0.174893
0.151532
0.133604
0.119444
0.10797
0.0985095
0.090557
0.0838076
0.077983
0.0729405
0.0685027
0.064607
0.0611268
0.0580406
0.0552537
0.052764
0.0504915
0.0484393
0.0465387
0.0447983
0.0431739
0.0416648
0.0402628
0.0389406
0.0377274
0.0365633
0.0355099
0.0344808
0.0335567
0.0326399
0.0318147
0.0309864
0.0302431
0.0294848
0.0288278
0.0281244
0.0275712
0.0269054
0.0264624
0.0258089
0.0254384
0.0247921
0.0244441
0.0238023
0.0235661
0.0227348
21.7965
3.38051
1.22896
0.663617
0.436578
0.32051
0.251637
0.206525
0.17487
0.151497
0.133573
0.119401
0.10793
0.098457
0.0905076
0.083744
0.0779214
0.072863
0.0684296
0.06452
0.0610467
0.0579485
0.0551728
0.0526843
0.0504408
0.0484017
0.0465375
0.0448013
0.0432013
0.0416868
0.0402887
0.0389636
0.0377358
0.0365772
0.0354996
0.0344829
0.0335381
0.032639
0.0318002
0.0309971
0.0302274
0.0295136
0.0287997
0.0281704
0.0275384
0.0269465
0.0264282
0.0258266
0.0253931
0.0248089
0.0244106
0.0238422
0.0235841
0.022667
21.7965
3.38052
1.22897
0.66362
0.436577
0.32051
0.251634
0.206526
0.174867
0.1515
0.13357
0.119404
0.107927
0.0984597
0.0905044
0.0837466
0.0779191
0.0728666
0.0684269
0.064522
0.061042
0.0579506
0.0551721
0.0526884
0.0504397
0.0484032
0.0465305
0.0448025
0.0431981
0.041693
0.0402992
0.0389732
0.0377599
0.0365887
0.0355314
0.0344948
0.0335675
0.0326464
0.0318198
0.030993
0.0302431
0.029498
0.0288198
0.0281482
0.0275471
0.0269335
0.0264148
0.0258183
0.0253826
0.0247761
0.0244136
0.0238162
0.0235558
0.0227156
21.7964
3.38047
1.2289
0.663573
0.436548
0.320486
0.251613
0.2065
0.174841
0.151465
0.133537
0.11936
0.107885
0.0984034
0.0904512
0.0836761
0.0778513
0.0727773
0.068342
0.0644124
0.0609442
0.0578303
0.0550748
0.0525895
0.050384
0.0483765
0.0465429
0.0448451
0.0432514
0.0417695
0.0403572
0.0390488
0.0377945
0.0366437
0.0355415
0.0345284
0.0335688
0.0326697
0.0318305
0.0310226
0.0302671
0.0295415
0.0288425
0.0282104
0.027564
0.0269829
0.0264419
0.0258163
0.0254689
0.0248367
0.024707
0.0236512
0.0233634
0.0230648
21.7964
3.38048
1.22891
0.663575
0.436549
0.320485
0.251614
0.206499
0.174844
0.151463
0.133542
0.119356
0.107892
0.0983978
0.0904595
0.0836685
0.0778617
0.0727687
0.0683539
0.0644032
0.0609534
0.0578258
0.0550863
0.0525921
0.0503919
0.0483745
0.0465469
0.0448359
0.0432549
0.0417594
0.0403701
0.0390461
0.0378237
0.0366506
0.0355802
0.0345427
0.0336045
0.0326859
0.0318488
0.0310336
0.0302637
0.0295442
0.0288278
0.0282036
0.0275334
0.0269904
0.0263604
0.0258736
0.0253215
0.0248713
0.0244071
0.0239213
0.0235061
0.0230112
21.7964
3.38045
1.22887
0.663542
0.436524
0.320468
0.25159
0.206481
0.17481
0.151442
0.133494
0.119331
0.107829
0.098365
0.0903796
0.0836234
0.0777606
0.0727042
0.0682274
0.0643154
0.0608111
0.0577168
0.0549503
0.0524962
0.0503414
0.0483754
0.0466125
0.0449407
0.0434144
0.0419291
0.0405677
0.0392144
0.038002
0.0367836
0.0357147
0.0346535
0.0336907
0.0328077
0.0318989
0.0311789
0.0303315
0.0296579
0.0289813
0.028331
0.0276359
0.0272031
0.0262832
0.0260553
0.0252801
0.0255401
0.0246047
0.02518
0.0252568
0.0249088
21.7964
3.38046
1.22887
0.663544
0.436525
0.320467
0.251591
0.20648
0.174812
0.151441
0.133498
0.119329
0.107833
0.0983639
0.0903824
0.0836222
0.0777637
0.0727028
0.0682328
0.0643105
0.0608208
0.0577103
0.0549702
0.0524953
0.0503672
0.0483759
0.0466246
0.0449357
0.0434073
0.04192
0.040549
0.0392166
0.0379851
0.0367975
0.0357113
0.0346584
0.033707
0.032775
0.0319308
0.031105
0.0303387
0.029599
0.0289277
0.0281971
0.0276965
0.0270247
0.0264949
0.0259255
0.0253681
0.0249547
0.0248771
0.0239899
0.0239094
0.0238598
21.7964
3.3804
1.2288
0.663494
0.436494
0.320449
0.251566
0.206467
0.174775
0.151429
0.133443
0.119318
0.107756
0.0983525
0.0902771
0.0836085
0.0776187
0.0726815
0.0680356
0.0642753
0.0605774
0.0576518
0.0547431
0.0524748
0.0503862
0.0486599
0.0470804
0.0456177
0.0441831
0.0428153
0.0414473
0.0401733
0.038873
0.0377453
0.0365464
0.0355761
0.0345469
0.033609
0.0328642
0.0320279
0.0311338
0.0307273
0.029366
0.0289908
0.0277705
0.0274903
0.0272972
0.0274549
0.0280534
0.0310538
0.0292846
0.0299192
0.0306443
0.0312262
21.7963
3.38041
1.2288
0.663495
0.436494
0.32045
0.251567
0.206468
0.174777
0.15143
0.133445
0.119321
0.107756
0.0983593
0.0902722
0.0836197
0.0776091
0.0726971
0.0680241
0.064292
0.0605648
0.0576689
0.0547365
0.0524948
0.0504248
0.0486417
0.0470501
0.04549
0.0440356
0.0425959
0.0412375
0.0399166
0.0386726
0.037478
0.0363746
0.0352993
0.0343437
0.0333604
0.0325709
0.0316667
0.0309302
0.0303278
0.0290258
0.0284929
0.0280416
0.0270321
0.0271997
0.0275776
0.0264771
0.0264526
0.026797
0.0288659
0.0281882
0.0287698
21.7963
3.38038
1.22876
0.663465
0.436475
0.320434
0.251552
0.206449
0.174757
0.151405
0.133417
0.119291
0.107713
0.0983252
0.0902031
0.083589
0.0774894
0.0726809
0.0678151
0.0643051
0.0602317
0.0577891
0.0543211
0.0532678
0.0507739
0.0521528
0.050843
0.0512844
0.0486023
0.0483846
0.0474075
0.0462406
0.0449271
0.0439129
0.0427426
0.041583
0.0402535
0.0389733
0.0385622
0.0372419
0.0377897
0.0388627
0.0377469
0.0380656
0.0388733
0.0411047
0.0428765
0.0431536
0.0441321
0.0439671
0.0439867
0.0432362
0.0431323
0.0419232
21.7963
3.38039
1.22877
0.663467
0.436474
0.320437
0.251548
0.206457
0.174749
0.151421
0.133402
0.119313
0.107691
0.0983543
0.0901771
0.0836188
0.0774676
0.0727021
0.0678097
0.0643099
0.0602414
0.0577867
0.0543837
0.053118
0.0511942
0.0510633
0.0506697
0.0491802
0.048085
0.0466241
0.0450094
0.0436459
0.0421641
0.0410092
0.0397746
0.0386437
0.0377797
0.0365774
0.0355983
0.035052
0.0341429
0.0348329
0.0342234
0.0343352
0.0348534
0.0359997
0.0365341
0.0370393
0.0370444
0.0374429
0.0393413
0.0389575
0.0398287
0.0386062
21.7963
3.38034
1.22869
0.663416
0.43646
0.320402
0.251569
0.206393
0.174804
0.151306
0.133503
0.119133
0.107849
0.098092
0.0904019
0.0832534
0.0777678
0.0722026
0.0681789
0.0636425
0.0606607
0.0569342
0.05524
0.0547845
0.0606321
0.121476
0.120108
0.11977
0.119581
0.11557
0.113023
0.110889
0.108634
0.106331
0.104105
0.101966
0.100062
0.0982393
0.0963874
0.0941965
0.0919805
0.0891304
0.0862631
0.0827515
0.0792264
0.0749124
0.0707397
0.0658208
0.0611434
0.0559888
0.0512328
0.0465763
0.0410745
0.0389554
21.7963
3.38035
1.2287
0.663418
0.436459
0.320406
0.251566
0.206401
0.174799
0.151318
0.133494
0.11915
0.107837
0.0981128
0.0903858
0.083279
0.0777459
0.0722377
0.0681504
0.0636831
0.060641
0.0569719
0.0551487
0.0548556
0.0604528
0.0961366
0.0988392
0.101934
0.104896
0.101302
0.101361
0.100138
0.0985441
0.0970959
0.0954219
0.0935905
0.0919472
0.0903833
0.0889738
0.0872678
0.0856584
0.0834496
0.0814292
0.0787986
0.0763178
0.0730989
0.0699264
0.0660118
0.0621217
0.0579262
0.0533982
0.0498689
0.0445613
0.0425096
21.7962
3.38032
1.22866
0.663392
0.436448
0.320394
0.251565
0.206384
0.174802
0.151287
0.133507
0.119097
0.107865
0.0980299
0.0904339
0.0831572
0.0778083
0.0720854
0.0681736
0.0635366
0.0607015
0.0558082
0.0569748
0.0616797
0.257405
0.33437
0.175867
0.12055
0.109793
0.102962
0.0969291
0.0911008
0.0851791
0.0793888
0.0739115
0.0687386
0.0639956
0.0595196
0.0553886
0.0516504
0.0484074
0.0460889
0.0439538
0.0422747
0.0413668
0.0399028
0.0393871
0.038986
0.0384859
0.0377901
0.0367184
0.0358893
0.0345708
0.0331012
21.7962
3.38033
1.22866
0.663393
0.436449
0.320395
0.251568
0.206385
0.174806
0.151289
0.133511
0.119101
0.107867
0.0980367
0.0904316
0.0831678
0.0778079
0.0720772
0.0682469
0.0633524
0.061059
0.05579
0.056585
0.0599699
0.194196
0.312732
0.185949
0.118664
0.0972995
0.0922144
0.0884952
0.08454
0.0804114
0.0761261
0.0718424
0.0676577
0.0637415
0.0600471
0.0567071
0.0534391
0.0506751
0.0481338
0.0461316
0.044214
0.0428783
0.0415647
0.0405726
0.0394732
0.0384244
0.0372964
0.0356859
0.0344735
0.0328418
0.0314278
21.7962
3.38028
1.22859
0.663351
0.436432
0.320387
0.251565
0.206379
0.174805
0.151278
0.133511
0.119084
0.10787
0.0980136
0.0904366
0.0831384
0.0778128
0.0720439
0.0682401
0.0633567
0.0609041
0.0562491
0.0555908
0.113701
0.170471
0.178663
0.131957
0.115809
0.107778
0.102735
0.0993365
0.0964693
0.0938878
0.0915078
0.0893411
0.0872986
0.0853898
0.0835104
0.081423
0.0789525
0.0759565
0.0727715
0.0690728
0.0652519
0.0609703
0.0567354
0.0522401
0.047768
0.0431718
0.0383434
0.0342174
0.0297498
0.027935
21.7961
3.38029
1.22859
0.663352
0.436432
0.32039
0.251567
0.206384
0.174807
0.151285
0.133513
0.119089
0.107877
0.0980112
0.090453
0.083128
0.0778353
0.0720367
0.0682446
0.0634148
0.0607817
0.0562671
0.0571079
0.112713
0.179438
0.199188
0.146112
0.126779
0.115265
0.10857
0.103815
0.0997234
0.0961083
0.0928537
0.0898744
0.0871258
0.0845057
0.0818004
0.078912
0.0759541
0.0727225
0.0695472
0.0660527
0.0626085
0.0586847
0.0549375
0.0507717
0.0468928
0.0427624
0.0385431
0.0347838
0.0305089
0.0285461
21.7961
3.38026
1.22856
0.663335
0.436423
0.320398
0.251556
0.206405
0.174784
0.151322
0.133471
0.119149
0.10781
0.0981033
0.0903576
0.0832563
0.0777178
0.0721984
0.0681247
0.0636218
0.060617
0.0568772
0.055221
0.0580075
0.0980597
0.112511
0.114589
0.115705
0.113108
0.110267
0.105156
0.0993707
0.093209
0.0870163
0.0809201
0.0749466
0.0690524
0.0632435
0.0576316
0.0523425
0.0477301
0.0435618
0.0400211
0.0367827
0.0341379
0.0316794
0.0297895
0.0279858
0.0266785
0.025369
0.0244901
0.02351
0.0229374
0.0221998
21.7961
3.38028
1.22856
0.663336
0.436425
0.320399
0.25156
0.206407
0.174788
0.151326
0.133475
0.119156
0.107811
0.0981133
0.0903545
0.0832705
0.0777121
0.0722174
0.0681164
0.063653
0.060583
0.0569464
0.0551513
0.0578455
0.0910113
0.0878417
0.0883651
0.087955
0.0867823
0.0842884
0.0814052
0.0780349
0.0742671
0.0702605
0.0661463
0.0619872
0.0577398
0.0535704
0.0496619
0.0460792
0.0428252
0.0397919
0.0371329
0.0346326
0.0325747
0.0305708
0.0290671
0.0275108
0.0264717
0.0252802
0.0245831
0.0236523
0.0231389
0.0224553
21.796
3.38022
1.2285
0.663303
0.436407
0.320413
0.251542
0.20645
0.174744
0.151407
0.133387
0.119294
0.107664
0.09833
0.090134
0.083585
0.077411
0.0726495
0.0677409
0.0642323
0.0601455
0.0576989
0.0542108
0.0531836
0.050417
0.050591
0.0502467
0.0488815
0.0470809
0.0452638
0.0434827
0.0417969
0.0401965
0.0387004
0.0372948
0.0359779
0.0347553
0.0335952
0.0325458
0.0315176
0.0306227
0.0296968
0.0289376
0.0280901
0.0274398
0.0266484
0.0260856
0.0253306
0.0248412
0.0241072
0.0236684
0.0229596
0.0226104
0.0218404
21.796
3.38023
1.2285
0.663304
0.436409
0.320416
0.251546
0.206454
0.174749
0.15141
0.133396
0.119294
0.107679
0.0983221
0.0901578
0.0835701
0.0774427
0.0726313
0.0677788
0.0642123
0.0601976
0.0576678
0.0543045
0.0530255
0.0508656
0.0504817
0.0493219
0.0475707
0.0458335
0.0441258
0.0424939
0.0409408
0.0394897
0.0381259
0.0368416
0.0356434
0.0345089
0.0334526
0.032459
0.0315104
0.0306443
0.029775
0.0290249
0.0282121
0.0275615
0.0267865
0.0262245
0.0254823
0.0249907
0.0242712
0.0238482
0.0231087
0.0228189
0.0220523
21.796
3.38021
1.22848
0.663293
0.436413
0.32042
0.251563
0.206456
0.174777
0.151406
0.133439
0.119281
0.107742
0.0983027
0.0902456
0.0835464
0.077566
0.0726049
0.0679601
0.0641772
0.0604707
0.0575357
0.054615
0.0523603
0.0502293
0.0484091
0.0467356
0.0450969
0.0435522
0.0420879
0.040706
0.0393822
0.0381295
0.0369216
0.0357831
0.0346795
0.0336543
0.0326507
0.0317401
0.0308235
0.0300193
0.0291748
0.0284697
0.0276842
0.0270627
0.0263245
0.025774
0.0250715
0.0245875
0.0238974
0.0234956
0.0227984
0.0224967
0.0216865
21.796
3.38022
1.22848
0.663294
0.436414
0.320424
0.251565
0.206463
0.174779
0.151414
0.133441
0.119289
0.107746
0.0983074
0.0902548
0.0835459
0.0775829
0.0726
0.0679848
0.0641718
0.0605015
0.0575337
0.054647
0.052355
0.0502511
0.0484372
0.0467105
0.0450548
0.0434975
0.042023
0.0406433
0.039317
0.0380687
0.0368695
0.0357321
0.0346504
0.0336229
0.0326461
0.0317297
0.0308368
0.0300294
0.0292031
0.0284951
0.0277259
0.0271013
0.0263814
0.0258296
0.0251525
0.0246578
0.0240211
0.0235732
0.0229542
0.0226669
0.0218154
21.7959
3.38018
1.22843
0.663268
0.436411
0.32043
0.25158
0.206472
0.174803
0.151421
0.133477
0.119293
0.107798
0.0983101
0.0903298
0.0835492
0.0776876
0.0726094
0.068129
0.0641958
0.060684
0.0575751
0.0548021
0.0523327
0.0501519
0.0481499
0.0463384
0.0446308
0.0430641
0.0415767
0.0402019
0.0388793
0.0376519
0.0364593
0.0353576
0.0342827
0.0332993
0.0323303
0.0314558
0.0305736
0.0297999
0.0289872
0.0283025
0.0275443
0.0269323
0.0262215
0.0256673
0.0250006
0.0245056
0.0238915
0.0234467
0.0229011
0.0224954
0.0219572
21.7959
3.38019
1.22843
0.663269
0.436414
0.320433
0.251585
0.206477
0.174809
0.151428
0.133483
0.119301
0.107803
0.0983201
0.0903333
0.0835617
0.0776908
0.0726256
0.0681318
0.0642169
0.0606848
0.0576021
0.0547964
0.0523557
0.0501475
0.0481685
0.0463496
0.0446511
0.0430814
0.0415936
0.0402171
0.0388957
0.0376628
0.0364837
0.0353701
0.0343205
0.0333183
0.0323773
0.031484
0.0306245
0.0298386
0.0290386
0.0283498
0.0276008
0.0269881
0.0262887
0.0257409
0.0250807
0.0245977
0.0239747
0.0235562
0.0230054
0.0226591
0.0218683
21.7959
3.38017
1.22841
0.663265
0.436421
0.320446
0.2516
0.206496
0.174828
0.15145
0.133508
0.119328
0.107838
0.0983514
0.0903833
0.0835995
0.0777603
0.0726731
0.0682241
0.0642776
0.0607967
0.0576648
0.0548994
0.0523851
0.0501541
0.0480991
0.0462454
0.0445039
0.0429181
0.0414127
0.0400353
0.0387096
0.0374917
0.0363071
0.0352189
0.0341566
0.0331823
0.0322279
0.0313558
0.0304895
0.0297138
0.0289148
0.0282274
0.0274789
0.0268691
0.0261664
0.0256286
0.0249651
0.0245075
0.0238772
0.0234978
0.0229032
0.0226864
0.0218144
21.7958
3.38018
1.22841
0.663267
0.436424
0.32045
0.251605
0.2065
0.174834
0.151455
0.133514
0.119334
0.107844
0.0983586
0.0903888
0.0836093
0.0777654
0.072687
0.0682294
0.0642955
0.0608031
0.0576837
0.0549094
0.0523995
0.0501628
0.0481155
0.0462626
0.0445257
0.0429412
0.0414353
0.0400546
0.0387328
0.037505
0.0363389
0.0352306
0.0342018
0.0331962
0.0322829
0.0313753
0.0305502
0.0297403
0.0289772
0.0282607
0.0275447
0.0269093
0.0262402
0.0256748
0.0250425
0.0245538
0.0239463
0.0235557
0.022952
0.0226605
0.0219946
21.7958
3.38014
1.22837
0.663246
0.436424
0.32046
0.251621
0.206517
0.174855
0.151475
0.133542
0.119358
0.107881
0.0983881
0.0904373
0.083646
0.0778268
0.0727335
0.0683024
0.064353
0.0608788
0.0577476
0.054966
0.0524387
0.0501733
0.0480955
0.0462043
0.044451
0.0428373
0.0413265
0.0399257
0.038604
0.0373681
0.0361998
0.0350923
0.0340524
0.0330539
0.0321253
0.0312264
0.030393
0.0295823
0.0288278
0.0280953
0.0274065
0.0267522
0.0261184
0.0255447
0.024941
0.0244671
0.0238318
0.0234692
0.0228204
0.0225342
0.0217707
21.7958
3.38015
1.22837
0.663248
0.436427
0.320465
0.251625
0.206524
0.17486
0.151485
0.133546
0.119369
0.107885
0.0984005
0.0904406
0.08366
0.0778317
0.0727487
0.0683112
0.0643675
0.0608931
0.057761
0.054982
0.0524505
0.0501955
0.0481054
0.0462341
0.0444682
0.0428706
0.0413497
0.0399576
0.0386312
0.0373967
0.0362319
0.0351192
0.0340953
0.0330817
0.0321819
0.0312558
0.0304586
0.029614
0.0288978
0.028128
0.0274801
0.0267823
0.0261861
0.0255708
0.0249906
0.0244807
0.0238762
0.0234724
0.0228516
0.0224921
0.0219255
21.7957
3.38014
1.22836
0.663247
0.436437
0.320478
0.251644
0.20654
0.174884
0.151502
0.133578
0.119389
0.107924
0.098426
0.0904887
0.0836924
0.0778873
0.0727893
0.0683712
0.0644155
0.0609513
0.0578049
0.0550249
0.0524799
0.0501998
0.0481026
0.0461945
0.0444293
0.0427955
0.04128
0.0398606
0.0385346
0.0372948
0.0361121
0.0350259
0.0339525
0.0330009
0.0320192
0.0311853
0.0302847
0.0295485
0.0287221
0.0280637
0.0273095
0.0267117
0.0260305
0.0254766
0.0248717
0.0243461
0.0237684
0.0233564
0.0227108
0.0224607
0.0216372
21.7957
3.38015
1.22836
0.663249
0.43644
0.320483
0.251649
0.206547
0.174889
0.151511
0.133581
0.1194
0.107926
0.0984397
0.090489
0.0837093
0.0778873
0.0728092
0.0683726
0.0644373
0.0609551
0.0578266
0.0550355
0.0524998
0.0502126
0.0481255
0.0462109
0.0444523
0.0428179
0.0413043
0.0398857
0.0385634
0.0373169
0.0361499
0.0350428
0.0340053
0.0330147
0.032088
0.031197
0.0303659
0.0295589
0.0288108
0.0280755
0.0273985
0.026728
0.0261077
0.0255113
0.0249093
0.0244099
0.0237917
0.0233927
0.0227577
0.0225067
0.0216287
21.7957
3.38011
1.22833
0.663236
0.436443
0.320495
0.251664
0.206565
0.174908
0.151533
0.133603
0.119427
0.107953
0.0984719
0.0905203
0.083747
0.077923
0.0728509
0.0684107
0.064479
0.0609903
0.0578642
0.0550577
0.0525173
0.0502131
0.0481142
0.0461773
0.0444132
0.0427515
0.0412432
0.0397935
0.0384839
0.0372097
0.0360542
0.0349332
0.0338923
0.0329094
0.0319557
0.0310987
0.0302164
0.0294696
0.0286484
0.0279946
0.0272235
0.0266481
0.0259187
0.0254166
0.0247314
0.0242777
0.0236554
0.0232721
0.0226548
0.0222489
0.021662
21.7956
3.38013
1.22833
0.663238
0.436447
0.3205
0.251669
0.206572
0.174913
0.151543
0.133607
0.119439
0.107955
0.0984869
0.0905218
0.0837653
0.0779244
0.0728728
0.0684132
0.0645037
0.0609955
0.0578911
0.055064
0.0525445
0.0502283
0.0481356
0.0462038
0.0444319
0.0427884
0.0412602
0.0398393
0.0385034
0.03726
0.0360808
0.0349826
0.0339295
0.0329582
0.0320025
0.0311516
0.0302659
0.0295296
0.0286958
0.0280589
0.0272725
0.026714
0.0259754
0.0254837
0.0247857
0.0243584
0.023702
0.0233276
0.0227241
0.0224621
0.0215661
21.7956
3.38011
1.22832
0.663242
0.436457
0.320513
0.251686
0.206587
0.174934
0.151559
0.133633
0.119457
0.107986
0.0985079
0.090557
0.083789
0.0779628
0.0728976
0.0684519
0.0645265
0.06103
0.0579039
0.0550868
0.0525459
0.0502262
0.04812
0.0461743
0.044399
0.0427315
0.0412135
0.0397588
0.0384439
0.0371629
0.0360071
0.0348792
0.0338404
0.0328549
0.0319003
0.0310464
0.03016
0.0294158
0.0285981
0.0279362
0.0271892
0.0265977
0.0258913
0.0253813
0.0247019
0.0242552
0.0236119
0.0232229
0.0225648
0.022266
0.0213361
21.7956
3.38013
1.22833
0.663245
0.43646
0.320519
0.25169
0.206596
0.174937
0.151569
0.133635
0.11947
0.107988
0.0985217
0.0905594
0.0838039
0.0779671
0.0729139
0.0684587
0.0645451
0.0610389
0.0579248
0.0551001
0.0525694
0.0502393
0.0481497
0.0461885
0.0444296
0.0427512
0.0412429
0.0397881
0.0384714
0.037203
0.0360344
0.0349264
0.0338723
0.0329054
0.0319392
0.0311008
0.0302001
0.0294798
0.0286282
0.0280158
0.0272089
0.0266786
0.0259289
0.0254379
0.0247667
0.0242844
0.0236768
0.0232498
0.0225798
0.0223222
0.0214244
21.7956
3.3801
1.2283
0.663239
0.436467
0.320531
0.251706
0.206611
0.174956
0.151586
0.133659
0.119488
0.108015
0.0985408
0.0905902
0.0838237
0.0779995
0.0729327
0.0684894
0.0645596
0.0610631
0.0579334
0.0551129
0.052563
0.0502375
0.0481248
0.0461649
0.0443886
0.0427045
0.0411912
0.0397177
0.0384135
0.0371115
0.0359703
0.0348228
0.0337982
0.0327977
0.031857
0.0309809
0.0301294
0.0293231
0.0285981
0.0278118
0.0272168
0.0264591
0.0259107
0.0252602
0.0246658
0.0241644
0.0235358
0.0230386
0.0225978
0.0220361
0.0212521
21.7956
3.38011
1.22831
0.663241
0.436471
0.320537
0.251711
0.206619
0.174962
0.151596
0.133664
0.119499
0.108019
0.0985546
0.090593
0.0838406
0.0780019
0.0729535
0.0684925
0.0645847
0.0610677
0.0579637
0.0551165
0.0525983
0.0502445
0.0481621
0.0461769
0.044429
0.0427232
0.0412315
0.0397477
0.038451
0.0371567
0.0360028
0.0348831
0.0338258
0.0328699
0.031881
0.0310645
0.0301445
0.0294243
0.0285937
0.0279325
0.0271911
0.0265746
0.0259035
0.0253011
0.0247451
0.0241007
0.0236584
0.0229807
0.0223865
0.0222207
0.0213719
21.7955
3.38011
1.22831
0.663251
0.436484
0.320549
0.251725
0.206632
0.174977
0.151608
0.133681
0.119511
0.108039
0.0985657
0.0906161
0.0838502
0.0780264
0.0729602
0.0685158
0.0645859
0.0610874
0.0579538
0.0551304
0.0525763
0.0502478
0.0481238
0.0461699
0.0443756
0.0427036
0.0411686
0.0397114
0.0383856
0.0371003
0.0359378
0.0348093
0.0337562
0.0327892
0.0317978
0.0309782
0.0300523
0.0293138
0.028507
0.027783
0.0271005
0.026404
0.0257964
0.0252094
0.0245742
0.0241295
0.0234557
0.0231916
0.022965
0.0233459
0.0228315
21.7955
3.38013
1.22832
0.663255
0.436488
0.320554
0.251731
0.206638
0.174984
0.151616
0.133687
0.11952
0.108044
0.0985767
0.0906203
0.0838638
0.0780306
0.0729772
0.0685211
0.064607
0.0610945
0.0579784
0.055141
0.0526041
0.0502594
0.0481576
0.0461837
0.0444121
0.0427214
0.0412061
0.0397368
0.0384217
0.0371372
0.0359705
0.0348576
0.0337889
0.03284
0.0318404
0.0310216
0.0301066
0.0293566
0.0285522
0.0278428
0.0271296
0.0264562
0.0258468
0.0252285
0.024591
0.0243117
0.023428
0.0233844
0.0224895
0.023058
0.0225708
21.7953
3.38017
1.22836
0.663298
0.436531
0.320595
0.251768
0.206672
0.175015
0.151643
0.133716
0.119544
0.108072
0.0985964
0.0906491
0.0838783
0.0780603
0.0729842
0.0685508
0.0646035
0.0611227
0.0579636
0.0551665
0.0525732
0.0502801
0.0481106
0.0461935
0.0443523
0.0427159
0.0411394
0.0397078
0.0383538
0.0370759
0.0359054
0.034764
0.0337226
0.032732
0.0317639
0.0309196
0.0300336
0.0292618
0.0285047
0.0277855
0.0271056
0.026399
0.0260556
0.025119
0.0249979
0.0242656
0.0247473
0.0246685
0.0251544
0.027394
0.0273877
21.7953
3.38019
1.22836
0.663301
0.436535
0.320599
0.251773
0.206677
0.17502
0.151651
0.133721
0.119553
0.108077
0.0986086
0.0906526
0.0838946
0.078063
0.0730057
0.0685535
0.0646307
0.0611263
0.0579959
0.0551702
0.0526088
0.050288
0.0481466
0.0462062
0.0443891
0.0427331
0.0411774
0.0397301
0.0383941
0.0371047
0.0359471
0.034801
0.033764
0.0327755
0.0318078
0.0309644
0.0300835
0.0293106
0.0285511
0.0278527
0.0271562
0.0264859
0.0260856
0.0252401
0.0249481
0.0247535
0.024816
0.0249993
0.0254845
0.0279559
0.0277813
21.7955
3.37989
1.22791
0.662897
0.436201
0.320303
0.251502
0.206419
0.174787
0.151432
0.133517
0.119348
0.107882
0.098406
0.0904608
0.0836906
0.0778705
0.0727987
0.0683586