/*--------------------------------*- C++ -*----------------------------------*\
| =========                 |                                                 |
| \\      /  F ield         | OpenFOAM: The Open Source CFD Toolbox           |
|  \\    /   O peration     | Version:  4.1                                   |
|   \\  /    A nd           | Web:      www.OpenFOAM.org                      |
|    \\/     M anipulation  |                                                 |
\*---------------------------------------------------------------------------*/
FoamFile
{
    version     2.0;
    format      ascii;
    class       volScalarField;
    location    "56";
    object      p;
}
// * * * * * * * * * * * * * * * * * * * * * * * * * * * * * * * * * * * * * //

dimensions      [0 2 -2 0 0 0 0];

internalField   nonuniform List<scalar> 
4432
(
100826
100826
100827
100828
100831
100834
100838
100842
100846
100852
100860
100868
100876
100885
100893
100900
100905
100908
100913
100924
100943
100962
100982
101004
101028
101053
101076
101093
101105
101114
101120
101122
101125
101129
101131
101121
101108
101112
101115
101112
101109
101111
101121
101133
101142
101158
101144
101153
101199
101215
101149
101065
100993
101019
100826
100826
100827
100828
100831
100834
100838
100842
100846
100852
100860
100868
100876
100885
100893
100900
100905
100908
100913
100924
100943
100964
100984
101005
101029
101054
101076
101093
101105
101115
101122
101125
101126
101127
101128
101122
101113
101107
101106
101110
101115
101118
101123
101125
101131
101166
101166
101155
101185
101200
101144
101089
100972
100993
100824
100824
100825
100826
100829
100832
100835
100839
100844
100850
100857
100865
100874
100884
100894
100906
100922
100939
100953
100964
100978
100995
101012
101028
101044
101060
101076
101092
101108
101120
101128
101132
101130
101125
101117
101104
101097
101098
101100
101106
101108
101108
101116
101129
101138
101148
101155
101165
101194
101205
101201
101168
100826
101146
100824
100824
100825
100826
100829
100832
100835
100839
100844
100850
100857
100865
100874
100884
100894
100906
100921
100939
100954
100965
100978
100994
101010
101026
101042
101058
101075
101091
101105
101118
101124
101125
101124
101124
101119
101108
101099
101096
101101
101108
101112
101113
101118
101130
101137
101147
101157
101163
101193
101208
101190
101182
100811
101140
100823
100823
100823
100825
100828
100831
100834
100838
100843
100848
100855
100864
100873
100883
100893
100905
100918
100929
100940
100956
100974
100992
101008
101025
101041
101060
101079
101097
101114
101129
101138
101144
101150
101150
101130
101104
101094
101101
101110
101121
101119
101109
101114
101126
101136
101143
101161
101173
101185
101179
101174
101151
101141
101295
100823
100823
100823
100825
100828
100831
100834
100838
100843
100848
100855
100864
100873
100883
100893
100905
100918
100929
100940
100956
100973
100991
101007
101023
101040
101058
101077
101094
101112
101128
101137
101139
101140
101141
101132
101112
101103
101104
101107
101114
101116
101112
101117
101129
101135
101141
101155
101173
101186
101186
101178
101139
101098
101316
100820
100821
100821
100823
100825
100828
100832
100835
100840
100845
100852
100860
100870
100879
100890
100901
100912
100921
100932
100950
100969
100987
101003
101020
101039
101061
101084
101104
101125
101145
101159
101173
101190
101180
101140
101087
101069
101085
101106
101130
101119
101099
101108
101122
101133
101142
101165
101176
101192
101192
101182
101177
101188
101176
100820
100821
100821
100823
100825
100828
100832
100835
100840
100845
100852
100860
100870
100879
100890
100901
100912
100921
100932
100950
100969
100987
101003
101020
101039
101061
101083
101103
101126
101145
101158
101170
101183
101175
101147
101108
101094
101099
101109
101119
101116
101105
101110
101119
101131
101144
101161
101181
101190
101197
101189
101183
101138
101150
100817
100818
100818
100820
100822
100825
100829
100832
100836
100842
100849
100857
100866
100875
100885
100896
100907
100917
100926
100940
100958
100976
100994
101013
101035
101062
101090
101116
101143
101165
101184
101205
101223
101221
101246
101057
101054
101072
101091
101129
101122
101094
101112
101125
101139
101150
101148
101158
101196
101222
101238
101185
101150
101303
100817
100818
100818
100820
100822
100825
100828
100832
100836
100842
100849
100857
100866
100875
100885
100896
100907
100917
100926
100940
100957
100976
100994
101013
101036
101063
101090
101116
101145
101169
101185
101202
101217
101206
101178
101111
101079
101084
101104
101128
101132
101107
101112
101118
101130
101142
101157
101177
101197
101215
101219
101218
101120
101255
100814
100814
100815
100816
100819
100822
100825
100828
100832
100837
100844
100852
100861
100870
100880
100890
100900
100910
100919
100931
100947
100965
100983
101002
101025
101055
101086
101117
101149
101176
101197
101222
101257
101432
101731
101185
101063
101061
101074
101079
101077
101122
101132
101132
101137
101149
101144
101154
101187
101226
101246
101186
101147
101285
100814
100814
100815
100816
100819
100821
100824
100828
100832
100837
100844
100852
100861
100870
100880
100890
100900
100909
100919
100931
100947
100965
100983
101003
101027
101056
101086
101116
101148
101177
101195
101208
101221
101267
101301
101152
101071
101068
101084
101105
101117
101119
101123
101127
101133
101139
101145
101160
101187
101215
101231
101186
101164
101327
100810
100810
100810
100812
100814
100817
100820
100823
100827
100832
100839
100846
100855
100864
100873
100882
100892
100902
100912
100923
100938
100954
100971
100989
101009
101037
101071
101103
101131
101156
101180
101218
101316
101743
101537
101450
101080
101065
101075
101078
101086
101127
101142
101139
101140
101150
101149
101151
101171
101207
101248
101230
101160
101258
100810
100810
100810
100812
100814
100817
100820
100823
100827
100832
100839
100846
100855
100864
100873
100882
100892
100902
100912
100924
100938
100955
100971
100990
101011
101039
101070
101097
101128
101156
101174
101195
101230
101325
101394
101195
101057
101057
101075
101085
101095
101116
101132
101138
101143
101146
101141
101147
101170
101200
101222
101203
101195
101261
100805
100805
100806
100807
100809
100812
100814
100817
100821
100826
100832
100840
100848
100856
100865
100874
100883
100893
100904
100915
100928
100943
100957
100972
100987
101009
101041
101069
101091
101106
101122
101146
101178
101290
101290
101130
101069
101065
101076
101085
101097
101114
101131
101138
101142
101153
101155
101148
101150
101175
101229
101239
101189
101271
100805
100805
100806
100807
100809
100812
100814
100817
100821
100826
100832
100840
100848
100856
100865
100874
100883
100893
100904
100915
100928
100943
100957
100973
100990
101012
101039
101063
101086
101107
101121
101138
101173
101211
101245
101144
101067
101067
101085
101099
101103
101110
101122
101132
101147
101154
101144
101137
101150
101185
101230
101228
101193
101285
100800
100800
100800
100801
100803
100806
100808
100811
100815
100819
100825
100832
100840
100848
100856
100865
100874
100884
100894
100906
100917
100929
100941
100952
100962
100974
100996
101018
101040
101060
101077
101095
101125
101148
101164
101104
101070
101075
101087
101091
101097
101105
101121
101139
101152
101161
101158
101143
101133
101151
101202
101226
101213
101298
100800
100800
100800
100801
100804
100806
100808
100811
100815
100819
100825
100832
100840
100848
100856
100865
100874
100884
100894
100906
100917
100929
100940
100951
100962
100976
100996
101017
101038
101057
101075
101095
101124
101148
101163
101132
101101
101092
101098
101107
101116
101115
101115
101127
101149
101159
101149
101132
101135
101166
101211
101220
101211
101320
100794
100794
100794
100795
100797
100800
100802
100804
100808
100812
100817
100824
100831
100839
100847
100855
100865
100874
100885
100895
100905
100914
100922
100928
100931
100935
100948
100971
100998
101024
101046
101072
101103
101128
101156
101145
101127
101118
101117
101119
101123
101124
101131
101151
101172
101183
101175
101153
101132
101139
101182
101220
101251
101297
100794
100794
100794
100795
100797
100799
100802
100804
100807
100812
100817
100824
100831
100839
100847
100855
100864
100874
100885
100895
100905
100914
100921
100926
100928
100934
100949
100973
100998
101022
101045
101071
101102
101133
101159
101155
101141
101133
101132
101136
101138
101133
101131
101143
101169
101183
101169
101145
101132
101141
101175
101208
101234
101312
100788
100788
100788
100789
100791
100793
100795
100797
100800
100803
100808
100814
100821
100828
100836
100845
100854
100864
100874
100885
100895
100902
100904
100900
100890
100885
100900
100932
100966
100997
101028
101061
101095
101129
101160
101170
101170
101173
101177
101180
101180
101178
101175
101178
101187
101201
101200
101175
101140
101132
101169
101208
101217
101153
100788
100788
100788
100789
100791
100793
100794
100797
100800
100803
100808
100814
100821
100829
100836
100845
100854
100864
100874
100885
100895
100902
100903
100898
100888
100884
100903
100935
100966
100996
101028
101062
101097
101132
101159
101170
101173
101178
101186
101192
101193
101190
101181
101177
101190
101204
101196
101167
101138
101132
101158
101194
101178
101151
100781
100781
100781
100782
100783
100785
100787
100789
100791
100794
100799
100804
100810
100817
100825
100833
100842
100853
100864
100876
100887
100894
100893
100875
100838
100817
100839
100885
100926
100962
101001
101043
101084
101123
101157
101183
101204
101225
101241
101247
101242
101230
101217
101205
101196
101201
101207
101193
101160
101138
101155
101191
101201
101170
100781
100781
100781
100782
100783
100785
100787
100789
100791
100794
100799
100804
100810
100817
100825
100833
100842
100853
100864
100876
100887
100894
100891
100873
100835
100817
100843
100887
100925
100961
101001
101044
101085
101123
101156
101182
101205
101227
101245
101253
101249
101237
101221
101205
101201
101207
101204
101182
101152
101138
101155
101186
101180
101223
100774
100774
100774
100775
100776
100777
100778
100780
100782
100785
100788
100793
100799
100805
100812
100820
100829
100840
100854
100869
100884
100895
100893
100860
100774
100730
100761
100825
100877
100921
100969
101019
101067
101114
101160
101205
101247
101282
101305
101309
101294
101268
101240
101218
101204
101202
101207
101203
101182
101158
101152
101164
101178
101153
100774
100774
100774
100775
100776
100777
100778
100780
100782
100785
100788
100793
100799
100805
100812
100820
100829
100840
100854
100869
100884
100894
100890
100853
100762
100726
100770
100831
100878
100921
100969
101019
101068
101114
101161
101206
101250
101285
101310
101312
101296
101268
101241
101219
101207
101205
101205
101194
101172
101154
101151
101161
101174
101140
100767
100767
100767
100767
100768
100769
100770
100771
100772
100774
100777
100781
100786
100791
100798
100805
100814
100826
100841
100861
100887
100917
100934
100880
100702
100569
100657
100761
100825
100876
100933
100991
101047
101104
101166
101231
101294
101342
101377
101375
101341
101295
101253
101225
101209
101203
101206
101205
101194
101174
101160
101159
101172
101150
100767
100767
100767
100767
100768
100769
100770
100771
100772
100774
100777
100781
100786
100791
100798
100805
100814
100826
100841
100861
100887
100916
100931
100870
100661
100583
100673
100759
100821
100877
100935
100993
101048
101105
101167
101231
101297
101344
101395
101389
101347
101293
101248
101219
101204
101202
101206
101203
101190
101171
101161
101159
101175
101145
100759
100759
100759
100759
100760
100760
100761
100761
100762
100763
100765
100768
100772
100776
100781
100788
100796
100807
100823
100846
100883
100952
101022
101028
100536
100234
100492
100702
100779
100824
100888
100954
101017
101084
101163
101251
101337
101391
101453
101451
101390
101312
101256
101222
101204
101197
101199
101202
101199
101188
101175
101167
101177
101153
100759
100759
100759
100759
100760
100760
100761
100761
100762
100763
100765
100768
100772
100776
100781
100788
100796
100807
100823
100846
100883
100949
101017
101004
100294
100395
100579
100710
100776
100832
100897
100961
101020
101086
101168
101260
101351
101375
101452
101455
101384
101304
101253
101223
101206
101199
101201
101203
101197
101185
101174
101169
101180
101152
100752
100752
100751
100751
100751
100751
100751
100751
100751
100752
100753
100755
100757
100760
100764
100768
100774
100783
100795
100814
100844
100892
101013
101292
100258
100490
100685
100746
100773
100830
100896
100961
101037
101135
101250
101373
101414
101477
101515
101436
101333
101268
101229
101204
101190
101188
101193
101197
101193
101186
101176
101181
101150
100752
100752
100751
100751
100751
100751
100751
100751
100751
100752
100753
100755
100757
100760
100764
100768
100774
100783
100795
100814
100844
100890
101009
101264
100207
100520
100679
100745
100788
100847
100909
100968
101041
101127
101263
101385
101367
101346
101486
101420
101327
101269
101233
101206
101191
101188
101192
101195
101191
101184
101176
101181
101154
100744
100744
100743
100743
100743
100742
100742
100741
100740
100740
100740
100740
100741
100742
100744
100746
100749
100754
100760
100768
100776
100773
100737
100668
100321
100373
100665
100776
100765
100759
100791
100832
100876
100945
101049
101171
101308
101337
101390
101553
101470
101363
101288
101237
101200
101177
101168
101172
101182
101189
101192
101188
101194
101152
100744
100744
100743
100743
100743
100742
100742
100741
100740
100740
100740
100740
100741
100743
100744
100746
100749
100754
100760
100768
100775
100771
100730
100647
100347
100427
100695
100783
100769
100770
100805
100845
100883
100937
100989
101167
101180
101410
101344
101350
101357
101321
101276
101235
101202
101180
101170
101172
101180
101186
101189
101185
101190
101156
100736
100736
100735
100735
100734
100733
100732
100731
100729
100728
100727
100726
100725
100724
100723
100723
100722
100722
100721
100719
100712
100693
100657
100581
100508
100518
100662
100731
100743
100755
100768
100772
100777
100825
100990
101168
101151
101348
101614
101402
101348
101315
101262
101213
101178
101155
101144
101146
101158
101173
101189
101195
101217
101171
100736
100736
100735
100735
100734
100733
100732
100731
100729
100728
100727
100726
100725
100724
100723
100723
100722
100722
100721
100719
100711
100692
100654
100578
100495
100524
100666
100733
100743
100757
100773
100779
100779
100799
100846
101082
100889
101232
101665
100729
101150
101286
101260
101215
101180
101159
101148
101148
101158
101171
101186
101192
101209
101164
100729
100729
100728
100727
100726
100724
100723
100720
100718
100715
100713
100711
100708
100705
100702
100698
100694
100689
100682
100673
100660
100638
100607
100562
100513
100508
100563
100626
100672
100703
100713
100696
100664
100655
100759
101021
102071
101133
100245
100640
101148
101277
101234
101182
101149
101130
101121
101122
101132
101149
101168
101176
101208
101156
100729
100728
100728
100727
100726
100724
100723
100720
100718
100715
100713
100711
100708
100705
100702
100698
100694
100689
100682
100673
100659
100637
100605
100560
100513
100517
100573
100632
100671
100697
100708
100696
100674
100586
100721
101047
101557
99265.2
99732.6
99353.7
100188
101102
101225
101184
101146
101129
101123
101125
101135
101149
101165
101175
101207
101169
100721
100721
100720
100719
100717
100716
100713
100710
100707
100703
100700
100696
100691
100686
100681
100674
100666
100657
100646
100631
100613
100588
100558
100523
100490
100480
100504
100544
100578
100600
100603
100585
100465
100520
100564
99497.2
98587.4
98043
98352.8
99170
100156
101038
101178
101124
101097
101089
101091
101098
101112
101133
101150
101152
101159
101090
100721
100721
100720
100719
100717
100716
100713
100710
100707
100703
100700
100696
100691
100686
100681
100674
100666
100657
100646
100631
100613
100588
100558
100523
100493
100486
100511
100548
100576
100591
100596
100589
100588
100609
100526
100050
101565
98605.4
98472.4
98758.6
99512.4
100535
101100
101131
101098
101084
101087
101099
101116
101133
101144
101140
101167
101133
100714
100714
100713
100711
100709
100707
100704
100701
100696
100692
100687
100681
100675
100668
100660
100650
100639
100626
100611
100592
100570
100543
100513
100482
100455
100440
100442
100451
100457
100463
100464
100488
100218
100417
100756
99935.4
97638.2
97605.7
98474.8
99182.7
99856.4
100708
101023
101034
101033
101039
101052
101069
101095
101134
101171
101183
101188
101189
100714
100714
100713
100711
100709
100707
100704
100701
100696
100692
100687
100681
100675
100668
100660
100650
100639
100626
100611
100592
100570
100543
100513
100483
100457
100442
100444
100451
100453
100452
100452
100500
100473
100534
100702
98711.9
98786.9
97976.8
98656.1
99264.4
99950.5
100618
100907
100996
101035
101039
101048
101068
101100
101136
101160
101168
101151
101086
100708
100707
100706
100704
100702
100699
100696
100691
100686
100680
100674
100667
100659
100650
100640
100627
100613
100597
100578
100556
100530
100501
100470
100436
100404
100376
100353
100333
100314
100312
100338
100588
100362
99394.3
99140.2
98199.3
97367.7
97932.5
98918.8
99662.2
100097
100518
100895
100948
100970
100987
101005
101026
101064
101121
101184
101224
101275
101286
100708
100707
100706
100704
100702
100699
100696
100691
100686
100680
100674
100667
100659
100650
100640
100627
100613
100597
100578
100556
100530
100502
100470
100437
100405
100377
100353
100332
100306
100284
100253
100319
100585
99712.7
95238
95336.5
96993.5
97910.3
98999.4
99784.6
100283
100539
100740
100900
100967
100991
101005
101028
101069
101127
101186
101220
101215
101217
100702
100701
100700
100697
100695
100692
100688
100683
100677
100670
100662
100654
100644
100633
100621
100606
100589
100570
100548
100522
100493
100460
100424
100384
100341
100296
100248
100198
100149
100126
100229
100440
100638
99428.5
96785.6
96489.3
97345
98379.9
99253.3
99742.4
100021
100224
100634
100865
100921
100942
100955
100977
101016
101068
101133
101189
101240
101207
100702
100701
100700
100697
100695
100692
100688
100683
100676
100670
100662
100654
100644
100633
100621
100606
100589
100570
100548
100523
100494
100461
100424
100384
100341
100296
100248
100197
100138
100091
100015
100259
100398
99137.7
95788.3
96242.5
97378.8
98459.7
99324.5
99806.5
100112
100297
100546
100812
100908
100942
100958
100980
101019
101073
101145
101206
101257
101267
100696
100696
100694
100691
100689
100685
100680
100675
100668
100660
100651
100642
100631
100618
100604
100587
100568
100545
100520
100491
100458
100420
100377
100328
100272
100209
100136
100044
99948
99747.1
100012
100215
100251
90137.6
92355.9
95898.8
97779.4
98960.8
99450
99528.7
99714.6
100052
100448
100745
100843
100890
100909
100931
100964
101005
101083
101149
101208
101248
100696
100695
100694
100691
100689
100685
100680
100675
100668
100660
100651
100642
100631
100618
100604
100587
100568
100546
100520
100492
100458
100421
100377
100328
100272
100209
100135
100047
99941.6
99803.1
99712.5
99780.4
97427.4
95865.9
95806.2
96781.5
98101.3
99123.8
99508.2
99518.7
99728.3
100110
100463
100714
100830
100886
100912
100935
100966
101005
101078
101155
101188
101133
100691
100691
100689
100686
100683
100679
100674
100668
100660
100651
100642
100631
100619
100605
100588
100570
100548
100524
100495
100463
100426
100383
100332
100274
100205
100122
100023
99893.1
99727.1
99411.2
98930.2
100258
96200.2
91868.9
94711.9
97533.2
99350.8
100079
99841.5
99430.7
99524.8
99908.4
100304
100599
100752
100835
100868
100890
100913
100945
101007
101073
101135
101225
100691
100691
100689
100686
100683
100679
100674
100667
100660
100651
100642
100631
100619
100605
100588
100570
100548
100524
100496
100463
100426
100383
100333
100274
100204
100122
100022
99903.5
99737.8
99497
99197.9
98859.6
95968.6
93466.8
95940.4
98063.1
99632.8
100233
99876.8
99388.9
99507.4
99967.2
100353
100584
100733
100826
100868
100897
100917
100936
100989
101047
101089
101205
100687
100686
100684
100681
100678
100674
100668
100661
100653
100644
100634
100622
100608
100593
100575
100555
100531
100505
100474
100438
100397
100348
100291
100223
100142
100042
99918.3
99761.4
99547.2
99248.1
98682.9
98421.7
100095
100478
99791.3
100551
101477
101339
100289
99333
99295.6
99719.5
100158
100491
100683
100789
100847
100864
100877
100871
100819
100799
100949
101220
100687
100686
100684
100681
100678
100674
100668
100661
100653
100644
100633
100622
100608
100593
100575
100555
100531
100505
100474
100438
100397
100349
100291
100223
100141
100040
99911.4
99764.4
99577.1
99334.3
99031.7
98334.8
97017.9
97526.9
99151.3
100702
101722
101467
100300
99285.2
99268.8
99760.7
100196
100480
100665
100781
100842
100870
100885
100877
100823
100716
100839
101146
100684
100683
100681
100678
100674
100670
100664
100656
100648
100638
100627
100614
100600
100583
100564
100543
100518
100489
100456
100418
100373
100319
100256
100180
100088
99974.4
99833.7
99657.9
99418.4
99113.1
98611.4
97993.3
98224.5
99668.2
99884.6
100739
101775
101606
100420
99175.6
99071.4
99580.1
100118
100463
100643
100758
100856
100889
100908
100861
100747
100666
100646
101081
100683
100683
100681
100678
100674
100670
100664
100656
100648
100638
100627
100614
100600
100583
100564
100543
100518
100489
100456
100418
100373
100320
100256
100180
100087
99968.5
99831.5
99658.7
99425.6
99138.9
98860.5
97698.7
97205.8
98553
99871.2
101221
101995
101615
100434
99209.1
99043.2
99581.9
100136
100472
100644
100751
100842
100886
100930
100929
100848
100658
100448
100978
100681
100680
100678
100675
100671
100666
100660
100652
100643
100633
100621
100608
100593
100576
100556
100533
100507
100477
100442
100401
100353
100297
100229
100147
100047
99925.5
99775.2
99583.1
99332
99008.4
98609
97966.6
97569.2
98139.5
97802.2
99113.5
100420
100824
100371
99524.3
99311.2
99742
100223
100546
100675
100777
100878
100914
100936
100898
100891
100788
100280
100895
100681
100680
100678
100675
100671
100666
100660
100652
100643
100633
100621
100608
100593
100576
100556
100533
100507
100477
100442
100401
100354
100297
100229
100147
100047
99924.8
99781.5
99588.5
99325.9
99001.6
98566.7
97905.5
97564.6
98168.9
99052
99877.2
99994.4
100283
100147
99615.2
99366.1
99710.7
100209
100559
100698
100772
100859
100913
100960
100970
101054
100985
100248
100754
100680
100679
100676
100673
100669
100664
100658
100650
100641
100630
100618
100605
100589
100571
100551
100527
100500
100469
100433
100390
100340
100281
100210
100124
100020
99891.6
99733
99533.2
99278.9
98955.5
98572
98053.3
97556.1
96914.7
96073.6
96300.8
95668.3
95819.6
96438.3
97926.9
98998.2
99900.7
100367
100649
100796
100886
100939
100949
100957
100966
101101
101050
100173
100550
100680
100679
100676
100673
100669
100664
100658
100650
100641
100630
100618
100605
100589
100571
100551
100527
100500
100469
100433
100390
100340
100281
100210
100124
100020
99892
99735.1
99539.8
99280.6
98946.6
98587.4
98067.6
97577
97420.9
96948.5
96039.2
94989.9
95263.7
96096.6
97730.5
99075.6
99907.2
100362
100644
100792
100885
100936
100954
100961
100994
101228
101320
100343
100584
100678
100677
100675
100672
100668
100663
100656
100648
100639
100628
100616
100602
100587
100569
100548
100524
100496
100465
100428
100385
100334
100273
100200
100112
100005
99873.4
99710.8
99507.8
99253
98934.1
98544
98041.4
97410.3
96806.1
96188.3
94904.2
92696.9
92020.1
92963.1
95330.8
97720.1
99248.6
100028
100424
100702
100878
100941
100948
100939
100950
100955
100761
100314
100501
100678
100677
100675
100672
100668
100663
100656
100648
100639
100628
100616
100602
100587
100569
100548
100524
100497
100465
100428
100385
100334
100273
100200
100112
100005
99873.5
99711.3
99509.9
99255.3
98937.8
98565.2
98106.8
97590.4
96868.6
95560.5
93914.5
92665
92195.9
93038
95193.5
97622.2
99246.4
100031
100413
100672
100864
100945
100949
100942
100965
100996
100837
100400
100502
100631
101012
100430
101424
101420
100426
100351
100430
100322
100197
100390
100998
100386
101429
101380
100426
100221
100371
100178
100211
101285
100747
100411
100711
100304
100392
100223
100397
100190
100277
100158
101263
100698
100286
100695
100266
100192
100221
100250
100193
100230
100271
100803
100875
100790
100929
100813
100917
100789
100630
100681
100612
100621
100532
100591
100507
100775
100864
100766
100905
100746
100900
100718
100602
100654
100602
100512
100464
100465
100441
101090
101021
101085
101071
101224
101070
101226
100453
100572
100509
100565
100475
100343
100307
100420
100206
100234
100166
100234
101076
101013
101074
101067
101210
101060
101213
100009
100468
100253
100320
100258
100476
100421
100509
100176
100294
100240
100375
101098
101012
101104
100876
100861
100873
100853
100530
101303
100987
100984
100591
100273
100355
100284
100192
100284
100229
100321
100211
100334
101097
101005
101097
100868
100841
100867
100841
100478
101267
100995
100480
100982
100198
100206
100331
100257
100396
100261
100375
100321
100421
100501
100658
100492
100618
100508
100619
100512
100117
100327
100202
100405
100380
100413
100410
100494
100643
100492
100619
100517
100619
100519
100281
100348
100304
100421
100415
100422
100410
100899
100824
100606
100815
100948
100888
100578
100748
100795
100891
101261
101346
101435
101351
101280
101052
101100
101265
101343
101433
101351
101249
101051
101032
100396
100481
100522
100533
100319
100439
100454
100421
100304
100285
100283
100437
100402
100306
100395
100237
100220
100246
100299
100791
100709
100421
100721
100962
100855
100392
100697
100694
100832
101267
101308
101403
101190
101349
101125
100950
101236
101342
101398
101334
101250
101040
101039
99973.8
100217
100267
100270
99963.6
100070
100264
100214
100231
100186
100291
100238
100024
100019
100193
100207
100195
100229
100166
100230
100297
100512
101299
100987
100977
100502
100199
100157
100288
100515
100383
100503
100342
100260
100345
100451
100171
100484
100317
100346
100377
100312
100391
100214
100194
100257
100268
100194
100228
100203
100273
100372
100372
100348
100327
100235
100328
100283
100232
100315
100121
100134
100485
101267
100960
100968
100496
100150
100186
100084
100430
100265
100130
100411
100121
100280
100412
100424
100187
100190
100194
100175
100209
100174
100151
100233
100192
100209
100210
100198
100228
100209
100267
100216
100230
100249
100176
100232
100262
100230
100238
101096
100959
101024
101168
100952
101167
101104
101058
100915
100994
101139
100898
101081
101140
101088
101017
100927
101158
100940
101164
101087
100487
100528
100429
100318
100509
100305
100499
100438
100423
100475
100304
100477
100291
100383
101066
101005
100913
101171
100913
101161
101061
100310
100457
100393
100334
100372
100373
100324
100270
100374
100330
100274
100329
100298
100248
100681
100820
100679
100740
100811
100673
100693
100652
100791
100729
100624
100799
100617
100656
100249
100274
100253
100148
100204
100215
100307
100175
100150
100133
100220
100149
100169
100200
100569
100780
100599
100688
100581
100761
100583
100582
100772
100693
100595
100767
100594
100594
100176
100156
100240
100237
100174
100167
100244
100181
100215
100257
100267
100195
100235
100208
100512
100537
100416
100478
100554
100467
100470
100328
100259
100224
100329
100314
100133
100188
100263
100509
100481
100544
100482
100557
100489
100484
99965.8
100183
100094
99593.8
100271
99845.9
99724.6
99738.6
99581.4
99721.4
99653.3
100109
100183
100453
99929.9
100190
100376
99849.3
99641.9
99587.6
99653.5
99541.1
100960
100713
100778
100548
100726
100946
100798
101168
101436
101444
101179
101158
101422
101428
101144
100973
100551
100770
100795
100746
100803
100967
100320
100355
101076
100681
100485
100786
100772
100952
100789
101263
101452
101267
101196
101263
101470
101343
101062
101106
100488
100779
100748
100991
100782
100803
100191
100203
100506
100845
100489
100915
100863
100472
100518
100382
100305
100270
100398
100352
100170
100221
100312
100509
100918
100861
100555
100865
100523
100560
100401
100830
100456
100871
100443
100810
100416
100189
99896.9
99934.6
100331
100228
100139
100288
100081
100417
100866
100828
100270
100805
100432
100565
101489
101315
101474
101262
101313
101474
101486
101549
101524
101535
101533
101542
101519
101524
101535
101497
101274
101317
101481
101319
101485
101475
101060
101071
101489
101315
101279
101479
101315
101488
101474
101542
101527
101511
101510
101492
101285
101334
101480
101316
101473
101481
101538
101530
101543
101519
101058
101061
100326
100482
100339
100356
100399
100444
100252
100028
99688.3
99821.8
99871.9
100114
100078
100192
100016
100298
100307
100468
100098
100269
100411
100186
100452
100450
100339
100400
100347
100429
100416
100351
100331
100338
100389
100391
100346
100316
100339
100302
100367
100355
100433
100423
100364
100427
100365
100360
100363
100323
100302
100372
100365
100326
100359
100301
100320
100247
100230
100253
100244
100297
100330
100318
100293
100337
100311
100296
100255
100289
100262
100264
100342
100733
100766
100239
100755
100334
100223
100036
99731.7
99784.5
100098
100273
100883
100842
100607
100779
100403
100373
100153
99823.5
99872
100133
100225
100729
100374
100824
100247
100725
100323
99992.2
99776.4
99719.6
100041
99991.2
99749
100034
99704.6
100234
100757
100730
100315
100719
100255
100310
101554
101309
101336
101621
101274
101490
101552
101982
101520
101335
101438
101462
101298
101346
101691
101256
101464
101444
101655
101689
101374
101638
101182
101135
101605
101299
101615
101240
101266
101480
101565
101600
101490
101561
101509
101579
101565
101583
101557
101584
101256
101277
101579
101228
101639
101442
101110
101064
99908.8
100167
99554.5
99978.4
99844.7
100205
99584.9
99550.9
99638.1
99551.9
99632.5
99559.8
99548
99530.3
99527
99866.2
99973.2
100136
99578.8
100171
99582.9
99874
100142
100214
100232
100224
100265
100226
100271
100246
100223
100250
100217
100246
100223
100266
100253
100304
100287
100278
100295
100268
100230
100212
100219
100216
100009
100029
100194
100253
100206
100163
100224
100221
100178
100207
100221
100217
100228
100209
100208
100218
100210
100181
100162
100213
100196
100208
100184
100197
100243
100244
100951
100724
100762
100517
100937
100743
100770
101150
101425
101145
101415
101154
101430
101145