/*--------------------------------*- C++ -*----------------------------------*\
| =========                 |                                                 |
| \\      /  F ield         | OpenFOAM: The Open Source CFD Toolbox           |
|  \\    /   O peration     | Version:  4.1                                   |
|   \\  /    A nd           | Web:      www.OpenFOAM.org                      |
|    \\/     M anipulation  |                                                 |
\*---------------------------------------------------------------------------*/
FoamFile
{
    version     2.0;
    format      ascii;
    class       volVectorField;
    location    "56";
    object      U;
}
// * * * * * * * * * * * * * * * * * * * * * * * * * * * * * * * * * * * * * //

dimensions      [0 1 -1 0 0 0 0];

internalField   nonuniform List<vector> 
4432
(
(39.9815 0.00023742 0.0506696)
(39.9197 0.000749433 0.0907591)
(39.8292 0.00152693 0.120143)
(39.703 0.00176119 0.148715)
(39.5347 0.00160222 0.178341)
(39.3269 0.00150856 0.209188)
(39.0822 0.00162222 0.241581)
(38.7998 0.00186931 0.275122)
(38.4758 0.00215818 0.309972)
(38.1077 0.00239624 0.345718)
(37.6955 0.00257813 0.380573)
(37.2422 0.00276767 0.414969)
(36.7539 0.00278585 0.442408)
(36.2496 0.0028414 0.462737)
(35.7331 -1.40262e-06 0.456747)
(35.3201 -0.00472191 0.403801)
(34.9623 -0.00297038 0.448417)
(34.8299 0.000531944 0.358428)
(34.9016 0.00177712 0.256493)
(34.8796 0.00439292 0.378137)
(34.6455 -0.000668019 0.474494)
(34.2926 -0.0117285 0.603543)
(33.8365 -0.0230518 0.684369)
(33.3155 -0.0321362 0.676698)
(32.7348 -0.0387441 0.657066)
(32.1228 -0.0439531 0.526632)
(31.5688 -0.0396185 0.318377)
(31.105 -0.0246184 0.0975782)
(30.7725 -0.0134612 0.00124586)
(30.5608 -0.0142968 -0.00194424)
(30.4253 -0.0259047 0.108156)
(30.2768 -0.0414976 0.33721)
(30.0281 -0.0480328 0.403172)
(29.8162 -0.0239567 -0.00821898)
(29.8173 0.0162183 -0.810192)
(29.9663 0.0420336 -1.22196)
(30.2431 0.0437795 -1.1375)
(30.3274 -0.00945444 -1.03651)
(30.1911 0.00694694 -0.867358)
(30.1061 0.0725417 -0.659817)
(30.1555 0.0850962 -0.581732)
(30.1505 0.0563568 -0.611588)
(30.0293 0.00310179 -0.540645)
(29.7306 -0.0179893 -0.462826)
(29.4324 0.00384954 -0.420397)
(29.1191 0.0712989 -0.44577)
(28.9024 0.0606474 -0.347936)
(29.0998 -0.0917471 -0.447313)
(28.9476 -0.105201 -0.538938)
(28.6444 -0.0675989 -0.636312)
(28.8542 0.0529738 -0.430154)
(30.1322 0.070435 -1.1217)
(31.1996 0.00916107 -1.79154)
(32.2759 0.290399 -0.438866)
(39.9819 0.000237408 0.0506736)
(39.9203 0.000749453 0.0908049)
(39.8293 0.00152686 0.120271)
(39.7021 0.00176177 0.148783)
(39.5335 0.00160284 0.17829)
(39.3259 0.00150859 0.209155)
(39.0814 0.00162135 0.241518)
(38.7991 0.00186764 0.275113)
(38.4749 0.00215639 0.310129)
(38.1066 0.00239451 0.345891)
(37.694 0.00257785 0.38106)
(37.2405 0.00276914 0.415242)
(36.7526 0.00278852 0.443662)
(36.2432 0.00284456 0.462922)
(35.7294 9.82878e-06 0.463176)
(35.2674 -0.00476495 0.41336)
(34.9032 -0.00302237 0.397557)
(34.8136 0.0004693 0.31282)
(34.8947 0.00181605 0.246233)
(34.9035 0.00432765 0.389232)
(34.6725 -0.00076308 0.461848)
(34.3146 -0.0117828 0.522115)
(33.8669 -0.0231905 0.567448)
(33.3397 -0.0326509 0.561124)
(32.738 -0.0396215 0.546911)
(32.0887 -0.045689 0.406366)
(31.4801 -0.0430426 0.21322)
(30.9798 -0.0288636 0.0734712)
(30.5989 -0.0183265 -0.0224478)
(30.3231 -0.0212745 -0.143352)
(30.2039 -0.0349476 -0.291824)
(30.1655 -0.0544767 -0.33722)
(30.1087 -0.061729 -0.210896)
(30.0023 -0.0374218 -0.103536)
(30.0302 0.00788164 -0.398222)
(30.1184 0.0415452 -0.694072)
(30.3429 0.0478468 -0.642926)
(30.3881 -0.0105614 -0.612747)
(30.3929 -0.0129642 -0.531333)
(30.3218 0.0605324 -0.429682)
(30.3044 0.0983146 -0.362058)
(30.2678 0.0836501 -0.332082)
(30.1346 0.0269807 -0.239215)
(29.8679 0.00230751 -0.177748)
(29.6021 0.02582 -0.180592)
(29.1964 0.0917396 -0.300694)
(28.7354 0.0923303 -0.158962)
(28.8333 -0.0782135 -0.0204668)
(28.8274 -0.0884428 -0.0717594)
(28.6897 -0.0201289 -0.18876)
(29.0317 0.070028 -0.343654)
(30.0583 0.0719523 -0.906893)
(31.1394 -0.000224457 -1.54909)
(32.7932 0.280699 -0.302189)
(40.008 0.000241135 0.01857)
(40.0375 0.000750673 0.0569179)
(40.0749 0.0015472 0.097217)
(40.1116 0.00179548 0.137739)
(40.1415 0.00164463 0.178471)
(40.1669 0.0015654 0.220026)
(40.1916 0.00173601 0.262905)
(40.2153 0.00210357 0.307511)
(40.2355 0.00255231 0.354178)
(40.2499 0.00296943 0.402882)
(40.2568 0.0032919 0.45298)
(40.2526 0.00339666 0.502336)
(40.2348 0.00364483 0.547943)
(40.1858 0.00338961 0.579361)
(40.106 0.00640361 0.602198)
(39.8608 0.00807827 0.578952)
(39.554 0.0103718 0.46721)
(38.8814 0.00983327 0.388399)
(37.9307 0.000525263 0.407402)
(37.1013 -0.00213473 0.451286)
(36.3866 0.000237146 0.517389)
(35.7607 0.00335024 0.604477)
(35.2225 0.00641354 0.69113)
(34.71 0.00925627 0.781907)
(34.2203 0.0106654 0.846566)
(33.7437 0.0120868 0.845015)
(33.2674 0.0146119 0.789004)
(32.7686 0.0222233 0.714529)
(32.207 0.0375852 0.610596)
(31.6576 0.0467859 0.465944)
(31.1414 0.0522691 0.330985)
(30.6279 0.0549155 0.298701)
(30.2287 0.0524171 0.257717)
(30.0259 0.0439956 0.134159)
(30.0357 0.0281399 0.0773752)
(30.1068 -0.00290475 0.228801)
(30.2048 -0.0507867 0.476265)
(30.0769 -0.0881474 0.621186)
(29.9234 -0.0806127 0.631191)
(29.7567 -0.0648085 0.467566)
(29.5782 -0.0829329 0.224839)
(29.468 -0.130326 0.247236)
(29.2567 -0.171145 0.365019)
(28.9297 -0.192655 0.473746)
(28.651 -0.208288 0.53815)
(28.4195 -0.201828 0.458729)
(28.224 -0.201619 0.567088)
(28.2764 -0.17763 0.323229)
(27.6152 -0.156134 0.210234)
(27.7641 -0.246355 -0.0397891)
(27.5657 -0.178643 -0.0444923)
(26.2842 0.0191897 -0.739584)
(29.1436 0.234899 -1.36028)
(31.2389 0.154728 -3.65335)
(40.0084 0.000241129 0.018567)
(40.038 0.000750694 0.0569346)
(40.075 0.00154726 0.097213)
(40.1108 0.00179559 0.137695)
(40.1403 0.00164482 0.178418)
(40.1661 0.00156574 0.220017)
(40.1912 0.00173629 0.263015)
(40.2153 0.00210481 0.307785)
(40.2357 0.00255132 0.354653)
(40.2502 0.0029721 0.403474)
(40.2569 0.00328648 0.453546)
(40.2527 0.00340369 0.502967)
(40.234 0.00362224 0.547883)
(40.1894 0.0034846 0.581965)
(40.1042 0.00603287 0.594131)
(39.9253 0.00783085 0.56494)
(39.6102 0.011025 0.483817)
(38.9221 0.0100755 0.372314)
(37.9446 0.000542002 0.391655)
(37.0953 -0.00196011 0.443159)
(36.4002 0.000341961 0.497482)
(35.779 0.00348797 0.573763)
(35.2406 0.00668453 0.645614)
(34.7348 0.00988369 0.720242)
(34.2537 0.0116677 0.77789)
(33.7964 0.0139727 0.775373)
(33.3321 0.018246 0.751565)
(32.8404 0.0255046 0.716946)
(32.3448 0.0373918 0.622467)
(31.8906 0.0509582 0.455045)
(31.4269 0.0665445 0.297078)
(30.8823 0.0832411 0.226071)
(30.3997 0.0784146 0.150312)
(30.1604 0.0628557 0.0504152)
(30.1841 0.0361548 -0.0269694)
(30.2706 0.000269664 0.0698881)
(30.432 -0.0530837 0.223841)
(30.403 -0.0941591 0.351262)
(30.2716 -0.0906622 0.375269)
(30.1097 -0.055602 0.311352)
(30.0943 -0.0609621 0.192499)
(30.0851 -0.103429 0.267676)
(30.0093 -0.155564 0.415092)
(29.7932 -0.181066 0.50337)
(29.6184 -0.20234 0.504696)
(29.4817 -0.195794 0.344972)
(29.3506 -0.193503 0.420663)
(29.3156 -0.175165 0.468195)
(29.2508 -0.192775 0.23395)
(28.8604 -0.235872 -0.223581)
(28.3187 -0.0961608 -0.355438)
(27.8581 0.036787 -1.00855)
(30.4818 0.187795 -1.16755)
(32.416 0.110329 -3.10731)
(39.9995 0.000238511 0.0258535)
(39.9919 0.000744472 0.0736812)
(39.9729 0.00152807 0.119012)
(39.9371 0.0017688 0.162523)
(39.88 0.00162529 0.205784)
(39.8044 0.00157392 0.249842)
(39.7144 0.00178537 0.295309)
(39.6105 0.00219576 0.342599)
(39.4913 0.00267357 0.391997)
(39.3555 0.00308805 0.443479)
(39.2029 0.00333904 0.496709)
(39.0339 0.00341651 0.550883)
(38.8479 0.00332097 0.605247)
(38.6452 0.00337524 0.658529)
(38.4115 0.00317419 0.71432)
(38.1886 0.00442938 0.784372)
(37.8623 0.00425467 0.836632)
(37.5512 0.00560409 0.937035)
(37.2058 0.00357702 1.1079)
(36.7871 0.00230136 1.21973)
(36.3116 0.00306417 1.26454)
(35.8156 0.00485013 1.27715)
(35.3317 0.0074079 1.29718)
(34.8462 0.0115379 1.32719)
(34.3592 0.0138322 1.35187)
(33.8651 0.0175563 1.3227)
(33.3327 0.0256863 1.24001)
(32.7394 0.0382421 1.16095)
(32.0607 0.0499821 1.01775)
(31.3203 0.0475121 0.885608)
(30.4341 0.0450912 0.901293)
(29.4481 0.0630659 0.955794)
(28.6146 0.114788 0.820161)
(27.8971 0.202819 0.401432)
(27.5297 0.260486 -0.450927)
(27.9498 0.0827833 -0.48236)
(28.0224 -0.117431 -0.0283578)
(27.8627 -0.219644 0.297537)
(27.4583 -0.237682 0.465989)
(27.2459 -0.0998404 0.0417251)
(27.2516 -0.0690309 -0.198213)
(27.3294 -0.14878 0.12394)
(27.1982 -0.20625 0.399527)
(26.9004 -0.235228 0.513834)
(26.5752 -0.247038 0.570212)
(26.3188 -0.224193 0.566589)
(26.0962 -0.22326 0.51915)
(25.9978 -0.159934 0.335411)
(25.8924 -0.18855 0.160523)
(25.9352 -0.182377 -0.304466)
(26.2112 -0.0891441 -0.40446)
(26.809 -0.0278143 -0.692002)
(26.1787 0.22877 -3.02054)
(24.2286 0.367316 -5.64219)
(39.9998 0.000238506 0.025847)
(39.9925 0.000744492 0.0736589)
(39.973 0.00152813 0.118961)
(39.9363 0.00176891 0.162459)
(39.8788 0.00162548 0.205723)
(39.8036 0.00157422 0.2498)
(39.714 0.00178585 0.295292)
(39.6104 0.00219637 0.342606)
(39.4912 0.00267456 0.392023)
(39.3552 0.00308914 0.443499)
(39.2022 0.00333955 0.496677)
(39.0329 0.00341785 0.550811)
(38.8472 0.00332108 0.604889)
(38.6435 0.00337743 0.658111)
(38.416 0.00317816 0.711798)
(38.1659 0.0043659 0.77696)
(37.8697 0.0039755 0.852457)
(37.5483 0.00582258 0.944276)
(37.2024 0.00374514 1.10207)
(36.7915 0.0023975 1.20595)
(36.3237 0.00317525 1.24555)
(35.8348 0.00503346 1.25065)
(35.3582 0.00779343 1.26073)
(34.8722 0.0125601 1.30299)
(34.377 0.0153461 1.33395)
(33.8794 0.0195298 1.31007)
(33.3455 0.0285831 1.25803)
(32.7714 0.0420882 1.20555)
(32.1617 0.0547149 1.10306)
(31.4841 0.0593738 0.946036)
(30.5767 0.0564321 0.95185)
(29.6093 0.0707108 1.01877)
(28.8282 0.130896 0.844424)
(28.4114 0.20297 0.385681)
(28.374 0.202127 -0.105878)
(28.6183 0.0941738 -0.300067)
(28.8272 -0.0412754 -0.249329)
(28.7325 -0.158713 -0.186106)
(28.501 -0.184797 -0.222328)
(28.3101 -0.0900659 -0.381868)
(28.2164 -0.0573866 -0.495423)
(28.1607 -0.0998479 -0.277058)
(27.9771 -0.140957 -0.0993916)
(27.5903 -0.157742 -0.0380315)
(27.2328 -0.184387 0.0204343)
(26.9869 -0.16971 -0.00540423)
(26.7802 -0.172512 -0.0917414)
(26.5693 -0.108845 -0.139504)
(26.4083 -0.147203 -0.493831)
(26.1284 -0.137538 -0.749106)
(26.4484 -0.075174 -0.700732)
(27.0132 0.00804767 -0.908153)
(27.7172 -0.136289 -0.133879)
(24.7055 0.443311 -5.1864)
(39.9992 0.000235001 0.0328203)
(39.9906 0.000729049 0.0960759)
(39.9717 0.00149744 0.160295)
(39.9371 0.0017289 0.225567)
(39.8812 0.00157683 0.292507)
(39.8057 0.00151185 0.361417)
(39.7137 0.00170496 0.43241)
(39.6049 0.0020971 0.505519)
(39.4769 0.00256104 0.580743)
(39.3272 0.00296965 0.657965)
(39.1545 0.00322148 0.737012)
(38.9581 0.0033028 0.817747)
(38.7373 0.00318091 0.900226)
(38.4924 0.00317528 0.985528)
(38.2198 0.00284053 1.07657)
(37.9315 0.00396524 1.17858)
(37.6076 0.00289077 1.31304)
(37.2274 0.00256845 1.37391)
(36.8797 0.00301632 1.44427)
(36.5248 0.00345985 1.53964)
(36.1453 0.00429121 1.63191)
(35.7377 0.00436084 1.68849)
(35.2869 0.004267 1.73918)
(34.7743 0.00519311 1.79889)
(34.228 0.00384473 1.86499)
(33.6447 0.00341973 1.88199)
(32.9689 0.00977011 1.86703)
(32.2003 0.0190918 1.89579)
(31.2962 0.0195119 1.9347)
(30.1042 0.0213189 2.00279)
(28.7155 0.0290695 2.16508)
(27.4641 0.0480005 2.11082)
(26.4116 0.0913427 1.65352)
(25.6432 0.159782 0.524283)
(25.8301 0.156854 -0.936676)
(26.3944 -0.080573 -0.529186)
(26.541 -0.331197 0.35774)
(26.0441 -0.559172 0.923117)
(25.5517 -0.499232 1.03673)
(25.4259 -0.183641 0.224162)
(25.4772 -0.0866799 -0.0766922)
(25.6289 -0.179953 0.480249)
(25.3765 -0.256755 0.987047)
(24.9591 -0.260101 1.0816)
(24.579 -0.234395 1.08208)
(24.2678 -0.224994 1.05534)
(23.8905 -0.279357 0.873618)
(23.7463 -0.172883 0.717765)
(23.5948 -0.217483 0.721506)
(23.3556 -0.24915 0.2886)
(23.9798 -0.176175 -0.704877)
(24.5112 -0.15861 -1.2309)
(24.843 -0.0461419 -1.47972)
(22.5564 0.846735 -1.90344)
(39.9995 0.000234996 0.0328152)
(39.9912 0.000729069 0.0960531)
(39.9718 0.00149749 0.160252)
(39.9363 0.00172901 0.22551)
(39.88 0.00157701 0.292439)
(39.8048 0.00151213 0.361331)
(39.7133 0.00170539 0.432298)
(39.6048 0.0020977 0.505378)
(39.4768 0.00256185 0.580577)
(39.3269 0.00297059 0.657785)
(39.1538 0.00322264 0.736835)
(38.957 0.00330418 0.817561)
(38.7362 0.00318179 0.900044)
(38.4908 0.00317963 0.98522)
(38.2204 0.00284063 1.07628)
(37.9278 0.00399407 1.17831)
(37.6176 0.0028581 1.3106)
(37.2286 0.00251492 1.40361)
(36.8822 0.00306217 1.44719)
(36.5305 0.00355212 1.52801)
(36.1526 0.00447498 1.61308)
(35.7452 0.00464525 1.6637)
(35.2787 0.00442747 1.71553)
(34.7564 0.00495999 1.81059)
(34.221 0.00368039 1.87803)
(33.6291 0.00313235 1.90878)
(32.9295 0.0109192 1.95763)
(32.1473 0.0215865 2.03457)
(31.2601 0.0219066 2.09932)
(30.0946 0.0234057 2.16142)
(28.7882 0.0294213 2.26149)
(27.6303 0.046126 2.23833)
(26.6469 0.0874114 1.96465)
(25.8771 0.176407 1.17225)
(26.0063 0.193601 -0.240618)
(26.6405 -0.0714026 -0.601893)
(26.9416 -0.357032 -0.363427)
(26.805 -0.698701 -0.0552693)
(26.354 -0.881646 0.302701)
(26.1023 -0.65524 0.0317411)
(26.2077 -0.203559 -0.336223)
(26.2516 -0.18389 -0.0745203)
(25.9238 -0.2068 0.25655)
(25.4518 -0.225514 0.324662)
(25.1093 -0.19291 0.400278)
(24.6715 -0.186267 0.38485)
(24.2966 -0.213377 0.304015)
(24.0213 -0.136598 0.163354)
(23.9304 -0.142885 0.040909)
(23.8684 -0.162885 -0.4738)
(23.9781 -0.145211 -1.07359)
(24.2366 -0.0483022 -1.43089)
(24.7352 -0.462019 -1.57154)
(24.6444 0.83081 -2.54881)
(39.9993 0.000233569 0.0406058)
(39.9908 0.00072334 0.119719)
(39.9723 0.00148609 0.200512)
(39.9384 0.00171058 0.282128)
(39.8837 0.00155364 0.364902)
(39.8099 0.0014835 0.449388)
(39.7204 0.00166954 0.536062)
(39.6149 0.00205353 0.625319)
(39.4908 0.00251035 0.717495)
(39.3459 0.00291314 0.812886)
(39.1787 0.00316529 0.911771)
(38.9886 0.00322975 1.01451)
(38.7755 0.00314488 1.12157)
(38.539 0.00302943 1.23421)
(38.281 0.00305617 1.35356)
(37.9956 0.00330924 1.48327)
(37.7069 0.00480065 1.6225)
(37.3225 0.00555754 1.74966)
(36.9304 0.00368194 1.82389)
(36.505 0.0051756 1.90179)
(36.0908 0.00682583 2.00448)
(35.6573 0.00537479 2.10315)
(35.1723 0.00262185 2.24892)
(34.5947 -0.000531593 2.38192)
(33.9595 -0.00810501 2.49951)
(33.2332 -0.0123181 2.59218)
(32.3424 -0.00471515 2.67015)
(31.3543 0.00556514 2.85873)
(30.2236 0.0050272 3.13976)
(28.878 0.00635258 3.40897)
(27.5168 0.0187645 3.4997)
(26.2824 0.0482578 3.20806)
(25.1687 0.102377 2.30159)
(24.3894 0.202791 0.41371)
(24.7068 0.297432 -1.68362)
(24.259 -0.0671072 -1.12056)
(24.4804 -0.615887 1.60704)
(24.1341 -0.94875 2.72589)
(23.7712 -1.05252 2.77034)
(23.3792 -0.308171 0.781648)
(23.0247 -0.101771 0.0380722)
(23.3004 -0.32506 0.784495)
(22.9663 -0.450392 1.28625)
(22.5223 -0.441638 1.28988)
(22.1812 -0.381614 1.19108)
(21.8208 -0.300606 1.12069)
(21.5398 -0.215104 0.974182)
(21.7471 -0.10093 0.731712)
(20.1351 -0.291883 1.27814)
(20.9643 -0.344963 0.676816)
(20.7974 -0.324415 -0.155884)
(20.219 0.237278 -1.07764)
(22.0029 -0.259619 -1.54469)
(19.211 0.136258 -0.446125)
(39.9996 0.000233563 0.0405992)
(39.9913 0.00072336 0.119692)
(39.9723 0.00148614 0.200462)
(39.9376 0.00171068 0.282074)
(39.8825 0.00155381 0.364857)
(39.8091 0.00148378 0.449341)
(39.72 0.00166997 0.535994)
(39.6148 0.00205414 0.625212)
(39.4907 0.00251112 0.717337)
(39.3456 0.00291414 0.812673)
(39.178 0.00316617 0.911512)
(38.9876 0.00323226 1.0142)
(38.7743 0.00315021 1.12128)
(38.538 0.00303516 1.23382)
(38.2799 0.00307189 1.35345)
(37.9978 0.003296 1.48298)
(37.699 0.00483491 1.62383)
(37.3526 0.00567756 1.7661)
(36.9595 0.00339663 1.82792)
(36.5263 0.0054379 1.89524)
(36.1002 0.00766173 1.99878)
(35.6507 0.00686783 2.10765)
(35.1143 0.00268888 2.24803)
(34.5395 -0.000952977 2.37782)
(33.9218 -0.00837499 2.49268)
(33.1488 -0.0128839 2.61324)
(32.2641 -0.00364942 2.76122)
(31.3279 0.00693715 2.98387)
(30.2501 0.00578616 3.22994)
(28.9792 0.00589946 3.45865)
(27.6791 0.0169219 3.53286)
(26.5028 0.0449438 3.31541)
(25.5423 0.0918926 2.63651)
(24.9854 0.199931 1.15819)
(25.4311 0.415902 -0.904207)
(26.102 0.139277 -1.61134)
(27.0079 -0.149326 -1.59506)
(27.1809 -0.215692 -1.23059)
(26.6636 -0.379127 -0.771112)
(26.1223 -0.192189 -0.659442)
(25.124 -0.0388502 -0.456611)
(24.9921 -0.188047 -0.152716)
(24.5238 -0.267925 0.0972897)
(24.0448 -0.273479 0.0395185)
(23.6168 -0.234984 -0.0149486)
(23.1742 -0.161439 -0.0541424)
(22.7928 -0.0471485 -0.0627114)
(22.5626 0.00243956 -0.046557)
(22.2184 -0.0826499 0.173483)
(22.0796 -0.27427 -0.39662)
(20.9483 0.0294292 -0.79927)
(20.9567 0.228596 -1.23305)
(22.2542 -0.179296 -1.27718)
(20.9549 0.313104 -1.78113)
(39.9993 0.000228641 0.0483241)
(39.991 0.000704219 0.142597)
(39.973 0.00144898 0.238975)
(39.9404 0.00167421 0.336627)
(39.8877 0.00152823 0.436126)
(39.8168 0.00146135 0.538221)
(39.7308 0.00163475 0.64347)
(39.6292 0.00199096 0.752269)
(39.5095 0.00240829 0.864945)
(39.3693 0.00276556 0.981822)
(39.2074 0.00297374 1.10325)
(39.0231 0.00299804 1.22963)
(38.8169 0.00290185 1.36152)
(38.5889 0.00273638 1.49965)
(38.3408 0.00287761 1.64508)
(38.0711 0.00296194 1.79898)
(37.7899 0.00447199 1.9615)
(37.4764 0.00365334 2.14454)
(37.1481 0.00420539 2.27364)
(36.7163 0.00740902 2.37418)
(36.2466 0.00983707 2.4599)
(35.6767 0.00509952 2.59)
(35.1097 -0.00143665 2.7877)
(34.5295 -0.00737469 3.02115)
(33.849 -0.0183161 3.265)
(33.0051 -0.0206488 3.51732)
(31.9015 -0.00764292 3.71368)
(30.7231 0.0104635 3.98531)
(29.535 0.01473 4.37629)
(28.2437 0.0163022 4.70771)
(26.9146 0.0332808 4.75584)
(25.5757 0.0811754 4.35185)
(24.0359 0.186289 3.27088)
(22.6174 0.49662 1.09565)
(21.9027 0.996285 -0.695608)
(7.76322 0.0778212 1.97939)
(11.8133 -0.657638 1.2785)
(12.589 -1.08291 1.27201)
(13.7682 -1.65536 3.22066)
(15.4087 -0.448976 -0.753233)
(17.3787 -0.21053 -0.285603)
(17.4317 -0.931395 2.26788)
(17.4495 -0.894601 2.40902)
(17.6884 -0.780527 2.01921)
(17.837 -0.64565 1.66112)
(17.6579 -0.550301 1.51198)
(17.5922 -0.349744 1.52728)
(17.5043 -0.196473 1.63088)
(17.4191 -0.0423411 1.63822)
(17.0039 0.0513564 1.32505)
(16.0609 0.108542 1.01111)
(15.3477 0.275973 0.735983)
(17.3635 0.14733 0.517094)
(14.9926 -0.383377 -1.10304)
(39.9996 0.000228635 0.0483164)
(39.9916 0.000704246 0.142569)
(39.9731 0.001449 0.238923)
(39.9395 0.00167445 0.336578)
(39.8866 0.00152783 0.436094)
(39.816 0.00145983 0.53819)
(39.7304 0.00163306 0.643414)
(39.629 0.00198938 0.752162)
(39.5093 0.00240688 0.864768)
(39.3689 0.00276438 0.981573)
(39.2066 0.00297254 1.10293)
(39.0221 0.00299793 1.22927)
(38.8157 0.00290648 1.36116)
(38.5879 0.0027435 1.49931)
(38.3398 0.0028838 1.64485)
(38.0721 0.00299251 1.79862)
(37.7868 0.00433597 1.96201)
(37.4846 0.00425391 2.13481)
(37.1485 0.00151598 2.28446)
(36.7327 0.00776634 2.41678)
(36.2627 0.011456 2.51934)
(35.7172 0.00674641 2.66344)
(35.1091 -0.00135726 2.82407)
(34.4829 -0.00755449 3.02061)
(33.7712 -0.0190714 3.24482)
(32.8822 -0.0205078 3.49783)
(31.8456 -0.00695787 3.73018)
(30.7882 0.00948023 4.04888)
(29.6518 0.0127017 4.39873)
(28.3914 0.0141363 4.6967)
(27.1242 0.0309072 4.7596)
(25.9321 0.07557 4.4571)
(24.8155 0.172897 3.61336)
(23.9925 0.604297 1.91384)
(24.6124 2.06638 -0.390336)
(25.8623 3.51348 -2.39259)
(27.0537 3.2604 -2.36116)
(26.6763 2.98197 -1.78292)
(25.5613 2.77094 -1.11022)
(25.2907 2.4405 -0.558194)
(22.5612 0.882296 0.119271)
(22.1151 0.499376 0.55467)
(21.4977 0.516541 0.437239)
(21.1397 0.592875 0.130526)
(20.8221 0.683038 -0.16116)
(20.4475 0.730704 -0.286641)
(19.9932 0.908069 -0.0902149)
(19.7065 1.0151 0.297617)
(19.4826 1.06782 0.492024)
(18.7896 1.08276 0.427934)
(18.5017 1.01387 0.206394)
(17.4696 1.17534 -0.638756)
(19.8007 1.07985 0.344365)
(15.444 0.889037 -1.19699)
(39.9993 0.000226154 0.0557641)
(39.9914 0.000696673 0.16469)
(39.9744 0.00143617 0.276175)
(39.9435 0.00166073 0.389403)
(39.8934 0.00151794 0.504964)
(39.8258 0.00144885 0.623587)
(39.7435 0.00160987 0.745849)
(39.6461 0.00194464 0.87222)
(39.531 0.00233568 1.00317)
(39.3959 0.0026677 1.13918)
(39.2395 0.00285602 1.28078)
(39.0615 0.00287631 1.42851)
(38.8621 0.00277677 1.58292)
(38.6419 0.00267537 1.74441)
(38.4022 0.00275021 1.91359)
(38.1439 0.00301809 2.09041)
(37.868 0.00362396 2.27489)
(37.577 0.00457207 2.46927)
(37.2627 0.00521783 2.64952)
(36.9033 0.00526151 2.84319)
(36.4889 0.00479218 3.02724)
(35.9695 -0.000760316 3.2533)
(35.3602 -0.00492447 3.42446)
(34.696 -0.0144552 3.68348)
(34.0064 -0.0291788 4.09773)
(33.1472 -0.0349771 4.59592)
(31.9809 -0.00821031 4.98262)
(30.6454 0.0269532 5.22383)
(29.3461 0.0331008 5.57936)
(28.0175 0.029359 5.96214)
(26.6707 0.0496202 6.11872)
(25.221 0.108292 5.85973)
(23.226 0.270162 5.21118)
(21.7023 0.806645 4.17704)
(5.88662 0.545437 0.167573)
(5.14802 0.0236789 1.97158)
(5.35735 -0.42397 3.94498)
(3.77919 0.992062 1.56836)
(2.92139 -0.23027 1.02613)
(-1.4888 -2.64415 -2.88662)
(7.85848 -1.50268 -1.02286)
(7.21061 -0.745458 0.0967606)
(6.55437 -0.103057 1.00026)
(6.83196 0.118804 1.17681)
(7.29142 0.121716 1.04719)
(6.95878 0.0581441 0.750701)
(6.59337 0.479021 0.623027)
(6.67756 0.737914 -0.582542)
(7.01126 0.655405 -0.962287)
(7.47948 0.0587557 -1.15793)
(8.15875 -0.389225 -1.45096)
(9.55837 -0.39641 -2.1643)
(13.3853 -0.114981 -3.43108)
(15.8216 -1.06125 -5.64277)
(39.9997 0.000226147 0.055755)
(39.992 0.000696699 0.164654)
(39.9745 0.00143619 0.276107)
(39.9427 0.00166097 0.389333)
(39.8923 0.00151753 0.504907)
(39.8249 0.0014473 0.623531)
(39.743 0.0016081 0.745768)
(39.6459 0.00194289 0.872095)
(39.5308 0.00233412 1.00299)
(39.3955 0.00266595 1.13896)
(39.2387 0.00285581 1.28053)
(39.0604 0.00287831 1.42826)
(38.8609 0.0027794 1.58267)
(38.6409 0.00268022 1.74422)
(38.4015 0.00275778 1.91335)
(38.1438 0.00303858 2.09005)
(37.8685 0.00361833 2.27442)
(37.5773 0.00463913 2.46581)
(37.2646 0.00518195 2.65982)
(36.9152 0.00558834 2.86258)
(36.4936 0.00566683 3.06919)
(36.0325 0.000451799 3.28044)
(35.394 -0.00511023 3.5003)
(34.6862 -0.0140845 3.73489)
(33.9327 -0.0300022 4.05451)
(33.0023 -0.0351812 4.50909)
(31.8432 -0.0057821 4.84267)
(30.703 0.0233454 5.22949)
(29.5095 0.0299933 5.65135)
(28.2255 0.0257821 5.98627)
(26.9379 0.0471215 6.07176)
(25.6995 0.10255 5.8388)
(24.403 0.291998 5.23892)
(23.2107 1.27403 4.35128)
(24.6989 3.68988 3.70835)
(6.05217 0.0268332 2.00089)
(8.8533 0.189393 0.374998)
(8.22942 1.36209 0.588754)
(6.29133 1.56347 0.82777)
(6.23592 1.19263 0.828458)
(7.7129 0.370238 1.05488)
(7.82011 0.671669 1.03947)
(6.88136 1.21552 1.31239)
(6.25667 1.50703 1.46062)
(6.20974 1.57663 1.44668)
(6.74582 1.48225 1.04221)
(7.1512 1.99303 -0.0348673)
(8.32156 2.49613 -0.194236)
(9.11307 2.2584 1.04053)
(8.05024 1.91998 1.78557)
(7.82649 1.89622 1.31025)
(8.00858 2.27237 -0.225267)
(11.2882 3.2 -1.04437)
(8.94837 1.43273 -2.53778)
(39.9994 0.000219883 0.0628219)
(39.992 0.000669868 0.185711)
(39.9762 0.00138322 0.311504)
(39.9475 0.00160313 0.439419)
(39.9004 0.00146736 0.570128)
(39.8366 0.00139819 0.704462)
(39.7588 0.00154711 0.843143)
(39.6666 0.00186174 0.986804)
(39.5573 0.00223084 1.13607)
(39.4285 0.00254387 1.29156)
(39.2791 0.00272241 1.45384)
(39.1085 0.00274231 1.62341)
(38.917 0.00264366 1.80055)
(38.7049 0.00254971 1.98531)
(38.4729 0.00254703 2.17737)
(38.2223 0.00284198 2.37595)
(37.9531 0.00322436 2.5801)
(37.6673 0.00399466 2.78955)
(37.3627 0.00394798 3.00174)
(37.0341 0.00286114 3.22352)
(36.6693 0.000586925 3.46418)
(36.2639 -0.000614545 3.75759)
(35.8007 0.00163752 4.07657)
(35.1557 -0.0113874 4.42209)
(34.4176 -0.0316918 4.9485)
(33.6783 -0.0430557 5.6434)
(32.7251 -0.0154515 6.21692)
(31.4354 0.0424992 6.58409)
(29.8923 0.0703017 6.93245)
(28.2699 0.0533528 7.27205)
(26.9123 0.049193 7.33669)
(25.6884 0.069605 7.16474)
(24.2963 0.142879 7.15686)
(23.3687 0.606628 8.34297)
(20.5892 1.2058 11.3489)
(3.539 0.0306565 2.03431)
(3.30992 0.315541 -0.266911)
(-1.58523 -0.171701 -2.02147)
(0.218629 -1.76142 0.240304)
(0.744901 -3.09106 -2.19455)
(-4.50682 -2.67833 -2.25477)
(-0.183801 -2.82822 -1.3411)
(0.499387 -1.96966 -1.41975)
(2.05072 -1.29087 -1.15311)
(4.47507 -1.13787 -1.92894)
(6.92066 -1.55421 -3.1177)
(9.29379 -1.66759 -4.14293)
(11.7872 -1.24232 -4.58899)
(14.1015 -0.948687 -4.71446)
(16.1714 -1.06383 -4.91886)
(17.3588 -1.30519 -5.0584)
(18.4311 -1.36885 -5.17451)
(20.8062 -1.16843 -5.46823)
(21.2174 -1.15582 -6.24072)
(39.9997 0.000219878 0.0628126)
(39.9925 0.000669885 0.185672)
(39.9763 0.00138327 0.311433)
(39.9467 0.00160322 0.439343)
(39.8993 0.00146753 0.570064)
(39.8357 0.00139837 0.7044)
(39.7583 0.00154761 0.843061)
(39.6663 0.0018613 0.986686)
(39.557 0.00222882 1.13592)
(39.4281 0.00254119 1.29137)
(39.2783 0.00272112 1.45365)
(39.1075 0.0027434 1.62322)
(38.9158 0.00264559 1.80038)
(38.7038 0.00255253 1.98514)
(38.4723 0.00255027 2.17713)
(38.222 0.0028473 2.37558)
(37.9533 0.00323984 2.57953)
(37.6669 0.0039936 2.78808)
(37.3605 0.00399951 3.00046)
(37.031 0.00294421 3.22201)
(36.6664 0.000745199 3.46899)
(36.2696 -0.000618192 3.75495)
(35.8181 0.00271851 4.14307)
(35.2333 -0.00805776 4.46313)
(34.4012 -0.0358064 4.91992)
(33.5627 -0.0457113 5.51424)
(32.4166 -0.0218866 6.02514)
(31.1305 0.0305952 6.49627)
(29.9411 0.0567895 6.93451)
(28.6483 0.0390529 7.26127)
(27.2527 0.0417696 7.3344)
(25.9978 0.0666821 7.11004)
(24.8559 0.151331 6.88295)
(23.4306 0.765665 7.35729)
(24.873 2.8022 10.0816)
(21.3453 2.82079 10.1909)
(18.5814 1.95901 7.33559)
(14.5987 1.50633 4.4324)
(10.6173 1.05719 2.47942)
(4.93179 -0.00994089 -0.106396)
(-6.60293 1.64613 0.882866)
(-4.17202 2.24485 1.99854)
(-5.03997 1.73572 1.1506)
(-4.09875 1.35688 0.207069)
(-4.57345 0.750471 -0.734991)
(-5.77812 0.348121 -1.33238)
(-6.46335 1.81506 3.84874)
(-6.01649 1.04854 5.88331)
(-5.35577 1.0976 5.34535)
(0.0305111 2.3382 1.98354)
(4.78422 2.41406 -0.32743)
(5.32784 1.6438 -0.147003)
(9.8047 1.67012 -0.588792)
(10.4044 0.905374 -1.4756)
(39.9995 0.000217222 0.0694091)
(39.9927 0.000660575 0.205406)
(39.9785 0.00136694 0.34459)
(39.9522 0.00158444 0.486281)
(39.9087 0.00145078 0.631291)
(39.8495 0.00137988 0.780588)
(39.7771 0.00151986 0.935032)
(39.691 0.00182111 1.09539)
(39.5886 0.00217686 1.26242)
(39.4674 0.00248082 1.43682)
(39.326 0.00265781 1.61919)
(39.1638 0.00268324 1.8099)
(38.9806 0.00259268 2.00903)
(38.7765 0.00247882 2.21618)
(38.5519 0.0024717 2.43036)
(38.3074 0.00265669 2.65028)
(38.0439 0.00293481 2.87413)
(37.763 0.00335074 3.10135)
(37.466 0.00349951 3.33152)
(37.1549 0.00340854 3.57128)
(36.8303 0.00295972 3.83317)
(36.4933 0.00337605 4.15283)
(36.1511 0.00461597 4.55054)
(35.7473 0.0195359 5.0806)
(35.0694 0.00812036 5.75946)
(34.4316 -0.0105877 6.49727)
(33.7231 -0.0127383 7.16157)
(32.7688 0.00611419 7.86638)
(31.4654 0.0634076 8.52775)
(29.8326 0.109126 8.91293)
(27.9906 0.1085 8.64644)
(26.1242 0.101487 8.18258)
(24.7341 0.103824 8.11593)
(23.1984 0.238547 8.89604)
(24.8038 0.85116 13.479)
(20.6032 0.532247 12.447)
(15.8704 -0.116039 8.05494)
(11.2203 -0.965013 3.82025)
(7.73407 -1.71504 0.771455)
(7.00438 -2.39032 -0.819447)
(8.09715 -2.93999 -2.01692)
(9.72954 -3.09687 -2.8678)
(11.1299 -2.85338 -3.30718)
(12.6133 -2.35689 -3.75546)
(14.3491 -1.91906 -4.4302)
(16.1142 -1.74653 -5.20112)
(17.9584 -1.74643 -5.79795)
(19.8958 -1.5868 -6.15494)
(21.6025 -1.31967 -6.38923)
(22.6592 -1.10254 -6.51182)
(23.0584 -1.03664 -6.4127)
(23.1146 -1.01801 -6.07107)
(24.1607 -0.825622 -5.89265)
(23.2814 -0.715279 -5.78016)
(39.9998 0.000217217 0.0693994)
(39.9932 0.000660591 0.205365)
(39.9785 0.00136699 0.344513)
(39.9514 0.00158453 0.486198)
(39.9077 0.00145094 0.63122)
(39.8487 0.00138008 0.780519)
(39.7766 0.00152043 0.934945)
(39.6908 0.0018208 1.09528)
(39.5883 0.0021749 1.26227)
(39.4669 0.00247836 1.43664)
(39.3252 0.00265577 1.61899)
(39.1628 0.00267938 1.8097)
(38.9795 0.00258951 2.00882)
(38.7755 0.0024787 2.21592)
(38.5511 0.00246911 2.43005)
(38.3069 0.00265225 2.64975)
(38.0437 0.00293771 2.87347)
(37.7626 0.00335339 3.10025)
(37.4651 0.00351216 3.33075)
(37.1532 0.00342298 3.57088)
(36.8287 0.00298168 3.83614)
(36.4954 0.00332734 4.14962)
(36.1528 0.00519429 4.56388)
(35.8077 0.0163222 5.05765)
(35.2674 0.00632899 5.69464)
(34.5032 -0.0137865 6.42148)
(33.634 -0.0272997 7.17374)
(32.3126 -0.00496474 7.81652)
(30.9533 0.0445753 8.29966)
(29.6478 0.0820653 8.65434)
(28.257 0.0951882 8.78095)
(26.7495 0.0761793 8.39809)
(25.2027 0.098374 8.02454)
(23.6479 0.123721 8.58601)
(23.7804 0.987638 11.033)
(25.2758 1.61387 12.2762)
(25.285 1.63669 11.0735)
(23.4891 1.36155 8.77116)
(20.718 1.08994 6.5243)
(17.6018 0.561702 4.52669)
(13.1604 0.252419 2.78298)
(9.86897 0.0497274 1.20732)
(7.65192 0.106716 0.0822921)
(7.3279 0.752866 -0.533255)
(7.79547 1.28061 -1.1914)
(8.09624 1.0929 -1.82501)
(9.14811 0.669888 -2.21601)
(11.4231 0.479957 -2.52656)
(13.5109 0.633078 -2.84795)
(15.2315 0.754828 -3.20596)
(16.194 0.538663 -3.13759)
(17.4483 0.217884 -2.84628)
(19.5324 0.176996 -2.7084)
(19.9675 -0.0504868 -3.03334)
(39.9996 0.000210728 0.0754442)
(39.9935 0.000631345 0.223541)
(39.9811 0.00130918 0.375055)
(39.9579 0.00152001 0.529478)
(39.9186 0.00139304 0.687778)
(39.8647 0.00132346 0.851067)
(39.7986 0.00145403 1.02036)
(39.7196 0.00173793 1.19657)
(39.6252 0.00207333 1.3806)
(39.5127 0.00235977 1.57327)
(39.3806 0.00251984 1.77523)
(39.2278 0.00252844 1.98683)
(39.0538 0.00241334 2.20794)
(38.858 0.00226094 2.43783)
(38.6403 0.00219619 2.67504)
(38.4009 0.00227204 2.91732)
(38.1411 0.00254053 3.16187)
(37.8634 0.00282195 3.40636)
(37.5735 0.0031569 3.64936)
(37.279 0.00318946 3.89536)
(36.9973 0.00342636 4.15684)
(36.7303 0.00185181 4.46612)
(36.5207 0.00163087 4.87639)
(36.3318 0.019196 5.44178)
(36.0007 0.0529898 6.29054)
(35.4311 0.0477094 7.17958)
(34.6896 0.0175541 7.99507)
(33.7498 -0.00810717 8.96601)
(32.6873 -0.00395573 9.84306)
(31.5126 0.0384994 10.5476)
(30.1018 0.0743947 10.8374)
(28.2483 0.0887263 10.5884)
(26.1693 0.128174 9.80699)
(24.0265 0.0628203 9.42844)
(23.9052 0.268439 11.0057)
(24.9143 0.343966 12.0743)