/*--------------------------------*- C++ -*----------------------------------*\
| =========                 |                                                 |
| \\      /  F ield         | OpenFOAM: The Open Source CFD Toolbox           |
|  \\    /   O peration     | Version:  4.1                                   |
|   \\  /    A nd           | Web:      www.OpenFOAM.org                      |
|    \\/     M anipulation  |                                                 |
\*---------------------------------------------------------------------------*/
FoamFile
{
    version     2.0;
    format      ascii;
    class       volScalarField;
    location    "38";
    object      p;
}
// * * * * * * * * * * * * * * * * * * * * * * * * * * * * * * * * * * * * * //

dimensions      [0 2 -2 0 0 0 0];

internalField   nonuniform List<scalar> 
4432
(
100725
100726
100724
100724
100727
100732
100739
100745
100751
100756
100761
100766
100772
100780
100790
100803
100813
100822
100829
100837
100853
100872
100899
100938
100976
101009
101040
101069
101094
101114
101127
101133
101139
101133
101112
101058
100980
101028
101086
101106
101096
101060
101055
101044
101011
101044
100837
100637
100720
100955
100966
100669
99246.6
98408.2
100725
100725
100724
100724
100727
100732
100739
100745
100751
100756
100761
100766
100772
100781
100791
100803
100813
100821
100827
100835
100851
100877
100904
100937
100974
101013
101044
101067
101093
101118
101133
101133
101135
101114
101084
101063
101058
101051
101049
101067
101080
101083
101079
101029
100934
101012
100922
100707
100758
100916
100956
100840
99263.8
98329.9
100724
100724
100722
100721
100724
100729
100736
100743
100749
100755
100760
100766
100772
100780
100791
100805
100823
100844
100864
100875
100889
100913
100941
100966
100991
101016
101044
101071
101098
101121
101134
101136
101126
101097
101053
101008
101009
101028
101046
101062
101042
101017
101016
101020
100996
100956
100866
100716
100746
100876
101175
101129
98058.8
99689.3
100724
100723
100721
100721
100724
100730
100736
100743
100749
100755
100760
100765
100772
100780
100791
100804
100823
100844
100864
100875
100889
100912
100938
100964
100989
101015
101042
101070
101097
101121
101132
101129
101120
101102
101071
101033
101019
101016
101027
101039
101045
101036
101036
101050
101018
100985
100912
100769
100808
100931
101097
101307
98121
99704.9
100722
100722
100720
100720
100723
100729
100735
100742
100749
100754
100759
100764
100770
100778
100787
100799
100813
100828
100854
100871
100890
100914
100937
100960
100984
101012
101042
101074
101106
101138
101158
101158
101145
101107
101049
100999
100997
101021
101037
101036
101019
101006
101026
101028
101002
100930
100886
100805
100793
100704
100480
99867.7
99192.1
100736
100722
100722
100720
100720
100724
100729
100736
100742
100749
100754
100759
100764
100770
100777
100787
100799
100813
100828
100854
100871
100890
100914
100936
100958
100982
101010
101041
101074
101107
101138
101155
101153
101134
101097
101056
101023
101023
101032
101028
101016
101010
101010
101027
101048
101023
100964
100890
100822
100783
100679
100481
100037
99179.4
100745
100720
100720
100718
100718
100721
100726
100732
100739
100745
100751
100755
100760
100766
100773
100782
100791
100803
100820
100848
100865
100883
100905
100927
100949
100975
101008
101043
101081
101121
101157
101175
101178
101174
101124
101030
100941
100920
100961
100986
101013
101035
101009
101022
101032
101016
100976
100979
100903
100872
100844
100651
100244
99741.2
99905.8
100720
100719
100718
100718
100721
100726
100733
100739
100745
100750
100755
100760
100766
100773
100781
100792
100803
100820
100849
100866
100883
100905
100926
100948
100975
101008
101043
101081
101124
101159
101174
101176
101166
101113
101033
100982
100983
100997
100999
100977
100985
101018
101035
101032
101023
100988
100943
100908
100851
100859
100682
100469
99629.9
99869.3
100717
100717
100715
100715
100717
100723
100729
100736
100742
100747
100751
100756
100761
100768
100776
100785
100798
100814
100836
100855
100870
100890
100912
100937
100966
101001
101039
101080
101127
101162
101174
101180
101177
101150
101153
100920
100910
100941
100962
101012
101077
101041
101021
101035
101076
101102
101022
100902
100842
100849
100895
100437
99683.9
100784
100716
100716
100715
100715
100718
100723
100729
100736
100742
100747
100751
100756
100761
100767
100775
100785
100798
100814
100837
100855
100870
100889
100912
100937
100967
101002
101039
101081
101131
101167
101175
101176
101170
101131
101059
100986
100955
100965
100974
100971
101031
101068
101051
101040
101044
101031
100990
100941
100893
100901
100866
100752
99681.8
100599
100713
100713
100711
100711
100714
100719
100725
100731
100737
100741
100746
100750
100755
100761
100769
100779
100791
100806
100822
100841
100857
100871
100891
100920
100951
100985
101020
101057
101097
101130
101148
101173
101213
101445
101754
100996
100910
100930
100949
100948
100985
101002
101036
101046
101074
101136
101054
100937
100845
100820
100833
100358
99680
100600
100713
100712
100711
100711
100714
100719
100725
100731
100737
100741
100745
100750
100754
100761
100769
100779
100791
100806
100822
100841
100858
100872
100890
100920
100953
100986
101019
101054
101094
101126
101143
101152
101157
101203
101208
101018
100930
100941
100958
100953
100984
101040
101045
101057
101083
101081
101028
100956
100889
100851
100804
100343
99742.2
100867
100709
100708
100707
100707
100709
100714
100720
100726
100731
100735
100739
100743
100748
100754
100762
100772
100783
100797
100811
100827
100844
100859
100867
100893
100927
100961
100992
101015
101034
101059
101100
101160
101300
101840
101431
101431
100911
100906
100941
100943
100942
101004
101046
101049
101060
101104
101082
101003
100900
100821
100819
100517
99810.2
100454
100708
100708
100707
100707
100709
100714
100720
100726
100731
100735
100739
100743
100747
100754
100762
100771
100783
100797
100810
100827
100845
100861
100868
100891
100931
100963
100990
101008
101030
101055
101083
101119
101163
101269
101263
101000
100873
100900
100938
100943
100958
101006
101035
101049
101086
101115
101066
100982
100894
100796
100690
100313
99898.7
100477
100703
100703
100702
100701
100704
100708
100714
100719
100724
100728
100731
100735
100740
100746
100753
100763
100773
100785
100798
100811
100827
100844
100854
100860
100891
100929
100956
100969
100974
100979
101000
101044
101102
101229
101132
100896
100879
100917
100961
100978
100976
100991
101014
101010
101013
101070
101108
101073
100946
100781
100724
100502
99953.7
100648
100703
100703
100702
100702
100704
100708
100714
100719
100724
100728
100731
100735
100739
100745
100753
100762
100773
100785
100797
100811
100827
100844
100853
100864
100897
100932
100955
100960
100964
100976
100993
101024
101075
101097
101081
100946
100889
100927
100970
100978
100971
100976
100980
100988
101048
101112
101104
101024
100892
100772
100702
100416
99920.2
100666
100698
100698
100696
100696
100698
100702
100707
100712
100716
100720
100723
100726
100730
100736
100743
100752
100761
100772
100783
100795
100808
100822
100834
100839
100852
100888
100914
100921
100921
100925
100937
100959
101001
101025
101002
100926
100913
100968
101022
101045
101033
100995
100969
100961
100973
101034
101101
101099
100972
100770
100621
100393
100046
100836
100698
100697
100696
100696
100698
100702
100707
100712
100716
100720
100723
100726
100730
100736
100743
100752
100761
100771
100782
100794
100808
100821
100835
100846
100857
100885
100909
100912
100915
100925
100940
100963
100995
101009
101005
100966
100964
100997
101037
101056
101034
100984
100938
100931
100993
101076
101112
101055
100927
100777
100628
100304
99907.6
100747
100692
100692
100690
100689
100691
100695
100699
100704
100708
100711
100713
100716
100720
100725
100732
100740
100748
100757
100767
100778
100788
100798
100808
100818
100820
100838
100859
100873
100885
100893
100905
100931
100969
100996
101017
101005
101013
101045
101077
101097
101094
101036
100960
100921
100935
101005
101085
101114
101015
100813
100650
100512
100475
100939
100692
100691
100690
100689
100691
100695
100699
100704
100708
100710
100713
100716
100720
100725
100732
100739
100748
100757
100767
100777
100788
100799
100809
100818
100822
100834
100856
100874
100884
100893
100908
100931
100964
100999
101027
101027
101037
101059
101086
101110
101101
101041
100958
100910
100954
101046
101106
101105
101008
100801
100569
100321
100131
100690
100685
100685
100683
100682
100684
100687
100691
100695
100698
100701
100703
100705
100709
100713
100719
100726
100734
100742
100751
100761
100771
100778
100786
100791
100782
100784
100809
100846
100870
100883
100900
100931
100967
101007
101044
101055
101067
101091
101111
101115
101104
101070
100999
100932
100895
100957
101065
101120
101033
100852
100734
100656
100576
100152
100685
100684
100683
100682
100684
100687
100691
100695
100698
100701
100703
100705
100708
100713
100719
100726
100733
100742
100751
100761
100771
100780
100787
100787
100781
100784
100813
100850
100871
100883
100902
100933
100972
101013
101048
101061
101075
101094
101109
101117
101116
101087
101013
100927
100920
101005
101098
101128
101048
100870
100682
100529
100212
99911.1
100678
100678
100676
100675
100676
100679
100682
100685
100688
100690
100691
100693
100696
100700
100705
100711
100719
100727
100736
100747
100758
100768
100772
100762
100729
100720
100766
100825
100855
100869
100890
100926
100970
101015
101053
101077
101095
101116
101133
101134
101118
101089
101052
100999
100923
100922
101001
101071
101026
100881
100765
100722
100637
100280
100678
100677
100676
100675
100676
100679
100682
100685
100688
100690
100691
100693
100696
100700
100705
100711
100718
100727
100736
100747
100758
100768
100771
100759
100726
100722
100773
100829
100856
100870
100892
100929
100975
101019
101055
101078
101097
101118
101133
101134
101120
101097
101054
100988
100944
100975
101049
101091
101047
100925
100809
100742
100492
100537
100670
100670
100668
100667
100667
100670
100673
100675
100677
100678
100679
100680
100682
100686
100690
100696
100703
100712
100723
100736
100752
100766
100768
100744
100662
100650
100728
100804
100832
100843
100868
100910
100962
101015
101062
101100
101130
101154
101170
101171
101154
101126
101086
101035
100967
100924
100945
100993
100993
100908
100790
100667
100569
100154
100670
100670
100668
100667
100668
100670
100673
100675
100677
100678
100679
100680
100682
100685
100690
100695
100702
100711
100723
100736
100752
100765
100766
100733
100649
100654
100743
100814
100836
100845
100870
100911
100964
101016
101062
101100
101132
101157
101175
101174
101155
101124
101082
101027
100975
100960
100987
101017
101002
100922
100803
100663
100517
100052
100662
100662
100660
100658
100659
100660
100663
100665
100666
100666
100666
100667
100668
100670
100674
100679
100685
100695
100708
100727
100753
100785
100805
100757
100588
100518
100677
100773
100789
100796
100826
100877
100939
101004
101067
101125
101174
101209
101234
101232
101208
101170
101122
101064
100998
100941
100917
100918
100909
100854
100756
100619
100499
100118
100662
100662
100660
100659
100659
100661
100663
100665
100666
100666
100666
100667
100668
100670
100673
100678
100685
100695
100708
100727
100753
100784
100800
100745
100535
100569
100716
100781
100787
100792
100823
100875
100937
101002
101066
101124
101177
101209
101249
101246
101214
101170
101118
101057
100995
100951
100939
100940
100924
100863
100762
100615
100480
100088
100654
100654
100652
100650
100650
100651
100652
100653
100654
100653
100653
100652
100652
100654
100656
100660
100666
100675
100689
100710
100748
100820
100902
100920
100572
100087
100548
100723
100734
100729
100761
100823
100897
100977
101061
101148
101226
101268
101313
101309
101261
101203
101148
101088
101021
100956
100908
100878
100851
100802
100723
100605
100478
100153
100654
100654
100651
100650
100650
100651
100652
100653
100654
100653
100653
100652
100652
100653
100656
100660
100666
100675
100688
100710
100747
100816
100896
100874
99957.6
100357
100673
100755
100737
100728
100760
100822
100895
100975
101064
101162
101242
101248
101307
101310
101255
101196
101146
101090
101027
100968
100926
100897
100865
100811
100729
100610
100480
100147
100646
100645
100643
100641
100640
100641
100642
100642
100642
100640
100639
100637
100636
100636
100637
100640
100644
100650
100661
100678
100706
100748
100869
101137
100164
100542
100708
100697
100659
100681
100748
100832
100926
101032
101153
101279
101317
101355
101373
101305
101232
101184
101137
101079
101012
100948
100894
100848
100795
100729
100628
100514
100175
100646
100645
100643
100641
100640
100641
100642
100642
100642
100640
100639
100637
100636
100636
100637
100640
100644
100650
100661
100678
100705
100747
100869
100963
100111
100599
100703
100677
100648
100676
100746
100831
100924
101019
101164
101291
101254
101195
101339
101282
101215
101178
101141
101087
101023
100961
100906
100856
100799
100729
100626
100504
100177
100638
100637
100635
100632
100631
100631
100631
100630
100629
100627
100625
100622
100620
100619
100618
100618
100620
100623
100628
100635
100641
100638
100610
100577
100318
100384
100723
100784
100686
100612
100619
100677
100754
100845
100952
101076
101219
101232
101266
101407
101334
101260
101225
101199
101157
101094
101019
100944
100874
100809
100754
100669
100607
100214
100637
100637
100634
100632
100631
100631
100631
100630
100629
100627
100625
100622
100620
100618
100618
100618
100620
100623
100628
100635
100642
100638
100604
100533
100309
100433
100741
100780
100673
100602
100615
100677
100754
100834
100896
101070
101072
101266
101165
101219
101223
101207
101195
101182
101152
101097
101025
100950
100879
100812
100752
100662
100575
100213
100629
100629
100626
100623
100622
100621
100620
100619
100617
100614
100611
100607
100604
100601
100598
100596
100595
100594
100594
100594
100593
100588
100579
100537
100490
100511
100647
100667
100606
100570
100584
100628
100681
100753
100903
101062
101049
101216
101440
101256
101222
101229
101222
101218
101204
101162
101090
101001
100908
100825
100769
100694
100708
100277
100629
100628
100626
100623
100622
100621
100620
100619
100617
100614
100610
100607
100603
100601
100598
100596
100595
100595
100595
100595
100594
100589
100578
100533
100471
100500
100626
100641
100582
100554
100579
100632
100685
100734
100782
100984
100777
100989
101344
100530
101011
101192
101207
101199
101190
101159
101095
101010
100920
100838
100779
100699
100670
100243
100621
100620
100618
100614
100612
100611
100609
100608
100605
100601
100597
100592
100587
100583
100579
100575
100571
100567
100564
100561
100558
100553
100541
100512
100466
100448
100477
100497
100498
100512
100547
100582
100604
100629
100707
100896
101891
100664
99665.8
100367
100995
101248
101257
101252
101246
101222
101168
101079
100967
100859
100783
100695
100715
100188
100621
100620
100617
100614
100612
100611
100610
100608
100605
100601
100597
100592
100587
100583
100579
100575
100571
100568
100565
100562
100559
100553
100540
100507
100459
100447
100474
100490
100487
100500
100541
100587
100627
100578
100684
100951
101392
98399.3
98894.1
98865.5
99999.3
101059
101242
101236
101224
101207
101164
101085
100984
100884
100806
100705
100704
100233
100613
100612
100609
100606
100603
100601
100599
100597
100593
100588
100583
100577
100572
100566
100560
100554
100548
100541
100535
100528
100520
100507
100486
100452
100410
100384
100384
100399
100415
100442
100478
100511
100443
100547
100544
99178.7
97480.9
96297.5
97158.6
98694.5
100033
101123
101336
101334
101307
101286
101252
101173
101056
100947
100867
100783
100719
100043
100613
100612
100609
100606
100603
100601
100599
100597
100593
100588
100583
100577
100572
100566
100560
100554
100548
100542
100536
100529
100520
100507
100485
100449
100409
100385
100388
100401
100414
100438
100479
100527
100581
100645
100523
99847.5
99698.4
96576.4
97161.1
98163
99347.8
100686
101282
101333
101312
101273
101234
101167
101070
100972
100880
100751
100706
100138
100605
100605
100601
100598
100595
100592
100589
100586
100582
100576
100570
100564
100557
100549
100542
100534
100525
100516
100506
100494
100480
100460
100432
100397
100359
100329
100317
100318
100325
100346
100374
100429
100210
100431
100365
98435.3
94986.2
95238.9
97294.4
98955.3
100284
101523
101551
101477
101408
101377
101344
101261
101134
101037
101003
100993
100979
100880
100605
100604
100601
100598
100595
100592
100590
100586
100582
100576
100570
100564
100557
100549
100542
100534
100526
100516
100506
100495
100480
100459
100431
100395
100358
100330
100318
100319
100324
100340
100369
100459
100504
100576
100416
95707.7
95501.2
95501.9
97438.7
98941.3
100187
101334
101586
101513
101434
101373
101317
101238
101139
101060
101002
100992
100858
100181
100598
100597
100594
100590
100587
100583
100580
100576
100571
100565
100558
100551
100542
100534
100525
100515
100504
100492
100477
100461
100440
100415
100383
100344
100303
100265
100236
100216
100204
100211
100244
100452
100265
99239.3
97808.4
94461.3
93974.9
95931.1
98452.6
100298
101355
101989
101777
101615
101514
101478
101431
101320
101156
101007
100931
100905
101115
101316
100598
100597
100594
100590
100587
100584
100580
100576
100571
100565
100558
100551
100543
100534
100525
100515
100504
100492
100478
100461
100440
100415
100382
100343
100302
100265
100236
100216
100200
100189
100170
100229
100538
99577.9
92618.8
91206.3
93666.8
95891.7
98531.7
100403
101408
101833
101738
101620
101529
101479
101407
101298
101158
101040
100995
101053
101070
101082
100592
100591
100587
100583
100579
100575
100572
100567
100562
100555
100547
100539
100529
100520
100509
100497
100483
100468
100450
100429
100403
100372
100334
100289
100240
100189
100139
100092
100047
100022
100080
100255
100409
98893.9
92755.4
92182.7
94534.1
97299.6
99859.1
101378
101864
101917
101896
101732
101647
101612
101551
101430
101233
100952
100688
100449
100491
100525
100591
100590
100587
100583
100579
100576
100572
100567
100562
100555
100547
100539
100530
100520
100509
100497
100484
100468
100450
100429
100403
100371
100333
100289
100240
100189
100140
100092
100041
99993.9
99912.9
100040
100109
97777.7
92262.5
92546.6
94775.3
97480.4
100021
101517
101915
101872
101811
101711
101640
101608
101540
101417
101223
100957
100737
100656
100838
101135
100586
100585
100581
100576
100572
100568
100564
100559
100553
100545
100537
100528
100518
100507
100494
100480
100465
100446
100424
100399
100368
100331
100286
100234
100174
100107
100034
99947.4
99852.8
99683.3
99825.4
100546
100065
84637
87199.9
92441.7
96007.7
98889.8
100833
101614
101734
101767
101790
101836
101815
101802
101750
101650
101460
101142
100797
100296
99959.7
100598
100585
100584
100581
100576
100572
100568
100564
100559
100553
100546
100537
100528
100518
100507
100494
100481
100465
100446
100425
100399
100368
100331
100286
100233
100174
100107
100034
99950.2
99849.8
99715.7
99618
99560.8
96224.4
91926.6
92015.9
93872
96545.2
99181.3
100988
101683
101750
101765
101772
101781
101796
101789
101740
101638
101434
101066
100673
100316
100111
100076
100580
100579
100576
100571
100566
100562
100557
100552
100545
100537
100528
100518
100507
100495
100481
100466
100448
100426
100401
100371
100336
100293
100241
100180
100109
100025
99925.9
99801.1
99638.5
99362.3
98967.5
100160
97952.4
89247
92684.5
96364.1
99320.2
101134
101659
101492
101404
101530
101705
101900
101996
102006
101980
101896
101755
101537
101045
100059
99218.2
100142
100580
100579
100575
100571
100566
100562
100557
100552
100545
100537
100528
100518
100507
100495
100481
100466
100448
100426
100401
100371
100336
100292
100241
100180
100108
100024
99925
99808.8
99646.6
99422.4
99156.7
98861.8
94670.9
90773.9
93960.2
97003.1
99696.9
101374
101754
101478
101379
101539
101697
101835
101961
101993
101968
101889
101708
101413
100905
100074
99369.3
100308
100576
100575
100571
100566
100561
100557
100552
100546
100539
100530
100521
100510
100498
100485
100470
100453
100433
100409
100381
100347
100307
100259
100201
100131
100048
99947.2
99824.1
99669
99460
99165.3
98693.9
98530.8
101210
102788
100759
101610
103050
103239
102271
101217
101009
101312
101708
102016
102158
102205
102227
102136
102118
101920
100810
98993.2
98158.1
99916.4
100576
100574
100571
100566
100561
100557
100552
100546
100539
100530
100521
100510
100498
100485
100470
100453
100433
100409
100381
100347
100307
100258
100200
100130
100047
99945.5
99817.9
99670.8
99478.9
99234.2
98928.2
98352.5
97891
97833.6
99503.2
101662
103337
103422
102306
101171
100971
101320
101696
101971
102125
102192
102200
102113
102030
101795
100735
98959.9
98263.5
99854.1
100572
100571
100567
100562
100557
100552
100547
100541
100534
100525
100515
100504
100491
100477
100461
100442
100420
100394
100364
100327
100283
100230
100166
100089
99995.1
99880
99738.7
99560.2
99322.8
99014.2
98560
97980.8
98333.6
100533
100957
102271
103731
103686
102346
100887
100689
101212
101811
102168
102306
102414
102555
102548
102642
102240
100969
99282.7
97470.2
99496.1
100572
100571
100567
100562
100557
100552
100547
100541
100534
100525
100515
100504
100491
100477
100461
100442
100420
100395
100364
100327
100283
100230
100166
100088
99993.8
99874.4
99736.4
99558.1
99319.4
99028.5
98737.6
97692.3
97370.2
98950.9
100691
102676
103991
103728
102370
100927
100658
101199
101800
102165
102305
102382
102479
102451
102564
102293
101178
99350.6
97277.8
99336.5
100569
100568
100564
100559
100554
100549
100543
100537
100530
100521
100510
100498
100485
100471
100454
100434
100411
100383
100350
100311
100264
100207
100139
100056
99954.4
99830.3
99677.5
99482.2
99231.3
98906.4
98507.7
97915.7
97440.2
98190
98564.8
100437
102139
102773
102252
101233
100965
101463
102019
102376
102500
102644
102776
102766
102803
102356
102046
100884
97028.7
99139.2
100569
100568
100564
100559
100554
100549
100544
100537
100530
100521
100510
100499
100486
100471
100454
100434
100411
100383
100350
100311
100264
100207
100138
100055
99953.7
99828.6
99681
99483.2
99223
98900.9
98479.9
97852.8
97505.2
98301.4
99666.4
101067
101653
102184
102007
101341
101029
101420
101983
102373
102508
102584
102686
102686
102814
102514
102353
101347
97163.1
98995.7
100567
100566
100563
100557
100552
100547
100541
100535
100527
100518
100507
100495
100482
100466
100449
100428
100404
100376
100341
100300
100251
100191
100120
100032
99926.1
99795.5
99634.2
99431.6
99175.1
98851.1
98463.9
97964.5
97450.9
96892.5
96216.8
96771.7
96474.5
96940.4
97796.9
99565.6
100791
101763
102247
102535
102702
102840
102890
102789
102809
102834
103894
103622
97686.6
98873.8
100567
100566
100562
100557
100552
100547
100542
100535
100527
100518
100507
100495
100482
100467
100449
100429
100404
100376
100341
100300
100251
100191
100119
100032
99925.4
99794.9
99634.7
99435.3
99175.3
98840.6
98476.4
97973.8
97423.6
97269.3
97089.9
96551.3
95826.7
96360.3
97441.5
99349
100861
101753
102225
102510
102662
102783
102810
102777
102830
102916
104175
103947
97833.1
98743.8
100566
100565
100561
100556
100551
100546
100540
100534
100526
100516
100506
100494
100480
100464
100446
100426
100401
100371
100336
100294
100244
100183
100109
100020
99910.4
99776.3
99610.6
99404.3
99146.6
98827
98439.6
97956.5
97354.1
96725.2
96105.6
95002.6
93274.1
92850.3
94074.4
96753.7
99363.5
101058
101912
102310
102595
102770
102825
102757
102664
102926
103585
102615
98274.7
96669.3
100566
100564
100561
100556
100551
100546
100540
100534
100526
100516
100506
100494
100480
100465
100447
100426
100401
100371
100336
100294
100243
100182
100109
100019
99909.6
99775.4
99610
99404.8
99146.7
98827.9
98454.5
98008.1
97488.8
96790.6
95672.2
94270.3
93235.3
92975.9
94101
96568.7
99245.7
101074
101892
102274
102534
102720
102776
102762
102797
103031
103697
102751
98302.6
96524.2
100605
100880
100136
101344
101227
100203
100071
100354
100198
100029
100133
100857
100354
101246
101229
100409
100217
100306
100034
100041
101061
100575
100584
100539
100322
100364
100135
100574
100100
100314
100006
101133
100527
100229
100507
100154
100089
100061
100239
100043
100160
100271
100675
100750
100656
100808
100692
100785
100648
100528
100557
100500
100501
100408
100471
100424
100640
100728
100622
100774
100627
100759
100600
100493
100525
100509
100378
100375
100319
100347
100981
100899
100969
100949
101124
100949
101126
100303
100533
100498
100486
100231
100287
100170
100388
100054
100181
100027
100206
100955
100878
100938
100947
101115
100927
101092
99905.2
100216
100193
100219
100112
100515
100365
100538
100072
100305
100109
100355
100933
100868
100967
100709
100651
100708
100652
100106
101144
100722
100722
100177
100356
100496
100266
100099
100274
100160
100316
100128
100333
100967
100861
100959
100704
100643
100708
100657
100338
101040
100812
100276
100798
100064
100099
100340
100147
100383
100180
100397
100253
100459
100507
100564
100464
100550
100480
100550
100477
100051
100293
100106
100398
100373
100399
100405
100434
100528
100436
100547
100479
100550
100486
100229
100341
100321
100411
100417
100417
100415
100766
100732
100561
100711
100840
100790
100451
100601
100656
100714
101205
101284
101347
101285
101221
100956
101009
101242
101185
101331
101269
101116
101032
100903
100305
100429
100371
100465
100270
100165
100075
100130
100093
100162
100070
100085
100194
100186
100147
100022
100069
100027
100143
100481
100619
100361
100667
100862
100592
100382
100648
100644
100559
101192
101070
101252
100825
101286
101408
100314
101024
101334
101278
101200
101250
100697
101145
100027
100218
100269
100237
100291
99950.9
100068
100057
100073
100063
100202
100121
100063
100252
100138
100040
100072
100091
100196
99800.3
99882.9
100128
101144
100772
100740
100229
99865.5
100006
100048
100570
100543
100565
100117
100027
100450
100408
100042
100507
100419
100316
100346
100277
100552
100254
100073
100324
100206
100098
100166
100146
100327
100429
100534
100396
100457
100234
100440
100278
100125
100339
100038
100057
100157
101116
100776
100764
100025
99888
99710.7
99962.2
100325
100132
100033
100258
99862.7
100209
100276
100290
99822.9
100026
100079
100043
100124
100019
99769.5
100469
99996.6
100086
100009
100037
100096
100126
100248
100119
100111
100232
99949.4
100223
100278
100187
100051
100988
100837
100909
101078
100821
101071
100999
101023
100815
100848
100974
100775
100992
100985
100985
100892
100779
101017
100796
101055
100962
100268
100379
100226
100081
100387
100085
100243
100294
100281
100426
100106
100409
100071
100314
100908
100868
100761
101072
100778
101034
100853
100189
100395
100338
100281
100295
100350
100250
100274
100276
100310
100154
100257
100201
100312
100471
100587
100586
100567
100577
100588
100491
100430
100596
100560
100506
100580
100433
100557
100228
100186
100198
100045
100109
100146
100314
100094
99982.1
100004
100072
100011
100036
100085
100509
100615
100479
100501
100495
100565
100450
100375
100555
100505
100431
100545
100432
100370
100008
99970.8
100096
100155
100014
99993.7
100167
99967
100077
100209
100368
100034
100187
100010
100459
100435
100302
100263
100425
100445
100297
100463
100580
100548
100519
100431
100217
100435
100343
100448
100236
100410
100261
100437
100264
100450
99942.8
100081
99970.5
99715.1
100170
99920.7
99689.6
99377.4
99321.2
99141.6
99399.4
99869.5
100044
100296
99579.8
99830
100254
99551.4
99713.9
99829.2
99778.6
99796.4
100606
100267
100448
100146
100283
100593
100474
100836
101266
101256
100862
100840
101248
101247
100822
100606
100147
100293
100459
100280
100482
100605
100415
100498
100868
100167
100457
100755
100399
100628
100826
100491
101002
100202
100728
100641
101348
100557
100388
100850
100402
100522
100572
100746
100458
100766
99992.5
100055
100367
100697
100280
100790
100733
100273
100342
100407
100508
100525
100390
100361
100169
100412
100206
100380
100795
100737
100382
100738
100354
100408
100132
100674
100265
100798
100192
100660
100242
100113
100375
99788.8
101047
99952.8
100050
100093
99903.8
100336
100804
100737
98761.3
100699
100379
100967
101452
101256
101443
101199
101252
101442
101441
101500
101426
101430
101476
101493
101422
101422
101479
101453
101208
101258
101442
101255
101445
101425
100964
100975
101412
101262
101291
101460
101250
101447
101409
101336
101286
101230
101252
101369
101310
101206
101449
101226
101398
101259
101423
101460
101497
101375
101116
101145
100380
100431
100298
100304
100444
100411
100259
99985.9
99662.1
99524.9
99732.8
100209
100135
100322
100008
100316
100244
100393
100074
100163
100352
100187
100106
100054
100098
100152
100045
100101
100158
100022
100095
100200
100390
100384
100228
100161
100293
100147
100325
100115
100077
100142
100055
100152
100031
100135
100216
100198
100049
100138
100160
100033
100143
100053
100050
100052
100127
100054
100151
100041
100174
100147
100066
100144
100066
100063
100076
100227
100095
100188
100051
100434
100382
99336.5
100561
99956.1
99342.1
99914.1
99873.5
99658.2
100396
100131
100792
100856
100855
100741
100612
100152
100054
99927.2
99964
99981.7
99897.1
100492
99910.6
100564
99901.6
100521
99859.5
99612.8
99506.7
99442.5
99729.7
99708.5
99688.8
99832.2
99483.4
99925
100410
100535
99906.8
100492
99709.7
100094
101724
101332
101384
101498
101216
101045
101490
104079
101089
100677
100810
101280
101147
101237
102563
101087
101073
100922
101849
102097
100709
101762
101480
100986
102138
101180
101867
101195
101294
101270
101546
101554
101269
101453
101490
101486
101637
101564
101514
102157
101379
101061
101817
100941
101662
101223
101214
101386
100093
100211
99708
100161
99980.9
100418
99781
99593.5
99497.9
99457.9
99733.7
99574.1
99633
99700.2
99421.6
100138
100276
100379
99886.4
100459
99898.3
100110
99978.9
100001
100152
100072
100140
100078
100190
100124
100109
100119
100098
100063
100108
100160
100153
100200
100122
100094
100242
100134
100133
100132
100117
100124
100138
100203
100074
100143
100108
100180
100145
100100
100136
100113
100151
100181
100096
100113
100145
100117
100167
100069
100159
100147
100159
100138
100133
100073
99849.8
99849.7
100622
100408
100425
100174
100615
100455
100449