/*--------------------------------*- C++ -*----------------------------------*\
| =========                 |                                                 |
| \\      /  F ield         | OpenFOAM: The Open Source CFD Toolbox           |
|  \\    /   O peration     | Version:  4.1                                   |
|   \\  /    A nd           | Web:      www.OpenFOAM.org                      |
|    \\/     M anipulation  |                                                 |
\*---------------------------------------------------------------------------*/
FoamFile
{
    version     2.0;
    format      ascii;
    class       volVectorField;
    location    "38";
    object      U;
}
// * * * * * * * * * * * * * * * * * * * * * * * * * * * * * * * * * * * * * //

dimensions      [0 1 -1 0 0 0 0];

internalField   nonuniform List<vector> 
4432
(
(39.9835 0.00117567 0.0517564)
(39.9143 0.00167478 0.0934868)
(39.8291 0.00435667 0.126544)
(39.7108 0.00530866 0.159447)
(39.5389 0.0046573 0.193373)
(39.3168 0.00340473 0.227993)
(39.0544 0.00212465 0.262688)
(38.7585 0.00111967 0.296045)
(38.4315 0.000510903 0.327438)
(38.0719 0.000162442 0.356185)
(37.6753 -0.000142585 0.381047)
(37.2357 -0.00065257 0.404108)
(36.7495 -0.00153971 0.42159)
(36.2301 -0.00218583 0.436518)
(35.6846 -0.00483328 0.433149)
(35.2352 -0.00883492 0.388807)
(34.8835 -0.00233316 0.444881)
(34.7029 0.00578582 0.391895)
(34.6787 0.00858363 0.39134)
(34.4367 0.0188548 0.618122)
(33.9505 0.0136895 0.748809)
(33.3435 0.00620039 0.884167)
(32.6497 -0.0179341 0.947463)
(31.8663 -0.0399534 0.923225)
(30.9848 -0.046206 0.939146)
(30.0534 -0.0525797 0.871213)
(29.1616 -0.0573401 0.715836)
(28.3048 -0.0476587 0.516807)
(27.5767 -0.0346526 0.414284)
(27.0407 -0.0509831 0.364196)
(26.8109 -0.0847301 0.321601)
(27.0276 -0.0794426 0.156899)
(27.7297 -0.001496 -0.263088)
(28.7272 0.129887 -0.827521)
(30.0083 0.259044 -1.50547)
(31.1623 0.320138 -1.67095)
(32.6882 0.357158 -1.10498)
(33.5366 -0.0891947 -1.07867)
(33.2766 -0.232096 -0.971973)
(33.4247 -0.0479814 -0.580238)
(33.6066 0.105865 -0.128854)
(33.8117 0.18058 0.258912)
(33.7476 0.066408 0.564999)
(33.2126 -9.97086e-06 0.959679)
(33.2568 0.0376872 1.23419)
(32.9972 0.4702 1.11437)
(32.6958 0.84886 1.7837)
(34.7725 0.305201 1.63749)
(34.7836 0.00346947 1.12289)
(34.4021 -0.809783 0.762469)
(31.7136 -0.665327 2.38598)
(33.0024 -3.26807 -2.3666)
(44.4388 -6.87026 -2.91353)
(51.7083 -6.37252 1.85545)
(39.9855 0.00117568 0.0517314)
(39.9163 0.00167438 0.0935184)
(39.8298 0.00435652 0.126538)
(39.7079 0.00531371 0.159187)
(39.534 0.00466731 0.192702)
(39.3118 0.00341766 0.226946)
(39.0502 0.00213561 0.261176)
(38.7557 0.00112807 0.294235)
(38.4297 0.000510811 0.32567)
(38.0705 0.000154248 0.354762)
(37.6726 -0.000157824 0.380837)
(37.2304 -0.000675861 0.405273)
(36.7418 -0.00156177 0.4258)
(36.2126 -0.00223185 0.441781)
(35.671 -0.00478933 0.44547)
(35.167 -0.00899754 0.403891)
(34.8081 -0.00262739 0.39595)
(34.6903 0.00573062 0.336611)
(34.6701 0.00870933 0.380252)
(34.4614 0.0184409 0.628371)
(33.9857 0.0133463 0.735182)
(33.3583 0.00627281 0.792311)
(32.6482 -0.0166302 0.838047)
(31.861 -0.0412543 0.82776)
(30.9513 -0.0493249 0.833922)
(29.9255 -0.0536709 0.732365)
(28.8919 -0.0580125 0.586301)
(27.9667 -0.0532977 0.479192)
(27.1778 -0.0396265 0.358943)
(26.507 -0.049753 0.161427)
(26.1768 -0.0806365 -0.0931131)
(26.241 -0.104029 -0.279696)
(26.8521 -0.0505328 -0.459566)
(27.803 0.0257709 -0.458786)
(29.1207 0.202193 -0.704759)
(30.2806 0.308949 -0.909247)
(31.1034 0.397374 -0.568463)
(31.6369 0.0081455 -0.257752)
(32.0817 -0.22867 0.105543)
(32.7102 -0.11715 0.304033)
(32.7338 0.0473994 0.679852)
(32.6755 0.181032 0.983904)
(32.2042 0.0731344 1.38445)
(31.7961 0.00646409 1.68467)
(32.156 0.0591817 1.75436)
(32.121 0.486438 0.900084)
(30.7443 0.928808 0.970389)
(32.0911 0.298967 1.23714)
(31.8607 -0.109881 0.764914)
(31.2993 -0.912398 0.290583)
(25.7243 -0.666282 -1.05875)
(31.8763 -3.6802 -2.80641)
(23.7335 -6.15569 -7.61664)
(28.0514 -3.24547 -4.70998)
(40.013 0.00118149 0.0200019)
(40.0371 0.00151887 0.0618761)
(40.0869 0.00409765 0.106181)
(40.1406 0.00497649 0.150659)
(40.1791 0.00422228 0.194774)
(40.2049 0.0028093 0.238693)
(40.2253 0.00134007 0.28216)
(40.2432 0.000222224 0.324914)
(40.2583 -0.000340724 0.3672)
(40.268 -0.000286491 0.409634)
(40.2686 0.000235919 0.453445)
(40.2544 0.000967444 0.498708)
(40.2234 0.00208533 0.54741)
(40.1623 0.00294699 0.586812)
(40.078 0.00673808 0.631319)
(39.841 0.00814866 0.626015)
(39.5653 0.0122519 0.496274)
(38.8964 0.0112816 0.518654)
(37.8193 0.00535705 0.761967)
(36.9143 0.00268536 0.902764)
(36.0951 0.00476944 0.986024)
(35.3152 0.00532361 1.03375)
(34.6067 0.00616318 1.07753)
(33.9244 0.0104163 1.19571)
(33.2707 0.0128186 1.32934)
(32.6073 0.0110616 1.37823)
(31.9009 0.0103051 1.34595)
(31.106 0.0165284 1.28648)
(30.1908 0.014719 1.17401)
(29.3711 -0.00696445 0.871319)
(28.9275 -0.0204695 0.282491)
(29.0807 0.0150265 -0.540056)
(29.7417 0.0653271 -1.2676)
(30.6609 0.096709 -1.63408)
(31.8377 0.065359 -1.5437)
(32.889 -0.0087619 -1.26678)
(33.4616 -0.177816 -0.604835)
(33.4956 -0.245299 -0.283479)
(33.3512 -0.146208 -0.253003)
(33.2831 -0.0543704 -0.0628198)
(33.744 -0.0977778 0.542241)
(34.7919 -0.301967 1.21512)
(35.8639 -0.480667 1.67979)
(37.1403 -0.631352 1.69376)
(38.6246 -0.73166 1.88366)
(40.2001 -0.753242 1.51318)
(41.4445 -0.826292 2.18461)
(44.0239 -0.828664 2.23918)
(44.0989 -1.33832 2.37537)
(47.1437 -1.89012 0.958636)
(43.6584 -2.09209 4.38016)
(43.7485 -5.94882 4.0991)
(41.3527 -7.04617 -1.75709)
(55.1794 -1.09307 2.5609)
(40.0149 0.00118142 0.0199519)
(40.039 0.0015192 0.0618664)
(40.0873 0.00409795 0.106002)
(40.1369 0.00497669 0.150218)
(40.1725 0.00422239 0.194022)
(40.197 0.00280905 0.237625)
(40.217 0.00134065 0.280873)
(40.235 0.000218284 0.323616)
(40.251 -0.000336898 0.366332)
(40.2615 -0.000299786 0.409569)
(40.2638 0.000238708 0.455016)
(40.2516 0.000972941 0.502436)
(40.2226 0.00202055 0.552566)
(40.1681 0.00315903 0.59889)
(40.0829 0.00587216 0.630997)
(39.9065 0.00967247 0.619508)
(39.6269 0.0133397 0.517782)
(38.9185 0.0128477 0.527819)
(37.8282 0.00559172 0.736391)
(36.898 0.00293341 0.888273)
(36.0995 0.00490514 0.959026)
(35.3245 0.00547976 1.01317)
(34.6185 0.00640678 1.04971)
(33.9407 0.0109713 1.12901)
(33.2835 0.0141081 1.23299)
(32.6328 0.0144445 1.28053)
(31.9318 0.0174743 1.30318)
(31.1188 0.0235329 1.28814)
(30.2419 0.0275504 1.12662)
(29.4182 0.0250529 0.802821)
(28.7491 0.00944413 0.340512)
(28.679 0.0318969 -0.351546)
(29.3183 0.0664661 -1.01166)
(30.2296 0.0903801 -1.4254)
(31.3474 0.0438931 -1.42448)
(32.3893 0.0285681 -1.09768)
(33.1844 -0.190431 -0.499501)
(33.5918 -0.312362 -0.013995)
(33.7187 -0.213648 0.183562)
(34.0794 -0.240185 -0.11623)
(34.3887 -0.146758 0.165298)
(35.2509 -0.217996 0.723776)
(36.2515 -0.339723 1.14406)
(37.3175 -0.444458 1.42492)
(38.634 -0.545496 1.77194)
(40.0485 -0.579721 1.17203)
(41.2086 -0.635597 1.38808)
(43.0129 -0.761574 2.02423)
(44.1176 -0.806718 1.78222)
(43.2003 -1.8829 1.07)
(39.0666 -1.43802 6.92926)
(31.6434 -5.95927 0.363046)
(-29.9339 -0.128302 -24.7027)
(21.0519 2.04529 -9.45171)
(40.0032 0.00116188 0.026607)
(39.9883 0.00149061 0.0796323)
(39.9772 0.00401929 0.127622)
(39.9528 0.00484031 0.173376)
(39.8975 0.00405112 0.218815)
(39.8151 0.00265266 0.265027)
(39.7146 0.00127954 0.312803)
(39.6019 0.000361053 0.362803)
(39.4796 0.000140394 0.415879)
(39.3476 0.000692415 0.472963)
(39.2036 0.00182731 0.53519)
(39.044 0.00342173 0.60308)
(38.8623 0.00507987 0.677885)
(38.6603 0.00724678 0.756989)
(38.4087 0.00838028 0.838503)
(38.1816 0.0130761 0.931418)
(37.7631 0.0070737 0.931836)
(37.425 0.00470385 1.23613)
(36.9662 0.00175222 1.51079)
(36.533 0.00201432 1.67598)
(36.0429 0.00378649 1.7408)
(35.4996 0.00580394 1.75493)
(34.9436 0.00912368 1.789)
(34.3541 0.0156267 1.8695)
(33.7284 0.0197982 1.97531)
(33.0504 0.0253823 2.03776)
(32.2596 0.0330782 2.07224)
(31.2805 0.0354818 2.12729)
(30.0892 0.0119778 1.96244)
(28.9874 -0.0154352 1.43742)
(28.2513 -0.00571581 0.447001)
(28.1889 0.0419182 -0.885966)
(28.5575 0.123275 -1.99249)
(29.0078 0.238861 -2.82743)
(29.8384 0.293144 -3.5915)
(30.8724 0.0179616 -2.95918)
(31.2204 -0.327798 -1.33317)
(30.837 -0.580613 -0.0627926)
(30.025 -0.681647 0.554277)
(29.933 -0.533298 0.289477)
(30.1428 -0.342638 0.538991)
(30.4356 -0.410809 1.34022)
(31.0001 -0.568951 1.26395)
(31.7501 -0.68694 1.24155)
(33.3147 -0.84506 1.06894)
(35.1871 -0.898785 0.995125)
(36.992 -0.986874 0.912871)
(39.375 -0.948603 0.862608)
(40.8416 -1.06136 -0.165039)
(44.7527 -1.41525 -0.783031)
(48.9605 -1.06805 5.50365)
(59.0156 -1.60625 13.3196)
(61.0828 -0.612951 12.4973)
(55.2645 -1.45547 0.264426)
(40.005 0.00116183 0.0265665)
(39.9901 0.00149094 0.0796481)
(39.9776 0.00401954 0.127541)
(39.9494 0.00484043 0.173231)
(39.8917 0.00405107 0.218666)
(39.8085 0.00265247 0.264928)
(39.7084 0.00127899 0.312827)
(39.5967 0.000360473 0.363044)
(39.4757 0.000138815 0.416495)
(39.345 0.000690229 0.474114)
(39.2019 0.00182417 0.537054)
(39.0427 0.00342219 0.605927)
(38.862 0.00507206 0.681264)
(38.6585 0.00727421 0.761356)
(38.4163 0.00831313 0.841002)
(38.1514 0.0131697 0.926578)
(37.7706 0.00713229 0.964056)
(37.4313 0.00426881 1.21172)
(36.9563 0.00182279 1.49407)
(36.5299 0.00212724 1.65858)
(36.0461 0.00390743 1.72152)
(35.5085 0.00596446 1.73216)
(34.9598 0.00952371 1.75854)
(34.3713 0.0172548 1.85452)
(33.7323 0.0223816 1.96616)
(33.0484 0.0296671 2.03962)
(32.2525 0.040455 2.13134)
(31.279 0.0468874 2.22293)
(30.1109 0.0368509 2.1314)
(28.8325 0.00358777 1.7071)
(27.8529 -0.000856723 0.693214)
(27.7949 0.0518121 -0.718653)
(28.2695 0.134806 -1.82865)
(29.1236 0.212529 -2.48032)
(30.2131 0.201403 -2.75301)
(31.3598 0.139952 -2.10307)
(31.7175 -0.159234 -1.13194)
(31.4899 -0.471181 -0.501756)
(30.9477 -0.59942 -0.268785)
(31.1951 -0.572 -1.2114)
(31.3197 -0.345028 -0.769195)
(31.9118 -0.396157 -0.481019)
(32.0988 -0.608338 -0.638299)
(32.4037 -0.609075 -0.869063)
(33.3053 -0.714145 -0.570156)
(34.7012 -0.699134 -0.42367)
(36.302 -0.823522 -0.282787)
(38.4214 -0.852082 0.263328)
(39.9165 -0.945239 -0.799135)
(43.4082 -1.25124 0.862457)
(46.9271 -1.03964 6.13052)
(56.5817 -1.37698 11.2821)
(58.0533 1.15852 14.432)
(50.0781 -0.411694 -6.97196)
(40.0028 0.00114279 0.0338938)
(39.9876 0.00153633 0.104616)
(39.9777 0.00401645 0.173919)
(39.9556 0.00481641 0.244404)
(39.9026 0.00402875 0.316893)
(39.8209 0.00262855 0.391721)
(39.7187 0.0012486 0.469267)
(39.601 0.000325361 0.549758)
(39.4699 0.000130511 0.633447)
(39.3244 0.00074079 0.720653)
(39.1613 0.00201785 0.811773)
(38.976 0.00378735 0.907277)
(38.762 0.00560025 1.00762)
(38.5159 0.00763036 1.11385)
(38.2253 0.00830216 1.22315)
(37.8966 0.0101537 1.34399)
(37.4947 0.00349323 1.481)
(37.0626 0.00572822 1.64321)
(36.6144 0.000747823 1.83612)
(36.2988 0.000895374 2.01001)
(35.9522 0.0030439 2.14228)
(35.5291 0.00432964 2.23195)
(35.025 0.00627414 2.33212)
(34.4141 0.0105312 2.47262)
(33.7302 0.0101295 2.66135)
(32.9592 0.0121178 2.8425)
(31.9844 0.0169668 3.09819)
(30.7381 0.01059 3.46388)
(29.23 -0.0130316 3.54716)
(27.7349 -0.0190632 2.75092)
(26.8162 0.0119962 0.978055)
(26.5233 0.049997 -0.955717)
(26.4122 0.112209 -2.48671)
(26.4476 0.208762 -3.91354)
(27.1541 0.19343 -4.78257)
(27.8693 -0.176038 -3.05185)
(27.8748 -0.7749 -0.832141)
(27.1062 -1.25212 0.958244)
(26.2542 -1.25746 1.14808)
(25.8477 -0.445863 0.205787)
(25.8241 -0.0688876 0.298926)
(26.0285 -0.111016 1.8018)
(26.7195 -0.280237 1.53329)
(27.4473 -0.388371 1.17927)
(28.6462 -0.409651 0.777715)
(30.4951 -0.427986 0.402533)
(31.6868 -0.663581 -0.3843)
(33.2812 -0.397104 -0.852444)
(35.3607 -0.414952 -1.50851)
(36.0791 -0.359072 -3.1742)
(39.5351 -0.728951 -3.90323)
(46.5173 -0.798849 -2.1235)
(52.6691 -0.630411 -0.311162)
(56.7739 -0.954212 -4.57686)
(40.0046 0.00114273 0.033865)
(39.9894 0.00153666 0.104673)
(39.978 0.00401673 0.173941)
(39.9522 0.00481658 0.244412)
(39.8967 0.00402876 0.316931)
(39.8144 0.00262841 0.391814)
(39.7126 0.00124823 0.469431)
(39.596 0.000324641 0.550011)
(39.4663 0.000129264 0.633824)
(39.3222 0.000739395 0.721181)
(39.1602 0.00201622 0.812532)
(38.9753 0.00378719 0.908229)
(38.7616 0.00559932 1.00869)
(38.5139 0.0076403 1.11465)
(38.2244 0.00829816 1.22381)
(37.8832 0.0102302 1.34142)
(37.4878 0.00314456 1.47623)
(37.059 0.00559315 1.66739)
(36.6024 0.000683933 1.83784)
(36.2925 0.000835566 1.99674)
(35.9471 0.00302953 2.12618)
(35.5225 0.00440633 2.21484)
(35.0019 0.00621344 2.31959)
(34.3845 0.0106806 2.5108)
(33.7132 0.0105094 2.6984)
(32.9365 0.0132319 2.90294)
(31.933 0.0209929 3.26915)
(30.6484 0.015497 3.69977)
(29.1214 -0.00680395 3.81303)
(27.5829 -0.0114597 3.0422)
(26.7456 0.0153464 1.1821)
(26.5258 0.0497067 -0.709204)
(26.4739 0.10776 -1.99608)
(26.5623 0.209878 -2.95322)
(27.438 0.232098 -3.97776)
(28.8176 -0.036044 -3.22393)
(29.1917 -0.585133 -1.80648)
(28.3256 -1.34171 -0.782921)
(26.9581 -1.59819 0.0536866)
(25.7791 -0.633271 -1.53027)
(26.1658 -0.132841 -1.08472)
(26.159 -0.100013 -0.163173)
(26.6392 -0.232924 -1.31843)
(27.1033 -0.362956 -2.26054)
(27.5817 -0.323154 -1.81629)
(28.8376 -0.2665 -2.05643)
(29.8833 -0.409305 -2.22235)
(31.2115 -0.106463 -2.55474)
(33.0737 -0.090864 -3.23134)
(33.8559 -0.1968 -4.19335)
(38.491 -0.699182 -3.58707)
(41.3892 -0.0479847 -2.558)
(52.4988 -0.433899 -2.66403)
(45.0557 -0.407714 -15.31)
(40.0028 0.00113355 0.0420912)
(39.9883 0.00155836 0.130674)
(39.9793 0.004055 0.217758)
(39.9583 0.00485639 0.305287)
(39.9067 0.00408459 0.393918)
(39.8272 0.00271809 0.484497)
(39.728 0.00138742 0.578173)
(39.6146 0.000527178 0.675889)
(39.4891 0.000406212 0.77847)
(39.3507 0.00109047 0.886703)
(39.1963 0.00244692 1.00121)
(39.0207 0.00422699 1.1224)
(38.8172 0.00610493 1.25005)
(38.5807 0.00789618 1.38474)
(38.303 0.00908333 1.52345)
(37.9754 0.0090801 1.67544)
(37.6046 0.00922461 1.82621)
(37.1552 0.00567423 2.03396)
(36.6639 0.00703269 2.19916)
(36.2659 0.00179633 2.36796)
(35.9179 0.00309324 2.52435)
(35.4956 0.00365034 2.68974)
(34.9631 0.00133123 2.93983)
(34.2697 0.00156365 3.19621)
(33.4828 -0.00398457 3.47379)
(32.5746 -0.0049691 3.80656)
(31.3998 0.00254517 4.32744)
(30.0242 0.00374763 4.98264)
(28.5063 -0.000939477 5.09761)
(27.085 0.00786038 3.87295)
(26.0325 0.0305393 1.63365)
(25.1744 0.0707159 -0.53542)
(24.2948 0.144528 -2.36703)
(23.6006 0.281248 -4.32374)
(23.8289 0.410655 -5.5032)
(22.4213 -0.149441 -2.98004)
(22.8318 -1.26292 2.51086)
(22.839 -1.80077 4.29981)
(21.2582 -1.80996 4.13525)
(20.7223 -0.48272 0.538551)
(20.9422 -0.0116263 -0.0946695)
(21.5361 -0.0330331 2.09777)
(22.4191 -0.144275 1.79966)
(24.2632 -0.282115 0.724641)
(25.2481 -0.279564 0.435032)
(26.1535 -0.0710992 0.309679)
(27.3191 0.369125 -0.577377)
(30.4065 0.708061 -0.854868)
(29.9375 0.316617 -1.32505)
(32.8696 0.10459 -0.939759)
(31.9455 -0.0325598 -0.869104)
(32.098 2.10055 -2.42607)
(43.6918 -0.510466 -2.27099)
(42.2051 -3.23752 -3.06556)
(40.0046 0.00113349 0.0420506)
(39.9901 0.00155868 0.13075)
(39.9797 0.00405528 0.21778)
(39.9549 0.0048566 0.305318)
(39.9009 0.00408467 0.394055)
(39.8207 0.00271802 0.484802)
(39.722 0.00138713 0.578683)
(39.6098 0.000526544 0.676618)
(39.4857 0.000405121 0.779404)
(39.3487 0.00108925 0.887789)
(39.1953 0.00244563 1.00237)
(39.0201 0.00422817 1.12344)
(38.8166 0.00610738 1.25097)
(38.5794 0.00791144 1.38492)
(38.2987 0.00907997 1.52449)
(37.9745 0.00916125 1.67365)
(37.5888 0.00921397 1.83871)
(37.199 0.00786742 2.03523)
(36.6899 0.00748354 2.1853)
(36.2615 0.00176805 2.35785)
(35.9006 0.0036446 2.52151)
(35.4658 0.00512647 2.69535)
(34.8778 0.000187916 2.94601)
(34.1849 0.00117373 3.22544)
(33.4279 -0.00404519 3.48829)
(32.4679 -0.00510557 3.88479)
(31.3076 0.004082 4.5163)
(30.0121 0.00601371 5.1508)
(28.5778 0.000584683 5.19138)
(27.2315 0.0070888 3.99407)
(26.2316 0.0277201 1.79857)
(25.4477 0.0662463 -0.299444)
(24.7921 0.131079 -1.87923)
(24.4678 0.287636 -3.427)
(25.0214 0.661123 -4.94828)
(26.2942 -0.0636433 -4.202)
(27.0343 -0.405468 -2.9486)
(26.4143 -0.529461 -1.8343)
(24.5577 -0.57996 -1.00425)
(22.3228 0.356207 -1.5976)
(20.8936 0.254931 -1.14883)
(20.5411 -0.072595 0.430228)
(20.7233 -0.262354 -0.853612)
(21.4271 -0.466233 -1.79799)
(22.733 -0.488904 -2.11393)
(23.9511 -0.299466 -2.17526)
(25.1333 0.313305 -2.3651)
(26.6665 0.811867 -2.65381)
(28.4319 0.575304 -2.64162)
(30.0844 0.457197 -3.50415)
(30.76 -0.160349 -3.82677)
(29.2762 1.82851 -4.34238)
(45.1902 -1.92961 0.144826)
(33.3996 -2.3033 -2.30115)
(40.0028 0.00110302 0.0502125)
(39.989 0.0016237 0.155984)
(39.9813 0.00405327 0.26003)
(39.962 0.00485602 0.365056)
(39.9133 0.00416037 0.472216)
(39.8379 0.00290567 0.582755)
(39.744 0.00170251 0.698116)
(39.6368 0.00096978 0.819291)
(39.5184 0.000955966 0.946934)
(39.388 0.00170296 1.08151)
(39.2419 0.00304873 1.22316)
(39.0748 0.00471164 1.37176)
(38.88 0.00638387 1.52667)
(38.6514 0.00777478 1.68811)
(38.3847 0.00896016 1.85471)
(38.0762 0.0093405 2.03558)
(37.7437 0.0102963 2.22381)
(37.3568 0.00729817 2.48602)
(36.9781 0.0117421 2.64778)
(36.489 0.00776307 2.80618)
(36.0253 0.00647052 2.97282)
(35.4794 -0.0020236 3.18093)
(34.9011 -0.00898456 3.57861)
(34.2093 -0.00775426 4.0008)
(33.3796 -0.0183792 4.42442)
(32.3961 -0.0175713 4.93406)
(31.1337 0.00154722 5.62875)
(29.7933 0.0209107 6.38669)
(28.4419 0.0302553 6.47036)
(27.0048 0.0415506 5.16861)
(25.5173 0.0633743 2.87129)
(23.9056 0.127085 0.649507)
(21.9129 0.279212 -1.22222)
(20.0413 0.704443 -3.28024)
(18.2096 1.28829 -3.4938)
(-5.51479 -0.0087066 1.0563)
(8.14693 -1.76886 1.53599)
(11.1909 -1.59392 5.09182)
(4.5457 -1.08048 6.91024)
(10.1127 -1.78058 -3.52889)
(14.2124 -0.372774 -1.95121)
(13.9328 0.34801 1.45026)
(15.3327 0.168362 1.24382)
(16.2313 0.00129533 0.403182)
(17.8004 0.000263333 0.11733)
(19.0314 -0.138558 0.314209)
(20.9069 0.416618 0.540955)
(23.9716 0.684186 0.645877)
(27.3085 0.805889 -0.00689875)
(28.758 0.585182 -1.07859)
(29.466 0.696163 -1.27484)
(29.8694 3.43872 -5.51896)
(35.7982 3.27219 -3.77543)
(24.4629 -1.10633 -3.0834)
(40.0045 0.00110295 0.0501633)
(39.9908 0.00162403 0.156053)
(39.9816 0.00405355 0.260047)
(39.9587 0.00485648 0.365109)
(39.9077 0.00415986 0.472423)
(39.8317 0.00290362 0.583189)
(39.7383 0.00170012 0.698808)
(39.6322 0.000967082 0.820237)
(39.5152 0.000953007 0.948086)
(39.3861 0.00169987 1.08277)
(39.2408 0.00304638 1.22438)
(39.074 0.00471056 1.37274)
(38.8787 0.00638955 1.52732)
(38.6498 0.00778581 1.68809)
(38.381 0.00896409 1.85517)
(38.0758 0.00940331 2.03478)
(37.7341 0.0103526 2.23097)
(37.3731 0.00718549 2.47479)
(36.9987 0.0131349 2.67555)
(36.5254 0.00520571 2.83055)
(36.0072 0.00916266 3.02864)
(35.4795 0.000733705 3.24222)
(34.8732 -0.0102597 3.59906)
(34.1265 -0.00850861 4.01756)
(33.2647 -0.0192213 4.42309)
(32.2453 -0.0168458 4.97313)
(31.0797 0.00231889 5.71362)
(29.9018 0.0190967 6.44692)
(28.6351 0.0266681 6.50797)
(27.2551 0.0375721 5.27872)
(25.8564 0.0594102 3.02736)
(24.4575 0.119205 0.894742)
(23.0926 0.263231 -0.73722)
(22.0975 0.878207 -2.38646)
(23.0476 3.37988 -4.18751)
(23.8921 3.04587 -4.84063)
(22.8317 2.72333 -3.53877)
(22.1968 2.92706 -1.69777)
(22.0182 2.53714 1.3118)
(16.1634 0.946392 2.72648)
(13.7004 0.0640317 -0.439905)
(13.0258 0.310496 -0.216542)
(11.4071 0.0817089 -1.29266)
(11.4717 0.676035 -2.95701)
(12.7798 0.807711 -3.49395)
(14.1485 0.252507 -3.34182)
(16.0824 0.777942 -3.6983)
(18.5217 0.992033 -3.92347)
(21.135 0.912002 -3.9522)
(23.0866 0.682443 -4.1257)
(24.9126 0.747909 -3.49742)
(28.0444 3.5419 -5.12939)
(41.3219 2.31045 0.862262)
(34.779 -0.243947 0.949219)
(40.0027 0.00108551 0.0581283)
(39.99 0.00163904 0.180522)
(39.9841 0.00408791 0.301277)
(39.9675 0.00491805 0.423649)
(39.9227 0.00428454 0.548895)
(39.8523 0.00311924 0.678281)
(39.7644 0.00201762 0.81332)
(39.664 0.0013816 0.954994)
(39.5529 0.00143978 1.10387)
(39.4301 0.0022135 1.26028)
(39.2918 0.00352278 1.42428)
(39.1324 0.0050816 1.59573)
(38.9452 0.00657535 1.77442)
(38.725 0.00788168 1.96084)
(38.4696 0.00898641 2.15642)
(38.1814 0.0101029 2.36527)
(37.867 0.0109976 2.5921)
(37.5338 0.0129103 2.84359)
(37.1825 0.0137515 3.10576)
(36.7705 0.0161373 3.33403)
(36.3115 0.0192024 3.57678)
(35.6283 -0.00616164 3.89247)
(35.1427 -0.0209278 4.20733)
(34.4009 -0.0191254 4.75312)
(33.5575 -0.0361221 5.41266)
(32.6111 -0.0408607 6.13775)
(31.4591 0.000359049 6.93424)
(30.2163 0.0479873 7.6683)
(28.9435 0.0569756 7.78506)
(27.3471 0.0630045 6.66788)
(25.4028 0.0987557 4.67186)
(23.1916 0.180632 2.74865)
(20.2869 0.418501 1.49531)
(18.0982 1.16082 1.15163)
(-4.47821 0.540997 1.88928)
(-5.5247 -0.0082241 0.982631)
(-5.25617 -0.467707 0.0926829)
(1.09744 -0.691378 2.92627)
(-2.62153 -0.0994646 -1.29671)
(1.59885 -2.56941 -6.21984)
(6.79259 -1.5279 -3.91206)
(8.6103 -1.15947 -3.16396)
(11.1708 -0.919059 -4.77332)
(13.0612 -0.509829 -4.94094)
(14.3809 -0.395172 -4.22492)
(15.0464 -0.401495 -3.26338)
(16.6092 -0.226693 -1.81872)
(19.0303 0.00521112 -2.00815)
(22.4237 0.520163 -3.0772)
(23.8164 0.331145 -3.98485)
(24.7785 2.71987 -2.37833)
(3.41635 3.88556 -8.38857)
(8.07405 2.21989 -6.00832)
(-0.154888 0.0204502 -7.05782)
(40.0044 0.00108544 0.0580748)
(39.9918 0.00163935 0.180606)
(39.9845 0.00408819 0.301307)
(39.9643 0.00491856 0.423718)
(39.9173 0.00428413 0.54913)
(39.8464 0.00311733 0.678748)
(39.7589 0.00201537 0.814038)
(39.6596 0.00137908 0.955937)
(39.5499 0.00143707 1.10497)
(39.4283 0.00221075 1.26143)
(39.2907 0.00352152 1.42536)
(39.1313 0.00508232 1.59662)
(38.9438 0.00657918 1.77508)
(38.7232 0.00788897 1.96143)
(38.4674 0.00900294 2.15725)
(38.179 0.0101177 2.36707)
(37.8651 0.0110425 2.59636)
(37.532 0.0129015 2.84899)
(37.1853 0.0136447 3.1195)
(36.7946 0.0172073 3.37684)
(36.2952 0.0201732 3.63389)
(35.7172 0.000488844 3.93229)
(34.9931 -0.0110153 4.24975)
(34.329 -0.0197851 4.81215)
(33.4359 -0.0371059 5.35377)
(32.4321 -0.0403998 6.07223)
(31.3173 0.00313199 6.85911)
(30.3139 0.0433171 7.66079)
(29.1744 0.0515787 7.89091)
(27.6861 0.0573696 6.84787)
(25.8841 0.0947419 4.77223)
(23.9826 0.173215 2.81261)
(22.0982 0.45382 1.50169)
(20.7254 1.93383 0.935358)
(23.2823 5.51914 1.68876)
(-4.57596 -0.0508581 1.01911)
(3.00225 -0.528681 -1.3737)
(5.52905 3.85552 -1.29077)
(7.31535 2.8564 4.8936)
(3.88512 0.0529629 2.32977)
(7.45939 -0.111156 -0.413191)
(7.65727 0.321651 -1.36072)
(9.83651 1.6063 -2.59105)
(12.3638 2.97453 -3.62319)
(14.0232 2.68984 -3.16762)
(13.7303 1.62412 -1.94192)
(15.4343 1.06499 -2.3382)
(17.4745 0.879901 -3.38772)
(20.6432 1.17442 -4.02733)
(22.0456 1.21381 -4.90581)
(24.3315 2.85425 -3.60589)
(31.2124 7.12451 -3.89932)
(35.2119 7.90309 -4.21948)
(33.418 3.53875 -4.95612)
(40.0027 0.00105089 0.0657585)
(39.9912 0.00172157 0.203948)
(39.9878 0.00409972 0.340628)
(39.9745 0.00493419 0.479443)
(39.9342 0.00438631 0.621758)
(39.8698 0.00333705 0.76892)
(39.7888 0.0023533 0.922607)
(39.6962 0.00181432 1.08389)
(39.5935 0.00193013 1.25337)
(39.4794 0.00270411 1.43141)
(39.35 0.00396703 1.61815)
(39.1996 0.0054426 1.81369)
(39.022 0.00688962 2.0183)
(38.813 0.00826631 2.23294)
(38.5712 0.00961051 2.45928)
(38.3004 0.0115071 2.69973)
(38.0059 0.0135788 2.95687)
(37.6941 0.0167442 3.23141)
(37.3613 0.018332 3.52233)
(37.0016 0.0202081 3.82947)
(36.5843 0.0192282 4.16459)
(36.0965 0.0139094 4.55302)
(35.4335 0.0104336 4.97605)
(34.8882 -0.00866195 5.48534)
(34.0106 -0.0515569 6.34268)
(33.1845 -0.0632716 7.23832)
(32.3141 -0.0240869 8.01637)
(31.3385 0.0568793 8.79114)
(30.1771 0.110276 9.29896)
(28.3877 0.10841 8.58983)
(26.2904 0.0971108 6.61081)
(24.0834 0.126477 4.7954)
(21.7363 0.260724 4.31329)
(20.1258 0.974096 6.49798)
(15.8879 1.7323 12.9071)
(-4.21729 -0.0523785 0.959264)
(1.2308 -1.95398 -6.72589)
(3.00692 -1.7478 -3.83496)
(1.85119 -2.48614 -4.54601)
(7.07251 -2.90864 -6.46421)
(11.0809 -2.93342 -8.56974)
(14.4614 -2.37581 -8.50488)
(17.3208 -1.63177 -7.26635)
(18.4176 -1.1285 -5.86006)
(19.1787 -0.361908 -4.98582)
(19.5026 -0.0872651 -4.22119)
(18.7698 -0.323717 -2.85574)
(19.9437 -0.406719 -2.77163)
(22.8591 0.290414 -3.78181)
(25.1252 0.66729 -4.53022)
(26.9791 1.36912 -1.8336)
(26.8969 2.72563 2.01746)
(31.8806 3.4703 -0.28663)
(11.0328 4.08002 -10.2778)
(40.0043 0.00105083 0.0657052)
(39.993 0.00172187 0.204034)
(39.9881 0.00410008 0.340663)
(39.9714 0.00493463 0.479521)
(39.9291 0.0043868 0.622004)
(39.8641 0.00333743 0.769396)
(39.7836 0.00235391 0.923321)
(39.692 0.00181345 1.08481)
(39.5906 0.00192708 1.25442)
(39.4776 0.00270075 1.43249)
(39.3488 0.00396521 1.61917)
(39.1984 0.0054432 1.81458)
(39.0207 0.00689177 2.01911)
(38.8114 0.00827073 2.2338)
(38.5701 0.0096177 2.46052)
(38.2999 0.0115205 2.70189)
(38.0066 0.0135957 2.96048)
(37.6941 0.0167843 3.23645)
(37.3599 0.0183286 3.52941)
(37.0003 0.0204264 3.83499)
(36.5726 0.0195109 4.17707)
(36.1028 0.0144624 4.56735)
(35.4457 0.012591 5.0666)
(34.9408 -0.00141095 5.52948)
(33.9854 -0.0527954 6.20677)
(32.9959 -0.0661331 7.09746)
(32.0085 -0.0305981 7.8963)
(31.0818 0.0526844 8.78737)
(30.2139 0.0970659 9.25711)
(28.9236 0.0858969 8.68789)
(26.9091 0.090079 6.87106)
(24.711 0.124607 4.8629)
(22.8068 0.277095 3.91184)
(20.7621 1.54461 4.97427)
(23.6707 4.58312 10.0224)
(20.4984 2.69027 9.43912)
(18.3103 2.28037 6.60669)
(12.8551 2.24754 3.44236)
(8.60866 1.83893 2.39859)
(12.6755 0.426858 -1.95514)
(13.9999 -0.0625626 -6.3275)
(14.4507 0.185937 -6.30643)
(16.536 1.44736 -5.13965)
(16.8543 2.89911 -4.32706)
(16.5398 3.68052 -2.44134)
(15.5035 2.58125 -0.372916)
(18.0604 1.90971 -0.268034)
(18.34 1.17977 -1.53591)
(21.729 1.51426 -2.69817)
(24.3932 2.14179 -3.11499)
(24.305 2.31856 -2.72508)
(27.1857 3.29264 -0.036467)
(36.4285 4.59229 0.192057)
(31.1079 5.68241 -2.23291)
(40.0026 0.00103389 0.0729931)
(39.9927 0.00173999 0.225832)
(39.9919 0.00413917 0.377455)
(39.9825 0.00500439 0.531762)
(39.9476 0.00452092 0.690215)
(39.89 0.0035571 0.85426)
(39.817 0.00266149 1.02574)
(39.7332 0.00219589 1.20582)
(39.64 0.00235513 1.39517)
(39.536 0.00313469 1.59427)
(39.4169 0.0043673 1.80347)
(39.2775 0.00579377 2.02313)
(39.1119 0.00721245 2.25386)
(38.9164 0.00858468 2.49671)
(38.69 0.0101223 2.75274)
(38.4363 0.0121946 3.02347)
(38.1601 0.0147126 3.30836)
(37.8662 0.0178914 3.60855)
(37.553 0.020313 3.92208)
(37.2181 0.0224421 4.25683)
(36.8509 0.0233393 4.6204)
(36.4438 0.0218229 5.05407)
(35.9974 0.0220491 5.57045)
(35.3941 0.047544 6.25144)
(34.7626 -0.0165909 7.15)
(33.9203 -0.0280953 8.12609)
(33.2737 -0.00123769 8.89807)
(32.8134 -0.0332452 9.60846)
(32.2152 0.0532014 10.4235)
(31.1866 0.195183 10.5439)
(29.0912 0.188448 8.96811)
(25.7144 0.168473 6.88627)
(22.8458 0.187651 6.11394)
(20.4559 0.530458 7.44846)
(22.4758 1.30418 14.0417)
(18.7446 0.350729 10.5371)
(16.6776 -1.17618 6.47825)
(14.2903 -2.28373 2.08193)
(12.5577 -2.47712 -1.99404)
(14.1057 -2.8525 -5.02567)
(16.6405 -3.32039 -6.66404)
(17.9757 -2.76532 -6.71435)
(21.6379 -1.40397 -7.81142)
(21.6094 -1.68468 -6.20096)
(18.9092 -0.965044 -1.75019)
(19.1974 -0.00157971 -0.159128)
(18.2122 -0.122909 -0.792279)
(20.8139 -0.331453 -2.86942)
(22.823 0.420148 -3.47149)
(25.0384 0.819754 -3.10758)
(25.8782 0.0615242 -2.72965)
(28.0762 0.207321 -1.3382)
(36.6202 0.913875 0.18849)
(29.6165 3.51381 -6.89912)
(40.0042 0.00103383 0.0729431)
(39.9944 0.00174027 0.225924)
(39.9923 0.00413954 0.377507)
(39.9795 0.00500488 0.53186)
(39.9427 0.00452152 0.690484)
(39.8845 0.0035577 0.854757)
(39.812 0.00266245 1.02647)
(39.7292 0.00219555 1.20674)
(39.6372 0.00235277 1.39622)
(39.5341 0.00313206 1.59536)
(39.4157 0.00436617 1.80454)
(39.2763 0.00579187 2.02415)
(39.1107 0.00721263 2.25487)
(38.9151 0.0085882 2.49776)
(38.6894 0.0101232 2.7541)
(38.4366 0.0121975 3.02489)
(38.1614 0.014727 3.31053)
(37.8672 0.0179238 3.61039)
(37.5528 0.0203299 3.92521)
(37.2167 0.0225043 4.2582)
(36.8442 0.0236135 4.62282)
(36.4399 0.0209356 5.05053)
(35.9958 0.0254158 5.58111)
(35.5268 0.0278366 6.2245)
(35.0943 0.0764202 6.9154)
(34.0275 -0.0326096 7.95609)
(33.531 -0.123422 8.649)
(32.4336 -0.0464262 9.62488)
(31.5637 0.095673 10.3384)
(30.8077 0.159481 10.4002)
(29.485 0.188398 9.39497)
(27.1047 0.171401 7.42291)
(24.0894 0.235022 6.01839)
(21.6544 0.399779 6.7689)
(22.3097 1.77931 10.1318)
(25.0135 1.9564 10.6364)
(25.1807 1.42313 8.59088)
(22.6809 0.999216 5.76811)
(20.3221 0.79573 3.48875)
(21.2781 -0.372509 -1.29932)
(15.9725 -1.50981 -5.30437)
(10.8352 -0.641596 -5.84323)
(15.7326 2.18318 -5.3157)
(18.3063 4.74139 -1.95883)
(14.5113 3.71474 3.02442)
(7.91864 -0.0994021 5.9847)
(6.50617 -0.414992 5.12545)
(12.1839 0.177198 1.94299)
(16.6865 0.238777 0.221035)
(19.7589 0.73886 -0.752712)
(21.4514 0.999021 -1.42816)
(23.5276 1.02028 -0.202675)
(32.7614 1.24216 2.05099)
(31.1113 4.09346 -1.9062)
(40.0027 0.00100289 0.0797345)
(39.9942 0.00182906 0.245878)
(39.9968 0.00416794 0.411283)
(39.9918 0.00504155 0.579942)
(39.9631 0.00464611 0.753394)
(39.9131 0.0037975 0.933175)
(39.8491 0.00301315 1.12129)
(39.7753 0.00263442 1.31906)
(39.6929 0.00284204 1.52726)
(39.6003 0.00363774 1.74658)
(39.4933 0.00485731 1.97757)
(39.3667 0.00627925 2.22084)
(39.2151 0.00771539 2.47709)
(39.0344 0.00914294 2.74706)
(38.824 0.0108256 3.03123)
(38.586 0.0128154 3.32929)
(38.3253 0.0157121 3.63923)
(38.0463 0.0184789 3.95955)
(37.7516 0.0212964 4.2873)
(37.4436 0.0226608 4.62958)
(37.1286 0.0209965 4.98991)
(36.8057 0.0191403 5.41706)
(36.5419 -0.000383662 5.9578)
(36.188 0.0171152 6.63551)
(35.9082 0.0782394 7.64691)
(35.0341 0.0446906 8.74426)
(34.6864 -0.00846931 9.36167)
(33.9587 -0.0294255 10.2969)
(33.3164 -0.0153078 11.1151)
(32.7283 0.0512675 11.7111)
(31.7458 0.101848 11.7065)
(29.6416 0.155784 10.9126)
(26.2956 0.23051 9.16882)
(23.025 0.212041 8.26342)
(22.468 0.522713 9.88012)
(23.3969 0.412416 9.5465)
(22.7543 -0.253971 7.07729)
(21.3042 -0.935996 3.74963)
(19.4547 -1.30278 0.280446)
(18.5996 -2.01127 -2.32181)
(18.8575 -2.98519 -3.49513)
(18.1464 -3.59837 -4.64447)
(22.1807 -1.98465 -8.42095)
(7.80314 -0.687355 1.15332)
(9.31682 -1.23818 -0.617535)
(20.023 1.87536 -3.74078)
(14.6681 0.121566 -1.92655)