/*--------------------------------*- C++ -*----------------------------------*\
| =========                 |                                                 |
| \\      /  F ield         | OpenFOAM: The Open Source CFD Toolbox           |
|  \\    /   O peration     | Version:  4.1                                   |
|   \\  /    A nd           | Web:      www.OpenFOAM.org                      |
|    \\/     M anipulation  |                                                 |
\*---------------------------------------------------------------------------*/
FoamFile
{
    version     2.0;
    format      ascii;
    class       volScalarField;
    location    "4";
    object      epsilon;
}
// * * * * * * * * * * * * * * * * * * * * * * * * * * * * * * * * * * * * * //

dimensions      [0 2 -3 0 0 0 0];

internalField   nonuniform List<scalar> 
4432
(
0.000399361
0.000446319
0.000501973
0.000542062
0.000579198
0.000598973
0.00064338
0.000616819
0.000749131
0.000768689
0.000801252
0.000813484
0.000738224
0.000862062
0.000867781
0.000806916
0.000764342
0.000806259
0.000876585
0.000881088
0.000779106
0.000902118
0.000918099
0.000935617
0.000932818
0.000943993
0.0007572
0.000904479
0.00079876
0.000788431
0.00072746
0.000854233
0.000864951
0.000889226
0.000892022
0.000909485
0.000909876
0.000819516
0.000852614
0.000905626
0.000798878
0.000729119
0.000559674
0.000837014
0.000978174
0.00183894
0.00184108
0.00132972
0.00125922
0.00117374
0.00115634
0.00104123
0.000820683
0.000580999
0.000399474
0.000445891
0.000499782
0.000541375
0.000572838
0.000603826
0.000621094
0.000655027
0.000646826
0.000749513
0.000765766
0.000723077
0.000663929
0.000795416
0.000807765
0.000759722
0.000747578
0.000749291
0.000837116
0.000844984
0.000759982
0.000878105
0.000897065
0.00091679
0.000916208
0.000929694
0.00075248
0.00089705
0.000797992
0.000784555
0.00072755
0.000852168
0.000863678
0.000888567
0.000891252
0.0008006
0.000910364
0.000905858
0.000802357
0.000913937
0.000797821
0.000718692
0.000555484
0.000808158
0.000943213
0.00163586
0.00153639
0.00112605
0.00107598
0.00102378
0.00101294
0.000827436
0.00070347
0.000570208
0.0735986
0.00152932
0.00148649
0.00148718
0.00148713
0.00148781
0.00148905
0.00148909
0.00148909
0.00149043
0.00148855
0.00148785
0.0014899
0.00148779
0.00148709
0.00148777
0.0014877
0.00148902
0.00148772
0.00148705
0.00148765
0.00148762
0.00148818
0.00148826
0.00148869
0.00148937
0.00148958
0.0014901
0.00149028
0.00149026
0.00149087
0.0014899
0.00148982
0.00149079
0.00149078
0.00149082
0.00148948
0.00149065
0.0014921
0.00149344
0.00149347
0.00149388
0.00150065
0.00151297
0.00151557
0.00151124
0.00151628
0.00158458
0.00233296
0.00578369
0.0131163
0.0161095
0.0203691
0.00932088
0.0735991
0.00152916
0.00148642
0.0014871
0.00148705
0.00148773
0.001489
0.00148903
0.00148903
0.0014904
0.00148846
0.00148776
0.0014898
0.0014877
0.00148768
0.00148907
0.00148903
0.00148963
0.00148764
0.00148697
0.00148756
0.00148753
0.00148807
0.00148873
0.00148887
0.00148895
0.00148906
0.00148959
0.00149014
0.00149012
0.00149071
0.00148973
0.00148963
0.00149056
0.00149052
0.00149046
0.00148908
0.00149018
0.00149234
0.00149368
0.00149608
0.00149393
0.0014971
0.00151102
0.00151318
0.001506
0.00151287
0.00159376
0.00243172
0.00612292
0.0134518
0.0157034
0.0197393
0.00922595
0.0735473
0.00152777
0.00148575
0.00148642
0.00148711
0.00148683
0.00148683
0.00148723
0.0014879
0.00148845
0.00148983
0.00148846
0.0014877
0.00148837
0.00148901
0.00148836
0.00148834
0.0014903
0.00148768
0.00148763
0.00148889
0.00148886
0.00149017
0.00148835
0.00148831
0.00149013
0.0014889
0.00148881
0.00148996
0.00148838
0.00148832
0.00148923
0.00148862
0.00148917
0.00148897
0.00148891
0.00148982
0.00148931
0.00148935
0.00149018
0.00149042
0.00149291
0.00149424
0.00149288
0.00148976
0.00149253
0.00149286
0.00149924
0.0015073
0.0015657
0.00170057
0.00171798
0.00216471
0.00608892
0.0735478
0.00152766
0.00148568
0.00148635
0.00148704
0.00148689
0.00148687
0.0014874
0.00148807
0.00148837
0.00148974
0.00148838
0.00148762
0.00148829
0.00148895
0.00148829
0.00148827
0.00149022
0.00148761
0.00148756
0.00148881
0.00148877
0.00149007
0.00148824
0.00148821
0.00149002
0.0014888
0.00148871
0.00148985
0.00148825
0.00148818
0.00148916
0.00148854
0.00148899
0.00148877
0.00148869
0.00148955
0.001489
0.00148894
0.0014897
0.00149053
0.00149241
0.0014933
0.00149436
0.0014927
0.00148992
0.00149222
0.00149614
0.00150294
0.00156331
0.00172976
0.00169013
0.00222341
0.005962
0.0735481
0.00152777
0.00148575
0.00148642
0.00148713
0.00148798
0.0014883
0.00148812
0.00148842
0.00148909
0.0014891
0.00148878
0.00148872
0.00148853
0.00148926
0.00148967
0.00149027
0.00148832
0.00148764
0.00148834
0.00148903
0.00148834
0.00148828
0.0014895
0.00148886
0.00148898
0.00148897
0.0014888
0.00148902
0.00149038
0.00149067
0.00148833
0.00148765
0.00148861
0.00148804
0.00148804
0.00148894
0.00149024
0.00149022
0.0014914
0.00149293
0.00149292
0.00149301
0.00149426
0.00149177
0.00149277
0.00149344
0.00149608
0.00150389
0.00150929
0.00150997
0.00150816
0.00160308
0.00250114
0.0735486
0.00152765
0.00148568
0.00148635
0.00148705
0.00148807
0.00148867
0.00148764
0.0014877
0.00148905
0.00148898
0.00148884
0.00148872
0.00148867
0.00149013
0.00148896
0.00148882
0.00148879
0.00148889
0.00149082
0.00148826
0.00148757
0.00148878
0.00148875
0.0014889
0.00148837
0.0014889
0.0014887
0.00148883
0.00148952
0.00148988
0.00148986
0.00148877
0.00148821
0.00148775
0.00148769
0.00148868
0.00149032
0.00149034
0.00149103
0.00149196
0.00149206
0.00149201
0.00149238
0.00149216
0.00149022
0.00149192
0.00149292
0.0015027
0.0015091
0.00150557
0.00152522
0.00160289
0.00251338
0.0735478
0.00152777
0.00148575
0.00148642
0.00148712
0.00148684
0.00148683
0.00148751
0.00148955
0.00148914
0.00148907
0.0014904
0.00148841
0.00148752
0.00148814
0.00148769
0.00148834
0.00148955
0.00148952
0.00148955
0.00148832
0.00148746
0.00148799
0.00148843
0.00148848
0.00148886
0.00148899
0.00148962
0.00149002
0.00148892
0.00148831
0.0014888
0.00148976
0.00148979
0.00148994
0.00148998
0.00149024
0.00149009
0.00148975
0.00149051
0.00149195
0.00149222
0.0014928
0.00149388
0.0014907
0.00149227
0.00149111
0.00149293
0.00149771
0.00149848
0.00149529
0.00149125
0.00151124
0.00194588
0.0735484
0.00152766
0.00148568
0.00148635
0.00148706
0.0014869
0.00148689
0.00148744
0.00148812
0.0014884
0.00148969
0.00148933
0.00148864
0.00148958
0.00148957
0.00148956
0.00149018
0.00148824
0.00148754
0.00148883
0.00148883
0.0014894
0.00148933
0.00149002
0.00148827
0.00148754
0.00148827
0.00148891
0.00148824
0.00148755
0.00148822
0.00148819
0.00148903
0.00148903
0.00148994
0.00148838
0.00148854
0.00149011
0.00149009
0.00149011
0.00149148
0.00149183
0.00149205
0.00149369
0.00148998
0.00149037
0.00148994
0.00149356
0.00149584
0.00149222
0.00149181
0.00149282
0.00151322
0.00197096
0.0735477
0.00152777
0.00148646
0.00148714
0.00148714
0.00148852
0.00148989
0.00148987
0.00149055
0.0014889
0.00148883
0.00149039
0.00148842
0.00148764
0.00148827
0.00148833
0.00148894
0.001489
0.00148917
0.00148952
0.00148809
0.00148765
0.00148821
0.00148819
0.00148897
0.00148911
0.00148964
0.00148961
0.0014896
0.00149002
0.00148767
0.00148776
0.0014889
0.0014889
0.0014894
0.00148897
0.00148873
0.00148953
0.00148993
0.00149
0.00149146
0.00149176
0.00149173
0.00149374
0.00149145
0.00149182
0.00148973
0.00149251
0.00149275
0.00149036
0.00149037
0.00149289
0.00149862
0.00168826
0.0735483
0.00152765
0.00148638
0.00148706
0.00148705
0.00148775
0.0014886
0.00148927
0.00149046
0.00148907
0.001489
0.00149032
0.00149031
0.00149031
0.00148834
0.00148763
0.00148826
0.0014883
0.00148935
0.00148975
0.00148807
0.00148757
0.00148808
0.00148807
0.0014889
0.00148951
0.00148973
0.00148964
0.0014895
0.00148956
0.00148757
0.00148755
0.0014893
0.00148904
0.00148925
0.00148867
0.00148894
0.00148926
0.0014899
0.00148965
0.0014911
0.00149142
0.00148993
0.00149316
0.00148969
0.0014904
0.0014896
0.00149075
0.00149014
0.0014877
0.00149291
0.00150081
0.00149965
0.00171144
0.0735474
0.00152777
0.00148646
0.00148714
0.00148714
0.00148852
0.00148989
0.00148847
0.00148845
0.00149047
0.00148845
0.00148843
0.00149044
0.00148908
0.0014884
0.00148903
0.0014903
0.00148834
0.00148764
0.00148956
0.00148953
0.00148891
0.00148892
0.00148959
0.00148952
0.00149013
0.00148903
0.00148899
0.00149082
0.00149073
0.00148837
0.00148777
0.00148915
0.00148913
0.00148938
0.00149052
0.00148872
0.0014892
0.00149105
0.0014907
0.00148989
0.00149135
0.00149113
0.00149175
0.00149272
0.00148826
0.00148835
0.00149012
0.00148931
0.00148703
0.00149026
0.00149373
0.00149348
0.00149411
0.073548
0.00152766
0.00148638
0.00148706
0.00148705
0.00148775
0.00148859
0.00148922
0.00148906
0.00148972
0.00148837
0.00148835
0.00149036
0.001489
0.00148831
0.00148895
0.00149024
0.00148828
0.00148757
0.00148952
0.00148827
0.00148825
0.00148888
0.00148888
0.00148942
0.00148952
0.00148897
0.00148953
0.00148991
0.00148879
0.00148876
0.00148891
0.00148863
0.00148891
0.0014893
0.00149027
0.0014888
0.00148891
0.00149067
0.00149023
0.00148938
0.0014909
0.00148936
0.00149095
0.00148971
0.00148799
0.00148959
0.0014922
0.00148994
0.00148912
0.0014916
0.00149764
0.00149369
0.00149724
0.0735473
0.00152778
0.00148576
0.00148643
0.00148712
0.00148713
0.0014878
0.00148847
0.00148983
0.00148849
0.00148774
0.00148907
0.00148905
0.00149038
0.00148841
0.00148836
0.00149096
0.00149076
0.00148881
0.00148766
0.00148888
0.00148884
0.00148858
0.00148864
0.00148894
0.00148905
0.00148925
0.00149037
0.00148952
0.00148945
0.00149078
0.00148843
0.00148773
0.00148849
0.00148943
0.00148864
0.00148872
0.00148964
0.00148981
0.00148949
0.00148896
0.00149177
0.00149182
0.00149122
0.00149309
0.00149018
0.00148841
0.00149161
0.00148977
0.00148645
0.00149157
0.00149589
0.00149339
0.00149864
0.0735479
0.00152766
0.00148568
0.00148635
0.00148705
0.00148705
0.00148772
0.00148839
0.00148975
0.00148841
0.00148767
0.00148899
0.00148897
0.0014903
0.00148834
0.00148829
0.00149024
0.00149011
0.00148815
0.00148757
0.00148823
0.00148832
0.00148952
0.0014895
0.00148946
0.00149009
0.00149005
0.00148883
0.00148882
0.00148932
0.0014899
0.00148837
0.00148774
0.00148837
0.0014893
0.0014885
0.00148856
0.00148946
0.0014896
0.00148923
0.00148865
0.00149141
0.00149047
0.00149083
0.00149117
0.00148963
0.00148913
0.001491
0.00149105
0.00149157
0.00149425
0.00149649
0.00149984
0.00149838
0.073547
0.00152778
0.00148576
0.00148643
0.00148712
0.00148712
0.00148916
0.00148903
0.00148901
0.00149119
0.00148845
0.0014884
0.0014904
0.00148844
0.00148813
0.00148878
0.00148968
0.001489
0.00148895
0.00148898
0.00148899
0.00149019
0.0014902
0.00149097
0.00148847
0.00148779
0.00148901
0.00148898
0.0014895
0.00148942
0.0014902
0.0014884
0.00148707
0.00148783
0.00148805
0.00148848
0.00148943
0.00149034
0.00148875
0.00148884
0.00149137
0.00149167
0.00149106
0.00149272
0.00149298
0.00149082
0.00149022
0.00149534
0.00149282
0.0014892
0.00149128
0.0014954
0.00149351
0.00150025
0.0735477
0.00152766
0.00148568
0.00148635
0.00148705
0.00148704
0.00148772
0.00148909
0.00148976
0.00149042
0.00148837
0.00148832
0.00149032
0.00148835
0.00148807
0.00148872
0.00148961
0.00148893
0.00148889
0.0014902
0.00148971
0.00149036
0.00148896
0.00148858
0.0014892
0.00148905
0.00148957
0.00148757
0.00148691
0.00148765
0.00148764
0.00148865
0.00148817
0.00148809
0.001489
0.00148886
0.00148963
0.00149008
0.00148845
0.00148847
0.00149093
0.00149136
0.00149075
0.001492
0.00149274
0.00149124
0.0014873
0.00148954
0.00148982
0.0014915
0.00149386
0.0014951
0.0014989
0.00150106
0.073547
0.00152778
0.00148576
0.00148643
0.00148712
0.00148712
0.00148915
0.00148892
0.00148887
0.00149111
0.00149103
0.00148838
0.00148774
0.00148974
0.00148789
0.00148784
0.00148966
0.00148967
0.00149025
0.0014883
0.0014876
0.00148891
0.00148889
0.00149028
0.00148852
0.0014879
0.00148967
0.00148906
0.00148899
0.0014895
0.00149027
0.00148846
0.00148834
0.00149054
0.00149066
0.00148964
0.00149004
0.00149093
0.00148929
0.00149024
0.00149089
0.00149105
0.00149009
0.00149298
0.00149425
0.00149101
0.00148933
0.00149452
0.00149254
0.00149135
0.00149226
0.00149871
0.00149921
0.00150219
0.0735477
0.00152766
0.00148568
0.00148635
0.00148705
0.00148704
0.00148907
0.001489
0.00148896
0.00149105
0.001491
0.00148832
0.00148766
0.00148966
0.00148899
0.00148832
0.00148894
0.00149024
0.00148957
0.00148952
0.00148888
0.00148888
0.00148901
0.00148911
0.00148842
0.00148778
0.00148955
0.00148891
0.00148829
0.00148872
0.00149021
0.0014883
0.0014877
0.00148833
0.0014893
0.0014887
0.00148891
0.00149089
0.00148914
0.00149005
0.00149069
0.00149135
0.00149104
0.0014925
0.00149376
0.00149145
0.00148739
0.00148871
0.00149156
0.00149357
0.00149338
0.00149805
0.00149886
0.00150216
0.0735469
0.00152778
0.00148577
0.00148643
0.00148712
0.0014878
0.00148846
0.00148914
0.00148979
0.00148977
0.00149044
0.00148845
0.00148777
0.00148845
0.00148906
0.0014884
0.00148705
0.00148769
0.0014877
0.00148898
0.00148762
0.00148695
0.00148765
0.00148784
0.00148903
0.00148964
0.00149046
0.00148849
0.00148838
0.00149019
0.00149014
0.00148907
0.001489
0.00149023
0.00148931
0.00148918
0.0014908
0.00148885
0.00148809
0.00148874
0.00148891
0.00148991
0.00149104
0.00149152
0.00149169
0.00149135
0.00148956
0.00149135
0.00149444
0.00149538
0.00149409
0.00150078
0.00149932
0.00150246
0.0735475
0.00152767
0.00148568
0.00148635
0.00148704
0.00148771
0.00148838
0.00148906
0.00148972
0.00148972
0.00149037
0.00148837
0.00148769
0.00148836
0.00148897
0.00148832
0.00148827
0.00149022
0.00149014
0.00148821
0.00148691
0.00148754
0.00148752
0.00148824
0.00148859
0.00148912
0.00149047
0.00148833
0.00148767
0.00148937
0.00148825
0.00148823
0.00148824
0.00148812
0.00148967
0.00148956
0.00149064
0.00148868
0.00148787
0.00148844
0.0014886
0.0014895
0.00149149
0.00149251
0.00149383
0.00149111
0.00148873
0.00148884
0.00149124
0.00149332
0.00149234
0.00149361
0.00149255
0.00149912
0.0735469
0.00152778
0.00148646
0.00148713
0.00148712
0.00148917
0.00148906
0.00148902
0.00149114
0.00148913
0.00148844
0.00149045
0.00148848
0.00148776
0.00148844
0.0014891
0.00148839
0.00148831
0.00149026
0.00149013
0.00149075
0.00148826
0.0014877
0.00148855
0.00148962
0.00148883
0.00148858
0.00149102
0.00148844
0.00148702
0.00148764
0.00148836
0.00148891
0.00148882
0.00148986
0.00149063
0.00148856
0.00148674
0.00148791
0.00148753
0.00148799
0.00148799
0.00149025
0.00148921
0.00148951
0.00149086
0.00149021
0.00149326
0.00149241
0.00149169
0.00149255
0.00149734
0.00149939
0.00150229
0.0735476
0.00152766
0.00148638
0.00148705
0.00148704
0.00148773
0.00148908
0.00148973
0.00149039
0.00148906
0.00148837
0.00149037
0.0014884
0.00148704
0.00148768
0.00148894
0.0014883
0.00148826
0.00149016
0.00149016
0.00149083
0.0014883
0.00148761
0.00149066
0.00148996
0.0014899
0.00148865
0.00148724
0.00148776
0.0014884
0.00148879
0.00148948
0.00148816
0.00148826
0.00148977
0.00148972
0.0014885
0.00148666
0.0014878
0.00148741
0.00148788
0.00148787
0.00149019
0.00149004
0.00149061
0.00149027
0.00149019
0.00149545
0.00149059
0.0014902
0.00149391
0.00149728
0.00149928
0.00150229
0.0735469
0.00152846
0.00148787
0.00148856
0.00148925
0.00148995
0.00148994
0.0014905
0.00148906
0.00148906
0.00149108
0.00148844
0.00148843
0.00149043
0.00148846
0.00148806
0.0014887
0.00148908
0.00149025
0.0014889
0.0014877
0.0014882
0.00148847
0.00148959
0.00148947
0.00148869
0.00148907
0.00149019
0.00148839
0.00148756
0.0014894
0.00148933
0.00148942
0.00148902
0.00148964
0.00148846
0.00148783
0.00148868
0.00148891
0.00149011
0.00149023
0.00148999
0.00148961
0.00149198
0.00149272
0.00149379
0.00149306
0.00149475
0.00149233
0.00149291
0.00149474
0.00149653
0.00149832
0.00150232
0.0735476
0.00152834
0.00148779
0.00148849
0.00148917
0.00148986
0.00148985
0.00149043
0.00148899
0.001489
0.00149103
0.00148837
0.00148834
0.00149103
0.0014884
0.00148767
0.00148875
0.00148873
0.00148952
0.00148936
0.00148822
0.00148818
0.0014886
0.00148868
0.00149041
0.00148866
0.0014877
0.00148818
0.00148809
0.00148879
0.00148884
0.0014888
0.00148874
0.00148896
0.00148863
0.00148932
0.00148771
0.00148744
0.00148803
0.00148831
0.00149009
0.00148968
0.00148932
0.00149192
0.00149263
0.00149422
0.00149307
0.00149502
0.00149152
0.00148579
0.00149038
0.00149357
0.00149157
0.00149897
0.0735477
0.001531
0.00149143
0.00148856
0.00148783
0.00148854
0.00148922
0.00148852
0.00148779
0.0014899
0.00148847
0.0014884
0.00148911
0.00148908
0.00149043
0.00148847
0.00148712
0.00148777
0.0014878
0.00148973
0.00148851
0.00148792
0.00148963
0.00149813
0.00149181
0.00148996
0.00149086
0.00148897
0.0014879
0.00148722
0.00148777
0.00148969
0.00148943
0.00148825
0.00148825
0.00148894
0.00148927
0.00148988
0.00149015
0.00149061
0.00149129
0.00148965
0.0014888
0.00149188
0.00149202
0.0014899
0.00149054
0.00149387
0.00149118
0.0014896
0.00149363
0.00149355
0.00149093
0.00149905
0.0735476
0.00152903
0.00148848
0.00148776
0.00148843
0.00148915
0.00148984
0.00148844
0.00148839
0.00149115
0.00148838
0.00148766
0.00148837
0.00148905
0.00148837
0.00148764
0.00149025
0.00148831
0.00148827
0.00149082
0.00148902
0.00148838
0.00148926
0.00149446
0.00149732
0.00149026
0.0014907
0.00148892
0.00148832
0.001489
0.00148899
0.00148936
0.00148891
0.00148805
0.00148755
0.00148827
0.00148918
0.00149061
0.00148933
0.00148966
0.00149216
0.00148922
0.00148874
0.00149183
0.00149245
0.00149036
0.0014902
0.00149376
0.00149293
0.00148754
0.00148988
0.00149307
0.00149101
0.00149893
0.073547
0.00152913
0.00148857
0.00148996
0.00148857
0.00148853
0.00149135
0.00148852
0.00148778
0.00148983
0.00148976
0.00148843
0.00148843
0.00149045
0.00148852
0.00148647
0.00148707
0.00148709
0.0014877
0.00148959
0.00148848
0.00148776
0.00149175
0.00151427
0.00167291
0.00149271
0.00148785
0.00148779
0.00149011
0.00148909
0.00148916
0.0014905
0.00148818
0.00148756
0.00148886
0.00148897
0.00148908
0.00148924
0.00148952
0.00148987
0.00149155
0.00148942
0.00148959
0.00149274
0.00149316
0.00149087
0.00149114
0.00149212
0.00148958
0.00149
0.00149222
0.00149464
0.00149377
0.0015003
0.0734905
0.00153099
0.00149133
0.0014885
0.00148779
0.00148986
0.00148845
0.00148821
0.00148883
0.00148836
0.00148901
0.00149031
0.00148968
0.00148969
0.00149032
0.00148962
0.00149027
0.00148832
0.00148827
0.00149082
0.00148839
0.0014874
0.00149808
0.0015118
0.00164691
0.00148927
0.00148785
0.00148774
0.00148827
0.00148826
0.00148829
0.00148905
0.00148916
0.00148888
0.00148902
0.00148832
0.00148846
0.00149058
0.00148903
0.00148875
0.00148895
0.00148913
0.00148997
0.00149112
0.00149092
0.00149154
0.00149551
0.00149643
0.00149515
0.00149227
0.00149121
0.00149658
0.00149957
0.00150247
0.0735113
0.00152932
0.00148646
0.00148713
0.00148783
0.00148851
0.00148991
0.00148852
0.00148847
0.00149122
0.00148845
0.00148842
0.00149112
0.00148847
0.00148845
0.00149043
0.00148846
0.00148776
0.00148834
0.00148898
0.00148907
0.00148915
0.00149307
0.00151545
0.00149551
0.00148796
0.00148782
0.00148786
0.0014888
0.00148918
0.00148794
0.00148638
0.00148686
0.00148751
0.0014877
0.0014898
0.00148833
0.00148779
0.00148865
0.00148782
0.00148787
0.00148917
0.00149232
0.00149191
0.00149188
0.00148979
0.00148868
0.00148924
0.00149172
0.00149872
0.00149851
0.00149849
0.00150497
0.07357
0.00152978
0.00148855
0.0014899
0.00148848
0.00148849
0.00149052
0.0014884
0.00148836
0.00149039
0.00149038
0.00148839
0.00148834
0.00149032
0.00148901
0.00148898
0.00149027
0.00148835
0.00148696
0.00148767
0.00148848
0.0014889
0.00149708
0.00152056
0.00149141
0.00148895
0.0014896
0.00148849
0.00148799
0.00148827
0.00148824
0.00148893
0.00148855
0.00148867
0.00149007
0.00148827
0.00148842
0.00149052
0.00148917
0.00148874
0.00149018
0.00148952
0.00149077
0.00148971
0.00148988
0.00149071
0.00149194
0.00149131
0.00149159
0.00149819
0.00149284
0.00149163
0.00150235
0.073548
0.00152814
0.00148717
0.00148857
0.00148856
0.00148989
0.00148853
0.00148714
0.0014878
0.00148779
0.00148918
0.00148979
0.00149045
0.00148849
0.00148779
0.00149043
0.0014903
0.00148833
0.00148774
0.00148838
0.00148904
0.00148962
0.00148959
0.00149043
0.00149893
0.00148897
0.00148808
0.00148883
0.00149022
0.00149039
0.00149043
0.0014904
0.00148836
0.00148705
0.00148704
0.0014878
0.00148852
0.00148997
0.00148865
0.00148817
0.00148893
0.00148921
0.00149223
0.00148959
0.00148985
0.00149067
0.00149131
0.00149263
0.0014874
0.00148549
0.00148976
0.00149268
0.00149107
0.00149899
0.0735487
0.00152803
0.0014871
0.0014885
0.00148848
0.00148981
0.00148845
0.00148706
0.00148841
0.00148839
0.00148841
0.00148838
0.00148967
0.00148837
0.00148834
0.00149096
0.00148836
0.00148765
0.00148888
0.00148884
0.00148888
0.00148901
0.00148962
0.00149817
0.00150006
0.00149087
0.00149174
0.00148913
0.00148767
0.00148831
0.00148831
0.00148904
0.00148898
0.00148901
0.00148975
0.00148982
0.00148994
0.00149076
0.0014886
0.00148812
0.00148875
0.00148914
0.00149214
0.00148953
0.00148987
0.00149311
0.00149364
0.00149561
0.00149104
0.00148923
0.00149367
0.00149282
0.00149034
0.00149789
0.0735473
0.00152846
0.00148787
0.00148856
0.00148925
0.00148994
0.00148992
0.00149056
0.00148846
0.0014871
0.00148848
0.00148844
0.00148844
0.00148978
0.00148852
0.00148712
0.00148838
0.00148841
0.00148961
0.00148832
0.0014883
0.00148957
0.00148904
0.00148863
0.00148865
0.00149079
0.00148867
0.00148838
0.00149014
0.00148955
0.00148895
0.00148921
0.00148927
0.00148945
0.00149082
0.00148833
0.00148849
0.00149061
0.00149084
0.0014918
0.00148904
0.00148872
0.00148953
0.00149046
0.00148998
0.00148985
0.00149043
0.00149168
0.00149216
0.00148626
0.00148925
0.00149258
0.00149083
0.00149829
0.073548
0.00152834
0.00148779
0.00148848
0.00148917
0.00148986
0.00148984
0.00149049
0.00148839
0.00148702
0.0014884
0.00148837
0.0014897
0.00148839
0.00148836
0.00149032
0.00148963
0.00149028
0.00148921
0.00148853
0.00148928
0.00148929
0.00149052
0.00148931
0.00148868
0.00148917
0.00148967
0.00149093
0.0014882
0.00148814
0.00148871
0.0014887
0.00148997
0.0014882
0.00148782
0.00148914
0.00148883
0.0014884
0.00148868
0.00149021
0.00148891
0.00148865
0.00148946
0.00149037
0.0014899
0.0014895
0.00149007
0.00149114
0.00149218
0.00148666
0.00148935
0.00149276
0.00149049
0.00149772
0.0735475
0.00152776
0.00148646
0.00148715
0.00148714
0.00148782
0.00148917
0.0014878
0.00148642
0.00148711
0.00148711
0.00148779
0.001489
0.00148892
0.00148893
0.00149027
0.00148864
0.00148855
0.00149089
0.00148835
0.0014883
0.00149021
0.00148958
0.00148985
0.00148932
0.00148988
0.0014885
0.0014884
0.00149079
0.00148817
0.00148753
0.00148997
0.00148989
0.00148896
0.00148855
0.00148979
0.0014885
0.00148864
0.00149087
0.00149059
0.00149087
0.00149201
0.00148997
0.00149017
0.00149409
0.00148919
0.0014896
0.00149077
0.0014922
0.00149006
0.00148948
0.00149243
0.00149075
0.00149831
0.0735482
0.00152765
0.00148638
0.00148707
0.00148707
0.00148775
0.0014891
0.00148773
0.00148635
0.00148704
0.00148703
0.00148772
0.00148903
0.00148766
0.00148765
0.00148834
0.001489
0.00148831
0.00148824
0.00149014
0.00148945
0.00148953
0.00148901
0.00148852
0.00148849
0.00148911
0.00148958
0.00148939
0.0014901
0.00148882
0.00148878
0.00149062
0.0014894
0.0014885
0.0014886
0.00148976
0.00148847
0.00148856
0.00149083
0.00149055
0.00149084
0.00149196
0.00149138
0.00149151
0.00149323
0.00148929
0.00149019
0.00149131
0.00149234
0.00149091
0.00148961
0.00149282
0.0014906
0.00149784
0.0735475
0.00152776
0.00148645
0.00148714
0.00148778
0.00148847
0.00148848
0.00148985
0.00148855
0.00148715
0.0014878
0.00148778
0.00148845
0.00148911
0.00148974
0.00148843
0.00148774
0.00148835
0.00148901
0.00148915
0.00148906
0.00149019
0.00148832
0.00148775
0.00148848
0.00148922
0.00148847
0.00148696
0.00148758
0.00148755
0.00148812
0.00148946
0.00148994
0.00148819
0.00148772
0.0014882
0.0014877
0.00148849
0.00148921
0.00149008
0.00148925
0.00148852
0.00148952
0.00149012
0.00149308
0.00149029
0.00148962
0.00149136
0.00149269
0.00149092
0.00149024
0.00149252
0.00149057
0.00149824
0.0735482
0.00152765
0.00148638
0.00148707
0.00148753
0.00148822
0.00148822
0.00148959
0.00148849
0.00148708
0.00148772
0.00148771
0.00148837
0.00148969
0.00149032
0.00148833
0.00148782
0.00148844
0.00148893
0.00148827
0.00148819
0.00148879
0.00148897
0.00148963
0.00148841
0.00148828
0.00149015
0.00148988
0.00148853
0.00148761
0.00148807
0.00148994
0.00148992
0.00148817
0.00148769
0.00148818
0.00148767
0.00148834
0.00148921
0.00149002
0.00148923
0.00148846
0.00148945
0.00148998
0.00149186
0.00149105
0.00148761
0.00148621
0.00149024
0.00149428
0.00149442
0.00149318
0.0014919
0.00149938
0.0735477
0.00152775
0.00148714
0.00148783
0.00148853
0.00148895
0.00148894
0.0014906
0.00149056
0.00148779
0.00148779
0.00148912
0.0014891
0.00149048
0.00149033
0.00148835
0.00148764
0.00148827
0.00148899
0.00148939
0.00148877
0.00148829
0.0014887
0.00149016
0.00148842
0.00148766
0.00148885
0.00148879
0.00148877
0.00148942
0.00148872
0.00148877
0.00148943
0.00148935
0.00149008
0.00148891
0.00148847
0.00148935
0.00148941
0.00149009
0.00149084
0.00149122
0.00149187
0.00149157
0.00149218
0.00149375
0.0014895
0.00149157
0.00149441
0.0014929
0.00149215
0.00149588
0.00149671
0.00150057
0.0735483
0.00152765
0.00148707
0.00148776
0.00148845
0.00148889
0.00148887
0.00148984
0.00148976
0.00148836
0.0014884
0.00148972
0.00148971
0.00149039
0.00148902
0.00148832
0.00148882
0.00148881
0.00148959
0.0014889
0.00148795
0.0014879
0.00148856
0.00149001
0.0014883
0.00148694
0.00148756
0.00148767
0.00148823
0.0014895
0.00148815
0.00148821
0.00148941
0.00148941
0.00149014
0.00148888
0.00148843
0.00148917
0.00148938
0.00149004
0.00149082
0.00149122
0.00149185
0.00149143
0.00148919
0.0014919
0.00148949
0.00149019
0.00149134
0.00149459
0.00149655
0.00149297
0.00149193
0.00149922
0.0735476
0.00152775
0.00148714
0.00148783
0.00148852
0.0014888
0.00148879
0.0014906
0.00149056
0.00148779
0.00148779
0.0014898
0.00148843
0.00148842
0.00149041
0.0014889
0.0014882
0.00148924
0.00148917
0.00149023
0.0014883
0.00148758
0.00148955
0.00148889
0.00148889
0.00148805
0.00148805
0.00149018
0.00148829
0.00148825
0.00149071
0.00148997
0.00148995
0.00148886
0.00148895
0.00149104
0.00148867
0.00148855
0.00148929
0.0014899
0.00149084
0.00149117
0.00149188
0.00149008
0.00148917
0.00149147
0.00149267
0.00149403
0.00149178
0.00149012
0.00149316
0.00149611
0.00149612
0.00149992
0.0735483
0.00152764
0.00148706
0.00148775
0.00148844
0.00148889
0.00148889
0.00148983
0.00148976
0.00148837
0.0014884
0.00148973
0.00148836
0.00148834
0.00149033
0.00148965
0.00148767
0.00148763
0.00148828
0.00148958
0.00148823
0.00148755
0.00148948
0.00148882
0.00148883
0.00149018
0.00148891
0.00148863
0.00148979
0.00148928
0.00148993
0.00148934
0.00148923
0.0014888
0.0014889
0.00149099
0.00148862
0.00148849
0.00148922
0.00148982
0.00149073
0.00149109
0.00149177
0.00148982
0.00148864
0.00148864
0.00149087
0.00149441
0.00149307
0.00149387
0.00149318
0.00149709
0.0014965
0.00150013
0.0735478
0.00152775
0.00148714
0.00148782
0.00148782
0.00148861
0.00148929
0.00148988
0.00148987
0.00148851
0.00148709
0.00148774
0.00148841
0.0014891
0.00148844
0.00148727
0.00148787
0.00148833
0.00148833
0.0014896
0.0014883
0.0014876
0.00148952
0.00148885
0.00148885
0.00148891
0.00148957
0.00148826
0.00148822
0.00149005
0.00148865
0.00148864
0.00148883
0.00148957
0.00148841
0.00148762
0.00148839
0.00148818
0.00148918
0.00149055
0.00149017
0.00149055
0.00149244
0.00149101
0.00149169
0.00149054
0.00149243
0.00149248
0.00148946
0.00148822
0.00149077
0.00149691
0.00149565
0.00149881
0.0735484
0.00152764
0.00148706
0.00148775
0.00148775
0.00148856
0.00148925
0.00148982
0.00148845
0.00148706
0.00148769
0.00148831
0.00148831
0.00148902
0.00148835
0.00148702
0.00148763
0.00148828
0.00148829
0.00148955
0.00148826
0.00148753
0.00148824
0.00148823
0.0014889
0.00148888
0.00148999
0.00148818
0.00148753
0.00148934
0.00148915
0.00148836
0.00148854
0.00148997
0.00148837
0.00148758
0.00148834
0.0014884
0.00148881
0.00149047
0.00149008
0.00149046
0.00149227
0.00148987
0.00148897
0.001488
0.00149218
0.00149283
0.00149209
0.00149245
0.0014918
0.00149837
0.00149522
0.00149902
0.0735476
0.00152774
0.00148714
0.00148783
0.00148782
0.0014892
0.00148782
0.00148643
0.00148712
0.00148711
0.00148778
0.00148847
0.00148916
0.00148911
0.00148908
0.00149042
0.00148842
0.00148841
0.00149031
0.00148899
0.00148893
0.00148958
0.0014903
0.00148828
0.00148827
0.00149087
0.00148829
0.00148824
0.00149005
0.00148865
0.00148853
0.00148878
0.00148879
0.00148812
0.00148816
0.00148827
0.00148903
0.00148847
0.00148788
0.00148925
0.00149028
0.00149014
0.00148918
0.00149149
0.00149088
0.00149052
0.00148883
0.00148818
0.0014888
0.00149156
0.00149187
0.00149839
0.00149374
0.00149682
0.0735482
0.00152763
0.00148706
0.00148775
0.00148775
0.00148913
0.00148775
0.00148636
0.00148705
0.00148704
0.00148771
0.00148907
0.00148773
0.00148767
0.00148834
0.00148901
0.00148834
0.00148832
0.00149024
0.00148892
0.00148886
0.0014899
0.00148928
0.00148892
0.00148915
0.00148956
0.00148988
0.0014893
0.00148935
0.00148814
0.00148813
0.00148867
0.00148877
0.00148904
0.00148824
0.00148823
0.00148894
0.00148922
0.0014895
0.00148996
0.00149037
0.00148993
0.00148959
0.00149017
0.00149208
0.00149104
0.00148847
0.00148804
0.00148871
0.00149337
0.00149264
0.00149452
0.00149284
0.00149682
0.0735478
0.00152774
0.00148643
0.00148712
0.00148712
0.0014885
0.00148982
0.00148983
0.00148988
0.00148986
0.00148988
0.00148845
0.00148841
0.00148979
0.00148911
0.00148908
0.00149039
0.0014884
0.00148836
0.0014903
0.00149025
0.00148829
0.00148825
0.0014902
0.00148895
0.00148771
0.00148823
0.00148886
0.00148831
0.00148884
0.00148948
0.0014895
0.00148872
0.00148824
0.00148864
0.0014889
0.00148986
0.0014887
0.00148847
0.00149104
0.00148941
0.00148841
0.00148887
0.00149049
0.00148883
0.00149249
0.00149052
0.0014896
0.00148987
0.00149013
0.00149006
0.00149773
0.0014907
0.0015317
0.0735484
0.00152763
0.00148636
0.00148705
0.00148704
0.00148773
0.00148844
0.00148982
0.00149045
0.00148974
0.00148981
0.00148838
0.00148833
0.00148971
0.00148903
0.001489
0.00149031
0.00148834
0.00148829
0.00148957
0.00148954
0.00148824
0.00148821
0.00149015
0.00148886
0.00148818
0.00148881