/*--------------------------------*- C++ -*----------------------------------*\
| =========                 |                                                 |
| \\      /  F ield         | OpenFOAM: The Open Source CFD Toolbox           |
|  \\    /   O peration     | Version:  4.1                                   |
|   \\  /    A nd           | Web:      www.OpenFOAM.org                      |
|    \\/     M anipulation  |                                                 |
\*---------------------------------------------------------------------------*/
FoamFile
{
    version     2.0;
    format      ascii;
    class       volScalarField;
    location    "4";
    object      k;
}
// * * * * * * * * * * * * * * * * * * * * * * * * * * * * * * * * * * * * * //

dimensions      [0 2 -2 0 0 0 0];

internalField   nonuniform List<scalar> 
4432
(
0.383838
0.419868
0.457289
0.486006
0.515125
0.524724
0.567872
0.588792
0.605307
0.623988
0.63542
0.675115
0.691246
0.67999
0.718283
0.680156
0.707299
0.681432
0.682452
0.715622
0.732616
0.724101
0.711008
0.749263
0.772916
0.794599
0.801316
0.816834
0.739062
0.727976
0.739387
0.720511
0.721748
0.718602
0.810184
0.943994
0.943246
0.872639
0.743657
0.772675
0.64571
0.641742
0.637808
0.592017
0.45423
0.459691
0.255515
0.530775
0.777624
0.700642
1.35655
1.24718
0.777092
1.55492
0.384175
0.419428
0.455445
0.486143
0.508682
0.532595
0.537286
0.579865
0.600584
0.604988
0.647077
0.622537
0.648396
0.642024
0.675434
0.646027
0.67293
0.688274
0.672648
0.704653
0.718574
0.708791
0.697824
0.730016
0.750725
0.769818
0.775098
0.788597
0.724944
0.701502
0.707591
0.698144
0.701003
0.699484
0.772889
0.852546
0.88415
0.765686
0.778115
0.738854
0.63501
0.611499
0.598215
0.554811
0.363121
0.122381
0.392613
0.562417
0.747261
0.64922
1.3974
1.21163
0.713713
1.56364
0.00313497
9.21925e-05
5.54455e-05
5.78562e-05
5.96105e-05
5.99924e-05
6.25806e-05
6.26639e-05
6.77299e-05
6.94144e-05
6.84263e-05
7.57245e-05
6.86118e-05
6.9296e-05
7.62947e-05
6.78928e-05
6.09435e-05
5.99192e-05
5.94916e-05
7.366e-05
7.30091e-05
8.26031e-05
9.63384e-05
0.000116261
0.000157841
0.000206195
0.000223913
0.000293387
0.000344028
0.000402789
0.000489235
0.000593198
0.00077482
0.000981708
0.0015211
0.00241117
0.00326236
0.00403157
0.00458966
0.00671997
0.00762938
0.00908157
0.00735534
0.0500024
0.000618465
0.00184552
0.00475574
0.00906171
0.0176186
0.0308665
0.051179
0.0766971
0.0487084
0.133861
0.00313486
9.15848e-05
5.4708e-05
5.72067e-05
5.82777e-05
5.98468e-05
5.99166e-05
6.21706e-05
6.23377e-05
6.45935e-05
7.11923e-05
6.65339e-05
6.45047e-05
6.45902e-05
7.14904e-05
6.43987e-05
6.00729e-05
5.78783e-05
5.88928e-05
7.13919e-05
7.23807e-05
8.11681e-05
9.50286e-05
0.000113892
0.000153641
0.000197778
0.000217013
0.000286961
0.000338111
0.000387661
0.000469591
0.000575327
0.000751592
0.000958085
0.00146059
0.00214602
0.00295524
0.00340803
0.00473882
0.00630363
0.00736945
0.00828408
0.00636621
0.0468173
0.000592529
0.00178093
0.00474442
0.00935774
0.0190699
0.0355458
0.0644437
0.0724458
0.0436686
0.134162
0.00312836
7.62698e-05
3.79595e-05
3.75459e-05
3.78717e-05
3.8111e-05
3.84601e-05
3.84362e-05
3.83949e-05
3.87227e-05
3.94082e-05
3.92426e-05
3.84517e-05
3.88282e-05
3.88273e-05
3.88395e-05
3.88569e-05
3.91421e-05
3.97323e-05
3.88866e-05
3.84794e-05
3.88474e-05
3.91765e-05
3.89219e-05
3.88166e-05
3.97777e-05
3.859e-05
3.85045e-05
3.89018e-05
3.9292e-05
3.91284e-05
3.87787e-05
3.95263e-05
3.98341e-05
4.10342e-05
4.28992e-05
4.60128e-05
4.94565e-05
5.38013e-05
6.69061e-05
7.77831e-05
9.54561e-05
8.84933e-05
3.79261e-05
4.25628e-05
4.15676e-05
5.57647e-05
0.000150722
0.000545217
0.00178539
0.00315298
0.00164486
0.000941959
0.00270607
0.00312832
7.61987e-05
3.79171e-05
3.78373e-05
3.80494e-05
3.80182e-05
3.84847e-05
3.83919e-05
3.83486e-05
3.86755e-05
3.93592e-05
3.92008e-05
3.84128e-05
3.87901e-05
3.87929e-05
3.88035e-05
3.88219e-05
3.91051e-05
3.97047e-05
3.88552e-05
3.84383e-05
3.88018e-05
3.91279e-05
3.88726e-05
3.87728e-05
3.97281e-05
3.85366e-05
3.84479e-05
3.88402e-05
3.92218e-05
3.90457e-05
3.86956e-05
3.93874e-05
3.97218e-05
4.08594e-05
4.23684e-05
4.52347e-05
4.77132e-05
5.40177e-05
6.451e-05
7.59686e-05
9.03965e-05
8.20081e-05
3.81549e-05
4.22016e-05
4.19173e-05
6.51332e-05
0.000189557
0.000692417
0.00216036
0.00357425
0.0015015
0.000970325
0.00262995
0.00312839
7.62685e-05
3.79566e-05
3.78757e-05
3.82088e-05
3.83676e-05
3.86749e-05
3.86867e-05
3.86852e-05
3.88871e-05
3.92329e-05
3.86767e-05
3.79303e-05
3.81657e-05
3.81903e-05
3.85039e-05
3.88291e-05
3.88562e-05
3.91565e-05
3.94801e-05
3.98852e-05
3.8969e-05
3.81603e-05
3.84827e-05
3.84557e-05
3.87734e-05
3.95074e-05
3.89176e-05
3.8804e-05
4.00748e-05
3.89763e-05
3.88056e-05
3.97161e-05
3.97177e-05
3.97685e-05
3.92736e-05
3.91853e-05
4.00695e-05
3.96553e-05
4.00355e-05
4.15156e-05
4.12796e-05
4.18167e-05
4.17193e-05
4.11003e-05
4.12622e-05
4.2248e-05
4.65824e-05
6.65506e-05
0.000123437
0.000133684
9.95304e-05
0.0002615
0.00030771
0.00312836
7.61975e-05
3.79175e-05
3.78362e-05
3.81664e-05
3.84264e-05
3.87467e-05
3.87009e-05
3.86988e-05
3.88475e-05
3.91902e-05
3.85742e-05
3.81542e-05
3.87428e-05
3.87274e-05
3.8672e-05
3.86832e-05
3.88177e-05
3.94829e-05
3.88919e-05
3.87753e-05
3.97752e-05
3.85277e-05
3.84165e-05
3.90561e-05
3.90168e-05
3.96773e-05
3.88661e-05
3.87476e-05
3.96741e-05
3.91332e-05
3.86324e-05
3.87657e-05
3.92041e-05
3.92532e-05
3.916e-05
3.90608e-05
3.98953e-05
3.94909e-05
3.9801e-05
4.12437e-05
4.08121e-05
4.06898e-05
4.08062e-05
4.07965e-05
4.09158e-05
4.20439e-05
4.76767e-05
8.30285e-05
0.000147493
0.000139374
0.000123521
0.000262677
0.000307199
0.00312842
7.62702e-05
3.79575e-05
3.7877e-05
3.81103e-05
3.84612e-05
3.85498e-05
3.8513e-05
3.86096e-05
3.89573e-05
3.8619e-05
3.82014e-05
3.87629e-05
3.87363e-05
3.87449e-05
3.94092e-05
3.90784e-05
3.82942e-05
3.84819e-05
3.84705e-05
3.90989e-05
3.85558e-05
3.81502e-05
3.84922e-05
3.8266e-05
3.84886e-05
3.88395e-05
3.95196e-05
3.89425e-05
3.85074e-05
3.88619e-05
3.91947e-05
3.90352e-05
3.86093e-05
3.90455e-05
3.88543e-05
3.88074e-05
3.93422e-05
3.98017e-05
3.97804e-05
4.03774e-05
4.0661e-05
4.1792e-05
4.25127e-05
4.01274e-05
4.18195e-05
4.03609e-05
4.11229e-05
4.46628e-05
4.90356e-05
4.65903e-05
4.51777e-05
8.33963e-05
0.000167729
0.00312838
7.61953e-05
3.82468e-05
3.81811e-05
3.81953e-05
3.85385e-05
3.83822e-05
3.83363e-05
3.8517e-05
3.88663e-05
3.85761e-05
3.81599e-05
3.87482e-05
3.87263e-05
3.87369e-05
3.9406e-05
3.89905e-05
3.82094e-05
3.84454e-05
3.84336e-05
3.90564e-05
3.85126e-05
3.81053e-05
3.84409e-05
3.84163e-05
3.87259e-05
3.88677e-05
3.94753e-05
3.88914e-05
3.84466e-05
3.8791e-05
3.90724e-05
3.89289e-05
3.85181e-05
3.89408e-05
3.87371e-05
3.8682e-05
3.91908e-05
3.9603e-05
3.95503e-05
4.01324e-05
4.03518e-05
4.1433e-05
4.21878e-05
4.03963e-05
4.02513e-05
4.05792e-05
4.34799e-05
4.47097e-05
4.74116e-05
4.4015e-05
5.12383e-05
8.70322e-05
0.000171667
0.00312844
7.62588e-05
3.86303e-05
3.88362e-05
3.88107e-05
3.87089e-05
3.8717e-05
3.89322e-05
3.92865e-05
3.96198e-05
3.86319e-05
3.82016e-05
3.8848e-05
3.88519e-05
3.95141e-05
3.89559e-05
3.8489e-05
3.91501e-05
3.91403e-05
3.94521e-05
3.88731e-05
3.88254e-05
3.91679e-05
3.9537e-05
3.89523e-05
3.84781e-05
3.91017e-05
3.90814e-05
3.93768e-05
3.8906e-05
3.88303e-05
3.92377e-05
3.96397e-05
3.90972e-05
3.85602e-05
3.91004e-05
3.88354e-05
3.91203e-05
3.96666e-05
3.95669e-05
4.02075e-05
4.06313e-05
4.05734e-05
4.04547e-05
3.95468e-05
4.05082e-05
3.96746e-05
4.16094e-05
4.15096e-05
4.07603e-05
4.13442e-05
4.12387e-05
4.79102e-05
0.00011351
0.0031284
7.61867e-05
3.8589e-05
3.87625e-05
3.87319e-05
3.85974e-05
3.85993e-05
3.9236e-05
3.89181e-05
3.87965e-05
3.84993e-05
3.81596e-05
3.88046e-05
3.88071e-05
3.94752e-05
3.89157e-05
3.84543e-05
3.91127e-05
3.91056e-05
3.94153e-05
3.88347e-05
3.87855e-05
3.91266e-05
3.94968e-05
3.89037e-05
3.84311e-05
3.90263e-05
3.90307e-05
3.93236e-05
3.88615e-05
3.878e-05
3.91404e-05
3.95514e-05
3.90248e-05
3.84814e-05
3.90088e-05
3.87331e-05
3.9003e-05
3.95223e-05
3.93966e-05
4.00075e-05
4.03816e-05
4.0314e-05
4.05966e-05
4.13067e-05
4.05188e-05
3.98128e-05
4.09483e-05
3.99112e-05
3.89235e-05
4.12891e-05
4.33199e-05
5.11608e-05
0.000119687
0.00312847
7.6261e-05
3.86316e-05
3.88774e-05
3.88619e-05
3.88023e-05
3.91543e-05
3.86429e-05
3.82162e-05
3.88452e-05
3.88435e-05
3.88115e-05
3.88323e-05
3.88941e-05
3.92304e-05
3.92241e-05
3.88818e-05
3.91904e-05
3.95106e-05
3.95376e-05
3.98152e-05
3.98425e-05
3.98177e-05
4.01901e-05
3.89928e-05
3.78834e-05
3.81693e-05
3.82527e-05
3.84976e-05
3.90522e-05
3.86114e-05
3.85559e-05
3.91701e-05
3.91655e-05
3.94139e-05
3.97509e-05
3.91963e-05
3.93328e-05
4.00305e-05
4.0455e-05
4.11241e-05
4.05405e-05
3.96923e-05
3.99574e-05
4.01539e-05
3.92006e-05
3.86952e-05
3.98881e-05
3.96203e-05
3.85319e-05
4.12217e-05
4.07522e-05
3.8744e-05
4.46254e-05
0.00312843
7.61886e-05
3.859e-05
3.87949e-05
3.87689e-05
3.86644e-05
3.90154e-05
3.85987e-05
3.8174e-05
3.8701e-05
3.86763e-05
3.85379e-05
3.85498e-05
3.8849e-05
3.91859e-05
3.91835e-05
3.88455e-05
3.91526e-05
3.94758e-05
3.95047e-05
3.85216e-05
3.84207e-05
3.88014e-05
3.91445e-05
3.90962e-05
3.83253e-05
3.84461e-05
3.84257e-05
3.90183e-05
3.85434e-05
3.82798e-05
3.8829e-05
3.87791e-05
3.89159e-05
3.91546e-05
3.96341e-05
3.90663e-05
3.91947e-05
3.98424e-05
4.02218e-05
4.08428e-05
4.02476e-05
3.93587e-05
3.9129e-05
4.10828e-05
4.00081e-05
3.82517e-05
3.82998e-05
3.93697e-05
3.93047e-05
4.00746e-05
4.32939e-05
3.89182e-05
4.64925e-05
0.00312849
7.62744e-05
3.79595e-05
3.78796e-05
3.80674e-05
3.80699e-05
3.84531e-05
3.87507e-05
3.86271e-05
3.89715e-05
3.86106e-05
3.85237e-05
3.92259e-05
3.89009e-05
3.88937e-05
3.89684e-05
3.88702e-05
3.87256e-05
3.894e-05
3.95864e-05
3.89107e-05
3.88058e-05
3.95249e-05
3.94887e-05
3.98155e-05
3.98303e-05
3.98407e-05
3.97795e-05
3.98203e-05
3.98003e-05
3.98263e-05
3.98172e-05
3.98689e-05
3.93238e-05
3.879e-05
3.89882e-05
3.94058e-05
3.97251e-05
3.93247e-05
3.95113e-05
4.00617e-05
4.09152e-05
4.05766e-05
3.96544e-05
4.15565e-05
3.97603e-05
3.92462e-05
3.82608e-05
3.86616e-05
3.96592e-05
4.1963e-05
4.15742e-05
3.9973e-05
4.39892e-05
0.00312844
7.62011e-05
3.79189e-05
3.78379e-05
3.81271e-05
3.84828e-05
3.83841e-05
3.83394e-05
3.85151e-05
3.88643e-05
3.8569e-05
3.84829e-05
3.91831e-05
3.91733e-05
3.91747e-05
3.9179e-05
3.90967e-05
3.90432e-05
3.92881e-05
3.96274e-05
3.88764e-05
3.87684e-05
3.94846e-05
3.94871e-05
3.98099e-05
3.97777e-05
3.981e-05
3.91632e-05
3.91393e-05
3.9724e-05
3.88886e-05
3.87809e-05
3.9779e-05
3.91749e-05
3.87235e-05
3.8915e-05
3.93221e-05
3.96403e-05
3.92125e-05
3.93747e-05
3.98994e-05
4.07188e-05
4.03707e-05
3.89033e-05
4.15453e-05
3.8736e-05
3.80933e-05
3.83396e-05
4.01174e-05
4.00711e-05
4.22194e-05
4.23982e-05
3.93099e-05
4.40987e-05
0.00312851
7.62756e-05
3.79592e-05
3.78797e-05
3.8116e-05
3.812e-05
3.84697e-05
3.87714e-05
3.86658e-05
3.90079e-05
3.86187e-05
3.82025e-05
3.85353e-05
3.85332e-05
3.88628e-05
3.88867e-05
3.92117e-05
3.88985e-05
3.8514e-05
3.88431e-05
3.95249e-05
3.89125e-05
3.88156e-05
3.95561e-05
3.93137e-05
3.96107e-05
3.98496e-05
4.01781e-05
3.89948e-05
3.88744e-05
3.9817e-05
3.92241e-05
3.87099e-05
3.89402e-05
3.86499e-05
3.86354e-05
3.9302e-05
3.91359e-05
3.90171e-05
3.97559e-05
4.01382e-05
4.08643e-05
4.06525e-05
3.95355e-05
4.19531e-05
4.06688e-05
4.02193e-05
3.83521e-05
3.91352e-05
3.98285e-05
4.07217e-05
4.11882e-05
3.86107e-05
4.35801e-05
0.00312846
7.62021e-05
3.79193e-05
3.78391e-05
3.80535e-05
3.83999e-05
3.83989e-05
3.83577e-05
3.85153e-05
3.88626e-05
3.85754e-05
3.81624e-05
3.84935e-05
3.84908e-05
3.88189e-05
3.88436e-05
3.91727e-05
3.88578e-05
3.87997e-05
3.9775e-05
3.8878e-05
3.87674e-05
4.01213e-05
3.89298e-05
3.8832e-05
3.97944e-05
3.85999e-05
3.81467e-05
3.84823e-05
3.84944e-05
3.92986e-05
3.88212e-05
3.881e-05
3.97509e-05
3.86007e-05
3.85438e-05
3.9189e-05
3.90072e-05
3.88604e-05
3.95652e-05
3.99091e-05
4.02636e-05
3.98401e-05
3.96629e-05
4.09048e-05
3.8768e-05
3.79841e-05
3.93147e-05
3.89589e-05
3.99406e-05
4.23351e-05
4.24788e-05
3.8953e-05
4.45308e-05
0.00312852
7.62777e-05
3.79608e-05
3.78818e-05
3.78825e-05
3.78787e-05
3.78812e-05
3.75523e-05
3.76397e-05
3.79528e-05
3.81869e-05
3.82156e-05
3.85335e-05
3.88814e-05
3.88998e-05
3.92314e-05
3.95201e-05
3.98504e-05
3.89203e-05
3.88065e-05
3.98085e-05
3.98082e-05
3.95597e-05
3.9559e-05
3.96458e-05
3.95885e-05
3.98614e-05
3.92264e-05
3.88803e-05
3.90931e-05
3.97766e-05
3.89522e-05
3.84987e-05
3.88946e-05
3.92484e-05
3.91457e-05
3.89661e-05
4.02414e-05
3.95358e-05
3.93656e-05
3.98944e-05
4.06546e-05
4.03199e-05
4.00747e-05
4.13815e-05
4.06001e-05
3.88935e-05
3.9377e-05
4.06113e-05
3.93501e-05
4.1761e-05
4.07447e-05
3.92222e-05
4.46897e-05
0.00312847
7.62033e-05
3.79224e-05
3.75101e-05
3.78365e-05
3.81601e-05
3.79951e-05
3.79874e-05
3.81057e-05
3.81074e-05
3.84779e-05
3.87867e-05
3.87517e-05
3.87669e-05
3.88518e-05
3.91815e-05
3.94828e-05
3.98094e-05
3.88872e-05
3.87715e-05
3.97747e-05
3.97853e-05
3.95242e-05
3.94371e-05
3.97742e-05
3.98567e-05
3.98555e-05
3.97849e-05
3.98041e-05
3.97537e-05
4.00916e-05
3.89125e-05
3.84566e-05
3.88591e-05
3.92011e-05
3.8978e-05
3.89085e-05
4.01694e-05
3.94522e-05
3.92651e-05
3.97716e-05
4.0203e-05
3.96794e-05
3.99736e-05
4.06775e-05
3.95894e-05
3.90031e-05
4.05293e-05
3.93855e-05
4.07392e-05
4.1546e-05
4.2115e-05
4.00213e-05
4.53244e-05
0.00312852
7.62785e-05
3.79652e-05
3.75493e-05
3.78774e-05
3.82023e-05
3.78841e-05
3.77074e-05
3.80191e-05
3.81893e-05
3.8213e-05
3.85374e-05
3.95455e-05
3.92471e-05
3.84662e-05
3.85308e-05
3.85347e-05
3.91882e-05
3.94904e-05
3.98192e-05
3.89134e-05
3.88016e-05
3.95474e-05
3.94015e-05
3.98256e-05
3.99147e-05
3.98446e-05
3.8913e-05
3.88511e-05
3.91445e-05
3.91023e-05
3.934e-05
3.9511e-05
3.96682e-05
3.97601e-05
3.90594e-05
3.87934e-05
3.94565e-05
3.92665e-05
3.96761e-05
4.06489e-05
3.98225e-05
3.99008e-05
4.04139e-05
3.99786e-05
4.12355e-05
3.95202e-05
3.99053e-05
4.02382e-05
3.95342e-05
4.21169e-05
4.12306e-05
3.94186e-05
4.4931e-05
0.00312847
7.62046e-05
3.79216e-05
3.75089e-05
3.78352e-05
3.81586e-05
3.81024e-05
3.80936e-05
3.81563e-05
3.84318e-05
3.87345e-05
3.87416e-05
3.94199e-05
3.91988e-05
3.84188e-05
3.87899e-05
3.87881e-05
3.88094e-05
3.88375e-05
3.94783e-05
3.8882e-05
3.87659e-05
3.95162e-05
3.94891e-05
3.99366e-05
3.99109e-05
3.9904e-05
3.89104e-05
3.88296e-05
3.97399e-05
3.88951e-05
3.84926e-05
3.90595e-05
3.90557e-05
3.97452e-05
3.89729e-05
3.87202e-05
3.95091e-05
3.91456e-05
3.95255e-05
4.04578e-05
3.96213e-05
3.97067e-05
3.9802e-05
4.00707e-05
4.11217e-05
3.94433e-05
4.01908e-05
4.06287e-05
3.98882e-05
3.97668e-05
4.14865e-05
4.22732e-05
4.5272e-05
0.00312852
7.62782e-05
3.7965e-05
3.75528e-05
3.75477e-05
3.78527e-05
3.78553e-05
3.77196e-05
3.80283e-05
3.8189e-05
3.82139e-05
3.85356e-05
3.95464e-05
3.89853e-05
3.88702e-05
3.99048e-05
3.86202e-05
3.84894e-05
3.88502e-05
3.91545e-05
3.88962e-05
3.8466e-05
3.91882e-05
3.91763e-05
4.00214e-05
3.91964e-05
3.89795e-05
4.02012e-05
4.01684e-05
3.89258e-05
3.87427e-05
3.97462e-05
3.97523e-05
3.88525e-05
3.89314e-05
3.99507e-05
3.93947e-05
3.8594e-05
3.88108e-05
3.94785e-05
4.04387e-05
3.95809e-05
4.00852e-05
4.13495e-05
3.94572e-05
4.02969e-05
4.20706e-05
3.99296e-05
3.90521e-05
4.00336e-05
4.06718e-05
4.07514e-05
4.1453e-05
4.47385e-05
0.00312847
7.62038e-05
3.79229e-05
3.75094e-05
3.78356e-05
3.81603e-05
3.80917e-05
3.80826e-05
3.81556e-05
3.84274e-05
3.87288e-05
3.86418e-05
3.86559e-05
3.95558e-05
3.90227e-05
3.82339e-05
3.84752e-05
3.84753e-05
3.87883e-05
3.88166e-05
3.91391e-05
3.9152e-05
3.91507e-05
4.00022e-05
3.90831e-05
3.89558e-05
3.98844e-05
3.98116e-05
4.01209e-05
3.89166e-05
3.83791e-05
3.88242e-05
3.91151e-05
3.89352e-05
3.8903e-05
3.99134e-05
3.92534e-05
3.88644e-05
3.87723e-05
3.92227e-05
4.03587e-05
3.94703e-05
3.9969e-05
4.12958e-05
3.94113e-05
3.99599e-05
3.94293e-05
4.00539e-05
4.11008e-05
4.00985e-05
3.99098e-05
4.07958e-05
4.19625e-05
4.48093e-05
0.00312851
7.62335e-05
3.89733e-05
3.93179e-05
3.929e-05
3.92935e-05
3.96455e-05
3.90588e-05
3.75778e-05
3.78609e-05
3.81843e-05
3.82132e-05
3.85288e-05
3.88521e-05
3.88917e-05
3.91907e-05
3.95071e-05
3.95832e-05
3.96904e-05
3.87676e-05
3.85e-05
3.89037e-05
3.93836e-05
3.92581e-05
3.91328e-05
4.0442e-05
3.909e-05
3.88798e-05
4.01079e-05
3.89351e-05
3.81231e-05
3.84853e-05
3.8473e-05
3.87186e-05
3.89499e-05
3.93022e-05
3.95684e-05
3.89052e-05
3.92654e-05
3.97359e-05
4.03759e-05
3.98893e-05
3.93482e-05
4.03523e-05
4.09506e-05
4.16831e-05
4.18301e-05
4.17001e-05
4.13946e-05
4.0589e-05
4.05436e-05
4.1197e-05
4.17873e-05
4.44324e-05
0.00312846
7.61586e-05
3.8931e-05
3.92753e-05
3.92463e-05
3.92495e-05
3.96002e-05
3.9014e-05
3.78571e-05
3.81486e-05
3.84458e-05
3.87519e-05
3.86878e-05
3.87046e-05
3.95485e-05
3.89499e-05
3.84751e-05
3.91316e-05
3.91157e-05
3.94167e-05
3.88823e-05
3.8548e-05
3.87293e-05
3.88189e-05
3.96736e-05
3.90959e-05
3.85564e-05
3.88347e-05
3.90756e-05
3.90103e-05
3.82668e-05
3.84529e-05
3.84438e-05
3.87527e-05
3.89098e-05
3.91935e-05
3.94692e-05
4.01307e-05
3.9275e-05
3.91268e-05
4.0978e-05
3.97514e-05
3.91717e-05
4.0285e-05
4.08971e-05
4.16738e-05
4.07044e-05
4.16497e-05
4.09742e-05
3.9722e-05
4.03246e-05
4.09197e-05
4.18106e-05
4.44571e-05
0.00312834
7.68433e-05
3.86293e-05
3.85593e-05
3.89172e-05
3.88928e-05
3.95607e-05
3.90166e-05
3.88925e-05
4.03087e-05
3.90328e-05
3.85376e-05
3.92282e-05
3.9202e-05
3.92252e-05
3.91957e-05
3.95143e-05
3.95924e-05
3.92121e-05
3.91939e-05
3.98726e-05
3.90863e-05
3.86647e-05
4.13196e-05
4.13105e-05
4.02847e-05
4.06503e-05
3.93381e-05
3.8582e-05
3.86166e-05
3.89481e-05
3.97443e-05
3.99366e-05
4.03262e-05
3.90549e-05
3.79424e-05
3.82877e-05
3.82635e-05
3.87332e-05
3.9104e-05
3.95115e-05
3.92021e-05
3.90452e-05
4.02224e-05
4.08507e-05
4.05516e-05
4.0754e-05
4.05546e-05
3.81949e-05
3.97298e-05
4.03174e-05
4.13915e-05
4.18755e-05
4.4411e-05
0.00312845
7.61503e-05
3.85878e-05
3.87746e-05
3.8745e-05
3.87419e-05
3.94328e-05
3.89734e-05
3.88512e-05
3.99239e-05
3.86033e-05
3.8481e-05
3.88593e-05
3.91837e-05
3.89465e-05
3.84918e-05
3.91493e-05
3.91359e-05
3.94397e-05
3.88703e-05
3.8829e-05
3.95091e-05
3.93228e-05
4.16907e-05
4.27318e-05
4.0261e-05
4.06975e-05
3.92867e-05
3.88095e-05
3.9199e-05
3.89108e-05
3.92162e-05
3.95629e-05
3.99765e-05
3.90465e-05
3.82378e-05
3.85671e-05
3.86934e-05
3.89556e-05
3.91007e-05
3.96356e-05
3.91728e-05
3.90126e-05
4.01893e-05
4.086e-05
4.05832e-05
4.02176e-05
4.05284e-05
3.82298e-05
3.92985e-05
4.0639e-05
4.11608e-05
4.19118e-05
4.44304e-05
0.00312848
7.6213e-05
3.89724e-05
3.93163e-05
3.92896e-05
3.92931e-05
3.96425e-05
3.90404e-05
3.85522e-05
3.92475e-05
3.92236e-05
3.9246e-05
3.92229e-05
3.95535e-05
3.99656e-05
3.90364e-05
3.7913e-05
3.81894e-05
3.82186e-05
3.84404e-05
3.86097e-05
3.87502e-05
3.92406e-05
4.85133e-05
0.00136842
4.11006e-05
3.87062e-05
3.84168e-05
3.88068e-05
3.8587e-05
3.87169e-05
3.88522e-05
3.94373e-05
3.89719e-05
3.79464e-05
3.81263e-05
3.82074e-05
3.86043e-05
3.97361e-05
3.92064e-05
3.91421e-05
4.00425e-05
4.00018e-05
4.09406e-05
4.13282e-05
4.08104e-05
4.0895e-05
4.03932e-05
4.04674e-05
4.10953e-05
3.97746e-05
4.01523e-05
4.13764e-05
4.65054e-05
0.00313837
7.70961e-05
3.8948e-05
3.89225e-05
3.92447e-05
3.89845e-05
3.88668e-05
3.99595e-05
3.8935e-05
3.88644e-05
3.95573e-05
3.85795e-05
3.84855e-05
3.91799e-05
3.9179e-05
3.91869e-05
3.91869e-05
3.91287e-05
3.90743e-05
3.94581e-05
3.91581e-05
3.90909e-05
4.14666e-05
4.44203e-05
0.00417455
3.94603e-05
3.86365e-05
3.87909e-05
3.85164e-05
3.86433e-05
3.88194e-05
3.90984e-05
3.8765e-05
3.8793e-05
3.97519e-05
3.89085e-05
3.84951e-05
3.92755e-05
3.93334e-05
3.93576e-05
3.92704e-05
3.98147e-05
4.02567e-05
4.11403e-05
4.05576e-05
4.05158e-05
4.02925e-05
4.0273e-05
4.04721e-05
4.09095e-05
4.40857e-05
4.21511e-05
4.1593e-05
4.71695e-05
0.00313762
7.78835e-05
3.83651e-05
3.82296e-05
3.89141e-05
3.891e-05
3.96022e-05
3.90146e-05
3.88892e-05
3.99658e-05
3.86453e-05
3.85239e-05
3.92291e-05
3.92038e-05
3.92269e-05
3.91841e-05
3.95023e-05
3.99236e-05
3.89866e-05
3.85173e-05
3.92244e-05
3.89291e-05
4.18988e-05
9.62784e-06
0.00073523
3.87138e-05
3.87884e-05
3.85497e-05
3.86542e-05
3.88528e-05
3.94327e-05
3.88162e-05
3.87366e-05
3.97163e-05
3.97704e-05
4.02022e-05
3.8977e-05
3.86237e-05
3.94776e-05
3.96354e-05
3.9531e-05
3.95834e-05
4.0807e-05
4.11472e-05
4.12613e-05
4.1241e-05
4.20075e-05
4.06158e-05
4.0865e-05
4.10879e-05
4.08945e-05
4.13355e-05
4.2708e-05
0.00312747
7.74263e-05
3.97099e-05
3.86607e-05
3.88777e-05
4.03308e-05
3.90436e-05
3.78583e-05
3.81551e-05
3.81782e-05
3.85031e-05
3.91721e-05
3.85716e-05
3.84858e-05
3.91733e-05
3.91864e-05
3.94851e-05
3.98067e-05
3.89169e-05
3.87952e-05
3.98284e-05
3.95225e-05
4.46233e-05
0.0108432
0.000947979
3.87957e-05
3.8064e-05
3.83031e-05
3.86845e-05
3.85641e-05
3.86834e-05
3.87234e-05
3.89654e-05
3.90943e-05
3.91429e-05
3.91199e-05
3.91618e-05
3.96509e-05
3.97192e-05
3.93324e-05
3.95364e-05
4.06721e-05
3.96906e-05
3.7821e-05
3.88293e-05
3.92142e-05
3.8345e-05
3.94008e-05
4.20241e-05
4.18067e-05
4.09601e-05
4.13928e-05
4.48975e-05
0.00312826
7.69134e-05
3.90134e-05
3.89443e-05
3.93157e-05
3.86606e-05
3.85528e-05
3.92716e-05
3.92504e-05
3.92589e-05
3.96061e-05
3.89982e-05
3.88743e-05
3.99341e-05
3.99376e-05
3.9951e-05
3.99077e-05
4.02402e-05
4.02132e-05
3.89574e-05
3.88599e-05
3.98388e-05
3.90177e-05
4.10834e-05
7.61111e-05
3.91362e-05
3.85369e-05
3.87823e-05
3.90808e-05
3.8848e-05
3.88749e-05
3.88944e-05
3.924e-05
3.95962e-05
3.95754e-05
3.96552e-05
4.00217e-05
4.04533e-05
3.91172e-05
3.90781e-05
4.04159e-05
4.06054e-05
4.08386e-05
4.09727e-05
3.94972e-05
3.96335e-05
4.20916e-05
4.01017e-05
3.75223e-05
3.93061e-05
4.03433e-05
4.11132e-05
4.17019e-05
4.44438e-05
0.00312822
7.6841e-05
3.89722e-05
3.89033e-05
3.92741e-05
3.86218e-05
3.85127e-05
3.92277e-05
3.92079e-05
3.92175e-05
3.9566e-05
3.89782e-05
3.81773e-05
3.84997e-05
3.84962e-05
3.8818e-05
3.88486e-05
3.95008e-05
3.89228e-05
3.84703e-05
3.91044e-05
3.88365e-05
3.89397e-05
4.3489e-05
6.53599e-05
3.91887e-05
3.92566e-05
3.91985e-05
3.96759e-05
3.91474e-05
3.90429e-05
3.97286e-05
3.85644e-05
3.84794e-05
3.92144e-05
3.9239e-05
3.92324e-05
3.93234e-05
3.96868e-05
3.89949e-05
3.91597e-05
3.95193e-05
3.95514e-05
4.06947e-05
3.96461e-05
3.88516e-05
3.90046e-05
3.82546e-05
4.04243e-05
4.18286e-05
4.05552e-05
4.12168e-05
4.1739e-05
4.44798e-05
0.00312841
7.6226e-05
3.8969e-05
3.93156e-05
3.92863e-05
3.92997e-05
3.92778e-05
3.99008e-05
3.89375e-05
3.88821e-05
3.99613e-05
3.92862e-05
3.86085e-05
3.88918e-05
3.9911e-05
3.90004e-05
3.88682e-05
4.02043e-05
3.89754e-05
3.84913e-05
3.91464e-05
3.88275e-05
3.8851e-05
3.91247e-05
3.93905e-05
4.00149e-05
3.96811e-05
3.89094e-05
3.88093e-05
3.91076e-05
3.94461e-05
3.90889e-05
3.85106e-05
3.87749e-05
3.91264e-05
3.91631e-05
3.94508e-05
3.96341e-05
3.92502e-05
3.85535e-05
3.91082e-05
3.89833e-05
3.91757e-05
4.04664e-05
4.04427e-05
3.91307e-05
3.92683e-05
3.98712e-05
4.04745e-05
4.18539e-05
4.06347e-05
4.12272e-05
4.1593e-05
4.42437e-05
0.00312837
7.61535e-05
3.89279e-05
3.92743e-05
3.9244e-05
3.9257e-05
3.92326e-05
3.98575e-05
3.89002e-05
3.8843e-05
3.99211e-05
3.9246e-05
3.85686e-05
3.88468e-05
3.91884e-05
3.91699e-05
3.94827e-05
3.98631e-05
3.89189e-05
3.87764e-05
3.97683e-05
3.97635e-05
4.02757e-05
3.90948e-05
3.9077e-05
4.00858e-05
3.99494e-05
4.01815e-05
3.89024e-05
3.87259e-05
3.96939e-05
3.90918e-05
3.84921e-05
3.87656e-05
3.94175e-05
3.88632e-05
3.88417e-05
3.99713e-05
3.89647e-05
3.9073e-05
4.02998e-05
3.88492e-05
3.91389e-05
4.03139e-05
4.0639e-05
3.97539e-05
3.92555e-05
3.93291e-05
3.9794e-05
4.10026e-05
4.039e-05
4.11658e-05
4.16308e-05
4.42907e-05
0.00312837
7.6255e-05
3.86256e-05
3.89262e-05
3.89219e-05
3.89406e-05
3.89393e-05
3.92962e-05
3.96235e-05
3.96278e-05
3.96231e-05
3.98878e-05
3.90073e-05
3.82869e-05
3.88543e-05
3.88607e-05
3.95231e-05
3.89689e-05
3.84962e-05
3.88421e-05
3.91634e-05
3.88955e-05
3.88389e-05
4.02832e-05
3.91433e-05
3.86001e-05
3.89567e-05
3.9216e-05
3.88748e-05
3.87662e-05
4.00581e-05
3.88752e-05
3.84192e-05
3.90847e-05
3.9093e-05
3.98569e-05
3.90925e-05
3.83111e-05
3.86167e-05
3.85906e-05
3.91915e-05
3.99601e-05
3.96193e-05
3.99301e-05
3.94035e-05
3.9651e-05
3.99382e-05
4.06984e-05
4.13483e-05
4.0843e-05
4.05176e-05
4.1238e-05
4.16137e-05
4.40313e-05
0.00312833
7.61858e-05
3.85859e-05
3.88864e-05
3.88817e-05
3.89004e-05
3.88991e-05
3.92577e-05
3.95829e-05
3.95878e-05
3.95832e-05
3.98454e-05
3.89619e-05
3.82426e-05
3.88067e-05
3.88117e-05
3.94706e-05
3.89195e-05
3.84578e-05
3.90997e-05
3.90734e-05
3.94127e-05
3.91497e-05
3.92101e-05
3.96156e-05
3.89543e-05
3.85373e-05
3.88472e-05
3.9507e-05
3.88321e-05
3.87399e-05
3.97086e-05
3.91043e-05
3.85088e-05
3.87821e-05
3.98482e-05
3.90294e-05
3.82922e-05
3.85897e-05
3.91391e-05
3.88432e-05
3.89337e-05
4.02363e-05
3.99717e-05
4.08617e-05
3.97259e-05
3.93737e-05
4.20281e-05
4.03582e-05
3.96426e-05
4.03987e-05
4.1425e-05
4.15134e-05
4.40789e-05
0.00312835
7.62517e-05
3.86224e-05
3.89226e-05
3.89196e-05
3.89253e-05
3.89304e-05
3.92673e-05
3.96136e-05
3.96664e-05
3.97668e-05
3.87884e-05
3.85377e-05
3.92271e-05
3.9225e-05
3.92342e-05
3.92341e-05
3.92272e-05
3.88958e-05
3.91645e-05
3.88269e-05
3.87957e-05
3.91378e-05
3.95429e-05
3.90132e-05
3.85743e-05
3.94834e-05
3.92345e-05
3.88983e-05
3.90904e-05
3.97048e-05
3.88646e-05
3.87625e-05
4.01008e-05
3.89167e-05
3.88265e-05
4.03139e-05
3.90831e-05
3.81899e-05
3.85058e-05
3.84353e-05
3.85725e-05
3.84685e-05
3.86919e-05
3.84232e-05
4.07342e-05
4.05056e-05
3.8468e-05
3.79967e-05
3.94635e-05
4.07061e-05
4.11425e-05
4.14677e-05
4.38755e-05
0.00312831
7.61812e-05
3.85826e-05
3.8883e-05
3.88802e-05
3.88841e-05
3.88897e-05
3.92251e-05
3.95718e-05
3.96274e-05
3.97367e-05
3.87612e-05
3.84967e-05
3.9181e-05
3.91755e-05
3.91846e-05
3.91877e-05
3.91807e-05
3.8853e-05
3.91517e-05
3.85046e-05
3.84374e-05
3.87949e-05
3.91833e-05
3.89719e-05
3.84852e-05
3.90728e-05
3.89515e-05
3.89631e-05
3.89309e-05
3.9606e-05
3.88525e-05
3.87314e-05
4.01099e-05
3.89018e-05
3.88082e-05
4.02917e-05
3.90589e-05
3.81633e-05
3.86259e-05
3.84061e-05
3.84911e-05
3.88841e-05
3.85086e-05
3.90744e-05
4.06158e-05
4.01271e-05
3.80302e-05
3.93664e-05
4.08985e-05
4.04039e-05
4.17034e-05
4.14282e-05
4.39493e-05
0.00312831
7.62488e-05
3.86205e-05
3.89206e-05
3.89179e-05
3.89231e-05
3.89285e-05
3.9262e-05
3.96074e-05
3.96631e-05
3.97686e-05
3.87823e-05
3.8875e-05
3.99353e-05
3.92712e-05
3.91703e-05
3.91115e-05
3.91381e-05
3.95031e-05
3.94939e-05
3.98205e-05
3.89173e-05
3.88019e-05
4.01795e-05
3.89995e-05
3.85111e-05
3.88577e-05
3.91669e-05
3.88805e-05
3.87644e-05
3.96958e-05
3.97186e-05
3.88563e-05
3.87839e-05
4.01669e-05
3.8946e-05
3.89717e-05
4.00309e-05
3.88826e-05
3.80102e-05
3.84729e-05
3.87357e-05
3.85213e-05
3.87186e-05
3.95329e-05
3.98827e-05
4.01734e-05
4.17206e-05
4.06296e-05
3.98924e-05
4.04171e-05
4.13043e-05
4.14833e-05
4.36952e-05
0.00312827
7.61805e-05
3.85821e-05
3.88827e-05
3.88789e-05
3.88822e-05
3.8888e-05
3.92164e-05
3.95629e-05
3.96269e-05
3.97432e-05
3.87585e-05
3.88332e-05
3.98885e-05
3.92284e-05
3.85631e-05
3.8836e-05
3.9148e-05
3.91587e-05
3.94504e-05
3.97918e-05
3.88823e-05
3.87707e-05
4.01693e-05
3.89396e-05
3.84668e-05
3.88013e-05
3.91164e-05
3.88587e-05
3.8721e-05
3.97141e-05
3.96879e-05
3.87479e-05
3.87482e-05
4.01516e-05
3.89304e-05
3.89528e-05
4.00094e-05
3.88529e-05
3.83025e-05
3.84414e-05
3.86818e-05
3.92301e-05
3.87382e-05
3.97415e-05
4.14827e-05
4.23718e-05
4.07869e-05
3.83247e-05
3.94309e-05
4.1018e-05
4.20479e-05
4.18056e-05
4.43649e-05
0.00312829
7.6247e-05
3.86195e-05
3.89202e-05
3.89164e-05
3.89232e-05
3.89288e-05
3.92567e-05
3.96029e-05
3.96626e-05
3.97632e-05
3.87874e-05
3.85335e-05
3.92244e-05
3.92167e-05
3.95419e-05
3.89203e-05
3.88071e-05
3.84919e-05
3.84713e-05
3.9125e-05
3.91143e-05
3.94339e-05
3.88738e-05
3.88525e-05
3.94535e-05
3.8878e-05
3.87849e-05
3.91355e-05
3.94514e-05
3.8871e-05
3.81072e-05
3.84413e-05
3.84384e-05
3.8765e-05
3.89488e-05
3.95952e-05
3.9006e-05
3.82366e-05
3.81587e-05
3.8405e-05
3.86031e-05
3.84914e-05
3.85652e-05
3.98265e-05
3.93476e-05
4.03146e-05
4.17154e-05
4.06347e-05
4.00818e-05
4.07996e-05
4.16674e-05
4.09876e-05
4.33944e-05
0.00312825
7.61774e-05
3.85811e-05
3.88819e-05
3.88771e-05
3.88825e-05
3.88877e-05
3.921e-05
3.95554e-05
3.96255e-05
3.97387e-05
3.87634e-05
3.84931e-05
3.91801e-05
3.91709e-05
3.94915e-05
3.88784e-05
3.87592e-05
3.84502e-05
3.84352e-05
3.90918e-05
3.90977e-05
3.94086e-05
3.88269e-05
3.88025e-05
3.91167e-05
3.91018e-05
3.93909e-05
3.9821e-05
3.88479e-05
3.87449e-05
3.96747e-05
3.90854e-05
3.85282e-05
3.88542e-05
3.92236e-05
3.9569e-05
3.8979e-05
3.78792e-05
3.80918e-05
3.84869e-05
3.84698e-05
3.89265e-05
3.84413e-05
3.93615e-05
4.0612e-05
4.09765e-05
4.17383e-05
4.05141e-05
3.99294e-05
4.10124e-05
4.15898e-05
4.18875e-05
4.46208e-05
0.00312824
7.62432e-05
3.86198e-05
3.89191e-05
3.89162e-05
3.89351e-05
3.8939e-05
3.92943e-05
3.96201e-05
3.99696e-05
3.90917e-05
3.82842e-05
3.85392e-05
3.85374e-05
3.88654e-05
3.88978e-05
3.92323e-05
3.86022e-05
3.81651e-05
3.84882e-05
3.84786e-05
3.88006e-05
3.91279e-05
3.94289e-05
3.97877e-05
3.89308e-05
3.8451e-05
3.90584e-05
3.90398e-05
3.90532e-05
3.90589e-05
3.9366e-05
3.94927e-05
3.97047e-05
3.97636e-05
3.9239e-05
3.86343e-05
3.89206e-05
3.89004e-05
3.80209e-05
3.84519e-05
3.8578e-05
3.91521e-05
3.93742e-05
4.06665e-05
4.01224e-05
4.08517e-05
4.17904e-05
4.06233e-05
4.06757e-05
4.19775e-05
4.11345e-05
3.92184e-05
4.27321e-05
0.0031282
7.61762e-05
3.85814e-05
3.88822e-05
3.88793e-05
3.88961e-05
3.89011e-05
3.92528e-05
3.95815e-05
3.99315e-05
3.90541e-05
3.82471e-05
3.84992e-05
3.84974e-05
3.8835e-05
3.91715e-05
3.88729e-05
3.87658e-05
3.84524e-05
3.84377e-05
3.91023e-05
3.90893e-05
3.94013e-05
3.94017e-05
3.97388e-05
3.88787e-05
3.84212e-05
3.90277e-05
3.90188e-05
3.90646e-05
3.90576e-05
3.9329e-05
3.94805e-05
3.96897e-05
3.97461e-05
3.92191e-05
3.86088e-05
3.88828e-05
3.88582e-05
3.79733e-05
3.84229e-05
3.85189e-05
3.8835e-05
3.92514e-05
4.01069e-05
4.03497e-05
4.12096e-05
4.08945e-05
4.04712e-05
4.05237e-05
4.09724e-05
4.21348e-05
4.15775e-05
4.3534e-05
0.00312822
7.62408e-05
3.86202e-05
3.89201e-05