/*--------------------------------*- C++ -*----------------------------------*\
| =========                 |                                                 |
| \\      /  F ield         | OpenFOAM: The Open Source CFD Toolbox           |
|  \\    /   O peration     | Version:  4.1                                   |
|   \\  /    A nd           | Web:      www.OpenFOAM.org                      |
|    \\/     M anipulation  |                                                 |
\*---------------------------------------------------------------------------*/
FoamFile
{
    version     2.0;
    format      ascii;
    class       volScalarField;
    location    "4";
    object      nut;
}
// * * * * * * * * * * * * * * * * * * * * * * * * * * * * * * * * * * * * * //

dimensions      [0 2 -1 0 0 0 0];

internalField   nonuniform List<scalar> 
4432
(
33.2027
35.5487
37.4925
39.2173
41.2327
41.3711
45.1103
50.5835
44.0185
45.5873
45.3518
50.4254
58.2533
48.2735
53.5086
51.5979
58.9061
51.8337
47.8181
52.3107
62.0011
52.3091
49.5567
54.0024
57.6382
60.1963
76.3202
66.3914
61.5444
60.4941
67.6359
54.6949
54.2029
52.2645
66.2269
88.1831
88.0056
83.6286
58.3761
59.3318
46.9718
50.8353
65.4165
37.6858
18.9836
10.3421
3.19154
19.068
43.2196
37.641
143.23
134.447
66.2235
374.525
33.2516
35.5082
37.3536
39.2891
40.6541
42.279
41.8308
46.1994
50.1884
43.9498
49.2105
48.2379
56.9903
46.6392
50.8304
49.4412
54.5162
56.9002
48.6444
52.8864
61.1479
51.4911
48.8551
52.3164
55.3617
57.3691
71.8556
62.3931
59.2724
56.4517
61.9362
51.4762
51.2072
49.5574
60.322
81.7077
77.2822
58.2484
67.9145
53.7581
45.4882
46.8264
57.9809
34.2797
12.5816
0.824002
9.02964
25.2815
46.7072
37.0526
173.501
159.679
65.1694
385.907
1.20182e-05
5.00191e-07
1.86128e-07
2.02571e-07
2.15051e-07
2.17715e-07
2.36707e-07
2.37333e-07
2.77258e-07
2.90958e-07
2.83091e-07
3.46863e-07
2.84371e-07
2.90481e-07
3.52284e-07
2.78838e-07
2.24689e-07
2.17007e-07
2.14109e-07
3.28383e-07
3.22475e-07
4.12803e-07
5.61289e-07
8.17392e-07
1.50618e-06
2.56917e-06
3.02928e-06
5.19886e-06
7.14767e-06
9.79796e-06
1.4449e-05
2.12561e-05
3.62668e-05
5.81825e-05
0.000139683
0.000350972
0.00064309
0.000981334
0.00127059
0.00272139
0.00350771
0.00496876
0.00324467
0.148729
2.27141e-05
0.000202838
0.00134245
0.00466388
0.0119751
0.0148256
0.0179727
0.0328639
0.0104828
0.173019
1.20173e-05
4.9367e-07
1.81219e-07
1.98059e-07
2.05552e-07
2.1667e-07
2.16991e-07
2.33619e-07
2.34876e-07
2.51952e-07
3.06458e-07
2.6779e-07
2.5136e-07
2.52382e-07
3.09192e-07
2.50657e-07
2.1812e-07
2.02393e-07
2.0983e-07
3.08488e-07
3.16966e-07
3.98611e-07
5.46169e-07
7.84178e-07
1.42692e-06
2.36437e-06
2.84645e-06
4.97533e-06
6.90454e-06
9.07666e-06
1.33134e-05
1.9997e-05
3.41293e-05
5.54244e-05
0.000128814
0.000278092
0.00052785
0.000701472
0.0013543
0.00239423
0.00326708
0.00413427
0.00243643
0.130553
2.0882e-05
0.000189545
0.00133908
0.00494496
0.0134594
0.0185721
0.0277857
0.0300797
0.00869456
0.175585
1.19759e-05
3.42681e-07
8.72846e-08
8.53544e-08
8.68021e-08
8.7919e-08
8.95368e-08
8.94012e-08
8.91693e-08
9.0665e-08
9.38168e-08
9.31155e-08
8.94455e-08
9.11648e-08
9.1121e-08
9.1218e-08
9.13013e-08
9.25246e-08
9.55036e-08
9.14846e-08
8.95028e-08
9.1225e-08
9.26958e-08
9.16063e-08
9.11142e-08
9.55644e-08
9.00177e-08
8.96241e-08
9.14124e-08
9.3355e-08
9.25831e-08
9.08796e-08
9.44566e-08
9.5898e-08
1.01777e-07
1.11243e-07
1.27899e-07
1.4781e-07
1.74917e-07
2.70356e-07
3.65345e-07
5.49309e-07
4.71674e-07
8.67147e-08
1.09442e-07
1.04191e-07
1.87474e-07
1.36371e-06
1.77493e-05
0.000183232
0.000526127
0.000141736
3.68898e-05
0.000108238
1.19755e-05
3.42068e-07
8.70939e-08
8.66887e-08
8.76225e-08
8.74881e-08
8.96493e-08
8.91857e-08
8.8944e-08
9.0449e-08
9.35885e-08
9.2922e-08
8.92694e-08
9.09905e-08
9.09637e-08
9.10535e-08
9.11414e-08
9.23543e-08
9.53754e-08
9.13414e-08
8.93165e-08
9.10159e-08
9.24714e-08
9.13807e-08
9.09145e-08
9.53334e-08
8.97749e-08
8.93672e-08
9.11305e-08
9.30295e-08
9.22007e-08
9.04947e-08
9.37988e-08
9.53692e-08
1.00925e-07
1.08523e-07
1.23632e-07
1.37602e-07
1.76374e-07
2.51419e-07
3.48475e-07
4.92784e-07
4.05329e-07
8.76773e-08
1.07381e-07
1.06137e-07
2.55868e-07
2.16147e-06
2.87103e-05
0.000268689
0.000664702
0.000120053
3.81116e-05
0.000104411
1.19761e-05
3.42669e-07
8.7271e-08
8.68606e-08
8.8353e-08
8.90375e-08
9.04499e-08
9.05164e-08
9.04911e-08
9.1397e-08
9.30291e-08
9.04295e-08
8.69764e-08
8.80705e-08
8.8141e-08
8.95697e-08
9.10527e-08
9.12994e-08
9.27581e-08
9.42534e-08
9.61532e-08
9.18285e-08
8.80606e-08
8.94814e-08
8.93943e-08
9.08702e-08
9.43438e-08
9.15585e-08
9.10113e-08
9.69809e-08
9.17195e-08
9.10613e-08
9.54279e-08
9.53739e-08
9.56546e-08
9.32884e-08
9.28135e-08
9.69646e-08
9.49716e-08
9.67249e-08
1.03902e-07
1.02725e-07
1.05409e-07
1.04831e-07
1.01913e-07
1.02649e-07
1.07564e-07
1.30536e-07
2.65052e-07
9.08577e-07
1.06521e-06
5.91164e-07
3.83913e-06
3.40713e-06
1.19757e-05
3.42057e-07
8.70958e-08
8.66839e-08
8.81618e-08
8.93054e-08
9.07639e-08
9.06124e-08
9.05985e-08
9.12133e-08
9.28342e-08
8.99477e-08
8.80064e-08
9.07455e-08
9.05849e-08
9.03968e-08
9.04577e-08
9.10898e-08
9.42321e-08
9.13139e-08
9.0923e-08
9.57173e-08
8.97339e-08
8.92188e-08
9.22049e-08
9.20523e-08
9.51615e-08
9.13226e-08
9.07582e-08
9.51066e-08
9.25089e-08
9.01572e-08
9.08467e-08
9.29483e-08
9.32104e-08
9.27719e-08
9.22408e-08
9.61184e-08
9.41779e-08
9.56192e-08
1.02613e-07
1.00469e-07
9.98715e-08
1.00419e-07
1.00386e-07
1.01106e-07
1.06636e-07
1.37031e-07
4.1288e-07
1.29737e-06
1.16119e-06
9.00304e-07
3.87421e-06
3.37927e-06
1.19763e-05
3.42684e-07
8.72749e-08
8.6866e-08
8.78988e-08
8.95415e-08
8.99547e-08
8.97423e-08
9.00695e-08
9.17243e-08
9.01422e-08
8.81249e-08
9.08557e-08
9.07854e-08
9.07874e-08
9.39558e-08
9.23454e-08
8.86044e-08
8.94764e-08
8.94217e-08
9.24435e-08
8.99447e-08
8.80313e-08
8.95898e-08
8.85372e-08
8.95476e-08
9.11794e-08
9.4361e-08
9.16004e-08
8.96313e-08
9.13268e-08
9.28669e-08
9.20528e-08
9.00536e-08
9.20908e-08
9.11885e-08
9.09524e-08
9.3486e-08
9.57042e-08
9.55533e-08
9.83478e-08
9.97162e-08
1.053e-07
1.08884e-07
9.7215e-08
1.05475e-07
9.83231e-08
1.01946e-07
1.19868e-07
1.44415e-07
1.30649e-07
1.2318e-07
4.14192e-07
1.30119e-06
1.19759e-05
3.42037e-07
8.86153e-08
8.82708e-08
8.82946e-08
8.98982e-08
8.91708e-08
8.89251e-08
8.97242e-08
9.13417e-08
8.99048e-08
8.79962e-08
9.07726e-08
9.06128e-08
9.06636e-08
9.38229e-08
9.18165e-08
8.82896e-08
8.94257e-08
8.92932e-08
9.22108e-08
8.96261e-08
8.77446e-08
8.9256e-08
8.92469e-08
9.07353e-08
9.13559e-08
9.41944e-08
9.14694e-08
8.94307e-08
9.09992e-08
9.23259e-08
9.15971e-08
8.96743e-08
9.15973e-08
9.07371e-08
9.0469e-08
9.27668e-08
9.47296e-08
9.44764e-08
9.7189e-08
9.82313e-08
1.03551e-07
1.0724e-07
9.85704e-08
9.78384e-08
9.94673e-08
1.13919e-07
1.20271e-07
1.35575e-07
1.16878e-07
1.5828e-07
4.50506e-07
1.34567e-06
1.19765e-05
3.42582e-07
9.03539e-08
9.12775e-08
9.11581e-08
9.05961e-08
9.05509e-08
9.15611e-08
9.31927e-08
9.48855e-08
9.02175e-08
8.81261e-08
9.12544e-08
9.13207e-08
9.44198e-08
9.17678e-08
8.95443e-08
9.26429e-08
9.25865e-08
9.40452e-08
9.1393e-08
9.11956e-08
9.27766e-08
9.45347e-08
9.17113e-08
8.94835e-08
9.23749e-08
9.22807e-08
9.36817e-08
9.14288e-08
9.12173e-08
9.31361e-08
9.49817e-08
9.23993e-08
8.9848e-08
9.24103e-08
9.11766e-08
9.24694e-08
9.50445e-08
9.45625e-08
9.75537e-08
9.96013e-08
9.93195e-08
9.86067e-08
9.43746e-08
9.89948e-08
9.50954e-08
1.04402e-07
1.03885e-07
1.00329e-07
1.03223e-07
1.02524e-07
1.3785e-07
6.86862e-07
1.19761e-05
3.41961e-07
9.01655e-08
9.09364e-08
9.07933e-08
9.01217e-08
9.00788e-08
9.30334e-08
9.14587e-08
9.09731e-08
8.9589e-08
8.79369e-08
9.09352e-08
9.0947e-08
9.42297e-08
9.16217e-08
8.94244e-08
9.25096e-08
9.2411e-08
9.38555e-08
9.12137e-08
9.10127e-08
9.25891e-08
9.43503e-08
9.14871e-08
8.92414e-08
9.2013e-08
9.20393e-08
9.34344e-08
9.12481e-08
9.09873e-08
9.26879e-08
9.45332e-08
9.20485e-08
8.94905e-08
9.19963e-08
9.06838e-08
9.19323e-08
9.43557e-08
9.37724e-08
9.66096e-08
9.84032e-08
9.81721e-08
9.93375e-08
1.03083e-07
9.91412e-08
9.57675e-08
1.0123e-07
9.62064e-08
9.16536e-08
1.02773e-07
1.12536e-07
1.57082e-07
7.53314e-07
1.19768e-05
3.42602e-07
9.03597e-08
9.1471e-08
9.13985e-08
9.10341e-08
9.26078e-08
9.02905e-08
8.83089e-08
9.11159e-08
9.12316e-08
9.10828e-08
9.10576e-08
9.1431e-08
9.30611e-08
9.29919e-08
9.12978e-08
9.2875e-08
9.44436e-08
9.44503e-08
9.57836e-08
9.59552e-08
9.58348e-08
9.75917e-08
9.1868e-08
8.66797e-08
8.80577e-08
8.84452e-08
8.94716e-08
9.20737e-08
9.01495e-08
8.99267e-08
9.27282e-08
9.27081e-08
9.38718e-08
9.54109e-08
9.28794e-08
9.34972e-08
9.67232e-08
9.88086e-08
1.0216e-07
9.91837e-08
9.50913e-08
9.6325e-08
9.72119e-08
9.29286e-08
9.0542e-08
9.60969e-08
9.48623e-08
8.98596e-08
1.0262e-07
1.00063e-07
9.04588e-08
1.19956e-07
1.19763e-05
3.41977e-07
9.017e-08
9.10881e-08
9.09669e-08
9.04348e-08
9.20326e-08
9.00384e-08
8.8078e-08
9.04865e-08
9.04524e-08
8.98078e-08
8.97425e-08
9.12239e-08
9.28555e-08
9.28046e-08
9.11316e-08
9.26997e-08
9.42817e-08
9.4296e-08
8.97364e-08
8.92684e-08
9.10074e-08
9.2624e-08
9.23621e-08
8.87497e-08
8.93428e-08
8.92151e-08
9.19646e-08
8.98066e-08
8.85842e-08
9.11355e-08
9.0918e-08
9.15436e-08
9.26457e-08
9.48673e-08
9.22592e-08
9.28601e-08
9.58409e-08
9.77037e-08
1.00802e-07
9.77855e-08
9.36105e-08
9.24222e-08
1.01968e-07
9.68144e-08
8.8405e-08
8.84726e-08
9.36265e-08
9.33691e-08
9.69016e-08
1.12639e-07
9.12615e-08
1.29932e-07
1.19769e-05
3.42721e-07
8.72841e-08
8.68779e-08
8.77007e-08
8.77117e-08
8.94459e-08
9.07947e-08
9.01343e-08
9.18315e-08
9.01837e-08
8.96981e-08
9.29991e-08
9.1383e-08
9.14701e-08
9.18248e-08
9.12032e-08
9.05378e-08
9.16633e-08
9.48049e-08
9.15211e-08
9.10305e-08
9.44523e-08
9.42751e-08
9.58229e-08
9.58871e-08
9.59242e-08
9.55576e-08
9.58089e-08
9.5717e-08
9.57563e-08
9.58639e-08
9.61587e-08
9.34994e-08
9.09203e-08
9.19012e-08
9.38745e-08
9.53432e-08
9.34206e-08
9.43296e-08
9.70101e-08
1.00997e-07
9.93296e-08
9.49038e-08
1.04096e-07
9.54777e-08
9.31356e-08
8.83275e-08
9.02989e-08
9.52317e-08
1.06251e-07
1.0399e-07
9.62945e-08
1.16208e-07
1.19765e-05
3.42089e-07
8.71023e-08
8.66913e-08
8.79803e-08
8.96293e-08
8.91304e-08
8.88825e-08
8.9617e-08
9.13321e-08
8.99942e-08
8.95131e-08
9.28011e-08
9.26723e-08
9.28009e-08
9.28243e-08
9.23136e-08
9.20691e-08
9.33507e-08
9.50073e-08
9.13998e-08
9.08872e-08
9.42006e-08
9.42129e-08
9.57625e-08
9.55669e-08
9.5725e-08
9.2716e-08
9.26035e-08
9.53585e-08
9.13546e-08
9.09424e-08
9.57242e-08
9.27998e-08
9.06165e-08
9.15647e-08
9.34865e-08
9.49487e-08
9.29014e-08
9.36949e-08
9.62462e-08
1.00054e-07
9.84127e-08
9.13669e-08
1.04174e-07
9.06556e-08
8.77014e-08
8.87279e-08
9.71442e-08
9.68862e-08
1.0736e-07
1.08109e-07
9.27262e-08
1.16807e-07
1.19771e-05
3.42731e-07
8.72827e-08
8.68787e-08
8.79246e-08
8.79432e-08
8.94414e-08
9.08574e-08
9.03651e-08
9.18364e-08
9.01786e-08
8.82483e-08
8.9672e-08
8.97805e-08
9.1342e-08
9.14139e-08
9.28922e-08
9.14564e-08
8.96601e-08
9.11969e-08
9.44265e-08
9.14491e-08
9.09937e-08
9.44497e-08
9.34524e-08
9.49135e-08
9.59829e-08
9.75738e-08
9.18786e-08
9.1317e-08
9.57492e-08
9.30313e-08
9.0689e-08
9.17246e-08
9.03489e-08
9.02547e-08
9.33361e-08
9.24929e-08
9.20299e-08
9.55423e-08
9.72237e-08
1.00753e-07
9.97521e-08
9.4241e-08
1.061e-07
9.98487e-08
9.76925e-08
8.85281e-08
9.23356e-08
9.58687e-08
1.00077e-07
1.02101e-07
8.98356e-08
1.13935e-07
1.19766e-05
3.42097e-07
8.71039e-08
8.66967e-08
8.76407e-08
8.92444e-08
8.91988e-08
8.89259e-08
8.96177e-08
9.12007e-08
8.99809e-08
8.80684e-08
8.94825e-08
8.95879e-08
9.11393e-08
9.12153e-08
9.27119e-08
9.12692e-08
9.0999e-08
9.55475e-08
9.1316e-08
9.07579e-08
9.7299e-08
9.16292e-08
9.11319e-08
9.57146e-08
9.0023e-08
8.80397e-08
8.96352e-08
8.96471e-08
9.34325e-08
9.11147e-08
9.1091e-08
9.55669e-08
9.00616e-08
8.98046e-08
9.27886e-08
9.19011e-08
9.13111e-08
9.46517e-08
9.61458e-08
9.78331e-08
9.5825e-08
9.48952e-08
1.00881e-07
9.07073e-08
8.73064e-08
9.33905e-08
9.16901e-08
9.62602e-08
1.07978e-07
1.08622e-07
9.11068e-08
1.18896e-07
1.19772e-05
3.42749e-07
8.72898e-08
8.68881e-08
8.68507e-08
8.68334e-08
8.67264e-08
8.52404e-08
8.56403e-08
8.69401e-08
8.80205e-08
8.83104e-08
8.98239e-08
9.13305e-08
9.15309e-08
9.31006e-08
9.43607e-08
9.5944e-08
9.1482e-08
9.10668e-08
9.58752e-08
9.57899e-08
9.45985e-08
9.4507e-08
9.50345e-08
9.47993e-08
9.59968e-08
9.30012e-08
9.13711e-08
9.23428e-08
9.55502e-08
9.17426e-08
8.96256e-08
9.13434e-08
9.3005e-08
9.25824e-08
9.17105e-08
9.77535e-08
9.44591e-08
9.35879e-08
9.60776e-08
9.97627e-08
9.81906e-08
9.68118e-08
1.03141e-07
9.94986e-08
9.14121e-08
9.33741e-08
9.94511e-08
9.34442e-08
1.05181e-07
9.96938e-08
9.23513e-08
1.19655e-07
1.19767e-05
3.42108e-07
8.71181e-08
8.51959e-08
8.66444e-08
8.81331e-08
8.72535e-08
8.72222e-08
8.77687e-08
8.76537e-08
8.93691e-08
9.09729e-08
9.08492e-08
9.07988e-08
9.12375e-08
9.28344e-08
9.42282e-08
9.571e-08
9.13677e-08
9.0828e-08
9.56304e-08
9.56815e-08
9.44216e-08
9.39993e-08
9.56575e-08
9.60965e-08
9.59763e-08
9.56779e-08
9.58099e-08
9.55399e-08
9.70733e-08
9.15652e-08
8.94683e-08
9.13124e-08
9.28661e-08
9.18491e-08
9.15089e-08
9.74068e-08
9.40691e-08
9.31225e-08
9.54993e-08
9.75389e-08
9.50352e-08
9.6355e-08
9.96946e-08
9.45783e-08
9.20483e-08
9.93051e-08
9.35995e-08
1.0001e-07
1.04024e-07
1.06559e-07
9.61752e-08
1.23081e-07
1.19772e-05
3.42756e-07
8.73098e-08
8.53692e-08
8.68272e-08
8.82833e-08
8.67798e-08
8.5933e-08
8.73215e-08
8.8106e-08
8.8176e-08
8.97996e-08
9.46021e-08
9.31375e-08
8.94312e-08
8.97719e-08
8.98709e-08
9.29053e-08
9.43432e-08
9.58382e-08
9.16112e-08
9.11264e-08
9.46184e-08
9.39097e-08
9.58659e-08
9.62561e-08
9.5865e-08
9.15562e-08
9.12715e-08
9.2543e-08
9.23466e-08
9.354e-08
9.4359e-08
9.50332e-08
9.55327e-08
9.22034e-08
9.08525e-08
9.41086e-08
9.32523e-08
9.51663e-08
9.98785e-08
9.57945e-08
9.60986e-08
9.85537e-08
9.64316e-08
1.02613e-07
9.43676e-08
9.60998e-08
9.75084e-08
9.4067e-08
1.06851e-07
1.01945e-07
9.3272e-08
1.2093e-07
1.19768e-05
3.42118e-07
8.71142e-08
8.51902e-08
8.66388e-08
8.80862e-08
8.77875e-08
8.77067e-08
8.79571e-08
8.9232e-08
9.06037e-08
9.07583e-08
9.40072e-08
9.29135e-08
8.92159e-08
9.0988e-08
9.09825e-08
9.09633e-08
9.10998e-08
9.42528e-08
9.15072e-08
9.09226e-08
9.44781e-08
9.43026e-08
9.64294e-08
9.62711e-08
9.61507e-08
9.15533e-08
9.12139e-08
9.54322e-08
9.14865e-08
8.96043e-08
9.22618e-08
9.22516e-08
9.54382e-08
9.17723e-08
9.05196e-08
9.43706e-08
9.26923e-08
9.44637e-08
9.89623e-08
9.48546e-08
9.51368e-08
9.55287e-08
9.67378e-08
1.02065e-07
9.40532e-08
9.76445e-08
9.96235e-08
9.58914e-08
9.5371e-08
1.03709e-07
1.07756e-07
1.23045e-07
1.19772e-05
3.42754e-07
8.72684e-08
8.53448e-08
8.5322e-08
8.65949e-08
8.66131e-08
8.59956e-08
8.72849e-08
8.81428e-08
8.82983e-08
8.96702e-08
9.45613e-08
9.19413e-08
9.13577e-08
9.62431e-08
9.01896e-08
8.95837e-08
9.1152e-08
9.25938e-08
9.13383e-08
8.94785e-08
9.29052e-08
9.27952e-08
9.67719e-08
9.28728e-08
9.18632e-08
9.75526e-08
9.75619e-08
9.17065e-08
9.08085e-08
9.55272e-08
9.55207e-08
9.1251e-08
9.15585e-08
9.63654e-08
9.38322e-08
9.01666e-08
9.11106e-08
9.42967e-08
9.89091e-08
9.47575e-08
9.70397e-08
1.0333e-07
9.40703e-08
9.80274e-08
1.06894e-07
9.60942e-08
9.19692e-08
9.66968e-08
9.97474e-08
9.98177e-08
1.03143e-07
1.19909e-07
1.19767e-05
3.42112e-07
8.70797e-08
8.51522e-08
8.66404e-08
8.80934e-08
8.76973e-08
8.76167e-08
8.7914e-08
8.92506e-08
9.06986e-08
9.01701e-08
9.03557e-08
9.46975e-08
9.21228e-08
8.83617e-08
8.95189e-08
8.95215e-08
9.08679e-08
9.10007e-08
9.24774e-08
9.2696e-08
9.27331e-08
9.66121e-08
9.22669e-08
9.16704e-08
9.61734e-08
9.59141e-08
9.73758e-08
9.15785e-08
8.90426e-08
9.10778e-08
9.253e-08
9.1674e-08
9.14302e-08
9.6244e-08
9.31639e-08
9.144e-08
9.09366e-08
9.30863e-08
9.85257e-08
9.42368e-08
9.64822e-08
1.03004e-07
9.37822e-08
9.64332e-08
9.38943e-08
9.65519e-08
1.01996e-07
9.71079e-08
9.59572e-08
1.00039e-07
1.05702e-07
1.20289e-07
1.19771e-05
3.42199e-07
9.18776e-08
9.34666e-08
9.32907e-08
9.3264e-08
9.49432e-08
9.21184e-08
8.53478e-08
8.66388e-08
8.80059e-08
8.82951e-08
8.97608e-08
9.11507e-08
9.14573e-08
9.2894e-08
9.43592e-08
9.46991e-08
9.51384e-08
9.08479e-08
8.96701e-08
9.15298e-08
9.37848e-08
9.31183e-08
9.25319e-08
9.88792e-08
9.23547e-08
9.1295e-08
9.72715e-08
9.17169e-08
8.78229e-08
8.95036e-08
8.94416e-08
9.06107e-08
9.16586e-08
9.33986e-08
9.47079e-08
9.15077e-08
9.31954e-08
9.53652e-08
9.84539e-08
9.61108e-08
9.35445e-08
9.82237e-08
1.01107e-07
1.04682e-07
1.05473e-07
1.047e-07
1.03339e-07
9.93177e-08
9.89737e-08
1.02068e-07
1.04888e-07
1.18272e-07
1.19767e-05
3.41554e-07
9.16838e-08
9.32689e-08
9.30886e-08
9.30604e-08
9.47316e-08
9.19119e-08
8.66257e-08
8.79639e-08
8.92184e-08
9.08069e-08
9.0508e-08
9.04238e-08
9.45765e-08
9.178e-08
8.94915e-08
9.25727e-08
9.24484e-08
9.38869e-08
9.14277e-08
8.98648e-08
9.06868e-08
9.11019e-08
9.5047e-08
9.24081e-08
8.99333e-08
9.12066e-08
9.23474e-08
9.19958e-08
8.85192e-08
8.93846e-08
8.93461e-08
9.07743e-08
9.15319e-08
9.2829e-08
9.42408e-08
9.74446e-08
9.32961e-08
9.25763e-08
1.01422e-07
9.54671e-08
9.27254e-08
9.79004e-08
1.0085e-07
1.04605e-07
9.98728e-08
1.04429e-07
1.01306e-07
9.5576e-08
9.81945e-08
1.00898e-07
1.05481e-07
1.18668e-07
1.19757e-05
3.47119e-07
9.00476e-08
8.98946e-08
9.1616e-08
9.14579e-08
9.45831e-08
9.20423e-08
9.15026e-08
9.81484e-08
9.21217e-08
8.98031e-08
9.30059e-08
9.28838e-08
9.29099e-08
9.2892e-08
9.4494e-08
9.48262e-08
9.30118e-08
9.28052e-08
9.6126e-08
9.24083e-08
9.0322e-08
1.02567e-07
1.02956e-07
9.80274e-08
9.97545e-08
9.35367e-08
9.00409e-08
9.02431e-08
9.17656e-08
9.54322e-08
9.63749e-08
9.83427e-08
9.22398e-08
8.70192e-08
8.85903e-08
8.84421e-08
9.06107e-08
9.2325e-08
9.42165e-08
9.28488e-08
9.216e-08
9.75989e-08
1.00663e-07
9.93347e-08
1.00286e-07
9.90856e-08
8.80486e-08
9.53685e-08
9.79455e-08
1.03239e-07
1.05854e-07
1.18415e-07
1.19766e-05
3.41327e-07
9.00325e-08
9.09504e-08
9.07703e-08
9.07121e-08
9.39329e-08
9.18432e-08
9.12713e-08
9.62026e-08
9.0111e-08
8.95842e-08
9.13106e-08
9.27993e-08
9.17206e-08
8.96354e-08
9.25616e-08
9.26188e-08
9.40648e-08
9.12121e-08
9.11287e-08
9.43892e-08
9.3446e-08
1.04674e-07
1.09757e-07
9.78924e-08
9.9997e-08
9.32959e-08
9.10797e-08
9.28745e-08
9.15149e-08
9.2934e-08
9.46126e-08
9.66574e-08
9.22432e-08
8.84194e-08
8.98939e-08
9.03967e-08
9.17043e-08
9.23684e-08
9.47538e-08
9.27369e-08
9.20098e-08
9.74415e-08
1.00679e-07
9.94589e-08
9.76857e-08
9.89648e-08
8.81061e-08
9.34387e-08
9.9765e-08
1.02124e-07
1.06031e-07
1.18528e-07
1.19769e-05
3.41865e-07
9.18305e-08
9.33711e-08
9.33318e-08
9.33505e-08
9.48389e-08
9.21545e-08
8.99089e-08
9.3053e-08
9.2944e-08
9.31333e-08
9.30237e-08
9.44699e-08
9.65739e-08
9.22626e-08
8.69938e-08
8.82658e-08
8.83648e-08
8.92792e-08
9.01348e-08
9.08361e-08
9.29004e-08
1.39882e-07
0.000100742
1.01851e-07
9.06243e-08
8.9278e-08
9.09575e-08
8.99923e-08
9.05945e-08
9.11468e-08
9.40588e-08
9.18909e-08
8.70421e-08
8.78632e-08
8.82309e-08
9.00638e-08
9.54045e-08
9.28558e-08
9.2447e-08
9.68879e-08
9.66795e-08
1.01057e-07
1.02951e-07
1.00541e-07
1.0094e-07
9.84134e-08
9.89436e-08
1.02009e-07
9.54158e-08
9.70796e-08
1.03149e-07
1.29739e-07
1.2062e-05
3.4941e-07
9.15463e-08
9.16e-08
9.31672e-08
9.18083e-08
9.1341e-08
9.65649e-08
9.16384e-08
9.13357e-08
9.45798e-08
8.98832e-08
8.94836e-08
9.27415e-08
9.26979e-08
9.27793e-08
9.27385e-08
9.25842e-08
9.23302e-08
9.39915e-08
9.27191e-08
9.24628e-08
1.03302e-07
1.17465e-07
0.000952335
9.40999e-08
9.02982e-08
9.10282e-08
8.9712e-08
9.03054e-08
9.11279e-08
9.23954e-08
9.08197e-08
9.09682e-08
9.55124e-08
9.15451e-08
8.96017e-08
9.31385e-08
9.35106e-08
9.36437e-08
9.32169e-08
9.58069e-08
9.7891e-08
1.02156e-07
9.92967e-08
9.90504e-08
9.77012e-08
9.75469e-08
9.85982e-08
1.00936e-07
1.173e-07
1.06847e-07
1.03829e-07
1.33278e-07
1.20529e-05
3.56974e-07
8.91168e-08
8.84488e-08
9.16021e-08
9.15404e-08
9.47372e-08
9.20328e-08
9.1445e-08
9.63997e-08
9.03027e-08
8.97386e-08
9.28851e-08
9.29308e-08
9.30417e-08
9.27152e-08
9.43516e-08
9.64207e-08
9.19115e-08
8.9674e-08
9.29907e-08
9.15912e-08
1.05819e-07
5.50501e-09
3.25311e-05
9.06533e-08
9.10111e-08
8.98922e-08
9.03228e-08
9.12306e-08
9.4052e-08
9.12303e-08
9.0827e-08
9.54379e-08
9.56859e-08
9.76367e-08
9.18668e-08
9.02419e-08
9.42221e-08
9.503e-08
9.4526e-08
9.46943e-08
1.00427e-07
1.02136e-07
1.02706e-07
1.02748e-07
1.06683e-07
9.96936e-08
1.00753e-07
1.0138e-07
1.00441e-07
1.02621e-07
1.09077e-07
1.19654e-05
3.52687e-07
9.53405e-08
9.02869e-08
9.13902e-08
9.83491e-08
9.20455e-08
8.6665e-08
8.8032e-08
8.8018e-08
8.95233e-08
9.27854e-08
8.99656e-08
8.94469e-08
9.27523e-08
9.28162e-08
9.41551e-08
9.58184e-08
9.16683e-08
9.10525e-08
9.5915e-08
9.44207e-08
1.19708e-07
0.00695918
5.42302e-05
9.09766e-08
8.7539e-08
8.87084e-08
9.05145e-08
8.99344e-08
9.04939e-08
9.0639e-08
9.17988e-08
9.23998e-08
9.25431e-08
9.25458e-08
9.27345e-08
9.49314e-08
9.53453e-08
9.35241e-08
9.44056e-08
9.99513e-08
9.5106e-08
8.64186e-08
9.10774e-08
9.284e-08
8.86972e-08
9.36884e-08
1.06559e-07
1.04995e-07
1.01147e-07
1.03379e-07
1.20758e-07
1.19751e-05
3.48403e-07
9.21106e-08
9.16982e-08
9.34562e-08
9.0287e-08
8.98665e-08
9.33356e-08
9.31936e-08
9.32349e-08
9.48022e-08
9.18767e-08
9.12538e-08
9.6424e-08
9.64862e-08
9.63799e-08
9.61796e-08
9.7918e-08
9.78259e-08
9.17721e-08
9.12725e-08
9.5891e-08
9.19815e-08
1.01921e-07
3.47823e-07
9.25792e-08
8.98197e-08
9.0921e-08
9.22401e-08
9.11338e-08
9.12578e-08
9.13512e-08
9.31089e-08
9.48912e-08
9.47917e-08
9.5126e-08
9.68455e-08
9.88496e-08
9.25094e-08
9.2354e-08
9.87356e-08
9.96444e-08
1.00589e-07
1.0143e-07
9.42395e-08
9.48386e-08
1.06922e-07
9.69655e-08
8.51914e-08
9.36034e-08
9.83261e-08
1.01915e-07
1.04968e-07
1.18595e-07
1.19746e-05
3.47773e-07
9.19209e-08
9.15097e-08
9.32632e-08
9.01107e-08
8.96841e-08
9.31321e-08
9.29543e-08
9.30004e-08
9.46597e-08
9.18698e-08
8.80569e-08
8.96286e-08
8.9614e-08
9.09579e-08
9.12608e-08
9.43959e-08
9.15778e-08
8.94636e-08
9.24345e-08
9.11644e-08
9.16119e-08
1.13616e-07
2.56305e-07
9.27096e-08
9.29768e-08
9.28645e-08
9.52334e-08
9.26736e-08
9.21791e-08
9.53984e-08
8.98933e-08
8.94955e-08
9.29005e-08
9.30129e-08
9.29743e-08
9.3355e-08
9.52264e-08
9.19645e-08
9.27045e-08
9.43897e-08
9.43535e-08
1.00062e-07
9.49504e-08
9.09849e-08
9.16703e-08
8.80628e-08
9.86366e-08
1.05737e-07
9.91012e-08
1.0242e-07
1.05206e-07
1.18874e-07
1.19763e-05
3.42134e-07
9.18578e-08
9.34556e-08
9.32735e-08
9.32936e-08
9.31911e-08
9.61298e-08
9.16732e-08
9.14962e-08
9.65561e-08
9.33232e-08
9.01314e-08
9.1377e-08
9.63107e-08
9.20524e-08
9.13517e-08
9.77384e-08
9.17804e-08
8.95926e-08
9.26691e-08
9.10875e-08
9.12307e-08
9.2546e-08
9.38067e-08
9.6665e-08
9.51948e-08
9.15454e-08
9.09679e-08
9.2408e-08
9.40528e-08
9.23406e-08
8.9625e-08
9.08483e-08
9.24185e-08
9.27467e-08
9.41037e-08
9.48458e-08
9.30028e-08
8.96724e-08
9.24428e-08
9.18729e-08
9.27312e-08
9.88804e-08
9.87966e-08
9.24984e-08
9.31139e-08
9.59149e-08
9.88072e-08
1.06077e-07
9.97855e-08
1.02488e-07
1.04437e-07
1.17584e-07
1.19759e-05
3.41509e-07
9.1669e-08
9.32642e-08
9.30777e-08
9.30958e-08
9.29814e-08
9.59257e-08
9.15018e-08
9.1317e-08
9.63665e-08
9.31373e-08
8.98696e-08
9.12508e-08
9.28645e-08
9.26546e-08
9.41839e-08
9.59656e-08
9.15391e-08
9.0912e-08
9.5574e-08
9.55506e-08
9.7947e-08
9.23625e-08
9.23173e-08
9.71135e-08
9.64212e-08
9.74624e-08
9.15239e-08
9.06992e-08
9.52534e-08
9.2386e-08
8.94967e-08
9.08814e-08
9.39875e-08
9.12817e-08
9.11999e-08
9.66095e-08
9.17876e-08
9.22038e-08
9.81702e-08
9.1246e-08
9.25618e-08
9.81426e-08
9.97631e-08
9.5491e-08
9.30753e-08
9.33581e-08
9.55119e-08
1.01778e-07
9.85811e-08
1.0217e-07
1.04651e-07
1.17879e-07
1.1976e-05
3.42549e-07
9.03321e-08
9.17008e-08
9.16808e-08
9.17269e-08
9.16379e-08
9.34116e-08
9.50615e-08
9.50385e-08
9.50158e-08
9.62455e-08
9.19688e-08
8.86077e-08
9.12527e-08
9.12007e-08
9.44401e-08
9.18151e-08
8.94607e-08
9.12312e-08
9.27496e-08
9.1368e-08
9.11411e-08
9.80276e-08
9.2591e-08
9.00054e-08
9.17609e-08
9.29929e-08
9.12356e-08
9.08862e-08
9.70863e-08
9.1287e-08
8.91629e-08
9.23365e-08
9.24013e-08
9.59675e-08
9.24019e-08
8.87368e-08
9.00227e-08
8.99178e-08
9.27227e-08
9.63215e-08
9.48157e-08
9.6296e-08
9.35264e-08
9.50168e-08
9.63719e-08
9.9997e-08
1.03117e-07
1.00757e-07
9.91964e-08
1.02552e-07
1.04547e-07
1.16457e-07
1.19755e-05
3.41952e-07
9.01507e-08
9.15178e-08
9.14963e-08
9.15422e-08
9.1453e-08
9.32327e-08
9.48716e-08
9.48514e-08
9.48296e-08
9.60457e-08
9.17528e-08
8.84774e-08
9.11076e-08
9.10891e-08
9.41661e-08
9.15976e-08
8.94414e-08
9.23344e-08
9.22531e-08
9.38571e-08
9.26409e-08
9.29574e-08
9.48916e-08
9.1712e-08
8.97311e-08
9.11913e-08
9.42701e-08
9.11552e-08
9.07256e-08
9.52019e-08
9.24018e-08
8.96629e-08
9.09345e-08
9.59275e-08
9.21057e-08
8.86534e-08
8.98994e-08
9.24949e-08
9.10837e-08
9.144e-08
9.76993e-08
9.64094e-08
1.00635e-07
9.53697e-08
9.36293e-08
1.06599e-07
9.82287e-08
9.48672e-08
9.86058e-08
1.03457e-07
1.04054e-07
1.16745e-07
1.19759e-05
3.42521e-07
9.03169e-08
9.1684e-08
9.16301e-08
9.16149e-08
9.16386e-08
9.31457e-08
9.4878e-08
9.52212e-08
9.56619e-08
9.10141e-08
8.9801e-08
9.30012e-08
9.29519e-08
9.30775e-08
9.31198e-08
9.3049e-08
9.14428e-08
9.27017e-08
9.11161e-08
9.09006e-08
9.26276e-08
9.45911e-08
9.20284e-08
8.99249e-08
9.42609e-08
9.31708e-08
9.15425e-08
9.2451e-08
9.53431e-08
9.12692e-08
9.0761e-08
9.72503e-08
9.16206e-08
9.11668e-08
9.83187e-08
9.23584e-08
8.81425e-08
8.9554e-08
8.9276e-08
8.99591e-08
8.94145e-08
9.04194e-08
8.89911e-08
1.00205e-07
9.91285e-08
8.93017e-08
8.70492e-08
9.40112e-08
1.0007e-07
1.02071e-07
1.03827e-07
1.15639e-07
1.19754e-05
3.41913e-07
9.01356e-08
9.15019e-08
9.14603e-08
9.14366e-08
9.14626e-08
9.29612e-08
9.46825e-08
9.50387e-08
9.55224e-08
9.08908e-08
8.96148e-08
9.27464e-08
9.26816e-08
9.28486e-08
9.28952e-08
9.28231e-08
9.12467e-08
9.26962e-08
8.96624e-08
8.93136e-08
9.09717e-08
9.27613e-08
9.18381e-08
8.95665e-08
9.22068e-08
9.16515e-08
9.17892e-08
9.16946e-08
9.48727e-08
9.11825e-08
9.0616e-08
9.72958e-08
9.15523e-08
9.10822e-08
9.82122e-08
9.22529e-08
8.80196e-08
9.01167e-08
8.91415e-08
8.95829e-08
9.13612e-08
8.95729e-08
9.21081e-08
9.95726e-08
9.74158e-08
8.75827e-08
9.35917e-08
1.00745e-07
9.83145e-08
1.04827e-07
1.03537e-07
1.15941e-07
1.19755e-05
3.42496e-07
9.02664e-08
9.16319e-08
9.15765e-08
9.1575e-08
9.1601e-08
9.30734e-08
9.47207e-08
9.51643e-08
9.56717e-08
9.09036e-08
9.13395e-08
9.63011e-08
9.31337e-08
9.27792e-08
9.25452e-08
9.26314e-08
9.43222e-08
9.42526e-08
9.58576e-08
9.15883e-08
9.10207e-08
9.75032e-08
9.19678e-08
8.97247e-08
9.12735e-08
9.27361e-08
9.13859e-08
9.08011e-08
9.52621e-08
9.53678e-08
9.12314e-08
9.08968e-08
9.74473e-08
9.16854e-08
9.18337e-08
9.68361e-08
9.1356e-08
8.72627e-08
8.93556e-08
9.05573e-08
8.95188e-08
9.04558e-08
9.42626e-08
9.58369e-08
9.75162e-08
1.05027e-07
9.94164e-08
9.59384e-08
9.85282e-08
1.02645e-07
1.03479e-07
1.14513e-07
1.19751e-05
3.41907e-07
9.00914e-08
9.14585e-08
9.13976e-08
9.13867e-08
9.14148e-08
9.2905e-08
9.45587e-08
9.4954e-08
9.55097e-08
9.0755e-08
9.11064e-08
9.60811e-08
9.30129e-08
8.99272e-08
9.11736e-08
9.26453e-08
9.26471e-08
9.40761e-08
9.57722e-08
9.1448e-08
9.08833e-08
9.74638e-08
9.16929e-08
8.95614e-08
9.10881e-08
9.25668e-08
9.13165e-08
9.05934e-08
9.53864e-08
9.52566e-08
9.07242e-08
9.0726e-08
9.73695e-08
9.16135e-08
9.17469e-08
9.67439e-08
9.12187e-08
8.86132e-08
8.92101e-08
9.03055e-08
9.28446e-08
9.05561e-08
9.54511e-08
1.0381e-07
1.08482e-07
1.00471e-07
8.86387e-08
9.36251e-08
1.01181e-07
1.06581e-07
1.05429e-07
1.18156e-07
1.19754e-05
3.4248e-07
9.0262e-08
9.16304e-08
9.15703e-08
9.15848e-08
9.16117e-08
9.30485e-08
9.46991e-08
9.51615e-08
9.56456e-08
9.08859e-08
8.97823e-08
9.30309e-08
9.28704e-08
9.45131e-08
9.1608e-08
9.10121e-08
8.9544e-08
8.93846e-08
9.25683e-08
9.25622e-08
9.3957e-08
9.13472e-08
9.1247e-08
9.41448e-08
9.14184e-08
9.0851e-08
9.26183e-08
9.41222e-08
9.12221e-08
8.7716e-08
8.9262e-08
8.93138e-08
9.08329e-08
9.15677e-08
9.47828e-08
9.19904e-08
8.83534e-08
8.79575e-08
8.90405e-08
8.99415e-08
8.9379e-08
8.98308e-08
9.58612e-08
9.34254e-08
9.79948e-08
1.04828e-07
9.96167e-08
9.70324e-08
1.00334e-07
1.04441e-07
1.0106e-07
1.1299e-07
1.19749e-05
3.4188e-07
9.00871e-08
9.14549e-08
9.13899e-08
9.13876e-08
9.14125e-08
9.2875e-08
9.45227e-08
9.49472e-08
9.5488e-08
9.0778e-08
8.95986e-08
9.28263e-08
9.26593e-08
9.42247e-08
9.14431e-08
9.08861e-08
8.94032e-08
8.92555e-08
9.24152e-08
9.24855e-08
9.38408e-08
9.11311e-08
9.10159e-08
9.2412e-08
9.24208e-08
9.38099e-08
9.57952e-08
9.12012e-08
9.06788e-08
9.5121e-08
9.23227e-08
8.97351e-08
9.12542e-08
9.28669e-08
9.46606e-08
9.18662e-08
8.67134e-08
8.76542e-08
8.9427e-08
8.9326e-08
9.1418e-08
8.92696e-08
9.36689e-08
9.97152e-08
1.01362e-07
1.04916e-07
9.89407e-08
9.60539e-08
1.01382e-07
1.03984e-07
1.0552e-07
1.19451e-07
1.1975e-05
3.42447e-07
9.02636e-08
9.16255e-08
9.1612e-08
9.16525e-08
9.16288e-08
9.32718e-08
9.48253e-08
9.65944e-08
9.24857e-08
8.86654e-08
8.98102e-08
8.97597e-08
9.1335e-08
9.15594e-08
9.31032e-08
9.01086e-08
8.808e-08
8.95012e-08
8.95343e-08
9.10818e-08
9.25056e-08
9.39767e-08
9.56947e-08
9.16139e-08
8.933e-08
9.22557e-08
9.217e-08
9.21205e-08
9.22332e-08
9.36908e-08
9.42825e-08
9.52496e-08
9.56071e-08
9.31509e-08
9.02553e-08
9.16106e-08
9.14542e-08
8.72856e-08
8.9298e-08
8.98618e-08
9.24391e-08
9.35806e-08
9.97789e-08
9.72014e-08
1.0064e-07
1.05314e-07
9.9716e-08
1.00057e-07
1.06381e-07
1.01732e-07
9.25538e-08
1.09649e-07
1.19746e-05
3.4187e-07
9.00886e-08
9.14564e-08
9.14428e-08
9.1472e-08
9.14531e-08
9.30784e-08
9.47309e-08
9.65039e-08
9.22705e-08
8.84601e-08
8.96301e-08
8.95784e-08
9.11976e-08
9.28678e-08
9.14201e-08
9.08776e-08
8.94135e-08
8.92693e-08
9.24634e-08
9.24469e-08
9.38838e-08
9.38867e-08
9.54569e-08
9.13704e-08
8.91664e-08
9.21159e-08
9.21138e-08
9.22183e-08
9.21966e-08
9.35319e-08
9.42423e-08
9.51524e-08
9.55257e-08
9.30585e-08
9.01392e-08
9.14192e-08
9.12783e-08
8.70713e-08
8.91687e-08
8.95921e-08
9.09585e-08
9.30691e-08
9.72289e-08
9.84737e-08
1.02428e-07
1.00824e-07
9.87965e-08
9.90286e-08
1.01278e-07
1.06636e-07
1.04053e-07
1.13787e-07
1.19748e-05
3.42426e-07
9.02654e-08
9.16302e-08
9.16175e-08
9.16063e-08
9.17158e-08
9.35009e-08
9.34602e-08