/*--------------------------------*- C++ -*----------------------------------*\
| =========                 |                                                 |
| \\      /  F ield         | OpenFOAM: The Open Source CFD Toolbox           |
|  \\    /   O peration     | Version:  4.1                                   |
|   \\  /    A nd           | Web:      www.OpenFOAM.org                      |
|    \\/     M anipulation  |                                                 |
\*---------------------------------------------------------------------------*/
FoamFile
{
    version     2.0;
    format      ascii;
    class       volScalarField;
    location    "26";
    object      p;
}
// * * * * * * * * * * * * * * * * * * * * * * * * * * * * * * * * * * * * * //

dimensions      [0 2 -2 0 0 0 0];

internalField   nonuniform List<scalar> 
4432
(
-2.39668e+10
-2.5599e+10
-1.92293e+10
-1.30735e+09
-6.48159e+09
-1.35878e+10
-1.18196e+10
-1.10994e+10
-1.09723e+10
-1.10071e+10
-1.08256e+10
-1.06146e+10
-1.05179e+10
-1.05367e+10
-1.06475e+10
-1.07166e+10
-1.05918e+10
-1.0415e+10
-1.02758e+10
-1.01795e+10
-1.00842e+10
-9.99423e+09
-9.90744e+09
-9.82447e+09
-9.74635e+09
-9.67409e+09
-9.6083e+09
-9.5491e+09
-9.49613e+09
-9.44882e+09
-9.40663e+09
-9.37007e+09
-9.34015e+09
-9.31615e+09
-9.29751e+09
-9.28551e+09
-9.2792e+09
-9.27755e+09
-9.27894e+09
-9.27943e+09
-9.27293e+09
-9.2492e+09
-9.1901e+09
-9.07236e+09
-8.87694e+09
-8.58493e+09
-8.16071e+09
-7.58253e+09
-6.89555e+09
-6.36145e+09
-6.76592e+09
-9.1683e+09
-1.21071e+10
-6.5108e+09
-2.10034e+10
-1.9497e+10
-1.54641e+10
-9.51603e+09
-6.97259e+09
-1.27766e+10
-1.2647e+10
-1.16482e+10
-1.14092e+10
-1.14045e+10
-1.1089e+10
-1.07181e+10
-1.05432e+10
-1.05732e+10
-1.06968e+10
-1.07489e+10
-1.06012e+10
-1.04201e+10
-1.02953e+10
-1.01995e+10
-1.01022e+10
-1.00112e+10
-9.92287e+09
-9.8382e+09
-9.75786e+09
-9.68293e+09
-9.61404e+09
-9.55141e+09
-9.49477e+09
-9.44368e+09
-9.39783e+09
-9.35791e+09
-9.32524e+09
-9.30008e+09
-9.28226e+09
-9.27112e+09
-9.2654e+09
-9.2647e+09
-9.2675e+09
-9.26976e+09
-9.26502e+09
-9.24266e+09
-9.18384e+09
-9.06395e+09
-8.86028e+09
-8.55116e+09
-8.10022e+09
-7.47591e+09
-6.73508e+09
-6.1439e+09
-6.58602e+09
-9.4139e+09
-1.28712e+10
-7.65131e+09
-1.52116e+10
-1.36581e+10
-1.15203e+10
-1.31637e+10
-9.24859e+09
-1.20101e+10
-1.41174e+10
-1.29948e+10
-1.22364e+10
-1.18884e+10
-1.13003e+10
-1.08493e+10
-1.05829e+10
-1.04795e+10
-1.05428e+10
-1.06874e+10
-1.06623e+10
-1.04822e+10
-1.03282e+10
-1.02082e+10
-1.01091e+10
-1.00167e+10
-9.92784e+09
-9.84178e+09
-9.75961e+09
-9.68256e+09
-9.61158e+09
-9.54747e+09
-9.49031e+09
-9.44009e+09
-9.39634e+09
-9.36003e+09
-9.33442e+09
-9.31602e+09
-9.29675e+09
-9.28162e+09
-9.27429e+09
-9.27325e+09
-9.27533e+09
-9.27262e+09
-9.25481e+09
-9.21038e+09
-9.12256e+09
-8.9661e+09
-8.71724e+09
-8.37321e+09
-7.89853e+09
-7.23957e+09
-6.49348e+09
-6.03354e+09
-6.82164e+09
-9.87992e+09
-1.23479e+10
-6.02431e+09
-1.55262e+10
-1.42164e+10
-1.1594e+10
-1.02775e+10
-9.4836e+09
-1.23157e+10
-1.41858e+10
-1.28948e+10
-1.23264e+10
-1.19234e+10
-1.13497e+10
-1.08631e+10
-1.05728e+10
-1.04786e+10
-1.05754e+10
-1.07429e+10
-1.06819e+10
-1.04702e+10
-1.03337e+10
-1.02175e+10
-1.01178e+10
-1.00233e+10
-9.93235e+09
-9.84403e+09
-9.75942e+09
-9.67971e+09
-9.60591e+09
-9.53879e+09
-9.47852e+09
-9.42495e+09
-9.37759e+09
-9.33696e+09
-9.30507e+09
-9.28167e+09
-9.26431e+09
-9.25205e+09
-9.24429e+09
-9.24241e+09
-9.245e+09
-9.24259e+09
-9.22381e+09
-9.17684e+09
-9.08384e+09
-8.91939e+09
-8.65895e+09
-8.28882e+09
-7.77928e+09
-7.10185e+09
-6.34211e+09
-5.87953e+09
-6.77363e+09
-1.01618e+10
-1.28996e+10
-6.07218e+09
-1.3186e+10
-1.0319e+10
-6.90462e+09
-1.21916e+10
-9.55144e+09
-1.04242e+10
-1.22548e+10
-1.2799e+10
-1.2744e+10
-1.23322e+10
-1.16392e+10
-1.11001e+10
-1.06982e+10
-1.04795e+10
-1.05148e+10
-1.06434e+10
-1.06198e+10
-1.04669e+10
-1.03364e+10
-1.02184e+10
-1.01154e+10
-1.00181e+10
-9.9237e+09
-9.83098e+09
-9.74097e+09
-9.65527e+09
-9.57557e+09
-9.50327e+09
-9.43879e+09
-9.38194e+09
-9.3314e+09
-9.28535e+09
-9.24812e+09
-9.23051e+09
-9.22242e+09
-9.21292e+09
-9.21642e+09
-9.22626e+09
-9.23763e+09
-9.23703e+09
-9.21354e+09
-9.15829e+09
-9.05478e+09
-8.87525e+09
-8.59613e+09
-8.20306e+09
-7.67459e+09
-7.0101e+09
-6.30542e+09
-5.90782e+09
-6.71687e+09
-9.65884e+09
-1.24359e+10
-6.00966e+09
-1.26789e+10
-1.19405e+10
-9.66481e+09
-8.4468e+09
-1.02812e+10
-1.16272e+10
-1.2384e+10
-1.24199e+10
-1.25729e+10
-1.21549e+10
-1.15161e+10
-1.10005e+10
-1.06567e+10
-1.04903e+10
-1.05338e+10
-1.06829e+10
-1.06245e+10
-1.04536e+10
-1.03294e+10
-1.02161e+10
-1.01147e+10
-1.00169e+10
-9.9217e+09
-9.82809e+09
-9.73717e+09
-9.65041e+09
-9.56948e+09
-9.4958e+09
-9.43018e+09
-9.37241e+09
-9.32085e+09
-9.27443e+09
-9.23658e+09
-9.2119e+09
-9.19747e+09
-9.19291e+09
-9.19681e+09
-9.20712e+09
-9.21845e+09
-9.21666e+09
-9.18996e+09
-9.12956e+09
-9.01781e+09
-8.82699e+09
-8.52994e+09
-8.11117e+09
-7.55687e+09
-6.86711e+09
-6.13939e+09
-5.75341e+09
-6.67802e+09
-9.87317e+09
-1.2906e+10
-7.28494e+09
-1.19202e+10
-1.18273e+10
-1.03141e+10
-9.62683e+09
-1.08262e+10
-1.11338e+10
-1.18079e+10
-1.22226e+10
-1.23945e+10
-1.20982e+10
-1.15443e+10
-1.11095e+10
-1.07774e+10
-1.05927e+10
-1.05993e+10
-1.06622e+10
-1.06004e+10
-1.04626e+10
-1.03453e+10
-1.02364e+10
-1.01352e+10
-1.00358e+10
-9.93731e+09
-9.8394e+09
-9.74372e+09
-9.65241e+09
-9.56762e+09
-9.49107e+09
-9.42269e+09
-9.36082e+09
-9.30298e+09
-9.24284e+09
-9.18564e+09
-9.18915e+09
-9.24658e+09
-9.23739e+09
-9.23214e+09
-9.25793e+09
-9.28588e+09
-9.30491e+09
-9.29837e+09
-9.25619e+09
-9.15816e+09
-8.96752e+09
-8.65791e+09
-8.2132e+09
-7.61717e+09
-6.89777e+09
-6.15641e+09
-5.71678e+09
-6.41793e+09
-9.2327e+09
-1.22884e+10
-6.64003e+09
-1.16271e+10
-1.10127e+10
-1.02611e+10
-1.01935e+10
-1.23769e+10
-1.2281e+10
-1.16052e+10
-1.17022e+10
-1.20997e+10
-1.18833e+10
-1.14449e+10
-1.1055e+10
-1.07674e+10
-1.06253e+10
-1.0645e+10
-1.06938e+10
-1.06004e+10
-1.04585e+10
-1.03439e+10
-1.02374e+10
-1.01361e+10
-1.00355e+10
-9.93515e+09
-9.83484e+09
-9.73627e+09
-9.64172e+09
-9.55365e+09
-9.47401e+09
-9.40346e+09
-9.34131e+09
-9.28564e+09
-9.23531e+09
-9.1962e+09
-9.17837e+09
-9.1759e+09
-9.18763e+09
-9.20309e+09
-9.21895e+09
-9.24467e+09
-9.26167e+09
-9.2521e+09
-9.20598e+09
-9.10508e+09
-8.91421e+09
-8.60166e+09
-8.15618e+09
-7.56878e+09
-6.86536e+09
-6.15732e+09
-5.82103e+09
-6.81012e+09
-1.00186e+10
-1.27124e+10
-6.21047e+09
-1.10235e+10
-1.14396e+10
-1.14665e+10
-1.06873e+10
-1.1718e+10
-1.14635e+10
-1.14379e+10
-1.16818e+10
-1.19823e+10
-1.19343e+10
-1.15196e+10
-1.10517e+10
-1.07956e+10
-1.06784e+10
-1.06847e+10
-1.06768e+10
-1.05868e+10
-1.04649e+10
-1.03548e+10
-1.02498e+10
-1.01481e+10
-1.0046e+10
-9.94259e+09
-9.83811e+09
-9.73506e+09
-9.63651e+09
-9.54501e+09
-9.46239e+09
-9.38887e+09
-9.32057e+09
-9.25599e+09
-9.19516e+09
-9.14834e+09
-9.14459e+09
-9.17305e+09
-9.1909e+09
-9.21265e+09
-9.25192e+09
-9.29716e+09
-9.3382e+09
-9.36017e+09
-9.34293e+09
-9.25909e+09
-9.07401e+09
-8.75726e+09
-8.28755e+09
-7.65299e+09
-6.87307e+09
-6.03368e+09
-5.43918e+09
-5.93655e+09
-8.66356e+09
-1.19092e+10
-6.30659e+09
-1.13825e+10
-1.11062e+10
-1.11069e+10
-1.13717e+10
-1.26969e+10
-1.18849e+10
-1.12201e+10
-1.12934e+10
-1.15793e+10
-1.16148e+10
-1.13878e+10
-1.106e+10
-1.08252e+10
-1.07164e+10
-1.07161e+10
-1.06993e+10
-1.05979e+10
-1.04761e+10
-1.03675e+10
-1.02633e+10
-1.01608e+10
-1.00567e+10
-9.95033e+09
-9.84217e+09
-9.73477e+09
-9.63151e+09
-9.53511e+09
-9.44694e+09
-9.36691e+09
-9.29556e+09
-9.23532e+09
-9.18456e+09
-9.14124e+09
-9.11782e+09
-9.11605e+09
-9.12794e+09
-9.15124e+09
-9.18311e+09
-9.22079e+09
-9.25408e+09
-9.27063e+09
-9.25051e+09
-9.16683e+09
-8.98896e+09
-8.68728e+09
-8.24156e+09
-7.64604e+09
-6.92405e+09
-6.17053e+09
-5.73571e+09
-6.5487e+09
-9.54599e+09
-1.23422e+10
-6.24174e+09
-1.1224e+10
-1.15236e+10
-1.16278e+10
-1.15443e+10
-1.19154e+10
-1.15582e+10
-1.12749e+10
-1.1302e+10
-1.15028e+10
-1.16151e+10
-1.14662e+10
-1.10729e+10
-1.0839e+10
-1.07682e+10
-1.07548e+10
-1.07048e+10
-1.06097e+10
-1.05013e+10
-1.03986e+10
-1.02983e+10
-1.01985e+10
-1.00956e+10
-9.98795e+09
-9.87624e+09
-9.76461e+09
-9.65848e+09
-9.55974e+09
-9.46624e+09
-9.38052e+09
-9.30524e+09
-9.24115e+09
-9.19122e+09
-9.16041e+09
-9.14928e+09
-9.14645e+09
-9.15589e+09
-9.18404e+09
-9.22687e+09
-9.27668e+09
-9.32446e+09
-9.35515e+09
-9.34619e+09
-9.26807e+09
-9.08844e+09
-8.77779e+09
-8.31305e+09
-7.68633e+09
-6.91598e+09
-6.06936e+09
-5.41105e+09
-5.7676e+09
-8.4249e+09
-1.18969e+10
-6.46916e+09
-1.17931e+10
-1.17387e+10
-1.16772e+10
-1.15397e+10
-1.2165e+10
-1.15857e+10
-1.12036e+10
-1.12902e+10
-1.14257e+10
-1.14661e+10
-1.13106e+10
-1.10377e+10
-1.08487e+10
-1.0781e+10
-1.07598e+10
-1.0705e+10
-1.06071e+10
-1.0501e+10
-1.04006e+10
-1.03015e+10
-1.02017e+10
-1.00979e+10
-9.98889e+09
-9.8761e+09
-9.76317e+09
-9.65426e+09
-9.55206e+09
-9.45785e+09
-9.37219e+09
-9.29484e+09
-9.22938e+09
-9.17715e+09
-9.13527e+09
-9.10889e+09
-9.09906e+09
-9.10284e+09
-9.12297e+09
-9.15652e+09
-9.19604e+09
-9.23363e+09
-9.257e+09
-9.24375e+09
-9.16635e+09
-8.99467e+09
-8.70176e+09
-8.26779e+09
-7.68873e+09
-6.98392e+09
-6.22911e+09
-5.72419e+09
-6.33556e+09
-9.1543e+09
-1.23006e+10
-6.66312e+09
-1.14346e+10
-1.18128e+10
-1.18362e+10
-1.19221e+10
-1.17305e+10
-1.14303e+10
-1.1217e+10
-1.11915e+10
-1.13389e+10
-1.14671e+10
-1.12996e+10
-1.10237e+10
-1.08841e+10
-1.08387e+10
-1.0795e+10
-1.07244e+10
-1.06318e+10
-1.05334e+10
-1.04385e+10
-1.03455e+10
-1.02505e+10
-1.01479e+10
-1.00346e+10
-9.91361e+09
-9.79151e+09
-9.67414e+09
-9.5638e+09
-9.46292e+09
-9.3732e+09
-9.29392e+09
-9.22732e+09
-9.17874e+09
-9.15115e+09
-9.13751e+09
-9.12977e+09
-9.13481e+09
-9.15719e+09
-9.19418e+09
-9.24025e+09
-9.28522e+09
-9.3135e+09
-9.30423e+09
-9.23151e+09
-9.06753e+09
-8.78657e+09
-8.37281e+09
-7.83018e+09
-7.18468e+09
-6.50219e+09
-6.02889e+09
-6.51483e+09
-8.9852e+09
-1.19502e+10
-6.18018e+09
-1.19391e+10
-1.20761e+10
-1.21754e+10
-1.16593e+10
-1.13795e+10
-1.11648e+10
-1.1246e+10
-1.13612e+10
-1.14327e+10
-1.1389e+10
-1.12025e+10
-1.10027e+10
-1.08889e+10
-1.0841e+10
-1.07944e+10
-1.07208e+10
-1.06282e+10
-1.05319e+10
-1.04389e+10
-1.03467e+10
-1.0252e+10
-1.01495e+10
-1.00375e+10
-9.91826e+09
-9.79685e+09
-9.67884e+09
-9.56928e+09
-9.47097e+09
-9.3844e+09
-9.30858e+09
-9.2436e+09
-9.19169e+09
-9.15738e+09
-9.13743e+09
-9.12792e+09
-9.13171e+09
-9.15097e+09
-9.18326e+09
-9.22343e+09
-9.26252e+09
-9.28546e+09
-9.27157e+09
-9.19583e+09
-9.03143e+09
-8.75481e+09
-8.35148e+09
-7.82696e+09
-7.20778e+09
-6.56325e+09
-6.15393e+09
-6.76138e+09
-9.39469e+09
-1.228e+10
-6.23946e+09
-1.15282e+10
-1.18216e+10
-1.19857e+10
-1.2043e+10
-1.16113e+10
-1.10882e+10
-1.09192e+10
-1.10069e+10
-1.12577e+10
-1.14175e+10
-1.12385e+10
-1.10324e+10
-1.09366e+10
-1.08841e+10
-1.08242e+10
-1.0746e+10
-1.06563e+10
-1.05648e+10
-1.04776e+10
-1.03935e+10
-1.03059e+10
-1.02043e+10
-1.00846e+10
-9.95124e+09
-9.81382e+09
-9.68159e+09
-9.56032e+09
-9.45365e+09
-9.36228e+09
-9.28165e+09
-9.21553e+09
-9.17146e+09
-9.13881e+09
-9.11577e+09
-9.10547e+09
-9.11269e+09
-9.13698e+09
-9.17362e+09
-9.21758e+09
-9.25949e+09
-9.28466e+09
-9.27347e+09
-9.20143e+09
-9.04252e+09
-8.7754e+09
-8.39161e+09
-7.90469e+09
-7.35381e+09
-6.81983e+09
-6.56632e+09
-7.35014e+09
-9.98576e+09
-1.24701e+10
-6.53365e+09
-1.18521e+10
-1.20233e+10
-1.23352e+10
-1.20323e+10
-1.12559e+10
-1.08024e+10
-1.09632e+10
-1.11183e+10
-1.12421e+10
-1.1286e+10
-1.11627e+10
-1.10227e+10
-1.09392e+10
-1.0885e+10
-1.08223e+10
-1.07434e+10
-1.0655e+10
-1.05651e+10
-1.04788e+10
-1.0395e+10
-1.03076e+10
-1.02068e+10
-1.00877e+10
-9.95427e+09
-9.81573e+09
-9.6818e+09
-9.55946e+09
-9.45179e+09
-9.36183e+09
-9.28713e+09
-9.22248e+09
-9.17277e+09
-9.13826e+09
-9.11643e+09
-9.10811e+09
-9.11711e+09
-9.14224e+09
-9.17871e+09
-9.22172e+09
-9.26232e+09
-9.28521e+09
-9.27111e+09
-9.19543e+09
-9.03217e+09
-8.76032e+09
-8.37188e+09
-7.88065e+09
-7.32434e+09
-6.7819e+09
-6.51486e+09
-7.27324e+09
-9.96275e+09
-1.27345e+10
-7.11617e+09
-1.14097e+10
-1.14913e+10
-1.17263e+10
-1.18232e+10
-1.15677e+10
-1.09978e+10
-1.08039e+10
-1.09746e+10
-1.12166e+10
-1.1257e+10
-1.11233e+10
-1.10077e+10
-1.09404e+10
-1.08855e+10
-1.08223e+10
-1.07457e+10
-1.06616e+10
-1.05782e+10
-1.0502e+10
-1.04329e+10
-1.03613e+10
-1.02697e+10
-1.01455e+10
-9.9937e+09
-9.83349e+09
-9.68258e+09
-9.54902e+09
-9.43509e+09
-9.34291e+09
-9.26781e+09
-9.20489e+09
-9.16223e+09
-9.13626e+09
-9.12308e+09
-9.12686e+09
-9.14862e+09
-9.18735e+09
-9.24022e+09
-9.30153e+09
-9.36016e+09
-9.39939e+09
-9.39754e+09
-9.32841e+09
-9.16424e+09
-8.88214e+09
-8.47291e+09
-7.9495e+09
-7.35266e+09
-6.76784e+09
-6.45898e+09
-7.19019e+09
-9.97382e+09
-1.31848e+10
-8.19084e+09
-1.14588e+10
-1.15418e+10
-1.18914e+10
-1.19576e+10
-1.13869e+10
-1.08799e+10
-1.09168e+10
-1.10313e+10
-1.11055e+10
-1.11307e+10
-1.10747e+10
-1.10063e+10
-1.09459e+10
-1.08909e+10
-1.08257e+10
-1.0749e+10
-1.06655e+10
-1.05823e+10
-1.05056e+10
-1.04356e+10
-1.03635e+10
-1.02714e+10
-1.01461e+10
-9.99277e+09
-9.83046e+09
-9.67673e+09
-9.53942e+09
-9.42123e+09
-9.32788e+09
-9.25685e+09
-9.19431e+09
-9.14831e+09
-9.11826e+09
-9.10325e+09
-9.10719e+09
-9.1285e+09
-9.16584e+09
-9.21675e+09
-9.27526e+09
-9.33073e+09
-9.36656e+09
-9.36084e+09
-9.28729e+09
-9.11857e+09
-8.83185e+09
-8.41753e+09
-7.88732e+09
-7.27835e+09
-6.67076e+09
-6.31914e+09
-6.97508e+09
-9.73442e+09
-1.32408e+10
-8.53703e+09
-1.09788e+10
-1.09512e+10
-1.10322e+10
-1.12784e+10
-1.14638e+10
-1.11692e+10
-1.09707e+10
-1.10614e+10
-1.11327e+10
-1.10683e+10
-1.10155e+10
-1.0971e+10
-1.09261e+10
-1.0878e+10
-1.08204e+10
-1.0752e+10
-1.0678e+10
-1.0607e+10
-1.05473e+10
-1.05014e+10
-1.04581e+10
-1.0387e+10
-1.02536e+10
-1.00609e+10
-9.85274e+09
-9.6665e+09
-9.51168e+09
-9.38644e+09
-9.28814e+09
-9.21517e+09
-9.16391e+09
-9.13146e+09
-9.11586e+09
-9.11762e+09
-9.14e+09
-9.18318e+09
-9.24598e+09
-9.32605e+09
-9.41701e+09
-9.50625e+09
-9.57464e+09
-9.59719e+09
-9.54397e+09
-9.38342e+09
-9.08875e+09
-8.64656e+09
-8.06534e+09
-7.37962e+09
-6.67034e+09
-6.21099e+09
-6.80393e+09
-9.61734e+09
-1.32046e+10
-7.97376e+09
-1.08385e+10
-1.08542e+10
-1.11155e+10
-1.14828e+10
-1.14998e+10
-1.12847e+10
-1.10261e+10
-1.0983e+10
-1.10042e+10
-1.10156e+10
-1.1002e+10
-1.09687e+10
-1.09232e+10
-1.08738e+10
-1.08137e+10
-1.07442e+10
-1.06695e+10
-1.05976e+10
-1.05366e+10
-1.04898e+10
-1.04467e+10
-1.03774e+10
-1.02476e+10
-1.00594e+10
-9.85481e+09
-9.66915e+09
-9.51197e+09
-9.38322e+09
-9.2847e+09
-9.21296e+09
-9.15723e+09
-9.11906e+09
-9.0985e+09
-9.09565e+09
-9.11503e+09
-9.15567e+09
-9.2154e+09
-9.29197e+09
-9.37932e+09
-9.46551e+09
-9.53231e+09
-9.55543e+09
-9.5057e+09
-9.35233e+09
-9.06894e+09
-8.64193e+09
-8.0779e+09
-7.40752e+09
-6.70862e+09
-6.25793e+09
-6.87059e+09
-9.68674e+09
-1.312e+10
-7.91088e+09
-1.04755e+10
-1.04263e+10
-1.04155e+10
-1.09026e+10
-1.13094e+10
-1.12838e+10
-1.11323e+10
-1.1044e+10
-1.10002e+10
-1.09832e+10
-1.09704e+10
-1.09464e+10
-1.09135e+10
-1.08737e+10
-1.08243e+10
-1.07655e+10
-1.07021e+10
-1.06431e+10
-1.05994e+10
-1.05787e+10
-1.05746e+10
-1.05418e+10
-1.04005e+10
-1.01336e+10
-9.83262e+09
-9.58641e+09
-9.40118e+09
-9.26241e+09
-9.15956e+09
-9.08851e+09
-9.04283e+09
-9.01502e+09
-9.00324e+09
-9.01041e+09
-9.0402e+09
-9.09348e+09
-9.16947e+09
-9.26616e+09
-9.3772e+09
-9.48959e+09
-9.58344e+09
-9.63213e+09
-9.60378e+09
-9.46492e+09
-9.18714e+09
-8.75613e+09
-8.18047e+09
-7.49513e+09
-6.79205e+09
-6.40109e+09
-7.19204e+09
-1.0041e+10
-1.26294e+10
-6.52147e+09
-1.02671e+10
-1.034e+10
-1.06158e+10
-1.11096e+10
-1.14589e+10
-1.13181e+10
-1.10126e+10
-1.09694e+10
-1.09754e+10
-1.09724e+10
-1.09631e+10
-1.09422e+10
-1.09089e+10
-1.08676e+10
-1.08167e+10
-1.07577e+10
-1.06953e+10
-1.06374e+10
-1.05941e+10
-1.05734e+10
-1.05696e+10
-1.05378e+10
-1.03975e+10
-1.01323e+10
-9.83368e+09
-9.58917e+09
-9.40339e+09
-9.26439e+09
-9.16335e+09
-9.09262e+09
-9.04428e+09
-9.01296e+09
-8.99853e+09
-9.00324e+09
-9.03107e+09
-9.08253e+09
-9.15638e+09
-9.25055e+09
-9.35899e+09
-9.46906e+09
-9.56143e+09
-9.61017e+09
-9.58398e+09
-9.44977e+09
-9.17919e+09
-8.75779e+09
-8.19292e+09
-7.5168e+09
-6.81976e+09
-6.43925e+09
-7.28451e+09
-1.0192e+10
-1.25226e+10
-6.27004e+09
-1.02041e+10
-1.02298e+10
-1.03995e+10
-1.0845e+10
-1.1103e+10
-1.1157e+10
-1.11047e+10
-1.10361e+10
-1.0993e+10
-1.09711e+10
-1.09564e+10
-1.09407e+10
-1.09145e+10
-1.08763e+10
-1.08265e+10
-1.07665e+10
-1.07035e+10
-1.0647e+10
-1.06103e+10
-1.0611e+10
-1.06599e+10
-1.07134e+10
-1.0621e+10
-1.02731e+10
-9.83658e+09
-9.5234e+09
-9.31677e+09
-9.17491e+09
-9.08028e+09
-9.01881e+09
-8.98119e+09
-8.9594e+09
-8.95146e+09
-8.96025e+09
-8.98932e+09
-9.04079e+09
-9.11485e+09
-9.20944e+09
-9.31816e+09
-9.42813e+09
-9.51929e+09
-9.5647e+09
-9.53261e+09
-9.3909e+09
-9.11356e+09
-8.68982e+09
-8.13321e+09
-7.48596e+09
-6.85392e+09
-6.57945e+09
-7.49135e+09
-1.0276e+10
-1.24119e+10
-6.00629e+09
-1.00878e+10
-1.03134e+10
-1.06523e+10
-1.09965e+10
-1.11312e+10
-1.10488e+10
-1.10064e+10
-1.09985e+10
-1.09841e+10
-1.09692e+10
-1.09545e+10
-1.09382e+10
-1.09121e+10
-1.08736e+10
-1.08238e+10
-1.07654e+10
-1.07058e+10
-1.06536e+10
-1.06203e+10
-1.06216e+10
-1.0669e+10
-1.0722e+10
-1.06305e+10
-1.02763e+10
-9.83796e+09
-9.52538e+09
-9.31811e+09
-9.17706e+09
-9.08533e+09
-9.02514e+09
-8.98684e+09
-8.96459e+09
-8.95701e+09
-8.96667e+09
-8.99704e+09
-9.05013e+09
-9.12587e+09
-9.22195e+09
-9.33186e+09
-9.44258e+09
-9.53407e+09
-9.57957e+09
-9.54746e+09
-9.40482e+09
-9.12429e+09
-8.69426e+09
-8.12594e+09
-7.45684e+09
-6.78697e+09
-6.44931e+09
-7.25992e+09
-1.0001e+10
-1.24372e+10
-6.11023e+09
-1.02176e+10
-1.03039e+10
-1.06407e+10
-1.08629e+10
-1.08998e+10
-1.09117e+10
-1.09285e+10
-1.09298e+10
-1.09184e+10
-1.0905e+10
-1.08887e+10
-1.08689e+10
-1.08396e+10
-1.07972e+10
-1.07426e+10
-1.06798e+10
-1.06221e+10
-1.0584e+10
-1.05767e+10
-1.06199e+10
-1.07497e+10
-1.09665e+10
-1.10471e+10
-1.05841e+10
-9.85155e+09
-9.39039e+09
-9.15315e+09
-9.03744e+09
-8.98871e+09
-8.96501e+09
-8.95385e+09
-8.95097e+09
-8.95714e+09
-8.97558e+09
-9.01052e+09
-9.06535e+09
-9.141e+09
-9.23525e+09
-9.34123e+09
-9.44534e+09
-9.52658e+09
-9.55736e+09
-9.50644e+09
-9.34378e+09
-9.04675e+09
-8.60876e+09
-8.04736e+09
-7.40932e+09
-6.80515e+09
-6.57035e+09
-7.51459e+09
-1.03963e+10
-1.27966e+10
-6.50591e+09
-1.02164e+10
-1.04922e+10
-1.07573e+10
-1.08819e+10
-1.08473e+10
-1.08422e+10
-1.08805e+10
-1.0901e+10
-1.09045e+10
-1.0897e+10
-1.08828e+10
-1.08629e+10
-1.08331e+10
-1.07894e+10
-1.07333e+10
-1.067e+10
-1.06146e+10
-1.05823e+10
-1.05809e+10
-1.06264e+10
-1.07494e+10
-1.09576e+10
-1.10513e+10
-1.05844e+10
-9.84421e+09
-9.38463e+09
-9.14744e+09
-9.03048e+09
-8.98106e+09
-8.95607e+09
-8.94313e+09
-8.93967e+09
-8.94622e+09
-8.96561e+09
-9.00229e+09
-9.06e+09
-9.13934e+09
-9.23775e+09
-9.34818e+09
-9.4569e+09
-9.54275e+09
-9.57811e+09
-9.53155e+09
-9.37158e+09
-9.07354e+09
-8.62953e+09
-8.05509e+09
-7.39347e+09
-6.75339e+09
-6.48113e+09
-7.44489e+09
-1.04262e+10
-1.2835e+10
-6.915e+09
-1.03655e+10
-1.04409e+10
-1.07113e+10
-1.07592e+10
-1.07496e+10
-1.07547e+10
-1.07798e+10
-1.08004e+10
-1.08139e+10
-1.08212e+10
-1.0823e+10
-1.08202e+10
-1.08095e+10
-1.07872e+10
-1.07552e+10
-1.07214e+10
-1.07093e+10
-1.07421e+10
-1.08134e+10
-1.09245e+10
-1.11241e+10
-1.15123e+10
-1.19491e+10
-1.14456e+10
-1.02038e+10
-8.92007e+09
-8.73765e+09
-8.76388e+09
-8.81533e+09
-8.84809e+09
-8.868e+09
-8.88302e+09
-8.90123e+09
-8.92912e+09
-8.97281e+09
-9.03671e+09
-9.12232e+09
-9.22754e+09
-9.34499e+09
-9.46033e+09
-9.55191e+09
-9.59206e+09
-9.55027e+09
-9.39764e+09
-9.11293e+09
-8.6917e+09
-8.15394e+09
-7.5474e+09
-6.97919e+09
-6.77442e+09
-7.7175e+09
-1.04847e+10
-1.27666e+10
-6.34816e+09
-1.03964e+10
-1.05916e+10
-1.07308e+10
-1.0729e+10
-1.06998e+10
-1.07189e+10
-1.07523e+10
-1.0779e+10
-1.07964e+10
-1.08057e+10
-1.08083e+10
-1.0804e+10
-1.07896e+10
-1.07621e+10
-1.07238e+10
-1.06837e+10
-1.067e+10
-1.0715e+10
-1.08071e+10
-1.094e+10
-1.11322e+10
-1.14606e+10
-1.19899e+10
-1.15486e+10
-1.0281e+10
-8.91434e+09
-8.75276e+09
-8.77872e+09
-8.82786e+09
-8.85824e+09
-8.87663e+09
-8.89094e+09
-8.90861e+09
-8.93584e+09
-8.97942e+09
-9.04375e+09
-9.12964e+09
-9.2346e+09
-9.35103e+09
-9.4644e+09
-9.55288e+09
-9.58888e+09
-9.54179e+09
-9.38128e+09
-9.08417e+09
-8.64444e+09
-8.0799e+09
-7.43529e+09
-6.81472e+09
-6.54743e+09
-7.45905e+09
-1.03818e+10
-1.32656e+10
-8.16171e+09
-1.05569e+10
-1.06068e+10
-1.07047e+10
-1.06957e+10
-1.06913e+10
-1.07066e+10
-1.07301e+10
-1.07543e+10
-1.07769e+10
-1.07969e+10
-1.08132e+10
-1.08245e+10
-1.08274e+10
-1.0818e+10
-1.07966e+10
-1.07714e+10
-1.07688e+10
-1.08218e+10
-1.09183e+10
-1.10372e+10
-1.12402e+10
-1.16937e+10
-1.22546e+10
-1.23009e+10
-1.18377e+10
-7.60495e+09
-8.0885e+09
-8.45938e+09
-8.63969e+09
-8.72637e+09
-8.7704e+09
-8.79664e+09
-8.82115e+09
-8.85471e+09
-8.90518e+09
-8.9773e+09
-9.07277e+09
-9.18934e+09
-9.31889e+09
-9.4463e+09
-9.54955e+09
-9.60071e+09
-9.56835e+09
-9.4219e+09
-9.13897e+09
-8.71389e+09
-8.16367e+09
-7.52996e+09
-6.90364e+09
-6.57151e+09
-7.29387e+09
-9.96993e+09
-1.28613e+10
-7.34696e+09
-1.06014e+10
-1.06552e+10
-1.07047e+10
-1.06822e+10
-1.06763e+10
-1.06958e+10
-1.07193e+10
-1.07433e+10
-1.07651e+10
-1.07837e+10
-1.0798e+10
-1.08063e+10
-1.08052e+10
-1.07908e+10
-1.0763e+10
-1.0731e+10
-1.07284e+10
-1.07946e+10
-1.09052e+10
-1.10511e+10
-1.12588e+10
-1.16027e+10
-1.21304e+10
-1.25793e+10
-1.20899e+10
-7.56974e+09
-8.11233e+09
-8.48617e+09
-8.66787e+09
-8.75482e+09
-8.79869e+09
-8.82359e+09
-8.84581e+09
-8.87667e+09
-8.9239e+09
-8.99165e+09
-9.08142e+09
-9.19087e+09
-9.31185e+09
-9.42944e+09
-9.52205e+09
-9.56266e+09
-9.52096e+09
-9.36694e+09
-9.07833e+09
-8.6492e+09
-8.09738e+09
-7.46639e+09
-6.85601e+09
-6.60632e+09
-7.61465e+09
-1.07034e+10
-1.30859e+10
-6.53544e+09
-1.07089e+10
-1.07067e+10
-1.07024e+10
-1.06873e+10
-1.06829e+10
-1.06874e+10
-1.0698e+10
-1.07161e+10
-1.07374e+10
-1.07583e+10
-1.07766e+10
-1.07905e+10
-1.07963e+10
-1.07899e+10
-1.07711e+10
-1.07468e+10
-1.07425e+10
-1.08018e+10
-1.09074e+10
-1.10221e+10
-1.12397e+10
-1.17247e+10
-1.23776e+10
-1.19478e+10
-6.22965e+09
-8.04002e+09
-8.42752e+09
-8.62067e+09
-8.71714e+09
-8.76702e+09
-8.79728e+09
-8.82583e+09
-8.86459e+09
-8.9215e+09
-9.00118e+09
-9.10487e+09
-9.22944e+09
-9.36595e+09
-9.49893e+09
-9.60609e+09
-9.65866e+09
-9.62322e+09
-9.46721e+09
-9.1677e+09
-8.71798e+09
-8.13058e+09
-7.44132e+09
-6.72854e+09
-6.24194e+09
-6.71398e+09
-9.28807e+09
-1.28806e+10
-9.27839e+09
-1.07652e+10
-1.07061e+10
-1.07018e+10
-1.06804e+10
-1.06772e+10
-1.06841e+10
-1.06952e+10
-1.07121e+10
-1.07319e+10
-1.0753e+10
-1.07728e+10
-1.07884e+10
-1.07956e+10
-1.07898e+10
-1.07706e+10
-1.07461e+10
-1.07409e+10
-1.07902e+10
-1.08946e+10
-1.10239e+10
-1.12271e+10
-1.16775e+10
-1.23589e+10
-1.23085e+10
-6.45003e+09
-8.08128e+09
-8.45679e+09
-8.64374e+09
-8.73647e+09
-8.78218e+09
-8.80689e+09
-8.8284e+09
-8.85814e+09
-8.90392e+09
-8.9705e+09
-9.05918e+09
-9.16691e+09
-9.2852e+09
-9.39939e+09
-9.48844e+09
-9.52528e+09
-9.47876e+09
-9.31907e+09
-9.02591e+09
-8.59451e+09
-8.04168e+09
-7.40892e+09
-6.78813e+09
-6.4937e+09
-7.38435e+09
-1.03572e+10
-1.30668e+10
-6.80383e+09
-1.07447e+10
-1.07033e+10
-1.06962e+10
-1.06866e+10
-1.06816e+10
-1.06798e+10
-1.06835e+10
-1.06946e+10
-1.07125e+10
-1.07344e+10
-1.07565e+10
-1.07749e+10
-1.07846e+10
-1.07818e+10
-1.07672e+10
-1.07474e+10
-1.07383e+10
-1.07652e+10
-1.08339e+10
-1.09363e+10
-1.11218e+10
-1.15162e+10
-1.19485e+10
-1.19251e+10
-9.84573e+09
-8.69581e+09
-8.59635e+09
-8.67022e+09
-8.75002e+09
-8.79959e+09
-8.82719e+09
-8.84606e+09
-8.8687e+09
-8.90463e+09
-8.96047e+09
-9.04015e+09
-9.1443e+09
-9.26921e+09
-9.40593e+09
-9.53966e+09
-9.64885e+09
-9.70481e+09
-9.67411e+09
-9.52592e+09
-9.24111e+09
-8.81615e+09
-8.26476e+09
-7.62345e+09
-6.97183e+09
-6.57637e+09
-7.21581e+09
-9.89512e+09
-1.27257e+10
-6.54037e+09
-1.07555e+10
-1.06958e+10
-1.06825e+10
-1.06697e+10
-1.06638e+10
-1.06618e+10
-1.06655e+10
-1.06756e+10
-1.06911e+10
-1.07112e+10
-1.07329e+10
-1.07528e+10
-1.07665e+10
-1.07693e+10
-1.07598e+10
-1.07435e+10
-1.07347e+10
-1.07555e+10
-1.08115e+10
-1.08961e+10
-1.10705e+10
-1.14475e+10
-1.18309e+10
-1.1854e+10
-1.01961e+10
-8.73161e+09
-8.61324e+09
-8.68282e+09
-8.76039e+09
-8.80885e+09
-8.83529e+09
-8.85054e+09
-8.86722e+09
-8.89511e+09
-8.94087e+09
-9.00843e+09
-9.09839e+09
-9.20715e+09
-9.32624e+09
-9.44152e+09
-9.53239e+09
-9.57137e+09
-9.52693e+09
-9.37091e+09
-9.08652e+09
-8.6728e+09
-8.14879e+09
-7.55802e+09
-6.99226e+09
-6.75224e+09
-7.65458e+09
-1.05145e+10
-1.30673e+10
-7.05202e+09
-1.07183e+10
-1.06847e+10
-1.06771e+10
-1.06678e+10
-1.06598e+10
-1.06545e+10
-1.06537e+10
-1.0658e+10
-1.06687e+10
-1.06849e+10
-1.07034e+10
-1.072e+10
-1.07299e+10
-1.07291e+10
-1.07172e+10
-1.06979e+10
-1.06775e+10
-1.06642e+10
-1.06646e+10
-1.06934e+10
-1.07928e+10
-1.09778e+10
-1.10248e+10
-1.05278e+10
-9.76693e+09
-9.29409e+09
-9.07218e+09
-8.96987e+09
-8.9306e+09
-8.9104e+09
-8.89789e+09
-8.89234e+09
-8.89874e+09
-8.9228e+09
-8.96904e+09
-9.03985e+09
-9.13501e+09
-9.25058e+09
-9.37823e+09
-9.50429e+09
-9.6082e+09
-9.66222e+09
-9.63462e+09
-9.49775e+09
-9.23722e+09
-8.85525e+09
-8.3707e+09
-7.8244e+09
-7.30262e+09
-7.08125e+09
-7.89295e+09
-1.05036e+10
-1.28842e+10
-6.39877e+09
-1.07102e+10
-1.06801e+10
-1.06675e+10
-1.06562e+10
-1.06467e+10
-1.06405e+10
-1.064e+10
-1.06454e+10
-1.06568e+10
-1.06736e+10
-1.06934e+10
-1.07129e+10
-1.07278e+10
-1.07342e+10
-1.07295e+10
-1.07154e+10
-1.06983e+10
-1.06878e+10
-1.06914e+10
-1.07229e+10
-1.08246e+10
-1.10072e+10
-1.10419e+10
-1.0548e+10
-9.75856e+09
-9.27234e+09
-9.05222e+09
-8.95714e+09
-8.92425e+09
-8.9096e+09
-8.90192e+09
-8.89901e+09
-8.90621e+09
-8.92976e+09
-8.97428e+09
-9.04225e+09
-9.13338e+09
-9.24387e+09
-9.36558e+09
-9.48479e+09
-9.5808e+09
-9.62589e+09
-9.58872e+09
-9.44216e+09
-9.17196e+09
-8.78082e+09
-8.28962e+09
-7.74169e+09
-7.22377e+09
-7.00713e+09
-7.83261e+09
-1.05715e+10
-1.33376e+10
-7.50809e+09
-1.0694e+10
-1.06727e+10
-1.06619e+10
-1.06505e+10
-1.06416e+10
-1.06347e+10
-1.06318e+10
-1.06339e+10
-1.06419e+10
-1.06554e+10
-1.06724e+10
-1.06884e+10
-1.06995e+10
-1.07031e+10
-1.06983e+10
-1.06857e+10
-1.0667e+10
-1.06447e+10
-1.06244e+10
-1.06199e+10
-1.06477e+10
-1.06765e+10
-1.05731e+10
-1.02335e+10
-9.81377e+09
-9.50925e+09
-9.30963e+09
-9.17421e+09
-9.08508e+09
-9.02436e+09
-8.98291e+09
-8.95814e+09
-8.9518e+09
-8.96696e+09
-9.00628e+09
-9.0709e+09
-9.15979e+09
-9.26894e+09
-9.39041e+09
-9.51069e+09
-9.60929e+09
-9.65842e+09
-9.62607e+09
-9.48445e+09
-9.21982e+09
-8.83695e+09
-8.35822e+09
-7.82679e+09
-7.32946e+09
-7.13416e+09
-7.95574e+09
-1.0559e+10
-1.2922e+10
-6.64269e+09
-1.06944e+10
-1.06699e+10
-1.06582e+10
-1.06451e+10
-1.06344e+10
-1.06259e+10
-1.06221e+10
-1.06241e+10
-1.06322e+10
-1.06459e+10
-1.06636e+10
-1.06816e+10
-1.06965e+10
-1.07053e+10
-1.07057e+10
-1.0697e+10
-1.06814e+10
-1.06636e+10
-1.06498e+10
-1.0653e+10
-1.06876e+10
-1.07174e+10
-1.06043e+10
-1.02412e+10
-9.79238e+09
-9.47703e+09
-9.28146e+09
-9.15442e+09
-9.07222e+09
-9.01791e+09
-8.9829e+09
-8.96408e+09
-8.96356e+09
-8.98482e+09
-9.03069e+09
-9.10232e+09
-9.19866e+09
-9.31568e+09
-9.4452e+09
-9.57302e+09
-9.67749e+09
-9.72964e+09
-9.69653e+09
-9.5487e+09
-9.26989e+09
-8.86209e+09
-8.3451e+09
-7.75815e+09
-7.17745e+09
-6.83953e+09
-7.43644e+09
-1.00361e+10
-1.32733e+10
-8.00491e+09
-1.0673e+10
-1.06507e+10
-1.06408e+10
-1.06289e+10
-1.06185e+10
-1.06094e+10
-1.06038e+10
-1.06031e+10
-1.06081e+10
-1.0619e+10
-1.06342e+10
-1.06494e+10
-1.066e+10
-1.06648e+10
-1.06634e+10
-1.0654e+10
-1.06365e+10
-1.06121e+10
-1.05852e+10
-1.05639e+10
-1.05481e+10
-1.05042e+10
-1.03676e+10
-1.01206e+10
-9.84025e+09
-9.60262e+09
-9.4177e+09
-9.27539e+09
-9.16733e+09
-9.08653e+09
-9.02769e+09
-8.98987e+09
-8.97475e+09
-8.98442e+09
-9.02054e+09
-9.08358e+09
-9.17227e+09
-9.28273e+09
-9.40728e+09
-9.5324e+09
-9.63693e+09
-9.69201e+09
-9.66418e+09
-9.52358e+09
-9.255e+09
-8.86382e+09
-8.37251e+09
-7.82097e+09
-7.29023e+09
-7.0417e+09
-7.79252e+09
-1.04118e+10
-1.31486e+10
-7.48293e+09
-1.06734e+10
-1.06501e+10
-1.06403e+10
-1.06273e+10
-1.06153e+10
-1.06045e+10
-1.05978e+10
-1.05968e+10
-1.06016e+10
-1.06123e+10
-1.06273e+10
-1.06429e+10
-1.06554e+10
-1.06625e+10
-1.06627e+10
-1.0654e+10
-1.06369e+10
-1.06143e+10
-1.05913e+10
-1.05744e+10
-1.05611e+10
-1.05153e+10
-1.03695e+10
-1.01071e+10
-9.81076e+09
-9.5668e+09
-9.38443e+09
-9.24773e+09
-9.14438e+09
-9.06882e+09
-9.01641e+09
-8.98608e+09
-8.97991e+09
-9.00014e+09
-9.04863e+09
-9.12587e+09
-9.23061e+09
-9.35895e+09
-9.50263e+09
-9.64691e+09
-9.7691e+09
-9.8386e+09
-9.82004e+09
-9.68067e+09
-9.40058e+09
-8.97935e+09
-8.43351e+09
-7.79353e+09
-7.12199e+09
-6.64048e+09
-7.02342e+09
-9.51419e+09
-1.32142e+10
-8.70949e+09
-1.06478e+10
-1.06295e+10
-1.06222e+10
-1.06119e+10
-1.06028e+10
-1.05944e+10
-1.0589e+10
-1.0588e+10
-1.05925e+10
-1.06028e+10
-1.06174e+10
-1.06322e+10
-1.06425e+10
-1.06466e+10
-1.06444e+10
-1.06349e+10
-1.06165e+10
-1.05889e+10
-1.0555e+10
-1.05173e+10
-1.04687e+10
-1.03857e+10
-1.02408e+10
-1.00383e+10
-9.8182e+09
-9.61687e+09
-9.44564e+09
-9.30377e+09
-9.18835e+09
-9.09722e+09
-9.02806e+09
-8.98101e+09
-8.95841e+09
-8.96258e+09
-8.99511e+09
-9.05652e+09
-9.14571e+09
-9.25907e+09
-9.38913e+09
-9.52248e+09
-9.63724e+09
-9.703e+09
-9.68497e+09
-9.55248e+09
-9.29039e+09
-8.90453e+09
-8.41731e+09
-7.86465e+09
-7.32275e+09
-7.07345e+09
-7.86504e+09
-1.04726e+10
-1.28323e+10
-6.56418e+09
-1.06515e+10
-1.0631e+10
-1.06243e+10
-1.06132e+10
-1.06026e+10
-1.05924e+10
-1.05854e+10
-1.05832e+10
-1.05868e+10
-1.05959e+10
-1.06095e+10
-1.0624e+10
-1.06351e+10
-1.06403e+10
-1.06383e+10
-1.06279e+10
-1.06084e+10
-1.05807e+10
-1.05476e+10
-1.05113e+10
-1.04636e+10
-1.03781e+10
-1.02263e+10
-1.00136e+10
-9.78483e+09
-9.58076e+09
-9.41275e+09
-9.27609e+09
-9.16498e+09
-9.07829e+09
-9.01427e+09
-8.9731e+09
-8.95768e+09
-8.97047e+09
-9.0132e+09
-9.08664e+09
-9.18975e+09
-9.31886e+09
-9.46583e+09
-9.61616e+09
-9.74703e+09
-9.82689e+09
-9.8188e+09
-9.68894e+09
-9.41757e+09
-9.00554e+09
-8.46873e+09
-7.83639e+09