/*--------------------------------*- C++ -*----------------------------------*\
| =========                 |                                                 |
| \\      /  F ield         | OpenFOAM: The Open Source CFD Toolbox           |
|  \\    /   O peration     | Version:  4.1                                   |
|   \\  /    A nd           | Web:      www.OpenFOAM.org                      |
|    \\/     M anipulation  |                                                 |
\*---------------------------------------------------------------------------*/
FoamFile
{
    version     2.0;
    format      ascii;
    class       surfaceScalarField;
    location    "26";
    object      phi;
}
// * * * * * * * * * * * * * * * * * * * * * * * * * * * * * * * * * * * * * //

dimensions      [0 3 -1 0 0 0 0];

internalField   nonuniform List<scalar> 
11516
(
-3.19314e+10
-3.45779e+09
-9.77331e+09
-2.63795e+10
-2.37517e+09
-2.71808e+09
-2.53059e+10
-6.9257e+08
1.63526e+08
-2.08065e+10
-1.40401e+09
-2.49958e+09
-1.96612e+10
-1.62599e+07
-4.97896e+08
-1.91041e+10
-2.80869e+08
2.93057e+08
-1.79119e+10
-4.72079e+08
-2.35203e+08
-1.79335e+10
-1.13187e+08
5.22442e+08
-1.8115e+10
-1.0739e+07
4.80022e+08
-1.84586e+10
2.28628e+07
5.24154e+08
-1.88173e+10
2.57859e+07
4.75272e+08
-1.90806e+10
-6.1844e+06
3.73829e+08
-1.9226e+10
-4.0292e+07
2.74441e+08
-1.926e+10
-6.9809e+07
1.88835e+08
-1.92153e+10
-8.37106e+07
1.19018e+08
-1.9129e+10
-8.72583e+07
7.58488e+07
-1.90187e+10
-8.7568e+07
4.54622e+07
-1.88885e+10
-8.60455e+07
2.98324e+07
-1.87193e+10
-8.71655e+07
-7.56755e+06
-1.85221e+10
-8.42104e+07
-4.24246e+07
-1.83016e+10
-8.45356e+07
-8.53073e+07
-1.80576e+10
-8.28546e+07
-1.20373e+08
-1.77881e+10
-7.97164e+07
-1.54013e+08
-1.7493e+10
-7.4358e+07
-1.8144e+08
-1.71761e+10
-6.75695e+07
-2.05817e+08
-1.68482e+10
-5.94714e+07
-2.22576e+08
-1.65189e+10
-5.01362e+07
-2.33426e+08
-1.62003e+10
-3.90493e+07
-2.3447e+08
-1.59013e+10
-2.6001e+07
-2.27777e+08
-1.5631e+10
-1.06214e+07
-2.11979e+08
-1.53973e+10
6.98141e+06
-1.87941e+08
-1.5208e+10
2.64866e+07
-1.54867e+08
-1.50721e+10
4.72778e+07
-1.09851e+08
-1.49867e+10
6.859e+07
-6.56739e+07
-1.4941e+10
8.85956e+07
-2.84146e+07
-1.49302e+10
1.06103e+08
9.74807e+06
-1.4947e+10
1.2191e+08
4.42527e+07
-1.49861e+10
1.37037e+08
7.62027e+07
-1.50393e+10
1.51938e+08
1.0138e+08
-1.50985e+10
1.66706e+08
1.18423e+08
-1.51569e+10
1.81021e+08
1.27366e+08
-1.52078e+10
1.94636e+08
1.28538e+08
-1.52413e+10
2.07872e+08
1.19565e+08
-1.52412e+10
2.21932e+08
9.67947e+07
-1.51883e+10
2.38321e+08
5.53515e+07
-1.50614e+10
2.57689e+08
-1.4151e+07
-1.48297e+10
2.78835e+08
-1.38778e+08
-1.44354e+10
3.02302e+08
-3.48337e+08
-1.38886e+10
3.38255e+08
-6.08785e+08
-1.34892e+10
4.8646e+08
-6.13682e+08
-1.38097e+10
9.17388e+08
-3.35796e+08
-1.46784e+10
1.71769e+09
-4.7454e+08
-9.86614e+09
4.31207e+09
-8.85563e+09
8.03904e+08
-9.0134e+09
-3.91173e+10
-8.48868e+09
-3.68986e+10
-4.36358e+09
-3.45871e+10
-2.76652e+09
-3.38505e+10
-1.92002e+09
-3.17882e+10
-1.87166e+09
-3.10351e+10
-8.55744e+08
-3.07112e+10
-6.51423e+08
-3.04903e+10
-2.18146e+08
-3.02714e+10
-1.38637e+08
-3.01367e+10
-4.09834e+07
-3.00166e+10
-3.86753e+07
-2.98798e+10
-9.62083e+07
-2.9705e+10
-1.71858e+08
-2.94989e+10
-2.35173e+08
-2.927e+10
-2.74051e+08
-2.90283e+10
-2.96099e+08
-2.87786e+10
-3.05075e+08
-2.852e+10
-3.12213e+08
-2.82426e+10
-3.31071e+08
-2.79513e+10
-3.48157e+08
-2.76455e+10
-3.68904e+08
-2.73288e+10
-3.8384e+08
-2.69964e+10
-3.97525e+08
-2.66503e+10
-4.05138e+08
-2.62912e+10
-4.09826e+08
-2.59265e+10
-4.06959e+08
-2.55602e+10
-3.99379e+08
-2.51997e+10
-3.83205e+08
-2.48478e+10
-3.61553e+08
-2.4508e+10
-3.33443e+08
-2.4182e+10
-2.99817e+08
-2.38701e+10
-2.62547e+08
-2.35751e+10
-2.19597e+08
-2.32958e+10
-1.75649e+08
-2.30315e+10
-1.32176e+08
-2.27816e+10
-9.02765e+07
-2.25418e+10
-5.26401e+07
-2.23098e+10
-1.69472e+07
-2.20795e+10
1.37743e+07
-2.1847e+10
4.02941e+07
-2.16104e+10
6.4073e+07
-2.13663e+10
8.26714e+07
-2.11082e+10
9.47963e+07
-2.08247e+10
9.74369e+07
-2.04998e+10
8.70851e+07
-2.01141e+10
5.37882e+07
-1.96345e+10
-2.34239e+07
-1.90224e+10
-1.59903e+08
-1.82946e+10
-2.71763e+08
-1.76771e+10
-3.38942e+07
-1.72205e+10
5.83432e+08
-1.63562e+10
9.86904e+08
-4.97904e+09
-6.94983e+09
-9.11046e+09
-3.85504e+10
-9.20491e+08
-7.75887e+09
-3.83152e+10
-9.29329e+08
-1.82304e+09
-3.68216e+10
-7.64022e+08
-4.41417e+08
-3.64091e+10
-5.81678e+08
-2.2349e+09
-3.55035e+10
-3.56521e+08
-9.65614e+08
-3.48493e+10
-2.35787e+08
-6.30512e+07
-3.45907e+10
-1.78151e+08
-2.64894e+08
-3.39902e+10
4.0278e+07
-6.65277e+07
-3.35093e+10
7.8267e+07
-2.28548e+07
-3.31529e+10
1.44911e+08
8.26969e+07
-3.28311e+10
1.42516e+08
7.08997e+07
-3.2544e+10
1.28165e+08
1.55864e+07
-3.22742e+10
1.13386e+08
-5.05991e+07
-3.20183e+10
1.04155e+08
-1.17409e+08
-3.17738e+10
1.00952e+08
-1.72881e+08
-3.15455e+10
9.82121e+07
-2.0837e+08
-3.132e+10
1.01105e+08
-2.39624e+08
-3.10921e+10
1.04023e+08
-2.63572e+08
-3.08715e+10
1.03609e+08
-2.87909e+08
-3.06719e+10
1.04999e+08
-3.11256e+08
-3.0495e+10
1.04122e+08
-3.38957e+08
-3.03383e+10
1.02128e+08
-3.61996e+08
-3.02002e+10
1.00342e+08
-3.79652e+08
-3.00789e+10
9.90395e+07
-3.88907e+08
-2.9981e+10
9.80834e+07
-3.8715e+08
-2.99107e+10
9.72361e+07
-3.7497e+08
-2.98772e+10
9.6592e+07
-3.49072e+08
-2.98856e+10
9.62033e+07
-3.10291e+08
-2.9942e+10
9.64099e+07
-2.5759e+08
-3.00484e+10
9.71646e+07
-1.93716e+08
-3.0206e+10
9.85526e+07
-1.19049e+08
-3.0413e+10
9.99319e+07
-3.52265e+07
-3.06676e+10
1.01403e+08
6.03528e+07
-3.09665e+10
1.0579e+08
1.51201e+08
-3.13027e+10
1.14386e+08
2.25884e+08
-3.16881e+10
1.23615e+08
3.1432e+08
-3.21275e+10
1.345e+08
4.04657e+08
-3.26208e+10
1.48059e+08
4.91061e+08
-3.31774e+10
1.64321e+08
5.79193e+08
-3.38146e+10
1.83955e+08
6.72232e+08
-3.4546e+10
2.06307e+08
7.67736e+08
-3.53845e+10
2.31026e+08
8.62607e+08
-3.63414e+10
2.59131e+08
9.53429e+08
-3.74309e+10
2.91907e+08
1.03702e+09
-3.86614e+10
3.29534e+08
1.10301e+09
-4.00434e+10
3.73929e+08
1.13397e+09
-4.16229e+10
4.32966e+08
1.12126e+09
-4.34829e+10
5.15832e+08
1.05235e+09
-4.56154e+10
6.42098e+08
8.74936e+08
-4.76215e+10
9.41621e+08
3.72977e+08
-4.89521e+10
1.73541e+09
-7.47773e+08
-5.01949e+10
3.84808e+09
-2.94988e+09
-6.3875e+10
6.97234e+09
-1.95054e+09
5.62273e+09
7.99349e+08
-3.70371e+10
-8.12612e+09
-3.78632e+10
-4.33671e+09
-3.83498e+10
-2.95906e+09
-3.85593e+10
-2.23395e+09
-3.82705e+10
-2.47889e+09
-3.79439e+10
-1.39252e+09
-3.77755e+10
-9.73806e+08
-3.72079e+10
-7.17231e+08
-3.67648e+10
-4.69913e+08
-3.6381e+10
-2.43188e+08
-3.60705e+10
-1.69409e+08
-3.58335e+10
-1.68193e+08
-3.56637e+10
-1.92721e+08
-3.55388e+10
-2.2055e+08
-3.54345e+10
-2.46195e+08
-3.53427e+10
-2.61801e+08
-3.52449e+10
-2.7656e+08
-3.5136e+10
-2.90898e+08
-3.50368e+10
-3.01495e+08
-3.49446e+10
-3.13922e+08
-3.48657e+10
-3.28524e+08
-3.47979e+10
-3.40049e+08
-3.47412e+10
-3.46876e+08
-3.46936e+10
-3.46981e+08
-3.46611e+10
-3.36581e+08
-3.4646e+10
-3.16979e+08
-3.4657e+10
-2.84854e+08
-3.46972e+10
-2.41255e+08
-3.47731e+10
-1.8499e+08
-3.48867e+10
-1.19124e+08
-3.50406e+10
-4.35484e+07
-3.52364e+10
3.85276e+07
-3.54747e+10
1.28231e+08
-3.57585e+10
2.25759e+08
-3.60887e+10
3.29046e+08
-3.64688e+10
4.36237e+08
-3.69027e+10
5.45728e+08
-3.73933e+10
6.6018e+08
-3.79451e+10
7.77095e+08
-3.85669e+10
9.02036e+08
-3.92676e+10
1.03471e+09
-4.00593e+10
1.17563e+09
-4.09514e+10
1.32108e+09
-4.19522e+10
1.46923e+09
-4.30691e+10
1.61345e+09
-4.43082e+10
1.74022e+09
-4.56802e+10
1.83412e+09
-4.71809e+10
1.87514e+09
-4.86766e+10
1.84215e+09
-4.93189e+10
1.50169e+09
-4.76256e+10
6.15495e+08
-4.15235e+10
-1.20183e+09
-4.15145e+10
4.2779e+07
3.27323e+09
-3.18181e+10
6.06062e+08
-6.22522e+09
-3.13011e+10
1.01186e+09
-3.25571e+09
-2.95902e+10
2.085e+08
-2.33482e+09
-3.11099e+10
6.97706e+08
-1.43667e+09
-3.0276e+10
1.54739e+08
-2.00048e+09
-2.97251e+10
4.18509e+08
-1.08421e+09
-2.97864e+10
3.71448e+08
-6.10446e+08
-2.95648e+10
3.03188e+08
-6.03612e+08
-2.9123e+10
2.11721e+08
-6.65513e+08
-2.86227e+10
2.24137e+08
-6.13434e+08
-2.8122e+10
2.0747e+08
-5.98296e+08
-2.77347e+10
2.14866e+08
-5.41095e+08
-2.74478e+10
2.20109e+08
-5.07777e+08
-2.72407e+10
2.28965e+08
-5.00364e+08
-2.70914e+10
2.4721e+08
-5.15008e+08
-2.69798e+10
2.47496e+08
-5.2065e+08
-2.68874e+10
2.48237e+08
-5.34244e+08
-2.67827e+10
2.40129e+08
-5.66751e+08
-2.6663e+10
2.34141e+08
-5.96116e+08
-2.65378e+10
2.29033e+08
-6.29254e+08
-2.64127e+10
2.24503e+08
-6.59565e+08
-2.62883e+10
2.1767e+08
-6.9074e+08
-2.61578e+10
2.10974e+08
-7.13166e+08
-2.60185e+10
2.03129e+08
-7.26464e+08
-2.58677e+10
1.95012e+08
-7.26443e+08
-2.571e+10
1.85796e+08
-7.12397e+08
-2.55487e+10
1.75624e+08
-6.82576e+08
-2.5387e+10
1.64631e+08
-6.37883e+08
-2.52261e+10
1.53447e+08
-5.78263e+08
-2.50682e+10
1.4241e+08
-5.0497e+08
-2.49112e+10
1.32712e+08
-4.22534e+08
-2.47529e+10
1.257e+08
-3.34747e+08
-2.45861e+10
1.20127e+08
-2.41442e+08
-2.4419e+10
1.12673e+08
-1.41097e+08
-2.42647e+10
1.04938e+08
-4.12097e+07
-2.41117e+10
1.02611e+08
5.86124e+07
-2.39558e+10
1.07755e+08
1.51588e+08
-2.37976e+10
1.15817e+08
2.4093e+08
-2.36362e+10
1.27623e+08
3.29627e+08
-2.34626e+10
1.42913e+08
4.11275e+08
-2.32733e+10
1.61889e+08
4.87674e+08
-2.30687e+10
1.84223e+08
5.57456e+08
-2.28529e+10
2.09889e+08
6.20025e+08
-2.26224e+10
2.3826e+08
6.62605e+08
-2.23787e+10
2.69298e+08
6.74425e+08
-2.21445e+10
3.03839e+08
6.47705e+08
-2.19495e+10
3.43126e+08
5.66287e+08
-2.17851e+10
3.83497e+08
3.82295e+08
-2.16559e+10
4.58798e+08
1.9855e+07
-2.15559e+10
6.2993e+08
-7.10296e+08
-2.17188e+10
1.27313e+09
-2.25804e+09
-2.30191e+10
2.43278e+09
-4.41623e+09
-2.21787e+10
5.28441e+09
-8.31912e+09
2.6561e+09
-3.70569e+09
-3.00318e+10
-5.88201e+09
-2.9635e+10
-3.66595e+09
-2.95435e+10
-2.82819e+09
-2.92526e+10
-1.84423e+09
-2.96616e+10
-1.94704e+09
-2.95158e+10
-1.14967e+09
-2.96494e+10
-4.87327e+08
-2.96108e+10
-4.56486e+08
-2.95235e+10
-3.36054e+08
-2.93338e+10
-1.88961e+08
-2.91863e+10
-8.3115e+07
-2.91078e+10
-1.27006e+06
-2.909e+10
4.35077e+07
-2.91114e+10
6.57752e+07
-2.91523e+10
7.62278e+07
-2.92309e+10
9.65372e+07
-2.93224e+10
9.18267e+07
-2.941e+10
6.58251e+07
-2.94976e+10
4.61152e+07
-2.9581e+10
2.07104e+07
-2.96652e+10
-6.42969e+06
-2.97458e+10
-3.49752e+07
-2.98218e+10
-5.81195e+07
-2.98912e+10
-7.38358e+07
-2.9954e+10
-7.87721e+07
-3.00153e+10
-7.11512e+07
-3.00789e+10
-4.95697e+07
-3.01481e+10
-1.49952e+07
-3.02238e+10
3.26654e+07
-3.03071e+10
9.17251e+07
-3.0393e+10
1.57409e+08
-3.04775e+10
2.29513e+08
-3.05561e+10
3.06886e+08
-3.06255e+10
3.88343e+08
-3.06814e+10
4.72367e+08
-3.07168e+10
5.60434e+08
-3.07216e+10
6.50045e+08
-3.06881e+10
7.40993e+08
-3.06113e+10
8.3409e+08
-3.048e+10
9.27725e+08
-3.02843e+10
1.02184e+09
-3.0012e+10
1.11392e+09
-2.96561e+10
1.20404e+09
-2.92056e+10
1.28468e+09
-2.86517e+10
1.34716e+09
-2.79928e+10
1.38045e+09
-2.72293e+10
1.36784e+09
-2.63688e+10
1.29171e+09
-2.53397e+10
1.09844e+09
-2.4143e+10
7.15502e+08
-2.25612e+10
7.58068e+07
-2.10069e+10
-5.40986e+08
-1.17023e+10
-4.12789e+09
-2.62287e+09
-2.79913e+10
-4.90593e+08
-4.2785e+09
-2.83098e+10
2.79314e+08
-3.2046e+09
-2.75199e+10
2.83127e+08
-3.4523e+09
-2.73231e+10
1.23469e+08
-1.83578e+09
-2.76211e+10
2.00559e+08
-1.99135e+09
-2.74385e+10
3.35159e+08
-1.67624e+09
-2.72262e+10
3.63025e+08
-1.23849e+09
-2.70768e+10
2.16685e+08
-9.98432e+08
-2.70015e+10
8.22569e+07
-8.31195e+08
-2.69377e+10
4.15692e+07
-7.08764e+08
-2.68645e+10
7.83096e+06
-6.55565e+08
-2.68111e+10
8.39079e+06
-5.69301e+08
-2.67626e+10
1.21796e+07
-5.28212e+08
-2.67168e+10
1.92467e+07
-5.15421e+08
-2.66918e+10
2.38617e+07
-5.14142e+08
-2.66871e+10
2.55534e+07
-4.99059e+08
-2.6699e+10
2.58651e+07
-5.05609e+08
-2.67089e+10
2.34144e+07
-5.35931e+08
-2.67204e+10
2.17551e+07
-5.68882e+08
-2.67265e+10
2.20655e+07
-6.09466e+08
-2.67353e+10
2.0806e+07
-6.5071e+08
-2.67462e+10
1.98496e+07
-6.90567e+08
-2.67603e+10
1.8694e+07
-7.20186e+08
-2.67772e+10
1.78836e+07
-7.35432e+08
-2.6799e+10
1.70663e+07
-7.32608e+08
-2.68316e+10
1.61748e+07
-7.10524e+08
-2.68794e+10
1.45188e+07
-6.7006e+08
-2.69453e+10
1.13567e+07
-6.12521e+08
-2.70289e+10
6.24185e+06
-5.40084e+08
-2.71251e+10
-60354.4
-4.57673e+08
-2.72337e+10
-5.03926e+06
-3.6701e+08
-2.73577e+10
-6.18636e+06
-2.70384e+08
-2.74887e+10
-9.65455e+06
-1.73149e+08
-2.76068e+10
-1.75998e+07
-8.17062e+07
-2.77138e+10
-2.06914e+07
9.32174e+06
-2.77951e+10
-3.33173e+07
9.89134e+07
-2.78615e+10
-3.911e+07
1.89145e+08
-2.79152e+10
-3.81496e+07
2.7469e+08
-2.79516e+10
-3.62147e+07
3.56372e+08
-2.79756e+10
-2.92328e+07
4.32464e+08
-2.7994e+10
-1.78774e+07
5.04795e+08
-2.80182e+10
-1.85841e+06
5.74799e+08
-2.80675e+10
1.97882e+07
6.4467e+08
-2.81735e+10
4.61351e+07
7.10261e+08
-2.83764e+10
7.55778e+07
7.60243e+08
-2.87294e+10
1.06596e+08
7.87594e+08
-2.9295e+10
1.40613e+08
7.72703e+08
-3.01447e+10
1.84831e+08
6.63643e+08
-3.12945e+10
2.38181e+08
3.68967e+08
-3.28262e+10
3.99928e+08
-3.05878e+08
-3.54536e+10
1.19977e+09
-1.64039e+09
-3.94628e+10
2.56644e+09
-3.77402e+09
-4.73459e+10
6.32462e+09
-7.44118e+09
3.94053e+09
-5.72665e+09
-2.99665e+10
-4.20181e+09
-3.0729e+10
-2.62491e+09
-3.12058e+10
-2.09984e+09
-3.1127e+10
-1.84775e+09
-3.1373e+10
-1.54742e+09
-3.12167e+10
-1.00753e+09
-3.08636e+10
-5.00218e+08
-3.07889e+10
-3.23843e+08
-3.08828e+10
-1.5715e+08
-3.09557e+10
-6.25728e+07
-3.10424e+10
2.94136e+07
-3.11322e+10
1.18736e+08
-3.12217e+10
1.70928e+08
-3.13006e+10
1.92148e+08
-3.13737e+10
2.03229e+08
-3.14597e+10
2.36327e+08
-3.1551e+10
2.35956e+08
-3.16433e+10
2.06494e+08
-3.17266e+10
1.74865e+08
-3.17998e+10
1.34897e+08
-3.18661e+10
9.29618e+07
-3.19273e+10
5.034e+07
-3.19823e+10
1.37352e+07
-3.20322e+10
-1.12548e+07
-3.20794e+10
-2.2166e+07
-3.21279e+10
-1.67154e+07
-3.21808e+10
3.56587e+06
-3.22402e+10
3.62565e+07
-3.23065e+10
7.97259e+07
-3.23776e+10
1.31358e+08
-3.24528e+10
1.90812e+08
-3.2526e+10
2.5498e+08
-3.25963e+10
3.22438e+08
-3.26666e+10
3.93767e+08
-3.27318e+10
4.69647e+08
-3.27988e+10
5.48787e+08
-3.28589e+10
6.29678e+08
-3.29048e+10
7.13142e+08
-3.29352e+10
7.99661e+08
-3.2944e+10
8.86036e+08
-3.29262e+10
9.71636e+08
-3.28781e+10
1.05394e+09
-3.27937e+10
1.13011e+09
-3.26763e+10
1.19694e+09
-3.25345e+10
1.24382e+09
-3.23874e+10
1.26194e+09
-3.2256e+10
1.23293e+09
-3.21278e+10
1.11724e+09
-3.19429e+10
8.31877e+08
-3.14318e+10
2.08436e+08
-2.95451e+10
-1.05999e+09
-2.51968e+10
-2.75809e+09
-1.87571e+10
-4.53338e+09
-1.11359e+09
-2.982e+10
-1.63269e+08
-3.04711e+09
-3.00938e+10
-4.61825e+08
-2.51982e+09
-3.05543e+10
-5.90941e+08
-2.46165e+09
-2.98928e+10
-2.64504e+08
-2.29786e+09
-2.98745e+10
-7.41177e+07
-1.98538e+09
-2.97973e+10
4.86783e+07
-1.83206e+09
-2.96131e+10
3.44125e+07
-1.46829e+09
-2.93951e+10
-3.03391e+07
-1.18414e+09
-2.91904e+10
-6.31382e+07
-9.6103e+08
-2.89774e+10
-6.68063e+07
-8.37457e+08
-2.88014e+10
-7.29792e+07
-7.38267e+08
-2.86519e+10
-6.6341e+07
-6.30431e+08
-2.85291e+10
-4.79845e+07
-5.77587e+08
-2.84056e+10
-3.85501e+07
-5.69255e+08
-2.82895e+10
-3.07942e+07
-5.62779e+08
-2.81683e+10
-3.02197e+07
-5.48702e+08
-2.80441e+10
-3.10848e+07
-5.59351e+08
-2.79141e+10
-3.30255e+07
-5.91831e+08
-2.77756e+10
-3.48117e+07
-6.35392e+08
-2.76231e+10
-3.48754e+07
-6.89877e+08
-2.7459e+10
-3.56347e+07
-7.53377e+08
-2.72799e+10
-3.43443e+07
-8.17342e+08
-2.70899e+10
-3.24211e+07
-8.73667e+08
-2.68894e+10
-2.63455e+07
-9.10253e+08
-2.66882e+10
-1.73196e+07
-9.22455e+08
-2.64957e+10
-4.94877e+06
-9.06818e+08
-2.63245e+10
9.51321e+06
-8.65296e+08
-2.61825e+10
2.5892e+07
-8.0292e+08
-2.60747e+10
4.38526e+07
-7.24315e+08
-2.60046e+10
6.32247e+07
-6.34083e+08
-2.59768e+10
8.50402e+07
-5.33307e+08
-2.59919e+10
1.09667e+08
-4.27564e+08
-2.6042e+10
1.32757e+08
-3.26254e+08
-2.61256e+10
1.47968e+08
-2.21658e+08
-2.62448e+10
1.5658e+08
-1.06022e+08
-2.63804e+10
1.6327e+08
-5.37276e+06
-2.65275e+10
1.71234e+08
9.30671e+07
-2.66876e+10
1.77963e+08
1.93072e+08
-2.68579e+10
1.82022e+08
2.91611e+08
-2.7037e+10
1.86274e+08
3.84854e+08
-2.72244e+10
1.9106e+08
4.72541e+08
-2.74266e+10
1.98225e+08
5.59418e+08
-2.76551e+10
2.09455e+08
6.45972e+08
-2.79299e+10
2.23859e+08
7.3082e+08
-2.82896e+10
2.39469e+08
8.10843e+08
-2.87954e+10
2.57157e+08
8.88202e+08
-2.95338e+10
2.78493e+08
9.57226e+08
-3.06322e+10
3.11827e+08
1.00314e+09
-3.2256e+10
3.52949e+08
9.83845e+08
-3.46861e+10
5.01027e+08
7.45761e+08
-3.84066e+10
1.13715e+09
-1.09829e+08
-4.40238e+10
2.69217e+09
-2.06579e+09
-5.31603e+10
7.34759e+09
-6.7132e+09
1.24022e+09
-1.59477e+09
-2.85953e+10
-2.96567e+09
-2.91214e+10
-2.62125e+09
-2.94868e+10
-2.38139e+09
-2.93713e+10
-2.27058e+09
-2.94435e+10
-1.57673e+09
-2.93342e+10
-1.07985e+09
-2.90438e+10
-7.55908e+08
-2.88777e+10
-5.11528e+08
-2.88307e+10
-2.5419e+08
-2.88236e+10
-1.21897e+08
-2.88265e+10
-2.58178e+07
-2.88149e+10
5.60957e+07
-2.87861e+10
1.11751e+08
-2.8749e+10
1.37909e+08
-2.87149e+10
1.63996e+08
-2.8675e+10
1.93508e+08
-2.86305e+10
1.89263e+08
-2.85912e+10
1.61848e+08
-2.85489e+10
1.2595e+08
-2.85032e+10
7.8096e+07
-2.84511e+10
2.43553e+07
-2.83927e+10
-3.17526e+07
-2.83269e+10
-7.91985e+07
-2.82546e+10
-1.09703e+08
-2.81801e+10
-1.16401e+08
-2.81098e+10
-9.76274e+07
-2.80511e+10
-5.54276e+07
-2.80096e+10
5.00781e+06
-2.79874e+10
7.89346e+07
-2.79823e+10
1.59926e+08
-2.79882e+10
2.45522e+08
-2.79976e+10
3.32002e+08
-2.80054e+10
4.16298e+08
-2.80114e+10
4.97973e+08
-2.80112e+10
5.75192e+08
-2.79983e+10
6.49265e+08
-2.79657e+10
7.21147e+08
-2.79043e+10
7.87202e+08
-2.78098e+10
8.50503e+08
-2.76746e+10
9.06504e+08
-2.749e+10
9.52916e+08
-2.72499e+10
9.89696e+08
-2.69505e+10
1.01525e+09
-2.65962e+10
1.02867e+09
-2.6205e+10
1.02407e+09
-2.5811e+10
1.00298e+09
-2.54597e+10
9.57752e+08
-2.52123e+10
8.77986e+08
-2.51719e+10
7.21949e+08
-2.53617e+10
3.51732e+08
-2.54218e+10
-5.08271e+08
-2.46901e+10
-1.51708e+09
-1.74057e+10
-4.93167e+09
-2.39028e+09
-3.07004e+10
2.01462e+08
-2.75931e+09
-3.08317e+10
4.78759e+07
-2.54569e+09
-3.10675e+10
-7.65344e+07
-2.22161e+09
-3.10915e+10
-2.08651e+07
-2.28471e+09
-3.10435e+10
-8.23288e+07
-1.95467e+09
-3.09881e+10
-1.07441e+08
-1.76258e+09
-3.084e+10
-1.33735e+08
-1.45439e+09
-3.0677e+10
-1.6379e+08
-1.15156e+09
-3.05348e+10
-1.88107e+08
-8.86067e+08
-3.04054e+10
-2.21157e+08
-7.21679e+08
-3.02876e+10
-2.32142e+08
-6.04526e+08
-3.01356e+10
-2.35815e+08
-5.30179e+08
-3.00046e+10
-2.23733e+08
-4.67864e+08
-2.98958e+10
-2.2036e+08
-4.36605e+08
-2.97955e+10
-2.21604e+08
-4.10158e+08
-2.9687e+10
-2.26552e+08
-3.94724e+08
-2.95717e+10
-2.29139e+08
-4.02205e+08
-2.94559e+10
-2.32721e+08
-4.33284e+08
-2.93311e+10
-2.34302e+08
-4.80286e+08
-2.91972e+10
-2.36807e+08
-5.46362e+08
-2.90446e+10
-2.38553e+08
-6.28097e+08
-2.88717e+10
-2.4206e+08
-7.1962e+08
-2.86734e+10
-2.45269e+08
-8.05231e+08
-2.84541e+10
-2.48498e+08
-8.67848e+08
-2.82216e+10
-2.50734e+08
-8.9614e+08
-2.79858e+10
-2.52227e+08
-8.86648e+08
-2.77585e+10
-2.52674e+08
-8.41626e+08
-2.75509e+10
-2.52634e+08
-7.67162e+08
-2.7371e+10
-2.51999e+08
-6.70868e+08
-2.7226e+10
-2.4935e+08
-5.58798e+08
-2.71167e+10
-2.43716e+08
-4.37753e+08
-2.70401e+10
-2.36396e+08
-3.15706e+08
-2.69978e+10
-2.29162e+08
-1.94866e+08
-2.69923e+10
-2.21729e+08
-6.6524e+07
-2.70225e+10
-2.14611e+08
7.42499e+07
-2.7096e+10
-2.09678e+08
2.12065e+08
-2.721e+10
-2.04478e+08
3.47478e+08
-2.7364e+10
-1.99069e+08
4.86022e+08
-2.7559e+10
-1.93597e+08
6.26403e+08
-2.78024e+10
-1.85019e+08
7.66146e+08
-2.81065e+10
-1.72276e+08
9.08299e+08
-2.84845e+10
-1.55393e+08
1.05448e+09
-2.89512e+10
-1.34788e+08
1.2036e+09
-2.95309e+10
-1.11311e+08
1.35502e+09
-3.02688e+10
-8.50765e+07
1.5155e+09
-3.12339e+10
-5.40866e+07
1.69738e+09
-3.25376e+10
-1.29654e+07
1.92556e+09
-3.43631e+10
4.50377e+07
2.24312e+09
-3.69849e+10
1.22926e+08
2.69468e+09
-4.08661e+10
3.15301e+08
3.24074e+09
-4.73709e+10
8.67252e+08
4.17725e+09
-5.95972e+10
2.33539e+09
6.2872e+09
-8.82372e+10
7.41373e+09
1.31877e+10
5.77839e+09
2.50955e+09
-2.85985e+10
-2.66079e+09
-2.86481e+10
-2.59594e+09
-2.88019e+10
-2.3482e+09
-2.88572e+10
-2.25448e+09
-2.89271e+10
-1.58633e+09
-2.8859e+10
-1.23902e+09
-2.87354e+10
-9.89899e+08
-2.86484e+10
-7.3791e+08
-2.8571e+10
-4.97796e+08
-2.85551e+10
-3.4069e+08
-2.85713e+10
-2.27039e+08
-2.85918e+10
-1.4652e+08
-2.86093e+10
-8.16018e+07
-2.86324e+10
-4.26798e+07
-2.86586e+10
-1.01837e+07
-2.86744e+10
9.40984e+06
-2.86846e+10
-716902
-2.86897e+10
-3.45231e+07
-2.86823e+10
-8.51334e+07
-2.86568e+10
-1.54548e+08
-2.86061e+10
-2.39481e+08
-2.85254e+10
-3.33884e+08
-2.84139e+10
-4.21338e+08
-2.82762e+10
-4.86295e+08
-2.81209e+10
-5.16485e+08
-2.79587e+10
-5.09856e+08
-2.78005e+10
-4.6838e+08
-2.76564e+10
-3.99397e+08
-2.75314e+10
-3.12299e+08
-2.74279e+10
-2.13938e+08
-2.73446e+10
-1.08854e+08
-2.72802e+10
-1.82748e+06
-2.72336e+10
1.03228e+08
-2.72029e+10
2.05203e+08
-2.71875e+10
3.03246e+08
-2.71829e+10
3.93064e+08
-2.71857e+10
4.79128e+08
-2.71961e+10
5.61151e+08
-2.7211e+10
6.38167e+08
-2.72294e+10
7.10209e+08
-2.7251e+10
7.75228e+08
-2.7277e+10
8.33114e+08
-2.73139e+10
8.83421e+08
-2.73769e+10
9.27568e+08
-2.7501e+10
9.72568e+08
-2.77339e+10
1.02997e+09
-2.81353e+10
1.10946e+09
-2.88084e+10
1.25062e+09
-2.99029e+10
1.46468e+09
-3.15248e+10
1.68126e+09
-3.4255e+10
2.37082e+09
-3.80489e+10
3.91273e+09
-4.48564e+10
8.85743e+09
3.7723e+09
-2.85373e+10
2.13891e+08
-2.99528e+09
-2.87926e+10
1.79839e+08
-2.56425e+09
-2.89231e+10
9.84417e+07
-2.23236e+09
-2.92333e+10
6.76567e+07
-2.04214e+09
-2.93511e+10
-7.68128e+07
-1.72742e+09
-2.94397e+10
-1.37016e+08
-1.48858e+09
-2.94344e+10
-1.51176e+08
-1.25588e+09
-2.9388e+10
-1.19291e+08
-1.0298e+09
-2.93132e+10
-1.11806e+08
-8.07679e+08
-2.92741e+10
-1.27159e+08
-6.01041e+08
-2.92608e+10
-1.5817e+08
-4.35194e+08
-2.92435e+10
-1.72453e+08
-3.57159e+08
-2.92288e+10
-1.68356e+08
-2.99393e+08
-2.92264e+10
-1.65895e+08
-2.55517e+08
-2.92254e+10
-1.66441e+08
-2.19148e+08
-2.92186e+10
-1.66583e+08
-1.99704e+08
-2.92069e+10
-1.64421e+08
-2.03952e+08
-2.91976e+10
-1.61873e+08
-2.32326e+08
-2.91862e+10
-1.58612e+08
-2.80378e+08
-2.91713e+10
-1.57662e+08
-3.53731e+08
-2.91397e+10
-1.57811e+08
-4.50481e+08
-2.90861e+10
-1.62e+08
-5.68145e+08
-2.90005e+10
-1.67757e+08
-6.82598e+08
-2.88918e+10
-1.77394e+08
-7.69723e+08
-2.8767e+10
-1.87719e+08
-8.07732e+08
-2.86409e+10
-1.99519e+08
-7.9403e+08
-2.85217e+10
-2.11205e+08
-7.34922e+08
-2.84153e+10
-2.21965e+08
-6.43072e+08
-2.8324e+10
-2.30635e+08
-5.30299e+08
-2.82446e+10
-2.37244e+08
-4.07188e+08
-2.81754e+10
-2.42301e+08
-2.77674e+08
-2.81118e+10
-2.46795e+08
-1.50779e+08
-2.80505e+10
-2.51066e+08
-2.70495e+07
-2.7985e+10
-2.52548e+08
9.68729e+07
-2.79057e+10
-2.50183e+08
2.21407e+08
-2.7814e+10
-2.46385e+08
3.45022e+08
-2.77091e+10
-2.41373e+08
4.66065e+08
-2.75906e+10
-2.34695e+08
5.8997e+08
-2.74605e+10
-2.26199e+08
7.17145e+08
-2.73179e+10
-2.15139e+08
8.40495e+08
-2.71659e+10
-2.0076e+08
9.64699e+08
-2.70068e+10
-1.83093e+08
1.08805e+09
-2.68432e+10
-1.63345e+08
1.20716e+09
-2.66805e+10
-1.43043e+08
1.3188e+09
-2.65283e+10
-1.22323e+08
1.42747e+09
-2.64006e+10
-9.7044e+07
1.54368e+09
-2.63238e+10
-5.41834e+07
1.69464e+09
-2.63318e+10
1.14486e+07
1.9335e+09
-2.64295e+10
8.05215e+07
2.30598e+09
-2.66481e+10
1.32304e+08
2.84484e+09
-2.75848e+10
4.69453e+08
4.12482e+09
-3.03825e+10
1.71086e+09
6.85758e+09
-3.75417e+10
5.10604e+09
1.50601e+10
1.16765e+09
4.46279e+09
-2.88223e+10
-2.97112e+09
-2.87755e+10
-2.52924e+09
-2.88467e+10
-2.20946e+09
-2.90156e+10
-2.01578e+09
-2.91807e+10
-1.47385e+09
-2.93085e+10
-1.21312e+09
-2.93651e+10
-1.04745e+09
-2.93434e+10
-8.45413e+08
-2.9283e+10
-6.42502e+08
-2.9261e+10
-4.68637e+08
-2.92979e+10
-3.32645e+08
-2.9355e+10
-2.50261e+08
-2.94039e+10
-1.90341e+08
-2.9453e+10
-1.45999e+08
-2.94992e+10
-1.1108e+08
-2.95355e+10
-9.42393e+07
-2.95639e+10
-1.04797e+08
-2.95854e+10
-1.38502e+08
-2.95981e+10
-1.94193e+08
-2.95995e+10
-2.72787e+08
-2.95843e+10
-3.77121e+08
-2.9545e+10
-5.01659e+08
-2.94774e+10
-6.28139e+08
-2.93878e+10
-7.27434e+08
-2.92885e+10
-7.81675e+08
-2.91935e+10
-7.85416e+08
-2.91117e+10
-7.45836e+08
-2.9047e+10
-6.74406e+08
-2.8999e+10
-5.83727e+08
-2.89615e+10
-4.85876e+08
-2.89306e+10
-3.82878e+08
-2.88998e+10
-2.82727e+08
-2.88645e+10
-1.8759e+08
-2.88196e+10
-9.66634e+07
-2.87604e+10
-9.1953e+06
-2.8687e+10
7.27236e+07
-2.85971e+10
1.51204e+08
-2.84901e+10
2.2756e+08
-2.83644e+10
2.99712e+08
-2.82159e+10
3.65106e+08
-2.80452e+10
4.25961e+08
-2.78532e+10
4.80638e+08
-2.76451e+10
5.2867e+08
-2.74317e+10
5.70993e+08
-2.72287e+10
6.16287e+08
-2.70439e+10
6.7326e+08
-2.68642e+10
7.49675e+08
-2.66486e+10
8.70591e+08
-2.63852e+10
1.06845e+09
-2.62148e+10
1.41606e+09
-2.56447e+10
2.07331e+09
-2.34809e+10
3.32268e+09
-1.80676e+10
8.55874e+09
3.60419e+09
-2.70765e+10
3.06272e+08
-3.71654e+09
-2.7131e+10
3.1221e+08
-2.90543e+09
-2.7145e+10
3.02631e+08
-2.54888e+09
-2.72734e+10
2.61938e+08
-2.1527e+09
-2.72637e+10
1.4905e+08
-1.83283e+09
-2.72543e+10
9.53945e+07
-1.52795e+09
-2.72785e+10
1.18198e+08
-1.28551e+09
-2.73248e+10
1.83637e+08
-1.11107e+09
-2.73576e+10
2.0945e+08
-9.38898e+08
-2.73839e+10
2.08272e+08
-7.4778e+08
-2.73706e+10
1.93303e+08
-6.15128e+08
-2.73704e+10
1.92588e+08
-5.29851e+08
-2.73917e+10
1.99305e+08
-4.60308e+08
-2.74264e+10
2.02354e+08
-4.03489e+08
-2.74633e+10
2.04527e+08
-3.5941e+08
-2.74935e+10
2.07273e+08
-3.34094e+08
-2.75212e+10
2.09455e+08
-3.33196e+08
-2.75432e+10
2.11447e+08
-3.57014e+08
-2.75634e+10
2.11201e+08
-4.06599e+08
-2.75747e+10
2.11375e+08
-4.83889e+08
-2.75717e+10
2.09951e+08
-5.97572e+08
-2.75326e+10
2.08778e+08
-7.46367e+08
-2.74531e+10
2.05528e+08
-9.0364e+08
-2.73419e+10
2.02884e+08
-1.02027e+09
-2.72286e+10
1.99034e+08
-1.06219e+09
-2.71359e+10
1.9475e+08
-1.0275e+09
-2.70759e+10
1.89585e+08
-9.34602e+08
-2.70501e+10
1.84108e+08
-8.07127e+08
-2.70546e+10
1.79368e+08
-6.63989e+08
-2.70794e+10
1.75648e+08
-5.206e+08
-2.71111e+10
1.73489e+08
-3.84788e+08
-2.7141e+10
1.72891e+08
-2.59477e+08
-2.71632e+10
1.72793e+08
-1.41908e+08
-2.71731e+10
1.75506e+08
-2.9461e+07
-2.71648e+10
1.81694e+08
7.61636e+07
-2.71355e+10
1.90729e+08
1.76999e+08
-2.70839e+10
2.02313e+08
2.72977e+08
-2.70099e+10
2.16732e+08
3.70712e+08
-2.69121e+10
2.34178e+08
4.67808e+08
-2.67929e+10
2.54534e+08
5.60515e+08
-2.66524e+10
2.7683e+08
6.50182e+08
-2.64942e+10
2.99868e+08
7.37652e+08
-2.63278e+10
3.21406e+08
8.23281e+08
-2.61684e+10
3.38837e+08
9.06721e+08
-2.60366e+10
3.51072e+08
9.96292e+08
-2.59551e+10
3.6335e+08
1.10376e+09
-2.59452e+10
3.86375e+08
1.25965e+09
-2.59781e+10
4.21164e+08
1.48799e+09
-2.59101e+10
4.49057e+08
1.75461e+09
-2.55672e+10
4.65176e+08
2.06526e+09
-2.43757e+10
4.52005e+08
2.63336e+09
-2.20649e+10
8.27909e+08
4.02177e+09
-1.94183e+10
2.6655e+09
9.95921e+09
1.3655e+09
4.37525e+09
-2.76219e+10
-3.20886e+09
-2.76026e+10
-2.27945e+09
-2.76239e+10
-1.89343e+09
-2.77085e+10
-1.64981e+09
-2.7663e+10
-1.335e+09
-2.7649e+10
-1.09123e+09
-2.77239e+10
-8.15653e+08
-2.7761e+10
-5.90788e+08
-2.77655e+10
-4.00518e+08
-2.77556e+10
-2.47889e+08
-2.77397e+10
-1.38173e+08
-2.77289e+10
-5.51352e+07
-2.77212e+10
1.32795e+07
-2.77184e+10
6.77207e+07
-2.77137e+10
1.09229e+08
-2.77019e+10
1.2951e+08
-2.76844e+10
1.244e+08
-2.76618e+10
9.24722e+07
-2.76325e+10
3.2865e+07
-2.75913e+10
-5.7653e+07
-2.75257e+10
-1.8729e+08
-2.74167e+10
-3.57834e+08
-2.72531e+10
-5.4266e+08
-2.70446e+10
-6.90989e+08
-2.68199e+10
-7.68e+08
-2.66052e+10
-7.68763e+08
-2.64182e+10
-7.09746e+08
-2.62653e+10
-6.13126e+08
-2.61442e+10
-4.98747e+08
-2.60484e+10
-3.81964e+08
-2.59667e+10
-2.6864e+08
-2.58903e+10
-1.63975e+08
-2.58141e+10
-6.74425e+07
-2.57328e+10
2.35816e+07
-2.56392e+10
1.08739e+08
-2.55286e+10
1.87748e+08
-2.53957e+10
2.61738e+08
-2.52371e+10
3.33874e+08
-2.50489e+10
4.01401e+08
-2.48318e+10
4.65296e+08
-2.45858e+10
5.25166e+08
-2.43159e+10
5.80768e+08
-2.40334e+10
6.32646e+08
-2.37563e+10
6.82121e+08
-2.35051e+10
7.3834e+08
-2.32849e+10
8.05572e+08
-2.30864e+10
8.99652e+08
-2.28827e+10
1.04436e+09
-2.26576e+10
1.27219e+09
-2.23443e+10
1.61255e+09
-2.17698e+10
2.06949e+09
-1.97364e+10
2.27748e+09
-1.09903e+10
2.63073e+09
2.99943e+09
-2.75906e+10
6.17377e+07
-3.98276e+09
-2.75796e+10
8.37998e+07
-3.02555e+09
-2.76037e+10
1.10265e+08
-2.63052e+09
-2.75982e+10
1.083e+08
-2.23977e+09
-2.75742e+10
1.01015e+08
-1.91835e+09
-2.75114e+10
9.25391e+07
-1.63785e+09
-2.74617e+10
1.00903e+08
-1.38998e+09
-2.74295e+10
1.1751e+08
-1.21661e+09
-2.73941e+10
1.17066e+08
-1.05072e+09
-2.73312e+10
1.06085e+08
-8.81557e+08
-2.72531e+10
1.0361e+08
-7.68186e+08
-2.71884e+10
1.09486e+08
-6.81571e+08
-2.71394e+10
1.15306e+08
-6.06388e+08
-2.70997e+10
1.1656e+08
-5.41667e+08
-2.70613e+10
1.16834e+08
-4.90208e+08
-2.70197e+10
1.16805e+08
-4.56352e+08
-2.6973e+10
1.16664e+08
-4.46946e+08
-2.69193e+10
1.15791e+08
-4.65545e+08
-2.68581e+10
1.13062e+08
-5.17842e+08
-2.67809e+10
1.10817e+08
-6.07668e+08
-2.66742e+10
1.09067e+08
-7.53195e+08
-2.65e+10
1.09959e+08
-9.6701e+08
-2.62288e+10
1.10838e+08
-1.22235e+09
-2.58718e+10
1.14611e+08
-1.42417e+09
-2.54918e+10
1.18971e+08
-1.49882e+09
-2.51474e+10
1.2532e+08
-1.43922e+09
-2.48735e+10
1.32473e+08
-1.289e+09
-2.46795e+10
1.40502e+08
-1.09549e+09
-2.4559e+10
1.49555e+08
-8.93583e+08
-2.4499e+10
1.58299e+08
-7.03123e+08
-2.44849e+10
1.66182e+08
-5.32538e+08
-2.45053e+10
1.71995e+08
-3.79565e+08
-2.4547e+10
1.76797e+08
-2.44283e+08
-2.4598e+10
1.81354e+08
-1.23719e+08
-2.4652e+10
1.86008e+08
-1.41328e+07
-2.47032e+10
1.91433e+08
8.62387e+07
-2.47491e+10
1.97084e+08
1.81341e+08
-2.47835e+10
2.03698e+08
2.73411e+08
-2.48062e+10
2.12258e+08
3.64181e+08
-2.48184e+10
2.22624e+08
4.50407e+08
-2.48227e+10
2.34758e+08
5.33312e+08
-2.48244e+10
2.48793e+08
6.13275e+08
-2.48327e+10
2.6397e+08
6.90358e+08
-2.48608e+10
2.78737e+08
7.64469e+08
-2.49207e+10
2.92503e+08
8.42118e+08
-2.50091e+10
3.07315e+08
9.2662e+08
-2.50827e+10
3.2499e+08
1.02552e+09
-2.50525e+10
3.54363e+08
1.12619e+09
-2.48426e+10
4.05974e+08
1.21251e+09
-2.43424e+10
4.69813e+08
1.27961e+09
-2.3115e+10
4.967e+08
1.22328e+09
-1.99438e+10
9.11431e+07
1.12461e+09
-1.075e+10
5.43552e+08
6.20281e+08
-1.02554e+09
4.46783e+08
-2.62938e+10
-3.26325e+09
-2.63713e+10
-2.13177e+09
-2.64234e+10
-1.72969e+09
-2.65417e+10
-1.41147e+09
-2.65768e+10
-1.1805e+09
-2.66202e+10
-9.32639e+08