/*--------------------------------*- C++ -*----------------------------------*\
| =========                 |                                                 |
| \\      /  F ield         | OpenFOAM: The Open Source CFD Toolbox           |
|  \\    /   O peration     | Version:  4.1                                   |
|   \\  /    A nd           | Web:      www.OpenFOAM.org                      |
|    \\/     M anipulation  |                                                 |
\*---------------------------------------------------------------------------*/
FoamFile
{
    version     2.0;
    format      ascii;
    class       volVectorField;
    location    "26";
    object      U;
}
// * * * * * * * * * * * * * * * * * * * * * * * * * * * * * * * * * * * * * //

dimensions      [0 1 -1 0 0 0 0];

internalField   nonuniform List<vector> 
4432
(
(-167421 -6504.28 -18742.8)
(-130332 16758.6 47389.4)
(-86555.1 26511.5 61919.7)
(-63566.1 120.235 19708.7)
(-94505.2 6224.93 19745.7)
(-86524.9 6728.51 24910.3)
(-70928.1 2666.73 11054.6)
(-70498 2170.68 8021.78)
(-72484 726.798 4457.32)
(-73455.5 -542.892 2440.62)
(-74513.9 -1338.42 1387.61)
(-75560.8 -1704.19 755.358)
(-76390.3 -1869.41 504.54)
(-77012.7 -2081.51 527.874)
(-77409.4 -2274.88 651.651)
(-77059.7 -2372.1 527.986)
(-76302.9 -2393.1 162.451)
(-75709.6 -2411.56 -87.23)
(-75179.8 -2482.86 -334.318)
(-74484 -2536.57 -502.22)
(-73646.8 -2591.22 -697.341)
(-72713.3 -2636.63 -875.363)
(-71680.7 -2675.45 -1056.02)
(-70544.7 -2704.79 -1230.49)
(-69316.3 -2724.27 -1398.47)
(-68022.8 -2732.14 -1552.91)
(-66706.3 -2726.07 -1688.8)
(-65407.5 -2702.61 -1802.02)
(-64168.7 -2658.96 -1891.68)
(-63021.7 -2592.52 -1958.76)
(-62000.2 -2502.92 -2007.78)
(-61142.3 -2391.89 -2041.69)
(-60484 -2265.44 -2070.99)
(-60043.8 -2135.12 -2099.28)
(-59791.4 -2014.29 -2090.9)
(-59684.1 -1906.12 -2040.35)
(-59706 -1810.89 -1974.55)
(-59830.2 -1729.28 -1909.68)
(-60036.4 -1658.53 -1855.76)
(-60294.9 -1597.56 -1810.1)
(-60588.3 -1544.98 -1751.94)
(-60881.6 -1499.12 -1653.73)
(-61115.4 -1452.83 -1501.8)
(-61235.2 -1390.34 -1277.96)
(-61207.3 -1284.67 -969.328)
(-60943.4 -1107.83 -635.091)
(-60249.6 -834.002 -308.818)
(-58601.3 -451.197 37.7551)
(-55058.8 91.8531 292.75)
(-49700.9 1170.64 792.706)
(-52019.6 2687.93 990.924)
(-67297.8 3958.32 2686.49)
(-78299.6 9117.67 -8719.49)
(9146.39 1958.45 -8783.53)
(-172224 -6919.88 -20535.1)
(-154770 6396.77 4516.5)
(-141094 13832.9 10773.8)
(-127049 1612.83 9184.69)
(-130751 5609.71 5570.02)
(-131093 6061.64 7580.07)
(-122823 3972.56 2903.54)
(-121848 3478.98 1477.01)
(-121669 2751.02 158.4)
(-121123 2085.91 -301.788)
(-120161 1664.89 -624.944)
(-119493 1476.17 -907.561)
(-118954 1410.86 -1029.22)
(-118434 1317.54 -958.208)
(-117820 1227.78 -873.32)
(-116798 1192.33 -1012.7)
(-115577 1204.2 -1249.67)
(-114527 1219.04 -1368.22)
(-113500 1199.45 -1496.14)
(-112370 1186.73 -1576.64)
(-111172 1171.64 -1670.3)
(-109927 1162.36 -1750.45)
(-108623 1158.7 -1827.49)
(-107263 1162.11 -1897.35)
(-105850 1172.29 -1959.43)
(-104401 1190.23 -2011.42)
(-102939 1216.73 -2052.08)
(-101488 1253.3 -2081.7)
(-100064 1300.56 -2102)
(-98681.5 1359.03 -2116.81)
(-97347 1427.77 -2130.84)
(-96068.9 1505 -2148.16)
(-94853.6 1587.58 -2172.51)
(-93705.6 1670.02 -2205.72)
(-92620 1745.19 -2241.64)
(-91592.4 1811.02 -2273.74)
(-90617.4 1871.88 -2297.93)
(-89682.7 1929.58 -2317.07)
(-88771.5 1980.77 -2337.97)
(-87867.4 2023.68 -2354.56)
(-86968.9 2056.7 -2344.86)
(-86063.4 2081.2 -2305.97)
(-85115 2100.41 -2225.84)
(-84081.8 2124.02 -2094.69)
(-82936.2 2171.75 -1904.27)
(-81606.6 2265.66 -1680.4)
(-79901.7 2427.62 -1471.63)
(-77359.3 2673.74 -1310.63)
(-73286.2 2967.87 -1103.95)
(-67419.1 3510.1 -216.099)
(-68042.7 4423.34 538.42)
(-75675.4 4732.12 2579.88)
(-76862.7 12557.3 465.394)
(36818.2 105.554 -12725.3)
(-153786 -3816.35 -42772.2)
(-153428 -4742.55 -3855.47)
(-152474 -4418.65 12774.6)
(-142752 -2834.86 -6370.48)
(-140062 -751.527 4648.02)
(-144596 -2084.83 8895.2)
(-140716 -1961.17 7457.56)
(-136249 -1193.07 6855.58)
(-135143 -1537.42 4295.5)
(-133358 -1450.88 3009.4)
(-131774 -1569.99 1974.51)
(-130503 -1571.43 1276.92)
(-129366 -1522.67 941.965)
(-128396 -1488.86 879.696)
(-127692 -1508.4 888.831)
(-126899 -1556.43 844.236)
(-125786 -1522.13 700.229)
(-124735 -1449.52 592.488)
(-123845 -1426.45 457.896)
(-123018 -1408.29 367.741)
(-122278 -1401.41 270.644)
(-121608 -1399.42 205.129)
(-121014 -1398.06 166.801)
(-120488 -1396.8 167.549)
(-120046 -1396.22 209.807)
(-119705 -1396.34 301.766)
(-119498 -1396.65 447.949)
(-119448 -1396.75 649.273)
(-119580 -1395.73 902.243)
(-119906 -1393.6 1198.18)
(-120432 -1389.62 1523.82)
(-121165 -1383.19 1872.1)
(-122105 -1370.22 2241.01)
(-123217 -1349.62 2610.32)
(-124470 -1335.62 2975.04)
(-125910 -1334.9 3340.48)
(-127563 -1336.69 3687.07)
(-129436 -1340.1 4033.98)
(-131533 -1349.14 4394.36)
(-133915 -1360.99 4792.62)
(-136671 -1374.05 5249.85)
(-139850 -1386.36 5773.84)
(-143479 -1388.99 6361.31)
(-147590 -1371.2 7007.22)
(-152277 -1318.92 7686.5)
(-157619 -1188.46 8334.1)
(-163470 -938.558 8839.73)
(-169671 -564.842 9087.17)
(-175741 -10.8277 8966.68)
(-182073 978.445 8464.79)
(-192662 2765.12 6879.38)
(-222252 6213.32 -967.219)
(-232428 12662.4 -27480.9)
(-266196 13473.3 -25201.7)
(-145630 -1687.35 -44183.9)
(-152397 -3882.22 -22337.9)
(-150772 -2770.52 -10501.6)
(-151187 2343.64 -4859.65)
(-151997 1510.43 -5289.86)
(-155939 1784.93 288.207)
(-152820 1677.67 854.797)
(-149382 2338.56 883.502)
(-148120 2294.55 -53.1394)
(-146335 2359.01 -356.537)
(-144658 2256.96 -660.675)
(-143472 2190.1 -948.123)
(-142665 2155.68 -1100.33)
(-142207 2109.61 -1047.85)
(-142096 2016.83 -925.369)
(-141827 1901.96 -941.574)
(-141183 1865.89 -1017.49)
(-140666 1868 -1063)
(-140290 1830.39 -1118.08)
(-139904 1795.25 -1143.85)
(-139569 1757.43 -1172.32)
(-139271 1722.73 -1177.89)
(-139017 1692.52 -1161.74)
(-138803 1667.87 -1116.72)
(-138640 1649.43 -1037.63)
(-138542 1637.65 -918.665)
(-138534 1633.6 -755.174)
(-138638 1638.33 -545.769)
(-138874 1653.34 -291.784)
(-139253 1679.79 1.59589)
(-139788 1719.16 328.458)
(-140486 1772.35 687.919)
(-141357 1843.83 1082.14)
(-142403 1935.59 1506.09)
(-143630 2037.83 1956.79)
(-145047 2145.22 2425.22)
(-146672 2267.52 2901.2)
(-148527 2406.41 3384.8)
(-150621 2560.51 3884.91)
(-152968 2732.95 4426.83)
(-155630 2925.45 5035.98)
(-158647 3142.22 5728.79)
(-162050 3392.1 6512.22)
(-165863 3685.27 7384.32)
(-170143 4033.49 8328.51)
(-174932 4468.7 9292.08)
(-180131 5018.55 10171.6)
(-185415 5667.25 10844.9)
(-189719 6438.31 11362.2)
(-192533 7687.96 11523.3)
(-194502 9672.77 11018.6)
(-208340 14046.6 5811.55)
(-170470 14167.9 -22602.2)
(-150547 11211.2 -15632.4)
(-127981 2431.67 -34352)
(-119676 -265.283 -30986.5)
(-122232 -4987.1 -25367.3)
(-124292 2918.28 -13372)
(-118746 -970.469 -13418)
(-120842 -2269.5 -8724.56)
(-120681 -2408.27 -4427.63)
(-119625 -1747.1 -2780.15)
(-117901 -1597.92 -2339.75)
(-115580 -1192.08 -1802.26)
(-113155 -990.095 -1820.62)
(-111342 -771.152 -2063.63)
(-109845 -691.778 -2303.96)
(-109008 -703.539 -2541.57)
(-108747 -715.57 -2770.34)
(-108411 -801.883 -2839.76)
(-107808 -803.776 -2821.3)
(-107294 -799.24 -2875.5)
(-106845 -807.603 -2971.49)
(-106351 -825.131 -3105)
(-105861 -846.203 -3244.41)
(-105363 -873.852 -3376.92)
(-104854 -902.827 -3483.17)
(-104311 -936.745 -3555.28)
(-103730 -973.229 -3583.12)
(-103114 -1014.05 -3560.34)
(-102478 -1058.23 -3480.13)
(-101837 -1104.98 -3340.41)
(-101200 -1152.99 -3140.41)
(-100572 -1201.07 -2882.86)
(-99941.5 -1245.33 -2571.38)
(-99293.9 -1283.69 -2191.28)
(-98643 -1316.8 -1716.85)
(-97997.9 -1335.98 -1275.28)
(-97349.2 -1341.52 -970.311)
(-96724.9 -1347.15 -591.719)
(-96117.9 -1339.61 -201.137)
(-95502.2 -1328.15 153.897)
(-94894 -1308.95 502.915)
(-94259.7 -1281.95 840.79)
(-93566.5 -1241.6 1161.58)
(-92834 -1182.82 1440.97)
(-92074.1 -1095.61 1655.36)
(-91243.8 -966.745 1764.49)
(-90363.2 -774.57 1717.03)
(-89463 -500.619 1484.66)
(-88544.6 -143.127 1013.45)
(-87199.2 291.936 48.5558)
(-84212.6 968.616 -1729.4)
(-80359 2010.23 -5064.7)
(-84060 4387.94 -11345.5)
(-106263 7088.95 -19672.5)
(-112591 15863.6 -20861.3)
(-55609.3 6815.31 -4132)
(-119014 7196.42 -28083.4)
(-120237 4311.02 -21703.4)
(-114064 -2498.48 -18413)
(-115975 5782.61 -13365.4)
(-118821 2252.93 -14956.1)
(-119362 645.04 -11177.8)
(-118879 593.985 -5390.92)
(-119170 1327.83 -3467.2)
(-119069 1504.67 -2260.07)
(-117705 1929.29 -1307.49)
(-116712 2123.57 -922.589)
(-116217 2331.09 -850.917)
(-115960 2402.51 -942.214)
(-116091 2391.99 -1104.12)
(-116668 2385.59 -1227.17)
(-117057 2306.48 -1148.05)
(-117121 2311.43 -1048.97)
(-117395 2321.01 -1081.6)
(-117768 2318.41 -1107.27)
(-118108 2308.17 -1176.39)
(-118452 2297.87 -1252.58)
(-118779 2286.25 -1325.57)
(-119090 2278.57 -1376.83)
(-119376 2271.59 -1395.85)
(-119638 2267.67 -1372.1)
(-119886 2265.24 -1298.09)
(-120137 2264.95 -1169.42)
(-120407 2266.75 -986.983)
(-120707 2270.77 -754.661)
(-121035 2276.79 -478.119)
(-121377 2286.66 -163.816)
(-121714 2300.12 185.312)
(-122044 2314.75 565.88)
(-122353 2336.52 957.161)
(-122613 2366.61 1343.91)
(-122804 2396.45 1716.08)
(-122896 2437.98 2075.31)
(-122860 2479.64 2433.01)
(-122661 2527.21 2777.61)
(-122281 2582.83 3125.17)
(-121658 2649.46 3471.94)
(-120775 2729.92 3803.53)
(-119579 2828.54 4099.64)
(-118015 2946.22 4344.67)
(-116047 3091.12 4513.51)
(-113660 3276.85 4558.73)
(-110787 3499.75 4405.82)
(-107064 3732.22 3948.81)
(-101935 4038.19 3054.15)
(-94999.1 4394.25 1265.79)
(-92746 4792.48 -1955.69)
(-94084.4 3751.79 -5938.22)
(-97763.5 1793.43 -6029.84)
(5340.17 5262.39 -4532.11)
(-110103 -1413.84 -9281.8)
(-113926 2690.64 -4142.43)
(-108367 2374.19 -11617.5)
(-109256 575.708 -4108.09)
(-110236 -2468.76 -8104.59)
(-109878 -4093.8 -7617.37)
(-109892 -3321.76 -6556.02)
(-109325 -2481.99 -5121.34)
(-108943 -2124.51 -3894.56)
(-107980 -1726.27 -2854.42)
(-107386 -1606.3 -2184.93)
(-107072 -1502.92 -1503.31)
(-106742 -1509.66 -1281.36)
(-106701 -1591.77 -1338.86)
(-106915 -1690.66 -1473.8)
(-106951 -1751.18 -1471.69)
(-106796 -1749.02 -1469.78)
(-106770 -1753.93 -1542.81)
(-106816 -1761.39 -1595.5)
(-106844 -1769.05 -1677.05)
(-106875 -1779.7 -1753.39)
(-106909 -1786.91 -1821)
(-106952 -1791.52 -1846.54)
(-107006 -1792.16 -1821.83)
(-107079 -1791.06 -1730.98)
(-107187 -1790.28 -1575.55)
(-107352 -1794.04 -1356.27)
(-107590 -1806.76 -1082.34)
(-107905 -1833.4 -762.74)
(-108286 -1877.45 -398.168)
(-108698 -1940.3 8.28672)
(-109094 -2034.48 448.929)
(-109584 -2176.22 909.271)
(-110234 -2267.64 1337.61)
(-110704 -2241.33 1698.39)
(-110979 -2308.26 2028.79)
(-111293 -2393.54 2344.17)
(-111567 -2439.23 2620.72)
(-111771 -2477.68 2859.99)
(-111912 -2492.37 3035.4)
(-112023 -2482.59 3142.47)
(-112166 -2448.34 3196.21)
(-112358 -2388.37 3217.48)
(-112704 -2305.61 3195.87)
(-113352 -2192.85 3114.76)
(-114460 -2061.28 2965.79)
(-116168 -1927.11 2719.06)
(-118407 -1778.63 2254.28)
(-120487 -1633.75 1279.27)
(-122923 -1352.76 -977.41)
(-132395 -140.488 -5778.7)
(-165538 1550.01 -12724.7)
(-197105 8828.55 -28303.2)
(-165485 14739.7 -30360.3)
(-115940 1257.91 -12481.4)
(-121694 5135.4 -3618.76)
(-120794 4763.9 -4177.26)
(-125382 3187.09 -5859.65)
(-127373 461.804 -7094.34)
(-124543 -1137.04 -5684.97)
(-123257 -307.152 -3830.35)
(-123822 448.402 -2451.39)
(-124153 774.192 -711.288)
(-123784 1117.81 385.496)
(-123866 1219.64 1004.11)
(-124092 1313.4 1403.88)
(-124394 1317.45 1537.03)
(-124877 1252.47 1478.71)
(-125471 1169.64 1363.14)
(-125816 1118.82 1427.47)
(-126013 1124.43 1416.6)
(-126349 1124.27 1315.03)
(-126706 1120.83 1225.78)
(-127008 1116.81 1105.09)
(-127284 1109.93 975.021)
(-127533 1105.82 846.837)
(-127759 1105.06 741.358)
(-127959 1110.61 676.365)
(-128150 1123.48 663.449)
(-128343 1145.49 705.375)
(-128550 1176.25 799.757)
(-128785 1214.38 942.038)
(-129049 1257.8 1127.07)
(-129336 1304.89 1348.91)
(-129633 1354.26 1594.1)
(-129919 1393.68 1852.71)
(-130213 1408.51 2130.28)
(-130495 1475.36 2420.87)
(-130777 1644.23 2712.46)
(-131055 1736.87 3012.48)
(-131304 1817.45 3319.66)
(-131531 1926.84 3633.8)
(-131719 2033.17 3947.97)
(-131823 2145.69 4243.82)
(-131835 2261.55 4506.06)
(-131758 2381.6 4734.58)
(-131557 2500.97 4926.31)
(-131197 2607.61 5068.17)
(-130704 2694.94 5135.53)
(-130132 2745.12 5104.93)
(-129502 2736.63 4935.35)
(-128626 2669.52 4535.17)
(-126449 2470.78 3574.53)
(-122979 2063.3 1625.83)
(-121725 1874.88 -1867.73)
(-125693 -1876.11 -6604.66)
(-101292 3822.07 -21233.8)
(-44989.1 2435.16 -8038.57)
(-116304 -3400.42 -16805.3)
(-121709 -3369.03 -10355.2)
(-119957 -3008.44 -8738.76)
(-120686 -3748.07 -9505.69)
(-120351 -5138.09 -8349.2)
(-118757 -5501.68 -7430.4)
(-118567 -5062.3 -5929.1)
(-118316 -4424.18 -4823.56)
(-117873 -3676.93 -3748.87)
(-116674 -3077.71 -3241.64)
(-115373 -2879.62 -3109.62)
(-114577 -2899.39 -2687.03)
(-114111 -2917.14 -2443.08)
(-113772 -2964.3 -2414.69)
(-113492 -2991.63 -2448.88)
(-113004 -3011.12 -2418.89)
(-112423 -3008.64 -2490.28)
(-111885 -3006.56 -2649.43)
(-111347 -3000.22 -2826.03)
(-110761 -2985.01 -3026.45)
(-110123 -2960.59 -3242.54)
(-109428 -2917.77 -3449.48)
(-108678 -2855.89 -3620.69)
(-107884 -2765.1 -3719.67)
(-107070 -2647.11 -3729.82)
(-106277 -2500.25 -3647.11)
(-105551 -2327.85 -3476.54)
(-104933 -2130.29 -3220.25)
(-104445 -1909.94 -2893.76)
(-104098 -1679.81 -2517.63)
(-103893 -1458.07 -2111.37)
(-103826 -1258.61 -1711.4)
(-103949 -1075.42 -1357.18)
(-104288 -871.818 -944.897)
(-104721 -633.771 -385.479)
(-105199 -413.284 87.1892)
(-105769 -213.261 512.443)
(-106408 -19.3057 928.682)
(-107095 164.553 1319.51)
(-107831 347.566 1676.03)
(-108620 525.475 1982.59)
(-109469 707.031 2260.13)
(-110404 891.721 2527.46)
(-111469 1061.64 2767.2)
(-112770 1192.87 2970.79)
(-114484 1261.75 3151.5)
(-116849 1230.57 3294.79)
(-119897 1080.66 3352.38)
(-123288 735.133 3207.33)
(-127985 105.373 2399.68)
(-141040 -596.229 -333.086)
(-179135 -891.129 -7221.71)
(-240136 12298.9 -24079.3)
(-176247 3328.57 -7391.71)
(-111171 1237.69 -15958.1)
(-115419 1299.64 -13284.4)
(-115791 1729.74 -11435.1)
(-119108 1015.61 -10109.9)
(-119279 -415.655 -6741.47)
(-116469 -736.608 -3971.63)
(-115961 -136.186 -2892.44)
(-115930 606.586 -2360.76)
(-115958 1389.8 -1342.47)
(-115655 1985.74 -862.518)
(-115298 2164.65 -510.861)
(-115061 2127.13 -105.786)
(-114966 2092.14 171.926)
(-114989 2019.14 286.341)
(-115032 1958.11 368.163)
(-114861 1896.15 482.449)
(-114592 1850.91 442.332)
(-114403 1794.16 308.65)
(-114241 1728.02 161.437)
(-114059 1656.99 -12.5525)
(-113859 1579.64 -196.897)
(-113628 1503.34 -380.346)
(-113369 1426.36 -534.816)
(-113085 1357.32 -632.406)
(-112785 1294.89 -654.692)
(-112494 1241.29 -597.143)
(-112242 1194.95 -462.797)
(-112050 1158.63 -259.143)
(-111931 1133.98 1.89475)
(-111890 1113.68 310.395)
(-111906 1086.19 648.871)
(-111931 1043.9 1001.95)
(-111958 999.954 1373.54)
(-112001 994.224 1774.41)
(-112028 1042.36 2200.63)
(-112013 1099.44 2652.39)
(-111932 1163.45 3108.51)
(-111759 1249.56 3552.18)
(-111475 1354.4 4004.95)
(-111054 1482.63 4449.7)
(-110471 1627.62 4861.34)
(-109690 1784.34 5236.07)
(-108682 1945.52 5576.8)
(-107432 2088.38 5864.59)
(-105969 2185.53 6068.74)
(-104391 2211.2 6184.1)
(-102817 2132.06 6183.15)
(-101132 1937.36 5995.65)
(-98682.4 1521.68 5475.61)
(-96401.1 900.029 4023.58)
(-99047.8 376.378 268.189)
(-113545 -308.786 -3299.16)
(-105092 5040.91 -11138.2)
(-37965.1 2709.54 -3560.47)
(-120833 -2097.04 -11535.3)
(-123733 -3060.48 -11379.6)
(-123419 -3365.84 -9526.75)
(-124779 -3339.72 -9337.74)
(-124746 -3946.96 -7537.1)
(-123653 -4009.15 -6932.4)
(-123262 -4032.27 -5984.01)
(-122967 -4158.33 -5004.52)
(-122784 -4080.93 -3879.57)
(-122343 -3865.67 -3086.4)
(-121416 -3626.24 -2569.51)
(-120535 -3608.14 -2249.27)
(-120095 -3618.95 -2040.65)
(-119787 -3644.79 -1985.65)
(-119451 -3661.57 -1909.97)
(-118997 -3675.96 -1868.36)
(-118500 -3682.53 -1939.45)
(-118020 -3699.92 -2099.5)
(-117537 -3722.02 -2314.84)
(-117014 -3753.94 -2585.56)
(-116435 -3791.65 -2903)
(-115773 -3839.53 -3234.67)
(-115016 -3892.08 -3538.66)
(-114165 -3949.99 -3755.68)
(-113253 -4007.45 -3860.6)
(-112320 -4059.14 -3837.86)
(-111398 -4101.18 -3695.16)
(-110530 -4137.79 -3447.54)
(-109761 -4166.34 -3119.77)
(-109115 -4177.72 -2738.74)
(-108603 -4170.2 -2326.85)
(-108230 -4141.84 -1915.87)
(-108007 -4077.21 -1538.1)
(-107914 -3970.93 -1151.44)
(-107949 -3844.51 -708.573)
(-108156 -3703.14 -249.943)
(-108541 -3537.3 224.347)
(-109091 -3346.36 726.346)
(-109812 -3129.64 1246.89)
(-110716 -2883.18 1777.63)
(-111860 -2614.12 2334.9)
(-113293 -2329.13 2919.96)
(-115054 -2041.12 3527.64)
(-117208 -1771.08 4138.83)
(-119874 -1541.94 4743.06)
(-123253 -1381.12 5349.97)
(-127667 -1321.18 5973.8)
(-133327 -1393.3 6643.75)
(-140110 -1636.05 7378.31)
(-149317 -2017.74 7930.12)
(-169251 -2470.86 7838.01)
(-224715 -3679.41 8692.61)
(-357342 12215.5 16203.5)
(-316536 14187 -345.633)
(-114016 2031.54 -10224)
(-114535 1191.13 -10747.3)
(-114214 1037.66 -9582.57)
(-116001 1265.55 -7834.78)
(-116381 740.759 -3721.61)
(-114758 762.062 -2166.92)
(-114792 881.057 -1622.93)
(-114817 865.335 -1327.26)
(-114736 1019.23 -836.83)
(-114558 1274.21 -320.266)
(-114254 1538.14 216.244)
(-114106 1542.99 628.089)
(-114241 1512.81 916.688)
(-114476 1460.86 1064.35)
(-114650 1417.18 1209.33)
(-114695 1373.14 1313.54)
(-114700 1338.29 1278.54)
(-114719 1296.81 1149.24)
(-114713 1258.26 963.228)
(-114645 1219.51 716.621)
(-114486 1189.02 428.898)
(-114210 1162.94 126.1)
(-113808 1144.5 -144.069)
(-113296 1131.49 -333.764)
(-112702 1125.44 -409.553)
(-112066 1126.44 -363.98)
(-111431 1133.38 -208.561)
(-110836 1137.25 31.352)
(-110304 1136.99 325.279)
(-109853 1139.26 649.815)
(-109488 1142.14 993.992)
(-109194 1145.62 1339.88)
(-108971 1166.97 1652.89)
(-108823 1213.17 1937.16)
(-108734 1267.59 2207.44)
(-108697 1329.82 2460.12)
(-108704 1411.61 2712.92)
(-108744 1517.27 2959.46)
(-108815 1652.76 3193.69)
(-108920 1827.35 3408.24)
(-109055 2040.14 3600.77)
(-109215 2285.49 3763.67)
(-109405 2551.28 3888.34)
(-109657 2818.85 3965.61)
(-110053 3060.86 3989.3)
(-110758 3246.51 3979.45)
(-111934 3356.8 3932.14)
(-113585 3395.65 3956.81)
(-115239 3267.94 4061.14)
(-118107 2865.42 3984.36)
(-126629 2394.85 4355.89)
(-160099 3892.74 6608.65)
(-192316 11063.4 9852.6)
(-149041 10700 2556.64)
(-113292 -708.73 -10796.7)
(-115012 -1503.4 -10338.3)
(-115664 -2246.95 -9438.11)
(-116730 -1734.46 -9064.93)
(-117179 -1364.18 -7297.45)
(-117296 -976.969 -6025.12)
(-117405 -1132.99 -4878.88)
(-117540 -1411.98 -3952.51)
(-117762 -1523.66 -3293.7)
(-117543 -1345.22 -2832.1)
(-117006 -1207 -2211.5)
(-116796 -1182.16 -1924.8)
(-116866 -1157.49 -1771.57)
(-116930 -1131.4 -1674.3)
(-116939 -1106.49 -1584.36)
(-116895 -1076.02 -1561.68)
(-116825 -1046 -1635.94)
(-116767 -1025.88 -1801.24)
(-116721 -1015.5 -2034.68)
(-116664 -1019.77 -2353.17)
(-116565 -1036.88 -2740.89)
(-116375 -1074.48 -3179.79)
(-116071 -1130.91 -3597.3)
(-115662 -1211.86 -3924.45)
(-115191 -1306.52 -4097.15)
(-114695 -1412.83 -4100.65)
(-114217 -1527.76 -3949.92)
(-113784 -1650.1 -3687.29)
(-113405 -1775.61 -3349.13)
(-113070 -1902.05 -2953.58)
(-112778 -2022.78 -2520.33)
(-112528 -2127.43 -2074.32)
(-112302 -2209.51 -1605.34)
(-112052 -2264.83 -1103.07)
(-111754 -2299.62 -580.372)
(-111414 -2317.98 -43.0078)
(-111030 -2317.28 519.159)
(-110599 -2296.47 1125.48)
(-110119 -2254.19 1773.1)
(-109610 -2187.84 2441.04)
(-109069 -2094.41 3143.58)
(-108503 -1975.82 3871.1)
(-107920 -1838.79 4596.06)
(-107320 -1693.69 5284.56)
(-106712 -1552.14 5917.33)
(-106141 -1420.63 6488.58)
(-105682 -1295.42 7014.15)
(-105216 -1174.99 7611.55)
(-104225 -1129.97 8376.26)
(-102418 -1332.96 9024.41)
(-104662 -1283.5 11990.1)
(-126273 2034.81 20517.8)
(-165741 12142.3 51482.9)
(-123530 4097.16 17569.6)
(-115826 598.721 -11687.7)
(-115711 -237.816 -11109.4)
(-115619 -976.931 -10550.6)
(-115426 -414.823 -10336.9)
(-116081 -45.0074 -7350.65)
(-116662 279.651 -5618.63)
(-117375 96.5604 -4608.87)
(-117567 -204.466 -3633.35)
(-117507 -360.709 -2917.51)
(-117216 -229.55 -2411.76)
(-117035 -142.063 -1962.24)
(-117167 -172.261 -1698.66)
(-117462 -198.64 -1534.03)
(-117738 -219.5 -1420)
(-117938 -236.342 -1328.81)
(-118074 -242.542 -1313.6)
(-118179 -240.048 -1411.05)
(-118268 -235.251 -1593.44)
(-118327 -226.684 -1845.6)
(-118348 -220.513 -2172.95)
(-118308 -213.763 -2571.83)
(-118178 -212.588 -3018.01)
(-117939 -212.626 -3448.82)
(-117604 -218.769 -3786.72)
(-117217 -221.024 -3975.74)
(-116832 -220.062 -4002.67)
(-116493 -216.233 -3888.37)
(-116222 -212.319 -3670.53)
(-116018 -207.895 -3393.01)
(-115862 -204.47 -3090.1)
(-115733 -199.59 -2770.51)
(-115621 -185.784 -2449.3)
(-115505 -158.112 -2143.03)
(-115349 -115.397 -1847.75)
(-115139 -67.3344 -1562.33)
(-114874 -19.2541 -1304.17)
(-114557 35.304 -1058.89)
(-114179 101.713 -813.544)
(-113735 183.232 -577.291)
(-113223 280.296 -352.336)
(-112634 393.458 -136.127)
(-111962 521.201 64.5711)
(-111215 656.868 242.704)
(-110411 791.493 388.378)
(-109585 914.522 505.19)
(-108796 1023.37 601.996)
(-108061 1145.15 630.317)
(-107033 1265.81 621.052)
(-104949 1269.35 517.375)
(-101507 1069.24 201.607)
(-102968 1290.63 1406.27)
(-108363 1962 5457.19)
(-103428 5749.57 27245.9)
(-43137.1 816.555 13212.5)
(-108377 -15.9196 -13920.3)
(-108519 -474.197 -11219.6)
(-109285 -1147.82 -10207.7)
(-109394 -1074.53 -9052.25)
(-108750 -499.009 -7824.96)
(-108383 -10.2922 -6151.36)
(-108628 -63.7556 -4672.61)
(-109179 -96.3185 -3673.86)
(-109866 80.659 -3002.31)
(-109810 401.191 -2302.11)
(-109376 528.838 -1776.43)
(-109336 559.512 -1486.57)
(-109494 589.256 -1226.55)
(-109658 613.644 -988.542)
(-109801 641.27 -804.167)
(-109911 668.364 -696.413)
(-110002 690.404 -683.315)
(-110086 708.465 -762.294)
(-110167 720.98 -925.507)
(-110232 735.307 -1188.49)
(-110242 747.803 -1555.32)
(-110127 760.515 -2020.56)
(-109844 768.918 -2497.18)
(-109425 779.714 -2862.27)
(-108962 788.103 -3005.88)
(-108560 794.293 -2920.38)
(-108279 793.703 -2649.46)
(-108144 785.982 -2260.28)
(-108128 766.459 -1816.31)
(-108198 728.203 -1358.79)
(-108334 685.67 -900.502)
(-108481 652.561 -460.434)
(-108590 617.736 -26.6346)
(-108651 581.918 411.916)
(-108653 545.679 839.317)
(-108586 509.083 1249.85)
(-108430 474.866 1639.11)
(-108193 447.475 2041.45)
(-107875 429.238 2458.66)
(-107477 421.628 2878.93)
(-107004 424.984 3301.92)
(-106463 438.175 3722.8)
(-105866 457.77 4132.25)
(-105246 479.674 4520.54)
(-104653 501.661 4896.27)
(-104172 531.672 5307.51)
(-103896 584.505 5866.96)
(-103634 654.329 6715.04)
(-102461 690.707 7761)
(-99315.6 700.156 8938.19)
(-99532 595.882 11382.6)
(-102767 1266.65 18303.3)
(-104143 6200.47 45512.8)
(-53355.5 3577.99 16680)
(-110818 1498.51 -12354.3)
(-110849 897.031 -9374.22)
(-111691 157.527 -8102.08)
(-110701 182.034 -7975.42)
(-109791 698.584 -6862.55)
(-110075 1085.21 -5481.17)
(-110799 956.66 -4145.79)
(-111080 861.472 -2936.81)
(-111338 967.71 -1937.32)
(-111209 1222.71 -1254.02)
(-110930 1300.54 -829.592)
(-110857 1290.21 -568.025)
(-110884 1280.56 -342.725)
(-110901 1268.75 -149.179)
(-110883 1264.1 -4.93335)
(-110829 1262.87 54.6084)
(-110748 1257.85 13.7198)
(-110653 1246.97 -120.114)
(-110546 1228.46 -345)
(-110409 1210.44 -668.54)
(-110193 1187.42 -1102.79)
(-109814 1162.42 -1638.98)
(-109228 1133.95 -2199.86)
(-108447 1111 -2647.62)
(-107565 1093.23 -2881.1)
(-106691 1085.04 -2878.56)
(-105905 1084.62 -2677.44)
(-105252 1093.03 -2337.55)
(-104737 1106.21 -1929.25)
(-104322 1117.04 -1504.64)
(-103978 1139.24 -1072.11)
(-103676 1185.85 -656.732)
(-103380 1244.69 -251.601)
(-103065 1315.56 149.587)
(-102717 1398.36 538.34)
(-102318 1492.71 911.887)
(-101842 1600.69 1279.51)
(-101276 1724.19 1654.32)
(-100613 1865.46 2028.13)
(-99839.4 2027.74 2408.6)
(-98962.1 2211.45 2797.14)
(-97989.3 2415.68 3193.66)
(-96938 2637.06 3599.44)
(-95845.4 2870.07 4020.96)
(-94774.3 3109.8 4487.09)
(-93799.1 3364.99 5012.65)
(-92908 3659.24 5630.63)
(-91743.7 3995.63 6391.21)
(-89556.3 4321.68 7348.8)
(-86218.4 4629.24 8614.58)
(-86106.3 4788.55 10114.4)
(-93654.1 5019.68 11646)
(-85138.9 7936.22 26026.6)
(-11724.2 3225.84 12319.7)
(-110342 -1312.08 -16469.9)
(-110227 -1329.53 -12261.1)
(-110980 -1612.5 -10196)
(-111061 -1826.64 -8078.58)
(-110239 -1436.15 -6996.43)
(-109416 -1246.56 -6165.92)
(-109558 -1437.69 -5414.29)
(-109946 -1413.44 -4968.52)
(-110014 -1104.8 -4280.46)
(-109563 -842.219 -3277.96)
(-109089 -737.09 -2666.85)
(-108829 -698.659 -2260.31)
(-108653 -667.998 -1907.69)
(-108499 -645.934 -1610.1)
(-108337 -621.284 -1377.83)
(-108157 -598.097 -1230.39)
(-107959 -576.374 -1184.67)
(-107744 -556.404 -1246.85)
(-107514 -537.493 -1430.92)
(-107254 -513.389 -1745.23)
(-106901 -484.636 -2231.65)
(-106314 -446.642 -2894.7)
(-105351 -402.039 -3629.84)
(-104017 -344.513 -4174.89)
(-102507 -281.002 -4336.05)
(-101064 -209.543 -4092.28)
(-99851.8 -133.216 -3566.81)
(-98953.8 -53.1394 -2903.51)
(-98364.5 20.7322 -2211.26)
(-98021.4 74.0831 -1566.46)
(-97888.5 116.623 -1000.25)
(-97923.9 154.381 -507.641)
(-98054.6 190.008 -99.4966)
(-98240.9 218.324 231.208)
(-98454.6 235.803 491.548)
(-98671.5 245.515 695.808)
(-98876.7 248.632 855.595)
(-99057.3 248.951 981.638)
(-99203.7 251.221 1067.36)
(-99317 255.532 1098.21)
(-99405.7 261.429 1096.81)
(-99481.3 271.111 1080.82)
(-99560.8 284.719 1072.2)
(-99666.2 299.202 1107.78)
(-99831.3 313.708 1252.53)
(-100072 334.34 1588.86)
(-100340 366.042 2246.54)
(-100139 436.258 3258.77)
(-98226.9 571.514 4551.21)
(-94370.5 731.644 6354.23)
(-92822.4 974.353 8869.12)
(-95853.6 -87.8968 10488.8)
(-89736.1 -999.648 19510.2)
(-1442.24 -3946.44 9427.7)
(-104674 1651.32 -13801)
(-105376 1542.52 -8626.47)
(-106701 1184.31 -6115.31)
(-106424 936.174 -4450.18)
(-105554 1322.08 -3900.31)
(-105826 1445.04 -3785.55)
(-106625 1163.41 -2937.04)
(-106859 1124.41 -2204.95)
(-106942 1392.64 -1413.84)
(-106886 1607.94 -636.052)
(-106834 1659.03 -108.268)
(-106871 1639.83 281.887)
(-106937 1612.77 619.401)
(-107011 1576.96 903.724)
(-107071 1543.62 1122.5)
(-107116 1508.2 1254.64)
(-107141 1470.65 1284.95)
(-107153 1430.65 1200.01)
(-107152 1388.7 988.61)
(-107126 1350.81 629.176)
(-107012 1316.26 88.4612)
(-106657 1289.04 -663.954)
(-105936 1260.74 -1521.09)
(-104851 1239.3 -2233.16)
(-103556 1224.78 -2594.47)
(-102259 1226.2 -2572.57)
(-101092 1246.15 -2270.3)
(-100120 1287.17 -1819.8)
(-99343.1 1341.2 -1324.7)
(-98687.9 1394.78 -849.247)
(-98117.7 1456.39 -423.291)
(-97614.6 1530.39 -57.1126)
(-97132.5 1619.01 250.41)
(-96650.9 1717.72 509.552)
(-96142.7 1824.35 716.075)
(-95576.1 1945.26 866.048)
(-94942.2 2081.85 972.498)
(-94228.3 2237.86 1033.36)
(-93421.8 2418.15 1045.76)
(-92515.2 2623.93 1009.96)
(-91502.9 2857.83 925.62)
(-90384.2 3122.78 795.466)
(-89168.3 3419.18 630.137)
(-87878.1 3744.7 457.407)
(-86545.7 4099.34 324.774)
(-85195.3 4487.29 300.574)
(-83812.2 4909.24 497.502)
(-81953 5398.82 1011.42)
(-78348.9 6013.16 2059.61)
(-72463.4 6747.02 3875.77)
(-69186.6 7494.8 6048.8)
(-74270.5 6957.08 5426.6)
(-85441.5 16650.2 -5300.2)
(-7327.96 -2039.07 8407.81)
(-106525 -1421.96 -16392.2)
(-108416 -1158.37 -12237.2)
(-109479 -1432.46 -9889)
(-111084 -1838.08 -7967.9)
(-111619 -1867.94 -6826.75)
(-111507 -2175.21 -6425.68)
(-111936 -2227.83 -6073.43)
(-112309 -2039.16 -5547.1)
(-112165 -1805.66 -4776.79)
(-111900 -1734.43 -4104.34)
(-111734 -1684.47 -3668.58)
(-111579 -1649.54 -3324.85)
(-111450 -1609.93 -3029.32)
(-111329 -1567.48 -2785.17)
(-111200 -1514.79 -2602.35)
(-111065 -1454.64 -2500.56)
(-110930 -1386.77 -2506.38)
(-110801 -1314.18 -2651.77)
(-110680 -1233.16 -2962.72)
(-110580 -1145.45 -3458.04)
(-110450 -1044.52 -4199.09)
(-110066 -939.798 -5255.1)
(-109108 -838.681 -6516.32)
(-107487 -753.541 -7542.59)
(-105495 -679.954 -7906.87)
(-103538 -613.588 -7537.08)
(-101859 -545.585 -6725.95)
(-100526 -471.219 -5746.21)
(-99511.5 -398.029 -4746.53)
(-98760.8 -328.654 -3810.86)
(-98216.1 -250.7 -2985.49)
(-97823.5 -167.024 -2255.33)
(-97540.2 -79.196 -1606.96)
(-97341.6 13.4695 -1033.74)
(-97204.9 106.702 -525.013)
(-97105.5 201.501 -73.9873)
(-97028.2 300.699 326.332)
(-96959.3 407.639 681.601)
(-96885.4 523.804 990.972)
(-96800.8 647.036 1249.51)
(-96701.5 773.834 1454.16)
(-96586.8 897.656 1603.05)
(-96458.4 1007.39 1696.25)
(-96315.4 1085.57 1743.23)
(-96133 1108.94 1753.91)
(-95790 1058.44 1738.48)
(-95098.6 924.28 1735.46)
(-93490.7 741.985 1770.22)
(-89909.3 511.037 1983.05)
(-84559.1 244.031 2294.91)
(-81033.1 151.354 1658.95)
(-86627.7 -653.153 -73.3344)
(-73136.3 -2783.25 -11821.1)
(11879.7 -970.915 -4980.08)
(-101943 1566.25 -13549.8)
(-103118 2055.57 -8659.78)
(-104137 1806.09 -6280.45)
(-104954 1444.78 -4344.07)
(-105019 1465.64 -3812.65)
(-104806 1130.74 -3542.88)
(-104755 1061.74 -2566.51)
(-104933 1262.04 -1822.62)
(-105026 1502.63 -1160.05)
(-105153 1529.38 -571.388)
(-105292 1524.08 -118.754)
(-105462 1494.26 271.734)
(-105681 1463.06 605.377)
(-105938 1428.8 880.471)
(-106208 1400.35 1076.14)
(-106490 1375.33 1174.24)
(-106781 1354.75 1145.4)
(-107079 1336.05 957.465)
(-107382 1323.94 588.469)
(-107688 1317.11 21.5925)
(-107938 1322.46 -789.716)
(-107881 1330.19 -1924.34)
(-107172 1336.66 -3289.73)
(-105761 1324.98 -4448.44)
(-103965 1290.36 -4960.09)
(-102227 1235.59 -4747.02)
(-100819 1172.26 -4104.04)
(-99816.2 1110.05 -3305.72)
(-99171.2 1046.67 -2493.65)
(-98773.3 984.406 -1730.42)
(-98535.1 939.077 -1063.46)
(-98403.2 908 -482.104)
(-98323.5 888.966 17.9914)
(-98259.9 881.225 446.239)
(-98183.6 879.052 814.431)
(-98077.5 881.514 1128.34)
(-97929.6 890.77 1394.77)
(-97732.7 909.225 1617.55)
(-97476.6 937.231 1794.23)
(-97152.9 970.523 1921.83)
(-96756.3 1003.98 1996.96)
(-96288 1030.37 2018.29)
(-95753.7 1037.84 1987.14)
(-95161.3 1006.58 1914.16)
(-94520 911.019 1819.79)
(-93827.6 734.55 1727.01)
(-92990.4 466.996 1640.86)
(-91635.2 140.568 1599.16)
(-88491.3 -218.731 1761.33)
(-83512.7 -581.226 1691.58)
(-80785 -951.091 -425.381)
(-85563.1 -2195.16 -1787.14)
(-84590.5 -5234.48 -12136.1)
(-6333.23 -3043.15 -1784.92)
(-95216.9 -688.348 -12309)
(-98142.4 -504.737 -9171.59)
(-99713.4 -1030.39 -7939.21)