/*--------------------------------*- C++ -*----------------------------------*\
| =========                 |                                                 |
| \\      /  F ield         | OpenFOAM: The Open Source CFD Toolbox           |
|  \\    /   O peration     | Version:  4.1                                   |
|   \\  /    A nd           | Web:      www.OpenFOAM.org                      |
|    \\/     M anipulation  |                                                 |
\*---------------------------------------------------------------------------*/
FoamFile
{
    version     2.0;
    format      ascii;
    class       volScalarField;
    location    "57";
    object      p;
}
// * * * * * * * * * * * * * * * * * * * * * * * * * * * * * * * * * * * * * //

dimensions      [0 2 -2 0 0 0 0];

internalField   nonuniform List<scalar> 
4432
(
-3.81408e+10
-3.93511e+10
-4.02095e+10
-3.93079e+10
-3.91788e+10
-3.9481e+10
-3.94707e+10
-3.94446e+10
-3.94306e+10
-3.94413e+10
-3.94565e+10
-3.94591e+10
-3.94386e+10
-3.93957e+10
-3.93442e+10
-3.92852e+10
-3.92037e+10
-3.90955e+10
-3.89611e+10
-3.88028e+10
-3.86212e+10
-3.84216e+10
-3.82104e+10
-3.79956e+10
-3.77846e+10
-3.75847e+10
-3.74005e+10
-3.72349e+10
-3.70875e+10
-3.69557e+10
-3.68347e+10
-3.67192e+10
-3.66048e+10
-3.6489e+10
-3.63728e+10
-3.62624e+10
-3.6169e+10
-3.6106e+10
-3.60853e+10
-3.6112e+10
-3.61781e+10
-3.62574e+10
-3.6308e+10
-3.62883e+10
-3.61885e+10
-3.60412e+10
-3.58466e+10
-3.54307e+10
-3.45702e+10
-3.39934e+10
-3.68102e+10
-4.61133e+10
-5.3584e+10
-2.67848e+10
-3.86403e+10
-3.90996e+10
-3.96131e+10
-3.9606e+10
-3.92618e+10
-3.94243e+10
-3.94702e+10
-3.94353e+10
-3.94194e+10
-3.94415e+10
-3.94651e+10
-3.94672e+10
-3.94427e+10
-3.93995e+10
-3.93499e+10
-3.92914e+10
-3.92087e+10
-3.90989e+10
-3.89645e+10
-3.88054e+10
-3.86229e+10
-3.84221e+10
-3.82093e+10
-3.79926e+10
-3.77796e+10
-3.75775e+10
-3.73912e+10
-3.72238e+10
-3.70751e+10
-3.69426e+10
-3.68216e+10
-3.67069e+10
-3.65942e+10
-3.64808e+10
-3.63683e+10
-3.62627e+10
-3.61742e+10
-3.61161e+10
-3.60991e+10
-3.61277e+10
-3.61926e+10
-3.62663e+10
-3.63055e+10
-3.62667e+10
-3.61369e+10
-3.59426e+10
-3.56701e+10
-3.51087e+10
-3.39513e+10
-3.28046e+10
-3.48834e+10
-4.46941e+10
-5.5164e+10
-3.2148e+10
-3.89891e+10
-3.90928e+10
-3.93442e+10
-3.96875e+10
-3.93949e+10
-3.93747e+10
-3.94901e+10
-3.94725e+10
-3.94576e+10
-3.94826e+10
-3.95084e+10
-3.95287e+10
-3.9525e+10
-3.94888e+10
-3.94357e+10
-3.93788e+10
-3.93048e+10
-3.91997e+10
-3.90656e+10
-3.89027e+10
-3.87135e+10
-3.85028e+10
-3.82778e+10
-3.80476e+10
-3.7821e+10
-3.76066e+10
-3.74096e+10
-3.72338e+10
-3.7079e+10
-3.69431e+10
-3.68211e+10
-3.6708e+10
-3.66002e+10
-3.64941e+10
-3.63892e+10
-3.6291e+10
-3.6209e+10
-3.61554e+10
-3.614e+10
-3.61656e+10
-3.62212e+10
-3.62787e+10
-3.6294e+10
-3.62235e+10
-3.60553e+10
-3.5818e+10
-3.54822e+10
-3.47885e+10
-3.34332e+10
-3.23306e+10
-3.53073e+10
-4.62193e+10
-5.64361e+10
-3.51992e+10
-3.89761e+10
-3.92177e+10
-3.94908e+10
-3.95529e+10
-3.93727e+10
-3.93782e+10
-3.9489e+10
-3.94577e+10
-3.94508e+10
-3.94771e+10
-3.9509e+10
-3.95301e+10
-3.95229e+10
-3.94836e+10
-3.94316e+10
-3.93789e+10
-3.93048e+10
-3.91977e+10
-3.90638e+10
-3.89012e+10
-3.87124e+10
-3.85019e+10
-3.8277e+10
-3.80468e+10
-3.782e+10
-3.76051e+10
-3.74077e+10
-3.72315e+10
-3.70765e+10
-3.69409e+10
-3.68198e+10
-3.67078e+10
-3.66003e+10
-3.6494e+10
-3.63898e+10
-3.62924e+10
-3.62107e+10
-3.61565e+10
-3.61393e+10
-3.61613e+10
-3.62111e+10
-3.62594e+10
-3.62623e+10
-3.61763e+10
-3.59895e+10
-3.5727e+10
-3.53525e+10
-3.45876e+10
-3.30928e+10
-3.19167e+10
-3.57006e+10
-4.88183e+10
-5.73802e+10
-2.85444e+10
-3.95689e+10
-3.94414e+10
-3.91664e+10
-3.95987e+10
-3.94991e+10
-3.93981e+10
-3.94059e+10
-3.94134e+10
-3.94316e+10
-3.94655e+10
-3.94995e+10
-3.95334e+10
-3.95416e+10
-3.95142e+10
-3.94691e+10
-3.94174e+10
-3.93482e+10
-3.92496e+10
-3.9122e+10
-3.89626e+10
-3.87736e+10
-3.85591e+10
-3.83267e+10
-3.80859e+10
-3.78467e+10
-3.76184e+10
-3.74073e+10
-3.72173e+10
-3.70494e+10
-3.69023e+10
-3.67711e+10
-3.66488e+10
-3.65295e+10
-3.64125e+10
-3.62994e+10
-3.61945e+10
-3.61067e+10
-3.60465e+10
-3.6023e+10
-3.60365e+10
-3.60745e+10
-3.61098e+10
-3.61045e+10
-3.60268e+10
-3.58837e+10
-3.57214e+10
-3.55115e+10
-3.49548e+10
-3.36761e+10
-3.26309e+10
-3.58521e+10
-4.71187e+10
-5.60179e+10
-2.83808e+10
-3.935e+10
-3.95081e+10
-3.94875e+10
-3.93776e+10
-3.94157e+10
-3.94299e+10
-3.94335e+10
-3.94162e+10
-3.94416e+10
-3.94741e+10
-3.95081e+10
-3.95384e+10
-3.95449e+10
-3.95174e+10
-3.94729e+10
-3.9425e+10
-3.9355e+10
-3.92543e+10
-3.9125e+10
-3.89645e+10
-3.87744e+10
-3.85587e+10
-3.83252e+10
-3.80832e+10
-3.78429e+10
-3.76136e+10
-3.74016e+10
-3.72108e+10
-3.70422e+10
-3.68944e+10
-3.67629e+10
-3.66414e+10
-3.65248e+10
-3.64104e+10
-3.62996e+10
-3.61974e+10
-3.61127e+10
-3.60562e+10
-3.6037e+10
-3.60555e+10
-3.60985e+10
-3.61382e+10
-3.61343e+10
-3.60503e+10
-3.5884e+10
-3.56657e+10
-3.53401e+10
-3.45569e+10
-3.28736e+10
-3.12761e+10
-3.41792e+10
-4.6029e+10
-5.68809e+10
-3.17194e+10
-3.93491e+10
-3.94762e+10
-3.94106e+10
-3.93815e+10
-3.94816e+10
-3.94936e+10
-3.94787e+10
-3.94672e+10
-3.94868e+10
-3.95223e+10
-3.95611e+10
-3.9601e+10
-3.96193e+10
-3.96081e+10
-3.95793e+10
-3.95376e+10
-3.94712e+10
-3.9374e+10
-3.92448e+10
-3.90811e+10
-3.88831e+10
-3.86546e+10
-3.84041e+10
-3.81427e+10
-3.78831e+10
-3.76361e+10
-3.74099e+10
-3.7209e+10
-3.7035e+10
-3.68869e+10
-3.67588e+10
-3.66403e+10
-3.65233e+10
-3.6412e+10
-3.63113e+10
-3.62181e+10
-3.61423e+10
-3.60953e+10
-3.60827e+10
-3.61022e+10
-3.61387e+10
-3.61638e+10
-3.61404e+10
-3.60423e+10
-3.58857e+10
-3.57265e+10
-3.55457e+10
-3.50467e+10
-3.38088e+10
-3.26171e+10
-3.54158e+10
-4.68883e+10
-5.9018e+10
-3.71534e+10
-3.94442e+10
-3.94653e+10
-3.93561e+10
-3.9265e+10
-3.94426e+10
-3.95394e+10
-3.95079e+10
-3.94815e+10
-3.95055e+10
-3.95385e+10
-3.95775e+10
-3.96143e+10
-3.96308e+10
-3.96209e+10
-3.95948e+10
-3.95544e+10
-3.94868e+10
-3.93881e+10
-3.92574e+10
-3.90921e+10
-3.88924e+10
-3.86622e+10
-3.841e+10
-3.81472e+10
-3.78866e+10
-3.76394e+10
-3.74137e+10
-3.72138e+10
-3.70407e+10
-3.68928e+10
-3.6765e+10
-3.66501e+10
-3.65421e+10
-3.64387e+10
-3.63416e+10
-3.62572e+10
-3.61936e+10
-3.61598e+10
-3.61638e+10
-3.62038e+10
-3.62645e+10
-3.63167e+10
-3.63218e+10
-3.62488e+10
-3.61044e+10
-3.59291e+10
-3.56761e+10
-3.49998e+10
-3.34577e+10
-3.21045e+10
-3.57008e+10
-4.88455e+10
-5.87452e+10
-2.9538e+10
-3.92907e+10
-3.93183e+10
-3.93369e+10
-3.92584e+10
-3.93495e+10
-3.94061e+10
-3.94218e+10
-3.9427e+10
-3.94582e+10
-3.95108e+10
-3.95627e+10
-3.96005e+10
-3.96225e+10
-3.96253e+10
-3.96149e+10
-3.95867e+10
-3.95304e+10
-3.94416e+10
-3.93167e+10
-3.91532e+10
-3.8949e+10
-3.87068e+10
-3.84349e+10
-3.81465e+10
-3.78579e+10
-3.75834e+10
-3.73337e+10
-3.71144e+10
-3.69272e+10
-3.67694e+10
-3.66345e+10
-3.65126e+10
-3.63967e+10
-3.62883e+10
-3.61912e+10
-3.61082e+10
-3.60474e+10
-3.6019e+10
-3.60284e+10
-3.60729e+10
-3.61367e+10
-3.61892e+10
-3.61915e+10
-3.61164e+10
-3.59762e+10
-3.58207e+10
-3.56276e+10
-3.50959e+10
-3.37382e+10
-3.20932e+10
-3.3824e+10
-4.45887e+10
-5.98895e+10
-4.28385e+10
-3.94238e+10
-3.93587e+10
-3.92375e+10
-3.91806e+10
-3.93332e+10
-3.94255e+10
-3.94414e+10
-3.9446e+10
-3.94699e+10
-3.95136e+10
-3.95647e+10
-3.96064e+10
-3.96296e+10
-3.96346e+10
-3.96264e+10
-3.95992e+10
-3.95424e+10
-3.94522e+10
-3.93259e+10
-3.91602e+10
-3.89537e+10
-3.87087e+10
-3.84335e+10
-3.81422e+10
-3.78511e+10
-3.75749e+10
-3.73243e+10
-3.71046e+10
-3.69164e+10
-3.67567e+10
-3.66199e+10
-3.64983e+10
-3.63849e+10
-3.62775e+10
-3.61783e+10
-3.60933e+10
-3.60315e+10
-3.60023e+10
-3.60122e+10
-3.60583e+10
-3.61249e+10
-3.61811e+10
-3.61873e+10
-3.61145e+10
-3.59722e+10
-3.58057e+10
-3.55829e+10
-3.49833e+10
-3.35554e+10
-3.22005e+10
-3.53656e+10
-4.7975e+10
-5.94164e+10
-3.29358e+10
-3.93685e+10
-3.93207e+10
-3.92893e+10
-3.92687e+10
-3.93339e+10
-3.93979e+10
-3.94349e+10
-3.9458e+10
-3.94978e+10
-3.95702e+10
-3.96534e+10
-3.97132e+10
-3.97554e+10
-3.97847e+10
-3.97994e+10
-3.97898e+10
-3.97478e+10
-3.96676e+10
-3.95459e+10
-3.93778e+10
-3.91593e+10
-3.88898e+10
-3.85775e+10
-3.82412e+10
-3.79043e+10
-3.75881e+10
-3.73073e+10
-3.70683e+10
-3.68704e+10
-3.67083e+10
-3.6573e+10
-3.64555e+10
-3.63497e+10
-3.62527e+10
-3.61648e+10
-3.60919e+10
-3.60431e+10
-3.60277e+10
-3.60519e+10
-3.61134e+10
-3.61972e+10
-3.6273e+10
-3.63024e+10
-3.62571e+10
-3.61462e+10
-3.60155e+10
-3.58471e+10
-3.53585e+10
-3.40955e+10
-3.26812e+10
-3.48688e+10
-4.55778e+10
-5.66912e+10
-3.05788e+10
-3.9389e+10
-3.93398e+10
-3.92783e+10
-3.92503e+10
-3.93392e+10
-3.93976e+10
-3.94332e+10
-3.94719e+10
-3.95194e+10
-3.95874e+10
-3.96624e+10
-3.97251e+10
-3.97715e+10
-3.98044e+10
-3.98216e+10
-3.9814e+10
-3.97729e+10
-3.96935e+10
-3.95718e+10
-3.94035e+10
-3.91844e+10
-3.89141e+10
-3.86016e+10
-3.82655e+10
-3.79296e+10
-3.76151e+10
-3.73364e+10
-3.70998e+10
-3.69044e+10
-3.67443e+10
-3.66113e+10
-3.64962e+10
-3.63917e+10
-3.62942e+10
-3.62051e+10
-3.61295e+10
-3.60764e+10
-3.60548e+10
-3.60703e+10
-3.61201e+10
-3.61886e+10
-3.62448e+10
-3.62485e+10
-3.617e+10
-3.6017e+10
-3.58344e+10
-3.56002e+10
-3.50227e+10
-3.36566e+10
-3.2239e+10
-3.4847e+10
-4.62745e+10
-5.65026e+10
-2.92438e+10
-3.92582e+10
-3.92143e+10
-3.91866e+10
-3.92167e+10
-3.928e+10
-3.93531e+10
-3.94095e+10
-3.94538e+10
-3.95164e+10
-3.96119e+10
-3.97118e+10
-3.97974e+10
-3.98714e+10
-3.99337e+10
-3.99768e+10
-3.99907e+10
-3.99661e+10
-3.98961e+10
-3.97773e+10
-3.96036e+10
-3.93672e+10
-3.90607e+10
-3.86907e+10
-3.82839e+10
-3.78759e+10
-3.74991e+10
-3.71733e+10
-3.6906e+10
-3.66938e+10
-3.65265e+10
-3.63916e+10
-3.62783e+10
-3.6179e+10
-3.60887e+10
-3.60058e+10
-3.59348e+10
-3.5884e+10
-3.58623e+10
-3.58755e+10
-3.59208e+10
-3.59836e+10
-3.60351e+10
-3.60373e+10
-3.59609e+10
-3.58121e+10
-3.56327e+10
-3.54039e+10
-3.48457e+10
-3.35012e+10
-3.20054e+10
-3.4275e+10
-4.50823e+10
-5.52961e+10
-2.90769e+10
-3.92143e+10
-3.91808e+10
-3.92126e+10
-3.92412e+10
-3.92889e+10
-3.93368e+10
-3.93944e+10
-3.94581e+10
-3.95351e+10
-3.96277e+10
-3.97237e+10
-3.98123e+10
-3.989e+10
-3.99549e+10
-3.99995e+10
-4.00134e+10
-3.99875e+10
-3.99154e+10
-3.97927e+10
-3.96138e+10
-3.93704e+10
-3.90558e+10
-3.86776e+10
-3.82629e+10
-3.78488e+10
-3.74676e+10
-3.71393e+10
-3.68712e+10
-3.66599e+10
-3.64954e+10
-3.63648e+10
-3.62562e+10
-3.61608e+10
-3.60735e+10
-3.59936e+10
-3.59251e+10
-3.5876e+10
-3.5855e+10
-3.58675e+10
-3.59106e+10
-3.59683e+10
-3.60101e+10
-3.5996e+10
-3.58944e+10
-3.57079e+10
-3.54729e+10
-3.51602e+10
-3.44748e+10
-3.29271e+10
-3.10083e+10
-3.23401e+10
-4.25254e+10
-5.57785e+10
-3.30629e+10
-3.91932e+10
-3.91451e+10
-3.91439e+10
-3.92088e+10
-3.9288e+10
-3.93518e+10
-3.94047e+10
-3.94629e+10
-3.95554e+10
-3.96792e+10
-3.97996e+10
-3.9913e+10
-4.00218e+10
-4.01208e+10
-4.02002e+10
-4.02481e+10
-4.02516e+10
-4.02032e+10
-4.0098e+10
-3.99322e+10
-3.96913e+10
-3.93554e+10
-3.89237e+10
-3.84323e+10
-3.79401e+10
-3.74955e+10
-3.71254e+10
-3.68363e+10
-3.66201e+10
-3.64607e+10
-3.6341e+10
-3.62465e+10
-3.61658e+10
-3.60919e+10
-3.60233e+10
-3.59636e+10
-3.59198e+10
-3.58996e+10
-3.59077e+10
-3.59403e+10
-3.59812e+10
-3.60002e+10
-3.59585e+10
-3.58256e+10
-3.56043e+10
-3.53298e+10
-3.49729e+10
-3.4238e+10
-3.26181e+10
-3.05904e+10
-3.19105e+10
-4.23545e+10
-5.55844e+10
-3.19558e+10
-3.91494e+10
-3.91017e+10
-3.91545e+10
-3.92377e+10
-3.92878e+10
-3.93241e+10
-3.93857e+10
-3.946e+10
-3.95552e+10
-3.96699e+10
-3.97873e+10
-3.99016e+10
-4.00104e+10
-4.01085e+10
-4.01863e+10
-4.02317e+10
-4.0233e+10
-4.01824e+10
-4.00766e+10
-3.99104e+10
-3.96699e+10
-3.93356e+10
-3.89065e+10
-3.84185e+10
-3.79287e+10
-3.74849e+10
-3.71137e+10
-3.68217e+10
-3.66018e+10
-3.64393e+10
-3.63169e+10
-3.62197e+10
-3.61369e+10
-3.60623e+10
-3.59948e+10
-3.59384e+10
-3.59006e+10
-3.58896e+10
-3.5911e+10
-3.59623e+10
-3.60285e+10
-3.60813e+10
-3.60838e+10
-3.60075e+10
-3.58577e+10
-3.5672e+10
-3.54217e+10
-3.48039e+10
-3.32765e+10
-3.1193e+10
-3.20828e+10
-4.19069e+10
-5.51146e+10
-3.13394e+10
-3.90916e+10
-3.90431e+10
-3.90463e+10
-3.91066e+10
-3.91965e+10
-3.92606e+10
-3.93195e+10
-3.94059e+10
-3.95317e+10
-3.96797e+10
-3.98333e+10
-3.99909e+10
-4.01493e+10
-4.03006e+10
-4.04327e+10
-4.05299e+10
-4.05751e+10
-4.05561e+10
-4.04692e+10
-4.03148e+10
-4.0074e+10
-3.97037e+10
-3.91773e+10
-3.85449e+10
-3.79138e+10
-3.73654e+10
-3.69334e+10
-3.66189e+10
-3.64034e+10
-3.62605e+10
-3.61654e+10
-3.60985e+10
-3.60462e+10
-3.60006e+10
-3.59612e+10
-3.59329e+10
-3.59245e+10
-3.59455e+10
-3.60018e+10
-3.60914e+10
-3.61998e+10
-3.62993e+10
-3.63546e+10
-3.63397e+10
-3.62636e+10
-3.61686e+10
-3.60313e+10
-3.5554e+10
-3.42161e+10
-3.24533e+10
-3.38823e+10
-4.3834e+10
-5.55802e+10
-2.93046e+10
-3.90921e+10
-3.90389e+10
-3.90586e+10
-3.91328e+10
-3.91951e+10
-3.92474e+10
-3.93248e+10
-3.94203e+10
-3.95363e+10
-3.96735e+10
-3.98227e+10
-3.99778e+10
-4.0133e+10
-4.02812e+10
-4.04103e+10
-4.0505e+10
-4.05481e+10
-4.05268e+10
-4.04382e+10
-4.02819e+10
-4.0041e+10
-3.96731e+10
-3.91528e+10
-3.85298e+10
-3.79072e+10
-3.73658e+10
-3.69383e+10
-3.66259e+10
-3.64108e+10
-3.62679e+10
-3.61718e+10
-3.61024e+10
-3.60458e+10
-3.59942e+10
-3.59473e+10
-3.59101e+10
-3.5892e+10
-3.59029e+10
-3.59497e+10
-3.60316e+10
-3.61362e+10
-3.62388e+10
-3.6308e+10
-3.63238e+10
-3.63024e+10
-3.62957e+10
-3.62912e+10
-3.59991e+10
-3.48882e+10
-3.33925e+10
-3.53066e+10
-4.59018e+10
-5.62958e+10
-2.95358e+10
-3.90813e+10
-3.90578e+10
-3.90396e+10
-3.90609e+10
-3.91354e+10
-3.92072e+10
-3.92888e+10
-3.94077e+10
-3.95589e+10
-3.97294e+10
-3.99196e+10
-4.0124e+10
-4.03346e+10
-4.05415e+10
-4.07302e+10
-4.08819e+10
-4.09763e+10
-4.09959e+10
-4.09377e+10
-4.08098e+10
-4.05999e+10
-4.02266e+10
-3.95939e+10
-3.87523e+10
-3.79057e+10
-3.72119e+10
-3.67089e+10
-3.63813e+10
-3.61854e+10
-3.60761e+10
-3.60167e+10
-3.59806e+10
-3.59515e+10
-3.59215e+10
-3.58915e+10
-3.58686e+10
-3.5864e+10
-3.58897e+10
-3.59546e+10
-3.6059e+10
-3.6191e+10
-3.63264e+10
-3.64357e+10
-3.6502e+10
-3.65471e+10
-3.66281e+10
-3.67321e+10
-3.65598e+10
-3.5593e+10
-3.43806e+10
-3.68649e+10
-4.80256e+10
-5.8611e+10
-3.09572e+10
-3.9097e+10
-3.90587e+10
-3.9038e+10
-3.90648e+10
-3.91311e+10
-3.92152e+10
-3.93056e+10
-3.94211e+10
-3.95642e+10
-3.97324e+10
-3.9921e+10
-4.01234e+10
-4.03318e+10
-4.05362e+10
-4.0722e+10
-4.08707e+10
-4.09618e+10
-4.09785e+10
-4.09171e+10
-4.07866e+10
-4.05746e+10
-4.02022e+10
-3.95757e+10
-3.87424e+10
-3.79035e+10
-3.72155e+10
-3.6717e+10
-3.63923e+10
-3.61989e+10
-3.60927e+10
-3.60368e+10
-3.60048e+10
-3.59798e+10
-3.5954e+10
-3.59282e+10
-3.59094e+10
-3.59083e+10
-3.59369e+10
-3.60033e+10
-3.61074e+10
-3.6237e+10
-3.63676e+10
-3.64692e+10
-3.65248e+10
-3.65556e+10
-3.66171e+10
-3.66921e+10
-3.64692e+10
-3.53914e+10
-3.38884e+10
-3.57598e+10
-4.68956e+10
-6.04101e+10
-3.72575e+10
-3.89522e+10
-3.89442e+10
-3.89096e+10
-3.89126e+10
-3.89647e+10
-3.90415e+10
-3.91442e+10
-3.92811e+10
-3.94536e+10
-3.96593e+10
-3.98946e+10
-4.01534e+10
-4.04272e+10
-4.07043e+10
-4.09676e+10
-4.11953e+10
-4.13628e+10
-4.1446e+10
-4.14358e+10
-4.13547e+10
-4.12209e+10
-4.09264e+10
-4.02225e+10
-3.90767e+10
-3.78737e+10
-3.69839e+10
-3.6421e+10
-3.61112e+10
-3.59672e+10
-3.59192e+10
-3.59178e+10
-3.59304e+10
-3.59384e+10
-3.59348e+10
-3.59214e+10
-3.59063e+10
-3.59022e+10
-3.5922e+10
-3.59745e+10
-3.60595e+10
-3.61643e+10
-3.62636e+10
-3.63275e+10
-3.63407e+10
-3.63262e+10
-3.63385e+10
-3.63485e+10
-3.60255e+10
-3.48209e+10
-3.32659e+10
-3.54294e+10
-4.75605e+10
-6.25843e+10
-3.97314e+10
-3.89537e+10
-3.89286e+10
-3.89029e+10
-3.89131e+10
-3.89777e+10
-3.90615e+10
-3.91578e+10
-3.92938e+10
-3.94666e+10
-3.96724e+10
-3.99078e+10
-4.01668e+10
-4.04408e+10
-4.07176e+10
-4.09798e+10
-4.12054e+10
-4.13696e+10
-4.1449e+10
-4.14355e+10
-4.13524e+10
-4.12167e+10
-4.09166e+10
-4.02034e+10
-3.90476e+10
-3.7835e+10
-3.69408e+10
-3.63764e+10
-3.60677e+10
-3.59282e+10
-3.5887e+10
-3.58943e+10
-3.59173e+10
-3.59378e+10
-3.59489e+10
-3.59526e+10
-3.59578e+10
-3.59773e+10
-3.60242e+10
-3.61067e+10
-3.62239e+10
-3.63614e+10
-3.64915e+10
-3.65809e+10
-3.66094e+10
-3.65931e+10
-3.65772e+10
-3.65208e+10
-3.60774e+10
-3.46555e+10
-3.26274e+10
-3.37785e+10
-4.50957e+10
-6.25303e+10
-4.37362e+10
-3.88697e+10
-3.88596e+10
-3.88538e+10
-3.88758e+10
-3.89263e+10
-3.90098e+10
-3.91307e+10
-3.92924e+10
-3.94975e+10
-3.97455e+10
-4.00323e+10
-4.03519e+10
-4.06961e+10
-4.10523e+10
-4.13999e+10
-4.17115e+10
-4.19557e+10
-4.2101e+10
-4.21282e+10
-4.20707e+10
-4.20113e+10
-4.18637e+10
-4.11094e+10
-3.936e+10
-3.7402e+10
-3.62741e+10
-3.57652e+10
-3.5581e+10
-3.55841e+10
-3.56703e+10
-3.57806e+10
-3.58818e+10
-3.59598e+10
-3.60121e+10
-3.60439e+10
-3.6066e+10
-3.60921e+10
-3.61362e+10
-3.62079e+10
-3.6308e+10
-3.64234e+10
-3.65284e+10
-3.6592e+10
-3.65968e+10
-3.65609e+10
-3.65264e+10
-3.64395e+10
-3.59487e+10
-3.45441e+10
-3.28675e+10
-3.49055e+10
-4.64915e+10
-6.11496e+10
-3.97689e+10
-3.88497e+10
-3.88412e+10
-3.885e+10
-3.8881e+10
-3.89374e+10
-3.90155e+10
-3.91309e+10
-3.92897e+10
-3.94922e+10
-3.97364e+10
-4.00183e+10
-4.03322e+10
-4.06699e+10
-4.10185e+10
-4.13574e+10
-4.16585e+10
-4.18911e+10
-4.20258e+10
-4.20479e+10
-4.1991e+10
-4.19332e+10
-4.17901e+10
-4.10708e+10
-3.93812e+10
-3.74791e+10
-3.63374e+10
-3.57857e+10
-3.55659e+10
-3.55465e+10
-3.56193e+10
-3.57218e+10
-3.58184e+10
-3.58941e+10
-3.59461e+10
-3.59799e+10
-3.6007e+10
-3.60417e+10
-3.60988e+10
-3.61888e+10
-3.6313e+10
-3.64595e+10
-3.66037e+10
-3.67157e+10
-3.67793e+10
-3.68137e+10
-3.6861e+10
-3.68665e+10
-3.64751e+10
-3.51545e+10
-3.34929e+10
-3.54819e+10
-4.69348e+10
-5.99916e+10
-3.47006e+10
-3.86837e+10
-3.86412e+10
-3.8659e+10
-3.86835e+10
-3.87222e+10
-3.87883e+10
-3.88986e+10
-3.90608e+10
-3.92795e+10
-3.95551e+10
-3.98851e+10
-4.02659e+10
-4.06948e+10
-4.11636e+10
-4.16478e+10
-4.21041e+10
-4.24889e+10
-4.27672e+10
-4.29075e+10
-4.29286e+10
-4.29691e+10
-4.3101e+10
-4.25981e+10
-3.9943e+10
-3.64264e+10
-3.48646e+10
-3.44466e+10
-3.44842e+10
-3.47512e+10
-3.50539e+10
-3.53208e+10
-3.5529e+10
-3.56786e+10
-3.5778e+10
-3.58395e+10
-3.58784e+10
-3.59115e+10
-3.59549e+10
-3.60203e+10
-3.61107e+10
-3.62169e+10
-3.63175e+10
-3.63865e+10
-3.64112e+10
-3.64134e+10
-3.64343e+10
-3.64147e+10
-3.60131e+10
-3.48181e+10
-3.37752e+10
-3.70898e+10
-4.89034e+10
-5.8132e+10
-3.0681e+10
-3.86708e+10
-3.86519e+10
-3.86709e+10
-3.86981e+10
-3.87334e+10
-3.87936e+10
-3.88973e+10
-3.90515e+10
-3.92607e+10
-3.95249e+10
-3.98415e+10
-4.02079e+10
-4.06219e+10
-4.1075e+10
-4.1543e+10
-4.19843e+10
-4.23558e+10
-4.26207e+10
-4.27456e+10
-4.27469e+10
-4.27805e+10
-4.29674e+10
-4.25939e+10
-4.01528e+10
-3.68033e+10
-3.51919e+10
-3.46787e+10
-3.46448e+10
-3.48537e+10
-3.51119e+10
-3.5347e+10
-3.55315e+10
-3.56622e+10
-3.57452e+10
-3.5792e+10
-3.58178e+10
-3.58395e+10
-3.58732e+10
-3.5931e+10
-3.60168e+10
-3.61227e+10
-3.6229e+10
-3.6312e+10
-3.63612e+10
-3.64014e+10
-3.64757e+10
-3.65229e+10
-3.6188e+10
-3.50164e+10
-3.38321e+10
-3.66571e+10
-4.77555e+10
-5.71624e+10
-2.95438e+10
-3.84881e+10
-3.84477e+10
-3.84708e+10
-3.8485e+10
-3.85184e+10
-3.85831e+10
-3.87022e+10
-3.88921e+10
-3.91647e+10
-3.9524e+10
-3.99683e+10
-4.04937e+10
-4.11012e+10
-4.17866e+10
-4.25103e+10
-4.31909e+10
-4.37723e+10
-4.42347e+10
-4.45287e+10
-4.46441e+10
-4.46918e+10
-4.49747e+10
-4.54946e+10
-4.28906e+10
-3.7469e+10
-3.32911e+10
-3.31121e+10
-3.3645e+10
-3.42413e+10
-3.47271e+10
-3.50953e+10
-3.53606e+10
-3.55438e+10
-3.56626e+10
-3.57349e+10
-3.57792e+10
-3.5814e+10
-3.58554e+10
-3.59144e+10
-3.59933e+10
-3.60826e+10
-3.61614e+10
-3.62045e+10
-3.62004e+10
-3.61711e+10
-3.61571e+10
-3.61012e+10
-3.56789e+10
-3.4517e+10
-3.35217e+10
-3.65192e+10
-4.74201e+10
-5.71573e+10
-2.9485e+10
-3.84646e+10
-3.84384e+10
-3.8457e+10
-3.84684e+10
-3.84964e+10
-3.85567e+10
-3.86702e+10
-3.88534e+10
-3.91181e+10
-3.94682e+10
-3.99027e+10
-4.04213e+10
-4.10269e+10
-4.17128e+10
-4.24363e+10
-4.31162e+10
-4.36842e+10
-4.41062e+10
-4.43427e+10
-4.43847e+10
-4.44317e+10
-4.4978e+10
-4.5729e+10
-4.33317e+10
-3.79386e+10
-3.31937e+10
-3.30934e+10
-3.3665e+10
-3.42705e+10
-3.47543e+10
-3.51179e+10
-3.53794e+10
-3.55594e+10
-3.56756e+10
-3.57452e+10
-3.57857e+10
-3.58148e+10
-3.58479e+10
-3.58956e+10
-3.59595e+10
-3.60296e+10
-3.60837e+10
-3.60956e+10
-3.60519e+10
-3.59718e+10
-3.58897e+10
-3.57334e+10
-3.51382e+10
-3.36549e+10
-3.21067e+10
-3.43066e+10
-4.46672e+10
-5.65193e+10
-3.59387e+10
-3.8416e+10
-3.84142e+10
-3.84119e+10
-3.84122e+10
-3.84325e+10
-3.84919e+10
-3.86138e+10
-3.88197e+10
-3.9123e+10
-3.95247e+10
-4.0017e+10
-4.05894e+10
-4.12438e+10
-4.1975e+10
-4.27262e+10
-4.34036e+10
-4.39666e+10
-4.43935e+10
-4.46734e+10
-4.48049e+10
-4.4865e+10
-4.5319e+10
-4.64214e+10
-4.6687e+10
-4.27761e+10
-2.76248e+10
-3.05051e+10
-3.25404e+10
-3.37422e+10
-3.44765e+10
-3.4965e+10
-3.52954e+10
-3.55196e+10
-3.56687e+10
-3.57669e+10
-3.58353e+10
-3.58927e+10
-3.59548e+10
-3.60311e+10
-3.61213e+10
-3.62127e+10
-3.62803e+10
-3.62945e+10
-3.62383e+10
-3.61284e+10
-3.60027e+10
-3.58097e+10
-3.52375e+10
-3.39043e+10
-3.26596e+10
-3.54432e+10
-4.68524e+10
-5.84308e+10
-3.48708e+10
-3.84046e+10
-3.84097e+10
-3.84014e+10
-3.83997e+10
-3.84182e+10
-3.84763e+10
-3.85951e+10
-3.87945e+10
-3.90872e+10
-3.9476e+10
-3.99567e+10
-4.05253e+10
-4.11831e+10
-4.19198e+10
-4.26803e+10
-4.33674e+10
-4.39178e+10
-4.43084e+10
-4.45368e+10
-4.46108e+10
-4.47261e+10
-4.55322e+10
-4.67368e+10
-4.70513e+10
-4.36751e+10
-2.74563e+10
-3.03913e+10
-3.24454e+10
-3.36849e+10
-3.44411e+10
-3.49416e+10
-3.52783e+10
-3.55064e+10
-3.56582e+10
-3.57583e+10
-3.58275e+10
-3.58845e+10
-3.59448e+10
-3.60176e+10
-3.61024e+10
-3.6186e+10
-3.62431e+10
-3.62439e+10
-3.61705e+10
-3.60381e+10
-3.58802e+10
-3.56311e+10
-3.49383e+10
-3.33795e+10
-3.20336e+10
-3.57093e+10
-4.89963e+10
-5.82444e+10
-2.91943e+10
-3.83675e+10
-3.83893e+10
-3.83761e+10
-3.83759e+10
-3.83953e+10
-3.84581e+10
-3.85871e+10
-3.88048e+10
-3.91227e+10
-3.95339e+10
-4.00208e+10
-4.05834e+10
-4.12298e+10
-4.19573e+10
-4.2699e+10
-4.33618e+10
-4.39181e+10
-4.4361e+10
-4.4679e+10
-4.48602e+10
-4.49265e+10
-4.52458e+10
-4.69126e+10
-4.51779e+10
-2.13827e+10
-3.01213e+10
-3.22669e+10
-3.35531e+10
-3.43327e+10
-3.48402e+10
-3.51752e+10
-3.53973e+10
-3.55415e+10
-3.5634e+10
-3.56965e+10
-3.57485e+10
-3.58057e+10
-3.58774e+10
-3.59631e+10
-3.60498e+10
-3.61125e+10
-3.61216e+10
-3.60602e+10
-3.59468e+10
-3.58267e+10
-3.56649e+10
-3.51654e+10
-3.39067e+10
-3.25592e+10
-3.47397e+10
-4.51627e+10
-5.81664e+10
-3.90307e+10
-3.83922e+10
-3.84318e+10
-3.84113e+10
-3.8411e+10
-3.84287e+10
-3.84878e+10
-3.86089e+10
-3.88129e+10
-3.91125e+10
-3.95077e+10
-3.99904e+10
-4.05553e+10
-4.12074e+10
-4.19384e+10
-4.26892e+10
-4.3365e+10
-4.39105e+10
-4.43128e+10
-4.45765e+10
-4.46552e+10
-4.47236e+10
-4.54473e+10
-4.70903e+10
-4.65197e+10
-2.26323e+10
-3.00924e+10
-3.21954e+10
-3.34929e+10
-3.42883e+10
-3.48047e+10
-3.51436e+10
-3.53657e+10
-3.5507e+10
-3.55941e+10
-3.56494e+10
-3.5693e+10
-3.57412e+10
-3.58044e+10
-3.58837e+10
-3.59676e+10
-3.60334e+10
-3.60537e+10
-3.60142e+10
-3.5935e+10
-3.58605e+10
-3.57502e+10
-3.52904e+10
-3.40671e+10
-3.30068e+10
-3.64147e+10
-4.86052e+10
-5.84964e+10
-3.06289e+10
-3.84176e+10
-3.84214e+10
-3.84207e+10
-3.84277e+10
-3.84552e+10
-3.85215e+10
-3.8647e+10
-3.88518e+10
-3.91484e+10
-3.95336e+10
-3.99915e+10
-4.0518e+10
-4.11225e+10
-4.18019e+10
-4.24997e+10
-4.31486e+10
-4.36976e+10
-4.4141e+10
-4.44731e+10
-4.46337e+10
-4.47003e+10
-4.50185e+10
-4.57251e+10
-4.51969e+10
-3.67376e+10
-3.24723e+10
-3.25523e+10
-3.33316e+10
-3.40738e+10
-3.46277e+10
-3.50192e+10
-3.5288e+10
-3.54668e+10
-3.55797e+10
-3.56468e+10
-3.56868e+10
-3.57174e+10
-3.57537e+10
-3.58051e+10
-3.58721e+10
-3.59437e+10
-3.59981e+10
-3.60094e+10
-3.59658e+10
-3.58915e+10
-3.58411e+10
-3.57974e+10
-3.54885e+10
-3.45093e+10
-3.35679e+10
-3.6419e+10
-4.73087e+10
-5.6646e+10
-3.02697e+10
-3.84716e+10
-3.8483e+10
-3.84825e+10
-3.84917e+10
-3.85204e+10
-3.85854e+10
-3.87049e+10
-3.8896e+10
-3.91692e+10
-3.95249e+10
-3.99563e+10
-4.04606e+10
-4.10421e+10
-4.16963e+10
-4.23842e+10
-4.30443e+10
-4.3623e+10
-4.409e+10
-4.43908e+10
-4.44662e+10
-4.44894e+10
-4.49853e+10
-4.55838e+10
-4.50144e+10
-3.73179e+10
-3.21827e+10
-3.23024e+10
-3.31664e+10
-3.39737e+10
-3.4568e+10
-3.49812e+10
-3.52603e+10
-3.54427e+10
-3.55548e+10
-3.56184e+10
-3.5653e+10
-3.56773e+10
-3.57068e+10
-3.57519e+10
-3.58143e+10
-3.58839e+10
-3.594e+10
-3.59571e+10
-3.59222e+10
-3.58561e+10
-3.58055e+10
-3.57404e+10
-3.53672e+10
-3.42412e+10
-3.29673e+10
-3.52483e+10
-4.60139e+10
-5.70498e+10
-3.09526e+10
-3.86583e+10
-3.86447e+10
-3.86606e+10
-3.86808e+10
-3.87211e+10
-3.8791e+10
-3.89036e+10
-3.90697e+10
-3.92955e+10
-3.95794e+10
-3.9914e+10
-4.02931e+10
-4.07138e+10
-4.11653e+10
-4.16175e+10
-4.20304e+10
-4.23635e+10
-4.25899e+10
-4.26891e+10
-4.26705e+10
-4.26815e+10
-4.28421e+10
-4.24783e+10
-4.00911e+10
-3.69851e+10
-3.53029e+10
-3.47172e+10
-3.46383e+10
-3.48146e+10
-3.50404e+10
-3.52471e+10
-3.54087e+10
-3.55227e+10
-3.55939e+10
-3.56326e+10
-3.56516e+10
-3.56651e+10
-3.56861e+10
-3.57223e+10
-3.57735e+10
-3.58284e+10
-3.58654e+10
-3.58592e+10
-3.57982e+10
-3.57065e+10
-3.5639e+10
-3.55837e+10
-3.52801e+10
-3.43118e+10
-3.32639e+10
-3.57275e+10
-4.63257e+10
-5.66737e+10
-2.96914e+10
-3.866e+10
-3.86498e+10
-3.86642e+10
-3.86851e+10
-3.87258e+10
-3.87957e+10
-3.89075e+10
-3.90711e+10
-3.92923e+10
-3.95699e+10
-3.98982e+10
-4.02714e+10
-4.0685e+10
-4.11281e+10
-4.15747e+10
-4.19897e+10
-4.23387e+10
-4.25909e+10
-4.27105e+10
-4.27034e+10
-4.27284e+10
-4.29137e+10
-4.25188e+10
-4.01326e+10
-3.68836e+10
-3.50868e+10
-3.45141e+10
-3.44832e+10
-3.47009e+10
-3.49535e+10
-3.51748e+10
-3.53432e+10
-3.54592e+10
-3.55301e+10
-3.55673e+10
-3.55851e+10
-3.55983e+10
-3.56205e+10
-3.56604e+10
-3.57179e+10
-3.57822e+10
-3.58312e+10
-3.58374e+10
-3.57849e+10
-3.5689e+10
-3.55901e+10
-3.54552e+10
-3.49923e+10
-3.37013e+10
-3.18871e+10
-3.27747e+10
-4.23992e+10
-5.68856e+10
-3.97415e+10
-3.87773e+10
-3.87731e+10
-3.87966e+10
-3.88312e+10
-3.88871e+10
-3.89699e+10
-3.90879e+10
-3.9247e+10
-3.94498e+10
-3.96945e+10
-3.99759e+10
-4.02864e+10
-4.06162e+10
-4.09502e+10
-4.12659e+10
-4.15376e+10
-4.17399e+10
-4.18459e+10
-4.18341e+10
-4.17288e+10
-4.16112e+10
-4.14215e+10
-4.06977e+10
-3.91043e+10
-3.73462e+10
-3.62287e+10
-3.56332e+10
-3.53658e+10
-3.53161e+10
-3.53717e+10
-3.54654e+10
-3.55571e+10
-3.56287e+10
-3.5675e+10
-3.56998e+10
-3.57121e+10
-3.57241e+10
-3.57468e+10
-3.57869e+10
-3.58429e+10
-3.59027e+10
-3.59442e+10
-3.5942e+10
-3.58841e+10
-3.57938e+10
-3.57247e+10
-3.56663e+10
-3.53654e+10
-3.44126e+10
-3.33518e+10
-3.55647e+10
-4.54732e+10
-5.58192e+10
-2.97053e+10
-3.87643e+10
-3.87647e+10
-3.87865e+10
-3.88219e+10
-3.88789e+10
-3.8964e+10
-3.90854e+10
-3.92492e+10
-3.94584e+10
-3.97115e+10
-4.00033e+10
-4.03262e+10
-4.06698e+10
-4.10183e+10
-4.13491e+10
-4.16351e+10
-4.18476e+10
-4.1957e+10
-4.19469e+10
-4.18474e+10
-4.17352e+10
-4.15328e+10
-4.07703e+10
-3.91069e+10
-3.72684e+10
-3.61103e+10
-3.55227e+10
-3.52777e+10
-3.52487e+10
-3.53185e+10
-3.54195e+10
-3.55139e+10
-3.55856e+10
-3.56311e+10
-3.56554e+10
-3.56686e+10
-3.56835e+10
-3.57116e+10
-3.576e+10
-3.58269e+10
-3.59e+10
-3.59564e+10
-3.59691e+10
-3.59226e+10
-3.58329e+10
-3.57416e+10
-3.56208e+10
-3.51851e+10
-3.39293e+10
-3.21393e+10
-3.30274e+10
-4.24383e+10
-5.61158e+10
-3.73353e+10
-3.88654e+10
-3.88687e+10
-3.88915e+10
-3.8929e+10
-3.89867e+10
-3.90688e+10
-3.91805e+10
-3.93254e+10
-3.95046e+10
-3.97168e+10
-3.99578e+10
-4.02209e+10
-4.04961e+10
-4.07694e+10
-4.10228e+10
-4.12355e+10
-4.13863e+10
-4.14526e+10
-4.142e+10
-4.13029e+10
-4.11133e+10
-4.07459e+10
-3.99698e+10
-3.87793e+10
-3.75694e+10
-3.66861e+10
-3.61421e+10
-3.58587e+10
-3.57511e+10
-3.57449e+10
-3.57867e+10
-3.58411e+10
-3.58884e+10
-3.59209e+10
-3.59401e+10
-3.59533e+10
-3.59714e+10
-3.60045e+10
-3.6058e+10
-3.61295e+10
-3.6206e+10
-3.62651e+10
-3.62816e+10
-3.6244e+10
-3.61769e+10
-3.61354e+10
-3.6109e+10
-3.58417e+10
-3.49308e+10
-3.39916e+10
-3.65952e+10
-4.72041e+10
-5.75661e+10
-3.2184e+10
-3.88636e+10
-3.88628e+10
-3.88852e+10
-3.89213e+10
-3.89782e+10
-3.90599e+10
-3.91719e+10
-3.93182e+10
-3.95003e+10
-3.97169e+10
-3.99643e+10
-4.02359e+10
-4.05218e+10
-4.08078e+10
-4.10755e+10
-4.13029e+10
-4.14657e+10
-4.15392e+10
-4.15102e+10
-4.13953e+10
-4.12056e+10
-4.08245e+10
-4.00114e+10
-3.87729e+10
-3.7525e+10
-3.66352e+10
-3.61035e+10
-3.58345e+10
-3.57374e+10
-3.57368e+10
-3.57805e+10
-3.58346e+10
-3.58808e+10
-3.59124e+10
-3.59313e+10
-3.59453e+10
-3.59654e+10
-3.60013e+10
-3.60583e+10
-3.61331e+10
-3.62113e+10
-3.62688e+10
-3.62785e+10
-3.62265e+10
-3.61333e+10
-3.60489e+10
-3.5956e+10
-3.55822e+10
-3.44831e+10
-3.32933e+10
-3.59933e+10
-4.75957e+10
-5.82984e+10
-2.95817e+10
-3.89715e+10
-3.89736e+10
-3.89959e+10
-3.90319e+10
-3.90861e+10
-3.91607e+10
-3.92587e+10
-3.93819e+10
-3.95302e+10
-3.97018e+10
-3.98932e+10
-4.00988e+10
-4.03102e+10
-4.05168e+10
-4.0705e+10
-4.08579e+10
-4.0955e+10
-4.09787e+10
-4.09234e+10
-4.07954e+10
-4.05802e+10
-4.01966e+10
-3.95518e+10
-3.87004e+10
-3.7849e+10
-3.71633e+10
-3.66814e+10
-3.63821e+10
-3.62183e+10
-3.61421e+10
-3.61148e+10
-3.61084e+10
-3.61056e+10
-3.60984e+10
-3.6087e+10
-3.60774e+10
-3.60783e+10
-3.60979e+10
-3.61396e+10
-3.61985e+10
-3.62588e+10
-3.6295e+10
-3.62787e+10
-3.61952e+10
-3.60657e+10
-3.59394e+10
-3.57914e+10
-3.53337e+10
-3.41171e+10
-3.27171e+10
-3.48125e+10
-4.62166e+10
-6.14083e+10
-4.16278e+10
-3.89777e+10
-3.89723e+10
-3.89961e+10
-3.90307e+10
-3.90837e+10
-3.91567e+10
-3.92531e+10
-3.93746e+10
-3.95214e+10
-3.96916e+10
-3.98818e+10
-4.00864e+10
-4.02976e+10
-4.05048e+10
-4.06942e+10
-4.08486e+10
-4.09477e+10
-4.09735e+10
-4.09202e+10
-4.07951e+10
-4.05835e+10
-4.02017e+10
-3.95577e+10
-3.8704e+10
-3.78535e+10
-3.71692e+10
-3.6688e+10
-3.63862e+10
-3.62176e+10
-3.61359e+10
-3.61037e+10
-3.60941e+10
-3.609e+10
-3.60838e+10
-3.60755e+10
-3.60706e+10
-3.60776e+10
-3.61037e+10
-3.61513e+10
-3.62139e+10
-3.62743e+10
-3.63052e+10
-3.6276e+10
-3.61705e+10
-3.60082e+10
-3.58381e+10
-3.56347e+10