/*--------------------------------*- C++ -*----------------------------------*\
| =========                 |                                                 |
| \\      /  F ield         | OpenFOAM: The Open Source CFD Toolbox           |
|  \\    /   O peration     | Version:  4.1                                   |
|   \\  /    A nd           | Web:      www.OpenFOAM.org                      |
|    \\/     M anipulation  |                                                 |
\*---------------------------------------------------------------------------*/
FoamFile
{
    version     2.0;
    format      ascii;
    class       surfaceScalarField;
    location    "57";
    object      phi;
}
// * * * * * * * * * * * * * * * * * * * * * * * * * * * * * * * * * * * * * //

dimensions      [0 3 -1 0 0 0 0];

internalField   nonuniform List<scalar> 
11516
(
-4.13226e+10
-7.52969e+06
4.58126e+08
-4.16235e+10
-2.9018e+07
2.69596e+08
-4.18917e+10
-5.02028e+07
2.61634e+08
-4.19638e+10
-1.13701e+08
1.32314e+08
-4.20949e+10
-6.32369e+07
1.43324e+08
-4.22368e+10
-6.2178e+07
1.55369e+08
-4.23521e+10
-7.05392e+07
1.38493e+08
-4.24724e+10
-6.76617e+07
1.41192e+08
-4.25854e+10
-6.77887e+07
1.34352e+08
-4.2687e+10
-6.75808e+07
1.22853e+08
-4.27718e+10
-6.76476e+07
1.05432e+08
-4.28347e+10
-6.87634e+07
8.1964e+07
-4.28681e+10
-7.20046e+07
4.83933e+07
-4.28683e+10
-7.68948e+07
8.40161e+06
-4.28289e+10
-8.26093e+07
-3.95925e+07
-4.2744e+10
-8.81066e+07
-9.49234e+07
-4.26057e+10
-9.25786e+07
-1.53157e+08
-4.24064e+10
-9.74286e+07
-2.18222e+08
-4.21402e+10
-1.02219e+08
-2.83734e+08
-4.18034e+10
-1.07407e+08
-3.52342e+08
-4.139e+10
-1.11928e+08
-4.19775e+08
-4.09053e+10
-1.16575e+08
-4.80877e+08
-4.03489e+10
-1.20532e+08
-5.37774e+08
-3.9734e+10
-1.24425e+08
-5.82119e+08
-3.90703e+10
-1.28198e+08
-6.18236e+08
-3.83771e+10
-1.32038e+08
-6.38184e+08
-3.76675e+10
-1.35892e+08
-6.47876e+08
-3.69597e+10
-1.39604e+08
-6.41298e+08
-3.62644e+10
-1.43057e+08
-6.24938e+08
-3.55935e+10
-1.46241e+08
-5.97274e+08
-3.49569e+10
-1.49199e+08
-5.59754e+08
-3.43603e+10
-1.52221e+08
-5.16387e+08
-3.38132e+10
-1.55484e+08
-4.6311e+08
-3.33208e+10
-1.59255e+08
-4.03488e+08
-3.28885e+10
-1.63782e+08
-3.36785e+08
-3.25217e+10
-1.69794e+08
-2.61562e+08
-3.22211e+10
-1.7852e+08
-1.80686e+08
-3.19882e+10
-1.91314e+08
-9.11911e+07
-3.18172e+10
-2.08918e+08
849360
-3.17075e+10
-2.31709e+08
1.00407e+08
-3.16652e+10
-2.60836e+08
2.14638e+08
-3.17004e+10
-2.99113e+08
3.48895e+08
-3.18303e+10
-3.47703e+08
5.11102e+08
-3.20827e+10
-4.08195e+08
7.11599e+08
-3.25054e+10
-4.83482e+08
9.67211e+08
-3.31827e+10
-5.765e+08
1.29936e+09
-3.42334e+10
-6.96741e+08
1.72494e+09
-3.57458e+10
-8.9107e+08
2.21086e+09
-3.7679e+10
-1.28724e+09
2.74072e+09
-3.98744e+10
-2.11864e+09
3.38373e+09
-4.37577e+10
-3.02923e+09
5.28805e+09
-5.19469e+10
-2.072e+09
9.16506e+09
-6.44267e+10
-5.67865e+09
1.74922e+10
-1.22777e+09
1.04615e+10
-5.60456e+10
1.09189e+08
-5.60548e+10
-5.12221e+07
-5.60526e+10
-8.29036e+07
-5.60845e+10
-1.10971e+08
-5.60309e+10
-1.44452e+08
-5.59831e+10
-1.36481e+08
-5.59329e+10
-1.46507e+08
-5.58789e+10
-1.47138e+08
-5.5816e+10
-1.55983e+08
-5.5742e+10
-1.66936e+08
-5.56527e+10
-1.82784e+08
-5.55471e+10
-2.02373e+08
-5.54197e+10
-2.31366e+08
-5.52706e+10
-2.64626e+08
-5.50946e+10
-3.04993e+08
-5.48858e+10
-3.49929e+08
-5.46399e+10
-3.97157e+08
-5.43496e+10
-4.50114e+08
-5.40135e+10
-5.03162e+08
-5.36274e+10
-5.58071e+08
-5.31892e+10
-6.12717e+08
-5.27035e+10
-6.6049e+08
-5.21711e+10
-7.05874e+08
-5.16038e+10
-7.39117e+08
-5.10082e+10
-7.66351e+08
-5.04008e+10
-7.78824e+08
-4.979e+10
-7.84055e+08
-4.91908e+10
-7.74936e+08
-4.86101e+10
-7.5901e+08
-4.80568e+10
-7.33913e+08
-4.75385e+10
-7.01129e+08
-4.70577e+10
-6.65617e+08
-4.66213e+10
-6.23249e+08
-4.6232e+10
-5.78348e+08
-4.58933e+10
-5.30095e+08
-4.56103e+10
-4.77357e+08
-4.53851e+10
-4.23988e+08
-4.52255e+10
-3.65372e+08
-4.51353e+10
-3.06291e+08
-4.51216e+10
-2.43731e+08
-4.51945e+10
-1.76761e+08
-4.53644e+10
-1.07868e+08
-4.5651e+10
-2.98533e+07
-4.60849e+10
6.62625e+07
-4.67163e+10
1.9207e+08
-4.76245e+10
3.65297e+08
-4.8939e+10
6.07325e+08
-5.08435e+10
9.16445e+08
-5.37162e+10
1.31617e+09
-5.84938e+10
2.1223e+09
-6.66081e+10
4.54565e+09
-7.75027e+10
8.23091e+09
-9.9903e+10
1.63078e+10
1.71995e+10
-6.81551e+10
433922
5.21104e+08
-6.82495e+10
-2.00835e+07
3.49284e+08
-6.83417e+10
-2.8237e+07
3.4689e+08
-6.84681e+10
-2.02679e+07
2.45001e+08
-6.85295e+10
-2.84261e+07
2.01232e+08
-6.85964e+10
-2.27899e+07
2.14651e+08
-6.86715e+10
-2.04906e+07
2.04669e+08
-6.87378e+10
-1.75902e+07
1.96182e+08
-6.87973e+10
-1.68162e+07
1.8222e+08
-6.88521e+10
-1.47407e+07
1.64229e+08
-6.88977e+10
-1.38463e+07
1.36707e+08
-6.89308e+10
-1.38414e+07
9.98421e+07
-6.89521e+10
-1.54603e+07
5.17567e+07
-6.89583e+10
-1.82196e+07
-5.40842e+06
-6.89508e+10
-2.25801e+07
-7.29721e+07
-6.89307e+10
-2.68535e+07
-1.43733e+08
-6.88991e+10
-3.12408e+07
-2.17642e+08
-6.88549e+10
-3.56637e+07
-2.94522e+08
-6.87957e+10
-4.14359e+07
-3.7287e+08
-6.87196e+10
-4.75427e+07
-4.51045e+08
-6.86285e+10
-5.46199e+07
-5.24226e+08
-6.85224e+10
-6.22505e+07
-5.88199e+08
-6.84059e+10
-7.05685e+07
-6.4027e+08
-6.8278e+10
-7.95651e+07
-6.79033e+08
-6.81491e+10
-8.92471e+07
-6.98284e+08
-6.80181e+10
-9.96986e+07
-7.03092e+08
-6.78944e+10
-1.10896e+08
-6.89564e+08
-6.77754e+10
-1.22651e+08
-6.62718e+08
-6.76649e+10
-1.34804e+08
-6.22675e+08
-6.75573e+10
-1.47129e+08
-5.76561e+08
-6.74502e+10
-1.59533e+08
-5.22984e+08
-6.73387e+10
-1.71886e+08
-4.67953e+08
-6.72138e+10
-1.84062e+08
-4.11985e+08
-6.70689e+10
-1.95706e+08
-3.55979e+08
-6.68924e+10
-2.06556e+08
-3.04699e+08
-6.66731e+10
-2.16282e+08
-2.5587e+08
-6.64002e+10
-2.24477e+08
-2.12324e+08
-6.60637e+10
-2.29989e+08
-1.71067e+08
-6.56642e+10
-2.30298e+08
-1.29811e+08
-6.51992e+10
-2.25409e+08
-8.70238e+07
-6.46519e+10
-2.17255e+08
-4.81672e+07
-6.40068e+10
-2.07634e+08
-5.71408e+06
-6.32452e+10
-1.95714e+08
4.41588e+07
-6.23502e+10
-1.78576e+08
1.09499e+08
-6.12963e+10
-1.56511e+08
1.96355e+08
-6.00501e+10
-1.2794e+08
3.10326e+08
-5.85575e+10
-9.24773e+07
4.37498e+08
-5.67802e+10
-5.96607e+07
5.63012e+08
-5.47114e+10
-7.50798e+07
7.28735e+08
-5.29496e+10
9.87887e+06
1.46392e+09
-5.10522e+10
5.72186e+08
2.63351e+09
-4.535e+10
1.16704e+09
2.0769e+09
-1.7751e+10
-4.73303e+09
-5.44531e+09
-4.44583e+09
-4.24783e+09
-7.58475e+10
1.77452e+08
-7.59509e+10
9.35113e+06
-7.60585e+10
-2.53903e+07
-7.61654e+10
-4.50774e+07
-7.6263e+10
-9.50216e+07
-7.63472e+10
-9.41245e+07
-7.64328e+10
-9.98943e+07
-7.65061e+10
-1.09713e+08
-7.65718e+10
-1.25158e+08
-7.66298e+10
-1.41467e+08
-7.66785e+10
-1.65859e+08
-7.67154e+10
-1.98281e+08
-7.6743e+10
-2.40489e+08
-7.67608e+10
-2.9052e+08
-7.6769e+10
-3.49711e+08
-7.67684e+10
-4.13134e+08
-7.67544e+10
-4.82364e+08
-7.6728e+10
-5.55416e+08
-7.66867e+10
-6.30182e+08
-7.66311e+10
-7.05183e+08
-7.65635e+10
-7.77061e+08
-7.64848e+10
-8.40937e+08
-7.64011e+10
-8.95665e+08
-7.63114e+10
-9.38854e+08
-7.62278e+10
-9.6458e+08
-7.61494e+10
-9.781e+08
-7.60873e+10
-9.74996e+08
-7.60403e+10
-9.60039e+08
-7.60148e+10
-9.32547e+08
-7.60075e+10
-8.9938e+08
-7.60187e+10
-8.58152e+08
-7.60472e+10
-8.15238e+08
-7.60866e+10
-7.71227e+08
-7.61345e+10
-7.26255e+08
-7.61826e+10
-6.84692e+08
-7.62227e+10
-6.45133e+08
-7.62454e+10
-6.11549e+08
-7.62372e+10
-5.82624e+08
-7.61844e+10
-5.60161e+08
-7.60712e+10
-5.43736e+08
-7.58811e+10
-5.35377e+08
-7.5609e+10
-5.28308e+08
-7.52402e+10
-5.24177e+08
-7.47485e+10
-5.23726e+08
-7.40998e+10
-5.2511e+08
-7.32442e+10
-5.30142e+08
-7.20921e+10
-5.62221e+08
-7.05514e+10
-6.44092e+08
-6.86332e+10
-6.97258e+08
-6.60843e+10
-4.98965e+08
-6.00197e+10
-1.08892e+09
-4.67793e+10
-3.8809e+09
-2.78183e+10
-7.22645e+09
-2.13564e+09
-5.57781e+10
1.46091e+08
1.14334e+08
-5.57063e+10
1.83325e+08
6.42406e+07
-5.56356e+10
1.76303e+08
7.069e+07
-5.57112e+10
2.0133e+08
9.05139e+07
-5.57571e+10
1.82439e+08
3.65023e+07
-5.5802e+10
1.92671e+08
3.91676e+07
-5.58729e+10
2.00241e+08
4.80931e+07
-5.59506e+10
2.06664e+08
4.06344e+07
-5.60314e+10
2.10355e+08
2.67631e+07
-5.61126e+10
2.16291e+08
3.90848e+06
-5.61954e+10
2.21793e+08
-2.70329e+07
-5.628e+10
2.2727e+08
-6.84487e+07
-5.6364e+10
2.31645e+08
-1.24257e+08
-5.64439e+10
2.34925e+08
-1.94045e+08
-5.65214e+10
2.37651e+08
-2.75851e+08
-5.6584e+10
2.39398e+08
-3.70885e+08
-5.66253e+10
2.3931e+08
-4.77848e+08
-5.66363e+10
2.39245e+08
-5.88827e+08
-5.66104e+10
2.38318e+08
-7.08381e+08
-5.65415e+10
2.38212e+08
-8.25771e+08
-5.64332e+10
2.37014e+08
-9.38197e+08
-5.62806e+10
2.36327e+08
-1.03987e+09
-5.6091e+10
2.34832e+08
-1.12261e+09
-5.58685e+10
2.33758e+08
-1.1823e+09
-5.56193e+10
2.32356e+08
-1.21566e+09
-5.53559e+10
2.30662e+08
-1.22229e+09
-5.50874e+10
2.28466e+08
-1.2031e+09
-5.48218e+10
2.25859e+08
-1.16388e+09
-5.45631e+10
2.22872e+08
-1.1076e+09
-5.43172e+10
2.19585e+08
-1.03903e+09
-5.40819e+10
2.16068e+08
-9.64753e+08
-5.38613e+10
2.12547e+08
-8.84143e+08
-5.36526e+10
2.09078e+08
-8.04722e+08
-5.34544e+10
2.05635e+08
-7.25718e+08
-5.32705e+10
2.0222e+08
-6.46361e+08
-5.30962e+10
1.98933e+08
-5.72249e+08
-5.293e+10
1.95474e+08
-5.0262e+08
-5.27646e+10
1.90693e+08
-4.38123e+08
-5.25826e+10
1.82555e+08
-3.84715e+08
-5.23608e+10
1.7082e+08
-3.45789e+08
-5.20895e+10
1.57136e+08
-3.15862e+08
-5.17509e+10
1.45433e+08
-2.99663e+08
-5.1328e+10
1.35449e+08
-2.928e+08
-5.079e+10
1.2454e+08
-2.99142e+08
-5.01038e+10
1.11819e+08
-3.1915e+08
-4.9237e+10
9.64735e+07
-3.54004e+08
-4.81714e+10
6.90288e+07
-4.0687e+08
-4.68673e+10
-3.8844e+06
-4.97006e+08
-4.52185e+10
-1.57465e+08
-6.07635e+08
-4.27492e+10
-2.93233e+08
-5.95385e+08
-3.97239e+10
-3.5288e+08
1.01866e+08
-3.8712e+10
-4.82453e+08
2.01925e+09
-4.47469e+10
-7.30378e+09
8.57771e+09
-7.08855e+09
1.02739e+10
-6.18923e+10
2.08125e+08
-6.18806e+10
1.64222e+08
-6.19027e+10
1.56008e+08
-6.19352e+10
1.71652e+08
-6.20134e+10
1.48437e+08
-6.20833e+10
1.51451e+08
-6.21641e+10
1.64549e+08
-6.22427e+10
1.59438e+08
-6.23248e+10
1.5173e+08
-6.24004e+10
1.35233e+08
-6.24721e+10
1.12561e+08
-6.25386e+10
7.96968e+07
-6.25989e+10
3.35389e+07
-6.26501e+10
-2.60168e+07
-6.26922e+10
-9.66418e+07
-6.27175e+10
-1.81265e+08
-6.27227e+10
-2.75638e+08
-6.27062e+10
-3.74701e+08
-6.26606e+10
-4.80382e+08
-6.25852e+10
-5.85288e+08
-6.24824e+10
-6.84042e+08
-6.23516e+10
-7.7478e+08
-6.21999e+10
-8.47137e+08
-6.20345e+10
-8.99082e+08
-6.18614e+10
-9.2677e+08
-6.16936e+10
-9.30172e+08
-6.15396e+10
-9.09972e+08
-6.14068e+10
-8.71863e+08
-6.12987e+10
-8.18136e+08
-6.12215e+10
-7.53052e+08
-6.11721e+10
-6.82759e+08
-6.1155e+10
-6.05882e+08
-6.11675e+10
-5.30053e+08
-6.12077e+10
-4.54292e+08
-6.12795e+10
-3.77037e+08
-6.13794e+10
-3.03969e+08
-6.15094e+10
-2.33198e+08
-6.16724e+10
-1.63693e+08
-6.18733e+10
-9.66679e+07
-6.2115e+10
-3.44549e+07
-6.2404e+10
2.6267e+07
-6.27246e+10
7.33889e+07
-6.3065e+10
1.09183e+08
-6.34179e+10
1.32984e+08
-6.37792e+10
1.4615e+08
-6.41498e+10
1.4447e+08
-6.45677e+10
1.2438e+08
-6.5142e+10
9.68089e+07
-6.60132e+10
1.5744e+08
-6.70997e+10
4.45709e+08
-6.98398e+10
1.64179e+09
-7.79742e+10
4.44229e+09
-1.08303e+11
1.65038e+10
1.26371e+10
-5.94477e+10
-2.26463e+07
4.75618e+07
-5.94986e+10
-1.50513e+06
1.01019e+08
-5.95157e+10
6.31348e+06
6.40409e+07
-5.95685e+10
3.18262e+06
1.21213e+08
-5.96656e+10
-1.30738e+06
1.14973e+08
-5.97651e+10
5.68e+06
1.12721e+08
-5.987e+10
1.74006e+07
1.15959e+08
-5.99877e+10
2.43042e+07
1.15216e+08
-6.01141e+10
2.86902e+07
1.06791e+08
-6.02453e+10
3.34948e+07
8.4804e+07
-6.03747e+10
3.76534e+07
4.84881e+07
-6.05006e+10
4.23884e+07
-1.92086e+06
-6.0624e+10
4.77765e+07
-6.70008e+07
-6.07502e+10
5.32813e+07
-1.45009e+08
-6.08746e+10
5.86062e+07
-2.3835e+08
-6.10034e+10
6.20102e+07
-3.43857e+08
-6.11335e+10
6.49762e+07
-4.59401e+08
-6.12623e+10
6.66485e+07
-5.83175e+08
-6.13864e+10
6.90204e+07
-7.10103e+08
-6.15049e+10
7.07065e+07
-8.36939e+08
-6.16169e+10
7.29099e+07
-9.54823e+08
-6.17285e+10
7.44235e+07
-1.05741e+09
-6.18417e+10
7.62312e+07
-1.13461e+09
-6.19623e+10
7.82299e+07
-1.17928e+09
-6.20944e+10
8.03316e+07
-1.191e+09
-6.22457e+10
8.21742e+07
-1.1677e+09
-6.24198e+10
8.3365e+07
-1.116e+09
-6.26183e+10
8.35986e+07
-1.04345e+09
-6.28393e+10
8.26317e+07
-9.54935e+08
-6.3076e+10
8.01772e+07
-8.59736e+08
-6.33248e+10
7.6236e+07
-7.60338e+08
-6.35762e+10
7.09157e+07
-6.6219e+08
-6.38256e+10
6.41358e+07
-5.67388e+08
-6.40641e+10
5.57277e+07
-4.79213e+08
-6.42805e+10
4.5811e+07
-3.98956e+08
-6.44693e+10
3.37492e+07
-3.25659e+08
-6.46176e+10
1.97316e+07
-2.65193e+08
-6.4713e+10
3.04198e+06
-2.17052e+08
-6.47456e+10
-1.66891e+07
-1.83621e+08
-6.4707e+10
-3.94832e+07
-1.67447e+08
-6.45859e+10
-6.58716e+07
-1.65297e+08
-6.43766e+10
-9.53467e+07
-1.78137e+08
-6.40686e+10
-1.27822e+08
-2.06538e+08
-6.36536e+10
-1.65698e+08
-2.52541e+08
-6.31158e+10
-2.10484e+08
-3.25458e+08
-6.24408e+10
-2.6591e+08
-4.29242e+08
-6.15913e+10
-3.42464e+08
-5.82572e+08
-6.04822e+10
-4.56257e+08
-8.2713e+08
-5.89815e+10
-5.85419e+08
-1.18394e+09
-5.69622e+10
-5.33641e+08
-1.66368e+09
-5.30172e+10
-5.96851e+08
-2.63611e+09
-4.55809e+10
-1.1678e+09
-3.44338e+09
-2.48563e+10
-8.6308e+09
-2.76762e+09
-7.16924e+09
3.97258e+09
-6.6202e+10
4.53639e+07
-6.61646e+10
1.14249e+08
-6.61397e+10
1.26011e+08
-6.61213e+10
1.4418e+08
-6.61366e+10
1.49661e+08
-6.61544e+10
1.62106e+08
-6.61613e+10
1.7642e+08
-6.61725e+10
1.8284e+08
-6.61859e+10
1.82352e+08
-6.61962e+10
1.67895e+08
-6.61988e+10
1.41869e+08
-6.61895e+10
1.01191e+08
-6.61665e+10
4.50807e+07
-6.61316e+10
-2.36385e+07
-6.60834e+10
-1.06996e+08
-6.60284e+10
-2.00168e+08
-6.59686e+10
-3.02809e+08
-6.58992e+10
-4.13634e+08
-6.58214e+10
-5.27592e+08
-6.57319e+10
-6.41813e+08
-6.56334e+10
-7.47317e+08
-6.55304e+10
-8.39316e+08
-6.5427e+10
-9.06891e+08
-6.53298e+10
-9.44606e+08
-6.52439e+10
-9.51288e+08
-6.51778e+10
-9.25368e+08
-6.51359e+10
-8.73282e+08
-6.51208e+10
-8.02471e+08
-6.51325e+10
-7.17529e+08
-6.51663e+10
-6.27407e+08
-6.52211e+10
-5.34331e+08
-6.52889e+10
-4.43549e+08
-6.53674e+10
-3.5681e+08
-6.54505e+10
-2.76952e+08
-6.55293e+10
-2.05107e+08
-6.56019e+10
-1.39865e+08
-6.56597e+10
-8.57549e+07
-6.56962e+10
-3.98927e+07
-6.57068e+10
-1.79216e+06
-6.56854e+10
2.43689e+07
-6.56266e+10
4.20188e+07
-6.55337e+10
4.79714e+07
-6.5405e+10
3.85318e+07
-6.52425e+10
1.3368e+07
-6.50408e+10
-3.93054e+07
-6.4793e+10
-1.32757e+08
-6.44799e+10
-2.95984e+08
-6.40471e+10
-5.54119e+08
-6.32861e+10
-9.19442e+08
-6.1422e+10
-1.56776e+09
-5.69523e+10
-2.82532e+09
-5.01535e+10
-2.75633e+09
-4.78774e+10
6.03657e+09
4.58535e+09
-5.49647e+10
1.09241e+08
-1.21141e+08
-5.49477e+10
1.01682e+08
-3.07909e+07
-5.49777e+10
9.75264e+07
-1.74875e+07
-5.49851e+10
1.02066e+08
1.09712e+07
-5.50333e+10
1.1109e+08
3.50408e+07
-5.51075e+10
1.24973e+08
4.42515e+07
-5.51961e+10
1.39286e+08
4.7311e+07
-5.52965e+10
1.51756e+08
4.62677e+07
-5.5406e+10
1.63956e+08
3.53602e+07
-5.55234e+10
1.75643e+08
1.01304e+07
-5.56476e+10
1.85874e+08
-2.93847e+07
-5.57752e+10
1.94896e+08
-8.58895e+07
-5.59032e+10
2.02864e+08
-1.60416e+08
-5.60209e+10
2.10171e+08
-2.5976e+08
-5.61235e+10
2.17536e+08
-3.81362e+08
-5.62088e+10
2.23956e+08
-5.20902e+08
-5.6271e+10
2.30036e+08
-6.73832e+08
-5.63105e+10
2.34712e+08
-8.37038e+08
-5.63203e+10
2.40178e+08
-1.00056e+09
-5.63036e+10
2.44868e+08
-1.16293e+09
-5.62601e+10
2.50518e+08
-1.30959e+09
-5.62027e+10
2.54766e+08
-1.43435e+09
-5.6141e+10
2.60108e+08
-1.51537e+09
-5.60948e+10
2.64972e+08
-1.54357e+09
-5.60849e+10
2.70307e+08
-1.5122e+09
-5.61312e+10
2.74985e+08
-1.42608e+09
-5.62498e+10
2.7861e+08
-1.29592e+09
-5.64488e+10
2.80895e+08
-1.13775e+09
-5.67281e+10
2.81776e+08
-9.6337e+08
-5.70815e+10
2.81164e+08
-7.87125e+08
-5.74986e+10
2.79254e+08
-6.15473e+08
-5.7967e+10
2.76268e+08
-4.56099e+08
-5.84718e+10
2.72213e+08
-3.13202e+08
-5.89989e+10
2.66718e+08
-1.88541e+08
-5.95325e+10
2.59628e+08
-8.49488e+07
-6.00538e+10
2.50963e+08
-3.95333e+06
-6.05485e+10
2.41066e+08
5.33265e+07
-6.09972e+10
2.29955e+08
8.2258e+07
-6.13834e+10
2.17917e+08
8.38094e+07
-6.16887e+10
2.03466e+08
5.4048e+07
-6.18865e+10
1.8569e+08
-1.08835e+07
-6.19503e+10
1.63009e+08
-1.11616e+08
-6.1848e+10
1.32029e+08
-2.52137e+08
-6.15472e+10
8.98603e+07
-4.35105e+08
-6.10111e+10
3.19056e+07
-6.74918e+08
-6.01892e+10
-5.34298e+07
-9.85373e+08
-5.90065e+10
-1.8126e+08
-1.39562e+09
-5.74195e+10
-3.35977e+08
-1.92527e+09
-5.5463e+10
-4.77952e+08
-2.51827e+09
-5.29714e+10
-6.28109e+08
-3.33527e+09
-4.91324e+10
-9.79106e+08
-5.20395e+09
-4.37125e+10
-1.18222e+09
-7.23971e+09
-1.47128e+10
-1.15432e+10
-2.00274e+10
-4.79814e+09
-7.86287e+09
-5.86504e+10
-5.49722e+06
-5.85464e+10
1.04413e+08
-5.84762e+10
1.44584e+08
-5.84134e+10
1.73487e+08
-5.83737e+10
2.10283e+08
-5.83419e+10
2.43948e+08
-5.83037e+10
2.66029e+08
-5.82642e+10
2.83624e+08
-5.82229e+10
2.9377e+08
-5.81809e+10
2.90557e+08
-5.81377e+10
2.73486e+08
-5.80917e+10
2.38403e+08
-5.80428e+10
1.85934e+08
-5.79804e+10
1.07888e+08
-5.78954e+10
4.66548e+06
-5.77799e+10
-1.18513e+08
-5.76265e+10
-2.60114e+08
-5.7429e+10
-4.15183e+08
-5.71799e+10
-5.78421e+08
-5.68743e+10
-7.44976e+08
-5.65106e+10
-9.04306e+08
-5.60919e+10
-1.04643e+09
-5.56275e+10
-1.15308e+09
-5.51321e+10
-1.21172e+09
-5.46282e+10
-1.21533e+09
-5.41369e+10
-1.1661e+09
-5.36787e+10
-1.07275e+09
-5.32675e+10
-9.49148e+08
-5.29115e+10
-8.05427e+08
-5.26138e+10
-6.54799e+08
-5.23737e+10
-5.03115e+08
-5.21881e+10
-3.5733e+08
-5.20523e+10
-2.20958e+08
-5.19626e+10
-9.57922e+07
-5.19132e+10
1.49529e+07
-5.18963e+10
1.11185e+08
-5.19072e+10
1.91955e+08
-5.19315e+10
2.50801e+08
-5.19531e+10
2.86943e+08
-5.19575e+10
2.96099e+08
-5.19285e+10
2.78639e+08
-5.18523e+10
2.3182e+08
-5.17162e+10
1.47908e+08
-5.15103e+10
2.36278e+07
-5.12295e+10
-1.58161e+08
-5.08791e+10
-4.1784e+08
-5.04707e+10
-7.93365e+08
-4.99672e+10
-1.33201e+09
-4.91792e+10
-2.129e+09
-4.78595e+10
-3.40846e+09
-4.59258e+10
-5.55353e+09
-4.12114e+10
-8.51165e+09
-2.68928e+10
-1.98773e+10
-7.60721e+09
-6.00644e+10
4.2291e+08
-5.95672e+08
-6.0029e+10
4.27231e+08
-5.01059e+08
-6.00218e+10
4.30983e+08
-4.65163e+08
-6.00231e+10
4.3858e+08
-4.37576e+08
-6.00359e+10
4.44606e+08
-4.09623e+08
-6.00635e+10
4.51687e+08
-3.94031e+08
-6.01021e+10
4.58714e+08
-3.87858e+08
-6.01466e+10
4.65414e+08
-3.90078e+08
-6.01925e+10
4.71886e+08
-4.0598e+08
-6.0237e+10
4.77413e+08
-4.38005e+08
-6.02738e+10
4.82721e+08
-4.90368e+08
-6.02995e+10
4.87816e+08
-5.6376e+08
-6.03104e+10
4.9345e+08
-6.60778e+08
-6.0303e+10
4.98921e+08
-7.8683e+08
-6.02759e+10
5.03506e+08
-9.39842e+08
-6.02194e+10
5.0797e+08
-1.11846e+09
-6.01324e+10
5.1134e+08
-1.31807e+09
-6.00042e+10
5.1572e+08
-1.53258e+09
-5.98326e+10
5.19778e+08
-1.7524e+09
-5.96106e+10
5.25777e+08
-1.97047e+09
-5.93404e+10
5.31802e+08
-2.17666e+09
-5.90232e+10
5.39684e+08
-2.35595e+09
-5.86735e+10
5.48203e+08
-2.47983e+09
-5.8312e+10
5.58135e+08
-2.52621e+09
-5.79682e+10
5.68492e+08
-2.48208e+09
-5.76687e+10
5.77767e+08
-2.35611e+09
-5.74357e+10
5.8449e+08
-2.1641e+09
-5.72826e+10
5.87646e+08
-1.92905e+09
-5.72123e+10
5.86738e+08
-1.67204e+09
-5.72263e+10
5.81739e+08
-1.40784e+09
-5.73192e+10
5.72923e+08
-1.14995e+09
-5.74848e+10
5.60457e+08
-9.06586e+08
-5.77176e+10
5.44392e+08
-6.81527e+08
-5.80091e+10
5.25041e+08
-4.79359e+08
-5.83536e+10
5.02648e+08
-3.00194e+08
-5.87442e+10
4.77147e+08
-1.46465e+08
-5.91773e+10
4.49258e+08
-1.62884e+07
-5.96502e+10
4.18474e+08
8.75572e+07
-6.01545e+10
3.82122e+08
1.62681e+08
-6.06849e+10
3.40974e+08
2.07849e+08
-6.12453e+10
2.98577e+08
2.23675e+08
-6.18425e+10
2.548e+08
2.1161e+08
-6.24784e+10
2.04712e+08
1.645e+08
-6.31517e+10
1.44892e+08
7.52487e+07
-6.38768e+10
7.22578e+07
-6.08048e+07
-6.46735e+10
-1.86032e+07
-2.55382e+08
-6.55868e+10
-1.33675e+08
-5.18994e+08
-6.66078e+10
-2.90742e+08
-9.0534e+08
-6.73794e+10
-5.61446e+08
-1.60307e+09
-6.71311e+10
-9.41055e+08
-3.15183e+09
-6.4758e+10
-1.55759e+09
-6.6251e+09
-5.48231e+10
-4.17745e+09
-1.36652e+10
-3.9461e+10
-1.14741e+10
-2.44464e+10
-4.21336e+09
-4.40125e+09
-6.20835e+10
3.96002e+08
-6.21125e+10
5.5423e+08
-6.21505e+10
6.06614e+08
-6.22049e+10
6.58371e+08
-6.22784e+10
7.19481e+08
-6.23674e+10
7.7488e+08
-6.24709e+10
8.18112e+08
-6.25843e+10
8.52156e+08
-6.27013e+10
8.72351e+08
-6.28205e+10
8.77005e+08
-6.29353e+10
8.60606e+08
-6.30421e+10
8.22106e+08
-6.3133e+10
7.57801e+08
-6.32038e+10
6.62325e+08
-6.3253e+10
5.3814e+08
-6.32738e+10
3.85285e+08
-6.32613e+10
2.08278e+08
-6.32071e+10
1.03413e+07
-6.31035e+10
-2.01049e+08
-6.29452e+10
-4.18618e+08
-6.27267e+10
-6.32971e+08
-6.24465e+10
-8.30137e+08
-6.21108e+10
-9.83415e+08
-6.17351e+10
-1.06937e+09
-6.13438e+10
-1.0748e+09
-6.09602e+10
-1.0061e+09
-6.06048e+10
-8.77113e+08
-6.02914e+10
-7.08836e+08
-6.00244e+10
-5.20684e+08
-5.98075e+10
-3.2603e+08
-5.96376e+10
-1.37088e+08
-5.95117e+10
3.92478e+07
-5.94267e+10
1.99915e+08
-5.93767e+10
3.40307e+08
-5.93602e+10
4.62515e+08
-5.93759e+10
5.66421e+08
-5.94248e+10
6.54339e+08
-5.95124e+10
7.24111e+08
-5.96478e+10
7.75716e+08
-5.98441e+10
8.09472e+08
-6.01071e+10
8.21559e+08
-6.04467e+10
8.12263e+08
-6.08805e+10
7.74399e+08
-6.14293e+10
7.00437e+08
-6.21326e+10
5.83812e+08
-6.30413e+10
4.02759e+08
-6.42229e+10
1.25053e+08
-6.574e+10
-3.14139e+08
-6.75957e+10
-1.11743e+09
-6.94124e+10
-2.89802e+09
-7.00781e+10
-6.89586e+09
-6.88876e+10
-1.43719e+10
-7.3937e+10
-2.67692e+10
-2.58558e+09
-5.94255e+10
1.68636e+08
-7.63989e+08
-5.94587e+10
1.77442e+08
-6.54382e+08
-5.94987e+10
1.82109e+08
-6.1721e+08
-5.9561e+10
1.88012e+08
-5.74241e+08
-5.96337e+10
1.88296e+08
-5.37147e+08
-5.9718e+10
1.85766e+08
-5.08306e+08
-5.98126e+10
1.81805e+08
-4.88399e+08
-5.9915e+10
1.78827e+08
-4.80118e+08
-6.00229e+10
1.75598e+08
-4.87292e+08
-6.01307e+10
1.71018e+08
-5.14482e+08
-6.02383e+10
1.64223e+08
-5.60022e+08
-6.0336e+10
1.56041e+08
-6.35552e+08
-6.0416e+10
1.47052e+08
-7.42609e+08
-6.04736e+10
1.36887e+08
-8.84314e+08
-6.04994e+10
1.25581e+08
-1.06219e+09
-6.04839e+10
1.13472e+08
-1.27568e+09
-6.04169e+10
1.00808e+08
-1.5229e+09
-6.02881e+10
8.9296e+07
-1.79208e+09
-6.00896e+10
7.79196e+07
-2.07894e+09
-5.98087e+10
7.07976e+07
-2.37188e+09
-5.94374e+10
6.74785e+07
-2.67042e+09
-5.89664e+10
7.13272e+07
-2.95064e+09
-5.84028e+10
8.18637e+07
-3.18057e+09
-5.77719e+10
1.03155e+08
-3.3104e+09
-5.71127e+10
1.34272e+08
-3.32239e+09
-5.64647e+10
1.74246e+08
-3.22317e+09
-5.58532e+10
2.20318e+08
-3.04179e+09
-5.52908e+10
2.69801e+08
-2.81016e+09
-5.47814e+10
3.20376e+08
-2.55423e+09
-5.43191e+10
3.70243e+08
-2.29614e+09
-5.39001e+10
4.18142e+08
-2.04601e+09
-5.35174e+10
4.63152e+08
-1.81436e+09
-5.31657e+10
5.04669e+08
-1.60269e+09
-5.28417e+10
5.42187e+08
-1.41289e+09
-5.2542e+10
5.75671e+08
-1.24521e+09
-5.22656e+10
6.0542e+08
-1.09954e+09
-5.20096e+10
6.31592e+08
-9.75767e+08
-5.17727e+10
6.53339e+08
-8.73973e+08
-5.15566e+10
6.70262e+08
-7.93197e+08
-5.13601e+10
6.83361e+08
-7.38551e+08
-5.11816e+10
6.9048e+08
-7.08393e+08
-5.10126e+10
6.90667e+08
-7.08664e+08
-5.08593e+10
6.86218e+08
-7.37252e+08
-5.07401e+10
6.77768e+08
-7.94716e+08
-5.06893e+10
6.67021e+08
-8.7866e+08
-5.07697e+10
6.56112e+08
-9.85436e+08
-5.10752e+10
6.46977e+08
-1.1055e+09
-5.17374e+10
6.53171e+08
-1.26779e+09
-5.29996e+10
6.70459e+08
-1.57143e+09
-5.52728e+10
5.75052e+08
-2.31587e+09
-5.86604e+10
-5.03406e+06
-4.42223e+09
-6.29659e+10
-1.54002e+09
-9.28645e+09
-6.07564e+10
-8.5907e+09
-1.92685e+10
-5.96557e+08
-2.06594e+09
-6.05539e+10
6.31897e+08
-6.06224e+10
7.95102e+08
-6.06887e+10
8.48828e+08
-6.07651e+10
9.1588e+08
-6.08497e+10
9.84837e+08
-6.09422e+10
1.04519e+09
-6.10444e+10
1.09388e+09
-6.1153e+10
1.13136e+09
-6.12663e+10
1.15308e+09
-6.13794e+10
1.15329e+09
-6.14955e+10
1.13326e+09
-6.16082e+10
1.08291e+09
-6.17125e+10
9.99967e+08
-6.18064e+10
8.81604e+08
-6.18845e+10
7.26813e+08
-6.19414e+10
5.36295e+08
-6.19696e+10
3.136e+08
-6.19669e+10
6.85686e+07
-6.19305e+10
-1.90169e+08
-6.18581e+10
-4.53306e+08
-6.17386e+10
-7.18205e+08
-6.15663e+10
-9.65542e+08
-6.13403e+10
-1.15953e+09
-6.10808e+10
-1.25494e+09
-6.08128e+10
-1.23468e+09
-6.05617e+10
-1.10833e+09
-6.03398e+10
-9.05794e+08
-6.015e+10
-6.58754e+08
-5.9991e+10
-3.9224e+08
-5.98552e+10
-1.27444e+08
-5.97396e+10
1.27102e+08
-5.96397e+10
3.61625e+08
-5.95528e+10
5.74697e+08
-5.94797e+10
7.64377e+08
-5.94204e+10
9.32267e+08
-5.93764e+10
1.08014e+09
-5.93486e+10
1.20995e+09
-5.9342e+10
1.32287e+09
-5.93644e+10
1.42155e+09
-5.94186e+10
1.50168e+09
-5.95196e+10
1.56934e+09
-5.96827e+10
1.6229e+09
-5.99304e+10
1.66275e+09
-6.02985e+10
1.69173e+09
-6.08435e+10
1.72038e+09
-6.16536e+10
1.7547e+09
-6.28578e+10
1.79844e+09
-6.46446e+10
1.85304e+09
-6.73286e+10
1.80935e+09
-7.15854e+10
1.29199e+09
-7.9566e+10
1.9158e+08
-9.45267e+10
-2.08359e+09
-1.27772e+11
-2.9863e+09
-1.60491e+09
-6.07701e+10
-2.9719e+08
-4.25517e+08
-6.08156e+10
-3.03009e+08
-3.11878e+08
-6.08622e+10
-3.09653e+08
-2.68247e+08
-6.09262e+10
-3.14945e+08
-2.03212e+08
-6.09997e+10
-3.26058e+08
-1.45867e+08
-6.10853e+10
-3.40293e+08
-9.07325e+07
-6.11857e+10
-3.55485e+08
-4.0823e+07
-6.12983e+10
-3.69488e+08
-6.16869e+06
-6.14232e+10
-3.83869e+08
1.37555e+07
-6.15595e+10
-3.99146e+08
1.40765e+07
-6.16988e+10
-4.15522e+08
-1.13695e+07
-6.18386e+10
-4.31922e+08
-6.94232e+07
-6.1974e+10
-4.47939e+08
-1.65794e+08
-6.20982e+10
-4.63402e+08
-3.06048e+08
-6.2203e+10
-4.77754e+08
-4.91737e+08
-6.22787e+10
-4.9109e+08
-7.26959e+08
-6.23124e+10
-5.01701e+08
-1.00637e+09
-6.22959e+10
-5.10304e+08
-1.32493e+09
-6.22173e+10
-5.14571e+08
-1.67001e+09
-6.20718e+10
-5.18915e+08
-2.03157e+09
-6.18411e+10
-5.21787e+08
-2.40936e+09
-6.15061e+10
-5.25313e+08
-2.79171e+09
-6.10589e+10
-5.27594e+08
-3.12515e+09
-6.05322e+10
-5.29696e+08
-3.32703e+09
-5.99864e+10
-5.30775e+08
-3.35251e+09
-5.94722e+10
-5.30412e+08
-3.22246e+09
-5.9019e+10
-5.28197e+08
-2.98736e+09
-5.86365e+10
-5.23986e+08
-2.69601e+09
-5.83201e+10
-5.17898e+08
-2.38654e+09
-5.80596e+10
-5.10354e+08
-2.0853e+09
-5.78433e+10
-5.0186e+08
-1.80396e+09
-5.76639e+10
-4.9279e+08
-1.54848e+09
-5.75159e+10
-4.8356e+08
-1.31857e+09
-5.73967e+10
-4.74609e+08
-1.11267e+09
-5.73051e+10
-4.67654e+08
-9.27722e+08
-5.72448e+10
-4.63725e+08
-7.57743e+08
-5.72183e+10
-4.63844e+08
-6.02279e+08
-5.72331e+10
-4.69337e+08
-4.5509e+08
-5.72946e+10
-4.80948e+08
-3.16055e+08
-5.74128e+10
-4.99139e+08
-1.85882e+08
-5.75968e+10
-5.26075e+08
-6.15441e+07
-5.78652e+10
-5.63432e+08
6.03702e+07
-5.82411e+10
-6.12175e+08
1.85413e+08
-5.87534e+10
-6.73093e+08
3.15384e+08
-5.94558e+10
-7.44097e+08
4.68488e+08
-6.04472e+10
-8.2055e+08
6.79096e+08
-6.18903e+10
-9.05138e+08
1.00859e+09
-6.41049e+10
-9.79985e+08
1.52796e+09
-6.77488e+10
-1.02192e+09
2.39681e+09
-7.37379e+10
-1.14475e+09
3.68778e+09
-8.45077e+10
-1.3285e+09
6.05346e+09
-1.04164e+11
-1.68356e+09
1.0172e+10
-1.4762e+11
1.04928e+08
2.24267e+10
1.24268e+09
2.89239e+09
-5.4674e+10
4.26417e+08
-5.47506e+10
5.63557e+08
-5.48384e+10
6.2155e+08
-5.49403e+10
6.97113e+08
-5.50517e+10
7.64448e+08
-5.51784e+10
8.25824e+08
-5.53279e+10
8.82187e+08
-5.54958e+10
9.24298e+08
-5.56829e+10
9.51054e+08
-5.58888e+10
9.5538e+08
-5.61079e+10
9.3263e+08
-5.6338e+10
8.76817e+08
-5.65739e+10
7.82663e+08
-5.68088e+10
6.45526e+08
-5.70352e+10
4.64911e+08
-5.72415e+10
2.38231e+08
-5.74132e+10
-3.28754e+07
-5.75297e+10
-3.43546e+08
-5.7575e+10
-6.80639e+08
-5.7538e+10
-1.03152e+09
-5.7406e+10
-1.39513e+09
-5.71589e+10
-1.75863e+09
-5.67955e+10
-2.06642e+09
-5.63579e+10
-2.2326e+09
-5.59193e+10
-2.21127e+09
-5.55391e+10
-2.02707e+09
-5.52488e+10
-1.73674e+09
-5.50553e+10
-1.39398e+09
-5.49472e+10
-1.04077e+09
-5.49055e+10
-7.05624e+08
-5.49085e+10
-4.00964e+08
-5.49379e+10
-1.33435e+08
-5.49776e+10
9.66667e+07
-5.5015e+10
2.90818e+08
-5.50376e+10
4.49067e+08
-5.50395e+10
5.78775e+08
-5.50161e+10
6.82305e+08
-5.49675e+10
7.64479e+08
-5.48926e+10
8.25855e+08
-5.4796e+10
8.67509e+08
-5.46783e+10
8.88567e+08
-5.45461e+10
8.9106e+08
-5.44122e+10
8.78622e+08
-5.42936e+10
8.55005e+08
-5.42206e+10
8.42123e+08
-5.42502e+10
8.70682e+08
-5.44733e+10
9.63701e+08
-5.50924e+10
1.22574e+09
-5.64755e+10
1.71776e+09
-5.9522e+10
2.46853e+09
-6.67594e+10
5.11431e+09
-8.20013e+10
1.0501e+10
-1.10756e+11
2.53998e+10
9.26388e+09
-5.98937e+10
-3.60828e+08
-6.6475e+07
-5.99007e+10
-3.76384e+08
6.52642e+07
-5.99245e+10
-3.81451e+08
1.30891e+08
-5.99619e+10
-3.88002e+08
2.1638e+08
-6.00147e+10
-3.94579e+08
2.96054e+08
-6.00823e+10
-4.01301e+08
3.73081e+08
-6.01676e+10
-4.07124e+08
4.46642e+08
-6.02737e+10
-4.11065e+08
5.0634e+08
-6.03992e+10
-4.13738e+08
5.48772e+08
-6.0543e+10
-4.15271e+08
5.69566e+08
-6.07014e+10
-4.14926e+08
5.59279e+08
-6.08678e+10
-4.12329e+08
5.07014e+08
-6.10377e+10
-4.07816e+08
4.08709e+08
-6.12055e+10
-4.01967e+08
2.57808e+08
-6.13599e+10
-3.95033e+08
4.83503e+07
-6.14913e+10
-3.88328e+08
-2.19455e+08
-6.15845e+10
-3.85036e+08
-5.41116e+08
-6.16309e+10
-3.86284e+08
-9.07931e+08
-6.16224e+10
-3.89199e+08
-1.3045e+09
-6.15556e+10
-3.95298e+08
-1.72363e+09
-6.14147e+10
-4.03219e+08
-2.16366e+09
-6.11672e+10
-4.14783e+08
-2.63616e+09
-6.07813e+10
-4.28892e+08
-3.07924e+09
-6.03016e+10
-4.47693e+08
-3.34305e+09
-5.9833e+10
-4.69759e+08
-3.32649e+09
-5.94502e+10
-4.92546e+08
-3.08679e+09
-5.91729e+10
-5.13568e+08
-2.7305e+09
-5.89952e+10
-5.31399e+08
-2.32829e+09
-5.88931e+10
-5.45768e+08
-1.93325e+09
-5.88418e+10
-5.57092e+08
-1.57183e+09
-5.88175e+10
-5.66013e+08
-1.25518e+09
-5.88026e+10
-5.73033e+08
-9.82769e+08
-5.87818e+10
-5.78317e+08
-7.52862e+08
-5.87431e+10
-5.81629e+08
-5.60729e+08
-5.868e+10
-5.82688e+08
-3.97978e+08
-5.85818e+10
-5.81463e+08
-2.62648e+08
-5.84435e+10
-5.78258e+08
-1.47818e+08
-5.82538e+10
-5.73038e+08
-5.32859e+07
-5.80098e+10
-5.64718e+08
2.86249e+07
-5.77036e+10
-5.51837e+08
9.08423e+07
-5.73308e+10
-5.33449e+08
1.38876e+08
-5.68853e+10
-5.0946e+08
1.7383e+08
-5.63593e+10
-4.79026e+08
1.97773e+08
-5.5747e+10
-4.40844e+08
2.13159e+08
-5.50435e+10
-3.95747e+08
2.38238e+08
-5.42446e+10
-3.46221e+08
3.08043e+08
-5.33701e+10
-2.87882e+08
4.88499e+08
-5.24914e+10
-1.96686e+08
8.57295e+08
-5.16701e+10
-1.1816e+08
1.60286e+09
-5.09885e+10
-2.08094e+08
3.0135e+09
-5.17288e+10
1.85571e+08
6.38788e+09
-5.79563e+10
2.06021e+09
1.41956e+10
-7.7566e+10
9.46545e+09
3.29561e+10
3.54347e+09
9.97144e+09
-5.74961e+10