/*--------------------------------*- C++ -*----------------------------------*\
| =========                 |                                                 |
| \\      /  F ield         | OpenFOAM: The Open Source CFD Toolbox           |
|  \\    /   O peration     | Version:  4.1                                   |
|   \\  /    A nd           | Web:      www.OpenFOAM.org                      |
|    \\/     M anipulation  |                                                 |
\*---------------------------------------------------------------------------*/
FoamFile
{
    version     2.0;
    format      ascii;
    class       surfaceScalarField;
    location    "95";
    object      phi;
}
// * * * * * * * * * * * * * * * * * * * * * * * * * * * * * * * * * * * * * //

dimensions      [0 3 -1 0 0 0 0];

internalField   nonuniform List<scalar> 
11516
(
-3.80303e+10
3.83754e+07
2.16562e+08
-3.82678e+10
2.81646e+07
2.17795e+08
-3.85063e+10
2.79661e+07
2.18745e+08
-3.87418e+10
2.3965e+07
2.19587e+08
-3.89815e+10
2.47869e+07
2.22864e+08
-3.92248e+10
2.4833e+07
2.26241e+08
-3.94683e+10
2.45174e+07
2.26881e+08
-3.97097e+10
2.43294e+07
2.25167e+08
-3.99453e+10
2.39846e+07
2.19924e+08
-4.01693e+10
2.34982e+07
2.0906e+08
-4.03751e+10
2.28985e+07
1.91664e+08
-4.05578e+10
2.21565e+07
1.69086e+08
-4.07079e+10
2.11587e+07
1.36829e+08
-4.08196e+10
1.99618e+07
9.88068e+07
-4.08836e+10
1.85864e+07
5.20354e+07
-4.08918e+10
1.72676e+07
-2.45879e+06
-4.08394e+10
1.58589e+07
-6.13536e+07
-4.07203e+10
1.34764e+07
-1.26792e+08
-4.05332e+10
1.03106e+07
-1.93123e+08
-4.02753e+10
6.44216e+06
-2.62514e+08
-3.99441e+10
2.43749e+06
-3.31604e+08
-3.95452e+10
-1.88772e+06
-3.94892e+08
-3.90808e+10
-6.04644e+06
-4.54112e+08
-3.85647e+10
-1.02312e+07
-5.00049e+08
-3.80068e+10
-1.43506e+07
-5.36457e+08
-3.74247e+10
-1.82219e+07
-5.55742e+08
-3.68296e+10
-2.17148e+07
-5.64212e+08
-3.62378e+10
-2.46555e+07
-5.56349e+08
-3.56591e+10
-2.69975e+07
-5.38665e+08
-3.5105e+10
-2.86772e+07
-5.09616e+08
-3.45856e+10
-2.96605e+07
-4.70694e+08
-3.41061e+10
-3.00374e+07
-4.26524e+08
-3.36746e+10
-2.98662e+07
-3.74119e+08
-3.32943e+10
-2.95996e+07
-3.17512e+08
-3.29677e+10
-2.99425e+07
-2.56577e+08
-3.2697e+10
-3.18091e+07
-1.90651e+08
-3.24798e+10
-3.63239e+07
-1.22967e+08
-3.23162e+10
-4.50017e+07
-4.95263e+07
-3.22048e+10
-5.79423e+07
2.81575e+07
-3.21478e+10
-7.45743e+07
1.13076e+08
-3.21496e+10
-9.58951e+07
2.09392e+08
-3.22162e+10
-1.23603e+08
3.20232e+08
-3.23545e+10
-1.59961e+08
4.4955e+08
-3.25762e+10
-2.09225e+08
6.04606e+08
-3.29208e+10
-2.74106e+08
8.06019e+08
-3.34968e+10
-3.44471e+08
1.09234e+09
-3.44982e+10
-3.94369e+08
1.49131e+09
-3.60494e+10
-4.39934e+08
1.91383e+09
-3.79231e+10
-6.54106e+08
2.2035e+09
-3.9743e+10
-1.32508e+09
2.46773e+09
-4.28698e+10
-2.31121e+09
4.20001e+09
-4.96378e+10
-1.20153e+09
7.20505e+09
-6.04085e+10
-3.81633e+09
1.41389e+10
-1.67985e+09
9.70789e+09
-4.71252e+10
2.2206e+08
-4.73286e+10
2.36088e+08
-4.75287e+10
2.32563e+08
-4.77372e+10
2.3681e+08
-4.79469e+10
2.38863e+08
-4.81596e+10
2.41911e+08
-4.83734e+10
2.42851e+08
-4.8586e+10
2.41655e+08
-4.87946e+10
2.37426e+08
-4.89941e+10
2.28008e+08
-4.91786e+10
2.12545e+08
-4.93443e+10
1.92826e+08
-4.94822e+10
1.63695e+08
-4.95878e+10
1.29896e+08
-4.96528e+10
8.79715e+07
-4.96709e+10
3.99623e+07
-4.96383e+10
-1.19664e+07
-4.95506e+10
-7.00672e+07
-4.94094e+10
-1.27672e+08
-4.92128e+10
-1.87497e+08
-4.89605e+10
-2.47553e+08
-4.86582e+10
-3.01307e+08
-4.83084e+10
-3.52271e+08
-4.79239e+10
-3.90263e+08
-4.75124e+10
-4.20823e+08
-4.70895e+10
-4.35505e+08
-4.66628e+10
-4.4215e+08
-4.62459e+10
-4.34243e+08
-4.58448e+10
-4.19487e+08
-4.54675e+10
-3.95638e+08
-4.51208e+10
-3.64239e+08
-4.4806e+10
-3.30307e+08
-4.45287e+10
-2.89974e+08
-4.42902e+10
-2.4768e+08
-4.40931e+10
-2.02832e+08
-4.39418e+10
-1.54349e+08
-4.38376e+10
-1.06457e+08
-4.37864e+10
-5.62481e+07
-4.37905e+10
-7.13023e+06
-4.38565e+10
4.56467e+07
-4.39934e+10
1.03798e+08
-4.42121e+10
1.67595e+08
-4.45281e+10
2.3957e+08
-4.4968e+10
3.24807e+08
-4.5583e+10
4.39278e+08
-4.64554e+10
6.13371e+08
-4.76808e+10
8.68211e+08
-4.93169e+10
1.14814e+09
-5.15495e+10
1.38136e+09
-5.51389e+10
1.85096e+09
-6.16565e+10
3.80692e+09
-6.9943e+10
6.67841e+09
-8.82118e+10
1.41856e+10
1.70537e+10
-6.72239e+10
5.27829e+07
1.98848e+08
-6.72607e+10
5.1861e+07
2.07869e+08
-6.72972e+10
4.73421e+07
2.13224e+08
-6.73387e+10
4.5192e+07
2.2134e+08
-6.73808e+10
4.24038e+07
2.28163e+08
-6.74245e+10
4.00874e+07
2.35837e+08
-6.74699e+10
3.78065e+07
2.4075e+08
-6.75171e+10
3.55464e+07
2.43391e+08
-6.7562e+10
3.31897e+07
2.38624e+08
-6.76059e+10
3.07786e+07
2.29547e+08
-6.76472e+10
2.82812e+07
2.12307e+08
-6.76826e+10
2.57045e+07
1.86763e+08
-6.77116e+10
2.30202e+07
1.5073e+08
-6.77303e+10
2.03786e+07
1.05652e+08
-6.77372e+10
1.77483e+07
5.01945e+07
-6.77342e+10
1.53102e+07
-1.02171e+07
-6.7719e+10
1.17193e+07
-7.72427e+07
-6.76911e+10
7.17375e+06
-1.4965e+08
-6.76493e+10
2.3428e+06
-2.26214e+08
-6.75931e+10
-2.59572e+06
-3.04986e+08
-6.7524e+10
-8.28352e+06
-3.8228e+08
-6.7441e+10
-1.41705e+07
-4.53067e+08
-6.73486e+10
-2.02135e+07
-5.14783e+08
-6.72451e+10
-2.63815e+07
-5.63974e+08
-6.714e+10
-3.27207e+07
-5.94357e+08
-6.70304e+10
-3.91177e+07
-6.10604e+08
-6.69227e+10
-4.55435e+07
-6.09382e+08
-6.68125e+10
-5.1905e+07
-5.95812e+08
-6.67019e+10
-5.81953e+07
-5.69872e+08
-6.65851e+10
-6.42766e+07
-5.38112e+08
-6.64596e+10
-7.0116e+07
-4.98714e+08
-6.63218e+10
-7.55789e+07
-4.57667e+08
-6.61643e+10
-8.05473e+07
-4.15879e+08
-6.59829e+10
-8.48682e+07
-3.73894e+08
-6.57694e+10
-8.83854e+07
-3.35978e+08
-6.55157e+10
-9.09306e+07
-3.00986e+08
-6.52143e+10
-9.26818e+07
-2.71747e+08
-6.4855e+10
-9.47786e+07
-2.45309e+08
-6.4431e+10
-9.73932e+07
-2.20034e+08
-6.39378e+10
-9.81795e+07
-1.92913e+08
-6.33644e+10
-9.64509e+07
-1.66637e+08
-6.26965e+10
-9.23614e+07
-1.41643e+08
-6.19116e+10
-8.49742e+07
-1.22505e+08
-6.09884e+10
-7.36183e+07
-1.02799e+08
-5.99074e+10
-5.62606e+07
-6.58352e+07
-5.86468e+10
-2.49978e+07
8.93177e+06
-5.71443e+10
3.01908e+07
8.73783e+07
-5.53238e+10
9.55201e+07
7.64049e+07
-5.32224e+10
1.06074e+08
-1.16261e+07
-5.13517e+10
1.59138e+08
3.23479e+08
-4.87021e+10
5.49118e+08
8.65313e+08
-4.38489e+10
1.3886e+09
8.41609e+08
-2.16989e+10
-3.14553e+09
-4.91519e+09
-3.82948e+09
-4.78684e+09
-7.70391e+10
2.772e+08
-7.70324e+10
2.84431e+08
-7.70277e+10
2.78451e+08
-7.70248e+10
2.82558e+08
-7.70234e+10
2.83358e+08
-7.70228e+10
2.85168e+08
-7.70235e+10
2.85235e+08
-7.7026e+10
2.8389e+08
-7.70267e+10
2.75629e+08
-7.70277e+10
2.64399e+08
-7.70283e+10
2.4617e+08
-7.70261e+10
2.2115e+08
-7.70215e+10
1.87163e+08
-7.70117e+10
1.45754e+08
-7.69945e+10
9.45816e+07
-7.69705e+10
3.80077e+07
-7.69392e+10
-2.40314e+07
-7.69049e+10
-8.96897e+07
-7.68633e+10
-1.59326e+08
-7.6815e+10
-2.31379e+08
-7.67623e+10
-3.01905e+08
-7.67051e+10
-3.65959e+08
-7.66487e+10
-4.21811e+08
-7.65914e+10
-4.66005e+08
-7.65445e+10
-4.91987e+08
-7.65048e+10
-5.05164e+08
-7.64812e+10
-5.01563e+08
-7.647e+10
-4.86441e+08
-7.6476e+10
-4.59421e+08
-7.64942e+10
-4.27695e+08
-7.65238e+10
-3.88866e+08
-7.65621e+10
-3.49354e+08
-7.6602e+10
-3.09867e+08
-7.664e+10
-2.70726e+08
-7.66675e+10
-2.36471e+08
-7.66759e+10
-2.05485e+08
-7.66581e+10
-1.80834e+08
-7.6608e+10
-1.59704e+08
-7.65215e+10
-1.43696e+08
-7.63861e+10
-1.33979e+08
-7.61823e+10
-1.35141e+08
-7.58924e+10
-1.45302e+08
-7.54885e+10
-1.71336e+08
-7.49424e+10
-2.08362e+08
-7.42235e+10
-2.43838e+08
-7.32801e+10
-2.66288e+08
-7.19987e+10
-3.11668e+08
-7.02699e+10
-4.52696e+08
-6.81316e+10
-6.71678e+08
-6.54089e+10
-7.85601e+08
-5.94405e+10
-1.71742e+09
-4.69946e+10
-4.41717e+09
-2.70044e+10
-8.87208e+09
-3.57148e+09
-5.59361e+10
3.00326e+07
1.09533e+08
-5.58941e+10
4.36701e+07
1.28721e+08
-5.58573e+10
3.87403e+07
1.44416e+08
-5.58323e+10
4.19177e+07
1.61635e+08
-5.58138e+10
4.20088e+07
1.75202e+08
-5.58008e+10
4.28619e+07
1.87907e+08
-5.57953e+10
4.35143e+07
2.00113e+08
-5.57939e+10
4.39402e+07
2.06703e+08
-5.58012e+10
4.3843e+07
2.11294e+08
-5.58135e+10
4.32662e+07
2.08044e+08
-5.58334e+10
4.20036e+07
2.00036e+08
-5.586e+10
3.99844e+07
1.83662e+08
-5.58918e+10
3.70625e+07
1.56357e+08
-5.59251e+10
3.3066e+07
1.18084e+08
-5.5958e+10
2.76035e+07
6.94446e+07
-5.59756e+10
2.04054e+07
3.21976e+06
-5.59682e+10
1.29983e+07
-7.98068e+07
-5.59316e+10
6.46163e+06
-1.73373e+08
-5.58587e+10
-563754
-2.79212e+08
-5.57483e+10
-7.53384e+06
-3.88583e+08
-5.56031e+10
-1.39893e+07
-4.96676e+08
-5.54214e+10
-1.89059e+07
-5.99209e+08
-5.52114e+10
-2.22274e+07
-6.85631e+08
-5.4982e+10
-2.32866e+07
-7.51662e+08
-5.47421e+10
-2.20757e+07
-7.9271e+08
-5.45055e+10
-1.86439e+07
-8.08486e+08
-5.42803e+10
-1.32137e+07
-8.00376e+08
-5.4073e+10
-6.13554e+06
-7.74295e+08
-5.38863e+10
1.91938e+06
-7.3316e+08
-5.37245e+10
1.01642e+07
-6.81456e+08
-5.35832e+10
1.77129e+07
-6.2533e+08
-5.3464e+10
2.39736e+07
-5.63967e+08
-5.33615e+10
2.84374e+07
-5.04854e+08
-5.32705e+10
3.06665e+07
-4.47537e+08
-5.31904e+10
3.02025e+07
-3.91202e+08
-5.31133e+10
2.67451e+07
-3.41314e+08
-5.30354e+10
2.03357e+07
-2.96633e+08
-5.29519e+10
1.24067e+07
-2.56333e+08
-5.28526e+10
1.90195e+06
-2.23286e+08
-5.27161e+10
-1.39328e+07
-2.02536e+08
-5.25299e+10
-3.40051e+07
-1.88976e+08
-5.22808e+10
-5.60551e+07
-1.85471e+08
-5.19638e+10
-8.05982e+07
-1.88049e+08
-5.15649e+10
-1.07403e+08
-2.00694e+08
-5.10603e+10
-1.33614e+08
-2.24452e+08
-5.04221e+10
-1.51742e+08
-2.61619e+08
-4.96751e+10
-1.56135e+08
-3.1264e+08
-4.89248e+10
-1.70685e+08
-3.81697e+08
-4.81393e+10
-2.5853e+08
-5.16185e+08
-4.64282e+10
-3.36927e+08
-1.08274e+09
-4.35245e+10
-1.72034e+08
-1.8447e+09
-4.30221e+10
-6.75525e+07
5.69676e+08
-5.21438e+10
-7.55868e+09
1.20935e+10
-4.80699e+09
9.17018e+09
-6.39344e+10
1.64235e+08
-6.37706e+10
1.68593e+08
-6.36341e+10
1.85274e+08
-6.35037e+10
1.98872e+08
-6.3385e+10
2.11829e+08
-6.32754e+10
2.23705e+08
-6.31769e+10
2.3585e+08
-6.30861e+10
2.42808e+08
-6.30092e+10
2.48583e+08
-6.29423e+10
2.4708e+08
-6.28893e+10
2.41663e+08
-6.285e+10
2.28576e+08
-6.28238e+10
2.0522e+08
-6.28085e+10
1.71619e+08
-6.28058e+10
1.29023e+08
-6.28084e+10
7.16746e+07
-6.28088e+10
1.35725e+06
-6.28017e+10
-7.766e+07
-6.27819e+10
-1.66713e+08
-6.27509e+10
-2.57779e+08
-6.27097e+10
-3.45648e+08
-6.26562e+10
-4.27622e+08
-6.25965e+10
-4.92732e+08
-6.25366e+10
-5.37672e+08
-6.24806e+10
-5.58272e+08
-6.24381e+10
-5.54666e+08
-6.24128e+10
-5.28275e+08
-6.24077e+10
-4.85208e+08
-6.24232e+10
-4.28259e+08
-6.24634e+10
-3.61991e+08
-6.25245e+10
-2.92525e+08
-6.26109e+10
-2.19044e+08
-6.27199e+10
-1.49459e+08
-6.28497e+10
-8.36965e+07
-6.30037e+10
-2.13326e+07
-6.31775e+10
3.11283e+07
-6.33699e+10
7.41046e+07
-6.35734e+10
1.05422e+08
-6.37808e+10
1.23085e+08
-6.39871e+10
1.25146e+08
-6.4195e+10
1.16351e+08
-6.43984e+10
9.18789e+07
-6.46022e+10
5.55166e+07
-6.48042e+10
3.60545e+06
-6.49936e+10
-6.11219e+07
-6.5149e+10
-1.37775e+08
-6.5288e+10
-2.28556e+08
-6.55149e+10
-3.43517e+08
-6.59446e+10
-5.05822e+08
-6.63842e+10
-6.99086e+08
-6.81827e+10
-1.87518e+06
-7.50017e+10
2.59045e+09
-1.01318e+11
1.0172e+10
8.37294e+09
-6.25363e+10
-6.14562e+07
1.56064e+08
-6.25304e+10
-5.7798e+07
1.87949e+08
-6.25212e+10
-5.92529e+07
2.02211e+08
-6.25186e+10
-5.69015e+07
2.24023e+08
-6.25223e+10
-5.58592e+07
2.43142e+08
-6.25323e+10
-5.47254e+07
2.61424e+08
-6.25443e+10
-5.34395e+07
2.74568e+08
-6.2561e+10
-5.23079e+07
2.85045e+08
-6.25801e+10
-5.14248e+07
2.91374e+08
-6.26009e+10
-5.07227e+07
2.89297e+08
-6.26197e+10
-5.02791e+07
2.79069e+08
-6.2632e+10
-5.00455e+07
2.56359e+08
-6.26346e+10
-5.00331e+07
2.20345e+08
-6.26248e+10
-5.03582e+07
1.71421e+08
-6.25928e+10
-5.10471e+07
1.04036e+08
-6.25401e+10
-5.25505e+07
2.07188e+07
-6.24688e+10
-5.44727e+07
-7.60201e+07
-6.23763e+10
-5.77448e+07
-1.86023e+08
-6.22621e+10
-6.30916e+07
-3.05941e+08
-6.21235e+10
-7.14365e+07
-4.32821e+08
-6.19601e+10
-8.22647e+07
-5.56026e+08
-6.17745e+10
-9.59956e+07
-6.6929e+08
-6.1569e+10
-1.12272e+08
-7.59385e+08
-6.13516e+10
-1.30891e+08
-8.18636e+08
-6.11297e+10
-1.51529e+08
-8.44048e+08
-6.09137e+10
-1.73637e+08
-8.33651e+08
-6.07085e+10
-1.96312e+08
-7.93713e+08
-6.0517e+10
-2.18784e+08
-7.31982e+08
-6.03406e+10
-2.4052e+08
-6.53452e+08
-6.0176e+10
-2.61279e+08
-5.67582e+08
-6.00235e+10
-2.80938e+08
-4.77323e+08
-5.98769e+10
-2.99527e+08
-3.88548e+08
-5.97349e+10
-3.16942e+08
-3.0369e+08
-5.95921e+10
-3.33345e+08
-2.2642e+08
-5.94397e+10
-3.48848e+08
-1.58511e+08
-5.92763e+10
-3.63575e+08
-9.83891e+07
-5.90936e+10
-3.77669e+08
-5.06343e+07
-5.88834e+10
-3.90989e+08
-1.513e+07
-5.86384e+10
-4.03974e+08
7.18699e+06
-5.83508e+10
-4.18049e+08
1.20924e+07
-5.8007e+10
-4.34136e+08
-66790.6
-5.75907e+10
-4.5391e+08
-3.31764e+07
-5.70789e+10
-4.79101e+08
-8.87132e+07
-5.64556e+10
-5.11514e+08
-1.63782e+08
-5.57069e+10
-5.52234e+08
-2.61016e+08
-5.48288e+10
-6.03578e+08
-3.80379e+08
-5.37918e+10
-6.85415e+08
-5.37717e+08
-5.25168e+10
-8.37699e+08
-7.41086e+08
-5.09213e+10
-1.05559e+09
-1.00892e+09
-4.97842e+10
-9.11115e+08
-1.21212e+09
-4.91057e+10
-4.68011e+08
-1.90587e+09
-4.28938e+10
-1.73007e+09
-3.6597e+09
-1.08263e+10
-1.01826e+10
-9.55091e+09
-5.19482e+09
-3.63754e+09
-5.94294e+10
4.24132e+07
-5.93794e+10
6.59598e+07
-5.9342e+10
9.40387e+07
-5.93118e+10
1.17465e+08
-5.92919e+10
1.41971e+08
-5.92828e+10
1.65966e+08
-5.92802e+10
1.86081e+08
-5.92875e+10
2.04293e+08
-5.93031e+10
2.19329e+08
-5.9327e+10
2.26916e+08
-5.93562e+10
2.27494e+08
-5.9387e+10
2.16688e+08
-5.94173e+10
1.93506e+08
-5.94446e+10
1.58075e+08
-5.94599e+10
1.0443e+08
-5.94616e+10
3.38811e+07
-5.94463e+10
-5.35517e+07
-5.94075e+10
-1.57875e+08
-5.9345e+10
-2.75085e+08
-5.9255e+10
-4.02308e+08
-5.91372e+10
-5.30088e+08
-5.89943e+10
-6.52115e+08
-5.88296e+10
-7.55328e+08
-5.86526e+10
-8.3137e+08
-5.84722e+10
-8.76862e+08
-5.83002e+10
-8.8866e+08
-5.81424e+10
-8.72167e+08
-5.80026e+10
-8.34268e+08
-5.78822e+10
-7.79498e+08
-5.77779e+10
-7.17012e+08
-5.76899e+10
-6.49628e+08
-5.76117e+10
-5.83041e+08
-5.75426e+10
-5.19432e+08
-5.74782e+10
-4.62443e+08
-5.74113e+10
-4.1436e+08
-5.73421e+10
-3.74568e+08
-5.72647e+10
-3.48339e+08
-5.71762e+10
-3.3512e+08
-5.70758e+10
-3.34708e+08
-5.69632e+10
-3.50423e+08
-5.68351e+10
-3.80832e+08
-5.66907e+10
-4.30422e+08
-5.65257e+10
-5.00565e+08
-5.63451e+10
-5.89536e+08
-5.61514e+10
-7.02473e+08
-5.59517e+10
-8.43778e+08
-5.57654e+10
-1.02834e+09
-5.56368e+10
-1.27429e+09
-5.55113e+10
-1.66043e+09
-5.46483e+10
-2.40672e+09
-5.10724e+10
-3.90411e+09
-4.40509e+10
-5.90953e+09
-3.21701e+10
-1.18442e+10
-2.58269e+09
-5.8263e+10
5.259e+08
-4.28098e+08
-5.81919e+10
5.33756e+08
-4.09345e+08
-5.81323e+10
5.43097e+08
-3.92855e+08
-5.80751e+10
5.5174e+08
-3.77063e+08
-5.80227e+10
5.60907e+08
-3.622e+08
-5.79753e+10
5.70355e+08
-3.48283e+08
-5.79331e+10
5.80426e+08
-3.3994e+08
-5.78973e+10
5.90956e+08
-3.33516e+08
-5.78656e+10
6.02029e+08
-3.3405e+08
-5.7839e+10
6.13643e+08
-3.42438e+08
-5.78172e+10
6.25756e+08
-3.59757e+08
-5.7799e+10
6.38343e+08
-3.90713e+08
-5.77847e+10
6.51462e+08
-4.34365e+08
-5.77679e+10
6.64987e+08
-4.96889e+08
-5.77464e+10
6.78796e+08
-5.79534e+08
-5.77149e+10
6.9236e+08
-6.83059e+08
-5.76627e+10
7.05237e+08
-8.09829e+08
-5.75821e+10
7.17947e+08
-9.56874e+08
-5.74687e+10
7.30502e+08
-1.1194e+09
-5.73202e+10
7.42454e+08
-1.29251e+09
-5.71355e+10
7.53293e+08
-1.46444e+09
-5.69166e+10
7.628e+08
-1.62343e+09
-5.66708e+10
7.70692e+08
-1.74903e+09
-5.64114e+10
7.76494e+08
-1.8277e+09
-5.61582e+10
7.79363e+08
-1.85272e+09
-5.59256e+10
7.79323e+08
-1.82609e+09
-5.57251e+10
7.76512e+08
-1.75598e+09
-5.55618e+10
7.71345e+08
-1.65541e+09
-5.54362e+10
7.64036e+08
-1.53354e+09
-5.53466e+10
7.54658e+08
-1.40294e+09
-5.52889e+10
7.43629e+08
-1.26931e+09
-5.52588e+10
7.31181e+08
-1.1396e+09
-5.52514e+10
7.17741e+08
-1.01711e+09
-5.52635e+10
7.03264e+08
-9.03864e+08
-5.52897e+10
6.87415e+08
-8.02912e+08
-5.53225e+10
6.69551e+08
-7.14735e+08
-5.53578e+10
6.49385e+08
-6.3946e+08
-5.53875e+10
6.26821e+08
-5.81267e+08
-5.54065e+10
6.01413e+08
-5.37443e+08
-5.541e+10
5.72206e+08
-5.11321e+08
-5.53915e+10
5.38623e+08
-5.03024e+08
-5.53468e+10
4.98827e+08
-5.12783e+08
-5.52668e+10
4.5075e+08
-5.45073e+08
-5.5143e+10
3.92563e+08
-5.96569e+08
-5.4971e+10
3.22168e+08
-6.69065e+08
-5.47613e+10
2.33735e+08
-7.51896e+08
-5.45511e+10
1.09524e+08
-8.26493e+08
-5.43528e+10
-8.27979e+07
-8.92166e+08
-5.40465e+10
-3.55577e+08
-1.04742e+09
-5.33319e+10
-6.39853e+08
-1.48771e+09
-5.1732e+10
-1.14456e+09
-2.6383e+09
-4.75509e+10
-2.94148e+09
-5.19269e+09
-2.96036e+10
-1.23601e+10
-1.54988e+10
-5.56516e+09
-4.89335e+09
-5.85503e+10
5.63473e+08
-5.85619e+10
6.16518e+08
-5.85759e+10
6.56438e+08
-5.85978e+10
6.9636e+08
-5.86267e+10
7.37187e+08
-5.86637e+10
7.78711e+08
-5.8708e+10
8.16189e+08
-5.87603e+10
8.53037e+08
-5.88174e+10
8.84146e+08
-5.88795e+10
9.08405e+08
-5.89445e+10
9.24445e+08
-5.90098e+10
9.27162e+08
-5.90739e+10
9.17173e+08
-5.91286e+10
8.87716e+08
-5.91702e+10
8.37062e+08
-5.91933e+10
7.64029e+08
-5.91904e+10
6.65831e+08
-5.91551e+10
5.44458e+08
-5.90811e+10
4.03356e+08
-5.89642e+10
2.45838e+08
-5.88017e+10
8.21533e+07
-5.8593e+10
-7.6962e+07
-5.83443e+10
-2.12438e+08
-5.80685e+10
-3.10363e+08
-5.7785e+10
-3.62684e+08
-5.75095e+10
-3.69963e+08
-5.72554e+10
-3.38406e+08
-5.70305e+10
-2.7909e+08
-5.68385e+10
-2.00276e+08
-5.66802e+10
-1.14251e+08
-5.65547e+10
-2.53821e+07
-5.646e+10
5.98965e+07
-5.63926e+10
1.37895e+08
-5.63503e+10
2.06504e+08
-5.63303e+10
2.62535e+08
-5.63302e+10
3.06415e+08
-5.63538e+10
3.38703e+08
-5.64004e+10
3.55409e+08
-5.64728e+10
3.59618e+08
-5.65754e+10
3.48877e+08
-5.67133e+10
3.24518e+08
-5.68986e+10
2.8713e+08
-5.7143e+10
2.32687e+08
-5.74634e+10
1.64081e+08
-5.7885e+10
7.82908e+07
-5.84635e+10
-1.22453e+07
-5.93162e+10
-8.47387e+07
-6.05845e+10
-1.59776e+08
-6.23202e+10
-4.27237e+08
-6.42459e+10
-1.3665e+09
-6.58003e+10
-3.816e+09
-6.60191e+10
-9.17958e+09
-7.17591e+10
-1.90049e+10
-1.6753e+09
-5.78136e+10
5.08669e+08
-9.43284e+08
-5.78111e+10
5.11726e+08
-9.16241e+08
-5.78182e+10
5.15387e+08
-8.93981e+08
-5.78319e+10
5.16106e+08
-8.7244e+08
-5.78538e+10
5.17311e+08
-8.50629e+08
-5.78821e+10
5.17726e+08
-8.30811e+08
-5.79189e+10
5.17947e+08
-8.1426e+08
-5.7963e+10
5.1777e+08
-8.0007e+08
-5.80139e+10
5.17303e+08
-7.93224e+08
-5.80711e+10
5.16568e+08
-7.9398e+08
-5.81304e+10
5.15572e+08
-8.0763e+08
-5.81904e+10
5.14458e+08
-8.35455e+08
-5.8245e+10
5.13374e+08
-8.81257e+08
-5.82875e+10
5.12439e+08
-9.51607e+08
-5.83114e+10
5.1164e+08
-1.04832e+09
-5.83061e+10
5.11034e+08
-1.17606e+09
-5.82632e+10
5.10627e+08
-1.33526e+09
-5.81702e+10
5.10539e+08
-1.52639e+09
-5.80171e+10
5.11253e+08
-1.74448e+09
-5.77958e+10
5.13254e+08
-1.98415e+09
-5.74984e+10
5.16981e+08
-2.23615e+09
-5.71212e+10
5.24064e+08
-2.48228e+09
-5.66707e+10
5.3555e+08
-2.6924e+09
-5.61671e+10
5.51693e+08
-2.84111e+09
-5.56391e+10
5.72118e+08
-2.91506e+09
-5.51121e+10
5.96149e+08
-2.91854e+09
-5.4606e+10
6.23117e+08
-2.86281e+09
-5.41329e+10
6.52328e+08
-2.76507e+09
-5.36962e+10
6.82374e+08
-2.6416e+09
-5.32985e+10
7.11503e+08
-2.50393e+09
-5.29368e+10
7.38912e+08
-2.36387e+09
-5.26079e+10
7.64404e+08
-2.22829e+09
-5.23096e+10
7.88347e+08
-2.10022e+09
-5.20371e+10
8.10539e+08
-1.98408e+09
-5.17887e+10
8.30661e+08
-1.87975e+09
-5.15613e+10
8.48364e+08
-1.78841e+09
-5.13538e+10
8.6276e+08
-1.70782e+09
-5.11666e+10
8.73057e+08
-1.63963e+09
-5.09975e+10
8.78237e+08
-1.58326e+09
-5.08495e+10
8.7707e+08
-1.53579e+09
-5.07229e+10
8.6827e+08
-1.49872e+09
-5.06204e+10
8.50394e+08
-1.46881e+09
-5.05461e+10
8.21331e+08
-1.44735e+09
-5.05012e+10
7.78421e+08
-1.43324e+09
-5.05029e+10
7.20836e+08
-1.4165e+09
-5.05944e+10
6.52768e+08
-1.37672e+09
-5.08681e+10
5.84195e+08
-1.27598e+09
-5.14452e+10
5.15084e+08
-1.1048e+09
-5.25215e+10
4.24406e+08
-9.23732e+08
-5.42358e+10
2.69922e+08
-9.15587e+08
-5.60691e+10
-4.48463e+08
-1.62937e+09
-5.68253e+10
-2.52099e+09
-3.42233e+09
-5.35806e+10
-1.05669e+10
-9.44913e+09
-2.46323e+09
-9.46768e+08
-6.06192e+10
1.0975e+09
-6.06492e+10
1.1631e+09
-6.06758e+10
1.20319e+09
-6.07087e+10
1.25006e+09
-6.0746e+10
1.29645e+09
-6.07872e+10
1.34244e+09
-6.0834e+10
1.38578e+09
-6.08857e+10
1.42748e+09
-6.09413e+10
1.46245e+09
-6.10013e+10
1.49062e+09
-6.10613e+10
1.50643e+09
-6.11215e+10
1.50918e+09
-6.11767e+10
1.49491e+09
-6.12224e+10
1.45716e+09
-6.12536e+10
1.3941e+09
-6.12624e+10
1.30099e+09
-6.12426e+10
1.17727e+09
-6.11848e+10
1.02223e+09
-6.10823e+10
8.41036e+08
-6.09307e+10
6.3861e+08
-6.07256e+10
4.25923e+08
-6.04675e+10
2.2139e+08
-6.01661e+10
5.41307e+07
-5.98396e+10
-5.35608e+07
-5.95113e+10
-9.06093e+07
-5.91988e+10
-6.3172e+07
-5.89141e+10
1.77062e+07
-5.86629e+10
1.35502e+08
-5.8445e+10
2.74827e+08
-5.82641e+10
4.25189e+08
-5.81197e+10
5.76903e+08
-5.80101e+10
7.21906e+08
-5.79351e+10
8.58121e+08
-5.78923e+10
9.80947e+08
-5.78833e+10
1.09114e+09
-5.79087e+10
1.18731e+09
-5.79716e+10
1.2719e+09
-5.80784e+10
1.34331e+09
-5.82349e+10
1.40256e+09
-5.84533e+10
1.45262e+09
-5.87453e+10
1.49286e+09
-5.91278e+10
1.52733e+09
-5.96243e+10
1.55654e+09
-6.02643e+10
1.58492e+09
-6.11007e+10
1.6284e+09
-6.22059e+10
1.71422e+09
-6.36871e+10
1.898e+09
-6.57256e+10
2.20915e+09
-6.86455e+10
2.56786e+09
-7.307e+10
2.73976e+09
-8.10423e+10
2.84952e+09
-9.64182e+10
2.76267e+09
-1.32955e+11
6.39069e+09
2.00841e+09
-5.8767e+10
7.98045e+07
-9.75375e+08
-5.88324e+10
6.87758e+07
-9.12323e+08
-5.88985e+10
5.63526e+07
-8.76922e+08
-5.89745e+10
4.30891e+07
-8.31992e+08
-5.90595e+10
2.93376e+07
-7.87035e+08
-5.91519e+10
1.41488e+07
-7.44276e+08
-5.92534e+10
-1.93245e+06
-7.02035e+08
-5.9363e+10
-1.89323e+07
-6.62021e+08
-5.94813e+10
-3.66612e+07
-6.27853e+08
-5.9604e+10
-5.50317e+07
-6.04786e+08
-5.97344e+10
-7.39135e+07
-5.90473e+08
-5.98677e+10
-9.31102e+07
-5.94141e+08
-5.99996e+10
-1.12276e+08
-6.19169e+08
-6.01268e+10
-1.31022e+08
-6.71361e+08
-6.02421e+10
-1.48957e+08
-7.56972e+08
-6.03382e+10
-1.65635e+08
-8.82036e+08
-6.0403e+10
-1.80483e+08
-1.05058e+09
-6.04275e+10
-1.93101e+08
-1.26208e+09
-6.03985e+10
-2.02548e+08
-1.51402e+09
-6.03081e+10
-2.09246e+08
-1.80334e+09
-6.0142e+10
-2.11742e+08
-2.12409e+09
-5.98936e+10
-2.11079e+08
-2.45263e+09
-5.95624e+10
-2.08681e+08
-2.74501e+09
-5.91745e+10
-2.0841e+08
-2.95239e+09
-5.87592e+10
-2.10499e+08
-3.05448e+09
-5.83478e+10
-2.15214e+08
-3.05748e+09
-5.7956e+10
-2.20972e+08
-2.98437e+09
-5.75906e+10
-2.25932e+08
-2.86114e+09
-5.72536e+10
-2.28237e+08
-2.70995e+09
-5.69399e+10
-2.26577e+08
-2.55138e+09
-5.66471e+10
-2.21127e+08
-2.39501e+09
-5.63699e+10
-2.11944e+08
-2.2513e+09
-5.61048e+10
-1.99081e+08
-2.12184e+09
-5.58499e+10
-1.8358e+08
-2.00815e+09
-5.56039e+10
-1.65822e+08
-1.90948e+09
-5.53674e+10
-1.46516e+08
-1.82412e+09
-5.51399e+10
-1.26824e+08
-1.74974e+09
-5.49243e+10
-1.07877e+08
-1.6838e+09
-5.47262e+10
-9.09851e+07
-1.62158e+09
-5.45461e+10
-7.76412e+07
-1.56397e+09
-5.43942e+10
-6.95293e+07
-1.50092e+09
-5.42787e+10
-6.88179e+07
-1.42873e+09
-5.42113e+10
-7.87878e+07
-1.34121e+09
-5.42073e+10
-1.04173e+08
-1.22943e+09
-5.42891e+10
-1.49164e+08
-1.07385e+09
-5.44978e+10
-2.13875e+08
-8.46038e+08
-5.49268e+10
-2.85526e+08
-4.80067e+08
-5.58091e+10
-3.5025e+08
1.19831e+08
-5.7668e+10
-4.21003e+08
1.17527e+09
-6.12099e+10
-6.65892e+08
2.86795e+09
-6.83339e+10
-1.18503e+09
6.02188e+09
-8.25348e+10
-1.84638e+09
1.18455e+10
-1.20878e+11
6.80147e+07
2.86775e+10
-1.49612e+09
7.01236e+09
-5.9616e+10
1.16624e+09
-5.95859e+10
1.20691e+09
-5.95631e+10
1.24206e+09
-5.95453e+10
1.28099e+09
-5.95328e+10
1.31928e+09
-5.95249e+10
1.35527e+09
-5.95242e+10
1.39029e+09
-5.95308e+10
1.42319e+09
-5.95467e+10
1.45045e+09
-5.95683e+10
1.46712e+09
-5.96006e+10
1.47597e+09
-5.96398e+10
1.46835e+09
-5.96831e+10
1.44147e+09
-5.97281e+10
1.39007e+09
-5.97688e+10
1.30846e+09
-5.97979e+10
1.1913e+09
-5.9804e+10
1.03487e+09
-5.97774e+10
8.41081e+08
-5.97054e+10
6.11143e+08
-5.95752e+10
3.49108e+08
-5.9365e+10
5.71322e+07
-5.90559e+10
-2.43362e+08
-5.86446e+10
-5.09132e+08
-5.81615e+10
-6.87931e+08
-5.76492e+10
-7.59149e+08
-5.71511e+10
-7.26452e+08
-5.66958e+10
-6.12453e+08
-5.62992e+10
-4.43257e+08
-5.59672e+10
-2.4201e+08
-5.56918e+10
-3.21171e+07
-5.5465e+10
1.75826e+08
-5.52705e+10
3.65032e+08
-5.50944e+10
5.35725e+08
-5.49289e+10
6.88335e+08
-5.47669e+10
8.23985e+08
-5.46041e+10
9.43364e+08
-5.44356e+10
1.04746e+09
-5.42601e+10
1.13662e+09
-5.40778e+10
1.21258e+09
-5.38832e+10
1.27073e+09
-5.36785e+10
1.3168e+09
-5.34617e+10
1.34886e+09
-5.32339e+10
1.36752e+09
-5.30015e+10
1.37809e+09
-5.27778e+10
1.39656e+09
-5.25754e+10
1.44466e+09
-5.24008e+10
1.57147e+09
-5.23073e+10
1.85343e+09
-5.26054e+10
2.42865e+09
-5.40853e+10
3.39944e+09
-5.86998e+10
6.07658e+09
-6.85146e+10
1.06709e+10
-8.79747e+10
2.61314e+10
9.07442e+09
-5.83589e+10
-7.2054e+07
-9.16101e+08
-5.83508e+10
-8.5411e+07
-8.26774e+08
-5.83537e+10
-8.30947e+07
-7.82071e+08
-5.83666e+10
-8.6545e+07
-7.22547e+08
-5.83894e+10
-8.89631e+07
-6.64051e+08
-5.84222e+10
-9.20686e+07
-6.06678e+08
-5.84668e+10
-9.50867e+07
-5.47981e+08
-5.85209e+10
-9.79706e+07
-4.93825e+08
-5.85867e+10
-1.00516e+08
-4.43292e+08
-5.86666e+10
-1.02612e+08
-4.01785e+08
-5.87575e+10
-1.04108e+08
-3.72191e+08
-5.88605e+10
-1.04896e+08
-3.59672e+08
-5.8973e+10
-1.04732e+08
-3.70664e+08
-5.90904e+10
-1.03482e+08
-4.13563e+08
-5.92075e+10
-1.01082e+08
-4.95527e+08
-5.93142e+10
-9.74985e+07
-6.27125e+08
-5.93999e+10
-9.31223e+07
-8.13437e+08
-5.94468e+10
-8.74748e+07
-1.05706e+09
-5.94429e+10
-8.1952e+07
-1.35447e+09
-5.93761e+10
-7.74532e+07
-1.69993e+09
-5.92319e+10
-7.64828e+07
-2.09253e+09
-5.89886e+10
-7.91245e+07
-2.51114e+09
-5.86494e+10
-8.52195e+07
-2.88977e+09
-5.82544e+10
-9.28329e+07
-3.1414e+09
-5.78673e+10
-1.03163e+08
-3.22609e+09
-5.7531e+10
-1.16529e+08
-3.16828e+09
-5.72638e+10
-1.32763e+08
-3.01268e+09
-5.70657e+10
-1.51323e+08
-2.80242e+09
-5.69236e+10
-1.70999e+08
-2.57264e+09
-5.68211e+10
-1.90396e+08
-2.34933e+09
-5.6741e+10
-2.08325e+08
-2.14487e+09
-5.6671e+10
-2.242e+08
-1.96611e+09
-5.65997e+10
-2.38171e+08
-1.81372e+09
-5.65185e+10
-2.49708e+08
-1.68719e+09
-5.64197e+10
-2.58381e+08
-1.58472e+09
-5.62993e+10
-2.63753e+08
-1.50141e+09
-5.61512e+10
-2.65458e+08
-1.43719e+09
-5.59727e+10
-2.63292e+08
-1.3861e+09
-5.57572e+10
-2.56642e+08
-1.34767e+09
-5.55038e+10
-2.44679e+08
-1.3181e+09
-5.52043e+10
-2.25977e+08
-1.29529e+09
-5.48523e+10
-1.98759e+08
-1.27442e+09
-5.44413e+10
-1.615e+08
-1.24975e+09
-5.39573e+10
-1.12827e+08
-1.21761e+09
-5.33844e+10
-5.26337e+07
-1.16219e+09
-5.26978e+10
2.0093e+07
-1.06526e+09
-5.18566e+10
1.09071e+08
-8.96504e+08
-5.07869e+10
2.13917e+08
-5.96349e+08
-4.9287e+10
2.81879e+08
-3.66015e+07
-4.71791e+10
2.33501e+08
1.07478e+09
-4.48551e+10
3.85342e+08
3.89518e+09
-4.44372e+10
1.59687e+09
1.06696e+10
-5.09856e+10
6.91391e+09
2.89815e+10
2.89655e+09
9.99521e+09
-6.06874e+10
1.20957e+09
-6.08524e+10
1.29189e+09
-6.1019e+10
1.33152e+09
-6.12025e+10
1.38462e+09
-6.1401e+10
1.43629e+09
-6.16158e+10
1.48655e+09
-6.1849e+10
1.538e+09
-6.20981e+10
1.58505e+09
-6.23649e+10
1.62887e+09
-6.26508e+10
1.66395e+09
-6.29512e+10
1.68768e+09
-6.3265e+10
1.69495e+09
-6.35869e+10
1.67938e+09
-6.39085e+10
1.63257e+09
-6.42202e+10
1.54759e+09
-6.4507e+10
1.41372e+09
-6.47524e+10
1.22626e+09
-6.49348e+10
9.82018e+08
-6.50366e+10
6.84825e+08
-6.50444e+10
3.39956e+08
-6.49456e+10
-5.30028e+07
-6.4726e+10
-4.74227e+08
-6.4387e+10
-8.62296e+08
-6.39615e+10
-1.13414e+09
-6.35056e+10
-1.24678e+09
-6.30609e+10
-1.21785e+09
-6.2649e+10
-1.0883e+09
-6.22757e+10
-8.98559e+08
-6.19352e+10
-6.81844e+08
-6.16178e+10
-4.64005e+08
-6.13114e+10
-2.57869e+08
-6.1012e+10
-7.15275e+07
-6.07156e+10
9.4735e+07
-6.04158e+10
2.39704e+08
-6.01056e+10
3.64394e+08
-5.97805e+10
4.72789e+08
-5.94333e+10
5.63382e+08
-5.906e+10
6.40188e+08
-5.86526e+10
7.01819e+08
-5.82089e+10
7.50161e+08
-5.77183e+10
7.84721e+08
-5.71724e+10
8.07973e+08
-5.65628e+10
8.23903e+08
-5.58781e+10
8.36936e+08
-5.51107e+10
8.67762e+08
-5.42596e+10
9.41708e+08
-5.33145e+10
1.09703e+09
-5.22753e+10
1.40628e+09
-5.11151e+10
1.92483e+09
-4.9866e+10
2.75821e+09
-4.71575e+10
4.20139e+09
-4.30575e+10
8.69627e+09
-3.16196e+10
2.20192e+10
8.66746e+09
-5.83867e+10
-7.7995e+07
-8.99585e+08
-5.83167e+10
-7.74503e+07
-8.12769e+08
-5.82659e+10
-6.41217e+07
-7.6147e+08
-5.82249e+10
-5.7475e+07
-6.97731e+08
-5.81965e+10
-5.00184e+07
-6.32987e+08
-5.81816e+10
-4.3693e+07
-5.67103e+08
-5.81825e+10
-3.77837e+07
-4.97051e+08
-5.82022e+10
-3.23762e+07
-4.27962e+08
-5.82412e+10
-2.74129e+07
-3.61398e+08
-5.83032e+10
-2.28759e+07
-2.99639e+08
-5.83895e+10
-1.86677e+07
-2.47596e+08
-5.84971e+10
-1.47287e+07
-2.14598e+08
-5.86239e+10
-1.10714e+07
-2.05667e+08
-5.87654e+10
-7.92078e+06
-2.31686e+08
-5.89095e+10
-5.77314e+06
-3.07233e+08
-5.90432e+10
-5.48057e+06
-4.43287e+08
-5.91451e+10
-7.92554e+06
-6.51713e+08
-5.91915e+10
-1.37188e+07
-9.3491e+08
-5.91604e+10
-2.40701e+07
-1.2902e+09
-5.90262e+10
-3.8936e+07
-1.71315e+09
-5.87597e+10
-5.84139e+07
-2.21338e+09
-5.83098e+10
-7.67034e+07
-2.79149e+09
-5.76487e+10
-8.88436e+07
-3.3666e+09
-5.68373e+10
-9.2105e+07
-3.7601e+09
-5.6008e+10
-8.60528e+07
-3.86862e+09
-5.52537e+10
-7.09658e+07
-3.74971e+09
-5.46137e+10
-5.03022e+07
-3.50035e+09
-5.40961e+10
-2.75597e+07
-3.18832e+09
-5.36859e+10
-5.30301e+06
-2.86855e+09
-5.33622e+10
1.52526e+07
-2.57206e+09
-5.31025e+10
3.36772e+07
-2.31275e+09
-5.28901e+10
5.04592e+07
-2.09275e+09
-5.27104e+10
6.68776e+07
-1.91212e+09
-5.25532e+10
8.49105e+07
-1.76779e+09
-5.24146e+10
1.05557e+08
-1.65256e+09
-5.22872e+10
1.29258e+08
-1.56477e+09
-5.21705e+10
1.56798e+08
-1.49819e+09
-5.20587e+10
1.88327e+08
-1.45169e+09
-5.19525e+10
2.24163e+08
-1.41843e+09
-5.18495e+10
2.65179e+08
-1.39812e+09
-5.17484e+10
3.12511e+08
-1.38779e+09
-5.16481e+10
3.67626e+08
-1.38244e+09
-5.15461e+10
4.31781e+08
-1.376e+09
-5.14365e+10
5.06404e+08
-1.366e+09
-5.13096e+10
5.92943e+08
-1.34085e+09
-5.11576e+10
6.91142e+08
-1.28495e+09
-5.09888e+10
7.96948e+08
-1.15857e+09
-5.081e+10
9.1017e+08
-9.14125e+08
-5.04768e+10
1.04121e+09
-5.74822e+08
-4.92364e+10
1.14468e+09
-3.57382e+08
-4.53544e+10
1.21112e+09
-3.04189e+07
-3.99632e+10
1.96645e+09
4.47822e+09
-3.48219e+10
4.87329e+09
2.00048e+10
2.7269e+09
8.63116e+09