/*--------------------------------*- C++ -*----------------------------------*\
| =========                 |                                                 |
| \\      /  F ield         | OpenFOAM: The Open Source CFD Toolbox           |
|  \\    /   O peration     | Version:  4.1                                   |
|   \\  /    A nd           | Web:      www.OpenFOAM.org                      |
|    \\/     M anipulation  |                                                 |
\*---------------------------------------------------------------------------*/
FoamFile
{
    version     2.0;
    format      ascii;
    class       volVectorField;
    location    "95";
    object      U;
}
// * * * * * * * * * * * * * * * * * * * * * * * * * * * * * * * * * * * * * //

dimensions      [0 1 -1 0 0 0 0];

internalField   nonuniform List<vector> 
4432
(
(-151233 -3062.52 -1447.74)
(-152765 -3130.59 -1515.27)
(-153541 -3109.47 -1499.29)
(-154491 -3138.91 -1543.54)
(-155436 -3151.76 -1577.3)
(-156415 -3165.31 -1607.6)
(-157389 -3181.99 -1656.79)
(-158364 -3198.07 -1720.27)
(-159321 -3213.6 -1804.98)
(-160243 -3228.79 -1915.61)
(-161108 -3243.77 -2055.82)
(-161890 -3258.33 -2230.07)
(-162562 -3272.21 -2441.81)
(-163092 -3285.22 -2691.26)
(-163450 -3297.49 -2973.62)
(-163600 -3308.86 -3282.02)
(-163507 -3320.76 -3608.24)
(-163165 -3337.99 -3954.66)
(-162551 -3360.03 -4316.05)
(-161657 -3386.03 -4686.48)
(-160470 -3415.09 -5055.45)
(-158998 -3447.08 -5414.7)
(-157257 -3479.89 -5751.77)
(-155280 -3513.37 -6058.23)
(-153118 -3545.82 -6325.24)
(-150823 -3576.07 -6549.3)
(-148459 -3602.23 -6729.07)
(-146076 -3623.17 -6867.08)
(-143734 -3637.41 -6966.59)
(-141471 -3644.35 -7032.72)
(-139328 -3643.4 -7070.31)
(-137336 -3634.66 -7084.45)
(-135514 -3618.74 -7080.56)
(-133887 -3596.97 -7062.96)
(-132463 -3571.95 -7036.7)
(-131251 -3549.67 -7005.28)
(-130261 -3536.7 -6971.2)
(-129494 -3540.82 -6937.09)
(-128961 -3561.63 -6891.54)
(-128682 -3594.26 -6815.73)
(-128686 -3639.92 -6681.92)
(-128931 -3702.48 -6451.53)
(-129240 -3787.73 -6073.7)
(-129433 -3910.97 -5473.33)
(-129916 -4095.9 -4547.99)
(-132249 -4360.13 -3190.99)
(-137952 -4715 -1259.32)
(-144605 -5191.81 1405.19)
(-144439 -5699.56 5445.74)
(-137801 -5292.55 12081.2)
(-153831 -2202.61 25839.9)
(-224255 6704.69 37438.6)
(-270092 -604.586 53605.4)
(-197437 5095.38 29979.2)
(-187850 3237.46 -190.713)
(-189002 3197.1 -158.479)
(-189696 3226.48 -165.77)
(-190541 3216.25 -156.143)
(-191357 3219.61 -155.636)
(-192213 3223.69 -150.817)
(-193068 3225.96 -158.718)
(-193925 3229.36 -177.883)
(-194769 3233.75 -214.655)
(-195588 3238.69 -272.348)
(-196360 3243.79 -354.469)
(-197064 3248.93 -464.859)
(-197677 3253.97 -606.165)
(-198168 3258.74 -778.045)
(-198514 3262.87 -977.172)
(-198683 3266.62 -1199.79)
(-198650 3269.68 -1442.75)
(-198404 3272.56 -1700.37)
(-197943 3277.68 -1966.07)
(-197259 3285.63 -2235.1)
(-196351 3298.36 -2501.67)
(-195229 3316.15 -2756.77)
(-193911 3340.27 -2991.68)
(-192428 3370.86 -3199.77)
(-190824 3408.3 -3376.16)
(-189144 3453.36 -3519.71)
(-187438 3506.13 -3632.15)
(-185748 3567.2 -3717.71)
(-184114 3636.25 -3781.87)
(-182563 3713.41 -3830.29)
(-181122 3798.23 -3868.76)
(-179807 3890.15 -3902.07)
(-178627 3989.02 -3934.28)
(-177595 4093.89 -3967.81)
(-176715 4203.9 -4004.98)
(-176005 4319.89 -4044.81)
(-175481 4442.58 -4086.74)
(-175162 4574.86 -4132.76)
(-175076 4722.72 -4175.29)
(-175254 4892.19 -4196.75)
(-175732 5087.75 -4178.04)
(-176509 5314.96 -4093.1)
(-177494 5579.78 -3903.61)
(-178615 5884.33 -3554.49)
(-180236 6228.22 -2973.06)
(-183537 6615.28 -2080.77)
(-189656 7050.02 -766.444)
(-196943 7530.9 1143.09)
(-199720 8163.08 4153.85)
(-198832 9626.3 8819.9)
(-218828 12967.8 15488.5)
(-298903 18595.3 18396.2)
(-361965 6212.04 36646)
(-337808 -17678 70081)
(-268784 -1266.5 3211.67)
(-268978 -1256.22 3209.14)
(-269110 -1270.1 3251.88)
(-269280 -1264.99 3282.47)
(-269432 -1264 3312.74)
(-269608 -1262.01 3349.34)
(-269790 -1259.93 3376.19)
(-269973 -1257.18 3391.4)
(-270157 -1254.28 3388.98)
(-270337 -1251.05 3365.2)
(-270507 -1248.15 3316.39)
(-270662 -1245.8 3238.58)
(-270791 -1243.88 3129.37)
(-270884 -1242.26 2988.84)
(-270931 -1241.56 2820.77)
(-270925 -1243.32 2629.88)
(-270886 -1250.88 2421.31)
(-270792 -1260.49 2199.04)
(-270644 -1269.56 1965.58)
(-270440 -1278.01 1729.15)
(-270177 -1287.46 1502.81)
(-269861 -1296.36 1298.25)
(-269498 -1304.57 1130.07)
(-269097 -1312.19 1009.72)
(-268678 -1319.41 946.798)
(-268247 -1326.34 943.541)
(-267820 -1332.98 998.186)
(-267393 -1339.5 1103.76)
(-266967 -1346.07 1252.85)
(-266526 -1352.53 1435.93)
(-266061 -1358.75 1644.4)
(-265550 -1364.29 1868.67)
(-264974 -1368.42 2100.27)
(-264309 -1369.95 2331.11)
(-263526 -1367.53 2552.87)
(-262599 -1359.49 2758.56)
(-261493 -1344.62 2942.98)
(-260178 -1322.96 3107.13)
(-258630 -1291.79 3256.32)
(-256819 -1243.87 3390.07)
(-254755 -1175.59 3513.27)
(-252343 -1083.82 3618.82)
(-249413 -962.335 3711)
(-245792 -806.897 3806.89)
(-241561 -614.959 3930.95)
(-237202 -379.566 4077.53)
(-232962 -88.5403 4109.96)
(-226966 276.274 3825.03)
(-216108 775.908 3444.6)
(-200989 1730.93 4390.08)
(-198664 3057.81 5840.88)
(-196309 4333.02 3790.04)
(-206035 -2167.5 -353.826)
(29750.5 -10255 6512.33)
(-308157 1617.55 1980.55)
(-308143 1580.88 1996.44)
(-308119 1549.04 1971.36)
(-308108 1527.57 1987.85)
(-308092 1504.56 1989.85)
(-308091 1482.44 1997.27)
(-308094 1460.88 1996.83)
(-308097 1440.55 1985.94)
(-308102 1421.21 1958.44)
(-308107 1403.28 1911.4)
(-308110 1386.71 1841.34)
(-308107 1371.77 1744.67)
(-308092 1358.97 1618.97)
(-308059 1349.17 1464.2)
(-308001 1342.06 1283.75)
(-307910 1336.72 1083.03)
(-307783 1329.47 868.756)
(-307646 1319.5 643.926)
(-307486 1308.23 407.87)
(-307295 1296.1 167.711)
(-307079 1281.6 -64.4071)
(-306846 1266.09 -276.378)
(-306604 1249.82 -455.861)
(-306367 1232.95 -590.943)
(-306156 1215.44 -673.186)
(-305980 1197.67 -700.215)
(-305861 1179.65 -674.169)
(-305799 1161.75 -601.508)
(-305803 1144.19 -489.9)
(-305865 1127.45 -348.521)
(-305980 1111.71 -186.054)
(-306132 1097.58 -11.1406)
(-306303 1085.81 168.284)
(-306474 1077.5 344.77)
(-306614 1074 510.66)
(-306695 1076.75 659.446)
(-306683 1086.58 786.095)
(-306543 1102.29 887.869)
(-306289 1123.44 966.893)
(-305883 1157.24 1017.74)
(-305269 1207.88 1034.93)
(-304351 1278.1 1011.69)
(-302950 1373.57 945.457)
(-300876 1498.92 847.769)
(-298163 1656.09 740.721)
(-295177 1849.33 618.814)
(-291980 2089.56 371.753)
(-286640 2402.49 -67.901)
(-275907 2796.42 -198.273)
(-260564 3677.43 942.426)
(-251927 4944.67 728.046)
(-237467 6510.1 -6074.78)
(-188582 -11265.2 -2115)
(-10184.4 -8088.83 4382.89)
(-223959 -2719.08 -1573.09)
(-223601 -2677.86 -1552.76)
(-223498 -2706.58 -1549.31)
(-223376 -2694.12 -1516.33)
(-223287 -2689.75 -1498.44)
(-223222 -2684.77 -1484.87)
(-223185 -2680.45 -1477.69)
(-223173 -2675.61 -1483.82)
(-223184 -2671.76 -1508.59)
(-223221 -2668.78 -1556.19)
(-223285 -2667.67 -1632.78)
(-223376 -2668.9 -1743.51)
(-223490 -2673.33 -1892.93)
(-223621 -2681.42 -2084.48)
(-223753 -2693.18 -2320.38)
(-223867 -2707.26 -2602.26)
(-223891 -2718.18 -2935.95)
(-223798 -2724.02 -3315.87)
(-223572 -2728.95 -3732.92)
(-223197 -2731.31 -4171.54)
(-222671 -2729.25 -4616.05)
(-222001 -2720.37 -5043.87)
(-221202 -2704.04 -5434.62)
(-220306 -2678.35 -5767.34)
(-219355 -2643.18 -6028.75)
(-218396 -2598.79 -6215.97)
(-217471 -2546.01 -6334.38)
(-216610 -2486.02 -6395.9)
(-215833 -2420.48 -6413.31)
(-215150 -2350.96 -6400.56)
(-214560 -2279.72 -6369.7)
(-214054 -2207.82 -6331.8)
(-213620 -2135.9 -6294.95)
(-213242 -2064.1 -6265.83)
(-212901 -1992.5 -6250.22)
(-212585 -1921.15 -6250.03)
(-212273 -1849.42 -6264.97)
(-211953 -1775.35 -6290.13)
(-211610 -1702.55 -6320.13)
(-211206 -1633.7 -6358.74)
(-210641 -1563.41 -6409.92)
(-209855 -1486.21 -6475.12)
(-208668 -1404.51 -6549.39)
(-206899 -1320.11 -6609.27)
(-204708 -1232.01 -6616.67)
(-202933 -1133.41 -6547.85)
(-202106 -992.309 -6527.3)
(-200175 -683.153 -6801.69)
(-191741 89.1959 -7445.08)
(-177963 2091.18 -8332.25)
(-172841 5153.04 -8604.39)
(-202499 9184.2 938.015)
(-235624 -8575.27 24484)
(-167902 -2881.5 11902.9)
(-256272 2924.76 330.184)
(-255288 2960.17 312.434)
(-254828 2932.78 300.811)
(-254256 2942.29 310.616)
(-253770 2944.54 310.412)
(-253312 2947.43 306.755)
(-252894 2949.75 300.257)
(-252515 2952.42 283.556)
(-252178 2953.86 252.018)
(-251888 2953.72 201.397)
(-251647 2950.8 126.264)
(-251459 2944.21 21.6356)
(-251324 2932.79 -117.462)
(-251240 2915.28 -295.499)
(-251200 2890.84 -514.48)
(-251197 2861.2 -773.209)
(-251214 2832.95 -1067.35)
(-251193 2808.73 -1394.72)
(-251126 2784.7 -1751.39)
(-251015 2762.32 -2123.74)
(-250855 2743.53 -2495)
(-250650 2730.59 -2847.86)
(-250410 2724.06 -3163.73)
(-250157 2725.55 -3424.79)
(-249918 2734.91 -3619.95)
(-249720 2751.66 -3747.54)
(-249587 2774.52 -3812.46)
(-249534 2801.97 -3825.35)
(-249570 2832.06 -3797.17)
(-249695 2863.04 -3740.09)
(-249914 2894.29 -3663.18)
(-250222 2926.06 -3574.62)
(-250619 2958.74 -3480.34)
(-251103 2993.14 -3385.6)
(-251670 3029.31 -3295.05)
(-252320 3067.48 -3211.39)
(-253051 3108.89 -3136.49)
(-253860 3158.95 -3077.49)
(-254690 3221.24 -3046.15)
(-255552 3293.87 -3048.95)
(-256447 3385.08 -3092.01)
(-257336 3504.94 -3187.66)
(-258093 3656.98 -3346.22)
(-258592 3846.3 -3562.56)
(-259021 4083.37 -3821.05)
(-260193 4387.81 -4133.21)
(-262649 4800.05 -4646.59)
(-264468 5424.88 -5577.92)
(-260417 6534.18 -6941.66)
(-252176 8673.53 -7926.93)
(-259046 11573.4 -7426.31)
(-321567 12106.3 -3120.29)
(-395207 -6127.68 4716.02)
(-382134 -22614.5 15102.9)
(-250189 -3506.42 2231.47)
(-250144 -3504.22 2413.24)
(-250094 -3505.95 2485.24)
(-250071 -3494.64 2589.73)
(-250077 -3482.27 2683.48)
(-250103 -3468.37 2770.43)
(-250148 -3451.15 2848)
(-250209 -3431.21 2913.17)
(-250282 -3408.97 2960.78)
(-250361 -3384.27 2984.44)
(-250438 -3357.5 2976.17)
(-250502 -3328.61 2929.2)
(-250537 -3297.87 2835.5)
(-250524 -3265.75 2686.83)
(-250439 -3232.99 2476.42)
(-250265 -3200.51 2202.5)
(-250000 -3168.27 1873.21)
(-249665 -3140.89 1503.75)
(-249241 -3120.35 1106.42)
(-248720 -3108.84 701.243)
(-248099 -3106.19 313.347)
(-247381 -3113.85 -26.2827)
(-246579 -3131.07 -286.207)
(-245717 -3157.14 -439.561)
(-244829 -3190.51 -473.003)
(-243954 -3229.04 -389.163)
(-243119 -3269.53 -203.492)
(-242339 -3309 61.4463)
(-241620 -3344.71 381.737)
(-240958 -3374.08 735.132)
(-240345 -3394.61 1103.22)
(-239766 -3404.08 1471.24)
(-239206 -3400.58 1828.2)
(-238644 -3382.61 2165.43)
(-238061 -3348.57 2476.15)
(-237431 -3297.57 2755.84)
(-236736 -3230.52 3000.5)
(-235956 -3150.79 3204.03)
(-235062 -3059.2 3356.94)
(-234041 -2959.85 3453.01)
(-232861 -2856.03 3492.51)
(-231427 -2749.77 3471.61)
(-229541 -2644.95 3381.77)
(-226991 -2547.35 3217.79)
(-223903 -2467.01 2987.73)
(-221012 -2418.75 2717.71)
(-218809 -2422.1 2413.76)
(-215155 -2436.67 2014.23)
(-205925 -2289.42 1304.04)
(-191204 -1260.61 -137.664)
(-190861 -675.294 -2935.77)
(-207279 -3181.58 -4275.1)
(-178331 -13400.3 -4138.11)
(73190 -9164.2 6243.99)
(-237923 2958.01 747.636)
(-237575 2965.96 845.899)
(-237446 2952.43 960.095)
(-237290 2955.06 1054.69)
(-237199 2955.15 1155.15)
(-237140 2954.37 1250.66)
(-237116 2954.27 1342.23)
(-237129 2954.09 1424.68)
(-237176 2953.34 1494.82)
(-237253 2952.06 1546.17)
(-237355 2949.78 1571.53)
(-237477 2946.48 1564.33)
(-237604 2941.59 1517.74)
(-237720 2934.22 1424.41)
(-237804 2923.96 1276.99)
(-237837 2908.57 1072.7)
(-237803 2887.73 812.265)
(-237687 2859.06 505.805)
(-237475 2819.77 172.44)
(-237156 2767.45 -167.791)
(-236724 2703.09 -491.269)
(-236182 2626.17 -766.725)
(-235546 2538.77 -959.832)
(-234845 2443.32 -1043.25)
(-234120 2343.17 -1002.9)
(-233413 2242.15 -840.784)
(-232760 2144.82 -572.382)
(-232178 2055.04 -221.257)
(-231674 1976.03 187.02)
(-231245 1910.5 627.694)
(-230881 1860.91 1080.31)
(-230567 1829.18 1526.55)
(-230288 1816.97 1951.43)
(-230028 1825.43 2342.34)
(-229769 1855.76 2688.06)
(-229496 1907.9 2977.72)
(-229195 1982.16 3199.46)
(-228863 2080.08 3339.69)
(-228497 2197.87 3399.74)
(-228108 2331.65 3375.03)
(-227702 2479.58 3259.67)
(-227231 2635.31 3053.17)
(-226558 2792.52 2751.27)
(-225535 2939.68 2358.1)
(-224387 3058.76 1895.99)
(-224030 3123.21 1393)
(-225134 3081.08 861.028)
(-225492 2933.1 203.322)
(-219899 2817.28 -1098.21)
(-209457 3558.02 -4616.49)
(-210460 2866.2 -10186.9)
(-223617 -2531.87 -16029.4)
(-185221 -27627.4 -11333.5)
(-61388.4 -13756 -619.539)
(-233269 -1446.14 -662.794)
(-232876 -1459.65 -604.081)
(-232654 -1446.15 -549.601)
(-232405 -1436.33 -490.99)
(-232190 -1420.8 -434.255)
(-231992 -1402.78 -380.336)
(-231813 -1380.58 -335.758)
(-231655 -1354.91 -305.428)
(-231518 -1325.35 -294.999)
(-231401 -1291.57 -312.799)
(-231305 -1253.67 -368.049)
(-231226 -1211.64 -468.426)
(-231160 -1165.16 -621.402)
(-231095 -1114.28 -834.419)
(-231018 -1058.77 -1113.61)
(-230910 -999.497 -1462.24)
(-230744 -935.985 -1878.96)
(-230470 -863.574 -2360.52)
(-230073 -781.425 -2891.01)
(-229535 -689.566 -3445.62)
(-228846 -589.004 -3986.71)
(-228009 -480.022 -4468.18)
(-227047 -363.324 -4834.84)
(-226010 -241.364 -5043.41)
(-224968 -117.97 -5073.8)
(-223992 3.95347 -4933.41)
(-223134 122.007 -4648.59)
(-222424 234.24 -4255.51)
(-221869 338.953 -3790.27)
(-221463 434.731 -3284.66)
(-221193 521.366 -2762.58)
(-221038 598.285 -2241.53)
(-220980 664.665 -1733.14)
(-221000 719.49 -1246.42)
(-221081 760.82 -786.859)
(-221204 786.762 -358.665)
(-221343 798.989 33.5241)
(-221469 799.514 380.752)
(-221575 788.442 673.893)
(-221658 766.176 898.724)
(-221711 734.027 1038.23)
(-221678 694.867 1072.84)
(-221394 655.04 978.337)
(-220666 626.176 729.03)
(-219655 619.349 310.679)
(-219233 635.944 -263.316)
(-220137 680.572 -1006.47)
(-220688 832.608 -2043.37)
(-215486 1299.68 -3954.64)
(-204501 1960.26 -7094.15)
(-201021 950.742 -13377.3)
(-228260 -1165.3 -22748)
(-203013 -14241.7 -49370.2)
(-43274.8 -10313.5 -19628.7)
(-234198 5538.1 -166.365)
(-234235 5618.91 -74.0988)
(-234267 5670.5 38.3232)
(-234337 5732.15 128.685)
(-234440 5795.11 227.475)
(-234574 5860.31 324.804)
(-234738 5928.42 415.526)
(-234929 5998.57 492.837)
(-235146 6070.93 551.232)
(-235386 6145.36 581.714)
(-235642 6221.18 575.004)
(-235907 6297.74 522.078)
(-236165 6374.57 413.52)
(-236402 6450.82 239.67)
(-236596 6524.85 -7.16652)
(-236722 6594.82 -334.585)
(-236758 6658.04 -746.009)
(-236675 6713.9 -1237.99)
(-236449 6761.28 -1797.09)
(-236053 6797.53 -2403.08)
(-235474 6819.45 -3023.86)
(-234704 6824.32 -3616.86)
(-233757 6810.71 -4129.75)
(-232681 6778.98 -4516.14)
(-231546 6730.01 -4750.32)
(-230422 6667.16 -4832)
(-229369 6594.75 -4779.41)
(-228426 6517.33 -4621.11)
(-227612 6438.87 -4389.09)
(-226934 6362.87 -4114.11)
(-226388 6292.74 -3821.12)
(-225966 6231.01 -3527.56)
(-225659 6179.96 -3244.72)
(-225450 6138.77 -2984.03)
(-225327 6106.8 -2754.74)
(-225285 6083.06 -2561.31)
(-225326 6067.39 -2404.02)
(-225457 6061.44 -2284.75)
(-225696 6067.99 -2206.12)
(-226075 6091.22 -2167.35)
(-226628 6142.94 -2167.17)
(-227352 6232.56 -2213.96)
(-228155 6372.31 -2310.43)
(-228935 6577.7 -2461.14)
(-229965 6863.77 -2649.72)
(-232284 7237.68 -2805.2)
(-236922 7707.17 -2843.38)
(-242383 8325.44 -2862.64)
(-243377 9143.48 -3537.56)
(-240963 9980.18 -5649.49)
(-253137 8955.68 -10022.3)
(-306563 3137.74 -15682.8)
(-317381 -25545.6 -53721.4)
(-234423 -17167.2 -9301.1)
(-231286 -3104.46 -3125.52)
(-231233 -3177.7 -3007.15)
(-231257 -3216.95 -2904.03)
(-231289 -3272.04 -2808.5)
(-231361 -3324.87 -2719.37)
(-231463 -3380.32 -2642.66)
(-231596 -3435.61 -2584.9)
(-231758 -3492.1 -2552.37)
(-231948 -3549.55 -2552.73)
(-232164 -3607.17 -2595.36)
(-232399 -3663.85 -2690.66)
(-232639 -3718.96 -2849.29)
(-232870 -3771.68 -3082.14)
(-233068 -3821.41 -3400.54)
(-233205 -3867.79 -3814.73)
(-233243 -3910.56 -4332.87)
(-233144 -3949.08 -4956.79)
(-232866 -3982.1 -5673.93)
(-232368 -4006.67 -6465.08)
(-231608 -4019.42 -7300.55)
(-230547 -4016.61 -8139.93)
(-229160 -3993.72 -8914.45)
(-227459 -3946.61 -9539.36)
(-225512 -3873.05 -9936.56)
(-223423 -3772.67 -10071.3)
(-221305 -3647.13 -9954.03)
(-219247 -3499.35 -9628.23)
(-217307 -3333.22 -9150.8)
(-215513 -3154.77 -8577.67)
(-213874 -2971.54 -7956.27)
(-212382 -2789.74 -7322.95)
(-211025 -2612.9 -6703.54)
(-209788 -2442.19 -6114.52)
(-208657 -2279.2 -5565.85)
(-207618 -2125.61 -5061.28)
(-206663 -1982.12 -4602.13)
(-205788 -1849.06 -4186.92)
(-204992 -1724.83 -3812.04)
(-204284 -1606.51 -3470.26)
(-203684 -1489.86 -3153.17)
(-203213 -1369.77 -2848.47)
(-202846 -1240.13 -2539.08)
(-202453 -1095.17 -2203.3)
(-201878 -929.125 -1810.46)
(-201319 -731.302 -1299.11)
(-201763 -478.77 -531.632)
(-204269 -126.25 718.091)
(-207468 381.758 2609.27)
(-206392 1209.24 4955.87)
(-202125 2949.83 7402.77)
(-212780 5748.31 8216.4)
(-262463 9045.61 4252.78)
(-264094 -9736.64 -36487.5)
(-155179 453.849 -8342.32)
(-242375 7144.1 4398.32)
(-242576 7248.61 4754.99)
(-242633 7306.63 4982.91)
(-242767 7368.74 5235.23)
(-242901 7429.42 5482.23)
(-243060 7488.43 5725.68)
(-243238 7547.18 5958.4)
(-243436 7604.06 6173.7)
(-243651 7658.93 6363.42)
(-243882 7712.03 6517.88)
(-244121 7763.87 6626.48)
(-244363 7814.56 6677.69)
(-244593 7864.3 6659.03)
(-244796 7913.11 6557.76)
(-244950 7960.71 6360.87)
(-245028 8006.63 6058.28)
(-245000 8050.88 5646.25)
(-244835 8093.7 5131.04)
(-244503 8136.88 4526.17)
(-243979 8182.24 3855.58)
(-243235 8231.52 3157.76)
(-242268 8290.46 2495.51)
(-241100 8361.96 1941.12)
(-239810 8447.83 1567.36)
(-238482 8542.46 1402.55)
(-237201 8640.13 1435.01)
(-236024 8735.36 1625.95)
(-234979 8823.48 1926.23)
(-234071 8899.82 2286.56)
(-233300 8961.82 2670.39)
(-232674 9010.51 3059.07)
(-232190 9047.8 3433.69)
(-231838 9076.66 3778.25)
(-231610 9098.35 4086.78)
(-231507 9114.97 4362.82)
(-231535 9129.87 4612.7)
(-231703 9146.51 4841.69)
(-232031 9170.33 5057.94)
(-232555 9208.5 5273.02)
(-233326 9270.49 5499.11)
(-234406 9367.89 5751.91)
(-235821 9514.89 6046.86)
(-237520 9726.36 6396.46)
(-239453 10017.7 6808.84)
(-241935 10406.8 7310.16)
(-246015 10920 7983.76)
(-252828 11601.2 8966.37)
(-261324 12482.7 10218.9)
(-267428 13642.5 11311.8)
(-272147 15437.3 11573.2)
(-294843 17454.4 10002.6)
(-379079 16621.6 -66.7856)
(-534012 -2919.66 -11755)
(-469084 -12507.5 -3069.6)
(-234895 -4053.8 -4114.92)
(-235224 -4044.42 -3988.09)
(-235448 -4068.43 -3910.7)
(-235735 -4087.84 -3827.73)
(-236057 -4110.27 -3752.73)
(-236413 -4135.01 -3686.48)
(-236804 -4160.03 -3631.76)
(-237226 -4186.43 -3591.4)
(-237680 -4214.38 -3571.69)
(-238163 -4243.54 -3580.26)
(-238672 -4273.72 -3626.83)
(-239198 -4307.05 -3726.16)
(-239729 -4344.14 -3896.1)
(-240250 -4385.91 -4157.98)
(-240737 -4433 -4535.28)
(-241159 -4485.11 -5050.73)
(-241476 -4541.86 -5719.12)
(-241646 -4603.72 -6543.93)
(-241628 -4669.96 -7511.92)
(-241376 -4742.72 -8605.86)
(-240836 -4819.6 -9788.61)
(-239956 -4904.07 -10980.7)
(-238732 -4998.92 -12048.4)
(-237239 -5107.99 -12857.8)
(-235606 -5226.92 -13341.9)
(-233955 -5350.34 -13518.5)
(-232373 -5469.78 -13452.5)
(-230896 -5576.86 -13221.4)
(-229532 -5664.81 -12898.6)
(-228270 -5728.6 -12541.1)
(-227091 -5765.95 -12189.3)
(-225978 -5775.82 -11869)
(-224913 -5758.41 -11594.8)
(-223885 -5715.13 -11372.6)
(-222887 -5645.08 -11203.4)
(-221918 -5547.51 -11085.3)
(-220981 -5421.25 -11014.5)
(-220088 -5263.52 -10986.6)
(-219259 -5071.2 -10996.2)
(-218528 -4841.47 -11037.3)
(-217935 -4573.06 -11102.8)
(-217482 -4268.7 -11183.2)
(-217080 -3938.69 -11268.6)
(-216609 -3604.15 -11348.4)
(-216276 -3299.1 -11384.7)
(-217055 -3077.76 -11276.2)
(-220078 -3010.92 -10823.2)
(-224361 -3231.71 -9764.62)
(-225544 -3793.58 -7406.46)
(-225823 -4934.34 -3282.41)
(-245851 -6101 3448.21)
(-328091 -9930.66 13929.9)
(-479337 -96.0131 45345.5)
(-421005 346.612 17267.4)
(-238514 4730.47 4805.34)
(-238407 4625.11 4948.43)
(-238287 4552.37 5055.01)
(-238214 4465.58 5170.89)
(-238148 4375.86 5275.73)
(-238108 4280.53 5375.79)
(-238092 4181.93 5464.95)
(-238104 4079.06 5541.39)
(-238146 3971.97 5598.79)
(-238220 3861.69 5629.78)
(-238329 3749.41 5624.43)
(-238469 3638.52 5570.88)
(-238633 3531.36 5453.05)
(-238811 3431.17 5252.03)
(-238984 3341.5 4947.17)
(-239122 3265.87 4518.53)
(-239187 3209.01 3953.85)
(-239138 3174.72 3254.45)
(-238932 3167.57 2433.64)
(-238521 3188.27 1510.77)
(-237826 3240.89 521.728)
(-236749 3319.44 -451.161)
(-235243 3417.77 -1265.77)
(-233389 3522.96 -1783.81)
(-231359 3633.32 -1937.79)
(-229329 3744.97 -1748.44)
(-227436 3856.87 -1285.71)
(-225763 3968.99 -633.442)
(-224346 4081.72 124.775)
(-223177 4193.21 914.626)
(-222212 4295.86 1687.61)
(-221413 4384.85 2396.63)
(-220696 4460.88 3036.68)
(-220029 4522.81 3604.67)
(-219384 4570.29 4096.06)
(-218734 4602.8 4505.94)
(-218067 4619.38 4832.71)
(-217377 4619.85 5073.35)
(-216665 4605.07 5222.75)
(-215943 4575.58 5274.28)
(-215221 4530.63 5221.43)
(-214465 4465.89 5056.72)
(-213543 4370.02 4774.28)
(-212304 4221.14 4374.77)
(-210920 3984.45 3878.48)
(-210265 3604.04 3343.34)
(-211260 3001.86 2911.13)
(-212620 2087.37 2787.29)
(-209495 780.634 3273.23)
(-202808 -1155.04 3872.17)
(-211795 -3401.67 7688.48)
(-282146 -3617.78 18359.9)
(-388324 -417.948 62313.2)
(-286714 -3172.96 29155.9)
(-233482 -2433.27 -3785.12)
(-233403 -2401.78 -3461.67)
(-233402 -2383.06 -3294.13)
(-233427 -2371.25 -3065.97)
(-233502 -2362.24 -2838.44)
(-233614 -2357.32 -2598.07)
(-233767 -2356.37 -2351.74)
(-233961 -2361.31 -2106.49)
(-234202 -2372.79 -1875.13)
(-234492 -2391.18 -1673.42)
(-234831 -2417.06 -1521.51)
(-235219 -2450.9 -1444.25)
(-235650 -2492.65 -1470.21)
(-236113 -2542.16 -1630.27)
(-236589 -2599.01 -1955.56)
(-237041 -2662.21 -2472.91)
(-237421 -2731.59 -3196.65)
(-237673 -2804.53 -4123.44)
(-237751 -2882.65 -5229.97)
(-237607 -2965.63 -6496.24)
(-237160 -3055.95 -7884.79)
(-236308 -3148.55 -9300.94)
(-235029 -3239.14 -10535.2)
(-233462 -3325.8 -11349.5)
(-231857 -3414.86 -11631.3)
(-230427 -3511.42 -11449.2)
(-229273 -3617.69 -10936.7)
(-228410 -3733.56 -10228.5)
(-227796 -3856.28 -9438.93)
(-227364 -3981.98 -8647.96)
(-227046 -4106.8 -7903.52)
(-226783 -4228.22 -7229.82)
(-226526 -4344.15 -6635.12)
(-226235 -4450.07 -6117.81)
(-225882 -4541.09 -5672.85)
(-225445 -4612.01 -5293.22)
(-224905 -4656.52 -4971.43)
(-224250 -4668.2 -4700.46)
(-223470 -4639.61 -4474.22)
(-222566 -4562.1 -4287.31)
(-221531 -4425.43 -4135.04)
(-220317 -4218.58 -4013.71)
(-218777 -3931.59 -3920.44)
(-216713 -3555.48 -3855.53)
(-214191 -3087.54 -3815.8)
(-211857 -2533.55 -3790.94)
(-210392 -1911.79 -3741.18)
(-208082 -1266.8 -3519.3)
(-200415 -862.775 -2677.4)
(-185166 -1037.71 -956.485)
(-178299 -1441.59 5262.48)
(-198956 2050.82 26130.8)
(-236289 16514.4 95253.3)
(-159132 8618.24 28451.6)
(-242308 1684.29 4102.96)
(-243142 1613.88 4310.79)
(-243713 1620.86 4447.27)
(-244430 1605.17 4620.03)
(-245190 1600.8 4792.88)
(-246017 1601.14 4977.68)
(-246910 1608.37 5164.88)
(-247873 1621.34 5348.55)
(-248907 1640.12 5516.79)
(-250012 1665.03 5654.32)
(-251183 1696.13 5741.56)
(-252414 1733.19 5754.74)
(-253688 1776.19 5666.26)
(-254982 1824.65 5445.84)
(-256258 1877.67 5062.5)
(-257463 1934.31 4489)
(-258527 1992.13 3710.1)
(-259372 2050.44 2729.85)
(-259935 2104.26 1569.61)
(-260147 2149.66 254.307)
(-259928 2180 -1182.53)
(-259201 2196.39 -2646.27)
(-257978 2197.69 -3937.32)
(-256359 2189.67 -4823.48)
(-254561 2171.19 -5196.56)
(-252778 2143.44 -5112.14)
(-251118 2109.15 -4694.1)
(-249613 2071.52 -4068.89)
(-248248 2034.8 -3343.18)
(-246987 2003.1 -2594.06)
(-245787 1979.98 -1869.03)
(-244602 1967.86 -1212.01)
(-243432 1964.2 -630.677)
(-242255 1967.12 -122.824)
(-241042 1975.63 315.355)
(-239775 1991.71 687.012)
(-238430 2017.44 993.692)
(-236989 2056.16 1233.45)
(-235437 2113.99 1403.23)
(-233767 2196.99 1499.41)
(-231967 2312.78 1518.02)
(-229982 2469.73 1458.54)
(-227660 2675.94 1329.72)
(-224807 2938.57 1162.88)
(-221490 3257.11 1027.07)
(-218379 3621.25 1044.51)
(-216269 4012.6 1406.28)
(-213702 4350.02 2421.33)
(-206571 4330.43 4250.23)
(-193338 3517.45 6433.05)
(-191563 2957.18 10838.1)
(-197200 2493.87 19724)
(-196198 10226.8 74531.2)
(-63889.2 5382.02 33010.5)
(-233776 -2727.18 -3557.59)
(-233350 -2783.7 -3176.53)
(-233166 -2800.92 -2974.36)
(-232964 -2841.02 -2716.4)
(-232831 -2882.71 -2471.66)
(-232741 -2931.57 -2227.28)
(-232711 -2987.64 -1995.65)
(-232748 -3052.39 -1788.35)
(-232863 -3125.55 -1618.84)
(-233064 -3206.81 -1501.26)
(-233358 -3295.51 -1452.39)
(-233745 -3390.66 -1491.05)
(-234219 -3491.04 -1638.92)
(-234765 -3595.6 -1921.87)
(-235350 -3704.44 -2370.43)
(-235920 -3818.6 -3015.62)
(-236394 -3938.54 -3885.13)
(-236681 -4063.13 -4988.25)
(-236709 -4193.38 -6324.69)
(-236403 -4327.28 -7885.24)
(-235617 -4463.83 -9677.97)
(-234102 -4593.38 -11631.6)
(-231691 -4712.16 -13457.1)
(-228563 -4812.62 -14689.2)
(-225205 -4892.62 -15081.8)
(-222061 -4950.82 -14769.6)
(-219345 -4992.68 -14009.8)
(-217117 -5023.63 -13028.2)
(-215344 -5048.2 -12003.2)
(-213943 -5068.96 -11045.4)
(-212826 -5083.86 -10210.7)
(-211918 -5089.08 -9521.16)
(-211157 -5078.3 -8978.74)
(-210498 -5045.96 -8576.82)
(-209912 -4987.81 -8304.14)
(-209378 -4897.91 -8146.69)
(-208882 -4771.51 -8088.83)
(-208419 -4606.43 -8113.14)
(-207989 -4401.3 -8199.23)
(-207605 -4155.84 -8320.86)
(-207277 -3871.69 -8443.83)
(-206970 -3551.52 -8521.43)
(-206541 -3198.5 -8491.67)
(-205781 -2811.26 -8272.87)
(-204775 -2377.12 -7760.18)
(-204345 -1872.9 -6796.31)
(-205410 -1269.78 -5158.99)
(-206241 -507.635 -2584.09)
(-201556 559.675 969.47)
(-189419 2171.8 5435.61)
(-184376 4764.76 13487.2)
(-194922 7334.12 33773.7)
(-202967 15285 104671)
(-77329 7581.58 41416.2)
(-240534 2102.42 5683.51)
(-241146 2239.6 6117.44)
(-241541 2368.99 6311.03)
(-242024 2486.52 6571.2)
(-242523 2611.12 6812.03)
(-243050 2735.73 7048.12)
(-243606 2860.32 7267.77)
(-244191 2982.66 7461.8)
(-244808 3101.89 7617.9)
(-245458 3216.97 7722.5)
(-246140 3326.7 7759.97)
(-246851 3429.8 7712.67)
(-247584 3524.85 7559.75)
(-248327 3609.86 7276.78)
(-249059 3682.84 6835.75)
(-249747 3741.5 6207.58)
(-250337 3783.46 5368.4)
(-250776 3807.43 4308.98)
(-251033 3811.42 3036.52)
(-251085 3797.26 1552.51)
(-250841 3768.5 -151.083)
(-250110 3751.35 -2014.05)
(-248700 3774.53 -3777.07)
(-246741 3839.27 -5012.42)
(-244628 3940.92 -5463.79)
(-242704 4069.46 -5237.03)
(-241109 4209.19 -4568.37)
(-239849 4346.39 -3671.12)
(-238862 4473.41 -2711.65)
(-238051 4588.99 -1793.12)
(-237320 4692.89 -970.333)
(-236600 4788.34 -255.931)
(-235840 4880.81 356.103)
(-234985 4983.84 865.763)
(-233993 5107.23 1282.65)
(-232836 5252.74 1617.68)
(-231494 5424.58 1882.1)
(-229952 5623.64 2080.45)
(-228204 5848.68 2220.58)
(-226250 6097.92 2309.55)
(-224084 6367.56 2356.89)
(-221659 6651.72 2377.73)
(-218823 6942.83 2397.22)
(-215371 7235.85 2464.77)
(-211345 7530.97 2668.04)
(-207409 7830.95 3158.72)
(-204319 8136.03 4155.73)
(-200654 8452.06 6032.21)
(-191634 8867.18 9011.57)
(-175089 9498.47 13744.9)
(-164201 10851 21588.3)
(-189120 11403.7 37914.6)
(-185062 11094.1 71350.9)
(15870.3 1332.43 19136)
(-233363 -3660.22 -3870.89)
(-233315 -3749.66 -3529.22)
(-233394 -3774.63 -3325.72)
(-233485 -3821.25 -3073.58)
(-233648 -3862.05 -2814.7)
(-233866 -3904.4 -2533.62)
(-234154 -3945.53 -2233.08)
(-234521 -3985.04 -1914.53)
(-234973 -4022.04 -1582.79)
(-235518 -4056.02 -1245.43)
(-236165 -4086.66 -918.353)
(-236918 -4113.21 -624.597)
(-237780 -4134.95 -401.071)
(-238749 -4151.34 -301.649)
(-239808 -4162.01 -396.654)
(-240921 -4167.26 -765.117)
(-242017 -4166.31 -1480.93)
(-243009 -4159.13 -2594.16)
(-243824 -4142.91 -4115.09)
(-244407 -4124.93 -6018.49)
(-244591 -4109.93 -8312.57)
(-243943 -4115.16 -10961.1)
(-241999 -4164.37 -13589.2)
(-238888 -4267.8 -15371.4)
(-235434 -4396.19 -15726.5)
(-232393 -4518.3 -14924.3)
(-230001 -4623.64 -13574.3)
(-228255 -4711.66 -12049.7)
(-227055 -4777.77 -10584.3)
(-226248 -4818.06 -9289.08)
(-225699 -4828.19 -8198.14)
(-225308 -4803.37 -7311.7)
(-225001 -4739.06 -6614.36)
(-224728 -4631.56 -6085.81)
(-224452 -4478.77 -5707.03)
(-224145 -4278.54 -5463.33)
(-223786 -4028.75 -5345.23)
(-223354 -3731.22 -5346.55)
(-222829 -3391.81 -5463.84)
(-222198 -3019.7 -5695.46)
(-221435 -2628.91 -6041.64)
(-220459 -2239.52 -6499.79)
(-219078 -1877.45 -7058.26)
(-217041 -1572.11 -7690.06)
(-214365 -1352.65 -8345.89)
(-211735 -1256.81 -8933.2)
(-209807 -1331.71 -9336.25)
(-206613 -1578.69 -9392.14)
(-197645 -1800.58 -8718.27)
(-181959 -1409.94 -6814.12)
(-175555 1.19105 -3990.21)
(-206917 411.294 3586.76)
(-167819 -3204.06 12557.8)
(104378 -8667.05 2594.31)
(-224205 1236.74 4042.46)
(-224636 1300.63 4551.86)
(-224955 1352.53 4742.83)
(-225345 1389.2 5013.31)
(-225777 1422.97 5268.7)
(-226260 1446.63 5530.35)
(-226806 1461.05 5796.91)
(-227421 1464.6 6066.93)
(-228118 1456.44 6337.14)
(-228908 1435.41 6601.52)
(-229801 1400.75 6849.2)
(-230811 1352.11 7060.56)
(-231949 1289.84 7202.73)
(-233223 1215.13 7225.75)
(-234628 1130.49 7063.44)
(-236136 1039.44 6638.96)
(-237680 948.819 5878.37)
(-239174 867.174 4731.67)
(-240554 806.587 3193.37)
(-241772 768.734 1276.65)
(-242667 761.305 -1022.28)
(-242773 777.377 -3679.43)
(-241605 784.831 -6357.36)
(-239261 770.53 -8269.11)
(-236483 748.944 -8786.65)
(-233993 733.935 -8124.57)
(-232074 727.593 -6873.4)
(-230764 727.83 -5428.18)
(-229975 735.517 -4030.34)
(-229568 753.294 -2795.56)
(-229421 786.498 -1757.05)
(-229433 844.294 -907.987)
(-229515 935.875 -226.97)
(-229600 1063.88 309.308)
(-229635 1232.93 725.814)
(-229580 1452.27 1046.87)
(-229395 1728.53 1286.42)
(-229030 2063.06 1442.74)
(-228458 2454.93 1525.14)
(-227655 2899.56 1540.73)
(-226595 3386.92 1491.83)
(-225193 3900.55 1380.8)
(-223260 4417.18 1213.48)
(-220546 4909.81 1006.46)
(-217042 5350.84 787.891)
(-213338 5699.03 583.863)
(-209996 5893.81 405.09)
(-205210 5912.61 242.963)
(-194147 5876.78 -56.4643)
(-173409 6317.51 1365.17)
(-161176 8573.93 5327.76)
(-175144 6636.57 9735.42)
(-170085 -4291.85 2574.49)
(55707.1 -8567.81 -17321.9)
(-225628 -3382.01 -261.299)
(-225552 -3425.91 310.524)
(-225630 -3431.98 629.632)
(-225697 -3454.58 1028.37)
(-225834 -3471.95 1439.66)
(-226025 -3493.04 1888.27)
(-226291 -3514.65 2367.41)