/*--------------------------------*- C++ -*----------------------------------*\
| =========                 |                                                 |
| \\      /  F ield         | OpenFOAM: The Open Source CFD Toolbox           |
|  \\    /   O peration     | Version:  4.1                                   |
|   \\  /    A nd           | Web:      www.OpenFOAM.org                      |
|    \\/     M anipulation  |                                                 |
\*---------------------------------------------------------------------------*/
FoamFile
{
    version     2.0;
    format      ascii;
    class       surfaceScalarField;
    location    "16";
    object      phi;
}
// * * * * * * * * * * * * * * * * * * * * * * * * * * * * * * * * * * * * * //

dimensions      [0 3 -1 0 0 0 0];

internalField   nonuniform List<scalar> 
11516
(
-4.14869e+10
1.46285e+10
-2.16502e+10
-4.21282e+10
1.56511e+10
-1.44033e+10
-4.69992e+10
1.25535e+10
-7.24993e+09
-4.20371e+10
1.63739e+09
-6.21729e+09
-3.80633e+10
-1.05538e+09
-2.69768e+09
-3.66629e+10
1.53246e+09
-2.90766e+09
-3.4004e+10
1.27327e+09
-4.06087e+09
-3.36121e+10
2.87671e+08
-9.11552e+08
-3.33257e+10
-8.01902e+08
1.86053e+08
-3.1946e+10
-3.31924e+08
-1.41222e+09
-3.11169e+10
2.39429e+08
-1.44491e+09
-3.137e+10
3.84739e+08
-5.16084e+08
-3.12653e+10
2.90339e+08
-7.83255e+08
-3.03436e+10
3.40277e+07
-1.34214e+09
-2.94526e+10
-6.55756e+07
-1.19608e+09
-2.9063e+10
-1.29997e+08
-6.15718e+08
-2.87748e+10
-1.89435e+08
-4.07192e+08
-2.83461e+10
-1.336e+08
-5.89215e+08
-2.79617e+10
-5.70787e+07
-5.92222e+08
-2.76836e+10
-6.69215e+07
-4.53226e+08
-2.732e+10
-1.14642e+08
-4.36801e+08
-2.69079e+10
-1.2576e+08
-4.39049e+08
-2.64839e+10
-1.17493e+08
-4.25329e+08
-2.60358e+10
-1.28372e+08
-4.16801e+08
-2.55592e+10
-1.43601e+08
-4.10574e+08
-2.50591e+10
-1.5736e+08
-4.03436e+08
-2.45356e+10
-1.72528e+08
-3.96325e+08
-2.3993e+10
-1.88488e+08
-3.85938e+08
-2.34326e+10
-2.05262e+08
-3.75529e+08
-2.28569e+10
-2.22652e+08
-3.63721e+08
-2.22662e+10
-2.40955e+08
-3.5168e+08
-2.16639e+10
-2.61138e+08
-3.35909e+08
-2.10668e+10
-2.75894e+08
-3.07092e+08
-2.04819e+10
-2.78112e+08
-2.8528e+08
-1.98984e+10
-2.79452e+08
-2.74335e+08
-1.93215e+10
-2.89274e+08
-2.47705e+08
-1.8766e+10
-2.90384e+08
-2.13096e+08
-1.82433e+10
-2.77856e+08
-1.76919e+08
-1.77455e+10
-2.62259e+08
-1.46943e+08
-1.72668e+10
-2.45062e+08
-1.18563e+08
-1.68057e+10
-2.222e+08
-8.9583e+07
-1.63538e+10
-1.93385e+08
-6.63366e+07
-1.58844e+10
-1.5974e+08
-6.33473e+07
-1.53832e+10
-1.28144e+08
-6.43131e+07
-1.49031e+10
-8.1109e+07
-2.5228e+07
-1.45469e+10
1.45378e+07
5.15143e+07
-1.43388e+10
1.12365e+08
1.2141e+08
-1.41857e+10
1.1437e+08
1.43242e+08
-1.38823e+10
-1.85674e+06
7.50719e+07
-1.36033e+10
-2.30941e+08
3.0306e+08
-1.38806e+10
-1.99273e+08
8.26958e+08
-1.57936e+10
1.11269e+09
1.1902e+09
-5.83604e+09
-3.34649e+09
-6.34009e+09
-1.58827e+09
-8.7571e+09
-3.60405e+10
1.70125e+10
-4.02872e+10
1.99693e+10
-4.24848e+10
1.47754e+10
-4.5594e+10
4.71005e+09
-4.33611e+10
-3.44003e+09
-4.0164e+10
-1.8883e+09
-3.67078e+10
-2.42564e+09
-3.65562e+10
-1.41791e+08
-3.68735e+10
-7.79146e+08
-3.55676e+10
-1.91658e+09
-3.41889e+10
-1.40536e+09
-3.36128e+10
-4.55812e+08
-3.30166e+10
-5.71606e+08
-3.20907e+10
-1.15559e+09
-3.1554e+10
-8.59379e+08
-3.16465e+10
-2.70513e+08
-3.16261e+10
-4.22266e+08
-3.13193e+10
-6.30625e+08
-3.10855e+10
-4.66212e+08
-3.09443e+10
-3.55577e+08
-3.07892e+10
-3.91117e+08
-3.06168e+10
-3.93408e+08
-3.04223e+10
-3.89379e+08
-3.02222e+10
-3.90783e+08
-3.00188e+10
-3.97186e+08
-2.98138e+10
-4.01843e+08
-2.96088e+10
-4.07773e+08
-2.94088e+10
-4.10585e+08
-2.92157e+10
-4.13715e+08
-2.90331e+10
-4.14934e+08
-2.88635e+10
-4.15434e+08
-2.87084e+10
-4.16312e+08
-2.85698e+10
-4.10264e+08
-2.84393e+10
-3.99773e+08
-2.83181e+10
-3.87152e+08
-2.82148e+10
-3.73461e+08
-2.8119e+10
-3.60225e+08
-2.80157e+10
-3.45759e+08
-2.78931e+10
-3.37745e+08
-2.7742e+10
-3.33093e+08
-2.75537e+10
-3.27348e+08
-2.73105e+10
-3.26829e+08
-2.69797e+10
-3.47877e+08
-2.65351e+10
-3.90531e+08
-2.59564e+10
-4.37117e+08
-2.51747e+10
-5.09976e+08
-2.41562e+10
-6.30701e+08
-2.30217e+10
-7.48077e+08
-2.19132e+10
-8.43321e+08
-2.13002e+10
-5.81441e+08
-2.11443e+10
-5.98655e+07
-1.77262e+10
-1.99049e+09
-1.25844e+10
-8.30309e+09
-4.25325e+09
-5.09648e+10
9.64244e+09
-2.29734e+10
-6.02817e+10
1.12137e+10
-1.72632e+10
-6.43669e+10
1.06359e+10
-1.47068e+10
-6.0547e+10
5.25064e+09
-1.60506e+10
-5.16633e+10
2.50518e+08
-1.25405e+10
-4.65546e+10
1.35332e+09
-1.00534e+10
-4.44522e+10
9.29436e+08
-7.68066e+09
-4.29595e+10
-4.36433e+07
-2.88528e+09
-4.16174e+10
-4.56048e+08
-1.18842e+09
-4.04642e+10
-2.44034e+08
-2.75131e+09
-3.98937e+10
9.20327e+06
-2.40305e+09
-3.96996e+10
3.21309e+08
-1.38681e+09
-3.94476e+10
3.55157e+08
-1.75215e+09
-3.93611e+10
3.29076e+08
-2.10394e+09
-3.9519e+10
3.2801e+08
-1.71697e+09
-3.94391e+10
2.44562e+08
-1.24829e+09
-3.91843e+10
2.43961e+08
-1.19584e+09
-3.91459e+10
3.02461e+08
-1.1865e+09
-3.92816e+10
3.26133e+08
-1.02682e+09
-3.93734e+10
3.63584e+08
-9.32795e+08
-3.94397e+10
3.66806e+08
-9.12396e+08
-3.95175e+10
3.72379e+08
-8.74702e+08
-3.96206e+10
3.9918e+08
-8.35843e+08
-3.97455e+10
4.17606e+08
-8.04188e+08
-3.98971e+10
4.3232e+08
-7.69675e+08
-4.00792e+10
4.46297e+08
-7.3253e+08
-4.02993e+10
4.58596e+08
-6.88655e+08
-4.05587e+10
4.69318e+08
-6.4034e+08
-4.08639e+10
4.77504e+08
-5.85091e+08
-4.12158e+10
4.82716e+08
-5.25903e+08
-4.16129e+10
4.85484e+08
-4.67045e+08
-4.20566e+10
4.83541e+08
-3.98182e+08
-4.25606e+10
4.75667e+08
-2.98501e+08
-4.31175e+10
4.72428e+08
-2.16754e+08
-4.36924e+10
4.74041e+08
-1.86468e+08
-4.42939e+10
4.61847e+08
-1.17122e+08
-4.49335e+10
4.41178e+08
-1.89129e+07
-4.5606e+10
4.25777e+08
7.30922e+07
-4.63127e+10
4.12417e+08
1.59616e+08
-4.70613e+10
3.97715e+08
2.58079e+08
-4.7865e+10
3.86247e+08
3.70342e+08
-4.87503e+10
3.84434e+08
5.01133e+08
-4.97558e+10
3.93178e+08
6.45753e+08
-5.08908e+10
4.05416e+08
8.01487e+08
-5.21026e+10
4.18499e+08
9.46357e+08
-5.33713e+10
4.56481e+08
1.08124e+09
-5.47489e+10
5.24261e+08
1.21481e+09
-5.61659e+10
5.70597e+08
1.2342e+09
-5.73569e+10
5.76038e+08
9.24588e+08
-5.70618e+10
4.08974e+08
-1.53798e+08
-5.33936e+10
2.44669e+08
-2.77217e+09
-4.39085e+10
-9.10892e+07
-7.84936e+09
-3.79735e+10
1.18744e+08
-1.20623e+10
1.12328e+08
-3.40166e+09
-6.05619e+10
2.94467e+10
-5.9382e+10
2.94121e+10
-5.88837e+10
2.43418e+10
-6.19702e+10
1.25713e+10
-6.00481e+10
-5.64699e+09
-5.43063e+10
-6.75887e+09
-4.88786e+10
-7.30672e+09
-4.48309e+10
-4.55627e+09
-4.34586e+10
-2.90711e+09
-4.27092e+10
-3.1759e+09
-4.24238e+10
-1.91818e+09
-4.24182e+10
-3.7019e+08
-4.22447e+10
-6.17175e+08
-4.21764e+10
-1.12116e+09
-4.20366e+10
-8.83262e+08
-4.16898e+10
-5.71236e+08
-4.14923e+10
-5.562e+08
-4.15053e+10
-4.82651e+08
-4.14604e+10
-3.36253e+08
-4.13242e+10
-2.60502e+08
-4.12199e+10
-2.39006e+08
-4.11121e+10
-2.19213e+08
-4.09768e+10
-1.99654e+08
-4.08225e+10
-1.88408e+08
-4.06591e+10
-1.78768e+08
-4.04868e+10
-1.69746e+08
-4.03133e+10
-1.57469e+08
-4.01404e+10
-1.43178e+08
-3.99752e+10
-1.25875e+08
-3.98195e+10
-1.08702e+08
-3.96763e+10
-9.10213e+07
-3.95503e+10
-7.42469e+07
-3.94474e+10
-5.08276e+07
-3.93709e+10
-1.54278e+07
-3.93235e+10
2.9766e+07
-3.93107e+10
6.82734e+07
-3.93276e+10
9.41322e+07
-3.93764e+10
1.29924e+08
-3.94696e+10
1.75887e+08
-3.96129e+10
2.25186e+08
-3.98044e+10
2.81068e+08
-4.00457e+10
3.47587e+08
-4.03406e+10
4.13775e+08
-4.06942e+10
4.72568e+08
-4.10963e+10
5.21061e+08
-4.15377e+10
5.53818e+08
-4.20072e+10
5.44364e+08
-4.24114e+10
4.0736e+08
-4.24835e+10
-2.25692e+07
-4.14902e+10
-9.76989e+08
-3.82032e+10
-2.89102e+09
-3.46328e+10
-5.444e+09
-3.54014e+10
-7.28299e+09
-2.05363e+09
-4.42057e+10
2.23147e+09
-1.95955e+10
-4.71237e+10
4.29184e+09
-1.97711e+10
-4.74432e+10
4.53185e+09
-1.99811e+10
-4.80772e+10
3.3317e+09
-1.95819e+10
-4.46067e+10
1.48993e+09
-1.82801e+10
-4.3359e+10
2.44193e+09
-1.4444e+10
-4.27829e+10
2.04185e+09
-1.08734e+10
-4.03277e+10
5.78256e+08
-6.37787e+09
-3.77949e+10
-4.58665e+08
-3.67504e+09
-3.70004e+10
-5.88447e+08
-3.32266e+09
-3.68011e+10
-2.07651e+08
-2.71556e+09
-3.59103e+10
-9.57072e+07
-2.48547e+09
-3.53214e+10
-1.10509e+08
-2.53345e+09
-3.549e+10
1.11516e+08
-2.35814e+09
-3.54314e+10
1.30679e+08
-2.22785e+09
-3.49093e+10
1.88558e+06
-2.07072e+09
-3.45734e+10
5.05317e+07
-1.8805e+09
-3.44384e+10
9.9259e+07
-1.68895e+09
-3.42718e+10
9.63937e+07
-1.5556e+09
-3.40537e+10
1.21303e+08
-1.50113e+09
-3.38408e+10
1.35588e+08
-1.46942e+09
-3.36102e+10
1.50788e+08
-1.4212e+09
-3.33811e+10
1.70007e+08
-1.37667e+09
-3.31514e+10
1.87588e+08
-1.33616e+09
-3.29249e+10
2.03159e+08
-1.29649e+09
-3.27078e+10
2.18922e+08
-1.25078e+09
-3.25049e+10
2.33939e+08
-1.19627e+09
-3.23231e+10
2.48418e+08
-1.13235e+09
-3.21659e+10
2.63047e+08
-1.06073e+09
-3.20366e+10
2.79285e+08
-9.85379e+08
-3.19335e+10
2.94061e+08
-9.12561e+08
-3.18545e+10
3.00715e+08
-8.25414e+08
-3.17972e+10
3.06946e+08
-7.10164e+08
-3.17776e+10
3.24208e+08
-6.08562e+08
-3.18001e+10
3.35e+08
-5.47805e+08
-3.18342e+10
3.27712e+08
-4.59291e+08
-3.18833e+10
3.23083e+08
-3.4088e+08
-3.19522e+10
3.2416e+08
-2.27579e+08
-3.20404e+10
3.23269e+08
-1.17087e+08
-3.21416e+10
3.20784e+08
4.56497e+06
-3.22534e+10
3.23509e+08
1.36734e+08
-3.23501e+10
3.28424e+08
2.67961e+08
-3.24114e+10
3.3263e+08
4.02213e+08
-3.24101e+10
3.35999e+08
5.3186e+08
-3.23176e+10
3.40442e+08
6.23823e+08
-3.21544e+10
3.57527e+08
7.06528e+08
-3.19512e+10
3.72789e+08
7.94958e+08
-3.16812e+10
3.66113e+08
7.30559e+08
-3.12967e+10
3.5239e+08
2.72178e+08
-3.07846e+10
3.08235e+08
-9.38474e+08
-3.05425e+10
3.14788e+08
-3.34275e+09
-3.27852e+10
1.14536e+09
-6.74136e+09
-3.7567e+10
4.18013e+09
-1.15355e+10
1.74221e+09
-3.70812e+09
-5.67546e+10
3.26375e+10
-5.4799e+10
3.11147e+10
-5.4308e+10
2.7833e+10
-5.60865e+10
1.72033e+10
-5.40238e+10
-6.77548e+09
-4.99614e+10
-8.91665e+09
-4.62775e+10
-9.34628e+09
-4.16522e+10
-8.90821e+09
-3.9984e+10
-5.30123e+09
-4.00613e+10
-3.92062e+09
-4.03204e+10
-2.07639e+09
-4.01427e+10
-8.47235e+08
-3.98764e+10
-1.19813e+09
-3.97806e+10
-1.31334e+09
-3.95509e+10
-1.18701e+09
-3.92155e+10
-1.10642e+09
-3.8951e+10
-9.58055e+08
-3.87497e+10
-7.66149e+08
-3.85029e+10
-6.52598e+08
-3.8182e+10
-6.12172e+08
-3.78328e+10
-5.8119e+08
-3.7452e+10
-5.59345e+08
-3.70343e+10
-5.37853e+08
-3.65863e+10
-5.25384e+08
-3.61114e+10
-5.1517e+08
-3.56171e+10
-5.01123e+08
-3.51077e+10
-4.82196e+08
-3.45865e+10
-4.60194e+08
-3.40561e+10
-4.34155e+08
-3.35229e+10
-4.01564e+08
-3.2989e+10
-3.69176e+08
-3.24579e+10
-3.43549e+08
-3.19316e+10
-3.10382e+08
-3.14088e+10
-2.56048e+08
-3.08789e+10
-2.08475e+08
-3.03359e+10
-1.91952e+08
-2.9785e+10
-1.79327e+08
-2.92485e+10
-1.28549e+08
-2.87384e+10
-5.59761e+07
-2.82439e+10
9.46546e+06
-2.77536e+10
7.93125e+07
-2.72638e+10
1.63708e+08
-2.67773e+10
2.57154e+08
-2.62898e+10
3.4367e+08
-2.5796e+10
4.16694e+08
-2.53049e+10
4.84852e+08
-2.48517e+10
5.22976e+08
-2.44655e+10
4.13849e+08
-2.4131e+10
-2.20015e+07
-2.38785e+10
-9.88008e+08
-2.39273e+10
-2.63101e+09
-2.35399e+10
-4.79782e+09
-1.80613e+10
-8.70361e+09
-3.08466e+09
-3.92445e+10
-1.16121e+09
-1.49525e+10
-4.23946e+10
3.26823e+08
-1.77497e+10
-4.26152e+10
4.72195e+08
-2.09493e+10
-4.17152e+10
-9.89702e+08
-2.01482e+10
-4.03226e+10
-9.09053e+08
-1.93674e+10
-3.95161e+10
7.08667e+08
-1.65486e+10
-3.90701e+10
1.93116e+09
-1.37382e+10
-3.73129e+10
6.53915e+08
-9.19744e+09
-3.59334e+10
-5.42859e+08
-4.87482e+09
-3.58514e+10
-5.66698e+08
-3.16696e+09
-3.54299e+10
-2.47607e+08
-3.18552e+09
-3.4469e+10
-4.49912e+08
-3.27138e+09
-3.39391e+10
-4.17215e+08
-2.91415e+09
-3.36797e+10
-2.22132e+08
-2.69078e+09
-3.34095e+10
-1.70778e+08
-2.62536e+09
-3.31503e+10
-2.07136e+08
-2.44395e+09
-3.2942e+10
-2.22515e+08
-2.16674e+09
-3.27972e+10
-2.22272e+08
-1.91747e+09
-3.26414e+10
-1.99287e+08
-1.79443e+09
-3.24685e+10
-1.8405e+08
-1.76155e+09
-3.22842e+10
-1.74828e+08
-1.71243e+09
-3.20914e+10
-1.6613e+08
-1.65241e+09
-3.18813e+10
-1.56512e+08
-1.60104e+09
-3.16597e+10
-1.48978e+08
-1.55299e+09
-3.14332e+10
-1.42996e+08
-1.50376e+09
-3.12099e+10
-1.38298e+08
-1.44447e+09
-3.09963e+10
-1.33823e+08
-1.37399e+09
-3.0801e+10
-1.27844e+08
-1.29079e+09
-3.06251e+10
-1.23024e+08
-1.20061e+09
-3.04713e+10
-1.17905e+08
-1.10757e+09
-3.03817e+10
-9.73666e+07
-9.92893e+08
-3.03593e+10
-7.9916e+07
-8.60424e+08
-3.02695e+10
-1.12974e+08
-7.85255e+08
-3.00637e+10
-1.30937e+08
-7.88562e+08
-2.99418e+10
-4.88045e+07
-7.324e+08
-2.99271e+10
-1.44987e+07
-5.78918e+08
-2.98927e+10
-5.92448e+07
-4.42584e+08
-2.98236e+10
-7.49786e+07
-3.56185e+08
-2.97904e+10
-4.12266e+07
-2.49758e+08
-2.97822e+10
-1.96818e+07
-1.3024e+08
-2.97547e+10
-1.55398e+07
-2.10175e+07
-2.97173e+10
1.70439e+06
8.93501e+07
-2.9672e+10
2.41039e+07
2.10034e+08
-2.95985e+10
4.04449e+07
3.1716e+08
-2.9507e+10
6.58154e+07
3.87398e+08
-2.94427e+10
1.04287e+08
4.59537e+08
-2.94327e+10
1.38252e+08
5.30113e+08
-2.95598e+10
1.58231e+08
4.93642e+08
-2.99888e+10
1.87774e+08
1.75581e+08
-3.09883e+10
2.70411e+08
-6.88289e+08
-3.306e+10
5.46318e+08
-2.40141e+09
-3.73975e+10
1.59794e+09
-4.66868e+09
-4.55318e+10
4.57203e+09
-8.48042e+09
1.32205e+09
-2.33565e+09
-4.53634e+10
3.28539e+10
-4.69937e+10
3.25991e+10
-4.84653e+10
2.9372e+10
-4.77548e+10
1.51377e+10
-4.56281e+10
-1.02824e+10
-4.38183e+10
-1.04728e+10
-4.13541e+10
-1.02675e+10
-3.81721e+10
-1.16933e+10
-3.66235e+10
-7.60934e+09
-3.64658e+10
-4.8405e+09
-3.65029e+10
-2.47102e+09
-3.63328e+10
-1.64834e+09
-3.61418e+10
-1.98941e+09
-3.58815e+10
-1.98467e+09
-3.55494e+10
-1.89082e+09
-3.52874e+10
-1.77606e+09
-3.51138e+10
-1.55478e+09
-3.49693e+10
-1.32705e+09
-3.47889e+10
-1.21984e+09
-3.45583e+10
-1.19873e+09
-3.43004e+10
-1.16818e+09
-3.40238e+10
-1.13504e+09
-3.3725e+10
-1.10584e+09
-3.34108e+10
-1.08473e+09
-3.3088e+10
-1.06368e+09
-3.27639e+10
-1.03657e+09
-3.2442e+10
-1.00438e+09
-3.21281e+10
-9.63959e+08
-3.18351e+10
-9.09957e+08
-3.1567e+10
-8.47081e+08
-3.13009e+10
-7.937e+08
-3.10259e+10
-7.62633e+08
-3.07898e+10
-7.2794e+08
-3.05751e+10
-6.7432e+08
-3.02784e+10
-6.31424e+08
-2.99697e+10
-5.97672e+08
-2.9768e+10
-5.28443e+08
-2.96305e+10
-4.34481e+08
-2.94787e+10
-3.47507e+08
-2.93246e+10
-2.65661e+08
-2.91797e+10
-1.82192e+08
-2.90199e+10
-8.96739e+07
-2.88468e+10
2.38249e+07
-2.86685e+10
1.36134e+08
-2.84587e+10
2.13101e+08
-2.82203e+10
2.85811e+08
-2.80223e+10
3.65419e+08
-2.79598e+10
3.48816e+08
-2.81066e+10
6.9001e+07
-2.84486e+10
-7.08493e+08
-2.8697e+10
-2.24881e+09
-2.81188e+10
-4.18535e+09
-2.53502e+10
-7.18859e+09
-2.2917e+09
-3.48662e+10
-1.05123e+09
-1.19287e+10
-3.81682e+10
-5.88919e+08
-1.43086e+10
-3.9538e+10
-1.59419e+09
-1.83982e+10
-3.7074e+10
-3.58837e+09
-1.93625e+10
-3.50562e+10
-3.22145e+09
-1.85224e+10
-3.4616e+10
-1.11637e+09
-1.62069e+10
-3.5741e+10
1.03603e+09
-1.3997e+10
-3.61215e+10
5.86716e+08
-9.67549e+09
-3.56282e+10
-3.01629e+08
-5.31463e+09
-3.50586e+10
-2.82241e+08
-3.69224e+09
-3.43983e+10
-3.0569e+08
-3.76545e+09
-3.3886e+10
-4.50114e+08
-3.54744e+09
-3.35816e+10
-2.6744e+08
-3.16538e+09
-3.32887e+10
-1.85744e+08
-3.02703e+09
-3.31614e+10
-1.99476e+08
-2.80449e+09
-3.31033e+10
-2.19606e+08
-2.56081e+09
-3.30021e+10
-2.11934e+08
-2.33177e+09
-3.29038e+10
-1.99196e+08
-2.11093e+09
-3.28079e+10
-1.78454e+08
-1.98896e+09
-3.27262e+10
-1.6165e+08
-1.95971e+09
-3.26344e+10
-1.43715e+08
-1.903e+09
-3.2535e+10
-1.29222e+08
-1.84717e+09
-3.24108e+10
-1.11328e+08
-1.79704e+09
-3.22751e+10
-9.70967e+07
-1.75147e+09
-3.21383e+10
-8.19375e+07
-1.69314e+09
-3.20129e+10
-6.70819e+07
-1.62187e+09
-3.18973e+10
-5.61142e+07
-1.54151e+09
-3.17872e+10
-4.9092e+07
-1.45295e+09
-3.16969e+10
-3.52026e+07
-1.35299e+09
-3.16497e+10
-1.38515e+07
-1.2375e+09
-3.16411e+10
-1.70668e+06
-1.09846e+09
-3.16124e+10
-8.53126e+06
-9.84021e+08
-3.15172e+10
-1.92621e+07
-9.70954e+08
-3.14406e+10
-1.03663e+07
-9.71687e+08
-3.14803e+10
1.70715e+07
-8.3448e+08
-3.15524e+10
2.80941e+07
-6.68641e+08
-3.15782e+10
1.83598e+07
-5.78376e+08
-3.15989e+10
1.9902e+07
-5.08566e+08
-3.16525e+10
3.74987e+07
-3.95903e+08
-3.1725e+10
5.2792e+07
-2.80312e+08
-3.17922e+10
6.10076e+07
-1.87031e+08
-3.18527e+10
7.11959e+07
-8.97919e+07
-3.19162e+10
9.07779e+07
2.69089e+07
-3.19935e+10
1.12016e+08
1.43923e+08
-3.20926e+10
1.26372e+08
2.35382e+08
-3.22295e+10
1.4138e+08
3.22273e+08
-3.24655e+10
1.66113e+08
4.19392e+08
-3.29549e+10
1.98619e+08
4.98664e+08
-3.39405e+10
2.43111e+08
4.71948e+08
-3.58858e+10
3.49828e+08
2.54788e+08
-3.94857e+10
6.38505e+08
-3.36544e+08
-4.65971e+10
1.67356e+09
-2.80698e+08
-6.09864e+10
4.70938e+09
3.50157e+08
1.26021e+09
2.72247e+09
-3.55793e+10
3.34821e+10
-3.81945e+10
3.44388e+10
-3.95193e+10
2.89516e+10
-3.7868e+10
9.71815e+09
-3.87916e+10
-1.27976e+10
-3.94145e+10
-1.12201e+10
-3.70735e+10
-1.17799e+10
-3.51329e+10
-1.32119e+10
-3.39273e+10
-9.26667e+09
-3.38111e+10
-5.38833e+09
-3.39579e+10
-2.7818e+09
-3.37087e+10
-2.49961e+09
-3.32352e+10
-2.88342e+09
-3.2813e+10
-2.75669e+09
-3.25714e+10
-2.51226e+09
-3.24419e+10
-2.31547e+09
-3.23234e+10
-2.08596e+09
-3.22006e+10
-1.84877e+09
-3.20749e+10
-1.72485e+09
-3.19403e+10
-1.68286e+09
-3.17986e+10
-1.62887e+09
-3.16443e+10
-1.5701e+09
-3.14721e+10
-1.52206e+09
-3.12845e+10
-1.48189e+09
-3.10897e+10
-1.43847e+09
-3.08951e+10
-1.38588e+09
-3.07156e+10
-1.32118e+09
-3.05668e+10
-1.23901e+09
-3.04429e+10
-1.14474e+09
-3.03088e+10
-1.07108e+09
-3.01441e+10
-1.03866e+09
-2.9981e+10
-1.01681e+09
-2.98524e+10
-9.63583e+08
-2.9738e+10
-8.92781e+08
-2.96144e+10
-8.38392e+08
-2.95128e+10
-7.78824e+08
-2.94418e+10
-6.96722e+08
-2.93636e+10
-6.16023e+08
-2.92707e+10
-5.33605e+08
-2.917e+10
-4.49322e+08
-2.90547e+10
-3.74386e+08
-2.89087e+10
-2.9896e+08
-2.87153e+10
-2.05399e+08
-2.84805e+10
-1.03255e+08
-2.82306e+10
-2.33762e+07
-2.7976e+10
4.57222e+07
-2.77361e+10
1.19604e+08
-2.76227e+10
1.80248e+08
-2.7837e+10
1.47683e+08
-2.86328e+10
-9.70859e+07
-3.01359e+10
-7.82904e+08
-3.23248e+10
-1.11855e+09
-3.3102e+10
-2.23037e+09
-3.16984e+08
-3.18435e+10
-1.26341e+09
-9.64866e+09
-3.39445e+10
-1.20006e+09
-1.09618e+10
-3.44379e+10
-2.86188e+09
-1.50166e+10
-3.23966e+10
-4.90246e+09
-1.65174e+10
-3.09106e+10
-3.84351e+09
-1.62147e+10
-3.1088e+10
-9.63788e+08
-1.51902e+10
-3.31381e+10
1.45219e+09
-1.3529e+10
-3.4388e+10
1.02379e+09
-9.60837e+09
-3.43718e+10
3.50665e+07
-5.54058e+09
-3.38974e+10
-2.62766e+08
-4.09706e+09
-3.3602e+10
-2.38871e+08
-4.01838e+09
-3.33557e+10
-1.5639e+08
-3.82653e+09
-3.30541e+10
-1.07591e+08
-3.54749e+09
-3.2869e+10
-1.28431e+08
-3.27867e+09
-3.28141e+10
-1.20798e+08
-2.96913e+09
-3.27395e+10
-1.23464e+08
-2.75451e+09
-3.26642e+10
-1.22178e+08
-2.56408e+09
-3.25741e+10
-1.06478e+08
-2.37032e+09
-3.25004e+10
-9.30529e+07
-2.26284e+09
-3.24461e+10
-7.91084e+07
-2.20924e+09
-3.24054e+10
-6.90465e+07
-2.142e+09
-3.2353e+10
-5.35102e+07
-2.07879e+09
-3.22958e+10
-3.75702e+07
-2.023e+09
-3.22353e+10
-2.19035e+07
-1.96528e+09
-3.21736e+10
-1.13153e+07
-1.8954e+09
-3.21143e+10
-2.43518e+06
-1.81486e+09
-3.20764e+10
1.16528e+07
-1.71826e+09
-3.20753e+10
2.90853e+07
-1.60535e+09
-3.21076e+10
4.29305e+07
-1.48424e+09
-3.21585e+10
4.87601e+07
-1.35647e+09
-3.21905e+10
4.27127e+07
-1.23395e+09
-3.21773e+10
3.31703e+07
-1.161e+09
-3.21966e+10
4.39658e+07
-1.13467e+09
-3.23396e+10
7.98878e+07
-1.0569e+09
-3.25473e+10
1.05873e+08
-8.92108e+08
-3.27379e+10
1.01841e+08
-7.5098e+08
-3.29257e+10
9.45199e+07
-6.69288e+08
-3.3148e+10
1.01961e+08
-5.84692e+08
-3.33967e+10
1.16372e+08
-4.722e+08
-3.3667e+10
1.29551e+08
-3.5709e+08
-3.39614e+10
1.38317e+08
-2.53915e+08
-3.4273e+10
1.50628e+08
-1.49487e+08
-3.45967e+10
1.70595e+08
-3.23688e+07
-3.49343e+10
1.91515e+08
9.03665e+07
-3.53089e+10
2.12327e+08
2.02676e+08
-3.5752e+10
2.40064e+08
3.12296e+08
-3.63156e+10
2.69799e+08
4.36044e+08
-3.70949e+10
2.99704e+08
5.74553e+08
-3.82701e+10
3.39436e+08
7.08596e+08
-4.02623e+10
4.3757e+08
9.4335e+08
-4.37267e+10
6.86764e+08
1.28248e+09
-4.97595e+10
1.51016e+09
2.95516e+09
-5.89256e+10
3.37362e+09
5.07561e+09
-7.11025e+08
2.59316e+10
-2.92428e+10
3.30145e+10
-3.04673e+10
3.44874e+10
-2.9775e+10
2.54023e+10
-3.03452e+10
5.37565e+09
-3.57308e+10
-1.13063e+10
-3.70186e+10
-1.09669e+10
-3.39508e+10
-1.35109e+10
-3.20503e+10
-1.41904e+10
-3.20573e+10
-9.33757e+09
-3.32364e+10
-4.59767e+09
-3.34885e+10
-2.89946e+09
-3.28407e+10
-3.43164e+09
-3.23625e+10
-3.59662e+09
-3.21348e+10
-3.25112e+09
-3.19943e+10
-2.92651e+09
-3.19024e+10
-2.70402e+09
-3.18216e+10
-2.47229e+09
-3.17262e+10
-2.24454e+09
-3.16262e+10
-2.11154e+09
-3.15409e+10
-2.03751e+09
-3.14578e+10
-1.9568e+09
-3.13571e+10
-1.88281e+09
-3.12296e+10
-1.82505e+09
-3.10801e+10
-1.7714e+09
-3.09272e+10
-1.70556e+09
-3.07889e+10
-1.61927e+09
-3.06751e+10
-1.51017e+09
-3.05834e+10
-1.38583e+09
-3.04895e+10
-1.27927e+09
-3.03684e+10
-1.228e+09
-3.02471e+10
-1.20472e+09
-3.01846e+10
-1.13791e+09
-3.01793e+10
-1.02226e+09
-3.01821e+10
-9.14418e+08
-3.01927e+10
-8.33653e+08
-3.02303e+10
-7.59675e+08
-3.02812e+10
-6.80339e+08
-3.03352e+10
-5.98013e+08
-3.03897e+10
-5.08389e+08
-3.04447e+10
-4.16565e+08
-3.05069e+10
-3.2796e+08
-3.05684e+10
-2.38899e+08
-3.06031e+10
-1.45345e+08
-3.06088e+10
-4.39824e+07
-3.06184e+10
6.118e+07
-3.06553e+10
1.66066e+08
-3.07505e+10
2.77074e+08
-3.09782e+10
4.02127e+08
-3.14707e+10
5.35712e+08
-3.25068e+10
7.60306e+08
-3.44193e+10
1.00885e+09
-3.7068e+10
2.23761e+09
-3.94292e+10
3.11082e+09
5.94946e+09
-2.92725e+10
-2.52528e+09
-7.57981e+09
-2.98883e+10
-2.69482e+09
-7.4745e+09
-2.93147e+10
-4.26085e+09
-1.11843e+10
-2.76043e+10
-5.30395e+09
-1.2812e+10
-2.69238e+10
-3.29256e+09
-1.35406e+10
-2.80737e+10
-2.01075e+08
-1.38203e+10
-3.10363e+10
1.7079e+09
-1.2343e+10
-3.30055e+10
1.0986e+09
-8.82629e+09
-3.3498e+10
2.89784e+08
-5.46168e+09
-3.3241e+10
-1.75456e+08
-4.3241e+09
-3.29659e+10
-1.39923e+08
-4.30476e+09
-3.27162e+10
-2.25934e+07
-4.19962e+09
-3.25286e+10
-1.83296e+07
-3.85831e+09
-3.24292e+10
-4.58824e+07
-3.48242e+09
-3.23174e+10
-4.30816e+07
-3.2097e+09
-3.21872e+10
-4.67228e+07
-3.03748e+09
-3.20738e+10
-4.94252e+07
-2.86139e+09
-3.19628e+10
-4.11705e+07
-2.68022e+09
-3.18803e+10
-3.73311e+07
-2.57175e+09
-3.18175e+10
-3.11737e+07
-2.49003e+09
-3.17639e+10
-2.66071e+07
-2.41838e+09
-3.16874e+10
-1.3583e+07
-2.35591e+09
-3.1582e+10
-3.48559e+06
-2.31829e+09
-3.14263e+10
4.60139e+06
-2.28058e+09
-3.12315e+10
1.00721e+07
-2.23137e+09
-3.10303e+10
2.25631e+07
-2.15124e+09
-3.08545e+10
3.83943e+07
-2.03581e+09
-3.07117e+10
4.89765e+07
-1.89566e+09
-3.05923e+10
4.92426e+07
-1.74889e+09
-3.0476e+10
4.12184e+07
-1.60933e+09
-3.03544e+10
3.83632e+07
-1.4906e+09
-3.02605e+10
5.19656e+07
-1.40661e+09
-3.02556e+10
7.2637e+07
-1.31695e+09
-3.03288e+10
8.77035e+07
-1.18243e+09
-3.0403e+10
9.74885e+07
-1.03433e+09
-3.04729e+10
1.06153e+08
-9.14925e+08
-3.05812e+10
1.14964e+08
-8.13002e+08
-3.07319e+10
1.25014e+08
-7.04773e+08
-3.09067e+10
1.38266e+08
-5.88892e+08
-3.11046e+10
1.54293e+08
-4.70754e+08
-3.13379e+10
1.69387e+08
-3.46384e+08
-3.16008e+10
1.8379e+08
-2.17849e+08
-3.18797e+10
2.01448e+08
-8.55309e+07
-3.21735e+10
2.23738e+08
5.2786e+07
-3.25088e+10
2.47993e+08
2.01894e+08
-3.29338e+10
2.73284e+08
3.77942e+08
-3.35206e+10
2.97684e+08
6.04707e+08
-3.43712e+10
3.18387e+08
9.03308e+08
-3.57228e+10
3.40391e+08
1.37979e+09
-3.78252e+10
3.65795e+08
2.19968e+09
-4.1311e+10
4.12985e+08
3.84494e+09
-4.56222e+10
6.16633e+08
6.10048e+09
-5.44671e+10
1.56414e+09
1.21162e+10
-1.74773e+10
6.38631e+09
-2.50957e+10
3.02642e+10
-2.48764e+10
3.17032e+10
-2.42345e+10
2.06171e+10
-2.8022e+10
3.95088e+09
-3.42213e+10
-8.32995e+09
-3.34995e+10
-1.18669e+10
-3.03921e+10
-1.48998e+10
-3.05572e+10
-1.29634e+10
-3.25734e+10
-7.09829e+09
-3.36174e+10
-3.8164e+09
-3.31641e+10
-3.58784e+09
-3.25546e+10
-4.1583e+09
-3.23709e+10
-3.8944e+09
-3.22887e+10
-3.48297e+09
-3.21797e+10
-3.1989e+09
-3.20801e+10
-2.99077e+09
-3.19885e+10
-2.76831e+09
-3.18805e+10
-2.56332e+09
-3.17701e+10
-2.43053e+09
-3.16718e+10
-2.3393e+09
-3.15574e+10
-2.25673e+09
-3.14015e+10
-2.19725e+09
-3.11898e+10
-2.16126e+09
-3.09353e+10
-2.12158e+09
-3.06585e+10
-2.05407e+09
-3.03736e+10
-1.95162e+09
-3.00891e+10
-1.81984e+09
-2.98147e+10
-1.67163e+09
-2.95507e+10
-1.55282e+09
-2.93073e+10
-1.48859e+09
-2.91263e+10
-1.40655e+09
-2.90071e+10
-1.26619e+09
-2.89033e+10
-1.11754e+09
-2.87991e+10
-9.99205e+08
-2.87172e+10
-8.91306e+08
-2.86704e+10
-7.79263e+08
-2.86571e+10
-6.63163e+08
-2.8676e+10
-5.43653e+08
-2.87176e+10
-4.2178e+08
-2.87779e+10
-2.96255e+08
-2.88715e+10
-1.55921e+08
-2.90046e+10
-4.18691e+06
-2.91695e+10
1.53781e+08
-2.93607e+10
3.21504e+08
-2.95977e+10
5.10677e+08
-2.99305e+10
7.36101e+08
-3.04412e+10
1.02114e+09
-3.12388e+10
1.3961e+09
-3.25479e+10
1.97471e+09
-3.46474e+10
2.92701e+09
-3.83133e+10
4.77875e+09
-4.29127e+10
7.2942e+09
-5.12934e+10
1.3081e+10
3.15812e+09
-2.82482e+10
-3.19153e+09
-5.39363e+09
-2.72657e+10
-3.59964e+09
-4.43693e+09
-2.57379e+10
-4.52623e+09
-7.79205e+09
-2.42233e+10
-4.254e+09
-9.73098e+09
-2.43888e+10
-1.86737e+09
-1.1248e+10
-2.66094e+10
3.43299e+08
-1.17826e+10
-3.01751e+10
1.31611e+09
-9.99556e+09
-3.23881e+10
4.93578e+08
-7.10354e+09
-3.28883e+10
1.35505e+08
-5.15133e+09
-3.26906e+10
2.54668e+07
-4.63875e+09
-3.24471e+10
-8.42997e+07
-4.57214e+09
-3.23662e+10
-6.70878e+07
-4.32441e+09
-3.23497e+10
-3.03911e+07
-3.95403e+09
-3.22997e+10
-3.34405e+07
-3.61559e+09
-3.22228e+10
-3.2695e+07
-3.3853e+09
-3.21753e+10
-3.85581e+07
-3.21631e+09
-3.21569e+10
-3.93434e+07
-3.02378e+09
-3.21709e+10
-3.89911e+07
-2.8469e+09
-3.22059e+10
-3.43948e+07
-2.71889e+09
-3.22705e+10
-3.29042e+07
-2.62309e+09
-3.23177e+10
-2.49507e+07
-2.55384e+09
-3.23119e+10
-1.93102e+07
-2.53509e+09
-3.22052e+10
-1.35397e+07
-2.56497e+09
-3.20003e+10
-7.86104e+06
-2.59645e+09
-3.17408e+10
3.92075e+06
-2.58066e+09
-3.14734e+10
1.85901e+07
-2.50189e+09
-3.12192e+10
2.71057e+07
-2.37115e+09
-3.09929e+10
3.03635e+07
-2.20135e+09
-3.0798e+10
3.18516e+07
-2.02113e+09
-3.06e+10
2.63227e+07
-1.87618e+09
-3.03802e+10
2.48823e+07
-1.77525e+09
-3.01964e+10
4.43627e+07
-1.67376e+09
-3.00867e+10
6.90684e+07
-1.53442e+09
-3.0006e+10
8.03979e+07
-1.38345e+09
-2.99018e+10
8.54068e+07
-1.26539e+09
-2.97809e+10
9.53756e+07
-1.17481e+09
-2.9662e+10
1.06953e+08
-1.08399e+09
-2.95497e+10
1.17873e+08
-9.80547e+08
-2.9438e+10
1.30987e+08
-8.74916e+08
-2.93196e+10
1.45277e+08
-7.71712e+08
-2.91831e+10
1.60365e+08
-6.6741e+08
-2.90219e+10
1.7654e+08
-5.58359e+08
-2.883e+10
1.94083e+08
-4.41804e+08
-2.86027e+10
2.13017e+08
-3.17005e+08
-2.83444e+10
2.3353e+08
-1.74514e+08
-2.80732e+10
2.54405e+08
5.57863e+06
-2.78179e+10
2.71879e+08
2.51224e+08
-2.76205e+10
2.83341e+08
5.89959e+08
-2.7478e+10
2.85507e+08
1.08945e+09
-2.73574e+10
2.85638e+08
1.91007e+09
-2.69673e+10
2.83134e+08
3.26846e+09
-2.58002e+10
3.84738e+08
4.85525e+09
-2.65395e+10
1.39009e+09
1.16383e+10
6.93282e+08
5.85789e+09
-2.5011e+10
2.60386e+10
-2.42127e+10
2.74803e+10
-2.44225e+10
1.64564e+10
-2.82295e+10
3.63179e+09
-3.10995e+10
-7.2225e+09
-2.86625e+10
-1.38638e+10
-2.83664e+10
-1.38407e+10
-3.1644e+10
-9.20241e+09
-3.35795e+10
-5.06963e+09
-3.31217e+10
-4.30997e+09
-3.25856e+10
-4.27902e+09
-3.26148e+10
-4.26807e+09
-3.27097e+10
-3.90224e+09
-3.27485e+10
-3.55585e+09
-3.27559e+10
-3.3176e+09
-3.27804e+10
-3.11454e+09
-3.28176e+10
-2.89983e+09
-3.28466e+10
-2.71251e+09
-3.28817e+10
-2.5779e+09
-3.29223e+10
-2.47725e+09
-3.29383e+10
-2.40392e+09
-3.28974e+10
-2.37879e+09
-3.27805e+10
-2.39005e+09
-3.25926e+10
-2.3912e+09
-3.2351e+10
-2.34431e+09
-3.20755e+10
-2.24729e+09
-3.17962e+10
-2.10437e+09
-3.15346e+10
-1.9323e+09
-3.12932e+10
-1.79017e+09
-3.10948e+10
-1.68696e+09
-3.0956e+10
-1.54572e+09
-3.08357e+10
-1.36673e+09
-3.06962e+10
-1.21272e+09
-3.05571e+10
-1.08318e+09
-3.04324e+10
-9.57159e+08
-3.03051e+10
-8.38851e+08
-3.01687e+10
-7.21142e+08
-3.00331e+10
-5.89797e+08
-2.98962e+10
-4.54425e+08
-2.97519e+10
-3.1704e+08
-2.95887e+10
-1.71195e+08
-2.93995e+10
-1.39183e+07
-2.91822e+10
1.55279e+08
-2.89333e+10
3.37362e+08
-2.86547e+10
5.45234e+08
-2.83623e+10
7.99564e+08
-2.80817e+10
1.12463e+09
-2.785e+10
1.5509e+09
-2.76602e+10
2.15474e+09
-2.74556e+10
3.07763e+09
-2.68476e+10
4.5851e+09
-2.53233e+10
6.36863e+09
-2.31767e+10
1.24788e+10
5.0077e+09
-2.77469e+10
-3.37856e+09
-3.57748e+09
-2.5839e+10
-3.74993e+09
-2.37418e+09
-2.40162e+10
-3.90323e+09
-5.5033e+09
-2.2698e+10
-2.877e+09
-8.01274e+09
-2.3618e+10
-8.48927e+08
-9.3493e+09
-2.67021e+10
5.56309e+08
-9.15526e+09
-2.99817e+10
8.6435e+08
-7.54124e+09
-3.15374e+10
3.60331e+08
-5.90944e+09
-3.17187e+10
8.05543e+07
-5.08671e+09
-3.16365e+10
-5.56503e+07
-4.7225e+09
-3.16469e+10
-1.35857e+08
-4.49579e+09
-3.1751e+10
-8.12343e+07
-4.2125e+09
-3.18487e+10
-4.94399e+07
-3.88064e+09
-3.19047e+10
-4.41421e+07
-3.59384e+09
-3.19645e+10
-4.0642e+07
-3.38062e+09
-3.20739e+10
-4.04286e+07
-3.18727e+09
-3.22237e+10
-3.78404e+07
-2.98227e+09
-3.24067e+10
-3.48205e+07
-2.80401e+09
-3.26104e+10
-2.99335e+07
-2.66327e+09
-3.28287e+10
-2.87406e+07
-2.57087e+09
-3.30066e+10
-2.45746e+07
-2.52817e+09
-3.31004e+10
-2.56805e+07
-2.58334e+09
-3.30631e+10
-2.11183e+07
-2.70653e+09
-3.29224e+10
-1.16202e+07
-2.8146e+09
-3.27363e+10
1.5099e+06
-2.81764e+09
-3.25572e+10
8.18849e+06
-2.71455e+09
-3.24112e+10
9.78466e+06
-2.54304e+09
-3.22974e+10
1.29066e+07
-2.34194e+09
-3.21879e+10
1.34226e+07
-2.15685e+09
-3.20787e+10
6.3437e+06
-2.00255e+09
-3.201e+10
3.03391e+06
-1.85493e+09
-3.20073e+10
7.51554e+06
-1.68928e+09
-3.20331e+10
1.3684e+07
-1.52522e+09
-3.20464e+10
1.84343e+07
-1.38979e+09
-3.20492e+10
2.12128e+07
-1.28391e+09
-3.2053e+10
2.11032e+07
-1.19114e+09
-3.20599e+10
2.08454e+07
-1.09584e+09
-3.20595e+10
2.19835e+07
-9.98727e+08
-3.20475e+10
2.35115e+07
-9.02355e+08
-3.20198e+10
2.63076e+07
-8.10128e+08
-3.19681e+10
2.99978e+07
-7.2049e+08
-3.188e+10
3.31467e+07
-6.29807e+08
-3.17446e+10
3.74078e+07
-5.33819e+08
-3.15511e+10
4.4694e+07
-4.33551e+08
-3.12839e+10
5.41176e+07
-3.26685e+08
-3.09211e+10
6.3949e+07
-2.05653e+08
-3.04341e+10
7.15146e+07
-5.57242e+07
-2.97811e+10
7.69285e+07
1.32855e+08
-2.88721e+10
8.18097e+07
3.87103e+08
-2.75569e+10
9.18922e+07
8.22176e+08
-2.57856e+10
2.0868e+08
1.77311e+09