/*--------------------------------*- C++ -*----------------------------------*\
| =========                 |                                                 |
| \\      /  F ield         | OpenFOAM: The Open Source CFD Toolbox           |
|  \\    /   O peration     | Version:  4.1                                   |
|   \\  /    A nd           | Web:      www.OpenFOAM.org                      |
|    \\/     M anipulation  |                                                 |
\*---------------------------------------------------------------------------*/
FoamFile
{
    version     2.0;
    format      ascii;
    class       volVectorField;
    location    "16";
    object      U;
}
// * * * * * * * * * * * * * * * * * * * * * * * * * * * * * * * * * * * * * //

dimensions      [0 1 -1 0 0 0 0];

internalField   nonuniform List<vector> 
4432
(
(-184522 19845 38873)
(-177284 41497.1 90471.4)
(-166929 47936.7 113200)
(-162052 13993.9 67357.7)
(-172334 12567.2 56698.4)
(-156368 16462.6 47491.7)
(-139674 8473.27 11857)
(-134121 3125.49 787.861)
(-132377 -594.748 -2001.84)
(-131881 -1452.31 -2789.86)
(-124807 -1302.55 -1420.17)
(-123509 -1078.03 -840.544)
(-126115 -1526.14 -1216.05)
(-124249 -2664.57 -1787.05)
(-120103 -3290.73 -1609.26)
(-116673 -3573.47 -129.542)
(-115186 -3671.72 -30.5125)
(-114185 -3554.11 -1744.91)
(-112355 -3538.91 -2078.38)
(-111151 -3729.71 -1169.65)
(-110029 -4028.14 -1123.74)
(-108408 -4210.14 -1259.3)
(-106738 -4308.93 -1189.87)
(-104996 -4474.96 -1166.62)
(-103161 -4658.32 -1145.32)
(-101201 -4832.59 -1125.37)
(-99155.9 -5008.55 -1099.06)
(-97025.5 -5184 -1070.15)
(-94823.1 -5357.35 -1037.76)
(-92555.2 -5526.02 -1003.25)
(-90227.2 -5689.38 -977.086)
(-87851.1 -5848.16 -949.074)
(-85446.8 -5975.59 -882.769)
(-83080.2 -6048.98 -801.757)
(-80767.6 -6108.84 -743.691)
(-78443.4 -6174.58 -664.672)
(-76135.2 -6179.1 -520.581)
(-73982.2 -6101.91 -323.482)
(-71936.9 -5988.27 -146.717)
(-69973.9 -5842.16 -9.55523)
(-68086.6 -5646.61 110.542)
(-66256.5 -5399.34 192.436)
(-64412.8 -5103.29 158.021)
(-62460.1 -4762.32 120.812)
(-60415.6 -4278.88 346.872)
(-58566.2 -3569.09 632.567)
(-57341.1 -2817.95 661.22)
(-56767.8 -2154.99 566.987)
(-55812.6 -1622.23 287.853)
(-52725.7 -1563.52 1319)
(-51809 -1515.54 3256.39)
(-63018.6 2849.29 5485.29)
(-96016.7 -12052 68.2462)
(46980.5 -2263.64 -17309.4)
(-137363 75882.7 92612.6)
(-162216 91288.6 118856)
(-158814 79225.1 89403.8)
(-150227 19368.3 37305.1)
(-200809 6306.24 20864.7)
(-177229 17718.1 22758.4)
(-151392 14516.9 7138.02)
(-142143 8328.28 4910.01)
(-146759 716.12 -2344.74)
(-147172 1146.53 -5821.11)
(-138224 3424.97 -4878.55)
(-134141 3796.33 -3432.31)
(-133319 3401.22 -3115.74)
(-130969 2447.92 -3328.5)
(-127523 2147.39 -1249.34)
(-125879 2158.07 729.169)
(-126398 2085.84 -1722.26)
(-125940 2299.74 -3715.09)
(-124547 2638.56 -2575.09)
(-123863 2669.32 -1858.32)
(-123400 2506.01 -2252.58)
(-122796 2497.11 -2312.17)
(-122019 2556.87 -2276.23)
(-121212 2538.42 -2284.09)
(-120430 2499.97 -2303.75)
(-119602 2461.74 -2317.11)
(-118785 2410.96 -2327.1)
(-117977 2348.75 -2333.89)
(-117193 2274.27 -2338.75)
(-116447 2188 -2343.91)
(-115745 2088.06 -2352.8)
(-115104 1971.15 -2359.55)
(-114537 1860.73 -2348.89)
(-114012 1773.56 -2325.25)
(-113504 1661.84 -2312.82)
(-113053 1499.48 -2310.9)
(-112668 1348.15 -2275.31)
(-112277 1232.3 -2196.01)
(-111824 1116.5 -2133.22)
(-111278 992.376 -2117.44)
(-110603 878.082 -2115.79)
(-109749 785.78 -2114.44)
(-108613 722.982 -2167.23)
(-107056 664.944 -2228.69)
(-105037 669.103 -2192.2)
(-102382 892.861 -2249.68)
(-98627.4 1174.35 -2469.79)
(-93955.1 1084.46 -2397.54)
(-89038.4 543.134 -1961.69)
(-82459.6 -125.917 -358.18)
(-81402.5 441.823 1292.56)
(-102574 4447.3 -3855.68)
(-87130.1 -5179.18 -16966.8)
(-2016.72 -4684 -8653.22)
(-174953 -34675.4 -112505)
(-221770 -31766.9 -68393.5)
(-258766 -24033.3 -44534.8)
(-256817 -10206.5 -46786.2)
(-221882 -5943.19 -24554.3)
(-197513 -486.257 -23871.4)
(-182855 670.204 -18281.4)
(-175156 -1934.43 2007.33)
(-166927 -1237.52 5780.71)
(-163289 -1183.28 -9146.94)
(-159585 -2240 -11096.8)
(-158356 -1260.01 -3505.16)
(-158257 -497.502 -4179.67)
(-157231 -473.067 -6917.37)
(-158389 -631.563 -5031.99)
(-158820 -1084.07 -2227.86)
(-156909 -1120.41 -1973.73)
(-156045 -842.045 -2473.79)
(-156711 -731.764 -2216.85)
(-157245 -670.295 -1897.47)
(-157555 -762.11 -1811.03)
(-157816 -820.183 -1664.41)
(-158169 -791.975 -1534.38)
(-158634 -795.645 -1413.79)
(-159181 -815.189 -1277.79)
(-159845 -837.094 -1130.75)
(-160652 -865.019 -961.848)
(-161613 -898.901 -773.019)
(-162745 -941.582 -568.939)
(-164067 -993.432 -357.3)
(-165574 -1051.09 -137.368)
(-167255 -1120.66 118.886)
(-169167 -1198.52 403.919)
(-171322 -1252.69 655.794)
(-173591 -1303.81 948.959)
(-175934 -1406.92 1352.87)
(-178418 -1522.06 1726.6)
(-181045 -1598.24 2023.05)
(-183798 -1646.64 2301.51)
(-186679 -1682.83 2627.83)
(-189761 -1687.89 3014.96)
(-193088 -1639.81 3461.33)
(-196815 -1526.09 3905.91)
(-201094 -1370.66 4344.33)
(-205863 -1195.06 4799.69)
(-210799 -884.672 5251.98)
(-215928 -403.677 5616.04)
(-221518 22.6813 5631.04)
(-226455 287.808 4862.23)
(-229442 -73.8049 3261.9)
(-223079 -618.257 -736.362)
(-224226 -742.014 -10213.4)
(-176917 -734.079 -42713.1)
(-120140 -3784.69 -30236)
(-234711 82149.5 115949)
(-242063 91903.8 119610)
(-234221 80377.1 94800.6)
(-231631 33941.5 34855.2)
(-256331 -7591.53 -24594.1)
(-234545 -2640.46 -18118.6)
(-207457 -2478.52 -17841.7)
(-182887 -1616.62 -4353.22)
(-174914 -3116.3 -6813.32)
(-172008 -1656.09 -13161.3)
(-168777 1652.87 -8515.94)
(-169366 3443.13 -855.09)
(-169081 3091.63 -767.669)
(-168746 2919.82 -3874.42)
(-169477 2951.91 -2700.44)
(-167910 2669.53 -585.675)
(-165684 2869.5 -719.606)
(-165682 3216.3 -868.037)
(-165997 3306.24 -538.607)
(-165435 3479.97 -284.123)
(-164975 3535.59 -195.252)
(-164632 3580.57 -117.714)
(-164116 3702.93 -40.8145)
(-163533 3796.13 22.4102)
(-162899 3874.44 85.3667)
(-162225 3948.93 153.454)
(-161535 4016.01 234.335)
(-160844 4075.72 328.9)
(-160172 4124.79 437.5)
(-159535 4162.62 560.881)
(-158941 4191.88 691.645)
(-158404 4203.97 828.954)
(-157958 4199.17 993.755)
(-157608 4208.52 1202.91)
(-157354 4215.14 1470.94)
(-157234 4162.94 1778.46)
(-157245 4081.04 2067.37)
(-157366 4015.13 2302.4)
(-157636 3941.13 2506.15)
(-158095 3840.69 2742.2)
(-158750 3732.19 3035.98)
(-159608 3638.39 3338.55)
(-160647 3560.27 3573.8)
(-161920 3477.53 3685.69)
(-163439 3402.28 3671.08)
(-165102 3439.57 3486.12)
(-166840 3551.83 2983.46)
(-168576 3474.64 1952.45)
(-169290 3240.89 128.014)
(-167042 2687.59 -2016.67)
(-162184 2659.6 -5130.15)
(-161121 3768.21 -15254.4)
(-177487 4790.54 -36828.1)
(-93011.9 1236.07 -14393.6)
(-160258 -47109.4 -110006)
(-179442 -44113.1 -112219)
(-191176 -41794.8 -104937)
(-195891 -26599.1 -97914.6)
(-183739 -21317.4 -87231.2)
(-177230 -11432.4 -64780.9)
(-174190 -1701.98 -43507.6)
(-169840 -636.848 -22618.3)
(-155227 -2086.34 -15586.7)
(-146442 -3008.21 -15750.5)
(-146894 -2572.89 -10658.9)
(-145462 -1739.15 -9155.37)
(-141005 -1365.74 -10741.1)
(-141217 -587.607 -10217.7)
(-143314 -688.006 -8737.29)
(-141284 -1395.01 -7609.68)
(-138422 -1187.81 -7224.43)
(-137811 -829.039 -6686.75)
(-137366 -779.428 -5932.51)
(-136505 -737.512 -5665.38)
(-135730 -725.151 -5627.76)
(-134826 -691.733 -5474.28)
(-133896 -634.622 -5292.53)
(-132984 -584.272 -5124.16)
(-132067 -536.681 -4948.03)
(-131182 -483.536 -4735.76)
(-130342 -428.274 -4487.9)
(-129574 -370.834 -4209.77)
(-128903 -309.637 -3888.98)
(-128341 -238.363 -3524.53)
(-127883 -168.577 -3173.55)
(-127511 -128.702 -2765.97)
(-127249 -75.8863 -2108.28)
(-127136 58.9184 -1506.72)
(-127144 167.518 -1321.22)
(-127238 149.219 -966.65)
(-127401 131.793 -356.058)
(-127651 150.332 299.63)
(-127967 157.45 930.947)
(-128320 146.63 1612.25)
(-128714 150.951 2355.88)
(-129179 161.837 3106.01)
(-129487 161.814 3869.13)
(-129604 139.281 4636.78)
(-129448 112.171 5207.41)
(-128858 104.257 5684.15)
(-128007 28.4088 6205.27)
(-127068 -176.122 5927.36)
(-125463 -475.723 3775.48)
(-122532 -1002.52 -2034.87)
(-121937 -1413.58 -13497.5)
(-138486 510.298 -30916.5)
(-182287 8410.01 -47831.1)
(-103447 5569.41 -15323.4)
(-225203 59218.6 111751)
(-222850 62150.7 102162)
(-212680 53514.8 89634.7)
(-221930 33215.7 57544.9)
(-226142 4680.97 -32723.5)
(-210223 178.502 -45200.7)
(-193907 -3914 -43517.5)
(-173067 -4940.85 -31721.7)
(-162244 -5306.78 -17105.1)
(-158543 -2615.16 -14055.8)
(-160006 1141.13 -8211.53)
(-160986 1444.49 -2861.71)
(-159503 826.994 -4606.07)
(-159294 1542.97 -5311.27)
(-159536 1594.53 -4343.39)
(-157987 1205.78 -3691.94)
(-155996 1578.91 -3178.62)
(-155201 1811.45 -2522.74)
(-154498 1805.73 -1951.9)
(-153282 1930.76 -1723.65)
(-151970 2004.58 -1633.08)
(-150529 2046.99 -1551.5)
(-148917 2105.71 -1446.8)
(-147186 2156.67 -1370.27)
(-145337 2198.21 -1302.42)
(-143400 2236.77 -1218.23)
(-141395 2268.98 -1115.47)
(-139340 2294.95 -993.311)
(-137244 2316.68 -857.747)
(-135123 2340.18 -715.039)
(-132990 2356.62 -565.638)
(-130857 2338.32 -394.48)
(-128755 2315.91 -172.422)
(-126681 2357.75 104.823)
(-124592 2391.68 407.198)
(-122446 2319.66 613.561)
(-120229 2230.63 731.167)
(-118035 2158.05 973.342)
(-115945 2085.48 1346.78)
(-113924 2008.85 1729.71)
(-111931 1947.11 2124.51)
(-109954 1891.49 2553.48)
(-107998 1827.21 2962.02)
(-106013 1742.15 3321.77)
(-104028 1665.03 3622.86)
(-102021 1637.87 3852)
(-100005 1549.76 3898.39)
(-98256.6 1334.45 3299.51)
(-96505 1149.44 1281.83)
(-94098.1 883.755 -3200.36)
(-94182.3 497.547 -10953.5)
(-108565 1071.66 -19322.2)
(-114370 6483.27 -28562.9)
(-26890.4 3580.95 -10487.4)
(-144273 -44988.4 -69470.3)
(-166842 -44966.9 -81553.9)
(-168912 -39270.4 -93660.9)
(-168374 -35470.5 -82784.5)
(-165859 -29729.5 -79527)
(-160820 -18636.6 -69587.6)
(-156702 -5679.73 -57171.7)
(-155080 -2256.15 -36080.2)
(-146897 -2599.44 -17055.2)
(-141983 -1969.07 -11384.9)
(-142481 -1705.95 -11106.7)
(-139109 -2126.94 -11348.5)
(-135866 -1900.17 -10448.7)
(-135281 -1468.17 -9692.21)
(-134727 -1471.58 -10065.4)
(-133521 -1546.85 -9658.91)
(-132056 -1482.81 -8237.98)
(-131305 -1388.31 -7105.25)
(-130794 -1275.5 -6677.88)
(-130117 -1228.05 -6533.25)
(-129431 -1206.29 -6349.85)
(-128673 -1175.94 -6137.19)
(-127860 -1143.01 -5959.92)
(-126992 -1119.18 -5795.99)
(-126093 -1099.76 -5644.05)
(-125196 -1084.12 -5480.23)
(-124325 -1071.03 -5285.27)
(-123513 -1057.11 -5040.87)
(-122786 -1054.1 -4772.38)
(-122130 -1052.44 -4504.58)
(-121591 -1005.59 -4199.38)
(-121353 -1032.17 -3755.42)
(-121302 -1282.95 -3282.17)
(-120859 -1291.26 -3119.19)
(-119941 -743.938 -3131.91)
(-119583 -579.646 -2827.93)
(-119696 -841.22 -2329.58)
(-119419 -933.886 -1939.06)
(-119159 -840.265 -1536.97)
(-119121 -824.537 -1073.33)
(-119023 -885.443 -597.58)
(-118870 -906.467 -111.386)
(-118706 -936.843 397.162)
(-118445 -1028.59 876.514)
(-118079 -1107.98 1265.88)
(-117718 -1173.22 1676.79)
(-117493 -1324.28 2101)
(-117672 -1567.51 2140.13)
(-118420 -1814.49 986.921)
(-119990 -2016.72 -2722.06)
(-127518 -1915.35 -10686.6)
(-152423 -270.022 -21987)
(-208691 7347.72 -38741.6)
(-137727 3823.56 -11219.6)
(-175682 39919.4 125611)
(-184602 47417.5 123096)
(-189978 35674.7 108751)
(-195665 13919.5 65533.5)
(-187703 -1312.47 -35827.8)
(-181902 -3789.89 -40886.1)
(-169838 -1708.93 -40817.5)
(-156581 -3639.31 -44514.1)
(-150043 -4998.55 -26080.9)
(-145414 -2410.81 -16334.1)
(-145294 618.58 -8006.7)
(-145383 -648.213 -4332)
(-144575 -905.106 -5723.51)
(-144303 -162.337 -6059.5)
(-143393 -39.5918 -6122.03)
(-141874 -244.495 -5853.44)
(-140651 -227.451 -4887.54)
(-140047 -170.391 -3936.7)
(-139477 -80.0017 -3566.17)
(-138627 -31.0192 -3507.14)
(-137652 -25.2529 -3416.38)
(-136575 -27.9181 -3346.13)
(-135416 -27.3361 -3292.03)
(-134184 -31.0787 -3270.85)
(-132906 -38.5561 -3256.8)
(-131616 -49.6065 -3227.85)
(-130333 -60.5614 -3185.81)
(-129066 -64.0696 -3139.51)
(-127845 -77.1474 -3081)
(-126745 -104.74 -2974.7)
(-125723 -84.3401 -2850.89)
(-124601 -82.7975 -2790.18)
(-123537 -280.806 -2714.92)
(-122771 -328.935 -2556.64)
(-121838 112.959 -2495.59)
(-120438 252.423 -2579.48)
(-119306 1.90618 -2525.74)
(-118781 -125.13 -2222.22)
(-118246 -45.0315 -1881.05)
(-117544 -2.70389 -1595.81)
(-116941 -37.6139 -1288.24)
(-116347 -26.72 -893.267)
(-115648 -5.4809 -411.35)
(-114921 -27.8081 86.8687)
(-114168 -22.7235 552.476)
(-113237 21.589 1090.87)
(-112237 11.2593 1678.51)
(-111662 -68.987 1847.44)
(-111564 -132.004 872.112)
(-111549 -167.832 -2065.54)
(-114213 -180.318 -7999.77)
(-127084 336.007 -16189.6)
(-136970 5789.92 -30585.3)
(-60102.4 3012.11 -11293.1)
(-130489 -34027.1 -48382.4)
(-149062 -37194.9 -57150.3)
(-156214 -36723.9 -73489.7)
(-153089 -35467.4 -80225.4)
(-145278 -28968.3 -77583.6)
(-139021 -15268.5 -65574.6)
(-137772 -3391.71 -55342.7)
(-145203 -2087.46 -38447.9)
(-146459 -2944.74 -20903.5)
(-141666 -1232.05 -12803.5)
(-137710 -1527.34 -13732.5)
(-135574 -2256.26 -14066.2)
(-134758 -1511.11 -12212.7)
(-133767 -1281.4 -11582.8)
(-133157 -1351.23 -11007.7)
(-132795 -1274.49 -9975.41)
(-132202 -1157 -8988.3)
(-131740 -1036.24 -7998.24)
(-131329 -923.103 -7406.58)
(-130971 -847.947 -7248.62)
(-130646 -778.683 -7003.93)
(-130253 -716.752 -6719.98)
(-129791 -653.247 -6474.95)
(-129258 -603.915 -6262.05)
(-128702 -555.851 -6026.2)
(-128184 -514.172 -5740.08)
(-127728 -496.317 -5408.03)
(-127293 -499.777 -5037.81)
(-126879 -481.643 -4655.71)
(-126595 -455.797 -4236.47)
(-126520 -514.197 -3677.38)
(-126495 -691.18 -3151.79)
(-126252 -849.817 -3147.5)
(-125876 -808.122 -3309.18)
(-125796 -630.834 -2699.17)
(-126076 -612.971 -1866.92)
(-126276 -758.204 -1453.37)
(-126308 -858.33 -1254.09)
(-126450 -897.638 -884.923)
(-126717 -962.579 -472.872)
(-126988 -1077.01 -163.735)
(-127227 -1203.64 175.536)
(-127439 -1321.44 637.862)
(-127671 -1478.41 1090.15)
(-128012 -1704.51 1433.76)
(-128488 -1957.62 1838.98)
(-129162 -2223.39 2305.51)
(-130530 -2522.41 2545.56)
(-133161 -2835.38 2064.59)
(-137383 -3074.06 68.949)
(-149575 -3078.67 -4628.66)
(-181692 -1830.42 -10839.7)
(-267182 6150.98 -20455.2)
(-200644 3699.33 -174.863)
(-135702 28444.7 132035)
(-148125 34292.6 134433)
(-157842 21734.3 122252)
(-154281 -1487.69 52241.6)
(-150401 -12816 -48212)
(-164643 -12924.9 -42728)
(-150097 -5859.26 -41728.9)
(-141905 -3301.17 -49147.2)
(-139829 -3322.08 -34524.4)
(-134916 -1785.72 -22260.4)
(-135172 -559.343 -11617.7)
(-135286 -1101.31 -8582.36)
(-133695 -616.771 -9959.18)
(-132111 -372.735 -9812.44)
(-131004 -435.122 -9068.99)
(-130169 -544.485 -8370.07)
(-129511 -459.66 -7448.11)
(-128984 -385.381 -6468.77)
(-128490 -323.801 -5948.38)
(-127948 -280.829 -5801.98)
(-127402 -247.852 -5618.01)
(-126800 -222.474 -5398.18)
(-126133 -186.017 -5210.23)
(-125403 -155.413 -5057.36)
(-124637 -117.361 -4899.85)
(-123862 -72.337 -4728.4)
(-123112 -36.3477 -4541.08)
(-122458 -12.7049 -4292.11)
(-121944 38.0496 -3949.48)
(-121486 110.4 -3584.82)
(-120905 129.883 -3351.34)
(-120182 52.3476 -3266.88)
(-119591 -46.2289 -3152.33)
(-119197 -4.66732 -2940.83)
(-118726 184.538 -2733.3)
(-118214 272.569 -2453.94)
(-117883 214.307 -2056.79)
(-117616 184.193 -1729.87)
(-117254 216.89 -1462.06)
(-116849 238.443 -1169.47)
(-116414 216.567 -909.089)
(-115896 183.758 -636.649)
(-115211 166.668 -213.891)
(-114299 129.593 251.42)
(-113290 40.6299 561.869)
(-112308 -67.8795 861.341)
(-111323 -173.894 1261.26)
(-110539 -282.189 1524.99)
(-110418 -385.15 1182.16)
(-111005 -415.235 -704.058)
(-116411 -361.522 -5280.65)
(-137366 313.226 -11035.8)
(-167900 5950.67 -20626.1)
(-88669.5 2656.7 -5817.85)
(-124163 -30062.6 -45453.1)
(-132722 -32901.5 -53878.1)
(-137453 -33157.4 -68199.9)
(-133511 -30980.9 -71869.7)
(-127499 -20875.9 -68519.5)
(-122315 -4805.46 -61957.5)
(-125273 4172.07 -55320.8)
(-136570 882.622 -38959.1)
(-140702 -2512.47 -21905.7)
(-137214 -2499.9 -16234.5)
(-133873 -1771.9 -15930.2)
(-133489 -1127.27 -14258.4)
(-132644 -972.051 -13189.2)
(-131801 -1128.58 -12693.6)
(-131659 -962.787 -11406)
(-131233 -829.744 -10416.4)
(-130821 -725.608 -9585.03)
(-130459 -600.973 -8748.97)
(-130068 -502.005 -8298.54)
(-129795 -426.557 -8127.5)
(-129626 -366.286 -7861.33)
(-129415 -295.328 -7609.18)
(-129161 -229.175 -7385.29)
(-128911 -177.008 -7142.38)
(-128675 -156.121 -6816.95)
(-128444 -145.648 -6441.12)
(-128244 -116.279 -6040.27)
(-128171 -90.326 -5583.13)
(-128261 -98.7545 -5039.44)
(-128464 -147.082 -4437.27)
(-128695 -253.031 -3850.01)
(-128738 -371.333 -3480.67)
(-128642 -357.607 -3421.69)
(-128939 -210.45 -3203.38)
(-129762 -151.753 -2481.43)
(-130598 -256.932 -1739.61)
(-131285 -385.074 -1286.28)
(-132095 -464.454 -822.687)
(-133051 -534.571 -191.065)
(-134072 -630.613 438.854)
(-135192 -771.383 1003.46)
(-136391 -929.858 1595.32)
(-137632 -1093.46 2281.82)
(-138923 -1296.98 3017.04)
(-140318 -1546.24 3707)
(-141938 -1811.75 4397.83)
(-143965 -2114.14 5224.51)
(-146701 -2463.24 6242.88)
(-150464 -2831.09 7263.11)
(-155314 -3125.69 8608.1)
(-166116 -3296.27 10137.9)
(-194040 -2589.09 18238.6)
(-272826 2689.87 26593.4)
(-223823 -1584.91 32400.9)
(-113730 23187.5 136319)
(-122033 25576.9 141946)
(-120570 11307.5 113114)
(-112674 -8831.88 30481.2)
(-133582 -15993.4 -47466)
(-155981 -13294.7 -41165.4)
(-138620 -4200.83 -48988.5)
(-128969 -581.109 -55770.2)
(-128166 -1344.28 -40200.5)
(-131140 -1474.37 -21262.8)
(-134721 -661.857 -10835.4)
(-132307 -483.136 -11637.6)
(-129833 -289.415 -13320.4)
(-129104 -283.832 -12360.9)
(-128456 -266.764 -11055.4)
(-127862 -260.049 -10123.6)
(-127470 -208.762 -9170.64)
(-127096 -143.013 -8191.59)
(-126646 -101.835 -7637.32)
(-126247 -73.3878 -7365.01)
(-125926 -58.384 -7043.83)
(-125544 -27.6636 -6717.42)
(-125064 6.64743 -6449.34)
(-124488 38.4495 -6206.53)
(-123867 55.957 -5943.06)
(-123285 74.2679 -5621.95)
(-122797 113.464 -5219.28)
(-122417 159.731 -4733.07)
(-122094 191.532 -4251.88)
(-121690 194.533 -3951.1)
(-121161 153.793 -3848.35)
(-120749 108.797 -3679.46)
(-120675 151.994 -3295.17)
(-120731 288.093 -2851.55)
(-120720 377.973 -2492.79)
(-120809 352.761 -2157.42)
(-121013 292.557 -1783.46)
(-121216 268.295 -1378.09)
(-121424 266.846 -926.588)
(-121633 250.587 -483.369)
(-121846 196.541 -76.9515)
(-122096 132.553 334.286)
(-122283 73.6264 785.376)
(-122319 -11.4512 1291.57)
(-122314 -130.968 1819.19)
(-122417 -255.529 2341.41)
(-122718 -402.273 2905.26)
(-123439 -580.727 3611.68)
(-124731 -759.786 4356.09)
(-126430 -835.766 5314.34)
(-132142 -829.879 5850.38)
(-154271 -169.128 10889)
(-196550 4164.85 11720.5)
(-121055 -125.848 9535.62)
(-119178 -30071.6 -33596.5)
(-117888 -33234.6 -35815.1)
(-118849 -33725.2 -52819.8)
(-113495 -29077.9 -60388.4)
(-109237 -15982 -60705.7)
(-107239 -681.414 -58729.7)
(-115460 4060.37 -52311.8)
(-129667 113.048 -37538.3)
(-136380 -1723.65 -22378.9)
(-134387 -1551.62 -16750.4)
(-131680 -1116.4 -16316.5)
(-130945 -606.22 -16330.5)
(-130312 -611.895 -15236.6)
(-130049 -676.73 -13670.1)
(-129699 -566.672 -12476.7)
(-129063 -474.417 -11781.8)
(-128537 -398.12 -11124.6)
(-128070 -303.715 -10439.5)
(-127626 -235.849 -10064.4)
(-127326 -178.721 -9834.63)
(-127100 -126.9 -9594)
(-126807 -58.9735 -9359.9)
(-126419 -12.7472 -9163)
(-125884 5.11181 -8956.44)
(-125166 12.7069 -8737.22)
(-124355 53.7491 -8462.5)
(-123604 99.7828 -8074.97)
(-122999 103.103 -7622.9)
(-122509 55.3516 -7203.5)
(-122072 -20.3014 -6791.02)
(-121611 -70.782 -6390.06)
(-121142 -46.1779 -6153.74)
(-120922 29.0098 -5989.11)
(-121121 89.1933 -5625.75)
(-121467 95.1199 -5128.6)
(-121715 65.4887 -4774.85)
(-122039 26.9156 -4561.37)
(-122584 -11.6411 -4344.01)
(-123239 -46.8893 -4094.34)
(-123955 -88.8752 -3839.16)
(-124796 -158.582 -3603.24)
(-125776 -257.961 -3403.56)
(-126845 -373.875 -3232.74)
(-127958 -504.897 -3098.26)
(-129167 -667.632 -3026.65)
(-130666 -869.038 -2977.68)
(-132696 -1114.42 -2908.56)
(-135701 -1404.41 -2804.97)
(-139785 -1728.53 -2455.22)
(-146362 -2133.51 -1261.49)
(-155363 -2726.56 2229.6)
(-183085 -3378.25 11365.1)
(-212039 -1239.34 33387.9)
(-128440 -51965.8 110218)
(-101456 17623.8 129949)
(-101651 18370.8 136209)
(-95719.6 4958.56 92261.9)
(-94995.2 -9561.34 14395.2)
(-132728 -12190.8 -40717.1)
(-143511 -8261.46 -45699.3)
(-122332 49.6483 -59193.6)
(-117083 2045.95 -57921)
(-127895 649.559 -34120.4)
(-135179 -1144.79 -14813.9)
(-134225 -410.309 -12053.6)
(-130432 25.2999 -15693.3)
(-129573 48.7805 -15424.2)
(-129527 -60.3719 -13742.6)
(-129085 -39.4398 -12503.3)
(-128550 -17.6673 -11694.5)
(-128181 5.36804 -10828.1)
(-127766 48.0575 -9994.44)
(-127260 73.9155 -9492.67)
(-126830 94.2962 -9180.82)
(-126415 111.413 -8865.47)
(-125852 152.135 -8605.45)
(-125078 184.95 -8423.76)
(-124104 204.255 -8248.67)
(-123024 215.529 -7992.04)
(-121913 254.498 -7612.71)
(-120790 310.049 -7131.82)
(-119695 347.647 -6615.92)
(-118646 335.602 -6238.06)
(-117615 274.775 -6129.1)
(-116735 239.602 -6042.74)
(-116194 297.621 -5678.21)
(-115823 395.213 -5173.55)
(-115383 452.238 -4795.9)
(-114979 465.363 -4525.29)
(-114728 469.08 -4265.71)
(-114606 467.493 -3996.22)
(-114622 460.067 -3725.54)
(-114747 456.768 -3455.54)
(-114927 452.399 -3174.19)
(-115201 427.444 -2865.29)
(-115628 378.787 -2560.41)
(-116205 319.053 -2280.51)
(-116892 250.363 -2016.37)
(-117701 157.218 -1758.63)
(-118815 35.3112 -1485.08)
(-120504 -120.76 -1156.08)
(-123260 -314.742 -737.077)
(-127139 -529.335 15.623)
(-133433 -813.012 1672.01)
(-142296 -1319.76 5876.34)
(-174260 -2042.79 15279.2)
(-228299 -196.121 34442.6)
(-189370 -19221.4 28520.5)
(-118026 -28871.9 -25971)
(-110107 -33061.8 -23233)
(-106493 -32938.3 -37826.4)
(-99770.4 -26654.9 -44513.1)
(-96062.6 -13466 -49669.9)
(-98228.8 -1986.88 -52177.4)
(-111560 853.892 -45515.3)
(-127491 -1206.97 -32206.2)
(-133662 -982.298 -21074)
(-131810 -497.519 -18107)
(-129648 -746.856 -18299.1)
(-129271 -546.798 -17460.8)
(-129460 -483.65 -15887.6)
(-129447 -488.038 -14406.2)
(-129126 -433.603 -13416.3)
(-128802 -387.878 -12784.7)
(-128673 -331.741 -12072.3)
(-128656 -272.128 -11377.2)
(-128718 -213.378 -10911.7)
(-128920 -167.398 -10544.5)
(-129145 -110.808 -10226.3)
(-129209 -72.0882 -9999.52)
(-128947 -48.3738 -9921.03)
(-128261 -25.0005 -9888.39)
(-127279 31.2292 -9770.77)
(-126221 98.5179 -9474.78)
(-125208 125.96 -9029.07)
(-124275 133.832 -8478.77)
(-123472 155.871 -7866.97)
(-122745 142.709 -7303.51)
(-121922 116.279 -6920.43)
(-121061 184.662 -6664.78)
(-120481 310.85 -6267.95)
(-120173 382.05 -5708.3)
(-119822 393.748 -5231.12)
(-119354 415.304 -4904.94)
(-118866 451.159 -4613.92)
(-118401 485.8 -4291.42)
(-117953 528.384 -3963.42)
(-117488 574.571 -3643.1)
(-116965 619.447 -3313.01)
(-116351 661.444 -2975.76)
(-115622 699.942 -2642.24)
(-114759 733.647 -2299.52)
(-113756 760.902 -1917.4)
(-112689 778.48 -1417.15)
(-111665 777.647 -722.764)
(-110858 755.083 216.075)
(-110219 701.412 1730.45)
(-109130 621.714 4307.43)
(-108933 440.627 8919.2)
(-115455 32.9593 12792.4)
(-134117 1886.6 34394.9)
(-68017.1 1701.63 6746.02)
(-103657 12358.5 113017)
(-97963.7 12042.9 118008)
(-94702.2 1478.38 71357.1)
(-101326 -7681.19 12938.7)
(-127721 -8228.05 -31082.8)
(-120865 -5356.69 -52962.4)
(-105262 -488.957 -61448.5)
(-118029 -159.385 -44804.4)
(-136446 -60.9298 -22077.7)
(-134838 34.495 -16042.8)
(-130199 39.6192 -16697.7)
(-130113 -39.5914 -17489.3)
(-130708 67.4394 -15825.2)
(-131066 19.766 -14253.8)
(-131080 16.2279 -13253.8)
(-131083 6.43826 -12470.8)
(-131243 7.88081 -11624.6)
(-131353 20.5894 -10877.7)
(-131438 42.0464 -10372.5)
(-131587 55.5853 -10007.1)
(-131698 85.8557 -9702.33)
(-131609 111.943 -9528.22)
(-131235 136.647 -9463.91)
(-130575 160.025 -9375.6)
(-129701 206.49 -9139.49)
(-128673 277.773 -8755.94)
(-127567 347.079 -8254.24)
(-126520 396.368 -7675.66)
(-125551 399.705 -7223.98)
(-124648 347.716 -6959.85)
(-123998 348.383 -6561.82)
(-123574 468.668 -5977.68)
(-123066 585.43 -5454.81)
(-122463 627.012 -5051.88)
(-121951 648.712 -4667.78)
(-121478 688.176 -4290.21)
(-120938 727.516 -3924.39)
(-120382 767.785 -3544.87)
(-119837 818.249 -3163.03)
(-119269 868.948 -2771.38)
(-118642 917.923 -2337.73)
(-117918 965.219 -1865.22)
(-117077 1009.18 -1375.34)
(-116124 1048.09 -858.704)
(-115042 1080.92 -267.125)
(-113894 1104.82 482.325)
(-112778 1110.94 1462.25)
(-111850 1095.88 2761.14)
(-111022 1050.96 4725.75)
(-109679 972.169 7866.12)
(-108593 760.336 13254.4)
(-113594 334.659 18264.7)
(-124001 2083.15 37693.6)
(-59930.9 1520.93 9864.49)
(-116737 -24744.3 -16566.6)
(-106394 -28828.4 -11379)
(-99871.8 -27103.9 -24201.2)
(-93930.8 -20131 -32827.9)
(-90444.2 -9328.99 -39994.6)
(-96701.2 -2176.77 -42032.5)
(-113080 -34.8164 -34987.1)
(-125664 -693.187 -26109.1)
(-128075 -887.471 -21536.4)
(-126824 -586.129 -19714.6)
(-126303 -665.788 -18754.7)
(-126678 -552.346 -17520.1)
(-127277 -481.884 -16014.7)
(-127600 -459.72 -14727.3)
(-127746 -422.067 -13875.1)
(-128063 -382.141 -13165.2)
(-128606 -330.161 -12373.6)
(-129274 -274.937 -11672.2)
(-130037 -221.667 -11136)
(-130897 -181.066 -10750.2)
(-131697 -145.442 -10501.2)
(-132203 -132.878 -10543.1)
(-132209 -104.895 -10824)
(-131733 -49.8806 -11087.8)
(-131029 17.9573 -11046.2)
(-130318 55.5374 -10673)
(-129710 78.707 -10048.5)
(-129269 129.917 -9236.25)
(-128905 179.37 -8439.39)
(-128454 172.08 -7890.85)
(-128059 164.503 -7487.1)
(-127956 209.344 -6922.61)
(-128062 281.345 -6221.03)
(-128159 335.663 -5619.49)
(-128179 367.696 -5204.82)
(-128186 391.935 -4853.22)
(-128214 421.322 -4446.53)
(-128232 460.062 -3980)
(-128203 506.175 -3506.19)
(-128114 561.347 -3049.37)
(-127946 622.164 -2593.88)
(-127653 682.566 -2112.57)
(-127186 748.805 -1583.95)
(-126507 827.232 -1006.67)
(-125579 914.145 -375.171)
(-124344 1006.18 378.848)
(-122695 1101.31 1358.54)
(-120550 1204.91 2653.29)
(-117306 1321.98 4386.55)
(-112356 1476.15 7057.56)
(-105021 2025.77 11797.1)
(-106366 2393.03 14959.3)
(-114247 2832.43 45469.4)
(-43107.1 1237.54 28564)
(-112375 5693.35 94678.8)
(-103083 4750.64 100829)
(-101628 -2893.66 58833.3)
(-107002 -8865.95 14492.9)
(-111012 -8675.09 -27976.3)
(-99221.2 -4504.7 -58306.8)
(-107998 -1168.38 -49084.3)
(-123950 -245.127 -30518.3)
(-129714 522.368 -19917.9)
(-127237 204.846 -18863.6)
(-127363 -87.0831 -17811.6)
(-128547 40.2361 -17035.4)
(-129547 87.925 -15640)
(-130196 57.5847 -14366.1)
(-130660 46.7489 -13464.5)
(-131234 30.2691 -12648.6)
(-131912 26.7035 -11811.5)
(-132578 35.5924 -11090.8)
(-133278 51.6814 -10546.1)
(-134035 63.1474 -10124.5)
(-134744 81.3802 -9836.34)
(-135227 90.4303 -9770.64)
(-135335 118.03 -9881.38)
(-135018 166.907 -9940.07)
(-134374 236.843 -9747.75)
(-133597 302.434 -9293.47)
(-132896 363.811 -8597.67)
(-132364 423.553 -7766.99)
(-131885 447.688 -7087.78)
(-131468 432.475 -6545.64)
(-131353 452.342 -5816.36)
(-131447 510.797 -4967.65)
(-131477 571.229 -4268.58)
(-131471 628.659 -3658.89)
(-131455 677.323 -3066.91)
(-131414 708.777 -2525.85)
(-131376 741.215 -1961.34)
(-131295 785.618 -1316.57)
(-131141 836.794 -646.37)
(-130900 895.822 23.12)
(-130528 959.657 714.736)
(-129983 1021.55 1452.56)
(-129235 1087.26 2253.11)
(-128245 1163.03 3122.2)
(-126964 1245.07 4082.72)
(-125350 1329.07 5212.39)
(-123326 1412.38 6592.24)
(-120877 1501.88 8304.4)
(-117409 1602.37 10538.3)
(-112462 1728.64 13642.7)
(-105329 2172.86 18761.5)
(-104762 2467.38 22244.6)
(-112217 2938.22 42851.4)
(-27316.6 1065.51 20495.8)
(-111658 -18404.5 -6944)
(-100097 -20999.3 -1871.05)
(-92216 -18305.2 -13614)
(-90647.7 -11984.4 -25242.8)
(-91865.2 -4383.36 -30664.8)
(-101529 -538.859 -30357.4)
(-114271 104.926 -26507.5)
(-120360 -500.317 -22799.8)
(-121256 -702.454 -20408.7)
(-121534 -666.914 -18756.1)
(-122355 -684.086 -17603.8)
(-123264 -615.356 -16461.4)
(-124094 -549.721 -15270.7)
(-124709 -527.265 -14242.9)
(-125313 -500.457 -13397.2)
(-126098 -466.313 -12595.7)
(-127039 -434.799 -11796.4)
(-128054 -404.66 -11111)
(-129147 -388.958 -10596.7)
(-130288 -371.042 -10273.5)
(-131362 -369.675 -10211.6)
(-132132 -351.253 -10563.1)
(-132381 -300.994 -11225.1)
(-132070 -217.31 -11802.2)
(-131405 -139.66 -11873.1)
(-130708 -77.2786 -11391.9)
(-130131 4.53285 -10617.1)
(-129664 102.324 -9802.94)
(-129247 139.595 -9095.13)
(-128927 123.895 -8408.56)
(-128859 171.268 -7665.24)
(-128983 266.072 -6942.29)
(-129025 323.655 -6354.24)
(-128892 367.709 -5885.06)
(-128704 438.132 -5460.72)
(-128508 499.79 -5054.95)
(-128221 532.985 -4664.79)
(-127770 564.823 -4285.11)
(-127137 605.796 -3906.01)
(-126308 648.567 -3521.25)
(-125258 687.94 -3130.29)
(-123947 718.659 -2729.12)
(-122308 737.455 -2304)
(-120277 745.027 -1847.01)
(-117805 745.845 -1364.74)
(-114890 743.309 -841.962)
(-111502 733.325 -253.701)
(-107702 714.937 403.977)
(-102936 739.268 1270.04)
(-97211.6 726.345 2766.93)
(-92391.5 1269.24 5042.31)
(-80902.4 2496.88 6339.83)
(-118293 -2627.38 -4316.54)
(43479.4 -4246.07 8782.95)
(-113877 -3007.03 76720.6)
(-102695 -4634.42 83573.4)
(-96988.2 -8928.12 46824.1)
(-97308.8 -11784.6 5433.67)
(-93279.9 -8872.97 -33976.6)
(-96173 -1599.67 -48007.1)
(-112748 138.861 -32204.2)
(-120383 743.208 -21884.9)
(-121696 506.149 -18480.4)
(-122688 46.122 -17960.7)
(-124024 -43.5858 -16917)
(-125357 46.9605 -16140.6)
(-126527 67.4614 -15053.5)
(-127450 47.0883 -14000.2)
(-128320 33.3643 -13120.7)
(-129298 20.9759 -12282.9)
(-130329 10.4116 -11479.5)
(-131389 6.22585 -10793.3)
(-132520 -4.75523 -10257.4)
(-133718 -4.88448 -9874.64)
(-134885 -9.63016 -9729.86)
(-135796 10.5121 -9955.3)
(-136150 59.5014 -10508.4)
(-135779 137.07 -11033.5)
(-134878 213.405 -11139.9)
(-133847 279.203 -10724.3)
(-132906 360.653 -9959.99)
(-132005 455.735 -9151.31)
(-131122 490.633 -8532.89)
(-130481 467.659 -7866.94)
(-130127 503.84 -7001.37)
(-129740 595.218 -6216.7)
(-129230 665.829 -5690.31)
(-128724 728.098 -5245.68)
(-128155 802.231 -4786.76)
(-127482 858.629 -4349.23)
(-126754 894.662 -3929.31)
(-125932 934.279 -3513.71)
(-124974 979.406 -3093.88)
(-123878 1024.17 -2660.4)
(-122629 1065.57 -2202.92)
(-121197 1097.63 -1707.87)
(-119551 1116.6 -1165.84)
(-117654 1123.23 -573.075)
(-115498 1125.8 69.6168)
(-112964 1127.11 793.191)
(-109991 1122.42 1642.59)
(-106596 1114.1 2678.68)
(-102279 1154.68 4078.64)
(-96330.7 1161.63 6440.13)