/*--------------------------------*- C++ -*----------------------------------*\
| =========                 |                                                 |
| \\      /  F ield         | OpenFOAM: The Open Source CFD Toolbox           |
|  \\    /   O peration     | Version:  4.1                                   |
|   \\  /    A nd           | Web:      www.OpenFOAM.org                      |
|    \\/     M anipulation  |                                                 |
\*---------------------------------------------------------------------------*/
FoamFile
{
    version     2.0;
    format      ascii;
    class       volScalarField;
    location    "57";
    object      p;
}
// * * * * * * * * * * * * * * * * * * * * * * * * * * * * * * * * * * * * * //

dimensions      [0 2 -2 0 0 0 0];

internalField   nonuniform List<scalar> 
4432
(
100836
100837
100837
100839
100842
100845
100849
100853
100857
100863
100871
100879
100888
100896
100904
100911
100916
100920
100925
100937
100956
100975
100995
101017
101041
101066
101089
101107
101119
101128
101134
101137
101140
101145
101148
101140
101128
101132
101136
101134
101133
101136
101146
101157
101166
101181
101168
101177
101217
101227
101163
101088
101030
101058
100836
100837
100837
100839
100842
100845
100849
100852
100857
100863
100871
100879
100888
100896
100904
100911
100916
100920
100925
100937
100956
100976
100997
101018
101042
101068
101090
101106
101119
101129
101136
101139
101142
101143
101145
101140
101132
101128
101128
101133
101138
101142
101147
101150
101157
101189
101189
101178
101203
101214
101160
101109
101010
101035
100835
100835
100835
100837
100840
100843
100846
100850
100855
100861
100868
100876
100885
100895
100906
100917
100933
100951
100965
100977
100991
101008
101025
101041
101058
101074
101090
101106
101121
101134
101142
101146
101145
101141
101134
101122
101116
101118
101122
101129
101132
101133
101141
101153
101162
101172
101179
101188
101212
101220
101212
101182
100878
101167
100835
100835
100835
100837
100840
100843
100846
100850
100855
100861
100868
100876
100885
100895
100905
100917
100933
100951
100966
100978
100991
101007
101023
101039
101055
101071
101088
101104
101119
101131
101138
101139
101139
101140
101136
101126
101118
101117
101123
101131
101136
101137
101142
101154
101161
101171
101180
101186
101211
101223
101203
101193
100863
101162
100833
100834
100834
100836
100839
100842
100845
100849
100854
100859
100867
100875
100884
100894
100905
100916
100929
100940
100953
100969
100986
101004
101021
101038
101054
101073
101092
101110
101127
101143
101152
101157
101164
101165
101147
101122
101113
101121
101132
101144
101142
101133
101138
101150
101160
101168
101186
101196
101205
101197
101191
101171
101163
101299
100833
100834
100834
100836
100839
100842
100845
100849
100854
100859
100867
100875
100884
100894
100905
100916
100929
100940
100952
100968
100986
101004
101020
101036
101053
101071
101090
101108
101125
101141
101151
101153
101155
101156
101149
101130
101122
101124
101129
101137
101140
101135
101140
101153
101160
101166
101180
101196
101206
101204
101193
101159
101124
101320
100831
100831
100832
100834
100836
100839
100842
100846
100851
100856
100863
100872
100881
100891
100901
100912
100923
100933
100944
100963
100982
101000
101016
101033
101052
101075
101097
101118
101139
101159
101172
101186
101203
101195
101157
101106
101089
101106
101127
101152
101141
101122
101132
101146
101158
101168
101189
101200
101212
101210
101198
101193
101203
101192
100831
100831
100832
100834
100836
100839
100842
100846
100851
100856
100864
100872
100881
100891
100901
100912
100923
100933
100944
100962
100982
101000
101016
101032
101052
101074
101096
101117
101139
101158
101171
101183
101197
101190
101164
101127
101114
101119
101131
101141
101138
101128
101134
101144
101157
101169
101186
101204
101211
101214
101203
101197
101159
101168
100828
100829
100829
100831
100833
100836
100839
100843
100847
100853
100860
100868
100877
100887
100897
100907
100918
100928
100938
100953
100971
100989
101007
101026
101048
101075
101103
101129
101156
101178
101196
101218
101237
101235
101261
101077
101074
101093
101113
101151
101145
101117
101135
101149
101163
101174
101174
101185
101219
101240
101251
101201
101170
101307
100828
100828
100829
100831
100833
100836
100839
100843
100847
100853
100860
100868
100877
100887
100897
100907
100918
100928
100938
100952
100970
100989
101007
101026
101049
101076
101103
101129
101158
101181
101198
101215
101230
101220
101195
101130
101099
101105
101125
101151
101154
101129
101135
101143
101155
101168
101183
101201
101219
101233
101233
101230
101142
101263
100825
100825
100825
100827
100829
100832
100835
100839
100843
100849
100855
100863
100872
100881
100891
100901
100911
100921
100931
100944
100960
100978
100996
101015
101038
101067
101099
101130
101161
101189
101210
101234
101269
101441
101736
101204
101082
101081
101095
101101
101099
101143
101155
101156
101161
101174
101170
101181
101213
101246
101262
101205
101169
101293
100825
100825
100825
100827
100829
100832
100835
100839
100843
100849
100855
100863
100872
100881
100891
100901
100911
100921
100931
100944
100960
100978
100996
101016
101040
101068
101099
101128
101161
101190
101207
101221
101235
101281
101315
101170
101090
101089
101105
101128
101140
101140
101145
101150
101157
101164
101171
101186
101211
101235
101248
101205
101185
101331
100821
100821
100821
100823
100825
100828
100831
100834
100838
100843
100850
100858
100866
100875
100884
100894
100903
100913
100924
100936
100950
100967
100984
101002
101021
101050
101083
101115
101143
101169
101194
101231
101327
101744
101547
101462
101101
101087
101097
101101
101108
101148
101164
101162
101164
101174
101174
101178
101197
101230
101266
101246
101181
101267
100821
100821
100821
100823
100825
100828
100831
100834
100838
100843
100850
100858
100866
100875
100884
100894
100903
100913
100924
100936
100951
100968
100984
101003
101024
101052
101082
101110
101140
101168
101188
101209
101244
101337
101408
101214
101077
101077
101097
101108
101118
101137
101154
101161
101167
101170
101166
101172
101194
101222
101242
101223
101215
101271
100816
100816
100816
100818
100820
100823
100825
100828
100832
100837
100844
100851
100859
100868
100876
100885
100895
100905
100915
100927
100940
100955
100970
100985
101000
101021
101053
101081
101103
101119
101136
101161
101193
101303
101306
101153
101091
101087
101098
101108
101120
101136
101153
101160
101165
101176
101179
101173
101176
101201
101250
101257
101209
101279
100816
100816
100816
100818
100820
100823
100825
100828
100832
100837
100844
100851
100859
100868
100876
100885
100895
100905
100915
100927
100941
100955
100970
100987
101003
101025
101052
101075
101098
101121
101135
101153
101188
101226
101261
101164
101089
101088
101107
101122
101127
101132
101145
101155
101170
101177
101169
101163
101176
101209
101250
101247
101213
101291
100811
100811
100811
100812
100814
100817
100819
100822
100826
100831
100837
100844
100851
100859
100868
100877
100886
100896
100906
100918
100930
100942
100954
100965
100975
100987
101009
101032
101054
101074
101092
101110
101140
101164
101182
101124
101092
101096
101108
101113
101120
101128
101144
101162
101175
101183
101180
101166
101159
101178
101226
101246
101232
101303
100811
100811
100811
100812
100814
100817
100819
100822
100826
100831
100837
100844
100851
100859
100868
100877
100886
100896
100906
100918
100930
100942
100953
100965
100975
100989
101009
101030
101051
101071
101089
101110
101140
101164
101181
101151
101121
101113
101119
101130
101138
101138
101139
101151
101172
101182
101174
101159
101162
101191
101234
101241
101230
101323
100805
100805
100805
100806
100808
100810
100813
100815
100819
100823
100829
100835
100842
100850
100858
100867
100876
100886
100897
100907
100918
100927
100935
100941
100944
100948
100961
100985
101012
101038
101061
101087
101119
101145
101173
101163
101146
101138
101137
101140
101145
101147
101155
101174
101194
101203
101195
101174
101156
101165
101207
101241
101266
101303
100805
100805
100805
100806
100808
100810
100813
100815
100819
100823
100829
100835
100842
100850
100858
100867
100876
100886
100897
100907
100918
100927
100934
100939
100942
100947
100963
100987
101012
101037
101060
101086
101117
101150
101175
101173
101160
101153
101153
101157
101160
101156
101154
101166
101190
101203
101190
101168
101157
101168
101201
101231
101252
101318
100799
100799
100799
100800
100801
100803
100805
100808
100811
100815
100820
100826
100833
100840
100848
100856
100866
100876
100886
100897
100907
100914
100917
100914
100904
100899
100914
100946
100981
101012
101043
101076
101110
101145
101176
101187
101189
101192
101197
101201
101202
101200
101197
101200
101208
101220
101218
101193
101162
101157
101193
101229
101234
101172
100799
100799
100799
100800
100802
100803
100805
100808
100811
100815
100820
100826
100833
100840
100848
100856
100866
100876
100886
100897
100907
100914
100916
100912
100902
100898
100917
100949
100981
101011
101043
101077
101113
101147
101175
101187
101191
101198
101206
101213
101215
101211
101203
101200
101211
101223
101214
101186
101160
101158
101184
101218
101200
101173
100792
100792
100792
100793
100794
100796
100798
100800
100802
100806
100810
100816
100822
100829
100836
100845
100854
100865
100876
100889
100900
100907
100906
100889
100852
100831
100854
100899
100941
100978
101017
101059
101100
101139
101173
101200
101222
101244
101260
101267
101262
101251
101237
101226
101217
101221
101224
101210
101179
101160
101177
101211
101218
101189
100792
100792
100792
100793
100794
100796
100798
100800
100802
100806
100810
100816
100822
100829
100836
100845
100854
100865
100876
100888
100899
100906
100904
100887
100849
100831
100857
100901
100940
100977
101017
101059
101101
101139
101173
101200
101224
101246
101265
101273
101269
101257
101241
101226
101221
101226
101222
101200
101172
101161
101178
101207
101200
101237
100785
100785
100785
100786
100787
100788
100789
100791
100793
100796
100800
100805
100810
100816
100823
100832
100841
100852
100866
100881
100897
100908
100906
100874
100788
100745
100776
100840
100893
100938
100985
101034
101083
101130
101176
101222
101264
101299
101323
101327
101312
101286
101259
101238
101225
101222
101225
101220
101199
101176
101172
101184
101196
101172
100785
100785
100785
100786
100787
100788
100789
100791
100793
100796
100800
100805
100810
100816
100823
100832
100841
100852
100866
100881
100896
100907
100903
100866
100776
100741
100785
100846
100894
100938
100986
101035
101083
101130
101177
101223
101267
101303
101328
101330
101314
101287
101260
101239
101227
101225
101224
101211
101190
101173
101172
101182
101193
101162
100778
100778
100778
100778
100779
100780
100781
100782
100783
100786
100789
100793
100797
100803
100809
100817
100826
100838
100853
100873
100900
100929
100947
100893
100716
100584
100672
100777
100842
100893
100950
101007
101062
101119
101181
101247
101310
101358
101392
101390
101357
101312
101271
101244
101229
101224
101225
101222
101210
101190
101177
101176
101188
101169
100778
100778
100778
100778
100779
100780
100781
100782
100783
100786
100789
100793
100798
100803
100809
100817
100826
100838
100853
100873
100899
100928
100944
100883
100675
100597
100688
100776
100839
100894
100952
101008
101062
101119
101182
101246
101312
101359
101410
101405
101363
101310
101266
101239
101225
101223
101225
101220
101206
101187
101177
101177
101192
101164
100770
100770
100770
100770
100771
100771
100772
100772
100773
100775
100777
100780
100784
100788
100793
100800
100808
100819
100835
100858
100896
100964
101035
101041
100548
100253
100505
100718
100797
100842
100904
100969
101031
101098
101177
101264
101350
101405
101466
101465
101404
101327
101273
101241
101224
101217
101218
101219
101214
101201
101188
101181
101191
101170
100770
100770
100770
100770
100771
100771
100772
100772
100773
100775
100777
100780
100784
100788
100793
100800
100808
100819
100835
100858
100895
100961
101029
101017
100316
100411
100591
100726
100795
100851
100914
100975
101034
101099
101182
101273
101365
101388
101465
101469
101398
101320
101270
101242
101226
101219
101220
101219
101212
101199
101188
101183
101194
101170
100763
100763
100762
100762
100762
100762
100762
100762
100762
100763
100764
100766
100769
100772
100775
100780
100786
100795
100808
100827
100857
100905
101026
101305
100275
100503
100701
100765
100791
100845
100909
100973
101049
101147
101262
101385
101424
101489
101527
101450
101347
101283
101246
101222
101208
101205
101208
101210
101205
101197
101188
101193
101167
100763
100762
100762
100762
100762
100762
100762
100762
100762
100763
100764
100766
100769
100772
100775
100780
100786
100795
100808
100827
100856
100903
101022
101278
100223
100533
100696
100765
100806
100863
100922
100980
101052
101138
101274
101395
101378
101357
101498
101433
101341
101285
101250
101224
101209
101205
101207
101208
101203
101195
101188
101194
101171
100755
100755
100754
100754
100754
100753
100753
100752
100751
100751
100751
100752
100753
100754
100756
100758
100761
100766
100772
100781
100789
100786
100749
100679
100336
100387
100679
100792
100784
100776
100805
100843
100886
100955
101060
101181
101317
101346
101400
101565
101483
101376
101301
101251
101214
101191
101182
101185
101193
101198
101201
101197
101203
101167
100755
100755
100754
100754
100754
100753
100753
100752
100751
100751
100751
100752
100753
100754
100756
100758
100761
100766
100772
100781
100788
100784
100743
100659
100360
100442
100710
100800
100788
100787
100819
100856
100892
100947
100999
101176
101188
101420
101354
101362
101371
101335
101290
101249
101216
101193
101183
101185
101191
101196
101198
101194
101200
101171
100747
100747
100746
100746
100745
100744
100743
100742
100740
100739
100738
100737
100737
100736
100735
100735
100734
100734
100734
100731
100725
100706
100670
100594
100523
100534
100679
100749
100761
100772
100781
100782
100786
100833
100999
101177
101158
101357
101625
101415
101361
101328
101273
101224
101188
101164
101154
101156
101167
101181
101196
101203
101224
101184
100747
100747
100746
100746
100745
100744
100743
100742
100740
100739
100738
100737
100737
100736
100735
100735
100734
100734
100734
100731
100724
100705
100668
100592
100511
100541
100684
100752
100762
100773
100785
100788
100786
100807
100855
101090
100895
101244
101681
100742
101163
101299
101272
101225
101190
101169
101158
101158
101167
101180
101193
101200
101217
101178
100740
100740
100739
100738
100737
100736
100734
100732
100729
100727
100725
100722
100720
100717
100714
100711
100706
100702
100695
100686
100673
100651
100621
100577
100529
100526
100580
100643
100689
100717
100724
100704
100672
100663
100768
101032
102082
101154
100267
100655
101161
101288
101243
101189
101154
101135
101127
101128
101139
101156
101174
101184
101215
101172
100740
100739
100739
100738
100737
100736
100734
100732
100729
100727
100725
100722
100720
100717
100714
100711
100706
100701
100695
100686
100672
100651
100620
100576
100530
100534
100591
100649
100687
100710
100718
100703
100680
100593
100731
101059
101569
99294.1
99762.6
99368.3
100196
101112
101234
101191
101153
101135
101129
101132
101141
101155
101171
101182
101214
101184
100732
100732
100731
100730
100728
100727
100724
100722
100718
100715
100711
100708
100703
100698
100693
100686
100679
100670
100659
100645
100626
100602
100573
100538
100506
100497
100520
100559
100591
100611
100612
100593
100473
100528
100575
99518.1
98631.4
98101.5
98389.9
99185.9
100164
101044
101182
101126
101099
101091
101093
101100
101115
101136
101153
101157
101168
101111
100732
100732
100731
100730
100728
100727
100724
100722
100718
100715
100711
100708
100703
100698
100693
100686
100679
100670
100659
100644
100626
100602
100573
100539
100509
100503
100527
100562
100588
100602
100605
100596
100595
100617
100537
100069
101633
98671.6
98513.8
98776.4
99519.6
100538
101103
101133
101100
101085
101089
101101
101118
101136
101147
101146
101176
101151
100725
100725
100724
100722
100721
100718
100715
100712
100708
100703
100698
100693
100687
100680
100672
100663
100652
100639
100624
100606
100584
100558
100528
100498
100471
100456
100456
100464
100468
100472
100472
100497
100228
100429
100781
99988.9
97725.8
97682.2
98514.5
99195.8
99853.8
100692
101015
101028
101029
101036
101050
101068
101095
101133
101168
101181
101190
101196
100725
100725
100724
100722
100721
100718
100715
100712
100708
100703
100698
100693
100687
100680
100672
100663
100652
100639
100624
100606
100584
100558
100529
100499
100472
100458
100458
100464
100463
100461
100460
100507
100480
100543
100724
98817.7
98897.9
98057.8
98697.9
99281
99954.3
100608
100894
100988
101030
101036
101046
101067
101099
101134
101157
101167
101156
101105
100719
100718
100717
100715
100713
100710
100707
100703
100697
100692
100686
100679
100671
100662
100652
100640
100626
100610
100592
100570
100545
100516
100485
100452
100419
100390
100366
100345
100324
100321
100347
100599
100373
99411.3
99191.9
98319.6
97478.3
97999.3
98939.6
99653
100073
100478
100874
100935
100961
100980
100999
101023
101061
101118
101179
101217
101267
101282
100719
100718
100717
100715
100713
100710
100707
100702
100697
100692
100686
100679
100671
100662
100652
100640
100626
100610
100592
100570
100545
100516
100485
100452
100420
100391
100366
100343
100316
100293
100262
100328
100594
99726.3
95326.1
95469.9
97102.9
97977.5
99020.3
99776
100262
100510
100717
100885
100958
100984
100999
101024
101066
101123
101179
101212
101212
101220
100713
100712
100711
100708
100706
100703
100699
100694
100688
100681
100674
100666
100657
100646
100633
100619
100603
100584
100562
100537
100508
100475
100439
100398
100355
100309
100260
100210
100159
100136
100239
100451
100654
99457
96915.2
96630.1
97439.1
98419.8
99243.2
99703.7
99977.1
100182
100601
100846
100907
100930
100945
100970
101012
101066
101131
101186
101236
101211
100713
100712
100711
100709
100706
100703
100699
100694
100688
100681
100674
100666
100657
100646
100633
100619
100603
100584
100562
100537
100508
100475
100439
100399
100355
100309
100260
100208
100148
100101
100024
100272
100413
99185
95905.6
96365.2
97466.5
98496.3
99311.4
99765.1
100069
100259
100516
100793
100895
100930
100948
100973
101014
101070
101141
101200
101250
101264
100707
100707
100705
100702
100700
100696
100692
100686
100679
100672
100663
100654
100643
100631
100616
100600
100581
100559
100534
100506
100473
100435
100392
100342
100286
100222
100148
100055
99958.2
99755.8
100023
100207
100267
90330.6
92531.8
96016.5
97842.5
98971.4
99418.5
99477.6
99665.3
100010
100416
100720
100822
100871
100893
100918
100956
101003
101082
101149
101208
101248
100707
100707
100705
100702
100700
100696
100692
100686
100679
100672
100663
100654
100643
100631
100616
100600
100581
100559
100534
100506
100473
100435
100392
100342
100286
100222
100147
100058
99951.9
99812.7
99721.6
99792.5
97479.7
95998.4
95938.7
96882.6
98157.8
99130.5
99473.6
99465
99678.4
100070
100432
100690
100810
100867
100896
100922
100958
101002
101078
101155
101189
101145
100702
100702
100700
100697
100694
100690
100685
100679
100671
100663
100654
100643
100631
100617
100601
100583
100562
100537
100510
100477
100440
100397
100347
100287
100218
100135
100035
99904
99737.3
99419.9
98935.7
100261
96174.9
91977.6
94792.6
97580.6
99360.4
100056
99798.5
99382.2
99480.8
99870
100271
100568
100722
100808
100845
100871
100900
100938
101007
101079
101146
101231
100702
100702
100700
100697
100694
100690
100685
100679
100671
100663
100654
100643
100631
100617
100601
100583
100562
100538
100510
100478
100440
100397
100347
100287
100218
100134
100034
99914.4
99748
99506.2
99205.5
98864.3
96025.7
93573.7
96019
98106.8
99639.2
100208
99832.1
99339.5
99463.4
99930.2
100322
100555
100705
100800
100845
100878
100903
100929
100990
101057
101108
101216
100698
100697
100695
100693
100689
100685
100679
100673
100665
100656
100645
100634
100621
100606
100588
100568
100545
100519
100488
100453
100411
100363
100305
100237
100154
100054
99929.8
99772.3
99557.5
99258
98690.8
98426.4
100075
100426
99772.9
100527
101435
101290
100241
99290.5
99257.2
99682.2
100120
100453
100647
100756
100816
100837
100855
100857
100823
100826
100984
101233
100698
100697
100695
100693
100689
100685
100679
100673
100665
100656
100645
100634
100621
100606
100588
100568
100545
100519
100488
100453
100411
100363
100305
100237
100154
100053
99922.8
99775.2
99587.4
99344.2
99041.1
98341.7
97014
97540.4
99152.7
100680
101678
101415
100251
99242.6
99230.6
99724.3
100160
100444
100629
100747
100811
100843
100862
100862
100825
100749
100886
101172
100695
100694
100692
100689
100685
100681
100675
100668
100659
100650
100639
100626
100612
100596
100578
100556
100531
100503
100470
100432
100387
100334
100270
100194
100101
99986.4
99845.1
99668.9
99428.9
99123.6
98621.6
98004.4
98235.6
99655
99861
100698
101719
101548
100372
99137.5
99035.1
99540.7
100075
100419
100601
100717
100815
100851
100871
100834
100743
100689
100702
101108
100695
100694
100692
100689
100685
100681
100675
100668
100659
100650
100639
100627
100612
100596
100578
100556
100532
100503
100470
100432
100387
100334
100270
100193
100100
99980.5
99842.9
99669.6
99436.1
99149.3
98871.3
97712.2
97224.6
98557.7
99853.7
101181
101938
101556
100385
99170.3
99006.9
99543
100093
100428
100601
100711
100801
100848
100893
100896
100830
100672
100514
101014
100692
100691
100689
100686
100682
100677
100671
100664
100655
100645
100634
100621
100606
100589
100569
100547
100521
100491
100456
100415
100368
100311
100242
100160
100060
99937.5
99786.6
99594.1
99342.7
99019.4
98620.8
97980
97588.3
98150.9
97795.5
99084.2
100374
100772
100324
99483.8
99271.5
99698.1
100175
100497
100627
100729
100830
100867
100890
100859
100859
100774
100342
100928
100692
100691
100689
100686
100682
100677
100671
100664
100655
100645
100634
100621
100606
100589
100569
100547
100521
100491
100456
100416
100368
100311
100242
100160
100060
99936.7
99792.9
99599.4
99336.5
99012.4
98578.3
97919.5
97584
98178.4
99040
99846.6
99952.1
100234
100101
99573.3
99325.7
99667.3
100162
100510
100650
100725
100812
100867
100912
100925
101002
100942
100299
100792
100691
100690
100688
100684
100680
100675
100669
100661
100652
100642
100630
100617
100602
100584
100564
100541
100514
100483
100447
100404
100354
100295
100223
100137
100032
99903.4
99744.3
99544.2
99289.8
98966.9
98584.8
98068.3
97575.4
96936.4
96094.5
96308.4
95668.1
95808.2
96415.6
97889.9
98953.1
99850.9
100315
100597
100743
100834
100887
100899
100907
100917
101039
100994
100224
100607
100691
100690
100688
100684
100680
100675
100669
100661
100652
100642
100630
100617
100602
100584
100564
100541
100514
100483
100447
100405
100354
100295
100223
100137
100032
99903.7
99746.4
99550.8
99291.5
98957.9
98600
98083.2
97597.8
97440.6
96962.5
96047.8
94993.5
95256
96076
97694.9
99030.4
99857.6
100311
100592
100740
100833
100884
100904
100911
100943
101154
101236
100372
100630
100689
100688
100686
100683
100679
100674
100668
100660
100651
100640
100628
100615
100599
100582
100561
100538
100510
100479
100442
100399
100348
100287
100213
100125
100017
99885.1
99722.1
99518.8
99264.1
98945.9
98557.3
98057.3
97429.8
96830.4
96215.8
94931.9
92718.4
92033.2
92960.1
95306.6
97680.5
99200.4
99977.1
100372
100649
100826
100889
100897
100890
100900
100904
100737
100362
100571
100689
100688
100686
100683
100679
100674
100668
100660
100651
100640
100628
100615
100599
100582
100561
100538
100510
100479
100442
100399
100348
100287
100213
100125
100017
99885.2
99722.6
99521
99266.4
98949.7
98578.6
98122.8
97610.6
96893.2
95587.1
93940.2
92687
92209.9
93036.1
95171.3
97583.4
99198.3
99979.8
100361
100620
100812
100894
100899
100893
100914
100941
100803
100435
100565
100642
101025
100449
101435
101433
100444
100371
100445
100340
100220
100410
101011
100399
101441
101393
100440
100235
100388
100199
100228
101298
100758
100421
100723
100318
100405
100242
100407
100205
100293
100175
101275
100711
100302
100708
100280
100211
100235
100266
100210
100245
100281
100816
100888
100803
100942
100826
100931
100803
100645
100695
100627
100635
100547
100605
100521
100788
100877
100779
100919
100759
100914
100732
100616
100667
100616
100527
100479
100480
100456
101103
101033
101098
101083
101236
101083
101238
100468
100587
100523
100581
100494
100359
100325
100435
100226
100251
100187
100250
101089
101025
101087
101080
101222
101073
101225
100037
100486
100270
100340
100278
100490
100436
100522
100194
100307
100255
100388
101111
101025
101116
100889
100875
100887
100866
100542
101316
101001
100998
100603
100284
100364
100299
100210
100299
100244
100336
100227
100348
101109
101018
101110
100881
100855
100880
100855
100487
101281
101006
100490
100994
100215
100222
100343
100271
100406
100276
100387
100334
100431
100513
100670
100505
100631
100521
100632
100525
100135
100342
100218
100419
100395
100427
100424
100507
100656
100505
100632
100530
100632
100532
100295
100361
100316
100435
100429
100436
100425
100913
100836
100619
100828
100961
100902
100591
100762
100809
100904
101273
101357
101446
101363
101292
101065
101113
101276
101356
101444
101362
101263
101063
101048
100412
100494
100537
100548
100336
100456
100473
100439
100324
100305
100305
100456
100419
100326
100414
100259
100243
100269
100318
100809
100722
100434
100733
100970
100868
100404
100709
100705
100846
101279
101323
101416
101209
101361
101132
100977
101251
101354
101410
101347
101261
101059
101050
99999.6
100232
100284
100289
99983.7
100098
100285
100236
100251
100204
100309
100256
100051
100039
100216
100227
100210
100247
100185
100239
100306
100526
101312
101000
100991
100512
100209
100165
100293
100523
100394
100512
100347
100267
100357
100463
100180
100494
100328
100362
100388
100326
100397
100229
100211
100270
100287
100211
100244
100219
100284
100383
100384
100361
100334
100249
100343
100300
100248
100331
100129
100141
100497
101280
100974
100981
100511
100159
100198
100098
100444
100282
100141
100427
100134
100294
100425
100438
100199
100207
100210
100192
100225
100190
100171
100244
100209
100223
100225
100212
100239
100225
100283
100234
100245
100264
100194
100247
100273
100245
100246
101109
100972
101037
101180
100966
101180
101117
101070
100928
101008
101152
100911
101092
101154
101101
101030
100940
101170
100954
101176
101099
100501
100541
100447
100336
100524
100324
100513
100453
100441
100488
100324
100492
100311
100399
101079
101018
100926
101184
100926
101174
101075
100330
100471
100409
100350
100389
100388
100342
100292
100392
100348
100294
100349
100317
100268
100689
100832
100686
100751
100823
100681
100700
100662
100803
100741
100635
100811
100627
100666
100261
100286
100266
100165
100219
100230
100315
100191
100168
100152
100238
100166
100186
100218
100580
100792
100611
100701
100592
100774
100596
100594
100786
100706
100607
100781
100607
100606
100192
100173
100256
100251
100192
100183
100256
100196
100228
100269
100274
100209
100246
100220
100528
100550
100434
100494
100567
100484
100489
100344
100267
100234
100344
100331
100147
100201
100280
100526
100498
100560
100502
100571
100508
100501
99989.1
100209
100120
99623
100293
99872
99752.9
99763.4
99609.4
99756.4
99674.4
100131
100205
100468
99958.8
100215
100393
99877.2
99661
99596.5
99665
99559.1
100974
100728
100791
100560
100739
100960
100809
101183
101449
101457
101194
101174
101435
101441
101160
100987
100562
100784
100807
100759
100815
100981
100329
100364
101079
100695
100490
100793
100777
100963
100793
101278
101467
101299
101209
101276
101480
101367
101083
101108
100493
100785
100758
101000
100787
100806
100208
100220
100519
100859
100505
100928
100876
100487
100532
100391
100312
100277
100408
100363
100183
100231
100326
100521
100931
100874
100569
100878
100536
100573
100419
100845
100473
100886
100459
100824
100434
100202
99902.2
99951.6
100323
100245
100151
100302
100094
100430
100880
100839
100303
100819
100446
100561
101500
101326
101485
101274
101325
101485
101497
101560
101536
101547
101544
101553
101531
101536
101546
101508
101286
101328
101492
101331
101496
101486
101073
101084
101500
101326
101289
101489
101326
101499
101485
101555
101542
101527
101525
101504
101296
101346
101493
101328
101484
101496
101550
101541
101553
101531
101069
101071
100343
100497
100356
100373
100416
100460
100269
100046
99710.7
99852.1
99890.9
100128
100090
100206
100028
100316
100326
100484
100120
100290
100429
100205
100470
100469
100361
100418
100369
100448
100434
100374
100353
100361
100408
100411
100367
100339
100359
100325
100387
100377
100452
100441
100388
100444
100388
100381
100381
100342
100323
100390
100383
100348
100378
100324
100342
100270
100252
100275
100266
100318
100349
100337
100313
100355
100331
100316
100279
100311
100287
100287
100355
100748
100786
100266
100769
100346
100251
100051
99748.1
99801
100104
100287
100893
100850
100605
100789
100406
100387
100160
99826.5
99877.1
100138
100238
100741
100388
100839
100259
100738
100341
100005
99787.9
99730.4
100054
100002
99756.2
100043
99715.1
100246
100774
100741
100333
100731
100276
100323
101563
101319
101345
101632
101287
101508
101564
101955
101538
101366
101462
101479
101311
101356
101690
101271
101483
101467
101662
101690
101402
101646
101185
101146
101606
101311
101622
101253
101279
101495
101576
101611
101501
101572
101521
101590
101574
101593
101568
101587
101266
101290
101586
101245
101649
101458
101120
101072
99925.4
100192
99580.3
99999.7
99867.5
100224
99605.1
99563
99649.3
99562.4
99644.2
99574.4
99558.9
99547.2
99539.3
99879.9
99991.6
100155
99597.1
100188
99600.1
99889.2
100168
100237
100249
100245
100284
100247
100289
100264
100241
100268
100239
100267
100242
100283
100272
100322
100306
100297
100312
100286
100246
100228
100236
100233
100032
100049
100214
100273
100227
100184
100245
100240
100199
100227
100237
100234
100247
100228
100223
100234
100225
100201
100181
100231
100215
100227
100203
100217
100251
100252
100965
100736
100775
100528
100952
100753
100783
101166
101439
101160
101429
101169
101442
101161
101441