/*--------------------------------*- C++ -*----------------------------------*\
| =========                 |                                                 |
| \\      /  F ield         | OpenFOAM: The Open Source CFD Toolbox           |
|  \\    /   O peration     | Version:  4.1                                   |
|   \\  /    A nd           | Web:      www.OpenFOAM.org                      |
|    \\/     M anipulation  |                                                 |
\*---------------------------------------------------------------------------*/
FoamFile
{
    version     2.0;
    format      ascii;
    class       surfaceScalarField;
    location    "57";
    object      phi;
}
// * * * * * * * * * * * * * * * * * * * * * * * * * * * * * * * * * * * * * //

dimensions      [0 3 -1 0 0 0 0];

internalField   nonuniform List<scalar> 
11516
(
9.98753e+06
161.489
9568.42
9.9692e+06
289.578
20752.4
9.94114e+06
393.193
30510.7
9.90386e+06
420.235
39786.6
9.8573e+06
445.53
49055.8
9.80112e+06
461.213
58547.7
9.73492e+06
435.442
68402.2
9.65836e+06
382.208
78643.8
9.57125e+06
344.694
89186.9
9.47343e+06
342.953
100058
9.36528e+06
405.557
110760
9.24803e+06
523.872
120368
9.12387e+06
561.571
127912
8.99758e+06
479.281
130381
8.879e+06
-1105.08
123591
8.78275e+06
-2357.12
101364
8.72573e+06
-710.151
59580.1
8.71704e+06
-101.276
9730.75
8.71673e+06
372.294
626.759
8.67987e+06
1461.4
36069.4
8.61065e+06
-1135.08
71027.7
8.51032e+06
-5024.07
106162
8.3865e+06
-8220.22
133001
8.24724e+06
-10856.6
151254
8.09493e+06
-12840.9
166459
7.94974e+06
-14265.4
161014
7.82514e+06
-11677.5
138289
7.72812e+06
-6196.61
105562
7.6588e+06
-4759.25
76502.8
7.61583e+06
-7557.2
52983.3
7.58438e+06
-12696.7
46924.8
7.5333e+06
-18319.3
71742.4
7.46806e+06
-17649.8
84493.9
7.43214e+06
-4222.09
41017.9
7.46703e+06
11059.2
-42746
7.5174e+06
14772.1
-64916.4
7.53272e+06
12800
-28416.4
7.52347e+06
4702.62
4038
7.49685e+06
806.308
17427.3
7.48043e+06
4931.72
-1366.04
7.48433e+06
9716.88
-32725.1
7.46209e+06
12548.9
-25497.1
7.40216e+06
10753.1
8619.73
7.32453e+06
10109.2
37186.7
7.24872e+06
656.088
50457.5
7.19842e+06
-4978.56
32168.1
7.15305e+06
6755.94
40924.8
7.15942e+06
12056.9
-9999.57
7.16328e+06
23407.5
-31690.9
7.22087e+06
8311.29
-92549.3
7.34833e+06
8069.37
-137562
7.51073e+06
-5153.44
-219687
7.72561e+06
45393.5
-187868
94536.6
-402247
9.98776e+06
9570.52
9.96917e+06
20764.6
9.94101e+06
30523.8
9.90366e+06
39789.2
9.85706e+06
49056.8
9.80089e+06
58572.5
9.7347e+06
68448.8
9.65813e+06
78710.7
9.57097e+06
89265.1
9.47312e+06
100101
9.36495e+06
110767
9.24774e+06
120286
9.12323e+06
127923
8.99561e+06
130886
8.87176e+06
125113
8.77023e+06
100975
8.71523e+06
55628.6
8.71405e+06
1931.55
8.71977e+06
-4697.13
8.68532e+06
36416.6
8.61639e+06
68330.7
8.51715e+06
94812.1
8.39323e+06
116365
8.25017e+06
132974
8.08968e+06
148564
7.93427e+06
142314
7.79904e+06
125026
7.68859e+06
105952
7.60498e+06
80784.1
7.55607e+06
43737.5
7.53822e+06
7550.65
7.52361e+06
-1611.15
7.49791e+06
9920.69
7.47667e+06
18030
7.49956e+06
-10744.8
7.53848e+06
-21898
7.55465e+06
-1911.4
7.54679e+06
8294.01
7.53012e+06
8053.47
7.51851e+06
1389.45
7.51204e+06
-3199.35
7.48326e+06
16107.8
7.42535e+06
48608.8
7.34221e+06
68510.2
7.24608e+06
82557.8
7.17555e+06
58727.5
7.12746e+06
56583.8
7.10125e+06
45455.7
7.10245e+06
-10473.4
7.23377e+06
-85751.9
7.32182e+06
-159331
7.55932e+06
-201231
7.74309e+06
-100610
-313704
1.00064e+07
164.588
5586.15
1.00144e+07
289.049
15234.2
1.00226e+07
396.166
24856.4
1.00304e+07
434.381
34535
1.00377e+07
475.435
44412.2
1.00442e+07
504.943
54621.4
1.00498e+07
496.222
65257
1.00546e+07
459.599
76194.2
1.00581e+07
423.358
88093.3
1.00602e+07
414.479
100233
1.00605e+07
437.149
112921
1.00577e+07
474.248
125677
1.00499e+07
617.062
138445
1.0033e+07
748.967
149894
9.99401e+06
1985.63
163789
9.92138e+06
2244.98
174404
9.79218e+06
2874.75
189034
9.59463e+06
1622.01
206861
9.37508e+06
-855.768
221500
9.18069e+06
-1234.91
231982
9.01214e+06
231.281
239601
8.86823e+06
1787.75
248531
8.73795e+06
3058.2
260470
8.61179e+06
4180.12
273517
8.49121e+06
4759.94
282639
8.37119e+06
5412.3
276174
8.24895e+06
6147.62
255253
8.11448e+06
7885.77
233362
7.9768e+06
12089.1
203431
7.84644e+06
15460.9
169316
7.7203e+06
19588.6
154879
7.60911e+06
24262.5
159714
7.53437e+06
22342.3
137933
7.50406e+06
13585.9
59143.1
7.52254e+06
3019.49
-62441
7.53383e+06
-11013.5
-61468.4
7.51265e+06
-23569.4
17206.3
7.47117e+06
-32599.2
68112
7.41398e+06
-31377.6
93477.9
7.37404e+06
-20224.5
45631.9
7.3478e+06
-22351.6
3469.22
7.28853e+06
-33545.2
50284
7.21767e+06
-40887.7
100257
7.15469e+06
-44850.7
120245
7.10328e+06
-47149.8
127405
7.05786e+06
-46844.4
111666
7.02625e+06
-45973.1
111907
6.97465e+06
-33292.3
80025.6
6.93051e+06
-46603.9
58040.5
6.92943e+06
-75339.4
-25867.3
6.82947e+06
-25882.9
-14227.2
6.82864e+06
33150.8
-208845
7.36211e+06
113840
-758369
30901.7
-1.02922e+06
1.00066e+07
5584.24
1.00144e+07
15231.7
1.00225e+07
24851.8
1.00302e+07
34525.6
1.00375e+07
44398
1.0044e+07
54608.1
1.00497e+07
65251.7
1.00546e+07
76204.1
1.00581e+07
88128.5
1.00602e+07
100284
1.00604e+07
112974
1.00575e+07
125763
1.00499e+07
138373
1.00338e+07
150019
1.0002e+07
161166
9.93527e+06
172346
9.80322e+06
192699
9.60136e+06
206185
9.3758e+06
220315
9.18189e+06
229255
9.01623e+06
234366
8.87256e+06
240437
8.74326e+06
248923
8.61884e+06
261808
8.50163e+06
270840
8.38493e+06
264960
8.26461e+06
252327
8.13981e+06
239758
8.01894e+06
215210
7.90751e+06
172523
7.78651e+06
149857
7.6587e+06
151784
7.5624e+06
129768
7.53639e+06
59663.3
7.558e+06
-27532.8
7.58044e+06
-53540.1
7.58035e+06
-28323.2
7.54826e+06
-2047.3
7.50304e+06
6221.3
7.48832e+06
-18453.2
7.49519e+06
-44949.6
7.47011e+06
-9080.95
7.42574e+06
31505.1
7.38746e+06
47348.9
7.35508e+06
51727.5
7.32552e+06
25971.5
7.30909e+06
24109.5
7.28986e+06
29594
7.25953e+06
-25797.5
7.17325e+06
-88232.2
7.08378e+06
-88743.5
7.22075e+06
-252969
7.6168e+06
-354648
-1.00796e+06
9.99938e+06
163.084
7166.57
9.9959e+06
286.706
21126.7
9.98811e+06
391.324
35085.2
9.97613e+06
429.596
49051.7
9.95993e+06
474.901
63166.3
9.93952e+06
512.893
77555.2
9.91512e+06
509.819
92114
9.88623e+06
470.697
107497
9.85375e+06
421.784
122942
9.81711e+06
384.75
139252
9.77683e+06
371.569
155598
9.73269e+06
399.103
172316
9.6842e+06
461.806
189558
9.62955e+06
646.734
207258
9.57094e+06
715.107
225566
9.50019e+06
1278.31
248294
9.42148e+06
1032.86
270930
9.33956e+06
1294.65
288335
9.2434e+06
970.753
316979
9.13306e+06
710.495
341723
9.01292e+06
1020.43
358857
8.89147e+06
1620.12
368597
8.77104e+06
2512.5
378683
8.65002e+06
4071.35
390773
8.52622e+06
4733.84
402076
8.39684e+06
5990.43
400105
8.2561e+06
8763.75
388074
8.09597e+06
12401.9
382277
7.91914e+06
15205.5
366547
7.72286e+06
14555.2
352777
7.49553e+06
13600.4
370433
7.26734e+06
20246.2
369392
7.07007e+06
40109
297049
6.9466e+06
62942.1
120978
6.96298e+06
53552.7
-131445
6.9986e+06
3088.06
-100623
6.96288e+06
-37132.3
82702.7
6.88657e+06
-50589.4
178382
6.79627e+06
-38595.3
208808
6.78629e+06
-4029.51
52855.1
6.80212e+06
-11609.5
-5161.42
6.77097e+06
-37523.7
108435
6.70481e+06
-49081
193691
6.64236e+06
-48898.3
210337
6.57693e+06
-45429.5
207350
6.50199e+06
-38262.2
191141
6.47931e+06
-42415.7
158760
6.47516e+06
-39748.3
119670
6.48364e+06
-54798.1
118766
6.50364e+06
-49604
17590
6.61592e+06
-18734
-100954
6.65712e+06
14780.2
-234553
6.2643e+06
28498.7
-355808
16909.2
-809187
9.99961e+06
7164.28
9.99588e+06
21119
9.988e+06
35072.8
9.97595e+06
49034.6
9.95973e+06
63146.4
9.93936e+06
77535.4
9.91502e+06
92097.5
9.88615e+06
107486
9.85365e+06
122939
9.81694e+06
139256
9.7766e+06
155604
9.73245e+06
172315
9.68392e+06
189525
9.62979e+06
207208
9.56891e+06
225565
9.49827e+06
247678
9.4224e+06
272474
9.33827e+06
292381
9.24322e+06
316471
9.13497e+06
338275
9.01663e+06
353830
8.89693e+06
361944
8.77777e+06
370853
8.65506e+06
388863
8.52968e+06
401277
8.39979e+06
401329
8.26111e+06
400472
8.11114e+06
403130
7.94803e+06
395054
7.75761e+06
379484
7.53285e+06
389920
7.31572e+06
390875
7.15885e+06
329028
7.10075e+06
181118
7.1518e+06
-25647.9
7.18279e+06
-85939.3
7.17141e+06
-66918.9
7.12654e+06
-26620
7.06246e+06
17327.1
7.03917e+06
-9277.24
7.03552e+06
-59661
6.97539e+06
-758.848
6.89178e+06
42925.6
6.81592e+06
44396
6.74356e+06
48002.1
6.67683e+06
29646.3
6.6287e+06
17039.7
6.60988e+06
10957
6.56495e+06
-24257.1
6.56969e+06
-129926
6.67332e+06
-195481
6.73242e+06
-291749
6.52621e+06
-73188.6
-805313
9.99902e+06
160.436
9162.93
9.99556e+06
279.585
26953.6
9.98801e+06
381.816
45009.9
9.9763e+06
417.201
63208.8
9.96023e+06
459.074
81703.9
9.93977e+06
494.415
100439
9.91413e+06
489.618
120112
9.88375e+06
449.745
140179
9.84825e+06
400.674
160701
9.80767e+06
364.747
182103
9.76156e+06
353.671
204024
9.70944e+06
382.88
226895
9.65113e+06
438.715
250585
9.58658e+06
609.246
275024
9.51486e+06
707.291
301197
9.43792e+06
1303.29
329662
9.35239e+06
625.232
360447
9.25835e+06
367.729
383753
9.1691e+06
816.316
405666
9.08e+06
1093.52
429793
8.98333e+06
1357.82
454326
8.87761e+06
1312.83
473341
8.75808e+06
1182.25
497480
8.62612e+06
1504.07
521687
8.483e+06
922.02
544663
8.32506e+06
696.42
557814
8.14614e+06
2899.52
564669
7.93525e+06
5375.91
588581
7.67605e+06
4525.91
622515
7.36536e+06
5384.2
659743
7.04132e+06
7863.06
688110
6.75004e+06
13056.2
648915
6.52869e+06
25333.9
493662
6.45629e+06
44982.8
149031
6.55855e+06
37821.4
-272498
6.63311e+06
-51671.9
-126484
6.55538e+06
-130555
279056
6.43287e+06
-182476
459925
6.32913e+06
-173783
476930
6.3566e+06
-83231.4
105257
6.3797e+06
-31216.8
1329.98
6.33792e+06
-51526.1
194010
6.25126e+06
-55847.3
305266
6.16503e+06
-50854.2
296497
6.0835e+06
-49573.2
285100
5.98841e+06
-54866.7
284418
5.92405e+06
-61280.4
255892
5.9178e+06
-34075.1
162272
5.90241e+06
-31675.4
197104
5.94954e+06
-49869.2
73910.2
6.08337e+06
-38734.9
-116081
6.12336e+06
-19567.9
-208702
6.1152e+06
-25915.6
-297633
199103
-373316
9.99925e+06
9162.81
9.99554e+06
26949.8
9.9879e+06
44997.9
9.97612e+06
63194.9
9.96003e+06
81691.2
9.93961e+06
100426
9.91403e+06
120093
9.88367e+06
140151
9.84815e+06
160663
9.8075e+06
182056
9.76132e+06
203972
9.70915e+06
226834
9.65082e+06
250533
9.58638e+06
274931
9.51492e+06
301166
9.43853e+06
329469
9.35372e+06
361067
9.25831e+06
389304
9.16985e+06
406005
9.08138e+06
427932
8.98488e+06
451856
8.87723e+06
471219
8.75492e+06
494680
8.62247e+06
523091
8.47961e+06
545369
8.31825e+06
563761
8.13433e+06
587739
7.92235e+06
621149
7.66979e+06
653159
7.37276e+06
683064
7.0702e+06
701462
6.79964e+06
675522
6.58544e+06
568858
6.50531e+06
306278
6.6248e+06
-108046
6.70133e+06
-223452
6.69417e+06
-207020
6.60749e+06
-138334
6.51104e+06
-72124.6
6.53779e+06
-124894
6.54524e+06
-100591
6.4836e+06
-2512.82
6.3793e+06
59976.1
6.28199e+06
54006.9
6.18946e+06
52543.2
6.08776e+06
44143.4
6.00199e+06
31201.3
5.99304e+06
-3233.13
5.9888e+06
-16764.1
6.0178e+06
-150165
6.03989e+06
-251295
6.07831e+06
-293571
6.25111e+06
-254674
-527749
9.99905e+06
159.257
11123.2
9.99563e+06
276.995
32691.9
9.98824e+06
377.096
54738.1
9.97678e+06
410.408
77078
9.96108e+06
450.096
99821.5
9.94095e+06
483.619
122928
9.91621e+06
477.932
147106
9.88692e+06
438.281
171640
9.85251e+06
390.753
197210
9.81299e+06
357.478
223704
9.76817e+06
350.885
251005
9.71776e+06
378.258
279620
9.66191e+06
451.773
309106
9.59997e+06
579.411
340271
9.53205e+06
806.759
373219
9.45856e+06
1047.47
408320
9.37641e+06
1800.87
446970
9.27649e+06
1286.17
486511
9.17278e+06
512.863
509768
9.0688e+06
1722.31
532498
8.96511e+06
2458.35
555818
8.85253e+06
1826.81
584522
8.72187e+06
572.987
628060
8.56998e+06
-281.124
674443
8.39832e+06
-3065.95
720062
8.19658e+06
-4264.94
764596
7.96372e+06
-1417.36
799867
7.69879e+06
1345.29
853043
7.39528e+06
77.8644
926909
7.06516e+06
-26.3391
990930
6.74388e+06
3675.39
1.00669e+06
6.45286e+06
12223.4
928581
6.22586e+06
25402.1
696955
6.12661e+06
53139.2
196048
6.23298e+06
114223
-491873
6.08909e+06
-61171.1
75696.5
6.07055e+06
-180894
466751
6.01016e+06
-202245
705721
5.82891e+06
-229850
879444
5.83045e+06
-70195.5
172085
5.82827e+06
-26736.3
30065.8
5.74965e+06
-81602.4
348819
5.6888e+06
-81148.2
420107
5.59736e+06
-76304.9
422218
5.50905e+06
-80188.7
387783
5.44069e+06
-78933.7
363836
5.38261e+06
-67069.4
330669
5.25103e+06
-9910.9
289409
5.1734e+06
-15391.1
312497
5.28595e+06
-43736.9
124914
5.26262e+06
-3853.64
-25737
5.22451e+06
56650.1
-165880
5.21646e+06
-10137.4
-233864
66202.1
-318660
9.99928e+06
11120.1
9.99561e+06
32682.2
9.98813e+06
54726
9.9766e+06
77066
9.96088e+06
99810.2
9.94078e+06
122914
9.91611e+06
147084
9.88683e+06
171606
9.8524e+06
197163
9.81283e+06
223645
9.76793e+06
250940
9.71747e+06
279554
9.66163e+06
309051
9.59972e+06
340210
9.53209e+06
373216
9.45845e+06
408273
9.3785e+06
446829
9.2847e+06
486911
9.17945e+06
512933
9.07223e+06
537558
8.96464e+06
562320
8.84409e+06
593866
8.70786e+06
631835
8.55728e+06
673801
8.38283e+06
717281
8.17685e+06
766138
7.95094e+06
812808
7.69818e+06
875874
7.41066e+06
941465
7.09737e+06
997116
6.79145e+06
1.01183e+06
6.5243e+06
955454
6.33923e+06
780328
6.31217e+06
388172
6.49368e+06
-170056
6.67113e+06
-456410
6.72541e+06
-445726
6.67505e+06
-297961
6.51437e+06
-144069
6.41102e+06
-91136
6.29843e+06
-15127.7
6.16247e+06
49041
6.05586e+06
71688.1
5.94967e+06
53174.9
5.84563e+06
40455.3
5.73599e+06
43194.5
5.64621e+06
32139.2
5.60109e+06
27918
5.56415e+06
31702.7
5.44141e+06
-63311.5
5.33051e+06
-113905
5.4183e+06
-298205
5.43046e+06
-312704
-482866
9.99908e+06
155.71
13020.1
9.99574e+06
268.177
38299
9.98858e+06
366.998
64190.9
9.97753e+06
400.284
90481.2
9.96254e+06
438.274
117179
9.94307e+06
468.039
144666
9.91925e+06
457.536
173076
9.8908e+06
413.136
202128
9.85753e+06
361.982
232431
9.81946e+06
327.662
263716
9.77602e+06
323.603
296475
9.7274e+06
355.284
330476
9.67331e+06
436.486
365838
9.6137e+06
549.455
403087
9.54905e+06
796.308
442058
9.47932e+06
954.972
483041
9.40586e+06
1525.28
525883
9.32503e+06
788.191
572456
9.22792e+06
50.8443
610164
9.1132e+06
1916.41
647278
8.98497e+06
3070.52
681944
8.84502e+06
909.45
724161
8.70422e+06
-1042.28
770467
8.54762e+06
-2497.51
834465
8.35548e+06
-6254.06
919719
8.11382e+06
-6039.84
1.01408e+06
7.83103e+06
-1848.49
1.08608e+06
7.53607e+06
3248.72
1.14606e+06
7.22983e+06
3623.51
1.2307e+06
6.90902e+06
3545.13
1.30927e+06
6.5788e+06
8323.13
1.32969e+06
6.2375e+06
22339.4
1.24961e+06
5.86028e+06
51836.1
1.02479e+06
5.37546e+06
186086
498008
4.02438e+06
762973
104198
3.07066e+06
534937
502057
2.74162e+06
248482
554902
3.26343e+06
137117
41343.8
3.75699e+06
35789.4
339480
4.21528e+06
120193
-407012
4.35244e+06
19853.4
-126405
4.44938e+06
-34391.8
294454
4.478e+06
98.9197
387554
4.49333e+06
-6033
366921
4.49053e+06
14200.6
305403
4.47501e+06
48579.2
250055
4.4012e+06
89863.8
229163
4.365e+06
124513
140749
4.38404e+06
167513
102649
4.29341e+06
191434
-1988.72
4.20129e+06
162155
-86629.8
4.10336e+06
153003
-163066
3.96582e+06
91634.5
-280001
79163
-696603
9.9993e+06
13019.7
9.99572e+06
38294.4
9.98847e+06
64176.5
9.97736e+06
90466
9.96234e+06
117167
9.94291e+06
144655
9.91914e+06
173058
9.8907e+06
202099
9.85741e+06
232388
9.81928e+06
263662
9.77577e+06
296415
9.72711e+06
330416
9.67302e+06
365781
9.61351e+06
403050
9.54899e+06
441996
9.4795e+06
482957
9.40643e+06
525850
9.32711e+06
571019
9.23023e+06
612836
9.11799e+06
653433
8.99062e+06
693450
8.84955e+06
736578
8.6985e+06
782682
8.53041e+06
840084
8.33089e+06
911548
8.09159e+06
1.0004e+06
7.83297e+06
1.07054e+06
7.55811e+06
1.15479e+06
7.26182e+06
1.24222e+06
6.95222e+06
1.31113e+06
6.6482e+06
1.32493e+06
6.36606e+06
1.26128e+06
6.11553e+06
1.08485e+06
5.97634e+06
721972
6.52626e+06
72708.5
6.69739e+06
-84458.5
6.65652e+06
-154277
6.53834e+06
-44948.4
6.35169e+06
74232
6.0792e+06
300612
5.71266e+06
373344
5.49781e+06
230104
5.41248e+06
142024
5.34448e+06
86692.2
5.28098e+06
70849.1
5.17298e+06
137459
5.0528e+06
184368
4.96792e+06
196662
4.91325e+06
224437
4.83178e+06
203675
4.75661e+06
129359
4.65173e+06
-88186.6
4.47252e+06
-27882.8
-316596
9.99912e+06
153.882
14848
9.99595e+06
265.121
43685.1
9.98914e+06
362.54
73232.6
9.97864e+06
394.612
103284
9.96435e+06
429.988
133766
9.94574e+06
456.225
165480
9.92291e+06
442.915
197986
9.89555e+06
397.608
231437
9.86369e+06
348.217
266167
9.82657e+06
318.69
302723
9.7848e+06
321.811
340250
9.73784e+06
362.176
379667
9.68548e+06
441.71
420777
9.62809e+06
565.825
463616
9.5658e+06
737.141
508160
9.49898e+06
915.304
554312
9.42773e+06
1071.24
602027
9.35321e+06
1175.38
651810
9.26821e+06
557.588
699839
9.17023e+06
-94.1503
749156
9.05304e+06
217.006
801716
8.9123e+06
-1199.44
868526
8.75519e+06
-1542.97
931019
8.58957e+06
-5339.32
1.00675e+06
8.3924e+06
-10058.6
1.12844e+06
8.13905e+06
-10520.5
1.27982e+06
7.83197e+06
-698.565
1.39639e+06
7.50357e+06
8881.31
1.46777e+06
7.17659e+06
9042.53
1.5504e+06
6.84534e+06
6810.55
1.63515e+06
6.50308e+06
13550.7
1.65982e+06
6.10923e+06
31617.1
1.61359e+06
5.47408e+06
92850.3
1.56927e+06
3.65632e+06
496104
1.82269e+06
1.50365e+06
713884
1.55786e+06
1.46058e+06
17909.6
527194
1.54593e+06
92900.8
349943
839746
501809
150893
448486
241449
389600
1.0316e+06
-242266
-812831
1.73861e+06
-245218
-628232
1.87571e+06
82524.7
3547.14
1.88396e+06
202699
82899
1.91945e+06
188020
50822.2
1.91562e+06
223959
-25520.1
1.84583e+06
356000
-185112
1.76367e+06
525848
-357128
1.73014e+06
595880
-538868
1.75608e+06
553108
-574113
1.90709e+06
388778
-616208
2.28011e+06
246526
-717281
2.75604e+06
139923
-878710
3.39991e+06
195519
-1.07513e+06
41387.3
-1.39127e+06
9.99934e+06
14843.8
9.99593e+06
43671.2
9.98904e+06
73214.1
9.97847e+06
103265
9.96415e+06
133749
9.94558e+06
165462
9.92279e+06
197964
9.89545e+06
231408
9.86357e+06
266131
9.82639e+06
302681
9.78456e+06
340205
9.73756e+06
379623
9.68522e+06
420732
9.6279e+06
463564
9.56572e+06
508088
9.49904e+06
554210
9.428e+06
601905
9.35318e+06
650905
9.26934e+06
700524
9.17312e+06
752100
9.06073e+06
808187
8.92576e+06
872657
8.75971e+06
949463
8.57833e+06
1.01731e+06
8.36458e+06
1.11653e+06
8.10528e+06
1.25064e+06
7.82316e+06
1.35359e+06
7.52932e+06
1.45879e+06
7.22037e+06
1.56144e+06
6.90363e+06
1.63569e+06
6.59051e+06
1.65266e+06
6.28356e+06
1.60108e+06
5.95194e+06
1.51126e+06
5.63643e+06
1.552e+06
4.28469e+06
2.14143e+06
2.63841e+06
1.57777e+06
1.70588e+06
849465
1.67793e+06
453431
1.72492e+06
235083
2.06962e+06
-328734
2.28843e+06
-145579
2.20348e+06
347450
2.16426e+06
328766
2.1064e+06
252796
2.0703e+06
222111
2.12047e+06
329822
2.2113e+06
507199
2.33633e+06
566794
2.40507e+06
615983
2.41024e+06
515288
2.43962e+06
269035
2.42982e+06
85374.3
2.60542e+06
18654.4
-327788
9.99918e+06
149.224
16553.9
9.99624e+06
252.457
48756.5
9.98987e+06
346.803
81759
9.98001e+06
377.474
115364
9.96645e+06
410.851
149529
9.94896e+06
435.112
185078
9.92753e+06
421.704
221411
9.90145e+06
378.843
259406
9.87082e+06
334.32
298635
9.83578e+06
310.86
339652
9.79562e+06
319.693
382427
9.75046e+06
361.051
427044
9.70018e+06
430.204
473545
9.64468e+06
528.876
521975
9.58424e+06
637.184
571875
9.51907e+06
785.443
623349
9.44946e+06
838.741
675736
9.37625e+06
877.902
729377
9.29689e+06
326.562
783817
9.21049e+06
-425.065
840643
9.11392e+06
-935.132
903243
9.00597e+06
-506.955
981089
8.86862e+06
368.224
1.07269e+06
8.70129e+06
-4669.96
1.18148e+06
8.51282e+06
-12487.9
1.33122e+06
8.29373e+06
-14564.7
1.51573e+06
8.02131e+06
-3097.79
1.67535e+06
7.66891e+06
14514.9
1.81197e+06
7.27523e+06
19998.5
1.92996e+06
6.90005e+06
10392.5
2.00419e+06
6.57615e+06
11360.5
1.97456e+06
6.26779e+06
19263.2
1.9039e+06
5.91609e+06
37101.7
1.8839e+06
5.37748e+06
243973
2.11865e+06
3.27086e+06
602764
3.05119e+06
1.44379e+06
386513
1.93475e+06
139424
409896
1.11893e+06
-470547
243860
327318
-157707
-234855
135943
-404405
-634803
-95069.2
-613472
-374329
-248002
-236655
-55398.7
-556582
273746
25624
-648588
738086
52278.9
-610540
1.28168e+06
41407.2
-740376
1.91423e+06
38726.7
-969164
2.61562e+06
2005.85
-1.17525e+06
3.23233e+06
20991
-1.28896e+06
3.71213e+06
172523
-1.33234e+06
4.10511e+06
249131
-1.34371e+06
4.47106e+06
176033
-1.34225e+06
4.88583e+06
44128.6
-1.31758e+06
5.191e+06
11915.8
-1.3697e+06
-56895.8
-1.4538e+06
9.99939e+06
16553.5
9.99623e+06
48750.9
9.98977e+06
81741.5
9.97984e+06
115344
9.96625e+06
149513
9.94879e+06
185063
9.9274e+06
221391
9.90134e+06
259377
9.8707e+06
298598
9.8356e+06
339610
9.79539e+06
382384
9.75019e+06
427004
9.69992e+06
473508
9.64447e+06
521930
9.58415e+06
571823
9.51903e+06
623232
9.44954e+06
675603
9.37563e+06
729120
9.29595e+06
783851
9.20963e+06
840946
9.11495e+06
904834
9.00992e+06
980316
8.88018e+06
1.08288e+06
8.7086e+06
1.18705e+06
8.49493e+06
1.3206e+06
8.24385e+06
1.48932e+06
7.9473e+06
1.65158e+06
7.63628e+06
1.78724e+06
7.32175e+06
1.89817e+06
6.99067e+06
1.97966e+06
6.65839e+06
1.99872e+06
6.35647e+06
1.92374e+06
6.04827e+06
1.85978e+06
5.84984e+06
1.99202e+06
5.96307e+06
2.62119e+06
5.13861e+06
2.77232e+06
4.09545e+06
2.28188e+06
3.11519e+06
1.65214e+06
1.89428e+06
1.17655e+06
116452
730454
-973542
470502
-1.05203e+06
293054
-957547
170407
-839879
81038
-751920
68221.8
-670080
172324
-641699
357494
-443328
264405
216873
2488.61
1.10229e+06
-239374
1.79331e+06
-291693
2.23748e+06
-300286
2.66766e+06
-383256
-517944
9.99925e+06
147.174
18147.6
9.9966e+06
248.569
53486.2
9.99075e+06
340.76
89694.2
9.98165e+06
369.882
126609
9.96909e+06
401.314
164221
9.95283e+06
424.195
203385
9.93263e+06
411.525
243540
9.90838e+06
371.924
285488
9.87957e+06
332.392
329248
9.84628e+06
314.35
374815
9.80837e+06
326.839
422329
9.7652e+06
367.055
472381
9.71675e+06
427.218
524366
9.66319e+06
499.438
578136
9.60428e+06
583.016
633718
9.54052e+06
665.932
690369
9.47205e+06
710.933
747813
9.39984e+06
732.373
805558
9.32427e+06
593.688
863514
9.24565e+06
426.712
923558
9.16436e+06
278.113
988744
9.08166e+06
668.724
1.06842e+06
8.98697e+06
1561.96
1.17076e+06
8.858e+06
7257.29
1.3095e+06
8.6926e+06
2438.59
1.49778e+06
8.51453e+06
-6082.57
1.70174e+06
8.31088e+06
-6221.18
1.89275e+06
8.02892e+06
1992.86
2.10407e+06
7.66196e+06
19917.6
2.2899e+06
7.22733e+06
31194.8
2.42022e+06
6.76499e+06
29630.5
2.41591e+06
6.33987e+06
19419.7
2.31363e+06
5.99054e+06
22452
2.21102e+06
5.88855e+06
36479.9
2.17902e+06
5.79175e+06
236774
2.90006e+06
4.60641e+06
211145
2.89245e+06
3.34382e+06
127323
2.23559e+06
2.2249e+06
10289.7
1.40901e+06
1.72356e+06
-125550
717532
1.72446e+06
-363642
200388
2.06867e+06
-488551
-174578
2.40218e+06
-449546
-508542
2.7629e+06
-319414
-762127
3.19614e+06
-136059
-974778
3.65207e+06
-61460.8
-1.17423e+06
4.14504e+06
-169178
-1.31633e+06
4.64203e+06
-292803
-1.40391e+06
5.06154e+06
-273497
-1.47074e+06
5.36412e+06
-169655
-1.52098e+06
5.56733e+06
-82036.5
-1.53248e+06
5.72928e+06
-62440.6
-1.488e+06
5.88147e+06
-79123.4
-1.41058e+06
5.93725e+06
-80510.5
-1.33962e+06
-130052
-1.24522e+06
9.99946e+06
18143.1
9.99659e+06
53470.8
9.99065e+06
89673.8
9.98148e+06
126588
9.9689e+06
164202
9.95266e+06
203365
9.9325e+06
243517
9.90828e+06
285460
9.87945e+06
329213
9.84611e+06
374775
9.80814e+06
422284
9.76494e+06
472333
9.71649e+06
524312
9.66298e+06
578073
9.60412e+06
633640
9.54041e+06
690268
9.47197e+06
747717
9.39957e+06
805391
9.32386e+06
863391
9.24511e+06
923379
9.16444e+06
989047
9.08142e+06
1.06739e+06
8.99808e+06
1.17191e+06
8.89082e+06
1.30668e+06
8.72891e+06
1.48959e+06
8.51974e+06
1.69697e+06
8.24259e+06
1.92858e+06
7.91008e+06
2.12702e+06
7.57351e+06
2.26037e+06
7.23687e+06
2.35463e+06
6.87019e+06
2.40207e+06
6.47019e+06
2.34745e+06
6.08978e+06
2.26293e+06
5.85928e+06
2.25732e+06
6.15432e+06
2.55886e+06
6.32451e+06
2.81e+06
6.0664e+06
2.66337e+06
5.48089e+06
2.24078e+06
4.74421e+06
1.77373e+06
3.74536e+06
1.344e+06
2.71872e+06
975738
1.9005e+06
608047
1.42363e+06
255826
1.3689e+06
-62691.7
1.62699e+06
-292873
1.99524e+06
-390037
2.41448e+06
-372668
2.8255e+06
-449033
3.23072e+06
-620405
3.61734e+06
-769758
4.02115e+06
-805097
4.41739e+06
-804604
4.7061e+06
-772524
-821760
9.99934e+06
142.265
19578.8
9.99703e+06
234.417
57781.8
9.9918e+06
323.01
96922.4
9.9836e+06
350.652
136869
9.9722e+06
380.771
177656
9.95736e+06
403.117
220181
9.93884e+06
391.894
263912
9.91641e+06
355.494
309704
9.8898e+06
319.185
357617
9.85876e+06
302.512
407667
9.82297e+06
311.334
460024
9.7822e+06
342.257
515183
9.73598e+06
385.051
572715
9.68396e+06
434.241
632424
9.62639e+06
492.035
693796
9.56331e+06
551.252
756282
9.49566e+06
632.785
818830
9.42432e+06
675.818
880579
9.35156e+06
734.598
940406
9.28029e+06
639.169
998966
9.21544e+06
642.368
1.05798e+06
9.15844e+06
-65.3063
1.13007e+06
9.11041e+06
1262.1
1.22257e+06
9.05202e+06
9867.5
1.36435e+06
8.94171e+06
18229.6
1.59392e+06
8.77315e+06
13237.9
1.86049e+06
8.54702e+06
1930.56
2.12152e+06
8.29361e+06
-4032.11
2.3688e+06
8.01805e+06
2330.23
2.57431e+06
7.69796e+06
14835.9
2.73891e+06
7.28092e+06
19366.5
2.82595e+06
6.768e+06
20953.9
2.8155e+06
6.26459e+06
31927.5
2.68734e+06
5.90977e+06
-835.444
2.53869e+06
6.09801e+06
48295.5
2.67196e+06
6.12667e+06
70181.3
2.80633e+06
5.77676e+06
38515.3
2.5566e+06
5.24144e+06
-41438.4
1.98756e+06
4.80311e+06
-141630
1.2894e+06
4.59782e+06
-239210
627515
4.63302e+06
-309692
66058.3
4.78645e+06
-315250
-396029
5.00118e+06
-262823
-763681
5.2423e+06
-206756
-1.03335e+06
5.48665e+06
-187412
-1.22649e+06
5.74664e+06
-207288
-1.34317e+06
6.01332e+06
-242782
-1.39945e+06
6.22659e+06
-249915
-1.42907e+06
6.34348e+06
-229220
-1.44444e+06
6.38219e+06
-208527
-1.43457e+06
6.38735e+06
-198621
-1.37064e+06
6.40469e+06
-205185
-1.26905e+06
6.3475e+06
-201553
-1.11747e+06
-160683
-989243
9.99954e+06
19578.6
9.99701e+06
57776.5
9.99171e+06
96905.4
9.98343e+06
136850
9.97201e+06
177640
9.9572e+06
220166
9.93872e+06
263893
9.9163e+06
309678
9.88968e+06
357585
9.85859e+06
407630
9.82275e+06
459985
9.78193e+06
515144
9.7357e+06
572675
9.68372e+06
632378
9.62619e+06
693735
9.56319e+06
756205
9.49553e+06
818717
9.42422e+06
880454
9.35133e+06
940308
9.27992e+06
998783
9.21429e+06
1.0586e+06
9.15703e+06
1.12805e+06
9.11193e+06
1.22227e+06
9.06965e+06
1.36293e+06
8.99325e+06
1.588e+06
8.83431e+06
1.87215e+06
8.59849e+06
2.16938e+06
8.30794e+06
2.41922e+06
7.9811e+06
2.59799e+06
7.63565e+06
2.7241e+06
7.26519e+06
2.80005e+06
6.84063e+06
2.79836e+06
6.39827e+06
2.74054e+06
6.00038e+06
2.65788e+06
5.9667e+06
2.64714e+06
6.20865e+06
2.6443e+06
6.41755e+06
2.4956e+06
6.4385e+06
2.17589e+06
6.31059e+06
1.75335e+06
6.10443e+06
1.29801e+06
5.89353e+06
854368
5.72187e+06
434523
5.63727e+06
51452.8
5.63377e+06
-278379
5.69864e+06
-538074
5.82869e+06
-706047
6.03092e+06
-799278
6.21297e+06
-884680
6.3082e+06
-979067
6.32902e+06
-1.05484e+06
6.35259e+06
-1.08171e+06
6.41153e+06
-1.11035e+06
6.49152e+06
-1.05874e+06
-1.34713e+06
9.99943e+06
140.441
20861.6
9.99753e+06
230.819
61622
9.99303e+06
317.403
103369
9.98585e+06
343.747
146033
9.9758e+06
372.476
189683
9.96262e+06
394.261
235262
9.94585e+06
384.492
282492
9.9256e+06
351.341
331684
9.90164e+06
318.836
383314
9.87319e+06
304.599
437890
9.83987e+06
313.02
495203
9.8016e+06
339.455
555399
9.75757e+06
373.754
618751
9.70762e+06
412.194
684466
9.65106e+06
456.059
752628
9.58829e+06
516.294
821665
9.51976e+06
595.071
890450
9.44725e+06
670.766
956720
9.3738e+06
789.794
1.01791e+06
9.30575e+06
720.006
1.0713e+06
9.25221e+06
914.866
1.11563e+06
9.22883e+06
-247.757
1.158e+06
9.23419e+06
1463.57
1.21954e+06
9.26449e+06
6840.87
1.33111e+06
9.24042e+06
16350.9
1.6079e+06
9.08421e+06
17422.1
1.99938e+06
8.82183e+06
5962.15
2.37857e+06
8.52882e+06
-1558.3
2.6686e+06
8.23551e+06
-1190.51
2.87821e+06
7.9375e+06
2235.05
3.04446e+06
7.60299e+06
2938.09
3.16583e+06
7.2022e+06
2690.27
3.21931e+06
6.7129e+06
2618.19
3.17747e+06
6.21397e+06
-4436.8
3.04682e+06
6.01172e+06
1506.11
2.88083e+06
6.09172e+06
12449.3
2.72138e+06
6.18797e+06
6574.44
2.45528e+06
6.17727e+06
-29547.6
2.02154e+06
6.09753e+06
-93728.7
1.44979e+06
6.04256e+06
-162686
822429
6.05488e+06
-215339
238172
6.11857e+06
-242679
-250495
6.20677e+06
-249033
-626590
6.30354e+06
-246638
-892517
6.39105e+06
-237424
-1.06427e+06
6.47545e+06
-232620
-1.16359e+06
6.55657e+06
-230238
-1.21446e+06
6.61415e+06
-227178
-1.24021e+06
6.62164e+06
-223083
-1.24728e+06
6.58881e+06
-219680
-1.23026e+06
6.56628e+06
-219890
-1.18609e+06
6.61146e+06
-223827
-1.13612e+06
6.73718e+06
-194113
-1.03893e+06
-146449
-1.05848e+06
9.99963e+06
20857.5
9.99751e+06
61606.9
9.99293e+06
103349
9.98569e+06
146014
9.97561e+06
189666
9.96246e+06
235245
9.94572e+06
282472
9.9255e+06
331658
9.90152e+06
383282
9.87303e+06
437852
9.83965e+06
495161
9.80133e+06
555353
9.75729e+06
618704
9.70736e+06
684418
9.65086e+06
752577
9.58815e+06
821608
9.51966e+06
890391
9.44715e+06
956683
9.37368e+06
1.01791e+06
9.30533e+06
1.0714e+06
9.25162e+06
1.11678e+06
9.22443e+06
1.15856e+06
9.23272e+06
1.21854e+06
9.26972e+06
1.33605e+06
9.25516e+06
1.62061e+06
9.10854e+06
2.03601e+06
8.86783e+06
2.41802e+06
8.58846e+06
2.70198e+06
8.28346e+06
2.9085e+06
7.95036e+06
3.06602e+06
7.5886e+06
3.16963e+06
7.18514e+06
3.20753e+06
6.74799e+06
3.18201e+06
6.31252e+06
3.09136e+06
6.01982e+06
2.94389e+06
5.94885e+06
2.72799e+06
6.03176e+06
2.41476e+06
6.16224e+06
2.00607e+06
6.27897e+06
1.52801e+06
6.37888e+06
1.01628e+06
6.46751e+06
528172
6.53522e+06
103693
6.57705e+06
-251277
6.59475e+06
-540267
6.59233e+06
-757208
6.57862e+06
-901888
6.57325e+06
-1.00211e+06
6.57506e+06
-1.10504e+06
6.5895e+06
-1.23124e+06
6.66143e+06
-1.37909e+06
6.87452e+06
-1.55084e+06
7.28752e+06
-1.75452e+06
7.97347e+06
-1.94405e+06
-2.43308e+06
9.99954e+06
135.955
21943.6
9.99811e+06
217
64907.2
9.99443e+06
300.22
108909
9.98844e+06
325.325
153931
9.97973e+06
353.312
200292
9.96863e+06
375.233
248190
9.95428e+06
367.195
298582
9.9366e+06
336.481
351051
9.91505e+06
305.453
406540
9.88963e+06
289.43
465007
9.85963e+06
292.803
526957
9.82424e+06
309.453
592587
9.78303e+06
334.303
661783
9.73489e+06
363.375
734503
9.67953e+06
403.632
810067
9.61637e+06
466.696
887305
9.54529e+06
551.808
964542
9.46756e+06
683.349
1.03819e+06
9.38643e+06
799.261
1.10322e+06
9.31048e+06
1016.4
1.15172e+06
9.25583e+06
1355.35
1.1741e+06
9.24618e+06
3235.35
1.17025e+06
9.32327e+06
6438.14