/*--------------------------------*- C++ -*----------------------------------*\
| =========                 |                                                 |
| \\      /  F ield         | OpenFOAM: The Open Source CFD Toolbox           |
|  \\    /   O peration     | Version:  4.1                                   |
|   \\  /    A nd           | Web:      www.OpenFOAM.org                      |
|    \\/     M anipulation  |                                                 |
\*---------------------------------------------------------------------------*/
FoamFile
{
    version     2.0;
    format      ascii;
    class       volScalarField;
    location    "54";
    object      p;
}
// * * * * * * * * * * * * * * * * * * * * * * * * * * * * * * * * * * * * * //

dimensions      [0 2 -2 0 0 0 0];

internalField   nonuniform List<scalar> 
4432
(
-4.15942e+10
-4.3107e+10
-4.39922e+10
-4.26617e+10
-4.24503e+10
-4.28031e+10
-4.27312e+10
-4.26566e+10
-4.26115e+10
-4.26044e+10
-4.26034e+10
-4.25873e+10
-4.25464e+10
-4.24847e+10
-4.24206e+10
-4.23553e+10
-4.22699e+10
-4.21608e+10
-4.20303e+10
-4.18809e+10
-4.17129e+10
-4.15308e+10
-4.13394e+10
-4.11448e+10
-4.09516e+10
-4.07642e+10
-4.05848e+10
-4.04142e+10
-4.02512e+10
-4.00933e+10
-3.99374e+10
-3.97813e+10
-3.96252e+10
-3.94711e+10
-3.93247e+10
-3.91949e+10
-3.90923e+10
-3.90255e+10
-3.89963e+10
-3.89967e+10
-3.90049e+10
-3.89852e+10
-3.88943e+10
-3.87e+10
-3.84109e+10
-3.80833e+10
-3.77488e+10
-3.72815e+10
-3.64975e+10
-3.60257e+10
-3.86098e+10
-4.6962e+10
-5.33612e+10
-2.68684e+10
-4.21398e+10
-4.27089e+10
-4.32308e+10
-4.30733e+10
-4.25463e+10
-4.27173e+10
-4.27247e+10
-4.264e+10
-4.25942e+10
-4.26021e+10
-4.26107e+10
-4.25927e+10
-4.25464e+10
-4.24849e+10
-4.24238e+10
-4.23594e+10
-4.22726e+10
-4.21621e+10
-4.20318e+10
-4.18821e+10
-4.17135e+10
-4.15304e+10
-4.13379e+10
-4.11419e+10
-4.09472e+10
-4.07584e+10
-4.05777e+10
-4.04063e+10
-4.02429e+10
-4.00854e+10
-3.99306e+10
-3.97763e+10
-3.96223e+10
-3.94711e+10
-3.93282e+10
-3.92025e+10
-3.91038e+10
-3.904e+10
-3.90125e+10
-3.90122e+10
-3.90166e+10
-3.89888e+10
-3.88844e+10
-3.86699e+10
-3.83513e+10
-3.79793e+10
-3.7573e+10
-3.69753e+10
-3.59341e+10
-3.499e+10
-3.70149e+10
-4.5966e+10
-5.55396e+10
-3.36004e+10
-4.24806e+10
-4.25962e+10
-4.28274e+10
-4.31562e+10
-4.2688e+10
-4.26179e+10
-4.27248e+10
-4.26621e+10
-4.26153e+10
-4.2625e+10
-4.26344e+10
-4.26361e+10
-4.26103e+10
-4.2551e+10
-4.24803e+10
-4.24144e+10
-4.23358e+10
-4.22283e+10
-4.20964e+10
-4.19409e+10
-4.17644e+10
-4.15709e+10
-4.13661e+10
-4.11567e+10
-4.09488e+10
-4.07479e+10
-4.05565e+10
-4.03763e+10
-4.02062e+10
-4.00442e+10
-3.98868e+10
-3.97321e+10
-3.95805e+10
-3.94329e+10
-3.92925e+10
-3.91671e+10
-3.90658e+10
-3.89961e+10
-3.89587e+10
-3.89441e+10
-3.89283e+10
-3.88742e+10
-3.87376e+10
-3.84846e+10
-3.81213e+10
-3.76985e+10
-3.72173e+10
-3.64728e+10
-3.52167e+10
-3.42753e+10
-3.69911e+10
-4.65546e+10
-5.43797e+10
-3.38806e+10
-4.24782e+10
-4.27593e+10
-4.30054e+10
-4.29761e+10
-4.2666e+10
-4.26285e+10
-4.27285e+10
-4.26488e+10
-4.26138e+10
-4.26253e+10
-4.26421e+10
-4.26443e+10
-4.26143e+10
-4.25522e+10
-4.24841e+10
-4.24243e+10
-4.23459e+10
-4.22361e+10
-4.21051e+10
-4.19506e+10
-4.17751e+10
-4.15823e+10
-4.13781e+10
-4.11691e+10
-4.09614e+10
-4.07604e+10
-4.05689e+10
-4.03886e+10
-4.02187e+10
-4.00573e+10
-3.99011e+10
-3.97476e+10
-3.95959e+10
-3.94477e+10
-3.93074e+10
-3.91824e+10
-3.90808e+10
-3.90098e+10
-3.89695e+10
-3.89501e+10
-3.89277e+10
-3.88651e+10
-3.87184e+10
-3.84543e+10
-3.80786e+10
-3.76388e+10
-3.71305e+10
-3.63345e+10
-3.49769e+10
-3.40009e+10
-3.7484e+10
-4.92377e+10
-5.60523e+10
-2.73082e+10
-4.31372e+10
-4.29426e+10
-4.25531e+10
-4.30423e+10
-4.28239e+10
-4.26378e+10
-4.26086e+10
-4.25869e+10
-4.25861e+10
-4.26075e+10
-4.26271e+10
-4.26448e+10
-4.26315e+10
-4.25802e+10
-4.25165e+10
-4.2454e+10
-4.2378e+10
-4.22752e+10
-4.21484e+10
-4.19953e+10
-4.1818e+10
-4.16198e+10
-4.14068e+10
-4.11863e+10
-4.0965e+10
-4.07488e+10
-4.05414e+10
-4.03448e+10
-4.01594e+10
-3.9984e+10
-3.98154e+10
-3.96491e+10
-3.94835e+10
-3.93226e+10
-3.91722e+10
-3.9038e+10
-3.89281e+10
-3.8848e+10
-3.87975e+10
-3.87657e+10
-3.87287e+10
-3.86523e+10
-3.84993e+10
-3.8248e+10
-3.79206e+10
-3.75796e+10
-3.72208e+10
-3.6597e+10
-3.5385e+10
-3.4402e+10
-3.71222e+10
-4.67739e+10
-5.41094e+10
-2.77017e+10
-4.28811e+10
-4.30421e+10
-4.29489e+10
-4.27418e+10
-4.27298e+10
-4.26921e+10
-4.26507e+10
-4.2594e+10
-4.26015e+10
-4.26193e+10
-4.26373e+10
-4.26494e+10
-4.26335e+10
-4.2582e+10
-4.2519e+10
-4.24612e+10
-4.23843e+10
-4.22795e+10
-4.21518e+10
-4.19987e+10
-4.18216e+10
-4.16239e+10
-4.14116e+10
-4.11918e+10
-4.09716e+10
-4.07567e+10
-4.05508e+10
-4.03559e+10
-4.01724e+10
-3.9999e+10
-3.98327e+10
-3.96702e+10
-3.95099e+10
-3.93539e+10
-3.92072e+10
-3.90771e+10
-3.8971e+10
-3.88949e+10
-3.88489e+10
-3.88217e+10
-3.87888e+10
-3.87149e+10
-3.85608e+10
-3.83002e+10
-3.79465e+10
-3.7548e+10
-3.70774e+10
-3.62464e+10
-3.46823e+10
-3.32406e+10
-3.57653e+10
-4.6188e+10
-5.6142e+10
-3.38687e+10
-4.28e+10
-4.29319e+10
-4.2814e+10
-4.27325e+10
-4.28047e+10
-4.2761e+10
-4.26966e+10
-4.26486e+10
-4.26479e+10
-4.26691e+10
-4.26931e+10
-4.27175e+10
-4.27164e+10
-4.26845e+10
-4.26397e+10
-4.25882e+10
-4.25155e+10
-4.24161e+10
-4.22904e+10
-4.21365e+10
-4.19541e+10
-4.17462e+10
-4.15192e+10
-4.12819e+10
-4.10432e+10
-4.08105e+10
-4.0589e+10
-4.03816e+10
-4.01897e+10
-4.00127e+10
-3.98463e+10
-3.96825e+10
-3.95172e+10
-3.93609e+10
-3.92225e+10
-3.90977e+10
-3.89954e+10
-3.89224e+10
-3.88745e+10
-3.88381e+10
-3.87879e+10
-3.86898e+10
-3.85099e+10
-3.82325e+10
-3.78876e+10
-3.75436e+10
-3.71992e+10
-3.66057e+10
-3.53964e+10
-3.42211e+10
-3.6378e+10
-4.57062e+10
-5.43278e+10
-2.93332e+10
-4.28886e+10
-4.28789e+10
-4.27133e+10
-4.25732e+10
-4.27597e+10
-4.28215e+10
-4.27267e+10
-4.2655e+10
-4.26577e+10
-4.26736e+10
-4.26964e+10
-4.2716e+10
-4.2712e+10
-4.26813e+10
-4.26393e+10
-4.25889e+10
-4.25144e+10
-4.24134e+10
-4.22866e+10
-4.21316e+10
-4.19483e+10
-4.17398e+10
-4.15124e+10
-4.1275e+10
-4.10368e+10
-4.08054e+10
-4.05861e+10
-4.03814e+10
-4.01919e+10
-4.00167e+10
-3.98524e+10
-3.96946e+10
-3.95412e+10
-3.93944e+10
-3.92593e+10
-3.91439e+10
-3.9054e+10
-3.8993e+10
-3.89598e+10
-3.89407e+10
-3.89093e+10
-3.88305e+10
-3.86677e+10
-3.84005e+10
-3.80498e+10
-3.76704e+10
-3.72394e+10
-3.64702e+10
-3.49841e+10
-3.36822e+10
-3.66782e+10
-4.80232e+10
-5.61563e+10
-2.88252e+10
-4.26487e+10
-4.26694e+10
-4.26754e+10
-4.25555e+10
-4.2644e+10
-4.26714e+10
-4.26489e+10
-4.26223e+10
-4.26357e+10
-4.26768e+10
-4.2715e+10
-4.27352e+10
-4.27389e+10
-4.27241e+10
-4.27001e+10
-4.26618e+10
-4.25986e+10
-4.25075e+10
-4.23867e+10
-4.22342e+10
-4.20477e+10
-4.18289e+10
-4.15843e+10
-4.13241e+10
-4.10607e+10
-4.08047e+10
-4.05635e+10
-4.03412e+10
-4.01389e+10
-3.99548e+10
-3.97839e+10
-3.96191e+10
-3.94576e+10
-3.93059e+10
-3.91714e+10
-3.90566e+10
-3.89672e+10
-3.89074e+10
-3.88727e+10
-3.88489e+10
-3.88095e+10
-3.87185e+10
-3.85398e+10
-3.82567e+10
-3.78961e+10
-3.75206e+10
-3.7126e+10
-3.6462e+10
-3.51077e+10
-3.34854e+10
-3.46259e+10
-4.3208e+10
-5.43153e+10
-3.16779e+10
-4.27874e+10
-4.26833e+10
-4.25274e+10
-4.2453e+10
-4.26275e+10
-4.26982e+10
-4.26708e+10
-4.26395e+10
-4.26411e+10
-4.26701e+10
-4.27078e+10
-4.27334e+10
-4.27388e+10
-4.27268e+10
-4.27053e+10
-4.26682e+10
-4.26045e+10
-4.25124e+10
-4.23907e+10
-4.22365e+10
-4.20484e+10
-4.18277e+10
-4.15809e+10
-4.13191e+10
-4.10548e+10
-4.07989e+10
-4.0559e+10
-4.03386e+10
-4.01377e+10
-3.99543e+10
-3.97847e+10
-3.96241e+10
-3.94693e+10
-3.93225e+10
-3.91891e+10
-3.9076e+10
-3.89897e+10
-3.89333e+10
-3.89031e+10
-3.88847e+10
-3.88515e+10
-3.87673e+10
-3.85951e+10
-3.83176e+10
-3.79597e+10
-3.7582e+10
-3.71765e+10
-3.64802e+10
-3.51047e+10
-3.38081e+10
-3.64489e+10
-4.73208e+10
-5.62574e+10
-2.87889e+10
-4.26727e+10
-4.26027e+10
-4.25574e+10
-4.25237e+10
-4.25905e+10
-4.26394e+10
-4.26494e+10
-4.26454e+10
-4.26666e+10
-4.27279e+10
-4.27988e+10
-4.28385e+10
-4.28592e+10
-4.28693e+10
-4.2868e+10
-4.28452e+10
-4.27939e+10
-4.27103e+10
-4.25927e+10
-4.24374e+10
-4.22403e+10
-4.20003e+10
-4.17232e+10
-4.14245e+10
-4.1123e+10
-4.08359e+10
-4.05745e+10
-4.03431e+10
-4.01408e+10
-3.99629e+10
-3.98028e+10
-3.96547e+10
-3.95167e+10
-3.93898e+10
-3.9277e+10
-3.9185e+10
-3.91205e+10
-3.90865e+10
-3.90789e+10
-3.90837e+10
-3.90752e+10
-3.90184e+10
-3.88782e+10
-3.86386e+10
-3.8326e+10
-3.80043e+10
-3.76828e+10
-3.71387e+10
-3.59871e+10
-3.47256e+10
-3.65464e+10
-4.5761e+10
-5.52189e+10
-2.93669e+10
-4.26941e+10
-4.26217e+10
-4.25405e+10
-4.25001e+10
-4.25985e+10
-4.26404e+10
-4.26487e+10
-4.26632e+10
-4.26913e+10
-4.27448e+10
-4.28043e+10
-4.28471e+10
-4.2872e+10
-4.28849e+10
-4.2885e+10
-4.28632e+10
-4.28119e+10
-4.27283e+10
-4.26104e+10
-4.24548e+10
-4.22575e+10
-4.20174e+10
-4.17412e+10
-4.14439e+10
-4.11446e+10
-4.08602e+10
-4.06018e+10
-4.03738e+10
-4.01749e+10
-4e+10
-3.9843e+10
-3.96983e+10
-3.95623e+10
-3.94357e+10
-3.93228e+10
-3.92294e+10
-3.91623e+10
-3.91245e+10
-3.91121e+10
-3.91105e+10
-3.90941e+10
-3.9027e+10
-3.88734e+10
-3.86175e+10
-3.82862e+10
-3.79448e+10
-3.76024e+10
-3.70329e+10
-3.58682e+10
-3.47446e+10
-3.72463e+10
-4.76552e+10
-5.70137e+10
-3.14294e+10
-4.25077e+10
-4.24505e+10
-4.24162e+10
-4.24492e+10
-4.25118e+10
-4.25744e+10
-4.26099e+10
-4.26305e+10
-4.26747e+10
-4.27569e+10
-4.28392e+10
-4.2901e+10
-4.29501e+10
-4.29886e+10
-4.30096e+10
-4.30043e+10
-4.29652e+10
-4.28879e+10
-4.27711e+10
-4.26102e+10
-4.2398e+10
-4.21268e+10
-4.18006e+10
-4.14418e+10
-4.10802e+10
-4.07435e+10
-4.04479e+10
-4.01992e+10
-3.99939e+10
-3.98229e+10
-3.9676e+10
-3.95459e+10
-3.94294e+10
-3.9325e+10
-3.92339e+10
-3.91611e+10
-3.91131e+10
-3.9093e+10
-3.90973e+10
-3.91123e+10
-3.91133e+10
-3.90668e+10
-3.89396e+10
-3.87174e+10
-3.84268e+10
-3.81336e+10
-3.78568e+10
-3.73927e+10
-3.63898e+10
-3.54451e+10
-3.8046e+10
-4.84693e+10
-5.81617e+10
-3.25303e+10
-4.24643e+10
-4.24242e+10
-4.24612e+10
-4.24841e+10
-4.25231e+10
-4.25546e+10
-4.25944e+10
-4.26395e+10
-4.26989e+10
-4.27742e+10
-4.28494e+10
-4.29136e+10
-4.29657e+10
-4.30058e+10
-4.30273e+10
-4.30211e+10
-4.29802e+10
-4.29006e+10
-4.278e+10
-4.26145e+10
-4.23964e+10
-4.21185e+10
-4.17857e+10
-4.14202e+10
-4.10533e+10
-4.07119e+10
-4.0413e+10
-4.01626e+10
-3.99573e+10
-3.97885e+10
-3.96456e+10
-3.95204e+10
-3.94084e+10
-3.93084e+10
-3.9222e+10
-3.91542e+10
-3.91108e+10
-3.90949e+10
-3.9103e+10
-3.91211e+10
-3.91237e+10
-3.90762e+10
-3.89441e+10
-3.87111e+10
-3.84018e+10
-3.80778e+10
-3.77495e+10
-3.72009e+10
-3.60526e+10
-3.47869e+10
-3.66662e+10
-4.6807e+10
-6.01023e+10
-4.1064e+10
-4.23983e+10
-4.23425e+10
-4.23452e+10
-4.24218e+10
-4.25004e+10
-4.25486e+10
-4.25795e+10
-4.2616e+10
-4.26923e+10
-4.28011e+10
-4.28985e+10
-4.29834e+10
-4.30622e+10
-4.31309e+10
-4.31805e+10
-4.32007e+10
-4.31818e+10
-4.31189e+10
-4.301e+10
-4.28529e+10
-4.2635e+10
-4.23368e+10
-4.19556e+10
-4.15201e+10
-4.10812e+10
-4.06811e+10
-4.03432e+10
-4.00737e+10
-3.9865e+10
-3.9703e+10
-3.95731e+10
-3.94647e+10
-3.93701e+10
-3.92862e+10
-3.92144e+10
-3.9159e+10
-3.91252e+10
-3.91149e+10
-3.91239e+10
-3.91381e+10
-3.91321e+10
-3.9072e+10
-3.89242e+10
-3.86735e+10
-3.83437e+10
-3.79944e+10
-3.76357e+10
-3.70538e+10
-3.58662e+10
-3.45663e+10
-3.65623e+10
-4.7336e+10
-6.14247e+10
-4.18339e+10
-4.23513e+10
-4.2301e+10
-4.23709e+10
-4.24636e+10
-4.25019e+10
-4.25176e+10
-4.25628e+10
-4.26199e+10
-4.26984e+10
-4.27953e+10
-4.28898e+10
-4.29771e+10
-4.30572e+10
-4.31261e+10
-4.31754e+10
-4.3195e+10
-4.31759e+10
-4.31131e+10
-4.30054e+10
-4.28495e+10
-4.2633e+10
-4.23373e+10
-4.19587e+10
-4.15266e+10
-4.10899e+10
-4.06902e+10
-4.0351e+10
-4.00783e+10
-3.98659e+10
-3.97007e+10
-3.9568e+10
-3.94564e+10
-3.93592e+10
-3.92738e+10
-3.92019e+10
-3.91486e+10
-3.91192e+10
-3.91159e+10
-3.91349e+10
-3.91627e+10
-3.91745e+10
-3.91375e+10
-3.90192e+10
-3.88049e+10
-3.85192e+10
-3.82217e+10
-3.79197e+10
-3.739e+10
-3.62171e+10
-3.47706e+10
-3.62151e+10
-4.60931e+10
-5.97023e+10
-3.86707e+10
-4.22866e+10
-4.22269e+10
-4.22352e+10
-4.23053e+10
-4.23978e+10
-4.24462e+10
-4.24842e+10
-4.25526e+10
-4.26626e+10
-4.279e+10
-4.29151e+10
-4.3039e+10
-4.316e+10
-4.32711e+10
-4.33619e+10
-4.3419e+10
-4.34292e+10
-4.3384e+10
-4.32828e+10
-4.31281e+10
-4.29036e+10
-4.25688e+10
-4.2096e+10
-4.15257e+10
-4.09522e+10
-4.04489e+10
-4.00474e+10
-3.97491e+10
-3.95373e+10
-3.93883e+10
-3.928e+10
-3.91971e+10
-3.91294e+10
-3.90726e+10
-3.90287e+10
-3.90025e+10
-3.89999e+10
-3.90235e+10
-3.90696e+10
-3.91245e+10
-3.91635e+10
-3.91538e+10
-3.90638e+10
-3.88802e+10
-3.86289e+10
-3.83694e+10
-3.81063e+10
-3.76139e+10
-3.64874e+10
-3.5159e+10
-3.68556e+10
-4.6531e+10
-5.87089e+10
-3.6893e+10
-4.22718e+10
-4.22085e+10
-4.22381e+10
-4.23238e+10
-4.23814e+10
-4.24181e+10
-4.24814e+10
-4.25606e+10
-4.26578e+10
-4.27729e+10
-4.28947e+10
-4.30175e+10
-4.31366e+10
-4.32457e+10
-4.33344e+10
-4.33901e+10
-4.33994e+10
-4.33539e+10
-4.32532e+10
-4.30989e+10
-4.28762e+10
-4.25451e+10
-4.20787e+10
-4.1517e+10
-4.09502e+10
-4.04513e+10
-4.00512e+10
-3.97516e+10
-3.95371e+10
-3.93852e+10
-3.92734e+10
-3.91855e+10
-3.91113e+10
-3.90471e+10
-3.89951e+10
-3.89605e+10
-3.89496e+10
-3.89658e+10
-3.90058e+10
-3.90569e+10
-3.90961e+10
-3.9093e+10
-3.90189e+10
-3.88646e+10
-3.8661e+10
-3.8474e+10
-3.83158e+10
-3.79645e+10
-3.70026e+10
-3.58586e+10
-3.7887e+10
-4.77455e+10
-5.71473e+10
-3.05029e+10
-4.22535e+10
-4.22151e+10
-4.21891e+10
-4.22095e+10
-4.22885e+10
-4.23529e+10
-4.24211e+10
-4.25273e+10
-4.26615e+10
-4.28068e+10
-4.29653e+10
-4.31316e+10
-4.3298e+10
-4.34557e+10
-4.3592e+10
-4.36912e+10
-4.37369e+10
-4.37162e+10
-4.36297e+10
-4.34872e+10
-4.32781e+10
-4.29258e+10
-4.23354e+10
-4.15464e+10
-4.07445e+10
-4.00782e+10
-3.95862e+10
-3.92554e+10
-3.90451e+10
-3.89134e+10
-3.88272e+10
-3.87638e+10
-3.87107e+10
-3.86638e+10
-3.86263e+10
-3.8605e+10
-3.86072e+10
-3.86372e+10
-3.86923e+10
-3.87597e+10
-3.88162e+10
-3.88313e+10
-3.87771e+10
-3.86467e+10
-3.84742e+10
-3.83267e+10
-3.82093e+10
-3.7882e+10
-3.69195e+10
-3.58133e+10
-3.80018e+10
-4.77962e+10
-5.66202e+10
-3.03529e+10
-4.22614e+10
-4.2204e+10
-4.21758e+10
-4.22044e+10
-4.22731e+10
-4.23526e+10
-4.24298e+10
-4.25287e+10
-4.2651e+10
-4.27929e+10
-4.29488e+10
-4.31122e+10
-4.32755e+10
-4.34303e+10
-4.35638e+10
-4.36608e+10
-4.37047e+10
-4.36835e+10
-4.35968e+10
-4.34553e+10
-4.32488e+10
-4.29028e+10
-4.23255e+10
-4.15526e+10
-4.07649e+10
-4.01077e+10
-3.96208e+10
-3.92905e+10
-3.90785e+10
-3.89445e+10
-3.88554e+10
-3.87887e+10
-3.87318e+10
-3.86806e+10
-3.86381e+10
-3.8611e+10
-3.86064e+10
-3.86283e+10
-3.86734e+10
-3.87286e+10
-3.87704e+10
-3.87678e+10
-3.86925e+10
-3.85375e+10
-3.83368e+10
-3.81565e+10
-3.79982e+10
-3.76129e+10
-3.6547e+10
-3.51916e+10
-3.68137e+10
-4.61725e+10
-5.60816e+10
-3.08457e+10
-4.21205e+10
-4.20991e+10
-4.20482e+10
-4.20467e+10
-4.21029e+10
-4.21797e+10
-4.22764e+10
-4.24016e+10
-4.25551e+10
-4.27337e+10
-4.29335e+10
-4.31482e+10
-4.33698e+10
-4.35878e+10
-4.37875e+10
-4.39509e+10
-4.40584e+10
-4.40914e+10
-4.40451e+10
-4.39426e+10
-4.38012e+10
-4.35191e+10
-4.28566e+10
-4.1771e+10
-4.06144e+10
-3.97379e+10
-3.91632e+10
-3.88245e+10
-3.864e+10
-3.85439e+10
-3.84908e+10
-3.8452e+10
-3.84133e+10
-3.83716e+10
-3.8331e+10
-3.82996e+10
-3.82857e+10
-3.82937e+10
-3.83208e+10
-3.83536e+10
-3.83672e+10
-3.83294e+10
-3.82116e+10
-3.80066e+10
-3.77473e+10
-3.74944e+10
-3.72319e+10
-3.66824e+10
-3.53864e+10
-3.38082e+10
-3.54028e+10
-4.52117e+10
-5.6227e+10
-3.19655e+10
-4.21121e+10
-4.20694e+10
-4.20326e+10
-4.20412e+10
-4.2112e+10
-4.21945e+10
-4.22801e+10
-4.2402e+10
-4.25542e+10
-4.2731e+10
-4.29289e+10
-4.3142e+10
-4.33621e+10
-4.35785e+10
-4.37763e+10
-4.39376e+10
-4.40423e+10
-4.40719e+10
-4.40224e+10
-4.39177e+10
-4.37742e+10
-4.34867e+10
-4.28164e+10
-4.17252e+10
-4.05659e+10
-3.9692e+10
-3.9124e+10
-3.87945e+10
-3.8622e+10
-3.85394e+10
-3.85003e+10
-3.84759e+10
-3.8452e+10
-3.84253e+10
-3.84001e+10
-3.83844e+10
-3.83861e+10
-3.84094e+10
-3.84505e+10
-3.84943e+10
-3.8514e+10
-3.84748e+10
-3.83445e+10
-3.81111e+10
-3.78015e+10
-3.74692e+10
-3.70889e+10
-3.63709e+10
-3.48236e+10
-3.27735e+10
-3.34074e+10
-4.24023e+10
-5.59954e+10
-4.02271e+10
-4.20198e+10
-4.19974e+10
-4.19834e+10
-4.20048e+10
-4.20581e+10
-4.2143e+10
-4.22604e+10
-4.24103e+10
-4.2594e+10
-4.28104e+10
-4.30556e+10
-4.33242e+10
-4.36081e+10
-4.38954e+10
-4.41683e+10
-4.44037e+10
-4.45766e+10
-4.46625e+10
-4.46476e+10
-4.45645e+10
-4.4491e+10
-4.43529e+10
-4.3667e+10
-4.20419e+10
-4.01861e+10
-3.90651e+10
-3.85188e+10
-3.82822e+10
-3.82244e+10
-3.82443e+10
-3.82855e+10
-3.83184e+10
-3.83327e+10
-3.83297e+10
-3.83171e+10
-3.83056e+10
-3.83055e+10
-3.8323e+10
-3.83561e+10
-3.83921e+10
-3.84061e+10
-3.83654e+10
-3.82397e+10
-3.80181e+10
-3.77265e+10
-3.74112e+10
-3.70319e+10
-3.62902e+10
-3.47611e+10
-3.30115e+10
-3.44497e+10
-4.38739e+10
-5.53786e+10
-3.67834e+10
-4.19856e+10
-4.19687e+10
-4.19755e+10
-4.20077e+10
-4.20664e+10
-4.21427e+10
-4.22526e+10
-4.23996e+10
-4.25811e+10
-4.27943e+10
-4.30353e+10
-4.3299e+10
-4.35776e+10
-4.3859e+10
-4.41254e+10
-4.43531e+10
-4.4517e+10
-4.45935e+10
-4.45725e+10
-4.44882e+10
-4.44148e+10
-4.42766e+10
-4.3614e+10
-4.20377e+10
-4.02335e+10
-3.91049e+10
-3.8528e+10
-3.82677e+10
-3.81976e+10
-3.82138e+10
-3.82568e+10
-3.82948e+10
-3.83166e+10
-3.83231e+10
-3.83222e+10
-3.83247e+10
-3.83413e+10
-3.83786e+10
-3.84351e+10
-3.84983e+10
-3.85439e+10
-3.85394e+10
-3.84547e+10
-3.8279e+10
-3.80387e+10
-3.77793e+10
-3.74582e+10
-3.67734e+10
-3.52766e+10
-3.34702e+10
-3.47303e+10
-4.4037e+10
-5.50806e+10
-3.18625e+10
-4.17973e+10
-4.17437e+10
-4.17689e+10
-4.18014e+10
-4.18481e+10
-4.1921e+10
-4.20342e+10
-4.21907e+10
-4.23919e+10
-4.26374e+10
-4.29252e+10
-4.3252e+10
-4.36141e+10
-4.40022e+10
-4.43924e+10
-4.47454e+10
-4.50264e+10
-4.52132e+10
-4.52857e+10
-4.52617e+10
-4.52658e+10
-4.54043e+10
-4.50342e+10
-4.2668e+10
-3.93978e+10
-3.7834e+10
-3.7348e+10
-3.73112e+10
-3.7498e+10
-3.77195e+10
-3.79067e+10
-3.80395e+10
-3.81208e+10
-3.8162e+10
-3.81777e+10
-3.81834e+10
-3.8193e+10
-3.82162e+10
-3.82548e+10
-3.82997e+10
-3.83308e+10
-3.83204e+10
-3.82421e+10
-3.80887e+10
-3.78877e+10
-3.76833e+10
-3.74313e+10
-3.68448e+10
-3.55852e+10
-3.4501e+10
-3.72759e+10
-4.75127e+10
-5.51631e+10
-2.8125e+10
-4.17732e+10
-4.17533e+10
-4.17815e+10
-4.18174e+10
-4.186e+10
-4.19267e+10
-4.20343e+10
-4.21845e+10
-4.23787e+10
-4.26158e+10
-4.28936e+10
-4.32097e+10
-4.35609e+10
-4.39373e+10
-4.43156e+10
-4.46593e+10
-4.4934e+10
-4.51135e+10
-4.51734e+10
-4.51331e+10
-4.51398e+10
-4.53266e+10
-4.50431e+10
-4.28256e+10
-3.96859e+10
-3.80789e+10
-3.75205e+10
-3.7429e+10
-3.75688e+10
-3.77539e+10
-3.7916e+10
-3.80315e+10
-3.81008e+10
-3.81334e+10
-3.81434e+10
-3.81464e+10
-3.81563e+10
-3.81829e+10
-3.82282e+10
-3.8284e+10
-3.83312e+10
-3.83433e+10
-3.8296e+10
-3.81836e+10
-3.80354e+10
-3.78969e+10
-3.77207e+10
-3.72059e+10
-3.59753e+10
-3.479e+10
-3.72429e+10
-4.71078e+10
-5.56286e+10
-3.13973e+10
-4.15953e+10
-4.15495e+10
-4.15874e+10
-4.16168e+10
-4.16677e+10
-4.17486e+10
-4.18776e+10
-4.20648e+10
-4.23174e+10
-4.2638e+10
-4.30254e+10
-4.34764e+10
-4.39898e+10
-4.45566e+10
-4.51384e+10
-4.56616e+10
-4.60874e+10
-4.6418e+10
-4.66271e+10
-4.66911e+10
-4.6652e+10
-4.69333e+10
-4.77047e+10
-4.55245e+10
-4.04534e+10
-3.63457e+10
-3.60957e+10
-3.65396e+10
-3.70471e+10
-3.74482e+10
-3.77364e+10
-3.79277e+10
-3.80447e+10
-3.81077e+10
-3.81367e+10
-3.815e+10
-3.81631e+10
-3.81856e+10
-3.82192e+10
-3.82557e+10
-3.82761e+10
-3.82542e+10
-3.81666e+10
-3.80084e+10
-3.7809e+10
-3.76145e+10
-3.73868e+10
-3.6859e+10
-3.5731e+10
-3.48264e+10
-3.75162e+10
-4.7268e+10
-5.60867e+10
-3.05123e+10
-4.1576e+10
-4.15542e+10
-4.15886e+10
-4.16166e+10
-4.16636e+10
-4.17416e+10
-4.18666e+10
-4.20486e+10
-4.22947e+10
-4.26071e+10
-4.29855e+10
-4.34297e+10
-4.39394e+10
-4.45034e+10
-4.5084e+10
-4.56163e+10
-4.60478e+10
-4.63552e+10
-4.65048e+10
-4.64933e+10
-4.65033e+10
-4.70588e+10
-4.79836e+10
-4.58964e+10
-4.0859e+10
-3.62516e+10
-3.6082e+10
-3.65723e+10
-3.70945e+10
-3.74978e+10
-3.77845e+10
-3.79743e+10
-3.80905e+10
-3.81533e+10
-3.81823e+10
-3.81951e+10
-3.82066e+10
-3.82263e+10
-3.82559e+10
-3.82866e+10
-3.82991e+10
-3.82666e+10
-3.81648e+10
-3.79876e+10
-3.77625e+10
-3.7531e+10
-3.72423e+10
-3.65951e+10
-3.52242e+10
-3.38921e+10
-3.60398e+10
-4.56973e+10
-5.75191e+10
-4.12425e+10
-4.15147e+10
-4.15182e+10
-4.153e+10
-4.15521e+10
-4.15981e+10
-4.16822e+10
-4.18199e+10
-4.20236e+10
-4.23005e+10
-4.26509e+10
-4.30696e+10
-4.35508e+10
-4.4099e+10
-4.4702e+10
-4.53037e+10
-4.58236e+10
-4.62425e+10
-4.6553e+10
-4.67564e+10
-4.6848e+10
-4.68336e+10
-4.72603e+10
-4.85792e+10
-4.94311e+10
-4.62564e+10
-3.11248e+10
-3.37182e+10
-3.555e+10
-3.66146e+10
-3.7245e+10
-3.76442e+10
-3.78949e+10
-3.80483e+10
-3.81369e+10
-3.81861e+10
-3.82159e+10
-3.82417e+10
-3.82725e+10
-3.83082e+10
-3.8338e+10
-3.83401e+10
-3.82852e+10
-3.81469e+10
-3.79173e+10
-3.76239e+10
-3.7314e+10
-3.6958e+10
-3.63057e+10
-3.50541e+10
-3.3972e+10
-3.64594e+10
-4.63608e+10
-5.56592e+10
-3.15551e+10
-4.15052e+10
-4.1517e+10
-4.1523e+10
-4.15416e+10
-4.15834e+10
-4.1664e+10
-4.17973e+10
-4.19956e+10
-4.22655e+10
-4.26082e+10
-4.30217e+10
-4.35045e+10
-4.4056e+10
-4.46614e+10
-4.52695e+10
-4.57974e+10
-4.61954e+10
-4.64625e+10
-4.66155e+10
-4.66579e+10
-4.67357e+10
-4.75318e+10
-4.88745e+10
-4.96374e+10
-4.67038e+10
-3.10373e+10
-3.36251e+10
-3.54832e+10
-3.65851e+10
-3.72382e+10
-3.76504e+10
-3.79091e+10
-3.80682e+10
-3.81614e+10
-3.82141e+10
-3.82469e+10
-3.82751e+10
-3.83078e+10
-3.83451e+10
-3.83763e+10
-3.83797e+10
-3.83265e+10
-3.81906e+10
-3.79639e+10
-3.76728e+10
-3.73619e+10
-3.69908e+10
-3.62749e+10
-3.48768e+10
-3.37677e+10
-3.71889e+10
-4.92026e+10
-5.73177e+10
-2.95965e+10
-4.14912e+10
-4.15304e+10
-4.15319e+10
-4.15563e+10
-4.16035e+10
-4.16912e+10
-4.18327e+10
-4.20409e+10
-4.23218e+10
-4.2673e+10
-4.30871e+10
-4.35664e+10
-4.41133e+10
-4.47125e+10
-4.5296e+10
-4.57914e+10
-4.6203e+10
-4.65165e+10
-4.67146e+10
-4.68216e+10
-4.68402e+10
-4.71611e+10
-4.91073e+10
-4.84925e+10
-2.53994e+10
-3.34019e+10
-3.53432e+10
-3.64858e+10
-3.7156e+10
-3.75718e+10
-3.78265e+10
-3.79783e+10
-3.8063e+10
-3.81074e+10
-3.81323e+10
-3.81534e+10
-3.81796e+10
-3.82105e+10
-3.82352e+10
-3.82319e+10
-3.81718e+10
-3.80287e+10
-3.77956e+10
-3.75025e+10
-3.72046e+10
-3.68874e+10
-3.63107e+10
-3.5127e+10
-3.39221e+10
-3.57676e+10
-4.4546e+10
-5.46269e+10
-3.45588e+10
-4.15011e+10
-4.15516e+10
-4.15439e+10
-4.15644e+10
-4.1607e+10
-4.16894e+10
-4.18239e+10
-4.20231e+10
-4.22934e+10
-4.26355e+10
-4.30458e+10
-4.35226e+10
-4.4068e+10
-4.46657e+10
-4.52643e+10
-4.57923e+10
-4.62056e+10
-4.64866e+10
-4.66379e+10
-4.66611e+10
-4.67086e+10
-4.74364e+10
-4.92047e+10
-4.90508e+10
-2.65355e+10
-3.33927e+10
-3.52954e+10
-3.64487e+10
-3.71348e+10
-3.75607e+10
-3.78213e+10
-3.79759e+10
-3.80612e+10
-3.8105e+10
-3.81289e+10
-3.81496e+10
-3.81769e+10
-3.8212e+10
-3.82455e+10
-3.82573e+10
-3.82206e+10
-3.81113e+10
-3.7924e+10
-3.76894e+10
-3.74615e+10
-3.72206e+10
-3.67111e+10
-3.55936e+10
-3.46763e+10
-3.76976e+10
-4.83248e+10
-5.6369e+10
-2.87026e+10
-4.157e+10
-4.15886e+10
-4.15999e+10
-4.16269e+10
-4.16776e+10
-4.17647e+10
-4.19005e+10
-4.20956e+10
-4.23558e+10
-4.26807e+10
-4.30654e+10
-4.35106e+10
-4.40175e+10
-4.45715e+10
-4.51134e+10
-4.55896e+10
-4.5969e+10
-4.62647e+10
-4.64905e+10
-4.65888e+10
-4.66312e+10
-4.69266e+10
-4.77845e+10
-4.75576e+10
-3.98287e+10
-3.56215e+10
-3.56762e+10
-3.63697e+10
-3.70181e+10
-3.74863e+10
-3.78006e+10
-3.80001e+10
-3.81185e+10
-3.81818e+10
-3.82115e+10
-3.8226e+10
-3.82398e+10
-3.82614e+10
-3.82912e+10
-3.83194e+10
-3.83266e+10
-3.8287e+10
-3.81782e+10
-3.79973e+10
-3.77793e+10
-3.75873e+10
-3.74211e+10
-3.70591e+10
-3.61642e+10
-3.53472e+10
-3.78769e+10
-4.73763e+10
-5.49869e+10
-2.84002e+10
-4.15972e+10
-4.16132e+10
-4.1624e+10
-4.16495e+10
-4.16983e+10
-4.17821e+10
-4.19126e+10
-4.20995e+10
-4.23483e+10
-4.26594e+10
-4.30304e+10
-4.34614e+10
-4.3953e+10
-4.44929e+10
-4.5041e+10
-4.55439e+10
-4.59614e+10
-4.62764e+10
-4.64584e+10
-4.64772e+10
-4.64973e+10
-4.70196e+10
-4.77726e+10
-4.7429e+10
-4.02643e+10
-3.53947e+10
-3.54809e+10
-3.6243e+10
-3.69469e+10
-3.74512e+10
-3.77861e+10
-3.79971e+10
-3.81216e+10
-3.81881e+10
-3.82197e+10
-3.82357e+10
-3.82515e+10
-3.82763e+10
-3.83114e+10
-3.83479e+10
-3.8367e+10
-3.83434e+10
-3.82541e+10
-3.80941e+10
-3.78938e+10
-3.77081e+10
-3.75246e+10
-3.71034e+10
-3.60747e+10
-3.4978e+10
-3.70772e+10
-4.67028e+10
-5.67503e+10
-3.31942e+10
-4.17575e+10
-4.17432e+10
-4.17662e+10
-4.17962e+10
-4.18484e+10
-4.19284e+10
-4.20446e+10
-4.22026e+10
-4.24047e+10
-4.26493e+10
-4.29326e+10
-4.32504e+10
-4.35976e+10
-4.39599e+10
-4.43077e+10
-4.46077e+10
-4.48308e+10
-4.49638e+10
-4.50004e+10
-4.49548e+10
-4.49615e+10
-4.51312e+10
-4.48707e+10
-4.27453e+10
-3.98628e+10
-3.82657e+10
-3.77001e+10
-3.76022e+10
-3.77362e+10
-3.79103e+10
-3.80624e+10
-3.8171e+10
-3.82373e+10
-3.82698e+10
-3.82808e+10
-3.82836e+10
-3.82896e+10
-3.83054e+10
-3.83301e+10
-3.83533e+10
-3.83555e+10
-3.83116e+10
-3.81991e+10
-3.80154e+10
-3.77949e+10
-3.75996e+10
-3.74318e+10
-3.70789e+10
-3.61967e+10
-3.53163e+10
-3.76197e+10
-4.72225e+10
-5.66079e+10
-3.1077e+10
-4.17489e+10
-4.17379e+10
-4.17584e+10
-4.17879e+10
-4.18392e+10
-4.19183e+10
-4.20335e+10
-4.21901e+10
-4.23904e+10
-4.26329e+10
-4.29138e+10
-4.32287e+10
-4.35719e+10
-4.39301e+10
-4.42782e+10
-4.45863e+10
-4.48289e+10
-4.49855e+10
-4.50341e+10
-4.49915e+10
-4.50089e+10
-4.52117e+10
-4.49172e+10
-4.27646e+10
-3.97568e+10
-3.80684e+10
-3.75164e+10
-3.74629e+10
-3.76353e+10
-3.78359e+10
-3.80047e+10
-3.81241e+10
-3.8198e+10
-3.8237e+10
-3.82548e+10
-3.82654e+10
-3.82809e+10
-3.83081e+10
-3.83466e+10
-3.8386e+10
-3.84064e+10
-3.83811e+10
-3.82849e+10
-3.81097e+10
-3.78803e+10
-3.76447e+10
-3.73856e+10
-3.68629e+10
-3.56639e+10
-3.41023e+10
-3.50798e+10
-4.39125e+10
-5.7349e+10
-3.95014e+10
-4.18665e+10
-4.1859e+10
-4.18846e+10
-4.19217e+10
-4.19802e+10
-4.20634e+10
-4.21767e+10
-4.23229e+10
-4.25028e+10
-4.27142e+10
-4.29524e+10
-4.32104e+10
-4.3478e+10
-4.37403e+10
-4.39774e+10
-4.41684e+10
-4.4295e+10
-4.43384e+10
-4.42852e+10
-4.41625e+10
-4.40452e+10
-4.38765e+10
-4.323e+10
-4.17754e+10
-4.0147e+10
-3.90965e+10
-3.85251e+10
-3.82531e+10
-3.81768e+10
-3.81917e+10
-3.82368e+10
-3.82776e+10
-3.8301e+10
-3.83058e+10
-3.82984e+10
-3.82883e+10
-3.82846e+10
-3.82921e+10
-3.83089e+10
-3.83235e+10
-3.8316e+10
-3.82611e+10
-3.8137e+10
-3.79407e+10
-3.77057e+10
-3.7493e+10
-3.73057e+10
-3.6939e+10
-3.60574e+10
-3.51576e+10
-3.72266e+10
-4.62245e+10
-5.5935e+10
-3.22839e+10
-4.18537e+10
-4.1851e+10
-4.18752e+10
-4.1913e+10
-4.19726e+10
-4.20579e+10
-4.21743e+10
-4.23251e+10
-4.2511e+10
-4.27299e+10
-4.29771e+10
-4.32454e+10
-4.35243e+10
-4.37988e+10
-4.40483e+10
-4.4251e+10
-4.43855e+10
-4.44305e+10
-4.43764e+10
-4.42563e+10
-4.41432e+10
-4.39643e+10
-4.32832e+10
-4.17657e+10
-4.00694e+10
-3.89838e+10
-3.84173e+10
-3.81632e+10
-3.81037e+10
-3.81307e+10
-3.81834e+10
-3.82293e+10
-3.8257e+10
-3.82667e+10
-3.82658e+10
-3.82641e+10
-3.82711e+10
-3.82919e+10
-3.83241e+10
-3.83561e+10
-3.8367e+10
-3.833e+10
-3.82212e+10
-3.80336e+10
-3.77934e+10
-3.75499e+10
-3.72897e+10
-3.6779e+10
-3.55984e+10
-3.40242e+10
-3.49041e+10
-4.34439e+10
-5.65382e+10
-3.93753e+10
-4.19299e+10
-4.19303e+10
-4.19511e+10
-4.19862e+10
-4.20406e+10
-4.21167e+10
-4.22179e+10
-4.23459e+10
-4.25007e+10
-4.26804e+10
-4.28809e+10
-4.30957e+10
-4.33146e+10
-4.35249e+10
-4.37109e+10
-4.38559e+10
-4.39435e+10
-4.39573e+10
-4.38892e+10
-4.3756e+10
-4.35689e+10
-4.32302e+10
-4.25233e+10
-4.14321e+10
-4.03121e+10
-3.94812e+10
-3.89517e+10
-3.86537e+10
-3.85101e+10
-3.84533e+10
-3.84356e+10
-3.84269e+10
-3.84122e+10
-3.83878e+10
-3.83576e+10
-3.83291e+10
-3.83101e+10
-3.83042e+10
-3.83081e+10
-3.83097e+10
-3.8289e+10
-3.82211e+10
-3.80859e+10
-3.78823e+10
-3.76461e+10
-3.74405e+10
-3.7269e+10
-3.69221e+10
-3.60657e+10
-3.52443e+10
-3.75525e+10
-4.67994e+10
-5.51515e+10
-2.89338e+10
-4.19304e+10
-4.19269e+10
-4.19488e+10
-4.19838e+10
-4.20388e+10
-4.2116e+10
-4.2219e+10
-4.23497e+10
-4.25084e+10
-4.26932e+10
-4.29001e+10
-4.31225e+10
-4.33505e+10
-4.35711e+10
-4.37679e+10
-4.39235e+10
-4.40192e+10
-4.40373e+10
-4.39709e+10
-4.38384e+10
-4.36502e+10
-4.32991e+10
-4.25588e+10
-4.14256e+10
-4.02721e+10
-3.94331e+10
-3.89123e+10
-3.86261e+10
-3.84923e+10
-3.84423e+10
-3.84292e+10
-3.84238e+10
-3.84124e+10
-3.83918e+10
-3.83662e+10
-3.83433e+10
-3.83306e+10
-3.83313e+10
-3.83415e+10
-3.83482e+10
-3.83299e+10
-3.82605e+10
-3.81181e+10
-3.78998e+10
-3.76381e+10
-3.73915e+10
-3.71574e+10
-3.67113e+10
-3.56775e+10
-3.45845e+10
-3.6849e+10
-4.71238e+10
-5.71531e+10
-3.12971e+10
-4.20084e+10
-4.20087e+10
-4.2027e+10
-4.20588e+10
-4.21074e+10
-4.2174e+10
-4.22603e+10
-4.23666e+10
-4.24923e+10
-4.2635e+10
-4.27913e+10
-4.29552e+10
-4.31188e+10
-4.3272e+10
-4.34031e+10
-4.34982e+10
-4.35417e+10
-4.35209e+10
-4.3434e+10
-4.32886e+10
-4.30718e+10
-4.27071e+10
-4.21054e+10
-4.13102e+10
-4.05059e+10
-3.98437e+10
-3.93601e+10
-3.90365e+10
-3.88302e+10
-3.8698e+10
-3.86052e+10
-3.85283e+10
-3.84541e+10
-3.83786e+10
-3.83041e+10
-3.82364e+10
-3.8181e+10
-3.81392e+10
-3.81055e+10
-3.80654e+10
-3.79963e+10
-3.78708e+10
-3.76665e+10
-3.73809e+10
-3.7048e+10
-3.67266e+10
-3.64079e+10
-3.5853e+10
-3.46848e+10
-3.33989e+10
-3.51197e+10
-4.45326e+10
-5.59287e+10
-3.68976e+10
-4.20107e+10
-4.20022e+10
-4.20234e+10
-4.20546e+10
-4.21032e+10
-4.21694e+10
-4.22555e+10
-4.23619e+10
-4.24878e+10
-4.26311e+10
-4.2788e+10
-4.29529e+10
-4.3118e+10
-4.32734e+10
-4.34069e+10
-4.35045e+10
-4.35503e+10
-4.35317e+10
-4.34466e+10
-4.33039e+10
-4.30901e+10
-4.27262e+10
-4.2124e+10
-4.13259e+10
-4.05235e+10
-3.98659e+10
-3.93876e+10
-3.90679e+10
-3.88642e+10
-3.87342e+10
-3.86445e+10
-3.85719e+10
-3.85037e+10
-3.84358e+10
-3.83704e+10
-3.83126e+10
-3.82674e+10
-3.82355e+10
-3.82102e+10
-3.81757e+10
-3.81082e+10
-3.79794e+10
-3.77659e+10
-3.74642e+10
-3.71078e+10
-3.67561e+10
-3.64013e+10
-3.57985e+10
-3.45777e+10
-3.34915e+10
-3.65308e+10