/*--------------------------------*- C++ -*----------------------------------*\
| =========                 |                                                 |
| \\      /  F ield         | OpenFOAM: The Open Source CFD Toolbox           |
|  \\    /   O peration     | Version:  4.1                                   |
|   \\  /    A nd           | Web:      www.OpenFOAM.org                      |
|    \\/     M anipulation  |                                                 |
\*---------------------------------------------------------------------------*/
FoamFile
{
    version     2.0;
    format      ascii;
    class       surfaceScalarField;
    location    "54";
    object      phi;
}
// * * * * * * * * * * * * * * * * * * * * * * * * * * * * * * * * * * * * * //

dimensions      [0 3 -1 0 0 0 0];

internalField   nonuniform List<scalar> 
11516
(
-4.32601e+10
-1.0428e+08
2.67372e+08
-4.32882e+10
-1.21647e+08
1.30128e+08
-4.33357e+10
-1.33663e+08
1.66751e+08
-4.31744e+10
-2.05296e+08
3.46817e+07
-4.31204e+10
-1.35569e+08
7.65727e+07
-4.30965e+10
-1.34682e+08
1.099e+08
-4.30511e+10
-1.44625e+08
1.0126e+08
-4.30235e+10
-1.39902e+08
1.1661e+08
-4.2997e+10
-1.3912e+08
1.18819e+08
-4.29673e+10
-1.37862e+08
1.16092e+08
-4.29289e+10
-1.36924e+08
1.07256e+08
-4.28756e+10
-1.37168e+08
9.18677e+07
-4.27996e+10
-1.39825e+08
6.64567e+07
-4.26948e+10
-1.4386e+08
3.44005e+07
-4.25516e+10
-1.47752e+08
-5.44885e+06
-4.23608e+10
-1.51232e+08
-5.36905e+07
-4.2113e+10
-1.5379e+08
-1.06019e+08
-4.18027e+10
-1.57287e+08
-1.66791e+08
-4.14241e+10
-1.60806e+08
-2.28854e+08
-4.09708e+10
-1.64561e+08
-2.95823e+08
-4.04338e+10
-1.67027e+08
-3.63654e+08
-3.9818e+10
-1.69491e+08
-4.27825e+08
-3.91262e+10
-1.71424e+08
-4.89586e+08
-3.8374e+10
-1.72995e+08
-5.39785e+08
-3.75715e+10
-1.73869e+08
-5.82804e+08
-3.67345e+10
-1.73535e+08
-6.11824e+08
-3.58714e+10
-1.71541e+08
-6.33549e+08
-3.49966e+10
-1.67513e+08
-6.425e+08
-3.41184e+10
-1.61126e+08
-6.44956e+08
-3.32476e+10
-1.52113e+08
-6.39153e+08
-3.23936e+10
-1.40146e+08
-6.26337e+08
-3.15623e+10
-1.25061e+08
-6.10203e+08
-3.0763e+10
-1.06515e+08
-5.87021e+08
-3.00011e+10
-8.42142e+07
-5.60679e+08
-2.92804e+10
-5.79686e+07
-5.32016e+08
-2.86048e+10
-2.78239e+07
-5.00613e+08
-2.79752e+10
6.46322e+06
-4.68942e+08
-2.73971e+10
4.57319e+07
-4.325e+08
-2.68728e+10
9.03912e+07
-3.94968e+08
-2.64024e+10
1.38189e+08
-3.566e+08
-2.59818e+10
1.879e+08
-3.2044e+08
-2.56117e+10
2.41088e+08
-2.83171e+08
-2.52968e+10
2.99126e+08
-2.41362e+08
-2.50461e+10
3.62543e+08
-1.9154e+08
-2.48818e+10
4.30925e+08
-1.31078e+08
-2.48468e+10
5.02053e+08
-6.7239e+07
-2.49759e+10
5.6675e+08
-4.35015e+07
-2.52528e+10
6.19297e+08
-1.01736e+08
-2.57455e+10
6.59857e+08
-1.93873e+08
-2.66599e+10
7.82966e+08
2.0578e+08
-2.90427e+10
1.50496e+09
9.01677e+08
-3.30264e+10
3.07975e+09
1.51566e+09
-3.30928e+10
6.61187e+09
-6.42927e+09
4.87745e+09
-1.39054e+10
-5.7165e+10
-7.99998e+07
-5.70834e+10
-2.13248e+08
-5.70052e+10
-2.19892e+08
-5.69889e+10
-2.27474e+08
-5.68758e+10
-2.51819e+08
-5.67854e+10
-2.26189e+08
-5.67014e+10
-2.28195e+08
-5.66213e+10
-2.18508e+08
-5.65382e+10
-2.19873e+08
-5.64503e+10
-2.22512e+08
-5.63539e+10
-2.29938e+08
-5.62479e+10
-2.41047e+08
-5.6127e+10
-2.61427e+08
-5.59896e+10
-2.85846e+08
-5.58278e+10
-3.1747e+08
-5.56331e+10
-3.54212e+08
-5.54017e+10
-3.94227e+08
-5.51272e+10
-4.40635e+08
-5.48084e+10
-4.8794e+08
-5.44387e+10
-5.38003e+08
-5.40144e+10
-5.89501e+08
-5.35391e+10
-6.36061e+08
-5.30146e+10
-6.81519e+08
-5.24535e+10
-7.15819e+08
-5.18611e+10
-7.45316e+08
-5.12495e+10
-7.61896e+08
-5.06218e+10
-7.73718e+08
-4.99874e+10
-7.73767e+08
-4.93484e+10
-7.69372e+08
-4.87093e+10
-7.57724e+08
-4.80734e+10
-7.39869e+08
-4.74389e+10
-7.20441e+08
-4.68077e+10
-6.9498e+08
-4.61773e+10
-6.67792e+08
-4.5545e+10
-6.38195e+08
-4.49086e+10
-6.05599e+08
-4.42616e+10
-5.73814e+08
-4.36008e+10
-5.3848e+08
-4.29177e+10
-5.04183e+08
-4.22085e+10
-4.68756e+08
-4.14707e+10
-4.32005e+08
-4.06998e+10
-3.94194e+08
-3.98913e+10
-3.5324e+08
-3.90429e+10
-3.07798e+08
-3.81622e+10
-2.54954e+08
-3.72779e+10
-1.9578e+08
-3.64234e+10
-1.49614e+08
-3.56208e+10
-1.46165e+08
-3.49217e+10
-1.04338e+08
-3.46829e+10
4.73142e+08
-3.49638e+10
1.89383e+09
-3.56446e+10
3.77367e+09
-2.32951e+10
-5.79668e+09
-1.14069e+10
-6.72774e+10
5.29446e+06
2.75689e+08
-6.73172e+10
-2.61307e+07
1.87172e+08
-6.7363e+10
-3.50494e+07
2.38323e+08
-6.74604e+10
-2.2379e+07
1.47347e+08
-6.74819e+10
-3.28523e+07
1.2674e+08
-6.75214e+10
-2.59187e+07
1.73429e+08
-6.75782e+10
-2.38767e+07
1.81433e+08
-6.76296e+10
-2.09715e+07
1.89619e+08
-6.76807e+10
-2.08284e+07
1.92025e+08
-6.77341e+10
-1.86156e+07
1.90114e+08
-6.77849e+10
-1.77667e+07
1.78104e+08
-6.78296e+10
-1.75859e+07
1.56326e+08
-6.78695e+10
-1.91026e+07
1.23026e+08
-6.78999e+10
-2.12346e+07
8.08128e+07
-6.79208e+10
-2.48095e+07
2.7514e+07
-6.79296e+10
-2.73532e+07
-2.95541e+07
-6.79283e+10
-2.99575e+07
-9.26803e+07
-6.7915e+10
-3.23172e+07
-1.60882e+08
-6.78901e+10
-3.61592e+07
-2.32861e+08
-6.78501e+10
-3.94449e+07
-3.06105e+08
-6.77964e+10
-4.30582e+07
-3.78201e+08
-6.77282e+10
-4.66675e+07
-4.44448e+08
-6.76532e+10
-5.06111e+07
-5.02445e+08
-6.75738e+10
-5.49779e+07
-5.48785e+08
-6.75027e+10
-5.96293e+07
-5.78104e+08
-6.74387e+10
-6.41569e+07
-5.95493e+08
-6.73897e+10
-6.82451e+07
-5.97898e+08
-6.73535e+10
-7.15939e+07
-5.90153e+08
-6.73351e+10
-7.39508e+07
-5.71573e+08
-6.73328e+10
-7.50694e+07
-5.47949e+08
-6.73488e+10
-7.46968e+07
-5.16523e+08
-6.73851e+10
-7.2666e+07
-4.81555e+08
-6.7441e+10
-6.86504e+07
-4.41726e+08
-6.75212e+10
-6.22413e+07
-3.96371e+08
-6.76283e+10
-5.27399e+07
-3.47979e+08
-6.77693e+10
-4.00537e+07
-2.92441e+08
-6.79485e+10
-2.47218e+07
-2.33056e+08
-6.81675e+10
-7.54612e+06
-1.68211e+08
-6.84318e+10
1.13759e+07
-9.6164e+07
-6.87537e+10
3.36935e+07
-1.3497e+07
-6.91497e+10
6.10843e+07
8.05e+07
-6.96414e+10
9.28949e+07
1.93326e+08
-7.02508e+10
1.30177e+08
3.29613e+08
-7.10105e+10
1.73834e+08
4.99712e+08
-7.19618e+10
2.2504e+08
7.0983e+08
-7.31786e+10
2.85517e+08
9.6272e+08
-7.48005e+10
3.51093e+08
1.2582e+09
-7.69752e+10
4.00385e+08
1.56404e+09
-7.98168e+10
4.62717e+08
1.90773e+09
-8.28698e+10
6.21725e+08
2.19859e+09
-8.65995e+10
1.52011e+09
2.70348e+09
-9.08761e+10
2.67837e+09
2.56555e+09
-1.09753e+11
5.85945e+09
6.07584e+09
2.61297e+09
7.73927e+09
-7.36372e+10
-4.05208e+07
-7.373e+10
-1.52635e+08
-7.38434e+10
-1.46494e+08
-7.39632e+10
-1.3343e+08
-7.40795e+10
-1.70258e+08
-7.41907e+10
-1.41824e+08
-7.43151e+10
-1.27795e+08
-7.44341e+10
-1.20031e+08
-7.45566e+10
-1.17414e+08
-7.46816e+10
-1.14792e+08
-7.48077e+10
-1.20187e+08
-7.49324e+10
-1.33336e+08
-7.50587e+10
-1.55491e+08
-7.5186e+10
-1.84503e+08
-7.53125e+10
-2.22362e+08
-7.54373e+10
-2.64957e+08
-7.55554e+10
-3.14471e+08
-7.56685e+10
-3.68672e+08
-7.57747e+10
-4.25432e+08
-7.58735e+10
-4.83603e+08
-7.59656e+10
-5.41086e+08
-7.60506e+10
-5.93171e+08
-7.61357e+10
-6.38516e+08
-7.62217e+10
-6.74559e+08
-7.63205e+10
-6.95638e+08
-7.64286e+10
-7.0777e+08
-7.65533e+10
-7.07289e+08
-7.66895e+10
-6.9913e+08
-7.68405e+10
-6.82157e+08
-7.70006e+10
-6.6237e+08
-7.71685e+10
-6.36364e+08
-7.73419e+10
-6.09265e+08
-7.75147e+10
-5.80298e+08
-7.76857e+10
-5.47993e+08
-7.785e+10
-5.14845e+08
-7.80046e+10
-4.77695e+08
-7.81492e+10
-4.3846e+08
-7.82832e+10
-3.93288e+08
-7.84104e+10
-3.42926e+08
-7.85302e+10
-2.87665e+08
-7.86387e+10
-2.2933e+08
-7.87416e+10
-1.59021e+08
-7.88425e+10
-7.5796e+07
-7.89503e+10
2.71296e+07
-7.90794e+10
1.53471e+08
-7.92532e+10
3.01871e+08
-7.95336e+10
4.72208e+08
-8.00313e+10
6.62851e+08
-8.07042e+10
8.44863e+08
-8.05737e+10
7.2854e+08
-7.74473e+10
-8.9663e+06
-7.07983e+10
-4.96263e+08
-7.82063e+10
7.12766e+09
1.10733e+10
-5.43365e+10
8.52259e+07
-1.56339e+08
-5.41686e+10
1.23532e+08
-1.05128e+08
-5.39885e+10
1.08531e+08
-5.06774e+07
-5.39986e+10
1.37632e+08
1.99956e+07
-5.39586e+10
1.08099e+08
-2.04119e+07
-5.39149e+10
1.18332e+08
1.29662e+07
-5.39049e+10
1.2397e+08
4.98966e+07
-5.3902e+10
1.27947e+08
6.22695e+07
-5.3898e+10
1.28111e+08
6.41993e+07
-5.38896e+10
1.31253e+08
5.57454e+07
-5.38766e+10
1.33926e+08
3.73889e+07
-5.38603e+10
1.37276e+08
8.63052e+06
-5.38403e+10
1.40332e+08
-3.37343e+07
-5.38149e+10
1.43561e+08
-8.90401e+07
-5.37848e+10
1.47378e+08
-1.56638e+08
-5.3735e+10
1.51006e+08
-2.37224e+08
-5.36601e+10
1.53639e+08
-3.30883e+08
-5.35541e+10
1.57007e+08
-4.30825e+08
-5.34135e+10
1.60206e+08
-5.41061e+08
-5.32338e+10
1.64921e+08
-6.52015e+08
-5.30162e+10
1.70168e+08
-7.60735e+08
-5.27583e+10
1.76805e+08
-8.63412e+08
-5.24713e+10
1.84047e+08
-9.49849e+08
-5.21693e+10
1.91423e+08
-1.01637e+09
-5.18637e+10
1.99166e+08
-1.05848e+09
-5.15689e+10
2.07505e+08
-1.0765e+09
-5.12925e+10
2.16787e+08
-1.07217e+09
-5.10409e+10
2.27146e+08
-1.05152e+09
-5.08172e+10
2.38563e+08
-1.01739e+09
-5.06266e+10
2.51041e+08
-9.74162e+08
-5.0466e+10
2.64785e+08
-9.27714e+08
-5.03375e+10
2.802e+08
-8.77474e+08
-5.02354e+10
2.97548e+08
-8.30114e+08
-5.01534e+10
3.16822e+08
-7.85103e+08
-5.00876e+10
3.37854e+08
-7.42352e+08
-5.00246e+10
3.61255e+08
-7.07123e+08
-4.99584e+10
3.89235e+08
-6.7744e+08
-4.98832e+10
4.23752e+08
-6.53047e+08
-4.97851e+10
4.6425e+08
-6.39823e+08
-4.96456e+10
5.09593e+08
-6.38223e+08
-4.9454e+10
5.61353e+08
-6.40894e+08
-4.91949e+10
6.20908e+08
-6.47769e+08
-4.88579e+10
6.89104e+08
-6.49167e+08
-4.84261e+10
7.67341e+08
-6.45048e+08
-4.78906e+10
8.58889e+08
-6.3091e+08
-4.72586e+10
9.64348e+08
-6.07581e+08
-4.65517e+10
1.07938e+09
-5.8078e+08
-4.58481e+10
1.20015e+09
-5.33841e+08
-4.52607e+10
1.31888e+09
-3.9399e+08
-4.4777e+10
1.40958e+09
-3.01186e+08
-4.37895e+10
2.01691e+09
-1.22626e+09
-4.32861e+10
3.54496e+09
-2.52171e+09
-3.79241e+10
8.94109e+09
-9.02197e+09
4.88331e+09
-3.78424e+09
-6.13251e+10
-1.35539e+08
-6.12508e+10
-1.01819e+08
-6.1218e+10
-6.94994e+07
-6.12025e+10
-1.03158e+07
-6.12503e+10
-1.32829e+07
-6.12885e+10
1.61222e+07
-6.1345e+10
5.47539e+07
-6.14018e+10
6.74943e+07
-6.14637e+10
7.60941e+07
-6.15183e+10
7.52616e+07
-6.15677e+10
6.76802e+07
-6.16093e+10
4.98033e+07
-6.16408e+10
1.88784e+07
-6.16578e+10
-2.43073e+07
-6.1659e+10
-7.60984e+07
-6.16373e+10
-1.3965e+08
-6.15893e+10
-2.12355e+08
-6.1514e+10
-2.90394e+08
-6.14049e+10
-3.75758e+08
-6.12609e+10
-4.61449e+08
-6.1082e+10
-5.4286e+08
-6.08672e+10
-6.18376e+08
-6.06271e+10
-6.77691e+08
-6.03738e+10
-7.18078e+08
-6.01173e+10
-7.35671e+08
-5.9871e+10
-7.30982e+08
-5.96421e+10
-7.0538e+08
-5.9436e+10
-6.64869e+08
-5.92555e+10
-6.11672e+08
-5.91054e+10
-5.49808e+08
-5.89812e+10
-4.85143e+08
-5.88845e+10
-4.16155e+08
-5.88087e+10
-3.50251e+08
-5.87462e+10
-2.86398e+08
-5.86936e+10
-2.23133e+08
-5.86382e+10
-1.65767e+08
-5.85678e+10
-1.13159e+08
-5.8462e+10
-6.777e+07
-5.82987e+10
-3.24906e+07
-5.80591e+10
-5.5898e+06
-5.77334e+10
2.13323e+07
-5.72994e+10
4.633e+07
-5.67413e+10
7.69486e+07
-5.60356e+10
1.12685e+08
-5.51607e+10
1.5639e+08
-5.41062e+10
2.0795e+08
-5.28767e+10
2.65685e+08
-5.15061e+10
3.4931e+08
-5.00355e+10
4.40297e+08
-4.87782e+10
4.89741e+08
-4.76006e+10
3.32904e+08
-4.56875e+10
5.06965e+08
-2.31844e+10
-6.85762e+09
-3.75645e+09
-5.89614e+10
-1.20197e+08
-1.4147e+08
-5.89769e+10
-1.04316e+08
2.6044e+07
-5.8927e+10
-1.00765e+08
9.02766e+06
-5.89092e+10
-1.09853e+08
1.18916e+08
-5.89398e+10
-1.19128e+08
1.34992e+08
-5.89645e+10
-1.13403e+08
1.56801e+08
-5.89874e+10
-1.02979e+08
1.82727e+08
-5.90183e+10
-9.98327e+07
2.01422e+08
-5.90539e+10
-1.00408e+08
2.09943e+08
-5.90896e+10
-1.00713e+08
2.03146e+08
-5.91181e+10
-1.02294e+08
1.8048e+08
-5.91358e+10
-1.03957e+08
1.43034e+08
-5.91398e+10
-1.0614e+08
8.89791e+07
-5.91314e+10
-1.09022e+08
1.94037e+07
-5.91036e+10
-1.11083e+08
-6.60947e+07
-5.90608e+10
-1.13668e+08
-1.63307e+08
-5.89977e+10
-1.15714e+08
-2.72056e+08
-5.89114e+10
-1.18621e+08
-3.92683e+08
-5.88011e+10
-1.20874e+08
-5.19673e+08
-5.86649e+10
-1.23092e+08
-6.50739e+08
-5.85011e+10
-1.24094e+08
-7.76871e+08
-5.83134e+10
-1.23894e+08
-8.93412e+08
-5.81102e+10
-1.22792e+08
-9.88571e+08
-5.79061e+10
-1.20835e+08
-1.05579e+09
-5.77138e+10
-1.17921e+08
-1.09161e+09
-5.75459e+10
-1.13792e+08
-1.09437e+09
-5.74079e+10
-1.08137e+08
-1.06983e+09
-5.73035e+10
-1.01144e+08
-1.02531e+09
-5.72344e+10
-9.32512e+07
-9.65564e+08
-5.71984e+10
-8.49176e+07
-8.99358e+08
-5.71968e+10
-7.62404e+07
-8.29134e+08
-5.72261e+10
-6.69112e+07
-7.59746e+08
-5.72874e+10
-5.70544e+07
-6.9295e+08
-5.73788e+10
-4.6701e+07
-6.31106e+08
-5.74976e+10
-3.57122e+07
-5.74548e+08
-5.76478e+10
-2.46599e+07
-5.2086e+08
-5.78302e+10
-1.29692e+07
-4.71957e+08
-5.80486e+10
-1.25762e+06
-4.22962e+08
-5.83192e+10
1.09079e+07
-3.68536e+08
-5.86638e+10
2.62841e+07
-3.05557e+08
-5.91009e+10
4.58256e+07
-2.32063e+08
-5.96514e+10
6.98154e+07
-1.44917e+08
-6.03308e+10
9.77716e+07
-4.1013e+07
-6.11638e+10
1.30105e+08
8.88282e+07
-6.21844e+10
1.66583e+08
2.4926e+08
-6.3458e+10
2.08859e+08
4.53395e+08
-6.51077e+10
2.55475e+08
7.2488e+08
-6.7286e+10
2.98281e+08
1.08933e+09
-7.00809e+10
3.35263e+08
1.53291e+09
-7.3547e+10
5.04246e+08
1.72653e+09
-7.87515e+10
1.60656e+09
1.0586e+09
-8.73132e+10
3.64834e+09
8.49457e+08
-1.1341e+11
1.17768e+10
3.8549e+09
6.82644e+09
3.05809e+09
-6.62287e+10
-3.34222e+08
-6.62673e+10
-1.60957e+08
-6.63118e+10
-1.2021e+08
-6.6355e+10
-7.2488e+07
-6.64349e+10
-4.83545e+07
-6.65106e+10
-1.73025e+07
-6.65677e+10
1.38467e+07
-6.66279e+10
3.3697e+07
-6.66915e+10
4.58417e+07
-6.67528e+10
4.32092e+07
-6.68089e+10
2.95557e+07
-6.68569e+10
2.22253e+06
-6.68969e+10
-3.97246e+07
-6.6929e+10
-9.49309e+07
-6.69459e+10
-1.66027e+08
-6.69477e+10
-2.47227e+08
-6.69324e+10
-3.38695e+08
-6.68948e+10
-4.40068e+08
-6.68365e+10
-5.46397e+08
-6.67529e+10
-6.5552e+08
-6.66423e+10
-7.58865e+08
-6.65072e+10
-8.5264e+08
-6.63524e+10
-9.25969e+08
-6.61885e+10
-9.72463e+08
-6.60234e+10
-9.90281e+08
-6.58659e+10
-9.7679e+08
-6.57184e+10
-9.37918e+08
-6.55823e+10
-8.80715e+08
-6.54574e+10
-8.09457e+08
-6.53396e+10
-7.33071e+08
-6.52289e+10
-6.53717e+08
-6.51181e+10
-5.76713e+08
-6.50057e+10
-5.03787e+08
-6.48867e+10
-4.37706e+08
-6.47527e+10
-3.79444e+08
-6.46035e+10
-3.26954e+08
-6.44332e+10
-2.83859e+08
-6.42431e+10
-2.45868e+08
-6.40404e+10
-2.09491e+08
-6.38265e+10
-1.76481e+08
-6.3595e+10
-1.44666e+08
-6.33405e+10
-1.15729e+08
-6.30496e+10
-8.98711e+07
-6.27156e+10
-6.27445e+07
-6.2331e+10
-3.69917e+07
-6.19013e+10
-9.66264e+06
-6.14613e+10
3.10845e+07
-6.10703e+10
1.07031e+08
-6.07774e+10
1.77363e+08
-6.02208e+10
-6.52395e+07
-5.83544e+10
-6.67848e+08
-5.37354e+10
-1.26193e+09
-4.49273e+10
-4.40575e+09
-2.73121e+08
-5.52532e+10
-2.11945e+07
-2.00741e+08
-5.51624e+10
-5.22778e+07
3.43982e+06
-5.5136e+10
-6.3715e+07
6.119e+07
-5.50729e+10
-6.87266e+07
1.37294e+08
-5.50541e+10
-6.89938e+07
1.96904e+08
-5.50528e+10
-6.48458e+07
2.3186e+08
-5.50548e+10
-6.06084e+07
2.57678e+08
-5.50575e+10
-5.85787e+07
2.76229e+08
-5.50586e+10
-5.63815e+07
2.82469e+08
-5.50565e+10
-5.41489e+07
2.72049e+08
-5.50508e+10
-5.27288e+07
2.46422e+08
-5.50391e+10
-5.13687e+07
2.0395e+08
-5.50221e+10
-4.96093e+07
1.43812e+08
-5.49926e+10
-4.83391e+07
6.01185e+07
-5.49429e+10
-4.86026e+07
-4.63893e+07
-5.4859e+10
-5.16876e+07
-1.75525e+08
-5.47259e+10
-5.62183e+07
-3.25211e+08
-5.45372e+10
-6.26726e+07
-4.9206e+08
-5.42839e+10
-7.03384e+07
-6.69796e+08
-5.39598e+10
-7.97173e+07
-8.55773e+08
-5.35569e+10
-8.97863e+07
-1.04039e+09
-5.30719e+10
-1.00383e+08
-1.21516e+09
-5.25138e+10
-1.11734e+08
-1.36374e+09
-5.1899e+10
-1.22723e+08
-1.47195e+09
-5.12534e+10
-1.33405e+08
-1.53181e+09
-5.05969e+10
-1.42064e+08
-1.542e+09
-4.99479e+10
-1.47803e+08
-1.50852e+09
-4.93193e+10
-1.50062e+08
-1.44317e+09
-4.87202e+10
-1.48892e+08
-1.35487e+09
-4.81572e+10
-1.44538e+08
-1.25591e+09
-4.76341e+10
-1.37091e+08
-1.15173e+09
-4.71532e+10
-1.26391e+08
-1.04931e+09
-4.67149e+10
-1.1256e+08
-9.52251e+08
-4.63216e+10
-9.564e+07
-8.60223e+08
-4.59761e+10
-7.5392e+07
-7.73516e+08
-4.56787e+10
-5.14018e+07
-6.91563e+08
-4.54355e+10
-2.29031e+07
-6.1144e+08
-4.52476e+10
1.09152e+07
-5.33068e+08
-4.51171e+10
5.01575e+07
-4.50197e+08
-4.50464e+10
9.5401e+07
-3.59846e+08
-4.50396e+10
1.46624e+08
-2.58595e+08
-4.51066e+10
2.05553e+08
-1.38711e+08
-4.52597e+10
2.72838e+08
4.68964e+06
-4.55178e+10
3.49493e+08
1.85789e+08
-4.59172e+10
4.3679e+08
4.16725e+08
-4.65277e+10
5.3644e+08
7.25668e+08
-4.74786e+10
6.4832e+08
1.16813e+09
-4.8933e+10
7.29331e+08
1.80825e+09
-5.11548e+10
7.25751e+08
2.74867e+09
-5.51477e+10
9.02561e+08
4.20357e+09
-6.59128e+10
2.95e+09
8.07409e+09
-8.49957e+10
5.26579e+09
1.3791e+10
-1.11068e+11
6.93981e+09
2.27956e+10
-2.60797e+09
1.46905e+09
-5.9454e+10
-4.37581e+08
-5.94112e+10
-2.43744e+08
-5.94006e+10
-1.83339e+08
-5.93993e+10
-1.32473e+08
-5.94302e+10
-7.69418e+07
-5.94734e+10
-2.94816e+07
-5.95114e+10
1.26844e+06
-5.955e+10
2.46993e+07
-5.95877e+10
3.93334e+07
-5.96237e+10
3.85843e+07
-5.96549e+10
2.32019e+07
-5.96771e+10
-1.01856e+07
-5.96884e+10
-6.04976e+07
-5.96807e+10
-1.33521e+08
-5.96509e+10
-2.27515e+08
-5.95921e+10
-3.39763e+08
-5.94956e+10
-4.71814e+08
-5.93554e+10
-6.19914e+08
-5.9166e+10
-7.79628e+08
-5.89214e+10
-9.4741e+08
-5.86161e+10
-1.11446e+09
-5.82486e+10
-1.27317e+09
-5.78257e+10
-1.40642e+09
-5.73626e+10
-1.50214e+09
-5.68791e+10
-1.55153e+09
-5.63907e+10
-1.55356e+09
-5.59102e+10
-1.51349e+09
-5.54453e+10
-1.44231e+09
-5.50008e+10
-1.3479e+09
-5.45788e+10
-1.2422e+09
-5.41794e+10
-1.13007e+09
-5.38016e+10
-1.01789e+09
-5.34433e+10
-9.08355e+08
-5.31043e+10
-8.02398e+08
-5.27825e+10
-7.02282e+08
-5.24746e+10
-6.0668e+08
-5.2182e+10
-5.13128e+08
-5.18983e+10
-4.24615e+08
-5.16158e+10
-3.38299e+08
-5.13281e+10
-2.54443e+08
-5.10296e+10
-1.69628e+08
-5.07183e+10
-8.06036e+07
-5.03908e+10
1.2302e+07
-5.00476e+10
1.16452e+08
-4.96969e+10
2.33082e+08
-4.9367e+10
3.75804e+08
-4.91215e+10
5.78379e+08
-4.91058e+10
8.8704e+08
-4.96094e+10
1.34714e+09
-5.09311e+10
1.96943e+09
-5.27588e+10
3.88387e+09
-5.71512e+10
8.23389e+09
-7.79308e+10
2.3468e+10
8.39672e+09
-6.00395e+10
3.15473e+08
-4.93723e+08
-6.00442e+10
3.17318e+08
-2.86576e+08
-6.00775e+10
3.2053e+08
-2.0488e+08
-6.01174e+10
3.29763e+08
-1.32669e+08
-6.01736e+10
3.38227e+08
-6.61701e+07
-6.02519e+10
3.48646e+08
-1.94876e+07
-6.03464e+10
3.58753e+08
1.31943e+07
-6.04518e+10
3.68697e+08
3.43554e+07
-6.05643e+10
3.78877e+08
3.96675e+07
-6.06806e+10
3.88056e+08
2.65348e+07
-6.0793e+10
3.96933e+08
-8.37679e+06
-6.08961e+10
4.05421e+08
-6.47544e+07
-6.09859e+10
4.14334e+08
-1.44105e+08
-6.10578e+10
4.22818e+08
-2.51802e+08
-6.11107e+10
4.30328e+08
-3.85811e+08
-6.11375e+10
4.37804e+08
-5.45656e+08
-6.11353e+10
4.44557e+08
-7.29032e+08
-6.10944e+10
4.51191e+08
-9.34521e+08
-6.10102e+10
4.57175e+08
-1.15583e+09
-6.08775e+10
4.63342e+08
-1.38848e+09
-6.06879e+10
4.70239e+08
-1.62503e+09
-6.04383e+10
4.77866e+08
-1.8546e+09
-6.01323e+10
4.87069e+08
-2.05449e+09
-5.97878e+10
4.97068e+08
-2.20379e+09
-5.94267e+10
5.08112e+08
-2.28933e+09
-5.90651e+10
5.20345e+08
-2.31228e+09
-5.87134e+10
5.3376e+08
-2.2817e+09
-5.8375e+10
5.48105e+08
-2.21373e+09
-5.80467e+10
5.62906e+08
-2.12419e+09
-5.77266e+10
5.77882e+08
-2.02407e+09
-5.74083e+10
5.93113e+08
-1.92437e+09
-5.70864e+10
6.08847e+08
-1.83136e+09
-5.67576e+10
6.25437e+08
-1.74708e+09
-5.64151e+10
6.42514e+08
-1.67412e+09
-5.60532e+10
6.59479e+08
-1.61057e+09
-5.56658e+10
6.7655e+08
-1.55635e+09
-5.52496e+10
6.95126e+08
-1.50635e+09
-5.48039e+10
7.16327e+08
-1.45897e+09
-5.43258e+10
7.41278e+08
-1.41051e+09
-5.38168e+10
7.70407e+08
-1.35446e+09
-5.32767e+10
8.03898e+08
-1.28824e+09
-5.27081e+10
8.42399e+08
-1.20259e+09
-5.21143e+10
8.87407e+08
-1.09138e+09
-5.14956e+10
9.3941e+08
-9.46274e+08
-5.08585e+10
9.99518e+08
-7.52426e+08
-5.02147e+10
1.07112e+09
-4.90667e+08
-4.95763e+10
1.15768e+09
-1.19878e+08
-4.89288e+10
1.23693e+09
4.09502e+08
-4.82311e+10
1.32257e+09
1.17369e+09
-4.76176e+10
1.56857e+09
2.41441e+09
-4.69088e+10
2.3222e+09
5.50371e+09
-4.78245e+10
3.64662e+09
1.18909e+10
-6.00294e+10
8.82565e+09
2.68995e+10
3.61345e+09
7.76643e+09
-6.05483e+10
-8.49136e+07
-6.06079e+10
1.47895e+08
-6.06767e+10
2.19825e+08
-6.07601e+10
2.9381e+08
-6.08615e+10
3.75443e+08
-6.09753e+10
4.459e+08
-6.11013e+10
4.99671e+08
-6.12356e+10
5.42487e+08
-6.13723e+10
5.71113e+08
-6.15122e+10
5.84474e+08
-6.16502e+10
5.78438e+08
-6.1785e+10
5.52797e+08
-6.19114e+10
5.0494e+08
-6.20266e+10
4.29913e+08
-6.21277e+10
3.29911e+08
-6.22066e+10
2.03811e+08
-6.22581e+10
5.37392e+07
-6.22747e+10
-1.18974e+08
-6.2251e+10
-3.08232e+08
-6.21823e+10
-5.09143e+08
-6.20607e+10
-7.14582e+08
-6.18814e+10
-9.1344e+08
-6.16493e+10
-1.08211e+09
-6.13805e+10
-1.19958e+09
-6.10974e+10
-1.25026e+09
-6.08184e+10
-1.23538e+09
-6.05574e+10
-1.16277e+09
-6.03227e+10
-1.04834e+09
-6.0115e+10
-9.07913e+08
-5.99363e+10
-7.52816e+08
-5.97828e+10
-5.94196e+08
-5.96509e+10
-4.37979e+08
-5.95373e+10
-2.8611e+08
-5.94359e+10
-1.42731e+08
-5.93432e+10
-7.87613e+06
-5.92536e+10
1.18099e+08
-5.91628e+10
2.40728e+08
-5.90664e+10
3.57977e+08
-5.89556e+10
4.6962e+08
-5.88258e+10
5.80354e+08
-5.86693e+10
6.90081e+08
-5.8478e+10
8.03223e+08
-5.82428e+10
9.19488e+08
-5.79484e+10
1.03985e+09
-5.75859e+10
1.16843e+09
-5.7136e+10
1.30643e+09
-5.65639e+10
1.46866e+09
-5.58258e+10
1.66782e+09
-5.47995e+10
1.88915e+09
-5.31832e+10
2.16822e+09
-4.9937e+10
3.28211e+09
-4.49592e+10
7.31199e+09
-3.03693e+10
1.80766e+10
8.01432e+09
-5.7876e+10
1.58787e+08
-5.99491e+08
-5.79203e+10
1.79687e+08
-4.03413e+08
-5.79723e+10
1.90157e+08
-3.25065e+08
-5.80493e+10
2.02311e+08
-2.40526e+08
-5.8137e+10
2.07422e+08
-1.68379e+08
-5.8239e+10
2.09874e+08
-1.09552e+08
-5.83536e+10
2.11277e+08
-6.46395e+07
-5.84789e+10
2.14585e+08
-3.48801e+07
-5.86123e+10
2.17856e+08
-2.28018e+07
-5.87502e+10
2.19881e+08
-3.1181e+07
-5.88935e+10
2.1976e+08
-5.7174e+07
-5.90331e+10
2.18401e+08
-1.11985e+08
-5.91622e+10
2.16034e+08
-1.95972e+08
-5.92779e+10
2.11883e+08
-3.11349e+08
-5.93735e+10
2.05509e+08
-4.58987e+08
-5.94398e+10
1.97056e+08
-6.39154e+08
-5.94652e+10
1.86856e+08
-8.5124e+08
-5.94408e+10
1.74987e+08
-1.08908e+09
-5.93587e+10
1.61544e+08
-1.34961e+09
-5.92114e+10
1.48221e+08
-1.62706e+09
-5.8986e+10
1.35841e+08
-1.91853e+09
-5.86764e+10
1.253e+08
-2.20961e+09
-5.82827e+10
1.19187e+08
-2.46936e+09
-5.7837e+10
1.17529e+08
-2.66042e+09
-5.73744e+10
1.23117e+08
-2.76119e+09
-5.69345e+10
1.3587e+08
-2.77297e+09
-5.65394e+10
1.56306e+08
-2.71592e+09
-5.61999e+10
1.83396e+08
-2.61546e+09
-5.59191e+10
2.15591e+08
-2.49275e+09
-5.56902e+10
2.51062e+08
-2.36734e+09
-5.55076e+10
2.88122e+08
-2.24788e+09
-5.53614e+10
3.25295e+08
-2.14405e+09
-5.52419e+10
3.61668e+08
-2.05655e+09
-5.51414e+10
3.97024e+08
-1.98581e+09
-5.50517e+10
4.314e+08
-1.92989e+09
-5.49667e+10
4.6546e+08
-1.88723e+09
-5.4879e+10
5.01114e+08
-1.85521e+09
-5.4784e+10
5.4022e+08
-1.83133e+09
-5.46783e+10
5.84317e+08
-1.81157e+09
-5.4552e+10
6.34982e+08
-1.79779e+09
-5.44035e+10
6.94304e+08
-1.78068e+09
-5.42264e+10
7.64669e+08
-1.75822e+09
-5.40142e+10
8.49053e+08
-1.72653e+09
-5.37623e+10
9.50723e+08
-1.68088e+09
-5.34667e+10
1.07389e+09
-1.61415e+09
-5.31185e+10
1.22254e+09
-1.52637e+09
-5.26859e+10
1.40116e+09
-1.40931e+09
-5.20847e+10
1.59824e+09
-1.24907e+09
-5.11207e+10
1.76557e+09
-1.01731e+09
-4.91574e+10
1.80911e+09
-7.14309e+08
-4.43386e+10
1.92345e+09
-3.0411e+08
-3.81522e+10
3.20046e+09
3.62245e+09
-3.71555e+10
9.93702e+09
1.70438e+10
5.92801e+09
7.81113e+09
-5.80422e+10
1.84967e+08
-5.81266e+10
4.25132e+08
-5.8204e+10
4.99992e+08
-5.82919e+10
5.96358e+08
-5.8388e+10
6.91208e+08
-5.84918e+10
7.72256e+08
-5.86047e+10
8.37124e+08
-5.87225e+10
8.8906e+08
-5.8843e+10
9.24944e+08
-5.89619e+10
9.40544e+08
-5.90822e+10
9.38066e+08
-5.91972e+10
9.08403e+08
-5.93024e+10
8.50314e+08
-5.93972e+10
7.61629e+08
-5.94782e+10
6.41347e+08
-5.95409e+10
4.88721e+08
-5.9578e+10
3.04821e+08
-5.95917e+10
9.9675e+07
-5.9584e+10
-1.20719e+08
-5.95543e+10
-3.5265e+08
-5.94941e+10
-5.93876e+08
-5.93995e+10
-8.27481e+08
-5.9274e+10
-1.02395e+09
-5.91402e+10
-1.14293e+09
-5.9024e+10
-1.16581e+09
-5.89479e+10
-1.09499e+09
-5.89184e+10
-9.52371e+08
-5.89318e+10
-7.63734e+08
-5.89801e+10
-5.50472e+08
-5.9049e+10
-3.32117e+08
-5.9129e+10
-1.16977e+08
-5.92088e+10
8.56911e+07
-5.92786e+10
2.74389e+08
-5.93336e+10
4.50036e+08
-5.93749e+10
6.18511e+08
-5.94038e+10
7.81024e+08
-5.94137e+10
9.37018e+08
-5.93972e+10
1.08587e+09
-5.93474e+10
1.22958e+09
-5.92497e+10
1.36658e+09
-5.9093e+10
1.50268e+09
-5.88562e+10
1.63504e+09
-5.85144e+10
1.76206e+09
-5.80378e+10
1.88189e+09
-5.73921e+10
1.9933e+09
-5.65341e+10
2.08731e+09
-5.54008e+10
2.15998e+09
-5.39211e+10
2.21045e+09
-5.20416e+10
2.22823e+09
-4.98707e+10
2.35589e+09
-4.7037e+10
3.06916e+09
-4.01237e+10
4.49482e+09
-1.21469e+10
7.49864e+08
-1.3999e+09
-5.94979e+10
-1.34128e+08
-3.49494e+08
-5.96111e+10
-1.08664e+08
-1.66534e+08
-5.9722e+10
-1.07489e+08
-9.21134e+07
-5.98505e+10
-9.98774e+07
2.3094e+06
-5.99868e+10
-1.00826e+08
8.36329e+07
-6.01339e+10
-1.05602e+08
1.5865e+08
-6.0295e+10
-1.11205e+08
2.24093e+08
-6.0467e+10
-1.15292e+08
2.69839e+08
-6.0649e+10
-1.2027e+08
2.98183e+08
-6.08391e+10
-1.26985e+08
3.06547e+08
-6.1027e+10
-1.35832e+08
2.90168e+08
-6.12102e+10
-1.45725e+08
2.43912e+08
-6.13839e+10
-1.56575e+08
1.64122e+08
-6.15429e+10
-1.68631e+08
4.67699e+07
-6.16825e+10
-1.81668e+08
-1.08271e+08
-6.17942e+10
-1.95272e+08
-3.05301e+08
-6.18677e+10
-2.08038e+08
-5.42437e+08
-6.18922e+10
-2.16876e+08
-8.19358e+08
-6.18605e+10
-2.21996e+08
-1.12881e+09
-6.17654e+10
-2.26134e+08
-1.4619e+09
-6.15963e+10
-2.29864e+08
-1.8195e+09
-6.13298e+10
-2.31822e+08
-2.19089e+09
-6.09651e+10
-2.35184e+08
-2.53156e+09
-6.05292e+10
-2.42004e+08
-2.76925e+09
-6.00789e+10
-2.56137e+08
-2.85841e+09
-5.96596e+10
-2.78695e+08
-2.80844e+09
-5.92968e+10
-3.08859e+08
-2.65848e+09
-5.89975e+10
-3.44857e+08
-2.45187e+09
-5.87551e+10
-3.84772e+08
-2.22366e+09
-5.85577e+10
-4.27031e+08
-1.99998e+09
-5.83913e+10
-4.70512e+08
-1.79317e+09
-5.82455e+10
-5.14709e+08
-1.60969e+09
-5.81098e+10
-5.60801e+08
-1.44926e+09
-5.79754e+10
-6.08721e+08
-1.31053e+09
-5.78345e+10
-6.56774e+08
-1.19187e+09
-5.76817e+10
-7.05594e+08
-1.08815e+09
-5.75072e+10
-7.56986e+08
-9.99109e+08
-5.73031e+10
-8.11676e+08
-9.18955e+08
-5.70566e+10
-8.69292e+08
-8.48869e+08
-5.67588e+10
-9.281e+08
-7.87858e+08
-5.63917e+10
-9.86439e+08
-7.3792e+08
-5.59359e+10
-1.04201e+09
-6.99095e+08
-5.5371e+10
-1.09132e+09
-6.72999e+08
-5.46706e+10
-1.12808e+09
-6.68566e+08
-5.38091e+10
-1.14395e+09
-6.94127e+08
-5.27553e+10
-1.1253e+09
-7.72777e+08
-5.14697e+10
-1.05013e+09
-9.27323e+08
-4.98945e+10
-8.93494e+08
-1.16518e+09
-4.79082e+10
-7.15575e+08
-1.41561e+09
-4.53608e+10
-6.41299e+08
-1.51746e+09
-4.25948e+10
-2.61508e+08
-1.48709e+09
-3.59917e+10
6.47345e+08
-1.99682e+09
-8.53018e+09
-2.25384e+09
-6.81191e+09
-1.77317e+09
-4.96053e+09
-5.27885e+10
1.17116e+08
-5.27917e+10
3.30659e+08
-5.28099e+10
4.21412e+08
-5.28295e+10
5.26902e+08
-5.28489e+10
6.20975e+08
-5.28751e+10
7.04687e+08
-5.29176e+10
7.80692e+08
-5.29703e+10
8.39509e+08
-5.3033e+10
8.81383e+08
-5.3105e+10
9.00982e+08
-5.31807e+10
8.95432e+08
-5.32589e+10
8.60686e+08
-5.3337e+10
7.93242e+08
-5.34122e+10
6.89516e+08
-5.34813e+10
5.48694e+08
-5.35355e+10
3.66365e+08
-5.35624e+10
1.41986e+08
-5.35359e+10
-1.24474e+08
-5.34326e+10
-4.25893e+08
-5.32387e+10
-7.50215e+08
-5.29371e+10
-1.09681e+09
-5.25035e+10
-1.45571e+09
-5.19334e+10
-1.77925e+09
-5.12663e+10
-1.98932e+09
-5.05779e+10
-2.03787e+09
-4.9937e+10
-1.93475e+09
-4.93887e+10
-1.72432e+09
-4.8954e+10
-1.45273e+09
-4.86343e+10
-1.1574e+09
-4.84216e+10
-8.6579e+08
-4.83021e+10
-5.90749e+08
-4.82643e+10
-3.38882e+08
-4.82993e+10
-1.09989e+08
-4.84002e+10
9.86673e+07
-4.85551e+10
2.90113e+08
-4.87542e+10
4.6748e+08
-4.89915e+10
6.32798e+08
-4.92698e+10
7.93533e+08
-4.95885e+10
9.49181e+08
-4.99492e+10
1.10215e+09
-5.03436e+10
1.25046e+09
-5.07636e+10
1.39399e+09
-5.11977e+10
1.53143e+09
-5.16219e+10
1.65028e+09
-5.19964e+10
1.73694e+09
-5.22509e+10
1.75984e+09
-5.22638e+10
1.6899e+09
-5.18121e+10
1.47523e+09
-5.06896e+10
1.09869e+09
-4.92019e+10
1.11959e+09
-4.66812e+10
1.46679e+09
-3.72193e+10
-3.04214e+09
-1.80017e+10
-1.98933e+10
-1.17014e+10
-6.01407e+10
-2.63607e+08
-5.14253e+07
-6.01587e+10
-2.66711e+08
1.28651e+08
-6.01847e+10
-2.76713e+08
2.21384e+08
-6.02202e+10
-2.84503e+08
3.33605e+08
-6.02682e+10
-2.92805e+08
4.36404e+08
-6.03274e+10
-3.0197e+08
5.32236e+08
-6.03995e+10
-3.11053e+08
6.20012e+08
-6.04866e+10
-3.19354e+08
6.89007e+08
-6.05853e+10
-3.27704e+08
7.37742e+08
-6.06924e+10
-3.36212e+08
7.63873e+08
-6.08026e+10
-3.4367e+08
7.59784e+08
-6.09091e+10
-3.49286e+08
7.17597e+08
-6.10094e+10
-3.52798e+08
6.3654e+08
-6.11019e+10
-3.54075e+08
5.11941e+08
-6.1179e+10
-3.53313e+08
3.37073e+08
-6.12326e+10
-3.51349e+08
1.0954e+08
-6.12496e+10
-3.48807e+08
-1.71437e+08
-6.12191e+10
-3.4708e+08
-5.01091e+08
-6.11323e+10
-3.45025e+08
-8.71046e+08
-6.09811e+10
-3.42131e+08
-1.27365e+09
-6.07539e+10
-3.37824e+08
-1.71001e+09
-6.04161e+10
-3.31196e+08
-2.18905e+09
-5.9939e+10
-3.23871e+08
-2.66354e+09
-5.93526e+10
-3.16728e+08
-2.99566e+09
-5.87561e+10
-3.13854e+08
-3.08469e+09
-5.82309e+10
-3.14485e+08
-2.95301e+09
-5.78138e+10
-3.19127e+08
-2.68746e+09
-5.75108e+10
-3.27229e+08
-2.3575e+09
-5.73072e+10
-3.38743e+08
-2.01647e+09
-5.71835e+10
-3.5371e+08
-1.6944e+09
-5.71188e+10
-3.72146e+08
-1.40506e+09
-5.70989e+10
-3.93905e+08
-1.14859e+09
-5.7112e+10
-4.18424e+08
-9.22651e+08
-5.7151e+10
-4.4566e+08
-7.21278e+08
-5.72153e+10
-4.76134e+08
-5.35647e+08
-5.73013e+10
-5.10164e+08
-3.62532e+08
-5.74126e+10
-5.48401e+08
-1.93787e+08
-5.75482e+10
-5.91184e+08
-2.70524e+07
-5.77143e+10
-6.39587e+08
1.45066e+08
-5.79137e+10
-6.95519e+08
3.22151e+08
-5.81508e+10
-7.59475e+08
5.05021e+08
-5.8431e+10
-8.30808e+08
6.94053e+08
-5.87616e+10
-9.09051e+08
8.87667e+08
-5.91532e+10
-9.93844e+08
1.07477e+09
-5.96191e+10
-1.0838e+09
1.23994e+09
-6.01672e+10
-1.17253e+09
1.34021e+09
-6.07621e+10
-1.24199e+09
1.29631e+09
-6.12172e+10
-1.30121e+09
9.76799e+08
-6.10128e+10
-1.45611e+09
2.80605e+08
-5.96584e+10
-1.42703e+09
-9.41707e+08
-5.66384e+10
-9.18651e+08
-2.7743e+09
-4.89195e+10
-1.99919e+09
-6.67542e+09
-2.62588e+10
-1.06917e+10
-1.82634e+10
-6.70169e+09