/*--------------------------------*- C++ -*----------------------------------*\
| =========                 |                                                 |
| \\      /  F ield         | OpenFOAM: The Open Source CFD Toolbox           |
|  \\    /   O peration     | Version:  4.1                                   |
|   \\  /    A nd           | Web:      www.OpenFOAM.org                      |
|    \\/     M anipulation  |                                                 |
\*---------------------------------------------------------------------------*/
FoamFile
{
    version     2.0;
    format      ascii;
    class       volVectorField;
    location    "54";
    object      U;
}
// * * * * * * * * * * * * * * * * * * * * * * * * * * * * * * * * * * * * * //

dimensions      [0 1 -1 0 0 0 0];

internalField   nonuniform List<vector> 
4432
(
(-170895 -4385.95 -3425.47)
(-175575 -3736.34 -2563.25)
(-173391 -2960.69 -1404.87)
(-172062 -3805.43 -2604.85)
(-172607 -3692.96 -2581.4)
(-172644 -3628.77 -2297.93)
(-172245 -3685.77 -2436.15)
(-172104 -3682.68 -2446.69)
(-172011 -3698.69 -2491.02)
(-171935 -3733.52 -2563.08)
(-171822 -3780.29 -2658.69)
(-171644 -3826.21 -2792.09)
(-171374 -3871.81 -2957.06)
(-171006 -3922.37 -3139.73)
(-170523 -3976.85 -3325.85)
(-169869 -4032.79 -3537.1)
(-168993 -4087.57 -3777.35)
(-167874 -4145.93 -4039.87)
(-166494 -4208.56 -4315.01)
(-164826 -4274.91 -4599.56)
(-162838 -4341.48 -4882.92)
(-160523 -4411.06 -5160.4)
(-157899 -4481.97 -5419.7)
(-155000 -4554.78 -5653.69)
(-151884 -4628.12 -5856.26)
(-148599 -4700.95 -6027.29)
(-145199 -4771.76 -6167.74)
(-141723 -4840.1 -6281.2)
(-138222 -4905.29 -6370.63)
(-134726 -4967.42 -6440.33)
(-131275 -5026.16 -6494.26)
(-127901 -5081.18 -6536.4)
(-124626 -5131.53 -6572.38)
(-121486 -5176.38 -6603.82)
(-118497 -5215.84 -6631.39)
(-115682 -5249.32 -6653.75)
(-113057 -5273.06 -6659.16)
(-110636 -5281 -6630.98)
(-108449 -5266.17 -6557.41)
(-106529 -5227.12 -6430.08)
(-104821 -5162.92 -6263.21)
(-103302 -5063.17 -6031.39)
(-101931 -4913.57 -5700.87)
(-100697 -4695.75 -5229.87)
(-99752.6 -4388.66 -4563.95)
(-99506.2 -3964.77 -3654.59)
(-100203 -3393.84 -2505.62)
(-100654 -2593.52 -940.689)
(-98426.8 -1350.03 1340.22)
(-95446.6 1119.22 5967.23)
(-108004 6684.74 11117.6)
(-149561 12006.5 18032.6)
(-183208 22572.7 2582.01)
(-52967.9 11639.5 -6962.99)
(-228052 1537.1 -2145.73)
(-229034 2116.21 -2334.17)
(-228585 2752.71 -2207.34)
(-227784 2166.63 -2287.23)
(-227523 2317.99 -2427.48)
(-227454 2420.41 -2285.3)
(-226967 2435.07 -2383.73)
(-226603 2496.82 -2413.12)
(-226297 2544.38 -2475.98)
(-225991 2578.4 -2541.92)
(-225635 2604.02 -2629.42)
(-225223 2631 -2747.77)
(-224755 2658.94 -2891.18)
(-224236 2684.16 -3044.97)
(-223649 2707.59 -3206.69)
(-222943 2733.2 -3388.91)
(-222086 2764.1 -3591.99)
(-221069 2796.73 -3804.83)
(-219879 2831.42 -4027.22)
(-218494 2868.79 -4250.62)
(-216897 2912.19 -4471.39)
(-215087 2959.96 -4682.08)
(-213078 3013.41 -4875.06)
(-210899 3072.51 -5044.35)
(-208587 3137.72 -5185.74)
(-206178 3209.91 -5298.78)
(-203702 3289.11 -5384.11)
(-201184 3375.35 -5444.03)
(-198646 3467.54 -5480.6)
(-196099 3564.7 -5496.52)
(-193556 3665.33 -5494.26)
(-191019 3767.76 -5475.44)
(-188487 3870.79 -5441.14)
(-185960 3972.15 -5390.69)
(-183427 4069.17 -5322.74)
(-180881 4159.31 -5234.15)
(-178313 4241.2 -5118.69)
(-175705 4314.74 -4972.58)
(-173042 4378.82 -4790.58)
(-170299 4430.67 -4563.79)
(-167457 4469.83 -4281.47)
(-164490 4503.96 -3931.69)
(-161343 4541.27 -3499.17)
(-157974 4585.84 -2965.08)
(-154453 4643.81 -2299.25)
(-151041 4723.42 -1470.67)
(-147940 4830.35 -492.131)
(-144408 5015.05 617.23)
(-138685 5427.29 2104.18)
(-131320 6447.64 5061.36)
(-135412 8597.47 8281.21)
(-156901 8747.62 10794.2)
(-191872 5249.91 4219.5)
(17131.4 9861.88 -20506.2)
(-268825 -1669.45 2855.82)
(-269148 -1928.32 2632.17)
(-269695 -2047 3587.3)
(-269749 -1851.98 2808.55)
(-269632 -1888.51 2778.36)
(-270044 -1884.55 3091.16)
(-270243 -1887.44 3211.13)
(-270374 -1875.91 3338.08)
(-270598 -1881.97 3414.78)
(-270830 -1884.45 3462.66)
(-271050 -1897.57 3477.55)
(-271250 -1912 3447.89)
(-271407 -1927.57 3380.44)
(-271528 -1944.45 3285.51)
(-271630 -1969.31 3169.46)
(-271687 -1997.48 3036.24)
(-271696 -2025.03 2889.91)
(-271658 -2050.56 2730.47)
(-271570 -2080.89 2564.37)
(-271429 -2111.26 2401.65)
(-271229 -2143.73 2254.51)
(-270972 -2177.34 2132.61)
(-270673 -2212.93 2051)
(-270357 -2250.69 2020.06)
(-270055 -2290.25 2046.66)
(-269785 -2330.81 2130.37)
(-269568 -2371.52 2268.17)
(-269407 -2411.86 2453.45)
(-269312 -2451.44 2680.27)
(-269280 -2490.28 2940.71)
(-269318 -2528.2 3228.68)
(-269428 -2564.66 3539.67)
(-269615 -2597.78 3872.01)
(-269886 -2626.18 4224.53)
(-270248 -2648.95 4596.9)
(-270734 -2665.34 4993.64)
(-271371 -2676.16 5415.3)
(-272165 -2683.4 5862.73)
(-273143 -2685.5 6342.76)
(-274317 -2677.19 6863.39)
(-275770 -2649.74 7445.61)
(-277566 -2600.77 8112.04)
(-279742 -2524.92 8886.21)
(-282406 -2416.1 9799.31)
(-285757 -2266.11 10870.3)
(-290172 -2059.6 12090.8)
(-296018 -1781.34 13418.4)
(-303244 -1439.01 14774.3)
(-310207 -830.946 16336.7)
(-319670 320.582 18384)
(-334658 2183.31 20421.2)
(-389297 3783.95 17414.5)
(-405472 3714.48 1239.36)
(-464063 20539.2 -16737.4)
(-294083 1805.22 905.799)
(-294951 1567.59 193.411)
(-295329 1463.08 306.45)
(-295588 1646.88 406.843)
(-295931 1626.02 271.904)
(-296585 1638.43 480.702)
(-297045 1643.68 584.235)
(-297452 1663.83 682.815)
(-297960 1667.72 730.736)
(-298475 1675.49 772.893)
(-298989 1674.11 791.924)
(-299493 1672.17 776.544)
(-299979 1669.93 729.411)
(-300465 1667.58 663.464)
(-300974 1659.25 584.646)
(-301481 1647.85 487.561)
(-301956 1635.89 372.556)
(-302407 1624.69 244.976)
(-302834 1608.04 108.297)
(-303232 1590.16 -27.4879)
(-303599 1569.17 -155.897)
(-303940 1545.98 -266.01)
(-304267 1519.99 -347.207)
(-304601 1491.29 -390.885)
(-304971 1460.36 -391.952)
(-305386 1428.41 -351.124)
(-305863 1396.26 -271.554)
(-306397 1364.85 -159.122)
(-306989 1334.54 -19.4428)
(-307624 1305.62 140.635)
(-308297 1278.17 315.549)
(-308991 1252.78 500.809)
(-309692 1230.92 693.836)
(-310387 1213.3 893.931)
(-311058 1200.38 1101.29)
(-311697 1191.82 1317.41)
(-312295 1185.6 1546.1)
(-312851 1179.32 1794.67)
(-313384 1172.13 2071.58)
(-313902 1167.94 2378.21)
(-314387 1168.67 2719.12)
(-314837 1170.69 3108.09)
(-315240 1173.69 3560.29)
(-315614 1175.88 4091.24)
(-316053 1175.07 4715.04)
(-316780 1170.77 5430.59)
(-317900 1135.59 6246.76)
(-319105 997.606 7218.89)
(-319065 909.486 8535.01)
(-317618 846.43 10125.3)
(-317375 1213.1 11218.5)
(-334553 -6771.8 13613.4)
(-315359 -955.161 2069.07)
(-302725 -9631.26 5836.77)
(-218561 -2084.16 -590.953)
(-216315 -2192.31 -1515.55)
(-216410 -2600.79 -1720.03)
(-216262 -2171.44 -1380.62)
(-215782 -2209.5 -1641.49)
(-215694 -2258.07 -1654.17)
(-215619 -2299.43 -1562.55)
(-215593 -2309.09 -1540.89)
(-215590 -2338.91 -1560.35)
(-215574 -2355.51 -1598.92)
(-215547 -2372.25 -1682.43)
(-215501 -2381.03 -1815.68)
(-215409 -2388.26 -2000.85)
(-215295 -2394.61 -2238.93)
(-215184 -2400.48 -2532.71)
(-215046 -2411.53 -2859.59)
(-214799 -2422.95 -3223.65)
(-214429 -2430.56 -3621.63)
(-213927 -2437.56 -4052.72)
(-213274 -2441.33 -4497.55)
(-212464 -2444.4 -4945.9)
(-211497 -2445 -5375.88)
(-210393 -2445.41 -5766.17)
(-209201 -2446.84 -6096.11)
(-207978 -2449.68 -6352.63)
(-206775 -2453.79 -6533.44)
(-205634 -2458.8 -6643.06)
(-204585 -2464.61 -6692.03)
(-203646 -2471.39 -6691.06)
(-202831 -2479.18 -6653.2)
(-202142 -2487.9 -6588.13)
(-201571 -2498.21 -6499.39)
(-201110 -2511.06 -6383.93)
(-200744 -2525.43 -6248.45)
(-200452 -2540.17 -6103.29)
(-200196 -2553.48 -5945.6)
(-199937 -2558.51 -5780.35)
(-199669 -2548.9 -5610.62)
(-199367 -2527.46 -5440.31)
(-198934 -2497.85 -5264.64)
(-198323 -2456.08 -5074.43)
(-197462 -2394.62 -4866.42)
(-196283 -2305.73 -4627.92)
(-194700 -2173.47 -4365.54)
(-192740 -1964.78 -4112.54)
(-190621 -1638.24 -3938.96)
(-188455 -1135.39 -3957.63)
(-185209 -326.298 -4326.24)
(-179298 1023.86 -4798.4)
(-172114 2819.12 -5614.86)
(-176107 6404.85 -7476.59)
(-198963 9471.14 -12419.7)
(-210180 26406.5 -14186)
(-75476.9 12493.5 -7578.52)
(-245673 3109.87 -1256.61)
(-245225 3073.92 -1666.83)
(-244886 2742.1 -1608.45)
(-244762 3156.47 -1391.76)
(-244940 3156.66 -1576.05)
(-245076 3144.4 -1631.5)
(-245236 3139.77 -1534.11)
(-245461 3162.47 -1512.55)
(-245727 3167.42 -1514.58)
(-245964 3183.43 -1528.92)
(-246188 3199.12 -1571.48)
(-246380 3221.25 -1651.36)
(-246511 3244.16 -1776.2)
(-246590 3267.14 -1952.18)
(-246629 3289.87 -2173.67)
(-246596 3307.63 -2425.09)
(-246454 3325.09 -2705.08)
(-246198 3345.84 -3016.39)
(-245819 3367.05 -3348.29)
(-245300 3391.07 -3691.18)
(-244637 3415.77 -4031.61)
(-243833 3442.5 -4352.15)
(-242909 3469.41 -4634.05)
(-241908 3495.26 -4860.17)
(-240881 3519.67 -5020.16)
(-239874 3542.65 -5113.29)
(-238927 3564.32 -5144.35)
(-238064 3584.6 -5123.52)
(-237305 3603.11 -5060.69)
(-236658 3619.61 -4967.08)
(-236124 3633.78 -4851.71)
(-235693 3644.79 -4721.76)
(-235352 3651.34 -4581.36)
(-235081 3653.84 -4433.49)
(-234853 3652.22 -4280.54)
(-234641 3646.89 -4124.91)
(-234403 3642.3 -3969.91)
(-234087 3642.47 -3823.2)
(-233583 3648.75 -3696.52)
(-232816 3656.21 -3592.99)
(-231733 3665.81 -3506.24)
(-230260 3679.89 -3424.89)
(-228295 3702.92 -3338.97)
(-225745 3744.54 -3242.71)
(-222591 3825.44 -3143.6)
(-218940 3971.98 -3069.81)
(-214817 4215.19 -3049.64)
(-209329 4622.13 -3025.86)
(-200940 5270.93 -2948.43)
(-189971 6155.3 -3155.2)
(-190120 7316.36 -4053.81)
(-201132 6038.75 -4675.46)
(-213232 4341.27 -3956.98)
(27309.9 9960.71 1913.03)
(-236045 -2998.5 217.581)
(-235969 -2893.54 1058.29)
(-235696 -2799.49 794.628)
(-235676 -2687.76 1379.69)
(-235772 -2702.08 1431.97)
(-235800 -2766.5 1504.69)
(-235869 -2783.06 1553.51)
(-235981 -2799.38 1588.97)
(-236138 -2826.55 1594.08)
(-236287 -2846.83 1563.96)
(-236428 -2869.11 1491.54)
(-236532 -2886.56 1388.17)
(-236568 -2903.45 1232.65)
(-236544 -2923.38 1015.04)
(-236465 -2944.04 737.323)
(-236328 -2966.14 415.828)
(-236107 -2984.93 51.3473)
(-235798 -3003.93 -345.615)
(-235392 -3020.02 -761.525)
(-234880 -3034.93 -1177.64)
(-234261 -3046.21 -1575.3)
(-233537 -3054.19 -1927.45)
(-232735 -3059.56 -2206.1)
(-231905 -3063.32 -2387.15)
(-231104 -3066.21 -2456.91)
(-230385 -3068.74 -2418.75)
(-229781 -3071.24 -2287.51)
(-229310 -3074.54 -2085.67)
(-228981 -3079.39 -1836.79)
(-228792 -3086.29 -1562.88)
(-228735 -3096.23 -1281.22)
(-228797 -3113.24 -1004.51)
(-228979 -3142.77 -740.676)
(-229285 -3181.48 -499.272)
(-229704 -3224.41 -289.171)
(-230234 -3279.98 -111.082)
(-230892 -3348.7 40.2038)
(-231697 -3431.32 168.317)
(-232667 -3531.54 271.225)
(-233916 -3644.89 368.252)
(-235489 -3771.35 469.032)
(-237472 -3913.58 609.753)
(-239901 -4071.37 823.899)
(-242841 -4236.12 1147.42)
(-246477 -4388.99 1624.42)
(-251222 -4488.53 2309.23)
(-257487 -4470.15 3267.11)
(-264851 -4222.88 4659.65)
(-271839 -3588.57 6683)
(-279550 -2440.86 8704.55)
(-298726 -356.685 7304.7)
(-363181 202.661 10793.1)
(-467247 16257.8 2422.85)
(-401522 26222.6 -14547.1)
(-265057 1501 -37.0467)
(-265040 1629.27 796.177)
(-264997 1737.05 1046.47)
(-265284 1862.04 1308.25)
(-265720 1876.68 1417.52)
(-265932 1846.47 1527.52)
(-266112 1858.44 1614.34)
(-266364 1869.8 1662.69)
(-266637 1871.3 1711.74)
(-266888 1878.66 1727.55)
(-267132 1883.88 1704.41)
(-267346 1892.99 1645.34)
(-267514 1902.11 1542.23)
(-267646 1908 1385.35)
(-267743 1912.68 1177.28)
(-267781 1915.44 934.445)
(-267743 1920.56 658.383)
(-267625 1924.94 355.918)
(-267419 1931.45 43.3721)
(-267115 1938.64 -264.94)
(-266708 1948.83 -548.504)
(-266196 1961.79 -784.536)
(-265599 1977.12 -947.226)
(-264948 1993.99 -1014.79)
(-264286 2011.68 -977.015)
(-263647 2029.57 -837.159)
(-263049 2047.07 -609.534)
(-262500 2063.04 -314.626)
(-261998 2076.39 26.5384)
(-261535 2086.23 394.058)
(-261098 2091.09 771.385)
(-260670 2086.91 1144.92)
(-260234 2068.36 1505.99)
(-259773 2037.84 1847.22)
(-259269 1998.78 2162.75)
(-258707 1943.02 2449.22)
(-258067 1868.6 2703.28)
(-257344 1771.24 2921.02)
(-256572 1647.92 3111.6)
(-255771 1499.28 3296.91)
(-254915 1322.97 3490.28)
(-253972 1116.31 3704.22)
(-252884 877.254 3949.41)
(-251600 608.893 4240)
(-250151 321.711 4585.16)
(-248721 43.2742 4991.47)
(-247390 -181.63 5460.89)
(-245531 -277.477 6004.86)
(-241363 -135.639 6265.67)
(-235625 245.368 5410.06)
(-235240 1441.11 2848.13)
(-256863 -2163.88 3501.59)
(-236736 10171.8 -20732.5)
(-109528 5096.34 -12227)
(-221269 -2862.91 -1768.81)
(-220819 -2938.3 -910.226)
(-220548 -2791.97 -668.876)
(-220343 -2716.46 -409.264)
(-220323 -2717.07 -172.637)
(-220238 -2743.72 15.5238)
(-220201 -2761.13 157.89)
(-220193 -2776.65 238.295)
(-220222 -2777.11 272.837)
(-220239 -2765.98 231.372)
(-220229 -2757.04 108.447)
(-220195 -2752.15 -65.025)
(-220128 -2746.25 -305.649)
(-220028 -2742.96 -627.069)
(-219885 -2744.17 -1027.29)
(-219625 -2750.91 -1506.53)
(-219186 -2758.8 -2061.51)
(-218538 -2767.85 -2685.34)
(-217647 -2776.38 -3355.4)
(-216480 -2784.58 -4055.17)
(-215006 -2789.8 -4755.41)
(-213207 -2790.77 -5420.31)
(-211095 -2786.97 -6003.2)
(-208726 -2776.56 -6458.06)
(-206189 -2759.79 -6758.16)
(-203577 -2734.16 -6901.71)
(-200969 -2698.26 -6908.24)
(-198424 -2650.53 -6809.09)
(-195984 -2589.59 -6637.58)
(-193677 -2514.24 -6422.81)
(-191518 -2424.63 -6187.27)
(-189515 -2323.13 -5952.21)
(-187675 -2211.65 -5735.37)
(-186008 -2086.2 -5536.8)
(-184522 -1941.01 -5349.69)
(-183228 -1775.25 -5182.56)
(-182143 -1587.62 -5033.09)
(-181284 -1375.76 -4891.23)
(-180669 -1139.65 -4741.74)
(-180297 -878.057 -4568.79)
(-180189 -591.817 -4377.87)
(-180333 -272.012 -4151.76)
(-180745 84.988 -3867.04)
(-181466 484.881 -3477.15)
(-182697 939.582 -2905.59)
(-184928 1464.45 -2024.85)
(-188641 2080.8 -593.059)
(-193427 2687.11 1578.05)
(-197024 3131.59 4775.52)
(-201243 3495.04 9088.56)
(-224701 6814.99 18185.5)
(-337663 5513.77 29969.3)
(-514744 2345.96 55369.7)
(-308139 -7023.86 12051.7)
(-238126 2216.64 -2751.08)
(-237654 2136.97 -2090.52)
(-237470 2278.12 -1941.27)
(-237555 2352.07 -1786.92)
(-237764 2358.08 -1560.8)
(-237846 2341.62 -1311.17)
(-237957 2335.49 -1151.92)
(-238095 2331.85 -1066.69)
(-238259 2342.83 -1014.62)
(-238425 2364.69 -1031.68)
(-238574 2383.87 -1112.5)
(-238683 2398.18 -1250.22)
(-238742 2411.51 -1454.16)
(-238744 2419.73 -1734.49)
(-238674 2420.31 -2088.7)
(-238494 2411.75 -2510.05)
(-238176 2397.95 -2999.42)
(-237695 2377.77 -3545.91)
(-237026 2351.76 -4131.73)
(-236142 2318.44 -4737.36)
(-235021 2279.22 -5336.9)
(-233650 2234.2 -5896.23)
(-232042 2183.28 -6370.96)
(-230249 2128.03 -6720.46)
(-228344 2068.69 -6921.24)
(-226399 2008.31 -6973.13)
(-224471 1949.08 -6895.94)
(-222598 1893.1 -6720.34)
(-220799 1842.01 -6478.74)
(-219086 1796.91 -6199.2)
(-217461 1757.12 -5902.75)
(-215917 1720.12 -5605.1)
(-214450 1683.43 -5315.51)
(-213056 1649.72 -5039.29)
(-211731 1622.99 -4778.4)
(-210470 1602.72 -4530.76)
(-209272 1588.82 -4292.1)
(-208132 1581.21 -4056.34)
(-207029 1575.8 -3822.92)
(-205921 1572.81 -3591.95)
(-204795 1573.79 -3362.06)
(-203608 1579.11 -3127.72)
(-202318 1586.52 -2881.25)
(-200912 1597.77 -2610.38)
(-199482 1617.38 -2298.25)
(-198325 1655.45 -1909.04)
(-197688 1735.32 -1329.48)
(-196891 1799.25 -377.104)
(-194317 1540.53 1100.5)
(-191817 1004.89 2361.4)
(-204599 3397.93 6348.61)
(-250299 2587.84 17785)
(-330155 4484.77 54314.3)
(-256933 -2521.49 23680.1)
(-240135 -1402.59 -275.939)
(-240157 -1444.52 477.052)
(-240186 -1420.61 802.113)
(-240356 -1392.05 1049.17)
(-240603 -1391.96 1284.61)
(-240867 -1376.14 1437.97)
(-241187 -1363.15 1547.3)
(-241563 -1368.18 1608.75)
(-242012 -1375.75 1627.08)
(-242503 -1376.15 1574.4)
(-242970 -1368.13 1439.6)
(-243390 -1366.28 1218)
(-243771 -1367.99 906.36)
(-244097 -1374.1 496.936)
(-244346 -1384.02 -6.46485)
(-244497 -1394.77 -600.524)
(-244537 -1406.13 -1272.76)
(-244438 -1417.06 -2007.6)
(-244173 -1427.21 -2782.37)
(-243719 -1433.76 -3573.44)
(-243046 -1434.48 -4348.23)
(-242131 -1427.42 -5058.52)
(-240983 -1409.73 -5640)
(-239654 -1381.65 -6027)
(-238230 -1342.76 -6188.82)
(-236791 -1293.41 -6131.28)
(-235388 -1234.79 -5894.89)
(-234039 -1169.32 -5534.12)
(-232742 -1099.54 -5102.78)
(-231479 -1027.12 -4643.92)
(-230227 -953.371 -4187.95)
(-228965 -878.551 -3756.8)
(-227674 -800.506 -3364.15)
(-226338 -718.33 -3009.62)
(-224933 -633.303 -2686.1)
(-223434 -543.461 -2388.26)
(-221831 -442.475 -2106.19)
(-220116 -324.485 -1827.49)
(-218286 -183.294 -1540.48)
(-216342 -13.4188 -1231.79)
(-214275 190.887 -887.386)
(-212078 438.159 -489.643)
(-209735 739.395 -22.611)
(-207248 1103.39 528.197)
(-204694 1540.27 1184.05)
(-202282 2067.18 1993.93)
(-200163 2697.04 3065.72)
(-197640 3382.84 4554.92)
(-192606 4220.98 6488.87)
(-184129 5591.42 9053.21)
(-186594 7618.32 18589.9)
(-214150 8552.41 40995.5)
(-269583 20187.7 93132.9)
(-190806 10794.5 21708.6)
(-242072 3933.55 -865.802)
(-242332 3980.59 -88.5589)
(-242471 4046.5 58.355)
(-242852 4128.17 212.775)
(-243284 4177.58 446.696)
(-243679 4243.97 652.545)
(-244146 4308.53 804.484)
(-244657 4356.29 897.111)
(-245204 4402.68 930.49)
(-245774 4457.79 896.925)
(-246337 4523.48 793.569)
(-246878 4585.82 610.94)
(-247395 4647.25 339.919)
(-247879 4707.04 -25.8869)
(-248313 4765.59 -481.121)
(-248668 4824.62 -1021.58)
(-248918 4883.9 -1645.06)
(-249040 4945.93 -2340.55)
(-249010 5009.85 -3090.17)
(-248804 5076.94 -3870.37)
(-248395 5147.31 -4652.05)
(-247757 5219.87 -5389.58)
(-246896 5293.7 -6017.26)
(-245865 5364.51 -6470.17)
(-244748 5429.24 -6710.11)
(-243627 5485.46 -6738.31)
(-242567 5531.61 -6587.41)
(-241604 5566.51 -6306.39)
(-240750 5589.87 -5946.04)
(-240008 5602.59 -5549.29)
(-239368 5605.67 -5146.84)
(-238816 5601.03 -4759.69)
(-238336 5591.69 -4401.17)
(-237911 5577.54 -4077.02)
(-237524 5556.63 -3790.04)
(-237160 5530.87 -3538.9)
(-236806 5504.34 -3315.43)
(-236446 5479.3 -3115.88)
(-236057 5456 -2943.33)
(-235611 5433.6 -2794.31)
(-235077 5411.43 -2660.53)
(-234410 5390.34 -2534.98)
(-233552 5373.22 -2408.54)
(-232446 5359.13 -2272.98)
(-231108 5345.35 -2115.79)
(-229660 5331.92 -1901.09)
(-228077 5317.91 -1550.24)
(-225409 5231.1 -1021.03)
(-219829 5081.44 -346.923)
(-210293 5013.45 796.727)
(-205749 5246.83 6222.74)
(-209284 3513.6 19780.7)
(-198173 7932.76 70114.8)
(-51919.5 6500.99 30533.6)
(-231372 -1063.62 -3166.34)
(-231572 -1037.36 -2317.3)
(-231728 -1099.56 -2022.29)
(-232034 -1138.72 -1737.27)
(-232384 -1167.2 -1503.48)
(-232769 -1171.29 -1320.8)
(-233175 -1187.42 -1186.99)
(-233633 -1224.52 -1107.03)
(-234165 -1274.13 -1101.43)
(-234735 -1318.65 -1174.21)
(-235301 -1363.7 -1314.72)
(-235861 -1416.43 -1553.87)
(-236400 -1477.25 -1903.59)
(-236894 -1547.7 -2371.08)
(-237319 -1628.81 -2957.39)
(-237639 -1720.5 -3662.09)
(-237813 -1822.7 -4482.42)
(-237802 -1936.53 -5403.61)
(-237573 -2063.65 -6406.74)
(-237093 -2202.61 -7471.04)
(-236317 -2352.41 -8569.23)
(-235196 -2512.51 -9650.26)
(-233728 -2678.63 -10615.5)
(-231996 -2849.33 -11356.7)
(-230152 -3017.34 -11803.3)
(-228350 -3178.39 -11958.2)
(-226706 -3326.99 -11876.6)
(-225278 -3461.53 -11636.5)
(-224081 -3583.09 -11313)
(-223101 -3695.25 -10965)
(-222309 -3802.59 -10633.5)
(-221674 -3909.1 -10343.4)
(-221161 -4017.04 -10106.2)
(-220730 -4125.57 -9923.43)
(-220352 -4235.76 -9790.09)
(-220005 -4350.37 -9696.47)
(-219665 -4465.72 -9625.01)
(-219314 -4573.52 -9555.13)
(-218935 -4666.62 -9466.82)
(-218503 -4737.73 -9338.82)
(-217992 -4774.54 -9144.58)
(-217366 -4759.54 -8849.67)
(-216577 -4669.68 -8414.66)
(-215588 -4474.75 -7802.23)
(-214440 -4134.07 -6968.92)
(-213297 -3594.96 -5851.76)
(-212170 -2785.06 -4357.65)
(-210048 -1656.67 -2370.5)
(-204647 -258.039 361.388)
(-194225 1391.09 4302.4)
(-186161 4716.82 11777.5)
(-187681 9995.99 27828.7)
(-198992 30548.5 86487.3)
(-96600.1 16687.4 36632.3)
(-231786 2520.19 640.958)
(-232412 2663.31 1722.83)
(-232635 2663.1 2028.91)
(-232997 2697 2356.25)
(-233361 2736.62 2697.89)
(-233757 2797.85 3005.55)
(-234189 2845.33 3258.83)
(-234644 2870.64 3472.63)
(-235126 2882.64 3625.77)
(-235618 2900.15 3712.91)
(-236102 2918.92 3730.31)
(-236568 2932.79 3659.56)
(-237008 2943.31 3487.94)
(-237409 2951.48 3208.6)
(-237758 2959.18 2819.51)
(-238035 2969.68 2317.84)
(-238222 2986.28 1708.93)
(-238295 3009.45 1018.74)
(-238281 3046.85 272.553)
(-238182 3107.22 -509.256)
(-237964 3195.7 -1298.79)
(-237600 3317.92 -2038.78)
(-237100 3481.4 -2633.96)
(-236537 3686.78 -2978.15)
(-236025 3934.75 -3010.63)
(-235662 4219.07 -2741.8)
(-235493 4532.67 -2232.35)
(-235516 4865.51 -1561.49)
(-235693 5207.21 -804.427)
(-235973 5547.55 -20.0618)
(-236306 5878.49 753.474)
(-236649 6194.5 1494.5)
(-236966 6493.07 2188.96)
(-237219 6772.71 2832.16)
(-237402 7034.16 3427.13)
(-237541 7283.4 3976.24)
(-237626 7525.43 4489.64)
(-237631 7761.3 4962.56)
(-237523 7990.09 5393.95)
(-237265 8212.3 5795.55)
(-236805 8428.51 6174.28)
(-236058 8638.26 6534.23)
(-234912 8840.66 6877.54)
(-233248 9034.21 7204.57)
(-230993 9217.91 7515.57)
(-228156 9391.32 7828.08)
(-224603 9553.49 8187.55)
(-219336 9653.6 8668.83)
(-210650 9620 9215.67)
(-197698 9358 9744.7)
(-187446 9348.85 12708.2)
(-194273 8968.41 21802.6)
(-181227 10893.4 28693.4)
(67621.8 6816.4 13219.6)
(-237633 -1115.74 -1903.17)
(-238215 -982.285 -1121.37)
(-238621 -1009.4 -822.464)
(-239165 -1015.66 -477.717)
(-239694 -1001.79 -206.535)
(-240242 -971.043 62.6878)
(-240830 -961.321 300.117)
(-241489 -966.638 472.791)
(-242228 -973.079 562.073)
(-242989 -972.085 575.054)
(-243740 -974.991 496.233)
(-244483 -983.05 303.067)
(-245201 -994.786 -16.3013)
(-245872 -1009.86 -472.825)
(-246471 -1026.76 -1073.95)
(-246970 -1041.99 -1825.08)
(-247327 -1053.44 -2722.71)
(-247501 -1055.64 -3751.78)
(-247466 -1048.02 -4885.36)
(-247193 -1036.31 -6096.8)
(-246628 -1023.25 -7362.94)
(-245685 -1009.66 -8632.45)
(-244326 -1005.09 -9769.17)
(-242645 -1020.09 -10591.7)
(-240843 -1067.65 -10983.1)
(-239125 -1154.35 -10974.9)
(-237616 -1280.41 -10679.4)
(-236361 -1441.95 -10225)
(-235343 -1634.35 -9719.67)
(-234515 -1853.7 -9238.97)
(-233828 -2096.03 -8828.33)
(-233232 -2358.15 -8509.3)
(-232685 -2642.21 -8286.51)
(-232152 -2950.24 -8154.48)
(-231604 -3280.06 -8107.45)
(-231020 -3631.11 -8140.12)
(-230375 -4007.88 -8243.13)
(-229634 -4415.71 -8408.69)
(-228760 -4857.92 -8631.32)
(-227710 -5334.84 -8904.9)
(-226424 -5846.74 -9220.55)
(-224819 -6392.05 -9567.36)
(-222790 -6966.12 -9930.34)
(-220230 -7555.64 -10290.7)
(-217086 -8138.93 -10634.4)
(-213406 -8675.45 -10945.3)
(-209104 -9082.76 -11177.4)
(-203253 -9227.21 -11230.7)
(-194080 -9137.97 -10909.5)
(-180210 -8947.05 -9876.7)
(-165776 -7248.77 -8901.56)
(-179724 -1198.92 821.008)
(-163078 211.403 14687.5)
(76246.8 -3470.08 2655.06)
(-210996 227.077 572.707)
(-211089 320.149 1498.2)
(-211238 264.626 1875.37)
(-211320 223.347 2289.02)
(-211352 206.438 2643.08)
(-211430 207.112 2973.18)
(-211568 181.909 3253.93)
(-211754 135.833 3481.95)
(-212001 84.4433 3646.9)
(-212280 38.8383 3732.26)
(-212574 -12.4616 3721.19)
(-212882 -70.7027 3596.18)
(-213197 -133.39 3344.32)
(-213508 -198.95 2954.37)
(-213799 -265.197 2417.36)
(-214041 -330.16 1725.31)
(-214193 -389.821 875.107)
(-214204 -436.096 -115.197)
(-213937 -477.086 -1216.9)
(-213331 -520.942 -2402.04)
(-212316 -567.854 -3649.45)
(-210783 -615.582 -4905.68)
(-208678 -669.573 -6027.05)
(-206113 -732.215 -6802.57)
(-203353 -806.03 -7093.54)
(-200695 -886.835 -6915.58)
(-198353 -966.461 -6383.34)
(-196440 -1035.45 -5628.74)
(-194986 -1086.72 -4768.53)
(-193967 -1116.74 -3887.72)
(-193338 -1122.28 -3038.06)
(-193047 -1102.16 -2247.85)
(-193046 -1061.84 -1528.67)
(-193320 -1002.28 -864.81)
(-193841 -920.846 -227.144)
(-194547 -825.686 387.417)
(-195418 -726.06 981.886)
(-196451 -626.878 1563.34)
(-197664 -528.486 2139.69)
(-199059 -431.117 2722)
(-200612 -337.733 3297.15)
(-202273 -252.962 3846.29)
(-203979 -180.742 4352.16)
(-205646 -123.381 4777.38)
(-207221 -84.8072 5054.92)
(-208723 -64.3717 5080.86)
(-209886 -43.2107 4724.6)
(-209147 24.1564 3872.06)
(-203264 -22.9808 2481.07)
(-190339 -314.093 2429.6)
(-183934 859.952 4730.69)
(-205350 4570.62 1665.82)
(-168353 -4018.12 -35073.6)
(23357.4 -4655.3 -20307.1)
(-240487 -3334.75 -367.655)
(-240557 -3323.07 293.341)
(-240647 -3357.23 606.084)
(-240827 -3395 1028.67)
(-240997 -3400.95 1393.78)
(-241177 -3407.3 1734.57)
(-241421 -3442.04 2024.38)
(-241748 -3483.66 2229.62)
(-242141 -3513.33 2359.1)
(-242562 -3534.38 2414.88)
(-242996 -3551.47 2355.12)
(-243432 -3563.08 2160.42)
(-243853 -3566.25 1817.9)
(-244244 -3559.06 1313.39)
(-244592 -3540.9 635.912)
(-244852 -3515.18 -223.52)
(-244979 -3482.61 -1261.65)
(-244928 -3445.24 -2465.25)
(-244666 -3401.05 -3803)
(-244176 -3347.35 -5236.54)
(-243399 -3283.19 -6747.62)
(-242182 -3207.01 -8293.37)
(-240394 -3123.24 -9685.17)
(-238126 -3035.23 -10562.9)
(-235716 -2950.25 -10675.7)
(-233517 -2868.54 -10073.3)
(-231723 -2792.5 -8992.87)
(-230382 -2722.72 -7665.32)
(-229454 -2661.85 -6267.78)
(-228864 -2612.43 -4908.07)
(-228530 -2574.99 -3639.75)
(-228387 -2547.75 -2478.69)
(-228383 -2526.77 -1418.72)
(-228490 -2508.9 -444.915)
(-228693 -2492.96 454.434)
(-228986 -2478.57 1289.95)
(-229376 -2466.45 2069.63)
(-229872 -2456.58 2795.57)
(-230489 -2450.42 3464.2)
(-231242 -2454.25 4062.83)
(-232140 -2473.95 4570.42)
(-233189 -2515.24 4957.53)
(-234390 -2588.56 5180.48)
(-235770 -2710.25 5171.52)
(-237433 -2902.93 4813.59)
(-239605 -3190.86 3929.16)
(-242341 -3590.57 2253.31)
(-244526 -4181.73 -580.262)
(-243037 -5222.77 -4630.97)
(-233899 -5799.68 -9489.23)
(-226378 -5110.91 -13924.7)
(-239341 -4370.67 -20151.7)
(-214221 -12581.3 -47682.7)
(-2946.21 -9977.66 -32517.9)
(-228773 1143.6 703.126)
(-228561 1127.23 1438.82)
(-228613 1081.66 1845.38)
(-228720 1037.05 2356.39)
(-228888 1030.24 2788.48)
(-229191 1028.43 3154.12)
(-229633 1003.13 3480.06)
(-230189 975.249 3736.56)
(-230865 963.294 3920.55)
(-231641 963.322 4017.72)
(-232489 969.153 4000.07)
(-233378 980.069 3849.49)
(-234272 996.473 3552.22)
(-235130 1017.48 3094.41)
(-235903 1041.16 2463.26)
(-236529 1064.18 1647.62)
(-236940 1081.6 648.437)
(-237107 1087.05 -508.676)
(-237032 1083.45 -1788.05)
(-236682 1070.71 -3141.91)
(-235987 1047.01 -4547.89)
(-234784 1010.3 -5966.36)
(-232932 952.652 -7202.13)
(-230531 871.134 -7891.75)
(-227952 765.528 -7776.18)
(-225587 646.919 -6924.86)
(-223658 522.86 -5605.87)
(-222223 399.743 -4070.4)
(-221250 279.015 -2502.78)
(-220663 159.833 -1009.69)
(-220380 42.0065 361.789)
(-220332 -73.2768 1603.95)
(-220467 -183.402 2731.69)
(-220745 -288.707 3763.55)
(-221137 -391.606 4709.37)
(-221631 -493.332 5580.22)
(-222237 -596.063 6396.67)
(-222968 -701.488 7176.89)
(-223836 -814.336 7923.39)
(-224876 -939.775 8644.25)
(-226153 -1080.01 9349.24)
(-227722 -1237.95 10039.7)
(-229641 -1418.9 10705.4)
(-232011 -1630.37 11310.5)
(-235046 -1880.02 11776.6)
(-239124 -2160.88 11977.7)
(-244526 -2422.02 11781.8)
(-250634 -2688.65 10697.2)
(-254263 -3282.25 8059.34)
(-254409 -3311.67 3761.12)
(-254354 -1989.01 -6257.55)
(-260492 -3275.37 -37628.2)
(-260227 -26350.3 -103582)
(-176665 -19344.9 -46185.1)
(-235741 -2966.81 -331.852)
(-235637 -3008.36 377.907)
(-235557 -3026.08 793.143)
(-235570 -3047.99 1327.27)
(-235602 -3051.97 1847.66)
(-235645 -3073.1 2331.66)
(-235758 -3093.94 2755.92)
(-235946 -3103.03 3113.66)
(-236189 -3099.01 3400.77)
(-236486 -3089.84 3589.69)
(-236831 -3072.79 3646.25)
(-237205 -3049.13 3548.96)
(-237593 -3020.07 3278.99)
(-237981 -2987.6 2813.96)
(-238349 -2953.39 2129.25)
(-238657 -2920.1 1201.21)
(-238853 -2889.4 22.9945)
(-238860 -2865.87 -1395.47)
(-238624 -2851.68 -3019.28)
(-238133 -2847.22 -4796.53)
(-237334 -2853.71 -6717.45)
(-235980 -2878.54 -8816.15)
(-233727 -2932.36 -10918)
(-230632 -3025.02 -12425.7)
(-227339 -3143.19 -12747.4)
(-224542 -3276.95 -11922.3)
(-222499 -3416.56 -10497.4)
(-221145 -3547.7 -8866.28)
(-220315 -3658.82 -7252.99)
(-219847 -3745.65 -5759.03)
(-219614 -3806.64 -4412.68)
(-219537 -3843.29 -3198.57)
(-219575 -3857.98 -2083.89)
(-219707 -3852.45 -1032.69)
(-219922 -3828.03 -10.4442)
(-220233 -3785.23 1017.01)
(-220660 -3724.95 2081.88)
(-221224 -3649.02 3211.09)
(-221949 -3558.5 4426.54)
(-222858 -3454.65 5748.44)
(-223972 -3338.25 7191.14)
(-225308 -3210.62 8761.64)
(-226885 -3074.47 10457)
(-228757 -2933.27 12247.9)
(-231092 -2791.19 14046.5)
(-234227 -2654.2 15659.3)
(-238390 -2519.16 16670.3)
(-242899 -2363.69 16544.1)
(-245540 -2058.36 15143.1)
(-246481 -1667.99 11161.6)
(-253038 -303.468 1944.77)
(-279640 1735.03 -19782.9)
(-239768 -12370 -70783.4)
(-112786 -7556.27 -34709.9)
(-230333 3005.45 -2091.98)
(-230208 2985.29 -1358.61)
(-230249 2959.46 -885.308)
(-230358 2934.76 -297.743)
(-230534 2924.35 225.404)
(-230759 2896.74 703.086)
(-231050 2868.01 1155.57)
(-231430 2849.84 1541.05)
(-231896 2843.11 1841.41)
(-232445 2839.63 2033.89)
(-233059 2842.1 2090.16)
(-233717 2849.37 1988.6)
(-234402 2860.31 1709.46)
(-235095 2873.16 1231.39)
(-235771 2886.56 529.83)
(-236385 2897.99 -419.058)
(-236891 2905.96 -1618.75)
(-237198 2909.36 -3068.46)
(-237260 2907.28 -4734.79)
(-237062 2898.66 -6566.8)
(-236552 2881.4 -8559.31)
(-235468 2847.02 -10747.8)
(-233439 2783.86 -12943.9)
(-230479 2678.77 -14508.5)
(-227217 2541.47 -14782.4)
(-224399 2381.84 -13800.8)
(-222347 2212.76 -12164.6)
(-221049 2050.96 -10298.3)
(-220377 1907.76 -8455.07)
(-220167 1787.34 -6761.44)
(-220274 1692.16 -5257.76)
(-220591 1621.27 -3937.29)
(-221041 1572.71 -2772.44)
(-221579 1543.8 -1727.52)
(-222176 1532.85 -766.699)
(-222824 1540.27 146.472)
(-223519 1565.57 1043.06)
(-224257 1607.7 1949.96)
(-225038 1667.08 2895.31)
(-225860 1743.49 3904.71)
(-226718 1837.33 4998.34)
(-227596 1949.13 6196.78)
(-228481 2077.97 7517.62)
(-229392 2221.75 8963.65)
(-230451 2378.63 10503.7)
(-231926 2550.87 12094.9)
(-234103 2772.27 13873.5)
(-236594 3072.33 15518)
(-237855 3509.4 16385.1)
(-238148 3983.47 14759.1)
(-251794 4524.2 6945.81)
(-307839 3691.95 -14216.9)
(-381844 -13604.9 -72939.7)
(-318277 -15333.1 -4015.85)
(-228167 -1037.04 -166.642)
(-228054 -997.765 792.651)
(-228105 -1012.08 1243.17)
(-228262 -1024.46 1777.09)
(-228500 -1049.8 2284.25)