/*--------------------------------*- C++ -*----------------------------------*\
| =========                 |                                                 |
| \\      /  F ield         | OpenFOAM: The Open Source CFD Toolbox           |
|  \\    /   O peration     | Version:  4.1                                   |
|   \\  /    A nd           | Web:      www.OpenFOAM.org                      |
|    \\/     M anipulation  |                                                 |
\*---------------------------------------------------------------------------*/
FoamFile
{
    version     2.0;
    format      ascii;
    class       surfaceScalarField;
    location    "65";
    object      phi;
}
// * * * * * * * * * * * * * * * * * * * * * * * * * * * * * * * * * * * * * //

dimensions      [0 3 -1 0 0 0 0];

internalField   nonuniform List<scalar> 
11516
(
-3.82634e+10
9.07668e+07
8.16219e+08
-3.89224e+10
4.29023e+07
5.92454e+08
-3.94913e+10
1.97885e+07
5.25712e+08
-3.9901e+10
-2.48329e+07
4.112e+08
-4.0288e+10
-8.23302e+06
3.72217e+08
-4.06439e+10
-1.35725e+07
3.46664e+08
-4.09559e+10
-2.43999e+07
3.13818e+08
-4.1242e+10
-2.98591e+07
2.93456e+08
-4.14984e+10
-3.66068e+07
2.70314e+08
-4.17222e+10
-4.29631e+07
2.44071e+08
-4.19095e+10
-4.92206e+07
2.13239e+08
-4.20567e+10
-5.57252e+07
1.78241e+08
-4.21567e+10
-6.34772e+07
1.34737e+08
-4.22046e+10
-7.34036e+07
8.67354e+07
-4.21911e+10
-8.48762e+07
3.03428e+07
-4.21098e+10
-9.59729e+07
-3.22285e+07
-4.19576e+10
-1.06428e+08
-9.62389e+07
-4.17295e+10
-1.17382e+08
-1.65595e+08
-4.14233e+10
-1.28884e+08
-2.34488e+08
-4.10357e+10
-1.41151e+08
-3.04964e+08
-4.05632e+10
-1.53534e+08
-3.73452e+08
-4.0013e+10
-1.66744e+08
-4.34318e+08
-3.93893e+10
-1.80596e+08
-4.89946e+08
-3.87067e+10
-1.95302e+08
-5.3163e+08
-3.79749e+10
-2.10557e+08
-5.63788e+08
-3.72116e+10
-2.26144e+08
-5.7889e+08
-3.64281e+10
-2.41803e+08
-5.83074e+08
-3.56415e+10
-2.57222e+08
-5.70596e+08
-3.48621e+10
-2.72123e+08
-5.47888e+08
-3.41019e+10
-2.86296e+08
-5.13441e+08
-3.33714e+10
-2.99509e+08
-4.68598e+08
-3.26774e+10
-3.1169e+08
-4.17385e+08
-3.20308e+10
-3.22614e+08
-3.5567e+08
-3.14398e+10
-3.32025e+08
-2.86359e+08
-3.09141e+10
-3.39591e+08
-2.07839e+08
-3.04654e+10
-3.45274e+08
-1.17724e+08
-3.01027e+10
-3.49397e+08
-1.7058e+07
-2.9837e+10
-3.53798e+08
9.89933e+07
-2.96715e+10
-3.60221e+08
2.25779e+08
-2.96102e+10
-3.70513e+08
3.66108e+08
-2.96606e+10
-3.88341e+08
5.26763e+08
-2.9834e+10
-4.17218e+08
7.12377e+08
-3.01527e+10
-4.58114e+08
9.32291e+08
-3.06562e+10
-5.12504e+08
1.19908e+09
-3.14171e+10
-5.81514e+08
1.53434e+09
-3.25612e+10
-6.62834e+08
1.96506e+09
-3.42497e+10
-7.60562e+08
2.50082e+09
-3.6562e+10
-9.24819e+08
3.06942e+09
-3.93204e+10
-1.30264e+09
3.58372e+09
-4.22748e+10
-2.14849e+09
4.14043e+09
-4.68642e+10
-3.11894e+09
6.16057e+09
-5.4598e+10
-2.64742e+09
9.35915e+09
-6.56064e+10
-7.00953e+09
1.74149e+10
-3.08459e+09
1.1407e+10
-4.95973e+10
5.85317e+08
-4.99855e+10
4.18718e+08
-5.03213e+10
3.43058e+08
-5.06416e+10
2.82787e+08
-5.08904e+10
2.28279e+08
-5.11186e+10
2.02393e+08
-5.13277e+10
1.72571e+08
-5.15192e+10
1.49606e+08
-5.16912e+10
1.23368e+08
-5.18405e+10
9.41466e+07
-5.19622e+10
6.00419e+07
-5.20539e+10
2.24492e+07
-5.21095e+10
-2.37932e+07
-5.2129e+10
-7.29829e+07
-5.21075e+10
-1.28789e+08
-5.20385e+10
-1.89726e+08
-5.19189e+10
-2.52886e+08
-5.17439e+10
-3.2122e+08
-5.15141e+10
-3.88754e+08
-5.12271e+10
-4.57384e+08
-5.08831e+10
-5.24799e+08
-5.04902e+10
-5.84426e+08
-5.00534e+10
-6.40378e+08
-4.95872e+10
-6.82878e+08
-4.91e+10
-7.18071e+08
-4.8608e+10
-7.37616e+08
-4.81194e+10
-7.49298e+08
-4.76485e+10
-7.46387e+08
-4.72015e+10
-7.36525e+08
-4.67865e+10
-7.17451e+08
-4.641e+10
-6.90618e+08
-4.60736e+10
-6.60839e+08
-4.57827e+10
-6.23813e+08
-4.55388e+10
-5.83356e+08
-4.53443e+10
-5.3799e+08
-4.5203e+10
-4.85827e+08
-4.51156e+10
-4.29764e+08
-4.50898e+10
-3.64089e+08
-4.51316e+10
-2.9211e+08
-4.52497e+10
-2.12451e+08
-4.54599e+10
-1.22322e+08
-4.57861e+10
-1.81239e+07
-4.62614e+10
1.06852e+08
-4.69321e+10
2.61411e+08
-4.78677e+10
4.6021e+08
-4.91696e+10
7.24975e+08
-5.0982e+10
1.07495e+09
-5.34804e+10
1.48643e+09
-5.69963e+10
1.92706e+09
-6.24027e+10
2.68896e+09
-7.10215e+10
4.94715e+09
-8.28937e+10
8.64969e+09
-1.08331e+11
1.80311e+10
1.85057e+10
-6.76345e+10
6.43286e+07
9.1129e+08
-6.77745e+10
5.30812e+07
6.69518e+08
-6.78992e+10
4.56713e+07
5.94361e+08
-6.80281e+10
4.82533e+07
4.81566e+08
-6.81161e+10
4.39158e+07
4.06509e+08
-6.81966e+10
4.70966e+07
3.70736e+08
-6.82736e+10
4.91914e+07
3.32647e+08
-6.83407e+10
5.20791e+07
2.99746e+08
-6.83971e+10
5.42253e+07
2.64121e+08
-6.84452e+10
5.71179e+07
2.26851e+08
-6.84826e+10
5.96443e+07
1.82877e+08
-6.85064e+10
6.19822e+07
1.31754e+08
-6.85171e+10
6.37249e+07
7.14632e+07
-6.85121e+10
6.49688e+07
4.78174e+06
-6.84961e+10
6.54482e+07
-6.67924e+07
-6.8472e+10
6.57563e+07
-1.39166e+08
-6.84359e+10
6.55741e+07
-2.17398e+08
-6.83879e+10
6.53903e+07
-2.99253e+08
-6.83269e+10
6.45226e+07
-3.81834e+08
-6.82527e+10
6.36489e+07
-4.62912e+08
-6.81679e+10
6.24571e+07
-5.38444e+08
-6.80743e+10
6.09707e+07
-6.03754e+08
-6.79792e+10
5.90016e+07
-6.56532e+08
-6.78829e+10
5.65488e+07
-6.94711e+08
-6.77956e+10
5.36288e+07
-7.12439e+08
-6.77154e+10
5.0213e+07
-7.14956e+08
-6.76497e+10
4.62295e+07
-6.98669e+08
-6.75951e+10
4.16758e+07
-6.68702e+08
-6.75542e+10
3.6522e+07
-6.25147e+08
-6.75208e+10
3.08216e+07
-5.74998e+08
-6.74919e+10
2.45977e+07
-5.16619e+08
-6.74625e+10
1.796e+07
-4.55855e+08
-6.74233e+10
1.10532e+07
-3.92932e+08
-6.73684e+10
4.32641e+06
-3.27811e+08
-6.72867e+10
-1.76892e+06
-2.64138e+08
-6.71675e+10
-6.69288e+06
-1.99233e+08
-6.69988e+10
-1.0196e+07
-1.35503e+08
-6.67672e+10
-1.14122e+07
-6.9186e+07
-6.64709e+10
-8.94034e+06
4.9969e+06
-6.61114e+10
-3.39067e+06
9.46532e+07
-6.56801e+10
3.84245e+06
1.97063e+08
-6.5163e+10
1.27573e+07
3.10784e+08
-6.45405e+10
2.41308e+07
4.37343e+08
-6.37968e+10
3.95693e+07
5.8893e+08
-6.29093e+10
5.89646e+07
7.74958e+08
-6.18437e+10
8.2135e+07
1.00134e+09
-6.05366e+10
1.07235e+08
1.23857e+09
-5.89307e+10
1.14723e+08
1.43326e+09
-5.70468e+10
3.56491e+07
1.63838e+09
-5.53269e+10
-4.16345e+07
2.30631e+09
-5.25839e+10
1.56091e+08
3.05196e+09
-4.64824e+10
5.0326e+08
2.56183e+09
-1.98186e+10
-5.06889e+09
-4.24163e+09
-4.01992e+09
-4.46924e+09
-7.795e+10
7.43025e+08
-7.80122e+10
5.27438e+08
-7.80713e+10
4.4138e+08
-7.81215e+10
3.74955e+08
-7.816e+10
3.04803e+08
-7.81824e+10
2.66065e+08
-7.81978e+10
2.31624e+08
-7.81999e+10
1.98423e+08
-7.81882e+10
1.60751e+08
-7.81641e+10
1.22162e+08
-7.81259e+10
7.66239e+07
-7.80707e+10
2.39081e+07
-7.79992e+10
-3.76535e+07
-7.79101e+10
-1.04723e+08
-7.78054e+10
-1.76965e+08
-7.76884e+10
-2.51002e+08
-7.75557e+10
-3.31081e+08
-7.74089e+10
-4.14638e+08
-7.72465e+10
-4.98783e+08
-7.70693e+10
-5.81976e+08
-7.68804e+10
-6.60794e+08
-7.6682e+10
-7.30051e+08
-7.64821e+10
-7.88207e+08
-7.62812e+10
-8.32618e+08
-7.60923e+10
-8.573e+08
-7.59143e+10
-8.67867e+08
-7.57581e+10
-8.6025e+08
-7.56228e+10
-8.39671e+08
-7.5515e+10
-8.05804e+08
-7.54321e+10
-7.65844e+08
-7.53747e+10
-7.17523e+08
-7.5342e+10
-6.67277e+08
-7.53279e+10
-6.15597e+08
-7.53298e+10
-5.62322e+08
-7.53391e+10
-5.11362e+08
-7.53468e+10
-4.6058e+08
-7.53428e+10
-4.13182e+08
-7.53123e+10
-3.6691e+08
-7.52436e+10
-3.20373e+08
-7.51299e+10
-2.67786e+08
-7.49612e+10
-2.11543e+08
-7.47227e+10
-1.53003e+08
-7.4389e+10
-9.64647e+07
-7.39315e+10
-3.66858e+07
-7.33162e+10
3.12568e+07
-7.2497e+10
1.10026e+08
-7.13856e+10
1.6799e+08
-6.98981e+10
1.57773e+08
-6.8121e+10
1.54747e+08
-6.59511e+10
3.77471e+08
-6.08775e+10
-1.20947e+08
-4.92446e+10
-2.51133e+09
-2.96732e+10
-6.44862e+09
-3.11362e+09
-5.79347e+10
2.0511e+08
4.64503e+08
-5.77826e+10
2.20319e+08
2.89692e+08
-5.76753e+10
2.16827e+08
2.63348e+08
-5.76562e+10
2.25308e+08
2.30518e+08
-5.76446e+10
2.12114e+08
1.76635e+08
-5.76424e+10
2.1187e+08
1.50749e+08
-5.76626e+10
2.11753e+08
1.35668e+08
-5.76935e+10
2.11007e+08
1.14761e+08
-5.77349e+10
2.08444e+08
9.28481e+07
-5.77816e+10
2.06155e+08
6.39692e+07
-5.78325e+10
2.02525e+08
2.86798e+07
-5.78835e+10
1.97517e+08
-1.70319e+07
-5.79299e+10
1.9107e+08
-7.56055e+07
-5.79663e+10
1.84183e+08
-1.46367e+08
-5.79862e+10
1.76759e+08
-2.28551e+08
-5.79732e+10
1.68127e+08
-3.25515e+08
-5.79242e+10
1.5891e+08
-4.32846e+08
-5.78368e+10
1.50397e+08
-5.44668e+08
-5.77052e+10
1.41917e+08
-6.63793e+08
-5.75268e+10
1.33548e+08
-7.80074e+08
-5.73051e+10
1.24507e+08
-8.88606e+08
-5.704e+10
1.15785e+08
-9.85197e+08
-5.67429e+10
1.07017e+08
-1.05978e+09
-5.64233e+10
9.91875e+07
-1.10881e+09
-5.60905e+10
9.22732e+07
-1.12859e+09
-5.57593e+10
8.65662e+07
-1.11904e+09
-5.54403e+10
8.20329e+07
-1.08134e+09
-5.51431e+10
7.86452e+07
-1.02148e+09
-5.48738e+10
7.61976e+07
-9.42471e+08
-5.46403e+10
7.44837e+07
-8.49073e+08
-5.44421e+10
7.32151e+07
-7.4774e+08
-5.42849e+10
7.21521e+07
-6.37566e+08
-5.41668e+10
7.09912e+07
-5.2595e+08
-5.40863e+10
6.94374e+07
-4.11876e+08
-5.40464e+10
6.69946e+07
-2.94082e+08
-5.40409e+10
6.31721e+07
-1.77583e+08
-5.40668e+10
5.74059e+07
-6.09351e+07
-5.41162e+10
4.92796e+07
5.67518e+07
-5.41695e+10
3.67494e+07
1.70908e+08
-5.41875e+10
1.88887e+07
2.71577e+08
-5.41393e+10
-3.47475e+06
3.63134e+08
-5.39962e+10
-2.87969e+07
4.44304e+08
-5.37323e+10
-5.94475e+07
5.20283e+08
-5.33042e+10
-9.85139e+07
5.85773e+08
-5.26614e+10
-1.47402e+08
6.36508e+08
-5.17551e+10
-2.05809e+08
6.65963e+08
-5.0583e+10
-2.76317e+08
6.77142e+08
-4.92133e+10
-3.80835e+08
6.96001e+08
-4.76589e+10
-5.65676e+08
7.84851e+08
-4.52629e+10
-7.54955e+08
7.16105e+08
-4.23034e+10
-7.59536e+08
9.85234e+08
-4.32837e+10
-8.52361e+08
4.84183e+09
-5.60916e+10
-8.82036e+09
1.80702e+10
-5.54304e+09
9.77121e+09
-6.45174e+10
8.21744e+08
-6.44265e+10
6.52874e+08
-6.43835e+10
6.11361e+08
-6.4359e+10
5.7196e+08
-6.43715e+10
5.25764e+08
-6.43906e+10
4.93653e+08
-6.4422e+10
4.7163e+08
-6.44568e+10
4.41513e+08
-6.45007e+10
4.1099e+08
-6.45469e+10
3.7296e+08
-6.45987e+10
3.3004e+08
-6.46559e+10
2.78005e+08
-6.47172e+10
2.13929e+08
-6.47763e+10
1.37334e+08
-6.48284e+10
5.02771e+07
-6.48631e+10
-5.03522e+07
-6.48756e+10
-1.62402e+08
-6.48608e+10
-2.82397e+08
-6.48095e+10
-4.10682e+08
-6.47223e+10
-5.36937e+08
-6.46029e+10
-6.55162e+08
-6.44522e+10
-7.63329e+08
-6.42794e+10
-8.50356e+08
-6.40932e+10
-9.13771e+08
-6.38998e+10
-9.4944e+08
-6.37114e+10
-9.57294e+08
-6.35357e+10
-9.38126e+08
-6.33795e+10
-8.97768e+08
-6.32473e+10
-8.38616e+08
-6.31461e+10
-7.65068e+08
-6.30747e+10
-6.83361e+08
-6.30402e+10
-5.91971e+08
-6.30422e+10
-4.98772e+08
-6.30814e+10
-4.02998e+08
-6.31638e+10
-3.03068e+08
-6.32884e+10
-2.04644e+08
-6.34588e+10
-1.05904e+08
-6.36769e+10
-6.5713e+06
-6.39414e+10
9.03214e+07
-6.42366e+10
1.75052e+08
-6.45468e+10
2.4602e+08
-6.48556e+10
3.02533e+08
-6.51626e+10
3.52768e+08
-6.54623e+10
3.91301e+08
-6.5751e+10
4.17315e+08
-6.6027e+10
4.26776e+08
-6.63331e+10
4.18356e+08
-6.68106e+10
4.21973e+08
-6.76538e+10
5.45922e+08
-6.88382e+10
9.17034e+08
-7.19452e+10
2.54416e+09
-8.11119e+10
6.44205e+09
-1.12979e+11
1.72682e+10
9.90543e+09
-6.44822e+10
5.07978e+07
4.2289e+08
-6.45774e+10
3.68534e+07
3.45578e+08
-6.46414e+10
3.67033e+07
2.8815e+08
-6.47181e+10
2.86708e+07
2.76147e+08
-6.48115e+10
1.8743e+07
2.48877e+08
-6.49046e+10
1.50195e+07
2.26793e+08
-6.49949e+10
1.53234e+07
2.09083e+08
-6.50875e+10
1.46851e+07
1.92186e+08
-6.51795e+10
1.3266e+07
1.72118e+08
-6.52683e+10
1.23223e+07
1.42412e+08
-6.53502e+10
1.15539e+07
1.02235e+08
-6.54233e+10
1.14836e+07
4.8828e+07
-6.54864e+10
1.18218e+07
-1.89064e+07
-6.55391e+10
1.23378e+07
-1.00657e+08
-6.5573e+10
1.30037e+07
-2.01123e+08
-6.55899e+10
1.31464e+07
-3.16231e+08
-6.55863e+10
1.16225e+07
-4.42323e+08
-6.55567e+10
6.97961e+06
-5.77187e+08
-6.54999e+10
1.80643e+06
-7.16422e+08
-6.54131e+10
-3.02482e+06
-8.56688e+08
-6.5296e+10
-6.8906e+06
-9.88389e+08
-6.51538e+10
-1.04645e+07
-1.1049e+09
-6.49909e+10
-1.32309e+07
-1.19462e+09
-6.48154e+10
-1.51341e+07
-1.24992e+09
-6.4633e+10
-1.61347e+07
-1.26946e+09
-6.44523e+10
-1.64242e+07
-1.25069e+09
-6.42774e+10
-1.62876e+07
-1.20011e+09
-6.41102e+10
-1.60301e+07
-1.12531e+09
-6.39504e+10
-1.59097e+07
-1.0312e+09
-6.37922e+10
-1.622e+07
-9.27419e+08
-6.36334e+10
-1.69451e+07
-8.16656e+08
-6.34652e+10
-1.79513e+07
-7.04501e+08
-6.32846e+10
-1.91552e+07
-5.92733e+08
-6.30845e+10
-2.07446e+07
-4.84123e+08
-6.28555e+10
-2.25156e+07
-3.79383e+08
-6.2595e+10
-2.46527e+07
-2.76662e+08
-6.22931e+10
-2.70598e+07
-1.80847e+08
-6.19399e+10
-3.01599e+07
-9.03421e+07
-6.15276e+10
-3.46269e+07
-5.69389e+06
-6.10531e+10
-4.22224e+07
6.96081e+07
-6.0512e+10
-5.44849e+07
1.40412e+08
-5.98996e+10
-7.29165e+07
2.05414e+08
-5.92061e+10
-9.58247e+07
2.61901e+08
-5.84285e+10
-1.24343e+08
3.0843e+08
-5.75635e+10
-1.59919e+08
3.35021e+08
-5.66232e+10
-2.03232e+08
3.39854e+08
-5.56129e+10
-2.64537e+08
3.20762e+08
-5.44878e+10
-3.59574e+08
2.80742e+08
-5.30709e+10
-4.79916e+08
1.79041e+08
-5.16895e+10
-2.56009e+08
8.88813e+06
-5.03325e+10
3.20803e+08
-9.78517e+07
-4.4521e+10
-8.69412e+08
6.91236e+08
-1.80209e+10
-1.13441e+10
3.65097e+09
-6.72374e+09
1.60058e+09
-6.61321e+10
8.64375e+08
-6.62215e+10
7.76953e+08
-6.63022e+10
7.26798e+08
-6.63862e+10
6.82759e+08
-6.6485e+10
6.41503e+08
-6.65856e+10
6.07661e+08
-6.66764e+10
5.76699e+08
-6.67648e+10
5.44144e+08
-6.68484e+10
5.0813e+08
-6.69239e+10
4.6185e+08
-6.69864e+10
4.05947e+08
-6.70305e+10
3.36161e+08
-6.70529e+10
2.51189e+08
-6.70511e+10
1.51251e+08
-6.70165e+10
3.20447e+07
-6.6951e+10
-9.94196e+07
-6.68623e+10
-2.37073e+08
-6.67572e+10
-3.78454e+08
-6.66418e+10
-5.21898e+08
-6.65122e+10
-6.65585e+08
-6.63693e+10
-7.99845e+08
-6.6218e+10
-9.18616e+08
-6.60633e+10
-1.00995e+09
-6.59135e+10
-1.06734e+09
-6.57743e+10
-1.08901e+09
-6.56545e+10
-1.07286e+09
-6.55583e+10
-1.02512e+09
-6.54883e+10
-9.53183e+08
-6.54451e+10
-8.61825e+08
-6.54242e+10
-7.60451e+08
-6.54248e+10
-6.51768e+08
-6.54383e+10
-5.41345e+08
-6.54624e+10
-4.31126e+08
-6.54909e+10
-3.23992e+08
-6.55146e+10
-2.21148e+08
-6.55308e+10
-1.21475e+08
-6.55292e+10
-3.05551e+07
-6.54995e+10
5.25112e+07
-6.54347e+10
1.27162e+08
-6.53361e+10
1.90891e+08
-6.5217e+10
2.51814e+08
-6.50886e+10
3.05796e+08
-6.49463e+10
3.4525e+08
-6.47943e+10
3.69671e+08
-6.46357e+10
3.69367e+08
-6.44771e+10
3.35438e+08
-6.43268e+10
2.54414e+08
-6.4167e+10
1.30975e+08
-6.38212e+10
-4.46681e+07
-6.2476e+10
-3.33696e+08
-5.8084e+10
-9.7334e+08
-5.13003e+10
-4.87052e+08
-5.00024e+10
5.03899e+09
2.59035e+09
-6.08464e+10
-6.00672e+07
4.40639e+08
-6.08253e+10
-8.04075e+07
4.02282e+08
-6.08373e+10
-8.40408e+07
3.82044e+08
-6.08479e+10
-8.5364e+07
3.70064e+08
-6.08798e+10
-8.59859e+07
3.64775e+08
-6.09293e+10
-8.30946e+07
3.57589e+08
-6.09894e+10
-7.92903e+07
3.47178e+08
-6.10585e+10
-7.54834e+07
3.36162e+08
-6.11328e+10
-7.13115e+07
3.17898e+08
-6.12113e+10
-6.68667e+07
2.88793e+08
-6.12923e+10
-6.2539e+07
2.47508e+08
-6.13722e+10
-5.80795e+07
1.89381e+08
-6.14489e+10
-5.34058e+07
1.14088e+08
-6.15128e+10
-4.85755e+07
1.50181e+07
-6.156e+10
-4.32669e+07
-1.07671e+08
-6.1586e+10
-3.65985e+07
-2.52418e+08
-6.15847e+10
-2.69278e+07
-4.16834e+08
-6.15536e+10
-1.63699e+07
-5.96011e+08
-6.14855e+10
-6.15282e+06
-7.81838e+08
-6.13781e+10
2.27987e+06
-9.7096e+08
-6.12273e+10
9.75044e+06
-1.15066e+09
-6.10375e+10
1.48816e+07
-1.31295e+09
-6.08137e+10
1.87469e+07
-1.43741e+09
-6.05682e+10
2.0356e+07
-1.51346e+09
-6.03155e+10
2.05106e+07
-1.5337e+09
-6.00689e+10
1.88498e+07
-1.50052e+09
-5.98404e+10
1.55047e+07
-1.42171e+09
-5.96371e+10
1.04525e+07
-1.3103e+09
-5.94614e+10
3.64607e+06
-1.17551e+09
-5.93118e+10
-5.14794e+06
-1.03021e+09
-5.91838e+10
-1.60023e+07
-8.79861e+08
-5.90712e+10
-2.89962e+07
-7.3148e+08
-5.89662e+10
-4.43119e+07
-5.8843e+08
-5.8862e+10
-6.24057e+07
-4.51984e+08
-5.87494e+10
-8.36233e+07
-3.24495e+08
-5.86171e+10
-1.08318e+08
-2.05951e+08
-5.84582e+10
-1.36327e+08
-9.58829e+07
-5.82596e+10
-1.67546e+08
923102
-5.8009e+10
-2.01622e+08
8.57028e+07
-5.76916e+10
-2.38345e+08
1.52183e+08
-5.7289e+10
-2.7186e+08
1.9612e+08
-5.67817e+10
-3.04223e+08
2.15785e+08
-5.61439e+10
-3.39722e+08
2.05484e+08
-5.53577e+10
-3.79786e+08
1.67849e+08
-5.44149e+10
-4.2471e+08
9.50326e+07
-5.33129e+10
-4.77715e+08
-1.81867e+07
-5.20308e+10
-5.50378e+08
-1.86274e+08
-5.05111e+10
-6.59976e+08
-4.1604e+08
-4.86706e+10
-8.04471e+08
-7.23982e+08
-4.74412e+10
-5.21645e+08
-5.62175e+08
-4.71202e+10
-6.80579e+07
-1.43471e+08
-4.09603e+10
-2.13517e+09
-2.89709e+09
-9.41162e+09
-1.15442e+10
-1.61687e+10
-5.08989e+09
-8.98154e+09
-5.80569e+10
6.639e+08
-5.79788e+10
6.17076e+08
-5.79371e+10
5.99646e+08
-5.7912e+10
5.70966e+08
-5.79117e+10
5.53987e+08
-5.7928e+10
5.39921e+08
-5.7952e+10
5.20642e+08
-5.79842e+10
5.00451e+08
-5.80219e+10
4.74511e+08
-5.80654e+10
4.38863e+08
-5.81133e+10
3.92151e+08
-5.81639e+10
3.29605e+08
-5.8217e+10
2.51839e+08
-5.82659e+10
1.52358e+08
-5.83081e+10
3.10072e+07
-5.83327e+10
-1.12647e+08
-5.83201e+10
-2.80238e+08
-5.8255e+10
-4.65108e+08
-5.81289e+10
-6.6044e+08
-5.79374e+10
-8.60786e+08
-5.76793e+10
-1.05461e+09
-5.7357e+10
-1.23192e+09
-5.69794e+10
-1.37415e+09
-5.65602e+10
-1.46864e+09
-5.61193e+10
-1.50816e+09
-5.56739e+10
-1.49392e+09
-5.5241e+10
-1.43319e+09
-5.48324e+10
-1.33835e+09
-5.44556e+10
-1.21844e+09
-5.41146e+10
-1.08631e+09
-5.38102e+10
-9.47789e+08
-5.35418e+10
-8.09957e+08
-5.33077e+10
-6.76235e+08
-5.31074e+10
-5.48162e+08
-5.29394e+10
-4.28754e+08
-5.28009e+10
-3.17858e+08
-5.26941e+10
-2.15815e+08
-5.2614e+10
-1.28024e+08
-5.25563e+10
-5.37784e+07
-5.25123e+10
611858
-5.24571e+10
3.24169e+07
-5.23657e+10
3.54802e+07
-5.22276e+10
1.02132e+07
-5.20434e+10
-3.82232e+07
-5.18215e+10
-1.19433e+08
-5.15794e+10
-2.45242e+08
-5.13388e+10
-4.38038e+08
-5.1084e+10
-7.35751e+08
-5.06811e+10
-1.22383e+09
-4.94798e+10
-2.01837e+09
-4.67593e+10
-3.66702e+09
-4.26496e+10
-6.65437e+09
-3.0956e+10
-1.81671e+10
-7.01917e+09
-5.85022e+10
2.3428e+08
1.61898e+08
-5.84976e+10
2.29696e+08
1.66881e+08
-5.85168e+10
2.39717e+08
1.60307e+08
-5.85515e+10
2.47458e+08
1.56193e+08
-5.86001e+10
2.55744e+08
1.5659e+08
-5.86639e+10
2.65426e+08
1.54834e+08
-5.87423e+10
2.75748e+08
1.4876e+08
-5.88323e+10
2.86643e+08
1.38341e+08
-5.89314e+10
2.98184e+08
1.17495e+08
-5.90382e+10
3.09965e+08
8.40595e+07
-5.91476e+10
3.22064e+08
3.29455e+07
-5.92587e+10
3.34415e+08
-3.64302e+07
-5.93682e+10
3.47339e+08
-1.272e+08
-5.94722e+10
3.60154e+08
-2.45687e+08
-5.95683e+10
3.721e+08
-3.90928e+08
-5.96499e+10
3.82161e+08
-5.62279e+08
-5.9716e+10
3.89389e+08
-7.55706e+08
-5.97593e+10
3.95024e+08
-9.66481e+08
-5.97773e+10
3.97795e+08
-1.18545e+09
-5.97651e+10
3.99119e+08
-1.40631e+09
-5.97212e+10
3.97964e+08
-1.61981e+09
-5.96447e+10
3.94502e+08
-1.81157e+09
-5.95436e+10
3.87463e+08
-1.9552e+09
-5.94304e+10
3.77221e+08
-2.03117e+09
-5.93225e+10
3.63648e+08
-2.02926e+09
-5.92328e+10
3.46968e+08
-1.95783e+09
-5.91704e+10
3.27623e+08
-1.8298e+09
-5.91399e+10
3.06262e+08
-1.66378e+09
-5.91388e+10
2.83487e+08
-1.47626e+09
-5.91663e+10
2.59812e+08
-1.27808e+09
-5.92178e+10
2.35525e+08
-1.0795e+09
-5.92898e+10
2.1068e+08
-8.85841e+08
-5.93812e+10
1.85076e+08
-6.98395e+08
-5.9489e+10
1.58497e+08
-5.19675e+08
-5.96147e+10
1.30496e+08
-3.47839e+08
-5.97577e+10
1.00734e+08
-1.83451e+08
-5.99194e+10
6.87079e+07
-2.39754e+07
-6.01022e+10
3.39408e+07
1.28515e+08
-6.0306e+10
-3.9689e+06
2.73183e+08
-6.05357e+10
-4.56535e+07
4.10968e+08
-6.0797e+10
-9.24203e+07
5.3876e+08
-6.1101e+10
-1.44494e+08
6.61118e+08
-6.14663e+10
-2.02116e+08
7.7724e+08
-6.19134e+10
-2.65693e+08
8.87075e+08
-6.24837e+10
-3.37434e+08
9.9586e+08
-6.32329e+10
-4.23308e+08
1.1048e+09
-6.42282e+10
-5.35505e+08
1.20777e+09
-6.54703e+10
-6.98797e+08
1.25092e+09
-6.68082e+10
-9.23895e+08
1.08824e+09
-6.67502e+10
-1.43688e+09
1.99804e+08
-6.2419e+10
-2.6767e+09
-2.4626e+09
-5.37642e+10
-5.22573e+09
-7.14092e+09
-4.08327e+10
-1.24491e+10
-1.69296e+10
-3.94171e+09
-4.14041e+09
-6.10906e+10
9.38963e+08
-6.1223e+10
9.78389e+08
-6.1357e+10
9.72595e+08
-6.151e+10
9.70796e+08
-6.16781e+10
9.77289e+08
-6.18585e+10
9.85043e+08
-6.20506e+10
9.87834e+08
-6.22503e+10
9.86076e+08
-6.24523e+10
9.73875e+08
-6.2654e+10
9.49475e+08
-6.28478e+10
9.06686e+08
-6.30297e+10
8.44032e+08
-6.31903e+10
7.57265e+08
-6.33214e+10
6.40071e+08
-6.34164e+10
4.93148e+08
-6.34708e+10
3.16297e+08
-6.3486e+10
1.1412e+08
-6.34612e+10
-1.08423e+08
-6.33987e+10
-3.40293e+08
-6.33001e+10
-5.76934e+08
-6.31627e+10
-8.11589e+08
-6.29881e+10
-1.03069e+09
-6.27843e+10
-1.20928e+09
-6.25655e+10
-1.32747e+09
-6.23502e+10
-1.37494e+09
-6.21521e+10
-1.35826e+09
-6.19808e+10
-1.2888e+09
-6.18405e+10
-1.18375e+09
-6.17277e+10
-1.05888e+09
-6.16403e+10
-9.24943e+08
-6.15712e+10
-7.92571e+08
-6.15144e+10
-6.67507e+08
-6.1466e+10
-5.5156e+08
-6.14203e+10
-4.48112e+08
-6.1376e+10
-3.56189e+08
-6.13306e+10
-2.77345e+08
-6.12837e+10
-2.09499e+08
-6.12383e+10
-1.55186e+08
-6.11955e+10
-1.15306e+08
-6.11654e+10
-8.74707e+07
-6.1166e+10
-6.79897e+07
-6.12229e+10
-5.59511e+07
-6.13588e+10
-5.60259e+07
-6.1594e+10
-6.9989e+07
-6.19687e+10
-9.68236e+07
-6.25415e+10
-1.45627e+08
-6.34029e+10
-2.27539e+08
-6.46375e+10
-4.07565e+08
-6.62522e+10
-8.54457e+08
-6.8038e+10
-2.13075e+09
-6.96018e+10
-5.33632e+09
-7.08007e+10
-1.1062e+10
-8.19029e+10
-1.99719e+10
2.4336e+09
-5.43354e+10
3.39156e+08
-2.75759e+08
-5.42809e+10
3.5504e+08
-2.42882e+08
-5.42612e+10
3.66092e+08
-2.25597e+08
-5.42726e+10
3.76442e+08
-2.09132e+08
-5.43102e+10
3.84892e+08
-1.91051e+08
-5.4371e+10
3.9165e+08
-1.76402e+08
-5.44553e+10
3.9737e+08
-1.64897e+08
-5.45609e+10
4.03193e+08
-1.60255e+08
-5.46862e+10
4.08541e+08
-1.67188e+08
-5.48257e+10
4.12735e+08
-1.91207e+08
-5.49796e+10
4.14976e+08
-2.31097e+08
-5.51369e+10
4.15095e+08
-2.98102e+08
-5.52866e+10
4.13194e+08
-3.95881e+08
-5.54203e+10
4.09582e+08
-5.28482e+08
-5.55268e+10
4.04422e+08
-6.97995e+08
-5.55952e+10
3.97838e+08
-9.04127e+08
-5.56142e+10
3.90277e+08
-1.14463e+09
-5.55762e+10
3.84129e+08
-1.40965e+09
-5.54755e+10
3.80814e+08
-1.69335e+09
-5.53053e+10
3.8146e+08
-1.98456e+09
-5.50604e+10
3.83717e+08
-2.27907e+09
-5.47387e+10
3.88622e+08
-2.55177e+09
-5.43531e+10
3.94789e+08
-2.76815e+09
-5.39353e+10
4.03609e+08
-2.88188e+09
-5.35256e+10
4.13431e+08
-2.87981e+09
-5.31596e+10
4.23577e+08
-2.7725e+09
-5.28569e+10
4.32849e+08
-2.5898e+09
-5.26236e+10
4.40676e+08
-2.3628e+09
-5.24572e+10
4.46753e+08
-2.11569e+09
-5.23457e+10
4.50935e+08
-1.86848e+09
-5.22789e+10
4.53216e+08
-1.6294e+09
-5.22435e+10
4.53627e+08
-1.40677e+09
-5.22287e+10
4.52277e+08
-1.20009e+09
-5.2226e+10
4.49381e+08
-1.00923e+09
-5.22282e+10
4.45278e+08
-8.32095e+08
-5.22304e+10
4.40351e+08
-6.66624e+08
-5.22263e+10
4.3465e+08
-5.11398e+08
-5.2213e+10
4.28808e+08
-3.65325e+08
-5.21893e+10
4.22306e+08
-2.26061e+08
-5.21479e+10
4.13972e+08
-9.71642e+07
-5.20893e+10
4.0248e+08
2.75957e+07
-5.20098e+10
3.88196e+08
1.4778e+08
-5.19111e+10
3.70913e+08
2.66214e+08
-5.1804e+10
3.50631e+08
3.8669e+08
-5.17143e+10
3.27119e+08
5.22453e+08
-5.16917e+10
2.94883e+08
6.90417e+08
-5.18175e+10
2.48636e+08
9.10243e+08
-5.22305e+10
1.80916e+08
1.18269e+09
-5.32386e+10
7.99165e+07
1.52033e+09
-5.54214e+10
-1.76398e+08
1.7736e+09
-5.96294e+10
-1.10195e+09
1.65846e+09
-6.51891e+10
-2.74216e+09
5.39462e+07
-6.76668e+10
-7.4915e+09
-8.05623e+09
1.32661e+09
4.97512e+09
-5.94805e+10
1.21381e+09
-5.94122e+10
1.26583e+09
-5.93596e+10
1.28657e+09
-5.93197e+10
1.30775e+09
-5.92911e+10
1.33375e+09
-5.92701e+10
1.3559e+09
-5.92584e+10
1.37351e+09
-5.92535e+10
1.38417e+09
-5.92544e+10
1.38273e+09
-5.92561e+10
1.36275e+09
-5.92614e+10
1.32531e+09
-5.92647e+10
1.26e+09
-5.9261e+10
1.16344e+09
-5.92474e+10
1.03141e+09
-5.92175e+10
8.61512e+08
-5.91656e+10
6.53607e+08
-5.90827e+10
4.10272e+08
-5.89609e+10
1.39664e+08
-5.87843e+10
-1.51732e+08
-5.85428e+10
-4.54339e+08
-5.82277e+10
-7.6108e+08
-5.78398e+10
-1.04941e+09
-5.73892e+10
-1.28354e+09
-5.69086e+10
-1.4218e+09
-5.64343e+10
-1.45159e+09
-5.59993e+10
-1.38466e+09
-5.56202e+10
-1.25015e+09
-5.5302e+10
-1.07732e+09
-5.50427e+10
-8.88574e+08
-5.48324e+10
-7.02959e+08
-5.46638e+10
-5.27972e+08
-5.45275e+10
-3.71839e+08
-5.44161e+10
-2.34087e+08
-5.43255e+10
-1.14832e+08
-5.42524e+10
-1.19758e+07
-5.41956e+10
7.57863e+07
-5.41528e+10
1.49653e+08
-5.41248e+10
2.1106e+08
-5.41161e+10
2.63066e+08
-5.41279e+10
3.03505e+08
-5.41666e+10
3.40577e+08
-5.42389e+10
3.74868e+08
-5.4361e+10
4.09216e+08
-5.45604e+10
4.49744e+08
-5.48851e+10
5.10669e+08
-5.54164e+10
6.02284e+08
-5.63021e+10
7.65045e+08
-5.78072e+10
1.03009e+09
-6.0414e+10
1.401e+09
-6.5132e+10
1.74395e+09
-7.47003e+10
2.28042e+09
-9.11267e+10
1.45403e+09
-1.20961e+11
1.49778e+09
5.40239e+09
-5.93783e+10
-1.08389e+08
-2.04341e+08
-5.93625e+10
-1.04992e+08
-1.50917e+08
-5.93722e+10
-9.88076e+07
-1.14939e+08
-5.94069e+10
-9.47528e+07
-7.78547e+07
-5.94636e+10
-9.18133e+07
-4.09209e+07
-5.95412e+10
-9.04186e+07
-6.87728e+06
-5.96409e+10
-8.90999e+07
2.52022e+07
-5.9759e+10
-8.67262e+07
4.54188e+07
-5.98951e+10
-8.37474e+07
5.29376e+07
-6.00477e+10
-8.03946e+07
4.12133e+07
-6.0208e+10
-7.68655e+07
4.55749e+06
-6.03712e+10
-7.27364e+07
-6.47568e+07
-6.05288e+10
-6.77707e+07
-1.7434e+08
-6.06695e+10
-6.16537e+07
-3.31511e+08
-6.07815e+10
-5.38838e+07
-5.38813e+08
-6.08516e+10
-4.43977e+07
-7.99549e+08
-6.08666e+10
-3.21617e+07
-1.10834e+09
-6.08157e+10
-1.73291e+07
-1.45874e+09
-6.06888e+10
1.19601e+06
-1.83718e+09
-6.0483e+10
2.03422e+07
-2.23071e+09
-6.01872e+10
4.04174e+07
-2.63395e+09
-5.97922e+10
6.00641e+07
-3.0283e+09
-5.93046e+10
8.02382e+07
-3.35455e+09
-5.87707e+10
9.92622e+07
-3.53217e+09
-5.82572e+10
1.16002e+08
-3.52437e+09
-5.78142e+10
1.28738e+08
-3.35902e+09
-5.74658e+10
1.36809e+08
-3.09086e+09
-5.72163e+10
1.41116e+08
-2.77162e+09
-5.70547e+10
1.4319e+08
-2.44105e+09
-5.69641e+10
1.44506e+08
-2.12645e+09
-5.69246e+10
1.4634e+08
-1.83996e+09
-5.692e+10
1.49388e+08
-1.58747e+09
-5.69345e+10
1.54061e+08
-1.36808e+09
-5.69553e+10
1.6061e+08
-1.17966e+09
-5.69706e+10
1.69182e+08
-1.01865e+09
-5.69727e+10
1.78456e+08
-8.78147e+08
-5.69514e+10
1.87153e+08
-7.56941e+08
-5.69015e+10
1.94287e+08
-6.47829e+08
-5.68143e+10
1.9891e+08
-5.50195e+08
-5.66865e+10
1.9973e+08
-4.60375e+08
-5.65082e+10
1.95545e+08
-3.77194e+08
-5.62729e+10
1.85456e+08
-2.96959e+08
-5.59749e+10
1.67441e+08
-2.15538e+08
-5.56053e+10
1.3991e+08
-1.33155e+08
-5.51658e+10
1.02309e+08
-3.17472e+07
-5.46757e+10
4.9188e+07
1.19703e+08
-5.42076e+10
-1.66115e+07
3.74717e+08
-5.39546e+10
-9.8142e+07
8.26871e+08
-5.42192e+10
-2.45039e+08
1.59314e+09
-5.54909e+10
-5.545e+08
2.80039e+09
-5.9879e+10
-1.00206e+09
5.86163e+09
-7.07315e+10
-1.64227e+09
1.10472e+10
-1.04109e+11
7.85646e+07
2.38665e+10
-3.95958e+10
7.5653e+09
-5.90663e+10
1.12328e+09
-5.90934e+10
1.18933e+09
-5.91402e+10
1.23582e+09
-5.92097e+10
1.28361e+09
-5.92983e+10
1.3317e+09
-5.94072e+10
1.37543e+09
-5.95395e+10
1.4176e+09
-5.96905e+10
1.44911e+09
-5.98599e+10
1.46869e+09
-6.00462e+10
1.46839e+09
-6.02414e+10
1.44299e+09
-6.04407e+10
1.38513e+09
-6.06345e+10
1.28732e+09
-6.08104e+10
1.14251e+09
-6.09553e+10
9.48197e+08
-6.10527e+10
7.00965e+08
-6.1087e+10
4.04912e+08
-6.10389e+10
6.53384e+07
-6.08883e+10
-3.11918e+08
-6.06202e+10
-7.13742e+08
-6.02203e+10
-1.13341e+09
-5.96685e+10
-1.55334e+09
-5.89672e+10
-1.91578e+09
-5.81619e+10
-2.13705e+09
-5.73314e+10
-2.17407e+09
-5.65439e+10
-2.0515e+09
-5.58419e+10
-1.82442e+09
-5.52434e+10
-1.54532e+09
-5.47465e+10
-1.2545e+09
-5.43391e+10
-9.79304e+08
-5.40039e+10
-7.31328e+08
-5.37259e+10
-5.15833e+08
-5.34901e+10
-3.32118e+08
-5.32825e+10
-1.79028e+08
-5.30909e+10
-5.27475e+07
-5.29056e+10
4.97164e+07
-5.27182e+10
1.29398e+08
-5.2526e+10
1.93127e+08
-5.23236e+10
2.40623e+08
-5.21115e+10
2.74829e+08
-5.18837e+10
2.96232e+08
-5.16373e+10
3.07364e+08
-5.13722e+10
3.10692e+08
-5.10879e+10
3.07926e+08
-5.07941e+10
3.18984e+08
-5.05093e+10
3.49372e+08
-5.02692e+10
4.46691e+08
-5.0179e+10
6.81988e+08
-5.05065e+10
1.15487e+09
-5.18985e+10
2.00661e+09
-5.6291e+10
4.83826e+09
-6.81596e+10
1.0809e+10
-9.49372e+10
2.79625e+10
9.26868e+09
-6.18265e+10
-1.44256e+08
-5.46304e+07
-6.18514e+10
-1.33535e+08
9.7317e+06
-6.18954e+10
-1.20509e+08
5.18398e+07
-6.19588e+10
-1.09344e+08
9.71705e+07
-6.2042e+10
-9.61836e+07
1.40988e+08
-6.21449e+10
-8.23082e+07
1.81062e+08
-6.22681e+10
-6.69611e+07
2.18416e+08
-6.24132e+10
-4.98541e+07
2.43523e+08
-6.25779e+10
-3.1511e+07
2.52357e+08
-6.27611e+10
-1.24953e+07
2.40289e+08
-6.29592e+10
6.93212e+06
1.98912e+08
-6.31634e+10
2.63665e+07
1.16085e+08
-6.33659e+10
4.50436e+07
-1.4204e+07
-6.35559e+10
6.21625e+07
-2.01565e+08
-6.37153e+10
7.72226e+07
-4.55199e+08
-6.3828e+10
8.98697e+07
-7.75797e+08
-6.38745e+10
9.95672e+07
-1.16139e+09
-6.38413e+10
1.06289e+08
-1.60058e+09
-6.37166e+10
1.09993e+08
-2.07518e+09
-6.34922e+10
1.13297e+08
-2.5749e+09
-6.31571e+10
1.20138e+08
-3.09548e+09
-6.26895e+10
1.3212e+08
-3.633e+09
-6.20821e+10
1.54228e+08
-4.11574e+09
-6.14076e+10
1.91693e+08
-4.39387e+09
-6.0796e+10
2.47596e+08
-4.37446e+09
-6.03416e+10
3.1589e+08
-4.11855e+09
-6.00739e+10
3.87873e+08
-3.7351e+09
-5.99879e+10
4.56847e+08
-3.30298e+09
-6.00556e+10
5.19259e+08
-2.8801e+09
-6.0245e+10
5.7429e+08
-2.49648e+09
-6.05234e+10
6.22653e+08
-2.166e+09
-6.08647e+10
6.65388e+08
-1.88934e+09
-6.12449e+10
7.03513e+08
-1.66437e+09
-6.16445e+10
7.38323e+08
-1.48594e+09
-6.20506e+10
7.71079e+08
-1.34541e+09
-6.24449e+10
8.0125e+08
-1.24053e+09
-6.28143e+10
8.29328e+08
-1.16499e+09
-6.31384e+10
8.55016e+08
-1.1183e+09
-6.34013e+10
8.77555e+08
-1.09378e+09
-6.35813e+10
8.96298e+08
-1.09255e+09
-6.3656e+10
9.1057e+08
-1.11309e+09
-6.36013e+10
9.19535e+08
-1.15288e+09
-6.3395e+10
9.24007e+08
-1.20687e+09
-6.30172e+10
9.24297e+08
-1.27289e+09
-6.24361e+10
9.16285e+08
-1.34377e+09
-6.16023e+10
8.94906e+08
-1.40446e+09
-6.0444e+10
8.59651e+08
-1.43858e+09
-5.8858e+10
8.02147e+08
-1.39254e+09
-5.67369e+10
7.1074e+08
-1.13879e+09
-5.39908e+10
5.22745e+08
-4.30524e+08
-4.94488e+10
1.09978e+08
1.27939e+09
-4.48933e+10
2.79146e+08
6.43868e+09
-5.18195e+10
5.39316e+09
2.59164e+10
3.5396e+09
1.1784e+10
-6.21807e+10
1.05929e+09
-6.22952e+10
1.17175e+09
-6.24117e+10
1.23333e+09
-6.25504e+10
1.31453e+09
-6.27052e+10
1.39229e+09
-6.28782e+10