/*--------------------------------*- C++ -*----------------------------------*\
| =========                 |                                                 |
| \\      /  F ield         | OpenFOAM: The Open Source CFD Toolbox           |
|  \\    /   O peration     | Version:  4.1                                   |
|   \\  /    A nd           | Web:      www.OpenFOAM.org                      |
|    \\/     M anipulation  |                                                 |
\*---------------------------------------------------------------------------*/
FoamFile
{
    version     2.0;
    format      ascii;
    class       volScalarField;
    location    "60";
    object      omega;
}
// * * * * * * * * * * * * * * * * * * * * * * * * * * * * * * * * * * * * * //

dimensions      [0 0 -1 0 0 0 0];

internalField   nonuniform List<scalar> 
4432
(
0.0110965
0.0114453
0.0118164
0.0121514
0.0125167
0.0128366
0.0131966
0.0135019
0.0138543
0.0141448
0.0144852
0.0147645
0.0150882
0.0153581
0.0156637
0.0159233
0.0162133
0.0164604
0.0167382
0.0169711
0.0172392
0.0174637
0.0177248
0.0179377
0.0181893
0.018387
0.0186394
0.0188294
0.0190912
0.0192812
0.0195527
0.019742
0.0200078
0.020187
0.0204229
0.0205827
0.0207749
0.0209207
0.0210772
0.0212377
0.0213681
0.0215269
0.0216362
0.0217993
0.0219012
0.0220303
0.0221232
0.0222362
0.0223639
0.0225557
0.0226772
0.0229888
0.0230677
0.0233128
0.0110993
0.0114423
0.0118245
0.0121447
0.012528
0.0128263
0.0132104
0.013488
0.0138701
0.0141277
0.0145026
0.0147456
0.0151064
0.0153398
0.0156815
0.0159086
0.0162295
0.0164505
0.0167528
0.0169647
0.0172517
0.0174579
0.017736
0.0179339
0.0182032
0.0183914
0.0186581
0.0188401
0.0191086
0.0192917
0.0195641
0.0197502
0.0200136
0.0201935
0.0204248
0.020596
0.0207798
0.0209567
0.0211059
0.0212985
0.0214337
0.0216125
0.0217554
0.0218866
0.0220093
0.0221012
0.0222261
0.0223153
0.0224462
0.0225285
0.0226933
0.0227847
0.0229365
0.0231283
21.7965
3.38043
1.22886
0.663502
0.436471
0.32042
0.251573
0.206488
0.174843
0.151479
0.133559
0.119395
0.10793
0.0984653
0.0905245
0.0837733
0.0779617
0.072915
0.0684809
0.0645721
0.0610809
0.0579722
0.0551536
0.0526254
0.0502991
0.0482056
0.0462551
0.0445039
0.0428515
0.0413792
0.0399614
0.0387051
0.0374581
0.0363504
0.0352051
0.0342019
0.0331574
0.0322681
0.0313402
0.0305735
0.0297647
0.0290872
0.0283778
0.0277791
0.02716
0.0266065
0.0260485
0.025549
0.0250594
0.0246159
0.0242794
0.0238194
0.0237187
0.0229762
21.7965
3.38043
1.22886
0.663503
0.43647
0.320419
0.251571
0.206486
0.174841
0.151477
0.133558
0.119392
0.107929
0.0984622
0.0905252
0.0837695
0.0779622
0.0729092
0.0684808
0.0645654
0.0610802
0.057966
0.0551531
0.0526231
0.0503018
0.0482119
0.046262
0.0445178
0.0428584
0.04139
0.0399564
0.0387008
0.0374351
0.0363293
0.0351736
0.0341832
0.0331388
0.0322757
0.0313491
0.030602
0.029788
0.0291292
0.0284101
0.0278216
0.0271758
0.0266421
0.026061
0.0255875
0.0250738
0.0246645
0.0242689
0.0238299
0.0237289
0.0228508
21.7961
3.38054
1.22899
0.663686
0.436684
0.320638
0.251775
0.206674
0.175022
0.151661
0.133742
0.119584
0.108121
0.0986635
0.090723
0.083978
0.0781649
0.0731215
0.0686873
0.0647795
0.0612926
0.0581857
0.055376
0.0528459
0.0505273
0.0484256
0.0464801
0.0447155
0.0430668
0.0415738
0.0401578
0.0388796
0.0376369
0.0365209
0.035406
0.0344153
0.033407
0.0325295
0.031628
0.0308434
0.0300421
0.029335
0.0286277
0.0279863
0.0273518
0.0267767
0.0262121
0.0256945
0.0252037
0.0247576
0.0243799
0.023938
0.0237088
0.0231424
21.7961
3.38054
1.22899
0.663687
0.436684
0.320636
0.251774
0.206671
0.175021
0.151658
0.133742
0.11958
0.108122
0.0986587
0.0907249
0.0839729
0.0781661
0.0731161
0.068686
0.0647764
0.0612911
0.0581866
0.0553726
0.0528494
0.0505226
0.048433
0.046478
0.044728
0.0430658
0.0415849
0.0401507
0.0388796
0.0376192
0.0365132
0.0353862
0.0344121
0.0333975
0.0325367
0.0316233
0.0308635
0.0300458
0.0293707
0.0286336
0.0280251
0.0273587
0.0268118
0.0262179
0.0257287
0.0252318
0.0247939
0.0243749
0.0240224
0.0235786
0.0231402
21.7963
3.38046
1.22891
0.663624
0.436631
0.32059
0.251731
0.206632
0.174982
0.151622
0.133704
0.119546
0.108084
0.0986263
0.0906881
0.0839403
0.07813
0.0730828
0.0686544
0.0647496
0.0612744
0.0581707
0.0553699
0.0528375
0.0505223
0.0484149
0.0464721
0.0447018
0.0430543
0.0415535
0.0401377
0.0388501
0.0376203
0.0365007
0.035416
0.0344171
0.0334494
0.0325433
0.0316822
0.0308592
0.0301027
0.0293394
0.0286624
0.0279483
0.0273474
0.026705
0.0261689
0.0256422
0.0251714
0.0247172
0.0243222
0.0238809
0.0235531
0.023146
21.7963
3.38047
1.22892
0.663624
0.43663
0.320589
0.251729
0.206631
0.174981
0.151621
0.133702
0.119546
0.108082
0.0986268
0.0906852
0.0839416
0.0781256
0.0730847
0.0686497
0.0647524
0.061266
0.058171
0.0553546
0.0528375
0.0505067
0.0484239
0.0464634
0.0447203
0.0430507
0.041574
0.0401341
0.0388665
0.0376112
0.0365051
0.035397
0.0344123
0.0334285
0.0325373
0.0316715
0.0308571
0.0300959
0.0293396
0.0286619
0.0279681
0.0273526
0.0267527
0.0261894
0.0257028
0.0252005
0.0247473
0.0243851
0.0238775
0.0237549
0.023159
21.7963
3.38044
1.22889
0.6636
0.43661
0.320571
0.251712
0.206612
0.174963
0.1516
0.133684
0.119521
0.108063
0.0985975
0.0906645
0.0839079
0.0781033
0.0730488
0.0686303
0.064718
0.0612502
0.0581398
0.0553431
0.0528116
0.0505016
0.0484031
0.0464612
0.0447013
0.0430485
0.0415571
0.0401319
0.0388533
0.0376105
0.0364997
0.0354029
0.0344192
0.0334408
0.0325497
0.0316786
0.0308649
0.0300913
0.0293316
0.0286456
0.0279295
0.0273391
0.0266765
0.0262084
0.0256173
0.0252356
0.0247124
0.0243526
0.0238579
0.0235918
0.022921
21.7963
3.38044
1.22889
0.663599
0.436609
0.320569
0.251711
0.20661
0.174963
0.151598
0.133684
0.11952
0.108062
0.0985968
0.0906633
0.0839072
0.0781022
0.0730487
0.068629
0.0647165
0.0612459
0.0581328
0.055337
0.0528029
0.0504995
0.0483994
0.0464665
0.0447038
0.0430568
0.0415631
0.0401396
0.0388592
0.0376111
0.036499
0.0353921
0.0344138
0.0334215
0.0325517
0.0316542
0.0308759
0.0300572
0.0293583
0.0286089
0.0279812
0.027315
0.026755
0.0261996
0.0256783
0.0252399
0.0247168
0.0243522
0.0238327
0.0236272
0.0229773
21.7963
3.38042
1.22885
0.66357
0.436586
0.32055
0.251691
0.20659
0.174939
0.151575
0.133655
0.119493
0.108028
0.0985648
0.0906249
0.0838714
0.0780623
0.0730113
0.0685907
0.0646781
0.0612115
0.0580937
0.0553111
0.0527724
0.0504918
0.0483796
0.0464716
0.0446823
0.0430667
0.0415367
0.0401558
0.0388295
0.0376344
0.0364686
0.0354267
0.034391
0.0334694
0.0325282
0.0317003
0.0308346
0.0300925
0.0292988
0.028641
0.0279183
0.0273471
0.0267141
0.0262326
0.0256826
0.0252527
0.0247316
0.024339
0.0237842
0.0236264
0.0228158
21.7963
3.38042
1.22886
0.66357
0.436585
0.320549
0.25169
0.206589
0.174938
0.151573
0.133655
0.119491
0.108029
0.0985625
0.0906268
0.0838689
0.0780638
0.0730088
0.0685898
0.0646739
0.0612071
0.0580893
0.0553051
0.052766
0.0504855
0.0483734
0.0464711
0.0446826
0.0430758
0.0415409
0.0401671
0.0388302
0.0376429
0.0364628
0.0354319
0.0343736
0.0334727
0.0325023
0.0317091
0.0308105
0.030114
0.0292823
0.0286733
0.0279152
0.0273901
0.0267118
0.0262701
0.0256601
0.0252696
0.0246797
0.0243498
0.0237724
0.0235615
0.0227404
21.7963
3.38041
1.22883
0.663549
0.436566
0.32053
0.251668
0.206568
0.174911
0.15155
0.133622
0.119464
0.107989
0.0985316
0.09058
0.0838333
0.0780117
0.072969
0.0685357
0.0646332
0.0611544
0.0580503
0.0552603
0.0527391
0.0504579
0.0483654
0.0464555
0.0446837
0.0430603
0.0415421
0.0401515
0.0388331
0.0376339
0.0364713
0.0354337
0.0343877
0.0334828
0.0325193
0.0317154
0.0308155
0.0301065
0.0292737
0.0286569
0.0279016
0.0273749
0.0267016
0.0262595
0.0256499
0.0252531
0.0246497
0.0243155
0.0236903
0.0234784
0.0225364
21.7963
3.38041
1.22883
0.663549
0.436565
0.320529
0.251668
0.206566
0.174912
0.151547
0.133624
0.11946
0.107993
0.0985269
0.0905847
0.0838277
0.0780168
0.0729618
0.0685392
0.0646236
0.0611557
0.0580402
0.0552606
0.0527296
0.0504591
0.0483548
0.0464624
0.0446746
0.0430735
0.0415335
0.0401651
0.0388245
0.0376435
0.0364639
0.0354346
0.0343806
0.0334737
0.0325104
0.0317087
0.0308151
0.030112
0.0292828
0.0286783
0.0279163
0.0274026
0.0267151
0.0262751
0.0256466
0.0252352
0.0246644
0.0242617
0.0237415
0.0233356
0.0227179
21.7963
3.38039
1.22879
0.663517
0.436542
0.320507
0.251647
0.206541
0.174888
0.151516
0.133594
0.119422
0.107956
0.0984826
0.09054
0.0837766
0.0779628
0.072904
0.0684782
0.0645645
0.0610947
0.0579877
0.0552063
0.0526973
0.0504245
0.0483534
0.0464405
0.0446903
0.0430466
0.0415533
0.0401325
0.0388526
0.0376184
0.0365064
0.0354198
0.0344333
0.033464
0.0325665
0.0316973
0.030864
0.0300924
0.0293142
0.0286575
0.0279327
0.0273861
0.0267171
0.0262526
0.0256226
0.0252019
0.0245971
0.0242202
0.0236166
0.0233783
0.0224567
21.7963
3.38039
1.22879
0.663517
0.436541
0.320507
0.251645
0.206543
0.174885
0.151519
0.133591
0.119427
0.107952
0.0984876
0.0905359
0.0837815
0.0779579
0.072909
0.0684715
0.0645667
0.0610853
0.0579875
0.055198
0.0526923
0.0504158
0.0483413
0.04644
0.0446783
0.0430633
0.0415459
0.0401618
0.0388441
0.0376463
0.0364893
0.0354392
0.034407
0.0334759
0.0325368
0.0317087
0.0308373
0.0301124
0.0293
0.0286844
0.0279273
0.0274141
0.0267099
0.0262684
0.0256113
0.025208
0.0245879
0.0242257
0.0236353
0.0233888
0.0224714
21.7963
3.38037
1.22877
0.663495
0.436522
0.320487
0.251625
0.206517
0.174859
0.151487
0.133559
0.119387
0.107913
0.0984387
0.0904872
0.0837222
0.0778992
0.0728377
0.0684036
0.0644877
0.0610121
0.0579056
0.0551297
0.0526304
0.0503812
0.0483252
0.0464447
0.0446952
0.0430799
0.0415716
0.040176
0.0388723
0.0376595
0.0365211
0.0354521
0.0344444
0.0334856
0.0325832
0.0317118
0.0308883
0.0301017
0.0293411
0.0286618
0.027959
0.0273847
0.0267344
0.0262221
0.0256278
0.0251498
0.0245992
0.0241905
0.0236234
0.0233526
0.0224466
21.7963
3.38038
1.22877
0.663495
0.436521
0.320487
0.251624
0.206518
0.174859
0.151489
0.133558
0.119389
0.107912
0.0984406
0.0904865
0.0837236
0.0778981
0.0728385
0.0684004
0.0644855
0.0610063
0.0579025
0.0551254
0.0526266
0.0503759
0.0483178
0.0464402
0.0446891
0.0430857
0.0415711
0.0401891
0.0388699
0.0376701
0.0365131
0.0354578
0.0344308
0.0334887
0.0325653
0.0317155
0.0308743
0.0301112
0.0293417
0.0286755
0.0279669
0.0273991
0.0267292
0.0262437
0.0256015
0.0251789
0.024583
0.0242099
0.0236274
0.0233719
0.0225082
21.7963
3.38035
1.22873
0.663461
0.436497
0.320465
0.251602
0.206493
0.174833
0.151456
0.133526
0.119347
0.107871
0.0983877
0.0904349
0.0836572
0.0778326
0.0727563
0.068318
0.0643871
0.0609103
0.0578003
0.0550355
0.0525566
0.0503344
0.0483225
0.0464611
0.0447428
0.0431276
0.0416353
0.0402286
0.0389246
0.0377011
0.0365607
0.0354909
0.0344814
0.0335278
0.0326238
0.0317564
0.0309362
0.0301428
0.0293947
0.0286904
0.028014
0.0273947
0.0267927
0.0261962
0.0256979
0.0251259
0.0246484
0.0242551
0.0236504
0.023205
0.0225857
21.7963
3.38036
1.22873
0.663461
0.436498
0.320464
0.251604
0.206492
0.174835
0.151455
0.13353
0.119345
0.107877
0.0983841
0.0904414
0.0836524
0.0778391
0.0727502
0.0683234
0.0643804
0.060912
0.0577966
0.0550373
0.0525519
0.05033
0.0483055
0.0464572
0.044727
0.0431326
0.0416277
0.0402414
0.0389252
0.0377142
0.0365621
0.035493
0.0344802
0.0335179
0.032621
0.0317379
0.0309388
0.0301233
0.0294125
0.0286739
0.0280416
0.0273841
0.0267917
0.0262232
0.0256477
0.025186
0.0246172
0.0242301
0.0237092
0.0232648
0.0226896
21.7963
3.38034
1.2287
0.663438
0.436478
0.320448
0.251581
0.206473
0.174803
0.151432
0.133487
0.119317
0.107821
0.0983486
0.0903695
0.0836044
0.0777486
0.072683
0.0682112
0.0642907
0.0607853
0.0576892
0.0549149
0.052467
0.0502995
0.0483248
0.0465357
0.0448266
0.0432638
0.0417579
0.0403669
0.0390413
0.0377986
0.0366594
0.0355464
0.0345732
0.0335661
0.032709
0.031796
0.0310264
0.0301785
0.0295281
0.0287069
0.0281889
0.0274307
0.0269545
0.0263026
0.0258002
0.0253313
0.0246156
0.0242401
0.0234239
0.0231198
0.0222643
21.7963
3.38034
1.2287
0.663438
0.436478
0.320448
0.251582
0.206474
0.174805
0.151433
0.133489
0.119318
0.107823
0.0983487
0.0903728
0.0836026
0.0777535
0.072678
0.0682197
0.0642792
0.0607998
0.0576745
0.0549339
0.0524574
0.0503062
0.0483263
0.0465299
0.0448275
0.0432559
0.0417564
0.0403662
0.0390348
0.0378105
0.0366386
0.0355681
0.0345332
0.0335884
0.0326563
0.0318196
0.0309611
0.0302243
0.0294397
0.028775
0.0281023
0.0274571
0.0268752
0.0262956
0.0257447
0.0252819
0.0246945
0.0243403
0.0236931
0.0232774
0.0226905
21.7963
3.38031
1.22865
0.663404
0.436453
0.320432
0.251557
0.206461
0.174768
0.151422
0.133436
0.11931
0.107747
0.0983427
0.0902662
0.0835966
0.0776073
0.072664
0.0680272
0.0642469
0.0605656
0.0576214
0.0547103
0.0524611
0.0503386
0.0485979
0.0469263
0.04538
0.0438291
0.0424047
0.0409903
0.0397049
0.0384459
0.0373009
0.0362193
0.0352051
0.0342433
0.0333776
0.0324639
0.0317274
0.0309086
0.0302996
0.0295148
0.0289977
0.0282761
0.0277879
0.0271224
0.026683
0.0263893
0.0256094
0.0255283
0.02503
0.0248554
0.0247835
21.7962
3.38032
1.22866
0.663404
0.436453
0.320433
0.251557
0.206464
0.174768
0.151426
0.133434
0.119316
0.107744
0.0983509
0.0902618
0.0836054
0.0776027
0.072672
0.0680234
0.0642525
0.0605651
0.0576176
0.0547268
0.0524465
0.0503785
0.0485817
0.0468971
0.045292
0.0437607
0.0422883
0.0409152
0.0395852
0.0383682
0.0371866
0.0361135
0.0350795
0.0340986
0.0332223
0.0322862
0.0315462
0.0307168
0.0300012
0.0293552
0.0287129
0.0279642
0.0274918
0.0268589
0.0261946
0.0256962
0.025347
0.0248289
0.0245894
0.0244822
0.0240668
21.7962
3.3803
1.22863
0.663385
0.436438
0.32042
0.251541
0.206448
0.174745
0.151409
0.133399
0.119299
0.107687
0.0983397
0.0901715
0.0836038
0.0774602
0.0726841
0.0677993
0.0642849
0.0602314
0.0577474
0.0543143
0.0532498
0.0506657
0.0512739
0.0510339
0.0504085
0.0491183
0.0471391
0.0452059
0.043634
0.0423652
0.0412188
0.0403456
0.0394244
0.0386874
0.0380241
0.0370755
0.0362464
0.0358783
0.0349167
0.0345962
0.0347097
0.0357261
0.0354668
0.0356904
0.0361282
0.0373412
0.0369514
0.0372743
0.0382479
0.0390778
0.0390941
21.7962
3.38031
1.22863
0.663385
0.436437
0.320423
0.251538
0.206455
0.17474
0.151419
0.133391
0.119312
0.10768
0.0983505
0.0901676
0.0836094
0.0774627
0.0726812
0.0678141
0.0642681
0.060259
0.0577163
0.0543989
0.0530818
0.0511288
0.0508889
0.0497471
0.0488966
0.0472009
0.0455848
0.0439879
0.0425379
0.0412004
0.0399657
0.0387955
0.0378219
0.0366847
0.0359781
0.0349248
0.0343226
0.0337179
0.0335626
0.0328372
0.0327352
0.032751
0.0331028
0.0336559
0.0344313
0.0351137
0.0358293
0.0363477
0.0367158
0.0370152
0.0371614
21.7962
3.38028
1.22859
0.663351
0.43643
0.320391
0.251559
0.206392
0.174793
0.151309
0.133489
0.11914
0.107832
0.0981012
0.0903822
0.0832647
0.0777434
0.0722176
0.0681472
0.0636625
0.0606163
0.0569491
0.0552166
0.0547152
0.0605957
0.115268
0.118199
0.117983
0.117384
0.11352
0.109375
0.105375
0.101653
0.098277
0.0954062
0.0928554
0.0907677
0.0888031
0.0873704
0.0858829
0.0846424
0.0832067
0.0818381
0.0803016
0.0786845
0.0770181
0.0749315
0.0731574
0.070279
0.0684292
0.0643564
0.0623321
0.0574628
0.0554023
21.7962
3.38029
1.22859
0.663352
0.43643
0.320394
0.251558
0.206398
0.174791
0.151318
0.133485
0.119151
0.107827
0.0981125
0.0903785
0.0832736
0.0777437
0.072225
0.0681475
0.0636792
0.0605973
0.0569921
0.0551281
0.0548307
0.060127
0.091677
0.0947441
0.0981458
0.0984825
0.0982149
0.0965417
0.095057
0.0936161
0.0904345
0.0900443
0.0887326
0.087298
0.0857166
0.084453
0.0830812
0.0817744
0.0802514
0.078805
0.0773004
0.0756737
0.0741295
0.0720748
0.0704476
0.0677721
0.0660087
0.0625793
0.0604974
0.056413
0.0537855
21.7962
3.38027
1.22857
0.663338
0.436424
0.320383
0.251559
0.206378
0.174799
0.151283
0.133503
0.119097
0.107857
0.0980358
0.0904208
0.0831673
0.0777954
0.0720853
0.0681814
0.0635016
0.0607335
0.0558006
0.0569157
0.0615613
0.266452
0.347408
0.181097
0.129662
0.111375
0.102323
0.0961256
0.0909577
0.0863079
0.0820349
0.0780613
0.0742859
0.0706803
0.0671862
0.0637368
0.0603246
0.0568843
0.0535119
0.0504968
0.0476452
0.0451489
0.04303
0.0410412
0.039459
0.0379071
0.0368235
0.0357729
0.0350345
0.0343741
0.0334581
21.7962
3.38028
1.22857
0.663338
0.436425
0.320384
0.251561
0.20638
0.174802
0.151284
0.133509
0.119094
0.107871
0.0980217
0.0904507
0.0831342
0.0778455
0.0720377
0.0682418
0.0634581
0.0607553
0.056027
0.0566654
0.0596928
0.194215
0.310437
0.188159
0.119892
0.100411
0.0938386
0.0901496
0.0868002
0.0830414
0.0790892
0.0753729
0.0717559
0.0683574
0.064995
0.0618534
0.0586213
0.0556688
0.0528037
0.0501598
0.0477271
0.0455132
0.0436592
0.0417715
0.0404423
0.0387241
0.0378613
0.036384
0.0357118
0.0346163
0.0337373
21.7962
3.38025
1.22853
0.663313
0.436415
0.320378
0.25156
0.206374
0.174802
0.151277
0.133509
0.119085
0.107868
0.0980157
0.0904365
0.0831394
0.0778144
0.0720441
0.0682404
0.0633565
0.0609017
0.0562489
0.0552541
0.108053
0.172186
0.186795
0.146535
0.120165
0.108347
0.101919
0.0971136
0.092802
0.0888196
0.085172
0.081855
0.0789886
0.076505
0.0744486
0.0726749
0.0712795
0.0700489
0.069
0.0679475
0.0666874
0.0652964
0.0632277
0.0614546
0.0583648
0.0565605
0.0520706
0.0504939
0.0451754
0.0436104
21.7961
3.38026
1.22853
0.663314
0.436416
0.32038
0.251563
0.206377
0.174807
0.151278
0.133516
0.119084
0.107878
0.098013
0.0904478
0.0831408
0.0778111
0.072095
0.0681173
0.0636572
0.060467
0.0561762
0.0570764
0.113573
0.183566
0.197426
0.144683
0.124434
0.112492
0.105848
0.101292
0.0972726
0.0935203
0.0900589
0.0868501
0.0839534
0.08129
0.078961
0.0768145
0.0749613
0.0730852
0.0713746
0.069402
0.0673187
0.0650605
0.0624597
0.0600633
0.0567951
0.0544912
0.0503209
0.0482731
0.0433676
0.041352
21.7961
3.38024
1.22852
0.663308
0.436412
0.32039
0.251554
0.206398
0.174785
0.151316
0.133476
0.119145
0.107817
0.0981016
0.0903648
0.0832565
0.0777263
0.0721977
0.0681366
0.0636164
0.0606339
0.0568664
0.0552266
0.0580676
0.100569
0.107958
0.110814
0.112162
0.110584
0.10768
0.103244
0.0988964
0.0946633
0.0904812
0.086392
0.0823133
0.0782976
0.0742017
0.0701509
0.0659116
0.0617243
0.0573403
0.0531536
0.04888
0.0450115
0.0412518
0.0381053
0.0350829
0.032629
0.0302583
0.0283506
0.026609
0.0250313
0.0240255
21.7961
3.38025
1.22852
0.663309
0.436413
0.320392
0.251556
0.206402
0.174786
0.151322
0.133476
0.119154
0.107814
0.098115
0.0903573
0.0832767
0.0777122
0.0722293
0.0681091
0.0636779
0.0605642
0.0569574
0.0551495
0.057896
0.0919754
0.0870715
0.0894952
0.0895918
0.088449
0.086691
0.0837884
0.0808344
0.0777275
0.074535
0.0713237
0.0681039
0.0649143
0.0616447
0.0583811
0.0549456
0.0516102
0.0481477
0.0449822
0.0418581
0.0391775
0.0364519
0.0342138
0.0319032
0.0301344
0.0282513
0.0269149
0.0254505
0.0244072
0.0234011
21.7961
3.38022
1.22848
0.663294
0.436401
0.320412
0.251534
0.206453
0.174734
0.151416
0.133379
0.119306
0.107661
0.0983394
0.0901397
0.0835904
0.0774237
0.0726537
0.0677557
0.0642405
0.0601568
0.057716
0.0542301
0.0530975
0.0507638
0.050657
0.0500529
0.0488933
0.047059
0.0452507
0.0435294
0.0419063
0.0404051
0.0389705
0.0376543
0.036364
0.0352005
0.0340215
0.032992
0.0319094
0.0310065
0.030018
0.0292405
0.0283403
0.0276776
0.0268498
0.0262937
0.0255232
0.0250629
0.0243237
0.0239131
0.0231899
0.0228415
0.0220074
21.7961
3.38024
1.22848
0.663295
0.436403
0.320414
0.251539
0.206454
0.174742
0.151415
0.133391
0.119302
0.107676
0.0983328
0.090158
0.0835826
0.0774455
0.0726447
0.0677861
0.0642198
0.0602159
0.0576521
0.05434
0.0530079
0.0509409
0.050466
0.0493166
0.0476032
0.0458762
0.0441788
0.0425456
0.0409993
0.0395552
0.0381971
0.0369413
0.0357398
0.0346484
0.0335692
0.0326179
0.031634
0.030805
0.0299042
0.0291862
0.0283544
0.0277288
0.0269515
0.0264073
0.0256701
0.0252005
0.0244733
0.0240774
0.0233225
0.0230322
0.0222342
21.7961
3.38022
1.22847
0.663294
0.436412
0.32042
0.251557
0.206457
0.17477
0.151413
0.133433
0.119295
0.107737
0.09832
0.0902455
0.0835636
0.0775726
0.0726199
0.0679735
0.06419
0.0604889
0.0575498
0.0546337
0.0523678
0.0502632
0.0484207
0.0467004
0.0450449
0.0434901
0.0420208
0.0406457
0.0393176
0.0380789
0.0368702
0.0357601
0.03466
0.0336747
0.0326728
0.0318016
0.0308826
0.0301109
0.0292633
0.0285798
0.0277918
0.0271848
0.0264427
0.025908
0.0252002
0.0247363
0.0240351
0.023654
0.0229394
0.0226419
0.0218131
21.796
3.38023
1.22848
0.663295
0.436414
0.320422
0.251561
0.206461
0.174775
0.151416
0.13344
0.119296
0.107747
0.0983179
0.0902597
0.083559
0.0775916
0.0726138
0.0679986
0.0641824
0.0605235
0.0575378
0.0546738
0.0523577
0.0502773
0.0484326
0.0466971
0.0450256
0.0434609
0.0419861
0.0405988
0.0392748
0.0380235
0.0368235
0.0357035
0.0346165
0.0336273
0.0326383
0.0317665
0.0308595
0.0300882
0.0292528
0.0285674
0.0277919
0.0271802
0.0264544
0.0259105
0.0252263
0.0247438
0.0240951
0.0236683
0.0230299
0.0227498
0.0218956
21.796
3.38021
1.22845
0.663284
0.436418
0.32043
0.251578
0.20647
0.174802
0.151424
0.13348
0.119301
0.107805
0.0983217
0.0903404
0.0835637
0.0777034
0.0726259
0.0681498
0.064214
0.0607079
0.0575947
0.0548243
0.0523577
0.0501718
0.0481718
0.0463452
0.0446292
0.0430555
0.0415653
0.0401867
0.0388574
0.0376261
0.0364281
0.0353333
0.0342584
0.0332964
0.0323281
0.0314807
0.0305969
0.0298462
0.0290311
0.0283604
0.0276014
0.0269987
0.0262857
0.0257441
0.0250737
0.0245859
0.0239741
0.0235468
0.0229908
0.0225877
0.0220087
21.796
3.38022
1.22845
0.663286
0.436421
0.320434
0.251582
0.206475
0.174806
0.15143
0.133484
0.119308
0.107808
0.0983305
0.0903434
0.0835747
0.0777063
0.0726398
0.0681526
0.0642306
0.0607107
0.0576119
0.0548265
0.0523654
0.0501714
0.0481777
0.0463532
0.0446454
0.043065
0.0415817
0.0401888
0.0388728
0.0376259
0.0364481
0.0353402
0.0342846
0.0333105
0.0323548
0.0314989
0.0306236
0.0298674
0.0290581
0.0283856
0.0276294
0.027033
0.0263165
0.0257954
0.0251061
0.0246679
0.0240016
0.0236414
0.0230372
0.0226633
0.0220387
21.796
3.38021
1.22845
0.663291
0.436432
0.320448
0.251599
0.206493
0.174829
0.15145
0.133514
0.119332
0.10785
0.0983601
0.0904001
0.0836127
0.077781
0.0726914
0.0682469
0.064301
0.0608196
0.0576934
0.0549233
0.0524146
0.0501793
0.0481281
0.0462663
0.0445249
0.0429334
0.0414291
0.0400439
0.0387168
0.0374884
0.0363037
0.0352123
0.0341528
0.0331891
0.0322335
0.0313843
0.0305115
0.0297617
0.0289514
0.0282879
0.0275253
0.0269417
0.0262186
0.0257086
0.0250161
0.0245766
0.0239259
0.0235506
0.0229441
0.0226966
0.0217887
21.796
3.38022
1.22845
0.663293
0.436435
0.320451
0.251603
0.206497
0.174833
0.151456
0.133519
0.119339
0.107854
0.0983685
0.0904033
0.0836233
0.0777849
0.0727041
0.068253
0.0643147
0.0608289
0.0577066
0.054933
0.0524245
0.050186
0.0481389
0.0462768
0.0445448
0.0429437
0.0414504
0.0400454
0.0387381
0.037487
0.0363316
0.0352166
0.0341874
0.0331983
0.0322709
0.031397
0.0305495
0.0297761
0.0289903
0.0283049
0.0275659
0.0269657
0.0262607
0.0257451
0.0250632
0.0246296
0.0239697
0.0236055
0.0230041
0.022558
0.0219866
21.7959
3.3802
1.22843
0.663286
0.436441
0.320464
0.251621
0.206515
0.174857
0.151478
0.133549
0.119366
0.107892
0.0984028
0.0904517
0.0836681
0.077844
0.0727626
0.0683225
0.0643866
0.0609028
0.057782
0.0549931
0.0524756
0.0502054
0.0481335
0.0462398
0.0444889
0.0428696
0.0413628
0.0399525
0.0386342
0.0373886
0.0362211
0.0351123
0.0340702
0.033083
0.0321506
0.0312734
0.0304302
0.029648
0.0288702
0.0281757
0.0274435
0.026844
0.02614
0.0256371
0.0249506
0.0245267
0.0238459
0.0234869
0.0228072
0.0225195
0.021695
21.7959
3.38021
1.22843
0.663289
0.436445
0.320468
0.251624
0.206521
0.174861
0.151485
0.133553
0.119374
0.107897
0.098411
0.0904578
0.0836764
0.0778527
0.072771
0.0683344
0.064395
0.0609176
0.0577905
0.055009
0.052484
0.0502204
0.0481437
0.0462556
0.0445052
0.0428855
0.0413831
0.0399647
0.0386584
0.0373971
0.0362516
0.0351205
0.0341097
0.0330947
0.0321965
0.0312866
0.0304771
0.0296621
0.0289158
0.0281947
0.0274887
0.0268689
0.0261831
0.0256634
0.0249895
0.0245452
0.023889
0.0234919
0.0228505
0.0224709
0.0218807
21.7959
3.3802
1.22843
0.663296
0.436458
0.320483
0.251644
0.206539
0.174885
0.151506
0.133584
0.1194
0.107934
0.0984442
0.0905024
0.0837186
0.0779042
0.0728232
0.0683912
0.0644552
0.0609744
0.0578488
0.0550536
0.0525245
0.0502367
0.0481489
0.0462384
0.0444707
0.0428451
0.041314
0.0399137
0.0385631
0.037348
0.0361404
0.0350771
0.0339875
0.0330516
0.0320679
0.0312385
0.0303492
0.0296041
0.0287967
0.0281207
0.0273839
0.026772
0.0260881
0.0255522
0.024893
0.0244223
0.0237846
0.0233693
0.0227085
0.0224337
0.021621
21.7959
3.38021
1.22843
0.663298
0.436461
0.320488
0.251647
0.206545
0.174888
0.151514
0.133586
0.119409
0.107937
0.098455
0.0905047
0.0837306
0.077908
0.0728361
0.0683974
0.0644685
0.0609831
0.0578627
0.055065
0.0525382
0.0502483
0.0481634
0.0462491
0.0444887
0.0428542
0.0413379
0.0399187
0.0385945
0.0373479
0.0361795
0.0350748
0.0340354
0.0330511
0.0321209
0.0312417
0.030401
0.0296151
0.028843
0.0281458
0.0274195
0.0268126
0.0261143
0.0255922
0.0249179
0.0244583
0.0238143
0.0233947
0.0227637
0.0224962
0.0216288
21.7959
3.38019
1.22842
0.663296
0.436469
0.320502
0.251664
0.206564
0.174909
0.151537
0.133611
0.119438
0.107966
0.0984892
0.0905395
0.0837709
0.077948
0.0728817
0.0684407
0.0645165
0.0610244
0.057907
0.0550944
0.0525671
0.0502554
0.0481676
0.0462281
0.0444661
0.0428097
0.0412908
0.0398605
0.038527
0.0372864
0.0360971
0.0350164
0.0339395
0.0329941
0.032011
0.0311836
0.030281
0.0295539
0.0287189
0.028075
0.0272941
0.0267189
0.0259867
0.0254732
0.0247783
0.0243354
0.0236838
0.0232688
0.0227037
0.0222896
0.0217132
21.7958
3.38021
1.22842
0.663299
0.436473
0.320507
0.251668
0.206571
0.174912
0.151545
0.133614
0.119448
0.107968
0.0985013
0.0905421
0.0837847
0.0779519
0.0728966
0.0684472
0.0645314
0.0610351
0.0579204
0.0551098
0.0525781
0.0502761
0.0481752
0.0462527
0.044474
0.0428367
0.0413024
0.039889
0.0385443
0.0373156
0.0361183
0.0350472
0.0339628
0.0330303
0.0320363
0.0312252
0.0303084
0.0295973
0.0287497
0.0281164
0.0273327
0.026762
0.0260326
0.0255197
0.0248376
0.0243806
0.0237377
0.0233421
0.0227376
0.02248
0.0215988
21.7958
3.38019
1.22842
0.663308
0.436486
0.320522
0.251686
0.206587
0.174934
0.151564
0.133639
0.11947
0.107999
0.0985272
0.0905768
0.0838142
0.0779899
0.0729288
0.0684856
0.0645641
0.0610686
0.0579487
0.0551306
0.0525966
0.0502755
0.0481779
0.0462292
0.0444589
0.0427944
0.0412711
0.0398339
0.0384988
0.0372528
0.0360637
0.0349786
0.0339056
0.0329518
0.0319802
0.0311339
0.0302516
0.0294994
0.0286855
0.0280239
0.02726
0.026676
0.0259505
0.0254297
0.0247487
0.0242999
0.0236274
0.0232671
0.0226463
0.0223806
0.021464
21.7958
3.38021
1.22843
0.663311
0.436489
0.320527
0.251689
0.206594
0.174937
0.151572
0.133643
0.119479
0.108002
0.0985368
0.0905813
0.0838252
0.0779954
0.0729415
0.0684924
0.0645788
0.0610769
0.057965
0.0551414
0.0526135
0.0502889
0.0481944
0.0462462
0.0444733
0.0428166
0.0412846
0.0398615
0.0385136
0.0372844
0.0360793
0.0350139
0.0339203
0.0329948
0.0319928
0.031185
0.0302649
0.0295494
0.0287101
0.0280631
0.0273033
0.0267034
0.0260105
0.0254612
0.0248076
0.0243341
0.0237008
0.0233146
0.0226892
0.022431
0.0215539
21.7958
3.38019
1.22842
0.663313
0.4365
0.32054
0.251707
0.206611
0.174958
0.151591
0.133667
0.1195
0.10803
0.0985601
0.0906124
0.0838501
0.0780278
0.0729669
0.0685237
0.064602
0.0611028
0.0579831
0.0551564
0.0526212
0.0502871
0.0481894
0.0462241
0.0444575
0.0427762
0.0412599
0.0398067
0.0384816
0.0372181
0.0360448
0.0349344
0.0338932
0.0328941
0.0319797
0.031059
0.0302597
0.0294129
0.028692
0.0279461
0.0272528
0.0266125
0.0259297
0.0253636
0.0247281
0.0241908
0.0236166
0.0231633
0.0225305
0.0222433
0.021361
21.7958
3.38021
1.22842
0.663316
0.436503
0.320545
0.251711
0.206617
0.174962
0.151599
0.133671
0.11951
0.108033
0.0985719
0.0906145
0.0838644
0.07803
0.0729841
0.0685265
0.0646223
0.061107
0.0580058
0.0551627
0.0526446
0.0502981
0.0482108
0.0462418
0.0444757
0.0428024
0.0412742
0.0398426
0.0384922
0.0372633
0.0360511
0.0349878
0.0338941
0.0329564
0.0319759
0.0311284
0.0302573
0.029477
0.0287098
0.0279799
0.0273066
0.0266086
0.0260107
0.0253603
0.0247931
0.0242484
0.0236334
0.0232339
0.0225671
0.022296
0.0214598
21.7957
3.38021
1.22844
0.663331
0.436518
0.320559
0.251726
0.206631
0.174979
0.151612
0.133689
0.119523
0.108054
0.0985847
0.0906379
0.0838767
0.0780554
0.0729945
0.0685525
0.0646282
0.0611311
0.0580037
0.0551806
0.052633
0.0503038
0.0481895
0.0462333
0.0444482
0.0427799
0.0412435
0.0398082
0.0384576
0.0372205
0.0360115
0.0349396
0.0338518
0.0329001
0.0319339
0.0310609
0.030209
0.029408
0.0286355
0.0279234
0.0271865
0.0265753
0.0258623
0.0253096
0.0246876
0.0241162
0.0236101
0.0230875
0.0225035
0.022161
0.021363
21.7957
3.38023
1.22844
0.663335
0.436522
0.320564
0.251731
0.206637
0.174983
0.151619
0.133693
0.119531
0.108057
0.0985946
0.0906413
0.0838887
0.0780593
0.0730089
0.0685574
0.0646452
0.0611374
0.0580231
0.0551894
0.052654
0.0503156
0.0482116
0.0462493
0.044469
0.0428009
0.0412626
0.0398339
0.0384773
0.0372481
0.0360348
0.0349653
0.0338794
0.0329252
0.0319632
0.031089
0.030241
0.029434
0.0286792
0.0279339
0.027251
0.0265662
0.0259463
0.0253015
0.0247682
0.0241509
0.0236147
0.023175
0.0225816
0.0221816
0.0213879
21.7956
3.38028
1.22849
0.663382
0.436567
0.320605
0.251768
0.20667
0.175016
0.151647
0.133724
0.119554
0.108088
0.0986128
0.0906735
0.0839021
0.0780933
0.0730165
0.068592
0.0646457
0.06117
0.0580161
0.0552155
0.0526389
0.0503305
0.0481911
0.0462481
0.044447
0.0427815
0.0412413
0.0397965
0.0384534
0.0371959
0.036002
0.0349023
0.0338354
0.0328524
0.0319121
0.0310082
0.0301892
0.0293548
0.0286343
0.0278709
0.0272232
0.026573
0.0259456
0.0254099
0.0248373
0.0243335
0.0238805
0.0232101
0.0228336
0.0226935
0.0225269
21.7955
3.38029
1.2285
0.663385
0.436571
0.320609
0.251772
0.206675
0.17502
0.151654
0.133727
0.119563
0.108091
0.0986253
0.0906759
0.0839176
0.0780956
0.0730349
0.0685951
0.0646666
0.0611748
0.0580388
0.0552225
0.0526629
0.0503412
0.0482156
0.0462618
0.0444708
0.0427971
0.0412638
0.0398146
0.0384752
0.037217
0.0360243
0.0349255
0.0338592
0.0328767
0.031939
0.0310328
0.030225
0.0293717
0.0286919
0.0278759
0.0273001
0.0265882
0.0260041
0.0254763
0.0248662
0.024366
0.0237514
0.0235118
0.0226523
0.0225654
0.0224136
21.7958
3.38004
1.22812
0.663039
0.436271
0.320333
0.251519
0.206434
0.174809
0.151453
0.133537
0.11937
0.107904
0.0984302
0.0904865