/*--------------------------------*- C++ -*----------------------------------*\
| =========                 |                                                 |
| \\      /  F ield         | OpenFOAM: The Open Source CFD Toolbox           |
|  \\    /   O peration     | Version:  4.1                                   |
|   \\  /    A nd           | Web:      www.OpenFOAM.org                      |
|    \\/     M anipulation  |                                                 |
\*---------------------------------------------------------------------------*/
FoamFile
{
    version     2.0;
    format      ascii;
    class       volScalarField;
    location    "60";
    object      p;
}
// * * * * * * * * * * * * * * * * * * * * * * * * * * * * * * * * * * * * * //

dimensions      [0 2 -2 0 0 0 0];

internalField   nonuniform List<scalar> 
4432
(
100869
100870
100871
100872
100875
100878
100882
100886
100891
100898
100905
100914
100922
100930
100938
100946
100952
100956
100963
100975
100993
101013
101033
101055
101079
101104
101128
101146
101158
101168
101175
101179
101184
101191
101196
101191
101183
101188
101193
101195
101197
101201
101210
101220
101227
101238
101228
101234
101259
101257
101202
101149
101122
101150
100869
100870
100870
100872
100875
100878
100882
100886
100891
100898
100905
100914
100922
100930
100938
100946
100952
100956
100963
100975
100994
101014
101034
101056
101080
101106
101128
101145
101159
101169
101177
101182
101186
101190
101193
101191
101186
101185
101188
101195
101201
101206
101210
101214
101221
101245
101243
101232
101246
101247
101201
101165
101105
101133
100868
100868
100869
100870
100873
100876
100879
100884
100889
100895
100902
100911
100920
100929
100940
100952
100968
100987
101003
101015
101028
101045
101062
101079
101096
101112
101128
101145
101160
101174
101183
101188
101189
101186
101182
101174
101170
101175
101182
101192
101196
101196
101203
101214
101223
101231
101237
101243
101256
101255
101243
101218
101006
101219
100868
100868
100869
100870
100873
100876
100879
100883
100889
100895
100903
100911
100920
100929
100940
100952
100968
100987
101004
101016
101028
101044
101060
101076
101093
101110
101127
101143
101158
101171
101179
101181
101182
101186
101184
101177
101172
101175
101183
101194
101199
101199
101204
101215
101222
101231
101238
101241
101256
101259
101237
101223
100991
101215
100866
100867
100867
100869
100872
100875
100878
100883
100888
100894
100901
100910
100919
100929
100939
100951
100964
100976
100990
101007
101024
101042
101059
101075
101092
101111
101130
101149
101166
101182
101191
101198
101206
101208
101194
101173
101168
101178
101192
101205
101204
101195
101201
101213
101223
101231
101245
101251
101253
101241
101232
101218
101215
101307
100866
100867
100867
100869
100872
100875
100878
100882
100888
100894
100901
100910
100919
100929
100939
100951
100964
100976
100990
101006
101024
101041
101058
101074
101091
101109
101128
101147
101164
101180
101190
101193
101197
101200
101196
101181
101175
101180
101189
101199
101203
101198
101203
101215
101223
101230
101241
101252
101255
101247
101232
101208
101188
101327
100864
100864
100865
100867
100869
100872
100876
100880
100885
100891
100898
100907
100916
100925
100936
100947
100958
100969
100982
101001
101020
101037
101054
101070
101089
101112
101135
101156
101177
101197
101210
101224
101242
101237
101205
101159
101147
101165
101187
101211
101202
101185
101196
101211
101223
101233
101251
101258
101261
101251
101236
101231
101241
101230
100864
100864
100865
100867
100869
100872
100876
100880
100885
100891
100898
100907
100916
100925
100936
100947
100958
100969
100982
101001
101019
101037
101053
101070
101089
101112
101135
101155
101177
101197
101209
101221
101236
101232
101210
101179
101169
101176
101190
101202
101199
101190
101197
101209
101222
101235
101248
101260
101259
101253
101239
101234
101209
101213
100861
100862
100862
100864
100866
100869
100873
100877
100881
100888
100895
100903
100912
100921
100931
100942
100953
100964
100975
100991
101009
101027
101045
101063
101085
101112
101140
101167
101193
101215
101233
101254
101274
101274
101301
101131
101130
101151
101174
101214
101209
101181
101198
101213
101227
101238
101240
101250
101274
101280
101279
101237
101217
101315
100861
100862
100862
100864
100866
100869
100873
100877
100881
100888
100895
100903
100912
100921
100931
100942
100953
100964
100976
100991
101008
101027
101045
101063
101086
101113
101141
101167
101195
101218
101234
101251
101268
101261
101240
101182
101155
101164
101187
101213
101215
101191
101198
101208
101222
101235
101248
101262
101271
101274
101265
101257
101195
101283
100858
100858
100859
100860
100863
100866
100869
100873
100877
100883
100890
100898
100907
100916
100925
100935
100946
100957
100968
100982
100998
101016
101034
101052
101075
101104
101135
101166
101197
101224
101245
101270
101304
101464
101746
101258
101135
101135
101153
101163
101163
101205
101216
101219
101225
101238
101238
101250
101274
101294
101297
101246
101219
101309
100858
100858
100859
100860
100863
100866
100869
100872
100877
100883
100890
100898
100907
100916
100925
100935
100946
100957
100968
100982
100998
101016
101035
101053
101077
101105
101135
101164
101196
101225
101243
101257
101273
101318
101352
101220
101145
101146
101166
101192
101204
101201
101207
101214
101222
101230
101239
101253
101271
101283
101285
101247
101233
101335
100854
100854
100855
100856
100858
100861
100864
100868
100872
100878
100885
100893
100901
100910
100919
100928
100938
100949
100960
100973
100988
101005
101023
101040
101058
101085
101118
101148
101177
101203
101230
101267
101357
101747
101573
101492
101159
101147
101159
101165
101172
101209
101224
101225
101229
101239
101243
101249
101264
101287
101307
101282
101228
101288
100854
100854
100854
100856
100858
100861
100864
100868
100872
100878
100885
100893
100901
100910
100919
100928
100938
100949
100960
100973
100989
101006
101023
101041
101061
101087
101117
101144
101174
101203
101224
101246
101281
101370
101443
101269
101135
101136
101158
101172
101182
101199
101215
101223
101229
101234
101233
101240
101260
101279
101288
101266
101256
101290
100849
100849
100850
100851
100853
100856
100859
100862
100867
100872
100879
100886
100894
100902
100911
100920
100930
100941
100952
100964
100978
100994
101009
101024
101037
101058
101088
101115
101137
101155
101174
101201
101232
101335
101348
101218
101154
101149
101160
101173
101184
101199
101215
101223
101228
101238
101243
101240
101246
101266
101300
101296
101251
101295
100849
100849
100850
100851
100853
100856
100859
100862
100867
100872
100879
100886
100894
100902
100911
100920
100930
100941
100952
100965
100979
100994
101009
101025
101041
101061
101087
101110
101132
101156
101173
101194
101229
101267
101306
101219
101148
101149
101168
101186
101192
101197
101208
101218
101231
101238
101235
101233
101245
101271
101298
101288
101255
101305
100844
100844
100844
100846
100848
100850
100853
100856
100860
100865
100872
100879
100886
100894
100903
100912
100921
100932
100943
100955
100967
100980
100992
101004
101014
101024
101045
101068
101090
101112
101131
101151
101183
101209
101231
101181
101152
101157
101169
101176
101184
101193
101208
101224
101235
101241
101239
101230
101229
101248
101285
101293
101273
101314
100844
100844
100844
100846
100848
100850
100853
100856
100860
100865
100872
100879
100886
100894
100903
100912
100921
100932
100943
100955
100967
100980
100992
101003
101014
101027
101045
101066
101088
101109
101129
101152
101183
101209
101229
101204
101177
101171
101179
101191
101201
101203
101204
101215
101232
101241
101237
101229
101234
101260
101290
101289
101272
101330
100838
100838
100839
100840
100842
100844
100846
100849
100853
100858
100864
100870
100877
100885
100893
100902
100912
100922
100933
100944
100955
100965
100973
100980
100983
100987
100999
101023
101051
101077
101101
101129
101162
101190
101220
101214
101200
101194
101195
101199
101206
101210
101219
101236
101251
101256
101247
101231
101222
101236
101271
101293
101301
101315
100838
100838
100839
100840
100842
100844
100846
100849
100853
100858
100864
100870
100877
100885
100893
100902
100912
100922
100933
100944
100955
100965
100973
100977
100981
100986
101001
101025
101051
101076
101101
101128
101161
101194
101222
101223
101213
101208
101211
101216
101220
101219
101218
101229
101248
101256
101245
101230
101226
101240
101268
101287
101294
101331
100832
100832
100832
100833
100835
100837
100839
100842
100845
100850
100855
100861
100868
100875
100883
100892
100901
100912
100923
100934
100945
100952
100955
100952
100943
100939
100954
100986
101021
101052
101084
101118
101153
101189
101222
101236
101241
101247
101254
101259
101261
101260
101258
101261
101265
101272
101266
101244
101222
101225
101257
101281
101276
101220
100832
100832
100832
100833
100835
100837
100839
100842
100845
100850
100855
100861
100868
100875
100883
100892
100901
100912
100923
100934
100945
100952
100955
100951
100941
100938
100956
100988
101020
101051
101084
101119
101156
101191
101221
101236
101243
101252
101263
101271
101273
101270
101264
101261
101268
101274
101263
101240
101224
101228
101252
101276
101253
101225
100825
100825
100826
100826
100828
100830
100832
100834
100837
100841
100845
100851
100857
100864
100872
100880
100890
100901
100913
100925
100937
100945
100944
100928
100892
100872
100894
100940
100983
101020
101059
101101
101142
101182
101219
101248
101273
101296
101314
101322
101318
101306
101293
101282
101274
101274
101273
101257
101232
101221
101238
101263
101261
101233
100825
100825
100826
100826
100828
100830
100832
100834
100837
100841
100845
100851
100857
100864
100872
100880
100890
100901
100913
100925
100937
100944
100942
100926
100889
100872
100898
100942
100982
101019
101059
101102
101143
101183
101218
101248
101275
101299
101319
101327
101324
101313
101297
101283
101277
101278
101271
101250
101229
101223
101240
101262
101249
101272
100818
100819
100819
100819
100820
100822
100823
100825
100828
100831
100835
100840
100846
100852
100859
100867
100877
100889
100902
100918
100934
100945
100944
100912
100829
100786
100818
100883
100938
100982
101028
101076
101124
101172
101221
101268
101312
101348
101372
101377
101362
101337
101312
101294
101282
101278
101277
101267
101247
101228
101226
101236
101241
101221
100818
100818
100819
100819
100820
100822
100823
100825
100828
100831
100835
100840
100846
100852
100859
100867
100877
100889
100902
100918
100934
100945
100941
100905
100816
100782
100826
100889
100939
100983
101029
101077
101125
101173
101221
101269
101315
101351
101377
101379
101363
101338
101313
101295
101284
101280
101275
101260
101240
101227
101227
101236
101240
101213
100811
100811
100811
100812
100813
100814
100815
100816
100818
100821
100824
100828
100833
100838
100845
100853
100862
100874
100890
100910
100937
100967
100985
100931
100755
100627
100714
100823
100890
100940
100993
101048
101102
101159
101223
101290
101353
101401
101435
101433
101402
101359
101323
101300
101288
101282
101278
101270
101254
101234
101223
101223
101230
101216
100811
100811
100811
100812
100813
100814
100815
100816
100818
100821
100824
100828
100833
100838
100845
100852
100862
100874
100890
100910
100937
100966
100982
100922
100716
100638
100730
100822
100888
100942
100996
101049
101102
101160
101224
101289
101355
101402
101453
101447
101407
101357
101318
101295
101284
101281
101278
101268
101250
101232
101224
101224
101234
101212
100804
100804
100804
100804
100804
100805
100806
100807
100808
100810
100812
100816
100819
100824
100829
100836
100844
100856
100872
100896
100933
101002
101071
101078
100581
100309
100544
100764
100848
100890
100946
101008
101068
101135
101215
101302
101387
101441
101503
101503
101444
101372
101323
101297
101283
101276
101272
101267
101256
101240
101226
101221
101229
101215
100804
100804
100804
100804
100804
100805
100806
100807
100808
100810
100812
100816
100819
100824
100829
100836
100844
100856
100872
100895
100933
100999
101066
101054
100375
100455
100629
100774
100848
100900
100957
101013
101070
101135
101219
101310
101401
101424
101501
101506
101439
101364
101320
101298
101284
101276
101272
101265
101252
101237
101226
101222
101232
101214
100796
100796
100796
100796
100796
100796
100797
100797
100797
100798
100800
100802
100805
100808
100811
100816
100823
100832
100845
100865
100895
100943
101063
101341
100323
100544
100746
100815
100838
100884
100943
101005
101082
101181
101295
101415
101454
101520
101563
101488
101390
101330
101297
101275
101261
101255
101252
101248
101238
101228
101220
101226
101208
100796
100796
100796
100796
100796
100796
100796
100797
100797
100798
100800
100802
100805
100808
100811
100816
100823
100832
100845
100864
100894
100941
101059
101319
100269
100574
100747
100818
100854
100902
100955
101011
101084
101171
101305
101425
101409
101390
101534
101473
101385
101331
101299
101275
101259
101253
101250
101245
101236
101227
101221
101228
101212
100789
100788
100788
100788
100788
100787
100787
100787
100786
100787
100787
100788
100789
100790
100792
100795
100798
100803
100810
100819
100827
100824
100786
100713
100380
100429
100719
100840
100835
100822
100842
100873
100913
100984
101090
101210
101343
101372
101430
101600
101522
101417
101342
101292
101256
101233
101224
101224
101226
101227
101226
101222
101230
101206
100789
100788
100788
100788
100788
100787
100787
100787
100786
100787
100787
100788
100789
100790
100792
100795
100798
100803
100810
100819
100826
100822
100781
100696
100400
100488
100756
100850
100838
100831
100853
100883
100917
100974
101028
101203
101213
101450
101385
101397
101410
101377
101332
101290
101257
101235
101224
101222
101225
101225
101224
101221
101228
101210
100781
100781
100780
100780
100779
100779
100778
100776
100775
100775
100774
100773
100773
100772
100772
100772
100772
100772
100772
100770
100763
100744
100708
100635
100567
100581
100726
100799
100810
100814
100814
100808
100810
100860
101029
101204
101182
101385
101659
101452
101401
101367
101310
101257
101220
101196
101187
101188
101196
101207
101219
101224
101244
101218
100781
100781
100780
100780
100779
100779
100778
100776
100775
100775
100774
100773
100773
100772
100772
100772
100771
100772
100771
100770
100763
100743
100707
100634
100557
100590
100735
100803
100810
100812
100814
100810
100808
100833
100883
101117
100918
101282
101731
100781
101203
101338
101310
101260
101223
101200
101190
101189
101196
101205
101216
101223
101239
101214
100773
100773
100772
100772
100771
100770
100768
100766
100764
100762
100761
100759
100756
100754
100751
100748
100744
100740
100734
100725
100712
100691
100662
100621
100576
100574
100628
100689
100730
100752
100752
100729
100697
100690
100799
101065
102113
101215
100328
100698
101201
101322
101272
101215
101177
101158
101151
101153
101163
101178
101194
101206
101236
101211
100773
100773
100772
100772
100771
100770
100768
100766
100764
100762
100761
100759
100756
100754
100751
100748
100744
100739
100734
100725
100712
100691
100661
100620
100577
100583
100639
100694
100726
100742
100742
100724
100702
100619
100763
101094
101605
99377.3
99848.5
99411.8
100222
101144
101265
101219
101177
101158
101153
101155
101164
101177
101192
101205
101236
101220
100766
100766
100765
100764
100763
100761
100759
100756
100753
100750
100747
100744
100740
100735
100730
100724
100717
100708
100698
100684
100667
100644
100616
100583
100552
100542
100563
100598
100624
100638
100635
100616
100500
100558
100613
99580.2
98754.3
98263.3
98495.5
99234.1
100194
101067
101200
101139
101111
101104
101107
101116
101131
101151
101167
101176
101194
101163
100766
100766
100765
100764
100763
100761
100759
100756
100753
100750
100747
100744
100740
100735
100730
100724
100717
100708
100698
100684
100667
100644
100616
100584
100555
100547
100568
100599
100620
100627
100627
100618
100619
100645
100573
100126
101816
98852.3
98631.2
98832
99547.6
100552
101119
101146
101111
101099
101103
101117
101133
101151
101163
101169
101203
101195
100759
100759
100758
100756
100755
100753
100750
100747
100743
100739
100734
100730
100724
100717
100710
100701
100690
100678
100664
100646
100625
100600
100571
100541
100514
100497
100494
100497
100496
100497
100496
100523
100260
100468
100854
100134
97963
97893.2
98629.1
99240.4
99858
100659
101001
101022
101029
101039
101055
101075
101103
101139
101170
101183
101200
101217
100759
100759
100758
100756
100755
100753
100750
100747
100743
100739
100735
100730
100724
100717
100710
100701
100690
100678
100664
100646
100625
100600
100572
100542
100515
100498
100494
100496
100491
100486
100483
100531
100503
100571
100788
99105.2
99196.1
98279.6
98817.8
99335.4
99976.5
100593
100870
100974
101026
101039
101052
101076
101107
101139
101161
101173
101177
101154
100753
100752
100751
100749
100747
100745
100741
100737
100733
100728
100722
100716
100709
100700
100690
100679
100665
100650
100632
100611
100586
100558
100527
100493
100459
100428
100401
100376
100351
100347
100374
100631
100410
99464.2
99337.4
98645.5
97779.5
98186
99005.1
99640.6
100022
100387
100828
100912
100950
100974
100997
101026
101067
101120
101173
101206
101253
101275
100753
100752
100751
100749
100747
100745
100741
100737
100733
100728
100722
100716
100709
100700
100690
100679
100665
100650
100632
100611
100586
100558
100527
100493
100460
100428
100400
100373
100344
100319
100289
100356
100621
99768.5
95568.2
95833.8
97401.4
98165.5
99086.2
99765.2
100221
100446
100669
100859
100946
100978
100999
101028
101071
101123
101171
101200
101209
101230
100747
100746
100745
100743
100740
100737
100734
100729
100723
100717
100711
100703
100694
100684
100672
100658
100642
100624
100602
100578
100549
100516
100479
100438
100393
100345
100293
100240
100188
100164
100270
100485
100700
99540.2
97269.8
97015.1
97699.5
98536.7
99228.3
99614.8
99877
100087
100526
100808
100885
100914
100936
100968
101016
101073
101134
101184
101230
101224
100747
100746
100745
100743
100740
100737
100734
100729
100723
100717
100711
100703
100694
100684
100672
100658
100642
100624
100602
100578
100549
100516
100479
100438
100393
100344
100292
100238
100177
100130
100054
100310
100460
99319.9
96229.9
96703.2
97710.4
98604.7
99288.6
99669.3
99970.8
100174
100451
100756
100874
100914
100939
100971
101018
101075
101140
101191
101236
101260
100741
100741
100739
100737
100734
100731
100726
100721
100715
100708
100700
100691
100681
100669
100655
100639
100621
100600
100575
100547
100514
100475
100431
100381
100323
100256
100180
100086
99987.8
99782.5
100055
100193
100317
90864.4
93017.4
96343.4
98022.4
99012
99348.6
99358.3
99552.5
99918.7
100350
100670
100786
100842
100871
100907
100955
101012
101092
101156
101211
101249
100741
100741
100739
100737
100734
100731
100726
100721
100715
100708
100700
100691
100681
100669
100655
100639
100621
100600
100575
100547
100514
100475
100431
100381
100322
100256
100179
100089
99981.5
99841.9
99750.6
99831
97631.7
96366.5
96304.7
97164.4
98320
99160.5
99395.8
99339
99564.4
99982.7
100369
100646
100775
100838
100875
100911
100957
101012
101088
101159
101195
101173
100736
100736
100734
100731
100729
100725
100720
100714
100707
100699
100691
100681
100669
100656
100640
100623
100602
100578
100550
100518
100481
100437
100385
100325
100254
100168
100067
99934.9
99767.6
99447.8
98958.1
100275
96131.3
92289
95024.1
97720.6
99398.4
100009
99700.7
99272.9
99385.4
99790.7
100206
100511
100669
100763
100809
100847
100891
100945
101024
101104
101174
101243
100736
100736
100734
100732
100729
100725
100720
100714
100707
100699
100691
100681
100669
100656
100641
100623
100602
100578
100551
100518
100481
100437
100385
100325
100253
100168
100066
99945.4
99778.5
99535.6
99232.5
98887.6
96195.6
93879.5
96244
98236.2
99668.1
100153
99729.6
99228.2
99368.3
99854.6
100262
100503
100654
100755
100810
100853
100893
100937
101010
101090
101152
101238
100732
100732
100730
100727
100724
100720
100714
100708
100701
100692
100683
100672
100659
100645
100628
100608
100585
100559
100529
100493
100451
100402
100343
100273
100189
100088
99962.1
99803.8
99588.9
99290.4
98720.7
98450.3
100039
100303
99737.7
100474
101336
101171
100131
99200.6
99180.4
99609.5
100047
100381
100578
100696
100763
100797
100830
100855
100863
100911
101073
101261
100732
100731
100730
100727
100724
100720
100714
100708
100701
100692
100683
100672
100659
100645
100628
100608
100586
100559
100529
100493
100451
100402
100343
100273
100189
100086
99955
99806.9
99619.3
99376.7
99074.3
98371.3
97025.8
97595.3
99169.6
100631
101573
101291
100140
99152.3
99154.4
99654.2
100091
100375
100563
100688
100758
100802
100835
100857
100861
100850
101005
101228
100729
100728
100726
100723
100720
100716
100710
100703
100695
100686
100676
100664
100651
100635
100617
100596
100572
100544
100511
100472
100426
100372
100307
100230
100135
100020
99877.6
99701.3
99461.9
99158.5
98658.6
98046.9
98281.9
99634.8
99812.9
100606
101584
101412
100266
99062.6
98967.6
99466.3
99992.1
100334
100521
100643
100742
100787
100817
100808
100771
100779
100850
101173
100729
100728
100726
100723
100720
100716
100710
100703
100695
100686
100676
100664
100651
100635
100617
100596
100572
100544
100511
100472
100426
100372
100307
100229
100134
100014
99875.4
99702
99469.5
99183.9
98909.3
97763.1
97293.7
98585.1
99818.7
101083
101796
101417
100278
99093.6
98939.3
99469.9
100012
100344
100521
100637
100730
100786
100834
100854
100827
100744
100694
101106
100726
100726
100723
100720
100717
100712
100706
100699
100691
100682
100671
100659
100645
100628
100609
100587
100561
100532
100497
100455
100407
100349
100279
100195
100094
99970.8
99819.4
99627.2
99377
99056.5
98662.7
98029.9
97656.1
98196.3
97798
99025.8
100270
100654
100222
99404
99196.8
99614.3
100083
100403
100535
100640
100741
100785
100814
100807
100826
100785
100522
101018
100726
100725
100723
100720
100717
100712
100706
100699
100691
100682
100671
100659
100645
100628
100609
100587
100562
100532
100497
100455
100407
100349
100279
100195
100094
99969.9
99825.8
99632.7
99370.8
99049.1
98620.3
97971.4
97653.6
98216.9
99020
99779.1
99857.1
100125
100001
99490.1
99249.3
99584.9
100071
100416
100557
100637
100725
100786
100833
100856
100922
100884
100452
100895
100725
100724
100722
100719
100715
100710
100704
100697
100689
100679
100668
100655
100641
100624
100604
100581
100554
100523
100487
100444
100393
100333
100260
100172
100066
99936.7
99777.4
99578
99325.4
99006.1
98629.8
98122.7
97644
97015
96174
96350.7
95694.4
95807.8
96387.2
97824.2
98867
99753.3
100215
100496
100643
100735
100791
100811
100825
100841
100941
100914
100392
100763
100725
100724
100722
100719
100715
100710
100704
100697
100688
100679
100668
100655
100641
100624
100604
100581
100554
100523
100487
100444
100393
100332
100260
100172
100066
99937
99779.5
99584.6
99327.1
98996.9
98644.8
98139.3
97669.9
97508.8
97018.3
96094.7
95032.9
95266.8
96054.3
97633.3
98944.1
99760.7
100211
100492
100641
100735
100790
100815
100829
100861
101025
101078
100474
100752
100723
100723
100721
100717
100714
100709
100703
100695
100687
100677
100666
100653
100638
100621
100601
100578
100551
100519
100482
100438
100386
100324
100249
100160
100051
99918.4
99755.4
99553.1
99300.7
98986.7
98604.6
98114.3
97500.4
96916
96311.4
95032.8
92812
92108.2
92991.8
95279.3
97610.1
99107.7
99877.4
100272
100549
100727
100795
100810
100811
100826
100838
100736
100525
100756
100723
100723
100721
100717
100714
100709
100703
100695
100687
100677
100666
100653
100638
100621
100601
100578
100551
100519
100482
100438
100386
100324
100249
100160
100051
99918.5
99755.9
99555.3
99303.2
98990.6
98625.9
98180.3
97682
96979.6
95684.3
94041.5
92782.7
92287
93070.7
95149.8
97515.6
99105.9
99881.4
100262
100521
100715
100801
100812
100815
100838
100866
100779
100563
100737
100674
101062
100503
101469
101469
100493
100425
100487
100388
100280
100465
101048
100436
101474
101428
100478
100277
100436
100255
100277
101337
100790
100450
100759
100362
100443
100294
100438
100249
100340
100225
101311
100748
100348
100747
100324
100261
100279
100313
100257
100291
100317
100855
100926
100843
100980
100863
100969
100842
100686
100735
100669
100674
100589
100643
100560
100828
100916
100819
100957
100798
100952
100772
100658
100707
100656
100568
100519
100524
100499
101139
101070
101134
101119
101271
101119
101273
100504
100626
100559
100622
100537
100407
100377
100477
100283
100300
100246
100298
101126
101063
101124
101116
101257
101110
101261
100111
100531
100316
100393
100322
100530
100479
100561
100245
100347
100299
100427
101149
101062
101153
100928
100913
100925
100905
100576
101352
101040
101037
100634
100316
100388
100344
100261
100342
100289
100378
100273
100390
101146
101055
101146
100920
100894
100919
100895
100515
101320
101038
100518
101029
100264
100268
100379
100311
100441
100318
100425
100372
100466
100549
100705
100544
100668
100560
100669
100564
100187
100386
100266
100461
100439
100469
100465
100545
100693
100542
100669
100568
100669
100570
100337
100401
100355
100476
100473
100477
100471
100952
100871
100652
100863
100997
100942
100626
100802
100845
100940
101308
101390
101480
101396
101326
101103
101148
101309
101391
101478
101395
101301
101099
101090
100451
100528
100577
100587
100376
100498
100521
100484
100377
100359
100361
100503
100461
100368
100459
100317
100304
100329
100364
100858
100761
100472
100766
100991
100905
100440
100743
100738
100884
101313
101366
101453
101262
101395
101154
101047
101293
101386
101445
101382
101293
101110
101082
100068
100278
100333
100345
100037
100169
100332
100292
100304
100253
100352
100305
100118
100090
100273
100282
100255
100297
100235
100265
100328
100561
101348
101037
101030
100542
100237
100191
100310
100549
100428
100539
100363
100289
100396
100500
100210
100525
100357
100406
100419
100365
100415
100273
100261
100309
100338
100257
100289
100265
100316
100416
100420
100400
100354
100290
100385
100348
100291
100377
100156
100164
100530
101318
101014
101020
100551
100187
100230
100143
100488
100331
100177
100473
100172
100336
100465
100478
100233
100256
100257
100240
100269
100237
100230
100278
100257
100265
100269
100255
100277
100272
100327
100283
100287
100306
100247
100292
100311
100292
100279
101146
101010
101074
101216
101004
101216
101155
101104
100963
101046
101190
100948
101123
101192
101138
101068
100979
101207
100992
101212
101135
100535
100577
100496
100386
100561
100374
100550
100491
100489
100524
100375
100531
100365
100438
101115
101055
100961
101219
100961
101210
101113
100382
100506
100453
100394
100436
100424
100388
100348
100441
100398
100347
100403
100368
100321
100712
100866
100711
100783
100857
100705
100722
100689
100838
100774
100667
100846
100659
100693
100295
100320
100303
100214
100262
100275
100338
100236
100218
100203
100287
100217
100235
100269
100615
100827
100649
100740
100625
100813
100636
100630
100826
100745
100644
100820
100644
100641
100239
100224
100302
100291
100241
100230
100295
100242
100269
100306
100302
100253
100282
100259
100564
100581
100472
100531
100599
100519
100527
100377
100286
100255
100375
100367
100179
100228
100316
100561
100538
100597
100541
100604
100545
100538
100053
100280
100184
99703.4
100352
99945.6
99827.1
99829.3
99688.4
99848.1
99732.5
100185
100255
100503
100027
100273
100434
99945.7
99717.1
99627.7
99700.8
99615.4
101012
100769
100825
100590
100777
101000
100840
101226
101485
101494
101236
101217
101473
101479
101204
101025
100590
100823
100841
100795
100845
101020
100353
100386
101089
100733
100508
100816
100791
100997
100808
101314
101505
101380
101243
101307
101509
101429
101141
101114
100511
100803
100788
101023
100801
100819
100258
100266
100553
100897
100547
100965
100912
100526
100570
100416
100327
100294
100433
100390
100213
100254
100359
100554
100968
100911
100606
100914
100572
100607
100466
100885
100519
100926
100503
100865
100483
100238
99923.8
99996
100307
100287
100180
100338
100126
100465
100919
100869
100383
100857
100484
100554
101532
101360
101516
101308
101360
101516
101529
101591
101570
101582
101576
101584
101566
101571
101578
101540
101320
101362
101523
101365
101527
101519
101109
101119
101532
101360
101319
101519
101360
101530
101516
101590
101581
101571
101564
101537
101325
101378
101529
101362
101516
101535
101582
101573
101583
101566
101101
101102
100382
100533
100390
100415
100453
100502
100305
100090
99774
99929.7
99938.4
100160
100120
100239
100057
100356
100371
100519
100166
100337
100473
100243
100513
100516
100418
100465
100425
100495
100480
100432
100409
100421
100456
100462
100422
100398
100412
100384
100439
100434
100500
100486
100447
100489
100448
100434
100424
100385
100380
100439
100429
100404
100425
100383
100396
100330
100311
100332
100326
100372
100395
100382
100363
100402
100382
100366
100342
100370
100351
100348
100389
100789
100841
100337
100808
100376
100324
100093
99799.4
99848.2
100127
100328
100924
100871
100603
100820
100419
100424
100180
99839.4
99894.6
100152
100274
100776
100428
100881
100292
100772
100389
100040
99821.2
99762
100091
100035
99780.3
100068
99746.9
100280
100822
100774
100384
100765
100333
100356
101592
101347
101373
101663
101327
101556
101597
101895
101584
101447
101527
101528
101345
101385
101691
101315
101533
101527
101683
101696
101476
101672
101196
101175
101614
101344
101645
101290
101315
101535
101609
101643
101534
101605
101554
101624
101602
101625
101601
101599
101295
101327
101609
101294
101678
101501
101151
101099
99974.5
100258
99652.6
100057
99933.2
100276
99662.6
99601
99683.6
99595.1
99682
99619.5
99595.2
99600.3
99577.3
99921.6
100040
100207
99649.5
100237
99649
99935.3
100229
100289
100295
100297
100334
100297
100337
100312
100289
100316
100297
100322
100294
100328
100318
100366
100352
100345
100355
100331
100292
100273
100282
100281
100091
100099
100269
100325
100280
100240
100300
100290
100254
100281
100284
100281
100297
100279
100267
100280
100271
100258
100232
100282
100264
100282
100255
100269
100273
100272
101003
100772
100813
100561
100992
100783
100818
101210
101477
101202
101469
101211
101477
101203
101477
101014
100559