/*--------------------------------*- C++ -*----------------------------------*\
| =========                 |                                                 |
| \\      /  F ield         | OpenFOAM: The Open Source CFD Toolbox           |
|  \\    /   O peration     | Version:  4.1                                   |
|   \\  /    A nd           | Web:      www.OpenFOAM.org                      |
|    \\/     M anipulation  |                                                 |
\*---------------------------------------------------------------------------*/
FoamFile
{
    version     2.0;
    format      ascii;
    class       surfaceScalarField;
    location    "60";
    object      phi;
}
// * * * * * * * * * * * * * * * * * * * * * * * * * * * * * * * * * * * * * //

dimensions      [0 3 -1 0 0 0 0];

internalField   nonuniform List<scalar> 
11516
(
9.98751e+06
132.06
9496.26
9.96857e+06
182.542
20611.3
9.93993e+06
258.29
30265
9.90207e+06
266.397
39455.7
9.85488e+06
268.205
48672.8
9.79802e+06
260.726
58142.4
9.73112e+06
221.384
67986.2
9.65387e+06
166.501
78195.6
9.56612e+06
133.744
88651.8
9.46774e+06
132.996
99367
9.35907e+06
177.358
109862
9.2412e+06
250.837
119258
9.11619e+06
204.047
126682
8.98861e+06
45.3301
129124
8.86813e+06
-1613.97
122653
8.77019e+06
-2745.54
100027
8.71166e+06
-1128.27
57800.7
8.70259e+06
-480.042
7777.65
8.7005e+06
23.077
839.874
8.65973e+06
1204.87
39188
8.58662e+06
-1238.27
74552.5
8.48344e+06
-5086.86
108853
8.35762e+06
-8283.95
134948
8.21664e+06
-10966.6
152947
8.06261e+06
-13015
168146
7.91565e+06
-14514.1
162717
7.78911e+06
-11960.7
140001
7.68994e+06
-6486.53
107369
7.61838e+06
-5263.04
78595.4
7.5733e+06
-8379.36
55227.4
7.53989e+06
-13868.4
49135.6
7.48691e+06
-19549
73902.5
7.41757e+06
-18374.8
88225.1
7.37321e+06
-4648.17
48337.3
7.39343e+06
10916.8
-31120.2
7.426e+06
14679.7
-50840.7
7.42491e+06
12075.3
-15207.6
7.40075e+06
5016.57
14415.5
7.36418e+06
1969.54
23312.1
7.33993e+06
5507.91
4213.76
7.33097e+06
7446.29
-16417.9
7.29429e+06
8655.53
138.975
7.22463e+06
7913.13
34646.6
7.14466e+06
7697.97
56958.8
7.07346e+06
1111.6
61194.1
7.02946e+06
-1639.93
39136.6
6.99778e+06
8563.65
34613.2
7.01153e+06
13136.5
-13782.2
7.02549e+06
21039.5
-35784.9
7.087e+06
10774.8
-91746.3
7.21802e+06
5566.03
-140855
7.35643e+06
-2035.21
-185393
7.51376e+06
35095.1
-145486
76145.8
-293846
9.98771e+06
9498.04
9.96855e+06
20619.7
9.93982e+06
30276.7
9.90189e+06
39459.8
9.85466e+06
48675.5
9.79781e+06
58164.6
9.73091e+06
68019.9
9.65364e+06
78234.6
9.56585e+06
88686
9.46746e+06
99355.4
9.35879e+06
109813
9.24099e+06
119141
9.11562e+06
126681
8.98672e+06
129689
8.86112e+06
124098
8.7576e+06
100008
8.70127e+06
54009.8
8.69967e+06
228.999
8.70336e+06
-4169.21
8.66493e+06
39611.8
8.59211e+06
71873.8
8.49001e+06
97480.7
8.364e+06
118299
8.21902e+06
134682
8.05647e+06
150293
7.89876e+06
144078
7.76096e+06
126917
7.64774e+06
107937
7.56109e+06
82705.9
7.5083e+06
45956.1
7.48537e+06
10467.2
7.4645e+06
2234.18
7.43067e+06
15841.1
7.39854e+06
26766.1
7.40655e+06
1542.58
7.42719e+06
-7623.09
7.42382e+06
13097.1
7.39901e+06
22493.5
7.36842e+06
21347.3
7.34568e+06
13303.3
7.32336e+06
13253.7
7.27712e+06
37057.4
7.20706e+06
66618.2
7.12198e+06
79959.5
7.03393e+06
85542
6.97525e+06
58955.9
6.94271e+06
48334.1
6.93226e+06
32687.9
6.94912e+06
-17999.6
7.07181e+06
-84434.5
7.1768e+06
-158453
7.3726e+06
-170140
7.50552e+06
-72268.2
-234081
1.00063e+07
134.797
5545.04
1.00135e+07
176.84
15093.1
1.00208e+07
255.279
24614.8
1.00277e+07
272.567
34192.7
1.00339e+07
287.5
43976.2
1.00394e+07
290.189
54097.3
1.0044e+07
262.278
64648.3
1.00478e+07
216.158
75499.6
1.00501e+07
176.363
87304.1
1.00511e+07
163.894
99338.2
1.00499e+07
172.021
111912
1.00454e+07
183.291
124572
1.00356e+07
264.57
137295
1.00164e+07
372.296
148798
9.97519e+06
1456
162835
9.89996e+06
1782.32
173289
9.76752e+06
2430.58
187333
9.56776e+06
1248.89
206029
9.34722e+06
-1004.62
222322
9.15423e+06
-1305.65
233563
8.98742e+06
216.217
241326
8.84455e+06
1767.26
250145
8.71454e+06
3017.49
262155
8.58802e+06
4121.37
275590
8.46659e+06
4702.31
285149
8.34526e+06
5338.97
279109
8.22118e+06
5995.5
258677
8.08471e+06
7542.85
237063
7.946e+06
11377.7
206727
7.81679e+06
14539.9
170696
7.69475e+06
18541.3
153368
7.58856e+06
23278.6
157256
7.51549e+06
21489.7
140151
7.47987e+06
12437.1
71709.6
7.48379e+06
1122.51
-37259.7
7.47905e+06
-13156.9
-34123.8
7.44403e+06
-25598.9
40645.5
7.3909e+06
-33232.1
86866.4
7.32098e+06
-30789.3
110060
7.26777e+06
-23343.8
68448.2
7.22959e+06
-28212.6
40063.3
7.16951e+06
-39207.1
88112.9
7.11177e+06
-44981.9
125684
7.06807e+06
-47491.9
135136
7.03748e+06
-48109.1
131062
7.01332e+06
-46695.8
108434
6.99884e+06
-45368.2
97333
6.96954e+06
-36085.4
61120.9
6.94336e+06
-47335.2
41180
6.94693e+06
-66574.6
-33773.6
6.89525e+06
-27726.2
-62696
6.91651e+06
18158.7
-198623
7.31359e+06
81021.2
-570899
27258.7
-777602
1.00065e+07
5543.57
1.00135e+07
15090.4
1.00207e+07
24610.1
1.00275e+07
34184
1.00338e+07
43963.8
1.00393e+07
54086.9
1.00439e+07
64645
1.00477e+07
75507.5
1.00501e+07
87329.5
1.00509e+07
99367.5
1.00497e+07
111933
1.00451e+07
124618
1.00355e+07
137188
1.00172e+07
148904
9.98266e+06
160206
9.91287e+06
171482
9.77809e+06
191097
9.57391e+06
205584
9.34764e+06
221086
9.15511e+06
230885
8.99121e+06
236109
8.84857e+06
242040
8.7195e+06
250566
8.59466e+06
263828
8.47652e+06
273367
8.35827e+06
268055
8.23557e+06
256187
8.10793e+06
243835
7.98429e+06
218607
7.87073e+06
175094
7.75078e+06
149802
7.62671e+06
150186
7.5323e+06
132155
7.50087e+06
71194.3
7.50939e+06
-6888.04
7.51545e+06
-29828.9
7.5029e+06
-6795.12
7.46462e+06
15270.6
7.4172e+06
22064.6
7.4001e+06
-6271.57
7.39639e+06
-20328.5
7.36692e+06
16714.5
7.33057e+06
45822
7.30484e+06
51418.1
7.28574e+06
49014.2
7.26996e+06
21800.8
7.26375e+06
12382.5
7.2547e+06
9569.81
7.22984e+06
-34715.7
7.17088e+06
-99023.5
7.11971e+06
-129920
7.24237e+06
-238898
7.53645e+06
-273547
-774329
9.9993e+06
133.543
7096.93
9.99513e+06
174.163
20900.5
9.98663e+06
250.393
34707.9
9.97388e+06
267.716
48531
9.95686e+06
285.746
62509.7
9.93557e+06
294.021
76765.7
9.91026e+06
267.319
91192.7
9.88042e+06
214.124
106445
9.84694e+06
159.468
121763
9.80922e+06
120.783
137955
9.76775e+06
102.672
154203
9.72223e+06
117.472
170872
9.67215e+06
151.752
188128
9.61556e+06
297.892
205994
9.55446e+06
283.646
224536
9.47992e+06
800.731
247703
9.3969e+06
525.808
270376
9.31317e+06
992.602
288753
9.21733e+06
763.791
317379
9.10844e+06
674.735
341803
8.99023e+06
1018.7
358684
8.87052e+06
1620.64
368487
8.75136e+06
2504.95
379066
8.63103e+06
4060.6
392104
8.50719e+06
4725.16
404561
8.37677e+06
5933.16
404039
8.2339e+06
8466.93
393733
8.07203e+06
11669.5
388088
7.89657e+06
13970.8
369179
7.70768e+06
13338.2
347274
7.49431e+06
12705.2
355112
7.28085e+06
18925.6
352871
7.09273e+06
37112.1
292308
6.9667e+06
57837
139335
6.96512e+06
49642.9
-87002.7
6.98011e+06
3648.84
-56659.8
6.92901e+06
-32456.4
112896
6.83822e+06
-41990.1
199989
6.73517e+06
-28993.1
228296
6.70771e+06
-3642.28
93257.8
6.70833e+06
-13360.8
49655.1
6.66961e+06
-37649.5
157327
6.60636e+06
-45385.2
218909
6.54999e+06
-44612.3
221774
6.49591e+06
-41582.6
206849
6.44396e+06
-36049.4
178133
6.44117e+06
-39360.3
136646
6.45862e+06
-36012
89615.9
6.48608e+06
-47491.3
82641.4
6.52669e+06
-39841.7
-19041.4
6.61248e+06
-14088.9
-128990
6.6367e+06
14730.6
-217189
6.36571e+06
10596
-296358
4882.33
-651119
9.9995e+06
7094.83
9.99511e+06
20893.6
9.98653e+06
34697.5
9.97372e+06
48516.9
9.95668e+06
62493.7
9.93542e+06
76750.3
9.91014e+06
91180.5
9.88029e+06
106438
9.84678e+06
121762
9.80899e+06
137960
9.76746e+06
154209
9.72195e+06
170871
9.67185e+06
188105
9.61578e+06
205947
9.55236e+06
224555
9.47823e+06
247095
9.39828e+06
271954
9.31204e+06
292786
9.21684e+06
316999
9.11e+06
338426
8.99357e+06
353697
8.87558e+06
361864
8.75767e+06
371204
8.63567e+06
390114
8.51021e+06
403831
8.37905e+06
405559
8.23776e+06
406504
8.08494e+06
409038
7.92095e+06
397517
7.73616e+06
374421
7.52515e+06
374561
7.32229e+06
373101
7.17144e+06
321565
7.10707e+06
192534
7.13984e+06
6595.05
7.1511e+06
-45940.1
7.12429e+06
-28444.5
7.06916e+06
7662.95
7.00085e+06
45617.6
6.96776e+06
14048.7
6.94505e+06
-15777.2
6.87256e+06
41017.3
6.79504e+06
60541.5
6.72972e+06
50523.5
6.66746e+06
50126.2
6.61625e+06
25314.9
6.5854e+06
4556.55
6.5853e+06
-12049
6.57164e+06
-48183.8
6.59793e+06
-151441
6.67377e+06
-208458
6.7135e+06
-266705
6.57231e+06
-102295
-650169
9.99895e+06
131.092
9072.02
9.99477e+06
167.783
26658.9
9.98651e+06
242.533
44521.3
9.97403e+06
258.064
62536
9.95713e+06
273.866
80851.4
9.93581e+06
280.681
99404.6
9.90928e+06
253.223
118891
9.87798e+06
200.227
138772
9.84155e+06
146.698
159117
9.80001e+06
111.281
180362
9.75289e+06
99.4148
202162
9.69966e+06
120.255
224971
9.64007e+06
155.692
248684
9.57393e+06
274.579
273277
9.49996e+06
302.419
299762
9.41958e+06
747.854
328933
9.32972e+06
99.7142
360794
9.23295e+06
41.1327
385390
9.14359e+06
619.878
405974
9.05561e+06
1006.21
428787
8.96064e+06
1300
452567
8.85681e+06
1300.6
471378
8.73916e+06
1169.46
495958
8.60873e+06
1483.33
521455
8.46636e+06
908.835
546413
8.30789e+06
586.811
562407
8.12748e+06
2450.55
572279
7.91718e+06
4575.43
594471
7.66574e+06
3624.37
617932
7.37302e+06
4478.93
636700
7.07125e+06
7057.39
650953
6.79729e+06
12081.1
615789
6.5827e+06
23588.2
483628
6.50258e+06
41868
177951
6.58622e+06
35904.3
-208027
6.64164e+06
-46215.4
-70156.3
6.55415e+06
-118098
304244
6.41683e+06
-161210
473858
6.29219e+06
-151190
493930
6.3007e+06
-78699.4
159714
6.31186e+06
-29472.6
66654.7
6.26598e+06
-45465.5
241987
6.18216e+06
-46633.3
323252
6.10291e+06
-40938.6
302539
6.03321e+06
-40798.4
281630
5.96292e+06
-42982.5
261679
5.92484e+06
-45834.7
221082
5.94849e+06
-19077.9
113033
5.96942e+06
-18348
124189
6.03705e+06
-35522.7
3663.61
6.15436e+06
-30138.8
-156699
6.19109e+06
-14396.3
-219055
6.20751e+06
-17395.7
-297157
143914
-383439
9.99914e+06
9071.89
9.99476e+06
26655.7
9.98641e+06
44510.3
9.97387e+06
62522.8
9.95696e+06
80838.8
9.93566e+06
99390.3
9.90915e+06
118872
9.87786e+06
138746
9.84139e+06
159085
9.79978e+06
180325
9.7526e+06
202125
9.69935e+06
224930
9.63976e+06
248659
9.57373e+06
273210
9.49997e+06
299762
9.42014e+06
328717
9.33106e+06
361457
9.23309e+06
390728
9.14405e+06
406602
9.05664e+06
426863
8.96181e+06
450012
8.85601e+06
469258
8.73562e+06
493058
8.60472e+06
522751
8.4625e+06
547274
8.30036e+06
568669
8.1148e+06
594926
7.9033e+06
625617
7.65805e+06
647139
7.37844e+06
659359
7.09738e+06
663546
6.84368e+06
639731
6.6371e+06
551839
6.54914e+06
321921
6.64505e+06
-55274
6.69809e+06
-156533
6.67251e+06
-140131
6.5764e+06
-75427.8
6.47658e+06
-19016.6
6.47697e+06
-71698.7
6.46472e+06
-35282.6
6.39631e+06
54167.7
6.30005e+06
84124.6
6.20902e+06
72628
6.12457e+06
68506.4
6.04484e+06
45221.1
5.98638e+06
19643.1
6.00835e+06
-29315.6
6.04491e+06
-58893.9
6.09502e+06
-183562
6.13853e+06
-280242
6.17318e+06
-287128
6.31282e+06
-260443
-493583
9.99897e+06
129.912
11016
9.99485e+06
165.826
32328.2
9.98674e+06
238.388
54136.1
9.97452e+06
252.137
76249.6
9.958e+06
266.273
98772.1
9.93701e+06
271.902
121654
9.91138e+06
244.27
145603
9.88117e+06
192.25
169910
9.84584e+06
141.098
195266
9.80539e+06
109.008
221569
9.75959e+06
102.213
248719
9.70815e+06
120.781
277238
9.65114e+06
171.818
306702
9.58777e+06
242.432
337941
9.51788e+06
387.741
371137
9.44148e+06
429.732
406865
9.35558e+06
1141.6
446818
9.25178e+06
768.098
488863
9.14559e+06
630.492
511485
9.04154e+06
1413.77
531334
8.93909e+06
2153.84
552916
8.8287e+06
1725.62
580282
8.70044e+06
561.91
624094
8.55091e+06
-264.116
671807
8.38126e+06
-3009.65
719710
8.18099e+06
-4271.78
767684
7.94973e+06
-1684.21
805964
7.6899e+06
927.674
854077
7.39875e+06
-207.62
910077
7.08754e+06
-303.106
949073
6.78544e+06
3171.73
950719
6.50918e+06
11171.9
881617
6.29017e+06
23351.6
680870
6.19109e+06
48724.8
229099
6.29169e+06
104929
-412444
6.15827e+06
-65027
124657
6.11881e+06
-192172
525486
6.03114e+06
-216988
761002
5.84251e+06
-239154
908546
5.83432e+06
-95280.5
258021
5.83095e+06
-36311.1
105685
5.75828e+06
-77300
385877
5.70192e+06
-75835.7
428235
5.61747e+06
-71193.9
419839
5.53611e+06
-74703.8
385671
5.47501e+06
-74371.7
343745
5.43656e+06
-67551
287339
5.34684e+06
-20689
223718
5.31136e+06
-21746.5
220444
5.44291e+06
-34718.8
34661.3
5.44708e+06
4360.51
-102938
5.44106e+06
38200.8
-212914
5.4471e+06
4657
-284404
70333.3
-376102
9.99916e+06
11013.1
9.99483e+06
32319
9.98665e+06
54125.3
9.97436e+06
76238.7
9.95782e+06
98761.2
9.93685e+06
121640
9.91126e+06
145582
9.88105e+06
169881
9.84567e+06
195229
9.80516e+06
221529
9.75931e+06
248681
9.70784e+06
277208
9.65085e+06
306687
9.58751e+06
337930
9.51784e+06
371183
9.44136e+06
406881
9.35807e+06
446809
9.26093e+06
488927
9.1527e+06
515448
9.04492e+06
536028
8.9384e+06
558725
8.81984e+06
589637
8.68601e+06
627746
8.53781e+06
671082
8.3654e+06
717176
8.16094e+06
769416
7.93702e+06
817622
7.68962e+06
874433
7.4137e+06
923432
7.11792e+06
955502
6.82981e+06
955510
6.57567e+06
905526
6.3954e+06
756372
6.36174e+06
406008
6.51943e+06
-102730
6.66405e+06
-360673
6.68652e+06
-358179
6.61225e+06
-226975
6.44061e+06
-95028.5
6.33906e+06
-72262.5
6.24738e+06
18516.6
6.13585e+06
81196.8
6.03709e+06
89188.8
5.93587e+06
72150.4
5.83744e+06
55309
5.74077e+06
33611.3
5.67743e+06
-1144.29
5.67092e+06
-31006.4
5.68493e+06
-48297
5.6304e+06
-134885
5.56948e+06
-185839
5.6418e+06
-298741
5.67667e+06
-314518
-479282
9.999e+06
126.571
12897.9
9.99496e+06
157.487
37869.4
9.98708e+06
229.418
63482.6
9.97527e+06
243.541
89510.4
9.95945e+06
256.6
115953
9.93911e+06
259.679
143184
9.91439e+06
229.185
171333
9.88502e+06
175.064
200128
9.85083e+06
123.534
230188
9.81184e+06
93.6844
261255
9.76747e+06
92.5217
293828
9.7179e+06
117.636
327683
9.66274e+06
175.141
362950
9.60189e+06
242.223
400183
9.53558e+06
394.043
439245
9.46378e+06
440.791
480606
9.38776e+06
895.877
524197
9.30434e+06
650.115
572857
9.20371e+06
690.276
611612
9.0855e+06
1618.39
647474
8.95564e+06
2272.42
679915
8.81666e+06
516.009
718469
8.67775e+06
-1296.13
764689
8.524e+06
-2494.98
828897
8.3355e+06
-6063.07
915392
8.09837e+06
-5920.26
1.01212e+06
7.82107e+06
-1939.74
1.08645e+06
7.53328e+06
2943.6
1.13998e+06
7.23773e+06
3477.45
1.20317e+06
6.93113e+06
3362.07
1.25329e+06
6.61704e+06
7585.46
1.25825e+06
6.29306e+06
20464.4
1.18708e+06
5.93653e+06
47450.3
992322
5.48464e+06
171211
513068
4.27219e+06
700208
108206
3.3596e+06
504469
542443
3.0864e+06
217865
586991
3.57937e+06
91781
161956
4.03008e+06
-27966.1
458873
4.41131e+06
64167.6
-208128
4.53243e+06
8665.29
-29551.9
4.62825e+06
-45626.3
324079
4.64382e+06
-4437.02
393301
4.64522e+06
-2953.37
363331
4.63031e+06
7807.91
303830
4.61032e+06
17909.7
243997
4.57325e+06
43684
200106
4.56881e+06
68482.1
136082
4.63659e+06
112493
79215
4.60863e+06
141058
-25288.6
4.53216e+06
144102
-109332
4.42876e+06
152868
-181886
4.24898e+06
132135
-288399
119461
-634281
9.99918e+06
12897.5
9.99494e+06
37865.5
9.98699e+06
63469
9.97512e+06
89495.2
9.95927e+06
115940
9.93896e+06
143170
9.91427e+06
171313
9.88489e+06
200100
9.85066e+06
230152
9.81162e+06
261214
9.7672e+06
293788
9.7176e+06
327649
9.66246e+06
362924
9.60168e+06
400174
9.53551e+06
439225
9.4639e+06
480533
9.38861e+06
524246
9.30816e+06
570746
9.21051e+06
613884
9.09388e+06
653865
8.9623e+06
692063
8.82026e+06
732216
8.67148e+06
775760
8.50655e+06
834092
8.31083e+06
907641
8.0762e+06
998926
7.8228e+06
1.06985e+06
7.55503e+06
1.14581e+06
7.26877e+06
1.21391e+06
6.97192e+06
1.2565e+06
6.6816e+06
1.25412e+06
6.41197e+06
1.19689e+06
6.17176e+06
1.04623e+06
6.03614e+06
721781
6.551e+06
113591
6.74987e+06
-45921.2
6.7283e+06
-117135
6.63465e+06
-51315.8
6.45561e+06
35297.3
6.15835e+06
273052
5.84436e+06
331382
5.65992e+06
208140
5.57841e+06
140139
5.50372e+06
104046
5.42093e+06
94815.1
5.3277e+06
90888.8
5.25414e+06
75644.8
5.21436e+06
65402
5.20655e+06
81383.8
5.17606e+06
65134.1
5.14092e+06
25876.4
5.07912e+06
-99096.5
4.97531e+06
-58155.4
-256523
9.99904e+06
124.8
14713.7
9.99517e+06
155.137
43192.4
9.98765e+06
225.206
72423.8
9.97637e+06
238.076
102180
9.96125e+06
249.034
132376
9.94177e+06
249.656
163802
9.91804e+06
217.798
196019
9.88977e+06
164.33
229185
9.85701e+06
115.795
263641
9.819e+06
91.3294
299941
9.77634e+06
96.7238
337232
9.72847e+06
128.432
376433
9.67513e+06
182.364
417351
9.61661e+06
255.556
460040
9.55294e+06
343.362
504511
9.4845e+06
430.15
550773
9.41154e+06
478.236
598764
9.33614e+06
686.621
649189
9.25055e+06
20.1563
697680
9.15127e+06
-762.124
746934
9.03178e+06
-551.186
798960
8.88583e+06
-994.509
865248
8.72586e+06
-1511.02
926968
8.56165e+06
-5811.08
999874
8.36839e+06
-9962.57
1.11983e+06
8.12157e+06
-10199
1.27074e+06
7.82292e+06
-636.154
1.38789e+06
7.50203e+06
8041.4
1.45484e+06
7.18161e+06
8128.8
1.51716e+06
6.85868e+06
6395.86
1.57122e+06
6.52943e+06
12668.1
1.57622e+06
6.15617e+06
29020.8
1.53304e+06
5.5621e+06
84758.5
1.50375e+06
3.87011e+06
457373
1.75089e+06
1.87421e+06
656093
1.46354e+06
1.8334e+06
17276.3
565904
1.91975e+06
113735
359641
1.60053e+06
395223
-15853.7
1.24454e+06
245638
459490
1.52054e+06
-103225
-478697
2.16088e+06
-213121
-510796
2.30108e+06
13091.1
90127
2.24615e+06
161361
192524
2.21829e+06
186750
104227
2.17996e+06
224736
5444.94
2.09765e+06
290426
-91726.2
1.9962e+06
364203
-172403
1.95741e+06
413921
-302265
2.0253e+06
412170
-419583
2.15399e+06
368954
-516210
2.40372e+06
309912
-618917
2.71723e+06
226331
-760820
3.19135e+06
216092
-923996
73609.8
-1.20054e+06
9.99922e+06
14709.6
9.99516e+06
43178.9
9.98756e+06
72407
9.97622e+06
102163
9.96108e+06
132360
9.94161e+06
163786
9.9179e+06
196000
9.88963e+06
229162
9.85684e+06
263615
9.81878e+06
299914
9.77608e+06
337208
9.72819e+06
376415
9.67488e+06
417338
9.61642e+06
460026
9.55283e+06
504493
9.48451e+06
550712
9.41183e+06
598727
9.33592e+06
648244
9.25173e+06
698323
9.15461e+06
749862
9.04039e+06
805438
8.90262e+06
869394
8.73362e+06
944347
8.55128e+06
1.01147e+06
8.34101e+06
1.10904e+06
8.08847e+06
1.24252e+06
7.81326e+06
1.34593e+06
7.52623e+06
1.44208e+06
7.22362e+06
1.52584e+06
6.91375e+06
1.57383e+06
6.61045e+06
1.57121e+06
6.31635e+06
1.52128e+06
6.00071e+06
1.44864e+06
5.7049e+06
1.49399e+06
4.44053e+06
2.03766e+06
2.85626e+06
1.55326e+06
1.98444e+06
841960
1.88836e+06
394306
1.84461e+06
274942
2.02947e+06
-66292
2.31873e+06
-220968
2.28957e+06
192472
2.26246e+06
266747
2.28273e+06
195136
2.3246e+06
172468
2.38232e+06
188947
2.48548e+06
207796
2.588e+06
285694
2.62733e+06
380083
2.69876e+06
324792
2.80386e+06
197456
2.86965e+06
103413
2.99627e+06
63958.9
-160261
9.9991e+06
120.309
16410.5
9.99546e+06
142.804
48208.6
9.98837e+06
210.937
80864.3
9.97773e+06
223.503
114148
9.96334e+06
233.832
148003
9.94498e+06
234.204
183240
9.92264e+06
203.925
219258
9.89566e+06
154.157
256938
9.86414e+06
110.88
295859
9.82822e+06
92.0933
336578
9.78718e+06
102.129
379062
9.74113e+06
134.606
423396
9.6899e+06
180.203
469622
9.63334e+06
234.498
517799
9.57169e+06
286.3
567507
9.50512e+06
345.138
618860
9.43415e+06
337.667
671253
9.35966e+06
310.925
724979
9.27916e+06
-262.928
779497
9.19128e+06
-1045.93
836265
9.0929e+06
-1490.98
898814
8.98269e+06
-798.285
976683
8.84246e+06
452.518
1.06868e+06
8.67274e+06
-4607.26
1.17597e+06
8.48514e+06
-12202
1.32122e+06
8.27097e+06
-14101.7
1.5011e+06
8.00726e+06
-2621.89
1.65773e+06
7.66362e+06
13586.3
1.79149e+06
7.27432e+06
18662.4
1.89419e+06
6.9003e+06
9592.62
1.94063e+06
6.58079e+06
10378.8
1.88796e+06
6.28359e+06
17498.9
1.81409e+06
5.95363e+06
32125.4
1.80171e+06
5.46821e+06
216047
2.02192e+06
3.45691e+06
558830
2.90457e+06
1.67486e+06
391287
1.92379e+06
274597
466138
1.16263e+06
-558029
313369
297533
-386971
-39307.4
143221
-517380
-446209
-62631.9
-504866
-533619
-160638
-56763.4
-172644
-405149
427231
85856.5
-549271
814211
138194
-549729
1.24222e+06
132606
-693035
1.73285e+06
133897
-868390
2.30272e+06
117030
-1.00658e+06
2.87335e+06
114776
-1.10697e+06
3.39348e+06
115346
-1.16199e+06
3.82269e+06
159826
-1.17584e+06
4.19042e+06
131432
-1.17356e+06
4.56589e+06
62799.5
-1.16306e+06
4.86574e+06
11386.1
-1.20367e+06
-38360.5
-1.27344e+06
9.99927e+06
16410.2
9.99545e+06
48203.7
9.98828e+06
80847.5
9.97758e+06
114128
9.96316e+06
147985
9.94482e+06
183223
9.92251e+06
219237
9.89553e+06
256911
9.86398e+06
295828
9.82801e+06
336546
9.78693e+06
379034
9.74086e+06
423374
9.68965e+06
469606
9.63313e+06
517779
9.57158e+06
567477
9.50506e+06
618785
9.43414e+06
671167
9.35891e+06
724790
9.27799e+06
779610
9.19031e+06
836730
9.09393e+06
900558
8.98726e+06
976018
8.85505e+06
1.07859e+06
8.68138e+06
1.18256e+06
8.46901e+06
1.31167e+06
8.22359e+06
1.47592e+06
7.93427e+06
1.63726e+06
7.62929e+06
1.76381e+06
7.31792e+06
1.85838e+06
6.98702e+06
1.91723e+06
6.65735e+06
1.91409e+06
6.36307e+06
1.83476e+06
6.06629e+06
1.78103e+06
5.86163e+06
1.9125e+06
5.94704e+06
2.50014e+06
5.19351e+06
2.67978e+06
4.23905e+06
2.23855e+06
3.30711e+06
1.61054e+06
2.36504e+06
1.13755e+06
966010
824610
-357783
482646
-779301
350945
-609064
80634.8
-328996
-80673.9
-78978.9
-128167
137842
-120935
358336
-111120
575605
-6917.03
811368
91188.2
1.13275e+06
38739.6
1.4034e+06
30433.6
1.60576e+06
-4328.36
1.78689e+06
-82472.5
-196441
9.99916e+06
118.253
17999.8
9.99582e+06
139.736
52886.1
9.98925e+06
205.267
88718.8
9.97937e+06
216.475
125290
9.96597e+06
225.575
162569
9.94883e+06
225.475
201398
9.92773e+06
196.571
241214
9.90258e+06
150.031
282820
9.87287e+06
110.864
326239
9.83868e+06
95.8159
371464
9.79989e+06
107.749
418633
9.75582e+06
138.239
468332
9.70644e+06
175.766
519959
9.65187e+06
211.919
573383
9.59183e+06
244.438
628656
9.52684e+06
268.059
685061
9.45707e+06
262.709
742356
9.38348e+06
226.096
799975
9.30645e+06
61.1469
857880
9.2261e+06
-152.715
917802
9.14292e+06
-291.553
982998
9.05831e+06
226.166
1.06248e+06
8.96242e+06
1338.34
1.16507e+06
8.83007e+06
8037.08
1.30424e+06
8.66148e+06
3513.6
1.48914e+06
8.48421e+06
-5789.74
1.68608e+06
8.28646e+06
-6513.44
1.8703e+06
8.01715e+06
1420.38
2.07355e+06
7.65935e+06
19184
2.24806e+06
7.22212e+06
30417.1
2.36192e+06
6.7523e+06
28203.1
2.33916e+06
6.3262e+06
16969.9
2.22767e+06
5.98241e+06
18962.2
2.12682e+06
5.86976e+06
31273
2.09758e+06
5.77302e+06
219681
2.76734e+06
4.67412e+06
202151
2.79875e+06
3.45415e+06
138844
2.21639e+06
2.23422e+06
50405.2
1.4281e+06
1.62692e+06
-39385.5
734850
1.54538e+06
-245980
194453
1.87751e+06
-395632
-163781
2.27529e+06
-393270
-469446
2.6494e+06
-261667
-717652
3.06567e+06
-99601.2
-911046
3.48538e+06
-45950.2
-1.08606e+06
3.93466e+06
-116056
-1.20925e+06
4.38918e+06
-194846
-1.27974e+06
4.77747e+06
-206990
-1.32226e+06
5.0867e+06
-190783
-1.33964e+06
5.32063e+06
-148619
-1.32959e+06
5.51271e+06
-120958
-1.28984e+06
5.68156e+06
-115071
-1.23264e+06
5.76958e+06
-106692
-1.18248e+06
-156829
-1.07655e+06
9.99934e+06
17995.4
9.9958e+06
52870.4
9.98916e+06
88699.6
9.97922e+06
125270
9.9658e+06
162551
9.94868e+06
201380
9.9276e+06
241193
9.90245e+06
282796
9.87271e+06
326211
9.83848e+06
371435
9.79964e+06
418604
9.75556e+06
468306
9.70618e+06
519936
9.65165e+06
573359
9.59167e+06
628625
9.52672e+06
685022
9.45694e+06
742315
9.38315e+06
799908
9.30592e+06
857859
9.22548e+06
917825
9.14295e+06
983500
9.05835e+06
1.06176e+06
8.97397e+06
1.16627e+06
8.86719e+06
1.30087e+06
8.70492e+06
1.48137e+06
8.49741e+06
1.68239e+06
8.22786e+06
1.90756e+06
7.90199e+06
2.09757e+06
7.56771e+06
2.21855e+06
7.22708e+06
2.29631e+06
6.85055e+06
2.3264e+06
6.44391e+06
2.26286e+06
6.06226e+06
2.18171e+06
5.82321e+06
2.17993e+06
6.0766e+06
2.45985e+06
6.23939e+06
2.71187e+06
6.01608e+06
2.59202e+06
5.47245e+06
2.19315e+06
4.81988e+06
1.73472e+06
4.05687e+06
1.32032e+06
3.16842e+06
944952
2.4855e+06
597408
2.02489e+06
225472
1.86892e+06
-66827.9
1.93386e+06
-260799
2.05573e+06
-367103
2.1461e+06
-412729
2.27056e+06
-380889
2.46319e+06
-358758
2.68988e+06
-411677
2.9982e+06
-450264
3.33103e+06
-481357
3.59664e+06
-474222
-483517
9.99924e+06
113.398
19429.1
9.99624e+06
125.35
57136.3
9.99029e+06
188.647
95880.2
9.9813e+06
199.611
135467
9.96906e+06
208.625
175904
9.95334e+06
209.155
218077
9.93392e+06
182.402
261447
9.91056e+06
139.017
306871
9.88304e+06
102.41
354411
9.85108e+06
87.9477
404082
9.81438e+06
96.8903
456050
9.77269e+06
121.308
510807
9.72555e+06
148.996
567928
9.67256e+06
173.868
627227
9.61395e+06
195.738
688210
9.54976e+06
218.411
750362
9.48083e+06
242.779
812623
9.40815e+06
256.332
874173
9.33378e+06
250.072
933841
9.26068e+06
134.417
992281
9.19365e+06
125.553
1.05123e+06
9.13492e+06
-375.921
1.12257e+06
9.0853e+06
976.089
1.21558e+06
9.0249e+06
9687.79
1.35848e+06
8.91153e+06
19132.9
1.58645e+06
8.7419e+06
13493.3
1.84599e+06
8.51926e+06
1618.23
2.09836e+06
8.26962e+06
-3441.18
2.33668e+06
7.99583e+06
3304.1
2.53166e+06
7.67344e+06
14573.6
2.68397e+06
7.24797e+06
17485.6
2.75969e+06
6.72577e+06
18006.2
2.74138e+06
6.21719e+06
28640.1
2.61087e+06
5.85139e+06
-744.225
2.46579e+06
6.00134e+06
43880.3
2.57711e+06
6.03185e+06
63256.3
2.70983e+06
5.7145e+06
35257.5
2.49781e+06
5.19018e+06
-30541
1.97383e+06
4.73099e+06
-120382
1.29669e+06
4.4783e+06
-213955
635903
4.47037e+06
-271232
78776.6
4.60843e+06
-282867
-365894
4.81259e+06
-238150
-717213
5.05294e+06
-187434
-971658
5.30019e+06
-166342
-1.14946e+06
5.55139e+06
-174643
-1.25428e+06
5.7931e+06
-198259
-1.29867e+06
5.99932e+06
-228363
-1.30421e+06
6.1492e+06
-244748
-1.28777e+06
6.24349e+06
-242647
-1.25366e+06
6.30309e+06
-235933
-1.18418e+06
6.35205e+06
-239839
-1.08674e+06
6.34411e+06
-243880
-962710
-226491
-801420
9.99941e+06
19429
9.99623e+06
57131.7
9.99021e+06
95863.3
9.98116e+06
135447
9.9689e+06
175886
9.95319e+06
218059
9.93379e+06
261425
9.91044e+06
306844
9.88288e+06
354381
9.85088e+06
404051
9.81415e+06
456020
9.77243e+06
510781
9.72528e+06
567903
9.67233e+06
627201
9.61377e+06
688176
9.54963e+06
750313
9.48071e+06
812560
9.408e+06
874099
9.33352e+06
933828
9.2603e+06
992239
9.19268e+06
1.05207e+06
9.13366e+06
1.12137e+06
9.08694e+06
1.21563e+06
9.04375e+06
1.35617e+06
8.96832e+06
1.57913e+06
8.81036e+06
1.85758e+06
8.57778e+06
2.14677e+06
8.29154e+06
2.38785e+06
7.96626e+06
2.55649e+06
7.61609e+06
2.67038e+06
7.23286e+06
2.73494e+06
6.79247e+06
2.7261e+06
6.33869e+06
2.66659e+06
5.93337e+06
2.58591e+06
5.86956e+06
2.56993e+06
6.08043e+06
2.56497e+06
6.27774e+06
2.42648e+06
6.30637e+06
2.12576e+06
6.18974e+06
1.7191e+06
6.00523e+06
1.27412e+06
5.81152e+06
845898
5.64945e+06
453048
5.53065e+06
90217.7
5.49126e+06
-215908
5.53221e+06
-453440
5.62478e+06
-613105
5.73119e+06
-704844
5.85619e+06
-744704
5.98589e+06
-771054
6.0786e+06
-802202
6.15084e+06
-810411
6.21913e+06
-827969
6.26867e+06
-775523
-943855
9.99934e+06
111.49
20715.1
9.99673e+06
122.512
60934.2
9.9915e+06
183.122
102264
9.98354e+06
192.849
144554
9.97264e+06
200.982
187840
9.95857e+06
201.44
233050
9.94088e+06
176.161
279900
9.9197e+06
135.324
328700
9.89478e+06
101.133
379928
9.86539e+06
87.5684
434089
9.83113e+06
95.2599
490970
9.79193e+06
116.255
550714
9.74698e+06
139.03
613599
9.6961e+06
158.538
678843
9.63857e+06
176.227
746546
9.57474e+06
200.032
815161
9.50502e+06
235.899
883577
9.43116e+06
270.638
949572
9.35612e+06
325.69
1.01055e+06
9.28614e+06
254.3
1.06395e+06
9.23006e+06
441.304
1.10852e+06
9.20151e+06
215.759
1.15209e+06
9.20327e+06
1732.67
1.21368e+06
9.23317e+06
5679.2
1.32447e+06
9.20799e+06
15467.7
1.60043e+06
9.05128e+06
17022.7
1.98717e+06
8.79018e+06
6239.17
2.35701e+06
8.49697e+06
-655.177
2.63855e+06
8.20022e+06
-127.331
2.83894e+06
7.89594e+06
2866.18
2.99478e+06
7.55237e+06
2661.02
3.10782e+06
7.14053e+06
1369.65
3.15647e+06
6.64147e+06
24.2479
3.11194e+06
6.13304e+06
-6650.43
2.98285e+06
5.89979e+06
-1401.44
2.81499e+06
5.94885e+06
9221.63
2.65256e+06
6.03858e+06
3836.41
2.39903e+06
6.03796e+06
-28966.4
1.99138e+06
5.96214e+06
-89619.4
1.44446e+06
5.89667e+06
-156083
833550
5.89422e+06
-206211
261023
5.95018e+06
-233966
-211509
6.03453e+06
-242239
-570130
6.13072e+06
-242489
-820847
6.22037e+06
-236339
-981710
6.30348e+06
-232885
-1.0731e+06
6.37926e+06
-231659
-1.11385e+06
6.44111e+06
-235943
-1.1205e+06
6.47248e+06
-242962
-1.10211e+06
6.47715e+06
-249276
-1.06189e+06
6.48655e+06
-255627
-1.00063e+06
6.54739e+06
-264379
-933044
6.6639e+06
-241499
-842287
-217314
-773586
9.9995e+06
20710.8
9.99672e+06
60917.8
9.99142e+06
102244
9.9834e+06
144534
9.97248e+06
187822
9.95842e+06
233032
9.94075e+06
279879
9.91957e+06
328675
9.89464e+06
379899
9.8652e+06
434057
9.8309e+06
490939
9.79167e+06
550684
9.74672e+06
613574
9.69587e+06
678822
9.63838e+06
746529
9.5746e+06
815142
9.50492e+06
883565
9.43104e+06
949571
9.356e+06
1.01062e+06
9.28581e+06
1.06407e+06
9.22992e+06
1.10965e+06
9.20069e+06
1.15192e+06
9.20685e+06
1.21218e+06
9.24066e+06
1.32938e+06
9.22391e+06
1.61232e+06
9.07709e+06
2.02273e+06
8.8376e+06
2.39646e+06
8.55901e+06
2.67217e+06
8.25311e+06
2.86923e+06
7.91583e+06
3.01636e+06
7.54493e+06
3.11225e+06
7.12814e+06
3.14612e+06
6.67599e+06
3.11898e+06
6.22639e+06
3.02897e+06
5.91143e+06
2.88262e+06
5.81241e+06
2.66953e+06
5.87132e+06
2.36344e+06
5.98898e+06
1.96671e+06
6.09915e+06
1.50356e+06
6.19296e+06
1.00707e+06
6.28031e+06
535621
6.35596e+06
131852
6.40363e+06
-201557
6.42773e+06
-472372
6.43418e+06
-677603
6.42409e+06
-814929
6.40794e+06
-904035
6.40311e+06
-974211
6.41975e+06
-1.05122e+06
6.47978e+06
-1.14916e+06
6.64363e+06
-1.26997e+06
6.96238e+06
-1.42766e+06
7.4959e+06
-1.56183e+06
-1.95085e+06
9.99944e+06
106.857
21800.9
9.9973e+06
107.33
64182.2
9.99289e+06
165.913
107753
9.9861e+06
175.48
152392
9.97653e+06
183.684
198379
9.96453e+06
184.821
245896
9.94924e+06
161.265
295891
9.9306e+06
122.276
347948
9.90806e+06
88.712
403009
9.88167e+06
73.1464
461033
9.85069e+06
76.9516
522518
9.81434e+06
92.2805
587659
9.77222e+06
111.686
656345
9.72317e+06
129.93
728540
9.66689e+06
151.247
803580
9.60271e+06
182.727
880309
9.53052e+06
231.932
957081
9.45147e+06
302.218
1.03032e+06
9.36891e+06
375.493
1.09506e+06
9.29131e+06
528.157
1.14345e+06
9.23483e+06
833.464
1.16606e+06
9.22317e+06
2795.23
1.16333e+06
9.29745e+06
5934.89
1.13373e+06
9.49017e+06
11246.4
1.1238e+06
9.55462e+06
23001.8
1.51093e+06