/*--------------------------------*- C++ -*----------------------------------*\
| =========                 |                                                 |
| \\      /  F ield         | OpenFOAM: The Open Source CFD Toolbox           |
|  \\    /   O peration     | Version:  4.1                                   |
|   \\  /    A nd           | Web:      www.OpenFOAM.org                      |
|    \\/     M anipulation  |                                                 |
\*---------------------------------------------------------------------------*/
FoamFile
{
    version     2.0;
    format      ascii;
    class       surfaceScalarField;
    location    "14";
    object      phi;
}
// * * * * * * * * * * * * * * * * * * * * * * * * * * * * * * * * * * * * * //

dimensions      [0 3 -1 0 0 0 0];

internalField   nonuniform List<scalar> 
11516
(
9.968e+06
929.344
40393.7
9.99339e+06
15351.4
69322
9.95382e+06
16386.2
132741
9.84303e+06
16397.5
202627
9.66011e+06
16482.2
274314
9.40424e+06
16581.1
348458
9.0731e+06
16902.3
426725
8.66479e+06
17575.1
508938
8.1789e+06
18604.9
592881
7.61727e+06
19637
674547
6.99377e+06
20781.7
744942
6.32673e+06
23604.6
799847
5.69248e+06
22675.6
804076
5.12817e+06
49288.8
757678
4.74758e+06
67853.7
591621
4.87782e+06
21528
182927
5.4308e+06
-19321.6
-265049
6.9288e+06
36669.8
-1.32514e+06
8.16284e+06
-41133
-1.16141e+06
8.72677e+06
-189990
-452703
9.45322e+06
-291921
-563650
1.04672e+07
-101242
-1.04944e+06
1.23317e+07
487289
-2.45842e+06
1.48187e+07
847289
-3.45612e+06
1.73107e+07
972920
-3.57956e+06
1.8288e+07
1.26109e+06
-2.36406e+06
1.7699e+07
1.13011e+06
-630815
1.64138e+07
647628
627143
1.51565e+07
515181
801342
1.32855e+07
52165
1.94605e+06
1.18672e+07
-213947
1.78159e+06
1.09936e+07
-35330.2
1.0877e+06
8.76122e+06
-1.08369e+06
3.51402e+06
2.47972e+06
-394380
6.94808e+06
-3.59745e+06
1.74884e+06
4.45069e+06
-1.39891e+06
3.33656e+06
-5.5203e+06
-5.58261e+06
5.82222e+06
-1.72877e+06
-1.03682e+07
7.51159e+06
-3.04345e+06
-5.79312e+06
1.77129e+06
-6.47997e+06
-2.97536e+06
4.13568e+06
-7.18327e+06
1.49205e+06
809897
-5.51492e+06
4.49911e+06
-2.13959e+06
-1.21109e+06
6.42754e+06
-3.10635e+06
855895
1.16578e+07
-2.72331e+06
-2.54613e+06
1.20141e+07
-2.1177e+06
2.02861e+06
1.21023e+07
2.19615e+06
-1.89706e+06
8.99269e+06
3.3867e+06
124636
9.3844e+06
2.10014e+06
-2.26671e+06
1.29939e+07
490830
-3.82923e+06
7.21584e+06
-3.07087e+06
9.3137e+06
5.80144e+06
-5.46389e+06
6.87171e+06
2.94887e+07
-5.43801e+06
-1.83395e+07
5.19748e+07
-4.47567e+06
-1.7993e+07
255746
-3.50443e+07
9.96816e+06
40620.4
9.99085e+06
70046.9
9.95061e+06
133634
9.83965e+06
203536
9.65699e+06
275150
9.40141e+06
349124
9.07061e+06
427063
8.66257e+06
508833
8.17686e+06
592086
7.61602e+06
672783
6.99284e+06
742132
6.334e+06
793632
5.69203e+06
798298
5.14563e+06
759826
4.83767e+06
574351
4.93311e+06
127543
5.5025e+06
-367011
6.92828e+06
-1.25844e+06
8.02518e+06
-1.13281e+06
8.59569e+06
-820796
9.50675e+06
-1.3095e+06
1.07608e+07
-1.47491e+06
1.28003e+07
-1.67787e+06
1.57054e+07
-2.17401e+06
1.87591e+07
-2.17528e+06
1.90806e+07
868566
1.73862e+07
2.78271e+06
1.5354e+07
2.68453e+06
1.29625e+07
2.95795e+06
1.0546e+07
2.54059e+06
9.86606e+06
579660
9.16805e+06
833600
5.62121e+06
2.67777e+06
1.4126e+06
3.93215e+06
-262320
3.47762e+06
-390504
3.4259e+06
-2.00157e+06
7.24817e+06
-4.96735e+06
1.03029e+07
1.5566e+06
-4.98579e+06
-454685
5.99499e+06
3.8554e+06
-3.66209e+06
7.12391e+06
-5.57565e+06
8.68104e+06
-4.74065e+06
1.0946e+07
-4.96427e+06
1.335e+07
-4.35838e+06
2.14669e+07
-5.64954e+06
2.9798e+07
-4.70895e+06
2.70755e+07
4.92171e+06
3.0879e+07
-2.98165e+06
2.35294e+07
4.4793e+06
1.56228e+07
2.42546e+06
2.765e+07
-1.75143e+07
4.21904e+07
-1.90248e+07
-3.07354e+07
1.00324e+07
1100.07
31334
1.01719e+07
16715.1
31338.6
1.03205e+07
17750.4
82671.2
1.04651e+07
17494.6
153255
1.05967e+07
17207.5
235394
1.07069e+07
16916.7
329326
1.07865e+07
16809.5
437859
1.08242e+07
17022.7
562796
1.08046e+07
17494.8
704980
1.07105e+07
17905.9
861323
1.05236e+07
18475.8
1.0238e+06
1.02341e+07
19475.3
1.18059e+06
9.85419e+06
21077.4
1.29163e+06
9.38834e+06
26617.5
1.33422e+06
8.88805e+06
51889.8
1.24548e+06
8.257e+06
38513.8
1.05484e+06
7.93454e+06
-60639.2
553193
8.37076e+06
-31613.9
-1.38634e+06
7.80972e+06
27947.5
-577677
7.3508e+06
24149.6
-36088.8
7.46055e+06
111228
-834813
8.44181e+06
126794
-2.22839e+06
9.38047e+06
-44390.8
-3.40052e+06
9.82723e+06
-173602
-3.79158e+06
9.95269e+06
-121641
-3.62084e+06
1.00521e+07
634242
-3.11939e+06
1.05146e+07
611561
-1.72721e+06
1.12519e+07
-480235
346387
1.13236e+07
-1.03131e+06
1.75322e+06
9.86904e+06
-317266
3.71367e+06
6.40386e+06
952974
4.28926e+06
2.36385e+06
1.11613e+06
4.01064e+06
351825
273980
5.25648e+06
-1.51713e+06
1.28336e+06
7.47782e+06
-4.98363e+06
5.43967e+06
2.48377e+06
-7.88416e+06
2.52714e+06
-5.16507e+06
-6.46391e+06
2.53981e+06
-5.69158e+06
-5.16584e+06
2.61554e+06
-6.98587e+06
-3.46925e+06
1.68798e+06
-9.90065e+06
-284287
546665
-1.08117e+07
3.41905e+06
728113
-9.85119e+06
5.35707e+06
854813
-4.0045e+06
6.33351e+06
1.14571e+06
-1.23493e+06
6.9234e+06
141053
-3.16697e+06
8.5582e+06
1.65219e+06
-943472
1.2018e+07
3.33659e+06
-8.41718e+06
8.41648e+06
-744902
4.71869e+06
-2.02701e+06
-1.7702e+06
1.0212e+07
-8.69436e+06
-3.46542e+06
6.95638e+06
-3.64627e+06
-5.93185e+06
1.04834e+07
-8.26109e+06
-5.08824e+06
1.64594e+07
-2.73509e+07
-4.79793e+06
5.39658e+06
-3.19179e+07
-765156
-1.28065e+07
1.84076e+06
-2.63455e+07
1.00327e+07
31315.3
1.01701e+07
31590.6
1.03185e+07
82724
1.04636e+07
153308
1.05958e+07
235524
1.07068e+07
329540
1.07869e+07
438124
1.08247e+07
563067
1.08051e+07
705166
1.07103e+07
861425
1.05229e+07
1.02337e+06
1.02356e+07
1.17903e+06
9.85126e+06
1.28823e+06
9.41888e+06
1.32398e+06
8.90629e+06
1.27777e+06
8.2675e+06
1.03148e+06
8.12291e+06
-16055.3
8.1378e+06
-1.16634e+06
7.54118e+06
-499950
7.05676e+06
-333681
7.14978e+06
-1.33833e+06
8.33102e+06
-2.5762e+06
9.84501e+06
-3.29532e+06
1.06886e+07
-3.2764e+06
1.17217e+07
-3.37231e+06
1.35443e+07
-365779
1.52633e+07
1.65318e+06
1.48162e+07
2.64643e+06
1.28222e+07
3.91848e+06
1.11356e+07
3.88966e+06
9.61302e+06
3.01915e+06
6.48385e+06
5.05956e+06
2.06323e+06
7.32306e+06
-2.74579e+06
9.96189e+06
-4.59883e+06
1.0646e+07
-7.10074e+06
8.35945e+06
-8.78183e+06
1.13225e+07
-1.09168e+06
5.0762e+06
-174386
-4.1541e+06
2.49898e+06
3.94198e+06
5.31554e+06
-5.72727e+06
7.54502e+06
-6.93928e+06
7.7227e+06
-3.73005e+06
7.28914e+06
-4.22136e+06
1.01093e+07
-5.32026e+06
1.37007e+07
-5.64627e+06
4.9454e+06
3.48179e+06
-3944.43
8.3808e+06
5.7317e+06
-1.19227e+07
-1.18854e+06
5.46746e+06
-1.52906e+07
1.12818e+07
-3.41982e+07
-3.55932e+06
-3.28201e+07
-2.13068e+07
-1.72878e+07
1.00025e+07
1110.87
47193.2
1.0094e+07
16947.2
40291.8
1.01666e+07
17724.4
107418
1.02179e+07
17413.4
196567
1.02519e+07
17166.9
293942
1.02747e+07
16861.4
398115
1.02926e+07
16679.8
511693
1.03097e+07
16709.5
638357
1.03284e+07
16875.5
780189
1.03425e+07
16880.9
940664
1.03373e+07
16507.9
1.11954e+06
1.02928e+07
16660.6
1.3144e+06
1.01664e+07
15563.8
1.51275e+06
9.9131e+06
12555
1.69943e+06
9.41774e+06
49018.4
1.86664e+06
8.68427e+06
-52424.3
2.08948e+06
7.51835e+06
-160361
2.29562e+06
5.3877e+06
-63973.1
1.04927e+06
3.66711e+06
106728
1.05365e+06
2.97178e+06
26556.8
627512
3.05587e+06
40306.6
-1.00049e+06
3.82267e+06
-4822.99
-3.02751e+06
4.56786e+06
-149815
-4.07294e+06
4.34975e+06
64256.3
-3.73262e+06
4.0509e+06
-166216
-3.19327e+06
4.31124e+06
29037.4
-3.44559e+06
4.70604e+06
-781658
-1.3832e+06
4.6281e+06
-964833
1.35916e+06
3.29089e+06
-619327
3.65858e+06
350264
536119
6.05698e+06
-3.25146e+06
1.45005e+06
6.36813e+06
-5.96088e+06
1.09846e+06
5.57769e+06
-6.64718e+06
782434
5.08593e+06
-4.18992e+06
297211
4.62977e+06
-2.68625e+06
794690
26151.7
-2.67314e+06
-1.21708e+06
-4.09096e+06
-932899
-3.15661e+06
-4.42252e+06
87050.6
-1.45803e+06
-6.63051e+06
-109953
-575438
-9.03257e+06
1.27248e+06
-1.80028e+06
-1.01907e+07
4.14377e+06
54706.3
-1.26443e+07
7.29223e+06
238108
-7.2048e+06
7.8413e+06
-382098
-1.15717e+06
9.06873e+06
-481688
-3.66186e+06
1.11651e+07
1.18054e+06
-4.02555e+06
370332
2.59037e+06
-67607
-1.41986e+07
-1.7402e+06
2.0967e+07
-2.16032e+07
-4.59234e+06
2.22422e+07
-1.48468e+07
12658.9
-57200.6
6.68414e+06
-2.35478e+06
-8.94878e+06
2.93377e+07
-4.21267e+06
-2.18361e+06
3.55386e+07
-1.25804e+07
1.14257e+07
-8.77017e+06
1.80906e+06
2.93956e+07
9.05351e+06
2.94491e+07
1.00026e+07
47203
1.00914e+07
39760.8
1.01638e+07
107319
1.02153e+07
196636
1.025e+07
294135
1.02735e+07
398429
1.02919e+07
512112
1.03095e+07
638875
1.03282e+07
780819
1.0342e+07
941436
1.03369e+07
1.1203e+06
1.02927e+07
1.31463e+06
1.01635e+07
1.51207e+06
9.89748e+06
1.69525e+06
9.44761e+06
1.90273e+06
8.53153e+06
2.09755e+06
6.78751e+06
1.76314e+06
4.59943e+06
1.02667e+06
3.34352e+06
877437
2.8614e+06
174586
3.13724e+06
-1.58511e+06
4.14502e+06
-3.62512e+06
4.60968e+06
-3.99912e+06
4.62945e+06
-3.32524e+06
4.15685e+06
-3.13007e+06
5.15155e+06
-1.40979e+06
4.21924e+06
1.74583e+06
1.96635e+06
3.87199e+06
-304999
5.48168e+06
-2.05988e+06
6.06416e+06
-3.26971e+06
5.58158e+06
-2.80819e+06
5.62429e+06
-1.26488e+06
6.46841e+06
-376662
9.12606e+06
1.08237e+06
9.70625e+06
173343
7.72414e+06
414599
7.588e+06
3.11444e+06
953222
527421
-2.03313e+06
4.09205e+06
-1.07726e+06
6.85949e+06
-8.26101e+06
7.52799e+06
-7.21312e+06
6.01335e+06
-2.26593e+06
5.39752e+06
-3.77305e+06
6.19468e+06
-4.76251e+06
1.23281e+06
1.86606e+06
-1.10484e+07
1.4e+07
-8.72029e+06
1.30105e+06
-2.40791e+06
-1.84168e+07
1.16006e+07
-1.12047e+07
1.84797e+07
-37444.4
-4.41838e+06
6.46179e+06
-4.31326e+07
1.90914e+07
1.93153e+07
1.00015e+07
1142.05
62048
1.00943e+07
16233.9
45627.8
1.01671e+07
17401.9
130457
1.02125e+07
17220.4
244220
1.02305e+07
17009.8
367195
1.02234e+07
16742.9
495769
1.01937e+07
16623
632511
1.01463e+07
16738.4
778688
1.00854e+07
17031.8
936235
1.0014e+07
17179
1.10789e+06
9.93029e+06
16831.2
1.29685e+06
9.8278e+06
16577.3
1.50812e+06
9.68201e+06
14866.5
1.74853e+06
9.47537e+06
8880.33
2.03018e+06
9.07198e+06
35944.7
2.38498e+06
8.63101e+06
-75703.2
2.87218e+06
7.8806e+06
-145832
3.56975e+06
5.14551e+06
173762
4.03218e+06
3.12777e+06
196102
3.00372e+06
2.41638e+06
62774.9
1.31726e+06
2.40764e+06
-3318.07
-966575
2.53453e+06
-137780
-3.03802e+06
1.541e+06
-107204
-3.01419e+06
-675289
-342064
-1.29118e+06
-2.32769e+06
-314041
-1.28557e+06
-3.55717e+06
-360621
-1.955e+06
-4.9929e+06
-845793
819716
-6.47682e+06
-928500
3.68926e+06
-7.92995e+06
-610250
5.63493e+06
-9.28509e+06
15801.4
7.30287e+06
-1.03352e+07
418972
6.95607e+06
-1.07352e+07
419376
5.52946e+06
-1.00002e+07
422154
3.89344e+06
-7.91394e+06
57915.3
2.38881e+06
-5.01615e+06
-2.32016e+06
-712944
-1.61848e+06
-3.0691e+06
-4.75777e+06
299709
-2.89806e+06
-3.74093e+06
131838
-1.35484e+06
-5.2089e+06
-586346
-1.29141e+06
-6.92236e+06
326651
-1.64613e+06
-9.19628e+06
1.00781e+06
-202047
-1.30105e+07
3.2488e+06
-1.65145e+06
-7.55063e+06
6.65642e+06
-3.76104e+06
-243500
8.11164e+06
-3.7495e+06
-990909
1.50762e+06
-343081
3.01084e+06
-1.43033e+07
76314.7
1.54505e+07
-2.03042e+07
-1.64903e+06
2.83891e+07
-1.50146e+07
-1.32729e+06
1.77613e+07
-8.58126e+06
4.29333e+06
-1.14532e+07
-7.22724e+06
2.14482e+06
-1.31361e+07
1.1984e+06
-535526
-1.06781e+07
2.45195e+07
-4.04829e+06
-8.10068e+06
4.38754e+07
647045
9.20815e+06
3.64174e+06
-7.2476e+06
1.00019e+07
62087.1
1.00923e+07
45831.6
1.01645e+07
130212
1.021e+07
243932
1.02285e+07
366945
1.02219e+07
495564
1.01927e+07
632329
1.01457e+07
778514
1.00849e+07
936034
1.00132e+07
1.10766e+06
9.92935e+06
1.29644e+06
9.8269e+06
1.50689e+06
9.68312e+06
1.74781e+06
9.45016e+06
2.02457e+06
9.11394e+06
2.40213e+06
8.43328e+06
2.88412e+06
6.69268e+06
3.59685e+06
4.27486e+06
3.78502e+06
3.12506e+06
2.34719e+06
2.7881e+06
623444
3.1162e+06
-1.90669e+06
2.76912e+06
-3.43104e+06
697058
-2.09473e+06
-1.8122e+06
-1.20486e+06
-4.32034e+06
-983908
-5.6768e+06
-457283
-6.64426e+06
1.84155e+06
-7.62374e+06
3.90013e+06
-8.37701e+06
5.59536e+06
-9.10593e+06
6.78201e+06
-9.55679e+06
6.42965e+06
-8.62978e+06
5.09214e+06
-5.45678e+06
3.65479e+06
-292030
3.87627e+06
3.3877e+06
3.29412e+06
3.61865e+06
3.99884e+06
2.70812e+06
5.3696e+06
1.65683e+06
671744
785582
-2.07265e+06
3.93402e+06
-5.48162e+06
5.92784e+06
-1.02728e+07
6.27063e+06
-8.85518e+06
4.82917e+06
-3.37293e+06
4.60524e+06
-6.65563e+06
2.28521e+06
-2.80684e+06
-6.16139e+06
1.02462e+07
-1.39322e+07
1.98748e+07
-6.55242e+06
-7.82591e+06
-7.17457e+06
-1.39842e+07
-6.82426e+06
-1.00212e+07
-2.31506e+06
-5.41511e+06
9.59529e+06
-9.64867e+06
2.50176e+07
4.15662e+06
-9.37135e+06
1.00026e+07
1130.08
76117.5
1.00952e+07
16249.2
48010.7
1.0171e+07
16848.6
146062
1.02224e+07
16413.4
281076
1.02486e+07
16111
427017
1.02503e+07
15811.3
579226
1.02277e+07
15674.7
740648
1.01809e+07
15783.9
912635
1.01086e+07
16062.6
1.09763e+06
1.00088e+07
16208.7
1.29759e+06
9.87705e+06
15814.5
1.51585e+06
9.70885e+06
14797.6
1.7589e+06
9.5027e+06
13794.4
2.03887e+06
9.2622e+06
5873.95
2.3762e+06
8.94608e+06
28509.3
2.8139e+06
8.65582e+06
-23481
3.39395e+06
8.37177e+06
-133552
4.27309e+06
7.27179e+06
104450
5.42834e+06
5.67823e+06
426564
4.47428e+06
5.25186e+06
52638.6
1.80714e+06
5.30556e+06
-188584
-770794
5.07037e+06
-227880
-2.54179e+06
906290
30678.7
1.04935e+06
-2.47446e+06
-224190
2.23284e+06
-5.00273e+06
-210421
1.43315e+06
-6.96415e+06
-192157
215521
-7.85089e+06
96345.4
1.69404e+06
-7.96716e+06
-100145
3.9958e+06
-7.72751e+06
-120824
5.5458e+06
-7.24703e+06
-12434.8
6.86903e+06
-6.56555e+06
77916.1
6.20595e+06
-5.89678e+06
50811.2
4.8055e+06
-5.40841e+06
-32763.1
3.42841e+06
-4.81784e+06
-311877
2.10275e+06
-4.376e+06
-601261
-651689
-4.41355e+06
-1.61316e+06
-3.39864e+06
-3.46344e+06
-2.34154e+06
-2.66781e+06
-2.96436e+06
-1.07244e+06
-4.67223e+06
-1.24958e+06
-1.52834e+06
-6.89083e+06
-68972.4
-1.57655e+06
-8.58357e+06
-970932
-1.33307e+06
-1.06893e+07
-1.25094e+06
-2.3235e+06
-4.65575e+06
3.34847e+06
-6.30548e+06
2.70137e+06
1.02596e+06
-5.4701e+06
7.42898e+06
-9.10245e+06
-1.52503e+06
1.46974e+07
-1.72981e+07
-415076
2.39986e+07
-1.48727e+07
80317.3
2.56398e+07
-3.82429e+06
940926
5.11122e+06
-768835
-1.92841e+06
-1.3444e+07
-8.34641e+06
-923640
-5.38344e+06
-2.16362e+07
92039.9
2.22492e+06
-2.69687e+07
224564
-3.1014e+06
-1.9985e+07
1.33408e+06
749631
550052
-1.57152e+06
1.00028e+07
76108.3
1.00927e+07
46896.8
1.01682e+07
145496
1.02199e+07
280669
1.02467e+07
426682
1.0249e+07
578944
1.02268e+07
740381
1.01803e+07
912377
1.01081e+07
1.09736e+06
1.00078e+07
1.29734e+06
9.87545e+06
1.51558e+06
9.70729e+06
1.75837e+06
9.50048e+06
2.03835e+06
9.23805e+06
2.37485e+06
8.95765e+06
2.82051e+06
8.55637e+06
3.41709e+06
7.74973e+06
4.49007e+06
6.60434e+06
5.30038e+06
5.72096e+06
3.87854e+06
5.6785e+06
818789
6.21143e+06
-2.53272e+06
5.126e+06
-2.51251e+06
422464
2.69309e+06
-2.64708e+06
1.62733e+06
-5.63489e+06
1.80433e+06
-7.64327e+06
1.40793e+06
-8.18876e+06
2.55335e+06
-7.85567e+06
3.49453e+06
-7.44296e+06
5.09518e+06
-6.83688e+06
6.19275e+06
-6.19932e+06
5.88329e+06
-5.67137e+06
4.61516e+06
-5.38064e+06
3.32459e+06
-4.70216e+06
2.76604e+06
-5.02698e+06
2.60738e+06
-4.42044e+06
1.41822e+06
-3.46999e+06
1.95216e+06
-2.7368e+06
-1.04507e+06
608027
-6.64749e+06
3.00409e+06
-9.21045e+06
3.42651e+06
-1.18374e+07
4.66218e+06
-1.14217e+07
6.01246e+06
-9.06153e+06
2.73406e+06
-8.25631e+06
-1.69988e+06
121785
-6.34737e+06
1.43063e+07
-1.54845e+06
1.48279e+07
2.95066e+06
-1.20662e+07
-619885
-1.29738e+07
-7.18041e+06
-4.86849e+06
-1.64915e+07
3.78671e+06
-2.33398e+07
-2.61736e+06
-1.71491e+07
-722092
-2.61621e+06
1.00016e+07
1152.88
88283.6
1.00938e+07
14867.4
45849.5
1.01716e+07
16006.8
155757
1.02279e+07
15750.7
309085
1.02619e+07
15449.3
474812
1.02743e+07
15117.7
647488
1.02659e+07
14941.8
829971
1.02361e+07
15035.2
1.02497e+06
1.01826e+07
15300.6
1.23578e+06
1.01008e+07
15516.6
1.46519e+06
9.98263e+06
15189.4
1.71768e+06
9.82126e+06
14153
1.99905e+06
9.61854e+06
13418.3
2.32084e+06
9.38582e+06
8144.27
2.69564e+06
9.15311e+06
23540.4
3.16062e+06
8.93823e+06
20945.9
3.73252e+06
8.93031e+06
-72621.6
4.53625e+06
8.7754e+06
-11299.7
5.75703e+06
6.9895e+06
181970
6.28901e+06
3.93478e+06
35480.5
5.06167e+06
2.77085e+06
-1.21138e+06
1.93739e+06
1.87363e+06
-1.2176e+06
-134447
-1.8302e+06
2.08585e+06
2.99726e+06
-1.51533e+06
-210288
2.1933e+06
-3.66744e+06
186612
3.4939e+06
-5.23262e+06
-103065
2.03505e+06
-5.33325e+06
273876
1.82369e+06
-5.3215e+06
283578
3.88159e+06
-4.74223e+06
35853
5.0115e+06
-3.83105e+06
100237
5.91963e+06
-2.82943e+06
148364
5.08402e+06
-2.14223e+06
74102.5
4.0496e+06
-1.94934e+06
9155.65
3.21973e+06
-1.81114e+06
-463076
2.31307e+06
-3.5273e+06
-1.30519e+06
1.84306e+06
-4.20478e+06
-2.21278e+06
-1.06304e+06
-3.67608e+06
-1.22341e+06
-2.13514e+06
-4.20848e+06
213000
-4.33443e+06
-3.03185e+06
588842
-8.46608e+06
-1.32867e+06
-338728
-9.73961e+06
-3.11983e+06
-1.28478e+06
-7.42774e+06
-4.49785e+06
-1.16812e+06
-1.83322e+06
-5.01776e+06
-589512
4.21631e+06
-7.93251e+06
-1.57742e+06
1.2076e+07
-1.30494e+07
-1.48477e+06
2.12785e+07
-1.42073e+07
-834162
2.58687e+07
-7.59974e+06
284814
1.84073e+07
-929689
3.39551e+06
-5.9498e+06
-529025
-3.55618e+06
-1.11531e+07
3.36193e+06
-1.90045e+06
-8.16895e+06
2.57348e+06
-69276.6
2.99412e+06
-7.66398e+06
926619
6.33e+06
-9.82172e+06
116334
3.02225e+06
-1.11546e+06
1.64101e+06
1.00021e+07
88375
1.00921e+07
46255.8
1.01693e+07
155508
1.02256e+07
308776
1.02601e+07
474559
1.0273e+07
647296
1.02651e+07
829812
1.02356e+07
1.02481e+06
1.01822e+07
1.23559e+06
1.01e+07
1.46491e+06
9.98118e+06
1.71727e+06
9.81972e+06
1.99843e+06
9.61583e+06
2.31935e+06
9.37752e+06
2.69609e+06
9.15336e+06
3.1578e+06
8.96396e+06
3.73837e+06
8.82024e+06
4.67855e+06
8.388e+06
5.8455e+06
6.46812e+06
6.11514e+06
2.73877e+06
4.78907e+06
-1.77458e+06
1.04763e+06
-3.06081e+06
-2.03043e+06
-1.37537e+06
3.48955e+06
-2.64791e+06
2.8001e+06
-4.22807e+06
3.6521e+06
-5.23656e+06
2.43204e+06
-5.4952e+06
3.18015e+06
-5.19208e+06
3.51696e+06
-4.63172e+06
4.61178e+06
-3.71025e+06
5.39867e+06
-2.81717e+06
5.14661e+06
-2.2273e+06
4.09685e+06
-2.10177e+06
3.13046e+06
-4.58768e+06
4.27459e+06
-7.81092e+06
3.61184e+06
-7.34665e+06
-1.55888e+06
-6.6756e+06
-89113.8
-4.15422e+06
-3.31169e+06
-370069
-9.65026e+06
1.72739e+06
-1.14542e+07
1.91997e+06
-1.31403e+07
2.12426e+06
-1.24612e+07
3.20476e+06
-1.02836e+07
-793754
-5.66532e+06
-4.22688e+06
1.99611e+06
-6.0331e+06
1.50734e+07
-285801
9.01163e+06
-2.89845e+06
-6.58081e+06
-6.69653e+06
-1.3294e+07
-3.59249e+06
-1.02978e+07
159274
3722.41
-4.98555e+06
3.50272e+06
-1.18636e+07
6.44086e+06
3.66288e+06
1.00029e+07
1146.59
100256
1.0093e+07
15028.9
42818.5
1.01716e+07
15434.3
159886
1.02315e+07
14873.5
328459
1.02722e+07
14485.2
510932
1.02943e+07
14138.9
700897
1.02992e+07
13972.3
900847
1.02867e+07
14073.2
1.1145e+06
1.02561e+07
14349.7
1.34545e+06
1.02029e+07
14553.4
1.59813e+06
1.01213e+07
14192.8
1.87627e+06
1.00044e+07
13188.4
2.18682e+06
9.85242e+06
11609.1
2.53819e+06
9.68213e+06
9985.02
2.93843e+06
9.52276e+06
15241.5
3.40445e+06
9.39306e+06
29328.5
3.94845e+06
9.43753e+06
-10046.6
4.62285e+06
9.69543e+06
-29088.8
5.61358e+06
9.34956e+06
69367.1
6.67172e+06
7.55026e+06
76253.6
6.942e+06
3.39143e+06
156704
6.29698e+06
446769
-1.14854e+06
4.4855e+06
2.23323e+06
-394841
2.22023e+06
1.26565e+06
-18494.5
3.31662e+06
-1.0016e+06
542864
5.28292e+06
-2.34208e+06
-194438
3.64834e+06
-2.57721e+06
-57712.2
2.17462e+06
-1.82428e+06
576358
2.66104e+06
-1.954e+06
159542
5.02171e+06
-1.82531e+06
-13734.1
5.82117e+06
-1.56674e+06
78208.2
4.73731e+06
-1.43036e+06
76370.2
3.81954e+06
-1.27921e+06
-24313.3
3.05564e+06
-2.95581e+06
-850864
4.39115e+06
-4.0002e+06
-2.55023e+06
4.38694e+06
-3.13542e+06
-1.90512e+06
-440598
-2.93605e+06
-511637
-1.98476e+06
-3.3514e+06
592076
-4.41174e+06
-4.02438e+06
1.30212e+06
-8.89037e+06
-3.94191e+06
872615
-1.04978e+07
-4.61036e+06
154386
-6.6809e+06
-5.03928e+06
306602
-1.42868e+06
-7.1579e+06
-90759.9
6.64972e+06
-1.02435e+07
-798388
1.60651e+07
-1.21981e+07
-771383
2.40067e+07
-9.59611e+06
-1.47128e+06
2.45792e+07
-1.14499e+06
-1.83585e+06
1.12555e+07
1.53396e+06
-3.03785e+06
-6.75648e+06
-177653
-3.37573e+06
-6.62416e+06
458019
-998395
-8.13504e+06
1.13944e+07
56721.1
-7.94241e+06
2.24929e+07
749578
-5.13338e+06
2.43451e+07
3.70744e+06
-2.15508e+06
3.09847e+06
-3.35261e+06
1.00033e+07
100212
1.00906e+07
41205.6
1.0169e+07
158959
1.02292e+07
327710
1.02704e+07
510254
1.02931e+07
700264
1.02984e+07
900218
1.02863e+07
1.11383e+06
1.02557e+07
1.34476e+06
1.02021e+07
1.59732e+06
1.01198e+07
1.87537e+06
1.00025e+07
2.18559e+06
9.85097e+06
2.53648e+06
9.6784e+06
2.93663e+06
9.52053e+06
3.40083e+06
9.42676e+06
3.94251e+06
9.49397e+06
4.67244e+06
9.62223e+06
5.75965e+06
9.15137e+06
6.74238e+06
7.17621e+06
6.9934e+06
2.85091e+06
5.79115e+06
-2.76571e+06
2.86023e+06
-2.67553e+06
3.59145e+06
-1.6037e+06
1.98477e+06
-1.61255e+06
4.29385e+06
-2.35958e+06
3.01616e+06
-2.46975e+06
3.28518e+06
-2.15682e+06
3.78934e+06
-1.8532e+06
4.47569e+06
-1.56459e+06
5.08683e+06
-1.37318e+06
5.00109e+06
-1.42169e+06
4.16521e+06
-3.01662e+06
4.45984e+06
-5.14103e+06
4.84053e+06
-7.06409e+06
2.36183e+06
-8.74089e+06
-1.96626e+06
-8.38408e+06
-963732
-4.78647e+06
-6.1955e+06
-2.16824e+06
-1.08063e+07
-309825
-1.22758e+07
116962
-1.32529e+07
293437
-1.211e+07
-669602
-9.1544e+06
-3.60521e+06
-3.40462e+06
-3.85606e+06
1.39326e+06
-1.87537e+06
1.14365e+07
2.68126e+06
2.32156e+06
-2.29143e+06
-4.98942e+06
-1.26283e+07
-6.69375e+06
-1.64066e+07
-7.62623e+06
-6.23098e+06
-1.00156e+07
4.51249e+06
-6.19422e+06
1.45794e+07
238713
2.11584e+06
1.00017e+07
1160.79
109551
1.00895e+07
13085.5
34555.3
1.01687e+07
14187.1
157779
1.02324e+07
13885.5
338397
1.02797e+07
13524.2
534552
1.03117e+07
13143.6
738291
1.03299e+07
12931.8
951985
1.03345e+07
12980.6
1.18038e+06
1.03259e+07
13237.8
1.42653e+06
1.03021e+07
13382.6
1.69479e+06
1.02585e+07
13042.5
1.98988e+06
1.01905e+07
11899.5
2.31714e+06
1.00992e+07
9991.7
2.68322e+06
9.99672e+06
8932.58
3.0946e+06
9.90372e+06
9829.26
3.55438e+06
9.85122e+06
22247.5
4.07963e+06
9.8861e+06
15552.3
4.66881e+06
1.01903e+07
-2421.18
5.42846e+06
1.05894e+07
9876.66
6.38268e+06
1.04845e+07
68137.4
7.16938e+06
9.20893e+06
185466
7.61918e+06
7.17288e+06
-29441.4
6.9092e+06
5.10182e+06
9046.86
4.67005e+06
3.31408e+06
52846.8
5.29796e+06
2.46372e+06
510122
5.69845e+06
1.50702e+06
-443920
5.05268e+06
701647
-523745
3.55583e+06
-1.06166e+06
512076
3.92282e+06
-1.98208e+06
281549
5.65941e+06
-1.40423e+06
-236217
5.39306e+06
-953948
-359648
4.51545e+06
-993206
-227580
3.90849e+06
-2.33726e+06
60407.2
4.07875e+06
-4.19719e+06
-104708
5.89536e+06
-3.67846e+06
-1.59351e+06
5.18879e+06
-2.50477e+06
-806287
-787065
-1.23301e+06
2.03694e+06
-5.08504e+06
-1.64838e+06
2.45431e+06
-6.19551e+06
-2.81715e+06
815053
-8.30287e+06
-4.0875e+06
1.36852e+06
-1.03702e+07
-4.68888e+06
1.52336e+06
-7.3761e+06
-5.3184e+06
931963
-1.4002e+06
-7.04945e+06
496673
8.09887e+06
-9.31812e+06
125530
1.83063e+07
-9.34286e+06
-881108
2.48751e+07
-5.32752e+06
-2.40262e+06
2.28493e+07
179261
-3.72135e+06
9.11159e+06
-181038
-7.62791e+06
519225
-3.67442e+06
-3.63364e+06
40120.5
-1.15065e+07
486290
-824076
-1.70975e+07
1.33466e+06
-3.29967e+06
-1.535e+07
1.67722e+06
-8.04354e+06
-6.07247e+06
6.85402e+06
-1.78005e+07
1.92473e+06
-186235
1.00024e+07
109694
1.00882e+07
35165.5
1.01668e+07
157551
1.02304e+07
338097
1.0278e+07
534338
1.03105e+07
738178
1.03291e+07
951942
1.03341e+07
1.18038e+06
1.03255e+07
1.42654e+06
1.03014e+07
1.69478e+06
1.0257e+07
1.98976e+06
1.01886e+07
2.31677e+06
1.00976e+07
2.68259e+06
9.99466e+06
3.09275e+06
9.90638e+06
3.55334e+06
9.86302e+06
4.07063e+06
9.95101e+06
4.67144e+06
1.02705e+07
5.51033e+06
1.06063e+07
6.51389e+06
1.05194e+07
7.27316e+06
9.28905e+06
7.37145e+06
5.74002e+06
6.61717e+06
3.58738e+06
6.07656e+06
2.24792e+06
3.62038e+06
2.60951e+06
4.50477e+06
962191
4.24497e+06
-44096.3
3.75366e+06
-492867
4.75085e+06
-1.18296e+06
5.42554e+06
-1.68994e+06
5.28496e+06
-2.31833e+06
5.05949e+06
-3.12347e+06
4.45374e+06
-4.47426e+06
5.54737e+06
-4.88239e+06
4.89439e+06
-6.84582e+06
2.64819e+06
-1.06854e+07
1.15185e+06
-5.96821e+06
-3.5017e+06
-808977
-8.74354e+06
-1.45526e+06
-9.18754e+06
-1.28282e+06
-1.09302e+07
-621249
-1.22267e+07
-639750
-1.09611e+07
-370410
-8.74938e+06
1.44239e+06
-5.04007e+06
3.59138e+06
-1.69689e+06
6.63024e+06
5.83997e+06
5.96406e+06
-989406
-6.26606e+06
-640926
-1.82904e+07
1.55536e+06
-2.40773e+07
-1.34638e+06
-2.86236e+07
-3.9605e+06
-2.54269e+07
-7.55306e+06
-1.69721e+06
-1.64472e+07
-2.14584e+06
1.00035e+07
1160.65
118932
1.00873e+07
13427
27669.6
1.01654e+07
13666.8
151887
1.02314e+07
13031.8
341241
1.02844e+07
12607
547746
1.03257e+07
12257
761912
1.03567e+07
12105.6
986017
1.03787e+07
12231.9
1.22474e+06
1.0392e+07
12554
1.48151e+06
1.03958e+07
12774.1
1.75978e+06
1.03872e+07
12473.4
2.06376e+06
1.03628e+07
11292.1
2.39846e+06
1.03239e+07
9362.35
2.76825e+06
1.02795e+07
7469.53
3.17766e+06
1.02496e+07
8244.07
3.62762e+06
1.02563e+07
12711
4.12604e+06
1.03204e+07
16012.2
4.66747e+06
1.05501e+07
15596.1
5.28135e+06
1.10192e+07
9228
6.01536e+06
1.14904e+07
29534.3
6.82695e+06
1.16328e+07
68708.8
7.607e+06
1.06895e+07
248243
7.84851e+06
8.52547e+06
427553
6.61627e+06
7.2306e+06
186946
6.55975e+06
6.5252e+06
-809836
7.24359e+06
5.42063e+06
-589975
6.74186e+06
3.94679e+06
-613875
5.63343e+06
2.041e+06
119474
5.74195e+06
123804
821136
6.74303e+06
-1.06213e+06
53176
6.37534e+06
-1.91471e+06
-446400
5.44695e+06
-2.16191e+06
-937982
4.59529e+06
-2.4913e+06
-630785
4.61036e+06
-1.70843e+06
-135307
5.05822e+06
1.17091e+06
-1.15745e+06
3.59913e+06
2.96966e+06
-1.22263e+06
-1.00804e+06
2.32248e+06
1.21519e+06
-5.3589e+06
674997
2.48929e+06
-6.77731e+06
-1.25525e+06
1.60071e+06
-7.76122e+06
-4.54327e+06
1.99681e+06
-8.95111e+06
-7.32085e+06
2.72989e+06
-7.18113e+06
-7.68076e+06
1.61894e+06
-2.48689e+06
-6.97979e+06
1.28794e+06
6.21076e+06
-7.66131e+06
1.29586e+06
1.77292e+07
-6.62444e+06
764594
2.30662e+07
-2.62486e+06
-2.01766e+06
2.07542e+07
-1.27524e+06
-4.53823e+06
1.19815e+07
-2.20868e+06
-5.23581e+06
6.18923e+06
-3.73605e+06
-1.88534e+06
3.09045e+06
-9.1386e+06
-178252
4.50985e+06
-1.68054e+07
-259905
4.43712e+06
-2.13651e+07
208914
-3.69526e+06
-2.25746e+07
3.22138e+06
-1.97198e+07
485102
3.5466e+06
1.0004e+07
118840
1.0085e+07
25593.2
1.0163e+07
150597
1.02292e+07
340138
1.02827e+07
546711
1.03245e+07
760924
1.03559e+07
985023
1.03783e+07
1.22371e+06
1.03917e+07
1.48038e+06
1.0395e+07
1.75856e+06
1.03857e+07
2.06228e+06
1.03606e+07
2.39666e+06
1.03217e+07
2.76601e+06
1.02785e+07
3.17451e+06
1.02505e+07
3.62409e+06
1.02589e+07
4.11914e+06
1.03435e+07
4.65785e+06
1.06324e+07
5.30198e+06
1.11325e+07
6.11134e+06
1.1604e+07
6.94743e+06
1.16515e+07
7.54157e+06
1.08837e+07
7.78885e+06
9.9341e+06
7.60671e+06
7.78726e+06
6.05374e+06
5.92135e+06
5.58223e+06
3.79712e+06
5.77479e+06
1.48402e+06
5.47607e+06
363298
6.00805e+06
337789
6.24475e+06
-569358
6.09537e+06
-1.95645e+06
5.68824e+06
-3.73169e+06
4.92794e+06
-3.85705e+06
4.82419e+06
-3.06463e+06
3.93093e+06
-3.84518e+06
2.45398e+06
-5.01198e+06
1.41084e+06
-4.01837e+06
-2.97072e+06
-2.04861e+06
-8.02701e+06
-893359
-8.6332e+06
-276318
-9.48192e+06
761850
-1.04882e+07
1.97477e+06
-1.05088e+07
2.87608e+06
-8.33344e+06
3.52623e+06
-4.39982e+06
4.59495e+06
-2.0787e+06
5.00823e+06
3.27782e+06
-4.27135e+06
3.55871e+06
-1.51536e+07
4.75567e+06
-1.96505e+07
3.89198e+06
-2.3781e+07
2.43335e+06
-2.57179e+07
-2.41499e+06
-2.36714e+07
-9.36992e+06
-2.17741e+07
-1.52197e+07
5.96452e+06
1.00023e+07
1153.6
124843
1.00817e+07
10992.6
15228.3
1.01585e+07
12042.4
140061
1.02265e+07
11740.3
334762
1.02849e+07
11371.1
548149
1.03348e+07
10997.4
769112
1.03782e+07
10785.7
999634
1.04165e+07
10846.4
1.24448e+06
1.04507e+07
11075.2
1.50685e+06
1.04803e+07
11233.6
1.78975e+06
1.05027e+07
10777
2.09655e+06
1.05156e+07
9465.32
2.43134e+06
1.05193e+07
7267.99
2.79721e+06
1.05217e+07
4924.29
3.19757e+06
1.05391e+07
4967.65
3.63254e+06
1.05919e+07
6207.77
4.10359e+06
1.07046e+07
11136.6
4.61381e+06
1.09035e+07
16894.1
5.14841e+06
1.12927e+07
25660.2
5.7268e+06
1.18543e+07
29184.2
6.39183e+06
1.24967e+07
22697
7.14668e+06
1.26918e+07
73940
7.7784e+06
1.15556e+07
378353
7.54096e+06
9.80632e+06
726254
7.64821e+06
8.66373e+06
77118.8
8.31815e+06
7.89195e+06
-527300
8.05737e+06
7.09019e+06
-854185
7.34201e+06
6.24278e+06
-438330
7.06349e+06
5.27507e+06
499135
7.20502e+06
4.3132e+06
476067
6.77065e+06
3.23769e+06
254819
6.07368e+06
2.46749e+06
-116802
5.24144e+06
2.88884e+06
-420980
4.51458e+06
5.1221e+06
-354382
3.32306e+06
7.93138e+06
-679659
1.70703e+06
9.3165e+06
-1.06573e+06
-1.13535e+06
8.29739e+06
-541805
-3.65712e+06
6.3547e+06
510289
-5.28563e+06
3.95141e+06
846906
-6.23741e+06
-197410
1.70068e+06
-6.58531e+06
-4.94656e+06
3.18765e+06
-5.72772e+06
-6.49868e+06
3.99054e+06
-5.03559e+06
-4.25447e+06
3.09049e+06
817544
-3.95403e+06
1.57767e+06
1.58546e+07
-1.93012e+06
1.49422e+06
1.9532e+07
1.57198e+06
-219645
1.74146e+07
4.02968e+06
-2.49442e+06
1.18366e+07
5.9685e+06
-4.59122e+06
8.43652e+06
5.27428e+06
-3.58359e+06
6.73707e+06
3.47257e+06
-1.74723e+06
7.33296e+06
5.11817e+06
-4.55533e+06
6.53213e+06
8.88718e+06
-9.33013e+06
985336
-1.81433e+07
50314.5
6.66335e+06
2.01118e+06
3.00814e+07
1.00031e+07
125036
1.00808e+07
16003
1.01568e+07
139830
1.02247e+07
334439
1.02833e+07
547928
1.03337e+07
769014
1.03774e+07
999634
1.0416e+07
1.24454e+06
1.04503e+07
1.50696e+06
1.04794e+07
1.78984e+06
1.05011e+07
2.09656e+06
1.05131e+07
2.43111e+06
1.05168e+07
2.79663e+06
1.052e+07
3.19635e+06
1.05397e+07
3.63007e+06
1.05958e+07
4.10107e+06
1.0705e+07
4.60437e+06
1.09456e+07
5.14322e+06
1.14067e+07
5.76201e+06
1.20258e+07
6.47216e+06
1.2556e+07
7.16414e+06
1.28028e+07
7.74431e+06
1.27484e+07
8.12531e+06
1.1879e+07
7.68494e+06
1.041e+07
7.14106e+06
8.57185e+06
7.10541e+06
6.29715e+06
6.92079e+06
4.90462e+06
6.98129e+06
4.83524e+06
6.8009e+06
4.94688e+06
6.39286e+06
4.96702e+06
5.80229e+06
4.72368e+06
4.94773e+06
5.074e+06
4.03712e+06
6.00465e+06
2.73186e+06
6.71416e+06
1.20298e+06
7.50553e+06
-294348
6.87255e+06
-2.77524e+06
4.76129e+06
-5.368e+06