/*--------------------------------*- C++ -*----------------------------------*\
| =========                 |                                                 |
| \\      /  F ield         | OpenFOAM: The Open Source CFD Toolbox           |
|  \\    /   O peration     | Version:  4.1                                   |
|   \\  /    A nd           | Web:      www.OpenFOAM.org                      |
|    \\/     M anipulation  |                                                 |
\*---------------------------------------------------------------------------*/
FoamFile
{
    version     2.0;
    format      ascii;
    class       volVectorField;
    location    "14";
    object      U;
}
// * * * * * * * * * * * * * * * * * * * * * * * * * * * * * * * * * * * * * //

dimensions      [0 1 -1 0 0 0 0];

internalField   nonuniform List<vector> 
4432
(
(39.9255 -0.00110963 0.0967241)
(39.9806 0.0299352 0.19877)
(39.962 0.0354147 0.368631)
(39.6502 0.0367517 0.553378)
(39.053 0.0394875 0.742699)
(38.1802 0.0430386 0.936965)
(37.0172 0.0474011 1.13973)
(35.5487 0.0526906 1.3498)
(33.7686 0.058853 1.56145)
(31.6777 0.0649042 1.7635)
(29.278 0.0711466 1.92751)
(26.7368 0.0816763 2.05653)
(23.8846 0.0765323 2.04476)
(21.7524 0.149706 1.97594)
(19.1728 0.200591 1.47061)
(18.7406 0.0423374 0.105251)
(19.4332 0.0372998 -1.22626)
(23.9402 0.21994 -2.65339)
(29.4388 0.0310614 -3.70401)
(34.8845 -0.00514188 -2.58297)
(37.6245 -0.141187 -3.28626)
(38.1373 0.879218 -2.16115)
(45.614 2.11793 -5.26729)
(55.4248 1.2056 -9.74106)
(65.4383 -0.570403 -13.2978)
(71.7949 -0.383819 -12.1968)
(72.9806 -0.541008 -10.5298)
(68.0263 -2.59132 -8.15457)
(63.0973 -3.51199 -5.47958)
(56.2296 -3.96679 0.903363)
(50.6118 -2.73622 5.2672)
(48.2218 -0.7065 7.1706)
(39.2248 -2.59705 10.1118)
(11.2853 7.36096 15.1208)
(9.25436 24.1023 8.71786)
(-8.9765 19.1979 1.75736)
(-4.73732 7.57197 -5.97568)
(-44.3777 4.46709 -22.7878)
(-35.7169 -2.44264 -39.381)
(-17.7842 -5.86782 -46.7159)
(-4.78606 -11.3685 -45.9392)
(15.1968 -16.6417 -30.3955)
(27.2162 -17.2198 -15.249)
(25.5018 -18.4965 -26.539)
(66.5054 -16.3233 -13.9467)
(59.4585 -7.30121 -15.2677)
(17.0058 -16.0901 -11.3089)
(26.2712 -16.863 -15.279)
(-2.14808 -10.9972 -12.7184)
(109.671 -20.9469 9.75647)
(33.7253 -27.1092 13.1549)
(22.312 -14.4197 -84.7818)
(177.751 -15.0223 -83.2769)
(292.349 -2.47677 -135.599)
(39.9218 -0.00110869 0.0970281)
(39.9812 0.0299279 0.200364)
(39.9491 0.035449 0.370702)
(39.6363 0.0368164 0.555319)
(39.0404 0.039559 0.744335)
(38.1689 0.0431251 0.938194)
(37.0064 0.0475105 1.14018)
(35.5398 0.0528479 1.34948)
(33.7594 0.0590647 1.55978)
(31.6707 0.0652185 1.75964)
(29.2769 0.0716463 1.92232)
(26.7284 0.0823501 2.03818)
(23.9758 0.076983 2.02936)
(21.6159 0.156011 2.08454)
(19.4168 0.222771 1.36567)
(19.2063 0.0726229 -0.467105)
(19.5072 -0.112422 -0.933208)
(23.8516 0.234289 -2.42827)
(29.4165 0.301024 -3.61397)
(33.9712 -0.162321 -3.77918)
(37.7463 -0.334945 -5.23536)
(40.1884 1.35077 -5.39078)
(46.2772 3.01632 -4.99726)
(56.8927 1.61165 -5.41216)
(69.7748 -0.730384 -6.68502)
(78.942 -1.37331 -5.25958)
(73.5227 -2.45023 -4.19719)
(64.6298 -4.51063 -1.3629)
(56.5423 -4.13978 1.77706)
(46.5686 -3.59145 4.12056)
(41.0157 -2.88256 7.68524)
(39.8489 -1.18115 6.49807)
(29.8249 -2.60295 6.95346)
(-6.59198 11.2719 19.8252)
(16.8427 15.8636 13.1628)
(11.2641 7.85225 2.08232)
(-1.49718 18.9424 -3.8806)
(-29.6939 18.879 -11.9942)
(-3.11203 -1.15995 -48.8179)
(-1.77093 15.301 -37.7384)
(6.3171 8.23902 -39.1063)
(26.4526 1.84201 -35.7954)
(32.1022 -2.37048 -43.5171)
(36.292 -3.40762 -50.212)
(53.831 -5.9682 -48.4817)
(62.586 0.203373 -46.3596)
(108.206 12.7027 -52.0154)
(98.9468 8.10847 -1.2898)
(99.9365 4.92905 26.0044)
(145.063 -5.03483 13.5885)
(107.139 -8.03129 -5.0589)
(44.1607 1.6331 -65.9661)
(132.395 0.981274 -81.0857)
(243.426 3.8821 -125.345)
(39.9796 -0.00110725 0.122828)
(40.4187 0.0327356 0.19108)
(40.9757 0.0388654 0.440384)
(41.5625 0.0400212 0.741396)
(42.1157 0.0423584 1.06898)
(42.6109 0.0455263 1.42466)
(43.0077 0.0495178 1.8176)
(43.263 0.054471 2.25166)
(43.3208 0.0601789 2.72333)
(43.1186 0.0658829 3.22061)
(42.5705 0.0721127 3.71069)
(41.6407 0.0789519 4.16484)
(40.229 0.0857698 4.42352)
(38.5673 0.110358 4.43922)
(36.477 0.18587 4.1193)
(34.3314 0.189613 3.11475)
(31.9135 -0.172739 1.37496)
(33.0407 -0.280011 -5.94635)
(32.0453 -0.0325401 -5.67011)
(30.1565 0.0690273 -2.78818)
(28.9042 0.419578 -2.71472)
(31.6531 0.397907 -7.03059)
(35.8668 -0.445896 -13.207)
(39.2397 -1.43838 -17.8276)
(39.1922 -1.52888 -19.2038)
(39.4635 -1.70582 -17.3611)
(40.4831 -2.62568 -9.16382)
(44.3437 -4.53901 -0.0915351)
(46.039 -5.89592 4.21174)
(43.8848 -4.20369 12.2522)
(36.7328 -1.42522 13.12)
(15.1315 0.0959837 9.14263)
(1.29954 0.202833 20.4944)
(-3.65106 6.34153 44.8397)
(-2.21077 18.9642 30.5003)
(-35.8877 3.26738 -43.1874)
(-26.1675 5.84817 -30.9744)
(-24.6205 3.52295 -35.7412)
(-19.8348 2.95061 -44.449)
(-7.6145 2.1679 -39.2887)
(9.27717 1.01217 -23.9385)
(17.3716 -0.369193 -7.78575)
(22.5746 -7.09865 -13.4015)
(26.4174 -16.7164 -22.3335)
(36.2344 -9.01487 -3.13974)
(52.5534 -10.6127 -31.2287)
(26.6149 -27.4981 -8.3161)
(19.3894 -22.6361 -5.64402)
(-55.6134 -18.3913 -7.18829)
(-45.8659 -20.5725 35.8395)
(65.3129 -18.7449 5.89514)
(-98.2442 -14.0837 -75.0452)
(-179.7 -6.94826 -86.3199)
(-102.674 5.35537 -68.413)
(39.9756 -0.00110516 0.123082)
(40.4213 0.0327209 0.193198)
(40.9671 0.0389053 0.442509)
(41.5545 0.0401234 0.743479)
(42.1115 0.0425162 1.07108)
(42.6093 0.0457209 1.4267)
(43.0086 0.0497512 1.8193)
(43.265 0.0547414 2.2527)
(43.3231 0.0604893 2.72312)
(43.1207 0.0662401 3.21888)
(42.568 0.0725464 3.70627)
(41.6388 0.0795289 4.15228)
(40.2381 0.0854731 4.40877)
(38.5558 0.108889 4.39137)
(36.6599 0.197975 4.1285)
(34.3127 0.159413 3.12179)
(32.3247 -0.202921 0.201995)
(33.3114 -0.273445 -5.84831)
(30.7416 0.0673614 -5.56675)
(29.0161 0.144025 -3.83808)
(27.7789 0.549725 -5.44991)
(30.3547 0.513581 -8.09348)
(36.4863 -0.27526 -11.0243)
(42.2828 -1.21031 -15.9579)
(42.2268 -1.6487 -18.2448)
(49.4058 1.30779 -6.12503)
(60.3715 1.02757 5.13975)
(61.9665 -4.63817 6.88242)
(56.0464 -6.24439 12.162)
(48.3016 -2.40723 12.0851)
(47.1943 2.5819 1.25965)
(30.7895 4.07997 11.6178)
(8.72795 2.12311 23.8338)
(-3.7531 15.4499 30.751)
(-10.8709 33.0432 35.0771)
(-14.6549 23.1546 23.3773)
(-33.5062 13.8636 26.7292)
(-32.5258 12.5766 33.0601)
(7.28323 9.14862 -23.9636)
(3.19002 7.46993 42.9395)
(14.441 8.20238 -14.1723)
(23.6616 6.30426 -30.2949)
(31.3448 7.74867 -23.7497)
(30.7622 8.41034 -21.1929)
(35.8073 4.63794 -17.5544)
(56.361 6.91923 -24.6687)
(45.5833 1.16134 4.29283)
(-29.2241 -3.32147 45.6839)
(22.7734 -0.383175 -26.6477)
(-21.8966 -10.3692 24.2296)
(49.9831 -8.64242 1.64606)
(-109.893 2.39037 -79.8979)
(-219.497 13.8388 -94.762)
(-100.811 3.11438 -57.8125)
(39.9538 -0.00112347 0.164215)
(40.2289 0.0332126 0.139857)
(40.5362 0.0387514 0.360436)
(40.7712 0.0397076 0.660523)
(40.9293 0.0421571 1.0017)
(41.0387 0.045369 1.3845)
(41.1204 0.0492678 1.82174)
(41.193 0.0538392 2.3252)
(41.2694 0.0588007 2.90263)
(41.3438 0.0634246 3.55555)
(41.3803 0.0671541 4.2684)
(41.2964 0.0718405 5.0076)
(41.0135 0.0716003 5.6694)
(40.1975 0.074514 6.17399)
(39.2299 0.191939 6.29336)
(35.4148 -0.0426694 6.36928)
(36.1613 -0.255473 5.84451)
(26.0758 -0.42298 -3.55503)
(14.2832 0.0636561 0.843772)
(13.2611 0.073462 1.92042)
(11.3082 0.105032 -3.41544)
(13.6299 -0.120313 -10.6295)
(17.5253 -0.917942 -15.0358)
(18.73 -1.99167 -15.1543)
(15.1586 -2.36707 -13.0998)
(15.9757 -3.548 -11.6013)
(17.4218 -4.93579 -7.22139)
(20.3937 -4.89163 1.78886)
(17.6423 -4.37475 9.69706)
(11.3491 -0.624877 19.4392)
(-4.86511 2.52645 20.2553)
(-23.879 1.94364 19.2519)
(-29.6947 2.23039 21.5786)
(-20.9188 2.10219 19.8795)
(-11.0645 4.55617 -4.25794)
(-13.1861 0.255595 -13.4378)
(-3.81454 4.53084 -18.0171)
(-2.93859 2.7814 -22.7651)
(2.10462 2.21838 -30.9502)
(1.62556 0.977652 -38.2279)
(6.42485 2.3193 -47.6761)
(24.2538 0.0415836 -26.964)
(29.1224 -2.31252 -13.634)
(32.2957 -0.787011 -17.7089)
(45.3627 3.38655 -20.4661)
(51.8322 0.509903 -38.304)
(-41.6707 -27.7362 62.3547)
(-92.6187 -32.8044 99.2603)
(-87.3133 -23.0444 71.5762)
(-29.1422 -19.7514 63.9468)
(96.2355 -18.4113 116.798)
(145.689 -32.1274 125.202)
(109.188 -13.9559 105.595)
(-227.429 20.6789 -4.68249)
(39.9499 -0.00112129 0.164326)
(40.2294 0.0331992 0.139177)
(40.5239 0.0387956 0.360233)
(40.7595 0.0398141 0.66089)
(40.9209 0.0423189 1.00264)
(41.033 0.04558 1.38591)
(41.1168 0.0495267 1.82351)
(41.1913 0.0541477 2.32715)
(41.2687 0.0591632 2.90466)
(41.3427 0.063842 3.55765)
(41.3793 0.0676255 4.26923)
(41.2934 0.0723995 5.00645)
(41.0041 0.0717672 5.66171)
(40.2338 0.0771759 6.15338)
(38.8532 0.207745 6.53853)
(36.411 -0.0236656 6.53944)
(34.3415 -0.758841 2.4042)
(20.8517 -0.569287 -2.41681)
(13.2743 0.189983 0.691196)
(12.3306 0.138094 0.404845)
(11.2332 0.175358 -5.50409)
(14.4352 -0.0818771 -12.5217)
(19.4915 -0.717303 -15.2358)
(18.7571 0.200693 -13.1016)
(15.054 -0.979905 -12.4222)
(18.713 -0.203703 2.76337)
(20.0515 -3.04906 13.9145)
(13.2964 -3.98125 18.7249)
(4.98034 -1.62847 22.4055)
(-3.51967 3.03246 21.3155)
(-10.5429 6.36076 18.6824)
(-18.4342 7.20929 22.3266)
(-12.6066 9.08011 29.8555)
(0.00274623 14.1478 42.2165)
(1.92327 20.3906 43.2431)
(10.9608 16.1231 37.4183)
(-2.64164 2.90406 59.1464)
(5.36148 2.89757 19.8246)
(12.4829 0.226422 -0.330317)
(7.47159 -5.17449 5.96014)
(18.2496 2.0593 -28.436)
(26.0493 2.13879 -28.8877)
(27.5429 0.776169 -14.8208)
(23.4975 3.29734 -19.2578)
(29.3197 8.1963 -22.9474)
(23.3289 8.2325 -12.9478)
(-17.6352 -1.90641 36.1191)
(-74.427 -3.48215 30.4607)
(-9.82779 21.3156 -76.6261)
(-8.11257 4.97136 10.7291)
(122.945 -6.29756 87.044)
(52.7116 -34.6915 76.8161)
(-175.152 20.5033 45.5743)
(-201.037 13.6328 -3.92308)
(39.9553 -0.000953812 0.217585)
(40.2238 0.0318178 0.17014)
(40.5406 0.0382361 0.476168)
(40.7689 0.0396514 0.884081)
(40.8881 0.0422241 1.32451)
(40.9092 0.045518 1.78703)
(40.8388 0.0495541 2.28074)
(40.6865 0.0543389 2.81579)
(40.4687 0.0596488 3.40263)
(40.2002 0.0646759 4.05321)
(39.8899 0.0685924 4.77877)
(39.5179 0.0729672 5.58503)
(39.0647 0.072124 6.4657)
(38.3312 0.0659665 7.39913)
(37.6628 0.183999 8.41308)
(34.3917 -0.19201 9.79613)
(36.583 -0.349768 11.0563)
(27.5428 0.469221 10.9117)
(12.1109 0.273604 7.71851)
(10.6975 0.169997 3.01895)
(8.9664 -0.0101687 -5.07783)
(10.9905 -0.446544 -13.3582)
(10.6643 -1.08208 -15.5546)
(1.92739 -1.59163 -11.7032)
(-8.45654 -1.61958 -9.36428)
(-12.5244 -1.8252 -10.6581)
(-17.3063 -3.43943 3.03163)
(-22.3285 -3.45595 16.2955)
(-27.2163 -2.19316 23.2908)
(-33.9685 -0.0240215 29.5749)
(-39.9982 1.17399 29.9134)
(-44.1922 1.1991 24.9148)
(-43.3153 1.29699 17.4659)
(-35.84 -0.5261 11.1339)
(-26.4396 0.0904911 -0.0849055)
(-10.9308 -3.0642 -13.4446)
(-0.736586 -2.50528 -10.6736)
(0.673955 -3.62585 -21.3903)
(-0.0387024 -1.3506 -34.9347)
(-0.122387 -2.41843 -40.7708)
(-2.86667 -0.384854 -55.1979)
(6.17303 -6.45533 -33.946)
(20.6383 -13.1599 -0.920582)
(28.69 -5.40129 -13.6496)
(37.8573 -4.93608 -8.38466)
(-19.0423 -17.6542 44.4428)
(-87.0408 -27.9045 111.783)
(-90.6865 -20.1048 86.9605)
(-39.6414 7.93328 -51.5009)
(-24.8367 1.61367 -93.6382)
(-15.7968 -2.74538 -67.1614)
(25.7565 -12.1927 -19.6903)
(174.009 -5.04345 39.5315)
(237.576 3.89449 38.7924)
(39.9515 -0.000951735 0.217634)
(40.2259 0.0318063 0.169502)
(40.5303 0.0382764 0.475488)
(40.7579 0.0397548 0.8835)
(40.8794 0.0423847 1.32415)
(40.9028 0.0457304 1.78694)
(40.8341 0.0498176 2.28088)
(40.6834 0.0546563 2.81614)
(40.4664 0.0600256 3.40319)
(40.1973 0.0651215 4.05402)
(39.8873 0.0691105 4.77931)
(39.5126 0.07358 5.58306)
(39.0504 0.0727147 6.46351)
(38.3954 0.0694774 7.37422)
(37.2131 0.150891 8.48748)
(35.6229 -0.0537259 9.62854)
(34.6119 -0.755235 10.3601)
(19.4298 -0.516693 9.98281)
(12.1314 0.476719 6.54029)
(11.2116 0.313573 0.718834)
(11.2445 0.0597103 -8.07929)
(14.9461 -0.595244 -16.2253)
(7.90283 -0.999477 -14.2062)
(-1.81276 -1.65337 -8.5963)
(-14.0358 -1.29635 -7.23416)
(-21.4074 -0.973235 -4.61488)
(-24.6611 -1.40183 6.96999)
(-28.3451 -1.31518 16.9225)
(-31.1842 -0.380664 24.3786)
(-34.776 1.36246 29.3855)
(-37.8013 2.31542 28.5504)
(-39.862 2.57772 23.5464)
(-32.4933 4.3056 18.8914)
(-10.0916 9.36111 25.713)
(9.6787 4.92578 31.4998)
(20.678 7.77134 33.1452)
(11.6194 3.97058 28.9691)
(6.28595 4.4213 0.936919)
(9.54753 -2.69439 -8.17681)
(8.76627 -4.15001 -14.6389)
(10.6017 1.58863 -39.1584)
(22.2397 -1.89219 -32.6937)
(24.3259 -7.17181 -11.9539)
(20.1956 -9.39383 -14.7933)
(22.3632 6.04709 -15.379)
(2.01347 8.05618 30.522)
(-55.0422 2.29106 80.5548)
(-54.1998 8.9298 -11.4977)
(-17.0067 18.7285 -63.1461)
(-45.5283 9.50795 -64.7479)
(23.105 5.01593 -32.7698)
(-29.5542 -7.74077 -37.0348)
(88.2597 0.404356 9.18292)
(167.862 14.8171 15.7389)
(39.9561 -0.000949137 0.274878)
(40.2265 0.0319825 0.188456)
(40.5474 0.0371021 0.557252)
(40.7928 0.0378611 1.05797)
(40.942 0.0402284 1.59927)
(41.0003 0.0434599 2.16508)
(40.9652 0.0474427 2.76324)
(40.8325 0.0521811 3.40074)
(40.5989 0.0574177 4.08361)
(40.2572 0.0624351 4.81932)
(39.7979 0.0663835 5.62102)
(39.1985 0.0690625 6.51073)
(38.4686 0.0704597 7.5301)
(37.5673 0.0552377 8.7503)
(36.749 0.152136 10.3375)
(34.6681 -0.115243 12.4594)
(34.9818 -0.34156 15.7187)
(32.9409 -0.0492694 19.8837)
(23.0296 0.807936 14.424)
(21.3975 0.424065 6.94151)
(21.1216 0.132957 -2.88351)
(22.752 -0.390932 -11.7667)
(17.0431 -1.11492 -11.5236)
(-5.41029 -1.25898 3.39657)
(-16.5581 -1.17083 0.203807)
(-26.0899 -0.833906 -3.28879)
(-29.8526 0.240155 5.4615)
(-32.2407 -0.454039 11.9015)
(-31.1915 -0.321474 22.3299)
(-30.1458 0.125139 29.6392)
(-27.5136 0.306492 27.6068)
(-25.0356 0.155883 21.5047)
(-22.8826 -0.0610257 14.9537)
(-20.5641 -0.361605 8.53103)
(-17.3132 0.743274 -3.95225)
(-16.9986 0.399082 -21.8919)
(-16.6687 -6.18145 -13.3152)
(-10.4538 -4.65286 -18.4299)
(-7.99542 -4.16999 -23.5137)
(-1.56849 -4.66874 -37.4945)
(-6.23002 -2.10339 -47.4872)
(-6.8951 -9.12474 -25.7475)
(4.38838 -15.4161 9.99025)
(13.1733 -17.0384 15.0145)
(-6.30556 -19.5556 38.6484)
(-54.4013 -25.5466 86.5107)
(-82.214 -20.1465 114.656)
(-53.8477 -7.4493 47.571)
(11.9885 -6.06566 -58.4179)
(-5.90498 -4.48459 -31.4092)
(-41.7377 1.15879 -53.867)
(-119.649 1.221 -54.6494)
(-129.966 3.40915 0.64721)
(-61.304 2.02117 -36.1028)
(39.9524 -0.000947156 0.275018)
(40.2273 0.0319699 0.186649)
(40.5356 0.0371435 0.555589)
(40.7816 0.0379599 1.05665)
(40.9337 0.0403773 1.59822)
(40.9944 0.0436547 2.16423)
(40.9611 0.0476841 2.76245)
(40.8298 0.0524728 3.39997)
(40.5968 0.057766 4.08271)
(40.2543 0.0628471 4.81837)
(39.7932 0.0668682 5.61968)
(39.193 0.0696256 6.50682)
(38.4477 0.0710655 7.52734)
(37.6174 0.059067 8.73213)
(36.3987 0.110274 10.3721)
(35.2796 0.0729434 12.5432)
(34.1222 -0.660916 16.6394)
(27.6147 -0.389545 18.8665)
(21.6501 1.29086 11.2178)
(22.7104 0.614505 3.31523)
(25.1655 -0.494043 -7.26543)
(26.1866 -1.10503 -13.493)
(10.8339 -0.462261 -7.81041)
(-2.29402 -1.67781 -0.816273)
(-18.3563 -0.928123 1.22452)
(-28.5942 -0.406171 2.24931)
(-33.0908 0.354941 6.82722)
(-31.9228 0.128992 13.19)
(-30.7344 -0.0172392 20.2473)
(-28.4447 0.255092 25.4685)
(-25.9651 0.397904 25.1333)
(-23.7771 0.313772 19.8435)
(-22.6998 0.319728 13.9469)
(-19.827 -0.0430047 7.68655)
(-18.5181 -1.46853 -1.27443)
(-18.6738 -3.44568 4.47649)
(-17.079 -2.45323 8.85177)
(-12.152 1.36854 -1.0104)
(-0.0895281 -0.969702 -16.3956)
(8.40393 -1.00758 -34.7013)
(2.91665 -2.70593 -46.1245)
(9.05518 -3.23964 -39.9451)
(29.5644 -14.8978 -22.5665)
(17.3648 -13.7305 -36.8809)
(13.9421 7.61645 -4.7122)
(-13.8223 9.30847 55.0686)
(-46.2906 6.21945 73.8173)
(25.1611 11.1101 -62.6442)
(-2.04459 -0.962729 -44.8125)
(-8.41323 -0.548513 -26.1103)
(-19.4346 1.01795 -39.9114)
(-99.3705 2.73309 -46.9403)
(-121.104 0.982528 -6.68357)
(-51.4243 -1.69241 -33.0576)
(39.9586 -0.000672901 0.327657)
(40.2177 0.0292658 0.188968)
(40.5415 0.0354854 0.607837)
(40.8018 0.0368911 1.18748)
(40.9766 0.0393287 1.81401)
(41.0719 0.0424594 2.46734)
(41.087 0.0462773 3.15813)
(41.0181 0.0508667 3.89686)
(40.8587 0.0559119 4.69233)
(40.595 0.0609461 5.55394)
(40.2044 0.0649035 6.49606)
(39.6523 0.0673556 7.54125)
(38.9381 0.0698743 8.73905)
(38.0632 0.0593348 10.1606)
(37.2189 0.12195 11.9872)
(36.0003 0.0386158 14.3678)
(35.176 -0.240134 18.0379)
(36.0259 -0.155642 23.2495)
(32.0645 0.38598 22.9932)
(22.1952 0.469076 11.9512)
(5.31711 -0.88546 -1.20719)
(24.3436 -0.79182 -8.81426)
(-16.2497 0.943229 12.6911)
(6.90811 -2.16796 8.2978)
(-12.8144 -0.408684 9.83594)
(-20.7506 -0.685838 3.81068)
(-21.5884 0.57241 5.91372)
(-21.9354 0.841742 17.4933)
(-19.8946 0.188572 20.2781)
(-17.2565 0.296242 24.1402)
(-12.9921 0.353966 21.9102)
(-9.53522 0.0688124 16.9921)
(-8.12545 -0.128932 12.6956)
(-8.23043 -0.390349 8.59223)
(-5.81097 -0.842918 -0.488832)
(-22.094 -9.48575 -6.63308)
(-12.1911 -4.84469 -15.0278)
(-13.3595 -2.20966 -21.3514)
(-14.68 0.100299 -31.1815)
(-11.4954 -3.24062 -34.5948)
(-11.0721 -9.01398 -39.2227)
(-15.8771 -13.7239 -10.56)
(-15.0506 -15.5588 14.881)
(-25.4991 -19.8305 46.5412)
(-37.9356 -23.4131 80.4458)
(-59.4668 -25.1319 102.578)
(-56.6844 -14.1909 86.6743)
(-14.4778 5.30696 -1.45186)
(5.57594 -14.6215 -45.7966)
(-11.0131 -12.0489 -20.7416)
(67.296 -1.28873 50.516)
(-31.5804 1.14377 30.6957)
(-79.4523 0.0850519 29.9648)
(-15.2785 -2.01404 -4.92201)
(39.955 -0.000671138 0.327749)
(40.2205 0.0292568 0.187544)
(40.5328 0.0355192 0.606271)
(40.792 0.0369804 1.186)
(40.9687 0.0394752 1.81272)
(41.0661 0.0426491 2.46627)
(41.083 0.0465005 3.15716)
(41.0156 0.0511355 3.8959)
(40.857 0.056235 4.69126)
(40.5926 0.0613285 5.55279)
(40.2 0.0653556 6.49454)
(39.6476 0.0678749 7.53891)
(38.9228 0.0704329 8.73505)
(38.0917 0.062583 10.1609)
(37.081 0.0900454 11.9927)
(36.1514 0.148388 14.4487)
(35.512 -0.318478 18.829)
(34.1921 -0.43457 23.362)
(30.3921 0.655801 21.1432)
(18.2212 0.732855 9.20217)
(3.14568 -3.84078 -9.03429)
(-11.3579 -6.44962 -7.73281)
(-14.3923 3.98046 19.8288)
(1.73988 -0.531717 6.13959)
(-15.256 -0.134595 11.4634)
(-21.6026 -0.492562 7.39408)
(-21.6228 0.726965 12.3233)
(-21.8658 0.577992 13.7647)
(-19.9826 0.265138 18.7309)
(-16.6006 0.387554 22.3761)
(-12.753 0.449778 20.8404)
(-9.61503 0.168317 16.6601)
(-9.3417 0.0853985 12.1778)
(-9.78706 -1.06145 12.9051)
(-28.5133 -2.13547 11.9073)
(-28.9354 -0.398307 -6.06457)
(-29.7015 0.956505 0.982124)
(-23.5348 5.29008 -8.08132)
(-2.9852 5.85615 -36.852)
(0.727487 5.27745 -41.9481)
(3.0045 5.29633 -51.1639)
(3.71208 5.54928 -47.5777)
(15.4485 6.83627 -35.1146)
(8.94997 3.02033 -23.8524)
(-6.01123 10.0002 8.51982)
(-18.687 11.3869 58.0593)
(-40.3213 5.1606 42.37)
(26.434 9.93594 -41.2229)
(-32.7388 -3.13278 -66.0239)
(-35.5926 4.21443 -30.8655)
(39.9596 3.90459 42.6673)
(-32.3555 4.76862 27.1796)
(-70.5098 1.34416 37.8713)
(-33.2014 -2.94998 1.81837)
(39.9603 -0.000686054 0.375842)
(40.2174 0.029775 0.17887)
(40.5374 0.034326 0.635824)
(40.8058 0.0348653 1.28259)
(41.0018 0.0370424 1.98259)
(41.1301 0.0401015 2.71049)
(41.1907 0.0438733 3.47849)
(41.1825 0.0483743 4.30033)
(41.1027 0.0533066 5.18871)
(40.9419 0.0581597 6.15814)
(40.6811 0.0618401 7.22696)
(40.2927 0.0643232 8.41955)
(39.7617 0.0647964 9.77867)
(39.1159 0.0634813 11.3456)
(38.4476 0.0904863 13.2408)
(37.7487 0.10101 15.5264)
(37.021 -0.0747832 18.54)
(38.0032 -0.0975713 23.0753)
(38.4463 0.189864 27.0091)
(35.3952 0.317554 25.4165)
(25.1284 0.850712 17.6257)
(2.09567 -1.89624 10.5956)
(2.99482 -3.17078 12.7077)
(14.4398 -2.93859 10.9507)
(-0.924653 -0.0104931 18.1696)
(-9.34332 -0.934466 11.3399)
(-10.0686 -0.234893 7.38476)
(-8.26222 1.92505 14.8679)
(-8.27077 0.472423 19.5759)
(-7.37387 0.00599992 21.0772)
(-6.59826 0.140595 17.4378)
(-6.005 0.03209 14.3309)
(-5.38639 -0.185377 12.8727)
(-4.78981 -0.18516 10.7)
(-16.8274 -6.81044 14.2378)
(-18.7109 -10.7589 -4.29878)
(-9.79368 -5.05572 -5.24321)
(-8.25148 -3.34481 -16.3084)
(-13.8378 1.63555 -37.0995)
(-17.811 -0.246587 -40.1663)
(-23.0671 -6.91637 -24.5972)
(-16.7887 -9.38159 -6.57256)
(-21.5498 -12.61 20.5656)
(-32.5016 -16.93 54.9148)
(-46.1902 -20.3768 94.2316)
(-50.977 -20.398 104.262)
(-30.272 -12.4758 58.5005)
(14.928 -14.5609 -44.3806)
(5.18885 -15.092 -40.916)
(-5.63933 -7.00727 -41.8492)
(24.2037 -3.43529 -22.2101)
(57.5839 -3.62301 0.584454)
(104.074 4.38805 -9.11761)
(104.068 5.23842 10.8299)
(39.9569 -0.000684125 0.376015)
(40.2185 0.0297632 0.176516)
(40.5263 0.0343606 0.633422)
(40.7952 0.0349486 1.28054)
(40.9941 0.037175 1.98085)
(41.1246 0.040271 2.70897)
(41.187 0.0440703 3.47704)
(41.1802 0.04861 4.29876)
(41.1011 0.0535888 5.18699)
(40.9394 0.0584991 6.15596)
(40.6769 0.0622263 7.22423)
(40.2859 0.0647692 8.41585)
(39.7537 0.0653179 9.77183)
(39.122 0.0658966 11.3445)
(38.416 0.0723251 13.2264)
(37.7285 0.13737 15.5239)
(37.4285 0.000326301 18.8828)
(37.9202 -0.306804 23.6959)
(37.5682 0.0807701 27.0525)
(35.3821 0.58811 25.1345)
(20.124 0.337368 15.6308)
(8.66201 -4.58217 -2.11913)
(-27.896 -3.91248 16.2095)
(-5.72416 -0.367029 15.3774)
(-0.594225 0.775344 13.5977)
(-10.1485 -0.89474 10.9021)
(-9.75894 -0.23644 12.5641)
(-9.61164 0.714218 14.8542)
(-8.20833 0.565747 17.9173)
(-6.48497 0.11966 19.5861)
(-5.81669 0.270595 17.8297)
(-5.55914 0.207851 14.421)
(-5.50625 -0.166314 12.5547)
(-14.4934 -3.39257 20.9747)
(-26.6727 -3.99671 21.0129)
(-34.7426 0.071681 -6.7847)
(-37.8859 3.20148 -1.1385)
(-25.5486 7.36375 -16.2375)
(-8.94869 6.90748 -41.181)
(-5.97287 6.8275 -48.2145)
(-3.8094 10.0599 -53.3624)
(-1.83516 10.5418 -51.5388)
(3.04853 9.32632 -33.5799)
(-6.41385 7.05385 2.52748)
(-11.5619 13.1056 23.4531)
(-14.9218 11.1994 68.5131)
(-12.1173 1.18122 32.6885)
(31.8919 -0.208796 -3.97331)
(-40.1743 0.072645 -37.8619)
(-64.9959 8.25109 -43.8309)
(-42.4794 7.61699 -37.9881)
(-22.4586 8.37906 -15.5267)
(36.6623 15.1594 1.92253)
(84.7871 11.5944 16.356)
(39.9642 -0.000322519 0.418604)
(40.203 0.0259313 0.15634)
(40.5197 0.0318322 0.639968)
(40.7987 0.0332631 1.34182)
(41.0166 0.0355843 2.10332)
(41.1778 0.0385024 2.89339)
(41.284 0.042035 3.72475)
(41.3357 0.0462291 4.61296)
(41.3336 0.0509284 5.57251)
(41.2733 0.0554367 6.61989)
(41.1433 0.0590031 7.77509)
(40.9259 0.0610478 9.06263)
(40.6068 0.0607789 10.5145)
(40.2199 0.0620891 12.1612)
(39.7967 0.0722365 14.0417)
(39.4439 0.100423 16.2072)
(39.0996 0.03272 18.7291)
(39.6218 -0.0225644 22.1727)
(41.3588 0.051147 26.4103)
(42.8044 0.230539 29.2933)
(40.8794 0.526143 29.7084)
(33.1587 0.141812 23.3672)
(25.4507 -1.4692 12.9709)
(13.127 -1.29053 17.2415)
(14.4678 -2.78253 22.0657)
(6.58919 -1.46178 18.2234)
(6.45584 -0.101548 11.8204)
(-1.21418 2.15407 9.69451)
(-8.35858 0.493711 20.9099)
(-7.81231 -0.647492 23.8312)
(-3.35771 0.0167128 18.9142)
(-4.38327 -0.358336 15.1011)
(-2.85389 -0.33276 11.1781)
(-12.3028 -1.29382 23.0436)
(-19.0708 -9.31046 19.3761)
(-18.4718 -7.18069 -2.94663)
(-5.81685 0.95867 -14.5401)
(-0.753566 1.10879 -22.2564)
(-6.90123 0.188187 -34.6962)
(-11.8612 1.92489 -41.8964)
(-24.6121 -1.31756 -27.6305)
(-19.0561 -8.955 -10.6119)
(-23.0172 -12.9597 26.9379)
(-32.0406 -16.5985 67.2513)
(-39.1289 -19.6677 94.4197)
(-35.8801 -19.507 93.6351)
(-7.81677 -16.4992 37.8205)
(6.65067 -30.0121 -8.79552)
(-4.71931 -14.3207 -11.8398)
(-22.737 -0.0877383 -19.9746)
(-50.9728 4.39267 -34.9808)
(-92.7312 4.7183 -37.261)
(-60.4398 18.2801 -42.0528)
(-8.20168 5.59617 -21.8715)
(39.9608 -0.000320878 0.41872)
(40.2066 0.0259245 0.154267)
(40.5128 0.031858 0.637759)
(40.7899 0.0333358 1.33972)
(41.0093 0.0357027 2.10149)
(41.1724 0.0386617 2.89185)
(41.2802 0.0422315 3.72338)
(41.3334 0.0464736 4.61163)
(41.332 0.05121 5.57117)
(41.2711 0.0557482 6.61828)
(41.1391 0.0593517 7.77318)
(40.9186 0.0614472 9.05958)
(40.6005 0.0612343 10.5103)
(40.2166 0.0637173 12.1545)
(39.798 0.0639276 14.0331)
(39.4322 0.1016 16.1753)
(39.2654 0.109795 18.7896)
(39.9498 -0.0694345 22.649)
(41.5612 -0.153745 26.9692)
(42.9418 0.193513 29.7069)
(40.7155 0.570246 28.5076)
(34.206 -0.828318 21.323)
(15.4146 1.37295 18.9744)
(11.4973 -1.44922 9.45855)
(9.30357 1.67698 20.6813)
(8.01795 -1.93428 13.9311)
(-0.933913 -2.95228 13.9196)
(1.41308 0.509503 16.0532)
(-6.1435 1.15858 19.0755)
(-3.46726 -0.452593 20.6607)
(-10.0931 -1.2577 20.9748)
(-9.53188 -0.78272 17.3375)
(-13.7144 0.617538 19.9184)
(-18.0846 2.25122 15.7084)
(-18.3888 1.24917 -1.93621)
(-41.332 1.57624 -9.95533)
(-49.8332 7.97671 -14.4846)
(2.65341 9.63567 -41.6626)
(-2.11858 2.71464 -44.5161)
(-7.19716 5.92958 -46.6901)
(-6.12293 11.1609 -49.6158)
(-4.42824 12.7297 -46.1732)
(-3.66814 13.696 -44.9514)
(-1.70483 14.7379 -42.9036)
(20.2825 12.8899 -19.238)
(14.313 7.82415 26.8581)
(34.999 1.8806 -2.32714)
(14.7286 -2.37994 -23.7059)
(-66.2125 1.87904 -12.9723)
(-82.925 11.1271 -20.7225)
(-95.3878 10.8112 -34.9903)
(-130.937 6.00363 -29.6043)
(-82.8146 8.97449 -29.518)
(40.9711 2.3677 -5.05548)
(39.9669 -0.000364357 0.455882)
(40.2005 0.026841 0.126402)
(40.5063 0.0308058 0.624249)
(40.7862 0.0312139 1.36752)
(41.0209 0.0332625 2.17717)
(41.2125 0.0361685 3.01595)
(41.3632 0.0397349 3.89639)
(41.4747 0.0439763 4.83489)
(41.5495 0.0486772 5.8462)
(41.5866 0.0532082 6.94591)
(41.5787 0.0567643 8.15296)
(41.5139 0.0585564 9.48798)
(41.3842 0.0585965 10.975)
(41.2139 0.0582535 12.6378)
(41.0414 0.0656383 14.4781)
(40.946 0.0801914 16.5485)
(40.9659 0.0620661 18.8088)
(41.3702 0.0372183 21.4783)
(42.7351 0.0392814 24.8277)
(45.2116 0.117754 28.3301)
(46.6537 0.20591 31.4031)
(46.0171 0.647826 30.9457)
(40.4216 0.658326 23.028)
(29.16 0.150317 23.5536)
(27.6882 -1.8918 25.2628)
(24.2651 -1.24564 22.7078)
(17.6791 -1.09333 17.2927)
(14.2938 1.49855 19.7943)
(3.24876 2.28226 25.7642)
(-2.43798 0.0269753 24.3837)
(-7.35146 -0.610902 20.6042)
(-9.35613 -2.43296 17.7211)
(-6.43688 -2.92768 19.0817)
(-7.78414 -4.58503 22.8926)
(-6.93114 -8.56005 21.0249)
(10.2249 -6.26568 0.830835)
(10.0784 -2.54826 -21.4192)
(8.1374 0.785175 -25.4178)
(1.35043 0.904894 -31.0828)
(-6.40014 2.98966 -38.4284)
(-25.3779 3.1468 -23.5843)
(-37.3987 -7.19247 9.59023)
(-27.2357 -12.5972 40.2455)
(-29.1963 -16.5572 78.1177)
(-32.3109 -21.3489 99.6434)
(-21.5421 -19.7038 85.4407)
(3.45313 -17.5037 36.1799)
(-14.347 -21.1412 14.6594)
(-5.05063 -8.76791 9.52985)
(-20.9091 -0.311159 12.7693)
(-50.5736 0.582911 9.30017)
(-87.6612 0.612635 -13.6805)
(-120.768 6.08371 -54.2971)
(-65.0549 1.34749 10.0676)
(39.9637 -0.000362316 0.456063)
(40.2019 0.0268302 0.123601)
(40.4961 0.0308323 0.621138)
(40.7764 0.0312808 1.36474)
(41.0136 0.033367 2.17476)
(41.2073 0.0363081 3.01384)
(41.3596 0.0399098 3.8944)
(41.4725 0.0442002 4.83291)
(41.5479 0.04894 5.84402)
(41.5844 0.0534922 6.9435)
(41.5743 0.0570853 8.14977)
(41.5066 0.0589466 9.4836)
(41.3757 0.0589908 10.9695)
(41.2099 0.0592631 12.6273)
(41.0406 0.0627418 14.4698)
(40.9491 0.0725458 16.5158)
(40.9989 0.100292 18.7711)
(41.5292 0.0718909 21.6444)
(43.2061 -0.0677931 25.3305)
(45.6628 -0.0453357 28.8753)
(47.2297 0.0949136 30.875)
(45.1117 0.702735 31.0384)
(43.6334 2.61996 27.2582)
(37.1151 0.974057 18.0259)
(25.7822 -4.76836 18.8058)
(19.8973 -3.7102 20.3861)
(10.151 -2.2744 18.515)
(0.234159 -0.238779 22.3958)
(3.07566 3.20039 24.5165)
(0.211726 0.27324 24.2295)
(-5.03776 -0.87154 23.4842)
(-12.2743 -2.00272 21.2285)
(-16.3587 0.0244795 25.4358)
(-11.0632 4.13322 23.0855)
(-11.7317 2.59262 20.0516)
(-19.8342 0.266104 19.0781)
(-33.5898 7.1206 -6.93965)
(-3.72833 6.49685 -29.7237)
(0.710227 2.94223 -32.7907)
(-1.60723 5.46424 -39.9112)
(1.48867 10.1503 -43.1799)
(2.59497 10.536 -36.9637)
(8.81513 12.6973 -26.7335)
(7.58631 15.7811 -9.92302)
(18.6144 21.1609 -12.8631)
(26.7077 9.01034 10.5164)
(18.8971 -3.82745 -7.23276)
(-56.0096 1.69365 10.9234)
(-70.0653 7.33172 19.9703)
(-85.2569 7.67887 14.4613)
(-99.6058 7.58916 8.29857)
(-105.083 8.41984 -17.4213)
(-120.969 11.1702 -56.2582)
(-70.166 -1.20109 6.03904)
(39.9718 6.47929e-05 0.486775)
(40.1813 0.0219959 0.0877608)
(40.476 0.0274221 0.588598)
(40.7594 0.0289133 1.36029)
(41.0097 0.0311587 2.20461)
(41.2293 0.0339098 3.07791)
(41.4217 0.0371562 3.99211)
(41.5899 0.0410349 4.9639)
(41.7379 0.045275 6.00729)
(41.8667 0.0494408 7.13627)
(41.9708 0.0524373 8.36665)
(42.0403 0.0537659 9.71482)
(42.0692 0.0532083 11.1983)
(42.0746 0.0516395 12.8329)
(42.1027 0.0566451 14.6184)
(42.2021 0.0628432 16.5717)
(42.487 0.0634162 18.6808)
(43.0318 0.0581729 20.9507)
(44.0742 0.0812538 23.5179)
(46.2004 0.112951 26.5612)
(48.7969 0.110347 29.9096)
(50.848 0.250302 32.3421)
(50.4479 0.942679 29.6402)
(43.5334 1.67991 29.0223)
(35.1267 0.545339 31.8865)
(32.8447 -0.519311 29.9377)
(29.2204 -2.17808 25.9706)
(28.154 -0.601055 25.6077)
(22.5418 2.04852 27.8265)
(19.4041 1.8757 26.1378)
(14.6927 1.27084 23.2929)
(10.596 -0.343229 20.4144)
(9.04204 -2.07081 20.2447)
(15.484 -3.15318 17.346)
(24.8136 -4.51189 8.91467)
(36.1604 -4.60238 -7.47427)
(36.1774 -3.24445 -19.0542)
(30.0212 -0.777148 -24.9454)
(22.0502 0.309181 -28.1432)
(11.9213 2.56385 -30.9908)
(-5.76098 6.31328 -28.6612)
(-29.4589 7.57033 -13.7439)
(-24.4445 -2.20014 24.2761)
(-17.3369 -12.8975 67.2667)
(-14.4329 -16.8339 87.5926)
(-5.04888 -16.7025 77.8056)
(14.3505 -14.8926 48.7975)
(24.1199 -16.7665 27.0142)
(25.1171 -15.0313 16.7606)
(17.012 -9.26311 22.7905)
(5.35223 -12.5302 22.1743)
(8.59982 -30.1983 -16.5547)
(-34.6728 -9.26798 -36.753)
(-84.505 4.50927 51.8212)
(39.9688 6.63711e-05 0.486902)
(40.1855 0.0219914 0.0849996)
(40.4709 0.0274388 0.585656)
(40.7519 0.0289668 1.35747)
(41.0031 0.0312507 2.20206)
(41.2242 0.0340375 3.07571)
(41.418 0.0373183 3.9901)
(41.5874 0.0412333 4.96196)
(41.7361 0.045514 6.00525)
(41.8641 0.0497208 7.13406)
(41.9658 0.0527418 8.36371)
(42.0323 0.0541119 9.71083)
(42.059 0.053554 11.1926)
(42.0688 0.0522631 12.8242)
(42.0979 0.0560748 14.606)
(42.2149 0.0565331 16.5534)
(42.4993 0.0738159 18.6401)
(43.046 0.0990797 20.9487)
(44.3787 0.0733233 23.7703)
(46.7962 -0.00230259 27.0106)
(49.6026 -0.0986078 29.9069)
(50.527 0.0772074 32.0875)
(51.8442 1.67003 32.9349)
(50.9945 3.1856 28.6472)
(44.4788 -0.477397 25.2007)