/*--------------------------------*- C++ -*----------------------------------*\
| =========                 |                                                 |
| \\      /  F ield         | OpenFOAM: The Open Source CFD Toolbox           |
|  \\    /   O peration     | Version:  4.1                                   |
|   \\  /    A nd           | Web:      www.OpenFOAM.org                      |
|    \\/     M anipulation  |                                                 |
\*---------------------------------------------------------------------------*/
FoamFile
{
    version     2.0;
    format      ascii;
    class       volScalarField;
    location    "93";
    object      k;
}
// * * * * * * * * * * * * * * * * * * * * * * * * * * * * * * * * * * * * * //

dimensions      [0 2 -2 0 0 0 0];

internalField   nonuniform List<scalar> 
4432
(
0.295011
0.272155
0.207844
0.263623
0.318079
0.356186
0.383473
0.405072
0.463909
0.619059
0.65319
0.569968
0.440863
0.406067
0.523245
0.686949
0.506737
0.883164
1.07286
1.37115
1.59035
2.45468
1.26278
3.93718
5.37538
2.55143
6.71894
4.76173
4.1691
3.27357
5.51576
5.05835
4.95057
5.21788
5.17377
5.83775
5.06083
7.33888
2.70026
14.2709
10.2861
6.78266
6.506
3.43967
10.7155
13.4443
15.528
18.1193
20.2992
22.1141
23.1801
15.6508
5.22503
14.3246
0.277443
0.231119
0.161793
0.216779
0.271779
0.312268
0.326856
0.340699
0.364471
0.442552
0.467532
0.404297
0.333899
0.28149
0.410449
0.568546
0.431916
0.797043
0.555061
1.15226
1.34783
2.32937
1.20965
3.93288
5.32533
2.4921
6.77713
4.69337
4.6842
3.59096
5.25246
1.67944
11.1522
14.1551
10.7867
3.46074
14.3613
17.2828
20.051
14.4391
18.8448
21.4362
14.7463
5.07307
13.8581
16.3084
18.1281
20.4454
22.1262
23.6277
24.5061
16.3383
5.40118
14.594
0.00702782
0.000902671
0.000768674
0.000752216
0.000809512
0.000800181
0.000798472
0.000788941
0.000852307
0.000986193
0.00105882
0.00118765
0.0011753
0.00135464
0.00149038
0.00157661
0.00168406
0.00193867
0.00226653
0.00286028
0.0028566
0.00376268
0.00502837
0.00505672
0.00738132
0.00851145
0.00756094
0.00718637
0.00651186
0.0125813
0.00557881
0.0119372
0.0201791
0.0172284
0.0495359
0.111376
0.183978
0.224181
0.0534856
0.470571
0.299415
0.797189
0.417766
0.85627
1.21786
1.05981
0.366594
2.04069
2.38964
2.73432
1.69282
1.28392
0.584339
0.610285
0.00699021
0.000854358
0.000675113
0.000707938
0.000762784
0.000720757
0.000694624
0.00066713
0.000730882
0.000790279
0.000815205
0.000976727
0.000928956
0.00108795
0.00107682
0.00132326
0.00123677
0.00152764
0.00185148
0.0020029
0.000887553
0.00232372
0.00610439
0.00516297
0.000922852
0.00171884
0.00445061
0.00196248
0.000809507
0.0114349
0.00467934
0.0159713
0.00982854
0.0339214
0.917863
0.132845
0.329486
0.132486
1.11484
0.472363
1.79568
1.43872
0.662572
1.36655
1.76043
2.17885
2.47324
1.32205
2.59447
1.86788
1.14705
0.975196
0.421772
0.55054
0.00702892
0.000910847
0.000745612
0.000745055
0.000795773
0.000811054
0.000827474
0.000834376
0.000843733
0.000868266
0.000876576
0.000984063
0.00105792
0.00118411
0.00124115
0.00135077
0.00152601
0.00233193
0.00222729
0.00553246
0.00536619
0.00528213
0.00731002
0.00564838
0.00803869
0.0106822
0.00838121
0.00879455
0.00849366
0.00935264
0.0122551
0.0123591
0.0138746
0.0112017
0.012098
0.0142093
0.0177072
0.0219246
0.0160167
0.0414712
0.0220294
0.103459
0.112915
0.0570665
0.18037
0.194595
0.194634
0.164896
0.0655239
0.285484
0.28844
0.269203
0.233935
0.189202
0.00700296
0.000904816
0.000669967
0.000699174
0.00073853
0.00072729
0.000728314
0.000733426
0.000747326
0.000718103
0.000727123
0.000819051
0.000896047
0.000980222
0.000980265
0.00127705
0.00119553
0.00170635
0.00207827
0.00253353
0.00339139
0.00534745
0.00749115
0.00586585
0.00690876
0.00451682
0.00445034
0.0111254
0.0087362
0.0100095
0.012353
0.0123827
0.0134973
0.0108757
0.0116503
0.0128886
0.0202543
0.024102
0.0257652
0.064709
0.0470846
0.15866
0.174797
0.0847915
0.25196
0.299122
0.349457
0.160652
0.358052
0.356073
0.335338
0.203505
0.0776041
0.103627
0.00705705
0.000862992
0.000665815
0.000761721
0.000773619
0.000696539
0.000753144
0.000804386
0.00083438
0.000833332
0.000792595
0.00090437
0.000906936
0.00103403
0.000999412
0.00108764
0.00183109
0.00209468
0.00334157
0.00656157
0.00536502
0.00674896
0.00966083
0.00423404
0.00818773
0.0120306
0.00875235
0.00976998
0.0117392
0.00878236
0.00938288
0.0122957
0.0096617
0.00968898
0.0108916
0.0112471
0.0123878
0.0127743
0.0146554
0.0162496
0.0203817
0.021114
0.0317431
0.0270925
0.0304039
0.0410097
0.0585795
0.0468017
0.0234706
0.0542343
0.0572503
0.0553221
0.0524025
0.0440506
0.00701063
0.000941278
0.000650778
0.000718753
0.000709348
0.000631975
0.000702029
0.000753265
0.000738474
0.000704765
0.00066147
0.00077661
0.000800811
0.000864049
0.000877496
0.00113733
0.00119532
0.00173326
0.00275801
0.00412729
0.00653939
0.00785186
0.00963082
0.00289478
0.0129854
0.00246134
0.00171102
0.00732853
0.00587506
0.0089532
0.0112963
0.0122269
0.00972081
0.0100269
0.0105021
0.0105927
0.0118865
0.0122324
0.0154231
0.017971
0.0234106
0.0238392
0.0366826
0.0314014
0.0303364
0.0548487
0.0768696
0.0445967
0.0810491
0.0772409
0.0810016
0.0546808
0.0296485
0.0325274
0.00705545
0.000782745
0.000585928
0.000704974
0.000704631
0.000735887
0.00072449
0.000762323
0.000880285
0.000904431
0.000945126
0.000901213
0.00103099
0.000978176
0.00112507
0.00107655
0.00176048
0.00298641
0.0030608
0.0077115
0.00825108
0.0131829
0.0107348
0.00287867
0.00907392
0.0116609
0.00782988
0.00923976
0.0099119
0.00945858
0.0100283
0.00901477
0.00896253
0.00838919
0.0139489
0.0130024
0.0127453
0.0175652
0.0169732
0.0158056
0.0161125
0.0176881
0.0166959
0.0166119
0.021076
0.0254798
0.0320941
0.0271563
0.0210719
0.0205197
0.0210354
0.019579
0.0191979
0.0164596
0.00703891
0.000962427
0.000697406
0.000708864
0.000648945
0.000650602
0.000732382
0.000716251
0.000796601
0.000776155
0.000798371
0.000789878
0.000907013
0.00085247
0.000934356
0.00101312
0.0014345
0.0020134
0.00468477
0.00662346
0.00845361
0.0102486
0.00848104
0.000864676
0.0205804
0.00268749
0.00085814
0.00246616
0.00452618
0.00619702
0.00797772
0.0075478
0.00812738
0.00789102
0.0139551
0.0128816
0.0121631
0.0178204
0.0167664
0.0161506
0.0175502
0.0183232
0.0196914
0.0179595
0.0209208
0.0266586
0.0341684
0.0268344
0.0304394
0.0283072
0.0344471
0.0272673
0.0202693
0.0172305
0.00709502
0.000809807
0.000620811
0.000726415
0.000728163
0.000758334
0.000735001
0.000777907
0.000898824
0.000936273
0.00088138
0.000899855
0.00105197
0.000925817
0.000874424
0.000896323
0.0028293
0.00462291
0.00571304
0.00954822
0.010703
0.0168904
0.00362647
0.00287143
0.0119547
0.00421362
0.00642768
0.0111519
0.0101047
0.010321
0.0101954
0.00780008
0.00695467
0.0133581
0.0120018
0.0110131
0.00998104
0.0111967
0.0133716
0.0188559
0.0170499
0.0184294
0.015978
0.0133431
0.0146274
0.019857
0.0245289
0.0219932
0.0187516
0.0153558
0.0158918
0.0141598
0.0140397
0.0118254
0.00704287
0.000969094
0.000753169
0.000719062
0.000679485
0.000678708
0.000650976
0.000660881
0.000823611
0.00081025
0.000732089
0.000748682
0.000854985
0.000744505
0.000786683
0.000939608
0.00184193
0.00353142
0.00545808
0.00727415
0.011081
0.0150856
0.00518308
0.00276411
0.0119882
0.00135066
0.000633228
0.00116966
0.00157578
0.00619492
0.00909643
0.00684177
0.00623427
0.0125657
0.0112593
0.0135188
0.0107575
0.0118383
0.0132971
0.0174134
0.0166139
0.0178134
0.0161899
0.0141305
0.0155519
0.020045
0.02329
0.0263558
0.02394
0.0219639
0.0232091
0.02057
0.0177088
0.0126145
0.00708714
0.000825122
0.000631811
0.000763484
0.000735097
0.000719689
0.000726356
0.000766129
0.000819159
0.000914071
0.000968312
0.000948221
0.00102587
0.000997915
0.000760533
0.00100959
0.00260834
0.00712436
0.00468073
0.0112713
0.0113929
0.0251943
0.00487044
0.00424693
0.00522116
0.00143173
0.00774176
0.0101515
0.0135327
0.0125197
0.00847146
0.00906089
0.00734233
0.00777997
0.00736233
0.007091
0.00850539
0.011663
0.00951927
0.0110786
0.0112704
0.0130191
0.0150908
0.0114863
0.0134461
0.0183531
0.0193553
0.0193228
0.0148418
0.012773
0.0134268
0.0116214
0.0116032
0.00949383
0.00708621
0.000983138
0.000751818
0.000720467
0.000688309
0.000569078
0.000595692
0.00065123
0.000692746
0.000771746
0.000821244
0.000751038
0.00076563
0.000860052
0.000687024
0.000946898
0.00152412
0.0047179
0.00734867
0.00887454
0.0155692
0.0147814
0.00437837
0.00364938
0.00173787
1e-15
0.000645276
0.00094354
0.00182397
0.00677661
0.00786321
0.00732206
0.0069543
0.00796907
0.0106584
0.00832055
0.00942063
0.0129246
0.0103742
0.0117101
0.0118469
0.0132546
0.015236
0.0119164
0.0124459
0.0184622
0.0213018
0.0215478
0.0185818
0.0184575
0.0178534
0.016841
0.0156872
0.00979664
0.00714552
0.000895601
0.000714501
0.000675599
0.000666011
0.000733864
0.000766218
0.000767551
0.000882521
0.000783987
0.000934269
0.000942958
0.0010625
0.00103437
0.000924651
0.0013859
0.00228508
0.00423289
0.00477904
0.0162973
0.0131204
0.0279227
0.00641965
0.00673042
0.000996084
9.81479e-05
0.00117707
0.0109603
0.0163642
0.0138385
0.0101358
0.00975218
0.0100244
0.0103016
0.00876414
0.0143817
0.0119446
0.0106885
0.0151956
0.0161779
0.0151064
0.0144076
0.0170201
0.0145697
0.0136376
0.0166021
0.0183017
0.0184356
0.0127029
0.0123416
0.0128801
0.010287
0.00985337
0.00755065
0.00709065
0.000968184
0.000716733
0.000634309
0.000623217
0.000544001
0.00068507
0.000653566
0.000757694
0.000705821
0.000832554
0.000789702
0.000836307
0.000872689
0.000804182
0.00119555
0.00195253
0.00315996
0.00709452
0.0112094
0.0207368
0.0100303
0.00307437
0.00739149
0.000616491
1e-15
9.81101e-05
0.000913548
0.00144006
0.000913235
0.00577715
0.00712207
0.00709154
0.00668353
0.00889254
0.00800393
0.0077665
0.00822108
0.0123316
0.0187753
0.0157639
0.0140505
0.0162872
0.0148934
0.013278
0.0168181
0.0211256
0.0203387
0.0166904
0.0170698
0.015407
0.0142613
0.0127477
0.00682604
0.00713591
0.0010859
0.000699705
0.000624314
0.000672262
0.000710252
0.000724392
0.000695408
0.000924534
0.000900476
0.000954713
0.000934791
0.00101931
0.00101536
0.000997307
0.0013613
0.00263816
0.00403819
0.00506514
0.013509
0.0159711
0.0307956
0.00483909
0.0150949
0.00125942
0.000547871
0.00656953
0.0237703
0.0218123
0.017849
0.0123297
0.011611
0.0111533
0.00923519
0.00852175
0.00779324
0.0081549
0.00804726
0.00915197
0.0135609
0.0181725
0.0146478
0.0178286
0.0156129
0.0131894
0.0139822
0.0202707
0.0184068
0.0111436
0.0096349
0.0110126
0.00700458
0.0064851
0.004411
0.00714984
0.000966455
0.000632261
0.000602766
0.000609006
0.000727577
0.00066673
0.000664255
0.000839066
0.000775007
0.000786651
0.000774169
0.000816024
0.000708874
0.000873552
0.0022182
0.00322916
0.00240043
0.00585256
0.0101362
0.0245915
0.00180956
0.00231812
0.0112523
0.000938825
1e-15
0.000547587
0.0019813
0.0032682
0.0155219
0.018215
0.0193078
0.0162803
0.0141505
0.0124103
0.0104993
0.0134057
0.0115968
0.0105701
0.0163969
0.0163508
0.0144455
0.0161992
0.0154077
0.013236
0.0144024
0.0155403
0.0144443
0.0107582
0.0102771
0.00964857
0.00823046
0.00642817
0.00329103
0.00721864
0.00120358
0.000684292
0.000873204
0.000729927
0.000730188
0.0006625
0.000900331
0.000936538
0.000891705
0.000873158
0.000928533
0.000707907
0.000854855
0.000797024
0.00274545
0.00473153
0.00513072
0.00562845
0.010356
0.0142749
0.0261343
0.0061166
0.0560751
0.00468099
0.00221845
0.0265976
0.0326756
0.0251862
0.0269671
0.0164686
0.0137712
0.011044
0.0134109
0.00884237
0.00795718
0.00710661
0.00865784
0.00754861
0.0130503
0.0170955
0.0161053
0.0178545
0.0132092
0.0125513
0.0162051
0.0186289
0.0156668
0.00765408
0.00817365
0.00854304
0.00505711
0.00587564
0.00205582
0.00714889
0.00123256
0.000590647
0.000894449
0.000605608
0.000710994
0.000597199
0.000849849
0.000880408
0.000715364
0.000694156
0.000765734
0.00074548
0.000707621
0.000715721
0.00133398
0.0015145
0.0020809
0.00683964
0.00710387
0.0329036
0.00533128
0.00310497
0.0291727
0.00243525
1e-15
0.00221695
0.00288028
0.00187976
0.0202775
0.0235829
0.0228008
0.0175518
0.0155754
0.0135193
0.0132468
0.0146975
0.0139949
0.00997803
0.0124511
0.014596
0.0151009
0.0158064
0.0130611
0.013781
0.0180527
0.0179444
0.0153375
0.00798727
0.00720533
0.00885125
0.00466153
0.0029613
0.00217881
0.00722364
0.00106882
0.00102353
0.000991731
0.000892434
0.00116135
0.00080715
0.000991021
0.000984106
0.000803634
0.000787347
0.000951314
0.000878565
0.000884819
0.0014038
0.00111968
0.00256327
0.0043089
0.00621111
0.0111756
0.0139098
0.00419473
0.0130105
0.787238
0.0657708
0.00502187
0.060203
0.0413608
0.0324231
0.0348754
0.0197548
0.0148591
0.0149996
0.0209786
0.021838
0.0185754
0.0202541
0.0128908
0.0140277
0.0138508
0.0181993
0.016702
0.01421
0.0158515
0.0120057
0.0159906
0.0177697
0.0123781
0.0133849
0.0151713
0.0106652
0.00769557
0.00819996
0.00744597
0.00722107
0.00178322
0.000825821
0.00118576
0.000748656
0.000884228
0.00084828
0.000833552
0.000936096
0.000800505
0.000810887
0.000882474
0.000874349
0.000848715
0.000522207
0.00237788
0.00187183
0.00224683
0.0106508
0.00528603
0.0418323
0.00473879
0.010808
0.289806
0.0242122
1e-15
0.00501782
0.00344741
0.00478807
0.0231549
0.0276386
0.0267711
0.0186206
0.019077
0.0144808
0.00978771
0.00892911
0.00723627
0.0107667
0.0103214
0.0100337
0.0142598
0.0130829
0.015328
0.0126203
0.0124537
0.0221996
0.0115037
0.00961951
0.0135549
0.00999003
0.00613745
0.00722765
0.00613799
0.00733801
0.0014006
0.00155812
0.00118324
0.00112301
0.000860105
0.00105565
0.000936894
0.000918118
0.000984041
0.00100347
0.000852581
0.000917579
0.000876414
0.000852411
0.00116991
0.00212765
0.00387525
0.00836371
0.00304602
0.0140525
0.0100498
0.0884636
23.4797
1.96451
0.0049318
0.0591321
0.051015
0.0353523
0.0368191
0.0264501
0.0130856
0.0150835
0.0201231
0.0177706
0.0181089
0.0176655
0.0182157
0.0175195
0.0223929
0.0239849
0.021592
0.0231998
0.0215009
0.019655
0.0173845
0.0185993
0.0153209
0.0195432
0.0178746
0.0115633
0.00776255
0.00683691
0.00613982
0.00723436
0.00188235
0.00126453
0.000993188
0.000972684
0.00094856
0.00122151
0.00074385
0.000893292
0.000936672
0.000862725
0.000845073
0.000685465
0.00059811
0.000833028
0.00085745
0.000933111
0.00507113
0.00699473
0.00296909
0.0678646
0.0223735
0.190237
10.7329
0.898006
1e-15
0.00492795
0.00425184
0.00455585
0.0133164
0.0238029
0.0232576
0.0224775
0.0184914
0.0120308
0.00823333
0.00843793
0.011781
0.0136465
0.0173551
0.0217966
0.020071
0.0228797
0.0192587
0.0162037
0.0145098
0.0166114
0.0122124
0.0163885
0.0152271
0.0100711
0.00697381
0.00705736
0.00617281
0.00735815
0.00159206
0.00132294
0.00196497
0.00183065
0.00130142
0.00112409
0.00081541
0.000967955
0.000961774
0.00103592
0.000852882
0.000953745
0.000971275
0.0010131
0.000985204
0.0027003
0.00218326
0.00774614
0.00169165
0.0125732
0.0186884
1.48666
660.032
56.4492
0.00475116
0.0570169
0.0504449
0.0335911
0.0345809
0.0324985
0.0215884
0.0198142
0.0209993
0.0248604
0.0211982
0.023755
0.0210208
0.0208373
0.0196783
0.0174037
0.0175427
0.0133108
0.0129293
0.0121571
0.0132529
0.0147223
0.0135185
0.0126278
0.0119169
0.0079738
0.00713069
0.00577463
0.00772911
0.00723538
0.00194975
0.0011345
0.00108068
0.00104509
0.000847774
0.000937107
0.000879113
0.00120954
0.000983495
0.00118954
0.00120955
0.000696835
0.000648948
0.000788522
0.000945195
0.00139211
0.00286096
0.00429922
0.0106675
0.120856
0.61158
7.18852
468.057
40.2868
0.230866
0.0105251
0.0120749
0.00599866
0.0362256
0.032622
0.0327369
0.0249004
0.0174993
0.0134977
0.013908
0.0118494
0.0151165
0.0141036
0.0148099
0.0132172
0.0140633
0.0119274
0.0116161
0.0124391
0.0122166
0.0131885
0.0134342
0.01839
0.016297
0.0103845
0.00709086
0.00531774
0.00475823
0.00741343
0.0014853
0.00122797
0.00165821
0.00157229
0.00140612
0.00140761
0.000925199
0.00101412
0.00108822
0.000970932
0.00086749
0.000918712
0.000928383
0.000891235
0.00107678
0.00111148
0.00151053
0.0111903
0.0010429
0.00134423
0.0474177
1.02369
94.7609
252.714
1.71045
0.0500359
0.0439986
0.0310863
0.0341672
0.030028
0.0270451
0.0201155
0.0200775
0.0216867
0.022595
0.0252555
0.0199232
0.0163975
0.016016
0.0119178
0.0127348
0.0105058
0.00981548
0.00979115
0.0113053
0.0114104
0.0122705
0.0112013
0.00945325
0.0107021
0.0079345
0.00979655
0.00921975
0.00725578
0.0017954
0.00171134
0.00107997
0.00113909
0.000933148
0.00105332
0.000903165
0.000982065
0.000876279
0.000701963
0.000836698
0.000647339
0.000602426
0.000515061
0.00154482
0.00146428
0.00166123
0.00491425
0.0131118
0.139043
13.8151
164.8
309.364
335.277
2.76978
0.0691888
0.0883053
0.0328308
0.0364373
0.0341118
0.0315595
0.0214682
0.0139091
0.0117435
0.0150032
0.0130928
0.014948
0.0132304
0.0131781
0.0133558
0.0120979
0.0128031
0.0128001
0.0159488
0.0145164
0.0117444
0.0121631
0.0120625
0.0114697
0.011844
0.00691183
0.00712737
0.0107225
0.007336
0.00207227
0.00173844
0.00208415
0.00128589
0.00175823
0.00120591
0.000930647
0.00105227
0.000865174
0.00133416
0.00115953
0.000898799
0.000918393
0.000660149
0.00099438
0.0010477
0.00199288
0.00924322
0.00190612
0.0392553
0.220504
12.1629
1965.14
26.2069
0.161423
0.0616515
0.0521315
0.0304144
0.0329288
0.0313274
0.0298343
0.023251
0.0217104
0.0243141
0.0246429
0.0244545
0.0264813
0.0224068
0.0165201
0.0147596
0.0183213
0.0148752
0.0177881
0.018296
0.0202972
0.0157692
0.0167913
0.0170424
0.0127753
0.0108621
0.0124055
0.012628
0.00702109
0.00737824
0.00137818
0.00112467
0.00148997
0.00115508
0.00100719
0.000984795
0.000958751
0.00130123
0.000968433
0.00103937
0.000997866
0.000905676
0.000745359
0.00103849
0.00153634
0.00250967
0.00169803
0.00212885
0.013645
0.2503
0.748767
12.0475
3866.24
83.0439
1.15056
0.0850572
0.0429264
0.0450339
0.0311453
0.0289547
0.0283936
0.0197095
0.018978
0.0134136
0.0175917
0.0157547
0.0180752
0.0153335
0.0185595
0.018512
0.0166156
0.0136879
0.00968048
0.0108377
0.0130635
0.0124412
0.011768
0.0110793
0.0104865
0.0116902
0.0105233
0.0149524
0.0107097
0.00743229
0.00161858
0.00128815
0.00201637
0.00128678
0.00173136
0.00205768
0.00136116
0.00113854
0.00108863
0.00156027
0.00200218
0.00109642
0.000799612
0.000639188
0.00105725
0.000977305
0.00270861
0.00114694
0.00154495
0.123441
0.998011
139.262
23208
0.0958917
0.0530868
0.0237015
0.0272072
0.0388899
0.0364639
0.0330996
0.0210093
0.0217708
0.0254578
0.0250168
0.0232958
0.0206967
0.0173603
0.0170545
0.0175755
0.0213922
0.0203219
0.022006
0.0197019
0.0179221
0.0178754
0.0168596
0.0167508
0.0140138
0.0158447
0.0149402
0.0220789
0.0162656
0.00728117
0.00144966
0.00114149
0.00113007
0.00157013
0.0011184
0.00144265
0.00132289
0.001524
0.00134475
0.00148734
0.00143369
0.000998475
0.000781631
0.00102495
0.000943635
0.00108514
0.00144388
0.00179887
0.0185363
0.488224
5.99693
249.491
167109
5.31142
0.0778368
0.0326388
0.0242332
0.0184883
0.024556
0.0251095
0.0218821
0.0200951
0.0151803
0.0153609
0.0162759
0.0183125
0.0175663
0.0163211
0.015253
0.0135915
0.0142184
0.0124077
0.0127161
0.0141305
0.0154006
0.0134154
0.0115112
0.012526
0.01192
0.0139057
0.0214294
0.0153683
0.00729634
0.00135431
0.00195927
0.00190053
0.00188006
0.00222352
0.00201154
0.00223122
0.00121374
0.00158072
0.00191542
0.0026897
0.00213023
0.00108775
0.000981597
0.00122106
0.00129817
0.000804809
0.000442778
0.00296871
0.0299563
0.199558
6.69469
145.494
2.3123
0.0330827
0.028793
0.0169761
0.0176656
0.018836
0.0195033
0.0190649
0.0203782
0.0218158
0.0229002
0.0231008
0.0225752
0.0208506
0.018355
0.0190328
0.0228804
0.0218494
0.0183385
0.0179143
0.0181847
0.0209301
0.0223017
0.0239133
0.0255898
0.0198544
0.0180223
0.0164492
0.0264527
0.0255966
0.00741008
0.00200757
0.00170178
0.00109031
0.000976518
0.00120866
0.00143088
0.00177216
0.00127947
0.00157107
0.00196087
0.00218051
0.00102201
0.00108631
0.00105687
0.00117053
0.0011733
0.00227366
0.00450847
0.0356192
0.35948
1.35153
12.7395
121.321
15.6089
0.0237351
0.0202163
0.0291498
0.0157122
0.0149456
0.0177011
0.0151752
0.0146282
0.014671
0.0149056
0.0162152
0.0170903
0.0152841
0.0137325
0.0131272
0.0136687
0.015456
0.0137155
0.0132605
0.0151971
0.0152573
0.0168634
0.0147327
0.011572
0.0106678
0.0118108
0.017329
0.0286187
0.0266121
0.00729735
0.00142824
0.00147147
0.00151634
0.0016738
0.00176042
0.00180764
0.00169029
0.00141957
0.00172126
0.00233371
0.0032972
0.00186397
0.00137644
0.00153001
0.00151396
0.00301264
0.00262135
0.000954512
0.00128368
0.00832053
0.0405281
0.0411519
0.071536
0.0326051
0.0136716
0.0144979
0.0192537
0.0208095
0.0221835
0.0205414
0.0198526
0.0230918
0.0205026
0.0201603
0.0223574
0.0198337
0.0184596
0.0196352
0.0201904
0.0196705
0.0204655
0.0202859
0.0251499
0.0257228
0.0290505
0.0346203
0.0295305
0.0327436
0.0226694
0.0205667
0.0178807
0.0293033
0.0250596
0.0073655
0.00162851
0.00124877
0.00153982
0.00119281
0.00119907
0.00169121
0.00163021
0.00179361
0.0024164
0.00228237
0.00279745
0.00168581
0.0017775
0.00195254
0.00124857
0.0022137
0.00297962
0.00446269
0.0056142
0.0476714
0.194426
1.08146
0.300384
0.0384925
0.00936232
0.0110352
0.0116701
0.0130117
0.0171139
0.0164458
0.0188881
0.0189452
0.0176307
0.0201615
0.0201867
0.0202209
0.0195861
0.0143213
0.0164817
0.0148683
0.0163409
0.0128622
0.0152133
0.0158718
0.0160439
0.0168988
0.0130508
0.0121517
0.010716
0.0121755
0.0174419
0.029581
0.0248035
0.00728895
0.00194877
0.00202625
0.00211062
0.00142562
0.00283751
0.00272211
0.0024948
0.00211642
0.00173646
0.00219161
0.0036831
0.00402215
0.00254345
0.00243633
0.00351468
0.00381497
0.00247226
0.0043696
0.00978587
0.0116543
0.00723703
0.00647085
0.00688038
0.01096
0.011489
0.0159489
0.0169994
0.0195992
0.0207096
0.0201163
0.018829
0.0191782
0.0186056
0.0195134
0.0223565
0.020724
0.0214641
0.0249784
0.0256206
0.0251377
0.0249879
0.0229854
0.0290555
0.0426475
0.0838161
0.139513
0.0331557
0.0478213
0.0255229
0.0224443
0.017583
0.0296198
0.0240096
0.00736152
0.00138696
0.00164713
0.00113771
0.00124136
0.00146473
0.00266231
0.00170081
0.00157192
0.00156296
0.00222018
0.00249152
0.00327291
0.00339537
0.00209554
0.00230522
0.00252857
0.00306427
0.00313284
0.00119886
0.00542579
0.0173157
0.00158339
0.00237536
0.00822365
0.00707683
0.00934
0.00851983
0.0107875
0.0119817
0.0137573
0.0176918
0.019577
0.0180905
0.0229708
0.020108
0.0179596
0.017167
0.015901
0.0194541
0.018838
0.0154832
0.0145677
0.0175692
0.0241063
0.0328036
0.0354115
0.0185899
0.0191518
0.0136972
0.0161571
0.0172312
0.0283362
0.0230089
0.00739579
0.00139363
0.00138775
0.00137509
0.00156953
0.00125513
0.00214225
0.00233215
0.00330603
0.00247615
0.00318675
0.00332376
0.00512348
0.00488493
0.00390321
0.00375307
0.00537674
0.00505545
0.0042073
0.00484446
0.00613594
0.00751892
0.00978588
0.0112942
0.012318
0.0137958
0.0148481
0.0158241
0.0210894
0.0206679
0.0196785
0.0206142
0.021974
0.0212524
0.0204695
0.023483
0.0227604
0.0231998
0.0237962
0.0212613
0.0170578
0.0241683
0.0300346
0.0854071
0.17578
0.32528
0.633649
0.0590958
0.0598359
0.0339108
0.0254731
0.0180414
0.0299521
0.023716
0.00721373
0.00100592
0.00108164
0.0011094
0.00138869
0.00106907
0.00192995
0.0021456
0.00284027
0.00214658
0.00345787
0.00310638
0.00539781
0.00440763
0.00425394
0.00498348
0.00433292
0.00375668
0.00303736
0.00331483
0.00456266
0.00618317
0.0125526
0.0133999
0.00589946
0.00611959
0.00947983
0.00813812
0.0121602
0.0124597
0.0169581
0.0158391
0.0189303
0.0209574
0.0193677
0.0198408
0.0229458
0.0180005
0.0195656
0.020737
0.0204293
0.0162664
0.0221752
0.0288461
0.0449101
0.0788574
0.134065
0.0305542
0.0354928
0.0257448
0.0201676
0.0177367
0.0260576
0.0214485
0.00725126
0.00204396
0.0020843
0.00194723
0.00136964
0.00157187
0.00341652
0.00268772
0.00300097
0.00341461
0.00379321
0.00363488
0.00553791
0.005961
0.00624885
0.00554905
0.00485504
0.00454795
0.00522811
0.00482742
0.00585113
0.0065526
0.00767218
0.0103337
0.00914764
0.00935779
0.0125137
0.0141431
0.0157753
0.0166247
0.0185384
0.0196161
0.0213852
0.0220644
0.0226136
0.0223895
0.0205268
0.0179996
0.027153
0.0410172
0.094403
0.142809
0.373909
0.539006
0.715382
1.18924
2.50017
0.175941
0.110975
0.0546829
0.0314835
0.0219348
0.0305855
0.0242682
0.00713765
0.00130469
0.00160364
0.00148451
0.00130795
0.00135736
0.00309979
0.00243238
0.00259866
0.00269604
0.003104
0.00365999
0.00562927
0.00540752
0.00573532
0.00496057
0.00415448
0.00348089
0.00437968
0.00356091
0.00425597
0.00485844
0.00639329
0.0071785
0.00817912
0.00572597
0.00628604
0.00779192
0.0101243
0.0112901
0.0180951
0.0179185
0.0172586
0.0197573
0.0205625
0.0215784
0.0267702
0.018656
0.0203747
0.017342
0.0266174
0.0155151
0.0279827
0.0573281
0.0765547
0.142717
0.289471
0.0475471
0.053026
0.0347687
0.0273811
0.0210987
0.0256749
0.02151
0.00721662
0.0019837
0.00194662
0.00221018
0.00208589
0.00185524
0.00255422
0.00432729
0.00357752
0.00423646
0.00493475
0.00627356
0.00613688
0.006259
0.00565444
0.00628895
0.00478051
0.00690283
0.00513285
0.00727273
0.00583658
0.00648969
0.00924906
0.00783166
0.00810678
0.01173
0.0141361
0.0171445
0.0188712
0.0227258
0.0205423
0.0232512
0.0254003
0.0236787
0.0301984
0.0425867
0.0592565
0.0819843
0.142498
0.252963
0.350325
0.536244
0.763188
1.24839
1.84159
4.24262
9.64723
0.249752
0.203775
0.113095
0.0494043
0.0289804
0.0329322
0.0261539
0.00695799
0.00160827
0.00166616
0.00166307
0.00224376
0.00161585
0.00230119
0.00414314
0.00428371
0.00302494
0.00360435
0.00614082
0.0061354
0.00635814
0.00554951
0.00406922
0.00490325
0.00374481
0.00450922
0.00648827
0.00539655
0.00868039
0.00675665
0.00602984
0.00728212
0.00563103
0.00856374
0.00908407
0.0118696
0.0130929
0.0172887
0.0173706
0.0197608
0.01871
0.0199248
0.0228085
0.0319552
0.0304601
0.0317802
0.05254
0.0428691
0.0785436
0.0819285
0.156971
0.247609
0.21871
0.42925
0.0528044
0.0572145
0.0432149
0.0340901
0.0247646
0.0274438
0.0224872
0.00705191
0.00227171
0.00207157
0.00308869
0.00215108
0.00219376
0.00248054
0.00265196
0.00430092
0.00446808
0.00552194
0.00604254
0.00603714
0.00708641
0.0068214
0.0068959
0.00595719
0.00680602
0.00959639
0.00870478
0.00757748
0.0068483
0.00787678
0.00912238
0.00920429
0.0117303
0.0132466
0.019238
0.0194787
0.0185045
0.0179686
0.0222169
0.0236858
0.0271971
0.0325778
0.0357414
0.0436713
0.0702706
0.10626
0.119679
0.0614723
0.0451999
0.0739113
0.112146
0.168433
0.381905
0.891823
0.311149
0.145983
0.259863
0.097113
0.043638
0.0377896
0.0286154
0.00685736
0.00168215
0.00240993
0.00199763
0.00186986
0.00194874
0.00220394
0.00231763
0.00364259
0.00304143
0.00369808
0.00647697
0.00672924
0.00729587
0.00759281
0.00755022
0.00593787
0.00638407
0.00943986
0.00741362
0.00635965
0.00541668
0.00529648
0.00583157
0.00556846
0.00797831
0.00850435
0.00925633
0.0115263
0.0144709
0.0145075
0.0171989
0.022186
0.0228013
0.0214162
0.0224592
0.0309814
0.0312168
0.0365392
0.0468315
0.0399089
0.0658325
0.0574589
0.0314791
0.0232575
0.0289687
0.0624255
0.065607
0.085574
0.049728
0.0390075
0.02807
0.0283541
0.0229154
0.00703989
0.00241263
0.0020652
0.00249385
0.00361499
0.002515
0.00300566
0.00369498
0.00587201
0.00643411
0.00687184
0.00708656
0.00740932
0.00758902
0.00599122
0.00601449
0.00676661
0.00671047
0.00638297
0.00635984
0.00737597
0.00766307
0.0080208
0.00920844
0.00968117
0.0153997
0.015349
0.021544
0.0204812
0.0178855
0.0217555
0.0226201
0.0223032
0.0283982
0.0333665
0.0401436
0.0509655
0.0682792
0.0909086
0.0874901
0.0608554
0.0529657
0.0210839
0.0658649
0.179593
0.340244
0.743499
0.101822
0.131556
0.725642
0.213195
0.0672722
0.042094
0.0305248
0.00676575
0.00219642
0.00222273
0.00207755
0.00217212
0.0022797
0.0027296
0.00321746
0.00435107
0.00393016
0.00426413
0.00631727
0.00672484
0.00766907
0.00749586
0.00847127
0.00673138
0.00529727
0.00533392
0.00513576
0.00564807
0.00532685
0.00470886
0.00731244
0.00662211
0.0106295
0.0118519
0.010909
0.0110663
0.0172765
0.0161442
0.019978
0.0197652
0.0208322
0.0216039
0.0262192
0.0280893
0.0324803
0.0349234
0.0372486
0.0355624
0.0550483
0.0481653
0.036196
0.0308043
0.128915
0.254249
0.110876
0.126439
0.0660442
0.0455822
0.0340296
0.0301739
0.0244064
0.00700569
0.00351355
0.00322831
0.00303359
0.00285651
0.00420732
0.00326088
0.00430815
0.00625081
0.0071559
0.00756334
0.00811161
0.00910886
0.00990307
0.00974151
0.00987011
0.0129832
0.014319
0.0149813
0.0176168
0.0098233
0.00803842
0.0114358
0.0111111
0.00982806
0.010768
0.0161231
0.0162078
0.014043
0.0155298
0.0192133
0.0183861
0.0186602
0.0240811
0.0269326
0.0304058
0.0331849
0.0418542
0.0542478
0.0567075
0.0455749
0.0401169
0.0321298
0.0324035
0.0202757
0.00615649
0.183968
0.380202
0.207008
0.0303168
0.0300711
0.0171419
0.027157
0.0219932
0.00703007
0.00312874
0.00306926
0.00361681
0.00362191
0.00416133
0.00334382
0.00454105
0.00614994
0.00659292
0.00567214
0.00559006
0.00781856
0.00665716
0.00697148
0.00816629
0.00914002
0.0133466
0.0122853
0.0100349
0.0106687
0.00726796
0.0115522
0.010457
0.00870623
0.00685386
0.00906503
0.0111232
0.0166143
0.0137067
0.0146207
0.0175507
0.0169306
0.0196775
0.024541
0.0235378
0.022775
0.0252128
0.0285237
0.0342487
0.0330686
0.0368832
0.0382456
0.0357383
0.0249474
0.0197329
0.221523
0.20051
0.162694
0.0834878
0.0561906
0.0386889
0.0317607
0.0256938
0.00732674
0.00644958
0.00525465
0.0050608
0.004354
0.00427008
0.00592519
0.0050101
0.00560449
0.00826523
0.00747901
0.00786952
0.0110663
0.00951853
0.00910136
0.00998866
0.00912803
0.0116578
0.00863604
0.00849967
0.00847299
0.00806984
0.00913338
0.00869936
0.0115183
0.0107034
0.0118984
0.0149348
0.0143607
0.0157515
0.0193582
0.0177403
0.0205637
0.0196845
0.0229484
0.0223225
0.0263241
0.0285651
0.0319308
0.0337
0.0381589
0.0436155
0.0365359
0.036497
0.00273999
0.131457
0.543947
0.644552
0.355707
0.151616
0.0816188
0.0463436
0.0359656
0.0282538
0.0081505
0.00622545
0.0053483
0.00729251
0.00592355
0.00502526
0.00674417
0.00568447
0.00655387
0.00951394
0.00902867
0.00929149
0.010764
0.0100465
0.00910505
0.0103878
0.0102481
0.00889066
0.00872099
0.0110368
0.00779144
0.00720685
0.00811636
0.00804595
0.00732145
0.00629811
0.00963615
0.0115503
0.0131817
0.0137777
0.0142374
0.0192505
0.0199875
0.0171383
0.0219025
0.0226853
0.0234405
0.023747
0.0238691
0.0275424
0.0290708
0.0327001
0.0334312
0.036808
0.0266255
0.0940642
0.500071
0.407311
0.181847
0.122463
0.0763524
0.0505876
0.0363544
0.0301084
0.00767461
0.0161707
0.0124926
0.0110633
0.00952768
0.010283
0.0101329
0.0119597
0.0114279
0.012281
0.0115859
0.0125831
0.0133472
0.0140619
0.014367
0.0142086
0.0140358