/*--------------------------------*- C++ -*----------------------------------*\
| =========                 |                                                 |
| \\      /  F ield         | OpenFOAM: The Open Source CFD Toolbox           |
|  \\    /   O peration     | Version:  4.1                                   |
|   \\  /    A nd           | Web:      www.OpenFOAM.org                      |
|    \\/     M anipulation  |                                                 |
\*---------------------------------------------------------------------------*/
FoamFile
{
    version     2.0;
    format      ascii;
    class       surfaceScalarField;
    location    "93";
    object      phi;
}
// * * * * * * * * * * * * * * * * * * * * * * * * * * * * * * * * * * * * * //

dimensions      [0 3 -1 0 0 0 0];

internalField   nonuniform List<scalar> 
11516
(
-3.75739e+10
2.72784e+07
2.60645e+08
-3.78425e+10
1.80239e+07
2.5376e+08
-3.81185e+10
2.28803e+07
2.55717e+08
-3.83891e+10
1.86841e+07
2.5401e+08
-3.86648e+10
2.128e+07
2.55863e+08
-3.89442e+10
2.21786e+07
2.58071e+08
-3.92236e+10
2.24021e+07
2.57469e+08
-3.95008e+10
2.25765e+07
2.5472e+08
-3.97716e+10
2.2318e+07
2.48434e+08
-4.003e+10
2.16357e+07
2.36541e+08
-4.02689e+10
2.05839e+07
2.18174e+08
-4.04828e+10
1.9093e+07
1.94704e+08
-4.06611e+10
1.72844e+07
1.61585e+08
-4.0799e+10
1.49432e+07
1.22938e+08
-4.08891e+10
1.19694e+07
7.51652e+07
-4.09256e+10
8.39729e+06
1.98285e+07
-4.09037e+10
3.95325e+06
-3.91833e+07
-4.08158e+10
-1.5078e+06
-1.02994e+08
-4.06598e+10
-7.51034e+06
-1.67905e+08
-4.04352e+10
-1.38196e+07
-2.3539e+08
-4.01427e+10
-2.08615e+07
-3.03124e+08
-3.97864e+10
-2.84152e+07
-3.6489e+08
-3.93654e+10
-3.58494e+07
-4.23026e+08
-3.88901e+10
-4.30811e+07
-4.68405e+08
-3.8369e+10
-5.01196e+07
-5.04863e+08
-3.78211e+10
-5.70779e+07
-5.24213e+08
-3.72596e+10
-6.39559e+07
-5.32273e+08
-3.67035e+10
-7.05156e+07
-5.23017e+08
-3.61646e+10
-7.65865e+07
-5.02912e+08
-3.56562e+10
-8.19984e+07
-4.70341e+08
-3.51897e+10
-8.6652e+07
-4.26991e+08
-3.4772e+10
-9.05392e+07
-3.77539e+08
-3.44128e+10
-9.36692e+07
-3.19074e+08
-3.41174e+10
-9.62511e+07
-2.55601e+08
-3.3891e+10
-9.85561e+07
-1.86801e+08
-3.3739e+10
-1.01051e+08
-1.11981e+08
-3.36625e+10
-1.04595e+08
-3.42227e+07
-3.36645e+10
-1.11041e+08
5.0481e+07
-3.37414e+10
-1.22466e+08
1.38447e+08
-3.38914e+10
-1.3999e+08
2.33582e+08
-3.41125e+10
-1.63749e+08
3.37442e+08
-3.43996e+10
-1.95719e+08
4.51169e+08
-3.47467e+10
-2.39425e+08
5.789e+08
-3.51534e+10
-2.98305e+08
7.28344e+08
-3.5649e+10
-3.72106e+08
9.22278e+08
-3.63212e+10
-4.54082e+08
1.19554e+09
-3.73115e+10
-5.31688e+08
1.56358e+09
-3.87171e+10
-6.24743e+08
1.96359e+09
-4.04799e+10
-8.62289e+08
2.36761e+09
-4.23286e+10
-1.39805e+09
2.77893e+09
-4.50688e+10
-2.31486e+09
4.18877e+09
-5.03215e+10
-3.4326e+09
7.93445e+09
-6.02775e+10
-9.98213e+09
1.94133e+10
-2.15731e+09
1.07387e+10
-4.70537e+10
2.52636e+08
-4.72925e+10
2.58109e+08
-4.75215e+10
2.53024e+08
-4.77562e+10
2.54297e+08
-4.79877e+10
2.53281e+08
-4.8219e+10
2.53864e+08
-4.84489e+10
2.52407e+08
-4.86754e+10
2.49032e+08
-4.88958e+10
2.42687e+08
-4.91056e+10
2.31244e+08
-4.92991e+10
2.13861e+08
-4.94723e+10
1.92349e+08
-4.96164e+10
1.61486e+08
-4.9728e+10
1.25959e+08
-4.98008e+10
8.23843e+07
-4.9831e+10
3.30541e+07
-4.98168e+10
-1.81225e+07
-4.97534e+10
-7.48025e+07
-4.96399e+10
-1.32598e+08
-4.94755e+10
-1.93155e+08
-4.92613e+10
-2.53608e+08
-4.90028e+10
-3.07575e+08
-4.87008e+10
-3.58741e+08
-4.83667e+10
-3.96857e+08
-4.80077e+10
-4.27286e+08
-4.76414e+10
-4.4106e+08
-4.72778e+10
-4.45408e+08
-4.69338e+10
-4.33319e+08
-4.6618e+10
-4.12247e+08
-4.6341e+10
-3.7989e+08
-4.61117e+10
-3.37853e+08
-4.59337e+10
-2.91283e+08
-4.58143e+10
-2.36518e+08
-4.57563e+10
-1.78233e+08
-4.57631e+10
-1.16003e+08
-4.5839e+10
-4.91735e+07
-4.59854e+10
1.83553e+07
-4.62104e+10
9.19771e+07
-4.65207e+10
1.68302e+08
-4.69269e+10
2.50888e+08
-4.744e+10
3.40687e+08
-4.80719e+10
4.38054e+08
-4.88399e+10
5.44853e+08
-4.97725e+10
6.68455e+08
-5.09223e+10
8.28255e+08
-5.23702e+10
1.05222e+09
-5.42163e+10
1.35165e+09
-5.65318e+10
1.67545e+09
-5.95195e+10
1.99817e+09
-6.37597e+10
2.5629e+09
-7.13535e+10
4.95515e+09
-8.49162e+10
9.76404e+09
-1.15004e+11
1.99236e+10
9.3651e+09
-6.72725e+10
9.60302e+07
2.22895e+08
-6.73433e+10
9.79987e+07
2.27497e+08
-6.74099e+10
9.67915e+07
2.26368e+08
-6.74798e+10
9.59803e+07
2.28682e+08
-6.75476e+10
9.46832e+07
2.29588e+08
-6.76144e+10
9.35602e+07
2.31779e+08
-6.76801e+10
9.22634e+07
2.31148e+08
-6.77443e+10
9.0804e+07
2.28196e+08
-6.78026e+10
8.904e+07
2.17766e+08
-6.78562e+10
8.70395e+07
2.02974e+08
-6.79031e+10
8.47886e+07
1.80073e+08
-6.79401e+10
8.2299e+07
1.4897e+08
-6.79658e+10
7.97405e+07
1.07742e+08
-6.79778e+10
7.69103e+07
5.74063e+07
-6.79767e+10
7.44391e+07
-2.15414e+06
-6.79712e+10
7.27828e+07
-6.44047e+07
-6.79594e+10
7.1607e+07
-1.31567e+08
-6.79389e+10
6.88018e+07
-2.04202e+08
-6.79051e+10
6.44586e+07
-2.79289e+08
-6.78597e+10
5.98926e+07
-3.57023e+08
-6.78048e+10
5.58323e+07
-4.34148e+08
-6.77396e+10
5.20279e+07
-5.05439e+08
-6.76666e+10
4.86197e+07
-5.67976e+08
-6.75824e+10
4.58767e+07
-6.19146e+08
-6.74953e+10
4.37457e+07
-6.52433e+08
-6.7403e+10
4.20617e+07
-6.72166e+08
-6.73138e+10
4.07876e+07
-6.74117e+08
-6.72251e+10
4.00034e+07
-6.62737e+08
-6.71407e+10
3.9816e+07
-6.37722e+08
-6.70558e+10
4.03374e+07
-6.05685e+08
-6.69688e+10
4.16366e+07
-5.6503e+08
-6.68768e+10
4.37606e+07
-5.21853e+08
-6.67728e+10
4.67251e+07
-4.77083e+08
-6.66534e+10
5.05487e+07
-4.31164e+08
-6.65107e+10
5.53033e+07
-3.88149e+08
-6.63375e+10
6.10111e+07
-3.46582e+08
-6.6126e+10
6.75144e+07
-3.09938e+08
-6.58647e+10
7.50279e+07
-2.77355e+08
-6.55456e+10
8.37635e+07
-2.49662e+08
-6.51578e+10
9.32514e+07
-2.24055e+08
-6.46898e+10
1.03819e+08
-1.99769e+08
-6.41304e+10
1.15395e+08
-1.7375e+08
-6.34559e+10
1.26815e+08
-1.5296e+08
-6.26416e+10
1.38003e+08
-1.29603e+08
-6.1668e+10
1.51518e+08
-8.18992e+07
-6.05125e+10
1.7155e+08
1.24101e+07
-5.91137e+10
1.9292e+08
1.26177e+08
-5.74015e+10
1.87627e+08
2.0828e+08
-5.53693e+10
1.11447e+08
3.30412e+08
-5.36558e+10
-6.53458e+06
1.12016e+09
-5.18089e+10
-2.11126e+08
2.66042e+09
-4.63443e+10
-6.73733e+08
3.17897e+09
-1.50443e+10
-6.06502e+09
-5.77682e+09
-3.87318e+09
-6.22714e+09
-7.76674e+10
3.88014e+08
-7.77075e+10
3.96488e+08
-7.77418e+10
3.84501e+08
-7.77757e+10
3.84457e+08
-7.78078e+10
3.80276e+08
-7.78374e+10
3.77098e+08
-7.78646e+10
3.71802e+08
-7.78895e+10
3.64583e+08
-7.79079e+10
3.4981e+08
-7.79215e+10
3.31462e+08
-7.79289e+10
3.05484e+08
-7.7927e+10
2.72105e+08
-7.79156e+10
2.29069e+08
-7.78916e+10
1.778e+08
-7.78533e+10
1.16073e+08
-7.78003e+10
4.80328e+07
-7.77262e+10
-2.7503e+07
-7.7635e+10
-1.05682e+08
-7.75299e+10
-1.83212e+08
-7.74124e+10
-2.6302e+08
-7.7281e+10
-3.43625e+08
-7.7134e+10
-4.18904e+08
-7.69736e+10
-4.86735e+08
-7.67949e+10
-5.44101e+08
-7.66062e+10
-5.84336e+08
-7.64032e+10
-6.12242e+08
-7.61939e+10
-6.23002e+08
-7.59747e+10
-6.21118e+08
-7.57498e+10
-6.05704e+08
-7.55139e+10
-5.83468e+08
-7.52659e+10
-5.51869e+08
-7.50033e+10
-5.17195e+08
-7.47196e+10
-4.79927e+08
-7.44125e+10
-4.40027e+08
-7.40755e+10
-4.01606e+08
-7.37029e+10
-3.62791e+08
-7.32895e+10
-3.27059e+08
-7.28255e+10
-2.93263e+08
-7.23024e+10
-2.62958e+08
-7.17104e+10
-2.34172e+08
-7.10357e+10
-2.08786e+08
-7.02688e+10
-1.81676e+08
-6.93951e+10
-1.56651e+08
-6.83987e+10
-1.28131e+08
-6.72567e+10
-8.2955e+07
-6.59326e+10
-7.1014e+06
-6.43678e+10
7.81471e+07
-6.25585e+10
1.37882e+08
-6.05937e+10
2.03767e+08
-5.85316e+10
5.43291e+08
-5.43979e+10
6.44067e+08
-4.51327e+10
-1.44421e+08
-2.53967e+10
-5.69943e+09
-9.05857e+09
-5.59141e+10
1.10411e+07
1.24844e+08
-5.58463e+10
2.52904e+07
1.34484e+08
-5.57872e+10
2.00824e+07
1.47358e+08
-5.57408e+10
2.12756e+07
1.61081e+08
-5.57011e+10
1.91345e+07
1.70472e+08
-5.56665e+10
1.76037e+07
1.78973e+08
-5.56394e+10
1.57942e+07
1.87153e+08
-5.56161e+10
1.37111e+07
1.89631e+08
-5.56016e+10
1.10596e+07
1.90157e+08
-5.55921e+10
7.93897e+06
1.82944e+08
-5.55908e+10
4.15025e+06
1.71246e+08
-5.55972e+10
-337338
1.51535e+08
-5.56098e+10
-5.71741e+06
1.21237e+08
-5.56258e+10
-1.22841e+07
8.00725e+07
-5.56437e+10
-2.09726e+07
2.86924e+07
-5.56468e+10
-3.35016e+07
-4.04308e+07
-5.56226e+10
-4.81473e+07
-1.25787e+08
-5.55668e+10
-6.03473e+07
-2.21491e+08
-5.54722e+10
-6.93419e+07
-3.29935e+08
-5.53375e+10
-7.72358e+07
-4.43057e+08
-5.51658e+10
-8.49461e+07
-5.557e+08
-5.49552e+10
-9.07934e+07
-6.63505e+08
-5.47129e+10
-9.43372e+07
-7.55758e+08
-5.44455e+10
-9.44729e+07
-8.27965e+08
-5.41617e+10
-9.13969e+07
-8.7539e+08
-5.38776e+10
-8.52288e+07
-8.96883e+08
-5.36061e+10
-7.63071e+07
-8.92321e+08
-5.33592e+10
-6.48978e+07
-8.66445e+08
-5.31455e+10
-5.13607e+07
-8.21308e+08
-5.29748e+10
-3.60929e+07
-7.60999e+08
-5.28489e+10
-1.95854e+07
-6.91449e+08
-5.27757e+10
-2.3548e+06
-6.11814e+08
-5.27561e+10
1.52014e+07
-5.29319e+08
-5.27922e+10
3.27301e+07
-4.43051e+08
-5.28905e+10
4.97207e+07
-3.51584e+08
-5.30507e+10
6.56997e+07
-2.5964e+08
-5.32777e+10
8.03665e+07
-1.65063e+08
-5.35766e+10
9.35682e+07
-6.58448e+07
-5.39522e+10
1.04455e+08
3.76895e+07
-5.44021e+10
1.11727e+08
1.43699e+08
-5.49227e+10
1.13586e+08
2.54442e+08
-5.55001e+10
1.09435e+08
3.65058e+08
-5.6132e+10
1.0041e+08
4.80097e+08
-5.68023e+10
8.53633e+07
5.95418e+08
-5.74747e+10
6.27764e+07
7.09549e+08
-5.80908e+10
3.26568e+07
8.13767e+08
-5.86032e+10
-1.50455e+07
8.87066e+08
-5.89247e+10
-1.29177e+08
8.76762e+08
-5.87008e+10
-3.80773e+08
6.73934e+08
-5.68899e+10
-6.40788e+08
2.00398e+08
-5.30786e+10
-8.4133e+08
-7.6592e+07
-4.78596e+10
-1.34848e+09
-3.46688e+08
-4.83956e+10
-8.87278e+09
4.12119e+09
-7.75391e+09
7.51541e+09
-6.50533e+10
2.32967e+08
-6.48567e+10
2.24856e+08
-6.46841e+10
2.31529e+08
-6.45132e+10
2.34193e+08
-6.435e+10
2.35419e+08
-6.41913e+10
2.3472e+08
-6.40392e+10
2.3387e+08
-6.389e+10
2.27091e+08
-6.37502e+10
2.18607e+08
-6.36162e+10
2.02385e+08
-6.34923e+10
1.82041e+08
-6.3379e+10
1.53997e+08
-6.32764e+10
1.15765e+08
-6.31842e+10
6.745e+07
-6.31078e+10
1.06461e+07
-6.30446e+10
-5.97915e+07
-6.29932e+10
-1.41515e+08
-6.2945e+10
-2.31383e+08
-6.28846e+10
-3.32715e+08
-6.28106e+10
-4.37072e+08
-6.27267e+10
-5.3867e+08
-6.26305e+10
-6.35233e+08
-6.25254e+10
-7.15629e+08
-6.2415e+10
-7.76612e+08
-6.23018e+10
-8.13709e+08
-6.21955e+10
-8.26259e+08
-6.21016e+10
-8.14482e+08
-6.20251e+10
-7.83285e+08
-6.19683e+10
-7.34586e+08
-6.19363e+10
-6.7231e+08
-6.19262e+10
-6.02245e+08
-6.19429e+10
-5.2314e+08
-6.1985e+10
-4.42214e+08
-6.20524e+10
-3.58356e+08
-6.21512e+10
-2.69756e+08
-6.22814e+10
-1.81008e+08
-6.24489e+10
-8.97559e+07
-6.26606e+10
5.93829e+06
-6.29259e+10
1.06911e+08
-6.32527e+10
2.12664e+08
-6.3658e+10
3.29448e+08
-6.41491e+10
4.5264e+08
-6.47392e+10
5.86753e+08
-6.54359e+10
7.29509e+08
-6.6242e+10
8.85149e+08
-6.71547e+10
1.05524e+09
-6.81922e+10
1.21941e+09
-6.93988e+10
1.32278e+09
-7.08002e+10
1.32323e+09
-7.21267e+10
1.34091e+09
-7.41004e+10
1.94511e+09
-7.80508e+10
2.86582e+09
-1.00807e+11
8.50633e+09
9.28733e+09
-6.32921e+10
-1.20751e+08
2.4832e+08
-6.33264e+10
-1.12905e+08
2.80256e+08
-6.33578e+10
-1.12686e+08
2.89776e+08
-6.33961e+10
-1.11305e+08
3.08502e+08
-6.3442e+10
-1.10302e+08
3.23978e+08
-6.34952e+10
-1.09476e+08
3.38079e+08
-6.35508e+10
-1.0832e+08
3.46568e+08
-6.36112e+10
-1.07242e+08
3.51794e+08
-6.36735e+10
-1.06348e+08
3.52229e+08
-6.37363e+10
-1.05551e+08
3.43541e+08
-6.37954e+10
-1.04973e+08
3.26028e+08
-6.38457e+10
-1.04529e+08
2.95393e+08
-6.38836e+10
-1.04255e+08
2.50736e+08
-6.39059e+10
-1.04162e+08
1.92506e+08
-6.39038e+10
-1.04895e+08
1.14662e+08
-6.38785e+10
-1.06979e+08
1.9573e+07
-6.38312e+10
-1.10386e+08
-9.02828e+07
-6.37592e+10
-1.14873e+08
-2.11911e+08
-6.36638e+10
-1.1998e+08
-3.42679e+08
-6.35418e+10
-1.26699e+08
-4.8098e+08
-6.33921e+10
-1.35228e+08
-6.18329e+08
-6.32166e+10
-1.46114e+08
-7.47502e+08
-6.30148e+10
-1.58689e+08
-8.55969e+08
-6.2791e+10
-1.72531e+08
-9.34776e+08
-6.25494e+10
-1.8743e+08
-9.8142e+08
-6.2299e+10
-2.03104e+08
-9.92338e+08
-6.20457e+10
-2.19219e+08
-9.72742e+08
-6.1794e+10
-2.35178e+08
-9.29061e+08
-6.15461e+10
-2.5047e+08
-8.65464e+08
-6.12991e+10
-2.64671e+08
-7.91023e+08
-6.10529e+10
-2.77596e+08
-7.08585e+08
-6.08005e+10
-2.89233e+08
-6.24069e+08
-6.05396e+10
-2.99478e+08
-5.39703e+08
-6.0264e+10
-3.08398e+08
-4.58475e+08
-5.99646e+10
-3.16058e+08
-3.81541e+08
-5.96381e+10
-3.22519e+08
-3.07544e+08
-5.92739e+10
-3.27871e+08
-2.41066e+08
-5.88616e+10
-3.32364e+08
-1.7989e+08
-5.8391e+10
-3.36002e+08
-1.23011e+08
-5.7851e+10
-3.39384e+08
-7.28042e+07
-5.72275e+10
-3.4355e+08
-2.74382e+07
-5.65079e+10
-3.49608e+08
1.12462e+07
-5.56707e+10
-3.59142e+08
4.17515e+07
-5.46999e+10
-3.74318e+08
6.58003e+07
-5.35776e+10
-3.96514e+08
7.79643e+07
-5.22999e+10
-4.2969e+08
7.73152e+07
-5.08622e+10
-4.99609e+08
5.86044e+07
-4.92559e+10
-6.44449e+08
8.20295e+06
-4.74583e+10
-8.88994e+08
-1.46058e+08
-4.57944e+10
-1.04802e+09
-3.02758e+08
-4.36855e+10
-1.18866e+09
-7.85672e+08
-4.16936e+10
-8.25596e+08
-1.10527e+09
-2.30458e+10
-7.03915e+09
-7.18862e+09
-5.54533e+09
-3.79156e+09
-6.06746e+10
4.36247e+07
-6.06087e+10
4.46396e+07
-6.05474e+10
5.59978e+07
-6.04902e+10
6.38253e+07
-6.04391e+10
7.16203e+07
-6.03955e+10
7.85455e+07
-6.03547e+10
8.10786e+07
-6.03205e+10
8.12311e+07
-6.02912e+10
7.78055e+07
-6.02671e+10
6.6621e+07
-6.02456e+10
4.83109e+07
-6.02234e+10
1.86976e+07
-6.01985e+10
-2.29412e+07
-6.01699e+10
-7.62757e+07
-6.01299e+10
-1.47424e+08
-6.00784e+10
-2.34886e+08
-6.00135e+10
-3.37674e+08
-5.99294e+10
-4.55026e+08
-5.98261e+10
-5.8406e+08
-5.96993e+10
-7.22223e+08
-5.95492e+10
-8.60595e+08
-5.93774e+10
-9.93528e+08
-5.91857e+10
-1.10787e+09
-5.89807e+10
-1.19489e+09
-5.87697e+10
-1.25064e+09
-5.85643e+10
-1.2713e+09
-5.83722e+10
-1.26134e+09
-5.81995e+10
-1.22674e+09
-5.80497e+10
-1.17124e+09
-5.79206e+10
-1.10345e+09
-5.78124e+10
-1.02618e+09
-5.77184e+10
-9.45236e+08
-5.76364e+10
-8.6272e+08
-5.75607e+10
-7.81306e+08
-5.74827e+10
-7.01756e+08
-5.74004e+10
-6.22174e+08
-5.7305e+10
-5.46857e+08
-5.7189e+10
-4.72525e+08
-5.70466e+10
-3.96515e+08
-5.68701e+10
-3.21143e+08
-5.66489e+10
-2.43963e+08
-5.6374e+10
-1.6794e+08
-5.60321e+10
-9.44443e+07
-5.56162e+10
-2.26034e+07
-5.51125e+10
3.90151e+07
-5.45098e+10
8.40036e+07
-5.38382e+10
1.02915e+08
-5.31831e+10
6.1344e+07
-5.25668e+10
-1.46824e+08
-5.16246e+10
-5.81797e+08
-4.91542e+10
-1.50555e+09
-4.32809e+10
-3.61107e+09
-3.31946e+10
-8.52701e+09
-2.87129e+09
-5.92308e+10
4.9475e+08
-2.91494e+08
-5.9185e+10
5.06273e+08
-2.74389e+08
-5.91486e+10
5.18158e+08
-2.67676e+08
-5.91144e+10
5.28256e+08
-2.57569e+08
-5.90845e+10
5.38982e+08
-2.49432e+08
-5.90589e+10
5.49628e+08
-2.42676e+08
-5.90374e+10
5.60748e+08
-2.42228e+08
-5.90209e+10
5.7213e+08
-2.44551e+08
-5.90065e+10
5.8385e+08
-2.54781e+08
-5.89951e+10
5.95891e+08
-2.7391e+08
-5.8986e+10
6.08169e+08
-3.03059e+08
-5.89782e+10
6.20704e+08
-3.46879e+08
-5.89723e+10
6.33692e+08
-4.04477e+08
-5.8962e+10
6.47131e+08
-4.82235e+08
-5.89465e+10
6.60921e+08
-5.81253e+08
-5.89244e+10
6.74641e+08
-7.0156e+08
-5.88892e+10
6.88014e+08
-8.43503e+08
-5.88339e+10
7.00508e+08
-1.00529e+09
-5.8749e+10
7.1334e+08
-1.18263e+09
-5.86311e+10
7.26367e+08
-1.37387e+09
-5.84756e+10
7.39802e+08
-1.56729e+09
-5.82842e+10
7.51812e+08
-1.75337e+09
-5.8059e+10
7.63176e+08
-1.90966e+09
-5.78098e+10
7.73243e+08
-2.02347e+09
-5.75506e+10
7.82376e+08
-2.08622e+09
-5.72946e+10
7.8999e+08
-2.09901e+09
-5.70543e+10
7.96011e+08
-2.06865e+09
-5.68379e+10
8.00652e+08
-2.00694e+09
-5.6649e+10
8.04343e+08
-1.92206e+09
-5.64884e+10
8.07449e+08
-1.82579e+09
-5.63544e+10
8.10231e+08
-1.72322e+09
-5.62441e+10
8.12741e+08
-1.62103e+09
-5.61543e+10
8.15381e+08
-1.5221e+09
-5.60842e+10
8.18304e+08
-1.42733e+09
-5.60319e+10
8.21575e+08
-1.33833e+09
-5.59957e+10
8.24948e+08
-1.25376e+09
-5.59798e+10
8.28003e+08
-1.17142e+09
-5.59834e+10
8.30185e+08
-1.09343e+09
-5.60084e+10
8.30995e+08
-1.01545e+09
-5.60561e+10
8.29419e+08
-9.3911e+08
-5.61243e+10
8.23802e+08
-8.63313e+08
-5.62112e+10
8.12494e+08
-7.8728e+08
-5.63081e+10
7.93233e+08
-7.16591e+08
-5.64022e+10
7.62785e+08
-6.52392e+08
-5.64805e+10
7.1917e+08
-6.03576e+08
-5.65401e+10
6.59098e+08
-5.70081e+08
-5.65676e+10
5.61387e+08
-5.54468e+08
-5.64719e+10
3.67709e+08
-5.92932e+08
-5.60395e+10
3.44309e+07
-8.15194e+08
-5.49231e+10
-3.23058e+08
-1.37103e+09
-5.27214e+10
-7.3183e+08
-2.52899e+09
-4.6596e+10
-2.33738e+09
-5.1918e+09
-2.97741e+10
-1.06873e+10
-1.34957e+10
-5.79168e+09
-5.46489e+09
-5.85949e+10
5.45533e+08
-5.86235e+10
5.77252e+08
-5.86543e+10
6.02283e+08
-5.8693e+10
6.27433e+08
-5.87387e+10
6.52412e+08
-5.8793e+10
6.77757e+08
-5.88548e+10
6.98264e+08
-5.89249e+10
7.17431e+08
-5.90003e+10
7.30165e+08
-5.9081e+10
7.35382e+08
-5.91653e+10
7.31828e+08
-5.92506e+10
7.14478e+08
-5.93352e+10
6.84008e+08
-5.94106e+10
6.33651e+08
-5.94735e+10
5.61912e+08
-5.95201e+10
4.68543e+08
-5.9544e+10
3.5221e+08
-5.954e+10
2.15427e+08
-5.95013e+10
6.07505e+07
-5.94208e+10
-1.1042e+08
-5.92917e+10
-2.89167e+08
-5.91131e+10
-4.63689e+08
-5.88896e+10
-6.14313e+08
-5.86318e+10
-7.2573e+08
-5.83573e+10
-7.88085e+08
-5.80826e+10
-8.00684e+08
-5.78241e+10
-7.69006e+08
-5.75934e+10
-7.03746e+08
-5.73976e+10
-6.12174e+08
-5.72403e+10
-5.05886e+08
-5.71217e+10
-3.90362e+08
-5.70396e+10
-2.73596e+08
-5.69912e+10
-1.57961e+08
-5.6975e+10
-4.43814e+07
-5.69881e+10
6.48252e+07
-5.70266e+10
1.70534e+08
-5.70929e+10
2.74327e+08
-5.71838e+10
3.73377e+08
-5.72981e+10
4.71866e+08
-5.7435e+10
5.67307e+08
-5.75932e+10
6.60263e+08
-5.77752e+10
7.50523e+08
-5.79812e+10
8.31768e+08
-5.82149e+10
9.03604e+08
-5.84848e+10
9.54781e+08
-5.8811e+10
9.80344e+08
-5.9254e+10
9.81694e+08
-5.99315e+10
9.28368e+08
-6.09155e+10
6.18666e+08
-6.16975e+10
-4.36249e+08
-6.17438e+10
-2.59592e+09
-6.20856e+10
-6.05197e+09
-6.85133e+10
-1.3203e+10
-4.66384e+08
-5.80993e+10
5.54767e+08
-8.76266e+08
-5.80761e+10
5.57425e+08
-8.58999e+08
-5.8071e+10
5.66801e+08
-8.44466e+08
-5.80754e+10
5.69441e+08
-8.28398e+08
-5.80912e+10
5.72509e+08
-8.12923e+08
-5.81167e+10
5.74229e+08
-7.99131e+08
-5.81538e+10
5.75294e+08
-7.88997e+08
-5.82018e+10
5.75527e+08
-7.81696e+08
-5.82596e+10
5.74991e+08
-7.82318e+08
-5.83274e+10
5.73683e+08
-7.9128e+08
-5.8401e+10
5.71534e+08
-8.13955e+08
-5.84795e+10
5.68523e+08
-8.51575e+08
-5.85573e+10
5.64754e+08
-9.07901e+08
-5.86281e+10
5.60286e+08
-9.89349e+08
-5.86866e+10
5.55062e+08
-1.09739e+09
-5.87235e+10
5.49153e+08
-1.23568e+09
-5.87338e+10
5.42078e+08
-1.40344e+09
-5.87064e+10
5.34723e+08
-1.60038e+09
-5.86339e+10
5.26844e+08
-1.82179e+09
-5.85055e+10
5.19574e+08
-2.06559e+09
-5.8313e+10
5.12781e+08
-2.32492e+09
-5.80491e+10
5.08725e+08
-2.58445e+09
-5.77184e+10
5.07225e+08
-2.81263e+09
-5.73349e+10
5.09578e+08
-2.98463e+09
-5.69221e+10
5.16399e+08
-3.0844e+09
-5.65026e+10
5.27091e+08
-3.11561e+09
-5.60963e+10
5.40972e+08
-3.08815e+09
-5.57177e+10
5.57435e+08
-3.01931e+09
-5.53725e+10
5.75991e+08
-2.92534e+09
-5.50658e+10
5.96501e+08
-2.8179e+09
-5.47959e+10
6.18879e+08
-2.70841e+09
-5.45602e+10
6.41941e+08
-2.603e+09
-5.43561e+10
6.6534e+08
-2.50419e+09
-5.41785e+10
6.89524e+08
-2.41586e+09
-5.40251e+10
7.14913e+08
-2.33717e+09
-5.38923e+10
7.41669e+08
-2.26841e+09
-5.3778e+10
7.69729e+08
-2.20613e+09
-5.36811e+10
7.98813e+08
-2.15094e+09
-5.35972e+10
8.28144e+08
-2.10158e+09
-5.35262e+10
8.57423e+08
-2.05446e+09
-5.34646e+10
8.8585e+08
-2.01137e+09
-5.34078e+10
9.12054e+08
-1.97014e+09
-5.33514e+10
9.33659e+08
-1.93487e+09
-5.32885e+10
9.4811e+08
-1.90837e+09
-5.32286e+10
9.52724e+08
-1.88856e+09
-5.31917e+10
9.44515e+08
-1.87285e+09
-5.32232e+10
9.1486e+08
-1.84912e+09
-5.34081e+10
8.55937e+08
-1.82482e+09
-5.38648e+10
7.56349e+08
-1.90937e+09
-5.4409e+10
4.46815e+08
-2.37213e+09
-5.47754e+10
-3.30625e+08
-3.25124e+09
-5.47916e+10
-1.84693e+09
-4.69296e+09
-5.32476e+10
-6.25596e+09
-9.66803e+09
-2.28279e+09
-1.86189e+09
-6.09361e+10
1.16734e+09
-6.10313e+10
1.22702e+09
-6.11201e+10
1.25471e+09
-6.12186e+10
1.29165e+09
-6.13239e+10
1.32589e+09
-6.14355e+10
1.35878e+09
-6.15545e+10
1.38728e+09
-6.16796e+10
1.4123e+09
-6.18094e+10
1.42857e+09
-6.19432e+10
1.43586e+09
-6.20762e+10
1.42848e+09
-6.22078e+10
1.40555e+09
-6.2332e+10
1.36301e+09
-6.24434e+10
1.29448e+09
-6.25369e+10
1.19857e+09
-6.26051e+10
1.0717e+09
-6.26429e+10
9.15024e+08
-6.26424e+10
7.28858e+08
-6.25975e+10
5.18459e+08
-6.2504e+10
2.8713e+08
-6.23568e+10
4.36038e+07
-6.21545e+10
-1.94921e+08
-6.19045e+10
-3.98176e+08
-6.16227e+10
-5.4107e+08
-6.13283e+10
-6.10344e+08
-6.10381e+10
-6.09114e+08
-6.07664e+10
-5.46937e+08
-6.05219e+10
-4.40722e+08
-6.0306e+10
-3.05668e+08
-6.01208e+10
-1.52459e+08
-5.99617e+10
7.00947e+06
-5.98265e+10
1.65948e+08
-5.97148e+10
3.23384e+08
-5.96221e+10
4.74819e+08
-5.95481e+10
6.22586e+08
-5.94911e+10
7.66089e+08
-5.94519e+10
9.09328e+08
-5.94339e+10
1.05161e+09
-5.94391e+10
1.1952e+09
-5.94765e+10
1.34419e+09
-5.95536e+10
1.49716e+09
-5.96821e+10
1.65685e+09
-5.988e+10
1.82053e+09
-6.01687e+10
1.98642e+09
-6.05945e+10
2.16037e+09
-6.12358e+10
2.35713e+09
-6.22253e+10
2.61267e+09
-6.37377e+10
2.91175e+09
-6.60569e+10
3.15189e+09
-7.00352e+10
3.23875e+09
-7.75354e+10
3.64959e+09
-9.05308e+10
4.27847e+09
-1.13342e+11
2.74246e+09
-2.08837e+10
-5.81236e+10
1.09119e+08
-9.72696e+08
-5.81678e+10
1.03567e+08
-9.20078e+08
-5.82272e+10
1.03193e+08
-8.9007e+08
-5.83016e+10
9.68319e+07
-8.53022e+08
-5.83917e+10
9.09932e+07
-8.16162e+08
-5.84952e+10
8.34931e+07
-7.81749e+08
-5.86135e+10
7.5023e+07
-7.484e+08
-5.87456e+10
6.55224e+07
-7.17992e+08
-5.88917e+10
5.50076e+07
-6.94235e+08
-5.90473e+10
4.33818e+07
-6.82509e+08
-5.92153e+10
3.04752e+07
-6.80512e+08
-5.9391e+10
1.6221e+07
-6.97325e+08
-5.95697e+10
704954
-7.36002e+08
-5.97476e+10
-1.59444e+07
-8.01737e+08
-5.99174e+10
-3.3577e+07
-8.99929e+08
-6.00724e+10
-5.21022e+07
-1.0348e+09
-6.02038e+10
-7.14794e+07
-1.20929e+09
-6.03049e+10
-9.09318e+07
-1.41916e+09
-6.0368e+10
-1.10527e+08
-1.66434e+09
-6.03821e+10
-1.29215e+08
-1.94098e+09
-6.03337e+10
-1.47582e+08
-2.25104e+09
-6.02107e+10
-1.6378e+08
-2.57185e+09
-6.00152e+10
-1.78694e+08
-2.86497e+09
-5.97664e+10
-1.93795e+08
-3.07732e+09
-5.94923e+10
-2.11377e+08
-3.18782e+09
-5.92204e+10
-2.30425e+08
-3.1986e+09
-5.8967e+10
-2.50419e+08
-3.13388e+09
-5.87391e+10
-2.70403e+08
-3.02125e+09
-5.85392e+10
-2.89519e+08
-2.88316e+09
-5.83613e+10
-3.06839e+08
-2.74005e+09
-5.82026e+10
-3.21497e+08
-2.60107e+09
-5.80569e+10
-3.32818e+08
-2.47598e+09
-5.7919e+10
-3.42012e+08
-2.36515e+09
-5.77862e+10
-3.4923e+08
-2.26961e+09
-5.76567e+10
-3.54436e+08
-2.18792e+09
-5.75306e+10
-3.58609e+08
-2.11721e+09
-5.74074e+10
-3.62528e+08
-2.0541e+09
-5.72901e+10
-3.67023e+08
-1.9951e+09
-5.71846e+10
-3.7348e+08
-1.93448e+09
-5.70912e+10
-3.83525e+08
-1.87256e+09
-5.70202e+10
-3.99151e+08
-1.79859e+09
-5.69801e+10
-4.2285e+08
-1.70935e+09
-5.6984e+10
-4.5775e+08
-1.60095e+09
-5.70507e+10
-5.0846e+08
-1.46779e+09
-5.72103e+10
-5.80879e+08
-1.2963e+09
-5.75213e+10
-6.76253e+08
-1.06501e+09
-5.81106e+10
-7.87008e+08
-7.18387e+08
-5.91744e+10
-9.18359e+08
-2.15341e+08
-6.09803e+10
-1.12514e+09
4.61691e+08
-6.41711e+10
-1.5092e+09
1.5068e+09
-7.10851e+10
-1.86355e+09
4.50876e+09
-8.29038e+10
-2.5429e+09
8.75273e+09
-1.06142e+11
-2.18932e+09
1.53519e+10
-2.59622e+10
1.79451e+07
-5.94294e+10
1.30417e+09
-5.9459e+10
1.35994e+09
-5.94855e+10
1.3841e+09
-5.95172e+10
1.41981e+09
-5.95516e+10
1.45106e+09
-5.95877e+10
1.47824e+09
-5.9627e+10
1.50172e+09
-5.9669e+10
1.52008e+09
-5.97146e+10
1.52953e+09
-5.976e+10
1.5249e+09
-5.98097e+10
1.50864e+09
-5.98604e+10
1.47198e+09
-5.99095e+10
1.41217e+09
-5.99556e+10
1.32434e+09
-5.99942e+10
1.20366e+09
-6.00211e+10
1.04645e+09
-6.00296e+10
8.5114e+08
-6.00162e+10
6.21877e+08
-5.99738e+10
3.6077e+08
-5.98945e+10
7.09152e+07
-5.97622e+10
-2.46778e+08
-5.9557e+10
-5.78104e+08
-5.92631e+10
-8.8745e+08
-5.88979e+10
-1.11891e+09
-5.84954e+10
-1.24435e+09
-5.80933e+10
-1.26271e+09
-5.77163e+10
-1.19613e+09
-5.73782e+10
-1.07209e+09
-5.70844e+10
-9.13238e+08
-5.68307e+10
-7.39326e+08
-5.66145e+10
-5.58976e+08
-5.64276e+10
-3.84453e+08
-5.62606e+10
-2.18644e+08
-5.61036e+10
-6.67806e+07
-5.59475e+10
7.43405e+07
-5.57886e+10
2.08502e+08
-5.56225e+10
3.38129e+08
-5.54477e+10
4.64876e+08
-5.52653e+10
5.91878e+08
-5.50693e+10
7.15076e+08
-5.48625e+10
8.40141e+08
-5.46435e+10
9.63552e+08
-5.44137e+10
1.08201e+09
-5.41785e+10
1.19159e+09
-5.39499e+10
1.29504e+09
-5.37443e+10
1.40285e+09
-5.35774e+10
1.54573e+09
-5.34924e+10
1.72547e+09
-5.3776e+10
2.01336e+09
-5.50682e+10
2.5854e+09
-5.83786e+10
4.66909e+09
-6.35071e+10
6.62821e+09
-7.89e+10
1.59531e+10
8.41133e+09
-5.85746e+10
-1.2383e+08
-8.74903e+08
-5.85703e+10
-1.30628e+08
-7.89893e+08
-5.85789e+10
-1.24119e+08
-7.53053e+08
-5.86005e+10
-1.21889e+08
-7.04382e+08
-5.8635e+10
-1.18018e+08
-6.5746e+08
-5.86818e+10
-1.14387e+08
-6.13347e+08
-5.87422e+10
-1.10429e+08
-5.69136e+08
-5.88136e+10
-1.06157e+08
-5.31022e+08
-5.88977e+10
-1.01581e+08
-4.98092e+08
-5.89964e+10
-9.67619e+07
-4.75876e+08
-5.91061e+10
-9.18068e+07
-4.67287e+08
-5.92273e+10
-8.67292e+07
-4.77371e+08
-5.93569e+10
-8.14442e+07
-5.12167e+08
-5.94894e+10
-7.58396e+07
-5.79178e+08
-5.96185e+10
-6.97499e+07
-6.83915e+08
-5.97352e+10
-6.33582e+07
-8.35267e+08
-5.983e+10
-5.63201e+07
-1.03524e+09
-5.98933e+10
-4.93546e+07
-1.28472e+09
-5.99156e+10
-4.18141e+07
-1.57821e+09
-5.98904e+10
-3.50035e+07
-1.91353e+09
-5.97984e+10
-2.88453e+07
-2.29659e+09
-5.96179e+10
-2.77476e+07
-2.71143e+09
-5.93461e+10
-3.26415e+07
-3.09152e+09
-5.90228e+10
-4.26697e+07
-3.34816e+09
-5.87104e+10
-5.62433e+07
-3.43533e+09
-5.84565e+10
-7.34476e+07
-3.37081e+09
-5.82836e+10
-9.40491e+07
-3.20357e+09
-5.81939e+10
-1.1748e+08
-2.98266e+09
-5.81765e+10
-1.42911e+08
-2.7454e+09
-5.82155e+10
-1.69375e+08
-2.51807e+09
-5.82931e+10
-1.96202e+08
-2.3124e+09
-5.83958e+10
-2.23101e+08
-2.13422e+09
-5.85107e+10
-2.49582e+08
-1.98322e+09
-5.86275e+10
-2.75689e+08
-1.85779e+09
-5.87369e+10
-3.01634e+08
-1.75499e+09
-5.88337e+10
-3.26512e+08
-1.66892e+09
-5.89099e+10
-3.4996e+08
-1.59883e+09
-5.89612e+10
-3.71875e+08
-1.53799e+09
-5.89779e+10
-3.92006e+08
-1.48556e+09
-5.89549e+10
-4.10049e+08
-1.43791e+09
-5.88771e+10
-4.25252e+08
-1.39362e+09
-5.87299e+10
-4.36827e+08
-1.34971e+09
-5.84963e+10
-4.44063e+08
-1.304e+09
-5.81538e+10
-4.4669e+08
-1.25772e+09
-5.76802e+10
-4.43782e+08
-1.20048e+09
-5.70443e+10
-4.31949e+08
-1.13012e+09
-5.61498e+10
-4.11846e+08
-1.06338e+09
-5.48258e+10
-3.85102e+08
-1.0321e+09
-5.30203e+10
-2.93881e+08
-9.76616e+08
-5.09964e+10
-4.15028e+07
-4.43989e+08
-4.81549e+10
3.41843e+08
1.41462e+09
-4.52844e+10
9.88435e+08
5.16563e+09
-5.26084e+10
5.62902e+09
1.72664e+10
3.66731e+09
8.83029e+09
-5.87457e+10
1.24542e+09
-5.88578e+10
1.34419e+09
-5.89807e+10
1.38611e+09
-5.91218e+10
1.44298e+09
-5.92805e+10
1.49624e+09
-5.94577e+10
1.5464e+09
-5.96563e+10
1.59589e+09
-5.98746e+10
1.63893e+09
-6.01159e+10
1.67644e+09
-6.03828e+10
1.70277e+09
-6.06731e+10
1.71508e+09
-6.09877e+10
1.70819e+09
-6.13239e+10
1.67583e+09
-6.16754e+10
1.61018e+09
-6.20348e+10
1.50532e+09
-6.239e+10
1.35232e+09
-6.27284e+10
1.14875e+09
-6.30339e+10
8.93946e+08
-6.32928e+10
5.92312e+08
-6.34897e+10
2.45475e+08
-6.36023e+10
-1.52549e+08
-6.36039e+10
-5.95237e+08
-6.3494e+10
-1.02218e+09
-6.33082e+10
-1.34063e+09
-6.31058e+10
-1.49686e+09
-6.29356e+10
-1.50049e+09
-6.28249e+10
-1.39436e+09
-6.27823e+10
-1.22481e+09
-6.28012e+10
-1.02893e+09
-6.28691e+10
-8.31743e+08
-6.29719e+10
-6.42516e+08
-6.30982e+10
-4.70642e+08
-6.32331e+10
-3.21735e+08
-6.33678e+10
-1.94982e+08
-6.34933e+10
-8.71921e+07
-6.36008e+10
6.16032e+06
-6.3677e+10
8.39372e+07
-6.37125e+10
1.51447e+08
-6.36924e+10
2.06958e+08
-6.36064e+10
2.51568e+08
-6.34349e+10
2.82851e+08
-6.31599e+10
3.00133e+08
-6.27643e+10
3.0214e+08
-6.22295e+10
2.83045e+08
-6.15389e+10
2.46299e+08
-6.06674e+10
1.92773e+08
-5.95591e+10
1.18299e+08
-5.81698e+10
2.70513e+07
-5.63174e+10
-7.76482e+07
-5.36375e+10
-8.12112e+07
-4.8839e+10
3.08116e+08
-4.2387e+10
1.38915e+09
-2.74973e+10
6.88268e+09
1.04137e+10
-5.95013e+10
-1.69719e+08
-7.71913e+08
-5.94344e+10
-1.68338e+08
-6.821e+08
-5.93834e+10
-1.53825e+08
-6.43067e+08
-5.93427e+10
-1.43757e+08
-5.93259e+08
-5.93142e+10
-1.32046e+08
-5.44773e+08
-5.92984e+10
-1.20616e+08
-4.9844e+08
-5.92967e+10
-1.08918e+08
-4.50735e+08
-5.93114e+10
-9.68879e+07
-4.07237e+08
-5.93425e+10
-8.45499e+07
-3.69509e+08
-5.93928e+10
-7.19044e+07
-3.40022e+08
-5.94631e+10
-5.88992e+07
-3.23716e+08
-5.95499e+10
-4.53972e+07
-3.30004e+08
-5.96508e+10
-3.13048e+07
-3.63525e+08
-5.97606e+10
-1.65663e+07
-4.33941e+08
-5.98672e+10
-1.26141e+06
-5.53598e+08
-5.99587e+10
1.42499e+07
-7.30752e+08
-6.00176e+10
2.92294e+07
-9.73778e+08
-6.00298e+10
4.25342e+07
-1.28219e+09
-5.99822e+10
5.34836e+07
-1.64774e+09
-5.98582e+10
6.0513e+07
-2.07255e+09
-5.9624e+10
6.34885e+07
-2.57146e+09
-5.92241e+10
6.09133e+07
-3.15135e+09
-5.86217e+10
5.8374e+07
-3.73e+09
-5.78713e+10
6.10805e+07
-4.1378e+09
-5.70977e+10
7.25713e+07
-4.26013e+09
-5.64e+10
9.16929e+07
-4.13946e+09
-5.58157e+10
1.15467e+08
-3.88127e+09
-5.53488e+10
1.39658e+08
-3.56511e+09
-5.49827e+10
1.60292e+08
-3.24528e+09
-5.46955e+10
1.74495e+08
-2.95096e+09
-5.44633e+10
1.82192e+08
-2.69549e+09
-5.4268e+10
1.84361e+08
-2.4798e+09
-5.40932e+10
1.81998e+08
-2.30273e+09
-5.39254e+10
1.75816e+08
-2.15998e+09
-5.37567e+10
1.66457e+08
-2.04352e+09
-5.35758e+10
1.54868e+08
-1.95135e+09
-5.33777e+10
1.41866e+08
-1.87722e+09
-5.3152e+10
1.28604e+08
-1.82045e+09
-5.28944e+10
1.16432e+08
-1.77534e+09
-5.25963e+10
1.06966e+08
-1.7436e+09
-5.22484e+10
1.02175e+08
-1.72545e+09
-5.18402e+10
1.04592e+08
-1.72037e+09
-5.13617e+10
1.17239e+08
-1.7274e+09
-5.08034e+10
1.42892e+08
-1.75002e+09
-5.01516e+10
1.8246e+08
-1.78515e+09
-4.93942e+10
2.4008e+08
-1.83984e+09
-4.85428e+10
3.24779e+08
-1.92234e+09
-4.76621e+10
4.48912e+08
-2.03134e+09
-4.67037e+10
6.2076e+08
-2.19846e+09
-4.51528e+10
8.30872e+08
-2.36492e+09
-4.19267e+10
1.2619e+09
-2.43895e+09
-3.64652e+10
3.06752e+09
-2.57946e+09
-2.96856e+10
1.04078e+10
7.78609e+08
5.34179e+09
8.24625e+09
-5.83955e+10
1.10964e+09
-5.84654e+10
1.25128e+09
-5.85488e+10