/*--------------------------------*- C++ -*----------------------------------*\
| =========                 |                                                 |
| \\      /  F ield         | OpenFOAM: The Open Source CFD Toolbox           |
|  \\    /   O peration     | Version:  4.1                                   |
|   \\  /    A nd           | Web:      www.OpenFOAM.org                      |
|    \\/     M anipulation  |                                                 |
\*---------------------------------------------------------------------------*/
FoamFile
{
    version     2.0;
    format      ascii;
    class       volScalarField;
    location    "27";
    object      p;
}
// * * * * * * * * * * * * * * * * * * * * * * * * * * * * * * * * * * * * * //

dimensions      [0 2 -2 0 0 0 0];

internalField   nonuniform List<scalar> 
4432
(
-2.37457e+10
-2.57822e+10
-1.99865e+10
-3.13313e+09
-7.34491e+09
-1.36662e+10
-1.20446e+10
-1.13466e+10
-1.11881e+10
-1.11848e+10
-1.09834e+10
-1.07465e+10
-1.06097e+10
-1.05848e+10
-1.06574e+10
-1.07031e+10
-1.05743e+10
-1.03934e+10
-1.02424e+10
-1.01288e+10
-1.00154e+10
-9.90706e+09
-9.80193e+09
-9.70087e+09
-9.60509e+09
-9.51582e+09
-9.4339e+09
-9.35972e+09
-9.29312e+09
-9.2337e+09
-9.18106e+09
-9.13593e+09
-9.09965e+09
-9.07215e+09
-9.05388e+09
-9.04733e+09
-9.05325e+09
-9.0726e+09
-9.10604e+09
-9.15219e+09
-9.20736e+09
-9.26306e+09
-9.30172e+09
-9.29846e+09
-9.22896e+09
-9.06454e+09
-8.75523e+09
-8.25766e+09
-7.59204e+09
-7.01369e+09
-7.33577e+09
-9.62842e+09
-1.23549e+10
-6.45998e+09
-2.09274e+10
-1.97948e+10
-1.61062e+10
-1.03946e+10
-7.69174e+09
-1.28096e+10
-1.27003e+10
-1.17835e+10
-1.15472e+10
-1.15265e+10
-1.1215e+10
-1.08369e+10
-1.06291e+10
-1.06147e+10
-1.07003e+10
-1.07316e+10
-1.05821e+10
-1.03974e+10
-1.02599e+10
-1.01473e+10
-1.00327e+10
-9.92387e+09
-9.81774e+09
-9.7155e+09
-9.61797e+09
-9.52641e+09
-9.44167e+09
-9.3642e+09
-9.2939e+09
-9.23047e+09
-9.17369e+09
-9.12443e+09
-9.08436e+09
-9.0544e+09
-9.03543e+09
-9.02815e+09
-9.03298e+09
-9.05146e+09
-9.08433e+09
-9.13009e+09
-9.18472e+09
-9.23931e+09
-9.2756e+09
-9.26731e+09
-9.18649e+09
-9.0016e+09
-8.66115e+09
-8.11144e+09
-7.38079e+09
-6.72662e+09
-7.05429e+09
-9.71944e+09
-1.28785e+10
-7.45632e+09
-1.57328e+10
-1.42281e+10
-1.21389e+10
-1.33955e+10
-9.56805e+09
-1.19372e+10
-1.3884e+10
-1.29143e+10
-1.22525e+10
-1.195e+10
-1.1408e+10
-1.09672e+10
-1.06799e+10
-1.05398e+10
-1.05627e+10
-1.0674e+10
-1.06372e+10
-1.04563e+10
-1.02939e+10
-1.01598e+10
-1.00438e+10
-9.9339e+09
-9.82759e+09
-9.72442e+09
-9.62558e+09
-9.53251e+09
-9.44637e+09
-9.36823e+09
-9.29842e+09
-9.23712e+09
-9.18411e+09
-9.14062e+09
-9.11019e+09
-9.09012e+09
-9.07379e+09
-9.06726e+09
-9.07563e+09
-9.09951e+09
-9.13819e+09
-9.18648e+09
-9.23656e+09
-9.27839e+09
-9.2953e+09
-9.26011e+09
-9.14392e+09
-8.93299e+09
-8.57795e+09
-8.00589e+09
-7.28527e+09
-6.78173e+09
-7.51478e+09
-1.0564e+10
-1.3296e+10
-7.22059e+09
-1.60064e+10
-1.47814e+10
-1.22489e+10
-1.07441e+10
-9.7352e+09
-1.2192e+10
-1.39308e+10
-1.28122e+10
-1.23286e+10
-1.1981e+10
-1.14547e+10
-1.09816e+10
-1.06714e+10
-1.05392e+10
-1.05939e+10
-1.07281e+10
-1.06596e+10
-1.04497e+10
-1.03032e+10
-1.0173e+10
-1.00571e+10
-9.94564e+09
-9.83778e+09
-9.73286e+09
-9.63205e+09
-9.53673e+09
-9.4481e+09
-9.36719e+09
-9.29437e+09
-9.22969e+09
-9.17281e+09
-9.12446e+09
-9.08693e+09
-9.06079e+09
-9.04486e+09
-9.0396e+09
-9.04607e+09
-9.06756e+09
-9.10493e+09
-9.15154e+09
-9.19847e+09
-9.23529e+09
-9.24417e+09
-9.19757e+09
-9.06551e+09
-8.82366e+09
-8.42735e+09
-7.8266e+09
-7.07932e+09
-6.55983e+09
-7.39491e+09
-1.07666e+10
-1.34861e+10
-6.46097e+09
-1.39664e+10
-1.11292e+10
-7.74009e+09
-1.23555e+10
-9.76587e+09
-1.04076e+10
-1.20592e+10
-1.26115e+10
-1.26309e+10
-1.23093e+10
-1.16993e+10
-1.11964e+10
-1.07954e+10
-1.05529e+10
-1.0549e+10
-1.06439e+10
-1.06076e+10
-1.04518e+10
-1.03123e+10
-1.01816e+10
-1.00633e+10
-9.94998e+09
-9.83934e+09
-9.73066e+09
-9.62498e+09
-9.52399e+09
-9.42955e+09
-9.34327e+09
-9.26582e+09
-9.19723e+09
-9.13632e+09
-9.08152e+09
-9.03769e+09
-9.01641e+09
-9.00973e+09
-9.00856e+09
-9.02774e+09
-9.06363e+09
-9.11424e+09
-9.16922e+09
-9.21991e+09
-9.25853e+09
-9.26852e+09
-9.22002e+09
-9.08352e+09
-8.83388e+09
-8.43424e+09
-7.86167e+09
-7.18851e+09
-6.77004e+09
-7.56878e+09
-1.05612e+10
-1.33544e+10
-6.6518e+09
-1.34181e+10
-1.26209e+10
-1.03262e+10
-8.93749e+09
-1.04114e+10
-1.15447e+10
-1.22304e+10
-1.23033e+10
-1.24978e+10
-1.21618e+10
-1.15944e+10
-1.11085e+10
-1.07583e+10
-1.05636e+10
-1.05688e+10
-1.06841e+10
-1.06167e+10
-1.0444e+10
-1.03098e+10
-1.01833e+10
-1.00664e+10
-9.9525e+09
-9.84098e+09
-9.73122e+09
-9.62438e+09
-9.52203e+09
-9.42599e+09
-9.33792e+09
-9.25882e+09
-9.18874e+09
-9.1262e+09
-9.07041e+09
-9.02532e+09
-8.99632e+09
-8.98204e+09
-8.98359e+09
-9.00139e+09
-9.03577e+09
-9.08411e+09
-9.13542e+09
-9.18005e+09
-9.21008e+09
-9.20768e+09
-9.14281e+09
-8.98236e+09
-8.69982e+09
-8.26506e+09
-7.65589e+09
-6.94695e+09
-6.52577e+09
-7.41561e+09
-1.05974e+10
-1.34325e+10
-7.03323e+09
-1.25191e+10
-1.23485e+10
-1.08004e+10
-9.99061e+09
-1.0938e+10
-1.1119e+10
-1.1689e+10
-1.2084e+10
-1.22902e+10
-1.20692e+10
-1.15888e+10
-1.11881e+10
-1.08598e+10
-1.06573e+10
-1.06336e+10
-1.06703e+10
-1.05981e+10
-1.04549e+10
-1.03277e+10
-1.02059e+10
-1.009e+10
-9.97502e+09
-9.86081e+09
-9.74726e+09
-9.63612e+09
-9.5296e+09
-9.43002e+09
-9.33928e+09
-9.25759e+09
-9.18347e+09
-9.11438e+09
-9.0441e+09
-8.97851e+09
-8.97353e+09
-9.02535e+09
-9.0242e+09
-9.03528e+09
-9.08639e+09
-9.15417e+09
-9.23067e+09
-9.30213e+09
-9.35958e+09
-9.38267e+09
-9.33272e+09
-9.17673e+09
-8.8871e+09
-8.43241e+09
-7.81983e+09
-7.13458e+09
-6.71595e+09
-7.48047e+09
-1.05039e+10
-1.39022e+10
-8.37823e+09
-1.21978e+10
-1.15315e+10
-1.0675e+10
-1.04501e+10
-1.23592e+10
-1.22318e+10
-1.15745e+10
-1.16545e+10
-1.20452e+10
-1.18845e+10
-1.15025e+10
-1.114e+10
-1.0852e+10
-1.06901e+10
-1.06807e+10
-1.07064e+10
-1.06057e+10
-1.04589e+10
-1.03341e+10
-1.02148e+10
-1.00989e+10
-9.98308e+09
-9.86715e+09
-9.75126e+09
-9.63717e+09
-9.52724e+09
-9.42405e+09
-9.32968e+09
-9.24497e+09
-9.16943e+09
-9.10128e+09
-9.03956e+09
-8.99051e+09
-8.96478e+09
-8.95874e+09
-8.97325e+09
-9.00039e+09
-9.03933e+09
-9.10128e+09
-9.17149e+09
-9.23495e+09
-9.2826e+09
-9.29576e+09
-9.23704e+09
-9.06841e+09
-8.76672e+09
-8.30748e+09
-7.69649e+09
-7.0306e+09
-6.70723e+09
-7.75531e+09
-1.10957e+10
-1.37817e+10
-6.79639e+09
-1.13518e+10
-1.16925e+10
-1.16626e+10
-1.08628e+10
-1.17433e+10
-1.14717e+10
-1.14085e+10
-1.16177e+10
-1.19104e+10
-1.18984e+10
-1.15401e+10
-1.11103e+10
-1.08565e+10
-1.07246e+10
-1.07088e+10
-1.06847e+10
-1.05868e+10
-1.0458e+10
-1.03373e+10
-1.02193e+10
-1.01031e+10
-9.98545e+09
-9.86616e+09
-9.74575e+09
-9.62691e+09
-9.5128e+09
-9.40609e+09
-9.30874e+09
-9.22107e+09
-9.13946e+09
-9.06223e+09
-8.98926e+09
-8.93108e+09
-8.91687e+09
-8.93904e+09
-8.9595e+09
-8.99304e+09
-9.05505e+09
-9.13813e+09
-9.23571e+09
-9.33604e+09
-9.42106e+09
-9.46352e+09
-9.42618e+09
-9.27185e+09
-8.96819e+09
-8.48844e+09
-7.83365e+09
-7.07682e+09
-6.54445e+09
-7.18605e+09
-1.03472e+10
-1.43518e+10
-9.32559e+09
-1.1674e+10
-1.13603e+10
-1.12807e+10
-1.14694e+10
-1.26691e+10
-1.19191e+10
-1.12696e+10
-1.1305e+10
-1.15649e+10
-1.16142e+10
-1.14196e+10
-1.11168e+10
-1.08843e+10
-1.07624e+10
-1.07424e+10
-1.07114e+10
-1.06038e+10
-1.04756e+10
-1.0357e+10
-1.02405e+10
-1.01241e+10
-1.00053e+10
-9.88373e+09
-9.76028e+09
-9.63762e+09
-9.51916e+09
-9.40774e+09
-9.30481e+09
-9.21038e+09
-9.12497e+09
-9.05088e+09
-8.98677e+09
-8.93149e+09
-8.89788e+09
-8.88939e+09
-8.90065e+09
-8.93161e+09
-8.9822e+09
-9.05273e+09
-9.13649e+09
-9.22399e+09
-9.29729e+09
-9.32963e+09
-9.28755e+09
-9.13485e+09
-8.84042e+09
-8.38367e+09
-7.77041e+09
-7.0864e+09
-6.71106e+09
-7.66876e+09
-1.09769e+10
-1.39528e+10
-7.19806e+09
-1.13355e+10
-1.15836e+10
-1.16673e+10
-1.15809e+10
-1.19115e+10
-1.15722e+10
-1.12831e+10
-1.12832e+10
-1.14638e+10
-1.15818e+10
-1.14601e+10
-1.10996e+10
-1.08713e+10
-1.07893e+10
-1.07621e+10
-1.07029e+10
-1.06015e+10
-1.04856e+10
-1.03724e+10
-1.02594e+10
-1.01449e+10
-1.00265e+10
-9.90254e+09
-9.77455e+09
-9.64686e+09
-9.52499e+09
-9.41098e+09
-9.30293e+09
-9.203e+09
-9.11349e+09
-9.03507e+09
-8.97083e+09
-8.92644e+09
-8.9037e+09
-8.89354e+09
-8.90146e+09
-8.93564e+09
-8.99539e+09
-9.07679e+09
-9.1745e+09
-9.27682e+09
-9.36347e+09
-9.40521e+09
-9.36691e+09
-9.21253e+09
-8.90873e+09
-8.43372e+09
-7.78879e+09
-7.02865e+09
-6.43649e+09
-6.94796e+09
-1.01751e+10
-1.5022e+10
-1.18031e+10
-1.18575e+10
-1.17962e+10
-1.17246e+10
-1.15926e+10
-1.21601e+10
-1.162e+10
-1.12392e+10
-1.12927e+10
-1.14103e+10
-1.14552e+10
-1.13205e+10
-1.10675e+10
-1.08811e+10
-1.0803e+10
-1.07693e+10
-1.07059e+10
-1.06023e+10
-1.04888e+10
-1.03781e+10
-1.02668e+10
-1.01529e+10
-1.0034e+10
-9.90938e+09
-9.78081e+09
-9.65228e+09
-9.52811e+09
-9.41105e+09
-9.30239e+09
-9.20247e+09
-9.11093e+09
-9.03106e+09
-8.96436e+09
-8.9089e+09
-8.87047e+09
-8.85152e+09
-8.85121e+09
-8.87438e+09
-8.92112e+09
-8.98757e+09
-9.06931e+09
-9.15713e+09
-9.23092e+09
-9.26326e+09
-9.22124e+09
-9.07141e+09
-8.78372e+09
-8.34026e+09
-7.74424e+09
-7.06301e+09
-6.62295e+09
-7.40008e+09
-1.06462e+10
-1.43038e+10
-8.65758e+09
-1.13946e+10
-1.17422e+10
-1.17847e+10
-1.18893e+10
-1.17251e+10
-1.14403e+10
-1.12184e+10
-1.11704e+10
-1.12975e+10
-1.14232e+10
-1.12796e+10
-1.10262e+10
-1.08894e+10
-1.08373e+10
-1.07873e+10
-1.07119e+10
-1.06141e+10
-1.0508e+10
-1.04024e+10
-1.02962e+10
-1.01859e+10
-1.00666e+10
-9.93575e+09
-9.79713e+09
-9.65784e+09
-9.52411e+09
-9.39834e+09
-9.2827e+09
-9.17838e+09
-9.08432e+09
-9.0025e+09
-8.93824e+09
-8.89504e+09
-8.86715e+09
-8.84807e+09
-8.84583e+09
-8.86708e+09
-8.91216e+09
-8.97901e+09
-9.061e+09
-9.14568e+09
-9.21406e+09
-9.24006e+09
-9.19276e+09
-9.03989e+09
-8.75551e+09
-8.32981e+09
-7.77284e+09
-7.14108e+09
-6.70805e+09
-7.34162e+09
-1.02367e+10
-1.37218e+10
-8.14788e+09
-1.18616e+10
-1.20108e+10
-1.21341e+10
-1.16834e+10
-1.14171e+10
-1.11943e+10
-1.12396e+10
-1.13284e+10
-1.13916e+10
-1.13579e+10
-1.11918e+10
-1.10056e+10
-1.08921e+10
-1.08378e+10
-1.07851e+10
-1.07065e+10
-1.06083e+10
-1.05039e+10
-1.03997e+10
-1.02941e+10
-1.01838e+10
-1.00643e+10
-9.93439e+09
-9.79711e+09
-9.65822e+09
-9.52361e+09
-9.39833e+09
-9.28493e+09
-9.18359e+09
-9.093e+09
-9.01298e+09
-8.94574e+09
-8.89591e+09
-8.86136e+09
-8.83964e+09
-8.83503e+09
-8.85185e+09
-8.89063e+09
-8.94953e+09
-9.02297e+09
-9.09894e+09
-9.15854e+09
-9.17645e+09
-9.12262e+09
-8.96673e+09
-8.68401e+09
-8.26582e+09
-7.72237e+09
-7.11338e+09
-6.72495e+09
-7.42624e+09
-1.03165e+10
-1.33637e+10
-7.00017e+09
-1.14115e+10
-1.16959e+10
-1.18853e+10
-1.1982e+10
-1.16059e+10
-1.11135e+10
-1.09266e+10
-1.09812e+10
-1.12041e+10
-1.13579e+10
-1.12015e+10
-1.10126e+10
-1.09199e+10
-1.08658e+10
-1.0804e+10
-1.0723e+10
-1.06283e+10
-1.05283e+10
-1.04291e+10
-1.03302e+10
-1.02256e+10
-1.01051e+10
-9.96541e+09
-9.81173e+09
-9.65487e+09
-9.50455e+09
-9.3665e+09
-9.24389e+09
-9.13675e+09
-9.04018e+09
-8.95723e+09
-8.89493e+09
-8.84397e+09
-8.80315e+09
-8.77639e+09
-8.76986e+09
-8.7855e+09
-8.82169e+09
-8.87661e+09
-8.94409e+09
-9.01217e+09
-9.06269e+09
-9.0705e+09
-9.00596e+09
-8.84045e+09
-8.55426e+09
-8.14563e+09
-7.63504e+09
-7.08799e+09
-6.78052e+09
-7.53702e+09
-1.02441e+10
-1.27341e+10
-6.61527e+09
-1.17072e+10
-1.18957e+10
-1.22359e+10
-1.20057e+10
-1.12976e+10
-1.08529e+10
-1.09667e+10
-1.10897e+10
-1.11979e+10
-1.1241e+10
-1.11312e+10
-1.10015e+10
-1.09202e+10
-1.08646e+10
-1.08e+10
-1.07184e+10
-1.06246e+10
-1.05261e+10
-1.04277e+10
-1.03291e+10
-1.02245e+10
-1.01046e+10
-9.96509e+09
-9.81107e+09
-9.65266e+09
-9.50006e+09
-9.36013e+09
-9.23559e+09
-9.12882e+09
-9.037e+09
-8.95483e+09
-8.88668e+09
-8.83317e+09
-8.79269e+09
-8.76711e+09
-8.76161e+09
-8.77743e+09
-8.81282e+09
-8.86609e+09
-8.9314e+09
-8.99616e+09
-9.04239e+09
-9.04472e+09
-8.97333e+09
-8.79968e+09
-8.50426e+09
-8.08504e+09
-7.56046e+09
-6.99372e+09
-6.65426e+09
-7.34065e+09
-9.99269e+09
-1.26184e+10
-6.51014e+09
-1.12855e+10
-1.13702e+10
-1.16147e+10
-1.17428e+10
-1.15333e+10
-1.10057e+10
-1.08018e+10
-1.09373e+10
-1.1154e+10
-1.11951e+10
-1.10761e+10
-1.09697e+10
-1.09053e+10
-1.0851e+10
-1.07871e+10
-1.07079e+10
-1.06177e+10
-1.05243e+10
-1.04342e+10
-1.03481e+10
-1.02571e+10
-1.0144e+10
-9.99659e+09
-9.8209e+09
-9.63763e+09
-9.46518e+09
-9.31158e+09
-9.17849e+09
-9.06698e+09
-8.97178e+09
-8.88785e+09
-8.82244e+09
-8.77259e+09
-8.73536e+09
-8.71577e+09
-8.71671e+09
-8.73965e+09
-8.78479e+09
-8.84976e+09
-8.92678e+09
-9.00185e+09
-9.05452e+09
-9.05748e+09
-8.97858e+09
-8.78651e+09
-8.4591e+09
-7.99138e+09
-7.40116e+09
-6.75208e+09
-6.30778e+09
-6.87031e+09
-9.48028e+09
-1.23597e+10
-6.64005e+09
-1.1327e+10
-1.14167e+10
-1.17748e+10
-1.18815e+10
-1.13798e+10
-1.09051e+10
-1.09154e+10
-1.10026e+10
-1.10622e+10
-1.10837e+10
-1.10328e+10
-1.09693e+10
-1.09117e+10
-1.08577e+10
-1.07922e+10
-1.07131e+10
-1.06238e+10
-1.05309e+10
-1.04406e+10
-1.0354e+10
-1.02627e+10
-1.01495e+10
-1.00014e+10
-9.82478e+09
-9.63996e+09
-9.46518e+09
-9.30812e+09
-9.17085e+09
-9.05792e+09
-8.96623e+09
-8.88247e+09
-8.81367e+09
-8.75963e+09
-8.72027e+09
-8.70047e+09
-8.70073e+09
-8.72225e+09
-8.76553e+09
-8.82793e+09
-8.90213e+09
-8.97422e+09
-9.02355e+09
-9.02273e+09
-8.93998e+09
-8.74403e+09
-8.41228e+09
-7.93839e+09
-7.33648e+09
-6.66423e+09
-6.17332e+09
-6.64861e+09
-9.2073e+09
-1.23749e+10
-6.86779e+09
-1.09096e+10
-1.08749e+10
-1.09486e+10
-1.11883e+10
-1.1381e+10
-1.11235e+10
-1.09375e+10
-1.10136e+10
-1.10769e+10
-1.10178e+10
-1.09691e+10
-1.09278e+10
-1.08856e+10
-1.08393e+10
-1.07818e+10
-1.07111e+10
-1.0631e+10
-1.05493e+10
-1.04749e+10
-1.04112e+10
-1.03479e+10
-1.02547e+10
-1.00969e+10
-9.87843e+09
-9.64533e+09
-9.43616e+09
-9.26014e+09
-9.11427e+09
-8.9945e+09
-8.89812e+09
-8.82119e+09
-8.76094e+09
-8.71597e+09
-8.68768e+09
-8.68061e+09
-8.69709e+09
-8.73878e+09
-8.80674e+09
-8.89834e+09
-9.0048e+09
-9.11003e+09
-9.19052e+09
-9.21522e+09
-9.1479e+09
-8.95268e+09
-8.60189e+09
-8.08403e+09
-7.40814e+09
-6.63147e+09
-6.02644e+09
-6.43619e+09
-9.03018e+09
-1.21941e+10
-6.35749e+09
-1.0776e+10
-1.07765e+10
-1.10183e+10
-1.13773e+10
-1.14225e+10
-1.12414e+10
-1.10026e+10
-1.09536e+10
-1.09657e+10
-1.09723e+10
-1.09586e+10
-1.09274e+10
-1.08848e+10
-1.08372e+10
-1.07775e+10
-1.07056e+10
-1.06248e+10
-1.05423e+10
-1.04666e+10
-1.0402e+10
-1.0339e+10
-1.02475e+10
-1.00935e+10
-9.87996e+09
-9.65089e+09
-9.443e+09
-9.26542e+09
-9.11683e+09
-8.99739e+09
-8.9027e+09
-8.82217e+09
-8.75693e+09
-8.70742e+09
-8.6747e+09
-8.66454e+09
-8.67834e+09
-8.71691e+09
-8.78134e+09
-8.86932e+09
-8.97271e+09
-9.07634e+09
-9.15745e+09
-9.1858e+09
-9.12609e+09
-8.94299e+09
-8.60891e+09
-8.11085e+09
-7.45427e+09
-6.69286e+09
-6.10208e+09
-6.53769e+09
-9.15811e+09
-1.22442e+10
-6.39394e+09
-1.04643e+10
-1.03945e+10
-1.03617e+10
-1.0801e+10
-1.11908e+10
-1.11899e+10
-1.10644e+10
-1.09879e+10
-1.09485e+10
-1.09326e+10
-1.09215e+10
-1.09011e+10
-1.08725e+10
-1.08362e+10
-1.07886e+10
-1.07287e+10
-1.066e+10
-1.05907e+10
-1.05319e+10
-1.04927e+10
-1.04684e+10
-1.04132e+10
-1.02467e+10
-9.95284e+09
-9.62673e+09
-9.35998e+09
-9.15696e+09
-9.00045e+09
-8.87781e+09
-8.78344e+09
-8.71083e+09
-8.65305e+09
-8.6089e+09
-8.58229e+09
-8.57851e+09
-8.60088e+09
-8.65185e+09
-8.73325e+09
-8.84293e+09
-8.97215e+09
-9.10455e+09
-9.21541e+09
-9.27209e+09
-9.23672e+09
-9.07186e+09
-8.74884e+09
-8.25581e+09
-7.60201e+09
-6.85714e+09
-6.35841e+09
-7.03905e+09
-9.82547e+09
-1.23498e+10
-6.11153e+09
-1.02614e+10
-1.02992e+10
-1.0535e+10
-1.09918e+10
-1.13377e+10
-1.12338e+10
-1.09636e+10
-1.09233e+10
-1.0927e+10
-1.09233e+10
-1.09153e+10
-1.08975e+10
-1.08682e+10
-1.08302e+10
-1.0781e+10
-1.07206e+10
-1.06527e+10
-1.05843e+10
-1.05259e+10
-1.04867e+10
-1.04627e+10
-1.04087e+10
-1.02433e+10
-9.9511e+09
-9.62695e+09
-9.36134e+09
-9.15716e+09
-8.9999e+09
-8.87866e+09
-8.78458e+09
-8.70953e+09
-8.64845e+09
-8.60158e+09
-8.57218e+09
-8.56592e+09
-8.58595e+09
-8.63432e+09
-8.71277e+09
-8.8194e+09
-8.94586e+09
-9.07636e+09
-9.18691e+09
-9.24557e+09
-9.21494e+09
-9.05779e+09
-8.74554e+09
-8.26538e+09
-7.62417e+09
-6.88974e+09
-6.4058e+09
-7.14699e+09
-1.00351e+10
-1.24826e+10
-6.50172e+09
-1.02139e+10
-1.02129e+10
-1.03481e+10
-1.07496e+10
-1.09974e+10
-1.10645e+10
-1.1031e+10
-1.09766e+10
-1.09416e+10
-1.09248e+10
-1.09149e+10
-1.09043e+10
-1.08838e+10
-1.08503e+10
-1.08029e+10
-1.07416e+10
-1.06721e+10
-1.06031e+10
-1.05483e+10
-1.05269e+10
-1.05523e+10
-1.05808e+10
-1.04594e+10
-1.00781e+10
-9.61228e+09
-9.28178e+09
-9.06288e+09
-8.90777e+09
-8.79661e+09
-8.71387e+09
-8.65014e+09
-8.59815e+09
-8.55682e+09
-8.53019e+09
-8.52358e+09
-8.54174e+09
-8.58823e+09
-8.66493e+09
-8.76984e+09
-8.89442e+09
-9.02226e+09
-9.12837e+09
-9.18035e+09
-9.1417e+09
-8.97748e+09
-8.66283e+09
-8.19172e+09
-7.583e+09
-6.92505e+09
-6.57744e+09
-7.45637e+09
-1.03713e+10
-1.29443e+10
-7.35416e+09
-1.00935e+10
-1.0278e+10
-1.05784e+10
-1.08965e+10
-1.10343e+10
-1.09732e+10
-1.09433e+10
-1.09415e+10
-1.09323e+10
-1.0922e+10
-1.09122e+10
-1.09011e+10
-1.08805e+10
-1.08467e+10
-1.07993e+10
-1.07394e+10
-1.06733e+10
-1.06088e+10
-1.05576e+10
-1.05371e+10
-1.05615e+10
-1.05902e+10
-1.04709e+10
-1.0085e+10
-9.61825e+09
-9.28775e+09
-9.06687e+09
-8.91112e+09
-8.80161e+09
-8.71936e+09
-8.65451e+09
-8.60172e+09
-8.56041e+09
-8.53429e+09
-8.52869e+09
-8.54829e+09
-8.59644e+09
-8.67485e+09
-8.78141e+09
-8.90749e+09
-9.03668e+09
-9.14424e+09
-9.19794e+09
-9.1606e+09
-8.99605e+09
-8.67861e+09
-8.19994e+09
-7.57411e+09
-6.88279e+09
-6.47548e+09
-7.25393e+09
-1.01595e+10
-1.31164e+10
-7.68548e+09
-1.02136e+10
-1.02779e+10
-1.0581e+10
-1.07871e+10
-1.08276e+10
-1.08459e+10
-1.08688e+10
-1.08768e+10
-1.08721e+10
-1.0865e+10
-1.08551e+10
-1.08416e+10
-1.08184e+10
-1.07804e+10
-1.0727e+10
-1.06611e+10
-1.05946e+10
-1.05416e+10
-1.05142e+10
-1.05347e+10
-1.06422e+10
-1.08371e+10
-1.08885e+10
-1.03792e+10
-9.60488e+09
-9.12934e+09
-8.88584e+09
-8.75993e+09
-8.69647e+09
-8.65256e+09
-8.61569e+09
-8.58242e+09
-8.55456e+09
-8.53664e+09
-8.53473e+09
-8.55485e+09
-8.6013e+09
-8.67584e+09
-8.77592e+09
-8.8922e+09
-9.00712e+09
-9.09475e+09
-9.12278e+09
-9.05633e+09
-8.86355e+09
-8.52378e+09
-8.03587e+09
-7.42558e+09
-6.79251e+09
-6.50342e+09
-7.46383e+09
-1.05271e+10
-1.29696e+10
-6.37509e+09
-1.02049e+10
-1.04483e+10
-1.06933e+10
-1.08127e+10
-1.0786e+10
-1.07851e+10
-1.08252e+10
-1.08495e+10
-1.08582e+10
-1.08565e+10
-1.08484e+10
-1.08346e+10
-1.08106e+10
-1.07714e+10
-1.07163e+10
-1.06495e+10
-1.05847e+10
-1.05368e+10
-1.05152e+10
-1.0538e+10
-1.06391e+10
-1.08264e+10
-1.08924e+10
-1.03856e+10
-9.60619e+09
-9.13198e+09
-8.88683e+09
-8.75786e+09
-8.69236e+09
-8.64614e+09
-8.60675e+09
-8.57221e+09
-8.54402e+09
-8.52634e+09
-8.52554e+09
-8.54799e+09
-8.59772e+09
-8.6762e+09
-8.78072e+09
-8.90182e+09
-9.02176e+09
-9.11459e+09
-9.14776e+09
-9.08494e+09
-8.89213e+09
-8.54699e+09
-8.04566e+09
-7.40944e+09
-6.73522e+09
-6.39902e+09
-7.36307e+09
-1.0504e+10
-1.29383e+10
-6.50745e+09
-1.03448e+10
-1.04065e+10
-1.06543e+10
-1.07023e+10
-1.0696e+10
-1.07022e+10
-1.07279e+10
-1.07511e+10
-1.07691e+10
-1.07821e+10
-1.07907e+10
-1.07951e+10
-1.0791e+10
-1.07735e+10
-1.07429e+10
-1.07062e+10
-1.06862e+10
-1.07057e+10
-1.07617e+10
-1.08601e+10
-1.10499e+10
-1.14285e+10
-1.18381e+10
-1.12664e+10
-9.94051e+09
-8.64255e+09
-8.46516e+09
-8.48778e+09
-8.5268e+09
-8.5396e+09
-8.5328e+09
-8.51573e+09
-8.49775e+09
-8.48699e+09
-8.49159e+09
-8.5187e+09
-8.57331e+09
-8.65747e+09
-8.76824e+09
-8.89557e+09
-9.02119e+09
-9.1189e+09
-9.15684e+09
-9.10107e+09
-8.92113e+09
-8.59887e+09
-8.13655e+09
-7.56235e+09
-6.97214e+09
-6.71529e+09
-7.65877e+09
-1.05465e+10
-1.29394e+10
-6.6167e+09
-1.03664e+10
-1.05412e+10
-1.0672e+10
-1.06736e+10
-1.0647e+10
-1.06642e+10
-1.06966e+10
-1.0725e+10
-1.07466e+10
-1.0762e+10
-1.07721e+10
-1.07757e+10
-1.07686e+10
-1.07462e+10
-1.07091e+10
-1.06653e+10
-1.06427e+10
-1.06736e+10
-1.07495e+10
-1.08674e+10
-1.10493e+10
-1.13731e+10
-1.18724e+10
-1.13693e+10
-1.0031e+10
-8.63959e+09
-8.48202e+09
-8.50357e+09
-8.53951e+09
-8.54932e+09
-8.54065e+09
-8.52273e+09
-8.50422e+09
-8.49281e+09
-8.49723e+09
-8.52465e+09
-8.57944e+09
-8.66324e+09
-8.77283e+09
-8.89791e+09
-9.01991e+09
-9.11261e+09
-9.1439e+09
-9.07824e+09
-8.88294e+09
-8.53765e+09
-8.04137e+09
-7.41756e+09
-6.75731e+09
-6.41411e+09
-7.28736e+09
-1.02615e+10
-1.30929e+10
-7.19192e+09
-1.05206e+10
-1.05667e+10
-1.06576e+10
-1.06512e+10
-1.06469e+10
-1.066e+10
-1.06814e+10
-1.07052e+10
-1.0729e+10
-1.0752e+10
-1.07731e+10
-1.07904e+10
-1.07994e+10
-1.07945e+10
-1.07744e+10
-1.07467e+10
-1.07376e+10
-1.07783e+10
-1.08603e+10
-1.09725e+10
-1.11724e+10
-1.162e+10
-1.21655e+10
-1.21622e+10
-1.14635e+10
-7.29697e+09
-7.79373e+09
-8.17105e+09
-8.34404e+09
-8.41179e+09
-8.42788e+09
-8.41951e+09
-8.40437e+09
-8.39519e+09
-8.40225e+09
-8.43353e+09
-8.49459e+09
-8.58762e+09
-8.70924e+09
-8.84888e+09
-8.98796e+09
-9.1001e+09
-9.1525e+09
-9.10952e+09
-8.93937e+09
-8.62257e+09
-8.1582e+09
-7.56776e+09
-6.92899e+09
-6.54591e+09
-7.25577e+09
-1.00543e+10
-1.32229e+10
-7.95952e+09
-1.05621e+10
-1.06152e+10
-1.06636e+10
-1.06447e+10
-1.06385e+10
-1.06551e+10
-1.0676e+10
-1.06989e+10
-1.07213e+10
-1.07423e+10
-1.07605e+10
-1.07737e+10
-1.07777e+10
-1.07671e+10
-1.07405e+10
-1.07064e+10
-1.06969e+10
-1.07496e+10
-1.08456e+10
-1.09814e+10
-1.11841e+10
-1.15331e+10
-1.20476e+10
-1.24266e+10
-1.17952e+10
-7.23426e+09
-7.81508e+09
-8.19979e+09
-8.37562e+09
-8.44452e+09
-8.46165e+09
-8.45333e+09
-8.4373e+09
-8.42683e+09
-8.43202e+09
-8.46018e+09
-8.51658e+09
-8.6032e+09
-8.71651e+09
-8.84594e+09
-8.9732e+09
-9.0726e+09
-9.11228e+09
-9.05704e+09
-8.87505e+09
-8.54638e+09
-8.07053e+09
-7.47018e+09
-6.8321e+09
-6.51673e+09
-7.51011e+09
-1.07086e+10
-1.31863e+10
-6.63205e+09
-1.06609e+10
-1.06652e+10
-1.06648e+10
-1.06528e+10
-1.0649e+10
-1.06525e+10
-1.06616e+10
-1.06784e+10
-1.06997e+10
-1.07225e+10
-1.07446e+10
-1.07637e+10
-1.07749e+10
-1.07721e+10
-1.07538e+10
-1.07263e+10
-1.07152e+10
-1.07617e+10
-1.08512e+10
-1.09587e+10
-1.11732e+10
-1.16423e+10
-1.22684e+10
-1.17636e+10
-5.90249e+09
-7.72533e+09
-8.11739e+09
-8.30176e+09
-8.37747e+09
-8.3972e+09
-8.39007e+09
-8.37573e+09
-8.36827e+09
-8.37836e+09
-8.41408e+09
-8.48082e+09
-8.58016e+09
-8.70812e+09
-8.85387e+09
-8.99868e+09
-9.11533e+09
-9.169e+09
-9.12192e+09
-8.94148e+09
-8.60689e+09
-8.11288e+09
-7.47529e+09
-6.75828e+09
-6.22392e+09
-6.66878e+09
-9.29615e+09
-1.30924e+10
-8.97722e+09
-1.07146e+10
-1.06672e+10
-1.06662e+10
-1.06482e+10
-1.06453e+10
-1.06507e+10
-1.066e+10
-1.06752e+10
-1.06944e+10
-1.07166e+10
-1.07393e+10
-1.07593e+10
-1.07715e+10
-1.07697e+10
-1.07519e+10
-1.07254e+10
-1.07148e+10
-1.07528e+10
-1.084e+10
-1.09582e+10
-1.11573e+10
-1.16029e+10
-1.22511e+10
-1.2178e+10
-6.05703e+09
-7.77614e+09
-8.16223e+09
-8.34315e+09
-8.41725e+09
-8.43521e+09
-8.42507e+09
-8.40622e+09
-8.39216e+09
-8.3933e+09
-8.4177e+09
-8.47063e+09
-8.55356e+09
-8.66273e+09
-8.7879e+09
-8.91131e+09
-9.00725e+09
-9.043e+09
-8.98345e+09
-8.79864e+09
-8.46997e+09
-7.99658e+09
-7.40007e+09
-6.75881e+09
-6.40516e+09
-7.27293e+09
-1.03591e+10
-1.33225e+10
-7.39053e+09
-1.06934e+10
-1.06609e+10
-1.06579e+10
-1.06512e+10
-1.06475e+10
-1.06458e+10
-1.06486e+10
-1.06585e+10
-1.06757e+10
-1.06982e+10
-1.07226e+10
-1.07452e+10
-1.07601e+10
-1.07618e+10
-1.07489e+10
-1.07274e+10
-1.07132e+10
-1.07303e+10
-1.07842e+10
-1.08755e+10
-1.10568e+10
-1.14398e+10
-1.18606e+10
-1.17955e+10
-9.54877e+09
-8.38639e+09
-8.28541e+09
-8.35442e+09
-8.41996e+09
-8.44585e+09
-8.44136e+09
-8.42105e+09
-8.39899e+09
-8.3868e+09
-8.39391e+09
-8.42774e+09
-8.49311e+09
-8.59103e+09
-8.71747e+09
-8.86215e+09
-9.00697e+09
-9.12461e+09
-9.18002e+09
-9.13677e+09
-8.96567e+09
-8.649e+09
-8.18288e+09
-7.58402e+09
-6.91789e+09
-6.46582e+09
-7.06991e+09
-9.84322e+09
-1.28682e+10
-6.935e+09
-1.07036e+10
-1.06525e+10
-1.06426e+10
-1.06322e+10
-1.06269e+10
-1.06243e+10
-1.06264e+10
-1.06346e+10
-1.06488e+10
-1.06685e+10
-1.06916e+10
-1.07146e+10
-1.07325e+10
-1.07396e+10
-1.07328e+10
-1.07167e+10
-1.07049e+10
-1.07177e+10
-1.07612e+10
-1.0835e+10
-1.10023e+10
-1.13717e+10
-1.17298e+10
-1.1686e+10
-9.89457e+09
-8.43667e+09
-8.31814e+09
-8.38294e+09
-8.44672e+09
-8.47238e+09
-8.46801e+09
-8.44567e+09
-8.41929e+09
-8.40058e+09
-8.39882e+09
-8.42126e+09
-8.47251e+09
-8.55349e+09
-8.66039e+09
-8.78337e+09
-8.905e+09
-8.99894e+09
-9.03185e+09
-8.96981e+09
-8.78598e+09
-8.46537e+09
-8.00962e+09
-7.44297e+09
-6.84439e+09
-6.53252e+09
-7.39066e+09
-1.03064e+10
-1.28549e+10
-6.46781e+09
-1.06648e+10
-1.06352e+10
-1.06291e+10
-1.0621e+10
-1.06133e+10
-1.06071e+10
-1.06044e+10
-1.06062e+10
-1.06144e+10
-1.06288e+10
-1.06469e+10
-1.06644e+10
-1.06764e+10
-1.06778e+10
-1.06669e+10
-1.06461e+10
-1.06209e+10
-1.05987e+10
-1.05863e+10
-1.06008e+10
-1.06856e+10
-1.08537e+10
-1.08762e+10
-1.03264e+10
-9.51731e+09
-9.01281e+09
-8.77433e+09
-8.65598e+09
-8.59605e+09
-8.54842e+09
-8.50139e+09
-8.4548e+09
-8.41484e+09
-8.38913e+09
-8.38485e+09
-8.40785e+09
-8.46198e+09
-8.54791e+09
-8.66206e+09
-8.79509e+09
-8.92969e+09
-9.03931e+09
-9.09026e+09
-9.04888e+09
-8.89038e+09
-8.60269e+09
-8.1874e+09
-7.66617e+09
-7.11172e+09
-6.81031e+09
-7.55001e+09
-1.01892e+10
-1.27448e+10
-6.66801e+09
-1.06611e+10
-1.0634e+10
-1.0623e+10
-1.06126e+10
-1.06028e+10
-1.0595e+10
-1.05917e+10
-1.05936e+10
-1.06015e+10
-1.06154e+10
-1.06336e+10
-1.06528e+10
-1.06687e+10
-1.06765e+10
-1.06726e+10
-1.06575e+10
-1.06367e+10
-1.06185e+10
-1.06103e+10
-1.06279e+10
-1.07155e+10
-1.08825e+10
-1.08921e+10
-1.03519e+10
-9.51372e+09
-8.99599e+09
-8.75803e+09
-8.64524e+09
-8.59061e+09
-8.54779e+09
-8.50505e+09
-8.46076e+09
-8.42134e+09
-8.39482e+09
-8.38843e+09
-8.40797e+09
-8.45717e+09
-8.53671e+09
-8.64305e+09
-8.7667e+09
-8.89003e+09
-8.98633e+09
-9.02212e+09
-8.96411e+09
-8.78754e+09
-8.48072e+09
-8.04708e+09
-7.51053e+09
-6.94343e+09
-6.62688e+09
-7.3528e+09
-1.00328e+10
-1.26417e+10
-6.45936e+09
-1.06413e+10
-1.06215e+10
-1.06113e+10
-1.06001e+10
-1.05904e+10
-1.05815e+10
-1.05754e+10
-1.05736e+10
-1.05772e+10
-1.05868e+10
-1.06006e+10
-1.06149e+10
-1.06253e+10
-1.06289e+10
-1.06237e+10
-1.06094e+10
-1.05867e+10
-1.05572e+10
-1.05258e+10
-1.05071e+10
-1.05185e+10
-1.05275e+10
-1.03967e+10
-1.0021e+10
-9.56692e+09
-9.23496e+09
-9.01308e+09
-8.85547e+09
-8.74082e+09
-8.64907e+09
-8.57035e+09
-8.50223e+09
-8.44738e+09
-8.41065e+09
-8.39733e+09
-8.41186e+09
-8.45727e+09
-8.53401e+09
-8.63878e+09
-8.76236e+09
-8.88742e+09
-8.98723e+09
-9.02766e+09
-8.97469e+09
-8.80395e+09
-8.50586e+09
-8.08549e+09
-7.56643e+09
-7.01912e+09
-6.71624e+09
-7.41993e+09
-9.9586e+09
-1.23179e+10
-6.28861e+09
-1.06452e+10
-1.06225e+10
-1.06117e+10
-1.05989e+10
-1.05872e+10
-1.05764e+10
-1.0569e+10
-1.05665e+10
-1.05697e+10
-1.05787e+10
-1.05925e+10
-1.06079e+10
-1.06212e+10
-1.06292e+10
-1.06287e+10
-1.06182e+10
-1.05988e+10
-1.0574e+10
-1.05494e+10
-1.05391e+10
-1.05582e+10
-1.05692e+10
-1.04298e+10
-1.00319e+10
-9.54809e+09
-9.20297e+09
-8.98258e+09
-8.83084e+09
-8.72088e+09
-8.63344e+09
-8.55912e+09
-8.49503e+09
-8.44419e+09
-8.4119e+09
-8.40358e+09
-8.42379e+09
-8.47555e+09
-8.55934e+09
-8.67163e+09
-8.80253e+09
-8.9335e+09
-9.03656e+09
-9.07644e+09
-9.01728e+09
-8.83193e+09
-8.50746e+09
-8.04554e+09
-7.4647e+09
-6.82317e+09
-6.35718e+09
-6.79407e+09
-9.21268e+09
-1.21388e+10
-6.38783e+09
-1.06198e+10
-1.05988e+10
-1.0589e+10
-1.05767e+10
-1.05647e+10
-1.05528e+10
-1.05432e+10
-1.05375e+10
-1.05368e+10
-1.05422e+10
-1.05525e+10
-1.05637e+10
-1.05718e+10
-1.05748e+10
-1.05717e+10
-1.05603e+10
-1.05393e+10
-1.05093e+10
-1.04737e+10
-1.04408e+10
-1.04103e+10
-1.03477e+10
-1.01867e+10
-9.91084e+09
-9.60204e+09
-9.3383e+09
-9.12915e+09
-8.96184e+09
-8.82545e+09
-8.71111e+09
-8.61278e+09
-8.52953e+09
-8.46389e+09
-8.41971e+09
-8.40126e+09
-8.41237e+09
-8.45577e+09
-8.53211e+09
-8.6384e+09
-8.76548e+09
-8.89551e+09
-9.00074e+09
-9.04553e+09
-8.99368e+09
-8.81916e+09
-8.51262e+09
-8.0789e+09
-7.53783e+09
-6.95295e+09
-6.58841e+09
-7.20246e+09
-9.6868e+09
-1.22086e+10
-6.18613e+09
-1.06238e+10
-1.06023e+10
-1.05929e+10
-1.05797e+10
-1.05664e+10
-1.0553e+10
-1.05423e+10
-1.05361e+10
-1.05353e+10
-1.05401e+10
-1.05498e+10
-1.05612e+10
-1.05707e+10
-1.05756e+10
-1.05738e+10
-1.05627e+10
-1.0542e+10
-1.05133e+10
-1.04813e+10
-1.04525e+10
-1.04247e+10
-1.03605e+10
-1.01906e+10
-9.89919e+09
-9.57255e+09
-9.29947e+09
-9.08918e+09
-8.92385e+09
-8.78877e+09
-8.67637e+09
-8.58117e+09
-8.50219e+09
-8.44238e+09
-8.40584e+09
-8.3971e+09
-8.42014e+09
-8.47785e+09
-8.57098e+09
-8.69609e+09
-8.84291e+09
-8.99213e+09
-9.11422e+09
-9.17158e+09
-9.12494e+09
-8.94331e+09
-8.61097e+09
-8.12572e+09
-7.49655e+09
-6.76639e+09
-6.15244e+09
-6.35424e+09
-8.58406e+09
-1.18206e+10
-6.77716e+09
-1.05954e+10
-1.05779e+10
-1.05701e+10
-1.05587e+10
-1.05473e+10
-1.05355e+10
-1.05254e+10
-1.05186e+10
-1.05166e+10
-1.05204e+10
-1.0529e+10
-1.05389e+10
-1.05456e+10
-1.05472e+10
-1.05431e+10
-1.05316e+10
-1.05106e+10
-1.04789e+10
-1.04388e+10
-1.03923e+10
-1.0332e+10
-1.02334e+10
-1.00685e+10
-9.84275e+09
-9.59848e+09
-9.37302e+09
-9.1774e+09
-9.00945e+09
-8.86439e+09
-8.73852e+09
-8.62883e+09
-8.53552e+09
-8.46177e+09
-8.41165e+09
-8.38943e+09
-8.39903e+09
-8.44348e+09
-8.52378e+09
-8.63733e+09
-8.77528e+09
-8.91924e+09
-9.04007e+09
-9.10086e+09
-9.06461e+09
-8.90549e+09
-8.61505e+09
-8.19897e+09
-7.67455e+09
-7.10176e+09
-6.76698e+09
-7.47056e+09
-1.00594e+10
-1.24953e+10
-6.38024e+09
-1.0601e+10
-1.05816e+10
-1.05747e+10
-1.05628e+10
-1.05504e+10
-1.05372e+10
-1.05257e+10
-1.0518e+10
-1.05152e+10
-1.05179e+10
-1.05255e+10
-1.0535e+10
-1.05424e+10
-1.0545e+10
-1.05409e+10
-1.05284e+10
-1.05061e+10
-1.04739e+10
-1.04341e+10
-1.03885e+10
-1.03285e+10
-1.02267e+10
-1.00538e+10
-9.81619e+09
-9.56111e+09
-9.33008e+09
-9.13455e+09
-8.96873e+09
-8.82509e+09
-8.70075e+09
-8.59321e+09
-8.50273e+09
-8.43306e+09
-8.38848e+09
-8.37346e+09
-8.39226e+09
-8.44809e+09
-8.54196e+09
-8.67073e+09
-8.82451e+09
-8.98401e+09
-9.11892e+09
-9.19016e+09
-9.15745e+09
-8.99005e+09
-8.67386e+09