/*--------------------------------*- C++ -*----------------------------------*\
| =========                 |                                                 |
| \\      /  F ield         | OpenFOAM: The Open Source CFD Toolbox           |
|  \\    /   O peration     | Version:  4.1                                   |
|   \\  /    A nd           | Web:      www.OpenFOAM.org                      |
|    \\/     M anipulation  |                                                 |
\*---------------------------------------------------------------------------*/
FoamFile
{
    version     2.0;
    format      ascii;
    class       volScalarField;
    location    "63";
    object      p;
}
// * * * * * * * * * * * * * * * * * * * * * * * * * * * * * * * * * * * * * //

dimensions      [0 2 -2 0 0 0 0];

internalField   nonuniform List<scalar> 
4432
(
100907
100907
100908
100910
100913
100916
100920
100924
100930
100937
100944
100952
100961
100969
100977
100985
100992
100998
101004
101016
101033
101052
101072
101094
101118
101144
101167
101185
101198
101208
101216
101221
101227
101236
101243
101241
101236
101240
101246
101249
101252
101256
101263
101271
101277
101283
101274
101277
101291
101284
101239
101202
101191
101213
100907
100907
100908
100910
100913
100916
100920
100924
100930
100937
100944
100953
100961
100969
100978
100986
100992
100997
101004
101016
101034
101053
101073
101095
101120
101145
101167
101185
101198
101210
101218
101224
101229
101235
101240
101240
101237
101238
101243
101250
101256
101259
101263
101266
101272
101289
101285
101274
101281
101277
101240
101214
101177
101201
100906
100906
100906
100908
100910
100914
100917
100922
100927
100934
100941
100950
100959
100968
100979
100992
101009
101028
101044
101055
101068
101085
101102
101118
101135
101151
101168
101184
101200
101214
101223
101230
101232
101231
101229
101223
101222
101228
101237
101248
101251
101250
101256
101265
101273
101279
101282
101285
101291
101286
101272
101251
101101
101255
100906
100906
100906
100908
100910
100914
100917
100922
100927
100934
100942
100950
100959
100968
100979
100992
101008
101028
101045
101056
101068
101083
101100
101116
101132
101149
101166
101182
101198
101211
101219
101223
101226
101231
101231
101227
101224
101229
101238
101249
101253
101253
101257
101266
101272
101279
101283
101284
101292
101289
101269
101253
101087
101253
100904
100904
100905
100907
100909
100913
100916
100921
100926
100933
100940
100949
100958
100968
100978
100990
101004
101017
101031
101047
101064
101081
101098
101114
101131
101150
101169
101187
101205
101221
101232
101238
101247
101251
101240
101223
101220
101232
101247
101260
101257
101249
101254
101266
101276
101282
101292
101293
101289
101276
101267
101256
101252
101314
100904
100904
100905
100907
100909
100913
100916
100921
100926
100933
100940
100949
100958
100968
100978
100990
101004
101017
101031
101047
101063
101081
101097
101113
101129
101148
101167
101186
101204
101220
101230
101234
101239
101244
101242
101230
101227
101234
101244
101254
101257
101252
101256
101268
101275
101281
101288
101294
101292
101281
101266
101247
101234
101332
100902
100902
100903
100904
100907
100910
100914
100918
100923
100930
100937
100946
100955
100964
100974
100986
100998
101009
101024
101041
101059
101077
101093
101109
101128
101150
101173
101194
101216
101235
101249
101263
101281
101278
101251
101211
101202
101220
101243
101265
101255
101241
101252
101267
101278
101286
101299
101301
101297
101281
101265
101262
101269
101259
100902
100902
100903
100904
100907
100910
100914
100918
100923
100930
100937
100946
100955
100964
100975
100986
100998
101009
101023
101041
101059
101076
101093
101109
101128
101151
101173
101194
101216
101235
101248
101260
101275
101274
101256
101229
101221
101231
101246
101257
101253
101245
101252
101265
101277
101287
101297
101302
101295
101283
101268
101264
101247
101246
100899
100899
100900
100901
100904
100907
100911
100915
100920
100926
100934
100942
100951
100960
100970
100981
100992
101004
101017
101032
101049
101067
101084
101102
101123
101150
101178
101204
101230
101252
101270
101291
101311
101312
101339
101183
101184
101207
101232
101270
101265
101238
101255
101270
101282
101292
101293
101300
101313
101308
101299
101264
101252
101321
100899
100899
100900
100901
100904
100907
100911
100915
100920
100926
100934
100942
100951
100960
100970
100981
100992
101004
101017
101032
101048
101066
101084
101102
101125
101151
101178
101204
101232
101256
101272
101288
101305
101301
101284
101232
101209
101220
101244
101270
101270
101248
101254
101265
101278
101290
101300
101308
101309
101303
101289
101279
101235
101298
100895
100896
100896
100898
100900
100903
100907
100911
100916
100922
100929
100937
100946
100955
100964
100974
100985
100997
101008
101022
101039
101056
101073
101091
101113
101141
101172
101202
101233
101260
101280
101305
101338
101487
101754
101307
101186
101188
101209
101219
101222
101262
101272
101275
101282
101293
101294
101303
101319
101327
101320
101274
101254
101319
100895
100895
100896
100898
100900
100903
100907
100911
100916
100922
100929
100937
100946
100955
100964
100974
100985
100996
101008
101022
101039
101056
101074
101091
101114
101142
101172
101200
101232
101260
101279
101293
101310
101353
101388
101267
101197
101201
101224
101251
101264
101257
101263
101270
101279
101287
101295
101305
101315
101318
101311
101276
101266
101338
100891
100891
100892
100894
100896
100899
100902
100906
100911
100917
100924
100932
100940
100948
100958
100967
100978
100989
101000
101013
101029
101046
101063
101078
101096
101123
101154
101183
101211
101238
101265
101302
101386
101750
101596
101521
101216
101205
101217
101224
101231
101265
101279
101281
101286
101296
101300
101306
101316
101328
101334
101305
101259
101301
100891
100891
100892
100894
100896
100899
100902
100906
100911
100917
100924
100932
100940
100948
100958
100967
100978
100989
101000
101014
101029
101046
101063
101080
101098
101124
101153
101180
101209
101238
101260
101283
101317
101402
101476
101321
101190
101192
101216
101231
101243
101257
101270
101278
101285
101290
101291
101298
101311
101321
101320
101295
101283
101303
100887
100887
100887
100889
100891
100894
100897
100901
100905
100911
100918
100925
100933
100941
100950
100959
100969
100980
100992
101005
101019
101034
101049
101063
101075
101095
101124
101150
101171
101189
101210
101239
101270
101368
101388
101280
101215
101209
101219
101232
101244
101257
101271
101279
101284
101293
101298
101297
101302
101316
101334
101321
101279
101305
100887
100887
100887
100889
100891
100894
100897
100901
100905
100911
100918
100925
100933
100941
100950
100959
100969
100980
100992
101005
101019
101034
101049
101064
101079
101098
101123
101145
101167
101191
101209
101232
101269
101308
101348
101272
101206
101206
101225
101244
101252
101257
101265
101274
101285
101292
101291
101291
101302
101319
101333
101315
101282
101313
100881
100882
100882
100884
100886
100888
100891
100895
100899
100904
100911
100918
100925
100933
100941
100951
100961
100971
100983
100995
101007
101020
101032
101043
101053
101062
101082
101104
101127
101148
101169
101191
101224
101253
101279
101236
101210
101214
101226
101234
101243
101253
101267
101280
101289
101293
101292
101286
101288
101304
101328
101325
101299
101320
100881
100882
100882
100884
100886
100888
100891
100895
100899
100904
100911
100918
100925
100933
100941
100951
100961
100971
100983
100995
101007
101020
101031
101042
101052
101064
101082
101103
101124
101145
101167
101192
101225
101253
101275
101256
101232
101227
101235
101248
101259
101262
101263
101272
101286
101294
101291
101286
101293
101313
101331
101320
101297
101332
100876
100876
100876
100878
100880
100882
100885
100888
100892
100897
100903
100909
100916
100924
100932
100941
100951
100962
100973
100984
100995
101005
101013
101019
101023
101026
101038
101061
101089
101115
101140
101169
101205
101234
101266
101264
101253
101249
101250
101255
101263
101269
101278
101292
101303
101304
101296
101284
101280
101293
101319
101328
101323
101323
100876
100876
100876
100878
100880
100882
100885
100888
100892
100897
100903
100909
100916
100924
100932
100941
100951
100962
100973
100984
100995
101005
101012
101017
101020
101025
101039
101063
101088
101114
101140
101169
101203
101238
101267
101272
101265
101262
101266
101272
101277
101277
101277
101286
101300
101305
101295
101284
101284
101298
101317
101325
101320
101336
100870
100870
100870
100871
100873
100875
100878
100880
100884
100889
100894
100900
100907
100914
100922
100931
100941
100951
100963
100974
100984
100992
100995
100992
100983
100979
100993
101025
101060
101092
101124
101159
101195
101232
101267
101284
101292
101300
101308
101313
101316
101316
101314
101315
101317
101319
101311
101292
101277
101282
101307
101320
101304
101253
100870
100870
100870
100871
100873
100875
100877
100880
100884
100889
100894
100900
100907
100914
100922
100931
100941
100951
100963
100974
100984
100992
100995
100991
100981
100978
100996
101027
101059
101091
101124
101160
101197
101235
101266
101283
101294
101305
101317
101325
101328
101325
101319
101315
101320
101321
101309
101290
101280
101286
101305
101318
101290
101261
100863
100863
100864
100864
100866
100868
100870
100872
100876
100880
100885
100890
100896
100903
100911
100919
100929
100940
100953
100965
100977
100984
100983
100968
100933
100913
100935
100980
101024
101061
101100
101142
101184
101225
101264
101295
101322
101347
101365
101373
101369
101358
101345
101334
101325
101323
101318
101302
101281
101274
101288
101304
101293
101265
100863
100863
100864
100864
100866
100868
100870
100872
100876
100880
100885
100890
100896
100903
100911
100919
100929
100940
100953
100965
100976
100984
100982
100966
100930
100912
100938
100982
101023
101060
101100
101143
101185
101226
101263
101295
101324
101349
101369
101378
101375
101364
101349
101335
101328
101326
101316
101297
101280
101278
101291
101304
101285
101296
100856
100856
100857
100857
100859
100860
100862
100864
100867
100870
100874
100879
100885
100891
100898
100907
100916
100928
100942
100958
100973
100985
100983
100952
100869
100828
100859
100924
100980
101025
101070
101117
101165
101215
101265
101314
101358
101395
101419
101424
101410
101386
101363
101346
101335
101329
101323
101310
101290
101274
101273
101279
101276
101256
100856
100856
100857
100857
100859
100860
100862
100864
100867
100870
100875
100879
100885
100891
100898
100906
100916
100928
100942
100958
100973
100984
100981
100945
100857
100823
100867
100930
100982
101025
101071
101118
101166
101215
101265
101315
101361
101398
101423
101426
101410
101387
101364
101347
101337
101330
101321
101305
101286
101275
101275
101280
101275
101251
100849
100849
100849
100850
100851
100852
100853
100855
100857
100860
100864
100868
100872
100878
100884
100892
100902
100914
100930
100950
100977
101006
101024
100970
100793
100671
100756
100867
100936
100984
101034
101087
101141
101200
101265
101332
101395
101443
101477
101476
101446
101407
101374
101355
101343
101335
101326
101314
101295
101275
101264
101264
101264
101252
100849
100849
100849
100850
100851
100852
100853
100855
100857
100860
100864
100868
100872
100878
100884
100892
100902
100914
100930
100950
100976
101005
101022
100961
100756
100680
100772
100868
100935
100986
101037
101088
101141
101200
101265
101331
101397
101443
101494
101489
101451
101404
101370
101350
101340
101333
101325
101311
101291
101274
101265
101264
101268
101248
100842
100842
100842
100842
100843
100843
100844
100845
100847
100849
100852
100855
100859
100863
100868
100875
100884
100896
100912
100935
100973
101041
101110
101115
100612
100362
100586
100811
100897
100935
100986
101044
101104
101173
101253
101340
101424
101478
101541
101542
101487
101419
101375
101353
101340
101330
101321
101310
101294
101276
101263
101257
101260
101249
100842
100842
100842
100842
100843
100843
100844
100845
100847
100849
100852
100855
100859
100863
100868
100875
100884
100896
100912
100935
100972
101038
101104
101092
100428
100499
100670
100822
100897
100945
100995
101049
101106
101173
101257
101347
101438
101461
101538
101545
101481
101411
101372
101353
101340
101329
101319
101307
101290
101273
101262
101258
101264
101248
100834
100834
100834
100834
100834
100835
100835
100836
100836
100838
100840
100842
100844
100847
100851
100856
100863
100872
100885
100905
100935
100983
101102
101379
100369
100587
100792
100863
100881
100921
100976
101039
101117
101217
101330
101448
101487
101555
101600
101530
101435
101379
101350
101329
101313
101303
101295
101284
101271
101259
101251
101255
101241
100834
100834
100834
100834
100834
100835
100835
100836
100836
100838
100840
100842
100844
100847
100851
100856
100863
100872
100885
100905
100934
100981
101097
101359
100315
100617
100797
100868
100897
100937
100986
101043
101118
101207
101339
101457
101443
101425
101572
101515
101431
101380
101350
101327
101310
101299
101291
101281
101269
101259
101252
101257
101244
100827
100827
100826
100826
100826
100826
100826
100826
100826
100826
100827
100828
100829
100830
100832
100835
100838
100843
100850
100859
100867
100864
100825
100749
100425
100472
100762
100887
100883
100864
100876
100903
100944
101018
101125
101243
101374
101404
101464
101639
101564
101461
101388
101339
101303
101280
101268
101264
101262
101258
101254
101248
101254
101236
100827
100827
100826
100826
100826
100826
100826
100826
100826
100826
100827
100828
100829
100830
100832
100835
100838
100843
100850
100859
100866
100862
100820
100735
100441
100534
100802
100898
100884
100870
100885
100910
100947
101007
101063
101236
101245
101485
101422
101436
101453
101422
101378
101336
101303
101280
101268
101263
101260
101256
101253
101248
101254
101240
100819
100819
100818
100818
100818
100817
100816
100816
100815
100814
100814
100813
100813
100812
100812
100812
100812
100812
100812
100810
100803
100784
100749
100678
100611
100627
100773
100846
100854
100852
100846
100836
100840
100894
101064
101238
101213
101419
101697
101493
101444
101411
101352
101298
101260
101237
101227
101227
101232
101238
101244
101248
101262
101244
100819
100819
100818
100818
100818
100817
100816
100816
100815
100814
100814
100813
100813
100812
100812
100812
100812
100812
100812
100810
100803
100784
100748
100677
100604
100639
100783
100849
100852
100847
100842
100835
100836
100865
100918
101150
100949
101325
101783
100822
101246
101383
101353
101302
101263
101240
101229
101227
101231
101236
101242
101247
101259
101241
100812
100812
100811
100810
100809
100808
100807
100805
100804
100802
100801
100799
100797
100794
100791
100788
100785
100780
100774
100766
100753
100733
100704
100665
100621
100620
100673
100730
100767
100783
100779
100756
100728
100725
100837
101103
102148
101276
100391
100744
101245
101363
101311
101251
101212
101193
101187
101189
101197
101209
101221
101231
101256
101240
100812
100811
100811
100810
100809
100808
100807
100805
100804
100802
100801
100799
100797
100794
100791
100788
100785
100780
100774
100766
100753
100732
100704
100665
100623
100628
100682
100734
100761
100772
100768
100749
100730
100653
100803
101135
101644
99460.5
99932.4
99462.3
100257
101185
101305
101257
101213
101193
101188
101190
101197
101207
101220
101231
101257
101247
100804
100804
100803
100802
100801
100800
100798
100796
100793
100790
100788
100784
100781
100776
100771
100765
100758
100749
100739
100725
100708
100686
100659
100627
100596
100584
100602
100632
100654
100664
100661
100645
100535
100596
100659
99644.3
98870.1
98414.3
98601.9
99291.8
100235
101101
101231
101168
101140
101134
101138
101148
101162
101179
101192
101202
101221
101204
100804
100804
100803
100802
100801
100800
100798
100796
100793
100790
100788
100784
100781
100776
100771
100765
100758
100749
100739
100725
100708
100686
100659
100627
100598
100589
100606
100633
100649
100654
100653
100646
100652
100682
100617
100186
101972
99016.4
98747.4
98899.4
99593.6
100585
101149
101175
101140
101129
101135
101148
101163
101178
101189
101197
101230
101230
100798
100797
100796
100795
100793
100792
100789
100786
100783
100779
100775
100770
100765
100758
100751
100742
100732
100719
100705
100688
100667
100642
100613
100583
100555
100535
100528
100528
100524
100524
100525
100555
100299
100514
100929
100261
98173.9
98088.3
98747.4
99303
99888.9
100655
101011
101039
101051
101065
101083
101104
101131
101161
101186
101198
101218
101238
100798
100797
100796
100795
100794
100792
100789
100786
100783
100779
100775
100770
100765
100758
100751
100742
100732
100719
100705
100688
100667
100642
100614
100584
100555
100536
100528
100526
100519
100513
100513
100563
100535
100608
100854
99356.3
99455.9
98483
98940.4
99406.4
100023
100606
100874
100985
101046
101065
101081
101104
101133
101161
101179
101192
101202
101194
100791
100791
100790
100788
100786
100784
100781
100777
100773
100768
100763
100757
100750
100741
100731
100720
100707
100691
100673
100652
100628
100599
100567
100533
100498
100464
100434
100407
100381
100378
100408
100670
100453
99523.3
99473.1
98929.1
98048.9
98365.3
99087.4
99661.5
100013
100340
100816
100918
100968
100996
101023
101055
101095
101142
101185
101211
101253
101275
100791
100791
100790
100788
100786
100784
100781
100777
100773
100768
100763
100757
100750
100741
100731
100720
100707
100691
100673
100652
100628
100599
100568
100533
100497
100463
100433
100404
100374
100351
100323
100392
100656
99817
95787.3
96157.1
97670.6
98346.4
99168.9
99787.4
100220
100425
100659
100864
100964
101000
101025
101056
101097
101143
101183
101205
101219
101244
100785
100785
100783
100781
100779
100776
100773
100768
100763
100758
100751
100744
100735
100725
100713
100700
100684
100665
100644
100619
100590
100557
100519
100477
100430
100379
100327
100272
100221
100199
100306
100525
100752
99624.1
97583.1
97356.6
97940.7
98662.6
99249.1
99578.3
99833.1
100046
100497
100807
100899
100934
100961
100998
101047
101101
101154
101195
101234
101237
100785
100785
100783
100782
100779
100776
100773
100768
100763
100758
100751
100744
100735
100725
100713
100700
100684
100665
100644
100619
100590
100557
100519
100476
100429
100379
100326
100271
100210
100165
100092
100354
100512
99447.1
96520.8
97007.8
97938.6
98723.7
99303
99627
99927.8
100142
100433
100759
100889
100934
100964
101000
101048
101102
101158
101198
101237
101262
100780
100779
100778
100776
100773
100770
100766
100761
100755
100748
100741
100732
100722
100711
100697
100681
100662
100641
100616
100587
100554
100515
100470
100418
100359
100291
100214
100120
100023
99816.7
100093
100194
100375
91343.1
93453
96643.2
98200.9
99078.4
99328.7
99302.2
99504
99887.1
100336
100666
100794
100856
100893
100936
100990
101049
101122
101175
101222
101255
100780
100779
100778
100776
100773
100770
100766
100761
100755
100748
100741
100732
100722
100711
100697
100681
100663
100641
100616
100587
100554
100515
100470
100418
100358
100291
100213
100123
100017
99878.4
99787.8
99876.9
97780
96697.8
96634.8
97425.5
98483.3
99218.1
99369.4
99277.6
99514.9
99954.6
100360
100648
100784
100853
100897
100939
100991
101048
101118
101177
101208
101199
100775
100774
100773
100770
100768
100764
100759
100754
100747
100740
100732
100722
100711
100698
100682
100664
100644
100619
100591
100559
100520
100476
100423
100362
100289
100204
100102
99970.5
99804.6
99485
98994.2
100305
96130
92586.8
95248.5
97866.5
99460.1
100005
99661.4
99230
99356.3
99774.8
100200
100510
100671
100771
100827
100874
100927
100988
101067
101142
101204
101254
100775
100774
100773
100770
100768
100764
100759
100754
100747
100740
100732
100722
100711
100698
100682
100664
100644
100619
100591
100559
100520
100475
100423
100361
100289
100203
100101
99981.3
99815.7
99573.8
99270.7
98925.4
96365.5
94171.4
96462.4
98372.5
99721.8
100142
99686.6
99183.9
99339.6
99841.6
100261
100506
100660
100765
100827
100879
100928
100981
101057
101134
101191
101254
100771
100770
100768
100766
100763
100759
100754
100748
100741
100733
100724
100713
100701
100686
100669
100650
100627
100600
100569
100533
100490
100440
100381
100310
100225
100123
99998.3
99841.1
99628.1
99332.7
98764.5
98492.1
100037
100231
99735.4
100457
101282
101109
100086
99178.2
99171.9
99604.9
100042
100376
100576
100700
100774
100820
100864
100904
100937
101004
101149
101280
100771
100770
100768
100766
100763
100759
100754
100748
100741
100733
100724
100713
100701
100686
100669
100650
100627
100600
100569
100533
100490
100440
100380
100310
100224
100122
99991.2
99844.3
99658.9
99418.8
99118.7
98415.7
97072
97676.1
99211
100616
101513
101224
100093
99130
99146.6
99651.8
100089
100373
100563
100692
100770
100824
100868
100904
100933
100957
101102
101264
100767
100767
100765
100762
100759
100755
100750
100743
100736
100727
100717
100706
100693
100677
100659
100638
100613
100585
100551
100512
100465
100410
100344
100266
100171
100056
99914.8
99740.3
99503.8
99204.2
98709.2
98106
98348.3
99644.5
99800.4
100557
101503
101338
100226
99057.1
98972.1
99466.3
99985.3
100326
100516
100643
100743
100798
100838
100852
100852
100891
100980
101222
100767
100767
100765
100762
100759
100755
100750
100743
100736
100727
100717
100706
100693
100677
100659
100638
100613
100585
100551
100512
100465
100410
100344
100265
100170
100050
99912.5
99741.2
99511.8
99229.1
98959.6
97831.2
97383.5
98635.6
99813.1
101026
101708
101340
100237
99086.8
98943.9
99471.1
100008
100337
100516
100637
100734
100798
100853
100885
100885
100850
100854
101177
100765
100764
100762
100759
100756
100752
100746
100739
100732
100723
100712
100700
100686
100670
100651
100629
100603
100572
100537
100495
100445
100386
100316
100232
100131
100008
99857.5
99667.7
99420.9
99105.2
98717.8
98096
97740
98259.1
97835.6
99013.3
100219
100598
100188
99396.9
99198.8
99611
100074
100392
100526
100634
100736
100788
100827
100838
100871
100858
100699
101098
100765
100764
100762
100759
100756
100752
100746
100739
100732
100723
100712
100700
100686
100670
100651
100629
100603
100572
100537
100495
100445
100386
100316
100231
100130
100007
99864.1
99673.5
99414.8
99097.5
98676.1
98039.9
97740.3
98272.2
99026.1
99749.7
99814.1
100079
99971.4
99480.3
99249.8
99582.7
100064
100406
100549
100632
100723
100791
100842
100874
100935
100912
100619
100993
100764
100763
100761
100758
100754
100750
100744
100737
100729
100720
100709
100697
100682
100665
100646
100622
100596
100564
100527
100483
100431
100370
100296
100209
100103
99974.1
99816.4
99619.6
99371
99057.3
98688.5
98192.5
97729
97113.8
96279.1
96425.1
95765.9
95864.6
96426.5
97835.4
98863.4
99741.6
100203
100485
100633
100727
100787
100815
100838
100862
100947
100936
100584
100905
100763
100763
100761
100758
100754
100750
100744
100737
100729
100720
100709
100697
100682
100665
100646
100623
100596
100564
100527
100483
100431
100370
100296
100208
100103
99974.5
99818.6
99626.5
99372.9
99047.9
98703.2
98210.6
97756.1
97590.7
97096
96176
95119.3
95335.2
96100.2
97648.3
98940.3
99749.7
100200
100481
100632
100729
100787
100820
100841
100877
101008
101045
100618
100871
100762
100761
100759
100757
100753
100748
100743
100736
100727
100718
100707
100695
100680
100663
100643
100619
100592
100560
100522
100477
100424
100361
100286
100196
100088
99956.2
99795
99595.7
99347.7
99039.6
98665.7
98187
97588.8
97020.4
96427.3
95162
92952.7
92241.8
93091.6
95328.2
97621.3
99100.6
99865.6
100261
100540
100722
100796
100819
100831
100853
100875
100821
100712
100915
100762
100761
100759
100757
100753
100748
100743
100736
100728
100718
100707
100695
100680
100663
100643
100619
100592
100559
100522
100477
100424
100361
100286
100196
100088
99956.4
99795.7
99598.2
99350.4
99043.7
98686.8
98252.8
97769.6
97084.5
95808.3
94180.4
92926.6
92421.9
93172.7
95203.9
97529.5
99099.4
99871
100252
100513
100711
100803
100822
100835
100864
100896
100848
100726
100890
100704
101100
100553
101504
101506
100538
100474
100528
100433
100335
100517
101086
100477
101509
101464
100516
100322
100483
100309
100327
101376
100823
100485
100797
100407
100479
100345
100473
100293
100386
100273
101348
100788
100394
100787
100371
100310
100325
100359
100303
100340
100358
100894
100965
100882
101017
100900
101007
100881
100726
100775
100710
100711
100628
100680
100598
100867
100956
100859
100996
100838
100992
100812
100699
100748
100696
100609
100559
100567
100541
101176
101108
101172
101157
101307
101156
101309
100535
100661
100592
100658
100571
100455
100428
100522
100335
100348
100301
100346
101164
101102
101163
101154
101294
101148
101298
100176
100571
100363
100445
100359
100573
100522
100602
100295
100390
100345
100469
101188
101101
101191
100967
100952
100965
100944
100610
101390
101079
101076
100665
100350
100412
100389
100310
100387
100335
100422
100321
100433
101183
101094
101185
100960
100934
100959
100935
100549
101359
101072
100551
101065
100313
100313
100419
100354
100479
100362
100466
100413
100504
100589
100742
100584
100707
100601
100708
100605
100241
100432
100314
100505
100485
100513
100509
100584
100732
100582
100708
100608
100709
100611
100381
100442
100397
100519
100519
100521
100518
100991
100905
100683
100897
101033
100981
100659
100841
100881
100976
101344
101425
101516
101431
101361
101142
101185
101344
101428
101513
101430
101340
101137
101130
100485
100560
100612
100623
100408
100532
100559
100523
100426
100409
100412
100543
100496
100404
100497
100369
100358
100382
100403
100906
100801
100512
100802
101015
100942
100479
100779
100773
100922
101349
101408
101491
101312
101432
101182
101109
101335
101421
101481
101419
101327
101159
101117
100129
100325
100382
100399
100089
100230
100372
100344
100354
100300
100390
100354
100177
100138
100325
100337
100303
100348
100284
100292
100352
100597
101386
101074
101069
100575
100268
100222
100332
100580
100465
100572
100384
100314
100437
100540
100246
100560
100387
100448
100449
100402
100436
100317
100309
100349
100387
100304
100334
100311
100350
100451
100459
100440
100378
100332
100429
100393
100334
100423
100191
100196
100565
101356
101054
101060
100590
100218
100265
100192
100532
100377
100220
100519
100213
100380
100507
100520
100270
100305
100303
100286
100313
100285
100290
100319
100306
100309
100315
100300
100319
100319
100370
100330
100329
100347
100299
100336
100353
100336
100319
101184
101047
101112
101252
101041
101253
101192
101140
100999
101085
101229
100986
101155
101231
101176
101106
101017
101245
101030
101249
101172
100567
100611
100541
100430
100596
100421
100582
100527
100534
100557
100423
100568
100416
100473
101152
101093
100998
101256
100998
101248
101152
100430
100540
100496
100434
100481
100457
100432
100401
100488
100447
100398
100453
100417
100372
100739
100900
100739
100817
100891
100734
100747
100719
100875
100809
100703
100882
100693
100724
100330
100354
100342
100264
100305
100320
100363
100282
100267
100254
100332
100267
100281
100319
100654
100864
100688
100781
100662
100852
100678
100668
100866
100785
100682
100861
100683
100678
100287
100272
100344
100333
100287
100278
100335
100289
100314
100348
100339
100299
100322
100303
100590
100608
100493
100561
100626
100545
100551
100398
100300
100271
100398
100390
100203
100247
100340
100585
100570
100628
100563
100631
100568
100566
100112
100344
100240
99778.1
100405
100016
99893.5
99887.9
99762.2
99925.8
99787
100231
100299
100531
100083
100319
100469
100004
99773.8
99666.9
99741
99676.1
101050
100808
100860
100620
100813
101039
100872
101267
101522
101532
101278
101259
101512
101517
101248
101062
100620
100860
100874
100831
100877
101058
100380
100409
101104
100774
100536
100845
100812
101032
100831
101345
101543
101450
101277
101336
101540
101485
101195
101125
100538
100826
100822
101051
100821
100840
100306
100312
100585
100935
100586
101002
100948
100562
100606
100438
100341
100309
100456
100415
100238
100273
100389
100585
101004
100946
100642
100950
100607
100639
100509
100923
100562
100966
100542
100905
100529
100272
99954.7
100037
100306
100323
100204
100369
100153
100499
100958
100901
100448
100895
100522
100556
101566
101396
101550
101344
101395
101549
101563
101625
101606
101618
101611
101618
101602
101607
101612
101574
101356
101398
101557
101401
101561
101553
101147
101156
101566
101395
101352
101552
101395
101563
101550
101625
101619
101613
101602
101571
101357
101411
101565
101397
101550
101574
101617
101607
101616
101603
101138
101136
100412
100567
100409
100451
100481
100539
100326
100124
99834.5
99995
99978.7
100183
100142
100262
100079
100387
100408
100546
100201
100373
100510
100268
100548
100553
100467
100506
100473
100534
100520
100482
100458
100473
100500
100508
100472
100450
100460
100437
100485
100482
100540
100525
100498
100528
100497
100481
100459
100420
100429
100482
100467
100453
100467
100434
100441
100384
100366
100383
100380
100419
100433
100423
100406
100443
100425
100411
100397
100422
100407
100401
100423
100829
100894
100400
100847
100406
100389
100137
99854.6
99895.4
100158
100370
100956
100896
100608
100854
100440
100463
100203
99861
99918.4
100172
100311
100811
100466
100922
100326
100807
100435
100077
99857.8
99797.2
100129
100070
99811.3
100097
99782.9
100315
100868
100808
100432
100800
100386
100392
101624
101379
101404
101697
101369
101603
101632
101862
101628
101519
101586
101576
101381
101415
101703
101359
101582
101583
101709
101710
101542
101701
101214
101206
101630
101379
101674
101329
101353
101576
101645
101677
101569
101639
101589
101660
101634
101659
101636
101619
101328
101365
101638
101341
101711
101543
101185
101131
100026
100319
99721.7
100112
99998
100328
99720.3
99644.6
99722.7
99633.2
99726
99669
99638.4
99658
99620.1
99968
100088
100259
99702.9
100287
99699.7
99984.9
100284
100335
100343
100348
100383
100348
100384
100359
100340
100365
100353
100373
100347
100371
100362
100407
100393
100388
100397
100374
100340
100321
100331
100330
100146
100146
100324
100376
100332
100293
100353
100341
100307
100335
100331
100330
100348
100332
100315
100330
100320
100315
100282
100334
100312
100336
100306
100322
100298
100295
101042
100809
100849
100594
101032
100816
100853
101252
101516
101243
101508
101253
101515
101246
101515
101050
100590
100818
100841