/*--------------------------------*- C++ -*----------------------------------*\
| =========                 |                                                 |
| \\      /  F ield         | OpenFOAM: The Open Source CFD Toolbox           |
|  \\    /   O peration     | Version:  4.1                                   |
|   \\  /    A nd           | Web:      www.OpenFOAM.org                      |
|    \\/     M anipulation  |                                                 |
\*---------------------------------------------------------------------------*/
FoamFile
{
    version     2.0;
    format      ascii;
    class       volVectorField;
    location    "63";
    object      U;
}
// * * * * * * * * * * * * * * * * * * * * * * * * * * * * * * * * * * * * * //

dimensions      [0 1 -1 0 0 0 0];

internalField   nonuniform List<vector> 
4432
(
(39.9819 0.000150522 0.050409)
(39.9169 0.000208257 0.0901051)
(39.8205 0.000611511 0.118778)
(39.6873 0.000687961 0.146593)
(39.5135 0.000520241 0.175599)
(39.3009 0.000410243 0.206028)
(39.0508 0.000415523 0.238218)
(38.7616 0.000450287 0.271724)
(38.4302 0.000454827 0.306585)
(38.0551 0.000390602 0.342228)
(37.6371 0.00027447 0.37674)
(37.179 0.0001918 0.41048)
(36.6855 -0.000132456 0.437091)
(36.1744 -0.00032202 0.456291)
(35.6467 -0.00355591 0.449401)
(35.2201 -0.00803452 0.394809)
(34.8544 -0.00695448 0.435372)
(34.7096 -0.00399981 0.341165)
(34.7751 -0.0024265 0.249016)
(34.7199 0.00127195 0.392976)
(34.4598 -0.00220466 0.498494)
(34.0862 -0.0123979 0.625757)
(33.6104 -0.0232554 0.701856)
(33.0715 -0.032625 0.690869)
(32.4736 -0.0398511 0.670788)
(31.8433 -0.0454795 0.54207)
(31.2698 -0.0411837 0.336892)
(30.7824 -0.0262774 0.119084)
(30.422 -0.0167528 0.0262589)
(30.1801 -0.0198129 0.027785)
(30.0101 -0.0337989 0.140871)
(29.832 -0.0502429 0.371493)
(29.5535 -0.0542762 0.449423)
(29.2648 -0.0280704 0.0637639)
(29.1609 0.0145828 -0.711738)
(29.1852 0.0415186 -1.11143)
(29.2941 0.0439778 -1.0302)
(29.243 0.019678 -0.909391)
(29.0427 0.0263797 -0.755309)
(28.8933 0.0494439 -0.581729)
(28.8165 0.037979 -0.50378)
(28.7305 0.0133868 -0.531683)
(28.5239 -0.0119253 -0.464042)
(28.2048 -0.0126237 -0.383775)
(27.9415 0.00994085 -0.345689)
(27.731 0.0446016 -0.350884)
(27.6493 0.0268748 -0.313335)
(27.7875 -0.0511085 -0.376298)
(27.7794 -0.0323436 -0.429757)
(27.7671 0.0236996 -0.505506)
(28.178 0.0659617 -0.402331)
(29.0832 0.0634349 -0.696057)
(29.6336 0.0217014 -1.02475)
(30.0491 0.20196 -0.128012)
(39.9822 0.000150527 0.0504124)
(39.9172 0.000208218 0.090133)
(39.8206 0.000611447 0.118894)
(39.6867 0.000688475 0.146667)
(39.5127 0.000521097 0.175575)
(39.3002 0.000410835 0.206031)
(39.0502 0.000416026 0.238172)
(38.761 0.00045073 0.271669)
(38.4294 0.000455418 0.306586)
(38.0543 0.000391102 0.342108)
(37.6361 0.000275443 0.376799)
(37.1781 0.000192899 0.410255)
(36.6852 -0.000131502 0.437819)
(36.1685 -0.000322756 0.456195)
(35.6446 -0.00354178 0.455536)
(35.1683 -0.00809096 0.404058)
(34.795 -0.00702938 0.384732)
(34.6942 -0.00400302 0.296188)
(34.766 -0.00243593 0.241431)
(34.7419 0.00117216 0.40601)
(34.4839 -0.00231687 0.486839)
(34.1062 -0.0124737 0.544811)
(33.6387 -0.0233906 0.585141)
(33.0928 -0.0330778 0.575766)
(32.4721 -0.0407048 0.561747)
(31.8021 -0.047298 0.423007)
(31.1689 -0.0447745 0.232065)
(30.6394 -0.0306304 0.0944592)
(30.2262 -0.0215028 0.000824449)
(29.9112 -0.0266713 -0.116452)
(29.741 -0.0426734 -0.258288)
(29.6378 -0.064238 -0.295232)
(29.5133 -0.0705566 -0.151076)
(29.3024 -0.0450309 -0.0208018)
(29.1972 0.002492 -0.294507)
(29.1628 0.0345672 -0.583464)
(29.2027 0.0409817 -0.529782)
(29.1158 0.0137286 -0.513949)
(28.9713 0.0140264 -0.450457)
(28.8138 0.0478691 -0.360225)
(28.6695 0.0497292 -0.283688)
(28.5205 0.030098 -0.24701)
(28.2802 0.00270133 -0.16382)
(27.9868 -4.49502e-05 -0.113603)
(27.7213 0.024093 -0.105064)
(27.443 0.0598885 -0.171062)
(27.2311 0.0472381 -0.0775859)
(27.3677 -0.0401397 0.00994103)
(27.4737 -0.0158783 -0.0271172)
(27.5565 0.0588298 -0.148907)
(28.0592 0.0702916 -0.328907)
(28.8497 0.0573738 -0.621462)
(29.4675 0.00633131 -0.882467)
(30.1988 0.19208 -0.0103537)
(40.008 0.000154482 0.0180965)
(40.033 0.000186932 0.0557237)
(40.0626 0.000599031 0.0950579)
(40.0896 0.000682653 0.134708)
(40.1108 0.000522882 0.174794)
(40.1283 0.000429391 0.215934)
(40.1446 0.000479241 0.258564)
(40.1588 0.000588108 0.30295)
(40.1682 0.00065853 0.349223)
(40.1708 0.000643614 0.397182)
(40.165 0.000519342 0.446122)
(40.1475 0.000256132 0.494007)
(40.1144 8.67074e-05 0.538318)
(40.05 -0.000194376 0.568513)
(39.9472 0.00230659 0.592105)
(39.691 0.00389368 0.563085)
(39.3587 0.00622634 0.446712)
(38.659 0.00633922 0.369474)
(37.6794 -0.00124381 0.413985)
(36.8602 -0.00291016 0.473353)
(36.1641 -7.16815e-06 0.543343)
(35.549 0.003227 0.627377)
(35.0139 0.00620107 0.710945)
(34.4992 0.00888961 0.801931)
(34.0042 0.0102641 0.868107)
(33.5186 0.011529 0.867966)
(33.0287 0.0134589 0.813302)
(32.5105 0.0198459 0.742231)
(31.9277 0.0323725 0.64499)
(31.367 0.0394323 0.506183)
(30.8586 0.0438275 0.378204)
(30.3814 0.0473617 0.351078)
(30.0092 0.0468222 0.325787)
(29.7884 0.038249 0.232023)
(29.7012 0.0182259 0.196847)
(29.6516 -0.0161956 0.357141)
(29.589 -0.0623323 0.585564)
(29.4008 -0.0980928 0.711855)
(29.1564 -0.100664 0.708405)
(28.86 -0.096318 0.542198)
(28.5818 -0.112136 0.388049)
(28.4604 -0.149398 0.455175)
(28.3144 -0.174645 0.556134)
(28.1507 -0.189401 0.594682)
(28.045 -0.196371 0.581021)
(27.9918 -0.189614 0.472458)
(27.9651 -0.187786 0.448164)
(28.0074 -0.175602 0.2378)
(27.7957 -0.156166 0.111736)
(27.8826 -0.210126 0.0296169)
(27.9915 -0.165125 -0.343495)
(27.5809 -0.0582322 -0.621761)
(29.0415 0.0680464 -0.811742)
(30.2404 0.11741 -1.93534)
(40.0083 0.000154481 0.018094)
(40.0333 0.000186938 0.0557212)
(40.0627 0.000599042 0.0950433)
(40.0891 0.000682675 0.134672)
(40.11 0.000522908 0.174763)
(40.1278 0.000429473 0.21594)
(40.1443 0.000479158 0.258641)
(40.1585 0.000588722 0.303093)
(40.1678 0.000657625 0.349422)
(40.1702 0.000643611 0.397336)
(40.1642 0.000516665 0.446116)
(40.1464 0.000257719 0.494023)
(40.1128 6.93326e-05 0.537661)
(40.0519 -0.000127421 0.571019)
(39.9478 0.00198952 0.583122)
(39.7476 0.00390688 0.553521)
(39.4109 0.00669774 0.464918)
(38.6947 0.00639861 0.358819)
(37.693 -0.00130982 0.398476)
(36.8515 -0.00277021 0.464832)
(36.1754 8.97133e-05 0.523161)
(35.5652 0.00336938 0.596339)
(35.0296 0.00648514 0.665286)
(34.5216 0.0095428 0.740204)
(34.0349 0.0113151 0.799084)
(33.5683 0.0135729 0.797826)
(33.0884 0.0173476 0.777565)
(32.5726 0.02335 0.746832)
(32.0497 0.0332619 0.654533)
(31.565 0.0449812 0.494547)
(31.0805 0.0588164 0.350254)
(30.5506 0.074361 0.295579)
(30.0906 0.0700208 0.240884)
(29.8357 0.053834 0.168578)
(29.7667 0.0231289 0.11917)
(29.7425 -0.0190885 0.220933)
(29.7651 -0.0691123 0.370516)
(29.6869 -0.106678 0.478956)
(29.5141 -0.10961 0.502633)
(29.3722 -0.103867 0.435586)
(29.2428 -0.121344 0.357808)
(29.2364 -0.151425 0.422912)
(29.1854 -0.180539 0.500968)
(29.0801 -0.191766 0.518088)
(29.0145 -0.197891 0.478961)
(28.9849 -0.188699 0.351023)
(28.9682 -0.18488 0.339037)
(28.9502 -0.174606 0.287941)
(28.9521 -0.185768 0.108974)
(28.7776 -0.204466 -0.169822)
(28.6313 -0.107328 -0.640938)
(28.5543 -0.0341538 -0.816341)
(29.9982 0.0566252 -0.795535)
(31.0864 0.104882 -1.81939)
(39.9997 0.000152756 0.0253335)
(39.9883 0.000180482 0.0722046)
(39.9626 0.000584121 0.116577)
(39.9186 0.00066322 0.159237)
(39.8542 0.000507438 0.201681)
(39.7722 0.00042832 0.244914)
(39.6751 0.000493004 0.289505)
(39.5627 0.000605959 0.335818)
(39.4335 0.000663463 0.384103)
(39.2871 0.000605344 0.43438)
(39.1235 0.000405055 0.486439)
(38.9435 0.000121216 0.53986)
(38.7455 -0.000226922 0.594196)
(38.5295 -0.000261355 0.649121)
(38.2773 -0.000562784 0.707475)
(38.0344 0.000697668 0.780969)
(37.6671 0.000657546 0.831455)
(37.3293 0.00325439 0.947828)
(36.9636 0.0020184 1.11845)
(36.555 0.00190301 1.22698)
(36.0967 0.00298368 1.27062)
(35.6153 0.00483911 1.28429)
(35.1424 0.0073857 1.30775)
(34.6649 0.0114708 1.34364)
(34.1815 0.0137351 1.37533)
(33.6843 0.0171578 1.35489)
(33.1391 0.023934 1.28418)
(32.5243 0.033701 1.21527)
(31.8306 0.0415479 1.07332)
(31.1117 0.0387613 0.920822)
(30.3087 0.0379762 0.893114)
(29.4573 0.0537589 0.923284)
(28.7261 0.0967125 0.833932)
(28.0582 0.167791 0.535557)
(27.6334 0.217593 -0.122059)
(27.8293 0.0732376 -0.145001)
(27.7601 -0.0890319 0.226067)
(27.4957 -0.159836 0.437079)
(27.0087 -0.161076 0.558427)
(26.6495 -0.0691976 0.286213)
(26.534 -0.0714081 0.216284)
(26.5384 -0.149097 0.524854)
(26.4007 -0.193247 0.641541)
(26.1423 -0.209286 0.638417)
(25.9388 -0.211759 0.544047)
(25.8118 -0.193197 0.409595)
(25.7975 -0.189779 0.24732)
(25.8472 -0.147652 0.0138993)
(25.9457 -0.173111 -0.0996679)
(26.2433 -0.138018 -0.588743)
(26.526 -0.0604063 -0.745035)
(26.7463 -0.00797538 -0.79601)
(26.4919 0.0781798 -1.69875)
(25.9757 0.109836 -3.05885)
(40 0.000152754 0.0253288)
(39.9886 0.000180489 0.0721872)
(39.9626 0.000584129 0.116542)
(39.918 0.000663232 0.159193)
(39.8535 0.000507459 0.20164)
(39.7716 0.000428351 0.244883)
(39.6747 0.000493078 0.289483)
(39.5623 0.000605991 0.335796)
(39.4329 0.000663635 0.384076)
(39.2862 0.00060534 0.434325)
(39.1224 0.000404618 0.486349)
(38.9423 0.000120676 0.539767)
(38.7447 -0.000227912 0.593993)
(38.5276 -0.000262965 0.648838)
(38.2825 -0.000558453 0.705319)
(38.0103 0.000647552 0.77411)
(37.6817 0.000439807 0.848728)
(37.3306 0.00347215 0.953492)
(36.9579 0.00208578 1.11279)
(36.5573 0.00195626 1.21377)
(36.1064 0.00309608 1.2519)
(35.6319 0.00504036 1.25791)
(35.1661 0.00780265 1.27114)
(34.6884 0.0125469 1.319)
(34.1969 0.0153416 1.3579)
(33.6959 0.0193456 1.34453)
(33.1474 0.0270883 1.30666)
(32.5476 0.037828 1.26401)
(31.9119 0.0470171 1.16125)
(31.2302 0.0497554 0.995198)
(30.4001 0.0480055 0.953751)
(29.5679 0.0608581 0.98247)
(28.8798 0.110274 0.850598)
(28.4555 0.167941 0.493432)
(28.3206 0.16869 0.102775)
(28.3941 0.0812667 -0.0685668)
(28.4338 -0.0253858 -0.0639308)
(28.2645 -0.101468 -0.0505252)
(27.9734 -0.10805 -0.1014)
(27.7943 -0.0591006 -0.285074)
(27.4495 -0.0495374 -0.235663)
(27.3674 -0.0977268 -0.0602279)
(27.1701 -0.124965 -0.0115501)
(26.8794 -0.139923 -0.0471839)
(26.6339 -0.154498 -0.0910684)
(26.4919 -0.142272 -0.203722)
(26.4159 -0.13687 -0.356667)
(26.3367 -0.0972929 -0.468465)
(26.3892 -0.116556 -0.688674)
(26.5004 -0.0982582 -1.03839)
(26.7661 -0.0475348 -0.943514)
(26.9559 0.0153451 -0.938443)
(27.4628 -0.109923 -0.309518)
(26.2212 0.147025 -2.94923)
(39.9994 0.000150033 0.0321091)
(39.987 0.000169698 0.0939352)
(39.9613 0.000563399 0.156596)
(39.9184 0.000637423 0.220344)
(39.8552 0.000476984 0.285774)
(39.7733 0.000390794 0.353189)
(39.6744 0.000446885 0.42272)
(39.5574 0.000554036 0.494444)
(39.42 0.000612228 0.568436)
(39.2605 0.000564064 0.644701)
(39.0782 0.000387884 0.723232)
(38.8726 0.000130307 0.804162)
(38.6424 -0.00019367 0.887763)
(38.3864 -0.000343622 0.975677)
(38.0991 -0.000659319 1.07038)
(37.7875 0.000200642 1.17851)
(37.4326 -0.000345503 1.31968)
(37.0212 8.31501e-05 1.38504)
(36.643 0.0014517 1.45111)
(36.2961 0.00284649 1.53854)
(35.9318 0.00395117 1.62513)
(35.5382 0.00424153 1.68167)
(35.1012 0.00420601 1.73773)
(34.603 0.00511676 1.80734)
(34.0677 0.00377892 1.88634)
(33.4877 0.00285476 1.92197)
(32.8039 0.00720795 1.93255)
(32.0235 0.0139353 1.97029)
(31.1339 0.0131233 1.97418)
(30.0418 0.0146908 1.94137)
(28.8442 0.0227481 1.98369)
(27.7761 0.0398154 1.92052)
(26.8418 0.0767132 1.59965)
(26.0995 0.134106 0.751334)
(26.1531 0.134172 -0.421398)
(26.5343 -0.0591331 -0.050062)
(26.5374 -0.256621 0.699632)
(26.0326 -0.405061 1.12254)
(25.3337 -0.355993 1.22111)
(25.0547 -0.141671 0.58749)
(25.0055 -0.0801934 0.408409)
(25.0687 -0.145575 0.875812)
(24.8405 -0.193873 1.10352)
(24.491 -0.186352 1.06386)
(24.2055 -0.16922 0.962021)
(24.0914 -0.156136 0.792583)
(23.9413 -0.177626 0.571039)
(24.0111 -0.0970078 0.354375)
(24.1065 -0.113483 0.223992)
(24.3104 -0.131719 -0.219022)
(24.9533 -0.106379 -0.853896)
(25.2669 -0.0760447 -1.04469)
(25.464 -0.0282172 -1.13576)
(24.8269 0.379882 -1.4251)
(39.9997 0.000150032 0.0321047)
(39.9873 0.000169704 0.0939206)
(39.9613 0.000563406 0.156567)
(39.9178 0.000637433 0.220305)
(39.8545 0.000477002 0.285726)
(39.7727 0.000390824 0.35313)
(39.674 0.000446931 0.422647)
(39.557 0.000554094 0.494363)
(39.4194 0.000612297 0.568356)
(39.2597 0.000564124 0.644638)
(39.0771 0.00038793 0.723211)
(38.8714 0.000130465 0.804171)
(38.6413 -0.000193993 0.887835)
(38.3851 -0.000342036 0.975536)
(38.0999 -0.000656897 1.07035)
(37.7842 0.000216863 1.17793)
(37.4441 -0.000424024 1.31695)
(37.026 -2.78997e-05 1.41616)
(36.6442 0.00137194 1.45636)
(36.2999 0.00289549 1.52738)
(35.937 0.00413853 1.6063)
(35.5433 0.00455586 1.65729)
(35.0907 0.00436638 1.71446)
(34.5828 0.00486385 1.81863)
(34.0582 0.00364804 1.89994)
(33.469 0.0026883 1.95083)
(32.7594 0.00827263 2.02425)
(31.9647 0.0161077 2.10497)
(31.0902 0.0153893 2.12982)
(30.0195 0.0168392 2.09122)
(28.8976 0.0232589 2.0704)
(27.9129 0.0382573 2.0258)
(27.0461 0.0729424 1.85274)
(26.3101 0.146567 1.27815)
(26.2962 0.165269 0.151332)
(26.6992 -0.0472033 -0.136372)
(26.8153 -0.284925 0.0503627)
(26.5884 -0.531653 0.270178)
(26.1277 -0.643486 0.51315)
(25.7798 -0.527964 0.215958)
(25.6087 -0.175256 0.0808129)
(25.5803 -0.147303 0.331181)
(25.2959 -0.148829 0.359514)
(24.938 -0.150197 0.311386)
(24.5735 -0.130774 0.341882)
(24.3885 -0.11949 0.199515)
(24.171 -0.130154 0.0422921)
(24.1441 -0.0743051 -0.171927)
(24.3425 -0.0608637 -0.34983)
(24.6263 -0.0681723 -0.733397)
(25.0406 -0.0733761 -1.14972)
(25.2639 -0.0340064 -1.25493)
(25.5429 -0.212219 -1.31682)
(25.9313 0.356015 -1.73779)
(39.9995 0.000148429 0.0397189)
(39.9872 0.000167199 0.116985)
(39.9619 0.000555916 0.195857)
(39.9199 0.000623935 0.275689)
(39.858 0.000459121 0.356769)
(39.7779 0.00036882 0.439594)
(39.6815 0.000420943 0.524622)
(39.5678 0.000525634 0.612275)
(39.4344 0.000585342 0.702958)
(39.2798 0.000542046 0.797073)
(39.1034 0.000379811 0.895036)
(38.9046 0.000119032 0.997393)
(38.6831 -0.000161529 1.10486)
(38.4368 -0.000432231 1.21897)
(38.1662 -0.000442293 1.3416)
(37.8621 -0.00068588 1.47759)
(37.549 0.000884396 1.62883)
(37.1409 0.00234992 1.77609)
(36.6967 0.00289556 1.83974)
(36.2625 0.00344519 1.90326)
(35.8566 0.00534158 1.99054)
(35.4394 0.00463968 2.07928)
(34.9709 0.00241268 2.2257)
(34.4125 -0.000458626 2.37112)
(33.7954 -0.00775679 2.5088)
(33.0843 -0.0122326 2.63066)
(32.2048 -0.00620211 2.74051)
(31.2363 0.00258239 2.9127)
(30.1671 0.00242422 3.08278)
(28.9603 0.0036648 3.16437)
(27.778 0.0142018 3.12847)
(26.7001 0.0391407 2.88609)
(25.7036 0.0839701 2.2165)
(24.9754 0.166463 0.731116)
(25.2102 0.24579 -1.02453)
(24.8873 -0.0660807 -0.593568)
(24.9819 -0.540749 1.66168)
(24.5082 -0.831624 2.75025)
(23.9652 -0.909225 2.97391)
(23.4538 -0.343828 1.42487)
(23.164 -0.137274 0.690738)
(23.352 -0.272082 1.16653)
(23.155 -0.359846 1.327)
(22.8188 -0.350823 1.16538)
(22.5289 -0.312742 1.01856)
(22.3266 -0.267559 0.863665)
(22.1653 -0.242765 0.670747)
(22.4934 -0.182296 0.279938)
(21.4943 -0.202019 0.36441)
(22.2744 -0.230297 -0.173354)
(22.5934 -0.19053 -0.827606)
(22.6341 0.0380041 -1.32722)
(23.5339 -0.151522 -1.66537)
(22.4595 0.114089 -1.51296)
(39.9997 0.000148428 0.0397134)
(39.9875 0.000167206 0.116967)
(39.9619 0.000555922 0.195821)
(39.9193 0.000623945 0.27565)
(39.8572 0.000459137 0.356732)
(39.7773 0.000368852 0.439552)
(39.6811 0.000420995 0.524566)
(39.5674 0.000525707 0.612202)
(39.4339 0.000585413 0.702871)
(39.279 0.000542199 0.796982)
(39.1024 0.000379637 0.894962)
(38.9035 0.000120361 0.997337)
(38.6819 -0.00015792 1.10487)
(38.436 -0.00042764 1.21893)
(38.1648 -0.000428219 1.34178)
(37.8647 -0.000707282 1.47739)
(37.5415 0.00102141 1.63007)
(37.1755 0.00220774 1.78821)
(36.736 0.00283504 1.84578)
(36.2852 0.00346468 1.89861)
(35.8658 0.00594323 1.98481)
(35.4324 0.00605609 2.08251)
(34.9119 0.00236063 2.22277)
(34.3548 -0.000948645 2.36617)
(33.7553 -0.00803158 2.50362)
(32.9979 -0.0128543 2.65412)
(32.1254 -0.00530492 2.82462)
(31.2119 0.00394468 3.01897)
(30.1955 0.00323684 3.15731)
(29.0517 0.00334273 3.20992)
(27.9175 0.0126456 3.15759)
(26.8858 0.0363771 2.97)
(26.0179 0.0751765 2.4852)
(25.4727 0.163456 1.34574)
(25.7902 0.339739 -0.344755)
(26.2268 0.0520798 -0.883128)
(26.7843 -0.332967 -0.807955)
(26.7466 -0.495599 -0.455221)
(26.1469 -0.68371 -0.074586)
(25.4287 -0.595078 0.0453382)
(24.7049 -0.203139 0.16366)
(24.6592 -0.201253 0.330705)
(24.4377 -0.236967 0.25006)
(24.0228 -0.230809 0.136565)
(23.6606 -0.204585 0.0508615)
(23.3565 -0.166886 -0.0497856)
(23.1362 -0.128143 -0.170371)
(23.1392 -0.111038 -0.364806)
(23.1514 -0.174085 -0.477746)
(23.4269 -0.158284 -1.06259)
(23.2571 0.0789997 -1.54436)
(23.3723 0.135488 -1.6597)
(24.0285 -0.0334856 -1.70661)
(23.8907 0.301864 -2.29288)
(39.9995 0.00014465 0.0472878)
(39.9874 0.000152793 0.139301)
(39.9627 0.000529231 0.233391)
(39.9219 0.000598006 0.328905)
(39.8621 0.000439595 0.426319)
(39.7848 0.000349677 0.526312)
(39.6918 0.000392943 0.62944)
(39.582 0.00048311 0.736156)
(39.4531 0.000528053 0.846892)
(39.3035 0.000474683 0.962103)
(39.1326 0.000313574 1.08227)
(38.9404 6.61795e-05 1.20794)
(38.7266 -0.000190253 1.33987)
(38.4904 -0.000418192 1.47905)
(38.232 -0.000421495 1.62708)
(37.9488 -0.000415053 1.78678)
(37.6504 0.000579557 1.95868)
(37.3242 0.00236725 2.16623)
(36.9583 0.00434415 2.29616)
(36.5008 0.00476488 2.3799)
(36.0024 0.00560153 2.45519)
(35.4413 0.00214342 2.56436)
(34.8792 -0.00309778 2.74906)
(34.3202 -0.00759561 2.98468)
(33.6641 -0.0172945 3.24641)
(32.8503 -0.0197369 3.52772)
(31.788 -0.00805175 3.75341)
(30.6603 0.0083037 3.98311)
(29.5428 0.0128748 4.21512)
(28.3617 0.0140328 4.32407)
(27.1714 0.0270545 4.24168)
(25.9833 0.0661813 3.90627)
(24.6308 0.151986 3.0914)
(23.3786 0.410332 1.34332)
(22.8281 0.845728 -0.216506)
(11.6401 0.0690069 2.3228)
(14.2268 -0.623136 1.50949)
(15.2883 -1.13931 1.35488)
(16.1792 -1.8717 2.73486)
(17.7245 -0.789524 0.030172)
(18.953 -0.252355 0.433263)
(19.0726 -0.855424 2.38868)
(19.1693 -0.796529 2.39859)
(19.2957 -0.669149 2.06283)
(19.3633 -0.568411 1.74837)
(19.2712 -0.513299 1.48435)
(19.2501 -0.406192 1.19819)
(19.3111 -0.393803 0.902874)
(19.4826 -0.322715 0.493554)
(19.5716 -0.220844 0.0156457)
(19.2615 -0.0620352 -0.39251)
(19.002 0.0940818 -0.671403)
(19.6597 0.0876935 -0.922473)
(18.0678 -0.190727 -1.65895)
(39.9997 0.000144648 0.0472814)
(39.9877 0.000152806 0.139282)
(39.9628 0.000529206 0.233353)
(39.9214 0.000598148 0.328867)
(39.8614 0.000439043 0.426287)
(39.7843 0.000347948 0.526277)
(39.6914 0.000390937 0.629386)
(39.5816 0.000481075 0.736076)
(39.4525 0.000526026 0.84679)
(39.3027 0.000472766 0.961991)
(39.1316 0.000311435 1.08217)
(38.9393 6.5204e-05 1.20788)
(38.7255 -0.000187539 1.33987)
(38.4896 -0.000411478 1.4791)
(38.2311 -0.00041462 1.62732)
(37.9501 -0.000414152 1.78658)
(37.649 0.000643544 1.96053)
(37.3365 0.00204393 2.15179)
(36.9929 0.00469902 2.31379)
(36.5586 0.00504171 2.4184)
(36.0405 0.00625553 2.51103)
(35.4794 0.00337507 2.64564)
(34.8756 -0.00335222 2.78886)
(34.2722 -0.00789408 2.98417)
(33.586 -0.0180982 3.22853)
(32.7286 -0.0196855 3.51105)
(31.7319 -0.0074648 3.75976)
(30.7219 0.00737411 4.02589)
(29.6548 0.0110195 4.23157)
(28.4957 0.0121243 4.32187)
(27.3514 0.0250628 4.24718)
(26.2811 0.0615541 3.98863)
(25.2787 0.140748 3.36591)
(24.5216 0.500079 2.02694)
(24.9827 1.64314 0.114621)
(26.2363 3.01551 -1.79197)
(27.5042 2.9498 -1.92882)
(27.3782 2.69181 -1.49299)
(26.5209 2.43271 -0.963811)
(26.142 2.00918 -0.662039)
(23.5348 0.667915 0.192899)
(23.2958 0.291795 0.532348)
(22.9994 0.35076 0.469573)
(22.6738 0.44577 0.277144)
(22.3927 0.514585 0.0765331)
(22.1126 0.546851 -0.086031)
(21.8796 0.640034 -0.225285)
(21.7157 0.668702 -0.311816)
(21.644 0.694721 -0.424872)
(21.4812 0.795582 -0.623137)
(21.4411 0.896792 -0.921874)
(21.1193 1.03606 -1.32162)
(21.8089 1.04668 -1.12001)
(19.9126 0.991567 -2.0018)
(39.9995 0.000142187 0.0545959)
(39.9879 0.000149231 0.160849)
(39.9642 0.000520321 0.269688)
(39.9251 0.00058629 0.380444)
(39.8679 0.000427228 0.493601)
(39.7938 0.000333093 0.609829)
(39.7046 0.000367265 0.729716)
(39.5991 0.000446774 0.853809)
(39.475 0.000483651 0.982672)
(39.3307 0.000429669 1.11689)
(39.1658 0.000275867 1.25707)
(38.9803 4.87282e-05 1.40379)
(38.7741 -0.000189427 1.55768)
(38.547 -0.000365814 1.71937)
(38.2987 -0.000415625 1.88969)
(38.0302 -0.000239332 2.0697)
(37.7419 -5.85873e-06 2.25981)
(37.4418 0.00136386 2.46461)
(37.1221 0.00142396 2.6584)
(36.7577 -0.000221152 2.84327)
(36.3263 -0.00219639 3.01168)
(35.8043 -0.00290375 3.22167)
(35.1262 -0.006792 3.39752)
(34.4652 -0.0168289 3.6374)
(33.8006 -0.0286635 4.04353)
(32.9781 -0.032837 4.55059)
(31.8727 -0.00747961 4.95514)
(30.6081 0.0226808 5.15315)
(29.3692 0.0273098 5.33645)
(28.104 0.0248782 5.47649)
(26.8474 0.0417015 5.47587)
(25.5451 0.088401 5.24595)
(23.8083 0.218448 4.77838)
(22.4881 0.665489 3.96358)
(9.21565 0.486459 -0.0151384)
(8.58736 0.0274435 2.33635)
(8.77111 -0.36443 4.83552)
(7.66061 0.492359 2.62468)
(8.84489 0.343472 2.52288)
(5.21113 -0.669261 0.926217)
(10.5911 -0.863182 0.287093)
(10.9763 -0.806486 0.361009)
(10.8663 -0.354719 0.861579)
(11.0591 -0.0868907 1.05661)
(11.2847 0.0285576 1.07528)
(11.1475 0.134518 1.0579)
(10.901 0.323908 1.00207)
(10.597 0.523927 0.762621)
(10.6476 0.560722 0.278646)
(10.6482 0.456591 -0.232473)
(10.7945 0.263009 -0.71606)
(11.4962 0.0797533 -1.35649)
(13.3911 -0.0174087 -2.23199)
(14.9888 -1.0372 -3.83969)
(39.9997 0.000142185 0.0545882)
(39.9882 0.000149244 0.160822)
(39.9642 0.000520295 0.269637)
(39.9246 0.000586433 0.380389)
(39.8671 0.000426673 0.493552)
(39.7933 0.000331334 0.609778)
(39.7042 0.000365189 0.729653)
(39.5986 0.000444595 0.85373)
(39.4744 0.000481516 0.982586)
(39.3299 0.000427234 1.11681)
(39.1649 0.000274684 1.25702)
(38.9793 4.96471e-05 1.40379)
(38.7731 -0.000188063 1.55772)
(38.5462 -0.000362306 1.71946)
(38.2982 -0.000407837 1.88983)
(38.0299 -0.000228382 2.06959)
(37.7429 1.24242e-05 2.25979)
(37.4418 0.00136493 2.45963)
(37.1237 0.00145117 2.66077)
(36.7707 2.75492e-05 2.86059)
(36.3402 -0.00121897 3.05613)
(35.868 -0.00302436 3.25391)
(35.2116 -0.00738629 3.46164)
(34.4634 -0.0164625 3.69032)
(33.7316 -0.0298052 4.00662)
(32.8393 -0.0332851 4.47132)
(31.7372 -0.00546445 4.81333)
(30.6536 0.0190835 5.13905)
(29.5165 0.0242607 5.40565)
(28.2912 0.0218163 5.51463)
(27.0781 0.0396679 5.44085)
(25.9402 0.0838434 5.22437)
(24.7808 0.236634 4.79364)
(23.681 1.05 4.12095)
(24.8907 3.0436 3.48033)
(9.38754 0.0352533 2.33957)
(10.9405 0.461967 0.667113)
(10.569 1.31707 0.35679)
(8.72904 1.40658 0.706525)
(8.05088 1.22162 1.34382)
(9.33513 0.422385 1.1119)
(9.87717 0.39433 0.632661)
(9.95731 0.850715 0.704892)
(9.79248 1.141 0.800132)
(9.94134 1.24538 0.780379)
(10.2106 1.31225 0.638524)
(10.5915 1.50587 0.445272)
(10.8869 1.75282 0.376336)
(11.0611 1.91408 0.403873)
(11.2152 2.00185 0.322755)
(11.4257 2.08944 0.0903924)
(11.6708 2.22046 -0.261576)
(12.7795 2.45164 -0.646664)
(11.7235 1.73846 -1.37113)
(39.9996 0.000137136 0.0615451)
(39.9885 0.000127218 0.181365)
(39.9661 0.000479769 0.304203)
(39.9292 0.000543485 0.429372)
(39.8749 0.000389702 0.557424)
(39.8047 0.000296743 0.689124)
(39.72 0.000327051 0.825199)
(39.6197 0.000402767 0.96634)
(39.5015 0.000440225 1.11325)
(39.3638 0.000393665 1.26658)
(39.2061 0.000255474 1.42693)
(39.0284 5.16422e-05 1.59479)
(38.8304 -0.000165 1.77047)
(38.6119 -0.000327295 1.95412)
(38.3726 -0.000374466 2.14568)
(38.113 -0.00027864 2.34497)
(37.8338 -8.88169e-05 2.55105)
(37.5378 0.000280238 2.76409)
(37.2244 -0.000264443 2.97824)
(36.8869 -0.00213178 3.19818)
(36.5116 -0.00475947 3.43537)
(36.0947 -0.00509451 3.72847)
(35.6277 -0.00113603 4.0468)
(34.9424 -0.0126977 4.38213)
(34.1998 -0.0295392 4.87482)
(33.4857 -0.0392758 5.54235)
(32.5823 -0.0120476 6.10685)
(31.3761 0.0372797 6.45477)
(29.8981 0.0602178 6.65973)
(28.2965 0.0452176 6.73199)
(26.957 0.039992 6.59855)
(25.7954 0.0544213 6.41056)
(24.544 0.10642 6.46767)
(23.7182 0.470571 7.54839)
(21.5715 1.06157 10.1009)
(6.4042 0.0556068 2.40161)
(5.99381 0.778455 0.176531)
(-1.58552 -0.223973 -3.44128)
(-2.15243 -1.90988 -1.56794)
(-2.13496 -2.23692 -2.646)
(-1.72695 -2.25777 -1.57755)
(-1.77124 -1.72348 -0.222295)
(1.9133 -1.70152 -0.752034)
(2.7825 -0.899832 -0.877396)
(4.11884 -0.711292 -1.3951)
(5.7233 -0.989754 -2.0102)
(7.54207 -1.17399 -2.4198)
(9.72359 -1.14636 -2.77656)
(11.9315 -1.16153 -3.15521)
(13.8581 -1.27866 -3.43983)
(15.3954 -1.44258 -3.65152)
(16.8217 -1.51571 -3.87779)
(18.7295 -1.51916 -4.1772)
(19.9671 -1.56821 -4.8872)
(39.9998 0.000137135 0.0615369)
(39.9887 0.000127223 0.181336)
(39.9661 0.000479773 0.304148)
(39.9286 0.00054349 0.429313)
(39.8742 0.000389722 0.557371)
(39.8041 0.000296694 0.689071)
(39.7196 0.000327213 0.825138)
(39.6193 0.000401863 0.966271)
(39.501 0.000437625 1.11318)
(39.3631 0.000390353 1.26653)
(39.2052 0.000253306 1.42691)
(39.0274 5.15629e-05 1.5948)
(38.8295 -0.000164289 1.77052)
(38.6111 -0.000325909 1.95419)
(38.3721 -0.000372365 2.14575)
(38.1127 -0.000274348 2.34489)
(37.8337 -7.94203e-05 2.55087)
(37.5369 0.000290582 2.76254)
(37.221 -0.000246541 2.97685)
(36.8819 -0.00212137 3.19782)
(36.509 -0.00461701 3.44196)
(36.0999 -0.00519461 3.72586)
(35.6539 -0.000354744 4.10933)
(35.0263 -0.0104007 4.43254)
(34.2012 -0.0347614 4.85838)
(33.3863 -0.0424774 5.4227)
(32.2981 -0.0180889 5.93181)
(31.0682 0.0261259 6.33206)
(29.9198 0.0493543 6.63006)
(28.6446 0.0334204 6.74625)
(27.2581 0.0340797 6.62495)
(26.043 0.0526834 6.37123)
(24.9853 0.112699 6.23684)
(23.689 0.574018 6.68618)
(24.5929 2.218 8.97473)
(21.699 2.60712 9.40647)
(19.4194 2.17413 6.96036)
(16.1417 1.82175 4.12043)
(12.5992 1.64896 2.43212)
(9.3976 1.27871 1.41578)
(6.57983 -0.112434 -0.277358)
(-2.44919 0.652321 0.0332681)
(-1.11172 1.35784 0.35652)
(-0.527536 1.16535 -0.421754)
(0.71175 1.2302 -0.455979)
(1.32293 1.16068 0.0416278)
(2.52338 1.36177 0.832855)
(3.72923 1.7818 1.28307)
(4.72692 2.04995 1.16534)
(5.3079 2.0833 1.08641)
(5.84544 1.90257 0.781903)
(6.18695 1.78074 0.320663)
(8.54607 1.89029 -0.0757245)
(8.25387 1.47835 -0.735338)
(39.9996 0.000134215 0.0680525)
(39.9892 0.000122238 0.2006)
(39.9683 0.000467708 0.336559)
(39.934 0.0005275 0.475272)
(39.8834 0.000373238 0.617402)
(39.8177 0.000277927 0.763836)
(39.7384 0.000303158 0.915431)
(39.6442 0.000374228 1.073)
(39.533 0.000410771 1.23733)
(39.4029 0.000368535 1.40915)
(39.2533 0.000241006 1.58903)
(39.084 5.28237e-05 1.77734)
(38.8946 -0.000152429 1.97415)
(38.6845 -0.00031428 2.17918)
(38.4531 -0.000381012 2.39172)
(38.2006 -0.000328526 2.61065)
(37.9278 -0.000215367 2.83458)
(37.6365 -0.000114795 3.06237)
(37.3289 -0.000265407 3.29302)
(37.0065 -0.000815445 3.53216)
(36.6705 -0.00167704 3.79388)
(36.3218 -0.000881225 4.11332)
(35.971 -0.000261465 4.5131)
(35.5682 0.0213065 5.04132)
(34.8448 0.0142411 5.68777)
(34.2025 -0.00692152 6.36753)
(33.5126 -0.013601 6.98553)
(32.6466 0.000545904 7.67311)
(31.4375 0.0523514 8.24508)
(29.8602 0.0965166 8.44275)
(27.9669 0.0946898 7.95186)
(26.0403 0.0771084 7.3881)
(24.6745 0.0716506 7.33612)
(23.1898 0.176291 7.97184)
(24.4187 0.72431 11.8749)
(20.7888 0.514008 11.6811)
(16.8343 0.160355 8.12424)
(12.1874 -0.49056 4.17053)
(7.78288 -1.12633 1.00176)
(5.72446 -1.69986 -0.970951)
(6.06182 -2.30802 -1.69295)
(7.82869 -2.75534 -2.27768)
(9.52632 -2.59638 -2.80611)
(10.9485 -2.1243 -3.23765)
(12.6141 -1.77634 -3.753)
(14.4352 -1.66086 -4.2611)
(16.2268 -1.58472 -4.57102)
(17.9185 -1.4705 -4.69404)
(19.3863 -1.39293 -4.7198)
(20.5204 -1.40199 -4.67555)
(21.3563 -1.41758 -4.61553)
(22.033 -1.36874 -4.51422)
(23.0318 -1.24418 -4.50322)
(23.2381 -1.21651 -4.52831)
(39.9999 0.000134214 0.0680439)
(39.9894 0.000122243 0.200566)
(39.9684 0.000467713 0.336498)
(39.9335 0.000527503 0.475204)
(39.8827 0.000373259 0.61734)
(39.8172 0.000277902 0.763775)
(39.738 0.000303392 0.915362)
(39.6438 0.000373454 1.07292)
(39.5325 0.000408245 1.23725)
(39.4022 0.000365427 1.40908)
(39.2525 0.000238246 1.58898)
(39.0831 4.7977e-05 1.77732)
(38.8937 -0.000156734 1.97415)
(38.6837 -0.000315688 2.17918)
(38.4525 -0.00038527 2.3917)
(38.2002 -0.000334265 2.61058)
(37.9274 -0.000215307 2.83438)
(37.6358 -0.000112172 3.06201)
(37.3275 -0.000252039 3.29328)
(37.0042 -0.000818492 3.53348)
(36.6689 -0.00161577 3.7985)
(36.3236 -0.00120704 4.11158)
(35.9778 0.00112741 4.52667)
(35.6257 0.0152085 5.01945)
(35.1102 0.0114756 5.63861)
(34.3169 -0.0102717 6.30789)
(33.5154 -0.0262052 7.04345)
(32.2537 -0.00614801 7.62024)
(30.9254 0.0414902 7.98289)
(29.6313 0.0786287 8.17542)
(28.1879 0.0881138 8.10526)
(26.5854 0.0626775 7.6232)
(25.0134 0.0707333 7.27817)
(23.4512 0.0761168 7.79384)
(23.2739 0.730648 9.87336)
(24.4538 1.35193 11.19)
(24.6303 1.54193 10.3642)
(23.303 1.43855 8.33425)
(20.9471 1.34757 6.20123)
(18.3192 1.16215 4.45599)
(15.9622 0.645317 3.11522)
(12.3858 0.323269 1.95792)
(10.1667 0.305835 0.865354)
(8.96404 0.642614 0.0626502)
(8.30744 0.986891 -0.493008)
(8.06453 1.01678 -0.837553)
(8.54154 0.957656 -0.96855)
(9.96471 0.857627 -1.05315)
(11.3647 0.690536 -1.15237)
(12.232 0.473809 -1.10114)
(12.9726 0.255726 -0.96229)
(13.853 0.11074 -0.808881)
(15.3337 0.128915 -0.700872)
(15.5766 -0.0452013 -1.28001)
(39.9997 0.000128783 0.0740369)
(39.99 9.57935e-05 0.218311)
(39.971 0.000420395 0.366374)
(39.9397 0.000476432 0.517623)
(39.8933 0.000327214 0.672848)
(39.8329 0.000233708 0.833069)
(39.7598 0.000255844 0.99928)
(39.6728 0.000321948 1.17243)
(39.5695 0.000355311 1.35344)
(39.4481 0.000314514 1.54313)
(39.3077 0.00019164 1.74212)
(39.1478 9.39766e-06 1.95073)
(38.9676 -0.000190771 2.16887)
(38.766 -0.000352711 2.39592)
(38.542 -0.000431231 2.6306)
(38.2953 -0.000388024 2.87097)
(38.0267 -0.000294849 3.1144)
(37.7391 -0.000132721 3.35833)
(37.4381 -8.22608e-05 3.60134)
(37.1317 -0.000234154 3.84682)
(36.8366 -0.000237091 4.1084)