/*--------------------------------*- C++ -*----------------------------------*\
| =========                 |                                                 |
| \\      /  F ield         | OpenFOAM: The Open Source CFD Toolbox           |
|  \\    /   O peration     | Version:  4.1                                   |
|   \\  /    A nd           | Web:      www.OpenFOAM.org                      |
|    \\/     M anipulation  |                                                 |
\*---------------------------------------------------------------------------*/
FoamFile
{
    version     2.0;
    format      ascii;
    class       volScalarField;
    location    "76";
    object      p;
}
// * * * * * * * * * * * * * * * * * * * * * * * * * * * * * * * * * * * * * //

dimensions      [0 2 -2 0 0 0 0];

internalField   nonuniform List<scalar> 
4432
(
100985
100986
100987
100989
100992
100995
100999
101004
101010
101016
101023
101030
101038
101046
101054
101062
101069
101073
101077
101086
101101
101119
101137
101158
101180
101204
101227
101245
101258
101269
101278
101286
101296
101310
101322
101326
101327
101332
101337
101340
101342
101343
101345
101347
101347
101346
101340
101339
101339
101332
101319
101312
101312
101313
100985
100986
100987
100989
100992
100995
100999
101004
101010
101016
101023
101030
101038
101046
101054
101062
101069
101073
101077
101086
101102
101120
101138
101159
101182
101206
101227
101244
101259
101271
101281
101289
101298
101309
101320
101325
101327
101331
101336
101341
101343
101343
101344
101345
101347
101348
101342
101335
101335
101331
101321
101315
101307
101310
100984
100984
100985
100987
100990
100993
100997
101001
101007
101013
101020
101027
101036
101045
101056
101069
101085
101103
101117
101125
101136
101152
101167
101182
101197
101212
101227
101243
101260
101274
101286
101295
101300
101304
101307
101309
101314
101323
101333
101340
101340
101338
101340
101345
101347
101346
101344
101340
101338
101334
101329
101320
101282
101316
100984
100984
100985
100987
100990
100993
100997
101001
101007
101013
101020
101027
101036
101045
101056
101068
101085
101104
101117
101126
101136
101150
101165
101179
101194
101209
101225
101242
101258
101272
101282
101288
101294
101304
101310
101312
101317
101324
101333
101341
101341
101339
101341
101346
101347
101347
101344
101341
101339
101336
101329
101318
101275
101317
100983
100983
100984
100986
100989
100992
100996
101000
101006
101012
101019
101026
101035
101044
101055
101067
101081
101093
101104
101117
101132
101148
101164
101178
101193
101210
101228
101246
101264
101281
101292
101300
101311
101319
101318
101312
101316
101329
101342
101350
101346
101340
101345
101351
101354
101351
101348
101341
101332
101326
101325
101324
101318
101326
100983
100983
100984
100986
100989
100992
100996
101000
101006
101012
101019
101026
101035
101044
101055
101067
101080
101093
101105
101117
101132
101148
101163
101176
101191
101209
101227
101244
101263
101279
101291
101297
101304
101314
101319
101317
101320
101330
101340
101348
101347
101342
101345
101352
101353
101351
101348
101342
101334
101328
101328
101322
101316
101334
100980
100981
100982
100984
100986
100990
100993
100998
101003
101009
101016
101023
101031
101040
101051
101062
101074
101086
101097
101112
101128
101144
101158
101173
101190
101211
101232
101252
101273
101292
101305
101319
101337
101342
101329
101306
101307
101324
101341
101353
101347
101340
101349
101357
101359
101355
101351
101342
101332
101320
101319
101325
101325
101315
100980
100981
100982
100984
100986
100990
100993
100998
101003
101009
101016
101023
101031
101040
101051
101062
101074
101086
101097
101111
101128
101144
101158
101173
101190
101211
101232
101252
101273
101292
101305
101317
101333
101338
101332
101319
101319
101330
101343
101351
101345
101342
101348
101356
101358
101356
101350
101342
101330
101322
101325
101327
101320
101312
100978
100978
100979
100981
100983
100987
100990
100995
101000
101006
101012
101019
101027
101036
101046
101057
101069
101081
101092
101103
101118
101134
101150
101166
101186
101211
101236
101261
101285
101306
101322
101341
101360
101367
101391
101281
101289
101318
101344
101369
101361
101345
101356
101363
101364
101361
101353
101346
101339
101329
101323
101318
101319
101332
100978
100978
100979
100981
100983
100987
100990
100995
101000
101006
101012
101019
101027
101036
101046
101057
101069
101081
101092
101103
101117
101133
101150
101166
101187
101212
101237
101261
101287
101310
101325
101340
101357
101360
101354
101323
101313
101327
101350
101368
101363
101350
101355
101362
101364
101361
101355
101347
101337
101327
101324
101325
101315
101326
100974
100974
100975
100977
100980
100983
100986
100991
100996
101001
101008
101015
101022
101031
101040
101050
101061
101073
101083
101095
101109
101124
101139
101155
101176
101202
101231
101259
101287
101311
101329
101350
101377
101486
101685
101378
101281
101293
101321
101329
101336
101368
101375
101373
101371
101368
101360
101353
101347
101338
101328
101314
101314
101332
100974
100974
100975
100977
100980
100983
100986
100991
100996
101001
101008
101015
101022
101031
101040
101050
101061
101072
101083
101095
101109
101124
101140
101156
101178
101204
101231
101257
101286
101312
101329
101342
101357
101393
101424
101343
101297
101311
101340
101365
101374
101363
101366
101369
101369
101366
101361
101354
101346
101335
101326
101318
101320
101335
100970
100970
100971
100973
100976
100978
100982
100986
100991
100996
101002
101009
101016
101024
101033
101043
101053
101064
101075
101086
101099
101114
101129
101143
101159
101185
101214
101241
101265
101289
101314
101346
101409
101679
101585
101527
101321
101322
101339
101344
101351
101375
101384
101382
101379
101376
101369
101361
101353
101345
101334
101318
101306
101322
100970
100970
100971
100973
100976
100978
100982
100986
100991
100996
101002
101009
101016
101024
101033
101043
101053
101064
101075
101086
101099
101114
101130
101145
101162
101187
101213
101237
101263
101289
101310
101331
101362
101429
101500
101405
101295
101303
101333
101348
101359
101370
101378
101379
101376
101371
101364
101357
101351
101342
101331
101318
101316
101321
100966
100966
100967
100968
100971
100973
100977
100980
100985
100990
100996
101002
101009
101017
101026
101035
101045
101055
101066
101077
101089
101102
101116
101128
101139
101158
101185
101208
101227
101243
101263
101294
101326
101403
101446
101406
101336
101334
101344
101351
101359
101371
101381
101382
101378
101374
101367
101359
101352
101346
101339
101323
101306
101318
100966
100966
100967
100969
100971
100973
100977
100980
100985
100990
100996
101002
101009
101017
101026
101035
101045
101055
101066
101077
101089
101102
101116
101129
101142
101161
101184
101204
101223
101244
101263
101288
101327
101369
101412
101369
101322
101326
101343
101355
101365
101373
101379
101380
101378
101372
101364
101356
101351
101345
101336
101320
101308
101320
100961
100961
100962
100963
100965
100968
100971
100974
100979
100983
100989
100995
101002
101009
101017
101026
101036
101046
101057
101067
101078
101089
101099
101109
101117
101125
101143
101164
101186
101207
101229
101254
101292
101329
101365
101346
101330
101335
101345
101352
101361
101371
101380
101384
101380
101373
101365
101358
101353
101351
101345
101329
101313
101320
100961
100961
100962
100963
100965
100968
100971
100974
100979
100983
100989
100995
101002
101009
101017
101026
101036
101046
101057
101067
101078
101088
101099
101108
101117
101127
101144
101164
101183
101204
101227
101256
101294
101330
101358
101355
101344
101346
101354
101363
101372
101378
101381
101383
101382
101375
101365
101357
101354
101351
101343
101326
101313
101324
100955
100955
100956
100957
100959
100962
100964
100968
100972
100976
100981
100987
100993
101000
101008
101017
101026
101036
101047
101057
101066
101074
101081
101086
101088
101090
101101
101125
101152
101179
101206
101238
101278
101315
101351
101362
101363
101365
101370
101376
101384
101390
101395
101396
101392
101382
101370
101361
101358
101357
101353
101339
101326
101323
100955
100955
100956
100957
100959
100962
100964
100968
100972
100976
100981
100987
100993
101000
101008
101017
101026
101036
101047
101057
101066
101074
101080
101084
101086
101090
101103
101126
101152
101178
101206
101238
101277
101317
101350
101366
101370
101376
101384
101391
101396
101398
101398
101398
101395
101385
101372
101363
101360
101358
101351
101339
101326
101329
100949
100949
100950
100951
100953
100955
100957
100960
100964
100968
100972
100978
100984
100990
100998
101006
101016
101026
101036
101047
101056
101062
101064
101059
101050
101045
101059
101091
101126
101159
101193
101230
101270
101312
101351
101377
101395
101409
101421
101429
101431
101428
101422
101414
101405
101393
101380
101367
101359
101358
101357
101346
101325
101308
100949
100949
100950
100951
100953
100955
100957
100960
100964
100968
100972
100978
100984
100990
100998
101006
101016
101026
101036
101047
101056
101062
101063
101058
101049
101045
101061
101092
101126
101159
101193
101231
101273
101314
101351
101377
101395
101412
101427
101436
101437
101433
101425
101416
101407
101396
101381
101369
101362
101361
101357
101346
101321
101314
100943
100943
100943
100944
100946
100948
100950
100952
100955
100959
100963
100968
100973
100979
100987
100995
101005
101015
101026
101038
101048
101054
101053
101036
101002
100982
101003
101049
101093
101132
101172
101214
101260
101306
101350
101388
101420
101447
101466
101474
101470
101457
101442
101427
101413
101400
101387
101372
101360
101354
101353
101347
101327
101315
100943
100943
100943
100944
100946
100948
100950
100952
100955
100959
100963
100968
100973
100979
100987
100995
101004
101015
101026
101038
101048
101054
101052
101035
100999
100981
101006
101050
101093
101132
101172
101215
101261
101307
101350
101388
101421
101448
101468
101477
101473
101460
101444
101429
101415
101402
101387
101372
101362
101358
101355
101347
101323
101327
100936
100936
100936
100937
100939
100940
100942
100944
100947
100950
100953
100957
100962
100968
100974
100982
100992
101003
101016
101031
101045
101055
101052
101020
100938
100899
100932
100997
101054
101098
101141
101189
101241
101295
101350
101402
101448
101485
101509
101515
101503
101483
101461
101443
101426
101409
101391
101374
101359
101350
101346
101341
101327
101317
100936
100936
100937
100937
100939
100940
100942
100944
100947
100950
100953
100957
100962
100968
100974
100982
100992
101003
101016
101031
101045
101055
101051
101014
100928
100895
100939
101003
101056
101099
101142
101189
101241
101295
101350
101402
101449
101486
101511
101515
101503
101483
101463
101445
101428
101410
101391
101373
101359
101352
101348
101341
101324
101316
100929
100929
100929
100930
100931
100932
100933
100935
100937
100940
100942
100946
100950
100955
100961
100968
100977
100989
101004
101024
101049
101077
101093
101035
100855
100750
100836
100947
101015
101057
101102
101155
101214
101277
101346
101413
101476
101524
101560
101563
101540
101508
101480
101459
101438
101415
101393
101373
101356
101344
101337
101334
101322
101318
100929
100929
100929
100930
100931
100932
100933
100935
100937
100940
100942
100946
100950
100955
100961
100968
100977
100989
101004
101024
101049
101077
101092
101029
100827
100755
100850
100949
101014
101058
101103
101155
101213
101277
101346
101411
101477
101524
101576
101576
101545
101506
101476
101455
101434
101413
101391
101371
101355
101344
101339
101335
101324
101315
100922
100922
100922
100922
100923
100924
100925
100926
100927
100929
100931
100933
100936
100940
100945
100952
100960
100971
100987
101010
101046
101112
101179
101179
100638
100481
100672
100898
100983
101008
101049
101108
101174
101248
101331
101416
101499
101555
101621
101628
101582
101524
101486
101462
101438
101413
101389
101369
101352
101339
101332
101329
101322
101316
100922
100922
100922
100922
100923
100924
100925
100926
100927
100929
100931
100933
100936
100940
100945
100952
100960
100971
100987
101009
101046
101110
101174
101161
100527
100580
100745
100909
100981
101013
101055
101110
101174
101247
101333
101421
101511
101539
101618
101630
101577
101517
101483
101461
101437
101412
101388
101367
101351
101339
101333
101329
101324
101314
100914
100914
100914
100915
100915
100915
100916
100916
100917
100918
100919
100920
100922
100925
100928
100933
100939
100948
100961
100980
101009
101056
101173
101453
100454
100668
100873
100944
100950
100980
101037
101108
101193
101294
101403
101520
101560
101635
101687
101626
101539
101489
101459
101432
101404
101381
101362
101345
101332
101324
101319
101317
101309
100914
100914
100914
100915
100915
100915
100916
100916
100917
100918
100919
100920
100922
100925
100928
100933
100939
100948
100961
100980
101009
101055
101170
101440
100408
100693
100884
100948
100958
100988
101042
101110
101194
101285
101413
101530
101522
101513
101659
101612
101536
101489
101457
101427
101400
101378
101360
101345
101333
101325
101321
101319
101310
100907
100907
100907
100907
100907
100907
100906
100906
100906
100906
100906
100907
100907
100908
100910
100912
100916
100920
100927
100935
100943
100939
100899
100823
100527
100551
100836
100970
100963
100930
100931
100962
101015
101097
101206
101319
101447
101484
101550
101729
101663
101566
101496
101446
101407
101379
101358
101343
101331
101320
101313
101309
101310
101302
100907
100907
100907
100907
100907
100907
100906
100906
100906
100906
100906
100907
100907
100908
100910
100912
100916
100920
100927
100935
100942
100938
100897
100813
100526
100619
100880
100975
100954
100925
100932
100965
101016
101088
101147
101316
101329
101571
101513
101532
101558
101532
101489
101444
101406
101377
101357
101342
101330
101320
101314
101310
101310
101304
100900
100899
100899
100899
100899
100898
100897
100896
100896
100895
100894
100893
100892
100891
100890
100890
100890
100890
100889
100887
100880
100862
100828
100762
100696
100709
100852
100922
100921
100908
100900
100900
100918
100979
101145
101311
101289
101508
101790
101597
101554
101523
101464
101407
101366
101342
101327
101318
101311
101306
101304
101303
101308
101301
100900
100899
100899
100899
100899
100898
100897
100896
100896
100895
100894
100893
100892
100891
100890
100890
100890
100890
100889
100887
100880
100862
100827
100762
100693
100723
100859
100918
100911
100896
100890
100895
100913
100953
101005
101228
101037
101441
101899
100945
101360
101498
101467
101413
101369
101343
101328
101318
101310
101306
101304
101303
101307
101301
100892
100892
100892
100891
100890
100889
100888
100887
100885
100883
100881
100878
100876
100873
100870
100866
100863
100858
100853
100844
100832
100813
100787
100748
100704
100698
100743
100790
100817
100830
100833
100827
100815
100816
100922
101183
102214
101438
100584
100888
101369
101479
101424
101362
101321
101303
101294
101289
101287
101288
101290
101295
101306
101302
100892
100892
100892
100891
100890
100889
100888
100887
100885
100883
100881
100878
100876
100873
100870
100866
100863
100858
100853
100844
100832
100813
100786
100748
100705
100703
100747
100789
100811
100820
100824
100821
100816
100747
100895
101212
101715
99722.5
100189
99666.2
100396
101309
101419
101370
101326
101303
101295
101290
101287
101287
101290
101296
101306
101303
100885
100885
100884
100884
100883
100881
100879
100877
100874
100871
100868
100864
100860
100855
100849
100843
100836
100828
100818
100805
100788
100767
100740
100707
100672
100654
100663
100686
100705
100719
100726
100726
100634
100690
100757
99805.3
99223.1
98888.8
98974.6
99529.5
100411
101224
101342
101279
101254
101251
101252
101255
101259
101265
101271
101279
101293
101293
100885
100885
100884
100884
100883
100881
100879
100877
100874
100871
100868
100864
100860
100855
100849
100843
100836
100828
100818
100805
100788
100767
100740
100707
100673
100656
100665
100686
100702
100713
100724
100732
100746
100772
100708
100316
102331
99509.6
99142.3
99181.4
99811.2
100738
101260
101284
101251
101245
101250
101255
101260
101265
101271
101280
101298
101301
100878
100878
100878
100876
100875
100873
100870
100867
100864
100860
100856
100850
100844
100837
100830
100821
100811
100799
100785
100767
100747
100722
100692
100659
100627
100602
100592
100591
100591
100598
100609
100649
100410
100631
101092
100575
98804.4
98701.1
99158.1
99566.3
100072
100737
101103
101146
101171
101190
101206
101220
101234
101246
101257
101266
101283
101296
100878
100878
100878
100876
100875
100873
100870
100867
100864
100860
100856
100850
100844
100837
100830
100821
100811
100799
100785
100767
100747
100722
100692
100659
100627
100602
100592
100590
100589
100592
100601
100656
100620
100689
100990
100022
100190
99110.9
99355.3
99682.9
100230
100730
100967
101085
101160
101189
101205
101221
101235
101246
101255
101266
101281
101288
100872
100872
100871
100870
100868
100865
100862
100859
100854
100849
100844
100837
100829
100821
100811
100799
100786
100771
100753
100732
100707
100678
100645
100609
100571
100536
100507
100483
100465
100470
100503
100766
100557
99686
99840.7
99733.8
98866
98947
99406
99818.4
100110
100363
100884
101027
101101
101135
101161
101187
101211
101231
101247
101259
101284
101299
100872
100872
100871
100870
100868
100865
100862
100859
100854
100849
100844
100837
100829
100821
100811
100799
100786
100771
100753
100732
100707
100678
100645
100609
100571
100536
100507
100483
100460
100446
100423
100486
100730
99945.8
96485.6
97168.6
98506.6
98933.9
99483.1
99936
100316
100501
100755
100978
101095
101137
101162
101187
101211
101231
101246
101257
101275
101294
100866
100866
100865
100863
100861
100858
100855
100850
100845
100839
100833
100825
100815
100805
100793
100779
100763
100745
100723
100698
100669
100636
100597
100555
100508
100459
100410
100361
100316
100298
100395
100608
100865
99847.9
98486.5
98388.6
98703.4
99110.4
99419.8
99613.8
99872.7
100122
100575
100925
101045
101088
101120
101154
101187
101214
101234
101250
101272
101286
100866
100866
100865
100863
100861
100858
100855
100850
100845
100839
100833
100825
100815
100805
100793
100779
100763
100745
100723
100698
100669
100636
100597
100554
100508
100460
100410
100361
100307
100266
100194
100452
100628
99794.1
97433.8
97965.4
98670.5
99151.9
99454.1
99644.2
99962.6
100230
100548
100892
101037
101086
101120
101154
101186
101214
101235
101249
101273
101292
100861
100861
100859
100857
100855
100852
100848
100843
100837
100830
100822
100813
100803
100790
100776
100760
100742
100720
100696
100667
100634
100595
100551
100500
100443
100379
100307
100218
100126
99920.9
100181
100178
100530
92870.2
94843.7
97602.6
98800.4
99368.8
99406.3
99317
99563.7
100002
100480
100812
100958
101027
101074
101120
101163
101199
101229
101246
101267
101285
100861
100861
100859
100857
100855
100852
100848
100843
100837
100830
100822
100813
100803
100790
100776
100760
100742
100720
100696
100667
100634
100595
100551
100500
100443
100379
100307
100223
100121
99985.4
99889.9
99988.9
98237.9
97693.8
97671.2
98263.9
99035.5
99480.8
99428.1
99280.4
99574.2
100073
100510
100809
100952
101023
101075
101121
101163
101198
101228
101247
101263
101270
100856
100856
100854
100852
100850
100846
100841
100836
100829
100822
100813
100803
100791
100777
100762
100744
100723
100699
100671
100639
100601
100557
100507
100448
100379
100299
100203
100078
99919.3
99607.9
99137
100404
96321.8
93684.6
96055.8
98388
99717
100088
99687.5
99290.2
99478.6
99938
100381
100693
100858
100964
101032
101089
101141
101185
101225
101254
101275
101286
100856
100856
100854
100852
100850
100846
100841
100836
100829
100822
100813
100803
100791
100777
100762
100744
100723
100699
100671
100639
100601
100557
100507
100448
100379
100299
100202
100089
99929.9
99693.6
99393.8
99057.4
96957.8
95231.8
97235.4
98856.4
99949.4
100204
99702
99243.6
99466.5
100009
100446
100697
100854
100958
101031
101090
101140
101181
101222
101255
101276
101288
100852
100852
100850
100848
100845
100841
100836
100830
100823
100815
100805
100794
100781
100766
100749
100729
100706
100680
100649
100614
100572
100524
100467
100400
100320
100225
100107
99957.9
99754.8
99472.7
98933.6
98675.5
100157
100186
99822.3
100465
101177
101013
100095
99305.9
99365.7
99818.6
100256
100587
100787
100916
101000
101066
101120
101163
101200
101241
101292
101305
100852
100852
100850
100848
100845
100841
100836
100830
100823
100815
100805
100794
100781
100766
100749
100729
100706
100680
100649
100614
100572
100524
100467
100400
100320
100223
100100
99961.3
99784.4
99553.5
99261.1
98580.1
97432
98119.2
99424.6
100617
101382
101114
100100
99261.6
99344.4
99867.7
100306
100588
100779
100909
100996
101066
101119
101159
101195
101227
101286
101312
100849
100848
100847
100844
100841
100837
100832
100825
100818
100809
100799
100787
100773
100757
100739
100717
100693
100664
100631
100593
100548
100496
100433
100360
100271
100163
100030
99866.1
99642.2
99357.6
98895.1
98343
98641
99764.4
99829.9
100465
101309
101211
100269
99258.7
99232
99723.6
100229
100561
100750
100881
100983
101057
101109
101144
101173
101209
101258
101304
100849
100848
100847
100844
100841
100837
100832
100825
100818
100809
100799
100787
100773
100757
100739
100717
100693
100664
100631
100593
100548
100496
100433
100359
100270
100157
100028
99867.1
99649.2
99376.8
99126.2
98111.8
97812.1
98889.4
99828.9
100866
101486
101213
100283
99287.9
99205.6
99729.8
100252
100574
100752
100876
100975
101056
101112
101148
101170
101183
101221
101307
100847
100846
100844
100842
100838
100834
100828
100822
100814
100805
100794
100781
100767
100750
100730
100708
100682
100652
100617
100577
100529
100474
100407
100329
100234
100119
99978.6
99800.7
99568.4
99272.6
98912.8
98352.4
98066.2
98497.1
98071.8
99074.2
100152
100562
100283
99624.1
99481.5
99886.9
100338
100648
100781
100890
100992
101061
101108
101137
101162
101170
101158
101275
100847
100846
100844
100842
100838
100834
100828
100822
100814
100805
100794
100781
100767
100750
100730
100708
100682
100652
100617
100577
100529
100474
100407
100328
100234
100119
99985.2
99806.6
99562.1
99262.8
98875.7
98304.9
98088.9
98483.9
99058.3
99694.8
99788.8
100098
100089
99702.3
99527.6
99860.5
100329
100664
100806
100891
100984
101063
101112
101142
101169
101165
101114
101247
100845
100845
100843
100840
100836
100832
100826
100819
100811
100802
100791
100778
100763
100745
100725
100702
100675
100644
100608
100566
100517
100459
100390
100307
100209
100089
99941.5
99757.6
99525.5
99234.5
98896.1
98453.6
98059.1
97534.5
96767.4
96828.5
96231.7
96329
96858.7
98179.4
99159.6
100010
100468
100755
100909
101008
101075
101115
101142
101160
101184
101179
101111
101219
100845
100845
100843
100840
100836
100832
100826
100819
100811
100802
100791
100778
100763
100745
100725
100702
100675
100644
100608
100566
100517
100459
100390
100308
100209
100089
99943.7
99764.3
99526.8
99222.7
98906.9
98472.8
98074.1
97891.2
97436.4
96615.1
95659.6
95851.1
96560
98005.8
99233.2
100018
100466
100752
100907
101010
101075
101117
101141
101161
101200
101199
101101
101202
100844
100843
100841
100839
100835
100831
100825
100818
100810
100800
100789
100775
100760
100742
100722
100698
100671
100640
100603
100560
100510
100451
100380
100296
100195
100073
99922.4
99736.5
99506
99222.2
98882.7
98459.8
97943.1
97447.8
96912.5
95758.4
93725.8
93043.1
93783.6
95828.4
97974.7
99385.8
100135
100533
100820
101014
101099
101132
101151
101166
101171
101162
101142
101203
100844
100843
100841
100839
100835
100831
100825
100818
100810
100800
100789
100775
100760
100742
100722
100698
100671
100640
100603
100560
100510
100451
100381
100297
100196
100073
99923.1
99738.9
99508.2
99224.6
98899
98517.9
98105.1
97512.5
96376.5
94887.3
93718
93220.1
93866.8
95720
97890.6
99385.9
100142
100526
100793
101002
101105
101132
101149
101167
101177
101168
101149
101219
100732
101168
100647
101572
101579
100617
100554
100596
100506
100442
100622
101156
100566
101577
101538
100581
100427
100566
100417
100410
101456
100887
100568
100873
100501
100544
100449
100552
100384
100476
100375
101425
100868
100483
100868
100471
100414
100407
100445
100394
100438
100435
100957
101032
100948
101080
100957
101073
100944
100792
100841
100781
100763
100687
100735
100659
100937
101026
100931
101065
100909
101062
100887
100774
100820
100769
100682
100631
100652
100621
101244
101177
101241
101226
101374
101225
101376
100565
100700
100625
100705
100591
100567
100535
100620
100440
100451
100410
100450
101235
101173
101234
101223
101363
101220
101369
100363
100628
100470
100558
100438
100654
100594
100673
100394
100475
100425
100542
101262
101172
101263
101041
101025
101040
101019
100676
101465
101155
101153
100724
100436
100475
100483
100411
100479
100426
100510
100417
100517
101255
101167
101259
101037
101013
101036
101015
100639
101438
101141
100642
101139
100405
100403
100497
100433
100545
100449
100543
100489
100574
100677
100819
100672
100787
100689
100788
100692
100367
100528
100417
100599
100578
100604
100595
100665
100812
100664
100788
100692
100788
100695
100468
100529
100480
100609
100610
100612
100613
101055
100951
100716
100944
101091
101050
100699
100909
100933
101033
101414
101491
101586
101498
101428
101214
101253
101414
101499
101583
101497
101417
101212
101207
100531
100597
100654
100673
100461
100568
100589
100566
100503
100492
100496
100583
100540
100469
100546
100461
100458
100474
100470
101003
100879
100596
100868
101043
101011
100568
100853
100843
101000
101424
101494
101567
101417
101504
101243
101231
101421
101492
101555
101492
101398
101259
101192
100306
100440
100496
100526
100237
100407
100456
100461
100446
100393
100459
100436
100355
100289
100454
100438
100390
100433
100418
100343
100398
100668
101461
101149
101147
100654
100332
100305
100377
100657
100552
100653
100429
100369
100528
100629
100340
100641
100456
100524
100495
100465
100487
100419
100406
100434
100479
100400
100420
100409
100436
100528
100543
100526
100447
100430
100515
100477
100424
100510
100292
100295
100642
101435
101138
101142
100671
100295
100340
100318
100622
100466
100333
100612
100313
100466
100599
100608
100358
100403
100395
100382
100405
100381
100403
100402
100403
100394
100403
100388
100402
100408
100447
100420
100416
100427
100400
100423
100442
100426
100403
101250
101107
101177
101319
101102
101320
101257
101210
101066
101157
101302
101056
101212
101307
101244
101173
101084
101314
101095
101317
101238
100605
100658
100619
100504
100652
100504
100613
100580
100611
100607
100507
100630
100507
100529
101224
101164
101069
101327
101067
101320
101228
100526
100592
100572
100501
100568
100514
100500
100513
100568
100544
100490
100554
100499
100486
100791
100965
100798
100883
100959
100796
100798
100780
100949
100879
100781
100952
100771
100790
100401
100411
100428
100369
100386
100419
100413
100379
100370
100362
100422
100368
100380
100420
100750
100942
100775
100864
100757
100937
100768
100751
100949
100867
100763
100945
100767
100756
100382
100372
100420
100412
100381
100374
100413
100383
100399
100426
100415
100388
100402
100389
100576
100642
100466
100583
100655
100537
100516
100355
100253
100221
100364
100354
100176
100204
100312
100564
100586
100652
100522
100652
100528
100555
100268
100501
100400
100009
100529
100214
100085
100007
99921.6
100068
99898.2
100323
100416
100563
100197
100382
100538
100146
99928.8
99788.9
99845.7
99863
101125
100890
100927
100680
100890
101120
100933
101356
101600
101613
101365
101348
101595
101599
101341
101137
100679
100937
100938
100906
100937
101134
100448
100468
101132
100872
100625
100912
100872
101113
100896
101384
101613
101588
101345
101375
101605
101595
101315
101139
100627
100887
100905
101114
100877
100899
100400
100401
100611
100990
100638
101060
100998
100598
100649
100429
100300
100269
100450
100410
100222
100240
100397
100608
101062
100998
100687
101000
100648
100668
100568
100983
100627
101041
100587
100972
100606
100318
100031
100095
100295
100354
100192
100382
100153
100550
101033
100953
100555
100963
100586
100541
101633
101464
101617
101413
101464
101616
101631
101695
101681
101695
101681
101686
101677
101683
101681
101643
101425
101464
101626
101469
101630
101622
101215
101223
101634
101463
101419
101619
101465
101631
101621
101692
101694
101699
101680
101639
101421
101472
101642
101467
101621
101651
101686
101679
101682
101679
101211
101204
100441
100619
100396
100507
100490
100599
100336
100157
99959.9
100106
100029
100185
100124
100246
100074
100419
100472
100572
100256
100408
100570
100294
100578
100581
100535
100556
100538
100575
100565
100545
100528
100549
100572
100583
100546
100533
100544
100522
100566
100545
100578
100570
100559
100569
100554
100544
100512
100481
100504
100541
100521
100522
100525
100512
100508
100479
100468
100472
100481
100489
100493
100490
100476
100504
100492
100478
100490
100515
100501
100496
100477
100902
101006
100521
100920
100451
100522
100226
99989.9
99992.6
100233
100458
101019
100937
100596
100918
100482
100540
100237
99921.6
99969.9
100205
100384
100879
100534
101002
100394
100875
100525
100153
99948.3
99884.6
100211
100147
99897.6
100165
99875.1
100383
100959
100876
100527
100868
100490
100464
101696
101443
101465
101766
101458
101699
101703
101797
101711
101676
101712
101682
101447
101470
101730
101451
101680
101702
101759
101736
101684
101762
101249
101261
101666
101447
101736
101409
101435
101661
101722
101753
101646
101715
101664
101734
101702
101731
101711
101668
101399
101440
101702
101438
101783
101628
101256
101203
100180
100472
99937
100272
100182
100465
99907.3
99783.8
99831.6
99742.9
99862.4
99819.6
99768.4
99834.7
99741.2
100115
100236
100394
99876.7
100424
99873
100132
100431
100445
100427
100454
100470
100447
100465
100445
100430
100448
100458
100461
100444
100445
100449
100477
100463
100459
100470
100450
100425
100410
100419
100421
100311
100292
100436
100474
100445
100431
100469
100435
100435
100438
100416
100417
100445
100430
100405
100419
100412
100436
100414
100453
100438
100459
100431
100439
100347
100342
101122
100890
100921
100665
101116
100890
100923
101342
101596
101333
101592
101345
101595
101340
101597
101125
100662
100886
100917
101117