/*--------------------------------*- C++ -*----------------------------------*\
| =========                 |                                                 |
| \\      /  F ield         | OpenFOAM: The Open Source CFD Toolbox           |
|  \\    /   O peration     | Version:  4.1                                   |
|   \\  /    A nd           | Web:      www.OpenFOAM.org                      |
|    \\/     M anipulation  |                                                 |
\*---------------------------------------------------------------------------*/
FoamFile
{
    version     2.0;
    format      ascii;
    class       volScalarField;
    location    "5";
    object      epsilon;
}
// * * * * * * * * * * * * * * * * * * * * * * * * * * * * * * * * * * * * * //

dimensions      [0 2 -3 0 0 0 0];

internalField   nonuniform List<scalar> 
4432
(
0.000381224
0.000436142
0.000495729
0.000543152
0.00059269
0.00060933
0.000686017
0.00072427
0.000754951
0.000790161
0.000811968
0.000889229
0.000921277
0.000898855
0.000975822
0.00089915
0.000953473
0.000901629
0.000903625
0.00097026
0.001005
0.000987496
0.000960816
0.00103938
0.00108899
0.00113514
0.00114959
0.00118318
0.00101832
0.000995532
0.00101906
0.000980316
0.000982873
0.00097647
0.00116899
0.00147026
0.00146853
0.00130677
0.00102804
0.00108881
0.000831791
0.000824139
0.000816566
0.000730229
0.000490764
0.000499641
0.000207053
0.000619903
0.00109929
0.000940161
0.00253288
0.00223281
0.00109816
0.00310827
0.000381726
0.000435455
0.000492733
0.00054338
0.000581605
0.000623092
0.000631347
0.000707861
0.000746134
0.000754347
0.000834414
0.000787398
0.000836952
0.000824637
0.000889818
0.000832328
0.000884828
0.000915242
0.000884223
0.000948037
0.00097624
0.000956344
0.000934215
0.000999592
0.00104243
0.00108246
0.00109363
0.00112236
0.00098928
0.000941723
0.000954041
0.000935023
0.000940804
0.000937765
0.00108921
0.00126188
0.00133271
0.00107405
0.00110032
0.00101811
0.000811202
0.000766572
0.000741724
0.000662485
0.00035078
6.86328e-05
0.00039437
0.000676154
0.00103554
0.000838583
0.00264814
0.00213803
0.000966592
0.00313446
0.0310951
0.000187898
0.000148795
0.000148948
0.000148948
0.000148909
0.000148926
0.000148931
0.000149051
0.000149309
0.000149001
0.000148944
0.00014925
0.000148929
0.000148875
0.000149035
0.000149002
0.00014913
0.000148915
0.000148882
0.000149044
0.000149079
0.000149082
0.000149107
0.000149312
0.000149461
0.000149723
0.000150279
0.00015075
0.000151707
0.000153597
0.000156449
0.00016264
0.000174831
0.000218877
0.000293636
0.000254595
0.000172601
0.000185172
0.000223848
0.000188759
0.000336865
0.000307516
0.000668834
0.000174486
0.000239758
0.00062704
0.00164
0.00297677
0.00453974
0.00637288
0.00813244
0.00546728
0.0119516
0.0310949
0.00018764
0.00014878
0.000148932
0.000148929
0.000148895
0.000148914
0.000149028
0.000149138
0.000149281
0.000148991
0.000148908
0.000149216
0.000148901
0.000148911
0.00014914
0.00014912
0.000149169
0.000148893
0.000148849
0.000149011
0.000149036
0.000149034
0.000149045
0.000149164
0.000149306
0.000149567
0.000150059
0.000150458
0.000151229
0.000152817
0.000155403
0.000160935
0.000168367
0.000198112
0.000256822
0.000235398
0.000156244
0.000135478
0.000197982
0.000284959
0.0002578
0.000276771
0.000633533
0.000175835
0.000256663
0.000769038
0.00203444
0.00383447
0.00634399
0.00825905
0.00733188
0.00495244
0.0121237
0.0310545
0.000181686
0.000148671
0.000148722
0.00014879
0.000148763
0.000148763
0.000148804
0.000148803
0.000148872
0.000149077
0.000148928
0.000148849
0.000148918
0.000148982
0.00014892
0.000148917
0.000149173
0.000148858
0.000148848
0.000149025
0.000149023
0.000149152
0.000148928
0.000148923
0.000149138
0.000148998
0.000148979
0.00014912
0.000149004
0.000149063
0.000149196
0.000149232
0.000149368
0.000149635
0.00015022
0.000149841
0.000149697
0.000149639
0.00014959
0.000149174
0.000150414
0.000150249
0.000149848
0.000150151
0.000149846
0.000149419
0.000149863
0.000151406
0.000166079
0.000169543
0.000115029
0.00033839
0.0017699
0.0310549
0.000181639
0.00014866
0.000148712
0.00014878
0.000148765
0.000148763
0.000148816
0.000148816
0.000148884
0.000149089
0.000148915
0.000148836
0.000148905
0.00014897
0.000148907
0.000148903
0.000149157
0.000148843
0.000148831
0.000149007
0.000149002
0.000149128
0.000148907
0.000148899
0.00014911
0.000148969
0.000148946
0.000149082
0.00014896
0.00014901
0.00014918
0.000149219
0.000149246
0.000149442
0.000150035
0.000149663
0.000149768
0.000149587
0.000149364
0.000149188
0.000149204
0.000150093
0.000149821
0.000150065
0.000149819
0.000149305
0.000149879
0.000155859
0.000215689
0.000273721
0.000211531
0.00034286
0.00174298
0.0310551
0.000181686
0.000148671
0.000148723
0.000148724
0.00014881
0.000148911
0.000148961
0.00014893
0.00014893
0.000148991
0.000148959
0.00014891
0.000148954
0.000149007
0.00014899
0.000149111
0.00014892
0.000148851
0.000148923
0.000148993
0.000148927
0.000148917
0.000149086
0.00014902
0.000149022
0.00014902
0.000149003
0.000149031
0.0001492
0.000149258
0.000149046
0.000149045
0.000149186
0.000149104
0.000149067
0.000149313
0.000149488
0.000149348
0.000149488
0.000149864
0.000149669
0.000149641
0.000150286
0.000149676
0.000149345
0.000149384
0.000149583
0.000151043
0.000153657
0.000154746
0.000153722
0.000162799
0.000255743
0.0310555
0.000181638
0.00014866
0.000148712
0.000148712
0.000148815
0.000148943
0.000148909
0.000148908
0.000149042
0.000148977
0.000148895
0.000148883
0.000148941
0.00014915
0.000148973
0.0001489
0.000148955
0.000149019
0.000149208
0.000148908
0.000148839
0.000149004
0.000148992
0.000149011
0.000148946
0.000149009
0.000148974
0.00014897
0.000149083
0.00014914
0.00014916
0.00014903
0.00014904
0.000149075
0.000149048
0.000149138
0.000149365
0.00014924
0.000149415
0.000149745
0.000149741
0.000149964
0.000149706
0.000149796
0.000149567
0.000149183
0.00014935
0.000151548
0.000154809
0.000154251
0.000153574
0.000163127
0.000257064
0.0310554
0.000181687
0.000148671
0.000148723
0.000148792
0.000148765
0.000148763
0.000148854
0.000149057
0.000148995
0.000148987
0.000149182
0.000148923
0.000148832
0.000148958
0.000148916
0.00014892
0.00014904
0.000149095
0.000149095
0.000148923
0.000148837
0.000148893
0.000148897
0.00014894
0.000148978
0.000148988
0.000149081
0.000149137
0.00014905
0.000148973
0.000149103
0.000149229
0.000149254
0.000149297
0.000149334
0.000149361
0.000149274
0.000149262
0.000149196
0.000149338
0.000149324
0.000149501
0.000149805
0.000149685
0.00014979
0.000149398
0.000149527
0.000150344
0.000150216
0.000150205
0.000149893
0.000153081
0.000228601
0.0310558
0.000181637
0.000148661
0.000148713
0.000148782
0.000148768
0.000148765
0.00014882
0.000148821
0.000148887
0.000149082
0.000149008
0.000148939
0.000149096
0.000149033
0.000149033
0.000149155
0.000148902
0.000148831
0.000149015
0.000149016
0.00014907
0.00014906
0.000149124
0.000148916
0.000148834
0.000148927
0.000148983
0.000148923
0.000148875
0.000148938
0.000148966
0.000149005
0.000149085
0.000149304
0.000149051
0.000149032
0.000149254
0.00014915
0.000149146
0.000149284
0.000149185
0.000149611
0.000149994
0.000149506
0.000149608
0.000149332
0.000149833
0.000150408
0.000150232
0.000150379
0.000150591
0.000153149
0.000225073
0.0310557
0.000181683
0.000148743
0.000148867
0.000148866
0.000148933
0.000149069
0.000149137
0.000149205
0.000148973
0.000148962
0.000149182
0.000148924
0.000148844
0.000148911
0.000148903
0.000148967
0.000148943
0.000148966
0.000149045
0.0001489
0.000148857
0.000148963
0.00014896
0.000148996
0.000148995
0.000149093
0.000149089
0.000149096
0.000149141
0.000148911
0.000148971
0.000149107
0.000149131
0.000149118
0.000149149
0.000149038
0.000149042
0.000149195
0.000149143
0.000149211
0.000149182
0.000149275
0.000149527
0.000149314
0.000149311
0.000148974
0.000149291
0.000149339
0.000149242
0.000149919
0.00014929
0.000151216
0.000214536
0.0310561
0.000181635
0.000148732
0.000148856
0.000148854
0.000148852
0.000148868
0.000148935
0.000149122
0.000148983
0.000148974
0.00014917
0.000149107
0.000149105
0.000148911
0.000148839
0.000148903
0.000148903
0.000149011
0.000149055
0.00014889
0.00014884
0.000148941
0.000148941
0.000148974
0.000148998
0.000149071
0.000149065
0.000149043
0.000149099
0.000148869
0.000148871
0.000149066
0.000149053
0.000149158
0.000148976
0.000149119
0.000148999
0.000149129
0.000149131
0.0001492
0.000149144
0.00014914
0.000149567
0.000149163
0.000149235
0.000149015
0.000149209
0.000149199
0.000149117
0.00015039
0.000151365
0.000151795
0.000213443
0.0310559
0.000181685
0.000148743
0.000148868
0.000148866
0.000148933
0.00014907
0.000148928
0.000148923
0.000149194
0.000148926
0.000148922
0.000149188
0.000148989
0.000148921
0.000148987
0.000149113
0.000148922
0.000148853
0.000149104
0.000149096
0.000149033
0.000149039
0.000149112
0.000149095
0.000149156
0.000149023
0.000149024
0.000149248
0.000149222
0.00014899
0.000148963
0.000149136
0.000149146
0.000149104
0.000149302
0.000149032
0.000149067
0.00014935
0.00014937
0.000149124
0.000149429
0.00014943
0.000149398
0.0001494
0.000149377
0.000149269
0.000149459
0.000149189
0.000148938
0.000149978
0.000150434
0.000151436
0.000185816
0.0310563
0.000181636
0.000148732
0.000148856
0.000148854
0.000148853
0.000148867
0.000148998
0.000149047
0.000149114
0.000148913
0.000148909
0.000149174
0.000148976
0.000148907
0.000148974
0.000149101
0.000148909
0.000148837
0.000149089
0.000148909
0.000148903
0.000148971
0.00014897
0.000149019
0.000149034
0.000149033
0.000149057
0.000149085
0.000149012
0.000148982
0.000149063
0.000148996
0.000149054
0.000149059
0.000149212
0.000149025
0.000149032
0.000149359
0.000149313
0.000149087
0.000149381
0.000149248
0.00014937
0.000149412
0.000149256
0.000149217
0.000149509
0.000149207
0.000149048
0.00015011
0.0001509
0.000151358
0.000186381
0.0310562
0.000181691
0.000148672
0.000148723
0.000148723
0.000148791
0.00014886
0.00014886
0.000149063
0.00014893
0.000148853
0.000149051
0.000149051
0.000149181
0.000148923
0.000148918
0.000149238
0.000149209
0.000148957
0.000148857
0.000149032
0.000149014
0.000148991
0.000148996
0.000148976
0.000148966
0.00014903
0.000149188
0.00014907
0.000149067
0.000149251
0.000149027
0.000148923
0.000149005
0.000149162
0.00014904
0.000149112
0.000149091
0.000149128
0.000149107
0.00014909
0.000149524
0.000149593
0.00014955
0.000149809
0.000149332
0.000149249
0.000149565
0.00014926
0.000148888
0.000149727
0.000150495
0.00015069
0.000176897
0.0310566
0.000181642
0.00014866
0.000148712
0.000148712
0.000148781
0.000148848
0.000148848
0.000149051
0.000148918
0.000148841
0.000149038
0.000149038
0.00014917
0.000148911
0.000148905
0.000149161
0.000149141
0.000148887
0.000148837
0.000148905
0.000148902
0.000149076
0.000149057
0.000149053
0.000149151
0.000149148
0.000148968
0.000148977
0.000149067
0.000149096
0.000148995
0.000148897
0.000148939
0.000149057
0.000149073
0.000148999
0.000149063
0.000149105
0.00014908
0.000149059
0.000149605
0.000149442
0.000149347
0.000149449
0.000149268
0.000149249
0.000149353
0.000149349
0.000149426
0.000149745
0.000150222
0.000151354
0.000177442
0.0310563
0.000181692
0.000148671
0.000148723
0.000148792
0.00014886
0.000149065
0.000148985
0.00014898
0.000149266
0.000148926
0.000148918
0.000149183
0.000148924
0.000148893
0.000148961
0.000149051
0.000148986
0.000148979
0.000148989
0.00014899
0.000149113
0.000149114
0.000149249
0.000148948
0.000148881
0.000149066
0.00014907
0.000149101
0.000149098
0.00014922
0.00014902
0.00014885
0.000148932
0.000148987
0.000148966
0.000149057
0.000149093
0.000149048
0.000149081
0.000149401
0.000149457
0.000149452
0.000149518
0.000149758
0.000149224
0.000149457
0.000149969
0.000149683
0.000149116
0.000149512
0.000150122
0.000150118
0.000163909
0.0310567
0.000181644
0.00014866
0.000148712
0.000148781
0.00014885
0.000148849
0.000148917
0.000148984
0.000149118
0.000148913
0.000148905
0.00014917
0.000148911
0.000148882
0.000148949
0.000149037
0.000148972
0.000148964
0.000149159
0.000149106
0.00014917
0.000148985
0.000148946
0.000149053
0.000149038
0.000149087
0.000148848
0.000148784
0.000148927
0.000148939
0.000149048
0.000148984
0.000148935
0.000149117
0.000149113
0.000149159
0.000149055
0.000149013
0.000149044
0.000149359
0.000149354
0.000149283
0.000149451
0.000149412
0.000149288
0.000149117
0.000149094
0.000149341
0.00014945
0.00014954
0.000149765
0.000150387
0.000166156
0.0310566
0.000181695
0.000148672
0.000148723
0.000148791
0.000148859
0.000149061
0.00014897
0.000148965
0.000149254
0.000149243
0.000148913
0.000148852
0.000149118
0.00014887
0.000148866
0.00014905
0.00014905
0.000149167
0.000148918
0.000148851
0.000149034
0.000149033
0.000149174
0.000148955
0.000148897
0.000149115
0.000149027
0.000149004
0.000149084
0.00014918
0.000149002
0.000148968
0.00014924
0.000149266
0.000149214
0.000149083
0.000149239
0.000149197
0.000149248
0.000149227
0.000149271
0.000149319
0.000149524
0.00014986
0.000149235
0.000149387
0.000149994
0.000149802
0.000149352
0.000149588
0.000150167
0.000150218
0.000153354
0.0310569
0.000181645
0.00014866
0.000148711
0.00014878
0.000148849
0.00014905
0.000148975
0.00014897
0.000149245
0.000149238
0.000148906
0.00014884
0.000149104
0.000148975
0.000148907
0.000148973
0.000149105
0.000149034
0.00014902
0.000149015
0.000149018
0.000148982
0.000148997
0.000148928
0.000148863
0.00014909
0.000149002
0.000148946
0.000148991
0.000149177
0.000148942
0.000148926
0.000149002
0.000149061
0.000149103
0.000149122
0.000149258
0.000149178
0.000149228
0.000149231
0.000149323
0.000149297
0.000149348
0.000149504
0.000149427
0.000149178
0.000149221
0.000149545
0.000149777
0.000149546
0.000150197
0.000150214
0.000155462
0.0310565
0.000181696
0.000148672
0.000148722
0.000148723
0.00014879
0.000148857
0.000148926
0.000149057
0.000149122
0.000149188
0.000148924
0.000148857
0.000148925
0.000148985
0.000148921
0.000148787
0.000148854
0.000148855
0.000149043
0.000148851
0.000148781
0.000148853
0.000148855
0.000148976
0.000149017
0.000149146
0.000148968
0.000148944
0.000149195
0.000149199
0.000149055
0.00014903
0.000149234
0.000149122
0.000149117
0.000149274
0.000149025
0.000148952
0.000149023
0.000148992
0.000149044
0.000149309
0.00014927
0.000149447
0.000149525
0.000149425
0.000149565
0.000149854
0.000149968
0.00015002
0.000150628
0.000150241
0.000150702
0.0310569
0.000181647
0.00014866
0.000148711
0.000148711
0.000148779
0.000148846
0.000148914
0.000149047
0.000149113
0.000149178
0.000148913
0.000148844
0.000148912
0.000148971
0.000148907
0.000148902
0.000149158
0.000149143
0.000148896
0.000148767
0.000148885
0.000148886
0.000148905
0.000148893
0.000148955
0.000149158
0.000148923
0.00014888
0.00014908
0.000148956
0.000148926
0.000149022
0.000149021
0.00014909
0.000149137
0.000149308
0.000148999
0.000148929
0.000148992
0.000148983
0.00014911
0.000149256
0.000149361
0.000149651
0.000149444
0.000149174
0.000149557
0.000149515
0.000149841
0.000149741
0.000149961
0.000149849
0.000150483
0.0310567
0.000181696
0.000148741
0.000148861
0.000148859
0.000149064
0.000148985
0.00014898
0.000149259
0.000148993
0.000148922
0.000149189
0.000148929
0.000148855
0.000148924
0.000148991
0.00014892
0.000148912
0.000149168
0.000149155
0.000149217
0.000148911
0.00014885
0.000148934
0.000149048
0.000148972
0.000148964
0.00014927
0.000148968
0.000148828
0.000148894
0.00014893
0.000149047
0.000149079
0.000149154
0.000149249
0.000148991
0.000148808
0.000149011
0.000148997
0.000149072
0.000149093
0.000149365
0.0001493
0.000149289
0.000149625
0.000149541
0.000149921
0.000149688
0.000149824
0.000150064
0.000150173
0.000150195
0.000150869
0.031057
0.000181647
0.000148729
0.00014885
0.000148849
0.000148849
0.000148915
0.000148981
0.000149114
0.000148982
0.000148912
0.000149177
0.000148915
0.000148779
0.000148844
0.000148967
0.000148905
0.000148901
0.000149092
0.000149092
0.000149217
0.000148907
0.000148834
0.000149203
0.000149073
0.000149066
0.000148949
0.000148812
0.00014888
0.000148907
0.000148928
0.000149081
0.000149011
0.000149009
0.00014914
0.000149153
0.000148974
0.000148797
0.000148998
0.000148981
0.000149057
0.000149076
0.000149353
0.000149498
0.000149597
0.000149341
0.000149207
0.000150279
0.000149499
0.000149456
0.000149985
0.000150122
0.000150322
0.000150831
0.0310565
0.000181735
0.000148885
0.000148939
0.000148936
0.000149076
0.000149147
0.000149201
0.00014905
0.00014905
0.000149251
0.000148923
0.00014892
0.000149186
0.000148926
0.000148886
0.000148953
0.000148951
0.00014913
0.000148975
0.000148854
0.000148902
0.000148901
0.000149072
0.000149078
0.000149005
0.000149025
0.000149134
0.000148959
0.00014888
0.000149118
0.000149094
0.000149109
0.000149111
0.000149175
0.000149011
0.000148912
0.000149002
0.00014901
0.000149136
0.000149216
0.00014927
0.0001491
0.000149534
0.000149489
0.000149835
0.000149952
0.000150124
0.000149948
0.000150065
0.000150004
0.000149856
0.000150218
0.000150966
0.0310569
0.000181685
0.000148873
0.000148928
0.000148924
0.000149064
0.000149135
0.00014919
0.00014904
0.00014904
0.000149243
0.000148913
0.000148908
0.00014924
0.000148916
0.000148841
0.000149009
0.000149009
0.000149087
0.000149056
0.000148883
0.000148892
0.000148933
0.000148943
0.000149175
0.000148958
0.000148851
0.00014896
0.000148943
0.00014897
0.000148959
0.000149002
0.000148976
0.000149078
0.000149039
0.000149128
0.000148888
0.000148915
0.000148986
0.000148968
0.000149278
0.000149238
0.000149069
0.00014953
0.000149505
0.000149899
0.000149865
0.00015022
0.000149625
0.000149062
0.000149552
0.000149874
0.000149959
0.000150743
0.0310552
0.000182171
0.000149169
0.000148867
0.000148864
0.000148935
0.000149003
0.000148933
0.000148859
0.000149143
0.000148928
0.000148918
0.000149056
0.000149052
0.000149185
0.000148928
0.000148793
0.00014886
0.00014886
0.000149114
0.000148937
0.000148872
0.000149062
0.000150126
0.00014938
0.000149145
0.000149248
0.000148979
0.000148841
0.000148839
0.000148923
0.000149075
0.000149083
0.000148903
0.000148958
0.000149007
0.000149005
0.000149026
0.000149057
0.000149107
0.000149261
0.000149167
0.000149106
0.00014952
0.000149593
0.000149632
0.000149671
0.000149994
0.000149576
0.000149632
0.000150288
0.00015034
0.000150122
0.000151033
0.0310569
0.000181739
0.00014887
0.000148853
0.000148922
0.000148922
0.000149062
0.000148922
0.000148915
0.000149263
0.000148914
0.00014884
0.000148912
0.000148978
0.000148912
0.000148837
0.000149161
0.000148908
0.000148902
0.000149215
0.000148977
0.000148912
0.000149039
0.000149768
0.000150112
0.000149156
0.000149231
0.000148982
0.000148921
0.000149051
0.000149059
0.00014912
0.000148962
0.00014887
0.000148863
0.000148943
0.000148996
0.000149222
0.000149219
0.000149212
0.000149494
0.000149126
0.000149099
0.000149494
0.000149618
0.000149451
0.000149503
0.00015009
0.000149816
0.000149503
0.000149513
0.000149852
0.000149996
0.000150841
0.0310563
0.000181783
0.000148955
0.000149151
0.00014894
0.000148934
0.000149287
0.000148933
0.000148857
0.000149132
0.000149116
0.000148982
0.000148988
0.000149189
0.000148933
0.000148725
0.000148785
0.000148784
0.000148868
0.000149061
0.000148932
0.000148851
0.000149447
0.000152291
0.000190283
0.000149418
0.00014887
0.000148844
0.000149121
0.000149029
0.000149028
0.000149168
0.000148904
0.000148824
0.000149
0.00014892
0.000148969
0.000148962
0.000149002
0.00014911
0.000149421
0.000149297
0.000149418
0.000149581
0.000149703
0.000149669
0.000149669
0.000149673
0.000149668
0.000149832
0.00014966
0.000150128
0.000150409
0.000151204
0.0311446
0.000182339
0.000149155
0.000148857
0.000148857
0.000149134
0.000148923
0.0001489
0.000149028
0.000148979
0.000148978
0.000149105
0.000149106
0.000149107
0.000149168
0.000149099
0.000149163
0.000148908
0.000148901
0.000149217
0.000148917
0.000148793
0.000150117
0.000151951
0.000204486
0.00014908
0.000148846
0.000148842
0.000148921
0.000148919
0.00014893
0.000148976
0.000148991
0.000149052
0.000149093
0.000149041
0.000149042
0.000149314
0.000149087
0.000149094
0.000149083
0.000149052
0.000149215
0.000149378
0.000149596
0.00014972
0.000149909
0.000150162
0.000150008
0.000149467
0.000149791
0.000150324
0.000150192
0.000150968
0.0311336
0.000182505
0.000148743
0.000148794
0.000148793
0.000148863
0.000149074
0.000148933
0.000148927
0.000149274
0.000148926
0.00014892
0.000149256
0.000148926
0.000148922
0.000149184
0.000148927
0.000148857
0.000148917
0.000148921
0.000148936
0.000148973
0.000149364
0.000151644
0.000169619
0.000148855
0.00014885
0.000148873
0.000148943
0.000148977
0.000148867
0.000148702
0.00014875
0.000148773
0.000148876
0.000149187
0.000148942
0.000148926
0.000149129
0.000149152
0.000149176
0.000149205
0.000149585
0.000149491
0.000149504
0.000149383
0.000149291
0.000149551
0.000149686
0.000150645
0.000150478
0.000150435
0.000151552
0.0310445
0.000182273
0.000148951
0.000149139
0.000148997
0.000149002
0.000149199
0.000148916
0.000148911
0.00014918
0.000149179
0.000148914
0.000148907
0.000149168
0.000148975
0.000148971
0.000149165
0.000148913
0.000148771
0.000148844
0.000148868
0.000148922
0.000150049
0.000306842
0.000167432
0.000148959
0.000149028
0.000148896
0.000148845
0.000148907
0.000148917
0.000149012
0.000148995
0.000149017
0.000149179
0.000149012
0.00014907
0.000149318
0.0001491
0.000149057
0.000149435
0.000149436
0.000149521
0.000149464
0.000149504
0.000149361
0.000149652
0.000149916
0.000150055
0.000150761
0.000149852
0.000149731
0.000151346
0.0310544
0.000181967
0.000148815
0.00014901
0.000149009
0.00014914
0.000148934
0.000148795
0.00014893
0.000148928
0.000148999
0.000148992
0.000149122
0.000148929
0.000148858
0.000149187
0.000149166
0.000148907
0.000148857
0.000148918
0.000148929
0.000149045
0.00014907
0.000149171
0.000150331
0.000148972
0.000148885
0.000148964
0.000149038
0.000149056
0.000149129
0.000149196
0.000148919
0.000148722
0.000148803
0.000148891
0.000148866
0.000149143
0.00014901
0.000148981
0.000149082
0.00014913
0.000149682
0.000149514
0.00014937
0.000149217
0.000149226
0.000149719
0.000149183
0.000149096
0.000149552
0.000149883
0.000150143
0.000150985
0.0310548
0.00018192
0.000148804
0.000148999
0.000148999
0.000149128
0.000148923
0.000148784
0.000148986
0.000148984
0.000148986
0.000148979
0.000149104
0.00014891
0.000148906
0.000149232
0.000148911
0.00014884
0.000149022
0.000149017
0.000148982
0.00014897
0.000149044
0.00015018
0.000150526
0.000149219
0.00014931
0.00014899
0.000148844
0.000148908
0.000148912
0.000149063
0.000149062
0.000149072
0.000149073
0.000148998
0.000149095
0.000149304
0.000149012
0.000148997
0.000149066
0.000149092
0.000149643
0.000149492
0.000149508
0.000149605
0.000149587
0.000150127
0.000149539
0.000149424
0.000150291
0.000149922
0.000149681
0.000150855
0.0310558
0.000181734
0.000148885
0.000148939
0.000148935
0.000149075
0.000149143
0.000149209
0.000148927
0.000148789
0.000148998
0.000148924
0.000148921
0.00014912
0.000148931
0.000148789
0.000148917
0.000148918
0.000149098
0.00014891
0.00014891
0.000149099
0.000148984
0.000148957
0.000149012
0.000149216
0.00014894
0.000148911
0.000149145
0.000149023
0.000148966
0.000148995
0.000148951
0.000149034
0.000149235
0.000149024
0.000149043
0.000149157
0.000149162
0.000149414
0.000149074
0.000149097
0.000149184
0.000149336
0.000149302
0.00014929
0.000149411
0.000149233
0.000149687
0.000149598
0.000149491
0.000149877
0.000150134
0.000150971
0.0310561
0.000181687
0.000148874
0.000148928
0.000148924
0.000149064
0.000149132
0.000149198
0.000148916
0.000148778
0.000148986
0.000148979
0.000149108
0.000148913
0.000148909
0.000149169
0.000149101
0.000149167
0.000148995
0.000148926
0.000149002
0.000149001
0.000149196
0.000149017
0.000148945
0.000148985
0.000148989
0.000149178
0.000148887
0.000148882
0.000149006
0.000149013
0.000149146
0.000148901
0.000148877
0.000149101
0.000148985
0.000148976
0.000149092
0.000149284
0.000149075
0.000149081
0.000149178
0.000149329
0.000149269
0.000149294
0.000149366
0.000149166
0.000149671
0.000149563
0.000149449
0.000149814
0.000150047
0.00015085
0.0310553
0.000181688
0.000148742
0.000148868
0.000148866
0.000148863
0.000148997
0.000148861
0.000148724
0.000148792
0.000148791
0.000148861
0.000148978
0.000149032
0.000149033
0.000149166
0.000148943
0.000148933
0.000149226
0.000148915
0.000148908
0.00014916
0.0001491
0.000149133
0.000149072
0.000149122
0.000148922
0.000148911
0.000149208
0.00014888
0.000148821
0.000149134
0.00014912
0.000148962
0.000148947
0.000149176
0.000149069
0.000149093
0.000149356
0.000149378
0.00014938
0.000149554
0.000149494
0.000149532
0.000149944
0.000149532
0.000149397
0.000149185
0.000149661
0.000149504
0.000149501
0.000150297
0.000150178
0.000151027
0.0310556
0.000181643
0.000148732
0.000148857
0.000148855
0.000148852
0.000148986
0.000148851
0.000148713
0.000148849
0.000148848
0.000148849
0.000148976
0.000148839
0.000148838
0.000148907
0.000148973
0.000148905
0.000148896
0.000149148
0.000149077
0.000149088
0.000148977
0.000148865
0.000148921
0.000148979
0.000149024
0.000149066
0.000149137
0.000148946
0.000148943
0.000149201
0.000149013
0.000148933
0.000149017
0.000149158
0.000149062
0.000149091
0.000149357
0.000149387
0.000149369
0.000149535
0.000149642
0.000149653
0.000149863
0.000149546
0.00014936
0.000149149
0.000149672
0.000149563
0.000149466
0.000150303
0.000150107
0.000150918
0.0310552
0.000181687
0.000148742
0.000148796
0.000148788
0.000148857
0.000148928
0.000149135
0.000148938
0.000148795
0.00014893
0.000148922
0.000148922
0.000148923
0.00014905
0.000148921
0.000148851
0.000148914
0.000148917
0.000148993
0.000149044
0.000149158
0.000148912
0.000148855
0.000148926
0.000148992
0.000148917
0.000148765
0.000148884
0.000148882
0.000148885
0.000148958
0.000149072
0.000148905
0.000148872
0.000149003
0.000148993
0.000148995
0.000148974
0.000149224
0.000149156
0.000149145
0.000149247
0.000149238
0.000149736
0.000149354
0.000149339
0.000149466
0.000149667
0.000149564
0.00014952
0.000150277
0.000150188
0.000151008
0.0310556
0.000181641
0.000148731
0.000148786
0.00014876
0.000148829
0.000148899
0.000149106
0.000148927
0.000148785
0.000148918
0.000148911
0.000148911
0.000148978
0.000149105
0.000148906
0.000148854
0.000148917
0.000148965
0.0001489
0.000148891
0.00014895
0.000148935
0.000149063
0.00014891
0.000148896
0.000149142
0.000149089
0.000148893
0.000148825
0.000148904
0.000149098
0.000149133
0.000148902
0.00014887
0.000149002
0.000148992
0.00014898
0.000148975
0.000149219
0.000149155
0.00014914
0.000149244
0.000149182
0.000149602
0.000149605
0.000148938
0.000148975
0.000149407
0.000149522
0.000149961
0.000149921
0.000149737
0.000151091
0.0310547
0.000181685
0.000148811
0.000148865
0.000148862
0.000148975
0.000149044
0.000149211
0.000149206
0.000148859
0.00014886
0.000149056
0.000149054
0.000149194
0.000149167
0.000148904
0.000148841
0.000148905
0.000148914
0.000149017
0.000148956
0.000148905
0.000148973
0.000149121
0.000148916
0.000148838
0.000149015
0.000148948
0.000148944
0.000149071
0.000149004
0.000149008
0.000149081
0.000149098
0.000149178
0.000148992
0.00014898
0.000149063
0.000149072
0.000149204
0.000149206
0.00014918
0.000149462
0.000149737
0.000149581
0.000149761
0.000149637
0.000149537
0.000149825
0.000149697
0.000149696
0.000150099
0.000150038
0.000150836
0.0310551
0.000181641
0.0001488
0.000148854
0.000148852
0.000148966
0.000149034
0.000149131
0.000149116
0.000148976
0.000148982
0.00014911
0.00014911
0.000149181
0.000148977
0.000148904
0.000149017
0.000149016
0.000149093
0.000148964
0.000148806
0.00014886
0.000148933
0.000149077
0.0001489
0.000148761
0.000148822
0.000148809
0.000148871
0.000149023
0.000148947
0.000148956
0.000149071
0.000149104
0.000149185
0.000148989
0.000148977
0.00014907
0.000149014
0.000149146
0.000149133
0.000149179
0.000149554
0.000149638
0.000149424
0.000149844
0.000149601
0.000149392
0.000149272
0.000149599
0.000150105
0.000149818
0.000149725
0.000150966
0.0310546
0.000181685
0.00014881
0.000148864
0.000148862
0.00014896
0.00014903
0.000149209
0.000149206
0.00014886
0.00014886
0.000149124
0.000148921
0.00014892
0.000149183
0.000148968
0.000148896
0.000149063
0.000149054
0.000149159
0.000148907
0.000148834
0.00014909
0.000149022
0.000149021
0.000148936
0.000148934
0.000149145
0.000148898
0.000148897
0.000149204
0.000149071
0.000149077
0.000149045
0.000149033
0.000149298
0.000149013
0.000148997
0.000149021
0.000149118
0.000149244
0.000149126
0.000149493
0.000149271
0.000149259
0.000149437
0.000149307
0.000149722
0.000149469
0.000149327
0.000149748
0.00014965
0.000149945
0.00015061
0.031055
0.00018164
0.0001488
0.000148854
0.000148851
0.000148967
0.000149035
0.00014913
0.000149117
0.000148977
0.000148983
0.00014911
0.000148909
0.000148908
0.000149171
0.000149061
0.000148797
0.000148834
0.000148899
0.000149028
0.000148896
0.000148825
0.000149079
0.000149011
0.000149008
0.000149144
0.000148958
0.00014893
0.000149108
0.000149057
0.00014912
0.000149012
0.000148967
0.000149008
0.000149038
0.000149294
0.000149007
0.000149016
0.00014907
0.00014911
0.000149162
0.000149108
0.00014956
0.000149247
0.000149144
0.000149446
0.000149401
0.000149762
0.000149892
0.000149956
0.000149924
0.000150421
0.000150362
0.000150728
0.031054
0.000181683
0.00014881
0.000148935
0.000148934
0.000148942
0.00014894
0.000149068
0.000149137
0.000148932
0.000148788
0.000148852
0.000148853
0.000148986
0.000148921
0.000148803
0.000148864
0.000148908
0.000148968
0.000149095
0.000148905
0.000148834
0.000149087
0.000148961
0.000148959
0.000149012
0.000149075
0.000148898
0.000148894
0.000149136
0.00014894
0.000148935
0.000148986
0.000149086
0.000148931
0.00014886
0.000149017
0.000149019
0.000149063
0.000149304
0.000149426
0.000149255
0.000149675
0.000149486
0.000149561
0.000149537
0.0001495
0.000149513
0.000149215
0.0001491
0.000149443
0.00015
0.000149821
0.000150173
0.0310544
0.000181639
0.0001488
0.000148925
0.000148924
0.000148935
0.000148932
0.000149059
0.000148923
0.000148784
0.000148845
0.000148904
0.000148969
0.00014904
0.000148909
0.000148775
0.000148835
0.000148837
0.000148898
0.000149085
0.000148897
0.000148824
0.000148955
0.000148952
0.00014902
0.000149015
0.000149122
0.000148886
0.000148822
0.000149063
0.000149015
0.000148939
0.000148988
0.000149126
0.000148914
0.000148856