/*--------------------------------*- C++ -*----------------------------------*\
| =========                 |                                                 |
| \\      /  F ield         | OpenFOAM: The Open Source CFD Toolbox           |
|  \\    /   O peration     | Version:  4.1                                   |
|   \\  /    A nd           | Web:      www.OpenFOAM.org                      |
|    \\/     M anipulation  |                                                 |
\*---------------------------------------------------------------------------*/
FoamFile
{
    version     2.0;
    format      ascii;
    class       volScalarField;
    location    "5";
    object      k;
}
// * * * * * * * * * * * * * * * * * * * * * * * * * * * * * * * * * * * * * //

dimensions      [0 2 -2 0 0 0 0];

internalField   nonuniform List<scalar> 
4432
(
0.387171
0.414771
0.450943
0.484499
0.512699
0.548565
0.569358
0.594851
0.618501
0.632315
0.665441
0.668505
0.738719
0.758015
0.780646
0.796359
0.813413
0.826269
0.835362
0.768948
0.857776
0.785018
0.881639
0.836379
0.820828
0.855866
0.840111
1.04318
1.15336
1.19626
1.13816
1.09435
1.05955
1.0297
0.945757
0.98178
0.88493
0.814942
0.760178
0.723598
0.671564
0.602167
0.545988
0.369252
0.196424
0.167384
0.199751
0.413627
0.469117
0.495664
0.83525
1.0553
1.16653
1.954
0.38701
0.41439
0.449284
0.481684
0.514146
0.529166
0.577986
0.591518
0.601531
0.647702
0.67997
0.697897
0.716715
0.732709
0.751114
0.763707
0.713357
0.784627
0.796502
0.746446
0.819678
0.760181
0.838251
0.801448
0.789632
0.811246
0.811449
0.945307
1.02415
1.03561
0.995239
0.962775
0.93468
0.908856
0.841439
0.85857
0.823585
0.786202
0.761237
0.688244
0.636478
0.586805
0.529968
0.402905
0.209861
0.159386
0.380997
0.426482
0.443232
0.474915
0.797515
1.00376
1.16745
1.99681
0.0030311
8.51511e-05
2.68652e-05
3.03669e-05
3.50631e-05
3.79579e-05
4.41897e-05
4.98646e-05
5.36921e-05
5.94491e-05
6.1883e-05
7.80484e-05
8.78034e-05
9.0211e-05
0.000114254
0.000119372
0.000134175
0.000158832
0.000184477
0.000273102
0.000384134
0.000534342
0.000817204
0.00117306
0.0019812
0.00336797
0.0050119
0.0096596
0.0146828
0.019163
0.0304179
0.0537272
0.108217
0.203705
0.228806
0.205932
0.0538683
0.0266454
0.0108752
0.00421398
0.00595308
0.00400142
0.00421117
0.00519192
0.00122831
0.00348709
0.00708017
0.0141503
0.0291065
0.0546761
0.107834
0.157737
0.258553
0.393285
0.00303105
8.37157e-05
2.55391e-05
2.91032e-05
3.24813e-05
3.66698e-05
3.94706e-05
4.55686e-05
5.06076e-05
5.3118e-05
6.67542e-05
6.68971e-05
7.74334e-05
7.83526e-05
9.9303e-05
0.000104745
0.000116523
0.000145935
0.000174628
0.000252136
0.000364736
0.000502095
0.000766601
0.00109608
0.00184047
0.00307145
0.0045927
0.00870579
0.0131391
0.0172497
0.0279766
0.0508859
0.104339
0.196261
0.205361
0.176123
0.0536041
0.0295647
0.00635161
0.00555477
0.00515329
0.00398164
0.00426915
0.00539587
0.00112021
0.00318425
0.00724717
0.0153756
0.032945
0.0634636
0.107229
0.140044
0.232184
0.409513
0.00302462
5.32175e-05
4.24646e-06
3.79466e-06
3.82622e-06
3.81402e-06
3.88283e-06
3.88402e-06
3.87689e-06
3.91358e-06
3.98124e-06
3.98618e-06
3.90405e-06
3.95608e-06
3.95812e-06
3.93179e-06
3.93048e-06
3.96714e-06
4.03624e-06
3.97203e-06
3.95957e-06
4.0602e-06
4.22003e-06
4.41775e-06
4.96796e-06
6.35907e-06
8.19626e-06
1.46303e-05
2.51935e-05
4.00443e-05
7.67494e-05
0.000156071
0.000363153
0.00103297
0.00209441
0.00335356
0.000442187
0.00015704
6.11285e-05
2.15085e-05
8.49938e-06
9.4157e-06
2.88676e-06
4.41729e-06
5.37734e-06
8.09543e-06
4.72645e-05
0.000330265
0.000933383
0.00167426
0.00179694
0.00383712
0.00893863
0.0248003
0.00302464
5.31666e-05
4.23927e-06
3.82229e-06
3.87561e-06
3.87284e-06
3.91985e-06
3.87821e-06
3.87005e-06
3.90646e-06
3.97381e-06
3.97969e-06
3.89784e-06
3.91867e-06
3.90637e-06
3.9105e-06
3.92127e-06
3.95793e-06
4.02779e-06
3.96115e-06
3.94609e-06
4.0413e-06
4.19185e-06
4.37393e-06
4.8845e-06
6.14777e-06
7.84541e-06
1.36171e-05
2.31075e-05
3.67689e-05
7.14906e-05
0.00015046
0.000360384
0.00104976
0.00200025
0.00288015
0.000440017
0.000184346
3.16688e-05
2.51728e-05
6.90867e-06
8.87013e-06
2.49847e-06
4.58125e-06
6.07614e-06
1.22814e-05
8.82912e-05
0.000506125
0.00115654
0.00200697
0.0021778
0.00382146
0.00873844
0.024733
0.00302466
5.32161e-05
4.24577e-06
3.82797e-06
3.86069e-06
3.84005e-06
3.87058e-06
3.906e-06
3.94176e-06
3.92966e-06
3.96168e-06
3.90973e-06
3.83003e-06
3.85599e-06
3.85204e-06
3.88646e-06
3.89451e-06
3.92126e-06
3.95432e-06
3.96566e-06
4.03506e-06
3.94785e-06
3.85863e-06
3.91417e-06
3.90762e-06
3.92681e-06
4.01869e-06
3.98152e-06
3.98109e-06
4.28787e-06
4.22775e-06
5.41538e-06
8.58975e-06
1.31999e-05
3.00585e-05
5.85098e-05
9.64468e-06
5.72598e-06
4.61512e-06
4.26533e-06
4.49699e-06
4.46286e-06
4.3502e-06
4.35034e-06
4.30247e-06
4.03629e-06
4.0349e-06
4.45371e-06
6.18924e-06
8.99213e-06
1.42923e-05
1.28758e-05
0.000111443
0.00128255
0.00302468
5.31653e-05
4.23927e-06
3.82216e-06
3.85442e-06
3.84365e-06
3.90995e-06
3.90885e-06
3.90543e-06
3.92715e-06
3.95939e-06
3.89671e-06
3.85004e-06
3.94181e-06
3.92494e-06
3.91714e-06
3.93125e-06
3.93212e-06
4.00333e-06
3.93129e-06
3.91516e-06
4.04396e-06
3.89342e-06
3.87946e-06
3.96786e-06
3.95603e-06
4.03824e-06
3.96266e-06
3.95875e-06
4.21197e-06
4.47046e-06
4.62417e-06
6.25893e-06
1.34046e-05
2.90901e-05
5.19086e-05
9.68441e-06
5.98557e-06
4.32889e-06
4.27287e-06
4.39278e-06
4.34931e-06
4.47896e-06
4.49378e-06
4.28615e-06
3.90697e-06
4.02809e-06
4.54475e-06
6.59536e-06
7.54298e-06
1.00794e-05
1.7492e-05
0.000110639
0.00130931
0.00302467
5.32173e-05
4.24589e-06
3.82809e-06
3.85064e-06
3.84913e-06
3.89206e-06
3.92445e-06
3.9161e-06
3.94893e-06
3.90345e-06
3.85718e-06
3.94716e-06
3.9456e-06
3.94546e-06
4.01362e-06
3.95819e-06
3.87505e-06
3.91823e-06
3.91815e-06
3.98114e-06
3.9056e-06
3.85999e-06
3.91998e-06
3.89342e-06
3.89484e-06
3.92843e-06
4.00842e-06
3.96143e-06
3.92998e-06
3.94986e-06
4.0222e-06
4.10306e-06
4.15859e-06
4.28678e-06
4.7766e-06
4.07626e-06
4.01938e-06
4.17299e-06
4.01976e-06
4.06695e-06
4.10139e-06
4.34626e-06
4.52686e-06
4.24363e-06
4.56474e-06
4.17817e-06
4.10379e-06
4.59102e-06
5.03619e-06
4.90484e-06
4.98818e-06
1.38089e-05
5.08486e-05
0.00302469
5.31637e-05
4.27578e-06
3.85731e-06
3.88832e-06
3.92286e-06
3.87736e-06
3.86874e-06
3.88926e-06
3.92204e-06
3.89636e-06
3.85055e-06
3.94296e-06
3.94166e-06
3.94157e-06
4.00946e-06
3.94086e-06
3.85742e-06
3.91003e-06
3.90903e-06
3.97093e-06
3.89489e-06
3.84832e-06
3.90656e-06
3.90418e-06
3.91047e-06
3.92855e-06
3.99906e-06
3.94264e-06
3.90799e-06
3.94494e-06
3.98375e-06
4.02568e-06
4.0383e-06
4.24745e-06
4.66099e-06
4.0436e-06
3.98661e-06
4.13253e-06
4.00291e-06
4.04096e-06
4.13866e-06
4.43202e-06
4.51405e-06
4.34433e-06
4.2398e-06
4.04761e-06
4.31336e-06
4.62483e-06
5.21431e-06
4.67738e-06
5.35187e-06
1.35217e-05
4.701e-05
0.00302467
5.32097e-05
4.35102e-06
3.9677e-06
3.94054e-06
3.927e-06
3.94368e-06
3.9316e-06
3.93244e-06
4.00069e-06
3.90558e-06
3.85719e-06
3.9246e-06
3.92294e-06
4.02392e-06
3.94003e-06
3.8893e-06
3.98705e-06
3.98719e-06
4.01835e-06
3.93476e-06
3.92774e-06
3.96537e-06
4.00183e-06
3.94665e-06
3.89583e-06
3.98498e-06
3.97789e-06
4.01274e-06
3.95666e-06
3.94592e-06
4.00222e-06
4.08064e-06
4.0086e-06
3.94848e-06
4.03168e-06
4.00832e-06
3.97837e-06
4.11162e-06
4.03821e-06
4.09435e-06
4.08877e-06
4.17725e-06
4.19481e-06
4.06853e-06
4.22231e-06
3.97973e-06
4.21043e-06
4.12258e-06
4.23234e-06
4.70079e-06
4.74187e-06
8.8776e-06
4.28012e-05
0.00302469
5.31584e-05
4.34418e-06
3.95825e-06
3.93212e-06
3.91541e-06
3.93199e-06
3.99658e-06
3.93223e-06
3.88868e-06
3.85899e-06
3.85018e-06
3.91753e-06
3.91584e-06
4.01714e-06
3.93266e-06
3.882e-06
3.97881e-06
3.97873e-06
4.00941e-06
3.92523e-06
3.9187e-06
3.95708e-06
3.99383e-06
3.9344e-06
3.8779e-06
3.95397e-06
3.94751e-06
3.99518e-06
3.95378e-06
3.93105e-06
3.97641e-06
4.03698e-06
4.01458e-06
3.92563e-06
4.00451e-06
3.98049e-06
3.95856e-06
4.09437e-06
4.021e-06
4.07353e-06
4.19389e-06
4.16672e-06
4.2207e-06
4.39561e-06
4.26484e-06
4.0334e-06
4.12047e-06
4.06909e-06
4.06479e-06
4.17055e-06
4.73573e-06
9.16618e-06
4.32935e-05
0.00302467
5.32118e-05
4.35119e-06
3.97191e-06
3.94506e-06
3.9358e-06
3.99102e-06
3.90679e-06
3.85873e-06
3.95669e-06
3.95451e-06
3.95031e-06
3.93465e-06
3.92656e-06
3.98276e-06
3.99484e-06
3.96034e-06
3.96381e-06
3.96603e-06
3.99122e-06
4.02493e-06
4.03191e-06
4.05724e-06
4.09577e-06
3.95351e-06
3.84258e-06
3.87753e-06
3.86974e-06
3.91363e-06
3.96516e-06
3.94466e-06
3.9519e-06
4.03148e-06
3.97663e-06
4.06257e-06
4.06501e-06
3.99901e-06
4.01198e-06
4.12094e-06
4.16366e-06
4.2795e-06
4.1784e-06
4.07294e-06
4.02782e-06
4.15297e-06
4.02791e-06
3.9871e-06
4.18223e-06
4.05039e-06
4.01708e-06
4.51412e-06
4.82442e-06
6.50234e-06
1.65244e-05
0.00302469
5.31604e-05
4.34434e-06
3.96156e-06
3.93451e-06
3.9207e-06
3.97475e-06
3.90007e-06
3.85237e-06
3.93977e-06
3.92686e-06
3.9106e-06
3.92124e-06
3.91998e-06
3.95455e-06
3.98762e-06
3.95308e-06
3.95556e-06
3.95735e-06
3.98791e-06
3.8933e-06
3.88196e-06
3.92382e-06
3.95884e-06
3.96893e-06
3.89164e-06
3.91222e-06
3.9035e-06
3.97612e-06
3.92169e-06
3.89796e-06
3.9497e-06
3.97197e-06
3.99035e-06
4.01558e-06
4.03184e-06
3.96427e-06
3.99447e-06
4.10031e-06
4.13959e-06
4.25039e-06
4.20728e-06
3.99498e-06
3.94719e-06
4.38276e-06
4.18641e-06
3.88286e-06
3.98611e-06
4.06309e-06
3.99962e-06
4.51838e-06
5.04452e-06
6.52711e-06
1.72332e-05
0.00302468
5.32225e-05
4.24621e-06
3.82826e-06
3.84631e-06
3.84326e-06
3.88417e-06
3.91259e-06
3.93591e-06
3.97102e-06
3.9026e-06
3.88957e-06
3.99477e-06
3.93207e-06
3.92768e-06
3.96859e-06
3.93057e-06
3.91373e-06
3.94713e-06
4.01197e-06
3.93899e-06
3.92653e-06
4.02591e-06
4.02694e-06
4.03872e-06
4.0199e-06
4.0368e-06
4.05195e-06
4.06937e-06
4.06814e-06
4.08159e-06
4.08821e-06
4.1015e-06
4.01374e-06
3.96031e-06
3.97776e-06
3.99358e-06
4.03454e-06
4.02298e-06
4.07948e-06
4.13629e-06
4.26269e-06
4.20801e-06
4.01564e-06
4.29076e-06
4.083e-06
3.94952e-06
3.9219e-06
4.00085e-06
4.07999e-06
4.43268e-06
4.62372e-06
5.70074e-06
1.42981e-05
0.0030247
5.31704e-05
4.23953e-06
3.82236e-06
3.85005e-06
3.88347e-06
3.8769e-06
3.86907e-06
3.88905e-06
3.92182e-06
3.89536e-06
3.88308e-06
3.9878e-06
3.98799e-06
3.9687e-06
3.9669e-06
3.94907e-06
3.94135e-06
3.96906e-06
4.0003e-06
3.92892e-06
3.91694e-06
3.99029e-06
3.99321e-06
4.05013e-06
4.04508e-06
4.0549e-06
3.97451e-06
3.97397e-06
4.05416e-06
3.9457e-06
3.93403e-06
4.07734e-06
3.98711e-06
3.93985e-06
3.95866e-06
3.97652e-06
4.02564e-06
4.00991e-06
4.06679e-06
4.12216e-06
4.24551e-06
4.25159e-06
4.05098e-06
4.48528e-06
4.04291e-06
3.86159e-06
4.02797e-06
4.17966e-06
4.18913e-06
4.56949e-06
4.8607e-06
5.70698e-06
1.44781e-05
0.00302468
5.3224e-05
4.24613e-06
3.82825e-06
3.85116e-06
3.84801e-06
3.88548e-06
3.91469e-06
3.93998e-06
3.9747e-06
3.90374e-06
3.85708e-06
3.92368e-06
3.92444e-06
3.92745e-06
3.92312e-06
3.98841e-06
3.93484e-06
3.89244e-06
3.92953e-06
3.99702e-06
3.93992e-06
3.92685e-06
4.03025e-06
4.01083e-06
4.01568e-06
4.01002e-06
4.07459e-06
3.9613e-06
3.96246e-06
4.07717e-06
3.99715e-06
3.94721e-06
3.98577e-06
3.93772e-06
3.93554e-06
4.03477e-06
4.01721e-06
3.96232e-06
4.0881e-06
4.10383e-06
4.22652e-06
4.19328e-06
4.10475e-06
4.40551e-06
4.20371e-06
4.10117e-06
4.04427e-06
4.07044e-06
4.10741e-06
4.27334e-06
4.40692e-06
4.64403e-06
1.04917e-05
0.0030247
5.3172e-05
4.23962e-06
3.82247e-06
3.84269e-06
3.8751e-06
3.90954e-06
3.90515e-06
3.89276e-06
3.92473e-06
3.89631e-06
3.85071e-06
3.91693e-06
3.91745e-06
3.92023e-06
3.91575e-06
3.98052e-06
3.92598e-06
3.91712e-06
4.04601e-06
3.92963e-06
3.91656e-06
4.08002e-06
3.94065e-06
3.92892e-06
4.04413e-06
3.91405e-06
3.86698e-06
3.90783e-06
3.91275e-06
3.98245e-06
3.94222e-06
3.9435e-06
4.05344e-06
3.9215e-06
3.91407e-06
4.00159e-06
3.99608e-06
3.94537e-06
4.06833e-06
4.08201e-06
4.13813e-06
4.0841e-06
4.08696e-06
4.30282e-06
4.05066e-06
3.91597e-06
4.10623e-06
4.12419e-06
4.1765e-06
4.46054e-06
4.65968e-06
4.83738e-06
1.14866e-05
0.00302469
5.32265e-05
4.24634e-06
3.82851e-06
3.86034e-06
3.86009e-06
3.85982e-06
3.82589e-06
3.81652e-06
3.8143e-06
3.82308e-06
3.85198e-06
3.88598e-06
3.894e-06
3.92454e-06
3.96097e-06
3.96114e-06
4.02663e-06
3.93724e-06
3.92188e-06
4.05404e-06
4.05602e-06
4.00625e-06
4.00165e-06
4.03929e-06
4.03383e-06
4.06232e-06
3.97839e-06
3.92957e-06
3.97379e-06
4.05309e-06
3.95907e-06
3.91424e-06
3.95697e-06
3.99643e-06
4.01471e-06
3.94792e-06
4.14988e-06
4.05825e-06
4.04673e-06
4.10772e-06
4.1612e-06
4.13234e-06
4.12194e-06
4.35287e-06
4.25834e-06
4.10149e-06
4.09529e-06
4.24841e-06
4.23624e-06
4.3892e-06
4.27333e-06
4.18862e-06
6.4128e-06
0.00302471
5.31739e-05
4.24037e-06
3.78923e-06
3.82046e-06
3.8508e-06
3.83728e-06
3.83322e-06
3.84776e-06
3.84478e-06
3.88416e-06
3.91358e-06
3.94432e-06
3.93474e-06
3.92585e-06
3.93915e-06
3.95402e-06
4.01892e-06
3.93029e-06
3.91516e-06
4.01866e-06
4.01945e-06
3.99493e-06
3.98327e-06
4.02005e-06
4.02579e-06
4.05304e-06
4.05567e-06
4.06174e-06
4.06132e-06
4.08404e-06
3.94897e-06
3.90113e-06
3.97199e-06
3.98244e-06
3.9893e-06
3.92274e-06
4.136e-06
4.04825e-06
4.03523e-06
4.09469e-06
4.09738e-06
4.10359e-06
4.11297e-06
4.14765e-06
4.05723e-06
4.01933e-06
4.2479e-06
4.19381e-06
4.30661e-06
4.30735e-06
4.44014e-06
4.35274e-06
7.34233e-06
0.00302468
5.32277e-05
4.24723e-06
3.79476e-06
3.8262e-06
3.85686e-06
3.82823e-06
3.80662e-06
3.84067e-06
3.82317e-06
3.85282e-06
3.89826e-06
4.00449e-06
3.97455e-06
3.89217e-06
3.89385e-06
3.89195e-06
3.96065e-06
3.96072e-06
4.02544e-06
3.93737e-06
3.9226e-06
4.02772e-06
4.01209e-06
4.02606e-06
4.04506e-06
4.06572e-06
3.94069e-06
3.93737e-06
3.99318e-06
3.99266e-06
3.99589e-06
3.99382e-06
4.03139e-06
4.0458e-06
4.00282e-06
3.94596e-06
4.05145e-06
4.02465e-06
4.08045e-06
4.19266e-06
4.10087e-06
4.10676e-06
4.1476e-06
4.12883e-06
4.38637e-06
4.23213e-06
4.04853e-06
4.237e-06
4.25644e-06
4.50315e-06
4.44333e-06
4.10895e-06
4.7506e-06
0.0030247
5.31756e-05
4.24024e-06
3.78899e-06
3.82021e-06
3.85054e-06
3.84808e-06
3.84405e-06
3.87029e-06
3.86414e-06
3.87556e-06
3.90821e-06
4.0115e-06
3.97333e-06
3.89114e-06
3.94665e-06
3.947e-06
3.92004e-06
3.91748e-06
4.0138e-06
3.92997e-06
3.91527e-06
4.01662e-06
4.01407e-06
4.06216e-06
4.03534e-06
4.03369e-06
3.94627e-06
3.93933e-06
4.05983e-06
3.94445e-06
3.91619e-06
3.98532e-06
4.00653e-06
4.0602e-06
3.98578e-06
3.9316e-06
4.05133e-06
4.01115e-06
4.06524e-06
4.17346e-06
4.09344e-06
4.10568e-06
4.09844e-06
4.05812e-06
4.24896e-06
4.16566e-06
4.21143e-06
4.16818e-06
4.23585e-06
4.15734e-06
4.26157e-06
4.36986e-06
4.90121e-06
0.00302469
5.32291e-05
4.24733e-06
3.76199e-06
3.79025e-06
3.82381e-06
3.82167e-06
3.84226e-06
3.84217e-06
3.82312e-06
3.85267e-06
3.89787e-06
4.00464e-06
3.94014e-06
3.92479e-06
4.06376e-06
3.90572e-06
3.88757e-06
3.92689e-06
3.95634e-06
3.93326e-06
3.8863e-06
3.9863e-06
3.98513e-06
4.0744e-06
3.97153e-06
3.95023e-06
4.10455e-06
4.10609e-06
3.95797e-06
3.91403e-06
4.02831e-06
4.03297e-06
3.97399e-06
4.00088e-06
4.11048e-06
4.00975e-06
3.92107e-06
3.96077e-06
4.02356e-06
4.13529e-06
4.09538e-06
4.16962e-06
4.27737e-06
4.14741e-06
4.25535e-06
4.40641e-06
4.16615e-06
4.13021e-06
4.19387e-06
4.19755e-06
4.33814e-06
4.40067e-06
4.74946e-06
0.00302471
5.31765e-05
4.24023e-06
3.78902e-06
3.82024e-06
3.85071e-06
3.84702e-06
3.84293e-06
3.86759e-06
3.86051e-06
3.90771e-06
3.93352e-06
3.93377e-06
4.02481e-06
3.94246e-06
3.85816e-06
3.88438e-06
3.88255e-06
3.91683e-06
3.91369e-06
3.94809e-06
3.952e-06
3.97906e-06
4.06919e-06
3.95306e-06
3.93956e-06
4.06595e-06
4.06168e-06
4.09704e-06
3.95378e-06
3.87117e-06
3.94628e-06
3.96331e-06
3.95124e-06
3.97032e-06
4.10693e-06
3.99224e-06
3.9089e-06
3.94279e-06
4.00372e-06
4.16902e-06
4.09157e-06
4.13995e-06
4.31048e-06
4.13447e-06
4.29763e-06
4.27282e-06
4.1715e-06
4.30019e-06
4.30222e-06
4.22173e-06
4.26695e-06
4.30746e-06
4.66476e-06
0.00302468
5.31869e-05
4.38905e-06
4.0175e-06
4.00734e-06
4.00628e-06
4.04161e-06
3.95703e-06
3.80156e-06
3.82455e-06
3.82277e-06
3.85146e-06
3.88511e-06
3.8903e-06
3.91803e-06
3.95061e-06
3.95902e-06
3.96766e-06
4.01029e-06
3.92109e-06
3.89051e-06
3.93084e-06
3.97839e-06
3.97018e-06
3.95848e-06
4.12581e-06
3.96497e-06
3.94393e-06
4.10092e-06
3.95801e-06
3.86185e-06
3.93995e-06
3.94598e-06
3.9272e-06
3.93445e-06
3.95951e-06
4.01402e-06
4.02334e-06
4.02336e-06
4.0237e-06
4.11705e-06
4.12721e-06
4.03584e-06
4.14839e-06
4.18229e-06
4.2487e-06
4.39263e-06
4.42485e-06
4.36346e-06
4.17325e-06
4.21183e-06
4.37689e-06
4.23294e-06
4.63528e-06
0.0030247
5.31344e-05
4.38219e-06
4.01129e-06
4.00103e-06
3.99996e-06
4.03493e-06
3.94347e-06
3.82081e-06
3.85173e-06
3.84647e-06
3.90971e-06
3.93765e-06
3.93783e-06
4.02333e-06
3.93504e-06
3.88254e-06
3.9805e-06
3.97986e-06
4.01066e-06
3.92807e-06
3.89041e-06
3.90873e-06
3.91465e-06
4.03316e-06
3.95661e-06
3.90137e-06
3.93509e-06
3.95201e-06
3.96689e-06
3.89161e-06
3.93069e-06
3.9365e-06
3.92354e-06
3.92983e-06
3.94357e-06
3.96677e-06
4.1078e-06
4.03043e-06
3.95562e-06
4.27533e-06
4.11908e-06
4.01794e-06
4.14243e-06
4.17636e-06
4.38449e-06
4.42731e-06
4.5365e-06
4.42313e-06
4.17601e-06
4.20834e-06
4.13464e-06
4.22833e-06
4.61631e-06
0.00302465
5.35046e-05
4.32164e-06
3.89751e-06
3.96715e-06
3.96542e-06
4.0331e-06
3.94477e-06
3.92738e-06
4.1074e-06
3.94752e-06
3.89095e-06
3.99457e-06
3.99297e-06
3.99491e-06
3.99208e-06
3.99364e-06
3.99921e-06
3.96466e-06
3.96039e-06
4.05954e-06
3.9518e-06
3.90189e-06
4.28711e-06
4.24365e-06
4.10845e-06
4.15817e-06
3.99452e-06
3.91431e-06
3.93226e-06
3.95102e-06
4.00895e-06
4.02405e-06
4.09967e-06
3.96987e-06
3.84666e-06
3.93288e-06
3.95681e-06
3.96485e-06
3.94938e-06
4.03797e-06
4.03686e-06
4.00392e-06
4.12569e-06
4.24399e-06
4.3498e-06
4.40733e-06
4.37118e-06
4.16928e-06
4.27023e-06
4.06955e-06
4.16182e-06
4.31645e-06
4.79611e-06
0.0030247
5.31175e-05
4.34338e-06
3.95945e-06
3.91475e-06
3.91012e-06
4.01701e-06
3.93828e-06
3.92115e-06
4.06565e-06
3.90118e-06
3.88272e-06
3.92275e-06
3.95331e-06
3.93302e-06
3.8839e-06
3.9825e-06
3.98246e-06
4.01304e-06
3.92775e-06
3.91802e-06
4.01599e-06
3.98431e-06
4.26354e-06
4.40466e-06
4.09544e-06
4.15941e-06
3.98428e-06
3.91571e-06
3.99339e-06
3.97909e-06
3.98189e-06
3.98431e-06
4.06191e-06
3.96605e-06
3.87489e-06
3.91511e-06
3.91029e-06
3.93496e-06
3.95162e-06
4.08652e-06
4.03573e-06
4.00023e-06
4.12213e-06
4.23537e-06
4.22603e-06
4.23616e-06
4.41058e-06
4.18312e-06
4.17314e-06
4.09265e-06
4.09086e-06
4.29588e-06
4.72548e-06
0.00302468
5.3163e-05
4.38854e-06
4.01715e-06
4.00727e-06
4.00613e-06
4.04103e-06
3.94759e-06
3.89285e-06
3.99856e-06
3.99737e-06
3.99898e-06
3.99589e-06
3.99604e-06
4.03517e-06
3.94661e-06
3.82856e-06
3.85885e-06
3.85259e-06
3.87741e-06
3.87375e-06
3.89689e-06
3.96244e-06
5.11269e-06
0.00264234
5.12521e-06
4.77844e-06
3.88231e-06
3.93579e-06
3.90912e-06
3.91624e-06
3.9236e-06
4.00109e-06
3.94675e-06
3.85385e-06
3.87251e-06
3.85569e-06
3.91713e-06
4.07361e-06
4.00415e-06
3.99557e-06
4.20442e-06
4.23964e-06
4.24567e-06
4.30826e-06
4.37916e-06
4.40571e-06
4.37254e-06
4.42087e-06
4.49886e-06
4.43261e-06
4.40356e-06
4.3441e-06
5.04165e-06
0.00302661
5.36555e-05
4.35666e-06
3.93283e-06
3.99949e-06
3.93919e-06
3.92298e-06
4.07073e-06
3.93512e-06
3.92216e-06
4.02797e-06
3.89771e-06
3.88287e-06
3.98657e-06
3.98763e-06
3.98828e-06
3.98791e-06
3.95247e-06
3.94365e-06
4.01372e-06
3.95576e-06
3.93551e-06
4.30008e-06
4.55059e-06
0.00143449
4.46465e-06
4.32273e-06
3.91894e-06
3.88528e-06
3.90074e-06
3.89997e-06
3.94973e-06
3.93936e-06
3.95885e-06
4.0597e-06
3.94537e-06
3.90089e-06
4.00285e-06
3.94248e-06
4.01162e-06
4.08092e-06
4.10379e-06
4.03828e-06
4.24662e-06
4.22802e-06
4.12265e-06
4.18138e-06
4.18699e-06
4.3341e-06
4.24868e-06
4.78196e-06
4.53359e-06
4.36175e-06
5.27026e-06
0.00302677
5.41792e-05
4.29986e-06
3.86379e-06
3.96621e-06
3.96701e-06
4.03713e-06
3.9444e-06
3.92681e-06
4.07216e-06
3.90754e-06
3.8891e-06
3.99433e-06
3.99305e-06
3.99488e-06
3.99029e-06
3.99139e-06
4.03228e-06
3.94198e-06
3.89099e-06
3.99325e-06
3.94472e-06
4.27075e-06
0.0016491
0.0150055
9.89802e-06
3.92574e-06
3.90012e-06
3.89615e-06
3.90437e-06
3.98761e-06
3.91111e-06
3.90731e-06
4.01881e-06
4.01957e-06
4.11751e-06
3.94989e-06
3.94175e-06
4.01802e-06
4.05281e-06
4.15653e-06
4.18807e-06
4.21616e-06
4.1394e-06
4.25367e-06
4.42702e-06
4.60351e-06
4.47986e-06
4.40895e-06
4.39185e-06
4.5908e-06
4.49184e-06
4.60151e-06
0.00302483
5.3875e-05
4.44492e-06
3.90687e-06
3.95083e-06
4.09781e-06
3.94776e-06
3.82097e-06
3.85259e-06
3.84776e-06
3.88242e-06
3.95332e-06
3.89537e-06
3.88244e-06
3.95386e-06
3.95098e-06
3.98336e-06
4.01746e-06
3.93143e-06
3.91517e-06
4.05001e-06
4.01087e-06
4.64015e-06
0.00603116
0.0127208
4.2573e-06
3.82798e-06
3.84905e-06
3.89596e-06
3.89747e-06
3.89549e-06
3.89017e-06
3.92758e-06
3.92551e-06
3.94926e-06
4.00738e-06
4.02378e-06
4.004e-06
4.04298e-06
4.11506e-06
4.1076e-06
4.22533e-06
4.13604e-06
3.90987e-06
4.0443e-06
4.04853e-06
4.14124e-06
4.17823e-06
4.4367e-06
4.5813e-06
4.42741e-06
4.56279e-06
4.95054e-06
0.00302463
5.36067e-05
4.3662e-06
3.93652e-06
4.00822e-06
3.90863e-06
3.89275e-06
4.00186e-06
4.00133e-06
3.99988e-06
4.03448e-06
3.94175e-06
3.92433e-06
4.03319e-06
4.01492e-06
4.05007e-06
4.06495e-06
4.09938e-06
4.09577e-06
3.93882e-06
3.92623e-06
4.05625e-06
3.95857e-06
4.21021e-06
1.27393e-05
4.02541e-06
3.9002e-06
3.91886e-06
3.94702e-06
3.95499e-06
3.92577e-06
3.92764e-06
3.96303e-06
4.00823e-06
4.05411e-06
4.05091e-06
4.03643e-06
4.10849e-06
3.98771e-06
3.98296e-06
4.12406e-06
4.06137e-06
4.07742e-06
4.21803e-06
4.23378e-06
4.25972e-06
4.52052e-06
4.25721e-06
3.94055e-06
4.1675e-06
4.08219e-06
4.09718e-06
4.24632e-06
4.78834e-06
0.00302465
5.3556e-05
4.35957e-06
3.93068e-06
4.00221e-06
3.90298e-06
3.88694e-06
3.99546e-06
3.99492e-06
3.99347e-06
4.02794e-06
3.93825e-06
3.85185e-06
3.91682e-06
3.91703e-06
3.91874e-06
3.91662e-06
4.01555e-06
3.93225e-06
3.88182e-06
3.97704e-06
3.95286e-06
3.95907e-06
4.42638e-06
8.48492e-06
3.99092e-06
3.99836e-06
3.98824e-06
4.03848e-06
3.95454e-06
3.94081e-06
4.05102e-06
3.89726e-06
3.89326e-06
3.96741e-06
3.97232e-06
4.03161e-06
4.02995e-06
4.06649e-06
4.06325e-06
4.02376e-06
3.94246e-06
4.05541e-06
4.31947e-06
4.13121e-06
4.01407e-06
4.20164e-06
4.16147e-06
4.26159e-06
4.39531e-06
4.49306e-06
4.42709e-06
4.27222e-06
4.78806e-06
0.00302466
5.31877e-05
4.38854e-06
4.01713e-06
4.00669e-06
4.00752e-06
4.00487e-06
4.06797e-06
3.93722e-06
3.92611e-06
4.07143e-06
3.97187e-06
3.89778e-06
3.94139e-06
4.04357e-06
3.94128e-06
3.9239e-06
4.09314e-06
3.9409e-06
3.88705e-06
3.98402e-06
3.95453e-06
3.94907e-06
3.9543e-06
3.95487e-06
4.0442e-06
4.01227e-06
3.89785e-06
3.91352e-06
3.94317e-06
3.97758e-06
3.94667e-06
3.88749e-06
3.91719e-06
3.90934e-06
3.94963e-06
3.9802e-06
4.02468e-06
3.98954e-06
3.92789e-06
4.0865e-06
4.10419e-06
4.1158e-06
4.2655e-06
4.3446e-06
4.2175e-06
4.20386e-06
4.05696e-06
4.02898e-06
4.39339e-06
4.57005e-06
4.47702e-06
4.31302e-06
4.85613e-06
0.00302468
5.31369e-05
4.38191e-06
4.01116e-06
4.00063e-06
4.00138e-06
3.99842e-06
4.06158e-06
3.93149e-06
3.92015e-06
4.06511e-06
3.96564e-06
3.89154e-06
3.92113e-06
3.95338e-06
3.98565e-06
3.98627e-06
4.02257e-06
3.9312e-06
3.91236e-06
4.04579e-06
4.04742e-06
4.10188e-06
3.95627e-06
3.94657e-06
4.07689e-06
4.06195e-06
4.08577e-06
3.92715e-06
3.90479e-06
4.03562e-06
3.94827e-06
3.88375e-06
3.92185e-06
3.9883e-06
3.93494e-06
3.936e-06
4.11775e-06
4.03445e-06
4.05109e-06
4.19436e-06
4.0939e-06
4.08843e-06
4.08364e-06
4.16807e-06
4.14813e-06
4.06126e-06
4.23455e-06
4.14417e-06
4.32734e-06
4.5073e-06
4.42104e-06
4.24812e-06
4.79773e-06
0.00302465
5.32201e-05
4.35065e-06
3.97646e-06
3.96875e-06
3.9702e-06
3.96963e-06
3.97138e-06
3.96579e-06
4.0016e-06
4.03836e-06
4.06521e-06
3.94341e-06
3.86453e-06
3.92341e-06
3.92174e-06
4.02277e-06
3.93877e-06
3.88654e-06
3.9234e-06
3.95381e-06
3.93067e-06
3.9226e-06
4.10211e-06
3.95604e-06
3.89648e-06
3.93178e-06
3.95364e-06
3.92153e-06
3.90836e-06
4.07165e-06
3.92463e-06
3.87599e-06
3.94682e-06
3.95144e-06
4.08294e-06
3.97142e-06
3.88786e-06
3.99685e-06
4.01268e-06
4.02173e-06
4.11355e-06
4.22225e-06
4.28145e-06
4.24814e-06
4.14815e-06
3.99755e-06
4.04776e-06
4.29348e-06
4.37649e-06
4.28993e-06
4.48282e-06
4.33333e-06
4.83683e-06
0.00302467
5.31715e-05
4.34434e-06
3.97085e-06
3.96298e-06
3.96437e-06
3.96376e-06
3.96558e-06
3.95977e-06
3.99546e-06
4.03207e-06
4.05865e-06
3.93673e-06
3.85813e-06
3.91657e-06
3.91476e-06
4.01497e-06
3.93102e-06
3.88023e-06
3.97548e-06
3.97434e-06
4.01006e-06
3.98411e-06
3.98045e-06
4.0208e-06
3.93237e-06
3.88659e-06
3.91897e-06
3.98388e-06
3.91624e-06
3.90563e-06
4.04003e-06
3.94951e-06
3.88982e-06
3.93743e-06
4.05689e-06
3.96294e-06
3.88606e-06
3.92779e-06
3.98888e-06
4.06959e-06
4.10416e-06
4.26535e-06
4.28919e-06
4.40309e-06
4.15718e-06
4.05868e-06
4.57174e-06
4.29157e-06
4.14459e-06
4.31647e-06
4.08877e-06
4.31755e-06
4.97442e-06
0.00302465
5.32195e-05
4.35015e-06
3.97603e-06
3.96834e-06
3.93428e-06
3.92984e-06
3.96623e-06
3.96471e-06
3.97021e-06
4.01542e-06
3.92065e-06
3.89014e-06
3.99353e-06
3.99453e-06
3.99522e-06
3.99384e-06
3.99155e-06
3.95858e-06
3.98606e-06
3.92349e-06
3.91721e-06
3.95356e-06
3.99364e-06
3.94101e-06
3.89149e-06
4.01362e-06
3.95835e-06
3.92079e-06
3.95258e-06
4.01407e-06
3.92302e-06
3.9129e-06
4.09053e-06
3.94347e-06
3.93743e-06
4.15031e-06
3.98465e-06
3.90663e-06
4.01256e-06
4.05204e-06
4.10285e-06
4.12905e-06
4.17478e-06
4.14692e-06
4.39318e-06
4.38448e-06
4.02551e-06
3.96461e-06
4.19386e-06
4.09391e-06
4.09676e-06
4.31348e-06
4.83601e-06
0.00302467
5.317e-05
4.34384e-06
3.97034e-06
3.96264e-06
3.92845e-06
3.92384e-06
3.95996e-06
3.95861e-06
3.96411e-06
4.01025e-06
3.91589e-06
3.88407e-06
3.9868e-06
3.98741e-06
3.95647e-06
3.95348e-06
3.98493e-06
3.95145e-06
3.98217e-06
3.88803e-06
3.87719e-06
3.91446e-06
3.95415e-06
3.93729e-06
3.88406e-06
3.96997e-06
3.95783e-06
3.95893e-06
3.95609e-06
4.02708e-06
3.92225e-06
3.90757e-06
4.09187e-06
3.93942e-06
3.92808e-06
4.14643e-06
3.98237e-06
3.90421e-06
4.00522e-06
4.01842e-06
4.0424e-06
4.11104e-06
4.15644e-06
4.12809e-06
4.2508e-06
4.31074e-06
4.06311e-06
4.14628e-06
4.28444e-06
4.53318e-06
4.73738e-06
4.75317e-06
5.01741e-06
0.00302463
5.32182e-05
4.34986e-06
3.97577e-06
3.96819e-06
3.93386e-06
3.92936e-06
3.96562e-06
3.96429e-06
3.96985e-06
4.01536e-06
3.9519e-06
3.95378e-06
4.06014e-06
3.96859e-06
3.92186e-06
3.94771e-06
3.9796e-06
4.01633e-06
4.0208e-06
4.05394e-06
3.93252e-06
3.91738e-06
4.0883e-06
3.94041e-06
3.88602e-06
3.92079e-06
3.94966e-06
3.92256e-06
3.90896e-06
4.00304e-06
4.00897e-06
3.92801e-06
3.92072e-06
4.11041e-06
3.99005e-06
4.01231e-06
4.13861e-06
3.99384e-06
3.9152e-06
3.98869e-06
4.02157e-06
4.14617e-06
4.14072e-06
4.03645e-06
3.97602e-06
4.08854e-06
4.45928e-06
4.34243e-06
4.15047e-06
4.29524e-06
4.17851e-06
4.34963e-06
4.78785e-06
0.00302465
5.31702e-05
4.34364e-06
3.97031e-06
3.96266e-06
3.92807e-06
3.92361e-06
3.95913e-06
3.95792e-06
3.96405e-06
4.01067e-06
3.94743e-06
3.94862e-06
4.05456e-06
3.96252e-06
3.89056e-06
3.91983e-06
3.91768e-06
3.94762e-06
3.97922e-06
4.01425e-06
3.92629e-06
3.91073e-06
4.08363e-06
3.93207e-06
3.87845e-06
3.91273e-06
3.94263e-06
3.91899e-06
3.90223e-06
4.03797e-06
4.03696e-06
3.94183e-06
3.95466e-06
4.1096e-06
3.9918e-06
4.01283e-06
4.13655e-06
3.99141e-06
3.89479e-06
3.95227e-06
3.95014e-06
4.09157e-06
4.18282e-06
4.18285e-06
4.13709e-06
4.40327e-06
4.33557e-06
4.01124e-06
4.16167e-06
4.07089e-06
4.42963e-06
4.73521e-06
5.02073e-06
0.00302463
5.32182e-05
4.34975e-06
3.97574e-06
3.96824e-06
3.93386e-06
3.9293e-06
3.96517e-06
3.96397e-06
3.96978e-06
4.01473e-06
3.92041e-06
3.88944e-06
3.99325e-06
3.99364e-06
4.0267e-06
3.93276e-06
3.89499e-06
3.86341e-06
3.88232e-06
3.9806e-06
3.98041e-06
4.01233e-06
3.92668e-06
3.9206e-06
4.01149e-06
3.92491e-06
3.91139e-06
3.94835e-06
3.97853e-06
3.92515e-06
3.84736e-06
3.91718e-06
3.92488e-06
3.93199e-06
3.92013e-06
4.0514e-06
3.96862e-06
3.8742e-06
3.93715e-06
3.95137e-06
4.01639e-06
4.10302e-06
4.09424e-06
4.23809e-06
4.22494e-06
4.20316e-06
4.34107e-06
4.27205e-06
4.14195e-06
4.29746e-06
4.42982e-06
4.53398e-06
4.76616e-06
0.00302465
5.31696e-05
4.34353e-06
3.97018e-06
3.96244e-06
3.92806e-06
3.92377e-06
3.95877e-06
3.95734e-06
3.9641e-06
4.01018e-06
3.91605e-06
3.8835e-06
3.9868e-06
3.98698e-06
4.01937e-06
3.92651e-06
3.88623e-06
3.85509e-06
3.87622e-06
3.94477e-06
3.94195e-06
4.00543e-06
3.91955e-06
3.91238e-06
3.9746e-06
3.97368e-06
3.97235e-06
4.01521e-06
3.9196e-06
3.90885e-06
4.03139e-06
3.94861e-06
3.89926e-06
3.9404e-06
3.94504e-06
4.03096e-06
3.96487e-06
3.88827e-06
3.90432e-06
3.99752e-06
4.06502e-06
4.15192e-06
4.11645e-06
4.12003e-06
4.06057e-06
4.12217e-06
4.3198e-06
4.23918e-06
4.12891e-06
4.30372e-06
4.25622e-06
4.36126e-06
4.80355e-06
0.00302461
5.32164e-05
4.34978e-06
3.97575e-06
3.96822e-06
3.93498e-06
3.93071e-06
3.96944e-06
3.965e-06
4.03594e-06
3.95199e-06
3.86511e-06
3.92379e-06
3.92385e-06
3.92555e-06
3.91988e-06
3.98662e-06
3.90023e-06
3.85145e-06
3.91531e-06
3.91484e-06
3.91779e-06
3.91876e-06
3.94831e-06
4.01477e-06
3.93207e-06
3.87932e-06
3.96994e-06
3.97e-06
3.9394e-06
3.9412e-06
3.97632e-06
3.9603e-06
3.98136e-06
4.0311e-06
3.98871e-06
3.91773e-06
3.99698e-06
4.04128e-06
3.93894e-06
3.9535e-06
4.02208e-06
4.0311e-06
4.03074e-06
4.24804e-06
4.24027e-06
4.27134e-06
4.33237e-06
4.31498e-06
4.30352e-06
4.43224e-06
4.33905e-06
4.07737e-06
4.43809e-06
0.00302463
5.31695e-05
4.34361e-06
3.97018e-06
3.96264e-06
3.92942e-06
3.92501e-06
3.96322e-06
3.95908e-06
4.03011e-06
3.94619e-06
3.85946e-06
3.91776e-06
3.91786e-06
3.92023e-06
3.95168e-06
3.92482e-06
3.88948e-06
3.85789e-06
3.87643e-06
3.97517e-06
3.9753e-06
3.97646e-06
3.97325e-06
4.03963e-06
3.92386e-06
3.87324e-06
3.96337e-06
3.96612e-06
3.9697e-06
3.973e-06
3.96978e-06
3.95905e-06
3.97995e-06
4.02936e-06
3.98968e-06
3.91521e-06
3.99306e-06
4.03633e-06
3.93304e-06
3.99515e-06
3.94451e-06
4.01275e-06
3.96305e-06
4.04254e-06
4.10738e-06
4.32033e-06
4.22934e-06
4.14146e-06
4.25346e-06
4.23891e-06
4.37204e-06
4.33792e-06
4.53848e-06
0.0030246
5.32162e-05
4.34981e-06
3.97578e-06
3.96829e-06
3.93469e-06
3.93035e-06
3.96947e-06
3.96806e-06
3.9681e-06