/*--------------------------------*- C++ -*----------------------------------*\
| =========                 |                                                 |
| \\      /  F ield         | OpenFOAM: The Open Source CFD Toolbox           |
|  \\    /   O peration     | Version:  4.1                                   |
|   \\  /    A nd           | Web:      www.OpenFOAM.org                      |
|    \\/     M anipulation  |                                                 |
\*---------------------------------------------------------------------------*/
FoamFile
{
    version     2.0;
    format      ascii;
    class       volScalarField;
    location    "5";
    object      nut;
}
// * * * * * * * * * * * * * * * * * * * * * * * * * * * * * * * * * * * * * //

dimensions      [0 2 -1 0 0 0 0];

internalField   nonuniform List<scalar> 
4432
(
35.389
35.5003
36.9182
38.8962
39.9153
44.4473
42.5283
43.9702
45.6042
45.5401
49.0821
45.2312
53.3103
57.5319
56.2057
63.4786
62.4534
68.1488
69.5031
54.8464
65.8909
56.1651
72.8087
60.5723
55.6832
58.0769
55.2552
82.7769
117.567
129.372
114.405
109.949
102.799
97.7254
68.8637
59.0034
47.9929
45.74
50.5897
43.2799
48.7981
39.5982
32.8562
16.8047
7.07552
5.04677
17.3436
24.8391
18.0174
23.5188
24.7892
44.8892
111.524
110.554
35.3131
35.4909
36.8699
38.4293
40.9061
40.4459
47.6222
44.4867
43.6458
50.052
49.8701
55.6713
55.2376
58.5926
57.0628
63.067
51.7604
60.5388
64.5736
52.8949
61.9402
54.3828
67.6931
57.8323
53.8328
54.7189
54.1868
71.6566
95.4218
102.497
93.4394
89.2216
83.5736
79.2755
58.5028
52.5746
45.8061
51.7948
47.3985
41.8729
44.9449
40.4275
34.08
22.0532
11.2998
33.3127
33.127
24.2102
17.0742
24.2063
21.6162
42.4119
126.903
114.487
2.6592e-05
3.47297e-06
4.36551e-07
5.57196e-07
7.42864e-07
8.70812e-07
1.18009e-06
1.5026e-06
1.74072e-06
2.13033e-06
2.31311e-06
3.68084e-06
4.64891e-06
4.91791e-06
7.89163e-06
8.6052e-06
1.08742e-05
1.52248e-05
2.05679e-05
4.50871e-05
8.91031e-05
0.000172371
0.000403161
0.00083059
0.00236595
0.00683047
0.0150994
0.0558807
0.128707
0.217853
0.542149
1.66057
6.48053
21.3613
21.5267
12.9982
1.02579
0.370207
0.057483
0.00713958
0.0168973
0.00427775
0.00519017
0.00362727
0.000778213
0.00456451
0.00719506
0.0109882
0.025614
0.0592661
0.164217
0.275354
1.10045
1.16475
2.65913e-05
3.36149e-06
3.94557e-07
5.1184e-07
6.37571e-07
8.1279e-07
9.41576e-07
1.25402e-06
1.54556e-06
1.70107e-06
2.69178e-06
2.70483e-06
3.61645e-06
3.71066e-06
5.9599e-06
6.62084e-06
8.19462e-06
1.28494e-05
1.84332e-05
3.84385e-05
8.03489e-05
0.000152238
0.000354891
0.000725458
0.00204378
0.00568662
0.0126924
0.0454565
0.103266
0.17708
0.460957
1.49961
6.08811
20.5897
19.1587
10.8703
1.09859
0.503486
0.0268004
0.0140265
0.00838743
0.00553458
0.00592659
0.00413615
0.000642301
0.00355544
0.00614655
0.0104583
0.0254752
0.0571385
0.125297
0.240743
0.979688
1.24492
2.65131e-05
1.4029e-06
1.09162e-08
8.71388e-09
8.85541e-09
8.8006e-09
9.12105e-09
9.12415e-09
9.09072e-09
9.25931e-09
9.56901e-09
9.60242e-09
9.21567e-09
9.4586e-09
9.46423e-09
9.34264e-09
9.3366e-09
9.49525e-09
9.84973e-09
9.53948e-09
9.46849e-09
9.95598e-09
1.0746e-08
1.17942e-08
1.49154e-08
2.44029e-08
4.05784e-08
1.29307e-07
3.83075e-07
9.68554e-07
3.5565e-06
1.46936e-05
7.95354e-05
0.000642919
0.00263836
0.00673795
0.000117443
1.48269e-05
2.24742e-06
2.78331e-07
4.35835e-08
5.3047e-08
4.99175e-09
1.17193e-08
1.73321e-08
3.93619e-08
1.34557e-06
6.55048e-05
0.000517867
0.00151905
0.00171408
0.0115199
0.0212504
0.0312758
2.65131e-05
1.4006e-06
1.088e-08
8.84189e-09
9.08611e-09
9.07403e-09
9.2958e-09
9.09607e-09
9.05786e-09
9.2249e-09
9.53261e-09
9.572e-09
9.18717e-09
9.28131e-09
9.21917e-09
9.24257e-09
9.29376e-09
9.45223e-09
9.80954e-09
9.48837e-09
9.40523e-09
9.86491e-09
1.06046e-08
1.1563e-08
1.44209e-08
2.28124e-08
3.7186e-08
1.12043e-07
3.22345e-07
8.16835e-07
3.08691e-06
1.36576e-05
7.8334e-05
0.000664542
0.00240957
0.00497597
0.000116431
2.04216e-05
6.0341e-07
3.81821e-07
2.87937e-08
4.74594e-08
3.7431e-09
1.26077e-08
2.21421e-08
9.06094e-08
4.69897e-06
0.000153822
0.000772384
0.00168072
0.00155945
0.00621337
0.0200444
0.0315867
2.65133e-05
1.40284e-06
1.09126e-08
8.8675e-09
9.01971e-09
8.91835e-09
9.05461e-09
9.21795e-09
9.38947e-09
9.33194e-09
9.48073e-09
9.23569e-09
8.86587e-09
8.98383e-09
8.96225e-09
9.12421e-09
9.15461e-09
9.29269e-09
9.45441e-09
9.50412e-09
9.83502e-09
9.41866e-09
8.99842e-09
9.24883e-09
9.22198e-09
9.3126e-09
9.75368e-09
9.57514e-09
9.57126e-09
1.10906e-08
1.07776e-08
1.77084e-08
4.4554e-08
1.05112e-07
5.45364e-07
2.0669e-06
5.60688e-08
1.97395e-08
1.28354e-08
1.09532e-08
1.21448e-08
1.19767e-08
1.13818e-08
1.13337e-08
1.11307e-08
9.81787e-09
9.80854e-09
1.19345e-08
2.28253e-08
4.73605e-08
1.18803e-07
9.70629e-08
6.86588e-06
0.000578883
2.65132e-05
1.40053e-06
1.088e-08
8.84129e-09
8.99112e-09
8.93475e-09
9.23769e-09
9.23466e-09
9.21858e-09
9.31301e-09
9.47065e-09
9.17821e-09
8.96041e-09
9.38898e-09
9.29577e-09
9.26985e-09
9.34131e-09
9.34203e-09
9.6793e-09
9.32225e-09
9.26454e-09
9.8887e-09
9.15604e-09
9.09123e-09
9.50906e-09
9.45652e-09
9.8495e-09
9.48653e-09
9.46805e-09
1.07099e-08
1.20602e-08
1.29021e-08
2.36575e-08
1.08504e-07
5.1089e-07
1.62703e-06
5.65978e-08
2.15875e-08
1.13009e-08
1.09973e-08
1.15976e-08
1.13695e-08
1.20395e-08
1.21402e-08
1.10377e-08
9.18513e-09
9.78861e-09
1.24467e-08
2.58327e-08
3.30775e-08
5.92767e-08
1.79309e-07
6.75357e-06
0.000600189
2.65131e-05
1.4029e-06
1.09132e-08
8.86807e-09
8.96871e-09
8.96328e-09
9.16443e-09
9.31192e-09
9.25971e-09
9.4195e-09
9.20432e-09
8.97563e-09
9.41566e-09
9.41394e-09
9.40538e-09
9.73589e-09
9.4685e-09
9.06763e-09
9.26744e-09
9.26701e-09
9.57844e-09
9.22378e-09
9.00617e-09
9.28806e-09
9.15995e-09
9.16428e-09
9.32241e-09
9.6999e-09
9.47024e-09
9.32593e-09
9.42539e-09
9.76526e-09
1.01532e-08
1.04282e-08
1.10778e-08
1.37506e-08
1.00122e-08
9.74036e-09
1.05e-08
9.7473e-09
9.96802e-09
1.01385e-08
1.13718e-08
1.23115e-08
1.08278e-08
1.25197e-08
1.05164e-08
1.01367e-08
1.26175e-08
1.51961e-08
1.44148e-08
1.49398e-08
1.12109e-07
1.01794e-06
2.65131e-05
1.40045e-06
1.10682e-08
9.00458e-09
9.14566e-09
9.30977e-09
9.09523e-09
9.0515e-09
9.14771e-09
9.29845e-09
9.16508e-09
8.95527e-09
9.39459e-09
9.37855e-09
9.38208e-09
9.70803e-09
9.37104e-09
8.99364e-09
9.24503e-09
9.22891e-09
9.52346e-09
9.15887e-09
8.94173e-09
9.2105e-09
9.21215e-09
9.24695e-09
9.32683e-09
9.66099e-09
9.39414e-09
9.23266e-09
9.40411e-09
9.58823e-09
9.78863e-09
9.84473e-09
1.0875e-08
1.31179e-08
9.87413e-09
9.5835e-09
1.03051e-08
9.66903e-09
9.84461e-09
1.03332e-08
1.18163e-08
1.22265e-08
1.13613e-08
1.08139e-08
9.87385e-09
1.11755e-08
1.27986e-08
1.62882e-08
1.30936e-08
1.7118e-08
1.07446e-07
8.8369e-07
2.6513e-05
1.40252e-06
1.14548e-08
9.51746e-09
9.38768e-09
9.31906e-09
9.38985e-09
9.32817e-09
9.32788e-09
9.6695e-09
9.2159e-09
8.97571e-09
9.30829e-09
9.30538e-09
9.78622e-09
9.38288e-09
9.13889e-09
9.60563e-09
9.60481e-09
9.75033e-09
9.35806e-09
9.32736e-09
9.50016e-09
9.67586e-09
9.40857e-09
9.16793e-09
9.58596e-09
9.55222e-09
9.71979e-09
9.4472e-09
9.41045e-09
9.67704e-09
1.00508e-08
9.6975e-09
9.40963e-09
9.80832e-09
9.70221e-09
9.55751e-09
1.0198e-08
9.84052e-09
1.01114e-08
1.00858e-08
1.05205e-08
1.05912e-08
9.97742e-09
1.07461e-08
9.5684e-09
1.06871e-08
1.02425e-08
1.08022e-08
1.32657e-08
1.35554e-08
4.69069e-08
7.68519e-07
2.6513e-05
1.40019e-06
1.14197e-08
9.4729e-09
9.34838e-09
9.26917e-09
9.34685e-09
9.65209e-09
9.33208e-09
9.13501e-09
8.99662e-09
8.94382e-09
9.26336e-09
9.25549e-09
9.75324e-09
9.35187e-09
9.10855e-09
9.56852e-09
9.56119e-09
9.70638e-09
9.31338e-09
9.28558e-09
9.46188e-09
9.63848e-09
9.35165e-09
9.08352e-09
9.43875e-09
9.40837e-09
9.63842e-09
9.43611e-09
9.34237e-09
9.55902e-09
9.83958e-09
9.73152e-09
9.29855e-09
9.68781e-09
9.56274e-09
9.46528e-09
1.01171e-08
9.75759e-09
1.00096e-08
1.06138e-08
1.0477e-08
1.07196e-08
1.16579e-08
1.09693e-08
9.8255e-09
1.02409e-08
9.98778e-09
9.97223e-09
1.04091e-08
1.33349e-08
4.98151e-08
7.90323e-07
2.65128e-05
1.40262e-06
1.14557e-08
9.53763e-09
9.40923e-09
9.36089e-09
9.61656e-09
9.22376e-09
8.99846e-09
9.44397e-09
9.45054e-09
9.43074e-09
9.33946e-09
9.31352e-09
9.5864e-09
9.64034e-09
9.46654e-09
9.49532e-09
9.51036e-09
9.61537e-09
9.77899e-09
9.81711e-09
9.94045e-09
1.01252e-08
9.43509e-09
8.90942e-09
9.08029e-09
9.04378e-09
9.23621e-09
9.48268e-09
9.3995e-09
9.43573e-09
9.80823e-09
9.54248e-09
9.96221e-09
9.96091e-09
9.65754e-09
9.71806e-09
1.02336e-08
1.04455e-08
1.1053e-08
1.05155e-08
9.99128e-09
9.7732e-09
1.03898e-08
9.77501e-09
9.58489e-09
1.05326e-08
9.89688e-09
9.75122e-09
1.22282e-08
1.39247e-08
2.51277e-08
1.32256e-07
2.65128e-05
1.40028e-06
1.14205e-08
9.48876e-09
9.35973e-09
9.29421e-09
9.55133e-09
9.18768e-09
8.96138e-09
9.36841e-09
9.31964e-09
9.2429e-09
9.27678e-09
9.28311e-09
9.45196e-09
9.60637e-09
9.43264e-09
9.45669e-09
9.46981e-09
9.60038e-09
9.16129e-09
9.1084e-09
9.30164e-09
9.46847e-09
9.51364e-09
9.14581e-09
9.24285e-09
9.2002e-09
9.54393e-09
9.28902e-09
9.17874e-09
9.41893e-09
9.52973e-09
9.61435e-09
9.73599e-09
9.80495e-09
9.49095e-09
9.63564e-09
1.01308e-08
1.0329e-08
1.09059e-08
1.06647e-08
9.62419e-09
9.38763e-09
1.15705e-08
1.05681e-08
9.09341e-09
9.56474e-09
9.95791e-09
9.65952e-09
1.22405e-08
1.51772e-08
2.53325e-08
1.43408e-07
2.65127e-05
1.40313e-06
1.09148e-08
8.86883e-09
8.95268e-09
8.93443e-09
9.12143e-09
9.25536e-09
9.35326e-09
9.52939e-09
9.20856e-09
9.13506e-09
9.63589e-09
9.32763e-09
9.32295e-09
9.51854e-09
9.31693e-09
9.23912e-09
9.41338e-09
9.73172e-09
9.36984e-09
9.3118e-09
9.79061e-09
9.79532e-09
9.85399e-09
9.76308e-09
9.84104e-09
9.90457e-09
9.9979e-09
9.99201e-09
1.00458e-08
1.00936e-08
1.01663e-08
9.7306e-09
9.46328e-09
9.55471e-09
9.62621e-09
9.82602e-09
9.7674e-09
1.00451e-08
1.0328e-08
1.09371e-08
1.06533e-08
9.70438e-09
1.10604e-08
1.00473e-08
9.40627e-09
9.25562e-09
9.65169e-09
1.00624e-08
1.18107e-08
1.27851e-08
1.94097e-08
1.0401e-07
2.65127e-05
1.40077e-06
1.08813e-08
8.84217e-09
8.97076e-09
9.12293e-09
9.08799e-09
9.05135e-09
9.13258e-09
9.29548e-09
9.17519e-09
9.10537e-09
9.6031e-09
9.59556e-09
9.51948e-09
9.5112e-09
9.40973e-09
9.37421e-09
9.52272e-09
9.67645e-09
9.32994e-09
9.27334e-09
9.61269e-09
9.62794e-09
9.90467e-09
9.87347e-09
9.9217e-09
9.5437e-09
9.54056e-09
9.92344e-09
9.39778e-09
9.34856e-09
1.00487e-08
9.60619e-09
9.37237e-09
9.46102e-09
9.55139e-09
9.78463e-09
9.7055e-09
9.98449e-09
1.02597e-08
1.08432e-08
1.08861e-08
9.8893e-09
1.21151e-08
9.85516e-09
8.99213e-09
9.77691e-09
1.05274e-08
1.05697e-08
1.25495e-08
1.41549e-08
1.9367e-08
1.06319e-07
2.65125e-05
1.4032e-06
1.09144e-08
8.8688e-09
8.97112e-09
8.95234e-09
9.11503e-09
9.25756e-09
9.37783e-09
9.52553e-09
9.20945e-09
8.99109e-09
9.28773e-09
9.30747e-09
9.32371e-09
9.29892e-09
9.60525e-09
9.35299e-09
9.15297e-09
9.32761e-09
9.65069e-09
9.3692e-09
9.30707e-09
9.79477e-09
9.72022e-09
9.74811e-09
9.70862e-09
1.00235e-08
9.47193e-09
9.47769e-09
1.00261e-08
9.64938e-09
9.42048e-09
9.60018e-09
9.36666e-09
9.3576e-09
9.82944e-09
9.74168e-09
9.48017e-09
1.00894e-08
1.01454e-08
1.0757e-08
1.05888e-08
1.0142e-08
1.16639e-08
1.06579e-08
1.01284e-08
9.81567e-09
9.96211e-09
1.01825e-08
1.09926e-08
1.16431e-08
1.293e-08
6.04404e-08
2.65126e-05
1.40084e-06
1.08818e-08
8.84272e-09
8.93235e-09
9.07948e-09
9.2416e-09
9.21663e-09
9.15413e-09
9.29681e-09
9.17522e-09
8.9622e-09
9.25663e-09
9.27518e-09
9.29019e-09
9.26478e-09
9.56815e-09
9.31178e-09
9.27033e-09
9.87751e-09
9.3207e-09
9.25484e-09
1.0056e-08
9.38318e-09
9.32068e-09
9.8763e-09
9.24815e-09
9.04153e-09
9.23755e-09
9.25196e-09
9.58374e-09
9.38421e-09
9.39437e-09
9.92873e-09
9.28152e-09
9.24668e-09
9.66179e-09
9.64193e-09
9.40141e-09
9.99447e-09
1.00406e-08
1.03189e-08
1.0056e-08
1.00588e-08
1.11522e-08
9.89162e-09
9.25535e-09
1.01781e-08
1.02504e-08
1.05044e-08
1.19746e-08
1.3048e-08
1.4004e-08
7.14681e-08
2.65125e-05
1.40332e-06
1.09155e-08
8.87001e-09
9.01397e-09
9.00871e-09
8.99525e-09
8.84316e-09
8.80026e-09
8.77293e-09
8.81406e-09
8.96762e-09
9.13035e-09
9.15176e-09
9.31139e-09
9.48531e-09
9.47438e-09
9.79022e-09
9.35309e-09
9.29574e-09
9.93727e-09
9.93478e-09
9.69253e-09
9.66113e-09
9.85821e-09
9.83538e-09
9.96021e-09
9.55856e-09
9.32685e-09
9.53284e-09
9.91068e-09
9.4675e-09
9.25646e-09
9.44239e-09
9.62999e-09
9.7217e-09
9.40916e-09
1.03856e-08
9.93481e-09
9.87511e-09
1.01765e-08
1.04401e-08
1.02925e-08
1.02267e-08
1.13791e-08
1.09358e-08
1.01348e-08
1.00633e-08
1.08437e-08
1.08141e-08
1.15908e-08
1.09446e-08
1.05115e-08
2.41347e-08
2.65125e-05
1.40093e-06
1.08857e-08
8.68965e-09
8.82933e-09
8.96599e-09
8.89114e-09
8.87678e-09
8.94455e-09
8.91426e-09
9.09825e-09
9.25719e-09
9.40736e-09
9.34516e-09
9.31105e-09
9.37849e-09
9.44518e-09
9.74917e-09
9.32839e-09
9.25755e-09
9.75386e-09
9.75747e-09
9.64114e-09
9.58391e-09
9.76626e-09
9.79849e-09
9.91641e-09
9.93518e-09
9.96871e-09
9.96363e-09
1.00628e-08
9.42311e-09
9.19711e-09
9.52942e-09
9.57587e-09
9.60616e-09
9.2871e-09
1.03149e-08
9.88714e-09
9.82041e-09
1.01117e-08
1.01188e-08
1.01513e-08
1.01942e-08
1.03561e-08
9.91453e-09
9.7464e-09
1.08833e-08
1.05849e-08
1.11447e-08
1.11657e-08
1.18134e-08
1.13516e-08
3.12093e-08
2.65124e-05
1.40337e-06
1.09201e-08
8.71439e-09
8.85935e-09
8.9978e-09
8.86071e-09
8.75692e-09
8.90646e-09
8.82162e-09
8.955e-09
9.18374e-09
9.69542e-09
9.54663e-09
9.1513e-09
9.16312e-09
9.16248e-09
9.48451e-09
9.48475e-09
9.78495e-09
9.37351e-09
9.30774e-09
9.80852e-09
9.7324e-09
9.79235e-09
9.88227e-09
9.97484e-09
9.38194e-09
9.36772e-09
9.6189e-09
9.61614e-09
9.641e-09
9.63263e-09
9.80132e-09
9.87891e-09
9.67051e-09
9.38777e-09
9.913e-09
9.78702e-09
1.00555e-08
1.06184e-08
1.0155e-08
1.01661e-08
1.0372e-08
1.02662e-08
1.15808e-08
1.07879e-08
9.86299e-09
1.07818e-08
1.08727e-08
1.21654e-08
1.17965e-08
1.01138e-08
1.34779e-08
2.65124e-05
1.401e-06
1.0885e-08
8.68855e-09
8.8323e-09
8.969e-09
8.95349e-09
8.93069e-09
9.04496e-09
9.01221e-09
9.0616e-09
9.23137e-09
9.73027e-09
9.54161e-09
9.14733e-09
9.41421e-09
9.41624e-09
9.27208e-09
9.26088e-09
9.73803e-09
9.34358e-09
9.26646e-09
9.75238e-09
9.73874e-09
9.97431e-09
9.83889e-09
9.81748e-09
9.41142e-09
9.38107e-09
9.95031e-09
9.40067e-09
9.26828e-09
9.59222e-09
9.69468e-09
9.95147e-09
9.58702e-09
9.31749e-09
9.91413e-09
9.72304e-09
9.98278e-09
1.0522e-08
1.01138e-08
1.01644e-08
1.01214e-08
9.90406e-09
1.08725e-08
1.04693e-08
1.06732e-08
1.0458e-08
1.07769e-08
1.0388e-08
1.08994e-08
1.1469e-08
1.43668e-08
2.65124e-05
1.40344e-06
1.09155e-08
8.5565e-09
8.68564e-09
8.828e-09
8.82278e-09
8.91841e-09
8.90133e-09
8.82903e-09
8.97028e-09
9.16561e-09
9.69149e-09
9.38651e-09
9.30916e-09
9.97555e-09
9.21917e-09
9.13416e-09
9.3039e-09
9.44477e-09
9.33102e-09
9.12824e-09
9.60803e-09
9.59696e-09
1.00241e-08
9.52914e-09
9.42775e-09
1.01578e-08
1.01861e-08
9.47332e-09
9.26004e-09
9.80631e-09
9.8213e-09
9.53411e-09
9.65872e-09
1.01887e-08
9.71214e-09
9.29878e-09
9.47509e-09
9.77881e-09
1.03242e-08
1.01245e-08
1.04758e-08
1.1029e-08
1.03698e-08
1.0892e-08
1.16857e-08
1.04195e-08
1.02565e-08
1.05655e-08
1.05672e-08
1.12787e-08
1.16044e-08
1.34565e-08
2.65124e-05
1.40105e-06
1.08799e-08
8.68055e-09
8.82426e-09
8.96558e-09
8.94444e-09
8.92148e-09
9.02829e-09
9.00321e-09
9.22905e-09
9.3348e-09
9.35239e-09
9.79921e-09
9.39827e-09
8.99319e-09
9.11961e-09
9.11131e-09
9.26097e-09
9.24611e-09
9.40151e-09
9.43977e-09
9.57416e-09
9.98805e-09
9.43433e-09
9.37038e-09
9.98919e-09
9.97735e-09
1.01472e-08
9.44826e-09
9.05628e-09
9.40149e-09
9.48727e-09
9.42972e-09
9.5126e-09
1.01776e-08
9.62863e-09
9.24184e-09
9.39006e-09
9.68368e-09
1.04944e-08
1.01068e-08
1.0328e-08
1.11855e-08
1.02839e-08
1.11307e-08
1.10124e-08
1.04215e-08
1.11322e-08
1.11459e-08
1.06949e-08
1.09153e-08
1.11087e-08
1.2984e-08
2.65124e-05
1.40092e-06
1.16448e-08
9.75312e-09
9.70411e-09
9.68983e-09
9.85682e-09
9.44516e-09
8.72643e-09
8.83224e-09
8.81215e-09
8.96458e-09
9.12213e-09
9.13023e-09
9.27697e-09
9.43445e-09
9.47042e-09
9.51189e-09
9.70573e-09
9.28843e-09
9.15158e-09
9.3393e-09
9.56666e-09
9.51625e-09
9.45986e-09
1.02816e-08
9.49432e-09
9.38694e-09
1.01611e-08
9.47021e-09
9.00126e-09
9.37051e-09
9.39827e-09
9.30893e-09
9.33932e-09
9.46904e-09
9.73806e-09
9.77743e-09
9.77699e-09
9.77038e-09
1.02235e-08
1.02703e-08
9.83183e-09
1.03576e-08
1.05308e-08
1.08428e-08
1.15808e-08
1.17379e-08
1.14279e-08
1.04451e-08
1.06434e-08
1.15054e-08
1.07351e-08
1.2809e-08
2.65125e-05
1.39854e-06
1.16094e-08
9.72375e-09
9.67435e-09
9.66006e-09
9.82509e-09
9.38124e-09
8.81556e-09
8.95881e-09
8.92225e-09
9.23846e-09
9.3713e-09
9.35126e-09
9.783e-09
9.36303e-09
9.10461e-09
9.56981e-09
9.5618e-09
9.71235e-09
9.32728e-09
9.14877e-09
9.23259e-09
9.25995e-09
9.81381e-09
9.4586e-09
9.20291e-09
9.35584e-09
9.43758e-09
9.50698e-09
9.15026e-09
9.33225e-09
9.36154e-09
9.29361e-09
9.32589e-09
9.38557e-09
9.51163e-09
1.01982e-08
9.81298e-09
9.45322e-09
1.10201e-08
1.0232e-08
9.74679e-09
1.03282e-08
1.04998e-08
1.15421e-08
1.17713e-08
1.23298e-08
1.17679e-08
1.05293e-08
1.06579e-08
1.02657e-08
1.07302e-08
1.27232e-08
2.6513e-05
1.41432e-06
1.12684e-08
9.18374e-09
9.515e-09
9.50219e-09
9.8248e-09
9.40357e-09
9.32554e-09
1.01806e-08
9.41707e-09
9.1497e-09
9.63458e-09
9.62716e-09
9.62785e-09
9.63084e-09
9.64712e-09
9.66968e-09
9.50332e-09
9.46672e-09
9.95847e-09
9.44101e-09
9.19234e-09
1.10183e-08
1.085e-08
1.01856e-08
1.04265e-08
9.63931e-09
9.26469e-09
9.34998e-09
9.43405e-09
9.70286e-09
9.77558e-09
1.01587e-08
9.5221e-09
8.93725e-09
9.34247e-09
9.4552e-09
9.49169e-09
9.4146e-09
9.83155e-09
9.83231e-09
9.67647e-09
1.02456e-08
1.08363e-08
1.13803e-08
1.16804e-08
1.14648e-08
1.04593e-08
1.09678e-08
9.91769e-09
1.0369e-08
1.117e-08
1.37072e-08
2.65125e-05
1.39724e-06
1.14049e-08
9.47879e-09
9.26175e-09
9.23981e-09
9.74276e-09
9.37336e-09
9.29244e-09
9.96673e-09
9.19814e-09
9.11583e-09
9.30028e-09
9.44153e-09
9.349e-09
9.12155e-09
9.56969e-09
9.58577e-09
9.73395e-09
9.30503e-09
9.27376e-09
9.74762e-09
9.58627e-09
1.09236e-08
1.16319e-08
1.01206e-08
1.04339e-08
9.58977e-09
9.26632e-09
9.62922e-09
9.55986e-09
9.56941e-09
9.59122e-09
9.97462e-09
9.50984e-09
9.0728e-09
9.2588e-09
9.22204e-09
9.33898e-09
9.41863e-09
1.00537e-08
9.82956e-09
9.65914e-09
1.02296e-08
1.07905e-08
1.07549e-08
1.08028e-08
1.16649e-08
1.0512e-08
1.04838e-08
1.00826e-08
1.0051e-08
1.1073e-08
1.33234e-08
2.65125e-05
1.3993e-06
1.16367e-08
9.73762e-09
9.7035e-09
9.69833e-09
9.84472e-09
9.41705e-09
9.16238e-09
9.64891e-09
9.64422e-09
9.66067e-09
9.64535e-09
9.63308e-09
9.83956e-09
9.42553e-09
8.86653e-09
9.00749e-09
8.97318e-09
9.07738e-09
9.06811e-09
9.18177e-09
9.4554e-09
1.54478e-08
0.00330232
1.5822e-08
1.38041e-08
9.11363e-09
9.34908e-09
9.2285e-09
9.26217e-09
9.28833e-09
9.67594e-09
9.41993e-09
8.97109e-09
9.06306e-09
8.98154e-09
9.27054e-09
1.00233e-08
9.67731e-09
9.61586e-09
1.06562e-08
1.08268e-08
1.08457e-08
1.11588e-08
1.15317e-08
1.16719e-08
1.14965e-08
1.17525e-08
1.21574e-08
1.18156e-08
1.16249e-08
1.1292e-08
1.51295e-08
2.64711e-05
1.42099e-06
1.14528e-08
9.35152e-09
9.67123e-09
9.36437e-09
9.30064e-09
1.0016e-08
9.35168e-09
9.29324e-09
9.80151e-09
9.17e-09
9.1002e-09
9.59277e-09
9.5939e-09
9.60147e-09
9.59558e-09
9.44192e-09
9.40025e-09
9.71671e-09
9.45707e-09
9.3683e-09
1.10858e-08
1.22652e-08
0.000905682
1.20337e-08
1.12985e-08
9.28655e-09
9.1229e-09
9.19571e-09
9.1914e-09
9.42459e-09
9.37421e-09
9.46326e-09
9.94888e-09
9.39966e-09
9.18885e-09
9.65788e-09
9.383e-09
9.71452e-09
1.00538e-08
1.01689e-08
9.83609e-09
1.08654e-08
1.07547e-08
1.02168e-08
1.04967e-08
1.05072e-08
1.12701e-08
1.08694e-08
1.37394e-08
1.23055e-08
1.14004e-08
1.65585e-08
2.64833e-05
1.44755e-06
1.1187e-08
9.02993e-09
9.51509e-09
9.51441e-09
9.8398e-09
9.40188e-09
9.31855e-09
9.99787e-09
9.22742e-09
9.1409e-09
9.62049e-09
9.63569e-09
9.64473e-09
9.6057e-09
9.62761e-09
9.83043e-09
9.39134e-09
9.14971e-09
9.63599e-09
9.40084e-09
1.09902e-08
0.00161403
0.119472
5.92348e-08
9.31833e-09
9.19562e-09
9.17261e-09
9.20925e-09
9.61321e-09
9.25821e-09
9.23725e-09
9.77045e-09
9.76737e-09
1.02278e-08
9.42748e-09
9.38969e-09
9.74326e-09
9.91122e-09
1.04233e-08
1.058e-08
1.06952e-08
1.03158e-08
1.08922e-08
1.18076e-08
1.27758e-08
1.20776e-08
1.16878e-08
1.15235e-08
1.26051e-08
1.20709e-08
1.25743e-08
2.65253e-05
1.43316e-06
1.19379e-08
9.21107e-09
9.42845e-09
1.01427e-08
9.40108e-09
8.82365e-09
8.97062e-09
8.93197e-09
9.09368e-09
9.44563e-09
9.17119e-09
9.09442e-09
9.44432e-09
9.43082e-09
9.5736e-09
9.75471e-09
9.35029e-09
9.26858e-09
9.91638e-09
9.72209e-09
1.29144e-08
0.0106691
0.0869829
1.09508e-08
8.84945e-09
8.95503e-09
9.1778e-09
9.18108e-09
9.17108e-09
9.14022e-09
9.31798e-09
9.30679e-09
9.40951e-09
9.6993e-09
9.77514e-09
9.66315e-09
9.86661e-09
1.02245e-08
1.01617e-08
1.07525e-08
1.02969e-08
9.20519e-09
9.84639e-09
9.87643e-09
1.03138e-08
1.04804e-08
1.18062e-08
1.25294e-08
1.17728e-08
1.25138e-08
1.4574e-08
2.65133e-05
1.42131e-06
1.15293e-08
9.35949e-09
9.7036e-09
9.21932e-09
9.15718e-09
9.68675e-09
9.67537e-09
9.66852e-09
9.8318e-09
9.38553e-09
9.29462e-09
9.83016e-09
9.74594e-09
9.89545e-09
9.96976e-09
1.01569e-08
1.01425e-08
9.37622e-09
9.31564e-09
9.93514e-09
9.46079e-09
1.06947e-08
9.716e-08
9.78948e-09
9.19527e-09
9.27856e-09
9.40768e-09
9.44463e-09
9.30099e-09
9.30565e-09
9.49178e-09
9.7224e-09
9.94084e-09
9.91928e-09
9.8501e-09
1.0186e-08
9.60445e-09
9.58354e-09
1.02676e-08
9.9546e-09
9.99642e-09
1.07098e-08
1.08003e-08
1.09443e-08
1.23247e-08
1.08948e-08
9.36776e-09
1.0484e-08
1.00286e-08
1.008e-08
1.08084e-08
1.36671e-08
2.65133e-05
1.41899e-06
1.14952e-08
9.33241e-09
9.6752e-09
9.19338e-09
9.13053e-09
9.65651e-09
9.64078e-09
9.63394e-09
9.80086e-09
9.36966e-09
8.95554e-09
9.27228e-09
9.2735e-09
9.26131e-09
9.2713e-09
9.75016e-09
9.3384e-09
9.10076e-09
9.55492e-09
9.43986e-09
9.46486e-09
1.17417e-08
4.30453e-08
9.60651e-09
9.63648e-09
9.60836e-09
9.86158e-09
9.45186e-09
9.38611e-09
9.90836e-09
9.17051e-09
9.15112e-09
9.50296e-09
9.53129e-09
9.81157e-09
9.78971e-09
9.9876e-09
9.97272e-09
9.7753e-09
9.38256e-09
9.89137e-09
1.12327e-08
1.02738e-08
9.69317e-09
1.06215e-08
1.03819e-08
1.09303e-08
1.1636e-08
1.20891e-08
1.17656e-08
1.09745e-08
1.36774e-08
2.65127e-05
1.40097e-06
1.16421e-08
9.75138e-09
9.70102e-09
9.69589e-09
9.67865e-09
9.98168e-09
9.368e-09
9.32388e-09
1.00128e-08
9.53381e-09
9.18166e-09
9.37572e-09
9.88071e-09
9.3961e-09
9.30543e-09
1.01253e-08
9.37475e-09
9.13182e-09
9.59316e-09
9.4397e-09
9.42092e-09
9.44759e-09
9.44678e-09
9.86486e-09
9.72773e-09
9.18264e-09
9.24204e-09
9.39035e-09
9.55857e-09
9.40876e-09
9.13139e-09
9.26625e-09
9.21679e-09
9.42103e-09
9.56624e-09
9.77381e-09
9.60351e-09
9.29332e-09
1.00819e-08
1.01678e-08
1.02195e-08
1.09652e-08
1.13783e-08
1.07232e-08
1.06453e-08
9.92613e-09
9.75992e-09
1.16122e-08
1.25739e-08
1.20361e-08
1.11513e-08
1.40581e-08
2.65128e-05
1.39866e-06
1.16078e-08
9.72311e-09
9.6724e-09
9.66692e-09
9.64821e-09
9.95103e-09
9.34147e-09
9.29629e-09
9.9825e-09
9.50043e-09
9.14082e-09
9.2925e-09
9.44623e-09
9.58436e-09
9.59172e-09
9.76285e-09
9.33512e-09
9.25012e-09
9.88685e-09
9.8949e-09
1.01496e-08
9.45317e-09
9.41146e-09
1.00406e-08
9.96683e-09
1.00713e-08
9.32268e-09
9.21712e-09
9.83689e-09
9.41522e-09
9.10195e-09
9.29667e-09
9.61591e-09
9.34624e-09
9.35858e-09
1.02434e-08
9.82555e-09
9.894e-09
1.06211e-08
1.0118e-08
1.00845e-08
1.00506e-08
1.04747e-08
1.0373e-08
9.93831e-09
1.0819e-08
1.03271e-08
1.12684e-08
1.22344e-08
1.17419e-08
1.08245e-08
1.37331e-08
2.65129e-05
1.40303e-06
1.14529e-08
9.55949e-09
9.52255e-09
9.5297e-09
9.51841e-09
9.53551e-09
9.51748e-09
9.68566e-09
9.86449e-09
9.99145e-09
9.39431e-09
9.01897e-09
9.29581e-09
9.27962e-09
9.77853e-09
9.37503e-09
9.1101e-09
9.30315e-09
9.44839e-09
9.32231e-09
9.2878e-09
1.01551e-08
9.44859e-09
9.16319e-09
9.3425e-09
9.44734e-09
9.27604e-09
9.23409e-09
1.00258e-08
9.2953e-09
9.06717e-09
9.41154e-09
9.43459e-09
1.00575e-08
9.52242e-09
9.12441e-09
9.62623e-09
9.7012e-09
9.74484e-09
1.0183e-08
1.07327e-08
1.10329e-08
1.0832e-08
1.03566e-08
9.6269e-09
9.88432e-09
1.10855e-08
1.15304e-08
1.1079e-08
1.20335e-08
1.12533e-08
1.39415e-08
2.6513e-05
1.40082e-06
1.14205e-08
9.53322e-09
9.49557e-09
9.50245e-09
9.49095e-09
9.50831e-09
9.4893e-09
9.65226e-09
9.83001e-09
9.96001e-09
9.36258e-09
9.00076e-09
9.2756e-09
9.26271e-09
9.73863e-09
9.33994e-09
9.10067e-09
9.5368e-09
9.53594e-09
9.70739e-09
9.58929e-09
9.57882e-09
9.77039e-09
9.3417e-09
9.12276e-09
9.27275e-09
9.57785e-09
9.26726e-09
9.21731e-09
9.84553e-09
9.42114e-09
9.14346e-09
9.36337e-09
9.93072e-09
9.48224e-09
9.11612e-09
9.2964e-09
9.58592e-09
9.97888e-09
1.01379e-08
1.09421e-08
1.10639e-08
1.1643e-08
1.04007e-08
9.92611e-09
1.2612e-08
1.10748e-08
1.03367e-08
1.12191e-08
1.00107e-08
1.11768e-08
1.47566e-08
2.65129e-05
1.40301e-06
1.14503e-08
9.56201e-09
9.52558e-09
9.35844e-09
9.3329e-09
9.49332e-09
9.49861e-09
9.53412e-09
9.7437e-09
9.28965e-09
9.14565e-09
9.63819e-09
9.6348e-09
9.64648e-09
9.64433e-09
9.62922e-09
9.47058e-09
9.59767e-09
9.29547e-09
9.25875e-09
9.44693e-09
9.64308e-09
9.38614e-09
9.14764e-09
9.73576e-09
9.4792e-09
9.29269e-09
9.44415e-09
9.74006e-09
9.29869e-09
9.24364e-09
1.01132e-08
9.40123e-09
9.36423e-09
1.04049e-08
9.59072e-09
9.22014e-09
9.71062e-09
9.90719e-09
1.0158e-08
1.0281e-08
1.05107e-08
1.03364e-08
1.16301e-08
1.15853e-08
9.75757e-09
9.45181e-09
1.05838e-08
1.00883e-08
1.00515e-08
1.11497e-08
1.39386e-08
2.6513e-05
1.40075e-06
1.14179e-08
9.53534e-09
9.50003e-09
9.3325e-09
9.30624e-09
9.46518e-09
9.47008e-09
9.50552e-09
9.71941e-09
9.26775e-09
9.11778e-09
9.60219e-09
9.59696e-09
9.46118e-09
9.45018e-09
9.59708e-09
9.43346e-09
9.58488e-09
9.13764e-09
9.08315e-09
9.25952e-09
9.44015e-09
9.36943e-09
9.11864e-09
9.51081e-09
9.45612e-09
9.47379e-09
9.4645e-09
9.80204e-09
9.28628e-09
9.21471e-09
1.01201e-08
9.38213e-09
9.31993e-09
1.03855e-08
9.58069e-09
9.20866e-09
9.67546e-09
9.74354e-09
9.86116e-09
1.01917e-08
1.04224e-08
1.02519e-08
1.08702e-08
1.1229e-08
9.97344e-09
1.03559e-08
1.10491e-08
1.2333e-08
1.34727e-08
1.35794e-08
1.49956e-08
2.65131e-05
1.40295e-06
1.14435e-08
9.55634e-09
9.52013e-09
9.34901e-09
9.32334e-09
9.48561e-09
9.47954e-09
9.52834e-09
9.74799e-09
9.42986e-09
9.43899e-09
9.94431e-09
9.50264e-09
9.29654e-09
9.42348e-09
9.57219e-09
9.74914e-09
9.7641e-09
9.92975e-09
9.34709e-09
9.27101e-09
1.00876e-08
9.3839e-09
9.1314e-09
9.28453e-09
9.426e-09
9.29734e-09
9.22513e-09
9.67882e-09
9.70732e-09
9.31463e-09
9.27902e-09
1.01932e-08
9.61693e-09
9.72532e-09
1.03414e-08
9.63005e-09
9.24635e-09
9.59659e-09
9.75717e-09
1.03515e-08
1.03054e-08
9.80315e-09
9.5004e-09
1.0054e-08
1.19681e-08
1.13273e-08
1.03568e-08
1.10919e-08
1.04691e-08
1.13487e-08
1.36779e-08
2.65131e-05
1.40077e-06
1.14116e-08
9.53082e-09
9.4943e-09
9.32211e-09
9.2967e-09
9.45964e-09
9.4548e-09
9.49304e-09
9.71718e-09
9.40516e-09
9.41076e-09
9.91781e-09
9.48563e-09
9.14872e-09
9.27988e-09
9.26972e-09
9.40711e-09
9.56661e-09
9.74611e-09
9.32026e-09
9.24204e-09
1.00675e-08
9.34522e-09
9.10062e-09
9.25838e-09
9.40121e-09
9.28496e-09
9.19636e-09
9.8523e-09
9.84676e-09
9.38091e-09
9.44002e-09
1.01886e-08
9.62552e-09
9.72801e-09
1.03306e-08
9.62206e-09
9.15379e-09
9.42675e-09
9.41366e-09
1.00745e-08
1.0523e-08
1.05382e-08
1.028e-08
1.16643e-08
1.13242e-08
9.70109e-09
1.04196e-08
9.93633e-09
1.17873e-08
1.34781e-08
1.50278e-08
2.65131e-05
1.40296e-06
1.1443e-08
9.55625e-09
9.5204e-09
9.34998e-09
9.32397e-09
9.48353e-09
9.47802e-09
9.52793e-09
9.74494e-09
9.27591e-09
9.14242e-09
9.63705e-09
9.62187e-09
9.79596e-09
9.34877e-09
9.15979e-09
9.0124e-09
9.09445e-09
9.5769e-09
9.58072e-09
9.71825e-09
9.31201e-09
9.28326e-09
9.72418e-09
9.30914e-09
9.23198e-09
9.4229e-09
9.56755e-09
9.29341e-09
8.93662e-09
9.26361e-09
9.30205e-09
9.33655e-09
9.26379e-09
9.91355e-09
9.51355e-09
9.06482e-09
9.35572e-09
9.41543e-09
9.73555e-09
1.01351e-08
1.01068e-08
1.08304e-08
1.07504e-08
1.06491e-08
1.13279e-08
1.09892e-08
1.03398e-08
1.10995e-08
1.18016e-08
1.23388e-08
1.35746e-08
2.65131e-05
1.40074e-06
1.14111e-08
9.53021e-09
9.49325e-09
9.32201e-09
9.29737e-09
9.45797e-09
9.452e-09
9.49318e-09
9.71481e-09
9.25618e-09
9.11521e-09
9.60669e-09
9.59061e-09
9.75429e-09
9.32524e-09
9.13266e-09
8.98293e-09
9.07383e-09
9.40597e-09
9.39704e-09
9.68556e-09
9.27892e-09
9.24518e-09
9.53287e-09
9.54038e-09
9.53574e-09
9.73104e-09
9.27632e-09
9.22158e-09
9.81596e-09
9.4198e-09
9.18331e-09
9.37614e-09
9.38215e-09
9.8141e-09
9.49441e-09
9.12774e-09
9.20079e-09
9.64192e-09
9.974e-09
1.03735e-08
1.02184e-08
1.02433e-08
9.92957e-09
1.02362e-08
1.12142e-08
1.07902e-08
1.02317e-08
1.11188e-08
1.08388e-08
1.13849e-08
1.37776e-08
2.65133e-05
1.40288e-06
1.14431e-08
9.55177e-09
9.5157e-09
9.35645e-09
9.33626e-09
9.51295e-09
9.48734e-09
9.84336e-09
9.44728e-09
9.03255e-09
9.30888e-09
9.30085e-09
9.31297e-09
9.2934e-09
9.60862e-09
9.19398e-09
8.96185e-09
9.25361e-09
9.26323e-09
9.28158e-09
9.27042e-09
9.41874e-09
9.73857e-09
9.33819e-09
9.08551e-09
9.52626e-09
9.52674e-09
9.36524e-09
9.38614e-09
9.55447e-09
9.47441e-09
9.56903e-09
9.81981e-09
9.61903e-09
9.26992e-09
9.64864e-09
9.86075e-09
9.35253e-09
9.41409e-09
9.75474e-09
9.77104e-09
9.78162e-09
1.08593e-08
1.08213e-08
1.09833e-08
1.12983e-08
1.12302e-08
1.11793e-08
1.18308e-08
1.12964e-08
9.98687e-09
1.18044e-08
2.65133e-05
1.40074e-06
1.14115e-08
9.52567e-09
9.48957e-09
9.33046e-09
9.30968e-09
9.48375e-09
9.47258e-09
9.82471e-09
9.41595e-09
9.00304e-09
9.27304e-09
9.26912e-09
9.28848e-09
9.44659e-09
9.31485e-09
9.14779e-09
8.99612e-09
9.0714e-09
9.55143e-09
9.55677e-09
9.55395e-09
9.53872e-09
9.85554e-09
9.29907e-09
9.05421e-09
9.4955e-09
9.51277e-09
9.51452e-09
9.53344e-09
9.52284e-09
9.46831e-09
9.5597e-09
9.8125e-09
9.62393e-09
9.26289e-09
9.63142e-09
9.83386e-09
9.32225e-09
9.61412e-09
9.38272e-09
9.68438e-09
9.47272e-09
9.87345e-09
1.01848e-08
1.12339e-08
1.07657e-08
1.0316e-08
1.08772e-08
1.08101e-08
1.14446e-08
1.13018e-08
1.23426e-08
2.65132e-05
1.40287e-06
1.14433e-08
9.55189e-09
9.516e-09
9.34693e-09
9.3394e-09
9.53514e-09
9.5195e-09
9.51994e-09
9.51684e-09
9.49842e-09
9.8368e-09
9.38469e-09
9.29645e-09
9.95415e-09
9.97706e-09
1.01511e-08
9.36879e-09
8.96513e-09
9.2548e-09
9.25075e-09