/*--------------------------------*- C++ -*----------------------------------*\
| =========                 |                                                 |
| \\      /  F ield         | OpenFOAM: The Open Source CFD Toolbox           |
|  \\    /   O peration     | Version:  4.1                                   |
|   \\  /    A nd           | Web:      www.OpenFOAM.org                      |
|    \\/     M anipulation  |                                                 |
\*---------------------------------------------------------------------------*/
FoamFile
{
    version     2.0;
    format      ascii;
    class       volVectorField;
    location    "5";
    object      U;
}
// * * * * * * * * * * * * * * * * * * * * * * * * * * * * * * * * * * * * * //

dimensions      [0 1 -1 0 0 0 0];

internalField   nonuniform List<vector> 
4432
(
(40.0035 -0.0017454 0.0411522)
(39.7207 -0.0308854 0.0595392)
(39.3513 -0.0390932 0.0666037)
(38.9541 -0.0429172 0.0730973)
(38.5533 -0.0461951 0.0755614)
(38.1434 -0.0497248 0.0799047)
(37.7242 -0.0525343 0.0862202)
(37.2913 -0.0543289 0.0833503)
(36.8269 -0.0595126 0.0857097)
(36.3559 -0.0627219 0.0912225)
(35.8473 -0.0649979 0.0940738)
(35.3184 -0.0703766 0.105061)
(34.7631 -0.0734177 0.103545)
(34.1145 -0.0780048 0.105115)
(33.4393 -0.0842278 0.116155)
(32.6341 -0.091939 0.127006)
(31.7413 -0.0978549 0.136117)
(30.6972 -0.10655 0.146697)
(29.5271 -0.118049 0.16973)
(28.2504 -0.125932 0.212019)
(26.8117 -0.137608 0.25893)
(24.9978 -0.150723 0.318997)
(23.0126 -0.16119 0.395403)
(20.7885 -0.169588 0.490357)
(18.2616 -0.18018 0.609726)
(15.2445 -0.197533 0.775137)
(11.8089 -0.220123 0.991388)
(7.1366 -0.256201 1.29696)
(1.37968 -0.312808 1.68109)
(-6.01195 -0.386552 2.19368)
(-14.7898 -0.456443 2.94104)
(-27.5439 -0.581343 4.12702)
(-43.0116 -0.773196 5.86916)
(-65.5278 -1.12827 9.12861)
(-95.2528 -1.44311 16.1189)
(-162.326 -1.15567 11.061)
(-223.885 -0.348743 -20.6101)
(-231.035 -0.0989239 -31.7321)
(-247.088 -0.0811171 -38.0915)
(-252.691 -0.388477 -45.4222)
(-252.31 -0.379703 -52.8342)
(-244.97 -0.438311 -61.975)
(-227.945 -0.606869 -73.103)
(-197.968 -0.881913 -88.3971)
(-130.736 -1.38748 -100.871)
(-60.9113 -1.38879 -81.8497)
(-29.5136 -0.332263 -71.3094)
(12.9956 -0.370176 -77.3489)
(59.9146 0.169245 -81.5424)
(86.6749 0.653847 -97.8569)
(199.312 -1.47758 -106.076)
(296.407 -3.18074 -20.8704)
(162.509 0.132735 26.8274)
(265.294 5.49458 -65.4742)
(40.0035 -0.0017441 0.0409178)
(39.717 -0.0308941 0.0580301)
(39.3557 -0.0390789 0.065018)
(38.9632 -0.0428639 0.0708818)
(38.5632 -0.0461213 0.0741191)
(38.1568 -0.0495733 0.0757839)
(37.735 -0.0524478 0.0793202)
(37.3033 -0.0541751 0.0856151)
(36.8539 -0.0591198 0.0833979)
(36.3667 -0.0625493 0.087123)
(35.8722 -0.0645408 0.0953589)
(35.3339 -0.0700181 0.0984708)
(34.7729 -0.0731077 0.0968369)
(34.1239 -0.0776114 0.0991528)
(33.4398 -0.0838751 0.109334)
(32.6319 -0.091608 0.11996)
(31.7288 -0.0975646 0.136126)
(30.7204 -0.105624 0.148637)
(29.5243 -0.117317 0.17081)
(28.24 -0.125166 0.210029)
(26.7782 -0.136897 0.2577)
(24.9585 -0.149898 0.318175)
(22.9655 -0.160253 0.394514)
(20.7139 -0.168636 0.489041)
(18.1483 -0.179251 0.609419)
(15.0745 -0.196762 0.776486)
(11.5522 -0.219724 0.996013)
(6.79405 -0.256106 1.30629)
(0.973983 -0.312832 1.69789)
(-6.64669 -0.388402 2.23037)
(-15.7621 -0.461229 2.99656)
(-28.7922 -0.587708 4.2097)
(-44.9337 -0.784956 6.04143)
(-68.6081 -1.15691 9.57298)
(-101.717 -1.51896 17.2959)
(-174.595 -1.14084 9.1908)
(-232.31 -0.237025 -20.434)
(-242.015 0.0593793 -30.5816)
(-251.596 0.102358 -39.4745)
(-258.556 -0.193012 -45.9997)
(-257.745 -0.159326 -53.7162)
(-250.797 -0.195298 -63.0794)
(-234.732 -0.338204 -74.6538)
(-207.077 -0.541208 -91.8986)
(-139.041 -0.598367 -105.551)
(-78.522 -0.263459 -86.0328)
(-41.3034 0.997609 -77.8411)
(8.46358 1.137 -80.347)
(54.53 1.78314 -83.37)
(93.8092 2.51537 -96.3926)
(206.508 0.638003 -101.63)
(307.328 -1.40622 -12.5866)
(174.575 2.37997 29.9097)
(285.28 6.95561 -66.6914)
(40.0237 -0.00182281 0.00232485)
(39.7695 -0.0333937 0.000409928)
(39.4351 -0.0421787 -0.00279122)
(39.0805 -0.0462877 -0.00301742)
(38.7256 -0.0500288 -0.00147131)
(38.3662 -0.0534403 0.000320908)
(37.9953 -0.0569108 0.00318128)
(37.6086 -0.0607651 0.00861679)
(37.2024 -0.064027 0.0126134)
(36.7706 -0.067559 0.0166373)
(36.309 -0.0717422 0.0229558)
(35.8132 -0.0757495 0.0323928)
(35.278 -0.0797953 0.0516659)
(34.6867 -0.0852794 0.0684356)
(34.0141 -0.0918927 0.0884865)
(33.2351 -0.101492 0.127277)
(32.3268 -0.110723 0.185119)
(31.2939 -0.120903 0.25678)
(30.1244 -0.128904 0.331536)
(28.799 -0.140591 0.433255)
(27.2731 -0.154531 0.59888)
(25.523 -0.168965 0.804355)
(23.5355 -0.180977 1.0385)
(21.2742 -0.192304 1.3276)
(18.6925 -0.205987 1.69364)
(15.6856 -0.227319 2.17779)
(12.0595 -0.258898 2.85318)
(7.63981 -0.302734 3.74815)
(2.18581 -0.361878 4.91433)
(-4.72076 -0.437539 6.49873)
(-13.4744 -0.53376 8.8364)
(-24.6304 -0.658426 12.2079)
(-38.6732 -0.838021 17.3838)
(-56.4647 -1.09957 26.3693)
(-77.5724 -1.51619 45.3045)
(-120.754 -1.43765 64.6354)
(-158.036 -0.934541 33.4072)
(-167.55 -0.837808 15.6558)
(-185.776 -0.572419 8.44721)
(-199.96 -0.564198 2.69563)
(-210.032 -0.522655 -3.92454)
(-215.36 -0.499649 -12.7745)
(-217.474 -0.608346 -24.9872)
(-209.905 -0.880156 -45.3979)
(-229.794 -0.896303 -78.4446)
(-255.147 -0.181276 -90.141)
(-235.703 0.435059 -83.6822)
(-219.045 0.13803 -89.6329)
(-215.315 0.185337 -97.5928)
(-206.363 0.455125 -103.449)
(-256.402 1.55796 -107.434)
(-346.935 4.57925 -125.486)
(-176.089 4.76528 -89.4898)
(11.8961 0.0589789 119.029)
(40.0236 -0.0018205 0.00202061)
(39.7644 -0.033406 -0.00123885)
(39.4366 -0.0421575 -0.00478459)
(39.084 -0.0462258 -0.00519826)
(38.7282 -0.0499243 -0.00394555)
(38.3673 -0.0532898 -0.00194254)
(37.9948 -0.0567151 0.000547573)
(37.606 -0.0605209 0.00445503)
(37.1971 -0.0637232 0.0103419)
(36.7639 -0.0672015 0.0144467)
(36.3014 -0.0713158 0.0195498)
(35.8035 -0.0752581 0.0311777)
(35.2657 -0.079237 0.0499994)
(34.6689 -0.0846565 0.0665178)
(33.9911 -0.0912056 0.0871689)
(33.2061 -0.100748 0.125652)
(32.2961 -0.109904 0.18033)
(31.261 -0.119949 0.252249)
(30.0881 -0.127778 0.330764)
(28.7502 -0.139398 0.432095)
(27.2174 -0.153253 0.598758)
(25.4627 -0.167522 0.804242)
(23.4725 -0.179316 1.03767)
(21.2027 -0.190425 1.32738)
(18.6018 -0.203896 1.69565)
(15.5644 -0.22508 2.18469)
(11.8966 -0.256613 2.86451)
(7.42191 -0.300424 3.76591)
(1.89494 -0.359933 4.95095)
(-5.11396 -0.436076 6.56459)
(-14.0235 -0.532871 8.93017)
(-25.4333 -0.659034 12.3754)
(-39.9125 -0.842082 17.7375)
(-58.4618 -1.11125 27.1925)
(-80.5738 -1.54627 47.1278)
(-127.957 -1.42348 66.2219)
(-163.282 -0.815503 34.6968)
(-171.098 -0.678619 15.6909)
(-189.502 -0.381929 7.96799)
(-203.558 -0.34947 2.49946)
(-213.588 -0.280929 -4.33011)
(-219.071 -0.230335 -13.5325)
(-221.639 -0.310222 -26.3162)
(-215.699 -0.544947 -49.1899)
(-240.813 -0.440319 -82.8534)
(-267.726 0.433309 -92.5015)
(-243.43 1.21328 -86.306)
(-227.443 0.976942 -93.1392)
(-224.648 0.949569 -101.259)
(-217.422 1.07188 -106.552)
(-265.492 2.10165 -112.936)
(-349.019 4.96318 -134.754)
(-160.689 4.91663 -97.8874)
(26.4178 0.00657314 115.814)
(40.0189 -0.00187592 0.00678536)
(39.7538 -0.0336542 -0.000346501)
(39.4051 -0.0424882 -0.00797117)
(39.0326 -0.046652 -0.00766619)
(38.6588 -0.0504079 -0.00541933)
(38.2803 -0.0539269 -0.00194424)
(37.8905 -0.0574266 0.00302383)
(37.4849 -0.0610555 0.00961546)
(37.0595 -0.0647025 0.0188668)
(36.6108 -0.068371 0.0304253)
(36.1343 -0.0722523 0.0440889)
(35.6247 -0.0763517 0.0615881)
(35.0756 -0.0807908 0.0851629)
(34.4748 -0.0860131 0.114521)
(33.799 -0.092976 0.154972)
(33.0213 -0.102275 0.213311)
(32.1215 -0.112831 0.297378)
(31.0985 -0.122237 0.405482)
(29.9457 -0.131235 0.542134)
(28.6415 -0.142262 0.714404)
(27.1482 -0.156339 0.94779)
(25.4336 -0.170973 1.2531)
(23.4727 -0.184801 1.63871)
(21.2468 -0.196146 2.11516)
(18.7066 -0.209735 2.70626)
(15.7623 -0.229327 3.46056)
(12.2741 -0.259063 4.4466)
(8.06506 -0.300551 5.7453)
(2.93911 -0.355442 7.47789)
(-3.32822 -0.42437 9.84172)
(-10.9306 -0.510501 13.1281)
(-20.009 -0.615874 17.7707)
(-30.4352 -0.748397 24.5173)
(-41.425 -0.917881 34.8912)
(-50.1804 -1.14335 51.9074)
(-63.0738 -1.27743 70.742)
(-83.1007 -1.10264 45.0293)
(-100.396 -0.897968 29.5449)
(-125.088 -0.817458 22.6892)
(-149.84 -0.840667 16.561)
(-175.857 -0.900645 8.99824)
(-204.436 -1.01918 -0.886163)
(-236.851 -1.23054 -13.0299)
(-270.659 -1.48951 -24.8973)
(-307.286 -1.19384 -33.8383)
(-358.691 -0.29243 -43.4445)
(-389.579 0.0733286 -48.8744)
(-413.806 0.189696 -55.2562)
(-437.634 0.546927 -63.9529)
(-446.364 2.20329 -74.6721)
(-425.75 6.64289 -111.984)
(-308.812 11.279 -216.712)
(-329.587 8.25026 -255.948)
(-91.9393 -0.709668 10.9052)
(40.019 -0.00187376 0.00675222)
(39.7496 -0.0336657 -0.000589673)
(39.4086 -0.0424651 -0.00824299)
(39.0394 -0.0465873 -0.0079496)
(38.6659 -0.0502988 -0.00569577)
(38.2872 -0.0537714 -0.00233055)
(37.8971 -0.0572223 0.00260633)
(37.4913 -0.0607994 0.0094952)
(37.0657 -0.0643911 0.0183913)
(36.6164 -0.068 0.0297929)
(36.1391 -0.0718163 0.0438037)
(35.6285 -0.0758458 0.061317)
(35.0777 -0.0802132 0.0845527)
(34.4736 -0.0853646 0.114657)
(33.7927 -0.0922577 0.15519)
(33.0094 -0.101491 0.214454)
(32.1078 -0.111968 0.297627)
(31.083 -0.121248 0.406959)
(29.9261 -0.130075 0.5429)
(28.6113 -0.14102 0.717814)
(27.1093 -0.154998 0.953602)
(25.3871 -0.16946 1.26012)
(23.423 -0.183066 1.64547)
(21.1893 -0.194189 2.12313)
(18.6318 -0.207559 2.71784)
(15.6592 -0.226957 3.48026)
(12.1311 -0.256582 4.47855)
(7.87158 -0.298062 5.79363)
(2.68015 -0.353336 7.55237)
(-3.67214 -0.422529 9.95348)
(-11.3956 -0.508817 13.3018)
(-20.6455 -0.615042 18.0448)
(-31.335 -0.749319 24.9944)
(-42.7026 -0.921887 35.7502)
(-51.935 -1.1532 53.5952)
(-65.9765 -1.26089 72.2801)
(-86.3322 -0.984924 45.7224)
(-104.062 -0.74204 29.5445)
(-129.675 -0.624064 22.1553)
(-156.233 -0.606662 15.8095)
(-184.733 -0.619766 7.89979)
(-216.946 -0.682855 -2.48594)
(-254.444 -0.825194 -15.3983)
(-294.571 -1.00017 -28.4527)
(-341.45 -0.659223 -38.8418)
(-398.344 0.327316 -49.0936)
(-427.43 0.832884 -54.5029)
(-453.757 0.938486 -60.6324)
(-476.968 1.25654 -69.8197)
(-486.831 2.85964 -81.6946)
(-460.001 7.28019 -121.594)
(-328.055 11.8155 -224.595)
(-327.809 8.67148 -259.716)
(-95.1601 -0.685098 9.96381)
(40.019 -0.00185331 0.00641918)
(39.7529 -0.0336517 -0.0120768)
(39.4036 -0.042486 -0.0259904)
(39.0316 -0.0466261 -0.02866)
(38.659 -0.0503766 -0.0282727)
(38.2818 -0.0539113 -0.0259116)
(37.8935 -0.057432 -0.0212033)
(37.4896 -0.0610191 -0.0139584)
(37.0665 -0.0646607 -0.00382325)
(36.6204 -0.0683763 0.0097013)
(36.1478 -0.0722531 0.0273404)
(35.6434 -0.0763065 0.0506092)
(35.1008 -0.080763 0.0812122)
(34.5094 -0.0856181 0.121262)
(33.8503 -0.0923041 0.175187)
(33.0955 -0.101312 0.251905)
(32.2246 -0.111772 0.358795)
(31.2303 -0.121332 0.502637)
(30.1147 -0.130513 0.682474)
(28.8588 -0.140759 0.913746)
(27.4426 -0.153458 1.21459)
(25.8206 -0.168439 1.61396)
(23.9718 -0.182368 2.12387)
(21.8799 -0.194701 2.76577)
(19.5153 -0.207535 3.55848)
(16.8123 -0.224666 4.55319)
(13.6645 -0.249854 5.82124)
(9.9385 -0.285522 7.4609)
(5.49653 -0.331299 9.60955)
(0.2331 -0.388404 12.454)
(-5.88878 -0.454145 16.245)
(-12.7451 -0.530531 21.318)
(-19.8761 -0.611294 28.1483)
(-26.0688 -0.701118 37.4308)
(-28.7615 -0.799496 50.1704)
(-28.9327 -0.827827 65.1433)
(-33.3652 -0.808598 60.8794)
(-45.9963 -0.773734 52.2305)
(-63.4291 -0.778957 46.2536)
(-81.6866 -0.849924 42.3061)
(-101.574 -0.969835 38.0358)
(-125.004 -1.17008 33.0488)
(-152.749 -1.47613 28.3639)
(-189.03 -1.71695 24.8857)
(-233.78 -1.34206 22.2269)
(-281.156 -0.649401 16.7142)
(-318.885 -0.619623 3.51394)
(-333.049 -0.705822 -5.75303)
(-338.437 -0.687854 -14.4874)
(-302.728 -0.192931 -45.287)
(-245.701 4.67452 -122.678)
(-146.678 11.9253 -190.897)
(-222.793 10.4745 -90.188)
(101.245 -0.425412 66.6903)
(40.0191 -0.00185111 0.00645486)
(39.7488 -0.0336633 -0.011851)
(39.4072 -0.0424623 -0.0258044)
(39.0385 -0.0465606 -0.0284862)
(38.6661 -0.0502665 -0.0281069)
(38.2888 -0.0537546 -0.0257646)
(37.9003 -0.0572263 -0.0210645)
(37.4962 -0.0607612 -0.013751)
(37.0727 -0.0643468 -0.00358251)
(36.6261 -0.0680021 0.00994296)
(36.1527 -0.071814 0.0276714)
(35.6473 -0.0757979 0.0510228)
(35.1033 -0.0801836 0.0817927)
(34.5091 -0.0849422 0.122151)
(33.8446 -0.091552 0.176771)
(33.0848 -0.100508 0.254274)
(32.2108 -0.110893 0.36204)
(31.2158 -0.120359 0.504681)
(30.0959 -0.12945 0.68536)
(28.833 -0.13959 0.918412)
(27.4059 -0.152162 1.22399)
(25.7771 -0.166968 1.62377)
(23.9238 -0.180709 2.13546)
(21.8261 -0.192804 2.77612)
(19.4489 -0.205416 3.57298)
(16.7235 -0.222408 4.57563)
(13.5436 -0.247442 5.85714)
(9.77654 -0.283076 7.51541)
(5.28531 -0.328943 9.69022)
(-0.03984 -0.385976 12.572)
(-6.23733 -0.451717 16.4188)
(-13.1919 -0.528329 21.5792)
(-20.4425 -0.609565 28.5506)
(-26.7941 -0.699693 38.075)
(-29.6232 -0.797043 51.2239)
(-30.3231 -0.811722 66.3967)
(-34.7129 -0.726521 61.6192)
(-47.8635 -0.648217 52.2802)
(-66.1232 -0.615655 45.8774)
(-85.7681 -0.641452 41.7953)
(-107.858 -0.708109 37.416)
(-134.698 -0.849785 32.4582)
(-167.2 -1.09633 27.8579)
(-210.835 -1.29021 24.4929)
(-263.257 -0.924198 21.8098)
(-316.613 -0.231993 15.4559)
(-354.108 -0.0494324 2.0062)
(-370.383 -0.0999171 -6.23687)
(-378.765 -0.162056 -13.5938)
(-344.286 0.240812 -43.0162)
(-296.338 4.8291 -116.158)
(-187.504 11.7554 -180.684)
(-223.102 10.5133 -85.327)
(110.008 -0.566943 68.811)
(40.019 -0.00184569 0.00670334)
(39.7541 -0.0334001 -0.0208542)
(39.4059 -0.0422734 -0.0397879)
(39.0348 -0.0464616 -0.0439653)
(38.6635 -0.0502363 -0.0442292)
(38.288 -0.0537834 -0.0418692)
(37.9016 -0.0573035 -0.0365784)
(37.5001 -0.0608773 -0.0279763)
(37.0797 -0.0645083 -0.0157542)
(36.6372 -0.0681992 0.000557736)
(36.1694 -0.0720207 0.0218488)
(35.6718 -0.0760879 0.0500249)
(35.1383 -0.0804261 0.0874055)
(34.5594 -0.0854087 0.136919)
(33.9186 -0.0918491 0.202423)
(33.1911 -0.100563 0.292343)
(32.3564 -0.110687 0.418119)
(31.4016 -0.121733 0.586699)
(30.3328 -0.130673 0.803152)
(29.1399 -0.140882 1.07759)
(27.8126 -0.15192 1.4339)
(26.3113 -0.167891 1.89922)
(24.6085 -0.182254 2.50364)
(22.6901 -0.197536 3.26725)
(20.5413 -0.210286 4.2155)
(18.1264 -0.226505 5.39265)
(15.3727 -0.248956 6.86876)
(12.1911 -0.280923 8.74051)
(8.50001 -0.322195 11.1379)
(4.26922 -0.372751 14.2142)
(-0.444283 -0.42952 18.1587)
(-5.41743 -0.492134 23.1722)
(-10.1383 -0.553844 29.4765)
(-13.5538 -0.612857 37.2273)
(-13.8025 -0.660921 46.4315)
(-11.8055 -0.65299 55.7949)
(-7.4779 -0.652716 61.3552)
(-7.04234 -0.689916 64.5422)
(-14.7852 -0.727575 62.8118)
(-24.2104 -0.832336 61.9143)
(-33.7063 -1.0151 62.2482)
(-44.4703 -1.30621 63.0791)
(-56.7519 -1.72946 65.2063)
(-72.8597 -2.13003 68.1603)
(-100.045 -1.92278 68.0328)
(-130.498 -1.31645 59.4683)
(-161.605 -1.19082 37.2387)
(-179.273 -1.30487 6.78575)
(-189.741 -1.50639 -29.7904)
(-148.468 -1.85098 -103.625)
(-42.6213 0.95045 -259.972)
(-40.1847 11.0659 -333.329)
(-285.208 13.7915 -231.823)
(5.13033 1.45907 -55.2928)
(40.0191 -0.00184347 0.00674783)
(39.7499 -0.0334112 -0.0204892)
(39.4092 -0.0422498 -0.0394552)
(39.0416 -0.046396 -0.0436205)
(38.6706 -0.0501259 -0.0438655)
(38.2949 -0.053626 -0.0414811)
(37.9084 -0.0570968 -0.0361542)
(37.5067 -0.0606181 -0.0275123)
(37.086 -0.064193 -0.0152523)
(36.6431 -0.0678235 0.00113076)
(36.1745 -0.0715817 0.0226156)
(35.6759 -0.0755614 0.0509661)
(35.1409 -0.0798206 0.0886274)
(34.5593 -0.0847206 0.138216)
(33.9137 -0.0910838 0.204649)
(33.1814 -0.0997446 0.296113)
(32.3419 -0.109802 0.422508)
(31.3866 -0.120769 0.591025)
(30.3148 -0.129614 0.807901)
(29.1167 -0.139729 1.08556)
(27.7785 -0.150585 1.44526)
(26.2686 -0.166361 1.91534)
(24.5593 -0.180607 2.52106)
(22.6361 -0.195713 3.28599)
(20.4794 -0.208267 4.23804)
(18.0464 -0.224319 5.42407)
(15.2659 -0.246614 6.91463)
(12.049 -0.278554 8.80813)
(8.31641 -0.319827 11.2333)
(4.03642 -0.370335 14.35)
(-0.734002 -0.427365 18.3466)
(-5.77419 -0.489947 23.4394)
(-10.5669 -0.551632 29.85)
(-14.0581 -0.61036 37.7665)
(-14.3578 -0.656466 47.2004)
(-12.7113 -0.639721 56.6529)
(-7.99645 -0.60996 62.2685)
(-7.28967 -0.612925 65.1603)
(-15.4549 -0.624041 62.8328)
(-25.5523 -0.699339 61.7989)
(-36.2577 -0.844282 62.1457)
(-49.1504 -1.08803 63.2469)
(-64.6379 -1.45324 65.9842)
(-86.4955 -1.78717 69.6401)
(-121.254 -1.54439 70.0352)
(-156.221 -0.91063 60.8193)
(-190.461 -0.693169 37.5004)
(-210.143 -0.707787 7.18025)
(-225.028 -0.921767 -28.9708)
(-185.589 -1.35795 -100.713)
(-83.9224 1.16533 -239.133)
(-99.0552 10.0643 -301.561)
(-281.28 13.0842 -221.629)
(23.7391 1.29155 -57.3638)
(40.0192 -0.00181597 0.00733479)
(39.7561 -0.0332538 -0.0281501)
(39.4089 -0.0421167 -0.0522348)
(39.0394 -0.0462576 -0.0582971)
(38.6698 -0.0500024 -0.0596799)
(38.2964 -0.0535264 -0.0578216)
(37.9125 -0.0570267 -0.0524586)
(37.5139 -0.0605919 -0.0432313)
(37.0968 -0.0642186 -0.0298524)
(36.6583 -0.0678919 -0.011823)
(36.1961 -0.0716128 0.0118941)
(35.7065 -0.0755545 0.0434877)
(35.1838 -0.0798178 0.086028)
(34.619 -0.0846869 0.142538)
(33.9977 -0.090615 0.21728)
(33.3011 -0.0983153 0.317372)
(32.5048 -0.108714 0.45543)
(31.5984 -0.118813 0.639478)
(30.5823 -0.128689 0.882054)
(29.4633 -0.136699 1.18582)
(28.2287 -0.147928 1.58073)
(26.8639 -0.160098 2.08638)
(25.3287 -0.175735 2.75249)
(23.6092 -0.189919 3.59563)
(21.7 -0.202999 4.65371)
(19.5851 -0.216705 5.9583)
(17.2259 -0.234702 7.57325)
(14.5697 -0.259251 9.58263)
(11.5783 -0.292059 12.0927)
(8.26159 -0.330683 15.2236)
(4.71839 -0.374884 19.0952)
(1.17619 -0.41966 23.8111)
(-1.92614 -0.464604 29.4121)
(-3.84186 -0.500829 35.8146)
(-3.39136 -0.531719 42.6513)
(-1.39129 -0.514207 48.7247)
(2.17538 -0.468144 52.3728)
(9.51811 -0.434855 60.153)
(14.8341 -0.466443 68.0936)
(13.3113 -0.577198 70.9489)
(10.0707 -0.76576 72.9111)
(7.83136 -1.0413 76.4648)
(6.94699 -1.44713 82.354)
(8.82301 -1.96275 89.6862)
(7.23726 -2.13276 93.3673)
(2.48264 -2.05062 87.4885)
(0.956106 -1.96649 66.2228)
(-9.4064 -2.08924 27.1762)
(-20.7529 -2.78392 -32.0406)
(-14.7721 -4.21095 -128.161)
(-58.0474 -4.15089 -237.518)
(-161.491 3.63841 -228.308)
(-336.14 10.7383 -165.423)
(-89.356 1.3866 -46.103)
(40.0192 -0.00181369 0.00736969)
(39.7519 -0.0332648 -0.0276744)
(39.4125 -0.0420923 -0.0517636)
(39.0463 -0.0461912 -0.0578158)
(38.6771 -0.0498909 -0.0591809)
(38.3036 -0.0533674 -0.0572953)
(37.9195 -0.0568183 -0.051901)
(37.5206 -0.0603313 -0.0426467)
(37.1032 -0.0639021 -0.0292339)
(36.6644 -0.0675154 -0.0111097)
(36.2016 -0.0711733 0.0128413)
(35.711 -0.0750297 0.0447449)
(35.1868 -0.0791924 0.0874863)
(34.6196 -0.0839917 0.144253)
(33.9948 -0.0898617 0.219667)
(33.2922 -0.0974937 0.321314)
(32.492 -0.107794 0.460109)
(31.5836 -0.117778 0.645961)
(30.5674 -0.127522 0.887103)
(29.4431 -0.135463 1.19472)
(28.2012 -0.146553 1.59148)
(26.8261 -0.15855 2.10582)
(25.2833 -0.174096 2.7716)
(23.5602 -0.188154 3.61921)
(21.6454 -0.201073 4.678)
(19.5194 -0.214558 5.99043)
(17.1414 -0.232436 7.61829)
(14.4603 -0.257014 9.64707)
(11.4395 -0.289815 12.183)
(8.09177 -0.328256 15.3464)
(4.51403 -0.3726 19.2597)
(0.938001 -0.417091 24.0267)
(-2.20047 -0.46125 29.6928)
(-4.15314 -0.496489 36.171)
(-3.7433 -0.525653 43.0998)
(-2.05164 -0.50232 49.1251)
(1.48977 -0.440709 52.626)
(9.40546 -0.390525 60.6046)
(14.921 -0.409981 68.4558)
(12.9541 -0.510604 71.0631)
(9.15494 -0.685116 73.1066)
(5.79547 -0.939847 77.0868)
(3.10663 -1.31098 83.8639)
(1.78902 -1.76206 92.2472)
(-5.54867 -1.85047 96.7251)
(-13.6989 -1.68929 91.0356)
(-19.8296 -1.5316 69.9417)
(-35.1197 -1.51489 31.2646)
(-50.3196 -2.07109 -30.0799)
(-45.366 -3.58332 -132.475)
(-95.5059 -3.33973 -217.946)
(-200.3 3.46698 -190.846)
(-325.504 9.88933 -150.754)
(-68.4682 1.25026 -49.7431)
(40.0192 -0.00181902 0.00797092)
(39.7587 -0.032889 -0.0344754)
(39.4136 -0.041763 -0.0634106)
(39.0457 -0.0459534 -0.0713326)
(38.6783 -0.0497249 -0.0739632)
(38.3074 -0.0532617 -0.0728378)
(37.9262 -0.0567681 -0.0677356)
(37.5307 -0.0603369 -0.0583091)
(37.1171 -0.0639609 -0.0442961)
(36.6831 -0.0675904 -0.0252875)
(36.2271 -0.071231 -0.000136778)
(35.7466 -0.0750458 0.0334173)
(35.2363 -0.0792686 0.0789714)
(34.6875 -0.0841399 0.140308)
(34.0878 -0.0900635 0.221271)
(33.4207 -0.0975874 0.328489)
(32.6657 -0.10735 0.470742)
(31.8124 -0.117385 0.664508)
(30.8569 -0.128546 0.915476)
(29.8146 -0.13632 1.23815)
(28.6806 -0.146855 1.64556)
(27.4582 -0.15673 2.17441)
(26.1071 -0.174263 2.85834)
(24.6072 -0.188654 3.74318)
(22.9578 -0.204992 4.85722)
(21.151 -0.218604 6.23778)
(19.1787 -0.235186 7.92872)
(17.0166 -0.256615 9.99471)
(14.6563 -0.284795 12.5129)
(12.1326 -0.318717 15.5666)
(9.54969 -0.356781 19.2218)
(7.10763 -0.395291 23.5129)
(5.1279 -0.432285 28.3936)
(4.09347 -0.46167 33.6981)
(4.67485 -0.483549 39.0345)
(6.55237 -0.475469 43.5384)
(8.57472 -0.423458 46.2244)
(13.7542 -0.366928 50.6152)
(22.442 -0.348656 58.3445)
(32.9203 -0.395408 66.9531)
(40.6251 -0.518924 72.8918)
(44.4105 -0.681051 76.9627)
(49.3861 -0.930324 82.0608)
(59.4392 -1.33333 88.2104)
(72.4172 -1.64659 90.1926)
(81.253 -1.72943 83.0148)
(97.6228 -1.66415 65.4861)
(89.777 -2.22206 45.3558)
(57.4109 -4.07015 11.2697)
(39.0864 -6.00322 -73.3901)
(-61.3023 -6.98036 -149.045)
(-218.103 -0.753111 -148.923)
(-404.887 8.67921 -148.45)
(-354.087 -0.12099 -73.6553)
(40.0193 -0.00181673 0.00801616)
(39.7545 -0.0328994 -0.0339592)
(39.4169 -0.0417389 -0.062916)
(39.0526 -0.0458873 -0.0708233)
(38.6855 -0.0496136 -0.0734316)
(38.3145 -0.0531026 -0.0722724)
(37.9333 -0.0565595 -0.0671373)
(37.5375 -0.0600761 -0.0576798)
(37.1237 -0.0636441 -0.0436291)
(36.6895 -0.0672152 -0.0244956)
(36.233 -0.0707762 0.000910153)
(35.7514 -0.0745173 0.0349127)
(35.2395 -0.0786642 0.0808193)
(34.6884 -0.0834331 0.142437)
(34.0852 -0.0892594 0.223913)
(33.4131 -0.0967217 0.33206)
(32.6543 -0.106403 0.477073)
(31.7971 -0.116324 0.670846)
(30.8421 -0.127366 0.92349)
(29.7965 -0.135089 1.24636)
(28.6573 -0.145577 1.66072)
(27.423 -0.155296 2.19307)
(26.062 -0.172718 2.88443)
(24.5577 -0.187011 3.77125)
(22.9027 -0.203227 4.88948)
(21.0908 -0.216634 6.27639)
(19.1046 -0.233007 7.97996)
(16.923 -0.254561 10.0641)
(14.5391 -0.283031 12.608)
(11.9894 -0.316654 15.6926)
(9.37913 -0.354544 19.388)
(6.9096 -0.392945 23.7245)
(4.90378 -0.429392 28.662)
(3.84216 -0.45814 34.025)
(4.39394 -0.478984 39.4273)
(6.09565 -0.467212 43.9041)
(7.86778 -0.404251 46.4013)
(13.3221 -0.334884 50.7854)
(22.5802 -0.307615 58.7074)
(33.5502 -0.347319 67.5006)
(40.773 -0.470153 73.3978)
(43.5152 -0.630958 77.6935)
(47.2979 -0.872569 83.6206)
(55.5208 -1.24553 90.9678)
(64.1426 -1.48139 93.8318)
(69.7906 -1.4808 87.5165)
(84.0231 -1.35581 71.2714)
(77.4824 -1.72652 48.844)
(46.8587 -3.32443 5.76783)
(21.6696 -5.32987 -84.2916)
(-104.842 -6.08138 -139.194)
(-263.824 -0.0459513 -124.593)
(-405.941 7.99012 -129.707)
(-319.992 -0.0726315 -77.5134)
(40.0194 -0.00177985 0.0085192)
(39.7616 -0.0327007 -0.0401158)
(39.4183 -0.0415808 -0.0736202)
(39.0527 -0.0457197 -0.083402)
(38.6878 -0.0494577 -0.0874282)
(38.3198 -0.0529652 -0.0872238)
(37.9418 -0.0564519 -0.0826582)
(37.5496 -0.0600106 -0.0734591)
(37.1399 -0.0636296 -0.0593945)
(36.7105 -0.0672146 -0.0400991)
(36.2608 -0.0707364 -0.014528)
(35.7897 -0.0743012 0.0196965)
(35.2928 -0.0783058 0.0664223)
(34.761 -0.0830426 0.129995)
(34.1829 -0.0886683 0.214296)
(33.5436 -0.0957821 0.324453)
(32.8309 -0.103785 0.468327)
(32.0284 -0.114696 0.661039)
(31.138 -0.123552 0.910271)
(30.1704 -0.133034 1.23448)
(29.1428 -0.138705 1.63918)
(28.0542 -0.149956 2.16626)
(26.8941 -0.161172 2.83691)
(25.6304 -0.177227 3.72281)
(24.2513 -0.19122 4.85493)
(22.7573 -0.203972 6.27281)
(21.1454 -0.216779 7.99926)
(19.4196 -0.232689 10.0717)
(17.5941 -0.252724 12.5399)
(15.72 -0.278023 15.4509)
(13.8959 -0.305594 18.8403)
(12.2839 -0.334884 22.7026)
(11.1118 -0.361646 26.9726)
(10.6832 -0.385781 31.4816)
(11.3768 -0.403114 35.9321)
(13.1468 -0.408374 39.7572)
(15.026 -0.37748 42.2562)
(17.8026 -0.331077 45.0264)
(23.644 -0.298286 49.9037)
(32.6832 -0.301148 56.5618)
(43.4748 -0.324986 63.7854)
(55.8339 -0.398897 70.0824)
(68.4555 -0.55829 75.1675)
(82.2696 -0.825786 80.2722)
(94.7453 -1.11603 83.138)
(95.0511 -1.30175 79.5473)
(92.6571 -1.65608 72.9502)
(78.0876 -2.49662 64.8643)
(48.4228 -3.57287 43.3332)
(21.0723 -5.11873 -2.53219)
(-51.4969 -6.80388 -41.8217)
(-119.219 -3.86888 -14.5719)
(-261.054 1.18379 6.54922)
(-291.88 0.912111 20.5839)
(40.0195 -0.00177749 0.00856025)
(39.7574 -0.0327111 -0.0395532)
(39.4218 -0.0415557 -0.0730495)
(39.0598 -0.0456523 -0.0828174)
(38.6953 -0.0493451 -0.086825)
(38.3271 -0.0528052 -0.0865956)
(37.949 -0.0562425 -0.0820092)
(37.5566 -0.059749 -0.0727961)
(37.1467 -0.0633115 -0.0587049)
(36.7171 -0.0668376 -0.0393034)
(36.2672 -0.0702828 -0.0134473)
(35.7952 -0.0737593 0.0212992)
(35.2965 -0.0776807 0.068557)
(34.7625 -0.0823296 0.13246)
(34.1812 -0.087864 0.217126)
(33.5388 -0.0948822 0.328165)
(32.8205 -0.102793 0.47429)
(32.0157 -0.113644 0.667591)
(31.1242 -0.1224 0.920097)
(30.1575 -0.131812 1.24297)
(29.1245 -0.137465 1.65459)
(28.027 -0.148585 2.18331)
(26.8571 -0.159676 2.86543)
(25.5843 -0.175674 3.75374)
(24.2034 -0.189551 4.89289)
(22.7061 -0.202137 6.31521)
(21.0879 -0.214686 8.05092)
(19.3509 -0.230568 10.1384)
(17.5111 -0.250914 12.6265)
(15.6209 -0.275944 15.562)
(13.7807 -0.303291 18.9783)
(12.1523 -0.332558 22.87)
(10.9632 -0.358822 27.1679)
(10.5107 -0.38234 31.7045)
(11.1631 -0.398633 36.1751)
(12.7956 -0.401665 39.9768)
(14.3628 -0.364534 42.3125)
(16.9518 -0.309548 44.955)
(22.9832 -0.269362 49.8975)
(32.3501 -0.267684 56.7784)
(43.2894 -0.289818 64.2635)
(55.5747 -0.363252 70.8639)
(67.5166 -0.525111 76.5945)
(80.7912 -0.790215 82.9726)
(90.704 -1.01741 86.6483)
(89.8182 -1.09135 83.1519)
(88.7426 -1.33518 76.332)
(75.4773 -2.10556 67.1411)
(41.7397 -3.13707 42.7917)
(9.84966 -4.51948 -12.1213)
(-83.2611 -6.05889 -40.3498)
(-163.181 -2.96544 -5.71823)
(-294.868 1.70139 10.2623)
(-294.188 1.22366 17.5637)
(40.0194 -0.00178817 0.00892103)
(39.7648 -0.032288 -0.0451914)
(39.4243 -0.0411495 -0.0828479)
(39.0613 -0.0453397 -0.0944898)
(38.6991 -0.0491091 -0.100106)
(38.3341 -0.052638 -0.101114)
(37.9594 -0.0561444 -0.0974553)
(37.5708 -0.0597255 -0.0889318)
(37.1649 -0.0633555 -0.0753916)
(36.7401 -0.0669185 -0.0564542)
(36.2968 -0.0703167 -0.0312202)
(35.8353 -0.0736852 0.00256041)
(35.3521 -0.0775064 0.0486494)
(34.8383 -0.0821906 0.111912)
(34.2819 -0.0879622 0.19675)
(33.6707 -0.0948679 0.306358)
(32.9946 -0.102941 0.448632)
(32.2422 -0.112856 0.630445)
(31.4158 -0.121771 0.871846)
(30.5246 -0.13191 1.17612)
(29.5981 -0.137337 1.56604)
(28.6423 -0.147543 2.05511)
(27.6702 -0.156758 2.69472)
(26.658 -0.173237 3.5382)
(25.5689 -0.187187 4.66232)
(24.3918 -0.202138 6.09206)
(23.1173 -0.215396 7.83022)
(21.7702 -0.229299 9.87667)
(20.3915 -0.24621 12.2517)
(19.0476 -0.266611 14.9725)
(17.8343 -0.289265 18.0537)
(16.8766 -0.312555 21.4788)
(16.3322 -0.333944 25.1857)
(16.3862 -0.351161 29.0451)
(17.2432 -0.362876 32.8572)
(18.9367 -0.366254 36.2922)
(20.8919 -0.349079 38.8981)
(22.9524 -0.313142 41.2167)
(26.3369 -0.278111 44.627)
(31.8702 -0.256036 49.6694)
(39.8105 -0.255324 55.67)
(49.3214 -0.303731 61.7159)
(58.762 -0.417325 67.7409)
(68.8773 -0.617896 74.8614)
(78.9758 -0.878691 81.9981)
(80.0462 -1.11573 84.4681)
(77.5778 -1.5513 83.5995)
(69.6509 -2.36751 82.4255)
(50.8976 -3.14432 73.0554)
(28.2847 -3.98033 46.6932)
(-22.2665 -5.16842 19.3672)
(-59.258 -3.99852 37.5849)
(-109.973 -1.33672 58.9666)
(-155.706 -0.37316 60.0424)
(40.0195 -0.00178583 0.00897648)
(39.7606 -0.0322977 -0.0446011)
(39.4277 -0.0411248 -0.0822656)
(39.0682 -0.0452728 -0.0938912)
(38.7065 -0.048997 -0.099488)
(38.3414 -0.0524785 -0.100473)
(37.9666 -0.0559356 -0.0967916)
(37.5778 -0.0594644 -0.0882527)
(37.1717 -0.0630381 -0.0746756)
(36.747 -0.0665413 -0.0556347)
(36.3037 -0.0698787 -0.0300895)
(35.8413 -0.0731703 0.00421328)
(35.3562 -0.0768756 0.0510251)
(34.8399 -0.0814806 0.114792)
(34.2806 -0.0871918 0.199819)
(33.6663 -0.0939891 0.310361)
(32.9859 -0.101934 0.453211)
(32.2312 -0.11178 0.639013)
(31.4022 -0.120591 0.879923)
(30.5127 -0.130658 1.1882)
(29.5826 -0.136062 1.57757)
(28.6195 -0.146169 2.07666)
(27.6367 -0.155276 2.72166)
(26.6137 -0.171678 3.57651)
(25.5206 -0.185508 4.70724)
(24.3395 -0.200339 6.14337)
(23.0642 -0.213496 7.88884)
(21.713 -0.227223 9.94671)
(20.3252 -0.244056 12.3382)
(18.969 -0.264344 15.0812)
(17.7421 -0.286978 18.1884)
(16.7708 -0.31014 21.6431)
(16.213 -0.331393 25.38)
(16.251 -0.348246 29.2701)
(17.081 -0.359237 33.1097)
(18.6995 -0.361485 36.5508)
(20.4514 -0.340732 39.0713)
(22.2524 -0.298413 41.2519)
(25.5638 -0.256304 44.6096)
(31.1883 -0.228682 49.7469)
(39.3639 -0.22405 55.9303)
(48.9501 -0.271552 62.2474)
(58.0277 -0.38846 68.8111)
(68.0505 -0.596282 77.1262)
(76.61 -0.816528 85.1121)
(76.5674 -0.957516 87.5713)
(74.551 -1.29843 86.4927)
(66.0539 -2.07239 84.4228)
(43.322 -2.8099 72.7875)
(19.1645 -3.50265 40.8839)
(-45.476 -4.50932 17.1587)
(-88.1603 -3.2319 43.4434)
(-137.306 -0.699409 62.5287)
(-175.981 0.135722 60.5509)
(40.0196 -0.00173527 0.0091978)
(39.7682 -0.0320724 -0.0499305)
(39.43 -0.0409544 -0.0914434)
(39.0699 -0.0450905 -0.104936)
(38.7109 -0.0488253 -0.112275)
(38.3491 -0.0523278 -0.114701)
(37.9779 -0.0558141 -0.112247)
(37.593 -0.0593835 -0.10479)
(37.191 -0.0629977 -0.0921932)
(36.7708 -0.0665178 -0.0741515)
(36.3337 -0.0697786 -0.0498615)
(35.8811 -0.0728943 -0.0173792)
(35.4112 -0.0762983 0.0268981)
(34.9154 -0.0806923 0.0879178)
(34.3802 -0.0863453 0.170205)
(33.7948 -0.0928136 0.277038)
(33.1496 -0.100684 0.412453)
(32.4433 -0.108097 0.58262)
(31.6722 -0.11852 0.802777)
(30.8532 -0.124817 1.07868)
(30.0132 -0.13299 1.42944)
(29.1864 -0.136189 1.86425)
(28.397 -0.145158 2.43256)
(27.6504 -0.154361 3.21634)
(26.8829 -0.167436 4.32614)
(26.0281 -0.180439 5.76683)
(25.0596 -0.191378 7.51811)
(24.0167 -0.201748 9.52501)
(22.9813 -0.213459 11.7896)
(22.0481 -0.226984 14.3018)
(21.316 -0.24222 17.0739)
(20.8845 -0.257467 20.0964)