/*--------------------------------*- C++ -*----------------------------------*\
| =========                 |                                                 |
| \\      /  F ield         | OpenFOAM: The Open Source CFD Toolbox           |
|  \\    /   O peration     | Version:  4.1                                   |
|   \\  /    A nd           | Web:      www.OpenFOAM.org                      |
|    \\/     M anipulation  |                                                 |
\*---------------------------------------------------------------------------*/
FoamFile
{
    version     2.0;
    format      ascii;
    class       volScalarField;
    location    "68";
    object      omega;
}
// * * * * * * * * * * * * * * * * * * * * * * * * * * * * * * * * * * * * * //

dimensions      [0 0 -1 0 0 0 0];

internalField   nonuniform List<scalar> 
4432
(
0.0111063
0.0114361
0.0118258
0.0121449
0.0125226
0.0128339
0.0131977
0.0135024
0.0138519
0.0141483
0.0144834
0.0147691
0.0150911
0.0153638
0.0156735
0.0159313
0.0162297
0.0164708
0.0167599
0.0169827
0.0172645
0.0174721
0.017748
0.0179436
0.0182118
0.0184037
0.0186666
0.0188657
0.0191218
0.0193324
0.0195758
0.0197947
0.0200101
0.0202274
0.0204181
0.0206321
0.0208086
0.0210139
0.0211842
0.0213793
0.0215359
0.0217079
0.0218503
0.0220193
0.0221429
0.0222973
0.0223936
0.0225236
0.0226169
0.0227349
0.0228009
0.0229008
0.0230163
0.0231753
0.0111245
0.0114187
0.0118467
0.012126
0.0125445
0.0128149
0.0132189
0.0134848
0.0138708
0.0141334
0.014499
0.0147571
0.0151032
0.015354
0.0156829
0.0159229
0.0162372
0.0164637
0.016766
0.0169773
0.0172688
0.0174693
0.0177514
0.0179447
0.0182155
0.0184097
0.0186696
0.0188736
0.0191206
0.0193409
0.0195719
0.0198024
0.0200072
0.0202333
0.0204235
0.0206352
0.0208253
0.0210156
0.021212
0.0213816
0.0215717
0.0217197
0.0219049
0.0220302
0.0221916
0.0222958
0.0224454
0.022546
0.0226696
0.0227555
0.0228546
0.0229459
0.0229807
0.023251
21.7963
3.3803
1.2286
0.663333
0.436382
0.320367
0.251522
0.206444
0.174808
0.151452
0.133531
0.119371
0.107902
0.0984396
0.0904917
0.0837406
0.0779183
0.0728699
0.0684256
0.0645162
0.0610153
0.0579058
0.0550787
0.0525525
0.0502224
0.0481323
0.0461769
0.0444183
0.0427509
0.0412496
0.0398058
0.0384959
0.0372222
0.036067
0.0349464
0.0339286
0.0329533
0.0320591
0.0312096
0.0304165
0.0296654
0.0289447
0.0282758
0.0276148
0.0270219
0.0264057
0.0258766
0.0253014
0.0248342
0.0242939
0.0239337
0.023363
0.0232241
0.0223769
21.7963
3.3803
1.2286
0.663331
0.43638
0.320366
0.251521
0.206442
0.174807
0.15145
0.13353
0.119369
0.107901
0.0984378
0.0904904
0.0837392
0.0779164
0.0728693
0.0684234
0.0645168
0.0610132
0.0579081
0.0550773
0.0525562
0.0502208
0.0481357
0.0461733
0.0444207
0.0427446
0.0412508
0.0397971
0.0384942
0.0372112
0.0360683
0.0349384
0.0339374
0.0329498
0.0320759
0.031206
0.0304312
0.0296528
0.0289564
0.0282543
0.027627
0.02699
0.026419
0.0258409
0.0253184
0.0248022
0.0243161
0.0238997
0.0233625
0.0231632
0.022386
21.7959
3.38044
1.22877
0.663539
0.436614
0.320602
0.25175
0.20665
0.174997
0.151634
0.133713
0.119553
0.108087
0.0986258
0.0906826
0.083932
0.0781145
0.0730655
0.0686267
0.0647157
0.0612215
0.0581098
0.055289
0.0527578
0.050432
0.0483351
0.0463833
0.0446183
0.0429552
0.0414458
0.0400093
0.038699
0.0374457
0.0362941
0.0351947
0.0341751
0.0332095
0.0323024
0.0314528
0.0306343
0.029884
0.0291339
0.0284733
0.0277765
0.0271948
0.0265466
0.0260317
0.0254305
0.0249726
0.0244237
0.0240191
0.0235485
0.023007
0.0224969
21.7959
3.38043
1.22877
0.663539
0.436613
0.320601
0.251749
0.206649
0.174996
0.151633
0.133712
0.119551
0.108085
0.098625
0.09068
0.0839318
0.0781112
0.0730662
0.0686231
0.0647177
0.0612184
0.058113
0.055286
0.0527613
0.0504281
0.0483381
0.0463783
0.044621
0.0429486
0.041449
0.0400014
0.0387038
0.0374377
0.036303
0.0351886
0.034188
0.0332042
0.0323142
0.0314427
0.0306431
0.0298691
0.029141
0.0284515
0.0277823
0.0271679
0.0265522
0.0260046
0.0254367
0.0249564
0.0244263
0.0239984
0.0235556
0.0229496
0.022449
21.7961
3.38036
1.22869
0.663478
0.436561
0.320554
0.251706
0.206609
0.174958
0.151596
0.133677
0.119516
0.108052
0.09859
0.0906491
0.0838969
0.0780822
0.0730316
0.0685974
0.0646865
0.0611987
0.0580852
0.0552707
0.0527338
0.050416
0.0483108
0.0463734
0.0445976
0.042955
0.0414302
0.0400185
0.0386886
0.0374642
0.0362915
0.0352205
0.0341766
0.0332325
0.0322993
0.0314618
0.0306258
0.0298807
0.0291216
0.0284567
0.0277594
0.0271731
0.026531
0.0260149
0.0254277
0.0249722
0.0244209
0.0240022
0.0235262
0.0229868
0.0224848
21.7961
3.38036
1.22869
0.663477
0.436559
0.320553
0.251705
0.206608
0.174957
0.151596
0.133674
0.119516
0.108049
0.0985909
0.0906449
0.0838986
0.0780769
0.0730343
0.0685915
0.0646896
0.0611918
0.0580879
0.0552637
0.0527374
0.0504112
0.0483162
0.0463704
0.0446025
0.0429513
0.0414331
0.0400137
0.0386909
0.0374583
0.0362937
0.0352126
0.0341808
0.033224
0.0323057
0.0314547
0.030631
0.0298732
0.0291219
0.0284514
0.0277584
0.0271689
0.0265319
0.026008
0.0254306
0.0249514
0.0244318
0.0239654
0.0235283
0.023152
0.0222586
21.7961
3.38034
1.22867
0.663456
0.436541
0.320536
0.251688
0.20659
0.17494
0.151576
0.133656
0.119493
0.108029
0.0985651
0.0906235
0.08387
0.0780541
0.0730041
0.0685688
0.0646593
0.0611696
0.0580597
0.0552439
0.052714
0.0503964
0.0483005
0.0463629
0.0445961
0.042952
0.0414342
0.0400209
0.0386948
0.0374698
0.0362955
0.0352288
0.034177
0.0332445
0.0322935
0.0314766
0.0306141
0.0298927
0.0291072
0.0284641
0.0277509
0.027177
0.0265303
0.0260212
0.0254302
0.0249703
0.0244244
0.0239852
0.0234874
0.0231411
0.0222466
21.7961
3.38034
1.22867
0.663454
0.43654
0.320535
0.251687
0.206589
0.174939
0.151574
0.133655
0.119492
0.108028
0.0985634
0.0906226
0.0838679
0.0780534
0.073002
0.0685679
0.0646569
0.0611675
0.0580573
0.0552414
0.0527142
0.0503945
0.0483043
0.0463596
0.0446021
0.0429443
0.0414428
0.0400087
0.038707
0.0374532
0.0363107
0.0352088
0.0341939
0.0332242
0.0323103
0.0314593
0.0306245
0.0298803
0.0291101
0.0284595
0.0277492
0.0271774
0.0265268
0.0260182
0.0254196
0.0249621
0.0243965
0.0239977
0.0234147
0.0232113
0.0223063
21.7962
3.38033
1.22865
0.663435
0.436521
0.320516
0.251667
0.206567
0.174916
0.151549
0.133629
0.119463
0.107999
0.0985294
0.0905906
0.0838296
0.0780206
0.0729599
0.0685356
0.0646118
0.0611383
0.0580118
0.0552203
0.0526741
0.0503867
0.0482727
0.0463659
0.0445788
0.0429642
0.0414273
0.0400391
0.0386956
0.0374873
0.0362994
0.0352412
0.0341839
0.0332507
0.0323023
0.0314746
0.0306206
0.0298857
0.0291153
0.0284628
0.0277638
0.0271837
0.0265466
0.026027
0.0254367
0.0249634
0.0243987
0.0239926
0.02338
0.0232008
0.0222823
21.7962
3.38033
1.22865
0.663434
0.43652
0.320515
0.251666
0.206566
0.174915
0.151548
0.133628
0.119461
0.107998
0.0985278
0.0905898
0.0838274
0.0780198
0.0729568
0.0685348
0.0646075
0.0611382
0.0580074
0.0552219
0.0526696
0.0503905
0.0482679
0.0463722
0.0445724
0.0429716
0.0414167
0.0400464
0.0386814
0.0374957
0.0362843
0.0352518
0.0341683
0.0332634
0.0322869
0.0314897
0.0306055
0.0299031
0.0290978
0.0284798
0.0277424
0.027199
0.0265181
0.026037
0.0254024
0.0249685
0.0243682
0.023989
0.0233931
0.0231653
0.0222442
21.7962
3.38032
1.22864
0.663418
0.436502
0.320496
0.251645
0.206545
0.17489
0.151524
0.133599
0.119433
0.107964
0.0984952
0.0905499
0.0837904
0.0779745
0.0729166
0.0684854
0.0645662
0.0610881
0.0579691
0.0551783
0.0526409
0.0503602
0.0482522
0.0463569
0.0445692
0.0429699
0.0414247
0.0400562
0.0386979
0.0375125
0.0363043
0.03527
0.0341866
0.0332792
0.0323011
0.0315009
0.0306145
0.0299115
0.0291061
0.0284891
0.0277533
0.027209
0.0265297
0.0260433
0.02541
0.0249665
0.0243665
0.0239829
0.023376
0.0231485
0.0221848
21.7962
3.38032
1.22863
0.663416
0.436501
0.320495
0.251644
0.206543
0.174889
0.151521
0.133599
0.11943
0.107964
0.098492
0.0905508
0.0837864
0.0779758
0.0729111
0.0684872
0.0645595
0.0610909
0.0579626
0.0551817
0.0526358
0.0503635
0.0482489
0.0463591
0.0445668
0.0429693
0.0414213
0.0400535
0.0386939
0.0375105
0.036301
0.0352692
0.0341842
0.0332778
0.0323
0.0314986
0.0306176
0.0299052
0.0291116
0.0284766
0.0277577
0.0271892
0.0265297
0.0260199
0.0254033
0.0249429
0.0243684
0.0239497
0.0234221
0.0230004
0.0224005
21.7962
3.38032
1.22862
0.663398
0.436483
0.320475
0.251623
0.20652
0.174865
0.151494
0.133569
0.119398
0.107927
0.0984545
0.0905052
0.0837432
0.077921
0.0728634
0.068424
0.0645111
0.0610236
0.0579198
0.0551187
0.052608
0.0503157
0.048242
0.0463297
0.0445788
0.042956
0.0414486
0.0400559
0.0387337
0.0375254
0.0363443
0.0352877
0.0342206
0.0332938
0.0323252
0.0315114
0.0306332
0.0299171
0.029122
0.0284907
0.0277656
0.0272031
0.026534
0.0260263
0.0254004
0.0249444
0.0243548
0.0239588
0.0233694
0.0231274
0.0221693
21.7962
3.38032
1.22862
0.663397
0.436482
0.320474
0.251622
0.20652
0.174863
0.151494
0.133566
0.119398
0.107925
0.0984537
0.0905038
0.0837412
0.0779203
0.0728594
0.0684247
0.0645041
0.0610266
0.0579106
0.0551246
0.0525969
0.0503234
0.048231
0.0463399
0.0445685
0.0429674
0.0414372
0.0400648
0.0387191
0.0375303
0.0363275
0.0352911
0.034205
0.0332981
0.0323134
0.0315169
0.0306241
0.0299221
0.029114
0.028491
0.0277561
0.0271976
0.0265225
0.0260172
0.0253907
0.0249356
0.0243491
0.0239549
0.0233721
0.0231294
0.0221838
21.7962
3.38031
1.2286
0.663381
0.436464
0.320455
0.251601
0.206496
0.174838
0.151465
0.133536
0.119362
0.107887
0.0984095
0.0904571
0.0836875
0.0778634
0.0727959
0.0683577
0.0644338
0.060953
0.0578414
0.055057
0.0525482
0.0502821
0.0482188
0.0463288
0.0445847
0.042972
0.0414716
0.0400797
0.0387678
0.0375509
0.0363825
0.0353104
0.0342578
0.0333114
0.0323595
0.031523
0.0306613
0.029922
0.0291405
0.02849
0.0277733
0.0271993
0.0265302
0.0260178
0.0253925
0.0249352
0.0243514
0.0239565
0.0233699
0.0231259
0.0221917
21.7962
3.38031
1.2286
0.66338
0.436463
0.320454
0.2516
0.206495
0.174836
0.151464
0.133535
0.119361
0.107886
0.0984082
0.0904559
0.0836857
0.0778622
0.0727933
0.0683565
0.0644299
0.0609527
0.057837
0.0550582
0.0525429
0.0502841
0.0482126
0.0463313
0.044578
0.0429749
0.0414631
0.0400803
0.0387554
0.0375488
0.036369
0.0353089
0.0342455
0.0333131
0.0323473
0.0315282
0.0306478
0.0299293
0.0291259
0.0284944
0.0277577
0.0271978
0.0265146
0.0260148
0.0253787
0.0249361
0.0243422
0.0239585
0.023367
0.0231282
0.0221999
21.7962
3.3803
1.22858
0.663362
0.436446
0.320436
0.25158
0.206472
0.174812
0.151435
0.133503
0.119325
0.107846
0.0983627
0.0904046
0.0836289
0.0777966
0.0727232
0.0682747
0.0643467
0.0608591
0.0577514
0.0549733
0.052484
0.0502419
0.04821
0.0463413
0.0446106
0.0430037
0.0415113
0.0401193
0.0388158
0.0375915
0.0364384
0.0353506
0.0343203
0.0333481
0.0324217
0.0315539
0.030714
0.0299488
0.0291754
0.0285165
0.0277883
0.0272273
0.0265334
0.0260437
0.0253995
0.0249598
0.0243745
0.0239719
0.0234406
0.0229941
0.0224098
21.7962
3.3803
1.22858
0.663362
0.436445
0.320434
0.251579
0.20647
0.174812
0.151433
0.133503
0.119322
0.107846
0.0983598
0.0904052
0.0836257
0.0777969
0.0727196
0.0682747
0.064343
0.060859
0.0577481
0.054973
0.0524792
0.0502381
0.048205
0.0463371
0.0446106
0.043
0.0415145
0.0401121
0.0388174
0.0375801
0.0364361
0.0353385
0.0343146
0.033342
0.0324131
0.0315569
0.0307045
0.0299576
0.0291702
0.0285212
0.0277921
0.0272207
0.0265441
0.0260338
0.0254098
0.0249556
0.0243797
0.0239658
0.023442
0.0230054
0.0224292
21.7962
3.3803
1.22857
0.663346
0.436428
0.320418
0.251559
0.206452
0.174784
0.15141
0.133468
0.119293
0.1078
0.0983225
0.0903449
0.0835758
0.0777192
0.0726522
0.0681762
0.0642555
0.0607423
0.0576478
0.0548599
0.0524135
0.0502098
0.0482429
0.0463913
0.044697
0.0430745
0.0416158
0.0401916
0.0389186
0.0376473
0.0365276
0.0353895
0.0343961
0.0333814
0.0324803
0.0315947
0.0307529
0.0300028
0.0292008
0.0285753
0.0278137
0.0272814
0.0265698
0.0260991
0.0254476
0.0250323
0.0244339
0.0240695
0.0234875
0.0232679
0.0223319
21.7962
3.3803
1.22857
0.663345
0.436428
0.320417
0.251558
0.20645
0.174784
0.151407
0.133469
0.119289
0.107802
0.0983169
0.0903492
0.0835681
0.0777252
0.0726427
0.0681837
0.0642442
0.0607513
0.057636
0.0548692
0.0524003
0.0502183
0.048227
0.0464021
0.0446793
0.0430928
0.0415937
0.0402122
0.0388903
0.0376701
0.036495
0.0354128
0.0343643
0.0334009
0.0324585
0.0316051
0.0307457
0.0300023
0.0292051
0.0285666
0.0278205
0.0272673
0.0265724
0.0260827
0.0254476
0.0250053
0.0244287
0.0240225
0.0235096
0.0230507
0.0224896
21.7962
3.38029
1.22855
0.663329
0.436411
0.320405
0.251535
0.206441
0.174749
0.151401
0.133417
0.119287
0.107729
0.0983174
0.0902474
0.0835689
0.0775862
0.0726378
0.0679993
0.0642239
0.0605268
0.0575917
0.0546753
0.0524053
0.0502875
0.0484844
0.0467226
0.0450848
0.0434859
0.0420406
0.0406247
0.0393592
0.0380797
0.0369647
0.0358131
0.0348256
0.0337954
0.0329085
0.0319991
0.0311932
0.030401
0.0296683
0.0289785
0.0283093
0.0277138
0.0271124
0.0266089
0.0260696
0.0256569
0.0251996
0.024833
0.0244854
0.0241566
0.0236128
21.7962
3.38029
1.22855
0.663329
0.43641
0.320404
0.251534
0.20644
0.174748
0.1514
0.133417
0.119285
0.107731
0.0983124
0.0902527
0.0835599
0.0775965
0.0726228
0.0680158
0.0642025
0.0605484
0.0575683
0.0546951
0.0523927
0.0502999
0.0484711
0.0467176
0.0450607
0.0434829
0.0420222
0.0406269
0.039335
0.0380808
0.0369286
0.0358034
0.0347751
0.0337648
0.0328523
0.0319425
0.0311352
0.0303229
0.0295983
0.0288794
0.0282235
0.0275923
0.0269913
0.0264709
0.0259035
0.0254904
0.0249956
0.0246341
0.0242274
0.0240185
0.0231548
21.7963
3.38029
1.22854
0.663318
0.436397
0.320396
0.251515
0.206433
0.174718
0.151398
0.133371
0.119289
0.107661
0.098325
0.0901493
0.0835831
0.0774426
0.0726605
0.0677829
0.0642624
0.0602049
0.0577223
0.054313
0.0531141
0.0509065
0.0508419
0.0501594
0.0492944
0.0476179
0.0459221
0.0442494
0.0426987
0.0412344
0.0398937
0.0386362
0.0374674
0.0363558
0.0355192
0.0339955
0.0331275
0.032114
0.0311141
0.0307881
0.0292893
0.0289491
0.0286559
0.0292804
0.0290592
0.0286687
0.02875
0.0292997
0.029993
0.0310418
0.0306419
21.7962
3.38029
1.22854
0.663318
0.436396
0.320395
0.251514
0.206431
0.174718
0.151395
0.133373
0.119283
0.107667
0.0983153
0.0901605
0.083566
0.077464
0.0726299
0.0678214
0.0642117
0.0602677
0.057645
0.0544227
0.0529634
0.0511229
0.0504725
0.0493943
0.0481477
0.0464329
0.0448105
0.0431693
0.0416732
0.0402401
0.0389173
0.0377048
0.0365436
0.0355046
0.0345244
0.0336056
0.0327974
0.0320225
0.0311961
0.0305969
0.0292644
0.0287341
0.0289738
0.0281119
0.0280192
0.0280476
0.0281135
0.0283221
0.0285038
0.0299529
0.0297001
21.7963
3.38028
1.22853
0.663303
0.436396
0.320369
0.251534
0.206377
0.174767
0.151299
0.133461
0.119134
0.107803
0.0980975
0.0903524
0.0832617
0.0777181
0.0722131
0.0681327
0.063652
0.0606184
0.0569332
0.0552056
0.0547293
0.0607259
0.112669
0.111308
0.111087
0.110427
0.107528
0.104025
0.100569
0.0971273
0.0936791
0.0903245
0.0871509
0.0841839
0.0815275
0.0790941
0.0770482
0.075138
0.0736494
0.0722648
0.0711158
0.0699488
0.0688474
0.0678374
0.0667146
0.0657959
0.064705
0.0638422
0.0621751
0.0616377
0.0588322
21.7963
3.38029
1.22853
0.663303
0.436395
0.320368
0.251533
0.206376
0.174766
0.151299
0.133459
0.119134
0.1078
0.0981002
0.0903467
0.0832705
0.0777039
0.0722351
0.0681039
0.0636915
0.060562
0.0570126
0.0551297
0.0547267
0.05977
0.0878053
0.0899359
0.093918
0.0961002
0.0956082
0.0944608
0.0927682
0.0907831
0.0885891
0.0862944
0.0840363
0.0817991
0.0797627
0.0777904
0.0761591
0.074563
0.0733621
0.0721845
0.071252
0.0702393
0.06924
0.0683113
0.0671286
0.0663304
0.0650009
0.0642405
0.062828
0.0620028
0.0599385
21.7963
3.38028
1.22852
0.663296
0.436394
0.320359
0.251537
0.206359
0.174779
0.151267
0.133484
0.119082
0.107842
0.0980197
0.0904101
0.083151
0.0777891
0.0720759
0.0681735
0.0635047
0.060753
0.0556745
0.0569634
0.0614178
0.294067
0.363823
0.184491
0.158521
0.125245
0.106903
0.0984608
0.0934241
0.0890693
0.0848495
0.0807945
0.0769895
0.0734294
0.0701294
0.0670057
0.0641036
0.0613233
0.0587379
0.0562539
0.0538954
0.051651
0.0494496
0.0474777
0.0454257
0.0436989
0.0417266
0.0402259
0.0383723
0.0370303
0.03533
21.7963
3.38028
1.22852
0.663296
0.436394
0.320356
0.25154
0.206351
0.174787
0.151252
0.133503
0.119054
0.107877
0.097972
0.0904689
0.083078
0.0778768
0.0719696
0.0683
0.0634083
0.0605311
0.0566282
0.0560723
0.0596938
0.201323
0.306523
0.187127
0.121887
0.105271
0.0973814
0.0929552
0.0897276
0.0864865
0.0830418
0.0795453
0.0761625
0.072908
0.0698524
0.0668924
0.0641543
0.0614472
0.0589679
0.0564816
0.0542256
0.0519505
0.0498524
0.0478416
0.0458438
0.0440728
0.0421221
0.0406242
0.0387495
0.0374756
0.0357496
21.7963
3.38028
1.22852
0.663291
0.436392
0.320357
0.251539
0.206355
0.174783
0.15126
0.133492
0.119071
0.107854
0.0980035
0.0904259
0.0831314
0.0778076
0.0720429
0.0682385
0.0633599
0.0609045
0.0562581
0.0553503
0.106076
0.174984
0.182877
0.156779
0.124406
0.107466
0.0995595
0.0947383
0.090583
0.086613
0.0828736
0.0793944
0.0761834
0.0732741
0.0706163
0.0682954
0.0661566
0.064362
0.0626601
0.0613164
0.059987
0.0590005
0.0579893
0.0572708
0.0565152
0.0559065
0.0553012
0.0546939
0.0538825
0.0523262
21.7962
3.38028
1.22852
0.663292
0.436391
0.320358
0.251534
0.20636
0.174772
0.151274
0.13347
0.119099
0.107816
0.0980482
0.0903757
0.0831826
0.0777622
0.072084
0.0681879
0.0634723
0.0607326
0.0559909
0.0573567
0.111011
0.194002
0.194297
0.136485
0.118371
0.107343
0.101004
0.0968315
0.0931621
0.0895728
0.0861343
0.0829034
0.0798926
0.0771607
0.0746378
0.0724541
0.0703903
0.068714
0.0670443
0.0658001
0.0644177
0.06345
0.0622946
0.0615109
0.0604937
0.059716
0.0587595
0.0575456
0.056563
0.0543674
21.7962
3.38028
1.22851
0.663293
0.436392
0.320367
0.251534
0.206376
0.174769
0.151296
0.133464
0.119128
0.107807
0.0980893
0.0903566
0.0832536
0.0777165
0.072212
0.0681185
0.0636558
0.0605986
0.0569424
0.0551468
0.0582566
0.106741
0.109681
0.111862
0.112217
0.110781
0.108337
0.10396
0.0996095
0.095288
0.0909735
0.0869146
0.0830518
0.0795399
0.0761967
0.073169
0.0702619
0.0676264
0.0650875
0.0627017
0.0603972
0.0580426
0.055853
0.0533402
0.0512105
0.0483635
0.0462862
0.0429669
0.0410747
0.0372287
0.0359859
21.7962
3.38028
1.22852
0.663294
0.436391
0.320368
0.25153
0.206379
0.174761
0.151304
0.133451
0.119142
0.107788
0.0981107
0.090332
0.0832799
0.0776915
0.0722352
0.0681029
0.0636764
0.0605689
0.0569697
0.0551926
0.0578407
0.0936669
0.0866978
0.089762
0.0919029
0.0918893
0.0906801
0.0884605
0.086057
0.08344
0.0805143
0.0775763
0.0745629
0.0717353
0.0688814
0.0662655
0.063603
0.061193
0.058701
0.0564305
0.0540491
0.0518027
0.0494511
0.0471003
0.0447566
0.0422307
0.0399899
0.0373336
0.0355007
0.0327844
0.0315981
21.7962
3.38028
1.22851
0.663299
0.436388
0.320394
0.251512
0.206435
0.174714
0.151401
0.133363
0.119296
0.107647
0.0983365
0.0901259
0.0836005
0.0774083
0.0726815
0.0677387
0.0642857
0.0601449
0.0577576
0.0542487
0.0530878
0.0509255
0.0504933
0.0497736
0.0488995
0.047093
0.0452896
0.0436006
0.0419461
0.0404708
0.0390122
0.0377445
0.0364607
0.0353742
0.034229
0.0332891
0.0322487
0.0314285
0.0304679
0.0297453
0.0288465
0.0282029
0.0273567
0.0267814
0.0259874
0.0254748
0.024727
0.0242753
0.0235458
0.023229
0.0222801
21.7962
3.38028
1.22851
0.663299
0.436388
0.320392
0.251513
0.20643
0.174718
0.151393
0.133373
0.11928
0.107667
0.0983096
0.0901606
0.0835578
0.0774614
0.0726212
0.0678118
0.064204
0.0602484
0.0576447
0.0543703
0.0529936
0.0509712
0.0504778
0.0492068
0.047734
0.0460294
0.0443257
0.0427213
0.0411428
0.0397211
0.0383163
0.0370822
0.0358363
0.0347705
0.0336604
0.0327398
0.0317405
0.0309442
0.0300335
0.0293428
0.0285013
0.0278988
0.0271131
0.0265857
0.0258492
0.0253847
0.0246892
0.024283
0.0236014
0.0233244
0.0224115
21.7962
3.38028
1.22852
0.663305
0.436401
0.320402
0.251534
0.20644
0.174748
0.1514
0.133415
0.119286
0.107724
0.0983157
0.0902389
0.0835657
0.0775735
0.0726304
0.0679827
0.0642086
0.0605074
0.0575681
0.0546555
0.0523663
0.0502626
0.0484175
0.0466732
0.0449977
0.0434431
0.0419539
0.040597
0.0392531
0.0380351
0.0368086
0.0357199
0.0346047
0.0336403
0.0326283
0.0317793
0.0308565
0.0301104
0.029262
0.0286072
0.0278194
0.0272438
0.0265054
0.0259984
0.0253021
0.0248536
0.024189
0.023797
0.023141
0.0228598
0.0219651
21.7962
3.38028
1.22852
0.663306
0.436401
0.3204
0.251534
0.206437
0.174751
0.151395
0.13342
0.119278
0.107734
0.0983028
0.0902549
0.0835469
0.0775968
0.0726061
0.0680126
0.0641817
0.0605406
0.0575437
0.0546819
0.052358
0.0502721
0.0484227
0.0466733
0.0449919
0.0434327
0.0419428
0.0405782
0.039233
0.03801
0.0367826
0.0356915
0.0345762
0.0336113
0.0325986
0.0317493
0.0308255
0.0300791
0.0292312
0.0285744
0.0277915
0.0272099
0.0264835
0.0259654
0.0252872
0.0248246
0.0241842
0.023776
0.0231467
0.0228708
0.0219724
21.7962
3.38028
1.22852
0.663313
0.436415
0.320413
0.251558
0.206451
0.174784
0.151408
0.133466
0.11929
0.107797
0.0983164
0.0903391
0.0835658
0.0777101
0.072637
0.068164
0.0642333
0.0607269
0.0576164
0.0548397
0.052369
0.0501799
0.0481798
0.0463557
0.0446285
0.0430521
0.0415456
0.0401731
0.0388291
0.0376139
0.0364032
0.0353305
0.0342406
0.0332966
0.0323109
0.0314771
0.0305784
0.029839
0.029015
0.0283572
0.0275979
0.0270108
0.026307
0.025782
0.0251262
0.0246584
0.0240482
0.0236294
0.0230801
0.022609
0.0220596
21.7962
3.38029
1.22852
0.663314
0.436415
0.320413
0.251556
0.20645
0.174783
0.151408
0.133465
0.11929
0.107797
0.0983157
0.0903404
0.0835645
0.0777125
0.0726354
0.0681666
0.0642325
0.0607277
0.0576177
0.0548368
0.052371
0.050174
0.0481822
0.0463527
0.0446364
0.0430535
0.0415538
0.040174
0.0388353
0.0376161
0.0364097
0.0353366
0.0342468
0.033306
0.0323143
0.0314898
0.0305793
0.0298563
0.029015
0.0283786
0.0275998
0.0270347
0.0263144
0.0258075
0.0251405
0.0246862
0.0240671
0.0236565
0.0231015
0.0226434
0.022093
21.7962
3.38029
1.22853
0.663326
0.436431
0.32043
0.251578
0.206471
0.174811
0.151433
0.133502
0.119321
0.107843
0.0983554
0.0903992
0.0836167
0.0777873
0.0727051
0.0682605
0.0643224
0.0608385
0.0577184
0.0549428
0.0524378
0.0501991
0.0481528
0.0462918
0.044547
0.0429516
0.0414352
0.0400529
0.038711
0.0375008
0.036298
0.0352373
0.0341509
0.0332215
0.0322316
0.0314154
0.0305063
0.0297865
0.0289475
0.0283098
0.0275344
0.0269669
0.0262489
0.0257419
0.0250725
0.0246224
0.0239944
0.0236003
0.0229878
0.0227238
0.0218036
21.7962
3.38029
1.22853
0.663327
0.436431
0.32043
0.251577
0.206471
0.17481
0.151433
0.1335
0.119321
0.107842
0.0983567
0.090398
0.0836189
0.0777864
0.0727084
0.0682599
0.0643273
0.0608379
0.0577251
0.0549408
0.0524452
0.0501951
0.048161
0.0462882
0.0445587
0.0429499
0.0414477
0.0400508
0.0387235
0.0375002
0.0363121
0.0352396
0.0341654
0.0332258
0.0322449
0.0314217
0.0305182
0.0297958
0.0289592
0.0283228
0.0275473
0.0269838
0.0262645
0.0257624
0.0250929
0.0246446
0.0240189
0.0236148
0.0230422
0.022596
0.0220253
21.7962
3.38029
1.22853
0.663337
0.436446
0.320449
0.2516
0.206495
0.174837
0.151463
0.133534
0.119359
0.107883
0.0984031
0.0904489
0.0836771
0.0778498
0.0727801
0.0683372
0.0644111
0.0609249
0.0578111
0.05502
0.0525072
0.0502363
0.0481682
0.0462749
0.0445222
0.0429045
0.0413877
0.0399879
0.0386538
0.0374304
0.0362395
0.0351661
0.03409
0.0331503
0.032167
0.0313469
0.0304382
0.0297218
0.028876
0.0282488
0.0274609
0.0269101
0.0261761
0.0256875
0.0250011
0.0245626
0.0239123
0.023524
0.022883
0.0226124
0.0217061
21.7962
3.38029
1.22854
0.663338
0.436446
0.320448
0.251599
0.206494
0.174837
0.151462
0.133534
0.119358
0.107883
0.0984026
0.0904497
0.0836772
0.0778507
0.0727813
0.0683377
0.064414
0.060925
0.057816
0.0550188
0.0525144
0.0502332
0.0481769
0.0462706
0.0445341
0.0429009
0.0414023
0.0399851
0.0386694
0.0374293
0.0362554
0.035168
0.0341065
0.0331553
0.0321837
0.0313535
0.0304552
0.02973
0.0288947
0.0282598
0.0274819
0.0269246
0.0261975
0.0257057
0.0250228
0.0245834
0.023941
0.0235385
0.0229445
0.0225246
0.0219393
21.7961
3.38029
1.22854
0.663351
0.436464
0.320469
0.251622
0.206519
0.174864
0.151492
0.133567
0.119394
0.107923
0.0984469
0.0904979
0.0837301
0.0779091
0.0728426
0.0684069
0.0644802
0.0610012
0.0578772
0.0550912
0.0525541
0.0502833
0.0481797
0.0462904
0.0445027
0.042897
0.0413495
0.0399642
0.0386073
0.0373979
0.0361948
0.0351293
0.034052
0.0331098
0.0321361
0.031303
0.0304127
0.0296764
0.0288535
0.0282039
0.0274382
0.0268653
0.0261486
0.0256442
0.024967
0.0245188
0.0238747
0.0234789
0.0228392
0.0225629
0.0216976
21.7961
3.3803
1.22855
0.663353
0.436464
0.320468
0.25162
0.206518
0.174863
0.151492
0.133566
0.119394
0.107922
0.0984476
0.0904972
0.0837316
0.0779083
0.0728453
0.0684056
0.0644849
0.0609987
0.0578849
0.0550871
0.0525642
0.0502768
0.0481918
0.046282
0.0445168
0.0428899
0.041365
0.0399601
0.0386222
0.0373976
0.0362074
0.035134
0.0340623
0.0331195
0.0321447
0.0313156
0.0304218
0.0296901
0.0288665
0.0282178
0.0274556
0.0268794
0.0261695
0.0256584
0.0249902
0.0245369
0.0239015
0.0234995
0.0228782
0.0225998
0.0217112
21.7961
3.3803
1.22855
0.663364
0.436481
0.320488
0.251643
0.206543
0.174889
0.151522
0.133597
0.11943
0.107959
0.0984894
0.0905401
0.0837805
0.0779579
0.0729004
0.068461
0.0645427
0.0610562
0.0579379
0.0551383
0.0526005
0.0503115
0.0482013
0.0462948
0.0445006
0.0428849
0.04133
0.0399433
0.0385763
0.0373741
0.0361572
0.0351057
0.0340106
0.0330854
0.0320922
0.0312753
0.0303687
0.0296445
0.028811
0.0281661
0.0273951
0.0268192
0.0261033
0.0255893
0.0249192
0.0244635
0.0238319
0.0234187
0.0228432
0.0223973
0.0218407
21.7961
3.3803
1.22856
0.663366
0.436481
0.320488
0.251641
0.206543
0.174888
0.151521
0.133596
0.11943
0.107959
0.0984891
0.0905413
0.0837797
0.0779604
0.0728993
0.0684648
0.0645416
0.0610611
0.0579374
0.0551436
0.0526009
0.0503171
0.0482016
0.0463015
0.0445014
0.0428936
0.0413323
0.0399541
0.0385804
0.0373856
0.0361637
0.0351167
0.0340208
0.0330964
0.0321068
0.0312871
0.0303865
0.0296578
0.0288314
0.0281824
0.0274184
0.0268401
0.0261289
0.0256148
0.0249475
0.0244916
0.0238592
0.0234604
0.0228451
0.022569
0.0216705
21.7961
3.3803
1.22857
0.66338
0.436498
0.320508
0.251664
0.206566
0.174914
0.151549
0.133625
0.119461
0.107992
0.0985258
0.0905786
0.083822
0.0780012
0.0729463
0.0685074
0.0645906
0.0611021
0.0579825
0.0551768
0.0526352
0.0503347
0.04822
0.0462999
0.0445048
0.0428745
0.0413249
0.0399219
0.0385657
0.0373464
0.0361431
0.0350765
0.0339942
0.0330577
0.0320737
0.0312496
0.0303479
0.0296202
0.0287882
0.0281436
0.0273713
0.0267969
0.0260773
0.0255644
0.0248936
0.0244379
0.0237993
0.0234048
0.0227835
0.0225071
0.0216047
21.7961
3.38031
1.22857
0.663382
0.436498
0.320508
0.251663
0.206566
0.174912
0.151548
0.133624
0.119461
0.107991
0.0985263
0.0905785
0.0838225
0.0780022
0.0729465
0.0685099
0.0645903
0.0611062
0.0579817
0.0551833
0.0526334
0.0503429
0.0482176
0.0463099
0.0445021
0.0428871
0.0413234
0.0399362
0.0385669
0.0373595
0.0361491
0.035086
0.0340069
0.0330639
0.0320925
0.0312552
0.0303696
0.0296286
0.0288106
0.0281564
0.027395
0.0268138
0.0261046
0.0255846
0.0249234
0.0244591
0.0238362
0.0234322
0.0228143
0.0225424
0.0216407
21.7961
3.38031
1.22858
0.663396
0.436517
0.320528
0.251685
0.206589
0.174938
0.151575
0.133653
0.119491
0.108023
0.09856
0.0906126
0.0838601
0.0780376
0.0729874
0.0685444
0.0646325
0.0611363
0.058022
0.0552035
0.0526669
0.0503483
0.0482415
0.0462975
0.044518
0.0428584
0.0413333
0.0398956
0.0385711
0.0373137
0.0361458
0.0350417
0.0339941
0.0330232
0.0320707
0.0312147
0.0303424
0.029584
0.0287801
0.0281093
0.0273561
0.0267669
0.026052
0.025537
0.0248618
0.0244038
0.0237714
0.0233653
0.0227365
0.0224596
0.0215609
21.7961
3.38032
1.22858
0.663398
0.436517
0.320528
0.251684
0.206589
0.174936
0.151576
0.133651
0.119492
0.108021
0.0985617
0.0906113
0.0838618
0.0780377
0.0729884
0.0685471
0.064632
0.0611423
0.0580194
0.0552129
0.0526622
0.0503615
0.0482348
0.0463141
0.0445106
0.0428769
0.0413279
0.0399135
0.0385709
0.0373274
0.0361537
0.0350484
0.0340113
0.033025
0.0320941
0.0312187
0.0303641
0.0295986
0.0287943
0.028136
0.0273655
0.0268004
0.0260652
0.0255727
0.0248817
0.024444
0.0237926
0.0234047
0.0227668
0.022496
0.02162
21.796
3.38033
1.2286
0.663418
0.436536
0.320546
0.251703
0.206608
0.174957
0.151594
0.133674
0.119512
0.108047
0.0985832
0.0906397
0.083885
0.0780677
0.0730131
0.0685765
0.0646569
0.0611684
0.0580417
0.0552322
0.0526786
0.0503706
0.0482423
0.0463131
0.0445087
0.0428681
0.0413174
0.0399001
0.0385519
0.0373133
0.0361266
0.0350367
0.0339776
0.0330142
0.0320586
0.0312015
0.0303343
0.0295673
0.0287732
0.0280902
0.0273452
0.0267521
0.0260342
0.0255284
0.0248387
0.0243975
0.0237435
0.0233516
0.0227184
0.0224403
0.0215568
21.796
3.38034
1.22861
0.66342
0.436536
0.320545
0.251702
0.206607
0.174956
0.151595
0.133672
0.119513
0.108045
0.0985845
0.0906385
0.0838868
0.0780673
0.073015
0.0685774
0.0646588
0.0611706
0.0580436
0.0552359
0.0526809
0.0503749
0.0482465
0.0463171
0.0445155
0.0428713
0.0413274
0.0399022
0.0385657
0.0373134
0.0361447
0.0350344
0.0339998
0.0330111
0.0320826
0.0312026
0.0303553
0.0295782
0.0287879
0.0281112
0.0273579
0.0267769
0.0260541
0.0255522
0.0248676
0.0244191
0.0237769
0.0233713
0.0227842
0.0223337
0.0217856
21.7959
3.38041
1.22867
0.663477
0.436588
0.320591
0.251745
0.206645
0.174995
0.151628
0.13371
0.119543
0.108082
0.098613
0.0906756
0.0839147
0.0781032
0.073043
0.0686099
0.0646865
0.0611971
0.05807
0.0552539
0.052703
0.0503833
0.0482617
0.0463158
0.0445231
0.0428622
0.0413277
0.0398868
0.0385591
0.0372931
0.0361307
0.0350106
0.033979
0.0329844
0.0320578
0.0311697
0.0303349
0.0295324
0.028783
0.0280501
0.027374
0.0267149
0.0260864
0.0255191
0.0249085
0.0244333
0.0238412
0.0234506
0.0229055
0.022506
0.0219873
21.7959
3.38041
1.22867
0.663478
0.436587
0.320591
0.251743
0.206645
0.174993
0.151628
0.133708
0.119545
0.108081
0.0986156
0.0906741
0.0839178
0.0781022
0.0730464
0.0686096
0.0646902
0.0611979
0.0580738
0.0552556
0.0527075
0.0503863
0.0482673
0.0463197
0.0445303
0.0428658
0.0413371
0.0398896
0.0385711
0.0372951
0.0361446
0.035014
0.0339914
0.0329939
0.0320635
0.0311924
0.0303295
0.029571
0.0287684
0.0281003
0.0273592
0.0267673
0.0260804
0.0255624
0.024918
0.0244676
0.0238669
0.0234738
0.0229387
0.0225399
0.0220182
21.7962
3.38022
1.2284
0.663198
0.43632
0.320334
0.251505
0.20642
0.174795
0.15144
0.133527
0.119361
0.1079
0.098428
0.0904904
0.0837254
0.0779152
0.0728497