/*--------------------------------*- C++ -*----------------------------------*\
| =========                 |                                                 |
| \\      /  F ield         | OpenFOAM: The Open Source CFD Toolbox           |
|  \\    /   O peration     | Version:  4.1                                   |
|   \\  /    A nd           | Web:      www.OpenFOAM.org                      |
|    \\/     M anipulation  |                                                 |
\*---------------------------------------------------------------------------*/
FoamFile
{
    version     2.0;
    format      ascii;
    class       volScalarField;
    location    "68";
    object      p;
}
// * * * * * * * * * * * * * * * * * * * * * * * * * * * * * * * * * * * * * //

dimensions      [0 2 -2 0 0 0 0];

internalField   nonuniform List<scalar> 
4432
(
100972
100972
100973
100975
100978
100982
100986
100991
100997
101003
101011
101019
101027
101035
101044
101052
101059
101065
101070
101081
101096
101114
101134
101155
101179
101204
101227
101246
101259
101270
101278
101285
101293
101303
101312
101313
101310
101315
101320
101323
101325
101327
101331
101335
101336
101337
101329
101328
101332
101321
101290
101269
101266
101275
100972
100972
100973
100975
100978
100982
100986
100991
100997
101003
101011
101019
101027
101035
101044
101052
101059
101065
101070
101080
101097
101115
101135
101157
101181
101206
101228
101246
101260
101271
101281
101287
101294
101302
101310
101312
101311
101313
101318
101324
101327
101328
101329
101331
101334
101342
101335
101324
101324
101318
101293
101276
101257
101269
100971
100971
100971
100973
100976
100979
100983
100988
100994
101001
101008
101016
101025
101035
101046
101059
101076
101095
101110
101119
101131
101147
101164
101180
101196
101212
101228
101245
101261
101275
101286
101293
101297
101298
101298
101295
101296
101304
101313
101322
101323
101320
101323
101330
101335
101337
101336
101334
101332
101324
101312
101294
101206
101292
100971
100971
100971
100973
100976
100979
100983
100988
100994
101001
101008
101016
101025
101035
101045
101058
101075
101095
101110
101120
101131
101146
101162
101177
101193
101209
101226
101243
101259
101273
101282
101287
101291
101298
101300
101299
101299
101305
101314
101323
101325
101322
101324
101331
101335
101337
101336
101333
101333
101328
101311
101293
101195
101292
100969
100969
100970
100972
100975
100978
100982
100987
100993
101000
101007
101015
101024
101034
101044
101057
101071
101084
101097
101111
101127
101144
101160
101176
101192
101210
101229
101248
101266
101283
101294
101301
101310
101315
101308
101296
101296
101308
101323
101333
101328
101320
101325
101335
101341
101343
101345
101339
101329
101316
101308
101299
101293
101322
100969
100969
100970
100972
100975
100978
100982
100987
100993
101000
101007
101015
101024
101034
101044
101057
101071
101084
101097
101111
101127
101143
101159
101174
101191
101209
101227
101246
101264
101281
101292
101297
101303
101309
101310
101302
101302
101310
101320
101329
101329
101323
101327
101336
101340
101342
101343
101341
101331
101319
101308
101293
101284
101335
100967
100967
100968
100970
100973
100976
100980
100984
100990
100997
101004
101012
101021
101030
101040
101052
101064
101077
101090
101105
101122
101139
101155
101171
101189
101211
101233
101254
101276
101295
101309
101322
101340
101340
101320
101287
101282
101300
101320
101337
101327
101316
101327
101339
101346
101349
101352
101346
101333
101313
101299
101299
101302
101291
100967
100967
100968
100970
100973
100976
100980
100984
100990
100997
101004
101012
101021
101030
101040
101052
101064
101077
101090
101105
101122
101139
101155
101170
101189
101211
101233
101254
101276
101295
101308
101320
101335
101336
101323
101302
101298
101308
101323
101332
101326
101319
101327
101338
101346
101350
101350
101345
101331
101315
101304
101301
101290
101284
100964
100964
100965
100967
100970
100973
100977
100981
100987
100993
101000
101008
101017
101026
101036
101047
101059
101071
101083
101096
101112
101129
101146
101163
101184
101210
101237
101263
101289
101311
101327
101347
101367
101370
101396
101259
101263
101289
101315
101347
101340
101318
101333
101345
101352
101356
101352
101350
101347
101332
101318
101295
101290
101328
100964
100964
100965
100967
100970
100973
100977
100981
100987
100993
101000
101008
101017
101026
101036
101047
101059
101071
101083
101096
101111
101128
101146
101163
101185
101211
101237
101263
101291
101314
101329
101345
101362
101360
101349
101306
101288
101301
101324
101347
101344
101326
101332
101342
101350
101355
101356
101353
101343
101329
101313
101306
101280
101314
100960
100961
100962
100963
100966
100969
100973
100977
100983
100989
100996
101003
101012
101020
101030
101040
101051
101063
101075
101088
101103
101119
101135
101152
101173
101201
101230
101260
101290
101316
101336
101359
101389
101521
101761
101375
101262
101267
101289
101298
101303
101341
101351
101353
101356
101361
101358
101357
101358
101351
101334
101300
101289
101327
100960
100961
100962
100963
100966
100969
100973
100977
100983
100989
100996
101003
101012
101020
101030
101040
101051
101063
101074
101088
101103
101119
101135
101152
101175
101202
101231
101258
101289
101316
101334
101349
101365
101405
101438
101335
101275
101282
101307
101334
101345
101337
101342
101348
101354
101357
101359
101358
101356
101346
101330
101304
101299
101338
100956
100957
100958
100959
100962
100965
100968
100973
100978
100984
100990
100998
101005
101014
101023
101033
101043
101055
101066
101078
101093
101109
101125
101139
101156
101182
101213
101241
101267
101293
101320
101355
101430
101754
101628
101560
101299
101291
101302
101307
101314
101345
101358
101360
101362
101367
101367
101364
101363
101359
101350
101320
101287
101313
100956
100957
100958
100959
100962
100965
100968
100973
100978
100984
100990
100998
101006
101014
101023
101033
101043
101054
101066
101079
101093
101109
101125
101141
101159
101184
101212
101237
101265
101293
101315
101338
101371
101448
101523
101394
101271
101274
101299
101313
101326
101340
101351
101357
101360
101362
101359
101359
101360
101356
101342
101317
101306
101314
100952
100952
100953
100955
100957
100960
100963
100967
100972
100978
100984
100991
100999
101007
101015
101025
101035
101046
101057
101069
101083
101097
101111
101124
101135
101154
101182
101206
101227
101244
101266
101297
101328
101417
101448
101372
101306
101298
101304
101314
101326
101340
101352
101359
101361
101365
101364
101359
101357
101357
101356
101334
101299
101313
100952
100952
100953
100955
100957
100960
100963
100967
100972
100978
100984
100991
100999
101007
101015
101025
101035
101046
101057
101070
101083
101097
101111
101125
101138
101157
101181
101202
101223
101246
101265
101290
101328
101368
101411
101350
101292
101291
101306
101322
101333
101341
101349
101355
101361
101363
101359
101355
101356
101358
101354
101330
101302
101318
100947
100947
100948
100949
100952
100954
100957
100961
100966
100971
100977
100984
100991
100998
101007
101016
101026
101037
101048
101059
101071
101083
101094
101105
101113
101121
101140
101161
101184
101206
101227
101251
101287
101319
101350
101318
101297
101298
101308
101315
101326
101337
101350
101360
101364
101363
101358
101351
101349
101354
101359
101343
101315
101322
100947
100947
100948
100949
100952
100954
100957
100961
100966
100971
100977
100984
100991
100998
101007
101016
101026
101037
101048
101059
101071
101082
101093
101103
101113
101123
101140
101161
101181
101203
101225
101252
101288
101320
101345
101333
101315
101310
101316
101327
101338
101344
101348
101355
101363
101364
101358
101351
101352
101359
101358
101337
101313
101329
100941
100941
100942
100943
100946
100948
100951
100954
100959
100964
100969
100975
100982
100989
100997
101006
101016
101027
101038
101049
101059
101068
101075
101081
101083
101085
101097
101120
101148
101175
101201
101232
101269
101302
101336
101340
101333
101329
101331
101336
101345
101353
101361
101371
101374
101370
101359
101348
101345
101351
101359
101351
101334
101326
100941
100941
100942
100943
100946
100948
100951
100954
100959
100964
100969
100975
100982
100989
100997
101006
101016
101027
101038
101049
101059
101068
101075
101079
101081
101085
101098
101122
101147
101173
101201
101232
101268
101305
101336
101345
101343
101342
101347
101353
101359
101361
101363
101368
101375
101373
101360
101350
101348
101353
101357
101350
101334
101336
100935
100935
100936
100937
100939
100941
100944
100947
100951
100955
100961
100966
100973
100979
100987
100996
101006
101016
101027
101038
101048
101055
101058
101054
101045
101040
101054
101085
101120
101153
101186
101222
101260
101299
101335
101357
101368
101378
101387
101393
101396
101396
101393
101391
101388
101382
101370
101353
101341
101344
101354
101351
101326
101287
100935
100935
100936
100937
100939
100941
100944
100947
100951
100955
100961
100966
100973
100979
100987
100996
101006
101016
101027
101038
101048
101055
101057
101053
101043
101040
101056
101087
101120
101152
101186
101223
101262
101301
101335
101356
101369
101383
101395
101404
101406
101404
101397
101392
101390
101384
101370
101353
101345
101348
101354
101351
101319
101295
100929
100929
100929
100930
100932
100934
100936
100939
100942
100946
100951
100956
100962
100969
100976
100984
100994
101005
101017
101029
101040
101047
101046
101030
100995
100976
100997
101042
101086
101124
101163
101205
101248
101292
101333
101367
101396
101421
101440
101448
101444
101433
101419
101406
101395
101387
101376
101359
101341
101335
101340
101342
101322
101296
100929
100929
100929
100930
100932
100934
100936
100939
100942
100946
100951
100956
100962
100969
100976
100984
100994
101005
101017
101029
101040
101046
101045
101028
100992
100975
100999
101043
101085
101123
101163
101206
101250
101293
101333
101367
101397
101423
101443
101452
101449
101437
101422
101408
101398
101389
101376
101357
101343
101339
101344
101344
101317
101318
100922
100922
100922
100923
100925
100926
100928
100931
100933
100937
100941
100946
100951
100957
100963
100972
100981
100993
101006
101021
101037
101047
101045
101014
100932
100892
100923
100988
101045
101089
101133
101180
101229
101281
101333
101383
101428
101464
101488
101493
101480
101458
101436
101420
101407
101395
101382
101364
101344
101330
101325
101325
101313
101294
100922
100922
100922
100923
100925
100926
100928
100931
100933
100937
100941
100946
100951
100957
100963
100971
100981
100993
101006
101021
101036
101047
101043
101007
100920
100887
100931
100995
101047
101090
101133
101181
101230
101281
101333
101384
101430
101466
101491
101494
101480
101459
101438
101422
101409
101397
101381
101361
101343
101332
101328
101326
101311
101291
100915
100915
100915
100916
100917
100918
100920
100922
100924
100927
100930
100934
100938
100943
100949
100957
100966
100978
100994
101014
101040
101068
101085
101030
100853
100738
100823
100935
101004
101049
101095
101147
101203
101263
101330
101397
101459
101506
101540
101541
101515
101480
101451
101433
101418
101403
101386
101366
101344
101325
101314
101311
101303
101292
100915
100915
100915
100916
100917
100918
100920
100922
100924
100927
100930
100934
100938
100943
100949
100957
100966
100978
100994
101014
101039
101068
101083
101022
100818
100745
100839
100936
101003
101051
101097
101148
101202
101263
101330
101395
101460
101506
101557
101554
101519
101478
101447
101429
101415
101401
101384
101363
101341
101324
101315
101311
101306
101288
100908
100908
100908
100908
100909
100910
100911
100912
100914
100916
100919
100921
100925
100929
100934
100940
100949
100960
100976
100999
101036
101102
101170
101174
100658
100446
100655
100882
100969
101000
101045
101101
101163
101234
101315
101401
101484
101538
101601
101605
101555
101493
101454
101434
101417
101399
101381
101362
101341
101321
101308
101302
101298
101288
100908
100908
100908
100908
100909
100910
100911
100912
100914
100916
100919
100921
100925
100929
100934
100940
100949
100960
100976
100999
101036
101100
101165
101153
100505
100568
100736
100894
100969
101008
101052
101104
101163
101233
101318
101407
101497
101520
101598
101607
101549
101486
101451
101433
101416
101398
101379
101358
101337
101319
101308
101303
101302
101286
100900
100900
100900
100900
100901
100901
100902
100903
100903
100905
100906
100908
100910
100913
100917
100921
100928
100937
100950
100969
100998
101045
101163
101439
100440
100656
100862
100933
100944
100977
101030
101095
101177
101278
101388
101505
101543
101613
101663
101598
101508
101457
101429
101406
101384
101366
101349
101331
101314
101301
101292
101292
101279
100900
100900
100900
100900
100901
100901
100902
100903
100903
100905
100906
100908
100910
100913
100916
100921
100928
100937
100950
100969
100998
101043
101159
101423
100388
100685
100870
100938
100957
100989
101037
101098
101178
101268
101397
101514
101501
101487
101635
101583
101504
101457
101427
101401
101379
101361
101345
101329
101313
101301
101294
101294
101281
100893
100893
100892
100892
100893
100893
100893
100893
100893
100893
100894
100894
100895
100896
100898
100900
100903
100908
100915
100923
100931
100927
100887
100809
100499
100539
100828
100957
100952
100925
100928
100954
101000
101079
101187
101302
101430
101461
101525
101703
101633
101533
101462
101413
101376
101350
101333
101322
101311
101301
101292
101284
101286
101272
100893
100893
100892
100892
100893
100893
100893
100893
100893
100893
100894
100894
100895
100896
100898
100900
100903
100908
100915
100923
100930
100926
100883
100798
100509
100606
100872
100967
100948
100925
100932
100958
101001
101068
101126
101297
101305
101547
101486
101502
101524
101496
101453
101410
101375
101349
101332
101320
101310
101300
101292
101285
101286
101275
100885
100885
100885
100885
100884
100884
100883
100883
100882
100881
100881
100880
100879
100878
100878
100877
100877
100877
100877
100875
100867
100848
100813
100745
100680
100696
100842
100913
100916
100906
100896
100888
100898
100957
101128
101297
101270
101482
101763
101562
101516
101484
101425
101369
101329
101305
101293
101287
101285
101283
101282
101281
101289
101275
100885
100885
100885
100885
100884
100884
100883
100883
100882
100881
100881
100880
100879
100878
100878
100877
100877
100877
100877
100874
100867
100848
100812
100745
100676
100710
100852
100914
100910
100897
100887
100883
100892
100929
100984
101212
101011
101401
101864
100895
101318
101457
101427
101374
101332
101308
101294
101287
101284
101282
101281
101281
101287
101274
100878
100878
100877
100877
100876
100875
100874
100873
100871
100870
100868
100866
100863
100860
100857
100854
100850
100845
100839
100831
100818
100798
100771
100732
100690
100687
100736
100788
100818
100830
100826
100810
100790
100792
100906
101170
102206
101374
100495
100825
101320
101436
101382
101319
101279
101260
101253
101251
101253
101258
101263
101268
101285
101275
100878
100878
100877
100877
100876
100875
100874
100873
100871
100870
100868
100866
100863
100860
100857
100854
100850
100845
100839
100831
100818
100798
100770
100733
100691
100694
100743
100789
100811
100817
100814
100801
100791
100720
100875
101204
101704
99595.8
100067
99559.9
100329
101259
101376
101326
101282
101261
101254
101252
101253
101257
101262
101269
101286
101279
100871
100871
100870
100869
100868
100867
100865
100863
100861
100858
100855
100851
100847
100842
100837
100830
100823
100814
100804
100790
100773
100752
100725
100692
100660
100645
100658
100683
100700
100710
100710
100703
100604
100667
100737
99745.6
99048.2
98645.1
98779.4
99404.4
100324
101171
101297
101232
101206
101201
101204
101211
101220
101229
101237
101244
101260
101253
100871
100871
100870
100869
100868
100867
100865
100863
100861
100858
100855
100851
100847
100842
100837
100830
100823
100814
100804
100790
100773
100752
100725
100693
100662
100649
100661
100683
100696
100701
100704
100705
100718
100751
100692
100281
102179
99259.4
98937.4
99031.5
99698.6
100666
101213
101239
101204
101196
101202
101211
101221
101229
101236
101243
101268
101270
100864
100864
100863
100862
100860
100859
100856
100853
100850
100847
100842
100837
100831
100825
100817
100808
100797
100785
100770
100753
100732
100707
100678
100646
100615
100592
100582
100579
100574
100577
100583
100621
100376
100598
101042
100436
98479.4
98382
98945.9
99432.9
99982.2
100695
101060
101096
101116
101133
101151
101170
101190
101210
101225
101233
101251
101268
100864
100864
100863
100862
100861
100859
100856
100853
100850
100847
100842
100837
100832
100825
100817
100808
100797
100785
100770
100753
100732
100707
100678
100646
100615
100592
100582
100578
100571
100569
100573
100628
100600
100676
100954
99701.2
99818.6
98785.8
99143.3
99546.2
100134
100672
100921
101038
101107
101132
101150
101170
101192
101209
101220
101230
101243
101245
100858
100857
100856
100855
100853
100851
100848
100844
100840
100836
100830
100824
100816
100808
100798
100786
100772
100757
100738
100717
100692
100663
100630
100594
100556
100520
100489
100462
100439
100440
100475
100743
100531
99625.5
99673.7
99324.3
98438.7
98644.6
99245.8
99745.7
100066
100341
100847
100972
101035
101069
101097
101128
101160
101193
101219
101235
101265
101284
100858
100857
100856
100855
100853
100851
100848
100844
100840
100836
100830
100824
100816
100808
100797
100786
100772
100756
100738
100717
100692
100663
100630
100594
100556
100520
100488
100461
100433
100415
100391
100462
100721
99902.5
96114.5
96626.6
98064.9
98628.4
99327.1
99871
100278
100460
100701
100918
101031
101072
101099
101128
101161
101193
101217
101230
101244
101267
100852
100851
100850
100849
100846
100844
100840
100836
100831
100826
100819
100811
100802
100792
100779
100765
100749
100730
100708
100683
100653
100619
100580
100537
100489
100438
100386
100333
100285
100267
100375
100597
100837
99756.8
98025.4
97844.4
98302.4
98879.8
99337.3
99600.6
99852.1
100073
100524
100861
100970
101011
101043
101081
101125
101165
101200
101224
101252
101260
100852
100851
100850
100849
100847
100844
100840
100836
100831
100826
100819
100811
100802
100792
100779
100765
100749
100730
100708
100683
100653
100619
100580
100537
100489
100438
100385
100332
100275
100234
100164
100432
100600
99635.1
96945.4
97453.6
98284.9
98932.2
99382.9
99641.3
99945.8
100178
100481
100820
100962
101011
101045
101082
101124
101165
101202
101224
101252
101274
100846
100846
100845
100843
100840
100837
100833
100828
100823
100816
100809
100800
100789
100777
100763
100746
100727
100706
100680
100651
100616
100577
100531
100479
100419
100352
100277
100185
100092
99887.1
100164
100215
100474
92039.7
94088.1
97089.8
98487.8
99224.6
99372.7
99310
99527.8
99934
100398
100730
100870
100938
100984
101031
101083
101133
101185
101217
101246
101268
100846
100846
100845
100843
100840
100837
100833
100828
100823
100816
100809
100800
100789
100777
100763
100746
100727
100706
100680
100651
100616
100577
100531
100479
100419
100352
100277
100190
100086
99951.1
99861.2
99959.5
98010.8
97175.1
97117
97818.6
98749.7
99352.3
99404.9
99279.2
99537.7
100005
100427
100723
100864
100936
100986
101033
101083
101132
101182
101218
101237
101235
100842
100841
100840
100838
100835
100831
100827
100822
100815
100808
100800
100790
100778
100764
100748
100730
100708
100683
100655
100621
100582
100537
100484
100423
100352
100268
100169
100040
99878.7
99562.7
99077.2
100375
96196
93064.1
95611.4
98115
99596.4
100062
99685.2
99260.7
99411
99847.2
100282
100593
100756
100862
100926
100981
101038
101096
101158
101211
101250
101272
100842
100841
100840
100838
100835
100831
100827
100822
100815
100808
100800
100790
100778
100764
100748
100730
100708
100683
100655
100621
100582
100537
100484
100423
100351
100268
100168
100052
99890
99651.5
99350.2
99006.9
96641.6
94637.7
96814.3
98606.5
99846.4
100190
99705.7
99213.7
99395.7
99916.9
100347
100595
100751
100856
100926
100984
101038
101090
101151
101208
101245
101274
100838
100837
100836
100833
100830
100826
100822
100816
100809
100801
100792
100781
100768
100753
100735
100715
100691
100664
100632
100595
100552
100502
100442
100372
100290
100190
100068
99915.3
99707.4
99418.6
98859.1
98589.1
100093
100204
99787.4
100484
101263
101091
100106
99242.2
99261.2
99701.6
100138
100470
100671
100799
100881
100939
100992
101040
101083
101144
101243
101301
100838
100837
100836
100833
100830
100826
100822
100816
100809
100801
100792
100781
100768
100753
100735
100715
100691
100664
100632
100595
100552
100502
100442
100372
100289
100189
100061
99918.8
99738.5
99503.4
99207.4
98509.1
97211
97864.4
99321.8
100644
101484
101200
100111
99195
99237.2
99750.4
100189
100470
100662
100793
100877
100941
100994
101037
101077
101113
101218
101299
100834
100834
100832
100830
100827
100822
100817
100811
100804
100795
100785
100773
100760
100744
100725
100703
100677
100648
100614
100574
100527
100472
100407
100330
100237
100125
99987.8
99818.8
99588.5
99296.1
98812.7
98227.4
98488.7
99710.6
99835.3
100544
101447
101305
100260
99152.7
99090
99582.1
100094
100431
100621
100752
100854
100920
100970
101000
101023
101071
101146
101276
100834
100834
100832
100830
100827
100822
100817
100811
100804
100795
100785
100773
100760
100744
100725
100703
100677
100648
100614
100574
100527
100472
100407
100329
100236
100119
99985.6
99820
99596.9
99319.5
99058.3
97968.1
97571.6
98760.2
99847.8
100989
101640
101306
100271
99181.4
99062
99587.8
100118
100443
100622
100747
100846
100920
100979
101018
101034
101031
101062
101258
100832
100831
100829
100827
100823
100819
100814
100807
100800
100791
100780
100768
100753
100736
100716
100693
100667
100635
100599
100557
100507
100448
100379
100297
100198
100079
99933.3
99749.5
99509.7
99202.9
98826.6
98226.5
97898.3
98384.4
97952.2
99061.1
100212
100599
100239
99499.9
99324.2
99734
100192
100507
100640
100750
100853
100915
100961
100987
101021
101023
100950
101202
100832
100831
100829
100827
100823
100819
100814
100807
100800
100791
100780
100768
100753
100736
100716
100693
100667
100635
100599
100557
100507
100448
100379
100296
100198
100078
99940.2
99755.7
99503.9
99194.5
98786.5
98174
97906.1
98387
99070.7
99754.1
99821.2
100100
100031
99580.8
99372.9
99706.6
100183
100522
100665
100750
100843
100918
100971
101007
101050
101036
100877
101130
100831
100830
100828
100825
100822
100817
100812
100805
100797
100788
100777
100764
100749
100731
100711
100687
100659
100627
100589
100545
100493
100432
100360
100274
100171
100047
99894.3
99703.9
99463
99159.1
98802.5
98326.2
97888.5
97304.3
96491.4
96600.3
95960.9
96056.6
96606.1
97981.8
98992.3
99860.9
100322
100608
100759
100855
100920
100957
100985
101011
101067
101062
100874
101084
100831
100830
100828
100825
100822
100817
100812
100805
100797
100788
100777
100764
100749
100731
100711
100687
100659
100627
100589
100545
100493
100432
100360
100274
100172
100047
99896.7
99711
99464.9
99149
98816.1
98345.1
97912.2
97740
97255.6
96366.1
95342.2
95546.9
96290.6
97800.2
99068.5
99869.6
100320
100605
100758
100858
100921
100960
100987
101018
101102
101116
100868
101047
100829
100829
100827
100824
100820
100816
100810
100804
100796
100786
100775
100762
100747
100729
100708
100684
100655
100622
100584
100539
100486
100424
100350
100263
100157
100030
99874.2
99681.5
99441.6
99143.9
98783.5
98325.2
97756.2
97215.9
96645
95417.5
93264.7
92562.9
93371.7
95535.6
97773.1
99226.8
99986.9
100385
100669
100858
100940
100970
100990
101012
101031
101009
100962
101095
100829
100829
100827
100824
100821
100816
100810
100804
100796
100786
100775
100762
100747
100729
100708
100683
100655
100622
100584
100539
100486
100424
100350
100263
100158
100030
99875.2
99684.2
99444.4
99147.6
98803.1
98388.6
97931.1
97279.6
96051.7
94470.7
93245.7
92743.1
93454.7
95418.5
97685.2
99226.8
99993.8
100378
100643
100847
100946
100972
100991
101019
101042
101020
100964
101071
100750
101160
100628
101562
101566
100607
100544
100590
100502
100417
100596
101146
100544
101567
101525
100575
100395
100552
100390
100399
101439
100878
100545
100858
100478
100538
100423
100532
100363
100457
100350
101409
100851
100465
100851
100446
100388
100395
100429
100375
100416
100424
100953
101026
100943
101076
100957
101067
100940
100787
100836
100773
100767
100688
100736
100657
100929
101018
100922
101057
100900
101053
100875
100764
100810
100759
100671
100622
100635
100607
101236
101169
101232
101217
101365
101216
101367
100583
100714
100641
100714
100619
100534
100508
100596
100416
100426
100383
100424
101225
101163
101224
101214
101353
101209
101358
100275
100628
100438
100523
100419
100640
100588
100666
100371
100459
100415
100535
101249
101162
101251
101029
101013
101027
101006
100666
101451
101141
101138
100717
100410
100457
100463
100387
100460
100406
100493
100395
100503
101243
101156
101246
101023
100998
101022
100999
100613
101422
101129
100614
101124
100388
100385
100485
100422
100541
100432
100532
100479
100567
100655
100804
100651
100770
100669
100772
100672
100328
100504
100391
100577
100558
100583
100578
100649
100796
100647
100772
100675
100773
100678
100451
100511
100465
100589
100591
100592
100593
101052
100958
100732
100950
101091
101044
100710
100902
100936
101032
101404
101482
101574
101489
101420
101205
101246
101404
101488
101572
101488
101403
101201
101195
100538
100609
100663
100678
100460
100583
100611
100578
100497
100482
100487
100599
100549
100460
100553
100444
100438
100459
100461
100981
100865
100578
100860
101056
101003
100545
100840
100832
100986
101411
101475
101553
101390
101491
101236
101198
101403
101480
101542
101480
101387
101236
101180
100223
100403
100459
100483
100171
100325
100437
100424
100428
100374
100448
100426
100269
100217
100406
100417
100375
100422
100362
100339
100396
100655
101447
101135
101132
100635
100321
100282
100374
100637
100528
100632
100425
100362
100504
100607
100313
100621
100441
100513
100497
100459
100478
100390
100383
100414
100460
100378
100403
100385
100412
100510
100522
100506
100427
100403
100496
100463
100405
100493
100260
100262
100626
101419
101120
101124
100655
100278
100324
100276
100602
100448
100296
100591
100284
100449
100577
100588
100335
100381
100376
100360
100385
100359
100375
100387
100382
100379
100388
100371
100388
100391
100435
100402
100399
100413
100378
100406
100425
100408
100389
101243
101105
101171
101311
101099
101312
101251
101200
101058
101146
101291
101046
101209
101294
101236
101166
101077
101304
101090
101309
101231
100616
100665
100610
100497
100653
100491
100629
100583
100602
100610
100494
100628
100491
100528
101213
101154
101058
101316
101058
101308
101215
100501
100592
100561
100496
100549
100510
100496
100477
100556
100519
100473
100528
100487
100449
100786
100956
100789
100873
100948
100786
100793
100771
100935
100867
100764
100940
100753
100778
100387
100407
100408
100341
100370
100394
100408
100355
100345
100333
100404
100343
100357
100395
100722
100926
100755
100846
100730
100917
100746
100732
100931
100850
100746
100926
100748
100740
100362
100348
100409
100400
100360
100353
100402
100363
100384
100415
100404
100371
100389
100374
100626
100656
100522
100607
100672
100581
100581
100424
100320
100291
100427
100420
100232
100271
100370
100619
100616
100675
100591
100675
100597
100604
100204
100438
100328
99894.6
100484
100126
99995.3
99971.6
99869
100028
99867.9
100299
100372
100572
100162
100380
100524
100089
99865.7
99741
99811.2
99778.8
101111
100872
100916
100672
100874
101103
100925
101335
101584
101595
101345
101327
101576
101581
101318
101122
100671
100921
100928
100891
100930
101119
100430
100454
101139
100844
100596
100899
100860
101094
100882
101392
101602
101546
101334
101382
101595
101565
101278
101153
100598
100875
100883
101102
100866
100887
100381
100384
100632
100992
100646
101061
101003
100614
100661
100471
100362
100331
100490
100451
100271
100298
100430
100631
101062
101002
100698
101005
100661
100688
100571
100983
100628
101031
100599
100967
100600
100326
100015
100097
100323
100374
100237
100413
100189
100554
101022
100954
100535
100956
100584
100574
101623
101455
101608
101404
101455
101607
101621
101683
101667
101680
101669
101675
101663
101668
101670
101632
101416
101456
101616
101460
101620
101611
101208
101217
101623
101454
101410
101609
101454
101620
101609
101683
101681
101680
101664
101629
101413
101467
101628
101456
101609
101637
101675
101666
101672
101664
101200
101195
100457
100623
100437
100507
100521
100599
100361
100172
99924.6
100082
100036
100217
100172
100292
100111
100432
100466
100588
100253
100421
100568
100307
100599
100604
100537
100564
100540
100590
100577
100551
100527
100547
100568
100577
100545
100526
100532
100513
100556
100551
100596
100583
100568
100584
100565
100549
100513
100476
100498
100543
100523
100520
100526
100505
100505
100460
100443
100456
100458
100483
100489
100483
100466
100501
100486
100472
100473
100498
100485
100477
100477
100892
100976
100489
100910
100455
100484
100207
99944.9
99969.4
100217
100439
101013
100942
100628
100911
100484
100527
100245
99908.7
99965.3
100211
100372
100870
100527
100988
100384
100866
100506
100138
99922.1
99859.8
100193
100131
99871.6
100152
99847.5
100374
100939
100867
100506
100859
100465
100452
101683
101436
101458
101755
101438
101676
101691
101847
101695
101623
101674
101653
101440
101468
101738
101429
101656
101668
101757
101745
101638
101754
101255
101259
101670
101437
101728
101394
101418
101643
101708
101738
101631
101700
101650
101720
101690
101719
101697
101665
101388
101427
101693
101414
101770
101610
101246
101191
100113
100410
99831
100199
100100
100410
99816.2
99723.9
99792.8
99702.8
99805.3
99755
99716.9
99756.1
99695.7
100050
100168
100341
99793.2
100368
99788.1
100069
100370
100409
100412
100426
100456
100424
100453
100428
100414
100433
100431
100444
100422
100434
100430
100467
100452
100450
100460
100436
100409
100393
100403
100402
100233
100225
100406
100450
100411
100375
100433
100417
100389
100414
100402
100402
100423
100410
100387
100404
100394
100398
100360
100413
100390
100417
100385
100403
100343
100340
101105
100872
100908
100651
101097
100875
100911
101320
101579
101310
101572
101322
101578
101315
101578
101110
100647
100873
100900