/*--------------------------------*- C++ -*----------------------------------*\
| =========                 |                                                 |
| \\      /  F ield         | OpenFOAM: The Open Source CFD Toolbox           |
|  \\    /   O peration     | Version:  4.1                                   |
|   \\  /    A nd           | Web:      www.OpenFOAM.org                      |
|    \\/     M anipulation  |                                                 |
\*---------------------------------------------------------------------------*/
FoamFile
{
    version     2.0;
    format      ascii;
    class       volVectorField;
    location    "68";
    object      U;
}
// * * * * * * * * * * * * * * * * * * * * * * * * * * * * * * * * * * * * * //

dimensions      [0 1 -1 0 0 0 0];

internalField   nonuniform List<vector> 
4432
(
(39.982 6.58665e-05 0.0502718)
(39.9155 -0.000115018 0.0900352)
(39.815 3.00757e-05 0.118397)
(39.6773 -1.36017e-05 0.145847)
(39.5003 -0.000208385 0.174581)
(39.2853 -0.000335957 0.204844)
(39.0329 -0.000367841 0.236949)
(38.7416 -0.000380569 0.270411)
(38.4086 -0.000415609 0.305217)
(38.033 -0.00049394 0.340757)
(37.6153 -0.000600818 0.375119)
(37.1581 -0.000653353 0.40873)
(36.665 -0.000938512 0.435227)
(36.1534 -0.00106561 0.454505)
(35.6262 -0.00405319 0.447108)
(35.2011 -0.00827744 0.391928)
(34.8428 -0.00695956 0.431762)
(34.7019 -0.0040759 0.336841)
(34.776 -0.00237131 0.24871)
(34.7245 0.00148342 0.395231)
(34.4651 -0.00179382 0.503135)
(34.086 -0.0118564 0.631422)
(33.6009 -0.0225485 0.708146)
(33.0505 -0.0318852 0.698332)
(32.4387 -0.0392255 0.680597)
(31.7914 -0.0450655 0.555464)
(31.196 -0.0411757 0.355058)
(30.6807 -0.0266587 0.142273)
(30.2857 -0.0176582 0.0553925)
(29.9991 -0.022195 0.0661717)
(29.7732 -0.0382544 0.189306)
(29.5271 -0.0567014 0.431161)
(29.1774 -0.0614106 0.520662)
(28.8034 -0.0364444 0.144151)
(28.628 0.0050495 -0.62589)
(28.5881 0.033799 -1.02715)
(28.6198 0.0395402 -0.954176)
(28.5294 0.0250975 -0.839034)
(28.3411 0.0263102 -0.701745)
(28.2044 0.0352554 -0.545518)
(28.139 0.0226557 -0.478103)
(28.0727 0.00761888 -0.519793)
(27.9389 -0.00518824 -0.469112)
(27.7603 -0.000424913 -0.406149)
(27.6665 0.018194 -0.386636)
(27.6473 0.0371559 -0.393553)
(27.7227 0.0214225 -0.373564)
(27.8897 -0.0251468 -0.401398)
(27.975 -0.000554625 -0.42134)
(28.0708 0.0432192 -0.461322)
(28.4602 0.0501202 -0.373884)
(29.1589 0.0320212 -0.509675)
(29.5763 0.00416274 -0.69173)
(30.0007 0.121266 -0.0672858)
(39.9821 6.58761e-05 0.0502738)
(39.9156 -0.000115035 0.0900524)
(39.815 2.99783e-05 0.118497)
(39.677 -1.32609e-05 0.145908)
(39.4998 -0.000207666 0.174547)
(39.285 -0.000335287 0.204834)
(39.0327 -0.000367188 0.236873)
(38.7414 -0.000379741 0.270298)
(38.4084 -0.000414995 0.305124)
(38.0328 -0.000493827 0.34052)
(37.6151 -0.000600963 0.375068)
(37.1578 -0.000654243 0.408442)
(36.6653 -0.00093995 0.436021)
(36.1481 -0.00107011 0.454552)
(35.6244 -0.00403889 0.453832)
(35.1491 -0.00833388 0.401936)
(34.7842 -0.00703351 0.38127)
(34.6868 -0.00406914 0.292131)
(34.7657 -0.00237327 0.24088)
(34.7446 0.00137101 0.408079)
(34.4874 -0.00191608 0.491213)
(34.1045 -0.0119412 0.550297)
(33.6288 -0.022674 0.591533)
(33.0731 -0.0323018 0.583518)
(32.4402 -0.040045 0.571895)
(31.7548 -0.046847 0.436505)
(31.1006 -0.0447194 0.249651)
(30.5431 -0.0309732 0.116948)
(30.094 -0.0223755 0.0292233)
(29.7346 -0.0288118 -0.0831347)
(29.5102 -0.0465678 -0.219978)
(29.341 -0.070334 -0.250909)
(29.1366 -0.0783544 -0.0917885)
(28.828 -0.0554871 0.0529416)
(28.6037 -0.00915406 -0.20899)
(28.4695 0.023902 -0.499293)
(28.4088 0.0334375 -0.455054)
(28.2757 0.0180873 -0.45651)
(28.1066 0.0172584 -0.408326)
(27.9499 0.0360961 -0.325291)
(27.823 0.0319658 -0.254908)
(27.711 0.0194196 -0.237565)
(27.5575 0.00555545 -0.175108)
(27.3985 0.00960365 -0.147972)
(27.2954 0.0296908 -0.152475)
(27.2352 0.0502973 -0.208616)
(27.241 0.0370258 -0.134701)
(27.4695 -0.014114 -0.0639191)
(27.651 0.0155852 -0.0703169)
(27.8015 0.071552 -0.141028)
(28.2516 0.0480843 -0.292399)
(28.9009 0.0233224 -0.471207)
(29.3895 -0.0103253 -0.606915)
(30.0012 0.111377 0.033651)
(40.0077 6.77575e-05 0.0177746)
(40.0311 -0.00014377 0.0556276)
(40.0561 -1.31809e-06 0.0946927)
(40.0777 -4.61017e-05 0.133969)
(40.0945 -0.000239138 0.1738)
(40.1084 -0.000358602 0.214814)
(40.1212 -0.000365409 0.257381)
(40.1317 -0.000336923 0.301702)
(40.1375 -0.000353539 0.347859)
(40.137 -0.000426758 0.395643)
(40.1284 -0.000567717 0.444419)
(40.1085 -0.000794372 0.492305)
(40.0734 -0.000834429 0.536919)
(40.0061 -0.00105467 0.567763)
(39.9045 0.00215021 0.591608)
(39.6362 0.00405203 0.564172)
(39.3181 0.00600741 0.443322)
(38.6111 0.00636181 0.365431)
(37.6277 -0.00113765 0.41627)
(36.8113 -0.00286911 0.480607)
(36.1117 5.10187e-05 0.551436)
(35.4893 0.00342193 0.635527)
(34.9481 0.00649526 0.720754)
(34.4285 0.00921724 0.814984)
(33.9287 0.0106305 0.886033)
(33.4375 0.0119675 0.892012)
(32.9391 0.0138364 0.844584)
(32.4081 0.0203483 0.782307)
(31.8017 0.0330952 0.698149)
(31.207 0.0395107 0.577737)
(30.6601 0.042522 0.470244)
(30.1493 0.044378 0.458279)
(29.7528 0.0427673 0.440061)
(29.5073 0.0338958 0.349703)
(29.3591 0.0134758 0.308579)
(29.2512 -0.021723 0.450626)
(29.133 -0.0674003 0.646694)
(28.9428 -0.102036 0.74221)
(28.697 -0.10812 0.71462)
(28.4263 -0.105532 0.53758)
(28.2058 -0.121446 0.396786)
(28.1266 -0.156872 0.438054)
(28.0311 -0.178814 0.496172)
(27.9223 -0.192168 0.475194)
(27.872 -0.201034 0.408436)
(27.8827 -0.200488 0.293942)
(27.9323 -0.203076 0.243572)
(28.0266 -0.20346 0.0920706)
(28.0583 -0.186517 -0.0363869)
(28.1488 -0.221206 0.0255692)
(28.3778 -0.183031 -0.369949)
(28.3016 -0.112149 -0.534545)
(29.3123 -0.0254276 -0.642523)
(30.2373 0.0578809 -1.23138)
(40.0079 6.77584e-05 0.0177715)
(40.0312 -0.000143772 0.0556176)
(40.0561 -1.31901e-06 0.0946678)
(40.0774 -4.60964e-05 0.133926)
(40.0941 -0.000239133 0.17376)
(40.1082 -0.000358573 0.214798)
(40.1211 -0.000365454 0.257409)
(40.1315 -0.000336702 0.301756)
(40.1373 -0.000353799 0.347928)
(40.1364 -0.000428214 0.395645)
(40.1279 -0.000568914 0.444296)
(40.1078 -0.000793065 0.492271)
(40.0724 -0.000859575 0.536349)
(40.0097 -0.000956571 0.570528)
(39.9052 0.00173331 0.583285)
(39.7046 0.00413964 0.554032)
(39.374 0.00656218 0.461803)
(38.6471 0.00648769 0.355638)
(37.6433 -0.00119901 0.399866)
(36.8031 -0.00271804 0.471213)
(36.1233 0.000152803 0.531092)
(35.506 0.00356578 0.604575)
(34.9647 0.00677782 0.675403)
(34.4529 0.00987226 0.753695)
(33.9628 0.0116803 0.817268)
(33.4927 0.0140322 0.821644)
(33.0074 0.0178832 0.808039)
(32.4807 0.0240594 0.786131)
(31.9389 0.03416 0.703912)
(31.4295 0.0457865 0.555408)
(30.9048 0.0584748 0.427758)
(30.3325 0.0720093 0.394312)
(29.8334 0.0659906 0.353921)
(29.5512 0.0493758 0.290571)
(29.4371 0.0187702 0.244312)
(29.3918 -0.0235779 0.328585)
(29.3745 -0.0728307 0.45252)
(29.2906 -0.109068 0.529737)
(29.1263 -0.116835 0.534093)
(29.0063 -0.120701 0.457269)
(28.9012 -0.13484 0.36999)
(28.9088 -0.159269 0.38152)
(28.8866 -0.181788 0.403319)
(28.8286 -0.19149 0.367408)
(28.809 -0.199129 0.286286)
(28.8242 -0.196039 0.163682)
(28.8542 -0.195668 0.127926)
(28.895 -0.196237 0.0466737)
(28.9524 -0.201288 -0.0532945)
(28.9063 -0.213095 -0.201876)
(28.9566 -0.13086 -0.692802)
(29.0146 -0.0818425 -0.782227)
(30.019 -0.0157664 -0.743553)
(30.8529 0.0648733 -1.29279)
(39.9996 6.67806e-05 0.0248886)
(39.9868 -0.00014681 0.0720316)
(39.9568 -8.93317e-06 0.116291)
(39.908 -5.53765e-05 0.158618)
(39.84 -0.000245329 0.200734)
(39.7551 -0.000355795 0.243703)
(39.6551 -0.000355604 0.288064)
(39.5398 -0.000332616 0.33419)
(39.4079 -0.000364204 0.382365)
(39.2592 -0.000474635 0.432687)
(39.0941 -0.00066333 0.485061)
(38.913 -0.000864514 0.539215)
(38.714 -0.00104798 0.5949)
(38.4966 -0.00087492 0.651665)
(38.2434 -0.000799049 0.712544)
(37.9979 0.000755097 0.787721)
(37.6369 0.00136639 0.834097)
(37.267 0.00390929 0.958633)
(36.8935 0.00188898 1.13051)
(36.4813 0.00172865 1.23872)
(36.017 0.00295743 1.28176)
(35.5305 0.00494541 1.29544)
(35.0548 0.00759057 1.32001)
(34.5762 0.0116916 1.3582)
(34.0925 0.0140004 1.39381)
(33.5948 0.0176 1.37979)
(33.0464 0.024598 1.31984)
(32.4215 0.0344527 1.26866)
(31.7066 0.0420433 1.15059)
(30.9617 0.0382536 1.02167)
(30.1514 0.0361995 1.00514)
(29.3215 0.0497425 1.03177)
(28.6235 0.0870126 0.947041)
(27.9858 0.148016 0.680196)
(27.5552 0.192084 0.0995068)
(27.6474 0.0636902 0.067731)
(27.5275 -0.0815518 0.366299)
(27.2542 -0.140919 0.496658)
(26.8062 -0.139531 0.555447)
(26.5018 -0.0718518 0.308971)
(26.4065 -0.0882508 0.280159)
(26.3853 -0.159021 0.519477)
(26.2679 -0.194191 0.538297)
(26.077 -0.203912 0.431268)
(25.9945 -0.205646 0.261375)
(26.0142 -0.191692 0.0811604)
(26.1406 -0.188995 -0.0646873)
(26.3114 -0.162853 -0.24956)
(26.5262 -0.186283 -0.302694)
(26.9597 -0.146156 -0.624008)
(27.2834 -0.0667709 -0.787167)
(27.453 -0.024807 -0.788497)
(27.3791 0.00893441 -1.21737)
(27.3392 0.0104084 -2.01478)
(39.9998 6.67811e-05 0.0248857)
(39.9868 -0.00014681 0.0720275)
(39.9568 -8.93548e-06 0.116276)
(39.9077 -5.53772e-05 0.158599)
(39.8396 -0.000245329 0.200717)
(39.7549 -0.000355798 0.243691)
(39.655 -0.000355595 0.288056)
(39.5396 -0.000332632 0.334175)
(39.4076 -0.00036415 0.382345)
(39.2587 -0.000474782 0.432645)
(39.0935 -0.000663793 0.485008)
(38.9124 -0.000865026 0.539198)
(38.714 -0.00105008 0.59479)
(38.4958 -0.000872753 0.651536)
(38.2497 -0.000807951 0.710223)
(37.9753 0.000744527 0.780163)
(37.6504 0.000990309 0.853317)
(37.2754 0.00411287 0.963381)
(36.8906 0.00199043 1.12419)
(36.4856 0.00178835 1.22517)
(36.0284 0.00306915 1.26302)
(35.5488 0.00514527 1.26927)
(35.0804 0.00800783 1.28374)
(34.6023 0.0127787 1.3336)
(34.1113 0.0156279 1.37599)
(33.6111 0.0198768 1.36873)
(33.0611 0.0279476 1.34185)
(32.4534 0.038828 1.31618)
(31.8008 0.0479143 1.23379)
(31.0937 0.0495777 1.09187)
(30.2458 0.0461972 1.0646)
(29.4249 0.0568875 1.08929)
(28.7603 0.100052 0.96218)
(28.331 0.149046 0.633006)
(28.1538 0.148758 0.273097)
(28.1572 0.0721949 0.0947445)
(28.1297 -0.0234252 0.0622909)
(27.946 -0.0870859 0.0337666)
(27.6711 -0.0930413 -0.0399797)
(27.5061 -0.0577334 -0.2403)
(27.2148 -0.0592899 -0.194671)
(27.1205 -0.101748 -0.103271)
(26.97 -0.129416 -0.137988)
(26.7699 -0.144305 -0.251513)
(26.6436 -0.155917 -0.374442)
(26.6331 -0.146207 -0.522486)
(26.683 -0.139994 -0.662838)
(26.7482 -0.116333 -0.766107)
(26.9066 -0.13095 -0.860921)
(27.2213 -0.102559 -1.10781)
(27.4831 -0.0547785 -1.01512)
(27.6264 -0.0123548 -0.955428)
(27.9889 -0.0938521 -0.557485)
(27.5188 0.0298636 -2.10738)
(39.9993 6.50388e-05 0.0314971)
(39.9855 -0.000148099 0.0936421)
(39.9555 -1.65142e-05 0.155972)
(39.908 -6.60039e-05 0.219051)
(39.8412 -0.000258466 0.283828)
(39.7565 -0.00037258 0.350721)
(39.6549 -0.000376008 0.419868)
(39.5353 -0.000353044 0.491397)
(39.3955 -0.00037703 0.565447)
(39.2344 -0.000472611 0.642104)
(39.0513 -0.000632236 0.721438)
(38.8456 -0.000806016 0.803652)
(38.6153 -0.000974658 0.889122)
(38.3588 -0.000953637 0.979454)
(38.07 -0.00102723 1.07734)
(37.7553 6.09433e-05 1.18721)
(37.3972 0.000246512 1.33461)
(36.9654 0.000760648 1.41131)
(36.5781 0.0014455 1.47415)
(36.2279 0.00277366 1.55627)
(35.8569 0.00399278 1.64013)
(35.4569 0.00435904 1.69549)
(35.0169 0.0043653 1.75099)
(34.5185 0.00522491 1.82097)
(33.9851 0.00396112 1.90256)
(33.4083 0.0033195 1.94501)
(32.726 0.00774538 1.97165)
(31.9406 0.0138782 2.03642)
(31.0419 0.0125204 2.06804)
(29.9539 0.0131686 2.0446)
(28.8008 0.0199031 2.06124)
(27.803 0.0349537 1.9729)
(26.9385 0.0675072 1.67127)
(26.2395 0.117645 0.924203)
(26.2433 0.11834 -0.108329)
(26.5341 -0.0495315 0.22449)
(26.4649 -0.217423 0.874616)
(26.0282 -0.333733 1.17016)
(25.3602 -0.283168 1.1836)
(25.0997 -0.121189 0.601331)
(25.0115 -0.0855613 0.483571)
(25.0233 -0.139154 0.853428)
(24.8275 -0.174924 0.956739)
(24.5811 -0.164967 0.804925)
(24.4569 -0.14953 0.6151)
(24.5406 -0.136139 0.415924)
(24.6211 -0.140399 0.212461)
(24.8311 -0.0875948 0.0644892)
(25.0692 -0.0866222 -0.0925339)
(25.4749 -0.0981351 -0.45491)
(26.1176 -0.104379 -0.838011)
(26.372 -0.0939626 -0.882674)
(26.5349 -0.0759466 -0.912365)
(26.5258 0.140587 -1.13141)
(39.9995 6.50392e-05 0.0314949)
(39.9856 -0.000148099 0.0936411)
(39.9556 -1.65166e-05 0.155964)
(39.9076 -6.60044e-05 0.219039)
(39.8408 -0.000258465 0.283812)
(39.7563 -0.00037258 0.3507)
(39.6548 -0.000376008 0.419842)
(39.5351 -0.000353039 0.491373)
(39.3953 -0.000377019 0.565436)
(39.234 -0.000472573 0.642118)
(39.0509 -0.000632245 0.721498)
(38.8451 -0.000805849 0.803743)
(38.6151 -0.000975135 0.889244)
(38.3583 -0.000952114 0.979308)
(38.0718 -0.00102613 1.07707)
(37.7531 9.0743e-05 1.18653)
(37.4113 0.000101928 1.32981)
(36.9769 0.00066074 1.44126)
(36.5823 0.00135909 1.4802)
(36.2347 0.00280054 1.54511)
(35.8651 0.00417512 1.62113)
(35.4649 0.00467886 1.67134)
(35.0092 0.00455435 1.72846)
(34.501 0.00499175 1.83251)
(33.9783 0.00382833 1.91582)
(33.3932 0.00319236 1.97337)
(32.6861 0.00886827 2.06336)
(31.8866 0.016033 2.17018)
(31.0023 0.0146865 2.22073)
(29.9342 0.0152437 2.19212)
(28.849 0.0204808 2.14603)
(27.9259 0.0336535 2.07064)
(27.1221 0.0642537 1.8979)
(26.4298 0.12899 1.38805)
(26.3635 0.14593 0.395284)
(26.66 -0.0373892 0.127925)
(26.7087 -0.242507 0.254315)
(26.4868 -0.439551 0.38377)
(26.0849 -0.523602 0.529517)
(25.7743 -0.425025 0.198805)
(25.5687 -0.15872 0.0969008)
(25.4805 -0.13918 0.281667)
(25.2341 -0.136388 0.189433)
(24.988 -0.133402 0.0329636)
(24.7655 -0.115128 -0.0605111)
(24.7917 -0.103748 -0.23429)
(24.8052 -0.105309 -0.417544)
(24.9815 -0.0722202 -0.606953)
(25.2952 -0.0543294 -0.759062)
(25.6852 -0.0580243 -0.985489)
(26.2204 -0.0830807 -1.24359)
(26.4605 -0.0863326 -1.24034)
(26.6956 -0.19124 -1.29477)
(27.2733 0.116023 -1.55573)
(39.9993 6.45852e-05 0.0389408)
(39.9857 -0.0001471 0.116589)
(39.9563 -1.55667e-05 0.195035)
(39.9097 -6.7218e-05 0.274067)
(39.8445 -0.000261646 0.354404)
(39.7618 -0.000377466 0.436655)
(39.6629 -0.000381638 0.521266)
(39.5467 -0.000357143 0.608703)
(39.4113 -0.000375542 0.69943)
(39.2554 -0.000462993 0.793912)
(39.0785 -0.000608346 0.892627)
(38.88 -0.000782899 0.996174)
(38.6589 -0.000924555 1.10539)
(38.4128 -0.00103607 1.22188)
(38.1415 -0.000894651 1.3481)
(37.8361 -0.000939638 1.48844)
(37.521 0.00070691 1.6459)
(37.1191 0.00288588 1.80462)
(36.6535 0.00353194 1.87815)
(36.2204 0.00363096 1.93289)
(35.8112 0.00526214 2.00921)
(35.3867 0.0044382 2.09295)
(34.9124 0.00231964 2.23862)
(34.3515 -0.000584958 2.38355)
(33.7349 -0.00772797 2.52185)
(33.0278 -0.0119933 2.64947)
(32.1527 -0.00610329 2.77958)
(31.1869 0.00200689 2.98152)
(30.1259 0.00142438 3.16666)
(28.9521 0.0022607 3.22267)
(27.8342 0.0116024 3.13255)
(26.8369 0.0336392 2.86432)
(25.9226 0.0727174 2.24878)
(25.2494 0.144068 0.935584)
(25.4402 0.212045 -0.62658)
(25.1744 -0.0667415 -0.25937)
(25.1968 -0.49422 1.69888)
(24.6731 -0.752828 2.66264)
(24.1423 -0.80097 2.85027)
(23.6756 -0.336315 1.5287)
(23.4123 -0.153203 0.848171)
(23.5445 -0.244623 1.15706)
(23.3619 -0.308503 1.14756)
(23.1829 -0.30092 0.834901)
(23.0922 -0.274248 0.579814)
(23.1345 -0.246158 0.352108)
(23.2212 -0.234676 0.12484)
(23.6443 -0.219665 -0.178704)
(23.3636 -0.181307 -0.483357)
(23.8089 -0.204287 -0.691589)
(24.1888 -0.220469 -1.06695)
(24.382 -0.143661 -1.31399)
(25.0031 -0.264861 -1.5144)
(24.7242 -0.0899893 -1.58671)
(39.9995 6.45856e-05 0.038938)
(39.9858 -0.0001471 0.116589)
(39.9564 -1.5569e-05 0.195028)
(39.9094 -6.72187e-05 0.274061)
(39.8441 -0.000261645 0.354403)
(39.7615 -0.000377462 0.436654)
(39.6628 -0.000381628 0.52126)
(39.5466 -0.000357117 0.608694)
(39.411 -0.000375516 0.699425)
(39.255 -0.000462871 0.79392)
(39.078 -0.000608534 0.892663)
(38.8796 -0.000781692 0.996237)
(38.6585 -0.000921005 1.1055)
(38.4127 -0.00103221 1.22194)
(38.1408 -0.000877841 1.34822)
(37.8392 -0.000974337 1.48805)
(37.5149 0.000882446 1.64653)
(37.1476 0.00250027 1.81794)
(36.6986 0.00320134 1.88417)
(36.2499 0.00361844 1.92926)
(35.8283 0.00589973 2.00406)
(35.3877 0.0058954 2.0978)
(34.8598 0.00234267 2.23833)
(34.2975 -0.00100517 2.3798)
(33.6975 -0.0079941 2.51675)
(32.9438 -0.0126102 2.67438)
(32.0741 -0.005266 2.86626)
(31.1623 0.0033366 3.08657)
(30.1533 0.00226164 3.23759)
(29.0387 0.00200518 3.26711)
(27.9622 0.0101842 3.16221)
(27.0027 0.0311895 2.94101)
(26.1996 0.0650457 2.48683)
(25.6828 0.141379 1.47973)
(25.9293 0.292172 -0.0126195)
(26.2552 0.00825788 -0.464531)
(26.6261 -0.411122 -0.364524)
(26.4935 -0.609389 -0.0639544)
(25.9322 -0.772655 0.21633)
(25.2728 -0.697239 0.269159)
(24.6841 -0.253972 0.285956)
(24.6273 -0.205334 0.338327)
(24.4344 -0.220277 0.102737)
(24.2081 -0.20862 -0.170117)
(24.09 -0.18329 -0.379681)
(24.0798 -0.151629 -0.569655)
(24.1646 -0.121922 -0.756123)
(24.3891 -0.114036 -0.981424)
(24.5901 -0.163686 -1.14408)
(24.863 -0.0908197 -1.58582)
(25.12 0.0734286 -2.12182)
(25.1411 0.0475856 -1.99441)
(25.4982 -0.0590331 -1.98717)
(25.5951 0.19209 -2.48781)
(39.9993 6.2235e-05 0.0463558)
(39.9861 -0.000146838 0.138805)
(39.9574 -2.21909e-05 0.232363)
(39.9122 -7.17687e-05 0.326885)
(39.8491 -0.000259511 0.423349)
(39.7693 -0.000372736 0.522566)
(39.674 -0.000380046 0.625083)
(39.562 -0.000360622 0.731418)
(39.4312 -0.000381668 0.842074)
(39.2806 -0.00046632 0.957571)
(39.1098 -0.000600928 1.07844)
(38.9184 -0.000753781 1.2053)
(38.7057 -0.000876502 1.33898)
(38.4706 -0.00093621 1.48065)
(38.2127 -0.000871776 1.63226)
(37.9309 -0.000605636 1.79718)
(37.6313 0.000198229 1.97514)
(37.3149 0.00288518 2.19053)
(36.9414 0.00628135 2.33435)
(36.4941 0.0061386 2.41956)
(36.0018 0.00605869 2.48776)
(35.4405 0.00179701 2.59077)
(34.874 -0.00316609 2.7651)
(34.3054 -0.00788845 2.99718)
(33.642 -0.0174968 3.2571)
(32.8279 -0.0199923 3.5408)
(31.772 -0.00848705 3.78539)
(30.6545 0.00732384 4.04109)
(29.5559 0.0115602 4.27062)
(28.4138 0.012465 4.32902)
(27.288 0.023613 4.17369)
(26.1878 0.0575856 3.80524)
(24.9591 0.131624 3.05025)
(23.8278 0.356828 1.48953)
(23.3625 0.742496 0.0627638)
(13.9732 0.0559285 2.50155)
(15.8381 -0.590216 1.87321)
(16.7029 -1.08024 1.46401)
(17.3054 -1.74477 2.38132)
(18.7332 -0.897316 0.250157)
(19.8514 -0.272923 0.685566)
(19.8964 -0.763305 2.26483)
(19.9273 -0.695719 2.07971)
(20.1409 -0.584845 1.62788)
(20.3675 -0.506562 1.24974)
(20.5128 -0.469653 0.939535)
(20.712 -0.405924 0.617535)
(20.9596 -0.414911 0.293843)
(21.2557 -0.39697 -0.131368)
(21.3928 -0.334628 -0.482168)
(21.3255 -0.231099 -0.837615)
(21.268 -0.164224 -1.08359)
(21.6475 -0.192352 -1.25953)
(20.7056 -0.340304 -1.76476)
(39.9995 6.22339e-05 0.0463527)
(39.9861 -0.000146831 0.138806)
(39.9574 -2.22245e-05 0.232357)
(39.9119 -7.16311e-05 0.326883)
(39.8487 -0.000260091 0.423354)
(39.7691 -0.000374513 0.522572)
(39.6739 -0.000382079 0.625082)
(39.5618 -0.000362678 0.731408)
(39.431 -0.000383705 0.842062)
(39.2803 -0.00046825 0.957569)
(39.1094 -0.00060304 1.07847)
(38.918 -0.000754922 1.20537)
(38.7054 -0.000873424 1.3391)
(38.4705 -0.000931987 1.4808)
(38.2125 -0.000856647 1.63256)
(37.9322 -0.000651845 1.79681)
(37.6323 0.000409335 1.97696)
(37.3252 0.0023184 2.17683)
(36.9901 0.00643055 2.34376)
(36.5663 0.00619403 2.45155)
(36.053 0.00718433 2.54537)
(35.4939 0.00332848 2.67536)
(34.8813 -0.00338571 2.80928)
(34.2634 -0.00813147 3.00026)
(33.5674 -0.0182956 3.24155)
(32.7076 -0.0199535 3.52805)
(31.7138 -0.00791742 3.79556)
(30.7121 0.00644467 4.08116)
(29.6631 0.00982852 4.28423)
(28.5401 0.0106882 4.33012)
(27.452 0.0218014 4.1839)
(26.4516 0.053538 3.88283)
(25.5275 0.121799 3.29585)
(24.8232 0.435297 2.10196)
(25.2109 1.41211 0.395967)
(26.4349 2.6078 -1.4159)
(27.6696 2.63472 -1.6209)
(27.6293 2.4096 -1.27634)
(26.8851 2.1687 -0.844904)
(26.5733 1.69013 -0.603959)
(24.0423 0.496169 0.195891)
(23.6673 0.17429 0.409364)
(23.3702 0.232039 0.113626)
(23.1625 0.325624 -0.231025)
(23.0139 0.395194 -0.494694)
(22.8517 0.440351 -0.696309)
(22.6922 0.521908 -0.873526)
(22.5418 0.5605 -1.01686)
(22.4268 0.578639 -1.17302)
(22.2065 0.674967 -1.40036)
(22.1779 0.800074 -1.63533)
(21.861 0.897357 -1.85373)
(22.1308 0.889285 -1.77921)
(20.733 0.878659 -2.45994)
(39.9994 6.14044e-05 0.0535159)
(39.9866 -0.000145643 0.160239)
(39.9591 -2.04674e-05 0.268432)
(39.9158 -6.92536e-05 0.378005)
(39.8554 -0.000255948 0.490026)
(39.7791 -0.000370899 0.605329)
(39.6878 -0.000382511 0.724492)
(39.5803 -0.000366791 0.848125)
(39.4547 -0.00038797 0.976853)
(39.3099 -0.000466676 1.11131)
(39.1455 -0.000590415 1.25211)
(38.9613 -0.000725808 1.39987)
(38.7569 -0.000830221 1.55526)
(38.5316 -0.00085981 1.71906)
(38.285 -0.000817652 1.89226)
(38.0184 -0.00053258 2.07649)
(37.7326 -0.000266161 2.27155)
(37.4371 0.00119977 2.48245)
(37.1262 0.0021113 2.68326)
(36.7763 0.000665006 2.86978)
(36.3571 -0.00139751 3.0386)
(35.8476 -0.00292375 3.2549)
(35.1753 -0.00667932 3.4286)
(34.5081 -0.0159158 3.66026)
(33.8301 -0.0280767 4.05903)
(33.0011 -0.0327011 4.56055)
(31.901 -0.00757536 4.97594)
(30.6493 0.021495 5.19413)
(29.4319 0.0248682 5.36341)
(28.1996 0.0222121 5.43413)
(26.9936 0.0373052 5.33576)
(25.7771 0.0773611 5.04014)
(24.1989 0.188348 4.57357)
(23.006 0.579356 3.81316)
(11.3057 0.444115 -0.071806)
(10.7441 0.0284898 2.52661)
(10.9112 -0.327714 5.25812)
(10.245 0.502781 3.48872)
(10.9469 0.614168 2.93242)
(8.9277 -0.0388819 1.88248)
(12.6747 -0.399932 0.858929)
(12.7066 -0.506079 0.726869)
(12.5782 -0.351222 0.78944)
(12.9362 -0.206489 0.676987)
(13.3095 -0.105762 0.514134)
(13.4345 -0.0202707 0.359221)
(13.5538 0.104969 0.180997)
(13.5745 0.258104 -0.0591177)
(13.7666 0.312107 -0.393603)
(13.8649 0.282327 -0.643906)
(13.9919 0.19861 -0.906484)
(14.439 0.0836736 -1.30403)
(15.4228 0.00378192 -1.7684)
(16.5042 -0.712535 -3.02641)
(39.9995 6.14032e-05 0.0535118)
(39.9866 -0.000145636 0.160237)
(39.9591 -2.05015e-05 0.268419)
(39.9155 -6.91143e-05 0.377994)
(39.855 -0.000256529 0.490025)
(39.7789 -0.000372704 0.605332)
(39.6877 -0.00038461 0.724494)
(39.5802 -0.00036898 0.848127)
(39.4545 -0.000390118 0.976862)
(39.3096 -0.000469081 1.11133)
(39.1451 -0.000591692 1.25217)
(38.9609 -0.000725156 1.39997)
(38.7566 -0.000828959 1.5554)
(38.5315 -0.000857158 1.71922)
(38.2851 -0.000808721 1.8925)
(38.0187 -0.000528353 2.07631)
(37.7344 -0.000232092 2.27146)
(37.4383 0.0012044 2.47719)
(37.1295 0.002054 2.68326)
(36.7904 0.000695539 2.88508)
(36.374 -0.000523226 3.08152)
(35.9149 -0.00286061 3.28416)
(35.2591 -0.00861278 3.50444)
(34.5157 -0.0156323 3.71778)
(33.7671 -0.0293204 4.02661)
(32.865 -0.0332947 4.48821)
(31.7626 -0.00590554 4.84233)
(30.6881 0.0178089 5.17746)
(29.5714 0.0219359 5.42824)
(28.3764 0.0194046 5.47706)
(27.2059 0.0354319 5.31252)
(26.1257 0.0734766 5.02937)
(25.0502 0.204371 4.59641)
(24.0161 0.914687 3.97167)
(25.1163 2.66073 3.28654)
(11.4746 0.0377124 2.5086)
(12.4634 0.325154 0.916281)
(12.2242 1.2779 0.387951)
(11.0925 1.62347 0.718283)
(10.6355 1.41524 1.30157)
(11.6922 0.890088 1.53714)
(11.8001 0.690261 1.1932)
(11.3904 0.835782 0.755524)
(11.1084 1.0049 0.38234)
(11.1158 1.11631 0.130411)
(11.2149 1.20662 -0.0548761)
(11.4683 1.36521 -0.221369)
(11.8385 1.53785 -0.329846)
(12.1459 1.66831 -0.406521)
(12.4213 1.74758 -0.548011)
(12.683 1.81097 -0.760686)
(12.9622 1.87618 -0.928482)
(13.5924 1.95927 -1.03119)
(12.9762 1.45116 -1.58546)
(39.9994 5.8055e-05 0.0603291)
(39.9873 -0.000147922 0.180644)
(39.9612 -3.39525e-05 0.302732)
(39.9203 -8.18912e-05 0.42654)
(39.8631 -0.00026116 0.553278)
(39.7908 -0.000371025 0.68389)
(39.7043 -0.000380155 0.819081)
(39.6023 -0.000360421 0.959593)
(39.483 -0.000373739 1.10617)
(39.3451 -0.000440398 1.25948)
(39.1882 -0.000548622 1.42015)
(39.0122 -0.000666182 1.58866)
(38.8164 -0.000753486 1.76536)
(38.6004 -0.000777989 1.95052)
(38.3636 -0.000717623 2.14421)
(38.1067 -0.000561462 2.34655)
(37.8309 -0.000343293 2.5565)
(37.5398 3.57428e-05 2.77399)
(37.2342 -0.000372479 2.99291)
(36.9085 -0.0019193 3.21599)
(36.5476 -0.00424651 3.45536)
(36.1467 -0.00431198 3.75057)
(35.6943 -0.00101756 4.07091)
(35.0214 -0.0117113 4.41435)
(34.2795 -0.0268863 4.89563)
(33.5577 -0.0365453 5.54887)
(32.6581 -0.00933322 6.11075)
(31.4632 0.0362993 6.46915)
(30.005 0.0554267 6.66119)
(28.4236 0.0399637 6.65571)
(27.1031 0.0346593 6.40385)
(25.9765 0.046289 6.1214)
(24.7983 0.086813 6.10862)
(24.0067 0.390876 7.02582)
(22.3299 0.97211 9.25693)
(8.30019 0.0714008 2.58916)
(8.02752 0.633146 0.926421)
(2.1561 0.751351 -2.48154)
(-3.85294 -2.21888 -2.96518)
(-1.32367 -2.16684 -2.87918)
(-2.18606 -1.83339 -1.90541)
(0.0381308 -1.46463 -0.285469)
(1.59286 -1.17692 -0.346698)
(2.93483 -0.886684 -0.59885)
(4.7667 -0.874197 -1.15084)
(6.50142 -1.01396 -1.61457)
(8.20764 -1.07904 -1.84457)
(10.1032 -1.03545 -2.04749)
(11.9898 -1.04327 -2.29462)
(13.7388 -1.11627 -2.55911)
(15.3145 -1.21733 -2.87367)
(16.9319 -1.25018 -3.25711)
(18.6838 -1.25168 -3.66268)
(20.382 -1.34428 -4.5546)
(39.9996 5.80554e-05 0.0603247)
(39.9873 -0.000147922 0.180641)
(39.9612 -3.39543e-05 0.302718)
(39.92 -8.18922e-05 0.426528)
(39.8628 -0.000261148 0.553276)
(39.7906 -0.000371091 0.683895)
(39.7042 -0.000380009 0.819087)
(39.6022 -0.000361375 0.959602)
(39.4828 -0.000376415 1.10619)
(39.3448 -0.000443719 1.25952)
(39.1879 -0.000550888 1.42022)
(39.0118 -0.000666609 1.58876)
(38.8162 -0.000753303 1.76549)
(38.6002 -0.000777176 1.95065)
(38.3636 -0.000716587 2.14436)
(38.1069 -0.000557238 2.34652)
(37.8314 -0.000339664 2.55631)
(37.5396 5.5703e-05 2.77239)
(37.2317 -0.000350698 2.99093)
(36.904 -0.00194016 3.21518)
(36.5453 -0.00414442 3.46166)
(36.1517 -0.00447391 3.7476)
(35.7181 -8.33405e-05 4.13543)
(35.1098 -0.00963787 4.46301)
(34.2875 -0.0324459 4.88747)
(33.4677 -0.0400035 5.43859)
(32.3762 -0.0161013 5.94963)
(31.1493 0.0244383 6.34761)
(30.0138 0.0451836 6.62205)
(28.7568 0.029304 6.67701)
(27.3876 0.0295415 6.45122)
(26.1946 0.0453433 6.10548)
(25.1738 0.0918729 5.91995)
(23.9794 0.466672 6.25831)
(24.5886 1.87489 8.20223)
(22.1559 2.42871 8.74054)
(20.2729 2.17358 6.67537)
(17.3657 2.08105 4.02849)
(14.591 1.95494 2.46895)
(12.0451 1.68725 1.51789)
(9.76046 1.26473 0.825431)
(8.18038 0.870032 0.439188)
(7.25116 0.670675 0.161297)
(6.57243 0.823026 -0.0518682)
(6.09621 1.15338 -0.105322)
(5.92731 1.27354 -0.137081)
(6.29418 1.36939 -0.107403)
(7.07022 1.61591 -0.0721135)
(7.80531 1.79344 -0.0428871)
(8.44666 1.8166 -0.0492272)
(9.02169 1.70527 -0.178404)
(9.81885 1.64003 -0.421173)
(11.3549 1.66578 -0.642726)
(11.8884 1.36746 -1.28498)
(39.9995 5.69354e-05 0.0667129)
(39.988 -0.00014777 0.199763)
(39.9637 -3.4018e-05 0.33487)
(39.9256 -8.13059e-05 0.472043)
(39.8723 -0.000258694 0.61267)
(39.8047 -0.000368353 0.757829)
(39.7238 -0.000378773 0.908338)
(39.6282 -0.000359332 1.06505)
(39.5161 -0.000369845 1.22878)
(39.3861 -0.000430487 1.40028)
(39.2376 -0.000529673 1.58012)
(39.0704 -0.000635825 1.76868)
(38.8836 -0.000716497 1.96606)
(38.6764 -0.000738792 2.17207)
(38.4482 -0.000689725 2.38613)
(38.1991 -0.000570554 2.6073)
(37.9303 -0.00042534 2.8342)
(37.6444 -0.000306312 3.06558)
(37.3442 -0.000399163 3.29998)
(37.0319 -0.000751284 3.54239)
(36.7091 -0.00144905 3.80648)
(36.3748 -0.000346984 4.1277)
(36.038 0.000119522 4.52691)
(35.6491 0.0198544 5.06018)
(34.9491 0.0164267 5.70336)
(34.3115 -0.00355942 6.36076)
(33.622 -0.01264 6.96093)
(32.7591 -0.000625035 7.6655)
(31.5733 0.0462132 8.22601)
(30.0371 0.088402 8.36986)
(28.1565 0.0865287 7.77196)
(26.2149 0.0652712 7.0939)
(24.8272 0.0540911 6.95107)
(23.3906 0.135661 7.40005)
(24.3454 0.637162 10.7492)
(21.1718 0.498514 10.9162)
(17.7986 0.2349 8.06807)
(13.7114 -0.118994 4.66232)
(9.73942 -0.802773 1.86015)
(7.64787 -1.37695 -0.28377)
(7.14812 -1.86533 -1.69922)
(7.88674 -2.17993 -2.41487)
(9.23671 -2.18548 -2.69493)
(10.8039 -1.96251 -2.91935)
(12.6469 -1.73566 -3.2658)
(14.5253 -1.63341 -3.6295)
(16.3214 -1.56916 -3.8823)
(18.0155 -1.49343 -4.0408)
(19.5342 -1.43051 -4.16502)
(20.8243 -1.40278 -4.26548)
(21.9006 -1.37744 -4.36595)
(22.8594 -1.31348 -4.43747)
(23.8748 -1.21339 -4.54875)
(24.3738 -1.18461 -4.67645)
(39.9996 5.69358e-05 0.0667079)
(39.9881 -0.000147771 0.199759)
(39.9638 -3.40191e-05 0.334852)
(39.9253 -8.13086e-05 0.472026)
(39.8719 -0.000258681 0.612663)
(39.8045 -0.000368393 0.757828)
(39.7237 -0.000378551 0.908338)
(39.6281 -0.000360156 1.06505)
(39.5159 -0.000372436 1.22879)
(39.3858 -0.000433631 1.40031)
(39.2373 -0.000532433 1.58017)
(39.07 -0.000640798 1.76875)
(38.8833 -0.000721198 1.96615)
(38.6763 -0.000740675 2.17217)
(38.4482 -0.000694896 2.38622)
(38.1992 -0.000577012 2.60736)
(37.9304 -0.000427233 2.83416)
(37.6443 -0.00030388 3.06534)
(37.3436 -0.000383294 3.30032)
(37.0304 -0.000757664 3.54365)
(36.708 -0.00138892 3.81095)
(36.3767 -0.000760805 4.12564)
(36.0443 0.00166416 4.54123)
(35.7064 0.0148086 5.03298)
(35.1944 0.0101365 5.66909)
(34.4362 -0.00668378 6.31319)
(33.6266 -0.0206078 7.0643)
(32.38 -0.0054348 7.62689)
(31.0667 0.0378569 7.95199)
(29.7894 0.0733347 8.09368)
(28.36 0.0834194 7.9358)
(26.7424 0.0573423 7.35425)
(25.1531 0.0556932 6.92193)
(23.5996 0.0506697 7.30782)
(23.1973 0.580964 9.06279)
(24.122 1.18517 10.2846)
(24.414 1.45261 9.64943)
(23.4008 1.4722 7.93774)
(21.6107 1.42486 6.00634)
(19.4942 1.30217 4.30123)
(17.3138 1.13453 2.98209)
(15.5186 0.937892 2.05388)
(14.3235 0.781875 1.38933)
(13.5034 0.794435 0.891591)
(12.9773 0.904243 0.459847)
(12.784 0.944814 0.0787587)
(12.9583 0.95606 -0.185909)
(13.5352 0.97754 -0.356561)
(14.3033 0.966304 -0.489426)
(15.0951 0.879345 -0.617308)
(15.9281 0.749254 -0.735046)
(16.9091 0.647678 -0.879493)
(18.1085 0.620953 -1.05354)
(18.6274 0.403162 -1.646)
(39.9995 5.30675e-05 0.072587)
(39.989 -0.000151695 0.21736)
(39.9667 -5.10838e-05 0.364469)
(39.9318 -9.87993e-05 0.514004)
(39.8829 -0.000268831 0.667534)
(39.8208 -0.000373027 0.82628)
(39.7463 -0.00038097 0.991185)
(39.6581 -0.000359936 1.16323)
(39.5542 -0.000367113 1.34336)
(39.4331 -0.000421336 1.53241)
(39.2941 -0.000512106 1.731)
(39.1365 -0.000610634 1.93946)
(38.9593 -0.000683268 2.15773)
(38.7611 -0.00069901 2.38526)
(38.5408 -0.000647906 2.62088)