/*--------------------------------*- C++ -*----------------------------------*\
| =========                 |                                                 |
| \\      /  F ield         | OpenFOAM: The Open Source CFD Toolbox           |
|  \\    /   O peration     | Version:  4.1                                   |
|   \\  /    A nd           | Web:      www.OpenFOAM.org                      |
|    \\/     M anipulation  |                                                 |
\*---------------------------------------------------------------------------*/
FoamFile
{
    version     2.0;
    format      ascii;
    class       surfaceScalarField;
    location    "49";
    object      phi;
}
// * * * * * * * * * * * * * * * * * * * * * * * * * * * * * * * * * * * * * //

dimensions      [0 3 -1 0 0 0 0];

internalField   nonuniform List<scalar> 
11516
(
-4.55235e+10
-2.34667e+08
-3.02425e+08
-4.50903e+10
-2.2911e+08
-2.73977e+08
-4.48114e+10
-2.20888e+08
-1.18309e+08
-4.42905e+10
-3.13321e+08
-2.58632e+08
-4.39929e+10
-1.97962e+08
-1.43943e+08
-4.3758e+10
-2.05528e+08
-6.80935e+07
-4.35048e+10
-2.23484e+08
-6.52679e+07
-4.32955e+10
-2.15799e+08
-2.71294e+07
-4.31022e+10
-2.13843e+08
-1.2025e+07
-4.29234e+10
-2.09882e+08
-943306
-4.2755e+10
-2.05628e+08
4.84937e+06
-4.25903e+10
-2.02573e+08
3.98132e+06
-4.242e+10
-2.01973e+08
-6.85535e+06
-4.22396e+10
-2.03168e+08
-2.44722e+07
-4.20428e+10
-2.0517e+08
-5.09378e+07
-4.18247e+10
-2.07742e+08
-8.35707e+07
-4.15777e+10
-2.10148e+08
-1.19463e+08
-4.12924e+10
-2.12583e+08
-1.61847e+08
-4.09628e+10
-2.15003e+08
-2.06802e+08
-4.05854e+10
-2.17494e+08
-2.55135e+08
-4.0156e+10
-2.20077e+08
-3.04752e+08
-3.96766e+10
-2.2245e+08
-3.49505e+08
-3.91461e+10
-2.24265e+08
-3.92194e+08
-3.85749e+10
-2.25642e+08
-4.24426e+08
-3.79715e+10
-2.26642e+08
-4.50406e+08
-3.73541e+10
-2.27338e+08
-4.62308e+08
-3.67355e+10
-2.27638e+08
-4.65473e+08
-3.61334e+10
-2.27373e+08
-4.53833e+08
-3.55586e+10
-2.26429e+08
-4.33377e+08
-3.50227e+10
-2.24866e+08
-4.02572e+08
-3.45351e+10
-2.22843e+08
-3.62912e+08
-3.4101e+10
-2.20817e+08
-3.17931e+08
-3.37285e+10
-2.19167e+08
-2.63747e+08
-3.34213e+10
-2.18191e+08
-2.0448e+08
-3.31818e+10
-2.1821e+08
-1.40174e+08
-3.30127e+10
-2.19836e+08
-7.00753e+07
-3.29114e+10
-2.23448e+08
1.63725e+06
-3.28808e+10
-2.29428e+08
8.07069e+07
-3.29229e+10
-2.38774e+08
1.67273e+08
-3.30428e+10
-2.53508e+08
2.65925e+08
-3.3246e+10
-2.76569e+08
3.79726e+08
-3.35398e+10
-3.09524e+08
5.12179e+08
-3.39384e+10
-3.51919e+08
6.69927e+08
-3.44613e+10
-4.05498e+08
8.59856e+08
-3.51407e+10
-4.73633e+08
1.09089e+09
-3.60358e+10
-5.60705e+08
1.37433e+09
-3.72364e+10
-6.74705e+08
1.71992e+09
-3.88187e+10
-8.46353e+08
2.09178e+09
-4.07629e+10
-1.15722e+09
2.48456e+09
-4.29472e+10
-1.75261e+09
2.90861e+09
-4.6179e+10
-2.29993e+09
4.09188e+09
-5.29297e+10
-1.8093e+09
7.32461e+09
-6.6031e+10
-5.22223e+09
1.7584e+10
2.24512e+09
1.02386e+10
-5.60543e+10
-4.96806e+08
-5.58017e+10
-5.19251e+08
-5.55874e+10
-4.68698e+08
-5.54974e+10
-4.32611e+08
-5.52766e+10
-4.43745e+08
-5.51215e+10
-3.82595e+08
-5.49901e+10
-3.75338e+08
-5.48753e+10
-3.50095e+08
-5.47645e+10
-3.43722e+08
-5.46566e+10
-3.36504e+08
-5.4547e+10
-3.3431e+08
-5.44333e+10
-3.36505e+08
-5.43095e+10
-3.48667e+08
-5.41749e+10
-3.65954e+08
-5.40244e+10
-3.90586e+08
-5.38534e+10
-4.20215e+08
-5.36578e+10
-4.52034e+08
-5.34302e+10
-4.89384e+08
-5.31685e+10
-5.27682e+08
-5.28693e+10
-5.68676e+08
-5.25298e+10
-6.10827e+08
-5.21533e+10
-6.47958e+08
-5.17384e+10
-6.8442e+08
-5.12944e+10
-7.11065e+08
-5.0826e+10
-7.33759e+08
-5.03471e+10
-7.44075e+08
-4.98643e+10
-7.4895e+08
-4.93907e+10
-7.41357e+08
-4.89317e+10
-7.28284e+08
-4.84945e+10
-7.07391e+08
-4.80852e+10
-6.80111e+08
-4.77052e+10
-6.51134e+08
-4.73601e+10
-6.16495e+08
-4.70514e+10
-5.80391e+08
-4.67817e+10
-5.42106e+08
-4.65544e+10
-5.00823e+08
-4.63699e+10
-4.60286e+08
-4.62338e+10
-4.15304e+08
-4.61499e+10
-3.69061e+08
-4.61278e+10
-3.17543e+08
-4.61803e+10
-2.6099e+08
-4.63231e+10
-1.97714e+08
-4.65767e+10
-1.22352e+08
-4.69686e+10
-3.03042e+07
-4.75427e+10
8.63654e+07
-4.83693e+10
2.39896e+08
-4.95644e+10
4.46118e+08
-5.12805e+10
7.02815e+08
-5.38163e+10
1.0496e+09
-5.77761e+10
1.66716e+09
-6.43556e+10
3.69186e+09
-7.40077e+10
7.20372e+09
-9.44939e+10
1.48134e+10
1.48209e+10
-6.44081e+10
3.39733e+07
-3.93206e+08
-6.44898e+10
-1.681e+07
-2.12878e+08
-6.45291e+10
-3.55688e+07
-8.06693e+07
-6.46449e+10
-1.25908e+07
-1.63358e+08
-6.4638e+10
-3.39773e+07
-1.45421e+08
-6.46592e+10
-2.75728e+07
-4.47619e+07
-6.46964e+10
-2.98495e+07
-2.23082e+07
-6.47193e+10
-2.90929e+07
1.66944e+06
-6.4742e+10
-3.20176e+07
2.01323e+07
-6.47684e+10
-3.07399e+07
3.40225e+07
-6.47903e+10
-3.13911e+07
3.61823e+07
-6.48034e+10
-3.26672e+07
2.72306e+07
-6.48062e+10
-3.53142e+07
6.21021e+06
-6.47961e+10
-3.87368e+07
-2.54328e+07
-6.47725e+10
-4.31641e+07
-6.91666e+07
-6.4734e+10
-4.84102e+07
-1.19895e+08
-6.46761e+10
-5.38103e+07
-1.77012e+08
-6.46001e+10
-5.87584e+07
-2.36732e+08
-6.45048e+10
-6.38838e+07
-2.97337e+08
-6.43916e+10
-6.90791e+07
-3.59106e+08
-6.42622e+10
-7.45966e+07
-4.18518e+08
-6.41168e+10
-8.03073e+07
-4.71227e+08
-6.39598e+10
-8.61005e+07
-5.15143e+08
-6.37899e+10
-9.20579e+07
-5.48558e+08
-6.36168e+10
-9.81907e+07
-5.66028e+08
-6.34399e+10
-1.046e+08
-5.71753e+08
-6.32681e+10
-1.11209e+08
-5.61658e+08
-6.31002e+10
-1.17881e+08
-5.39756e+08
-6.29403e+10
-1.2441e+08
-5.05716e+08
-6.27844e+10
-1.30641e+08
-4.65837e+08
-6.2631e+10
-1.36531e+08
-4.18842e+08
-6.24762e+10
-1.42164e+08
-3.69954e+08
-6.23122e+10
-1.47617e+08
-3.1921e+08
-6.21341e+10
-1.52484e+08
-2.67883e+08
-6.19325e+10
-1.56584e+08
-2.20448e+08
-6.17026e+10
-1.59498e+08
-1.71732e+08
-6.14452e+10
-1.59655e+08
-1.21867e+08
-6.1156e+10
-1.56531e+08
-7.02629e+07
-6.0827e+10
-1.50559e+08
-2.05432e+07
-6.04461e+10
-1.41681e+08
2.7925e+07
-5.99967e+10
-1.30705e+08
7.4237e+07
-5.94642e+10
-1.17872e+08
1.24023e+08
-5.88274e+10
-1.01786e+08
1.7604e+08
-5.80672e+10
-8.0972e+07
2.37895e+08
-5.7164e+10
-5.39892e+07
3.12936e+08
-5.60931e+10
-1.96096e+07
3.98837e+08
-5.48108e+10
2.27166e+07
4.73035e+08
-5.32964e+10
7.42928e+07
5.12253e+08
-5.15292e+10
1.07299e+08
5.21282e+08
-4.99747e+10
2.57591e+08
9.00237e+08
-4.85785e+10
9.26744e+08
1.48406e+09
-4.36198e+10
1.49943e+09
5.41122e+08
-1.60734e+10
-4.20236e+09
-5.88959e+09
-4.00735e+09
-3.96442e+09
-6.94971e+10
-5.62279e+08
-6.95735e+10
-4.84243e+08
-6.96716e+10
-4.28584e+08
-6.97761e+10
-3.60414e+08
-6.9875e+10
-3.96458e+08
-6.99679e+10
-3.33659e+08
-7.00815e+10
-3.07234e+08
-7.01819e+10
-2.93849e+08
-7.02865e+10
-2.8591e+08
-7.03908e+10
-2.7741e+08
-7.04919e+10
-2.7905e+08
-7.05859e+10
-2.90211e+08
-7.06751e+10
-3.11642e+08
-7.07588e+10
-3.41288e+08
-7.08367e+10
-3.81034e+08
-7.09092e+10
-4.26442e+08
-7.09713e+10
-4.78264e+08
-7.10226e+10
-5.33804e+08
-7.1061e+10
-5.91073e+08
-7.10872e+10
-6.4965e+08
-7.11029e+10
-7.06914e+08
-7.11082e+10
-7.58557e+08
-7.11079e+10
-8.03503e+08
-7.11002e+10
-8.39843e+08
-7.10957e+10
-8.62184e+08
-7.10925e+10
-8.7527e+08
-7.11004e+10
-8.7466e+08
-7.11176e+10
-8.64307e+08
-7.11498e+10
-8.43183e+08
-7.11937e+10
-8.17429e+08
-7.12491e+10
-7.84842e+08
-7.13147e+10
-7.513e+08
-7.13846e+10
-7.17238e+08
-7.14568e+10
-6.82514e+08
-7.15246e+10
-6.5069e+08
-7.15819e+10
-6.19889e+08
-7.16217e+10
-5.92923e+08
-7.16327e+10
-5.68507e+08
-7.16051e+10
-5.48606e+08
-7.15268e+10
-5.31658e+08
-7.13855e+10
-5.1909e+08
-7.11734e+10
-5.0481e+08
-7.08705e+10
-4.94252e+08
-7.04507e+10
-4.87963e+08
-6.98801e+10
-4.86581e+08
-6.9112e+10
-4.9558e+08
-6.80654e+10
-5.39763e+08
-6.66425e+10
-6.46508e+08
-6.47897e+10
-7.57425e+08
-6.22868e+10
-7.05857e+08
-5.65006e+10
-1.37666e+09
-4.42975e+10
-3.60667e+09
-2.67759e+10
-6.84216e+09
-5.69434e+09
-5.28684e+10
6.3173e+07
-1.07153e+09
-5.25556e+10
1.41763e+08
-6.93409e+08
-5.22294e+10
1.10507e+08
-5.43089e+08
-5.22047e+10
1.53812e+08
-3.66919e+08
-5.20891e+10
1.0473e+08
-3.90122e+08
-5.1989e+10
1.26579e+08
-2.95536e+08
-5.19581e+10
1.35746e+08
-2.12066e+08
-5.19418e+10
1.38937e+08
-1.75745e+08
-5.19189e+10
1.34682e+08
-1.58638e+08
-5.18857e+10
1.34551e+08
-1.54119e+08
-5.18407e+10
1.32929e+08
-1.61948e+08
-5.17868e+10
1.32173e+08
-1.79797e+08
-5.17229e+10
1.3082e+08
-2.1166e+08
-5.1648e+10
1.29584e+08
-2.57672e+08
-5.15669e+10
1.29367e+08
-3.15501e+08
-5.14756e+10
1.28944e+08
-3.84009e+08
-5.13732e+10
1.2824e+08
-4.61507e+08
-5.125e+10
1.26835e+08
-5.44369e+08
-5.10969e+10
1.24637e+08
-6.35614e+08
-5.09103e+10
1.22922e+08
-7.2724e+08
-5.06927e+10
1.2076e+08
-8.15314e+08
-5.04416e+10
1.18651e+08
-8.96178e+08
-5.01634e+10
1.1622e+08
-9.60899e+08
-4.98628e+10
1.13802e+08
-1.00643e+09
-4.95459e+10
1.11004e+08
-1.02904e+09
-4.92253e+10
1.07565e+08
-1.02794e+09
-4.89108e+10
1.03302e+08
-1.00297e+09
-4.86116e+10
9.82313e+07
-9.58462e+08
-4.83335e+10
9.2439e+07
-8.96373e+08
-4.80839e+10
8.60216e+07
-8.20571e+08
-4.78631e+10
7.91877e+07
-7.36638e+08
-4.76769e+10
7.23133e+07
-6.44004e+08
-4.75251e+10
6.53401e+07
-5.48468e+08
-4.74089e+10
5.78437e+07
-4.48808e+08
-4.73341e+10
4.93254e+07
-3.44392e+08
-4.72949e+10
3.89493e+07
-2.40011e+08
-4.72834e+10
2.51077e+07
-1.36397e+08
-4.72913e+10
7.20337e+06
-3.20913e+07
-4.73146e+10
-1.38855e+07
7.25065e+07
-4.73444e+10
-3.82298e+07
1.73084e+08
-4.73763e+10
-6.43411e+07
2.71607e+08
-4.73946e+10
-8.90571e+07
3.59863e+08
-4.738e+10
-1.13266e+08
4.3341e+08
-4.72964e+10
-1.42462e+08
4.89202e+08
-4.71028e+10
-1.79157e+08
5.22565e+08
-4.6761e+10
-2.26699e+08
5.26931e+08
-4.62567e+10
-2.94993e+08
4.97042e+08
-4.55996e+10
-4.07283e+08
4.35943e+08
-4.4832e+10
-5.57545e+08
4.04353e+08
-4.39056e+10
-5.70774e+08
5.38684e+08
-4.30975e+10
-4.5023e+08
1.13095e+09
-4.36965e+10
-4.80741e+08
1.92625e+09
-5.35013e+10
-7.65853e+09
1.20182e+10
-5.32633e+09
8.61093e+09
-5.85788e+10
-9.61441e+08
-5.82808e+10
-6.54564e+08
-5.80786e+10
-5.35514e+08
-5.79156e+10
-3.85348e+08
-5.78644e+10
-3.58993e+08
-5.78007e+10
-2.86597e+08
-5.7774e+10
-2.1325e+08
-5.7756e+10
-1.8714e+08
-5.77513e+10
-1.69505e+08
-5.7744e+10
-1.63194e+08
-5.77377e+10
-1.65617e+08
-5.77301e+10
-1.7947e+08
-5.7719e+10
-2.07674e+08
-5.77001e+10
-2.49596e+08
-5.76741e+10
-3.01291e+08
-5.7637e+10
-3.63609e+08
-5.7586e+10
-4.34426e+08
-5.75188e+10
-5.10367e+08
-5.7429e+10
-5.93061e+08
-5.73157e+10
-6.76338e+08
-5.71813e+10
-7.55758e+08
-5.70248e+10
-8.29771e+08
-5.68531e+10
-8.8892e+08
-5.66729e+10
-9.31418e+08
-5.64905e+10
-9.53617e+08
-5.63188e+10
-9.55082e+08
-5.6167e+10
-9.35846e+08
-5.60435e+10
-9.00575e+08
-5.59531e+10
-8.5091e+08
-5.59028e+10
-7.90546e+08
-5.58907e+10
-7.25164e+08
-5.59217e+10
-6.53409e+08
-5.59941e+10
-5.82151e+08
-5.61072e+10
-5.10334e+08
-5.62658e+10
-4.3628e+08
-5.64687e+10
-3.64813e+08
-5.67211e+10
-2.93734e+08
-5.70288e+10
-2.21598e+08
-5.73973e+10
-1.49683e+08
-5.78275e+10
-8.16879e+07
-5.83171e+10
-2.02275e+07
-5.88407e+10
2.05607e+07
-5.93839e+10
4.58238e+07
-5.9935e+10
5.14193e+07
-6.04856e+10
3.43699e+07
-6.10376e+10
-1.11092e+07
-6.16394e+10
-8.28556e+07
-6.2416e+10
-1.57852e+08
-6.35211e+10
-1.3096e+08
-6.48677e+10
1.24595e+08
-6.79941e+10
1.50471e+09
-7.61047e+10
4.43099e+09
-1.03294e+11
1.32099e+10
7.35817e+09
-5.64724e+10
-2.25689e+08
-1.14844e+09
-5.63457e+10
-1.81027e+08
-6.48678e+08
-5.6145e+10
-1.65362e+08
-5.9299e+08
-5.59995e+10
-1.76549e+08
-3.54321e+08
-5.59347e+10
-1.83328e+08
-2.92282e+08
-5.5856e+10
-1.67694e+08
-2.27253e+08
-5.57784e+10
-1.47916e+08
-1.61162e+08
-5.57173e+10
-1.42215e+08
-1.12244e+08
-5.56697e+10
-1.42651e+08
-7.99561e+07
-5.56301e+10
-1.42174e+08
-6.7058e+07
-5.55915e+10
-1.43374e+08
-7.27191e+07
-5.55519e+10
-1.44092e+08
-9.19245e+07
-5.5509e+10
-1.4524e+08
-1.28122e+08
-5.54623e+10
-1.46761e+08
-1.80538e+08
-5.54058e+10
-1.48451e+08
-2.507e+08
-5.53422e+10
-1.50877e+08
-3.32218e+08
-5.52688e+10
-1.53177e+08
-4.23622e+08
-5.51809e+10
-1.56181e+08
-5.23848e+08
-5.50772e+10
-1.58829e+08
-6.29064e+08
-5.4954e+10
-1.61319e+08
-7.36735e+08
-5.48116e+10
-1.63305e+08
-8.39322e+08
-5.46545e+10
-1.64936e+08
-9.30792e+08
-5.44868e+10
-1.65678e+08
-1.0009e+09
-5.43156e+10
-1.6521e+08
-1.04268e+09
-5.41475e+10
-1.63521e+08
-1.05415e+09
-5.39929e+10
-1.60875e+08
-1.03257e+09
-5.38588e+10
-1.5769e+08
-9.82794e+08
-5.37499e+10
-1.5437e+08
-9.11182e+08
-5.3667e+10
-1.51275e+08
-8.22302e+08
-5.36048e+10
-1.48636e+08
-7.2487e+08
-5.35603e+10
-1.46209e+08
-6.21708e+08
-5.35246e+10
-1.4346e+08
-5.17885e+08
-5.34921e+10
-1.40585e+08
-4.15603e+08
-5.3452e+10
-1.3779e+08
-3.17972e+08
-5.3392e+10
-1.34811e+08
-2.25823e+08
-5.33036e+10
-1.33243e+08
-1.38193e+08
-5.31751e+10
-1.32531e+08
-5.91678e+07
-5.29956e+10
-1.32555e+08
1.32319e+07
-5.27573e+10
-1.33465e+08
8.21183e+07
-5.2459e+10
-1.35068e+08
1.49011e+08
-5.20991e+10
-1.3911e+08
2.173e+08
-5.16797e+10
-1.45337e+08
2.82317e+08
-5.12043e+10
-1.5226e+08
3.40159e+08
-5.06771e+10
-1.60407e+08
3.87657e+08
-5.00944e+10
-1.71638e+08
4.11259e+08
-4.94569e+10
-1.87702e+08
4.02688e+08
-4.87629e+10
-2.09869e+08
3.47343e+08
-4.79743e+10
-2.44545e+08
2.25186e+08
-4.69915e+10
-2.51001e+08
3.09789e+06
-4.57038e+10
-3.48469e+07
-3.09303e+08
-4.39347e+10
7.20282e+08
-8.19136e+08
-4.04858e+10
1.66118e+09
-2.50776e+09
-2.1988e+10
-6.39257e+09
4.82651e+08
-6.01319e+09
4.15325e+09
-6.29557e+10
-1.31412e+09
-6.29588e+10
-8.40357e+08
-6.29493e+10
-7.2028e+08
-6.29281e+10
-5.94975e+08
-6.29558e+10
-5.2753e+08
-6.29663e+10
-4.56563e+08
-6.29471e+10
-3.92457e+08
-6.29352e+10
-3.5246e+08
-6.29324e+10
-3.25529e+08
-6.29298e+10
-3.18268e+08
-6.29254e+10
-3.23793e+08
-6.2917e+10
-3.43404e+08
-6.29042e+10
-3.78781e+08
-6.28869e+10
-4.29204e+08
-6.28594e+10
-4.96252e+08
-6.28249e+10
-5.7213e+08
-6.27831e+10
-6.57127e+08
-6.27298e+10
-7.50383e+08
-6.26661e+10
-8.47098e+08
-6.25887e+10
-9.45659e+08
-6.24991e+10
-1.03811e+09
-6.24014e+10
-1.12006e+09
-6.22998e+10
-1.18108e+09
-6.22016e+10
-1.21511e+09
-6.21132e+10
-1.22002e+09
-6.20453e+10
-1.1927e+09
-6.20055e+10
-1.13803e+09
-6.19998e+10
-1.0623e+09
-6.2032e+10
-9.69565e+08
-6.21002e+10
-8.68488e+08
-6.22053e+10
-7.61424e+08
-6.23407e+10
-6.53737e+08
-6.25045e+10
-5.47316e+08
-6.26909e+10
-4.4499e+08
-6.2891e+10
-3.47983e+08
-6.31028e+10
-2.55029e+08
-6.3317e+10
-1.71018e+08
-6.35247e+10
-9.37729e+07
-6.37197e+10
-2.20217e+07
-6.38976e+10
4.22345e+07
-6.40612e+10
1.01683e+08
-6.42232e+10
1.52817e+08
-6.43871e+10
1.92733e+08
-6.45583e+10
2.18009e+08
-6.47347e+10
2.13189e+08
-6.4913e+10
1.65045e+08
-6.50728e+10
5.34781e+07
-6.51528e+10
-1.40943e+08
-6.48966e+10
-4.48491e+08
-6.35885e+10
-9.65115e+08
-5.8962e+10
-2.01798e+09
-5.1178e+10
-1.16945e+09
-5.21941e+10
8.12375e+09
5.61657e+09
-5.49903e+10
-5.00649e+07
-1.25821e+09
-5.47641e+10
-9.2805e+07
-7.86828e+08
-5.46163e+10
-1.0453e+08
-6.44093e+08
-5.44031e+10
-1.03361e+08
-4.76097e+08
-5.42627e+10
-9.60628e+07
-3.51254e+08
-5.41527e+10
-8.28382e+07
-2.7004e+08
-5.40531e+10
-7.25571e+07
-2.03505e+08
-5.39617e+10
-6.78181e+07
-1.50351e+08
-5.38769e+10
-6.43402e+07
-1.1387e+08
-5.3796e+10
-6.19776e+07
-9.88805e+07
-5.37189e+10
-6.21021e+07
-1.01098e+08
-5.36423e+10
-6.34355e+07
-1.19951e+08
-5.35645e+10
-6.52221e+07
-1.58395e+08
-5.34752e+10
-6.8551e+07
-2.22543e+08
-5.33702e+10
-7.34007e+07
-3.08284e+08
-5.32436e+10
-8.05846e+07
-4.1149e+08
-5.30868e+10
-8.95758e+07
-5.30557e+08
-5.28959e+10
-1.0105e+08
-6.63073e+08
-5.26603e+10
-1.1342e+08
-8.02291e+08
-5.23749e+10
-1.27581e+08
-9.47631e+08
-5.20324e+10
-1.42623e+08
-1.08914e+09
-5.16338e+10
-1.59471e+08
-1.22061e+09
-5.11813e+10
-1.76577e+08
-1.32419e+09
-5.06838e+10
-1.93626e+08
-1.38876e+09
-5.01553e+10
-2.09721e+08
-1.40585e+09
-4.96112e+10
-2.24953e+08
-1.37503e+09
-4.90681e+10
-2.39782e+08
-1.30208e+09
-4.85375e+10
-2.54669e+08
-1.19827e+09
-4.80257e+10
-2.70164e+08
-1.07232e+09
-4.75338e+10
-2.86721e+08
-9.36141e+08
-4.70597e+10
-3.04447e+08
-7.94994e+08
-4.65993e+10
-3.23121e+08
-6.55679e+08
-4.61459e+10
-3.42951e+08
-5.21962e+08
-4.56946e+10
-3.64578e+08
-3.94462e+08
-4.52391e+10
-3.88177e+08
-2.74519e+08
-4.47709e+10
-4.13739e+08
-1.63397e+08
-4.42859e+10
-4.41039e+08
-6.01356e+07
-4.37746e+10
-4.70605e+08
3.17877e+07
-4.3224e+10
-5.03927e+08
1.13946e+08
-4.26114e+10
-5.43569e+08
1.79934e+08
-4.19057e+10
-5.90028e+08
2.2564e+08
-4.10792e+10
-6.4333e+08
2.49778e+08
-4.01014e+10
-7.03566e+08
2.45818e+08
-3.89388e+10
-7.73515e+08
2.08342e+08
-3.75569e+10
-8.5767e+08
1.22953e+08
-3.59237e+10
-9.59603e+08
-2.28598e+07
-3.40068e+10
-1.08159e+09
-2.44915e+08
-3.17706e+10
-1.22821e+09
-5.65655e+08
-2.91967e+10
-1.36846e+09
-9.74855e+08
-2.63753e+10
-1.39858e+09
-1.46763e+09
-2.38845e+10
-7.1978e+08
-2.16865e+09
-2.83203e+10
3.31887e+09
-8.91241e+08
-2.00484e+10
-2.40617e+09
-5.16791e+09
-4.87555e+09
-3.2248e+09
-5.63747e+10
-1.39208e+09
-5.636e+10
-9.49195e+08
-5.63596e+10
-8.29656e+08
-5.63513e+10
-7.13654e+08
-5.63782e+10
-6.05651e+08
-5.64085e+10
-5.18807e+08
-5.64213e+10
-4.61927e+08
-5.64316e+10
-4.19359e+08
-5.64421e+10
-3.88217e+08
-5.64538e+10
-3.77363e+08
-5.64656e+10
-3.83463e+08
-5.64748e+10
-4.08469e+08
-5.648e+10
-4.51809e+08
-5.64746e+10
-5.19174e+08
-5.64567e+10
-6.06997e+08
-5.64228e+10
-7.10892e+08
-5.63676e+10
-8.31527e+08
-5.62884e+10
-9.64516e+08
-5.61801e+10
-1.10536e+09
-5.60386e+10
-1.25152e+09
-5.58613e+10
-1.39482e+09
-5.56492e+10
-1.52774e+09
-5.54073e+10
-1.63421e+09
-5.51441e+10
-1.7027e+09
-5.48737e+10
-1.72518e+09
-5.461e+10
-1.7012e+09
-5.43675e+10
-1.63627e+09
-5.41569e+10
-1.54138e+09
-5.39847e+10
-1.42479e+09
-5.38536e+10
-1.29843e+09
-5.37634e+10
-1.16749e+09
-5.37121e+10
-1.03846e+09
-5.36963e+10
-9.14492e+08
-5.37144e+10
-7.97015e+08
-5.37632e+10
-6.88949e+08
-5.38379e+10
-5.90049e+08
-5.39389e+10
-5.0015e+08
-5.40609e+10
-4.22927e+08
-5.42015e+10
-3.56015e+08
-5.43591e+10
-3.03112e+08
-5.45255e+10
-2.69034e+08
-5.46907e+10
-2.58691e+08
-5.48397e+10
-2.81054e+08
-5.49572e+10
-3.43971e+08
-5.50348e+10
-4.64902e+08
-5.50689e+10
-6.60805e+08
-5.50564e+10
-9.5758e+08
-5.49801e+10
-1.38396e+09
-5.4764e+10
-1.97795e+09
-5.42244e+10
-2.80285e+09
-5.24183e+10
-4.35147e+09
-4.32877e+10
-6.80074e+09
-2.45155e+10
-1.30296e+10
-5.12399e+09
-5.7353e+10
1.85378e+08
-1.35064e+09
-5.73748e+10
1.81769e+08
-9.42364e+08
-5.73951e+10
1.73641e+08
-7.97349e+08
-5.73988e+10
1.82492e+08
-6.58915e+08
-5.74008e+10
1.85467e+08
-5.42173e+08
-5.74139e+10
1.92018e+08
-4.58389e+08
-5.74315e+10
1.97743e+08
-3.93887e+08
-5.74511e+10
2.03072e+08
-3.44056e+08
-5.74718e+10
2.08548e+08
-3.11456e+08
-5.74945e+10
2.12481e+08
-2.98537e+08
-5.75167e+10
2.16421e+08
-3.06024e+08
-5.75358e+10
2.19927e+08
-3.34056e+08
-5.75517e+10
2.24338e+08
-3.83913e+08
-5.75628e+10
2.28321e+08
-4.61175e+08
-5.75672e+10
2.31479e+08
-5.62449e+08
-5.75576e+10
2.33971e+08
-6.86781e+08
-5.75339e+10
2.35001e+08
-8.30846e+08
-5.74898e+10
2.35618e+08
-9.91572e+08
-5.74222e+10
2.353e+08
-1.16163e+09
-5.73253e+10
2.35114e+08
-1.33776e+09
-5.71955e+10
2.34047e+08
-1.51318e+09
-5.7031e+10
2.3262e+08
-1.67806e+09
-5.68365e+10
2.30515e+08
-1.80955e+09
-5.66225e+10
2.28379e+08
-1.88805e+09
-5.64055e+10
2.26456e+08
-1.89996e+09
-5.62008e+10
2.24289e+08
-1.84821e+09
-5.60219e+10
2.21265e+08
-1.74254e+09
-5.58763e+10
2.16791e+08
-1.59969e+09
-5.57631e+10
2.10412e+08
-1.43584e+09
-5.56808e+10
2.01991e+08
-1.26217e+09
-5.56217e+10
1.91487e+08
-1.08961e+09
-5.55776e+10
1.78866e+08
-9.24618e+08
-5.55414e+10
1.63888e+08
-7.69524e+08
-5.55039e+10
1.46437e+08
-6.26618e+08
-5.54584e+10
1.26196e+08
-4.94103e+08
-5.53977e+10
1.02897e+08
-3.73415e+08
-5.53154e+10
7.64311e+07
-2.62464e+08
-5.52074e+10
4.73729e+07
-1.63109e+08
-5.50663e+10
1.51029e+07
-7.67612e+07
-5.48907e+10
-2.048e+07
-3.73649e+06
-5.46803e+10
-5.97653e+07
5.28921e+07
-5.44357e+10
-1.04864e+08
9.51783e+07
-5.41572e+10
-1.58182e+08
1.16616e+08
-5.38433e+10
-2.21202e+08
1.09853e+08
-5.35054e+10
-2.96176e+08
6.86369e+07
-5.315e+10
-3.86523e+08
-2.64891e+07
-5.27837e+10
-4.97633e+08
-1.9513e+08
-5.23882e+10
-6.34654e+08
-4.68868e+08
-5.18509e+10
-8.01342e+08
-9.08927e+08
-5.09493e+10
-8.44265e+08
-1.70345e+09
-4.92501e+10
-5.31965e+08
-3.53346e+09
-4.28659e+10
-7.86345e+08
-6.67936e+09
-2.46114e+10
-8.62215e+09
-1.49827e+10
-6.34261e+09
-6.41589e+09
-5.53473e+10
-1.16614e+09
-5.53663e+10
-7.46958e+08
-5.53942e+10
-6.28958e+08
-5.54233e+10
-5.05433e+08
-5.547e+10
-3.78902e+08
-5.55245e+10
-2.7889e+08
-5.5588e+10
-2.07766e+08
-5.5658e+10
-1.53425e+08
-5.57285e+10
-1.16241e+08
-5.58035e+10
-9.73125e+07
-5.58803e+10
-9.86886e+07
-5.59589e+10
-1.2049e+08
-5.60348e+10
-1.6496e+08
-5.61055e+10
-2.36893e+08
-5.61682e+10
-3.33115e+08
-5.62166e+10
-4.53395e+08
-5.62483e+10
-5.94659e+08
-5.62583e+10
-7.54401e+08
-5.62417e+10
-9.26023e+08
-5.61938e+10
-1.10577e+09
-5.61091e+10
-1.28757e+09
-5.59853e+10
-1.4615e+09
-5.58255e+10
-1.6054e+09
-5.56397e+10
-1.69886e+09
-5.54451e+10
-1.72772e+09
-5.52587e+10
-1.6941e+09
-5.50958e+10
-1.6067e+09
-5.49674e+10
-1.48173e+09
-5.48766e+10
-1.33511e+09
-5.48267e+10
-1.17813e+09
-5.48149e+10
-1.02152e+09
-5.48387e+10
-8.71191e+08
-5.48967e+10
-7.29309e+08
-5.49855e+10
-5.99361e+08
-5.51049e+10
-4.80871e+08
-5.52534e+10
-3.75508e+08
-5.54299e+10
-2.82549e+08
-5.56351e+10
-2.03321e+08
-5.58675e+10
-1.38585e+08
-5.61315e+10
-8.61821e+07
-5.64326e+10
-5.05341e+07
-5.67843e+10
-3.09554e+07
-5.72072e+10
-3.27366e+07
-5.77232e+10
-6.67413e+07
-5.83669e+10
-1.43898e+08
-5.91766e+10
-2.86824e+08
-6.01946e+10
-5.24539e+08
-6.1435e+10
-9.1405e+08
-6.2799e+10
-1.58479e+09
-6.37033e+10
-2.92824e+09
-6.278e+10
-6.01638e+09
-5.87663e+10
-1.18429e+10
-5.75867e+10
-2.30582e+10
-8.04847e+09
-5.41991e+10
4.70299e+07
-1.30301e+09
-5.42446e+10
7.1462e+07
-9.65128e+08
-5.42671e+10
8.3335e+07
-8.57106e+08
-5.43003e+10
9.95893e+07
-7.2707e+08
-5.43264e+10
1.02682e+08
-6.22778e+08
-5.43548e+10
1.02683e+08
-5.38365e+08
-5.4384e+10
1.02639e+08
-4.74006e+08
-5.44148e+10
1.07144e+08
-4.27781e+08
-5.44473e+10
1.12438e+08
-3.99071e+08
-5.44823e+10
1.16372e+08
-3.88287e+08
-5.45226e+10
1.17854e+08
-3.93329e+08
-5.45618e+10
1.19178e+08
-4.26874e+08
-5.45964e+10
1.2159e+08
-4.879e+08
-5.46256e+10
1.24052e+08
-5.7802e+08
-5.46434e+10
1.26315e+08
-6.97614e+08
-5.46433e+10
1.28604e+08
-8.46378e+08
-5.46197e+10
1.30747e+08
-1.02377e+09
-5.45679e+10
1.33541e+08
-1.22136e+09
-5.44844e+10
1.36233e+08
-1.43627e+09
-5.4361e+10
1.40676e+08
-1.65903e+09
-5.41912e+10
1.45565e+08
-1.88962e+09
-5.39697e+10
1.51996e+08
-2.11143e+09
-5.37005e+10
1.59096e+08
-2.29806e+09
-5.34043e+10
1.68497e+08
-2.40929e+09
-5.31092e+10
1.8058e+08
-2.42676e+09
-5.28461e+10
1.95064e+08
-2.35391e+09
-5.26337e+10
2.11724e+08
-2.21323e+09
-5.24804e+10
2.29912e+08
-2.03193e+09
-5.2387e+10
2.49304e+08
-1.83208e+09
-5.2345e+10
2.69513e+08
-1.63261e+09
-5.23475e+10
2.90086e+08
-1.44156e+09
-5.23845e+10
3.10469e+08
-1.2676e+09
-5.24478e+10
3.30099e+08
-1.11085e+09
-5.25306e+10
3.48867e+08
-9.71403e+08
-5.26259e+10
3.66416e+08
-8.4742e+08
-5.273e+10
3.82046e+08
-7.36534e+08
-5.28373e+10
3.94255e+08
-6.3678e+08
-5.29449e+10
4.02971e+08
-5.47474e+08
-5.30532e+10
4.08254e+08
-4.6731e+08
-5.31577e+10
4.09086e+08
-4.00444e+08
-5.32622e+10
4.04682e+08
-3.41665e+08
-5.33663e+10
3.94704e+08
-2.92867e+08
-5.34752e+10
3.77592e+08
-2.55518e+08
-5.36023e+10
3.51502e+08
-2.30183e+08
-5.37723e+10
3.12933e+08
-2.146e+08
-5.40227e+10
2.55818e+08
-2.15447e+08
-5.44088e+10
1.70891e+08
-2.3314e+08
-5.49843e+10
4.43174e+07
-2.85727e+08
-5.57408e+10
-1.47267e+08
-4.65053e+08
-5.64973e+10
-5.05861e+08
-1.08044e+09
-5.68524e+10
-1.24702e+09
-2.74423e+09
-5.50851e+10
-3.212e+09
-6.24766e+09
-4.3309e+10
-1.02334e+10
-1.72774e+10
-5.85087e+09
-5.0501e+09
-5.38139e+10
-9.82391e+08
-5.38704e+10
-6.15049e+08
-5.39056e+10
-5.08553e+08
-5.39324e+10
-3.79088e+08
-5.39575e+10
-2.52678e+08
-5.39838e+10
-1.52512e+08
-5.40144e+10
-7.79353e+07
-5.40452e+10
-1.95336e+07
-5.40758e+10
2.21099e+07
-5.41068e+10
4.46907e+07
-5.4145e+10
5.04047e+07
-5.41854e+10
2.95706e+07
-5.42231e+10
-1.84215e+07
-5.42575e+10
-9.46959e+07
-5.42849e+10
-1.9914e+08
-5.43016e+10
-3.31451e+08
-5.43031e+10
-4.90139e+08
-5.42885e+10
-6.68604e+08
-5.42542e+10
-8.61378e+08
-5.41982e+10
-1.06162e+09
-5.41151e+10
-1.26682e+09
-5.40047e+10
-1.46234e+09
-5.38711e+10
-1.62068e+09
-5.37351e+10
-1.70358e+09
-5.36215e+10
-1.69427e+09
-5.35542e+10
-1.59755e+09
-5.35437e+10
-1.43737e+09
-5.35894e+10
-1.24086e+09
-5.36843e+10
-1.02991e+09
-5.38138e+10
-8.22944e+08
-5.39667e+10
-6.26946e+08
-5.41313e+10
-4.4917e+08
-5.42988e+10
-2.88989e+08
-5.44642e+10
-1.46208e+08
-5.46251e+10
-1.82172e+07
-5.47844e+10
9.79813e+07
-5.49485e+10
2.05285e+08
-5.51273e+10
3.05238e+08
-5.53315e+10
3.97736e+08
-5.55671e+10
4.7912e+08
-5.5851e+10
5.54698e+08
-5.61991e+10
6.22952e+08
-5.66349e+10
6.83078e+08
-5.71948e+10
7.32145e+08
-5.79337e+10
7.69305e+08
-5.8934e+10
7.86586e+08
-6.03104e+10
7.71133e+08
-6.22015e+10
6.71861e+08
-6.47575e+10
3.36246e+08
-6.82415e+10
-6.32614e+08
-7.34661e+10
-2.94526e+09
-8.30927e+10
-6.4167e+09
-1.07606e+11
-9.57708e+09
-1.54365e+09
-5.40989e+10
-1.6899e+08
-1.09374e+09
-5.40594e+10
-1.47053e+08
-8.49785e+08
-5.40391e+10
-1.35708e+08
-7.36091e+08
-5.4032e+10
-1.28105e+08
-6.02158e+08
-5.40343e+10
-1.30357e+08
-4.87891e+08
-5.40513e+10
-1.36856e+08
-3.83742e+08
-5.40897e+10
-1.41367e+08
-2.94892e+08
-5.41477e+10
-1.41107e+08
-2.30568e+08
-5.42241e+10
-1.40461e+08
-1.85362e+08
-5.43175e+10
-1.40621e+08
-1.5872e+08
-5.44183e+10
-1.42324e+08
-1.56834e+08
-5.45259e+10
-1.43813e+08
-1.85556e+08
-5.46354e+10
-1.44798e+08
-2.48587e+08
-5.47386e+10
-1.45376e+08
-3.49717e+08
-5.48261e+10
-1.44902e+08
-4.89499e+08
-5.48862e+10
-1.43339e+08
-6.71739e+08
-5.49071e+10
-1.39798e+08
-8.9328e+08
-5.48797e+10
-1.35428e+08
-1.1517e+09
-5.47929e+10
-1.28434e+08
-1.43767e+09
-5.46409e+10
-1.19468e+08
-1.74222e+09
-5.44092e+10
-1.06732e+08
-2.06629e+09
-5.40798e+10
-9.07196e+07
-2.40187e+09
-5.36485e+10
-7.08809e+07
-2.70672e+09
-5.31451e+10
-4.79433e+07
-2.90681e+09
-5.26313e+10
-2.35469e+07
-2.95443e+09
-5.21639e+10
972767
-2.85841e+09
-5.17812e+10
2.41187e+07
-2.66072e+09
-5.15001e+10
4.5423e+07
-2.40767e+09
-5.13195e+10
6.50548e+07
-2.13684e+09
-5.12301e+10
8.33661e+07
-1.87476e+09
-5.12187e+10
1.01012e+08
-1.63311e+09
-5.12759e+10
1.18329e+08
-1.41736e+09
-5.13928e+10
1.35292e+08
-1.22669e+09
-5.15637e+10
1.52311e+08
-1.05903e+09
-5.17845e+10
1.70239e+08
-9.11277e+08
-5.20561e+10
1.89731e+08
-7.77337e+08
-5.23794e+10
2.12009e+08
-6.56441e+08
-5.27604e+10
2.36142e+08
-5.42465e+08
-5.32025e+10
2.60523e+08
-4.35406e+08
-5.37146e+10
2.81868e+08
-3.31157e+08
-5.4303e+10
2.98686e+08
-2.26269e+08
-5.49807e+10
3.10555e+08
-1.16542e+08
-5.57679e+10
3.16728e+08
2.47429e+06
-5.66923e+10
3.17044e+08
1.32635e+08
-5.77994e+10
3.12342e+08
2.87922e+08
-5.91639e+10
3.0198e+08
4.78341e+08
-6.08971e+10
2.7953e+08
7.33581e+08
-6.31833e+10
2.29359e+08
1.09871e+09
-6.63218e+10
1.23709e+08
1.59724e+09
-7.06136e+10
-2.24619e+08
2.10844e+09
-7.67453e+10
-1.203e+09
2.82369e+09
-8.71562e+10
-2.34998e+09
4.676e+09
-1.09906e+11
1.96018e+06
3.93332e+09
3.12266e+09
4.64131e+09
-5.15939e+10
-1.08079e+09
-5.15231e+10
-8.28149e+08
-5.14667e+10
-6.97007e+08
-5.14118e+10
-5.5939e+08
-5.13575e+10
-4.35796e+08
-5.13174e+10
-3.28886e+08
-5.13036e+10
-2.33659e+08
-5.13066e+10
-1.59115e+08
-5.13244e+10
-1.02918e+08
-5.13548e+10
-6.91269e+07
-5.13912e+10
-6.07988e+07
-5.14312e+10
-8.21474e+07
-5.14686e+10
-1.37119e+08
-5.14939e+10
-2.2964e+08
-5.14952e+10
-3.60323e+08
-5.14579e+10
-5.31805e+08
-5.13692e+10
-7.41103e+08
-5.12143e+10
-9.84396e+08
-5.09811e+10
-1.25259e+09
-5.06584e+10
-1.53676e+09
-5.02294e+10
-1.83684e+09
-4.96707e+10
-2.14492e+09
-4.89738e+10
-2.4177e+09
-4.81693e+10
-2.58066e+09
-4.73238e+10
-2.58453e+09
-4.65032e+10
-2.43806e+09
-4.57564e+10
-2.18543e+09
-4.51101e+10
-1.87402e+09
-4.45718e+10
-1.54304e+09
-4.41383e+10
-1.22045e+09
-4.37993e+10
-9.19324e+08
-4.3545e+10
-6.45915e+08
-4.33657e+10
-3.99828e+08
-4.32532e+10
-1.79053e+08
-4.31988e+10
1.95333e+07
-4.31961e+10
2.01637e+08
-4.32308e+10
3.63249e+08
-4.32879e+10
5.04217e+08
-4.33617e+10
6.31424e+08
-4.3462e+10
7.53261e+08
-4.35975e+10
8.71836e+08
-4.37855e+10
9.92812e+08
-4.40554e+10
1.12422e+09
-4.445e+10
1.27327e+09
-4.50404e+10
1.46113e+09
-4.59438e+10
1.71562e+09
-4.73609e+10
2.08436e+09
-4.96592e+10
2.64417e+09
-5.34903e+10
3.47271e+09
-6.01258e+10
4.60005e+09
-7.31419e+10
7.42575e+09
-9.3168e+10
9.97618e+09
-1.18816e+11
1.54037e+10
3.78386e+08
-5.74952e+10
-1.5764e+08
-8.40405e+08
-5.75331e+10
-1.67692e+08
-6.38874e+08
-5.75732e+10
-1.701e+08
-5.20851e+08
-5.76113e+10
-1.76935e+08
-3.82483e+08
-5.76556e+10
-1.82842e+08
-2.56943e+08
-5.77069e+10
-1.89334e+08
-1.4026e+08
-5.77714e+10
-1.94313e+08
-3.43895e+07
-5.78539e+10
-1.97217e+08
4.99076e+07
-5.79531e+10
-2.00062e+08
1.13795e+08
-5.80666e+10
-2.03444e+08
1.57271e+08
-5.81915e+10
-2.0627e+08
1.71936e+08
-5.83232e+10
-2.08255e+08
1.49607e+08
-5.84581e+10
-2.09888e+08
8.80257e+07
-5.85906e+10
-2.11575e+08
-1.75218e+07
-5.87091e+10
-2.13135e+08
-1.72535e+08
-5.88033e+10
-2.14312e+08
-3.78616e+08
-5.88591e+10
-2.1533e+08
-6.36279e+08
-5.8867e+10
-2.17071e+08
-9.42642e+08
-5.88169e+10
-2.19285e+08
-1.28582e+09
-5.87021e+10
-2.23429e+08
-1.657e+09
-5.85079e+10
-2.28151e+08
-2.05463e+09
-5.82027e+10
-2.34381e+08
-2.49283e+09
-5.77492e+10
-2.41599e+08
-2.92948e+09
-5.71702e+10
-2.51288e+08
-3.23534e+09
-5.65554e+10
-2.6349e+08
-3.29971e+09
-5.59885e+10
-2.76475e+08
-3.14186e+09
-5.55125e+10
-2.89249e+08
-2.84734e+09
-5.51418e+10
-3.00293e+08
-2.48767e+09
-5.48687e+10
-3.08925e+08
-2.12007e+09
-5.46783e+10
-3.15366e+08
-1.77668e+09
-5.45525e+10
-3.20281e+08
-1.47176e+09
-5.44771e+10
-3.24512e+08
-1.20621e+09
-5.44381e+10
-3.28667e+08
-9.78484e+08
-5.44249e+10
-3.33176e+08
-7.83322e+08
-5.44325e+10
-3.38309e+08
-6.11514e+08
-5.44533e+10
-3.44419e+08
-4.59691e+08
-5.44863e+10
-3.51914e+08
-3.19948e+08
-5.45248e+10
-3.61557e+08
-1.91752e+08
-5.45701e+10
-3.72326e+08
-6.80591e+07
-5.46238e+10
-3.81571e+08
5.23363e+07
-5.46891e+10
-3.89268e+08
1.74506e+08
-5.47706e+10
-3.96017e+08
3.03838e+08
-5.4875e+10
-4.01977e+08
4.46225e+08
-5.5012e+10
-4.06718e+08
6.0524e+08
-5.51997e+10
-4.08495e+08
7.98447e+08
-5.54737e+10
-4.07138e+08
1.04876e+09
-5.59022e+10
-4.10115e+08
1.4126e+09
-5.66112e+10
-4.29016e+08