/*--------------------------------*- C++ -*----------------------------------*\
| =========                 |                                                 |
| \\      /  F ield         | OpenFOAM: The Open Source CFD Toolbox           |
|  \\    /   O peration     | Version:  4.1                                   |
|   \\  /    A nd           | Web:      www.OpenFOAM.org                      |
|    \\/     M anipulation  |                                                 |
\*---------------------------------------------------------------------------*/
FoamFile
{
    version     2.0;
    format      ascii;
    class       surfaceScalarField;
    location    "70";
    object      phi;
}
// * * * * * * * * * * * * * * * * * * * * * * * * * * * * * * * * * * * * * //

dimensions      [0 3 -1 0 0 0 0];

internalField   nonuniform List<scalar> 
11516
(
9.98744e+06
16.5391
9352.16
9.96644e+06
-103.122
20519.5
9.93594e+06
-97.0321
30020.9
9.89633e+06
-101.009
39080.6
9.84751e+06
-110.446
48218.2
9.7892e+06
-116.674
57640.8
9.72112e+06
-122.91
67424.3
9.64304e+06
-121.809
77510.3
9.5548e+06
-104.456
87763
9.45614e+06
-86.6439
98236.9
9.34716e+06
-74.1399
108545
9.22872e+06
-67.8194
117926
9.10268e+06
-191.702
125552
8.97391e+06
-347.133
128374
8.85322e+06
-1768.49
121873
8.75633e+06
-2634.11
99106.3
8.70121e+06
-904.75
55812.6
8.69669e+06
-333.16
4818.5
8.69533e+06
56.5579
1343.63
8.652e+06
1187.33
42375.6
8.57607e+06
-1125.83
77550.4
8.47006e+06
-4864.99
111581
8.3404e+06
-7937.29
138429
8.19409e+06
-10572
157793
8.03286e+06
-12678.5
174901
7.87662e+06
-14335.6
171707
7.73839e+06
-12072.4
151617
7.62475e+06
-6827.98
121980
7.53511e+06
-5984.44
97289.7
7.46714e+06
-10034.3
79635.5
7.40592e+06
-16807.7
79520.9
7.32131e+06
-23650.7
109276
7.2164e+06
-22702.2
127886
7.13397e+06
-9759.4
91692.6
7.1133e+06
5496.83
14907.3
7.10944e+06
10403.5
-7040.07
7.08335e+06
8929.84
18436.5
7.04578e+06
5147.45
34085.5
7.00781e+06
3395.84
32587.9
6.98462e+06
5143.78
15214.5
6.97055e+06
5512.5
5914.93
6.94666e+06
7145.73
15110.7
6.91544e+06
7457.36
26747.4
6.89517e+06
7338.66
21350.2
6.89373e+06
5580.9
3620.73
6.90995e+06
5475.02
-18391.7
6.92884e+06
10259.7
-28397.1
6.96184e+06
11673
-49097
7.00194e+06
14504.4
-66231.5
7.05916e+06
8774.34
-78588
7.18214e+06
-771.419
-115663
7.29589e+06
-738.753
-105959
7.40747e+06
12665.4
-82104.7
26696
-117345
9.98747e+06
9350.8
9.96645e+06
20518.6
9.93591e+06
30025.2
9.89628e+06
39079.8
9.84745e+06
48212.4
9.78916e+06
57642.8
9.7211e+06
67419.8
9.64303e+06
77494.7
9.55479e+06
87736.1
9.45615e+06
98181
9.34718e+06
108496
9.22877e+06
117873
9.10235e+06
125699
8.97233e+06
129168
8.84633e+06
123817
8.74387e+06
99551.8
8.69132e+06
51592.6
8.69375e+06
-2776.42
8.69775e+06
-3862.26
8.65665e+06
42495.8
8.58111e+06
74766.7
8.47653e+06
100191
8.34727e+06
121904
8.1976e+06
139765
8.02834e+06
157315
7.86157e+06
153299
7.71191e+06
138606
7.58357e+06
122637
7.47794e+06
100834
7.40168e+06
67485.8
7.34978e+06
36183.3
7.2936e+06
33116.7
7.2171e+06
53757.4
7.13524e+06
71311.5
7.08941e+06
50554.8
7.06183e+06
37982.8
7.02048e+06
51224.5
6.97543e+06
49870.7
6.93448e+06
42576.8
6.90435e+06
32224
6.87692e+06
31078.4
6.84565e+06
38825.9
6.81203e+06
45224.8
6.78784e+06
34654
6.77945e+06
18271
6.79538e+06
-8265.08
6.82343e+06
-18637.1
6.86212e+06
-30431.8
6.90851e+06
-45209.7
6.99576e+06
-69535.1
7.11732e+06
-133284
7.25724e+06
-112657
7.36097e+06
-67003
-117254
1.00059e+07
15.6347
5425.57
1.00109e+07
-116.975
14995.2
1.00161e+07
-111.634
24377.6
1.00208e+07
-111.412
33798
1.00249e+07
-114.743
43446.7
1.00285e+07
-119.289
53456
1.00313e+07
-124.446
63917.8
1.00335e+07
-123.457
74698.8
1.00342e+07
-116.979
86452.4
1.00334e+07
-101.01
98471.2
1.00302e+07
-97.6827
111096
1.00236e+07
-113.954
123936
1.00113e+07
-58.9417
137023
9.98979e+06
74.3402
149093
9.94567e+06
1560.3
163856
9.86802e+06
1961.56
174581
9.73673e+06
2021.93
185013
9.53514e+06
1070.92
205323
9.31275e+06
-1034.1
224794
9.11923e+06
-1336.78
237284
8.95129e+06
233.335
245359
8.80677e+06
1865.01
254411
8.6751e+06
3172.52
267190
8.54679e+06
4312.69
282092
8.42322e+06
4951.28
293878
8.29882e+06
5676.55
290881
8.17001e+06
6307.58
274735
8.02547e+06
7889.05
259358
7.87446e+06
11766.7
237197
7.7303e+06
14671
209711
7.59426e+06
17912.5
198089
7.47791e+06
21797.7
203995
7.39486e+06
19386.7
191473
7.33982e+06
10178.4
136089
7.30811e+06
-1681.46
46324.7
7.27216e+06
-15741
43724
7.22316e+06
-27367.7
93712.5
7.17056e+06
-32402.8
116546
7.10704e+06
-31422.3
124951
7.06307e+06
-30711.5
87051.9
7.0315e+06
-35460.1
71464.8
6.9921e+06
-43487.7
97233.2
6.9636e+06
-46308.1
102241
6.95195e+06
-47471.7
81978.1
6.95368e+06
-49223.9
53932.8
6.9648e+06
-49947.9
23289.6
6.98267e+06
-51724.4
6452.86
7.00388e+06
-51556.1
-19057.3
7.02319e+06
-54043.7
-31484.9
7.05342e+06
-61112.8
-48769.6
7.10161e+06
-40174.4
-118526
7.2009e+06
-14508.4
-162681
7.4e+06
10750.5
-253778
5327.18
-319332
1.0006e+07
5424.9
1.0011e+07
14994
1.00161e+07
24376.8
1.00208e+07
33794.8
1.00249e+07
43440.5
1.00284e+07
53450.7
1.00313e+07
63915
1.00334e+07
74696.7
1.00341e+07
86455.8
1.00333e+07
98463.5
1.00301e+07
111083
1.00234e+07
123955
1.00115e+07
136921
9.99106e+06
149214
9.95505e+06
161060
9.88413e+06
172261
9.74801e+06
189648
9.54116e+06
205130
9.31329e+06
222976
9.12014e+06
234354
8.95515e+06
240079
8.81103e+06
246312
8.68062e+06
255676
8.55457e+06
270367
8.43515e+06
281999
8.31502e+06
279555
8.18846e+06
272082
8.0538e+06
265870
7.91993e+06
247216
7.79138e+06
211471
7.65387e+06
192058
7.51406e+06
194896
7.40618e+06
180925
7.35622e+06
131163
7.33888e+06
64675
7.32457e+06
34448.7
7.30458e+06
42162.6
7.27345e+06
46272.3
7.23863e+06
43012.4
7.23e+06
8819.24
7.22267e+06
2194.29
7.20374e+06
13908.2
7.19074e+06
11763.1
7.18913e+06
-9008.28
7.19342e+06
-34272
7.19923e+06
-63817.6
7.20926e+06
-79089.6
7.21969e+06
-91533.1
7.22016e+06
-97299.2
7.22621e+06
-137654
7.2529e+06
-193481
7.37169e+06
-222709
7.5243e+06
-200806
-367872
9.99912e+06
14.7054
6898.67
9.99287e+06
-118.061
20707.3
9.98243e+06
-112.095
34288.8
9.96778e+06
-111.103
47877.2
9.94894e+06
-113.694
61652.2
9.92596e+06
-117.393
75737.9
9.89916e+06
-125.262
90037.8
9.868e+06
-131.124
105217
9.83334e+06
-129.441
120532
9.79442e+06
-120.576
136812
9.75165e+06
-112.904
153270
9.70463e+06
-96.2901
170311
9.65281e+06
-67.8039
188156
9.59429e+06
89.192
206840
9.53102e+06
169.614
226376
9.45411e+06
783.075
250297
9.36487e+06
571.262
273250
9.27358e+06
1158.82
295376
9.17426e+06
460.323
323647
9.06362e+06
565.934
347395
8.94451e+06
1017.15
363539
8.82442e+06
1689.46
372949
8.70533e+06
2640.78
383852
8.58536e+06
4233.41
398144
8.46178e+06
4959.03
412904
8.33081e+06
6306.83
416169
8.18476e+06
8924.57
412703
8.01572e+06
12059.9
417265
7.83093e+06
14088.1
408828
7.63729e+06
12784.6
391310
7.43213e+06
11450.6
392373
7.23706e+06
16162.2
383352
7.06652e+06
29922.1
332385
6.94077e+06
44803
214990
6.90571e+06
37734.9
40427.3
6.88207e+06
2093.69
61402.8
6.81619e+06
-25825.9
180491
6.73244e+06
-30194.5
224546
6.64637e+06
-22212.6
231179
6.61761e+06
-12238.7
128407
6.6049e+06
-21462
105288
6.56649e+06
-36328
170584
6.52703e+06
-40638.7
179711
6.51135e+06
-41454.2
139807
6.51548e+06
-42076.3
93927.1
6.53483e+06
-40318.1
50306.6
6.58333e+06
-42455.5
11488.6
6.64196e+06
-40708.6
-23369.7
6.7162e+06
-45994.5
-50750.4
6.81187e+06
-35124.2
-107600
6.88374e+06
-17057.8
-173296
6.92218e+06
-1423.19
-194046
6.89579e+06
-15950.7
-212279
-19032.9
-339473
9.99915e+06
6897.96
9.99288e+06
20707.6
9.98241e+06
34287.6
9.96774e+06
47874.4
9.94889e+06
61648.8
9.92594e+06
75735.4
9.89914e+06
90037.6
9.86798e+06
105219
9.83329e+06
120538
9.79434e+06
136819
9.75155e+06
153278
9.7046e+06
170315
9.65283e+06
188143
9.59493e+06
206781
9.52946e+06
226332
9.45261e+06
249514
9.3675e+06
274932
9.27458e+06
299100
9.17474e+06
323280
9.06572e+06
343977
8.94838e+06
358513
8.83014e+06
366358
8.71261e+06
376035
8.5914e+06
396074
8.46675e+06
411984
8.33566e+06
417536
8.19185e+06
425577
8.03276e+06
437883
7.8593e+06
435673
7.66685e+06
417540
7.45962e+06
411271
7.26962e+06
401540
7.12491e+06
356007
7.04572e+06
253350
7.03863e+06
105153
7.01478e+06
52704.3
6.97243e+06
50738.1
6.92079e+06
62728
6.86382e+06
78290.6
6.83078e+06
31527.9
6.79681e+06
14534.5
6.73678e+06
35480.4
6.69608e+06
9841.88
6.67709e+06
-31590.7
6.67003e+06
-66025.3
6.67534e+06
-100802
6.69944e+06
-134211
6.74076e+06
-161317
6.79309e+06
-188043
6.86832e+06
-246432
6.93033e+06
-270374
6.97368e+06
-273267
6.98555e+06
-232347
-415101
9.99876e+06
13.9221
8811
9.99253e+06
-117.301
26401.7
9.98233e+06
-112.209
43963.3
9.96797e+06
-112.338
61665.1
9.94927e+06
-116.125
79698.2
9.92631e+06
-120.275
98002.8
9.89837e+06
-127.903
117293
9.86592e+06
-132.204
137051
9.82853e+06
-126.873
157373
9.78611e+06
-112.91
178721
9.7381e+06
-96.4554
200781
9.68386e+06
-75.9222
224041
9.62303e+06
-58.7235
248460
9.55519e+06
3.74425
274049
9.47881e+06
36.3564
302068
9.3944e+06
510.431
333287
9.29781e+06
183.614
368826
9.19591e+06
216.657
396744
9.10295e+06
378.647
416223
9.01258e+06
894.798
436947
8.91635e+06
1317.04
458570
8.81214e+06
1385.44
475946
8.69515e+06
1256.67
499861
8.56621e+06
1578.45
525904
8.42569e+06
1107.8
552834
8.26872e+06
972.448
572925
8.08735e+06
2767.49
592199
7.87434e+06
4411.63
626789
7.62484e+06
3130.33
656144
7.34919e+06
3379.76
664445
7.08124e+06
5242.26
655759
6.8455e+06
9185.91
610445
6.65772e+06
18193.6
501773
6.57281e+06
32228.6
267278
6.61649e+06
28085.5
-33180.6
6.6288e+06
-34405.2
79192.7
6.53812e+06
-85306.8
348677
6.42413e+06
-106407
440759
6.30614e+06
-98945.2
448863
6.28592e+06
-59834.6
209927
6.26999e+06
-28638
149870
6.22559e+06
-36564.3
249999
6.17593e+06
-33965.2
260947
6.15507e+06
-31408.7
193986
6.16157e+06
-31027.1
130270
6.18805e+06
-28259.9
75138.8
6.23558e+06
-24823.1
21044.4
6.29993e+06
-12713.9
-47270.7
6.3967e+06
-11058.7
-123824
6.49712e+06
-29215.9
-178709
6.6008e+06
-39102.3
-234888
6.66488e+06
-32182.6
-241511
6.74621e+06
-31233.1
-280497
17398.4
-337763
9.99879e+06
8810.91
9.99254e+06
26402.8
9.98231e+06
43962.4
9.96792e+06
61663.9
9.94923e+06
79697.7
9.92628e+06
98002.2
9.89836e+06
117291
9.8659e+06
137049
9.82848e+06
157372
9.78604e+06
178723
9.73803e+06
200790
9.68381e+06
224054
9.62301e+06
248485
9.55536e+06
274036
9.47919e+06
302031
9.3956e+06
332960
9.30125e+06
368923
9.19824e+06
402156
9.10463e+06
417272
9.01465e+06
434917
8.91857e+06
456021
8.81243e+06
474053
8.6927e+06
497266
8.56327e+06
527371
8.42316e+06
553599
8.26276e+06
579446
8.07633e+06
615358
7.8621e+06
657113
7.61799e+06
683534
7.35319e+06
686285
7.10216e+06
668037
6.88294e+06
630386
6.70161e+06
555202
6.60737e+06
378640
6.65143e+06
86274
6.65983e+06
2080.39
6.62224e+06
-3355.44
6.54748e+06
32414.1
6.47265e+06
57896.7
6.43662e+06
9173.86
6.39326e+06
28627.6
6.32709e+06
63027.5
6.27337e+06
29432.7
6.24073e+06
-24887.8
6.22749e+06
-73776.4
6.24203e+06
-127564
6.27936e+06
-178269
6.35584e+06
-233796
6.44204e+06
-276783
6.52087e+06
-349267
6.62827e+06
-423487
6.70131e+06
-385117
6.82003e+06
-397080
-502180
9.99878e+06
13.8102
10694.2
9.99266e+06
-115.76
31997.8
9.98267e+06
-110.658
53428.4
9.96863e+06
-111.461
75145.7
9.95038e+06
-115.918
97308.7
9.92781e+06
-120.187
119873
9.90085e+06
-127.049
143570
9.86957e+06
-129.792
167718
9.83338e+06
-122.233
193032
9.79219e+06
-106.467
219439
9.74567e+06
-88.0324
246861
9.69344e+06
-71.9818
275844
9.63545e+06
-54.3839
306023
9.57076e+06
-46.8284
338305
9.49908e+06
27.1134
373130
9.4203e+06
6.36537
411248
9.33264e+06
763.206
454941
9.22628e+06
921.985
501686
9.11444e+06
1074.15
526993
9.00803e+06
1072.33
542408
8.90455e+06
1935.56
560319
8.79342e+06
1661.36
585758
8.66549e+06
489.826
627687
8.5173e+06
-362.399
674887
8.34985e+06
-2901.47
723670
8.15255e+06
-4038.54
774886
7.92393e+06
-1596.51
823035
7.66857e+06
609.778
882110
7.39099e+06
-693.925
935026
7.10833e+06
-1012.73
948722
6.84571e+06
1757.73
917154
6.61078e+06
8090.34
837688
6.42375e+06
17358.6
672388
6.33475e+06
36186.8
320438
6.41519e+06
77566.6
-190543
6.29918e+06
-68801.5
261520
6.21783e+06
-190518
623195
6.11643e+06
-207844
753481
5.97264e+06
-214486
809123
5.94061e+06
-131507
371385
5.91933e+06
-57066.6
228004
5.86162e+06
-65618.3
372025
5.84444e+06
-56573.3
335466
5.83322e+06
-54028
267760
5.8379e+06
-55509
193128
5.86887e+06
-52923.4
115814
5.92499e+06
-47129.2
37039.8
5.97343e+06
-33689.5
-33284.5
6.02282e+06
-34506.7
-124134
6.08682e+06
-38786.5
-181275
6.137e+06
-34804.6
-253231
6.22338e+06
-42186.3
-296330
6.31362e+06
-39363.6
-340546
1669.07
-419671
9.99881e+06
10693.3
9.99266e+06
31999.9
9.98265e+06
53430.4
9.96858e+06
75148.2
9.95033e+06
97311.8
9.92779e+06
119876
9.90084e+06
143571
9.86956e+06
167718
9.83334e+06
193034
9.79213e+06
219446
9.7456e+06
246875
9.69338e+06
275868
9.63545e+06
306057
9.57077e+06
338340
9.49925e+06
373170
9.4205e+06
411269
9.33485e+06
454859
9.23541e+06
502316
9.12411e+06
529676
9.01467e+06
545576
8.90703e+06
565804
8.78745e+06
595606
8.65294e+06
632583
8.50534e+06
674892
8.33493e+06
721446
8.1329e+06
777803
7.91103e+06
835960
7.66802e+06
901096
7.40448e+06
946804
7.13443e+06
955789
6.88185e+06
922844
6.66299e+06
857598
6.5045e+06
731600
6.4611e+06
459485
6.55983e+06
70025.9
6.62098e+06
-119686
6.58566e+06
-148698
6.49894e+06
-83214
6.36045e+06
-19229.5
6.26903e+06
-36929
6.19829e+06
40355.5
6.12377e+06
71197.8
6.08323e+06
17422.5
6.06714e+06
-56803.6
6.07137e+06
-125485
6.09583e+06
-193653
6.14633e+06
-259527
6.21168e+06
-314457
6.27246e+06
-353513
6.31044e+06
-416749
6.33982e+06
-483658
6.38516e+06
-476085
6.43446e+06
-496800
-607693
9.99881e+06
12.9785
12525.1
9.99283e+06
-113.233
37470.1
9.98313e+06
-108.517
62626.8
9.96955e+06
-108.984
88181
9.95204e+06
-113.319
114195
9.93019e+06
-117.759
141048
9.9042e+06
-124.384
168893
9.87385e+06
-126.148
197484
9.83892e+06
-116.822
227462
9.79934e+06
-98.7649
258588
9.75445e+06
-77.813
291376
9.70433e+06
-58.7167
325616
9.64857e+06
-41.8152
361477
9.587e+06
-28.6899
399617
9.51982e+06
-3.34337
439984
9.44722e+06
51.7894
483430
9.37138e+06
473.944
529744
9.28819e+06
1529.78
583010
9.18654e+06
2603.95
626048
9.06802e+06
1554.76
659696
8.93881e+06
1755.81
688381
8.79988e+06
202.466
725259
8.65974e+06
-1445.45
769713
8.50514e+06
-2779.4
832674
8.31764e+06
-6189.15
917851
8.08429e+06
-6082.48
1.01494e+06
7.81363e+06
-2127.97
1.09652e+06
7.53551e+06
2493.62
1.1584e+06
7.25697e+06
2926.01
1.21137e+06
6.97854e+06
2670.49
1.22525e+06
6.7041e+06
5664.28
1.18676e+06
6.43056e+06
15421.8
1.09727e+06
6.13877e+06
35383.1
930570
5.78693e+06
128873
546017
4.95329e+06
524960
125643
4.20339e+06
383152
639351
3.93496e+06
156182
752963
4.26253e+06
56937.4
378780
4.67659e+06
-50874.4
429987
4.92578e+06
-59104.7
170751
5.00639e+06
-40597
182977
5.08175e+06
-59609.2
355459
5.11028e+06
-15128.6
327675
5.14798e+06
-12677.4
245391
5.19536e+06
-9991.77
157489
5.25029e+06
-6706.65
77255
5.30663e+06
3265.25
3232.06
5.37117e+06
8281.44
-65088.3
5.41639e+06
17053
-137532
5.42716e+06
41506.7
-198405
5.40665e+06
57717.6
-264663
5.40241e+06
57981.3
-326032
5.3642e+06
59392.2
-375319
71330.2
-572690
9.99884e+06
12524.8
9.99284e+06
37471.6
9.98311e+06
62625.9
9.96951e+06
88180.4
9.952e+06
114197
9.93017e+06
141050
9.9042e+06
168895
9.87383e+06
197485
9.83888e+06
227465
9.79928e+06
258595
9.75439e+06
291388
9.70429e+06
325637
9.64857e+06
361508
9.58703e+06
399648
9.51993e+06
440042
9.44758e+06
483363
9.3728e+06
529826
9.29639e+06
580134
9.20271e+06
626098
9.08476e+06
665450
8.95152e+06
701348
8.80811e+06
739892
8.65632e+06
783518
8.48955e+06
839194
8.29382e+06
911361
8.0619e+06
1.00406e+06
7.81371e+06
1.08244e+06
7.55511e+06
1.16264e+06
7.28497e+06
1.22042e+06
7.01328e+06
1.23078e+06
6.75588e+06
1.18648e+06
6.52269e+06
1.10721e+06
6.31725e+06
974256
6.19665e+06
716794
6.61065e+06
207276
6.82481e+06
63941.7
6.83036e+06
12639.4
6.7911e+06
12080.2
6.68592e+06
21743.3
6.37802e+06
196588
6.06558e+06
306849
5.91066e+06
167389
5.87277e+06
43078.6
5.83589e+06
-29875.6
5.78883e+06
-85934.3
5.73626e+06
-140639
5.68885e+06
-191146
5.64272e+06
-231739
5.59736e+06
-260832
5.55067e+06
-301242
5.48421e+06
-339407
5.42915e+06
-359920
5.34493e+06
-342292
-468396
9.99886e+06
12.6972
14283.9
9.99311e+06
-111.13
42715.3
9.98382e+06
-105.893
71420.1
9.97084e+06
-106.55
100627
9.9541e+06
-111.486
130323
9.93319e+06
-116.338
161303
9.90829e+06
-122.605
193152
9.87916e+06
-123.19
226050
9.8458e+06
-112.273
260356
9.80737e+06
-92.6691
296632
9.76437e+06
-71.0311
334032
9.7162e+06
-51.932
373484
9.66259e+06
-37.1872
414818
9.6038e+06
-25.3511
458167
9.53992e+06
-19.5914
503637
9.47163e+06
41.4955
551449
9.39955e+06
141.654
601427
9.32737e+06
735.421
654395
9.24735e+06
639.297
705618
9.15231e+06
-294.648
755869
9.03537e+06
-293.81
807037
8.88985e+06
-658.908
873296
8.72843e+06
-2205.28
934624
8.56135e+06
-5805.45
1.00627e+06
8.36742e+06
-9888.17
1.12227e+06
8.12423e+06
-10344.3
1.26925e+06
7.83427e+06
-889.477
1.38839e+06
7.52576e+06
7276.75
1.46073e+06
7.22068e+06
6797.18
1.51078e+06
6.91931e+06
5240.64
1.52246e+06
6.62446e+06
10345.8
1.47244e+06
6.30799e+06
22332.1
1.39286e+06
5.82999e+06
62962.8
1.34726e+06
4.50087e+06
348941
1.52891e+06
2.95077e+06
499352
1.18842e+06
2.91755e+06
14930.9
657748
2.89472e+06
101094
674694
2.71013e+06
414556
123860
2.8348e+06
366918
-98004.7
2.95734e+06
136178
-131729
3.29872e+06
21675.3
-194865
3.4045e+06
62431.2
180231
3.44438e+06
114122
166645
3.4849e+06
134772
66087.2
3.51241e+06
158469
-27570
3.52594e+06
184180
-111398
3.5319e+06
207386
-182989
3.55114e+06
222140
-262071
3.60044e+06
225100
-355732
3.67009e+06
228386
-441356
3.77087e+06
219613
-527691
3.90475e+06
193461
-630752
4.09801e+06
185458
-715685
104196
-949240
9.99889e+06
14282.4
9.99312e+06
42716.9
9.9838e+06
71421.1
9.97079e+06
100630
9.95406e+06
130328
9.93316e+06
161309
9.90828e+06
193158
9.87914e+06
226057
9.84576e+06
260364
9.80732e+06
296643
9.76432e+06
334049
9.71617e+06
373506
9.66259e+06
414846
9.60384e+06
458194
9.54002e+06
503680
9.47186e+06
551410
9.40031e+06
601414
9.32784e+06
653330
9.24931e+06
705537
9.15716e+06
757952
9.0461e+06
813230
8.9098e+06
877047
8.73924e+06
953310
8.55422e+06
1.01905e+06
8.34171e+06
1.1146e+06
8.09149e+06
1.24451e+06
7.82239e+06
1.35133e+06
7.54601e+06
1.44692e+06
7.25825e+06
1.51576e+06
6.967e+06
1.5281e+06
6.68944e+06
1.47536e+06
6.43036e+06
1.38976e+06
6.1605e+06
1.30874e+06
5.91989e+06
1.3218e+06
4.92636e+06
1.70557e+06
3.58542e+06
1.42176e+06
2.87618e+06
816973
2.91267e+06
373187
2.94761e+06
333691
2.97126e+06
294974
3.04665e+06
248542
3.05394e+06
221400
3.05709e+06
153313
3.06015e+06
98994.6
3.07108e+06
60640.6
3.09579e+06
29004.9
3.13414e+06
4018.65
3.18436e+06
-19528.2
3.24192e+06
-45874.1
3.30088e+06
-80517.6
3.3517e+06
-127631
3.40374e+06
-169213
3.47485e+06
-197515
-353053
9.99892e+06
11.282
15942
9.99347e+06
-108.999
47670.5
9.98468e+06
-104.504
79727.2
9.9724e+06
-104.371
112388
9.95648e+06
-107.951
145670
9.93677e+06
-111.156
180385
9.91337e+06
-115.358
215955
9.88563e+06
-113.805
253279
9.85363e+06
-101.347
291948
9.8174e+06
-81.173
332525
9.77616e+06
-60.2303
374978
9.72997e+06
-42.9046
419397
9.6787e+06
-30.1464
465848
9.62223e+06
-22.28
514438
9.56089e+06
-14.3303
564834
9.49495e+06
-2.19703
617216
9.4253e+06
25.7412
671028
9.3532e+06
109.798
726437
9.27673e+06
-194.837
782712
9.19358e+06
-744.49
840611
9.09979e+06
-1094.21
903405
8.99425e+06
-286.559
981404
8.85768e+06
554.037
1.07354e+06
8.68853e+06
-4193.57
1.18143e+06
8.50024e+06
-11030
1.32249e+06
8.28938e+06
-13048.8
1.49405e+06
8.03448e+06
-1624.69
1.64638e+06
7.70367e+06
12014.3
1.78265e+06
7.32797e+06
15877.8
1.87417e+06
6.96415e+06
7401.02
1.88233e+06
6.65861e+06
8043.77
1.77207e+06
6.38763e+06
13406.5
1.65162e+06
6.10762e+06
20197.9
1.60725e+06
5.75515e+06
143679
1.73833e+06
4.05787e+06
442574
2.43569e+06
2.50999e+06
389917
1.80148e+06
1.33724e+06
452290
1.35536e+06
37781.1
596247
764048
-493686
173327
168013
-438095
-85753.6
-148074
-299960
-164643
-208901
275765
-144565
-294366
767675
-40815.6
-314584
1.16228e+06
28446.2
-374342
1.57553e+06
48381.5
-495919
2.0271e+06
51008.6
-602671
2.49687e+06
58962.6
-684114
2.96325e+06
71698.2
-759002
3.41217e+06
78796.3
-829137
3.84011e+06
84450.6
-888869
4.24262e+06
76211
-947618
4.6276e+06
61660.1
-1.00751e+06
4.99075e+06
40470.5
-1.07892e+06
6082.82
-1.19191e+06
9.99895e+06
15941.6
9.99348e+06
47671.5
9.98466e+06
79725
9.97236e+06
112386
9.95644e+06
145670
9.93675e+06
180387
9.91337e+06
215957
9.88562e+06
253281
9.8536e+06
291953
9.81736e+06
332534
9.77612e+06
374992
9.72995e+06
419417
9.67871e+06
465872
9.62227e+06
514465
9.56096e+06
564856
9.49507e+06
617224
9.42548e+06
671021
9.35276e+06
726307
9.27575e+06
782718
9.19272e+06
840935
9.10095e+06
905099
8.99895e+06
980512
8.87137e+06
1.08354e+06
8.70018e+06
1.18768e+06
8.4875e+06
1.31765e+06
8.24611e+06
1.47374e+06
7.96126e+06
1.63659e+06
7.66501e+06
1.7568e+06
7.36458e+06
1.83362e+06
7.04235e+06
1.85983e+06
6.72265e+06
1.80548e+06
6.44537e+06
1.682e+06
6.17639e+06
1.60097e+06
5.95464e+06
1.68552e+06
5.98232e+06
2.11203e+06
5.47362e+06
2.30992e+06
4.7131e+06
2.01804e+06
4.13734e+06
1.5349e+06
3.54546e+06
1.08984e+06
2.98427e+06
762127
2.52996e+06
529694
2.23227e+06
364321
2.08527e+06
246990
2.03976e+06
162731
2.05375e+06
95739.3
2.11221e+06
37207.4
2.2197e+06
-13929.1
2.37814e+06
-64119.4
2.57115e+06
-107875
2.78097e+06
-148850
2.99066e+06
-197453
3.19978e+06
-261548
3.3915e+06
-319949
-429353
9.99899e+06
10.7715
17485.2
9.9939e+06
-107.164
52270.5
9.9857e+06
-102.165
87440.9
9.97426e+06
-101.908
123317
9.95941e+06
-105.449
159948
9.94101e+06
-108.377
198176
9.91894e+06
-111.934
237458
9.89311e+06
-109.724
278611
9.863e+06
-97.0693
321664
9.8286e+06
-77.4433
366613
9.78971e+06
-57.7444
413595
9.74565e+06
-42.2034
463202
9.69642e+06
-31.2268
514853
9.64224e+06
-23.1757
568455
9.58286e+06
-19.4556
624117
9.51887e+06
-14.1965
681185
9.45059e+06
-4.48332
739439
9.3791e+06
11.4182
798212
9.30513e+06
-16.5608
857338
9.22864e+06
-79.8828
918135
9.14988e+06
-120.35
983787
9.06997e+06
473.93
1.06312e+06
8.97941e+06
1538.22
1.1656e+06
8.85191e+06
7856.61
1.30462e+06
8.68596e+06
3507.02
1.48694e+06
8.51253e+06
-4047.13
1.67258e+06
8.31904e+06
-5722.42
1.84985e+06
8.06502e+06
-375.501
2.04486e+06
7.72963e+06
15856.7
2.20299e+06
7.30498e+06
27337.7
2.28913e+06
6.83182e+06
25398.7
2.22676e+06
6.40038e+06
12506.9
2.07418e+06
6.05988e+06
10214
1.93776e+06
5.8938e+06
18512.6
1.88082e+06
5.7948e+06
171119
2.34986e+06
4.95989e+06
185083
2.43685e+06
4.03527e+06
163547
2.09989e+06
3.12288e+06
149278
1.50993e+06
2.36344e+06
38423.1
865820
1.9507e+06
-72838.8
303969
1.9593e+06
-146153
-107684
2.20953e+06
-181213
-396066
2.62269e+06
-165710
-587702
3.09691e+06
-134095
-729095
3.56479e+06
-112790
-851483
4.01498e+06
-97128.6
-947921
4.43619e+06
-78471.2
-1.01663e+06
4.81832e+06
-62844.7
-1.06762e+06
5.16095e+06
-52626.1
-1.10521e+06
5.46874e+06
-47833
-1.12669e+06
5.74348e+06
-48927.2
-1.1372e+06
5.97692e+06
-57768.5
-1.14357e+06
6.1478e+06
-67684.9
-1.15239e+06
-99166
-1.12255e+06
9.99902e+06
17483.5
9.99391e+06
52271.6
9.98569e+06
87441.3
9.97423e+06
123318
9.95937e+06
159952
9.941e+06
198181
9.91893e+06
237463
9.8931e+06
278617
9.86298e+06
321670
9.82856e+06
366622
9.78967e+06
413608
9.74563e+06
463220
9.69643e+06
514876
9.64228e+06
568482
9.58291e+06
624146
9.51894e+06
681218
9.45063e+06
739461
9.37903e+06
798219
9.30486e+06
857350
9.22829e+06
918209
9.15008e+06
984283
9.0703e+06
1.06237e+06
8.99104e+06
1.1666e+06
8.88903e+06
1.30039e+06
8.73229e+06
1.48058e+06
8.5311e+06
1.67355e+06
8.27048e+06
1.89576e+06
7.95592e+06
2.07487e+06
7.63207e+06
2.17743e+06
7.29831e+06
2.22626e+06
6.91838e+06
2.21627e+06
6.50247e+06
2.11389e+06
6.10749e+06
2.00554e+06
5.82577e+06
1.98184e+06
5.93942e+06
2.163e+06
6.07363e+06
2.35459e+06
5.97072e+06
2.27788e+06
5.67939e+06
1.96759e+06
5.24233e+06
1.55363e+06
4.76822e+06
1.14839e+06
4.33293e+06
800499
3.97774e+06
518125
3.7435e+06
298281
3.63273e+06
130932
3.61818e+06
-1752.97
3.67448e+06
-109727
3.7896e+06
-200428
3.94862e+06
-279627
4.14205e+06
-344723
4.36019e+06
-398081
4.58578e+06
-445065
4.79067e+06
-496523
4.94838e+06
-528762
-581412
9.99908e+06
9.06201
18888.5
9.9944e+06
-105.355
56463.5
9.98689e+06
-101.303
94478.5
9.97641e+06
-100.226
133301
9.9628e+06
-102.37
173016
9.9459e+06
-103.893
214504
9.92557e+06
-106.118
257246
9.90161e+06
-103.073
302110
9.87375e+06
-90.4257
349161
9.84165e+06
-71.5958
398417
9.80494e+06
-52.8209
450042
9.76338e+06
-37.6347
504534
9.71658e+06
-25.5755
561478
9.66421e+06
-14.036
620719
9.60655e+06
-4.44629
681796
9.54364e+06
10.1075
744243
9.47632e+06
18.9499
807018
9.40569e+06
52.5369
869294
9.33385e+06
86.5427
929791
9.26394e+06
77.3176
988904
9.20057e+06
156.569
1.04831e+06
9.14672e+06
-115.505
1.11887e+06
9.10106e+06
670.551
1.21298e+06
9.04539e+06
9210.33
1.35485e+06
8.93728e+06
17841.3
1.58067e+06
8.7714e+06
12779.4
1.82904e+06
8.55318e+06
514.691
2.07339e+06
8.31159e+06
-4264.57
2.29748e+06
8.04724e+06
2785.69
2.47201e+06
7.73405e+06
12674.2
2.59725e+06
7.31096e+06
13123
2.64382e+06
6.77914e+06
11881.2
2.59995e+06
6.2534e+06
19475.5
2.44616e+06
5.83883e+06
-309.01
2.29399e+06
5.84436e+06
30429.4
2.31312e+06
5.84353e+06
48210.3
2.38806e+06
5.65561e+06
44547
2.23681e+06
5.31448e+06
180.821
1.83446e+06
4.94654e+06
-69852.8
1.27588e+06
4.68342e+06
-152153
683788
4.59184e+06
-214064
158217
4.6457e+06
-238100
-247626
4.81035e+06
-235387
-542323
5.04113e+06
-223894
-747100
5.29422e+06
-215082
-891938
5.54563e+06
-208415
-992133
5.77864e+06
-199669
-1.05529e+06
5.98111e+06
-190646
-1.08958e+06
6.15165e+06
-184883
-1.10146e+06
6.29917e+06
-183516
-1.09424e+06
6.42723e+06
-184930
-1.06805e+06
6.5331e+06
-194419
-1.03024e+06
6.58873e+06
-203558
-984082
-228327
-889849
9.9991e+06
18888.2
9.9944e+06
56464.3
9.98687e+06
94475.6
9.97638e+06
133297
9.96277e+06
173014
9.94588e+06
214504
9.92557e+06
257246
9.90161e+06
302110
9.87373e+06
349163
9.84161e+06
398422
9.80491e+06
450051
9.76337e+06
504547
9.71659e+06
561495
9.66426e+06
620737
9.60661e+06
681818
9.5437e+06
744264
9.47639e+06
807049
9.40572e+06
869316
9.33385e+06
929860
9.26388e+06
988957
9.2001e+06
1.04919e+06
9.14552e+06
1.11822e+06
9.10282e+06
1.21208e+06
9.06356e+06
1.35149e+06
8.9937e+06
1.57118e+06
8.84106e+06
1.84254e+06
8.61938e+06
2.12219e+06
8.34538e+06
2.34952e+06
8.03059e+06
2.50018e+06
7.68518e+06
2.5892e+06
7.29414e+06
2.62474e+06
6.83241e+06
2.59021e+06
6.34751e+06
2.51074e+06
5.9089e+06
2.4192e+06
5.73478e+06
2.36676e+06
5.81904e+06
2.31618e+06
5.96899e+06
2.16665e+06
6.03602e+06
1.88949e+06
5.99013e+06
1.51325e+06
5.87008e+06
1.09596e+06
5.7342e+06
700713
5.62741e+06
367986
5.57466e+06
103795
5.58289e+06
-105671
5.64005e+06
-274258
5.72678e+06
-406026
5.82964e+06
-508080
5.93748e+06
-585967
6.04443e+06
-643040
6.14891e+06
-686207
6.24476e+06
-716913
6.32817e+06
-760199
6.37213e+06
-761400
-875288
9.99917e+06
8.5144
20139.2
9.99496e+06
-103.667
60184.4
9.98824e+06
-99.096
100729
9.97886e+06
-97.8684
142189
9.96666e+06
-100.027
184680
9.95147e+06
-101.504
229124
9.93293e+06
-103.537
275252
9.9112e+06
-100.428
323385
9.886e+06
-88.124
374000
9.85653e+06
-69.9591
427602
9.82234e+06
-51.8055
483978
9.78338e+06
-36.729
543275
9.73891e+06
-23.7281
605781
9.68884e+06
-9.95866
670732
9.63246e+06
5.63511
738250
9.5701e+06
21.8786
806821
9.50212e+06
41.385
875371
9.43026e+06
69.9619
941696
9.35758e+06
107.778
1.00314e+06
9.29023e+06
152.952
1.05717e+06
9.23718e+06
349.268
1.10235e+06
9.20932e+06
990.048
1.14705e+06
9.21207e+06
2102.97
1.20995e+06
9.24581e+06
4779.87
1.31912e+06
9.22369e+06
13397.7
1.5936e+06
9.06898e+06
14461.2
1.97374e+06
8.81518e+06
4812.2
2.32796e+06
8.52874e+06
-1385.77
2.5918e+06
8.23472e+06
-1031.02
2.7727e+06
7.9292e+06
1563.75
2.90513e+06
7.5801e+06
618.418
2.99517e+06
7.15777e+06
-1846.88
3.02658e+06
6.64435e+06
-6712.26
2.96727e+06
6.11397e+06
-12318
2.83672e+06
5.7789e+06
-9018.01
2.65722e+06
5.69923e+06
1947.96
2.46463e+06
5.72097e+06
5745.86
2.20434e+06
5.72604e+06
-13175.6
1.83172e+06
5.68881e+06
-52888
1.34879e+06
5.64663e+06
-104203
808883
5.64085e+06
-150127
294054
5.68798e+06
-180862
-127791
5.77839e+06
-198974
-438830
5.89674e+06
-209581
-655307
6.02235e+06
-212524
-802460
6.1422e+06
-213023
-898066
6.24897e+06
-212020
-952834
6.34022e+06
-212468
-975095
6.41554e+06
-216529
-970762
6.48435e+06
-224790
-946048
6.55754e+06
-234334
-908698
6.6533e+06
-248252
-867673
6.75095e+06
-239633
-822196
-268296
-749930
9.9992e+06
20137.3
9.99497e+06
60185
9.98823e+06
100729
9.97883e+06
142190
9.96662e+06
184683
9.95145e+06
229127
9.93293e+06
275255
9.9112e+06
323388
9.88598e+06
374004
9.8565e+06
427608
9.82231e+06
483988
9.78337e+06
543290
9.73893e+06
605800
9.68889e+06
670753
9.63252e+06
738274
9.57017e+06
806847
9.50219e+06
875405
9.43032e+06
941724
9.35765e+06
1.00323e+06
9.29032e+06
1.05721e+06
9.23756e+06
1.10329e+06
9.21196e+06
1.14619e+06
9.22123e+06
1.20621e+06
9.25659e+06
1.32229e+06
9.24166e+06
1.60203e+06
9.09806e+06
2.00378e+06
8.8659e+06
2.36362e+06
8.59511e+06
2.62336e+06
8.29587e+06
2.80171e+06
7.9614e+06
2.92715e+06
7.5845e+06
3.00336e+06
7.15123e+06
3.02228e+06
6.67125e+06
2.98363e+06
6.18871e+06
2.88865e+06
5.8071e+06
2.73807e+06
5.6051e+06
2.51802e+06
5.56255e+06
2.2108e+06
5.60852e+06
1.8228e+06
5.68096e+06
1.37779e+06
5.75456e+06
907808
5.82655e+06
470863
5.90087e+06
109887
5.97783e+06
-170202
6.05482e+06
-387745
6.12587e+06
-554586
6.18246e+06
-675731
6.22501e+06
-765549
6.26415e+06
-842865
6.31738e+06
-920184
6.40768e+06
-1.00829e+06
6.56631e+06
-1.11117e+06
6.81471e+06
-1.24838e+06
7.17139e+06
-1.35125e+06
-1.62593e+06
9.99928e+06
6.67085
21209.6
9.9956e+06
-102.395
63380.4
9.98976e+06
-98.9343
106107
9.98162e+06
-97.0538
149855
9.9708e+06
-98.0472
194978
9.95773e+06
-98.4655
241648
9.94164e+06
-99.6598
290829
9.92248e+06
-96.2117
342113
9.8997e+06
-84.2057
396439
9.87326e+06
-66.5866
453765
9.84242e+06
-48.6154
514587
9.80641e+06
-32.6732
579100
9.76488e+06
-17.5615
647192
9.71676e+06
-0.821162
718839
9.66177e+06
18.9722
793386
9.5992e+06
39.8781
869699
9.52887e+06
63.1487
946166
9.45188e+06
91.3454
1.01926e+06
9.37174e+06
128.94
1.08403e+06
9.29694e+06
290.412
1.13278e+06
9.24379e+06
577.329