/*--------------------------------*- C++ -*----------------------------------*\
| =========                 |                                                 |
| \\      /  F ield         | OpenFOAM: The Open Source CFD Toolbox           |
|  \\    /   O peration     | Version:  4.1                                   |
|   \\  /    A nd           | Web:      www.OpenFOAM.org                      |
|    \\/     M anipulation  |                                                 |
\*---------------------------------------------------------------------------*/
FoamFile
{
    version     2.0;
    format      ascii;
    class       volScalarField;
    location    "20";
    object      p;
}
// * * * * * * * * * * * * * * * * * * * * * * * * * * * * * * * * * * * * * //

dimensions      [0 2 -2 0 0 0 0];

internalField   nonuniform List<scalar> 
4432
(
-8.5254e+09
-7.9959e+09
1.18893e+09
2.36675e+10
8.15617e+09
-6.38151e+09
-3.65317e+09
-3.07102e+09
-3.56113e+09
-4.21033e+09
-4.45717e+09
-4.69298e+09
-5.10357e+09
-5.58577e+09
-6.05131e+09
-6.32806e+09
-6.26109e+09
-6.16419e+09
-6.17388e+09
-6.26127e+09
-6.33534e+09
-6.4024e+09
-6.45764e+09
-6.50242e+09
-6.53808e+09
-6.56628e+09
-6.58888e+09
-6.60796e+09
-6.62557e+09
-6.64381e+09
-6.66436e+09
-6.68928e+09
-6.71999e+09
-6.75376e+09
-6.78662e+09
-6.81761e+09
-6.84327e+09
-6.8619e+09
-6.87365e+09
-6.87826e+09
-6.87738e+09
-6.87391e+09
-6.86851e+09
-6.86364e+09
-6.87498e+09
-6.92346e+09
-7.00677e+09
-7.14424e+09
-7.40843e+09
-7.96043e+09
-9.24784e+09
-1.19994e+10
-1.51802e+10
-1.02068e+10
-8.04133e+09
-3.92981e+09
8.59507e+08
6.28472e+09
5.82897e+09
-6.41374e+09
-6.17829e+09
-4.67869e+09
-4.67496e+09
-5.03671e+09
-4.91461e+09
-4.82681e+09
-5.10094e+09
-5.60215e+09
-6.08068e+09
-6.3234e+09
-6.22106e+09
-6.12196e+09
-6.15744e+09
-6.24441e+09
-6.31611e+09
-6.3835e+09
-6.43889e+09
-6.48409e+09
-6.52009e+09
-6.54875e+09
-6.57202e+09
-6.59199e+09
-6.61074e+09
-6.63033e+09
-6.65258e+09
-6.67952e+09
-6.71265e+09
-6.75045e+09
-6.78963e+09
-6.82655e+09
-6.8577e+09
-6.88242e+09
-6.90101e+09
-6.91303e+09
-6.91948e+09
-6.92274e+09
-6.92267e+09
-6.92031e+09
-6.92713e+09
-6.96269e+09
-7.02937e+09
-7.13706e+09
-7.38744e+09
-7.94686e+09
-9.32102e+09
-1.2463e+10
-1.58909e+10
-1.04162e+10
-1.99132e+08
1.40017e+09
1.73762e+09
-5.19445e+09
-9.91684e+08
-7.43245e+09
-1.05441e+10
-7.91328e+09
-6.40424e+09
-5.8249e+09
-5.08281e+09
-4.81637e+09
-4.96467e+09
-5.33437e+09
-5.82217e+09
-6.28144e+09
-6.38271e+09
-6.25639e+09
-6.22792e+09
-6.27125e+09
-6.34246e+09
-6.40882e+09
-6.46457e+09
-6.50846e+09
-6.54242e+09
-6.56835e+09
-6.5885e+09
-6.60523e+09
-6.62066e+09
-6.6369e+09
-6.65533e+09
-6.67785e+09
-6.70819e+09
-6.74072e+09
-6.76264e+09
-6.77873e+09
-6.79343e+09
-6.80397e+09
-6.80824e+09
-6.80186e+09
-6.78355e+09
-6.75798e+09
-6.7317e+09
-6.7079e+09
-6.69762e+09
-6.74872e+09
-6.86021e+09
-6.99999e+09
-7.30935e+09
-8.02716e+09
-9.67357e+09
-1.28512e+10
-1.49874e+10
-7.60615e+09
-2.46237e+09
-1.29385e+09
4.12049e+08
-8.86428e+08
-2.46857e+09
-8.37247e+09
-1.08265e+10
-7.7893e+09
-6.49407e+09
-5.76693e+09
-5.04607e+09
-4.7436e+09
-4.88507e+09
-5.29323e+09
-5.83991e+09
-6.32993e+09
-6.36997e+09
-6.20071e+09
-6.21047e+09
-6.2632e+09
-6.33626e+09
-6.40266e+09
-6.45893e+09
-6.50343e+09
-6.53814e+09
-6.56498e+09
-6.5862e+09
-6.60412e+09
-6.62077e+09
-6.63798e+09
-6.65702e+09
-6.6794e+09
-6.70714e+09
-6.73804e+09
-6.76611e+09
-6.7885e+09
-6.80358e+09
-6.81386e+09
-6.82088e+09
-6.81808e+09
-6.80284e+09
-6.78011e+09
-6.75525e+09
-6.73186e+09
-6.72147e+09
-6.75758e+09
-6.85031e+09
-7.00609e+09
-7.34115e+09
-8.08636e+09
-9.79884e+09
-1.31653e+10
-1.55701e+10
-7.89046e+09
-7.56534e+08
1.36685e+09
3.65979e+09
-6.97929e+09
-3.8391e+09
-6.32388e+09
-8.91018e+09
-8.77858e+09
-7.80565e+09
-6.64e+09
-5.46918e+09
-4.94751e+09
-4.85891e+09
-5.09466e+09
-5.62049e+09
-6.12403e+09
-6.27544e+09
-6.21865e+09
-6.23794e+09
-6.28823e+09
-6.35893e+09
-6.42447e+09
-6.4799e+09
-6.52304e+09
-6.55608e+09
-6.5812e+09
-6.60099e+09
-6.61786e+09
-6.6333e+09
-6.64842e+09
-6.66362e+09
-6.67782e+09
-6.6945e+09
-6.72319e+09
-6.74369e+09
-6.74292e+09
-6.74789e+09
-6.7453e+09
-6.73193e+09
-6.69806e+09
-6.64684e+09
-6.59189e+09
-6.54369e+09
-6.50534e+09
-6.49396e+09
-6.54266e+09
-6.67015e+09
-6.91217e+09
-7.36868e+09
-8.20005e+09
-9.81408e+09
-1.26802e+10
-1.48955e+10
-7.58741e+09
-1.88651e+08
-6.44656e+08
4.77309e+08
-1.87911e+08
-5.0169e+09
-7.67338e+09
-8.3827e+09
-7.63846e+09
-7.23738e+09
-6.17645e+09
-5.18407e+09
-4.75938e+09
-4.79705e+09
-5.12119e+09
-5.64437e+09
-6.16879e+09
-6.25823e+09
-6.18091e+09
-6.21927e+09
-6.28232e+09
-6.35808e+09
-6.42601e+09
-6.48309e+09
-6.52798e+09
-6.56269e+09
-6.58946e+09
-6.61085e+09
-6.62928e+09
-6.64659e+09
-6.66373e+09
-6.68027e+09
-6.69556e+09
-6.71247e+09
-6.73392e+09
-6.7515e+09
-6.76382e+09
-6.77001e+09
-6.76802e+09
-6.75409e+09
-6.71818e+09
-6.66313e+09
-6.60393e+09
-6.54982e+09
-6.50553e+09
-6.48459e+09
-6.52071e+09
-6.64605e+09
-6.89711e+09
-7.37081e+09
-8.24898e+09
-9.9517e+09
-1.29335e+10
-1.52404e+10
-8.32125e+09
-1.83624e+09
-2.91066e+09
-2.31334e+09
-2.60873e+09
-5.74738e+09
-6.70145e+09
-7.68921e+09
-7.75218e+09
-7.33417e+09
-6.36836e+09
-5.38411e+09
-4.96843e+09
-4.92525e+09
-5.16105e+09
-5.61416e+09
-6.02813e+09
-6.15883e+09
-6.16281e+09
-6.2191e+09
-6.29161e+09
-6.36896e+09
-6.43674e+09
-6.49249e+09
-6.53607e+09
-6.57009e+09
-6.59732e+09
-6.62014e+09
-6.64051e+09
-6.65853e+09
-6.67322e+09
-6.6848e+09
-6.68792e+09
-6.68418e+09
-6.74867e+09
-6.85924e+09
-6.82266e+09
-6.77578e+09
-6.7603e+09
-6.72863e+09
-6.67784e+09
-6.60367e+09
-6.52208e+09
-6.4436e+09
-6.36437e+09
-6.30614e+09
-6.30866e+09
-6.39866e+09
-6.64405e+09
-7.1337e+09
-7.99673e+09
-9.59512e+09
-1.24021e+10
-1.47796e+10
-8.1965e+09
-1.37107e+09
-1.60829e+09
-2.19806e+09
-3.52858e+09
-7.75511e+09
-7.51835e+09
-6.32497e+09
-6.26859e+09
-6.5546e+09
-5.89211e+09
-5.18924e+09
-4.88185e+09
-4.91885e+09
-5.21221e+09
-5.66839e+09
-6.04799e+09
-6.12801e+09
-6.13378e+09
-6.20197e+09
-6.28326e+09
-6.36489e+09
-6.43497e+09
-6.49232e+09
-6.53698e+09
-6.5717e+09
-6.59948e+09
-6.62329e+09
-6.64541e+09
-6.66676e+09
-6.68698e+09
-6.70505e+09
-6.72039e+09
-6.73851e+09
-6.76886e+09
-6.79531e+09
-6.81268e+09
-6.80779e+09
-6.7795e+09
-6.74984e+09
-6.70113e+09
-6.6278e+09
-6.54606e+09
-6.46913e+09
-6.39516e+09
-6.33736e+09
-6.34282e+09
-6.44805e+09
-6.71511e+09
-7.23734e+09
-8.16629e+09
-9.8961e+09
-1.28263e+10
-1.49477e+10
-7.84406e+09
-3.16535e+09
-4.3217e+09
-4.91269e+09
-4.3049e+09
-6.42341e+09
-6.05143e+09
-6.10289e+09
-6.4052e+09
-6.60943e+09
-6.24371e+09
-5.50723e+09
-4.98309e+09
-4.99722e+09
-5.25634e+09
-5.64784e+09
-5.93374e+09
-6.04406e+09
-6.10119e+09
-6.18296e+09
-6.26926e+09
-6.35132e+09
-6.42083e+09
-6.47556e+09
-6.51696e+09
-6.54831e+09
-6.57367e+09
-6.59546e+09
-6.61582e+09
-6.6354e+09
-6.64928e+09
-6.65839e+09
-6.66486e+09
-6.67759e+09
-6.72709e+09
-6.78464e+09
-6.78547e+09
-6.76291e+09
-6.73984e+09
-6.70064e+09
-6.64223e+09
-6.56356e+09
-6.4669e+09
-6.35713e+09
-6.2416e+09
-6.14316e+09
-6.09949e+09
-6.14936e+09
-6.35068e+09
-6.78017e+09
-7.5706e+09
-9.11712e+09
-1.20776e+10
-1.51679e+10
-1.05771e+10
-3.30834e+09
-3.46768e+09
-4.19975e+09
-4.98715e+09
-7.15861e+09
-5.66091e+09
-4.81708e+09
-5.15945e+09
-5.62847e+09
-5.59989e+09
-5.27481e+09
-5.00027e+09
-5.0324e+09
-5.28953e+09
-5.65876e+09
-5.92715e+09
-6.02185e+09
-6.08426e+09
-6.17337e+09
-6.26453e+09
-6.34916e+09
-6.41967e+09
-6.47506e+09
-6.51641e+09
-6.54768e+09
-6.57315e+09
-6.59588e+09
-6.61727e+09
-6.63732e+09
-6.65718e+09
-6.68098e+09
-6.70553e+09
-6.72349e+09
-6.74855e+09
-6.77634e+09
-6.7905e+09
-6.78956e+09
-6.77187e+09
-6.73885e+09
-6.6865e+09
-6.6173e+09
-6.53269e+09
-6.43655e+09
-6.34025e+09
-6.265e+09
-6.24604e+09
-6.32771e+09
-6.56972e+09
-7.04999e+09
-7.91705e+09
-9.59434e+09
-1.25651e+10
-1.48499e+10
-7.92601e+09
-4.84313e+09
-5.44694e+09
-5.58567e+09
-5.4e+09
-6.0228e+09
-5.45031e+09
-5.19512e+09
-5.41637e+09
-5.75548e+09
-5.84537e+09
-5.59378e+09
-5.14058e+09
-5.10794e+09
-5.36145e+09
-5.66348e+09
-5.86473e+09
-5.97875e+09
-6.07075e+09
-6.1729e+09
-6.27167e+09
-6.36145e+09
-6.43466e+09
-6.48911e+09
-6.52588e+09
-6.55106e+09
-6.5718e+09
-6.58993e+09
-6.60179e+09
-6.61265e+09
-6.62743e+09
-6.64676e+09
-6.67219e+09
-6.70403e+09
-6.73738e+09
-6.75108e+09
-6.74948e+09
-6.74299e+09
-6.7253e+09
-6.68891e+09
-6.63221e+09
-6.55372e+09
-6.45321e+09
-6.33436e+09
-6.20901e+09
-6.10173e+09
-6.0457e+09
-6.08287e+09
-6.26866e+09
-6.66532e+09
-7.38888e+09
-8.84424e+09
-1.18343e+10
-1.5201e+10
-1.11377e+10
-5.24193e+09
-5.16339e+09
-5.11969e+09
-4.85503e+09
-5.91784e+09
-5.00954e+09
-4.67517e+09
-5.07999e+09
-5.39546e+09
-5.47034e+09
-5.29277e+09
-5.07519e+09
-5.11278e+09
-5.36469e+09
-5.65257e+09
-5.84913e+09
-5.96182e+09
-6.06128e+09
-6.16861e+09
-6.27073e+09
-6.36151e+09
-6.43522e+09
-6.49028e+09
-6.52875e+09
-6.55587e+09
-6.57709e+09
-6.59546e+09
-6.61238e+09
-6.62937e+09
-6.64649e+09
-6.66873e+09
-6.69594e+09
-6.71913e+09
-6.74235e+09
-6.76247e+09
-6.77128e+09
-6.77227e+09
-6.76122e+09
-6.73161e+09
-6.68305e+09
-6.6172e+09
-6.53224e+09
-6.43275e+09
-6.33117e+09
-6.25206e+09
-6.22884e+09
-6.3049e+09
-6.53273e+09
-6.97608e+09
-7.76223e+09
-9.30066e+09
-1.21849e+10
-1.46902e+10
-8.3168e+09
-5.8211e+09
-6.25125e+09
-5.95915e+09
-5.79294e+09
-5.39076e+09
-5.0292e+09
-4.96399e+09
-5.16978e+09
-5.50965e+09
-5.7046e+09
-5.45073e+09
-5.17082e+09
-5.22482e+09
-5.44775e+09
-5.65632e+09
-5.81346e+09
-5.93754e+09
-6.05503e+09
-6.1767e+09
-6.29239e+09
-6.395e+09
-6.47487e+09
-6.52906e+09
-6.56065e+09
-6.5792e+09
-6.59199e+09
-6.60187e+09
-6.61267e+09
-6.62788e+09
-6.64663e+09
-6.6708e+09
-6.70417e+09
-6.74589e+09
-6.78227e+09
-6.80007e+09
-6.80815e+09
-6.8108e+09
-6.80312e+09
-6.78113e+09
-6.74085e+09
-6.67984e+09
-6.60007e+09
-6.50868e+09
-6.42027e+09
-6.35782e+09
-6.3552e+09
-6.45794e+09
-6.71729e+09
-7.18036e+09
-7.92849e+09
-9.27314e+09
-1.17881e+10
-1.44319e+10
-8.87001e+09
-6.21804e+09
-6.08182e+09
-5.90761e+09
-4.86428e+09
-4.58313e+09
-4.53915e+09
-4.99226e+09
-5.3611e+09
-5.53342e+09
-5.4764e+09
-5.25368e+09
-5.13011e+09
-5.22663e+09
-5.44232e+09
-5.64653e+09
-5.80044e+09
-5.92528e+09
-6.04668e+09
-6.17012e+09
-6.28655e+09
-6.38845e+09
-6.46832e+09
-6.52374e+09
-6.55789e+09
-6.57713e+09
-6.58899e+09
-6.60034e+09
-6.61468e+09
-6.63287e+09
-6.65387e+09
-6.67719e+09
-6.70379e+09
-6.73694e+09
-6.76795e+09
-6.78817e+09
-6.79977e+09
-6.80385e+09
-6.7964e+09
-6.77443e+09
-6.73577e+09
-6.67832e+09
-6.60361e+09
-6.51922e+09
-6.44026e+09
-6.39146e+09
-6.40591e+09
-6.52881e+09
-6.80964e+09
-7.2955e+09
-8.07334e+09
-9.44989e+09
-1.19433e+10
-1.43761e+10
-7.98027e+09
-6.17804e+09
-6.33857e+09
-6.14508e+09
-5.82517e+09
-5.02369e+09
-4.40152e+09
-4.51678e+09
-4.95047e+09
-5.46498e+09
-5.72053e+09
-5.45413e+09
-5.26388e+09
-5.3305e+09
-5.48746e+09
-5.64113e+09
-5.77843e+09
-5.91049e+09
-6.04708e+09
-6.18723e+09
-6.32239e+09
-6.43916e+09
-6.52531e+09
-6.57657e+09
-6.59936e+09
-6.60467e+09
-6.60484e+09
-6.60771e+09
-6.61806e+09
-6.6371e+09
-6.65828e+09
-6.68679e+09
-6.73135e+09
-6.76997e+09
-6.79903e+09
-6.82207e+09
-6.84313e+09
-6.8582e+09
-6.85987e+09
-6.84578e+09
-6.8142e+09
-6.76501e+09
-6.70238e+09
-6.63466e+09
-6.57733e+09
-6.55675e+09
-6.61126e+09
-6.79003e+09
-7.14733e+09
-7.72997e+09
-8.62323e+09
-1.01274e+10
-1.25741e+10
-1.4277e+10
-7.57033e+09
-6.37297e+09
-6.20934e+09
-6.19769e+09
-5.33547e+09
-4.18473e+09
-3.86217e+09
-4.54659e+09
-5.03181e+09
-5.32834e+09
-5.44531e+09
-5.32391e+09
-5.25807e+09
-5.34059e+09
-5.49094e+09
-5.63801e+09
-5.77301e+09
-5.90578e+09
-6.04288e+09
-6.18313e+09
-6.31744e+09
-6.43408e+09
-6.52073e+09
-6.57268e+09
-6.59522e+09
-6.59892e+09
-6.59695e+09
-6.59906e+09
-6.60871e+09
-6.62985e+09
-6.65843e+09
-6.68602e+09
-6.71951e+09
-6.75527e+09
-6.78628e+09
-6.81131e+09
-6.8332e+09
-6.84736e+09
-6.84672e+09
-6.82986e+09
-6.79609e+09
-6.74471e+09
-6.68074e+09
-6.61268e+09
-6.55644e+09
-6.53882e+09
-6.59822e+09
-6.78398e+09
-7.1492e+09
-7.74077e+09
-8.64626e+09
-1.01666e+10
-1.26763e+10
-1.45133e+10
-7.81553e+09
-5.97562e+09
-5.86747e+09
-5.89025e+09
-5.66772e+09
-5.10104e+09
-4.33349e+09
-4.37485e+09
-4.92584e+09
-5.42422e+09
-5.515e+09
-5.3586e+09
-5.30699e+09
-5.38142e+09
-5.50232e+09
-5.63309e+09
-5.76688e+09
-5.90894e+09
-6.06239e+09
-6.22345e+09
-6.38178e+09
-6.51873e+09
-6.61579e+09
-6.66176e+09
-6.66466e+09
-6.64584e+09
-6.62756e+09
-6.62003e+09
-6.62562e+09
-6.64767e+09
-6.67879e+09
-6.7098e+09
-6.75198e+09
-6.79577e+09
-6.83168e+09
-6.86273e+09
-6.88591e+09
-6.89696e+09
-6.89249e+09
-6.87016e+09
-6.82724e+09
-6.76309e+09
-6.68196e+09
-6.59374e+09
-6.5158e+09
-6.47636e+09
-6.51607e+09
-6.68574e+09
-7.04149e+09
-7.63462e+09
-8.55384e+09
-1.01036e+10
-1.2738e+10
-1.49516e+10
-8.66845e+09
-5.84058e+09
-5.71107e+09
-5.87604e+09
-5.58417e+09
-4.5687e+09
-3.98895e+09
-4.41451e+09
-4.86142e+09
-5.13101e+09
-5.26808e+09
-5.27855e+09
-5.31044e+09
-5.39173e+09
-5.50918e+09
-5.63469e+09
-5.76717e+09
-5.90898e+09
-6.06178e+09
-6.22232e+09
-6.38e+09
-6.5178e+09
-6.61509e+09
-6.66079e+09
-6.66263e+09
-6.64236e+09
-6.62165e+09
-6.61085e+09
-6.61306e+09
-6.63628e+09
-6.67557e+09
-6.70779e+09
-6.74629e+09
-6.78662e+09
-6.82312e+09
-6.85766e+09
-6.88276e+09
-6.89412e+09
-6.88938e+09
-6.866e+09
-6.82225e+09
-6.75774e+09
-6.67637e+09
-6.58781e+09
-6.51005e+09
-6.47133e+09
-6.51179e+09
-6.68147e+09
-7.03443e+09
-7.61991e+09
-8.52533e+09
-1.00586e+10
-1.27483e+10
-1.52658e+10
-9.07679e+09
-5.26856e+09
-5.20721e+09
-5.23428e+09
-5.42354e+09
-5.5017e+09
-4.94414e+09
-4.73686e+09
-5.03644e+09
-5.25007e+09
-5.22798e+09
-5.25246e+09
-5.31514e+09
-5.40237e+09
-5.51184e+09
-5.63551e+09
-5.77193e+09
-5.92426e+09
-6.09378e+09
-6.2785e+09
-6.46541e+09
-6.63317e+09
-6.74841e+09
-6.7829e+09
-6.74303e+09
-6.67732e+09
-6.62596e+09
-6.60091e+09
-6.60095e+09
-6.6239e+09
-6.66648e+09
-6.72035e+09
-6.7779e+09
-6.83214e+09
-6.87905e+09
-6.91818e+09
-6.94442e+09
-6.95303e+09
-6.94139e+09
-6.90663e+09
-6.84533e+09
-6.75601e+09
-6.64218e+09
-6.51373e+09
-6.38924e+09
-6.2986e+09
-6.28418e+09
-6.39871e+09
-6.69765e+09
-7.22999e+09
-8.09122e+09
-9.63065e+09
-1.25511e+10
-1.59747e+10
-1.18791e+10
-5.00705e+09
-5.0529e+09
-5.34292e+09
-5.65868e+09
-5.40295e+09
-4.96713e+09
-4.66153e+09
-4.7858e+09
-4.98627e+09
-5.13794e+09
-5.24003e+09
-5.32195e+09
-5.40784e+09
-5.51607e+09
-5.63725e+09
-5.77341e+09
-5.92554e+09
-6.09478e+09
-6.27811e+09
-6.4647e+09
-6.63214e+09
-6.74737e+09
-6.78183e+09
-6.74382e+09
-6.6803e+09
-6.63004e+09
-6.60431e+09
-6.60324e+09
-6.63011e+09
-6.67783e+09
-6.7273e+09
-6.77974e+09
-6.83154e+09
-6.87744e+09
-6.91858e+09
-6.94746e+09
-6.95779e+09
-6.94718e+09
-6.91319e+09
-6.85314e+09
-6.76632e+09
-6.65641e+09
-6.53323e+09
-6.41521e+09
-6.33184e+09
-6.32443e+09
-6.44364e+09
-6.74242e+09
-7.27044e+09
-8.12882e+09
-9.66972e+09
-1.25554e+10
-1.56563e+10
-1.04664e+10
-4.56584e+09
-4.65703e+09
-4.72947e+09
-5.45763e+09
-5.85207e+09
-5.5461e+09
-5.19528e+09
-5.07773e+09
-5.08966e+09
-5.16765e+09
-5.25768e+09
-5.33798e+09
-5.42305e+09
-5.52494e+09
-5.64437e+09
-5.78257e+09
-5.9419e+09
-6.12538e+09
-6.33269e+09
-6.55362e+09
-6.7646e+09
-6.91469e+09
-6.93371e+09
-6.81493e+09
-6.65455e+09
-6.54351e+09
-6.49209e+09
-6.48846e+09
-6.5219e+09
-6.58489e+09
-6.66328e+09
-6.7414e+09
-6.81236e+09
-6.87492e+09
-6.92757e+09
-6.96495e+09
-6.98179e+09
-6.97528e+09
-6.94239e+09
-6.87946e+09
-6.7851e+09
-6.66252e+09
-6.52169e+09
-6.38216e+09
-6.27553e+09
-6.24681e+09
-6.35291e+09
-6.65406e+09
-7.20947e+09
-8.15749e+09
-9.92097e+09
-1.2985e+10
-1.53688e+10
-9.29584e+09
-4.32763e+09
-4.64626e+09
-5.11285e+09
-5.72917e+09
-5.95228e+09
-5.45035e+09
-4.89719e+09
-4.92142e+09
-5.04681e+09
-5.15594e+09
-5.25378e+09
-5.34053e+09
-5.42623e+09
-5.52756e+09
-5.64649e+09
-5.78531e+09
-5.94608e+09
-6.13013e+09
-6.3363e+09
-6.5555e+09
-6.76398e+09
-6.91119e+09
-6.92692e+09
-6.80682e+09
-6.64762e+09
-6.53925e+09
-6.48914e+09
-6.48737e+09
-6.52496e+09
-6.58889e+09
-6.66388e+09
-6.73866e+09
-6.80876e+09
-6.87131e+09
-6.92507e+09
-6.96382e+09
-6.98151e+09
-6.97534e+09
-6.94269e+09
-6.88032e+09
-6.7873e+09
-6.66712e+09
-6.52974e+09
-6.39416e+09
-6.29127e+09
-6.26542e+09
-6.37235e+09
-6.67093e+09
-7.22146e+09
-8.16942e+09
-9.97861e+09
-1.30699e+10
-1.49299e+10
-7.73406e+09
-4.288e+09
-4.52796e+09
-4.89054e+09
-5.54973e+09
-5.73575e+09
-5.58384e+09
-5.35735e+09
-5.21628e+09
-5.18928e+09
-5.22862e+09
-5.29395e+09
-5.37159e+09
-5.45377e+09
-5.54786e+09
-5.66145e+09
-5.79786e+09
-5.96171e+09
-6.15661e+09
-6.38537e+09
-6.64629e+09
-6.92175e+09
-7.1509e+09
-7.19811e+09
-6.97137e+09
-6.65234e+09
-6.45386e+09
-6.37595e+09
-6.37371e+09
-6.42409e+09
-6.50479e+09
-6.59923e+09
-6.69096e+09
-6.77213e+09
-6.84102e+09
-6.89595e+09
-6.93368e+09
-6.95016e+09
-6.94229e+09
-6.90717e+09
-6.84188e+09
-6.74575e+09
-6.62253e+09
-6.48351e+09
-6.35046e+09
-6.25759e+09
-6.25212e+09
-6.39293e+09
-6.74182e+09
-7.35977e+09
-8.37384e+09
-1.01437e+10
-1.29623e+10
-1.46365e+10
-7.31672e+09
-4.22205e+09
-4.75702e+09
-5.28561e+09
-5.68482e+09
-5.65179e+09
-5.32201e+09
-5.17907e+09
-5.17091e+09
-5.19303e+09
-5.23909e+09
-5.30102e+09
-5.37612e+09
-5.45756e+09
-5.55078e+09
-5.66408e+09
-5.80156e+09
-5.96822e+09
-6.16578e+09
-6.39537e+09
-6.65365e+09
-6.92414e+09
-7.14763e+09
-7.19047e+09
-6.95494e+09
-6.63616e+09
-6.44154e+09
-6.36691e+09
-6.36827e+09
-6.4235e+09
-6.50497e+09
-6.59662e+09
-6.686e+09
-6.76587e+09
-6.83366e+09
-6.88751e+09
-6.92388e+09
-6.93838e+09
-6.92771e+09
-6.88893e+09
-6.81915e+09
-6.71779e+09
-6.58899e+09
-6.44428e+09
-6.30454e+09
-6.20253e+09
-6.18541e+09
-6.31138e+09
-6.64012e+09
-7.22976e+09
-8.20221e+09
-9.91295e+09
-1.2691e+10
-1.4609e+10
-7.9058e+09
-4.44205e+09
-4.7041e+09
-5.24087e+09
-5.49883e+09
-5.42169e+09
-5.33542e+09
-5.29762e+09
-5.27935e+09
-5.28028e+09
-5.30795e+09
-5.35238e+09
-5.41161e+09
-5.48168e+09
-5.5656e+09
-5.67224e+09
-5.80692e+09
-5.97835e+09
-6.19201e+09
-6.45171e+09
-6.76269e+09
-7.1261e+09
-7.5089e+09
-7.70425e+09
-7.3226e+09
-6.6658e+09
-6.27667e+09
-6.17128e+09
-6.20108e+09
-6.29956e+09
-6.41277e+09
-6.52557e+09
-6.62731e+09
-6.71302e+09
-6.78052e+09
-6.82913e+09
-6.85765e+09
-6.86329e+09
-6.84314e+09
-6.79447e+09
-6.71469e+09
-6.60335e+09
-6.46503e+09
-6.31287e+09
-6.17145e+09
-6.07781e+09
-6.08089e+09
-6.23875e+09
-6.60953e+09
-7.24737e+09
-8.26102e+09
-9.98497e+09
-1.27944e+10
-1.476e+10
-8.35227e+09
-4.49186e+09
-5.00583e+09
-5.34964e+09
-5.43341e+09
-5.27037e+09
-5.20275e+09
-5.23112e+09
-5.25517e+09
-5.27994e+09
-5.31259e+09
-5.35612e+09
-5.41241e+09
-5.48042e+09
-5.56266e+09
-5.66842e+09
-5.80433e+09
-5.98012e+09
-6.20071e+09
-6.46433e+09
-6.77208e+09
-7.12361e+09
-7.49273e+09
-7.69032e+09
-7.29089e+09
-6.63149e+09
-6.25401e+09
-6.16033e+09
-6.19851e+09
-6.30376e+09
-6.42017e+09
-6.5336e+09
-6.63665e+09
-6.72397e+09
-6.79276e+09
-6.84268e+09
-6.87289e+09
-6.87997e+09
-6.86056e+09
-6.81183e+09
-6.73121e+09
-6.61827e+09
-6.47784e+09
-6.32314e+09
-6.17749e+09
-6.0761e+09
-6.06793e+09
-6.211e+09
-6.56336e+09
-7.18348e+09
-8.1939e+09
-9.98628e+09
-1.29296e+10
-1.47113e+10
-7.85565e+09
-4.6754e+09
-4.85295e+09
-5.25975e+09
-5.2699e+09
-5.21862e+09
-5.22015e+09
-5.26232e+09
-5.30199e+09
-5.34054e+09
-5.38213e+09
-5.42957e+09
-5.48758e+09
-5.55686e+09
-5.64076e+09
-5.75016e+09
-5.89376e+09
-6.08406e+09
-6.3281e+09
-6.62282e+09
-6.97931e+09
-7.42258e+09
-7.99572e+09
-8.59816e+09
-8.28043e+09
-7.01044e+09
-5.74263e+09
-5.76232e+09
-5.97017e+09
-6.18449e+09
-6.35986e+09
-6.50636e+09
-6.62664e+09
-6.72356e+09
-6.79761e+09
-6.84971e+09
-6.87941e+09
-6.88457e+09
-6.8626e+09
-6.81056e+09
-6.72582e+09
-6.60848e+09
-6.46445e+09
-6.30881e+09
-6.16781e+09
-6.07909e+09
-6.09194e+09
-6.26349e+09
-6.64864e+09
-7.29623e+09
-8.30896e+09
-1.00136e+10
-1.27113e+10
-1.44743e+10
-7.56219e+09
-4.71569e+09
-5.05265e+09
-5.22281e+09
-5.17353e+09
-5.12066e+09
-5.16818e+09
-5.23532e+09
-5.28962e+09
-5.33406e+09
-5.37618e+09
-5.42175e+09
-5.47523e+09
-5.53912e+09
-5.61816e+09
-5.72428e+09
-5.86773e+09
-6.06475e+09
-6.3294e+09
-6.64385e+09
-7.00584e+09
-7.42437e+09
-7.93366e+09
-8.5841e+09
-8.27263e+09
-6.97612e+09
-5.69352e+09
-5.74138e+09
-5.95785e+09
-6.17586e+09
-6.35174e+09
-6.49728e+09
-6.6162e+09
-6.71113e+09
-6.78277e+09
-6.83319e+09
-6.86187e+09
-6.86559e+09
-6.84138e+09
-6.78629e+09
-6.69782e+09
-6.57611e+09
-6.42749e+09
-6.26729e+09
-6.12038e+09
-6.02292e+09
-6.02363e+09
-6.17894e+09
-6.5431e+09
-7.16476e+09
-8.14766e+09
-9.83089e+09
-1.26218e+10
-1.48232e+10
-8.88806e+09
-4.91538e+09
-5.00182e+09
-5.16612e+09
-5.14524e+09
-5.15939e+09
-5.21711e+09
-5.2856e+09
-5.35013e+09
-5.4091e+09
-5.46527e+09
-5.52162e+09
-5.58149e+09
-5.64797e+09
-5.72509e+09
-5.82385e+09
-5.9549e+09
-6.131e+09
-6.36459e+09
-6.65458e+09
-7.00802e+09
-7.45896e+09
-8.10742e+09
-8.82518e+09
-9.38615e+09
-9.54339e+09
-4.15843e+09
-5.2009e+09
-5.74637e+09
-6.09488e+09
-6.32499e+09
-6.49975e+09
-6.6344e+09
-6.73998e+09
-6.82038e+09
-6.87712e+09
-6.909e+09
-6.91373e+09
-6.88867e+09
-6.83052e+09
-6.73668e+09
-6.60802e+09
-6.45153e+09
-6.28244e+09
-6.12606e+09
-6.01976e+09
-6.01236e+09
-6.15811e+09
-6.50778e+09
-7.10328e+09
-8.02801e+09
-9.5942e+09
-1.22754e+10
-1.45869e+10
-8.22489e+09
-4.98926e+09
-5.05715e+09
-5.13171e+09
-5.09811e+09
-5.12017e+09
-5.19248e+09
-5.2665e+09
-5.33559e+09
-5.39788e+09
-5.45584e+09
-5.51242e+09
-5.57162e+09
-5.63749e+09
-5.71449e+09
-5.81301e+09
-5.94415e+09
-6.12499e+09
-6.37725e+09
-6.69422e+09
-7.07631e+09
-7.50472e+09
-8.01201e+09
-8.65384e+09
-9.40017e+09
-9.14204e+09
-4.24229e+09
-5.18218e+09
-5.71511e+09
-6.06217e+09
-6.29241e+09
-6.46643e+09
-6.59935e+09
-6.70299e+09
-6.78232e+09
-6.83875e+09
-6.8704e+09
-6.87499e+09
-6.85015e+09
-6.79281e+09
-6.70086e+09
-6.57571e+09
-6.42511e+09
-6.26492e+09
-6.12003e+09
-6.02697e+09
-6.03316e+09
-6.19348e+09
-6.56108e+09
-7.18272e+09
-8.17216e+09
-9.91433e+09
-1.27676e+10
-1.46048e+10
-7.65702e+09
-5.22945e+09
-5.18825e+09
-5.18356e+09
-5.17466e+09
-5.20252e+09
-5.25311e+09
-5.31388e+09
-5.38282e+09
-5.45119e+09
-5.51507e+09
-5.57522e+09
-5.63546e+09
-5.69965e+09
-5.7731e+09
-5.86485e+09
-5.98334e+09
-6.14074e+09
-6.35656e+09
-6.63725e+09
-6.98241e+09
-7.43764e+09
-8.14437e+09
-9.02094e+09
-9.31581e+09
-2.76761e+09
-5.21574e+09
-5.76164e+09
-6.11065e+09
-6.3435e+09
-6.51834e+09
-6.65163e+09
-6.75536e+09
-6.83344e+09
-6.88621e+09
-6.91171e+09
-6.90711e+09
-6.86904e+09
-6.79402e+09
-6.68009e+09
-6.52896e+09
-6.34755e+09
-6.14973e+09
-5.95985e+09
-5.81647e+09
-5.76894e+09
-5.86839e+09
-6.16301e+09
-6.69143e+09
-7.51931e+09
-8.93999e+09
-1.16468e+10
-1.49045e+10
-1.12692e+10
-5.32982e+09
-5.18411e+09
-5.17612e+09
-5.15885e+09
-5.1907e+09
-5.24569e+09
-5.30792e+09
-5.37613e+09
-5.44379e+09
-5.50941e+09
-5.57213e+09
-5.63396e+09
-5.69803e+09
-5.76901e+09
-5.85622e+09
-5.97033e+09
-6.1251e+09
-6.34524e+09
-6.64443e+09
-7.01191e+09
-7.4585e+09
-8.0986e+09
-8.92153e+09
-9.28605e+09
-3.25218e+09
-5.20419e+09
-5.72178e+09
-6.06246e+09
-6.29489e+09
-6.46966e+09
-6.60265e+09
-6.70648e+09
-6.78481e+09
-6.83838e+09
-6.86601e+09
-6.86524e+09
-6.83313e+09
-6.76692e+09
-6.66557e+09
-6.53184e+09
-6.37383e+09
-6.20635e+09
-6.05454e+09
-5.95706e+09
-5.96184e+09
-6.12138e+09
-6.48675e+09
-7.10021e+09
-8.06095e+09
-9.729e+09
-1.25418e+10
-1.46529e+10
-8.0655e+09
-5.41526e+09
-5.30465e+09
-5.28213e+09
-5.27966e+09
-5.30129e+09
-5.33901e+09
-5.39078e+09
-5.45364e+09
-5.52201e+09
-5.59038e+09
-5.6552e+09
-5.7169e+09
-5.77763e+09
-5.84291e+09
-5.92315e+09
-6.02866e+09
-6.16754e+09
-6.3526e+09
-6.59436e+09
-6.90018e+09
-7.31252e+09
-7.88914e+09
-8.43425e+09
-8.69696e+09
-6.99774e+09
-5.74276e+09
-5.79064e+09
-6.01052e+09
-6.23287e+09
-6.41735e+09
-6.56801e+09
-6.68982e+09
-6.78777e+09
-6.86305e+09
-6.91425e+09
-6.93867e+09
-6.933e+09
-6.89379e+09
-6.8182e+09
-6.70566e+09
-6.5588e+09
-6.38427e+09
-6.19525e+09
-6.01716e+09
-5.8913e+09
-5.86832e+09
-5.99814e+09
-6.32817e+09
-6.89509e+09
-7.7671e+09
-9.2516e+09
-1.19428e+10
-1.469e+10
-9.78475e+09
-5.42443e+09
-5.29372e+09
-5.27554e+09
-5.27353e+09
-5.2987e+09
-5.33963e+09
-5.39417e+09
-5.4579e+09
-5.52535e+09
-5.59354e+09
-5.65966e+09
-5.72352e+09
-5.78689e+09
-5.85357e+09
-5.9312e+09
-6.03002e+09
-6.16023e+09
-6.33935e+09
-6.58308e+09
-6.89541e+09
-7.30605e+09
-7.86615e+09
-8.41189e+09
-8.78001e+09
-7.32725e+09
-5.74021e+09
-5.75054e+09
-5.96554e+09
-6.18847e+09
-6.37616e+09
-6.53061e+09
-6.65372e+09
-6.75163e+09
-6.82667e+09
-6.87807e+09
-6.90362e+09
-6.9003e+09
-6.86507e+09
-6.79589e+09
-6.69293e+09
-6.5596e+09
-6.40319e+09
-6.23771e+09
-6.08962e+09
-6.00037e+09
-6.0197e+09
-6.19885e+09
-6.58743e+09
-7.22581e+09
-8.20246e+09
-9.8462e+09
-1.25435e+10
-1.44793e+10
-7.58041e+09
-5.43714e+09
-5.36523e+09
-5.35979e+09
-5.36375e+09
-5.38433e+09
-5.4192e+09
-5.46728e+09
-5.52448e+09
-5.58824e+09
-5.65464e+09
-5.71928e+09
-5.7801e+09
-5.83797e+09
-5.8971e+09
-5.96602e+09
-6.05435e+09
-6.16818e+09
-6.31482e+09
-6.50293e+09
-6.74108e+09
-7.04756e+09
-7.40713e+09
-7.60451e+09
-7.28557e+09
-6.68695e+09
-6.32335e+09
-6.23509e+09
-6.27292e+09
-6.37999e+09
-6.50062e+09
-6.61735e+09
-6.72114e+09
-6.80941e+09
-6.87981e+09
-6.92913e+09
-6.95362e+09
-6.94972e+09
-6.91438e+09
-6.84602e+09
-6.74536e+09
-6.61549e+09
-6.46301e+09
-6.30136e+09
-6.15726e+09
-6.07427e+09
-6.1055e+09
-6.30093e+09
-6.70697e+09
-7.36075e+09
-8.33157e+09
-9.9074e+09
-1.24914e+10
-1.44632e+10
-7.61487e+09
-5.42221e+09
-5.36196e+09
-5.35523e+09
-5.36064e+09
-5.3826e+09
-5.41923e+09
-5.47025e+09
-5.53068e+09
-5.59657e+09
-5.66443e+09
-5.73106e+09
-5.79493e+09
-5.85701e+09
-5.92052e+09
-5.991e+09
-6.07605e+09
-6.18474e+09
-6.32839e+09
-6.51809e+09
-6.76091e+09
-7.06981e+09
-7.42505e+09
-7.60884e+09
-7.28097e+09
-6.66989e+09
-6.28785e+09
-6.19739e+09
-6.24249e+09
-6.35436e+09
-6.47973e+09
-6.60126e+09
-6.70722e+09
-6.79583e+09
-6.86581e+09
-6.91426e+09
-6.93763e+09
-6.93247e+09
-6.89612e+09
-6.82742e+09
-6.72726e+09
-6.59863e+09
-6.44832e+09
-6.29047e+09
-6.15214e+09
-6.07634e+09
-6.11528e+09
-6.31904e+09
-6.73374e+09
-7.39454e+09
-8.36995e+09
-9.94593e+09
-1.25543e+10
-1.46946e+10
-8.12459e+09
-5.46454e+09
-5.42451e+09
-5.42362e+09
-5.4304e+09
-5.45347e+09
-5.48804e+09
-5.53437e+09
-5.58993e+09
-5.65182e+09
-5.71681e+09
-5.78119e+09
-5.8417e+09
-5.89877e+09
-5.95753e+09
-6.02476e+09
-6.10651e+09
-6.20729e+09
-6.33109e+09
-6.4832e+09
-6.6686e+09
-6.88397e+09
-7.08327e+09
-7.14104e+09
-6.9614e+09
-6.68892e+09
-6.51293e+09
-6.44635e+09
-6.45113e+09
-6.50672e+09
-6.58706e+09
-6.67497e+09
-6.75988e+09
-6.8356e+09
-6.89708e+09
-6.93933e+09
-6.95749e+09
-6.94771e+09
-6.90737e+09
-6.83549e+09
-6.73279e+09
-6.60202e+09
-6.44925e+09
-6.28749e+09
-6.14323e+09
-6.06053e+09
-6.09424e+09
-6.29506e+09
-6.70683e+09
-7.36423e+09
-8.33472e+09
-9.8974e+09
-1.24361e+10
-1.43503e+10
-7.47477e+09
-5.46658e+09
-5.42447e+09
-5.4236e+09
-5.42958e+09
-5.45211e+09
-5.48707e+09
-5.53507e+09
-5.59316e+09
-5.6575e+09
-5.72462e+09
-5.79147e+09
-5.85539e+09
-5.91703e+09
-5.98028e+09
-6.04989e+09
-6.13063e+09
-6.2289e+09
-6.3525e+09
-6.50774e+09
-6.69796e+09
-6.91641e+09
-7.11308e+09
-7.16222e+09
-6.96728e+09
-6.6798e+09
-6.49841e+09
-6.43827e+09
-6.4514e+09
-6.51156e+09
-6.5958e+09
-6.68758e+09
-6.77493e+09
-6.85177e+09
-6.91327e+09
-6.95447e+09
-6.97057e+09
-6.9577e+09
-6.91337e+09
-6.83656e+09
-6.72755e+09
-6.5884e+09
-6.42501e+09
-6.25084e+09
-6.09199e+09
-5.9911e+09
-6.00129e+09
-6.17256e+09
-6.54605e+09
-7.14862e+09
-8.04025e+09
-9.49291e+09
-1.20395e+10
-1.47352e+10
-9.60454e+09
-5.52099e+09
-5.48356e+09
-5.48765e+09
-5.49572e+09
-5.51726e+09
-5.54876e+09
-5.59139e+09
-5.64322e+09
-5.70161e+09
-5.76387e+09
-5.82662e+09
-5.88563e+09
-5.94017e+09
-5.99599e+09
-6.05994e+09
-6.13479e+09
-6.22353e+09
-6.32895e+09
-6.45405e+09
-6.60026e+09
-6.75552e+09
-6.87954e+09
-6.90833e+09
-6.82377e+09
-6.69881e+09
-6.60947e+09
-6.57088e+09
-6.57548e+09
-6.61466e+09
-6.67655e+09
-6.74821e+09
-6.821e+09
-6.88839e+09
-6.94353e+09
-6.98016e+09
-6.99274e+09
-6.97721e+09
-6.9311e+09
-6.85345e+09
-6.74445e+09
-6.60577e+09
-6.44239e+09
-6.26661e+09
-6.10423e+09
-5.99952e+09
-6.00941e+09
-6.18566e+09
-6.56871e+09
-7.18991e+09
-8.12951e+09
-9.68196e+09
-1.22694e+10
-1.44721e+10
-8.57396e+09
-5.52327e+09
-5.48566e+09
-5.48988e+09
-5.4972e+09
-5.51789e+09
-5.54918e+09
-5.59296e+09
-5.64717e+09
-5.70814e+09
-5.77254e+09
-5.83731e+09
-5.89909e+09
-5.95771e+09
-6.01733e+09
-6.08284e+09
-6.15752e+09
-6.24564e+09
-6.35295e+09
-6.4831e+09
-6.63422e+09
-6.79146e+09
-6.91284e+09
-6.93372e+09
-6.83973e+09
-6.70728e+09
-6.61911e+09
-6.58943e+09
-6.60253e+09
-6.64545e+09
-6.7099e+09
-6.78369e+09
-6.85746e+09
-6.92481e+09
-6.97879e+09
-7.01294e+09
-7.02156e+09
-7.00036e+09
-6.94662e+09
-6.85875e+09
-6.73596e+09
-6.57904e+09
-6.39248e+09
-6.18825e+09
-5.9909e+09
-5.84211e+09
-5.79629e+09
-5.90398e+09
-6.201e+09
-6.70749e+09
-7.49319e+09
-8.85206e+09
-1.14589e+10
-1.4595e+10
-1.13475e+10
-5.57479e+09
-5.54593e+09
-5.55217e+09
-5.56057e+09
-5.58091e+09
-5.61009e+09
-5.64945e+09
-5.69768e+09
-5.7526e+09
-5.81155e+09
-5.87105e+09
-5.92682e+09
-5.97726e+09
-6.02713e+09
-6.08363e+09
-6.15037e+09
-6.22834e+09
-6.31828e+09
-6.42229e+09
-6.53812e+09
-6.65225e+09
-6.73786e+09
-6.76628e+09
-6.73781e+09
-6.68674e+09
-6.64849e+09
-6.63637e+09
-6.65036e+09
-6.68767e+09
-6.74338e+09
-6.80863e+09
-6.87585e+09
-6.93895e+09
-6.99094e+09
-7.025e+09
-7.03544e+09
-7.01811e+09
-6.97053e+09
-6.89164e+09
-6.78135e+09
-6.64017e+09
-6.47155e+09
-6.28737e+09
-6.11379e+09
-5.99626e+09
-5.99298e+09
-6.15642e+09
-6.52376e+09
-7.12419e+09
-8.05635e+09
-9.63583e+09
-1.22075e+10
-1.41241e+10
-7.57467e+09
-5.57695e+09
-5.54637e+09
-5.55295e+09
-5.56078e+09
-5.58019e+09
-5.60854e+09
-5.648e+09
-5.69747e+09
-5.75403e+09
-5.81449e+09
-5.87571e+09
-5.93407e+09
-5.98825e+09
-6.04168e+09
-6.09956e+09
-6.16577e+09
-6.24319e+09
-6.33421e+09
-6.44067e+09
-6.55963e+09
-6.67633e+09
-6.76161e+09
-6.78688e+09
-6.75331e+09
-6.69943e+09
-6.66426e+09
-6.66014e+09
-6.681e+09
-6.7208e+09
-6.77731e+09
-6.84258e+09
-6.9087e+09
-6.97012e+09
-7.01991e+09
-7.05101e+09
-7.05766e+09
-7.03543e+09
-6.98137e+09
-6.89343e+09
-6.77052e+09
-6.61295e+09
-6.424e+09
-6.21444e+09
-6.00884e+09
-5.85026e+09
-5.79596e+09
-5.89645e+09
-6.18836e+09
-6.69653e+09