/*--------------------------------*- C++ -*----------------------------------*\
| =========                 |                                                 |
| \\      /  F ield         | OpenFOAM: The Open Source CFD Toolbox           |
|  \\    /   O peration     | Version:  4.1                                   |
|   \\  /    A nd           | Web:      www.OpenFOAM.org                      |
|    \\/     M anipulation  |                                                 |
\*---------------------------------------------------------------------------*/
FoamFile
{
    version     2.0;
    format      ascii;
    class       surfaceScalarField;
    location    "20";
    object      phi;
}
// * * * * * * * * * * * * * * * * * * * * * * * * * * * * * * * * * * * * * //

dimensions      [0 3 -1 0 0 0 0];

internalField   nonuniform List<scalar> 
11516
(
-1.81755e+10
-5.5647e+09
-4.33009e+09
-9.45335e+09
-4.96131e+09
-2.09395e+09
-1.57907e+10
-1.4081e+09
9.35955e+09
-9.59566e+09
-2.46664e+09
-2.05532e+09
-9.12718e+09
-2.03169e+08
1.23039e+09
-1.23788e+10
1.45935e+08
4.12662e+09
-1.42457e+10
2.9297e+08
2.26311e+09
-1.6475e+10
4.5141e+08
2.18013e+09
-1.80657e+10
1.51294e+08
1.62344e+09
-1.92305e+10
2.2079e+07
1.17943e+09
-1.99603e+10
-2.88721e+06
6.83973e+08
-2.03214e+10
-7.62543e+07
3.50854e+08
-2.04289e+10
-1.65857e+08
1.72116e+08
-2.03327e+10
-2.14331e+08
1.7041e+07
-2.01012e+10
-2.29895e+08
-9.82554e+07
-1.98246e+10
-2.48781e+08
-1.18863e+08
-1.95419e+10
-2.70684e+08
-9.17178e+07
-1.92723e+10
-2.74366e+08
-6.8101e+07
-1.8979e+10
-2.68638e+08
-8.08331e+07
-1.86648e+10
-2.6958e+08
-8.17625e+07
-1.83109e+10
-2.7997e+08
-8.84153e+07
-1.7925e+10
-2.88049e+08
-9.78417e+07
-1.75077e+10
-2.93877e+08
-1.10819e+08
-1.70645e+10
-3.01258e+08
-1.19828e+08
-1.65947e+10
-3.0815e+08
-1.28964e+08
-1.61031e+10
-3.13168e+08
-1.34237e+08
-1.55923e+10
-3.1551e+08
-1.38569e+08
-1.5069e+10
-3.14793e+08
-1.38001e+08
-1.45388e+10
-3.1012e+08
-1.34853e+08
-1.40108e+10
-3.006e+08
-1.26513e+08
-1.34954e+10
-2.85221e+08
-1.12783e+08
-1.30062e+10
-2.6336e+08
-9.22516e+07
-1.25615e+10
-2.3372e+08
-5.99432e+07
-1.21696e+10
-1.95871e+08
-2.97536e+07
-1.183e+10
-1.52744e+08
-7.39646e+06
-1.15536e+10
-1.08555e+08
2.27981e+07
-1.13442e+10
-6.34766e+07
5.16344e+07
-1.1205e+10
-1.66958e+07
7.94683e+07
-1.11348e+10
2.95854e+07
1.03626e+08
-1.11287e+10
7.22467e+07
1.2549e+08
-1.11748e+10
1.07967e+08
1.43365e+08
-1.12519e+10
1.34437e+08
1.5581e+08
-1.13291e+10
1.50558e+08
1.59429e+08
-1.13675e+10
1.5864e+08
1.49099e+08
-1.13298e+10
1.62534e+08
1.22141e+08
-1.11914e+10
1.65593e+08
7.83308e+07
-1.09433e+10
1.65595e+08
1.4073e+07
-1.05915e+10
1.74728e+08
-7.38247e+07
-1.01938e+10
1.8398e+08
-1.60636e+08
-1.01456e+10
2.72049e+08
4.78269e+07
-1.07496e+10
4.24656e+08
5.19828e+08
-1.03877e+10
5.67013e+08
-5.77516e+08
-2.89207e+09
1.31803e+09
-8.55725e+09
1.04121e+09
-7.34669e+09
-2.59262e+10
-5.43865e+09
-2.64096e+10
-3.95789e+09
-2.34858e+10
-3.85909e+09
-2.46771e+10
-8.24752e+08
-2.36069e+10
-8.70245e+08
-2.41038e+10
9.33476e+08
-2.42827e+10
6.57345e+08
-2.49846e+10
1.24966e+09
-2.57623e+10
9.55341e+08
-2.64648e+10
7.02383e+08
-2.68978e+10
3.80791e+08
-2.71745e+10
1.39458e+08
-2.73794e+10
-2.46104e+07
-2.74778e+10
-1.79447e+08
-2.74997e+10
-2.69641e+08
-2.75331e+10
-2.71756e+08
-2.75979e+10
-2.58211e+08
-2.76469e+10
-2.69412e+08
-2.76552e+10
-2.94615e+08
-2.76436e+10
-3.02402e+08
-2.76099e+10
-3.24098e+08
-2.7553e+10
-3.46091e+08
-2.74724e+10
-3.69024e+08
-2.73743e+10
-3.87717e+08
-2.72584e+10
-4.0674e+08
-2.7127e+10
-4.2113e+08
-2.69787e+10
-4.34072e+08
-2.6816e+10
-4.4148e+08
-2.6637e+10
-4.46538e+08
-2.64413e+10
-4.47167e+08
-2.62278e+10
-4.43009e+08
-2.59946e+10
-4.34514e+08
-2.57423e+10
-4.17781e+08
-2.54674e+10
-3.97321e+08
-2.51685e+10
-3.73523e+08
-2.48492e+10
-3.46671e+08
-2.45105e+10
-3.185e+08
-2.41567e+10
-2.85795e+08
-2.37888e+10
-2.52661e+08
-2.3411e+10
-2.19547e+08
-2.3026e+10
-1.88726e+08
-2.26321e+10
-1.65337e+08
-2.22199e+10
-1.5429e+08
-2.17714e+10
-1.6012e+08
-2.12559e+10
-1.91612e+08
-2.06385e+10
-2.55508e+08
-1.9896e+10
-3.50559e+08
-1.90117e+10
-4.74059e+08
-1.80419e+10
-5.52626e+08
-1.72811e+10
-2.76826e+08
-1.68307e+10
1.72528e+08
-1.57851e+10
-2.57744e+08
-4.33152e+09
-9.98319e+09
-7.61453e+09
-2.86878e+10
7.97724e+08
-1.37063e+09
-3.3267e+10
-2.60326e+09
4.83476e+09
-3.26775e+10
-1.61868e+09
1.01286e+10
-3.45622e+10
-1.70364e+09
1.33217e+09
-3.4649e+10
-6.94824e+08
1.86224e+09
-3.61675e+10
8.92347e+08
4.6315e+09
-3.72381e+10
6.88904e+08
2.54076e+09
-3.70211e+10
4.75601e+08
1.40254e+09
-3.69754e+10
2.78334e+08
1.22399e+09
-3.7164e+10
2.66689e+08
1.02758e+09
-3.74031e+10
2.04189e+08
6.42664e+08
-3.76949e+10
1.60864e+08
4.04867e+08
-3.79809e+10
1.26217e+08
2.51665e+08
-3.82462e+10
1.03767e+08
9.81949e+07
-3.85274e+10
8.68399e+07
1.08504e+07
-3.87938e+10
6.41472e+07
4.01833e+06
-3.89968e+10
3.77473e+07
-2.81139e+06
-3.91386e+10
1.63009e+07
-8.84829e+06
-3.92606e+10
-7.66263e+06
-7.53544e+06
-3.93554e+10
-2.55705e+07
-1.71485e+06
-3.94152e+10
-4.81351e+07
-6.35877e+06
-3.94431e+10
-7.17472e+07
-1.08392e+07
-3.94473e+10
-9.59342e+07
-1.28915e+07
-3.9427e+10
-1.20941e+08
-1.2678e+07
-3.93879e+10
-1.47066e+08
-6.2797e+06
-3.93301e+10
-1.73791e+08
4.34665e+06
-3.92602e+10
-2.00432e+08
2.23844e+07
-3.91796e+10
-2.2706e+08
4.63851e+07
-3.90939e+10
-2.53511e+08
7.84937e+07
-3.90047e+10
-2.8005e+08
1.17108e+08
-3.89142e+10
-3.06388e+08
1.63402e+08
-3.8824e+10
-3.32883e+08
2.17936e+08
-3.87395e+10
-3.59315e+08
2.88748e+08
-3.86633e+10
-3.81568e+08
3.55034e+08
-3.85886e+10
-3.98308e+08
4.00141e+08
-3.85371e+10
-4.17051e+08
4.73967e+08
-3.85282e+10
-4.3513e+08
5.64444e+08
-3.858e+10
-4.49905e+08
6.65837e+08
-3.87107e+10
-4.63392e+08
7.79345e+08
-3.89328e+10
-4.76954e+08
9.00456e+08
-3.9257e+10
-4.8999e+08
1.02791e+09
-3.96973e+10
-5.01025e+08
1.16266e+09
-4.02662e+10
-5.05802e+08
1.30098e+09
-4.09757e+10
-5.04076e+08
1.44138e+09
-4.18164e+10
-4.98239e+08
1.56629e+09
-4.27585e+10
-4.83108e+08
1.64964e+09
-4.37775e+10
-4.42199e+08
1.67001e+09
-4.47962e+10
-3.71055e+08
1.55207e+09
-4.55944e+10
-2.57291e+08
1.1543e+09
-4.51827e+10
-1.02519e+08
6.66375e+06
-4.19741e+10
4.08727e+08
-2.78854e+09
-3.67598e+10
1.94037e+09
-7.35054e+09
-3.76319e+10
3.76411e+09
-1.10518e+10
4.88261e+08
-3.02226e+09
-3.35605e+10
-1.84915e+09
-3.48431e+10
-5.45542e+09
-3.56577e+10
-4.8385e+09
-3.74034e+10
-9.31497e+08
-3.82406e+10
-8.61227e+08
-3.73419e+10
8.16842e+08
-3.66705e+10
5.88137e+08
-3.56037e+10
5.8902e+08
-3.50052e+10
5.73801e+08
-3.46895e+10
5.94745e+08
-3.45634e+10
4.01043e+08
-3.45578e+10
2.37588e+08
-3.46092e+10
9.57964e+07
-3.46716e+10
-7.21056e+07
-3.47282e+10
-1.84249e+08
-3.47697e+10
-2.22906e+08
-3.4787e+10
-2.55902e+08
-3.47971e+10
-2.90751e+08
-3.4825e+10
-3.13973e+08
-3.48457e+10
-3.37386e+08
-3.4871e+10
-3.66577e+08
-3.49055e+10
-3.9394e+08
-3.49539e+10
-4.19271e+08
-3.50182e+10
-4.40183e+08
-3.51072e+10
-4.5413e+08
-3.52227e+10
-4.62629e+08
-3.53712e+10
-4.6323e+08
-3.55537e+10
-4.57352e+08
-3.57757e+10
-4.4378e+08
-3.60388e+10
-4.24202e+08
-3.63455e+10
-3.97261e+08
-3.66979e+10
-3.64312e+08
-3.70977e+10
-3.22114e+08
-3.75475e+10
-2.70098e+08
-3.80501e+10
-2.07949e+08
-3.86133e+10
-1.38002e+08
-3.92449e+10
-5.97332e+07
-3.99537e+10
3.38665e+07
-4.07489e+10
1.36826e+08
-4.16394e+10
2.47756e+08
-4.26331e+10
3.6426e+08
-4.37381e+10
4.85496e+08
-4.49489e+10
5.99683e+08
-4.62539e+10
6.9991e+08
-4.76443e+10
7.79238e+08
-4.90938e+10
8.16915e+08
-5.05346e+10
7.82329e+08
-5.18606e+10
6.37491e+08
-5.28432e+10
3.34062e+08
-5.25552e+10
-5.06885e+08
-4.93657e+10
-2.42522e+09
-4.18831e+10
-5.59125e+09
-4.3109e+10
-4.8303e+09
-4.1123e+08
-2.83605e+10
1.37656e+09
1.56951e+09
-2.93443e+10
1.94541e+09
3.19591e+09
-2.60303e+10
1.27999e+09
4.91165e+09
-2.92118e+10
7.27666e+08
3.22255e+09
-2.84768e+10
3.10145e+07
6.15996e+08
-2.7343e+10
9.55125e+08
2.16607e+09
-2.72581e+10
5.98041e+08
1.57456e+09
-2.68891e+10
2.96655e+08
5.30477e+08
-2.61471e+10
8.08924e+07
2.51071e+08
-2.55455e+10
6.54484e+07
2.42124e+08
-2.51657e+10
6.96242e+07
9.28206e+07
-2.4958e+10
8.6503e+07
2.08999e+07
-2.48381e+10
8.17749e+07
-3.67171e+07
-2.48413e+10
9.10925e+07
-7.89525e+07
-2.49228e+10
1.20565e+08
-1.25043e+08
-2.49879e+10
1.14398e+08
-1.41337e+08
-2.50391e+10
1.10869e+08
-1.63126e+08
-2.50625e+10
1.06049e+08
-1.85947e+08
-2.50692e+10
1.02558e+08
-1.94498e+08
-2.50481e+10
1.04398e+08
-2.02379e+08
-2.50124e+10
1.07024e+08
-2.10685e+08
-2.49589e+10
1.10668e+08
-2.16336e+08
-2.48946e+10
1.13281e+08
-2.18718e+08
-2.48211e+10
1.1633e+08
-2.15958e+08
-2.47415e+10
1.18856e+08
-2.06183e+08
-2.46598e+10
1.21476e+08
-1.88279e+08
-2.45786e+10
1.24271e+08
-1.61476e+08
-2.45005e+10
1.27415e+08
-1.26798e+08
-2.4426e+10
1.31382e+08
-8.42845e+07
-2.43577e+10
1.36432e+08
-3.4153e+07
-2.42933e+10
1.43217e+08
1.99442e+07
-2.42295e+10
1.52438e+08
7.53763e+07
-2.41579e+10
1.61333e+08
1.38905e+08
-2.40929e+10
1.64244e+08
2.16149e+08
-2.40545e+10
1.62885e+08
2.94858e+08
-2.40241e+10
1.64925e+08
3.77466e+08
-2.39865e+10
1.72102e+08
4.54065e+08
-2.39278e+10
1.74022e+08
5.28554e+08
-2.38407e+10
1.74263e+08
6.06267e+08
-2.37242e+10
1.75496e+08
6.84768e+08
-2.35816e+10
1.80426e+08
7.66868e+08
-2.34111e+10
1.90179e+08
8.48936e+08
-2.32132e+10
2.08511e+08
9.32429e+08
-2.29813e+10
2.37356e+08
1.01197e+09
-2.27164e+10
2.83448e+08
1.07559e+09
-2.24567e+10
3.61777e+08
1.11676e+09
-2.22634e+10
4.85738e+08
1.1126e+09
-2.21861e+10
6.70597e+08
9.38561e+08
-2.22406e+10
9.20561e+08
3.9486e+08
-2.26271e+10
1.25215e+09
-8.12733e+08
-2.45451e+10
1.86164e+09
-2.7635e+09
-2.96358e+10
3.13313e+09
-5.36548e+09
-3.84334e+10
6.9753e+09
-9.2685e+09
3.27797e+09
-1.83137e+09
-2.55395e+10
-8.92495e+08
-2.47938e+10
-4.7284e+09
-2.63116e+10
-2.48238e+09
-2.69587e+10
3.7061e+07
-2.80205e+10
-1.27392e+08
-2.71598e+10
6.30673e+08
-2.69737e+10
7.89843e+08
-2.64684e+10
2.25625e+08
-2.58687e+10
-6.22756e+07
-2.52995e+10
-1.43301e+06
-2.49224e+10
1.63993e+07
-2.46671e+10
655413
-2.44809e+10
-7.3795e+07
-2.43457e+10
-1.83455e+08
-2.42246e+10
-2.54332e+08
-2.41311e+10
-2.74951e+08
-2.40267e+10
-3.22167e+08
-2.39069e+10
-3.77014e+08
-2.37846e+10
-4.00642e+08
-2.36481e+10
-4.28512e+08
-2.3503e+10
-4.51754e+08
-2.33496e+10
-4.73358e+08
-2.31917e+10
-4.896e+08
-2.30325e+10
-4.99532e+08
-2.28748e+10
-5.0057e+08
-2.27234e+10
-4.91831e+08
-2.25812e+10
-4.72672e+08
-2.24504e+10
-4.44663e+08
-2.23314e+10
-4.07848e+08
-2.22253e+10
-3.62934e+08
-2.21273e+10
-3.14139e+08
-2.20332e+10
-2.61489e+08
-2.1944e+10
-2.00131e+08
-2.18662e+10
-1.29344e+08
-2.18024e+10
-5.18845e+07
-2.17511e+10
3.38906e+07
-2.17021e+10
1.20151e+08
-2.16519e+10
2.10601e+08
-2.16061e+10
3.10847e+08
-2.15672e+10
4.20112e+08
-2.15367e+10
5.37848e+08
-2.1511e+10
6.62621e+08
-2.14895e+10
7.92356e+08
-2.14607e+10
9.14834e+08
-2.1404e+10
1.02105e+09
-2.12978e+10
1.0998e+09
-2.11294e+10
1.13333e+09
-2.08809e+10
1.08007e+09
-2.04975e+10
8.5536e+08
-2.00844e+10
2.66436e+08
-2.00005e+10
-7.54889e+08
-2.01424e+10
-2.42464e+09
-1.21863e+10
-5.9201e+09
-3.11165e+09
-2.63711e+10
7.08676e+08
2.13818e+09
-2.69525e+10
1.89289e+09
1.02816e+09
-2.55565e+10
2.19405e+09
5.41949e+08
-2.59557e+10
1.27908e+09
1.64746e+09
-2.70053e+10
9.44195e+08
1.32917e+08
-2.66023e+10
1.00261e+09
3.07308e+08
-2.65729e+10
8.52169e+08
3.50861e+08
-2.66444e+10
4.20469e+08
-6.84542e+07
-2.64417e+10
875597
-1.35463e+08
-2.622e+10
-1.23443e+08
4.94392e+06
-2.60757e+10
-1.03704e+08
-5.79662e+07
-2.59575e+10
-7.18686e+07
-1.19034e+08
-2.58352e+10
-6.9871e+07
-1.74888e+08
-2.57403e+10
-5.30281e+07
-2.1266e+08
-2.56688e+10
-3.99454e+07
-2.5193e+08
-2.56074e+10
-4.63054e+07
-2.64612e+08
-2.55395e+10
-5.43476e+07
-2.8754e+08
-2.54567e+10
-6.78255e+07
-3.19413e+08
-2.5355e+10
-7.38839e+07
-3.37644e+08
-2.52307e+10
-7.66489e+07
-3.61156e+08
-2.50801e+10
-7.78078e+07
-3.79504e+08
-2.49062e+10
-7.99273e+07
-3.92668e+08
-2.47107e+10
-8.17321e+07
-3.99412e+08
-2.44995e+10
-8.37839e+07
-3.96238e+08
-2.42781e+10
-8.58098e+07
-3.82047e+08
-2.40524e+10
-8.74021e+07
-3.54594e+08
-2.38268e+10
-8.85186e+07
-3.15591e+08
-2.36053e+10
-8.9279e+07
-2.65531e+08
-2.33894e+10
-8.98809e+07
-2.06824e+08
-2.31776e+10
-8.89105e+07
-1.43847e+08
-2.29798e+10
-8.1634e+07
-7.40705e+07
-2.28134e+10
-6.55673e+07
5.34252e+06
-2.26648e+10
-5.69955e+07
8.47389e+07
-2.2497e+10
-5.50136e+07
1.46797e+08
-2.23262e+10
-3.23129e+07
2.03366e+08
-2.21451e+10
-2.42806e+07
2.69432e+08
-2.19791e+10
-1.13651e+07
3.44891e+08
-2.18289e+10
6.61965e+06
4.10292e+08
-2.16916e+10
2.17084e+07
4.71527e+08
-2.15737e+10
3.90079e+07
5.32873e+08
-2.1474e+10
5.41786e+07
5.92357e+08
-2.13899e+10
7.03841e+07
6.46874e+08
-2.13167e+10
8.82549e+07
6.97279e+08
-2.12477e+10
1.08e+08
7.41824e+08
-2.11875e+10
1.3711e+08
7.71542e+08
-2.11665e+10
1.88227e+08
7.85128e+08
-2.12441e+10
2.67972e+08
7.67733e+08
-2.15632e+10
3.74892e+08
6.60137e+08
-2.24062e+10
5.26003e+08
3.81048e+08
-2.43733e+10
8.15308e+08
-1.31182e+08
-2.84127e+10
1.54193e+09
-8.14795e+08
-3.53841e+10
3.04524e+09
-2.07171e+09
-4.61039e+10
6.65148e+09
-5.63843e+09
1.59626e+09
1.33077e+10
-2.45388e+10
8.27533e+08
-2.5946e+10
-1.9593e+09
-2.71934e+10
4.77751e+08
-2.68303e+10
5.19399e+08
-2.68003e+10
4.17746e+08
-2.5933e+10
4.77471e+08
-2.51879e+10
6.80931e+08
-2.4957e+10
2.55217e+08
-2.50098e+10
-1.27526e+08
-2.5048e+10
-1.77622e+08
-2.50986e+10
-1.10648e+08
-2.51278e+10
-1.06716e+08
-2.51416e+10
-1.92e+08
-2.51412e+10
-3.00437e+08
-2.51406e+10
-3.63501e+08
-2.51661e+10
-3.67873e+08
-2.5207e+10
-4.1196e+08
-2.52628e+10
-4.66974e+08
-2.53138e+10
-5.00831e+08
-2.53518e+10
-5.38883e+08
-2.53764e+10
-5.68906e+08
-2.53912e+10
-5.92422e+08
-2.53999e+10
-6.06591e+08
-2.54082e+10
-6.09726e+08
-2.54212e+10
-5.99145e+08
-2.54451e+10
-5.72968e+08
-2.54834e+10
-5.3311e+08
-2.55382e+10
-4.82339e+08
-2.5611e+10
-4.21458e+08
-2.57021e+10
-3.51107e+08
-2.58107e+10
-2.7175e+08
-2.5929e+10
-1.88396e+08
-2.60598e+10
-1.01758e+08
-2.6207e+10
-9.57762e+06
-2.63488e+10
8.71845e+07
-2.64947e+10
1.84853e+08
-2.66455e+10
2.86355e+08
-2.68015e+10
3.9384e+08
-2.69642e+10
5.06399e+08
-2.71282e+10
6.21164e+08
-2.72925e+10
7.38896e+08
-2.74522e+10
8.59165e+08
-2.7599e+10
9.80147e+08
-2.77314e+10
1.09841e+09
-2.78398e+10
1.20289e+09
-2.79056e+10
1.2813e+09
-2.79313e+10
1.33461e+09
-2.79588e+10
1.35185e+09
-2.80309e+10
1.26578e+09
-2.80711e+10
8.61466e+08
-2.75237e+10
-1.00348e+08
-2.47597e+10
-2.49821e+09
-1.8082e+10
-6.15085e+09
-2.15191e+09
-2.78027e+10
3.57907e+08
1.75485e+09
-2.82385e+10
2.39543e+08
6.78451e+08
-2.89888e+10
1.19192e+08
7.0591e+08
-2.81603e+10
3.48958e+08
6.92303e+07
-2.83048e+10
2.61791e+08
-3.08522e+08
-2.82153e+10
3.46395e+08
-3.81686e+08
-2.82513e+10
3.45769e+08
-1.48336e+08
-2.84091e+10
1.64929e+08
-2.16501e+08
-2.84979e+10
-7.19456e+06
-1.4775e+08
-2.84783e+10
-5.21883e+07
-5.1331e+07
-2.85195e+10
-1.80411e+07
-7.56841e+07
-2.86092e+10
2.24953e+06
-9.94159e+07
-2.87335e+10
2.52907e+07
-1.39176e+08
-2.88514e+10
4.21093e+07
-2.00531e+08
-2.89807e+10
4.89975e+07
-2.39169e+08
-2.91069e+10
3.76127e+07
-2.51281e+08
-2.92185e+10
2.94132e+07
-2.83264e+08
-2.93155e+10
2.00404e+07
-3.30794e+08
-2.93874e+10
1.4005e+07
-3.68729e+08
-2.94348e+10
8.05982e+06
-4.13572e+08
-2.94458e+10
3.73942e+06
-4.53414e+08
-2.94206e+10
-2.02339e+06
-4.90193e+08
-2.93555e+10
-7.23726e+06
-5.15682e+08
-2.92565e+10
-1.42768e+07
-5.29242e+08
-2.9128e+10
-2.15407e+07
-5.2442e+08
-2.89766e+10
-2.96507e+07
-5.01113e+08
-2.88074e+10
-3.83967e+07
-4.61238e+08
-2.86209e+10
-4.77301e+07
-4.1024e+08
-2.84179e+10
-5.63875e+07
-3.51351e+08
-2.82025e+10
-6.36807e+07
-2.85868e+08
-2.79824e+10
-6.86425e+07
-2.0914e+08
-2.77572e+10
-7.08943e+07
-1.26504e+08
-2.75142e+10
-7.47473e+07
-5.59473e+07
-2.72595e+10
-8.64037e+07
1.00029e+07
-2.70087e+10
-1.02112e+08
8.84951e+07
-2.67393e+10
-1.14242e+08
1.48056e+08
-2.64461e+10
-1.2011e+08
2.0205e+08
-2.61399e+10
-1.23966e+08
2.50921e+08
-2.58225e+10
-1.2948e+08
2.9408e+08
-2.54909e+10
-1.35405e+08
3.30494e+08
-2.51385e+10
-1.42136e+08
3.54702e+08
-2.47599e+10
-1.48842e+08
3.67569e+08
-2.43479e+10
-1.53564e+08
3.68498e+08
-2.38973e+10
-1.52873e+08
3.58211e+08
-2.34135e+10
-1.43979e+08
3.34181e+08
-2.29196e+10
-1.19491e+08
3.00466e+08
-2.24709e+10
-7.94854e+07
2.61432e+08
-2.22135e+10
-2.30043e+07
2.33114e+08
-2.23891e+10
5.83046e+07
2.05198e+08
-2.32944e+10
2.05888e+08
1.22093e+08
-2.53916e+10
6.33542e+08
-1.95495e+07
-2.84691e+10
1.16833e+09
-9.48715e+08
-3.42522e+10
3.66812e+09
-4.30069e+09
-2.61684e+09
-9.36347e+09
-2.60971e+10
1.33197e+09
-2.65353e+10
-1.58978e+09
-2.65831e+10
3.73317e+08
-2.56869e+10
-2.56664e+08
-2.53308e+10
1.33745e+08
-2.50471e+10
3.9191e+08
-2.46818e+10
5.48313e+08
-2.4538e+10
1.89601e+08
-2.46619e+10
-8.11833e+07
-2.48672e+10
-8.53057e+07
-2.50318e+10
-1.82715e+07
-2.51217e+10
-6.3725e+07
-2.5152e+10
-1.82852e+08
-2.51745e+10
-2.82901e+08
-2.52221e+10
-3.17055e+08
-2.52742e+10
-3.3174e+08
-2.53249e+10
-3.90699e+08
-2.53775e+10
-4.56636e+08
-2.54177e+10
-5.12434e+08
-2.54414e+10
-5.71104e+08
-2.54429e+10
-6.23863e+08
-2.54206e+10
-6.68341e+08
-2.53783e+10
-7.00294e+08
-2.53217e+10
-7.15645e+08
-2.52598e+10
-7.09837e+08
-2.51994e+10
-6.82528e+08
-2.51474e+10
-6.36217e+08
-2.51102e+10
-5.73936e+08
-2.50915e+10
-4.97604e+08
-2.50897e+10
-4.12638e+08
-2.51e+10
-3.21687e+08
-2.51201e+10
-2.27019e+08
-2.5151e+10
-1.304e+08
-2.5198e+10
-3.20751e+07
-2.5259e+10
6.34542e+07
-2.53321e+10
1.59021e+08
-2.54123e+10
2.57123e+08
-2.54926e+10
3.52853e+08
-2.55748e+10
4.50382e+08
-2.56572e+10
5.44418e+08
-2.57337e+10
6.32115e+08
-2.57958e+10
7.13325e+08
-2.58323e+10
7.88384e+08
-2.58319e+10
8.58065e+08
-2.57868e+10
9.17094e+08
-2.56946e+10
9.60497e+08
-2.55635e+10
9.90642e+08
-2.54363e+10
1.02095e+09
-2.54153e+10
1.03645e+09
-2.56641e+10
9.1316e+08
-2.60611e+10
3.56755e+08
-2.67167e+10
-1.35363e+09
-2.46759e+10
-4.92536e+09
-2.56735e+08
-2.85615e+10
6.23706e+08
1.02364e+08
-2.83184e+10
7.17305e+08
-4.54734e+08
-2.83446e+10
7.74679e+08
-1.56085e+08
-2.8072e+10
6.70049e+08
-9.41962e+08
-2.78264e+10
2.72311e+08
-8.81553e+08
-2.76503e+10
1.79509e+08
-7.84923e+08
-2.75409e+10
2.49016e+08
-5.51522e+08
-2.76238e+10
2.21169e+08
-3.99103e+08
-2.77896e+10
1.1591e+08
-1.46737e+08
-2.7953e+10
5.15289e+07
6.85914e+06
-2.81542e+10
7.55742e+07
-3.94273e+06
-2.83253e+10
9.89168e+07
-7.72745e+07
-2.85456e+10
1.31439e+08
-9.66484e+07
-2.88116e+10
1.42585e+08
-1.21577e+08
-2.91127e+10
1.42668e+08
-1.30277e+08
-2.94103e+10
1.38136e+08
-1.41363e+08
-2.9711e+10
1.34604e+08
-1.76587e+08
-3.00146e+10
1.3257e+08
-2.22272e+08
-3.03189e+10
1.3101e+08
-2.68484e+08
-3.0615e+10
1.3033e+08
-3.20512e+08
-3.09003e+10
1.28904e+08
-3.7138e+08
-3.11659e+10
1.28847e+08
-4.1785e+08
-3.14135e+10
1.27845e+08
-4.5295e+08
-3.16444e+10
1.26064e+08
-4.70889e+08
-3.18622e+10
1.21762e+08
-4.6485e+08
-3.20665e+10
1.1482e+08
-4.38786e+08
-3.22579e+10
1.06516e+08
-3.94983e+08
-3.24382e+10
9.68073e+07
-3.38289e+08
-3.26074e+10
8.6052e+07
-2.73714e+08
-3.27661e+10
7.56322e+07
-2.03306e+08
-3.29065e+10
6.57281e+07
-1.30601e+08
-3.30155e+10
5.42154e+07
-6.48522e+07
-3.30929e+10
4.00652e+07
-9.51542e+06
-3.31482e+10
2.58195e+07
4.87524e+07
-3.31801e+10
1.08671e+07
1.17267e+08
-3.31909e+10
-8.09205e+06
1.69958e+08
-3.31751e+10
-2.76028e+07
2.09552e+08
-3.31333e+10
-4.73737e+07
2.40641e+08
-3.30648e+10
-6.90245e+07
2.63695e+08
-3.2971e+10
-9.21843e+07
2.78171e+08
-3.28537e+10
-1.15971e+08
2.80129e+08
-3.27141e+10
-1.40379e+08
2.70662e+08
-3.25514e+10
-1.6324e+08
2.488e+08
-3.23674e+10
-1.78212e+08
2.13154e+08
-3.21778e+10
-1.80217e+08
1.69877e+08
-3.20162e+10
-1.67473e+08
1.32868e+08
-3.19525e+10
-1.44595e+08
1.348e+08
-3.21333e+10
-1.18269e+08
2.54061e+08
-3.27314e+10
-7.36161e+07
4.64597e+08
-3.40513e+10
-4.12595e+06
8.15134e+08
-3.63772e+10
1.47618e+08
1.26591e+09
-3.9282e+10
-3.09212e+08
1.22896e+09
-4.90877e+10
5.5327e+08
3.9619e+09
-2.80084e+10
-2.08584e+10
-2.82312e+10
4.14084e+08
-2.77223e+10
-1.49037e+09
-2.71963e+10
5.50461e+08
-2.65205e+10
-3.11844e+08
-2.6297e+10
1.4401e+08
-2.61644e+10
4.06194e+08
-2.58219e+10
4.25346e+08
-2.55064e+10
6.52123e+07
-2.54125e+10
-9.19117e+07
-2.55492e+10
6.79713e+07
-2.56801e+10
1.5341e+08
-2.57224e+10
4.47217e+07
-2.57398e+10
-6.52423e+07
-2.57956e+10
-1.16259e+08
-2.58703e+10
-1.32761e+08
-2.59343e+10
-1.66185e+08
-2.59983e+10
-2.31721e+08
-2.60624e+10
-3.0476e+08
-2.61144e+10
-3.78001e+08
-2.61502e+10
-4.56089e+08
-2.61621e+10
-5.31861e+08
-2.61449e+10
-6.01719e+08
-2.60978e+10
-6.58529e+08
-2.60255e+10
-6.94348e+08
-2.59364e+10
-7.03149e+08
-2.58373e+10
-6.86271e+08
-2.57347e+10
-6.46172e+08
-2.56339e+10
-5.867e+08
-2.55344e+10
-5.1563e+08
-2.54312e+10
-4.4104e+08
-2.53202e+10
-3.64888e+08
-2.52023e+10
-2.86293e+08
-2.50806e+10
-2.06561e+08
-2.49546e+10
-1.26948e+08
-2.48262e+10
-5.06937e+07
-2.46964e+10
2.03783e+07
-2.45648e+10
9.02888e+07
-2.44339e+10
1.57088e+08
-2.43058e+10
2.22288e+08
-2.41862e+10
2.85098e+08
-2.40808e+10
3.44087e+08
-2.39926e+10
3.98745e+08
-2.39214e+10
4.50186e+08
-2.38633e+10
5.03491e+08
-2.38216e+10
5.64687e+08
-2.38169e+10
6.41321e+08
-2.39071e+10
7.57532e+08
-2.42223e+10
9.72792e+08
-2.49507e+10
1.32904e+09
-2.6445e+10
1.85568e+09
-2.92938e+10
2.59978e+09
-3.55734e+10
3.87325e+09
-4.60597e+10
5.78608e+09
-1.28053e+08
-2.92511e+10
2.8428e+08
-1.68235e+09
-2.88321e+10
4.82221e+08
-1.35229e+09
-2.83553e+10
4.9177e+08
-1.06953e+09
-2.81286e+10
2.57293e+08
-1.35613e+09
-2.7663e+10
-1.18786e+08
-1.16543e+09
-2.73063e+10
-1.20343e+08
-9.77908e+08
-2.70102e+10
4.18073e+07
-8.65504e+08
-2.6827e+10
1.57027e+08
-7.34239e+08
-2.6648e+10
1.50881e+08
-4.87634e+08
-2.65264e+10
1.34001e+08
-2.71964e+08
-2.64793e+10
1.1468e+08
-1.95073e+08
-2.64611e+10
1.1561e+08
-2.41413e+08
-2.64703e+10
1.37927e+08
-2.54467e+08
-2.65205e+10
1.48519e+08
-2.48769e+08
-2.65934e+10
1.51175e+08
-2.38147e+08
-2.66739e+10
1.52569e+08
-2.43911e+08
-2.67671e+10
1.54262e+08
-2.72314e+08
-2.68736e+10
1.57172e+08
-3.09413e+08
-2.69938e+10
1.59159e+08
-3.54737e+08
-2.71215e+10
1.61208e+08
-4.04349e+08
-2.72543e+10
1.62175e+08
-4.56855e+08
-2.73843e+10
1.64662e+08
-5.01659e+08
-2.7517e+10
1.65274e+08
-5.33794e+08
-2.76561e+10
1.64935e+08
-5.33695e+08
-2.78123e+10
1.60356e+08
-4.99971e+08
-2.79893e+10
1.53281e+08
-4.36153e+08
-2.81869e+10
1.43434e+08
-3.5357e+08
-2.84011e+10
1.31923e+08
-2.61045e+08
-2.86255e+10
1.18986e+08
-1.66519e+08
-2.88488e+10
1.03522e+08
-7.57201e+07
-2.90634e+10
8.522e+07
1.15888e+07
-2.92633e+10
6.50436e+07
8.69049e+07
-2.94496e+10
4.43638e+07
1.51968e+08
-2.962e+10
2.57904e+07
2.13967e+08
-2.97606e+10
9.0123e+06
2.68294e+08
-2.98702e+10
-9.17579e+06
3.04327e+08
-2.99486e+10
-2.87512e+07
3.25853e+08
-2.99936e+10
-4.91184e+07
3.33975e+08
-3.0001e+10
-7.05978e+07
3.27914e+08
-2.99633e+10
-9.30816e+07
3.03137e+08
-2.98773e+10
-1.16191e+08
2.61598e+08
-2.97367e+10
-1.39991e+08
2.03344e+08
-2.95339e+10
-1.6338e+08
1.28905e+08
-2.92621e+10
-1.82121e+08
3.62844e+07
-2.89186e+10
-1.93174e+08
-6.56968e+07
-2.85076e+10
-1.96222e+08
-1.6072e+08
-2.80434e+10
-1.9798e+08
-2.08178e+08
-2.75688e+10
-2.18962e+08
-9.86661e+07
-2.71379e+10
-2.41116e+08
1.10321e+08
-2.71012e+10
-2.13989e+08
7.22018e+08
-2.79473e+10
-1.45341e+08
1.92029e+09
-3.0402e+10
-1.80607e+08
3.51802e+09
-3.75137e+10
7.57311e+08
1.02817e+10
-2.72683e+09
2.46819e+09
-2.96816e+10
-1.06847e+09
-2.89753e+10
-1.68133e+09
-2.81941e+10
3.22514e+08
-2.77166e+10
-4.60472e+08
-2.76429e+10
1.66409e+07
-2.75526e+10
2.45002e+08
-2.70908e+10
3.70249e+07
-2.66567e+10
-1.97495e+08
-2.65076e+10
-9.05192e+07
-2.64697e+10
1.53446e+08
-2.64192e+10
2.01553e+08
-2.63818e+10
1.05412e+08
-2.63771e+10
5.0299e+07
-2.64024e+10
3.97279e+07
-2.64319e+10
2.91136e+07
-2.6459e+10
-6.55554e+06
-2.64926e+10
-6.52109e+07
-2.65306e+10
-1.35126e+08
-2.65646e+10
-2.14167e+08
-2.65912e+10
-3.01807e+08
-2.66007e+10
-3.93783e+08
-2.65858e+10
-4.84824e+08
-2.65422e+10
-5.65028e+08
-2.64785e+10
-6.17717e+08
-2.64059e+10
-6.34193e+08
-2.63352e+10
-6.17013e+08
-2.62711e+10
-5.74689e+08
-2.6215e+10
-5.13529e+08
-2.61649e+10
-4.44521e+08
-2.61157e+10
-3.80023e+08
-2.60702e+10
-3.1466e+08
-2.60273e+10
-2.50252e+08
-2.59823e+10
-1.91066e+08
-2.59282e+10
-1.37975e+08
-2.58619e+10
-9.09986e+07
-2.57873e+10
-4.85853e+07
-2.57058e+10
-9.36906e+06
-2.56175e+10
2.3927e+07
-2.55224e+10
5.21402e+07
-2.54193e+10
7.37794e+07
-2.5312e+10
9.3811e+07
-2.52006e+10
1.10309e+08
-2.50804e+10
1.23152e+08
-2.49418e+10
1.39395e+08
-2.47768e+10
1.69356e+08
-2.45808e+10
2.22252e+08
-2.4363e+10
3.21146e+08
-2.41777e+10
5.38579e+08
-2.409e+10
9.3345e+08
-2.42521e+10
1.68784e+09
-2.49723e+10
3.02318e+09
-2.64091e+10
5.05535e+09
-3.15131e+10
1.17662e+10
3.76605e+09
-2.95853e+10
1.14371e+08
-2.83287e+09
-2.92483e+10
3.12875e+08
-1.82153e+09
-2.88499e+10
1.85686e+08
-1.44905e+09
-2.86194e+10
-5.20903e+07
-1.33353e+09
-2.81983e+10
-2.88027e+08
-1.13037e+09
-2.7901e+10
-2.39343e+08
-9.11588e+08
-2.78107e+10
-7.68356e+07
-7.97431e+08
-2.7818e+10
3.62422e+07
-7.17845e+08
-2.77595e+10
5.77911e+07
-5.86584e+08
-2.76465e+10
7.30322e+07
-4.58966e+08
-2.74789e+10
7.30537e+07
-4.46615e+08
-2.73497e+10
8.38244e+07
-4.68842e+08
-2.72574e+10
1.08868e+08
-4.70548e+08
-2.71788e+10
1.2597e+08
-4.68844e+08
-2.70935e+10
1.37975e+08
-4.76169e+08
-2.69991e+10
1.48422e+08
-5.0364e+08
-2.68943e+10
1.59981e+08
-5.49886e+08
-2.67797e+10
1.70312e+08
-6.1274e+08
-2.66467e+10
1.80751e+08
-6.88267e+08
-2.64973e+10
1.89285e+08
-7.72932e+08
-2.63207e+10
1.98949e+08
-8.61976e+08
-2.61134e+10
2.07986e+08
-9.5129e+08
-2.58717e+10
2.18682e+08
-1.02246e+09
-2.56189e+10
2.28936e+08
-1.04156e+09
-2.5389e+10
2.40282e+08
-9.89533e+08
-2.52096e+10
2.52195e+08
-8.79763e+08
-2.50907e+10
2.6359e+08
-7.39393e+08
-2.5034e+10
2.74502e+08
-5.86557e+08
-2.50362e+10
2.85394e+08
-4.34797e+08
-2.50849e+10
2.94238e+08
-2.97538e+08
-2.51602e+10
3.00625e+08
-1.81701e+08
-2.52529e+10
3.0552e+08
-8.63175e+07
-2.53565e+10
3.05476e+08
-4.2034e+06
-2.54608e+10
3.01864e+08
6.71531e+07
-2.55528e+10
2.96058e+08
1.17668e+08
-2.56282e+10
2.88973e+08
1.45109e+08
-2.5683e+10
2.80407e+08
1.53066e+08
-2.57125e+10
2.69723e+08
1.42931e+08
-2.57101e+10
2.56238e+08
1.12162e+08
-2.56715e+10
2.40336e+08
5.94199e+07
-2.55897e+10
2.22817e+08
-1.59322e+07
-2.5457e+10
2.05e+08
-1.10989e+08
-2.52661e+10
1.88676e+08
-2.22798e+08
-2.5011e+10
1.75852e+08
-3.47564e+08
-2.4696e+10
1.69475e+08
-4.66132e+08
-2.43351e+10
1.76783e+08
-5.57552e+08
-2.39385e+10
1.97997e+08
-5.92207e+08
-2.34767e+10
2.09368e+08
-4.92646e+08
-2.29499e+10
2.23017e+08
-3.23903e+08
-2.21123e+10
2.18233e+08
-6.12666e+06
-2.04929e+10
2.25269e+07
5.70036e+08
-1.88917e+10
-1.18599e+08
2.46059e+09
-1.96083e+10
9.14926e+08
1.03907e+10
6.35105e+08
5.10174e+09
-3.01061e+10
-2.2682e+09
-2.95779e+10
-1.78975e+09
-2.89112e+10
-3.11715e+07
-2.86823e+10
-6.20299e+08
-2.84295e+10
-4.2605e+08
-2.80417e+10
-3.12041e+08
-2.77402e+10
-2.97141e+08
-2.76929e+10
-1.85057e+08
-2.77644e+10
4.72143e+07
-2.76948e+10
1.55616e+08
-2.75514e+10
1.25056e+08
-2.74727e+10
1.02572e+08
-2.74359e+10
1.1387e+08
-2.74064e+10
1.27106e+08
-2.73776e+10
1.28615e+08
-2.73505e+10
1.05743e+08
-2.73271e+10
6.18364e+07
-2.73023e+10
41747.7
-2.72729e+10
-7.70951e+07
-2.72375e+10
-1.65554e+08
-2.71903e+10
-2.62206e+08
-2.71226e+10
-3.64273e+08
-2.70327e+10
-4.55053e+08
-2.69349e+10
-5.02446e+08
-2.68522e+10
-4.88555e+08
-2.67975e+10
-4.27286e+08
-2.67717e+10
-3.39045e+08
-2.67694e+10
-2.37373e+08
-2.67809e+10
-1.37625e+08
-2.68002e+10
-5.06831e+07
-2.68215e+10
2.82951e+07
-2.68404e+10
9.98339e+07
-2.68522e+10
1.55724e+08
-2.68553e+10
1.99196e+08
-2.68458e+10
2.29562e+08
-2.68198e+10
2.48812e+08
-2.67709e+10
2.55635e+08
-2.66976e+10
2.5151e+08
-2.65994e+10
2.37525e+08
-2.64778e+10
2.15256e+08
-2.63312e+10
1.8874e+08
-2.61585e+10
1.60418e+08
-2.59546e+10
1.31244e+08
-2.57094e+10
1.0855e+08
-2.54078e+10
1.02785e+08
-2.50225e+10
1.17617e+08
-2.45257e+10
1.70989e+08
-2.3915e+10
3.24903e+08
-2.31564e+10
6.08519e+08
-2.22129e+10
1.16892e+09
-2.0995e+10
2.05712e+09
-1.94964e+10
3.69851e+09
-1.60851e+10
9.43634e+09
4.30441e+09
-2.8835e+10
-5.54035e+07
-3.23194e+09
-2.86341e+10
7.69037e+07
-1.95612e+09
-2.8439e+10
-9.69791e+07
-1.396e+09
-2.83174e+10
-1.22747e+08
-1.19821e+09
-2.8237e+10
-1.21222e+08
-9.85709e+08
-2.82215e+10
-7.09567e+07
-7.81647e+08
-2.83352e+10
-2.95756e+07
-6.038e+08
-2.84843e+10
-2.55423e+07
-5.10274e+08
-2.85772e+10
-4.51516e+07
-4.2796e+08
-2.86085e+10
-5.81668e+07
-3.58026e+08
-2.86329e+10
-5.25042e+07
-3.64625e+08
-2.86849e+10
-3.36266e+07
-3.81997e+08
-2.87463e+10
-1.46802e+07
-3.95996e+08
-2.8798e+10
-5.50891e+06
-4.15161e+08
-2.88299e+10
561088
-4.49961e+08
-2.88388e+10
7.17034e+06
-5.06104e+08
-2.88199e+10
1.52516e+07
-5.85139e+08
-2.87691e+10
2.39315e+07
-6.89178e+08
-2.8677e+10
3.3654e+07
-8.15754e+08
-2.85389e+10
4.33911e+07
-9.64631e+08
-2.83385e+10
5.57795e+07
-1.12975e+09
-2.80564e+10
6.93414e+07
-1.31977e+09
-2.76651e+10
8.58872e+07
-1.51304e+09
-2.71805e+10
1.02447e+08
-1.64384e+09
-2.66533e+10
1.19806e+08
-1.64648e+09
-2.61337e+10
1.36182e+08
-1.54144e+09
-2.56427e+10
1.53702e+08
-1.38164e+09
-2.51924e+10
1.74339e+08
-1.19931e+09
-2.47838e+10
1.99625e+08
-1.02157e+09
-2.44147e+10
2.27248e+08
-8.63147e+08
-2.40854e+10
2.56224e+08
-7.27719e+08
-2.37996e+10
2.84728e+08
-6.09211e+08
-2.3554e+10
3.14311e+08
-5.09282e+08
-2.33416e+10
3.4378e+08
-4.27891e+08
-2.31616e+10
3.70807e+08
-3.66735e+08
-2.3013e+10
3.93899e+08
-3.27314e+08
-2.28963e+10
4.13068e+08
-3.04599e+08
-2.28102e+10
4.28149e+08
-2.98947e+08
-2.27582e+10
4.3865e+08
-3.08084e+08
-2.27434e+10
4.44162e+08
-3.3237e+08
-2.27702e+10
4.45261e+08
-3.69763e+08
-2.28397e+10
4.43158e+08
-4.17893e+08
-2.29488e+10
4.38947e+08
-4.73696e+08
-2.3093e+10
4.32832e+08
-5.28432e+08
-2.32631e+10
4.25098e+08
-5.63626e+08
-2.3438e+10
4.17279e+08
-5.71584e+08
-2.35809e+10
4.07524e+08
-5.4666e+08
-2.35886e+10
3.80258e+08
-4.80375e+08
-2.33955e+10
3.44224e+08
-4.2758e+08
-2.28843e+10
3.15947e+08
-3.96291e+08
-2.13803e+10
1.72493e+08
-5.79598e+08
-1.88198e+10
-2.22881e+08
5.75359e+08
-1.57206e+10
7.69767e+07
7.57844e+09
5.53841e+08
5.42422e+09
-2.94204e+10
-2.85135e+09
-2.91696e+10
-1.86983e+09
-2.88691e+10
-3.3416e+08
-2.8931e+10
-5.99826e+08
-2.87586e+10
-6.55595e+08
-2.84819e+10