/*--------------------------------*- C++ -*----------------------------------*\
| =========                 |                                                 |
| \\      /  F ield         | OpenFOAM: The Open Source CFD Toolbox           |
|  \\    /   O peration     | Version:  4.1                                   |
|   \\  /    A nd           | Web:      www.OpenFOAM.org                      |
|    \\/     M anipulation  |                                                 |
\*---------------------------------------------------------------------------*/
FoamFile
{
    version     2.0;
    format      ascii;
    class       volScalarField;
    location    "44";
    object      p;
}
// * * * * * * * * * * * * * * * * * * * * * * * * * * * * * * * * * * * * * //

dimensions      [0 2 -2 0 0 0 0];

internalField   nonuniform List<scalar> 
4432
(
100627
100627
100627
100628
100631
100636
100641
100646
100650
100654
100659
100666
100674
100684
100694
100704
100712
100715
100716
100723
100738
100756
100776
100797
100819
100842
100865
100884
100898
100907
100912
100911
100908
100898
100882
100848
100803
100820
100833
100812
100774
100733
100718
100704
100680
100687
100574
100500
100598
100736
100689
100490
99944.4
99803.2
100626
100627
100627
100628
100631
100636
100641
100645
100650
100654
100659
100666
100674
100684
100694
100704
100711
100714
100716
100723
100738
100758
100777
100798
100820
100845
100866
100883
100898
100909
100915
100913
100907
100892
100873
100853
100837
100819
100801
100791
100773
100751
100730
100690
100637
100682
100634
100536
100600
100698
100670
100580
99940.7
99756.2
100625
100625
100624
100625
100629
100634
100639
100643
100647
100652
100657
100664
100672
100682
100694
100708
100726
100745
100758
100766
100777
100793
100808
100822
100836
100852
100868
100886
100904
100919
100927
100925
100912
100889
100859
100824
100811
100810
100804
100789
100754
100723
100714
100709
100688
100662
100617
100562
100614
100692
100812
100799
99371.8
100458
100625
100625
100624
100626
100629
100634
100639
100643
100647
100652
100657
100663
100672
100682
100694
100708
100726
100745
100759
100767
100777
100792
100806
100819
100833
100848
100865
100883
100901
100916
100922
100918
100906
100889
100864
100833
100813
100800
100793
100784
100765
100739
100725
100722
100694
100669
100630
100570
100620
100696
100760
100903
99412.5
100452
100623
100624
100623
100624
100628
100633
100638
100642
100646
100651
100655
100662
100670
100680
100692
100705
100721
100738
100751
100760
100774
100791
100805
100819
100833
100850
100868
100888
100910
100930
100943
100943
100934
100909
100864
100817
100801
100806
100808
100801
100771
100736
100733
100727
100703
100659
100640
100607
100610
100573
100522
100412
100261
101077
100623
100623
100623
100625
100628
100633
100638
100642
100646
100650
100655
100662
100670
100680
100692
100706
100722
100738
100751
100760
100774
100790
100804
100817
100830
100847
100865
100885
100908
100929
100942
100939
100925
100902
100868
100832
100816
100811
100800
100787
100768
100742
100738
100739
100711
100668
100629
100606
100596
100561
100563
100449
100170
101073
100621
100621
100621
100622
100625
100630
100635
100639
100643
100647
100652
100658
100666
100676
100687
100700
100715
100732
100746
100756
100770
100786
100800
100814
100830
100850
100871
100894
100921
100947
100963
100968
100967
100930
100857
100775
100743
100767
100789
100814
100788
100741
100741
100739
100718
100684
100679
100638
100632
100633
100607
100579
100533
100638
100621
100621
100621
100622
100625
100630
100635
100639
100643
100647
100652
100658
100666
100676
100687
100701
100715
100732
100746
100756
100770
100786
100800
100813
100829
100849
100870
100893
100922
100948
100963
100967
100964
100927
100865
100805
100788
100790
100791
100784
100785
100755
100749
100736
100718
100687
100658
100644
100625
100642
100632
100661
100400
100571
100618
100618
100618
100619
100622
100627
100631
100636
100640
100643
100648
100654
100662
100671
100682
100695
100710
100726
100741
100749
100761
100776
100792
100807
100826
100851
100877
100902
100933
100960
100976
100986
100985
100961
100972
100729
100725
100746
100764
100807
100796
100766
100760
100759
100765
100753
100682
100610
100613
100674
100765
100633
100434
101083
100618
100618
100618
100619
100622
100627
100631
100636
100639
100643
100648
100654
100661
100671
100682
100695
100710
100726
100741
100750
100760
100776
100792
100807
100827
100852
100876
100902
100935
100964
100978
100982
100978
100942
100882
100798
100760
100762
100772
100784
100808
100786
100769
100751
100737
100711
100675
100648
100643
100677
100719
100788
100382
100940
100614
100615
100614
100615
100618
100623
100627
100631
100635
100638
100643
100648
100656
100665
100676
100689
100702
100717
100730
100741
100753
100765
100780
100796
100816
100842
100870
100897
100925
100949
100964
100982
101014
101229
101542
100830
100731
100735
100747
100750
100765
100787
100795
100785
100778
100781
100702
100627
100608
100660
100742
100602
100435
100986
100614
100614
100614
100615
100619
100623
100627
100631
100635
100638
100643
100648
100656
100665
100676
100689
100703
100717
100729
100741
100753
100766
100781
100797
100818
100843
100870
100895
100924
100948
100958
100962
100964
101005
101024
100835
100742
100739
100750
100756
100777
100795
100787
100778
100770
100740
100687
100644
100634
100665
100716
100588
100453
101128
100610
100610
100610
100611
100614
100618
100622
100626
100629
100633
100637
100642
100650
100659
100669
100681
100694
100706
100718
100730
100743
100756
100767
100784
100799
100821
100850
100872
100885
100897
100920
100965
101092
101619
101278
101215
100735
100721
100738
100736
100741
100790
100810
100796
100782
100779
100735
100672
100633
100651
100749
100728
100497
100931
100610
100610
100610
100611
100614
100618
100622
100626
100629
100633
100637
100642
100650
100659
100669
100681
100694
100706
100718
100730
100743
100757
100767
100785
100803
100824
100848
100866
100883
100895
100906
100928
100969
101073
101108
100844
100707
100712
100732
100737
100751
100782
100795
100790
100790
100775
100715
100655
100629
100637
100670
100601
100553
100923
100605
100606
100605
100606
100609
100613
100616
100620
100623
100626
100630
100635
100642
100651
100661
100672
100683
100695
100706
100717
100730
100743
100754
100764
100778
100792
100812
100824
100828
100824
100829
100858
100909
101041
100985
100751
100711
100723
100742
100743
100746
100764
100781
100777
100772
100788
100781
100731
100659
100621
100694
100702
100552
100991
100605
100605
100605
100606
100609
100613
100617
100620
100623
100626
100630
100635
100642
100651
100661
100672
100683
100695
100706
100718
100730
100743
100753
100766
100782
100796
100811
100818
100823
100825
100824
100841
100887
100922
100931
100798
100719
100730
100751
100751
100749
100757
100763
100769
100796
100808
100766
100694
100632
100625
100688
100660
100550
101021
100600
100600
100600
100600
100603
100606
100610
100613
100616
100619
100623
100628
100634
100642
100652
100662
100672
100683
100694
100705
100716
100727
100736
100743
100752
100758
100765
100770
100771
100772
100779
100795
100828
100850
100844
100763
100731
100754
100772
100772
100760
100744
100744
100757
100774
100805
100817
100780
100694
100620
100638
100643
100603
101080
100600
100600
100600
100600
100603
100607
100610
100613
100616
100619
100622
100627
100634
100642
100652
100662
100672
100683
100694
100705
100716
100727
100737
100745
100750
100759
100765
100767
100769
100771
100777
100793
100822
100841
100846
100804
100778
100781
100789
100787
100770
100749
100733
100744
100790
100825
100812
100744
100665
100627
100643
100601
100554
101084
100594
100594
100594
100594
100596
100600
100603
100606
100608
100611
100614
100619
100625
100633
100641
100651
100661
100671
100681
100692
100701
100709
100716
100720
100718
100716
100716
100722
100732
100739
100748
100769
100800
100824
100847
100829
100816
100818
100821
100818
100807
100774
100744
100748
100778
100823
100851
100830
100749
100660
100652
100690
100796
101104
100594
100594
100594
100594
100597
100600
100603
100606
100608
100611
100614
100619
100625
100633
100641
100651
100661
100671
100682
100692
100702
100710
100716
100718
100715
100712
100717
100725
100732
100739
100749
100767
100796
100828
100854
100847
100836
100832
100831
100832
100818
100784
100748
100742
100784
100838
100848
100808
100730
100639
100596
100589
100643
101035
100588
100588
100587
100587
100590
100592
100595
100598
100600
100602
100605
100609
100615
100622
100630
100639
100649
100659
100669
100680
100689
100696
100699
100694
100677
100664
100670
100690
100707
100718
100736
100763
100795
100830
100861
100865
100863
100866
100867
100861
100847
100825
100790
100768
100769
100821
100877
100877
100800
100709
100707
100753
100801
100651
100588
100588
100587
100588
100590
100593
100595
100598
100600
100602
100605
100609
100615
100622
100630
100639
100649
100659
100669
100680
100690
100697
100698
100691
100675
100663
100673
100693
100707
100718
100737
100765
100799
100834
100862
100867
100866
100868
100869
100865
100859
100840
100801
100764
100778
100836
100876
100859
100785
100695
100653
100668
100607
100551
100581
100581
100580
100580
100582
100585
100587
100589
100591
100593
100595
100599
100604
100610
100618
100627
100636
100646
100658
100670
100681
100689
100688
100668
100626
100599
100618
100653
100673
100687
100711
100747
100788
100827
100859
100877
100889
100902
100911
100909
100895
100874
100850
100823
100792
100810
100864
100891
100847
100770
100751
100798
100831
100728
100581
100581
100580
100581
100582
100585
100587
100589
100591
100593
100595
100599
100604
100610
100618
100627
100636
100647
100658
100670
100681
100688
100686
100666
100623
100600
100623
100656
100673
100686
100711
100748
100790
100828
100858
100876
100889
100903
100912
100911
100899
100881
100853
100817
100802
100834
100876
100881
100836
100771
100749
100781
100736
100868
100574
100574
100573
100573
100574
100577
100579
100580
100582
100583
100585
100588
100592
100598
100605
100613
100622
100634
100647
100662
100677
100689
100687
100654
100563
100520
100555
100603
100624
100641
100673
100719
100769
100817
100859
100895
100926
100952
100970
100971
100955
100928
100895
100860
100825
100815
100844
100879
100879
100839
100806
100799
100819
100682
100574
100574
100573
100573
100575
100577
100579
100580
100582
100583
100585
100588
100592
100598
100605
100613
100623
100634
100647
100662
100678
100688
100684
100645
100551
100522
100567
100610
100626
100640
100672
100718
100768
100815
100857
100894
100927
100954
100974
100974
100957
100929
100895
100858
100832
100834
100860
100879
100868
100832
100800
100783
100783
100625
100567
100566
100565
100565
100566
100568
100570
100571
100572
100573
100574
100576
100580
100584
100591
100598
100607
100619
100634
100654
100680
100710
100726
100672
100496
100367
100469
100543
100562
100581
100624
100682
100743
100802
100861
100918
100972
101015
101047
101049
101022
100980
100933
100887
100848
100826
100833
100858
100874
100866
100846
100824
100826
100688
100566
100566
100565
100565
100566
100568
100570
100571
100572
100572
100574
100576
100580
100584
100591
100598
100607
100619
100634
100654
100680
100709
100723
100662
100450
100404
100496
100542
100554
100575
100621
100680
100741
100801
100860
100917
100974
101015
101065
101064
101030
100981
100931
100883
100846
100832
100845
100866
100876
100865
100844
100816
100813
100668
100559
100559
100558
100557
100558
100559
100561
100561
100561
100562
100562
100564
100566
100570
100575
100581
100589
100600
100616
100639
100676
100745
100818
100824
100381
99951.8
100320
100483
100502
100514
100565
100637
100709
100782
100860
100942
101023
101075
101135
101138
101087
101020
100960
100908
100863
100835
100831
100848
100871
100881
100878
100859
100846
100717
100559
100559
100558
100557
100558
100559
100561
100561
100561
100561
100562
100564
100566
100570
100575
100581
100590
100601
100616
100639
100675
100742
100813
100794
99961
100196
100427
100496
100493
100511
100566
100637
100710
100782
100864
100952
101038
101057
101133
101143
101084
101014
100960
100912
100870
100846
100845
100861
100878
100884
100878
100858
100844
100711
100551
100551
100550
100549
100549
100550
100551
100551
100551
100550
100550
100550
100552
100554
100558
100562
100568
100577
100589
100607
100635
100679
100798
101065
100008
100308
100465
100466
100454
100502
100580
100661
100745
100842
100953
101075
101116
101176
101212
101144
101056
100996
100949
100905
100871
100856
100862
100881
100899
100909
100895
100877
100728
100551
100551
100550
100549
100550
100550
100551
100551
100551
100550
100550
100550
100552
100554
100558
100562
100569
100577
100589
100607
100635
100678
100796
100983
99974.1
100356
100450
100445
100449
100505
100585
100665
100748
100833
100965
101087
101063
101032
101184
101126
101046
100996
100957
100916
100882
100867
100871
100886
100900
100905
100891
100870
100731
100544
100543
100542
100541
100541
100541
100542
100541
100540
100539
100538
100537
100537
100538
100539
100541
100545
100549
100555
100562
100569
100566
100535
100493
100152
100180
100478
100537
100465
100427
100462
100527
100597
100675
100775
100889
101024
101046
101097
101257
101182
101093
101040
101002
100963
100924
100896
100886
100895
100914
100935
100932
100933
100749
100544
100543
100542
100541
100541
100541
100542
100541
100540
100539
100538
100537
100537
100538
100539
100542
100545
100549
100555
100562
100569
100564
100526
100451
100169
100231
100495
100534
100459
100427
100468
100537
100603
100669
100719
100891
100890
101110
101054
101060
101066
101043
101018
100994
100965
100931
100904
100892
100899
100914
100930
100923
100913
100750
100536
100536
100534
100533
100532
100532
100532
100531
100529
100527
100525
100523
100522
100521
100520
100519
100519
100519
100518
100516
100510
100496
100467
100394
100315
100308
100426
100452
100418
100411
100442
100483
100522
100583
100736
100900
100880
101075
101321
101105
101064
101057
101034
101015
100996
100968
100936
100914
100908
100920
100948
100953
100997
100791
100536
100536
100534
100533
100532
100532
100532
100531
100529
100527
100525
100523
100522
100521
100520
100519
100519
100519
100518
100516
100510
100495
100464
100388
100295
100300
100411
100435
100405
100408
100449
100497
100532
100564
100604
100824
100635
100906
101362
100399
100855
101023
101025
101006
100991
100971
100945
100923
100916
100925
100947
100948
100970
100769
100528
100528
100526
100525
100524
100524
100523
100521
100519
100516
100512
100509
100506
100503
100500
100496
100492
100488
100482
100473
100461
100442
100410
100358
100293
100263
100288
100319
100343
100374
100409
100428
100428
100439
100533
100760
101780
100673
99740.6
100274
100852
101056
101049
101032
101021
101006
100982
100955
100935
100933
100949
100943
100988
100732
100528
100528
100526
100525
100524
100524
100523
100521
100519
100516
100512
100509
100506
100503
100500
100497
100492
100488
100482
100473
100461
100441
100407
100352
100287
100264
100290
100318
100338
100368
100410
100440
100454
100382
100500
100808
101310
98628.7
99172.5
98923.7
99894.1
100878
101036
101022
101008
100999
100984
100964
100948
100945
100954
100941
100977
100764
100521
100521
100519
100517
100516
100515
100514
100511
100508
100504
100500
100495
100491
100486
100480
100474
100466
100457
100446
100431
100412
100385
100347
100298
100246
100215
100218
100243
100272
100306
100333
100341
100241
100323
100347
99103.1
97739.9
96908.6
97568.6
98747.6
99915.6
100896
101077
101062
101044
101036
101027
101006
100985
100984
100996
100983
100955
100609
100521
100521
100519
100517
100516
100515
100514
100511
100508
100504
100500
100495
100491
100486
100480
100474
100466
100457
100446
100431
100412
100384
100345
100296
100246
100218
100223
100246
100271
100300
100332
100356
100381
100423
100319
99736.9
100432
97373
97654.8
98306.8
99277
100444
101017
101065
101049
101028
101018
101008
100998
100998
100995
100951
100948
100685
100514
100514
100512
100510
100508
100507
100505
100502
100498
100493
100488
100482
100475
100468
100460
100451
100440
100426
100410
100390
100364
100331
100291
100246
100202
100171
100161
100167
100177
100197
100214
100250
99988.4
100189
100308
99002.1
96035.3
96156.8
97694.3
98903.5
99915.6
101009
101154
101117
101082
101073
101070
101050
101031
101052
101107
101142
101131
101062
100514
100514
100512
100510
100508
100507
100505
100502
100498
100493
100488
100482
100475
100468
100460
100451
100440
100426
100410
100389
100364
100330
100290
100245
100202
100172
100163
100168
100175
100189
100207
100273
100278
100340
100325
96853.9
96803.9
96460.3
97854.2
98931.3
99896.3
100839
101132
101129
101101
101073
101055
101043
101042
101067
101097
101117
101028
100667
100508
100507
100505
100503
100501
100499
100496
100493
100488
100483
100476
100469
100461
100452
100441
100429
100414
100396
100375
100350
100319
100282
100240
100194
100149
100110
100081
100062
100049
100054
100084
100309
100086
99046
98150.8
96062.7
95365.2
96686.4
98525.9
99854.5
100614
101234
101245
101167
101118
101110
101099
101065
101033
101044
101107
101176
101325
101370
100508
100507
100505
100503
100501
100499
100497
100493
100488
100483
100476
100469
100461
100452
100441
100429
100414
100396
100375
100349
100319
100282
100239
100193
100149
100110
100082
100062
100043
100028
100004
100063
100344
99402.1
93572.2
92911.7
94995
96648.3
98605.6
99965.2
100719
101107
101156
101153
101126
101113
101088
101059
101043
101070
101144
101234
101229
101175
100502
100501
100499
100496
100494
100492
100489
100485
100479
100473
100465
100457
100447
100436
100423
100408
100390
100368
100343
100313
100277
100236
100189
100138
100085
100033
99982.1
99933.9
99887.4
99864.9
99946.9
100140
100304
98896.6
94422.6
94003.2
95649.9
97644.4
99453.8
100500
100884
101030
101220
101206
101172
101164
101140
101096
101041
100975
100951
100962
101082
100996
100502
100501
100499
100496
100494
100492
100489
100485
100479
100473
100465
100457
100447
100436
100423
100408
100389
100368
100342
100312
100277
100235
100189
100138
100085
100033
99982.5
99933.3
99878.7
99832.4
99752.9
99941
100043
98248.6
93746.5
94077
95791.4
97780.7
99578.4
100609
100955
101029
101115
101167
101160
101162
101137
101095
101045
100994
101005
101070
101197
101244
100496
100496
100493
100490
100488
100485
100482
100477
100471
100464
100455
100445
100434
100421
100406
100388
100367
100342
100313
100278
100238
100192
100140
100081
100017
99948
99872.8
99783.1
99688.3
99505.3
99713.7
100228
99940.9
86870.3
89346
93836
96644.8
98770.9
100061
100523
100673
100852
101043
101208
101229
101245
101224
101185
101117
100998
100934
100849
100826
101025
100496
100496
100493
100490
100488
100485
100482
100477
100471
100464
100455
100445
100434
100421
100406
100388
100367
100342
100312
100278
100238
100192
100139
100081
100017
99948.1
99872.7
99786.4
99683.5
99547.9
99457.1
99468.3
96541.4
93564.8
93566.5
95013.5
97083.1
99004.8
100174
100560
100693
100877
101037
101150
101209
101237
101223
101185
101117
100985
100911
100847
100768
100625
100491
100491
100488
100485
100482
100479
100476
100470
100464
100456
100446
100435
100423
100408
100391
100371
100347
100319
100286
100247
100202
100151
100092
100025
99949.4
99862.2
99761.1
99633
99469.4
99176
98748.7
100079
96900.7
90197.3
93397
96706.1
99161.2
100489
100662
100380
100379
100630
100906
101152
101284
101331
101330
101297
101236
101131
101004
100674
100345
100725
100491
100491
100488
100485
100482
100479
100476
100470
100464
100456
100446
100435
100423
100408
100391
100370
100346
100318
100285
100247
100202
100151
100092
100025
99949
99862.1
99760.3
99642.3
99479.2
99249.1
98974.1
98696
95027.3
91797.3
94646.7
97291.7
99495.3
100691
100731
100355
100360
100662
100921
101103
101247
101320
101327
101306
101236
101107
100969
100600
100238
100696
100487
100487
100484
100481
100478
100474
100470
100465
100457
100449
100438
100426
100413
100396
100378
100355
100329
100298
100262
100220
100171
100114
100049
99974
99886.1
99782.2
99656.5
99500
99290.2
98996.3
98484.3
98291.2
100583
101577
100139
100945
102162
102205
101188
100168
100041
100410
100833
101163
101336
101414
101456
101422
101417
101318
100871
100017
99598.2
100542
100487
100487
100484
100481
100478
100475
100470
100465
100457
100449
100438
100426
100413
100396
100377
100355
100329
100298
100262
100219
100171
100114
100049
99973.7
99885.3
99780.8
99650.2
99502.6
99315.5
99077.2
98785.5
98163
97270.2
97478.6
99142.7
101042
102434
102365
101214
100123
100011
100433
100840
101128
101305
101404
101447
101430
101417
101327
100929
99922.7
99528.5
100403
100484
100483
100481
100477
100474
100470
100466
100460
100452
100443
100432
100419
100404
100387
100367
100342
100314
100281
100242
100197
100144
100084
100013
99929.9
99831.9
99713.8
99570.8
99393.8
99158.1
98855.7
98381.9
97788
98121.2
99990.8
100283
101378
102668
102578
101298
99925.4
99771
100295
100872
101228
101390
101499
101630
101657
101736
101570
101025
100127
99080.1
100282
100484
100483
100481
100477
100474
100471
100466
100460
100452
100443
100432
100419
100404
100387
100366
100342
100314
100281
100242
100197
100144
100083
100013
99929.4
99830.9
99708.3
99568.8
99393.8
99162
98879
98605.2
97496.2
97081.3
98574.4
100131
101837
102919
102607
101319
99965.6
99743.1
100290
100876
101232
101392
101486
101597
101627
101755
101710
101352
100263
98868.1
100191
100482
100481
100478
100474
100471
100467
100462
100456
100448
100439
100427
100413
100398
100379
100358
100332
100303
100268
100227
100179
100124
100059
99984.2
99895.5
99790.4
99664.1
99511.1
99318.3
99070.4
98751
98357.1
97740.5
97308.7
97996.4
97979.8
99598
101159
101709
101221
100280
100034
100504
101029
101375
101501
101619
101753
101788
101866
101704
101673
101167
98823.1
100028
100482
100481
100478
100475
100471
100467
100462
100456
100448
100438
100427
100413
100398
100379
100358
100332
100302
100267
100226
100179
100123
100059
99983.9
99895.1
99790.2
99663.2
99516.7
99322.7
99064.8
98747.2
98324.8
97682.7
97345.1
98053.1
99198.8
100337
100702
101131
100979
100382
100098
100468
101006
101386
101525
101599
101712
101764
101904
101850
102025
101596
98850.8
99871.5
100480
100479
100477
100473
100469
100465
100460
100454
100446
100436
100424
100410
100393
100374
100352
100326
100295
100258
100216
100167
100110
100043
99964.5
99872.1
99762.2
99630
99469.2
99269.3
99017.3
98698.5
98318.2
97809.2
97299
96684.5
95907.4
96322
95827.4
96139.4
96895.6
98561.5
99738.1
100703
101194
101494
101657
101763
101824
101812
101872
101930
102531
102539
99212.5
99290.4
100480
100479
100477
100473
100470
100466
100460
100454
100446
100436
100424
100410
100393
100374
100352
100325
100295
100258
100216
100167
100109
100043
99964.3
99871.9
99762.2
99630.4
99471.3
99275.7
99019.9
98690.9
98335.7
97825.7
97305.5
97162.1
96814.9
96054.1
95134.4
95554.6
96537.3
98350.5
99814.6
100705
101186
101486
101647
101756
101806
101819
101879
101965
102699
102920
99546.6
99231.8
100479
100478
100475
100472
100468
100464
100459
100452
100444
100434
100422
100407
100391
100372
100349
100322
100290
100253
100210
100160
100102
100034
99954
99859.7
99747.3
99612.1
99447.5
99244.7
98992.2
98677.9
98293.3
97799.1
97171.7
96536.8
95897.4
94669.2
92654.6
92098.7
93220.9
95817.9
98380.2
100024
100854
101262
101552
101728
101786
101791
101806
101965
102233
101692
99496.7
98789.5
100479
100478
100475
100472
100468
100464
100459
100452
100444
100434
100422
100407
100391
100371
100349
100322
100290
100253
100210
100160
100102
100034
99953.8
99859.5
99747.3
99612.3
99448.4
99247.1
98994.8
98681.9
98313.9
97861.3
97335.7
96605
95350.9
93784.3
92617
92252.6
93273.8
95652.8
98271
100028
100848
101243
101514
101711
101782
101793
101838
101975
102271
101783
99624.7
98809.6
100465
100798
100123
101230
101181
100134
100043
100227
100051
99910.6
100101
100786
100231
101202
101159
100261
100071
100149
99915.7
99943.4
101033
100543
100384
100494
100155
100183
99975.1
100367
99957
100116
99888.7
101047
100478
100092
100462
100062
99943.4
99973.4
100066
99943.1
100025
100121
100592
100667
100576
100723
100605
100705
100572
100425
100470
100401
100412
100316
100387
100316
100561
100651
100548
100695
100539
100687
100514
100395
100443
100407
100299
100271
100244
100241
100889
100816
100880
100866
101026
100866
101028
100161
100377
100322
100326
100174
100114
100048
100216
99919.8
100002
99889.7
100018
100870
100803
100863
100864
101016
100851
101007
99682.5
100190
100067
100095
99938.6
100309
100212
100338
99937.8
100112
100005
100187
100869
100797
100889
100652
100619
100650
100614
100218
101074
100714
100713
100291
100146
100231
100071
99944.6
100080
99995.5
100116
99973.1
100135
100887
100790
100882
100645
100602
100646
100607
100305
101006
100781
100281
100752
99957.7
99953.2
100154
100034
100218
100036
100199
100116
100264
100365
100477
100332
100441
100342
100440
100342
99882.6
100139
99960.6
100230
100186
100235
100223
100318
100445
100318
100437
100346
100437
100349
100084
100186
100144
100248
100234
100249
100227
100670
100627
100429
100614
100734
100671
100372
100526
100579
100653
101069
101161
101237
101164
101088
100837
100889
101090
101117
101232
101158
101025
100870
100805
100101
100295
100283
100313
100016
100116
100076
100107
99982.3
100012
99969.4
100058
100092
99965.1
100107
99947.1
99934.8
99940.2
100010
100473
100517
100250
100555
100793
100583
100255
100534
100537
100561
101069
101041
101171
100852
101161
101071
100455
100959
101172
101186
101117
101068
100682
100895
99722.2
100064
100099
100067
99835.7
99713.3
99882
99888.6
99987.8
99949
100027
100016
99735.8
99804.1
99884.9
99931.1
99960.5
99978.7
99925.1
99945.7
100030
100211
101074
100745
100718
100268
99943.1
99987.3
100112
100439
100334
100425
100176
100071
100253
100295
100002
100378
100200
100130
100184
100109
100307
100041
99925.9
100106
100033
99949.7
100004
99965
100156
100266
100311
100222
100264
100069
100217
100095
100004
100150
99987.7
100007
100210
101039
100715
100718
100131
99926.3
99855.5
99883.1
100229
100034
99965.4
100179
99880.7
100094
100211
100220
99911.4
99935
99952.5
99919.2
99961.9
99917.4
99820.9
100138
99934.9
99978.2
99949.6
99950
100036
100004
100083
99995.6
100005
100078
99920.1
100059
100096
100046
100027
100883
100747
100817
100969
100736
100965
100894
100885
100724
100777
100913
100693
100903
100915
100878
100805
100705
100939
100718
100957
100872
100217
100312
100144
100001
100275
100006
100203
100193
100170
100293
100033
100267
100002
100160
100840
100794
100703
100968
100709
100949
100808
100042
100277
100194
100142
100157
100181
100106
100018
100136
100123
100007
100091
100040
100020
100487
100582
100534
100534
100572
100531
100506
100441
100563
100521
100444
100563
100414
100500
100086
100064
100066
99901.2
99976.7
100008
100182
99954.1
99872.9
99870.1
99957.3
99884.9
99913.3
99948.4
100404
100568
100406
100457
100419
100525
100376
100350
100521
100462
100382
100516
100382
100353
99942.5
99881.4
100008
100042
99920.3
99911.5
100072
99938.4
99996.4
100084
100175
99958.5
100078
99987.5
100211
100266
100053
100188
100277
100181
100110
100153
100230
100180
100204
100111
99982.2
100099
100057
100237
100177
100302
100150
100305
100148
100258
99745.9
99889.5
99780.9
99375.9
100004
99644.9
99451.1
99378.9
99235.3
99203.4
99356.5
99806.6
99883.9
100193
99493.9
99800.8
100136
99466.7
99501
99590.4
99581.5
99487
100653
100367
100499
100256
100388
100636
100528
100852
101197
101195
100871
100848
101179
101182
100829
100661
100260
100414
100516
100400
100536
100657
100205
100249
100904
100347
100386
100651
100546
100685
100706
100789
101120
100579
100868
100868
101268
100805
100601
100919
100363
100573
100553
100779
100547
100708
99910.1
99938.2
100296
100615
100229
100695
100646
100228
100281
100253
100258
100238
100254
100212
100018
100153
100117
100303
100698
100645
100316
100649
100291
100341
100105
100594
100192
100663
100168
100574
100150
99999.7
99978.2
99708.2
100577
99948.9
99967.4
100057
99871.3
100223
100668
100640
99482.6
100595
100241
100661
101310
101125
101297
101067
101122
101296
101304
101364
101314
101321
101344
101359
101312
101313
101350
101313
101077
101128
101297
101126
101301
101290
100847
100859
101297
101130
101124
101313
101125
101312
101290
101297
101277
101233
101247
101281
101140
101125
101311
101117
101287
101226
101330
101342
101368
101298
100913
100934
100106
100221
100002
100062
100152
100188
99949.5
99818.1
99465.2
99436.9
99635.9
99977.7
99944.6
100039
99874
100068
99992.4
100213
99796.9
99976.1
100144
99892.8
100103
100068
99990.7
100098
99998.7
100078
100093
99958.6
100004
99994.3
100124
100116
100016
99986.4
100077
99986.4
100094
99985.3
100057
100071
99939
100082
99945.1
100001
100053
99997.6
99999.9
100088
100086
99998.5
100090
99985
100014
99953.9
99963.9
99971.2
99976.9
100010
100052
100064
99998.7
100075
100017
100028
99952.8
100025
99952.5
99996.2
100084
100452
100415
99661.1
100518
100062
99655.4
99829.7
99615.6
99566.3
100105
100063
100711
100727
100626
100628
100395
100134
100016
99814
99825.7
100004
99953
100490
100032
100538
99988.9
100494
99952.5
99714.9
99560.3
99508.9
99782.3
99766.2
99657.7
99872
99523.7
99967.5
100425
100511
99948.7
100478
99826.6
100080
101448
101162
101197
101398
101071
101120
101350
102765
101174
100792
100991
101202
101082
101163
101897
101012
101128
101019
101568
101715
100844
101515
101171
100924
101673
101087
101535
101028
101090
101209
101373
101416
101266
101363
101316
101371
101423
101400
101370
101647
101125
101020
101508
100909
101487
101136
100960
101007
99819.7
99936.8
99379.9
99800.5
99692.6
100074
99466.9
99464.1
99483.1
99419.7
99572.1
99449.8
99490.2
99462.8
99387.1
99829.2
99840.9
100024
99518.3
100074
99518.6
99817.9
99780.4
99838.6
100015
99912.6
99999.4
99913.8
100040
99958.6
99972.6
100022
99951.3
99984.3
99973.8
100058
99974.4
100081
100015
100037
100090
99996.7
100019
99994.2
99996.8
99989.7
99769.7
99813.9
99897.6
99960.3
99885.9
99885.8
99942.1
99940.4
99873.9
99920.4
99972
99973.7
99925.4
99941
99989.1
99974.9