/*--------------------------------*- C++ -*----------------------------------*\
| =========                 |                                                 |
| \\      /  F ield         | OpenFOAM: The Open Source CFD Toolbox           |
|  \\    /   O peration     | Version:  4.1                                   |
|   \\  /    A nd           | Web:      www.OpenFOAM.org                      |
|    \\/     M anipulation  |                                                 |
\*---------------------------------------------------------------------------*/
FoamFile
{
    version     2.0;
    format      ascii;
    class       volVectorField;
    location    "44";
    object      U;
}
// * * * * * * * * * * * * * * * * * * * * * * * * * * * * * * * * * * * * * //

dimensions      [0 1 -1 0 0 0 0];

internalField   nonuniform List<vector> 
4432
(
(39.9804 0.000518973 0.0513712)
(39.9144 0.000901896 0.0916553)
(39.8248 0.00243492 0.122538)
(39.7018 0.0028327 0.153271)
(39.5315 0.00227481 0.185032)
(39.3173 0.00154984 0.217715)
(39.0663 0.00105566 0.251238)
(38.7808 0.000879098 0.284874)
(38.4578 0.00098448 0.318677)
(38.0922 0.00121886 0.352432)
(37.6793 0.00148811 0.384976)
(37.2168 0.00171342 0.417575)
(36.7091 0.00190405 0.445109)
(36.1723 0.00196239 0.467604)
(35.6285 0.000965502 0.464863)
(35.1824 -0.00441997 0.412256)
(34.8344 -0.00141259 0.453518)
(34.7241 0.00454455 0.354793)
(34.8465 0.00585532 0.252986)
(34.8629 0.00888123 0.395979)
(34.6234 0.00260685 0.502642)
(34.2217 -0.00789225 0.641959)
(33.6746 -0.0230678 0.737078)
(33.0217 -0.0345568 0.759346)
(32.262 -0.0398849 0.791012)
(31.4313 -0.0455661 0.712412)
(30.6286 -0.0446742 0.543182)
(29.8884 -0.0303563 0.339207)
(29.2794 -0.0135434 0.243654)
(28.8014 -0.015835 0.232424)
(28.4602 -0.034154 0.294976)
(28.2398 -0.0534914 0.393771)
(28.1927 -0.0449704 0.267379)
(28.3662 0.0112322 -0.264566)
(28.8943 0.0800485 -1.09866)
(29.6068 0.118036 -1.47839)
(30.6266 0.134438 -1.22997)
(31.3379 -0.0967231 -1.20302)
(31.4556 -0.128467 -1.0472)
(31.7392 0.0481751 -0.690143)
(32.2686 0.169938 -0.487281)
(32.8012 0.205661 -0.474715)
(33.2753 0.120708 -0.42449)
(33.5547 0.0602862 -0.343938)
(33.9916 0.0853015 -0.31998)
(34.1765 0.292153 -0.49593)
(34.4431 0.402896 -0.256453)
(35.6048 0.0155134 -0.416726)
(36.1601 -0.117852 -0.789652)
(35.6096 -0.25491 -0.989589)
(35.1925 0.0156537 -0.613889)
(37.7062 -0.277065 -2.50899)
(42.2129 -0.478968 -5.27584)
(48.977 -0.605106 -1.4027)
(39.9814 0.000519027 0.0513492)
(39.9151 0.000901754 0.0916843)
(39.825 0.00243515 0.122618)
(39.6998 0.00283305 0.153218)
(39.5285 0.00227478 0.18475)
(39.3144 0.00155037 0.217311)
(39.0641 0.00105533 0.250678)
(38.7793 0.000879673 0.284334)
(38.4566 0.000984058 0.318427)
(38.091 0.00121787 0.352575)
(37.6773 0.00148725 0.386041)
(37.2138 0.00171277 0.419323)
(36.7046 0.00190284 0.448548)
(36.1626 0.00196707 0.470516)
(35.6167 0.000970492 0.474895)
(35.1231 -0.00433774 0.426386)
(34.7742 -0.00133016 0.402526)
(34.7047 0.00441389 0.300837)
(34.8363 0.00612167 0.236878)
(34.8849 0.00885462 0.401372)
(34.6521 0.00245026 0.485492)
(34.2476 -0.00780413 0.556134)
(33.7118 -0.0229027 0.620785)
(33.0672 -0.0352834 0.6437)
(32.2952 -0.0409934 0.673719)
(31.426 -0.0466389 0.578309)
(30.5625 -0.0476206 0.42046)
(29.7897 -0.035764 0.302091)
(29.1315 -0.0197984 0.20504)
(28.6074 -0.0209766 0.0444805)
(28.3345 -0.0378206 -0.174798)
(28.3008 -0.0678467 -0.305355)
(28.379 -0.0698909 -0.288164)
(28.6108 -0.0254547 -0.253623)
(29.0983 0.0608844 -0.583566)
(29.7897 0.128016 -0.891462)
(30.4975 0.156685 -0.735737)
(31.1138 -0.0530258 -0.603906)
(31.6866 -0.149657 -0.4083)
(32.1543 -0.0161819 -0.283165)
(32.4676 0.137009 -0.133429)
(32.7923 0.220675 -0.126018)
(33.1821 0.142471 -0.0364885)
(33.5174 0.0855117 0.0168018)
(34.2017 0.121492 -0.0838999)
(34.4553 0.328696 -0.590194)
(33.9808 0.469129 -0.478908)
(35.1624 0.0487544 -0.388595)
(35.8742 -0.0825245 -0.587138)
(35.5742 -0.172105 -0.560683)
(35.834 0.0233015 -0.974691)
(37.6528 -0.215215 -2.40389)
(41.6826 -0.376058 -5.40477)
(48.9757 -0.575472 -2.0255)
(40.0079 0.000503463 0.0200378)
(40.0325 0.000819633 0.0589555)
(40.072 0.0023527 0.100016)
(40.1156 0.00275714 0.142341)
(40.1497 0.00219389 0.184581)
(40.1771 0.00143825 0.227232)
(40.2041 0.000927016 0.27057)
(40.2322 0.000823829 0.314967)
(40.2592 0.00113023 0.361139)
(40.2815 0.00177405 0.409824)
(40.2955 0.00261152 0.461511)
(40.296 0.00348021 0.515215)
(40.2801 0.00442794 0.56872)
(40.2291 0.00468856 0.61194)
(40.152 0.00994774 0.639267)
(39.8801 0.0127003 0.650593)
(39.5586 0.0117523 0.490479)
(38.8604 0.0107356 0.399122)
(37.8429 0.000660305 0.433665)
(36.9922 -0.00275914 0.482777)
(36.2428 0.000120164 0.569736)
(35.5532 0.00294098 0.697173)
(34.9448 0.00640064 0.842855)
(34.3431 0.0111996 1.00775)
(33.7448 0.0147462 1.14437)
(33.1426 0.0178429 1.19148)
(32.5154 0.02144 1.1663)
(31.8346 0.0337519 1.11837)
(30.9957 0.0565417 1.03574)
(30.1025 0.0605908 0.875287)
(29.2845 0.0534509 0.608526)
(28.634 0.0516869 0.297067)
(28.3809 0.0522619 -0.0572118)
(28.5742 0.0539643 -0.366064)
(29.1516 0.0423881 -0.461078)
(29.8806 0.00891337 -0.376689)
(30.5021 -0.0728101 -0.0113569)
(30.9106 -0.0994105 0.0987175)
(31.1452 -0.0359263 0.157299)
(31.411 0.0177931 0.218231)
(31.8483 -0.00591659 0.219779)
(32.2651 -0.125847 0.164479)
(32.5845 -0.248876 0.124195)
(32.6907 -0.319362 -0.0156256)
(32.8058 -0.405999 -0.13952)
(32.9998 -0.46856 -0.621073)
(32.9821 -0.531368 -0.391852)
(33.7184 -0.69212 -0.740185)
(34.6289 -0.843957 -1.69161)
(34.26 -0.718685 -1.83112)
(34.6877 -0.629346 -1.38408)
(33.1023 -0.107925 -5.63784)
(40.7967 -0.0423107 -8.85577)
(45.9789 -0.780621 -8.94566)
(40.0089 0.000503471 0.0199861)
(40.0333 0.000819828 0.0589343)
(40.0726 0.00235289 0.0999452)
(40.1139 0.00275733 0.142144)
(40.1467 0.0021941 0.184273)
(40.1739 0.00143837 0.226866)
(40.2014 0.000927547 0.270274)
(40.2301 0.000822907 0.314915)
(40.258 0.00113065 0.361606)
(40.2809 0.00177312 0.410924)
(40.2956 0.00260525 0.463515)
(40.2972 0.00348933 0.518135)
(40.2812 0.00440537 0.572138)
(40.2363 0.0047872 0.617715)
(40.1486 0.0093776 0.640349)
(39.9585 0.0129996 0.613364)
(39.6287 0.0125444 0.496613)
(38.9005 0.0117275 0.393214)
(37.8572 0.000933158 0.409723)
(36.9808 -0.0024277 0.465861)
(36.2534 0.000344228 0.544706)
(35.5743 0.00316342 0.665008)
(34.9722 0.00671195 0.793488)
(34.3892 0.0118531 0.933728)
(33.8125 0.0157013 1.05824)
(33.2549 0.0199125 1.10405)
(32.6762 0.026849 1.11695)
(32.0204 0.0393814 1.11541)
(31.292 0.0575875 1.01961)
(30.5868 0.0733747 0.791815)
(29.8113 0.0777646 0.515053)
(29.058 0.0860753 0.226013)
(28.667 0.0793198 -0.100625)
(28.7948 0.0734854 -0.376022)
(29.3178 0.0476695 -0.478626)
(30.029 0.0415597 -0.415998)
(30.8278 -0.0667951 -0.133384)
(31.4283 -0.121155 0.0785767)
(31.79 -0.0792076 0.144018)
(32.0796 -0.0983186 -0.0247061)
(32.3971 -0.0115483 0.00900313)
(32.7765 -0.0518776 0.0434851)
(33.1353 -0.152363 0.0973693)
(33.2769 -0.218341 0.093633)
(33.4691 -0.326845 -0.0572019)
(33.7818 -0.408886 -0.753173)
(33.8107 -0.463341 -0.773655)
(34.7798 -0.644148 -0.87954)
(35.2167 -0.645091 -1.05142)
(34.4373 -0.607305 -1.63786)
(35.589 -0.456307 -1.21896)
(34.9491 -0.0310252 -5.27206)
(41.7226 -0.0808113 -7.43219)
(46.5381 -0.765721 -7.63276)
(39.9988 0.00047934 0.0275776)
(39.9865 0.000787351 0.0766293)
(39.9686 0.00230666 0.121184)
(39.9375 0.00268196 0.165406)
(39.8815 0.00212121 0.209426)
(39.8042 0.00141741 0.254532)
(39.7131 0.00101998 0.301491)
(39.6112 0.00109185 0.350957)
(39.4979 0.00162979 0.403685)
(39.3708 0.00253608 0.460253)
(39.2268 0.00360065 0.520944)
(39.064 0.00472474 0.585438)
(38.8779 0.00547036 0.65266)
(38.6703 0.00654944 0.720525)
(38.416 0.0061173 0.787559)
(38.1707 0.00992559 0.866803)
(37.7922 0.00861467 0.878852)
(37.3639 0.006643 0.984357)
(36.9626 0.000980996 1.13968)
(36.5474 0.000701411 1.27754)
(36.0536 0.00235829 1.37219)
(35.5201 0.00475839 1.44284)
(34.9947 0.00852127 1.52741)
(34.4597 0.0151544 1.62728)
(33.908 0.0199182 1.72182)
(33.3363 0.0272263 1.75398)
(32.6925 0.0406484 1.74647)
(31.9058 0.0594262 1.79213)
(30.8792 0.0720379 1.76096)
(29.6917 0.0541292 1.64469)
(28.4683 0.0380844 1.43734)
(27.4626 0.0607172 0.941391)
(26.9471 0.124043 0.183345)
(26.7693 0.227963 -0.772019)
(27.2876 0.280394 -2.00996)
(28.4372 0.032191 -1.78754)
(29.0298 -0.268172 -0.905328)
(29.1988 -0.439854 -0.165998)
(29.0219 -0.513128 0.333781)
(29.0852 -0.24887 0.0699089)
(29.2056 -0.119108 -0.174543)
(29.4651 -0.203137 -0.0934406)
(29.6811 -0.302217 -0.193518)
(29.8716 -0.373141 -0.459557)
(30.1248 -0.435428 -0.705787)
(30.5299 -0.425707 -1.00856)
(30.512 -0.456081 -1.10593)
(31.0925 -0.462177 -1.64299)
(31.4883 -0.496292 -2.19029)
(33.0798 -0.439923 -3.8847)
(37.209 -0.325319 -3.69393)
(40.5248 -0.504592 -2.98307)
(39.5074 0.34927 -8.44387)
(32.2138 0.661161 -16.0419)
(39.9998 0.000479348 0.0275468)
(39.9872 0.000787555 0.076598)
(39.969 0.00230684 0.121105)
(39.9356 0.00268216 0.165295)
(39.8785 0.00212139 0.20933)
(39.8013 0.0014176 0.254494)
(39.7109 0.00102003 0.301558)
(39.61 0.00109197 0.351173)
(39.4975 0.00162974 0.404106)
(39.3708 0.00253599 0.460895)
(39.227 0.0036002 0.521813)
(39.0639 0.00472521 0.586434)
(38.8783 0.00547632 0.653661)
(38.6682 0.00654347 0.721067)
(38.4229 0.00613659 0.785192)
(38.1451 0.00976027 0.852749)
(37.8038 0.00765743 0.908949)
(37.3853 0.00709101 0.988071)
(36.962 0.0011505 1.12508)
(36.5538 0.000821353 1.2556)
(36.0686 0.00254831 1.34428)
(35.5453 0.00500438 1.40592)
(35.0346 0.00889163 1.47588)
(34.5117 0.01622 1.58439)
(33.9616 0.0217595 1.68543)
(33.4035 0.0303612 1.72508)
(32.7815 0.0461894 1.76286)
(32.0413 0.0667724 1.84012)
(31.1419 0.0826349 1.84656)
(30.0337 0.0731127 1.727)
(28.6594 0.0519584 1.54903)
(27.5849 0.0709103 1.07724)
(27.1108 0.143348 0.313979)
(27.2599 0.214155 -0.484288)
(27.9162 0.184883 -1.1348)
(28.9462 0.0681336 -1.20251)
(29.672 -0.17071 -0.793925)
(29.9828 -0.383347 -0.496901)
(30.1001 -0.516545 -0.450163)
(30.417 -0.454061 -0.814736)
(30.5488 -0.241545 -0.652103)
(30.8262 -0.207425 -0.632678)
(30.9975 -0.280241 -0.73745)
(30.9438 -0.268932 -0.900897)
(31.0107 -0.341515 -0.974821)
(31.3117 -0.331732 -1.20929)
(31.4654 -0.391275 -1.46579)
(32.0644 -0.384308 -1.80954)
(32.015 -0.39508 -2.56241)
(34.0613 -0.253329 -4.39691)
(36.89 -0.262423 -4.32004)
(39.9816 -0.42829 -3.78256)
(41.3657 0.658402 -5.30699)
(31.9535 0.807396 -14.8741)
(39.9985 0.000473274 0.0350902)
(39.9856 0.000788605 0.0999486)
(39.9683 0.00227312 0.163851)
(39.939 0.0026384 0.231075)
(39.885 0.00207722 0.300278)
(39.8083 0.00136743 0.372013)
(39.7156 0.000955246 0.446486)
(39.6091 0.00100718 0.523812)
(39.4871 0.00153087 0.604136)
(39.3461 0.00242321 0.687512)
(39.1818 0.00349619 0.77387)
(38.9904 0.00456591 0.863186)
(38.7679 0.00536178 0.955137)
(38.512 0.00588801 1.05092)
(38.2147 0.00545533 1.15031)
(37.8853 0.00690402 1.26579)
(37.522 0.00504403 1.43366)
(36.9986 0.0036049 1.4818)
(36.5616 0.000942387 1.5143)
(36.2149 0.00149426 1.6224)
(35.8312 0.00286788 1.76226)
(35.41 0.00351709 1.87856)
(34.9516 0.00405813 1.99676)
(34.4252 0.00721977 2.13524)
(33.8467 0.00844343 2.28815)
(33.2143 0.0121508 2.3931)
(32.4342 0.0234747 2.52846)
(31.4299 0.0315179 2.83436)
(30.1233 0.0252802 3.1574)
(28.4405 0.0192705 3.24319)
(26.8194 0.0261861 2.83678)
(25.7465 0.0489861 1.81233)
(25.1196 0.101795 0.403593)
(24.937 0.187595 -1.47988)
(25.7288 0.178745 -3.14562)
(26.6454 -0.149003 -2.14611)
(26.8703 -0.578949 -0.489461)
(26.786 -0.948356 0.371171)
(26.1134 -0.783817 1.04449)
(26.1047 -0.200628 0.179079)
(26.0139 -0.0869581 -0.114976)
(26.3118 -0.230361 0.390868)
(26.4617 -0.342589 0.546006)
(26.64 -0.367814 0.279848)
(26.9687 -0.296557 -0.140977)
(27.1601 -0.269825 -0.327848)
(27.1652 -0.398335 -1.16954)
(26.995 -0.211918 -1.64336)
(27.5637 -0.196439 -2.84994)
(26.9692 0.0678509 -4.99084)
(28.6242 0.0231145 -6.79366)
(29.7526 -0.615194 -7.91871)
(30.4099 0.257363 -8.89789)
(18.4076 1.49503 -12.8593)
(39.9995 0.00047328 0.0350776)
(39.9862 0.000788796 0.0999498)
(39.9686 0.0022733 0.163825)
(39.9372 0.0026386 0.231036)
(39.882 0.00207742 0.300247)
(39.8054 0.00136761 0.371992)
(39.7134 0.000955369 0.446467)
(39.6079 0.00100723 0.523783)
(39.4867 0.0015309 0.604093)
(39.3462 0.0024233 0.687438)
(39.182 0.00349664 0.773778)
(38.9903 0.00456671 0.86299)
(38.7673 0.00536326 0.954924)
(38.5096 0.00589436 1.05014)
(38.2145 0.00544035 1.14974)
(37.8758 0.00694147 1.26155)
(37.5359 0.00476762 1.42579)
(37.0302 0.00364112 1.51855)
(36.568 0.000894427 1.51817)
(36.2243 0.00160423 1.6012)
(35.844 0.00318572 1.73003)
(35.4248 0.00400475 1.83853)
(34.9559 0.00436045 1.95352)
(34.4242 0.00684135 2.13398)
(33.8607 0.0081543 2.28999)
(33.2308 0.0122372 2.41275)
(32.4329 0.02612 2.64329)
(31.4112 0.0355529 3.01682)
(30.1208 0.0286292 3.37234)
(28.4523 0.0229899 3.47811)
(26.8873 0.0275496 3.01583)
(25.8777 0.0477524 2.04389)
(25.2742 0.0992604 0.874165)
(25.0702 0.201446 -0.555204)
(25.9204 0.203078 -2.25652)
(27.2678 -0.108875 -2.38932)
(28.1125 -0.506106 -1.79756)
(28.2219 -1.01679 -1.21271)
(27.8426 -1.24029 -0.523209)
(27.8404 -1.0228 -0.892532)
(27.2459 -0.265271 -0.708219)
(27.3546 -0.221634 -0.536999)
(27.4524 -0.207385 -0.590452)
(27.3983 -0.244045 -0.842955)
(27.7957 -0.19827 -1.10362)
(27.6893 -0.154597 -1.28886)
(28.0867 -0.152822 -1.93176)
(28.1324 0.0300923 -2.75013)
(28.5612 -0.0443248 -3.78991)
(27.1352 0.331563 -5.36379)
(29.3207 0.209645 -6.8711)
(29.2732 -0.0335901 -7.5903)
(30.7163 0.632963 -7.80645)
(26.1516 2.15574 -12.3023)
(39.9986 0.000467154 0.043464)
(39.9859 0.000793816 0.124308)
(39.9694 0.00228775 0.204521)
(39.941 0.00264509 0.288087)
(39.8883 0.00208278 0.372927)
(39.8137 0.00137608 0.460053)
(39.7239 0.000966921 0.5502)
(39.6214 0.00101902 0.643942)
(39.5044 0.00153915 0.741812)
(39.3695 0.00241891 0.844239)
(39.2123 0.00347332 0.951528)
(39.0288 0.00451004 1.06397)
(38.8155 0.00528255 1.18195)
(38.5692 0.00572992 1.30668)
(38.289 0.00559357 1.44025)
(37.9689 0.00549913 1.58929)
(37.648 0.00444208 1.77999)
(37.2582 0.00847334 1.95156)
(36.6428 0.00709242 1.99616)
(36.1823 0.00288018 2.0357)
(35.7664 0.00388469 2.14459)
(35.3337 0.00438629 2.28352)
(34.861 -4.50653e-05 2.50021)
(34.2834 -0.00318814 2.72671)
(33.6217 -0.00871709 2.95835)
(32.8495 -0.00980187 3.18392)
(31.8353 0.00105774 3.52505)
(30.6089 0.00922207 4.15015)
(29.1362 0.00548533 4.79733)
(27.4769 0.00949036 4.89594)
(26.033 0.0274926 4.08042)
(24.9291 0.0642455 2.5904)
(24.0198 0.133676 0.615696)
(23.4446 0.263995 -2.00757)
(23.921 0.381961 -4.11475)
(22.9066 -0.111841 -2.53426)
(23.2947 -0.920701 1.66647)
(23.4331 -1.35319 2.95097)
(23.512 -1.40926 3.19543)
(22.9543 -0.238828 0.987943)
(22.1245 -0.01499 0.208485)
(22.6425 -0.309224 1.04076)
(22.6429 -0.326295 0.95109)
(23.205 -0.253437 0.357583)
(23.5029 -0.158448 -0.156996)
(23.3973 0.0239262 -0.637895)
(23.8294 0.486938 -1.71711)
(23.0134 0.451538 -2.38036)
(26.2355 -0.0771577 -3.21624)
(22.1864 0.567607 -4.31421)
(16.7967 0.638838 -4.90041)
(13.8981 1.38481 -5.5463)
(23.0666 1.10513 -7.66112)
(-1.50415 -0.0508211 -8.25354)
(39.9995 0.000467159 0.0434489)
(39.9866 0.000794012 0.124311)
(39.9697 0.00228793 0.204486)
(39.9392 0.00264529 0.288057)
(39.8853 0.00208298 0.372949)
(39.8108 0.00137626 0.460141)
(39.7218 0.00096705 0.550341)
(39.6201 0.00101909 0.644106)
(39.504 0.00153917 0.741957)
(39.3696 0.00241917 0.844309)
(39.2125 0.00347346 0.951474)
(39.0287 0.00451302 1.06374)
(38.8147 0.00528689 1.18156)
(38.5676 0.0057391 1.30616)
(38.2863 0.00561193 1.43986)
(37.9686 0.00548333 1.58875)
(37.64 0.00466301 1.78018)
(37.2664 0.00709988 1.97352)
(36.707 0.00731339 2.00552)
(36.2275 0.00343987 2.02368)
(35.7994 0.00434465 2.11696)
(35.3507 0.0058553 2.25843)
(34.8211 -0.000155075 2.46801)
(34.2337 -0.00355239 2.70843)
(33.5897 -0.00895256 2.93958)
(32.7629 -0.0105615 3.2192)
(31.737 0.00189998 3.68316)
(30.5681 0.0106898 4.33093)
(29.1693 0.00651664 4.90848)
(27.6072 0.0087428 4.98585)
(26.2289 0.0248319 4.20103)
(25.1911 0.0598792 2.81598)
(24.468 0.120883 1.11597)
(24.1957 0.265457 -1.05189)
(24.9185 0.5726 -3.3512)
(26.2048 0.232645 -3.76413)
(27.5685 0.117568 -3.45691)
(27.701 0.0783688 -2.72643)
(27.042 -0.0928072 -1.91305)
(26.5142 0.057395 -1.50658)
(24.4066 0.10259 -0.579276)
(24.2387 -0.140903 -0.165982)
(24.1352 -0.00454895 -0.478068)
(24.5596 -0.0332672 -0.879379)
(24.9187 0.0228587 -1.29988)
(24.9768 0.264309 -1.77601)
(25.1563 0.742147 -2.43495)
(24.7241 0.75916 -2.94597)
(24.3943 0.519208 -3.00885)
(20.9868 1.50913 -4.45916)
(23.0221 1.21717 -5.68939)
(20.9102 0.972874 -4.11676)
(23.9388 1.3715 -2.85186)
(17.9181 1.80137 -6.16814)
(39.9986 0.000458701 0.0517538)
(39.9863 0.000797575 0.147799)
(39.9706 0.00224512 0.243322)
(39.9438 0.00261084 0.343256)
(39.8936 0.00209197 0.445306)
(39.8227 0.00143489 0.550841)
(39.7374 0.00106292 0.660701)
(39.64 0.00112868 0.775393)
(39.5289 0.00163052 0.895305)
(39.4001 0.00245314 1.0207)
(39.2496 0.00341438 1.15175)
(39.0733 0.00432829 1.28875)
(38.8684 0.00498351 1.43221)
(38.6332 0.00538006 1.58368)
(38.3678 0.00513429 1.74559)
(38.0773 0.0050877 1.92399)
(37.7625 0.00305715 2.1239)
(37.4948 0.0127159 2.38525)
(37.052 0.0208184 2.55022)
(36.5491 0.0130643 2.61524)
(36.0242 0.00676126 2.67655)
(35.4504 0.0026009 2.78789)
(34.8616 -0.00546964 3.05602)
(34.2551 -0.0126173 3.38855)
(33.5482 -0.0242538 3.75601)
(32.6662 -0.0266344 4.18169)
(31.4742 -0.00858322 4.72269)
(30.1447 0.0120466 5.5226)
(28.7762 0.0180053 6.26592)
(27.3068 0.0274545 6.31599)
(25.8582 0.0534907 5.3447)
(24.4251 0.115302 3.67795)
(22.7079 0.255574 1.5542)
(21.104 0.656422 -1.2438)
(19.7829 1.2227 -2.61132)
(-0.65984 0.0394857 1.29109)
(8.58114 -0.682797 0.887038)
(8.89613 -0.760868 1.67498)
(10.2723 -1.54379 4.60392)
(13.3002 -0.174516 -0.407185)
(15.8024 -0.0626199 0.561654)
(16.0388 -0.461323 2.32048)
(16.904 -0.259495 1.6746)
(17.5488 -0.153746 0.760008)
(18.416 0.011696 -0.152963)
(18.3136 0.0916856 -0.5331)
(17.7141 0.675881 -0.37334)
(17.3189 0.643332 -1.24845)
(17.3185 0.0336232 -2.79621)
(16.3719 -0.226228 -4.18509)
(13.4829 -0.424689 -5.35823)
(16.6268 1.02516 -6.70736)
(20.9635 1.90439 -7.10272)
(-7.91365 0.40519 -8.06705)
(39.9995 0.000458704 0.0517326)
(39.987 0.000797762 0.147796)
(39.9709 0.00224527 0.243287)
(39.942 0.00261117 0.343242)
(39.8908 0.00209154 0.445369)
(39.8199 0.00143324 0.550991)
(39.7353 0.00106092 0.660914)
(39.6388 0.00112656 0.775621)
(39.5284 0.0016284 0.895481)
(39.4001 0.00245128 1.02075)
(39.2496 0.00341261 1.15161)
(39.073 0.00432882 1.28837)
(38.8675 0.00498847 1.43166)
(38.6315 0.00538855 1.58298)
(38.3655 0.00516888 1.74539)
(38.0735 0.00499353 1.92364)
(37.7646 0.00356925 2.12705)
(37.4744 0.00887297 2.37052)
(37.1577 0.0234762 2.53665)
(36.7122 0.0161744 2.63076)
(36.138 0.00906377 2.72953)
(35.5392 0.00383125 2.86337)
(34.8851 -0.00598647 3.07347)
(34.2182 -0.0128804 3.37093)
(33.4669 -0.0250778 3.72512)
(32.5254 -0.0264704 4.18991)
(31.388 -0.0079256 4.8063)
(30.2001 0.0108817 5.60897)
(28.9089 0.0155421 6.28287)
(27.5018 0.0243046 6.34946)
(26.1422 0.0499061 5.45055)
(24.9016 0.107874 3.91781)
(23.7448 0.2396 2.07869)
(22.9056 0.804936 -0.219021)
(23.9205 2.95794 -2.78835)
(24.8063 3.66457 -4.4074)
(25.2675 3.21608 -3.51596)
(24.2927 2.87385 -1.9016)
(23.1354 2.63347 -0.711106)
(22.979 2.31924 0.0508219)
(20.0024 0.928336 1.12643)
(20.2486 0.962352 0.749376)
(20.165 0.932927 0.58839)
(20.5141 0.908236 0.15759)
(20.6989 0.945927 -0.389967)
(20.8794 0.958734 -1.04015)
(21.0661 1.42607 -1.66719)
(20.4652 1.53814 -1.76895)
(18.9985 1.42447 -1.43008)
(17.0426 1.49049 -2.21994)
(14.4992 1.55012 -3.08422)
(14.162 2.62837 -3.98345)
(22.4881 3.99561 -2.68361)
(12.3359 3.20175 -8.27965)
(39.9986 0.000446635 0.0597661)
(39.9869 0.000797536 0.170391)
(39.9727 0.00226062 0.280776)
(39.948 0.00263401 0.396649)
(39.9011 0.00213814 0.515138)
(39.8342 0.00150523 0.637665)
(39.7537 0.00114511 0.765042)
(39.6616 0.00120145 0.897736)
(39.5561 0.00166674 1.03616)
(39.4335 0.00242431 1.18067)
(39.2894 0.00329718 1.33162)
(39.1204 0.00410998 1.48958)
(38.924 0.00472799 1.65543)
(38.6998 0.00509281 1.831)
(38.4493 0.005197 2.01844)
(38.178 0.0054494 2.22236)
(37.8879 0.00538326 2.44174)
(37.6023 0.00865837 2.69303)
(37.3109 0.0134141 2.94138)
(36.9751 0.0156395 3.13747)
(36.5459 0.0102072 3.32031)
(35.998 0.00973097 3.55094)
(35.3135 -0.000163985 3.77249)
(34.5234 -0.0188986 4.11882)
(33.7797 -0.0396108 4.63634)
(32.9014 -0.0477675 5.30571)
(31.7228 -0.0123593 6.04708)
(30.3654 0.0320029 6.8506)
(29.0515 0.0391095 7.57988)
(27.6271 0.0420041 7.69522)
(26.055 0.0789735 6.87608)
(24.2731 0.159448 5.43516)
(21.7775 0.380288 3.92143)
(19.8624 1.07971 2.73305)
(-0.878155 0.612335 1.01633)
(-1.8281 0.00875754 1.25198)
(-1.58682 -0.497001 1.57112)
(-2.00457 1.46416 -2.46734)
(1.17047 -1.09351 -1.3963)
(-0.191798 -1.45969 -5.16111)
(8.77958 -1.21873 -1.37919)
(7.39465 -0.060209 -0.436825)
(5.92189 0.471104 0.23535)
(6.75136 0.655534 -0.0587421)
(8.33746 0.509276 -0.56121)
(9.25405 -0.149832 -1.07645)
(10.2845 -0.804078 -1.33639)
(13.6973 -0.944401 -3.63934)
(15.9927 -0.915821 -5.63397)
(17.9444 -0.886071 -6.92108)
(17.9034 -0.811581 -7.50223)
(18.5232 0.123061 -6.60791)
(23.132 0.210997 -3.42498)
(19.9953 -1.0693 -8.3199)
(39.9995 0.000446638 0.0597439)
(39.9876 0.000797731 0.170381)
(39.973 0.00226077 0.280719)
(39.9463 0.00263434 0.396607)
(39.8983 0.00213773 0.515168)
(39.8316 0.00150357 0.637775)
(39.7517 0.00114307 0.7652)
(39.6604 0.00119921 0.897892)
(39.5556 0.00166458 1.03625)
(39.4333 0.00242203 1.18063)
(39.2893 0.00329677 1.33142)
(39.1199 0.00411144 1.48921)
(38.9231 0.00473042 1.65501)
(38.6983 0.00509802 1.83058)
(38.4477 0.0052124 2.0187)
(38.176 0.00544709 2.22288)
(37.8895 0.00543703 2.44517)
(37.6021 0.00853547 2.68817)
(37.3211 0.0133136 2.93077)
(37.0053 0.0155899 3.1538)
(36.5815 0.0112665 3.36952)
(36.0719 0.00633652 3.60763)
(35.4148 0.00204973 3.81683)
(34.5609 -0.0175063 4.15719)
(33.7057 -0.0406361 4.58158)
(32.7479 -0.0481559 5.23434)
(31.5563 -0.0106476 5.97377)
(30.4188 0.0274835 6.86124)
(29.2407 0.0347556 7.62711)
(27.9026 0.0367859 7.76558)
(26.4429 0.0749739 6.93198)
(24.9464 0.151829 5.52282)
(23.3787 0.411291 4.03303)
(22.0657 1.73698 2.81585)
(24.397 5.0377 2.53632)
(-0.806659 -0.00305213 1.27661)
(6.02173 0.0848098 -0.233669)
(5.44863 2.13556 -0.329745)
(5.43197 2.75219 0.194069)
(7.55606 2.30548 2.64856)
(9.09375 1.16255 2.49739)
(8.49173 1.94684 1.33086)
(8.43409 1.9752 2.30071)
(10.4514 1.86935 2.05106)
(12.2873 1.82817 1.1545)
(13.1714 1.65764 0.142708)
(13.6276 1.51591 -0.449863)
(14.0796 1.51934 -0.817327)
(14.5988 1.75971 -1.6523)
(15.2644 1.71011 -2.80173)
(15.2853 1.54407 -4.14164)
(17.864 2.52015 -5.17356)
(23.4889 3.4791 -6.1332)
(19.023 2.35504 -10.2937)
(39.9987 0.000437376 0.0673846)
(39.9879 0.000794539 0.191725)
(39.9752 0.00219609 0.316065)
(39.9531 0.00257179 0.44685)
(39.9099 0.00211419 0.580636)
(39.8477 0.00152122 0.71902)
(39.7726 0.00118324 0.862928)
(39.6866 0.00123526 1.01292)
(39.5877 0.00166752 1.16955)
(39.4723 0.002368 1.33331)
(39.3361 0.00317314 1.50475)
(39.1759 0.00393187 1.68461)
(38.9898 0.00454982 1.87387)
(38.7778 0.00498704 2.07394)
(38.542 0.00535257 2.28647)
(38.2863 0.00568597 2.51312)
(38.015 0.00618884 2.75333)
(37.7335 0.00714631 3.00929)
(37.4503 0.00808865 3.27245)
(37.1543 0.00807561 3.5342)
(36.8154 0.00493019 3.80875)
(36.4098 0.00303597 4.14835)
(35.9224 0.0121505 4.54337)
(35.2373 -0.00314551 4.93705)
(34.3389 -0.0356869 5.55165)
(33.578 -0.055572 6.37086)
(32.6885 -0.0197212 7.18001)
(31.4906 0.0384476 8.016)
(30.1238 0.064011 8.8725)
(28.544 0.0622839 9.17263)
(26.9612 0.0723283 8.33904)
(25.3247 0.108172 7.06183)
(23.4275 0.229383 6.38811)
(22.0677 0.881739 7.79937)
(18.2712 1.64172 12.6583)
(-1.75291 -0.0124843 1.27033)
(0.0599909 -0.663772 -2.88121)
(3.67639 -0.565573 -4.78848)
(2.59113 -1.71945 -1.00824)
(2.88172 -2.71639 -4.06394)
(4.07542 -2.67684 -4.81638)
(5.46749 -2.27633 -2.88935)
(7.80111 -1.97943 -2.76804)
(10.1302 -1.34535 -2.47927)
(12.4653 -1.09037 -2.88559)
(14.2466 -1.46347 -3.70412)
(16.1239 -1.71075 -4.7291)
(18.5124 -1.54057 -6.17139)
(20.9408 -1.12173 -7.49963)
(22.5245 -0.77315 -8.22327)
(23.0309 -0.614426 -8.56441)
(21.7037 -0.303219 -7.99957)
(26.084 0.28599 -8.03513)
(21.3449 1.86823 -12.4647)
(39.9996 0.000437378 0.0673616)
(39.9885 0.000794706 0.191715)
(39.9755 0.00219628 0.316008)
(39.9515 0.002572 0.446804)
(39.9072 0.00211442 0.580658)
(39.8451 0.00152136 0.719114)
(39.7707 0.00118352 0.863063)
(39.6854 0.00123442 1.01305)
(39.5871 0.00166505 1.16961)
(39.472 0.00236492 1.33326)
(39.3359 0.00317162 1.50457)
(39.1754 0.00393278 1.68431)
(38.989 0.00455165 1.87353)
(38.7766 0.00498964 2.07369)
(38.5407 0.00535604 2.28652)
(38.2851 0.00569596 2.51334)
(38.0144 0.00618308 2.75408)
(37.7334 0.00718914 3.00709)
(37.4457 0.00803501 3.26586)
(37.1438 0.00800326 3.52678)
(36.8064 0.00500297 3.81233)
(36.4077 0.00275947 4.14829)
(35.9711 0.0115116 4.61241)
(35.3476 -0.00191493 4.988)
(34.3736 -0.0408137 5.51098)
(33.4909 -0.0585337 6.22601)
(32.3656 -0.0236655 7.05352)
(31.1998 0.0265986 7.99663)
(30.1716 0.0539062 8.82724)
(28.992 0.04403 9.15153)
(27.446 0.0643445 8.49163)
(25.8109 0.10586 7.13728)
(24.2787 0.242666 6.114)
(22.4686 1.26629 6.61356)
(24.8608 4.01738 10.4866)
(20.9996 3.11855 10.1046)
(18.4832 2.17964 7.27723)
(14.7087 1.66732 4.12578)
(8.774 1.51278 1.83168)
(4.87227 0.874592 1.14441)
(2.19567 0.151752 -0.437222)
(-3.29492 2.83585 6.30579)
(1.51164 2.81273 2.39667)
(4.23619 2.10627 -0.406761)
(5.56237 2.23027 0.619635)
(6.68338 1.44882 0.962291)
(9.41851 0.952077 0.122925)
(13.2523 0.856618 -1.7449)
(16.7828 1.03333 -3.70164)
(18.998 1.07139 -5.02742)
(20.082 0.827213 -6.07239)
(20.6216 0.814775 -6.69532)
(25.3702 1.07282 -7.75884)
(21.4618 2.08388 -10.4409)
(39.9988 0.000424659 0.0744866)
(39.9888 0.000794503 0.211515)
(39.9782 0.00221132 0.348802)
(39.9591 0.00259142 0.493462)
(39.92 0.00215216 0.641528)
(39.8632 0.00157592 0.794813)
(39.7943 0.00124065 0.954369)
(39.7153 0.00127586 1.12085)
(39.624 0.0016717 1.29494)
(39.5169 0.00232046 1.47729)
(39.39 0.00306836 1.66859)
(39.24 0.00377987 1.86964)
(39.0652 0.00436834 2.08131)
(38.8657 0.00484031 2.30445)
(38.6434 0.00523488 2.53965)
(38.4011 0.00564254 2.78666)
(38.1424 0.00603343 3.04459)
(37.8704 0.00632106 3.3116)
(37.5889 0.00643549 3.58547)
(37.3 0.00598827 3.86746)
(36.9987 0.00430049 4.17145)
(36.686 0.00539304 4.53884)
(36.3611 0.00135084 5.01712)
(36.0201 0.0456214 5.69202)
(35.2225 0.0278977 6.42917)
(34.4752 -0.00501411 7.23777)
(33.8393 -0.0246971 8.00035)
(32.9261 -0.022919 9.10827)
(31.9478 0.0152975 10.1569)
(30.7627 0.0808506 10.7797)
(29.1439 0.108627 10.0497)
(26.7588 0.138133 8.63269)
(24.6427 0.171438 7.82865)
(22.5453 0.39632 8.70207)
(24.4335 1.17275 14.4482)
(20.2068 0.616094 12.1025)
(15.3927 -0.722338 7.10845)
(11.1521 -2.07797 2.09041)
(9.44179 -2.6266 -0.668405)
(9.93509 -3.01593 -2.67876)
(11.7595 -3.2866 -3.6942)
(14.3434 -3.48403 -4.28148)
(16.7005 -2.8667 -4.4586)
(18.148 -1.97534 -4.45703)
(19.2747 -1.45625 -4.70967)
(20.533 -1.47686 -5.37127)
(21.9338 -1.48742 -6.18661)
(23.3201 -1.2809 -7.10603)
(24.6171 -0.863512 -7.94529)
(25.4042 -0.456361 -8.59379)
(25.4358 -0.127244 -9.07014)
(23.8657 0.344478 -9.40079)
(26.6944 1.35009 -10.4207)
(19.1334 3.32243 -12.9479)
(39.9997 0.000424662 0.0744656)
(39.9894 0.000794681 0.211499)
(39.9785 0.00221151 0.34873)
(39.9575 0.00259164 0.493397)
(39.9174 0.00215241 0.641526)
(39.8607 0.0015761 0.794877)
(39.7924 0.00124104 0.954469)
(39.714 0.00127522 1.12094)
(39.6234 0.00166936 1.29497)
(39.5166 0.00231753 1.47722)
(39.3897 0.00306591 1.6684)
(39.2395 0.00377627 1.86933)
(39.0644 0.00436634 2.08093)
(38.8647 0.00484084 2.30405)
(38.6422 0.00523177 2.53924)
(38.3999 0.00563973 2.78628)
(38.141 0.00603056 3.04392)
(37.8687 0.00632131 3.31013)
(37.5861 0.00645819 3.58271)
(37.2944 0.00596569 3.86318)
(36.9931 0.00464601 4.16943)
(36.6759 0.003941 4.53136)
(36.3721 0.00485224 5.02378)
(36.0381 0.0241508 5.64722)
(35.597 0.0346074 6.34954)
(34.7393 -0.00423761 7.13258)
(33.805 -0.0523722 8.13698)
(32.6733 -0.0346244 9.07546)
(31.6067 0.0264806 9.85565)
(30.6331 0.0652061 10.438)
(29.4763 0.104044 10.3194)
(27.7706 0.112365 9.08138)
(25.562 0.18324 7.87148)
(23.5368 0.299362 8.34974)
(23.9151 1.53673 11.3046)
(26.0732 2.07472 12.0977)
(26.3648 1.79357 10.3528)
(24.3947 1.20145 7.77946)
(21.2118 0.97933 5.24853)
(18.7479 0.681958 3.29765)
(16.9731 0.127485 1.41518)
(14.6003 -0.0943357 1.27396)
(13.1965 0.607318 1.79603)
(12.8701 1.37752 1.62363)
(14.3103 1.63961 0.418975)
(16.4684 1.13195 -1.00924)
(18.9342 0.583655 -2.57454)
(21.3477 0.347911 -4.13289)
(23.3155 0.438278 -5.55293)
(24.4292 0.537054 -6.72679)
(24.9434 0.528848 -7.38965)
(25.2562 0.700801 -7.99479)
(29.1259 1.18699 -9.08185)
(26.5348 2.95245 -11.9073)
(39.9989 0.000417431 0.0809667)
(39.9901 0.000785334 0.229499)
(39.9816 0.00213297 0.37857)
(39.9658 0.00251071 0.535927)
(39.9316 0.00210476 0.697089)
(39.8807 0.00156368 0.8641)
(39.8188 0.00124627 1.03815)
(39.7476 0.00127403 1.22002)
(39.6651 0.0016389 1.41054)
(39.5676 0.00223922 1.61053)
(39.4511 0.00293282 1.82081)
(39.3125 0.00358654 2.04219)
(39.1498 0.00412971 2.27533)
(38.9628 0.00455748 2.5205)
(38.7524 0.00490359 2.77723)
(38.5209 0.00525293 3.04407)
(38.2709 0.0054104 3.31851)
(38.0062 0.00552321 3.59729)
(37.7326 0.00501804 3.87906)
(37.4587 0.00429118 4.16345)
(37.1993 0.00213173 4.46828)
(36.9659 0.00169444 4.80611)
(36.8213 -0.00145185 5.25739)
(36.6941 0.00998284 5.97003)
(36.4847 0.075361 6.96683)
(35.7643 0.0789951 7.87501)
(35.041 0.0104906 8.83631)
(34.2909 -0.0356892 9.95251)
(33.5064 -0.0378625 10.937)
(32.7549 0.00164899 11.7338)
(31.782 0.0317283 12.0141)
(30.0848 0.0668266 11.5513)
(27.5363 0.140612 10.1989)
(24.8574 0.0981229 9.49847)
(24.54 0.392359 11.1484)
(25.6821 0.456194 11.5824)
(24.9361 -0.0859902 9.39653)
(22.9678 -0.835284 6.03923)
(21.4724 -1.36332 3.17824)
(21.0277 -1.67002 0.790473)
(21.1948 -1.89133 -1.0302)