/*--------------------------------*- C++ -*----------------------------------*\
| =========                 |                                                 |
| \\      /  F ield         | OpenFOAM: The Open Source CFD Toolbox           |
|  \\    /   O peration     | Version:  4.1                                   |
|   \\  /    A nd           | Web:      www.OpenFOAM.org                      |
|    \\/     M anipulation  |                                                 |
\*---------------------------------------------------------------------------*/
FoamFile
{
    version     2.0;
    format      ascii;
    class       volScalarField;
    location    "51";
    object      p;
}
// * * * * * * * * * * * * * * * * * * * * * * * * * * * * * * * * * * * * * //

dimensions      [0 2 -2 0 0 0 0];

internalField   nonuniform List<scalar> 
4432
(
-3.78014e+10
-3.96506e+10
-4.05004e+10
-3.85791e+10
-3.82618e+10
-3.86723e+10
-3.85004e+10
-3.83435e+10
-3.82358e+10
-3.8178e+10
-3.81226e+10
-3.80453e+10
-3.79389e+10
-3.78129e+10
-3.76914e+10
-3.75747e+10
-3.74382e+10
-3.72788e+10
-3.71005e+10
-3.69068e+10
-3.6697e+10
-3.64745e+10
-3.62429e+10
-3.60062e+10
-3.57682e+10
-3.55327e+10
-3.53021e+10
-3.5078e+10
-3.4861e+10
-3.46515e+10
-3.44498e+10
-3.42583e+10
-3.40812e+10
-3.39241e+10
-3.37942e+10
-3.36993e+10
-3.36452e+10
-3.36328e+10
-3.36542e+10
-3.36917e+10
-3.37179e+10
-3.36993e+10
-3.36048e+10
-3.34247e+10
-3.31942e+10
-3.29932e+10
-3.28751e+10
-3.27447e+10
-3.24373e+10
-3.24631e+10
-3.51341e+10
-4.27265e+10
-4.82751e+10
-2.43298e+10
-3.8374e+10
-3.90538e+10
-3.95356e+10
-3.91448e+10
-3.83684e+10
-3.85445e+10
-3.84851e+10
-3.83167e+10
-3.82103e+10
-3.81719e+10
-3.81273e+10
-3.80459e+10
-3.79325e+10
-3.78072e+10
-3.76898e+10
-3.75742e+10
-3.74357e+10
-3.72744e+10
-3.70966e+10
-3.69027e+10
-3.6692e+10
-3.64685e+10
-3.62353e+10
-3.5997e+10
-3.57574e+10
-3.55202e+10
-3.52878e+10
-3.50623e+10
-3.48442e+10
-3.46338e+10
-3.44316e+10
-3.42395e+10
-3.40615e+10
-3.39034e+10
-3.37725e+10
-3.36761e+10
-3.36195e+10
-3.3603e+10
-3.36181e+10
-3.36465e+10
-3.36599e+10
-3.36242e+10
-3.35074e+10
-3.32987e+10
-3.3031e+10
-3.27793e+10
-3.25853e+10
-3.23264e+10
-3.178e+10
-3.13829e+10
-3.35284e+10
-4.14177e+10
-4.90935e+10
-2.84287e+10
-3.86975e+10
-3.88058e+10
-3.89753e+10
-3.92539e+10
-3.85406e+10
-3.83989e+10
-3.84827e+10
-3.83441e+10
-3.82355e+10
-3.81993e+10
-3.81556e+10
-3.80978e+10
-3.80064e+10
-3.788e+10
-3.77489e+10
-3.76326e+10
-3.75063e+10
-3.73509e+10
-3.71735e+10
-3.69764e+10
-3.67615e+10
-3.65318e+10
-3.62912e+10
-3.6045e+10
-3.57979e+10
-3.55545e+10
-3.53176e+10
-3.50897e+10
-3.48715e+10
-3.46634e+10
-3.44657e+10
-3.42805e+10
-3.41124e+10
-3.39656e+10
-3.38444e+10
-3.37561e+10
-3.37058e+10
-3.36936e+10
-3.37115e+10
-3.37415e+10
-3.3755e+10
-3.3718e+10
-3.35998e+10
-3.33892e+10
-3.3119e+10
-3.2865e+10
-3.26545e+10
-3.23248e+10
-3.16605e+10
-3.13437e+10
-3.42773e+10
-4.31566e+10
-5.05517e+10
-3.19934e+10
-3.87068e+10
-3.90113e+10
-3.91827e+10
-3.90051e+10
-3.85119e+10
-3.84102e+10
-3.84832e+10
-3.83226e+10
-3.823e+10
-3.81952e+10
-3.81595e+10
-3.81008e+10
-3.80035e+10
-3.78737e+10
-3.7746e+10
-3.76365e+10
-3.75093e+10
-3.73496e+10
-3.71725e+10
-3.69754e+10
-3.67602e+10
-3.65298e+10
-3.62883e+10
-3.60408e+10
-3.57921e+10
-3.55468e+10
-3.53078e+10
-3.50777e+10
-3.48573e+10
-3.46474e+10
-3.4448e+10
-3.42606e+10
-3.40885e+10
-3.39365e+10
-3.38109e+10
-3.37177e+10
-3.36611e+10
-3.36414e+10
-3.36504e+10
-3.36697e+10
-3.3671e+10
-3.36206e+10
-3.34881e+10
-3.32628e+10
-3.29775e+10
-3.27032e+10
-3.24617e+10
-3.2079e+10
-3.13182e+10
-3.09513e+10
-3.44274e+10
-4.49086e+10
-5.09988e+10
-2.53928e+10
-3.94285e+10
-3.913e+10
-3.8571e+10
-3.9106e+10
-3.87074e+10
-3.8398e+10
-3.83093e+10
-3.82348e+10
-3.8189e+10
-3.81678e+10
-3.81364e+10
-3.8097e+10
-3.80182e+10
-3.78981e+10
-3.77726e+10
-3.76575e+10
-3.75316e+10
-3.73799e+10
-3.72073e+10
-3.7012e+10
-3.67958e+10
-3.65614e+10
-3.63129e+10
-3.6056e+10
-3.57961e+10
-3.55387e+10
-3.52875e+10
-3.50459e+10
-3.48158e+10
-3.45991e+10
-3.43955e+10
-3.42043e+10
-3.40278e+10
-3.38741e+10
-3.37497e+10
-3.36588e+10
-3.36059e+10
-3.35895e+10
-3.36014e+10
-3.36231e+10
-3.36277e+10
-3.35853e+10
-3.34733e+10
-3.32922e+10
-3.30882e+10
-3.29437e+10
-3.28766e+10
-3.26868e+10
-3.20994e+10
-3.18067e+10
-3.47711e+10
-4.37396e+10
-5.02709e+10
-2.56375e+10
-3.91122e+10
-3.92554e+10
-3.90423e+10
-3.86866e+10
-3.85913e+10
-3.84705e+10
-3.83564e+10
-3.82328e+10
-3.81967e+10
-3.81689e+10
-3.81343e+10
-3.80873e+10
-3.80052e+10
-3.78854e+10
-3.7761e+10
-3.76516e+10
-3.75246e+10
-3.73705e+10
-3.71973e+10
-3.70023e+10
-3.67866e+10
-3.65526e+10
-3.63048e+10
-3.60484e+10
-3.57892e+10
-3.55324e+10
-3.52818e+10
-3.50406e+10
-3.48108e+10
-3.45941e+10
-3.43904e+10
-3.42e+10
-3.40255e+10
-3.38721e+10
-3.3746e+10
-3.36533e+10
-3.35975e+10
-3.35773e+10
-3.35845e+10
-3.36001e+10
-3.35964e+10
-3.35427e+10
-3.34141e+10
-3.32067e+10
-3.29585e+10
-3.27384e+10
-3.25451e+10
-3.21461e+10
-3.12313e+10
-3.05381e+10
-3.33048e+10
-4.27321e+10
-5.08231e+10
-2.9623e+10
-3.8919e+10
-3.9044e+10
-3.88396e+10
-3.86665e+10
-3.86778e+10
-3.85395e+10
-3.83922e+10
-3.82776e+10
-3.82274e+10
-3.82013e+10
-3.81724e+10
-3.81395e+10
-3.80742e+10
-3.79758e+10
-3.787e+10
-3.77642e+10
-3.76399e+10
-3.74907e+10
-3.73195e+10
-3.71234e+10
-3.69026e+10
-3.66586e+10
-3.63962e+10
-3.61222e+10
-3.58442e+10
-3.55691e+10
-3.53027e+10
-3.50494e+10
-3.48128e+10
-3.45952e+10
-3.43953e+10
-3.42083e+10
-3.40344e+10
-3.38893e+10
-3.37833e+10
-3.37073e+10
-3.36669e+10
-3.3663e+10
-3.36832e+10
-3.37076e+10
-3.37086e+10
-3.36583e+10
-3.35379e+10
-3.33542e+10
-3.31605e+10
-3.30425e+10
-3.30193e+10
-3.28912e+10
-3.23519e+10
-3.19733e+10
-3.46749e+10
-4.39398e+10
-5.27686e+10
-3.15512e+10
-3.89818e+10
-3.89269e+10
-3.8678e+10
-3.84591e+10
-3.86346e+10
-3.86251e+10
-3.84267e+10
-3.8277e+10
-3.823e+10
-3.81963e+10
-3.8166e+10
-3.81278e+10
-3.80605e+10
-3.79652e+10
-3.7864e+10
-3.77606e+10
-3.7635e+10
-3.74853e+10
-3.7314e+10
-3.71184e+10
-3.6898e+10
-3.66544e+10
-3.63925e+10
-3.61192e+10
-3.58421e+10
-3.55684e+10
-3.53036e+10
-3.50518e+10
-3.48158e+10
-3.45974e+10
-3.43967e+10
-3.42129e+10
-3.40476e+10
-3.39063e+10
-3.37952e+10
-3.37208e+10
-3.36841e+10
-3.36813e+10
-3.37037e+10
-3.37302e+10
-3.37319e+10
-3.36791e+10
-3.35505e+10
-3.33482e+10
-3.31166e+10
-3.29298e+10
-3.27892e+10
-3.24656e+10
-3.16535e+10
-3.11511e+10
-3.45414e+10
-4.52647e+10
-5.26593e+10
-2.66889e+10
-3.86059e+10
-3.86144e+10
-3.85946e+10
-3.84063e+10
-3.847e+10
-3.8433e+10
-3.83353e+10
-3.82417e+10
-3.82032e+10
-3.81958e+10
-3.81781e+10
-3.81347e+10
-3.80727e+10
-3.79927e+10
-3.7908e+10
-3.78126e+10
-3.76944e+10
-3.75512e+10
-3.73826e+10
-3.7186e+10
-3.69593e+10
-3.67026e+10
-3.64209e+10
-3.61222e+10
-3.58175e+10
-3.55166e+10
-3.52279e+10
-3.49568e+10
-3.47067e+10
-3.44787e+10
-3.42711e+10
-3.40803e+10
-3.39077e+10
-3.37639e+10
-3.36573e+10
-3.35874e+10
-3.3555e+10
-3.35575e+10
-3.35822e+10
-3.36078e+10
-3.36061e+10
-3.35477e+10
-3.34128e+10
-3.32082e+10
-3.29848e+10
-3.28242e+10
-3.27439e+10
-3.25412e+10
-3.18619e+10
-3.10924e+10
-3.30173e+10
-4.23762e+10
-5.57362e+10
-4.17357e+10
-3.8745e+10
-3.85942e+10
-3.83909e+10
-3.82831e+10
-3.84638e+10
-3.84772e+10
-3.83662e+10
-3.82622e+10
-3.82066e+10
-3.81839e+10
-3.81669e+10
-3.81313e+10
-3.80718e+10
-3.79952e+10
-3.79135e+10
-3.78195e+10
-3.77011e+10
-3.75576e+10
-3.73886e+10
-3.71914e+10
-3.69638e+10
-3.67061e+10
-3.64228e+10
-3.61229e+10
-3.5817e+10
-3.55156e+10
-3.52266e+10
-3.49547e+10
-3.47024e+10
-3.44706e+10
-3.42594e+10
-3.40678e+10
-3.38964e+10
-3.37504e+10
-3.36367e+10
-3.35602e+10
-3.35223e+10
-3.35187e+10
-3.35374e+10
-3.35571e+10
-3.35494e+10
-3.34843e+10
-3.33412e+10
-3.31263e+10
-3.28893e+10
-3.27101e+10
-3.26043e+10
-3.23642e+10
-3.16769e+10
-3.12438e+10
-3.45428e+10
-4.54753e+10
-5.45316e+10
-3.03088e+10
-3.85498e+10
-3.84544e+10
-3.83856e+10
-3.83223e+10
-3.837e+10
-3.83717e+10
-3.8317e+10
-3.82474e+10
-3.82114e+10
-3.82208e+10
-3.82345e+10
-3.82049e+10
-3.81537e+10
-3.80941e+10
-3.80266e+10
-3.79406e+10
-3.78294e+10
-3.76905e+10
-3.75227e+10
-3.73227e+10
-3.70855e+10
-3.68092e+10
-3.64974e+10
-3.61627e+10
-3.58214e+10
-3.54896e+10
-3.51786e+10
-3.48936e+10
-3.4636e+10
-3.44043e+10
-3.41956e+10
-3.40083e+10
-3.38449e+10
-3.37097e+10
-3.3606e+10
-3.35385e+10
-3.35089e+10
-3.35128e+10
-3.35375e+10
-3.35622e+10
-3.35591e+10
-3.34996e+10
-3.33647e+10
-3.31622e+10
-3.2943e+10
-3.27898e+10
-3.27324e+10
-3.25936e+10
-3.20492e+10
-3.15392e+10
-3.38789e+10
-4.30471e+10
-5.31715e+10
-3.17382e+10
-3.85755e+10
-3.84756e+10
-3.83638e+10
-3.82944e+10
-3.83829e+10
-3.83743e+10
-3.83163e+10
-3.82675e+10
-3.82361e+10
-3.82325e+10
-3.82305e+10
-3.82043e+10
-3.81572e+10
-3.80997e+10
-3.80325e+10
-3.79462e+10
-3.78338e+10
-3.7694e+10
-3.75255e+10
-3.73248e+10
-3.70874e+10
-3.68111e+10
-3.65e+10
-3.61663e+10
-3.58263e+10
-3.54956e+10
-3.51851e+10
-3.49002e+10
-3.46419e+10
-3.44084e+10
-3.41974e+10
-3.40077e+10
-3.38398e+10
-3.36974e+10
-3.35858e+10
-3.35092e+10
-3.34692e+10
-3.34618e+10
-3.34743e+10
-3.34856e+10
-3.34684e+10
-3.33934e+10
-3.32415e+10
-3.30211e+10
-3.27848e+10
-3.26179e+10
-3.25517e+10
-3.24091e+10
-3.18862e+10
-3.15437e+10
-3.4494e+10
-4.43842e+10
-5.25854e+10
-2.70252e+10
-3.83256e+10
-3.82542e+10
-3.82058e+10
-3.82286e+10
-3.82678e+10
-3.82885e+10
-3.8266e+10
-3.82229e+10
-3.82073e+10
-3.82326e+10
-3.82492e+10
-3.82364e+10
-3.8209e+10
-3.81724e+10
-3.812e+10
-3.80441e+10
-3.79389e+10
-3.78016e+10
-3.76316e+10
-3.74245e+10
-3.71725e+10
-3.6867e+10
-3.65096e+10
-3.6119e+10
-3.57213e+10
-3.53419e+10
-3.49964e+10
-3.46912e+10
-3.44249e+10
-3.41914e+10
-3.39845e+10
-3.38017e+10
-3.36437e+10
-3.35119e+10
-3.34076e+10
-3.33347e+10
-3.32949e+10
-3.32845e+10
-3.32923e+10
-3.32981e+10
-3.32756e+10
-3.31978e+10
-3.30479e+10
-3.28354e+10
-3.26121e+10
-3.24638e+10
-3.24305e+10
-3.23532e+10
-3.19307e+10
-3.16375e+10
-3.43849e+10
-4.36522e+10
-5.15354e+10
-2.6432e+10
-3.82842e+10
-3.82359e+10
-3.827e+10
-3.82688e+10
-3.82732e+10
-3.82558e+10
-3.82416e+10
-3.82286e+10
-3.82281e+10
-3.82402e+10
-3.82456e+10
-3.82341e+10
-3.82087e+10
-3.81721e+10
-3.8119e+10
-3.80413e+10
-3.79337e+10
-3.77941e+10
-3.7621e+10
-3.74106e+10
-3.71546e+10
-3.68447e+10
-3.64834e+10
-3.60885e+10
-3.56872e+10
-3.53039e+10
-3.49548e+10
-3.46465e+10
-3.43781e+10
-3.41438e+10
-3.39376e+10
-3.37554e+10
-3.35971e+10
-3.34642e+10
-3.33591e+10
-3.32849e+10
-3.32428e+10
-3.32288e+10
-3.32311e+10
-3.32291e+10
-3.31956e+10
-3.31025e+10
-3.29314e+10
-3.26904e+10
-3.24294e+10
-3.22311e+10
-3.21281e+10
-3.19499e+10
-3.13736e+10
-3.07894e+10
-3.29157e+10
-4.17587e+10
-5.15259e+10
-3.17147e+10
-3.81728e+10
-3.81096e+10
-3.81113e+10
-3.81867e+10
-3.82407e+10
-3.82403e+10
-3.82122e+10
-3.81874e+10
-3.82064e+10
-3.82559e+10
-3.82812e+10
-3.82867e+10
-3.82846e+10
-3.82723e+10
-3.82421e+10
-3.81855e+10
-3.80953e+10
-3.79686e+10
-3.78047e+10
-3.76014e+10
-3.73462e+10
-3.70192e+10
-3.66152e+10
-3.61575e+10
-3.56909e+10
-3.52533e+10
-3.48669e+10
-3.45384e+10
-3.42629e+10
-3.40294e+10
-3.3828e+10
-3.36527e+10
-3.34997e+10
-3.33683e+10
-3.32607e+10
-3.31797e+10
-3.31258e+10
-3.30943e+10
-3.3073e+10
-3.30419e+10
-3.29744e+10
-3.28432e+10
-3.26315e+10
-3.23482e+10
-3.20428e+10
-3.17966e+10
-3.16419e+10
-3.1409e+10
-3.07666e+10
-3.01034e+10
-3.22612e+10
-4.14449e+10
-5.16988e+10
-3.28871e+10
-3.81241e+10
-3.80698e+10
-3.81542e+10
-3.82416e+10
-3.82413e+10
-3.82034e+10
-3.81977e+10
-3.81992e+10
-3.82192e+10
-3.82532e+10
-3.82761e+10
-3.82859e+10
-3.82862e+10
-3.82754e+10
-3.82462e+10
-3.81905e+10
-3.81019e+10
-3.79768e+10
-3.78147e+10
-3.76127e+10
-3.73584e+10
-3.70328e+10
-3.66299e+10
-3.6174e+10
-3.57085e+10
-3.52712e+10
-3.48841e+10
-3.45541e+10
-3.42772e+10
-3.4044e+10
-3.38435e+10
-3.36688e+10
-3.35167e+10
-3.33873e+10
-3.32828e+10
-3.32068e+10
-3.316e+10
-3.31374e+10
-3.3127e+10
-3.31087e+10
-3.30557e+10
-3.2941e+10
-3.27473e+10
-3.24825e+10
-3.21945e+10
-3.19614e+10
-3.18089e+10
-3.15534e+10
-3.08285e+10
-2.99008e+10
-3.1359e+10
-3.97147e+10
-5.0791e+10
-3.38567e+10
-3.8068e+10
-3.79942e+10
-3.80016e+10
-3.80694e+10
-3.81433e+10
-3.81459e+10
-3.8129e+10
-3.81436e+10
-3.81993e+10
-3.82635e+10
-3.83141e+10
-3.8357e+10
-3.83938e+10
-3.8419e+10
-3.84243e+10
-3.83989e+10
-3.83332e+10
-3.82221e+10
-3.80665e+10
-3.78689e+10
-3.76135e+10
-3.72609e+10
-3.67825e+10
-3.62114e+10
-3.56318e+10
-3.511e+10
-3.46757e+10
-3.43313e+10
-3.40633e+10
-3.38523e+10
-3.36812e+10
-3.35394e+10
-3.34208e+10
-3.33236e+10
-3.32498e+10
-3.32021e+10
-3.31808e+10
-3.31811e+10
-3.31907e+10
-3.31893e+10
-3.31504e+10
-3.30474e+10
-3.2864e+10
-3.261e+10
-3.23355e+10
-3.21191e+10
-3.19853e+10
-3.17487e+10
-3.1049e+10
-3.02184e+10
-3.19658e+10
-4.03594e+10
-5.03004e+10
-3.08821e+10
-3.80441e+10
-3.79667e+10
-3.80025e+10
-3.80894e+10
-3.81206e+10
-3.81134e+10
-3.8132e+10
-3.81606e+10
-3.82006e+10
-3.82522e+10
-3.83025e+10
-3.83478e+10
-3.83852e+10
-3.84107e+10
-3.84158e+10
-3.83906e+10
-3.83259e+10
-3.82162e+10
-3.80625e+10
-3.78663e+10
-3.76127e+10
-3.7263e+10
-3.6789e+10
-3.62238e+10
-3.56481e+10
-3.51284e+10
-3.46937e+10
-3.43471e+10
-3.40768e+10
-3.38646e+10
-3.36926e+10
-3.35495e+10
-3.34294e+10
-3.3331e+10
-3.3257e+10
-3.32101e+10
-3.31916e+10
-3.31973e+10
-3.32156e+10
-3.32272e+10
-3.32073e+10
-3.31313e+10
-3.29853e+10
-3.27821e+10
-3.25755e+10
-3.24484e+10
-3.24295e+10
-3.23354e+10
-3.17947e+10
-3.11229e+10
-3.30975e+10
-4.17581e+10
-5.02345e+10
-2.66839e+10
-3.80433e+10
-3.79857e+10
-3.79438e+10
-3.79535e+10
-3.80222e+10
-3.80556e+10
-3.80818e+10
-3.81434e+10
-3.82248e+10
-3.83051e+10
-3.83901e+10
-3.84759e+10
-3.85566e+10
-3.86253e+10
-3.86722e+10
-3.86852e+10
-3.86523e+10
-3.85649e+10
-3.84259e+10
-3.82451e+10
-3.80111e+10
-3.76505e+10
-3.7072e+10
-3.63073e+10
-3.55269e+10
-3.48683e+10
-3.43677e+10
-3.40136e+10
-3.37699e+10
-3.36002e+10
-3.34769e+10
-3.33829e+10
-3.33098e+10
-3.32561e+10
-3.32252e+10
-3.32209e+10
-3.32446e+10
-3.32924e+10
-3.33521e+10
-3.3404e+10
-3.34224e+10
-3.33827e+10
-3.3272e+10
-3.31053e+10
-3.29393e+10
-3.28585e+10
-3.28872e+10
-3.2831e+10
-3.23309e+10
-3.18198e+10
-3.42517e+10
-4.32128e+10
-5.10556e+10
-2.69809e+10
-3.80437e+10
-3.79638e+10
-3.79238e+10
-3.79476e+10
-3.80056e+10
-3.80601e+10
-3.80973e+10
-3.81493e+10
-3.8217e+10
-3.82959e+10
-3.83806e+10
-3.84657e+10
-3.85455e+10
-3.86136e+10
-3.86601e+10
-3.86733e+10
-3.86415e+10
-3.85565e+10
-3.84206e+10
-3.82438e+10
-3.8015e+10
-3.76632e+10
-3.71e+10
-3.63534e+10
-3.55882e+10
-3.4938e+10
-3.444e+10
-3.40833e+10
-3.38344e+10
-3.36588e+10
-3.35289e+10
-3.34278e+10
-3.33472e+10
-3.32856e+10
-3.32468e+10
-3.32346e+10
-3.32504e+10
-3.329e+10
-3.33416e+10
-3.33854e+10
-3.33959e+10
-3.33485e+10
-3.32308e+10
-3.30587e+10
-3.28899e+10
-3.28091e+10
-3.28381e+10
-3.27737e+10
-3.22337e+10
-3.1576e+10
-3.36506e+10
-4.25366e+10
-5.19365e+10
-3.0754e+10
-3.79254e+10
-3.78847e+10
-3.78081e+10
-3.77935e+10
-3.78416e+10
-3.78986e+10
-3.79631e+10
-3.80456e+10
-3.81451e+10
-3.82584e+10
-3.83829e+10
-3.85136e+10
-3.86445e+10
-3.87672e+10
-3.88702e+10
-3.89402e+10
-3.89632e+10
-3.8926e+10
-3.88269e+10
-3.86876e+10
-3.85218e+10
-3.82317e+10
-3.75905e+10
-3.65544e+10
-3.54513e+10
-3.46078e+10
-3.40402e+10
-3.36888e+10
-3.34793e+10
-3.33534e+10
-3.32725e+10
-3.32138e+10
-3.31679e+10
-3.31345e+10
-3.31186e+10
-3.31253e+10
-3.31569e+10
-3.32096e+10
-3.32711e+10
-3.33208e+10
-3.33312e+10
-3.32765e+10
-3.31433e+10
-3.29469e+10
-3.27433e+10
-3.26121e+10
-3.25605e+10
-3.23672e+10
-3.16629e+10
-3.08975e+10
-3.31032e+10
-4.2582e+10
-5.32674e+10
-3.21111e+10
-3.79004e+10
-3.78361e+10
-3.77823e+10
-3.77829e+10
-3.78493e+10
-3.79121e+10
-3.79617e+10
-3.8041e+10
-3.81402e+10
-3.82527e+10
-3.83763e+10
-3.85066e+10
-3.8637e+10
-3.87591e+10
-3.88616e+10
-3.89315e+10
-3.89546e+10
-3.89177e+10
-3.88196e+10
-3.86825e+10
-3.85191e+10
-3.82297e+10
-3.75896e+10
-3.65592e+10
-3.54626e+10
-3.46245e+10
-3.40628e+10
-3.37189e+10
-3.35193e+10
-3.34043e+10
-3.33342e+10
-3.32857e+10
-3.32491e+10
-3.32238e+10
-3.32146e+10
-3.32264e+10
-3.32611e+10
-3.33141e+10
-3.33724e+10
-3.34137e+10
-3.34091e+10
-3.33304e+10
-3.31616e+10
-3.29149e+10
-3.26425e+10
-3.24195e+10
-3.22469e+10
-3.18929e+10
-3.09633e+10
-2.98088e+10
-3.12666e+10
-4.01597e+10
-5.34566e+10
-3.8733e+10
-3.78322e+10
-3.77927e+10
-3.77619e+10
-3.7773e+10
-3.78145e+10
-3.78804e+10
-3.79677e+10
-3.80745e+10
-3.82012e+10
-3.83472e+10
-3.85102e+10
-3.86869e+10
-3.8871e+10
-3.90519e+10
-3.92148e+10
-3.93428e+10
-3.9419e+10
-3.94255e+10
-3.93513e+10
-3.92276e+10
-3.91251e+10
-3.89725e+10
-3.83232e+10
-3.67997e+10
-3.50639e+10
-3.40002e+10
-3.34596e+10
-3.3202e+10
-3.31089e+10
-3.30881e+10
-3.3091e+10
-3.30943e+10
-3.30927e+10
-3.30906e+10
-3.30964e+10
-3.31182e+10
-3.31607e+10
-3.32214e+10
-3.32894e+10
-3.33441e+10
-3.33582e+10
-3.33047e+10
-3.31682e+10
-3.29598e+10
-3.27288e+10
-3.25431e+10
-3.23914e+10
-3.20394e+10
-3.11503e+10
-3.02631e+10
-3.23762e+10
-4.15387e+10
-5.27937e+10
-3.63209e+10
-3.77901e+10
-3.77612e+10
-3.77597e+10
-3.77841e+10
-3.78307e+10
-3.78844e+10
-3.79633e+10
-3.80685e+10
-3.81948e+10
-3.83398e+10
-3.8501e+10
-3.86755e+10
-3.8857e+10
-3.90352e+10
-3.91952e+10
-3.93198e+10
-3.93914e+10
-3.93929e+10
-3.93164e+10
-3.91943e+10
-3.9094e+10
-3.8943e+10
-3.83157e+10
-3.68423e+10
-3.51605e+10
-3.40919e+10
-3.35229e+10
-3.32428e+10
-3.31368e+10
-3.31111e+10
-3.31144e+10
-3.31215e+10
-3.31259e+10
-3.31311e+10
-3.31453e+10
-3.31763e+10
-3.32284e+10
-3.32996e+10
-3.33786e+10
-3.34449e+10
-3.34712e+10
-3.34303e+10
-3.33067e+10
-3.31116e+10
-3.28942e+10
-3.27211e+10
-3.25788e+10
-3.22273e+10
-3.13114e+10
-3.03165e+10
-3.21922e+10
-4.1265e+10
-5.23617e+10
-3.33229e+10
-3.76237e+10
-3.75578e+10
-3.75844e+10
-3.76133e+10
-3.76494e+10
-3.77048e+10
-3.77916e+10
-3.79085e+10
-3.80542e+10
-3.82281e+10
-3.84298e+10
-3.86591e+10
-3.89127e+10
-3.91797e+10
-3.94374e+10
-3.96537e+10
-3.98075e+10
-3.98884e+10
-3.9879e+10
-3.97964e+10
-3.97599e+10
-3.98814e+10
-3.95735e+10
-3.7394e+10
-3.43665e+10
-3.28822e+10
-3.23879e+10
-3.23049e+10
-3.2428e+10
-3.25827e+10
-3.27094e+10
-3.27935e+10
-3.28423e+10
-3.28694e+10
-3.28899e+10
-3.29167e+10
-3.29581e+10
-3.30154e+10
-3.30812e+10
-3.31389e+10
-3.3165e+10
-3.3136e+10
-3.30383e+10
-3.28843e+10
-3.27224e+10
-3.26158e+10
-3.25481e+10
-3.22934e+10
-3.15859e+10
-3.11794e+10
-3.42387e+10
-4.38869e+10
-5.09582e+10
-2.70978e+10
-3.75982e+10
-3.75755e+10
-3.76075e+10
-3.76405e+10
-3.76719e+10
-3.77208e+10
-3.78031e+10
-3.79157e+10
-3.80574e+10
-3.82264e+10
-3.84221e+10
-3.86442e+10
-3.88899e+10
-3.91482e+10
-3.93968e+10
-3.9607e+10
-3.97587e+10
-3.98367e+10
-3.98216e+10
-3.97305e+10
-3.97009e+10
-3.98614e+10
-3.9606e+10
-3.75358e+10
-3.46043e+10
-3.30887e+10
-3.25463e+10
-3.24291e+10
-3.25197e+10
-3.2648e+10
-3.27565e+10
-3.28289e+10
-3.28704e+10
-3.28934e+10
-3.29126e+10
-3.29406e+10
-3.29855e+10
-3.30487e+10
-3.31227e+10
-3.31914e+10
-3.32318e+10
-3.32211e+10
-3.31471e+10
-3.30234e+10
-3.28994e+10
-3.28382e+10
-3.28195e+10
-3.26031e+10
-3.18896e+10
-3.13667e+10
-3.41438e+10
-4.3304e+10
-5.01754e+10
-2.6584e+10
-3.7444e+10
-3.73951e+10
-3.74408e+10
-3.74706e+10
-3.75157e+10
-3.75824e+10
-3.7686e+10
-3.78314e+10
-3.80216e+10
-3.82569e+10
-3.85395e+10
-3.88726e+10
-3.92557e+10
-3.96739e+10
-4.00834e+10
-4.04178e+10
-4.06666e+10
-4.08656e+10
-4.09789e+10
-4.09715e+10
-4.09011e+10
-4.12085e+10
-4.20908e+10
-4.01366e+10
-3.53105e+10
-3.14523e+10
-3.12019e+10
-3.15718e+10
-3.19917e+10
-3.23094e+10
-3.2525e+10
-3.26582e+10
-3.27345e+10
-3.2776e+10
-3.28025e+10
-3.28297e+10
-3.28673e+10
-3.29174e+10
-3.29731e+10
-3.30192e+10
-3.3034e+10
-3.2996e+10
-3.28944e+10
-3.2744e+10
-3.25943e+10
-3.25098e+10
-3.24788e+10
-3.22892e+10
-3.16968e+10
-3.14062e+10
-3.42785e+10
-4.31414e+10
-5.04756e+10
-2.63399e+10
-3.74137e+10
-3.73933e+10
-3.74378e+10
-3.74672e+10
-3.75095e+10
-3.75756e+10
-3.7678e+10
-3.7822e+10
-3.80109e+10
-3.8245e+10
-3.85265e+10
-3.88586e+10
-3.92401e+10
-3.96541e+10
-4.00592e+10
-4.04029e+10
-4.06674e+10
-4.08516e+10
-4.09234e+10
-4.08619e+10
-4.08454e+10
-4.13942e+10
-4.23546e+10
-4.04561e+10
-3.56568e+10
-3.13352e+10
-3.11591e+10
-3.15817e+10
-3.20237e+10
-3.2348e+10
-3.25639e+10
-3.26955e+10
-3.27694e+10
-3.28082e+10
-3.28315e+10
-3.28546e+10
-3.28868e+10
-3.29299e+10
-3.29769e+10
-3.30121e+10
-3.30136e+10
-3.29592e+10
-3.28374e+10
-3.26617e+10
-3.24794e+10
-3.23504e+10
-3.22508e+10
-3.19383e+10
-3.1114e+10
-3.04339e+10
-3.28076e+10
-4.14822e+10
-5.02218e+10
-3.14388e+10
-3.73757e+10
-3.7385e+10
-3.73988e+10
-3.74191e+10
-3.74574e+10
-3.75259e+10
-3.76348e+10
-3.7791e+10
-3.79961e+10
-3.82487e+10
-3.85523e+10
-3.89129e+10
-3.9325e+10
-3.97689e+10
-4.01767e+10
-4.04861e+10
-4.0746e+10
-4.09659e+10
-4.10997e+10
-4.11252e+10
-4.10855e+10
-4.15168e+10
-4.29e+10
-4.40617e+10
-4.09411e+10
-2.6523e+10
-2.89974e+10
-3.06428e+10
-3.15779e+10
-3.21067e+10
-3.24254e+10
-3.26139e+10
-3.27243e+10
-3.27898e+10
-3.28349e+10
-3.28766e+10
-3.29247e+10
-3.29807e+10
-3.30366e+10
-3.30753e+10
-3.30738e+10
-3.30094e+10
-3.28704e+10
-3.26707e+10
-3.24597e+10
-3.2304e+10
-3.21989e+10
-3.19436e+10
-3.12798e+10
-3.08377e+10
-3.35176e+10
-4.27441e+10
-5.18977e+10
-3.16131e+10
-3.73724e+10
-3.73888e+10
-3.73955e+10
-3.74114e+10
-3.74455e+10
-3.7511e+10
-3.76168e+10
-3.77696e+10
-3.79714e+10
-3.82219e+10
-3.85236e+10
-3.88818e+10
-3.92932e+10
-3.97328e+10
-4.01498e+10
-4.04876e+10
-4.07446e+10
-4.09288e+10
-4.10228e+10
-4.10095e+10
-4.10421e+10
-4.18181e+10
-4.31607e+10
-4.414e+10
-4.13709e+10
-2.65481e+10
-2.89158e+10
-3.05766e+10
-3.15409e+10
-3.20873e+10
-3.24138e+10
-3.26045e+10
-3.2714e+10
-3.27765e+10
-3.28172e+10
-3.28534e+10
-3.28954e+10
-3.29444e+10
-3.29926e+10
-3.3023e+10
-3.30128e+10
-3.29395e+10
-3.27914e+10
-3.25819e+10
-3.23585e+10
-3.21836e+10
-3.20419e+10
-3.17024e+10
-3.08802e+10
-3.03926e+10
-3.3847e+10
-4.45811e+10
-5.15645e+10
-2.60137e+10
-3.73644e+10
-3.74109e+10
-3.74099e+10
-3.74316e+10
-3.7471e+10
-3.75423e+10
-3.76535e+10
-3.78115e+10
-3.80171e+10
-3.82687e+10
-3.85718e+10
-3.89347e+10
-3.93473e+10
-3.97845e+10
-4.01864e+10
-4.04972e+10
-4.07571e+10
-4.09692e+10
-4.10971e+10
-4.11411e+10
-4.1093e+10
-4.13931e+10
-4.34368e+10
-4.35807e+10
-2.1345e+10
-2.86736e+10
-3.04138e+10
-3.14127e+10
-3.19711e+10
-3.2299e+10
-3.24862e+10
-3.25909e+10
-3.26491e+10
-3.26867e+10
-3.27216e+10
-3.27637e+10
-3.28144e+10
-3.28657e+10
-3.29008e+10
-3.28971e+10
-3.28327e+10
-3.26968e+10
-3.25037e+10
-3.23046e+10
-3.21703e+10
-3.2104e+10
-3.19049e+10
-3.12668e+10
-3.06702e+10
-3.27983e+10
-4.13161e+10
-5.18314e+10
-3.60668e+10
-3.73767e+10
-3.74283e+10
-3.74217e+10
-3.74395e+10
-3.7475e+10
-3.75424e+10
-3.76487e+10
-3.78008e+10
-3.80005e+10
-3.82478e+10
-3.85464e+10
-3.89014e+10
-3.93071e+10
-3.97411e+10
-4.01547e+10
-4.04918e+10
-4.07484e+10
-4.09307e+10
-4.10184e+10
-4.10031e+10
-4.10183e+10
-4.17154e+10
-4.3487e+10
-4.36449e+10
-2.23372e+10
-2.86593e+10
-3.03585e+10
-3.13614e+10
-3.19308e+10
-3.22645e+10
-3.24532e+10
-3.25559e+10
-3.26098e+10
-3.26418e+10
-3.26705e+10
-3.27069e+10
-3.27535e+10
-3.28032e+10
-3.28404e+10
-3.28435e+10
-3.27917e+10
-3.2675e+10
-3.25079e+10
-3.23403e+10
-3.22403e+10
-3.22042e+10
-3.20179e+10
-3.13876e+10
-3.10085e+10
-3.41221e+10
-4.40029e+10
-5.15039e+10
-2.72051e+10
-3.74406e+10
-3.74572e+10
-3.74664e+10
-3.74892e+10
-3.75314e+10
-3.76022e+10
-3.77091e+10
-3.78575e+10
-3.80487e+10
-3.82827e+10
-3.85631e+10
-3.88959e+10
-3.92732e+10
-3.96707e+10
-4.00425e+10
-4.03502e+10
-4.05923e+10
-4.07823e+10
-4.09281e+10
-4.09623e+10
-4.09469e+10
-4.11822e+10
-4.20874e+10
-4.20604e+10
-3.49564e+10
-3.07203e+10
-3.07176e+10
-3.1301e+10
-3.18351e+10
-3.21986e+10
-3.24222e+10
-3.2547e+10
-3.26085e+10
-3.26341e+10
-3.26448e+10
-3.26564e+10
-3.2678e+10
-3.27105e+10
-3.27465e+10
-3.27701e+10
-3.27607e+10
-3.26986e+10
-3.25751e+10
-3.24067e+10
-3.22463e+10
-3.21678e+10
-3.21816e+10
-3.20979e+10
-3.16192e+10
-3.12712e+10
-3.3893e+10
-4.27409e+10
-4.98821e+10
-2.68509e+10
-3.74571e+10
-3.74685e+10
-3.74783e+10
-3.74993e+10
-3.75396e+10
-3.76074e+10
-3.77102e+10
-3.78527e+10
-3.80364e+10
-3.82611e+10
-3.85294e+10
-3.88447e+10
-3.92027e+10
-3.95852e+10
-3.99569e+10
-4.02829e+10
-4.05541e+10
-4.07626e+10
-4.08686e+10
-4.08364e+10
-4.08308e+10
-4.13336e+10
-4.21314e+10
-4.19407e+10
-3.52184e+10
-3.05121e+10
-3.05391e+10
-3.11792e+10
-3.17597e+10
-3.21531e+10
-3.2393e+10
-3.25256e+10
-3.25899e+10
-3.26156e+10
-3.26251e+10
-3.26351e+10
-3.26551e+10
-3.26868e+10
-3.27228e+10
-3.2748e+10
-3.27414e+10
-3.26827e+10
-3.25614e+10
-3.23908e+10
-3.22182e+10
-3.21086e+10
-3.20612e+10
-3.18713e+10
-3.12189e+10
-3.05758e+10
-3.27412e+10
-4.13645e+10
-4.9631e+10
-2.65264e+10
-3.75522e+10
-3.75319e+10
-3.75497e+10
-3.75716e+10
-3.76114e+10
-3.76723e+10
-3.77596e+10
-3.78753e+10
-3.80192e+10
-3.81899e+10
-3.83861e+10
-3.8606e+10
-3.88422e+10
-3.90801e+10
-3.92974e+10
-3.94727e+10
-3.95923e+10
-3.9647e+10
-3.96299e+10
-3.95489e+10
-3.9522e+10
-3.96529e+10
-3.94241e+10
-3.74675e+10
-3.47437e+10
-3.31767e+10
-3.25869e+10
-3.24292e+10
-3.24847e+10
-3.25742e+10
-3.26446e+10
-3.26804e+10
-3.26871e+10
-3.2676e+10
-3.26602e+10
-3.26505e+10
-3.26533e+10
-3.26681e+10
-3.26861e+10
-3.26912e+10
-3.26626e+10
-3.25807e+10
-3.24362e+10
-3.22442e+10
-3.20554e+10
-3.19408e+10
-3.19106e+10
-3.17812e+10
-3.12493e+10
-3.07593e+10
-3.30075e+10
-4.14373e+10
-4.92085e+10
-2.58403e+10
-3.75493e+10
-3.75324e+10
-3.75486e+10
-3.75704e+10
-3.76099e+10
-3.76708e+10
-3.77583e+10
-3.78744e+10
-3.8019e+10
-3.81903e+10
-3.83863e+10
-3.86045e+10
-3.88382e+10
-3.90743e+10
-3.92927e+10
-3.94744e+10
-3.96074e+10
-3.96776e+10
-3.96636e+10
-3.95774e+10
-3.95584e+10
-3.97272e+10
-3.94596e+10
-3.74504e+10
-3.46073e+10
-3.29783e+10
-3.24127e+10
-3.23024e+10
-3.23966e+10
-3.2513e+10
-3.26007e+10
-3.2648e+10
-3.26631e+10
-3.2659e+10
-3.26495e+10
-3.26463e+10
-3.26557e+10
-3.26773e+10
-3.2702e+10
-3.27132e+10
-3.2689e+10
-3.26074e+10
-3.24555e+10
-3.2242e+10
-3.20083e+10
-3.18114e+10
-3.16439e+10
-3.12988e+10
-3.04198e+10
-2.92776e+10
-3.03176e+10
-3.78607e+10
-4.83065e+10
-2.87149e+10
-3.76265e+10
-3.76132e+10
-3.7631e+10
-3.76567e+10
-3.76994e+10
-3.77607e+10
-3.78438e+10
-3.79495e+10
-3.8077e+10
-3.82239e+10
-3.83868e+10
-3.85598e+10
-3.87335e+10
-3.8895e+10
-3.90297e+10
-3.91239e+10
-3.91657e+10
-3.9142e+10
-3.90416e+10
-3.8887e+10
-3.87433e+10
-3.85573e+10
-3.79392e+10
-3.65656e+10
-3.5009e+10
-3.39739e+10
-3.3381e+10
-3.30627e+10
-3.29229e+10
-3.2865e+10
-3.28356e+10
-3.28071e+10
-3.27717e+10
-3.2732e+10
-3.26957e+10
-3.26703e+10
-3.26602e+10
-3.26635e+10
-3.26708e+10
-3.26653e+10
-3.26264e+10
-3.25346e+10
-3.23812e+10
-3.21808e+10
-3.19824e+10
-3.18553e+10
-3.18103e+10
-3.16704e+10
-3.114e+10
-3.06249e+10
-3.26354e+10
-4.04967e+10
-4.85071e+10
-2.60952e+10
-3.76191e+10
-3.76091e+10
-3.76261e+10
-3.76525e+10
-3.76963e+10
-3.77592e+10
-3.78449e+10
-3.79542e+10
-3.80865e+10
-3.82393e+10
-3.8409e+10
-3.85895e+10
-3.87713e+10
-3.89417e+10
-3.90855e+10
-3.91883e+10
-3.92367e+10
-3.92147e+10
-3.91127e+10
-3.89588e+10
-3.88187e+10
-3.86249e+10
-3.79754e+10
-3.65443e+10
-3.493e+10
-3.38669e+10
-3.32799e+10
-3.29784e+10
-3.28535e+10
-3.2807e+10
-3.27857e+10
-3.27639e+10
-3.27352e+10
-3.27031e+10
-3.26753e+10
-3.26595e+10
-3.26597e+10
-3.26736e+10
-3.26913e+10
-3.26952e+10
-3.26631e+10
-3.2574e+10
-3.24163e+10
-3.22007e+10
-3.19689e+10
-3.17788e+10
-3.16255e+10
-3.1306e+10
-3.0453e+10
-2.92749e+10
-3.01047e+10
-3.72462e+10
-4.77522e+10
-2.92502e+10
-3.76551e+10
-3.76505e+10
-3.76615e+10
-3.76832e+10
-3.77195e+10
-3.77717e+10
-3.78417e+10
-3.79299e+10
-3.80353e+10
-3.81559e+10
-3.82884e+10
-3.84269e+10
-3.85625e+10
-3.86849e+10
-3.87824e+10
-3.88434e+10
-3.88561e+10
-3.88087e+10
-3.8696e+10
-3.85321e+10
-3.83248e+10
-3.79833e+10
-3.73067e+10
-3.62711e+10
-3.5196e+10
-3.43751e+10
-3.38235e+10
-3.34794e+10
-3.32744e+10
-3.31485e+10
-3.30613e+10
-3.29887e+10
-3.29216e+10
-3.28599e+10
-3.28089e+10
-3.27746e+10
-3.27603e+10
-3.27634e+10
-3.27738e+10
-3.2775e+10
-3.27472e+10
-3.26729e+10
-3.2546e+10
-3.23842e+10
-3.22396e+10
-3.21849e+10
-3.2234e+10
-3.22106e+10
-3.18238e+10
-3.15139e+10
-3.38992e+10
-4.22539e+10
-5.00142e+10
-2.76609e+10
-3.76587e+10
-3.765e+10
-3.76632e+10
-3.76856e+10
-3.77231e+10
-3.77769e+10
-3.7849e+10
-3.79399e+10
-3.80488e+10
-3.81736e+10
-3.83108e+10
-3.84546e+10
-3.85962e+10
-3.8725e+10
-3.8829e+10
-3.88959e+10
-3.89132e+10
-3.8868e+10
-3.87554e+10
-3.85911e+10
-3.83823e+10
-3.80299e+10
-3.73244e+10
-3.62532e+10
-3.51485e+10
-3.43182e+10
-3.3771e+10
-3.3435e+10
-3.32369e+10
-3.31161e+10
-3.30324e+10
-3.29627e+10
-3.28984e+10
-3.28396e+10
-3.27915e+10
-3.27599e+10
-3.27477e+10
-3.27513e+10
-3.27601e+10
-3.27564e+10
-3.27192e+10
-3.26299e+10
-3.24812e+10
-3.22894e+10
-3.21036e+10
-3.19918e+10
-3.19607e+10
-3.18185e+10
-3.12292e+10
-3.05756e+10
-3.26592e+10
-4.1548e+10
-5.03657e+10
-2.65324e+10
-3.7707e+10
-3.77036e+10
-3.77123e+10
-3.77308e+10
-3.77615e+10
-3.78047e+10
-3.78614e+10
-3.7931e+10
-3.80122e+10
-3.81027e+10
-3.81994e+10
-3.82971e+10
-3.83887e+10
-3.84658e+10
-3.85199e+10
-3.85411e+10
-3.85186e+10
-3.84433e+10
-3.83142e+10
-3.81378e+10
-3.79001e+10
-3.75296e+10
-3.69417e+10
-3.61711e+10
-3.53837e+10
-3.4719e+10
-3.42124e+10
-3.38488e+10
-3.35916e+10
-3.34034e+10
-3.32558e+10
-3.31309e+10
-3.30211e+10
-3.29259e+10
-3.28494e+10
-3.2796e+10
-3.27669e+10
-3.27574e+10
-3.27561e+10
-3.27449e+10
-3.2703e+10
-3.26122e+10
-3.24663e+10
-3.22834e+10
-3.21168e+10
-3.20387e+10
-3.20565e+10
-3.19741e+10
-3.14725e+10
-3.09843e+10
-3.32136e+10
-4.20767e+10
-5.26766e+10
-3.50591e+10
-3.77101e+10
-3.76971e+10
-3.77102e+10
-3.77291e+10
-3.77608e+10
-3.78049e+10
-3.78625e+10
-3.79333e+10
-3.80158e+10
-3.81078e+10
-3.82059e+10
-3.83051e+10
-3.83986e+10
-3.84781e+10
-3.85346e+10
-3.85578e+10
-3.85368e+10
-3.84626e+10
-3.83345e+10
-3.81597e+10
-3.79239e+10
-3.75527e+10
-3.69624e+10
-3.61873e+10
-3.54007e+10
-3.47397e+10
-3.42379e+10
-3.38783e+10
-3.36236e+10
-3.34371e+10
-3.32911e+10
-3.31681e+10
-3.30605e+10
-3.29679e+10
-3.28936e+10
-3.28415e+10
-3.28123e+10
-3.28005e+10
-3.27936e+10
-3.27724e+10
-3.27151e+10
-3.26031e+10
-3.24297e+10
-3.22127e+10
-3.20051e+10
-3.18795e+10
-3.18436e+10
-3.16959e+10