/*--------------------------------*- C++ -*----------------------------------*\
| =========                 |                                                 |
| \\      /  F ield         | OpenFOAM: The Open Source CFD Toolbox           |
|  \\    /   O peration     | Version:  4.1                                   |
|   \\  /    A nd           | Web:      www.OpenFOAM.org                      |
|    \\/     M anipulation  |                                                 |
\*---------------------------------------------------------------------------*/
FoamFile
{
    version     2.0;
    format      ascii;
    class       surfaceScalarField;
    location    "51";
    object      phi;
}
// * * * * * * * * * * * * * * * * * * * * * * * * * * * * * * * * * * * * * //

dimensions      [0 3 -1 0 0 0 0];

internalField   nonuniform List<scalar> 
11516
(
-4.49323e+10
-1.9393e+08
-2.33601e+07
-4.47148e+10
-1.95905e+08
-7.32003e+07
-4.4596e+10
-1.92187e+08
2.89949e+07
-4.42541e+10
-2.71908e+08
-1.07363e+08
-4.40858e+10
-1.75122e+08
-2.49157e+07
-4.3966e+10
-1.7748e+08
3.08788e+07
-4.38275e+10
-1.90227e+08
2.81422e+07
-4.37233e+10
-1.82201e+08
5.65425e+07
-4.36318e+10
-1.79183e+08
6.73689e+07
-4.355e+10
-1.75142e+08
7.38057e+07
-4.34725e+10
-1.71344e+08
7.44159e+07
-4.33921e+10
-1.6891e+08
6.83204e+07
-4.32986e+10
-1.68829e+08
5.23502e+07
-4.31847e+10
-1.70271e+08
3.0035e+07
-4.30408e+10
-1.71855e+08
-1.03755e+06
-4.28596e+10
-1.73455e+08
-3.80159e+07
-4.26358e+10
-1.75247e+08
-7.80942e+07
-4.23634e+10
-1.77841e+08
-1.23749e+08
-4.20388e+10
-1.81081e+08
-1.71257e+08
-4.16561e+10
-1.84406e+08
-2.21596e+08
-4.12126e+10
-1.88091e+08
-2.73231e+08
-4.07146e+10
-1.92067e+08
-3.19387e+08
-4.01682e+10
-1.96912e+08
-3.63055e+08
-3.95868e+10
-2.02228e+08
-3.95076e+08
-3.89785e+10
-2.07804e+08
-4.19791e+08
-3.83584e+10
-2.1341e+08
-4.29646e+08
-3.77357e+10
-2.18973e+08
-4.30478e+08
-3.71262e+10
-2.24531e+08
-4.16269e+08
-3.65394e+10
-2.30138e+08
-3.931e+08
-3.59869e+10
-2.35988e+08
-3.59229e+08
-3.54784e+10
-2.42261e+08
-3.15938e+08
-3.50195e+10
-2.49382e+08
-2.66854e+08
-3.46188e+10
-2.57695e+08
-2.07928e+08
-3.42803e+10
-2.67502e+08
-1.43257e+08
-3.40063e+10
-2.79136e+08
-7.30318e+07
-3.37977e+10
-2.92957e+08
2.12942e+06
-3.365e+10
-3.10155e+08
7.91837e+07
-3.35615e+10
-3.32101e+08
1.62865e+08
-3.35264e+10
-3.60026e+08
2.51628e+08
-3.35388e+10
-3.9599e+08
3.48595e+08
-3.35939e+10
-4.41388e+08
4.57305e+08
-3.36886e+10
-4.96749e+08
5.81542e+08
-3.38229e+10
-5.64346e+08
7.28032e+08
-3.40045e+10
-6.45953e+08
9.04035e+08
-3.42582e+10
-7.42869e+08
1.12275e+09
-3.46406e+10
-8.58114e+08
1.40217e+09
-3.52503e+10
-9.97165e+08
1.76396e+09
-3.62156e+10
-1.18932e+09
2.21544e+09
-3.76957e+10
-1.50323e+09
2.79648e+09
-3.99253e+10
-2.02067e+09
3.68539e+09
-4.41981e+10
-2.84826e+09
5.99467e+09
-5.0736e+10
-3.44977e+09
8.75873e+09
-6.14827e+10
-8.20763e+09
1.81725e+10
-3.73619e+09
1.175e+10
-5.70391e+10
-3.06771e+08
-5.68768e+10
-3.8461e+08
-5.67326e+10
-3.59691e+08
-5.66811e+10
-3.43455e+08
-5.65128e+10
-3.59795e+08
-5.63889e+10
-3.15269e+08
-5.62793e+10
-3.11934e+08
-5.61791e+10
-2.93374e+08
-5.60789e+10
-2.8979e+08
-5.59777e+10
-2.86325e+08
-5.58713e+10
-2.87636e+08
-5.5758e+10
-2.92746e+08
-5.56316e+10
-3.07114e+08
-5.54898e+10
-3.25561e+08
-5.53255e+10
-3.5072e+08
-5.51333e+10
-3.80364e+08
-5.49109e+10
-4.12055e+08
-5.46535e+10
-4.49086e+08
-5.43606e+10
-4.86581e+08
-5.40282e+10
-5.26488e+08
-5.36552e+10
-5.67253e+08
-5.32489e+10
-6.0274e+08
-5.28128e+10
-6.37101e+08
-5.23594e+10
-6.60783e+08
-5.18938e+10
-6.79865e+08
-5.1429e+10
-6.86046e+08
-5.09706e+10
-6.86759e+08
-5.05313e+10
-6.74997e+08
-5.01168e+10
-6.57925e+08
-4.97356e+10
-6.33019e+08
-4.93948e+10
-6.01598e+08
-4.90974e+10
-5.68296e+08
-4.88505e+10
-5.2898e+08
-4.86568e+10
-4.87822e+08
-4.85201e+10
-4.44101e+08
-4.84447e+10
-3.97023e+08
-4.84318e+10
-3.50586e+08
-4.84885e+10
-2.99775e+08
-4.8619e+10
-2.48188e+08
-4.88327e+10
-1.91997e+08
-4.91423e+10
-1.28844e+08
-4.95615e+10
-5.69989e+07
-5.01097e+10
2.68521e+07
-5.08169e+10
1.31222e+08
-5.17325e+10
2.69544e+08
-5.29355e+10
4.61355e+08
-5.45598e+10
7.34095e+08
-5.68111e+10
1.11361e+09
-6.01062e+10
1.69435e+09
-6.52176e+10
2.73437e+09
-7.4119e+10
5.51597e+09
-8.84745e+10
1.02755e+10
-1.15682e+11
1.85737e+10
1.23237e+10
-6.59341e+10
4.69292e+06
-7.041e+07
-6.59564e+10
-3.8683e+07
-3.71278e+07
-6.59549e+10
-4.94669e+07
5.22484e+07
-6.60194e+10
-3.04642e+07
-3.37478e+07
-6.59821e+10
-4.50679e+07
-3.42976e+07
-6.59674e+10
-3.71843e+07
3.93893e+07
-6.59703e+10
-3.61636e+07
5.50391e+07
-6.59641e+10
-3.31173e+07
7.26233e+07
-6.59571e+10
-3.37796e+07
8.41221e+07
-6.59522e+10
-3.1483e+07
9.12522e+07
-6.59435e+10
-3.08237e+07
8.8142e+07
-6.59288e+10
-3.0603e+07
7.60048e+07
-6.59086e+10
-3.14435e+07
5.43881e+07
-6.58824e+10
-3.24252e+07
2.61736e+07
-6.58525e+10
-3.32539e+07
-9.38493e+06
-6.58194e+10
-3.3782e+07
-4.84871e+07
-6.57799e+10
-3.42551e+07
-9.40574e+07
-6.57344e+10
-3.49204e+07
-1.4407e+08
-6.56803e+10
-3.59109e+07
-1.96901e+08
-6.56175e+10
-3.65087e+07
-2.51166e+08
-6.55467e+10
-3.6598e+07
-3.04668e+08
-6.54701e+10
-3.65879e+07
-3.52889e+08
-6.53943e+10
-3.64563e+07
-3.94536e+08
-6.53192e+10
-3.60238e+07
-4.26653e+08
-6.52534e+10
-3.49865e+07
-4.4398e+08
-6.5193e+10
-3.30612e+07
-4.50898e+08
-6.51439e+10
-3.0097e+07
-4.43805e+08
-6.51018e+10
-2.59601e+07
-4.27115e+08
-6.50691e+10
-2.05198e+07
-4.00534e+08
-6.50404e+10
-1.36275e+07
-3.70303e+08
-6.50134e+10
-5.25546e+06
-3.34719e+08
-6.49837e+10
4.59215e+06
-2.98718e+08
-6.49436e+10
1.58243e+07
-2.61986e+08
-6.48882e+10
2.87536e+07
-2.25019e+08
-6.48094e+10
4.35023e+07
-1.91398e+08
-6.47055e+10
6.07283e+07
-1.55344e+08
-6.45753e+10
8.03187e+07
-1.19127e+08
-6.44098e+10
1.01497e+08
-8.40117e+07
-6.41999e+10
1.23596e+08
-5.11877e+07
-6.39329e+10
1.46308e+08
-1.93743e+07
-6.35903e+10
1.69626e+08
8.77023e+06
-6.31532e+10
1.93592e+08
3.83388e+07
-6.2596e+10
2.17349e+08
6.9775e+07
-6.18916e+10
2.4051e+08
1.09864e+08
-6.101e+10
2.62797e+08
1.66422e+08
-5.9919e+10
2.83357e+08
2.51006e+08
-5.85753e+10
2.96646e+08
3.68412e+08
-5.69592e+10
2.94716e+08
5.39023e+08
-5.51528e+10
2.91328e+08
8.71839e+08
-5.33922e+10
2.81097e+08
1.69574e+09
-5.04144e+10
1.32771e+08
2.83367e+09
-4.67257e+10
4.0135e+08
4.53379e+09
-2.10656e+10
-4.86475e+09
-2.72551e+09
-4.10568e+09
-5.49568e+09
-7.15066e+10
-3.28747e+08
-7.15883e+10
-3.57448e+08
-7.16776e+10
-3.34072e+08
-7.17703e+10
-2.93125e+08
-7.18528e+10
-3.32138e+08
-7.19254e+10
-2.88206e+08
-7.20115e+10
-2.69323e+08
-7.20845e+10
-2.60046e+08
-7.21581e+10
-2.55965e+08
-7.22301e+10
-2.51187e+08
-7.22986e+10
-2.54903e+08
-7.23606e+10
-2.66307e+08
-7.24186e+10
-2.86019e+08
-7.24712e+10
-3.11533e+08
-7.25171e+10
-3.44704e+08
-7.25558e+10
-3.81813e+08
-7.25831e+10
-4.24995e+08
-7.26002e+10
-4.72185e+08
-7.26048e+10
-5.21412e+08
-7.2596e+10
-5.72021e+08
-7.25748e+10
-6.21944e+08
-7.25416e+10
-6.67143e+08
-7.25025e+10
-7.06434e+08
-7.24557e+10
-7.37522e+08
-7.24101e+10
-7.54681e+08
-7.23605e+10
-7.6301e+08
-7.23133e+10
-7.58353e+08
-7.22634e+10
-7.4512e+08
-7.22139e+10
-7.22408e+08
-7.21587e+10
-6.96467e+08
-7.20957e+10
-6.64795e+08
-7.20213e+10
-6.33138e+08
-7.19277e+10
-6.016e+08
-7.18112e+10
-5.69704e+08
-7.16637e+10
-5.40689e+08
-7.14778e+10
-5.1219e+08
-7.12467e+10
-4.87349e+08
-7.09601e+10
-4.65167e+08
-7.06097e+10
-4.47547e+08
-7.01841e+10
-4.33628e+08
-6.96666e+10
-4.25931e+08
-6.90441e+10
-4.18743e+08
-6.8299e+10
-4.13367e+08
-6.7412e+10
-4.03872e+08
-6.63582e+10
-3.84132e+08
-6.51099e+10
-3.42439e+08
-6.36356e+10
-2.6869e+08
-6.19298e+10
-1.35845e+08
-5.99602e+10
1.27437e+08
-5.77154e+10
8.09799e+08
-5.37805e+10
1.66602e+09
-4.44865e+10
1.33733e+09
-2.71832e+10
-3.40444e+09
-7.17528e+09
-5.36889e+10
6.75672e+07
-6.10491e+08
-5.34652e+10
1.2116e+08
-3.96612e+08
-5.32217e+10
9.1636e+07
-2.96885e+08
-5.32235e+10
1.25621e+08
-1.70464e+08
-5.31474e+10
8.16812e+07
-2.03742e+08
-5.30768e+10
9.58257e+07
-1.3767e+08
-5.30566e+10
1.00958e+08
-7.52505e+07
-5.30444e+10
1.01758e+08
-4.90525e+07
-5.3027e+10
9.7385e+07
-3.68749e+07
-5.30029e+10
9.72864e+07
-3.49699e+07
-5.29725e+10
9.67242e+07
-4.25678e+07
-5.29381e+10
9.72985e+07
-5.84337e+07
-5.28983e+10
9.76371e+07
-8.59175e+07
-5.28486e+10
9.79582e+07
-1.25211e+08
-5.27864e+10
9.867e+07
-1.74582e+08
-5.27024e+10
9.89828e+07
-2.35288e+08
-5.25949e+10
9.98071e+07
-3.04831e+08
-5.24614e+10
1.00818e+08
-3.8039e+08
-5.22953e+10
1.02371e+08
-4.63966e+08
-5.20943e+10
1.04818e+08
-5.49922e+08
-5.18581e+10
1.08304e+08
-6.33523e+08
-5.15887e+10
1.11985e+08
-7.14099e+08
-5.12947e+10
1.1619e+08
-7.81092e+08
-5.09862e+10
1.20664e+08
-8.31635e+08
-5.06699e+10
1.25889e+08
-8.60832e+08
-5.03582e+10
1.31952e+08
-8.67665e+08
-5.00597e+10
1.38886e+08
-8.52235e+08
-4.97829e+10
1.46594e+08
-8.19292e+08
-4.95338e+10
1.54924e+08
-7.71089e+08
-4.93205e+10
1.63738e+08
-7.11744e+08
-4.9143e+10
1.73049e+08
-6.47204e+08
-4.90069e+10
1.83014e+08
-5.77021e+08
-4.89101e+10
1.93431e+08
-5.07827e+08
-4.88505e+10
2.03707e+08
-4.38945e+08
-4.88284e+10
2.12886e+08
-3.70266e+08
-4.88292e+10
2.19382e+08
-3.08432e+08
-4.88401e+10
2.22879e+08
-2.53135e+08
-4.88506e+10
2.23801e+08
-2.0285e+08
-4.88484e+10
2.20974e+08
-1.58956e+08
-4.88173e+10
2.14051e+08
-1.22567e+08
-4.87475e+10
2.02499e+08
-8.87747e+07
-4.86179e+10
1.84661e+08
-6.03893e+07
-4.84107e+10
1.59977e+08
-3.18255e+07
-4.80949e+10
1.26445e+08
-5.64409e+06
-4.76297e+10
7.89229e+07
1.9794e+07
-4.69722e+10
1.15086e+07
5.24899e+07
-4.61123e+10
-8.46969e+07
1.22128e+08
-4.50944e+10
-2.1318e+08
2.85951e+08
-4.39008e+10
-3.95959e+08
5.92414e+08
-4.21935e+10
-5.34662e+08
1.00427e+09
-4.08082e+10
-7.33027e+08
2.66362e+09
-4.15848e+10
-1.58976e+09
7.54357e+09
-5.32655e+10
-9.36181e+09
1.91183e+10
-6.81443e+09
8.83804e+09
-5.97636e+10
-5.8224e+08
-5.9595e+10
-4.11323e+08
-5.95046e+10
-3.3968e+08
-5.94436e+10
-2.35273e+08
-5.94742e+10
-2.26371e+08
-5.94952e+10
-1.77185e+08
-5.95459e+10
-1.22533e+08
-5.96029e+10
-1.0493e+08
-5.96709e+10
-9.32021e+07
-5.97354e+10
-9.10371e+07
-5.97988e+10
-9.55871e+07
-5.98586e+10
-1.09671e+08
-5.99118e+10
-1.35848e+08
-5.99531e+10
-1.73327e+08
-5.9982e+10
-2.18356e+08
-5.99928e+10
-2.73092e+08
-5.9983e+10
-3.35633e+08
-5.99513e+10
-4.02801e+08
-5.98907e+10
-4.76756e+08
-5.97993e+10
-5.51464e+08
-5.96784e+10
-6.23268e+08
-5.95272e+10
-6.91257e+08
-5.93548e+10
-7.45777e+08
-5.91689e+10
-7.84489e+08
-5.89748e+10
-8.03125e+08
-5.8783e+10
-8.01078e+08
-5.86002e+10
-7.78483e+08
-5.84324e+10
-7.40297e+08
-5.82835e+10
-6.88218e+08
-5.816e+10
-6.25968e+08
-5.80598e+10
-5.59361e+08
-5.79878e+10
-4.86892e+08
-5.79417e+10
-4.15845e+08
-5.792e+10
-3.45225e+08
-5.79265e+10
-2.73435e+08
-5.79587e+10
-2.05799e+08
-5.8019e+10
-1.40285e+08
-5.81092e+10
-7.5776e+07
-5.82318e+10
-1.38789e+07
-5.83863e+10
4.28619e+07
-5.85803e+10
1.00696e+08
-5.88136e+10
1.56591e+08
-5.90909e+10
2.148e+08
-5.94101e+10
2.73002e+08
-5.97754e+10
3.37898e+08
-6.02008e+10
4.20596e+08
-6.07396e+10
5.49111e+08
-6.14812e+10
7.73944e+08
-6.25857e+10
1.22084e+09
-6.41447e+10
2.22908e+09
-6.80614e+10
5.38014e+09
-7.76536e+10
1.01769e+10
-1.07718e+11
1.81769e+10
7.8172e+09
-5.72852e+10
-1.66921e+08
-6.44796e+08
-5.72479e+10
-1.31845e+08
-3.0133e+08
-5.71416e+10
-1.24716e+08
-2.80966e+08
-5.70809e+10
-1.3631e+08
-9.97635e+07
-5.70873e+10
-1.45191e+08
-5.82649e+07
-5.70838e+10
-1.34988e+08
-1.15679e+07
-5.70811e+10
-1.20166e+08
3.85257e+07
-5.70928e+10
-1.16311e+08
7.74269e+07
-5.71161e+10
-1.17427e+08
1.04478e+08
-5.7147e+10
-1.17784e+08
1.1601e+08
-5.71787e+10
-1.1946e+08
1.12387e+08
-5.72088e+10
-1.20718e+08
9.71098e+07
-5.72349e+10
-1.22288e+08
6.76874e+07
-5.72567e+10
-1.24127e+08
2.51898e+07
-5.72682e+10
-1.26179e+08
-3.27067e+07
-5.72707e+10
-1.28503e+08
-1.00619e+08
-5.72628e+10
-1.30826e+08
-1.78176e+08
-5.72402e+10
-1.33387e+08
-2.64996e+08
-5.7204e+10
-1.35689e+08
-3.57608e+08
-5.71484e+10
-1.36858e+08
-4.54108e+08
-5.70748e+10
-1.37286e+08
-5.48329e+08
-5.69862e+10
-1.36467e+08
-6.3654e+08
-5.68892e+10
-1.34655e+08
-7.08544e+08
-5.67919e+10
-1.31436e+08
-7.58117e+08
-5.66999e+10
-1.26492e+08
-7.81845e+08
-5.66209e+10
-1.1984e+08
-7.76745e+08
-5.65581e+10
-1.11711e+08
-7.4712e+08
-5.65138e+10
-1.02642e+08
-6.98848e+08
-5.64877e+10
-9.32398e+07
-6.35713e+08
-5.64753e+10
-8.40627e+07
-5.658e+08
-5.64753e+10
-7.51928e+07
-4.91164e+08
-5.64815e+10
-6.64293e+07
-4.16519e+08
-5.64916e+10
-5.80734e+07
-3.43633e+08
-5.64993e+10
-5.04767e+07
-2.75261e+08
-5.64966e+10
-4.3619e+07
-2.11948e+08
-5.64827e+10
-3.9356e+07
-1.51508e+08
-5.64523e+10
-3.72328e+07
-9.71202e+07
-5.64011e+10
-3.63564e+07
-4.73316e+07
-5.63258e+10
-3.70912e+07
-900580
-5.62186e+10
-4.10913e+07
3.76071e+07
-5.60653e+10
-4.88418e+07
6.88587e+07
-5.58516e+10
-6.10106e+07
9.04403e+07
-5.55531e+10
-7.83158e+07
1.01125e+08
-5.51479e+10
-1.01874e+08
1.02224e+08
-5.46067e+10
-1.32691e+08
8.91064e+07
-5.38971e+10
-1.75181e+08
6.49924e+07
-5.2972e+10
-2.41603e+08
4.83804e+07
-5.17503e+10
-3.3873e+08
5.92173e+07
-5.00846e+10
-4.04677e+08
4.18484e+07
-4.7993e+10
-2.106e+08
-8.31795e+07
-4.49079e+10
2.02928e+08
3.30797e+08
-3.9536e+10
-8.93127e+08
4.15599e+09
-2.09487e+10
-1.2066e+10
1.3597e+10
-6.58456e+09
4.54861e+09
-6.40535e+10
-8.7208e+08
-6.40517e+10
-5.45634e+08
-6.40588e+10
-4.59323e+08
-6.40653e+10
-3.68353e+08
-6.4121e+10
-3.19468e+08
-6.41715e+10
-2.64842e+08
-6.42033e+10
-2.13008e+08
-6.42471e+10
-1.78364e+08
-6.43044e+10
-1.5314e+08
-6.43681e+10
-1.43945e+08
-6.4436e+10
-1.45165e+08
-6.45054e+10
-1.58476e+08
-6.45761e+10
-1.84979e+08
-6.46479e+10
-2.23559e+08
-6.47143e+10
-2.76446e+08
-6.47775e+10
-3.37072e+08
-6.48369e+10
-4.06131e+08
-6.48883e+10
-4.8337e+08
-6.49325e+10
-5.64552e+08
-6.49649e+10
-6.48588e+08
-6.49846e+10
-7.28559e+08
-6.49943e+10
-8.01436e+08
-6.49973e+10
-8.57526e+08
-6.49995e+10
-8.90726e+08
-6.5004e+10
-8.98802e+08
-6.50165e+10
-8.78369e+08
-6.50386e+10
-8.34345e+08
-6.50714e+10
-7.72849e+08
-6.51146e+10
-6.97486e+08
-6.51637e+10
-6.16581e+08
-6.52183e+10
-5.31873e+08
-6.5271e+10
-4.48301e+08
-6.53206e+10
-3.67196e+08
-6.53624e+10
-2.90954e+08
-6.53892e+10
-2.20232e+08
-6.54027e+10
-1.52798e+08
-6.5398e+10
-9.25079e+07
-6.53709e+10
-3.61604e+07
-6.53205e+10
1.76948e+07
-6.52463e+10
6.60536e+07
-6.51432e+10
1.10172e+08
-6.50046e+10
1.46269e+08
-6.48173e+10
1.72122e+08
-6.4571e+10
1.88591e+08
-6.42444e+10
1.89747e+08
-6.38167e+10
1.78757e+08
-6.3267e+10
1.65766e+08
-6.25411e+10
1.62586e+08
-6.13764e+10
1.56824e+08
-5.91607e+10
4.35716e+08
-5.46049e+10
1.84921e+09
-4.90536e+10
4.74835e+09
-5.46315e+10
1.23515e+10
4.28453e+09
-5.50119e+10
-1.63286e+07
-7.6451e+08
-5.48454e+10
-5.18728e+07
-4.15491e+08
-5.47619e+10
-6.26131e+07
-3.03352e+08
-5.46298e+10
-6.57114e+07
-1.70586e+08
-5.45651e+10
-6.1896e+07
-6.71116e+07
-5.45315e+10
-5.33337e+07
1.8489e+06
-5.4511e+10
-4.6741e+07
5.92404e+07
-5.45e+10
-4.48489e+07
1.07067e+08
-5.44956e+10
-4.41919e+07
1.41527e+08
-5.44941e+10
-4.4746e+07
1.58063e+08
-5.44939e+10
-4.7645e+07
1.59874e+08
-5.44908e+10
-5.19115e+07
1.46838e+08
-5.44826e+10
-5.6965e+07
1.17096e+08
-5.44594e+10
-6.37337e+07
6.52271e+07
-5.44175e+10
-7.21901e+07
-5.08738e+06
-5.4351e+10
-8.27588e+07
-8.96745e+07
-5.42529e+10
-9.52494e+07
-1.88722e+08
-5.41193e+10
-1.09678e+08
-2.98997e+08
-5.39447e+10
-1.2534e+08
-4.15954e+08
-5.37244e+10
-1.4195e+08
-5.3731e+08
-5.34561e+10
-1.59214e+08
-6.56465e+08
-5.31411e+10
-1.76364e+08
-7.66254e+08
-5.27903e+10
-1.93296e+08
-8.5239e+08
-5.24178e+10
-2.08294e+08
-9.02309e+08
-5.20455e+10
-2.20611e+08
-9.0818e+08
-5.16923e+10
-2.2909e+08
-8.69133e+08
-5.13777e+10
-2.33513e+08
-7.90802e+08
-5.11157e+10
-2.33877e+08
-6.84237e+08
-5.09152e+10
-2.30579e+08
-5.57867e+08
-5.07804e+10
-2.24128e+08
-4.23574e+08
-5.0712e+10
-2.1483e+08
-2.8659e+08
-5.0708e+10
-2.0277e+08
-1.53802e+08
-5.07635e+10
-1.88386e+08
-2.91964e+07
-5.08741e+10
-1.72521e+08
8.6127e+07
-5.10317e+10
-1.55809e+08
1.89579e+08
-5.12234e+10
-1.39484e+08
2.79542e+08
-5.14376e+10
-1.24702e+08
3.56584e+08
-5.1657e+10
-1.12082e+08
4.16747e+08
-5.18675e+10
-1.01469e+08
4.6539e+08
-5.20575e+10
-9.28858e+07
5.00155e+08
-5.22127e+10
-8.83669e+07
5.22022e+08
-5.23151e+10
-9.12385e+07
5.28462e+08
-5.23371e+10
-1.03587e+08
5.12639e+08
-5.22467e+10
-1.27543e+08
4.73613e+08
-5.20059e+10
-1.64095e+08
4.00828e+08
-5.15699e+10
-2.16614e+08
2.85944e+08
-5.08745e+10
-2.99369e+08
1.3028e+08
-4.98633e+10
-4.12406e+08
-3.74837e+07
-4.87336e+10
-4.18518e+08
-1.46035e+08
-4.90016e+10
3.7089e+08
3.74508e+08
-5.07454e+10
1.3399e+09
1.2857e+09
-4.12762e+10
-3.04804e+09
-1.5428e+09
3.5643e+09
-1.71201e+10
-1.37094e+10
-6.0087e+09
-8.27646e+09
-5.77453e+10
-9.4265e+08
-5.77234e+10
-6.18952e+08
-5.77274e+10
-5.19372e+08
-5.77359e+10
-4.28758e+08
-5.77812e+10
-3.40402e+08
-5.78374e+10
-2.66585e+08
-5.78852e+10
-2.16334e+08
-5.79356e+10
-1.76544e+08
-5.79897e+10
-1.46028e+08
-5.8048e+10
-1.32442e+08
-5.81086e+10
-1.33585e+08
-5.81681e+10
-1.51978e+08
-5.8225e+10
-1.86645e+08
-5.82723e+10
-2.42898e+08
-5.8308e+10
-3.17536e+08
-5.83281e+10
-4.0675e+08
-5.83269e+10
-5.11774e+08
-5.83017e+10
-6.28885e+08
-5.82481e+10
-7.53942e+08
-5.81624e+10
-8.84628e+08
-5.80414e+10
-1.01347e+09
-5.78865e+10
-1.13422e+09
-5.77041e+10
-1.23124e+09
-5.75049e+10
-1.29288e+09
-5.73043e+10
-1.31071e+09
-5.71149e+10
-1.28407e+09
-5.69484e+10
-1.21827e+09
-5.68122e+10
-1.12411e+09
-5.67093e+10
-1.00957e+09
-5.66398e+10
-8.86471e+08
-5.66005e+10
-7.59785e+08
-5.65869e+10
-6.35795e+08
-5.65931e+10
-5.17403e+08
-5.66151e+10
-4.05601e+08
-5.66473e+10
-3.03114e+08
-5.66832e+10
-2.09278e+08
-5.67224e+10
-1.23028e+08
-5.67585e+10
-4.709e+07
-5.6787e+10
2.1719e+07
-5.68019e+10
7.99883e+07
-5.67996e+10
1.29102e+08
-5.67809e+10
1.67926e+08
-5.67418e+10
1.88027e+08
-5.66739e+10
1.85112e+08
-5.65605e+10
1.42322e+08
-5.63732e+10
4.28079e+07
-5.60698e+10
-1.37339e+08
-5.55565e+10
-4.38148e+08
-5.44633e+10
-9.84363e+08
-5.13398e+10
-1.90713e+09
-4.4181e+10
-3.4681e+09
-3.59206e+10
-5.99787e+09
-2.61215e+10
-1.43271e+10
-7.3929e+09
-5.83883e+10
2.29158e+08
-9.57628e+08
-5.83874e+10
2.271e+08
-6.44033e+08
-5.84041e+10
2.26478e+08
-5.16713e+08
-5.84155e+10
2.35266e+08
-4.00694e+08
-5.84326e+10
2.40189e+08
-2.98861e+08
-5.84652e+10
2.4737e+08
-2.22887e+08
-5.85074e+10
2.53629e+08
-1.62563e+08
-5.85559e+10
2.59326e+08
-1.1386e+08
-5.86087e+10
2.64967e+08
-7.98773e+07
-5.86655e+10
2.69209e+08
-6.27517e+07
-5.87225e+10
2.7324e+08
-6.41422e+07
-5.87759e+10
2.76622e+08
-8.4094e+07
-5.88241e+10
2.80264e+08
-1.23857e+08
-5.88653e+10
2.82821e+08
-1.88266e+08
-5.88976e+10
2.84051e+08
-2.73338e+08
-5.89147e+10
2.83755e+08
-3.78222e+08
-5.89142e+10
2.81892e+08
-4.99365e+08
-5.88907e+10
2.78608e+08
-6.34896e+08
-5.88397e+10
2.74088e+08
-7.77916e+08
-5.87582e+10
2.6835e+08
-9.25891e+08
-5.86395e+10
2.61904e+08
-1.0726e+09
-5.8483e+10
2.54173e+08
-1.20999e+09
-5.82921e+10
2.45812e+08
-1.31676e+09
-5.80811e+10
2.37005e+08
-1.37292e+09
-5.78692e+10
2.2844e+08
-1.36559e+09
-5.76744e+10
2.2033e+08
-1.29688e+09
-5.75122e+10
2.12733e+08
-1.17539e+09
-5.73938e+10
2.05586e+08
-1.01609e+09
-5.73235e+10
1.98746e+08
-8.33952e+08
-5.73064e+10
1.92295e+08
-6.39437e+08
-5.73425e+10
1.86377e+08
-4.43227e+08
-5.74319e+10
1.81153e+08
-2.51716e+08
-5.75764e+10
1.76622e+08
-6.7326e+07
-5.77759e+10
1.73043e+08
1.07103e+08
-5.80345e+10
1.70685e+08
2.73201e+08
-5.83591e+10
1.70842e+08
4.31373e+08
-5.87618e+10
1.74342e+08
5.86415e+08
-5.92541e+10
1.79835e+08
7.36097e+08
-5.98414e+10
1.85889e+08
8.80442e+08
-6.05326e+10
1.92313e+08
1.02197e+09
-6.1342e+10
1.99619e+08
1.16579e+09
-6.22845e+10
2.07043e+08
1.31288e+09
-6.33745e+10
2.13239e+08
1.45728e+09
-6.46197e+10
2.175e+08
1.59421e+09
-6.60364e+10
2.19273e+08
1.71942e+09
-6.76296e+10
2.12937e+08
1.81261e+09
-6.93691e+10
1.77564e+08
1.84789e+09
-7.10991e+10
9.06453e+07
1.74089e+09
-7.23624e+10
-4.82545e+07
1.27435e+09
-7.14536e+10
-4.38134e+08
-6.62497e+07
-6.52223e+10
-1.81833e+09
-3.03734e+09
-5.21494e+10
-5.57647e+09
-9.05981e+09
-2.98438e+10
-1.52646e+10
-2.06677e+10
-7.5194e+09
-9.54746e+09
-5.74034e+10
-6.65165e+08
-5.74654e+10
-3.31112e+08
-5.7533e+10
-2.28268e+08
-5.7608e+10
-1.23142e+08
-5.77006e+10
-1.3705e+07
-5.78029e+10
7.6402e+07
-5.79157e+10
1.43201e+08
-5.80361e+10
1.96606e+08
-5.81588e+10
2.35394e+08
-5.82864e+10
2.58549e+08
-5.84151e+10
2.62871e+08
-5.85441e+10
2.4786e+08
-5.86684e+10
2.10942e+08
-5.87858e+10
1.48009e+08
-5.88946e+10
6.26562e+07
-5.89892e+10
-4.52008e+07
-5.90668e+10
-1.73099e+08
-5.91223e+10
-3.19442e+08
-5.91509e+10
-4.78059e+08
-5.91481e+10
-6.46088e+08
-5.91071e+10
-8.18559e+08
-5.90237e+10
-9.86955e+08
-5.88997e+10
-1.12952e+09
-5.87454e+10
-1.22583e+09
-5.85784e+10
-1.26094e+09
-5.84146e+10
-1.23608e+09
-5.82686e+10
-1.15813e+09
-5.81514e+10
-1.04162e+09
-5.80665e+10
-9.01379e+08
-5.80184e+10
-7.48124e+08
-5.80052e+10
-5.92688e+08
-5.80253e+10
-4.41165e+08
-5.80771e+10
-2.95741e+08
-5.81566e+10
-1.59754e+08
-5.82628e+10
-3.2415e+07
-5.83922e+10
8.59993e+07
-5.85434e+10
1.99542e+08
-5.87175e+10
3.06875e+08
-5.89138e+10
4.08044e+08
-5.9137e+10
5.04968e+08
-5.93905e+10
5.9847e+08
-5.96775e+10
6.8739e+08
-6.00038e+10
7.65036e+08
-6.03715e+10
8.23349e+08
-6.07929e+10
8.5341e+08
-6.12841e+10
8.30519e+08
-6.18765e+10
7.17466e+08
-6.25737e+10
4.22663e+08
-6.32672e+10
-3.00378e+08
-6.35383e+10
-2.07336e+09
-6.28843e+10
-5.93761e+09
-6.17863e+10
-1.26705e+10
-6.66053e+10
-2.48676e+10
-1.109e+10
-5.54676e+10
7.80949e+07
-9.68023e+08
-5.55163e+10
1.03688e+08
-7.03418e+08
-5.55555e+10
1.19124e+08
-6.02682e+08
-5.56133e+10
1.37571e+08
-4.88247e+08
-5.56734e+10
1.45298e+08
-3.93354e+08
-5.57426e+10
1.49529e+08
-3.13342e+08
-5.58197e+10
1.52819e+08
-2.49003e+08
-5.59043e+10
1.59548e+08
-1.99515e+08
-5.59963e+10
1.67081e+08
-1.65627e+08
-5.60942e+10
1.73782e+08
-1.48962e+08
-5.61995e+10
1.78426e+08
-1.47342e+08
-5.63037e+10
1.82484e+08
-1.72902e+08
-5.64013e+10
1.86625e+08
-2.25124e+08
-5.64903e+10
1.90018e+08
-3.05413e+08
-5.65649e+10
1.92525e+08
-4.13206e+08
-5.66192e+10
1.94051e+08
-5.47066e+08
-5.66456e+10
1.94487e+08
-7.04687e+08
-5.66391e+10
1.94317e+08
-8.79142e+08
-5.65941e+10
1.93692e+08
-1.06699e+09
-5.65046e+10
1.93285e+08
-1.26197e+09
-5.63606e+10
1.92767e+08
-1.46361e+09
-5.61563e+10
1.92417e+08
-1.65931e+09
-5.58898e+10
1.9328e+08
-1.82139e+09
-5.5584e+10
1.95453e+08
-1.91278e+09
-5.52653e+10
2.00305e+08
-1.91532e+09
-5.49633e+10
2.07246e+08
-1.83364e+09
-5.46936e+10
2.16345e+08
-1.68793e+09
-5.44631e+10
2.2673e+08
-1.50145e+09
-5.42724e+10
2.37652e+08
-1.29335e+09
-5.41137e+10
2.48378e+08
-1.08116e+09
-5.39816e+10
2.58128e+08
-8.71969e+08
-5.38678e+10
2.66139e+08
-6.7429e+08
-5.37654e+10
2.71702e+08
-4.88055e+08
-5.36699e+10
2.74114e+08
-3.13189e+08
-5.35758e+10
2.7224e+08
-1.47582e+08
-5.34797e+10
2.6649e+08
1.12039e+07
-5.33775e+10
2.58466e+08
1.65214e+08
-5.3269e+10
2.48608e+08
3.16316e+08
-5.31578e+10
2.36624e+08
4.68261e+08
-5.3044e+10
2.23136e+08
6.19534e+08
-5.29326e+10
2.08725e+08
7.7988e+08
-5.2825e+10
1.93502e+08
9.4709e+08
-5.27287e+10
1.79013e+08
1.12075e+09
-5.26552e+10
1.66978e+08
1.29947e+09
-5.26256e+10
1.59534e+08
1.48455e+09
-5.26802e+10
1.56933e+08
1.66578e+09
-5.28925e+10
1.5773e+08
1.83833e+09
-5.33667e+10
1.58e+08
1.94049e+09
-5.43333e+10
1.53876e+08
1.8367e+09
-5.58722e+10
-4.14893e+07
1.10379e+09
-5.71647e+10
-1.16382e+09
-1.33786e+09
-5.62033e+10
-3.85485e+09
-6.8906e+09
-5.01471e+10
-9.42517e+09
-1.78931e+10
-6.49533e+08
-1.53659e+10
-5.50507e+10
-4.59629e+08
-5.51358e+10
-1.44933e+08
-5.52023e+10
-4.65632e+07
-5.52664e+10
7.33805e+07
-5.53317e+10
1.90756e+08
-5.54018e+10
2.8922e+08
-5.54815e+10
3.68575e+08
-5.55682e+10
4.35561e+08
-5.56611e+10
4.87936e+08
-5.57579e+10
5.21634e+08
-5.58627e+10
5.38426e+08
-5.59696e+10
5.28863e+08
-5.60743e+10
4.92049e+08
-5.61762e+10
4.26484e+08
-5.62712e+10
3.32198e+08
-5.63571e+10
2.11328e+08
-5.64322e+10
6.74874e+07
-5.64979e+10
-9.34185e+07
-5.65523e+10
-2.67985e+08
-5.65947e+10
-4.51378e+08
-5.66195e+10
-6.43337e+08
-5.66233e+10
-8.31268e+08
-5.66067e+10
-9.89527e+08
-5.6587e+10
-1.08117e+09
-5.65835e+10
-1.09107e+09
-5.66131e+10
-1.02402e+09
-5.66801e+10
-9.00097e+08
-5.67812e+10
-7.4141e+08
-5.69099e+10
-5.66094e+08
-5.70543e+10
-3.90452e+08
-5.72075e+10
-2.20611e+08
-5.7362e+10
-6.42416e+07
-5.75138e+10
7.9756e+07
-5.76671e+10
2.15416e+08
-5.78288e+10
3.45289e+08
-5.80034e+10
4.67065e+08
-5.81883e+10
5.79184e+08
-5.8384e+10
6.83804e+08
-5.85953e+10
7.8492e+08
-5.88224e+10
8.80597e+08
-5.90738e+10
9.80326e+08
-5.93555e+10
1.08142e+09
-5.9676e+10
1.18132e+09
-6.00464e+10
1.27711e+09
-6.04861e+10
1.36741e+09
-6.10335e+10
1.43974e+09
-6.17564e+10
1.47376e+09
-6.27618e+10
1.39477e+09
-6.42568e+10
1.03701e+09
-6.69451e+10
7.34985e+07
-7.29868e+10
-1.73279e+09
-8.49021e+10
-5.36755e+09
-1.08325e+11
-1.15408e+10
1.45775e+10
-5.60376e+10
-1.6695e+08
-7.19372e+08
-5.61041e+10
-1.37768e+08
-5.04125e+08
-5.61826e+10
-1.29899e+08
-4.00587e+08
-5.62782e+10
-1.20866e+08
-2.79183e+08
-5.63853e+10
-1.20571e+08
-1.73834e+08
-5.6507e+10
-1.2388e+08
-7.67254e+07
-5.66483e+10
-1.25454e+08
8.0604e+06
-5.68066e+10
-1.22628e+08
7.1122e+07
-5.69808e+10
-1.19271e+08
1.16928e+08
-5.71688e+10
-1.16999e+08
1.44678e+08
-5.73602e+10
-1.16405e+08
1.48478e+08
-5.75525e+10
-1.15796e+08
1.22059e+08
-5.77397e+10
-1.14963e+08
6.11242e+07
-5.79137e+10
-1.1438e+08
-3.76228e+07
-5.80672e+10
-1.1392e+08
-1.7304e+08
-5.81911e+10
-1.12421e+08
-3.46349e+08
-5.82778e+10
-1.08614e+08
-5.52671e+08
-5.83184e+10
-1.02888e+08
-7.87826e+08
-5.83069e+10
-9.47595e+07
-1.0434e+09
-5.82397e+10
-8.43334e+07
-1.31207e+09
-5.81081e+10
-7.09775e+07
-1.59765e+09
-5.78927e+10
-5.33665e+07
-1.89275e+09
-5.75924e+10
-3.23774e+07
-2.15597e+09
-5.72381e+10
-8.7414e+06
-2.3152e+09
-5.68917e+10
1.47649e+07
-2.32708e+09
-5.66043e+10
3.68068e+07
-2.20667e+09
-5.64076e+10
5.66072e+07
-1.99346e+09
-5.6314e+10
7.34419e+07
-1.7282e+09
-5.63182e+10
8.72396e+07
-1.44517e+09
-5.64073e+10
9.84732e+07
-1.16914e+09
-5.65648e+10
1.07756e+08
-9.11024e+08
-5.67776e+10
1.15698e+08
-6.76367e+08
-5.70338e+10
1.23295e+08
-4.64789e+08
-5.73245e+10
1.32685e+08
-2.75469e+08
-5.76427e+10
1.45003e+08
-1.05215e+08
-5.79854e+10
1.58436e+08
5.3401e+07
-5.83479e+10
1.70696e+08
2.03463e+08
-5.87319e+10
1.81439e+08
3.52789e+08
-5.91385e+10
1.9201e+08
5.03415e+08
-5.95775e+10
2.03778e+08
6.6038e+08
-6.00521e+10
2.18312e+08
8.25476e+08
-6.05724e+10
2.36861e+08
1.00203e+09
-6.11522e+10
2.60884e+08
1.19332e+09
-6.1805e+10
2.92001e+08
1.39612e+09
-6.2556e+10
3.33312e+08
1.61695e+09
-6.34616e+10
3.90513e+08
1.85882e+09
-6.46457e+10
4.76897e+08
2.14707e+09
-6.63397e+10
5.86231e+08
2.48969e+09
-6.89281e+10
6.76409e+08
2.92569e+09
-7.33404e+10
6.81223e+08
3.5591e+09
-8.10748e+10
5.90019e+08
4.18999e+09
-9.37791e+10
-2.75999e+08
4.31692e+09
-1.13979e+11
-3.92331e+09
4.70002e+09
-2.59731e+09
-3.62e+10
-5.21899e+10
-5.83194e+08
-5.21374e+10
-3.38672e+08
-5.21111e+10
-2.06968e+08
-5.20947e+10
-6.8793e+07
-5.20876e+10
5.76736e+07
-5.20981e+10
1.69871e+08
-5.21332e+10
2.71731e+08
-5.2181e+10
3.53621e+08
-5.22374e+10
4.17557e+08
-5.23007e+10
4.59831e+08
-5.23645e+10
4.77137e+08
-5.24257e+10
4.64409e+08
-5.24782e+10
4.17312e+08
-5.25147e+10
3.32622e+08
-5.25284e+10
2.10924e+08
-5.25063e+10
5.0137e+07
-5.24348e+10
-1.45152e+08
-5.22995e+10
-3.69472e+08
-5.20916e+10
-6.1413e+08
-5.18045e+10
-8.71958e+08
-5.1425e+10
-1.14551e+09
-5.09319e+10
-1.42866e+09
-5.03207e+10
-1.67861e+09
-4.96286e+10
-1.82066e+09
-4.8928e+10
-1.811e+09
-4.82828e+10
-1.6654e+09
-4.77351e+10
-1.42737e+09
-4.73051e+10
-1.14024e+09
-4.69926e+10
-8.40848e+08
-4.67862e+10
-5.55656e+08
-4.66674e+10
-2.96666e+08
-4.66184e+10
-7.03432e+07
-4.66166e+10
1.20982e+08
-4.66325e+10
2.76466e+08
-4.66363e+10
3.99384e+08
-4.661e+10
4.97197e+08
-4.65467e+10
5.76825e+08
-4.64473e+10
6.4799e+08
-4.63078e+10
7.10607e+08
-4.6128e+10
7.68261e+08
-4.59003e+10
8.2414e+08
-4.56206e+10
8.81283e+08
-4.52878e+10
9.41777e+08
-4.48998e+10
1.00389e+09
-4.44628e+10
1.07346e+09
-4.40042e+10
1.15406e+09
-4.36046e+10
1.27136e+09
-4.34815e+10
1.4555e+09
-4.41382e+10
1.75535e+09
-4.63957e+10
2.1418e+09
-5.11599e+10
2.52557e+09
-6.12072e+10
3.3715e+09
-9.18673e+10
1.45193e+10
1.15345e+10
-5.89663e+10
-1.97528e+08
-4.44191e+08
-5.90272e+10
-1.99278e+08
-2.4839e+08
-5.90959e+10
-2.01931e+08
-1.34473e+08
-5.91676e+10
-2.07925e+08
-4.15359e+06
-5.92485e+10
-2.12915e+08
1.15227e+08
-5.93377e+10
-2.18829e+08
2.2617e+08
-5.944e+10
-2.23835e+08
3.28358e+08
-5.9559e+10
-2.2793e+08
4.11526e+08
-5.96929e+10
-2.32684e+08
4.7625e+08
-5.9839e+10
-2.3831e+08
5.21229e+08
-5.99928e+10
-2.43597e+08
5.37178e+08
-6.01471e+10
-2.47876e+08
5.14091e+08
-6.02963e+10
-2.51115e+08
4.49077e+08
-6.04342e+10
-2.53736e+08
3.37911e+08
-6.05506e+10
-2.56274e+08
1.78058e+08
-6.06386e+10
-2.59113e+08
-2.72286e+07
-6.06884e+10
-2.62273e+08
-2.74723e+08
-6.0693e+10
-2.65754e+08
-5.58202e+08
-6.06462e+10
-2.69692e+08
-8.67228e+08
-6.05429e+10
-2.74951e+08
-1.19615e+09
-6.03698e+10
-2.80284e+08
-1.54949e+09
-6.00918e+10
-2.85452e+08
-1.94204e+09
-5.9672e+10
-2.91026e+08
-2.33252e+09
-5.91329e+10
-2.98195e+08
-2.58787e+09
-5.85654e+10
-3.09449e+08
-2.6077e+09
-5.80419e+10
-3.21456e+08
-2.42566e+09
-5.75996e+10
-3.31816e+08
-2.12371e+09
-5.72545e+10
-3.38469e+08
-1.76101e+09
-5.70017e+10
-3.40685e+08
-1.39111e+09
-5.68296e+10
-3.38695e+08
-1.04424e+09
-5.67218e+10
-3.33234e+08
-7.34392e+08
-5.66657e+10
-3.25282e+08
-4.62536e+08
-5.66486e+10
-3.16259e+08
-2.27173e+08
-5.66574e+10
-3.06855e+08
-2.68058e+07
-5.66842e+10
-2.96584e+08
1.46059e+08
-5.67162e+10
-2.84372e+08
2.93276e+08
-5.67495e+10
-2.68284e+08
4.24367e+08
-5.67758e+10
-2.47187e+08
5.41877e+08
-5.6794e+10
-2.20995e+08
6.54407e+08
-5.67987e+10
-1.89642e+08
7.63034e+08
-5.6786e+10
-1.523e+08
8.70106e+08
-5.67523e+10
-1.07417e+08
9.78594e+08
-5.66931e+10
-5.37378e+07
1.0911e+09
-5.66042e+10
9.7087e+06
1.2061e+09
-5.64831e+10
8.2992e+07
1.32897e+09
-5.63367e+10
1.68617e+08
1.46059e+09
-5.62008e+10
2.75458e+08
1.62094e+09
-5.61657e+10
4.04401e+08
1.84738e+09
-5.65522e+10
6.00031e+08
2.31917e+09
-5.78722e+10
9.4262e+08
3.34167e+09
-6.11584e+10
1.33493e+09
5.28804e+09
-6.6796e+10
9.77072e+08
8.36289e+09
-8.66745e+10
4.77606e+09
1.98763e+10
-7.64537e+08