/*--------------------------------*- C++ -*----------------------------------*\
| =========                 |                                                 |
| \\      /  F ield         | OpenFOAM: The Open Source CFD Toolbox           |
|  \\    /   O peration     | Version:  4.1                                   |
|   \\  /    A nd           | Web:      www.OpenFOAM.org                      |
|    \\/     M anipulation  |                                                 |
\*---------------------------------------------------------------------------*/
FoamFile
{
    version     2.0;
    format      ascii;
    class       volVectorField;
    location    "51";
    object      U;
}
// * * * * * * * * * * * * * * * * * * * * * * * * * * * * * * * * * * * * * //

dimensions      [0 1 -1 0 0 0 0];

internalField   nonuniform List<vector> 
4432
(
(-178454 -4486.44 -4586.82)
(-182097 -3491.74 -2964.78)
(-178694 -2506.5 -1402.94)
(-176348 -3569.43 -2869.74)
(-176743 -3370.76 -2722.41)
(-176370 -3263.47 -2288.42)
(-175498 -3309.04 -2422.86)
(-175034 -3274.5 -2387)
(-174667 -3266.21 -2393.01)
(-174368 -3280.16 -2429.08)
(-174070 -3305.98 -2488.3)
(-173756 -3327.89 -2587.5)
(-173389 -3347.13 -2718.75)
(-172966 -3372.4 -2866.55)
(-172470 -3403.5 -3021.52)
(-171836 -3436.02 -3200.34)
(-171022 -3467.78 -3409.41)
(-170024 -3501.44 -3635.31)
(-168826 -3539.94 -3876.61)
(-167406 -3580.57 -4124.33)
(-165744 -3623.77 -4374.75)
(-163851 -3669.4 -4617.77)
(-161751 -3718.21 -4846.23)
(-159483 -3769.5 -5053.42)
(-157095 -3822.2 -5234.16)
(-154630 -3875.7 -5386.48)
(-152141 -3929.29 -5509.47)
(-149673 -3983.26 -5604.95)
(-147278 -4037.5 -5675.56)
(-144995 -4092.78 -5725.57)
(-142864 -4149.45 -5759.29)
(-140918 -4207.94 -5781.23)
(-139182 -4268.34 -5796.75)
(-137686 -4330.77 -5808.02)
(-136445 -4396.1 -5812.99)
(-135468 -4464.24 -5811.04)
(-134762 -4536.63 -5798.07)
(-134312 -4615.13 -5771.01)
(-134107 -4698.4 -5718.74)
(-134129 -4786.08 -5626.55)
(-134331 -4881.73 -5467.16)
(-134672 -4979.04 -5202.53)
(-135098 -5074.96 -4782.01)
(-135589 -5161.75 -4136.44)
(-136302 -5225.01 -3160)
(-137666 -5243.39 -1719.98)
(-140064 -5168.17 401.726)
(-142801 -4948.03 3525.17)
(-143748 -4450.6 8216.26)
(-144996 -3199.35 14995.2)
(-163499 -1611.17 26435.2)
(-225991 697.115 34591.4)
(-274728 -9971.81 61224.8)
(-195241 -1562.69 41124)
(-227811 607.238 -2808.65)
(-228486 1473.45 -2729.85)
(-227709 2283.89 -2445.02)
(-226481 1497.09 -2464.66)
(-226112 1716.12 -2576.87)
(-225977 1840.85 -2332.14)
(-225316 1851.1 -2425.6)
(-224857 1924.88 -2423.15)
(-224492 1978.01 -2463.95)
(-224135 2014.78 -2503.5)
(-223729 2042.83 -2565.82)
(-223276 2074.44 -2660.53)
(-222778 2108.8 -2779.03)
(-222238 2139.69 -2903.89)
(-221641 2167.43 -3034.12)
(-220936 2196.44 -3186.8)
(-220098 2229.36 -3360.71)
(-219131 2264.52 -3542.66)
(-218026 2300.57 -3734.77)
(-216765 2339.94 -3929.14)
(-215343 2383.03 -4122.79)
(-213773 2430.47 -4309.1)
(-212076 2481.84 -4482.74)
(-210287 2538.14 -4639.49)
(-208442 2599.84 -4776.47)
(-206577 2667.57 -4893.36)
(-204729 2741.09 -4991)
(-202934 2820.19 -5072.17)
(-201228 2903.95 -5140.52)
(-199638 2991.63 -5200.52)
(-198191 3082.34 -5256.93)
(-196909 3175.33 -5313.53)
(-195812 3270.55 -5373.73)
(-194919 3367.47 -5438.67)
(-194247 3465.72 -5508.45)
(-193814 3565.56 -5581.1)
(-193636 3666.6 -5654.02)
(-193734 3770.07 -5724.05)
(-194128 3878.56 -5786.02)
(-194845 3995.08 -5835.56)
(-195925 4131.09 -5860.09)
(-197395 4295.45 -5842.94)
(-199288 4496.4 -5762.96)
(-201677 4747.25 -5582.35)
(-204786 5068.74 -5245.39)
(-209062 5488.38 -4673.95)
(-215003 6050.2 -3733.14)
(-222456 6820.58 -2213.37)
(-230180 7935.42 446.822)
(-241275 9618.74 4427.06)
(-269659 11388 10542.9)
(-355583 12516.8 17180.9)
(-470882 -1430.95 36922.5)
(-425521 -20691.4 53869.3)
(-263504 -1521.98 1076.8)
(-263812 -1873.74 1399.9)
(-264246 -2002.69 2741.15)
(-264043 -1726.25 1778.84)
(-263657 -1768.26 1843.22)
(-263965 -1754.11 2292.41)
(-263930 -1748.86 2443.05)
(-263815 -1720.62 2599.1)
(-263820 -1715.6 2682.89)
(-263828 -1702.68 2732.59)
(-263810 -1700.55 2745.6)
(-263770 -1696.26 2711.88)
(-263680 -1688.89 2644.49)
(-263559 -1679.79 2558.08)
(-263444 -1674.4 2459.31)
(-263329 -1673.32 2348.17)
(-263177 -1669.79 2220.09)
(-262996 -1663.15 2080.31)
(-262785 -1657.79 1930.54)
(-262540 -1651.07 1782.69)
(-262260 -1642.84 1643.94)
(-261953 -1633.45 1526.29)
(-261636 -1622.81 1439)
(-261328 -1610.31 1390.66)
(-261046 -1594.95 1386.41)
(-260796 -1575.86 1426.74)
(-260588 -1552.28 1509.63)
(-260415 -1523.75 1628.88)
(-260280 -1489.74 1777.38)
(-260167 -1449.84 1945.5)
(-260067 -1403.56 2125)
(-259962 -1349.61 2309.8)
(-259831 -1285.68 2496.7)
(-259648 -1209.39 2682.54)
(-259384 -1120.1 2865.63)
(-259015 -1014.57 3047.68)
(-258557 -890.972 3234.55)
(-257985 -748.031 3428.27)
(-257266 -584.044 3631.8)
(-256348 -398.118 3845.35)
(-255174 -187.059 4066.44)
(-253655 51.3593 4294.48)
(-251674 315.736 4529.93)
(-249121 607.683 4771.46)
(-245935 928.678 5021.02)
(-242111 1283.45 5284.18)
(-237553 1671.2 5565.6)
(-231481 2090.55 5935.95)
(-222961 2656.63 6708.55)
(-212399 3316.1 8489.82)
(-209947 3413.21 10939.4)
(-197364 3566.1 11664)
(-212171 -479.195 8080.6)
(36677.5 -10055.8 4234.54)
(-285627 1729.08 -459.095)
(-286510 1410.33 -951.337)
(-286761 1282 -713.407)
(-286832 1533.28 -500.312)
(-287038 1490.59 -645.744)
(-287622 1495.93 -348.797)
(-287919 1492.66 -222.674)
(-288136 1510.54 -110.166)
(-288470 1505.85 -67.4999)
(-288786 1507.4 -29.1593)
(-289080 1498.43 -16.7246)
(-289340 1491.12 -41.0493)
(-289557 1486.74 -95.9796)
(-289755 1484.48 -164.609)
(-289957 1479.63 -241.152)
(-290135 1471.3 -335.216)
(-290255 1465.42 -445.673)
(-290331 1462.7 -566.886)
(-290365 1459.32 -696.672)
(-290345 1457.88 -826.082)
(-290272 1458.74 -948.659)
(-290151 1461.89 -1054.73)
(-289995 1467.8 -1135.21)
(-289817 1477.56 -1182.68)
(-289633 1492.45 -1191.91)
(-289445 1513.96 -1161.84)
(-289262 1543 -1093.72)
(-289079 1580.54 -992.256)
(-288895 1627.04 -863.208)
(-288696 1682.92 -714.175)
(-288474 1748.15 -551.94)
(-288209 1823.37 -381.921)
(-287881 1909.72 -207.676)
(-287470 2008.11 -31.0358)
(-286948 2117.75 146.941)
(-286291 2239.38 326.673)
(-285468 2372.98 507.922)
(-284452 2516.69 690.627)
(-283205 2669.45 874.056)
(-281685 2832.42 1060.49)
(-279839 3005.99 1249.34)
(-277593 3190.57 1438.71)
(-274854 3385.61 1625.47)
(-271564 3586.4 1824.84)
(-267669 3789.53 2056.92)
(-263184 3995.24 2357.61)
(-258041 4192.55 2786.82)
(-251532 4398.73 3492.88)
(-242601 4705.11 4782.27)
(-230440 4998.14 7386.86)
(-224692 3997.22 12078.7)
(-223384 3850.95 15885.9)
(-180347 -16304.3 19083.5)
(-15973.2 -9422.45 3363.77)
(-216382 -1740.42 -1814.35)
(-213421 -1843.3 -2444.25)
(-213517 -2360.09 -2599.44)
(-213275 -1778.03 -1993.21)
(-212531 -1850.54 -2256.76)
(-212352 -1916.12 -2192.7)
(-212242 -1970.57 -2006.54)
(-212179 -1984.79 -1922.4)
(-212139 -2024.52 -1890.93)
(-212068 -2043.95 -1876.61)
(-211974 -2061.99 -1908.28)
(-211855 -2068.63 -1986.73)
(-211679 -2073.49 -2109.05)
(-211476 -2078.63 -2277.19)
(-211261 -2084.18 -2489.48)
(-210983 -2096.11 -2730.54)
(-210601 -2103.57 -2997.48)
(-210109 -2106.91 -3294.04)
(-209501 -2107.28 -3614.64)
(-208756 -2104.6 -3949.89)
(-207867 -2098.66 -4285.44)
(-206841 -2090.83 -4605.56)
(-205701 -2080.75 -4889.7)
(-204483 -2068.57 -5119.52)
(-203226 -2053.17 -5280.64)
(-201968 -2033.97 -5366.61)
(-200747 -2010.47 -5377.13)
(-199598 -1982.47 -5320.1)
(-198553 -1949.84 -5206.69)
(-197634 -1912.33 -5052.17)
(-196858 -1869.78 -4869.6)
(-196228 -1823.05 -4664.86)
(-195756 -1773.56 -4437.56)
(-195440 -1720.56 -4199.1)
(-195274 -1664.12 -3964.26)
(-195252 -1606.6 -3727.7)
(-195289 -1547.07 -3499.5)
(-195358 -1484.08 -3289.5)
(-195414 -1420.65 -3098.35)
(-195394 -1355.6 -2921.12)
(-195235 -1285.37 -2756.46)
(-194867 -1208.78 -2602.59)
(-194178 -1121.41 -2457.4)
(-193063 -1011.93 -2327.31)
(-191463 -862.414 -2226.38)
(-189442 -635.312 -2142.6)
(-186887 -262.334 -2028.35)
(-182759 420.977 -1705.21)
(-174883 1554.6 -762.113)
(-164286 3655.07 1740.67)
(-161761 6099.65 8419.62)
(-202192 8788.33 29941.5)
(-228817 -10153.5 45362.3)
(-164888 222.503 6891.21)
(-239860 2744.72 -2444.55)
(-238724 2701.61 -2434.98)
(-238139 2271.53 -2273.26)
(-237773 2829.75 -1891.26)
(-237868 2803.66 -2102.16)
(-237921 2778.51 -2136.22)
(-238030 2765.58 -1979.9)
(-238251 2789.03 -1937.98)
(-238545 2790.53 -1926.41)
(-238814 2810.42 -1925.43)
(-239088 2832.35 -1953.72)
(-239342 2864.98 -2019.56)
(-239546 2899.85 -2129.56)
(-239711 2935.17 -2289.01)
(-239859 2970.97 -2490.08)
(-239951 3002.15 -2713.44)
(-239948 3038.43 -2959.38)
(-239855 3079.51 -3233.96)
(-239660 3124.38 -3526.64)
(-239345 3173.16 -3830.54)
(-238904 3226.05 -4133.28)
(-238345 3281.69 -4419.79)
(-237685 3340.44 -4672.31)
(-236956 3401.99 -4874.77)
(-236190 3467.2 -5015.17)
(-235419 3536.46 -5088.96)
(-234672 3610.08 -5097.08)
(-233975 3688.31 -5047.45)
(-233352 3771.43 -4950.08)
(-232816 3859.95 -4817.93)
(-232376 3954.36 -4662.66)
(-232034 4054.57 -4494.24)
(-231795 4160.06 -4319.5)
(-231658 4272.44 -4144.45)
(-231623 4392.65 -3973.7)
(-231699 4518.22 -3811.25)
(-231889 4651.53 -3660.42)
(-232202 4795.08 -3523.53)
(-232646 4949.03 -3402.94)
(-233227 5117.34 -3299.22)
(-233943 5303.59 -3206.53)
(-234803 5508.53 -3114.06)
(-235806 5742.71 -3020.52)
(-236915 6022.45 -2919.37)
(-238220 6367.57 -2791.45)
(-239954 6813.72 -2586.17)
(-242239 7422.45 -2200.41)
(-244485 8315.26 -1397.83)
(-244682 9601.12 366.602)
(-245333 11500.7 4799.49)
(-258018 13301.9 15887.6)
(-328039 12019.4 31693.1)
(-396449 -6198.26 39126.5)
(-429642 -32996.7 -477.887)
(-229624 -3048.79 -1834.49)
(-229116 -2781.98 -192.113)
(-228659 -2617.51 -376.239)
(-228444 -2454.55 544.533)
(-228424 -2465.94 673.454)
(-228314 -2538.24 826.303)
(-228274 -2539.72 931.486)
(-228303 -2540.24 1013.62)
(-228408 -2554.51 1061.89)
(-228524 -2558.35 1076.59)
(-228662 -2564.68 1053.5)
(-228795 -2564.57 1009.83)
(-228891 -2564.69 917.547)
(-228968 -2569.22 763.638)
(-229036 -2578.53 549.23)
(-229071 -2589.45 291.87)
(-229050 -2597.79 -2.01708)
(-228977 -2605.35 -327.933)
(-228847 -2610.91 -673.623)
(-228646 -2612.8 -1029.16)
(-228370 -2611.23 -1378.34)
(-228026 -2605.23 -1701.95)
(-227637 -2595.03 -1974.19)
(-227235 -2579.94 -2173.27)
(-226852 -2559.53 -2284.18)
(-226515 -2534.04 -2305.3)
(-226241 -2504.18 -2245.2)
(-226042 -2470.76 -2121.3)
(-225917 -2434.04 -1954.16)
(-225861 -2393.89 -1763.95)
(-225853 -2350.7 -1567.67)
(-225870 -2308.51 -1377.91)
(-225903 -2272.26 -1203.39)
(-225945 -2235.7 -1054.27)
(-225962 -2191.03 -940.648)
(-225931 -2150.12 -866.705)
(-225851 -2111.89 -830.049)
(-225703 -2071.86 -827.122)
(-225480 -2032.04 -855.929)
(-225157 -1996.32 -916.674)
(-224668 -1962.85 -1005.03)
(-223952 -1928.99 -1113.33)
(-222911 -1891.69 -1231.02)
(-221443 -1842 -1345.8)
(-219513 -1759.06 -1439.2)
(-217170 -1617.41 -1470.82)
(-214309 -1391.59 -1338.64)
(-209929 -1010.93 -942.355)
(-202160 -245.075 -378.307)
(-190164 1278.48 -195.887)
(-183798 2859.3 4355.56)
(-188575 2766.79 18350.2)
(-178310 -14242.3 58044.7)
(7185.01 -12864.2 24487)
(-256506 1061 -2325.63)
(-256254 1288.01 -759.404)
(-256016 1448.66 -310.001)
(-256200 1602.49 123.369)
(-256555 1607.96 305.966)
(-256620 1559.94 477.763)
(-256673 1575.83 604.884)
(-256854 1593.45 676.62)
(-257095 1600.38 752.809)
(-257340 1617.88 791.556)
(-257614 1634.23 789.381)
(-257891 1657.29 752.58)
(-258158 1681.07 671.338)
(-258428 1701.88 533.567)
(-258706 1719.42 342.445)
(-258967 1736.44 120.211)
(-259199 1756.73 -133.626)
(-259407 1778.78 -413.983)
(-259585 1803.75 -706.982)
(-259720 1833.26 -1002.58)
(-259806 1867.25 -1285.41)
(-259846 1906.66 -1536.24)
(-259855 1951.4 -1732.64)
(-259854 2002.04 -1854.46)
(-259865 2058.84 -1890.17)
(-259906 2121.36 -1839.43)
(-259987 2188.59 -1712.07)
(-260114 2259.37 -1524.54)
(-260284 2333.06 -1295.19)
(-260488 2409.41 -1041.93)
(-260713 2487.8 -780.572)
(-260939 2564.59 -523.945)
(-261152 2635.54 -280.077)
(-261335 2706.14 -55.7959)
(-261476 2783.36 143.349)
(-261563 2857.61 313.495)
(-261586 2930.54 452.402)
(-261538 3007.63 559.258)
(-261408 3088.18 633.31)
(-261185 3169.57 674.688)
(-260856 3253.51 685.107)
(-260382 3344.41 666.236)
(-259710 3449.96 614.991)
(-258788 3581.58 526.721)
(-257614 3759.75 402.93)
(-256252 4006.94 255.017)
(-254654 4341.46 118.423)
(-251902 4815.11 10.4229)
(-245991 5610.83 52.1629)
(-235265 7146.46 1162.93)
(-230201 7919.54 7000.57)
(-239241 4380.71 14485.7)
(-244849 -28166.4 48422)
(-159025 -18835.7 12680.2)
(-220497 -2848.61 -3794.87)
(-219673 -2873.31 -2204.42)
(-219164 -2663.43 -1698.48)
(-218692 -2564 -1196.09)
(-218470 -2564.3 -773.876)
(-218203 -2593.95 -433.694)
(-218046 -2609.41 -160.563)
(-217970 -2623.54 32.8552)
(-217975 -2621.06 178.008)
(-217990 -2608.46 242.7)
(-217991 -2605.24 227.171)
(-217984 -2613.59 176.49)
(-217951 -2626.56 68.4888)
(-217882 -2647.97 -112.522)
(-217760 -2676.65 -362.737)
(-217543 -2711.62 -668.431)
(-217205 -2750.82 -1029.39)
(-216734 -2794.22 -1437.7)
(-216107 -2840.14 -1877.72)
(-215302 -2887.32 -2334.31)
(-214304 -2934.36 -2789.89)
(-213110 -2978.98 -3213.58)
(-211749 -3019.77 -3566.47)
(-210277 -3053.09 -3807.24)
(-208771 -3076.63 -3910.72)
(-207313 -3087.74 -3874.24)
(-205981 -3085.48 -3714.34)
(-204836 -3068.61 -3458.01)
(-203925 -3035.62 -3135.1)
(-203271 -2985.55 -2771.82)
(-202877 -2919.35 -2389.13)
(-202735 -2840.29 -2007.73)
(-202839 -2750.68 -1645.62)
(-203177 -2647.06 -1304.78)
(-203720 -2525.06 -981.578)
(-204435 -2388.41 -690.932)
(-205274 -2239.93 -442.419)
(-206172 -2080.14 -248.64)
(-207070 -1907.42 -108.059)
(-207908 -1718.86 -30.7291)
(-208641 -1514.98 -26.664)
(-209181 -1299.53 -95.4692)
(-209411 -1076.44 -239.089)
(-209209 -847.491 -463.279)
(-208512 -604.759 -765.853)
(-207327 -341.266 -1133.03)
(-205519 -71.5039 -1479.66)
(-202031 219.132 -1636.02)
(-195304 710.455 -1528.14)
(-186221 2890.54 -58.7373)
(-190998 3814.86 2000.4)
(-218436 -4260.75 4171.25)
(-146897 -27058.3 -1179.48)
(139613 -8461.5 -7519.35)
(-231208 2104.64 -4766.3)
(-230870 2039.4 -3562.08)
(-230710 2230.47 -3236.96)
(-230899 2313.58 -2898.96)
(-231183 2304.74 -2517.01)
(-231279 2270.05 -2130.36)
(-231416 2249.78 -1881.22)
(-231598 2232.02 -1730.88)
(-231827 2231.36 -1613.76)
(-232076 2241.77 -1570.71)
(-232328 2244.69 -1586.92)
(-232566 2237.74 -1648.88)
(-232785 2226.95 -1766.48)
(-232987 2208.4 -1950.83)
(-233158 2182.82 -2195.85)
(-233266 2150.77 -2490.69)
(-233293 2113.9 -2837.36)
(-233230 2071.82 -3225.33)
(-233060 2025.73 -3638.88)
(-232765 1976.45 -4063.35)
(-232330 1925.1 -4479.02)
(-231751 1873.71 -4856.85)
(-231049 1823.89 -5158.18)
(-230265 1779.77 -5344.97)
(-229456 1744.53 -5394.61)
(-228676 1721.96 -5306.82)
(-227976 1714.29 -5099.98)
(-227387 1723.85 -4802.76)
(-226928 1752.64 -4446.23)
(-226603 1801.95 -4057.02)
(-226403 1871.09 -3656.12)
(-226307 1957.02 -3259.24)
(-226299 2057.43 -2876.06)
(-226360 2174.79 -2512.57)
(-226471 2312.16 -2172.89)
(-226617 2465.22 -1858.23)
(-226780 2630.01 -1569.5)
(-226948 2805.63 -1305.51)
(-227105 2990.95 -1066.33)
(-227224 3184.66 -857.842)
(-227274 3379.29 -688.838)
(-227237 3566.14 -563.894)
(-227084 3743.76 -494.162)
(-226787 3910.31 -503.106)
(-226370 4065.63 -622.326)
(-225927 4205.76 -884.19)
(-225351 4290.23 -1322.53)
(-223528 4271.2 -2025.55)
(-217551 4449.23 -3426.46)
(-205638 6348.62 -5034.81)
(-193959 7034.38 -4739.37)
(-186373 -7891.4 -1831.76)
(-163139 -46142.1 -4621.6)
(-32729.7 -15941.7 -6041.91)
(-233465 -1485.84 -2570.57)
(-233568 -1552.7 -1361.05)
(-233511 -1527.59 -819.183)
(-233625 -1496.02 -377.053)
(-233745 -1507.11 30.3898)
(-233824 -1495.27 321.618)
(-233933 -1486.36 556.939)
(-234087 -1498.62 739.441)
(-234309 -1511 882.217)
(-234567 -1511.48 956.349)
(-234799 -1499.31 956.353)
(-235000 -1494.84 881.089)
(-235194 -1494.82 728.163)
(-235374 -1500.71 492.116)
(-235522 -1511.55 187.855)
(-235616 -1527.57 -175.451)
(-235637 -1548.48 -590.429)
(-235573 -1574.63 -1042.02)
(-235409 -1605.69 -1510.32)
(-235124 -1641.55 -1977.88)
(-234696 -1681.38 -2420.85)
(-234109 -1725.61 -2800.6)
(-233377 -1772.9 -3059.3)
(-232544 -1821.81 -3135.87)
(-231686 -1869.52 -2999.63)
(-230877 -1913.75 -2656.67)
(-230180 -1952.71 -2143.72)
(-229642 -1985.64 -1509.6)
(-229290 -2011.53 -803.697)
(-229138 -2028.85 -66.1451)
(-229191 -2037.11 673.595)
(-229450 -2035.44 1392.28)
(-229921 -2021.49 2072)
(-230607 -1992.52 2706.35)
(-231517 -1947.69 3294.96)
(-232673 -1881.45 3841.11)
(-234122 -1788.45 4355.22)
(-235922 -1671.32 4838.04)
(-238100 -1531.54 5290.73)
(-240678 -1368.48 5712.21)
(-243682 -1181.15 6108.42)
(-247176 -968.308 6451.79)
(-251183 -728.49 6712.13)
(-255749 -458.897 6851.66)
(-260975 -155.547 6816.01)
(-267096 171.633 6511.8)
(-274170 478.148 5808.65)
(-281175 734.303 4482.09)
(-284741 1017.95 2100.89)
(-283054 646.993 -863.79)
(-276260 -2033.07 -5378.17)
(-263315 -7830.1 -21926.1)
(-210170 -21879 -71945.1)
(-32427 -12925.6 -38309.5)
(-229463 3258.47 -2654.63)
(-229745 3294.37 -1444.82)
(-229885 3346.96 -1181.45)
(-230271 3421.35 -880.251)
(-230687 3441.48 -495.136)
(-231015 3482.19 -168.144)
(-231425 3517.41 75.1352)
(-231880 3529.89 242.337)
(-232375 3541.97 345.121)
(-232899 3566.87 381.196)
(-233417 3605.8 352.594)
(-233923 3638.72 249.769)
(-234421 3669.53 63.827)
(-234904 3697.38 -209.225)
(-235357 3724.52 -557.673)
(-235758 3751.46 -974.757)
(-236090 3779.03 -1457.55)
(-236341 3807.05 -1992.62)
(-236494 3835.7 -2562.3)
(-236526 3864.49 -3149.64)
(-236412 3893.22 -3732.34)
(-236129 3919.76 -4271.68)
(-235679 3943.32 -4707.01)
(-235097 3962.55 -4974.63)
(-234444 3977.62 -5036.82)
(-233788 3988.83 -4894.64)
(-233187 3997.17 -4578)
(-232684 4003.94 -4132.1)
(-232306 4011.14 -3604.24)
(-232064 4021.99 -3033.56)
(-231959 4039.1 -2447.44)
(-231985 4065.22 -1864.18)
(-232134 4104.71 -1296.59)
(-232399 4162.33 -751.446)
(-232772 4241.05 -232.998)
(-233247 4346.2 259.567)
(-233819 4481.92 731.906)
(-234485 4648.38 1189.53)
(-235247 4844.83 1629.81)
(-236111 5074.16 2048.07)
(-237084 5341.36 2448.93)
(-238162 5648.19 2812.06)
(-239341 5995.52 3112.31)
(-240632 6384.21 3310.61)
(-242127 6815.27 3348.04)
(-244040 7277.07 3133.46)
(-246504 7718.35 2519.92)
(-248918 8082.21 1229.36)
(-248951 8325.32 -1431.14)
(-246216 7888.38 -7026.39)
(-250948 3887.64 -18712.3)
(-287328 -7445.06 -36028.4)
(-302185 -35662.2 -74173.1)
(-203380 -22532.3 -19351.2)
(-221676 -772.936 -4478.86)
(-221953 -712.218 -3280.15)
(-222087 -762.699 -2864.16)
(-222347 -767.25 -2435.1)
(-222603 -758.535 -2082.85)
(-222860 -718.952 -1784.25)
(-223113 -696.859 -1535.06)
(-223409 -699.111 -1334.57)
(-223784 -711.298 -1201.49)
(-224197 -709.726 -1134.03)
(-224603 -703.474 -1113.85)
(-225010 -701.9 -1180.6)
(-225413 -703.479 -1343.32)
(-225790 -708.702 -1604.66)
(-226118 -716.961 -1958.67)
(-226369 -727.612 -2400.59)
(-226519 -741.124 -2920.07)
(-226544 -757.589 -3498.73)
(-226423 -776.502 -4114.68)
(-226134 -797.003 -4748)
(-225638 -819.797 -5377.73)
(-224893 -844.421 -5960.78)
(-223893 -869.712 -6408.42)
(-222702 -894.412 -6617.35)
(-221435 -914.69 -6526.35)
(-220205 -928.8 -6147.2)
(-219094 -934.06 -5535.28)
(-218137 -930.449 -4762.24)
(-217337 -918.349 -3896.7)
(-216674 -899.138 -2990.78)
(-216117 -874.688 -2079.23)
(-215642 -845.544 -1181.44)
(-215221 -811.665 -302.904)
(-214832 -774.245 560.875)
(-214455 -738.055 1417.91)
(-214079 -703.664 2279.83)
(-213692 -666.631 3158.12)
(-213289 -624.233 4061.89)
(-212872 -575.939 4998.78)
(-212439 -517.553 5978.77)
(-212019 -441.648 7043.01)
(-211577 -342.113 8197.85)
(-211121 -208.812 9446.83)
(-210679 -28.3753 10793.1)
(-210369 216.349 12235.1)
(-210491 543.166 13748.9)
(-211344 985.392 15290.1)
(-212600 1581.63 16623.1)
(-212598 2419.99 17098.8)
(-212269 3382.85 14487.1)
(-223701 3957.19 5117.09)
(-262280 2987.42 -18168.6)
(-256567 -6902.24 -58279.9)
(-122344 3590.42 -18405.1)
(-219768 1566.73 -2039.12)
(-220447 1692.31 -590.308)
(-220670 1675.17 -193.659)
(-220956 1708.42 221.62)
(-221208 1751.18 655.09)
(-221465 1821.34 1035.67)
(-221758 1872.31 1346.95)
(-222084 1899.07 1619.61)
(-222451 1916.58 1832.05)
(-222845 1948.99 1981.81)
(-223251 1987.86 2068.17)
(-223667 2024.64 2069.7)
(-224086 2062.01 1973.81)
(-224501 2101 1777.56)
(-224894 2143.07 1484.26)
(-225244 2189.47 1098.15)
(-225546 2241.78 629.613)
(-225808 2302.93 96.8374)
(-226026 2375.31 -478.92)
(-226195 2461.62 -1078.01)
(-226294 2563.07 -1678.52)
(-226300 2681.88 -2234.68)
(-226216 2820 -2659.18)
(-226103 2977.27 -2849.22)
(-226049 3153.1 -2747.15)
(-226126 3342.83 -2364.51)
(-226363 3542.12 -1756.11)
(-226751 3745.16 -993.402)
(-227259 3946.85 -146.067)
(-227844 4142.67 730.962)
(-228467 4329.51 1601.54)
(-229097 4506.11 2444.55)
(-229719 4672.88 3251.05)
(-230323 4830.52 4029.32)
(-230943 4981.41 4800.23)
(-231617 5132.34 5578.39)
(-232347 5291.28 6369.89)
(-233125 5463.05 7181.58)
(-233959 5651.72 8024.85)
(-234855 5864.26 8912.69)
(-235830 6110.28 9876.96)
(-236892 6401.86 10922.9)
(-238051 6755.17 12055.7)
(-239339 7189.4 13278.9)
(-240871 7729.03 14596.2)
(-242921 8401.11 16003.4)
(-245764 9234 17450.6)
(-249133 10269.1 18676.6)
(-251853 11589.4 18893.1)
(-254716 13013.7 16486.9)
(-272185 13365.5 10210.2)
(-337733 11555.8 -4223.76)
(-416629 -4880.9 -49287)
(-452597 -7910.78 -31102.1)
(-223934 -1406.82 -3457.23)
(-224189 -1255.19 -2487.49)
(-224547 -1288.78 -2111.6)
(-224949 -1307.94 -1675.31)
(-225354 -1291.02 -1334.13)
(-225781 -1254.11 -988.582)
(-226270 -1245.84 -676.283)
(-226863 -1255.23 -433.396)
(-227570 -1262.29 -274.488)
(-228315 -1256.98 -183.55)
(-229063 -1255.45 -178.451)
(-229829 -1257.97 -286.284)
(-230594 -1261.06 -518.871)
(-231323 -1263.24 -884.881)
(-231982 -1262.41 -1387.12)
(-232535 -1254.86 -2020.77)
(-232942 -1236.86 -2771.62)
(-233175 -1207.25 -3615.08)
(-233212 -1163.66 -4520.13)
(-233038 -1104.43 -5460.29)
(-232607 -1026.57 -6422.09)
(-231844 -927.51 -7361.14)
(-230714 -808.48 -8147.56)
(-229317 -672.77 -8590.52)
(-227875 -528.089 -8573.25)
(-226617 -379.841 -8138.03)
(-225696 -232.198 -7398.04)
(-225179 -88.524 -6475.13)
(-225061 49.0066 -5473.89)
(-225298 179.015 -4465.47)
(-225830 302.122 -3489.69)
(-226598 420.586 -2563.53)
(-227552 537.368 -1686.99)
(-228652 657.306 -851.458)
(-229874 785.152 -42.7396)
(-231201 919.925 758.127)
(-232622 1055.87 1571.44)
(-234130 1190.89 2416.27)
(-235732 1328.27 3313.89)
(-237444 1472.03 4287.42)
(-239283 1626.16 5353.57)
(-241267 1794.42 6529.55)
(-243421 1980.79 7833.99)
(-245788 2189.91 9274.36)
(-248502 2431.1 10868.5)
(-251893 2725.49 12655.6)
(-256349 3129.07 14739.6)
(-261987 3651.43 17050.6)
(-267970 4255.02 19424.6)
(-275063 5349.84 21523.1)
(-300963 8230.74 20613)
(-373396 9414.8 12307.1)
(-441897 98.3169 -23502.4)
(-381569 -9664.26 -192043)
(-208711 151.631 -2020.03)
(-208539 238.464 -878.509)
(-208542 189.35 -368.461)
(-208456 149.623 146.711)
(-208342 159.219 593.628)
(-208339 196.889 1008.98)
(-208439 209.929 1369.24)
(-208607 208.643 1674.12)
(-208837 211.941 1916.9)
(-209088 229.885 2081.16)
(-209340 244.683 2147.8)
(-209590 254.832 2096.87)
(-209822 262.627 1915.38)
(-210006 267.339 1593.81)
(-210110 269.263 1126.81)
(-210100 270.563 516.302)
(-209907 271.639 -222.023)
(-209476 270.164 -1065.9)
(-208776 266.454 -1987.7)
(-207777 260.748 -2966.93)
(-206420 255.38 -3995.12)
(-204615 252.478 -5037.66)
(-202310 250.964 -5971.15)
(-199611 249.947 -6603.62)
(-196774 246.062 -6817.92)
(-194081 238.644 -6647.02)
(-191730 226.649 -6197.95)
(-189824 207.596 -5583.76)
(-188393 178.566 -4904.42)
(-187402 137.151 -4228.26)
(-186788 83.1655 -3593.19)
(-186480 18.11 -3018.17)
(-186403 -56.2993 -2508.46)
(-186464 -134.658 -2049.95)
(-186525 -218.988 -1643.78)
(-186494 -321.992 -1305.27)
(-186321 -455.363 -1025.39)
(-186016 -622.118 -777.558)
(-185571 -820.85 -549.613)
(-184967 -1049.97 -333.523)
(-184181 -1306.18 -118.945)
(-183176 -1588.99 96.2244)
(-181913 -1897.6 307.878)
(-180377 -2229.02 507.291)
(-178649 -2574.45 683.178)
(-176995 -2915.84 823.112)
(-175724 -3206.27 938.212)
(-174624 -3427.21 946.528)
(-172904 -3595.44 598.536)
(-171962 -3528.44 -884.59)
(-188223 -2080.06 -4418.75)
(-245567 -449.957 -11296.7)
(-303865 -8621.35 4562.03)
(-365332 -280.585 89152.1)
(-235636 -3127.98 -2162.89)
(-235943 -3138.04 -1408.48)
(-236209 -3170.64 -983.463)
(-236562 -3225.1 -461.551)
(-236865 -3232.73 -11.7534)
(-237155 -3243.98 394.945)
(-237514 -3290.58 735.148)
(-237972 -3344.64 976.189)
(-238504 -3384.39 1142.63)
(-239071 -3416.84 1244.16)
(-239668 -3450.35 1227.49)
(-240287 -3484.1 1067.6)
(-240903 -3515.25 747.453)
(-241486 -3543.63 255.546)
(-242000 -3569.46 -409.212)
(-242405 -3593.2 -1239.77)
(-242666 -3616.59 -2221.33)
(-242750 -3640.46 -3331.2)
(-242639 -3665.55 -4533.86)
(-242326 -3692.37 -5800.97)
(-241758 -3718.68 -7129.26)
(-240779 -3744.69 -8498.78)
(-239235 -3773.18 -9742.82)
(-237181 -3808.81 -10515.3)
(-234922 -3855.36 -10570.5)
(-232778 -3905.52 -9987.45)
(-230923 -3953.54 -9001.57)
(-229432 -3994.39 -7824.48)
(-228311 -4027.39 -6632.67)
(-227517 -4054.84 -5533.87)
(-226996 -4078.58 -4581.65)
(-226695 -4100.21 -3793.61)
(-226563 -4121.61 -3168.86)
(-226558 -4144.23 -2701.09)
(-226640 -4169.11 -2378.5)
(-226768 -4194.88 -2184.65)
(-226911 -4219.04 -2098.39)
(-227050 -4241.46 -2108.18)
(-227169 -4265.85 -2205.04)
(-227246 -4298.02 -2383.95)
(-227255 -4343.06 -2645.75)
(-227168 -4405.91 -2994.78)
(-226951 -4495.02 -3436.54)
(-226580 -4622.65 -3979.3)
(-226111 -4806.9 -4641.18)
(-225703 -5065.38 -5441)
(-225536 -5401.04 -6333.84)
(-225247 -5830.64 -7266.92)
(-223488 -6173.03 -7718.43)
(-221447 -6164.43 -6667.49)
(-231904 -6200.04 -3451.06)
(-280332 -8895.68 1052.46)
(-341710 412.035 33670.4)
(-384529 588.433 5074.8)
(-228622 1578.06 -2487.81)
(-228896 1592.92 -1685.18)
(-229054 1572.47 -1134.42)
(-229241 1539.31 -503.329)
(-229339 1557.46 26.708)
(-229493 1576.86 459.485)
(-229705 1564.81 843.246)
(-229957 1550.41 1149.26)
(-230279 1555.24 1384.17)
(-230665 1569.97 1537.86)
(-231097 1584.91 1576.36)
(-231556 1599 1475.77)
(-232006 1612.78 1218.44)
(-232407 1624.7 794.036)
(-232711 1632.29 202.846)
(-232881 1631.69 -546.523)
(-232890 1621.13 -1437.26)
(-232696 1598.45 -2440.63)
(-232280 1561.18 -3516.92)
(-231628 1507.06 -4630.56)
(-230686 1436.87 -5771.44)
(-229301 1348.51 -6912.96)
(-227323 1237.88 -7879.97)
(-224826 1102.58 -8318.37)
(-222156 947.732 -7977.15)
(-219677 794.798 -6957.54)
(-217595 661.084 -5525.03)
(-215985 557.198 -3923.07)
(-214832 484.698 -2349.47)
(-214067 439.108 -922.54)
(-213611 414.866 300.34)
(-213394 406.775 1301.39)
(-213360 408.02 2080.17)
(-213496 412.99 2645.85)
(-213814 421.243 3023)
(-214305 434.552 3245.95)
(-214959 456.866 3354.84)
(-215713 487.767 3358.41)
(-216507 523.532 3252.69)
(-217277 559.17 3037.97)
(-217960 590.805 2717.26)
(-218469 614.311 2274.43)
(-218687 621.965 1684.77)
(-218503 601.764 917.031)
(-217848 534.748 -77.1056)
(-216732 402.274 -1360.18)
(-215061 189.529 -2992.98)
(-211904 -151.244 -4980.84)
(-205380 -383.456 -6882.46)
(-195299 -66.1088 -8867.74)
(-188160 -272.104 -12487.9)
(-194394 -6788.05 -13348.1)
(-213812 -2352.82 30624.1)
(-93433.2 -1796 19740.5)
(-232529 -2310.97 -1910.77)
(-232914 -2362.26 -1195.42)
(-233075 -2385.82 -732.142)
(-233385 -2421.83 -147.439)
(-233642 -2432.74 415.882)
(-233874 -2463.17 932.988)
(-234155 -2488.28 1388.67)
(-234500 -2496.45 1784.93)
(-234886 -2489.66 2124.26)
(-235325 -2480.5 2377.38)
(-235822 -2465.55 2503.16)
(-236364 -2446 2468.92)
(-236931 -2422.6 2244.24)
(-237491 -2397.48 1808.88)
(-238008 -2372.99 1159.8)
(-238447 -2353.13 304.406)
(-238778 -2342.36 -740.615)
(-238963 -2342.82 -1961.7)
(-238991 -2358.28 -3319.87)
(-238887 -2390.02 -4772.11)
(-238631 -2437.63 -6328.91)
(-238003 -2503.68 -8034.11)
(-236672 -2600.39 -9749.82)
(-234694 -2743.41 -10909.9)
(-232697 -2930.31 -10945.1)
(-231262 -3146.39 -9987.03)
(-230473 -3375.69 -8552.68)
(-230187 -3610.92 -6952.15)
(-230209 -3839.19 -5402.39)
(-230356 -4053.97 -4001.1)
(-230496 -4251.34 -2778.53)
(-230544 -4428.84 -1727.66)
(-230455 -4583.96 -821.034)
(-230196 -4712.86 -38.2424)
(-229823 -4822.93 633.993)
(-229329 -4915.38 1199.26)
(-228714 -4989.32 1680.59)
(-227961 -5043.96 2091.65)
(-227048 -5075.99 2448.86)
(-225952 -5079.8 2767.4)
(-224642 -5050.68 3051.22)
(-223062 -4983.99 3301.01)
(-221148 -4871.91 3515.33)
(-218844 -4705.04 3689.73)
(-216161 -4475.57 3813.46)
(-213218 -4179.83 3877.7)
(-210121 -3822.99 3893.42)
(-206162 -3393.06 3945.72)
(-199603 -2922.1 4481.89)
(-189558 -2075.7 5440.05)
(-183857 -140.347 7374.27)
(-187609 2566.54 14513.3)
(-215607 20491.9 62410.6)
(-143462 16497.5 23751.3)
(-227154 3563.52 -3624.62)
(-227283 3622.1 -2970.73)
(-227388 3625.88 -2496.72)
(-227592 3629.37 -1906.74)
(-227797 3645.11 -1384.15)
(-228010 3634.22 -902.654)
(-228251 3620.55 -428.408)
(-228551 3619.76 -12.5298)
(-228912 3630.81 331.342)
(-229337 3641.5 580.384)
(-229821 3655.12 700.57)
(-230352 3671.13 658.092)
(-230905 3689.53 420.633)
(-231448 3709.49 -33.0708)
(-231938 3730.87 -710.872)
(-232324 3751.86 -1608.5)
(-232558 3771.71 -2723.72)
(-232594 3790.21 -4047.92)
(-232407 3805.17 -5548.45)
(-232007 3815.46 -7185.81)
(-231356 3820.16 -8973.46)
(-230208 3813.92 -10968.4)
(-228180 3780.05 -13040.6)
(-225239 3693.59 -14594)
(-221961 3541.34 -14989.2)
(-218986 3324.98 -14293)
(-216579 3062.75 -13000.6)
(-214782 2774.12 -11456.5)
(-213523 2482.6 -9912.19)
(-212663 2208.81 -8488.03)
(-212081 1964.25 -7229.2)
(-211679 1752.86 -6137.5)
(-211386 1575.9 -5188.37)
(-211148 1437.33 -4346.67)
(-210928 1334.22 -3597.18)
(-210688 1261.98 -2945.26)
(-210383 1216.77 -2387.38)
(-209984 1192.08 -1912.51)
(-209461 1186.4 -1505.73)
(-208779 1202.56 -1142.2)
(-207881 1242.67 -799.364)
(-206687 1306.48 -465.1)
(-205112 1397.15 -119.22)
(-203066 1519.43 261.279)
(-200534 1673.7 691.674)
(-197640 1851.69 1191.09)
(-194559 2030.85 1826.25)
(-190944 2214.26 2809.5)
(-185417 2341.21 4544.32)
(-178340 2403.24 6199.07)
(-177137 2685.73 7596.4)
(-190481 2655.87 8094.78)
(-184239 12660.8 45265.9)
(-20911.9 9477.31 30077.2)
(-221811 -850.261 -1845.52)
(-221857 -759.283 -829.423)
(-222024 -748.747 -339.136)
(-222316 -740.444 237.017)
(-222680 -750.033 778.473)