/*--------------------------------*- C++ -*----------------------------------*\
| =========                 |                                                 |
| \\      /  F ield         | OpenFOAM: The Open Source CFD Toolbox           |
|  \\    /   O peration     | Version:  4.1                                   |
|   \\  /    A nd           | Web:      www.OpenFOAM.org                      |
|    \\/     M anipulation  |                                                 |
\*---------------------------------------------------------------------------*/
FoamFile
{
    version     2.0;
    format      ascii;
    class       surfaceScalarField;
    location    "37";
    object      phi;
}
// * * * * * * * * * * * * * * * * * * * * * * * * * * * * * * * * * * * * * //

dimensions      [0 3 -1 0 0 0 0];

internalField   nonuniform List<scalar> 
11516
(
9.98713e+06
814.663
10281.8
9.97146e+06
569.493
21936.7
9.94393e+06
781.934
32667.4
9.90544e+06
595.557
42836.6
9.85642e+06
503.8
52870.2
9.79746e+06
585.718
62746.9
9.72944e+06
750.856
72247.2
9.65307e+06
924.278
81236.8
9.5686e+06
1033.25
89764.3
9.47534e+06
975.475
98300.6
9.37211e+06
696.127
107127
9.25788e+06
211.278
116243
9.13318e+06
-381
125906
9.00259e+06
-625.51
133079
8.87788e+06
-1459.38
134395
8.781e+06
-352.409
114257
8.72787e+06
3488.74
74462.9
8.71002e+06
4646.04
40846.5
8.66049e+06
4053.26
72537.8
8.54832e+06
6134.96
130829
8.40624e+06
1890.11
160542
8.24421e+06
-1735.47
181460
8.06679e+06
-5608.48
199716
7.86903e+06
-10662.3
225894
7.64298e+06
-16619.4
259068
7.41259e+06
-21875.4
266908
7.19668e+06
-18640.1
251389
7.00591e+06
-11053.2
221229
6.85569e+06
-12510
185895
6.77342e+06
-23000.5
128297
6.80008e+06
-29113
30896.5
6.96197e+06
-22692.2
-113742
7.24163e+06
530.788
-256758
7.57158e+06
34644.2
-344427
7.9486e+06
64929.6
-396649
8.33195e+06
26432.2
-427582
8.53938e+06
55659.9
-292010
8.66314e+06
76441.8
-177939
8.73392e+06
78741.6
-115269
8.81217e+06
43300.7
-22292.5
8.78616e+06
-8634.78
180249
8.64273e+06
-23785
354065
8.43162e+06
-10678.2
446900
8.23814e+06
52181.8
497493
8.08572e+06
52906.5
549229
8.09828e+06
20428.2
462359
8.1314e+06
57761.3
548605
8.18784e+06
14862.1
490623
8.28324e+06
43469
465990
8.75962e+06
-126907
239145
8.5887e+06
-271771
790882
1.0835e+07
-2.14364e+06
-283719
1.56289e+07
-3.99782e+06
-139786
-3.84339e+06
2.20066e+06
9.98837e+06
10266.8
9.97146e+06
21940
9.94341e+06
32610.5
9.90447e+06
42684.1
9.85519e+06
52613.7
9.79629e+06
62418.3
9.72854e+06
71888.7
9.6525e+06
80942.6
9.56824e+06
89663.6
9.47492e+06
98521.4
9.37123e+06
107872
9.2563e+06
117552
9.13028e+06
127893
8.99788e+06
136055
8.86835e+06
137127
8.76354e+06
118668
8.71547e+06
70341.2
8.70699e+06
31297.7
8.66277e+06
65528.8
8.55255e+06
129422
8.4095e+06
156886
8.24748e+06
171925
8.06613e+06
187499
7.85896e+06
207999
7.61558e+06
237568
7.36037e+06
245159
7.11703e+06
237100
6.89975e+06
219743
6.72117e+06
179218
6.60658e+06
107519
6.58171e+06
8755.48
6.69571e+06
-120389
6.95224e+06
-237078
7.29286e+06
-292672
7.64785e+06
-297280
7.91808e+06
-262099
8.09741e+06
-130606
8.23322e+06
-61281
8.37711e+06
-10468
8.51404e+06
1899.3
8.44296e+06
159938
8.22195e+06
335094
7.99287e+06
443068
7.79811e+06
486204
7.59116e+06
597869
7.51763e+06
510649
7.49103e+06
532861
7.36095e+06
597025
7.19331e+06
428734
7.44687e+06
232861
6.42794e+06
316493
7.54384e+06
-2.60817e+06
7.52446e+06
-3.76648e+06
-8.67118e+06
1.00075e+07
810.544
5670.11
1.00189e+07
472.176
16446.2
1.00294e+07
635.383
26872.3
1.00386e+07
428.694
37340.8
1.00467e+07
338.752
47919.4
1.00539e+07
440.237
58781.2
1.00601e+07
652.459
69966.7
1.00653e+07
925.048
81268
1.00685e+07
1195.79
93362.2
1.00693e+07
1408.49
105650
1.00667e+07
1495.65
118758
1.00596e+07
1407.02
132530
1.00474e+07
1361.01
147908
1.00279e+07
1342.43
162556
9.99123e+06
2456.4
181987
9.91953e+06
3455.06
196445
9.80778e+06
4797.89
198380
9.59501e+06
2503.57
259056
9.34812e+06
897.924
322911
9.12949e+06
211.053
352551
8.9318e+06
1467.95
360134
8.75435e+06
2510.38
360463
8.58924e+06
3189.12
366429
8.42752e+06
4497.91
387826
8.26831e+06
5050.33
417591
8.10157e+06
5017.24
433217
7.91897e+06
5776.2
433185
7.71007e+06
6853.45
428341
7.51095e+06
5457.64
382604
7.38929e+06
1155.82
249068
7.41349e+06
-1087.72
4744
7.58241e+06
11989.8
-299249
7.83313e+06
22620
-537843
8.13635e+06
21223.6
-683322
8.45685e+06
-1650.21
-751629
8.61948e+06
-377.386
-618557
8.664e+06
-35568.2
-313643
8.64958e+06
-37670.3
-138112
8.65289e+06
-16839.7
-69090.7
8.77058e+06
-63066.4
-29486.5
8.9496e+06
-117631
168175
9.15882e+06
-171967
419675
9.46655e+06
-180315
488993
9.80843e+06
-180460
549713
1.01711e+07
-152205
627690
1.05102e+07
-119501
589824
1.09113e+07
-85258.3
601740
1.12356e+07
-31185.5
566705
1.16346e+07
-129274
423674
1.2015e+07
-326726
266373
1.09829e+07
-580123
2.41393e+06
1.15276e+07
-3.63092e+06
3.34169e+06
1.51869e+07
-5.02309e+06
1.6305e+06
-2.48656e+06
1.00898e+06
1.00087e+07
5654.64
1.00189e+07
16432
1.00287e+07
26841.2
1.00373e+07
37285
1.00448e+07
47833.1
1.00516e+07
58655.1
1.00577e+07
69799.3
1.0063e+07
81068.9
1.00663e+07
93191.5
1.00673e+07
105550
1.00651e+07
118867
1.00586e+07
133030
1.00471e+07
148584
1.0029e+07
164444
9.99891e+06
180955
9.93759e+06
195250
9.81744e+06
205615
9.59735e+06
257980
9.34668e+06
319479
9.12818e+06
350133
8.93316e+06
355334
8.7558e+06
354374
8.59118e+06
358987
8.42836e+06
379168
8.26928e+06
405341
8.10308e+06
420429
7.91546e+06
435460
7.70443e+06
442696
7.49446e+06
398026
7.32783e+06
274336
7.28915e+06
41991.1
7.4298e+06
-255672
7.68422e+06
-475636
7.98758e+06
-591524
8.2913e+06
-626409
8.51183e+06
-514896
8.64142e+06
-321623
8.71472e+06
-160291
8.79165e+06
-69843.4
8.98208e+06
-232161
9.15423e+06
-73140.8
9.30783e+06
108472
9.54583e+06
162893
9.82364e+06
243121
1.00846e+07
412882
1.03416e+07
368604
1.06724e+07
403085
1.09749e+07
487598
1.11809e+07
287473
1.03866e+07
703941
7.38135e+06
2.89793e+06
-2.27326e+06
3.73367e+06
-1.10205e+07
295701
-3.94247e+06
9.99964e+06
796.863
7331.28
9.99891e+06
461.474
23027.3
9.9922e+06
620.722
38142.4
9.98002e+06
408.091
53121.4
9.96283e+06
318.458
68104.4
9.94127e+06
440.776
83351.9
9.91622e+06
705.95
98817.1
9.88762e+06
1068.43
115162
9.85652e+06
1472.41
131706
9.82201e+06
1857.54
149405
9.78403e+06
2127.56
167679
9.74158e+06
2271.76
187155
9.69402e+06
2259.14
208425
9.63905e+06
2342.8
231220
9.57987e+06
2311.28
254696
9.50276e+06
3378.78
282783
9.40662e+06
1655.96
299498
9.30433e+06
614.311
360896
9.20117e+06
277.854
426072
9.08703e+06
671.704
466520
8.96321e+06
1401.15
483624
8.83391e+06
1990.72
490292
8.69659e+06
3112.37
505223
8.54813e+06
5589.09
535464
8.38612e+06
6890.89
577012
8.20372e+06
9028.05
611795
7.98157e+06
11699.6
651009
7.70913e+06
11006.8
698145
7.43344e+06
2845.8
661754
7.24434e+06
-5278.89
444116
7.21019e+06
-593.056
34689.4
7.29634e+06
14919.6
-408660
7.43138e+06
41260.8
-728066
7.60696e+06
65467.7
-955897
7.83605e+06
54250.9
-1.06638e+06
7.93591e+06
334.036
-738815
7.86618e+06
-87542.5
-177442
7.74011e+06
-138842
115681
7.65923e+06
-152736
162785
7.7229e+06
-161074
47439.1
7.78752e+06
-110080
220461
7.79552e+06
-163075
620310
8.02926e+06
-222342
586549
8.40805e+06
-224630
586250
8.86878e+06
-202054
571241
9.29454e+06
-128065
529640
9.84232e+06
-53979.9
418616
1.04028e+07
-25909.6
337769
1.10976e+07
-48493.6
54577.9
1.2036e+07
-303506
-215573
1.42122e+07
-315840
606084
1.64244e+07
-499696
1.72367e+06
1.51687e+07
408580
2.60946e+06
4237.82
127530
1.00008e+07
7322.47
9.99884e+06
23046.5
9.99156e+06
38137.7
9.97882e+06
53095.6
9.96121e+06
68065.2
9.93953e+06
83307.5
9.9146e+06
98781.3
9.88626e+06
115155
9.85546e+06
131763
9.8212e+06
149563
9.7834e+06
167986
9.74111e+06
187651
9.69355e+06
209039
9.63948e+06
231975
9.57706e+06
255030
9.50092e+06
282189
9.4064e+06
301423
9.30458e+06
360008
9.19962e+06
424788
9.08662e+06
463901
8.96359e+06
480640
8.83568e+06
486978
8.69981e+06
501740
8.54839e+06
540108
8.38322e+06
581243
8.19823e+06
619798
7.97239e+06
680478
7.69432e+06
739829
7.3832e+06
717496
7.13334e+06
518983
7.07668e+06
93874.6
7.18905e+06
-358678
7.39758e+06
-655512
7.66612e+06
-814486
7.95893e+06
-894134
8.07729e+06
-659853
8.04268e+06
-383507
7.96869e+06
-236544
7.90078e+06
-219142
8.11362e+06
-671951
8.20559e+06
-270469
8.15923e+06
47039.3
8.29604e+06
-59499.4
8.57402e+06
-109472
8.85787e+06
73540.1
9.23256e+06
61527.8
9.69605e+06
81964.6
1.02899e+07
92088.3
1.08563e+07
-157841
1.1481e+07
-127734
1.348e+07
678269
1.56801e+07
1.07135e+06
1.46999e+07
1.78295e+06
-3.03706e+06
9.9993e+06
787.018
9434.69
9.99886e+06
489.023
29439.5
9.99271e+06
639.002
48965.4
9.98108e+06
421.635
68419.6
9.96423e+06
323.477
88019.1
9.94271e+06
433.591
107959
9.91641e+06
689.611
129081
9.88629e+06
1051.88
150901
9.85219e+06
1475.77
173591
9.81399e+06
1896.1
197696
9.77075e+06
2228.55
222962
9.72132e+06
2427.69
249874
9.66495e+06
2398.78
278229
9.60081e+06
2281.07
307599
9.52626e+06
1624
337920
9.43962e+06
1515.2
371054
9.32937e+06
-631.774
404280
9.22564e+06
1246.03
460099
9.142e+06
-227.544
509226
9.0592e+06
241.044
548985
8.96454e+06
1145.72
578510
8.85337e+06
1454.62
603977
8.71606e+06
2004.3
646079
8.55387e+06
3791.15
699857
8.36884e+06
3221.92
764900
8.14905e+06
4026.3
835418
7.86449e+06
5275.26
940377
7.51036e+06
1235.08
1.06206e+06
7.1467e+06
-7572.67
1.04267e+06
6.89264e+06
-7730.14
710510
6.78458e+06
3247.26
139944
6.74385e+06
13883.1
-383404
6.73656e+06
31423.5
-756626
6.81377e+06
57479.1
-1.09606e+06
6.98085e+06
50181.9
-1.28941e+06
7.03918e+06
-75235.9
-729984
6.87156e+06
-275962
262575
6.67407e+06
-352361
632678
6.56553e+06
-318380
519816
6.55782e+06
-28890.9
19812.1
6.62107e+06
8890.39
137749
6.64042e+06
-44999.6
658814
6.84593e+06
-103072
569176
7.16974e+06
-94950.5
452886
7.54325e+06
-75143.7
423720
7.84149e+06
-39402.1
493256
8.20811e+06
-65340
443170
8.64946e+06
-18360.4
301956
9.06621e+06
-8375.37
35171.6
9.77381e+06
-78588.9
-412408
1.15559e+07
-216265
-541805
1.35724e+07
-215882
73621.8
1.5422e+07
-337140
1.08164e+06
-607418
-421728
1.00005e+07
9426.71
9.99878e+06
29445.8
9.99205e+06
48956.3
9.97988e+06
68405.7
9.96262e+06
88024.7
9.94099e+06
107999
9.91483e+06
129163
9.885e+06
151031
9.85126e+06
173773
9.81337e+06
197927
9.77036e+06
223241
9.72104e+06
250177
9.66465e+06
278582
9.60018e+06
307882
9.52471e+06
338370
9.43629e+06
370682
9.32627e+06
407537
9.22326e+06
462421
9.14025e+06
507180
9.05768e+06
547375
8.96202e+06
579493
8.84861e+06
605670
8.70901e+06
647965
8.54553e+06
710988
8.36188e+06
772675
8.13706e+06
854664
7.84106e+06
988532
7.47584e+06
1.11274e+06
7.10375e+06
1.0869e+06
6.85666e+06
760540
6.77e+06
183787
6.74957e+06
-325989
6.76218e+06
-640218
6.88382e+06
-885566
7.17632e+06
-1.14398e+06
7.2794e+06
-841923
7.16164e+06
-549961
6.91266e+06
-415028
6.58975e+06
-356745
6.60995e+06
-813431
6.70566e+06
-364249
6.67431e+06
56859.2
6.86068e+06
-272337
7.04766e+06
-288408
7.24648e+06
-90874.6
7.4821e+06
-59375.9
7.78886e+06
-76171.6
8.3105e+06
-188198
8.77565e+06
-302932
9.54867e+06
-547006
1.07368e+07
-691311
1.22373e+07
-445063
1.24137e+07
1.22472e+06
-4.26918e+06
9.99937e+06
781.459
11449.6
9.99912e+06
504.055
35775.5
9.99322e+06
666.55
59686.6
9.9819e+06
455.934
83641.8
9.96546e+06
361.546
107851
9.94434e+06
475.589
132619
9.9191e+06
739.021
158854
9.89035e+06
1113.15
185916
9.85783e+06
1552.26
214584
9.82142e+06
1987.22
244814
9.78035e+06
2334.2
276473
9.73356e+06
2524.6
309955
9.68028e+06
2510.25
344505
9.61857e+06
2275.48
380695
9.54574e+06
1735.5
417725
9.45889e+06
789.953
459247
9.3563e+06
905.845
503976
9.25033e+06
-876.741
566528
9.15183e+06
1337.61
607096
9.06159e+06
210.891
642105
8.96358e+06
1348.07
678687
8.84445e+06
1709.38
726611
8.69021e+06
230.931
805592
8.50127e+06
717.804
893162
8.28359e+06
-1417.16
989925
8.02144e+06
-1166.62
1.10586e+06
7.69806e+06
1193.16
1.26917e+06
7.32928e+06
192.397
1.43614e+06
6.97453e+06
-2393.79
1.40482e+06
6.68852e+06
-147.393
1.00004e+06
6.45055e+06
6913.48
372973
6.22062e+06
18706.2
-171213
6.0102e+06
36934.7
-583504
5.88056e+06
77293.4
-1.04402e+06
5.86718e+06
174974
-1.45143e+06
5.58303e+06
-172026
-261690
5.5325e+06
-340179
671316
5.25531e+06
-216582
1.05312e+06
4.93666e+06
-95759.8
767872
5.25137e+06
166682
-534563
5.4769e+06
74208.5
-169748
5.68614e+06
-55996.1
470844
6.02633e+06
-78226.4
259998
6.36805e+06
-32271
212503
6.54569e+06
-672.522
379658
6.78779e+06
2665.46
505279
7.13935e+06
-17868.7
439754
7.42378e+06
22481.5
371442
7.66008e+06
26069
115921
8.13237e+06
158246
-187351
8.32449e+06
261865
-697645
9.51356e+06
749068
-1.53935e+06
1.17466e+07
-1.19808e+06
375194
-968193
-411623
1.00005e+07
11433.1
9.99904e+06
35806.1
9.99257e+06
59704.1
9.98071e+06
83668.9
9.96387e+06
107913
9.94264e+06
132733
9.91755e+06
159030
9.88911e+06
186156
9.85694e+06
214878
9.82084e+06
245142
9.77999e+06
276804
9.73332e+06
310237
9.68003e+06
344724
9.61792e+06
380741
9.54462e+06
418109
9.45849e+06
459363
9.36005e+06
506345
9.25714e+06
565423
9.15551e+06
613276
9.05962e+06
647066
8.95638e+06
688512
8.82894e+06
739021
8.66854e+06
811145
8.48154e+06
902041
8.2632e+06
993600
7.99676e+06
1.12442e+06
7.68474e+06
1.30509e+06
7.33797e+06
1.46277e+06
7.00308e+06
1.42221e+06
6.73303e+06
1.03276e+06
6.51229e+06
413090
6.31861e+06
-112710
6.17991e+06
-463960
6.19136e+06
-819882
6.46167e+06
-1.23252e+06
6.62731e+06
-1.16497e+06
6.53946e+06
-794602
6.19547e+06
-364153
5.50433e+06
104148
5.21605e+06
-482733
5.27006e+06
-370508
5.50636e+06
-295176
5.81524e+06
-699168
6.12515e+06
-637171
6.32832e+06
-201626
6.46214e+06
10592.1
6.69798e+06
-34937.8
7.05951e+06
-164630
7.55472e+06
-296428
7.96809e+06
-631009
8.30148e+06
-583021
9.48156e+06
-804658
7.92971e+06
1.66884e+06
504331
9.99943e+06
765.248
13444.4
9.99938e+06
545.501
42073
9.99387e+06
702.546
70270.4
9.98317e+06
506.393
98612.3
9.96769e+06
432.856
127217
9.94761e+06
567.756
156891
9.92377e+06
850.875
187997
9.89649e+06
1239.69
220317
9.86585e+06
1683.19
254525
9.8317e+06
2106.54
290354
9.79281e+06
2420.07
328198
9.74833e+06
2554.43
367666
9.69675e+06
2478.77
408639
9.63659e+06
2176.79
451657
9.56697e+06
1818.51
496489
9.48806e+06
1201.82
545019
9.40205e+06
1042.16
596540
9.31705e+06
-127.175
659975
9.21818e+06
3385.47
712442
9.10711e+06
801.868
762530
8.98518e+06
1430.27
808133
8.84076e+06
-1187.2
878646
8.6781e+06
-2743.81
972384
8.4854e+06
-2241.05
1.0917e+06
8.25111e+06
-6539.67
1.2364e+06
7.96661e+06
-4415.57
1.40146e+06
7.64208e+06
1817.16
1.5972e+06
7.30052e+06
6873.7
1.77564e+06
6.94921e+06
9157.44
1.75153e+06
6.57592e+06
11890.4
1.36615e+06
6.16512e+06
17195.6
770630
5.70747e+06
36415.5
252352
5.16774e+06
82614.9
-123607
4.39981e+06
281381
-557378
1.75584e+06
1.13885e+06
62048.8
1.00366e+06
293611
215072
1.08017e+06
235434
507845
632819
331275
990084
1.4464e+06
-122769
-207615
3.01921e+06
-372941
-1.9336e+06
3.67822e+06
-15712.7
-914449
4.1026e+06
77584.5
-315588
4.49861e+06
40597.4
-380924
4.79968e+06
88692.7
-239847
5.09272e+06
142340
93255.1
5.46826e+06
103323
372239
5.8625e+06
47601.7
479058
6.39251e+06
-9633.88
363572
6.83143e+06
103602
82121.1
6.71959e+06
298059
-184170
6.07136e+06
896714
-594428
4.98807e+06
1.42232e+06
-1.43788e+06
4.20739e+06
-222393
1.55414e+06
-912173
1.88632e+06
1.00006e+07
13429.3
9.99929e+06
42076
9.99323e+06
70257.3
9.98201e+06
98604.2
9.96617e+06
127251
9.94599e+06
156989
9.92231e+06
188170
9.89532e+06
220563
9.86502e+06
254827
9.83114e+06
290687
9.79242e+06
328525
9.74798e+06
367940
9.69631e+06
408835
9.63605e+06
451769
9.56623e+06
496625
9.48686e+06
545285
9.40171e+06
598780
9.31725e+06
659003
9.22463e+06
719798
9.10901e+06
774584
8.98212e+06
823691
8.83665e+06
887207
8.66457e+06
984123
8.4573e+06
1.10976e+06
8.21891e+06
1.22966e+06
7.94264e+06
1.39978e+06
7.65152e+06
1.60136e+06
7.34197e+06
1.78206e+06
7.00843e+06
1.76838e+06
6.65173e+06
1.40513e+06
6.28032e+06
804910
5.91592e+06
290985
5.58048e+06
-45512.2
5.39995e+06
-349725
6.18357e+06
-869963
5.85633e+06
-494818
5.78834e+06
-482614
5.3143e+06
348508
3.79913e+06
1.23161e+06
3.05069e+06
-314227
2.98378e+06
-523611
3.1228e+06
-611291
3.23536e+06
-984131
3.68809e+06
-1.01845e+06
4.0821e+06
-286533
4.48675e+06
22477.6
4.9713e+06
-72762.5
5.46492e+06
-257714
6.03386e+06
-492153
6.54483e+06
-646773
7.46442e+06
-486842
8.99383e+06
-717977
9.67781e+06
1.12926e+06
1.11518e+06
9.99946e+06
753.809
15362.3
9.99978e+06
560.211
48088.9
9.99488e+06
738.467
80402.8
9.98505e+06
562.9
112962
9.9707e+06
506.703
145822
9.95198e+06
655.018
180268
9.92972e+06
946.996
216106
9.90418e+06
1337.42
253527
9.87563e+06
1771.56
292891
9.84303e+06
2172.72
334708
9.80624e+06
2452.36
378004
9.76357e+06
2550.13
423575
9.71358e+06
2448.92
471150
9.65575e+06
2227.84
520975
9.58977e+06
1956.89
573361
9.51736e+06
1854.25
629064
9.43953e+06
1951.64
688807
9.36233e+06
2834.19
753502
9.27553e+06
2079.5
819967
9.17214e+06
1101.55
887769
9.04008e+06
2551.38
960631
8.89233e+06
-6305.72
1.0457e+06
8.73497e+06
-5317.41
1.1416e+06
8.5414e+06
-3136.7
1.29079e+06
8.31183e+06
-12744.8
1.4828e+06
8.03895e+06
-12309.9
1.69198e+06
7.74499e+06
3328.78
1.89622e+06
7.43027e+06
17592.6
2.08002e+06
7.05241e+06
16933.7
2.11966e+06
6.5759e+06
18161.7
1.83119e+06
6.02792e+06
30410.4
1.29292e+06
5.39636e+06
56514.8
831742
4.42795e+06
153282
692431
1.79755e+06
767628
1.30871e+06
-1.41557e+06
1.13057e+06
2.13228e+06
-1.47788e+06
14243.2
265039
-645292
74447.6
-453099
-310403
373887
177609
522719
-503333
-756123
1.25882e+06
-707417
-2.1387e+06
2.1278e+06
-198961
-1.84924e+06
2.79979e+06
274877
-1.53941e+06
2.93727e+06
444568
-1.13083e+06
3.01003e+06
339760
-611082
3.37913e+06
279889
-241230
3.86677e+06
350304
63754
4.42741e+06
208854
374204
5.00853e+06
75064.9
324783
5.32202e+06
135625
160990
4.65092e+06
439445
455286
1.13188e+06
1.68524e+06
1.55682e+06
-2.44685e+06
1.59678e+06
680937
3.04726e+06
-1.22293e+06
-2.40777e+06
-2.38243e+06
-3.01211e+06
1.00006e+07
15344.9
9.99971e+06
48129.3
9.99428e+06
80427.7
9.98394e+06
112999
9.96923e+06
145900
9.95043e+06
180404
9.92832e+06
216306
9.90308e+06
253787
9.87483e+06
293198
9.84248e+06
335040
9.80581e+06
378344
9.76315e+06
423907
9.71314e+06
471489
9.65523e+06
521343
9.5892e+06
573879
9.51684e+06
629890
9.43992e+06
690067
9.36191e+06
754644
9.27692e+06
823470
9.17465e+06
894631
9.04396e+06
971532
8.88087e+06
1.05615e+06
8.69894e+06
1.16775e+06
8.50807e+06
1.30008e+06
8.2746e+06
1.45217e+06
8.00207e+06
1.66389e+06
7.74471e+06
1.86648e+06
7.47047e+06
2.07834e+06
7.12686e+06
2.13427e+06
6.68424e+06
1.87163e+06
6.18554e+06
1.33892e+06
5.69319e+06
841944
5.20965e+06
595053
4.78082e+06
843388
2.92569e+06
2.12643e+06
1.16095e+06
1.29285e+06
311567
387142
417530
438656
554842
440485
776772
-1.38919e+06
1.19711e+06
-1.36995e+06
1.83362e+06
-1.18325e+06
2.23395e+06
-960783
2.37543e+06
-620770
2.47764e+06
230691
2.98335e+06
375322
3.70685e+06
-48449.2
4.44127e+06
-401116
4.97549e+06
-496535
5.50789e+06
-455431
6.57586e+06
345472
7.32348e+06
394123
8.36828e+06
-1.05255e+06
-1.31655e+06
9.99954e+06
736.378
17223.9
1.00004e+07
614.39
53844.9
9.99622e+06
788.15
90077.3
9.98744e+06
627.515
126665
9.97431e+06
588.787
163680
9.95729e+06
748.288
202475
9.93706e+06
1043.78
242715
9.91346e+06
1427.67
285298
9.88674e+06
1845.56
329814
9.85673e+06
2223.19
376782
9.82194e+06
2486.36
426100
9.78139e+06
2587
477817
9.73396e+06
2543.96
532055
9.67906e+06
2454.93
589146
9.61709e+06
2405.32
649041
9.54986e+06
2692.96
712484
9.47832e+06
3020.81
779064
9.40455e+06
3693.18
849544
9.32393e+06
2938.17
924129
9.2342e+06
2246.46
1.0045e+06
9.12685e+06
1271.72
1.09242e+06
8.99502e+06
-14.8399
1.19816e+06
8.83421e+06
-2078.12
1.31328e+06
8.65796e+06
-6567.94
1.47348e+06
8.4524e+06
-17945.9
1.70589e+06
8.22823e+06
-19969.1
1.94121e+06
7.99985e+06
-7300.15
2.14121e+06
7.73724e+06
23097.8
2.34001e+06
7.35052e+06
37608.7
2.48999e+06
6.81496e+06
30080.2
2.35632e+06
6.22906e+06
28554.3
1.86209e+06
5.64113e+06
40305.8
1.3848e+06
5.00968e+06
81614.9
1.24376e+06
4.02021e+06
525172
1.76078e+06
1.7665e+06
1.02376e+06
3.35339e+06
352159
155434
1.458e+06
-92282.8
-20891.6
7532.45
807005
-115793
-489414
1.72181e+06
-422126
-1.10997e+06
2.34821e+06
-668057
-1.93762e+06
3.12419e+06
-322090
-2.18939e+06
3.65163e+06
66067.9
-2.04133e+06
3.93012e+06
233117
-1.51991e+06
3.76159e+06
287068
-324032
3.48236e+06
451661
32440.6
3.42835e+06
587530
284675
3.83892e+06
397332
389227
4.5127e+06
150654
324832
5.05904e+06
117850
299356
5.49803e+06
282653
370415
5.80028e+06
737961
772180
4.72461e+06
974032
942996
2.63578e+06
231194
-633408
260840
-1.53504e+06
1.00006e+07
17207.7
1.00003e+07
53850
9.99563e+06
90068.1
9.98637e+06
126664
9.97291e+06
163725
9.95582e+06
202589
9.93574e+06
242904
9.9124e+06
285555
9.88597e+06
330119
9.85617e+06
377110
9.82149e+06
426426
9.78098e+06
478122
9.73358e+06
532344
9.67875e+06
589434
9.61715e+06
649424
9.55011e+06
712908
9.47915e+06
779892
9.40428e+06
850849
9.32342e+06
926393
9.23261e+06
1.00655e+06
9.12668e+06
1.09576e+06
8.99608e+06
1.1989e+06
8.83752e+06
1.32817e+06
8.65447e+06
1.47453e+06
8.42521e+06
1.6647e+06
8.16457e+06
1.90867e+06
7.937e+06
2.09921e+06
7.70845e+06
2.3385e+06
7.41938e+06
2.46903e+06
6.97269e+06
2.35923e+06
6.39741e+06
1.95469e+06
5.83848e+06
1.44868e+06
5.31656e+06
1.19841e+06
5.20364e+06
1.47033e+06
5.8287e+06
2.495e+06
4.84595e+06
2.41101e+06
3.50066e+06
1.70959e+06
2.86808e+06
1.00841e+06
2.90718e+06
92203.8
2.53185e+06
-1.62337e+06
2.63082e+06
-1.72942e+06
3.15207e+06
-1.5315e+06
3.34015e+06
-770986
2.9959e+06
218114
2.40769e+06
1.62915e+06
2.35515e+06
1.59146e+06
3.23767e+06
354886
4.40517e+06
-531448
5.18958e+06
-491244
5.77587e+06
-303138
6.94436e+06
136545
8.01126e+06
406669
7.3368e+06
-207276
-798450
9.99961e+06
725.424
18943.6
1.0001e+07
631.569
59123.1
9.99778e+06
827.184
99014.4
9.99023e+06
685.926
139376
9.97866e+06
660.208
180305
9.96349e+06
825.157
223223
9.94516e+06
1119.07
267842
9.92405e+06
1493.96
314961
9.89978e+06
1896.06
364608
9.8721e+06
2255.38
416756
9.84017e+06
2506
471517
9.80241e+06
2610.54
529524
9.758e+06
2601.74
590356
9.70685e+06
2568.94
654214
9.64919e+06
2646.98
721577
9.58653e+06
2924.89
792210
9.5197e+06
3320.87
865906
9.44961e+06
3791.86
942929
9.37456e+06
3557.43
1.02249e+06
9.29405e+06
3168.38
1.10799e+06
9.20485e+06
2154.22
1.20001e+06
9.10618e+06
292.081
1.30988e+06
8.97321e+06
-373.993
1.44792e+06
8.81985e+06
6500.08
1.61374e+06
8.64209e+06
17223
1.86604e+06
8.45462e+06
-4521.28
2.13553e+06
8.31609e+06
-20685.8
2.31742e+06
8.19148e+06
-18502.3
2.5077e+06
7.99492e+06
19402.5
2.69524e+06
7.5513e+06
57005.6
2.77437e+06
6.79986e+06
66142.4
2.56989e+06
5.95029e+06
56298.1
2.18643e+06
5.25923e+06
70873.5
1.86797e+06
5.07923e+06
162267
1.75676e+06
5.26445e+06
397109
2.72895e+06
4.2983e+06
76717.3
2.30859e+06
3.36211e+06
-292692
1.22872e+06
3.06021e+06
-360920
247154
3.15107e+06
-450910
-610390
3.44268e+06
-835715
-1.31836e+06
3.61063e+06
-613007
-1.70404e+06
3.2845e+06
79723.2
-1.77976e+06
3.44356e+06
984824
-2.58931e+06
2.5156e+06
169974
491177
2.06874e+06
260116
594844
2.27892e+06
1.04518e+06
-57572.3
2.02541e+06
1.61816e+06
334113
2.40973e+06
765748
404099
3.39677e+06
137886
136877
4.48269e+06
171411
-167533
6.05795e+06
224651
-539132
7.89354e+06
223895
-945663
8.16301e+06
91809.1
-979567
717904
-2.25563e+06
1.00007e+07
18929.1
1.00009e+07
59170.2
9.99722e+06
99049.4
9.98921e+06
139425
9.97732e+06
180397
9.96208e+06
223372
9.9439e+06
268052
9.92304e+06
315226
9.89904e+06
364914
9.87156e+06
417091
9.83974e+06
471870
9.80202e+06
529895
9.75767e+06
590747
9.70673e+06
654629
9.64938e+06
722022
9.58708e+06
792619
9.52056e+06
866515
9.44999e+06
943234
9.37493e+06
1.02315e+06
9.29317e+06
1.10754e+06
9.20369e+06
1.19936e+06
9.10092e+06
1.30708e+06
8.98253e+06
1.44388e+06
8.85031e+06
1.61106e+06
8.70017e+06
1.83458e+06
8.50867e+06
2.10391e+06
8.28255e+06
2.31153e+06
8.05509e+06
2.55065e+06
7.851e+06
2.69897e+06
7.57266e+06
2.7076e+06
7.04e+06
2.56478e+06
6.29056e+06
2.25743e+06
5.57765e+06
1.97675e+06
5.2938e+06
1.89215e+06
5.93604e+06
2.22419e+06
6.16762e+06
2.23965e+06
5.7741e+06
1.8168e+06
5.27766e+06
1.18405e+06
4.55694e+06
387261
3.18774e+06
-1.07182e+06
2.52349e+06
-1.67966e+06
2.27276e+06
-1.22279e+06
1.69399e+06
739112
123480
1.97853e+06
57644.7
2.15038e+06
2.30662e+06
1.11333e+06
5.34693e+06
243112
6.47571e+06
371401
6.58721e+06
442542
6.93037e+06
172454
7.68518e+06
3340.4
8.70599e+06
-286277
8.94065e+06
-369286
-1.61729e+06
9.99972e+06
711.381
20572.3
1.00018e+07
692.234
63989.5
9.99964e+06
884.77
107235
9.9935e+06
756.031
151076
9.98371e+06
743.026
195612
9.97063e+06
912.478
242340
9.95469e+06
1202.69
291013
9.93609e+06
1566.96
342481
9.91471e+06
1954.6
396822
9.89e+06
2305.39
454051
9.86103e+06
2558.81
514342
9.82679e+06
2692.73
578275
9.78621e+06
2730.42
645617
9.7388e+06
2751.06
716492
9.68528e+06
2871.18
790798
9.62615e+06
3047.42
868260
9.5635e+06
3500.77
948197
9.49666e+06
3552.4
1.02945e+06
9.42789e+06
3580.47
1.11127e+06
9.35669e+06
2554.66
1.19411e+06
9.28627e+06
647.013
1.27968e+06
9.22058e+06
-2229.61
1.37951e+06
9.13705e+06
-6216.84
1.53244e+06
9.05841e+06
9373.55
1.68019e+06
8.94157e+06
34517.4
1.94385e+06
8.78957e+06
24003.5
2.25824e+06
8.62402e+06
-8776.83
2.47179e+06
8.45281e+06
-25790.7
2.68082e+06
8.30829e+06
-20190.1
2.8407e+06
8.10769e+06
3613.59
2.95851e+06
7.66469e+06
25090.7
2.97884e+06
6.90869e+06
56565.2
2.879e+06
6.07341e+06
88176.6
2.599e+06
5.46226e+06
49949
2.29822e+06
5.68488e+06
103799
2.37623e+06
5.66343e+06
55915.8
2.24563e+06
5.25814e+06
-73099.6
1.69247e+06
4.74022e+06
-192142
955808
4.21534e+06
-337455
200895
3.90943e+06
-930644
-199890
3.69532e+06
-1.21269e+06
-482340
3.15716e+06
-598112
-1.02106e+06
896440
221773
-1.28586e+06
-744157
171091
1.43515e+06
-251975
-157535
103844
653388
396628
-968198
1.77521e+06
594773
-747836
3.2036e+06
373372
-650810
4.59986e+06
181787
-687231
5.88703e+06
137440
-913527
6.88285e+06
165424
-1.19746e+06
7.54001e+06
237336
-1.46836e+06
7.8381e+06
95667.5
-1.35771e+06
725760
-2.33075e+06
1.00007e+07
20557.4
1.00017e+07
63997.1
9.99908e+06
107234
9.99252e+06
151087
9.98242e+06
195672
9.96929e+06
242469
9.95348e+06
291214
9.93513e+06
342743
9.914e+06
397125
9.88948e+06
454372
9.86063e+06
514662
9.82644e+06
578579
9.78597e+06
645901
9.73878e+06
716757
9.68553e+06
791010
9.62694e+06
868458
9.56412e+06
948177
9.49755e+06
1.02941e+06
9.42768e+06
1.11094e+06
9.355e+06
1.19319e+06
9.28138e+06
1.27852e+06
9.20763e+06
1.37656e+06
9.139e+06
1.50296e+06
9.08092e+06
1.67221e+06
9.01762e+06
1.92469e+06
8.90184e+06
2.23192e+06
8.67909e+06
2.50425e+06
8.45554e+06
2.72694e+06
8.25272e+06
2.86438e+06
8.02275e+06
2.92888e+06
7.67034e+06
2.93299e+06
7.12452e+06
2.84921e+06
6.46174e+06
2.71408e+06
5.83245e+06
2.55752e+06
5.72797e+06
2.41891e+06
5.84703e+06
2.16456e+06
5.84689e+06
1.73915e+06
5.57593e+06
1.24538e+06
4.76558e+06
811691
2.11401e+06
543148
-1.18793e+06
268367
-3.42013e+06
229099
-4.18242e+06
1.53249e+06
-4.36424e+06
2.18945e+06
-3.13961e+06
768256
-1.07512e+06
-304895
689647
-401028
2.16039e+06
-61767
3.40516e+06
20188.4
4.5122e+06
-299851
5.71062e+06
-697085
6.85352e+06
-1.06138e+06
7.78632e+06
-1.0295e+06
-2.65111e+06
9.99982e+06
703.042
22003
1.00027e+07
710.283
68210.9
1.00017e+07
923.161
114445
9.99712e+06
810.945
161413
9.98931e+06
806.552
209216
9.97859e+06
975.341
259416
9.96512e+06
1256.92
312021
9.94945e+06
1605.84
367318
9.93147e+06
1974.11
425791
9.9102e+06
2305.04
487962
9.88473e+06
2544.59
553635
9.85435e+06
2671.46
623056
9.81776e+06
2703.71
696686
9.77471e+06
2709.29
774012
9.72475e+06
2749.86
855435
9.66887e+06
2861.37
939578
9.60775e+06
3029.29
1.0255e+06
9.54271e+06
2931.49
1.11045e+06
9.47561e+06
2803.46
1.19254e+06
9.41036e+06
1121.71
1.26711e+06
9.3534e+06
607.636
1.33672e+06
9.33591e+06
-7705.73
1.39278e+06
9.33947e+06
-1292.62
1.52132e+06
9.33845e+06
9335.58
1.64543e+06
9.30095e+06
24517
1.92668e+06
9.16779e+06
26700.6
2.32173e+06
8.91302e+06
2405.44
2.67074e+06
8.65492e+06
-13469.5
2.90043e+06
8.43065e+06
-18407.7
3.0396e+06
8.22808e+06
-13666
3.14167e+06
7.97853e+06
-7957.2
3.21134e+06
7.59337e+06
3017.9
3.23865e+06
6.99048e+06
15472.2
3.16826e+06
6.28005e+06
7324.06
2.98976e+06
5.91299e+06
17864.3
2.71956e+06
5.75337e+06
23069.9
2.37369e+06
5.5356e+06
8967.22
1.88861e+06
5.18719e+06
-45259.5
1.31544e+06
4.71928e+06
-134314
722832
4.46665e+06
-393340
302461
4.56646e+06
-972557
183887
4.63621e+06
-1.46252e+06
84055.4
4.31858e+06
-1.18274e+06
-112646
5.08817e+06
366998
55029.7
5.26362e+06
460550
-689418
5.32745e+06
180436
-1.28841e+06
5.75531e+06
282903
-1.3788e+06
6.3958e+06
292603
-1.31543e+06
7.15262e+06
170047
-1.27863e+06
7.84268e+06
127727
-1.39236e+06
8.57287e+06
80714.9
-1.65058e+06
9.26525e+06
16914.2
-1.91714e+06
1.04459e+07
-87884.3
-2.04755e+06
67180.9
-2.34694e+06
1.00008e+07
21993.1
1.00026e+07
68257.6
1.00011e+07
114485
9.99618e+06
161469
9.98808e+06
209313
9.9773e+06
259563
9.96396e+06
312219
9.94852e+06
367558
9.93078e+06
426058
9.9097e+06
488238
9.88433e+06
553910
9.85401e+06
623312
9.81752e+06
696915
9.77464e+06
774186
9.72499e+06
855503
9.66937e+06
939481
9.60836e+06
1.02504e+06
9.54308e+06
1.10985e+06
9.47486e+06
1.19108e+06
9.40716e+06
1.26622e+06
9.34742e+06
1.33482e+06
9.30584e+06
1.40194e+06
9.29629e+06
1.49121e+06
9.3181e+06
1.63461e+06
9.30705e+06
1.93328e+06
9.1794e+06
2.34259e+06
8.95097e+06
2.69053e+06
8.7103e+06
2.91126e+06
8.47228e+06
3.04923e+06
8.22014e+06
3.14107e+06
7.92911e+06
3.19565e+06
7.56116e+06
3.20338e+06
7.10439e+06
3.17518e+06
6.57604e+06
3.08926e+06
6.12822e+06
2.88112e+06
5.81243e+06
2.49861e+06
5.57223e+06
1.97242e+06
5.30918e+06
1.42791e+06
4.95041e+06
969597
4.16874e+06
822303
2.29148e+06
993902
-440975
1.23968e+06
-1.6766e+06
1.27464e+06
-42929.4
644542
1.42573e+06
-432265
1.95986e+06
-704908
2.58402e+06
-617839
3.66987e+06
-604751
4.89933e+06
-777591
6.19001e+06
-1.21175e+06
7.57242e+06
-1.78842e+06
9.12653e+06
-2.27657e+06
1.09514e+07
-2.79204e+06
-3.65721e+06
9.99994e+06
694.167
23299.1
1.00036e+07
768.966
71861.3
1.0004e+07
981.182
120669
1.00012e+07
878.055
170349
9.99535e+06
880.473
221194
9.98742e+06
1046.43
274029
9.97711e+06
1316.76
330105
9.96476e+06
1647.7
388970
9.94998e+06
1995.99
451569
9.93263e+06
2307.77
517864
9.91156e+06
2537.78
588370
9.88542e+06