/*--------------------------------*- C++ -*----------------------------------*\
| =========                 |                                                 |
| \\      /  F ield         | OpenFOAM: The Open Source CFD Toolbox           |
|  \\    /   O peration     | Version:  4.1                                   |
|   \\  /    A nd           | Web:      www.OpenFOAM.org                      |
|    \\/     M anipulation  |                                                 |
\*---------------------------------------------------------------------------*/
FoamFile
{
    version     2.0;
    format      ascii;
    class       volScalarField;
    location    "18";
    object      p;
}
// * * * * * * * * * * * * * * * * * * * * * * * * * * * * * * * * * * * * * //

dimensions      [0 2 -2 0 0 0 0];

internalField   nonuniform List<scalar> 
4432
(
-3.82049e+09
-3.0192e+09
6.09469e+09
2.9363e+10
8.05683e+09
-9.89522e+09
-6.26607e+09
-5.45211e+09
-5.97481e+09
-6.6849e+09
-6.92669e+09
-7.16699e+09
-7.59502e+09
-8.05536e+09
-8.43593e+09
-8.56453e+09
-8.30355e+09
-8.05343e+09
-7.96376e+09
-7.98125e+09
-7.99066e+09
-7.99893e+09
-7.99981e+09
-7.99526e+09
-7.98764e+09
-7.97948e+09
-7.97347e+09
-7.9722e+09
-7.97803e+09
-7.99305e+09
-8.0186e+09
-8.05601e+09
-8.10589e+09
-8.16424e+09
-8.22607e+09
-8.2905e+09
-8.35459e+09
-8.4178e+09
-8.48193e+09
-8.54815e+09
-8.6196e+09
-8.70046e+09
-8.79164e+09
-8.89432e+09
-9.02153e+09
-9.18907e+09
-9.38214e+09
-9.60777e+09
-9.92306e+09
-1.04343e+10
-1.14296e+10
-1.3443e+10
-1.58432e+10
-1.11737e+10
-6.52249e+09
-1.91533e+09
2.27947e+09
6.71267e+09
4.44323e+09
-1.06906e+10
-9.85695e+09
-7.69906e+09
-7.48567e+09
-7.75731e+09
-7.50197e+09
-7.33896e+09
-7.60787e+09
-8.09328e+09
-8.48686e+09
-8.5746e+09
-8.2752e+09
-8.02681e+09
-7.96979e+09
-7.98762e+09
-7.99563e+09
-8.00592e+09
-8.00855e+09
-8.00617e+09
-8.00057e+09
-7.9945e+09
-7.99063e+09
-7.99159e+09
-7.99967e+09
-8.0169e+09
-8.04468e+09
-8.08427e+09
-8.13624e+09
-8.19788e+09
-8.26498e+09
-8.33364e+09
-8.40089e+09
-8.46741e+09
-8.53519e+09
-8.60517e+09
-8.67979e+09
-8.76277e+09
-8.85429e+09
-8.95406e+09
-9.07073e+09
-9.21917e+09
-9.39125e+09
-9.58312e+09
-9.88643e+09
-1.0407e+10
-1.14689e+10
-1.38487e+10
-1.63202e+10
-1.03841e+10
-4.20511e+08
8.13698e+08
-3.64309e+07
-9.47396e+09
-5.00474e+09
-1.27477e+10
-1.56635e+10
-1.17409e+10
-9.48059e+09
-8.51924e+09
-7.51063e+09
-7.16825e+09
-7.33605e+09
-7.72196e+09
-8.17598e+09
-8.54337e+09
-8.47829e+09
-8.17852e+09
-8.03403e+09
-7.99499e+09
-7.99936e+09
-8.00498e+09
-8.00469e+09
-7.99736e+09
-7.98604e+09
-7.97355e+09
-7.96302e+09
-7.95732e+09
-7.95886e+09
-7.96969e+09
-7.99085e+09
-8.0235e+09
-8.07068e+09
-8.12591e+09
-8.17502e+09
-8.22329e+09
-8.27703e+09
-8.33453e+09
-8.39506e+09
-8.45559e+09
-8.51675e+09
-8.58547e+09
-8.66971e+09
-8.77134e+09
-8.8974e+09
-9.0937e+09
-9.34451e+09
-9.59318e+09
-9.96892e+09
-1.06306e+10
-1.19049e+10
-1.43116e+10
-1.57192e+10
-8.19409e+09
-3.44393e+09
-2.83379e+09
-1.94774e+09
-4.72123e+09
-7.19452e+09
-1.39795e+10
-1.59982e+10
-1.15573e+10
-9.5439e+09
-8.40815e+09
-7.43518e+09
-7.06325e+09
-7.23608e+09
-7.67436e+09
-8.19817e+09
-8.59896e+09
-8.46245e+09
-8.11747e+09
-8.02331e+09
-7.99693e+09
-8.0046e+09
-8.01133e+09
-8.01276e+09
-8.00731e+09
-7.99801e+09
-7.98767e+09
-7.97937e+09
-7.97593e+09
-7.97963e+09
-7.99225e+09
-8.01477e+09
-8.04806e+09
-8.09332e+09
-8.1474e+09
-8.20324e+09
-8.25822e+09
-8.3116e+09
-8.3676e+09
-8.42991e+09
-8.49289e+09
-8.55558e+09
-8.62525e+09
-8.70823e+09
-8.80696e+09
-8.92945e+09
-9.10523e+09
-9.33098e+09
-9.59255e+09
-9.987e+09
-1.06634e+10
-1.19777e+10
-1.44723e+10
-1.61352e+10
-8.61087e+09
-3.96481e+09
-2.42243e+09
-5.27987e+08
-1.33753e+10
-9.33311e+09
-1.19006e+10
-1.40526e+10
-1.29407e+10
-1.10979e+10
-9.30156e+09
-7.74211e+09
-7.11197e+09
-7.04293e+09
-7.32774e+09
-7.88175e+09
-8.33972e+09
-8.35599e+09
-8.14776e+09
-8.06059e+09
-8.02747e+09
-8.02867e+09
-8.03069e+09
-8.02701e+09
-8.01547e+09
-7.99927e+09
-7.98151e+09
-7.96557e+09
-7.95435e+09
-7.9495e+09
-7.95217e+09
-7.96281e+09
-7.98002e+09
-8.00643e+09
-8.05104e+09
-8.09032e+09
-8.1126e+09
-8.15233e+09
-8.19355e+09
-8.23448e+09
-8.26698e+09
-8.29821e+09
-8.34568e+09
-8.42101e+09
-8.52487e+09
-8.67069e+09
-8.88516e+09
-9.17185e+09
-9.54672e+09
-1.00836e+10
-1.08625e+10
-1.21319e+10
-1.42403e+10
-1.55888e+10
-8.13981e+09
-2.80166e+09
-3.91915e+09
-3.31394e+09
-4.72222e+09
-1.04495e+10
-1.30242e+10
-1.29975e+10
-1.13171e+10
-1.02701e+10
-8.66529e+09
-7.36363e+09
-6.87427e+09
-6.9664e+09
-7.35607e+09
-7.90147e+09
-8.38043e+09
-8.32396e+09
-8.09666e+09
-8.03632e+09
-8.01978e+09
-8.02741e+09
-8.03216e+09
-8.03022e+09
-8.02041e+09
-8.00575e+09
-7.98937e+09
-7.97463e+09
-7.96442e+09
-7.96078e+09
-7.96466e+09
-7.97558e+09
-7.9925e+09
-8.01772e+09
-8.05375e+09
-8.0908e+09
-8.12876e+09
-8.16878e+09
-8.21011e+09
-8.2505e+09
-8.28142e+09
-8.30972e+09
-8.35475e+09
-8.42673e+09
-8.52852e+09
-8.66957e+09
-8.87714e+09
-9.16924e+09
-9.55988e+09
-1.01144e+10
-1.09326e+10
-1.22593e+10
-1.44084e+10
-1.57984e+10
-8.66084e+09
-5.5719e+09
-7.18549e+09
-6.82473e+09
-7.27226e+09
-1.08131e+10
-1.14814e+10
-1.2018e+10
-1.13936e+10
-1.0325e+10
-8.80647e+09
-7.48672e+09
-6.99334e+09
-6.98992e+09
-7.29089e+09
-7.78299e+09
-8.16783e+09
-8.1935e+09
-8.07974e+09
-8.04619e+09
-8.04261e+09
-8.05241e+09
-8.05662e+09
-8.05237e+09
-8.03977e+09
-8.02237e+09
-8.00377e+09
-7.98691e+09
-7.97406e+09
-7.9654e+09
-7.96007e+09
-7.95918e+09
-7.95764e+09
-7.95495e+09
-8.03406e+09
-8.16778e+09
-8.13315e+09
-8.10196e+09
-8.12307e+09
-8.14028e+09
-8.15424e+09
-8.1635e+09
-8.18907e+09
-8.24333e+09
-8.31928e+09
-8.43593e+09
-8.62689e+09
-8.9011e+09
-9.30529e+09
-9.89427e+09
-1.07162e+10
-1.19753e+10
-1.39966e+10
-1.53601e+10
-8.22781e+09
-4.29544e+09
-4.91878e+09
-6.0879e+09
-7.82146e+09
-1.25492e+10
-1.17285e+10
-9.83875e+09
-9.32835e+09
-9.26514e+09
-8.19358e+09
-7.24855e+09
-6.89525e+09
-6.98702e+09
-7.3504e+09
-7.83947e+09
-8.18133e+09
-8.14955e+09
-8.04299e+09
-8.02699e+09
-8.03561e+09
-8.05122e+09
-8.05855e+09
-8.05643e+09
-8.04526e+09
-8.02881e+09
-8.01092e+09
-7.99515e+09
-7.98413e+09
-7.97886e+09
-7.97893e+09
-7.98345e+09
-7.99197e+09
-8.00992e+09
-8.0473e+09
-8.085e+09
-8.11834e+09
-8.13581e+09
-8.1393e+09
-8.15771e+09
-8.17321e+09
-8.18294e+09
-8.20831e+09
-8.26473e+09
-8.34738e+09
-8.46504e+09
-8.65926e+09
-8.94877e+09
-9.37205e+09
-9.98531e+09
-1.08495e+10
-1.21758e+10
-1.42386e+10
-1.5441e+10
-8.14798e+09
-6.72227e+09
-8.11685e+09
-8.771e+09
-7.98943e+09
-1.02984e+10
-9.5228e+09
-9.28838e+09
-9.32012e+09
-9.2287e+09
-8.52967e+09
-7.52592e+09
-6.89945e+09
-6.96107e+09
-7.28578e+09
-7.71388e+09
-7.97272e+09
-8.00744e+09
-7.98259e+09
-7.99465e+09
-8.0169e+09
-8.03875e+09
-8.05011e+09
-8.04913e+09
-8.03781e+09
-8.02051e+09
-8.00204e+09
-7.98533e+09
-7.97296e+09
-7.96591e+09
-7.95878e+09
-7.9535e+09
-7.95316e+09
-7.96615e+09
-8.02432e+09
-8.09315e+09
-8.10206e+09
-8.09676e+09
-8.1061e+09
-8.11346e+09
-8.11884e+09
-8.12496e+09
-8.13765e+09
-8.16444e+09
-8.21308e+09
-8.30435e+09
-8.46853e+09
-8.72685e+09
-9.11112e+09
-9.66002e+09
-1.04231e+10
-1.16166e+10
-1.36685e+10
-1.53482e+10
-9.26492e+09
-6.11772e+09
-6.38424e+09
-7.35998e+09
-8.17666e+09
-1.04747e+10
-8.39588e+09
-7.27091e+09
-7.54999e+09
-7.92334e+09
-7.71822e+09
-7.24615e+09
-6.92203e+09
-6.99814e+09
-7.31531e+09
-7.71453e+09
-7.95413e+09
-7.97341e+09
-7.95809e+09
-7.98078e+09
-8.00992e+09
-8.03524e+09
-8.04812e+09
-8.04805e+09
-8.03696e+09
-8.01985e+09
-8.00188e+09
-7.98663e+09
-7.97572e+09
-7.96927e+09
-7.96862e+09
-7.97853e+09
-7.9952e+09
-8.00942e+09
-8.03681e+09
-8.07231e+09
-8.09853e+09
-8.1175e+09
-8.13051e+09
-8.14233e+09
-8.15166e+09
-8.16509e+09
-8.1872e+09
-8.22395e+09
-8.2872e+09
-8.3951e+09
-8.57416e+09
-8.85137e+09
-9.2599e+09
-9.83642e+09
-1.06371e+10
-1.18964e+10
-1.39591e+10
-1.5254e+10
-8.05936e+09
-7.89474e+09
-8.50261e+09
-8.49558e+09
-8.10491e+09
-8.69905e+09
-7.88975e+09
-7.52664e+09
-7.70368e+09
-7.96332e+09
-7.91308e+09
-7.51833e+09
-6.96994e+09
-6.96403e+09
-7.27726e+09
-7.60768e+09
-7.78962e+09
-7.85612e+09
-7.89439e+09
-7.94469e+09
-7.99121e+09
-8.02834e+09
-8.0487e+09
-8.0509e+09
-8.03719e+09
-8.01502e+09
-7.99283e+09
-7.97289e+09
-7.95116e+09
-7.93435e+09
-7.92828e+09
-7.9334e+09
-7.95079e+09
-7.97943e+09
-8.01384e+09
-8.03125e+09
-8.03921e+09
-8.05291e+09
-8.06724e+09
-8.07642e+09
-8.08252e+09
-8.08794e+09
-8.09622e+09
-8.11411e+09
-8.15449e+09
-8.23956e+09
-8.39304e+09
-8.63806e+09
-9.0021e+09
-9.50953e+09
-1.01978e+10
-1.12955e+10
-1.33399e+10
-1.52828e+10
-9.50024e+09
-7.74482e+09
-7.53552e+09
-7.41218e+09
-6.99389e+09
-8.19725e+09
-7.06023e+09
-6.67466e+09
-7.13089e+09
-7.41739e+09
-7.40233e+09
-7.13387e+09
-6.88049e+09
-6.95697e+09
-7.26687e+09
-7.58188e+09
-7.76125e+09
-7.82915e+09
-7.87831e+09
-7.93602e+09
-7.98708e+09
-8.02576e+09
-8.04675e+09
-8.04963e+09
-8.03772e+09
-8.01758e+09
-7.99578e+09
-7.97589e+09
-7.95959e+09
-7.94895e+09
-7.94411e+09
-7.95057e+09
-7.96781e+09
-7.98495e+09
-8.00727e+09
-8.03203e+09
-8.05129e+09
-8.07173e+09
-8.09095e+09
-8.10464e+09
-8.11602e+09
-8.13079e+09
-8.15023e+09
-8.1819e+09
-8.23877e+09
-8.34205e+09
-8.5153e+09
-8.78338e+09
-9.17076e+09
-9.70135e+09
-1.042e+10
-1.15669e+10
-1.35754e+10
-1.50549e+10
-8.2183e+09
-8.2984e+09
-8.64517e+09
-8.09738e+09
-7.74933e+09
-7.23446e+09
-6.84723e+09
-6.83823e+09
-7.10021e+09
-7.4476e+09
-7.58541e+09
-7.22076e+09
-6.88822e+09
-6.97948e+09
-7.25468e+09
-7.4866e+09
-7.63927e+09
-7.74197e+09
-7.82997e+09
-7.91706e+09
-7.99254e+09
-8.05013e+09
-8.08148e+09
-8.08532e+09
-8.06684e+09
-8.03746e+09
-8.00592e+09
-7.97554e+09
-7.951e+09
-7.93657e+09
-7.93118e+09
-7.93651e+09
-7.95609e+09
-7.98863e+09
-8.01952e+09
-8.0357e+09
-8.04937e+09
-8.06723e+09
-8.08586e+09
-8.10379e+09
-8.12016e+09
-8.13616e+09
-8.15772e+09
-8.19509e+09
-8.26355e+09
-8.38191e+09
-8.57281e+09
-8.86131e+09
-9.26801e+09
-9.80105e+09
-1.04705e+10
-1.14319e+10
-1.30735e+10
-1.47336e+10
-9.56422e+09
-8.30603e+09
-7.94957e+09
-7.60405e+09
-6.31798e+09
-6.11617e+09
-6.20881e+09
-6.83268e+09
-7.26353e+09
-7.40492e+09
-7.26576e+09
-6.96685e+09
-6.83213e+09
-6.97376e+09
-7.23989e+09
-7.46807e+09
-7.6191e+09
-7.72481e+09
-7.81895e+09
-7.90943e+09
-7.9868e+09
-8.04464e+09
-8.07682e+09
-8.0829e+09
-8.0679e+09
-8.03991e+09
-8.00799e+09
-7.98018e+09
-7.96042e+09
-7.94973e+09
-7.94701e+09
-7.95169e+09
-7.96462e+09
-7.9896e+09
-8.01715e+09
-8.03875e+09
-8.05876e+09
-8.08032e+09
-8.10119e+09
-8.12111e+09
-8.14121e+09
-8.16286e+09
-8.19126e+09
-8.237e+09
-8.31542e+09
-8.44659e+09
-8.65202e+09
-8.95674e+09
-9.38058e+09
-9.93102e+09
-1.06223e+10
-1.16058e+10
-1.32538e+10
-1.48656e+10
-9.18808e+09
-8.15138e+09
-8.18146e+09
-7.75806e+09
-7.24443e+09
-6.31547e+09
-5.7193e+09
-6.01737e+09
-6.60932e+09
-7.20189e+09
-7.44476e+09
-7.09164e+09
-6.87529e+09
-6.97981e+09
-7.18116e+09
-7.36375e+09
-7.51452e+09
-7.64863e+09
-7.77763e+09
-7.90068e+09
-8.00849e+09
-8.08874e+09
-8.13127e+09
-8.1353e+09
-8.11001e+09
-8.06849e+09
-8.0251e+09
-7.98893e+09
-7.96523e+09
-7.95534e+09
-7.95172e+09
-7.96037e+09
-7.99107e+09
-8.01783e+09
-8.03845e+09
-8.05901e+09
-8.08571e+09
-8.11546e+09
-8.14211e+09
-8.16634e+09
-8.19012e+09
-8.21738e+09
-8.25649e+09
-8.31877e+09
-8.41989e+09
-8.58175e+09
-8.83107e+09
-9.19579e+09
-9.69789e+09
-1.0342e+10
-1.11361e+10
-1.22175e+10
-1.38198e+10
-1.46269e+10
-7.91224e+09
-8.05128e+09
-7.66592e+09
-7.47636e+09
-6.37248e+09
-5.15747e+09
-5.01524e+09
-6.00505e+09
-6.64205e+09
-6.98487e+09
-7.09328e+09
-6.93506e+09
-6.87134e+09
-6.99233e+09
-7.18445e+09
-7.35931e+09
-7.50824e+09
-7.644e+09
-7.77454e+09
-7.89861e+09
-8.00662e+09
-8.08785e+09
-8.13214e+09
-8.13792e+09
-8.11331e+09
-8.07095e+09
-8.02622e+09
-7.99051e+09
-7.9673e+09
-7.96085e+09
-7.96637e+09
-7.97436e+09
-7.99342e+09
-8.0194e+09
-8.04511e+09
-8.0707e+09
-8.10111e+09
-8.13281e+09
-8.16026e+09
-8.18537e+09
-8.21126e+09
-8.24108e+09
-8.28402e+09
-8.35124e+09
-8.45839e+09
-8.62753e+09
-8.88495e+09
-9.25838e+09
-9.76961e+09
-1.04246e+10
-1.12351e+10
-1.23535e+10
-1.40486e+10
-1.49989e+10
-8.2307e+09
-7.56453e+09
-7.33154e+09
-7.21223e+09
-6.81708e+09
-6.13166e+09
-5.33754e+09
-5.55572e+09
-6.31222e+09
-6.92133e+09
-7.0136e+09
-6.8278e+09
-6.7895e+09
-6.90685e+09
-7.07381e+09
-7.24365e+09
-7.40753e+09
-7.57053e+09
-7.73446e+09
-7.89363e+09
-8.03588e+09
-8.14308e+09
-8.19979e+09
-8.1998e+09
-8.15473e+09
-8.08815e+09
-8.02475e+09
-7.97661e+09
-7.94628e+09
-7.93769e+09
-7.94242e+09
-7.94976e+09
-7.9735e+09
-8.00292e+09
-8.02825e+09
-8.05472e+09
-8.08041e+09
-8.10289e+09
-8.12157e+09
-8.13773e+09
-8.15274e+09
-8.17049e+09
-8.20001e+09
-8.25484e+09
-8.35321e+09
-8.51921e+09
-8.78204e+09
-9.17144e+09
-9.71164e+09
-1.04103e+10
-1.12822e+10
-1.24765e+10
-1.42766e+10
-1.54444e+10
-8.85738e+09
-7.22442e+09
-6.95779e+09
-7.00415e+09
-6.52274e+09
-5.3508e+09
-4.83125e+09
-5.51983e+09
-6.16261e+09
-6.53162e+09
-6.71249e+09
-6.73994e+09
-6.80168e+09
-6.92468e+09
-7.0862e+09
-7.24954e+09
-7.41206e+09
-7.57496e+09
-7.73847e+09
-7.89741e+09
-8.03954e+09
-8.14816e+09
-8.20556e+09
-8.20548e+09
-8.15967e+09
-8.09219e+09
-8.02729e+09
-7.97711e+09
-7.94482e+09
-7.93923e+09
-7.95438e+09
-7.96347e+09
-7.98364e+09
-8.01025e+09
-8.03765e+09
-8.06952e+09
-8.09876e+09
-8.1231e+09
-8.14333e+09
-8.1606e+09
-8.17743e+09
-8.19793e+09
-8.23059e+09
-8.28844e+09
-8.39023e+09
-8.56004e+09
-8.82645e+09
-9.21856e+09
-9.75949e+09
-1.04573e+10
-1.13269e+10
-1.2529e+10
-1.44312e+10
-1.59495e+10
-9.56163e+09
-6.61029e+09
-6.51762e+09
-6.47683e+09
-6.58371e+09
-6.58077e+09
-5.91156e+09
-5.74235e+09
-6.17799e+09
-6.47947e+09
-6.48826e+09
-6.55469e+09
-6.66682e+09
-6.80653e+09
-6.96885e+09
-7.14195e+09
-7.32207e+09
-7.51032e+09
-7.70543e+09
-7.90201e+09
-8.0837e+09
-8.22802e+09
-8.3055e+09
-8.29538e+09
-8.20979e+09
-8.09804e+09
-8.00113e+09
-7.93411e+09
-7.89638e+09
-7.88625e+09
-7.90006e+09
-7.92822e+09
-7.96273e+09
-7.99663e+09
-8.02691e+09
-8.05492e+09
-8.077e+09
-8.09096e+09
-8.09784e+09
-8.09903e+09
-8.09587e+09
-8.09223e+09
-8.09717e+09
-8.12501e+09
-8.19596e+09
-8.3362e+09
-8.57676e+09
-8.94923e+09
-9.47867e+09
-1.01746e+10
-1.10573e+10
-1.23177e+10
-1.43631e+10
-1.64671e+10
-1.23958e+10
-6.25646e+09
-6.30785e+09
-6.56775e+09
-6.78315e+09
-6.36657e+09
-5.85025e+09
-5.57779e+09
-5.83364e+09
-6.15133e+09
-6.38513e+09
-6.54713e+09
-6.68107e+09
-6.81806e+09
-6.9785e+09
-7.14866e+09
-7.32856e+09
-7.51665e+09
-7.71132e+09
-7.90637e+09
-8.08768e+09
-8.23156e+09
-8.30839e+09
-8.29719e+09
-8.21236e+09
-8.10212e+09
-8.00641e+09
-7.9396e+09
-7.90228e+09
-7.89845e+09
-7.91965e+09
-7.94385e+09
-7.97391e+09
-8.00667e+09
-8.03729e+09
-8.0688e+09
-8.09457e+09
-8.11063e+09
-8.11855e+09
-8.12019e+09
-8.11771e+09
-8.11578e+09
-8.12355e+09
-8.1551e+09
-8.23042e+09
-8.3755e+09
-8.62073e+09
-8.99682e+09
-9.52801e+09
-1.02242e+10
-1.11112e+10
-1.238e+10
-1.44652e+10
-1.65825e+10
-1.17861e+10
-5.78415e+09
-5.93719e+09
-5.99742e+09
-6.75348e+09
-7.06332e+09
-6.58809e+09
-6.15258e+09
-6.05331e+09
-6.12587e+09
-6.27694e+09
-6.43502e+09
-6.57592e+09
-6.71984e+09
-6.88125e+09
-7.05913e+09
-7.25218e+09
-7.45992e+09
-7.68221e+09
-7.91464e+09
-8.14157e+09
-8.33508e+09
-8.4472e+09
-8.41982e+09
-8.25895e+09
-8.05873e+09
-7.90631e+09
-7.81771e+09
-7.78162e+09
-7.7869e+09
-7.8252e+09
-7.88017e+09
-7.93497e+09
-7.9837e+09
-8.02709e+09
-8.06564e+09
-8.09585e+09
-8.11532e+09
-8.12539e+09
-8.12779e+09
-8.12415e+09
-8.11906e+09
-8.12168e+09
-8.14683e+09
-8.21576e+09
-8.35619e+09
-8.60101e+09
-8.98512e+09
-9.53799e+09
-1.02751e+10
-1.12458e+10
-1.2705e+10
-1.49957e+10
-1.6448e+10
-1.01257e+10
-5.52331e+09
-5.95672e+09
-6.45636e+09
-7.0249e+09
-7.10832e+09
-6.41017e+09
-5.76411e+09
-5.8612e+09
-6.07802e+09
-6.26617e+09
-6.43233e+09
-6.58017e+09
-6.72434e+09
-6.88484e+09
-7.06196e+09
-7.25549e+09
-7.46442e+09
-7.68684e+09
-7.91775e+09
-8.14279e+09
-8.33408e+09
-8.44332e+09
-8.4126e+09
-8.25054e+09
-8.05138e+09
-7.90184e+09
-7.81498e+09
-7.78166e+09
-7.79235e+09
-7.83219e+09
-7.88388e+09
-7.93586e+09
-7.98475e+09
-8.0291e+09
-8.06961e+09
-8.1018e+09
-8.12237e+09
-8.13263e+09
-8.13482e+09
-8.13104e+09
-8.12636e+09
-8.13027e+09
-8.15754e+09
-8.22886e+09
-8.37141e+09
-8.61806e+09
-9.00351e+09
-9.55686e+09
-1.02951e+10
-1.12723e+10
-1.2771e+10
-1.51093e+10
-1.62038e+10
-8.74464e+09
-5.45227e+09
-5.78905e+09
-6.18627e+09
-6.85703e+09
-6.92875e+09
-6.63463e+09
-6.31822e+09
-6.15854e+09
-6.16349e+09
-6.25601e+09
-6.3799e+09
-6.51783e+09
-6.6614e+09
-6.8194e+09
-6.99884e+09
-7.19992e+09
-7.42353e+09
-7.66931e+09
-7.93576e+09
-8.21364e+09
-8.4763e+09
-8.65901e+09
-8.64236e+09
-8.36414e+09
-8.00556e+09
-7.76564e+09
-7.65927e+09
-7.63568e+09
-7.6674e+09
-7.73036e+09
-7.80681e+09
-7.87978e+09
-7.9426e+09
-7.99586e+09
-8.04025e+09
-8.07503e+09
-8.09936e+09
-8.11424e+09
-8.12165e+09
-8.1241e+09
-8.12697e+09
-8.14008e+09
-8.1794e+09
-8.26799e+09
-8.4352e+09
-8.71454e+09
-9.14075e+09
-9.74191e+09
-1.05325e+10
-1.15536e+10
-1.30165e+10
-1.51291e+10
-1.60627e+10
-8.52595e+09
-5.39029e+09
-6.06365e+09
-6.62164e+09
-6.95228e+09
-6.76698e+09
-6.28808e+09
-6.09984e+09
-6.10894e+09
-6.17007e+09
-6.26689e+09
-6.38459e+09
-6.5187e+09
-6.66121e+09
-6.81825e+09
-6.99745e+09
-7.19967e+09
-7.42603e+09
-7.67409e+09
-7.94079e+09
-8.21634e+09
-8.47527e+09
-8.65351e+09
-8.63245e+09
-8.34643e+09
-7.98965e+09
-7.75242e+09
-7.64818e+09
-7.6279e+09
-7.66456e+09
-7.72782e+09
-7.80076e+09
-7.87113e+09
-7.93278e+09
-7.98515e+09
-8.02868e+09
-8.06232e+09
-8.08487e+09
-8.09719e+09
-8.10135e+09
-8.10006e+09
-8.0989e+09
-8.10801e+09
-8.14364e+09
-8.22798e+09
-8.38907e+09
-8.66082e+09
-9.07794e+09
-9.66723e+09
-1.0442e+10
-1.14417e+10
-1.28728e+10
-1.49639e+10
-1.61312e+10
-1.01535e+10
-5.5482e+09
-5.88298e+09
-6.46831e+09
-6.67724e+09
-6.49283e+09
-6.32936e+09
-6.25459e+09
-6.22839e+09
-6.24333e+09
-6.30194e+09
-6.38774e+09
-6.49633e+09
-6.62252e+09
-6.76924e+09
-6.94455e+09
-7.14983e+09
-7.38873e+09
-7.66192e+09
-7.96959e+09
-8.30993e+09
-8.6699e+09
-9.00025e+09
-9.1009e+09
-8.64453e+09
-7.94789e+09
-7.51652e+09
-7.40335e+09
-7.42574e+09
-7.51268e+09
-7.61109e+09
-7.70765e+09
-7.79272e+09
-7.86276e+09
-7.9178e+09
-7.95994e+09
-7.99104e+09
-8.01173e+09
-8.02326e+09
-8.0279e+09
-8.02865e+09
-8.03116e+09
-8.04586e+09
-8.09011e+09
-8.18889e+09
-8.37297e+09
-8.67541e+09
-9.12813e+09
-9.75481e+09
-1.05633e+10
-1.15808e+10
-1.29888e+10
-1.50572e+10
-1.63002e+10
-9.97019e+09
-5.59495e+09
-6.20501e+09
-6.53982e+09
-6.54371e+09
-6.27527e+09
-6.15423e+09
-6.16992e+09
-6.1971e+09
-6.23902e+09
-6.30119e+09
-6.3842e+09
-6.48864e+09
-6.61266e+09
-6.75822e+09
-6.93356e+09
-7.14116e+09
-7.38488e+09
-7.66357e+09
-7.97312e+09
-8.31114e+09
-8.66482e+09
-8.98984e+09
-9.09241e+09
-8.62126e+09
-7.92733e+09
-7.50482e+09
-7.39709e+09
-7.42555e+09
-7.51828e+09
-7.61868e+09
-7.71445e+09
-7.79969e+09
-7.87031e+09
-7.92559e+09
-7.96798e+09
-7.99978e+09
-8.02089e+09
-8.0321e+09
-8.03571e+09
-8.03488e+09
-8.03539e+09
-8.048e+09
-8.09024e+09
-8.18583e+09
-8.36382e+09
-8.65785e+09
-9.09992e+09
-9.71335e+09
-1.05101e+10
-1.15267e+10
-1.29923e+10
-1.51725e+10
-1.61651e+10
-8.5816e+09
-5.68237e+09
-5.89118e+09
-6.33218e+09
-6.28964e+09
-6.19323e+09
-6.1749e+09
-6.21267e+09
-6.2533e+09
-6.29971e+09
-6.35754e+09
-6.42939e+09
-6.52025e+09
-6.63164e+09
-6.76795e+09
-6.94031e+09
-7.15311e+09
-7.41128e+09
-7.7173e+09
-8.06818e+09
-8.47104e+09
-8.93857e+09
-9.48193e+09
-9.94127e+09
-9.52694e+09
-8.17665e+09
-6.90693e+09
-6.95242e+09
-7.16107e+09
-7.36263e+09
-7.51988e+09
-7.64679e+09
-7.74726e+09
-7.82576e+09
-7.88496e+09
-7.92864e+09
-7.95963e+09
-7.97939e+09
-7.98969e+09
-7.99266e+09
-7.99148e+09
-7.99244e+09
-8.0073e+09
-8.05508e+09
-8.16178e+09
-8.3576e+09
-8.67433e+09
-9.14128e+09
-9.77596e+09
-1.0579e+10
-1.15727e+10
-1.29446e+10
-1.49213e+10
-1.5862e+10
-8.53267e+09
-5.70653e+09
-6.08922e+09
-6.24517e+09
-6.1457e+09
-6.06228e+09
-6.10905e+09
-6.18238e+09
-6.24414e+09
-6.29968e+09
-6.35888e+09
-6.42866e+09
-6.5149e+09
-6.62129e+09
-6.75308e+09
-6.92219e+09
-7.13481e+09
-7.39823e+09
-7.71697e+09
-8.0789e+09
-8.48792e+09
-8.94514e+09
-9.46138e+09
-9.95868e+09
-9.52522e+09
-8.16234e+09
-6.88841e+09
-6.94346e+09
-7.15528e+09
-7.3613e+09
-7.52013e+09
-7.64713e+09
-7.74735e+09
-7.82508e+09
-7.88321e+09
-7.92688e+09
-7.95876e+09
-7.97906e+09
-7.98914e+09
-7.99127e+09
-7.98886e+09
-7.98839e+09
-8.00206e+09
-8.04915e+09
-8.1541e+09
-8.3457e+09
-8.65593e+09
-9.11358e+09
-9.7357e+09
-1.05233e+10
-1.1499e+10
-1.2852e+10
-1.48864e+10
-1.62678e+10
-1.03067e+10
-5.84759e+09
-5.93299e+09
-6.10745e+09
-6.0685e+09
-6.08323e+09
-6.15328e+09
-6.23508e+09
-6.31165e+09
-6.38351e+09
-6.45501e+09
-6.53099e+09
-6.61767e+09
-6.72076e+09
-6.84614e+09
-7.0053e+09
-7.2048e+09
-7.44862e+09
-7.74384e+09
-8.08952e+09
-8.4902e+09
-8.96826e+09
-9.59367e+09
-1.0159e+10
-1.06371e+10
-1.02997e+10
-5.29988e+09
-6.38532e+09
-6.90755e+09
-7.23399e+09
-7.43843e+09
-7.58685e+09
-7.69494e+09
-7.77543e+09
-7.83442e+09
-7.87615e+09
-7.90262e+09
-7.91538e+09
-7.91652e+09
-7.90817e+09
-7.89389e+09
-7.8811e+09
-7.88281e+09
-7.91809e+09
-8.01155e+09
-8.19283e+09
-8.49336e+09
-8.93877e+09
-9.54085e+09
-1.02928e+10
-1.12017e+10
-1.24313e+10
-1.42909e+10
-1.5519e+10
-8.71544e+09
-5.92302e+09
-5.98093e+09
-6.05247e+09
-6.00696e+09
-6.03752e+09
-6.128e+09
-6.21794e+09
-6.3008e+09
-6.37674e+09
-6.45075e+09
-6.52813e+09
-6.61521e+09
-6.71824e+09
-6.84374e+09
-7.00294e+09
-7.20323e+09
-7.45196e+09
-7.75801e+09
-8.11922e+09
-8.53637e+09
-8.99738e+09
-9.55324e+09
-1.00924e+10
-1.06273e+10
-1.00425e+10
-5.43502e+09
-6.39456e+09
-6.89969e+09
-7.22468e+09
-7.43153e+09
-7.58199e+09
-7.69139e+09
-7.77335e+09
-7.83514e+09
-7.88074e+09
-7.91125e+09
-7.92826e+09
-7.93412e+09
-7.93122e+09
-7.92352e+09
-7.91888e+09
-7.93086e+09
-7.97885e+09
-8.08662e+09
-8.28262e+09
-8.59675e+09
-9.05531e+09
-9.67281e+09
-1.04457e+10
-1.13984e+10
-1.2746e+10
-1.47547e+10
-1.56778e+10
-8.37506e+09
-6.15116e+09
-6.0832e+09
-6.07244e+09
-6.06642e+09
-6.11003e+09
-6.18064e+09
-6.26091e+09
-6.34786e+09
-6.4322e+09
-6.51121e+09
-6.5883e+09
-6.67084e+09
-6.76604e+09
-6.88182e+09
-7.02816e+09
-7.21052e+09
-7.43432e+09
-7.7125e+09
-8.04977e+09
-8.44293e+09
-8.92007e+09
-9.57066e+09
-1.03212e+10
-1.06974e+10
-3.99617e+09
-6.34182e+09
-6.86466e+09
-7.18962e+09
-7.39273e+09
-7.53626e+09
-7.63774e+09
-7.71124e+09
-7.76287e+09
-7.7956e+09
-7.81082e+09
-7.80989e+09
-7.79453e+09
-7.76709e+09
-7.73216e+09
-7.69832e+09
-7.67861e+09
-7.69071e+09
-7.75832e+09
-7.91263e+09
-8.18572e+09
-8.59904e+09
-9.16073e+09
-9.85956e+09
-1.06872e+10
-1.17771e+10
-1.34972e+10
-1.52423e+10
-1.00104e+10
-6.26785e+09
-6.07448e+09
-6.06395e+09
-6.04996e+09
-6.09924e+09
-6.17517e+09
-6.25731e+09
-6.34389e+09
-6.42809e+09
-6.50993e+09
-6.59072e+09
-6.67543e+09
-6.77034e+09
-6.88288e+09
-7.02399e+09
-7.20216e+09
-7.4239e+09
-7.70313e+09
-8.05025e+09
-8.45626e+09
-8.93105e+09
-9.56128e+09
-1.02796e+10
-1.06394e+10
-4.40171e+09
-6.36842e+09
-6.86571e+09
-7.18576e+09
-7.39366e+09
-7.54281e+09
-7.64984e+09
-7.72953e+09
-7.78762e+09
-7.82744e+09
-7.8512e+09
-7.86054e+09
-7.85746e+09
-7.84497e+09
-7.82836e+09
-7.81689e+09
-7.82429e+09
-7.86846e+09
-7.97302e+09
-8.16848e+09
-8.48477e+09
-8.94472e+09
-9.55945e+09
-1.0319e+10
-1.1231e+10
-1.24741e+10
-1.43336e+10
-1.53354e+10
-8.30518e+09
-6.30714e+09
-6.16354e+09
-6.13752e+09
-6.14079e+09
-6.17628e+09
-6.23115e+09
-6.30129e+09
-6.38197e+09
-6.46674e+09
-6.55044e+09
-6.63123e+09
-6.71259e+09
-6.7999e+09
-6.90143e+09
-7.02904e+09
-7.19136e+09
-7.39128e+09
-7.63588e+09
-7.93118e+09
-8.27738e+09
-8.6998e+09
-9.21964e+09
-9.60914e+09
-9.72675e+09
-7.90952e+09
-6.73448e+09
-6.84215e+09
-7.07021e+09
-7.2779e+09
-7.43754e+09
-7.55929e+09
-7.65093e+09
-7.71994e+09
-7.76989e+09
-7.80215e+09
-7.81756e+09
-7.81726e+09
-7.80303e+09
-7.77808e+09
-7.74842e+09
-7.72345e+09
-7.71553e+09
-7.74132e+09
-7.82547e+09
-8.00175e+09
-8.30292e+09
-8.74786e+09
-9.34248e+09
-1.00733e+10
-1.09276e+10
-1.2035e+10
-1.37536e+10
-1.51413e+10
-9.24772e+09
-6.32003e+09
-6.15199e+09
-6.13238e+09
-6.13631e+09
-6.17565e+09
-6.23363e+09
-6.30624e+09
-6.38718e+09
-6.47027e+09
-6.55334e+09
-6.63523e+09
-6.71844e+09
-6.80783e+09
-6.9098e+09
-7.03343e+09
-7.18799e+09
-7.37915e+09
-7.61837e+09
-7.91613e+09
-8.2705e+09
-8.69922e+09
-9.21873e+09
-9.61265e+09
-9.79211e+09
-8.14833e+09
-6.76833e+09
-6.83833e+09
-7.05853e+09
-7.26672e+09
-7.43198e+09
-7.56104e+09
-7.6576e+09
-7.73026e+09
-7.78384e+09
-7.82034e+09
-7.84104e+09
-7.84725e+09
-7.84108e+09
-7.82641e+09
-7.80987e+09
-7.8012e+09
-7.81297e+09
-7.86195e+09
-7.97303e+09
-8.17955e+09
-8.51281e+09
-8.9931e+09
-9.62886e+09
-1.04085e+10
-1.13309e+10
-1.25481e+10
-1.43147e+10
-1.51993e+10
-8.11836e+09
-6.28488e+09
-6.19389e+09
-6.19067e+09
-6.20174e+09
-6.23505e+09
-6.28572e+09
-6.35103e+09
-6.42508e+09
-6.50482e+09
-6.58651e+09
-6.66696e+09
-6.74644e+09
-6.82877e+09
-6.92064e+09
-7.03187e+09
-7.17099e+09
-7.34003e+09
-7.54119e+09
-7.7773e+09
-8.04753e+09
-8.35461e+09
-8.66811e+09
-8.77374e+09
-8.36134e+09
-7.72428e+09
-7.35138e+09
-7.27855e+09
-7.31924e+09
-7.41681e+09
-7.51879e+09
-7.61193e+09
-7.69008e+09
-7.75328e+09
-7.80185e+09
-7.83557e+09
-7.85441e+09
-7.85938e+09
-7.85285e+09
-7.83926e+09
-7.82579e+09
-7.8218e+09
-7.83924e+09
-7.89475e+09
-8.01411e+09
-8.23312e+09
-8.58649e+09
-9.09246e+09
-9.7551e+09
-1.05614e+10
-1.14998e+10
-1.26958e+10
-1.44187e+10
-1.53689e+10
-8.20213e+09
-6.27071e+09
-6.19338e+09
-6.18839e+09
-6.20093e+09
-6.23545e+09
-6.28762e+09
-6.35562e+09
-6.43243e+09
-6.51338e+09
-6.59535e+09
-6.67649e+09
-6.75758e+09
-6.84233e+09
-6.93635e+09
-7.0463e+09
-7.17905e+09
-7.34066e+09
-7.53786e+09
-7.77611e+09
-8.0532e+09
-8.36686e+09
-8.68149e+09
-8.77556e+09
-8.36167e+09
-7.72521e+09
-7.33946e+09
-7.26184e+09
-7.30717e+09
-7.40746e+09
-7.51345e+09
-7.61164e+09
-7.69236e+09
-7.75656e+09
-7.80575e+09
-7.84e+09
-7.85946e+09
-7.86527e+09
-7.86015e+09
-7.84893e+09
-7.83882e+09
-7.83891e+09
-7.8612e+09
-7.9228e+09
-8.04937e+09
-8.27564e+09
-8.63539e+09
-9.14752e+09
-9.81735e+09
-1.06304e+10
-1.15781e+10
-1.27964e+10
-1.45699e+10
-1.56635e+10
-8.77691e+09
-6.28235e+09
-6.23226e+09
-6.23544e+09
-6.25012e+09
-6.28603e+09
-6.33568e+09
-6.39832e+09
-6.47002e+09
-6.54722e+09
-6.62682e+09
-6.70614e+09
-6.78378e+09
-6.86281e+09
-6.95082e+09
-7.05562e+09
-7.18206e+09
-7.33143e+09
-7.50311e+09
-7.69675e+09
-7.90918e+09
-8.12675e+09
-8.29741e+09
-8.30393e+09
-8.07388e+09
-7.76957e+09
-7.57406e+09
-7.49772e+09
-7.49325e+09
-7.53568e+09
-7.59797e+09
-7.66394e+09
-7.72495e+09
-7.77718e+09
-7.81822e+09
-7.84628e+09
-7.86044e+09
-7.86172e+09
-7.85308e+09
-7.83967e+09
-7.82853e+09
-7.82854e+09
-7.85114e+09
-7.91274e+09
-8.03933e+09
-8.26774e+09
-8.6353e+09
-9.16202e+09
-9.85086e+09
-1.06878e+10
-1.167e+10
-1.29398e+10
-1.47548e+10
-1.57551e+10
-8.48694e+09
-6.28719e+09
-6.2345e+09
-6.23693e+09
-6.25035e+09
-6.2854e+09
-6.33536e+09
-6.39966e+09
-6.47375e+09
-6.55295e+09
-6.63392e+09
-6.71474e+09
-6.79464e+09
-6.87679e+09
-6.96733e+09
-7.07196e+09
-7.19453e+09
-7.33896e+09
-7.50911e+09
-7.70565e+09
-7.92354e+09
-8.14529e+09
-8.31442e+09
-8.31468e+09
-8.07499e+09
-7.76316e+09
-7.56416e+09
-7.49222e+09
-7.49291e+09
-7.53603e+09
-7.59885e+09
-7.66601e+09
-7.72705e+09
-7.77835e+09
-7.81775e+09
-7.84352e+09
-7.85484e+09
-7.85276e+09
-7.84047e+09
-7.82312e+09
-7.80734e+09
-7.80138e+09
-7.81669e+09
-7.87037e+09
-7.98809e+09
-8.20521e+09
-8.55797e+09
-9.06652e+09
-9.73301e+09
-1.05385e+10
-1.14792e+10
-1.27077e+10
-1.46102e+10
-1.63984e+10
-1.10416e+10
-6.32277e+09
-6.27541e+09
-6.28423e+09
-6.29975e+09
-6.33304e+09
-6.37843e+09
-6.43634e+09
-6.50362e+09
-6.57687e+09
-6.65349e+09
-6.73088e+09
-6.80631e+09
-6.88132e+09
-6.96413e+09
-7.0625e+09
-7.17766e+09
-7.30975e+09
-7.45757e+09
-7.61913e+09
-7.78974e+09
-7.95114e+09
-8.0617e+09
-8.06291e+09
-7.9477e+09
-7.79726e+09
-7.68758e+09
-7.63243e+09
-7.62044e+09
-7.64117e+09
-7.68174e+09
-7.7291e+09
-7.77601e+09
-7.81807e+09
-7.85095e+09
-7.8717e+09
-7.87895e+09
-7.87373e+09
-7.85933e+09
-7.84097e+09
-7.82511e+09
-7.81953e+09
-7.83475e+09
-7.88691e+09
-8.00191e+09
-8.21744e+09
-8.57368e+09
-9.09267e+09
-9.77559e+09
-1.06075e+10
-1.16013e+10
-1.29287e+10
-1.48912e+10
-1.62246e+10
-9.68604e+09
-6.32469e+09
-6.27828e+09
-6.28619e+09
-6.30046e+09
-6.33244e+09
-6.37739e+09
-6.43638e+09
-6.50591e+09
-6.58135e+09
-6.65932e+09
-6.73766e+09
-6.81458e+09
-6.89214e+09
-6.97669e+09
-7.07392e+09
-7.18603e+09
-7.31485e+09
-7.46263e+09
-7.62797e+09
-7.80234e+09
-7.96454e+09
-8.07157e+09
-8.06429e+09
-7.94097e+09
-7.78435e+09
-7.67502e+09
-7.62616e+09
-7.61849e+09
-7.6376e+09
-7.67548e+09
-7.71998e+09
-7.76302e+09
-7.80041e+09
-7.82772e+09
-7.84184e+09
-7.84132e+09
-7.82712e+09
-7.80245e+09
-7.7721e+09
-7.74177e+09
-7.71879e+09
-7.71361e+09
-7.74266e+09
-7.83136e+09
-8.01567e+09
-8.33465e+09
-8.81105e+09
-9.44394e+09
-1.02107e+10
-1.11234e+10
-1.23667e+10
-1.4431e+10
-1.68879e+10
-1.33604e+10
-6.35976e+09
-6.32297e+09
-6.33302e+09
-6.34745e+09
-6.3778e+09
-6.41924e+09
-6.47246e+09
-6.53506e+09
-6.60412e+09
-6.67685e+09
-6.75036e+09
-6.82165e+09
-6.89119e+09
-6.96604e+09
-7.05442e+09
-7.15867e+09
-7.27694e+09
-7.40631e+09
-7.5448e+09
-7.68557e+09
-7.81127e+09
-7.89451e+09
-7.91021e+09
-7.86383e+09
-7.79322e+09
-7.73554e+09
-7.70386e+09
-7.69653e+09
-7.71022e+09
-7.73997e+09
-7.77696e+09
-7.81475e+09
-7.84921e+09
-7.87577e+09
-7.89089e+09
-7.89319e+09
-7.88373e+09
-7.8659e+09
-7.84488e+09
-7.82693e+09
-7.81871e+09
-7.8293e+09
-7.87473e+09
-7.98156e+09
-8.18879e+09
-8.53805e+09
-9.05288e+09
-9.73202e+09
-1.05586e+10
-1.15608e+10
-1.2926e+10
-1.48937e+10
-1.60024e+10
-8.93493e+09
-6.36114e+09
-6.3244e+09
-6.33412e+09
-6.34775e+09
-6.37693e+09
-6.41743e+09
-6.47081e+09
-6.53474e+09
-6.60541e+09
-6.67935e+09
-6.75409e+09
-6.82732e+09
-6.89965e+09
-6.97657e+09
-7.06418e+09
-7.16545e+09
-7.28085e+09
-7.40931e+09
-7.54843e+09
-7.69045e+09
-7.8168e+09
-7.89763e+09
-7.90881e+09
-7.85651e+09
-7.78268e+09
-7.72741e+09
-7.70224e+09
-7.69909e+09
-7.71156e+09
-7.73828e+09
-7.77159e+09
-7.80458e+09
-7.83376e+09
-7.85461e+09
-7.8634e+09
-7.85874e+09
-7.84149e+09
-7.81467e+09
-7.7826e+09
-7.75081e+09
-7.7262e+09
-7.71823e+09
-7.7424e+09
-7.82439e+09
-8.00186e+09
-8.31673e+09
-8.79178e+09
-9.42724e+09