/*--------------------------------*- C++ -*----------------------------------*\
| =========                 |                                                 |
| \\      /  F ield         | OpenFOAM: The Open Source CFD Toolbox           |
|  \\    /   O peration     | Version:  4.1                                   |
|   \\  /    A nd           | Web:      www.OpenFOAM.org                      |
|    \\/     M anipulation  |                                                 |
\*---------------------------------------------------------------------------*/
FoamFile
{
    version     2.0;
    format      ascii;
    class       surfaceScalarField;
    location    "18";
    object      phi;
}
// * * * * * * * * * * * * * * * * * * * * * * * * * * * * * * * * * * * * * //

dimensions      [0 3 -1 0 0 0 0];

internalField   nonuniform List<scalar> 
11516
(
-2.50323e+10
2.90565e+09
-1.20873e+10
-2.2804e+10
2.50117e+09
-3.62278e+09
-2.44663e+10
1.69762e+09
9.59011e+08
-1.9295e+10
-2.14291e+09
-2.16912e+09
-1.99472e+10
1.21154e+09
2.8535e+07
-2.14269e+10
-2.90424e+08
2.09302e+09
-2.18206e+10
-1.33381e+09
1.79435e+09
-2.35681e+10
-1.41371e+08
1.7566e+09
-2.46393e+10
3.08384e+08
5.01871e+08
-2.55171e+10
2.79167e+08
2.77031e+08
-2.60634e+10
2.69109e+07
1.77889e+08
-2.59795e+10
-9.70371e+07
-3.20252e+08
-2.55692e+10
-1.66318e+08
-5.7387e+08
-2.5222e+10
-1.99606e+08
-4.78383e+08
-2.49333e+10
-2.15258e+08
-3.97716e+08
-2.45905e+10
-2.13572e+08
-4.41627e+08
-2.42233e+10
-1.92402e+08
-4.54312e+08
-2.39113e+10
-2.19503e+08
-3.58892e+08
-2.35819e+10
-2.64549e+08
-3.03834e+08
-2.32157e+10
-2.70959e+08
-3.08033e+08
-2.28056e+10
-2.65386e+08
-3.14781e+08
-2.23655e+10
-2.75763e+08
-3.04433e+08
-2.18799e+10
-2.91814e+08
-3.03285e+08
-2.13557e+10
-3.05941e+08
-3.04727e+08
-2.0795e+10
-3.18603e+08
-3.07867e+08
-2.02026e+10
-3.32595e+08
-3.08104e+08
-1.95809e+10
-3.46351e+08
-3.08819e+08
-1.89365e+10
-3.59193e+08
-3.0596e+08
-1.82734e+10
-3.70631e+08
-3.02363e+08
-1.75972e+10
-3.80155e+08
-2.9591e+08
-1.69155e+10
-3.86203e+08
-2.86267e+08
-1.62392e+10
-3.86544e+08
-2.72486e+08
-1.55823e+10
-3.80334e+08
-2.50395e+08
-1.49459e+10
-3.68839e+08
-2.34569e+08
-1.43295e+10
-3.50201e+08
-2.2759e+08
-1.37545e+10
-3.20785e+08
-2.10246e+08
-1.32353e+10
-2.82004e+08
-1.89797e+08
-1.2774e+10
-2.41578e+08
-1.6897e+08
-1.23659e+10
-2.00266e+08
-1.54012e+08
-1.20105e+10
-1.55707e+08
-1.41669e+08
-1.17043e+10
-1.08706e+08
-1.32933e+08
-1.14374e+10
-6.13156e+07
-1.28833e+08
-1.12025e+10
-1.22275e+07
-1.24261e+08
-1.09959e+10
4.38968e+07
-1.1797e+08
-1.08065e+10
1.04411e+08
-1.12665e+08
-1.06045e+10
1.47878e+08
-1.1318e+08
-1.03483e+10
1.60625e+08
-1.28539e+08
-1.00295e+10
1.56795e+08
-1.43889e+08
-9.70124e+09
1.49606e+08
-1.29218e+08
-9.91024e+09
3.60204e+08
1.92237e+08
-1.07401e+10
4.67541e+08
7.09821e+08
-1.16301e+10
5.49966e+08
6.95229e+08
-6.87308e+09
-2.86371e+08
-4.22794e+09
1.04845e+09
-6.5327e+09
-2.3446e+10
6.01521e+09
-2.84371e+10
7.85513e+09
-2.937e+10
2.89262e+09
-2.7719e+10
-3.66264e+09
-2.48214e+10
-1.6343e+09
-2.61329e+10
9.61843e+08
-2.7958e+10
3.32573e+08
-2.88841e+10
5.67413e+08
-2.89427e+10
1.24848e+08
-2.91471e+10
2.36089e+08
-2.94882e+10
1.2716e+08
-2.95138e+10
-3.00935e+08
-2.93889e+10
-5.12944e+08
-2.93754e+10
-4.31561e+08
-2.93816e+10
-4.22312e+08
-2.92581e+10
-5.32842e+08
-2.91248e+10
-5.0813e+08
-2.91036e+10
-4.07197e+08
-2.91016e+10
-4.17495e+08
-2.90475e+10
-4.51998e+08
-2.89547e+10
-4.63752e+08
-2.88444e+10
-4.701e+08
-2.8713e+10
-4.90812e+08
-2.85617e+10
-5.10013e+08
-2.83901e+10
-5.30793e+08
-2.82044e+10
-5.486e+08
-2.80055e+10
-5.67032e+08
-2.77979e+10
-5.81682e+08
-2.75817e+10
-5.95823e+08
-2.73582e+10
-6.07651e+08
-2.71273e+10
-6.16697e+08
-2.6887e+10
-6.22579e+08
-2.66386e+10
-6.21008e+08
-2.63798e+10
-6.17263e+08
-2.6106e+10
-6.11611e+08
-2.58105e+10
-6.02851e+08
-2.54859e+10
-5.92528e+08
-2.51351e+10
-5.7789e+08
-2.47583e+10
-5.62307e+08
-2.43539e+10
-5.44431e+08
-2.3918e+10
-5.26691e+08
-2.34431e+10
-5.12821e+08
-2.29189e+10
-5.0255e+08
-2.23244e+10
-4.9858e+08
-2.16382e+10
-5.04668e+08
-2.08634e+10
-5.18881e+08
-2.00165e+10
-5.46658e+08
-1.90992e+10
-5.98306e+08
-1.81471e+10
-6.17454e+08
-1.70238e+10
-5.54615e+08
-1.61047e+10
-2.34901e+08
-1.55506e+10
2.54618e+08
-9.40868e+09
-6.27754e+09
-4.68983e+09
-3.94097e+10
5.89137e+09
-1.25419e+10
-4.17328e+10
4.36566e+09
-6.35871e+09
-3.94824e+10
1.78236e+08
-2.20037e+09
-3.8527e+10
-1.153e+09
-2.69014e+09
-3.76289e+10
-6.94571e+08
-8.4767e+08
-3.77242e+10
-2.48987e+08
1.80964e+09
-3.79033e+10
-3.82922e+08
1.78258e+09
-3.74219e+10
1.71998e+08
6.00112e+08
-3.7116e+10
2.94307e+08
-5.326e+08
-3.71591e+10
3.56301e+08
-4.06315e+08
-3.73019e+10
3.25602e+08
-3.31445e+08
-3.74942e+10
2.82724e+08
-7.03874e+08
-3.78158e+10
2.65515e+08
-8.0183e+08
-3.81953e+10
2.85178e+08
-6.58071e+08
-3.8532e+10
2.85314e+08
-6.2901e+08
-3.88896e+10
2.95825e+08
-6.40039e+08
-3.9311e+10
3.06389e+08
-5.87086e+08
-3.96813e+10
2.97919e+08
-5.09166e+08
-3.99998e+10
2.8025e+08
-4.72379e+08
-4.03225e+10
2.77213e+08
-4.39024e+08
-4.06584e+10
2.75946e+08
-4.04466e+08
-4.09775e+10
2.74539e+08
-3.81916e+08
-4.1276e+10
2.65119e+08
-3.68665e+08
-4.15546e+10
2.52896e+08
-3.58398e+08
-4.18183e+10
2.39862e+08
-3.46474e+08
-4.20633e+10
2.23632e+08
-3.35852e+08
-4.22922e+10
2.04489e+08
-3.22768e+08
-4.25024e+10
1.8234e+08
-3.08357e+08
-4.26951e+10
1.57354e+08
-2.90942e+08
-4.2868e+10
1.29383e+08
-2.71509e+08
-4.30221e+10
9.82114e+07
-2.45499e+08
-4.31549e+10
6.36265e+07
-2.15226e+08
-4.32629e+10
2.67739e+07
-1.7919e+08
-4.33478e+10
-8.07481e+06
-1.50476e+08
-4.34105e+10
-4.0939e+07
-1.32748e+08
-4.34681e+10
-7.9142e+07
-8.39626e+07
-4.35217e+10
-1.19084e+08
-2.99978e+07
-4.35775e+10
-1.58837e+08
2.93307e+07
-4.36515e+10
-2.00835e+08
1.00394e+08
-4.37513e+10
-2.44572e+08
1.77403e+08
-4.38851e+10
-2.90169e+08
2.61161e+08
-4.40631e+10
-3.39194e+08
3.55562e+08
-4.42865e+10
-3.91246e+08
4.58077e+08
-4.45653e+10
-4.40121e+08
5.76372e+08
-4.49198e+10
-4.81591e+08
7.13358e+08
-4.53496e+10
-5.182e+08
8.48632e+08
-4.58242e+10
-5.54022e+08
9.43573e+08
-4.62417e+10
-5.92948e+08
9.45675e+08
-4.64571e+10
-5.91732e+08
8.03705e+08
-4.5509e+10
-6.41787e+08
6.39607e+07
-4.19629e+10
-5.5913e+08
-1.99033e+09
-3.55702e+10
-8.26364e+07
-5.29947e+09
-3.29059e+10
2.75579e+09
-9.32137e+09
-3.78477e+08
-3.05327e+09
-4.60368e+10
1.45368e+10
-4.46762e+10
1.04521e+10
-4.31925e+10
1.10974e+09
-4.19565e+10
-6.53029e+09
-3.96537e+10
-5.03864e+09
-3.88472e+10
-4.92607e+08
-3.91799e+10
-8.23361e+07
-3.89368e+10
1.72972e+08
-3.87287e+10
-6.73258e+07
-3.85208e+10
1.4553e+08
-3.8407e+10
1.27921e+08
-3.82863e+10
-3.31056e+08
-3.82543e+10
-4.61664e+08
-3.82744e+10
-3.09135e+08
-3.82999e+10
-2.9001e+08
-3.83764e+10
-3.32169e+08
-3.84162e+10
-3.21907e+08
-3.8369e+10
-3.0639e+08
-3.83346e+10
-3.07405e+08
-3.83206e+10
-3.08699e+08
-3.82941e+10
-3.16044e+08
-3.82444e+10
-3.30076e+08
-3.81876e+10
-3.52408e+08
-3.8124e+10
-3.77358e+08
-3.80601e+10
-4.00329e+08
-3.7998e+10
-4.23534e+08
-3.79457e+10
-4.44178e+08
-3.79053e+10
-4.63461e+08
-3.78835e+10
-4.79799e+08
-3.7883e+10
-4.95095e+08
-3.79078e+10
-5.07384e+08
-3.79613e+10
-5.17205e+08
-3.80454e+10
-5.20697e+08
-3.8161e+10
-5.20099e+08
-3.83073e+10
-5.17487e+08
-3.84915e+10
-5.10587e+08
-3.87225e+10
-4.95952e+08
-3.90047e+10
-4.73056e+08
-3.93374e+10
-4.52977e+08
-3.97203e+10
-4.33073e+08
-4.01553e+10
-4.12878e+08
-4.06494e+10
-3.91765e+08
-4.12065e+10
-3.69501e+08
-4.18278e+10
-3.44374e+08
-4.25049e+10
-3.23829e+08
-4.32111e+10
-3.27971e+08
-4.39151e+10
-3.72382e+08
-4.45771e+10
-4.7892e+08
-4.49944e+10
-7.09696e+08
-4.48173e+10
-1.25508e+09
-4.26987e+10
-2.74176e+09
-3.71753e+10
-5.17335e+09
-3.58556e+10
-4.7224e+09
-1.41317e+09
-3.6331e+10
9.78293e+08
-8.35529e+09
-3.61242e+10
3.64392e+08
-8.00057e+09
-3.28141e+10
-7.96072e+08
-5.77433e+09
-3.41944e+10
8.21995e+08
-3.10599e+09
-3.34024e+10
2.21297e+08
-2.69633e+09
-3.19909e+10
3.3182e+08
-6.75775e+08
-3.12538e+10
-9.97399e+07
5.10883e+08
-3.1217e+10
-8.74487e+07
1.17843e+08
-3.12478e+10
3.22325e+07
-9.6867e+08
-3.07717e+10
8.23833e+07
-1.32138e+09
-3.00739e+10
1.01685e+07
-1.34494e+09
-2.97955e+10
1.47595e+07
-1.27178e+09
-2.97347e+10
5.60272e+07
-1.18221e+09
-2.95652e+10
4.38266e+07
-1.1387e+09
-2.94362e+10
5.88701e+07
-1.09831e+09
-2.94675e+10
1.0509e+08
-9.86724e+08
-2.95321e+10
1.21089e+08
-9.20468e+08
-2.95029e+10
1.08196e+08
-9.03437e+08
-2.9461e+10
1.09481e+08
-8.75362e+08
-2.94194e+10
1.2118e+08
-8.22795e+08
-2.93787e+10
1.30222e+08
-7.7721e+08
-2.93231e+10
1.42626e+08
-7.46177e+08
-2.92605e+10
1.50863e+08
-7.25765e+08
-2.91893e+10
1.59272e+08
-7.05771e+08
-2.91148e+10
1.66759e+08
-6.84677e+08
-2.90417e+10
1.73129e+08
-6.61628e+08
-2.89728e+10
1.7819e+08
-6.36271e+08
-2.89098e+10
1.82294e+08
-6.10308e+08
-2.88518e+10
1.85373e+08
-5.84061e+08
-2.87993e+10
1.86435e+08
-5.55277e+08
-2.87472e+10
1.8687e+08
-5.25944e+08
-2.86883e+10
1.9087e+08
-5.05283e+08
-2.86094e+10
1.9379e+08
-4.92199e+08
-2.85211e+10
1.84e+08
-4.65004e+08
-2.84418e+10
1.66923e+08
-4.25096e+08
-2.83474e+10
1.59141e+08
-3.89147e+08
-2.82217e+10
1.59732e+08
-3.74789e+08
-2.80576e+10
1.5555e+08
-3.5965e+08
-2.78595e+10
1.53545e+08
-3.33357e+08
-2.76295e+10
1.57092e+08
-3.0679e+08
-2.73723e+10
1.66096e+08
-2.7594e+08
-2.70927e+10
1.83289e+08
-2.3732e+08
-2.68047e+10
2.134e+08
-1.86329e+08
-2.65215e+10
2.61718e+08
-1.18556e+08
-2.62612e+10
3.32199e+08
-2.99986e+07
-2.60495e+10
4.25862e+08
6.58327e+07
-2.59214e+10
5.46316e+08
1.33195e+08
-2.59132e+10
7.06739e+08
1.07639e+08
-2.59525e+10
8.9599e+08
-1.66873e+08
-2.59186e+10
1.13189e+09
-1.17455e+09
-2.64571e+10
1.59644e+09
-3.14802e+09
-2.95333e+10
2.90287e+09
-5.10835e+09
-3.62679e+10
5.99949e+09
-8.66348e+09
2.37671e+09
-2.92142e+09
-4.75278e+10
1.37913e+10
-4.12232e+10
3.92526e+09
-3.67996e+10
-4.76197e+09
-3.46548e+10
-8.45988e+09
-3.41888e+10
-5.78694e+09
-3.32854e+10
-1.52382e+09
-3.30566e+10
-8.08267e+08
-3.33324e+10
2.09579e+07
-3.3585e+10
-6.89793e+07
-3.31347e+10
-4.61978e+08
-3.25611e+10
-6.41861e+08
-3.21711e+10
-8.90705e+08
-3.19078e+10
-8.46004e+08
-3.16268e+10
-7.26993e+08
-3.13321e+10
-7.08942e+08
-3.11041e+10
-6.40594e+08
-3.08657e+10
-6.1909e+08
-3.05789e+10
-6.61627e+08
-3.02766e+10
-6.65181e+08
-2.99638e+10
-6.5322e+08
-2.96367e+10
-6.46502e+08
-2.92881e+10
-6.5338e+08
-2.89235e+10
-6.65267e+08
-2.85478e+10
-6.78331e+08
-2.81643e+10
-6.88239e+08
-2.77805e+10
-6.94942e+08
-2.74017e+10
-6.97327e+08
-2.70338e+10
-6.95881e+08
-2.66807e+10
-6.904e+08
-2.63467e+10
-6.83098e+08
-2.60291e+10
-6.77542e+08
-2.57249e+10
-6.70021e+08
-2.54354e+10
-6.57741e+08
-2.51687e+10
-6.47225e+08
-2.49312e+10
-6.3679e+08
-2.47262e+10
-6.10985e+08
-2.45429e+10
-5.8161e+08
-2.43714e+10
-5.60729e+08
-2.42124e+10
-5.41914e+08
-2.40702e+10
-5.15558e+08
-2.39468e+10
-4.82212e+08
-2.38336e+10
-4.47611e+08
-2.37212e+10
-4.0507e+08
-2.35955e+10
-3.51355e+08
-2.34435e+10
-2.88015e+08
-2.32651e+10
-2.23888e+08
-2.30639e+10
-1.67914e+08
-2.28252e+10
-1.50132e+08
-2.25054e+10
-2.74217e+08
-2.2105e+10
-6.57182e+08
-2.18284e+10
-1.55063e+09
-2.10051e+10
-3.21556e+09
-1.31605e+10
-6.67955e+09
-2.81651e+09
-3.43158e+10
-1.76424e+08
-6.19169e+09
-3.4189e+10
-5.59359e+08
-8.57462e+09
-3.27416e+10
-8.28494e+07
-8.07711e+09
-3.27713e+10
7.56821e+08
-4.69879e+09
-3.34065e+10
8.67809e+08
-3.67564e+09
-3.27631e+10
5.90482e+08
-2.54323e+09
-3.14153e+10
2.51097e+07
-1.39757e+09
-3.07286e+10
-2.05829e+08
-8.24023e+08
-3.05945e+10
-6.96244e+07
-1.42417e+09
-3.02536e+10
-1.08201e+08
-1.88043e+09
-2.98372e+10
-2.5706e+08
-1.78223e+09
-2.96626e+10
-1.92208e+08
-1.50458e+09
-2.95247e+10
-1.08404e+08
-1.45075e+09
-2.93537e+10
-1.15815e+08
-1.44824e+09
-2.92338e+10
-1.18201e+08
-1.35771e+09
-2.91661e+10
-1.04654e+08
-1.22972e+09
-2.90958e+10
-8.88188e+07
-1.17583e+09
-2.90135e+10
-9.00396e+07
-1.17771e+09
-2.89159e+10
-8.99669e+07
-1.14938e+09
-2.88036e+10
-8.81372e+07
-1.10431e+09
-2.86607e+10
-7.96687e+07
-1.06889e+09
-2.84897e+10
-7.23484e+07
-1.05006e+09
-2.82913e+10
-6.55135e+07
-1.0363e+09
-2.80717e+10
-5.9435e+07
-1.01894e+09
-2.78364e+10
-5.37824e+07
-9.983e+08
-2.75932e+10
-4.81488e+07
-9.71079e+08
-2.7349e+10
-4.29416e+07
-9.38783e+08
-2.71114e+10
-3.90324e+07
-9.01284e+08
-2.68889e+10
-3.5272e+07
-8.5821e+08
-2.66838e+10
-3.13835e+07
-8.13685e+08
-2.64904e+10
-2.89727e+07
-7.75586e+08
-2.63198e+10
-1.92948e+07
-7.44661e+08
-2.61998e+10
-2.85691e+06
-7.0302e+08
-2.61215e+10
5.25565e+06
-6.49881e+08
-2.60585e+10
8.09209e+06
-6.07509e+08
-2.59729e+10
-9.42172e+06
-5.89142e+08
-2.59334e+10
5.47989e+06
-5.60027e+08
-2.59641e+10
2.92448e+07
-5.19603e+08
-2.60355e+10
3.16518e+07
-4.81163e+08
-2.6149e+10
3.56927e+07
-4.47254e+08
-2.63159e+10
4.69623e+07
-4.08368e+08
-2.65368e+10
5.98925e+07
-3.64656e+08
-2.68059e+10
7.72347e+07
-3.16487e+08
-2.71263e+10
1.03988e+08
-2.56185e+08
-2.74989e+10
1.41623e+08
-1.81731e+08
-2.79347e+10
1.88992e+08
-1.03283e+08
-2.84581e+10
2.53035e+08
-5.3311e+07
-2.91104e+10
3.31572e+08
-8.50799e+07
-2.99239e+10
4.08084e+08
-3.36295e+08
-3.11877e+10
5.57618e+08
-1.1216e+09
-3.36979e+10
1.09781e+09
-2.36644e+09
-3.82562e+10
2.60117e+09
-3.84485e+09
-4.58913e+10
6.00158e+09
-7.49294e+09
1.29645e+09
2.10503e+09
-4.2112e+10
1.00633e+10
-3.67808e+10
-2.54619e+09
-3.38745e+10
-8.36746e+09
-3.24918e+10
-9.59346e+09
-3.23132e+10
-5.51754e+09
-3.13078e+10
-2.31883e+09
-3.02708e+10
-2.14303e+09
-3.00927e+10
-6.44879e+08
-3.0274e+10
-2.05323e+08
-3.01912e+10
-8.65279e+08
-3.00022e+10
-1.27189e+09
-2.98275e+10
-1.42368e+09
-2.96698e+10
-1.2753e+09
-2.95134e+10
-1.16666e+09
-2.93826e+10
-1.13547e+09
-2.92803e+10
-1.02884e+09
-2.91715e+10
-1.00247e+09
-2.90627e+10
-1.04438e+09
-2.895e+10
-1.04753e+09
-2.88268e+10
-1.03233e+09
-2.86831e+10
-1.02375e+09
-2.85151e+10
-1.0303e+09
-2.83262e+10
-1.03923e+09
-2.81222e+10
-1.04555e+09
-2.79079e+10
-1.04608e+09
-2.76914e+10
-1.03797e+09
-2.74808e+10
-1.02089e+09
-2.72825e+10
-9.97516e+08
-2.70974e+10
-9.71713e+08
-2.69265e+10
-9.45106e+08
-2.67819e+10
-9.11457e+08
-2.66643e+10
-8.69803e+08
-2.65643e+10
-8.27443e+08
-2.64904e+10
-7.88252e+08
-2.64544e+10
-7.43971e+08
-2.64673e+10
-6.95729e+08
-2.64909e+10
-6.52223e+08
-2.6524e+10
-6.12522e+08
-2.65985e+10
-5.67434e+08
-2.67129e+10
-5.17421e+08
-2.68603e+10
-4.61635e+08
-2.70427e+10
-4.00802e+08
-2.72487e+10
-3.37553e+08
-2.74662e+10
-2.62918e+08
-2.76924e+10
-1.6951e+08
-2.79292e+10
-6.48571e+07
-2.81562e+10
2.28447e+07
-2.83524e+10
5.75063e+07
-2.8517e+10
-5.05884e+07
-2.85948e+10
-3.95275e+08
-2.82085e+10
-1.25538e+09
-2.58741e+10
-3.32777e+09
-1.98554e+10
-6.9393e+09
-2.12826e+09
-3.16932e+10
1.54905e+08
-5.63582e+09
-3.18829e+10
-4.55031e+08
-8.55086e+09
-3.21535e+10
-7.52399e+07
-8.30172e+09
-3.18293e+10
6.58134e+08
-6.15847e+09
-3.24984e+10
9.8333e+08
-4.38119e+09
-3.25601e+10
6.05609e+08
-3.42528e+09
-3.18664e+10
-8.94501e+07
-2.29166e+09
-3.10902e+10
-3.32715e+08
-1.53037e+09
-3.07439e+10
-1.40337e+08
-1.87261e+09
-3.05377e+10
-1.13721e+08
-2.19355e+09
-3.03798e+10
-1.68331e+08
-1.97354e+09
-3.02775e+10
-9.42948e+07
-1.70069e+09
-3.02402e+10
-4.29054e+07
-1.63046e+09
-3.02499e+10
-4.56461e+07
-1.58567e+09
-3.02868e+10
-2.83651e+07
-1.49851e+09
-3.03198e+10
-2.22484e+07
-1.40075e+09
-3.03683e+10
-1.96012e+07
-1.337e+09
-3.0444e+10
-2.28053e+07
-1.32613e+09
-3.05103e+10
-1.97397e+07
-1.30161e+09
-3.05639e+10
-1.79182e+07
-1.27305e+09
-3.05854e+10
-1.15868e+07
-1.25103e+09
-3.05799e+10
-7.85165e+06
-1.25046e+09
-3.05399e+10
-2.06848e+06
-1.24628e+09
-3.04751e+10
1.53761e+06
-1.23889e+09
-3.03875e+10
5.37541e+06
-1.22172e+09
-3.02856e+10
7.29475e+06
-1.19365e+09
-3.01804e+10
9.04857e+06
-1.15272e+09
-3.00812e+10
1.17828e+07
-1.10275e+09
-2.99913e+10
1.3685e+07
-1.0469e+09
-2.99094e+10
1.26616e+07
-9.91174e+08
-2.98433e+10
1.46146e+07
-9.39778e+08
-2.98131e+10
2.55247e+07
-8.8707e+08
-2.98259e+10
3.62632e+07
-8.18476e+08
-2.98778e+10
3.09228e+07
-7.28237e+08
-2.99681e+10
1.60631e+07
-6.42062e+08
-3.00904e+10
1.19138e+07
-6.00186e+08
-3.02699e+10
2.37388e+07
-5.4202e+08
-3.05228e+10
3.70161e+07
-4.62107e+08
-3.08465e+10
4.53494e+07
-3.86656e+08
-3.12514e+10
5.61117e+07
-3.1188e+08
-3.17508e+10
7.16713e+07
-2.27118e+08
-3.23579e+10
9.18143e+07
-1.30486e+08
-3.30827e+10
1.16887e+08
-2.35129e+07
-3.39345e+10
1.48405e+08
9.96768e+07
-3.49349e+10
1.90993e+08
2.47201e+08
-3.6128e+10
2.47642e+08
4.22575e+08
-3.7573e+10
3.18451e+08
6.0315e+08
-3.93695e+10
4.02579e+08
7.69975e+08
-4.17265e+10
4.97959e+08
8.85143e+08
-4.52382e+10
7.25517e+08
9.18962e+08
-5.09298e+10
1.4117e+09
9.85482e+08
-5.97866e+10
2.8095e+09
1.27588e+09
-7.34893e+10
5.78329e+09
-3.50523e+08
-1.39548e+09
-1.00455e+10
-3.74937e+10
6.97662e+09
-3.40935e+10
-6.7352e+09
-3.24035e+10
-1.04341e+10
-3.17816e+10
-9.77773e+09
-3.12187e+10
-5.28842e+09
-2.97915e+10
-3.31251e+09
-2.91195e+10
-3.06128e+09
-2.9053e+10
-1.19787e+09
-2.89892e+10
-5.6234e+08
-2.88565e+10
-1.25853e+09
-2.86576e+10
-1.77638e+09
-2.85292e+10
-1.77672e+09
-2.84642e+10
-1.5136e+09
-2.84089e+10
-1.40511e+09
-2.83645e+10
-1.35626e+09
-2.83165e+10
-1.25554e+09
-2.82854e+10
-1.22004e+09
-2.82832e+10
-1.23875e+09
-2.8281e+10
-1.24147e+09
-2.8263e+10
-1.23223e+09
-2.82193e+10
-1.23438e+09
-2.81432e+10
-1.25264e+09
-2.80364e+10
-1.27236e+09
-2.79024e+10
-1.2858e+09
-2.77495e+10
-1.28804e+09
-2.75861e+10
-1.27677e+09
-2.74191e+10
-1.25304e+09
-2.72506e+10
-1.22272e+09
-2.70845e+10
-1.18968e+09
-2.69308e+10
-1.15098e+09
-2.67965e+10
-1.09727e+09
-2.66747e+10
-1.03537e+09
-2.65579e+10
-9.81792e+08
-2.64608e+10
-9.34427e+08
-2.63921e+10
-8.84587e+08
-2.63433e+10
-8.30869e+08
-2.63052e+10
-7.778e+08
-2.62818e+10
-7.26085e+08
-2.62836e+10
-6.6648e+08
-2.63085e+10
-6.04284e+08
-2.6352e+10
-5.37847e+08
-2.64142e+10
-4.61956e+08
-2.64947e+10
-3.78504e+08
-2.65853e+10
-2.84215e+08
-2.66746e+10
-1.72579e+08
-2.67651e+10
-3.72512e+07
-2.68752e+10
1.0355e+08
-2.70501e+10
2.38189e+08
-2.74124e+10
3.41851e+08
-2.80514e+10
3.94957e+08
-2.88283e+10
2.62297e+08
-2.95376e+10
-5.55694e+08
-2.76094e+10
-3.53222e+09
-6.46493e+08
-3.06121e+10
4.36922e+08
-6.1523e+09
-3.06091e+10
-8.01064e+07
-8.56996e+09
-3.10512e+10
1.89965e+08
-8.09455e+09
-3.16224e+10
8.33523e+08
-6.43593e+09
-3.21322e+10
1.04744e+09
-4.943e+09
-3.20798e+10
5.5787e+08
-4.0749e+09
-3.14208e+10
-6.89724e+07
-2.94658e+09
-3.0616e+10
-2.14798e+08
-2.21677e+09
-3.02417e+10
-2.85904e+07
-2.34313e+09
-3.01389e+10
2.74404e+06
-2.44108e+09
-3.00587e+10
-2.50834e+07
-2.17535e+09
-2.99093e+10
-1.77215e+07
-1.97741e+09
-2.98558e+10
2.64696e+07
-1.85636e+09
-2.98761e+10
5.32881e+07
-1.76931e+09
-2.99297e+10
5.72446e+07
-1.67481e+09
-2.99993e+10
5.53411e+07
-1.56579e+09
-3.01099e+10
5.63151e+07
-1.48893e+09
-3.02494e+10
5.90035e+07
-1.45402e+09
-3.04147e+10
6.04699e+07
-1.42178e+09
-3.05783e+10
6.64838e+07
-1.39131e+09
-3.07354e+10
7.1344e+07
-1.37842e+09
-3.08735e+10
7.85939e+07
-1.38104e+09
-3.09956e+10
8.4181e+07
-1.38184e+09
-3.11031e+10
9.03234e+07
-1.3737e+09
-3.12081e+10
9.63231e+07
-1.34595e+09
-3.13206e+10
1.01671e+08
-1.29939e+09
-3.14464e+10
1.05287e+08
-1.23595e+09
-3.15886e+10
1.05864e+08
-1.16154e+09
-3.17495e+10
1.04656e+08
-1.08116e+09
-3.19346e+10
1.05678e+08
-1.00096e+09
-3.21527e+10
1.13305e+08
-9.2541e+08
-3.24109e+10
1.25674e+08
-8.48793e+08
-3.26983e+10
1.3232e+08
-7.63448e+08
-3.29897e+10
1.29603e+08
-6.74693e+08
-3.32838e+10
1.25769e+08
-5.92758e+08
-3.362e+10
1.27089e+08
-5.23882e+08
-3.40023e+10
1.34715e+08
-4.44233e+08
-3.44211e+10
1.42399e+08
-3.56134e+08
-3.48814e+10
1.48289e+08
-2.69679e+08
-3.53965e+10
1.56622e+08
-1.7636e+08
-3.59761e+10
1.69211e+08
-7.07349e+07
-3.66304e+10
1.86798e+08
5.10072e+07
-3.73738e+10
2.08249e+08
1.92748e+08
-3.82211e+10
2.35704e+08
3.60134e+08
-3.91955e+10
2.71577e+08
5.62735e+08
-4.0328e+10
3.14813e+08
8.1026e+08
-4.16834e+10
3.62814e+08
1.10613e+09
-4.33785e+10
4.19215e+08
1.47102e+09
-4.56222e+10
4.78635e+08
1.94906e+09
-4.89462e+10
6.40402e+08
2.71749e+09
-5.3921e+10
1.09145e+09
3.81642e+09
-6.07526e+10
1.48031e+09
5.46022e+09
-7.14717e+10
3.20706e+09
6.15838e+09
-3.43782e+09
-1.21427e+09
-3.49432e+10
4.50266e+09
-3.26475e+10
-9.17387e+09
-3.20409e+10
-1.08795e+10
-3.24363e+10
-8.56094e+09
-3.15105e+10
-5.1795e+09
-3.00916e+10
-4.1996e+09
-2.99966e+10
-3.26872e+09
-3.01545e+10
-1.31922e+09
-2.97648e+10
-1.06414e+09
-2.92094e+10
-1.90465e+09
-2.889e+10
-2.21704e+09
-2.88468e+10
-1.93373e+09
-2.87929e+10
-1.63948e+09
-2.86854e+10
-1.56556e+09
-2.86068e+10
-1.49276e+09
-2.85485e+10
-1.38675e+09
-2.85166e+10
-1.33226e+09
-2.85196e+10
-1.3232e+09
-2.85363e+10
-1.31378e+09
-2.85459e+10
-1.30581e+09
-2.85337e+10
-1.31637e+09
-2.84953e+10
-1.34339e+09
-2.84312e+10
-1.36982e+09
-2.83463e+10
-1.38463e+09
-2.82488e+10
-1.38117e+09
-2.81454e+10
-1.3597e+09
-2.80422e+10
-1.32416e+09
-2.79463e+10
-1.28061e+09
-2.78676e+10
-1.22883e+09
-2.78175e+10
-1.15996e+09
-2.77914e+10
-1.0761e+09
-2.777e+10
-1.00034e+09
-2.77486e+10
-9.44928e+08
-2.77399e+10
-8.94097e+08
-2.77507e+10
-8.371e+08
-2.77744e+10
-7.79829e+08
-2.78092e+10
-7.21333e+08
-2.78604e+10
-6.61545e+08
-2.79285e+10
-5.97681e+08
-2.80172e+10
-5.27646e+08
-2.81272e+10
-4.49991e+08
-2.82588e+10
-3.58358e+08
-2.84173e+10
-2.49693e+08
-2.86036e+10
-1.23688e+08
-2.88205e+10
2.89643e+07
-2.90768e+10
2.15179e+08
-2.94116e+10
4.39721e+08
-2.99044e+10
7.25028e+08
-3.07227e+10
1.12088e+09
-3.20645e+10
1.73256e+09
-3.40743e+10
2.58079e+09
-3.80678e+10
4.17525e+09
-4.37356e+10
4.89835e+09
3.18633e+09
-3.0096e+10
1.61995e+08
-7.01238e+09
-3.00999e+10
-1.26767e+08
-8.33941e+09
-3.06473e+10
2.17282e+07
-7.43749e+09
-3.16493e+10
6.55863e+08
-5.94815e+09
-3.21658e+10
6.89869e+08
-4.99264e+09
-3.21511e+10
1.79134e+08
-4.19083e+09
-3.15494e+10
-2.42384e+08
-3.27467e+09
-3.07458e+10
-1.75146e+08
-2.85782e+09
-3.02249e+10
3.35917e+07
-2.94834e+09
-3.00054e+10
8.5295e+07
-2.82429e+09
-2.98656e+10
4.51997e+07
-2.4542e+09
-2.97164e+10
1.75432e+07
-2.2436e+09
-2.95838e+10
4.12471e+07
-2.13239e+09
-2.94794e+10
6.23833e+07
-2.04617e+09
-2.94028e+10
6.43402e+07
-1.93845e+09
-2.93495e+10
6.33207e+07
-1.81955e+09
-2.93193e+10
6.45664e+07
-1.74103e+09
-2.93057e+10
6.77162e+07
-1.69819e+09
-2.9306e+10
6.93399e+07
-1.67411e+09
-2.92924e+10
7.54933e+07
-1.65916e+09
-2.92599e+10
7.98433e+07
-1.67375e+09
-2.91898e+10
8.71618e+07
-1.70002e+09
-2.90894e+10
9.21932e+07
-1.72835e+09
-2.89661e+10
1.00439e+08
-1.72787e+09
-2.88443e+10
1.0662e+08
-1.6908e+09
-2.87385e+10
1.09911e+08
-1.61428e+09
-2.86575e+10
1.08298e+08
-1.51164e+09
-2.86061e+10
1.05173e+08
-1.39478e+09
-2.85883e+10
1.04097e+08
-1.27355e+09
-2.86067e+10
1.04875e+08
-1.15478e+09
-2.86675e+10
1.02435e+08
-1.03387e+09
-2.87605e+10
9.14304e+07
-9.15871e+08
-2.88626e+10
7.40178e+07
-8.0788e+08
-2.896e+10
5.95946e+07
-7.15705e+08
-2.90558e+10
5.08823e+07
-6.35328e+08
-2.91647e+10
4.25001e+07
-5.56526e+08
-2.92802e+10
3.30818e+07
-4.75194e+08
-2.93947e+10
2.40153e+07
-3.96263e+08
-2.95115e+10
1.51806e+07
-3.19038e+08
-2.96282e+10
7.33972e+06
-2.40731e+08
-2.97441e+10
2.25253e+06
-1.55034e+08
-2.98582e+10
2.60913e+06
-5.8954e+07
-2.99724e+10
9.07946e+06
5.47998e+07
-3.00849e+10
2.02027e+07
1.91748e+08
-3.01955e+10
3.46649e+07
3.63374e+08
-3.03103e+10
5.08493e+07
5.85383e+08
-3.04607e+10
6.44614e+07
8.84554e+08
-3.06927e+10
6.88075e+07
1.29377e+09
-3.10803e+10
5.08075e+07
1.88722e+09
-3.16568e+10
2.73099e+06
2.82475e+09
-3.29744e+10
7.51551e+07
4.56539e+09
-3.68525e+10
4.37775e+08
8.33218e+09
-5.05066e+10
2.69015e+09
1.68966e+10
-2.40501e+08
-1.87498e+08
-3.29143e+10
2.28645e+09
-3.1552e+10
-1.05349e+10
-3.18465e+10
-1.04263e+10
-3.22718e+10
-7.35529e+09
-3.13124e+10
-5.34428e+09
-3.09777e+10
-4.27757e+09
-3.17026e+10
-2.74245e+09
-3.1587e+10
-1.60058e+09
-3.06491e+10
-1.98882e+09
-2.99965e+10
-2.51417e+09
-2.98831e+10
-2.34015e+09
-2.98712e+10
-1.98934e+09
-2.97233e+10
-1.81216e+09
-2.95493e+10
-1.74979e+09
-2.94167e+10
-1.64355e+09
-2.93029e+10
-1.53113e+09
-2.92077e+10
-1.46551e+09
-2.91391e+10
-1.43763e+09
-2.90794e+10
-1.4219e+09
-2.90095e+10
-1.4218e+09
-2.89143e+10
-1.44735e+09
-2.87892e+10
-1.49051e+09
-2.86304e+10
-1.53251e+09
-2.84463e+10
-1.55384e+09
-2.82504e+10
-1.54349e+09
-2.80633e+10
-1.4995e+09
-2.79011e+10
-1.43206e+09
-2.77736e+10
-1.3504e+09
-2.76872e+10
-1.25432e+09
-2.76384e+10
-1.14486e+09
-2.76194e+10
-1.0332e+09
-2.76247e+10
-9.45268e+08
-2.76645e+10
-8.75373e+08
-2.77405e+10
-8.07111e+08
-2.78415e+10
-7.39861e+08
-2.79642e+10
-6.77233e+08
-2.81088e+10
-6.15951e+08
-2.82758e+10
-5.54598e+08
-2.84651e+10
-4.90705e+08
-2.86731e+10
-4.2459e+08
-2.88965e+10
-3.51444e+08
-2.91294e+10
-2.63596e+08
-2.93671e+10
-1.54718e+08
-2.9604e+10
-2.62661e+07
-2.98395e+10
1.34707e+08
-3.00768e+10
3.35427e+08
-3.03413e+10
5.94585e+08
-3.0683e+10
9.46521e+08
-3.11905e+10
1.46223e+09
-3.19525e+10
2.27207e+09
-3.3224e+10
3.72057e+09
-3.47709e+10
5.98093e+09
-4.02252e+10
1.30702e+10
2.7673e+09
-2.93406e+10
-4.42753e+08
-7.21468e+09
-2.95108e+10
-1.35365e+08
-7.70227e+09
-3.03383e+10
3.09278e+08
-6.58347e+09
-3.13559e+10
6.92849e+08
-5.30098e+09
-3.18647e+10
4.48105e+08
-4.66265e+09
-3.18213e+10
-8.10402e+07
-3.95251e+09
-3.13289e+10
-2.99978e+08
-3.33404e+09
-3.08135e+10
-1.26684e+08
-3.17601e+09
-3.06141e+10
8.84523e+06
-3.13925e+09
-3.06052e+10
-1.88418e+07
-2.83703e+09
-3.0538e+10
-2.39021e+07
-2.54526e+09
-3.04564e+10
3.03956e+06
-2.38853e+09
-3.03939e+10
2.03994e+07
-2.28218e+09
-3.03669e+10
3.21881e+07
-2.18112e+09
-3.03597e+10
4.04365e+07
-2.07094e+09
-3.03566e+10
4.45292e+07
-1.97225e+09
-3.03457e+10
5.17476e+07
-1.91178e+09
-3.03356e+10
5.59085e+07
-1.89378e+09
-3.03026e+10
6.30935e+07
-1.9002e+09
-3.02395e+10
6.85383e+07
-1.93526e+09
-3.01192e+10
7.73224e+07
-2.00461e+09
-2.99349e+10
8.56068e+07
-2.10024e+09
-2.9677e+10
9.83172e+07
-2.19464e+09
-2.93645e+10
1.11285e+08
-2.24816e+09
-2.90231e+10
1.23551e+08
-2.23421e+09
-2.86822e+10
1.3405e+08
-2.15213e+09
-2.83626e+10
1.44274e+08
-2.02453e+09
-2.8076e+10
1.55085e+08
-1.87419e+09
-2.78293e+10
1.67397e+08
-1.71636e+09
-2.76312e+10
1.81825e+08
-1.55717e+09
-2.74805e+10
1.95988e+08
-1.3989e+09
-2.7363e+10
2.04536e+08
-1.25429e+09
-2.72632e+10
2.07234e+08
-1.13122e+09
-2.71867e+10
2.1291e+08
-1.02326e+09
-2.71423e+10
2.21404e+08
-9.23213e+08
-2.71286e+10
2.28277e+08
-8.26524e+08
-2.71348e+10
2.33427e+08
-7.38364e+08
-2.71557e+10
2.3805e+08
-6.59166e+08
-2.71886e+10
2.42115e+08
-5.85547e+08
-2.72323e+10
2.4604e+08
-5.12834e+08
-2.72791e+10
2.50643e+08
-4.39776e+08
-2.73182e+10
2.5503e+08
-3.63705e+08
-2.73364e+10
2.6114e+08
-2.77375e+08
-2.73178e+10
2.72298e+08
-1.79092e+08
-2.72488e+10
2.89386e+08
-5.25725e+07
-2.71191e+10
3.11443e+08
1.20226e+08
-2.69162e+10
3.37536e+08
3.62947e+08
-2.66279e+10
3.69893e+08
6.97349e+08
-2.62081e+10
4.15644e+08
1.1521e+09
-2.54921e+10
5.31699e+08
1.72413e+09
-2.43638e+10
9.54952e+08
2.65304e+09
-2.29501e+10
2.01133e+09
5.20039e+09
-2.2265e+10
3.72389e+09
1.26951e+10
9.21387e+08
4.47609e+09
-3.0836e+10
3.111e+08
-3.08164e+10
-1.04641e+10
-3.15409e+10
-9.18636e+09
-3.15337e+10
-6.49114e+09
-3.11183e+10
-5.1634e+09
-3.1689e+10
-3.67655e+09
-3.23155e+10
-2.34277e+09
-3.17438e+10
-2.26103e+09
-3.10572e+10
-2.65926e+09
-3.10234e+10
-2.58237e+09
-3.11512e+10
-2.26625e+09
-3.11033e+10
-2.07201e+09
-3.10019e+10
-1.9363e+09
-3.094e+10
-1.82915e+09
-3.08997e+10
-1.70232e+09
-3.0862e+10
-1.59105e+09
-3.08301e+10
-1.52208e+09
-3.08052e+10
-1.4888e+09
-3.07742e+10
-1.4794e+09
-3.07206e+10
-1.49804e+09
-3.06301e+10
-1.54994e+09
-3.04885e+10
-1.62797e+09
-3.02878e+10
-1.707e+09
-3.00392e+10
-1.75191e+09
-2.97734e+10
-1.73512e+09
-2.9523e+10
-1.65545e+09
-2.93064e+10
-1.53525e+09
-2.91316e+10
-1.39381e+09
-2.90014e+10
-1.23528e+09
-2.89087e+10
-1.06981e+09
-2.88382e+10
-9.19374e+08
-2.87927e+10
-7.96707e+08
-2.87854e+10
-6.85872e+08
-2.88119e+10
-5.79455e+08
-2.88606e+10
-4.84208e+08
-2.89317e+10
-3.96152e+08
-2.90237e+10
-3.14074e+08
-2.9133e+10
-2.37384e+08
-2.92556e+10
-1.63509e+08
-2.93923e+10
-8.72299e+07
-2.95382e+10
-7.21178e+06
-2.96867e+10
8.37808e+07
-2.98297e+10
1.93978e+08
-2.99533e+10
3.22267e+08
-3.0043e+10
4.82328e+08
-3.0087e+10
6.82856e+08
-3.00747e+10
9.3903e+08
-2.99867e+10
1.27315e+09
-2.97372e+10
1.70097e+09
-2.89995e+10
2.1608e+09
-2.69405e+10
2.7484e+09
-2.31908e+10
4.42097e+09
-1.7603e+10
1.13209e+10
4.61392e+09
-2.79494e+10
-8.42635e+08
-6.7241e+09
-2.84999e+10
7.54013e+07
-6.99561e+09
-2.95067e+10
6.10326e+08
-5.95725e+09
-3.03656e+10
5.97431e+08
-4.83062e+09
-3.0918e+10
2.68267e+08
-4.20641e+09
-3.08959e+10
-8.30362e+07
-3.75761e+09
-3.05419e+10
-1.95751e+08
-3.39399e+09
-3.03301e+10
-1.28709e+08
-3.19342e+09
-3.03944e+10
-9.3442e+07
-2.94734e+09
-3.05074e+10
-9.41564e+07
-2.62417e+09
-3.05777e+10
-6.96692e+07
-2.42118e+09
-3.06662e+10
-4.51788e+07
-2.28441e+09
-3.07883e+10
-3.24008e+07
-2.16658e+09
-3.09419e+10
-1.95175e+07
-2.05601e+09
-3.11094e+10
-1.16229e+07
-1.95212e+09
-3.12739e+10
-5.99129e+06
-1.87344e+09
-3.14281e+10
-674021
-1.83751e+09
-3.15713e+10
2.63928e+06
-1.84713e+09
-3.16829e+10
7.4252e+06
-1.89143e+09
-3.17542e+10
1.01576e+07
-1.98407e+09
-3.17589e+10
1.73718e+07
-2.11903e+09
-3.16811e+10
2.55859e+07
-2.30534e+09
-3.14856e+10
3.87316e+07
-2.51056e+09
-3.11769e+10
5.0147e+07
-2.6778e+09
-3.07923e+10
6.15904e+07
-2.73261e+09
-3.03863e+10
7.22654e+07
-2.66979e+09
-2.99839e+10
8.27866e+07
-2.53615e+09
-2.95988e+10
9.24865e+07
-2.36714e+09
-2.92409e+10
1.05e+08
-2.18532e+09
-2.89109e+10
1.21159e+08
-2.0068e+09
-2.85944e+10
1.38341e+08
-1.84637e+09
-2.82816e+10
1.53341e+08
-1.70878e+09
-2.79716e+10
1.69296e+08
-1.59586e+09
-2.76668e+10
1.874e+08
-1.49957e+09
-2.73674e+10
2.06743e+08
-1.41364e+09
-2.70694e+10
2.27798e+08
-1.33847e+09
-2.67752e+10
2.49764e+08
-1.27231e+09
-2.64862e+10
2.71413e+08
-1.21514e+09
-2.62063e+10
2.92693e+08
-1.16109e+09
-2.59363e+10
3.13358e+08
-1.10761e+09
-2.56771e+10
3.33397e+08
-1.05132e+09
-2.54272e+10
3.51561e+08
-9.87748e+08
-2.51785e+10
3.68038e+08
-9.12464e+08
-2.49178e+10
3.84188e+08
-8.25192e+08
-2.46332e+10
4.03361e+08
-7.07377e+08
-2.43174e+10
4.30735e+08
-5.40381e+08
-2.3967e+10
4.66986e+08
-3.02415e+08
-2.35827e+10
5.1279e+08
2.15521e+07
-2.31722e+10
5.79135e+08
4.59984e+08
-2.26623e+10
6.7737e+08
8.92558e+08
-2.1816e+10
9.5744e+08
1.30195e+09
-2.01936e+10