/*--------------------------------*- C++ -*----------------------------------*\
| =========                 |                                                 |
| \\      /  F ield         | OpenFOAM: The Open Source CFD Toolbox           |
|  \\    /   O peration     | Version:  4.1                                   |
|   \\  /    A nd           | Web:      www.OpenFOAM.org                      |
|    \\/     M anipulation  |                                                 |
\*---------------------------------------------------------------------------*/
FoamFile
{
    version     2.0;
    format      ascii;
    class       volScalarField;
    location    "61";
    object      p;
}
// * * * * * * * * * * * * * * * * * * * * * * * * * * * * * * * * * * * * * //

dimensions      [0 2 -2 0 0 0 0];

internalField   nonuniform List<scalar> 
4432
(
100881
100882
100882
100884
100887
100890
100894
100898
100904
100910
100918
100926
100934
100943
100951
100958
100965
100970
100976
100989
101006
101026
101045
101067
101092
101117
101141
101158
101171
101181
101188
101193
101198
101206
101212
101208
101201
101206
101211
101214
101216
101220
101229
101238
101245
101254
101245
101249
101270
101266
101215
101168
101147
101174
100881
100882
100882
100884
100887
100890
100894
100898
100904
100910
100918
100926
100934
100943
100951
100959
100965
100970
100976
100988
101007
101027
101047
101069
101093
101119
101141
101158
101172
101183
101190
101196
101200
101205
101209
101207
101203
101203
101207
101214
101220
101224
101229
101232
101239
101261
101258
101247
101258
101257
101214
101182
101131
101159
100880
100880
100880
100882
100885
100888
100891
100896
100901
100907
100915
100923
100932
100942
100953
100965
100981
101000
101016
101028
101041
101058
101075
101092
101108
101125
101141
101157
101173
101187
101196
101201
101203
101201
101198
101190
101187
101193
101201
101211
101216
101215
101221
101232
101241
101248
101253
101258
101268
101266
101253
101229
101041
101232
100880
100880
100880
100882
100885
100888
100891
100896
100901
100907
100915
100923
100932
100942
100952
100965
100981
101000
101017
101029
101041
101057
101073
101089
101106
101122
101139
101156
101171
101184
101192
101195
101197
101201
101200
101194
101190
101193
101202
101213
101218
101218
101223
101233
101240
101248
101254
101256
101269
101269
101248
101233
101026
101229
100878
100879
100879
100881
100884
100887
100890
100895
100900
100906
100914
100922
100931
100941
100952
100964
100977
100989
101004
101020
101037
101055
101072
101088
101105
101124
101143
101161
101179
101195
101205
101211
101219
101222
101209
101190
101186
101196
101210
101224
101222
101214
101219
101232
101242
101249
101262
101266
101266
101254
101244
101232
101228
101310
100878
100879
100879
100881
100884
100887
100890
100895
100900
100906
100914
100922
100931
100941
100952
100964
100977
100989
101003
101019
101037
101054
101071
101087
101103
101122
101141
101159
101177
101193
101204
101207
101210
101215
101211
101198
101192
101198
101207
101218
101222
101216
101221
101233
101241
101248
101258
101267
101268
101259
101244
101222
101205
101329
100876
100876
100877
100879
100881
100884
100888
100892
100897
100903
100911
100919
100928
100938
100948
100959
100971
100982
100996
101014
101033
101050
101066
101083
101102
101125
101148
101169
101190
101209
101223
101237
101255
101251
101221
101177
101165
101183
101206
101230
101221
101204
101215
101230
101242
101252
101268
101273
101274
101261
101246
101242
101251
101241
100876
100876
100877
100879
100881
100884
100888
100892
100897
100903
100911
100919
100928
100938
100948
100959
100971
100982
100995
101014
101032
101050
101066
101083
101102
101125
101147
101168
101190
101209
101222
101234
101249
101246
101226
101195
101186
101195
101209
101221
101218
101209
101216
101228
101241
101253
101266
101275
101272
101264
101249
101244
101223
101225
100873
100874
100874
100876
100878
100881
100885
100889
100894
100900
100907
100915
100924
100934
100944
100954
100966
100977
100989
101004
101022
101040
101058
101076
101098
101125
101153
101179
101205
101227
101245
101266
101286
101287
101313
101148
101148
101170
101194
101233
101229
101200
101218
101233
101246
101257
101259
101268
101288
101290
101286
101247
101230
101317
100873
100873
100874
100876
100878
100881
100885
100889
100894
100900
100907
100915
100924
100934
100944
100954
100965
100977
100989
101004
101021
101040
101058
101076
101099
101126
101153
101179
101207
101230
101247
101263
101280
101274
101255
101199
101173
101182
101206
101233
101234
101211
101217
101228
101241
101254
101267
101278
101285
101284
101273
101265
101209
101288
100870
100870
100871
100872
100875
100878
100881
100885
100890
100896
100903
100911
100919
100928
100938
100948
100958
100969
100981
100995
101012
101029
101047
101065
101087
101116
101147
101177
101209
101236
101256
101281
101315
101472
101749
101274
101152
101153
101172
101182
101183
101224
101235
101238
101245
101257
101258
101269
101291
101306
101305
101257
101232
101312
100870
100870
100871
100872
100875
100878
100881
100885
100890
100896
100903
100911
100919
100928
100938
100948
100958
100969
100981
100995
101011
101029
101047
101066
101089
101117
101147
101176
101208
101236
101255
101269
101285
101329
101364
101236
101162
101164
101186
101212
101225
101220
101226
101233
101242
101250
101259
101271
101287
101296
101295
101258
101245
101336
100866
100866
100866
100868
100870
100873
100876
100880
100885
100890
100897
100905
100913
100922
100931
100941
100951
100962
100973
100986
101001
101019
101036
101052
101070
101097
101130
101160
101188
101215
101242
101279
101366
101747
101581
101501
101177
101166
101178
101185
101192
101228
101243
101244
101249
101259
101263
101269
101283
101302
101317
101291
101239
101293
100866
100866
100866
100868
100870
100873
100876
100880
100885
100890
100897
100905
100913
100922
100931
100941
100951
100962
100973
100986
101002
101019
101036
101054
101073
101099
101129
101156
101186
101215
101236
101258
101293
101380
101454
101286
101153
101155
101178
101192
101203
101219
101234
101242
101248
101253
101253
101261
101278
101295
101300
101277
101266
101295
100861
100861
100862
100863
100865
100868
100871
100875
100879
100885
100891
100898
100906
100915
100923
100933
100943
100953
100965
100977
100991
101007
101022
101037
101050
101070
101100
101126
101148
101166
101186
101213
101245
101346
101361
101239
101174
101169
101180
101193
101204
101218
101234
101242
101248
101257
101262
101260
101266
101285
101313
101306
101262
101299
100861
100861
100862
100863
100865
100868
100871
100874
100879
100885
100891
100898
100906
100915
100923
100933
100943
100953
100965
100978
100992
101007
101022
101038
101053
101073
101099
101121
101144
101167
101185
101207
101242
101281
101320
101237
101168
101168
101187
101206
101213
101217
101227
101237
101250
101257
101254
101254
101265
101288
101311
101299
101265
101308
100856
100856
100856
100858
100860
100862
100865
100868
100873
100878
100884
100891
100899
100907
100915
100924
100934
100944
100956
100968
100980
100993
101005
101017
101027
101036
101057
101080
101102
101124
101144
101164
101197
101223
101247
101199
101171
101176
101189
101196
101204
101214
101228
101243
101253
101259
101257
101250
101250
101268
101301
101306
101283
101317
100856
100856
100856
100858
100860
100862
100865
100868
100873
100878
100884
100891
100899
100907
100915
100924
100934
100944
100956
100968
100980
100993
101005
101016
101026
101039
101057
101078
101100
101121
101141
101165
101197
101224
101244
101222
101196
101190
101198
101211
101221
101223
101224
101234
101251
101259
101256
101249
101256
101279
101306
101301
101282
101331
100850
100850
100851
100852
100854
100856
100859
100862
100865
100870
100876
100883
100890
100898
100906
100915
100924
100935
100946
100957
100968
100978
100986
100993
100996
100999
101012
101035
101063
101090
101114
101142
101176
101205
101235
101231
101218
101213
101214
101218
101225
101230
101239
101255
101268
101272
101264
101249
101243
101257
101288
101306
101310
101318
100850
100850
100851
100852
100854
100856
100859
100862
100865
100870
100876
100883
100890
100898
100906
100915
100924
100935
100946
100957
100968
100978
100986
100990
100994
100999
101013
101037
101063
101088
101114
101142
101175
101209
101237
101239
101231
101227
101230
101235
101239
101238
101238
101248
101266
101273
101262
101249
101247
101261
101286
101302
101305
101333
100844
100844
100844
100845
100847
100849
100851
100854
100858
100862
100867
100874
100880
100888
100895
100904
100914
100924
100936
100947
100958
100965
100968
100965
100956
100952
100967
100999
101033
101065
101097
101132
101167
101203
101236
101252
101258
101265
101272
101277
101279
101279
101277
101279
101283
101288
101281
101260
101241
101245
101275
101295
101287
101232
100844
100844
100844
100845
100847
100849
100851
100854
100858
100862
100867
100874
100880
100888
100895
100904
100914
100924
100936
100947
100958
100965
100968
100964
100954
100952
100969
101001
101033
101064
101097
101132
101169
101206
101236
101252
101260
101270
101281
101289
101292
101289
101282
101279
101286
101290
101279
101257
101243
101249
101272
101292
101267
101239
100837
100838
100838
100839
100840
100842
100844
100846
100849
100853
100858
100864
100870
100877
100884
100893
100902
100913
100926
100938
100950
100957
100957
100941
100906
100886
100908
100953
100996
101034
101073
101114
101156
101196
101233
101264
101290
101313
101331
101339
101335
101324
101311
101300
101291
101291
101288
101273
101249
101240
101256
101278
101273
101245
100837
100837
100838
100839
100840
100842
100844
100846
100849
100853
100858
100864
100870
100877
100884
100893
100902
100913
100926
100938
100950
100957
100955
100939
100903
100885
100911
100955
100995
101033
101073
101115
101157
101197
101233
101264
101291
101316
101336
101345
101342
101330
101314
101301
101295
101294
101286
101266
101246
101243
101259
101278
101263
101281
100830
100831
100831
100831
100833
100834
100836
100837
100840
100843
100848
100853
100858
100864
100872
100880
100890
100901
100915
100931
100947
100958
100957
100925
100842
100800
100831
100896
100952
100996
101042
101090
101138
101186
101235
101283
101327
101364
101388
101393
101378
101354
101329
101311
101300
101295
101292
101282
101262
101244
101242
101252
101254
101234
100830
100831
100831
100831
100833
100834
100836
100837
100840
100844
100848
100853
100858
100864
100872
100880
100890
100901
100915
100931
100946
100958
100954
100918
100830
100796
100840
100902
100953
100997
101043
101091
101138
101187
101236
101284
101330
101367
101392
101395
101379
101354
101330
101312
101302
101297
101291
101276
101256
101243
101244
101251
101253
101227
100823
100823
100823
100824
100825
100826
100827
100828
100830
100833
100837
100841
100846
100851
100857
100865
100875
100887
100903
100923
100950
100980
100998
100944
100767
100642
100728
100837
100906
100955
101007
101061
101115
101172
101237
101303
101367
101415
101449
101447
101417
101375
101340
101319
101307
101300
101295
101285
101268
101248
101237
101237
101242
101230
100823
100823
100823
100824
100825
100826
100827
100828
100830
100833
100837
100841
100846
100851
100857
100865
100875
100887
100903
100923
100949
100979
100995
100934
100729
100652
100743
100837
100904
100957
101010
101062
101115
101173
101238
101303
101369
101415
101466
101461
101422
101373
101335
101314
101303
101299
101294
101282
101264
101247
101238
101238
101246
101226
100816
100816
100816
100816
100817
100817
100818
100819
100820
100822
100825
100828
100832
100836
100842
100848
100857
100869
100885
100909
100946
101014
101084
101090
100591
100326
100557
100779
100865
100905
100960
101020
101080
101147
101227
101314
101399
101453
101515
101516
101458
101388
101340
101316
101302
101294
101289
101282
101269
101252
101239
101233
101240
101227
100816
100816
100816
100816
100817
100817
100818
100819
100820
100822
100825
100828
100832
100836
100842
100848
100857
100869
100885
100908
100946
101012
101078
101067
100393
100469
100642
100790
100865
100915
100970
101025
101082
101147
101231
101322
101413
101436
101513
101519
101453
101380
101338
101316
101303
101294
101288
101279
101265
101249
101238
101235
101243
101226
100808
100808
100808
100808
100808
100809
100809
100809
100810
100811
100813
100815
100817
100820
100824
100829
100836
100845
100858
100878
100908
100956
101076
101354
100338
100558
100761
100831
100852
100897
100954
101016
101093
101193
101306
101426
101465
101531
101575
101502
101404
101346
101315
101293
101279
101271
101267
101260
101249
101238
101231
101236
101220
100808
100808
100808
100808
100808
100809
100809
100809
100810
100811
100813
100815
100817
100820
100824
100829
100836
100845
100858
100878
100907
100954
101071
101332
100284
100588
100763
100835
100869
100914
100965
101021
101095
101182
101316
101435
101419
101401
101546
101486
101399
101347
101316
101292
101276
101268
101263
101257
101247
101238
101232
101238
101224
100801
100801
100800
100800
100800
100800
100799
100799
100799
100799
100800
100801
100802
100803
100805
100808
100811
100816
100823
100832
100840
100837
100799
100725
100394
100443
100733
100855
100851
100836
100853
100882
100923
100995
101101
101220
101353
101382
101441
101613
101536
101431
101357
101307
101271
101248
101238
101237
101238
101237
101235
101231
101238
101217
100801
100801
100800
100800
100800
100800
100799
100799
100799
100799
100800
100801
100802
100803
100805
100808
100811
100816
100823
100832
100839
100836
100794
100709
100414
100503
100771
100866
100854
100845
100864
100892
100926
100984
101039
101213
101223
101461
101397
101410
101424
101391
101347
101305
101272
101249
101238
101236
101236
101235
101234
101230
101237
101221
100793
100793
100792
100792
100791
100791
100790
100789
100788
100787
100787
100786
100786
100785
100785
100785
100785
100785
100785
100783
100776
100757
100722
100649
100581
100596
100742
100815
100825
100827
100825
100817
100819
100871
101040
101215
101192
101396
101671
101465
101414
101381
101323
101270
101232
101209
101199
101200
101208
101217
101227
101232
101250
101227
100793
100793
100792
100792
100791
100791
100790
100789
100788
100787
100787
100786
100786
100785
100785
100785
100785
100785
100785
100783
100776
100756
100720
100648
100573
100606
100751
100819
100824
100824
100823
100818
100817
100842
100894
101127
100927
101295
101748
100794
101216
101353
101323
101273
101235
101213
101202
101201
101207
101215
101224
101231
101246
101224
100786
100785
100785
100784
100783
100782
100781
100779
100777
100775
100773
100772
100769
100767
100764
100761
100757
100753
100747
100738
100725
100705
100676
100635
100591
100589
100644
100703
100742
100762
100761
100737
100706
100701
100811
101077
102124
101235
100349
100712
101215
101335
101284
101225
101187
101168
101161
101164
101174
101188
101203
101214
101243
101222
100786
100785
100785
100784
100783
100782
100781
100779
100777
100775
100773
100772
100769
100767
100764
100761
100757
100753
100747
100738
100725
100704
100675
100635
100592
100598
100654
100708
100738
100752
100750
100732
100710
100629
100775
101107
101618
99404.9
99876.5
99427.6
100233
101157
101277
101230
101188
101168
101163
101166
101174
101186
101201
101214
101243
101230
100778
100778
100777
100776
100775
100773
100771
100769
100766
100763
100760
100757
100753
100749
100743
100737
100730
100721
100711
100698
100680
100658
100630
100598
100567
100556
100576
100609
100634
100646
100643
100625
100511
100569
100628
99601.3
98793.5
98314.5
98530.6
99252
100206
101077
101209
101147
101119
101112
101115
101125
101140
101159
101175
101184
101202
101178
100778
100778
100777
100776
100775
100773
100771
100769
100766
100763
100760
100757
100753
100749
100743
100737
100730
100722
100711
100698
100680
100658
100630
100598
100569
100561
100581
100611
100629
100636
100635
100626
100629
100656
100587
100146
101871
98908.5
98669.8
98852.9
99560.8
100561
101127
101154
101119
101107
101112
101125
101142
101158
101171
101178
101212
101208
100771
100771
100770
100769
100767
100765
100762
100759
100756
100752
100747
100743
100737
100731
100723
100714
100704
100692
100677
100660
100639
100614
100585
100555
100528
100510
100505
100507
100505
100505
100505
100533
100272
100482
100879
100178
98035.8
97959.6
98667.9
99259.2
99865.2
100655
101002
101025
101034
101045
101062
101083
101110
101144
101174
101187
101205
101224
100771
100771
100770
100769
100767
100765
100762
100759
100756
100752
100747
100743
100737
100731
100723
100714
100704
100692
100677
100660
100639
100614
100586
100556
100529
100511
100506
100506
100500
100494
100492
100541
100513
100583
100810
99192.6
99286.5
98349.1
98858.1
99357.1
99989.3
100594
100868
100975
101031
101045
101059
101083
101113
101144
101165
101178
101185
101168
100765
100765
100763
100762
100760
100757
100754
100750
100746
100741
100735
100729
100722
100713
100704
100692
100679
100663
100645
100624
100600
100572
100540
100506
100472
100440
100411
100386
100361
100357
100384
100644
100423
99483.2
99383.6
98744.3
97872.4
98246.3
99030.7
99643.9
100014
100366
100821
100911
100953
100978
101003
101033
101074
101125
101175
101206
101251
101274
100765
100765
100763
100762
100760
100757
100754
100750
100746
100741
100735
100729
100722
100713
100704
100692
100679
100664
100646
100624
100600
100572
100540
100507
100472
100440
100411
100383
100353
100329
100299
100367
100632
99783.9
95643.4
95945.5
97494
98226.4
99111.9
99769.1
100217
100435
100662
100857
100949
100982
101004
101034
101077
101128
101173
101200
101211
101234
100759
100758
100757
100755
100753
100750
100746
100741
100736
100730
100724
100716
100707
100697
100685
100672
100656
100637
100616
100591
100563
100530
100492
100451
100405
100356
100304
100250
100198
100175
100281
100498
100717
99568
97378.4
97133.2
97781.7
98577.6
99231.4
99597
99856.3
100067
100512
100804
100886
100917
100941
100975
101024
101080
101139
101186
101230
101228
100759
100758
100757
100755
100753
100750
100746
100741
100736
100730
100724
100716
100707
100697
100685
100672
100656
100637
100616
100591
100563
100530
100493
100451
100405
100356
100303
100248
100187
100141
100066
100324
100477
99363.2
96330.2
96808
97787.9
98643.1
99289.5
99649.5
99950.5
100158
100440
100753
100875
100917
100944
100977
101025
101082
101144
101191
101235
101260
100753
100753
100751
100749
100747
100743
100739
100734
100728
100721
100713
100704
100694
100683
100669
100653
100635
100613
100589
100560
100527
100488
100444
100393
100335
100267
100191
100096
99998.6
99792.8
100066
100191
100336
91029.5
93167.5
96445.9
98081.9
99031.4
99336.8
99333
99529.5
99901.7
100339
100664
100784
100842
100874
100912
100963
101022
101100
101161
101214
101251
100753
100753
100751
100749
100747
100743
100739
100734
100728
100721
100713
100705
100694
100683
100669
100653
100635
100613
100589
100560
100527
100489
100444
100393
100334
100267
100190
100100
99992.3
99853
99761.9
99845.4
97681.5
96480.7
96418.2
97253.3
98374.2
99176.8
99381.6
99311.7
99541
99967
100360
100641
100773
100838
100878
100916
100965
101021
101096
101164
101198
101182
100748
100748
100746
100744
100741
100737
100733
100727
100720
100712
100704
100694
100683
100669
100654
100636
100616
100592
100564
100532
100494
100450
100398
100337
100265
100180
100078
99946
99778.9
99459
98968.5
100284
96126.7
92389.4
95099.3
97768.4
99416.4
100003
99681.6
99251.8
99368.8
99778.7
100198
100505
100664
100760
100810
100851
100898
100955
101035
101115
101184
101247
100748
100748
100746
100744
100741
100737
100733
100727
100720
100713
100704
100694
100683
100670
100654
100636
100616
100592
100564
100532
100494
100450
100398
100337
100265
100179
100077
99956.6
99789.9
99547.2
99243.9
98898.7
96252.2
93977.9
96317.2
98280.7
99683.3
100145
99709.1
99206.5
99351.8
99843.7
100256
100498
100650
100753
100810
100856
100900
100948
101023
101103
101165
101244
100744
100744
100742
100739
100736
100732
100727
100721
100714
100705
100696
100685
100673
100658
100641
100622
100599
100573
100542
100506
100464
100414
100355
100285
100201
100099
99973.5
99815.3
99600.8
99303.3
98733.7
98462.3
100035
100274
99733.3
100464
101313
101145
100110
99186.2
99170.5
99600.9
100038
100372
100571
100690
100760
100799
100835
100866
100884
100942
101100
101268
100744
100744
100742
100739
100736
100732
100727
100721
100713
100705
100696
100685
100673
100658
100641
100622
100599
100573
100542
100506
100464
100414
100355
100285
100200
100097
99966.3
99818.4
99631.4
99389.5
99087.7
98384.5
97037.5
97619.2
99180.6
100623
101548
101263
100118
99137.9
99144.7
99646.4
100083
100367
100556
100682
100756
100803
100840
100867
100881
100885
101039
101242
100741
100740
100738
100736
100732
100728
100723
100716
100708
100699
100689
100678
100665
100649
100631
100610
100586
100557
100524
100485
100439
100385
100319
100241
100147
100031
99889.2
99713.3
99474.7
99172.4
98673.9
98064.8
98301.9
99634.7
99804.9
100585
101552
101381
100246
99053.6
98961.6
99458.5
99981.8
100323
100512
100636
100735
100783
100816
100816
100793
100814
100895
101191
100741
100740
100738
100736
100732
100728
100723
100716
100708
100699
100689
100678
100665
100649
100631
100610
100586
100557
100524
100485
100439
100384
100319
100241
100146
100025
99886.9
99714
99482.4
99197.7
98924.7
97784
97321.3
98599.3
99813.6
101060
101761
101385
100257
99084.1
98933.4
99462.6
100003
100334
100512
100630
100724
100782
100833
100857
100840
100776
100749
101132
100739
100738
100736
100733
100729
100725
100719
100712
100704
100695
100684
100672
100658
100642
100623
100601
100575
100545
100510
100468
100419
100361
100291
100207
100106
99982.4
99831.2
99639.6
99390.4
99071.4
98679.6
98050.2
97682.4
98215.4
97806.8
99016.7
100248
100628
100203
99393.9
99189.4
99604.7
100071
100390
100523
100629
100730
100777
100810
100809
100833
100803
100581
101046
100739
100738
100736
100733
100729
100725
100719
100712
100704
100695
100684
100672
100658
100642
100623
100601
100575
100545
100510
100468
100419
100361
100291
100207
100106
99981.5
99837.7
99645.2
99384.2
99063.8
98637.3
97992.5
97680.8
98233.4
99019.2
99765.2
99837.2
100103
99984.1
99479.1
99241.4
99575.8
100060
100404
100546
100627
100716
100779
100827
100853
100917
100885
100506
100928
100737
100736
100734
100731
100727
100723
100717
100710
100702
100692
100681
100669
100654
100637
100618
100595
100568
100537
100500
100457
100406
100345
100272
100184
100078
99948.4
99789.5
99590.7
99339.3
99021.8
98647.8
98144.4
97670.6
97045.8
96206.3
96372
95713.3
95820.5
96393
97819.7
98857
99740.3
100202
100483
100630
100722
100780
100803
100819
100839
100932
100911
100453
100810
100737
100736
100734
100731
100727
100723
100717
100710
100701
100692
100681
100669
100654
100637
100618
100595
100568
100537
100500
100457
100406
100345
100272
100184
100078
99948.7
99791.6
99597.4
99341
99012.4
98662.7
98161.5
97697.2
97534.7
97041.9
96118.1
95056.6
95283.3
96062.3
97630.1
98934.1
99747.9
100198
100479
100628
100723
100780
100807
100823
100856
101008
101055
100517
100791
100736
100735
100733
100730
100726
100721
100715
100708
100700
100690
100679
100667
100652
100635
100615
100591
100564
100532
100495
100451
100399
100336
100261
100171
100063
99930.2
99767.6
99566.1
99315.1
99002.9
98623.4
98136.8
97528
96948.9
96347.9
95072.8
92853.8
92146.4
93017.7
95287.5
97605.1
99096.3
99864.2
100259
100536
100716
100786
100803
100808
100824
100841
100756
100585
100811
100736
100735
100733
100730
100726
100721
100715
100708
100700
100690
100679
100667
100652
100635
100615
100591
100564
100532
100495
100451
100398
100336
100261
100171
100063
99930.3
99768.2
99568.5
99317.6
99006.9
98644.7
98202.9
97709.6
97012.7
95722.8
94083.8
92825.5
92325.7
93097.4
95159.8
97511.6
99094.7
99868.7
100249
100509
100704
100792
100805
100811
100836
100866
100793
100614
100790
100684
101074
100520
101480
101481
100508
100442
100501
100403
100298
100482
101060
100449
101486
101440
100491
100292
100452
100273
100294
101349
100800
100461
100771
100376
100454
100311
100449
100264
100356
100241
101323
100761
100363
100760
100340
100277
100294
100328
100272
100308
100330
100867
100939
100855
100992
100876
100981
100855
100699
100748
100682
100686
100602
100655
100573
100841
100929
100833
100970
100811
100965
100785
100672
100721
100669
100581
100532
100538
100513
101151
101082
101147
101132
101283
101131
101284
100514
100638
100570
100634
100549
100422
100394
100492
100300
100316
100264
100314
101138
101076
101137
101128
101269
101122
101273
100133
100544
100332
100410
100334
100544
100493
100575
100262
100361
100314
100441
101162
101075
101165
100941
100926
100938
100918
100588
101365
101053
101050
100644
100327
100395
100359
100277
100357
100304
100392
100289
100404
101158
101068
101159
100934
100907
100932
100908
100526
101333
101049
100528
101040
100280
100284
100392
100325
100453
100332
100438
100385
100478
100562
100717
100557
100680
100573
100682
100577
100205
100401
100282
100476
100454
100483
100480
100558
100706
100555
100682
100581
100682
100584
100352
100414
100369
100490
100488
100492
100487
100965
100882
100662
100874
101009
100955
100637
100815
100857
100952
101320
101401
101492
101407
101337
101116
101160
101320
101403
101490
101407
101314
101111
101103
100463
100539
100589
100599
100387
100510
100534
100497
100394
100376
100379
100517
100473
100380
100472
100334
100322
100347
100377
100874
100774
100485
100778
100999
100917
100452
100755
100749
100896
101324
101380
101466
101279
101407
101162
101068
101307
101398
101457
101394
101304
101126
101093
100088
100293
100349
100363
100054
100189
100346
100309
100320
100268
100364
100321
100138
100105
100290
100300
100271
100314
100251
100273
100335
100573
101361
101049
101043
100553
100247
100200
100317
100559
100440
100550
100369
100297
100409
100513
100222
100536
100367
100420
100428
100377
100421
100288
100277
100322
100355
100273
100304
100280
100327
100427
100433
100413
100361
100304
100400
100363
100305
100393
100167
100173
100542
101330
101027
101033
100564
100197
100241
100159
100502
100347
100191
100488
100185
100351
100479
100492
100245
100272
100273
100255
100284
100253
100250
100291
100274
100279
100284
100270
100290
100288
100342
100299
100301
100320
100265
100307
100325
100307
100292
101158
101022
101086
101228
101016
101228
101167
101116
100975
101059
101203
100960
101133
101205
101151
101080
100991
101219
101005
101224
101147
100546
100589
100511
100401
100573
100390
100560
100503
100504
100535
100391
100543
100382
100449
101127
101068
100973
101231
100973
101223
101126
100398
100517
100467
100407
100451
100435
100402
100366
100457
100414
100364
100420
100384
100338
100721
100877
100719
100794
100868
100714
100730
100699
100850
100786
100679
100858
100670
100703
100307
100331
100316
100231
100276
100290
100346
100252
100235
100220
100302
100234
100250
100286
100627
100839
100662
100754
100637
100826
100650
100642
100839
100758
100656
100834
100657
100653
100255
100240
100316
100305
100256
100246
100308
100258
100284
100320
100314
100269
100296
100274
100573
100590
100480
100541
100608
100528
100536
100385
100290
100261
100383
100375
100187
100234
100325
100569
100549
100607
100549
100613
100553
100547
100073
100302
100202
99728.4
100370
99969.2
99849.5
99849.3
99713.5
99875.2
99750.8
100201
100270
100512
100047
100289
100445
99965.6
99735.7
99639.8
99713.5
99635
101024
100782
100837
100600
100789
101013
100851
101239
101497
101506
101250
101231
101486
101491
101219
101037
100600
100835
100851
100807
100856
101032
100362
100393
101093
100746
100517
100825
100797
101008
100815
101325
101518
101404
101254
101317
101519
101448
101159
101117
100519
100810
100799
101032
100807
100825
100274
100282
100564
100910
100560
100977
100924
100538
100582
100423
100332
100299
100440
100398
100222
100260
100369
100564
100979
100923
100618
100926
100584
100618
100480
100897
100534
100939
100516
100878
100498
100249
99933.1
100010
100305
100299
100189
100349
100135
100476
100932
100880
100406
100870
100497
100553
101543
101372
101527
101320
101371
101526
101540
101602
101582
101594
101588
101595
101577
101582
101589
101551
101332
101374
101534
101377
101538
101530
101121
101131
101543
101371
101330
101529
101371
101541
101527
101602
101593
101585
101576
101548
101335
101389
101540
101373
101527
101548
101593
101584
101593
101578
101113
101113
100392
100544
100397
100427
100463
100514
100312
100102
99794.3
99952.5
99952.2
100168
100127
100247
100064
100367
100383
100528
100178
100350
100485
100252
100525
100529
100434
100479
100441
100508
100494
100449
100426
100439
100471
100478
100439
100416
100429
100402
100455
100450
100514
100499
100465
100502
100465
100450
100436
100397
100397
100454
100442
100421
100439
100401
100411
100348
100330
100350
100344
100388
100408
100396
100377
100416
100397
100381
100361
100388
100370
100366
100400
100802
100859
100359
100821
100386
100346
100107
99817.4
99863.7
100136
100342
100934
100879
100604
100831
100425
100437
100187
99845.5
99901.7
100158
100286
100787
100441
100894
100303
100783
100405
100052
99832.8
99773.1
100104
100046
99789.7
100077
99758.2
100292
100837
100785
100400
100776
100351
100368
101602
101358
101383
101674
101341
101572
101608
101882
101599
101471
101547
101543
101357
101395
101693
101329
101549
101546
101691
101700
101498
101681
101201
101185
101618
101355
101654
101303
101327
101549
101621
101654
101545
101616
101565
101635
101612
101636
101612
101605
101306
101339
101618
101309
101688
101515
101162
101109
99991.1
100278
99675.6
100075
99954.6
100293
99681.4
99614.7
99695.9
99607
99695.8
99635.3
99608.7
99618.8
99590.8
99936.3
100056
100224
99666.8
100253
99665.2
99951.2
100247
100304
100310
100314
100350
100314
100352
100327
100306
100332
100316
100339
100312
100342
100332
100379
100366
100359
100369
100345
100307
100289
100298
100296
100109
100114
100287
100342
100297
100258
100317
100306
100271
100299
100299
100297
100314
100297
100282
100296
100287
100277
100248
100299
100279
100299
100271
100287
100281
100279
101016
100784
100825
100572
101005
100794
100830
101224
101490
101215
101482
101225
101489