/*--------------------------------*- C++ -*----------------------------------*\
| =========                 |                                                 |
| \\      /  F ield         | OpenFOAM: The Open Source CFD Toolbox           |
|  \\    /   O peration     | Version:  4.1                                   |
|   \\  /    A nd           | Web:      www.OpenFOAM.org                      |
|    \\/     M anipulation  |                                                 |
\*---------------------------------------------------------------------------*/
FoamFile
{
    version     2.0;
    format      ascii;
    class       volScalarField;
    location    "59";
    object      omega;
}
// * * * * * * * * * * * * * * * * * * * * * * * * * * * * * * * * * * * * * //

dimensions      [0 0 -1 0 0 0 0];

internalField   nonuniform List<scalar> 
4432
(
0.0110959
0.011446
0.0118152
0.0121526
0.0125153
0.012838
0.0131955
0.013503
0.0138536
0.0141448
0.0144848
0.0147631
0.0150877
0.0153558
0.0156622
0.0159208
0.0162106
0.0164578
0.0167349
0.0169683
0.0172359
0.0174615
0.0177227
0.0179381
0.018188
0.0183888
0.0186368
0.0188279
0.0190843
0.0192728
0.0195409
0.0197276
0.0199932
0.0201702
0.0204124
0.0205674
0.0207666
0.0209053
0.0210708
0.0212201
0.0213566
0.0215043
0.0216122
0.0217742
0.0218676
0.0220071
0.0220989
0.0222208
0.0223769
0.0225778
0.0226947
0.0231128
0.023165
0.0234194
0.0110965
0.011445
0.0118215
0.0121475
0.0125249
0.0128291
0.0132075
0.0134904
0.0138678
0.0141287
0.0145012
0.0147448
0.0151059
0.0153376
0.0156812
0.0159055
0.0162288
0.0164473
0.0167514
0.0169617
0.0172495
0.0174556
0.0177342
0.0179334
0.0182022
0.0183921
0.0186568
0.0188388
0.0191048
0.0192855
0.019557
0.0197393
0.0200034
0.0201798
0.0204191
0.0205809
0.020776
0.0209427
0.0211005
0.0212866
0.0214175
0.0216024
0.0217339
0.0218714
0.0219914
0.0220861
0.0222095
0.0223084
0.0224386
0.022523
0.0227307
0.0228443
0.0230206
0.0231639
21.7958
3.38003
1.22809
0.663019
0.43627
0.320353
0.251558
0.206487
0.174846
0.151482
0.133563
0.119398
0.107934
0.0984692
0.0905305
0.0837789
0.0779701
0.0729232
0.0684921
0.0645836
0.0610957
0.0579884
0.0551726
0.0526453
0.0503202
0.0482261
0.046276
0.044523
0.0428716
0.0413979
0.0399822
0.0387264
0.0374819
0.0363806
0.0352407
0.0342418
0.0331972
0.0323106
0.0313778
0.0306155
0.0297981
0.0291226
0.0284006
0.0278056
0.0271762
0.0266265
0.0260656
0.0255785
0.0250828
0.0246806
0.0243134
0.0239425
0.0236431
0.0231815
21.7958
3.38003
1.22808
0.663013
0.436266
0.32035
0.251556
0.206485
0.174843
0.15148
0.133561
0.119395
0.107933
0.0984661
0.0905307
0.0837751
0.0779703
0.0729171
0.0684919
0.0645761
0.0610951
0.0579803
0.0551721
0.0526402
0.0503232
0.0482302
0.0462841
0.0445368
0.0428809
0.0414109
0.0399801
0.0387251
0.0374628
0.036363
0.0352109
0.0342233
0.0331776
0.0323171
0.0313862
0.030641
0.0298191
0.029165
0.0284353
0.0278517
0.0271984
0.0266697
0.0260907
0.0256259
0.0251143
0.0247351
0.0243129
0.02398
0.0236053
0.0231061
21.7956
3.38028
1.2284
0.663313
0.436528
0.320585
0.25176
0.206672
0.175024
0.151665
0.133746
0.119589
0.108126
0.0986697
0.0907301
0.0839862
0.0781739
0.0731317
0.0686984
0.064792
0.0613068
0.0582022
0.0553947
0.0528662
0.0505489
0.0484473
0.0465023
0.0447369
0.0430892
0.0415945
0.0401809
0.0389011
0.0376619
0.0365455
0.0354341
0.0344451
0.0334377
0.0325653
0.03166
0.0308826
0.0300734
0.0293745
0.0286589
0.0280231
0.0273844
0.0268132
0.0262506
0.0257363
0.0252467
0.0248245
0.0244222
0.0240313
0.0237363
0.0230835
21.7956
3.38028
1.2284
0.663308
0.436525
0.320582
0.251758
0.206669
0.175023
0.151661
0.133746
0.119585
0.108127
0.0986643
0.0907323
0.0839801
0.0781759
0.0731249
0.0686981
0.0647874
0.0613064
0.0582015
0.0553916
0.052868
0.0505439
0.0484537
0.0465003
0.04475
0.043089
0.0416079
0.0401749
0.0389039
0.0376454
0.0365402
0.035415
0.0344429
0.0334287
0.0325713
0.0316558
0.030901
0.0300794
0.0294103
0.0286685
0.0280665
0.027396
0.0268587
0.0262576
0.0257872
0.0252803
0.0248606
0.024467
0.0240395
0.0238841
0.0231818
21.7958
3.38021
1.22834
0.663259
0.436478
0.320539
0.251717
0.20663
0.174984
0.151625
0.133708
0.119551
0.108089
0.0986324
0.0906945
0.0839482
0.078138
0.0730922
0.068664
0.0647614
0.0612877
0.0581869
0.0553888
0.0528582
0.0505453
0.0484379
0.0464968
0.0447252
0.0430786
0.0415756
0.0401598
0.0388713
0.0376412
0.0365239
0.035438
0.0344453
0.0334744
0.0325783
0.0317123
0.0309019
0.0301398
0.0293859
0.0287044
0.0279929
0.0273944
0.026743
0.0262199
0.0256821
0.0252138
0.0247822
0.0243695
0.0238857
0.0237428
0.0231688
21.7958
3.38021
1.22834
0.663255
0.436475
0.320536
0.251715
0.206629
0.174982
0.151624
0.133706
0.11955
0.108087
0.0986325
0.0906917
0.0839491
0.0781338
0.0730937
0.0686599
0.0647638
0.06128
0.0581864
0.0553733
0.0528567
0.0505289
0.048446
0.0464869
0.0447439
0.0430739
0.0415981
0.0401562
0.0388917
0.0376331
0.0365332
0.0354201
0.0344449
0.0334538
0.0325754
0.0317008
0.0309002
0.0301313
0.0293829
0.0287052
0.0280058
0.0274047
0.0267869
0.0262426
0.0257526
0.025234
0.0248409
0.0244162
0.0239745
0.0237975
0.023304
21.7958
3.38019
1.22832
0.663239
0.436459
0.32052
0.251698
0.20661
0.174965
0.151603
0.133688
0.119525
0.108067
0.0986028
0.0906708
0.0839145
0.0781111
0.0730566
0.0686401
0.0647279
0.0612638
0.0581535
0.0553619
0.0528299
0.0505249
0.0484247
0.0464861
0.0447239
0.0430727
0.0415792
0.0401537
0.0388751
0.0376306
0.0365228
0.0354234
0.0344464
0.0334643
0.0325832
0.0317073
0.0309068
0.030126
0.0293799
0.028683
0.0279793
0.0273759
0.0267237
0.0262485
0.0256592
0.0252861
0.0247528
0.0244167
0.0239512
0.0234841
0.0231406
21.7958
3.3802
1.22832
0.663235
0.436456
0.320517
0.251697
0.206608
0.174964
0.151601
0.133687
0.119524
0.108067
0.0986017
0.0906695
0.0839136
0.07811
0.0730567
0.068639
0.0647269
0.0612592
0.0581468
0.0553549
0.0528209
0.0505217
0.0484201
0.0464908
0.0447252
0.0430817
0.0415849
0.040164
0.0388816
0.0376349
0.0365232
0.035417
0.0344413
0.0334496
0.0325836
0.0316875
0.0309126
0.0300951
0.0293996
0.0286465
0.028027
0.0273471
0.0268076
0.0262275
0.0257366
0.0252733
0.0247758
0.0244028
0.0239199
0.0236213
0.0231677
21.7959
3.3802
1.22833
0.663236
0.436447
0.320503
0.251678
0.206588
0.174941
0.151578
0.133658
0.119497
0.108033
0.0985698
0.0906302
0.0838779
0.0780686
0.0730193
0.0685987
0.0646886
0.0612224
0.0581074
0.0553268
0.052791
0.0505129
0.0484021
0.0464954
0.0447057
0.0430907
0.0415593
0.0401781
0.0388506
0.0376546
0.0364891
0.0354474
0.0344143
0.033494
0.0325569
0.031731
0.03087
0.0301293
0.0293391
0.0286815
0.0279588
0.0273881
0.0267536
0.0262769
0.0257279
0.0253003
0.0247989
0.0243756
0.0239165
0.0236149
0.0230148
21.7959
3.3802
1.22833
0.663232
0.436444
0.320501
0.251676
0.206587
0.17494
0.151576
0.133658
0.119495
0.108033
0.0985674
0.0906322
0.083875
0.0780708
0.0730165
0.0685986
0.0646842
0.0612185
0.0581033
0.0553204
0.0527846
0.0505052
0.0483955
0.0464934
0.0447062
0.0430991
0.0415646
0.0401899
0.0388537
0.0376649
0.0364876
0.0354545
0.0344019
0.0334981
0.0325349
0.0317393
0.0308465
0.03015
0.0293194
0.028713
0.0279514
0.0274306
0.0267488
0.0263129
0.0257035
0.025315
0.0247363
0.0243977
0.0238803
0.0234931
0.0229561
21.7959
3.3802
1.22833
0.663228
0.436432
0.320485
0.251655
0.206566
0.174913
0.151553
0.133625
0.119468
0.107992
0.0985368
0.0905839
0.0838398
0.0780164
0.0729772
0.068542
0.0646436
0.0611632
0.0580633
0.0552736
0.0527565
0.0504772
0.0483869
0.0464785
0.0447069
0.0430829
0.0415652
0.0401716
0.0388555
0.0376508
0.0364935
0.0354497
0.0344119
0.0335024
0.0325478
0.0317412
0.0308484
0.0301393
0.0293094
0.0286943
0.0279372
0.0274139
0.0267377
0.0263021
0.0256954
0.0252981
0.0247125
0.0243557
0.0238079
0.0233718
0.0227898
21.7959
3.3802
1.22833
0.663225
0.43643
0.320483
0.251654
0.206564
0.174913
0.15155
0.133626
0.119464
0.107996
0.0985316
0.0905891
0.0838336
0.0780225
0.0729691
0.0685469
0.064633
0.0611658
0.0580528
0.0552743
0.0527471
0.0504773
0.0483767
0.0464839
0.0446983
0.0430962
0.0415567
0.0401878
0.0388463
0.0376656
0.0364854
0.0354565
0.0344049
0.0334971
0.0325399
0.0317352
0.0308496
0.0301428
0.0293194
0.0287132
0.0279522
0.0274412
0.0267507
0.0263218
0.0256842
0.0252909
0.02471
0.0243302
0.023776
0.0235167
0.0226414
21.796
3.38021
1.22835
0.663233
0.436424
0.320467
0.251636
0.206539
0.174889
0.151518
0.133597
0.119425
0.10796
0.0984858
0.0905447
0.0837808
0.0779683
0.0729096
0.0684851
0.064572
0.0611037
0.0579974
0.0552191
0.0527113
0.0504441
0.0483725
0.0464654
0.0447122
0.0430714
0.0415749
0.0401539
0.0388727
0.0376357
0.036525
0.0354342
0.0344532
0.0334792
0.0325924
0.0317164
0.0308986
0.0301157
0.0293552
0.0286856
0.0279748
0.0274214
0.0267579
0.0262958
0.0256656
0.0252508
0.0246495
0.0242612
0.0237173
0.0232705
0.0227034
21.7959
3.38022
1.22835
0.663231
0.436421
0.320466
0.251634
0.206541
0.174886
0.151521
0.133593
0.11943
0.107956
0.0984916
0.0905398
0.0837867
0.077963
0.0729156
0.068478
0.0645754
0.0610939
0.057999
0.05521
0.0527087
0.0504326
0.0483628
0.0464605
0.0447023
0.0430853
0.0415693
0.0401836
0.0388658
0.0376672
0.0365099
0.0354594
0.0344296
0.0334969
0.0325651
0.031732
0.0308719
0.0301384
0.0293386
0.0287145
0.0279664
0.0274503
0.0267481
0.0263127
0.025651
0.0252557
0.0246326
0.0242675
0.0237223
0.0232536
0.022719
21.796
3.38021
1.22835
0.663228
0.436411
0.320449
0.251614
0.206516
0.174861
0.151489
0.133561
0.11939
0.107916
0.0984421
0.0904908
0.0837265
0.0779036
0.0728431
0.0684094
0.064495
0.0610194
0.0579145
0.0551394
0.0526432
0.0503966
0.0483435
0.0464658
0.0447167
0.0431034
0.0415937
0.0401984
0.0388928
0.0376795
0.0365385
0.0354701
0.0344597
0.033504
0.0326024
0.0317326
0.0309171
0.0301241
0.0293797
0.0286886
0.0280006
0.0274222
0.0267728
0.0262692
0.0256681
0.025194
0.0246518
0.0242265
0.0237038
0.0232407
0.0226337
21.796
3.38022
1.22835
0.663227
0.436409
0.320449
0.251613
0.206516
0.174859
0.151491
0.13356
0.119392
0.107915
0.0984442
0.0904898
0.0837283
0.0779024
0.0728445
0.0684061
0.0644932
0.0610135
0.0579123
0.0551353
0.0526408
0.0503908
0.0483373
0.0464599
0.0447123
0.0431083
0.0415948
0.0402123
0.0388922
0.0376929
0.0365335
0.0354796
0.0344506
0.0335109
0.0325883
0.0317402
0.0309034
0.0301384
0.0293775
0.0287045
0.0280084
0.0274314
0.0267725
0.026282
0.0256441
0.0252254
0.0246284
0.024249
0.0237045
0.0232797
0.0226893
21.796
3.38023
1.22838
0.66324
0.436405
0.320434
0.251594
0.206492
0.174834
0.151458
0.133528
0.11935
0.107874
0.0983906
0.0904379
0.0836608
0.0778367
0.0727605
0.0683236
0.064392
0.0609173
0.0578058
0.0550441
0.0525649
0.0503478
0.0483381
0.0464809
0.0447658
0.0431517
0.0416615
0.0402527
0.0389507
0.0377233
0.0365831
0.03551
0.0344985
0.0335459
0.0326403
0.0317772
0.0309594
0.0301676
0.0294283
0.028722
0.0280524
0.0274435
0.0268221
0.0262575
0.0257401
0.0251432
0.0247528
0.0242688
0.0236301
0.0233368
0.0224197
21.796
3.38024
1.22838
0.663239
0.436405
0.320433
0.251595
0.20649
0.174836
0.151456
0.133532
0.119347
0.10788
0.0983866
0.0904452
0.0836554
0.0778442
0.0727538
0.0683303
0.0643846
0.0609203
0.0578023
0.0550476
0.0525618
0.0503444
0.0483226
0.0464775
0.0447504
0.0431573
0.0416532
0.0402676
0.0389501
0.0377409
0.0365842
0.0355188
0.0344989
0.0335435
0.0326402
0.0317653
0.0309628
0.0301529
0.0294439
0.028705
0.028082
0.0274128
0.0268404
0.026251
0.0256999
0.0252179
0.0246626
0.0242842
0.023727
0.0234359
0.0224762
21.7961
3.38023
1.22839
0.663239
0.436394
0.32042
0.251573
0.206472
0.174804
0.151434
0.133488
0.11932
0.107822
0.0983517
0.0903713
0.0836081
0.0777513
0.0726873
0.0682152
0.0642956
0.0607911
0.0576939
0.054922
0.0524745
0.0503105
0.0483394
0.0465564
0.0448515
0.0432961
0.0417876
0.0404075
0.0390722
0.0378438
0.0366895
0.0355865
0.0346034
0.033595
0.0327402
0.0318249
0.0310516
0.0302257
0.0295495
0.0287547
0.0282395
0.0274635
0.0270228
0.0263178
0.0258856
0.0252618
0.0245699
0.024178
0.0232198
0.022951
0.0226533
21.7961
3.38024
1.22839
0.663239
0.436394
0.32042
0.251574
0.206472
0.174806
0.151434
0.13349
0.11932
0.107825
0.0983521
0.0903744
0.083607
0.0777555
0.0726835
0.0682225
0.0642855
0.0608045
0.0576805
0.0549428
0.0524651
0.0503212
0.0483407
0.0465524
0.0448524
0.0432861
0.0417883
0.0404008
0.039071
0.037848
0.0366753
0.0356038
0.0345674
0.0336183
0.0326896
0.0318456
0.0309945
0.0302561
0.0294647
0.0288237
0.0281223
0.0274958
0.0269186
0.0263233
0.0258101
0.0253007
0.0247415
0.0243496
0.0236251
0.0233071
0.0224567
21.7961
3.38025
1.22843
0.663255
0.436391
0.320412
0.251551
0.20646
0.174769
0.151423
0.133437
0.119311
0.107749
0.0983446
0.090268
0.0835996
0.0776088
0.0726687
0.0680287
0.0642525
0.0605694
0.057624
0.0547231
0.0524515
0.0503672
0.0486117
0.0469605
0.045427
0.0438932
0.0424819
0.0410744
0.0398048
0.038536
0.0374036
0.0363098
0.0352835
0.0343373
0.0334366
0.0325369
0.0318035
0.0309986
0.0303645
0.0295709
0.0290438
0.0282672
0.0277675
0.0270655
0.026792
0.0262415
0.0262028
0.0254823
0.0254794
0.025427
0.0254832
21.7961
3.38026
1.22843
0.663257
0.436392
0.320413
0.251552
0.206463
0.17477
0.151427
0.133436
0.119318
0.107746
0.0983535
0.0902629
0.0836099
0.0776025
0.0726791
0.068022
0.064262
0.0605641
0.0576267
0.0547307
0.052454
0.0503941
0.0485901
0.0469351
0.045334
0.0438123
0.0423489
0.0409787
0.039654
0.0384378
0.0372523
0.0361858
0.0351293
0.0341708
0.0332597
0.0323404
0.0316104
0.0307368
0.0300776
0.0294297
0.0286755
0.0279659
0.0275125
0.026709
0.0260563
0.0256816
0.0252703
0.0251945
0.0245806
0.0244684
0.0243953
21.7962
3.38026
1.22844
0.663261
0.436387
0.320402
0.251537
0.206446
0.174747
0.151407
0.133403
0.119297
0.107693
0.098337
0.0901769
0.0836023
0.0774643
0.0726861
0.0677983
0.0642977
0.0602236
0.0577524
0.0543866
0.0529707
0.0512657
0.0515691
0.0511824
0.0506227
0.0492986
0.0470593
0.0452301
0.0439129
0.0427745
0.0417438
0.0409102
0.0399654
0.0392988
0.0384223
0.0372617
0.0365559
0.0358803
0.0358224
0.0350863
0.0354462
0.0363478
0.0365492
0.0364469
0.0368665
0.0376824
0.0395733
0.0391335
0.0393245
0.0394632
0.0395571
21.7961
3.38027
1.22845
0.663263
0.436386
0.320406
0.251534
0.206453
0.174741
0.15142
0.133393
0.119313
0.107682
0.0983521
0.0901687
0.0836128
0.0774622
0.0726885
0.0678088
0.0642835
0.0602481
0.0577313
0.054395
0.0531106
0.0511722
0.0505918
0.0501574
0.049067
0.0473482
0.0457745
0.0441793
0.0427655
0.0414274
0.0401723
0.0390511
0.0380073
0.0369268
0.0362028
0.0351138
0.034541
0.0339668
0.0335812
0.0331969
0.0332565
0.0332397
0.0336003
0.0342525
0.0351233
0.035777
0.0364029
0.0367549
0.0369939
0.0372154
0.0372875
21.7962
3.38028
1.22849
0.663282
0.436402
0.320381
0.251557
0.206391
0.174795
0.151308
0.133492
0.119138
0.107836
0.0980992
0.0903864
0.0832624
0.0777488
0.0722126
0.0681603
0.0636477
0.0606201
0.0569711
0.0551852
0.0547404
0.0634347
0.115089
0.119317
0.119804
0.117719
0.113795
0.109741
0.105843
0.10232
0.0992545
0.0966764
0.0944054
0.0924945
0.0907034
0.0893781
0.0878693
0.0865817
0.0849815
0.0834563
0.0816205
0.0797715
0.0776294
0.0752255
0.072769
0.0694924
0.0668505
0.0621655
0.0597591
0.0535554
0.0518705
21.7962
3.38029
1.22849
0.663286
0.436403
0.320385
0.251556
0.206397
0.174792
0.151318
0.133487
0.119151
0.107829
0.098114
0.0903788
0.083276
0.0777453
0.0722221
0.0681615
0.0636614
0.0606131
0.0570133
0.0551515
0.0544805
0.0593409
0.0925786
0.0957012
0.0982437
0.100054
0.0981127
0.0975255
0.0946006
0.0930231
0.0927884
0.0914508
0.0897898
0.0882506
0.0866601
0.0854116
0.0840061
0.082706
0.0810925
0.0796124
0.0779285
0.0762207
0.0743759
0.0721677
0.0701153
0.0671496
0.0649245
0.0610168
0.0586155
0.0538839
0.0513801
21.7962
3.38029
1.22851
0.663294
0.436406
0.320377
0.251558
0.206378
0.1748
0.151283
0.133504
0.119097
0.107859
0.0980351
0.0904228
0.0831648
0.0778058
0.0720607
0.0682192
0.0635452
0.0601597
0.0568058
0.0560355
0.0684505
0.263139
0.338277
0.1752
0.121416
0.109391
0.100839
0.0955651
0.0910841
0.0868463
0.0826983
0.0785798
0.0744844
0.0704804
0.0665663
0.0626975
0.0589178
0.0551544
0.0516219
0.0486174
0.0457809
0.0435392
0.0416349
0.0399418
0.0386343
0.0374432
0.0366201
0.035811
0.0351976
0.0343984
0.0334339
21.7962
3.3803
1.22851
0.663297
0.436408
0.320379
0.25156
0.20638
0.174803
0.151286
0.133508
0.119098
0.107868
0.0980278
0.0904458
0.0831372
0.0778552
0.0720082
0.0682917
0.0634623
0.0603785
0.0567284
0.0563513
0.0676309
0.193727
0.317656
0.179376
0.134462
0.107294
0.0955686
0.0905058
0.0866352
0.0828617
0.0790784
0.0752872
0.0715265
0.0679423
0.0643812
0.0610628
0.0576526
0.05458
0.0516183
0.0489875
0.0465689
0.0445121
0.0427577
0.0411149
0.0398945
0.0383863
0.0376232
0.0361924
0.0355838
0.0342765
0.0334847
21.7963
3.38031
1.22856
0.663325
0.436421
0.320381
0.251561
0.206375
0.174803
0.151277
0.133509
0.119085
0.107868
0.098015
0.0904387
0.0831347
0.0778218
0.0720393
0.0682206
0.0634432
0.060755
0.0559797
0.0586031
0.10128
0.176672
0.188844
0.125447
0.114564
0.107199
0.101873
0.0972478
0.0929151
0.0889496
0.0854225
0.0824305
0.0799066
0.0777529
0.0759764
0.0744055
0.0731388
0.0718834
0.07072
0.0693193
0.0675721
0.0654515
0.0628699
0.0603104
0.0568446
0.0542139
0.049438
0.0473494
0.0409126
0.0398922
21.7963
3.38032
1.22856
0.663329
0.436423
0.320384
0.251564
0.206378
0.174807
0.151279
0.133517
0.119085
0.107879
0.0980111
0.0904542
0.0831249
0.0778492
0.0720179
0.0682358
0.0635939
0.0599858
0.0567959
0.0576606
0.12238
0.172084
0.191389
0.155007
0.129203
0.114728
0.106979
0.101827
0.0975362
0.093688
0.0902314
0.0871074
0.0843224
0.0817761
0.0795392
0.0774321
0.0755366
0.0734731
0.0714465
0.0691209
0.0667619
0.0640761
0.0612117
0.0583085
0.0548449
0.0520458
0.0477323
0.0453858
0.0399471
0.038219
21.7963
3.38032
1.22858
0.663345
0.436428
0.320396
0.251555
0.2064
0.174784
0.151317
0.133476
0.119146
0.107816
0.0981022
0.0903635
0.0832567
0.0777252
0.0721962
0.0681361
0.0636219
0.0606075
0.0568923
0.0552363
0.0571273
0.100005
0.108797
0.111247
0.111685
0.110742
0.107621
0.103639
0.0995375
0.0952699
0.0908383
0.0863453
0.0817857
0.0772825
0.0727225
0.0682053
0.0635249
0.0589421
0.0542785
0.0499435
0.0456888
0.0420276
0.0385468
0.0356665
0.0329096
0.030737
0.028616
0.0270197
0.0254483
0.0242422
0.023209
21.7963
3.38034
1.22859
0.663349
0.436431
0.320399
0.251558
0.206403
0.174787
0.151323
0.133476
0.119155
0.107814
0.0981148
0.0903576
0.0832754
0.0777135
0.0722237
0.0681204
0.0636527
0.0605835
0.0569505
0.0551685
0.0569087
0.0838142
0.0877553
0.0870089
0.0874473
0.0872778
0.0855971
0.0830402
0.080189
0.0771057
0.0738575
0.0705054
0.0671101
0.0636944
0.0601906
0.0566615
0.0530183
0.0495395
0.0460631
0.0430013
0.0399792
0.0374024
0.0348027
0.0327093
0.0305621
0.0289683
0.0272577
0.0261092
0.0247803
0.0239426
0.0229395
21.7963
3.38034
1.22863
0.663385
0.43644
0.320426
0.25154
0.206454
0.174736
0.151415
0.13338
0.119305
0.107661
0.098339
0.0901379
0.0835902
0.0774207
0.0726535
0.0677523
0.064235
0.0601652
0.0576929
0.0542273
0.0531704
0.0507233
0.050562
0.0499947
0.0488434
0.0470446
0.0452544
0.0435349
0.0419103
0.0403914
0.038944
0.0376031
0.0363017
0.0351174
0.0339341
0.0328926
0.0318136
0.0309084
0.02993
0.0291569
0.0282698
0.0276121
0.0267963
0.0262419
0.0254801
0.0250173
0.0242797
0.0238632
0.0231517
0.0227222
0.0221056
21.7963
3.38036
1.22864
0.66339
0.436444
0.320429
0.251544
0.206455
0.174743
0.151415
0.133392
0.119301
0.107677
0.0983314
0.0901583
0.0835808
0.0774444
0.0726445
0.067779
0.0642285
0.0602002
0.0576617
0.054346
0.0529831
0.0510119
0.0502943
0.0492696
0.0475845
0.045869
0.0441691
0.042534
0.040988
0.0395414
0.0381866
0.0369233
0.0357259
0.0346233
0.0335487
0.0325864
0.0316076
0.0307713
0.0298754
0.029153
0.0283237
0.0276949
0.0269179
0.0263691
0.0256327
0.0251552
0.0244308
0.0240223
0.0232849
0.0229117
0.0223135
21.7963
3.38036
1.22866
0.663407
0.436461
0.320437
0.251564
0.206458
0.174772
0.151412
0.133434
0.119293
0.107738
0.0983176
0.090245
0.0835613
0.0775706
0.0726177
0.0679698
0.0641875
0.0604849
0.0575431
0.0546332
0.0523691
0.0502565
0.0484156
0.0467032
0.0450515
0.0434993
0.042033
0.0406568
0.0393311
0.0380896
0.0368835
0.0357681
0.0346697
0.0336765
0.0326748
0.0317952
0.0308754
0.0300971
0.0292485
0.0285605
0.027772
0.027161
0.0264199
0.0258806
0.025175
0.0247048
0.0240072
0.0236182
0.0229226
0.0225127
0.0219291
21.7963
3.38037
1.22867
0.663413
0.436464
0.320441
0.251567
0.206463
0.174776
0.151416
0.133441
0.119295
0.107748
0.0983165
0.0902591
0.0835571
0.0775897
0.0726119
0.0679947
0.0641815
0.0605168
0.0575381
0.0546674
0.0523583
0.0502735
0.0484286
0.0466965
0.045027
0.0434658
0.0419914
0.0406057
0.039283
0.0380305
0.0368343
0.0357095
0.0346275
0.0336302
0.032645
0.0317645
0.030859
0.0300813
0.0292459
0.0285558
0.0277805
0.0271648
0.0264405
0.0258924
0.025212
0.0247233
0.0240821
0.0236402
0.0230391
0.0226181
0.0220533
21.7963
3.38038
1.22871
0.663447
0.436488
0.320455
0.251586
0.206472
0.174803
0.151423
0.13348
0.1193
0.107804
0.09832
0.0903384
0.0835614
0.0777001
0.0726229
0.0681453
0.06421
0.0607027
0.0575895
0.0548199
0.0523525
0.0501676
0.0481669
0.0463418
0.0446273
0.0430551
0.0415662
0.0401884
0.0388609
0.0376298
0.0364337
0.035337
0.0342643
0.0332984
0.0323315
0.031479
0.0305958
0.0298408
0.0290257
0.0283518
0.0275932
0.0269872
0.026275
0.0257303
0.0250593
0.0245692
0.0239588
0.0235356
0.0229406
0.022703
0.0219021
21.7963
3.3804
1.22872
0.663454
0.436493
0.320459
0.251591
0.206478
0.174807
0.15143
0.133484
0.119308
0.107807
0.0983293
0.0903416
0.0835729
0.0777031
0.0726377
0.0681478
0.0642284
0.0607043
0.0576099
0.0548203
0.0523627
0.0501674
0.0481744
0.0463517
0.0446437
0.043067
0.0415825
0.040193
0.038877
0.0376309
0.0364559
0.0353447
0.0342941
0.0333134
0.0323623
0.0314994
0.0306268
0.0298654
0.0290575
0.0283805
0.0276273
0.0270243
0.0263141
0.0257831
0.0251036
0.0246535
0.0239949
0.0236359
0.0230027
0.0227366
0.0219745
21.7963
3.38039
1.22874
0.663474
0.43651
0.320475
0.251607
0.206495
0.174829
0.15145
0.133514
0.119332
0.107848
0.0983588
0.0903973
0.0836102
0.0777773
0.0726875
0.0682425
0.0642955
0.0608147
0.0576868
0.0549176
0.0524076
0.0501733
0.048121
0.0462603
0.0445189
0.0429291
0.0414248
0.0400414
0.0387142
0.0374873
0.0363031
0.0352114
0.0341537
0.0331869
0.0322339
0.0313795
0.0305098
0.0297537
0.0289472
0.0282768
0.0275192
0.0269281
0.0262107
0.0256939
0.0250051
0.024563
0.023918
0.02353
0.02298
0.0225594
0.0219878
21.7963
3.38041
1.22875
0.66348
0.436515
0.32048
0.251612
0.2065
0.174834
0.151456
0.133518
0.119339
0.107853
0.0983673
0.090401
0.0836211
0.0777813
0.072701
0.0682483
0.0643105
0.0608237
0.0577014
0.0549277
0.0524187
0.0501812
0.0481323
0.0462734
0.0445388
0.0429426
0.041446
0.0400459
0.0387364
0.037488
0.0363332
0.0352167
0.0341916
0.0331969
0.0322753
0.0313938
0.0305521
0.0297709
0.0289908
0.0282965
0.0275658
0.0269538
0.0262602
0.0257313
0.0250606
0.0246179
0.0239588
0.0236138
0.0229509
0.0227091
0.0218549
21.7963
3.38041
1.22879
0.663512
0.436537
0.320498
0.251631
0.206518
0.174857
0.151477
0.133548
0.119365
0.107891
0.0984
0.0904497
0.0836637
0.077841
0.0727568
0.0683182
0.0643797
0.0608971
0.0577743
0.0549863
0.0524675
0.0501975
0.0481247
0.0462317
0.0444797
0.042862
0.0413541
0.0399454
0.0386268
0.0373819
0.0362156
0.0351055
0.0340655
0.0330752
0.0321457
0.0312633
0.0304247
0.0296345
0.0288645
0.0281582
0.0274395
0.0268238
0.0261376
0.0256199
0.0249468
0.0245175
0.0238424
0.0234787
0.0228267
0.0224221
0.0218371
21.7963
3.38043
1.2288
0.663519
0.436543
0.320503
0.251635
0.206524
0.174861
0.151485
0.133552
0.119373
0.107895
0.0984094
0.0904553
0.0836735
0.0778492
0.0727665
0.06833
0.0643892
0.0609124
0.0577837
0.0550036
0.0524758
0.0502152
0.0481348
0.0462509
0.0444962
0.0428818
0.0413748
0.039962
0.0386515
0.0373949
0.036247
0.0351176
0.0341071
0.03309
0.032195
0.0312793
0.0304762
0.0296506
0.0289166
0.0281782
0.0274915
0.0268499
0.0261852
0.0256477
0.0249865
0.0245363
0.0238822
0.0234912
0.0228208
0.0225559
0.0217998
21.7963
3.38042
1.22882
0.663536
0.43656
0.32052
0.251655
0.206542
0.174886
0.151505
0.133583
0.119398
0.107933
0.0984408
0.0905005
0.0837134
0.0779014
0.0728162
0.0683872
0.0644468
0.0609689
0.0578396
0.0550463
0.0525149
0.0502273
0.0481393
0.046227
0.0444622
0.0428326
0.0413065
0.0399006
0.0385557
0.0373356
0.0361323
0.0350656
0.0339775
0.0330408
0.0320554
0.0312281
0.0303346
0.0295933
0.0287813
0.0281084
0.0273704
0.0267562
0.02608
0.0255335
0.0248869
0.0244085
0.0237766
0.0233525
0.0227288
0.0223427
0.0217389
21.7963
3.38044
1.22883
0.663544
0.436565
0.320525
0.251659
0.206548
0.174889
0.151513
0.133586
0.119408
0.107935
0.0984527
0.0905024
0.0837269
0.0779044
0.0728309
0.0683926
0.0644619
0.0609773
0.0578549
0.055058
0.0525301
0.0502401
0.048155
0.0462403
0.0444803
0.0428457
0.0413298
0.0399104
0.0385867
0.0373398
0.0361722
0.0350665
0.0340283
0.033042
0.0321142
0.0312308
0.0303953
0.0296015
0.0288391
0.0281292
0.0274178
0.0267946
0.0261111
0.0255781
0.0249096
0.0244494
0.0238064
0.0233758
0.0227933
0.0223667
0.0218181
21.7963
3.38044
1.22886
0.663571
0.436586
0.320543
0.251677
0.206567
0.174909
0.151536
0.13361
0.119436
0.107964
0.0984863
0.0905363
0.0837664
0.0779434
0.0728754
0.0684348
0.0645083
0.0610171
0.0578971
0.055086
0.0525562
0.050245
0.0481564
0.0462155
0.0444552
0.0427948
0.0412807
0.0398434
0.0385172
0.0372678
0.0360866
0.0349974
0.0339275
0.0329752
0.0319973
0.0311653
0.0302662
0.0295364
0.0287035
0.0280585
0.0272782
0.0267035
0.0259711
0.0254562
0.0247646
0.0243227
0.0236652
0.0232709
0.0226621
0.0224122
0.0215744
21.7963
3.38046
1.22887
0.663579
0.436592
0.320549
0.251681
0.206574
0.174913
0.151545
0.133613
0.119447
0.107966
0.0984994
0.0905386
0.0837816
0.0779467
0.0728923
0.0684402
0.064526
0.0610264
0.0579141
0.0551001
0.0525703
0.0502659
0.0481662
0.0462419
0.0444644
0.0428254
0.0412929
0.0398764
0.0385356
0.0373012
0.0361105
0.0350311
0.0339552
0.0330139
0.0320275
0.0312103
0.0302972
0.0295849
0.0287363
0.0281059
0.0273182
0.0267517
0.0260179
0.0255096
0.0248244
0.0243701
0.0237292
0.0233244
0.0227687
0.0223403
0.0217799
21.7963
3.38045
1.22888
0.663594
0.436607
0.320565
0.251699
0.206591
0.174934
0.151564
0.133638
0.119468
0.107997
0.0985241
0.0905733
0.0838097
0.0779847
0.0729226
0.0684789
0.064556
0.0610604
0.0579388
0.0551209
0.052585
0.0502642
0.0481652
0.0462157
0.0444463
0.0427783
0.0412591
0.0398148
0.0384867
0.0372316
0.0360499
0.0349573
0.0338884
0.0329321
0.0319597
0.0311149
0.0302315
0.0294789
0.0286686
0.0280034
0.0272445
0.0266589
0.0259348
0.0254147
0.0247383
0.0242836
0.0236172
0.0232526
0.0226703
0.0222184
0.0216659
21.7963
3.38047
1.22889
0.663602
0.436612
0.320571
0.251703
0.206598
0.174938
0.151572
0.133642
0.119478
0.108
0.0985347
0.0905778
0.0838215
0.0779903
0.0729362
0.0684859
0.0645717
0.061069
0.0579566
0.055132
0.0526046
0.0502772
0.0481853
0.0462324
0.0444643
0.0428009
0.0412756
0.0398439
0.0385041
0.0372654
0.0360689
0.0349942
0.0339084
0.0329758
0.0319783
0.031169
0.0302466
0.0295379
0.0286884
0.0280555
0.0272816
0.026695
0.0259955
0.0254463
0.0248014
0.0243172
0.0236949
0.0232956
0.0227115
0.0223026
0.0216887
21.7963
3.38047
1.22892
0.663628
0.436633
0.320587
0.251721
0.206614
0.174958
0.15159
0.133666
0.119498
0.108028
0.0985569
0.0906087
0.0838452
0.0780227
0.0729599
0.068517
0.0645929
0.0610945
0.0579718
0.0551468
0.0526083
0.0502754
0.0481754
0.0462094
0.0444432
0.0427579
0.0412458
0.0397848
0.0384663
0.0371945
0.0360252
0.034913
0.033867
0.0328761
0.0319504
0.0310392
0.0302364
0.0293837
0.0286812
0.0279112
0.0272467
0.0265846
0.0259142
0.025351
0.0247048
0.0241745
0.0236156
0.0231213
0.0225421
0.022097
0.0215524
21.7963
3.38049
1.22893
0.663636
0.436639
0.320594
0.251726
0.206622
0.174963
0.151599
0.13367
0.119509
0.108031
0.0985694
0.090611
0.0838603
0.078025
0.0729782
0.0685199
0.0646147
0.0610986
0.0579971
0.0551523
0.0526353
0.0502852
0.0482015
0.0462257
0.0444671
0.0427829
0.0412659
0.0398204
0.0384825
0.0372408
0.0360371
0.0349684
0.0338737
0.0329414
0.0319507
0.0311162
0.0302307
0.029466
0.0286837
0.0279706
0.0272816
0.026596
0.025996
0.0253323
0.0247964
0.024202
0.0236419
0.0231902
0.0225649
0.0221868
0.0215313
21.7963
3.38049
1.22895
0.663656
0.436656
0.320608
0.251741
0.206635
0.174979
0.151612
0.133688
0.119521
0.108052
0.0985816
0.0906342
0.0838719
0.07805
0.0729877
0.0685451
0.0646192
0.0611218
0.0579927
0.0551696
0.05262
0.0502912
0.0481749
0.046218
0.0444332
0.0427607
0.0412291
0.0397841
0.0384428
0.0371937
0.0359925
0.0349153
0.033824
0.0328813
0.0319003
0.0310412
0.03018
0.0293794
0.0286159
0.0278874
0.0271702
0.0265451
0.025829
0.0253045
0.0246387
0.0241143
0.0236125
0.0229967
0.0224907
0.0220139
0.0215529
21.7962
3.38051
1.22896
0.663662
0.436661
0.320613
0.251746
0.206641
0.174984
0.151619
0.133693
0.11953
0.108056
0.098592
0.0906378
0.0838845
0.078054
0.0730029
0.0685502
0.0646374
0.0611285
0.0580138
0.0551788
0.0526435
0.0503027
0.0482006
0.0462336
0.0444581
0.0427818
0.041252
0.0398115
0.0384647
0.0372256
0.0360168
0.0349466
0.033854
0.0329104
0.031934
0.0310734
0.0302133
0.0294151
0.028653
0.027912
0.0272272
0.0265436
0.0259146
0.0252863
0.0247476
0.0241012
0.0236341
0.0231377
0.0225517
0.021995
0.0215692
21.7961
3.38058
1.22904
0.663727
0.436714
0.320657
0.251785
0.206675
0.175017
0.151647
0.133723
0.119552
0.108086
0.0986103
0.0906691
0.0838977
0.078087
0.0730098
0.068584
0.0646362
0.0611607
0.0580035
0.0552058
0.052623
0.05032
0.0481725
0.0462357
0.0444271
0.042765
0.0412219
0.0397738
0.0384343
0.0371683
0.0359792
0.0348759
0.0338041
0.0328309
0.0318758
0.0309866
0.0301571
0.0293313
0.0286082
0.0278426
0.0272192
0.0265359
0.0259334
0.0253967
0.0248232
0.0243369
0.0237399
0.023671
0.0229824
0.0234476
0.0229023
21.7961
3.38059
1.22905
0.663734
0.436719
0.320662
0.251789
0.20668
0.175021
0.151654
0.133727
0.119562
0.108089
0.098623
0.0906718
0.0839139
0.0780894
0.0730295
0.0685869
0.064659
0.0611653
0.0580289
0.0552124
0.05265
0.0503307
0.0481999
0.0462497
0.0444541
0.0427811
0.0412479
0.039793
0.0384599
0.0371917
0.0360051
0.0349028
0.0338314
0.0328596
0.0319054
0.0310181
0.0301912
0.0293606
0.0286607
0.027856
0.0273043
0.0265389
0.0260258
0.0254504
0.0248278
0.0245642
0.0235837
0.0233673
0.0232037
0.0236073
0.0230116
21.7967
3.38052
1.229
0.663585
0.4365
0.320413
0.251542
0.206437
0.174807
0.15145
0.133534
0.119367
0.107901
0.0984265
0.0904818
0.0837136