/*--------------------------------*- C++ -*----------------------------------*\
| =========                 |                                                 |
| \\      /  F ield         | OpenFOAM: The Open Source CFD Toolbox           |
|  \\    /   O peration     | Version:  4.1                                   |
|   \\  /    A nd           | Web:      www.OpenFOAM.org                      |
|    \\/     M anipulation  |                                                 |
\*---------------------------------------------------------------------------*/
FoamFile
{
    version     2.0;
    format      ascii;
    class       volScalarField;
    location    "59";
    object      p;
}
// * * * * * * * * * * * * * * * * * * * * * * * * * * * * * * * * * * * * * //

dimensions      [0 2 -2 0 0 0 0];

internalField   nonuniform List<scalar> 
4432
(
100858
100859
100859
100861
100864
100867
100871
100875
100880
100886
100894
100902
100910
100919
100927
100934
100940
100944
100950
100963
100981
101000
101021
101042
101067
101092
101115
101133
101146
101155
101162
101165
101170
101176
101181
101175
101166
101170
101175
101176
101177
101181
101190
101201
101209
101221
101210
101217
101246
101248
101190
101130
101094
101124
100858
100859
100859
100861
100864
100867
100871
100875
100880
100886
100894
100902
100910
100919
100927
100934
100940
100944
100950
100962
100981
101002
101022
101044
101068
101094
101116
101133
101146
101156
101164
101168
101171
101175
101178
101174
101169
101167
101169
101176
101182
101186
101191
101195
101202
101228
101227
101216
101233
101237
101188
101147
101076
101104
100857
100857
100857
100859
100862
100865
100868
100872
100877
100883
100891
100899
100908
100918
100928
100940
100956
100975
100990
101002
101016
101033
101050
101067
101083
101100
101116
101132
101148
101161
101170
101174
101174
101171
101167
101157
101153
101156
101163
101172
101177
101177
101184
101195
101205
101213
101219
101227
101243
101245
101233
101206
100968
101204
100857
100857
100857
100859
100862
100865
100868
100872
100877
100883
100891
100899
100908
100918
100928
100940
100956
100975
100991
101003
101016
101032
101048
101064
101081
101097
101114
101130
101145
101158
101165
101167
101168
101171
101169
101161
101155
101156
101164
101174
101179
101180
101185
101196
101204
101213
101221
101225
101243
101248
101227
101213
100952
101200
100855
100856
100856
100858
100861
100864
100867
100871
100876
100882
100890
100898
100907
100917
100928
100939
100952
100964
100978
100994
101012
101030
101047
101063
101080
101099
101118
101136
101154
101169
101179
101185
101192
101194
101179
101157
101150
101160
101173
101186
101185
101176
101181
101194
101204
101212
101227
101235
101239
101228
101220
101204
101199
101305
100855
100856
100856
100858
100861
100864
100867
100871
100876
100882
100890
100898
100907
100917
100928
100939
100952
100964
100978
100994
101011
101029
101046
101061
101078
101097
101116
101134
101152
101168
101177
101180
101183
101186
101181
101165
101158
101162
101170
101179
101183
101178
101184
101196
101203
101211
101222
101235
101241
101234
101220
101193
101169
101325
100853
100853
100854
100856
100858
100861
100865
100868
100873
100879
100887
100895
100904
100914
100924
100935
100946
100956
100970
100988
101007
101025
101041
101058
101077
101100
101123
101144
101165
101184
101198
101212
101230
101224
101190
101142
101128
101146
101168
101193
101183
101165
101176
101191
101203
101213
101232
101241
101247
101239
101225
101220
101230
101219
100853
100853
100854
100856
100858
100861
100864
100868
100873
100879
100887
100895
100904
100914
100924
100935
100946
100957
100969
100988
101007
101025
101041
101058
101077
101100
101122
101143
101165
101184
101197
101209
101223
101219
101195
101162
101151
101158
101172
101183
101180
101171
101177
101189
101202
101215
101229
101243
101245
101242
101228
101223
101194
101200
100850
100851
100851
100853
100855
100858
100861
100865
100870
100876
100883
100891
100900
100910
100920
100930
100941
100952
100963
100978
100997
101015
101033
101051
101073
101100
101128
101155
101181
101203
101221
101243
101262
101261
101288
101113
101112
101133
101155
101194
101189
101161
101179
101193
101207
101219
101220
101231
101258
101268
101271
101226
101203
101313
100850
100850
100851
100853
100855
100858
100861
100865
100870
100876
100883
100891
100900
100910
100920
100930
100941
100952
100963
100978
100996
101015
101033
101051
101074
101101
101129
101155
101183
101206
101223
101240
101256
101248
101226
101165
101137
101145
101167
101194
101196
101172
101178
101188
101201
101215
101229
101244
101256
101262
101256
101249
101179
101277
100847
100847
100848
100849
100851
100854
100858
100861
100866
100872
100878
100886
100895
100904
100914
100924
100934
100945
100955
100969
100986
101004
101022
101040
101063
101092
101123
101154
101185
101213
101234
101259
101293
101457
101744
101241
101118
101118
101135
101143
101143
101185
101197
101199
101205
101218
101217
101229
101256
101280
101287
101234
101205
101304
100847
100847
100848
100849
100851
100854
100857
100861
100866
100872
100879
100886
100895
100904
100914
100924
100934
100945
100955
100969
100985
101004
101022
101041
101065
101093
101123
101153
101185
101213
101232
101246
101261
101306
101340
101204
101127
101127
101147
101172
101184
101181
101187
101194
101202
101210
101218
101233
101253
101269
101274
101235
101219
101334
100843
100843
100843
100845
100847
100850
100853
100856
100861
100866
100873
100881
100889
100898
100907
100917
100927
100937
100948
100960
100976
100993
101010
101028
101046
101074
101107
101137
101166
101192
101218
101256
101347
101746
101565
101482
101140
101127
101139
101144
101151
101190
101205
101205
101209
101219
101222
101227
101244
101270
101295
101272
101214
101282
100843
100843
100843
100845
100847
100850
100853
100856
100861
100866
100873
100881
100889
100898
100907
100917
100926
100937
100948
100961
100976
100993
101010
101029
101049
101076
101106
101133
101163
101192
101213
101234
101269
101359
101432
101252
101116
101117
101138
101151
101162
101179
101195
101203
101209
101213
101212
101219
101240
101262
101275
101254
101244
101285
100838
100838
100839
100840
100842
100845
100848
100851
100855
100860
100867
100874
100882
100891
100899
100909
100918
100929
100940
100952
100966
100981
100996
101011
101025
101046
101077
101104
101126
101143
101162
101188
101219
101325
101334
101197
101134
101129
101140
101152
101163
101179
101195
101203
101209
101219
101222
101219
101224
101247
101285
101285
101239
101291
100838
100838
100839
100840
100842
100845
100848
100851
100855
100860
100867
100874
100882
100891
100899
100909
100918
100929
100940
100952
100966
100981
100996
101013
101028
101049
101076
101099
101122
101145
101161
101181
101216
101254
101292
101202
101129
101129
101148
101166
101171
101176
101188
101198
101212
101219
101214
101211
101224
101252
101284
101276
101243
101301
100833
100833
100833
100835
100837
100839
100842
100845
100849
100854
100860
100867
100874
100882
100891
100900
100909
100920
100931
100942
100955
100967
100979
100991
101001
101012
101033
101056
101079
101100
101119
101138
101169
101195
101215
101163
101133
101137
101150
101156
101164
101173
101188
101205
101216
101223
101220
101210
101206
101226
101267
101280
101262
101311
100833
100833
100833
100835
100837
100839
100842
100845
100849
100854
100860
100867
100874
100882
100891
100900
100909
100920
100931
100943
100955
100967
100979
100990
101001
101015
101034
101055
101076
101097
101116
101139
101169
101195
101213
101187
101159
101153
101160
101172
101182
101182
101184
101195
101214
101223
101217
101207
101212
101239
101274
101275
101260
101328
100827
100827
100827
100829
100830
100833
100835
100838
100841
100846
100852
100858
100866
100873
100881
100890
100900
100910
100921
100932
100943
100952
100960
100967
100970
100974
100987
101011
101039
101065
101088
101116
101149
101176
101205
101198
101183
101176
101177
101180
101186
101190
101199
101217
101233
101239
101231
101213
101201
101214
101252
101278
101291
101312
100827
100827
100827
100829
100830
100833
100835
100838
100841
100846
100852
100858
100866
100873
100881
100890
100900
100910
100921
100932
100943
100953
100960
100965
100968
100974
100989
101013
101039
101063
101088
101115
101147
101180
101207
101207
101196
101190
101192
101197
101201
101199
101198
101209
101230
101240
101228
101210
101204
101218
101248
101271
101283
101328
100821
100821
100821
100822
100824
100826
100828
100830
100834
100838
100843
100849
100856
100863
100871
100880
100889
100900
100911
100922
100932
100940
100943
100940
100930
100926
100941
100973
101008
101039
101071
101105
101139
101175
101207
101221
101224
101229
101236
101240
101242
101241
101239
101242
101248
101256
101250
101228
101203
101203
101237
101265
101264
101206
100821
100821
100821
100822
100824
100826
100828
100830
100834
100838
100843
100849
100856
100863
100871
100880
100889
100900
100911
100922
100932
100940
100942
100938
100929
100926
100944
100976
101008
101038
101071
101106
101142
101177
101206
101220
101227
101235
101245
101252
101255
101252
101245
101242
101250
101258
101247
101223
101203
101206
101232
101259
101238
101210
100814
100814
100814
100815
100817
100818
100820
100822
100825
100829
100834
100839
100845
100852
100860
100868
100878
100889
100901
100913
100925
100932
100931
100915
100879
100859
100881
100927
100970
101007
101046
101088
101128
101168
101204
101233
101257
101279
101297
101304
101300
101289
101276
101264
101256
101257
101258
101242
101215
101202
101219
101247
101248
101220
100814
100814
100814
100815
100817
100818
100820
100822
100825
100829
100834
100839
100845
100852
100860
100868
100878
100889
100901
100913
100924
100932
100930
100913
100876
100859
100885
100929
100969
101006
101046
101088
101130
101169
101204
101233
101258
101282
101301
101310
101307
101295
101280
101265
101260
101262
101255
101234
101211
101204
101221
101246
101235
101262
100807
100807
100807
100808
100809
100810
100812
100814
100816
100819
100823
100828
100834
100840
100847
100855
100865
100877
100890
100906
100922
100933
100931
100900
100816
100773
100804
100869
100923
100968
101015
101063
101111
101159
101207
101253
101297
101333
101357
101361
101346
101321
101295
101276
101264
101260
101260
101252
101231
101212
101209
101220
101227
101206
100807
100807
100807
100808
100809
100810
100812
100814
100816
100819
100823
100828
100834
100840
100847
100855
100865
100877
100890
100906
100921
100932
100929
100892
100803
100769
100813
100875
100925
100969
101015
101064
101112
101159
101207
101254
101299
101336
101361
101364
101348
101322
101296
101277
101266
101263
101259
101245
101224
101210
101210
101219
101225
101198
100800
100800
100800
100800
100801
100802
100803
100805
100806
100809
100812
100816
100821
100827
100833
100841
100850
100862
100878
100898
100925
100955
100973
100919
100742
100613
100700
100808
100875
100926
100980
101035
101089
101146
101210
101276
101339
101387
101421
101420
101388
101344
101306
101282
101269
101264
101262
101255
101240
101220
101208
101208
101217
101202
100800
100800
100800
100800
100801
100802
100803
100804
100806
100809
100812
100816
100821
100827
100833
100841
100850
100862
100878
100898
100924
100954
100970
100909
100703
100625
100716
100807
100873
100927
100982
101036
101090
101147
101211
101275
101341
101388
101439
101434
101393
101342
101301
101277
101265
101262
101261
101253
101236
101218
101209
101209
101221
101198
100792
100793
100792
100792
100793
100794
100794
100795
100796
100798
100800
100804
100807
100812
100817
100824
100832
100844
100860
100883
100921
100989
101060
101066
100571
100291
100531
100749
100832
100875
100933
100996
101056
101123
101203
101290
101375
101429
101491
101490
101431
101358
101307
101279
101264
101257
101255
101252
101243
101227
101214
101208
101217
101201
100792
100792
100792
100792
100793
100794
100794
100795
100796
100798
100800
100804
100807
100812
100817
100824
100832
100844
100860
100883
100920
100987
101054
101042
100356
100441
100617
100759
100831
100885
100943
101001
101059
101124
101207
101298
101389
101412
101489
101494
101426
101350
101304
101280
101265
101258
101255
101250
101239
101224
101214
101210
101220
101201
100785
100785
100784
100784
100785
100785
100785
100785
100786
100786
100788
100790
100793
100796
100799
100804
100811
100820
100833
100852
100883
100931
101051
101330
100308
100531
100731
100799
100823
100872
100932
100995
101071
101170
101284
101405
101445
101510
101551
101476
101376
101314
101281
101258
101244
101239
101238
101235
101227
101218
101210
101216
101196
100785
100785
100784
100784
100785
100785
100785
100785
100786
100786
100788
100790
100793
100796
100799
100804
100811
100820
100833
100852
100882
100928
101047
101306
100254
100560
100730
100801
100839
100890
100945
101001
101074
101160
101295
101415
101398
101379
101522
101460
101370
101316
101283
101258
101243
101237
101236
101233
101225
101217
101210
101217
101199
100777
100777
100777
100776
100776
100776
100776
100775
100775
100775
100775
100776
100777
100778
100780
100782
100786
100791
100798
100806
100814
100812
100774
100702
100365
100415
100706
100824
100819
100808
100830
100863
100904
100975
101080
101200
101334
101363
101420
101589
101509
101403
101328
101278
101242
101219
101210
101211
101215
101217
101218
101214
101221
101194
100777
100777
100777
100776
100776
100776
100776
100775
100775
100775
100775
100776
100777
100778
100780
100782
100786
100791
100798
100806
100814
100810
100768
100684
100387
100473
100741
100834
100822
100818
100843
100874
100909
100965
101019
101194
101204
101440
101375
101385
101397
101363
101318
101276
101243
101221
101210
101210
101213
101215
101216
101212
101219
101198
100770
100769
100769
100768
100768
100767
100766
100765
100764
100763
100762
100761
100761
100760
100760
100759
100759
100759
100759
100757
100750
100732
100696
100622
100552
100566
100711
100783
100795
100801
100804
100799
100802
100851
101019
101195
101174
101375
101647
101440
101388
101354
101297
101245
101208
101185
101175
101177
101186
101198
101211
101217
101237
101208
100770
100769
100769
100768
100768
100767
100766
100765
100764
100763
100762
100761
100761
100760
100760
100759
100759
100759
100759
100757
100750
100731
100694
100620
100542
100574
100719
100787
100795
100800
100805
100803
100801
100824
100874
101107
100909
101269
101714
100768
101190
101325
101297
101248
101211
101189
101178
101178
101186
101196
101208
101215
101232
101203
100762
100762
100761
100760
100759
100758
100757
100755
100753
100750
100749
100746
100744
100742
100739
100735
100732
100727
100721
100712
100699
100678
100649
100606
100561
100558
100613
100675
100717
100741
100743
100721
100688
100681
100788
101053
102103
101195
100308
100683
101188
101310
101262
101205
101168
101149
101142
101144
101154
101170
101187
101198
101229
101199
100762
100762
100761
100760
100759
100758
100757
100755
100752
100750
100749
100747
100744
100742
100739
100735
100732
100727
100721
100712
100699
100678
100648
100606
100562
100567
100624
100680
100714
100733
100735
100717
100694
100610
100752
101082
101594
99350.1
99820.6
99397.2
100213
101133
101254
101209
101168
101149
101144
101146
101156
101169
101185
101198
101229
101209
100755
100755
100754
100752
100751
100750
100747
100745
100742
100738
100735
100732
100728
100723
100718
100711
100704
100695
100685
100671
100653
100630
100602
100569
100537
100528
100550
100586
100614
100630
100628
100608
100491
100547
100600
99559.6
98714.8
98211.3
98460.9
99217.7
100183
101058
101193
101133
101106
101098
101100
101109
101125
101145
101161
101169
101185
101147
100755
100755
100754
100752
100751
100750
100747
100745
100742
100738
100735
100732
100728
100723
100718
100711
100704
100695
100685
100671
100653
100630
100602
100570
100540
100533
100555
100588
100610
100619
100620
100611
100611
100635
100561
100107
101758
98794.7
98592.9
98812.8
99536.9
100546
101112
101141
101106
101093
101097
101110
101127
101144
101157
101161
101194
101182
100748
100748
100746
100745
100743
100741
100738
100735
100731
100727
100722
100717
100712
100705
100697
100688
100678
100665
100651
100633
100612
100586
100557
100527
100501
100484
100482
100487
100487
100489
100488
100514
100249
100454
100830
100088
97887.8
97825.5
98591.1
99224.1
99854
100667
101003
101022
101026
101036
101051
101071
101099
101135
101168
101181
101196
101210
100748
100747
100746
100745
100743
100741
100738
100735
100731
100727
100722
100717
100712
100705
100697
100688
100678
100665
100651
100633
100612
100586
100558
100528
100502
100485
100483
100486
100482
100478
100476
100523
100495
100561
100767
99014.1
99102
98208.6
98778.1
99315.9
99966.8
100595
100875
100976
101025
101036
101048
101071
101102
101136
101158
101170
101169
101139
100741
100741
100740
100738
100736
100733
100730
100726
100721
100716
100710
100703
100696
100687
100678
100666
100652
100637
100619
100597
100573
100544
100513
100480
100447
100416
100390
100366
100343
100339
100365
100620
100397
99446.2
99290.4
98542.4
97683.6
98125.3
98981.9
99641.3
100034
100412
100840
100916
100951
100973
100995
101022
101063
101118
101173
101208
101256
101276
100741
100741
100740
100738
100736
100733
100730
100726
100721
100716
100710
100704
100696
100688
100678
100666
100653
100637
100619
100597
100573
100545
100513
100480
100447
100416
100389
100364
100335
100311
100280
100347
100611
99754.1
95490.8
95718.1
97306.2
98104.4
99062.8
99765.4
100231
100463
100681
100864
100947
100977
100996
101024
101067
101121
101172
101202
101209
101226
100735
100735
100733
100731
100729
100726
100722
100717
100711
100705
100698
100691
100682
100671
100659
100645
100629
100611
100589
100564
100536
100503
100466
100426
100381
100333
100283
100230
100178
100155
100259
100474
100685
99512.8
97157
96892.6
97615.7
98497.3
99229.5
99638.6
99904.2
100113
100546
100817
100889
100915
100935
100965
101012
101068
101131
101183
101231
101219
100735
100735
100733
100731
100729
100726
100722
100717
100711
100705
100698
100691
100682
100671
100659
100645
100629
100611
100589
100564
100536
100503
100467
100426
100381
100333
100282
100228
100167
100120
100044
100297
100444
99276.2
96126.3
96595.2
97631.6
98567.9
99292.3
99695.3
99997.5
100197
100468
100765
100877
100916
100938
100968
101014
101071
101138
101192
101239
101260
100730
100729
100727
100725
100723
100719
100715
100709
100703
100696
100688
100679
100668
100656
100642
100626
100608
100586
100562
100533
100500
100462
100419
100369
100311
100245
100170
100076
99978
99773.3
100044
100196
100300
90693.5
92862.2
96238.4
97963.3
98996
99366.4
99391
99583
99942.7
100366
100682
100793
100847
100874
100906
100952
101006
101087
101152
101209
101248
100730
100729
100727
100725
100723
100719
100715
100709
100703
100696
100688
100679
100668
100656
100642
100626
100608
100587
100562
100533
100501
100463
100419
100369
100311
100245
100169
100079
99971.6
99831.9
99740.5
99817.7
97581.8
96248.6
96187.7
97073.7
98266.5
99147.8
99416.1
99373.7
99595.2
100005
100385
100655
100781
100843
100877
100910
100954
101005
101082
101156
101192
101164
100725
100724
100722
100720
100717
100713
100708
100702
100695
100687
100678
100668
100657
100643
100627
100609
100589
100565
100537
100505
100468
100424
100373
100313
100242
100158
100057
99924.7
99757.4
99438
98949.6
100269
96141.1
92187.5
94948.5
97674
99383.5
100020
99726.7
99301.8
99409.7
99810
100221
100524
100681
100772
100815
100849
100888
100938
101015
101094
101165
101239
100725
100724
100722
100720
100717
100713
100708
100702
100695
100687
100678
100668
100657
100643
100628
100610
100589
100565
100537
100505
100468
100424
100373
100313
100242
100157
100055
99935.2
99768.2
99525.4
99222.7
98878.4
96139.3
93779.9
96170.6
98193
99656.1
100166
99757
99257.6
99392.4
99872.8
100276
100514
100665
100764
100815
100855
100891
100930
101001
101078
101138
101232
100721
100720
100718
100715
100712
100708
100703
100696
100688
100680
100670
100659
100646
100632
100615
100595
100572
100546
100516
100480
100438
100389
100331
100262
100178
100077
99951.6
99793.3
99578.1
99279
98709.6
98440.7
100047
100339
99746.3
100488
101364
101204
100161
99222.7
99198.1
99626
100064
100398
100594
100708
100773
100803
100831
100849
100845
100882
101046
101253
100721
100720
100718
100715
100712
100708
100703
100696
100688
100680
100670
100659
100646
100632
100615
100595
100572
100546
100516
100480
100438
100389
100331
100262
100177
100075
99944.5
99796.3
99608.4
99365.3
99062.4
98360.1
97018.2
97574.6
99161.7
100644
101603
101326
100170
99174.5
99171.9
99669.9
100106
100390
100578
100700
100768
100808
100837
100852
100844
100816
100969
101212
100717
100717
100715
100712
100708
100704
100698
100691
100683
100674
100664
100652
100638
100622
100604
100583
100559
100531
100498
100459
100414
100360
100296
100218
100124
100009
99866.9
99690.4
99450.5
99146.2
98645.2
98031.2
98264.5
99638.5
99825.3
100632
101624
101451
100294
99079.6
98981.8
99482.6
100011
100354
100539
100659
100757
100799
100826
100808
100755
100746
100803
101154
100717
100717
100715
100712
100708
100704
100698
100691
100683
100674
100664
100652
100638
100622
100604
100583
100559
100531
100498
100459
100414
100360
100295
100218
100123
100003
99864.7
99691.1
99457.9
99171.7
98895.7
97744.5
97268.8
98573.9
99827.5
101112
101838
101457
100306
99111.1
98953.6
99485.8
100031
100364
100540
100653
100745
100798
100845
100859
100820
100715
100637
101078
100715
100714
100712
100709
100705
100700
100694
100687
100679
100669
100658
100646
100632
100615
100596
100574
100548
100518
100484
100443
100394
100337
100267
100184
100083
99959.9
99808.5
99615.9
99365.1
99043.4
98647.6
98011.7
97631.9
98179.5
97793.6
99040.4
100299
100686
100248
99422.4
99213
99633.1
100104
100425
100556
100660
100761
100802
100829
100814
100827
100774
100463
100990
100715
100714
100712
100709
100705
100700
100694
100687
100679
100669
100658
100646
100632
100615
100596
100574
100548
100519
100484
100443
100394
100337
100267
100184
100083
99959.1
99814.9
99621.4
99358.8
99036
98605.1
97952.5
97628.7
98202.6
99024.2
99797.6
99883.1
100155
100027
99509.6
99266.1
99603.3
100092
100438
100579
100657
100744
100803
100849
100868
100937
100893
100400
100862
100713
100713
100710
100707
100703
100698
100692
100685
100676
100666
100655
100642
100628
100610
100591
100568
100541
100510
100474
100431
100381
100321
100248
100161
100055
99925.8
99766.4
99566.4
99312.9
98992.2
98613.7
98103.2
97619.5
96986.7
96144.9
96333.3
95680.9
95801.8
96389.4
97837.6
98886.4
99776.1
100239
100520
100666
100757
100813
100829
100841
100855
100961
100928
100333
100713
100713
100713
100710
100707
100703
100698
100692
100685
100676
100666
100655
100642
100628
100611
100591
100568
100541
100510
100474
100431
100381
100320
100248
100161
100055
99926.1
99768.4
99573
99314.6
98983
98628.7
98119.2
97644.5
97484.7
96997.6
96075.5
95014.8
95257
96054.2
97645.4
98963.6
99783.3
100235
100515
100663
100757
100811
100834
100845
100876
101054
101116
100436
100713
100712
100711
100709
100706
100702
100697
100691
100683
100675
100665
100653
100640
100625
100608
100588
100565
100538
100506
100469
100426
100374
100312
100238
100149
100040
99907.5
99744.2
99541.3
99287.9
98972.2
98587.6
98093.8
97475.1
96885.6
96277.5
94996.3
92775.7
92076.8
92973.8
95280
97624.4
99129
99900.6
100295
100572
100749
100816
100828
100826
100838
100847
100725
100468
100698
100712
100711
100709
100706
100702
100697
100691
100683
100675
100665
100653
100640
100625
100608
100588
100565
100538
100506
100469
100426
100374
100312
100238
100148
100040
99907.5
99744.7
99543.5
99290.3
98976
98608.9
98159.7
97656.6
96948.9
95649.1
94003.8
92745.6
92255
93051.8
95148.6
97529.1
99127
99904.2
100285
100544
100737
100821
100830
100829
100851
100878
100775
100516
100683
100664
101050
100486
101458
101457
100478
100409
100474
100373
100261
100447
101036
100424
101464
101416
100466
100263
100421
100238
100261
101324
100779
100440
100747
100347
100431
100277
100428
100235
100325
100209
101299
100736
100333
100735
100309
100245
100264
100298
100242
100275
100304
100842
100914
100830
100968
100851
100957
100830
100673
100723
100655
100662
100576
100631
100548
100815
100904
100806
100945
100786
100940
100759
100645
100695
100643
100555
100506
100510
100485
101127
101058
101122
101108
101260
101107
101261
100494
100614
100548
100610
100525
100391
100361
100464
100265
100284
100227
100282
101114
101051
101112
101104
101246
101098
101249
100089
100517
100301
100376
100309
100517
100465
100549
100229
100334
100285
100414
101137
101050
101141
100915
100901
100913
100892
100566
101341
101028
101024
100624
100305
100380
100329
100245
100328
100275
100364
100258
100376
101134
101043
101134
100908
100881
100907
100882
100505
101307
101028
100508
101018
100248
100254
100367
100298
100429
100304
100413
100359
100455
100537
100693
100531
100655
100547
100657
100551
100170
100372
100250
100447
100424
100455
100452
100532
100681
100530
100657
100555
100657
100558
100324
100387
100342
100463
100459
100464
100456
100940
100860
100642
100852
100986
100929
100615
100789
100834
100929
101297
101379
101469
101385
101315
101091
101137
101298
101380
101467
101385
101289
101087
101077
100440
100518
100565
100575
100365
100486
100507
100471
100361
100342
100344
100489
100449
100356
100445
100299
100285
100310
100351
100842
100749
100460
100756
100985
100893
100428
100732
100727
100872
101302
101352
101441
101245
101384
101146
101025
101280
101376
101434
101371
101282
101094
101071
100047
100263
100317
100327
100021
100147
100319
100275
100287
100237
100339
100290
100097
100075
100256
100264
100241
100281
100219
100257
100321
100550
101337
101025
101018
100532
100228
100182
100305
100540
100417
100530
100358
100282
100383
100488
100200
100515
100347
100392
100409
100353
100409
100259
100245
100296
100322
100242
100275
100250
100305
100405
100408
100387
100348
100276
100371
100332
100277
100362
100146
100156
100519
101306
101001
101008
100538
100178
100220
100128
100473
100315
100165
100458
100159
100322
100452
100465
100222
100240
100242
100225
100255
100221
100211
100266
100241
100251
100254
100241
100264
100256
100313
100267
100273
100292
100229
100276
100297
100276
100267
101134
100998
101062
101204
100992
101204
101143
101093
100951
101033
101178
100936
101113
101180
101126
101056
100966
101195
100980
101201
101124
100525
100566
100481
100370
100549
100359
100539
100480
100474
100513
100359
100519
100348
100426
101103
101043
100950
101208
100950
101199
101101
100366
100495
100439
100380
100422
100413
100374
100331
100426
100382
100330
100386
100352
100305
100705
100855
100703
100773
100846
100697
100715
100680
100827
100764
100656
100835
100648
100684
100284
100309
100291
100198
100249
100260
100331
100221
100202
100187
100271
100201
100219
100253
100603
100815
100636
100728
100614
100800
100623
100618
100813
100733
100632
100808
100632
100629
100223
100208
100287
100278
100225
100214
100282
100226
100255
100293
100291
100238
100270
100245
100554
100572
100462
100520
100590
100509
100517
100368
100281
100250
100367
100357
100170
100220
100306
100551
100527
100586
100532
100595
100536
100528
100033
100258
100164
99678.1
100334
99922.1
99804.3
99808.8
99663.1
99819.7
99714.1
100168
100240
100493
100007
100256
100422
99925.1
99698.9
99616.9
99688.8
99596.7
101000
100756
100814
100580
100765
100987
100830
101212
101473
101482
101223
101203
101461
101467
101190
101013
100581
100811
100830
100784
100836
101008
100346
100379
101085
100721
100502
100808
100786
100986
100803
101303
101493
101355
101232
101298
101499
101410
101123
101112
100504
100797
100778
101015
100796
100814
100242
100251
100543
100885
100534
100954
100901
100514
100558
100408
100323
100290
100425
100382
100204
100247
100349
100544
100956
100899
100595
100903
100561
100596
100451
100872
100505
100913
100489
100852
100467
100226
99915.9
99982.3
100311
100274
100172
100328
100117
100454
100906
100860
100359
100845
100472
100555
101522
101349
101506
101297
101349
101506
101518
101581
101559
101571
101566
101574
101555
101559
101568
101529
101309
101351
101513
101354
101517
101508
101097
101108
101521
101349
101309
101509
101349
101520
101506
101579
101568
101557
101551
101526
101315
101367
101517
101351
101506
101523
101572
101562
101573
101555
101091
101092
100371
100522
100382
100403
100442
100489
100296
100077
99753.6
99905.9
99924.2
100151
100111
100230
100049
100345
100358
100509
100153
100324
100460
100233
100500
100502
100400
100451
100408
100481
100466
100415
100392
100403
100441
100447
100405
100380
100396
100366
100423
100416
100486
100472
100429
100475
100430
100418
100412
100372
100363
100425
100415
100387
100411
100365
100379
100311
100293
100314
100307
100355
100381
100369
100348
100388
100367
100351
100322
100352
100331
100329
100378
100776
100824
100315
100795
100366
100301
100079
99782.2
99832.9
100119
100315
100914
100864
100604
100810
100414
100412
100173
99834.6
99888.6
100147
100263
100765
100416
100867
100281
100761
100374
100029
99810.3
99751.7
100079
100024
99772
100059
99736.4
100269
100807
100763
100368
100754
100315
100346
101582
101338
101364
101653
101314
101541
101586
101912
101569
101421
101507
101512
101334
101376
101690
101301
101517
101508
101676
101693
101452
101663
101192
101166
101611
101333
101637
101278
101303
101522
101599
101632
101523
101594
101543
101613
101593
101615
101590
101594
101285
101315
101601
101278
101668
101487
101141
101090
99958.5
100237
99629.6
100039
99912.1
100260
99644.2
99588.2
99672.2
99584.1
99669.2
99604.5
99582.8
99582.5
99564.6
99907.8
100025
100190
99632.7
100221
99633.3
99920.1
100211
100273
100280
100281
100319
100281
100322
100297
100274
100301
100278
100304
100277
100314
100304
100353
100338
100330
100342
100318
100277
100259
100267
100265
100073
100084
100252
100309
100264
100223
100282
100274
100237
100264
100268
100266
100281
100262
100252
100265
100256
100240
100216
100266
100248
100264
100238
100253
100266
100265
100991
100760
100801
100550
100979
100773
100807
101196
101465
101189
101456
101198
101466
101189
101465