/*--------------------------------*- C++ -*----------------------------------*\
| =========                 |                                                 |
| \\      /  F ield         | OpenFOAM: The Open Source CFD Toolbox           |
|  \\    /   O peration     | Version:  4.1                                   |
|   \\  /    A nd           | Web:      www.OpenFOAM.org                      |
|    \\/     M anipulation  |                                                 |
\*---------------------------------------------------------------------------*/
FoamFile
{
    version     2.0;
    format      ascii;
    class       surfaceScalarField;
    location    "59";
    object      phi;
}
// * * * * * * * * * * * * * * * * * * * * * * * * * * * * * * * * * * * * * //

dimensions      [0 3 -1 0 0 0 0];

internalField   nonuniform List<scalar> 
11516
(
9.98752e+06
142.563
9519.1
9.9688e+06
219.717
20653.7
9.94037e+06
305.637
30340
9.90272e+06
319.882
39557.2
9.85575e+06
328.719
48790.3
9.79913e+06
327.88
58267.2
9.73248e+06
292.221
68115.6
9.65546e+06
237.78
78337.1
9.56794e+06
204.172
88822.2
9.46977e+06
204.159
99585.6
9.3613e+06
255.378
110140
9.24367e+06
343.173
119590
9.11898e+06
320.958
127036
8.99185e+06
182.24
129470
8.87194e+06
-1467.44
122923
8.77448e+06
-2638.38
100418
8.71628e+06
-1017.41
58392.3
8.70712e+06
-376.9
8507.06
8.7055e+06
128.14
799.924
8.66595e+06
1286.11
38177.6
8.59406e+06
-1204.91
73447.5
8.49176e+06
-5069.22
108051
8.36656e+06
-8271.65
134376
8.22616e+06
-10943.4
152407
8.0728e+06
-12971
167512
7.92665e+06
-14442.7
161951
7.80108e+06
-11870.5
139093
7.70306e+06
-6388.78
106302
7.6328e+06
-5098.47
77317.8
7.58908e+06
-8103.65
53779.1
7.55702e+06
-13477.4
47641.3
7.50531e+06
-19119.6
72473.3
7.43771e+06
-18074
86474
7.39619e+06
-4435.89
45684.3
7.42098e+06
11019.4
-34953
7.45869e+06
14874.9
-55264.1
7.46218e+06
12414.7
-19299.5
7.44219e+06
4901
11206.7
7.40839e+06
1669.93
21285.5
7.38622e+06
5586.25
2100.74
7.38067e+06
8377.86
-21557.1
7.34774e+06
9874.26
-7456.76
7.28055e+06
8647.77
27154
7.20044e+06
8247.01
51995
7.12646e+06
807.409
59719.5
7.07906e+06
-2698.42
39191.7
7.0426e+06
7999.66
38428.5
7.05437e+06
12793.1
-11525.4
7.06525e+06
21637.4
-33156.3
7.12633e+06
10204.9
-91732.1
7.2553e+06
6714.04
-138576
7.39968e+06
-2379.49
-193848
7.5721e+06
38754.2
-155402
82651.4
-323506
9.98773e+06
9521.09
9.96877e+06
20663.5
9.94025e+06
30352.5
9.90253e+06
39561.1
9.85553e+06
48793.1
9.79891e+06
58290.9
9.73226e+06
68154.1
9.65523e+06
78385.3
9.56767e+06
88870
9.46948e+06
99589.6
9.361e+06
110106
9.24344e+06
119480
9.11838e+06
127033
8.98993e+06
130011
8.86487e+06
124369
8.76191e+06
100292
8.70582e+06
54593
8.70414e+06
898.506
8.70839e+06
-4300.52
8.67122e+06
38587.7
8.59963e+06
70768.9
8.4984e+06
96685.8
8.37303e+06
117729
8.22866e+06
134137
8.06685e+06
149648
7.91009e+06
143296
7.77344e+06
125964
7.66157e+06
106824
7.57646e+06
81503.2
7.5255e+06
44624.7
7.50475e+06
8953.56
7.48637e+06
494.556
7.45556e+06
13520
7.42715e+06
23712.8
7.4399e+06
-2482.6
7.46636e+06
-12298.6
7.46911e+06
8147.17
7.44914e+06
18045.3
7.42272e+06
16982.8
7.40398e+06
8896.96
7.38681e+06
7817.63
7.34532e+06
31105.1
7.27808e+06
61883.2
7.19232e+06
77687.1
7.10013e+06
86446.2
7.03625e+06
61037.2
6.99779e+06
52894
6.9816e+06
38424.9
6.99354e+06
-14746.2
7.11948e+06
-84710.7
7.21829e+06
-156723
7.42526e+06
-176780
7.57099e+06
-76864.6
-254636
1.00063e+07
145.512
5558.48
1.00138e+07
215.825
15135.5
1.00214e+07
304.818
24689.6
1.00286e+07
328.893
34299.2
1.00352e+07
351.699
44112.3
1.0041e+07
362.216
54260.6
1.0046e+07
339.783
64837.1
1.00501e+07
296.468
75713.6
1.00528e+07
258.14
87544.8
1.00542e+07
247.233
99607.4
1.00535e+07
260.392
112210
1.00496e+07
279.387
124888
1.00404e+07
377.555
137609
1.0022e+07
490.392
149074
9.98154e+06
1598.63
163043
9.90718e+06
1905.64
173523
9.7757e+06
2583.66
187877
9.57669e+06
1366.99
206328
9.35649e+06
-960.832
222046
9.16307e+06
-1284.54
233027
8.99575e+06
221.347
240760
8.85261e+06
1771.72
249649
8.72254e+06
3026.33
261652
8.59614e+06
4134.41
274931
8.475e+06
4712.15
284248
8.35412e+06
5348.33
277918
8.23072e+06
6025.51
257132
8.09512e+06
7619.16
235163
7.9572e+06
11547.3
204631
7.8283e+06
14773.7
168888
7.70568e+06
18839.3
152336
7.59844e+06
23582.1
156744
7.52507e+06
21769.5
138617
7.49115e+06
12810.1
67327.7
7.49947e+06
1739.46
-45335.5
7.49948e+06
-12551.5
-42691.5
7.46812e+06
-25101
33641.6
7.41751e+06
-33094.2
81482.7
7.35051e+06
-30917.5
105125
7.30034e+06
-22321.7
61663.3
7.26517e+06
-26404.8
29197.5
7.20461e+06
-37374.2
77417.5
7.14222e+06
-43565
119051
7.09239e+06
-46600.9
132165
7.05552e+06
-47751.6
132076
7.02521e+06
-46594.8
111895
7.00597e+06
-45197.7
103975
6.96979e+06
-34548.2
68633.5
6.93843e+06
-46733
48150.7
6.94041e+06
-68848.8
-30311.3
6.87195e+06
-26736.3
-44403.4
6.88401e+06
23099.3
-196758
7.32071e+06
91958.9
-622713
28984.5
-850749
1.00065e+07
5556.88
1.00138e+07
15132.8
1.00213e+07
24684.9
1.00285e+07
34290.3
1.0035e+07
44099.3
1.00409e+07
54249.4
1.00459e+07
64833.4
1.00501e+07
75722.5
1.00528e+07
87573.7
1.00541e+07
99643.8
1.00534e+07
112240
1.00493e+07
124946
1.00404e+07
137511
1.00228e+07
149186
9.98907e+06
160425
9.92023e+06
171676
9.78639e+06
191575
9.58303e+06
205802
9.357e+06
220853
9.16404e+06
230348
8.99963e+06
235541
8.85671e+06
241544
8.72759e+06
250072
8.60287e+06
263188
8.48501e+06
272478
8.36723e+06
266844
8.24533e+06
254538
8.11874e+06
241847
7.99627e+06
216552
7.8839e+06
173046
7.76436e+06
148420
7.6398e+06
149447
7.54515e+06
130573
7.51555e+06
67084.7
7.52811e+06
-13601.1
7.53837e+06
-36945.5
7.52837e+06
-13051.1
7.49088e+06
10378.2
7.44319e+06
17367.2
7.4259e+06
-10103
7.42482e+06
-27692.1
7.39624e+06
9881.62
7.35732e+06
42743.7
7.32783e+06
51686.6
7.30474e+06
51960.7
7.28502e+06
25651.3
7.27637e+06
18539.7
7.2652e+06
18282.1
7.2397e+06
-30614.3
7.17162e+06
-93719.2
7.10706e+06
-112986
7.23247e+06
-237597
7.55567e+06
-291147
-841359
9.99933e+06
144.203
7119.66
9.9954e+06
213.208
20969.5
9.98715e+06
299.867
34826.1
9.97467e+06
323.978
48694.8
9.95793e+06
350.249
62716.9
9.93694e+06
367.245
77014.3
9.91194e+06
347.328
91481.1
9.88242e+06
298.205
106771
9.84929e+06
245.392
122124
9.81193e+06
207.313
138345
9.77087e+06
190.58
154613
9.72581e+06
208.793
171283
9.67624e+06
250.759
188513
9.62028e+06
406.957
206301
9.55999e+06
413.662
224742
9.48666e+06
940.082
247743
9.40519e+06
667.458
270362
9.32228e+06
1070.05
288409
9.22643e+06
838.55
317131
9.11712e+06
689.843
341691
8.99834e+06
1019.52
358697
8.87809e+06
1618.83
368536
8.75854e+06
2504.17
378995
8.63797e+06
4060.25
391713
8.5141e+06
4719.94
403709
8.38397e+06
5932.83
402565
8.24182e+06
8524.18
391445
8.08077e+06
11841.2
385281
7.90543e+06
14287.3
366781
7.71491e+06
13679.6
346943
7.49767e+06
12985.7
357881
7.27969e+06
19354.1
356644
7.08841e+06
38099.4
293184
6.96261e+06
59548.7
133529
6.96612e+06
51047
-100855
6.98715e+06
3639.43
-70382.5
6.94021e+06
-33797.7
103813
6.85278e+06
-44605.6
194116
6.7528e+06
-31675.7
222605
6.72999e+06
-3188.94
81096.9
6.73494e+06
-12294.5
33025.4
6.69839e+06
-37316.4
143200
6.63431e+06
-46169.2
212216
6.57565e+06
-45643.5
220186
6.51706e+06
-42537.4
209964
6.45711e+06
-36464.5
185552
6.44799e+06
-39938.3
146508
6.45909e+06
-36648.4
101351
6.48044e+06
-49206
97072.5
6.51341e+06
-42525.2
-4744.2
6.60556e+06
-15163.5
-115340
6.63342e+06
15255.2
-216203
6.32386e+06
16075.4
-307939
8726.13
-695132
9.99954e+06
7117.48
9.99538e+06
20962.2
9.98705e+06
34814.9
9.97451e+06
48679.6
9.95775e+06
62699.6
9.93679e+06
76997.5
9.91183e+06
91467.5
9.88231e+06
106763
9.84914e+06
122122
9.81172e+06
138350
9.77059e+06
154619
9.72553e+06
171281
9.67594e+06
188487
9.6205e+06
206254
9.55791e+06
224754
9.48491e+06
247141
9.40638e+06
271925
9.32101e+06
292443
9.22599e+06
316711
9.11877e+06
338295
9.00177e+06
353697
8.88326e+06
361897
8.76495e+06
371135
8.64268e+06
389761
8.51718e+06
402984
8.38635e+06
404025
8.24589e+06
404114
8.09414e+06
406206
7.93088e+06
395191
7.74507e+06
373957
7.53041e+06
377297
7.32331e+06
377203
7.17043e+06
323237
7.10774e+06
188812
7.14593e+06
-3394.67
7.16281e+06
-57692.6
7.13987e+06
-39371.7
7.08673e+06
-1938.38
7.01931e+06
37332.3
6.98911e+06
7358.32
6.97175e+06
-28014
6.90265e+06
30160.8
6.82338e+06
56907.4
6.75442e+06
50836
6.68797e+06
52958.4
6.63104e+06
30858.4
6.59437e+06
12798
6.58876e+06
-658.169
6.5652e+06
-36991.6
6.58376e+06
-140702
6.66645e+06
-197992
6.71046e+06
-266646
6.54748e+06
-84824.7
-691471
9.99897e+06
141.668
9101.75
9.99505e+06
206.429
26749.1
9.98703e+06
291.364
44675.3
9.97482e+06
313.366
62749.1
9.95821e+06
337.058
81122.5
9.93718e+06
352.255
99733
9.91095e+06
331.305
119277
9.87996e+06
282.104
139212
9.84385e+06
230.016
159605
9.80263e+06
194.585
180890
9.75586e+06
182.793
202715
9.703e+06
205.868
225526
9.64382e+06
246.69
249208
9.57821e+06
382.031
273718
9.505e+06
429.758
300053
9.42579e+06
916.213
328935
9.33746e+06
245.506
360304
9.24171e+06
131.183
384478
9.1525e+06
689.145
405620
9.06423e+06
1035.78
428940
8.96877e+06
1314.96
453049
8.86437e+06
1299.88
472001
8.74613e+06
1169.08
496510
8.61518e+06
1487.9
521611
8.4725e+06
905.389
545872
8.31412e+06
598.257
560819
8.13419e+06
2550.42
569377
7.92399e+06
4786.1
591372
7.67068e+06
3878.89
617234
7.37287e+06
4756.34
641305
7.06422e+06
7326.01
660448
6.78441e+06
12420.6
625149
6.567e+06
24192.4
486812
6.48865e+06
42947.1
169372
6.57793e+06
36642.1
-228109
6.63941e+06
-47887.6
-87928.7
6.55443e+06
-122163
297152
6.42018e+06
-168466
472018
6.30152e+06
-158656
489663
6.316e+06
-79882.6
142781
6.3311e+06
-29625.9
46169.1
6.28646e+06
-47090.2
227960
6.20229e+06
-49237.4
317993
6.12045e+06
-43929.8
302408
6.04554e+06
-43611.2
286715
5.96585e+06
-46751.2
273966
5.91854e+06
-50700.2
236951
5.93352e+06
-23453.1
131549
5.94209e+06
-22718.4
153795
6.00383e+06
-40039.7
30426.1
6.12621e+06
-31965.4
-139163
6.16281e+06
-14644.8
-210158
6.17123e+06
-18865.9
-292201
160969
-376037
9.99918e+06
9101.63
9.99503e+06
26745.7
9.98693e+06
44663.9
9.97466e+06
62735.5
9.95802e+06
81109.6
9.93702e+06
99718.6
9.91083e+06
119257
9.87985e+06
139185
9.8437e+06
159571
9.80242e+06
180850
9.75558e+06
202673
9.70268e+06
225479
9.64351e+06
249175
9.57801e+06
273642
9.50502e+06
300044
9.42634e+06
328730
9.3387e+06
360982
9.24169e+06
389866
9.15299e+06
406133
9.06532e+06
427034
8.97001e+06
450514
8.86367e+06
469855
8.74267e+06
493617
8.61123e+06
522952
8.46872e+06
546715
8.30672e+06
566998
8.12168e+06
592105
7.91031e+06
622897
7.66334e+06
646856
7.37887e+06
664125
7.09124e+06
673195
6.83194e+06
649830
6.62238e+06
557159
6.53626e+06
317583
6.63934e+06
-71374.5
6.69928e+06
-176452
6.67821e+06
-159463
6.58346e+06
-93380.3
6.4839e+06
-35029.2
6.4933e+06
-88264.4
6.48731e+06
-53948.8
6.42139e+06
38776.4
6.32377e+06
78254.2
6.23006e+06
70615.8
6.1412e+06
69319.9
6.05312e+06
50641.7
5.98505e+06
28986.5
5.99757e+06
-15340.5
6.02179e+06
-39972.1
6.0665e+06
-168044
6.10242e+06
-262705
6.136e+06
-277449
6.2848e+06
-248000
-496556
9.99899e+06
140.475
11051.4
9.99513e+06
204.19
32440
9.98727e+06
286.907
54326.7
9.97531e+06
307.034
76513.3
9.95907e+06
328.912
99107.6
9.93836e+06
342.742
122060
9.91303e+06
321.412
146080
9.88313e+06
272.974
170454
9.84811e+06
223.038
195870
9.80798e+06
190.777
222223
9.76251e+06
183.913
249406
9.71141e+06
204.59
277936
9.65477e+06
262.097
307382
9.59186e+06
350.25
338559
9.5226e+06
522.337
371613
9.44713e+06
623.132
407068
9.36235e+06
1345.51
446483
9.25982e+06
904.2
487636
9.15465e+06
575.298
510431
9.0507e+06
1522.25
531408
8.9479e+06
2256.03
553695
8.83689e+06
1762.3
581531
8.70792e+06
561.019
625387
8.55765e+06
-269.868
672727
8.38734e+06
-3029.83
719873
8.18657e+06
-4282.58
766628
7.95485e+06
-1622.96
803509
7.69366e+06
1045.59
852256
7.39901e+06
-116.545
912841
7.08206e+06
-210.517
959379
6.77373e+06
3338.14
966310
6.49233e+06
11521.1
895817
6.27021e+06
24030.6
686520
6.17069e+06
50178.2
219541
6.27323e+06
108010
-437524
6.13696e+06
-64006.3
108893
6.10299e+06
-189967
510573
6.02085e+06
-213965
750288
5.83378e+06
-236781
901103
5.83091e+06
-86085.7
227624
5.82876e+06
-32768.3
80481.6
5.755e+06
-78507.2
374596
5.69884e+06
-76895.6
424700
5.61222e+06
-71931.6
422760
5.52551e+06
-75697.7
393058
5.45823e+06
-76597.2
356465
5.41128e+06
-70170.6
305249
5.30842e+06
-20315.9
247811
5.26081e+06
-21157.2
257898
5.39159e+06
-36683.2
67615.3
5.38653e+06
5327.76
-72243.6
5.36582e+06
50061.2
-189979
5.36327e+06
5176.81
-262390
71532.9
-349534
9.9992e+06
11048.4
9.99511e+06
32430.3
9.98717e+06
54315.2
9.97514e+06
76501.8
9.95888e+06
99096.2
9.9382e+06
122046
9.91292e+06
146058
9.88302e+06
170423
9.84796e+06
195829
9.80777e+06
222176
9.76223e+06
249359
9.7111e+06
277895
9.65448e+06
307354
9.59159e+06
338531
9.52259e+06
371645
9.44701e+06
407060
9.36476e+06
446434
9.26871e+06
487763
9.16151e+06
514210
9.05396e+06
536265
8.94716e+06
559704
8.82806e+06
590848
8.69354e+06
629002
8.54461e+06
672020
8.37154e+06
717280
8.16657e+06
768275
7.94211e+06
815440
7.69329e+06
873292
7.41409e+06
926556
7.11301e+06
965694
6.81915e+06
971108
6.56048e+06
920537
6.37818e+06
764425
6.34631e+06
401325
6.51145e+06
-123246
6.66667e+06
-390264
6.69829e+06
-384332
6.62911e+06
-246759
6.45996e+06
-109341
6.35991e+06
-79846.7
6.26344e+06
8771.62
6.146e+06
72469.9
6.04639e+06
86184.3
5.9427e+06
73156
5.83814e+06
61313.7
5.73333e+06
43545.9
5.66046e+06
11937.8
5.64429e+06
-11427.3
5.64616e+06
-18653.3
5.56892e+06
-100427
5.48996e+06
-145813
5.56626e+06
-276128
5.59207e+06
-292226
-461450
9.99902e+06
137.039
12938.5
9.99523e+06
195.443
38001.6
9.9876e+06
277.366
63707.5
9.97606e+06
297.744
89820.7
9.96051e+06
318.341
116347
9.94047e+06
329.233
143659
9.91605e+06
304.424
171890
9.88698e+06
253.066
200762
9.8531e+06
201.779
230892
9.81442e+06
170.814
262017
9.77036e+06
168.727
294635
9.72109e+06
195.169
328516
9.66626e+06
259.34
363788
9.60579e+06
339.663
400989
9.53998e+06
523.079
439966
9.4688e+06
597.037
481129
9.39349e+06
1088.39
524404
9.31081e+06
637.027
572278
9.2113e+06
409.713
610585
9.09418e+06
1708.49
646992
8.96478e+06
2534.23
680308
8.82552e+06
653.645
720026
8.68614e+06
-1225.91
766413
8.53164e+06
-2495.19
830603
8.34212e+06
-6116.38
916711
8.10363e+06
-5949.05
1.0126e+06
7.82465e+06
-1913.57
1.08575e+06
7.53471e+06
3037.78
1.1403e+06
7.23591e+06
3531.33
1.20918e+06
6.92482e+06
3421.13
1.26805e+06
6.60543e+06
7816.98
1.27893e+06
6.2756e+06
21068.4
1.20657e+06
5.91205e+06
48875.9
1.00359e+06
5.44923e+06
176076
509565
4.19206e+06
720746
107177
3.26619e+06
514718
529520
2.97989e+06
225874
577649
3.47358e+06
101836
143610
3.9301e+06
-11481.3
433728
4.3433e+06
85333.5
-289130
4.47324e+06
13288.6
-65750.1
4.57103e+06
-40050.1
311535
4.59582e+06
2255.33
382097
4.60351e+06
2147.37
359433
4.58687e+06
13676.6
308569
4.56244e+06
24267.7
250718
4.51254e+06
51745.6
211436
4.49841e+06
81264.7
141573
4.55493e+06
127533
98621.7
4.50761e+06
159657
-4370.82
4.42106e+06
162800
-89904.6
4.30716e+06
170128
-161357
4.12611e+06
135960
-271669
116867
-637847
9.99922e+06
12938.1
9.99521e+06
37997.3
9.9875e+06
63693.4
9.97589e+06
89805.3
9.96033e+06
116334
9.94031e+06
143646
9.91592e+06
171870
9.88686e+06
200733
9.85294e+06
230853
9.8142e+06
261971
9.77008e+06
294587
9.72078e+06
328474
9.66597e+06
363751
9.60558e+06
400970
9.53992e+06
439931
9.46893e+06
481052
9.39424e+06
524422
9.31391e+06
570397
9.21633e+06
613077
9.1011e+06
653329
8.97086e+06
692219
8.82919e+06
733326
8.67994e+06
777624
8.5142e+06
835884
8.31743e+06
908818
8.08144e+06
999196
7.82648e+06
1.06932e+06
7.55658e+06
1.14694e+06
7.26726e+06
1.22019e+06
6.96638e+06
1.27081e+06
6.67156e+06
1.27446e+06
6.39766e+06
1.21679e+06
6.15385e+06
1.0593e+06
6.01689e+06
723174
6.54298e+06
102062
6.7345e+06
-57864.8
6.7069e+06
-128438
6.60364e+06
-48729.5
6.41657e+06
48806.9
6.13313e+06
278407
5.81151e+06
336961
5.61863e+06
218080
5.53793e+06
147556
5.46197e+06
116565
5.37114e+06
115815
5.27293e+06
108778
5.19724e+06
93788.1
5.15015e+06
99803.4
5.13344e+06
127657
5.09269e+06
124489
5.04836e+06
92829.6
4.96738e+06
-42070.1
4.82626e+06
7793.2
-216713
9.99906e+06
135.239
14758.8
9.99544e+06
192.778
43344.5
9.98817e+06
272.906
72681.5
9.97716e+06
292.03
102535
9.96231e+06
310.373
132825
9.94312e+06
318.497
164344
9.91968e+06
291.908
196652
9.89172e+06
240.768
229905
9.85925e+06
192.164
264442
9.82154e+06
166.493
300813
9.77917e+06
171.231
338166
9.73159e+06
204.907
377417
9.67854e+06
265.49
418372
9.62035e+06
353.228
461074
9.55706e+06
466.189
505519
9.48907e+06
577.966
551679
9.41656e+06
655.619
599514
9.34127e+06
816.905
649664
9.25561e+06
140.459
697924
9.15657e+06
-603.471
747176
9.03769e+06
-349.339
799424
8.89326e+06
-1072.29
865888
8.7343e+06
-1487.68
927913
8.56993e+06
-5689.1
1.00171e+06
8.37568e+06
-9998.08
1.12228e+06
8.12698e+06
-10287.6
1.27329e+06
7.82577e+06
-656.626
1.38992e+06
7.50246e+06
8285.59
1.45742e+06
7.17984e+06
8411.75
1.52513e+06
6.85419e+06
6530.24
1.58859e+06
6.52074e+06
12939.6
1.60085e+06
6.14079e+06
29845
1.55841e+06
5.53333e+06
87372.2
1.52582e+06
3.80019e+06
469959
1.77589e+06
1.75318e+06
674600
1.49503e+06
1.71162e+06
17475.3
553544
1.81687e+06
105292
341071
1.39454e+06
409393
57994.5
970898
259866
486591
1.32466e+06
-151431
-575293
1.99898e+06
-227284
-564323
2.13649e+06
50760.8
48962.6
2.10753e+06
198485
119271
2.12032e+06
216353
29634.3
2.09155e+06
259111
-42224.4
1.99787e+06
327761
-127254
1.88288e+06
405786
-203209
1.84412e+06
455286
-348831
1.91382e+06
442706
-449156
2.05428e+06
394901
-550391
2.33e+06
336763
-663060
2.67504e+06
243350
-799479
3.19501e+06
228865
-964764
78019.1
-1.24896e+06
9.99926e+06
14754.7
9.99543e+06
43330.5
9.98807e+06
72663.8
9.977e+06
102517
9.96213e+06
132808
9.94296e+06
164327
9.91955e+06
196632
9.89159e+06
229880
9.8591e+06
264412
9.82133e+06
300781
9.77891e+06
338135
9.7313e+06
377391
9.67828e+06
418348
9.62015e+06
461047
9.55696e+06
505483
9.48909e+06
551607
9.41683e+06
599450
9.34108e+06
648733
9.25676e+06
698611
9.15971e+06
750150
9.04593e+06
805914
8.90897e+06
870030
8.74102e+06
945456
8.55917e+06
1.01299e+06
8.34812e+06
1.11103e+06
8.09368e+06
1.2447e+06
7.81639e+06
1.34752e+06
7.52716e+06
1.4457e+06
7.22241e+06
1.53457e+06
6.91026e+06
1.59054e+06
6.6038e+06
1.59497e+06
6.30555e+06
1.54616e+06
5.9847e+06
1.46951e+06
5.68245e+06
1.51428e+06
4.38908e+06
2.07369e+06
2.78301e+06
1.56392e+06
1.89036e+06
845342
1.8017e+06
406888
1.78681e+06
279955
2.0079e+06
-144015
2.28417e+06
-220801
2.25409e+06
237813
2.25878e+06
274691
2.30482e+06
192079
2.36056e+06
171617
2.4655e+06
189902
2.59068e+06
246838
2.62535e+06
405581
2.63404e+06
460842
2.71367e+06
385729
2.81017e+06
286750
2.82458e+06
221077
2.91031e+06
179679
-77894.4
9.99912e+06
130.658
16459
9.99573e+06
180.009
48377.9
9.98889e+06
257.893
81150.3
9.97851e+06
276.379
114540
9.96439e+06
293.68
148499
9.94632e+06
301.049
183839
9.92428e+06
275.566
219957
9.89759e+06
227.794
257736
9.86637e+06
184.38
296750
9.83073e+06
164.536
337556
9.78998e+06
174.226
380121
9.74421e+06
208.605
424528
9.69325e+06
259.731
470819
9.63698e+06
325.888
519046
9.57565e+06
393.568
568776
9.50944e+06
479.293
620116
9.43881e+06
487.602
672447
9.3646e+06
478.1
726088
9.28427e+06
-99.0367
780519
9.19664e+06
-885.443
837255
9.0986e+06
-1356.45
899805
8.98886e+06
-743.048
977663
8.84941e+06
412.434
1.0695e+06
8.68056e+06
-4649.2
1.1772e+06
8.49288e+06
-12337.9
1.32395e+06
8.27732e+06
-14284
1.50532e+06
8.01099e+06
-2845.04
1.66266e+06
7.66459e+06
13868
1.7966e+06
7.2736e+06
19118.2
1.90336e+06
6.899e+06
9876.92
1.95815e+06
6.57814e+06
10691.4
1.91353e+06
6.27758e+06
18050.2
1.84224e+06
5.94092e+06
33699.3
1.82888e+06
5.43889e+06
224890
2.05472e+06
3.39636e+06
572587
2.95402e+06
1.59945e+06
389090
1.92884e+06
229120
449255
1.13306e+06
-514599
291235
310368
-276518
-86364.3
156131
-431943
-529624
-49916.3
-467870
-512288
-192588
6249.3
-170170
-476183
499124
68908.1
-633726
864311
144729
-652266
1.24682e+06
152140
-769678
1.74194e+06
142825
-928431
2.32186e+06
124599
-1.05146e+06
2.91119e+06
75254.5
-1.15037e+06
3.43903e+06
94671.6
-1.20165e+06
3.86512e+06
152679
-1.21626e+06
4.23927e+06
109876
-1.21914e+06
4.62528e+06
50526.1
-1.21161e+06
4.92163e+06
17939.4
-1.2544e+06
-39094.6
-1.32086e+06
9.99931e+06
16458.7
9.99571e+06
48372.7
9.98879e+06
81133.1
9.97835e+06
114521
9.96421e+06
148482
9.94616e+06
183821
9.92415e+06
219936
9.89747e+06
257708
9.86622e+06
296716
9.83053e+06
337521
9.78973e+06
380087
9.74393e+06
424500
9.69299e+06
470796
9.63677e+06
519019
9.57554e+06
568738
9.50938e+06
620026
9.43882e+06
672346
9.36387e+06
725875
9.28317e+06
780612
9.1957e+06
837687
9.09964e+06
901515
8.99326e+06
976972
8.86164e+06
1.07948e+06
8.68867e+06
1.18353e+06
8.47616e+06
1.3138e+06
8.22911e+06
1.4796e+06
7.93774e+06
1.64074e+06
7.63079e+06
1.76967e+06
7.31811e+06
1.86882e+06
6.98692e+06
1.93443e+06
6.65647e+06
1.93884e+06
6.35999e+06
1.86234e+06
6.05986e+06
1.80679e+06
5.85777e+06
1.93916e+06
5.9527e+06
2.54116e+06
5.17594e+06
2.71245e+06
4.1946e+06
2.2531e+06
3.24301e+06
1.62197e+06
2.23552e+06
1.1592e+06
679868
810215
-613591
454984
-945715
288914
-751684
6686.64
-436886
-197385
-116698
-263817
164779
-181082
264147
48861.8
234324
271251
391754
185892
684676
95772.5
958948
74579.1
1.24126e+06
4590.68
1.55978e+06
-104583
-210866
9.99919e+06
128.594
18050.7
9.99609e+06
176.601
53072.2
9.98976e+06
251.928
89031.9
9.98015e+06
268.983
125718
9.96703e+06
284.859
163110
9.95017e+06
291.526
202051
9.92936e+06
267.285
241977
9.9045e+06
222.817
283693
9.87509e+06
183.838
327217
9.84119e+06
168.275
372546
9.80267e+06
180.393
419815
9.75888e+06
212.96
469613
9.70976e+06
255.511
521335
9.65545e+06
300.378
574844
9.5957e+06
346.926
630183
9.53101e+06
387.957
686626
9.46156e+06
397.431
743920
9.38829e+06
377.95
801528
9.31157e+06
215.554
859396
9.23157e+06
6.98056
919312
9.14877e+06
-145.581
984461
9.06451e+06
325.95
1.06398e+06
8.96875e+06
1380.06
1.16645e+06
8.8373e+06
7801.63
1.30537e+06
8.66972e+06
3237.54
1.49135e+06
8.49222e+06
-5928.08
1.69067e+06
8.29297e+06
-6476.66
1.87661e+06
8.02e+06
1547.19
2.08183e+06
7.659e+06
19449.7
2.25969e+06
7.22184e+06
30756.5
2.37867e+06
6.75408e+06
28708.1
2.36201e+06
6.32869e+06
17761.7
2.25427e+06
5.98389e+06
20048.6
2.15398e+06
5.87594e+06
32842.2
2.12452e+06
5.78002e+06
224907
2.81212e+06
4.65408e+06
203871
2.83127e+06
3.40776e+06
134055
2.22081e+06
2.22137e+06
42217.6
1.41914e+06
1.6663e+06
-60327
719887
1.642e+06
-283098
188588
1.98822e+06
-436558
-170496
2.37608e+06
-444645
-481994
2.73816e+06
-322714
-732915
3.11918e+06
-147498
-937866
3.52055e+06
-78696.9
-1.12089e+06
3.96431e+06
-129832
-1.25085e+06
4.40252e+06
-166591
-1.33015e+06
4.79567e+06
-196837
-1.37535e+06
5.10889e+06
-172516
-1.39917e+06
5.34667e+06
-134112
-1.39128e+06
5.54555e+06
-121106
-1.347e+06
5.71945e+06
-122932
-1.2839e+06
5.80444e+06
-111930
-1.22626e+06
-157920
-1.1196e+06
9.99938e+06
18046.2
9.99607e+06
53056.3
9.98967e+06
89012
9.97999e+06
125698
9.96685e+06
163091
9.95001e+06
202032
9.92923e+06
241955
9.90438e+06
283666
9.87494e+06
327187
9.84099e+06
372513
9.80243e+06
419781
9.75861e+06
469580
9.70949e+06
521302
9.65523e+06
574808
9.59553e+06
630137
9.53089e+06
686568
9.46143e+06
743863
9.38797e+06
801430
9.31108e+06
859346
9.23097e+06
919276
9.1488e+06
984912
9.06446e+06
1.06317e+06
8.98016e+06
1.16764e+06
8.87317e+06
1.30221e+06
8.71107e+06
1.48325e+06
8.50321e+06
1.68629e+06
8.23155e+06
1.91295e+06
7.90348e+06
2.1055e+06
7.56805e+06
2.23022e+06
7.22815e+06
2.31298e+06
6.85445e+06
2.34879e+06
6.45024e+06
2.28883e+06
6.06985e+06
2.2075e+06
5.83459e+06
2.20499e+06
6.1022e+06
2.49293e+06
6.26697e+06
2.74575e+06
6.03016e+06
2.61691e+06
5.47402e+06
2.21046e+06
4.80817e+06
1.74943e+06
3.98466e+06
1.3289e+06
3.0255e+06
945105
2.23521e+06
585653
1.63012e+06
222464
1.29949e+06
-75985.2
1.21694e+06
-290228
1.31452e+06
-410086
1.60748e+06
-417290
2.00456e+06
-354961
2.37064e+06
-413602
2.75648e+06
-498732
3.19108e+06
-535009
3.59969e+06
-558147
3.91028e+06
-547896
-565058
9.99927e+06
123.686
19481.4
9.99651e+06
161.916
57336.8
9.9908e+06
234.649
96216.1
9.98208e+06
251.099
135925
9.97012e+06
266.533
176482
9.95468e+06
273.509
218774
9.93555e+06
251.24
262264
9.91249e+06
209.961
307808
9.88526e+06
173.719
355468
9.85359e+06
158.913
405257
9.81718e+06
167.706
457343
9.77576e+06
193.112
512219
9.72887e+06
223.41
569456
9.67613e+06
253.293
628867
9.61777e+06
284.464
689950
9.55383e+06
317.763
752179
9.48521e+06
360.762
814496
9.41284e+06
383.041
876067
9.33885e+06
395.288
935742
9.26615e+06
276.714
994182
9.19959e+06
259.089
1.0531e+06
9.14114e+06
-316.004
1.12465e+06
9.09173e+06
1047.41
1.21746e+06
9.0317e+06
9738.27
1.35986e+06
8.91921e+06
18940.8
1.58816e+06
8.75011e+06
13470.5
1.84995e+06
8.52678e+06
1737.68
2.10455e+06
8.27599e+06
-3597.63
2.34559e+06
8.00137e+06
3053.56
2.54401e+06
7.67918e+06
14702.1
2.7004e+06
7.25582e+06
18126.7
2.77998e+06
6.73648e+06
18989.3
2.76446e+06
6.23008e+06
29728.8
2.63515e+06
5.86875e+06
-757.714
2.48923e+06
6.03239e+06
45254.4
2.60862e+06
6.06315e+06
64940.8
2.74313e+06
5.73095e+06
35866.9
2.51996e+06
5.19834e+06
-32880.8
1.9792e+06
4.73809e+06
-125597
1.29096e+06
4.49555e+06
-220093
628559
4.50268e+06
-285179
73330.5
4.65432e+06
-299842
-373182
4.87139e+06
-250970
-730441
5.11505e+06
-193820
-993108
5.36107e+06
-169502
-1.17679e+06
5.61152e+06
-178421
-1.28534e+06
5.85545e+06
-208875
-1.3325e+06
6.06668e+06
-240833
-1.34189e+06
6.20672e+06
-243287
-1.33462e+06
6.28442e+06
-235594
-1.30624e+06
6.3279e+06
-229007
-1.23585e+06
6.36687e+06
-234704
-1.13562e+06
6.34517e+06
-236424
-1.00297e+06
-211255
-847913
9.99945e+06
19481.4
9.99649e+06
57331.9
9.99071e+06
96198.9
9.98193e+06
135905
9.96995e+06
176465
9.95453e+06
218757
9.93542e+06
262243
9.91237e+06
307781
9.88511e+06
355437
9.8534e+06
405224
9.81694e+06
457310
9.77548e+06
512188
9.72859e+06
569426
9.67589e+06
628834
9.61758e+06
689907
9.5537e+06
752121
9.48508e+06
814416
9.41271e+06
875977
9.33859e+06
935701
9.26576e+06
994092
9.19854e+06
1.05388e+06
9.13981e+06
1.12318e+06
9.09335e+06
1.21738e+06
9.05026e+06
1.35785e+06
8.9745e+06
1.58124e+06
8.81652e+06
1.86124e+06
8.58299e+06
2.15268e+06
8.29536e+06
2.39656e+06
7.96939e+06
2.56848e+06
7.62021e+06
2.68632e+06
7.24047e+06
2.75473e+06
6.80497e+06
2.74846e+06
6.35526e+06
2.68979e+06
5.95295e+06
2.60874e+06
5.89975e+06
2.59517e+06
6.12116e+06
2.5918e+06
6.322e+06
2.45052e+06
6.34885e+06
2.14434e+06
6.22995e+06
1.73248e+06
6.03734e+06
1.28602e+06
5.82228e+06
854489
5.63223e+06
453912
5.50725e+06
82659.3
5.47331e+06
-234891
5.51576e+06
-483708
5.60346e+06
-648711
5.73215e+06
-735351
5.90845e+06
-777444
6.04453e+06
-828516
6.12755e+06
-872970
6.19426e+06
-884355
6.26671e+06
-905725
6.32875e+06
-853457
-1.056e+06
9.99936e+06
121.799
20767.6
9.997e+06
158.782
61148.8
9.99202e+06
228.931
102622
9.98432e+06
244.113
145041
9.9737e+06
258.54
188454
9.95991e+06
265.344
233790
9.94251e+06
244.596
280769
9.92163e+06
206.116
329700
9.89702e+06
172.722
381060
9.86793e+06
159.248
435354
9.83395e+06
166.994
492370
9.79502e+06
188.605
552253
9.75032e+06
212.868
615277
9.69967e+06
235.694
680659
9.64236e+06
259.448
748492
9.57877e+06
293.851
817221
9.50932e+06
343.754
885730
9.43578e+06
391.901
951782
9.36112e+06
465.525
1.01279e+06
9.29159e+06
381.174
1.06615e+06
9.23608e+06
574.764
1.1106e+06
9.20898e+06
15.8756
1.15372e+06
9.2117e+06
1606.68
1.21525e+06
9.2414e+06
6019.14
1.32615e+06
9.21641e+06
15794.7
1.60206e+06
9.06019e+06
17253.4
1.9898e+06
8.79888e+06
6218.22
2.3624e+06
8.5056e+06
-853.162
2.64694e+06
8.20964e+06
-333.68
2.85054e+06
7.90699e+06
2776.38
3.00995e+06
7.56589e+06
2806.39
3.12595e+06
7.15724e+06
1813.45
3.17636e+06
6.66124e+06
901.565
3.13283e+06
6.15598e+06
-5857.64
3.00328e+06
5.93357e+06
-386.207
2.83627e+06
5.99412e+06
10060.4
2.67567e+06
6.08731e+06
4363.23
2.41945e+06
6.08272e+06
-29566.3
2.00308e+06
6.00189e+06
-91089.8
1.44622e+06
5.9354e+06
-157851
828851
5.93667e+06
-208987
253831
5.99855e+06
-237185
-221609
6.08876e+06
-244471
-585046
6.18815e+06
-243101
-841278
6.27823e+06
-235024
-1.00632e+06
6.36083e+06
-230834
-1.10024e+06
6.43697e+06
-230525
-1.14284e+06
6.49828e+06
-234694
-1.15329e+06
6.5218e+06
-238402
-1.14201e+06
6.5144e+06
-242028
-1.10808e+06
6.51376e+06
-246651
-1.05059e+06
6.56975e+06
-253743
-987498
6.68837e+06
-227845
-894184
-196361
-847990
9.99954e+06
20763.4
9.99699e+06
61132.4
9.99193e+06
102602
9.98417e+06
145021
9.97353e+06
188435
9.95976e+06
233772
9.94239e+06
280748
9.92151e+06
329674
9.89688e+06
381029
9.86774e+06
435320
9.83372e+06
492335
9.79475e+06
552218
9.75004e+06
615246
9.69942e+06
680630
9.64216e+06
748465
9.57863e+06
817191
9.50922e+06
885704
9.43567e+06
951771
9.36099e+06
1.01284e+06
9.2912e+06
1.06626e+06
9.23578e+06
1.11175e+06
9.2069e+06
1.1538e+06
9.21344e+06
1.21391e+06
9.24799e+06
1.33106e+06
9.23183e+06
1.61421e+06
9.0853e+06
2.02576e+06
8.84557e+06
2.40196e+06
8.56671e+06
2.68057e+06
8.26097e+06
2.88087e+06
7.92469e+06
3.03153e+06
7.55626e+06
3.13013e+06
7.14332e+06
3.16548e+06
6.69579e+06
3.13892e+06
6.25084e+06
3.0487e+06
5.94362e+06
2.9022e+06
5.85441e+06
2.68865e+06
5.92184e+06
2.38055e+06
6.04465e+06
1.98018e+06
6.15779e+06
1.51241e+06
6.25582e+06
1.01232e+06
6.34637e+06
537672
6.42252e+06
129406
6.47077e+06
-210165
6.49376e+06
-488097
6.49632e+06
-699074
6.48106e+06
-839102
6.46436e+06
-928735
6.46271e+06
-1.00522e+06
6.47609e+06
-1.09832e+06
6.53727e+06
-1.21223e+06
6.71533e+06
-1.34833e+06
7.06227e+06
-1.5205e+06
7.64301e+06
-1.67159e+06
-2.09242e+06
9.99947e+06
117.185
21853.3
9.99757e+06
143.625
64408.8
9.9934e+06
211.42
108129
9.98688e+06
226.14
152902
9.9776e+06
240.413
199021
9.96588e+06
247.752
246671
9.95089e+06
228.739
296803
9.93255e+06
192.257
349000
9.91033e+06
159.673
404205
9.88424e+06
144.132
462374
9.85356e+06
147.528
524010
9.81748e+06
162.135
589307
9.7756e+06
181.274
658152
9.72677e+06
200.531
730509
9.6707e+06
225.854
805708
9.60674e+06
266.511
882588
9.53479e+06
327.398
959494
9.45605e+06
418.145
1.03284e+06
9.37382e+06
502.78
1.09765e+06
9.29657e+06
667.711
1.14604e+06
9.24041e+06
980.371
1.16855e+06
9.22905e+06
2900.14
1.16541e+06
9.30388e+06
6045.99
1.13521e+06
9.49812e+06
11556.1
1.12454e+06
9.56437e+06
23428.8