/*--------------------------------*- C++ -*----------------------------------*\
| =========                 |                                                 |
| \\      /  F ield         | OpenFOAM: The Open Source CFD Toolbox           |
|  \\    /   O peration     | Version:  4.1                                   |
|   \\  /    A nd           | Web:      www.OpenFOAM.org                      |
|    \\/     M anipulation  |                                                 |
\*---------------------------------------------------------------------------*/
FoamFile
{
    version     2.0;
    format      ascii;
    class       volVectorField;
    location    "59";
    object      U;
}
// * * * * * * * * * * * * * * * * * * * * * * * * * * * * * * * * * * * * * //

dimensions      [0 1 -1 0 0 0 0];

internalField   nonuniform List<vector> 
4432
(
(39.9817 0.000203415 0.05055)
(39.9187 0.000547585 0.090417)
(39.8262 0.00117667 0.119453)
(39.6973 0.00135529 0.147656)
(39.5271 0.00121531 0.176975)
(39.3178 0.00114051 0.207613)
(39.0713 0.00122621 0.239907)
(38.7864 0.00138626 0.273444)
(38.4594 0.00154173 0.308329)
(38.0883 0.00162649 0.344063)
(37.6735 0.00165195 0.378778)
(37.2183 0.00169562 0.412839)
(36.7281 0.00152613 0.439811)
(36.2216 0.00145834 0.45943)
(35.7 -0.00169927 0.453103)
(35.2802 -0.00634076 0.399532)
(34.9161 -0.00503471 0.442218)
(34.7753 -0.00187076 0.350987)
(34.8393 -0.000502257 0.252925)
(34.7975 0.00267163 0.385738)
(34.5487 -0.00157548 0.486602)
(34.1856 -0.0122169 0.614806)
(33.7202 -0.0233289 0.693178)
(33.1914 -0.0325882 0.683391)
(32.6043 -0.0395123 0.662365)
(31.9873 -0.0448685 0.530982)
(31.4301 -0.0403947 0.322054)
(30.964 -0.0253185 0.100643)
(30.6294 -0.0149639 0.00401185)
(30.4175 -0.0166414 0.000768912)
(30.2817 -0.0290292 0.110617)
(30.1365 -0.0446692 0.339838)
(29.8879 -0.0497923 0.413313)
(29.6477 -0.0245087 0.0172574)
(29.6007 0.0166767 -0.76912)
(29.6868 0.0429995 -1.17247)
(29.8708 0.0449262 -1.08912)
(29.878 0.0068854 -0.976611)
(29.6957 0.0194139 -0.814353)
(29.5701 0.0640677 -0.625895)
(29.5388 0.0629394 -0.546872)
(29.4827 0.0339536 -0.574282)
(29.3049 -0.0060148 -0.50413)
(28.9702 -0.0163379 -0.421865)
(28.6577 0.00695942 -0.37575)
(28.3594 0.0585702 -0.384844)
(28.1775 0.0412546 -0.316472)
(28.3353 -0.0753965 -0.401693)
(28.2454 -0.0708145 -0.475203)
(28.0914 -0.014181 -0.559588)
(28.408 0.0695268 -0.400535)
(29.4925 0.0771839 -0.903332)
(30.2492 0.0236845 -1.41201)
(30.8493 0.266774 -0.23286)
(39.982 0.000203414 0.0505546)
(39.9191 0.000547575 0.0904565)
(39.8262 0.0011766 0.119579)
(39.6965 0.00135582 0.147733)
(39.526 0.00121604 0.176946)
(39.3169 0.00114077 0.207609)
(39.0706 0.00122601 0.239867)
(38.7856 0.00138566 0.273429)
(38.4584 0.00154131 0.308425)
(38.0872 0.00162622 0.344099)
(37.6722 0.0016528 0.379045)
(37.2169 0.00169751 0.41283)
(36.7273 0.0015286 0.440728)
(36.2153 0.00145999 0.45939)
(35.6972 -0.0016856 0.459145)
(35.2281 -0.00639349 0.408601)
(34.8565 -0.00510169 0.391565)
(34.7589 -0.00190564 0.305835)
(34.8313 -0.000494501 0.24428)
(34.8207 0.00259031 0.397935)
(34.5745 -0.00167842 0.4746)
(34.2068 -0.0122838 0.533713)
(33.7495 -0.0234709 0.57633)
(33.2134 -0.0330772 0.567997)
(32.6038 -0.0403879 0.552809)
(31.9475 -0.0466719 0.411474)
(31.3327 -0.0439286 0.217461)
(30.827 -0.0296186 0.0767098)
(30.442 -0.0197494 -0.0200632)
(30.1608 -0.0235918 -0.140024)
(30.0313 -0.0380961 -0.284963)
(29.9753 -0.0582312 -0.325064)
(29.899 -0.0646863 -0.189531)
(29.7517 -0.0393099 -0.0703266)
(29.7265 0.00669767 -0.353075)
(29.7505 0.0393667 -0.64284)
(29.8897 0.0455082 -0.591141)
(29.8605 0.00290776 -0.566888)
(29.7791 0.00301164 -0.495738)
(29.6607 0.0580141 -0.403539)
(29.5782 0.0764185 -0.330818)
(29.4714 0.0563716 -0.292417)
(29.2627 0.0133527 -0.201997)
(28.9565 -0.000101889 -0.141874)
(28.6563 0.0247529 -0.132779)
(28.2734 0.076329 -0.21855)
(27.9073 0.0673868 -0.0958672)
(27.9869 -0.063417 0.0205293)
(28.0274 -0.053939 -0.0269344)
(28.0045 0.0273863 -0.152644)
(28.4346 0.0804122 -0.310227)
(29.3261 0.0747876 -0.755519)
(30.1215 0.00994396 -1.20227)
(31.1837 0.25771 -0.0952911)
(40.008 0.000207706 0.0183651)
(40.0356 0.000541105 0.0562928)
(40.07 0.00118664 0.0961154)
(40.1028 0.00137758 0.136213)
(40.1291 0.00124778 0.176623)
(40.1515 0.00119161 0.217966)
(40.1729 0.00133293 0.260719)
(40.1927 0.0015957 0.305221)
(40.2084 0.00186906 0.3517)
(40.2177 0.00206801 0.400021)
(40.2189 0.00215379 0.44948)
(40.2086 0.00204941 0.497935)
(40.1834 0.002043 0.542614)
(40.1276 0.00178805 0.572969)
(40.0354 0.00424103 0.596134)
(39.7906 0.0057964 0.568783)
(39.4656 0.00842189 0.456718)
(38.783 0.00811768 0.38041)
(37.8189 -0.000378763 0.411661)
(36.9924 -0.00255306 0.461774)
(36.2874 9.46881e-05 0.529603)
(35.6689 0.00323647 0.615757)
(35.1336 0.00622733 0.701074)
(34.6205 0.00896972 0.791055)
(34.1284 0.0103235 0.854139)
(33.6478 0.011593 0.85001)
(33.1661 0.0137607 0.790961)
(32.6605 0.0205762 0.714216)
(32.096 0.0341461 0.60917)
(31.5537 0.0422987 0.462594)
(31.0575 0.0476924 0.328074)
(30.5776 0.0513668 0.299213)
(30.2006 0.0502184 0.270937)
(29.9919 0.0417275 0.167623)
(29.9557 0.0238483 0.126345)
(29.9635 -0.00898941 0.290194)
(29.9776 -0.0562088 0.533857)
(29.7994 -0.0930929 0.676532)
(29.5831 -0.0915189 0.680017)
(29.3225 -0.0819872 0.51341)
(29.0629 -0.095993 0.315941)
(28.926 -0.135341 0.368497)
(28.7258 -0.166507 0.485013)
(28.4779 -0.184089 0.568935)
(28.2897 -0.194068 0.60586)
(28.1566 -0.185506 0.518332)
(28.0578 -0.18206 0.558526)
(28.0961 -0.160873 0.323238)
(27.6463 -0.139723 0.223059)
(27.7544 -0.210099 0.0295027)
(27.7308 -0.158865 -0.14985)
(26.8082 -0.016134 -0.6279)
(28.8655 0.159663 -1.00125)
(30.4774 0.151256 -2.71587)
(40.0083 0.000207702 0.0183633)
(40.0361 0.00054112 0.0563025)
(40.0701 0.00118668 0.0961103)
(40.1021 0.00137766 0.136179)
(40.1281 0.0012479 0.17659)
(40.1508 0.00119185 0.217978)
(40.1725 0.00133304 0.26083)
(40.1926 0.00159673 0.30545)
(40.2084 0.00186803 0.352054)
(40.2175 0.00206961 0.400402)
(40.2184 0.00214958 0.44974)
(40.2079 0.00205373 0.49821)
(40.182 0.00202525 0.542157)
(40.1298 0.00185546 0.575448)
(40.0351 0.00395284 0.587307)
(39.8459 0.00561257 0.557795)
(39.5182 0.00893908 0.47436)
(38.8215 0.00825462 0.367114)
(37.8322 -0.000408759 0.396442)
(36.9848 -0.00240082 0.453825)
(36.2998 0.000192416 0.509621)
(35.6859 0.0033751 0.584805)
(35.1501 0.00650415 0.655385)
(34.6434 0.0096085 0.729346)
(34.1593 0.0113534 0.785434)
(33.6969 0.0135697 0.780459)
(33.2248 0.0175104 0.754942)
(32.723 0.023932 0.718293)
(32.2191 0.0345496 0.621274)
(31.7578 0.0470459 0.455109)
(31.298 0.062017 0.302158)
(30.7786 0.0786852 0.238888)
(30.3205 0.0745848 0.176505)
(30.0784 0.0587297 0.0945508)
(30.0555 0.0301476 0.0348781)
(30.0862 -0.00958653 0.142962)
(30.1593 -0.0615037 0.299194)
(30.0863 -0.100832 0.422405)
(29.9157 -0.100333 0.445953)
(29.743 -0.0797364 0.379437)
(29.6374 -0.092519 0.287046)
(29.6195 -0.127918 0.370224)
(29.5444 -0.167381 0.488814)
(29.3827 -0.184423 0.548854)
(29.2652 -0.195836 0.540909)
(29.1861 -0.185422 0.406065)
(29.1218 -0.179733 0.440706)
(29.098 -0.162007 0.442071)
(29.0767 -0.178358 0.222112)
(28.7855 -0.203598 -0.151719)
(28.4606 -0.091603 -0.442478)
(28.1148 0.00322357 -0.844636)
(30.0695 0.126404 -0.897615)
(31.5486 0.119454 -2.38888)
(39.9996 0.000205696 0.0256469)
(39.9905 0.000534679 0.0729292)
(39.969 0.00116908 0.117795)
(39.93 0.00135384 0.160908)
(39.87 0.00123005 0.203778)
(39.792 0.00119558 0.247428)
(39.6994 0.00136483 0.292444)
(39.5921 0.00165021 0.339208)
(39.4687 0.00192783 0.387974)
(39.3281 0.00209788 0.438716)
(39.1704 0.00209779 0.491135)
(38.9963 0.00195678 0.544584)
(38.8045 0.00169087 0.598427)
(38.5957 0.0016578 0.651942)
(38.3531 0.00132818 0.708213)
(38.1214 0.00252362 0.779363)
(37.7716 0.00218877 0.83233)
(37.4608 0.00422313 0.940644)
(37.1058 0.00287684 1.11156)
(36.6916 0.00217262 1.22157)
(36.2261 0.0030332 1.26634)
(35.7387 0.0048182 1.28039)
(35.2607 0.00734371 1.30257)
(34.7788 0.0114325 1.33485)
(34.293 0.0136526 1.36095)
(33.7964 0.017083 1.33288)
(33.2574 0.0242806 1.25151)
(32.6557 0.0351059 1.17006)
(31.9782 0.0446692 1.01797)
(31.2631 0.0424625 0.866233)
(30.4327 0.0414739 0.85609)
(29.5209 0.0587715 0.904894)
(28.7354 0.106829 0.804111)
(28.0339 0.187605 0.455579)
(27.6244 0.24293 -0.294885)
(27.9288 0.0812938 -0.321152)
(27.9231 -0.0995932 0.104747)
(27.6935 -0.186626 0.381903)
(27.2232 -0.195328 0.529797)
(26.9097 -0.0757267 0.176886)
(26.838 -0.0585079 0.0182575)
(26.8786 -0.139081 0.350773)
(26.7391 -0.191623 0.559166)
(26.4505 -0.215229 0.635332)
(26.1724 -0.222243 0.628616)
(25.9573 -0.200979 0.569364)
(25.8262 -0.198115 0.454884)
(25.7868 -0.143378 0.238399)
(25.7799 -0.170392 0.0945781)
(25.9444 -0.15049 -0.398657)
(26.2058 -0.0698428 -0.484429)
(26.5784 -0.011222 -0.643557)
(26.0878 0.157204 -2.25766)
(24.7949 0.238931 -4.28822)
(39.9999 0.000205693 0.0256415)
(39.991 0.000534695 0.0729076)
(39.9691 0.00116911 0.11775)
(39.9292 0.00135391 0.160852)
(39.869 0.00123017 0.203725)
(39.7913 0.00119577 0.24739)
(39.699 0.00136514 0.292423)
(39.5918 0.00165056 0.339199)
(39.4682 0.00192845 0.387968)
(39.3274 0.00209846 0.438689)
(39.1694 0.00209783 0.491054)
(38.995 0.00195712 0.544474)
(38.8036 0.00169072 0.598116)
(38.5937 0.00165666 0.651555)
(38.3578 0.00133722 0.706001)
(38.0975 0.0024506 0.772692)
(37.7833 0.00202935 0.848077)
(37.457 0.00443623 0.947001)
(37.1003 0.00298096 1.10613)
(36.6943 0.00224458 1.20829)
(36.2365 0.00314372 1.24752)
(35.7561 0.00500955 1.25386)
(35.2851 0.00774543 1.26595)
(34.8026 0.0124885 1.31058)
(34.3082 0.0152228 1.34378)
(33.8074 0.0191619 1.32217)
(33.2651 0.0272634 1.27248)
(32.6794 0.0390222 1.21754)
(32.0629 0.0496672 1.10623)
(31.3962 0.0536734 0.935598)
(30.5454 0.0520316 0.911809)
(29.6559 0.0660669 0.964991)
(28.9209 0.121606 0.823288)
(28.4963 0.187846 0.422725)
(28.4075 0.189376 -0.0127287)
(28.5608 0.0909724 -0.18523)
(28.6766 -0.030123 -0.151454)
(28.5271 -0.126212 -0.110398)
(28.2466 -0.140329 -0.156545)
(28.0535 -0.0644883 -0.329008)
(27.803 -0.042596 -0.345324)
(27.7327 -0.090465 -0.131393)
(27.5279 -0.122651 -0.0123315)
(27.1799 -0.138366 0.0114492)
(26.8642 -0.158499 0.0348476)
(26.6498 -0.144683 -0.0235653)
(26.4943 -0.142506 -0.144808)
(26.3278 -0.0890851 -0.222023)
(26.2842 -0.117194 -0.530667)
(26.1807 -0.110066 -0.827384)
(26.4618 -0.0558243 -0.716916)
(26.8004 0.020136 -0.811659)
(27.3264 -0.128099 -0.0544214)
(25.1368 0.297164 -3.965)
(39.9993 0.000202564 0.0325409)
(39.9892 0.00051992 0.0950025)
(39.9677 0.00114152 0.158479)
(39.9298 0.00131903 0.223046)
(39.8711 0.00118839 0.289273)
(39.7931 0.00114324 0.357451)
(39.6985 0.00129856 0.427692)
(39.5865 0.00157146 0.500042)
(39.4545 0.00184171 0.574522)
(39.3004 0.00201359 0.651062)
(39.1231 0.00202475 0.729558)
(38.9223 0.00189988 0.809995)
(38.697 0.00163138 0.892496)
(38.447 0.00152866 0.978437)
(38.1679 0.0011725 1.07041)
(37.869 0.00210547 1.17475)
(37.5302 0.00109662 1.30998)
(37.1436 0.0011805 1.3717)
(36.7822 0.00227903 1.44304)
(36.4307 0.00319334 1.53653)
(36.0604 0.00410932 1.62707)
(35.6614 0.00426469 1.68461)
(35.2181 0.00418677 1.73876)
(34.7123 0.00510567 1.8034)
(34.1702 0.00368359 1.87447)
(33.5867 0.00278864 1.89779)
(32.9053 0.00784216 1.88936)
(32.133 0.0158327 1.9099)
(31.2447 0.0158228 1.91482)
(30.1164 0.0178779 1.91974)
(28.8304 0.0261989 2.02592)
(27.6647 0.0446023 1.98621)
(26.6569 0.0853375 1.61658)
(25.8842 0.149162 0.63582)
(25.9968 0.14783 -0.688589)
(26.4738 -0.0695167 -0.298386)
(26.5557 -0.295341 0.524769)
(26.0136 -0.487882 1.05359)
(25.4054 -0.4341 1.15324)
(25.1868 -0.160543 0.423226)
(25.1922 -0.0760323 0.172882)
(25.306 -0.157473 0.70603)
(25.0595 -0.2211 1.07701)
(24.6638 -0.218862 1.12048)
(24.3072 -0.199147 1.09119)
(24.0673 -0.189236 0.996986)
(23.7644 -0.228391 0.797193)
(23.7106 -0.130745 0.593099)
(23.6638 -0.170751 0.538103)
(23.6456 -0.194206 0.0970881)
(24.2909 -0.135102 -0.701177)
(24.712 -0.103153 -1.04269)
(24.9449 -0.0219732 -1.20013)
(23.4732 0.619191 -1.55399)
(39.9996 0.00020256 0.032536)
(39.9896 0.000519935 0.0949813)
(39.9678 0.00114155 0.158439)
(39.9291 0.0013191 0.222994)
(39.8701 0.0011885 0.28921)
(39.7924 0.00114342 0.357373)
(39.6981 0.00129883 0.427593)
(39.5862 0.00157182 0.499923)
(39.4541 0.00184217 0.57439)
(39.2997 0.00201411 0.650931)
(39.1221 0.00202536 0.729449)
(38.921 0.00190063 0.809896)
(38.6958 0.00163169 0.892438)
(38.4454 0.00153133 0.978219)
(38.1684 0.00117457 1.07033)
(37.8653 0.00212335 1.17441)
(37.5399 0.00105987 1.30804)
(37.1435 0.00109248 1.40225)
(36.7829 0.00226518 1.44689)
(36.4344 0.00326921 1.52525)
(36.0655 0.00429213 1.60838)
(35.6667 0.00455948 1.65996)
(35.2079 0.00433546 1.71512)
(34.6922 0.00486377 1.81512)
(34.1608 0.00354899 1.88835)
(33.5678 0.00256407 1.92632)
(32.8611 0.00890703 1.98046)
(32.0748 0.018122 2.04599)
(31.2027 0.0181532 2.07427)
(30.0987 0.0199965 2.07282)
(28.8934 0.0266101 2.11605)
(27.8183 0.0428368 2.10134)
(26.8815 0.0813448 1.89891)
(26.114 0.163887 1.22691)
(26.164 0.182916 -0.0463671)
(26.6841 -0.058632 -0.362055)
(26.8801 -0.324952 -0.132544)
(26.6672 -0.62608 0.146188)
(26.1839 -0.774818 0.443266)
(25.8698 -0.59716 0.15937)
(25.851 -0.185533 -0.0796381)
(25.8699 -0.160182 0.193425)
(25.5582 -0.172481 0.372511)
(25.1352 -0.182029 0.394128)
(24.7489 -0.158283 0.482055)
(24.4178 -0.150729 0.405645)
(24.0806 -0.171762 0.292217)
(23.903 -0.102008 0.104171)
(23.9553 -0.10061 -0.0539476)
(24.079 -0.109446 -0.511651)
(24.3481 -0.098468 -0.983537)
(24.5623 -0.0226443 -1.21031)
(24.8643 -0.310939 -1.27363)
(25.0197 0.601643 -1.94236)
(39.9994 0.000200919 0.0402612)
(39.9893 0.000514948 0.118359)
(39.9683 0.00113049 0.198247)
(39.9311 0.00130109 0.27905)
(39.8736 0.00116552 0.361038)
(39.7975 0.00111535 0.444721)
(39.7053 0.00126466 0.530557)
(39.5964 0.00153174 0.618941)
(39.4684 0.00179881 0.710229)
(39.319 0.00197013 0.804759)
(39.1474 0.00198923 0.902863)
(38.953 0.00185213 1.00499)
(38.7358 0.00163069 1.11168)
(38.4946 0.0014065 1.22429)
(38.2308 0.00141325 1.34413)
(37.9364 0.00136991 1.4756)
(37.6353 0.00298143 1.61792)
(37.2358 0.00375782 1.75285)
(36.8279 0.00309777 1.82143)
(36.3965 0.00430096 1.89679)
(35.9865 0.0061706 1.99605)
(35.5633 0.00511148 2.09156)
(35.0882 0.00251521 2.2381)
(34.5209 -0.000490085 2.37757)
(33.8946 -0.00797473 2.50435)
(33.1747 -0.0124741 2.60911)
(32.2887 -0.00582516 2.6943)
(31.3127 0.00383221 2.85632)
(30.2194 0.00373673 3.06076)
(28.9495 0.00512126 3.22803)
(27.6761 0.0167072 3.27109)
(26.5091 0.0442505 3.0313)
(25.4385 0.0943367 2.26367)
(24.6706 0.186881 0.576663)
(24.9469 0.275205 -1.36935)
(24.5615 -0.0661359 -0.877657)
(24.731 -0.58959 1.65037)
(24.28 -0.911717 2.81682)
(23.7813 -0.995729 2.92783)
(23.3572 -0.317933 1.09618)
(23.0419 -0.113239 0.35044)
(23.2815 -0.302337 0.997116)
(23.0238 -0.413028 1.33442)
(22.6153 -0.403517 1.2716)
(22.2663 -0.352763 1.18583)
(21.9433 -0.289868 1.10387)
(21.6614 -0.245543 0.9507)
(21.9054 -0.154988 0.595061)
(20.5135 -0.247802 1.05961)
(21.384 -0.272251 0.342559)
(21.4829 -0.20755 -0.434423)
(21.2421 0.187393 -1.13332)
(22.4928 -0.155328 -1.53506)
(20.5707 0.176724 -0.946521)
(39.9996 0.000200915 0.040255)
(39.9898 0.000514963 0.118333)
(39.9683 0.00113052 0.198199)
(39.9304 0.00130116 0.278998)
(39.8726 0.00116563 0.360991)
(39.7967 0.00111553 0.444669)
(39.7049 0.00126493 0.530485)
(39.5961 0.00153211 0.618837)
(39.468 0.00179926 0.710091)
(39.3183 0.00197072 0.804589)
(39.1464 0.00198958 0.902681)
(38.9518 0.00185406 1.00479)
(38.7344 0.00163505 1.11153)
(38.4936 0.00141193 1.22405)
(38.2294 0.00142705 1.34419)
(37.9389 0.001357 1.47536)
(37.6273 0.00305372 1.61954)
(37.2714 0.00387709 1.76633)
(36.8599 0.00301277 1.82608)
(36.416 0.00442878 1.8908)
(35.993 0.00687508 1.99023)
(35.5538 0.0065675 2.09465)
(35.0275 0.00248907 2.23529)
(34.463 -0.000967299 2.37308)
(33.8545 -0.0082455 2.49888)
(33.0882 -0.0130726 2.63116)
(32.2095 -0.0048372 2.77954)
(31.2876 0.00521006 2.96974)
(30.2471 0.00451456 3.14235)
(29.0459 0.00472755 3.27503)
(27.8278 0.0150071 3.30054)
(26.7143 0.041193 3.12523)
(25.7869 0.0845859 2.56582)
(25.225 0.183898 1.26132)
(25.6089 0.382742 -0.630928)
(26.1672 0.0946203 -1.25352)
(26.8973 -0.259816 -1.18908)
(26.9392 -0.379169 -0.811791)
(26.3366 -0.555873 -0.394407)
(25.7242 -0.387159 -0.29396)
(24.8982 -0.114302 -0.111367)
(24.8243 -0.191713 0.140513)
(24.4829 -0.251868 0.225816)
(24.0081 -0.25229 0.167284)
(23.5827 -0.220734 0.132528)
(23.1588 -0.167883 0.100076)
(22.785 -0.103878 0.0679284)
(22.6361 -0.0809063 -0.0365536)
(22.4631 -0.155576 -0.0193192)
(22.5592 -0.217133 -0.648179)
(21.867 0.0467085 -0.947543)
(21.9411 0.189354 -1.21479)
(22.8329 -0.0831984 -1.24621)
(22.1596 0.322158 -1.86481)
(39.9994 0.000196564 0.0479269)
(39.9896 0.000495514 0.140967)
(39.969 0.00109557 0.236277)
(39.9331 0.00126667 0.332966)
(39.8776 0.00113908 0.431509)
(39.8042 0.00108945 0.532601)
(39.7155 0.00122626 0.636786)
(39.6105 0.00147022 0.744475)
(39.4867 0.00170843 0.856032)
(39.3421 0.00185087 0.971837)
(39.1758 0.00184905 1.09229)
(38.9875 0.00169843 1.21787)
(38.7774 0.00148567 1.34919)
(38.5452 0.00125029 1.48703)
(38.292 0.00133546 1.63257)
(38.0151 0.00131414 1.78776)
(37.7258 0.00274249 1.95289)
(37.4002 0.00268396 2.1458)
(37.058 0.00335765 2.27187)
(36.6102 0.00555855 2.36587)
(36.1232 0.00764965 2.45066)
(35.5572 0.00379372 2.5733)
(34.993 -0.00235867 2.76895)
(34.4275 -0.00744737 3.0039)
(33.7628 -0.0176905 3.2561)
(32.9358 -0.0200644 3.52075)
(31.8537 -0.00784905 3.72205)
(30.7017 0.00938787 3.95135)
(29.5504 0.0139559 4.24206)
(28.3142 0.015264 4.45908)
(27.0497 0.0303289 4.46373)
(25.7759 0.0743246 4.1256)
(24.3145 0.170901 3.1985)
(22.9634 0.458455 1.23279)
(22.3285 0.932017 -0.461074)
(9.51707 0.0754662 2.13932)
(12.9179 -0.680393 1.45487)
(13.9636 -1.21771 1.39701)
(14.8693 -1.90192 2.91948)
(16.4404 -0.577004 -0.454615)
(18.0382 -0.23974 0.00902312)
(18.1726 -0.940226 2.37574)
(18.2067 -0.884247 2.46059)
(18.3715 -0.759837 2.11692)
(18.4693 -0.645351 1.8173)
(18.2918 -0.564508 1.634)
(18.1756 -0.389657 1.50609)
(18.1234 -0.323122 1.40497)
(18.1847 -0.219218 1.20973)
(18.1444 -0.0991323 0.780955)
(17.5432 0.0795549 0.425999)
(17.0432 0.310351 0.162105)
(18.1602 0.278137 -0.115776)
(16.0512 -0.166228 -1.12349)
(39.9997 0.000196559 0.0479197)
(39.99 0.000495535 0.140939)
(39.9691 0.00109557 0.236227)
(39.9324 0.00126686 0.332917)
(39.8766 0.00113861 0.43147)
(39.8035 0.00108785 0.532559)
(39.715 0.00122444 0.636719)
(39.6101 0.00146843 0.744365)
(39.4863 0.00170673 0.855875)
(39.3414 0.00184934 0.971638)
(39.1748 0.00184736 1.09207)
(38.9863 0.00169798 1.21765)
(38.776 0.001489 1.349)
(38.5442 0.00125823 1.48687)
(38.2909 0.00133911 1.63257)
(38.0164 0.00134502 1.78746)
(37.7226 0.00264057 1.95407)
(37.4122 0.00301563 2.13344)
(37.0688 0.00226682 2.28956)
(36.6403 0.00587909 2.40862)
(36.1449 0.00861512 2.50731)
(35.5907 0.00515013 2.64964)
(34.9875 -0.00250076 2.80548)
(34.3782 -0.00771181 3.00249)
(33.6837 -0.0184763 3.23697)
(32.8131 -0.0199867 3.50148)
(31.7982 -0.00722302 3.73018)
(30.7658 0.00842758 4.00275)
(29.6655 0.0120024 4.26167)
(28.4555 0.0132273 4.45172)
(27.2455 0.0281489 4.46587)
(26.1059 0.0691676 4.21693)
(25.0356 0.15846 3.50645)
(24.237 0.558288 1.98815)
(24.785 1.87398 -0.136286)
(26.0578 3.30165 -2.10051)
(27.3016 3.1264 -2.14693)
(27.0723 2.84953 -1.63199)
(26.0638 2.63461 -1.07628)
(25.7294 2.31994 -0.652641)
(23.1265 0.828445 0.177865)
(22.8575 0.437192 0.604366)
(22.3618 0.474979 0.521196)
(22.0019 0.551759 0.293407)
(21.6761 0.618623 0.105466)
(21.2964 0.650664 0.00441531)
(20.9809 0.779315 -0.0129979)
(20.7492 0.827959 0.133972)
(20.6062 0.843951 0.269862)
(20.3017 0.91024 0.234837)
(20.1709 0.965234 -0.0515637)
(19.652 1.11761 -0.637355)
(20.9911 1.09043 -0.115877)
(18.0697 0.937575 -1.25067)
(39.9994 0.000193958 0.0553228)
(39.99 0.000488898 0.1628)
(39.9704 0.00108264 0.273062)
(39.9362 0.00125139 0.385189)
(39.8832 0.00112448 0.49966)
(39.813 0.00107081 0.617155)
(39.728 0.00119586 0.738242)
(39.6271 0.00142286 0.863416)
(39.508 0.00164349 0.993182)
(39.3686 0.00177363 1.12807)
(39.2079 0.00176706 1.26865)
(39.0259 0.0016277 1.41545)
(38.8229 0.00142021 1.56905)
(38.5989 0.00124884 1.72988)
(38.3545 0.001252 1.8986)
(38.0905 0.00145849 2.07553)
(37.8077 0.00188519 2.26125)
(37.5101 0.0029516 2.45879)
(37.1896 0.00288465 2.64385)
(36.8224 0.00187507 2.83399)
(36.3956 0.000743694 3.0114)
(35.8701 -0.0020609 3.2281)
(35.2232 -0.00609989 3.40444)
(34.5644 -0.0161627 3.65682)
(33.8938 -0.0289861 4.06736)
(33.0581 -0.0336844 4.56883)
(31.9253 -0.00777074 4.95621)
(30.6255 0.0246362 5.15524)
(29.3529 0.030257 5.40484)
(28.0518 0.0272909 5.6658)
(26.746 0.045827 5.76912)
(25.3635 0.0990417 5.56015)
(23.4839 0.246695 5.02822)
(22.0507 0.74352 4.10996)
(7.37303 0.520749 0.0713614)
(6.68271 0.0254373 2.1404)
(6.87991 -0.399722 4.37025)
(6.18107 0.499979 2.47186)
(7.02214 0.360036 2.54538)
(0.845694 -1.67429 -1.13686)
(8.623 -1.39409 -0.578755)
(8.69749 -0.865197 0.141579)
(8.04167 -0.214078 0.86074)
(8.27575 0.0692058 1.10462)
(8.66802 0.172441 1.17395)
(8.27736 0.244578 1.14587)
(7.65793 0.466649 1.07502)
(7.48869 0.612655 0.441834)
(7.72988 0.560699 0.0465153)
(7.92189 0.318599 -0.539291)
(8.23673 0.0897768 -1.0529)
(9.26032 0.0140919 -1.67825)
(12.2134 0.0647361 -2.75551)
(14.373 -1.04943 -4.64741)
(39.9997 0.000193953 0.0553142)
(39.9904 0.00048892 0.162764)
(39.9705 0.00108264 0.272996)
(39.9355 0.00125158 0.385119)
(39.8822 0.00112401 0.499599)
(39.8123 0.00106918 0.61709)
(39.7275 0.00119396 0.738156)
(39.6268 0.00142092 0.863298)
(39.5075 0.00164166 0.993034)
(39.3678 0.00177154 1.12791)
(39.2069 0.00176637 1.26848)
(39.0247 0.00162922 1.41531)
(38.8216 0.00142214 1.56894)
(38.5978 0.00125324 1.72983)
(38.3538 0.00125939 1.89852)
(38.0903 0.00147561 2.07529)
(37.8081 0.00188492 2.26092)
(37.5099 0.00299361 2.45467)
(37.1906 0.00290874 2.65118)
(36.8342 0.00221338 2.85282)
(36.4035 0.00170635 3.05469)
(35.933 -0.00155543 3.25801)
(35.2851 -0.00581138 3.46877)
(34.555 -0.01577 3.70782)
(33.821 -0.0299938 4.02671)
(32.9159 -0.0340178 4.48422)
(31.7894 -0.00549906 4.8112)
(30.6774 0.0210692 5.1493)
(29.5087 0.0271621 5.47674)
(28.2497 0.0239665 5.69635)
(26.9956 0.0435825 5.72469)
(25.8036 0.0938492 5.53451)
(24.5687 0.266896 5.04546)
(23.4163 1.17369 4.27424)
(24.7835 3.3975 3.6386)
(7.54368 0.0307473 2.15996)
(9.69056 0.246458 0.463354)
(9.11888 1.1305 0.290436)
(7.12519 1.38179 0.788141)
(7.1427 1.24188 1.0146)
(8.58807 0.472143 1.06861)
(9.32891 0.634401 0.85679)
(9.06063 1.08115 1.00045)
(9.0162 1.30937 1.0932)
(9.28318 1.38985 1.07752)
(9.5534 1.42031 0.848469)
(10.1296 1.60753 0.398234)
(10.7335 1.92494 0.198044)
(10.6902 2.05855 0.533156)
(10.5538 2.04828 0.842384)
(10.7956 2.08855 0.813567)
(10.8789 2.21343 0.363254)
(12.5136 2.66502 -0.0951351)
(10.9717 1.70075 -0.995302)
(39.9995 0.000188319 0.0623474)
(39.9905 0.000460992 0.183582)
(39.9722 0.00103195 0.308023)
(39.9401 0.00119684 0.434732)
(39.8901 0.00107518 0.564255)
(39.8237 0.00102074 0.697373)
(39.7431 0.00113635 0.834794)
(39.6474 0.00135024 0.977171)
(39.534 0.00155982 1.12516)
(39.401 0.00168482 1.27939)
(39.2473 0.00168277 1.44045)
(39.0728 0.00155722 1.60879)
(38.8776 0.00136012 1.78473)
(38.6618 0.00119821 1.96828)
(38.4255 0.00115133 2.15919)
(38.1696 0.00134202 2.35692)
(37.8942 0.00162337 2.56062)
(37.6017 0.0021809 2.77027)
(37.2898 0.00177872 2.98182)
(36.9523 0.000113874 3.20195)
(36.577 -0.00244925 3.44095)
(36.1602 -0.00330071 3.73408)
(35.6899 -5.3532e-05 4.05279)
(35.021 -0.012544 4.39181)
(34.2821 -0.0312388 4.90413)
(33.5607 -0.0416009 5.58526)
(32.6355 -0.0144654 6.14983)
(31.3904 0.0395956 6.49447)
(29.8749 0.0657372 6.75151)
(28.2548 0.0499382 6.95253)
(26.9034 0.0450342 6.94323)
(25.7113 0.0625777 6.8009)
(24.3888 0.126084 6.85732)
(23.5168 0.545065 8.02)
(21.0416 1.13704 10.8193)
(4.79684 0.0405139 2.20524)
(4.24362 0.54328 -0.69274)
(-1.6088 -0.00558859 -2.54181)
(-0.252594 -1.32152 0.245313)
(-0.336414 -2.74241 -2.03371)
(-4.06469 -2.5431 -2.1489)
(-0.177054 -2.59344 -0.820042)
(1.30069 -1.8859 -1.36878)
(2.42335 -1.23963 -1.61902)
(4.14753 -1.09789 -2.14289)
(5.91198 -1.44151 -2.86778)
(7.96216 -1.67866 -3.46755)
(10.5217 -1.54965 -3.98115)
(12.9736 -1.33656 -4.31124)
(14.8632 -1.2998 -4.39806)
(16.1673 -1.41976 -4.4086)
(17.3218 -1.47129 -4.459)
(19.39 -1.39543 -4.68324)
(20.1842 -1.39255 -5.38447)
(39.9998 0.000188316 0.0623385)
(39.991 0.000461005 0.183544)
(39.9723 0.00103197 0.307954)
(39.9394 0.00119689 0.434657)
(39.8891 0.00107529 0.564189)
(39.823 0.00102082 0.697305)
(39.7426 0.0011367 0.83471)
(39.647 0.00134959 0.977063)
(39.5336 0.00155753 1.12503)
(39.4003 0.00168183 1.27926)
(39.2463 0.00168106 1.44033)
(39.0717 0.00155778 1.60871)
(38.8764 0.00136153 1.78467)
(38.6607 0.00120035 1.96822)
(38.4248 0.00115427 2.15908)
(38.1692 0.00134674 2.35668)
(37.8942 0.00163694 2.56022)
(37.6008 0.0021808 2.76881)
(37.2867 0.00181523 2.98087)
(36.9482 0.000167668 3.20142)
(36.5742 -0.00228245 3.44683)
(36.1661 -0.00334174 3.7316)
(35.7124 0.000846451 4.11557)
(35.0996 -0.00969791 4.43835)
(34.274 -0.0360388 4.87936)
(33.4511 -0.0445651 5.45956)
(32.3407 -0.0205626 5.96338)
(31.0839 0.0283166 6.38389)
(29.9103 0.0535941 6.73694)
(28.6188 0.0368563 6.95417)
(27.2242 0.0383095 6.95017)
(25.9913 0.0601372 6.74729)
(24.8939 0.133581 6.59699)
(23.5338 0.676105 7.07921)
(24.7489 2.53603 9.62096)
(21.4818 2.71645 9.88917)
(18.8889 2.03563 7.14987)
(15.227 1.59148 4.19143)
(11.069 1.3297 2.45657)
(7.87859 0.345314 0.531523)
(-2.66629 0.522886 -0.520085)
(-3.57808 1.8761 1.0242)
(-3.54857 1.55808 0.281044)
(-2.07058 1.35121 -0.613299)
(-1.31881 1.38307 -0.470817)
(-0.210691 1.57606 0.692183)
(1.34996 2.01974 2.32344)
(1.12487 2.08224 3.63297)
(1.63088 1.85495 3.09731)
(2.72257 2.00337 2.21873)
(2.65025 1.73807 1.70215)
(3.19008 1.6325 1.13246)
(6.4631 1.7927 0.651391)
(6.41911 1.23637 0.0205051)
(39.9996 0.000185385 0.0689153)
(39.9912 0.000452764 0.203063)
(39.9744 0.00101547 0.34079)
(39.9448 0.00117649 0.481194)
(39.8984 0.0010551 0.624945)
(39.8365 0.000998009 0.77295)
(39.7612 0.0011061 0.926056)
(39.6716 0.00131087 1.08505)
(39.565 0.00151387 1.25068)
(39.4394 0.00163781 1.42367)
(39.2938 0.00164237 1.6046)
(39.1276 0.00152947 1.79382)
(38.9408 0.00134324 1.99139)
(38.7329 0.00116804 2.19692)
(38.5041 0.00110479 2.40953)
(38.2546 0.0012133 2.62797)
(37.9851 0.00140791 2.85065)
(37.6973 0.0016653 3.07681)
(37.3925 0.00162471 3.30587)
(37.0722 0.00120654 3.54424)
(36.7373 0.000444109 3.80549)
(36.3893 0.000981103 4.12492)
(36.0374 0.0018393 4.52327)
(35.6282 0.0207 5.05046)
(34.9207 0.0110822 5.71414)
(34.2806 -0.00924858 6.42571)
(33.583 -0.0133896 7.06593)
(32.6843 0.00279004 7.74767)
(31.4275 0.0586384 8.35367)
(29.8093 0.104282 8.63803)
(27.9253 0.102988 8.2716)
(26.0313 0.090794 7.79014)
(24.6675 0.0893779 7.76387)
(23.1674 0.211148 8.50041)
(24.6361 0.792596 12.8043)
(20.6537 0.515744 12.1485)
(16.2392 -0.0106094 7.98129)
(11.2177 -0.67442 3.75502)
(7.03754 -1.32788 0.671286)
(6.02898 -2.05602 -0.747074)
(7.12571 -2.72382 -1.73726)
(8.80701 -3.01797 -2.60872)
(10.3341 -2.77443 -3.04557)
(11.6479 -2.2681 -3.45147)
(13.199 -1.85741 -4.0809)
(14.9063 -1.68261 -4.77131)
(16.6849 -1.61942 -5.2293)
(18.4456 -1.55063 -5.40883)
(20.0252 -1.4278 -5.45535)
(21.1601 -1.37118 -5.43572)
(21.8574 -1.35197 -5.36519)
(22.2672 -1.27808 -5.17841)
(23.3121 -1.09553 -5.07892)
(23.0427 -1.03695 -5.00027)
(39.9998 0.000185382 0.0689061)
(39.9916 0.000452776 0.203021)
(39.9745 0.0010155 0.340714)
(39.9441 0.00117654 0.481111)
(39.8974 0.0010552 0.62487)
(39.8358 0.00099811 0.772875)
(39.7607 0.00110651 0.925966)
(39.6712 0.00131035 1.08493)
(39.5646 0.00151164 1.25055)
(39.4388 0.00163503 1.42354)
(39.2929 0.00163997 1.60447)
(39.1265 0.00152513 1.7937)
(38.9396 0.00133961 1.99128)
(38.7319 0.00116732 2.19678)
(38.5033 0.00110148 2.40935)
(38.254 0.00120829 2.62765)
(37.9847 0.00140973 2.85021)
(37.6966 0.0016677 3.07608)
(37.3911 0.00163632 3.3057)
(37.07 0.00121467 3.54492)
(36.7356 0.000496952 3.80951)
(36.3912 0.000737701 4.12267)
(36.0422 0.00290006 4.53693)
(35.688 0.0156539 5.02981)
(35.1629 0.010057 5.65103)
(34.3719 -0.0129862 6.35494)
(33.5523 -0.0283519 7.08718)
(32.2593 -0.00597574 7.69201)
(30.9083 0.0435178 8.10918)
(29.5991 0.0816001 8.37618)
(28.17 0.0928814 8.41191)
(26.6142 0.0703422 8.00699)
(25.069 0.0860514 7.67972)
(23.5257 0.10082 8.23861)
(23.5383 0.867866 10.5407)
(24.8915 1.48744 11.8377)
(24.9366 1.58863 10.7844)
(23.3191 1.41934 8.57366)
(20.5972 1.25677 6.40086)
(18.0077 0.746273 4.58106)
(13.9666 0.278217 2.8553)
(10.1601 0.0796559 1.33628)
(7.47548 0.140192 0.0379777)
(5.74582 0.687969 -0.792103)
(4.92389 1.22626 -1.44165)
(4.46173 0.988309 -2.07853)
(5.78696 0.933001 -2.03073)
(7.22015 0.866528 -1.25673)
(8.97617 0.788078 -1.11671)
(10.5076 0.681431 -1.27424)
(11.7871 0.41524 -1.23232)
(13.2327 0.194102 -1.02083)
(15.3605 0.199639 -0.891979)
(16.1519 -0.0564094 -1.41266)
(39.9997 0.000179488 0.0749454)
(39.992 0.00042095 0.221004)
(39.977 0.000958695 0.37098)
(39.9504 0.00111425 0.524058)
(39.9081 0.000997956 0.681044)
(39.8515 0.000941316 0.842986)
(39.7824 0.001042 1.01087)
(39.6999 0.0012348 1.18564)
(39.6013 0.0014257 1.36818)
(39.4843 0.00154192 1.55931)
(39.3478 0.00154093 1.75967)
(39.1909 0.00142355 1.96957)
(39.0131 0.00122801 2.18888)
(38.8136 0.0010322 2.41692)
(38.5917 0.000931302 2.65228)
(38.3474 0.000976275 2.89283)
(38.0817 0.00115931 3.13586)
(37.7973 0.00138979 3.37895)
(37.4995 0.00157295 3.62075)
(37.1959 0.00146389 3.86548)
(36.9035 0.00151192 4.12599)
(36.626 0.000241277 4.433)
(36.4045 5.83708e-05 4.84249)
(36.2061 0.0177064 5.41051)
(35.8709 0.0560467 6.25077)
(35.2637 0.0486813 7.1133)
(34.5592 0.0159425 7.8887)
(33.6311 -0.00823175 8.813)
(32.571 -0.00250176 9.64204)
(31.3923 0.0372642 10.296)
(29.9561 0.0689499 10.5354)
(28.0492 0.07917 10.2499)
(25.9486 0.114941 9.46584)
(23.804 0.0549846 9.09938)
(23.5567 0.242429 10.5484)
(24.4489 0.324026 11.6692)
(23.8491 0.0391519 10.564)