/*--------------------------------*- C++ -*----------------------------------*\
| =========                 |                                                 |
| \\      /  F ield         | OpenFOAM: The Open Source CFD Toolbox           |
|  \\    /   O peration     | Version:  4.1                                   |
|   \\  /    A nd           | Web:      www.OpenFOAM.org                      |
|    \\/     M anipulation  |                                                 |
\*---------------------------------------------------------------------------*/
FoamFile
{
    version     2.0;
    format      ascii;
    class       volScalarField;
    location    "80";
    object      p;
}
// * * * * * * * * * * * * * * * * * * * * * * * * * * * * * * * * * * * * * //

dimensions      [0 2 -2 0 0 0 0];

internalField   nonuniform List<scalar> 
4432
(
-4.01861e+10
-4.02523e+10
-4.0511e+10
-4.05173e+10
-4.05661e+10
-4.06685e+10
-4.07505e+10
-4.08262e+10
-4.08958e+10
-4.09622e+10
-4.10266e+10
-4.10874e+10
-4.11401e+10
-4.11801e+10
-4.12048e+10
-4.12115e+10
-4.11956e+10
-4.11543e+10
-4.10871e+10
-4.0995e+10
-4.08799e+10
-4.0746e+10
-4.05984e+10
-4.04437e+10
-4.02873e+10
-4.01342e+10
-3.99871e+10
-3.9848e+10
-3.97173e+10
-3.95959e+10
-3.94853e+10
-3.93883e+10
-3.93095e+10
-3.92524e+10
-3.92188e+10
-3.92054e+10
-3.92028e+10
-3.91971e+10
-3.91712e+10
-3.91103e+10
-3.90046e+10
-3.88523e+10
-3.86626e+10
-3.84768e+10
-3.84084e+10
-3.86263e+10
-3.91126e+10
-3.92145e+10
-3.77751e+10
-3.51988e+10
-3.64064e+10
-4.72068e+10
-5.78371e+10
-2.95212e+10
-4.03176e+10
-4.02924e+10
-4.04377e+10
-4.05419e+10
-4.05839e+10
-4.06702e+10
-4.0756e+10
-4.08292e+10
-4.08958e+10
-4.09617e+10
-4.10269e+10
-4.10883e+10
-4.11411e+10
-4.11813e+10
-4.12062e+10
-4.12123e+10
-4.11947e+10
-4.11514e+10
-4.10826e+10
-4.09889e+10
-4.08724e+10
-4.07372e+10
-4.05884e+10
-4.04327e+10
-4.02754e+10
-4.01218e+10
-3.99743e+10
-3.98351e+10
-3.97046e+10
-3.95835e+10
-3.94734e+10
-3.93769e+10
-3.92984e+10
-3.92415e+10
-3.9208e+10
-3.91949e+10
-3.9193e+10
-3.91884e+10
-3.91638e+10
-3.91042e+10
-3.90002e+10
-3.88508e+10
-3.86661e+10
-3.84886e+10
-3.84344e+10
-3.86761e+10
-3.91922e+10
-3.92754e+10
-3.75758e+10
-3.41637e+10
-3.40785e+10
-4.54931e+10
-6.07472e+10
-3.5989e+10
-4.04221e+10
-4.03903e+10
-4.04696e+10
-4.05964e+10
-4.06457e+10
-4.07103e+10
-4.08007e+10
-4.08793e+10
-4.09523e+10
-4.10253e+10
-4.10967e+10
-4.11667e+10
-4.12297e+10
-4.12777e+10
-4.13066e+10
-4.13145e+10
-4.12985e+10
-4.1255e+10
-4.1184e+10
-4.10853e+10
-4.09607e+10
-4.08142e+10
-4.06514e+10
-4.04799e+10
-4.03065e+10
-4.01373e+10
-3.99759e+10
-3.98249e+10
-3.96846e+10
-3.95558e+10
-3.94392e+10
-3.93372e+10
-3.92534e+10
-3.91911e+10
-3.91514e+10
-3.9131e+10
-3.91207e+10
-3.91064e+10
-3.90701e+10
-3.89963e+10
-3.88745e+10
-3.87014e+10
-3.84846e+10
-3.82652e+10
-3.8165e+10
-3.83643e+10
-3.88086e+10
-3.86675e+10
-3.65199e+10
-3.2882e+10
-3.36402e+10
-4.6094e+10
-5.95021e+10
-3.32979e+10
-4.04147e+10
-4.04206e+10
-4.05095e+10
-4.05952e+10
-4.06493e+10
-4.0717e+10
-4.08075e+10
-4.08839e+10
-4.09569e+10
-4.10296e+10
-4.11023e+10
-4.11734e+10
-4.12363e+10
-4.12836e+10
-4.13118e+10
-4.132e+10
-4.1304e+10
-4.126e+10
-4.11884e+10
-4.10891e+10
-4.09637e+10
-4.08162e+10
-4.06524e+10
-4.04799e+10
-4.03055e+10
-4.01356e+10
-3.99737e+10
-3.98225e+10
-3.96824e+10
-3.95541e+10
-3.94384e+10
-3.93375e+10
-3.9255e+10
-3.91938e+10
-3.91552e+10
-3.9136e+10
-3.9127e+10
-3.91141e+10
-3.90795e+10
-3.90078e+10
-3.88892e+10
-3.87203e+10
-3.85084e+10
-3.82953e+10
-3.8205e+10
-3.8422e+10
-3.88843e+10
-3.87007e+10
-3.6321e+10
-3.24049e+10
-3.40856e+10
-4.94802e+10
-6.17276e+10
-2.97312e+10
-4.05657e+10
-4.05806e+10
-4.05383e+10
-4.06338e+10
-4.0693e+10
-4.07482e+10
-4.08197e+10
-4.08946e+10
-4.09694e+10
-4.10436e+10
-4.1117e+10
-4.11901e+10
-4.1256e+10
-4.13059e+10
-4.13359e+10
-4.13453e+10
-4.13332e+10
-4.12964e+10
-4.12326e+10
-4.11398e+10
-4.10184e+10
-4.08708e+10
-4.0703e+10
-4.05226e+10
-4.03377e+10
-4.01558e+10
-3.99814e+10
-3.98176e+10
-3.96654e+10
-3.95257e+10
-3.93995e+10
-3.92883e+10
-3.9194e+10
-3.9119e+10
-3.90641e+10
-3.90257e+10
-3.89955e+10
-3.89605e+10
-3.89049e+10
-3.88146e+10
-3.86804e+10
-3.84969e+10
-3.82683e+10
-3.80386e+10
-3.79503e+10
-3.82275e+10
-3.88334e+10
-3.88342e+10
-3.66039e+10
-3.26919e+10
-3.35476e+10
-4.63653e+10
-5.8788e+10
-2.94995e+10
-4.05132e+10
-4.05726e+10
-4.06e+10
-4.06276e+10
-4.06847e+10
-4.07522e+10
-4.08266e+10
-4.09001e+10
-4.0977e+10
-4.10532e+10
-4.11292e+10
-4.12045e+10
-4.12727e+10
-4.1325e+10
-4.13575e+10
-4.13698e+10
-4.13593e+10
-4.13228e+10
-4.12581e+10
-4.11634e+10
-4.10387e+10
-4.0887e+10
-4.07141e+10
-4.05283e+10
-4.0338e+10
-4.0151e+10
-3.99726e+10
-3.98058e+10
-3.96519e+10
-3.95119e+10
-3.93865e+10
-3.92775e+10
-3.91873e+10
-3.9118e+10
-3.90705e+10
-3.90409e+10
-3.90207e+10
-3.89961e+10
-3.89512e+10
-3.88715e+10
-3.87473e+10
-3.85732e+10
-3.83546e+10
-3.81354e+10
-3.80574e+10
-3.83377e+10
-3.89148e+10
-3.87662e+10
-3.60881e+10
-3.13863e+10
-3.17915e+10
-4.58067e+10
-6.15879e+10
-3.55163e+10
-4.05483e+10
-4.05949e+10
-4.06181e+10
-4.06458e+10
-4.07104e+10
-4.07813e+10
-4.08551e+10
-4.09317e+10
-4.10132e+10
-4.10979e+10
-4.1185e+10
-4.12743e+10
-4.13588e+10
-4.14303e+10
-4.1483e+10
-4.15126e+10
-4.15139e+10
-4.14846e+10
-4.14227e+10
-4.13267e+10
-4.11953e+10
-4.10308e+10
-4.08398e+10
-4.06322e+10
-4.04191e+10
-4.02105e+10
-4.00133e+10
-3.98312e+10
-3.9666e+10
-3.9519e+10
-3.9391e+10
-3.92825e+10
-3.91937e+10
-3.91267e+10
-3.90818e+10
-3.90539e+10
-3.90334e+10
-3.9006e+10
-3.89551e+10
-3.88649e+10
-3.87234e+10
-3.85206e+10
-3.82541e+10
-3.79598e+10
-3.77799e+10
-3.79513e+10
-3.84665e+10
-3.84188e+10
-3.61233e+10
-3.18684e+10
-3.19291e+10
-4.48428e+10
-6.12476e+10
-3.84484e+10
-4.05665e+10
-4.06196e+10
-4.06392e+10
-4.06494e+10
-4.07103e+10
-4.07903e+10
-4.08655e+10
-4.09427e+10
-4.10267e+10
-4.11135e+10
-4.12029e+10
-4.12935e+10
-4.13789e+10
-4.14511e+10
-4.15047e+10
-4.15351e+10
-4.1537e+10
-4.15074e+10
-4.14442e+10
-4.13454e+10
-4.12101e+10
-4.10407e+10
-4.08438e+10
-4.06298e+10
-4.04103e+10
-4.01958e+10
-3.99937e+10
-3.98083e+10
-3.96415e+10
-3.94944e+10
-3.93676e+10
-3.92624e+10
-3.91801e+10
-3.91217e+10
-3.90861e+10
-3.90684e+10
-3.90585e+10
-3.90406e+10
-3.89978e+10
-3.89144e+10
-3.8778e+10
-3.858e+10
-3.83208e+10
-3.80419e+10
-3.78921e+10
-3.81127e+10
-3.86792e+10
-3.86079e+10
-3.61392e+10
-3.19455e+10
-3.36044e+10
-4.93134e+10
-6.22577e+10
-2.99197e+10
-4.05837e+10
-4.06133e+10
-4.06469e+10
-4.06651e+10
-4.07137e+10
-4.07801e+10
-4.08541e+10
-4.0932e+10
-4.10163e+10
-4.11081e+10
-4.12057e+10
-4.13053e+10
-4.14014e+10
-4.14872e+10
-4.15572e+10
-4.16053e+10
-4.16258e+10
-4.16145e+10
-4.15669e+10
-4.14789e+10
-4.13463e+10
-4.11692e+10
-4.0954e+10
-4.07136e+10
-4.04631e+10
-4.02164e+10
-3.99834e+10
-3.97697e+10
-3.95779e+10
-3.94092e+10
-3.92643e+10
-3.91436e+10
-3.90478e+10
-3.89786e+10
-3.8936e+10
-3.89159e+10
-3.89087e+10
-3.89001e+10
-3.88727e+10
-3.88094e+10
-3.86959e+10
-3.85192e+10
-3.82736e+10
-3.79948e+10
-3.78242e+10
-3.80024e+10
-3.85488e+10
-3.86242e+10
-3.65732e+10
-3.24317e+10
-3.1875e+10
-4.36093e+10
-6.04379e+10
-3.50726e+10
-4.06083e+10
-4.06469e+10
-4.06563e+10
-4.06678e+10
-4.07176e+10
-4.07878e+10
-4.08637e+10
-4.09439e+10
-4.10293e+10
-4.1121e+10
-4.12184e+10
-4.13176e+10
-4.14123e+10
-4.1496e+10
-4.15636e+10
-4.16092e+10
-4.16279e+10
-4.16154e+10
-4.15675e+10
-4.14794e+10
-4.13475e+10
-4.11719e+10
-4.0959e+10
-4.07211e+10
-4.04734e+10
-4.02297e+10
-4e+10
-3.97902e+10
-3.96029e+10
-3.94391e+10
-3.92995e+10
-3.9185e+10
-3.90969e+10
-3.9036e+10
-3.90015e+10
-3.89888e+10
-3.89883e+10
-3.89849e+10
-3.89606e+10
-3.88981e+10
-3.87836e+10
-3.86052e+10
-3.83591e+10
-3.80844e+10
-3.79288e+10
-3.81389e+10
-3.87264e+10
-3.88037e+10
-3.67049e+10
-3.28728e+10
-3.39934e+10
-4.79495e+10
-6.17499e+10
-3.12088e+10
-4.0651e+10
-4.06693e+10
-4.06951e+10
-4.07244e+10
-4.07719e+10
-4.08376e+10
-4.0915e+10
-4.0999e+10
-4.10908e+10
-4.11954e+10
-4.13123e+10
-4.14343e+10
-4.15556e+10
-4.16704e+10
-4.17713e+10
-4.18491e+10
-4.1895e+10
-4.19025e+10
-4.1867e+10
-4.17824e+10
-4.1642e+10
-4.14423e+10
-4.11905e+10
-4.0905e+10
-4.06089e+10
-4.03225e+10
-4.006e+10
-3.98286e+10
-3.96303e+10
-3.94642e+10
-3.93286e+10
-3.92223e+10
-3.9145e+10
-3.90969e+10
-3.90763e+10
-3.90785e+10
-3.90936e+10
-3.91065e+10
-3.90989e+10
-3.9053e+10
-3.89529e+10
-3.87854e+10
-3.85459e+10
-3.82722e+10
-3.81091e+10
-3.83057e+10
-3.89129e+10
-3.91527e+10
-3.74303e+10
-3.38772e+10
-3.44801e+10
-4.71286e+10
-6.05609e+10
-3.1522e+10
-4.06635e+10
-4.06862e+10
-4.07086e+10
-4.07353e+10
-4.07851e+10
-4.08487e+10
-4.09236e+10
-4.10084e+10
-4.11014e+10
-4.12054e+10
-4.13199e+10
-4.14404e+10
-4.15607e+10
-4.16752e+10
-4.17766e+10
-4.18557e+10
-4.1903e+10
-4.19112e+10
-4.18756e+10
-4.17908e+10
-4.165e+10
-4.14499e+10
-4.11977e+10
-4.09119e+10
-4.06158e+10
-4.03297e+10
-4.00677e+10
-3.9837e+10
-3.96395e+10
-3.94742e+10
-3.93393e+10
-3.92337e+10
-3.9157e+10
-3.91092e+10
-3.90886e+10
-3.90904e+10
-3.91053e+10
-3.91185e+10
-3.91128e+10
-3.90713e+10
-3.89799e+10
-3.88274e+10
-3.86106e+10
-3.83684e+10
-3.8245e+10
-3.84856e+10
-3.91256e+10
-3.93458e+10
-3.74725e+10
-3.35138e+10
-3.34437e+10
-4.61564e+10
-6.23174e+10
-3.67624e+10
-4.06324e+10
-4.06445e+10
-4.06624e+10
-4.06954e+10
-4.07451e+10
-4.08135e+10
-4.08949e+10
-4.09848e+10
-4.10858e+10
-4.12032e+10
-4.13354e+10
-4.14768e+10
-4.16218e+10
-4.17635e+10
-4.18928e+10
-4.19981e+10
-4.20678e+10
-4.20928e+10
-4.2068e+10
-4.19863e+10
-4.18363e+10
-4.16068e+10
-4.13032e+10
-4.09514e+10
-4.05875e+10
-4.02424e+10
-3.99354e+10
-3.96749e+10
-3.94611e+10
-3.92894e+10
-3.91547e+10
-3.90524e+10
-3.89804e+10
-3.89369e+10
-3.89194e+10
-3.89222e+10
-3.89357e+10
-3.8945e+10
-3.89319e+10
-3.88772e+10
-3.87642e+10
-3.85791e+10
-3.83173e+10
-3.80168e+10
-3.78208e+10
-3.79791e+10
-3.85519e+10
-3.8757e+10
-3.68885e+10
-3.27911e+10
-3.24887e+10
-4.58985e+10
-6.49108e+10
-4.01949e+10
-4.06271e+10
-4.0639e+10
-4.06615e+10
-4.06987e+10
-4.07498e+10
-4.08145e+10
-4.08931e+10
-4.09842e+10
-4.10884e+10
-4.12076e+10
-4.1341e+10
-4.14845e+10
-4.16322e+10
-4.17768e+10
-4.19086e+10
-4.20158e+10
-4.20864e+10
-4.21121e+10
-4.2088e+10
-4.20073e+10
-4.18577e+10
-4.1628e+10
-4.13233e+10
-4.09701e+10
-4.06049e+10
-4.0259e+10
-3.9952e+10
-3.96924e+10
-3.94802e+10
-3.93111e+10
-3.91796e+10
-3.90814e+10
-3.90137e+10
-3.89747e+10
-3.89621e+10
-3.89709e+10
-3.89921e+10
-3.9012e+10
-3.9013e+10
-3.89776e+10
-3.88903e+10
-3.87394e+10
-3.85224e+10
-3.82788e+10
-3.81527e+10
-3.83919e+10
-3.90511e+10
-3.93363e+10
-3.74683e+10
-3.29793e+10
-3.12848e+10
-4.31322e+10
-6.39884e+10
-4.28678e+10
-4.06462e+10
-4.06497e+10
-4.06616e+10
-4.06931e+10
-4.07445e+10
-4.08124e+10
-4.0893e+10
-4.0986e+10
-4.10974e+10
-4.12315e+10
-4.1385e+10
-4.15543e+10
-4.17342e+10
-4.19165e+10
-4.20895e+10
-4.22385e+10
-4.23469e+10
-4.24029e+10
-4.24008e+10
-4.23356e+10
-4.2188e+10
-4.19306e+10
-4.15581e+10
-4.11107e+10
-4.06521e+10
-4.02327e+10
-3.98778e+10
-3.95939e+10
-3.93752e+10
-3.9211e+10
-3.90902e+10
-3.90045e+10
-3.89485e+10
-3.89188e+10
-3.89123e+10
-3.89239e+10
-3.89445e+10
-3.89608e+10
-3.89566e+10
-3.89156e+10
-3.88232e+10
-3.86677e+10
-3.84472e+10
-3.82015e+10
-3.80747e+10
-3.83187e+10
-3.90013e+10
-3.93384e+10
-3.75461e+10
-3.32378e+10
-3.20483e+10
-4.3904e+10
-6.22417e+10
-3.88334e+10
-4.06513e+10
-4.06497e+10
-4.06685e+10
-4.07095e+10
-4.07627e+10
-4.08274e+10
-4.09075e+10
-4.10023e+10
-4.11144e+10
-4.12462e+10
-4.13962e+10
-4.15613e+10
-4.17361e+10
-4.19125e+10
-4.20795e+10
-4.22225e+10
-4.2326e+10
-4.23785e+10
-4.23757e+10
-4.23124e+10
-4.21699e+10
-4.19202e+10
-4.15565e+10
-4.11166e+10
-4.06624e+10
-4.0244e+10
-3.98878e+10
-3.9601e+10
-3.93786e+10
-3.92107e+10
-3.90865e+10
-3.89977e+10
-3.8939e+10
-3.89073e+10
-3.88996e+10
-3.8911e+10
-3.89324e+10
-3.89508e+10
-3.89502e+10
-3.89139e+10
-3.8827e+10
-3.86771e+10
-3.84618e+10
-3.82216e+10
-3.81037e+10
-3.83685e+10
-3.9103e+10
-3.95549e+10
-3.79625e+10
-3.39101e+10
-3.3035e+10
-4.49306e+10
-6.06503e+10
-3.23834e+10
-4.05459e+10
-4.05515e+10
-4.05654e+10
-4.06003e+10
-4.06588e+10
-4.07332e+10
-4.08213e+10
-4.09274e+10
-4.10577e+10
-4.12141e+10
-4.13956e+10
-4.15997e+10
-4.18209e+10
-4.205e+10
-4.22737e+10
-4.24738e+10
-4.26287e+10
-4.27207e+10
-4.27441e+10
-4.26993e+10
-4.256e+10
-4.22647e+10
-4.17752e+10
-4.11526e+10
-4.05208e+10
-3.99683e+10
-3.95269e+10
-3.91972e+10
-3.89622e+10
-3.87991e+10
-3.86876e+10
-3.86124e+10
-3.85644e+10
-3.85375e+10
-3.85279e+10
-3.85303e+10
-3.85371e+10
-3.8537e+10
-3.85162e+10
-3.84609e+10
-3.83597e+10
-3.82036e+10
-3.7994e+10
-3.77748e+10
-3.76982e+10
-3.80331e+10
-3.88749e+10
-3.94656e+10
-3.8048e+10
-3.43611e+10
-3.42241e+10
-4.61989e+10
-5.9538e+10
-3.02572e+10
-4.05657e+10
-4.05672e+10
-4.05859e+10
-4.06257e+10
-4.0681e+10
-4.07501e+10
-4.08364e+10
-4.09403e+10
-4.10647e+10
-4.12126e+10
-4.13847e+10
-4.15789e+10
-4.17902e+10
-4.20104e+10
-4.22274e+10
-4.2424e+10
-4.25792e+10
-4.26747e+10
-4.27045e+10
-4.26682e+10
-4.25411e+10
-4.2261e+10
-4.1788e+10
-4.11792e+10
-4.05561e+10
-4.0007e+10
-3.95648e+10
-3.92312e+10
-3.89901e+10
-3.88199e+10
-3.87011e+10
-3.86195e+10
-3.85663e+10
-3.85365e+10
-3.85265e+10
-3.85316e+10
-3.85443e+10
-3.85533e+10
-3.85442e+10
-3.85018e+10
-3.84116e+10
-3.82612e+10
-3.80463e+10
-3.78046e+10
-3.76821e+10
-3.7944e+10
-3.8689e+10
-3.91716e+10
-3.7628e+10
-3.37014e+10
-3.31248e+10
-4.50076e+10
-5.94563e+10
-3.12241e+10
-4.05636e+10
-4.05875e+10
-4.06122e+10
-4.06527e+10
-4.07128e+10
-4.07864e+10
-4.08723e+10
-4.09758e+10
-4.11007e+10
-4.12501e+10
-4.14281e+10
-4.16362e+10
-4.18723e+10
-4.213e+10
-4.23976e+10
-4.26556e+10
-4.28765e+10
-4.30329e+10
-4.31165e+10
-4.3137e+10
-4.30737e+10
-4.28159e+10
-4.22436e+10
-4.14179e+10
-4.05664e+10
-3.98537e+10
-3.93188e+10
-3.89512e+10
-3.87116e+10
-3.85595e+10
-3.84627e+10
-3.83998e+10
-3.83581e+10
-3.83316e+10
-3.83161e+10
-3.83075e+10
-3.82995e+10
-3.82826e+10
-3.82442e+10
-3.81714e+10
-3.80513e+10
-3.78722e+10
-3.76306e+10
-3.7365e+10
-3.72239e+10
-3.74748e+10
-3.82083e+10
-3.86411e+10
-3.69333e+10
-3.26352e+10
-3.14702e+10
-4.30662e+10
-5.89149e+10
-3.19836e+10
-4.05628e+10
-4.0586e+10
-4.0609e+10
-4.0648e+10
-4.07037e+10
-4.07756e+10
-4.0861e+10
-4.09632e+10
-4.10862e+10
-4.12347e+10
-4.14124e+10
-4.16211e+10
-4.18586e+10
-4.21185e+10
-4.23884e+10
-4.26482e+10
-4.2869e+10
-4.30238e+10
-4.31052e+10
-4.31255e+10
-4.30632e+10
-4.28072e+10
-4.22355e+10
-4.14061e+10
-4.05506e+10
-3.9838e+10
-3.93081e+10
-3.89493e+10
-3.87205e+10
-3.85801e+10
-3.84954e+10
-3.84444e+10
-3.84144e+10
-3.83989e+10
-3.83938e+10
-3.8395e+10
-3.83956e+10
-3.83851e+10
-3.83502e+10
-3.82768e+10
-3.81514e+10
-3.79608e+10
-3.76994e+10
-3.74026e+10
-3.72147e+10
-3.73987e+10
-3.80433e+10
-3.83639e+10
-3.64663e+10
-3.16301e+10
-2.91989e+10
-4.01669e+10
-6.00418e+10
-4.06419e+10
-4.04823e+10
-4.05012e+10
-4.05205e+10
-4.05498e+10
-4.05909e+10
-4.06428e+10
-4.07068e+10
-4.07881e+10
-4.08945e+10
-4.10358e+10
-4.12233e+10
-4.14662e+10
-4.17686e+10
-4.21262e+10
-4.2524e+10
-4.29322e+10
-4.33042e+10
-4.35881e+10
-4.37618e+10
-4.38573e+10
-4.38978e+10
-4.37348e+10
-4.30685e+10
-4.18773e+10
-4.06018e+10
-3.96504e+10
-3.90387e+10
-3.86814e+10
-3.84855e+10
-3.83848e+10
-3.8336e+10
-3.83134e+10
-3.8304e+10
-3.83029e+10
-3.83089e+10
-3.83208e+10
-3.83339e+10
-3.83399e+10
-3.83285e+10
-3.8288e+10
-3.82062e+10
-3.80708e+10
-3.78751e+10
-3.76529e+10
-3.75466e+10
-3.78124e+10
-3.85175e+10
-3.88347e+10
-3.68317e+10
-3.18592e+10
-2.94554e+10
-4.01488e+10
-5.78403e+10
-3.00532e+10
-4.0476e+10
-4.04926e+10
-4.05097e+10
-4.0537e+10
-4.05784e+10
-4.06316e+10
-4.06958e+10
-4.07776e+10
-4.08844e+10
-4.10257e+10
-4.1212e+10
-4.14519e+10
-4.17492e+10
-4.20991e+10
-4.24866e+10
-4.28824e+10
-4.32407e+10
-4.3511e+10
-4.3673e+10
-4.37616e+10
-4.37998e+10
-4.36453e+10
-4.30036e+10
-4.18353e+10
-4.0566e+10
-3.96083e+10
-3.89859e+10
-3.86229e+10
-3.84287e+10
-3.83361e+10
-3.83002e+10
-3.82937e+10
-3.8302e+10
-3.83188e+10
-3.83414e+10
-3.83666e+10
-3.83878e+10
-3.8395e+10
-3.8376e+10
-3.83185e+10
-3.8211e+10
-3.8043e+10
-3.78118e+10
-3.75577e+10
-3.74333e+10
-3.77105e+10
-3.84784e+10
-3.89321e+10
-3.71359e+10
-3.23737e+10
-3.01864e+10
-4.11809e+10
-5.83889e+10
-3.10749e+10
-4.04341e+10
-4.04493e+10
-4.04732e+10
-4.05095e+10
-4.05573e+10
-4.06183e+10
-4.06956e+10
-4.07958e+10
-4.09297e+10
-4.1112e+10
-4.13586e+10
-4.16825e+10
-4.20882e+10
-4.25667e+10
-4.30928e+10
-4.36231e+10
-4.40918e+10
-4.44269e+10
-4.45978e+10
-4.46797e+10
-4.4812e+10
-4.48755e+10
-4.41875e+10
-4.22645e+10
-4.00329e+10
-3.8765e+10
-3.81953e+10
-3.79736e+10
-3.79383e+10
-3.79871e+10
-3.80633e+10
-3.81387e+10
-3.82035e+10
-3.82572e+10
-3.83029e+10
-3.83424e+10
-3.83737e+10
-3.83906e+10
-3.8384e+10
-3.83449e+10
-3.82645e+10
-3.81339e+10
-3.79526e+10
-3.77645e+10
-3.77255e+10
-3.80971e+10
-3.89281e+10
-3.93742e+10
-3.76103e+10
-3.33453e+10
-3.2367e+10
-4.37535e+10
-5.82934e+10
-2.95064e+10
-4.04243e+10
-4.043e+10
-4.04522e+10
-4.04854e+10
-4.05316e+10
-4.05903e+10
-4.06652e+10
-4.07628e+10
-4.08939e+10
-4.10728e+10
-4.13151e+10
-4.16341e+10
-4.20351e+10
-4.2511e+10
-4.30383e+10
-4.35751e+10
-4.4056e+10
-4.44033e+10
-4.45821e+10
-4.46679e+10
-4.47946e+10
-4.48454e+10
-4.41869e+10
-4.23382e+10
-4.01578e+10
-3.88902e+10
-3.82777e+10
-3.80172e+10
-3.79539e+10
-3.7986e+10
-3.8056e+10
-3.81344e+10
-3.82098e+10
-3.82803e+10
-3.83467e+10
-3.84083e+10
-3.84604e+10
-3.84938e+10
-3.8496e+10
-3.84534e+10
-3.83532e+10
-3.81832e+10
-3.79408e+10
-3.76712e+10
-3.75371e+10
-3.7817e+10
-3.85884e+10
-3.90419e+10
-3.73772e+10
-3.33436e+10
-3.29459e+10
-4.51652e+10
-5.91568e+10
-3.16897e+10
-4.03605e+10
-4.03683e+10
-4.03888e+10
-4.04218e+10
-4.0464e+10
-4.05138e+10
-4.05719e+10
-4.0643e+10
-4.07382e+10
-4.08754e+10
-4.10781e+10
-4.13709e+10
-4.17721e+10
-4.22845e+10
-4.28889e+10
-4.35424e+10
-4.4168e+10
-4.46616e+10
-4.49707e+10
-4.52156e+10
-4.57108e+10
-4.64721e+10
-4.62238e+10
-4.3161e+10
-3.92371e+10
-3.75732e+10
-3.7024e+10
-3.6956e+10
-3.71334e+10
-3.73736e+10
-3.75998e+10
-3.77883e+10
-3.79394e+10
-3.80618e+10
-3.81634e+10
-3.82476e+10
-3.83125e+10
-3.83502e+10
-3.83488e+10
-3.82954e+10
-3.81776e+10
-3.79841e+10
-3.77155e+10
-3.74234e+10
-3.72767e+10
-3.75426e+10
-3.82519e+10
-3.85603e+10
-3.68299e+10
-3.32695e+10
-3.39873e+10
-4.69558e+10
-6.10717e+10
-3.32077e+10
-4.03463e+10
-4.03468e+10
-4.03666e+10
-4.03985e+10
-4.04409e+10
-4.04919e+10
-4.05523e+10
-4.06268e+10
-4.07266e+10
-4.08696e+10
-4.10792e+10
-4.13792e+10
-4.17874e+10
-4.23067e+10
-4.29194e+10
-4.35825e+10
-4.42189e+10
-4.47189e+10
-4.5012e+10
-4.52168e+10
-4.56324e+10
-4.62851e+10
-4.60708e+10
-4.33027e+10
-3.94282e+10
-3.777e+10
-3.71813e+10
-3.70838e+10
-3.72331e+10
-3.74496e+10
-3.76589e+10
-3.78375e+10
-3.79847e+10
-3.81075e+10
-3.82131e+10
-3.83043e+10
-3.83781e+10
-3.8425e+10
-3.84313e+10
-3.8381e+10
-3.82583e+10
-3.8048e+10
-3.77465e+10
-3.74015e+10
-3.71788e+10
-3.73463e+10
-3.79356e+10
-3.80895e+10
-3.60893e+10
-3.18465e+10
-3.10672e+10
-4.32203e+10
-6.25578e+10
-4.21151e+10
-4.02074e+10
-4.02156e+10
-4.02297e+10
-4.02532e+10
-4.02819e+10
-4.03099e+10
-4.03344e+10
-4.03604e+10
-4.04057e+10
-4.05034e+10
-4.07016e+10
-4.1056e+10
-4.16157e+10
-4.23956e+10
-4.33625e+10
-4.44505e+10
-4.55365e+10
-4.64567e+10
-4.71392e+10
-4.77846e+10
-4.88188e+10
-5.02847e+10
-5.0685e+10
-4.65433e+10
-4.05342e+10
-3.63399e+10
-3.58849e+10
-3.62308e+10
-3.66958e+10
-3.70973e+10
-3.74162e+10
-3.7666e+10
-3.78656e+10
-3.80309e+10
-3.81738e+10
-3.83e+10
-3.84081e+10
-3.849e+10
-3.85323e+10
-3.85197e+10
-3.84373e+10
-3.82718e+10
-3.80221e+10
-3.77385e+10
-3.75866e+10
-3.78202e+10
-3.84397e+10
-3.85747e+10
-3.66371e+10
-3.29424e+10
-3.34025e+10
-4.5547e+10
-5.92365e+10
-3.06386e+10
-4.02074e+10
-4.02183e+10
-4.02334e+10
-4.0259e+10
-4.02909e+10
-4.03237e+10
-4.03544e+10
-4.03878e+10
-4.04418e+10
-4.05488e+10
-4.07551e+10
-4.11134e+10
-4.16683e+10
-4.24355e+10
-4.339e+10
-4.44609e+10
-4.55211e+10
-4.63843e+10
-4.69083e+10
-4.73085e+10
-4.80717e+10
-4.93624e+10
-4.99348e+10
-4.69323e+10
-4.11345e+10
-3.6222e+10
-3.58444e+10
-3.62464e+10
-3.67432e+10
-3.71593e+10
-3.74831e+10
-3.77327e+10
-3.79295e+10
-3.80903e+10
-3.8227e+10
-3.83454e+10
-3.84446e+10
-3.85172e+10
-3.8551e+10
-3.85323e+10
-3.84476e+10
-3.82852e+10
-3.80452e+10
-3.77786e+10
-3.76496e+10
-3.79085e+10
-3.85365e+10
-3.8593e+10
-3.63142e+10
-3.17276e+10
-3.07373e+10
-4.2739e+10
-6.17128e+10
-4.10959e+10
-4.01711e+10
-4.0196e+10
-4.02109e+10
-4.02337e+10
-4.02561e+10
-4.0271e+10
-4.02743e+10
-4.02743e+10
-4.02974e+10
-4.03899e+10
-4.06154e+10
-4.10437e+10
-4.17243e+10
-4.26394e+10
-4.37151e+10
-4.48567e+10
-4.59318e+10
-4.68135e+10
-4.75074e+10
-4.82564e+10
-4.93482e+10
-5.07731e+10
-5.17658e+10
-5.02259e+10
-4.49302e+10
-3.03576e+10
-3.28064e+10
-3.48915e+10
-3.60588e+10
-3.67599e+10
-3.72127e+10
-3.75229e+10
-3.77482e+10
-3.79217e+10
-3.80631e+10
-3.81817e+10
-3.82782e+10
-3.8346e+10
-3.83738e+10
-3.83491e+10
-3.82602e+10
-3.80973e+10
-3.78624e+10
-3.76051e+10
-3.74834e+10
-3.77359e+10
-3.83402e+10
-3.83915e+10
-3.62417e+10
-3.21357e+10
-3.20551e+10
-4.41791e+10
-5.91276e+10
-3.23023e+10
-4.01514e+10
-4.01848e+10
-4.01961e+10
-4.02203e+10
-4.02463e+10
-4.0268e+10
-4.02808e+10
-4.0292e+10
-4.03268e+10
-4.04307e+10
-4.0666e+10
-4.10981e+10
-4.17691e+10
-4.26711e+10
-4.37465e+10
-4.48921e+10
-4.59674e+10
-4.68106e+10
-4.73325e+10
-4.77781e+10
-4.87858e+10
-5.05951e+10
-5.16469e+10
-5.04692e+10
-4.75247e+10
-3.02739e+10
-3.26746e+10
-3.48202e+10
-3.60461e+10
-3.67839e+10
-3.72593e+10
-3.75815e+10
-3.78112e+10
-3.79837e+10
-3.81192e+10
-3.82271e+10
-3.83084e+10
-3.83566e+10
-3.83616e+10
-3.83124e+10
-3.81997e+10
-3.80169e+10
-3.77695e+10
-3.75114e+10
-3.74043e+10
-3.76876e+10
-3.83208e+10
-3.83159e+10
-3.59147e+10
-3.17192e+10
-3.31974e+10
-4.86224e+10
-6.16525e+10
-3.08474e+10
-4.0132e+10
-4.015e+10
-4.01634e+10
-4.01821e+10
-4.02009e+10
-4.02118e+10
-4.02114e+10
-4.02088e+10
-4.02324e+10
-4.03295e+10
-4.05638e+10
-4.1007e+10
-4.17031e+10
-4.26216e+10
-4.36997e+10
-4.48415e+10
-4.59221e+10
-4.68285e+10
-4.7544e+10
-4.83206e+10
-4.95362e+10
-5.09292e+10
-5.06515e+10
-4.56593e+10
-2.36335e+10
-3.23013e+10
-3.45605e+10
-3.58736e+10
-3.66705e+10
-3.7181e+10
-3.75234e+10
-3.77637e+10
-3.794e+10
-3.8074e+10
-3.81761e+10
-3.82474e+10
-3.82819e+10
-3.82694e+10
-3.81996e+10
-3.80638e+10
-3.78563e+10
-3.75824e+10
-3.72925e+10
-3.71384e+10
-3.73525e+10
-3.79276e+10
-3.8005e+10
-3.59561e+10
-3.19003e+10
-3.14887e+10
-4.2841e+10
-5.84681e+10
-3.39494e+10
-4.01156e+10
-4.01388e+10
-4.0148e+10
-4.01678e+10
-4.01897e+10
-4.02065e+10
-4.02143e+10
-4.02207e+10
-4.0252e+10
-4.03557e+10
-4.0596e+10
-4.10399e+10
-4.1728e+10
-4.26471e+10
-4.3735e+10
-4.48886e+10
-4.59658e+10
-4.68074e+10
-4.73412e+10
-4.78063e+10
-4.87483e+10
-5.05064e+10
-5.2075e+10
-5.12084e+10
-2.44619e+10
-3.22628e+10
-3.44984e+10
-3.58283e+10
-3.66424e+10
-3.71651e+10
-3.75156e+10
-3.77615e+10
-3.79422e+10
-3.80805e+10
-3.81875e+10
-3.82648e+10
-3.83065e+10
-3.83023e+10
-3.82415e+10
-3.81158e+10
-3.79197e+10
-3.7659e+10
-3.73842e+10
-3.72486e+10
-3.74868e+10
-3.8084e+10
-3.81378e+10
-3.59962e+10
-3.21618e+10
-3.34254e+10
-4.74132e+10
-6.05656e+10
-2.98221e+10
-4.01616e+10
-4.01677e+10
-4.01862e+10
-4.02097e+10
-4.0237e+10
-4.02595e+10
-4.02737e+10
-4.02864e+10
-4.03224e+10
-4.04228e+10
-4.06428e+10
-4.10492e+10
-4.16913e+10
-4.25571e+10
-4.35899e+10
-4.46861e+10
-4.57206e+10
-4.65988e+10
-4.72555e+10
-4.78119e+10
-4.85804e+10
-4.97035e+10
-5.05813e+10
-4.89731e+10
-3.86259e+10
-3.48099e+10
-3.4883e+10
-3.56589e+10
-3.6407e+10
-3.6971e+10
-3.7376e+10
-3.76687e+10
-3.78867e+10
-3.80558e+10
-3.81928e+10
-3.83054e+10
-3.83938e+10
-3.84521e+10
-3.84706e+10
-3.84396e+10
-3.83511e+10
-3.81994e+10
-3.79878e+10
-3.77594e+10
-3.76524e+10
-3.78878e+10
-3.84781e+10
-3.86422e+10
-3.68595e+10
-3.33436e+10
-3.39365e+10
-4.60515e+10
-5.82687e+10
-2.94702e+10
-4.0171e+10
-4.01827e+10
-4.01976e+10
-4.02216e+10
-4.02515e+10
-4.02807e+10
-4.03054e+10
-4.03309e+10
-4.03787e+10
-4.04876e+10
-4.07113e+10
-4.11083e+10
-4.17175e+10
-4.25328e+10
-4.35055e+10
-4.45397e+10
-4.55038e+10
-4.62644e+10
-4.68179e+10
-4.73884e+10
-4.82927e+10
-4.95867e+10
-4.99864e+10
-4.8517e+10
-3.97099e+10
-3.46064e+10
-3.46692e+10
-3.5509e+10
-3.63136e+10
-3.69128e+10
-3.73369e+10
-3.76394e+10
-3.78633e+10
-3.80375e+10
-3.81802e+10
-3.83003e+10
-3.83987e+10
-3.84696e+10
-3.85034e+10
-3.84898e+10
-3.84198e+10
-3.82872e+10
-3.80948e+10
-3.78852e+10
-3.77954e+10
-3.80438e+10
-3.86378e+10
-3.87807e+10
-3.68795e+10
-3.29139e+10
-3.25539e+10
-4.44946e+10
-6.03161e+10
-3.59481e+10
-4.03183e+10
-4.03259e+10
-4.03482e+10
-4.03816e+10
-4.04253e+10
-4.04753e+10
-4.05294e+10
-4.05914e+10
-4.06751e+10
-4.08044e+10
-4.10116e+10
-4.13321e+10
-4.17906e+10
-4.23848e+10
-4.30829e+10
-4.38185e+10
-4.44963e+10
-4.50134e+10
-4.52977e+10
-4.54143e+10
-4.56283e+10
-4.61049e+10
-4.59523e+10
-4.29743e+10
-3.94771e+10
-3.7735e+10
-3.70897e+10
-3.69796e+10
-3.71386e+10
-3.73601e+10
-3.75708e+10
-3.77478e+10
-3.78931e+10
-3.80134e+10
-3.81153e+10
-3.82024e+10
-3.82733e+10
-3.83219e+10
-3.83386e+10
-3.8314e+10
-3.82399e+10
-3.81098e+10
-3.79232e+10
-3.7715e+10
-3.76095e+10
-3.78131e+10
-3.8344e+10
-3.84691e+10
-3.67092e+10
-3.31394e+10
-3.33122e+10
-4.53641e+10
-6.0412e+10
-3.32053e+10
-4.03098e+10
-4.0317e+10
-4.03375e+10
-4.03689e+10
-4.04111e+10
-4.04609e+10
-4.05168e+10
-4.0583e+10
-4.06731e+10
-4.08106e+10
-4.10269e+10
-4.1354e+10
-4.18117e+10
-4.23941e+10
-4.30664e+10
-4.37623e+10
-4.43868e+10
-4.48395e+10
-4.50897e+10
-4.52701e+10
-4.56495e+10
-4.62469e+10
-4.59624e+10
-4.30765e+10
-3.94213e+10
-3.75607e+10
-3.69133e+10
-3.68462e+10
-3.70533e+10
-3.73119e+10
-3.75487e+10
-3.77443e+10
-3.7904e+10
-3.80372e+10
-3.81521e+10
-3.82528e+10
-3.83381e+10
-3.8402e+10
-3.84349e+10
-3.84269e+10
-3.83696e+10
-3.82565e+10
-3.8089e+10
-3.79036e+10
-3.78248e+10
-3.80572e+10
-3.86194e+10
-3.87737e+10
-3.69229e+10
-3.26272e+10
-3.06971e+10
-4.10457e+10
-6.09064e+10
-4.11022e+10
-4.0415e+10
-4.04221e+10
-4.04433e+10
-4.04773e+10
-4.05246e+10
-4.05849e+10
-4.066e+10
-4.07549e+10
-4.08795e+10
-4.10486e+10
-4.12802e+10
-4.15908e+10
-4.19872e+10
-4.24596e+10
-4.29786e+10
-4.34949e+10
-4.39436e+10
-4.42586e+10
-4.44008e+10
-4.44066e+10
-4.43916e+10
-4.42965e+10
-4.35436e+10
-4.16963e+10
-3.96786e+10
-3.84886e+10
-3.79046e+10
-3.7669e+10
-3.76497e+10
-3.77303e+10
-3.78453e+10
-3.79605e+10
-3.80643e+10
-3.81555e+10
-3.82356e+10
-3.83043e+10
-3.8358e+10
-3.83887e+10
-3.83863e+10
-3.83402e+10
-3.82414e+10
-3.80833e+10
-3.78665e+10
-3.76275e+10
-3.74923e+10
-3.76717e+10
-3.81955e+10
-3.83527e+10
-3.6691e+10
-3.33159e+10
-3.37103e+10
-4.55829e+10
-5.89653e+10
-3.0328e+10
-4.04102e+10
-4.04146e+10
-4.04361e+10
-4.04679e+10
-4.05128e+10
-4.05703e+10
-4.06428e+10
-4.07359e+10
-4.08606e+10
-4.10328e+10
-4.12713e+10
-4.15929e+10
-4.20043e+10
-4.24952e+10
-4.30349e+10
-4.35715e+10
-4.40351e+10
-4.43564e+10
-4.45079e+10
-4.45481e+10
-4.45879e+10
-4.45135e+10
-4.37031e+10
-4.17367e+10
-3.95895e+10
-3.83529e+10
-3.77838e+10
-3.7577e+10
-3.75845e+10
-3.76854e+10
-3.7815e+10
-3.79422e+10
-3.80574e+10
-3.81605e+10
-3.82537e+10
-3.83374e+10
-3.84079e+10
-3.84571e+10
-3.84745e+10
-3.84494e+10
-3.83731e+10
-3.8239e+10
-3.80485e+10
-3.78382e+10
-3.77325e+10
-3.79384e+10
-3.84815e+10
-3.86298e+10
-3.68171e+10
-3.28738e+10
-3.2333e+10
-4.45037e+10
-6.11467e+10
-3.49032e+10
-4.05216e+10
-4.0529e+10
-4.055e+10
-4.05806e+10
-4.06226e+10
-4.06767e+10
-4.07459e+10
-4.08354e+10
-4.09531e+10
-4.11093e+10
-4.13154e+10
-4.15798e+10
-4.19042e+10
-4.22793e+10
-4.26824e+10
-4.30776e+10
-4.34185e+10
-4.36596e+10
-4.37794e+10
-4.38004e+10
-4.37398e+10
-4.34576e+10
-4.26598e+10
-4.13548e+10
-4.00275e+10
-3.90781e+10
-3.85058e+10
-3.82037e+10
-3.80743e+10
-3.80428e+10
-3.80611e+10
-3.81007e+10
-3.8147e+10
-3.81944e+10
-3.82402e+10
-3.828e+10
-3.83064e+10
-3.83083e+10
-3.82723e+10
-3.81855e+10
-3.80374e+10
-3.78208e+10
-3.75388e+10
-3.72341e+10
-3.70452e+10
-3.71975e+10
-3.77212e+10
-3.78604e+10
-3.60697e+10
-3.23569e+10
-3.22165e+10
-4.42412e+10
-6.06698e+10
-3.654e+10
-4.05272e+10
-4.05343e+10
-4.05562e+10
-4.05865e+10
-4.06277e+10
-4.06802e+10
-4.07468e+10
-4.08325e+10
-4.09453e+10
-4.10958e+10
-4.12953e+10
-4.15531e+10
-4.18716e+10
-4.22433e+10
-4.26477e+10
-4.30505e+10
-4.34043e+10
-4.3661e+10
-4.38003e+10
-4.38491e+10
-4.38196e+10
-4.35556e+10
-4.27541e+10
-4.14206e+10
-4.00594e+10
-3.90992e+10
-3.8531e+10
-3.8234e+10
-3.81068e+10
-3.80752e+10
-3.80924e+10
-3.81317e+10
-3.81798e+10
-3.82315e+10
-3.82843e+10
-3.8334e+10
-3.83737e+10
-3.83927e+10
-3.83787e+10
-3.83195e+10
-3.82056e+10
-3.803e+10
-3.77941e+10
-3.75365e+10
-3.73875e+10
-3.75611e+10
-3.80655e+10
-3.8086e+10
-3.60078e+10
-3.21376e+10
-3.32105e+10
-4.79043e+10
-6.26855e+10
-3.24098e+10
-4.06165e+10
-4.0628e+10
-4.0651e+10
-4.06848e+10
-4.07301e+10
-4.07879e+10
-4.08603e+10
-4.09512e+10
-4.10656e+10
-4.12094e+10
-4.13878e+10
-4.16032e+10
-4.18528e+10
-4.21276e+10
-4.24108e+10
-4.26777e+10
-4.28966e+10
-4.30392e+10
-4.3097e+10
-4.30822e+10
-4.29791e+10
-4.26806e+10
-4.20632e+10
-4.11926e+10
-4.03086e+10
-3.95873e+10
-3.90694e+10
-3.87327e+10
-3.85298e+10
-3.84158e+10
-3.83575e+10
-3.83333e+10
-3.83306e+10
-3.83426e+10
-3.83644e+10
-3.83899e+10
-3.84096e+10
-3.84102e+10
-3.83765e+10
-3.8294e+10
-3.81503e+10
-3.79367e+10
-3.76556e+10
-3.73527e+10
-3.71741e+10
-3.73526e+10
-3.79023e+10
-3.79924e+10
-3.59208e+10
-3.14876e+10
-3.01989e+10
-4.18277e+10
-6.20851e+10
-4.75757e+10
-4.06279e+10
-4.06425e+10
-4.06672e+10
-4.07038e+10
-4.07519e+10
-4.08123e+10
-4.08869e+10
-4.0979e+10
-4.10932e+10
-4.12349e+10
-4.14085e+10
-4.16163e+10
-4.18557e+10
-4.21183e+10
-4.23886e+10
-4.2643e+10
-4.28517e+10
-4.29875e+10
-4.30428e+10
-4.30305e+10
-4.29351e+10
-4.26522e+10
-4.20618e+10
-4.12225e+10
-4.03644e+10
-3.96612e+10
-3.91536e+10
-3.882e+10
-3.86155e+10
-3.84975e+10
-3.84343e+10
-3.84053e+10
-3.83982e+10
-3.84068e+10
-3.84265e+10
-3.84516e+10
-3.84728e+10
-3.84779e+10
-3.84534e+10
-3.83864e+10
-3.82662e+10
-3.80853e+10
-3.78449e+10
-3.75866e+10
-3.74475e+10
-3.76479e+10
-3.81709e+10
-3.81038e+10
-3.57178e+10
-3.14292e+10