/*--------------------------------*- C++ -*----------------------------------*\
| =========                 |                                                 |
| \\      /  F ield         | OpenFOAM: The Open Source CFD Toolbox           |
|  \\    /   O peration     | Version:  4.1                                   |
|   \\  /    A nd           | Web:      www.OpenFOAM.org                      |
|    \\/     M anipulation  |                                                 |
\*---------------------------------------------------------------------------*/
FoamFile
{
    version     2.0;
    format      ascii;
    class       surfaceScalarField;
    location    "80";
    object      phi;
}
// * * * * * * * * * * * * * * * * * * * * * * * * * * * * * * * * * * * * * //

dimensions      [0 3 -1 0 0 0 0];

internalField   nonuniform List<scalar> 
11516
(
-3.49827e+10
1.04743e+08
7.08729e+08
-3.56324e+10
8.1599e+07
5.89656e+08
-3.62303e+10
7.44134e+07
5.4473e+08
-3.67581e+10
6.05592e+07
4.88425e+08
-3.7255e+10
6.48532e+07
4.53688e+08
-3.77254e+10
6.59615e+07
4.26671e+08
-3.81668e+10
6.55974e+07
3.98684e+08
-3.85832e+10
6.66069e+07
3.73653e+08
-3.89727e+10
6.7355e+07
3.46825e+08
-3.9331e+10
6.81967e+07
3.15809e+08
-3.96526e+10
6.91556e+07
2.79021e+08
-3.99326e+10
7.02026e+07
2.37145e+08
-4.01616e+10
7.1024e+07
1.85365e+08
-4.03333e+10
7.15318e+07
1.2731e+08
-4.04373e+10
7.12926e+07
6.02966e+07
-4.04645e+10
7.03706e+07
-1.48011e+07
-4.04086e+10
7.02504e+07
-9.46539e+07
-4.02645e+10
7.05572e+07
-1.81494e+08
-4.00319e+10
7.10462e+07
-2.69274e+08
-3.97097e+10
7.15564e+07
-3.60144e+08
-3.9296e+10
7.2633e+07
-4.50977e+08
-3.87958e+10
7.41324e+07
-5.35762e+08
-3.82121e+10
7.61753e+07
-6.16039e+08
-3.75594e+10
7.85031e+07
-6.82392e+08
-3.68479e+10
8.06752e+07
-7.3917e+08
-3.60946e+10
8.26341e+07
-7.79085e+08
-3.53095e+10
8.41581e+07
-8.08218e+08
-3.45083e+10
8.5218e+07
-8.20488e+08
-3.37006e+10
8.54991e+07
-8.21716e+08
-3.28977e+10
8.49469e+07
-8.09711e+08
-3.21099e+10
8.33431e+07
-7.85715e+08
-3.1343e+10
8.05424e+07
-7.53766e+08
-3.06056e+10
7.63611e+07
-7.10995e+08
-2.99028e+10
7.05174e+07
-6.61071e+08
-2.92397e+10
6.31432e+07
-6.04233e+08
-2.86226e+10
5.50298e+07
-5.39944e+08
-2.80537e+10
4.70828e+07
-4.72911e+08
-2.7538e+10
4.16628e+07
-4.01044e+08
-2.70773e+10
4.21943e+07
-3.29659e+08
-2.66721e+10
4.95505e+07
-2.58629e+08
-2.63133e+10
5.92272e+07
-1.92614e+08
-2.59809e+10
6.65777e+07
-1.37718e+08
-2.56601e+10
7.37944e+07
-9.20463e+07
-2.53619e+10
8.79682e+07
-3.90079e+07
-2.51339e+10
1.16137e+08
4.02615e+07
-2.5057e+10
1.70823e+08
1.42582e+08
-2.51953e+10
2.64562e+08
2.04193e+08
-2.55298e+10
3.8915e+08
1.41004e+08
-2.61008e+10
5.05761e+08
4.04893e+07
-2.72534e+10
6.0605e+08
4.96703e+08
-2.96473e+10
1.4349e+09
9.71567e+08
-3.37179e+10
4.52212e+09
1.73063e+08
-3.15391e+10
9.19139e+09
-1.10055e+10
3.82783e+09
-9.39764e+09
-4.71583e+10
5.55362e+08
-4.75422e+10
4.76581e+08
-4.78831e+10
4.2655e+08
-4.8202e+10
3.90722e+08
-4.8483e+10
3.5739e+08
-4.87398e+10
3.34594e+08
-4.89743e+10
3.1229e+08
-4.9187e+10
2.9201e+08
-4.9377e+10
2.7038e+08
-4.95405e+10
2.45252e+08
-4.96725e+10
2.15204e+08
-4.97698e+10
1.81668e+08
-4.98237e+10
1.39088e+08
-4.98305e+10
9.23553e+07
-4.97836e+10
3.82979e+07
-4.96776e+10
-2.0738e+07
-4.95075e+10
-8.39147e+07
-4.92657e+10
-1.54493e+08
-4.89528e+10
-2.25207e+08
-4.85663e+10
-2.98247e+08
-4.81055e+10
-3.71125e+08
-4.75757e+10
-4.36775e+08
-4.69801e+10
-4.98173e+08
-4.63336e+10
-5.44976e+08
-4.56454e+10
-5.83002e+08
-4.49332e+10
-6.03962e+08
-4.42067e+10
-6.15339e+08
-4.34827e+10
-6.10171e+08
-4.27709e+10
-5.95611e+08
-4.20835e+10
-5.6926e+08
-4.14317e+10
-5.32523e+08
-4.08215e+10
-4.90604e+08
-4.02626e+10
-4.3993e+08
-3.97606e+10
-3.85476e+08
-3.93204e+10
-3.2747e+08
-3.89461e+10
-2.66196e+08
-3.86351e+10
-2.0672e+08
-3.8385e+10
-1.46395e+08
-3.81826e+10
-9.11523e+07
-3.80142e+10
-4.04056e+07
-3.78674e+10
3.76971e+06
-3.77331e+10
3.89709e+07
-3.76032e+10
6.87725e+07
-3.74753e+10
1.02891e+08
-3.73615e+10
1.57809e+08
-3.72782e+10
2.34427e+08
-3.71876e+10
2.7977e+08
-3.6998e+10
2.21884e+08
-3.67373e+10
1.70699e+08
-3.72436e+10
9.90835e+08
-3.85247e+10
2.67832e+09
-3.65276e+10
2.53204e+09
-1.68589e+10
-1.03345e+10
-1.26415e+10
-6.62746e+10
8.32235e+07
8.51237e+08
-6.64869e+10
7.91677e+07
7.34722e+08
-6.667e+10
6.56831e+07
6.74257e+08
-6.68464e+10
6.20595e+07
6.15079e+08
-6.70023e+10
5.53782e+07
5.66749e+08
-6.7147e+10
5.12374e+07
5.32954e+08
-6.72827e+10
4.67529e+07
5.00811e+08
-6.7409e+10
4.2316e+07
4.71067e+08
-6.75226e+10
3.73822e+07
4.36941e+08
-6.76252e+10
3.23014e+07
4.00343e+08
-6.77149e+10
2.68613e+07
3.56355e+08
-6.77883e+10
2.11396e+07
3.04142e+08
-6.78447e+10
1.50026e+07
2.40962e+08
-6.78802e+10
8.81581e+06
1.68063e+08
-6.78937e+10
2.52478e+06
8.39346e+07
-6.78872e+10
-3.01979e+06
-4.66034e+06
-6.78616e+10
-8.9512e+06
-9.74652e+07
-6.7818e+10
-1.54908e+07
-1.94153e+08
-6.77556e+10
-2.24663e+07
-2.94856e+08
-6.76752e+10
-2.95378e+07
-3.97417e+08
-6.75784e+10
-3.66855e+07
-4.98482e+08
-6.7465e+10
-4.33786e+07
-5.92129e+08
-6.73413e+10
-4.94796e+07
-6.75079e+08
-6.72092e+10
-5.49912e+07
-7.43757e+08
-6.70812e+10
-5.99253e+07
-7.92139e+08
-6.6957e+10
-6.41568e+07
-8.24957e+08
-6.68463e+10
-6.75225e+07
-8.379e+08
-6.6749e+10
-6.99326e+07
-8.34902e+08
-6.66717e+10
-7.13781e+07
-8.14458e+08
-6.66143e+10
-7.18816e+07
-7.81921e+08
-6.65803e+10
-7.13687e+07
-7.3421e+08
-6.65733e+10
-6.99749e+07
-6.76075e+08
-6.65941e+10
-6.75551e+07
-6.06967e+08
-6.66486e+10
-6.42953e+07
-5.26123e+08
-6.67399e+10
-5.9966e+07
-4.36255e+08
-6.68739e+10
-5.45684e+07
-3.35196e+08
-6.70572e+10
-4.75768e+07
-2.25668e+08
-6.72966e+10
-3.93111e+07
-1.06586e+08
-6.76006e+10
-2.95497e+07
2.1097e+07
-6.79792e+10
-1.74519e+07
1.57329e+08
-6.84422e+10
-2.34946e+06
2.99042e+08
-6.90106e+10
1.50301e+07
4.50926e+08
-6.97024e+10
3.53281e+07
6.13097e+08
-7.05351e+10
5.97389e+07
7.97371e+08
-7.15311e+10
9.42377e+07
1.01859e+09
-7.27737e+10
1.50426e+08
1.30381e+09
-7.4436e+10
2.33828e+08
1.6477e+09
-7.67267e+10
3.33746e+08
1.9759e+09
-7.97058e+10
4.31e+08
2.27058e+09
-8.30024e+10
7.36567e+08
2.50201e+09
-8.80346e+10
2.34824e+09
3.20914e+09
-9.67925e+10
5.1701e+09
3.27909e+09
-1.24159e+11
1.06284e+10
5.80321e+09
5.39675e+09
4.91503e+08
-7.75969e+10
7.47209e+08
-7.76926e+10
6.58803e+08
-7.77969e+10
6.04002e+08
-7.7901e+10
5.64299e+08
-7.80064e+10
5.25908e+08
-7.81111e+10
4.9829e+08
-7.82175e+10
4.73499e+08
-7.8325e+10
4.50035e+08
-7.84301e+10
4.21258e+08
-7.85344e+10
3.9046e+08
-7.86361e+10
3.52565e+08
-7.87317e+10
3.07138e+08
-7.88205e+10
2.51527e+08
-7.88982e+10
1.86925e+08
-7.89605e+10
1.11e+08
-7.9005e+10
2.88961e+07
-7.90315e+10
-5.7714e+07
-7.90448e+10
-1.4757e+08
-7.90424e+10
-2.41135e+08
-7.90254e+10
-3.36629e+08
-7.89947e+10
-4.30647e+08
-7.89491e+10
-5.17155e+08
-7.88939e+10
-5.93502e+08
-7.88283e+10
-6.56319e+08
-7.87637e+10
-6.99004e+08
-7.86971e+10
-7.26996e+08
-7.86376e+10
-7.35432e+08
-7.85826e+10
-7.28641e+08
-7.85385e+10
-7.04857e+08
-7.85033e+10
-6.70089e+08
-7.84805e+10
-6.20579e+08
-7.84731e+10
-5.61634e+08
-7.84816e+10
-4.92567e+08
-7.85127e+10
-4.12282e+08
-7.85702e+10
-3.23896e+08
-7.8661e+10
-2.24269e+08
-7.87947e+10
-1.15665e+08
-7.898e+10
4.21311e+06
-7.92305e+10
1.34671e+08
-7.95583e+10
2.76732e+08
-7.9975e+10
4.28284e+08
-8.05015e+10
5.96413e+08
-8.11546e+10
7.80499e+08
-8.19481e+10
9.88101e+08
-8.28854e+10
1.22603e+09
-8.39742e+10
1.5005e+09
-8.52901e+10
1.81394e+09
-8.69518e+10
2.11838e+09
-8.89169e+10
2.34436e+09
-8.97756e+10
2.24849e+09
-8.65539e+10
1.46512e+09
-7.84552e+10
-4.56622e+08
-8.41259e+10
5.78839e+09
8.93114e+09
-5.77205e+10
5.93352e+07
6.30977e+08
-5.757e+10
6.96692e+07
5.26258e+08
-5.74564e+10
6.18487e+07
5.10778e+08
-5.73787e+10
6.2948e+07
4.86778e+08
-5.73178e+10
5.73243e+07
4.61273e+08
-5.72682e+10
5.47991e+07
4.41634e+08
-5.72332e+10
5.28186e+07
4.26489e+08
-5.72065e+10
5.09779e+07
4.07162e+08
-5.71909e+10
4.8698e+07
3.86788e+08
-5.71813e+10
4.64025e+07
3.58812e+08
-5.71795e+10
4.36823e+07
3.25649e+08
-5.71843e+10
4.04468e+07
2.83397e+08
-5.71942e+10
3.63512e+07
2.29224e+08
-5.72063e+10
3.1082e+07
1.63139e+08
-5.72186e+10
2.4022e+07
8.5342e+07
-5.72122e+10
1.44278e+07
-1.14162e+07
-5.71708e+10
3.25161e+06
-1.26863e+08
-5.70865e+10
-7.86037e+06
-2.53446e+08
-5.6953e+10
-1.99067e+07
-3.91491e+08
-5.67691e+10
-3.24384e+07
-5.32667e+08
-5.65358e+10
-4.4938e+07
-6.71327e+08
-5.62512e+10
-5.64361e+07
-8.03414e+08
-5.59244e+10
-6.66197e+07
-9.17189e+08
-5.55663e+10
-7.53682e+07
-1.00933e+09
-5.51858e+10
-8.24977e+07
-1.07555e+09
-5.47953e+10
-8.79101e+07
-1.11585e+09
-5.44015e+10
-9.16952e+07
-1.13069e+09
-5.40099e+10
-9.41304e+07
-1.125e+09
-5.36225e+10
-9.56074e+07
-1.10032e+09
-5.32428e+10
-9.66178e+07
-1.06045e+09
-5.28653e+10
-9.74119e+07
-1.01077e+09
-5.24908e+10
-9.8165e+07
-9.50115e+08
-5.21126e+10
-9.86576e+07
-8.85405e+08
-5.17246e+10
-9.89658e+07
-8.15887e+08
-5.13246e+10
-9.91091e+07
-7.39746e+08
-5.09037e+10
-9.92535e+07
-6.62444e+08
-5.0459e+10
-9.80488e+07
-5.80971e+08
-4.99898e+10
-9.45089e+07
-4.93503e+08
-4.94917e+10
-8.92999e+07
-4.01777e+08
-4.89534e+10
-8.42928e+07
-3.11557e+08
-4.83705e+10
-7.76615e+07
-2.18045e+08
-4.77363e+10
-6.59302e+07
-1.23569e+08
-4.70518e+10
-4.66573e+07
-2.16084e+07
-4.62991e+10
-2.05119e+07
7.86599e+07
-4.54588e+10
1.9055e+07
1.79074e+08
-4.45105e+10
8.00773e+07
2.79984e+08
-4.34547e+10
1.79883e+08
3.53711e+08
-4.23732e+10
3.16317e+08
3.84661e+08
-4.14555e+10
4.42526e+08
4.85419e+08
-4.13118e+10
7.57872e+08
9.27365e+08
-4.25369e+10
2.40429e+09
9.55129e+08
-4.54841e+10
4.97091e+09
3.77884e+08
-4.38046e+10
1.04028e+10
-7.14064e+09
4.83257e+09
-1.23978e+10
-6.53638e+10
6.39154e+08
-6.51755e+10
5.47591e+08
-6.50317e+10
5.29868e+08
-6.49028e+10
5.06472e+08
-6.47971e+10
4.8589e+08
-6.47039e+10
4.6847e+08
-6.46241e+10
4.55269e+08
-6.45512e+10
4.37231e+08
-6.44905e+10
4.18414e+08
-6.44361e+10
3.91931e+08
-6.4391e+10
3.60704e+08
-6.43544e+10
3.20628e+08
-6.43259e+10
2.68839e+08
-6.4304e+10
2.05112e+08
-6.42907e+10
1.30749e+08
-6.42779e+10
3.96958e+07
-6.42549e+10
-6.69177e+07
-6.42148e+10
-1.83999e+08
-6.41526e+10
-3.11631e+08
-6.40688e+10
-4.41996e+08
-6.39636e+10
-5.69421e+08
-6.38342e+10
-6.90543e+08
-6.36878e+10
-7.93965e+08
-6.35313e+10
-8.76596e+08
-6.33688e+10
-9.34338e+08
-6.3209e+10
-9.67122e+08
-6.3055e+10
-9.75389e+08
-6.29095e+10
-9.6402e+08
-6.27725e+10
-9.34522e+08
-6.2647e+10
-8.90413e+08
-6.25272e+10
-8.37229e+08
-6.24144e+10
-7.73176e+08
-6.23019e+10
-7.05782e+08
-6.21828e+10
-6.33783e+08
-6.2056e+10
-5.55224e+08
-6.19122e+10
-4.74788e+08
-6.17457e+10
-3.90295e+08
-6.15472e+10
-3.00817e+08
-6.13077e+10
-2.0792e+08
-6.10155e+10
-1.13569e+08
-6.06648e+10
-1.25578e+07
-6.02342e+10
9.11598e+07
-5.9706e+10
2.01767e+08
-5.90516e+10
3.14942e+08
-5.82404e+10
4.36002e+08
-5.72368e+10
5.64985e+08
-5.59721e+10
6.75094e+08
-5.44226e+10
7.49066e+08
-5.28288e+10
9.27658e+08
-5.16598e+10
1.42653e+09
-5.00176e+10
1.73798e+09
-4.74854e+10
1.33609e+09
-2.45318e+10
-7.29428e+09
-5.60119e+09
-6.4227e+10
-3.31628e+07
7.3508e+08
-6.4341e+10
-3.41655e+07
6.84983e+08
-6.44296e+10
-4.42025e+07
6.54822e+08
-6.45245e+10
-4.85094e+07
6.41914e+08
-6.46251e+10
-5.49667e+07
6.28973e+08
-6.47292e+10
-5.97648e+07
6.17944e+08
-6.48321e+10
-6.31557e+07
6.05347e+08
-6.49375e+10
-6.64469e+07
5.92108e+08
-6.50429e+10
-6.99868e+07
5.75694e+08
-6.51475e+10
-7.35837e+07
5.50642e+08
-6.52468e+10
-7.75864e+07
5.16504e+08
-6.53359e+10
-8.20408e+07
4.68782e+08
-6.54115e+10
-8.71225e+07
4.06528e+08
-6.54716e+10
-9.32355e+07
3.30279e+08
-6.55067e+10
-1.00165e+08
2.35143e+08
-6.55197e+10
-1.07911e+08
1.24584e+08
-6.55141e+10
-1.16075e+08
1.80167e+06
-6.54894e+10
-1.25226e+08
-1.32428e+08
-6.54478e+10
-1.35911e+08
-2.7466e+08
-6.53876e+10
-1.48566e+08
-4.21922e+08
-6.53091e+10
-1.62523e+08
-5.63898e+08
-6.5216e+10
-1.77308e+08
-6.93867e+08
-6.51158e+10
-1.92891e+08
-7.98969e+08
-6.50207e+10
-2.08843e+08
-8.71904e+08
-6.49411e+10
-2.24691e+08
-9.10901e+08
-6.48885e+10
-2.39688e+08
-9.13277e+08
-6.48691e+10
-2.53356e+08
-8.8467e+08
-6.48879e+10
-2.65334e+08
-8.31329e+08
-6.49485e+10
-2.75771e+08
-7.57019e+08
-6.50488e+10
-2.84721e+08
-6.70533e+08
-6.51907e+10
-2.92585e+08
-5.74122e+08
-6.53682e+10
-2.99454e+08
-4.73142e+08
-6.55814e+10
-3.05741e+08
-3.69305e+08
-6.58259e+10
-3.11622e+08
-2.65218e+08
-6.6096e+10
-3.17285e+08
-1.61428e+08
-6.63933e+10
-3.22414e+08
-5.51051e+07
-6.67133e+10
-3.27385e+08
4.94366e+07
-6.7051e+10
-3.31908e+08
1.55753e+08
-6.7406e+10
-3.36279e+08
2.6529e+08
-6.77794e+10
-3.39657e+08
3.76292e+08
-6.81751e+10
-3.41546e+08
4.94115e+08
-6.85971e+10
-3.40746e+08
6.18194e+08
-6.90455e+10
-3.38498e+08
7.49769e+08
-6.95413e+10
-3.3302e+08
8.99098e+08
-7.01183e+10
-3.21533e+08
1.07002e+09
-7.08279e+10
-3.01464e+08
1.26739e+09
-7.17961e+10
-2.70367e+08
1.51213e+09
-7.32433e+10
-2.38532e+08
1.85755e+09
-7.53765e+10
-2.25125e+08
2.36643e+09
-7.80573e+10
-1.46435e+08
2.85418e+09
-8.2991e+10
1.18194e+09
3.41327e+09
-9.15472e+10
2.95406e+09
4.29316e+09
-1.16609e+11
9.29834e+09
6.86268e+09
7.2555e+09
-2.56712e+10
-6.20997e+10
5.40111e+08
-6.2052e+10
4.74011e+08
-6.20157e+10
4.57904e+08
-6.19884e+10
4.39503e+08
-6.19747e+10
4.26356e+08
-6.19731e+10
4.16422e+08
-6.1977e+10
4.05735e+08
-6.19908e+10
3.94425e+08
-6.20126e+10
3.80432e+08
-6.20421e+10
3.58257e+08
-6.20761e+10
3.27797e+08
-6.21109e+10
2.84362e+08
-6.2145e+10
2.26771e+08
-6.21774e+10
1.55419e+08
-6.22007e+10
6.53426e+07
-6.22153e+10
-4.08624e+07
-6.22214e+10
-1.61856e+08
-6.22172e+10
-2.963e+08
-6.22063e+10
-4.40431e+08
-6.21867e+10
-5.91354e+08
-6.21593e+10
-7.39361e+08
-6.21282e+10
-8.7784e+08
-6.20999e+10
-9.94183e+08
-6.20852e+10
-1.08118e+09
-6.20913e+10
-1.13685e+09
-6.21262e+10
-1.15885e+09
-6.21917e+10
-1.15239e+09
-6.22884e+10
-1.12358e+09
-6.24151e+10
-1.07601e+09
-6.25664e+10
-1.01795e+09
-6.27403e+10
-9.51456e+08
-6.29287e+10
-8.81496e+08
-6.31295e+10
-8.09576e+08
-6.33379e+10
-7.37879e+08
-6.35463e+10
-6.66911e+08
-6.37541e+10
-5.94675e+08
-6.39537e+10
-5.2567e+08
-6.41391e+10
-4.57112e+08
-6.43072e+10
-3.87239e+08
-6.44543e+10
-3.17354e+08
-6.45723e+10
-2.4514e+08
-6.46526e+10
-1.74528e+08
-6.46814e+10
-1.07025e+08
-6.46545e+10
-3.87317e+07
-6.4559e+10
2.56805e+07
-6.4386e+10
8.20479e+07
-6.41671e+10
1.31214e+08
-6.40046e+10
1.89347e+08
-6.39221e+10
2.74965e+08
-6.34207e+10
1.82767e+08
-6.10392e+10
-3.5617e+08
-5.70869e+10
-7.17145e+08
-5.94678e+10
3.85131e+09
3.31049e+09
-6.08455e+10
8.67358e+07
6.2643e+08
-6.08116e+10
8.92385e+07
5.75287e+08
-6.08033e+10
9.13759e+07
5.69007e+08
-6.08021e+10
9.52431e+07
5.60025e+08
-6.08139e+10
9.91928e+07
5.5678e+08
-6.0838e+10
1.04039e+08
5.5398e+08
-6.08731e+10
1.09562e+08
5.47543e+08
-6.09193e+10
1.15496e+08
5.40358e+08
-6.09739e+10
1.21957e+08
5.26498e+08
-6.10371e+10
1.28967e+08
5.03853e+08
-6.11079e+10
1.36407e+08
4.7068e+08
-6.11843e+10
1.44335e+08
4.21836e+08
-6.12663e+10
1.52904e+08
3.57893e+08
-6.13467e+10
1.62247e+08
2.72152e+08
-6.14222e+10
1.72718e+08
1.63463e+08
-6.14844e+10
1.84265e+08
3.1306e+07
-6.1518e+10
1.96061e+08
-1.26751e+08
-6.15138e+10
2.0822e+08
-3.05774e+08
-6.14676e+10
2.20895e+08
-4.99052e+08
-6.13756e+10
2.33588e+08
-7.02462e+08
-6.12328e+10
2.4613e+08
-9.04763e+08
-6.10394e+10
2.58239e+08
-1.0944e+09
-6.08043e+10
2.69169e+08
-1.25148e+09
-6.05423e+10
2.78455e+08
-1.3629e+09
-6.02723e+10
2.86128e+08
-1.42136e+09
-6.00077e+10
2.92427e+08
-1.4277e+09
-5.97609e+10
2.9787e+08
-1.38815e+09
-5.954e+10
3.02766e+08
-1.31403e+09
-5.93497e+10
3.07304e+08
-1.21353e+09
-5.91915e+10
3.11769e+08
-1.09904e+09
-5.90637e+10
3.164e+08
-9.76388e+08
-5.89632e+10
3.21637e+08
-8.52827e+08
-5.88849e+10
3.27776e+08
-7.32257e+08
-5.88249e+10
3.35235e+08
-6.16275e+08
-5.87778e+10
3.44211e+08
-5.07822e+08
-5.87357e+10
3.55124e+08
-4.06029e+08
-5.86965e+10
3.67786e+08
-3.0986e+08
-5.86519e+10
3.82936e+08
-2.21364e+08
-5.85952e+10
4.01171e+08
-1.37938e+08
-5.85149e+10
4.22464e+08
-6.44575e+07
-5.83961e+10
4.47068e+08
1.0596e+06
-5.82285e+10
4.77321e+08
6.15479e+07
-5.80017e+10
5.15362e+08
1.14933e+08
-5.77066e+10
5.65239e+08
1.66912e+08
-5.73392e+10
6.32e+08
2.14246e+08
-5.69069e+10
7.18396e+08
2.59493e+08
-5.64346e+10
8.21043e+08
3.21615e+08
-5.59621e+10
9.24622e+08
4.50189e+08
-5.55995e+10
1.02511e+09
7.50004e+08
-5.57228e+10
1.18492e+09
1.30957e+09
-5.86552e+10
2.0832e+09
3.54414e+09
-6.65714e+10
3.55252e+09
8.02487e+09
-8.89091e+10
9.70179e+09
1.94471e+10
-1.15089e+09
1.49103e+09
-5.66023e+10
5.61559e+08
-5.65524e+10
5.23879e+08
-5.65227e+10
5.30696e+08
-5.65073e+10
5.31065e+08
-5.65067e+10
5.37265e+08
-5.65195e+10
5.4628e+08
-5.65423e+10
5.51896e+08
-5.65749e+10
5.5703e+08
-5.66135e+10
5.562e+08
-5.66573e+10
5.4702e+08
-5.67036e+10
5.27486e+08
-5.67489e+10
4.92151e+08
-5.6791e+10
4.4127e+08
-5.68204e+10
3.68063e+08
-5.68298e+10
2.7034e+08
-5.68075e+10
1.47405e+08
-5.67406e+10
-2.37173e+06
-5.66208e+10
-1.73792e+08
-5.64421e+10
-3.61399e+08
-5.6199e+10
-5.6143e+08
-5.58869e+10
-7.63128e+08
-5.55069e+10
-9.55156e+08
-5.50692e+10
-1.11737e+09
-5.45915e+10
-1.23611e+09
-5.40963e+10
-1.30358e+09
-5.36012e+10
-1.31987e+09
-5.31227e+10
-1.29091e+09
-5.26724e+10
-1.22784e+09
-5.22575e+10
-1.13874e+09
-5.18813e+10
-1.03583e+09
-5.15431e+10
-9.24761e+08
-5.12399e+10
-8.12678e+08
-5.09662e+10
-7.02808e+08
-5.07172e+10
-5.96497e+08
-5.04856e+10
-4.96292e+08
-5.0262e+10
-4.0183e+08
-5.00436e+10
-3.10924e+08
-4.98218e+10
-2.25544e+08
-4.9588e+10
-1.42104e+08
-4.93333e+10
-6.22137e+07
-4.90458e+10
1.51906e+07
-4.87173e+10
9.18036e+07
-4.83357e+10
1.64249e+08
-4.78853e+10
2.33669e+08
-4.73477e+10
2.9182e+08
-4.67179e+10
3.40497e+08
-4.60269e+10
3.95054e+08
-4.53328e+10
4.63162e+08
-4.45985e+10
4.70189e+08
-4.38364e+10
3.59301e+08
-4.3644e+10
1.26399e+09
-4.60716e+10
5.21739e+09
-5.07117e+10
1.84905e+10
8.48718e+09
-6.04473e+10
3.88261e+07
6.68004e+08
-6.0561e+10
4.02188e+07
6.66045e+08
-6.06868e+10
4.00989e+07
6.72963e+08
-6.08291e+10
4.16726e+07
6.80195e+08
-6.09851e+10
4.31948e+07
6.90334e+08
-6.11539e+10
4.5738e+07
6.9921e+08
-6.13365e+10
4.87945e+07
7.04951e+08
-6.15309e+10
5.25611e+07
7.07388e+08
-6.17353e+10
5.71855e+07
7.00511e+08
-6.19485e+10
6.26559e+07
6.82911e+08
-6.21643e+10
6.90215e+07
6.48179e+08
-6.238e+10
7.62256e+07
5.94704e+08
-6.25881e+10
8.43156e+07
5.18208e+08
-6.27811e+10
9.32235e+07
4.12256e+08
-6.29525e+10
1.02682e+08
2.76447e+08
-6.30922e+10
1.12744e+08
1.08471e+08
-6.31953e+10
1.23202e+08
-8.95927e+07
-6.3255e+10
1.33775e+08
-3.159e+08
-6.32654e+10
1.44561e+08
-5.63769e+08
-6.32204e+10
1.55456e+08
-8.28923e+08
-6.31111e+10
1.66743e+08
-1.10132e+09
-6.29343e+10
1.78113e+08
-1.36493e+09
-6.2697e+10
1.89312e+08
-1.59029e+09
-6.24168e+10
2.00108e+08
-1.75538e+09
-6.21142e+10
2.1071e+08
-1.84702e+09
-6.18041e+10
2.21789e+08
-1.87031e+09
-6.14973e+10
2.33919e+08
-1.83507e+09
-6.12005e+10
2.47237e+08
-1.75854e+09
-6.09133e+10
2.61914e+08
-1.65684e+09
-6.06366e+10
2.77862e+08
-1.5415e+09
-6.03649e+10
2.95144e+08
-1.42429e+09
-6.00931e+10
3.13409e+08
-1.31196e+09
-5.98167e+10
3.32579e+08
-1.20691e+09
-5.95289e+10
3.52151e+08
-1.11323e+09
-5.92252e+10
3.71849e+08
-1.02963e+09
-5.89008e+10
3.9109e+08
-9.56646e+08
-5.85509e+10
4.09728e+08
-8.90632e+08
-5.81715e+10
4.26606e+08
-8.32868e+08
-5.77523e+10
4.40956e+08
-7.83799e+08
-5.72885e+10
4.5228e+08
-7.42765e+08
-5.67707e+10
4.61745e+08
-7.10677e+08
-5.61913e+10
4.6951e+08
-6.84114e+08
-5.5543e+10
4.76651e+08
-6.64534e+08
-5.48174e+10
4.83989e+08
-6.53418e+08
-5.40172e+10
4.9405e+08
-6.49363e+08
-5.31583e+10
5.12988e+08
-6.54291e+08
-5.22675e+10
5.51943e+08
-6.58108e+08
-5.13365e+10
6.17524e+08
-6.58052e+08
-5.01602e+10
6.80007e+08
-6.73665e+08
-4.83976e+10
7.24825e+08
-7.63664e+08
-4.51256e+10
1.0465e+09
-3.70723e+07
-4.31354e+10
3.19493e+09
3.928e+09
-5.29208e+10
1.21449e+10
1.82421e+10
6.24714e+09
1.08189e+10
-6.0076e+10
6.36094e+08
-6.01437e+10
6.43985e+08
-6.02151e+10
6.54882e+08
-6.02984e+10
6.69559e+08
-6.0392e+10
6.88305e+08
-6.04936e+10
7.08781e+08
-6.06043e+10
7.27575e+08
-6.07222e+10
7.44794e+08
-6.08451e+10
7.54665e+08
-6.09718e+10
7.55964e+08
-6.10964e+10
7.42364e+08
-6.12168e+10
7.12069e+08
-6.13262e+10
6.60497e+08
-6.14178e+10
5.80966e+08
-6.14861e+10
4.72586e+08
-6.15233e+10
3.32897e+08
-6.15267e+10
1.64295e+08
-6.14914e+10
-3.11603e+07
-6.14139e+10
-2.46814e+08
-6.12903e+10
-4.79066e+08
-6.11138e+10
-7.18967e+08
-6.08835e+10
-9.50072e+08
-6.06094e+10
-1.14322e+09
-6.03113e+10
-1.27538e+09
-6.00122e+10
-1.33306e+09
-5.97292e+10
-1.32018e+09
-5.9475e+10
-1.24673e+09
-5.92569e+10
-1.12965e+09
-5.90749e+10
-9.85219e+08
-5.89292e+10
-8.25211e+08
-5.88139e+10
-6.61402e+08
-5.87238e+10
-5.00441e+08
-5.86543e+10
-3.44803e+08
-5.85986e+10
-1.98301e+08
-5.85535e+10
-6.02208e+07
-5.85147e+10
6.85876e+07
-5.84803e+10
1.9252e+08
-5.84494e+10
3.10389e+08
-5.84161e+10
4.19865e+08
-5.83752e+10
5.21368e+08
-5.83156e+10
6.11118e+08
-5.82252e+10
6.90564e+08
-5.80922e+10
7.5619e+08
-5.79021e+10
8.04784e+08
-5.76498e+10
8.33764e+08
-5.73227e+10
8.36661e+08
-5.6892e+10
8.17813e+08
-5.63022e+10
7.67047e+08
-5.55034e+10
5.93219e+08
-5.44028e+10
2.86402e+08
-5.2119e+10
4.40579e+08
-4.63847e+10
3.22683e+09
-2.52041e+10
9.88188e+09
3.93731e+09
-6.00767e+10
1.16006e+08
6.49986e+08
-6.02121e+10
1.21529e+08
6.95887e+08
-6.03503e+10
1.15312e+08
7.12067e+08
-6.05066e+10
1.17604e+08
7.35746e+08
-6.06755e+10
1.1844e+08
7.58353e+08
-6.08556e+10
1.20162e+08
7.77502e+08
-6.10472e+10
1.21534e+08
7.94414e+08
-6.12486e+10
1.23145e+08
8.06313e+08
-6.14596e+10
1.2484e+08
8.08578e+08
-6.16747e+10
1.26367e+08
7.95134e+08
-6.18959e+10
1.27385e+08
7.67636e+08
-6.21164e+10
1.27798e+08
7.15729e+08
-6.23299e+10
1.27644e+08
6.35691e+08
-6.25315e+10
1.26977e+08
5.22233e+08
-6.27128e+10
1.26167e+08
3.71122e+08
-6.28653e+10
1.2599e+08
1.79451e+08
-6.29785e+10
1.2701e+08
-5.35225e+07
-6.30485e+10
1.29322e+08
-3.21143e+08
-6.30705e+10
1.3403e+08
-6.19349e+08
-6.30389e+10
1.41576e+08
-9.42691e+08
-6.29432e+10
1.51689e+08
-1.28642e+09
-6.27803e+10
1.64395e+08
-1.62575e+09
-6.25602e+10
1.78132e+08
-1.92132e+09
-6.23134e+10
1.91179e+08
-2.12634e+09
-6.20722e+10
2.01389e+08
-2.22352e+09
-6.18636e+10
2.08169e+08
-2.21746e+09
-6.16992e+10
2.1041e+08
-2.13431e+09
-6.15802e+10
2.07731e+08
-2.00288e+09
-6.15015e+10
2.00145e+08
-1.84634e+09
-6.14496e+10
1.87937e+08
-1.68553e+09
-6.14139e+10
1.71686e+08
-1.52955e+09
-6.13806e+10
1.51681e+08
-1.38826e+09
-6.13378e+10
1.28258e+08
-1.26206e+09
-6.12767e+10
1.01456e+08
-1.15211e+09
-6.11877e+10
7.13742e+07
-1.05733e+09
-6.10623e+10
3.74678e+07
-9.76983e+08
-6.08889e+10
-22393.1
-9.09783e+08
-6.06586e+10
-4.02682e+07
-8.55167e+08
-6.03635e+10
-8.34153e+07
-8.10892e+08
-5.99888e+10
-1.3033e+08
-7.81897e+08
-5.95251e+10
-1.8029e+08
-7.62376e+08
-5.89577e+10
-2.32505e+08
-7.55768e+08
-5.8272e+10
-2.85358e+08
-7.65948e+08
-5.74552e+10
-3.37337e+08
-7.9959e+08
-5.64946e+10
-3.85978e+08
-8.6571e+08
-5.53745e+10
-4.23836e+08
-9.86263e+08
-5.40632e+10
-4.32069e+08
-1.19138e+09
-5.25057e+10
-3.91335e+08
-1.5142e+09
-5.05633e+10
-3.54839e+08
-1.99111e+09
-4.80807e+10
-3.80622e+08
-2.44902e+09
-4.43655e+10
-3.83994e+08
-2.83142e+09
-3.6434e+10
5.5767e+08
-3.71916e+09
-1.74373e+10
4.40827e+09
-4.49287e+09
1.97499e+09
-1.86857e+09
-5.72097e+10
7.41972e+08
-5.72121e+10
7.78181e+08
-5.72434e+10
8.12031e+08
-5.72908e+10
8.45423e+08
-5.73552e+10
8.82423e+08
-5.74324e+10
9.17918e+08
-5.75241e+10
9.53264e+08
-5.7629e+10
9.86113e+08
-5.77472e+10
1.01194e+09
-5.7874e+10
1.02454e+09
-5.80122e+10
1.02497e+09
-5.81561e+10
1.00298e+09
-5.83005e+10
9.54267e+08
-5.8441e+10
8.72926e+08
-5.85684e+10
7.53826e+08
-5.86715e+10
5.93e+08
-5.87344e+10
3.88192e+08
-5.87446e+10
1.44535e+08
-5.86887e+10
-1.31557e+08
-5.85535e+10
-4.34781e+08
-5.8322e+10
-7.58819e+08
-5.79866e+10
-1.07936e+09
-5.75538e+10
-1.35615e+09
-5.70551e+10
-1.54221e+09
-5.65271e+10
-1.61826e+09
-5.60059e+10
-1.58888e+09
-5.55139e+10
-1.47913e+09
-5.50638e+10
-1.31751e+09
-5.46616e+10
-1.12762e+09
-5.43034e+10
-9.30794e+08
-5.39863e+10
-7.37234e+08
-5.3703e+10
-5.57476e+08
-5.34463e+10
-3.93096e+08
-5.32111e+10
-2.45936e+08
-5.29913e+10
-1.1577e+08
-5.27818e+10
-2.94702e+06
-5.25723e+10
9.2024e+07
-5.23505e+10
1.67831e+08
-5.21068e+10
2.24956e+08
-5.18267e+10
2.59449e+08
-5.15035e+10
2.76553e+08
-5.11247e+10
2.72681e+08
-5.06779e+10
2.44012e+08
-5.01521e+10
1.85457e+08
-4.95364e+10
8.9723e+07
-4.88059e+10
-6.35535e+07
-4.78791e+10
-3.10998e+08
-4.66166e+10
-6.95093e+08
-4.50362e+10
-1.14013e+09
-4.37715e+10
-1.11754e+09
-4.34208e+10
1.05203e+08
-3.82839e+10
-7.3816e+08
-8.16271e+09
-1.54958e+10
-1.1032e+10
-6.07553e+10
-4.37883e+07
6.99835e+08
-6.07582e+10
-5.9678e+07
7.6886e+08
-6.07725e+10
-6.47854e+07
8.01404e+08
-6.07995e+10
-6.91113e+07
8.4184e+08
-6.08368e+10
-7.45763e+07
8.80098e+08
-6.08849e+10
-8.02846e+07
9.15819e+08
-6.09446e+10
-8.68237e+07
9.51259e+08
-6.10133e+10
-9.35899e+07
9.79412e+08
-6.10925e+10
-1.00558e+08
1.00023e+09
-6.11838e+10
-1.07656e+08
1.00722e+09
-6.12821e+10
-1.14765e+08
9.95987e+08
-6.13864e+10
-1.21487e+08
9.59425e+08
-6.14917e+10
-1.27289e+08
8.8962e+08
-6.15909e+10
-1.31686e+08
7.77975e+08
-6.16767e+10
-1.34124e+08
6.19114e+08
-6.17384e+10
-1.33897e+08
4.05795e+08
-6.17661e+10
-1.31121e+08
1.37162e+08
-6.17446e+10
-1.279e+08
-1.84085e+08
-6.16603e+10
-1.25276e+08
-5.4998e+08
-6.14985e+10
-1.22588e+08
-9.56168e+08
-6.12369e+10
-1.18743e+08
-1.40354e+09
-6.08483e+10
-1.1443e+08
-1.87383e+09
-6.03282e+10
-1.10568e+08
-2.3053e+09
-5.97114e+10
-1.08331e+08
-2.61158e+09
-5.90589e+10
-1.0702e+08
-2.74465e+09
-5.84238e+10
-1.06256e+08
-2.71747e+09
-5.78401e+10
-1.05955e+08
-2.57617e+09
-5.73243e+10
-1.06771e+08
-2.36816e+09
-5.68785e+10
-1.09914e+08
-2.13176e+09
-5.64965e+10
-1.1632e+08
-1.89505e+09
-5.61666e+10
-1.26695e+08
-1.67181e+09
-5.58784e+10
-1.41412e+08
-1.4695e+09
-5.56208e+10
-1.60859e+08
-1.28894e+09
-5.5384e+10
-1.85189e+08
-1.12897e+09
-5.516e+10
-2.14363e+08
-9.87522e+08
-5.49442e+10
-2.47478e+08
-8.60017e+08
-5.47308e+10
-2.84748e+08
-7.4693e+08
-5.4517e+10
-3.26421e+08
-6.42724e+08
-5.42966e+10
-3.7207e+08
-5.49159e+08
-5.40676e+10
-4.21077e+08
-4.64804e+08
-5.3821e+10
-4.7347e+08
-3.90999e+08
-5.35504e+10
-5.29719e+08
-3.27112e+08
-5.32548e+10
-5.90858e+08
-2.74598e+08
-5.29359e+10
-6.58131e+08
-2.43564e+08
-5.26039e+10
-7.34881e+08
-2.42608e+08
-5.22669e+10
-8.25596e+08
-2.9974e+08
-5.19101e+10
-9.30475e+08
-4.70877e+08
-5.14477e+10
-1.02707e+09
-8.63582e+08
-5.05824e+10
-1.13951e+09
-1.62432e+09
-4.91705e+10
-1.0532e+09
-2.691e+09
-4.68392e+10
-5.57852e+08
-4.22517e+09
-4.3317e+10
5.12055e+08
-7.07257e+09
-2.30352e+10
-5.59617e+09
-1.87294e+10
-5.6229e+09
-1.05082e+10
-5.74988e+10
7.72308e+08
-5.76219e+10
8.48744e+08
-5.77618e+10
8.94012e+08
-5.79233e+10
9.44511e+08
-5.8105e+10
9.96258e+08
-5.83062e+10
1.04565e+09
-5.85285e+10
1.09587e+09
-5.87683e+10
1.13998e+09
-5.90263e+10
1.1777e+09
-5.93019e+10
1.20194e+09
-5.95887e+10
1.20805e+09
-5.98829e+10
1.18873e+09
-6.01764e+10
1.13585e+09
-6.04582e+10
1.04066e+09
-6.07165e+10
8.97751e+08
-6.09365e+10
6.99909e+08
-6.11056e+10
4.46821e+08
-6.12112e+10
1.41356e+08
-6.125e+10
-2.021e+08
-6.12133e+10
-5.79436e+08
-6.10851e+10
-9.91647e+08
-6.08446e+10
-1.42012e+09
-6.04943e+10
-1.80422e+09
-6.00726e+10
-2.05984e+09
-5.96418e+10
-2.14203e+09
-5.92516e+10
-2.06779e+09
-5.89309e+10
-1.88316e+09
-5.86918e+10
-1.63578e+09
-5.85337e+10
-1.36367e+09
-5.8451e+10
-1.09436e+09
-5.84358e+10
-8.40872e+08
-5.84834e+10
-6.1017e+08
-5.85907e+10
-4.02884e+08
-5.8757e+10
-2.18084e+08
-5.89844e+10
-5.28643e+07
-5.92788e+10
9.74261e+07
-5.9647e+10
2.33278e+08
-6.01054e+10
3.62952e+08
-6.06688e+10
4.8706e+08
-6.1358e+10
6.08752e+08
-6.21886e+10
7.29129e+08
-6.31843e+10
8.51302e+08
-6.4377e+10
9.75918e+08
-6.58018e+10
1.09327e+09
-6.7502e+10
1.19315e+09
-6.95296e+10
1.25277e+09
-7.19354e+10
1.23606e+09
-7.46295e+10
1.0044e+09
-7.71613e+10
2.71097e+08
-7.77249e+10
-1.48506e+09
-7.23179e+10
-5.49316e+09
-5.8921e+10
-1.32588e+10
-5.23205e+10
-2.75316e+10
-9.92969e+09
-5.9812e+10
-1.09309e+07
7.07585e+08
-5.98026e+10
-2.56101e+07
7.91576e+08
-5.98064e+10
-3.25083e+07
8.43772e+08
-5.98238e+10
-3.87328e+07
9.03767e+08
-5.98555e+10
-4.49723e+07
9.62336e+08
-5.99035e+10
-5.06941e+07
1.01998e+09
-5.99692e+10
-5.60805e+07
1.07862e+09
-6.00554e+10
-6.06465e+07
1.13217e+09
-6.01622e+10
-6.42876e+07
1.17796e+09
-6.02927e+10
-6.69406e+07
1.21223e+09
-6.0447e+10
-6.84329e+07
1.22783e+09
-6.06204e+10
-6.86159e+07
1.21273e+09
-6.08091e+10
-6.74763e+07
1.15941e+09
-6.10061e+10
-6.52433e+07
1.05609e+09
-6.11979e+10
-6.23334e+07
8.90009e+08
-6.13713e+10
-5.93193e+07
6.54101e+08
-6.15101e+10
-5.68658e+07
3.44187e+08
-6.16055e+10
-5.54156e+07
-2.91244e+07
-6.16596e+10
-5.37246e+07
-4.45869e+08
-6.16689e+10
-5.10272e+07
-9.06132e+08
-6.16161e+10
-4.65594e+07
-1.42166e+09
-6.14691e+10
-4.10494e+07
-1.99327e+09
-6.12064e+10
-3.74357e+07
-2.54419e+09
-6.08714e+10
-4.01235e+07
-2.92164e+09
-6.05497e+10
-4.94466e+07
-3.02871e+09
-6.02986e+10
-6.43267e+07
-2.91232e+09
-6.01284e+10
-7.98485e+07
-2.66828e+09
-6.0036e+10
-9.30757e+07
-2.36393e+09
-6.0008e+10
-1.02685e+08
-2.05018e+09
-6.0031e+10
-1.08297e+08
-1.75541e+09
-6.00909e+10
-1.10144e+08
-1.49332e+09
-6.0179e+10
-1.08848e+08
-1.26473e+09
-6.02878e+10
-1.05232e+08
-1.06845e+09
-6.04123e+10
-1.00136e+08
-8.99425e+08
-6.05537e+10
-9.42159e+07
-7.49146e+08
-6.07095e+10
-8.75304e+07
-6.16154e+08
-6.08841e+10
-8.04719e+07
-4.93624e+08
-6.10771e+10
-7.41447e+07
-3.79325e+08
-6.12949e+10
-6.90876e+07
-2.66528e+08
-6.15408e+10
-6.53445e+07
-1.55933e+08
-6.18207e+10
-6.31057e+07
-4.51777e+07
-6.21432e+10
-6.30245e+07
6.88073e+07
-6.25232e+10
-6.61836e+07
1.87602e+08
-6.29868e+10
-7.4702e+07
3.03995e+08
-6.3571e+10
-9.38657e+07
4.14763e+08
-6.43233e+10
-1.3217e+08
5.01765e+08
-6.53025e+10
-1.92354e+08
5.25456e+08
-6.65287e+10
-2.70643e+08
3.51536e+08
-6.79371e+10
-3.66661e+08
-2.57099e+08
-6.8481e+10
-7.79554e+08
-1.85184e+09
-6.63922e+10
-1.67292e+09
-5.18167e+09
-5.89133e+10
-2.93565e+09
-1.22289e+10
-4.37885e+10
-6.99379e+09
-2.73571e+10
-2.29125e+09
-9.89581e+09
-5.90193e+10
7.77018e+08
-5.90542e+10
8.60766e+08
-5.90983e+10
9.08236e+08
-5.91579e+10
9.67741e+08
-5.92313e+10
1.02706e+09
-5.93195e+10
1.08544e+09