/*--------------------------------*- C++ -*----------------------------------*\
| =========                 |                                                 |
| \\      /  F ield         | OpenFOAM: The Open Source CFD Toolbox           |
|  \\    /   O peration     | Version:  4.1                                   |
|   \\  /    A nd           | Web:      www.OpenFOAM.org                      |
|    \\/     M anipulation  |                                                 |
\*---------------------------------------------------------------------------*/
FoamFile
{
    version     2.0;
    format      ascii;
    class       volVectorField;
    location    "75";
    object      U;
}
// * * * * * * * * * * * * * * * * * * * * * * * * * * * * * * * * * * * * * //

dimensions      [0 1 -1 0 0 0 0];

internalField   nonuniform List<vector> 
4432
(
(-134982 -4105.91 64.866)
(-141122 -4332.93 -445.805)
(-143031 -4188.92 -427.507)
(-145514 -4364.6 -811.219)
(-147813 -4395.55 -1016.57)
(-149993 -4417.8 -1137.16)
(-151932 -4451.38 -1305.66)
(-153765 -4469.07 -1458.33)
(-155468 -4481.46 -1623.31)
(-157044 -4491.67 -1807.47)
(-158474 -4501.23 -2014.92)
(-159733 -4508.95 -2252.94)
(-160789 -4513.67 -2524.84)
(-161606 -4517.15 -2826.82)
(-162158 -4521.47 -3150.77)
(-162411 -4528.28 -3483.64)
(-162341 -4534.75 -3825.78)
(-161956 -4542.34 -4187.38)
(-161238 -4553.32 -4566.82)
(-160184 -4567.63 -4954.01)
(-158793 -4586.86 -5342.59)
(-157085 -4610.08 -5722.95)
(-155086 -4637.03 -6086.03)
(-152826 -4667.46 -6424.37)
(-150350 -4700.18 -6729.59)
(-147706 -4734.97 -6997.24)
(-144956 -4770.75 -7224.05)
(-142154 -4806.85 -7410.32)
(-139365 -4841.79 -7556.65)
(-136636 -4874.46 -7664.83)
(-134022 -4903.15 -7735.85)
(-131569 -4926.12 -7770.31)
(-129315 -4941.62 -7769.44)
(-127307 -4948.06 -7733.21)
(-125574 -4945.31 -7662.65)
(-124143 -4935.22 -7559.13)
(-123037 -4919.85 -7418.99)
(-122261 -4903.4 -7235.11)
(-121823 -4893.9 -6999.96)
(-121742 -4900.38 -6716.8)
(-122017 -4931.78 -6385.28)
(-122632 -4990.65 -5980.09)
(-123563 -5084.73 -5444.95)
(-124872 -5225.18 -4695.19)
(-127091 -5408.34 -3607.27)
(-131483 -5609.25 -2042.46)
(-138854 -5787.28 183.553)
(-146433 -5895.22 3401.32)
(-147892 -5644.7 8859.08)
(-145947 -3756.54 16819.8)
(-166422 -41.0795 29470.6)
(-239341 3182.52 41701.4)
(-275872 -10484.3 62855.9)
(-201530 -2269.8 29294.6)
(-193557 4636.18 835.06)
(-196962 4624.94 423.911)
(-198419 4774.21 196.727)
(-200121 4703.66 1.48978)
(-201568 4722.13 -196.196)
(-203005 4743.15 -326.372)
(-204269 4748.28 -481.94)
(-205444 4758.32 -630.082)
(-206533 4765.89 -790.918)
(-207528 4768.09 -964.576)
(-208408 4763.64 -1156.22)
(-209149 4753.16 -1370.86)
(-209728 4737.28 -1609.57)
(-210117 4715.55 -1867.09)
(-210297 4687.1 -2134.3)
(-210251 4653.57 -2406.09)
(-209994 4621.68 -2687.16)
(-209501 4592.74 -2978.29)
(-208765 4564.92 -3274.61)
(-207779 4538.63 -3569.49)
(-206548 4513.09 -3855.69)
(-205090 4488.81 -4124.98)
(-203427 4465.55 -4369.78)
(-201591 4443.71 -4583.39)
(-199621 4423.29 -4760.14)
(-197559 4404.73 -4897.49)
(-195456 4387.76 -4994.88)
(-193354 4373.17 -5054.36)
(-191301 4360.99 -5079.15)
(-189331 4352.22 -5073.12)
(-187479 4347.5 -5040.21)
(-185774 4347.82 -4983.81)
(-184238 4354.59 -4907.55)
(-182898 4368.45 -4814.2)
(-181771 4390.06 -4705.35)
(-180882 4420.02 -4580.57)
(-180252 4457.58 -4440.37)
(-179915 4500.82 -4285.58)
(-179914 4552.8 -4112.68)
(-180304 4614.21 -3919.2)
(-181158 4686.67 -3698.09)
(-182549 4773.77 -3431.63)
(-184543 4875.78 -3087.03)
(-187282 4992.77 -2606.74)
(-191219 5132.69 -1905.97)
(-197287 5314.28 -897.692)
(-206177 5568.5 514.244)
(-216290 5941.43 2571.39)
(-223189 6668.16 6015.49)
(-229138 8534.59 10734)
(-256729 11424.1 16397.8)
(-356357 12382.4 19755.4)
(-497774 -2649.23 40135.9)
(-381550 -5024.94 29214.5)
(-262136 -1798.35 6490.25)
(-263303 -1821.45 5761.98)
(-263877 -1863.63 5635.22)
(-264534 -1828.66 5330.4)
(-265002 -1826.8 5122.05)
(-265541 -1817.41 5013.36)
(-266029 -1810.46 4910.02)
(-266481 -1801.34 4821.44)
(-266923 -1795.02 4728.65)
(-267351 -1789.79 4626.26)
(-267761 -1788.54 4507.79)
(-268148 -1790.61 4365.37)
(-268495 -1794.59 4196.56)
(-268789 -1799.82 4003.63)
(-269032 -1804.66 3790.78)
(-269221 -1812.28 3558.84)
(-269329 -1821.86 3307.62)
(-269381 -1828.19 3051.81)
(-269378 -1829.9 2790.96)
(-269322 -1827.8 2531.76)
(-269213 -1821.42 2282.9)
(-269062 -1809.72 2057.08)
(-268880 -1792.28 1866.86)
(-268678 -1768.1 1721.98)
(-268471 -1736.49 1632.04)
(-268263 -1697.24 1600.29)
(-268070 -1649.99 1627.57)
(-267893 -1594.46 1709.6)
(-267736 -1530.23 1841.73)
(-267586 -1457.16 2017.42)
(-267438 -1374.8 2231.72)
(-267274 -1282.57 2479.62)
(-267079 -1179.78 2758.11)
(-266830 -1065.59 3064.35)
(-266499 -938.474 3393.82)
(-266059 -796.448 3741.52)
(-265473 -640.69 4099.98)
(-264694 -474.908 4455.03)
(-263653 -300.027 4789.23)
(-262290 -113.432 5093.06)
(-260569 86.3235 5365.52)
(-258445 299.518 5606.72)
(-255864 525.905 5828.01)
(-252739 767.188 6035.95)
(-249114 1028.97 6246.12)
(-245250 1315.16 6438.06)
(-241111 1608.07 6518.22)
(-235053 1891.48 6528.51)
(-224957 2217.4 6912.18)
(-210749 2745.66 8364.28)
(-209081 2339.14 9803.53)
(-208976 -2080.03 10510.3)
(-203484 -7957.99 4824.64)
(34706.1 -7446.29 4259.79)
(-310302 2404.45 4392.26)
(-310816 2301.2 3803.19)
(-311145 2230.79 3525.58)
(-311516 2222.21 3338.18)
(-311871 2194.96 3146.47)
(-312289 2176.29 3031.95)
(-312698 2158.39 2929.35)
(-313101 2145.25 2835.96)
(-313519 2132.14 2734.63)
(-313942 2120.92 2624.67)
(-314366 2109.62 2499.79)
(-314780 2099.49 2353.42)
(-315170 2092.28 2182.36)
(-315523 2089.45 1988.08)
(-315827 2092.1 1774.49)
(-316066 2095.68 1542.17)
(-316205 2097.78 1293.86)
(-316264 2099.27 1032.61)
(-316243 2101.03 762.268)
(-316137 2101.51 487.827)
(-315943 2100.95 218.872)
(-315662 2099.81 -32.986)
(-315298 2098.24 -256.234)
(-314849 2096.78 -440.494)
(-314323 2095.37 -577.713)
(-313714 2093.92 -664.511)
(-313029 2091.85 -700.56)
(-312260 2088.97 -689.395)
(-311404 2084.69 -635.401)
(-310446 2078.87 -544.136)
(-309376 2071 -419.803)
(-308175 2060.88 -265.893)
(-306825 2048.34 -84.2497)
(-305309 2033.22 124.801)
(-303604 2016.03 359.946)
(-301684 1997.63 618.947)
(-299512 1977.24 897.325)
(-297059 1952.67 1190.33)
(-294293 1923.51 1493.58)
(-291174 1891.63 1802.46)
(-287664 1855.94 2113.63)
(-283716 1815.62 2428.71)
(-279254 1771.76 2755.81)
(-274212 1726.09 3115.42)
(-268644 1680.66 3534.73)
(-262760 1628.04 4023.14)
(-256538 1539.18 4547.55)
(-248604 1395.5 5166.97)
(-236711 1228.04 6309.77)
(-221298 1173.26 8915.95)
(-215700 -1534.53 14229.7)
(-217960 -4931.88 19749.1)
(-181896 -17314.2 24115.6)
(-25042 -6053.34 1269.23)
(-229990 -2666.25 1511.85)
(-228153 -2716.04 636.606)
(-227714 -2830.78 315.841)
(-227161 -2816.79 76.0248)
(-226743 -2837.49 -176.061)
(-226439 -2860.8 -379.066)
(-226224 -2882.3 -542.13)
(-226073 -2898.25 -701.736)
(-225977 -2916.11 -870.637)
(-225928 -2932.7 -1056.13)
(-225918 -2950.12 -1270.01)
(-225941 -2967.33 -1520.25)
(-225974 -2985.22 -1811.57)
(-226002 -3005.44 -2148.91)
(-225993 -3027.46 -2532.1)
(-225931 -3050.79 -2962.96)
(-225776 -3073.16 -3437.83)
(-225458 -3093.68 -3955.94)
(-224957 -3109.53 -4508.52)
(-224255 -3119.79 -5086.58)
(-223355 -3122.37 -5672.6)
(-222268 -3116.36 -6244.61)
(-221020 -3100.24 -6780.58)
(-219645 -3071.47 -7258.69)
(-218182 -3030.34 -7663.18)
(-216679 -2977.58 -7987.39)
(-215186 -2914.82 -8231.54)
(-213743 -2843.78 -8404.18)
(-212381 -2766.31 -8516.11)
(-211120 -2684.18 -8581)
(-209970 -2599.78 -8610.6)
(-208930 -2514.55 -8614.12)
(-208001 -2429.61 -8595)
(-207178 -2344.89 -8555.32)
(-206460 -2261.23 -8496.96)
(-205848 -2180.95 -8416.61)
(-205335 -2106.24 -8312.45)
(-204921 -2033.9 -8176.55)
(-204632 -1958.9 -7991.72)
(-204506 -1880.38 -7739.35)
(-204560 -1802.72 -7402.7)
(-204772 -1729.28 -6962.21)
(-205004 -1659.21 -6393.35)
(-205218 -1578.88 -5651.16)
(-205603 -1481.6 -4667.66)
(-206707 -1355.06 -3417.97)
(-208651 -1161.75 -2035.25)
(-209063 -820.162 -802.273)
(-202056 -1.84145 125.078)
(-188339 2587.07 2501.26)
(-184318 6406.48 8885.44)
(-225922 11974.8 19048.7)
(-228500 -3695.17 26291.4)
(-158439 -667.813 8309.23)
(-261286 3154.53 2197.88)
(-260188 3198.68 1597.38)
(-259830 3135.65 1399.04)
(-259410 3193.71 1243.55)
(-259181 3216.14 1087.14)
(-259015 3233.71 955.542)
(-258907 3251.1 861.518)
(-258847 3271.53 763.557)
(-258832 3288.45 653.824)
(-258851 3304.31 525.683)
(-258903 3317.04 370.252)
(-258985 3327.02 180.427)
(-259083 3332.98 -50.2622)
(-259189 3333.07 -327.313)
(-259302 3327.74 -651.607)
(-259409 3317.25 -1019.7)
(-259497 3302.25 -1424.02)
(-259533 3284.99 -1859)
(-259472 3270.51 -2319.64)
(-259305 3259.7 -2792.92)
(-259028 3254.12 -3262.07)
(-258650 3255.51 -3707.08)
(-258185 3264.84 -4106.17)
(-257653 3283.95 -4440.45)
(-257077 3312.18 -4697.26)
(-256487 3348.76 -4873.07)
(-255911 3392.01 -4971.47)
(-255372 3440.3 -5003.58)
(-254887 3491.88 -4982.26)
(-254465 3545.38 -4922.46)
(-254111 3600.71 -4836.37)
(-253823 3657.88 -4734.68)
(-253600 3717.09 -4624.09)
(-253435 3779.49 -4508.83)
(-253319 3845.15 -4391.09)
(-253255 3912.43 -4266.59)
(-253251 3980.87 -4124.91)
(-253328 4055.21 -3954.91)
(-253514 4140.92 -3749.28)
(-253842 4240.1 -3500.98)
(-254357 4351.1 -3196.08)
(-255108 4471.9 -2815.65)
(-256127 4607.24 -2337.52)
(-257460 4771.58 -1734.94)
(-259299 4981.99 -984.411)
(-262205 5264.49 -87.6992)
(-266503 5662.12 863.691)
(-270595 6247.45 1772.2)
(-270358 7242.28 2835.05)
(-268169 9347.62 5336.22)
(-278099 11950.1 10934.4)
(-347719 12058.8 19502.2)
(-383357 440.416 16142.8)
(-368638 -25120.4 -6117.13)
(-257237 -3210.93 4366.7)
(-257894 -3302.89 4205.99)
(-258187 -3359.02 4119.39)
(-258644 -3383.98 4111.33)
(-259118 -3416.2 4094.08)
(-259602 -3454.69 4077.28)
(-260101 -3488.12 4062.25)
(-260617 -3521.04 4040.71)
(-261146 -3555.92 4001.09)
(-261681 -3590.92 3931.58)
(-262211 -3627.33 3820.98)
(-262722 -3663.95 3663.87)
(-263187 -3701.29 3450.99)
(-263584 -3739.3 3173.15)
(-263898 -3779.85 2827.85)
(-264105 -3821.92 2419.36)
(-264212 -3866.31 1958.71)
(-264239 -3913.42 1459.09)
(-264187 -3962.02 937.911)
(-264048 -4010.19 414.072)
(-263826 -4056.82 -89.0639)
(-263529 -4100.89 -541.613)
(-263179 -4139.57 -913.462)
(-262802 -4171.16 -1176.36)
(-262431 -4194.8 -1317.35)
(-262103 -4210.85 -1335.85)
(-261848 -4220.51 -1244.53)
(-261689 -4225.38 -1064.08)
(-261637 -4227.06 -818.448)
(-261690 -4226.67 -531.052)
(-261836 -4224.96 -222.135)
(-262053 -4223.15 91.7883)
(-262319 -4222.32 398.73)
(-262607 -4221.8 689.737)
(-262882 -4218.42 958.916)
(-263108 -4208.61 1203.02)
(-263241 -4186.33 1419.97)
(-263237 -4148.47 1614.8)
(-263030 -4094.7 1794.03)
(-262543 -4022.33 1963.8)
(-261704 -3928.67 2137.23)
(-260417 -3816.36 2330.44)
(-258554 -3687.5 2563.6)
(-256039 -3547.54 2859.15)
(-252953 -3403.65 3240.26)
(-249654 -3270.11 3734.17)
(-246188 -3172.93 4327.98)
(-240790 -3055.29 4822.57)
(-230583 -2772.19 4998.92)
(-215844 -2103.63 5041.84)
(-210286 -2134.13 5770.33)
(-208321 -3631.15 2787.15)
(-215622 -2418.02 -4148.6)
(1817.43 -12149.3 13127.9)
(-256702 3020.74 3726.21)
(-256601 2945.98 3480.57)
(-256674 2895.01 3478.18)
(-256813 2876.58 3432.18)
(-257073 2850.37 3410.99)
(-257359 2818.84 3392.11)
(-257681 2793.43 3375.6)
(-258053 2769.02 3348.48)
(-258466 2743.23 3307.98)
(-258910 2718.05 3240.51)
(-259377 2692.38 3136.05)
(-259851 2667.65 2988.8)
(-260312 2643.54 2792.02)
(-260738 2620.4 2537.66)
(-261109 2596.52 2220.93)
(-261406 2573.05 1844.84)
(-261604 2549.8 1415.48)
(-261723 2525.95 942.881)
(-261783 2501.74 441.441)
(-261774 2479.05 -73.0201)
(-261695 2458.88 -579.486)
(-261547 2442.01 -1051.02)
(-261339 2431.02 -1457.4)
(-261083 2427.27 -1773.52)
(-260791 2431.39 -1985.07)
(-260479 2442.73 -2091.5)
(-260157 2459.73 -2103.64)
(-259826 2480.31 -2040.02)
(-259482 2502.23 -1921.42)
(-259115 2523.41 -1768.13)
(-258711 2541.95 -1597.47)
(-258255 2555.27 -1423.54)
(-257737 2560.73 -1256.17)
(-257145 2557.28 -1101.84)
(-256473 2546.09 -961.527)
(-255715 2527.78 -833.275)
(-254852 2504.71 -715.088)
(-253860 2477.71 -601.508)
(-252713 2445.93 -483.135)
(-251395 2410.32 -347.779)
(-249888 2370.67 -179.744)
(-248159 2320.05 39.1223)
(-246150 2248.64 329.945)
(-243822 2142.24 714.897)
(-241348 1983.45 1217.02)
(-239196 1745.47 1842.4)
(-237555 1377.15 2527.67)
(-234772 906.862 3034.45)
(-227113 444.501 2936.15)
(-214659 153.846 1607.22)
(-212859 -2356.07 235.787)
(-228857 -3641.17 -8871.14)
(-206257 -28459 4933.57)
(-113485 -16444.3 4681.97)
(-241481 -2943.4 1774.62)
(-241147 -3018.64 1511.76)
(-241078 -3018.43 1449.39)
(-241014 -3019.58 1370.28)
(-241055 -3023.02 1333.8)
(-241136 -3029.58 1312.73)
(-241263 -3036.1 1297.21)
(-241430 -3043.68 1275.22)
(-241635 -3049.77 1238.25)
(-241871 -3053.08 1168.89)
(-242131 -3054.54 1052.44)
(-242405 -3053.88 883.664)
(-242678 -3049.79 652.98)
(-242936 -3042.77 351.41)
(-243163 -3034.47 -29.8516)
(-243334 -3025.26 -490.397)
(-243439 -3015.44 -1017.53)
(-243439 -3006.37 -1607.8)
(-243308 -3000.56 -2246.01)
(-243027 -3000.57 -2911.51)
(-242580 -3007.12 -3573.22)
(-241964 -3021.6 -4189.4)
(-241191 -3041.61 -4706.51)
(-240292 -3066.34 -5080.78)
(-239314 -3092.29 -5287.93)
(-238308 -3117.48 -5329.53)
(-237323 -3139.56 -5227.44)
(-236396 -3156.74 -5015.16)
(-235548 -3168 -4729.18)
(-234787 -3173.07 -4402.27)
(-234107 -3171.44 -4061.15)
(-233496 -3163.31 -3727.26)
(-232938 -3149.25 -3416.02)
(-232415 -3128.75 -3137.03)
(-231907 -3099.39 -2893.37)
(-231394 -3060.98 -2687.91)
(-230845 -3014.54 -2521.48)
(-230227 -2958.95 -2389.39)
(-229514 -2890.66 -2282.98)
(-228682 -2809.98 -2197.7)
(-227687 -2718.56 -2131.57)
(-226457 -2618.91 -2083.7)
(-224876 -2511.57 -2047.43)
(-222802 -2402.25 -2033.79)
(-220343 -2303.53 -2057.54)
(-217897 -2234.99 -2175.17)
(-215556 -2241.74 -2523.93)
(-211403 -2306.11 -3248.6)
(-201515 -2366.39 -4671.28)
(-186356 -2652.41 -7554.96)
(-180125 -4912.8 -13969.5)
(-182395 -6231.53 -15034.9)
(-211350 -16549.2 -17187.7)
(28133.4 -8620.96 -13293.3)
(-229136 3403.3 1842.81)
(-228725 3352.21 1660.44)
(-228666 3366.92 1672.76)
(-228619 3383.21 1614.78)
(-228704 3396.42 1613.17)
(-228818 3406.48 1635.99)
(-228971 3416.68 1660.37)
(-229151 3425.8 1673.74)
(-229355 3436.49 1670.72)
(-229574 3450.04 1632.91)
(-229798 3465.43 1547.16)
(-230010 3482.84 1403.18)
(-230192 3503.65 1189.69)
(-230328 3527.22 894.392)
(-230399 3552.27 508.613)
(-230392 3578.68 30.0889)
(-230299 3605.93 -531.908)
(-230069 3634.76 -1165.67)
(-229649 3664.91 -1859.29)
(-229022 3694.36 -2591.7)
(-228179 3722.54 -3333.31)
(-227120 3747.74 -4040.07)
(-225873 3771.57 -4659.18)
(-224486 3793.1 -5144.52)
(-223028 3813.5 -5471)
(-221573 3832.07 -5639.69)
(-220188 3848.82 -5672.04)
(-218920 3863.85 -5601.04)
(-217792 3878.33 -5462.34)
(-216811 3893.37 -5287.09)
(-215965 3909.43 -5100.39)
(-215235 3926.24 -4920.7)
(-214594 3943.98 -4760.1)
(-214012 3964.47 -4626.05)
(-213461 3991.48 -4522.55)
(-212904 4025.67 -4451.15)
(-212316 4065.18 -4413.47)
(-211685 4111.64 -4408.71)
(-210993 4170.72 -4433.55)
(-210230 4243.64 -4483.18)
(-209382 4328.96 -4552.42)
(-208418 4422.18 -4635.35)
(-207280 4512.44 -4727.81)
(-205935 4587.29 -4831.53)
(-204600 4626.06 -4957.81)
(-203916 4586.74 -5124.16)
(-204222 4386.92 -5382.72)
(-203619 3997.05 -5959.82)
(-197213 3466.55 -7691.4)
(-185536 2498.97 -11190.5)
(-183486 -1857.2 -15447.5)
(-220642 -7914.9 -14111)
(-207844 -31840.5 -25717)
(-91617.1 -16021.7 -10405)
(-233375 -2264.84 3266.51)
(-233303 -2272.04 3271.95)
(-233432 -2263.4 3383.11)
(-233599 -2265.83 3448.18)
(-233857 -2265.66 3534.84)
(-234176 -2261.84 3615.2)
(-234554 -2254.07 3687.29)
(-234987 -2247.03 3741.19)
(-235478 -2239.49 3767.55)
(-236024 -2228.82 3749.53)
(-236604 -2213.48 3671.19)
(-237198 -2195.91 3517.73)
(-237786 -2176.89 3275.06)
(-238342 -2158.64 2930.72)
(-238838 -2143.37 2479.18)
(-239243 -2133.31 1924.36)
(-239532 -2128.67 1283.47)
(-239697 -2129.55 579.713)
(-239721 -2136.1 -163.273)
(-239586 -2146.79 -922.923)
(-239276 -2163.55 -1667.12)
(-238784 -2185.55 -2346.07)
(-238132 -2214.3 -2886.28)
(-237376 -2248.91 -3226.24)
(-236588 -2289.36 -3335.08)
(-235834 -2334.61 -3225.25)
(-235161 -2382.59 -2935.78)
(-234591 -2429.86 -2517.33)
(-234124 -2472.55 -2018.81)
(-233748 -2506.93 -1480.01)
(-233445 -2530.45 -929.084)
(-233200 -2541.43 -384.366)
(-233000 -2539.21 144.27)
(-232835 -2523.85 653.691)
(-232699 -2496.73 1147.17)
(-232588 -2457.78 1629.8)
(-232502 -2407.89 2106.35)
(-232442 -2351.22 2589.61)
(-232404 -2294.54 3095.05)
(-232380 -2242.54 3628.77)
(-232370 -2200.36 4198.52)
(-232363 -2174.01 4805.25)
(-232321 -2170.67 5436.3)
(-232250 -2199.71 6067.04)
(-232373 -2259.87 6695.15)
(-233355 -2345.22 7304)
(-235704 -2428.46 7809.04)
(-238241 -2488.89 8030.11)
(-236887 -2504.25 7300.72)
(-231379 -2265.59 4590.32)
(-231532 -873.893 -2712.44)
(-269046 -162.615 -12662.1)
(-213318 -10803.7 -55903.6)
(-94557.4 -7958.28 -24570.8)
(-245034 3236.13 3365.18)
(-245212 3226.68 3499.87)
(-245248 3219.94 3585.99)
(-245390 3204.94 3635.62)
(-245550 3188.88 3702.92)
(-245737 3173.59 3767.64)
(-245952 3159.08 3821.2)
(-246188 3140.84 3850.37)
(-246444 3119.77 3841.85)
(-246714 3098.27 3779.92)
(-246982 3077.82 3649.29)
(-247232 3056.21 3433.9)
(-247439 3032.92 3118.37)
(-247581 3006.24 2690.57)
(-247629 2974.69 2146.6)
(-247554 2936.29 1490.6)
(-247332 2891.31 734.466)
(-246951 2839.91 -96.5902)
(-246450 2781.07 -973.226)
(-245822 2717.48 -1868.9)
(-245056 2649.13 -2750.67)
(-244144 2579 -3562.12)
(-243107 2508.17 -4228.21)
(-241998 2439.52 -4679.82)
(-240891 2373.98 -4883.62)
(-239861 2311.93 -4848.75)
(-238966 2253.56 -4613.91)
(-238244 2199.56 -4231.49)
(-237712 2150.83 -3754.1)
(-237372 2108.51 -3225.58)
(-237221 2073.38 -2678.16)
(-237251 2046.18 -2132.79)
(-237456 2027.58 -1601.01)
(-237834 2018.43 -1087.21)
(-238382 2019.09 -590.12)
(-239103 2031.62 -103.599)
(-239992 2058.05 381.051)
(-241036 2096.9 872.386)
(-242236 2143.62 1378.35)
(-243600 2196.92 1905.18)
(-245140 2255.46 2458.76)
(-246850 2316.91 3044.06)
(-248707 2378.39 3660.49)
(-250737 2438.13 4306.98)
(-253210 2496.65 4989.47)
(-256806 2563.14 5721.92)
(-262032 2667.27 6495.29)
(-267647 2835.49 7128.52)
(-270189 3107.57 6977.74)
(-270420 3643.4 5296.64)
(-283251 4226.88 1868.2)
(-337184 2511.7 -5425.66)
(-372712 -15950.3 -48020.6)
(-335049 -16514.5 -6830.47)
(-227014 -2014.19 937.713)
(-227416 -1998.25 990.546)
(-227785 -2012.37 1112.71)
(-228251 -2027.72 1204.73)
(-228789 -2040.86 1308.47)
(-229390 -2048.35 1407.45)
(-230044 -2053.89 1496.95)
(-230747 -2062.43 1566.57)
(-231503 -2075.94 1599.4)
(-232307 -2092.6 1580.18)
(-233138 -2113.23 1495.4)
(-233975 -2139.43 1324.07)
(-234792 -2171.32 1047.4)
(-235556 -2208.86 649.273)
(-236226 -2250.68 119.574)
(-236762 -2294.78 -544.925)
(-237100 -2332.98 -1331.87)
(-237189 -2357.43 -2219.54)
(-237001 -2366.04 -3180.17)
(-236503 -2357.81 -4186.79)
(-235656 -2332.03 -5210.68)
(-234423 -2282.96 -6179.9)
(-232831 -2208.52 -6978.25)
(-231001 -2106.71 -7481.58)
(-229125 -1983.01 -7637.98)
(-227394 -1845.97 -7482)
(-225950 -1706.12 -7095.78)
(-224869 -1573.37 -6570.11)
(-224167 -1456.01 -5982.55)
(-223820 -1360.04 -5388.26)
(-223784 -1288.95 -4820.78)
(-224011 -1244.43 -4296.66)
(-224454 -1226.27 -3819.66)
(-225073 -1233.02 -3385.71)
(-225835 -1263.15 -2987.1)
(-226716 -1315.74 -2614.33)
(-227697 -1392.29 -2260.07)
(-228766 -1490.73 -1911.24)
(-229921 -1608.05 -1554.91)
(-231171 -1746.22 -1181.85)
(-232526 -1907.42 -776.471)
(-233983 -2094.07 -325.259)
(-235528 -2310.04 187.808)
(-237198 -2561.02 792.712)
(-239275 -2848.37 1552.79)
(-242478 -3168.97 2582.3)
(-247477 -3496 4099.25)
(-253341 -3780.72 6221.91)
(-256762 -4024.1 9020.81)
(-259386 -4057.63 13063.5)
(-278867 -2009.25 17516.7)
(-358574 -161.731 18968)
(-458680 -8211.2 -24219.3)
(-396752 16080.4 -26156.6)
(-233191 4003.68 3281.76)
(-232698 4078.51 3329.2)
(-232370 4066.89 3365.8)
(-232042 4065.37 3385.39)
(-231739 4057.77 3409.15)
(-231455 4051.39 3425.93)
(-231191 4042.17 3425.96)
(-230946 4024.95 3401.86)
(-230724 3997.5 3337.81)
(-230525 3961.3 3218.8)
(-230348 3915.27 3029.25)
(-230185 3857.3 2750.77)
(-230026 3786.78 2365.23)
(-229858 3703.38 1857.61)
(-229662 3607.48 1217.57)
(-229412 3500.44 442.078)
(-229085 3384.97 -458.302)
(-228648 3264.32 -1458.14)
(-228050 3137.82 -2543.58)
(-227248 3001.96 -3698.75)
(-226207 2854.59 -4896.39)
(-224896 2699.2 -6072.69)
(-223336 2537.33 -7112.59)
(-221636 2374.02 -7893.59)
(-219955 2211.08 -8357.05)
(-218443 2048.89 -8525.85)
(-217204 1885.83 -8469.87)
(-216286 1718.99 -8272.24)
(-215690 1544.8 -8007.55)
(-215389 1360.04 -7731.18)
(-215350 1161.8 -7478.44)
(-215538 948.246 -7268.63)
(-215927 718.283 -7108.67)
(-216500 471.523 -6997.76)
(-217253 207.421 -6930.77)
(-218187 -75.6266 -6903.58)
(-219318 -380.799 -6916.02)
(-220672 -708.707 -6959.09)
(-222278 -1059.76 -7013.82)
(-224165 -1437.19 -7064.26)
(-226378 -1847.04 -7091.21)
(-228951 -2295.21 -7071.67)
(-231907 -2788.49 -6979.68)
(-235321 -3335.97 -6785.84)
(-239544 -3944.43 -6441.59)
(-245419 -4613.17 -5861.82)
(-253818 -5332.87 -4857.74)
(-264058 -6089.42 -3267.89)
(-273233 -6855.78 -1353.02)
(-282923 -7330.62 -83.6999)
(-319609 -6398.43 1715.15)
(-413892 -6390.06 5770.86)
(-538430 -12093.5 11536.6)
(-505499 128724 11250.2)
(-241723 -4042.84 939.389)
(-242251 -4117.57 1225.51)
(-242683 -4171.61 1383.58)
(-243238 -4245.23 1580.01)
(-243863 -4311.39 1765.57)
(-244556 -4373.05 1951.76)
(-245314 -4434 2125.87)
(-246142 -4496.05 2270.44)
(-247045 -4557.29 2363.53)
(-248011 -4615.2 2385.98)
(-249024 -4670.08 2313.93)
(-250065 -4720.88 2119.9)
(-251103 -4765.67 1778.04)
(-252098 -4803.09 1265.6)
(-253003 -4831.94 566.979)
(-253763 -4849.25 -324.036)
(-254345 -4854.55 -1398)
(-254723 -4850.05 -2626.05)
(-254878 -4841.34 -3969.01)
(-254774 -4838.13 -5396.98)
(-254330 -4844.25 -6885.85)
(-253426 -4865.18 -8352.93)
(-251997 -4904.03 -9610.6)
(-250124 -4963.7 -10426.8)
(-248009 -5041.42 -10692.5)
(-245873 -5129.14 -10474.1)
(-243878 -5218.89 -9922.75)
(-242127 -5309.78 -9190.12)
(-240660 -5402.75 -8402.05)
(-239475 -5500.65 -7643.26)
(-238546 -5606.29 -6961.5)
(-237834 -5722.3 -6377.55)
(-237294 -5850.39 -5894.22)
(-236883 -5991.34 -5504.7)
(-236557 -6145.15 -5198.79)
(-236281 -6312.29 -4965.89)
(-236018 -6492.72 -4796.84)
(-235739 -6687.11 -4682.82)
(-235415 -6895.9 -4618.28)
(-235024 -7116.32 -4604.25)
(-234544 -7343.57 -4640.08)
(-233943 -7573.76 -4718.72)
(-233169 -7804.14 -4832.75)
(-232205 -8037.99 -4970.36)
(-231238 -8291.28 -5088.95)
(-230828 -8596.8 -5086.59)
(-231509 -8979.27 -4740.69)
(-232314 -9485.22 -3720.99)
(-230410 -10219.5 -1631.2)
(-227061 -11491.3 1700.03)
(-238820 -12908.4 10331.4)
(-303578 -17803.6 34725.2)
(-452335 948.28 80351.8)
(-387181 13324 6314.21)
(-229860 4141 3812.34)
(-229816 4217.18 3907.1)
(-229807 4223.23 3970.83)
(-229862 4230.9 4053.23)
(-229948 4239.02 4136.24)
(-230084 4251.71 4220.26)
(-230273 4264.34 4292.79)
(-230516 4275.22 4341.77)
(-230819 4286.81 4350.98)
(-231177 4303.29 4300.03)
(-231581 4325.35 4164.86)
(-232014 4353.38 3918.03)
(-232452 4387.89 3531.05)
(-232856 4428.8 2977.31)
(-233182 4475.11 2235.46)
(-233373 4526.39 1295.51)
(-233367 4582.86 166.479)
(-233115 4638.74 -1121.63)
(-232557 4683.41 -2538.22)
(-231634 4707.44 -4046.93)
(-230256 4708.06 -5619.3)
(-228296 4676.87 -7170.35)
(-225696 4608.62 -8503.83)
(-222570 4501.39 -9378.54)
(-219183 4363.13 -9671.66)
(-215818 4209.21 -9443.46)
(-212680 4054.34 -8845.22)
(-209879 3911.29 -8035.3)
(-207455 3783.6 -7147.75)
(-205396 3669.84 -6275.34)
(-203668 3566.3 -5472.17)
(-202225 3468.94 -4764.65)
(-201020 3374.36 -4159.65)
(-200010 3279.43 -3653.63)
(-199155 3182.39 -3236.66)
(-198418 3081.11 -2894.89)
(-197763 2976.2 -2611.57)
(-197157 2870.7 -2374.89)
(-196569 2766.71 -2179)
(-195968 2669.05 -2013.92)
(-195320 2584.57 -1867.77)
(-194568 2516.55 -1726.49)
(-193619 2465.17 -1571.41)
(-192405 2423.56 -1381.08)
(-191107 2366.46 -1118.08)
(-190335 2243.76 -710.519)
(-190577 2010.19 -36.2996)
(-190121 1640.6 974.356)
(-184525 895.21 2581.31)
(-174488 -1135.61 5633.75)
(-181931 -3335.17 11611.4)
(-225332 -4448.11 22339.7)
(-263981 4547.46 73668)
(-193692 2636.6 24809.9)
(-233500 -4492.34 1909.81)
(-233561 -4553.79 2316.58)
(-233788 -4577.75 2473.48)
(-234062 -4621.37 2706.3)
(-234426 -4645.25 2922.76)
(-234845 -4661.2 3140.89)
(-235334 -4671.16 3346.5)
(-235899 -4673.85 3523.53)
(-236548 -4664.56 3658.28)
(-237277 -4641.85 3734.94)
(-238082 -4605.67 3725.34)
(-238954 -4555.98 3598.01)
(-239874 -4493.38 3319.02)
(-240815 -4419.7 2854.73)
(-241742 -4338.31 2178.23)
(-242610 -4254.2 1277.5)
(-243372 -4174.62 156.364)
(-244016 -4104.66 -1160.94)
(-244549 -4047.03 -2632.38)
(-244981 -4002.77 -4232.84)
(-245236 -3970.35 -5957.58)
(-245133 -3953.65 -7744.02)
(-244549 -3962.78 -9333.03)
(-243624 -4011.89 -10324.9)
(-242681 -4103.42 -10485)
(-241941 -4226.77 -9922.56)
(-241435 -4364.23 -8886.43)
(-241099 -4502.38 -7611.31)
(-240843 -4631.92 -6284.6)
(-240581 -4748.95 -5021.04)
(-240253 -4853.37 -3882.04)
(-239820 -4947.98 -2891.93)
(-239262 -5037.01 -2053.77)
(-238569 -5124.79 -1359)
(-237738 -5215.31 -793.658)
(-236768 -5312.32 -343.299)
(-235656 -5418.37 5.89284)
(-234398 -5534.77 270.871)
(-232984 -5662.64 470.573)
(-231392 -5799.02 614.742)
(-229595 -5934.04 713.379)
(-227546 -6053.36 786.396)
(-225165 -6140.82 848.651)
(-222362 -6183.81 928.016)
(-219213 -6166.46 1071.49)
(-216101 -6078.63 1378.31)
(-213307 -5926.12 2020.47)
(-209320 -5664.46 3212.64)
(-200366 -5401.42 5176.77)
(-184563 -5655.94 8606.13)
(-179044 -6806.32 19259)
(-187402 -570.115 39880.8)
(-208856 25044.1 116539)
(-152716 14137.9 37346.4)
(-240032 5066.25 3866.14)
(-240130 5174.87 4024.8)
(-240276 5215.8 4071.72)
(-240508 5263.56 4172.2)
(-240793 5320.31 4259.98)
(-241152 5383.98 4339.44)
(-241588 5450.12 4403.75)
(-242105 5519.74 4439.25)
(-242712 5596.78 4431.23)
(-243413 5682.18 4359.89)
(-244202 5775.12 4198.17)
(-245066 5874.61 3914.7)
(-245982 5979.03 3475.42)
(-246910 6085.75 2846.86)
(-247796 6191.47 2000.62)
(-248570 6291.98 920.774)
(-249149 6383.1 -386.252)
(-249461 6463.44 -1891.9)
(-249485 6533.58 -3566.57)
(-249252 6595.69 -5401.5)
(-248671 6650.67 -7401.25)
(-247540 6694.29 -9505.7)
(-245711 6712.03 -11460.5)
(-243314 6680.59 -12852.6)
(-240726 6585.67 -13411.5)
(-238295 6430.15 -13209.8)
(-236193 6231.94 -12482)
(-234474 6010.35 -11462.5)
(-233122 5782.18 -10347)
(-232081 5558.63 -9259.13)
(-231291 5345.17 -8266.88)
(-230693 5142.98 -7399.28)
(-230239 4950.54 -6662.06)
(-229890 4765.08 -6045.4)
(-229612 4583.13 -5530.62)
(-229379 4401.15 -5099.59)
(-229163 4216.33 -4737.68)
(-228935 4026.66 -4427.47)
(-228671 3831.93 -4149.45)
(-228341 3635.38 -3880.7)
(-227907 3444.39 -3595.12)
(-227313 3270.83 -3263.36)
(-226462 3127.13 -2867.79)
(-225274 3034.51 -2350.8)
(-223867 3002.94 -1633.08)
(-222708 3035.75 -605.506)
(-222167 3132.01 872.41)
(-220857 3237.04 2961.5)
(-215141 3099.91 5963.51)
(-204614 2624.88 10293)
(-202600 2061.29 17892)
(-212080 2687.54 29829.3)
(-205361 15305.7 83149.6)
(-45506 8243.95 41168.4)
(-222398 -4326.31 -815.57)
(-221799 -4251.09 -300.716)
(-221645 -4193.26 -54.3937)
(-221460 -4136.36 264.395)
(-221388 -4070.07 604.443)
(-221376 -4005.21 973.327)
(-221455 -3939.17 1363.96)
(-221632 -3872.44 1764.74)
(-221916 -3804.88 2160.28)
(-222318 -3738.93 2522.83)
(-222842 -3675.61 2810.18)
(-223487 -3616.43 2967.42)
(-224238 -3562.73 2929.16)
(-225065 -3515.71 2625.72)
(-225920 -3475.96 1994.15)
(-226728 -3443.83 991.975)
(-227390 -3424.41 -382.572)
(-227741 -3413.95 -2087.05)
(-227751 -3405.21 -4028.39)
(-227440 -3398.36 -6153.14)
(-226709 -3397.07 -8494.46)
(-225170 -3404.22 -11080.9)
(-222392 -3426.91 -13621.6)
(-218538 -3470.98 -15370.7)
(-214541 -3533.44 -15719.3)
(-211350 -3605.56 -14867.6)
(-209285 -3680.25 -13465.6)
(-208257 -3759.93 -11933.5)
(-208019 -3845.6 -10504.1)
(-208298 -3935.35 -9261.25)
(-208879 -4026.29 -8224.02)
(-209618 -4115.22 -7379.58)
(-210421 -4200.18 -6706.02)
(-211234 -4277.86 -6180.63)
(-212027 -4343.03 -5784.41)
(-212783 -4392.34 -5502.09)
(-213491 -4425.29 -5322.34)
(-214136 -4439.26 -5234.64)
(-214702 -4428.76 -5228.03)
(-215173 -4390.64 -5292.38)
(-215516 -4322.03 -5404.53)
(-215666 -4216.17 -5518.05)
(-215516 -4060.43 -5577.22)
(-214951 -3843.39 -5524.14)
(-214034 -3546.35 -5244.14)
(-213182 -3152.65 -4522.01)
(-212598 -2626.09 -3064.22)
(-210491 -1889.2 -527.027)
(-202523 -875.94 3328.9)
(-187356 146.605 9972.92)
(-177606 866.739 22110)
(-183218 4902.17 40000.6)
(-176011 19274.2 97324.6)
(-31249.2 7600.4 40522.2)
(-242739 5461.26 4023.06)
(-242218 5502.47 4409.54)
(-242035 5517.45 4609.93)
(-241847 5533.43 4874.75)
(-241747 5548.61 5153.2)
(-241716 5557.22 5456.08)
(-241762 5558.65 5783.44)
(-241899 5551.78 6123.43)
(-242136 5535.89 6459.15)
(-242483 5508.22 6765.06)
(-242943 5467.64 7003.43)
(-243509 5413.49 7124.3)
(-244164 5346.43 7067.23)
(-244873 5268.37 6766.79)
(-245581 5183.71 6161.78)
(-246214 5099.34 5209.58)
(-246680 5021.45 3900.77)
(-246903 4959.29 2283.48)
(-246876 4923.23 440.748)
(-246625 4921.48 -1586.97)
(-246064 4964.02 -3840.03)
(-244869 5060.23 -6344.06)
(-242715 5218.95 -8864.63)
(-239782 5439.34 -10770.5)
(-236831 5698.36 -11503.6)
(-234521 5950.81 -11195)
(-232996 6159.21 -10369.1)
(-232139 6307.66 -9372.71)
(-231746 6392.02 -8416.77)
(-231610 6417.99 -7586.33)
(-231586 6393.71 -6908.22)
(-231576 6327.31 -6377.35)
(-231523 6225.71 -5976.3)
(-231398 6096.89 -5682.14)
(-231183 5948.83 -5474.71)
(-230850 5784.87 -5336.8)
(-230377 5606.02 -5248.51)
(-229746 5415.64 -5188.66)
(-228929 5218.83 -5145.62)
(-227891 5020.11 -5115.64)
(-226586 4821.74 -5086.07)
(-224933 4627.61 -5044.35)
(-222807 4444.55 -4969.85)
(-220077 4279.74 -4822.51)
(-216763 4143.14 -4532.32)
(-213174 4038.54 -3981.67)
(-209476 3982.06 -2998.88)
(-204086 3998.52 -1270.83)
(-193084 4088.19 1922.29)
(-175753 4147.67 8072.04)
(-163143 4343.25 15661.9)
(-190846 5863.11 25182.3)
(-159129 13968.1 51077.8)
(84278 4059.1 19953.7)
(-234870 -3810.02 836.426)
(-234295 -3753.51 1539.81)
(-233967 -3709.01 1919.54)
(-233654 -3668.93 2364.21)
(-233423 -3630.18 2820.8)
(-233281 -3596.47 3291.19)
(-233249 -3564.01 3761.27)