/*--------------------------------*- C++ -*----------------------------------*\
| =========                 |                                                 |
| \\      /  F ield         | OpenFOAM: The Open Source CFD Toolbox           |
|  \\    /   O peration     | Version:  4.1                                   |
|   \\  /    A nd           | Web:      www.OpenFOAM.org                      |
|    \\/     M anipulation  |                                                 |
\*---------------------------------------------------------------------------*/
FoamFile
{
    version     2.0;
    format      ascii;
    class       volScalarField;
    location    "64";
    object      p;
}
// * * * * * * * * * * * * * * * * * * * * * * * * * * * * * * * * * * * * * //

dimensions      [0 2 -2 0 0 0 0];

internalField   nonuniform List<scalar> 
4432
(
100921
100921
100922
100924
100927
100930
100934
100939
100945
100951
100959
100967
100975
100984
100992
101000
101007
101013
101019
101031
101048
101066
101086
101108
101132
101158
101181
101199
101212
101223
101230
101236
101243
101252
101260
101258
101253
101258
101264
101267
101270
101273
101280
101287
101292
101297
101289
101290
101302
101293
101251
101218
101210
101229
100921
100921
100922
100924
100927
100930
100934
100939
100945
100951
100959
100967
100975
100984
100992
101000
101007
101013
101019
101031
101048
101067
101087
101109
101134
101159
101181
101199
101213
101224
101232
101239
101244
101251
101257
101257
101255
101256
101261
101268
101273
101276
101279
101283
101288
101303
101298
101287
101292
101287
101252
101229
101197
101218
100920
100920
100920
100922
100925
100928
100932
100936
100942
100948
100956
100964
100973
100983
100994
101007
101024
101043
101059
101070
101082
101099
101116
101132
101149
101165
101182
101198
101214
101228
101238
101244
101247
101247
101245
101240
101239
101246
101255
101266
101269
101267
101272
101281
101289
101294
101296
101298
101302
101296
101282
101261
101127
101265
100920
100920
100920
100922
100925
100928
100932
100936
100942
100949
100956
100964
100973
100983
100994
101006
101023
101043
101060
101071
101082
101098
101114
101130
101146
101163
101180
101196
101212
101225
101234
101238
101241
101247
101247
101243
101242
101247
101257
101267
101271
101270
101273
101282
101288
101294
101297
101297
101303
101299
101279
101263
101114
101263
100918
100918
100919
100921
100924
100927
100931
100935
100941
100947
100955
100963
100972
100982
100993
101005
101019
101032
101046
101061
101078
101096
101112
101129
101145
101163
101183
101201
101219
101236
101246
101253
101262
101266
101256
101240
101238
101250
101265
101277
101274
101266
101272
101283
101292
101298
101306
101306
101300
101287
101277
101267
101263
101316
100918
100918
100919
100921
100924
100927
100931
100935
100941
100947
100955
100963
100972
100982
100993
101005
101019
101032
101046
101061
101078
101095
101111
101127
101144
101162
101181
101200
101218
101234
101245
101249
101254
101259
101258
101247
101244
101251
101262
101272
101275
101269
101274
101284
101291
101297
101303
101307
101303
101291
101277
101258
101247
101333
100916
100916
100917
100918
100921
100924
100928
100932
100938
100944
100952
100960
100969
100979
100989
101000
101012
101024
101039
101056
101074
101091
101107
101123
101142
101164
101187
101208
101230
101249
101263
101276
101295
101293
101267
101229
101220
101239
101261
101282
101273
101259
101270
101285
101295
101303
101313
101314
101308
101290
101274
101272
101278
101267
100916
100916
100917
100919
100921
100924
100928
100932
100938
100944
100952
100960
100969
100979
100989
101000
101012
101024
101038
101056
101073
101091
101107
101123
101142
101164
101187
101208
101230
101249
101262
101274
101289
101288
101272
101246
101239
101249
101264
101275
101271
101263
101270
101283
101295
101304
101312
101315
101306
101292
101277
101273
101258
101256
100913
100913
100914
100916
100918
100921
100925
100929
100935
100941
100948
100957
100965
100975
100985
100995
101007
101019
101032
101047
101063
101081
101098
101116
101137
101164
101191
101218
101244
101266
101283
101304
101324
101326
101353
101201
101202
101226
101252
101289
101283
101257
101274
101288
101300
101308
101309
101315
101324
101316
101305
101273
101262
101323
100913
100913
100914
100916
100918
100921
100925
100929
100935
100941
100948
100957
100965
100975
100985
100995
101007
101019
101032
101046
101063
101081
101098
101116
101139
101165
101192
101218
101246
101269
101285
101302
101318
101315
101300
101249
101228
101238
101263
101288
101288
101266
101273
101284
101296
101307
101316
101321
101320
101311
101296
101286
101246
101302
100909
100910
100910
100912
100915
100918
100921
100925
100930
100937
100944
100952
100960
100969
100979
100989
101000
101011
101023
101037
101054
101071
101087
101105
101127
101155
101185
101215
101246
101273
101293
101317
101350
101496
101758
101323
101204
101206
101227
101238
101241
101280
101291
101294
101300
101310
101311
101319
101332
101336
101326
101282
101263
101321
100909
100910
100910
100912
100915
100918
100921
100925
100930
100937
100944
100952
100960
100969
100979
100989
101000
101011
101023
101037
101053
101071
101088
101105
101128
101156
101185
101214
101245
101273
101292
101306
101323
101366
101400
101283
101215
101219
101243
101271
101283
101276
101281
101289
101297
101305
101312
101320
101328
101327
101318
101285
101275
101338
100905
100906
100906
100908
100910
100913
100917
100921
100926
100932
100939
100946
100954
100963
100972
100982
100992
101004
101015
101028
101043
101060
101077
101092
101110
101136
101168
101196
101224
101251
101278
101315
101397
101752
101605
101531
101235
101224
101237
101243
101250
101284
101297
101300
101305
101314
101318
101322
101331
101339
101341
101311
101267
101304
100905
100906
100906
100908
100910
100913
100917
100921
100926
100932
100939
100946
100954
100963
100972
100982
100992
101003
101015
101029
101044
101061
101077
101094
101112
101138
101166
101193
101222
101250
101273
101296
101330
101413
101488
101338
101209
101211
101235
101250
101262
101276
101289
101297
101303
101308
101309
101315
101326
101333
101329
101303
101290
101307
100901
100901
100902
100903
100905
100908
100911
100915
100920
100926
100932
100940
100947
100956
100964
100974
100984
100995
101007
101019
101033
101048
101063
101077
101089
101108
101138
101163
101184
101202
101223
101252
101284
101380
101403
101302
101236
101229
101239
101251
101263
101276
101290
101297
101303
101311
101315
101314
101318
101330
101343
101327
101285
101308
100901
100901
100902
100903
100905
100908
100911
100915
100920
100926
100932
100940
100947
100956
100964
100974
100984
100995
101007
101020
101033
101048
101063
101078
101092
101112
101136
101158
101180
101203
101222
101246
101283
101322
101363
101290
101226
101226
101244
101262
101272
101277
101284
101293
101303
101310
101309
101309
101318
101332
101342
101322
101289
101315
100896
100896
100896
100898
100900
100903
100905
100909
100914
100919
100925
100932
100940
100947
100956
100965
100975
100986
100998
101010
101022
101034
101046
101057
101067
101075
101095
101117
101140
101162
101183
101205
101239
101268
101295
101255
101230
101233
101245
101253
101262
101273
101286
101299
101307
101310
101309
101304
101305
101319
101339
101332
101305
101322
100896
100896
100896
100898
100900
100903
100905
100909
100914
100919
100925
100932
100940
100947
100956
100965
100975
100986
100998
101010
101022
101034
101046
101057
101066
101078
101096
101116
101137
101159
101180
101206
101240
101269
101291
101274
101251
101246
101254
101266
101277
101281
101283
101291
101304
101311
101308
101304
101310
101327
101341
101327
101303
101332
100890
100890
100891
100892
100894
100896
100899
100902
100906
100912
100917
100924
100931
100938
100947
100956
100966
100976
100988
100999
101010
101019
101027
101033
101037
101039
101051
101075
101103
101129
101154
101184
101219
101250
101282
101282
101272
101267
101269
101274
101282
101288
101297
101310
101320
101321
101312
101301
101298
101310
101332
101336
101328
101324
100890
100890
100891
100892
100894
100896
100899
100902
100906
100912
100917
100924
100931
100938
100947
100956
100966
100976
100988
100999
101010
101019
101027
101031
101034
101039
101053
101076
101102
101128
101154
101183
101218
101254
101283
101289
101283
101281
101285
101291
101296
101296
101297
101305
101318
101322
101312
101301
101302
101314
101330
101334
101325
101337
100884
100884
100884
100886
100887
100889
100892
100895
100899
100903
100909
100915
100921
100929
100936
100945
100955
100966
100977
100989
100999
101006
101010
101006
100998
100993
101007
101039
101074
101106
101138
101173
101210
101248
101282
101301
101309
101318
101326
101332
101335
101335
101333
101333
101334
101335
101326
101308
101294
101299
101321
101330
101312
101262
100884
100884
100884
100886
100887
100889
100892
100895
100899
100903
100909
100915
100921
100929
100936
100945
100955
100966
100977
100989
100999
101006
101009
101005
100996
100993
101010
101041
101073
101105
101138
101174
101212
101250
101282
101300
101311
101323
101335
101344
101346
101344
101337
101334
101337
101337
101325
101307
101297
101303
101320
101329
101299
101270
100877
100877
100878
100879
100880
100882
100884
100887
100890
100894
100899
100905
100911
100918
100925
100934
100944
100955
100967
100980
100991
100999
100998
100982
100947
100928
100949
100995
101038
101076
101115
101156
101198
101241
101279
101312
101339
101364
101383
101391
101387
101376
101363
101351
101342
101339
101333
101317
101297
101290
101302
101315
101302
101273
100877
100877
100878
100879
100880
100882
100884
100887
100890
100894
100899
100905
100911
100918
100925
100934
100944
100955
100967
100980
100991
100998
100997
100980
100944
100927
100952
100996
101037
101075
101115
101157
101200
101241
101279
101312
101341
101367
101387
101396
101393
101381
101366
101352
101345
101342
101331
101313
101297
101294
101306
101316
101295
101302
100870
100871
100871
100872
100873
100874
100876
100878
100881
100885
100889
100894
100899
100906
100913
100921
100931
100943
100957
100972
100988
100999
100997
100966
100884
100843
100874
100939
100995
101040
101084
101132
101180
101230
101280
101330
101375
101411
101435
101440
101426
101403
101380
101364
101352
101345
101338
101325
101305
101289
101287
101292
101286
101266
100870
100871
100871
100872
100873
100874
100876
100878
100881
100885
100889
100894
100900
100906
100913
100921
100931
100943
100957
100972
100988
100999
100995
100959
100872
100838
100882
100945
100997
101040
101085
101132
101181
101230
101281
101331
101377
101414
101439
101442
101427
101404
101381
101365
101355
101347
101337
101320
101301
101290
101289
101292
101285
101261
100863
100863
100864
100864
100865
100866
100868
100869
100872
100875
100878
100882
100887
100892
100899
100907
100916
100928
100944
100965
100991
101021
101038
100984
100807
100686
100772
100883
100952
100999
101049
101101
101155
101214
101280
101347
101410
101458
101491
101491
101462
101423
101392
101373
101362
101352
101342
101328
101308
101288
101277
101276
101274
101262
100863
100863
100864
100864
100865
100866
100868
100869
100872
100875
100878
100882
100887
100892
100899
100907
100916
100928
100944
100965
100991
101020
101036
100975
100770
100695
100787
100884
100951
101002
101051
101102
101155
101215
101280
101345
101411
101458
101509
101504
101467
101421
101388
101369
101358
101350
101341
101325
101305
101287
101278
101277
101278
101258
100856
100856
100856
100856
100857
100858
100859
100860
100862
100864
100867
100870
100874
100878
100883
100890
100898
100910
100926
100950
100988
101055
101124
101129
100623
100381
100601
100827
100914
100950
101000
101058
101118
101187
101267
101354
101438
101492
101554
101556
101502
101436
101394
101372
101359
101348
101337
101324
101307
101288
101274
101268
101270
101258
100856
100856
100856
100856
100857
100858
100859
100860
100862
100864
100867
100870
100874
100878
100883
100890
100898
100910
100926
100950
100987
101052
101118
101106
100446
100515
100685
100839
100914
100960
101009
101062
101119
101186
101271
101361
101451
101474
101551
101559
101497
101428
101391
101372
101359
101347
101335
101321
101303
101286
101274
101270
101274
101257
100848
100848
100848
100848
100849
100849
100850
100850
100851
100853
100854
100857
100859
100862
100866
100871
100877
100887
100900
100919
100949
100997
101116
101392
100385
100603
100808
100880
100896
100934
100989
101051
101130
101231
101343
101461
101499
101568
101615
101545
101452
101397
101369
101348
101331
101319
101309
101297
101283
101270
101261
101264
101250
100848
100848
100848
100848
100849
100849
100850
100850
100851
100853
100854
100857
100859
100862
100866
100871
100877
100887
100900
100919
100949
100995
101111
101374
100332
100632
100814
100885
100911
100949
100998
101055
101132
101220
101352
101470
101456
101439
101586
101530
101447
101398
101369
101345
101327
101315
101306
101294
101281
101270
101263
101266
101253
100841
100841
100841
100840
100840
100841
100840
100840
100840
100841
100842
100843
100844
100845
100847
100849
100853
100858
100865
100874
100882
100879
100839
100762
100441
100487
100777
100903
100899
100879
100888
100914
100956
101031
101139
101256
101386
101416
101477
101653
101580
101477
101405
101356
101320
101297
101285
101279
101275
101270
101264
101258
101262
101245
100841
100841
100841
100840
100841
100841
100840
100840
100840
100841
100842
100843
100844
100845
100847
100849
100853
100858
100865
100873
100881
100877
100834
100749
100456
100551
100819
100914
100899
100884
100896
100921
100958
101020
101077
101249
101258
101499
101436
101451
101469
101439
101396
101354
101320
101297
101284
101278
101274
101268
101263
101257
101262
101248
100833
100833
100833
100832
100832
100832
100831
100830
100830
100829
100829
100828
100828
100827
100827
100827
100827
100827
100827
100825
100818
100799
100763
100693
100627
100643
100789
100862
100869
100865
100857
100848
100852
100907
101078
101251
101225
101433
101711
101508
101460
101427
101369
101314
101276
101253
101243
101242
101246
101250
101255
101256
101269
101252
100833
100833
100833
100832
100832
100832
100831
100830
100830
100829
100829
100828
100828
100827
100827
100827
100827
100827
100827
100825
100818
100798
100762
100692
100620
100655
100800
100865
100866
100859
100852
100846
100848
100879
100932
101164
100962
101341
101801
100838
101262
101400
101370
101319
101279
101256
101245
101242
101245
101248
101253
101256
101266
101249
100826
100826
100825
100825
100824
100823
100822
100820
100819
100817
100816
100814
100812
100809
100806
100803
100799
100795
100789
100781
100768
100747
100720
100680
100637
100635
100688
100744
100779
100794
100790
100768
100741
100740
100852
101118
102161
101298
100413
100761
101262
101380
101327
101266
101227
101209
101202
101204
101211
101221
101232
101241
101264
101249
100826
100826
100825
100825
100824
100823
100822
100820
100819
100817
100816
100814
100812
100809
100806
100803
100799
100795
100789
100781
100767
100747
100719
100680
100639
100644
100697
100748
100773
100782
100778
100760
100743
100667
100818
101151
101657
99489.1
99961.1
99482.1
100272
101201
101321
101273
101229
101209
101204
101206
101212
101220
101231
101241
101265
101255
100819
100819
100818
100817
100816
100814
100813
100810
100808
100805
100803
100799
100795
100791
100786
100780
100772
100764
100754
100740
100723
100701
100674
100642
100611
100599
100615
100644
100664
100674
100671
100657
100549
100611
100676
99666.4
98908.2
98463.6
98638.9
99314.4
100253
101116
101246
101182
101155
101149
101153
101163
101176
101191
101204
101212
101230
101216
100819
100819
100818
100817
100816
100814
100813
100810
100808
100805
100803
100799
100795
100791
100786
100780
100772
100764
100754
100740
100723
100701
100674
100643
100613
100603
100619
100645
100659
100664
100663
100658
100666
100696
100633
100207
102020
99068.9
98787.3
98925.9
99614.1
100601
101163
101189
101154
101144
101150
101163
101177
101191
101201
101209
101239
101240
100812
100812
100811
100809
100808
100806
100804
100801
100797
100794
100790
100785
100780
100773
100766
100757
100746
100734
100720
100702
100682
100657
100628
100598
100569
100548
100541
100540
100535
100535
100536
100569
100315
100532
100954
100300
98240.2
98151.4
98788.9
99328.8
99906.1
100662
101021
101051
101065
101080
101098
101119
101145
101173
101196
101207
101226
101245
100812
100812
100811
100810
100808
100806
100804
100801
100797
100794
100790
100785
100780
100773
100766
100757
100746
100734
100720
100703
100682
100657
100629
100598
100569
100549
100541
100538
100530
100525
100525
100576
100549
100623
100876
99433.2
99535.9
98548.3
98983
99434.7
100045
100618
100883
100996
101059
101079
101096
101120
101147
101173
101189
101201
101212
101206
100805
100805
100804
100803
100801
100798
100795
100792
100788
100783
100778
100772
100765
100756
100746
100735
100722
100706
100688
100667
100642
100614
100582
100547
100511
100477
100446
100419
100393
100391
100421
100686
100470
99544.7
99516.7
99016.2
98133.7
98424.8
99119.4
99676.4
100020
100336
100821
100928
100981
101011
101039
101071
101111
101155
101194
101217
101256
101277
100805
100805
100804
100803
100801
100798
100795
100792
100788
100783
100778
100772
100765
100756
100746
100735
100722
100706
100688
100667
100642
100614
100582
100547
100511
100476
100445
100416
100387
100364
100337
100407
100670
99834.9
95856.8
96258.1
97755.8
98406.4
99201
99802.5
100229
100429
100665
100874
100977
101015
101041
101072
101113
101155
101191
101212
101225
101249
100799
100799
100798
100796
100794
100791
100788
100783
100778
100773
100766
100759
100750
100740
100728
100715
100699
100680
100658
100633
100604
100571
100533
100490
100443
100392
100339
100285
100234
100213
100320
100541
100770
99652.7
97680
97463
98018.5
98707.6
99264.4
99578
99831.4
100046
100499
100816
100912
100949
100978
101016
101065
101117
101166
101203
101239
101242
100799
100799
100798
100796
100794
100791
100788
100783
100778
100773
100766
100759
100750
100740
100728
100715
100699
100680
100659
100633
100604
100571
100533
100490
100443
100392
100339
100284
100223
100179
100107
100370
100531
99488.1
96612.1
97103.9
98012.7
98766.6
99316.5
99625
99926.3
100145
100439
100769
100903
100949
100981
101018
101065
101117
101169
101205
101241
101265
100794
100794
100792
100790
100788
100785
100780
100776
100770
100763
100756
100747
100737
100726
100712
100696
100677
100656
100631
100602
100568
100529
100484
100432
100372
100304
100228
100133
100037
99830.9
100108
100198
100396
91492.7
93589.5
96739
98261.3
99106.8
99333.2
99297.6
99502.4
99890.6
100344
100676
100807
100871
100911
100955
101010
101069
101138
101186
101228
101258
100794
100794
100792
100790
100788
100785
100780
100776
100770
100763
100756
100747
100737
100726
100712
100696
100677
100656
100631
100602
100568
100529
100484
100431
100372
100304
100227
100137
100031
99893.1
99802.8
99894.3
97829
96801.5
96738.9
97509.7
98539.2
99243.8
99372
99271.5
99513.1
99959.1
100369
100660
100799
100868
100914
100958
101011
101068
101134
101188
101215
101207
100789
100789
100787
100785
100782
100779
100774
100769
100762
100755
100747
100737
100726
100713
100697
100679
100658
100634
100606
100573
100535
100489
100437
100375
100303
100217
100116
99984.8
99819.5
99500.4
99010
100318
96137.8
92684.8
95323.3
97917.4
99486.4
100013
99661.2
99230.2
99361.5
99784
100212
100523
100685
100787
100845
100895
100950
101012
101089
101160
101217
101259
100789
100789
100787
100785
100782
100779
100774
100769
100762
100755
100747
100737
100726
100713
100697
100679
100658
100634
100606
100573
100534
100489
100437
100375
100302
100217
100115
99995.7
99830.7
99589.4
99286.5
98941.3
96422.5
94267.3
96535.2
98420.5
99745.7
100148
99685.3
99183.9
99345
99851.6
100274
100521
100675
100780
100845
100899
100951
101005
101079
101153
101206
101260
100785
100785
100783
100781
100778
100774
100769
100763
100756
100748
100739
100728
100716
100701
100684
100665
100642
100615
100584
100547
100504
100454
100394
100323
100239
100137
100013
99856
99643.9
99349.8
98782.8
98510.3
100044
100218
99742.2
100459
101274
101100
100085
99185.6
99184.4
99618.9
100056
100390
100590
100716
100792
100842
100889
100933
100971
101039
101174
101287
100785
100785
100783
100781
100778
100774
100769
100763
100756
100748
100739
100728
100716
100701
100684
100665
100642
100615
100584
100547
100504
100454
100394
100323
100238
100136
100005
99859.3
99674.9
99435.7
99136.5
98434
97095
97709.7
99230.8
100619
101503
101214
100091
99137.5
99159.3
99666.3
100104
100388
100579
100709
100788
100845
100892
100932
100966
100995
101132
101274
100782
100781
100780
100777
100774
100770
100764
100758
100751
100742
100732
100721
100708
100692
100674
100653
100628
100599
100565
100526
100479
100424
100358
100279
100185
100070
99929.5
99756
99520.7
99222.5
98729.6
98129.6
98374.9
99654.5
99804.1
100551
101487
101326
100228
99070.6
98989.9
99483.3
100001
100340
100531
100660
100761
100819
100862
100882
100890
100935
101023
101237
100782
100781
100780
100777
100774
100770
100764
100758
100751
100742
100733
100721
100708
100692
100674
100653
100628
100599
100565
100526
100479
100423
100358
100279
100184
100064
99927.2
99757
99528.9
99247.3
98979.4
97857.8
97418.5
98658.1
99817.9
101015
101689
101328
100238
99100
98961.7
99488.3
100023
100352
100532
100654
100752
100819
100876
100912
100918
100893
100906
101199
100779
100779
100777
100774
100771
100766
100761
100754
100747
100738
100727
100715
100701
100685
100666
100643
100617
100587
100551
100509
100459
100400
100330
100245
100144
100022
99872.7
99684
99438.5
99124.7
98739.6
98121.8
97771.6
98284.1
97856
99019.1
100213
100592
100192
99410.9
99216.9
99628.3
100090
100407
100542
100651
100753
100809
100850
100868
100903
100897
100762
101125
100779
100779
100777
100774
100771
100766
100761
100754
100747
100738
100727
100715
100701
100685
100666
100644
100617
100587
100551
100509
100459
100400
100329
100245
100144
100021
99879.4
99689.9
99432.6
99116.9
98698.1
98066.4
97773
98294.9
99034.1
99748.3
99811.1
100077
99976.9
99493.7
99267.4
99600.3
100081
100422
100565
100650
100741
100811
100864
100900
100959
100940
100681
101027
100778
100777
100775
100772
100769
100764
100759
100752
100744
100735
100724
100712
100697
100680
100660
100637
100610
100578
100541
100497
100445
100384
100310
100222
100117
99988.8
99832
99636.4
99389.3
99077.6
98711.4
98219.3
97760.9
97151.2
96320
96457.5
95800.3
95896.8
96455.2
97856.8
98881
99757.2
100218
100501
100650
100745
100807
100838
100863
100891
100972
100966
100659
100954
100778
100777
100775
100773
100769
100764
100759
100752
100744
100735
100724
100712
100697
100680
100661
100637
100610
100578
100541
100497
100445
100383
100310
100222
100117
99989.3
99834.3
99643.4
99391.2
99068.1
98725.9
98237.8
97788
97621.2
97127.1
96211.2
95159.1
95371.4
96131.1
97670.9
98957.8
99765.5
100216
100498
100649
100747
100807
100842
100867
100905
101027
101061
100680
100915
100776
100776
100774
100771
100768
100763
100757
100751
100743
100733
100722
100710
100695
100678
100658
100634
100606
100574
100536
100491
100438
100375
100300
100210
100102
99971.1
99810.8
99612.8
99366.4
99060.6
98689.4
98214.8
97622.2
97059.4
96470.6
95211.6
93010.4
92299.9
93140.6
95362
97643.6
99117.6
99881.7
100278
100558
100742
100818
100843
100860
100885
100911
100870
100783
100967
100776
100776
100774
100771
100768
100763
100757
100751
100743
100733
100722
100710
100695
100678
100658
100634
100606
100574
100536
100491
100438
100375
100300
100210
100102
99971.4
99811.7
99615.4
99369.2
99064.6
98710.4
98280.3
97802.3
97123.6
95855.6
94235.3
92985.6
92480.1
93222.2
95239.3
97552.7
99116.7
99887.4
100269
100532
100731
100825
100847
100864
100895
100929
100892
100792
100941
100715
101114
100571
101517
101520
100554
100490
100543
100449
100354
100535
101099
100491
101522
101478
100530
100338
100499
100328
100343
101390
100835
100498
100810
100422
100492
100363
100486
100309
100402
100291
101362
100802
100410
100801
100387
100328
100340
100374
100319
100356
100372
100907
100979
100896
101031
100914
101021
100894
100740
100789
100724
100724
100642
100693
100612
100882
100970
100874
101010
100852
101006
100826
100714
100762
100711
100623
100574
100583
100557
101190
101122
101186
101171
101320
101170
101322
100546
100673
100604
100672
100583
100473
100446
100539
100354
100366
100320
100364
101178
101116
101177
101167
101307
101162
101312
100198
100584
100380
100462
100372
100588
100538
100617
100313
100405
100361
100484
101202
101115
101204
100981
100966
100979
100958
100623
101404
101093
101090
100677
100362
100422
100406
100328
100404
100351
100438
100337
100449
101196
101108
101198
100975
100949
100974
100950
100562
101373
101085
100564
101078
100330
100329
100434
100370
100493
100378
100481
100428
100518
100603
100756
100599
100721
100616
100722
100620
100260
100448
100332
100521
100501
100528
100524
100598
100747
100596
100723
100623
100723
100626
100396
100457
100412
100535
100535
100537
100535
101005
100918
100695
100909
101047
100996
100671
100855
100894
100989
101358
101438
101529
101444
101374
101156
101199
101357
101442
101526
101443
101354
101151
101145
100497
100572
100624
100636
100419
100545
100572
100536
100443
100426
100430
100557
100508
100416
100511
100387
100377
100400
100417
100922
100816
100527
100815
101024
100956
100493
100793
100786
100937
101362
101423
101505
101330
101445
101193
101129
101350
101434
101495
101433
101340
101176
101131
100150
100343
100399
100418
100107
100251
100387
100362
100372
100317
100403
100371
100197
100155
100343
100356
100319
100366
100301
100302
100361
100610
101399
101087
101084
100588
100279
100234
100341
100592
100478
100585
100393
100324
100451
100555
100260
100573
100399
100463
100460
100415
100445
100333
100325
100363
100404
100320
100349
100327
100363
100464
100473
100455
100389
100348
100444
100409
100350
100439
100205
100209
100578
101370
101069
101074
100605
100231
100277
100210
100547
100393
100236
100535
100228
100394
100522
100535
100284
100322
100320
100303
100329
100301
100308
100334
100323
100325
100332
100316
100334
100335
100384
100346
100345
100362
100316
100351
100368
100351
100334
101197
101060
101125
101266
101055
101266
101205
101153
101013
101099
101243
101000
101167
101246
101190
101120
101031
101258
101044
101263
101185
100578
100624
100557
100446
100610
100437
100593
100540
100550
100570
100440
100582
100433
100486
101166
101107
101012
101270
101011
101261
101166
100446
100552
100511
100449
100497
100469
100447
100418
100504
100463
100416
100471
100433
100390
100749
100913
100750
100830
100904
100745
100757
100731
100888
100822
100717
100895
100706
100736
100343
100366
100357
100281
100319
100337
100373
100298
100285
100272
100349
100284
100298
100336
100668
100878
100703
100795
100677
100867
100693
100682
100880
100800
100696
100875
100698
100691
100304
100290
100358
100348
100303
100295
100350
100305
100329
100363
100352
100316
100337
100318
100599
100619
100501
100573
100637
100554
100559
100406
100306
100277
100406
100399
100211
100254
100349
100594
100581
100639
100571
100642
100575
100576
100133
100365
100259
99803.3
100423
100040
99915.7
99907.2
99786.5
99950.1
99805.6
100247
100315
100541
100101
100334
100481
100023
99793.9
99682.5
99756.3
99698
101063
100822
100872
100632
100827
101053
100884
101282
101535
101546
101293
101274
101526
101531
101263
101075
100632
100874
100886
100844
100889
101071
100390
100419
101111
100789
100548
100856
100822
101045
100842
101356
101556
101472
101290
101346
101552
101503
101213
101130
100550
100836
100835
101062
100830
100849
100323
100328
100597
100948
100600
101016
100960
100574
100619
100447
100347
100315
100465
100424
100247
100280
100399
100596
101017
100959
100655
100962
100620
100651
100523
100937
100578
100981
100555
100919
100545
100284
99967.5
100051
100309
100335
100213
100380
100162
100512
100972
100913
100469
100909
100536
100560
101579
101409
101562
101358
101409
101562
101576
101638
101620
101632
101624
101630
101615
101621
101625
101587
101369
101411
101570
101414
101574
101566
101160
101169
101578
101408
101365
101564
101408
101576
101563
101638
101633
101628
101616
101584
101369
101423
101579
101411
101563
101588
101630
101620
101628
101616
101151
101149
100423
100580
100416
100464
100490
100553
100334
100136
99855
100016
99992.4
100191
100150
100270
100087
100398
100421
100556
100213
100385
100524
100277
100561
100566
100484
100520
100489
100548
100534
100499
100475
100490
100516
100524
100489
100468
100477
100455
100502
100499
100554
100539
100515
100541
100514
100498
100471
100433
100446
100497
100480
100469
100481
100451
100457
100402
100383
100400
100398
100434
100446
100437
100420
100457
100440
100425
100415
100440
100425
100418
100436
100843
100912
100420
100861
100417
100411
100153
99874.5
99912.2
100171
100386
100969
100906
100613
100866
100449
100477
100212
99870.9
99928.6
100181
100325
100825
100480
100936
100339
100821
100451
100090
99871.8
99810.8
100144
100083
99824.1
100109
99796.8
100329
100884
100821
100449
100813
100404
100406
101637
101392
101416
101710
101384
101619
101645
101857
101643
101542
101606
101593
101394
101427
101710
101375
101598
101602
101719
101717
101564
101712
101222
101218
101639
101392
101685
101343
101367
101591
101659
101691
101583
101653
101603
101673
101646
101672
101649
101629
101341
101379
101650
101357
101723
101558
101199
101144
100045
100339
99745.4
100131
100020
100347
99740.9
99661.4
99737.8
99648.1
99742.8
99687.4
99655
99679
99636.3
99985.4
100105
100277
99722.2
100305
99718.4
100003
100302
100351
100359
100365
100400
100365
100400
100375
100357
100381
100371
100389
100365
100386
100377
100421
100407
100403
100412
100389
100356
100337
100348
100347
100165
100163
100343
100393
100350
100312
100371
100358
100326
100353
100347
100346
100365
100350
100331
100347
100336
100333
100299
100352
100330
100354
100323
100340
100308
100305
101056
100823
100862
100607
101046
100829
100866
101267
101530
101258
101522
101268
101528
101261
101529
101063
100603
100830