/*--------------------------------*- C++ -*----------------------------------*\
| =========                 |                                                 |
| \\      /  F ield         | OpenFOAM: The Open Source CFD Toolbox           |
|  \\    /   O peration     | Version:  4.1                                   |
|   \\  /    A nd           | Web:      www.OpenFOAM.org                      |
|    \\/     M anipulation  |                                                 |
\*---------------------------------------------------------------------------*/
FoamFile
{
    version     2.0;
    format      ascii;
    class       volVectorField;
    location    "64";
    object      U;
}
// * * * * * * * * * * * * * * * * * * * * * * * * * * * * * * * * * * * * * //

dimensions      [0 1 -1 0 0 0 0];

internalField   nonuniform List<vector> 
4432
(
(39.982 0.000135777 0.0503799)
(39.9164 0.000118214 0.0900605)
(39.819 0.000463394 0.118666)
(39.6846 0.000513183 0.146405)
(39.5098 0.000335706 0.175351)
(39.2963 0.000214869 0.205742)
(39.0452 0.00020212 0.237912)
(38.7551 0.000213554 0.271407)
(38.4227 0.000193752 0.306256)
(38.0469 0.000108725 0.341873)
(37.6282 -2.48027e-05 0.37634)
(37.1696 -0.000121291 0.410026)
(36.6755 -0.000461895 0.436585)
(36.1634 -0.000661469 0.455745)
(35.6348 -0.00387091 0.448718)
(35.2074 -0.00829263 0.393934)
(34.8423 -0.00722387 0.434174)
(34.6976 -0.00430762 0.339426)
(34.7647 -0.00266079 0.248457)
(34.7086 0.00114473 0.393951)
(34.4475 -0.00221171 0.500223)
(34.0724 -0.0123349 0.627483)
(33.5945 -0.0231465 0.703409)
(33.0534 -0.0325259 0.69245)
(32.4528 -0.0398016 0.672822)
(31.8191 -0.0454909 0.54494)
(31.2411 -0.0412688 0.340899)
(30.7477 -0.0264305 0.124262)
(30.3798 -0.0170676 0.0327336)
(30.1286 -0.0204624 0.0360144)
(29.9474 -0.0348926 0.150666)
(29.7569 -0.0516895 0.382578)
(29.4665 -0.0556633 0.46185)
(29.163 -0.0294917 0.0779572)
(29.0452 0.0131215 -0.696017)
(29.0564 0.0404664 -1.09595)
(29.1505 0.0435008 -1.01625)
(29.0909 0.0216308 -0.895314)
(28.8922 0.0270274 -0.743893)
(28.7425 0.0460339 -0.57356)
(28.6644 0.0333429 -0.49617)
(28.5742 0.0104473 -0.524911)
(28.3725 -0.0120747 -0.459986)
(28.0721 -0.011395 -0.382224)
(27.8357 0.0105594 -0.347311)
(27.6594 0.04164 -0.352935)
(27.6133 0.0244141 -0.321331)
(27.7575 -0.0455955 -0.378715)
(27.7747 -0.0251838 -0.426665)
(27.7982 0.0283186 -0.49962)
(28.2268 0.0631122 -0.403186)
(29.0874 0.0588906 -0.651025)
(29.6039 0.019812 -0.943941)
(30.0144 0.184853 -0.112171)
(39.9822 0.000135784 0.0503828)
(39.9166 0.00011817 0.0900852)
(39.819 0.000463331 0.118778)
(39.684 0.000513698 0.146477)
(39.509 0.000336591 0.175326)
(39.2957 0.000215535 0.205743)
(39.0447 0.000202741 0.23786)
(38.7545 0.000214168 0.27134)
(38.422 0.000194456 0.306235)
(38.0461 0.000109252 0.341722)
(37.6274 -2.3967e-05 0.376364)
(37.1688 -0.000120529 0.409772)
(36.6752 -0.000461393 0.437301)
(36.1577 -0.000662837 0.455665)
(35.6328 -0.00385687 0.45495)
(35.1555 -0.00834938 0.403306)
(34.7831 -0.00729876 0.383556)
(34.6821 -0.00430525 0.294539)
(34.755 -0.00267152 0.240945)
(34.73 0.00104096 0.407012)
(34.4711 -0.00232679 0.488553)
(34.092 -0.0124125 0.546525)
(33.6227 -0.0232794 0.586727)
(33.0748 -0.0329702 0.577429)
(32.4516 -0.0406485 0.563884)
(31.7783 -0.0473058 0.425935)
(31.1404 -0.0448603 0.235965)
(30.6046 -0.030786 0.0994598)
(30.1836 -0.0218129 0.00702153)
(29.8587 -0.0272875 -0.109326)
(29.6769 -0.0436805 -0.250257)
(29.56 -0.0656998 -0.28631)
(29.4204 -0.0721894 -0.139895)
(29.1917 -0.0469647 -0.00693466)
(29.0636 0.000523753 -0.278269)
(29.011 0.0328132 -0.568011)
(29.0312 0.0398037 -0.515952)
(28.9356 0.0154136 -0.502925)
(28.784 0.0155238 -0.441706)
(28.6243 0.045186 -0.352203)
(28.4754 0.0446142 -0.275396)
(28.326 0.0260574 -0.241068)
(28.0929 0.00168167 -0.161321)
(27.8178 0.000551572 -0.115014)
(27.5764 0.024056 -0.108149)
(27.337 0.0564315 -0.171626)
(27.171 0.043618 -0.0846109)
(27.3313 -0.0346738 -0.00254054)
(27.4577 -0.00878402 -0.0350417)
(27.5643 0.0620358 -0.153363)
(28.0774 0.0660496 -0.332217)
(28.8442 0.0523007 -0.588461)
(29.4331 0.00464876 -0.816382)
(30.1268 0.174926 0.000357819)
(40.008 0.000139471 0.0180381)
(40.0324 9.2977e-05 0.0556458)
(40.0607 0.000444784 0.0948923)
(40.0863 0.000500211 0.134459)
(40.1062 0.000329587 0.17449)
(40.1226 0.00022388 0.215597)
(40.1377 0.00025214 0.258209)
(40.1506 0.000330668 0.302575)
(40.1587 0.00036559 0.348811)
(40.16 0.000317691 0.396709)
(40.1529 0.000165645 0.445574)
(40.134 -0.000113822 0.493403)
(40.0995 -0.000291274 0.537718)
(40.0335 -0.000568159 0.567996)
(39.9294 0.00203638 0.591672)
(39.6699 0.00365783 0.562669)
(39.3386 0.00590625 0.445195)
(38.6357 0.00611647 0.367674)
(37.6539 -0.00134803 0.414379)
(36.8362 -0.00295241 0.475367)
(36.1408 -9.57735e-06 0.545642)
(35.5252 0.00325305 0.629374)
(34.9896 0.00623794 0.71291)
(34.4744 0.00892512 0.804428)
(33.9787 0.0103072 0.871654)
(33.4922 0.0115837 0.872885)
(33.0005 0.013487 0.819825)
(32.4795 0.0198499 0.750722)
(31.8919 0.0323025 0.656212)
(31.3246 0.0391768 0.520683)
(30.8094 0.0432917 0.395817)
(30.3277 0.0465889 0.370228)
(29.9527 0.04597 0.345316)
(29.7277 0.0373909 0.252291)
(29.6285 0.0171546 0.216714)
(29.567 -0.0176325 0.373927)
(29.4897 -0.0637109 0.596645)
(29.3016 -0.0990859 0.717151)
(29.0554 -0.102442 0.71011)
(28.761 -0.0989963 0.543272)
(28.4885 -0.115544 0.39622)
(28.3781 -0.152845 0.461349)
(28.2458 -0.177116 0.554342)
(28.0992 -0.191484 0.579528)
(28.0107 -0.198464 0.553323)
(27.9754 -0.192658 0.440641)
(27.9648 -0.191743 0.406129)
(28.0177 -0.181294 0.204615)
(27.8512 -0.16237 0.0733547)
(27.9643 -0.214597 0.0142019)
(28.0754 -0.169231 -0.378381)
(27.7927 -0.066266 -0.60897)
(29.1493 0.0496375 -0.768532)
(30.2792 0.10691 -1.77694)
(40.0082 0.00013947 0.0180351)
(40.0326 9.29808e-05 0.05564)
(40.0608 0.000444791 0.0948746)
(40.0858 0.000500224 0.134421)
(40.1055 0.000329598 0.174456)
(40.1221 0.000223937 0.215598)
(40.1374 0.000252037 0.258275)
(40.1503 0.00033119 0.302697)
(40.1583 0.000364774 0.348977)
(40.1593 0.000317346 0.39682)
(40.152 0.000163285 0.445526)
(40.1329 -0.00011244 0.493387)
(40.0979 -0.000309457 0.537055)
(40.0356 -0.000498131 0.570533)
(39.9301 0.00170228 0.58275)
(39.7283 0.00371417 0.553165)
(39.3913 0.00638356 0.463521)
(38.6713 0.00616986 0.357444)
(37.6678 -0.0014191 0.398725)
(36.8274 -0.00281233 0.466661)
(36.1521 8.76732e-05 0.525408)
(35.5414 0.00339605 0.598335)
(35.0053 0.00652265 0.667294)
(34.4969 0.00958023 0.742757)
(34.0099 0.0113601 0.802627)
(33.5426 0.0136347 0.80264)
(33.0615 0.0174052 0.783988)
(32.543 0.0233929 0.755257)
(32.0157 0.0332569 0.664937)
(31.5251 0.0448866 0.50712)
(31.0323 0.0584734 0.365741)
(30.4954 0.0736467 0.314107)
(30.0301 0.0690595 0.261187)
(29.7704 0.0528426 0.19031)
(29.6925 0.0220587 0.142109)
(29.6626 -0.0204579 0.240416)
(29.6747 -0.0703723 0.385579)
(29.5963 -0.107507 0.488602)
(29.4255 -0.111316 0.510036)
(29.2911 -0.108462 0.442069)
(29.1631 -0.126332 0.365078)
(29.1605 -0.155598 0.421043)
(29.1169 -0.182835 0.486836)
(29.0255 -0.193334 0.492181)
(28.9734 -0.199231 0.444415)
(28.9577 -0.190979 0.317108)
(28.9536 -0.187922 0.296813)
(28.9404 -0.179091 0.236054)
(28.9563 -0.18901 0.067988)
(28.826 -0.208698 -0.191417)
(28.6805 -0.112792 -0.676692)
(28.6919 -0.0407536 -0.804888)
(30.0457 0.0432475 -0.773752)
(31.0682 0.0989545 -1.7017)
(39.9998 0.000137758 0.0252607)
(39.9877 8.65285e-05 0.0720986)
(39.9609 0.000430638 0.116382)
(39.9156 0.000482006 0.158955)
(39.8502 0.000314972 0.201322)
(39.7671 0.000222144 0.244483)
(39.6689 0.000262833 0.289005)
(39.5553 0.000342383 0.335251)
(39.425 0.000362449 0.383475)
(39.2774 0.000270897 0.433713)
(39.1128 4.77285e-05 0.48578)
(38.9318 -0.000244741 0.539298)
(38.7326 -0.000586361 0.593864)
(38.5154 -0.00059817 0.64919)
(38.2617 -0.00085126 0.708107)
(38.017 0.000451831 0.782078)
(37.6484 0.000531687 0.831768)
(37.3031 0.00319877 0.9498)
(36.9356 0.00189095 1.1204)
(36.5275 0.00184686 1.22868)
(36.0694 0.0029757 1.27208)
(35.5882 0.00485659 1.28566)
(35.1157 0.00741896 1.30936)
(34.6387 0.0115081 1.34595)
(34.1558 0.013786 1.37883)
(33.6587 0.0172377 1.36017)
(33.1127 0.0240114 1.29219)
(32.4953 0.0336936 1.22725)
(31.797 0.0413322 1.08988)
(31.0738 0.0383451 0.940715)
(30.2718 0.0374049 0.912583)
(29.4288 0.0527443 0.939581)
(28.7074 0.0944778 0.85068)
(28.0472 0.16336 0.559934)
(27.6213 0.211837 -0.0802768)
(27.7945 0.0709731 -0.104138)
(27.7142 -0.0874858 0.252553)
(27.4463 -0.155296 0.446269)
(26.9644 -0.155612 0.556681)
(26.6088 -0.0698461 0.29806)
(26.491 -0.0761796 0.244377)
(26.488 -0.152841 0.540995)
(26.3534 -0.194799 0.633798)
(26.1074 -0.209258 0.608676)
(25.9283 -0.211196 0.494527)
(25.8305 -0.193503 0.345429)
(25.8507 -0.190163 0.179554)
(25.9271 -0.150675 -0.0486599)
(26.0499 -0.175797 -0.153604)
(26.3675 -0.138907 -0.622156)
(26.6403 -0.0600372 -0.787546)
(26.8447 -0.00895049 -0.821476)
(26.6506 0.0623364 -1.59475)
(26.307 0.0837967 -2.81821)
(40 0.000137757 0.0252561)
(39.988 8.65337e-05 0.0720826)
(39.9609 0.000430641 0.116349)
(39.9151 0.000482009 0.158915)
(39.8494 0.000314978 0.201284)
(39.7666 0.00022215 0.244455)
(39.6686 0.000262871 0.288984)
(39.555 0.000342373 0.335228)
(39.4244 0.000362558 0.383446)
(39.2766 0.000270817 0.433657)
(39.1118 4.72477e-05 0.485694)
(38.9306 -0.000245344 0.539218)
(38.732 -0.000587554 0.593688)
(38.5137 -0.000599341 0.648936)
(38.2671 -0.000849177 0.705923)
(37.993 0.000410111 0.775095)
(37.6632 0.000283679 0.849467)
(37.3058 0.00341544 0.955311)
(36.9302 0.00195764 1.11462)
(36.53 0.00189859 1.21543)
(36.0792 0.00308832 1.25336)
(35.6049 0.00505887 1.25932)
(35.1395 0.00783759 1.2728)
(34.6626 0.0125874 1.32127)
(34.1717 0.015398 1.3613)
(33.671 0.019446 1.34971)
(33.1219 0.0272078 1.31473)
(32.5197 0.0378756 1.27592)
(31.8797 0.046903 1.17712)
(31.1925 0.0493629 1.01503)
(30.3612 0.0473817 0.973642)
(29.5357 0.0598343 0.998571)
(28.8554 0.107858 0.866998)
(28.431 0.163604 0.516607)
(28.287 0.16408 0.133449)
(28.3449 0.0791636 -0.0388549)
(28.37 -0.0247464 -0.0418839)
(28.1983 -0.0973979 -0.0367938)
(27.91 -0.103319 -0.0914854)
(27.7358 -0.059109 -0.278715)
(27.3874 -0.0525335 -0.222124)
(27.3013 -0.10012 -0.063831)
(27.1117 -0.126871 -0.0356743)
(26.8406 -0.141921 -0.0882975)
(26.6186 -0.155777 -0.149445)
(26.502 -0.144073 -0.27323)
(26.4525 -0.138303 -0.426949)
(26.4011 -0.1016 -0.539545)
(26.4773 -0.119634 -0.735721)
(26.6176 -0.0985409 -1.07837)
(26.8724 -0.0473934 -0.985867)
(27.0496 0.0125612 -0.963081)
(27.5745 -0.105645 -0.374624)
(26.5396 0.117072 -2.75654)
(39.9995 0.000135151 0.0320073)
(39.9864 7.7059e-05 0.0937711)
(39.9596 0.000411888 0.156278)
(39.9154 0.000458621 0.219864)
(39.8512 0.000287401 0.285141)
(39.7682 0.000188277 0.352417)
(39.6683 0.000221526 0.421831)
(39.5502 0.0002967 0.49347)
(39.4117 0.000319218 0.56742)
(39.2512 0.00023925 0.643708)
(39.0679 4.24634e-05 0.722345)
(38.8615 -0.000222295 0.803491)
(38.6305 -0.000537008 0.887447)
(38.3735 -0.000676206 0.975876)
(38.0848 -0.000959623 1.07129)
(37.7711 -7.6355e-05 1.18011)
(37.4139 -0.000478941 1.32277)
(36.9967 3.03022e-06 1.38964)
(36.6158 0.00133909 1.45438)
(36.2694 0.00279168 1.5404)
(35.9051 0.00393742 1.62621)
(35.5114 0.00425462 1.68248)
(35.0749 0.00423067 1.73865)
(34.5778 0.00514225 1.80883)
(34.0438 0.00382952 1.88907)
(33.4649 0.00295189 1.92698)
(32.7812 0.00726449 1.94188)
(31.9995 0.0137926 1.98555)
(31.1082 0.0128084 1.99385)
(30.0193 0.0141848 1.95914)
(28.8357 0.0220336 1.99134)
(27.7863 0.0386977 1.92105)
(26.8689 0.0746446 1.60557)
(26.1361 0.130464 0.781384)
(26.1788 0.130763 -0.359789)
(26.5394 -0.0570477 0.00506853)
(26.5256 -0.248202 0.735475)
(26.0358 -0.387748 1.13081)
(25.3322 -0.338853 1.21947)
(25.0501 -0.137968 0.605704)
(24.9894 -0.0825018 0.443534)
(25.0404 -0.144605 0.890467)
(24.8189 -0.189234 1.0831)
(24.4884 -0.180772 1.02005)
(24.2314 -0.164218 0.898924)
(24.1593 -0.150803 0.715466)
(24.0579 -0.168335 0.493588)
(24.1648 -0.0918684 0.285116)
(24.2946 -0.102943 0.151247)
(24.5393 -0.121151 -0.277754)
(25.1665 -0.102868 -0.872948)
(25.4676 -0.0737321 -1.03948)
(25.6685 -0.034 -1.12264)
(25.2119 0.326541 -1.39778)
(39.9997 0.000135151 0.0320031)
(39.9867 7.70638e-05 0.0937586)
(39.9596 0.00041189 0.156252)
(39.9149 0.000458623 0.219829)
(39.8505 0.000287405 0.285098)
(39.7677 0.000188284 0.352364)
(39.6679 0.00022154 0.421766)
(39.5498 0.000296717 0.493399)
(39.4111 0.000319238 0.567354)
(39.2504 0.000239263 0.643661)
(39.067 4.24547e-05 0.722344)
(38.8604 -0.000222184 0.803522)
(38.6296 -0.000537389 0.88754)
(38.3723 -0.000674635 0.975746)
(38.0857 -0.000957485 1.07122)
(37.768 -5.87777e-05 1.17948)
(37.426 -0.000568523 1.3197)
(37.003 -0.000109614 1.42069)
(36.6174 0.0012501 1.45989)
(36.2735 0.00283474 1.52924)
(35.9106 0.00412464 1.60734)
(35.5169 0.00457145 1.65816)
(35.0648 0.00439535 1.7155)
(34.558 0.00489088 1.8201)
(34.0346 0.00369856 1.90257)
(33.4467 0.00279621 1.95577)
(32.7374 0.0083408 2.03366)
(31.9413 0.0159562 2.12006)
(31.0649 0.015059 2.14885)
(29.9969 0.0163297 2.1085)
(28.8874 0.0225647 2.0776)
(27.9196 0.0371955 2.02457)
(27.0682 0.0709761 1.85264)
(26.3416 0.142579 1.29423)
(26.3159 0.161058 0.197665)
(26.6953 -0.0448133 -0.0850927)
(26.7962 -0.275917 0.0896418)
(26.5705 -0.510826 0.291892)
(26.1221 -0.615373 0.516281)
(25.7765 -0.509215 0.215657)
(25.5828 -0.173219 0.0968358)
(25.5399 -0.145777 0.333697)
(25.2641 -0.144956 0.325501)
(24.9309 -0.145003 0.256282)
(24.585 -0.126529 0.267054)
(24.4459 -0.114786 0.112144)
(24.2696 -0.123381 -0.0512627)
(24.2867 -0.0706742 -0.261929)
(24.5175 -0.0543453 -0.431994)
(24.8329 -0.0627585 -0.787041)
(25.2516 -0.0719261 -1.18766)
(25.5005 -0.038478 -1.27408)
(25.7931 -0.198472 -1.34281)
(26.2389 0.3025 -1.72296)
(39.9995 0.000133607 0.0395897)
(39.9866 7.52379e-05 0.116769)
(39.9602 0.00040563 0.195447)
(39.9169 0.000446749 0.275086)
(39.854 0.000271424 0.355991)
(39.773 0.00016855 0.438661)
(39.6755 0.000198436 0.523559)
(39.5607 0.000272011 0.611115)
(39.4263 0.000297087 0.701744)
(39.2707 0.000223063 0.795866)
(39.0935 4.10337e-05 0.893911)
(38.894 -0.000225314 0.996446)
(38.6717 -0.000499019 1.10422)
(38.4247 -0.000758822 1.2188)
(38.1529 -0.000755806 1.34218)
(37.8472 -0.000997295 1.47926)
(37.5325 0.000570293 1.63241)
(37.1242 0.00221857 1.78219)
(36.6728 0.0029182 1.84608)
(36.2388 0.00334853 1.90691)
(35.8333 0.00522755 1.99141)
(35.416 0.00456489 2.07879)
(34.9477 0.00239494 2.22513)
(34.3902 -0.000460148 2.37113)
(33.7744 -0.00770937 2.5101)
(33.0651 -0.0121457 2.63456)
(32.1871 -0.00618043 2.74997)
(31.2198 0.00242263 2.92813)
(30.1538 0.00217969 3.09808)
(28.957 0.00334306 3.16842)
(27.7919 0.0136229 3.11669)
(26.7333 0.0379346 2.86869)
(25.755 0.081513 2.21348)
(25.0382 0.161615 0.768002)
(25.2641 0.238655 -0.945156)
(24.9544 -0.066186 -0.527501)
(25.0318 -0.529583 1.66458)
(24.5495 -0.810508 2.7253)
(24.0082 -0.883361 2.95529)
(23.4921 -0.345557 1.47268)
(23.2066 -0.142902 0.748562)
(23.3824 -0.266244 1.18258)
(23.196 -0.346797 1.29867)
(22.8908 -0.337149 1.10668)
(22.6308 -0.302384 0.937986)
(22.4732 -0.261621 0.763173)
(22.3611 -0.240243 0.561214)
(22.7269 -0.184168 0.186655)
(21.8191 -0.192289 0.185882)
(22.5953 -0.22819 -0.278975)
(22.9607 -0.198556 -0.894205)
(23.0625 0.00390611 -1.36322)
(23.8927 -0.164563 -1.68677)
(23.0041 0.0788305 -1.59897)
(39.9997 0.000133606 0.0395845)
(39.9869 7.52428e-05 0.116753)
(39.9603 0.000405632 0.195416)
(39.9164 0.000446751 0.275051)
(39.8533 0.000271427 0.355959)
(39.7724 0.00016856 0.438625)
(39.6752 0.000198457 0.523511)
(39.5603 0.000272045 0.611051)
(39.4258 0.000297112 0.701672)
(39.27 0.000223171 0.795795)
(39.0925 4.08127e-05 0.893863)
(38.893 -0.000224043 0.996422)
(38.6707 -0.00049546 1.10426)
(38.424 -0.000754417 1.2188)
(38.1516 -0.000741256 1.34237)
(37.8499 -0.00102107 1.47903)
(37.5253 0.000718526 1.63352)
(37.1578 0.00200926 1.79437)
(36.7136 0.00282652 1.85229)
(36.2627 0.00335364 1.90252)
(35.8437 0.00582194 1.98574)
(35.4103 0.00598227 2.08222)
(34.8897 0.00234757 2.22249)
(34.333 -0.000942247 2.36631)
(33.7346 -0.00798353 2.50493)
(32.979 -0.012768 2.65834)
(32.1078 -0.00529837 2.83446)
(31.1955 0.00377945 3.03375)
(30.1821 0.00300004 3.17157)
(29.0473 0.00303708 3.21377)
(27.9286 0.0120971 3.14598)
(26.9145 0.0352377 2.95089)
(26.0611 0.0729519 2.47524)
(25.5218 0.158629 1.36697)
(25.8246 0.329425 -0.279631)
(26.2362 0.042389 -0.798149)
(26.7563 -0.347545 -0.719584)
(26.7022 -0.515284 -0.376522)
(26.1139 -0.697425 -0.012052)
(25.3911 -0.62164 0.103026)
(24.6848 -0.21772 0.205294)
(24.6366 -0.203519 0.346012)
(24.4364 -0.231952 0.223252)
(24.0535 -0.224234 0.0850871)
(23.7258 -0.199707 -0.0246861)
(23.4707 -0.165175 -0.147664)
(23.3103 -0.129673 -0.282111)
(23.3681 -0.110905 -0.485072)
(23.4284 -0.17131 -0.610687)
(23.7399 -0.151 -1.16808)
(23.623 0.0792523 -1.68542)
(23.7697 0.12517 -1.76875)
(24.3834 -0.0268569 -1.82255)
(24.3297 0.28652 -2.39173)
(39.9995 0.000129999 0.0471339)
(39.9869 6.27934e-05 0.139036)
(39.9611 0.000381756 0.23289)
(39.9191 0.000423798 0.328167)
(39.8582 0.000254796 0.42536)
(39.7799 0.000152646 0.525151)
(39.6859 0.000174866 0.6281)
(39.5751 0.000236098 0.734676)
(39.4452 0.000249508 0.845324)
(39.2946 0.000169134 0.960516)
(39.123 -8.03413e-06 1.08074)
(38.9302 -0.000256772 1.20658)
(38.7158 -0.000504877 1.3388)
(38.479 -0.00071373 1.47845)
(38.2199 -0.000722605 1.62721)
(37.9358 -0.000687096 1.78806)
(37.6361 0.000234031 1.96154)
(37.3112 0.00240003 2.17166)
(36.9411 0.0046983 2.30346)
(36.4838 0.00479862 2.38579)
(35.9851 0.00538958 2.45883)
(35.425 0.00191863 2.56554)
(34.8629 -0.00317308 2.74772)
(34.3036 -0.00764064 2.98305)
(33.6477 -0.0172693 3.24566)
(32.8354 -0.0197195 3.52911)
(31.7763 -0.0081001 3.76018)
(30.6527 0.00809949 3.99464)
(29.5412 0.0126134 4.22204)
(28.3704 0.0137223 4.31428)
(27.1957 0.0263077 4.21274)
(26.0273 0.0643069 3.87122)
(24.701 0.14758 3.07294)
(23.4738 0.398931 1.36857)
(22.9417 0.824453 -0.161308)
(12.1344 0.0667944 2.3629)
(14.5485 -0.608275 1.56511)
(15.553 -1.10794 1.35081)
(16.3885 -1.83181 2.67138)
(17.9417 -0.828445 0.114927)
(19.1517 -0.258596 0.51199)
(19.2509 -0.831022 2.36633)
(19.3581 -0.769783 2.33689)
(19.4928 -0.64445 1.99203)
(19.5727 -0.549393 1.6655)
(19.5239 -0.499432 1.38443)
(19.5567 -0.403334 1.08231)
(19.6744 -0.399035 0.777323)
(19.8948 -0.344172 0.345348)
(20.0136 -0.255357 -0.131704)
(19.786 -0.106708 -0.552017)
(19.5867 0.0374678 -0.836593)
(20.1648 0.0325112 -1.07366)
(18.7138 -0.216144 -1.74619)
(39.9997 0.000129996 0.0471278)
(39.9871 6.2805e-05 0.139019)
(39.9612 0.000381727 0.232857)
(39.9185 0.000423933 0.328134)
(39.8575 0.000254229 0.425333)
(39.7794 0.000150896 0.525121)
(39.6856 0.000172836 0.628053)
(39.5747 0.000234032 0.734607)
(39.4446 0.000247446 0.845238)
(39.2939 0.00016718 0.960427)
(39.1221 -1.02075e-05 1.08067)
(38.9292 -0.000257796 1.20656)
(38.7149 -0.00050213 1.33884)
(38.4784 -0.000707618 1.47854)
(38.219 -0.000713738 1.62749)
(37.9371 -0.000694411 1.78787)
(37.6353 0.00033088 1.96345)
(37.3231 0.00195917 2.15709)
(36.9806 0.00521606 2.31992)
(36.5468 0.00504521 2.42294)
(36.0267 0.00605495 2.51482)
(35.4653 0.00316748 2.64776)
(34.8608 -0.00343179 2.78839)
(34.2565 -0.00793666 2.98308)
(33.5701 -0.0180742 3.22816)
(32.7141 -0.01967 3.51323)
(31.7199 -0.00751742 3.76708)
(30.7135 0.00717887 4.03644)
(29.6522 0.0107823 4.2379)
(28.5028 0.0118411 4.31309)
(27.3722 0.0243549 4.21932)
(26.3176 0.059802 3.9523)
(25.3318 0.136635 3.34077)
(24.5857 0.486296 2.03637)
(25.0292 1.5909 0.169804)
(26.2812 2.93809 -1.71839)
(27.5477 2.89936 -1.86833)
(27.4427 2.65132 -1.44559)
(26.6133 2.39422 -0.926838)
(26.246 1.94983 -0.640644)
(23.6335 0.631161 0.201131)
(23.3555 0.262416 0.48954)
(23.099 0.321364 0.402964)
(22.8012 0.417698 0.210965)
(22.5435 0.485651 -0.00550248)
(22.3048 0.519334 -0.192988)
(22.1105 0.607636 -0.343268)
(21.9623 0.635799 -0.433597)
(21.8952 0.658749 -0.561709)
(21.7413 0.757829 -0.787746)
(21.7078 0.869474 -1.09748)
(21.4098 1.00713 -1.48073)
(21.9998 1.01789 -1.33187)
(20.2368 0.982608 -2.16425)
(39.9995 0.000127631 0.0544188)
(39.9873 6.01126e-05 0.160534)
(39.9626 0.000374373 0.269095)
(39.9223 0.000413823 0.379572)
(39.864 0.000244185 0.492469)
(39.789 0.000138126 0.60846)
(39.6988 0.000152153 0.728142)
(39.5923 0.000204264 0.852075)
(39.4672 0.00021159 0.980837)
(39.3222 0.000132649 1.11503)
(39.1566 -3.54603e-05 1.25525)
(38.9707 -0.000263276 1.4021)
(38.7641 -0.00049117 1.55621)
(38.5365 -0.000652811 1.71828)
(38.2877 -0.000699396 1.88915)
(38.0186 -0.000515637 2.07004)
(37.7299 -0.000294937 2.26127)
(37.4299 0.00113927 2.46767)
(37.1113 0.00133774 2.66318)
(36.7489 -0.000361481 2.84727)
(36.3186 -0.00243034 3.01436)
(35.7986 -0.00297855 3.22414)
(35.1179 -0.00685532 3.39942)
(34.4563 -0.0167806 3.63682)
(33.7909 -0.0285648 4.04171)
(32.969 -0.0327482 4.54882)
(31.8673 -0.00747477 4.95687)
(30.6085 0.0223763 5.15874)
(29.3764 0.0267549 5.33538)
(28.1196 0.0243302 5.4552)
(26.8743 0.040763 5.43079)
(25.5904 0.0859892 5.18852)
(23.887 0.211932 4.72579)
(22.5936 0.64715 3.92753)
(9.65243 0.477805 -0.0309901)
(9.03836 0.0278576 2.3794)
(9.21907 -0.356133 4.93437)
(8.1101 0.530964 2.7538)
(9.06271 0.419123 2.49358)
(5.82826 -0.52355 1.10986)
(10.9773 -0.760064 0.42538)
(11.3096 -0.768688 0.423781)
(11.3276 -0.349921 0.829652)
(11.5275 -0.0844658 1.00538)
(11.7206 0.0135421 0.992052)
(11.6232 0.0843104 0.913964)
(11.5224 0.251978 0.807123)
(11.3626 0.460243 0.596015)
(11.5076 0.522617 0.177474)
(11.5459 0.45171 -0.248107)
(11.6854 0.293363 -0.688993)
(12.3116 0.123776 -1.2982)
(13.9552 0.0116928 -2.09679)
(15.4204 -0.965743 -3.64054)
(39.9997 0.000127628 0.0544114)
(39.9876 6.01245e-05 0.16051)
(39.9626 0.000374343 0.269049)
(39.9218 0.000413958 0.379523)
(39.8633 0.000243617 0.492426)
(39.7885 0.000136348 0.608416)
(39.6985 0.000150054 0.728089)
(39.5919 0.000202058 0.85201)
(39.4667 0.000209423 0.980769)
(39.3214 0.000130186 1.11497)
(39.1558 -3.66922e-05 1.25522)
(38.9697 -0.000262425 1.40212)
(38.7632 -0.000489844 1.55629)
(38.5358 -0.000649528 1.7184)
(38.2873 -0.000691242 1.88934)
(38.0184 -0.000505902 2.06994)
(37.7309 -0.000273735 2.26128)
(37.43 0.00113531 2.46252)
(37.1133 0.00135999 2.66465)
(36.7623 -0.00014566 2.86423)
(36.3335 -0.00147762 3.05886)
(35.8628 -0.00314996 3.25635)
(35.2057 -0.00773289 3.46502)
(34.4564 -0.0164317 3.69051)
(33.7229 -0.0297289 4.00567)
(32.8309 -0.0332201 4.47093)
(31.7315 -0.00551912 4.81669)
(30.6526 0.0187682 5.14377)
(29.5219 0.0237261 5.40378)
(28.3043 0.021325 5.49473)
(27.1008 0.0387668 5.39832)
(25.9753 0.0815754 5.16887)
(24.8335 0.229655 4.74196)
(23.7469 1.02104 4.08413)
(24.9292 2.96224 3.43505)
(9.82366 0.0361172 2.37827)
(11.268 0.469867 0.721683)
(10.9553 1.36736 0.417112)
(9.29936 1.49008 0.729944)
(8.69361 1.27111 1.38347)
(9.78418 0.485979 1.29138)
(10.0435 0.386562 0.735839)
(10.2134 0.818302 0.649898)
(10.0255 1.11063 0.717764)
(10.0101 1.21224 0.679581)
(10.1506 1.27093 0.541336)
(10.531 1.45597 0.363478)
(11.0028 1.69674 0.262788)
(11.2842 1.86852 0.242351)
(11.4945 1.96086 0.141952)
(11.7791 2.04564 -0.105081)
(12.083 2.16523 -0.43609)
(13.1106 2.36225 -0.758267)
(12.155 1.70088 -1.45437)
(39.9996 0.000122763 0.0613472)
(39.9879 4.06185e-05 0.181003)
(39.9645 0.000337494 0.303525)
(39.9264 0.000375206 0.428377)
(39.8711 0.000211165 0.556132)
(39.8 0.000107066 0.687562)
(39.7144 0.000118708 0.823399)
(39.6131 0.000169078 0.964347)
(39.494 0.000179216 1.11111)
(39.3556 0.000109728 1.26436)
(39.1973 -4.14063e-05 1.42469)
(39.0192 -0.000245251 1.59259)
(38.8209 -0.000450413 1.76838)
(38.6021 -0.000598033 1.95226)
(38.3625 -0.000633154 2.14418)
(38.1025 -0.000541572 2.34405)
(37.823 -0.000357433 2.55089)
(37.5271 -8.87078e-07 2.76488)
(37.2144 -0.000532236 2.97987)
(36.8783 -0.00237737 3.20001)
(36.5047 -0.00496914 3.43701)
(36.0898 -0.00518944 3.73014)
(35.625 -0.00122831 4.0483)
(34.9396 -0.0125927 4.3838)
(34.197 -0.0290663 4.87296)
(33.4828 -0.0387494 5.53759)
(32.5822 -0.0115083 6.10196)
(31.3816 0.0369436 6.4522)
(29.9113 0.0591375 6.65211)
(28.3154 0.0441404 6.70302)
(26.9799 0.0388491 6.54166)
(25.8255 0.0526027 6.33556)
(24.5895 0.102012 6.3827)
(23.7723 0.453312 7.43483)
(21.7161 1.04394 9.92256)
(6.79332 0.0591015 2.44424)
(6.4682 0.793387 0.383649)
(-1.16462 -0.170498 -3.36001)
(-2.31135 -2.08228 -1.89957)
(-1.82243 -2.15705 -2.71554)
(-1.5176 -2.04202 -1.54186)
(-1.26273 -1.71192 -0.285617)
(1.79365 -1.76745 -0.560587)
(2.93193 -1.0099 -0.749453)
(4.21744 -0.780387 -1.29611)
(5.81941 -0.959119 -1.87095)
(7.64024 -1.09028 -2.26349)
(9.76613 -1.07408 -2.59031)
(11.8984 -1.10104 -2.92278)
(13.7956 -1.20927 -3.20044)
(15.3685 -1.37061 -3.45164)
(16.8682 -1.44716 -3.72904)
(18.7571 -1.46071 -4.06165)
(20.1131 -1.52524 -4.80731)
(39.9998 0.000122763 0.0613394)
(39.9882 4.06218e-05 0.180978)
(39.9645 0.000337495 0.303476)
(39.9259 0.000375204 0.428324)
(39.8705 0.000211175 0.556086)
(39.7995 0.000107 0.687517)
(39.714 0.000118846 0.823348)
(39.6128 0.000168141 0.96429)
(39.4935 0.000176577 1.11106)
(39.3549 0.000106388 1.26433)
(39.1965 -4.36194e-05 1.42469)
(39.0183 -0.000245413 1.59263)
(38.82 -0.000449801 1.76846)
(38.6014 -0.000596754 1.95236)
(38.362 -0.000631244 2.14428)
(38.1023 -0.000537128 2.34399)
(37.8231 -0.000349013 2.55074)
(37.5262 1.13515e-05 2.7633)
(37.211 -0.000516323 2.97832)
(36.8733 -0.00237386 3.19959)
(36.5022 -0.00483489 3.44367)
(36.0949 -0.00530513 3.72748)
(35.6513 -0.00044383 4.11113)
(35.0246 -0.0103723 4.43447)
(34.2001 -0.0343524 4.85829)
(33.3855 -0.0419996 5.41955)
(32.2993 -0.0176547 5.92969)
(31.0734 0.0257248 6.32904)
(29.9301 0.0484693 6.62015)
(28.66 0.0326097 6.71948)
(27.277 0.0331163 6.57277)
(26.0661 0.051038 6.30074)
(25.0165 0.108027 6.16018)
(23.7391 0.550809 6.59097)
(24.5758 2.14434 8.81214)
(21.7737 2.57206 9.27388)
(19.5797 2.19621 6.89772)
(16.3641 1.89137 4.10602)
(13.0934 1.71593 2.44441)
(9.67588 1.43091 1.51423)
(7.64813 0.22774 0.156823)
(0.47595 0.20388 -0.399681)
(-0.89856 1.50891 0.454482)
(0.538752 1.21521 -0.285525)
(1.28232 1.16687 -0.391585)
(1.45315 1.0467 -0.183867)
(2.59587 1.18148 0.115718)
(4.10952 1.65769 0.520048)
(5.19507 1.92899 0.740634)
(5.95695 1.97184 0.701633)
(6.53526 1.80599 0.431312)
(6.97973 1.69341 0.0519351)
(9.11587 1.78947 -0.270238)
(9.06658 1.39114 -0.957518)
(39.9997 0.000119922 0.0678368)
(39.9887 3.66013e-05 0.200192)
(39.9668 0.000327168 0.3358)
(39.9313 0.000361296 0.474159)
(39.8797 0.000196913 0.615957)
(39.8131 9.08051e-05 0.762084)
(39.7329 9.80915e-05 0.913402)
(39.6379 0.000144797 1.07073)
(39.5257 0.000155034 1.23487)
(39.3949 9.06146e-05 1.40654)
(39.2448 -4.95962e-05 1.58632)
(39.0752 -0.000237851 1.77459)
(38.8855 -0.000431862 1.97141)
(38.6752 -0.000576769 2.17653)
(38.4437 -0.000630627 2.38929)
(38.191 -0.000576303 2.60858)
(37.918 -0.000467433 2.83305)
(37.6268 -0.000378495 3.0615)
(37.3196 -0.000526755 3.29278)
(36.9981 -0.00106055 3.53234)
(36.6635 -0.00190456 3.79427)
(36.3164 -0.00103447 4.11375)
(35.9675 -0.000419199 4.51343)
(35.5673 0.021202 5.04172)
(34.8453 0.0147583 5.68569)
(34.2036 -0.00633335 6.35965)
(33.5147 -0.0134594 6.97335)
(32.6521 0.00022019 7.66336)
(31.4514 0.0509712 8.23116)
(29.8846 0.094758 8.41488)
(27.9939 0.092842 7.89898)
(26.0625 0.0741363 7.31181)
(24.6933 0.0676324 7.24477)
(23.2158 0.168057 7.84658)
(24.3836 0.707704 11.6426)
(20.8425 0.511771 11.5357)
(17.0111 0.203135 8.1329)
(12.4029 -0.441304 4.2633)
(8.1964 -1.10467 1.19966)
(6.08437 -1.65039 -0.906076)
(6.03651 -2.15095 -1.75949)
(7.66486 -2.59843 -2.19586)
(9.42079 -2.5366 -2.67654)
(10.9507 -2.08869 -3.12904)
(12.6263 -1.74681 -3.62528)
(14.4297 -1.62663 -4.09849)
(16.2425 -1.57201 -4.40696)
(17.9676 -1.48975 -4.54918)
(19.4651 -1.4098 -4.59727)
(20.6339 -1.39307 -4.57402)
(21.5185 -1.39795 -4.53503)
(22.2614 -1.34823 -4.46085)
(23.2576 -1.23015 -4.46764)
(23.5412 -1.20712 -4.51645)
(39.9998 0.000119921 0.0678285)
(39.9889 3.66047e-05 0.200162)
(39.9668 0.000327169 0.335745)
(39.9308 0.000361292 0.474098)
(39.8791 0.000196923 0.615902)
(39.8126 9.07642e-05 0.762031)
(39.7326 9.83039e-05 0.913342)
(39.6375 0.000143992 1.07066)
(39.5252 0.000152472 1.2348)
(39.3943 8.74756e-05 1.40648)
(39.244 -5.23813e-05 1.58629)
(39.0743 -0.000242748 1.77458)
(38.8847 -0.000436256 1.97143)
(38.6745 -0.000578264 2.17656)
(38.4432 -0.00063506 2.3893)
(38.1906 -0.000582123 2.60856)
(37.9177 -0.000467645 2.83291)
(37.6262 -0.000375871 3.06119)
(37.3183 -0.000513276 3.29308)
(36.9959 -0.00106469 3.53371)
(36.662 -0.00184022 3.79892)
(36.3183 -0.0013724 4.112)
(35.9744 0.000993469 4.52706)
(35.6244 0.01515 5.01929)
(35.1102 0.0113953 5.63973)
(34.3214 -0.00962746 6.30233)
(33.5202 -0.0253632 7.03989)
(32.2642 -0.0060935 7.61268)
(30.9412 0.0409144 7.96665)
(29.6519 0.0777378 8.1466)
(28.21 0.0870276 8.05524)
(26.6015 0.0611865 7.55207)
(25.024 0.0671635 7.19257)
(23.4594 0.0709804 7.68788)
(23.2349 0.699341 9.70737)
(24.3655 1.31974 11.0154)
(24.5742 1.53295 10.2344)
(23.3095 1.44856 8.25926)
(21.0924 1.35128 6.16418)
(18.4476 1.22117 4.4152)
(16.2843 0.805814 3.13056)
(13.305 0.428123 2.01852)
(11.0716 0.37101 1.06342)
(10.0909 0.659332 0.255848)
(9.54527 0.987652 -0.297864)
(9.5135 1.00371 -0.697722)
(9.88684 0.91166 -0.889854)
(10.6791 0.881318 -0.918246)
(11.8387 0.802996 -0.933286)
(12.8133 0.611296 -0.948545)
(13.6377 0.381108 -0.888144)
(14.56 0.230576 -0.804314)
(16.0012 0.226219 -0.775363)
(16.2934 0.0372668 -1.36227)
(39.9997 0.000114644 0.0738061)
(39.9895 1.28563e-05 0.21786)
(39.9695 0.000283696 0.365539)
(39.9371 0.000314608 0.516399)
(39.8897 0.000155578 0.671256)
(39.8284 5.19299e-05 0.831133)
(39.7545 5.73263e-05 0.997023)
(39.6666 0.000100664 1.16989)
(39.5625 0.000109515 1.35064)
(39.4404 4.81887e-05 1.54012)
(39.2995 -8.56735e-05 1.73894)
(39.1393 -0.000266433 1.94742)
(38.9589 -0.000453091 2.16548)
(38.7572 -0.000594641 2.39251)
(38.5332 -0.000655427 2.62729)
(38.2864 -0.000601983 2.86786)
(38.0178 -0.000513088 3.11166)
(37.7302 -0.000356227 3.35605)
(37.4296 -0.000309521 3.5996)
(37.1238 -0.000449786 3.84548)