/*--------------------------------*- C++ -*----------------------------------*\
| =========                 |                                                 |
| \\      /  F ield         | OpenFOAM: The Open Source CFD Toolbox           |
|  \\    /   O peration     | Version:  4.1                                   |
|   \\  /    A nd           | Web:      www.OpenFOAM.org                      |
|    \\/     M anipulation  |                                                 |
\*---------------------------------------------------------------------------*/
FoamFile
{
    version     2.0;
    format      ascii;
    class       volScalarField;
    location    "52";
    object      p;
}
// * * * * * * * * * * * * * * * * * * * * * * * * * * * * * * * * * * * * * //

dimensions      [0 2 -2 0 0 0 0];

internalField   nonuniform List<scalar> 
4432
(
-3.93254e+10
-4.106e+10
-4.19321e+10
-4.02308e+10
-3.99542e+10
-4.03477e+10
-4.02179e+10
-4.00969e+10
-4.00188e+10
-3.99871e+10
-3.99603e+10
-3.99146e+10
-3.98418e+10
-3.97495e+10
-3.96597e+10
-3.95736e+10
-3.94686e+10
-3.93416e+10
-3.91958e+10
-3.90345e+10
-3.88573e+10
-3.86679e+10
-3.84701e+10
-3.82683e+10
-3.80664e+10
-3.7868e+10
-3.7675e+10
-3.74887e+10
-3.7309e+10
-3.71349e+10
-3.69658e+10
-3.68025e+10
-3.6648e+10
-3.6507e+10
-3.63865e+10
-3.6295e+10
-3.62404e+10
-3.62259e+10
-3.62466e+10
-3.62871e+10
-3.63209e+10
-3.63128e+10
-3.6227e+10
-3.60464e+10
-3.5799e+10
-3.55606e+10
-3.53834e+10
-3.51698e+10
-3.47575e+10
-3.47042e+10
-3.74851e+10
-4.55221e+10
-5.14168e+10
-2.59261e+10
-3.98919e+10
-4.05363e+10
-4.10402e+10
-4.07403e+10
-4.00581e+10
-4.02361e+10
-4.02064e+10
-4.00745e+10
-3.9997e+10
-3.99834e+10
-3.9967e+10
-3.99183e+10
-3.98393e+10
-3.97477e+10
-3.9662e+10
-3.95773e+10
-3.94709e+10
-3.93425e+10
-3.91976e+10
-3.90364e+10
-3.88589e+10
-3.8669e+10
-3.84703e+10
-3.82676e+10
-3.80648e+10
-3.78655e+10
-3.7672e+10
-3.74855e+10
-3.73061e+10
-3.71329e+10
-3.69653e+10
-3.68039e+10
-3.66514e+10
-3.65127e+10
-3.6395e+10
-3.63064e+10
-3.62539e+10
-3.62406e+10
-3.62608e+10
-3.62985e+10
-3.63266e+10
-3.63091e+10
-3.62094e+10
-3.60096e+10
-3.57355e+10
-3.54585e+10
-3.52195e+10
-3.48938e+10
-3.42593e+10
-3.38035e+10
-3.61309e+10
-4.48238e+10
-5.39608e+10
-3.34187e+10
-4.02196e+10
-4.03341e+10
-4.05316e+10
-4.08337e+10
-4.02133e+10
-4.01009e+10
-4.01975e+10
-4.00919e+10
-4.00119e+10
-3.99995e+10
-3.99831e+10
-3.99556e+10
-3.98971e+10
-3.98046e+10
-3.97054e+10
-3.96183e+10
-3.95212e+10
-3.93961e+10
-3.92491e+10
-3.9082e+10
-3.88969e+10
-3.86969e+10
-3.84866e+10
-3.82715e+10
-3.80564e+10
-3.78458e+10
-3.76423e+10
-3.74478e+10
-3.7262e+10
-3.70846e+10
-3.69144e+10
-3.67522e+10
-3.66013e+10
-3.64648e+10
-3.63472e+10
-3.62559e+10
-3.61976e+10
-3.61746e+10
-3.61815e+10
-3.62021e+10
-3.62085e+10
-3.61643e+10
-3.60332e+10
-3.57966e+10
-3.54797e+10
-3.51532e+10
-3.48408e+10
-3.43736e+10
-3.35356e+10
-3.30785e+10
-3.60336e+10
-4.51941e+10
-5.206e+10
-3.15699e+10
-4.02246e+10
-4.05249e+10
-4.07293e+10
-4.06105e+10
-4.01874e+10
-4.01124e+10
-4.01997e+10
-4.00739e+10
-4.00084e+10
-3.99976e+10
-3.99891e+10
-3.99613e+10
-3.98977e+10
-3.9802e+10
-3.97062e+10
-3.96258e+10
-3.95284e+10
-3.94e+10
-3.92538e+10
-3.90873e+10
-3.89026e+10
-3.87028e+10
-3.84925e+10
-3.8277e+10
-3.80613e+10
-3.785e+10
-3.76456e+10
-3.74502e+10
-3.72638e+10
-3.70862e+10
-3.69162e+10
-3.6754e+10
-3.66015e+10
-3.64627e+10
-3.63435e+10
-3.62506e+10
-3.61897e+10
-3.61631e+10
-3.61652e+10
-3.61795e+10
-3.61783e+10
-3.61255e+10
-3.59854e+10
-3.57401e+10
-3.54149e+10
-3.50769e+10
-3.47455e+10
-3.42422e+10
-3.33348e+10
-3.28849e+10
-3.65758e+10
-4.77412e+10
-5.39865e+10
-2.65555e+10
-4.0919e+10
-4.06605e+10
-4.0166e+10
-4.06886e+10
-4.03595e+10
-4.00977e+10
-4.00338e+10
-3.99824e+10
-3.99578e+10
-3.99579e+10
-3.99518e+10
-3.99405e+10
-3.98933e+10
-3.98064e+10
-3.97121e+10
-3.96255e+10
-3.9528e+10
-3.94051e+10
-3.92609e+10
-3.90935e+10
-3.89046e+10
-3.86969e+10
-3.84754e+10
-3.82459e+10
-3.80142e+10
-3.77855e+10
-3.75632e+10
-3.73498e+10
-3.71467e+10
-3.69545e+10
-3.6772e+10
-3.65972e+10
-3.64312e+10
-3.62808e+10
-3.61526e+10
-3.60514e+10
-3.59827e+10
-3.59473e+10
-3.59391e+10
-3.59413e+10
-3.59269e+10
-3.58635e+10
-3.57225e+10
-3.54965e+10
-3.5225e+10
-3.49863e+10
-3.47955e+10
-3.44435e+10
-3.36457e+10
-3.31321e+10
-3.60263e+10
-4.52002e+10
-5.1945e+10
-2.67234e+10
-4.06246e+10
-4.07771e+10
-4.06108e+10
-4.03124e+10
-4.02505e+10
-4.01631e+10
-4.00788e+10
-3.99834e+10
-3.99679e+10
-3.99624e+10
-3.99535e+10
-3.99352e+10
-3.98849e+10
-3.9798e+10
-3.97045e+10
-3.96232e+10
-3.95246e+10
-3.93995e+10
-3.92547e+10
-3.90875e+10
-3.88991e+10
-3.8692e+10
-3.84713e+10
-3.82426e+10
-3.8012e+10
-3.77844e+10
-3.75633e+10
-3.73511e+10
-3.71493e+10
-3.69583e+10
-3.67772e+10
-3.66049e+10
-3.64428e+10
-3.62952e+10
-3.61682e+10
-3.60683e+10
-3.60005e+10
-3.59657e+10
-3.59578e+10
-3.59599e+10
-3.59443e+10
-3.58778e+10
-3.57298e+10
-3.54888e+10
-3.51858e+10
-3.48862e+10
-3.45859e+10
-3.40417e+10
-3.29316e+10
-3.20383e+10
-3.48225e+10
-4.47608e+10
-5.40778e+10
-3.33311e+10
-4.0465e+10
-4.05941e+10
-4.0423e+10
-4.02859e+10
-4.03223e+10
-4.02212e+10
-4.01065e+10
-4.0019e+10
-3.99903e+10
-3.99858e+10
-3.99813e+10
-3.99749e+10
-3.99391e+10
-3.98715e+10
-3.9795e+10
-3.97167e+10
-3.96196e+10
-3.94975e+10
-3.93524e+10
-3.91816e+10
-3.8985e+10
-3.87642e+10
-3.85249e+10
-3.82741e+10
-3.80197e+10
-3.77684e+10
-3.75255e+10
-3.72945e+10
-3.70782e+10
-3.68777e+10
-3.66908e+10
-3.65116e+10
-3.63388e+10
-3.61865e+10
-3.60649e+10
-3.59664e+10
-3.58979e+10
-3.58617e+10
-3.5848e+10
-3.5838e+10
-3.58036e+10
-3.57135e+10
-3.55429e+10
-3.52903e+10
-3.50024e+10
-3.47614e+10
-3.45836e+10
-3.42583e+10
-3.34622e+10
-3.27898e+10
-3.52488e+10
-4.4319e+10
-5.24125e+10
-2.87554e+10
-4.05386e+10
-4.0501e+10
-4.02834e+10
-4.00949e+10
-4.02772e+10
-4.02968e+10
-4.01389e+10
-4.00203e+10
-3.99948e+10
-3.99834e+10
-3.99774e+10
-3.99658e+10
-3.99276e+10
-3.98624e+10
-3.97898e+10
-3.97135e+10
-3.96149e+10
-3.94921e+10
-3.93468e+10
-3.91761e+10
-3.89797e+10
-3.87594e+10
-3.85206e+10
-3.82707e+10
-3.80176e+10
-3.77683e+10
-3.75279e+10
-3.72996e+10
-3.70854e+10
-3.68861e+10
-3.67005e+10
-3.65267e+10
-3.63651e+10
-3.62204e+10
-3.60984e+10
-3.60063e+10
-3.59467e+10
-3.59183e+10
-3.5914e+10
-3.59146e+10
-3.58907e+10
-3.58096e+10
-3.56439e+10
-3.53878e+10
-3.50789e+10
-3.47878e+10
-3.45123e+10
-3.40106e+10
-3.29567e+10
-3.2188e+10
-3.54532e+10
-4.63932e+10
-5.4183e+10
-2.82779e+10
-4.02079e+10
-4.02211e+10
-4.02115e+10
-4.00493e+10
-4.0124e+10
-4.01129e+10
-4.00449e+10
-3.99782e+10
-3.99616e+10
-3.99756e+10
-3.99826e+10
-3.99671e+10
-3.99344e+10
-3.9884e+10
-3.98278e+10
-3.97602e+10
-3.96696e+10
-3.95535e+10
-3.94108e+10
-3.9239e+10
-3.90356e+10
-3.88011e+10
-3.85407e+10
-3.82631e+10
-3.79797e+10
-3.77e+10
-3.74318e+10
-3.71799e+10
-3.69466e+10
-3.67322e+10
-3.65336e+10
-3.63463e+10
-3.61701e+10
-3.60147e+10
-3.58881e+10
-3.5791e+10
-3.57257e+10
-3.56916e+10
-3.5678e+10
-3.5665e+10
-3.56234e+10
-3.552e+10
-3.53285e+10
-3.50471e+10
-3.47193e+10
-3.44227e+10
-3.41715e+10
-3.37518e+10
-3.27891e+10
-3.16729e+10
-3.32365e+10
-4.2035e+10
-5.36501e+10
-3.82664e+10
-4.03486e+10
-4.02143e+10
-4.00282e+10
-3.99335e+10
-4.01143e+10
-4.01515e+10
-4.00737e+10
-3.99989e+10
-3.99672e+10
-3.99671e+10
-3.99744e+10
-3.9966e+10
-3.99355e+10
-3.98884e+10
-3.98353e+10
-3.97693e+10
-3.96788e+10
-3.95626e+10
-3.94199e+10
-3.92477e+10
-3.90438e+10
-3.88088e+10
-3.85476e+10
-3.82697e+10
-3.79863e+10
-3.77075e+10
-3.74409e+10
-3.71906e+10
-3.6958e+10
-3.67431e+10
-3.65446e+10
-3.63603e+10
-3.61897e+10
-3.60371e+10
-3.59091e+10
-3.58116e+10
-3.57475e+10
-3.57148e+10
-3.57037e+10
-3.56944e+10
-3.56577e+10
-3.556e+10
-3.53742e+10
-3.50981e+10
-3.4774e+10
-3.44783e+10
-3.42232e+10
-3.37875e+10
-3.2834e+10
-3.20818e+10
-3.51185e+10
-4.58577e+10
-5.44556e+10
-2.82704e+10
-4.01802e+10
-4.00936e+10
-4.00335e+10
-3.99819e+10
-4.00385e+10
-4.006e+10
-4.00314e+10
-3.99884e+10
-3.99763e+10
-4.00083e+10
-4.0047e+10
-4.00472e+10
-4.00271e+10
-3.99986e+10
-3.99617e+10
-3.9906e+10
-3.98247e+10
-3.97146e+10
-3.95745e+10
-3.94005e+10
-3.91876e+10
-3.89339e+10
-3.86436e+10
-3.833e+10
-3.80101e+10
-3.77e+10
-3.74108e+10
-3.71473e+10
-3.69099e+10
-3.66962e+10
-3.6502e+10
-3.63245e+10
-3.61647e+10
-3.6026e+10
-3.59117e+10
-3.58273e+10
-3.57766e+10
-3.57574e+10
-3.57593e+10
-3.57628e+10
-3.57397e+10
-3.56577e+10
-3.54913e+10
-3.52397e+10
-3.49458e+10
-3.46885e+10
-3.44951e+10
-3.41783e+10
-3.33974e+10
-3.26197e+10
-3.47643e+10
-4.38062e+10
-5.33358e+10
-2.93229e+10
-4.02054e+10
-4.01151e+10
-4.00146e+10
-3.99568e+10
-4.00511e+10
-4.00635e+10
-4.00325e+10
-4.00097e+10
-4.00032e+10
-4.00242e+10
-4.00488e+10
-4.00525e+10
-4.00368e+10
-4.00108e+10
-3.99747e+10
-3.99193e+10
-3.98375e+10
-3.97273e+10
-3.9587e+10
-3.9413e+10
-3.92006e+10
-3.89477e+10
-3.86591e+10
-3.83478e+10
-3.80309e+10
-3.77239e+10
-3.74375e+10
-3.71769e+10
-3.6942e+10
-3.673e+10
-3.65373e+10
-3.63614e+10
-3.62013e+10
-3.60603e+10
-3.59434e+10
-3.58557e+10
-3.58006e+10
-3.57764e+10
-3.57729e+10
-3.57704e+10
-3.57409e+10
-3.56518e+10
-3.54774e+10
-3.52174e+10
-3.49167e+10
-3.46562e+10
-3.44644e+10
-3.4153e+10
-3.34002e+10
-3.27941e+10
-3.56212e+10
-4.57675e+10
-5.48033e+10
-3.01057e+10
-3.9978e+10
-3.99114e+10
-3.98685e+10
-3.98961e+10
-3.99459e+10
-3.99844e+10
-3.99858e+10
-3.99688e+10
-3.99783e+10
-4.00281e+10
-4.00727e+10
-4.00915e+10
-4.00969e+10
-4.00933e+10
-4.00742e+10
-4.00316e+10
-3.99592e+10
-3.98534e+10
-3.97135e+10
-3.95345e+10
-3.93085e+10
-3.9027e+10
-3.8692e+10
-3.83232e+10
-3.79478e+10
-3.75918e+10
-3.72707e+10
-3.69907e+10
-3.67498e+10
-3.65407e+10
-3.63561e+10
-3.61918e+10
-3.60475e+10
-3.59238e+10
-3.58226e+10
-3.57481e+10
-3.57041e+10
-3.56891e+10
-3.56939e+10
-3.57001e+10
-3.56811e+10
-3.56065e+10
-3.54532e+10
-3.52222e+10
-3.49574e+10
-3.47397e+10
-3.46052e+10
-3.43845e+10
-3.37664e+10
-3.32931e+10
-3.6122e+10
-4.60052e+10
-5.48599e+10
-2.98753e+10
-3.9936e+10
-3.98904e+10
-3.99262e+10
-3.99352e+10
-3.99541e+10
-3.99568e+10
-3.99648e+10
-3.99758e+10
-4.00003e+10
-4.00389e+10
-4.00737e+10
-4.00941e+10
-4.01016e+10
-4.00983e+10
-4.00787e+10
-4.00345e+10
-3.99597e+10
-3.98515e+10
-3.9708e+10
-3.95251e+10
-3.92945e+10
-3.90077e+10
-3.86678e+10
-3.82939e+10
-3.79144e+10
-3.75541e+10
-3.72297e+10
-3.69473e+10
-3.67053e+10
-3.6497e+10
-3.63148e+10
-3.61534e+10
-3.60113e+10
-3.58893e+10
-3.57899e+10
-3.57174e+10
-3.56745e+10
-3.56598e+10
-3.56638e+10
-3.56677e+10
-3.5644e+10
-3.55614e+10
-3.53952e+10
-3.51451e+10
-3.48528e+10
-3.4596e+10
-3.44034e+10
-3.40956e+10
-3.33416e+10
-3.25872e+10
-3.47966e+10
-4.44275e+10
-5.64906e+10
-3.85313e+10
-3.98397e+10
-3.97788e+10
-3.9781e+10
-3.9858e+10
-3.99228e+10
-3.99422e+10
-3.99379e+10
-3.99379e+10
-3.99807e+10
-4.0055e+10
-4.01101e+10
-4.01482e+10
-4.01795e+10
-4.02013e+10
-4.02058e+10
-4.0184e+10
-4.01279e+10
-4.00338e+10
-3.99003e+10
-3.97251e+10
-3.94951e+10
-3.919e+10
-3.8805e+10
-3.83649e+10
-3.79163e+10
-3.74983e+10
-3.71336e+10
-3.68288e+10
-3.65783e+10
-3.63701e+10
-3.61925e+10
-3.60381e+10
-3.5902e+10
-3.5783e+10
-3.56831e+10
-3.5606e+10
-3.55538e+10
-3.55241e+10
-3.55071e+10
-3.54844e+10
-3.5429e+10
-3.53106e+10
-3.51061e+10
-3.48159e+10
-3.4482e+10
-3.41807e+10
-3.39415e+10
-3.35885e+10
-3.27847e+10
-3.19858e+10
-3.43207e+10
-4.44597e+10
-5.68994e+10
-3.89656e+10
-3.97922e+10
-3.97392e+10
-3.98186e+10
-3.99091e+10
-3.99244e+10
-3.99079e+10
-3.99229e+10
-3.99472e+10
-3.99914e+10
-4.00514e+10
-4.01037e+10
-4.01454e+10
-4.01788e+10
-4.02017e+10
-4.02066e+10
-4.01851e+10
-4.01299e+10
-4.00368e+10
-3.99048e+10
-3.97306e+10
-3.95013e+10
-3.91975e+10
-3.88136e+10
-3.83751e+10
-3.79272e+10
-3.75087e+10
-3.71422e+10
-3.68344e+10
-3.65806e+10
-3.63703e+10
-3.61912e+10
-3.60349e+10
-3.58975e+10
-3.57784e+10
-3.56798e+10
-3.56058e+10
-3.55589e+10
-3.55364e+10
-3.55288e+10
-3.55177e+10
-3.54761e+10
-3.53741e+10
-3.51884e+10
-3.4919e+10
-3.46062e+10
-3.43237e+10
-3.40947e+10
-3.37302e+10
-3.28623e+10
-3.18267e+10
-3.34531e+10
-4.2551e+10
-5.51407e+10
-3.73593e+10
-3.97308e+10
-3.96614e+10
-3.96692e+10
-3.97387e+10
-3.98208e+10
-3.98418e+10
-3.98467e+10
-3.98828e+10
-3.99606e+10
-4.00503e+10
-4.01307e+10
-4.02057e+10
-4.02758e+10
-4.03355e+10
-4.03758e+10
-4.03856e+10
-4.03541e+10
-4.02752e+10
-4.01491e+10
-3.99779e+10
-3.97446e+10
-3.94089e+10
-3.89418e+10
-3.83784e+10
-3.78063e+10
-3.7294e+10
-3.68718e+10
-3.65423e+10
-3.62909e+10
-3.60967e+10
-3.59409e+10
-3.58112e+10
-3.57002e+10
-3.56052e+10
-3.55285e+10
-3.54735e+10
-3.54426e+10
-3.54332e+10
-3.54354e+10
-3.54302e+10
-3.5391e+10
-3.52876e+10
-3.50976e+10
-3.48225e+10
-3.45043e+10
-3.42169e+10
-3.39819e+10
-3.36074e+10
-3.27287e+10
-3.17365e+10
-3.35563e+10
-4.26155e+10
-5.41503e+10
-3.58255e+10
-3.97088e+10
-3.96359e+10
-3.96698e+10
-3.97572e+10
-3.97995e+10
-3.98099e+10
-3.98466e+10
-3.98958e+10
-3.99589e+10
-4.00362e+10
-4.01152e+10
-4.01913e+10
-4.02613e+10
-4.03204e+10
-4.03599e+10
-4.03692e+10
-4.0338e+10
-4.02599e+10
-4.01352e+10
-3.99648e+10
-3.97332e+10
-3.94005e+10
-3.89383e+10
-3.83815e+10
-3.78138e+10
-3.73039e+10
-3.68814e+10
-3.65495e+10
-3.6295e+10
-3.60985e+10
-3.59402e+10
-3.58072e+10
-3.56919e+10
-3.55923e+10
-3.55112e+10
-3.54524e+10
-3.54187e+10
-3.54082e+10
-3.54118e+10
-3.54115e+10
-3.53819e+10
-3.52953e+10
-3.51314e+10
-3.4895e+10
-3.46319e+10
-3.44202e+10
-3.42859e+10
-3.40386e+10
-3.33043e+10
-3.24595e+10
-3.44713e+10
-4.36555e+10
-5.25979e+10
-2.8271e+10
-3.96982e+10
-3.96469e+10
-3.96105e+10
-3.96242e+10
-3.96972e+10
-3.97428e+10
-3.97857e+10
-3.9865e+10
-3.99676e+10
-4.00735e+10
-4.01872e+10
-4.03038e+10
-4.04171e+10
-4.05197e+10
-4.06012e+10
-4.0649e+10
-4.06499e+10
-4.05941e+10
-4.04836e+10
-4.03273e+10
-4.01131e+10
-3.97652e+10
-3.91898e+10
-3.84212e+10
-3.76352e+10
-3.6973e+10
-3.64723e+10
-3.61214e+10
-3.58829e+10
-3.57183e+10
-3.5598e+10
-3.55027e+10
-3.54224e+10
-3.53548e+10
-3.53028e+10
-3.52715e+10
-3.52642e+10
-3.5279e+10
-3.53064e+10
-3.53275e+10
-3.53162e+10
-3.52439e+10
-3.50907e+10
-3.48625e+10
-3.46066e+10
-3.44007e+10
-3.42624e+10
-3.39836e+10
-3.31886e+10
-3.23374e+10
-3.45057e+10
-4.35224e+10
-5.15327e+10
-2.73832e+10
-3.96998e+10
-3.96272e+10
-3.9591e+10
-3.96164e+10
-3.96788e+10
-3.97433e+10
-3.97963e+10
-3.9867e+10
-3.99563e+10
-4.00599e+10
-4.01723e+10
-4.02874e+10
-4.03989e+10
-4.05e+10
-4.05802e+10
-4.06273e+10
-4.06282e+10
-4.05737e+10
-4.0465e+10
-4.03118e+10
-4.01019e+10
-3.97621e+10
-3.92016e+10
-3.84507e+10
-3.76796e+10
-3.70256e+10
-3.65275e+10
-3.61741e+10
-3.59303e+10
-3.57598e+10
-3.56327e+10
-3.553e+10
-3.54417e+10
-3.53654e+10
-3.53044e+10
-3.52636e+10
-3.52458e+10
-3.52493e+10
-3.52643e+10
-3.52721e+10
-3.52464e+10
-3.51583e+10
-3.49882e+10
-3.47422e+10
-3.44683e+10
-3.42437e+10
-3.40825e+10
-3.3768e+10
-3.29006e+10
-3.18574e+10
-3.35806e+10
-4.22131e+10
-5.10042e+10
-2.74769e+10
-3.95659e+10
-3.95316e+10
-3.94637e+10
-3.94533e+10
-3.95043e+10
-3.9569e+10
-3.96463e+10
-3.97458e+10
-3.98667e+10
-4.00055e+10
-4.01587e+10
-4.03208e+10
-4.04848e+10
-4.0642e+10
-4.07805e+10
-4.08863e+10
-4.09441e+10
-4.09395e+10
-4.087e+10
-4.07563e+10
-4.06117e+10
-4.03351e+10
-3.96933e+10
-3.86424e+10
-3.75197e+10
-3.66594e+10
-3.60812e+10
-3.57247e+10
-3.55132e+10
-3.53857e+10
-3.53009e+10
-3.52338e+10
-3.51729e+10
-3.51171e+10
-3.50707e+10
-3.50396e+10
-3.50278e+10
-3.50339e+10
-3.50478e+10
-3.50501e+10
-3.50124e+10
-3.49047e+10
-3.47061e+10
-3.44216e+10
-3.40967e+10
-3.38011e+10
-3.35308e+10
-3.3042e+10
-3.1932e+10
-3.06446e+10
-3.2264e+10
-4.11452e+10
-5.08007e+10
-2.74771e+10
-3.95459e+10
-3.94885e+10
-3.94402e+10
-3.94431e+10
-3.95112e+10
-3.95817e+10
-3.96453e+10
-3.97414e+10
-3.98615e+10
-3.99989e+10
-4.01507e+10
-4.03118e+10
-4.04749e+10
-4.06311e+10
-4.07687e+10
-4.08736e+10
-4.09305e+10
-4.0925e+10
-4.0855e+10
-4.07419e+10
-4.05983e+10
-4.03207e+10
-3.96776e+10
-3.86297e+10
-3.75112e+10
-3.66556e+10
-3.6084e+10
-3.57358e+10
-3.55349e+10
-3.54191e+10
-3.5346e+10
-3.529e+10
-3.52397e+10
-3.51934e+10
-3.51552e+10
-3.51312e+10
-3.51247e+10
-3.51337e+10
-3.51471e+10
-3.5144e+10
-3.5094e+10
-3.49647e+10
-3.47321e+10
-3.43974e+10
-3.40009e+10
-3.36068e+10
-3.32032e+10
-3.25352e+10
-3.11746e+10
-2.94583e+10
-3.02502e+10
-3.83292e+10
-5.00377e+10
-3.14766e+10
-3.94647e+10
-3.94304e+10
-3.94051e+10
-3.94194e+10
-3.94652e+10
-3.95385e+10
-3.96379e+10
-3.97619e+10
-3.99112e+10
-4.00847e+10
-4.02791e+10
-4.04898e+10
-4.07094e+10
-4.09276e+10
-4.11291e+10
-4.12961e+10
-4.14105e+10
-4.14535e+10
-4.14135e+10
-4.13205e+10
-4.1245e+10
-4.11118e+10
-4.04583e+10
-3.89016e+10
-3.71233e+10
-3.60315e+10
-3.54767e+10
-3.52143e+10
-3.51212e+10
-3.51016e+10
-3.51037e+10
-3.51015e+10
-3.50878e+10
-3.50655e+10
-3.50427e+10
-3.50284e+10
-3.50286e+10
-3.50435e+10
-3.50643e+10
-3.50719e+10
-3.5038e+10
-3.49317e+10
-3.473e+10
-3.44339e+10
-3.40815e+10
-3.3729e+10
-3.33499e+10
-3.26828e+10
-3.13541e+10
-2.98972e+10
-3.13573e+10
-3.97829e+10
-4.96961e+10
-2.94732e+10
-3.94251e+10
-3.93994e+10
-3.94005e+10
-3.94273e+10
-3.94784e+10
-3.9541e+10
-3.96325e+10
-3.97545e+10
-3.9903e+10
-4.00748e+10
-4.02667e+10
-4.04745e+10
-4.06909e+10
-4.09056e+10
-4.11034e+10
-4.1266e+10
-4.13746e+10
-4.14111e+10
-4.13673e+10
-4.12747e+10
-4.12005e+10
-4.10682e+10
-4.04378e+10
-3.89327e+10
-3.72086e+10
-3.6111e+10
-3.55285e+10
-3.52453e+10
-3.51416e+10
-3.51198e+10
-3.51252e+10
-3.51297e+10
-3.51249e+10
-3.51132e+10
-3.51026e+10
-3.51017e+10
-3.51167e+10
-3.5148e+10
-3.51867e+10
-3.52139e+10
-3.52013e+10
-3.5118e+10
-3.49409e+10
-3.46707e+10
-3.43452e+10
-3.40197e+10
-3.36653e+10
-3.30146e+10
-3.16731e+10
-3.01137e+10
-3.13415e+10
-3.97044e+10
-4.96195e+10
-2.75561e+10
-3.92547e+10
-3.91926e+10
-3.92186e+10
-3.9249e+10
-3.92898e+10
-3.93531e+10
-3.94518e+10
-3.95859e+10
-3.9755e+10
-3.99585e+10
-4.01946e+10
-4.04608e+10
-4.07527e+10
-4.1061e+10
-4.13637e+10
-4.16266e+10
-4.18272e+10
-4.19537e+10
-4.19882e+10
-4.1946e+10
-4.19464e+10
-4.20938e+10
-4.17764e+10
-3.95369e+10
-3.64291e+10
-3.49073e+10
-3.44009e+10
-3.43232e+10
-3.44589e+10
-3.46275e+10
-3.47654e+10
-3.48551e+10
-3.49022e+10
-3.49191e+10
-3.49208e+10
-3.49212e+10
-3.49301e+10
-3.49514e+10
-3.49803e+10
-3.50014e+10
-3.49909e+10
-3.4922e+10
-3.47747e+10
-3.45521e+10
-3.42929e+10
-3.40504e+10
-3.37954e+10
-3.32771e+10
-3.21993e+10
-3.13238e+10
-3.39514e+10
-4.33279e+10
-5.02175e+10
-2.56729e+10
-3.92295e+10
-3.92072e+10
-3.92379e+10
-3.92723e+10
-3.93088e+10
-3.93658e+10
-3.94596e+10
-3.9589e+10
-3.97532e+10
-3.99506e+10
-4.01793e+10
-4.04373e+10
-4.07208e+10
-4.10197e+10
-4.13124e+10
-4.15687e+10
-4.17661e+10
-4.18875e+10
-4.19132e+10
-4.186e+10
-4.18657e+10
-4.20545e+10
-4.18016e+10
-3.96878e+10
-3.66912e+10
-3.51304e+10
-3.4567e+10
-3.4448e+10
-3.45464e+10
-3.46855e+10
-3.48032e+10
-3.48799e+10
-3.49188e+10
-3.49312e+10
-3.49311e+10
-3.49323e+10
-3.49448e+10
-3.49722e+10
-3.50098e+10
-3.50427e+10
-3.5048e+10
-3.49996e+10
-3.4879e+10
-3.46908e+10
-3.44746e+10
-3.42849e+10
-3.40888e+10
-3.36219e+10
-3.2552e+10
-3.15734e+10
-3.39423e+10
-4.30097e+10
-5.04194e+10
-2.78209e+10
-3.90704e+10
-3.90224e+10
-3.90656e+10
-3.9096e+10
-3.91445e+10
-3.92184e+10
-3.9334e+10
-3.94981e+10
-3.97151e+10
-3.99861e+10
-4.03114e+10
-4.06891e+10
-4.11154e+10
-4.1582e+10
-4.20491e+10
-4.24433e+10
-4.27525e+10
-4.30071e+10
-4.31745e+10
-4.32193e+10
-4.31926e+10
-4.35166e+10
-4.43748e+10
-4.23498e+10
-3.74399e+10
-3.34797e+10
-3.32074e+10
-3.35914e+10
-3.4034e+10
-3.43743e+10
-3.46084e+10
-3.4754e+10
-3.48349e+10
-3.48724e+10
-3.48864e+10
-3.48935e+10
-3.49053e+10
-3.49259e+10
-3.49507e+10
-3.49657e+10
-3.49488e+10
-3.48748e+10
-3.47269e+10
-3.45111e+10
-3.42682e+10
-3.40548e+10
-3.38491e+10
-3.34212e+10
-3.25092e+10
-3.18565e+10
-3.44935e+10
-4.34914e+10
-5.14871e+10
-2.77762e+10
-3.90449e+10
-3.90241e+10
-3.90661e+10
-3.90961e+10
-3.91421e+10
-3.92153e+10
-3.93296e+10
-3.94919e+10
-3.97064e+10
-3.9974e+10
-4.02952e+10
-4.06699e+10
-4.10954e+10
-4.15573e+10
-4.2017e+10
-4.24193e+10
-4.27395e+10
-4.29704e+10
-4.30837e+10
-4.30653e+10
-4.30906e+10
-4.36656e+10
-4.46261e+10
-4.26761e+10
-3.78212e+10
-3.33763e+10
-3.31824e+10
-3.36185e+10
-3.40815e+10
-3.44275e+10
-3.46618e+10
-3.48064e+10
-3.48862e+10
-3.49229e+10
-3.49362e+10
-3.4942e+10
-3.49515e+10
-3.49688e+10
-3.49891e+10
-3.49979e+10
-3.49727e+10
-3.4888e+10
-3.47261e+10
-3.44919e+10
-3.42243e+10
-3.39756e+10
-3.37125e+10
-3.31737e+10
-3.20377e+10
-3.09997e+10
-3.31924e+10
-4.22268e+10
-5.26591e+10
-3.58345e+10
-3.89993e+10
-3.90072e+10
-3.90199e+10
-3.9041e+10
-3.90831e+10
-3.9159e+10
-3.92806e+10
-3.94566e+10
-3.96904e+10
-3.9981e+10
-4.03296e+10
-4.07333e+10
-4.11848e+10
-4.16719e+10
-4.21383e+10
-4.25161e+10
-4.28364e+10
-4.31076e+10
-4.32939e+10
-4.33764e+10
-4.3376e+10
-4.38301e+10
-4.52128e+10
-4.63454e+10
-4.31889e+10
-2.8483e+10
-3.09591e+10
-3.26568e+10
-3.36276e+10
-3.4185e+10
-3.45245e+10
-3.47259e+10
-3.4841e+10
-3.49024e+10
-3.49347e+10
-3.4956e+10
-3.49776e+10
-3.50033e+10
-3.50269e+10
-3.50324e+10
-3.49958e+10
-3.48903e+10
-3.46976e+10
-3.44223e+10
-3.41051e+10
-3.38055e+10
-3.35111e+10
-3.30083e+10
-3.2031e+10
-3.12597e+10
-3.37348e+10
-4.29448e+10
-5.14577e+10
-2.92459e+10
-3.8995e+10
-3.90099e+10
-3.9016e+10
-3.90333e+10
-3.90712e+10
-3.91439e+10
-3.92622e+10
-3.94343e+10
-3.9664e+10
-3.99511e+10
-4.02965e+10
-4.07002e+10
-4.11559e+10
-4.1644e+10
-4.21197e+10
-4.25216e+10
-4.28321e+10
-4.30567e+10
-4.31893e+10
-4.32196e+10
-4.33018e+10
-4.41115e+10
-4.54651e+10
-4.63845e+10
-4.36027e+10
-2.8465e+10
-3.08739e+10
-3.25945e+10
-3.35999e+10
-3.41784e+10
-3.45293e+10
-3.47369e+10
-3.48555e+10
-3.49188e+10
-3.4952e+10
-3.49735e+10
-3.4995e+10
-3.50202e+10
-3.5043e+10
-3.50478e+10
-3.50107e+10
-3.49054e+10
-3.47136e+10
-3.44397e+10
-3.41231e+10
-3.38198e+10
-3.35074e+10
-3.29409e+10
-3.18233e+10
-3.10292e+10
-3.4377e+10
-4.54626e+10
-5.2868e+10
-2.70015e+10
-3.89864e+10
-3.90309e+10
-3.90316e+10
-3.90551e+10
-3.90983e+10
-3.91771e+10
-3.93011e+10
-3.94789e+10
-3.97129e+10
-4.00021e+10
-4.0349e+10
-4.07566e+10
-4.12135e+10
-4.16996e+10
-4.21619e+10
-4.2529e+10
-4.28333e+10
-4.30838e+10
-4.32566e+10
-4.33581e+10
-4.33708e+10
-4.36972e+10
-4.57369e+10
-4.5688e+10
-2.30956e+10
-3.06562e+10
-3.24617e+10
-3.35067e+10
-3.41008e+10
-3.44554e+10
-3.46608e+10
-3.47749e+10
-3.48335e+10
-3.48626e+10
-3.48812e+10
-3.49009e+10
-3.49254e+10
-3.49484e+10
-3.4954e+10
-3.49185e+10
-3.48158e+10
-3.46282e+10
-3.43613e+10
-3.40586e+10
-3.37862e+10
-3.35443e+10
-3.31254e+10
-3.22177e+10
-3.13372e+10
-3.32623e+10
-4.15487e+10
-5.09402e+10
-3.38341e+10
-3.89979e+10
-3.90508e+10
-3.90446e+10
-3.90642e+10
-3.91034e+10
-3.91778e+10
-3.92963e+10
-3.94674e+10
-3.96942e+10
-3.99772e+10
-4.03179e+10
-4.0718e+10
-4.11704e+10
-4.16553e+10
-4.21263e+10
-4.25198e+10
-4.28233e+10
-4.30497e+10
-4.31846e+10
-4.32159e+10
-4.32739e+10
-4.39959e+10
-4.57973e+10
-4.587e+10
-2.41329e+10
-3.06432e+10
-3.24117e+10
-3.34654e+10
-3.4074e+10
-3.44377e+10
-3.46479e+10
-3.47638e+10
-3.48221e+10
-3.48501e+10
-3.48676e+10
-3.48874e+10
-3.4914e+10
-3.49427e+10
-3.49588e+10
-3.49399e+10
-3.48616e+10
-3.47074e+10
-3.44838e+10
-3.4234e+10
-3.40223e+10
-3.38438e+10
-3.34767e+10
-3.26186e+10
-3.20017e+10
-3.50266e+10
-4.50003e+10
-5.23162e+10
-2.63143e+10
-3.90683e+10
-3.90862e+10
-3.90968e+10
-3.91219e+10
-3.91682e+10
-3.92462e+10
-3.9365e+10
-3.95314e+10
-3.9748e+10
-4.00148e+10
-4.03336e+10
-4.07067e+10
-4.11249e+10
-4.1569e+10
-4.20019e+10
-4.23746e+10
-4.26617e+10
-4.28874e+10
-4.30722e+10
-4.3148e+10
-4.31847e+10
-4.34634e+10
-4.43692e+10
-4.42783e+10
-3.69577e+10
-3.27738e+10
-3.28099e+10
-3.34408e+10
-3.40215e+10
-3.4427e+10
-3.46864e+10
-3.48401e+10
-3.4923e+10
-3.49617e+10
-3.4978e+10
-3.49884e+10
-3.50038e+10
-3.50277e+10
-3.50547e+10
-3.507e+10
-3.50522e+10
-3.49782e+10
-3.48332e+10
-3.46262e+10
-3.44046e+10
-3.4241e+10
-3.4148e+10
-3.39342e+10
-3.3302e+10
-3.28116e+10
-3.54504e+10
-4.44831e+10
-5.15189e+10
-2.62153e+10
-3.90861e+10
-3.90998e+10
-3.91106e+10
-3.91338e+10
-3.91781e+10
-3.92529e+10
-3.93671e+10
-3.9527e+10
-3.97352e+10
-3.99918e+10
-4.02979e+10
-4.06547e+10
-4.10574e+10
-4.14906e+10
-4.1922e+10
-4.231e+10
-4.26344e+10
-4.28903e+10
-4.30387e+10
-4.30452e+10
-4.30724e+10
-4.35992e+10
-4.43991e+10
-4.41609e+10
-3.72711e+10
-3.25584e+10
-3.26303e+10
-3.33246e+10
-3.39563e+10
-3.43952e+10
-3.4674e+10
-3.48384e+10
-3.49272e+10
-3.49694e+10
-3.4988e+10
-3.50007e+10
-3.50191e+10
-3.50472e+10
-3.50802e+10
-3.51041e+10
-3.50977e+10
-3.50375e+10
-3.49076e+10
-3.47143e+10
-3.44998e+10
-3.43286e+10
-3.42023e+10
-3.39144e+10
-3.31401e+10
-3.23851e+10
-3.46375e+10
-4.38805e+10
-5.33094e+10
-3.08851e+10
-3.92006e+10
-3.91819e+10
-3.92017e+10
-3.92266e+10
-3.92711e+10
-3.93394e+10
-3.94378e+10
-3.95694e+10
-3.97347e+10
-3.99324e+10
-4.01602e+10
-4.0415e+10
-4.06893e+10
-4.09698e+10
-4.12352e+10
-4.14594e+10
-4.16203e+10
-4.171e+10
-4.17245e+10
-4.16739e+10
-4.16807e+10
-4.18443e+10
-4.16206e+10
-3.96204e+10
-3.68616e+10
-3.53126e+10
-3.47559e+10
-3.46374e+10
-3.47356e+10
-3.4868e+10
-3.49787e+10
-3.50502e+10
-3.50866e+10
-3.50987e+10
-3.50993e+10
-3.51005e+10
-3.51105e+10
-3.5131e+10
-3.51555e+10
-3.51691e+10
-3.51504e+10
-3.50766e+10
-3.49328e+10
-3.47277e+10
-3.45073e+10
-3.4343e+10
-3.42497e+10
-3.40453e+10
-3.34332e+10
-3.29181e+10
-3.54183e+10
-4.47025e+10
-5.35395e+10
-2.93002e+10
-3.91971e+10
-3.91821e+10
-3.92002e+10
-3.92251e+10
-3.92695e+10
-3.93379e+10
-3.94366e+10
-3.95686e+10
-3.97346e+10
-3.99327e+10
-4.01603e+10
-4.04139e+10
-4.06865e+10
-4.09657e+10
-4.12315e+10
-4.14613e+10
-4.16382e+10
-4.1748e+10
-4.17698e+10
-4.17165e+10
-4.17295e+10
-4.19279e+10
-4.16674e+10
-3.9624e+10
-3.67473e+10
-3.51294e+10
-3.4597e+10
-3.45281e+10
-3.46679e+10
-3.48302e+10
-3.49613e+10
-3.50477e+10
-3.50964e+10
-3.51197e+10
-3.51318e+10
-3.51454e+10
-3.51691e+10
-3.52046e+10
-3.52458e+10
-3.52772e+10
-3.52768e+10
-3.52197e+10
-3.50881e+10
-3.48847e+10
-3.46466e+10
-3.44319e+10
-3.42381e+10
-3.38595e+10
-3.29388e+10
-3.17913e+10
-3.31224e+10
-4.21086e+10
-5.55039e+10
-3.87383e+10
-3.92878e+10
-3.9276e+10
-3.92965e+10
-3.93263e+10
-3.93748e+10
-3.94443e+10
-3.95388e+10
-3.96598e+10
-3.98068e+10
-3.99776e+10
-4.01682e+10
-4.03721e+10
-4.05795e+10
-4.07776e+10
-4.09512e+10
-4.1084e+10
-4.11619e+10
-4.11704e+10
-4.10985e+10
-4.09699e+10
-4.08524e+10
-4.06892e+10
-4.00773e+10
-3.8692e+10
-3.71307e+10
-3.61151e+10
-3.5553e+10
-3.52708e+10
-3.51703e+10
-3.51524e+10
-3.51615e+10
-3.51676e+10
-3.51613e+10
-3.51444e+10
-3.51243e+10
-3.51094e+10
-3.5106e+10
-3.51142e+10
-3.51269e+10
-3.51283e+10
-3.50972e+10
-3.50109e+10
-3.48553e+10
-3.4639e+10
-3.44068e+10
-3.4229e+10
-3.41211e+10
-3.39091e+10
-3.33045e+10
-3.27749e+10
-3.50651e+10
-4.38745e+10
-5.3164e+10
-3.06369e+10
-3.92795e+10
-3.92716e+10
-3.92911e+10
-3.93217e+10
-3.93714e+10
-3.94429e+10
-3.95404e+10
-3.96655e+10
-3.98181e+10
-3.99958e+10
-4.01944e+10
-4.04072e+10
-4.06246e+10
-4.08334e+10
-4.10176e+10
-4.11606e+10
-4.12463e+10
-4.12575e+10
-4.11848e+10
-4.10582e+10
-4.09448e+10
-4.07734e+10
-4.01304e+10
-3.86878e+10
-3.70684e+10
-3.60259e+10
-3.54728e+10
-3.52112e+10
-3.51296e+10
-3.51269e+10
-3.51477e+10
-3.5164e+10
-3.51682e+10
-3.5163e+10
-3.51562e+10
-3.51569e+10
-3.51708e+10
-3.51982e+10
-3.52313e+10
-3.5254e+10
-3.52436e+10
-3.51763e+10
-3.50357e+10
-3.48264e+10
-3.45865e+10
-3.43752e+10
-3.41933e+10
-3.38398e+10
-3.29491e+10
-3.17772e+10
-3.29461e+10
-4.16435e+10
-5.51225e+10
-3.92487e+10
-3.93276e+10
-3.93241e+10
-3.93381e+10
-3.93643e+10
-3.94069e+10
-3.94677e+10
-3.95491e+10
-3.96519e+10
-3.97755e+10
-3.99179e+10
-4.00755e+10
-4.0242e+10
-4.04084e+10
-4.05639e+10
-4.06961e+10
-4.07916e+10
-4.08372e+10
-4.08198e+10
-4.07334e+10
-4.05929e+10
-4.0407e+10
-4.00816e+10
-3.94102e+10
-3.83717e+10
-3.72993e+10
-3.64949e+10
-3.59701e+10
-3.56586e+10
-3.54885e+10
-3.53974e+10
-3.5342e+10
-3.52967e+10
-3.52501e+10
-3.52013e+10
-3.51553e+10
-3.51188e+10
-3.50966e+10
-3.5088e+10
-3.50848e+10
-3.50711e+10
-3.50257e+10
-3.49273e+10
-3.47638e+10
-3.4546e+10
-3.43207e+10
-3.41594e+10
-3.4077e+10
-3.38951e+10
-3.33249e+10
-3.28707e+10
-3.53319e+10
-4.40788e+10
-5.16844e+10
-2.68546e+10
-3.93299e+10
-3.93224e+10
-3.93383e+10
-3.93649e+10
-3.94086e+10
-3.94709e+10
-3.95543e+10
-3.96601e+10
-3.97875e+10
-3.99345e+10
-4.00976e+10
-4.02704e+10
-4.0444e+10
-4.06074e+10
-4.07475e+10
-4.08506e+10
-4.09022e+10
-4.0888e+10
-4.08026e+10
-4.06625e+10
-4.04755e+10
-4.01391e+10
-3.9438e+10
-3.83628e+10
-3.72609e+10
-3.64489e+10
-3.59313e+10
-3.56304e+10
-3.54697e+10
-3.53858e+10
-3.53362e+10
-3.52961e+10
-3.52551e+10
-3.52126e+10
-3.51737e+10
-3.51448e+10
-3.51307e+10
-3.513e+10
-3.51339e+10
-3.51255e+10
-3.50825e+10
-3.49825e+10
-3.48124e+10
-3.45816e+10
-3.43344e+10
-3.41378e+10
-3.40011e+10
-3.37315e+10
-3.29971e+10
-3.22627e+10
-3.46222e+10
-4.43505e+10
-5.39785e+10
-3.00749e+10
-3.93877e+10
-3.93853e+10
-3.93969e+10
-3.94198e+10
-3.94567e+10
-3.95082e+10
-3.95756e+10
-3.96587e+10
-3.97563e+10
-3.98662e+10
-3.9985e+10
-4.01073e+10
-4.02259e+10
-4.03323e+10
-4.04169e+10
-4.0469e+10
-4.04759e+10
-4.04276e+10
-4.03228e+10
-4.01684e+10
-3.99507e+10
-3.95959e+10
-3.90178e+10
-3.82538e+10
-3.74759e+10
-3.68272e+10
-3.63423e+10
-3.60039e+10
-3.57727e+10
-3.56091e+10
-3.54825e+10
-3.5373e+10
-3.52712e+10
-3.51755e+10
-3.50897e+10
-3.50185e+10
-3.49647e+10
-3.49254e+10
-3.48904e+10
-3.48419e+10
-3.47571e+10
-3.46133e+10
-3.43973e+10
-3.41188e+10
-3.38237e+10
-3.35793e+10
-3.33871e+10
-3.30383e+10
-3.21968e+10
-3.13173e+10
-3.31801e+10
-4.16943e+10
-5.12558e+10
-3.02287e+10
-3.93898e+10
-3.93779e+10
-3.93935e+10
-3.94164e+10
-3.94539e+10
-3.95059e+10
-3.95739e+10
-3.96578e+10
-3.97564e+10
-3.98675e+10
-3.99874e+10
-4.01112e+10
-4.02317e+10
-4.03404e+10
-4.04275e+10
-4.04817e+10
-4.04905e+10
-4.04436e+10
-4.03401e+10
-4.01877e+10
-3.99721e+10
-3.96171e+10
-3.90371e+10
-3.82692e+10
-3.74928e+10
-3.68486e+10
-3.63694e+10
-3.60358e+10
-3.58081e+10
-3.56476e+10
-3.55245e+10
-3.54192e+10
-3.53226e+10
-3.5233e+10
-3.51537e+10
-3.5089e+10
-3.50412e+10
-3.50067e+10
-3.49743e+10
-3.4925e+10
-3.48353e+10
-3.46818e+10
-3.44511e+10
-3.41529e+10
-3.3833e+10
-3.35602e+10
-3.33385e+10
-3.29552e+10
-3.20796e+10
-3.13655e+10