/*--------------------------------*- C++ -*----------------------------------*\
| =========                 |                                                 |
| \\      /  F ield         | OpenFOAM: The Open Source CFD Toolbox           |
|  \\    /   O peration     | Version:  4.1                                   |
|   \\  /    A nd           | Web:      www.OpenFOAM.org                      |
|    \\/     M anipulation  |                                                 |
\*---------------------------------------------------------------------------*/
FoamFile
{
    version     2.0;
    format      ascii;
    class       surfaceScalarField;
    location    "52";
    object      phi;
}
// * * * * * * * * * * * * * * * * * * * * * * * * * * * * * * * * * * * * * //

dimensions      [0 3 -1 0 0 0 0];

internalField   nonuniform List<scalar> 
11516
(
-4.45323e+10
-1.62217e+08
8.52549e+07
-4.43869e+10
-1.68625e+08
4.82347e+06
-4.43133e+10
-1.69449e+08
8.30191e+07
-4.40242e+10
-2.45218e+08
-5.07467e+07
-4.3884e+10
-1.58596e+08
1.64822e+07
-4.37848e+10
-1.59593e+08
6.32625e+07
-4.36659e+10
-1.70792e+08
5.85708e+07
-4.35747e+10
-1.63811e+08
8.24566e+07
-4.34909e+10
-1.61636e+08
9.02923e+07
-4.34101e+10
-1.58795e+08
9.32433e+07
-4.33267e+10
-1.56355e+08
9.01946e+07
-4.32333e+10
-1.5531e+08
8.07506e+07
-4.31199e+10
-1.567e+08
6.19895e+07
-4.29788e+10
-1.59556e+08
3.75811e+07
-4.27988e+10
-1.62526e+08
5.66944e+06
-4.25726e+10
-1.65403e+08
-3.27066e+07
-4.2295e+10
-1.67909e+08
-7.38777e+07
-4.19617e+10
-1.71786e+08
-1.2223e+08
-4.15668e+10
-1.75981e+08
-1.72171e+08
-4.1105e+10
-1.80599e+08
-2.26626e+08
-4.05714e+10
-1.85197e+08
-2.83133e+08
-3.99722e+10
-1.90685e+08
-3.36739e+08
-3.93093e+10
-1.96409e+08
-3.88825e+08
-3.8595e+10
-2.02213e+08
-4.29992e+08
-3.7836e+10
-2.07506e+08
-4.6419e+08
-3.70458e+10
-2.11822e+08
-4.84267e+08
-3.6232e+10
-2.14787e+08
-4.96763e+08
-3.54083e+10
-2.16101e+08
-4.96317e+08
-3.45827e+10
-2.15443e+08
-4.89392e+08
-3.37652e+10
-2.12546e+08
-4.74504e+08
-3.29643e+10
-2.07066e+08
-4.53278e+08
-3.21846e+10
-1.98797e+08
-4.29566e+08
-3.14339e+10
-1.8742e+08
-3.99985e+08
-3.07152e+10
-1.72499e+08
-3.69015e+08
-3.00303e+10
-1.53793e+08
-3.38014e+08
-2.93795e+10
-1.3185e+08
-3.0716e+08
-2.8755e+10
-1.09543e+08
-2.81504e+08
-2.81488e+10
-8.6874e+07
-2.60722e+08
-2.75524e+10
-6.22405e+07
-2.46705e+08
-2.696e+10
-3.48209e+07
-2.37132e+08
-2.63669e+10
-3.25977e+06
-2.32317e+08
-2.57665e+10
3.38892e+07
-2.337e+08
-2.51523e+10
7.92546e+07
-2.41763e+08
-2.45197e+10
1.38357e+08
-2.56583e+08
-2.38716e+10
2.16309e+08
-2.79327e+08
-2.32305e+10
3.19456e+08
-3.16212e+08
-2.26398e+10
4.54036e+08
-3.9376e+08
-2.21374e+10
6.19533e+08
-5.34269e+08
-2.18961e+10
8.05138e+08
-6.52223e+08
-2.22797e+10
1.04191e+09
-1.77851e+08
-2.43699e+10
1.8937e+09
5.89226e+08
-2.91408e+10
4.72341e+09
8.84314e+08
-3.12619e+10
1.156e+10
-9.01356e+09
5.22749e+09
-1.67964e+10
-5.72685e+10
-2.26289e+08
-5.7123e+10
-3.23227e+08
-5.69904e+10
-3.08908e+08
-5.69391e+10
-3.00774e+08
-5.6779e+10
-3.19808e+08
-5.66547e+10
-2.82369e+08
-5.65411e+10
-2.80872e+08
-5.64342e+10
-2.65567e+08
-5.63254e+10
-2.6383e+08
-5.62137e+10
-2.62686e+08
-5.60948e+10
-2.66233e+08
-5.59674e+10
-2.73216e+08
-5.58257e+10
-2.88882e+08
-5.56671e+10
-3.07798e+08
-5.54847e+10
-3.32951e+08
-5.52723e+10
-3.62301e+08
-5.50286e+10
-3.94081e+08
-5.47483e+10
-4.31441e+08
-5.44311e+10
-4.69438e+08
-5.40726e+10
-5.10218e+08
-5.36718e+10
-5.52896e+08
-5.32343e+10
-5.91219e+08
-5.2762e+10
-6.28896e+08
-5.2266e+10
-6.55836e+08
-5.17505e+10
-6.77936e+08
-5.12268e+10
-6.87115e+08
-5.0698e+10
-6.91273e+08
-5.01739e+10
-6.83743e+08
-4.96566e+10
-6.71893e+08
-4.91507e+10
-6.53313e+08
-4.86586e+10
-6.29427e+08
-4.81778e+10
-6.051e+08
-4.77087e+10
-5.76422e+08
-4.72468e+10
-5.48103e+08
-4.67867e+10
-5.2001e+08
-4.63237e+10
-4.92365e+08
-4.58499e+10
-4.70495e+08
-4.53612e+10
-4.50819e+08
-4.48475e+10
-4.37467e+08
-4.43005e+10
-4.28052e+08
-4.37098e+10
-4.22642e+08
-4.30614e+10
-4.2326e+08
-4.23389e+10
-4.27765e+08
-4.15229e+10
-4.33611e+08
-4.05921e+10
-4.39566e+08
-3.9535e+10
-4.43639e+08
-3.83423e+10
-4.52353e+08
-3.70419e+10
-4.49414e+08
-3.57913e+10
-2.8541e+08
-3.53005e+10
6.97466e+08
-3.61132e+10
2.94316e+09
-3.52135e+10
4.03475e+09
-1.27929e+10
-1.07192e+10
-1.4616e+10
-6.64458e+10
3.78233e+06
4.98032e+07
-6.645e+10
-3.45177e+07
3.58032e+07
-6.6448e+10
-4.32163e+07
1.16095e+08
-6.65088e+10
-2.6195e+07
3.05849e+07
-6.64786e+10
-3.8857e+07
2.28053e+07
-6.64718e+10
-3.07593e+07
8.76942e+07
-6.64846e+10
-2.87324e+07
1.02465e+08
-6.64912e+10
-2.52558e+07
1.18049e+08
-6.6498e+10
-2.5199e+07
1.27417e+08
-6.65087e+10
-2.23609e+07
1.32723e+08
-6.65182e+10
-2.091e+07
1.28351e+08
-6.65241e+10
-1.98231e+07
1.15459e+08
-6.65278e+10
-1.98876e+07
9.33962e+07
-6.65265e+10
-2.00106e+07
6.50177e+07
-6.65212e+10
-2.06235e+07
2.82677e+07
-6.65096e+10
-2.07079e+07
-1.23086e+07
-6.64907e+10
-2.13153e+07
-5.96405e+07
-6.64641e+10
-2.19517e+07
-1.11875e+08
-6.64291e+10
-2.34927e+07
-1.67008e+08
-6.63846e+10
-2.46108e+07
-2.24045e+08
-6.63327e+10
-2.61856e+07
-2.81171e+08
-6.62741e+10
-2.80945e+07
-3.33973e+08
-6.62155e+10
-3.05433e+07
-3.79451e+08
-6.61578e+10
-3.35152e+07
-4.13808e+08
-6.61117e+10
-3.69085e+07
-4.30911e+08
-6.60753e+10
-4.06162e+07
-4.35269e+08
-6.60562e+10
-4.45801e+07
-4.2353e+08
-6.60525e+10
-4.88363e+07
-4.00212e+08
-6.60694e+10
-5.33821e+07
-3.64615e+08
-6.61054e+10
-5.82925e+07
-3.22362e+08
-6.6163e+10
-6.36273e+07
-2.7085e+08
-6.6244e+10
-6.96794e+07
-2.14146e+08
-6.63474e+10
-7.66712e+07
-1.51003e+08
-6.64773e+10
-8.45394e+07
-8.10185e+07
-6.66355e+10
-9.31833e+07
-7.13919e+06
-6.68265e+10
-1.03561e+08
7.37649e+07
-6.70567e+10
-1.16277e+08
1.59769e+08
-6.7334e+10
-1.31668e+08
2.5286e+08
-6.76679e+10
-1.50259e+08
3.53935e+08
-6.80688e+10
-1.72336e+08
4.65611e+08
-6.85473e+10
-1.97902e+08
5.89278e+08
-6.91261e+10
-2.2707e+08
7.347e+08
-6.9825e+10
-2.58765e+08
9.00842e+08
-7.06664e+10
-2.92849e+08
1.09019e+09
-7.1679e+10
-3.26991e+08
1.3072e+09
-7.29156e+10
-3.57192e+08
1.55232e+09
-7.4485e+10
-3.74466e+08
1.82076e+09
-7.65396e+10
-3.57626e+08
2.08239e+09
-7.91243e+10
-2.6974e+08
2.29929e+09
-8.16494e+10
5.9446e+07
2.23632e+09
-8.53783e+10
1.90058e+09
2.46098e+09
-9.19365e+10
5.69206e+09
1.74859e+09
-1.18039e+11
1.31425e+10
4.04394e+09
1.00824e+10
8.1993e+09
-7.22563e+10
-2.36599e+08
-7.23198e+10
-2.99703e+08
-7.23953e+10
-2.80899e+08
-7.24753e+10
-2.49381e+08
-7.25467e+10
-2.87918e+08
-7.26095e+10
-2.49884e+08
-7.26848e+10
-2.32771e+08
-7.2749e+10
-2.24182e+08
-7.28141e+10
-2.20776e+08
-7.28783e+10
-2.16817e+08
-7.29396e+10
-2.20909e+08
-7.29952e+10
-2.32222e+08
-7.30475e+10
-2.51266e+08
-7.30953e+10
-2.75522e+08
-7.31366e+10
-3.07028e+08
-7.31714e+10
-3.42476e+08
-7.31955e+10
-3.84227e+08
-7.3211e+10
-4.29997e+08
-7.3216e+10
-4.77754e+08
-7.32108e+10
-5.27007e+08
-7.31973e+10
-5.76e+08
-7.31763e+10
-6.20134e+08
-7.31553e+10
-6.57593e+08
-7.31348e+10
-6.85116e+08
-7.31269e+10
-6.96537e+08
-7.31299e+10
-6.97047e+08
-7.31537e+10
-6.82678e+08
-7.31972e+10
-6.57858e+08
-7.32679e+10
-6.21328e+08
-7.33657e+10
-5.78735e+08
-7.3495e+10
-5.2677e+08
-7.36605e+10
-4.70194e+08
-7.38641e+10
-4.081e+08
-7.41134e+10
-3.39056e+08
-7.44135e+10
-2.65493e+08
-7.47728e+10
-1.84779e+08
-7.52033e+10
-9.93617e+07
-7.57162e+10
-6.53425e+06
-7.63282e+10
9.42169e+07
-7.70578e+10
2.07429e+08
-7.79241e+10
3.3314e+08
-7.89539e+10
4.78149e+08
-8.01685e+10
6.40382e+08
-8.15887e+10
8.23882e+08
-8.32372e+10
1.03134e+09
-8.51384e+10
1.2622e+09
-8.73273e+10
1.51077e+09
-8.97653e+10
1.73314e+09
-9.21662e+10
1.87202e+09
-9.3122e+10
1.68348e+09
-8.88044e+10
4.91509e+08
-7.69194e+10
-2.13473e+09
-7.81374e+10
3.53435e+09
8.79152e+09
-5.39855e+10
6.8164e+07
-4.38943e+08
-5.37797e+10
1.13731e+08
-2.85949e+08
-5.35526e+10
8.88988e+07
-2.02169e+08
-5.35483e+10
1.20482e+08
-9.60786e+07
-5.34767e+10
8.17827e+07
-1.31957e+08
-5.34059e+10
9.4358e+07
-7.84882e+07
-5.33765e+10
9.93099e+07
-2.64305e+07
-5.33529e+10
1.01338e+08
-6.04517e+06
-5.33246e+10
9.90756e+07
1.81522e+06
-5.3289e+10
1.00677e+08
-592713
-5.32454e+10
1.01754e+08
-1.27192e+07
-5.3195e+10
1.03692e+08
-3.38648e+07
-5.31357e+10
1.05231e+08
-6.70528e+07
-5.30639e+10
1.06786e+08
-1.11604e+08
-5.29796e+10
1.09095e+08
-1.66252e+08
-5.28718e+10
1.11636e+08
-2.31979e+08
-5.27385e+10
1.13909e+08
-3.09087e+08
-5.25746e+10
1.16782e+08
-3.92093e+08
-5.23752e+10
1.19343e+08
-4.85216e+08
-5.21358e+10
1.23068e+08
-5.80476e+08
-5.18571e+10
1.27027e+08
-6.75656e+08
-5.15359e+10
1.31867e+08
-7.67683e+08
-5.11803e+10
1.36808e+08
-8.46546e+08
-5.07998e+10
1.41784e+08
-9.07589e+08
-5.04021e+10
1.46808e+08
-9.45619e+08
-4.99993e+10
1.51917e+08
-9.59916e+08
-4.95982e+10
1.57199e+08
-9.51139e+08
-4.92049e+10
1.62541e+08
-9.24401e+08
-4.88228e+10
1.67745e+08
-8.81902e+08
-4.8457e+10
1.72569e+08
-8.27521e+08
-4.81043e+10
1.77003e+08
-7.66785e+08
-4.77667e+10
1.81125e+08
-6.98901e+08
-4.7438e+10
1.84805e+08
-6.30032e+08
-4.71121e+10
1.87543e+08
-5.59175e+08
-4.67853e+10
1.88723e+08
-4.85845e+08
-4.64459e+10
1.88385e+08
-4.14723e+08
-4.6088e+10
1.88083e+08
-3.43314e+08
-4.57059e+10
1.88128e+08
-2.69572e+08
-4.52943e+10
1.89243e+08
-1.93042e+08
-4.48463e+10
1.936e+08
-1.15099e+08
-4.43608e+10
2.02697e+08
-2.97732e+07
-4.38249e+10
2.16602e+08
6.08257e+07
-4.32322e+10
2.38179e+08
1.61453e+08
-4.25723e+10
2.70101e+08
2.68814e+08
-4.18331e+10
3.16029e+08
3.81561e+08
-4.10175e+10
3.83676e+08
4.92781e+08
-4.01658e+10
4.84505e+08
5.97839e+08
-3.93651e+10
6.17596e+08
6.82898e+08
-3.8711e+10
7.91915e+08
6.73251e+08
-3.86084e+10
1.12089e+09
6.36601e+08
-3.95204e+10
2.2572e+09
3.56763e+08
-4.14928e+10
4.45184e+09
-1.55413e+09
-3.72271e+10
1.06781e+10
-1.15286e+10
5.08424e+09
-5.29799e+09
-6.04306e+10
-4.31545e+08
-6.03036e+10
-3.13216e+08
-6.02394e+10
-2.57308e+08
-6.0199e+10
-1.70736e+08
-6.02391e+10
-1.6792e+08
-6.02683e+10
-1.27904e+08
-6.03216e+10
-8.12566e+07
-6.03773e+10
-6.75642e+07
-6.04396e+10
-5.91135e+07
-6.04945e+10
-6.02958e+07
-6.05439e+10
-6.83118e+07
-6.05847e+10
-8.60687e+07
-6.06141e+10
-1.15847e+08
-6.06272e+10
-1.56531e+08
-6.06227e+10
-2.04311e+08
-6.05945e+10
-2.62241e+08
-6.05394e+10
-3.2848e+08
-6.04561e+10
-3.99916e+08
-6.03377e+10
-4.78776e+08
-6.01825e+10
-5.59144e+08
-5.999e+10
-6.37317e+08
-5.97579e+10
-7.12365e+08
-5.94935e+10
-7.73948e+08
-5.92048e+10
-8.18962e+08
-5.88981e+10
-8.42922e+08
-5.85844e+10
-8.45509e+08
-5.82695e+10
-8.27248e+08
-5.79584e+10
-7.93291e+08
-5.76537e+10
-7.45277e+08
-5.73606e+10
-6.86656e+08
-5.70755e+10
-6.22955e+08
-5.6801e+10
-5.52271e+08
-5.65322e+10
-4.81601e+08
-5.62642e+10
-4.09537e+08
-5.59969e+10
-3.34315e+08
-5.57227e+10
-2.6068e+08
-5.54372e+10
-1.86199e+08
-5.51346e+10
-1.08981e+08
-5.48079e+10
-2.9484e+07
-5.4442e+10
5.11359e+07
-5.40264e+10
1.3861e+08
-5.35406e+10
2.30529e+08
-5.29689e+10
3.33184e+08
-5.22866e+10
4.44936e+08
-5.14666e+10
5.66799e+08
-5.048e+10
6.95491e+08
-4.93035e+10
8.26496e+08
-4.79712e+10
9.58739e+08
-4.65946e+10
1.11185e+09
-4.56337e+10
1.52771e+09
-4.49489e+10
1.63333e+09
-4.34913e+10
3.01237e+08
-2.12601e+10
-8.44082e+09
-5.65655e+09
-5.79309e+10
-1.46288e+08
-4.48704e+08
-5.79277e+10
-1.18763e+08
-1.66343e+08
-5.78563e+10
-1.14806e+08
-1.58511e+08
-5.78259e+10
-1.26093e+08
-3.24109e+06
-5.78552e+10
-1.35914e+08
2.81948e+07
-5.78761e+10
-1.2809e+08
6.47202e+07
-5.78982e+10
-1.15385e+08
1.05723e+08
-5.7935e+10
-1.12027e+08
1.3818e+08
-5.79837e+10
-1.13026e+08
1.59644e+08
-5.80397e+10
-1.13383e+08
1.65241e+08
-5.8095e+10
-1.15023e+08
1.54806e+08
-5.81462e+10
-1.16453e+08
1.3101e+08
-5.81901e+10
-1.1833e+08
9.18237e+07
-5.8227e+10
-1.20939e+08
3.8277e+07
-5.82495e+10
-1.23295e+08
-3.0811e+07
-5.82615e+10
-1.26272e+08
-1.1023e+08
-5.82593e+10
-1.28513e+08
-1.9945e+08
-5.82405e+10
-1.31502e+08
-2.99464e+08
-5.82044e+10
-1.33837e+08
-4.06361e+08
-5.81483e+10
-1.35979e+08
-5.18648e+08
-5.807e+10
-1.36978e+08
-6.29601e+08
-5.79716e+10
-1.37014e+08
-7.353e+08
-5.78574e+10
-1.36132e+08
-8.24789e+08
-5.77376e+10
-1.34432e+08
-8.90714e+08
-5.76204e+10
-1.31998e+08
-9.29441e+08
-5.75155e+10
-1.28815e+08
-9.37841e+08
-5.74268e+10
-1.24914e+08
-9.2016e+08
-5.73571e+10
-1.20666e+08
-8.82004e+08
-5.73078e+10
-1.16664e+08
-8.26712e+08
-5.72761e+10
-1.1343e+08
-7.61909e+08
-5.72635e+10
-1.1111e+08
-6.89221e+08
-5.72662e+10
-1.09432e+08
-6.12935e+08
-5.7285e+10
-1.08717e+08
-5.34397e+08
-5.73176e+10
-1.09206e+08
-4.55168e+08
-5.73614e+10
-1.10869e+08
-3.74954e+08
-5.74193e+10
-1.14513e+08
-2.91649e+08
-5.74898e+10
-1.19171e+08
-2.08452e+08
-5.75724e+10
-1.24321e+08
-1.22076e+08
-5.76693e+10
-1.30736e+08
-3.01444e+07
-5.77846e+10
-1.38798e+08
6.95935e+07
-5.79238e+10
-1.47644e+08
1.81659e+08
-5.8093e+10
-1.55909e+08
3.04941e+08
-5.82957e+10
-1.62659e+08
4.39946e+08
-5.85411e+10
-1.66202e+08
5.9014e+08
-5.88413e+10
-1.6501e+08
7.51247e+08
-5.92309e+10
-1.57084e+08
9.26219e+08
-5.97857e+10
-1.41322e+08
1.12077e+09
-6.0628e+10
-1.15239e+08
1.32039e+09
-6.19539e+10
-4.96221e+07
1.47115e+09
-6.40849e+10
2.96086e+08
1.43645e+09
-6.7896e+10
1.70593e+09
1.04828e+09
-7.47256e+10
4.88374e+09
-1.18993e+09
-9.00977e+10
1.31452e+10
-1.06053e+10
6.89324e+09
1.26868e+10
-6.48145e+10
-6.83014e+08
-6.48346e+10
-4.10278e+08
-6.48686e+10
-3.38211e+08
-6.4904e+10
-2.63122e+08
-6.49868e+10
-2.23709e+08
-6.50671e+10
-1.78591e+08
-6.51311e+10
-1.35314e+08
-6.5206e+10
-1.0694e+08
-6.52927e+10
-8.74571e+07
-6.53841e+10
-8.3917e+07
-6.54772e+10
-9.1501e+07
-6.55687e+10
-1.12184e+08
-6.56581e+10
-1.46767e+08
-6.57456e+10
-1.93734e+08
-6.58246e+10
-2.55393e+08
-6.58962e+10
-3.25493e+08
-6.59588e+10
-4.04746e+08
-6.60078e+10
-4.93309e+08
-6.60444e+10
-5.8694e+08
-6.60638e+10
-6.84771e+08
-6.60642e+10
-7.79653e+08
-6.60465e+10
-8.68655e+08
-6.60132e+10
-9.41247e+08
-6.59718e+10
-9.91046e+08
-6.59277e+10
-1.01579e+09
-6.58885e+10
-1.01209e+09
-6.58565e+10
-9.847e+08
-6.58335e+10
-9.394e+08
-6.58208e+10
-8.79247e+08
-6.58156e+10
-8.12067e+08
-6.58201e+10
-7.39058e+08
-6.58295e+10
-6.64695e+08
-6.58455e+10
-5.8991e+08
-6.58665e+10
-5.16629e+08
-6.58887e+10
-4.44976e+08
-6.59169e+10
-3.72065e+08
-6.59486e+10
-3.01421e+08
-6.59828e+10
-2.29395e+08
-6.60229e+10
-1.52764e+08
-6.60764e+10
-6.94839e+07
-6.61485e+10
2.50783e+07
-6.62431e+10
1.28461e+08
-6.63562e+10
2.40974e+08
-6.64873e+10
3.66056e+08
-6.66296e+10
4.97604e+08
-6.67853e+10
6.33783e+08
-6.6974e+10
7.71123e+08
-6.72134e+10
8.82989e+08
-6.74531e+10
9.3538e+08
-6.70628e+10
8.44957e+08
-6.4437e+10
-1.63699e+08
-5.58304e+10
-4.40108e+09
-3.99688e+10
-1.16238e+10
-2.51283e+09
-5.51509e+10
-1.58064e+07
-5.46103e+08
-5.50149e+10
-5.12951e+07
-2.4485e+08
-5.49561e+10
-6.43464e+07
-1.48852e+08
-5.4855e+10
-6.96984e+07
-3.34885e+07
-5.48172e+10
-6.84582e+07
5.80092e+07
-5.48099e+10
-6.26759e+07
1.18159e+08
-5.48137e+10
-5.87312e+07
1.66313e+08
-5.48221e+10
-5.94967e+07
2.0457e+08
-5.48317e+10
-6.13098e+07
2.29543e+08
-5.48395e+10
-6.39741e+07
2.36887e+08
-5.48443e+10
-6.84276e+07
2.29143e+08
-5.48424e+10
-7.37847e+07
2.05675e+08
-5.48336e+10
-7.94556e+07
1.65425e+08
-5.48117e+10
-8.6144e+07
1.03438e+08
-5.47756e+10
-9.38362e+07
2.36115e+07
-5.47183e+10
-1.03733e+08
-7.27484e+07
-5.4628e+10
-1.15041e+08
-1.84901e+08
-5.45011e+10
-1.28309e+08
-3.11015e+08
-5.43309e+10
-1.4219e+08
-4.44999e+08
-5.41151e+10
-1.57554e+08
-5.86779e+08
-5.3847e+10
-1.7282e+08
-7.28043e+08
-5.35252e+10
-1.8815e+08
-8.63294e+08
-5.31561e+10
-2.02871e+08
-9.76881e+08
-5.27539e+10
-2.1647e+08
-1.05681e+09
-5.23403e+10
-2.287e+08
-1.09531e+09
-5.19321e+10
-2.3852e+08
-1.09112e+09
-5.15446e+10
-2.4551e+08
-1.04902e+09
-5.11873e+10
-2.49618e+08
-9.79268e+08
-5.08653e+10
-2.51364e+08
-8.89405e+08
-5.05795e+10
-2.5141e+08
-7.90631e+08
-5.03281e+10
-2.50259e+08
-6.87616e+08
-5.01064e+10
-2.48057e+08
-5.86749e+08
-4.9907e+10
-2.45409e+08
-4.9187e+08
-4.97161e+10
-2.43704e+08
-4.09029e+08
-4.95158e+10
-2.43869e+08
-3.4109e+08
-4.92896e+10
-2.45522e+08
-2.8411e+08
-4.90292e+10
-2.48041e+08
-2.34108e+08
-4.87234e+10
-2.50448e+08
-1.91313e+08
-4.83652e+10
-2.52161e+08
-1.5024e+08
-4.79444e+10
-2.54169e+08
-1.1061e+08
-4.74486e+10
-2.57763e+08
-6.97978e+07
-4.68693e+10
-2.62606e+08
-2.40838e+07
-4.61968e+10
-2.67783e+08
2.48986e+07
-4.54212e+10
-2.72098e+08
8.11003e+07
-4.45373e+10
-2.73778e+08
1.38812e+08
-4.35556e+10
-2.71402e+08
2.04497e+08
-4.25298e+10
-2.66309e+08
3.0118e+08
-4.15781e+10
-2.62207e+08
4.47009e+08
-4.1105e+10
-1.78343e+08
7.39813e+08
-4.18435e+10
7.3811e+07
1.40886e+09
-4.44543e+10
3.68637e+08
2.4045e+09
-5.32569e+10
2.07074e+09
4.49202e+09
-9.33778e+10
1.35027e+10
1.54418e+10
-5.84581e+09
-1.21988e+09
-5.84819e+10
-7.57753e+08
-5.84586e+10
-4.7945e+08
-5.84653e+10
-3.92272e+08
-5.84795e+10
-3.1665e+08
-5.85301e+10
-2.40943e+08
-5.85931e+10
-1.78152e+08
-5.865e+10
-1.37191e+08
-5.87099e+10
-1.0618e+08
-5.8773e+10
-8.48974e+07
-5.88387e+10
-8.06926e+07
-5.8904e+10
-9.19968e+07
-5.89646e+10
-1.21579e+08
-5.90189e+10
-1.68037e+08
-5.906e+10
-2.36248e+08
-5.90866e+10
-3.23002e+08
-5.90935e+10
-4.24689e+08
-5.90747e+10
-5.42992e+08
-5.90262e+10
-6.74334e+08
-5.89444e+10
-8.15135e+08
-5.8825e+10
-9.63238e+08
-5.86638e+10
-1.11147e+09
-5.84588e+10
-1.25352e+09
-5.8215e+10
-1.3738e+09
-5.79443e+10
-1.46127e+09
-5.76633e+10
-1.50805e+09
-5.7384e+10
-1.5134e+09
-5.71167e+10
-1.48214e+09
-5.68666e+10
-1.42451e+09
-5.66356e+10
-1.34767e+09
-5.64228e+10
-1.26288e+09
-5.62249e+10
-1.17444e+09
-5.60375e+10
-1.08826e+09
-5.58549e+10
-1.0068e+09
-5.56736e+10
-9.31212e+08
-5.54887e+10
-8.63444e+08
-5.52945e+10
-8.01336e+08
-5.50901e+10
-7.42455e+08
-5.48682e+10
-6.88776e+08
-5.46222e+10
-6.35681e+08
-5.43438e+10
-5.8433e+08
-5.40254e+10
-5.30254e+08
-5.36646e+10
-4.70369e+08
-5.32536e+10
-4.07648e+08
-5.27824e+10
-3.40241e+08
-5.22393e+10
-2.76967e+08
-5.16188e+10
-2.21774e+08
-5.09302e+10
-1.81657e+08
-5.02233e+10
-1.65323e+08
-4.95287e+10
-1.53543e+08
-4.89377e+10
-7.39192e+07
-5.01325e+10
8.7399e+08
-5.67363e+10
3.94392e+09
-7.00587e+10
1.51745e+10
6.97273e+09
-5.89679e+10
2.5358e+08
-7.67716e+08
-5.89656e+10
2.51785e+08
-4.8753e+08
-5.89871e+10
2.52424e+08
-3.7067e+08
-5.90075e+10
2.6029e+08
-2.66414e+08
-5.90364e+10
2.65122e+08
-1.73015e+08
-5.90829e+10
2.71895e+08
-1.03096e+08
-5.91432e+10
2.78388e+08
-4.77336e+07
-5.92152e+10
2.84768e+08
-3.56854e+06
-5.92966e+10
2.91186e+08
2.54827e+07
-5.93858e+10
2.96343e+08
3.71058e+07
-5.94771e+10
3.01277e+08
2.8953e+07
-5.95651e+10
3.05681e+08
951441
-5.96466e+10
3.10315e+08
-4.8135e+07
-5.97189e+10
3.14115e+08
-1.22599e+08
-5.97819e+10
3.16438e+08
-2.18535e+08
-5.98294e+10
3.1831e+08
-3.34093e+08
-5.98619e+10
3.19152e+08
-4.6652e+08
-5.98721e+10
3.20045e+08
-6.14198e+08
-5.98591e+10
3.19873e+08
-7.71697e+08
-5.98197e+10
3.19704e+08
-9.36609e+08
-5.97484e+10
3.19551e+08
-1.1035e+09
-5.9642e+10
3.20071e+08
-1.26428e+09
-5.95053e+10
3.21777e+08
-1.39823e+09
-5.93549e+10
3.24461e+08
-1.48683e+09
-5.92126e+10
3.28614e+08
-1.5179e+09
-5.90957e+10
3.34651e+08
-1.49341e+09
-5.9017e+10
3.42875e+08
-1.42114e+09
-5.8983e+10
3.53227e+08
-1.31596e+09
-5.89921e+10
3.65417e+08
-1.19304e+09
-5.90435e+10
3.79189e+08
-1.06325e+09
-5.91296e+10
3.94496e+08
-9.37792e+08
-5.92431e+10
4.11261e+08
-8.23422e+08
-5.93777e+10
4.29639e+08
-7.22173e+08
-5.95322e+10
4.50894e+08
-6.36887e+08
-5.97127e+10
4.77107e+08
-5.64258e+08
-5.99176e+10
5.06846e+08
-5.06797e+08
-6.01384e+10
5.38913e+08
-4.65221e+08
-6.03633e+10
5.72726e+08
-4.43356e+08
-6.05747e+10
6.08447e+08
-4.40861e+08
-6.07603e+10
6.45845e+08
-4.52818e+08
-6.09027e+10
6.84929e+08
-4.80995e+08
-6.09802e+10
7.24915e+08
-5.25775e+08
-6.09666e+10
7.65663e+08
-5.91195e+08
-6.08292e+10
8.06938e+08
-6.81348e+08
-6.05364e+10
8.48372e+08
-8.01616e+08
-6.00369e+10
8.84911e+08
-9.69764e+08
-5.92333e+10
9.04385e+08
-1.20783e+09
-5.7996e+10
8.98621e+08
-1.53573e+09
-5.608e+10
8.23654e+08
-1.91367e+09
-5.32141e+10
5.53106e+08
-1.99965e+09
-4.99395e+10
5.44922e+08
-1.38595e+09
-4.83471e+10
2.13947e+09
1.0694e+09
-5.81267e+10
1.14055e+10
1.41124e+10
5.85123e+09
9.07696e+09
-5.85535e+10
-4.52228e+08
-5.86207e+10
-1.53149e+08
-5.86931e+10
-6.13058e+07
-5.87755e+10
3.08595e+07
-5.88752e+10
1.27696e+08
-5.89856e+10
2.07618e+08
-5.91076e+10
2.66733e+08
-5.9238e+10
3.13082e+08
-5.93711e+10
3.44127e+08
-5.95082e+10
3.58643e+08
-5.96443e+10
3.53028e+08
-5.97775e+10
3.26937e+08
-5.99025e+10
2.78283e+08
-6.00175e+10
2.03287e+08
-6.01211e+10
1.05725e+08
-6.02073e+10
-1.42471e+07
-6.02723e+10
-1.53833e+08
-6.03102e+10
-3.11914e+08
-6.03161e+10
-4.83709e+08
-6.02857e+10
-6.66521e+08
-6.02102e+10
-8.55383e+08
-6.00829e+10
-1.04134e+09
-5.99055e+10
-1.20301e+09
-5.96902e+10
-1.3205e+09
-5.94567e+10
-1.3789e+09
-5.92218e+10
-1.37866e+09
-5.89996e+10
-1.3258e+09
-5.87999e+10
-1.23444e+09
-5.8625e+10
-1.11931e+09
-5.84778e+10
-9.91268e+08
-5.83549e+10
-8.61395e+08
-5.82524e+10
-7.35811e+08
-5.81669e+10
-6.16581e+08
-5.80911e+10
-5.07052e+08
-5.80197e+10
-4.05072e+08
-5.79436e+10
-3.13257e+08
-5.78552e+10
-2.29131e+08
-5.77484e+10
-1.53179e+08
-5.76146e+10
-8.39011e+07
-5.74503e+10
-1.6763e+07
-5.72473e+10
4.73535e+07
-5.6996e+10
1.10189e+08
-5.66868e+10
1.68765e+08
-5.63053e+10
2.19706e+08
-5.58454e+10
2.58548e+08
-5.52995e+10
2.68625e+08
-5.4667e+10
2.28856e+08
-5.39531e+10
1.20657e+08
-5.316e+10
-7.74895e+07
-5.23414e+10
-3.21877e+08
-5.06344e+10
-2.1308e+08
-4.51252e+10
7.49773e+08
-2.93654e+10
1.10107e+10
7.90877e+09
-5.63052e+10
1.09958e+08
-8.10005e+08
-5.63527e+10
1.35752e+08
-5.65466e+08
-5.63985e+10
1.51666e+08
-4.66996e+08
-5.6466e+10
1.69359e+08
-3.59522e+08
-5.65391e+10
1.76659e+08
-2.68302e+08
-5.66235e+10
1.80515e+08
-1.91012e+08
-5.67178e+10
1.83804e+08
-1.28715e+08
-5.68212e+10
1.90313e+08
-8.12405e+07
-5.6933e+10
1.97463e+08
-5.00814e+07
-5.70503e+10
2.03646e+08
-3.74467e+07
-5.71734e+10
2.0767e+08
-4.11669e+07
-5.72921e+10
2.10947e+08
-7.30724e+07
-5.74e+10
2.14173e+08
-1.32748e+08
-5.74953e+10
2.16417e+08
-2.21121e+08
-5.75734e+10
2.16994e+08
-3.37085e+08
-5.7628e+10
2.15904e+08
-4.78604e+08
-5.76508e+10
2.13639e+08
-6.44253e+08
-5.76351e+10
2.10931e+08
-8.26781e+08
-5.75762e+10
2.06497e+08
-1.02474e+09
-5.74665e+10
2.01705e+08
-1.23219e+09
-5.72951e+10
1.95963e+08
-1.45076e+09
-5.70519e+10
1.90692e+08
-1.66766e+09
-5.67347e+10
1.86489e+08
-1.85708e+09
-5.63676e+10
1.83662e+08
-1.98297e+09
-5.59798e+10
1.83886e+08
-2.0274e+09
-5.56034e+10
1.87482e+08
-1.99228e+09
-5.52573e+10
1.95105e+08
-1.8951e+09
-5.49521e+10
2.06474e+08
-1.75822e+09
-5.46926e+10
2.21193e+08
-1.6011e+09
-5.44756e+10
2.38682e+08
-1.44235e+09
-5.43e+10
2.58342e+08
-1.29043e+09
-5.41613e+10
2.79645e+08
-1.15522e+09
-5.40559e+10
3.0193e+08
-1.03681e+09
-5.39777e+10
3.23051e+08
-9.3831e+08
-5.39153e+10
3.42883e+08
-8.61209e+08
-5.3861e+10
3.631e+08
-8.05711e+08
-5.38047e+10
3.84481e+08
-7.75625e+08
-5.37379e+10
4.06613e+08
-7.72653e+08
-5.36561e+10
4.31131e+08
-7.93653e+08
-5.35461e+10
4.58833e+08
-8.43727e+08
-5.33987e+10
4.90003e+08
-9.2046e+08
-5.31984e+10
5.25248e+08
-1.03101e+09
-5.29272e+10
5.65309e+08
-1.18175e+09
-5.25656e+10
6.10541e+08
-1.38034e+09
-5.20971e+10
6.6094e+08
-1.63337e+09
-5.15193e+10
7.16427e+08
-1.95322e+09
-5.0859e+10
7.80434e+08
-2.3483e+09
-5.01977e+10
8.75316e+08
-2.8113e+09
-4.95621e+10
1.01858e+09
-3.35734e+09
-4.82489e+10
1.03308e+09
-4.09883e+09
-4.49085e+10
7.82449e+08
-5.0719e+09
-3.93608e+10
1.43089e+09
-5.25603e+09
-3.38184e+10
1.03611e+10
-1.17776e+09
6.6721e+09
9.06371e+09
-5.60374e+10
-2.08513e+08
-5.61328e+10
8.65575e+07
-5.62112e+10
1.76765e+08
-5.62914e+10
2.8795e+08
-5.63786e+10
3.98925e+08
-5.64772e+10
4.94042e+08
-5.65896e+10
5.70635e+08
-5.67114e+10
6.33388e+08
-5.68406e+10
6.79589e+08
-5.69736e+10
7.05259e+08
-5.71133e+10
7.12322e+08
-5.72524e+10
6.91391e+08
-5.7385e+10
6.41542e+08
-5.75101e+10
5.61595e+08
-5.76249e+10
4.52639e+08
-5.77271e+10
3.16464e+08
-5.78115e+10
1.55619e+08
-5.78787e+10
-2.34566e+07
-5.79284e+10
-2.16677e+08
-5.79611e+10
-4.20976e+08
-5.79678e+10
-6.37236e+08
-5.79421e+10
-8.53619e+08
-5.78823e+10
-1.04516e+09
-5.78046e+10
-1.17542e+09
-5.77275e+10
-1.22782e+09
-5.76675e+10
-1.20347e+09
-5.76289e+10
-1.11929e+09
-5.76083e+10
-9.96111e+08
-5.75995e+10
-8.51837e+08
-5.75904e+10
-7.03468e+08
-5.75735e+10
-5.58207e+08
-5.75398e+10
-4.24021e+08
-5.74881e+10
-2.9596e+08
-5.74213e+10
-1.74961e+08
-5.73348e+10
-6.62559e+07
-5.72206e+10
2.58748e+07
-5.70688e+10
1.02946e+08
-5.68721e+10
1.66974e+08
-5.66235e+10
2.20864e+08
-5.63075e+10
2.61993e+08
-5.59145e+10
2.95502e+08
-5.54283e+10
3.177e+08
-5.48322e+10
3.25916e+08
-5.41106e+10
3.16751e+08
-5.32531e+10
2.87181e+08
-5.22608e+10
2.25761e+08
-5.11487e+10
1.23309e+08
-4.9922e+10
-2.35076e+07
-4.85696e+10
-2.11071e+08
-4.72722e+10
-3.35956e+08
-4.57259e+10
-5.80021e+08
-4.13812e+10
-1.60833e+09
-1.8437e+10
-1.1678e+09
2.11422e+08
-5.72667e+10
-1.47758e+08
-5.52821e+08
-5.7362e+10
-1.16364e+08
-3.412e+08
-5.74646e+10
-1.10885e+08
-2.4115e+08
-5.75857e+10
-1.01235e+08
-1.24518e+08
-5.7718e+10
-9.92116e+07
-2.36096e+07
-5.78644e+10
-9.96493e+07
6.87056e+07
-5.80291e+10
-9.87178e+07
1.49082e+08
-5.82091e+10
-9.46024e+07
2.08346e+08
-5.84031e+10
-9.05985e+07
2.5026e+08
-5.86091e+10
-8.76681e+07
2.73222e+08
-5.88163e+10
-8.60349e+07
2.71441e+08
-5.9021e+10
-8.41887e+07
2.3881e+08
-5.92167e+10
-8.20059e+07
1.71757e+08
-5.9397e+10
-8.01821e+07
6.78552e+07
-5.9557e+10
-7.86418e+07
-7.10203e+07
-5.96902e+10
-7.72434e+07
-2.45917e+08
-5.97884e+10
-7.41209e+07
-4.51444e+08
-5.98449e+10
-6.89312e+07
-6.85269e+08
-5.9854e+10
-6.01757e+07
-9.4009e+08
-5.98138e+10
-4.9286e+07
-1.21057e+09
-5.97134e+10
-3.52773e+07
-1.50165e+09
-5.95318e+10
-1.73671e+07
-1.80728e+09
-5.92655e+10
3.12092e+06
-2.08865e+09
-5.89426e+10
2.4424e+07
-2.27628e+09
-5.86196e+10
4.36698e+07
-2.32795e+09
-5.8342e+10
5.95011e+07
-2.25496e+09
-5.81355e+10
7.07488e+07
-2.09224e+09
-5.80067e+10
7.67864e+07
-1.87914e+09
-5.79466e+10
7.78805e+07
-1.64969e+09
-5.79395e+10
7.47426e+07
-1.42932e+09
-5.79662e+10
6.81756e+07
-1.23067e+09
-5.80108e+10
5.95054e+07
-1.06161e+09
-5.80587e+10
5.28252e+07
-9.24725e+08
-5.80985e+10
4.89885e+07
-8.20388e+08
-5.81205e+10
4.37578e+07
-7.44231e+08
-5.81176e+10
3.45837e+07
-6.90717e+08
-5.80861e+10
2.12501e+07
-6.6054e+08
-5.80258e+10
5.03489e+06
-6.52236e+08
-5.79291e+10
-1.47882e+07
-6.70068e+08
-5.77913e+10
-3.82253e+07
-7.15301e+08
-5.76e+10
-6.59441e+07
-7.93461e+08
-5.73439e+10
-9.85899e+07
-9.08745e+08
-5.70115e+10
-1.37265e+08
-1.06763e+09
-5.65868e+10
-1.82573e+08
-1.28365e+09
-5.6058e+10
-2.34788e+08
-1.56488e+09
-5.54115e+10
-2.94008e+08
-1.93086e+09
-5.46178e+10
-3.66119e+08
-2.40267e+09
-5.3612e+10
-4.5616e+08
-2.99082e+09
-5.2415e+10
-5.11274e+08
-3.64922e+09
-5.1085e+10
-4.44699e+08
-4.46736e+09
-4.84103e+10
-8.62028e+08
-6.15001e+09
-4.05485e+10
-3.18455e+09
-9.00223e+09
-1.88721e+10
-5.75254e+09
-1.62829e+10
-8.67426e+08
4.31507e+08
-5.23981e+10
-3.1082e+08
-5.23545e+10
-6.42196e+07
-5.23437e+10
6.41724e+07
-5.23469e+10
1.99289e+08
-5.23582e+10
3.20817e+08
-5.238e+10
4.26367e+08
-5.24183e+10
5.20736e+08
-5.24647e+10
5.96096e+08
-5.25188e+10
6.54326e+08
-5.25794e+10
6.90339e+08
-5.26394e+10
7.00225e+08
-5.26947e+10
6.78927e+08
-5.27394e+10
6.22778e+08
-5.27681e+10
5.29351e+08
-5.27764e+10
3.9988e+08
-5.27559e+10
2.33811e+08
-5.26975e+10
3.53167e+07
-5.25866e+10
-1.92828e+08
-5.24122e+10
-4.43403e+08
-5.21656e+10
-7.10144e+08
-5.18319e+10
-9.969e+08
-5.13875e+10
-1.29934e+09
-5.0826e+10
-1.57636e+09
-5.01832e+10
-1.75474e+09
-4.95276e+10
-1.79122e+09
-4.89186e+10
-1.69746e+09
-4.83953e+10
-1.51184e+09
-4.79754e+10
-1.27583e+09
-4.76573e+10
-1.02523e+09
-4.74291e+10
-7.86182e+08
-4.72721e+10
-5.71707e+08
-4.71652e+10
-3.90557e+08
-4.70766e+10
-2.44847e+08
-4.69709e+10
-1.37341e+08
-4.68289e+10
-6.14777e+07
-4.66454e+10
-9.58444e+06
-4.64159e+10
2.03797e+07
-4.6136e+10
3.19618e+07
-4.57962e+10
2.23512e+07
-4.53907e+10
-7.76036e+06
-4.49049e+10
-6.16165e+07
-4.43254e+10
-1.42896e+08
-4.36379e+10
-2.56331e+08
-4.28237e+10
-4.13545e+08
-4.1866e+10
-6.21022e+08
-4.07448e+10
-8.97956e+08
-3.944e+10
-1.25892e+09
-3.79154e+10
-1.71144e+09
-3.60563e+10
-2.23764e+09
-3.34768e+10
-2.87088e+09
-3.04356e+10
-3.76856e+09
-3.12129e+10
-3.21059e+09
-2.72192e+10
-1.04265e+10
-9.10487e+09
-5.95973e+10
-2.18966e+08
-2.60039e+08
-5.96499e+10
-2.18312e+08
-6.1032e+07
-5.97093e+10
-2.23171e+08
5.12938e+07
-5.97733e+10
-2.29216e+08
1.7952e+08
-5.98475e+10
-2.34874e+08
2.96988e+08
-5.99311e+10
-2.42255e+08
4.06479e+08
-6.00284e+10
-2.49339e+08
5.07829e+08
-6.01435e+10
-2.55459e+08
5.90688e+08
-6.0274e+10
-2.61858e+08
6.54297e+08
-6.04168e+10
-2.68829e+08
6.96319e+08
-6.05653e+10
-2.75174e+08
7.07509e+08
-6.07099e+10
-2.80114e+08
6.78177e+08
-6.08438e+10
-2.8353e+08
6.06787e+08
-6.09625e+10
-2.85713e+08
4.91062e+08
-6.10587e+10
-2.87095e+08
3.28832e+08
-6.11272e+10
-2.88089e+08
1.22857e+08
-6.11589e+10
-2.89257e+08
-1.23492e+08
-6.11483e+10
-2.91082e+08
-4.04276e+08
-6.10903e+10
-2.92779e+08
-7.09519e+08
-6.09806e+10
-2.95049e+08
-1.03765e+09
-6.08052e+10
-2.96018e+08
-1.39343e+09
-6.05286e+10
-2.95839e+08
-1.79453e+09
-6.01126e+10
-2.94522e+08
-2.20309e+09
-5.95801e+10
-2.93386e+08
-2.48804e+09
-5.90212e+10
-2.94473e+08
-2.55108e+09
-5.85097e+10
-2.94432e+08
-2.42008e+09
-5.80863e+10
-2.91516e+08
-2.16793e+09
-5.77682e+10
-2.84853e+08
-1.85461e+09
-5.75498e+10
-2.7488e+08
-1.53456e+09
-5.74178e+10
-2.6285e+08
-1.23843e+09
-5.73542e+10
-2.50167e+08
-9.82167e+08
-5.73432e+10
-2.38454e+08
-7.68972e+08
-5.73682e+10
-2.29573e+08
-6.00887e+08
-5.74148e+10
-2.23218e+08
-4.75869e+08
-5.74762e+10
-2.17631e+08
-3.83931e+08
-5.75401e+10
-2.12262e+08
-3.25052e+08
-5.76013e+10
-2.06868e+08
-2.93273e+08
-5.76496e+10
-2.02811e+08
-2.90295e+08
-5.76821e+10
-2.01479e+08
-3.1215e+08
-5.76912e+10
-2.03982e+08
-3.63612e+08
-5.76696e+10
-2.11662e+08
-4.48563e+08
-5.76083e+10
-2.26615e+08
-5.71387e+08
-5.74966e+10
-2.52041e+08
-7.38713e+08
-5.73227e+10
-2.92454e+08
-9.66514e+08
-5.70723e+10
-3.52037e+08
-1.26773e+09
-5.67182e+10
-4.38814e+08
-1.67445e+09
-5.62001e+10
-5.669e+08
-2.22156e+09
-5.54109e+10
-7.45608e+08
-2.95499e+09
-5.41082e+10
-9.52422e+08
-3.93291e+09
-5.18801e+10
-1.2654e+09
-5.344e+09
-4.7722e+10
-2.24701e+09
-7.8391e+09
-4.1102e+10
-3.6545e+09