/*--------------------------------*- C++ -*----------------------------------*\
| =========                 |                                                 |
| \\      /  F ield         | OpenFOAM: The Open Source CFD Toolbox           |
|  \\    /   O peration     | Version:  4.1                                   |
|   \\  /    A nd           | Web:      www.OpenFOAM.org                      |
|    \\/     M anipulation  |                                                 |
\*---------------------------------------------------------------------------*/
FoamFile
{
    version     2.0;
    format      ascii;
    class       volVectorField;
    location    "52";
    object      U;
}
// * * * * * * * * * * * * * * * * * * * * * * * * * * * * * * * * * * * * * //

dimensions      [0 1 -1 0 0 0 0];

internalField   nonuniform List<vector> 
4432
(
(-176576 -4466.07 -4051.66)
(-180522 -3589.61 -2679.46)
(-177497 -2681.59 -1258.73)
(-175472 -3661.83 -2609.9)
(-175866 -3498.37 -2494.82)
(-175580 -3410.29 -2105.37)
(-174828 -3462.28 -2226.93)
(-174422 -3443.4 -2193.36)
(-174094 -3449.93 -2199.28)
(-173809 -3478.71 -2234.88)
(-173503 -3520.62 -2293.65)
(-173153 -3561.04 -2390.28)
(-172725 -3601 -2516.44)
(-172208 -3647.76 -2656.58)
(-171585 -3701.14 -2798.53)
(-170784 -3756.9 -2958.02)
(-169774 -3813.01 -3141.14)
(-168548 -3874.4 -3340.54)
(-167090 -3941.64 -3550.63)
(-165371 -4013.95 -3766.47)
(-163373 -4090.34 -3981.44)
(-161097 -4173.04 -4189.69)
(-158565 -4260.06 -4380.3)
(-155803 -4350.89 -4545.86)
(-152852 -4443.66 -4680.05)
(-149748 -4537.34 -4782.15)
(-146539 -4630.63 -4853.07)
(-143263 -4723.08 -4896.84)
(-139966 -4813.69 -4917.38)
(-136679 -4902.09 -4920.08)
(-133437 -4987.38 -4910.26)
(-130269 -5068.49 -4893.09)
(-127195 -5143.88 -4875.29)
(-124241 -5211.75 -4859.88)
(-121417 -5271.2 -4847.77)
(-118734 -5322.46 -4837.28)
(-116206 -5371.66 -4827.29)
(-113764 -5421.44 -4839.38)
(-111399 -5464.49 -4864.22)
(-109079 -5495.94 -4893.08)
(-106769 -5505.95 -4917.01)
(-104425 -5481.49 -4925.45)
(-101973 -5405.41 -4903.45)
(-99361.9 -5249.95 -4822.15)
(-96666 -4986.75 -4641.56)
(-94163.6 -4571.63 -4312)
(-92044.9 -3944.99 -3781.12)
(-89468.5 -3020.02 -2874.71)
(-84758 -1602.84 -1142.97)
(-79947 576.354 3197.82)
(-90694.4 4967.33 7620.11)
(-130300 12901.7 13879.2)
(-174608 32378.5 -1659.7)
(-37953.3 14217.2 -9192.28)
(-228651 888.866 -2456.71)
(-229400 1646.45 -2462.38)
(-228686 2391.7 -2226.35)
(-227569 1679.4 -2258.23)
(-227186 1868.27 -2370.08)
(-227025 1980.15 -2153.92)
(-226377 1988.65 -2238.13)
(-225897 2053.65 -2236.36)
(-225496 2099.61 -2273.9)
(-225097 2129.3 -2311.66)
(-224647 2149.39 -2371.25)
(-224144 2171.27 -2461.49)
(-223588 2194.22 -2574.11)
(-222985 2212.88 -2692)
(-222316 2227.45 -2813.73)
(-221532 2241.46 -2954.68)
(-220613 2258.05 -3115.12)
(-219558 2273.6 -3282.61)
(-218359 2288.24 -3458.85)
(-216997 2302.59 -3636.2)
(-215468 2317.69 -3812.76)
(-213780 2331.91 -3981.78)
(-211951 2346.4 -4136.67)
(-210008 2361.53 -4272.07)
(-207981 2377.77 -4384.31)
(-205900 2395.36 -4473.66)
(-203797 2413.76 -4541.66)
(-201696 2432.41 -4592.06)
(-199620 2450.13 -4628.58)
(-197580 2465.92 -4655.88)
(-195588 2478.63 -4678.44)
(-193645 2487.27 -4700.04)
(-191745 2491.35 -4723.97)
(-189881 2490.06 -4751.56)
(-188036 2482.22 -4783.24)
(-186190 2465.72 -4818.36)
(-184325 2436.5 -4855.2)
(-182420 2396.37 -4891.69)
(-180448 2348.84 -4921.98)
(-178373 2298.91 -4939.44)
(-176149 2251.97 -4934.53)
(-173708 2211.81 -4898.11)
(-170962 2185.3 -4812.83)
(-167827 2186.29 -4659.91)
(-164268 2234.89 -4429.49)
(-160383 2354.75 -4088.34)
(-156191 2583.47 -3603.79)
(-150950 2981.11 -2816.87)
(-143570 3633.35 -1411.22)
(-135059 4623.61 1602.91)
(-137741 6646.58 5624.48)
(-161224 8877.4 8298.3)
(-169099 13446.9 -2984.82)
(67777 9471.5 -19505.8)
(-265592 -1571.19 1757.66)
(-265788 -1884.48 1866.1)
(-266182 -2006.02 3073.16)
(-266016 -1758.11 2183.09)
(-265660 -1795.71 2209.36)
(-265953 -1784.16 2606.64)
(-265962 -1780.53 2750.7)
(-265902 -1757.86 2901.69)
(-265954 -1756.93 2989.06)
(-266017 -1749.99 3045.05)
(-266068 -1754.11 3067.49)
(-266106 -1757.67 3046.93)
(-266108 -1760.03 2995.54)
(-266088 -1761.85 2926.68)
(-266074 -1769.96 2845.85)
(-266047 -1784.25 2749.62)
(-265980 -1799.57 2637.82)
(-265878 -1813.55 2512.53)
(-265743 -1831.72 2379.64)
(-265573 -1850.63 2247.41)
(-265366 -1872.52 2124.08)
(-265132 -1897.12 2019.24)
(-264886 -1924.81 1947.97)
(-264647 -1955.52 1921.82)
(-264440 -1988.98 1948.98)
(-264276 -2025.2 2030.56)
(-264173 -2064.18 2164.47)
(-264136 -2106.33 2344.98)
(-264174 -2152.04 2566.63)
(-264287 -2202.17 2822.18)
(-264483 -2257.32 3105.92)
(-264763 -2317.97 3414.68)
(-265134 -2383.71 3747.6)
(-265599 -2454.54 4103.77)
(-266166 -2531.52 4482.4)
(-266865 -2617.26 4884.3)
(-267698 -2715.27 5312.68)
(-268715 -2823.85 5778.16)
(-269948 -2944.67 6290.65)
(-271433 -3078.67 6857.33)
(-273207 -3226.38 7490.06)
(-275322 -3389.89 8205.04)
(-277843 -3567.85 9011.72)
(-280838 -3759.37 9915.8)
(-284454 -3959.59 10921.3)
(-288999 -4156.31 12012)
(-294754 -4322.08 13134)
(-301559 -4370.86 14248.7)
(-308117 -4175.35 15518)
(-316601 -3449.68 16958.7)
(-329152 -264.56 17895.4)
(-390356 6064.25 11983.8)
(-421734 17521.4 -10735.8)
(-519477 46846 -21596.6)
(-288645 1710.8 23.2595)
(-289439 1418.74 -558.159)
(-289640 1299.72 -360.108)
(-289695 1523.69 -184.37)
(-289857 1487.52 -324.634)
(-290371 1494.58 -59.0903)
(-290630 1493.77 62.1371)
(-290816 1511.55 173.361)
(-291109 1509.04 222.467)
(-291391 1512.49 267.746)
(-291655 1506.58 289.868)
(-291890 1502.14 278.671)
(-292085 1499.95 240.187)
(-292263 1499.79 190.667)
(-292445 1495.51 135.517)
(-292604 1487.48 65.5187)
(-292710 1479.06 -19.5782)
(-292777 1472.31 -113.619)
(-292807 1462.24 -213.953)
(-292794 1451.88 -311.977)
(-292742 1439.09 -402.584)
(-292659 1424.11 -474.731)
(-292562 1406.6 -516.738)
(-292472 1386.68 -518.094)
(-292414 1364.49 -471.649)
(-292404 1340.21 -376.015)
(-292465 1313.53 -232.612)
(-292606 1284 -45.8378)
(-292845 1250.75 179.828)
(-293188 1212.65 438.642)
(-293651 1168.35 725.795)
(-294242 1116.64 1038.39)
(-294979 1057.27 1375.11)
(-295882 989.849 1735.73)
(-296972 912.61 2120.77)
(-298283 822.496 2530.55)
(-299853 718.064 2965.05)
(-301735 596.546 3425.89)
(-303986 456.826 3918.82)
(-306672 298.098 4449.45)
(-309869 119.645 5022.23)
(-313658 -79.4658 5638.55)
(-318114 -300.56 6303.74)
(-323302 -551.497 7031.26)
(-329364 -835.64 7834.84)
(-336541 -1152.65 8718.58)
(-344953 -1487.95 9671.18)
(-354017 -1791.55 10678.3)
(-361110 -2014.59 11969.7)
(-365448 -2174.12 14132.6)
(-370023 -356.027 16265.8)
(-382300 16.4902 10565.3)
(-331159 16125.2 -22021.2)
(-271030 -4260.05 -12817)
(-217406 -1903.87 -1334.55)
(-214722 -2022.42 -2075.99)
(-214797 -2504.16 -2227.72)
(-214550 -1983.2 -1707.16)
(-213868 -2045.78 -1960.11)
(-213689 -2107.8 -1913.1)
(-213544 -2161.52 -1750.17)
(-213437 -2177.26 -1678.34)
(-213350 -2215.38 -1655.27)
(-213233 -2235.63 -1648.71)
(-213092 -2255.28 -1686.13)
(-212916 -2265.18 -1769.12)
(-212673 -2273.91 -1895.83)
(-212387 -2282.84 -2066.42)
(-212078 -2291.57 -2283.14)
(-211711 -2305.06 -2527.83)
(-211229 -2316.72 -2805.07)
(-210628 -2324.73 -3112.7)
(-209893 -2332.88 -3448.93)
(-209006 -2338.8 -3801.07)
(-207955 -2345.02 -4161.32)
(-206741 -2350.34 -4510.27)
(-205377 -2356.61 -4825.45)
(-203895 -2364.01 -5084.2)
(-202333 -2372.77 -5270.95)
(-200731 -2383.21 -5381.28)
(-199126 -2395.53 -5418.15)
(-197542 -2410.34 -5391.54)
(-196002 -2428.34 -5312.9)
(-194517 -2450.26 -5196.42)
(-193091 -2476.78 -5053.43)
(-191714 -2509.72 -4888.46)
(-190381 -2551.11 -4699.59)
(-189075 -2601.04 -4496.15)
(-187775 -2659.54 -4291.53)
(-186448 -2726.82 -4083.95)
(-185062 -2798.38 -3878.49)
(-183603 -2873.41 -3678.08)
(-182045 -2949.63 -3476.38)
(-180364 -3019.27 -3272.91)
(-178538 -3076.75 -3062.84)
(-176530 -3119.59 -2839.26)
(-174251 -3134.01 -2619.46)
(-171665 -3100 -2435.67)
(-168813 -2983.19 -2334.3)
(-165880 -2718.8 -2399.41)
(-162978 -2194.65 -2717.87)
(-159273 -1298.07 -3459.69)
(-153018 200.218 -4872.87)
(-145074 2608.92 -7362.3)
(-153658 7400.83 -8837.43)
(-190261 11638.8 -14771)
(-206509 30791.7 -28444.9)
(-68279 13255.5 -14317.6)
(-242342 2831.08 -2014.22)
(-241507 2784.21 -2173.22)
(-241031 2389.93 -2044.69)
(-240771 2894.77 -1719.88)
(-240912 2879.47 -1921.28)
(-241004 2860.48 -1962.58)
(-241137 2851.09 -1827.52)
(-241358 2875.55 -1792.31)
(-241633 2880.73 -1784.31)
(-241871 2901.79 -1786.83)
(-242098 2923.82 -1817.23)
(-242287 2954.6 -1883.18)
(-242409 2986.58 -1990.2)
(-242473 3018.48 -2142.99)
(-242495 3050.66 -2334.71)
(-242441 3078.85 -2549.79)
(-242270 3109.03 -2789.08)
(-241985 3142.76 -3057.6)
(-241572 3176.64 -3344.96)
(-241013 3212.71 -3645.25)
(-240302 3248.58 -3947.33)
(-239439 3285.13 -4235.33)
(-238435 3320.57 -4489.57)
(-237318 3354.33 -4691.1)
(-236123 3385.85 -4827.53)
(-234883 3414.44 -4895.79)
(-233629 3439.52 -4899.08)
(-232384 3460.2 -4846.29)
(-231165 3475.43 -4747.29)
(-229981 3484.16 -4613.4)
(-228836 3485.27 -4454.53)
(-227723 3476.78 -4278.14)
(-226638 3456.17 -4088.84)
(-225567 3422.55 -3890.19)
(-224497 3374.41 -3685.32)
(-223418 3310.06 -3477.68)
(-222309 3231.99 -3269.6)
(-221152 3138.93 -3059.56)
(-219921 3030.47 -2845.05)
(-218584 2908.56 -2618.56)
(-217063 2774.63 -2377.31)
(-215295 2629.54 -2117.24)
(-213181 2481.37 -1842.6)
(-210626 2340.41 -1562.15)
(-207603 2227.67 -1292.34)
(-204181 2186.13 -1063.76)
(-200286 2284.09 -893.061)
(-194913 2604.44 -850.12)
(-186683 3257.24 -864.653)
(-176626 4312.6 -432.521)
(-179494 5853.58 -956.13)
(-190527 6296.38 -6055.76)
(-204343 8159.91 -12831.3)
(32947.9 10203.9 -5895.07)
(-232057 -2998.34 -1019.52)
(-231785 -2794.9 334.646)
(-231450 -2663.3 125.359)
(-231366 -2521.52 927.746)
(-231447 -2537.95 1030.17)
(-231442 -2612.15 1152.82)
(-231498 -2623.84 1236.8)
(-231624 -2634.59 1306.06)
(-231826 -2657.88 1345.85)
(-232043 -2672.11 1352.5)
(-232279 -2688.95 1319.85)
(-232503 -2700.48 1263.36)
(-232681 -2712.64 1158.57)
(-232826 -2730.33 994.541)
(-232944 -2752.17 773.09)
(-233017 -2777.36 512.155)
(-233027 -2799.86 214.359)
(-232974 -2823.99 -113.189)
(-232853 -2846.78 -460.763)
(-232651 -2869.72 -813.377)
(-232364 -2890.91 -1157.42)
(-231991 -2911.01 -1467.29)
(-231549 -2930.33 -1714.91)
(-231069 -2949.5 -1871.55)
(-230591 -2969.62 -1919.06)
(-230151 -2991.72 -1854.4)
(-229773 -3017 -1685.21)
(-229470 -3046.85 -1427.12)
(-229248 -3082.45 -1097.68)
(-229106 -3124.57 -713.644)
(-229034 -3174.78 -287.864)
(-229018 -3237.93 170.948)
(-229060 -3320.19 658.68)
(-229166 -3417.45 1170.74)
(-229321 -3524.45 1702.9)
(-229522 -3651.67 2257.79)
(-229780 -3798.79 2842.74)
(-230099 -3964.59 3463.64)
(-230487 -4154.47 4128.82)
(-230933 -4370.48 4854.61)
(-231466 -4609.84 5664.99)
(-232089 -4868.58 6577.42)
(-232795 -5139.9 7613.47)
(-233606 -5408.39 8796.4)
(-234621 -5649.77 10152.8)
(-236131 -5825.32 11717.1)
(-238375 -5870.93 13522.4)
(-240960 -5662.44 15515.5)
(-242355 -4996.96 17325.3)
(-244623 -3496.99 19556.5)
(-259595 -500.791 21794.6)
(-313929 4203.55 19462.5)
(-371794 21020.4 -21840.2)
(-354436 25772.8 11492.1)
(-259483 1199.84 -1511.88)
(-259330 1391.61 -206.839)
(-259216 1529.8 176.259)
(-259494 1673.83 550.165)
(-259948 1682.42 707.501)
(-260144 1639.97 856.55)
(-260329 1653.69 968.565)
(-260632 1668.68 1032.1)
(-260989 1673.5 1099.24)
(-261348 1687.22 1130.39)
(-261728 1699.31 1121.07)
(-262102 1716.83 1076.92)
(-262453 1734.48 989.885)
(-262793 1748.02 849.95)
(-263126 1758.8 660.564)
(-263429 1767.48 441.102)
(-263685 1779.34 191.12)
(-263897 1790.65 -84.8323)
(-264055 1804.16 -372.259)
(-264148 1818.61 -661.096)
(-264170 1835.72 -934.592)
(-264116 1854.96 -1172.32)
(-263998 1876.06 -1348.07)
(-263837 1898.34 -1438.17)
(-263664 1920.66 -1429.12)
(-263504 1941.75 -1319.79)
(-263373 1960.11 -1119.17)
(-263280 1974.03 -842.203)
(-263225 1982.05 -504.939)
(-263208 1983.03 -122.624)
(-263223 1975.38 291.998)
(-263262 1954.74 729.109)
(-263319 1915.54 1183.66)
(-263391 1861.17 1652.35)
(-263478 1796.18 2133.2)
(-263581 1711.44 2627.18)
(-263702 1607.35 3136)
(-263845 1484.89 3664.77)
(-264018 1338.46 4221.52)
(-264221 1163.61 4825.21)
(-264494 959.599 5494.39)
(-264837 728.398 6243.27)
(-265230 472.704 7087.22)
(-265662 200.292 8042.91)
(-266172 -73.9897 9118.5)
(-266925 -327.365 10312.9)
(-267990 -520.864 11597.1)
(-268718 -570.477 12894.7)
(-266867 -319.495 14088.9)
(-263159 180.536 15285.6)
(-262968 403.699 12547.7)
(-275554 -2563.3 1647.03)
(-224810 14934.1 -33846.2)
(-91633.4 8093.45 -20700)
(-220970 -2844.55 -3005.25)
(-220296 -2894.78 -1663.9)
(-219893 -2719.15 -1245.76)
(-219532 -2637.36 -826.82)
(-219417 -2646.85 -466.102)
(-219265 -2685.51 -175.887)
(-219219 -2713.76 54.3182)
(-219230 -2743.81 209.513)
(-219296 -2759.89 315.393)
(-219355 -2766.93 339.729)
(-219384 -2782.09 280.505)
(-219389 -2807.48 177.852)
(-219358 -2836.81 13.1956)
(-219287 -2873.3 -227.272)
(-219177 -2915.9 -535.839)
(-218996 -2965.79 -905.828)
(-218693 -3020.26 -1335.66)
(-218251 -3080.52 -1822.72)
(-217648 -3143.81 -2347.03)
(-216862 -3211.76 -2898.56)
(-215874 -3280.92 -3454.87)
(-214669 -3351.68 -3986.87)
(-213261 -3422.32 -4451.29)
(-211697 -3492.38 -4804.34)
(-210052 -3562.06 -5019.94)
(-208404 -3630.57 -5093.95)
(-206819 -3698.26 -5040.79)
(-205343 -3765.38 -4885.2)
(-204002 -3832.38 -4654.66)
(-202808 -3900.21 -4373.38)
(-201751 -3971.62 -4060.99)
(-200813 -4051.25 -3736.65)
(-199976 -4143.14 -3418.22)
(-199220 -4247.82 -3115.12)
(-198453 -4365.68 -2822.74)
(-197614 -4499.72 -2544.48)
(-196658 -4651.78 -2276.88)
(-195548 -4820.96 -2008.23)
(-194251 -5007.59 -1729.37)
(-192740 -5217.55 -1424.02)
(-190951 -5458.25 -1085.87)
(-188824 -5733.24 -698.851)
(-186297 -6043.39 -249.44)
(-183327 -6385.96 277.331)
(-179954 -6755.4 895.725)
(-176379 -7148.63 1654.4)
(-172771 -7557.91 2664.77)
(-168729 -7968.82 3985.95)
(-162998 -8093.17 5828.24)
(-158344 -8523.94 8047.11)
(-170266 -11525.5 10590)
(-214995 -15907.2 12659.9)
(-253547 12131.3 16292.1)
(-364301 -7534.62 25266.3)
(-234164 2111.75 -4072.06)
(-233807 2035.63 -3057.29)
(-233668 2201.19 -2784.81)
(-233854 2273.99 -2514.16)
(-234151 2264.26 -2189.48)
(-234286 2228.25 -1855.29)
(-234462 2202.78 -1643.62)
(-234681 2177.09 -1523.2)
(-234944 2166.21 -1437.84)
(-235224 2165.42 -1427.3)
(-235500 2158.1 -1480.72)
(-235752 2141.85 -1586.79)
(-235970 2122.1 -1754.13)
(-236155 2095.31 -1991.68)
(-236295 2061.94 -2293.44)
(-236359 2020.64 -2649.71)
(-236326 1974.16 -3062.88)
(-236182 1921.1 -3523.35)
(-235911 1863.77 -4016.26)
(-235492 1800.39 -4527.32)
(-234909 1733.97 -5036.66)
(-234150 1664.19 -5514.83)
(-233227 1592.87 -5921.21)
(-232179 1521.11 -6217.79)
(-231066 1449.71 -6382.77)
(-229947 1380.5 -6415.85)
(-228866 1314.14 -6334.25)
(-227850 1251.07 -6164.93)
(-226909 1191.15 -5936.48)
(-226043 1133.51 -5673.41)
(-225241 1075.31 -5394.2)
(-224483 1011.84 -5112.32)
(-223751 938.554 -4835.41)
(-223028 855.053 -4568.02)
(-222298 761.749 -4311.58)
(-221548 655.878 -4061.54)
(-220763 535.918 -3812.6)
(-219928 402.655 -3559.73)
(-219023 253.572 -3294.74)
(-218015 81.1807 -3007.41)
(-216856 -123.358 -2687.59)
(-215517 -360.737 -2329.43)
(-213953 -629.366 -1931.25)
(-212123 -928.224 -1499.12)
(-210053 -1254.09 -1051.84)
(-207896 -1608.09 -612.8)
(-205737 -2001.87 -223.441)
(-202826 -2389.76 6.65002)
(-197202 -2429.34 151.202)
(-189527 -2821.31 735.114)
(-192503 -8002.91 2940.27)
(-237890 -15684.7 3606.94)
(-308040 7780.16 13599.8)
(-245503 -21132.2 13587.7)
(-235811 -1465.64 -1758.1)
(-235866 -1527.15 -697.697)
(-235840 -1507.56 -221.632)
(-235968 -1484.7 156.755)
(-236129 -1500.5 509.561)
(-236263 -1497.32 756.026)
(-236437 -1497.11 947.507)
(-236675 -1517.15 1085.59)
(-236999 -1538.94 1181.07)
(-237378 -1551.13 1205.42)
(-237745 -1552.72 1150.76)
(-238087 -1562.07 1014.34)
(-238419 -1576.56 793.997)
(-238729 -1597.27 485.821)
(-239001 -1624.22 103.911)
(-239213 -1655.28 -346.631)
(-239362 -1690.64 -857.475)
(-239432 -1728.77 -1417.01)
(-239411 -1771.82 -2005.58)
(-239285 -1817.55 -2610.54)
(-239034 -1866.17 -3206.95)
(-238641 -1916.07 -3760.02)
(-238116 -1966.04 -4211.36)
(-237511 -2015.88 -4504.17)
(-236911 -2063.92 -4610.76)
(-236397 -2108.54 -4538.12)
(-236025 -2148.57 -4322.61)
(-235827 -2184.11 -4013.73)
(-235810 -2215.54 -3662.3)
(-235963 -2243.23 -3310.3)
(-236263 -2268.03 -2989.11)
(-236682 -2290.75 -2723.16)
(-237195 -2309.88 -2530.53)
(-237761 -2325.67 -2427.78)
(-238427 -2333.44 -2412.02)
(-239206 -2333.79 -2477.75)
(-240077 -2330.88 -2625.19)
(-241000 -2328.12 -2855.77)
(-241910 -2325.65 -3171.75)
(-242748 -2324.13 -3573.39)
(-243449 -2325.85 -4069.55)
(-243923 -2332.81 -4677.01)
(-244051 -2345.36 -5412.59)
(-243712 -2364.6 -6304.79)
(-242840 -2394.99 -7400.4)
(-241431 -2456.5 -8753.91)
(-239306 -2572.87 -10419.9)
(-235318 -2744.87 -12479.3)
(-227512 -3172.4 -14670.4)
(-215137 -4414.11 -16098.1)
(-204287 -5887.02 -17023)
(-213359 -4203.75 -14489.8)
(-255061 19630 37607.5)
(-209473 19925.7 17163.5)
(-234046 3413.77 -2048.1)
(-234366 3444.3 -998.58)
(-234520 3496.08 -787.514)
(-234923 3564.47 -558.618)
(-235361 3585.25 -250.472)
(-235728 3624.06 6.81296)
(-236176 3659.61 188.25)
(-236669 3675.25 296.385)
(-237204 3689.9 337.628)
(-237766 3715.29 307.037)
(-238319 3752.79 204.255)
(-238850 3784.49 19.8367)
(-239359 3813.36 -253.565)
(-239840 3838.95 -618.51)
(-240278 3861.83 -1063.82)
(-240652 3884.58 -1582.74)
(-240944 3906.65 -2172.69)
(-241136 3930.21 -2821.98)
(-241209 3952.89 -3516.71)
(-241142 3976.21 -4241.05)
(-240903 3998.94 -4974.25)
(-240464 4021.29 -5677.43)
(-239819 4042.56 -6291.92)
(-239006 4060.7 -6757.3)
(-238096 4075.29 -7038.54)
(-237163 4086.49 -7136.65)
(-236266 4095.19 -7080.76)
(-235447 4101.89 -6915.57)
(-234726 4107.6 -6688.33)
(-234110 4113.92 -6439.31)
(-233591 4121.91 -6197.46)
(-233158 4132.67 -5983.05)
(-232792 4149.36 -5810.89)
(-232476 4179.34 -5689.4)
(-232187 4227.02 -5616.92)
(-231903 4288.99 -5589.87)
(-231589 4362.16 -5609.88)
(-231221 4444.53 -5675.05)
(-230770 4535.25 -5784.54)
(-230209 4632.64 -5938.1)
(-229512 4737.43 -6134.19)
(-228624 4846.43 -6376.34)
(-227486 4958.64 -6669.98)
(-226044 5072.16 -7030.9)
(-224317 5182.91 -7488.2)
(-222440 5270.44 -8079.9)
(-220475 5281.3 -8865.14)
(-217720 5181.68 -9931.64)
(-212400 4794.76 -11490.9)
(-204552 3268.93 -13971.5)
(-204686 506.405 -14673.9)
(-211743 -2899.68 -9051.45)
(-196627 12956.6 39629.6)
(-47430.1 11497 29665.3)
(-225038 -781.171 -3955.37)
(-225300 -725.88 -2865.67)
(-225446 -774.194 -2473.39)
(-225731 -786.485 -2086.46)
(-226033 -788.742 -1765.37)
(-226349 -763.552 -1495.57)
(-226672 -753.19 -1273.79)
(-227041 -765.099 -1101.86)
(-227491 -787.208 -1000.02)
(-227980 -798.28 -968.928)
(-228463 -806.452 -994.069)
(-228936 -819.988 -1112.66)
(-229389 -837.396 -1334.34)
(-229800 -859.502 -1660.68)
(-230148 -887.302 -2085.56)
(-230408 -920.665 -2600.68)
(-230553 -959.003 -3200.22)
(-230554 -1001.41 -3866.44)
(-230389 -1050.8 -4585.18)
(-230033 -1105.94 -5338.53)
(-229443 -1168.87 -6112.85)
(-228566 -1237.8 -6866.66)
(-227387 -1313.42 -7516.73)
(-225970 -1395.28 -7964.9)
(-224438 -1479.74 -8151.07)
(-222916 -1563.65 -8081.1)
(-221498 -1642.85 -7802.45)
(-220234 -1715.16 -7383.55)
(-219144 -1779.03 -6893.03)
(-218224 -1834.4 -6385.21)
(-217463 -1881.71 -5898.09)
(-216849 -1920.28 -5454.21)
(-216368 -1949.6 -5058.51)
(-216016 -1975.69 -4718.46)
(-215744 -2001 -4437.68)
(-215515 -2019.49 -4217.19)
(-215314 -2028.52 -4063.6)
(-215091 -2036.62 -3989.26)
(-214821 -2039.11 -3985.76)
(-214480 -2031.34 -4040.56)
(-214012 -2009.97 -4151.44)
(-213345 -1969.55 -4331.74)
(-212397 -1901.7 -4589.2)
(-211077 -1796.9 -4939.8)
(-209371 -1644.86 -5413.76)
(-207403 -1427.56 -6052.87)
(-205287 -1108.63 -6914.84)
(-202398 -594.522 -8013.74)
(-196840 226.03 -9483.67)
(-188848 1186.77 -10814.9)
(-186157 1914.02 -11367.6)
(-191830 4229.26 -5548.41)
(-186993 28397.5 42109.2)
(-92456.4 19379.1 31939)
(-223691 1853.19 -1093.89)
(-224424 1993.49 238.641)
(-224679 1988.57 598.46)
(-225017 2025.38 971.481)
(-225341 2068.08 1362.67)
(-225704 2136.47 1708.31)
(-226123 2188.75 1990.04)
(-226586 2218.04 2230.13)
(-227096 2236.23 2404.55)
(-227633 2265.16 2509.44)
(-228183 2297.71 2543.05)
(-228734 2326.4 2485.03)
(-229276 2353.7 2324.06)
(-229794 2380.01 2058.24)
(-230271 2405.63 1693.26)
(-230694 2432.51 1233.3)
(-231056 2463.16 686.541)
(-231338 2499.57 71.2371)
(-231547 2541.57 -593.971)
(-231689 2593.66 -1294.24)
(-231734 2656.24 -2010.82)
(-231646 2733.71 -2699.72)
(-231418 2827.04 -3276.91)
(-231104 2936.18 -3642.78)
(-230787 3060.73 -3738.75)
(-230536 3197.32 -3570.21)
(-230380 3342.53 -3186.54)
(-230314 3491.15 -2657.24)
(-230305 3638.3 -2052.17)
(-230311 3779.02 -1427.94)
(-230290 3909.39 -822.908)
(-230208 4027.28 -258.102)
(-230040 4131.58 265.939)
(-229802 4220.83 756.827)
(-229505 4296.62 1213.69)
(-229113 4360.49 1616.89)
(-228595 4414.01 1970.21)
(-227922 4457.91 2284.48)
(-227063 4494.47 2568.31)
(-225973 4524.37 2832.83)
(-224599 4547.79 3083.3)
(-222869 4565.55 3315.59)
(-220698 4578.97 3528.87)
(-218013 4589.41 3718.61)
(-214812 4598.33 3874.13)
(-211221 4608.59 3974.98)
(-207328 4639.53 3983.76)
(-202568 4768.92 3872.05)
(-195128 5037.36 3594.15)
(-184738 4957.72 3618.07)
(-181525 4452.36 4060.36)
(-185062 3516.99 -141.632)
(-197861 15299 10548.2)
(33071.8 8601.13 16791.2)
(-228759 -1298.76 -2788.72)
(-229203 -1144.25 -1865.75)
(-229619 -1173.48 -1491.28)
(-230123 -1183.05 -1069.49)
(-230631 -1159.84 -734.268)
(-231162 -1113.86 -397.421)
(-231750 -1091.82 -93.5302)
(-232433 -1085.94 143.442)
(-233219 -1077.35 296.806)
(-234039 -1055.67 379.039)
(-234856 -1034.45 372.505)
(-235680 -1014.11 251.621)
(-236485 -991.835 6.24929)
(-237242 -967.417 -369.216)
(-237926 -938.485 -874.939)
(-238508 -901.629 -1505.43)
(-238957 -852.513 -2247.88)
(-239245 -789.088 -3079.58)
(-239355 -706.912 -3975.8)
(-239275 -606.663 -4915.24)
(-238960 -484.858 -5891.32)
(-238326 -339.961 -6863.24)
(-237333 -174.281 -7712.02)
(-236071 6.3061 -8257.47)
(-234743 192.554 -8389.18)
(-233558 377.02 -8140.37)
(-232645 552.782 -7611.39)
(-232044 715.199 -6919.18)
(-231734 861.628 -6168.68)
(-231654 990.382 -5435.2)
(-231737 1101.76 -4766.63)
(-231911 1198.74 -4189.42)
(-232115 1288.13 -3712.9)
(-232300 1373.35 -3336.58)
(-232432 1447.27 -3054.75)
(-232477 1502.02 -2859.26)
(-232410 1532.93 -2763.52)
(-232246 1548.28 -2772.76)
(-231961 1543.87 -2889.65)
(-231528 1515.77 -3124.59)
(-230902 1457.71 -3496.69)
(-230033 1363.2 -4026.59)
(-228850 1223.71 -4744.18)
(-227288 1031.34 -5688.21)
(-225344 780.213 -6901.76)
(-223106 470.285 -8419.85)
(-220573 85.3024 -10300.7)
(-216989 -398.828 -12566.1)
(-210177 -808.04 -15070.5)
(-200526 -666.512 -18125)
(-196596 -1293.25 -22713)
(-195237 -6661.31 -31761.9)
(-185364 -14828.4 -67779.6)
(18674.9 -3578.64 14744.3)
(-209540 264.219 -980.115)
(-209390 370.634 123.267)
(-209431 328.443 610.425)
(-209417 300.847 1108.04)
(-209397 317.468 1542.76)
(-209455 361.036 1946.91)
(-209581 381.335 2293.09)
(-209746 384.686 2580.76)
(-209966 388.127 2803.27)
(-210206 403.058 2943.57)
(-210446 414.898 2982.06)
(-210678 422.109 2898.91)
(-210881 426.456 2681.72)
(-211032 427.236 2322.77)
(-211110 425.378 1820.82)
(-211083 420.76 1181.2)
(-210917 415.936 415.128)
(-210568 410.75 -461.144)
(-209989 406.928 -1421.96)
(-209138 401.115 -2452.25)
(-207955 396.131 -3548.81)
(-206338 392.63 -4683.07)
(-204230 388.02 -5737.07)
(-201731 378.833 -6521.42)
(-199088 361.86 -6911.53)
(-196563 337.671 -6918.14)
(-194336 305.578 -6625.82)
(-192504 265.375 -6136.61)
(-191084 217.854 -5546.26)
(-190040 163.737 -4924.54)
(-189308 105.314 -4316.04)
(-188808 47.2121 -3747.11)
(-188467 -0.0441979 -3216.15)
(-188105 -40.817 -2752.28)
(-187612 -92.3585 -2377.51)
(-186961 -164.43 -2089.3)
(-186143 -258.618 -1870.51)
(-185147 -374.264 -1713.42)
(-183943 -514.441 -1619.74)
(-182496 -681.533 -1591.73)
(-180758 -880.263 -1638.92)
(-178660 -1117.77 -1780.55)
(-176118 -1402.48 -2044.08)
(-173052 -1741.3 -2470.98)
(-169461 -2140 -3122.61)
(-165469 -2600.59 -4072.43)
(-161080 -3133.84 -5401.39)
(-155383 -3731.45 -7161.85)
(-145574 -4165.41 -9215.3)
(-130961 -3799.04 -11117.9)
(-121661 -3623.78 -13727.5)
(-130119 -8147.13 -12338.5)
(-201971 -10673.7 -5217.09)
(-13794.4 926.251 -15282)
(-238186 -3269.62 -1279.93)
(-238459 -3263.08 -519.421)
(-238681 -3292.05 -107.046)
(-238994 -3335.39 400.513)
(-239270 -3336.82 837.667)
(-239541 -3342.98 1235.11)
(-239879 -3382.77 1570.33)
(-240317 -3429.02 1812.54)
(-240832 -3461.26 1980.44)
(-241388 -3485.32 2078.82)
(-241969 -3508.1 2056.6)
(-242559 -3528.27 1889.46)
(-243125 -3543.09 1564.06)
(-243636 -3551.67 1074.52)
(-244070 -3553.31 422.944)
(-244396 -3549.94 -384.051)
(-244581 -3542.02 -1328.02)
(-244599 -3531.82 -2391.25)
(-244436 -3517.54 -3540.03)
(-244089 -3498.57 -4756.25)
(-243502 -3470.52 -6039.14)
(-242518 -3433.32 -7377.31)
(-240982 -3386.9 -8614.77)
(-238949 -3333.52 -9412.36)
(-236723 -3273.07 -9528.18)
(-234621 -3196.63 -9022.3)
(-232831 -3099.66 -8101.04)
(-231436 -2980.12 -6969.53)
(-230442 -2840.99 -5800.68)
(-229801 -2687.66 -4699.76)
(-229452 -2524.12 -3722.62)
(-229331 -2353.44 -2891.5)
(-229375 -2179.37 -2214.2)
(-229529 -2002.22 -1688.78)
(-229753 -1818.87 -1289.08)
(-230011 -1622.59 -1006.97)
(-230272 -1411.16 -827.957)
(-230510 -1189.32 -753.641)
(-230701 -961.508 -790.866)
(-230818 -732.058 -950.911)
(-230828 -506.944 -1252.93)
(-230684 -296.224 -1723.58)
(-230325 -115.58 -2399.81)
(-229704 12.473 -3336.13)
(-228821 60.2891 -4604.03)
(-227764 -10.2182 -6325.97)
(-226465 -256.573 -8658.43)
(-223904 -712.548 -11710.3)
(-217623 -1332.66 -15393.8)
(-206322 -2367.49 -20104.1)
(-196070 -5136 -28533.9)
(-190227 -6876.96 -37161.7)
(-198028 -19839 -52444.9)
(4434.02 -5372.94 -4187.59)
(-229592 1531.95 -1204)
(-229642 1543.91 -366.851)
(-229670 1515.6 178.483)
(-229723 1480.55 805.17)
(-229719 1492.45 1330.7)
(-229796 1506.01 1761.41)
(-229970 1491.49 2144.51)
(-230232 1474.43 2455.99)
(-230594 1475.14 2698.41)
(-231039 1486.64 2856.74)
(-231542 1500.8 2896.41)
(-232071 1516.83 2794.57)
(-232585 1535.17 2537.25)
(-233040 1553.97 2118.46)
(-233393 1570.73 1538.19)
(-233605 1583.62 805.18)
(-233636 1587.96 -59.1756)
(-233467 1581.99 -1026.95)
(-233090 1565.6 -2062.35)
(-232498 1537.15 -3136.04)
(-231635 1498.79 -4244.79)
(-230343 1447.21 -5372.27)
(-228468 1379.03 -6353.32)
(-226092 1291.38 -6841.54)
(-223558 1190.37 -6598.57)
(-221231 1096.43 -5711.84)
(-219316 1023.27 -4423.99)
(-217884 977.41 -2973.36)
(-216906 957.086 -1549.67)
(-216306 955.213 -263.279)
(-215998 964.9 832.39)
(-215905 979.669 1718.52)
(-215972 994.684 2408.5)
(-216204 1012.8 2933.07)
(-216583 1038.84 3347.07)
(-217099 1073.23 3674.83)
(-217706 1113.9 3927.02)
(-218365 1155.16 4101.05)
(-219061 1190.4 4197.27)
(-219782 1212.59 4216.02)
(-220522 1212.77 4146.95)
(-221270 1177.19 3968.09)
(-222034 1085.94 3650.83)
(-222864 912.248 3148.53)
(-223894 629.508 2407.24)
(-225395 194.159 1304.45)
(-227538 -464.978 -314.649)
(-229650 -1379.05 -2563.75)
(-229448 -2462.5 -5770.48)
(-225158 -4117.51 -11507.5)
(-221484 -8736.09 -22189.8)
(-252185 -13815.8 -33230.2)
(-220830 -35261.5 -82594.7)
(-139823 -18565 -31780.3)
(-234439 -2497.84 -1184.67)
(-234677 -2534.19 -429.165)
(-234772 -2550.05 54.02)
(-234997 -2575.09 650.645)
(-235197 -2576.26 1231.33)
(-235389 -2595.7 1772.45)
(-235646 -2612.95 2255.6)
(-235977 -2616.67 2677.44)
(-236360 -2607.32 3035.51)
(-236801 -2595.44 3300.24)
(-237300 -2577.69 3430.87)
(-237832 -2555.05 3395.81)
(-238367 -2528.63 3171.97)
(-238872 -2501.44 2748.69)
(-239317 -2477.38 2121.46)
(-239677 -2459.63 1292.51)
(-239927 -2451.05 277.081)
(-240024 -2454.36 -902.257)
(-239963 -2473.43 -2205.95)
(-239770 -2506.76 -3605.29)
(-239417 -2556.93 -5112.85)
(-238681 -2628.68 -6787.55)
(-237219 -2734.59 -8515.75)
(-235069 -2891.25 -9727.18)
(-232824 -3095.66 -9865.77)
(-231029 -3327.94 -9036.5)
(-229795 -3570.79 -7696.41)
(-229029 -3810.02 -6168.41)
(-228568 -4033.12 -4681.6)
(-228253 -4232.14 -3339.27)
(-227978 -4402.07 -2182.11)
(-227677 -4541.5 -1212.38)
(-227320 -4650.9 -414.255)
(-226917 -4734.77 236.192)
(-226517 -4795.69 770.723)
(-226110 -4839.3 1197.05)
(-225702 -4867.03 1528.93)
(-225299 -4878.56 1772.56)
(-224912 -4873.12 1934.38)
(-224560 -4851.57 2012.11)
(-224257 -4816.12 1996.96)
(-224025 -4768.69 1876.28)
(-223906 -4712.51 1627.54)
(-223989 -4655.6 1205.66)
(-224476 -4612.69 534.627)
(-225739 -4606.96 -510.504)
(-228068 -4652.39 -2080.48)
(-230946 -4764.85 -4394.76)
(-232257 -4844.67 -7987.45)
(-231676 -4792.14 -14208.4)
(-233356 -4791.95 -25955)
(-261793 -5488.92 -45437)
(-227888 -12471.6 -80648.8)
(-109319 -5619.42 -25914.2)
(-228604 3456.04 -3016.84)
(-228619 3492.59 -2301.29)
(-228678 3486.58 -1800.25)
(-228822 3482.05 -1189.32)
(-228988 3490.15 -640.479)
(-229177 3474.65 -132.355)
(-229410 3457.67 363.588)
(-229710 3454.08 795.529)
(-230077 3462.92 1145.35)
(-230513 3473.06 1389.46)
(-231008 3488.03 1493.72)
(-231538 3507.61 1426.27)
(-232071 3531.53 1162.1)
(-232573 3557.93 688.472)
(-233009 3584.11 -0.329003)
(-233353 3608.83 -899.015)
(-233548 3632.25 -2006.07)
(-233547 3653.92 -3307.97)
(-233333 3670.61 -4767.51)
(-232922 3683.32 -6351.72)
(-232272 3687.94 -8080.94)
(-231129 3677.63 -10026.5)
(-229094 3636.6 -12064.5)
(-226125 3540.28 -13578.1)
(-222783 3378.08 -13929.5)
(-219724 3159.16 -13157.8)
(-217271 2902.62 -11737.2)
(-215491 2631.24 -10046.6)
(-214299 2377.59 -8350.94)
(-213557 2158.02 -6779.12)
(-213144 1979.1 -5388.17)
(-212964 1841.8 -4187.69)
(-212948 1745.29 -3163.77)
(-213048 1686.31 -2309.29)
(-213236 1663.56 -1589.41)
(-213463 1667.67 -1024.18)
(-213727 1694.07 -592.056)
(-214033 1740.5 -269.312)
(-214387 1806 -38.2128)
(-214801 1889.44 115.694)
(-215292 1987.24 200.353)
(-215888 2095.65 223.491)
(-216645 2209.69 191.988)
(-217681 2318.01 93.9353)
(-219257 2399.34 -114.198)
(-221842 2421 -507.798)
(-225903 2364.36 -1121.52)
(-231037 2236.63 -2061.06)
(-235267 2058.15 -3843.12)
(-238374 1796.9 -8011.09)
(-250986 1050.39 -18128.4)
(-299788 -2092.59 -35474.4)
(-373815 -19594.3 -83660.3)
(-270015 -11419.5 -24863.6)
(-224710 -857.367 -1142.12)
(-224738 -778.708 -123.833)