/*--------------------------------*- C++ -*----------------------------------*\
| =========                 |                                                 |
| \\      /  F ield         | OpenFOAM: The Open Source CFD Toolbox           |
|  \\    /   O peration     | Version:  4.1                                   |
|   \\  /    A nd           | Web:      www.OpenFOAM.org                      |
|    \\/     M anipulation  |                                                 |
\*---------------------------------------------------------------------------*/
FoamFile
{
    version     2.0;
    format      ascii;
    class       volScalarField;
    location    "39";
    object      p;
}
// * * * * * * * * * * * * * * * * * * * * * * * * * * * * * * * * * * * * * //

dimensions      [0 2 -2 0 0 0 0];

internalField   nonuniform List<scalar> 
4432
(
-3.24628e+10
-3.57076e+10
-3.51783e+10
-2.85389e+10
-2.81816e+10
-2.95816e+10
-2.88895e+10
-2.84161e+10
-2.81435e+10
-2.79771e+10
-2.77638e+10
-2.74984e+10
-2.72182e+10
-2.69622e+10
-2.67696e+10
-2.66105e+10
-2.64129e+10
-2.61887e+10
-2.59595e+10
-2.5733e+10
-2.5501e+10
-2.52661e+10
-2.50297e+10
-2.47944e+10
-2.4564e+10
-2.43421e+10
-2.41323e+10
-2.39371e+10
-2.37582e+10
-2.35955e+10
-2.34479e+10
-2.33138e+10
-2.31899e+10
-2.30706e+10
-2.29487e+10
-2.28169e+10
-2.26669e+10
-2.24917e+10
-2.22875e+10
-2.20574e+10
-2.18135e+10
-2.15785e+10
-2.13843e+10
-2.12707e+10
-2.12821e+10
-2.14451e+10
-2.17154e+10
-2.19295e+10
-2.18741e+10
-2.17056e+10
-2.2619e+10
-2.60098e+10
-2.8402e+10
-1.45469e+10
-3.25967e+10
-3.34394e+10
-3.29129e+10
-3.0543e+10
-2.83144e+10
-2.91424e+10
-2.89008e+10
-2.84084e+10
-2.81514e+10
-2.80278e+10
-2.78175e+10
-2.75216e+10
-2.72177e+10
-2.69642e+10
-2.6779e+10
-2.66175e+10
-2.64112e+10
-2.61823e+10
-2.59553e+10
-2.57284e+10
-2.54949e+10
-2.52589e+10
-2.50213e+10
-2.47853e+10
-2.45541e+10
-2.43316e+10
-2.41212e+10
-2.39255e+10
-2.37458e+10
-2.35824e+10
-2.34337e+10
-2.32979e+10
-2.31718e+10
-2.30503e+10
-2.29266e+10
-2.27929e+10
-2.26404e+10
-2.24622e+10
-2.22547e+10
-2.20209e+10
-2.1773e+10
-2.15338e+10
-2.13352e+10
-2.1216e+10
-2.12181e+10
-2.13638e+10
-2.16006e+10
-2.17474e+10
-2.15683e+10
-2.12017e+10
-2.19118e+10
-2.54722e+10
-2.87365e+10
-1.70155e+10
-3.20848e+10
-3.17391e+10
-3.10413e+10
-3.09193e+10
-2.86433e+10
-2.85363e+10
-2.88829e+10
-2.84818e+10
-2.81975e+10
-2.80651e+10
-2.78401e+10
-2.75757e+10
-2.72829e+10
-2.69921e+10
-2.67653e+10
-2.66135e+10
-2.64456e+10
-2.6228e+10
-2.59989e+10
-2.57661e+10
-2.55303e+10
-2.52907e+10
-2.50489e+10
-2.48077e+10
-2.45708e+10
-2.43426e+10
-2.41266e+10
-2.39259e+10
-2.37421e+10
-2.35758e+10
-2.34254e+10
-2.32895e+10
-2.31666e+10
-2.30494e+10
-2.29272e+10
-2.27948e+10
-2.26462e+10
-2.24752e+10
-2.22791e+10
-2.20598e+10
-2.18278e+10
-2.16041e+10
-2.14187e+10
-2.13067e+10
-2.13049e+10
-2.14362e+10
-2.16383e+10
-2.17057e+10
-2.1426e+10
-2.10996e+10
-2.2312e+10
-2.65897e+10
-2.96738e+10
-1.80616e+10
-3.22088e+10
-3.21925e+10
-3.13683e+10
-3.00827e+10
-2.86128e+10
-2.85922e+10
-2.88911e+10
-2.84338e+10
-2.82055e+10
-2.80676e+10
-2.78538e+10
-2.75785e+10
-2.72712e+10
-2.6977e+10
-2.67618e+10
-2.66232e+10
-2.64467e+10
-2.62161e+10
-2.59892e+10
-2.57563e+10
-2.55195e+10
-2.52785e+10
-2.50353e+10
-2.47928e+10
-2.45548e+10
-2.43256e+10
-2.41087e+10
-2.39074e+10
-2.37233e+10
-2.35568e+10
-2.34061e+10
-2.32688e+10
-2.31419e+10
-2.30202e+10
-2.28965e+10
-2.27631e+10
-2.26122e+10
-2.24393e+10
-2.22427e+10
-2.20243e+10
-2.17946e+10
-2.15747e+10
-2.13942e+10
-2.12874e+10
-2.12887e+10
-2.1413e+10
-2.15946e+10
-2.16302e+10
-2.1296e+10
-2.09232e+10
-2.23133e+10
-2.72455e+10
-2.97669e+10
-1.46617e+10
-3.27061e+10
-3.13918e+10
-2.95061e+10
-3.04648e+10
-2.88724e+10
-2.81552e+10
-2.81587e+10
-2.81243e+10
-2.80873e+10
-2.80122e+10
-2.78236e+10
-2.75936e+10
-2.73047e+10
-2.70006e+10
-2.67688e+10
-2.66074e+10
-2.64345e+10
-2.62229e+10
-2.60027e+10
-2.57727e+10
-2.55365e+10
-2.52949e+10
-2.50498e+10
-2.48044e+10
-2.45629e+10
-2.433e+10
-2.41103e+10
-2.39073e+10
-2.37234e+10
-2.35588e+10
-2.34101e+10
-2.32712e+10
-2.31389e+10
-2.30143e+10
-2.28892e+10
-2.27512e+10
-2.25969e+10
-2.24215e+10
-2.22243e+10
-2.20075e+10
-2.17836e+10
-2.15773e+10
-2.14219e+10
-2.13527e+10
-2.14033e+10
-2.15823e+10
-2.18122e+10
-2.18802e+10
-2.15626e+10
-2.11832e+10
-2.23103e+10
-2.64869e+10
-2.93732e+10
-1.51474e+10
-3.20689e+10
-3.17778e+10
-3.0545e+10
-2.91975e+10
-2.88276e+10
-2.85256e+10
-2.83239e+10
-2.81166e+10
-2.81081e+10
-2.80101e+10
-2.78164e+10
-2.75749e+10
-2.72911e+10
-2.69991e+10
-2.67739e+10
-2.66258e+10
-2.64455e+10
-2.62263e+10
-2.60055e+10
-2.57755e+10
-2.55387e+10
-2.52956e+10
-2.50488e+10
-2.48014e+10
-2.4558e+10
-2.4323e+10
-2.41009e+10
-2.38954e+10
-2.37089e+10
-2.35418e+10
-2.33908e+10
-2.32509e+10
-2.31184e+10
-2.29901e+10
-2.28596e+10
-2.272e+10
-2.25641e+10
-2.23876e+10
-2.21897e+10
-2.19726e+10
-2.17474e+10
-2.15379e+10
-2.13753e+10
-2.12919e+10
-2.13155e+10
-2.14474e+10
-2.16049e+10
-2.15661e+10
-2.11006e+10
-2.05749e+10
-2.17058e+10
-2.61923e+10
-2.9647e+10
-1.66716e+10
-3.1147e+10
-3.10489e+10
-3.0145e+10
-2.93246e+10
-2.90696e+10
-2.85465e+10
-2.82191e+10
-2.80405e+10
-2.79923e+10
-2.79103e+10
-2.77452e+10
-2.75498e+10
-2.73039e+10
-2.70443e+10
-2.68364e+10
-2.66716e+10
-2.64882e+10
-2.62785e+10
-2.60622e+10
-2.58356e+10
-2.55999e+10
-2.53552e+10
-2.5105e+10
-2.48535e+10
-2.46066e+10
-2.43704e+10
-2.41508e+10
-2.39524e+10
-2.37778e+10
-2.36258e+10
-2.34898e+10
-2.33568e+10
-2.32213e+10
-2.31036e+10
-2.30007e+10
-2.28631e+10
-2.26992e+10
-2.25156e+10
-2.23068e+10
-2.20782e+10
-2.18437e+10
-2.16316e+10
-2.1478e+10
-2.14173e+10
-2.14791e+10
-2.16622e+10
-2.18815e+10
-2.19307e+10
-2.15839e+10
-2.11238e+10
-2.20989e+10
-2.64223e+10
-3.06357e+10
-1.81149e+10
-3.0946e+10
-3.0508e+10
-2.97112e+10
-2.90471e+10
-2.93124e+10
-2.89695e+10
-2.834e+10
-2.80232e+10
-2.7986e+10
-2.78882e+10
-2.77308e+10
-2.75329e+10
-2.72929e+10
-2.7048e+10
-2.68509e+10
-2.66876e+10
-2.64954e+10
-2.62823e+10
-2.60642e+10
-2.58364e+10
-2.55984e+10
-2.53513e+10
-2.5098e+10
-2.48432e+10
-2.45927e+10
-2.43528e+10
-2.41291e+10
-2.39263e+10
-2.37468e+10
-2.35902e+10
-2.34518e+10
-2.33241e+10
-2.32021e+10
-2.30833e+10
-2.29601e+10
-2.28262e+10
-2.26701e+10
-2.2486e+10
-2.22785e+10
-2.20507e+10
-2.1815e+10
-2.15981e+10
-2.14348e+10
-2.1357e+10
-2.13888e+10
-2.15263e+10
-2.16828e+10
-2.16463e+10
-2.12054e+10
-2.07768e+10
-2.22761e+10
-2.75387e+10
-3.08647e+10
-1.59188e+10
-2.96822e+10
-2.96478e+10
-2.94723e+10
-2.88734e+10
-2.88966e+10
-2.8555e+10
-2.81978e+10
-2.79732e+10
-2.79063e+10
-2.7849e+10
-2.7699e+10
-2.74771e+10
-2.7254e+10
-2.70411e+10
-2.68671e+10
-2.67028e+10
-2.65179e+10
-2.63149e+10
-2.61019e+10
-2.5876e+10
-2.56367e+10
-2.53838e+10
-2.51213e+10
-2.48544e+10
-2.4592e+10
-2.43425e+10
-2.41137e+10
-2.39107e+10
-2.37356e+10
-2.35853e+10
-2.34523e+10
-2.33259e+10
-2.32013e+10
-2.30858e+10
-2.29721e+10
-2.28355e+10
-2.26686e+10
-2.24717e+10
-2.22437e+10
-2.19924e+10
-2.17355e+10
-2.15014e+10
-2.13257e+10
-2.12439e+10
-2.12827e+10
-2.14357e+10
-2.16158e+10
-2.16108e+10
-2.11696e+10
-2.05027e+10
-2.11401e+10
-2.55964e+10
-3.20622e+10
-2.38458e+10
-2.97949e+10
-2.94224e+10
-2.90315e+10
-2.8816e+10
-2.91306e+10
-2.87962e+10
-2.82979e+10
-2.79964e+10
-2.78713e+10
-2.77849e+10
-2.76563e+10
-2.74655e+10
-2.7249e+10
-2.70416e+10
-2.68688e+10
-2.67024e+10
-2.65121e+10
-2.63061e+10
-2.60904e+10
-2.5862e+10
-2.56195e+10
-2.53633e+10
-2.50968e+10
-2.48262e+10
-2.45598e+10
-2.43066e+10
-2.40742e+10
-2.38675e+10
-2.36882e+10
-2.35351e+10
-2.34046e+10
-2.32886e+10
-2.31777e+10
-2.30683e+10
-2.29541e+10
-2.28245e+10
-2.267e+10
-2.24843e+10
-2.22678e+10
-2.20273e+10
-2.17801e+10
-2.15536e+10
-2.13825e+10
-2.13031e+10
-2.13422e+10
-2.14948e+10
-2.16782e+10
-2.16851e+10
-2.12905e+10
-2.08535e+10
-2.2249e+10
-2.7581e+10
-3.16763e+10
-1.76518e+10
-2.90571e+10
-2.89316e+10
-2.88212e+10
-2.86684e+10
-2.86936e+10
-2.84776e+10
-2.81708e+10
-2.79269e+10
-2.78064e+10
-2.77584e+10
-2.76661e+10
-2.74595e+10
-2.72493e+10
-2.70716e+10
-2.69165e+10
-2.67557e+10
-2.65772e+10
-2.63836e+10
-2.6177e+10
-2.59548e+10
-2.57139e+10
-2.54536e+10
-2.51761e+10
-2.48899e+10
-2.46066e+10
-2.43389e+10
-2.40959e+10
-2.38813e+10
-2.36967e+10
-2.35397e+10
-2.34047e+10
-2.32857e+10
-2.31778e+10
-2.30733e+10
-2.29584e+10
-2.28244e+10
-2.26645e+10
-2.24727e+10
-2.22484e+10
-2.20003e+10
-2.17469e+10
-2.15166e+10
-2.13442e+10
-2.12663e+10
-2.13104e+10
-2.14714e+10
-2.16711e+10
-2.17083e+10
-2.13254e+10
-2.06819e+10
-2.12344e+10
-2.54126e+10
-3.12229e+10
-2.16773e+10
-2.91378e+10
-2.89659e+10
-2.87898e+10
-2.86382e+10
-2.87729e+10
-2.85119e+10
-2.81856e+10
-2.79756e+10
-2.78392e+10
-2.77483e+10
-2.76256e+10
-2.74417e+10
-2.72451e+10
-2.70706e+10
-2.69139e+10
-2.67503e+10
-2.65689e+10
-2.63737e+10
-2.61658e+10
-2.5942e+10
-2.56994e+10
-2.54368e+10
-2.51571e+10
-2.48684e+10
-2.45825e+10
-2.43112e+10
-2.4064e+10
-2.38464e+10
-2.36597e+10
-2.35013e+10
-2.33675e+10
-2.32521e+10
-2.31462e+10
-2.30427e+10
-2.29327e+10
-2.28054e+10
-2.26529e+10
-2.24693e+10
-2.22531e+10
-2.20123e+10
-2.17656e+10
-2.15405e+10
-2.13723e+10
-2.12985e+10
-2.13483e+10
-2.152e+10
-2.17392e+10
-2.18092e+10
-2.14944e+10
-2.1047e+10
-2.20766e+10
-2.66716e+10
-3.09033e+10
-1.75152e+10
-2.8471e+10
-2.84493e+10
-2.84289e+10
-2.84865e+10
-2.84483e+10
-2.82959e+10
-2.80649e+10
-2.78497e+10
-2.77311e+10
-2.76816e+10
-2.75676e+10
-2.73893e+10
-2.72208e+10
-2.70743e+10
-2.69307e+10
-2.67764e+10
-2.66059e+10
-2.64195e+10
-2.62173e+10
-2.59959e+10
-2.57496e+10
-2.54735e+10
-2.51685e+10
-2.48475e+10
-2.45282e+10
-2.42286e+10
-2.39601e+10
-2.37286e+10
-2.35338e+10
-2.3371e+10
-2.32347e+10
-2.31208e+10
-2.3024e+10
-2.29324e+10
-2.28313e+10
-2.27124e+10
-2.2569e+10
-2.23957e+10
-2.21924e+10
-2.19666e+10
-2.17357e+10
-2.15266e+10
-2.13737e+10
-2.13132e+10
-2.13722e+10
-2.15499e+10
-2.17804e+10
-2.18836e+10
-2.1628e+10
-2.12116e+10
-2.21099e+10
-2.62566e+10
-2.98593e+10
-1.64911e+10
-2.851e+10
-2.85175e+10
-2.86201e+10
-2.8519e+10
-2.83876e+10
-2.81881e+10
-2.8028e+10
-2.78903e+10
-2.77822e+10
-2.7681e+10
-2.75444e+10
-2.73808e+10
-2.72211e+10
-2.7076e+10
-2.69324e+10
-2.6777e+10
-2.66059e+10
-2.64195e+10
-2.62171e+10
-2.59951e+10
-2.5748e+10
-2.54706e+10
-2.51649e+10
-2.48429e+10
-2.45223e+10
-2.42202e+10
-2.3949e+10
-2.37153e+10
-2.35192e+10
-2.33566e+10
-2.32212e+10
-2.31068e+10
-2.30074e+10
-2.29126e+10
-2.28107e+10
-2.2692e+10
-2.25487e+10
-2.23752e+10
-2.21712e+10
-2.19441e+10
-2.17107e+10
-2.14976e+10
-2.13387e+10
-2.12702e+10
-2.13197e+10
-2.14868e+10
-2.17053e+10
-2.17938e+10
-2.15203e+10
-2.10791e+10
-2.19429e+10
-2.60743e+10
-2.96759e+10
-1.60009e+10
-2.80961e+10
-2.8109e+10
-2.82188e+10
-2.8368e+10
-2.83192e+10
-2.81055e+10
-2.78828e+10
-2.7718e+10
-2.76594e+10
-2.76342e+10
-2.75148e+10
-2.73621e+10
-2.72268e+10
-2.71029e+10
-2.69759e+10
-2.6836e+10
-2.6679e+10
-2.65036e+10
-2.631e+10
-2.60949e+10
-2.58497e+10
-2.55613e+10
-2.52286e+10
-2.48669e+10
-2.45053e+10
-2.4169e+10
-2.3874e+10
-2.36269e+10
-2.34257e+10
-2.32621e+10
-2.31292e+10
-2.3022e+10
-2.29288e+10
-2.28387e+10
-2.27415e+10
-2.26283e+10
-2.24909e+10
-2.2323e+10
-2.21244e+10
-2.19023e+10
-2.16728e+10
-2.14614e+10
-2.13002e+10
-2.12224e+10
-2.12518e+10
-2.13848e+10
-2.15541e+10
-2.15824e+10
-2.12418e+10
-2.07167e+10
-2.14443e+10
-2.54243e+10
-2.91975e+10
-1.60578e+10
-2.80965e+10
-2.81353e+10
-2.83865e+10
-2.84752e+10
-2.82712e+10
-2.80113e+10
-2.78824e+10
-2.77714e+10
-2.769e+10
-2.76169e+10
-2.74989e+10
-2.73615e+10
-2.72308e+10
-2.71071e+10
-2.69789e+10
-2.68379e+10
-2.66802e+10
-2.65043e+10
-2.63096e+10
-2.6093e+10
-2.58454e+10
-2.55553e+10
-2.52201e+10
-2.48567e+10
-2.4493e+10
-2.41547e+10
-2.3858e+10
-2.36092e+10
-2.34077e+10
-2.32466e+10
-2.31154e+10
-2.30063e+10
-2.29108e+10
-2.28183e+10
-2.27185e+10
-2.26025e+10
-2.24618e+10
-2.22901e+10
-2.20871e+10
-2.18603e+10
-2.16253e+10
-2.14071e+10
-2.12369e+10
-2.11465e+10
-2.11585e+10
-2.12671e+10
-2.14023e+10
-2.13814e+10
-2.09643e+10
-2.02845e+10
-2.06696e+10
-2.43449e+10
-2.92415e+10
-2.02929e+10
-2.79199e+10
-2.78749e+10
-2.79794e+10
-2.81169e+10
-2.8134e+10
-2.7934e+10
-2.77362e+10
-2.76404e+10
-2.76158e+10
-2.75644e+10
-2.74587e+10
-2.73454e+10
-2.72414e+10
-2.71406e+10
-2.70336e+10
-2.69117e+10
-2.67696e+10
-2.66056e+10
-2.6421e+10
-2.6215e+10
-2.5976e+10
-2.56801e+10
-2.53126e+10
-2.48936e+10
-2.44731e+10
-2.40925e+10
-2.37727e+10
-2.35178e+10
-2.33216e+10
-2.31716e+10
-2.30546e+10
-2.29623e+10
-2.28833e+10
-2.28052e+10
-2.27185e+10
-2.26134e+10
-2.24814e+10
-2.23176e+10
-2.21222e+10
-2.19031e+10
-2.16774e+10
-2.14708e+10
-2.13154e+10
-2.12425e+10
-2.12722e+10
-2.13937e+10
-2.1528e+10
-2.1481e+10
-2.10037e+10
-2.02312e+10
-2.05453e+10
-2.42037e+10
-2.8872e+10
-1.89378e+10
-2.78921e+10
-2.78509e+10
-2.80246e+10
-2.81879e+10
-2.80958e+10
-2.78974e+10
-2.77908e+10
-2.77013e+10
-2.76178e+10
-2.75389e+10
-2.74424e+10
-2.73394e+10
-2.72367e+10
-2.7135e+10
-2.70262e+10
-2.69033e+10
-2.6761e+10
-2.65971e+10
-2.64126e+10
-2.62066e+10
-2.59681e+10
-2.56742e+10
-2.53099e+10
-2.48953e+10
-2.44777e+10
-2.40983e+10
-2.3777e+10
-2.35186e+10
-2.33196e+10
-2.31696e+10
-2.30527e+10
-2.29596e+10
-2.28796e+10
-2.2802e+10
-2.27172e+10
-2.26147e+10
-2.24855e+10
-2.23248e+10
-2.21329e+10
-2.19179e+10
-2.16969e+10
-2.1496e+10
-2.1347e+10
-2.12818e+10
-2.13209e+10
-2.14539e+10
-2.16007e+10
-2.15625e+10
-2.10754e+10
-2.02435e+10
-2.04092e+10
-2.39597e+10
-2.87516e+10
-1.71806e+10
-2.78687e+10
-2.77697e+10
-2.77171e+10
-2.77684e+10
-2.78659e+10
-2.77888e+10
-2.76751e+10
-2.7631e+10
-2.75918e+10
-2.75124e+10
-2.74325e+10
-2.73551e+10
-2.72792e+10
-2.72027e+10
-2.71188e+10
-2.70192e+10
-2.68973e+10
-2.67506e+10
-2.65817e+10
-2.63938e+10
-2.61747e+10
-2.58813e+10
-2.54641e+10
-2.49433e+10
-2.44162e+10
-2.39647e+10
-2.36142e+10
-2.3359e+10
-2.318e+10
-2.30571e+10
-2.29724e+10
-2.29105e+10
-2.28582e+10
-2.28037e+10
-2.27371e+10
-2.26484e+10
-2.25294e+10
-2.23763e+10
-2.21915e+10
-2.19853e+10
-2.17779e+10
-2.15989e+10
-2.14842e+10
-2.14686e+10
-2.15743e+10
-2.17896e+10
-2.20288e+10
-2.20855e+10
-2.17028e+10
-2.10637e+10
-2.16698e+10
-2.56118e+10
-2.92916e+10
-1.51903e+10
-2.78061e+10
-2.76789e+10
-2.76778e+10
-2.77902e+10
-2.7863e+10
-2.78369e+10
-2.77286e+10
-2.76436e+10
-2.75722e+10
-2.75026e+10
-2.74307e+10
-2.73565e+10
-2.72809e+10
-2.7204e+10
-2.71191e+10
-2.70188e+10
-2.68966e+10
-2.67498e+10
-2.65803e+10
-2.63915e+10
-2.6172e+10
-2.58795e+10
-2.54664e+10
-2.49519e+10
-2.44317e+10
-2.39847e+10
-2.36359e+10
-2.33801e+10
-2.3201e+10
-2.30792e+10
-2.29944e+10
-2.29323e+10
-2.28802e+10
-2.28265e+10
-2.27619e+10
-2.26761e+10
-2.25606e+10
-2.24108e+10
-2.22288e+10
-2.20249e+10
-2.18191e+10
-2.16412e+10
-2.15273e+10
-2.15132e+10
-2.16227e+10
-2.18456e+10
-2.20968e+10
-2.21661e+10
-2.179e+10
-2.11573e+10
-2.17942e+10
-2.57957e+10
-2.95362e+10
-1.65917e+10
-2.7759e+10
-2.76321e+10
-2.74744e+10
-2.75024e+10
-2.76095e+10
-2.76269e+10
-2.75862e+10
-2.75356e+10
-2.74809e+10
-2.74261e+10
-2.73745e+10
-2.73264e+10
-2.72826e+10
-2.72406e+10
-2.7193e+10
-2.71306e+10
-2.7045e+10
-2.6931e+10
-2.67899e+10
-2.66295e+10
-2.64471e+10
-2.61811e+10
-2.57092e+10
-2.50191e+10
-2.43025e+10
-2.37464e+10
-2.33638e+10
-2.31179e+10
-2.29666e+10
-2.28775e+10
-2.28264e+10
-2.27936e+10
-2.27641e+10
-2.27265e+10
-2.26705e+10
-2.25858e+10
-2.24643e+10
-2.23024e+10
-2.2103e+10
-2.18781e+10
-2.16502e+10
-2.14519e+10
-2.13227e+10
-2.13016e+10
-2.14136e+10
-2.16484e+10
-2.19171e+10
-2.20079e+10
-2.16829e+10
-2.12062e+10
-2.2151e+10
-2.65195e+10
-3.06394e+10
-1.7843e+10
-2.76511e+10
-2.7522e+10
-2.74625e+10
-2.75333e+10
-2.76655e+10
-2.76696e+10
-2.75757e+10
-2.75229e+10
-2.74754e+10
-2.7423e+10
-2.73723e+10
-2.73251e+10
-2.72806e+10
-2.7237e+10
-2.71873e+10
-2.71232e+10
-2.70366e+10
-2.69221e+10
-2.67801e+10
-2.66189e+10
-2.64364e+10
-2.61709e+10
-2.57003e+10
-2.50139e+10
-2.43004e+10
-2.37457e+10
-2.33621e+10
-2.31164e+10
-2.29679e+10
-2.28827e+10
-2.28352e+10
-2.28057e+10
-2.27794e+10
-2.27448e+10
-2.26918e+10
-2.26103e+10
-2.24917e+10
-2.23319e+10
-2.21334e+10
-2.19075e+10
-2.16762e+10
-2.14718e+10
-2.13339e+10
-2.13013e+10
-2.14002e+10
-2.1621e+10
-2.18747e+10
-2.19452e+10
-2.15836e+10
-2.10425e+10
-2.19119e+10
-2.63773e+10
-3.13903e+10
-2.04159e+10
-2.75557e+10
-2.74494e+10
-2.73805e+10
-2.74224e+10
-2.74744e+10
-2.74992e+10
-2.74924e+10
-2.74633e+10
-2.74269e+10
-2.73924e+10
-2.73652e+10
-2.73488e+10
-2.73411e+10
-2.73363e+10
-2.73241e+10
-2.7293e+10
-2.72329e+10
-2.7138e+10
-2.70088e+10
-2.68597e+10
-2.67168e+10
-2.65273e+10
-2.60586e+10
-2.51233e+10
-2.40901e+10
-2.34182e+10
-2.30452e+10
-2.28454e+10
-2.27546e+10
-2.27219e+10
-2.27176e+10
-2.2722e+10
-2.27221e+10
-2.27078e+10
-2.26696e+10
-2.2598e+10
-2.2485e+10
-2.23264e+10
-2.21249e+10
-2.18916e+10
-2.16481e+10
-2.1426e+10
-2.12634e+10
-2.11978e+10
-2.12534e+10
-2.14193e+10
-2.16079e+10
-2.16163e+10
-2.12404e+10
-2.07995e+10
-2.18352e+10
-2.61813e+10
-3.09051e+10
-2.08355e+10
-2.74668e+10
-2.74267e+10
-2.74472e+10
-2.7502e+10
-2.75397e+10
-2.75176e+10
-2.74942e+10
-2.74707e+10
-2.74389e+10
-2.7405e+10
-2.73764e+10
-2.73578e+10
-2.73478e+10
-2.73401e+10
-2.73252e+10
-2.72918e+10
-2.72307e+10
-2.71349e+10
-2.70043e+10
-2.68541e+10
-2.67107e+10
-2.65233e+10
-2.60641e+10
-2.51445e+10
-2.41284e+10
-2.34551e+10
-2.30692e+10
-2.28568e+10
-2.27566e+10
-2.27171e+10
-2.27076e+10
-2.2708e+10
-2.27051e+10
-2.26885e+10
-2.26487e+10
-2.25758e+10
-2.24617e+10
-2.23023e+10
-2.21e+10
-2.18662e+10
-2.16223e+10
-2.14002e+10
-2.12384e+10
-2.11744e+10
-2.12328e+10
-2.14029e+10
-2.15952e+10
-2.16005e+10
-2.1201e+10
-2.06876e+10
-2.15672e+10
-2.58837e+10
-3.12573e+10
-2.22603e+10
-2.72927e+10
-2.72117e+10
-2.72783e+10
-2.73248e+10
-2.73277e+10
-2.73215e+10
-2.73185e+10
-2.73095e+10
-2.72948e+10
-2.72821e+10
-2.72789e+10
-2.72918e+10
-2.73198e+10
-2.73527e+10
-2.7373e+10
-2.73653e+10
-2.73225e+10
-2.72477e+10
-2.71519e+10
-2.70469e+10
-2.69866e+10
-2.69924e+10
-2.67411e+10
-2.54682e+10
-2.37819e+10
-2.28622e+10
-2.2502e+10
-2.23873e+10
-2.2402e+10
-2.24539e+10
-2.25102e+10
-2.2557e+10
-2.25881e+10
-2.25979e+10
-2.25799e+10
-2.25268e+10
-2.24319e+10
-2.22922e+10
-2.21107e+10
-2.18987e+10
-2.16765e+10
-2.14735e+10
-2.13243e+10
-2.12632e+10
-2.13117e+10
-2.14579e+10
-2.16172e+10
-2.15988e+10
-2.12304e+10
-2.09089e+10
-2.2291e+10
-2.69529e+10
-2.98304e+10
-1.57207e+10
-2.72575e+10
-2.72742e+10
-2.73522e+10
-2.73884e+10
-2.73684e+10
-2.73447e+10
-2.73363e+10
-2.73249e+10
-2.73096e+10
-2.72952e+10
-2.72891e+10
-2.72977e+10
-2.73206e+10
-2.73477e+10
-2.73631e+10
-2.73522e+10
-2.73085e+10
-2.72338e+10
-2.71338e+10
-2.70225e+10
-2.6957e+10
-2.69729e+10
-2.67397e+10
-2.55058e+10
-2.38351e+10
-2.29276e+10
-2.25649e+10
-2.24436e+10
-2.24517e+10
-2.24977e+10
-2.25493e+10
-2.25923e+10
-2.26203e+10
-2.26272e+10
-2.26067e+10
-2.25515e+10
-2.24551e+10
-2.23144e+10
-2.21324e+10
-2.19205e+10
-2.16995e+10
-2.14992e+10
-2.13552e+10
-2.13017e+10
-2.13595e+10
-2.15149e+10
-2.16784e+10
-2.16496e+10
-2.12402e+10
-2.08329e+10
-2.21207e+10
-2.6744e+10
-2.95214e+10
-1.50143e+10
-2.71616e+10
-2.71253e+10
-2.72134e+10
-2.7241e+10
-2.72439e+10
-2.72402e+10
-2.72415e+10
-2.7245e+10
-2.72527e+10
-2.72696e+10
-2.73039e+10
-2.73645e+10
-2.74515e+10
-2.75484e+10
-2.76225e+10
-2.76575e+10
-2.76546e+10
-2.76395e+10
-2.76567e+10
-2.76599e+10
-2.76877e+10
-2.78841e+10
-2.82708e+10
-2.70576e+10
-2.42697e+10
-2.19182e+10
-2.17507e+10
-2.19208e+10
-2.2115e+10
-2.22637e+10
-2.23715e+10
-2.2446e+10
-2.24924e+10
-2.25104e+10
-2.24962e+10
-2.2444e+10
-2.23489e+10
-2.2209e+10
-2.20284e+10
-2.18195e+10
-2.16035e+10
-2.14103e+10
-2.1275e+10
-2.12317e+10
-2.13023e+10
-2.14766e+10
-2.16746e+10
-2.17143e+10
-2.14283e+10
-2.11741e+10
-2.24422e+10
-2.66034e+10
-2.94751e+10
-1.52123e+10
-2.71465e+10
-2.7169e+10
-2.72425e+10
-2.726e+10
-2.72549e+10
-2.72527e+10
-2.72551e+10
-2.72593e+10
-2.72672e+10
-2.72837e+10
-2.73166e+10
-2.7374e+10
-2.7456e+10
-2.75468e+10
-2.76188e+10
-2.7654e+10
-2.76553e+10
-2.76437e+10
-2.76368e+10
-2.76245e+10
-2.76583e+10
-2.79296e+10
-2.83592e+10
-2.72102e+10
-2.44006e+10
-2.19031e+10
-2.17551e+10
-2.19265e+10
-2.21194e+10
-2.22654e+10
-2.23707e+10
-2.24433e+10
-2.24878e+10
-2.25034e+10
-2.24868e+10
-2.24323e+10
-2.23346e+10
-2.21919e+10
-2.20079e+10
-2.17945e+10
-2.15727e+10
-2.13721e+10
-2.12276e+10
-2.1172e+10
-2.12245e+10
-2.13706e+10
-2.15225e+10
-2.14826e+10
-2.10595e+10
-2.06002e+10
-2.16575e+10
-2.58645e+10
-2.93578e+10
-1.80622e+10
-2.71706e+10
-2.7198e+10
-2.72379e+10
-2.72494e+10
-2.72511e+10
-2.72507e+10
-2.72494e+10
-2.72488e+10
-2.72524e+10
-2.72658e+10
-2.7298e+10
-2.7362e+10
-2.74613e+10
-2.75785e+10
-2.76619e+10
-2.76977e+10
-2.76983e+10
-2.76917e+10
-2.77251e+10
-2.77604e+10
-2.7813e+10
-2.81135e+10
-2.87778e+10
-2.9054e+10
-2.7034e+10
-1.92377e+10
-2.05025e+10
-2.13605e+10
-2.18498e+10
-2.21261e+10
-2.2298e+10
-2.24059e+10
-2.24704e+10
-2.24974e+10
-2.24858e+10
-2.24314e+10
-2.23298e+10
-2.21797e+10
-2.19858e+10
-2.17611e+10
-2.15279e+10
-2.13177e+10
-2.11668e+10
-2.11103e+10
-2.11707e+10
-2.13386e+10
-2.15358e+10
-2.158e+10
-2.12787e+10
-2.09082e+10
-2.19231e+10
-2.61354e+10
-3.0713e+10
-2.06581e+10
-2.71675e+10
-2.72071e+10
-2.72341e+10
-2.72399e+10
-2.72387e+10
-2.72384e+10
-2.72368e+10
-2.72372e+10
-2.72428e+10
-2.72592e+10
-2.72954e+10
-2.73616e+10
-2.74587e+10
-2.75659e+10
-2.76474e+10
-2.7686e+10
-2.76889e+10
-2.7685e+10
-2.76984e+10
-2.77223e+10
-2.78018e+10
-2.82301e+10
-2.8842e+10
-2.92192e+10
-2.77208e+10
-1.91785e+10
-2.04878e+10
-2.13515e+10
-2.18315e+10
-2.20989e+10
-2.22639e+10
-2.2366e+10
-2.24257e+10
-2.2449e+10
-2.24352e+10
-2.23799e+10
-2.22784e+10
-2.21294e+10
-2.1937e+10
-2.17135e+10
-2.14806e+10
-2.12686e+10
-2.11134e+10
-2.10483e+10
-2.10938e+10
-2.12368e+10
-2.13938e+10
-2.13721e+10
-2.0983e+10
-2.06272e+10
-2.21448e+10
-2.73318e+10
-3.03309e+10
-1.53386e+10
-2.71613e+10
-2.72107e+10
-2.72268e+10
-2.72416e+10
-2.72514e+10
-2.72581e+10
-2.72613e+10
-2.72642e+10
-2.72696e+10
-2.72828e+10
-2.73129e+10
-2.73765e+10
-2.74783e+10
-2.75883e+10
-2.76668e+10
-2.76953e+10
-2.76901e+10
-2.76864e+10
-2.76988e+10
-2.77506e+10
-2.78378e+10
-2.80785e+10
-2.89925e+10
-2.8942e+10
-1.69924e+10
-2.03318e+10
-2.12325e+10
-2.17577e+10
-2.20578e+10
-2.22434e+10
-2.2359e+10
-2.24276e+10
-2.24569e+10
-2.24466e+10
-2.23927e+10
-2.2291e+10
-2.21404e+10
-2.19458e+10
-2.17204e+10
-2.14876e+10
-2.12791e+10
-2.11311e+10
-2.10778e+10
-2.1141e+10
-2.13104e+10
-2.15062e+10
-2.15397e+10
-2.11907e+10
-2.06596e+10
-2.13362e+10
-2.52935e+10
-3.0461e+10
-2.18296e+10
-2.71686e+10
-2.72022e+10
-2.72128e+10
-2.72227e+10
-2.72314e+10
-2.72387e+10
-2.72429e+10
-2.72466e+10
-2.72532e+10
-2.72689e+10
-2.73031e+10
-2.73671e+10
-2.74621e+10
-2.75681e+10
-2.7653e+10
-2.76962e+10
-2.7699e+10
-2.76891e+10
-2.76896e+10
-2.77134e+10
-2.78029e+10
-2.82312e+10
-2.90567e+10
-2.91466e+10
-1.67322e+10
-2.03493e+10
-2.12325e+10
-2.17397e+10
-2.20287e+10
-2.22086e+10
-2.23211e+10
-2.23889e+10
-2.24192e+10
-2.24117e+10
-2.23624e+10
-2.2267e+10
-2.21235e+10
-2.19363e+10
-2.17175e+10
-2.14891e+10
-2.12815e+10
-2.11296e+10
-2.10665e+10
-2.11127e+10
-2.12563e+10
-2.14164e+10
-2.14035e+10
-2.10206e+10
-2.06133e+10
-2.18737e+10
-2.66632e+10
-3.02352e+10
-1.6228e+10
-2.71545e+10
-2.71625e+10
-2.71746e+10
-2.71868e+10
-2.71978e+10
-2.72055e+10
-2.72096e+10
-2.72114e+10
-2.7214e+10
-2.72227e+10
-2.72459e+10
-2.72948e+10
-2.7373e+10
-2.74652e+10
-2.75434e+10
-2.75843e+10
-2.75867e+10
-2.75859e+10
-2.76e+10
-2.76425e+10
-2.77084e+10
-2.79173e+10
-2.83385e+10
-2.82535e+10
-2.39254e+10
-2.13472e+10
-2.13235e+10
-2.16328e+10
-2.19176e+10
-2.21169e+10
-2.22492e+10
-2.2334e+10
-2.23826e+10
-2.23978e+10
-2.23772e+10
-2.23155e+10
-2.22076e+10
-2.20519e+10
-2.18526e+10
-2.16231e+10
-2.13866e+10
-2.11746e+10
-2.10223e+10
-2.09631e+10
-2.10194e+10
-2.11826e+10
-2.13762e+10
-2.1418e+10
-2.11034e+10
-2.06897e+10
-2.166e+10
-2.59081e+10
-2.94045e+10
-1.60028e+10
-2.71647e+10
-2.71602e+10
-2.71721e+10
-2.71831e+10
-2.71945e+10
-2.72037e+10
-2.72103e+10
-2.72149e+10
-2.72199e+10
-2.72307e+10
-2.72556e+10
-2.73038e+10
-2.7378e+10
-2.74665e+10
-2.75472e+10
-2.7601e+10
-2.76232e+10
-2.76287e+10
-2.76223e+10
-2.7608e+10
-2.7662e+10
-2.79696e+10
-2.8279e+10
-2.80306e+10
-2.40985e+10
-2.14152e+10
-2.13537e+10
-2.16258e+10
-2.18917e+10
-2.20815e+10
-2.22094e+10
-2.22919e+10
-2.23397e+10
-2.23557e+10
-2.23373e+10
-2.22791e+10
-2.21757e+10
-2.20245e+10
-2.18289e+10
-2.1601e+10
-2.13625e+10
-2.11425e+10
-2.09742e+10
-2.08889e+10
-2.09064e+10
-2.10164e+10
-2.1142e+10
-2.11021e+10
-2.06999e+10
-2.02215e+10
-2.11979e+10
-2.54808e+10
-2.92145e+10
-1.58226e+10
-2.71447e+10
-2.71265e+10
-2.71343e+10
-2.71402e+10
-2.71466e+10
-2.71503e+10
-2.71503e+10
-2.71458e+10
-2.71384e+10
-2.71317e+10
-2.71307e+10
-2.71409e+10
-2.71634e+10
-2.71915e+10
-2.72126e+10
-2.7214e+10
-2.71877e+10
-2.71338e+10
-2.70548e+10
-2.69682e+10
-2.69218e+10
-2.69482e+10
-2.67226e+10
-2.54609e+10
-2.37781e+10
-2.27523e+10
-2.23585e+10
-2.22363e+10
-2.22469e+10
-2.22893e+10
-2.23331e+10
-2.23654e+10
-2.23808e+10
-2.23736e+10
-2.23367e+10
-2.2262e+10
-2.21426e+10
-2.19751e+10
-2.17628e+10
-2.15183e+10
-2.1264e+10
-2.10301e+10
-2.08504e+10
-2.0757e+10
-2.07727e+10
-2.08914e+10
-2.10427e+10
-2.1056e+10
-2.07418e+10
-2.03559e+10
-2.12918e+10
-2.5219e+10
-2.859e+10
-1.52084e+10
-2.7146e+10
-2.71284e+10
-2.7136e+10
-2.71424e+10
-2.71494e+10
-2.7154e+10
-2.71553e+10
-2.71525e+10
-2.71465e+10
-2.71404e+10
-2.7139e+10
-2.71474e+10
-2.71668e+10
-2.71918e+10
-2.72109e+10
-2.72122e+10
-2.71883e+10
-2.71366e+10
-2.70551e+10
-2.69603e+10
-2.69176e+10
-2.69593e+10
-2.67093e+10
-2.54538e+10
-2.37426e+10
-2.2724e+10
-2.23284e+10
-2.22082e+10
-2.22245e+10
-2.22728e+10
-2.23212e+10
-2.23562e+10
-2.23728e+10
-2.23657e+10
-2.23281e+10
-2.2252e+10
-2.21302e+10
-2.1959e+10
-2.17415e+10
-2.14895e+10
-2.12241e+10
-2.09737e+10
-2.07698e+10
-2.06421e+10
-2.06096e+10
-2.06624e+10
-2.07268e+10
-2.06274e+10
-2.0163e+10
-1.95483e+10
-2.01438e+10
-2.39455e+10
-2.84492e+10
-1.73426e+10
-2.71147e+10
-2.7099e+10
-2.71038e+10
-2.7108e+10
-2.71141e+10
-2.71187e+10
-2.71205e+10
-2.71183e+10
-2.71125e+10
-2.71049e+10
-2.70981e+10
-2.7094e+10
-2.7092e+10
-2.70883e+10
-2.70766e+10
-2.70493e+10
-2.69987e+10
-2.69161e+10
-2.67967e+10
-2.66514e+10
-2.65034e+10
-2.63076e+10
-2.58464e+10
-2.49467e+10
-2.3946e+10
-2.32483e+10
-2.28325e+10
-2.25982e+10
-2.24854e+10
-2.24373e+10
-2.24206e+10
-2.24145e+10
-2.24056e+10
-2.2383e+10
-2.23364e+10
-2.22554e+10
-2.21313e+10
-2.19595e+10
-2.17427e+10
-2.14929e+10
-2.12317e+10
-2.09885e+10
-2.07954e+10
-2.06825e+10
-2.067e+10
-2.07518e+10
-2.08607e+10
-2.08335e+10
-2.04869e+10
-2.00534e+10
-2.08689e+10
-2.45781e+10
-2.78701e+10
-1.51561e+10
-2.71197e+10
-2.7104e+10
-2.71096e+10
-2.71149e+10
-2.71221e+10
-2.71278e+10
-2.71309e+10
-2.71303e+10
-2.71262e+10
-2.712e+10
-2.71143e+10
-2.71109e+10
-2.71098e+10
-2.71074e+10
-2.70971e+10
-2.70712e+10
-2.70216e+10
-2.694e+10
-2.68215e+10
-2.6679e+10
-2.65372e+10
-2.63437e+10
-2.58735e+10
-2.49516e+10
-2.39286e+10
-2.32265e+10
-2.28188e+10
-2.25963e+10
-2.24933e+10
-2.24522e+10
-2.24397e+10
-2.2435e+10
-2.24251e+10
-2.23991e+10
-2.23468e+10
-2.22577e+10
-2.21232e+10
-2.19388e+10
-2.17075e+10
-2.14412e+10
-2.11615e+10
-2.08971e+10
-2.06793e+10
-2.05362e+10
-2.04845e+10
-2.05124e+10
-2.05455e+10
-2.04079e+10
-1.98835e+10
-1.91085e+10
-1.93058e+10
-2.26112e+10
-2.76195e+10
-1.79285e+10
-2.70752e+10
-2.70625e+10
-2.70624e+10
-2.70629e+10
-2.7065e+10
-2.70657e+10
-2.70636e+10
-2.70576e+10
-2.70474e+10
-2.70342e+10
-2.70192e+10
-2.7003e+10
-2.6984e+10
-2.69598e+10
-2.69269e+10
-2.68796e+10
-2.68111e+10
-2.67138e+10
-2.65834e+10
-2.64233e+10
-2.62284e+10
-2.59425e+10
-2.5459e+10
-2.47716e+10
-2.40604e+10
-2.34932e+10
-2.30932e+10
-2.2831e+10
-2.26708e+10
-2.2578e+10
-2.2526e+10
-2.2495e+10
-2.24699e+10
-2.24377e+10
-2.2386e+10
-2.23032e+10
-2.21796e+10
-2.20103e+10
-2.17979e+10
-2.15552e+10
-2.13046e+10
-2.1076e+10
-2.09015e+10
-2.08099e+10
-2.08194e+10
-2.09223e+10
-2.10504e+10
-2.10368e+10
-2.06898e+10
-2.0228e+10
-2.09692e+10
-2.46035e+10
-2.79911e+10
-1.53263e+10
-2.7076e+10
-2.70616e+10
-2.70609e+10
-2.7061e+10
-2.70624e+10
-2.70623e+10
-2.70596e+10
-2.70531e+10
-2.70426e+10
-2.70289e+10
-2.70135e+10
-2.69969e+10
-2.69783e+10
-2.69552e+10
-2.69236e+10
-2.68779e+10
-2.6811e+10
-2.6716e+10
-2.65897e+10
-2.64359e+10
-2.62495e+10
-2.59709e+10
-2.54888e+10
-2.47994e+10
-2.40829e+10
-2.3515e+10
-2.31172e+10
-2.28589e+10
-2.27015e+10
-2.26107e+10
-2.25595e+10
-2.25278e+10
-2.25e+10
-2.24629e+10
-2.24038e+10
-2.23111e+10
-2.21753e+10
-2.1992e+10
-2.17647e+10
-2.15066e+10
-2.1241e+10
-2.09985e+10
-2.08118e+10
-2.07091e+10
-2.07062e+10
-2.07901e+10
-2.08836e+10
-2.08028e+10
-2.03148e+10
-1.95478e+10
-1.977e+10
-2.31708e+10
-2.77196e+10
-1.68615e+10
-2.70522e+10
-2.70394e+10
-2.70397e+10
-2.70399e+10
-2.70415e+10
-2.70416e+10
-2.70387e+10
-2.70315e+10
-2.70191e+10
-2.70023e+10
-2.69817e+10
-2.69569e+10
-2.6926e+10
-2.68869e+10
-2.68368e+10
-2.67718e+10
-2.66858e+10
-2.65726e+10
-2.6429e+10
-2.62528e+10
-2.60297e+10
-2.57171e+10
-2.52721e+10
-2.47211e+10
-2.41637e+10
-2.36857e+10
-2.33155e+10
-2.30491e+10
-2.28679e+10
-2.27496e+10
-2.26738e+10
-2.26231e+10
-2.25826e+10
-2.25385e+10
-2.24773e+10
-2.23866e+10
-2.22559e+10
-2.20801e+10
-2.18622e+10
-2.16157e+10
-2.13645e+10
-2.11392e+10
-2.09724e+10
-2.0893e+10
-2.09193e+10
-2.10424e+10
-2.11902e+10
-2.11858e+10
-2.0828e+10
-2.03638e+10
-2.12173e+10
-2.51666e+10
-2.88909e+10
-1.70963e+10
-2.70549e+10
-2.70393e+10
-2.70392e+10
-2.70387e+10
-2.70394e+10
-2.70383e+10
-2.7034e+10
-2.70253e+10
-2.70116e+10
-2.69933e+10
-2.69711e+10
-2.69451e+10
-2.69139e+10
-2.68752e+10
-2.68261e+10
-2.6762e+10
-2.66774e+10
-2.65664e+10
-2.64261e+10
-2.6255e+10
-2.60381e+10
-2.57301e+10
-2.52877e+10
-2.47358e+10
-2.41783e+10
-2.37009e+10
-2.33326e+10
-2.30684e+10
-2.28883e+10
-2.27701e+10
-2.26933e+10
-2.26402e+10
-2.25959e+10
-2.25465e+10
-2.24783e+10
-2.23787e+10
-2.22376e+10
-2.20506e+10
-2.18211e+10
-2.15634e+10
-2.13021e+10
-2.10688e+10
-2.08971e+10
-2.08156e+10
-2.08407e+10
-2.096e+10
-2.10941e+10
-2.10527e+10
-2.06135e+10
-2.00441e+10