/*--------------------------------*- C++ -*----------------------------------*\
| =========                 |                                                 |
| \\      /  F ield         | OpenFOAM: The Open Source CFD Toolbox           |
|  \\    /   O peration     | Version:  4.1                                   |
|   \\  /    A nd           | Web:      www.OpenFOAM.org                      |
|    \\/     M anipulation  |                                                 |
\*---------------------------------------------------------------------------*/
FoamFile
{
    version     2.0;
    format      ascii;
    class       volVectorField;
    location    "39";
    object      U;
}
// * * * * * * * * * * * * * * * * * * * * * * * * * * * * * * * * * * * * * //

dimensions      [0 1 -1 0 0 0 0];

internalField   nonuniform List<vector> 
4432
(
(-189693 -5025.72 -14098.9)
(-186216 -1084.92 -4454.55)
(-174335 1084.79 -242.335)
(-165907 -2297.14 -4592.28)
(-167473 -1336.16 -3560.41)
(-164949 -1032.86 -2098.68)
(-161346 -1222.08 -2727.56)
(-159525 -1155.57 -2696.95)
(-157959 -1192.14 -2792.9)
(-156632 -1266.13 -2898.77)
(-155367 -1335.07 -2986.82)
(-154225 -1358.69 -3097.73)
(-153149 -1359.08 -3208.18)
(-152166 -1368.9 -3296.67)
(-151258 -1385.57 -3365.65)
(-150281 -1395.54 -3477.11)
(-149204 -1392.62 -3645.01)
(-148084 -1384.58 -3818.48)
(-146917 -1381.92 -4005.08)
(-145670 -1376.84 -4187.55)
(-144330 -1370.99 -4374.53)
(-142897 -1363.07 -4554.66)
(-141375 -1354.46 -4725.94)
(-139783 -1345.43 -4883.1)
(-138147 -1336.66 -5022.52)
(-136494 -1328.19 -5141.24)
(-134854 -1319.77 -5236.18)
(-133255 -1311.33 -5306.41)
(-131721 -1302.57 -5351.79)
(-130268 -1293.59 -5374.65)
(-128911 -1284.41 -5377.92)
(-127662 -1275.49 -5365.21)
(-126529 -1267.03 -5342.83)
(-125522 -1260.7 -5313.83)
(-124638 -1259.36 -5270.86)
(-123875 -1265.07 -5208.22)
(-123238 -1278.87 -5125.44)
(-122726 -1302.11 -5021.11)
(-122337 -1335.51 -4895.85)
(-122067 -1378.7 -4748.07)
(-121927 -1431.37 -4558.51)
(-121932 -1494.98 -4300.09)
(-122104 -1571.29 -3934.26)
(-122510 -1660.66 -3403.03)
(-123344 -1757.54 -2616.3)
(-124962 -1849.73 -1468.31)
(-127716 -1905.04 217.513)
(-131314 -1875.2 2704.53)
(-134340 -1693.58 6321.82)
(-137734 -1218.76 11205.9)
(-153064 -924.151 19427.7)
(-202099 -59.3394 24083)
(-240686 -6245.56 47657)
(-191544 -4194.19 61684.7)
(-203124 -2569.46 -9301.3)
(-197038 1168.66 -5610.09)
(-192404 3158.66 -3938.68)
(-186222 77.7588 -3561.37)
(-184726 981.801 -3622.88)
(-183562 1256.89 -2569.08)
(-180676 1095.64 -2947.47)
(-179058 1168.06 -2878.31)
(-177901 1144.92 -2943.51)
(-176851 1089.99 -2937.27)
(-175778 1039.25 -2955.6)
(-174788 1028.61 -3012.46)
(-173893 1038.96 -3075.73)
(-173090 1042.3 -3109.49)
(-172323 1041.17 -3137.67)
(-171463 1047.59 -3224.33)
(-170503 1067.14 -3354.19)
(-169504 1093.33 -3479.17)
(-168448 1117.4 -3618.69)
(-167300 1146.34 -3755.59)
(-166055 1178.94 -3896.95)
(-164716 1216.63 -4034.32)
(-163288 1258.24 -4165.78)
(-161788 1303.71 -4288)
(-160238 1352.3 -4398.79)
(-158664 1403.98 -4496.84)
(-157092 1458.61 -4581.42)
(-155547 1516.17 -4653.26)
(-154053 1576.41 -4714.29)
(-152626 1639.03 -4767.79)
(-151285 1703.62 -4817.74)
(-150043 1769.48 -4866.95)
(-148916 1836.39 -4918.65)
(-147926 1904.19 -4974.3)
(-147088 1972.08 -5033.54)
(-146423 2039.24 -5096.16)
(-145951 2105.81 -5163.51)
(-145696 2171.92 -5237.81)
(-145685 2238.81 -5321.1)
(-145948 2308.98 -5411.13)
(-146529 2385.01 -5501.18)
(-147476 2469.09 -5582.8)
(-148852 2564.13 -5636.45)
(-150763 2673.4 -5620.39)
(-153444 2806.03 -5469.09)
(-157301 2978.85 -5089.55)
(-162759 3224.34 -4338.31)
(-169765 3599.29 -3059.36)
(-177255 4169.99 -791.509)
(-187436 5025.44 2511.04)
(-211030 5924.45 8051.3)
(-276974 7030.17 14854.7)
(-349046 -1690.25 30416.7)
(-358328 -20709.1 66427.2)
(-211561 -850.885 -15722.2)
(-209026 -1556.43 -7826.29)
(-209392 -1745.64 -2330.63)
(-207244 -574.496 -4858.64)
(-205363 -750.748 -3334.73)
(-206085 -709.577 -1084.73)
(-205425 -689.488 -389.091)
(-204650 -597.003 206.684)
(-204463 -602.928 472.516)
(-204301 -568.888 653.654)
(-204137 -567.071 769.816)
(-204053 -547.162 820.787)
(-203980 -515.894 863.347)
(-203978 -482.279 920.899)
(-204115 -462.773 980.083)
(-204306 -455.989 1017.54)
(-204452 -434.091 1019.02)
(-204604 -399.042 1007.72)
(-204785 -368.791 977.008)
(-204986 -335.751 947.186)
(-205207 -300.466 916.545)
(-205447 -262.593 897.087)
(-205711 -222.234 891.932)
(-206008 -179.719 906.774)
(-206348 -135.251 944.533)
(-206734 -88.8036 1007.51)
(-207177 -40.4538 1096.66)
(-207672 9.86474 1209.94)
(-208219 62.0295 1343.98)
(-208807 116.139 1492.41)
(-209427 172.22 1649.49)
(-210064 231.315 1812.88)
(-210701 296.185 1982.92)
(-211307 368.66 2155.2)
(-211856 445.089 2327)
(-212328 522.814 2499.35)
(-212694 601.864 2666.82)
(-212910 682.42 2824.8)
(-212947 766.147 2971.25)
(-212780 854.584 3107.96)
(-212355 945.43 3231.53)
(-211609 1036.61 3338.37)
(-210469 1128.71 3425.72)
(-208866 1223.86 3494.51)
(-206777 1325.27 3554.03)
(-204202 1447.44 3609.92)
(-201049 1600.11 3665.44)
(-196733 1774.63 3769.33)
(-190553 2087.83 4092.52)
(-182459 2532.24 4975.8)
(-181003 2900.82 5942.31)
(-167049 5000.09 3598.63)
(-188263 3547.29 660.247)
(29636.9 -7569.11 4612.96)
(-232660 1684.42 -10520.1)
(-230648 889.184 -6603.08)
(-229460 691.339 -4447.11)
(-227538 1716.09 -2769.18)
(-226793 1491.18 -2656.81)
(-227279 1499.59 -1089.07)
(-226657 1486.98 -512.775)
(-225968 1539.6 -78.9261)
(-225849 1504.2 76.2929)
(-225682 1507.62 245.215)
(-225528 1483.88 348.661)
(-225397 1478.14 382.963)
(-225282 1483.82 385.007)
(-225246 1492.61 398.087)
(-225337 1489.49 415.464)
(-225442 1475.64 394.078)
(-225474 1476.32 343.631)
(-225518 1489.88 282.929)
(-225588 1500.47 209.202)
(-225657 1515.29 136.421)
(-225733 1534.29 64.9023)
(-225812 1558.27 4.49184)
(-225902 1587.73 -39.6909)
(-226008 1623.03 -62.6702)
(-226139 1664.65 -60.2182)
(-226299 1713.36 -29.8587)
(-226494 1769.62 29.8555)
(-226722 1834.15 117.522)
(-226982 1907.27 230.033)
(-227261 1989.5 361.687)
(-227552 2081.06 507.023)
(-227837 2183.05 662.91)
(-228102 2298.03 827.828)
(-228327 2427.58 999.894)
(-228490 2568.16 1178.17)
(-228572 2717.12 1360.38)
(-228568 2874.41 1543.11)
(-228474 3039.73 1720.89)
(-228260 3213.52 1884.41)
(-227882 3396.07 2026.25)
(-227284 3584.22 2143.93)
(-226412 3774.83 2238.62)
(-225211 3967.39 2310.42)
(-223624 4162.53 2364.5)
(-221632 4361.61 2419.02)
(-219238 4576 2496.88)
(-216344 4809.95 2624.47)
(-212351 5061.68 2903.63)
(-206621 5424.95 3519.1)
(-198000 5929.51 4846.74)
(-193930 6433.62 6526.58)
(-187568 8235.36 4427.19)
(-145975 -8332.16 7722.38)
(-2565.09 -7035.24 3442.75)
(-193264 -1822.83 -15059.6)
(-182754 -1730.86 -12014.4)
(-181431 -2880.77 -11033.3)
(-178862 -878.598 -7808.9)
(-175192 -1331.7 -7837.92)
(-173887 -1573.55 -6746.11)
(-172752 -1675.06 -5477.35)
(-171880 -1606.8 -4762.91)
(-171131 -1626.39 -4259.61)
(-170305 -1573 -3810.74)
(-169487 -1532.7 -3508.58)
(-168702 -1472.39 -3322.26)
(-167881 -1428.59 -3220.51)
(-167138 -1399.32 -3196.27)
(-166521 -1373.53 -3235.97)
(-165907 -1367.61 -3283.76)
(-165209 -1345.38 -3336.44)
(-164471 -1316.67 -3420.36)
(-163692 -1286.8 -3529.45)
(-162846 -1254.91 -3657.64)
(-161937 -1220.3 -3790.29)
(-160967 -1183.54 -3916.88)
(-159949 -1143.59 -4023.22)
(-158905 -1101.87 -4100.35)
(-157864 -1057.92 -4140.23)
(-156854 -1012.31 -4139.64)
(-155908 -964.78 -4099.37)
(-155052 -915.177 -4026.37)
(-154310 -863.47 -3930.24)
(-153694 -809.37 -3822.64)
(-153209 -752.409 -3711.06)
(-152847 -693.311 -3588.52)
(-152616 -633.556 -3439.91)
(-152515 -569.148 -3291.32)
(-152535 -496.365 -3172.28)
(-152675 -416.59 -3034.86)
(-152925 -328.354 -2880.6)
(-153281 -236.094 -2714.54)
(-153699 -143.435 -2534.78)
(-154113 -53.051 -2343.94)
(-154483 36.1372 -2140.92)
(-154763 127.614 -1924.96)
(-154893 228.503 -1700.4)
(-154823 350.071 -1470.64)
(-154550 511.81 -1240.31)
(-154122 750.187 -992.908)
(-153486 1116.08 -694.852)
(-152045 1728.69 -249.979)
(-148406 2613.03 673.523)
(-143399 4136.97 2890.27)
(-145618 5261.61 6883.67)
(-178107 5271.58 19846.9)
(-197261 -9229.11 26145)
(-137972 -3667.4 8065.54)
(-205734 2406.66 -13600.2)
(-200441 2316.78 -8849.48)
(-196932 1202.8 -7224.24)
(-194369 3037.86 -5200.23)
(-193260 2574.27 -5346.83)
(-191988 2329.18 -4658.42)
(-190882 2210.45 -3467.93)
(-190214 2250.15 -2861.98)
(-189728 2209.65 -2388.72)
(-189111 2237.67 -1969.96)
(-188565 2255.61 -1665.42)
(-188066 2292.41 -1469.67)
(-187577 2314.64 -1370.08)
(-187156 2323.58 -1356.79)
(-186859 2328.9 -1394.72)
(-186553 2315.43 -1424.88)
(-186154 2315.29 -1464.9)
(-185735 2319.49 -1545.38)
(-185284 2323.14 -1639.56)
(-184772 2327.22 -1749.09)
(-184205 2332.6 -1860.18)
(-183582 2339.02 -1961.86)
(-182918 2347.89 -2041.57)
(-182237 2358.52 -2089.58)
(-181564 2371.89 -2097.98)
(-180932 2388.06 -2063.66)
(-180370 2407.58 -1986.86)
(-179906 2430.83 -1873.97)
(-179564 2457.96 -1733.28)
(-179357 2489.31 -1575.74)
(-179289 2525.17 -1410.21)
(-179356 2564.96 -1241.5)
(-179562 2607.32 -1070.44)
(-179900 2655.53 -900.736)
(-180362 2713.01 -736.375)
(-180921 2780.45 -576.847)
(-181540 2861.82 -418.837)
(-182180 2953.6 -256.351)
(-182825 3052.95 -89.0549)
(-183464 3159.18 85.3404)
(-184098 3274.91 270.323)
(-184725 3405.78 469.998)
(-185336 3560.11 687.138)
(-185942 3749.21 932.594)
(-186609 3993.91 1224.25)
(-187482 4328.73 1590.23)
(-188614 4798.16 2097.28)
(-189682 5486.56 2904.56)
(-189207 6419.71 4409.21)
(-189350 7729.67 7608.72)
(-197305 8539.97 13587.1)
(-247150 6436.51 21177.1)
(-324277 -7325.68 28105.3)
(-308501 -17894 11833.9)
(-200026 -3924.57 -17765.4)
(-198226 -2829.16 -10205.5)
(-195718 -2325.83 -9590.78)
(-194168 -2089.61 -6169.33)
(-193145 -2401.19 -5656.4)
(-191951 -2728.11 -4900.54)
(-191035 -2698.57 -4301.49)
(-190321 -2643.19 -3752.46)
(-189803 -2627.47 -3287.95)
(-189267 -2575.55 -2895.5)
(-188797 -2543.38 -2589.32)
(-188352 -2500.15 -2315.03)
(-187870 -2467.69 -2161.4)
(-187422 -2451.68 -2131.14)
(-187025 -2445.69 -2192.84)
(-186589 -2437.46 -2285.69)
(-186075 -2416.04 -2410.54)
(-185520 -2390.37 -2573.26)
(-184919 -2358.74 -2753.89)
(-184248 -2319.62 -2949.59)
(-183501 -2272.61 -3144.65)
(-182676 -2215.63 -3323.8)
(-181783 -2148.92 -3465.82)
(-180842 -2071.73 -3556.09)
(-179875 -1984.41 -3582)
(-178906 -1888.48 -3542.76)
(-177959 -1785.19 -3444.76)
(-177057 -1676.19 -3303.46)
(-176212 -1562.82 -3137.16)
(-175425 -1446.86 -2962)
(-174682 -1331.26 -2790.35)
(-173962 -1226.03 -2628.8)
(-173289 -1142.1 -2479.32)
(-172682 -1058.62 -2349.56)
(-172059 -954.379 -2246.92)
(-171390 -870.282 -2162.06)
(-170706 -796.914 -2084.64)
(-169982 -723.841 -2008.64)
(-169190 -657.344 -1923.18)
(-168303 -595.198 -1823.8)
(-167291 -537.012 -1704.93)
(-166119 -481.946 -1556.42)
(-164735 -426.252 -1367.45)
(-163091 -361.206 -1129.06)
(-161198 -269.632 -832.069)
(-159127 -135.447 -450.039)
(-156861 64.1603 74.5909)
(-153777 361.911 780.763)
(-148637 960.599 1671.12)
(-141082 2031.6 2352.47)
(-138181 2895.45 4681.62)
(-145926 1712.1 11035.7)
(-146331 -9223.24 41952.1)
(-15816.7 -7919.48 20726.2)
(-207281 858.509 -15780.5)
(-207412 2017.26 -8169.89)
(-206544 2480.02 -6159.45)
(-206957 2703.32 -4516.04)
(-207385 2396.97 -3805.16)
(-206771 2086.48 -3004.66)
(-206290 2109.42 -2348.94)
(-206289 2149.7 -1844.9)
(-206403 2152.87 -1286.55)
(-206449 2191.75 -841.556)
(-206564 2212.48 -506.508)
(-206681 2244.2 -249.569)
(-206781 2264.71 -92.6544)
(-206906 2267.63 -45.7436)
(-207058 2258.35 -79.7436)
(-207152 2247.4 -125.433)
(-207170 2244.2 -209.259)
(-207159 2239.43 -331.044)
(-207101 2234.04 -466.224)
(-206972 2228.74 -612.759)
(-206762 2223.26 -755.821)
(-206463 2219.12 -879.702)
(-206078 2216 -966.118)
(-205615 2214.99 -998.265)
(-205088 2216.63 -966.055)
(-204517 2221.93 -867.299)
(-203921 2231.7 -709.43)
(-203317 2246.33 -506.809)
(-202720 2266.38 -276.541)
(-202134 2291.89 -36.4199)
(-201556 2321.48 196.026)
(-200978 2347.78 406.664)
(-200400 2362.28 590.807)
(-199817 2383.19 745.302)
(-199241 2427 864.861)
(-198687 2457.92 952.737)
(-198141 2485.01 1009.64)
(-197603 2517.76 1041.53)
(-197052 2551.13 1056.63)
(-196459 2586.95 1058.51)
(-195804 2626.85 1045.79)
(-195072 2674.09 1019.03)
(-194248 2734.4 978.427)
(-193323 2817.89 917.82)
(-192333 2942.92 823.758)
(-191358 3125.62 689.137)
(-190405 3385.08 527.18)
(-188776 3728.79 356.675)
(-185270 4248.92 264.35)
(-178359 5244.57 473.958)
(-175604 5287.37 2716.06)
(-181989 2273.05 9274.49)
(-201421 -15787 36030.6)
(-123443 -11500.5 12952.3)
(-190968 -2846.02 -20331.5)
(-192187 -2924.54 -13457.2)
(-191269 -2627.69 -11103.4)
(-190964 -2665.39 -9097.2)
(-190615 -2985.84 -7589.14)
(-190000 -3250.95 -6429.22)
(-189630 -3379.25 -5486.83)
(-189373 -3446.76 -4797.97)
(-189201 -3440.69 -4226.94)
(-188933 -3404.91 -3845.79)
(-188603 -3406.1 -3617.92)
(-188318 -3437.91 -3395.89)
(-188072 -3468.85 -3257.73)
(-187856 -3507.75 -3230.02)
(-187654 -3546.81 -3283.84)
(-187392 -3585.3 -3379.71)
(-187063 -3617.78 -3533.68)
(-186686 -3647.51 -3740.43)
(-186255 -3672.39 -3979.02)
(-185754 -3691.47 -4240.61)
(-185176 -3703.01 -4511.66)
(-184517 -3704.48 -4768.86)
(-183791 -3694.73 -4985.12)
(-183025 -3669.74 -5127.86)
(-182254 -3629.16 -5175.61)
(-181519 -3571.6 -5121.34)
(-180856 -3498.82 -4972.15)
(-180293 -3412.07 -4743.69)
(-179838 -3313.27 -4457)
(-179487 -3207.35 -4133.65)
(-179217 -3102.75 -3792.79)
(-179004 -3010.69 -3458.35)
(-178836 -2935.92 -3150.88)
(-178704 -2869.06 -2852.53)
(-178563 -2803.66 -2539.68)
(-178374 -2750.23 -2250.33)
(-178119 -2711.96 -1979.58)
(-177768 -2686.86 -1718.1)
(-177286 -2675.34 -1462.53)
(-176631 -2675.22 -1208.77)
(-175757 -2683.91 -955.7)
(-174609 -2697.11 -696.878)
(-173132 -2707.66 -423.474)
(-171275 -2710.26 -142.73)
(-169009 -2702.78 135.508)
(-166355 -2685.05 417.121)
(-163234 -2670.57 708.754)
(-159022 -2642.18 1031.66)
(-152794 -2588.11 1326.73)
(-144042 -1796.97 1300.19)
(-139664 -836.283 1180.01)
(-145924 -2979.72 2200.42)
(-132874 -12251 1356.56)
(70412.5 -8002.41 5694.56)
(-188386 1455.2 -17445.6)
(-188895 1795.74 -11341.6)
(-188632 2268.04 -9330.89)
(-189387 2420.97 -7325.48)
(-189812 2248.91 -5461.44)
(-189522 2119.36 -3873.92)
(-189492 2113.57 -2881.95)
(-189626 2156.35 -2222.65)
(-189859 2264.59 -1621.27)
(-190087 2393.34 -1212.84)
(-190309 2477.48 -911.1)
(-190537 2527.07 -663.54)
(-190787 2575.7 -498.386)
(-191074 2614.52 -432.767)
(-191380 2652.59 -435.96)
(-191636 2691.05 -480.778)
(-191844 2735.65 -593.367)
(-192034 2783.29 -760.381)
(-192196 2836.05 -961.515)
(-192317 2894.39 -1189.7)
(-192387 2959.45 -1430.76)
(-192399 3032.72 -1665.94)
(-192355 3114.04 -1868.34)
(-192262 3205.71 -2009.77)
(-192135 3306.12 -2069.26)
(-191985 3414.9 -2039.65)
(-191821 3528.95 -1927.28)
(-191644 3646.21 -1747.71)
(-191452 3764.32 -1520.82)
(-191234 3878.53 -1265.13)
(-190976 3981.17 -998.425)
(-190656 4062.41 -735.251)
(-190272 4119.96 -480.71)
(-189835 4168.08 -244.939)
(-189328 4217.55 -38.3348)
(-188736 4257.08 138.366)
(-188049 4281.97 279.095)
(-187260 4292.54 378.809)
(-186364 4286.36 444.608)
(-185356 4261.7 478.565)
(-184237 4217.33 477.427)
(-183004 4154.57 440.095)
(-181663 4074.82 364.652)
(-180236 3976.94 239.981)
(-178778 3861.11 44.674)
(-177407 3719.71 -240.622)
(-176129 3524.15 -641.301)
(-174421 3249.34 -1151.74)
(-170318 2887.59 -2057.95)
(-163222 3181.24 -3087.86)
(-156452 2286.02 -3047.09)
(-162636 -2863.9 -1066.02)
(-141900 -30860.8 13490.1)
(-54351.7 -15321.5 6695.45)
(-186232 -1203.96 -16177.2)
(-187794 -1417.21 -11550.1)
(-187699 -1497.67 -9549.12)
(-188131 -1532.57 -7876.55)
(-188208 -1722.88 -6371.53)
(-188011 -1821.36 -5333.23)
(-187888 -1919.57 -4462.63)
(-187848 -2060.86 -3739.88)
(-187921 -2167.01 -3098.75)
(-187994 -2220.46 -2614.1)
(-187930 -2236.36 -2271.15)
(-187809 -2282.39 -2051.35)
(-187744 -2332.01 -1940.55)
(-187697 -2384.4 -1945.92)
(-187624 -2434.69 -2020.16)
(-187482 -2483.49 -2156.85)
(-187265 -2530.22 -2360.16)
(-186976 -2577.7 -2618.93)
(-186605 -2625.49 -2915.99)
(-186136 -2673.65 -3243.62)
(-185547 -2720.73 -3586.18)
(-184823 -2767.6 -3917.86)
(-183964 -2811.75 -4196.38)
(-182994 -2852 -4369.07)
(-181968 -2883.44 -4404.36)
(-180944 -2901.16 -4291.27)
(-179981 -2900.97 -4046.71)
(-179126 -2881.68 -3699.14)
(-178406 -2842.62 -3282.24)
(-177834 -2783.12 -2825.91)
(-177402 -2706.47 -2354.98)
(-177097 -2614.93 -1895.8)
(-176906 -2506.3 -1472.64)
(-176805 -2380.97 -1086.51)
(-176775 -2246.81 -728.893)
(-176809 -2107.17 -408.344)
(-176892 -1964 -129.814)
(-177008 -1819.95 103.652)
(-177138 -1675.95 284.871)
(-177264 -1531.77 409.719)
(-177364 -1388.73 478.147)
(-177411 -1248.07 488.206)
(-177367 -1105.7 448.339)
(-177201 -959.347 332.151)
(-176926 -811.689 125.503)
(-176572 -669.574 -206.157)
(-176067 -557.159 -738.781)
(-174658 -474.006 -1593.6)
(-170823 -388.415 -3032.16)
(-163071 -50.5129 -4971.85)
(-156317 -619.733 -8050.65)
(-159819 -2938.86 -13701.4)
(-143135 -13981.7 -36058.8)
(26022.5 -6374.38 -15397.8)
(-183451 1351.86 -15672.6)
(-183902 1250.74 -11095.5)
(-183169 1271.27 -9544.08)
(-183088 1337.15 -7773.6)
(-182675 1242.26 -5811.79)
(-181861 1238.52 -4324.88)
(-181324 1233.52 -3237.52)
(-180886 1180.95 -2421.46)
(-180512 1162.16 -1765.96)
(-180173 1195.39 -1245.72)
(-179810 1265.76 -828.97)
(-179458 1302.94 -530.714)
(-179158 1335.87 -351.996)
(-178885 1365.81 -289.143)
(-178587 1398.8 -299.368)
(-178218 1434.7 -374.348)
(-177769 1474.65 -524.613)
(-177239 1516.06 -734.465)
(-176612 1559.74 -986.784)
(-175870 1605.71 -1271.39)
(-174991 1655.63 -1573.09)
(-173957 1708.28 -1866.79)
(-172773 1765.8 -2109.34)
(-171473 1828.1 -2253.41)
(-170117 1898.58 -2265.73)
(-168777 1980.17 -2143.05)
(-167519 2074.87 -1905.88)
(-166389 2181.61 -1590.34)
(-165406 2298.81 -1235.46)
(-164571 2425.32 -873.073)
(-163865 2556.36 -524.55)
(-163261 2688.61 -209.065)
(-162723 2825.16 58.579)
(-162215 2966.13 276.153)
(-161706 3103.55 442.38)
(-161183 3235.77 558.97)
(-160627 3361.91 629.52)
(-160031 3480.16 652.134)
(-159402 3592.39 626.013)
(-158734 3700.75 543.965)
(-158043 3805.31 407.386)
(-157345 3907.12 215.828)
(-156673 4010.82 -12.6901)
(-156052 4123.77 -296.529)
(-155562 4238.88 -662.288)
(-155345 4337.98 -1149.98)
(-155431 4380.07 -1822.38)
(-155209 4329.17 -2890.56)
(-152713 4136.04 -4931.51)
(-147313 3900.43 -8959.97)
(-144857 2375.29 -15148)
(-162462 -3320.16 -21728.5)
(-164963 -22589.8 -37084.4)
(-61243.3 -11360 -15413.6)
(-180542 -704.505 -14988.9)
(-182459 -758.468 -11039.3)
(-182828 -914.544 -9539.54)
(-183557 -878.1 -8033.58)
(-183891 -807.102 -6673.06)
(-184096 -686.644 -5540.63)
(-184201 -659.617 -4585.38)
(-184342 -697.916 -3793.26)
(-184569 -739.196 -3176.88)
(-184747 -724.284 -2698.27)
(-184818 -703.521 -2272.64)
(-184892 -702.444 -2004.13)
(-184997 -704.68 -1867.99)
(-185090 -709.48 -1842.78)
(-185146 -716.596 -1903.73)
(-185148 -724.302 -2046.69)
(-185088 -733.661 -2264.25)
(-184968 -745.707 -2538.3)
(-184787 -760.703 -2850.63)
(-184533 -776.924 -3187.76)
(-184182 -795.31 -3534.56)
(-183702 -816.408 -3863)
(-183077 -841.301 -4108.71)
(-182332 -872.856 -4195.64)
(-181527 -907.955 -4064.48)
(-180726 -947.441 -3710.62)
(-179981 -988.078 -3167.65)
(-179320 -1028.31 -2493.36)
(-178744 -1065.12 -1746.38)
(-178240 -1096.7 -971.905)
(-177791 -1121.35 -204.559)
(-177386 -1135.68 531.342)
(-177008 -1137.31 1226.33)
(-176639 -1125.33 1876.31)
(-176268 -1102.11 2473.24)
(-175901 -1068.69 3014.36)
(-175546 -1024.59 3502.51)
(-175214 -970.421 3939.69)
(-174913 -907.875 4322.7)
(-174657 -836.703 4649.82)
(-174458 -757.453 4921.82)
(-174323 -667.95 5139.49)
(-174280 -561.521 5315.64)
(-174376 -440.779 5446.06)
(-174712 -306.802 5534.62)
(-175507 -171.699 5549.46)
(-176942 -45.1088 5390.39)
(-178837 57.0305 4837.79)
(-179624 201.192 3122.03)
(-179124 242.036 -886.707)
(-180917 -168.176 -9296.85)
(-193749 -2055.35 -27283.2)
(-168692 -11836.5 -62625.9)
(-74461.4 -6180.78 -26287.7)
(-181645 2003.58 -14444.9)
(-184678 1846.97 -10556.1)
(-185378 1674.8 -9321.06)
(-186273 1694.95 -8046.27)
(-186836 1762.79 -6595.47)
(-187313 1885.76 -5414.85)
(-187755 1921.58 -4497.44)
(-188105 1899.26 -3710.06)
(-188399 1879.69 -3086.59)
(-188618 1919.83 -2596.01)
(-188795 1968.64 -2206.58)
(-188975 2000.45 -1952.28)
(-189161 2031.16 -1825.59)
(-189329 2061.11 -1808.25)
(-189449 2090.18 -1881.59)
(-189503 2119.83 -2043.87)
(-189483 2148.85 -2291.14)
(-189387 2176.03 -2605.59)
(-189204 2200.97 -2969.15)
(-188917 2225.2 -3368.9)
(-188494 2247.57 -3790.49)
(-187898 2267.07 -4202.42)
(-187104 2282.08 -4539.57)
(-186134 2288.99 -4715.08)
(-185055 2290.34 -4665)
(-183955 2284.91 -4377.1)
(-182920 2275.95 -3882.59)
(-182014 2265.37 -3237.42)
(-181271 2256.26 -2503.09)
(-180701 2250.37 -1731.64)
(-180294 2249.38 -957.366)
(-180036 2256.69 -201.581)
(-179908 2276.51 523.084)
(-179883 2311.24 1212.91)
(-179943 2358.98 1866.99)
(-180075 2418.7 2480.1)
(-180263 2489.27 3056.5)
(-180492 2570.83 3607.47)
(-180749 2666.38 4143.65)
(-181031 2776.73 4675.12)
(-181331 2901.99 5214.88)
(-181641 3045.14 5772.55)
(-181957 3207.53 6356.08)
(-182296 3389.82 6974.44)
(-182741 3592.16 7643.43)
(-183497 3807.33 8350.33)
(-184755 4025.76 9045.15)
(-186338 4220.23 9534.22)
(-187309 4414.62 9179.85)
(-187853 4424.57 6747.8)
(-195256 3442.71 334.657)
(-227352 -136.383 -12635.7)
(-263878 -14309.7 -52994.6)
(-198059 -11080 -8612.48)
(-176925 -1095.26 -14145.3)
(-178149 -1039.32 -11203.9)
(-178364 -1182.33 -10008.2)
(-178643 -1239.67 -8639.52)
(-178429 -1155.49 -7536.09)
(-178137 -1036.66 -6444.94)
(-177888 -1021.61 -5493.21)
(-177781 -1034.15 -4748.87)
(-177808 -1013.16 -4193.77)
(-177746 -945.387 -3735.53)
(-177588 -898.915 -3404.39)
(-177477 -870.634 -3232.24)
(-177395 -846.371 -3190.5)
(-177300 -825.594 -3269.82)
(-177157 -805.882 -3466.11)
(-176934 -787.685 -3771.72)
(-176608 -771.276 -4173.84)
(-176167 -757.544 -4651.41)
(-175604 -744.614 -5183.95)
(-174905 -732.269 -5755.3)
(-174032 -719.4 -6363.5)
(-172914 -703.021 -6992.01)
(-171498 -681.08 -7566.77)
(-169817 -645.056 -7950.81)
(-168008 -593.532 -8027.91)
(-166241 -523.847 -7792.24)
(-164645 -439.815 -7305.73)
(-163293 -346.195 -6661.54)
(-162193 -249.542 -5947.73)
(-161313 -157.235 -5228.51)
(-160611 -70.0795 -4540.51)
(-160031 14.6964 -3902.72)
(-159526 98.5282 -3314.07)
(-159060 184.891 -2766.62)
(-158612 275.74 -2254.96)
(-158165 371.875 -1768.24)
(-157703 475.977 -1292.93)
(-157215 590.508 -816.031)
(-156690 717.005 -324.856)
(-156118 858.075 195.943)
(-155496 1018.77 761.699)
(-154823 1203.89 1391.89)
(-154100 1421.09 2109.58)
(-153346 1680.96 2942.78)
(-152639 1997.9 3935.52)
(-152171 2390.19 5138.86)
(-152172 2872.93 6575.71)
(-152549 3449.25 8160.11)
(-152610 4078.43 9587.95)
(-153029 4823.39 10161.2)
(-164313 5845.54 8261.24)
(-209649 7246.69 -3342.97)
(-245815 -3833.9 -36269.3)
(-148534 10529.3 -2356.5)
(-172199 2442.83 -11533.7)
(-174204 2452.49 -8142.54)
(-175057 2276.8 -6736.73)
(-175698 2201.97 -5368.11)
(-175911 2279.59 -4175.62)
(-176297 2394.92 -3082.05)
(-176765 2406.35 -2142.66)
(-177202 2394.9 -1328.77)
(-177663 2421.49 -633.437)
(-178046 2497.93 -76.8486)
(-178357 2554.66 331.857)
(-178667 2595.08 593.807)
(-178974 2633.27 727.883)
(-179257 2669.41 741.045)
(-179498 2705.9 636.794)
(-179683 2742.51 417.022)
(-179804 2779.4 91.468)
(-179861 2816.31 -321.924)
(-179860 2855.91 -805.172)
(-179799 2899.11 -1347.86)
(-179650 2947.86 -1948.72)
(-179357 3005.78 -2597.07)
(-178871 3075.19 -3224.27)
(-178207 3163.3 -3699.92)
(-177448 3268.46 -3914.49)
(-176688 3388.92 -3845.39)
(-175985 3517.42 -3540.56)
(-175361 3647.34 -3074.11)
(-174805 3771.79 -2524.25)
(-174289 3883.99 -1953.2)
(-173782 3983.57 -1397.84)
(-173271 4073.75 -887.22)
(-172740 4156.68 -432.06)
(-172175 4240.01 -25.1191)
(-171553 4326.34 341.285)
(-170860 4415.45 673.71)
(-170089 4509.56 980.86)
(-169232 4609.66 1274.75)
(-168280 4715.06 1564.23)
(-167233 4828.67 1866.41)
(-166083 4954.4 2183.31)
(-164832 5095.43 2526.74)
(-163492 5257.2 2913.16)
(-162098 5447.45 3362.77)
(-160741 5677.13 3909.54)
(-159634 5959.84 4595.71)
(-159062 6304.47 5431.41)
(-159137 6719.95 6326.05)
(-159576 7198.9 6832.32)
(-161480 7683.64 6275.81)
(-176521 8029.47 5460.63)
(-230665 7323.01 291.021)
(-292308 -8858.93 -21141.2)
(-372724 -8063.13 -50010.8)
(-179249 -1493.16 -13443.3)
(-180976 -1389.42 -11530.8)
(-181703 -1458.72 -10432.2)
(-182527 -1538.88 -9044.46)
(-182839 -1491.23 -7962.82)
(-182976 -1475.78 -7030.82)
(-183194 -1560.67 -6275.53)
(-183514 -1621.72 -5737.32)
(-183830 -1610.13 -5281.67)
(-184058 -1576.66 -4852.85)
(-184259 -1553 -4588.64)
(-184486 -1533.59 -4481.89)
(-184723 -1510.71 -4512.82)
(-184946 -1484.57 -4679.64)
(-185127 -1453.7 -4980.28)
(-185231 -1420.05 -5408.77)
(-185232 -1385.66 -5950.46)
(-185114 -1352.61 -6587.38)
(-184872 -1321.83 -7297.9)
(-184501 -1295.71 -8067.48)
(-183965 -1275.24 -8899.64)
(-183150 -1265.93 -9811.72)
(-181914 -1273.95 -10727.9)
(-180237 -1309.63 -11404.5)
(-178312 -1379.15 -11611)
(-176390 -1470.42 -11335.5)
(-174653 -1569.55 -10726.2)
(-173196 -1661.37 -9950.47)
(-172035 -1739.48 -9148.66)
(-171138 -1805.59 -8410.51)
(-170459 -1859.67 -7779.62)
(-169951 -1903.66 -7265.47)
(-169568 -1941.78 -6863.14)
(-169273 -1982.21 -6558.89)
(-169037 -2027.12 -6337.73)
(-168844 -2073.25 -6184.12)
(-168683 -2119.33 -6084.75)
(-168545 -2165.25 -6029.81)
(-168426 -2210.19 -6010.42)
(-168322 -2253.34 -6019.39)
(-168231 -2292.52 -6052.78)
(-168162 -2324.71 -6108.54)
(-168140 -2345.27 -6185.14)
(-168207 -2349.31 -6280.92)
(-168476 -2333.43 -6379.69)
(-169188 -2294.27 -6437.57)
(-170649 -2229.91 -6343.29)
(-173099 -2181.68 -5970.91)
(-176029 -2259.26 -5023.91)
(-180185 -2316.71 -2871.3)
(-197708 -806.897 2302.74)
(-253310 842.777 10102.8)
(-311258 7149.15 27487.7)
(-382917 -48694.1 40919.7)
(-173152 2009.01 -10835.7)
(-173607 2198.93 -8416.81)
(-173513 2122.19 -6894.46)
(-173252 2049.64 -5218.72)
(-172557 2097.91 -3951.33)
(-172015 2104.15 -2964.74)
(-171598 1994.33 -2031.48)
(-171194 1903.42 -1249.33)
(-170860 1886.44 -563.159)
(-170587 1888.89 21.6379)
(-170369 1876.68 446.242)
(-170211 1856.43 715.205)
(-170087 1837.34 840.501)
(-169964 1819.67 823.806)
(-169802 1805.61 666.453)
(-169558 1793.91 374.175)
(-169194 1783.25 -38.8902)
(-168691 1772.35 -553.155)
(-168043 1761.38 -1148.92)
(-167254 1748.82 -1812.51)
(-166298 1735.26 -2555.28)
(-165068 1717.13 -3401.79)
(-163431 1691.43 -4276.14)
(-161409 1651.06 -4931.69)
(-159267 1591.54 -5119.57)
(-157340 1524.92 -4826.79)
(-155852 1461.5 -4206.86)
(-154879 1411.43 -3438.22)
(-154380 1375.2 -2667.74)
(-154238 1345.66 -1985.73)
(-154333 1319.59 -1435.18)
(-154550 1291.08 -1033.9)
(-154805 1251.77 -764.474)
(-155061 1184.57 -626.352)
(-155308 1083.9 -620.802)
(-155526 952.09 -741.243)
(-155695 787.886 -978.991)
(-155804 588.73 -1329.31)
(-155839 352.702 -1787.47)
(-155788 78.35 -2349.57)
(-155644 -234.403 -3021.04)
(-155401 -582.702 -3812.39)
(-155046 -960.456 -4733.21)
(-154576 -1362.5 -5795.74)
(-154027 -1782.82 -7001.45)
(-153512 -2211.01 -8320.15)
(-153126 -2630.85 -9636.91)
(-152737 -3084.78 -10840.9)
(-151666 -3648.18 -11472.4)
(-151229 -4049.2 -10884.3)
(-162132 -3003.41 -9822.1)
(-188865 -2435.24 -6659.29)
(-233828 1029.44 35151.9)
(-215108 -9686.27 -1375.79)
(-174588 -1136.38 -12177.8)
(-175733 -1034.34 -10694.5)
(-176391 -1016.84 -9692.44)
(-177339 -1082.61 -8433.09)
(-178014 -1083.86 -7332.92)
(-178501 -1174.54 -6444.31)
(-179054 -1240.08 -5719.82)
(-179628 -1250.22 -5094.26)
(-180113 -1229.28 -4516.28)
(-180571 -1225.02 -4038.15)
(-181051 -1217.89 -3708.75)
(-181541 -1209.06 -3524.8)
(-182042 -1195.8 -3492.04)
(-182540 -1178.82 -3622.55)
(-183009 -1157.01 -3925.16)
(-183417 -1131.47 -4398.56)
(-183742 -1103.34 -5028.1)
(-183974 -1071.49 -5798.85)
(-184116 -1034.45 -6695.28)
(-184185 -989.971 -7685.74)
(-184185 -938.848 -8753.13)
(-183980 -876.216 -9961.32)
(-183284 -800.223 -11280.6)
(-182010 -724.244 -12301)
(-180532 -669.282 -12501.7)
(-179352 -650.509 -11839.7)
(-178689 -666.633 -10715.4)
(-178528 -708.152 -9439.28)
(-178754 -762.406 -8212.92)
(-179232 -820.789 -7134.85)
(-179846 -877.6 -6238.86)
(-180510 -927.257 -5514.85)
(-181174 -963.451 -4937.57)
(-181808 -985.888 -4479.77)
(-182387 -1000.95 -4116.37)
(-182888 -1012.96 -3827.36)
(-183291 -1022.06 -3596.5)
(-183576 -1028.19 -3412.26)
(-183715 -1031.84 -3267.56)
(-183674 -1033.36 -3160.05)
(-183410 -1033.08 -3091.6)
(-182880 -1030.83 -3067.58)
(-182031 -1024.32 -3108.88)
(-180838 -1011.97 -3239.14)
(-179296 -997.487 -3485.05)
(-177416 -991.826 -3870.92)
(-175173 -1014.21 -4383.58)
(-171921 -1107.32 -4842.25)
(-166749 -1256.72 -4854.46)
(-159024 -991.891 -4016.36)
(-155666 -714.517 -1783.89)
(-158818 426.527 4998.37)
(-185084 9937.17 49578.9)
(-98301.2 6144.46 13796.1)
(-178857 1121.55 -9675.97)
(-180619 1371.57 -8000.27)
(-181300 1424 -6879.48)
(-182198 1412.76 -5512.32)
(-182711 1442.74 -4467.07)
(-183035 1370.18 -3569.68)
(-183238 1307.73 -2661.84)
(-183415 1286.88 -1886.86)
(-183539 1285.39 -1225.72)
(-183635 1256.06 -678.973)
(-183708 1220.19 -267.455)
(-183762 1179.33 6.07331)
(-183797 1138.75 129.841)
(-183794 1099.81 93.0688)
(-183719 1065.17 -115.983)
(-183533 1035.41 -498.309)
(-183202 1010.69 -1042.99)
(-182699 992.655 -1733.55)
(-182014 982.777 -2551.41)
(-181152 982.762 -3467.71)
(-180094 990.894 -4479.23)
(-178675 1010.83 -5656.82)
(-176564 1043.82 -6974.83)
(-173592 1074.8 -8023.37)
(-170082 1080.49 -8267.9)
(-166589 1045.96 -7621.37)
(-163486 974.182 -6461.15)
(-160921 875.793 -5112.84)
(-158906 764.244 -3798.02)
(-157367 649.539 -2627.39)
(-156212 537.588 -1641.02)
(-155403 427.37 -863.702)
(-154859 325.79 -268.168)
(-154492 231.394 173.236)
(-154236 136.752 495.087)
(-154064 37.5165 717.664)
(-153952 -66.2592 861.912)
(-153878 -173.603 949.532)
(-153817 -283.823 997.99)
(-153746 -395.102 1023.21)
(-153638 -504.42 1036.82)
(-153468 -607.108 1045.03)
(-153211 -693.623 1048.31)
(-152846 -756.237 1043.44)
(-152393 -792.749 1028.77)
(-151930 -809.054 1019.82)
(-151527 -825.626 1076.36)
(-150657 -885.697 1315.99)
(-148369 -969.006 2072.5)
(-144374 -617.282 3538.06)
(-140682 -458.248 4468.54)
(-150961 446.805 8407.95)
(-158018 8232.46 51633.4)
(-58433.6 5057.01 26142.6)