/*--------------------------------*- C++ -*----------------------------------*\
| =========                 |                                                 |
| \\      /  F ield         | OpenFOAM: The Open Source CFD Toolbox           |
|  \\    /   O peration     | Version:  4.1                                   |
|   \\  /    A nd           | Web:      www.OpenFOAM.org                      |
|    \\/     M anipulation  |                                                 |
\*---------------------------------------------------------------------------*/
FoamFile
{
    version     2.0;
    format      ascii;
    class       surfaceScalarField;
    location    "55";
    object      phi;
}
// * * * * * * * * * * * * * * * * * * * * * * * * * * * * * * * * * * * * * //

dimensions      [0 3 -1 0 0 0 0];

internalField   nonuniform List<scalar> 
11516
(
-4.25582e+10
-6.75893e+07
3.43473e+08
-4.26779e+10
-8.84772e+07
1.88337e+08
-4.27992e+10
-1.04847e+08
2.1089e+08
-4.27184e+10
-1.73363e+08
8.19762e+07
-4.27299e+10
-1.09993e+08
1.15151e+08
-4.2768e+10
-1.08194e+08
1.43477e+08
-4.27861e+10
-1.16801e+08
1.34443e+08
-4.28211e+10
-1.11956e+08
1.47999e+08
-4.28584e+10
-1.10677e+08
1.49959e+08
-4.28945e+10
-1.08919e+08
1.47446e+08
-4.29241e+10
-1.07279e+08
1.39476e+08
-4.29405e+10
-1.06576e+08
1.25837e+08
-4.29321e+10
-1.07361e+08
1.02741e+08
-4.28916e+10
-1.09113e+08
7.42227e+07
-4.28093e+10
-1.10793e+08
3.6781e+07
-4.26782e+10
-1.11954e+08
-7.20716e+06
-4.24939e+10
-1.13185e+08
-5.69083e+07
-4.22483e+10
-1.14647e+08
-1.13772e+08
-4.19372e+10
-1.1647e+08
-1.74434e+08
-4.1554e+10
-1.17921e+08
-2.39132e+08
-4.10985e+10
-1.20032e+08
-3.07339e+08
-4.05772e+10
-1.22037e+08
-3.70999e+08
-3.99974e+10
-1.24695e+08
-4.32965e+08
-3.93718e+10
-1.27103e+08
-4.83061e+08
-3.87085e+10
-1.28906e+08
-5.25195e+08
-3.80227e+10
-1.29727e+08
-5.51384e+08
-3.73242e+10
-1.29526e+08
-5.67521e+08
-3.66296e+10
-1.28324e+08
-5.6762e+08
-3.59496e+10
-1.26217e+08
-5.5799e+08
-3.52969e+10
-1.23344e+08
-5.3692e+08
-3.46831e+10
-1.19814e+08
-5.05572e+08
-3.41155e+10
-1.1595e+08
-4.67629e+08
-3.36052e+10
-1.11951e+08
-4.18727e+08
-3.31591e+10
-1.08152e+08
-3.62499e+08
-3.2783e+10
-1.0501e+08
-2.98371e+08
-3.24829e+10
-1.03348e+08
-2.24603e+08
-3.22601e+10
-1.04515e+08
-1.43299e+08
-3.21168e+10
-1.10413e+08
-5.04993e+07
-3.2049e+10
-1.22807e+08
5.09693e+07
-3.20537e+10
-1.42439e+08
1.63491e+08
-3.21281e+10
-1.69279e+08
2.887e+08
-3.22719e+10
-2.0383e+08
4.30042e+08
-3.24895e+10
-2.47399e+08
5.94095e+08
-3.27942e+10
-3.01522e+08
7.88004e+08
-3.32168e+10
-3.65897e+08
1.02261e+09
-3.38167e+10
-4.39566e+08
1.30896e+09
-3.46798e+10
-5.26447e+08
1.65655e+09
-3.58959e+10
-6.59007e+08
2.05171e+09
-3.75927e+10
-9.20404e+08
2.55965e+09
-3.98441e+10
-1.40848e+09
3.31706e+09
-4.38263e+10
-2.26742e+09
5.34824e+09
-5.0282e+10
-3.11252e+09
8.49524e+09
-5.99129e+10
-8.5897e+09
1.74948e+10
-2.35337e+09
9.71645e+09
-5.6951e+10
-2.95795e+06
-5.69026e+10
-1.45729e+08
-5.68559e+10
-1.58358e+08
-5.68634e+10
-1.70548e+08
-5.67801e+10
-1.95328e+08
-5.67151e+10
-1.73335e+08
-5.66555e+10
-1.7524e+08
-5.65993e+10
-1.6617e+08
-5.65404e+10
-1.66915e+08
-5.64776e+10
-1.68912e+08
-5.64065e+10
-1.75227e+08
-5.6325e+10
-1.8464e+08
-5.62255e+10
-2.02796e+08
-5.61046e+10
-2.24626e+08
-5.5955e+10
-2.53413e+08
-5.57708e+10
-2.8749e+08
-5.55492e+10
-3.24754e+08
-5.52835e+10
-3.68646e+08
-5.49721e+10
-4.13836e+08
-5.46108e+10
-4.62782e+08
-5.41988e+10
-5.13641e+08
-5.37435e+10
-5.59734e+08
-5.32482e+10
-6.04795e+08
-5.27247e+10
-6.38307e+08
-5.21777e+10
-6.66042e+08
-5.162e+10
-6.7905e+08
-5.10572e+10
-6.84893e+08
-5.05026e+10
-6.76253e+08
-4.99624e+10
-6.60531e+08
-4.94458e+10
-6.34973e+08
-4.8961e+10
-6.00726e+08
-4.8512e+10
-5.62311e+08
-4.81073e+10
-5.1515e+08
-4.77513e+10
-4.63185e+08
-4.745e+10
-4.05331e+08
-4.72109e+10
-3.40056e+08
-4.70398e+10
-2.70389e+08
-4.69488e+10
-1.90729e+08
-4.69481e+10
-1.0483e+08
-4.70507e+10
-9.68058e+06
-4.72708e+10
9.60821e+07
-4.76233e+10
2.13624e+08
-4.81289e+10
3.4695e+08
-4.88165e+10
5.01772e+08
-4.97282e+10
6.87697e+08
-5.09259e+10
9.18812e+08
-5.25065e+10
1.20748e+09
-5.46224e+10
1.56492e+09
-5.76257e+10
2.0661e+09
-6.22816e+10
3.00403e+09
-7.07638e+10
5.80513e+09
-8.45547e+10
1.01545e+10
-1.12572e+11
1.90699e+10
8.25128e+09
-6.76224e+10
2.18168e+06
3.82677e+08
-6.7682e+10
-2.69797e+07
2.69478e+08
-6.77471e+10
-3.60772e+07
3.06869e+08
-6.78595e+10
-2.49793e+07
2.16664e+08
-6.79013e+10
-3.45437e+07
1.91993e+08
-6.79567e+10
-2.80694e+07
2.30024e+08
-6.80269e+10
-2.57844e+07
2.35289e+08
-6.80917e+10
-2.26618e+07
2.41467e+08
-6.81549e+10
-2.19748e+07
2.41992e+08
-6.82191e+10
-1.94009e+07
2.38514e+08
-6.82792e+10
-1.79226e+07
2.25726e+08
-6.83315e+10
-1.69844e+07
2.03898e+08
-6.83738e+10
-1.69646e+07
1.72104e+08
-6.84024e+10
-1.7716e+07
1.31577e+08
-6.84144e+10
-1.84463e+07
8.11069e+07
-6.84119e+10
-1.94058e+07
2.50491e+07
-6.83931e+10
-1.99648e+07
-3.77734e+07
-6.8361e+10
-2.10302e+07
-1.06348e+08
-6.83108e+10
-2.223e+07
-1.79498e+08
-6.82432e+10
-2.38597e+07
-2.56694e+08
-6.81585e+10
-2.55216e+07
-3.3556e+08
-6.80592e+10
-2.77808e+07
-4.10473e+08
-6.7952e+10
-3.05033e+07
-4.79321e+08
-6.78361e+10
-3.33313e+07
-5.3775e+08
-6.77201e+10
-3.59188e+07
-5.79429e+08
-6.76001e+10
-3.78873e+07
-6.08247e+08
-6.74828e+10
-3.91693e+07
-6.20111e+08
-6.7365e+10
-3.96258e+07
-6.19475e+08
-6.72505e+10
-3.92469e+07
-6.05984e+08
-6.71352e+10
-3.79079e+07
-5.86027e+08
-6.70184e+10
-3.56647e+07
-5.57579e+08
-6.68975e+10
-3.24953e+07
-5.25636e+08
-6.67664e+10
-2.8532e+07
-4.89735e+08
-6.66217e+10
-2.35416e+07
-4.49804e+08
-6.6456e+10
-1.76634e+07
-4.09782e+08
-6.62608e+10
-1.15441e+07
-3.67046e+08
-6.60261e+10
-5.97803e+06
-3.24686e+08
-6.57382e+10
-1.08963e+06
-2.80939e+08
-6.53868e+10
3.5197e+06
-2.36187e+08
-6.49607e+10
8.33582e+06
-1.87834e+08
-6.44488e+10
1.31709e+07
-1.34687e+08
-6.38424e+10
1.78419e+07
-6.94747e+07
-6.31236e+10
2.1663e+07
5.23279e+06
-6.22727e+10
2.42431e+07
9.47542e+07
-6.12671e+10
2.53201e+07
2.05202e+08
-6.00831e+10
2.20448e+07
3.44174e+08
-5.86781e+10
2.9101e+06
5.05465e+08
-5.70457e+10
-3.90332e+07
7.04981e+08
-5.51855e+10
-1.28807e+08
1.02425e+09
-5.34341e+10
-2.07109e+08
1.85657e+09
-5.077e+10
-4.75199e+08
3.1738e+09
-4.62621e+10
-8.40177e+08
4.79102e+09
-2.17199e+10
-5.15995e+09
-1.99763e+09
-3.6394e+09
-6.09464e+09
-7.44778e+10
6.37336e+07
-7.45937e+10
-6.01095e+07
-7.47303e+10
-6.00255e+07
-7.48727e+10
-5.35883e+07
-7.50116e+10
-8.9693e+07
-7.51441e+10
-6.63829e+07
-7.52872e+10
-5.45214e+07
-7.54238e+10
-4.81046e+07
-7.55609e+10
-4.70894e+07
-7.56979e+10
-4.61974e+07
-7.58326e+10
-5.28746e+07
-7.59614e+10
-6.68009e+07
-7.60851e+10
-8.94462e+07
-7.6201e+10
-1.18775e+08
-7.6307e+10
-1.57164e+08
-7.64025e+10
-2.01331e+08
-7.64828e+10
-2.5353e+08
-7.65484e+10
-3.11891e+08
-7.65957e+10
-3.74769e+08
-7.66234e+10
-4.41876e+08
-7.66322e+10
-5.10942e+08
-7.66222e+10
-5.77452e+08
-7.65987e+10
-6.39477e+08
-7.65582e+10
-6.93928e+08
-7.65085e+10
-7.34187e+08
-7.64427e+10
-7.65219e+08
-7.63662e+10
-7.82462e+08
-7.62727e+10
-7.90514e+08
-7.61644e+10
-7.88399e+08
-7.60341e+10
-7.82544e+08
-7.58789e+10
-7.70029e+08
-7.56946e+10
-7.56482e+08
-7.54727e+10
-7.41588e+08
-7.52094e+10
-7.24431e+08
-7.48961e+10
-7.08232e+08
-7.45257e+10
-6.90584e+08
-7.40917e+10
-6.74326e+08
-7.35835e+10
-6.57863e+08
-7.29908e+10
-6.43652e+08
-7.23005e+10
-6.30895e+08
-7.1497e+10
-6.20598e+08
-7.05694e+10
-6.06697e+08
-6.9501e+10
-5.91711e+08
-6.82766e+10
-5.69317e+08
-6.68782e+10
-5.34469e+08
-6.52853e+10
-4.81887e+08
-6.3485e+10
-4.08807e+08
-6.14834e+10
-3.061e+08
-5.93089e+10
-1.12491e+08
-5.68895e+10
4.47911e+08
-5.28805e+10
1.3285e+09
-4.53324e+10
1.72049e+09
-2.73234e+10
-3.88561e+09
-9.7873e+09
-5.46103e+10
1.01647e+08
-3.27977e+07
-5.44688e+10
1.38658e+08
-1.05463e+07
-5.43262e+10
1.27956e+08
3.72043e+07
-5.43594e+10
1.5569e+08
9.64181e+07
-5.43505e+10
1.29743e+08
5.68572e+07
-5.43398e+10
1.39947e+08
8.41429e+07
-5.43599e+10
1.46457e+08
1.1487e+08
-5.43859e+10
1.51404e+08
1.23311e+08
-5.44119e+10
1.53017e+08
1.23392e+08
-5.44362e+10
1.57575e+08
1.14579e+08
-5.44602e+10
1.61962e+08
9.7906e+07
-5.44853e+10
1.67296e+08
7.27888e+07
-5.45094e+10
1.7241e+08
3.56919e+07
-5.45282e+10
1.77624e+08
-1.44956e+07
-5.45409e+10
1.83847e+08
-7.55335e+07
-5.45386e+10
1.89402e+08
-1.51349e+08
-5.45156e+10
1.9477e+08
-2.38804e+08
-5.44689e+10
1.99601e+08
-3.35402e+08
-5.43905e+10
2.05032e+08
-4.41742e+08
-5.42799e+10
2.10894e+08
-5.52927e+08
-5.41375e+10
2.17969e+08
-6.62513e+08
-5.39678e+10
2.24757e+08
-7.69789e+08
-5.37805e+10
2.32054e+08
-8.62056e+08
-5.35867e+10
2.39447e+08
-9.35411e+08
-5.33935e+10
2.47502e+08
-9.83942e+08
-5.32135e+10
2.56199e+08
-1.00635e+09
-5.30548e+10
2.65478e+08
-1.00305e+09
-5.29249e+10
2.75176e+08
-9.79503e+08
-5.28283e+10
2.85076e+08
-9.38717e+08
-5.27707e+10
2.95009e+08
-8.85332e+08
-5.27497e+10
3.04897e+08
-8.2561e+08
-5.27684e+10
3.14844e+08
-7.58784e+08
-5.28228e+10
3.24723e+08
-6.91544e+08
-5.29089e+10
3.34176e+08
-6.2267e+08
-5.30273e+10
3.42897e+08
-5.50902e+08
-5.31721e+10
3.5139e+08
-4.7988e+08
-5.33428e+10
3.6004e+08
-4.07247e+08
-5.3536e+10
3.67692e+08
-3.31782e+08
-5.37472e+10
3.72261e+08
-2.52955e+08
-5.39673e+10
3.72636e+08
-1.69974e+08
-5.41878e+10
3.66842e+08
-7.96821e+07
-5.43857e+10
3.53026e+08
1.40044e+07
-5.45459e+10
3.3078e+08
1.17067e+08
-5.46457e+10
3.00613e+08
2.26874e+08
-5.4654e+10
2.60857e+08
3.40273e+08
-5.45274e+10
2.03228e+08
4.5447e+08
-5.4234e+10
1.14313e+08
5.73784e+08
-5.37368e+10
-2.69046e+07
7.14624e+08
-5.28444e+10
-2.61445e+08
8.31435e+08
-5.07802e+10
-4.98375e+08
7.20374e+08
-4.75293e+10
-7.58088e+08
1.17122e+09
-4.55315e+10
-1.51469e+09
4.79969e+09
-5.39842e+10
-8.96529e+09
1.62208e+10
-6.69291e+09
8.16505e+09
-6.15225e+10
1.33188e+07
-6.14699e+10
2.72118e+07
-6.14559e+10
5.53986e+07
-6.14589e+10
1.06943e+08
-6.15207e+10
1.03979e+08
-6.15742e+10
1.29903e+08
-6.16429e+10
1.64247e+08
-6.17102e+10
1.75081e+08
-6.17821e+10
1.83034e+08
-6.18475e+10
1.82796e+08
-6.19093e+10
1.77391e+08
-6.19652e+10
1.63408e+08
-6.20126e+10
1.37777e+08
-6.20459e+10
1.00195e+08
-6.20637e+10
5.30207e+07
-6.20595e+10
-7.02776e+06
-6.20317e+10
-7.72559e+07
-6.198e+10
-1.53985e+08
-6.18981e+10
-2.39807e+08
-6.17853e+10
-3.28188e+08
-6.16447e+10
-4.15056e+08
-6.14778e+10
-4.9868e+08
-6.12956e+10
-5.68129e+08
-6.11077e+10
-6.20035e+08
-6.09212e+10
-6.49406e+08
-6.07487e+10
-6.55446e+08
-6.0598e+10
-6.38619e+08
-6.04765e+10
-6.04654e+08
-6.03882e+10
-5.56042e+08
-6.03395e+10
-4.97177e+08
-6.03274e+10
-4.34283e+08
-6.03562e+10
-3.65927e+08
-6.04222e+10
-2.99363e+08
-6.05224e+10
-2.33226e+08
-6.06591e+10
-1.65347e+08
-6.08269e+10
-1.00383e+08
-6.10242e+10
-3.61893e+07
-6.12504e+10
2.88929e+07
-6.15103e+10
9.64633e+07
-6.18087e+10
1.66259e+08
-6.21579e+10
2.43472e+08
-6.25616e+10
3.24017e+08
-6.30323e+10
4.14533e+08
-6.35726e+10
5.11561e+08
-6.41828e+10
6.14769e+08
-6.48723e+10
7.25978e+08
-6.56804e+10
8.53325e+08
-6.66662e+10
9.98255e+08
-6.78875e+10
1.19413e+09
-6.92236e+10
1.65461e+09
-7.1851e+10
3.6563e+09
-7.82343e+10
7.44639e+09
-1.0536e+11
1.51123e+10
7.1017e+09
-5.90901e+10
-1.04113e+08
-4.37639e+07
-5.90914e+10
-8.97e+07
8.61119e+07
-5.90342e+10
-8.4367e+07
6.85842e+07
-5.90092e+10
-9.11725e+07
1.65648e+08
-5.90306e+10
-9.87401e+07
1.79182e+08
-5.90469e+10
-9.31552e+07
1.96161e+08
-5.90629e+10
-8.29998e+07
2.17549e+08
-5.90883e+10
-7.93009e+07
2.33226e+08
-5.91193e+10
-7.89305e+07
2.39852e+08
-5.9151e+10
-7.82191e+07
2.32168e+08
-5.91758e+10
-7.84663e+07
2.09645e+08
-5.91888e+10
-7.83525e+07
1.73238e+08
-5.91875e+10
-7.81234e+07
1.21435e+08
-5.91713e+10
-7.74392e+07
5.57723e+07
-5.91365e+10
-7.67452e+07
-2.59158e+07
-5.90857e+10
-7.59386e+07
-1.186e+08
-5.90201e+10
-7.57037e+07
-2.23515e+08
-5.89346e+10
-7.55895e+07
-3.39804e+08
-5.88324e+10
-7.56738e+07
-4.6376e+08
-5.87072e+10
-7.45815e+07
-5.92191e+08
-5.85627e+10
-7.32697e+07
-7.17988e+08
-5.84032e+10
-7.09978e+07
-8.35841e+08
-5.82375e+10
-6.81458e+07
-9.33362e+08
-5.80758e+10
-6.42587e+07
-1.00283e+09
-5.79258e+10
-5.90219e+07
-1.03956e+09
-5.77973e+10
-5.24894e+07
-1.04064e+09
-5.76954e+10
-4.48245e+07
-1.0112e+09
-5.76235e+10
-3.65019e+07
-9.58685e+08
-5.75819e+10
-2.80159e+07
-8.88361e+08
-5.75657e+10
-1.99075e+07
-8.09544e+08
-5.75731e+10
-1.23306e+07
-7.25128e+08
-5.75964e+10
-5.24104e+06
-6.40191e+08
-5.76324e+10
1.14864e+06
-5.56342e+08
-5.7674e+10
6.50626e+06
-4.75908e+08
-5.77118e+10
1.08982e+07
-3.98752e+08
-5.77423e+10
1.33574e+07
-3.22081e+08
-5.77549e+10
1.39044e+07
-2.4864e+08
-5.77413e+10
1.25278e+07
-1.75741e+08
-5.76932e+10
1.01364e+07
-1.01815e+08
-5.75977e+10
6.37209e+06
-3.11866e+07
-5.74357e+10
-246643
3.598e+07
-5.71869e+10
-1.11616e+07
9.54624e+07
-5.68221e+10
-2.65809e+07
1.45628e+08
-5.63256e+10
-4.76737e+07
1.97153e+08
-5.56738e+10
-7.56681e+07
2.38666e+08
-5.48413e+10
-1.17815e+08
2.65854e+08
-5.37909e+10
-1.89514e+08
2.77864e+08
-5.24518e+10
-3.0581e+08
2.68463e+08
-5.07142e+10
-4.19186e+08
1.40545e+08
-4.87914e+10
-2.54055e+08
-2.17065e+08
-4.66766e+10
1.66724e+08
-2.71481e+08
-4.18071e+10
-7.4425e+08
1.80538e+09
-1.50515e+10
-1.18674e+10
2.30648e+09
-6.72192e+09
-6.71556e+08
-6.65263e+10
-1.85877e+08
-6.65402e+10
-4.57048e+07
-6.65568e+10
-9.94875e+06
-6.65712e+10
3.18587e+07
-6.66178e+10
5.32577e+07
-6.66607e+10
8.12689e+07
-6.66875e+10
1.10392e+08
-6.6719e+10
1.30436e+08
-6.67547e+10
1.43632e+08
-6.67884e+10
1.42698e+08
-6.68157e+10
1.31001e+08
-6.68316e+10
1.0595e+08
-6.68346e+10
6.7593e+07
-6.68247e+10
1.72089e+07
-6.67959e+10
-4.87816e+07
-6.67507e+10
-1.25337e+08
-6.66892e+10
-2.12998e+08
-6.6607e+10
-3.11114e+08
-6.65053e+10
-4.15392e+08
-6.63799e+10
-5.2402e+08
-6.6231e+10
-6.29286e+08
-6.60627e+10
-7.26739e+08
-6.58799e+10
-8.05148e+08
-6.56901e+10
-8.56993e+08
-6.54986e+10
-8.79073e+08
-6.53137e+10
-8.67768e+08
-6.5139e+10
-8.28544e+08
-6.49776e+10
-7.68477e+08
-6.48308e+10
-6.92248e+08
-6.46953e+10
-6.09031e+08
-6.45719e+10
-5.21204e+08
-6.44547e+10
-4.3386e+08
-6.4344e+10
-3.48198e+08
-6.42366e+10
-2.66112e+08
-6.41273e+10
-1.87399e+08
-6.40193e+10
-1.08513e+08
-6.39103e+10
-3.25236e+07
-6.37995e+10
4.41745e+07
-6.36855e+10
1.23965e+08
-6.35651e+10
2.04656e+08
-6.34334e+10
2.88697e+08
-6.32879e+10
3.73491e+08
-6.31189e+10
4.58528e+08
-6.29253e+10
5.48164e+08
-6.26999e+10
6.33161e+08
-6.24421e+10
7.09278e+08
-6.21607e+10
7.73415e+08
-6.18439e+10
7.96566e+08
-6.12556e+10
6.52119e+08
-5.96131e+10
3.37184e+08
-5.51075e+10
1.66232e+08
-4.78438e+10
4.375e+08
-4.95888e+10
5.64237e+09
2.03597e+09
-5.50347e+10
-828695
-1.26804e+08
-5.49591e+10
-2.54672e+07
3.9809e+07
-5.49373e+10
-3.44819e+07
8.39278e+07
-5.48756e+10
-3.79778e+07
1.4291e+08
-5.48498e+10
-3.64745e+07
1.89433e+08
-5.48406e+10
-2.93922e+07
2.15377e+08
-5.48352e+10
-2.14315e+07
2.32855e+08
-5.48312e+10
-1.48425e+07
2.43702e+08
-5.48262e+10
-7.79274e+06
2.42968e+08
-5.4819e+10
-766617
2.26578e+08
-5.48091e+10
5.25153e+06
1.95639e+08
-5.47943e+10
1.09204e+07
1.48428e+08
-5.47743e+10
1.72557e+07
8.39113e+07
-5.47397e+10
2.33447e+07
-4.67633e+06
-5.46817e+10
2.76222e+07
-1.17357e+08
-5.45874e+10
2.92405e+07
-2.51772e+08
-5.44467e+10
2.86366e+07
-4.07486e+08
-5.42531e+10
2.65123e+07
-5.7895e+08
-5.39996e+10
2.29765e+07
-7.61314e+08
-5.36792e+10
1.85268e+07
-9.49922e+08
-5.32889e+10
1.28314e+07
-1.13685e+09
-5.28285e+10
6.92731e+06
-1.31151e+09
-5.23099e+10
197601
-1.4569e+09
-5.17479e+10
-5.66803e+06
-1.55692e+09
-5.11675e+10
-1.04511e+07
-1.60159e+09
-5.05911e+10
-1.30916e+07
-1.58901e+09
-5.0042e+10
-1.35357e+07
-1.52566e+09
-4.95378e+10
-1.1655e+07
-1.42441e+09
-4.909e+10
-7.66698e+06
-1.29557e+09
-4.8706e+10
-1.9354e+06
-1.15259e+09
-4.83885e+10
5.2926e+06
-1.00186e+09
-4.81384e+10
1.39365e+07
-8.50632e+08
-4.79542e+10
2.38086e+07
-7.02272e+08
-4.78355e+10
3.44791e+07
-5.57234e+08
-4.77794e+10
4.57497e+07
-4.16873e+08
-4.77801e+10
5.77018e+07
-2.81085e+08
-4.7835e+10
7.0106e+07
-1.48096e+08
-4.79353e+10
8.223e+07
-2.02305e+07
-4.80731e+10
9.38757e+07
1.06083e+08
-4.82404e+10
1.04449e+08
2.27065e+08
-4.84273e+10
1.139e+08
3.41599e+08
-4.86252e+10
1.21852e+08
4.46892e+08
-4.88131e+10
1.27381e+08
5.30172e+08
-4.89613e+10
1.28748e+08
5.9282e+08
-4.90217e+10
1.19692e+08
6.07643e+08
-4.89372e+10
9.20785e+07
5.58551e+08
-4.86007e+10
1.83976e+07
4.07576e+08
-4.7841e+10
-1.4022e+08
1.29551e+08
-4.66195e+10
-2.87944e+08
-3.08455e+08
-4.61975e+10
1.95399e+08
-3.54842e+08
-4.70935e+10
9.44273e+08
3.13985e+08
-3.95861e+10
-2.40311e+09
-2.59945e+09
-1.19605e+10
-1.03179e+10
-1.46323e+10
-3.15434e+09
-8.62256e+09
-5.94492e+10
-2.9985e+08
-5.93864e+10
-1.32368e+08
-5.93557e+10
-7.46836e+07
-5.93347e+10
-2.78141e+07
-5.93443e+10
2.46338e+07
-5.93656e+10
7.1008e+07
-5.93816e+10
1.02484e+08
-5.93957e+10
1.27318e+08
-5.94058e+10
1.43739e+08
-5.94122e+10
1.46258e+08
-5.94137e+10
1.35624e+08
-5.94076e+10
1.08114e+08
-5.93905e+10
6.39847e+07
-5.93519e+10
-3.74191e+06
-5.92876e+10
-9.36983e+07
-5.91916e+10
-2.03685e+08
-5.90564e+10
-3.34731e+08
-5.88766e+10
-4.82697e+08
-5.86455e+10
-6.43206e+08
-5.83574e+10
-8.13228e+08
-5.80071e+10
-9.83787e+08
-5.75952e+10
-1.1467e+09
-5.71281e+10
-1.2838e+09
-5.66183e+10
-1.38094e+09
-5.60845e+10
-1.42757e+09
-5.55438e+10
-1.42205e+09
-5.50132e+10
-1.37005e+09
-5.45042e+10
-1.28357e+09
-5.40241e+10
-1.17189e+09
-5.35759e+10
-1.04805e+09
-5.31595e+10
-9.17997e+08
-5.27729e+10
-7.88488e+08
-5.24128e+10
-6.62391e+08
-5.20768e+10
-5.40506e+08
-5.17601e+10
-4.24963e+08
-5.1458e+10
-3.11767e+08
-5.11693e+10
-2.002e+08
-5.08863e+10
-9.33179e+07
-5.06038e+10
1.36367e+07
-5.03178e+10
1.19472e+08
-5.0023e+10
2.25349e+08
-4.97162e+10
3.31041e+08
-4.9388e+10
4.28394e+08
-4.90237e+10
5.13959e+08
-4.86072e+10
5.67191e+08
-4.81271e+10
5.72853e+08
-4.75762e+10
4.96996e+08
-4.69416e+10
2.67879e+08
-4.6067e+10
-2.63417e+08
-4.41325e+10
-1.10938e+09
-4.04817e+10
-2.2191e+09
-3.77387e+10
-4.36833e+09
-2.68044e+10
-1.55275e+10
-8.76441e+09
-6.02383e+10
3.52207e+08
-4.90077e+08
-6.02364e+10
3.55742e+08
-3.19176e+08
-6.02614e+10
3.60323e+08
-2.54797e+08
-6.02954e+10
3.71137e+08
-1.9977e+08
-6.03447e+10
3.80909e+08
-1.49985e+08
-6.04121e+10
3.91998e+08
-1.18679e+08
-6.04924e+10
4.02912e+08
-1.00451e+08
-6.05807e+10
4.13786e+08
-9.31052e+07
-6.06728e+10
4.24818e+08
-1.01578e+08
-6.07649e+10
4.34901e+08
-1.28347e+08
-6.08501e+10
4.44724e+08
-1.766e+08
-6.09238e+10
4.54076e+08
-2.46046e+08
-6.09808e+10
4.63523e+08
-3.39111e+08
-6.10163e+10
4.72104e+08
-4.62178e+08
-6.10269e+10
4.80136e+08
-6.12944e+08
-6.10082e+10
4.87442e+08
-7.91613e+08
-6.09564e+10
4.94103e+08
-9.94707e+08
-6.08644e+10
4.99831e+08
-1.22051e+09
-6.07254e+10
5.05252e+08
-1.46073e+09
-6.05352e+10
5.10283e+08
-1.71105e+09
-6.02848e+10
5.16155e+08
-1.96266e+09
-5.99735e+10
5.22359e+08
-2.20398e+09
-5.9605e+10
5.29836e+08
-2.40949e+09
-5.9195e+10
5.38451e+08
-2.55464e+09
-5.87656e+10
5.48321e+08
-2.62322e+09
-5.83377e+10
5.58689e+08
-2.61574e+09
-5.79286e+10
5.68588e+08
-2.54215e+09
-5.75489e+10
5.77214e+08
-2.4198e+09
-5.72012e+10
5.83864e+08
-2.26591e+09
-5.68884e+10
5.88166e+08
-2.09243e+09
-5.66081e+10
5.89974e+08
-1.91082e+09
-5.63589e+10
5.89303e+08
-1.72736e+09
-5.61406e+10
5.86045e+08
-1.5439e+09
-5.59511e+10
5.80051e+08
-1.36245e+09
-5.57923e+10
5.71362e+08
-1.18033e+09
-5.56667e+10
5.615e+08
-9.9721e+08
-5.55793e+10
5.49464e+08
-8.08291e+08
-5.55358e+10
5.34455e+08
-6.13115e+08
-5.55394e+10
5.15399e+08
-4.09863e+08
-5.55991e+10
4.91208e+08
-1.94761e+08
-5.57227e+10
4.60523e+08
3.05062e+07
-5.5921e+10
4.22405e+08
2.67388e+08
-5.62121e+10
3.75948e+08
5.09991e+08
-5.66166e+10
3.2273e+08
7.59038e+08
-5.71717e+10
2.57042e+08
1.0031e+09
-5.79141e+10
1.74182e+08
1.21776e+09
-5.88667e+10
5.61191e+07
1.35185e+09
-6.00429e+10
-1.20757e+08
1.37875e+09
-6.13316e+10
-3.40054e+08
1.13675e+09
-6.15268e+10
-6.84595e+08
2.85372e+08
-5.79009e+10
-1.73369e+09
-1.96238e+09
-4.98843e+10
-4.14576e+09
-6.98691e+09
-3.64262e+10
-1.12469e+10
-1.70518e+10
-4.54966e+09
-6.50761e+09
-6.12502e+10
6.86229e+07
-6.13091e+10
2.80662e+08
-6.13771e+10
3.50841e+08
-6.14595e+10
4.21468e+08
-6.15589e+10
4.9946e+08
-6.16704e+10
5.68077e+08
-6.17941e+10
6.21841e+08
-6.19264e+10
6.65834e+08
-6.20621e+10
6.96373e+08
-6.22014e+10
7.1216e+08
-6.23385e+10
7.08655e+08
-6.24716e+10
6.85275e+08
-6.25949e+10
6.38843e+08
-6.2705e+10
5.6361e+08
-6.27985e+10
4.60871e+08
-6.2868e+10
3.29233e+08
-6.29093e+10
1.71219e+08
-6.29158e+10
-1.11566e+07
-6.28816e+10
-2.10977e+08
-6.28013e+10
-4.24095e+08
-6.26675e+10
-6.42928e+08
-6.24761e+10
-8.55715e+08
-6.22302e+10
-1.0368e+09
-6.19428e+10
-1.16237e+09
-6.16353e+10
-1.21507e+09
-6.13283e+10
-1.19626e+09
-6.10398e+10
-1.115e+09
-6.07824e+10
-9.89002e+08
-6.05603e+10
-8.35972e+08
-6.03777e+10
-6.68693e+08
-6.02323e+10
-4.9971e+08
-6.01219e+10
-3.35817e+08
-6.0045e+10
-1.78979e+08
-5.99974e+10
-3.2754e+07
-5.99779e+10
1.0398e+08
-5.99843e+10
2.35722e+08
-6.00145e+10
3.63148e+08
-6.0069e+10
4.84481e+08
-6.01456e+10
6.01408e+08
-6.02489e+10
7.1802e+08
-6.03812e+10
8.32056e+08
-6.05483e+10
9.4515e+08
-6.07604e+10
1.0524e+09
-6.1029e+10
1.15135e+09
-6.13864e+10
1.23217e+09
-6.18703e+10
1.27155e+09
-6.25433e+10
1.23178e+09
-6.34717e+10
1.01853e+09
-6.46382e+10
4.30978e+08
-6.5697e+10
-9.76467e+08
-6.61236e+10
-3.85813e+09
-6.52946e+10
-9.64285e+09
-7.04504e+10
-2.19895e+10
-4.35553e+09
-5.8457e+10
1.67866e+08
-6.26061e+08
-5.85077e+10
1.8448e+08
-4.57324e+08
-5.85657e+10
1.92385e+08
-3.94807e+08
-5.86478e+10
2.027e+08
-3.2767e+08
-5.87412e+10
2.06566e+08
-2.7198e+08
-5.88485e+10
2.07469e+08
-2.2899e+08
-5.89679e+10
2.06916e+08
-1.99075e+08
-5.90968e+10
2.07634e+08
-1.83923e+08
-5.9233e+10
2.08095e+08
-1.86174e+08
-5.93729e+10
2.07205e+08
-2.08883e+08
-5.9518e+10
2.03819e+08
-2.49521e+08
-5.96587e+10
1.98529e+08
-3.19674e+08
-5.97876e+10
1.91675e+08
-4.20566e+08
-5.99009e+10
1.82794e+08
-5.55113e+08
-5.99906e+10
1.71763e+08
-7.24995e+08
-6.00482e+10
1.58877e+08
-9.30789e+08
-6.00632e+10
1.44467e+08
-1.17109e+09
-6.00288e+10
1.29167e+08
-1.43924e+09
-5.99371e+10
1.13845e+08
-1.73033e+09
-5.97804e+10
9.93993e+07
-2.03704e+09
-5.95462e+10
8.69984e+07
-2.35608e+09
-5.92287e+10
7.80405e+07
-2.67201e+09
-5.88265e+10
7.56234e+07
-2.95129e+09
-5.83677e+10
8.07161e+07
-3.15144e+09
-5.78867e+10
9.56213e+07
-3.24807e+09
-5.74243e+10
1.18944e+08
-3.24322e+09
-5.7005e+10
1.49992e+08
-3.1586e+09
-5.66408e+10
1.86606e+08
-3.02145e+09
-5.6334e+10
2.2671e+08
-2.85437e+09
-5.60761e+10
2.68278e+08
-2.67735e+09
-5.58596e+10
3.09443e+08
-2.4987e+09
-5.56729e+10
3.4831e+08
-2.32708e+09
-5.55055e+10
3.83845e+08
-2.16225e+09
-5.53493e+10
4.16896e+08
-2.00447e+09
-5.51961e+10
4.48229e+08
-1.85201e+09
-5.50394e+10
4.77654e+08
-1.70208e+09
-5.48719e+10
5.06079e+08
-1.5516e+09
-5.46883e+10
5.33387e+08
-1.39765e+09
-5.4485e+10
5.58989e+08
-1.23613e+09
-5.42526e+10
5.82154e+08
-1.06823e+09
-5.39911e+10
6.01728e+08
-8.85807e+08
-5.36973e+10
6.16257e+08
-6.89059e+08
-5.33727e+10
6.23544e+08
-4.7829e+08
-5.30181e+10
6.21372e+08
-2.52764e+08
-5.2648e+10
6.05765e+08
-1.22214e+07
-5.23011e+10
5.70452e+08
2.36694e+08
-5.20718e+10
5.05549e+08
4.90206e+08
-5.20923e+10
3.94487e+08
7.59813e+08
-5.25647e+10
2.04308e+08
9.94239e+08
-5.3716e+10
-1.87884e+08
9.00392e+08
-5.57269e+10
-1.30045e+09
2.40565e+08
-5.8557e+10
-3.14001e+09
-2.06201e+09
-5.58831e+10
-7.35588e+09
-1.32664e+10
3.80658e+09
-6.57073e+09
-5.8885e+10
3.30582e+08
-5.89716e+10
5.48454e+08
-5.90526e+10
6.1967e+08
-5.91424e+10
7.08314e+08
-5.92389e+10
7.9589e+08
-5.93427e+10
8.71843e+08
-5.94557e+10
9.33509e+08
-5.95744e+10
9.83291e+08
-5.96971e+10
1.01775e+09
-5.982e+10
1.03229e+09
-5.9947e+10
1.02874e+09
-6.00728e+10
9.97418e+08
-6.01932e+10
9.36205e+08
-6.03072e+10
8.41934e+08
-6.04107e+10
7.1263e+08
-6.04995e+10
5.47606e+08
-6.05688e+10
3.49041e+08
-6.0618e+10
1.24958e+08
-6.0645e+10
-1.18101e+08
-6.06505e+10
-3.71701e+08
-6.06284e+10
-6.33345e+08
-6.05733e+10
-8.866e+08
-6.04844e+10
-1.09986e+09
-6.03792e+10
-1.22959e+09
-6.02809e+10
-1.25629e+09
-6.02112e+10
-1.1841e+09
-6.01778e+10
-1.03777e+09
-6.01779e+10
-8.45561e+08
-6.02039e+10
-6.30756e+08
-6.02421e+10
-4.13845e+08
-6.02843e+10
-2.03323e+08
-6.03246e+10
-5.5067e+06
-6.0364e+10
1.83382e+08
-6.04055e+10
3.62503e+08
-6.04495e+10
5.31475e+08
-6.04944e+10
6.9271e+08
-6.05373e+10
8.4637e+08
-6.05785e+10
9.94094e+08
-6.06218e+10
1.14033e+09
-6.06654e+10
1.28252e+09
-6.07172e+10
1.42696e+09
-6.07837e+10
1.57197e+09
-6.08784e+10
1.71655e+09
-6.10197e+10
1.85947e+09
-6.12449e+10
2.00087e+09
-6.16253e+10
2.13574e+09
-6.22931e+10
2.26459e+09
-6.34677e+10
2.35344e+09
-6.55444e+10
2.31689e+09
-6.94217e+10
2.09271e+09
-7.72718e+10
1.89955e+09
-9.12544e+10
2.01083e+08
-1.18003e+11
-3.51668e+09
-3.09503e+10
-6.01657e+10
-1.70824e+08
-3.65273e+08
-6.02664e+10
-1.55033e+08
-2.07532e+08
-6.03592e+10
-1.586e+08
-1.50733e+08
-6.04665e+10
-1.5731e+08
-7.16817e+07
-6.05795e+10
-1.6425e+08
-4.22706e+06
-6.0702e+10
-1.74813e+08
5.78752e+07
-6.08368e+10
-1.8665e+08
1.11099e+08
-6.09808e+10
-1.97522e+08
1.4548e+08
-6.11334e+10
-2.09577e+08
1.63058e+08
-6.12931e+10
-2.23562e+08
1.60874e+08
-6.14514e+10
-2.3987e+08
1.33945e+08
-6.16064e+10
-2.57465e+08
7.63044e+07
-6.17537e+10
-2.76088e+08
-1.7092e+07
-6.1887e+10
-2.95623e+08
-1.51195e+08
-6.20005e+10
-3.15477e+08
-3.27812e+08
-6.20856e+10
-3.34716e+08
-5.50846e+08
-6.21342e+10
-3.51923e+08
-8.18476e+08
-6.21358e+10
-3.66323e+08
-1.1284e+09
-6.20834e+10
-3.77582e+08
-1.47167e+09
-6.19706e+10
-3.86278e+08
-1.8388e+09
-6.17863e+10
-3.93415e+08
-2.23057e+09
-6.15059e+10
-3.98289e+08
-2.63527e+09
-6.1124e+10
-4.03169e+08
-3.00524e+09
-6.06655e+10
-4.09262e+08
-3.26336e+09
-6.0189e+10
-4.19606e+08
-3.36083e+09
-5.97442e+10
-4.34068e+08
-3.30895e+09
-5.93627e+10
-4.51283e+08
-3.15049e+09
-5.90559e+10
-4.6905e+08
-2.93102e+09
-5.88198e+10
-4.85166e+08
-2.68746e+09
-5.86442e+10
-4.98081e+08
-2.44655e+09
-5.85159e+10
-5.07062e+08
-2.2201e+09
-5.84255e+10
-5.11627e+08
-2.01365e+09
-5.83643e+10
-5.12026e+08
-1.82609e+09
-5.83261e+10
-5.09052e+08
-1.655e+09
-5.83055e+10
-5.03333e+08
-1.49648e+09
-5.83004e+10
-4.97255e+08
-1.34281e+09
-5.83062e+10
-4.91477e+08
-1.19211e+09
-5.83235e+10
-4.85722e+08
-1.03681e+09
-5.83494e+10
-4.79271e+08
-8.7676e+08
-5.83891e+10
-4.72402e+08
-7.0577e+08
-5.84426e+10
-4.65533e+08
-5.2012e+08
-5.85169e+10
-4.59195e+08
-3.13813e+08
-5.86253e+10
-4.53941e+08
-8.04508e+07
-5.87833e+10
-4.50892e+08
1.82144e+08
-5.90233e+10
-4.51435e+08
4.86377e+08
-5.94138e+10
-4.54371e+08
8.4522e+08
-6.00938e+10
-4.56983e+08
1.29847e+09
-6.12735e+10
-4.84988e+08
1.91879e+09
-6.32359e+10
-6.48483e+08
2.79361e+09
-6.67074e+10
-9.51843e+08
4.08112e+09
-7.34017e+10
-1.09334e+09
6.41253e+09
-8.63053e+10
-5.01078e+08
9.48231e+09
-1.17732e+11
1.78613e+09
1.48248e+10
-2.80248e+10
-2.10347e+10
-5.31149e+10
2.33313e+08
-5.31436e+10
4.1788e+08
-5.31784e+10
4.90658e+08
-5.32169e+10
5.83682e+08
-5.3258e+10
6.66351e+08
-5.33082e+10
7.40169e+08
-5.33758e+10
8.06861e+08
-5.34556e+10
8.57314e+08
-5.35479e+10
8.91695e+08
-5.36529e+10
9.04438e+08
-5.37664e+10
8.9211e+08
-5.38879e+10
8.49526e+08
-5.40141e+10
7.71632e+08
-5.414e+10
6.53334e+08
-5.426e+10
4.92974e+08
-5.43644e+10
2.86956e+08
-5.44412e+10
3.73595e+07
-5.44713e+10
-2.54198e+08
-5.44368e+10
-5.79799e+08
-5.43229e+10
-9.28521e+08
-5.41109e+10
-1.29886e+09
-5.37764e+10
-1.67845e+09
-5.33145e+10
-2.01623e+09
-5.27665e+10
-2.22962e+09
-5.22121e+10
-2.26812e+09
-5.17231e+10
-2.14491e+09
-5.1347e+10
-1.90895e+09
-5.11041e+10
-1.60971e+09
-5.09927e+10
-1.2879e+09
-5.09998e+10
-9.72748e+08
-5.1107e+10
-6.77535e+08
-5.12955e+10
-4.08483e+08
-5.15423e+10
-1.66537e+08
-5.18246e+10
4.70764e+07
-5.21245e+10
2.35788e+08
-5.24319e+10
4.07727e+08
-5.27413e+10
5.6681e+08
-5.30512e+10
7.19047e+08
-5.33545e+10
8.63878e+08
-5.36491e+10
1.00312e+09
-5.39261e+10
1.1358e+09
-5.41802e+10
1.26264e+09
-5.44071e+10
1.38286e+09
-5.46003e+10
1.49036e+09
-5.47619e+10
1.58729e+09
-5.49108e+10
1.6758e+09
-5.50956e+10
1.7719e+09
-5.54753e+10
1.90409e+09
-5.65801e+10
2.2334e+09
-5.92388e+10
3.01899e+09
-6.3257e+10
3.7827e+09
-6.85719e+10
4.02681e+09
-8.69747e+10
1.62452e+10
5.68469e+09
-6.00518e+10
-2.96794e+08
-5.52179e+07
-6.00617e+10
-3.05908e+08
1.05208e+08
-6.00812e+10
-3.16911e+08
1.82325e+08
-6.01108e+10
-3.25411e+08
2.80026e+08
-6.01523e+10
-3.34733e+08
3.68655e+08
-6.02037e+10
-3.45145e+08
4.50873e+08
-6.02667e+10
-3.55558e+08
5.25875e+08
-6.03438e+10
-3.64972e+08
5.8348e+08
-6.04329e+10
-3.74035e+08
6.21948e+08
-6.05323e+10
-3.82812e+08
6.38768e+08
-6.06392e+10
-3.90267e+08
6.26253e+08
-6.07486e+10
-3.95681e+08
5.75307e+08
-6.08586e+10
-3.98741e+08
4.82852e+08
-6.09658e+10
-3.99439e+08
3.42249e+08
-6.10598e+10
-3.98054e+08
1.45592e+08
-6.11324e+10
-3.95146e+08
-1.08178e+08
-6.11704e+10
-3.91221e+08
-4.20202e+08
-6.11641e+10
-3.87414e+08
-7.84534e+08
-6.1107e+10
-3.84258e+08
-1.18926e+09
-6.09934e+10
-3.81459e+08
-1.62573e+09
-6.08116e+10
-3.77735e+08
-2.09485e+09
-6.05256e+10
-3.72099e+08
-2.6042e+09
-6.01037e+10
-3.66089e+08
-3.10418e+09
-5.95772e+10
-3.61267e+08
-3.45118e+09
-5.90493e+10
-3.62132e+08
-3.53861e+09
-5.86019e+10
-3.67718e+08
-3.39704e+09
-5.82688e+10
-3.77823e+08
-3.12184e+09
-5.8053e+10
-3.90442e+08
-2.78354e+09
-5.79365e+10
-4.04122e+08
-2.43743e+09
-5.78973e+10
-4.17691e+08
-2.11412e+09
-5.79129e+10
-4.30302e+08
-1.82649e+09
-5.79685e+10
-4.41353e+08
-1.57413e+09
-5.80509e+10
-4.50716e+08
-1.35446e+09
-5.81503e+10
-4.58954e+08
-1.16145e+09
-5.82631e+10
-4.66113e+08
-9.85062e+08
-5.83819e+10
-4.7215e+08
-8.21089e+08
-5.85045e+10
-4.75845e+08
-6.63921e+08
-5.8623e+10
-4.76006e+08
-5.1214e+08
-5.87345e+10
-4.70961e+08
-3.62518e+08
-5.8833e+10
-4.58343e+08
-2.14248e+08
-5.89142e+10
-4.34946e+08
-6.50202e+07
-5.89742e+10
-3.97274e+08
8.80708e+07
-5.90082e+10
-3.41636e+08
2.4752e+08
-5.90101e+10
-2.63484e+08
4.10765e+08
-5.89749e+10
-1.57634e+08
5.81656e+08
-5.88958e+10
-1.72536e+07
7.54365e+08
-5.8755e+10
1.5611e+08
9.3785e+08
-5.85027e+10
3.26507e+08
1.19337e+09
-5.82315e+10
5.28357e+08
1.67577e+09
-5.831e+10
9.35202e+08
2.73237e+09
-5.87748e+10
1.39347e+09
4.83094e+09
-5.92598e+10
1.76254e+09
7.77858e+09
-7.21571e+10
7.99682e+09
1.98183e+10
2.67467e+09
5.77186e+09
-5.70204e+10
-5.18137e+07
-5.70341e+10
1.25138e+08