/*--------------------------------*- C++ -*----------------------------------*\
| =========                 |                                                 |
| \\      /  F ield         | OpenFOAM: The Open Source CFD Toolbox           |
|  \\    /   O peration     | Version:  4.1                                   |
|   \\  /    A nd           | Web:      www.OpenFOAM.org                      |
|    \\/     M anipulation  |                                                 |
\*---------------------------------------------------------------------------*/
FoamFile
{
    version     2.0;
    format      ascii;
    class       surfaceScalarField;
    location    "33";
    object      phi;
}
// * * * * * * * * * * * * * * * * * * * * * * * * * * * * * * * * * * * * * //

dimensions      [0 3 -1 0 0 0 0];

internalField   nonuniform List<scalar> 
11516
(
-4.20371e+10
-4.53619e+08
-5.75561e+09
-3.91747e+10
-7.7093e+07
-2.84256e+09
-3.76967e+10
6.85267e+07
-1.56238e+09
-3.53314e+10
-3.6202e+08
-1.98369e+09
-3.43874e+10
2.15901e+08
-1.12429e+09
-3.36586e+10
2.37342e+07
-7.06871e+08
-3.28261e+10
-8.71641e+07
-7.02515e+08
-3.22984e+10
-3.63052e+07
-4.55909e+08
-3.18595e+10
-3.565e+07
-3.77439e+08
-3.15188e+10
-2.51628e+07
-2.99388e+08
-3.12486e+10
-1.93825e+07
-2.42841e+08
-3.10127e+10
-1.98328e+07
-2.14281e+08
-3.07892e+10
-2.67433e+07
-1.9926e+08
-3.05675e+10
-3.341e+07
-1.9451e+08
-3.03455e+10
-3.58895e+07
-1.9834e+08
-3.01243e+10
-3.76676e+07
-2.01826e+08
-2.99023e+10
-4.03552e+07
-2.05445e+08
-2.9675e+10
-4.2897e+07
-2.09518e+08
-2.94318e+10
-4.52925e+07
-2.23538e+08
-2.91701e+10
-4.54915e+07
-2.40738e+08
-2.88846e+10
-4.60538e+07
-2.63505e+08
-2.85759e+10
-4.61298e+07
-2.84095e+08
-2.82444e+10
-4.60218e+07
-3.05602e+08
-2.78964e+10
-4.53877e+07
-3.21514e+08
-2.75363e+10
-4.42945e+07
-3.3496e+08
-2.71733e+10
-4.2594e+07
-3.40766e+08
-2.68129e+10
-4.01612e+07
-3.4277e+08
-2.64645e+10
-3.69375e+07
-3.36807e+08
-2.61335e+10
-3.29495e+07
-3.2689e+08
-2.58263e+10
-2.84126e+07
-3.11728e+08
-2.55488e+10
-2.37267e+07
-2.91917e+08
-2.53058e+10
-1.95992e+07
-2.67906e+08
-2.51055e+10
-1.66395e+07
-2.35382e+08
-2.49498e+10
-1.49632e+07
-2.01292e+08
-2.48364e+10
-1.50751e+07
-1.68683e+08
-2.47658e+10
-1.75842e+07
-1.33483e+08
-2.47367e+10
-2.29531e+07
-9.60995e+07
-2.47504e+10
-3.19088e+07
-5.17391e+07
-2.48048e+10
-4.51821e+07
-1.5782e+06
-2.48987e+10
-6.29768e+07
5.68695e+07
-2.50315e+10
-8.56942e+07
1.25126e+08
-2.52029e+10
-1.14345e+08
2.04018e+08
-2.54148e+10
-1.50183e+08
2.96615e+08
-2.56744e+10
-1.94595e+08
4.06288e+08
-2.6002e+10
-2.47881e+08
5.41066e+08
-2.64427e+10
-3.12322e+08
7.11979e+08
-2.70665e+10
-3.97333e+08
9.31099e+08
-2.79467e+10
-5.25818e+08
1.20233e+09
-2.9123e+10
-7.5217e+08
1.5271e+09
-3.06856e+10
-1.13027e+09
1.97647e+09
-3.3428e+10
-1.73986e+09
3.45356e+09
-3.67764e+10
-1.97777e+09
4.49025e+09
-4.45469e+10
-3.1736e+09
1.04107e+10
-5.17665e+09
1.77513e+10
-4.43771e+10
-4.08194e+09
-4.22858e+10
-2.17555e+09
-4.06111e+10
-1.59647e+09
-3.97314e+10
-1.22363e+09
-3.83217e+10
-1.16861e+09
-3.75376e+10
-7.36298e+08
-3.69229e+10
-6.83087e+08
-3.64534e+10
-4.92569e+08
-3.60511e+10
-4.29741e+08
-3.5728e+10
-3.44226e+08
-3.546e+10
-2.86234e+08
-3.52288e+10
-2.51803e+08
-3.50185e+10
-2.39128e+08
-3.4818e+10
-2.38351e+08
-3.46188e+10
-2.42598e+08
-3.4419e+10
-2.48986e+08
-3.42185e+10
-2.54559e+08
-3.40126e+10
-2.63529e+08
-3.37926e+10
-2.79783e+08
-3.35536e+10
-2.98681e+08
-3.32906e+10
-3.2197e+08
-3.30054e+10
-3.43145e+08
-3.26966e+10
-3.65373e+08
-3.23701e+10
-3.82089e+08
-3.20277e+10
-3.96953e+08
-3.16768e+10
-4.0443e+08
-3.13201e+10
-4.08936e+08
-3.09647e+10
-4.05921e+08
-3.06132e+10
-3.99855e+08
-3.027e+10
-3.89392e+08
-2.99387e+10
-3.75476e+08
-2.96217e+10
-3.60538e+08
-2.93243e+10
-3.42058e+08
-2.90488e+10
-3.23093e+08
-2.8799e+10
-3.02627e+08
-2.85794e+10
-2.79985e+08
-2.83929e+10
-2.56818e+08
-2.82462e+10
-2.28982e+08
-2.81438e+10
-1.98642e+08
-2.80926e+10
-1.62962e+08
-2.81015e+10
-1.20248e+08
-2.81809e+10
-6.98442e+07
-2.83454e+10
-9.7895e+06
-2.8616e+10
6.32019e+07
-2.90255e+10
1.55545e+08
-2.96291e+10
2.77545e+08
-3.05236e+10
4.44465e+08
-3.18447e+10
6.63271e+08
-3.38496e+10
9.73559e+08
-3.6954e+10
1.45785e+09
-4.23704e+10
3.1453e+09
-5.059e+10
5.72408e+09
-6.47812e+10
1.07087e+10
1.22757e+10
-4.43851e+10
-4.01397e+06
-6.36392e+09
-4.39614e+10
-6.24593e+07
-3.14448e+09
-4.34865e+10
-8.24231e+07
-1.92111e+09
-4.33519e+10
1.35829e+08
-2.22994e+09
-4.26927e+10
3.88514e+07
-1.8042e+09
-4.23996e+10
1.11452e+08
-1.10361e+09
-4.22605e+10
1.32906e+08
-9.76528e+08
-4.20577e+10
1.5836e+08
-8.23193e+08
-4.19157e+10
1.5203e+08
-6.78067e+08
-4.18419e+10
1.703e+08
-5.48388e+08
-4.17991e+10
1.72216e+08
-4.60652e+08
-4.17873e+10
1.74524e+08
-4.01885e+08
-4.17971e+10
1.74385e+08
-3.63701e+08
-4.18277e+10
1.76142e+08
-3.41402e+08
-4.1878e+10
1.79099e+08
-3.3105e+08
-4.19448e+10
1.80528e+08
-3.24957e+08
-4.20173e+10
1.82259e+08
-3.2745e+08
-4.20904e+10
1.83541e+08
-3.34085e+08
-4.21649e+10
1.83648e+08
-3.45236e+08
-4.22444e+10
1.85735e+08
-3.59107e+08
-4.23289e+10
1.88011e+08
-3.76787e+08
-4.24181e+10
1.90419e+08
-3.93451e+08
-4.25151e+10
1.92974e+08
-4.08382e+08
-4.2619e+10
1.95733e+08
-4.19293e+08
-4.27355e+10
1.98719e+08
-4.23162e+08
-4.28617e+10
2.02023e+08
-4.22743e+08
-4.30011e+10
2.05701e+08
-4.15801e+08
-4.31501e+10
2.09843e+08
-4.05278e+08
-4.33092e+10
2.14567e+08
-3.90953e+08
-4.34739e+10
2.19807e+08
-3.76792e+08
-4.3641e+10
2.25382e+08
-3.61689e+08
-4.3806e+10
2.30597e+08
-3.47184e+08
-4.39623e+10
2.34755e+08
-3.29984e+08
-4.41054e+10
2.39301e+08
-3.16513e+08
-4.42287e+10
2.45693e+08
-3.13244e+08
-4.43381e+10
2.53103e+08
-3.02188e+08
-4.44354e+10
2.62128e+08
-2.87813e+08
-4.45113e+10
2.72736e+08
-2.75027e+08
-4.45556e+10
2.84167e+08
-2.64836e+08
-4.45558e+10
2.97014e+08
-2.56174e+08
-4.44994e+10
3.11839e+08
-2.48578e+08
-4.43738e+10
3.2822e+08
-2.40326e+08
-4.41608e+10
3.455e+08
-2.3487e+08
-4.38424e+10
3.63797e+08
-2.29233e+08
-4.33959e+10
3.8251e+08
-2.23122e+08
-4.27909e+10
4.01358e+08
-2.18531e+08
-4.19831e+10
4.18545e+08
-2.24797e+08
-4.09317e+10
4.29887e+08
-2.4036e+08
-3.96625e+10
4.49538e+08
-2.13361e+08
-3.82744e+10
4.51402e+08
3.10385e+07
-3.57042e+10
5.12495e+08
1.81357e+08
-3.26692e+10
1.25369e+09
-1.3411e+07
-1.69049e+10
-1.64793e+09
-3.81898e+09
-1.77262e+09
-1.73404e+08
-4.89153e+10
-5.09328e+09
-4.83389e+10
-2.77905e+09
-4.79905e+10
-2.0029e+09
-4.7638e+10
-1.42255e+09
-4.73035e+10
-1.45418e+09
-4.7009e+10
-9.16982e+08
-4.68569e+10
-7.04261e+08
-4.66274e+10
-5.67402e+08
-4.64823e+10
-4.26322e+08
-4.6376e+10
-2.82721e+08
-4.63004e+10
-1.91034e+08
-4.62429e+10
-1.35283e+08
-4.62066e+10
-1.01405e+08
-4.61892e+10
-8.05918e+07
-4.61836e+10
-7.23368e+07
-4.61875e+10
-7.01714e+07
-4.61919e+10
-7.52114e+07
-4.61943e+10
-8.52369e+07
-4.62003e+10
-9.74849e+07
-4.62065e+10
-1.12947e+08
-4.62144e+10
-1.31032e+08
-4.62232e+10
-1.47835e+08
-4.62365e+10
-1.62206e+08
-4.62533e+10
-1.72269e+08
-4.62801e+10
-1.74076e+08
-4.63145e+10
-1.70785e+08
-4.63612e+10
-1.59642e+08
-4.64172e+10
-1.43558e+08
-4.64845e+10
-1.22087e+08
-4.65592e+10
-9.96724e+07
-4.66395e+10
-7.54338e+07
-4.67232e+10
-5.31049e+07
-4.68079e+10
-3.08663e+07
-4.68948e+10
-6.914e+06
-4.698e+10
1.65593e+07
-4.706e+10
3.97184e+07
-4.71296e+10
6.08811e+07
-4.71808e+10
8.15546e+07
-4.7205e+10
9.89929e+07
-4.71906e+10
1.13954e+08
-4.71227e+10
1.25408e+08
-4.69895e+10
1.36879e+08
-4.67759e+10
1.45562e+08
-4.64648e+10
1.52266e+08
-4.60357e+10
1.56756e+08
-4.54597e+10
1.56543e+08
-4.46916e+10
1.42024e+08
-4.36933e+10
1.16032e+08
-4.24045e+10
1.11331e+08
-4.08508e+10
2.7489e+08
-3.75228e+10
1.79136e+08
-2.90693e+10
-1.552e+09
-1.56672e+10
-4.3016e+09
-1.26862e+09
-4.01863e+10
-2.69847e+08
-6.91234e+09
-3.90043e+10
3.63868e+07
-4.2858e+09
-3.74214e+10
-1.59563e+08
-3.29301e+09
-3.7341e+10
5.7972e+07
-2.34082e+09
-3.66271e+10
-1.70798e+08
-2.338e+09
-3.60571e+10
-8.30778e+06
-1.66936e+09
-3.58622e+10
2.10282e+07
-1.20132e+09
-3.56889e+10
1.16184e+07
-1.01759e+09
-3.54488e+10
-2.38175e+07
-9.0145e+08
-3.51952e+10
-2.11302e+07
-7.85096e+08
-3.49325e+10
-2.6512e+07
-6.98153e+08
-3.46932e+10
-2.50727e+07
-6.14904e+08
-3.44738e+10
-2.62646e+07
-5.53817e+08
-3.42702e+10
-2.61636e+07
-5.15432e+08
-3.4081e+10
-2.0565e+07
-4.97417e+08
-3.39007e+10
-1.94226e+07
-4.86922e+08
-3.37238e+10
-1.7573e+07
-4.89814e+08
-3.35343e+10
-1.93824e+07
-5.08554e+08
-3.33253e+10
-2.10885e+07
-5.3585e+08
-3.30946e+10
-2.17936e+07
-5.68985e+08
-3.28423e+10
-2.19681e+07
-6.03959e+08
-3.25681e+10
-2.25433e+07
-6.4089e+08
-3.22753e+10
-2.28425e+07
-6.71441e+08
-3.19708e+10
-2.33331e+07
-6.93304e+08
-3.16598e+10
-2.35129e+07
-7.02204e+08
-3.13524e+10
-2.35843e+07
-6.97049e+08
-3.10565e+10
-2.35642e+07
-6.77515e+08
-3.07799e+10
-2.35703e+07
-6.46521e+08
-3.05283e+10
-2.37768e+07
-6.05601e+08
-3.0309e+10
-2.42897e+07
-5.57493e+08
-3.01237e+10
-2.4688e+07
-5.06908e+08
-2.99756e+10
-2.43822e+07
-4.5517e+08
-2.98624e+10
-2.3387e+07
-4.04286e+08
-2.9788e+10
-2.34961e+07
-3.53073e+08
-2.97577e+10
-2.57502e+07
-3.05191e+08
-2.97541e+10
-3.00899e+07
-2.64629e+08
-2.97603e+10
-3.56574e+07
-2.34965e+08
-2.97652e+10
-4.32762e+07
-2.13306e+08
-2.97584e+10
-5.26645e+07
-1.98487e+08
-2.97241e+10
-6.44487e+07
-1.93113e+08
-2.96423e+10
-8.01937e+07
-1.98111e+08
-2.9483e+10
-1.01559e+08
-2.19423e+08
-2.92185e+10
-1.29545e+08
-2.57933e+08
-2.8812e+10
-1.65775e+08
-3.18361e+08
-2.82275e+10
-2.11639e+08
-4.02843e+08
-2.74503e+10
-2.6601e+08
-5.0225e+08
-2.65191e+10
-3.27752e+08
-5.88186e+08
-2.5546e+10
-3.88483e+08
-6.05573e+08
-2.46674e+10
-4.50538e+08
-4.78214e+08
-2.39949e+10
-4.56649e+08
-1.17589e+08
-2.40893e+10
-4.59963e+08
7.57656e+08
-2.58781e+10
-6.61804e+08
2.57737e+09
-3.264e+10
-5.80853e+09
9.04959e+09
-3.79466e+09
6.06327e+09
-4.36139e+10
-5.99149e+09
-4.26538e+10
-3.65553e+09
-4.19439e+10
-2.84171e+09
-4.12891e+10
-2.00341e+09
-4.11019e+10
-1.80751e+09
-4.07231e+10
-1.3049e+09
-4.05053e+10
-9.03688e+08
-4.02931e+10
-7.70743e+08
-4.0108e+10
-6.37246e+08
-3.99011e+10
-5.11607e+08
-3.97078e+10
-4.10605e+08
-3.95358e+10
-3.30928e+08
-3.93846e+10
-2.76621e+08
-3.9245e+10
-2.43763e+08
-3.91112e+10
-2.25015e+08
-3.89889e+10
-2.11223e+08
-3.88682e+10
-2.14025e+08
-3.87413e+10
-2.31892e+08
-3.86053e+10
-2.54403e+08
-3.84563e+10
-2.81627e+08
-3.82955e+10
-3.10059e+08
-3.8121e+10
-3.39113e+08
-3.79375e+10
-3.61675e+08
-3.77498e+10
-3.75239e+08
-3.75621e+10
-3.76095e+08
-3.73829e+10
-3.63083e+08
-3.72185e+10
-3.3582e+08
-3.70749e+10
-2.97394e+08
-3.6957e+10
-2.49144e+08
-3.68707e+10
-1.94134e+08
-3.6816e+10
-1.37527e+08
-3.67962e+10
-7.9267e+07
-3.68081e+10
-2.40651e+07
-3.68478e+10
2.73401e+07
-3.69151e+10
7.55201e+07
-3.70055e+10
1.17287e+08
-3.71135e+10
1.51011e+08
-3.72333e+10
1.78179e+08
-3.73614e+10
1.99543e+08
-3.74922e+10
2.13565e+08
-3.76224e+10
2.21034e+08
-3.77418e+10
2.16606e+08
-3.78431e+10
1.99993e+08
-3.79138e+10
1.63976e+08
-3.79416e+10
1.04383e+08
-3.79218e+10
2.22341e+07
-3.78863e+10
-6.29695e+07
-3.78981e+10
-1.10458e+08
-3.80942e+10
-2.03852e+07
-3.86455e+10
4.52474e+08
-4.06724e+10
1.90922e+09
-4.73013e+10
4.72451e+09
-6.81433e+10
1.10749e+10
6.01013e+09
-4.04828e+10
-5.68187e+08
-6.44511e+09
-4.02658e+10
-2.72012e+08
-4.1589e+09
-3.96222e+10
-2.23244e+08
-3.66908e+09
-3.92087e+10
-2.44078e+08
-2.48779e+09
-3.91393e+10
-2.06317e+08
-2.19303e+09
-3.89132e+10
-9.68269e+07
-1.79498e+09
-3.86923e+10
-2.01578e+07
-1.3992e+09
-3.85443e+10
-4.21925e+07
-1.12023e+09
-3.84514e+10
-8.09271e+07
-9.10515e+08
-3.83859e+10
-9.37728e+07
-7.53541e+08
-3.83259e+10
-1.05625e+08
-6.48401e+08
-3.82772e+10
-1.06201e+08
-5.51986e+08
-3.82305e+10
-1.04936e+08
-4.88704e+08
-3.81824e+10
-1.02223e+08
-4.52224e+08
-3.81349e+10
-9.99568e+07
-4.35288e+08
-3.80885e+10
-9.89585e+07
-4.2427e+08
-3.80403e+10
-9.86865e+07
-4.31154e+08
-3.79815e+10
-1.0076e+08
-4.57992e+08
-3.79105e+10
-1.0295e+08
-4.95433e+08
-3.7818e+10
-1.04465e+08
-5.4416e+08
-3.7702e+10
-1.06067e+08
-5.98329e+08
-3.75602e+10
-1.07314e+08
-6.55182e+08
-3.73941e+10
-1.08716e+08
-7.05813e+08
-3.72071e+10
-1.09775e+08
-7.44658e+08
-3.70032e+10
-1.10151e+08
-7.66749e+08
-3.67891e+10
-1.09661e+08
-7.68621e+08
-3.65698e+10
-1.08244e+08
-7.51655e+08
-3.63497e+10
-1.06217e+08
-7.19078e+08
-3.61316e+10
-1.03925e+08
-6.73825e+08
-3.59151e+10
-1.0126e+08
-6.22255e+08
-3.57038e+10
-9.69705e+07
-5.66481e+08
-3.55012e+10
-8.95344e+07
-5.09962e+08
-3.53074e+10
-8.16291e+07
-4.55945e+08
-3.51149e+10
-7.43585e+07
-4.09406e+08
-3.49224e+10
-6.48296e+07
-3.70387e+08
-3.47245e+10
-6.11259e+07
-3.3829e+08
-3.45222e+10
-5.81336e+07
-3.14401e+08
-3.43113e+10
-5.61885e+07
-2.99858e+08
-3.4083e+10
-5.76148e+07
-2.93826e+08
-3.38304e+10
-6.13408e+07
-2.97278e+08
-3.35458e+10
-6.80234e+07
-3.09694e+08
-3.32239e+10
-7.88951e+07
-3.33314e+08
-3.28562e+10
-9.52372e+07
-3.70402e+08
-3.24375e+10
-1.18437e+08
-4.22086e+08
-3.19645e+10
-1.4917e+08
-4.90573e+08
-3.14377e+10
-1.87209e+08
-5.67881e+08
-3.08498e+10
-2.31473e+08
-6.40789e+08
-3.01665e+10
-2.76602e+08
-6.8875e+08
-2.9339e+10
-2.84042e+08
-6.92812e+08
-2.84264e+10
-1.20827e+08
-5.69141e+08
-2.74607e+10
2.19377e+08
-5.25366e+07
-2.56864e+10
2.04974e+08
1.07171e+09
-1.41279e+10
-4.73021e+09
2.62098e+09
-3.85502e+09
2.50765e+09
-4.21112e+10
-6.18011e+09
-4.21251e+10
-3.8743e+09
-4.20604e+10
-3.10662e+09
-4.18201e+10
-2.47757e+09
-4.17741e+10
-2.05583e+09
-4.15767e+10
-1.59716e+09
-4.12937e+10
-1.20493e+09
-4.11339e+10
-9.70494e+08
-4.10714e+10
-7.78175e+08
-4.10283e+10
-6.45563e+08
-4.10032e+10
-5.37902e+08
-4.09868e+10
-4.49522e+08
-4.09735e+10
-3.90135e+08
-4.09572e+10
-3.56897e+08
-4.09359e+10
-3.40289e+08
-4.0918e+10
-3.22554e+08
-4.09017e+10
-3.23925e+08
-4.08853e+10
-3.44324e+08
-4.08644e+10
-3.72453e+08
-4.08333e+10
-4.09805e+08
-4.07887e+10
-4.50452e+08
-4.07304e+10
-4.92133e+08
-4.06587e+10
-5.27261e+08
-4.05766e+10
-5.5019e+08
-4.04862e+10
-5.57554e+08
-4.03919e+10
-5.45357e+08
-4.02961e+10
-5.15641e+08
-4.02005e+10
-4.72225e+08
-4.01059e+10
-4.17966e+08
-4.00105e+10
-3.5841e+08
-3.9915e+10
-2.95268e+08
-3.98143e+10
-2.32944e+08
-3.97083e+10
-1.73787e+08
-3.9597e+10
-1.19879e+08
-3.94753e+10
-7.20154e+07
-3.93498e+10
-2.97759e+07
-3.92209e+10
4.76998e+06
-3.90885e+10
3.31517e+07
-3.89525e+10
5.45855e+07
-3.88097e+10
6.64504e+07
-3.86568e+10
6.94468e+07
-3.84932e+10
5.99526e+07
-3.83164e+10
3.47047e+07
-3.81309e+10
-8.54591e+06
-3.79408e+10
-7.68531e+07
-3.77531e+10
-1.69605e+08
-3.75628e+10
-2.8101e+08
-3.73376e+10
-3.95301e+08
-3.69407e+10
-4.72842e+08
-3.60194e+10
-3.30449e+08
-3.37904e+10
2.47781e+08
-3.04524e+10
2.03466e+09
-3.21528e+10
8.4178e+09
3.46541e+09
-3.83617e+10
-2.25971e+08
-5.7223e+09
-3.82873e+10
-3.37583e+08
-3.86043e+09
-3.83342e+10
-3.87816e+08
-3.21363e+09
-3.79415e+10
-2.91987e+08
-2.58101e+09
-3.78451e+10
-2.05838e+08
-2.08038e+09
-3.77697e+10
-1.25082e+08
-1.7413e+09
-3.76704e+10
-9.65995e+07
-1.39482e+09
-3.75688e+10
-1.03017e+08
-1.10987e+09
-3.74848e+10
-1.07068e+08
-8.77353e+08
-3.74104e+10
-1.05643e+08
-7.12203e+08
-3.73618e+10
-1.07337e+08
-5.80586e+08
-3.73345e+10
-1.05129e+08
-4.66076e+08
-3.73264e+10
-9.68565e+07
-3.92324e+08
-3.73226e+10
-9.04307e+07
-3.57763e+08
-3.73244e+10
-8.40997e+07
-3.40843e+08
-3.73254e+10
-8.06974e+07
-3.33656e+08
-3.73238e+10
-7.78453e+07
-3.4723e+08
-3.73195e+10
-7.54354e+07
-3.80445e+08
-3.73098e+10
-7.23954e+07
-4.27004e+08
-3.72901e+10
-6.84779e+07
-4.86777e+08
-3.72576e+10
-6.40958e+07
-5.55777e+08
-3.72084e+10
-5.88665e+07
-6.28199e+08
-3.71463e+10
-5.4081e+07
-6.95055e+08
-3.70728e+10
-4.86805e+07
-7.45662e+08
-3.69959e+10
-4.3644e+07
-7.73593e+08
-3.69201e+10
-3.84724e+07
-7.7551e+08
-3.68503e+10
-3.36768e+07
-7.5365e+08
-3.67874e+10
-2.92921e+07
-7.14725e+08
-3.67297e+10
-2.55139e+07
-6.64248e+08
-3.66746e+10
-2.24843e+07
-6.092e+08
-3.66205e+10
-1.93744e+07
-5.51978e+08
-3.65654e+10
-1.50838e+07
-4.97773e+08
-3.65041e+10
-1.10451e+07
-4.51932e+08
-3.64352e+10
-1.03704e+07
-4.1233e+08
-3.63588e+10
-1.37837e+07
-3.76851e+08
-3.62658e+10
-2.01614e+07
-3.54398e+08
-3.61533e+10
-2.81167e+07
-3.40916e+08
-3.60168e+10
-3.89638e+07
-3.36628e+08
-3.58495e+10
-5.44075e+07
-3.39973e+08
-3.56434e+10
-7.42369e+07
-3.51996e+08
-3.5387e+10
-9.91738e+07
-3.73802e+08
-3.50685e+10
-1.30666e+08
-4.06145e+08
-3.46729e+10
-1.6896e+08
-4.53926e+08
-3.41859e+10
-2.14598e+08
-5.18164e+08
-3.35956e+10
-2.67588e+08
-6.01144e+08
-3.28897e+10
-3.28439e+08
-7.00382e+08
-3.20477e+10
-4.00374e+08
-8.12326e+08
-3.1031e+10
-4.83821e+08
-9.36083e+08
-2.98113e+10
-5.39414e+08
-1.0672e+09
-2.84725e+10
-3.99007e+08
-1.1718e+09
-2.62945e+10
-2.69502e+08
-1.53833e+09
-2.22268e+10
-7.33004e+08
-1.74937e+09
-1.05523e+10
-6.1956e+09
-2.42573e+09
-5.00435e+09
1.04861e+09
-3.87498e+10
-5.82681e+09
-3.88139e+10
-4.13412e+09
-3.88172e+10
-3.48502e+09
-3.86471e+10
-2.93756e+09
-3.85762e+10
-2.33118e+09
-3.84405e+10
-1.85482e+09
-3.82221e+10
-1.51452e+09
-3.80424e+10
-1.24588e+09
-3.79162e+10
-1.0034e+09
-3.78254e+10
-8.34288e+08
-3.77593e+10
-7.04555e+08
-3.77042e+10
-6.04089e+08
-3.76524e+10
-5.33899e+08
-3.76003e+10
-4.94797e+08
-3.75499e+10
-4.69951e+08
-3.74959e+10
-4.52839e+08
-3.74364e+10
-4.57549e+08
-3.7374e+10
-4.79575e+08
-3.73042e+10
-5.12082e+08
-3.72238e+10
-5.55021e+08
-3.71291e+10
-6.03038e+08
-3.70195e+10
-6.52209e+08
-3.68973e+10
-6.91798e+08
-3.67684e+10
-7.13709e+08
-3.66411e+10
-7.11069e+08
-3.65224e+10
-6.82369e+08
-3.64181e+10
-6.30623e+08
-3.6331e+10
-5.63048e+08
-3.62608e+10
-4.85625e+08
-3.62048e+10
-4.06338e+08
-3.61586e+10
-3.28138e+08
-3.61172e+10
-2.54965e+08
-3.60764e+10
-1.89813e+08
-3.60363e+10
-1.33735e+08
-3.59964e+10
-8.85073e+07
-3.59556e+10
-5.28373e+07
-3.59138e+10
-2.60395e+07
-3.58668e+10
-1.08436e+07
-3.58151e+10
-4.44939e+06
-3.57588e+10
-8.19072e+06
-3.56967e+10
-2.31195e+07
-3.56287e+10
-5.20175e+07
-3.55528e+10
-1.00678e+08
-3.54676e+10
-1.71581e+08
-3.53733e+10
-2.72833e+08
-3.52708e+10
-4.06914e+08
-3.516e+10
-5.76628e+08
-3.50122e+10
-7.90115e+08
-3.4677e+10
-1.07828e+09
-3.35257e+10
-1.54056e+09
-3.08975e+10
-2.18733e+09
-2.70337e+10
-1.97613e+09
-2.69615e+10
2.53569e+09
1.49385e+09
-3.78097e+10
-1.10656e+08
-5.05833e+09
-3.77715e+10
-1.92114e+08
-3.71144e+09
-3.77374e+10
-2.13267e+08
-3.03985e+09
-3.75822e+10
-1.80869e+08
-2.55757e+09
-3.74046e+10
-1.90322e+08
-2.0663e+09
-3.72391e+10
-1.83111e+08
-1.71647e+09
-3.70544e+10
-1.79278e+08
-1.3877e+09
-3.68741e+10
-1.80031e+08
-1.09369e+09
-3.6714e+10
-1.81989e+08
-8.38324e+08
-3.65749e+10
-1.90306e+08
-6.45294e+08
-3.64555e+10
-1.91716e+08
-4.95428e+08
-3.6334e+10
-1.91659e+08
-3.86652e+08
-3.62295e+10
-1.8448e+08
-3.06258e+08
-3.61413e+10
-1.79771e+08
-2.6237e+08
-3.60621e+10
-1.76785e+08
-2.39668e+08
-3.59801e+10
-1.75457e+08
-2.37525e+08
-3.58936e+10
-1.73842e+08
-2.5844e+08
-3.58022e+10
-1.72393e+08
-3.01738e+08
-3.57015e+10
-1.70043e+08
-3.61414e+08
-3.55895e+10
-1.67074e+08
-4.37579e+08
-3.5458e+10
-1.62375e+08
-5.26104e+08
-3.53066e+10
-1.56902e+08
-6.21644e+08
-3.51355e+10
-1.49405e+08
-7.09128e+08
-3.49556e+10
-1.40693e+08
-7.71997e+08
-3.4782e+10
-1.30734e+08
-7.9836e+08
-3.46295e+10
-1.20172e+08
-7.85159e+08
-3.45108e+10
-1.09587e+08
-7.37136e+08
-3.44332e+10
-9.97417e+07
-6.64434e+08
-3.43971e+10
-9.11149e+07
-5.78521e+08
-3.4402e+10
-8.33327e+07
-4.87938e+08
-3.44414e+10
-7.58733e+07
-4.01348e+08
-3.45067e+10
-6.89894e+07
-3.26215e+08
-3.45913e+10
-6.33926e+07
-2.65087e+08
-3.46886e+10
-5.90435e+07
-2.16468e+08
-3.47927e+10
-5.64952e+07
-1.76588e+08
-3.49011e+10
-5.63764e+07
-1.5012e+08
-3.50088e+10
-5.73267e+07
-1.36062e+08
-3.51108e+10
-5.88948e+07
-1.33804e+08
-3.51988e+10
-6.20937e+07
-1.43172e+08
-3.52648e+10
-6.7196e+07
-1.62672e+08
-3.52972e+10
-7.46529e+07
-1.96196e+08
-3.52831e+10
-8.53725e+07
-2.43367e+08
-3.52115e+10
-1.00098e+08
-3.07681e+08
-3.5068e+10
-1.18714e+08
-3.93812e+08
-3.48389e+10
-1.41246e+08
-5.07554e+08
-3.44993e+10
-1.67451e+08
-6.62196e+08
-3.40032e+10
-1.97646e+08
-8.78907e+08
-3.32912e+10
-2.20768e+08
-1.17343e+09
-3.23065e+10
-2.21928e+08
-1.52951e+09
-3.07159e+10
-2.731e+08
-2.09047e+09
-2.82281e+10
-3.93206e+08
-3.1196e+09
-2.47455e+10
-5.18987e+08
-4.14133e+09
-9.20137e+09
-5.36818e+09
-1.21356e+10
-2.37741e+09
-5.27707e+09
-3.75915e+10
-5.46854e+09
-3.77344e+10
-4.18929e+09
-3.78019e+10
-3.63522e+09
-3.77807e+10
-3.14198e+09
-3.77516e+10
-2.54916e+09
-3.76607e+10
-2.12344e+09
-3.7539e+10
-1.8066e+09
-3.74169e+10
-1.53726e+09
-3.72863e+10
-1.30509e+09
-3.71758e+10
-1.12533e+09
-3.70799e+10
-9.84395e+08
-3.69898e+10
-8.80478e+08
-3.68985e+10
-8.06514e+08
-3.68073e+10
-7.6383e+08
-3.67132e+10
-7.3975e+08
-3.66064e+10
-7.34579e+08
-3.64857e+10
-7.52879e+08
-3.63486e+10
-7.91766e+08
-3.61893e+10
-8.45647e+08
-3.6002e+10
-9.13586e+08
-3.5778e+10
-9.92134e+08
-3.55113e+10
-1.07534e+09
-3.52005e+10
-1.14786e+09
-3.48518e+10
-1.19444e+09
-3.44789e+10
-1.20204e+09
-3.40969e+10
-1.16902e+09
-3.37206e+10
-1.0991e+09
-3.33622e+10
-1.00263e+09
-3.30279e+10
-8.91342e+08
-3.27228e+10
-7.74062e+08
-3.24471e+10
-6.58084e+08
-3.21999e+10
-5.48574e+08
-3.19811e+10
-4.48859e+08
-3.17891e+10
-3.61354e+08
-3.16243e+10
-2.86488e+08
-3.14848e+10
-2.25506e+08
-3.13684e+10
-1.76082e+08
-3.12721e+10
-1.40445e+08
-3.1188e+10
-1.20775e+08
-3.11093e+10
-1.1661e+08
-3.10275e+10
-1.30496e+08
-3.09371e+10
-1.62638e+08
-3.08348e+10
-2.17443e+08
-3.07168e+10
-2.99578e+08
-3.05834e+10
-4.15315e+08
-3.04265e+10
-5.79843e+08
-3.02163e+10
-8.18048e+08
-2.98738e+10
-1.16791e+09
-2.92629e+10
-1.68216e+09
-2.82949e+10
-2.47291e+09
-2.68829e+10
-3.59618e+09
-2.37252e+10
-5.24483e+09
-1.40344e+10
-1.23092e+10
-6.47313e+09
-3.7131e+10
3.81756e+07
-4.50592e+09
-3.7427e+10
7.72961e+06
-3.44779e+09
-3.75518e+10
1.60733e+07
-2.94649e+09
-3.76859e+10
2.89358e+07
-2.45912e+09
-3.7709e+10
-1.70394e+07
-2.02385e+09
-3.76982e+10
-4.71641e+07
-1.67115e+09
-3.76378e+10
-5.80851e+07
-1.37652e+09
-3.75513e+10
-4.17687e+07
-1.12288e+09
-3.74469e+10
-2.92043e+07
-8.97841e+08
-3.73539e+10
-2.66743e+07
-6.97712e+08
-3.72734e+10
-3.47411e+07
-5.30367e+08
-3.71909e+10
-3.99446e+07
-4.2264e+08
-3.71076e+10
-3.88064e+07
-3.4876e+08
-3.70286e+10
-3.89389e+07
-3.03912e+08
-3.69479e+10
-4.12966e+07
-2.826e+08
-3.68592e+10
-4.48067e+07
-2.86095e+08
-3.67591e+10
-4.90865e+07
-3.15888e+08
-3.66478e+10
-5.44328e+07
-3.68244e+08
-3.6522e+10
-6.07168e+07
-4.40742e+08
-3.63773e+10
-6.76862e+07
-5.31494e+08
-3.62038e+10
-7.51336e+07
-6.40058e+08
-3.59962e+10
-8.33376e+07
-7.59567e+08
-3.57488e+10
-9.07767e+07
-8.69081e+08
-3.54776e+10
-9.84213e+07
-9.43041e+08
-3.52011e+10
-1.03909e+08
-9.6007e+08
-3.49473e+10
-1.08317e+08
-9.17816e+08
-3.47341e+10
-1.10659e+08
-8.2642e+08
-3.45726e+10
-1.11005e+08
-7.03439e+08
-3.44674e+10
-1.09218e+08
-5.65145e+08
-3.4416e+10
-1.05815e+08
-4.26107e+08
-3.44166e+10
-1.01748e+08
-2.9324e+08
-3.44652e+10
-9.81081e+07
-1.75555e+08
-3.45589e+10
-9.5272e+07
-7.3995e+07
-3.46948e+10
-9.1881e+07
1.094e+07
-3.48678e+10
-8.72119e+07
8.02945e+07
-3.50787e+10
-8.23574e+07
1.36489e+08
-3.53264e+10
-7.81296e+07
1.80193e+08
-3.56096e+10
-7.45136e+07
2.1285e+08
-3.59303e+10
-7.20036e+07
2.39526e+08
-3.6286e+10
-7.20019e+07
2.59957e+08
-3.66788e+10
-7.57063e+07
2.76719e+08
-3.71089e+10
-8.21456e+07
2.87637e+08
-3.7579e+10
-9.17963e+07
2.91132e+08
-3.80962e+10
-1.04984e+08
2.85162e+08
-3.86741e+10
-1.2278e+08
2.66254e+08
-3.93264e+10
-1.49171e+08
2.18982e+08
-4.00549e+10
-1.93057e+08
1.14098e+08
-4.08178e+10
-2.62412e+08
-9.18115e+07
-4.13927e+10
-3.80706e+08
-5.24196e+08
-4.1293e+10
-5.67392e+08
-1.57442e+09
-3.94965e+10
-9.32856e+08
-3.93245e+09
-3.24619e+10
-2.50979e+09
-8.54044e+09
-2.44059e+10
-6.4671e+09
-1.37442e+10
-2.49833e+09
-3.55675e+09
-3.58832e+10
-4.96434e+09
-3.62012e+10
-3.88414e+09
-3.64085e+10
-3.42559e+09
-3.65675e+10
-2.95948e+09
-3.66856e+10
-2.44654e+09
-3.67727e+10
-2.07677e+09
-3.68255e+10
-1.80216e+09
-3.68362e+10
-1.55752e+09
-3.68185e+10
-1.34163e+09
-3.68043e+10
-1.1575e+09
-3.68098e+10
-1.00752e+09
-3.68238e+10
-9.03515e+08
-3.68365e+10
-8.33089e+08
-3.68516e+10
-7.9067e+08
-3.68661e+10
-7.71307e+08
-3.68749e+10
-7.76333e+08
-3.6877e+10
-8.07575e+08
-3.68729e+10
-8.60391e+08
-3.68601e+10
-9.32213e+08
-3.68352e+10
-1.02087e+09
-3.67911e+10
-1.12643e+09
-3.67216e+10
-1.23989e+09
-3.66244e+10
-1.34318e+09
-3.65093e+10
-1.40811e+09
-3.63932e+10
-1.41796e+09
-3.62944e+10
-1.36951e+09
-3.62237e+10
-1.27429e+09
-3.61846e+10
-1.1485e+09
-3.61758e+10
-1.00765e+09
-3.61904e+10
-8.65977e+08
-3.62251e+10
-7.28452e+08
-3.6275e+10
-6.02611e+08
-3.63378e+10
-4.89816e+08
-3.64123e+10
-3.90175e+08
-3.6498e+10
-3.02905e+08
-3.65969e+10
-2.2714e+08
-3.67108e+10
-1.61655e+08
-3.68429e+10
-1.06196e+08
-3.69985e+10
-6.08511e+07
-3.71811e+10
-2.75963e+07
-3.74009e+10
-3.35914e+06
-3.76665e+10
1.11182e+07
-3.79884e+10
1.17739e+07
-3.83799e+10
-5.99527e+06
-3.88602e+10
-4.77695e+07
-3.94539e+10
-1.3251e+08
-4.01892e+10
-2.93852e+08
-4.10725e+10
-5.95262e+08
-4.20401e+10
-1.17756e+09
-4.27676e+10
-2.43167e+09
-4.22705e+10
-5.17084e+09
-3.98007e+10
-1.04293e+10
-3.99451e+10
-1.89272e+10
-5.50009e+09
-3.59555e+10
1.25383e+08
-4.18007e+09
-3.62353e+10
1.42735e+08
-3.34909e+09
-3.64042e+10
1.59336e+08
-2.96038e+09
-3.6541e+10
1.58628e+08
-2.4886e+09
-3.65772e+10
1.17518e+08
-2.10118e+09
-3.65786e+10
8.42084e+07
-1.74305e+09
-3.65746e+10
7.7808e+07
-1.44416e+09
-3.65702e+10
9.6107e+07
-1.20866e+09
-3.65577e+10
1.0601e+08
-1.00279e+09
-3.65414e+10
1.069e+08
-8.09949e+08
-3.65054e+10
1.01178e+08
-6.60329e+08
-3.64714e+10
9.99581e+07
-5.54442e+08
-3.64444e+10
1.01802e+08
-4.81369e+08
-3.64206e+10
1.02337e+08
-4.39153e+08
-3.63927e+10
1.02394e+08
-4.25753e+08
-3.63527e+10
1.02356e+08
-4.43277e+08
-3.62965e+10
1.02288e+08
-4.91171e+08
-3.6219e+10
1.01762e+08
-5.68082e+08
-3.61166e+10
1.00614e+08
-6.70824e+08
-3.59818e+10
9.89611e+07
-7.97277e+08
-3.58037e+10
9.62776e+07
-9.51703e+08
-3.55589e+10
9.37858e+07
-1.12955e+09
-3.52379e+10
8.96183e+07
-1.30502e+09
-3.48481e+10
8.51288e+07
-1.42817e+09
-3.44279e+10
7.84682e+07
-1.46071e+09
-3.40145e+10
7.0574e+07
-1.39994e+09
-3.36362e+10
6.19807e+07
-1.26838e+09
-3.33071e+10
5.42806e+07
-1.09586e+09
-3.30304e+10
4.9168e+07
-9.08464e+08
-3.28022e+10
4.72293e+07
-7.27052e+08
-3.26143e+10
4.83806e+07
-5.6273e+08
-3.24612e+10
5.18867e+07
-4.21203e+08
-3.23381e+10
5.64082e+07
-3.01871e+08
-3.22416e+10
6.21001e+07
-2.04245e+08
-3.2167e+10
6.91628e+07
-1.28864e+08
-3.21117e+10
7.76664e+07
-7.13402e+07
-3.20733e+10
8.74365e+07
-2.97214e+07
-3.20521e+10
9.86028e+07
357956
-3.20428e+10
1.11244e+08
1.98546e+07
-3.20419e+10
1.24408e+08
3.13118e+07
-3.20435e+10
1.36655e+08
3.66854e+07
-3.20448e+10
1.4615e+08
3.77365e+07
-3.20465e+10
1.5174e+08
3.56687e+07
-3.20528e+10
1.51456e+08
2.83703e+07
-3.20759e+10
1.41499e+08
1.73529e+07
-3.21384e+10
1.13619e+08
-7.00066e+06
-3.22775e+10
5.57109e+07
-5.86073e+07
-3.25501e+10
-4.48039e+07
-1.58734e+08
-3.30156e+10
-2.20113e+08
-3.94272e+08
-3.37495e+10
-5.58273e+08
-1.02942e+09
-3.48953e+10
-1.28449e+09
-2.41985e+09
-3.62182e+10
-3.16848e+09
-5.0522e+09
-3.17571e+10
-7.67636e+09
-1.12682e+10
-2.43478e+09
-4.75669e+09
-3.4492e+10
-4.42041e+09
-3.47394e+10
-3.5162e+09
-3.49091e+10
-3.1081e+09
-3.50208e+10
-2.69158e+09
-3.50306e+10
-2.31497e+09
-3.50224e+10
-1.99282e+09
-3.50435e+10
-1.69399e+09
-3.50509e+10
-1.4446e+09
-3.50463e+10
-1.23168e+09
-3.50359e+10
-1.05416e+09
-3.50216e+10
-9.1658e+08
-3.50093e+10
-8.15421e+08
-3.4998e+10
-7.46012e+08
-3.49862e+10
-7.07225e+08
-3.49674e+10
-6.9698e+08
-3.49342e+10
-7.1805e+08
-3.48823e+10
-7.69474e+08
-3.48063e+10
-8.4941e+08
-3.4702e+10
-9.54383e+08
-3.45642e+10
-1.08244e+09
-3.43816e+10
-1.23626e+09
-3.41377e+10
-1.41175e+09
-3.38251e+10
-1.58026e+09
-3.34624e+10
-1.69111e+09
-3.30934e+10
-1.70695e+09
-3.2761e+10
-1.62726e+09
-3.24947e+10
-1.47779e+09
-3.23052e+10
-1.28892e+09
-3.2188e+10
-1.08736e+09
-3.21317e+10
-8.92864e+08
-3.21213e+10
-7.13954e+08
-3.2145e+10
-5.5576e+08
-3.21947e+10
-4.17991e+08
-3.22641e+10
-2.98739e+08
-3.23478e+10
-1.96318e+08
-3.24432e+10
-1.06934e+08
-3.25474e+10
-2.94443e+07
-3.26604e+10
4.00498e+07
-3.27816e+10
1.01531e+08
-3.29152e+10
1.57005e+08
-3.30656e+10
2.08372e+08
-3.32455e+10
2.61016e+08
-3.34756e+10
3.14815e+08
-3.37808e+10
3.63893e+08
-3.42e+10
4.05349e+08
-3.47945e+10
4.24181e+08
-3.56545e+10
3.92763e+08
-3.68981e+10
2.52626e+08
-3.86775e+10
-1.28199e+08
-4.13307e+10
-1.03796e+09
-4.57164e+10
-2.94756e+09
-5.41004e+10
-6.13975e+09
-7.1429e+10
-9.89191e+09
1.47743e+09
-3.60714e+10
3.71381e+07
-3.77905e+09
-3.63699e+10
6.43569e+07
-3.13088e+09
-3.66103e+10
7.54897e+07
-2.80151e+09
-3.67759e+10
8.28471e+07
-2.40406e+09
-3.68986e+10
8.91184e+07
-2.06122e+09
-3.69794e+10
9.07551e+07
-1.74386e+09
-3.70476e+10
9.38133e+07
-1.45941e+09
-3.71161e+10
9.94834e+07
-1.22851e+09
-3.71817e+10
9.84008e+07
-1.02425e+09
-3.72349e+10
9.25712e+07
-8.38923e+08
-3.72794e+10
9.02152e+07
-6.98037e+08
-3.73267e+10
9.18922e+07
-5.95107e+08
-3.73794e+10
9.42969e+07
-5.24296e+08
-3.74344e+10
9.55061e+07
-4.86049e+08
-3.74842e+10
9.68612e+07
-4.82828e+08
-3.75223e+10
9.89456e+07
-5.15393e+08
-3.75416e+10
1.02151e+08
-5.85251e+08
-3.75385e+10
1.06303e+08
-6.90545e+08
-3.75102e+10
1.11503e+08
-8.28315e+08
-3.74514e+10
1.18143e+08
-9.99646e+08
-3.73515e+10
1.27701e+08
-1.21096e+09
-3.71822e+10
1.41599e+08
-1.47043e+09
-3.69158e+10
1.60186e+08
-1.75241e+09
-3.65622e+10
1.84108e+08
-1.96746e+09
-3.61886e+10
2.09465e+08
-2.03191e+09
-3.58605e+10
2.34078e+08
-1.9439e+09
-3.56149e+10
2.5399e+08
-1.75525e+09
-3.54594e+10
2.68882e+08
-1.51744e+09
-3.53824e+10
2.79601e+08
-1.27226e+09
-3.53675e+10
2.86997e+08
-1.04442e+09
-3.53989e+10
2.91874e+08
-8.45198e+08
-3.54672e+10
2.94234e+08
-6.74701e+08
-3.55647e+10
2.94726e+08
-5.32177e+08
-3.56872e+10
2.93558e+08
-4.14198e+08
-3.58366e+10
2.90601e+08
-3.15523e+08
-3.60131e+10
2.86209e+08
-2.33736e+08
-3.62208e+10
2.80676e+08
-1.6275e+08
-3.64603e+10
2.74469e+08
-1.01522e+08
-3.67366e+10
2.69009e+08
-4.51085e+07
-3.70534e+10
2.64923e+08
7.66228e+06
-3.74146e+10
2.62141e+08
5.9302e+07
-3.78248e+10
2.59591e+08
1.12887e+08
-3.82913e+10
2.56163e+08
1.71267e+08
-3.88268e+10
2.50101e+08
2.35651e+08
-3.94549e+10
2.37291e+08
3.1465e+08
-4.02194e+10
2.09279e+08
4.1521e+08